/*--------------------------------*- C++ -*----------------------------------*\
| =========                 |                                                 |
| \\      /  F ield         | foam-extend: Open Source CFD                    |
|  \\    /   O peration     | Version:     4.0                                |
|   \\  /    A nd           | Web:         http://www.foam-extend.org         |
|    \\/     M anipulation  |                                                 |
\*---------------------------------------------------------------------------*/
FoamFile
{
    version     2.0;
    format      ascii;
    class       volScalarField;
    location    "690";
    object      cPlus;
}
// * * * * * * * * * * * * * * * * * * * * * * * * * * * * * * * * * * * * * //

dimensions      [0 0 0 0 0 0 0];

internalField   nonuniform List<scalar> 
6960
(
0.230133
0.230074
0.230025
0.229991
0.229969
0.229955
0.229946
0.229941
0.229938
0.229935
0.229934
0.229933
0.229933
0.229932
0.229932
0.229932
0.229932
0.229932
0.229932
0.229932
0.229932
0.229932
0.229932
0.229931
0.229931
0.229931
0.229931
0.229931
0.229931
0.229931
0.229931
0.229931
0.229931
0.229931
0.229931
0.229931
0.229931
0.229932
0.229932
0.229932
0.229932
0.229932
0.229932
0.229932
0.229932
0.229932
0.229932
0.229933
0.229933
0.229934
0.229935
0.229938
0.229941
0.229946
0.229955
0.229969
0.229991
0.230025
0.230074
0.230133
0.0561693
0.0561485
0.0561304
0.0561178
0.0561095
0.0561042
0.0561009
0.0560989
0.0560977
0.0560969
0.0560964
0.0560961
0.0560959
0.0560958
0.0560957
0.0560956
0.0560955
0.0560955
0.0560955
0.0560954
0.0560954
0.0560954
0.0560954
0.0560954
0.0560954
0.0560954
0.0560954
0.0560954
0.0560954
0.0560954
0.0560954
0.0560954
0.0560954
0.0560954
0.0560954
0.0560954
0.0560954
0.0560954
0.0560954
0.0560954
0.0560954
0.0560955
0.0560955
0.0560955
0.0560956
0.0560957
0.0560958
0.0560959
0.0560961
0.0560964
0.0560969
0.0560977
0.0560989
0.0561009
0.0561042
0.0561095
0.0561178
0.0561304
0.0561485
0.0561693
0.0231077
0.023106
0.0231034
0.0231015
0.0231002
0.0230994
0.0230988
0.0230985
0.0230983
0.0230981
0.023098
0.023098
0.023098
0.0230979
0.0230979
0.0230979
0.0230979
0.0230979
0.0230979
0.0230979
0.0230979
0.0230979
0.0230979
0.0230979
0.0230979
0.0230979
0.0230979
0.0230979
0.0230979
0.0230979
0.0230979
0.0230979
0.0230979
0.0230979
0.0230979
0.0230979
0.0230979
0.0230979
0.0230979
0.0230979
0.0230979
0.0230979
0.0230979
0.0230979
0.0230979
0.0230979
0.0230979
0.023098
0.023098
0.023098
0.0230981
0.0230983
0.0230985
0.0230988
0.0230994
0.0231002
0.0231015
0.0231034
0.023106
0.0231077
0.016555
0.01656
0.016563
0.0165649
0.016566
0.0165667
0.0165671
0.0165674
0.0165675
0.0165676
0.0165677
0.0165677
0.0165678
0.0165678
0.0165678
0.0165678
0.0165678
0.0165678
0.0165678
0.0165678
0.0165678
0.0165678
0.0165678
0.0165678
0.0165678
0.0165678
0.0165678
0.0165679
0.0165679
0.0165679
0.0165679
0.0165679
0.0165679
0.0165678
0.0165678
0.0165678
0.0165678
0.0165678
0.0165678
0.0165678
0.0165678
0.0165678
0.0165678
0.0165678
0.0165678
0.0165678
0.0165678
0.0165678
0.0165677
0.0165677
0.0165676
0.0165675
0.0165674
0.0165671
0.0165667
0.016566
0.0165649
0.016563
0.01656
0.016555
0.0154094
0.0154165
0.0154211
0.0154242
0.0154261
0.0154273
0.015428
0.0154284
0.0154287
0.0154288
0.0154289
0.015429
0.015429
0.0154291
0.0154291
0.0154291
0.0154291
0.0154291
0.0154291
0.0154291
0.0154291
0.0154291
0.0154292
0.0154292
0.0154292
0.0154292
0.0154292
0.0154292
0.0154292
0.0154292
0.0154292
0.0154292
0.0154292
0.0154292
0.0154292
0.0154292
0.0154292
0.0154292
0.0154291
0.0154291
0.0154291
0.0154291
0.0154291
0.0154291
0.0154291
0.0154291
0.0154291
0.015429
0.015429
0.0154289
0.0154288
0.0154287
0.0154284
0.015428
0.0154273
0.0154261
0.0154242
0.0154211
0.0154165
0.0154094
0.0153621
0.0153699
0.015375
0.0153784
0.0153805
0.0153819
0.0153827
0.0153832
0.0153835
0.0153836
0.0153837
0.0153838
0.0153839
0.0153839
0.0153839
0.0153839
0.015384
0.015384
0.015384
0.015384
0.015384
0.015384
0.015384
0.015384
0.015384
0.015384
0.015384
0.015384
0.015384
0.015384
0.015384
0.015384
0.015384
0.015384
0.015384
0.015384
0.015384
0.015384
0.015384
0.015384
0.015384
0.015384
0.015384
0.015384
0.0153839
0.0153839
0.0153839
0.0153839
0.0153838
0.0153837
0.0153836
0.0153835
0.0153832
0.0153827
0.0153819
0.0153805
0.0153784
0.015375
0.0153699
0.0153621
0.0155423
0.0155503
0.0155557
0.0155592
0.0155615
0.0155628
0.0155637
0.0155642
0.0155645
0.0155647
0.0155648
0.0155649
0.0155649
0.015565
0.015565
0.015565
0.015565
0.015565
0.0155651
0.0155651
0.0155651
0.0155651
0.0155651
0.0155651
0.0155651
0.0155651
0.0155651
0.0155651
0.0155651
0.0155651
0.0155651
0.0155651
0.0155651
0.0155651
0.0155651
0.0155651
0.0155651
0.0155651
0.0155651
0.0155651
0.0155651
0.0155651
0.015565
0.015565
0.015565
0.015565
0.015565
0.0155649
0.0155649
0.0155648
0.0155647
0.0155645
0.0155642
0.0155637
0.0155628
0.0155615
0.0155592
0.0155557
0.0155503
0.0155423
0.0157808
0.0157891
0.0157947
0.0157983
0.0158006
0.0158021
0.0158029
0.0158034
0.0158038
0.015804
0.0158041
0.0158042
0.0158042
0.0158043
0.0158043
0.0158043
0.0158043
0.0158043
0.0158043
0.0158043
0.0158044
0.0158044
0.0158044
0.0158044
0.0158044
0.0158044
0.0158044
0.0158044
0.0158044
0.0158044
0.0158044
0.0158044
0.0158044
0.0158044
0.0158044
0.0158044
0.0158044
0.0158044
0.0158044
0.0158044
0.0158043
0.0158043
0.0158043
0.0158043
0.0158043
0.0158043
0.0158043
0.0158042
0.0158042
0.0158041
0.015804
0.0158038
0.0158034
0.0158029
0.0158021
0.0158006
0.0157983
0.0157947
0.0157891
0.0157808
0.0160479
0.0160565
0.0160622
0.0160659
0.0160683
0.0160698
0.0160707
0.0160712
0.0160715
0.0160717
0.0160719
0.016072
0.016072
0.016072
0.0160721
0.0160721
0.0160721
0.0160721
0.0160721
0.0160721
0.0160721
0.0160722
0.0160722
0.0160722
0.0160722
0.0160722
0.0160722
0.0160722
0.0160722
0.0160722
0.0160722
0.0160722
0.0160722
0.0160722
0.0160722
0.0160722
0.0160722
0.0160722
0.0160722
0.0160721
0.0160721
0.0160721
0.0160721
0.0160721
0.0160721
0.0160721
0.016072
0.016072
0.016072
0.0160719
0.0160717
0.0160715
0.0160712
0.0160707
0.0160698
0.0160683
0.0160659
0.0160622
0.0160565
0.0160479
0.0163404
0.0163492
0.0163551
0.0163589
0.0163614
0.0163629
0.0163638
0.0163644
0.0163647
0.0163649
0.0163651
0.0163652
0.0163652
0.0163653
0.0163653
0.0163653
0.0163653
0.0163653
0.0163653
0.0163654
0.0163654
0.0163654
0.0163654
0.0163654
0.0163654
0.0163654
0.0163654
0.0163654
0.0163654
0.0163654
0.0163654
0.0163654
0.0163654
0.0163654
0.0163654
0.0163654
0.0163654
0.0163654
0.0163654
0.0163654
0.0163654
0.0163653
0.0163653
0.0163653
0.0163653
0.0163653
0.0163653
0.0163652
0.0163652
0.0163651
0.0163649
0.0163647
0.0163644
0.0163638
0.0163629
0.0163614
0.0163589
0.0163551
0.0163492
0.0163404
0.0166604
0.0166695
0.0166756
0.0166796
0.0166821
0.0166837
0.0166847
0.0166852
0.0166856
0.0166858
0.0166859
0.016686
0.0166861
0.0166861
0.0166862
0.0166862
0.0166862
0.0166862
0.0166862
0.0166862
0.0166862
0.0166862
0.0166862
0.0166863
0.0166863
0.0166863
0.0166863
0.0166863
0.0166863
0.0166863
0.0166863
0.0166863
0.0166863
0.0166863
0.0166863
0.0166863
0.0166863
0.0166862
0.0166862
0.0166862
0.0166862
0.0166862
0.0166862
0.0166862
0.0166862
0.0166862
0.0166861
0.0166861
0.016686
0.0166859
0.0166858
0.0166856
0.0166852
0.0166847
0.0166837
0.0166821
0.0166796
0.0166756
0.0166695
0.0166604
0.0170117
0.0170211
0.0170274
0.0170316
0.0170342
0.0170358
0.0170368
0.0170374
0.0170378
0.017038
0.0170382
0.0170383
0.0170383
0.0170384
0.0170384
0.0170384
0.0170384
0.0170384
0.0170384
0.0170385
0.0170385
0.0170385
0.0170385
0.0170385
0.0170385
0.0170385
0.0170385
0.0170385
0.0170385
0.0170385
0.0170385
0.0170385
0.0170385
0.0170385
0.0170385
0.0170385
0.0170385
0.0170385
0.0170385
0.0170385
0.0170385
0.0170384
0.0170384
0.0170384
0.0170384
0.0170384
0.0170384
0.0170383
0.0170383
0.0170382
0.017038
0.0170378
0.0170374
0.0170368
0.0170358
0.0170342
0.0170316
0.0170274
0.0170211
0.0170117
0.0173989
0.0174087
0.0174152
0.0174196
0.0174223
0.017424
0.017425
0.0174256
0.017426
0.0174263
0.0174264
0.0174265
0.0174266
0.0174266
0.0174266
0.0174267
0.0174267
0.0174267
0.0174267
0.0174267
0.0174267
0.0174267
0.0174267
0.0174268
0.0174268
0.0174268
0.0174268
0.0174268
0.0174268
0.0174268
0.0174268
0.0174268
0.0174268
0.0174268
0.0174268
0.0174268
0.0174268
0.0174267
0.0174267
0.0174267
0.0174267
0.0174267
0.0174267
0.0174267
0.0174267
0.0174266
0.0174266
0.0174266
0.0174265
0.0174264
0.0174263
0.017426
0.0174256
0.017425
0.017424
0.0174223
0.0174196
0.0174152
0.0174087
0.0173989
0.0178276
0.0178379
0.0178447
0.0178492
0.0178521
0.0178539
0.0178549
0.0178556
0.017856
0.0178562
0.0178564
0.0178565
0.0178565
0.0178566
0.0178566
0.0178567
0.0178567
0.0178567
0.0178567
0.0178567
0.0178567
0.0178567
0.0178567
0.0178567
0.0178568
0.0178568
0.0178568
0.0178568
0.0178568
0.0178568
0.0178568
0.0178568
0.0178568
0.0178568
0.0178568
0.0178568
0.0178567
0.0178567
0.0178567
0.0178567
0.0178567
0.0178567
0.0178567
0.0178567
0.0178567
0.0178566
0.0178566
0.0178565
0.0178565
0.0178564
0.0178562
0.017856
0.0178556
0.0178549
0.0178539
0.0178521
0.0178492
0.0178447
0.0178379
0.0178276
0.018305
0.0183158
0.0183229
0.0183276
0.0183306
0.0183325
0.0183336
0.0183343
0.0183347
0.018335
0.0183351
0.0183352
0.0183353
0.0183354
0.0183354
0.0183354
0.0183354
0.0183355
0.0183355
0.0183355
0.0183355
0.0183355
0.0183355
0.0183355
0.0183355
0.0183355
0.0183355
0.0183355
0.0183355
0.0183355
0.0183355
0.0183355
0.0183355
0.0183355
0.0183355
0.0183355
0.0183355
0.0183355
0.0183355
0.0183355
0.0183355
0.0183355
0.0183355
0.0183354
0.0183354
0.0183354
0.0183354
0.0183353
0.0183352
0.0183351
0.018335
0.0183347
0.0183343
0.0183336
0.0183325
0.0183306
0.0183276
0.0183229
0.0183158
0.018305
0.0188397
0.0188511
0.0188586
0.0188635
0.0188667
0.0188686
0.0188698
0.0188706
0.018871
0.0188713
0.0188715
0.0188716
0.0188716
0.0188717
0.0188717
0.0188717
0.0188718
0.0188718
0.0188718
0.0188718
0.0188718
0.0188718
0.0188718
0.0188718
0.0188719
0.0188719
0.0188719
0.0188719
0.0188719
0.0188719
0.0188719
0.0188719
0.0188719
0.0188719
0.0188719
0.0188719
0.0188718
0.0188718
0.0188718
0.0188718
0.0188718
0.0188718
0.0188718
0.0188718
0.0188717
0.0188717
0.0188717
0.0188716
0.0188716
0.0188715
0.0188713
0.018871
0.0188706
0.0188698
0.0188686
0.0188667
0.0188635
0.0188586
0.0188511
0.0188397
0.0194429
0.0194549
0.0194628
0.0194681
0.0194714
0.0194735
0.0194747
0.0194755
0.019476
0.0194763
0.0194764
0.0194766
0.0194766
0.0194767
0.0194767
0.0194768
0.0194768
0.0194768
0.0194768
0.0194768
0.0194768
0.0194769
0.0194769
0.0194769
0.0194769
0.0194769
0.0194769
0.0194769
0.0194769
0.0194769
0.0194769
0.0194769
0.0194769
0.0194769
0.0194769
0.0194769
0.0194769
0.0194769
0.0194769
0.0194768
0.0194768
0.0194768
0.0194768
0.0194768
0.0194768
0.0194767
0.0194767
0.0194766
0.0194766
0.0194764
0.0194763
0.019476
0.0194755
0.0194747
0.0194735
0.0194714
0.0194681
0.0194628
0.0194549
0.0194429
0.0201287
0.0201414
0.0201499
0.0201555
0.0201591
0.0201613
0.0201626
0.0201634
0.0201639
0.0201642
0.0201644
0.0201646
0.0201646
0.0201647
0.0201647
0.0201648
0.0201648
0.0201648
0.0201648
0.0201648
0.0201649
0.0201649
0.0201649
0.0201649
0.0201649
0.0201649
0.0201649
0.0201649
0.0201649
0.0201649
0.0201649
0.0201649
0.0201649
0.0201649
0.0201649
0.0201649
0.0201649
0.0201649
0.0201649
0.0201649
0.0201648
0.0201648
0.0201648
0.0201648
0.0201648
0.0201647
0.0201647
0.0201646
0.0201646
0.0201644
0.0201642
0.0201639
0.0201634
0.0201626
0.0201613
0.0201591
0.0201555
0.0201499
0.0201414
0.0201287
0.0209157
0.0209294
0.0209385
0.0209445
0.0209483
0.0209507
0.0209522
0.020953
0.0209536
0.0209539
0.0209541
0.0209542
0.0209543
0.0209544
0.0209544
0.0209545
0.0209545
0.0209545
0.0209545
0.0209546
0.0209546
0.0209546
0.0209546
0.0209546
0.0209546
0.0209546
0.0209546
0.0209546
0.0209546
0.0209546
0.0209546
0.0209546
0.0209546
0.0209546
0.0209546
0.0209546
0.0209546
0.0209546
0.0209546
0.0209546
0.0209546
0.0209545
0.0209545
0.0209545
0.0209545
0.0209544
0.0209544
0.0209543
0.0209542
0.0209541
0.0209539
0.0209536
0.020953
0.0209522
0.0209507
0.0209483
0.0209445
0.0209385
0.0209294
0.0209157
0.0218289
0.0218438
0.0218536
0.0218601
0.0218643
0.0218668
0.0218684
0.0218694
0.0218699
0.0218703
0.0218705
0.0218707
0.0218708
0.0218708
0.0218709
0.0218709
0.0218709
0.021871
0.021871
0.021871
0.021871
0.021871
0.021871
0.021871
0.0218711
0.0218711
0.0218711
0.0218711
0.0218711
0.0218711
0.0218711
0.0218711
0.0218711
0.0218711
0.0218711
0.0218711
0.021871
0.021871
0.021871
0.021871
0.021871
0.021871
0.021871
0.0218709
0.0218709
0.0218709
0.0218708
0.0218708
0.0218707
0.0218705
0.0218703
0.0218699
0.0218694
0.0218684
0.0218668
0.0218643
0.0218601
0.0218536
0.0218438
0.0218289
0.0229023
0.0229185
0.0229294
0.0229365
0.022941
0.0229438
0.0229455
0.0229466
0.0229472
0.0229476
0.0229479
0.022948
0.0229481
0.0229482
0.0229483
0.0229483
0.0229483
0.0229484
0.0229484
0.0229484
0.0229484
0.0229484
0.0229484
0.0229485
0.0229485
0.0229485
0.0229485
0.0229485
0.0229485
0.0229485
0.0229485
0.0229485
0.0229485
0.0229485
0.0229485
0.0229485
0.0229485
0.0229484
0.0229484
0.0229484
0.0229484
0.0229484
0.0229484
0.0229483
0.0229483
0.0229483
0.0229482
0.0229481
0.022948
0.0229479
0.0229476
0.0229472
0.0229466
0.0229455
0.0229438
0.022941
0.0229365
0.0229294
0.0229185
0.0229023
0.0241837
0.0242017
0.0242137
0.0242216
0.0242267
0.0242298
0.0242317
0.0242329
0.0242336
0.0242341
0.0242343
0.0242345
0.0242346
0.0242347
0.0242348
0.0242348
0.0242348
0.0242349
0.0242349
0.0242349
0.0242349
0.0242349
0.024235
0.024235
0.024235
0.024235
0.024235
0.024235
0.024235
0.024235
0.024235
0.024235
0.024235
0.024235
0.024235
0.024235
0.024235
0.024235
0.0242349
0.0242349
0.0242349
0.0242349
0.0242349
0.0242348
0.0242348
0.0242348
0.0242347
0.0242346
0.0242345
0.0242343
0.0242341
0.0242336
0.0242329
0.0242317
0.0242298
0.0242267
0.0242216
0.0242137
0.0242017
0.0241837
0.0257424
0.0257628
0.0257763
0.0257853
0.025791
0.0257946
0.0257967
0.0257981
0.0257989
0.0257994
0.0257997
0.0257999
0.0258
0.0258001
0.0258002
0.0258002
0.0258002
0.0258003
0.0258003
0.0258003
0.0258003
0.0258004
0.0258004
0.0258004
0.0258004
0.0258004
0.0258004
0.0258004
0.0258004
0.0258004
0.0258004
0.0258004
0.0258004
0.0258004
0.0258004
0.0258004
0.0258004
0.0258004
0.0258004
0.0258003
0.0258003
0.0258003
0.0258003
0.0258002
0.0258002
0.0258002
0.0258001
0.0258
0.0257999
0.0257997
0.0257994
0.0257989
0.0257981
0.0257967
0.0257946
0.025791
0.0257853
0.0257763
0.0257628
0.0257424
0.027682
0.0277054
0.0277212
0.0277315
0.0277381
0.0277422
0.0277447
0.0277463
0.0277472
0.0277478
0.0277481
0.0277484
0.0277485
0.0277486
0.0277487
0.0277488
0.0277488
0.0277489
0.0277489
0.0277489
0.0277489
0.027749
0.027749
0.027749
0.027749
0.027749
0.027749
0.027749
0.027749
0.027749
0.027749
0.027749
0.027749
0.027749
0.027749
0.027749
0.027749
0.027749
0.027749
0.0277489
0.0277489
0.0277489
0.0277489
0.0277488
0.0277488
0.0277487
0.0277486
0.0277485
0.0277484
0.0277481
0.0277478
0.0277472
0.0277463
0.0277447
0.0277422
0.0277381
0.0277315
0.0277212
0.0277054
0.027682
0.0301605
0.0301883
0.0302069
0.0302192
0.0302271
0.030232
0.030235
0.0302368
0.030238
0.0302386
0.0302391
0.0302393
0.0302395
0.0302396
0.0302397
0.0302398
0.0302399
0.0302399
0.0302399
0.03024
0.03024
0.03024
0.0302401
0.0302401
0.0302401
0.0302401
0.0302401
0.0302401
0.0302401
0.0302401
0.0302401
0.0302401
0.0302401
0.0302401
0.0302401
0.0302401
0.0302401
0.0302401
0.03024
0.03024
0.03024
0.0302399
0.0302399
0.0302399
0.0302398
0.0302397
0.0302396
0.0302395
0.0302393
0.0302391
0.0302386
0.030238
0.0302368
0.030235
0.030232
0.0302271
0.0302192
0.0302069
0.0301883
0.0301605
0.0334194
0.0334533
0.0334762
0.0334914
0.033501
0.0335071
0.0335108
0.033513
0.0335144
0.0335152
0.0335158
0.0335161
0.0335163
0.0335165
0.0335166
0.0335167
0.0335167
0.0335168
0.0335168
0.0335169
0.0335169
0.0335169
0.033517
0.033517
0.033517
0.033517
0.033517
0.0335171
0.0335171
0.0335171
0.0335171
0.0335171
0.0335171
0.033517
0.033517
0.033517
0.033517
0.033517
0.0335169
0.0335169
0.0335169
0.0335168
0.0335168
0.0335167
0.0335167
0.0335166
0.0335165
0.0335163
0.0335161
0.0335158
0.0335152
0.0335144
0.033513
0.0335108
0.0335071
0.033501
0.0334914
0.0334762
0.0334533
0.0334194
0.0378131
0.0378559
0.0378849
0.037904
0.0379163
0.0379239
0.0379286
0.0379315
0.0379332
0.0379343
0.037935
0.0379354
0.0379357
0.0379359
0.037936
0.0379361
0.0379362
0.0379363
0.0379363
0.0379364
0.0379364
0.0379365
0.0379365
0.0379365
0.0379366
0.0379366
0.0379366
0.0379366
0.0379366
0.0379366
0.0379366
0.0379366
0.0379366
0.0379366
0.0379366
0.0379366
0.0379365
0.0379365
0.0379365
0.0379364
0.0379364
0.0379363
0.0379363
0.0379362
0.0379361
0.037936
0.0379359
0.0379357
0.0379354
0.037935
0.0379343
0.0379332
0.0379315
0.0379286
0.0379239
0.0379163
0.037904
0.0378849
0.0378559
0.0378131
0.0438113
0.0438664
0.0439039
0.0439287
0.0439446
0.0439545
0.0439606
0.0439643
0.0439665
0.0439679
0.0439688
0.0439693
0.0439697
0.04397
0.0439701
0.0439703
0.0439704
0.0439705
0.0439706
0.0439706
0.0439707
0.0439707
0.0439708
0.0439708
0.0439709
0.0439709
0.0439709
0.0439709
0.0439709
0.0439709
0.0439709
0.0439709
0.0439709
0.0439709
0.0439709
0.0439709
0.0439708
0.0439708
0.0439707
0.0439707
0.0439706
0.0439706
0.0439705
0.0439704
0.0439703
0.0439701
0.04397
0.0439697
0.0439693
0.0439688
0.0439679
0.0439665
0.0439643
0.0439606
0.0439545
0.0439446
0.0439287
0.0439039
0.0438664
0.0438113
0.0519297
0.0520009
0.0520495
0.0520817
0.0521023
0.0521152
0.0521231
0.0521279
0.0521309
0.0521327
0.0521338
0.0521345
0.052135
0.0521354
0.0521356
0.0521358
0.0521359
0.052136
0.0521361
0.0521362
0.0521363
0.0521364
0.0521364
0.0521365
0.0521365
0.0521366
0.0521366
0.0521366
0.0521366
0.0521366
0.0521366
0.0521366
0.0521366
0.0521366
0.0521366
0.0521365
0.0521365
0.0521364
0.0521364
0.0521363
0.0521362
0.0521361
0.052136
0.0521359
0.0521358
0.0521356
0.0521354
0.052135
0.0521345
0.0521338
0.0521327
0.0521309
0.0521279
0.0521231
0.0521152
0.0521023
0.0520817
0.0520495
0.0520009
0.0519297
0.0625682
0.0626587
0.0627205
0.0627615
0.0627877
0.0628041
0.0628142
0.0628204
0.0628242
0.0628265
0.0628279
0.0628289
0.0628295
0.0628299
0.0628302
0.0628304
0.0628306
0.0628308
0.0628309
0.062831
0.0628311
0.0628312
0.0628313
0.0628313
0.0628314
0.0628314
0.0628315
0.0628315
0.0628315
0.0628315
0.0628315
0.0628315
0.0628315
0.0628315
0.0628314
0.0628314
0.0628313
0.0628313
0.0628312
0.0628311
0.062831
0.0628309
0.0628308
0.0628306
0.0628304
0.0628302
0.0628299
0.0628295
0.0628289
0.0628279
0.0628265
0.0628242
0.0628204
0.0628142
0.0628041
0.0627877
0.0627615
0.0627205
0.0626587
0.0625682
0.0758248
0.075936
0.076012
0.0760624
0.0760947
0.0761149
0.0761274
0.076135
0.0761396
0.0761425
0.0761443
0.0761455
0.0761462
0.0761468
0.0761471
0.0761474
0.0761477
0.0761478
0.076148
0.0761481
0.0761482
0.0761483
0.0761484
0.0761485
0.0761486
0.0761486
0.0761487
0.0761487
0.0761487
0.0761488
0.0761488
0.0761487
0.0761487
0.0761487
0.0761486
0.0761486
0.0761485
0.0761484
0.0761483
0.0761482
0.0761481
0.076148
0.0761478
0.0761477
0.0761474
0.0761471
0.0761468
0.0761462
0.0761455
0.0761443
0.0761425
0.0761396
0.076135
0.0761274
0.0761149
0.0760947
0.0760624
0.076012
0.075936
0.0758248
0.0914261
0.0915576
0.0916472
0.0917067
0.091745
0.0917689
0.0917837
0.0917928
0.0917984
0.0918018
0.0918039
0.0918053
0.0918062
0.0918069
0.0918073
0.0918077
0.0918079
0.0918081
0.0918083
0.0918085
0.0918086
0.0918087
0.0918088
0.0918089
0.091809
0.0918091
0.0918091
0.0918091
0.0918092
0.0918092
0.0918092
0.0918092
0.0918091
0.0918091
0.0918091
0.091809
0.0918089
0.0918088
0.0918087
0.0918086
0.0918085
0.0918083
0.0918081
0.0918079
0.0918077
0.0918073
0.0918069
0.0918062
0.0918053
0.0918039
0.0918018
0.0917984
0.0917928
0.0917837
0.0917689
0.091745
0.0917067
0.0916472
0.0915576
0.0914261
0.108842
0.108992
0.109094
0.109162
0.109205
0.109233
0.10925
0.10926
0.109266
0.10927
0.109273
0.109274
0.109276
0.109276
0.109277
0.109277
0.109277
0.109278
0.109278
0.109278
0.109278
0.109278
0.109278
0.109279
0.109279
0.109279
0.109279
0.109279
0.109279
0.109279
0.109279
0.109279
0.109279
0.109279
0.109279
0.109279
0.109279
0.109278
0.109278
0.109278
0.109278
0.109278
0.109278
0.109277
0.109277
0.109277
0.109276
0.109276
0.109274
0.109273
0.10927
0.109266
0.10926
0.10925
0.109233
0.109205
0.109162
0.109094
0.108992
0.108842
0.127492
0.127658
0.127772
0.127847
0.127895
0.127926
0.127945
0.127957
0.127964
0.127968
0.127971
0.127973
0.127974
0.127975
0.127975
0.127976
0.127976
0.127976
0.127977
0.127977
0.127977
0.127977
0.127977
0.127977
0.127977
0.127978
0.127978
0.127978
0.127978
0.127978
0.127978
0.127978
0.127978
0.127978
0.127978
0.127977
0.127977
0.127977
0.127977
0.127977
0.127977
0.127977
0.127976
0.127976
0.127976
0.127975
0.127975
0.127974
0.127973
0.127971
0.127968
0.127964
0.127957
0.127945
0.127926
0.127895
0.127847
0.127772
0.127658
0.127492
0.146904
0.147084
0.147207
0.147289
0.147342
0.147376
0.147397
0.14741
0.147418
0.147423
0.147426
0.147428
0.147429
0.14743
0.147431
0.147431
0.147431
0.147432
0.147432
0.147432
0.147432
0.147432
0.147433
0.147433
0.147433
0.147433
0.147433
0.147433
0.147433
0.147433
0.147433
0.147433
0.147433
0.147433
0.147433
0.147433
0.147433
0.147433
0.147432
0.147432
0.147432
0.147432
0.147432
0.147431
0.147431
0.147431
0.14743
0.147429
0.147428
0.147426
0.147423
0.147418
0.14741
0.147397
0.147376
0.147342
0.147289
0.147207
0.147084
0.146904
0.166753
0.166947
0.167079
0.167168
0.167225
0.167261
0.167284
0.167298
0.167306
0.167312
0.167315
0.167317
0.167319
0.16732
0.167321
0.167321
0.167322
0.167322
0.167322
0.167322
0.167322
0.167323
0.167323
0.167323
0.167323
0.167323
0.167323
0.167323
0.167323
0.167323
0.167323
0.167323
0.167323
0.167323
0.167323
0.167323
0.167323
0.167323
0.167323
0.167322
0.167322
0.167322
0.167322
0.167322
0.167321
0.167321
0.16732
0.167319
0.167317
0.167315
0.167312
0.167306
0.167298
0.167284
0.167261
0.167225
0.167168
0.167079
0.166947
0.166753
0.186842
0.187048
0.187189
0.187283
0.187344
0.187383
0.187407
0.187423
0.187432
0.187438
0.187442
0.187444
0.187446
0.187447
0.187448
0.187448
0.187449
0.187449
0.187449
0.187449
0.18745
0.18745
0.18745
0.18745
0.18745
0.18745
0.18745
0.18745
0.18745
0.18745
0.18745
0.18745
0.18745
0.18745
0.18745
0.18745
0.18745
0.18745
0.18745
0.18745
0.187449
0.187449
0.187449
0.187449
0.187448
0.187448
0.187447
0.187446
0.187444
0.187442
0.187438
0.187432
0.187423
0.187407
0.187383
0.187344
0.187283
0.187189
0.187048
0.186842
0.207049
0.207266
0.207416
0.207516
0.207581
0.207622
0.207649
0.207665
0.207675
0.207682
0.207686
0.207689
0.20769
0.207691
0.207692
0.207693
0.207693
0.207694
0.207694
0.207694
0.207694
0.207694
0.207695
0.207695
0.207695
0.207695
0.207695
0.207695
0.207695
0.207695
0.207695
0.207695
0.207695
0.207695
0.207695
0.207695
0.207695
0.207695
0.207694
0.207694
0.207694
0.207694
0.207694
0.207693
0.207693
0.207692
0.207691
0.20769
0.207689
0.207686
0.207682
0.207675
0.207665
0.207649
0.207622
0.207581
0.207516
0.207416
0.207266
0.207049
0.227299
0.227527
0.227684
0.22779
0.227859
0.227903
0.227931
0.227949
0.22796
0.227967
0.227972
0.227974
0.227976
0.227978
0.227978
0.227979
0.22798
0.22798
0.22798
0.22798
0.227981
0.227981
0.227981
0.227981
0.227981
0.227981
0.227981
0.227981
0.227981
0.227981
0.227981
0.227981
0.227981
0.227981
0.227981
0.227981
0.227981
0.227981
0.227981
0.227981
0.22798
0.22798
0.22798
0.22798
0.227979
0.227978
0.227978
0.227976
0.227974
0.227972
0.227967
0.22796
0.227949
0.227931
0.227903
0.227859
0.22779
0.227684
0.227527
0.227299
0.247539
0.247777
0.247942
0.248053
0.248126
0.248173
0.248203
0.248222
0.248234
0.248241
0.248246
0.248249
0.248251
0.248253
0.248254
0.248254
0.248255
0.248255
0.248256
0.248256
0.248256
0.248256
0.248256
0.248256
0.248257
0.248257
0.248257
0.248257
0.248257
0.248257
0.248257
0.248257
0.248257
0.248257
0.248257
0.248257
0.248256
0.248256
0.248256
0.248256
0.248256
0.248256
0.248255
0.248255
0.248254
0.248254
0.248253
0.248251
0.248249
0.248246
0.248241
0.248234
0.248222
0.248203
0.248173
0.248126
0.248053
0.247942
0.247777
0.247539
0.26773
0.267977
0.268149
0.268265
0.268342
0.268392
0.268424
0.268444
0.268457
0.268465
0.26847
0.268474
0.268476
0.268477
0.268478
0.268479
0.26848
0.26848
0.26848
0.26848
0.268481
0.268481
0.268481
0.268481
0.268481
0.268481
0.268481
0.268481
0.268481
0.268481
0.268481
0.268481
0.268481
0.268481
0.268481
0.268481
0.268481
0.268481
0.268481
0.268481
0.26848
0.26848
0.26848
0.26848
0.268479
0.268478
0.268477
0.268476
0.268474
0.26847
0.268465
0.268457
0.268444
0.268424
0.268392
0.268342
0.268265
0.268149
0.267977
0.26773
0.287837
0.288093
0.288272
0.288394
0.288475
0.288527
0.288561
0.288583
0.288596
0.288605
0.288611
0.288614
0.288617
0.288618
0.288619
0.28862
0.288621
0.288621
0.288621
0.288622
0.288622
0.288622
0.288622
0.288622
0.288622
0.288622
0.288622
0.288623
0.288623
0.288623
0.288623
0.288623
0.288623
0.288622
0.288622
0.288622
0.288622
0.288622
0.288622
0.288622
0.288622
0.288621
0.288621
0.288621
0.28862
0.288619
0.288618
0.288617
0.288614
0.288611
0.288605
0.288596
0.288583
0.288561
0.288527
0.288475
0.288394
0.288272
0.288093
0.287837
0.307834
0.308098
0.308284
0.308411
0.308496
0.308551
0.308587
0.308609
0.308624
0.308633
0.308639
0.308643
0.308646
0.308647
0.308649
0.308649
0.30865
0.308651
0.308651
0.308651
0.308651
0.308651
0.308652
0.308652
0.308652
0.308652
0.308652
0.308652
0.308652
0.308652
0.308652
0.308652
0.308652
0.308652
0.308652
0.308652
0.308652
0.308652
0.308651
0.308651
0.308651
0.308651
0.308651
0.30865
0.308649
0.308649
0.308647
0.308646
0.308643
0.308639
0.308633
0.308624
0.308609
0.308587
0.308551
0.308496
0.308411
0.308284
0.308098
0.307834
0.327695
0.327967
0.328159
0.328291
0.328379
0.328437
0.328475
0.328499
0.328515
0.328525
0.328531
0.328535
0.328538
0.32854
0.328541
0.328542
0.328543
0.328543
0.328544
0.328544
0.328544
0.328544
0.328545
0.328545
0.328545
0.328545
0.328545
0.328545
0.328545
0.328545
0.328545
0.328545
0.328545
0.328545
0.328545
0.328545
0.328545
0.328545
0.328544
0.328544
0.328544
0.328544
0.328543
0.328543
0.328542
0.328541
0.32854
0.328538
0.328535
0.328531
0.328525
0.328515
0.328499
0.328475
0.328437
0.328379
0.328291
0.328159
0.327967
0.327695
0.347397
0.347676
0.347874
0.348011
0.348104
0.348165
0.348204
0.34823
0.348246
0.348257
0.348264
0.348269
0.348272
0.348274
0.348275
0.348276
0.348277
0.348277
0.348277
0.348278
0.348278
0.348278
0.348278
0.348278
0.348278
0.348278
0.348279
0.348279
0.348279
0.348279
0.348279
0.348279
0.348279
0.348279
0.348278
0.348278
0.348278
0.348278
0.348278
0.348278
0.348278
0.348277
0.348277
0.348277
0.348276
0.348275
0.348274
0.348272
0.348269
0.348264
0.348257
0.348246
0.34823
0.348204
0.348165
0.348104
0.348011
0.347874
0.347676
0.347397
0.366921
0.367206
0.36741
0.367552
0.367648
0.367711
0.367753
0.36778
0.367798
0.367809
0.367817
0.367821
0.367825
0.367827
0.367828
0.367829
0.36783
0.367831
0.367831
0.367831
0.367832
0.367832
0.367832
0.367832
0.367832
0.367832
0.367832
0.367832
0.367832
0.367832
0.367832
0.367832
0.367832
0.367832
0.367832
0.367832
0.367832
0.367832
0.367832
0.367832
0.367831
0.367831
0.367831
0.36783
0.367829
0.367828
0.367827
0.367825
0.367821
0.367817
0.367809
0.367798
0.36778
0.367753
0.367711
0.367648
0.367552
0.36741
0.367206
0.366921
0.386246
0.386537
0.386746
0.386893
0.386992
0.387059
0.387103
0.387131
0.38715
0.387162
0.38717
0.387175
0.387179
0.387181
0.387182
0.387184
0.387184
0.387185
0.387185
0.387186
0.387186
0.387186
0.387186
0.387186
0.387186
0.387186
0.387186
0.387187
0.387187
0.387187
0.387187
0.387187
0.387187
0.387186
0.387186
0.387186
0.387186
0.387186
0.387186
0.387186
0.387186
0.387185
0.387185
0.387184
0.387184
0.387182
0.387181
0.387179
0.387175
0.38717
0.387162
0.38715
0.387131
0.387103
0.387059
0.386992
0.386893
0.386746
0.386537
0.386246
0.405355
0.405651
0.405866
0.406016
0.40612
0.406189
0.406235
0.406265
0.406285
0.406297
0.406306
0.406312
0.406315
0.406318
0.406319
0.406321
0.406321
0.406322
0.406322
0.406323
0.406323
0.406323
0.406323
0.406323
0.406324
0.406324
0.406324
0.406324
0.406324
0.406324
0.406324
0.406324
0.406324
0.406324
0.406324
0.406324
0.406323
0.406323
0.406323
0.406323
0.406323
0.406322
0.406322
0.406321
0.406321
0.406319
0.406318
0.406315
0.406312
0.406306
0.406297
0.406285
0.406265
0.406235
0.406189
0.40612
0.406016
0.405866
0.405651
0.405355
0.424231
0.424532
0.424751
0.424906
0.425013
0.425085
0.425133
0.425165
0.425185
0.425199
0.425208
0.425214
0.425218
0.425221
0.425223
0.425224
0.425225
0.425225
0.425226
0.425226
0.425226
0.425227
0.425227
0.425227
0.425227
0.425227
0.425227
0.425227
0.425227
0.425227
0.425227
0.425227
0.425227
0.425227
0.425227
0.425227
0.425227
0.425227
0.425227
0.425226
0.425226
0.425226
0.425225
0.425225
0.425224
0.425223
0.425221
0.425218
0.425214
0.425208
0.425199
0.425185
0.425165
0.425133
0.425085
0.425013
0.424906
0.424751
0.424532
0.424231
0.442859
0.443164
0.443388
0.443546
0.443657
0.443731
0.443782
0.443815
0.443837
0.443851
0.443861
0.443867
0.443872
0.443875
0.443877
0.443878
0.443879
0.443879
0.44388
0.44388
0.443881
0.443881
0.443881
0.443881
0.443881
0.443881
0.443881
0.443881
0.443881
0.443881
0.443881
0.443881
0.443881
0.443881
0.443881
0.443881
0.443881
0.443881
0.443881
0.443881
0.44388
0.44388
0.443879
0.443879
0.443878
0.443877
0.443875
0.443872
0.443867
0.443861
0.443851
0.443837
0.443815
0.443782
0.443731
0.443657
0.443546
0.443388
0.443164
0.442859
0.461225
0.461533
0.461761
0.461923
0.462037
0.462114
0.462167
0.462201
0.462225
0.46224
0.46225
0.462257
0.462262
0.462265
0.462267
0.462268
0.462269
0.46227
0.462271
0.462271
0.462271
0.462271
0.462271
0.462272
0.462272
0.462272
0.462272
0.462272
0.462272
0.462272
0.462272
0.462272
0.462272
0.462272
0.462272
0.462272
0.462272
0.462271
0.462271
0.462271
0.462271
0.462271
0.46227
0.462269
0.462268
0.462267
0.462265
0.462262
0.462257
0.46225
0.46224
0.462225
0.462201
0.462167
0.462114
0.462037
0.461923
0.461761
0.461533
0.461225
0.479314
0.479626
0.479857
0.480023
0.48014