/*--------------------------------*- C++ -*----------------------------------*\
| =========                 |                                                 |
| \\      /  F ield         | foam-extend: Open Source CFD                    |
|  \\    /   O peration     | Version:     4.0                                |
|   \\  /    A nd           | Web:         http://www.foam-extend.org         |
|    \\/     M anipulation  |                                                 |
\*---------------------------------------------------------------------------*/
FoamFile
{
    version     2.0;
    format      ascii;
    class       volScalarField;
    location    "1470";
    object      cMinus;
}
// * * * * * * * * * * * * * * * * * * * * * * * * * * * * * * * * * * * * * //

dimensions      [0 0 0 0 0 0 0];

internalField   nonuniform List<scalar> 
6960
(
1.69639e-23
1.69731e-23
1.69717e-23
1.69685e-23
1.6965e-23
1.69618e-23
1.69588e-23
1.69562e-23
1.69539e-23
1.69519e-23
1.69501e-23
1.69486e-23
1.69473e-23
1.69461e-23
1.69452e-23
1.69443e-23
1.69436e-23
1.6943e-23
1.69425e-23
1.69421e-23
1.69417e-23
1.69414e-23
1.69412e-23
1.6941e-23
1.69408e-23
1.69407e-23
1.69406e-23
1.69405e-23
1.69405e-23
1.69405e-23
1.69405e-23
1.69405e-23
1.69405e-23
1.69406e-23
1.69407e-23
1.69408e-23
1.6941e-23
1.69412e-23
1.69414e-23
1.69417e-23
1.69421e-23
1.69425e-23
1.6943e-23
1.69436e-23
1.69443e-23
1.69452e-23
1.69461e-23
1.69473e-23
1.69486e-23
1.69501e-23
1.69519e-23
1.69539e-23
1.69562e-23
1.69588e-23
1.69618e-23
1.6965e-23
1.69685e-23
1.69717e-23
1.69731e-23
1.69639e-23
7.16123e-23
7.16559e-23
7.16556e-23
7.16476e-23
7.16383e-23
7.16293e-23
7.1621e-23
7.16136e-23
7.1607e-23
7.16012e-23
7.15961e-23
7.15917e-23
7.15879e-23
7.15846e-23
7.15818e-23
7.15793e-23
7.15772e-23
7.15755e-23
7.15739e-23
7.15727e-23
7.15716e-23
7.15707e-23
7.157e-23
7.15694e-23
7.15689e-23
7.15685e-23
7.15682e-23
7.1568e-23
7.15679e-23
7.15678e-23
7.15678e-23
7.15679e-23
7.1568e-23
7.15682e-23
7.15685e-23
7.15689e-23
7.15694e-23
7.157e-23
7.15707e-23
7.15716e-23
7.15727e-23
7.15739e-23
7.15755e-23
7.15772e-23
7.15793e-23
7.15818e-23
7.15846e-23
7.15879e-23
7.15917e-23
7.15961e-23
7.16012e-23
7.1607e-23
7.16136e-23
7.1621e-23
7.16293e-23
7.16383e-23
7.16476e-23
7.16556e-23
7.16559e-23
7.16123e-23
2.21224e-22
2.21376e-22
2.21396e-22
2.21391e-22
2.2138e-22
2.21369e-22
2.21358e-22
2.21348e-22
2.21339e-22
2.2133e-22
2.21323e-22
2.21317e-22
2.21311e-22
2.21306e-22
2.21302e-22
2.21298e-22
2.21294e-22
2.21292e-22
2.21289e-22
2.21287e-22
2.21285e-22
2.21284e-22
2.21283e-22
2.21282e-22
2.21281e-22
2.2128e-22
2.2128e-22
2.21279e-22
2.21279e-22
2.21279e-22
2.21279e-22
2.21279e-22
2.21279e-22
2.2128e-22
2.2128e-22
2.21281e-22
2.21282e-22
2.21283e-22
2.21284e-22
2.21285e-22
2.21287e-22
2.21289e-22
2.21292e-22
2.21294e-22
2.21298e-22
2.21302e-22
2.21306e-22
2.21311e-22
2.21317e-22
2.21323e-22
2.2133e-22
2.21339e-22
2.21348e-22
2.21358e-22
2.21369e-22
2.2138e-22
2.21391e-22
2.21396e-22
2.21376e-22
2.21224e-22
6.34979e-22
6.35471e-22
6.35594e-22
6.35646e-22
6.35678e-22
6.357e-22
6.35716e-22
6.3573e-22
6.35741e-22
6.35749e-22
6.35756e-22
6.35761e-22
6.35765e-22
6.35768e-22
6.3577e-22
6.35771e-22
6.35772e-22
6.35773e-22
6.35773e-22
6.35774e-22
6.35774e-22
6.35774e-22
6.35774e-22
6.35774e-22
6.35774e-22
6.35774e-22
6.35774e-22
6.35774e-22
6.35774e-22
6.35774e-22
6.35774e-22
6.35774e-22
6.35774e-22
6.35774e-22
6.35774e-22
6.35774e-22
6.35774e-22
6.35774e-22
6.35774e-22
6.35774e-22
6.35774e-22
6.35773e-22
6.35773e-22
6.35772e-22
6.35771e-22
6.3577e-22
6.35768e-22
6.35765e-22
6.35761e-22
6.35756e-22
6.35749e-22
6.35741e-22
6.3573e-22
6.35716e-22
6.357e-22
6.35678e-22
6.35646e-22
6.35594e-22
6.35471e-22
6.34979e-22
1.80567e-21
1.80724e-21
1.8078e-21
1.80816e-21
1.80844e-21
1.80867e-21
1.80887e-21
1.80904e-21
1.80919e-21
1.80931e-21
1.80942e-21
1.80951e-21
1.80958e-21
1.80964e-21
1.8097e-21
1.80974e-21
1.80977e-21
1.8098e-21
1.80983e-21
1.80985e-21
1.80986e-21
1.80988e-21
1.80989e-21
1.8099e-21
1.80991e-21
1.80991e-21
1.80992e-21
1.80992e-21
1.80992e-21
1.80992e-21
1.80992e-21
1.80992e-21
1.80992e-21
1.80992e-21
1.80991e-21
1.80991e-21
1.8099e-21
1.80989e-21
1.80988e-21
1.80986e-21
1.80985e-21
1.80983e-21
1.8098e-21
1.80977e-21
1.80974e-21
1.8097e-21
1.80964e-21
1.80958e-21
1.80951e-21
1.80942e-21
1.80931e-21
1.80919e-21
1.80904e-21
1.80887e-21
1.80867e-21
1.80844e-21
1.80816e-21
1.8078e-21
1.80724e-21
1.80567e-21
5.2019e-21
5.20696e-21
5.20921e-21
5.21087e-21
5.21226e-21
5.21346e-21
5.2145e-21
5.2154e-21
5.21618e-21
5.21685e-21
5.21742e-21
5.2179e-21
5.21831e-21
5.21865e-21
5.21894e-21
5.21919e-21
5.21939e-21
5.21956e-21
5.2197e-21
5.21982e-21
5.21991e-21
5.21999e-21
5.22006e-21
5.22011e-21
5.22016e-21
5.22019e-21
5.22022e-21
5.22024e-21
5.22025e-21
5.22026e-21
5.22026e-21
5.22025e-21
5.22024e-21
5.22022e-21
5.22019e-21
5.22016e-21
5.22011e-21
5.22006e-21
5.21999e-21
5.21991e-21
5.21982e-21
5.2197e-21
5.21956e-21
5.21939e-21
5.21919e-21
5.21894e-21
5.21865e-21
5.21831e-21
5.2179e-21
5.21742e-21
5.21685e-21
5.21618e-21
5.2154e-21
5.2145e-21
5.21346e-21
5.21226e-21
5.21087e-21
5.20921e-21
5.20696e-21
5.2019e-21
1.53099e-20
1.53264e-20
1.5335e-20
1.53418e-20
1.53477e-20
1.53528e-20
1.53573e-20
1.53612e-20
1.53646e-20
1.53675e-20
1.537e-20
1.53721e-20
1.53739e-20
1.53754e-20
1.53767e-20
1.53778e-20
1.53787e-20
1.53795e-20
1.53801e-20
1.53806e-20
1.53811e-20
1.53814e-20
1.53817e-20
1.5382e-20
1.53822e-20
1.53823e-20
1.53824e-20
1.53825e-20
1.53826e-20
1.53826e-20
1.53826e-20
1.53826e-20
1.53825e-20
1.53824e-20
1.53823e-20
1.53822e-20
1.5382e-20
1.53817e-20
1.53814e-20
1.53811e-20
1.53806e-20
1.53801e-20
1.53795e-20
1.53787e-20
1.53778e-20
1.53767e-20
1.53754e-20
1.53739e-20
1.53721e-20
1.537e-20
1.53675e-20
1.53646e-20
1.53612e-20
1.53573e-20
1.53528e-20
1.53477e-20
1.53418e-20
1.5335e-20
1.53264e-20
1.53099e-20
4.61838e-20
4.62385e-20
4.62705e-20
4.6297e-20
4.63203e-20
4.63408e-20
4.63587e-20
4.63744e-20
4.6388e-20
4.63997e-20
4.64098e-20
4.64183e-20
4.64256e-20
4.64318e-20
4.6437e-20
4.64414e-20
4.64451e-20
4.64482e-20
4.64508e-20
4.64529e-20
4.64547e-20
4.64562e-20
4.64574e-20
4.64584e-20
4.64593e-20
4.64599e-20
4.64604e-20
4.64607e-20
4.6461e-20
4.64611e-20
4.64611e-20
4.6461e-20
4.64607e-20
4.64604e-20
4.64599e-20
4.64593e-20
4.64584e-20
4.64574e-20
4.64562e-20
4.64547e-20
4.64529e-20
4.64508e-20
4.64482e-20
4.64451e-20
4.64414e-20
4.6437e-20
4.64318e-20
4.64256e-20
4.64183e-20
4.64098e-20
4.63997e-20
4.6388e-20
4.63744e-20
4.63587e-20
4.63408e-20
4.63203e-20
4.6297e-20
4.62705e-20
4.62385e-20
4.61838e-20
1.42985e-19
1.4317e-19
1.43289e-19
1.4339e-19
1.43479e-19
1.43559e-19
1.43628e-19
1.43689e-19
1.43742e-19
1.43788e-19
1.43827e-19
1.4386e-19
1.43889e-19
1.43913e-19
1.43933e-19
1.43951e-19
1.43965e-19
1.43977e-19
1.43987e-19
1.43996e-19
1.44003e-19
1.44009e-19
1.44014e-19
1.44018e-19
1.44021e-19
1.44023e-19
1.44025e-19
1.44027e-19
1.44027e-19
1.44028e-19
1.44028e-19
1.44027e-19
1.44027e-19
1.44025e-19
1.44023e-19
1.44021e-19
1.44018e-19
1.44014e-19
1.44009e-19
1.44003e-19
1.43996e-19
1.43987e-19
1.43977e-19
1.43965e-19
1.43951e-19
1.43933e-19
1.43913e-19
1.43889e-19
1.4386e-19
1.43827e-19
1.43788e-19
1.43742e-19
1.43689e-19
1.43628e-19
1.43559e-19
1.43479e-19
1.4339e-19
1.43289e-19
1.4317e-19
1.42985e-19
4.54602e-19
4.55242e-19
4.55679e-19
4.56063e-19
4.56405e-19
4.56709e-19
4.56976e-19
4.57209e-19
4.57412e-19
4.57588e-19
4.57738e-19
4.57867e-19
4.57977e-19
4.5807e-19
4.58149e-19
4.58215e-19
4.58271e-19
4.58318e-19
4.58357e-19
4.5839e-19
4.58418e-19
4.5844e-19
4.58459e-19
4.58474e-19
4.58487e-19
4.58497e-19
4.58504e-19
4.5851e-19
4.58513e-19
4.58515e-19
4.58515e-19
4.58513e-19
4.5851e-19
4.58504e-19
4.58497e-19
4.58487e-19
4.58474e-19
4.58459e-19
4.5844e-19
4.58418e-19
4.5839e-19
4.58357e-19
4.58318e-19
4.58271e-19
4.58215e-19
4.58149e-19
4.5807e-19
4.57977e-19
4.57867e-19
4.57738e-19
4.57588e-19
4.57412e-19
4.57209e-19
4.56976e-19
4.56709e-19
4.56405e-19
4.56063e-19
4.55679e-19
4.55242e-19
4.54602e-19
1.48464e-18
1.4869e-18
1.48854e-18
1.48999e-18
1.4913e-18
1.49246e-18
1.49349e-18
1.49439e-18
1.49517e-18
1.49584e-18
1.49642e-18
1.49691e-18
1.49734e-18
1.49769e-18
1.498e-18
1.49825e-18
1.49847e-18
1.49865e-18
1.4988e-18
1.49893e-18
1.49904e-18
1.49912e-18
1.4992e-18
1.49926e-18
1.4993e-18
1.49934e-18
1.49937e-18
1.49939e-18
1.4994e-18
1.49941e-18
1.49941e-18
1.4994e-18
1.49939e-18
1.49937e-18
1.49934e-18
1.4993e-18
1.49926e-18
1.4992e-18
1.49912e-18
1.49904e-18
1.49893e-18
1.4988e-18
1.49865e-18
1.49847e-18
1.49825e-18
1.498e-18
1.49769e-18
1.49734e-18
1.49691e-18
1.49642e-18
1.49584e-18
1.49517e-18
1.49439e-18
1.49349e-18
1.49246e-18
1.4913e-18
1.48999e-18
1.48854e-18
1.4869e-18
1.48464e-18
4.98079e-18
4.98893e-18
4.99513e-18
5.00072e-18
5.00576e-18
5.01024e-18
5.0142e-18
5.01767e-18
5.02068e-18
5.02329e-18
5.02553e-18
5.02745e-18
5.02908e-18
5.03047e-18
5.03165e-18
5.03264e-18
5.03348e-18
5.03418e-18
5.03477e-18
5.03527e-18
5.03568e-18
5.03602e-18
5.0363e-18
5.03653e-18
5.03671e-18
5.03686e-18
5.03697e-18
5.03705e-18
5.03711e-18
5.03713e-18
5.03713e-18
5.03711e-18
5.03705e-18
5.03697e-18
5.03686e-18
5.03671e-18
5.03653e-18
5.0363e-18
5.03602e-18
5.03568e-18
5.03527e-18
5.03477e-18
5.03418e-18
5.03348e-18
5.03264e-18
5.03165e-18
5.03047e-18
5.02908e-18
5.02745e-18
5.02553e-18
5.02329e-18
5.02068e-18
5.01767e-18
5.0142e-18
5.01024e-18
5.00576e-18
5.00072e-18
4.99513e-18
4.98893e-18
4.98079e-18
1.71647e-17
1.71947e-17
1.72186e-17
1.72403e-17
1.72599e-17
1.72774e-17
1.72929e-17
1.73064e-17
1.73182e-17
1.73284e-17
1.73372e-17
1.73447e-17
1.73511e-17
1.73565e-17
1.73611e-17
1.7365e-17
1.73683e-17
1.73711e-17
1.73734e-17
1.73753e-17
1.73769e-17
1.73783e-17
1.73794e-17
1.73803e-17
1.7381e-17
1.73816e-17
1.7382e-17
1.73823e-17
1.73826e-17
1.73827e-17
1.73827e-17
1.73826e-17
1.73823e-17
1.7382e-17
1.73816e-17
1.7381e-17
1.73803e-17
1.73794e-17
1.73783e-17
1.73769e-17
1.73753e-17
1.73734e-17
1.73711e-17
1.73683e-17
1.7365e-17
1.73611e-17
1.73565e-17
1.73511e-17
1.73447e-17
1.73372e-17
1.73284e-17
1.73182e-17
1.73064e-17
1.72929e-17
1.72774e-17
1.72599e-17
1.72403e-17
1.72186e-17
1.71947e-17
1.71647e-17
6.07509e-17
6.08642e-17
6.09574e-17
6.1043e-17
6.11207e-17
6.119e-17
6.12513e-17
6.13049e-17
6.13516e-17
6.1392e-17
6.14268e-17
6.14566e-17
6.1482e-17
6.15036e-17
6.1522e-17
6.15374e-17
6.15505e-17
6.15614e-17
6.15706e-17
6.15783e-17
6.15847e-17
6.15901e-17
6.15945e-17
6.1598e-17
6.16009e-17
6.16032e-17
6.1605e-17
6.16063e-17
6.16071e-17
6.16075e-17
6.16075e-17
6.16071e-17
6.16063e-17
6.1605e-17
6.16032e-17
6.16009e-17
6.1598e-17
6.15945e-17
6.15901e-17
6.15847e-17
6.15783e-17
6.15706e-17
6.15614e-17
6.15505e-17
6.15374e-17
6.1522e-17
6.15036e-17
6.1482e-17
6.14566e-17
6.14268e-17
6.1392e-17
6.13516e-17
6.13049e-17
6.12513e-17
6.119e-17
6.11207e-17
6.1043e-17
6.09574e-17
6.08642e-17
6.07509e-17
2.20747e-16
2.21185e-16
2.21556e-16
2.21899e-16
2.22211e-16
2.2249e-16
2.22737e-16
2.22953e-16
2.23141e-16
2.23304e-16
2.23444e-16
2.23564e-16
2.23666e-16
2.23754e-16
2.23827e-16
2.2389e-16
2.23942e-16
2.23987e-16
2.24024e-16
2.24055e-16
2.24081e-16
2.24102e-16
2.2412e-16
2.24135e-16
2.24146e-16
2.24155e-16
2.24163e-16
2.24168e-16
2.24171e-16
2.24173e-16
2.24173e-16
2.24171e-16
2.24168e-16
2.24163e-16
2.24155e-16
2.24146e-16
2.24135e-16
2.2412e-16
2.24102e-16
2.24081e-16
2.24055e-16
2.24024e-16
2.23987e-16
2.23942e-16
2.2389e-16
2.23827e-16
2.23754e-16
2.23666e-16
2.23564e-16
2.23444e-16
2.23304e-16
2.23141e-16
2.22953e-16
2.22737e-16
2.2249e-16
2.22211e-16
2.21899e-16
2.21556e-16
2.21185e-16
2.20747e-16
8.23066e-16
8.24794e-16
8.26299e-16
8.27701e-16
8.28977e-16
8.30118e-16
8.31127e-16
8.32012e-16
8.32782e-16
8.33449e-16
8.34024e-16
8.34516e-16
8.34936e-16
8.35293e-16
8.35596e-16
8.35853e-16
8.36069e-16
8.3625e-16
8.36403e-16
8.3653e-16
8.36637e-16
8.36725e-16
8.36798e-16
8.36857e-16
8.36905e-16
8.36943e-16
8.36972e-16
8.36993e-16
8.37007e-16
8.37014e-16
8.37014e-16
8.37007e-16
8.36993e-16
8.36972e-16
8.36943e-16
8.36905e-16
8.36857e-16
8.36798e-16
8.36725e-16
8.36637e-16
8.3653e-16
8.36403e-16
8.3625e-16
8.36069e-16
8.35853e-16
8.35596e-16
8.35293e-16
8.34936e-16
8.34516e-16
8.34024e-16
8.33449e-16
8.32782e-16
8.32012e-16
8.31127e-16
8.30118e-16
8.28977e-16
8.27701e-16
8.26299e-16
8.24794e-16
8.23066e-16
3.14667e-15
3.15365e-15
3.15987e-15
3.16569e-15
3.171e-15
3.17575e-15
3.17995e-15
3.18364e-15
3.18685e-15
3.18963e-15
3.19202e-15
3.19408e-15
3.19583e-15
3.19732e-15
3.19858e-15
3.19965e-15
3.20055e-15
3.20131e-15
3.20195e-15
3.20248e-15
3.20293e-15
3.20329e-15
3.2036e-15
3.20385e-15
3.20405e-15
3.20421e-15
3.20433e-15
3.20442e-15
3.20447e-15
3.2045e-15
3.2045e-15
3.20447e-15
3.20442e-15
3.20433e-15
3.20421e-15
3.20405e-15
3.20385e-15
3.2036e-15
3.20329e-15
3.20293e-15
3.20248e-15
3.20195e-15
3.20131e-15
3.20055e-15
3.19965e-15
3.19858e-15
3.19732e-15
3.19583e-15
3.19408e-15
3.19202e-15
3.18963e-15
3.18685e-15
3.18364e-15
3.17995e-15
3.17575e-15
3.171e-15
3.16569e-15
3.15987e-15
3.15365e-15
3.14667e-15
1.2323e-14
1.23518e-14
1.2378e-14
1.24026e-14
1.24251e-14
1.24452e-14
1.2463e-14
1.24786e-14
1.24922e-14
1.2504e-14
1.25142e-14
1.25229e-14
1.25303e-14
1.25367e-14
1.2542e-14
1.25466e-14
1.25504e-14
1.25536e-14
1.25563e-14
1.25586e-14
1.25605e-14
1.2562e-14
1.25633e-14
1.25644e-14
1.25652e-14
1.25659e-14
1.25664e-14
1.25668e-14
1.2567e-14
1.25671e-14
1.25671e-14
1.2567e-14
1.25668e-14
1.25664e-14
1.25659e-14
1.25652e-14
1.25644e-14
1.25633e-14
1.2562e-14
1.25605e-14
1.25586e-14
1.25563e-14
1.25536e-14
1.25504e-14
1.25466e-14
1.2542e-14
1.25367e-14
1.25303e-14
1.25229e-14
1.25142e-14
1.2504e-14
1.24922e-14
1.24786e-14
1.2463e-14
1.24452e-14
1.24251e-14
1.24026e-14
1.2378e-14
1.23518e-14
1.2323e-14
4.93723e-14
4.94933e-14
4.96055e-14
4.97114e-14
4.98081e-14
4.98948e-14
4.99715e-14
5.00388e-14
5.00975e-14
5.01483e-14
5.01921e-14
5.02296e-14
5.02617e-14
5.02889e-14
5.03121e-14
5.03317e-14
5.03482e-14
5.03621e-14
5.03737e-14
5.03835e-14
5.03916e-14
5.03984e-14
5.04039e-14
5.04085e-14
5.04122e-14
5.04151e-14
5.04173e-14
5.04189e-14
5.042e-14
5.04205e-14
5.04205e-14
5.042e-14
5.04189e-14
5.04173e-14
5.04151e-14
5.04122e-14
5.04085e-14
5.04039e-14
5.03984e-14
5.03916e-14
5.03835e-14
5.03737e-14
5.03621e-14
5.03482e-14
5.03317e-14
5.03121e-14
5.02889e-14
5.02617e-14
5.02296e-14
5.01921e-14
5.01483e-14
5.00975e-14
5.00388e-14
4.99715e-14
4.98948e-14
4.98081e-14
4.97114e-14
4.96055e-14
4.94933e-14
4.93723e-14
2.02049e-13
2.02567e-13
2.03055e-13
2.03518e-13
2.03941e-13
2.0432e-13
2.04655e-13
2.0495e-13
2.05207e-13
2.05429e-13
2.05621e-13
2.05785e-13
2.05925e-13
2.06045e-13
2.06146e-13
2.06232e-13
2.06304e-13
2.06365e-13
2.06416e-13
2.06459e-13
2.06495e-13
2.06524e-13
2.06549e-13
2.06568e-13
2.06585e-13
2.06597e-13
2.06607e-13
2.06614e-13
2.06619e-13
2.06621e-13
2.06621e-13
2.06619e-13
2.06614e-13
2.06607e-13
2.06597e-13
2.06585e-13
2.06568e-13
2.06549e-13
2.06524e-13
2.06495e-13
2.06459e-13
2.06416e-13
2.06365e-13
2.06304e-13
2.06232e-13
2.06146e-13
2.06045e-13
2.05925e-13
2.05785e-13
2.05621e-13
2.05429e-13
2.05207e-13
2.0495e-13
2.04655e-13
2.0432e-13
2.03941e-13
2.03518e-13
2.03055e-13
2.02567e-13
2.02049e-13
8.42901e-13
8.45157e-13
8.47315e-13
8.49363e-13
8.51237e-13
8.52918e-13
8.54407e-13
8.55713e-13
8.56852e-13
8.57838e-13
8.58689e-13
8.59418e-13
8.60041e-13
8.60571e-13
8.61021e-13
8.61402e-13
8.61723e-13
8.61993e-13
8.6222e-13
8.6241e-13
8.62568e-13
8.62699e-13
8.62808e-13
8.62897e-13
8.62968e-13
8.63025e-13
8.63068e-13
8.63099e-13
8.6312e-13
8.6313e-13
8.6313e-13
8.6312e-13
8.63099e-13
8.63068e-13
8.63025e-13
8.62968e-13
8.62897e-13
8.62808e-13
8.62699e-13
8.62568e-13
8.6241e-13
8.6222e-13
8.61993e-13
8.61723e-13
8.61402e-13
8.61021e-13
8.60571e-13
8.60041e-13
8.59418e-13
8.58689e-13
8.57838e-13
8.56852e-13
8.55713e-13
8.54407e-13
8.52918e-13
8.51237e-13
8.49363e-13
8.47315e-13
8.45157e-13
8.42901e-13
3.57601e-12
3.58598e-12
3.59562e-12
3.6048e-12
3.61321e-12
3.62074e-12
3.62742e-12
3.63328e-12
3.63839e-12
3.64282e-12
3.64663e-12
3.64991e-12
3.6527e-12
3.65508e-12
3.6571e-12
3.65881e-12
3.66025e-12
3.66147e-12
3.66249e-12
3.66334e-12
3.66405e-12
3.66464e-12
3.66513e-12
3.66553e-12
3.66585e-12
3.6661e-12
3.6663e-12
3.66644e-12
3.66653e-12
3.66657e-12
3.66657e-12
3.66653e-12
3.66644e-12
3.6663e-12
3.6661e-12
3.66585e-12
3.66553e-12
3.66513e-12
3.66464e-12
3.66405e-12
3.66334e-12
3.66249e-12
3.66147e-12
3.66025e-12
3.65881e-12
3.6571e-12
3.65508e-12
3.6527e-12
3.64991e-12
3.64663e-12
3.64282e-12
3.63839e-12
3.63328e-12
3.62742e-12
3.62074e-12
3.61321e-12
3.6048e-12
3.59562e-12
3.58598e-12
3.57601e-12
1.53839e-11
1.54283e-11
1.54719e-11
1.55133e-11
1.55514e-11
1.55855e-11
1.56157e-11
1.56422e-11
1.56653e-11
1.56853e-11
1.57026e-11
1.57174e-11
1.57301e-11
1.57409e-11
1.575e-11
1.57577e-11
1.57643e-11
1.57698e-11
1.57744e-11
1.57782e-11
1.57815e-11
1.57841e-11
1.57863e-11
1.57881e-11
1.57896e-11
1.57908e-11
1.57916e-11
1.57923e-11
1.57927e-11
1.57929e-11
1.57929e-11
1.57927e-11
1.57923e-11
1.57916e-11
1.57908e-11
1.57896e-11
1.57881e-11
1.57863e-11
1.57841e-11
1.57815e-11
1.57782e-11
1.57744e-11
1.57698e-11
1.57643e-11
1.57577e-11
1.575e-11
1.57409e-11
1.57301e-11
1.57174e-11
1.57026e-11
1.56853e-11
1.56653e-11
1.56422e-11
1.56157e-11
1.55855e-11
1.55514e-11
1.55133e-11
1.54719e-11
1.54283e-11
1.53839e-11
6.68768e-11
6.70768e-11
6.72743e-11
6.74628e-11
6.76356e-11
6.77906e-11
6.7928e-11
6.80486e-11
6.81538e-11
6.82449e-11
6.83235e-11
6.83909e-11
6.84484e-11
6.84975e-11
6.85391e-11
6.85743e-11
6.8604e-11
6.8629e-11
6.865e-11
6.86676e-11
6.86823e-11
6.86944e-11
6.87045e-11
6.87127e-11
6.87193e-11
6.87245e-11
6.87285e-11
6.87315e-11
6.87333e-11
6.87343e-11
6.87343e-11
6.87333e-11
6.87315e-11
6.87285e-11
6.87245e-11
6.87193e-11
6.87127e-11
6.87045e-11
6.86944e-11
6.86823e-11
6.86676e-11
6.865e-11
6.8629e-11
6.8604e-11
6.85743e-11
6.85391e-11
6.84975e-11
6.84484e-11
6.83909e-11
6.83235e-11
6.82449e-11
6.81538e-11
6.80486e-11
6.7928e-11
6.77906e-11
6.76356e-11
6.74628e-11
6.72743e-11
6.70768e-11
6.68768e-11
2.92593e-10
2.93494e-10
2.94392e-10
2.95249e-10
2.96035e-10
2.96741e-10
2.97366e-10
2.97915e-10
2.98394e-10
2.98809e-10
2.99166e-10
2.99473e-10
2.99735e-10
2.99959e-10
3.00148e-10
3.00308e-10
3.00444e-10
3.00558e-10
3.00653e-10
3.00733e-10
3.008e-10
3.00856e-10
3.00901e-10
3.00939e-10
3.00969e-10
3.00993e-10
3.01011e-10
3.01024e-10
3.01033e-10
3.01037e-10
3.01037e-10
3.01033e-10
3.01024e-10
3.01011e-10
3.00993e-10
3.00969e-10
3.00939e-10
3.00901e-10
3.00856e-10
3.008e-10
3.00733e-10
3.00653e-10
3.00558e-10
3.00444e-10
3.00308e-10
3.00148e-10
2.99959e-10
2.99735e-10
2.99473e-10
2.99166e-10
2.98809e-10
2.98394e-10
2.97915e-10
2.97366e-10
2.96741e-10
2.96035e-10
2.95249e-10
2.94392e-10
2.93494e-10
2.92593e-10
1.28223e-09
1.28628e-09
1.29035e-09
1.29424e-09
1.2978e-09
1.301e-09
1.30383e-09
1.30632e-09
1.30849e-09
1.31037e-09
1.31199e-09
1.31338e-09
1.31457e-09
1.31558e-09
1.31644e-09
1.31717e-09
1.31778e-09
1.3183e-09
1.31873e-09
1.31909e-09
1.3194e-09
1.31965e-09
1.31986e-09
1.32003e-09
1.32016e-09
1.32027e-09
1.32035e-09
1.32041e-09
1.32045e-09
1.32047e-09
1.32047e-09
1.32045e-09
1.32041e-09
1.32035e-09
1.32027e-09
1.32016e-09
1.32003e-09
1.31986e-09
1.31965e-09
1.3194e-09
1.31909e-09
1.31873e-09
1.3183e-09
1.31778e-09
1.31717e-09
1.31644e-09
1.31558e-09
1.31457e-09
1.31338e-09
1.31199e-09
1.31037e-09
1.30849e-09
1.30632e-09
1.30383e-09
1.301e-09
1.2978e-09
1.29424e-09
1.29035e-09
1.28628e-09
1.28223e-09
5.59754e-09
5.61563e-09
5.63387e-09
5.65131e-09
5.66729e-09
5.68164e-09
5.69435e-09
5.70552e-09
5.71526e-09
5.7237e-09
5.73097e-09
5.73722e-09
5.74255e-09
5.7471e-09
5.75095e-09
5.75422e-09
5.75697e-09
5.75929e-09
5.76124e-09
5.76287e-09
5.76423e-09
5.76535e-09
5.76629e-09
5.76705e-09
5.76766e-09
5.76815e-09
5.76852e-09
5.76879e-09
5.76896e-09
5.76905e-09
5.76905e-09
5.76896e-09
5.76879e-09
5.76852e-09
5.76815e-09
5.76766e-09
5.76705e-09
5.76629e-09
5.76535e-09
5.76423e-09
5.76287e-09
5.76124e-09
5.75929e-09
5.75697e-09
5.75422e-09
5.75095e-09
5.7471e-09
5.74255e-09
5.73722e-09
5.73097e-09
5.7237e-09
5.71526e-09
5.70552e-09
5.69435e-09
5.68164e-09
5.66729e-09
5.65131e-09
5.63387e-09
5.61563e-09
5.59754e-09
2.41891e-08
2.42687e-08
2.43492e-08
2.44261e-08
2.44967e-08
2.456e-08
2.46161e-08
2.46654e-08
2.47083e-08
2.47456e-08
2.47777e-08
2.48052e-08
2.48288e-08
2.48488e-08
2.48659e-08
2.48803e-08
2.48924e-08
2.49027e-08
2.49113e-08
2.49185e-08
2.49245e-08
2.49294e-08
2.49335e-08
2.49369e-08
2.49396e-08
2.49418e-08
2.49434e-08
2.49446e-08
2.49454e-08
2.49457e-08
2.49457e-08
2.49454e-08
2.49446e-08
2.49434e-08
2.49418e-08
2.49396e-08
2.49369e-08
2.49335e-08
2.49294e-08
2.49245e-08
2.49185e-08
2.49113e-08
2.49027e-08
2.48924e-08
2.48803e-08
2.48659e-08
2.48488e-08
2.48288e-08
2.48052e-08
2.47777e-08
2.47456e-08
2.47083e-08
2.46654e-08
2.46161e-08
2.456e-08
2.44967e-08
2.44261e-08
2.43492e-08
2.42687e-08
2.41891e-08
1.02736e-07
1.03078e-07
1.03425e-07
1.03756e-07
1.0406e-07
1.04332e-07
1.04574e-07
1.04786e-07
1.04971e-07
1.05132e-07
1.0527e-07
1.05388e-07
1.0549e-07
1.05576e-07
1.0565e-07
1.05712e-07
1.05764e-07
1.05808e-07
1.05845e-07
1.05876e-07
1.05902e-07
1.05923e-07
1.05941e-07
1.05955e-07
1.05967e-07
1.05976e-07
1.05983e-07
1.05989e-07
1.05992e-07
1.05994e-07
1.05994e-07
1.05992e-07
1.05989e-07
1.05983e-07
1.05976e-07
1.05967e-07
1.05955e-07
1.05941e-07
1.05923e-07
1.05902e-07
1.05876e-07
1.05845e-07
1.05808e-07
1.05764e-07
1.05712e-07
1.0565e-07
1.05576e-07
1.0549e-07
1.05388e-07
1.0527e-07
1.05132e-07
1.04971e-07
1.04786e-07
1.04574e-07
1.04332e-07
1.0406e-07
1.03756e-07
1.03425e-07
1.03078e-07
1.02736e-07
4.25387e-07
4.26811e-07
4.28258e-07
4.29639e-07
4.30905e-07
4.3204e-07
4.33046e-07
4.3393e-07
4.347e-07
4.35368e-07
4.35944e-07
4.36438e-07
4.36861e-07
4.3722e-07
4.37526e-07
4.37784e-07
4.38002e-07
4.38186e-07
4.3834e-07
4.38469e-07
4.38576e-07
4.38666e-07
4.3874e-07
4.388e-07
4.38848e-07
4.38887e-07
4.38916e-07
4.38938e-07
4.38952e-07
4.38958e-07
4.38958e-07
4.38952e-07
4.38938e-07
4.38916e-07
4.38887e-07
4.38848e-07
4.388e-07
4.3874e-07
4.38666e-07
4.38576e-07
4.38469e-07
4.3834e-07
4.38186e-07
4.38002e-07
4.37784e-07
4.37526e-07
4.3722e-07
4.36861e-07
4.36438e-07
4.35944e-07
4.35368e-07
4.347e-07
4.3393e-07
4.33046e-07
4.3204e-07
4.30905e-07
4.29639e-07
4.28258e-07
4.26811e-07
4.25387e-07
1.70163e-06
1.70732e-06
1.7131e-06
1.71861e-06
1.72366e-06
1.72819e-06
1.7322e-06
1.73572e-06
1.73879e-06
1.74146e-06
1.74375e-06
1.74572e-06
1.74741e-06
1.74884e-06
1.75006e-06
1.75109e-06
1.75196e-06
1.75269e-06
1.7533e-06
1.75382e-06
1.75425e-06
1.7546e-06
1.7549e-06
1.75514e-06
1.75533e-06
1.75549e-06
1.7556e-06
1.75569e-06
1.75574e-06
1.75577e-06
1.75577e-06
1.75574e-06
1.75569e-06
1.7556e-06
1.75549e-06
1.75533e-06
1.75514e-06
1.7549e-06
1.7546e-06
1.75425e-06
1.75382e-06
1.7533e-06
1.75269e-06
1.75196e-06
1.75109e-06
1.75006e-06
1.74884e-06
1.74741e-06
1.74572e-06
1.74375e-06
1.74146e-06
1.73879e-06
1.73572e-06
1.7322e-06
1.72819e-06
1.72366e-06
1.71861e-06
1.7131e-06
1.70732e-06
1.70163e-06
6.50964e-06
6.5312e-06
6.55308e-06
6.5739e-06
6.59296e-06
6.61005e-06
6.6252e-06
6.6385e-06
6.65009e-06
6.66014e-06
6.66881e-06
6.67624e-06
6.6826e-06
6.68801e-06
6.6926e-06
6.69649e-06
6.69978e-06
6.70254e-06
6.70486e-06
6.7068e-06
6.70842e-06
6.70977e-06
6.71088e-06
6.71178e-06
6.71251e-06
6.71309e-06
6.71354e-06
6.71386e-06
6.71407e-06
6.71417e-06
6.71417e-06
6.71407e-06
6.71386e-06
6.71354e-06
6.71309e-06
6.71251e-06
6.71178e-06
6.71088e-06
6.70977e-06
6.70842e-06
6.7068e-06
6.70486e-06
6.70254e-06
6.69978e-06
6.69649e-06
6.6926e-06
6.68801e-06
6.6826e-06
6.67624e-06
6.66881e-06
6.66014e-06
6.65009e-06
6.6385e-06
6.6252e-06
6.61005e-06
6.59296e-06
6.5739e-06
6.55308e-06
6.5312e-06
6.50964e-06
2.35484e-05
2.36248e-05
2.37022e-05
2.37757e-05
2.3843e-05
2.39033e-05
2.39567e-05
2.40036e-05
2.40445e-05
2.408e-05
2.41105e-05
2.41367e-05
2.41591e-05
2.41782e-05
2.41944e-05
2.42081e-05
2.42197e-05
2.42294e-05
2.42376e-05
2.42445e-05
2.42502e-05
2.42549e-05
2.42588e-05
2.4262e-05
2.42646e-05
2.42667e-05
2.42682e-05
2.42694e-05
2.42701e-05
2.42705e-05
2.42705e-05
2.42701e-05
2.42694e-05
2.42682e-05
2.42667e-05
2.42646e-05
2.4262e-05
2.42588e-05
2.42549e-05
2.42502e-05
2.42445e-05
2.42376e-05
2.42294e-05
2.42197e-05
2.42081e-05
2.41944e-05
2.41782e-05
2.41591e-05
2.41367e-05
2.41105e-05
2.408e-05
2.40445e-05
2.40036e-05
2.39567e-05
2.39033e-05
2.3843e-05
2.37757e-05
2.37022e-05
2.36248e-05
2.35484e-05
7.95507e-05
7.98008e-05
8.0053e-05
8.02921e-05
8.05106e-05
8.07064e-05
8.08799e-05
8.10322e-05
8.11649e-05
8.128e-05
8.13792e-05
8.14643e-05
8.1537e-05
8.15989e-05
8.16515e-05
8.1696e-05
8.17336e-05
8.17652e-05
8.17918e-05
8.1814e-05
8.18326e-05
8.1848e-05
8.18607e-05
8.18711e-05
8.18794e-05
8.18861e-05
8.18911e-05
8.18948e-05
8.18972e-05
8.18984e-05
8.18984e-05
8.18972e-05
8.18948e-05
8.18911e-05
8.18861e-05
8.18794e-05
8.18711e-05
8.18607e-05
8.1848e-05
8.18326e-05
8.1814e-05
8.17918e-05
8.17652e-05
8.17336e-05
8.1696e-05
8.16515e-05
8.15989e-05
8.1537e-05
8.14643e-05
8.13792e-05
8.128e-05
8.11649e-05
8.10322e-05
8.08799e-05
8.07064e-05
8.05106e-05
8.02921e-05
8.0053e-05
7.98008e-05
7.95507e-05
0.000247539
0.000248281
0.000249025
0.000249729
0.000250372
0.000250948
0.000251458
0.000251905
0.000252295
0.000252633
0.000252925
0.000253175
0.000253389
0.000253571
0.000253725
0.000253856
0.000253966
0.000254059
0.000254137
0.000254203
0.000254257
0.000254302
0.00025434
0.00025437
0.000254395
0.000254414
0.000254429
0.00025444
0.000254447
0.00025445
0.00025445
0.000254447
0.00025444
0.000254429
0.000254414
0.000254395
0.00025437
0.00025434
0.000254302
0.000254257
0.000254203
0.000254137
0.000254059
0.000253966
0.000253856
0.000253725
0.000253571
0.000253389
0.000253175
0.000252925
0.000252633
0.000252295
0.000251905
0.000251458
0.000250948
0.000250372
0.000249729
0.000249025
0.000248281
0.000247539
0.000699187
0.000701146
0.0007031
0.000704942
0.000706622
0.000708127
0.000709459
0.000710628
0.000711646
0.000712529
0.00071329
0.000713942
0.0007145
0.000714975
0.000715379
0.00071572
0.000716008
0.000716251
0.000716455
0.000716625
0.000716768
0.000716886
0.000716983
0.000717063
0.000717127
0.000717178
0.000717217
0.000717245
0.000717264
0.000717273
0.000717273
0.000717264
0.000717245
0.000717217
0.000717178
0.000717127
0.000717063
0.000716983
0.000716886
0.000716768
0.000716625
0.000716455
0.000716251
0.000716008
0.00071572
0.000715379
0.000714975
0.0007145
0.000713942
0.00071329
0.000712529
0.000711646
0.000710628
0.000709459
0.000708127
0.000706622
0.000704942
0.0007031
0.000701146
0.000699187
0.00176674
0.00177126
0.00177573
0.00177993
0.00178376
0.00178719
0.00179023
0.00179289
0.00179521
0.00179721
0.00179895
0.00180043
0.0018017
0.00180278
0.0018037
0.00180448
0.00180513
0.00180569
0.00180615
0.00180654
0.00180686
0.00180713
0.00180735
0.00180754
0.00180768
0.0018078
0.00180789
0.00180795
0.00180799
0.00180801
0.00180801
0.00180799
0.00180795
0.00180789
0.0018078
0.00180768
0.00180754
0.00180735
0.00180713
0.00180686
0.00180654
0.00180615
0.00180569
0.00180513
0.00180448
0.0018037
0.00180278
0.0018017
0.00180043
0.00179895
0.00179721
0.00179521
0.00179289
0.00179023
0.00178719
0.00178376
0.00177993
0.00177573
0.00177126
0.00176674
0.00394531
0.00395428
0.00396307
0.00397132
0.00397881
0.00398552
0.00399145
0.00399665
0.00400118
0.00400511
0.00400849
0.0040114
0.00401388
0.00401599
0.00401779
0.0040193
0.00402059
0.00402167
0.00402257
0.00402333
0.00402397
0.00402449
0.00402493
0.00402528
0.00402557
0.00402579
0.00402597
0.00402609
0.00402617
0.00402622
0.00402622
0.00402617
0.00402609
0.00402597
0.00402579
0.00402557
0.00402528
0.00402493
0.00402449
0.00402397
0.00402333
0.00402257
0.00402167
0.00402059
0.0040193
0.00401779
0.00401599
0.00401388
0.0040114
0.00400849
0.00400511
0.00400118
0.00399665
0.00399145
0.00398552
0.00397881
0.00397132
0.00396307
0.00395428
0.00394531
0.00773675
0.00775195
0.00776671
0.00778049
0.00779301
0.00780419
0.00781408
0.00782276
0.00783031
0.00783686
0.0078425
0.00784734
0.00785147
0.007855
0.00785799
0.00786052
0.00786266
0.00786446
0.00786597
0.00786724
0.0078683
0.00786917
0.0078699
0.00787049
0.00787097
0.00787135
0.00787164
0.00787185
0.00787198
0.00787205
0.00787205
0.00787198
0.00787185
0.00787164
0.00787135
0.00787097
0.00787049
0.0078699
0.00786917
0.0078683
0.00786724
0.00786597
0.00786446
0.00786266
0.00786052
0.00785799
0.007855
0.00785147
0.00784734
0.0078425
0.00783686
0.00783031
0.00782276
0.00781408
0.00780419
0.00779301
0.00778049
0.00776671
0.00775195
0.00773675
0.0133607
0.0133829
0.0134042
0.013424
0.013442
0.0134581
0.0134723
0.0134847
0.0134956
0.013505
0.0135131
0.01352
0.0135259
0.013531
0.0135353
0.0135389
0.013542
0.0135446
0.0135468
0.0135486
0.0135501
0.0135514
0.0135524
0.0135532
0.0135539
0.0135545
0.0135549
0.0135552
0.0135554
0.0135555
0.0135555
0.0135554
0.0135552
0.0135549
0.0135545
0.0135539
0.0135532
0.0135524
0.0135514
0.0135501
0.0135486
0.0135468
0.0135446
0.013542
0.0135389
0.0135353
0.013531
0.0135259
0.01352
0.0135131
0.013505
0.0134956
0.0134847
0.0134723
0.0134581
0.013442
0.013424
0.0134042
0.0133829
0.0133607
0.0205831
0.0206118
0.020639
0.0206642
0.020687
0.0207074
0.0207254
0.0207412
0.0207549
0.0207668
0.0207771
0.0207859
0.0207934
0.0207998
0.0208053
0.0208099
0.0208138
0.0208171
0.0208198
0.0208222
0.0208241
0.0208257
0.020827
0.0208281
0.020829
0.0208297
0.0208302
0.0208306
0.0208308
0.0208309
0.0208309
0.0208308
0.0208306
0.0208302
0.0208297
0.020829
0.0208281
0.020827
0.0208257
0.0208241
0.0208222
0.0208198
0.0208171
0.0208138
0.0208099
0.0208053
0.0207998
0.0207934
0.0207859
0.0207771
0.0207668
0.0207549
0.0207412
0.0207254
0.0207074
0.020687
0.0206642
0.020639
0.0206118
0.0205831
0.028867
0.0289009
0.0289328
0.0289621
0.0289886
0.0290123
0.0290332
0.0290515
0.0290675
0.0290813
0.0290933
0.0291035
0.0291123
0.0291197
0.0291261
0.0291314
0.029136
0.0291398
0.029143
0.0291457
0.029148
0.0291498
0.0291514
0.0291527
0.0291537
0.0291545
0.0291551
0.0291556
0.0291558
0.029156
0.029156
0.0291558
0.0291556
0.0291551
0.0291545
0.0291537
0.0291527
0.0291514
0.0291498