/*--------------------------------*- C++ -*----------------------------------*\
| =========                 |                                                 |
| \\      /  F ield         | foam-extend: Open Source CFD                    |
|  \\    /   O peration     | Version:     4.0                                |
|   \\  /    A nd           | Web:         http://www.foam-extend.org         |
|    \\/     M anipulation  |                                                 |
\*---------------------------------------------------------------------------*/
FoamFile
{
    version     2.0;
    format      ascii;
    class       volScalarField;
    location    "1470";
    object      cPlus;
}
// * * * * * * * * * * * * * * * * * * * * * * * * * * * * * * * * * * * * * //

dimensions      [0 0 0 0 0 0 0];

internalField   nonuniform List<scalar> 
6960
(
0.315998
0.315983
0.315964
0.315946
0.315929
0.315914
0.3159
0.315888
0.315878
0.315869
0.315861
0.315855
0.315849
0.315844
0.31584
0.315837
0.315834
0.315831
0.315829
0.315828
0.315826
0.315825
0.315824
0.315823
0.315823
0.315822
0.315822
0.315821
0.315821
0.315821
0.315821
0.315821
0.315821
0.315822
0.315822
0.315823
0.315823
0.315824
0.315825
0.315826
0.315828
0.315829
0.315831
0.315834
0.315837
0.31584
0.315844
0.315849
0.315855
0.315861
0.315869
0.315878
0.315888
0.3159
0.315914
0.315929
0.315946
0.315964
0.315983
0.315998
0.100416
0.100405
0.100393
0.10038
0.100368
0.100358
0.100349
0.100341
0.100333
0.100327
0.100322
0.100318
0.100314
0.10031
0.100308
0.100305
0.100303
0.100302
0.1003
0.100299
0.100298
0.100297
0.100296
0.100296
0.100295
0.100295
0.100295
0.100295
0.100295
0.100294
0.100294
0.100295
0.100295
0.100295
0.100295
0.100295
0.100296
0.100296
0.100297
0.100298
0.100299
0.1003
0.100302
0.100303
0.100305
0.100308
0.10031
0.100314
0.100318
0.100322
0.100327
0.100333
0.100341
0.100349
0.100358
0.100368
0.10038
0.100393
0.100405
0.100416
0.0382729
0.0382676
0.0382609
0.0382543
0.0382482
0.0382426
0.0382377
0.0382334
0.0382297
0.0382265
0.0382237
0.0382213
0.0382192
0.0382175
0.038216
0.0382147
0.0382137
0.0382128
0.038212
0.0382114
0.0382109
0.0382104
0.0382101
0.0382098
0.0382096
0.0382094
0.0382092
0.0382091
0.0382091
0.038209
0.038209
0.0382091
0.0382091
0.0382092
0.0382094
0.0382096
0.0382098
0.0382101
0.0382104
0.0382109
0.0382114
0.038212
0.0382128
0.0382137
0.0382147
0.038216
0.0382175
0.0382192
0.0382213
0.0382237
0.0382265
0.0382297
0.0382334
0.0382377
0.0382426
0.0382482
0.0382543
0.0382609
0.0382676
0.0382729
0.0173664
0.0173645
0.0173619
0.0173592
0.0173567
0.0173544
0.0173524
0.0173507
0.0173491
0.0173478
0.0173467
0.0173457
0.0173448
0.0173441
0.0173435
0.017343
0.0173426
0.0173422
0.0173419
0.0173416
0.0173414
0.0173412
0.0173411
0.017341
0.0173409
0.0173408
0.0173407
0.0173407
0.0173406
0.0173406
0.0173406
0.0173406
0.0173407
0.0173407
0.0173408
0.0173409
0.017341
0.0173411
0.0173412
0.0173414
0.0173416
0.0173419
0.0173422
0.0173426
0.017343
0.0173435
0.0173441
0.0173448
0.0173457
0.0173467
0.0173478
0.0173491
0.0173507
0.0173524
0.0173544
0.0173567
0.0173592
0.0173619
0.0173645
0.0173664
0.0100761
0.0100761
0.0100757
0.0100752
0.0100748
0.0100743
0.0100739
0.0100736
0.0100733
0.010073
0.0100728
0.0100726
0.0100724
0.0100723
0.0100721
0.010072
0.0100719
0.0100719
0.0100718
0.0100717
0.0100717
0.0100717
0.0100716
0.0100716
0.0100716
0.0100716
0.0100716
0.0100715
0.0100715
0.0100715
0.0100715
0.0100715
0.0100715
0.0100716
0.0100716
0.0100716
0.0100716
0.0100716
0.0100717
0.0100717
0.0100717
0.0100718
0.0100719
0.0100719
0.010072
0.0100721
0.0100723
0.0100724
0.0100726
0.0100728
0.010073
0.0100733
0.0100736
0.0100739
0.0100743
0.0100748
0.0100752
0.0100757
0.0100761
0.0100761
0.00756333
0.00756434
0.00756506
0.00756567
0.00756619
0.00756666
0.00756706
0.00756741
0.00756771
0.00756797
0.0075682
0.00756838
0.00756855
0.00756868
0.00756879
0.00756889
0.00756897
0.00756904
0.0075691
0.00756914
0.00756918
0.00756921
0.00756924
0.00756926
0.00756928
0.00756929
0.0075693
0.00756931
0.00756931
0.00756932
0.00756932
0.00756931
0.00756931
0.0075693
0.00756929
0.00756928
0.00756926
0.00756924
0.00756921
0.00756918
0.00756914
0.0075691
0.00756904
0.00756897
0.00756889
0.00756879
0.00756868
0.00756855
0.00756838
0.0075682
0.00756797
0.00756771
0.00756741
0.00756706
0.00756666
0.00756619
0.00756567
0.00756506
0.00756434
0.00756333
0.00673757
0.00673902
0.00674025
0.00674135
0.00674234
0.00674322
0.00674398
0.00674465
0.00674523
0.00674574
0.00674617
0.00674653
0.00674684
0.00674711
0.00674733
0.00674752
0.00674768
0.00674781
0.00674793
0.00674802
0.0067481
0.00674816
0.00674821
0.00674826
0.00674829
0.00674832
0.00674834
0.00674836
0.00674837
0.00674837
0.00674837
0.00674837
0.00674836
0.00674834
0.00674832
0.00674829
0.00674826
0.00674821
0.00674816
0.0067481
0.00674802
0.00674793
0.00674781
0.00674768
0.00674752
0.00674733
0.00674711
0.00674684
0.00674653
0.00674617
0.00674574
0.00674523
0.00674465
0.00674398
0.00674322
0.00674234
0.00674135
0.00674025
0.00673902
0.00673757
0.00649973
0.00650137
0.00650283
0.00650415
0.00650534
0.0065064
0.00650733
0.00650814
0.00650884
0.00650945
0.00650997
0.00651041
0.00651079
0.00651112
0.00651139
0.00651162
0.00651181
0.00651197
0.00651211
0.00651222
0.00651232
0.0065124
0.00651246
0.00651251
0.00651256
0.00651259
0.00651262
0.00651263
0.00651265
0.00651265
0.00651265
0.00651265
0.00651263
0.00651262
0.00651259
0.00651256
0.00651251
0.00651246
0.0065124
0.00651232
0.00651222
0.00651211
0.00651197
0.00651181
0.00651162
0.00651139
0.00651112
0.00651079
0.00651041
0.00650997
0.00650945
0.00650884
0.00650814
0.00650733
0.0065064
0.00650534
0.00650415
0.00650283
0.00650137
0.00649973
0.00646363
0.00646537
0.00646693
0.00646836
0.00646964
0.00647077
0.00647177
0.00647265
0.00647341
0.00647406
0.00647462
0.00647511
0.00647552
0.00647586
0.00647616
0.00647641
0.00647662
0.00647679
0.00647694
0.00647706
0.00647716
0.00647725
0.00647732
0.00647738
0.00647742
0.00647746
0.00647749
0.00647751
0.00647752
0.00647753
0.00647753
0.00647752
0.00647751
0.00647749
0.00647746
0.00647742
0.00647738
0.00647732
0.00647725
0.00647716
0.00647706
0.00647694
0.00647679
0.00647662
0.00647641
0.00647616
0.00647586
0.00647552
0.00647511
0.00647462
0.00647406
0.00647341
0.00647265
0.00647177
0.00647077
0.00646964
0.00646836
0.00646693
0.00646537
0.00646363
0.00649679
0.00649858
0.0065002
0.00650167
0.006503
0.00650418
0.00650522
0.00650613
0.00650691
0.00650759
0.00650818
0.00650868
0.0065091
0.00650946
0.00650977
0.00651003
0.00651025
0.00651043
0.00651058
0.00651071
0.00651082
0.00651091
0.00651098
0.00651104
0.00651109
0.00651112
0.00651115
0.00651117
0.00651119
0.00651119
0.00651119
0.00651119
0.00651117
0.00651115
0.00651112
0.00651109
0.00651104
0.00651098
0.00651091
0.00651082
0.00651071
0.00651058
0.00651043
0.00651025
0.00651003
0.00650977
0.00650946
0.0065091
0.00650868
0.00650818
0.00650759
0.00650691
0.00650613
0.00650522
0.00650418
0.006503
0.00650167
0.0065002
0.00649858
0.00649679
0.00655511
0.00655694
0.0065586
0.00656011
0.00656147
0.00656268
0.00656374
0.00656467
0.00656548
0.00656617
0.00656677
0.00656729
0.00656772
0.00656809
0.00656841
0.00656867
0.00656889
0.00656908
0.00656924
0.00656937
0.00656948
0.00656957
0.00656964
0.00656971
0.00656975
0.00656979
0.00656982
0.00656984
0.00656986
0.00656987
0.00656987
0.00656986
0.00656984
0.00656982
0.00656979
0.00656975
0.00656971
0.00656964
0.00656957
0.00656948
0.00656937
0.00656924
0.00656908
0.00656889
0.00656867
0.00656841
0.00656809
0.00656772
0.00656729
0.00656677
0.00656617
0.00656548
0.00656467
0.00656374
0.00656268
0.00656147
0.00656011
0.0065586
0.00655694
0.00655511
0.00662453
0.0066264
0.00662809
0.00662963
0.00663102
0.00663226
0.00663334
0.00663429
0.00663511
0.00663583
0.00663644
0.00663696
0.00663741
0.00663778
0.0066381
0.00663838
0.0066386
0.00663879
0.00663896
0.00663909
0.0066392
0.00663929
0.00663937
0.00663943
0.00663948
0.00663952
0.00663955
0.00663957
0.00663959
0.0066396
0.0066396
0.00663959
0.00663957
0.00663955
0.00663952
0.00663948
0.00663943
0.00663937
0.00663929
0.0066392
0.00663909
0.00663896
0.00663879
0.0066386
0.00663838
0.0066381
0.00663778
0.00663741
0.00663696
0.00663644
0.00663583
0.00663511
0.00663429
0.00663334
0.00663226
0.00663102
0.00662963
0.00662809
0.0066264
0.00662453
0.00670093
0.00670284
0.00670456
0.00670613
0.00670755
0.00670881
0.00670991
0.00671088
0.00671172
0.00671245
0.00671307
0.0067136
0.00671406
0.00671445
0.00671477
0.00671505
0.00671528
0.00671548
0.00671564
0.00671578
0.00671589
0.00671599
0.00671607
0.00671613
0.00671618
0.00671622
0.00671625
0.00671628
0.00671629
0.0067163
0.0067163
0.00671629
0.00671628
0.00671625
0.00671622
0.00671618
0.00671613
0.00671607
0.00671599
0.00671589
0.00671578
0.00671564
0.00671548
0.00671528
0.00671505
0.00671477
0.00671445
0.00671406
0.0067136
0.00671307
0.00671245
0.00671172
0.00671088
0.00670991
0.00670881
0.00670755
0.00670613
0.00670456
0.00670284
0.00670093
0.00678338
0.00678533
0.00678709
0.00678869
0.00679014
0.00679142
0.00679255
0.00679354
0.0067944
0.00679514
0.00679577
0.00679632
0.00679678
0.00679718
0.00679751
0.0067978
0.00679803
0.00679823
0.0067984
0.00679854
0.00679866
0.00679875
0.00679883
0.0067989
0.00679895
0.00679899
0.00679903
0.00679905
0.00679906
0.00679907
0.00679907
0.00679906
0.00679905
0.00679903
0.00679899
0.00679895
0.0067989
0.00679883
0.00679875
0.00679866
0.00679854
0.0067984
0.00679823
0.00679803
0.0067978
0.00679751
0.00679718
0.00679678
0.00679632
0.00679577
0.00679514
0.0067944
0.00679354
0.00679255
0.00679142
0.00679014
0.00678869
0.00678709
0.00678533
0.00678338
0.00687202
0.00687401
0.00687581
0.00687745
0.00687893
0.00688024
0.00688139
0.0068824
0.00688328
0.00688404
0.00688469
0.00688525
0.00688572
0.00688612
0.00688647
0.00688675
0.006887
0.0068872
0.00688737
0.00688752
0.00688764
0.00688774
0.00688782
0.00688788
0.00688794
0.00688798
0.00688801
0.00688804
0.00688805
0.00688806
0.00688806
0.00688805
0.00688804
0.00688801
0.00688798
0.00688794
0.00688788
0.00688782
0.00688774
0.00688764
0.00688752
0.00688737
0.0068872
0.006887
0.00688675
0.00688647
0.00688612
0.00688572
0.00688525
0.00688469
0.00688404
0.00688328
0.0068824
0.00688139
0.00688024
0.00687893
0.00687745
0.00687581
0.00687401
0.00687202
0.00696736
0.0069694
0.00697124
0.00697292
0.00697443
0.00697577
0.00697695
0.00697798
0.00697888
0.00697966
0.00698032
0.00698089
0.00698138
0.00698179
0.00698214
0.00698244
0.00698269
0.0069829
0.00698307
0.00698322
0.00698334
0.00698344
0.00698353
0.0069836
0.00698365
0.0069837
0.00698373
0.00698375
0.00698377
0.00698378
0.00698378
0.00698377
0.00698375
0.00698373
0.0069837
0.00698365
0.0069836
0.00698353
0.00698344
0.00698334
0.00698322
0.00698307
0.0069829
0.00698269
0.00698244
0.00698214
0.00698179
0.00698138
0.00698089
0.00698032
0.00697966
0.00697888
0.00697798
0.00697695
0.00697577
0.00697443
0.00697292
0.00697124
0.0069694
0.00696736
0.00707009
0.00707218
0.00707407
0.00707579
0.00707733
0.00707871
0.00707992
0.00708098
0.0070819
0.00708269
0.00708337
0.00708396
0.00708446
0.00708488
0.00708524
0.00708554
0.0070858
0.00708601
0.00708619
0.00708635
0.00708647
0.00708658
0.00708666
0.00708673
0.00708679
0.00708683
0.00708687
0.00708689
0.00708691
0.00708692
0.00708692
0.00708691
0.00708689
0.00708687
0.00708683
0.00708679
0.00708673
0.00708666
0.00708658
0.00708647
0.00708635
0.00708619
0.00708601
0.0070858
0.00708554
0.00708524
0.00708488
0.00708446
0.00708396
0.00708337
0.00708269
0.0070819
0.00708098
0.00707992
0.00707871
0.00707733
0.00707579
0.00707407
0.00707218
0.00707009
0.00718103
0.00718318
0.00718512
0.00718688
0.00718847
0.00718988
0.00719112
0.00719221
0.00719315
0.00719397
0.00719467
0.00719527
0.00719578
0.00719622
0.00719659
0.0071969
0.00719716
0.00719738
0.00719757
0.00719772
0.00719785
0.00719796
0.00719805
0.00719812
0.00719818
0.00719822
0.00719826
0.00719828
0.0071983
0.00719831
0.00719831
0.0071983
0.00719828
0.00719826
0.00719822
0.00719818
0.00719812
0.00719805
0.00719796
0.00719785
0.00719772
0.00719757
0.00719738
0.00719716
0.0071969
0.00719659
0.00719622
0.00719578
0.00719527
0.00719467
0.00719397
0.00719315
0.00719221
0.00719112
0.00718988
0.00718847
0.00718688
0.00718512
0.00718318
0.00718103
0.00730115
0.00730337
0.00730536
0.00730718
0.00730881
0.00731026
0.00731154
0.00731265
0.00731363
0.00731447
0.00731519
0.00731581
0.00731633
0.00731678
0.00731716
0.00731748
0.00731775
0.00731798
0.00731817
0.00731833
0.00731846
0.00731857
0.00731866
0.00731874
0.0073188
0.00731885
0.00731888
0.00731891
0.00731893
0.00731893
0.00731893
0.00731893
0.00731891
0.00731888
0.00731885
0.0073188
0.00731874
0.00731866
0.00731857
0.00731846
0.00731833
0.00731817
0.00731798
0.00731775
0.00731748
0.00731716
0.00731678
0.00731633
0.00731581
0.00731519
0.00731447
0.00731363
0.00731265
0.00731154
0.00731026
0.00730881
0.00730718
0.00730536
0.00730337
0.00730115
0.0074316
0.00743389
0.00743595
0.00743781
0.0074395
0.00744099
0.00744231
0.00744346
0.00744446
0.00744533
0.00744607
0.00744671
0.00744725
0.00744771
0.00744811
0.00744844
0.00744872
0.00744895
0.00744915
0.00744931
0.00744945
0.00744956
0.00744966
0.00744973
0.0074498
0.00744984
0.00744988
0.00744991
0.00744993
0.00744994
0.00744994
0.00744993
0.00744991
0.00744988
0.00744984
0.0074498
0.00744973
0.00744966
0.00744956
0.00744945
0.00744931
0.00744915
0.00744895
0.00744872
0.00744844
0.00744811
0.00744771
0.00744725
0.00744671
0.00744607
0.00744533
0.00744446
0.00744346
0.00744231
0.00744099
0.0074395
0.00743781
0.00743595
0.00743389
0.0074316
0.00757372
0.00757609
0.00757821
0.00758014
0.00758188
0.00758342
0.00758478
0.00758597
0.00758701
0.0075879
0.00758867
0.00758933
0.00758989
0.00759037
0.00759077
0.00759112
0.00759141
0.00759165
0.00759185
0.00759202
0.00759216
0.00759228
0.00759238
0.00759246
0.00759252
0.00759257
0.00759261
0.00759264
0.00759266
0.00759267
0.00759267
0.00759266
0.00759264
0.00759261
0.00759257
0.00759252
0.00759246
0.00759238
0.00759228
0.00759216
0.00759202
0.00759185
0.00759165
0.00759141
0.00759112
0.00759077
0.00759037
0.00758989
0.00758933
0.00758867
0.0075879
0.00758701
0.00758597
0.00758478
0.00758342
0.00758188
0.00758014
0.00757821
0.00757609
0.00757372
0.00772911
0.00773156
0.00773376
0.00773576
0.00773756
0.00773916
0.00774057
0.0077418
0.00774287
0.0077438
0.00774459
0.00774528
0.00774586
0.00774635
0.00774677
0.00774713
0.00774743
0.00774768
0.00774789
0.00774807
0.00774822
0.00774834
0.00774844
0.00774852
0.00774859
0.00774864
0.00774868
0.00774871
0.00774873
0.00774874
0.00774874
0.00774873
0.00774871
0.00774868
0.00774864
0.00774859
0.00774852
0.00774844
0.00774834
0.00774822
0.00774807
0.00774789
0.00774768
0.00774743
0.00774713
0.00774677
0.00774635
0.00774586
0.00774528
0.00774459
0.0077438
0.00774287
0.0077418
0.00774057
0.00773916
0.00773756
0.00773576
0.00773376
0.00773156
0.00772911
0.00789967
0.00790222
0.00790451
0.00790658
0.00790845
0.00791011
0.00791158
0.00791286
0.00791397
0.00791494
0.00791577
0.00791647
0.00791708
0.0079176
0.00791803
0.0079184
0.00791871
0.00791897
0.00791919
0.00791938
0.00791953
0.00791966
0.00791976
0.00791985
0.00791992
0.00791997
0.00792001
0.00792004
0.00792006
0.00792007
0.00792007
0.00792006
0.00792004
0.00792001
0.00791997
0.00791992
0.00791985
0.00791976
0.00791966
0.00791953
0.00791938
0.00791919
0.00791897
0.00791871
0.0079184
0.00791803
0.0079176
0.00791708
0.00791647
0.00791577
0.00791494
0.00791397
0.00791286
0.00791158
0.00791011
0.00790845
0.00790658
0.00790451
0.00790222
0.00789967
0.00808773
0.0080904
0.00809278
0.00809494
0.00809689
0.00809862
0.00810015
0.00810148
0.00810265
0.00810365
0.00810451
0.00810525
0.00810588
0.00810642
0.00810688
0.00810726
0.00810759
0.00810786
0.00810809
0.00810828
0.00810844
0.00810857
0.00810868
0.00810877
0.00810884
0.0081089
0.00810894
0.00810898
0.008109
0.00810901
0.00810901
0.008109
0.00810898
0.00810894
0.0081089
0.00810884
0.00810877
0.00810868
0.00810857
0.00810844
0.00810828
0.00810809
0.00810786
0.00810759
0.00810726
0.00810688
0.00810642
0.00810588
0.00810525
0.00810451
0.00810365
0.00810265
0.00810148
0.00810015
0.00809862
0.00809689
0.00809494
0.00809278
0.0080904
0.00808773
0.00829612
0.00829891
0.00830141
0.00830367
0.00830571
0.00830752
0.00830912
0.00831052
0.00831173
0.00831278
0.00831369
0.00831446
0.00831512
0.00831568
0.00831616
0.00831656
0.0083169
0.00831719
0.00831743
0.00831763
0.0083178
0.00831794
0.00831805
0.00831815
0.00831822
0.00831828
0.00831833
0.00831836
0.00831838
0.00831839
0.00831839
0.00831838
0.00831836
0.00831833
0.00831828
0.00831822
0.00831815
0.00831805
0.00831794
0.0083178
0.00831763
0.00831743
0.00831719
0.0083169
0.00831656
0.00831616
0.00831568
0.00831512
0.00831446
0.00831369
0.00831278
0.00831173
0.00831052
0.00830912
0.00830752
0.00830571
0.00830367
0.00830141
0.00829891
0.00829612
0.00852834
0.00853128
0.0085339
0.00853628
0.00853842
0.00854032
0.008542
0.00854347
0.00854475
0.00854585
0.0085468
0.00854762
0.00854831
0.0085489
0.00854941
0.00854983
0.00855019
0.00855049
0.00855074
0.00855095
0.00855113
0.00855128
0.0085514
0.00855149
0.00855157
0.00855164
0.00855169
0.00855172
0.00855174
0.00855175
0.00855175
0.00855174
0.00855172
0.00855169
0.00855164
0.00855157
0.00855149
0.0085514
0.00855128
0.00855113
0.00855095
0.00855074
0.00855049
0.00855019
0.00854983
0.00854941
0.0085489
0.00854831
0.00854762
0.0085468
0.00854585
0.00854475
0.00854347
0.008542
0.00854032
0.00853842
0.00853628
0.0085339
0.00853128
0.00852834
0.00878877
0.00879187
0.00879464
0.00879715
0.00879941
0.00880142
0.0088032
0.00880475
0.0088061
0.00880727
0.00880827
0.00880913
0.00880987
0.00881049
0.00881103
0.00881147
0.00881185
0.00881217
0.00881244
0.00881266
0.00881285
0.008813
0.00881313
0.00881323
0.00881332
0.00881339
0.00881344
0.00881347
0.0088135
0.00881351
0.00881351
0.0088135
0.00881347
0.00881344
0.00881339
0.00881332
0.00881323
0.00881313
0.008813
0.00881285
0.00881266
0.00881244
0.00881217
0.00881185
0.00881147
0.00881103
0.00881049
0.00880987
0.00880913
0.00880827
0.00880727
0.0088061
0.00880475
0.0088032
0.00880142
0.00879941
0.00879715
0.00879464
0.00879187
0.00878877
0.00908296
0.00908626
0.0090892
0.00909187
0.00909428
0.00909642
0.0090983
0.00909995
0.00910139
0.00910263
0.0091037
0.00910461
0.00910539
0.00910606
0.00910662
0.0091071
0.0091075
0.00910784
0.00910813
0.00910837
0.00910856
0.00910873
0.00910886
0.00910898
0.00910906
0.00910914
0.00910919
0.00910923
0.00910925
0.00910927
0.00910927
0.00910925
0.00910923
0.00910919
0.00910914
0.00910906
0.00910898
0.00910886
0.00910873
0.00910856
0.00910837
0.00910813
0.00910784
0.0091075
0.0091071
0.00910662
0.00910606
0.00910539
0.00910461
0.0091037
0.00910263
0.00910139
0.00909995
0.0090983
0.00909642
0.00909428
0.00909187
0.0090892
0.00908626
0.00908296
0.00941812
0.00942165
0.00942479
0.00942765
0.00943022
0.00943251
0.00943453
0.0094363
0.00943783
0.00943916
0.00944031
0.00944129
0.00944212
0.00944284
0.00944344
0.00944395
0.00944438
0.00944475
0.00944505
0.00944531
0.00944552
0.0094457
0.00944584
0.00944596
0.00944606
0.00944613
0.00944619
0.00944623
0.00944626
0.00944627
0.00944627
0.00944626
0.00944623
0.00944619
0.00944613
0.00944606
0.00944596
0.00944584
0.0094457
0.00944552
0.00944531
0.00944505
0.00944475
0.00944438
0.00944395
0.00944344
0.00944284
0.00944212
0.00944129
0.00944031
0.00943916
0.00943783
0.0094363
0.00943453
0.00943251
0.00943022
0.00942765
0.00942479
0.00942165
0.00941812
0.00980366
0.00980746
0.00981086
0.00981394
0.00981672
0.00981919
0.00982137
0.00982328
0.00982494
0.00982637
0.00982761
0.00982867
0.00982957
0.00983034
0.00983099
0.00983155
0.00983201
0.0098324
0.00983273
0.00983301
0.00983324
0.00983343
0.00983359
0.00983372
0.00983382
0.0098339
0.00983397
0.00983401
0.00983404
0.00983405
0.00983405
0.00983404
0.00983401
0.00983397
0.0098339
0.00983382
0.00983372
0.00983359
0.00983343
0.00983324
0.00983301
0.00983273
0.0098324
0.00983201
0.00983155
0.00983099
0.00983034
0.00982957
0.00982867
0.00982761
0.00982637
0.00982494
0.00982328
0.00982137
0.00981919
0.00981672
0.00981394
0.00981086
0.00980746
0.00980366
0.0102523
0.0102564
0.0102601
0.0102635
0.0102665
0.0102692
0.0102716
0.0102736
0.0102755
0.010277
0.0102784
0.0102795
0.0102805
0.0102813
0.0102821
0.0102827
0.0102832
0.0102836
0.010284
0.0102843
0.0102845
0.0102847
0.0102849
0.010285
0.0102851
0.0102852
0.0102853
0.0102854
0.0102854
0.0102854
0.0102854
0.0102854
0.0102854
0.0102853
0.0102852
0.0102851
0.010285
0.0102849
0.0102847
0.0102845
0.0102843
0.010284
0.0102836
0.0102832
0.0102827
0.0102821
0.0102813
0.0102805
0.0102795
0.0102784
0.010277
0.0102755
0.0102736
0.0102716
0.0102692
0.0102665
0.0102635
0.0102601
0.0102564
0.0102523
0.0107813
0.0107859
0.01079
0.0107937
0.010797
0.0108
0.0108026
0.0108049
0.0108069
0.0108086
0.0108101
0.0108114
0.0108125
0.0108134
0.0108142
0.0108149
0.0108154
0.0108159
0.0108163
0.0108166
0.0108169
0.0108172
0.0108173
0.0108175
0.0108176
0.0108177
0.0108178
0.0108179
0.0108179
0.0108179
0.0108179
0.0108179
0.0108179
0.0108178
0.0108177
0.0108176
0.0108175
0.0108173
0.0108172
0.0108169
0.0108166
0.0108163
0.0108159
0.0108154
0.0108149
0.0108142
0.0108134
0.0108125
0.0108114
0.0108101
0.0108086
0.0108069
0.0108049
0.0108026
0.0108
0.010797
0.0107937
0.01079
0.0107859
0.0107813
0.0114154
0.0114205
0.011425
0.0114292
0.0114329
0.0114363
0.0114392
0.0114418
0.011444
0.011446
0.0114476
0.0114491
0.0114503
0.0114513
0.0114522
0.011453
0.0114536
0.0114541
0.0114546
0.011455
0.0114553
0.0114555
0.0114557
0.0114559
0.0114561
0.0114562
0.0114562
0.0114563
0.0114563
0.0114564
0.0114564
0.0114563
0.0114563
0.0114562
0.0114562
0.0114561
0.0114559
0.0114557
0.0114555
0.0114553
0.011455
0.0114546
0.0114541
0.0114536
0.011453
0.0114522
0.0114513
0.0114503
0.0114491
0.0114476
0.011446
0.011444
0.0114418
0.0114392
0.0114363
0.0114329
0.0114292
0.011425
0.0114205
0.0114154
0.0121898
0.0121956
0.0122008
0.0122055
0.0122098
0.0122136
0.012217
0.0122199
0.0122225
0.0122247
0.0122266
0.0122283
0.0122297
0.0122308
0.0122319
0.0122327
0.0122334
0.012234
0.0122345
0.012235
0.0122353
0.0122356
0.0122359
0.0122361
0.0122362
0.0122364
0.0122365
0.0122365
0.0122366
0.0122366
0.0122366
0.0122366
0.0122365
0.0122365
0.0122364
0.0122362
0.0122361
0.0122359
0.0122356
0.0122353
0.012235
0.0122345
0.012234
0.0122334
0.0122327
0.0122319
0.0122308
0.0122297
0.0122283
0.0122266
0.0122247
0.0122225
0.0122199
0.012217
0.0122136
0.0122098
0.0122055
0.0122008
0.0121956
0.0121898
0.0131567
0.0131634
0.0131695
0.013175
0.01318
0.0131845
0.0131884
0.0131918
0.0131948
0.0131974
0.0131997
0.0132016
0.0132032
0.0132046
0.0132058
0.0132068
0.0132076
0.0132083
0.0132089
0.0132094
0.0132099
0.0132102
0.0132105
0.0132107
0.0132109
0.0132111
0.0132112
0.0132113
0.0132113
0.0132113
0.0132113
0.0132113
0.0132113
0.0132112
0.0132111
0.0132109
0.0132107
0.0132105
0.0132102
0.0132099
0.0132094
0.0132089
0.0132083
0.0132076
0.0132068
0.0132058
0.0132046
0.0132032
0.0132016
0.0131997
0.0131974
0.0131948
0.0131918
0.0131884
0.0131845
0.01318
0.013175
0.0131695
0.0131634
0.0131567
0.0143931
0.0144011
0.0144084
0.014415
0.014421
0.0144263
0.0144311
0.0144352
0.0144388
0.0144419
0.0144446
0.0144469
0.0144488
0.0144505
0.0144519
0.0144531
0.0144541
0.014455
0.0144557
0.0144563
0.0144568
0.0144572
0.0144576
0.0144578
0.0144581
0.0144583
0.0144584
0.0144585
0.0144586
0.0144586
0.0144586
0.0144586
0.0144585
0.0144584
0.0144583
0.0144581
0.0144578
0.0144576
0.0144572
0.0144568
0.0144563
0.0144557
0.014455
0.0144541
0.0144531
0.0144519
0.0144505
0.0144488
0.0144469
0.0144446
0.0144419
0.0144388
0.0144352
0.0144311
0.0144263
0.014421
0.014415
0.0144084
0.0144011
0.0143931
0.0160104
0.0160202
0.0160291
0.0160373
0.0160447
0.0160513
0.0160571
0.0160622
0.0160666
0.0160704
0.0160737
0.0160766
0.016079
0.0160811
0.0160828
0.0160843
0.0160855
0.0160866
0.0160875
0.0160882
0.0160888
0.0160894
0.0160898
0.0160901
0.0160904
0.0160906
0.0160908
0.0160909
0.016091
0.016091
0.016091
0.016091
0.0160909
0.0160908
0.0160906
0.0160904
0.0160901
0.0160898
0.0160894
0.0160888
0.0160882
0.0160875
0.0160866
0.0160855
0.0160843
0.0160828
0.0160811
0.016079
0.0160766
0.0160737
0.0160704
0.0160666
0.0160622
0.0160571
0.0160513
0.0160447
0.0160373
0.0160291
0.0160202
0.0160104
0.0181603
0.0181726
0.0181839
0.0181941
0.0182034
0.0182117
0.018219
0.0182254
0.018231
0.0182359
0.01824
0.0182436
0.0182467
0.0182493
0.0182515
0.0182533
0.0182549
0.0182562
0.0182574
0.0182583
0.0182591
0.0182597
0.0182603
0.0182607
0.0182611
0.0182613
0.0182616
0.0182617
0.0182618
0.0182619
0.0182619
0.0182618
0.0182617
0.0182616
0.0182613
0.0182611
0.0182607
0.0182603
0.0182597
0.0182591
0.0182583
0.0182574
0.0182562
0.0182549
0.0182533
0.0182515
0.0182493
0.0182467
0.0182436
0.01824
0.0182359
0.018231
0.0182254
0.018219
0.0182117
0.0182034
0.0181941
0.0181839
0.0181726
0.0181603
0.021027
0.0210426
0.0210569
0.02107
0.0210818
0.0210924
0.0211017
0.0211098
0.021117
0.0211231
0.0211284
0.021133
0.0211369
0.0211402
0.021143
0.0211454
0.0211474
0.0211491
0.0211505
0.0211517
0.0211527
0.0211535
0.0211542
0.0211548
0.0211552
0.0211556
0.0211559
0.0211561
0.0211562
0.0211563
0.0211563
0.0211562
0.0211561
0.0211559
0.0211556
0.0211552
0.0211548
0.0211542
0.0211535
0.0211527
0.0211517
0.0211505
0.0211491
0.0211474
0.0211454
0.021143
0.0211402
0.0211369
0.021133
0.0211284
0.0211231
0.021117
0.0211098
0.0211017
0.0210924
0.0210818
0.02107
0.0210569
0.0210426
0.021027
0.0247946
0.0248143
0.0248324
0.024849
0.024864
0.0248774
0.0248892
0.0248995
0.0249085
0.0249163
0.024923
0.0249288
0.0249338
0.024938
0.0249415
0.0249446
0.0249471
0.0249493
0.0249511
0.0249526
0.0249539
0.0249549
0.0249558
0.0249565
0.0249571
0.0249575
0.0249579
0.0249581
0.0249583
0.0249584
0.0249584
0.0249583
0.0249581
0.0249579
0.0249575
0.0249571
0.0249565
0.0249558
0.0249549
0.0249539
0.0249526
0.0249511
0.0249493
0.0249471
0.0249446
0.0249415
0.024938
0.0249338
0.0249288
0.024923
0.0249163
0.0249085
0.0248995
0.0248892
0.0248774
0.024864
0.024849
0.0248324
0.0248143
0.0247946
0.0295922
0.0296167
0.0296392
0.0296598
0.0296784
0.0296949
0.0297096
0.0297224
0.0297336
0.0297433
0.0297516
0.0297588
0.0297649
0.0297701
0.0297746
0.0297783
0.0297815
0.0297842
0.0297865
0.0297883
0.0297899
0.0297912
0.0297923
0.0297932
0.0297939
0.0297945
0.0297949
0.0297952
0.0297954
0.0297955
0.0297955
0.0297954
0.0297952
0.0297949
0.0297945
0.0297939
0.0297932
0.0297923
0.0297912
0.0297899
0.0297883
0.0297865
0.0297842
0.0297815
0.0297783
0.0297746
0.0297701
0.0297649
0.0297588
0.0297516
0.0297433
0.0297336
0.0297224
0.0297096
0.0296949
0.0296784
0.0296598
0.0296392
0.0296167
0.0295922
0.035442
0.0354716
0.0354987
0.0355235
0.0355458
0.0355658
0.0355834
0.0355988
0.0356122
0.0356239
0.0356339
0.0356426
0.0356499
0.0356562
0.0356616
0.0356661
0.03567
0.0356732
0.0356759
0.0356782
0.0356801
0.0356817
0.035683
0.035684
0.0356849
0.0356856
0.0356861
0.0356865
0.0356867
0.0356868
0.0356868
0.0356867
0.0356865
0.0356861
0.0356856
0.0356849
0.035684
0.035683
0.0356817
0.0356801
0.0356782
0.0356759
0.0356732
0.03567
0.0356661
0.0356616
0.0356562
0.0356499
0.0356426
0.0356339
0.0356239
0.0356122
0.0355988
0.0355834
0.0355658
0.0355458
0.0355235
0.0354987
0.0354716
0.035442
0.0422475
0.0422821
0.0423137
0.0423426
0.0423686
0.0423917
0.0424122
0.0424302
0.0424458
0.0424594
0.0424711
0.0424811
0.0424897
0.042497
0.0425033
0.0425086
0.042513
0.0425168
0.04252
0.0425226
0.0425248
0.0425267
0.0425282
0.0425295
0.0425305
0.0425313
0.0425319
0.0425323
0.0425326
0.0425328
0.0425328
0.0425326
0.0425323
0.0425319
0.0425313
0.0425305
0.0425295
0.0425282
0.0425267
0.0425248
0.0425226
0.04252
0.0425168
0.042513
0.0425086
0.0425033
0.042497
0.0424897
0.0424811
0.0424711
0.0424594
0.0424458
0.0424302
0.0424122
0.0423917
0.0423686
0.0423426
0.0423137
0.0422821
0.0422475
0.0498333
0.0498726
0.0499084
0.049941
0.0499704
0.0499965
0.0500196
0.0500399
0.0500576
0.0500729
0.0500861
0.0500975
0.0501072
0.0501155
0.0501226
0.0501285
0.0501336
0.0501379
0.0501415
0.0501445
0.050147
0.0501491
0.0501508
0.0501523
0.0501534
0.0501543
0.050155
0.0501555
0.0501559
0.050156
0.050156
0.0501559
0.0501555
0.050155
0.0501543
0.0501534
0.0501523
0.0501508
0.0501491
0.050147
0.0501445
0.0501415
0.0501379
0.0501336
0.0501285
0.0501226
0.0501155
0.0501072
0.0500975
0.0500861
0.0500729
0.0500576
0.0500399
0.0500196
0.0499965
0.0499704
0.049941
0.0499084
0.0498726
0.0498333
0.0580081
0.0580518
0.0580915
0.0581275
0.0581599
0.0581887
0.0582142
0.0582366
0.0582561
0.0582731
0.0582877
0.0583003
0.058311
0.0583202
0.058328
0.0583347
0.0583403
0.058345
0.058349
0.0583524
0.0583552
0.0583575
0.0583594
0.058361
0.0583623
0.0583633
0.0583641
0.0583646
0.058365
0.0583652
0.0583652
0.058365
0.0583646
0.0583641
0.0583633
0.0583623
0.058361
0.0583594
0.0583575
0.0583552
0.0583524
0.058349
0.058345
0.0583403
0.0583347
0.058328
0.0583202
0.058311
0.0583003
0.0582877
0.0582731
0.0582561
0.0582366
0.0582142
0.0581887
0.0581599
0.0581275
0.0580915
0.0580518
0.0580081
0.0666128
0.0666605
0.0667037
0.0667429
0.0667781
0.0668094
0.0668371
0.0668614
0.0668827
0.0669011
0.066917
0.0669307
0.0669424
0.0669525
0.066961
0.0669682
0.0669744
0.0669796
0.0669839
0.0669876
0.0669906
0.0669932
0.0669953
0.066997
0.0669984
0.0669995
0.0670004
0.067001
0.0670014
0.0670016
0.0670016
0.0670014
0.067001
0.0670004
0.0669995
0.0669984
0.066997
0.0669953
0.0669932
0.0669906
0.0669876
0.0669839
0.0669796
0.0669744
0.0669682
0.066961
0.0669525
0.0669424
0.0669307
0.066917
0.0669011
0.0668827
0.0668614
0.0668371
0.0668094
0.0667781
0.0667429
0.0667037
0.0666605
0.0666128
0.0755361
0.0755876
0.0756342
0.0756763
0.0757141
0.0757478
0.0757776
0.0758038
0.0758266
0.0758465
0.0758636
0.0758784
0.0758911
0.0759019
0.0759111
0.0759189
0.0759256
0.0759312
0.0759359
0.0759399
0.0759432
0.075946
0.0759483
0.0759501
0.0759517
0.0759529
0.0759538
0.0759545
0.0759549
0.0759551
0.0759551
0.0759549
0.0759545
0.0759538
0.0759529
0.0759517
0.0759501
0.0759483
0.075946
0.0759432
0.0759399
0.0759359
0.0759312
0.0759256
0.0759189