/*--------------------------------*- C++ -*----------------------------------*\
| =========                 |                                                 |
| \\      /  F ield         | foam-extend: Open Source CFD                    |
|  \\    /   O peration     | Version:     4.0                                |
|   \\  /    A nd           | Web:         http://www.foam-extend.org         |
|    \\/     M anipulation  |                                                 |
\*---------------------------------------------------------------------------*/
FoamFile
{
    version     2.0;
    format      ascii;
    class       volScalarField;
    location    "480";
    object      cMinus;
}
// * * * * * * * * * * * * * * * * * * * * * * * * * * * * * * * * * * * * * //

dimensions      [0 0 0 0 0 0 0];

internalField   nonuniform List<scalar> 
6960
(
1.19422e-16
1.19157e-16
1.19425e-16
1.19526e-16
1.19544e-16
1.19521e-16
1.19476e-16
1.19419e-16
1.19353e-16
1.19283e-16
1.19209e-16
1.19133e-16
1.19057e-16
1.18981e-16
1.18906e-16
1.18833e-16
1.18764e-16
1.18698e-16
1.18636e-16
1.18578e-16
1.18525e-16
1.18478e-16
1.18435e-16
1.18397e-16
1.18365e-16
1.18338e-16
1.18317e-16
1.18301e-16
1.1829e-16
1.18285e-16
1.18285e-16
1.1829e-16
1.18301e-16
1.18317e-16
1.18338e-16
1.18365e-16
1.18397e-16
1.18435e-16
1.18478e-16
1.18525e-16
1.18578e-16
1.18636e-16
1.18698e-16
1.18764e-16
1.18833e-16
1.18906e-16
1.18981e-16
1.19057e-16
1.19133e-16
1.19209e-16
1.19283e-16
1.19353e-16
1.19419e-16
1.19476e-16
1.19521e-16
1.19544e-16
1.19526e-16
1.19425e-16
1.19157e-16
1.19422e-16
1.94906e-16
1.94574e-16
1.94984e-16
1.95139e-16
1.95165e-16
1.95129e-16
1.95059e-16
1.94971e-16
1.9487e-16
1.94761e-16
1.94647e-16
1.94529e-16
1.94411e-16
1.94293e-16
1.94178e-16
1.94065e-16
1.93958e-16
1.93856e-16
1.9376e-16
1.93671e-16
1.93589e-16
1.93515e-16
1.93449e-16
1.93391e-16
1.93341e-16
1.933e-16
1.93267e-16
1.93242e-16
1.93225e-16
1.93217e-16
1.93217e-16
1.93225e-16
1.93242e-16
1.93267e-16
1.933e-16
1.93341e-16
1.93391e-16
1.93449e-16
1.93515e-16
1.93589e-16
1.93671e-16
1.9376e-16
1.93856e-16
1.93958e-16
1.94065e-16
1.94178e-16
1.94293e-16
1.94411e-16
1.94529e-16
1.94647e-16
1.94761e-16
1.9487e-16
1.94971e-16
1.95059e-16
1.95129e-16
1.95165e-16
1.95139e-16
1.94984e-16
1.94574e-16
1.94906e-16
6.58604e-16
6.57752e-16
6.59035e-16
6.59513e-16
6.59592e-16
6.59474e-16
6.59254e-16
6.58974e-16
6.58655e-16
6.58311e-16
6.5795e-16
6.5758e-16
6.57206e-16
6.56834e-16
6.56468e-16
6.56113e-16
6.55773e-16
6.5545e-16
6.55147e-16
6.54866e-16
6.54608e-16
6.54374e-16
6.54165e-16
6.53982e-16
6.53825e-16
6.53694e-16
6.53589e-16
6.5351e-16
6.53458e-16
6.53431e-16
6.53431e-16
6.53458e-16
6.5351e-16
6.53589e-16
6.53694e-16
6.53825e-16
6.53982e-16
6.54165e-16
6.54374e-16
6.54608e-16
6.54866e-16
6.55147e-16
6.5545e-16
6.55773e-16
6.56113e-16
6.56468e-16
6.56834e-16
6.57206e-16
6.5758e-16
6.5795e-16
6.58311e-16
6.58655e-16
6.58974e-16
6.59254e-16
6.59474e-16
6.59592e-16
6.59513e-16
6.59035e-16
6.57752e-16
6.58604e-16
2.53082e-15
2.52863e-15
2.53307e-15
2.53472e-15
2.53499e-15
2.53459e-15
2.53383e-15
2.53286e-15
2.53177e-15
2.53059e-15
2.52935e-15
2.52807e-15
2.52678e-15
2.5255e-15
2.52424e-15
2.52302e-15
2.52185e-15
2.52074e-15
2.5197e-15
2.51873e-15
2.51784e-15
2.51703e-15
2.51631e-15
2.51568e-15
2.51514e-15
2.51469e-15
2.51433e-15
2.51406e-15
2.51388e-15
2.51379e-15
2.51379e-15
2.51388e-15
2.51406e-15
2.51433e-15
2.51469e-15
2.51514e-15
2.51568e-15
2.51631e-15
2.51703e-15
2.51784e-15
2.51873e-15
2.5197e-15
2.52074e-15
2.52185e-15
2.52302e-15
2.52424e-15
2.5255e-15
2.52678e-15
2.52807e-15
2.52935e-15
2.53059e-15
2.53177e-15
2.53286e-15
2.53383e-15
2.53459e-15
2.53499e-15
2.53472e-15
2.53307e-15
2.52863e-15
2.53082e-15
1.05838e-14
1.0581e-14
1.05971e-14
1.06031e-14
1.06042e-14
1.06029e-14
1.06004e-14
1.05971e-14
1.05934e-14
1.05893e-14
1.05851e-14
1.05807e-14
1.05763e-14
1.05719e-14
1.05676e-14
1.05634e-14
1.05594e-14
1.05556e-14
1.0552e-14
1.05487e-14
1.05457e-14
1.05429e-14
1.05404e-14
1.05383e-14
1.05364e-14
1.05349e-14
1.05336e-14
1.05327e-14
1.05321e-14
1.05318e-14
1.05318e-14
1.05321e-14
1.05327e-14
1.05336e-14
1.05349e-14
1.05364e-14
1.05383e-14
1.05404e-14
1.05429e-14
1.05457e-14
1.05487e-14
1.0552e-14
1.05556e-14
1.05594e-14
1.05634e-14
1.05676e-14
1.05719e-14
1.05763e-14
1.05807e-14
1.05851e-14
1.05893e-14
1.05934e-14
1.05971e-14
1.06004e-14
1.06029e-14
1.06042e-14
1.06031e-14
1.05971e-14
1.0581e-14
1.05838e-14
4.9891e-14
4.9918e-14
4.99842e-14
5.00098e-14
5.0016e-14
5.00128e-14
5.0005e-14
4.99944e-14
4.99822e-14
4.99689e-14
4.99549e-14
4.99404e-14
4.99258e-14
4.99112e-14
4.98968e-14
4.98829e-14
4.98695e-14
4.98568e-14
4.98449e-14
4.98338e-14
4.98236e-14
4.98144e-14
4.98062e-14
4.9799e-14
4.97928e-14
4.97876e-14
4.97835e-14
4.97804e-14
4.97783e-14
4.97773e-14
4.97773e-14
4.97783e-14
4.97804e-14
4.97835e-14
4.97876e-14
4.97928e-14
4.9799e-14
4.98062e-14
4.98144e-14
4.98236e-14
4.98338e-14
4.98449e-14
4.98568e-14
4.98695e-14
4.98829e-14
4.98968e-14
4.99112e-14
4.99258e-14
4.99404e-14
4.99549e-14
4.99689e-14
4.99822e-14
4.99944e-14
5.0005e-14
5.00128e-14
5.0016e-14
5.00098e-14
4.99842e-14
4.9918e-14
4.9891e-14
2.71978e-13
2.72392e-13
2.72737e-13
2.72881e-13
2.7293e-13
2.72934e-13
2.72917e-13
2.72887e-13
2.72852e-13
2.72812e-13
2.72769e-13
2.72725e-13
2.7268e-13
2.72635e-13
2.7259e-13
2.72547e-13
2.72505e-13
2.72465e-13
2.72428e-13
2.72394e-13
2.72362e-13
2.72333e-13
2.72307e-13
2.72285e-13
2.72266e-13
2.72249e-13
2.72237e-13
2.72227e-13
2.7222e-13
2.72217e-13
2.72217e-13
2.7222e-13
2.72227e-13
2.72237e-13
2.72249e-13
2.72266e-13
2.72285e-13
2.72307e-13
2.72333e-13
2.72362e-13
2.72394e-13
2.72428e-13
2.72465e-13
2.72505e-13
2.72547e-13
2.7259e-13
2.72635e-13
2.7268e-13
2.72725e-13
2.72769e-13
2.72812e-13
2.72852e-13
2.72887e-13
2.72917e-13
2.72934e-13
2.7293e-13
2.72881e-13
2.72737e-13
2.72392e-13
2.71978e-13
1.6978e-12
1.7021e-12
1.70448e-12
1.70555e-12
1.706e-12
1.70616e-12
1.70619e-12
1.70616e-12
1.70609e-12
1.706e-12
1.7059e-12
1.7058e-12
1.70569e-12
1.70558e-12
1.70546e-12
1.70535e-12
1.70525e-12
1.70515e-12
1.70505e-12
1.70496e-12
1.70488e-12
1.70481e-12
1.70474e-12
1.70468e-12
1.70463e-12
1.70459e-12
1.70456e-12
1.70454e-12
1.70452e-12
1.70451e-12
1.70451e-12
1.70452e-12
1.70454e-12
1.70456e-12
1.70459e-12
1.70463e-12
1.70468e-12
1.70474e-12
1.70481e-12
1.70488e-12
1.70496e-12
1.70505e-12
1.70515e-12
1.70525e-12
1.70535e-12
1.70546e-12
1.70558e-12
1.70569e-12
1.7058e-12
1.7059e-12
1.706e-12
1.70609e-12
1.70616e-12
1.70619e-12
1.70616e-12
1.706e-12
1.70555e-12
1.70448e-12
1.7021e-12
1.6978e-12
1.16641e-11
1.17043e-11
1.17239e-11
1.17331e-11
1.17373e-11
1.17392e-11
1.17401e-11
1.17406e-11
1.17408e-11
1.17409e-11
1.1741e-11
1.1741e-11
1.1741e-11
1.17409e-11
1.17409e-11
1.17408e-11
1.17407e-11
1.17407e-11
1.17406e-11
1.17405e-11
1.17405e-11
1.17404e-11
1.17404e-11
1.17403e-11
1.17403e-11
1.17403e-11
1.17402e-11
1.17402e-11
1.17402e-11
1.17402e-11
1.17402e-11
1.17402e-11
1.17402e-11
1.17402e-11
1.17403e-11
1.17403e-11
1.17403e-11
1.17404e-11
1.17404e-11
1.17405e-11
1.17405e-11
1.17406e-11
1.17407e-11
1.17407e-11
1.17408e-11
1.17409e-11
1.17409e-11
1.1741e-11
1.1741e-11
1.1741e-11
1.17409e-11
1.17408e-11
1.17406e-11
1.17401e-11
1.17392e-11
1.17373e-11
1.17331e-11
1.17239e-11
1.17043e-11
1.16641e-11
8.42817e-11
8.46387e-11
8.48086e-11
8.48899e-11
8.49284e-11
8.49472e-11
8.49572e-11
8.49633e-11
8.49677e-11
8.49713e-11
8.49744e-11
8.49773e-11
8.498e-11
8.49824e-11
8.49848e-11
8.49869e-11
8.49889e-11
8.49908e-11
8.49926e-11
8.49942e-11
8.49957e-11
8.4997e-11
8.49982e-11
8.49992e-11
8.50001e-11
8.50009e-11
8.50015e-11
8.5002e-11
8.50023e-11
8.50024e-11
8.50024e-11
8.50023e-11
8.5002e-11
8.50015e-11
8.50009e-11
8.50001e-11
8.49992e-11
8.49982e-11
8.4997e-11
8.49957e-11
8.49942e-11
8.49926e-11
8.49908e-11
8.49889e-11
8.49869e-11
8.49848e-11
8.49824e-11
8.498e-11
8.49773e-11
8.49744e-11
8.49713e-11
8.49677e-11
8.49633e-11
8.49572e-11
8.49472e-11
8.49284e-11
8.48899e-11
8.48086e-11
8.46387e-11
8.42817e-11
6.17518e-10
6.20544e-10
6.21997e-10
6.22698e-10
6.23032e-10
6.23197e-10
6.23287e-10
6.23345e-10
6.23388e-10
6.23424e-10
6.23457e-10
6.23488e-10
6.23517e-10
6.23545e-10
6.23571e-10
6.23596e-10
6.23619e-10
6.23641e-10
6.23662e-10
6.23681e-10
6.23698e-10
6.23713e-10
6.23727e-10
6.2374e-10
6.2375e-10
6.23759e-10
6.23766e-10
6.23772e-10
6.23775e-10
6.23777e-10
6.23777e-10
6.23775e-10
6.23772e-10
6.23766e-10
6.23759e-10
6.2375e-10
6.2374e-10
6.23727e-10
6.23713e-10
6.23698e-10
6.23681e-10
6.23662e-10
6.23641e-10
6.23619e-10
6.23596e-10
6.23571e-10
6.23545e-10
6.23517e-10
6.23488e-10
6.23457e-10
6.23424e-10
6.23388e-10
6.23345e-10
6.23287e-10
6.23197e-10
6.23032e-10
6.22698e-10
6.21997e-10
6.20544e-10
6.17518e-10
4.46557e-09
4.48992e-09
4.50179e-09
4.50753e-09
4.51027e-09
4.51162e-09
4.51236e-09
4.51283e-09
4.51317e-09
4.51347e-09
4.51374e-09
4.51399e-09
4.51423e-09
4.51446e-09
4.51468e-09
4.51488e-09
4.51508e-09
4.51526e-09
4.51543e-09
4.51559e-09
4.51573e-09
4.51586e-09
4.51598e-09
4.51608e-09
4.51617e-09
4.51624e-09
4.5163e-09
4.51635e-09
4.51637e-09
4.51639e-09
4.51639e-09
4.51637e-09
4.51635e-09
4.5163e-09
4.51624e-09
4.51617e-09
4.51608e-09
4.51598e-09
4.51586e-09
4.51573e-09
4.51559e-09
4.51543e-09
4.51526e-09
4.51508e-09
4.51488e-09
4.51468e-09
4.51446e-09
4.51423e-09
4.51399e-09
4.51374e-09
4.51347e-09
4.51317e-09
4.51283e-09
4.51236e-09
4.51162e-09
4.51027e-09
4.50753e-09
4.50179e-09
4.48992e-09
4.46557e-09
3.12076e-08
3.13916e-08
3.14825e-08
3.15265e-08
3.15475e-08
3.15578e-08
3.15633e-08
3.15668e-08
3.15693e-08
3.15715e-08
3.15734e-08
3.15752e-08
3.1577e-08
3.15786e-08
3.15802e-08
3.15817e-08
3.15831e-08
3.15844e-08
3.15856e-08
3.15868e-08
3.15878e-08
3.15888e-08
3.15896e-08
3.15903e-08
3.1591e-08
3.15915e-08
3.15919e-08
3.15922e-08
3.15925e-08
3.15926e-08
3.15926e-08
3.15925e-08
3.15922e-08
3.15919e-08
3.15915e-08
3.1591e-08
3.15903e-08
3.15896e-08
3.15888e-08
3.15878e-08
3.15868e-08
3.15856e-08
3.15844e-08
3.15831e-08
3.15817e-08
3.15802e-08
3.15786e-08
3.1577e-08
3.15752e-08
3.15734e-08
3.15715e-08
3.15693e-08
3.15668e-08
3.15633e-08
3.15578e-08
3.15475e-08
3.15265e-08
3.14825e-08
3.13916e-08
3.12076e-08
2.06955e-07
2.08245e-07
2.08888e-07
2.092e-07
2.09347e-07
2.0942e-07
2.09458e-07
2.09482e-07
2.09499e-07
2.09513e-07
2.09526e-07
2.09538e-07
2.09549e-07
2.0956e-07
2.0957e-07
2.0958e-07
2.09589e-07
2.09598e-07
2.09606e-07
2.09614e-07
2.0962e-07
2.09626e-07
2.09632e-07
2.09637e-07
2.09641e-07
2.09644e-07
2.09647e-07
2.09649e-07
2.09651e-07
2.09651e-07
2.09651e-07
2.09651e-07
2.09649e-07
2.09647e-07
2.09644e-07
2.09641e-07
2.09637e-07
2.09632e-07
2.09626e-07
2.0962e-07
2.09614e-07
2.09606e-07
2.09598e-07
2.09589e-07
2.0958e-07
2.0957e-07
2.0956e-07
2.09549e-07
2.09538e-07
2.09526e-07
2.09513e-07
2.09499e-07
2.09482e-07
2.09458e-07
2.0942e-07
2.09347e-07
2.092e-07
2.08888e-07
2.08245e-07
2.06955e-07
1.28032e-06
1.28857e-06
1.29272e-06
1.29473e-06
1.29568e-06
1.29614e-06
1.29638e-06
1.29653e-06
1.29664e-06
1.29672e-06
1.2968e-06
1.29687e-06
1.29694e-06
1.297e-06
1.29706e-06
1.29712e-06
1.29718e-06
1.29723e-06
1.29728e-06
1.29732e-06
1.29736e-06
1.2974e-06
1.29743e-06
1.29746e-06
1.29748e-06
1.2975e-06
1.29752e-06
1.29753e-06
1.29754e-06
1.29754e-06
1.29754e-06
1.29754e-06
1.29753e-06
1.29752e-06
1.2975e-06
1.29748e-06
1.29746e-06
1.29743e-06
1.2974e-06
1.29736e-06
1.29732e-06
1.29728e-06
1.29723e-06
1.29718e-06
1.29712e-06
1.29706e-06
1.297e-06
1.29694e-06
1.29687e-06
1.2968e-06
1.29672e-06
1.29664e-06
1.29653e-06
1.29638e-06
1.29614e-06
1.29568e-06
1.29473e-06
1.29272e-06
1.28857e-06
1.28032e-06
7.26712e-06
7.31463e-06
7.33861e-06
7.3502e-06
7.35567e-06
7.35832e-06
7.3597e-06
7.36053e-06
7.36111e-06
7.36158e-06
7.362e-06
7.36238e-06
7.36275e-06
7.36309e-06
7.36342e-06
7.36373e-06
7.36402e-06
7.3643e-06
7.36455e-06
7.36479e-06
7.365e-06
7.3652e-06
7.36537e-06
7.36553e-06
7.36566e-06
7.36577e-06
7.36585e-06
7.36592e-06
7.36596e-06
7.36599e-06
7.36599e-06
7.36596e-06
7.36592e-06
7.36585e-06
7.36577e-06
7.36566e-06
7.36553e-06
7.36537e-06
7.3652e-06
7.365e-06
7.36479e-06
7.36455e-06
7.3643e-06
7.36402e-06
7.36373e-06
7.36342e-06
7.36309e-06
7.36275e-06
7.36238e-06
7.362e-06
7.36158e-06
7.36111e-06
7.36053e-06
7.3597e-06
7.35832e-06
7.35567e-06
7.3502e-06
7.33861e-06
7.31463e-06
7.26712e-06
3.72228e-05
3.74647e-05
3.75871e-05
3.76461e-05
3.7674e-05
3.76874e-05
3.76944e-05
3.76985e-05
3.77013e-05
3.77036e-05
3.77056e-05
3.77074e-05
3.77092e-05
3.77108e-05
3.77124e-05
3.77138e-05
3.77152e-05
3.77165e-05
3.77177e-05
3.77188e-05
3.77199e-05
3.77208e-05
3.77216e-05
3.77223e-05
3.7723e-05
3.77235e-05
3.77239e-05
3.77242e-05
3.77244e-05
3.77245e-05
3.77245e-05
3.77244e-05
3.77242e-05
3.77239e-05
3.77235e-05
3.7723e-05
3.77223e-05
3.77216e-05
3.77208e-05
3.77199e-05
3.77188e-05
3.77177e-05
3.77165e-05
3.77152e-05
3.77138e-05
3.77124e-05
3.77108e-05
3.77092e-05
3.77074e-05
3.77056e-05
3.77036e-05
3.77013e-05
3.76985e-05
3.76944e-05
3.76874e-05
3.7674e-05
3.76461e-05
3.75871e-05
3.74647e-05
3.72228e-05
0.000169194
0.000170264
0.000170806
0.000171067
0.00017119
0.000171249
0.000171279
0.000171297
0.000171309
0.000171318
0.000171327
0.000171334
0.000171342
0.000171348
0.000171355
0.000171361
0.000171367
0.000171372
0.000171377
0.000171382
0.000171386
0.00017139
0.000171393
0.000171396
0.000171399
0.000171401
0.000171403
0.000171404
0.000171405
0.000171405
0.000171405
0.000171405
0.000171404
0.000171403
0.000171401
0.000171399
0.000171396
0.000171393
0.00017139
0.000171386
0.000171382
0.000171377
0.000171372
0.000171367
0.000171361
0.000171355
0.000171348
0.000171342
0.000171334
0.000171327
0.000171318
0.000171309
0.000171297
0.000171279
0.000171249
0.00017119
0.000171067
0.000170806
0.000170264
0.000169194
0.000670946
0.000674976
0.000677012
0.000677993
0.000678454
0.000678675
0.000678788
0.000678853
0.000678897
0.000678931
0.000678961
0.000678989
0.000679014
0.000679038
0.000679061
0.000679083
0.000679103
0.000679122
0.00067914
0.000679156
0.000679171
0.000679184
0.000679196
0.000679207
0.000679216
0.000679224
0.00067923
0.000679234
0.000679237
0.000679239
0.000679239
0.000679237
0.000679234
0.00067923
0.000679224
0.000679216
0.000679207
0.000679196
0.000679184
0.000679171
0.000679156
0.00067914
0.000679122
0.000679103
0.000679083
0.000679061
0.000679038
0.000679014
0.000678989
0.000678961
0.000678931
0.000678897
0.000678853
0.000678788
0.000678675
0.000678454
0.000677993
0.000677012
0.000674976
0.000670946
0.00228207
0.00229472
0.0023011
0.00230417
0.00230561
0.0023063
0.00230665
0.00230685
0.00230699
0.00230709
0.00230718
0.00230726
0.00230734
0.00230741
0.00230747
0.00230754
0.0023076
0.00230765
0.00230771
0.00230775
0.0023078
0.00230784
0.00230787
0.0023079
0.00230793
0.00230795
0.00230797
0.00230798
0.00230799
0.002308
0.002308
0.00230799
0.00230798
0.00230797
0.00230795
0.00230793
0.0023079
0.00230787
0.00230784
0.0023078
0.00230775
0.00230771
0.00230765
0.0023076
0.00230754
0.00230747
0.00230741
0.00230734
0.00230726
0.00230718
0.00230709
0.00230699
0.00230685
0.00230665
0.0023063
0.00230561
0.00230417
0.0023011
0.00229472
0.00228207
0.00655679
0.00658928
0.0066056
0.00661344
0.00661713
0.00661888
0.00661977
0.00662027
0.0066206
0.00662086
0.00662108
0.00662128
0.00662146
0.00662163
0.0066218
0.00662195
0.00662209
0.00662223
0.00662235
0.00662247
0.00662258
0.00662267
0.00662276
0.00662283
0.0066229
0.00662295
0.00662299
0.00662303
0.00662305
0.00662306
0.00662306
0.00662305
0.00662303
0.00662299
0.00662295
0.0066229
0.00662283
0.00662276
0.00662267
0.00662258
0.00662247
0.00662235
0.00662223
0.00662209
0.00662195
0.0066218
0.00662163
0.00662146
0.00662128
0.00662108
0.00662086
0.0066206
0.00662027
0.00661977
0.00661888
0.00661713
0.00661344
0.0066056
0.00658928
0.00655679
0.015763
0.0158303
0.015864
0.0158802
0.0158878
0.0158914
0.0158932
0.0158942
0.0158949
0.0158954
0.0158958
0.0158962
0.0158966
0.0158969
0.0158972
0.0158975
0.0158978
0.0158981
0.0158983
0.0158985
0.0158988
0.0158989
0.0158991
0.0158993
0.0158994
0.0158995
0.0158996
0.0158996
0.0158997
0.0158997
0.0158997
0.0158997
0.0158996
0.0158996
0.0158995
0.0158994
0.0158993
0.0158991
0.0158989
0.0158988
0.0158985
0.0158983
0.0158981
0.0158978
0.0158975
0.0158972
0.0158969
0.0158966
0.0158962
0.0158958
0.0158954
0.0158949
0.0158942
0.0158932
0.0158914
0.0158878
0.0158802
0.015864
0.0158303
0.015763
0.0317583
0.0318716
0.031928
0.0319551
0.0319678
0.0319739
0.0319769
0.0319786
0.0319797
0.0319805
0.0319812
0.0319818
0.0319824
0.0319829
0.0319834
0.0319839
0.0319843
0.0319847
0.0319851
0.0319855
0.0319858
0.0319861
0.0319863
0.0319866
0.0319868
0.0319869
0.0319871
0.0319872
0.0319872
0.0319873
0.0319873
0.0319872
0.0319872
0.0319871
0.0319869
0.0319868
0.0319866
0.0319863
0.0319861
0.0319858
0.0319855
0.0319851
0.0319847
0.0319843
0.0319839
0.0319834
0.0319829
0.0319824
0.0319818
0.0319812
0.0319805
0.0319797
0.0319786
0.0319769
0.0319739
0.0319678
0.0319551
0.031928
0.0318716
0.0317583
0.0544921
0.0546512
0.0547301
0.054768
0.0547858
0.0547943
0.0547985
0.0548008
0.0548023
0.0548034
0.0548043
0.0548051
0.0548059
0.0548066
0.0548072
0.0548079
0.0548084
0.054809
0.0548095
0.0548099
0.0548104
0.0548107
0.0548111
0.0548114
0.0548116
0.0548119
0.054812
0.0548122
0.0548122
0.0548123
0.0548123
0.0548122
0.0548122
0.054812
0.0548119
0.0548116
0.0548114
0.0548111
0.0548107
0.0548104
0.0548099
0.0548095
0.054809
0.0548084
0.0548079
0.0548072
0.0548066
0.0548059
0.0548051
0.0548043
0.0548034
0.0548023
0.0548008
0.0547985
0.0547943
0.0547858
0.054768
0.0547301
0.0546512
0.0544921
0.0819025
0.0820982
0.082195
0.0822415
0.0822634
0.0822738
0.082279
0.0822818
0.0822836
0.0822849
0.0822859
0.0822869
0.0822877
0.0822885
0.0822892
0.08229
0.0822906
0.0822912
0.0822918
0.0822923
0.0822928
0.0822932
0.0822936
0.082294
0.0822943
0.0822945
0.0822947
0.0822948
0.0822949
0.082295
0.082295
0.0822949
0.0822948
0.0822947
0.0822945
0.0822943
0.082294
0.0822936
0.0822932
0.0822928
0.0822923
0.0822918
0.0822912
0.0822906
0.08229
0.0822892
0.0822885
0.0822877
0.0822869
0.0822859
0.0822849
0.0822836
0.0822818
0.082279
0.0822738
0.0822634
0.0822415
0.082195
0.0820982
0.0819025
0.111417
0.111639
0.111748
0.111801
0.111826
0.111838
0.111844
0.111847
0.111849
0.11185
0.111851
0.111852
0.111853
0.111854
0.111855
0.111856
0.111856
0.111857
0.111858
0.111858
0.111859
0.111859
0.111859
0.11186
0.11186
0.11186
0.111861
0.111861
0.111861
0.111861
0.111861
0.111861
0.111861
0.111861
0.11186
0.11186
0.11186
0.111859
0.111859
0.111859
0.111858
0.111858
0.111857
0.111856
0.111856
0.111855
0.111854
0.111853
0.111852
0.111851
0.11185
0.111849
0.111847
0.111844
0.111838
0.111826
0.111801
0.111748
0.111639
0.111417
0.14128
0.141523
0.141642
0.1417
0.141727
0.14174
0.141746
0.14175
0.141752
0.141753
0.141755
0.141756
0.141757
0.141757
0.141758
0.141759
0.14176
0.14176
0.141761
0.141761
0.141762
0.141762
0.141763
0.141763
0.141764
0.141764
0.141764
0.141764
0.141764
0.141764
0.141764
0.141764
0.141764
0.141764
0.141764
0.141764
0.141763
0.141763
0.141762
0.141762
0.141761
0.141761
0.14176
0.14176
0.141759
0.141758
0.141757
0.141757
0.141756
0.141755
0.141753
0.141752
0.14175
0.141746
0.14174
0.141727
0.1417
0.141642
0.141523
0.14128
0.170744
0.171003
0.171131
0.171194
0.171223
0.171237
0.171244
0.171248
0.17125
0.171252
0.171253
0.171254
0.171255
0.171256
0.171256
0.171257
0.171258
0.171258
0.171259
0.17126
0.17126
0.171261
0.171261
0.171261
0.171262
0.171262
0.171262
0.171262
0.171262
0.171262
0.171262
0.171262
0.171262
0.171262
0.171262
0.171262
0.171261
0.171261
0.171261
0.17126
0.17126
0.171259
0.171258
0.171258
0.171257
0.171256
0.171256
0.171255
0.171254
0.171253
0.171252
0.17125
0.171248
0.171244
0.171237
0.171223
0.171194
0.171131
0.171003
0.170744
0.199633
0.199908
0.200045
0.200111
0.200143
0.200158
0.200166
0.20017
0.200172
0.200174
0.200175
0.200176
0.200177
0.200178
0.200178
0.200179
0.20018
0.20018
0.200181
0.200182
0.200182
0.200183
0.200183
0.200183
0.200184
0.200184
0.200184
0.200184
0.200184
0.200184
0.200184
0.200184
0.200184
0.200184
0.200184
0.200184
0.200183
0.200183
0.200183
0.200182
0.200182
0.200181
0.20018
0.20018
0.200179
0.200178
0.200178
0.200177
0.200176
0.200175
0.200174
0.200172
0.20017
0.200166
0.200158
0.200143
0.200111
0.200045
0.199908
0.199633
0.227967
0.228257
0.228402
0.228473
0.228507
0.228523
0.228531
0.228535
0.228538
0.228539
0.228541
0.228542
0.228543
0.228543
0.228544
0.228545
0.228546
0.228546
0.228547
0.228547
0.228548
0.228548
0.228549
0.228549
0.228549
0.22855
0.22855
0.22855
0.22855
0.22855
0.22855
0.22855
0.22855
0.22855
0.22855
0.228549
0.228549
0.228549
0.228548
0.228548
0.228547
0.228547
0.228546
0.228546
0.228545
0.228544
0.228543
0.228543
0.228542
0.228541
0.228539
0.228538
0.228535
0.228531
0.228523
0.228507
0.228473
0.228402
0.228257
0.227967
0.255785
0.256089
0.256242
0.256317
0.256354
0.256371
0.25638
0.256384
0.256387
0.256389
0.25639
0.256391
0.256392
0.256393
0.256394
0.256394
0.256395
0.256396
0.256396
0.256397
0.256397
0.256398
0.256398
0.256398
0.256399
0.256399
0.256399
0.256399
0.256399
0.256399
0.256399
0.256399
0.256399
0.256399
0.256399
0.256399
0.256398
0.256398
0.256398
0.256397
0.256397
0.256396
0.256396
0.256395
0.256394
0.256394
0.256393
0.256392
0.256391
0.25639
0.256389
0.256387
0.256384
0.25638
0.256371
0.256354
0.256317
0.256242
0.256089
0.255785
0.283107
0.283423
0.283584
0.283664
0.283703
0.283721
0.283731
0.283736
0.283738
0.28374
0.283741
0.283743
0.283743
0.283744
0.283745
0.283746
0.283746
0.283747
0.283748
0.283748
0.283749
0.283749
0.283749
0.28375
0.28375
0.28375
0.28375
0.283751
0.283751
0.283751
0.283751
0.283751
0.283751
0.28375
0.28375
0.28375
0.28375
0.283749
0.283749
0.283749
0.283748
0.283748
0.283747
0.283746
0.283746
0.283745
0.283744
0.283743
0.283743
0.283741
0.28374
0.283738
0.283736
0.283731
0.283721
0.283703
0.283664
0.283584
0.283423
0.283107
0.309931
0.310259
0.310427
0.310512
0.310553
0.310573
0.310583
0.310588
0.310591
0.310593
0.310594
0.310595
0.310596
0.310597
0.310598
0.310598
0.310599
0.3106
0.3106
0.310601
0.310601
0.310602
0.310602
0.310602
0.310603
0.310603
0.310603
0.310603
0.310603
0.310603
0.310603
0.310603
0.310603
0.310603
0.310603
0.310603
0.310602
0.310602
0.310602
0.310601
0.310601
0.3106
0.3106
0.310599
0.310598
0.310598
0.310597
0.310596
0.310595
0.310594
0.310593
0.310591
0.310588
0.310583
0.310573
0.310553
0.310512
0.310427
0.310259
0.309931
0.336246
0.336585
0.336761
0.336849
0.336893
0.336914
0.336925
0.336931
0.336934
0.336936
0.336937
0.336938
0.336939
0.33694
0.336941
0.336941
0.336942
0.336942
0.336943
0.336943
0.336944
0.336944
0.336945
0.336945
0.336945
0.336946
0.336946
0.336946
0.336946
0.336946
0.336946
0.336946
0.336946
0.336946
0.336946
0.336945
0.336945
0.336945
0.336944
0.336944
0.336943
0.336943
0.336942
0.336942
0.336941
0.336941
0.33694
0.336939
0.336938
0.336937
0.336936
0.336934
0.336931
0.336925
0.336914
0.336893
0.336849
0.336761
0.336585
0.336246
0.362038
0.362387
0.362569
0.362662
0.362708
0.362731
0.362742
0.362748
0.362752
0.362754
0.362755
0.362756
0.362757
0.362758
0.362759
0.362759
0.36276
0.36276
0.362761
0.362761
0.362762
0.362762
0.362763
0.362763
0.362763
0.362763
0.362764
0.362764
0.362764
0.362764
0.362764
0.362764
0.362764
0.362764
0.362763
0.362763
0.362763
0.362763
0.362762
0.362762
0.362761
0.362761
0.36276
0.36276
0.362759
0.362759
0.362758
0.362757
0.362756
0.362755
0.362754
0.362752
0.362748
0.362742
0.362731
0.362708
0.362662
0.362569
0.362387
0.362038
0.387291
0.387647
0.387837
0.387934
0.387982
0.388007
0.388019
0.388025
0.388028
0.388031
0.388032
0.388033
0.388034
0.388035
0.388035
0.388036
0.388037
0.388037
0.388038
0.388038
0.388039
0.388039
0.388039
0.38804
0.38804
0.38804
0.38804
0.388041
0.388041
0.388041
0.388041
0.388041
0.388041
0.38804
0.38804
0.38804
0.38804
0.388039
0.388039
0.388039
0.388038
0.388038
0.388037
0.388037
0.388036
0.388035
0.388035
0.388034
0.388033
0.388032
0.388031
0.388028
0.388025
0.388019
0.388007
0.387982
0.387934
0.387837
0.387647
0.387291
0.411989
0.412352
0.412547
0.412649
0.4127
0.412725
0.412738
0.412745
0.412749
0.412751
0.412752
0.412753
0.412754
0.412755
0.412756
0.412756
0.412757
0.412757
0.412758
0.412758
0.412759
0.412759
0.41276
0.41276
0.41276
0.41276
0.41276
0.412761
0.412761
0.412761
0.412761
0.412761
0.412761
0.41276
0.41276
0.41276
0.41276
0.41276
0.412759
0.412759
0.412758
0.412758
0.412757
0.412757
0.412756
0.412756
0.412755
0.412754
0.412753
0.412752
0.412751
0.412749
0.412745
0.412738
0.412725
0.4127
0.412649
0.412547
0.412352
0.411989
0.436117
0.436486
0.436687
0.436792
0.436846
0.436873
0.436887
0.436894
0.436898
0.4369
0.436902
0.436903
0.436904
0.436904
0.436905
0.436906
0.436906
0.436907
0.436907
0.436908
0.436908
0.436908
0.436909
0.436909
0.436909
0.436909
0.43691
0.43691
0.43691
0.43691
0.43691
0.43691
0.43691
0.43691
0.436909
0.436909
0.436909
0.436909
0.436908
0.436908
0.436908
0.436907
0.436907
0.436906
0.436906
0.436905
0.436904
0.436904
0.436903
0.436902
0.4369
0.436898
0.436894
0.436887
0.436873
0.436846
0.436792
0.436687
0.436486
0.436117
0.459663
0.460037
0.460243
0.460352
0.460408
0.460437
0.460451
0.460459
0.460463
0.460466
0.460467
0.460468
0.460469
0.46047
0.46047
0.460471
0.460472
0.460472
0.460473
0.460473
0.460473
0.460474
0.460474
0.460474
0.460475
0.460475
0.460475
0.460475
0.460475
0.460475
0.460475
0.460475
0.460475
0.460475
0.460475
0.460475
0.460474
0.460474
0.460474
0.460473
0.460473
0.460473
0.460472
0.460472
0.460471
0.46047
0.46047
0.460469
0.460468
0.460467
0.460466
0.460463
0.460459
0.460451
0.460437
0.460408
0.460352
0.460243
0.460037
0.459663
0.482615
0.482993
0.483205
0.483317
0.483376
0.483406
0.483421
0.483429
0.483434
0.483436
0.483438
0.483439
0.48344
0.483441
0.483441
0.483442
0.483442
0.483443
0.483443
0.483444
0.483444
0.483445
0.483445
0.483445
0.483445
0.483445
0.483446
0.483446
0.483446
0.483446
0.483446
0.483446
0.483446
0.483446
0.483445
0.483445
0.483445
0.483445
0.483445
0.483444
0.483444
0.483443
0.483443
0.483442
0.483442
0.483441
0.483441
0.48344
0.483439
0.483438
0.483436
0.483434
0.483429
0.483421
0.483406
0.483376
0.483317
0.483205
0.482993
0.482615
0.504966
0.505347
0.505563
0.505679
0.50574
0.505772
0.505788
0.505796
0.505801
0.505804
0.505805
0.505807
0.505807
0.505808
0.505809
0.505809
0.50581
0.50581
0.505811
0.505811
0.505811
0.505812
0.505812
0.505812
0.505812
0.505813
0.505813
0.505813
0.505813
0.505813
0.505813
0.505813
0.505813
0.505813
0.505813
0.505812
0.505812
0.505812
0.505812
0.505811
0.505811
0.505811
0.50581
0.50581
0.505809
0.505809
0.505808
0.505807
0.505807
0.505805
0.505804
0.505801
0.505796
0.505788
0.505772
0.50574
0.505679
0.505563
0.505347
0.504966
0.526708
0.527091
0.52731
0.52743
0.527493
0.527526
0.527543
0.527552
0.527557
0.52756
0.527562
0.527563
0.527564
0.527565
0.527565
0.527566
0.527566
0.527567
0.527567
0.527567
0.527568
0.527568
0.527568
0.527569
0.527569
0.527569
0.527569
0.527569
0.527569
0.527569
0.527569
0.527569
0.527569
0.527569
0.527569
0.527569
0.527569
0.527568
0.527568
0.527568
0.527567
0.527567
0.527567
0.527566
0.527566
0.527565
0.527565
0.527564
0.527563
0.527562
0.52756
0.527557
0.527552
0.527543
0.527526
0.527493
0.52743
0.52731
0.527091
0.526708
0.547835
0.548219
0.548441
0.548564
0.54863
0.548665
0.548683
0.548692
0.548698
0.548701
0.548702
0.548704
0.548704
0.548705
0.548706
0.548706
0.548707
0.548707
0.548707
0.548708
0.548708
0.548708
0.548709
0.548709
0.548709
0.548709
0.548709
0.548709
0.548709
0.54871
0.54871
0.548709
0.548709
0.548709
0.548709
0.548709
0.548709
0.548709
0.548708
0.548708
0.548708
0.548707
0.548707
0.548707
0.548706
0.548706
0.548705
0.548704
0.548704
0.548702
0.548701
0.548698
0.548692
0.548683
0.548665
0.54863
0.548564
0.548441
0.548219
0.547835
0.568344
0.568727
0.568953
0.569079
0.569147
0.569183
0.569202
0.569213
0.569218
0.569221
0.569223
0.569224
0.569225
0.569226
0.569226
0.569227
0.569227
0.569228
0.569228
0.569228
0.569229
0.569229
0.569229
0.569229
0.56923
0.56923
0.56923
0.56923
0.56923
0.56923
0.56923
0.56923
0.56923
0.56923
0.56923
0.56923
0.569229
0.569229
0.569229
0.569229
0.569228
0.569228
0.569228
0.569227
0.569227
0.569226
0.569226
0.569225
0.569224
0.569223
0.569221
0.569218
0.569213
0.569202
0.569183
0.569147
0.569079
0.568953
0.568727
0.568344
0.588233
0.588616
0.588843
0.588972
0.589043
0.58908
0.589101
0.589111
0.589117
0.58912
0.589122
0.589124
0.589125
0.589125
0.589126
0.589126
0.589127
0.589127
0.589127
0.589128
0.589128
0.589128
0.589128
0.589128
0.589129
0.589129
0.589129
0.589129
0.589129
0.589129
0.589129
0.589129
0.589129
0.589129
0.589129
0.589129
0.589128
0.589128
0.589128
0.589128
0.589128
0.589127
0.589127
0.589127
0.589126
0.589126
0.589125
0.589125
0.589124
0.589122
0.58912
0.589117
0.589111
0.589101
0.58908
0.589043
0.588972
0.588843
0.588616
0.588233
0.607502
0.607882
0.608112
0.608243
0.608316
0.608356
0.608377
0.608388
0.608394
0.608398
0.6084
0.608401
0.608402
0.608403
0.608403
0.608404
0.608404
0.608404
0.608405
0.608405
0.608405
0.608405
0.608405
0.608406
0.608406
0.608406
0.608406
0.608406
0.608406
0.608406
0.608406
0.608406
0.608406
0.608406
0.608406
0.608406
0.608406
0.608405
0.608405
0.608405
0.608405
0.608405
0.608404
0.608404
0.608404
0.608403
0.608403
0.608402
0.608401
0.6084
0.608398
0.608394
0.608388
0.608377
0.608356
0.608316
0.608243
0.608112
0.607882
0.607502
0.626151
0.62653
0.626761
0.626894
0.626969
0.62701
0.627032
0.627044
0.627051
0.627055
0.627057
0.627058
0.627059
0.62706
0.62706
0.62706
0.627061
0.627061
0.627061
0.627061
0.627062
0.627062
0.627062
0.627062
0.627062
0.627063
0.627063
0.627063
0.627063
0.627063
0.627063
0.627063
0.627063
0.627063
0.627063
0.627062
0.627062
0.627062
0.627062
0.627062
0.627061
0.627061
0.627061
0.627061
0.62706
0.62706
0.62706
0.627059
0.627058
0.627057
0.627055
0.627051
0.627044
0.627032
0.62701
0.626969
0.626894
0.626761
0.62653
0.626151
0.644184
0.644559
0.644791
0.644927
0.645004
0.645047
0.64507
0.645082
0.645089
0.645093
0.645096
0.645097
0.645098
0.645098
0.645099
0.645099
0.6451
0.6451
0.6451
0.6451
0.645101
0.645101
0.645101