/*--------------------------------*- C++ -*----------------------------------*\
| =========                 |                                                 |
| \\      /  F ield         | foam-extend: Open Source CFD                    |
|  \\    /   O peration     | Version:     4.0                                |
|   \\  /    A nd           | Web:         http://www.foam-extend.org         |
|    \\/     M anipulation  |                                                 |
\*---------------------------------------------------------------------------*/
FoamFile
{
    version     2.0;
    format      ascii;
    class       volScalarField;
    location    "480";
    object      psiE;
}
// * * * * * * * * * * * * * * * * * * * * * * * * * * * * * * * * * * * * * //

dimensions      [0 0 0 0 0 0 0];

internalField   nonuniform List<scalar> 
6960
(
0.411821
0.41187
0.411898
0.411912
0.411919
0.411922
0.411924
0.411925
0.411926
0.411927
0.411928
0.411929
0.41193
0.41193
0.411931
0.411932
0.411933
0.411933
0.411934
0.411934
0.411935
0.411935
0.411936
0.411936
0.411937
0.411937
0.411937
0.411937
0.411937
0.411937
0.411937
0.411937
0.411937
0.411937
0.411937
0.411937
0.411936
0.411936
0.411935
0.411935
0.411934
0.411934
0.411933
0.411933
0.411932
0.411931
0.41193
0.41193
0.411929
0.411928
0.411927
0.411926
0.411925
0.411924
0.411922
0.411919
0.411912
0.411898
0.41187
0.411821
1.14532
1.14552
1.14563
1.14568
1.14571
1.14572
1.14573
1.14573
1.14574
1.14574
1.14574
1.14574
1.14575
1.14575
1.14575
1.14575
1.14575
1.14576
1.14576
1.14576
1.14576
1.14576
1.14576
1.14577
1.14577
1.14577
1.14577
1.14577
1.14577
1.14577
1.14577
1.14577
1.14577
1.14577
1.14577
1.14577
1.14577
1.14576
1.14576
1.14576
1.14576
1.14576
1.14576
1.14575
1.14575
1.14575
1.14575
1.14575
1.14574
1.14574
1.14574
1.14574
1.14573
1.14573
1.14572
1.14571
1.14568
1.14563
1.14552
1.14532
1.87382
1.87417
1.87437
1.87447
1.87452
1.87455
1.87456
1.87457
1.87457
1.87458
1.87458
1.87459
1.87459
1.87459
1.8746
1.8746
1.87461
1.87461
1.87461
1.87461
1.87462
1.87462
1.87462
1.87462
1.87463
1.87463
1.87463
1.87463
1.87463
1.87463
1.87463
1.87463
1.87463
1.87463
1.87463
1.87463
1.87462
1.87462
1.87462
1.87462
1.87461
1.87461
1.87461
1.87461
1.8746
1.8746
1.87459
1.87459
1.87459
1.87458
1.87458
1.87457
1.87457
1.87456
1.87455
1.87452
1.87447
1.87437
1.87417
1.87382
2.60778
2.60829
2.60859
2.60873
2.6088
2.60884
2.60886
2.60887
2.60887
2.60888
2.60889
2.60889
2.6089
2.60891
2.60891
2.60892
2.60892
2.60893
2.60893
2.60893
2.60894
2.60894
2.60894
2.60895
2.60895
2.60895
2.60895
2.60895
2.60895
2.60896
2.60896
2.60895
2.60895
2.60895
2.60895
2.60895
2.60895
2.60894
2.60894
2.60894
2.60893
2.60893
2.60893
2.60892
2.60892
2.60891
2.60891
2.6089
2.60889
2.60889
2.60888
2.60887
2.60887
2.60886
2.60884
2.6088
2.60873
2.60859
2.60829
2.60778
3.34806
3.34873
3.34912
3.34931
3.3494
3.34945
3.34947
3.34949
3.3495
3.3495
3.34951
3.34952
3.34953
3.34954
3.34954
3.34955
3.34956
3.34956
3.34957
3.34957
3.34958
3.34958
3.34959
3.34959
3.34959
3.3496
3.3496
3.3496
3.3496
3.3496
3.3496
3.3496
3.3496
3.3496
3.3496
3.34959
3.34959
3.34959
3.34958
3.34958
3.34957
3.34957
3.34956
3.34956
3.34955
3.34954
3.34954
3.34953
3.34952
3.34951
3.3495
3.3495
3.34949
3.34947
3.34945
3.3494
3.34931
3.34912
3.34873
3.34806
4.09389
4.09471
4.09519
4.09543
4.09554
4.0956
4.09563
4.09564
4.09566
4.09567
4.09568
4.09569
4.0957
4.09571
4.09571
4.09572
4.09573
4.09574
4.09575
4.09575
4.09576
4.09576
4.09577
4.09577
4.09578
4.09578
4.09578
4.09578
4.09579
4.09579
4.09579
4.09579
4.09578
4.09578
4.09578
4.09578
4.09577
4.09577
4.09576
4.09576
4.09575
4.09575
4.09574
4.09573
4.09572
4.09571
4.09571
4.0957
4.09569
4.09568
4.09567
4.09566
4.09564
4.09563
4.0956
4.09554
4.09543
4.09519
4.09471
4.09389
4.8441
4.84508
4.84564
4.84592
4.84606
4.84612
4.84616
4.84618
4.84619
4.84621
4.84622
4.84623
4.84624
4.84625
4.84626
4.84627
4.84628
4.84629
4.8463
4.84631
4.84631
4.84632
4.84633
4.84633
4.84634
4.84634
4.84634
4.84634
4.84635
4.84635
4.84635
4.84635
4.84634
4.84634
4.84634
4.84634
4.84633
4.84633
4.84632
4.84631
4.84631
4.8463
4.84629
4.84628
4.84627
4.84626
4.84625
4.84624
4.84623
4.84622
4.84621
4.84619
4.84618
4.84616
4.84612
4.84606
4.84592
4.84564
4.84508
4.8441
5.59732
5.59844
5.59909
5.59941
5.59956
5.59964
5.59968
5.5997
5.59972
5.59974
5.59975
5.59976
5.59978
5.59979
5.5998
5.59981
5.59982
5.59983
5.59984
5.59985
5.59986
5.59987
5.59987
5.59988
5.59989
5.59989
5.59989
5.5999
5.5999
5.5999
5.5999
5.5999
5.5999
5.59989
5.59989
5.59989
5.59988
5.59987
5.59987
5.59986
5.59985
5.59984
5.59983
5.59982
5.59981
5.5998
5.59979
5.59978
5.59976
5.59975
5.59974
5.59972
5.5997
5.59968
5.59964
5.59956
5.59941
5.59909
5.59844
5.59732
6.35195
6.3532
6.35393
6.35429
6.35447
6.35455
6.3546
6.35462
6.35464
6.35466
6.35468
6.35469
6.35471
6.35472
6.35473
6.35475
6.35476
6.35477
6.35478
6.35479
6.3548
6.35481
6.35482
6.35483
6.35483
6.35484
6.35484
6.35484
6.35485
6.35485
6.35485
6.35485
6.35484
6.35484
6.35484
6.35483
6.35483
6.35482
6.35481
6.3548
6.35479
6.35478
6.35477
6.35476
6.35475
6.35473
6.35472
6.35471
6.35469
6.35468
6.35466
6.35464
6.35462
6.3546
6.35455
6.35447
6.35429
6.35393
6.3532
6.35195
7.10616
7.10754
7.10834
7.10874
7.10893
7.10903
7.10908
7.10911
7.10913
7.10915
7.10917
7.10918
7.1092
7.10921
7.10923
7.10925
7.10926
7.10927
7.10929
7.1093
7.10931
7.10932
7.10933
7.10933
7.10934
7.10935
7.10935
7.10935
7.10936
7.10936
7.10936
7.10936
7.10935
7.10935
7.10935
7.10934
7.10933
7.10933
7.10932
7.10931
7.1093
7.10929
7.10927
7.10926
7.10925
7.10923
7.10921
7.1092
7.10918
7.10917
7.10915
7.10913
7.10911
7.10908
7.10903
7.10893
7.10874
7.10834
7.10754
7.10616
7.85783
7.85933
7.8602
7.86063
7.86084
7.86095
7.861
7.86103
7.86106
7.86108
7.8611
7.86112
7.86114
7.86115
7.86117
7.86119
7.8612
7.86122
7.86123
7.86125
7.86126
7.86127
7.86128
7.86129
7.86129
7.8613
7.8613
7.86131
7.86131
7.86131
7.86131
7.86131
7.86131
7.8613
7.8613
7.86129
7.86129
7.86128
7.86127
7.86126
7.86125
7.86123
7.86122
7.8612
7.86119
7.86117
7.86115
7.86114
7.86112
7.8611
7.86108
7.86106
7.86103
7.861
7.86095
7.86084
7.86063
7.8602
7.85933
7.85783
8.60453
8.60613
8.60707
8.60753
8.60776
8.60787
8.60793
8.60796
8.60799
8.60801
8.60804
8.60806
8.60808
8.60809
8.60811
8.60813
8.60815
8.60817
8.60818
8.6082
8.60821
8.60822
8.60823
8.60824
8.60825
8.60825
8.60826
8.60826
8.60827
8.60827
8.60827
8.60827
8.60826
8.60826
8.60825
8.60825
8.60824
8.60823
8.60822
8.60821
8.6082
8.60818
8.60817
8.60815
8.60813
8.60811
8.60809
8.60808
8.60806
8.60804
8.60801
8.60799
8.60796
8.60793
8.60787
8.60776
8.60753
8.60707
8.60613
8.60453
9.34343
9.34513
9.34612
9.34661
9.34685
9.34696
9.34703
9.34707
9.3471
9.34712
9.34714
9.34716
9.34719
9.34721
9.34723
9.34725
9.34727
9.34728
9.3473
9.34732
9.34733
9.34734
9.34736
9.34737
9.34737
9.34738
9.34739
9.34739
9.34739
9.3474
9.3474
9.34739
9.34739
9.34739
9.34738
9.34737
9.34737
9.34736
9.34734
9.34733
9.34732
9.3473
9.34728
9.34727
9.34725
9.34723
9.34721
9.34719
9.34716
9.34714
9.34712
9.3471
9.34707
9.34703
9.34696
9.34685
9.34661
9.34612
9.34513
9.34343
10.0712
10.073
10.074
10.0746
10.0748
10.0749
10.075
10.075
10.0751
10.0751
10.0751
10.0752
10.0752
10.0752
10.0752
10.0752
10.0753
10.0753
10.0753
10.0753
10.0753
10.0753
10.0754
10.0754
10.0754
10.0754
10.0754
10.0754
10.0754
10.0754
10.0754
10.0754
10.0754
10.0754
10.0754
10.0754
10.0754
10.0754
10.0753
10.0753
10.0753
10.0753
10.0753
10.0753
10.0752
10.0752
10.0752
10.0752
10.0752
10.0751
10.0751
10.0751
10.075
10.075
10.0749
10.0748
10.0746
10.074
10.073
10.0712
10.7841
10.7859
10.787
10.7875
10.7878
10.7879
10.788
10.788
10.7881
10.7881
10.7881
10.7882
10.7882
10.7882
10.7882
10.7882
10.7883
10.7883
10.7883
10.7883
10.7883
10.7884
10.7884
10.7884
10.7884
10.7884
10.7884
10.7884
10.7884
10.7884
10.7884
10.7884
10.7884
10.7884
10.7884
10.7884
10.7884
10.7884
10.7884
10.7883
10.7883
10.7883
10.7883
10.7883
10.7882
10.7882
10.7882
10.7882
10.7882
10.7881
10.7881
10.7881
10.788
10.788
10.7879
10.7878
10.7875
10.787
10.7859
10.7841
11.4775
11.4794
11.4805
11.481
11.4813
11.4814
11.4815
11.4815
11.4815
11.4816
11.4816
11.4816
11.4816
11.4817
11.4817
11.4817
11.4817
11.4818
11.4818
11.4818
11.4818
11.4818
11.4819
11.4819
11.4819
11.4819
11.4819
11.4819
11.4819
11.4819
11.4819
11.4819
11.4819
11.4819
11.4819
11.4819
11.4819
11.4819
11.4818
11.4818
11.4818
11.4818
11.4818
11.4817
11.4817
11.4817
11.4817
11.4816
11.4816
11.4816
11.4816
11.4815
11.4815
11.4815
11.4814
11.4813
11.481
11.4805
11.4794
11.4775
12.146
12.1479
12.1489
12.1495
12.1498
12.1499
12.15
12.15
12.15
12.1501
12.1501
12.1501
12.1502
12.1502
12.1502
12.1502
12.1503
12.1503
12.1503
12.1503
12.1503
12.1504
12.1504
12.1504
12.1504
12.1504
12.1504
12.1504
12.1504
12.1504
12.1504
12.1504
12.1504
12.1504
12.1504
12.1504
12.1504
12.1504
12.1504
12.1503
12.1503
12.1503
12.1503
12.1503
12.1502
12.1502
12.1502
12.1502
12.1501
12.1501
12.1501
12.15
12.15
12.15
12.1499
12.1498
12.1495
12.1489
12.1479
12.146
12.7831
12.7849
12.786
12.7865
12.7868
12.7869
12.787
12.787
12.7871
12.7871
12.7871
12.7872
12.7872
12.7872
12.7872
12.7873
12.7873
12.7873
12.7874
12.7874
12.7874
12.7874
12.7874
12.7874
12.7875
12.7875
12.7875
12.7875
12.7875
12.7875
12.7875
12.7875
12.7875
12.7875
12.7875
12.7875
12.7874
12.7874
12.7874
12.7874
12.7874
12.7874
12.7873
12.7873
12.7873
12.7872
12.7872
12.7872
12.7872
12.7871
12.7871
12.7871
12.787
12.787
12.7869
12.7868
12.7865
12.786
12.7849
12.7831
13.381
13.3827
13.3837
13.3842
13.3845
13.3846
13.3847
13.3847
13.3848
13.3848
13.3848
13.3849
13.3849
13.3849
13.3849
13.385
13.385
13.385
13.3851
13.3851
13.3851
13.3851
13.3851
13.3851
13.3852
13.3852
13.3852
13.3852
13.3852
13.3852
13.3852
13.3852
13.3852
13.3852
13.3852
13.3852
13.3851
13.3851
13.3851
13.3851
13.3851
13.3851
13.385
13.385
13.385
13.3849
13.3849
13.3849
13.3849
13.3848
13.3848
13.3848
13.3847
13.3847
13.3846
13.3845
13.3842
13.3837
13.3827
13.381
13.9303
13.9319
13.9328
13.9333
13.9335
13.9336
13.9337
13.9338
13.9338
13.9338
13.9339
13.9339
13.9339
13.934
13.934
13.934
13.9341
13.9341
13.9341
13.9341
13.9342
13.9342
13.9342
13.9342
13.9342
13.9342
13.9342
13.9342
13.9342
13.9343
13.9343
13.9342
13.9342
13.9342
13.9342
13.9342
13.9342
13.9342
13.9342
13.9342
13.9341
13.9341
13.9341
13.9341
13.934
13.934
13.934
13.9339
13.9339
13.9339
13.9338
13.9338
13.9338
13.9337
13.9336
13.9335
13.9333
13.9328
13.9319
13.9303
14.4208
14.4222
14.423
14.4235
14.4237
14.4238
14.4238
14.4239
14.4239
14.424
14.424
14.424
14.4241
14.4241
14.4241
14.4242
14.4242
14.4242
14.4242
14.4243
14.4243
14.4243
14.4243
14.4243
14.4244
14.4244
14.4244
14.4244
14.4244
14.4244
14.4244
14.4244
14.4244
14.4244
14.4244
14.4244
14.4243
14.4243
14.4243
14.4243
14.4243
14.4242
14.4242
14.4242
14.4242
14.4241
14.4241
14.4241
14.424
14.424
14.424
14.4239
14.4239
14.4238
14.4238
14.4237
14.4235
14.423
14.4222
14.4208
14.8431
14.8443
14.845
14.8453
14.8455
14.8456
14.8456
14.8457
14.8457
14.8457
14.8458
14.8458
14.8459
14.8459
14.8459
14.8459
14.846
14.846
14.846
14.8461
14.8461
14.8461
14.8461
14.8461
14.8462
14.8462
14.8462
14.8462
14.8462
14.8462
14.8462
14.8462
14.8462
14.8462
14.8462
14.8462
14.8461
14.8461
14.8461
14.8461
14.8461
14.846
14.846
14.846
14.8459
14.8459
14.8459
14.8459
14.8458
14.8458
14.8457
14.8457
14.8457
14.8456
14.8456
14.8455
14.8453
14.845
14.8443
14.8431
15.1919
15.1928
15.1933
15.1936
15.1937
15.1938
15.1939
15.1939
15.194
15.194
15.194
15.1941
15.1941
15.1941
15.1942
15.1942
15.1942
15.1943
15.1943
15.1943
15.1943
15.1944
15.1944
15.1944
15.1944
15.1944
15.1944
15.1944
15.1944
15.1944
15.1944
15.1944
15.1944
15.1944
15.1944
15.1944
15.1944
15.1944
15.1944
15.1943
15.1943
15.1943
15.1943
15.1942
15.1942
15.1942
15.1941
15.1941
15.1941
15.194
15.194
15.194
15.1939
15.1939
15.1938
15.1937
15.1936
15.1933
15.1928
15.1919
15.4693
15.4699
15.4703
15.4705
15.4706
15.4707
15.4707
15.4708
15.4708
15.4708
15.4709
15.4709
15.4709
15.471
15.471
15.471
15.4711
15.4711
15.4711
15.4712
15.4712
15.4712
15.4712
15.4713
15.4713
15.4713
15.4713
15.4713
15.4713
15.4713
15.4713
15.4713
15.4713
15.4713
15.4713
15.4713
15.4713
15.4712
15.4712
15.4712
15.4712
15.4711
15.4711
15.4711
15.471
15.471
15.471
15.4709
15.4709
15.4709
15.4708
15.4708
15.4708
15.4707
15.4707
15.4706
15.4705
15.4703
15.4699
15.4693
15.685
15.6854
15.6856
15.6858
15.6859
15.6859
15.686
15.686
15.686
15.6861
15.6861
15.6861
15.6862
15.6862
15.6862
15.6863
15.6863
15.6864
15.6864
15.6864
15.6864
15.6865
15.6865
15.6865
15.6865
15.6865
15.6865
15.6866
15.6866
15.6866
15.6866
15.6866
15.6866
15.6865
15.6865
15.6865
15.6865
15.6865
15.6865
15.6864
15.6864
15.6864
15.6864
15.6863
15.6863
15.6862
15.6862
15.6862
15.6861
15.6861
15.6861
15.686
15.686
15.686
15.6859
15.6859
15.6858
15.6856
15.6854
15.685
15.8528
15.8531
15.8532
15.8533
15.8534
15.8534
15.8535
15.8535
15.8535
15.8536
15.8536
15.8537
15.8537
15.8537
15.8538
15.8538
15.8538
15.8539
15.8539
15.8539
15.854
15.854
15.854
15.854
15.8541
15.8541
15.8541
15.8541
15.8541
15.8541
15.8541
15.8541
15.8541
15.8541
15.8541
15.8541
15.854
15.854
15.854
15.854
15.8539
15.8539
15.8539
15.8538
15.8538
15.8538
15.8537
15.8537
15.8537
15.8536
15.8536
15.8535
15.8535
15.8535
15.8534
15.8534
15.8533
15.8532
15.8531
15.8528
15.9865
15.9866
15.9867
15.9868
15.9868
15.9869
15.9869
15.9869
15.987
15.987
15.987
15.9871
15.9871
15.9872
15.9872
15.9873
15.9873
15.9873
15.9874
15.9874
15.9874
15.9875
15.9875
15.9875
15.9875
15.9875
15.9876
15.9876
15.9876
15.9876
15.9876
15.9876
15.9876
15.9876
15.9875
15.9875
15.9875
15.9875
15.9875
15.9874
15.9874
15.9874
15.9873
15.9873
15.9873
15.9872
15.9872
15.9871
15.9871
15.987
15.987
15.987
15.9869
15.9869
15.9869
15.9868
15.9868
15.9867
15.9866
15.9865
16.0967
16.0967
16.0968
16.0968
16.0969
16.0969
16.097
16.097
16.097
16.0971
16.0971
16.0972
16.0972
16.0972
16.0973
16.0973
16.0974
16.0974
16.0975
16.0975
16.0975
16.0976
16.0976
16.0976
16.0976
16.0976
16.0977
16.0977
16.0977
16.0977
16.0977
16.0977
16.0977
16.0977
16.0976
16.0976
16.0976
16.0976
16.0976
16.0975
16.0975
16.0975
16.0974
16.0974
16.0973
16.0973
16.0972
16.0972
16.0972
16.0971
16.0971
16.097
16.097
16.097
16.0969
16.0969
16.0968
16.0968
16.0967
16.0967
16.1908
16.1908
16.1908
16.1909
16.1909
16.1909
16.191
16.191
16.1911
16.1911
16.1911
16.1912
16.1912
16.1913
16.1913
16.1914
16.1914
16.1915
16.1915
16.1916
16.1916
16.1916
16.1916
16.1917
16.1917
16.1917
16.1917
16.1917
16.1917
16.1917
16.1917
16.1917
16.1917
16.1917
16.1917
16.1917
16.1917
16.1916
16.1916
16.1916
16.1916
16.1915
16.1915
16.1914
16.1914
16.1913
16.1913
16.1912
16.1912
16.1911
16.1911
16.1911
16.191
16.191
16.1909
16.1909
16.1909
16.1908
16.1908
16.1908
16.2736
16.2736
16.2736
16.2736
16.2736
16.2737
16.2737
16.2737
16.2738
16.2738
16.2739
16.2739
16.274
16.274
16.2741
16.2741
16.2742
16.2742
16.2743
16.2743
16.2743
16.2744
16.2744
16.2744
16.2745
16.2745
16.2745
16.2745
16.2745
16.2745
16.2745
16.2745
16.2745
16.2745
16.2745
16.2745
16.2744
16.2744
16.2744
16.2743
16.2743
16.2743
16.2742
16.2742
16.2741
16.2741
16.274
16.274
16.2739
16.2739
16.2738
16.2738
16.2737
16.2737
16.2737
16.2736
16.2736
16.2736
16.2736
16.2736
16.3481
16.348
16.348
16.348
16.348
16.3481
16.3481
16.3481
16.3482
16.3482
16.3483
16.3483
16.3484
16.3485
16.3485
16.3486
16.3486
16.3487
16.3487
16.3488
16.3488
16.3488
16.3489
16.3489
16.3489
16.3489
16.349
16.349
16.349
16.349
16.349
16.349
16.349
16.349
16.3489
16.3489
16.3489
16.3489
16.3488
16.3488
16.3488
16.3487
16.3487
16.3486
16.3486
16.3485
16.3485
16.3484
16.3483
16.3483
16.3482
16.3482
16.3481
16.3481
16.3481
16.348
16.348
16.348
16.348
16.3481
16.4162
16.4161
16.4161
16.4161
16.4161
16.4161
16.4162
16.4162
16.4163
16.4163
16.4164
16.4164
16.4165
16.4166
16.4166
16.4167
16.4167
16.4168
16.4168
16.4169
16.4169
16.417
16.417
16.417
16.4171
16.4171
16.4171
16.4171
16.4171
16.4171
16.4171
16.4171
16.4171
16.4171
16.4171
16.4171
16.417
16.417
16.417
16.4169
16.4169
16.4168
16.4168
16.4167
16.4167
16.4166
16.4166
16.4165
16.4164
16.4164
16.4163
16.4163
16.4162
16.4162
16.4161
16.4161
16.4161
16.4161
16.4161
16.4162
16.4793
16.4792
16.4792
16.4792
16.4792
16.4792
16.4793
16.4793
16.4794
16.4794
16.4795
16.4796
16.4796
16.4797
16.4798
16.4798
16.4799
16.4799
16.48
16.48
16.4801
16.4801
16.4802
16.4802
16.4802
16.4802
16.4803
16.4803
16.4803
16.4803
16.4803
16.4803
16.4803
16.4803
16.4802
16.4802
16.4802
16.4802
16.4801
16.4801
16.48
16.48
16.4799
16.4799
16.4798
16.4798
16.4797
16.4796
16.4796
16.4795
16.4794
16.4794
16.4793
16.4793
16.4792
16.4792
16.4792
16.4792
16.4792
16.4793
16.5384
16.5383
16.5383
16.5383
16.5383
16.5383
16.5384
16.5384
16.5385
16.5386
16.5386
16.5387
16.5388
16.5388
16.5389
16.539
16.539
16.5391
16.5391
16.5392
16.5392
16.5393
16.5393
16.5394
16.5394
16.5394
16.5394
16.5394
16.5394
16.5395
16.5395
16.5394
16.5394
16.5394
16.5394
16.5394
16.5394
16.5393
16.5393
16.5392
16.5392
16.5391
16.5391
16.539
16.539
16.5389
16.5388
16.5388
16.5387
16.5386
16.5386
16.5385
16.5384
16.5384
16.5383
16.5383
16.5383
16.5383
16.5383
16.5384
16.5943
16.5942
16.5941
16.5941
16.5941
16.5942
16.5942
16.5943
16.5943
16.5944
16.5945
16.5945
16.5946
16.5947
16.5948
16.5948
16.5949
16.595
16.595
16.5951
16.5951
16.5952
16.5952
16.5952
16.5953
16.5953
16.5953
16.5953
16.5953
16.5954
16.5954
16.5953
16.5953
16.5953
16.5953
16.5953
16.5952
16.5952
16.5952
16.5951
16.5951
16.595
16.595
16.5949
16.5948
16.5948
16.5947
16.5946
16.5945
16.5945
16.5944
16.5943
16.5943
16.5942
16.5942
16.5941
16.5941
16.5941
16.5942
16.5943
16.6474
16.6473
16.6473
16.6472
16.6473
16.6473
16.6473
16.6474
16.6475
16.6475
16.6476
16.6477
16.6478
16.6478
16.6479
16.648
16.6481
16.6481
16.6482
16.6482
16.6483
16.6484
16.6484
16.6484
16.6485
16.6485
16.6485
16.6485
16.6485
16.6485
16.6485
16.6485
16.6485
16.6485
16.6485
16.6485
16.6484
16.6484
16.6484
16.6483
16.6482
16.6482
16.6481
16.6481
16.648
16.6479
16.6478
16.6478
16.6477
16.6476
16.6475
16.6475
16.6474
16.6473
16.6473
16.6473
16.6472
16.6473
16.6473
16.6474
16.6983
16.6982
16.6981
16.6981
16.6981
16.6982
16.6982
16.6983
16.6983
16.6984
16.6985
16.6986
16.6987
16.6987
16.6988
16.6989
16.699
16.699
16.6991
16.6992
16.6992
16.6993
16.6993
16.6994
16.6994
16.6994
16.6994
16.6995
16.6995
16.6995
16.6995
16.6995
16.6995
16.6994
16.6994
16.6994
16.6994
16.6993
16.6993
16.6992
16.6992
16.6991
16.699
16.699
16.6989
16.6988
16.6987
16.6987
16.6986
16.6985
16.6984
16.6983
16.6983
16.6982
16.6982
16.6981
16.6981
16.6981
16.6982
16.6983
16.7472
16.7471
16.7471
16.7471
16.7471
16.7471
16.7472
16.7472
16.7473
16.7474
16.7475
16.7476
16.7476
16.7477
16.7478
16.7479
16.748
16.748
16.7481
16.7482
16.7482
16.7483
16.7483
16.7484
16.7484
16.7484
16.7485
16.7485
16.7485
16.7485
16.7485
16.7485
16.7485
16.7485
16.7484
16.7484
16.7484
16.7483
16.7483
16.7482
16.7482
16.7481
16.748
16.748
16.7479
16.7478
16.7477
16.7476
16.7476
16.7475
16.7474
16.7473
16.7472
16.7472
16.7471
16.7471
16.7471
16.7471
16.7471
16.7472
16.7946
16.7945
16.7944
16.7944
16.7944
16.7945
16.7945
16.7946
16.7947
16.7947
16.7948
16.7949
16.795
16.7951
16.7952
16.7953
16.7954
16.7954
16.7955
16.7956
16.7956
16.7957
16.7958
16.7958
16.7958
16.7959
16.7959
16.7959
16.7959
16.7959
16.7959
16.7959
16.7959
16.7959
16.7959
16.7958
16.7958
16.7958
16.7957
16.7956
16.7956
16.7955
16.7954
16.7954
16.7953
16.7952
16.7951
16.795
16.7949
16.7948
16.7947
16.7947
16.7946
16.7945
16.7945
16.7944
16.7944
16.7944
16.7945
16.7946
16.8405
16.8404
16.8404
16.8404
16.8404
16.8404
16.8405
16.8406
16.8407
16.8407
16.8408
16.8409
16.841
16.8411
16.8412
16.8413
16.8414
16.8415
16.8416
16.8416
16.8417
16.8418
16.8418
16.8419
16.8419
16.8419
16.842
16.842
16.842
16.842
16.842
16.842
16.842
16.842
16.8419
16.8419
16.8419
16.8418
16.8418
16.8417
16.8416
16.8416
16.8415
16.8414
16.8413
16.8412
16.8411
16.841
16.8409
16.8408
16.8407
16.8407
16.8406
16.8405
16.8404
16.8404
16.8404
16.8404
16.8404
16.8405
16.8854
16.8853
16.8852
16.8852
16.8852
16.8853
16.8853
16.8854
16.8855
16.8856
16.8857
16.8858
16.8859
16.886
16.8861
16.8862
16.8863
16.8864
16.8865
16.8865
16.8866
16.8867
16.8867
16.8868
16.8868
16.8868
16.8869
16.8869
16.8869
16.8869
16.8869
16.8869
16.8869
16.8869
16.8868
16.8868
16.8868
16.8867
16.8867
16.8866
16.8865
16.8865
16.8864
16.8863
16.8862
16.8861
16.886
16.8859
16.8858
16.8857
16.8856
16.8855
16.8854
16.8853
16.8853
16.8852
16.8852
16.8852
16.8853
16.8854
16.9292
16.9291
16.9291
16.9291
16.9291
16.9291
16.9292
16.9293
16.9294
16.9295
16.9296
16.9297
16.9298
16.9299
16.93
16.9301
16.9302
16.9303
16.9304
16.9305
16.9305
16.9306
16.9307
16.9307
16.9307
16.9308
16.9308
16.9308
16.9309
16.9309
16.9309
16.9309
16.9308
16.9308
16.9308
16.9307
16.9307
16.9307
16.9306
16.9305
16.9305
16.9304
16.9303
16.9302
16.9301
16.93
16.9299
16.9298
16.9297
16.9296
16.9295
16.9294
16.9293
16.9292
16.9291
16.9291
16.9291
16.9291
16.9291
16.9292
16.9722
16.9722
16.9721
16.9721
16.9721
16.9722
16.9722
16.9723
16.9724
16.9725
16.9726
16.9727
16.9729
16.973
16.9731
16.9732
16.9733
16.9734
16.9735
16.9736
16.9736
16.9737
16.9738
16.9738
16.9739
16.9739
16.9739
16.974
16.974
16.974
16.974
16.974
16.974
16.9739
16.9739
16.9739
16.9738
16.9738
16.9737
16.9736
16.9736
16.9735
16.9734
16.9733
16.9732
16.9731
16.973
16.9729
16.9727
16.9726
16.9725
16.9724
16.9723
16.9722
16.9722
16.9721
16.9721
16.9721
16.9722
16.9722
17.0146
17.0145
17.0144
17.0144
17.0145
17.0145
17.0146
17.0147
17.0148
17.0149
17.015
17.0151
17.0152
17.0154
17.0155
17.0156
17.0157
17.0158
17.0159
17.016
17.0161
17.0161
17.0162
17.0163
17.0163
17.0163
17.0164
17.0164
17.0164
17.0164
17.0164
17.0164
17.0164
17.0164
17.0163
17.0163
17.0163
17.0162
17.0161
17.0161
17.016
17.0159
17.0158
17.0157
17.0156
17.0155
17.0154
17.0152
17.0151
17.015
17.0149
17.0148
17.0147
17.0146
17.0145
17.0145
17.0144
17.0144
17.0145
17.0146
17.0564
17.0563
17.0562
17.0562
17.0563
17.0563
17.0564
17.0565
17.0566
17.0567
17.0568
17.0569
17.0571
17.0572
17.0573
17.0574
17.0575
17.0577
17.0578
17.0578
17.0579
17.058
17.0581
17.0581
17.0582
17.0582
17.0583
17.0583
17.0583
17.0583
17.0583
17.0583
17.0583
17.0583
17.0582
17.0582
17.0581
17.0581
17.058
17.0579
17.0578
17.0578
17.0577
17.0575
17.0574
17.0573
17.0572
17.0571
17.0569
17.0568
17.0567
17.0566
17.0565
17.0564
17.0563
17.0563
17.0562
17.0562
17.0563
17.0564
17.0977
17.0976
17.0976
17.0975
17.0976
17.0976
17.0977
17.0978
17.0979
17.0981
17.0982
17.0983
17.0984
17.0986
17.0987
17.0988
17.0989
17.099
17.0992
17.0993
17.0993
17.0994
17.0995
17.0996
17.0996
17.0997
17.0997
17.0997
17.0997
17.0997
17.0997
17.0997
17.0997
17.0997
17.0997
17.0996
17.0996
17.0995
17.0994
17.0993
17.0993
17.0992
17.099
17.0989
17.0988
17.0987
17.0986
17.0984
17.0983
17.0982
17.0981
17.0979
17.0978
17.0977
17.0976
17.0976
17.0975
17.0976
17.0976
17.0977
17.1386
17.1386
17.1385
17.1385
17.1385
17.1386
17.1387
17.1388
17.1389
17.139
17.1392
17.1393
17.1394
17.1396
17.1397
17.1398
17.14
17.1401
17.1402
17.1403
17.1404
17.1405
17.1406
17.1406
17.1407
17.1407
17.1408
17.1408
17.1408
17.1408
17.1408
17.1408
17.1408
17.1408
17.1407
17.1407
17.1406
17.1406
17.1405
17.1404
17.1403
17.1402
17.1401
17.14
17.1398
17.1397
17.1396
17.1394
17.1393
17.1392
17.139
17.1389
17.1388
17.1387
17.1386
17.1385
17.1385
17.1385
17.1386
17.1386
17.1793
17.1792
17.1792
17.1792
17.1792
17.1793
17.1794
17.1795
17.1796
17.1798
17.1799
17.18
17.1802
17.1803
17.1805
17.1806
17.1807
17.1809
17.181
17.1811
17.1812
17.1813
17.1813
17.1814
17.1815
17.1815
17.1816
17.1816
17.1816
17.1816
17.1816
17.1816
17.1816
17.1816
17.1815
17.1815
17.1814
17.1813
17.1813
17.1812
17.1811
17.181
17.1809
17.1807
17.1806
17.1805
17.1803
17.1802
17.18
17.1799
17.1798
17.1796
17.1795
17.1794
17.1793
17.1792
17.1792
17.1792
17.1792
17.1793
17.2198
17.2197
17.2197
17.2197
17.2197
17.2198
17.2199
17.22
17.2201
17.2203
17.2204
17.2206
17.2207
17.2209
17.221
17.2212
17.2213
17.2214
17.2215
17.2217
17.2218
17.2219
17.2219
17.222
17.2221
17.2221
17.2222
17.2222
17.2222
17.2222
17.2222
17.2222
17.2222
17.2222
17.2221
17.2221
17.222
17.2219
17.2219
17.2218
17.2217
17.2215
17.2214
17.2213
17.2212
17.221
17.2209
17.2207
17.2206
17.2204
17.2203
17.2201
17.22
17.2199
17.2198
17.2197
17.2197
17.2197
17.2197
17.2198
17.2602
17.2601
17.2601
17.2601
17.2601
17.2602
17.2603
17.2604
17.2605
17.2607
17.2608
17.261
17.2612
17.2613
17.2615
17.2616
17.2618
17.2619
17.262
17.2621
17.2622
17.2623
17.2624
17.2625
17.2626
17.2626
17.2627
17.2627
17.2627
17.2627
17.2627
17.2627
17.2627
17.2627
17.2626
17.2626
17.2625
17.2624
17.2623
17.2622
17.2621
17.262
17.2619
17.2618
17.2616
17.2615
17.2613
17.2612
17.261
17.2608
17.2607
17.2605
17.2604
17.2603
17.2602
17.2601
17.2601
17.2601
17.2601
17.2602
17.3005
17.3004
17.3004
17.3004
17.3004
17.3005
17.3006
17.3007
17.3009
17.301
17.3012
17.3014
17.3015
17.3017
17.3019
17.302
17.3022
17.3023
17.3024
17.3025
17.3027
17.3028
17.3029
17.3029
17.303
17.3031
17.3031
17.3031
17.3032
17.3032
17.3032
17.3032
17.3031
17.3031
17.3031
17.303
17.3029
17.3029
17.3028
17.3027
17.3025
17.3024
17.3023
17.3022
17.302
17.3019
17.3017
17.3015
17.3014
17.3012
17.301
17.3009
17.3007
17.3006
17.3005
17.3004
17.3004
17.3004
17.3004
17.3005
17.3408
17.3407
17.3407
17.3407
17.3408
17.3409
17.341
17.3411
17.3412
17.3414
17.3416
17.3417
17.3419
17.3421
17.3423
17.3424
17.3426
17.3427
17.3429
17.343
17.3431
17.3432
17.3433
17.3434
17.3435
17.3435
17.3436
17.3436
17.3436
17.3436
17.3436
17.3436
17.3436
17.3436
17.3435
17.3435
17.3434
17.3433
17.3432
17.3431
17.343
17.3429
17.3427
17.3426
17.3424
17.3423
17.3421
17.3419
17.3417
17.3416
17.3414
17.3412
17.3411
17.341
17.3409
17.3408
17.3407
17.3407
17.3407
17.3408
17.3812
17.3811
17.3811
17.3811
17.3812
17.3813
17.3814
17.3815
17.3817
17.3818
17.382
17.3822
17.3824
17.3826
17.3827
17.3829
17.3831
17.3832
17.3834
17.3835
17.3836
17.3837
17.3838
17.3839
17.384
17.384
17.3841
17.3841
17.3842
17.3842
17.3842
17.3842
17.3841
17.3841
17.384
17.384
17.3839
17.3838
17.3837
17.3836
17.3835
17.3834
17.3832
17.3831
17.3829
17.3827
17.3826
17.3824
17.3822
17.382
17.3818
17.3817
17.3815
17.3814
17.3813
17.3812
17.3811
17.3811
17.3811
17.3812
17.4217
17.4217
17.4216
17.4217
17.4217
17.4218
17.4219
17.4221
17.4222
17.4224
17.4226
17.4228
17.423
17.4232
17.4233
17.4235
17.4237
17.4239
17.424
17.4241
17.4243
17.4244
17.4245
17.4246
17.4247
17.4247
17.4248
17.4248
17.4248
17.4248
17.4248
17.4248
17.4248
17.4248
17.4247
17.4247
17.4246
17.4245
17.4244
17.4243
17.4241
17.424
17.4239
17.4237
17.4235
17.4233
17.4232
17.423
17.4228
17.4226
17.4224
17.4222
17.4221
17.4219
17.4218
17.4217
17.4217
17.4216
17.4217
17.4217
17.4624
17.4624
17.4624
17.4624
17.4624
17.4625
17.4627
17.4628
17.463
17.4632
17.4634
17.4636
17.4638
17.4639
17.4641
17.4643
17.4645
17.4647
17.4648
17.465
17.4651
17.4652
17.4653
17.4654
17.4655
17.4656
17.4656
17.4657
17.4657
17.4657
17.4657
17.4657
17.4657
17.4656
17.4656
17.4655
17.4654
17.4653
17.4652
17.4651
17.465
17.4648
17.4647
17.4645
17.4643
17.4641
17.4639
17.4638
17.4636
17.4634
17.4632
17.463
17.4628
17.4627
17.4625
17.4624
17.4624
17.4624
17.4624
17.4624
17.5033
17.5033
17.5033
17.5033
17.5034
17.5035
17.5036
17.5038
17.504
17.5042
17.5044
17.5046
17.5048
17.505
17.5052
17.5054
17.5056
17.5057
17.5059
17.506
17.5062
17.5063
17.5064
17.5065
17.5066
17.5067
17.5067
17.5068
17.5068
17.5068
17.5068
17.5068
17.5068
17.5067
17.5067
17.5066
17.5065
17.5064
17.5063
17.5062
17.506
17.5059
17.5057
17.5056
17.5054
17.5052
17.505
17.5048
17.5046
17.5044
17.5042
17.504
17.5038
17.5036
17.5035
17.5034
17.5033
17.5033
17.5033
17.5033
17.5446
17.5445
17.5445
17.5446
17.5446
17.5447
17.5449
17.5451
17.5452
17.5454
17.5457
17.5459
17.5461
17.5463
17.5465
17.5467
17.5469
17.5471
17.5473
17.5474
17.5476
17.5477
17.5478
17.5479
17.548
17.5481
17.5481
17.5482
17.5482
17.5482
17.5482
17.5482
17.5482
17.5481
17.5481
17.548
17.5479
17.5478
17.5477
17.5476
17.5474
17.5473
17.5471
17.5469
17.5467
17.5465
17.5463
17.5461
17.5459
17.5457
17.5454
17.5452
17.5451
17.5449
17.5447
17.5446
17.5446
17.5445
17.5445
17.5446
17.5861
17.5861
17.5861
17.5861
17.5862
17.5863
17.5865
17.5867
17.5868
17.5871
17.5873
17.5875
17.5877
17.5879
17.5882
17.5884
17.5886
17.5888
17.5889
17.5891
17.5893
17.5894
17.5895
17.5896
17.5897
17.5898
17.5898
17.5899
17.5899
17.5899
17.5899
17.5899
17.5899
17.5898
17.5898
17.5897
17.5896
17.5895
17.5894
17.5893
17.5891
17.5889
17.5888
17.5886
17.5884
17.5882
17.5879
17.5877
17.5875
17.5873
17.5871
17.5868
17.5867
17.5865
17.5863
17.5862
17.5861
17.5861
17.5861
17.5861
17.6281
17.628
17.628
17.6281
17.6282
17.6283
17.6285
17.6286
17.6288
17.6291
17.6293
17.6295
17.6298
17.63
17.6302
17.6304
17.6306
17.6308
17.631
17.6312
17.6314
17.6315
17.6316
17.6317
17.6318
17.6319
17.632
17.632
17.632
17.6321
17.6321
17.632
17.632
17.632
17.6319
17.6318
17.6317
17.6316
17.6315
17.6314
17.6312
17.631
17.6308
17.6306
17.6304
17.6302
17.63
17.6298
17.6295
17.6293
17.6291
17.6288
17.6286
17.6285
17.6283
17.6282
17.6281
17.628
17.628
17.6281
17.6704
17.6704
17.6704
17.6705
17.6706
17.6707
17.6709
17.671
17.6713
17.6715
17.6717
17.672
17.6722
17.6725
17.6727
17.6729
17.6731
17.6733
17.6735
17.6737
17.6739
17.674
17.6742
17.6743
17.6744
17.6745
17.6745
17.6746
17.6746
17.6746
17.6746
17.6746
17.6746
17.6745
17.6745
17.6744
17.6743
17.6742
17.674
17.6739
17.6737
17.6735
17.6733
17.6731
17.6729
17.6727
17.6725
17.6722
17.672
17.6717
17.6715
17.6713
17.671
17.6709
17.6707
17.6706
17.6705
17.6704
17.6704
17.6704
17.7133
17.7133
17.7133
17.7133
17.7134
17.7136
17.7137
17.7139
17.7142
17.7144
17.7146
17.7149
17.7152
17.7154
17.7157
17.7159
17.7161
17.7163
17.7165
17.7167
17.7169
17.717
17.7172
17.7173
17.7174
17.7175
17.7176
17.7176
17.7176
17.7177
17.7177
17.7176
17.7176
17.7176
17.7175
17.7174
17.7173
17.7172
17.717
17.7169
17.7167
17.7165
17.7163
17.7161
17.7159
17.7157
17.7154
17.7152
17.7149
17.7146
17.7144
17.7142
17.7139
17.7137
17.7136
17.7134
17.7133
17.7133
17.7133
17.7133
17.7566
17.7566
17.7566
17.7567
17.7568
17.7569
17.7571
17.7573
17.7576
17.7578
17.7581
17.7583
17.7586
17.7589
17.7591
17.7594
17.7596
17.7598
17.7601