/*--------------------------------*- C++ -*----------------------------------*\
| =========                 |                                                 |
| \\      /  F ield         | foam-extend: Open Source CFD                    |
|  \\    /   O peration     | Version:     4.0                                |
|   \\  /    A nd           | Web:         http://www.foam-extend.org         |
|    \\/     M anipulation  |                                                 |
\*---------------------------------------------------------------------------*/
FoamFile
{
    version     2.0;
    format      ascii;
    class       volScalarField;
    location    "140";
    object      psiE;
}
// * * * * * * * * * * * * * * * * * * * * * * * * * * * * * * * * * * * * * //

dimensions      [0 0 0 0 0 0 0];

internalField   nonuniform List<scalar> 
6960
(
0.325766
0.325772
0.325771
0.325769
0.325768
0.325766
0.325765
0.325764
0.325763
0.325763
0.325762
0.325761
0.325761
0.325761
0.32576
0.32576
0.32576
0.32576
0.32576
0.325759
0.325759
0.325759
0.325759
0.325759
0.325759
0.325759
0.325759
0.325759
0.325759
0.325759
0.325759
0.325759
0.325759
0.325759
0.325759
0.325759
0.325759
0.325759
0.325759
0.325759
0.325759
0.32576
0.32576
0.32576
0.32576
0.32576
0.325761
0.325761
0.325761
0.325762
0.325763
0.325763
0.325764
0.325765
0.325766
0.325768
0.325769
0.325771
0.325772
0.325766
0.785306
0.78532
0.785314
0.785306
0.785299
0.785293
0.785288
0.785283
0.78528
0.785276
0.785273
0.785271
0.785269
0.785267
0.785265
0.785263
0.785262
0.785261
0.78526
0.785259
0.785258
0.785257
0.785256
0.785255
0.785255
0.785254
0.785254
0.785254
0.785254
0.785254
0.785254
0.785254
0.785254
0.785254
0.785254
0.785255
0.785255
0.785256
0.785257
0.785258
0.785259
0.78526
0.785261
0.785262
0.785263
0.785265
0.785267
0.785269
0.785271
0.785273
0.785276
0.78528
0.785283
0.785288
0.785293
0.785299
0.785306
0.785314
0.78532
0.785306
1.15499
1.155
1.15499
1.15497
1.15496
1.15495
1.15494
1.15493
1.15492
1.15491
1.15491
1.1549
1.1549
1.15489
1.15489
1.15489
1.15488
1.15488
1.15488
1.15488
1.15487
1.15487
1.15487
1.15487
1.15487
1.15487
1.15487
1.15486
1.15486
1.15486
1.15486
1.15486
1.15486
1.15487
1.15487
1.15487
1.15487
1.15487
1.15487
1.15487
1.15488
1.15488
1.15488
1.15488
1.15489
1.15489
1.15489
1.1549
1.1549
1.15491
1.15491
1.15492
1.15493
1.15494
1.15495
1.15496
1.15497
1.15499
1.155
1.15499
1.46062
1.46062
1.46059
1.46056
1.46054
1.46052
1.46051
1.46049
1.46048
1.46047
1.46046
1.46045
1.46045
1.46044
1.46043
1.46043
1.46042
1.46042
1.46042
1.46041
1.46041
1.46041
1.4604
1.4604
1.4604
1.4604
1.4604
1.46039
1.46039
1.46039
1.46039
1.46039
1.46039
1.4604
1.4604
1.4604
1.4604
1.4604
1.46041
1.46041
1.46041
1.46042
1.46042
1.46042
1.46043
1.46043
1.46044
1.46045
1.46045
1.46046
1.46047
1.46048
1.46049
1.46051
1.46052
1.46054
1.46056
1.46059
1.46062
1.46062
1.71252
1.71249
1.71245
1.71241
1.71238
1.71236
1.71234
1.71232
1.7123
1.71229
1.71228
1.71227
1.71226
1.71225
1.71224
1.71223
1.71222
1.71222
1.71221
1.71221
1.7122
1.7122
1.7122
1.71219
1.71219
1.71219
1.71219
1.71218
1.71218
1.71218
1.71218
1.71218
1.71218
1.71219
1.71219
1.71219
1.71219
1.7122
1.7122
1.7122
1.71221
1.71221
1.71222
1.71222
1.71223
1.71224
1.71225
1.71226
1.71227
1.71228
1.71229
1.7123
1.71232
1.71234
1.71236
1.71238
1.71241
1.71245
1.71249
1.71252
1.91803
1.91798
1.91792
1.91788
1.91784
1.91781
1.91779
1.91776
1.91775
1.91773
1.91771
1.9177
1.91769
1.91768
1.91767
1.91766
1.91765
1.91764
1.91763
1.91763
1.91762
1.91762
1.91761
1.91761
1.91761
1.9176
1.9176
1.9176
1.9176
1.9176
1.9176
1.9176
1.9176
1.9176
1.9176
1.91761
1.91761
1.91761
1.91762
1.91762
1.91763
1.91763
1.91764
1.91765
1.91766
1.91767
1.91768
1.91769
1.9177
1.91771
1.91773
1.91775
1.91776
1.91779
1.91781
1.91784
1.91788
1.91792
1.91798
1.91803
2.08476
2.08467
2.08461
2.08456
2.08452
2.08448
2.08445
2.08443
2.0844
2.08439
2.08437
2.08435
2.08434
2.08433
2.08432
2.08431
2.0843
2.08429
2.08428
2.08427
2.08427
2.08426
2.08426
2.08425
2.08425
2.08425
2.08425
2.08424
2.08424
2.08424
2.08424
2.08424
2.08424
2.08425
2.08425
2.08425
2.08425
2.08426
2.08426
2.08427
2.08427
2.08428
2.08429
2.0843
2.08431
2.08432
2.08433
2.08434
2.08435
2.08437
2.08439
2.0844
2.08443
2.08445
2.08448
2.08452
2.08456
2.08461
2.08467
2.08476
2.22056
2.22045
2.22037
2.22032
2.22027
2.22023
2.2202
2.22017
2.22015
2.22013
2.22011
2.22009
2.22008
2.22006
2.22005
2.22004
2.22003
2.22002
2.22002
2.22001
2.22
2.22
2.21999
2.21999
2.21999
2.21998
2.21998
2.21998
2.21998
2.21998
2.21998
2.21998
2.21998
2.21998
2.21998
2.21999
2.21999
2.21999
2.22
2.22
2.22001
2.22002
2.22002
2.22003
2.22004
2.22005
2.22006
2.22008
2.22009
2.22011
2.22013
2.22015
2.22017
2.2202
2.22023
2.22027
2.22032
2.22037
2.22045
2.22056
2.33272
2.33258
2.3325
2.33244
2.33239
2.33235
2.33232
2.33229
2.33226
2.33224
2.33222
2.33221
2.33219
2.33218
2.33217
2.33216
2.33215
2.33214
2.33213
2.33212
2.33212
2.33211
2.33211
2.3321
2.3321
2.3321
2.33209
2.33209
2.33209
2.33209
2.33209
2.33209
2.33209
2.33209
2.3321
2.3321
2.3321
2.33211
2.33211
2.33212
2.33212
2.33213
2.33214
2.33215
2.33216
2.33217
2.33218
2.33219
2.33221
2.33222
2.33224
2.33226
2.33229
2.33232
2.33235
2.33239
2.33244
2.3325
2.33258
2.33272
2.42727
2.42712
2.42704
2.42697
2.42692
2.42688
2.42684
2.42681
2.42679
2.42677
2.42675
2.42673
2.42672
2.4267
2.42669
2.42668
2.42667
2.42667
2.42666
2.42665
2.42665
2.42664
2.42664
2.42663
2.42663
2.42663
2.42662
2.42662
2.42662
2.42662
2.42662
2.42662
2.42662
2.42662
2.42663
2.42663
2.42663
2.42664
2.42664
2.42665
2.42665
2.42666
2.42667
2.42667
2.42668
2.42669
2.4267
2.42672
2.42673
2.42675
2.42677
2.42679
2.42681
2.42684
2.42688
2.42692
2.42697
2.42704
2.42712
2.42727
2.50881
2.50865
2.50856
2.50849
2.50844
2.50839
2.50836
2.50833
2.5083
2.50828
2.50826
2.50825
2.50824
2.50822
2.50821
2.5082
2.5082
2.50819
2.50818
2.50818
2.50817
2.50817
2.50816
2.50816
2.50816
2.50815
2.50815
2.50815
2.50815
2.50815
2.50815
2.50815
2.50815
2.50815
2.50815
2.50816
2.50816
2.50816
2.50817
2.50817
2.50818
2.50818
2.50819
2.5082
2.5082
2.50821
2.50822
2.50824
2.50825
2.50826
2.50828
2.5083
2.50833
2.50836
2.50839
2.50844
2.50849
2.50856
2.50865
2.50881
2.58062
2.58046
2.58036
2.5803
2.58024
2.5802
2.58016
2.58013
2.58011
2.58009
2.58007
2.58006
2.58004
2.58003
2.58002
2.58002
2.58001
2.58
2.58
2.57999
2.57999
2.57998
2.57998
2.57998
2.57997
2.57997
2.57997
2.57997
2.57997
2.57997
2.57997
2.57997
2.57997
2.57997
2.57997
2.57997
2.57998
2.57998
2.57998
2.57999
2.57999
2.58
2.58
2.58001
2.58002
2.58002
2.58003
2.58004
2.58006
2.58007
2.58009
2.58011
2.58013
2.58016
2.5802
2.58024
2.5803
2.58036
2.58046
2.58062
2.64502
2.64486
2.64476
2.64469
2.64463
2.64459
2.64456
2.64453
2.6445
2.64448
2.64447
2.64445
2.64444
2.64443
2.64442
2.64442
2.64441
2.64441
2.6444
2.6444
2.64439
2.64439
2.64439
2.64439
2.64439
2.64438
2.64438
2.64438
2.64438
2.64438
2.64438
2.64438
2.64438
2.64438
2.64438
2.64439
2.64439
2.64439
2.64439
2.64439
2.6444
2.6444
2.64441
2.64441
2.64442
2.64442
2.64443
2.64444
2.64445
2.64447
2.64448
2.6445
2.64453
2.64456
2.64459
2.64463
2.64469
2.64476
2.64486
2.64502
2.70362
2.70345
2.70335
2.70328
2.70323
2.70318
2.70315
2.70312
2.7031
2.70308
2.70307
2.70305
2.70304
2.70304
2.70303
2.70302
2.70302
2.70301
2.70301
2.70301
2.70301
2.703
2.703
2.703
2.703
2.703
2.703
2.703
2.703
2.703
2.703
2.703
2.703
2.703
2.703
2.703
2.703
2.703
2.703
2.70301
2.70301
2.70301
2.70301
2.70302
2.70302
2.70303
2.70304
2.70304
2.70305
2.70307
2.70308
2.7031
2.70312
2.70315
2.70318
2.70323
2.70328
2.70335
2.70345
2.70362
2.75756
2.75739
2.75729
2.75722
2.75717
2.75713
2.75709
2.75707
2.75704
2.75703
2.75701
2.757
2.75699
2.75699
2.75698
2.75698
2.75697
2.75697
2.75697
2.75697
2.75697
2.75697
2.75696
2.75696
2.75696
2.75696
2.75696
2.75696
2.75696
2.75696
2.75696
2.75696
2.75696
2.75696
2.75696
2.75696
2.75696
2.75696
2.75697
2.75697
2.75697
2.75697
2.75697
2.75697
2.75698
2.75698
2.75699
2.75699
2.757
2.75701
2.75703
2.75704
2.75707
2.75709
2.75713
2.75717
2.75722
2.75729
2.75739
2.75756
2.8077
2.80753
2.80742
2.80735
2.8073
2.80726
2.80722
2.8072
2.80718
2.80716
2.80715
2.80714
2.80713
2.80713
2.80712
2.80712
2.80712
2.80712
2.80712
2.80712
2.80712
2.80712
2.80712
2.80712
2.80712
2.80712
2.80712
2.80712
2.80712
2.80712
2.80712
2.80712
2.80712
2.80712
2.80712
2.80712
2.80712
2.80712
2.80712
2.80712
2.80712
2.80712
2.80712
2.80712
2.80712
2.80712
2.80713
2.80713
2.80714
2.80715
2.80716
2.80718
2.8072
2.80722
2.80726
2.8073
2.80735
2.80742
2.80753
2.8077
2.85465
2.85448
2.85438
2.85431
2.85425
2.85421
2.85418
2.85416
2.85414
2.85412
2.85411
2.8541
2.8541
2.8541
2.85409
2.85409
2.85409
2.85409
2.85409
2.8541
2.8541
2.8541
2.8541
2.8541
2.8541
2.8541
2.8541
2.8541
2.8541
2.8541
2.8541
2.8541
2.8541
2.8541
2.8541
2.8541
2.8541
2.8541
2.8541
2.8541
2.8541
2.85409
2.85409
2.85409
2.85409
2.85409
2.8541
2.8541
2.8541
2.85411
2.85412
2.85414
2.85416
2.85418
2.85421
2.85425
2.85431
2.85438
2.85448
2.85465
2.89892
2.89875
2.89865
2.89858
2.89853
2.89849
2.89845
2.89843
2.89841
2.8984
2.89839
2.89839
2.89838
2.89838
2.89838
2.89838
2.89838
2.89839
2.89839
2.89839
2.89839
2.8984
2.8984
2.8984
2.8984
2.8984
2.89841
2.89841
2.89841
2.89841
2.89841
2.89841
2.89841
2.89841
2.8984
2.8984
2.8984
2.8984
2.8984
2.89839
2.89839
2.89839
2.89839
2.89838
2.89838
2.89838
2.89838
2.89838
2.89839
2.89839
2.8984
2.89841
2.89843
2.89845
2.89849
2.89853
2.89858
2.89865
2.89875
2.89892
2.9409
2.94074
2.94063
2.94056
2.94051
2.94047
2.94044
2.94042
2.9404
2.94039
2.94038
2.94038
2.94038
2.94038
2.94038
2.94039
2.94039
2.94039
2.9404
2.9404
2.9404
2.94041
2.94041
2.94041
2.94042
2.94042
2.94042
2.94042
2.94042
2.94042
2.94042
2.94042
2.94042
2.94042
2.94042
2.94042
2.94041
2.94041
2.94041
2.9404
2.9404
2.9404
2.94039
2.94039
2.94039
2.94038
2.94038
2.94038
2.94038
2.94038
2.94039
2.9404
2.94042
2.94044
2.94047
2.94051
2.94056
2.94063
2.94074
2.9409
2.98091
2.98075
2.98065
2.98058
2.98053
2.98049
2.98046
2.98044
2.98042
2.98041
2.98041
2.98041
2.98041
2.98041
2.98041
2.98042
2.98042
2.98043
2.98044
2.98044
2.98045
2.98045
2.98046
2.98046
2.98046
2.98047
2.98047
2.98047
2.98047
2.98047
2.98047
2.98047
2.98047
2.98047
2.98047
2.98046
2.98046
2.98046
2.98045
2.98045
2.98044
2.98044
2.98043
2.98042
2.98042
2.98041
2.98041
2.98041
2.98041
2.98041
2.98041
2.98042
2.98044
2.98046
2.98049
2.98053
2.98058
2.98065
2.98075
2.98091
3.01922
3.01906
3.01896
3.01889
3.01884
3.0188
3.01877
3.01875
3.01874
3.01873
3.01873
3.01873
3.01873
3.01874
3.01874
3.01875
3.01876
3.01876
3.01877
3.01878
3.01879
3.01879
3.0188
3.0188
3.01881
3.01881
3.01881
3.01882
3.01882
3.01882
3.01882
3.01882
3.01882
3.01881
3.01881
3.01881
3.0188
3.0188
3.01879
3.01879
3.01878
3.01877
3.01876
3.01876
3.01875
3.01874
3.01874
3.01873
3.01873
3.01873
3.01873
3.01874
3.01875
3.01877
3.0188
3.01884
3.01889
3.01896
3.01906
3.01922
3.05604
3.05589
3.05578
3.05571
3.05566
3.05562
3.0556
3.05558
3.05557
3.05557
3.05557
3.05557
3.05557
3.05558
3.05559
3.0556
3.05561
3.05562
3.05563
3.05563
3.05564
3.05565
3.05566
3.05566
3.05567
3.05567
3.05568
3.05568
3.05568
3.05568
3.05568
3.05568
3.05568
3.05568
3.05567
3.05567
3.05566
3.05566
3.05565
3.05564
3.05563
3.05563
3.05562
3.05561
3.0556
3.05559
3.05558
3.05557
3.05557
3.05557
3.05557
3.05557
3.05558
3.0556
3.05562
3.05566
3.05571
3.05578
3.05589
3.05604
3.09157
3.09141
3.09131
3.09124
3.09119
3.09116
3.09113
3.09112
3.09111
3.09111
3.09111
3.09111
3.09112
3.09113
3.09114
3.09115
3.09116
3.09117
3.09119
3.0912
3.09121
3.09121
3.09122
3.09123
3.09124
3.09124
3.09125
3.09125
3.09125
3.09125
3.09125
3.09125
3.09125
3.09125
3.09124
3.09124
3.09123
3.09122
3.09121
3.09121
3.0912
3.09119
3.09117
3.09116
3.09115
3.09114
3.09113
3.09112
3.09111
3.09111
3.09111
3.09111
3.09112
3.09113
3.09116
3.09119
3.09124
3.09131
3.09141
3.09157
3.12596
3.12581
3.12571
3.12564
3.12559
3.12556
3.12553
3.12552
3.12551
3.12551
3.12552
3.12552
3.12553
3.12555
3.12556
3.12557
3.12559
3.1256
3.12561
3.12563
3.12564
3.12565
3.12566
3.12567
3.12567
3.12568
3.12568
3.12569
3.12569
3.12569
3.12569
3.12569
3.12569
3.12568
3.12568
3.12567
3.12567
3.12566
3.12565
3.12564
3.12563
3.12561
3.1256
3.12559
3.12557
3.12556
3.12555
3.12553
3.12552
3.12552
3.12551
3.12551
3.12552
3.12553
3.12556
3.12559
3.12564
3.12571
3.12581
3.12596
3.15936
3.15922
3.15911
3.15905
3.159
3.15897
3.15894
3.15893
3.15893
3.15893
3.15894
3.15895
3.15896
3.15897
3.15899
3.159
3.15902
3.15904
3.15905
3.15907
3.15908
3.15909
3.1591
3.15911
3.15912
3.15913
3.15913
3.15914
3.15914
3.15914
3.15914
3.15914
3.15914
3.15913
3.15913
3.15912
3.15911
3.1591
3.15909
3.15908
3.15907
3.15905
3.15904
3.15902
3.159
3.15899
3.15897
3.15896
3.15895
3.15894
3.15893
3.15893
3.15893
3.15894
3.15897
3.159
3.15905
3.15911
3.15922
3.15936
3.1919
3.19175
3.19165
3.19158
3.19154
3.19151
3.19149
3.19148
3.19147
3.19148
3.19149
3.1915
3.19151
3.19153
3.19155
3.19157
3.19159
3.1916
3.19162
3.19164
3.19165
3.19167
3.19168
3.19169
3.1917
3.19171
3.19171
3.19172
3.19172
3.19172
3.19172
3.19172
3.19172
3.19171
3.19171
3.1917
3.19169
3.19168
3.19167
3.19165
3.19164
3.19162
3.1916
3.19159
3.19157
3.19155
3.19153
3.19151
3.1915
3.19149
3.19148
3.19147
3.19148
3.19149
3.19151
3.19154
3.19158
3.19165
3.19175
3.1919
3.22367
3.22353
3.22343
3.22336
3.22332
3.22329
3.22327
3.22326
3.22326
3.22327
3.22328
3.2233
3.22331
3.22333
3.22335
3.22337
3.22339
3.22342
3.22343
3.22345
3.22347
3.22349
3.2235
3.22351
3.22352
3.22353
3.22354
3.22354
3.22355
3.22355
3.22355
3.22355
3.22354
3.22354
3.22353
3.22352
3.22351
3.2235
3.22349
3.22347
3.22345
3.22343
3.22342
3.22339
3.22337
3.22335
3.22333
3.22331
3.2233
3.22328
3.22327
3.22326
3.22326
3.22327
3.22329
3.22332
3.22336
3.22343
3.22353
3.22367
3.25479
3.25465
3.25455
3.25448
3.25444
3.25441
3.25439
3.25439
3.25439
3.2544
3.25441
3.25443
3.25445
3.25447
3.2545
3.25452
3.25454
3.25457
3.25459
3.25461
3.25463
3.25465
3.25466
3.25468
3.25469
3.2547
3.25471
3.25471
3.25471
3.25472
3.25472
3.25471
3.25471
3.25471
3.2547
3.25469
3.25468
3.25466
3.25465
3.25463
3.25461
3.25459
3.25457
3.25454
3.25452
3.2545
3.25447
3.25445
3.25443
3.25441
3.2544
3.25439
3.25439
3.25439
3.25441
3.25444
3.25448
3.25455
3.25465
3.25479
3.28533
3.28519
3.28509
3.28503
3.28498
3.28496
3.28494
3.28494
3.28495
3.28496
3.28498
3.285
3.28502
3.28505
3.28507
3.2851
3.28512
3.28515
3.28517
3.2852
3.28522
3.28524
3.28525
3.28527
3.28528
3.28529
3.2853
3.28531
3.28531
3.28531
3.28531
3.28531
3.28531
3.2853
3.28529
3.28528
3.28527
3.28525
3.28524
3.28522
3.2852
3.28517
3.28515
3.28512
3.2851
3.28507
3.28505
3.28502
3.285
3.28498
3.28496
3.28495
3.28494
3.28494
3.28496
3.28498
3.28503
3.28509
3.28519
3.28533
3.31538
3.31524
3.31515
3.31508
3.31504
3.31502
3.31501
3.315
3.31501
3.31503
3.31505
3.31507
3.3151
3.31513
3.31515
3.31518
3.31521
3.31524
3.31527
3.31529
3.31532
3.31534
3.31536
3.31537
3.31539
3.3154
3.31541
3.31541
3.31542
3.31542
3.31542
3.31542
3.31541
3.31541
3.3154
3.31539
3.31537
3.31536
3.31534
3.31532
3.31529
3.31527
3.31524
3.31521
3.31518
3.31515
3.31513
3.3151
3.31507
3.31505
3.31503
3.31501
3.315
3.31501
3.31502
3.31504
3.31508
3.31515
3.31524
3.31538
3.34501
3.34488
3.34478
3.34472
3.34468
3.34466
3.34465
3.34465
3.34466
3.34468
3.3447
3.34473
3.34476
3.34479
3.34482
3.34485
3.34489
3.34492
3.34494
3.34497
3.345
3.34502
3.34504
3.34506
3.34507
3.34509
3.3451
3.34511
3.34511
3.34511
3.34511
3.34511
3.34511
3.3451
3.34509
3.34507
3.34506
3.34504
3.34502
3.345
3.34497
3.34494
3.34492
3.34489
3.34485
3.34482
3.34479
3.34476
3.34473
3.3447
3.34468
3.34466
3.34465
3.34465
3.34466
3.34468
3.34472
3.34478
3.34488
3.34501
3.37429
3.37416
3.37407
3.37401
3.37397
3.37395
3.37394
3.37395
3.37396
3.37398
3.37401
3.37404
3.37407
3.3741
3.37414
3.37417
3.37421
3.37424
3.37427
3.3743
3.37433
3.37436
3.37438
3.3744
3.37441
3.37443
3.37444
3.37445
3.37445
3.37446
3.37446
3.37445
3.37445
3.37444
3.37443
3.37441
3.3744
3.37438
3.37436
3.37433
3.3743
3.37427
3.37424
3.37421
3.37417
3.37414
3.3741
3.37407
3.37404
3.37401
3.37398
3.37396
3.37395
3.37394
3.37395
3.37397
3.37401
3.37407
3.37416
3.37429
3.40328
3.40316
3.40307
3.40301
3.40297
3.40295
3.40295
3.40295
3.40297
3.40299
3.40302
3.40306
3.40309
3.40313
3.40317
3.40321
3.40324
3.40328
3.40332
3.40335
3.40338
3.4034
3.40343
3.40345
3.40347
3.40348
3.4035
3.4035
3.40351
3.40351
3.40351
3.40351
3.4035
3.4035
3.40348
3.40347
3.40345
3.40343
3.4034
3.40338
3.40335
3.40332
3.40328
3.40324
3.40321
3.40317
3.40313
3.40309
3.40306
3.40302
3.40299
3.40297
3.40295
3.40295
3.40295
3.40297
3.40301
3.40307
3.40316
3.40328
3.43205
3.43193
3.43184
3.43178
3.43174
3.43172
3.43172
3.43173
3.43175
3.43178
3.43181
3.43185
3.43189
3.43193
3.43197
3.43201
3.43205
3.43209
3.43213
3.43217
3.4322
3.43223
3.43225
3.43228
3.4323
3.43231
3.43232
3.43233
3.43234
3.43234
3.43234
3.43234
3.43233
3.43232
3.43231
3.4323
3.43228
3.43225
3.43223
3.4322
3.43217
3.43213
3.43209
3.43205
3.43201
3.43197
3.43193
3.43189
3.43185
3.43181
3.43178
3.43175
3.43173
3.43172
3.43172
3.43174
3.43178
3.43184
3.43193
3.43205
3.46064
3.46052
3.46043
3.46037
3.46034
3.46032
3.46033
3.46034
3.46036
3.46039
3.46043
3.46047
3.46051
3.46056
3.4606
3.46065
3.46069
3.46073
3.46077
3.46081
3.46084
3.46088
3.4609
3.46093
3.46095
3.46097
3.46098
3.46099
3.461
3.461
3.461
3.461
3.46099
3.46098
3.46097
3.46095
3.46093
3.4609
3.46088
3.46084
3.46081
3.46077
3.46073
3.46069
3.46065
3.4606
3.46056
3.46051
3.46047
3.46043
3.46039
3.46036
3.46034
3.46033
3.46032
3.46034
3.46037
3.46043
3.46052
3.46064
3.48911
3.48899
3.4889
3.48885
3.48881
3.4888
3.48881
3.48882
3.48885
3.48888
3.48892
3.48897
3.48901
3.48906
3.48911
3.48916
3.48921
3.48925
3.48929
3.48934
3.48937
3.48941
3.48944
3.48946
3.48949
3.4895
3.48952
3.48953
3.48954
3.48954
3.48954
3.48954
3.48953
3.48952
3.4895
3.48949
3.48946
3.48944
3.48941
3.48937
3.48934
3.48929
3.48925
3.48921
3.48916
3.48911
3.48906
3.48901
3.48897
3.48892
3.48888
3.48885
3.48882
3.48881
3.4888
3.48881
3.48885
3.4889
3.48899
3.48911
3.5175
3.51739
3.5173
3.51725
3.51722
3.51721
3.51721
3.51723
3.51726
3.5173
3.51734
3.51739
3.51744
3.51749
3.51755
3.5176
3.51765
3.5177
3.51775
3.51779
3.51783
3.51786
3.5179
3.51792
3.51795
3.51797
3.51799
3.518
3.51801
3.51801
3.51801
3.51801
3.518
3.51799
3.51797
3.51795
3.51792
3.5179
3.51786
3.51783
3.51779
3.51775
3.5177
3.51765
3.5176
3.51755
3.51749
3.51744
3.51739
3.51734
3.5173
3.51726
3.51723
3.51721
3.51721
3.51722
3.51725
3.5173
3.51739
3.5175
3.54587
3.54576
3.54567
3.54562
3.54559
3.54559
3.5456
3.54562
3.54565
3.54569
3.54574
3.54579
3.54585
3.5459
3.54596
3.54602
3.54607
3.54612
3.54617
3.54622
3.54626
3.5463
3.54633
3.54636
3.54639
3.54641
3.54643
3.54644
3.54645
3.54645
3.54645
3.54645
3.54644
3.54643
3.54641
3.54639
3.54636
3.54633
3.5463
3.54626
3.54622
3.54617
3.54612
3.54607
3.54602
3.54596
3.5459
3.54585
3.54579
3.54574
3.54569
3.54565
3.54562
3.5456
3.54559
3.54559
3.54562
3.54567
3.54576
3.54587
3.57426
3.57415
3.57407
3.57402
3.57399
3.57399
3.574
3.57402
3.57406
3.57411
3.57416
3.57421
3.57427
3.57433
3.57439
3.57445
3.57451
3.57457
3.57462
3.57467
3.57471
3.57475
3.57479
3.57482
3.57485
3.57487
3.57489
3.57491
3.57492
3.57492
3.57492
3.57492
3.57491
3.57489
3.57487
3.57485
3.57482
3.57479
3.57475
3.57471
3.57467
3.57462
3.57457
3.57451
3.57445
3.57439
3.57433
3.57427
3.57421
3.57416
3.57411
3.57406
3.57402
3.574
3.57399
3.57399
3.57402
3.57407
3.57415
3.57426
3.60271
3.6026
3.60252
3.60247
3.60245
3.60245
3.60246
3.60249
3.60253
3.60258
3.60264
3.6027
3.60276
3.60283
3.60289
3.60295
3.60302
3.60308
3.60313
3.60318
3.60323
3.60328
3.60331
3.60335
3.60338
3.6034
3.60342
3.60344
3.60345
3.60345
3.60345
3.60345
3.60344
3.60342
3.6034
3.60338
3.60335
3.60331
3.60328
3.60323
3.60318
3.60313
3.60308
3.60302
3.60295
3.60289
3.60283
3.60276
3.6027
3.60264
3.60258
3.60253
3.60249
3.60246
3.60245
3.60245
3.60247
3.60252
3.6026
3.60271
3.63126
3.63116
3.63108
3.63103
3.63101
3.63101
3.63103
3.63106
3.63111
3.63116
3.63122
3.63129
3.63135
3.63142
3.63149
3.63156
3.63163
3.63169
3.63175
3.6318
3.63186
3.6319
3.63194
3.63198
3.63201
3.63204
3.63206
3.63207
3.63208
3.63209
3.63209
3.63208
3.63207
3.63206
3.63204
3.63201
3.63198
3.63194
3.6319
3.63186
3.6318
3.63175
3.63169
3.63163
3.63156
3.63149
3.63142
3.63135
3.63129
3.63122
3.63116
3.63111
3.63106
3.63103
3.63101
3.63101
3.63103
3.63108
3.63116
3.63126
3.65996
3.65986
3.65978
3.65974
3.65972
3.65972
3.65975
3.65978
3.65983
3.65989
3.65995
3.66002
3.66009
3.66017
3.66024
3.66031
3.66038
3.66045
3.66051
3.66057
3.66063
3.66068
3.66072
3.66076
3.66079
3.66082
3.66084
3.66086
3.66087
3.66087
3.66087
3.66087
3.66086
3.66084
3.66082
3.66079
3.66076
3.66072
3.66068
3.66063
3.66057
3.66051
3.66045
3.66038
3.66031
3.66024
3.66017
3.66009
3.66002
3.65995
3.65989
3.65983
3.65978
3.65975
3.65972
3.65972
3.65974
3.65978
3.65986
3.65996
3.68884
3.68875
3.68867
3.68863
3.68861
3.68862
3.68865
3.68869
3.68874
3.6888
3.68887
3.68894
3.68902
3.6891
3.68918
3.68926
3.68933
3.6894
3.68947
3.68953
3.68959
3.68964
3.68968
3.68973
3.68976
3.68979
3.68981
3.68983
3.68984
3.68985
3.68985
3.68984
3.68983
3.68981
3.68979
3.68976
3.68973
3.68968
3.68964
3.68959
3.68953
3.68947
3.6894
3.68933
3.68926
3.68918
3.6891
3.68902
3.68894
3.68887
3.6888
3.68874
3.68869
3.68865
3.68862
3.68861
3.68863
3.68867
3.68875
3.68884
3.71795
3.71785
3.71778
3.71774
3.71773
3.71774
3.71777
3.71781
3.71787
3.71794
3.71801
3.71809
3.71817
3.71826
3.71834
3.71842
3.7185
3.71857
3.71865
3.71871
3.71877
3.71883
3.71888
3.71892
3.71896
3.71899
3.71901
3.71903
3.71904
3.71905
3.71905
3.71904
3.71903
3.71901
3.71899
3.71896
3.71892
3.71888
3.71883
3.71877
3.71871
3.71865
3.71857
3.7185
3.71842
3.71834
3.71826
3.71817
3.71809
3.71801
3.71794
3.71787
3.71781
3.71777
3.71774
3.71773
3.71774
3.71778
3.71785
3.71795
3.74731
3.74723
3.74716
3.74712
3.74711
3.74712
3.74716
3.74721
3.74727
3.74734
3.74742
3.7475
3.74759
3.74768
3.74777
3.74785
3.74793
3.74801
3.74809
3.74816
3.74822
3.74828
3.74833
3.74838
3.74842
3.74845
3.74847
3.74849
3.74851
3.74851
3.74851
3.74851
3.74849
3.74847
3.74845
3.74842
3.74838
3.74833
3.74828
3.74822
3.74816
3.74809
3.74801
3.74793
3.74785
3.74777
3.74768
3.74759
3.7475
3.74742
3.74734
3.74727
3.74721
3.74716
3.74712
3.74711
3.74712
3.74716
3.74723
3.74731
3.77698
3.7769
3.77683
3.7768
3.77679
3.77681
3.77684
3.7769
3.77696
3.77704
3.77712
3.77721
3.77731
3.7774
3.77749
3.77758
3.77767
3.77776
3.77783
3.77791
3.77798
3.77804
3.77809
3.77814
3.77818
3.77821
3.77824
3.77826
3.77828
3.77828
3.77828
3.77828
3.77826
3.77824
3.77821
3.77818
3.77814
3.77809
3.77804
3.77798
3.77791
3.77783
3.77776
3.77767
3.77758
3.77749
3.7774
3.77731
3.77721
3.77712
3.77704
3.77696
3.7769
3.77684
3.77681
3.77679
3.7768
3.77683
3.7769
3.77698
3.80699
3.80691
3.80684
3.80681
3.80681
3.80683
3.80687
3.80693
3.807
3.80708
3.80717
3.80726
3.80736
3.80746
3.80756
3.80766
3.80775
3.80784
3.80792
3.808
3.80807
3.80813
3.80819
3.80824
3.80828
3.80832
3.80835
3.80837
3.80838
3.80839
3.80839
3.80838
3.80837
3.80835
3.80832
3.80828
3.80824
3.80819
3.80813
3.80807
3.808
3.80792
3.80784
3.80775
3.80766
3.80756
3.80746
3.80736
3.80726
3.80717
3.80708
3.807
3.80693
3.80687
3.80683
3.80681
3.80681
3.80684
3.80691
3.80699
3.83737
3.83729
3.83723
3.8372
3.8372
3.83722
3.83727
3.83733
3.83741
3.8375
3.83759
3.83769
3.8378
3.8379
3.838
3.83811
3.8382
3.8383
3.83838
3.83847
3.83854
3.83861
3.83867
3.83872
3.83877
3.8388
3.83883
3.83886
3.83887
3.83888
3.83888
3.83887
3.83886
3.83883
3.8388
3.83877
3.83872
3.83867
3.83861
3.83854
3.83847
3.83838
3.8383
3.8382
3.83811
3.838
3.8379
3.8378
3.83769
3.83759
3.8375
3.83741
3.83733
3.83727
3.83722
3.8372
3.8372
3.83723
3.83729
3.83737
3.86816
3.86808
3.86803
3.868
3.868
3.86803
3.86808
3.86815
3.86823
3.86833
3.86843
3.86853
3.86864
3.86875
3.86886
3.86897
3.86907
3.86917
3.86926
3.86935
3.86943
3.8695
3.86956
3.86962
3.86966
3.8697
3.86974
3.86976
3.86978
3.86978
3.86978
3.86978
3.86976
3.86974
3.8697
3.86966
3.86962
3.86956
3.8695
3.86943
3.86935
3.86926
3.86917
3.86907
3.86897
3.86886
3.86875
3.86864
3.86853
3.86843
3.86833
3.86823
3.86815
3.86808
3.86803
3.868
3.868
3.86803
3.86808
3.86816
3.8994
3.89933
3.89927
3.89925
3.89926
3.89929
3.89935
3.89942
3.89951
3.8996
3.89971
3.89982
3.89994
3.90006
3.90017
3.90028
3.90039
3.9005
3.90059
3.90068
3.90077
3.90084
3.90091
3.90097
3.90102
3.90106
3.90109
3.90112
3.90113
3.90114
3.90114
3.90113
3.90112
3.90109
3.90106
3.90102
3.90097
3.90091
3.90084
3.90077
3.90068
3.90059
3.9005
3.90039
3.90028
3.90017
3.90006
3.89994
3.89982
3.89971
3.8996
3.89951
3.89942
3.89935
3.89929
3.89926
3.89925
3.89927
3.89933
3.8994
3.93112
3.93106
3.93101
3.93099
3.931
3.93104
3.9311
3.93117
3.93127
3.93137
3.93148
3.9316
3.93173
3.93185
3.93197
3.93209
3.9322
3.93231
3.93241
3.93251
3.93259
3.93267
3.93274
3.9328
3.93286
3.9329
3.93294
3.93296
3.93298
3.93299
3.93299
3.93298
3.93296
3.93294
3.9329
3.93286
3.9328
3.93274
3.93267
3.93259
3.93251
3.93241
3.93231
3.9322
3.93209
3.93197
3.93185
3.93173
3.9316
3.93148
3.93137
3.93127
3.93117
3.9311
3.93104
3.931
3.93099
3.93101
3.93106
3.93112
3.96337
3.96331
3.96326
3.96325
3.96326
3.9633
3.96337
3.96345
3.96355
3.96366
3.96378
3.96391
3.96404
3.96417
3.96429
3.96442
3.96454
3.96465
3.96476
3.96486
3.96495
3.96503
3.96511
3.96517
3.96523
3.96527
3.96531
3.96534
3.96535
3.96536
3.96536
3.96535
3.96534
3.96531
3.96527
3.96523
3.96517
3.96511
3.96503
3.96495
3.96486
3.96476
3.96465
3.96454
3.96442
3.96429
3.96417
3.96404
3.96391
3.96378
3.96366
3.96355
3.96345
3.96337
3.9633
3.96326
3.96325
3.96326
3.96331
3.96337
3.99618
3.99612
3.99608
3.99607
3.99609
3.99613
3.99621
3.9963
3.9964
3.99652
3.99665
3.99678
3.99691
3.99705
3.99718
3.99731
3.99744
3.99756
3.99767
3.99778
3.99787
3.99796
3.99803
3.9981
3.99816
3.99821
3.99825
3.99827
3.99829
3.9983
3.9983
3.99829
3.99827
3.99825
3.99821
3.99816
3.9981
3.99803
3.99796
3.99787
3.99778
3.99767
3.99756
3.99744
3.99731
3.99718
3.99705
3.99691
3.99678
3.99665
3.99652
3.9964
3.9963
3.99621
3.99613
3.99609
3.99607
3.99608
3.99612
3.99618
4.02959
4.02954
4.0295
4.02949
4.02951
4.02957
4.02964
4.02974
4.02985
4.02998
4.03011
4.03025
4.03039
4.03053
4.03068
4.03081
4.03094
4.03107
4.03119
4.0313
4.0314
4.03149
4.03157
4.03164
4.0317
4.03175
4.03179
4.03182
4.03184
4.03185
4.03185
4.03184
4.03182
4.03179
4.03175
4.0317
4.03164
4.03157
4.03149
4.0314
4.0313
4.03119
4.03107
4.03094
4.03081
4.03068
4.03053
4.03039
4.03025
4.03011
4.02998
4.02985
4.02974
4.02964
4.02957
4.02951
4.02949
4.0295
4.02954
4.02959
4.06364
4.06359
4.06355
4.06355
4.06358
4.06364
4.06372
4.06382
4.06394
4.06407
4.06421
4.06436
4.06451
4.06466
4.06481
4.06495
4.06509
4.06522
4.06534
4.06546
4.06556
4.06566
4.06574
4.06582
4.06588
4.06593
4.06597
4.066
4.06603
4.06604
4.06604
4.06603
4.066
4.06597
4.06593
4.06588
4.06582
4.06574
4.06566
4.06556
4.06546
4.06534
4.06522
4.06509
4.06495
4.06481
4.06466
4.06451
4.06436
4.06421
4.06407
4.06394
4.06382
4.06372
4.06364
4.06358
4.06355
4.06355
4.06359
4.06364
4.09836
4.09831
4.09828
4.09828
4.09832
4.09838
4.09847
4.09858
4.09871
4.09884
4.09899
4.09915
4.09931
4.09946
4.09962
4.09977
4.09992
4.10005
4.10018
4.1003
4.10041
4.10051
4.1006
4.10067
4.10074
4.1008
4.10084
4.10087
4.10089
4.10091
4.10091
4.10089
4.10087
4.10084
4.1008
4.10074
4.10067
4.1006
4.10051
4.10041
4.1003
4.10018
4.10005
4.09992
4.09977
4.09962
4.09946
4.09931
4.09915
4.09899
4.09884
4.09871
4.09858
4.09847
4.09838
4.09832
4.09828
4.09828
4.09831
4.09836
4.1338
4.13376
4.13373
4.13374
4.13378
4.13384
4.13394
4.13406
4.13419
4.13434
4.13449
4.13466
4.13482
4.13499
4.13515
4.13531
4.13546
4.1356
4.13574
4.13586
4.13598
4.13608
4.13617
4.13625
4.13632
4.13638
4.13643
4.13646
4.13648
4.1365
4.1365
4.13648
4.13646
4.13643
4.13638
4.13632
4.13625
4.13617
4.13608
4.13598
4.13586
4.13574
4.1356
4.13546
4.13531
4.13515
4.13499
4.13482
4.13466
4.13449
4.13434
4.13419
4.13406
4.13394
4.13384
4.13378
4.13374
4.13373
4.13376
4.1338
4.16999
4.16995
4.16993
4.16994
4.16999
4.17006
4.17017
4.17029
4.17043
4.17059
4.17075
4.17092
4.1711
4.17127
4.17144
4.17161
4.17177
4.17192
4.17206
4.17219
4.17231
4.17242
4.17251
4.1726
4.17267
4.17273
4.17278
4.17281
4.17284
4.17285
4.17285
4.17284
4.17281
4.17278
4.17273
4.17267
4.1726
4.17251
4.17242
4.17231
4.17219
4.17206
4.17192
4.17177
4.17161
4.17144
4.17127
4.1711
4.17092
4.17075
4.17059
4.17043
4.17029
4.17017
4.17006
4.16999
4.16994
4.16993
4.16995
4.16999
4.20698
4.20695
4.20693
4.20695
4.207
4.20708
4.20719
4.20732
4.20747
4.20763
4.20781
4.20799
4.20817
4.20835
4.20853
4.2087
4.20887
4.20903
4.20918
4.20931
4.20944
4.20955
4.20965
4.20974
4.20981
4.20988
4.20993
4.20996
4.20999
4.21
4.21
4.20999
4.20996
4.20993
4.20988
4.20981
4.20974
4.20965
4.20955
4.20944
4.20931
4.20918
4.20903
4.20887
4.2087
4.20853
4.20835
4.20817
4.20799
4.20781
4.20763
4.20747
4.20732
4.20719
4.20708
4.207
4.20695
4.20693
4.20695
4.20698
4.24481
4.24478
4.24477
4.24479
4.24484
4.24493
4.24505
4.24519
4.24535
4.24552
4.2457
4.24589
4.24608
4.24627
4.24646
4.24664
4.24682
4.24698
4.24714
4.24728
4.24741
4.24753
4.24763
4.24772
4.2478
4.24787
4.24792
4.24796
4.24798
4.248
4.248
4.24798
4.24796
4.24792
4.24787
4.2478
4.24772
4.24763
4.24753
4.24741
4.24728
4.24714
4.24698
4.24682
4.24664
4.24646
4.24627
4.24608
4.24589
4.2457
4.24552
4.24535
4.24519
4.24505
4.24493
4.24484
4.24479
4.24477
4.24478
4.24481
4.28351
4.28348
4.28348
4.28351
4.28357
4.28366
4.28379
4.28394
4.2841
4.28429
4.28448
4.28468
4.28488
4.28508
4.28527
4.28546
4.28565
4.28582
4.28598
4.28613
4.28626
4.28639
4.2865
4.28659
4.28667
4.28674
4.2868
4.28684
4.28686
4.28688
4.28688
4.28686
4.28684
4.2868
4.28674
4.28667
4.28659
4.2865
4.28639
4.28626
4.28613
4.28598
4.28582
4.28565
4.28546
4.28527
4.28508
4.28488
4.28468
4.28448
4.28429
4.2841
4.28394
4.28379
4.28366
4.28357
4.28351
4.28348
4.28348
4.28351
4.32313
4.32311
4.32311
4.32314
4.32321
4.32332
4.32345
4.32361
4.32378
4.32397
4.32418
4.32439
4.3246
4.32481
4.32501
4.32521
4.3254
4.32558
4.32575
4.3259
4.32605
4.32617
4.32629
4.32639
4.32647
4.32654
4.3266
4.32664
4.32667