/*--------------------------------*- C++ -*----------------------------------*\
| =========                 |                                                 |
| \\      /  F ield         | foam-extend: Open Source CFD                    |
|  \\    /   O peration     | Version:     4.0                                |
|   \\  /    A nd           | Web:         http://www.foam-extend.org         |
|    \\/     M anipulation  |                                                 |
\*---------------------------------------------------------------------------*/
FoamFile
{
    version     2.0;
    format      ascii;
    class       volScalarField;
    location    "1970";
    object      psiE;
}
// * * * * * * * * * * * * * * * * * * * * * * * * * * * * * * * * * * * * * //

dimensions      [0 0 0 0 0 0 0];

internalField   nonuniform List<scalar> 
6960
(
0.35343
0.353443
0.353457
0.35347
0.353481
0.353491
0.353499
0.353506
0.353511
0.353516
0.353519
0.353522
0.353525
0.353526
0.353528
0.353529
0.35353
0.353531
0.353532
0.353532
0.353532
0.353533
0.353533
0.353533
0.353533
0.353534
0.353534
0.353534
0.353534
0.353534
0.353534
0.353534
0.353534
0.353534
0.353534
0.353533
0.353533
0.353533
0.353533
0.353532
0.353532
0.353532
0.353531
0.35353
0.353529
0.353528
0.353526
0.353525
0.353522
0.353519
0.353516
0.353511
0.353506
0.353499
0.353491
0.353481
0.35347
0.353457
0.353443
0.35343
0.910972
0.911023
0.91108
0.911132
0.911178
0.911217
0.91125
0.911277
0.911299
0.911317
0.911332
0.911344
0.911353
0.911361
0.911367
0.911372
0.911376
0.911379
0.911382
0.911384
0.911386
0.911387
0.911388
0.911389
0.91139
0.91139
0.91139
0.911391
0.911391
0.911391
0.911391
0.911391
0.911391
0.91139
0.91139
0.91139
0.911389
0.911388
0.911387
0.911386
0.911384
0.911382
0.911379
0.911376
0.911372
0.911367
0.911361
0.911353
0.911344
0.911332
0.911317
0.911299
0.911277
0.91125
0.911217
0.911178
0.911132
0.91108
0.911023
0.910972
1.43495
1.43505
1.43516
1.43526
1.43535
1.43543
1.43549
1.43555
1.43559
1.43562
1.43565
1.43567
1.43569
1.43571
1.43572
1.43573
1.43574
1.43574
1.43575
1.43575
1.43576
1.43576
1.43576
1.43576
1.43576
1.43576
1.43577
1.43577
1.43577
1.43577
1.43577
1.43577
1.43577
1.43577
1.43576
1.43576
1.43576
1.43576
1.43576
1.43576
1.43575
1.43575
1.43574
1.43574
1.43573
1.43572
1.43571
1.43569
1.43567
1.43565
1.43562
1.43559
1.43555
1.43549
1.43543
1.43535
1.43526
1.43516
1.43505
1.43495
1.9551
1.95526
1.95543
1.95558
1.95572
1.95584
1.95593
1.95601
1.95608
1.95613
1.95618
1.95621
1.95624
1.95627
1.95628
1.9563
1.95631
1.95632
1.95633
1.95633
1.95634
1.95634
1.95635
1.95635
1.95635
1.95635
1.95635
1.95635
1.95635
1.95635
1.95635
1.95635
1.95635
1.95635
1.95635
1.95635
1.95635
1.95635
1.95634
1.95634
1.95633
1.95633
1.95632
1.95631
1.9563
1.95628
1.95627
1.95624
1.95621
1.95618
1.95613
1.95608
1.95601
1.95593
1.95584
1.95572
1.95558
1.95543
1.95526
1.9551
2.48101
2.48122
2.48145
2.48166
2.48185
2.48201
2.48214
2.48225
2.48235
2.48242
2.48248
2.48253
2.48257
2.4826
2.48262
2.48264
2.48266
2.48267
2.48268
2.48269
2.4827
2.4827
2.48271
2.48271
2.48272
2.48272
2.48272
2.48272
2.48272
2.48272
2.48272
2.48272
2.48272
2.48272
2.48272
2.48272
2.48271
2.48271
2.4827
2.4827
2.48269
2.48268
2.48267
2.48266
2.48264
2.48262
2.4826
2.48257
2.48253
2.48248
2.48242
2.48235
2.48225
2.48214
2.48201
2.48185
2.48166
2.48145
2.48122
2.48101
3.01581
3.01607
3.01637
3.01664
3.01688
3.01708
3.01725
3.0174
3.01751
3.01761
3.01768
3.01774
3.01779
3.01783
3.01787
3.01789
3.01791
3.01793
3.01794
3.01795
3.01796
3.01797
3.01798
3.01798
3.01798
3.01799
3.01799
3.01799
3.01799
3.01799
3.01799
3.01799
3.01799
3.01799
3.01799
3.01798
3.01798
3.01798
3.01797
3.01796
3.01795
3.01794
3.01793
3.01791
3.01789
3.01787
3.01783
3.01779
3.01774
3.01768
3.01761
3.01751
3.0174
3.01725
3.01708
3.01688
3.01664
3.01637
3.01607
3.01581
3.56047
3.56079
3.56115
3.56148
3.56177
3.56202
3.56223
3.5624
3.56255
3.56266
3.56275
3.56283
3.56289
3.56294
3.56298
3.56301
3.56304
3.56306
3.56307
3.56309
3.5631
3.5631
3.56311
3.56312
3.56312
3.56312
3.56313
3.56313
3.56313
3.56313
3.56313
3.56313
3.56313
3.56313
3.56312
3.56312
3.56312
3.56311
3.5631
3.5631
3.56309
3.56307
3.56306
3.56304
3.56301
3.56298
3.56294
3.56289
3.56283
3.56275
3.56266
3.56255
3.5624
3.56223
3.56202
3.56177
3.56148
3.56115
3.56079
3.56047
4.11523
4.1156
4.11603
4.11642
4.11677
4.11706
4.11731
4.11751
4.11768
4.11782
4.11793
4.11802
4.11809
4.11815
4.11819
4.11823
4.11826
4.11828
4.1183
4.11832
4.11833
4.11834
4.11835
4.11836
4.11836
4.11836
4.11837
4.11837
4.11837
4.11837
4.11837
4.11837
4.11837
4.11837
4.11836
4.11836
4.11836
4.11835
4.11834
4.11833
4.11832
4.1183
4.11828
4.11826
4.11823
4.11819
4.11815
4.11809
4.11802
4.11793
4.11782
4.11768
4.11751
4.11731
4.11706
4.11677
4.11642
4.11603
4.1156
4.11523
4.68006
4.68049
4.68098
4.68144
4.68184
4.68217
4.68246
4.68269
4.68289
4.68304
4.68317
4.68327
4.68336
4.68342
4.68348
4.68352
4.68356
4.68358
4.68361
4.68362
4.68364
4.68365
4.68366
4.68367
4.68367
4.68368
4.68368
4.68368
4.68368
4.68368
4.68368
4.68368
4.68368
4.68368
4.68368
4.68367
4.68367
4.68366
4.68365
4.68364
4.68362
4.68361
4.68358
4.68356
4.68352
4.68348
4.68342
4.68336
4.68327
4.68317
4.68304
4.68289
4.68269
4.68246
4.68217
4.68184
4.68144
4.68098
4.68049
4.68006
5.25482
5.25531
5.25586
5.25638
5.25683
5.25722
5.25754
5.25781
5.25802
5.2582
5.25835
5.25846
5.25856
5.25863
5.2587
5.25874
5.25878
5.25881
5.25884
5.25886
5.25888
5.25889
5.2589
5.25891
5.25892
5.25892
5.25892
5.25893
5.25893
5.25893
5.25893
5.25893
5.25893
5.25892
5.25892
5.25892
5.25891
5.2589
5.25889
5.25888
5.25886
5.25884
5.25881
5.25878
5.25874
5.2587
5.25863
5.25856
5.25846
5.25835
5.2582
5.25802
5.25781
5.25754
5.25722
5.25683
5.25638
5.25586
5.25531
5.25482
5.8393
5.83985
5.84047
5.84105
5.84156
5.84199
5.84235
5.84264
5.84289
5.84309
5.84325
5.84338
5.84349
5.84357
5.84364
5.84369
5.84374
5.84377
5.8438
5.84382
5.84384
5.84386
5.84387
5.84388
5.84388
5.84389
5.84389
5.8439
5.8439
5.8439
5.8439
5.8439
5.8439
5.84389
5.84389
5.84388
5.84388
5.84387
5.84386
5.84384
5.84382
5.8438
5.84377
5.84374
5.84369
5.84364
5.84357
5.84349
5.84338
5.84325
5.84309
5.84289
5.84264
5.84235
5.84199
5.84156
5.84105
5.84047
5.83985
5.8393
6.43326
6.43386
6.43455
6.43519
6.43574
6.43622
6.43662
6.43695
6.43722
6.43744
6.43762
6.43776
6.43788
6.43797
6.43805
6.43811
6.43816
6.43819
6.43823
6.43825
6.43827
6.43829
6.4383
6.43831
6.43832
6.43833
6.43833
6.43833
6.43834
6.43834
6.43834
6.43834
6.43833
6.43833
6.43833
6.43832
6.43831
6.4383
6.43829
6.43827
6.43825
6.43823
6.43819
6.43816
6.43811
6.43805
6.43797
6.43788
6.43776
6.43762
6.43744
6.43722
6.43695
6.43662
6.43622
6.43574
6.43519
6.43455
6.43386
6.43326
7.03636
7.03702
7.03777
7.03847
7.03908
7.0396
7.04004
7.0404
7.04069
7.04093
7.04113
7.04129
7.04141
7.04152
7.0416
7.04167
7.04172
7.04176
7.0418
7.04182
7.04185
7.04186
7.04188
7.04189
7.0419
7.04191
7.04191
7.04191
7.04192
7.04192
7.04192
7.04192
7.04191
7.04191
7.04191
7.0419
7.04189
7.04188
7.04186
7.04185
7.04182
7.0418
7.04176
7.04172
7.04167
7.0416
7.04152
7.04141
7.04129
7.04113
7.04093
7.04069
7.0404
7.04004
7.0396
7.03908
7.03847
7.03777
7.03702
7.03636
7.64823
7.64895
7.64976
7.65052
7.65118
7.65175
7.65222
7.65261
7.65293
7.65319
7.65341
7.65358
7.65372
7.65383
7.65392
7.65399
7.65405
7.6541
7.65413
7.65416
7.65419
7.65421
7.65422
7.65423
7.65424
7.65425
7.65426
7.65426
7.65426
7.65426
7.65426
7.65426
7.65426
7.65426
7.65425
7.65424
7.65423
7.65422
7.65421
7.65419
7.65416
7.65413
7.6541
7.65405
7.65399
7.65392
7.65383
7.65372
7.65358
7.65341
7.65319
7.65293
7.65261
7.65222
7.65175
7.65118
7.65052
7.64976
7.64895
7.64823
8.26843
8.2692
8.27007
8.27089
8.27161
8.27221
8.27272
8.27314
8.27349
8.27377
8.274
8.27419
8.27434
8.27446
8.27455
8.27463
8.27469
8.27474
8.27478
8.27482
8.27484
8.27486
8.27488
8.27489
8.2749
8.27491
8.27492
8.27492
8.27493
8.27493
8.27493
8.27493
8.27492
8.27492
8.27491
8.2749
8.27489
8.27488
8.27486
8.27484
8.27482
8.27478
8.27474
8.27469
8.27463
8.27455
8.27446
8.27434
8.27419
8.274
8.27377
8.27349
8.27314
8.27272
8.27221
8.27161
8.27089
8.27007
8.2692
8.26843
8.89642
8.89724
8.89818
8.89905
8.89982
8.90047
8.90101
8.90147
8.90184
8.90214
8.90239
8.90258
8.90274
8.90287
8.90298
8.90306
8.90313
8.90318
8.90322
8.90326
8.90329
8.90331
8.90333
8.90334
8.90335
8.90336
8.90337
8.90337
8.90337
8.90338
8.90338
8.90337
8.90337
8.90337
8.90336
8.90335
8.90334
8.90333
8.90331
8.90329
8.90326
8.90322
8.90318
8.90313
8.90306
8.90298
8.90287
8.90274
8.90258
8.90239
8.90214
8.90184
8.90147
8.90101
8.90047
8.89982
8.89905
8.89818
8.89724
8.89642
9.53159
9.53246
9.53346
9.53439
9.53521
9.5359
9.53648
9.53696
9.53736
9.53768
9.53794
9.53815
9.53832
9.53846
9.53857
9.53866
9.53873
9.53879
9.53883
9.53887
9.5389
9.53892
9.53894
9.53896
9.53897
9.53898
9.53899
9.53899
9.53899
9.539
9.539
9.53899
9.53899
9.53899
9.53898
9.53897
9.53896
9.53894
9.53892
9.5389
9.53887
9.53883
9.53879
9.53873
9.53866
9.53857
9.53846
9.53832
9.53815
9.53794
9.53768
9.53736
9.53696
9.53648
9.5359
9.53521
9.53439
9.53346
9.53246
9.53159
10.1732
10.1742
10.1752
10.1762
10.1771
10.1778
10.1784
10.1789
10.1793
10.1797
10.18
10.1802
10.1804
10.1805
10.1806
10.1807
10.1808
10.1809
10.1809
10.1809
10.181
10.181
10.181
10.181
10.181
10.1811
10.1811
10.1811
10.1811
10.1811
10.1811
10.1811
10.1811
10.1811
10.1811
10.181
10.181
10.181
10.181
10.181
10.1809
10.1809
10.1809
10.1808
10.1807
10.1806
10.1805
10.1804
10.1802
10.18
10.1797
10.1793
10.1789
10.1784
10.1778
10.1771
10.1762
10.1752
10.1742
10.1732
10.8205
10.8215
10.8226
10.8236
10.8246
10.8253
10.826
10.8265
10.8269
10.8273
10.8276
10.8278
10.828
10.8282
10.8283
10.8284
10.8285
10.8285
10.8286
10.8286
10.8287
10.8287
10.8287
10.8287
10.8288
10.8288
10.8288
10.8288
10.8288
10.8288
10.8288
10.8288
10.8288
10.8288
10.8288
10.8288
10.8287
10.8287
10.8287
10.8287
10.8286
10.8286
10.8285
10.8285
10.8284
10.8283
10.8282
10.828
10.8278
10.8276
10.8273
10.8269
10.8265
10.826
10.8253
10.8246
10.8236
10.8226
10.8215
10.8205
11.4725
11.4735
11.4747
11.4758
11.4767
11.4775
11.4782
11.4788
11.4792
11.4796
11.4799
11.4802
11.4804
11.4805
11.4807
11.4808
11.4809
11.4809
11.481
11.481
11.4811
11.4811
11.4811
11.4811
11.4811
11.4811
11.4812
11.4812
11.4812
11.4812
11.4812
11.4812
11.4812
11.4812
11.4811
11.4811
11.4811
11.4811
11.4811
11.4811
11.481
11.481
11.4809
11.4809
11.4808
11.4807
11.4805
11.4804
11.4802
11.4799
11.4796
11.4792
11.4788
11.4782
11.4775
11.4767
11.4758
11.4747
11.4735
11.4725
12.1281
12.1291
12.1304
12.1315
12.1325
12.1333
12.134
12.1346
12.1351
12.1355
12.1358
12.1361
12.1363
12.1365
12.1366
12.1367
12.1368
12.1369
12.1369
12.137
12.137
12.137
12.1371
12.1371
12.1371
12.1371
12.1371
12.1371
12.1371
12.1371
12.1371
12.1371
12.1371
12.1371
12.1371
12.1371
12.1371
12.1371
12.137
12.137
12.137
12.1369
12.1369
12.1368
12.1367
12.1366
12.1365
12.1363
12.1361
12.1358
12.1355
12.1351
12.1346
12.134
12.1333
12.1325
12.1315
12.1304
12.1291
12.1281
12.786
12.7871
12.7884
12.7896
12.7906
12.7915
12.7922
12.7928
12.7933
12.7937
12.7941
12.7943
12.7945
12.7947
12.7949
12.795
12.7951
12.7951
12.7952
12.7952
12.7953
12.7953
12.7953
12.7954
12.7954
12.7954
12.7954
12.7954
12.7954
12.7954
12.7954
12.7954
12.7954
12.7954
12.7954
12.7954
12.7954
12.7953
12.7953
12.7953
12.7952
12.7952
12.7951
12.7951
12.795
12.7949
12.7947
12.7945
12.7943
12.7941
12.7937
12.7933
12.7928
12.7922
12.7915
12.7906
12.7896
12.7884
12.7871
12.786
13.4448
13.446
13.4473
13.4485
13.4496
13.4505
13.4512
13.4519
13.4524
13.4528
13.4531
13.4534
13.4536
13.4538
13.454
13.4541
13.4542
13.4543
13.4543
13.4544
13.4544
13.4544
13.4545
13.4545
13.4545
13.4545
13.4545
13.4545
13.4545
13.4545
13.4545
13.4545
13.4545
13.4545
13.4545
13.4545
13.4545
13.4545
13.4544
13.4544
13.4544
13.4543
13.4543
13.4542
13.4541
13.454
13.4538
13.4536
13.4534
13.4531
13.4528
13.4524
13.4519
13.4512
13.4505
13.4496
13.4485
13.4473
13.446
13.4448
14.1029
14.104
14.1054
14.1066
14.1077
14.1087
14.1095
14.1101
14.1106
14.1111
14.1114
14.1117
14.1119
14.1121
14.1123
14.1124
14.1125
14.1126
14.1126
14.1127
14.1127
14.1128
14.1128
14.1128
14.1128
14.1128
14.1128
14.1128
14.1128
14.1129
14.1129
14.1128
14.1128
14.1128
14.1128
14.1128
14.1128
14.1128
14.1128
14.1127
14.1127
14.1126
14.1126
14.1125
14.1124
14.1123
14.1121
14.1119
14.1117
14.1114
14.1111
14.1106
14.1101
14.1095
14.1087
14.1077
14.1066
14.1054
14.104
14.1029
14.7582
14.7594
14.7608
14.7621
14.7632
14.7641
14.7649
14.7656
14.7661
14.7666
14.7669
14.7672
14.7675
14.7677
14.7678
14.7679
14.768
14.7681
14.7682
14.7682
14.7683
14.7683
14.7683
14.7684
14.7684
14.7684
14.7684
14.7684
14.7684
14.7684
14.7684
14.7684
14.7684
14.7684
14.7684
14.7684
14.7684
14.7683
14.7683
14.7683
14.7682
14.7682
14.7681
14.768
14.7679
14.7678
14.7677
14.7675
14.7672
14.7669
14.7666
14.7661
14.7656
14.7649
14.7641
14.7632
14.7621
14.7608
14.7594
14.7582
15.4086
15.4098
15.4112
15.4125
15.4137
15.4146
15.4155
15.4161
15.4167
15.4171
15.4175
15.4178
15.418
15.4182
15.4184
15.4185
15.4186
15.4187
15.4188
15.4188
15.4189
15.4189
15.4189
15.4189
15.419
15.419
15.419
15.419
15.419
15.419
15.419
15.419
15.419
15.419
15.419
15.419
15.4189
15.4189
15.4189
15.4189
15.4188
15.4188
15.4187
15.4186
15.4185
15.4184
15.4182
15.418
15.4178
15.4175
15.4171
15.4167
15.4161
15.4155
15.4146
15.4137
15.4125
15.4112
15.4098
15.4086
16.0515
16.0527
16.0541
16.0555
16.0566
16.0576
16.0584
16.0591
16.0597
16.0601
16.0605
16.0608
16.061
16.0612
16.0614
16.0615
16.0616
16.0617
16.0618
16.0618
16.0619
16.0619
16.0619
16.0619
16.062
16.062
16.062
16.062
16.062
16.062
16.062
16.062
16.062
16.062
16.062
16.062
16.0619
16.0619
16.0619
16.0619
16.0618
16.0618
16.0617
16.0616
16.0615
16.0614
16.0612
16.061
16.0608
16.0605
16.0601
16.0597
16.0591
16.0584
16.0576
16.0566
16.0555
16.0541
16.0527
16.0515
16.6838
16.6851
16.6865
16.6878
16.689
16.69
16.6908
16.6915
16.692
16.6925
16.6929
16.6932
16.6934
16.6936
16.6938
16.6939
16.694
16.6941
16.6941
16.6942
16.6942
16.6943
16.6943
16.6943
16.6943
16.6944
16.6944
16.6944
16.6944
16.6944
16.6944
16.6944
16.6944
16.6944
16.6944
16.6943
16.6943
16.6943
16.6943
16.6942
16.6942
16.6941
16.6941
16.694
16.6939
16.6938
16.6936
16.6934
16.6932
16.6929
16.6925
16.692
16.6915
16.6908
16.69
16.689
16.6878
16.6865
16.6851
16.6838
17.3021
17.3033
17.3048
17.3061
17.3072
17.3082
17.309
17.3097
17.3103
17.3107
17.3111
17.3114
17.3116
17.3118
17.312
17.3121
17.3122
17.3123
17.3124
17.3124
17.3125
17.3125
17.3125
17.3125
17.3126
17.3126
17.3126
17.3126
17.3126
17.3126
17.3126
17.3126
17.3126
17.3126
17.3126
17.3126
17.3125
17.3125
17.3125
17.3125
17.3124
17.3124
17.3123
17.3122
17.3121
17.312
17.3118
17.3116
17.3114
17.3111
17.3107
17.3103
17.3097
17.309
17.3082
17.3072
17.3061
17.3048
17.3033
17.3021
17.9021
17.9033
17.9047
17.906
17.9071
17.9081
17.9089
17.9096
17.9101
17.9106
17.9109
17.9112
17.9115
17.9117
17.9118
17.912
17.9121
17.9121
17.9122
17.9123
17.9123
17.9123
17.9124
17.9124
17.9124
17.9124
17.9124
17.9124
17.9124
17.9124
17.9124
17.9124
17.9124
17.9124
17.9124
17.9124
17.9124
17.9124
17.9123
17.9123
17.9123
17.9122
17.9121
17.9121
17.912
17.9118
17.9117
17.9115
17.9112
17.9109
17.9106
17.9101
17.9096
17.9089
17.9081
17.9071
17.906
17.9047
17.9033
17.9021
18.4788
18.48
18.4814
18.4827
18.4838
18.4847
18.4855
18.4861
18.4867
18.4871
18.4875
18.4877
18.488
18.4882
18.4883
18.4884
18.4885
18.4886
18.4887
18.4887
18.4888
18.4888
18.4888
18.4889
18.4889
18.4889
18.4889
18.4889
18.4889
18.4889
18.4889
18.4889
18.4889
18.4889
18.4889
18.4889
18.4889
18.4888
18.4888
18.4888
18.4887
18.4887
18.4886
18.4885
18.4884
18.4883
18.4882
18.488
18.4877
18.4875
18.4871
18.4867
18.4861
18.4855
18.4847
18.4838
18.4827
18.4814
18.48
18.4788
19.0264
19.0276
19.0289
19.0301
19.0311
19.032
19.0327
19.0334
19.0339
19.0343
19.0346
19.0349
19.0351
19.0353
19.0355
19.0356
19.0357
19.0358
19.0358
19.0359
19.0359
19.0359
19.036
19.036
19.036
19.036
19.036
19.036
19.036
19.036
19.036
19.036
19.036
19.036
19.036
19.036
19.036
19.036
19.0359
19.0359
19.0359
19.0358
19.0358
19.0357
19.0356
19.0355
19.0353
19.0351
19.0349
19.0346
19.0343
19.0339
19.0334
19.0327
19.032
19.0311
19.0301
19.0289
19.0276
19.0264
19.5377
19.5388
19.54
19.5411
19.5421
19.543
19.5437
19.5442
19.5447
19.5451
19.5454
19.5457
19.5459
19.5461
19.5462
19.5463
19.5464
19.5465
19.5465
19.5466
19.5466
19.5466
19.5467
19.5467
19.5467
19.5467
19.5467
19.5467
19.5467
19.5467
19.5467
19.5467
19.5467
19.5467
19.5467
19.5467
19.5467
19.5467
19.5466
19.5466
19.5466
19.5465
19.5465
19.5464
19.5463
19.5462
19.5461
19.5459
19.5457
19.5454
19.5451
19.5447
19.5442
19.5437
19.543
19.5421
19.5411
19.54
19.5388
19.5377
20.0049
20.0059
20.0069
20.008
20.0088
20.0096
20.0102
20.0108
20.0112
20.0115
20.0118
20.0121
20.0123
20.0124
20.0125
20.0126
20.0127
20.0128
20.0128
20.0129
20.0129
20.0129
20.013
20.013
20.013
20.013
20.013
20.013
20.013
20.013
20.013
20.013
20.013
20.013
20.013
20.013
20.013
20.013
20.0129
20.0129
20.0129
20.0128
20.0128
20.0127
20.0126
20.0125
20.0124
20.0123
20.0121
20.0118
20.0115
20.0112
20.0108
20.0102
20.0096
20.0088
20.008
20.0069
20.0059
20.0049
20.4197
20.4205
20.4215
20.4223
20.4231
20.4238
20.4243
20.4248
20.4252
20.4255
20.4257
20.4259
20.4261
20.4262
20.4263
20.4264
20.4265
20.4266
20.4266
20.4266
20.4267
20.4267
20.4267
20.4267
20.4268
20.4268
20.4268
20.4268
20.4268
20.4268
20.4268
20.4268
20.4268
20.4268
20.4268
20.4268
20.4267
20.4267
20.4267
20.4267
20.4266
20.4266
20.4266
20.4265
20.4264
20.4263
20.4262
20.4261
20.4259
20.4257
20.4255
20.4252
20.4248
20.4243
20.4238
20.4231
20.4223
20.4215
20.4205
20.4197
20.7756
20.7763
20.777
20.7778
20.7784
20.779
20.7794
20.7798
20.7801
20.7804
20.7806
20.7808
20.7809
20.781
20.7811
20.7812
20.7812
20.7813
20.7813
20.7814
20.7814
20.7814
20.7814
20.7814
20.7815
20.7815
20.7815
20.7815
20.7815
20.7815
20.7815
20.7815
20.7815
20.7815
20.7815
20.7815
20.7814
20.7814
20.7814
20.7814
20.7814
20.7813
20.7813
20.7812
20.7812
20.7811
20.781
20.7809
20.7808
20.7806
20.7804
20.7801
20.7798
20.7794
20.779
20.7784
20.7778
20.777
20.7763
20.7756
21.07
21.0706
21.0712
21.0717
21.0722
21.0727
21.073
21.0733
21.0736
21.0738
21.074
21.0741
21.0742
21.0743
21.0744
21.0744
21.0745
21.0745
21.0746
21.0746
21.0746
21.0746
21.0747
21.0747
21.0747
21.0747
21.0747
21.0747
21.0747
21.0747
21.0747
21.0747
21.0747
21.0747
21.0747
21.0747
21.0747
21.0747
21.0746
21.0746
21.0746
21.0746
21.0745
21.0745
21.0744
21.0744
21.0743
21.0742
21.0741
21.074
21.0738
21.0736
21.0733
21.073
21.0727
21.0722
21.0717
21.0712
21.0706
21.07
21.3063
21.3067
21.3071
21.3075
21.3079
21.3082
21.3085
21.3087
21.3089
21.3091
21.3092
21.3093
21.3094
21.3095
21.3095
21.3096
21.3096
21.3097
21.3097
21.3097
21.3097
21.3097
21.3098
21.3098
21.3098
21.3098
21.3098
21.3098
21.3098
21.3098
21.3098
21.3098
21.3098
21.3098
21.3098
21.3098
21.3098
21.3098
21.3097
21.3097
21.3097
21.3097
21.3097
21.3096
21.3096
21.3095
21.3095
21.3094
21.3093
21.3092
21.3091
21.3089
21.3087
21.3085
21.3082
21.3079
21.3075
21.3071
21.3067
21.3063
21.4927
21.493
21.4933
21.4936
21.4939
21.4941
21.4943
21.4945
21.4947
21.4948
21.4949
21.495
21.495
21.4951
21.4951
21.4952
21.4952
21.4952
21.4952
21.4953
21.4953
21.4953
21.4953
21.4953
21.4953
21.4953
21.4953
21.4953
21.4953
21.4953
21.4953
21.4953
21.4953
21.4953
21.4953
21.4953
21.4953
21.4953
21.4953
21.4953
21.4953
21.4952
21.4952
21.4952
21.4952
21.4951
21.4951
21.495
21.495
21.4949
21.4948
21.4947
21.4945
21.4943
21.4941
21.4939
21.4936
21.4933
21.493
21.4927
21.6405
21.6407
21.6409
21.6411
21.6413
21.6415
21.6416
21.6417
21.6418
21.6419
21.642
21.6421
21.6421
21.6422
21.6422
21.6422
21.6422
21.6423
21.6423
21.6423
21.6423
21.6423
21.6423
21.6423
21.6423
21.6423
21.6423
21.6423
21.6423
21.6424
21.6424
21.6423
21.6423
21.6423
21.6423
21.6423
21.6423
21.6423
21.6423
21.6423
21.6423
21.6423
21.6423
21.6422
21.6422
21.6422
21.6422
21.6421
21.6421
21.642
21.6419
21.6418
21.6417
21.6416
21.6415
21.6413
21.6411
21.6409
21.6407
21.6405
21.7601
21.7602
21.7604
21.7605
21.7606
21.7608
21.7609
21.761
21.761
21.7611
21.7612
21.7612
21.7613
21.7613
21.7613
21.7613
21.7614
21.7614
21.7614
21.7614
21.7614
21.7614
21.7614
21.7614
21.7614
21.7614
21.7614
21.7614
21.7614
21.7615
21.7615
21.7614
21.7614
21.7614
21.7614
21.7614
21.7614
21.7614
21.7614
21.7614
21.7614
21.7614
21.7614
21.7614
21.7613
21.7613
21.7613
21.7613
21.7612
21.7612
21.7611
21.761
21.761
21.7609
21.7608
21.7606
21.7605
21.7604
21.7602
21.7601
21.86
21.86
21.8601
21.8602
21.8603
21.8604
21.8605
21.8606
21.8606
21.8607
21.8607
21.8608
21.8608
21.8608
21.8609
21.8609
21.8609
21.8609
21.8609
21.8609
21.8609
21.8609
21.8609
21.861
21.861
21.861
21.861
21.861
21.861
21.861
21.861
21.861
21.861
21.861
21.861
21.861
21.861
21.8609
21.8609
21.8609
21.8609
21.8609
21.8609
21.8609
21.8609
21.8609
21.8608
21.8608
21.8608
21.8607
21.8607
21.8606
21.8606
21.8605
21.8604
21.8603
21.8602
21.8601
21.86
21.86
21.946
21.946
21.9461
21.9462
21.9462
21.9463
21.9464
21.9464
21.9465
21.9465
21.9465
21.9466
21.9466
21.9466
21.9466
21.9467
21.9467
21.9467
21.9467
21.9467
21.9467
21.9467
21.9467
21.9467
21.9467
21.9467
21.9467
21.9467
21.9467
21.9467
21.9467
21.9467
21.9467
21.9467
21.9467
21.9467
21.9467
21.9467
21.9467
21.9467
21.9467
21.9467
21.9467
21.9467
21.9467
21.9466
21.9466
21.9466
21.9466
21.9465
21.9465
21.9465
21.9464
21.9464
21.9463
21.9462
21.9462
21.9461
21.946
21.946
22.0221
22.0221
22.0221
22.0222
22.0222
22.0223
22.0223
22.0224
22.0224
22.0224
22.0224
22.0225
22.0225
22.0225
22.0225
22.0225
22.0226
22.0226
22.0226
22.0226
22.0226
22.0226
22.0226
22.0226
22.0226
22.0226
22.0226
22.0226
22.0226
22.0226
22.0226
22.0226
22.0226
22.0226
22.0226
22.0226
22.0226
22.0226
22.0226
22.0226
22.0226
22.0226
22.0226
22.0226
22.0225
22.0225
22.0225
22.0225
22.0225
22.0224
22.0224
22.0224
22.0224
22.0223
22.0223
22.0222
22.0222
22.0221
22.0221
22.0221
22.0907
22.0907
22.0907
22.0907
22.0908
22.0908
22.0908
22.0909
22.0909
22.0909
22.0909
22.091
22.091
22.091
22.091
22.091
22.091
22.091
22.0911
22.0911
22.0911
22.0911
22.0911
22.0911
22.0911
22.0911
22.0911
22.0911
22.0911
22.0911
22.0911
22.0911
22.0911
22.0911
22.0911
22.0911
22.0911
22.0911
22.0911
22.0911
22.0911
22.0911
22.091
22.091
22.091
22.091
22.091
22.091
22.091
22.0909
22.0909
22.0909
22.0909
22.0908
22.0908
22.0908
22.0907
22.0907
22.0907
22.0907
22.1535
22.1535
22.1535
22.1536
22.1536
22.1536
22.1536
22.1536
22.1537
22.1537
22.1537
22.1537
22.1537
22.1538
22.1538
22.1538
22.1538
22.1538
22.1538
22.1538
22.1538
22.1538
22.1538
22.1538
22.1538
22.1538
22.1538
22.1538
22.1538
22.1538
22.1538
22.1538
22.1538
22.1538
22.1538
22.1538
22.1538
22.1538
22.1538
22.1538
22.1538
22.1538
22.1538
22.1538
22.1538
22.1538
22.1538
22.1537
22.1537
22.1537
22.1537
22.1537
22.1536
22.1536
22.1536
22.1536
22.1536
22.1535
22.1535
22.1535
22.2118
22.2118
22.2118
22.2118
22.2118
22.2118
22.2118
22.2118
22.2119
22.2119
22.2119
22.2119
22.2119
22.2119
22.2119
22.2119
22.212
22.212
22.212
22.212
22.212
22.212
22.212
22.212
22.212
22.212
22.212
22.212
22.212
22.212
22.212
22.212
22.212
22.212
22.212
22.212
22.212
22.212
22.212
22.212
22.212
22.212
22.212
22.212
22.2119
22.2119
22.2119
22.2119
22.2119
22.2119
22.2119
22.2119
22.2118
22.2118
22.2118
22.2118
22.2118
22.2118
22.2118
22.2118
22.2663
22.2663
22.2663
22.2663
22.2663
22.2663
22.2663
22.2663
22.2663
22.2663
22.2663
22.2664
22.2664
22.2664
22.2664
22.2664
22.2664
22.2664
22.2664
22.2664
22.2664
22.2664
22.2664
22.2664
22.2664
22.2664
22.2664
22.2664
22.2664
22.2664
22.2664
22.2664
22.2664
22.2664
22.2664
22.2664
22.2664
22.2664
22.2664
22.2664
22.2664
22.2664
22.2664
22.2664
22.2664
22.2664
22.2664
22.2664
22.2664
22.2663
22.2663
22.2663
22.2663
22.2663
22.2663
22.2663
22.2663
22.2663
22.2663
22.2663
22.3177
22.3177
22.3177
22.3177
22.3177
22.3177
22.3177
22.3177
22.3177
22.3177
22.3177
22.3177
22.3177
22.3177
22.3177
22.3177
22.3177
22.3178
22.3178
22.3178
22.3178
22.3178
22.3178
22.3178
22.3178
22.3178
22.3178
22.3178
22.3178
22.3178
22.3178
22.3178
22.3178
22.3178
22.3178
22.3178
22.3178
22.3178
22.3178
22.3178
22.3178
22.3178
22.3178
22.3177
22.3177
22.3177
22.3177
22.3177
22.3177
22.3177
22.3177
22.3177
22.3177
22.3177
22.3177
22.3177
22.3177
22.3177
22.3177
22.3177
22.3665
22.3664
22.3664
22.3664
22.3664
22.3664
22.3664
22.3664
22.3664
22.3664
22.3664
22.3664
22.3665
22.3665
22.3665
22.3665
22.3665
22.3665
22.3665
22.3665
22.3665
22.3665
22.3665
22.3665
22.3665
22.3665
22.3665
22.3665
22.3665
22.3665
22.3665
22.3665
22.3665
22.3665
22.3665
22.3665
22.3665
22.3665
22.3665
22.3665
22.3665
22.3665
22.3665
22.3665
22.3665
22.3665
22.3665
22.3665
22.3664
22.3664
22.3664
22.3664
22.3664
22.3664
22.3664
22.3664
22.3664
22.3664
22.3664
22.3665
22.413
22.413
22.413
22.413
22.413
22.413
22.413
22.413
22.413
22.413
22.413
22.413
22.413
22.413
22.413
22.413
22.413
22.413
22.413
22.413
22.413
22.413
22.413
22.413
22.413
22.413
22.413
22.413
22.413
22.413
22.413
22.413
22.413
22.413
22.413
22.413
22.413
22.413
22.413
22.413
22.413
22.413
22.413
22.413
22.413
22.413
22.413
22.413
22.413
22.413
22.413
22.413
22.413
22.413
22.413
22.413
22.413
22.413
22.413
22.413
22.4577
22.4577
22.4576
22.4576
22.4576
22.4576
22.4576
22.4576
22.4576
22.4576
22.4576
22.4576
22.4576
22.4576
22.4576
22.4576
22.4576
22.4576
22.4576
22.4576
22.4576
22.4576
22.4577
22.4577
22.4577
22.4577
22.4577
22.4577
22.4577
22.4577
22.4577
22.4577
22.4577
22.4577
22.4577
22.4577
22.4577
22.4577
22.4576
22.4576
22.4576
22.4576
22.4576
22.4576
22.4576
22.4576
22.4576
22.4576
22.4576
22.4576
22.4576
22.4576
22.4576
22.4576
22.4576
22.4576
22.4576
22.4576
22.4577
22.4577
22.5007
22.5007
22.5007
22.5006
22.5006
22.5006
22.5006
22.5006
22.5006
22.5006
22.5006
22.5006
22.5006
22.5006
22.5006
22.5006
22.5006
22.5006
22.5006
22.5006
22.5006
22.5006
22.5006
22.5006
22.5006
22.5006
22.5006
22.5006
22.5006
22.5006
22.5006
22.5006
22.5006
22.5006
22.5006
22.5006
22.5006
22.5006
22.5006
22.5006
22.5006
22.5006
22.5006
22.5006
22.5006
22.5006
22.5006
22.5006
22.5006
22.5006
22.5006
22.5006
22.5006
22.5006
22.5006
22.5006
22.5006
22.5007
22.5007
22.5007
22.5423
22.5423
22.5422
22.5422
22.5422
22.5422
22.5422
22.5422
22.5422
22.5422
22.5422
22.5422
22.5422
22.5422
22.5422
22.5422
22.5422
22.5422
22.5422
22.5422
22.5422
22.5422
22.5422
22.5422
22.5422
22.5422
22.5422
22.5422
22.5422
22.5422
22.5422
22.5422
22.5422
22.5422
22.5422
22.5422
22.5422
22.5422
22.5422
22.5422
22.5422
22.5422
22.5422
22.5422
22.5422
22.5422
22.5422
22.5422
22.5422
22.5422
22.5422
22.5422
22.5422
22.5422
22.5422
22.5422
22.5422
22.5422
22.5423
22.5423
22.5826
22.5826
22.5826
22.5826
22.5825
22.5825
22.5825
22.5825
22.5825
22.5825
22.5825
22.5825
22.5825
22.5825
22.5825
22.5825
22.5825
22.5825
22.5825
22.5825
22.5825
22.5825
22.5825
22.5825
22.5825
22.5825
22.5825
22.5825
22.5825
22.5825
22.5825
22.5825
22.5825
22.5825
22.5825
22.5825
22.5825
22.5825
22.5825
22.5825
22.5825
22.5825
22.5825
22.5825
22.5825
22.5825
22.5825
22.5825
22.5825
22.5825
22.5825
22.5825
22.5825
22.5825
22.5825
22.5825
22.5826
22.5826
22.5826
22.5826
22.6219
22.6219
22.6219
22.6218
22.6218
22.6218
22.6218
22.6218
22.6217
22.6217
22.6217
22.6217
22.6217
22.6217
22.6217
22.6217
22.6217
22.6217
22.6218
22.6218
22.6218
22.6218
22.6218
22.6218
22.6218
22.6218
22.6218
22.6218
22.6218
22.6218
22.6218
22.6218
22.6218
22.6218
22.6218
22.6218
22.6218
22.6218
22.6218
22.6218
22.6218
22.6218
22.6217
22.6217
22.6217
22.6217
22.6217
22.6217
22.6217
22.6217
22.6217
22.6217
22.6218
22.6218
22.6218
22.6218
22.6218
22.6219
22.6219
22.6219
22.6602
22.6602
22.6602
22.6601
22.6601
22.6601
22.6601
22.6601
22.6601
22.66
22.66
22.66
22.66
22.66
22.66
22.66
22.66
22.66
22.66
22.66
22.66
22.6601
22.6601
22.6601
22.6601
22.6601
22.6601
22.6601
22.6601
22.6601
22.6601
22.6601
22.6601
22.6601
22.6601
22.6601
22.6601
22.6601
22.6601
22.66
22.66
22.66
22.66
22.66
22.66
22.66
22.66
22.66
22.66
22.66
22.66
22.6601
22.6601
22.6601
22.6601
22.6601
22.6601
22.6602
22.6602
22.6602
22.6977
22.6977
22.6976
22.6976
22.6976
22.6976
22.6975
22.6975
22.6975
22.6975
22.6975
22.6975
22.6975
22.6975
22.6975
22.6975
22.6975
22.6975
22.6975
22.6975
22.6975
22.6975
22.6975
22.6975
22.6975
22.6975
22.6975
22.6975
22.6975
22.6975
22.6975
22.6975
22.6975
22.6975
22.6975
22.6975
22.6975
22.6975
22.6975
22.6975
22.6975
22.6975
22.6975
22.6975
22.6975
22.6975
22.6975
22.6975
22.6975
22.6975
22.6975
22.6975
22.6975
22.6975
22.6976
22.6976
22.6976
22.6976
22.6977
22.6977
22.7344
22.7344
22.7344
22.7344
22.7343
22.7343
22.7343
22.7343
22.7343
22.7343
22.7343
22.7342
22.7342
22.7342
22.7342
22.7342
22.7342
22.7342
22.7342
22.7342
22.7342
22.7342
22.7343
22.7343
22.7343
22.7343
22.7343
22.7343
22.7343
22.7343
22.7343
22.7343
22.7343
22.7343
22.7343
22.7343
22.7343
22.7343
22.7342
22.7342
22.7342
22.7342
22.7342
22.7342
22.7342
22.7342
22.7342
22.7342
22.7342
22.7343
22.7343
22.7343
22.7343
22.7343
22.7343
22.7343
22.7344
22.7344
22.7344
22.7344
22.7706
22.7705
22.7705
22.7705
22.7705
22.7704
22.7704
22.7704
22.7704
22.7704
22.7704
22.7704
22.7703
22.7703
22.7703
22.7703
22.7703
22.7703
22.7703
22.7703
22.7703
22.7703
22.7703
22.7704
22.7704
22.7704
22.7704
22.7704
22.7704
22.7704
22.7704
22.7704
22.7704
22.7704
22.7704
22.7704
22.7704
22.7703
22.7703
22.7703
22.7703
22.7703
22.7703
22.7703
22.7703
22.7703
22.7703
22.7703
22.7704
22.7704
22.7704
22.7704
22.7704
22.7704
22.7704
22.7705
22.7705
22.7705
22.7705
22.7706
22.8061
22.8061
22.8061
22.806
22.806
22.806
22.806
22.8059
22.8059
22.8059
22.8059
22.8059
22.8059
22.8059
22.8059
22.8059
22.8059
22.8059
22.8059
22.8059
22.8059
22.8059
22.8059
22.8059
22.8059
22.8059
22.8059
22.8059
22.8059
22.8059
22.8059
22.8059
22.8059
22.8059
22.8059
22.8059
22.8059
22.8059
22.8059
22.8059
22.8059
22.8059
22.8059
22.8059
22.8059
22.8059
22.8059
22.8059
22.8059
22.8059
22.8059
22.8059
22.8059
22.806
22.806
22.806
22.806
22.8061
22.8061
22.8061
22.8412
22.8412
22.8411
22.8411
22.8411
22.841
22.841
22.841
22.841
22.841
22.841
22.841
22.841
22.841
22.841
22.841
22.8409
22.8409
22.8409
22.841
22.841
22.841
22.841