/*--------------------------------*- C++ -*----------------------------------*\
| =========                 |                                                 |
| \\      /  F ield         | foam-extend: Open Source CFD                    |
|  \\    /   O peration     | Version:     4.0                                |
|   \\  /    A nd           | Web:         http://www.foam-extend.org         |
|    \\/     M anipulation  |                                                 |
\*---------------------------------------------------------------------------*/
FoamFile
{
    version     2.0;
    format      ascii;
    class       volScalarField;
    location    "1580";
    object      cMinus;
}
// * * * * * * * * * * * * * * * * * * * * * * * * * * * * * * * * * * * * * //

dimensions      [0 0 0 0 0 0 0];

internalField   nonuniform List<scalar> 
6960
(
1.42617e-23
1.42697e-23
1.42696e-23
1.42679e-23
1.4266e-23
1.42642e-23
1.42625e-23
1.4261e-23
1.42597e-23
1.42585e-23
1.42575e-23
1.42567e-23
1.42559e-23
1.42553e-23
1.42548e-23
1.42543e-23
1.42539e-23
1.42536e-23
1.42533e-23
1.42531e-23
1.42529e-23
1.42527e-23
1.42526e-23
1.42525e-23
1.42524e-23
1.42524e-23
1.42523e-23
1.42523e-23
1.42523e-23
1.42522e-23
1.42522e-23
1.42523e-23
1.42523e-23
1.42523e-23
1.42524e-23
1.42524e-23
1.42525e-23
1.42526e-23
1.42527e-23
1.42529e-23
1.42531e-23
1.42533e-23
1.42536e-23
1.42539e-23
1.42543e-23
1.42548e-23
1.42553e-23
1.42559e-23
1.42567e-23
1.42575e-23
1.42585e-23
1.42597e-23
1.4261e-23
1.42625e-23
1.42642e-23
1.4266e-23
1.42679e-23
1.42696e-23
1.42697e-23
1.42617e-23
5.86476e-23
5.86842e-23
5.86876e-23
5.86848e-23
5.86808e-23
5.86766e-23
5.86728e-23
5.86693e-23
5.86663e-23
5.86637e-23
5.86615e-23
5.86595e-23
5.86579e-23
5.86565e-23
5.86553e-23
5.86544e-23
5.86535e-23
5.86528e-23
5.86523e-23
5.86518e-23
5.86515e-23
5.86512e-23
5.86509e-23
5.86507e-23
5.86506e-23
5.86505e-23
5.86504e-23
5.86504e-23
5.86503e-23
5.86503e-23
5.86503e-23
5.86503e-23
5.86504e-23
5.86504e-23
5.86505e-23
5.86506e-23
5.86507e-23
5.86509e-23
5.86512e-23
5.86515e-23
5.86518e-23
5.86523e-23
5.86528e-23
5.86535e-23
5.86544e-23
5.86553e-23
5.86565e-23
5.86579e-23
5.86595e-23
5.86615e-23
5.86637e-23
5.86663e-23
5.86693e-23
5.86728e-23
5.86766e-23
5.86808e-23
5.86848e-23
5.86876e-23
5.86842e-23
5.86476e-23
1.75901e-22
1.76022e-22
1.76046e-22
1.76051e-22
1.76052e-22
1.76051e-22
1.7605e-22
1.76049e-22
1.76049e-22
1.76048e-22
1.76048e-22
1.76048e-22
1.76048e-22
1.76048e-22
1.76048e-22
1.76048e-22
1.76048e-22
1.76048e-22
1.76049e-22
1.76049e-22
1.76049e-22
1.76049e-22
1.7605e-22
1.7605e-22
1.7605e-22
1.7605e-22
1.76051e-22
1.76051e-22
1.76051e-22
1.76051e-22
1.76051e-22
1.76051e-22
1.76051e-22
1.76051e-22
1.7605e-22
1.7605e-22
1.7605e-22
1.7605e-22
1.76049e-22
1.76049e-22
1.76049e-22
1.76049e-22
1.76048e-22
1.76048e-22
1.76048e-22
1.76048e-22
1.76048e-22
1.76048e-22
1.76048e-22
1.76048e-22
1.76048e-22
1.76049e-22
1.76049e-22
1.7605e-22
1.76051e-22
1.76052e-22
1.76051e-22
1.76046e-22
1.76022e-22
1.75901e-22
4.87943e-22
4.88315e-22
4.88426e-22
4.88485e-22
4.88529e-22
4.88565e-22
4.88596e-22
4.88624e-22
4.88648e-22
4.88671e-22
4.88691e-22
4.88708e-22
4.88724e-22
4.88738e-22
4.8875e-22
4.8876e-22
4.88769e-22
4.88778e-22
4.88785e-22
4.88791e-22
4.88796e-22
4.88801e-22
4.88805e-22
4.88808e-22
4.88811e-22
4.88813e-22
4.88815e-22
4.88816e-22
4.88817e-22
4.88818e-22
4.88818e-22
4.88817e-22
4.88816e-22
4.88815e-22
4.88813e-22
4.88811e-22
4.88808e-22
4.88805e-22
4.88801e-22
4.88796e-22
4.88791e-22
4.88785e-22
4.88778e-22
4.88769e-22
4.8876e-22
4.8875e-22
4.88738e-22
4.88724e-22
4.88708e-22
4.88691e-22
4.88671e-22
4.88648e-22
4.88624e-22
4.88596e-22
4.88565e-22
4.88529e-22
4.88485e-22
4.88426e-22
4.88315e-22
4.87943e-22
1.33643e-21
1.33756e-21
1.33799e-21
1.33829e-21
1.33854e-21
1.33875e-21
1.33894e-21
1.3391e-21
1.33925e-21
1.33939e-21
1.3395e-21
1.33961e-21
1.3397e-21
1.33978e-21
1.33984e-21
1.3399e-21
1.33996e-21
1.34e-21
1.34004e-21
1.34007e-21
1.3401e-21
1.34012e-21
1.34015e-21
1.34016e-21
1.34018e-21
1.34019e-21
1.3402e-21
1.3402e-21
1.34021e-21
1.34021e-21
1.34021e-21
1.34021e-21
1.3402e-21
1.3402e-21
1.34019e-21
1.34018e-21
1.34016e-21
1.34015e-21
1.34012e-21
1.3401e-21
1.34007e-21
1.34004e-21
1.34e-21
1.33996e-21
1.3399e-21
1.33984e-21
1.33978e-21
1.3397e-21
1.33961e-21
1.3395e-21
1.33939e-21
1.33925e-21
1.3391e-21
1.33894e-21
1.33875e-21
1.33854e-21
1.33829e-21
1.33799e-21
1.33756e-21
1.33643e-21
3.69969e-21
3.70314e-21
3.70474e-21
3.70596e-21
3.707e-21
3.70793e-21
3.70875e-21
3.70949e-21
3.71015e-21
3.71072e-21
3.71123e-21
3.71168e-21
3.71207e-21
3.71241e-21
3.71271e-21
3.71296e-21
3.71318e-21
3.71337e-21
3.71354e-21
3.71368e-21
3.7138e-21
3.7139e-21
3.71398e-21
3.71405e-21
3.71411e-21
3.71416e-21
3.7142e-21
3.71422e-21
3.71424e-21
3.71425e-21
3.71425e-21
3.71424e-21
3.71422e-21
3.7142e-21
3.71416e-21
3.71411e-21
3.71405e-21
3.71398e-21
3.7139e-21
3.7138e-21
3.71368e-21
3.71354e-21
3.71337e-21
3.71318e-21
3.71296e-21
3.71271e-21
3.71241e-21
3.71207e-21
3.71168e-21
3.71123e-21
3.71072e-21
3.71015e-21
3.70949e-21
3.70875e-21
3.70793e-21
3.707e-21
3.70596e-21
3.70474e-21
3.70314e-21
3.69969e-21
1.04466e-20
1.04573e-20
1.0463e-20
1.04676e-20
1.04716e-20
1.04753e-20
1.04785e-20
1.04814e-20
1.04839e-20
1.04862e-20
1.04882e-20
1.04899e-20
1.04914e-20
1.04927e-20
1.04939e-20
1.04949e-20
1.04957e-20
1.04965e-20
1.04971e-20
1.04976e-20
1.04981e-20
1.04985e-20
1.04988e-20
1.04991e-20
1.04993e-20
1.04995e-20
1.04996e-20
1.04997e-20
1.04998e-20
1.04998e-20
1.04998e-20
1.04998e-20
1.04997e-20
1.04996e-20
1.04995e-20
1.04993e-20
1.04991e-20
1.04988e-20
1.04985e-20
1.04981e-20
1.04976e-20
1.04971e-20
1.04965e-20
1.04957e-20
1.04949e-20
1.04939e-20
1.04927e-20
1.04914e-20
1.04899e-20
1.04882e-20
1.04862e-20
1.04839e-20
1.04814e-20
1.04785e-20
1.04753e-20
1.04716e-20
1.04676e-20
1.0463e-20
1.04573e-20
1.04466e-20
3.01978e-20
3.02315e-20
3.02513e-20
3.02681e-20
3.0283e-20
3.02964e-20
3.03084e-20
3.03191e-20
3.03287e-20
3.0337e-20
3.03444e-20
3.03509e-20
3.03565e-20
3.03614e-20
3.03656e-20
3.03693e-20
3.03724e-20
3.03751e-20
3.03774e-20
3.03794e-20
3.03811e-20
3.03825e-20
3.03837e-20
3.03847e-20
3.03855e-20
3.03862e-20
3.03867e-20
3.0387e-20
3.03873e-20
3.03874e-20
3.03874e-20
3.03873e-20
3.0387e-20
3.03867e-20
3.03862e-20
3.03855e-20
3.03847e-20
3.03837e-20
3.03825e-20
3.03811e-20
3.03794e-20
3.03774e-20
3.03751e-20
3.03724e-20
3.03693e-20
3.03656e-20
3.03614e-20
3.03565e-20
3.03509e-20
3.03444e-20
3.0337e-20
3.03287e-20
3.03191e-20
3.03084e-20
3.02964e-20
3.0283e-20
3.02681e-20
3.02513e-20
3.02315e-20
3.01978e-20
8.95026e-20
8.96107e-20
8.96801e-20
8.97402e-20
8.97943e-20
8.98431e-20
8.98869e-20
8.99259e-20
8.99605e-20
8.9991e-20
9.00179e-20
9.00413e-20
9.00618e-20
9.00795e-20
9.00949e-20
9.01082e-20
9.01196e-20
9.01294e-20
9.01378e-20
9.01449e-20
9.0151e-20
9.01561e-20
9.01604e-20
9.0164e-20
9.01669e-20
9.01692e-20
9.0171e-20
9.01724e-20
9.01732e-20
9.01737e-20
9.01737e-20
9.01732e-20
9.01724e-20
9.0171e-20
9.01692e-20
9.01669e-20
9.0164e-20
9.01604e-20
9.01561e-20
9.0151e-20
9.01449e-20
9.01378e-20
9.01294e-20
9.01196e-20
9.01082e-20
9.00949e-20
9.00795e-20
9.00618e-20
9.00413e-20
9.00179e-20
8.9991e-20
8.99605e-20
8.99259e-20
8.98869e-20
8.98431e-20
8.97943e-20
8.97402e-20
8.96801e-20
8.96107e-20
8.95026e-20
2.72186e-19
2.7254e-19
2.72784e-19
2.72999e-19
2.73194e-19
2.73371e-19
2.73529e-19
2.7367e-19
2.73796e-19
2.73906e-19
2.74003e-19
2.74088e-19
2.74162e-19
2.74226e-19
2.74282e-19
2.7433e-19
2.74371e-19
2.74406e-19
2.74437e-19
2.74462e-19
2.74484e-19
2.74503e-19
2.74518e-19
2.74531e-19
2.74541e-19
2.7455e-19
2.74556e-19
2.74561e-19
2.74564e-19
2.74566e-19
2.74566e-19
2.74564e-19
2.74561e-19
2.74556e-19
2.7455e-19
2.74541e-19
2.74531e-19
2.74518e-19
2.74503e-19
2.74484e-19
2.74462e-19
2.74437e-19
2.74406e-19
2.74371e-19
2.7433e-19
2.74282e-19
2.74226e-19
2.74162e-19
2.74088e-19
2.74003e-19
2.73906e-19
2.73796e-19
2.7367e-19
2.73529e-19
2.73371e-19
2.73194e-19
2.72999e-19
2.72784e-19
2.7254e-19
2.72186e-19
8.49602e-19
8.50791e-19
8.51653e-19
8.5243e-19
8.53137e-19
8.53778e-19
8.54352e-19
8.54865e-19
8.5532e-19
8.55721e-19
8.56073e-19
8.56381e-19
8.56649e-19
8.56882e-19
8.57084e-19
8.57257e-19
8.57407e-19
8.57535e-19
8.57644e-19
8.57737e-19
8.57816e-19
8.57883e-19
8.57939e-19
8.57985e-19
8.58023e-19
8.58053e-19
8.58077e-19
8.58094e-19
8.58105e-19
8.58111e-19
8.58111e-19
8.58105e-19
8.58094e-19
8.58077e-19
8.58053e-19
8.58023e-19
8.57985e-19
8.57939e-19
8.57883e-19
8.57816e-19
8.57737e-19
8.57644e-19
8.57535e-19
8.57407e-19
8.57257e-19
8.57084e-19
8.56882e-19
8.56649e-19
8.56381e-19
8.56073e-19
8.55721e-19
8.5532e-19
8.54865e-19
8.54352e-19
8.53778e-19
8.53137e-19
8.5243e-19
8.51653e-19
8.50791e-19
8.49602e-19
2.72244e-18
2.72651e-18
2.72961e-18
2.73244e-18
2.73503e-18
2.73737e-18
2.73947e-18
2.74135e-18
2.74302e-18
2.74449e-18
2.74578e-18
2.7469e-18
2.74789e-18
2.74874e-18
2.74947e-18
2.75011e-18
2.75066e-18
2.75112e-18
2.75152e-18
2.75187e-18
2.75215e-18
2.7524e-18
2.7526e-18
2.75277e-18
2.75291e-18
2.75302e-18
2.7531e-18
2.75317e-18
2.75321e-18
2.75323e-18
2.75323e-18
2.75321e-18
2.75317e-18
2.7531e-18
2.75302e-18
2.75291e-18
2.75277e-18
2.7526e-18
2.7524e-18
2.75215e-18
2.75187e-18
2.75152e-18
2.75112e-18
2.75066e-18
2.75011e-18
2.74947e-18
2.74874e-18
2.74789e-18
2.7469e-18
2.74578e-18
2.74449e-18
2.74302e-18
2.74135e-18
2.73947e-18
2.73737e-18
2.73503e-18
2.73244e-18
2.72961e-18
2.72651e-18
2.72244e-18
8.9559e-18
8.97019e-18
8.9815e-18
8.99194e-18
9.00152e-18
9.0102e-18
9.018e-18
9.02496e-18
9.03114e-18
9.03658e-18
9.04137e-18
9.04555e-18
9.04919e-18
9.05234e-18
9.05507e-18
9.05743e-18
9.05945e-18
9.06119e-18
9.06267e-18
9.06393e-18
9.065e-18
9.0659e-18
9.06665e-18
9.06728e-18
9.06779e-18
9.0682e-18
9.06851e-18
9.06874e-18
9.06889e-18
9.06897e-18
9.06897e-18
9.06889e-18
9.06874e-18
9.06851e-18
9.0682e-18
9.06779e-18
9.06728e-18
9.06665e-18
9.0659e-18
9.065e-18
9.06393e-18
9.06267e-18
9.06119e-18
9.05945e-18
9.05743e-18
9.05507e-18
9.05234e-18
9.04919e-18
9.04555e-18
9.04137e-18
9.03658e-18
9.03114e-18
9.02496e-18
9.018e-18
9.0102e-18
9.00152e-18
8.99194e-18
8.9815e-18
8.97019e-18
8.9559e-18
3.02436e-17
3.02948e-17
3.03369e-17
3.0376e-17
3.0412e-17
3.04446e-17
3.0474e-17
3.05002e-17
3.05234e-17
3.05439e-17
3.05619e-17
3.05777e-17
3.05914e-17
3.06032e-17
3.06135e-17
3.06224e-17
3.063e-17
3.06365e-17
3.06421e-17
3.06468e-17
3.06508e-17
3.06542e-17
3.0657e-17
3.06594e-17
3.06613e-17
3.06628e-17
3.0664e-17
3.06649e-17
3.06654e-17
3.06657e-17
3.06657e-17
3.06654e-17
3.06649e-17
3.0664e-17
3.06628e-17
3.06613e-17
3.06594e-17
3.0657e-17
3.06542e-17
3.06508e-17
3.06468e-17
3.06421e-17
3.06365e-17
3.063e-17
3.06224e-17
3.06135e-17
3.06032e-17
3.05914e-17
3.05777e-17
3.05619e-17
3.05439e-17
3.05234e-17
3.05002e-17
3.0474e-17
3.04446e-17
3.0412e-17
3.0376e-17
3.03369e-17
3.02948e-17
3.02436e-17
1.04818e-16
1.05006e-16
1.05165e-16
1.05315e-16
1.05452e-16
1.05577e-16
1.05689e-16
1.0579e-16
1.05879e-16
1.05957e-16
1.06026e-16
1.06086e-16
1.06138e-16
1.06184e-16
1.06223e-16
1.06257e-16
1.06286e-16
1.06311e-16
1.06332e-16
1.06351e-16
1.06366e-16
1.06379e-16
1.0639e-16
1.06399e-16
1.06406e-16
1.06412e-16
1.06416e-16
1.0642e-16
1.06422e-16
1.06423e-16
1.06423e-16
1.06422e-16
1.0642e-16
1.06416e-16
1.06412e-16
1.06406e-16
1.06399e-16
1.0639e-16
1.06379e-16
1.06366e-16
1.06351e-16
1.06332e-16
1.06311e-16
1.06286e-16
1.06257e-16
1.06223e-16
1.06184e-16
1.06138e-16
1.06086e-16
1.06026e-16
1.05957e-16
1.05879e-16
1.0579e-16
1.05689e-16
1.05577e-16
1.05452e-16
1.05315e-16
1.05165e-16
1.05006e-16
1.04818e-16
3.72702e-16
3.73409e-16
3.74023e-16
3.74602e-16
3.75137e-16
3.75623e-16
3.76061e-16
3.76451e-16
3.76797e-16
3.77102e-16
3.77371e-16
3.77605e-16
3.77809e-16
3.77986e-16
3.78139e-16
3.78271e-16
3.78384e-16
3.78481e-16
3.78564e-16
3.78634e-16
3.78694e-16
3.78744e-16
3.78786e-16
3.78821e-16
3.7885e-16
3.78872e-16
3.7889e-16
3.78903e-16
3.78911e-16
3.78915e-16
3.78915e-16
3.78911e-16
3.78903e-16
3.7889e-16
3.78872e-16
3.7885e-16
3.78821e-16
3.78786e-16
3.78744e-16
3.78694e-16
3.78634e-16
3.78564e-16
3.78481e-16
3.78384e-16
3.78271e-16
3.78139e-16
3.77986e-16
3.77809e-16
3.77605e-16
3.77371e-16
3.77102e-16
3.76797e-16
3.76451e-16
3.76061e-16
3.75623e-16
3.75137e-16
3.74602e-16
3.74023e-16
3.73409e-16
3.72702e-16
1.35886e-15
1.36158e-15
1.36399e-15
1.36628e-15
1.3684e-15
1.37033e-15
1.37206e-15
1.37361e-15
1.37498e-15
1.37619e-15
1.37725e-15
1.37818e-15
1.37899e-15
1.37969e-15
1.3803e-15
1.38082e-15
1.38127e-15
1.38166e-15
1.38198e-15
1.38226e-15
1.3825e-15
1.3827e-15
1.38287e-15
1.383e-15
1.38312e-15
1.38321e-15
1.38328e-15
1.38333e-15
1.38336e-15
1.38338e-15
1.38338e-15
1.38336e-15
1.38333e-15
1.38328e-15
1.38321e-15
1.38312e-15
1.383e-15
1.38287e-15
1.3827e-15
1.3825e-15
1.38226e-15
1.38198e-15
1.38166e-15
1.38127e-15
1.38082e-15
1.3803e-15
1.37969e-15
1.37899e-15
1.37818e-15
1.37725e-15
1.37619e-15
1.37498e-15
1.37361e-15
1.37206e-15
1.37033e-15
1.3684e-15
1.36628e-15
1.36399e-15
1.36158e-15
1.35886e-15
5.07638e-15
5.08703e-15
5.09672e-15
5.10594e-15
5.11449e-15
5.12226e-15
5.12926e-15
5.1355e-15
5.14104e-15
5.14593e-15
5.15022e-15
5.15397e-15
5.15723e-15
5.16006e-15
5.16251e-15
5.16462e-15
5.16643e-15
5.16798e-15
5.16931e-15
5.17044e-15
5.17139e-15
5.17219e-15
5.17287e-15
5.17342e-15
5.17388e-15
5.17424e-15
5.17452e-15
5.17472e-15
5.17486e-15
5.17492e-15
5.17492e-15
5.17486e-15
5.17472e-15
5.17452e-15
5.17424e-15
5.17388e-15
5.17342e-15
5.17287e-15
5.17219e-15
5.17139e-15
5.17044e-15
5.16931e-15
5.16798e-15
5.16643e-15
5.16462e-15
5.16251e-15
5.16006e-15
5.15723e-15
5.15397e-15
5.15022e-15
5.14593e-15
5.14104e-15
5.1355e-15
5.12926e-15
5.12226e-15
5.11449e-15
5.10594e-15
5.09672e-15
5.08703e-15
5.07638e-15
1.94121e-14
1.94548e-14
1.94943e-14
1.95322e-14
1.95672e-14
1.95992e-14
1.96279e-14
1.96536e-14
1.96763e-14
1.96964e-14
1.9714e-14
1.97294e-14
1.97428e-14
1.97544e-14
1.97645e-14
1.97732e-14
1.97806e-14
1.9787e-14
1.97924e-14
1.9797e-14
1.9801e-14
1.98043e-14
1.9807e-14
1.98093e-14
1.98112e-14
1.98127e-14
1.98138e-14
1.98146e-14
1.98152e-14
1.98155e-14
1.98155e-14
1.98152e-14
1.98146e-14
1.98138e-14
1.98127e-14
1.98112e-14
1.98093e-14
1.9807e-14
1.98043e-14
1.9801e-14
1.9797e-14
1.97924e-14
1.9787e-14
1.97806e-14
1.97732e-14
1.97645e-14
1.97544e-14
1.97428e-14
1.97294e-14
1.9714e-14
1.96964e-14
1.96763e-14
1.96536e-14
1.96279e-14
1.95992e-14
1.95672e-14
1.95322e-14
1.94943e-14
1.94548e-14
1.94121e-14
7.58898e-14
7.60643e-14
7.62287e-14
7.63864e-14
7.65328e-14
7.66662e-14
7.67862e-14
7.68933e-14
7.69884e-14
7.70722e-14
7.71458e-14
7.72102e-14
7.72662e-14
7.73148e-14
7.73567e-14
7.73929e-14
7.7424e-14
7.74506e-14
7.74734e-14
7.74927e-14
7.7509e-14
7.75228e-14
7.75343e-14
7.75439e-14
7.75517e-14
7.75579e-14
7.75627e-14
7.75662e-14
7.75684e-14
7.75696e-14
7.75696e-14
7.75684e-14
7.75662e-14
7.75627e-14
7.75579e-14
7.75517e-14
7.75439e-14
7.75343e-14
7.75228e-14
7.7509e-14
7.74927e-14
7.74734e-14
7.74506e-14
7.7424e-14
7.73929e-14
7.73567e-14
7.73148e-14
7.72662e-14
7.72102e-14
7.71458e-14
7.70722e-14
7.69884e-14
7.68933e-14
7.67862e-14
7.66662e-14
7.65328e-14
7.63864e-14
7.62287e-14
7.60643e-14
7.58898e-14
3.02833e-13
3.03559e-13
3.04254e-13
3.04922e-13
3.05543e-13
3.06108e-13
3.06617e-13
3.07071e-13
3.07475e-13
3.0783e-13
3.08143e-13
3.08415e-13
3.08653e-13
3.08859e-13
3.09037e-13
3.09191e-13
3.09323e-13
3.09435e-13
3.09532e-13
3.09614e-13
3.09683e-13
3.09742e-13
3.0979e-13
3.09831e-13
3.09864e-13
3.0989e-13
3.0991e-13
3.09925e-13
3.09935e-13
3.0994e-13
3.0994e-13
3.09935e-13
3.09925e-13
3.0991e-13
3.0989e-13
3.09864e-13
3.09831e-13
3.0979e-13
3.09742e-13
3.09683e-13
3.09614e-13
3.09532e-13
3.09435e-13
3.09323e-13
3.09191e-13
3.09037e-13
3.08859e-13
3.08653e-13
3.08415e-13
3.08143e-13
3.0783e-13
3.07475e-13
3.07071e-13
3.06617e-13
3.06108e-13
3.05543e-13
3.04922e-13
3.04254e-13
3.03559e-13
3.02833e-13
1.23109e-12
1.23415e-12
1.23713e-12
1.24e-12
1.24267e-12
1.2451e-12
1.24729e-12
1.24924e-12
1.25098e-12
1.25251e-12
1.25385e-12
1.25502e-12
1.25604e-12
1.25693e-12
1.2577e-12
1.25836e-12
1.25892e-12
1.25941e-12
1.25982e-12
1.26018e-12
1.26047e-12
1.26072e-12
1.26093e-12
1.26111e-12
1.26125e-12
1.26136e-12
1.26145e-12
1.26151e-12
1.26156e-12
1.26158e-12
1.26158e-12
1.26156e-12
1.26151e-12
1.26145e-12
1.26136e-12
1.26125e-12
1.26111e-12
1.26093e-12
1.26072e-12
1.26047e-12
1.26018e-12
1.25982e-12
1.25941e-12
1.25892e-12
1.25836e-12
1.2577e-12
1.25693e-12
1.25604e-12
1.25502e-12
1.25385e-12
1.25251e-12
1.25098e-12
1.24924e-12
1.24729e-12
1.2451e-12
1.24267e-12
1.24e-12
1.23713e-12
1.23415e-12
1.23109e-12
5.08644e-12
5.09958e-12
5.11249e-12
5.12496e-12
5.13656e-12
5.14714e-12
5.15665e-12
5.16515e-12
5.17269e-12
5.17935e-12
5.18519e-12
5.19029e-12
5.19473e-12
5.19859e-12
5.20192e-12
5.20479e-12
5.20725e-12
5.20936e-12
5.21117e-12
5.2127e-12
5.214e-12
5.21509e-12
5.216e-12
5.21676e-12
5.21737e-12
5.21786e-12
5.21824e-12
5.21852e-12
5.2187e-12
5.21879e-12
5.21879e-12
5.2187e-12
5.21852e-12
5.21824e-12
5.21786e-12
5.21737e-12
5.21676e-12
5.216e-12
5.21509e-12
5.214e-12
5.2127e-12
5.21117e-12
5.20936e-12
5.20725e-12
5.20479e-12
5.20192e-12
5.19859e-12
5.19473e-12
5.19029e-12
5.18519e-12
5.17935e-12
5.17269e-12
5.16515e-12
5.15665e-12
5.14714e-12
5.13656e-12
5.12496e-12
5.11249e-12
5.09958e-12
5.08644e-12
2.12985e-11
2.13554e-11
2.14119e-11
2.14666e-11
2.15174e-11
2.15638e-11
2.16055e-11
2.16428e-11
2.16759e-11
2.17051e-11
2.17307e-11
2.17531e-11
2.17726e-11
2.17895e-11
2.18041e-11
2.18167e-11
2.18275e-11
2.18367e-11
2.18446e-11
2.18513e-11
2.1857e-11
2.18618e-11
2.18658e-11
2.18691e-11
2.18718e-11
2.1874e-11
2.18757e-11
2.18769e-11
2.18777e-11
2.1878e-11
2.1878e-11
2.18777e-11
2.18769e-11
2.18757e-11
2.1874e-11
2.18718e-11
2.18691e-11
2.18658e-11
2.18618e-11
2.1857e-11
2.18513e-11
2.18446e-11
2.18367e-11
2.18275e-11
2.18167e-11
2.18041e-11
2.17895e-11
2.17726e-11
2.17531e-11
2.17307e-11
2.17051e-11
2.16759e-11
2.16428e-11
2.16055e-11
2.15638e-11
2.15174e-11
2.14666e-11
2.14119e-11
2.13554e-11
2.12985e-11
9.00802e-11
9.03286e-11
9.05772e-11
9.08181e-11
9.10423e-11
9.12466e-11
9.14306e-11
9.1595e-11
9.17408e-11
9.18694e-11
9.19823e-11
9.2081e-11
9.21669e-11
9.22414e-11
9.23058e-11
9.23613e-11
9.2409e-11
9.24498e-11
9.24846e-11
9.25142e-11
9.25393e-11
9.25604e-11
9.2578e-11
9.25926e-11
9.26045e-11
9.2614e-11
9.26213e-11
9.26267e-11
9.26302e-11
9.26319e-11
9.26319e-11
9.26302e-11
9.26267e-11
9.26213e-11
9.2614e-11
9.26045e-11
9.25926e-11
9.2578e-11
9.25604e-11
9.25393e-11
9.25142e-11
9.24846e-11
9.24498e-11
9.2409e-11
9.23613e-11
9.23058e-11
9.22414e-11
9.21669e-11
9.2081e-11
9.19823e-11
9.18694e-11
9.17408e-11
9.1595e-11
9.14306e-11
9.12466e-11
9.10423e-11
9.08181e-11
9.05772e-11
9.03286e-11
9.00802e-11
3.83299e-10
3.84385e-10
3.85481e-10
3.86543e-10
3.87532e-10
3.88434e-10
3.89246e-10
3.89971e-10
3.90614e-10
3.91182e-10
3.9168e-10
3.92115e-10
3.92494e-10
3.92823e-10
3.93107e-10
3.93352e-10
3.93562e-10
3.93742e-10
3.93896e-10
3.94026e-10
3.94137e-10
3.9423e-10
3.94308e-10
3.94372e-10
3.94425e-10
3.94466e-10
3.94499e-10
3.94522e-10
3.94538e-10
3.94545e-10
3.94545e-10
3.94538e-10
3.94522e-10
3.94499e-10
3.94466e-10
3.94425e-10
3.94372e-10
3.94308e-10
3.9423e-10
3.94137e-10
3.94026e-10
3.93896e-10
3.93742e-10
3.93562e-10
3.93352e-10
3.93107e-10
3.92823e-10
3.92494e-10
3.92115e-10
3.9168e-10
3.91182e-10
3.90614e-10
3.89971e-10
3.89246e-10
3.88434e-10
3.87532e-10
3.86543e-10
3.85481e-10
3.84385e-10
3.83299e-10
1.6333e-09
1.63804e-09
1.64285e-09
1.64752e-09
1.65187e-09
1.65583e-09
1.65939e-09
1.66258e-09
1.66541e-09
1.6679e-09
1.67009e-09
1.672e-09
1.67367e-09
1.67511e-09
1.67636e-09
1.67744e-09
1.67836e-09
1.67915e-09
1.67983e-09
1.6804e-09
1.68089e-09
1.6813e-09
1.68164e-09
1.68192e-09
1.68215e-09
1.68233e-09
1.68248e-09
1.68258e-09
1.68265e-09
1.68268e-09
1.68268e-09
1.68265e-09
1.68258e-09
1.68248e-09
1.68233e-09
1.68215e-09
1.68192e-09
1.68164e-09
1.6813e-09
1.68089e-09
1.6804e-09
1.67983e-09
1.67915e-09
1.67836e-09
1.67744e-09
1.67636e-09
1.67511e-09
1.67367e-09
1.672e-09
1.67009e-09
1.6679e-09
1.66541e-09
1.66258e-09
1.65939e-09
1.65583e-09
1.65187e-09
1.64752e-09
1.64285e-09
1.63804e-09
1.6333e-09
6.93256e-09
6.95309e-09
6.97403e-09
6.99435e-09
7.01326e-09
7.0305e-09
7.04602e-09
7.05989e-09
7.07219e-09
7.08304e-09
7.09257e-09
7.10089e-09
7.10814e-09
7.11442e-09
7.11986e-09
7.12454e-09
7.12855e-09
7.132e-09
7.13493e-09
7.13743e-09
7.13954e-09
7.14132e-09
7.1428e-09
7.14403e-09
7.14504e-09
7.14584e-09
7.14645e-09
7.1469e-09
7.1472e-09
7.14734e-09
7.14734e-09
7.1472e-09
7.1469e-09
7.14645e-09
7.14584e-09
7.14504e-09
7.14403e-09
7.1428e-09
7.14132e-09
7.13954e-09
7.13743e-09
7.13493e-09
7.132e-09
7.12855e-09
7.12454e-09
7.11986e-09
7.11442e-09
7.10814e-09
7.10089e-09
7.09257e-09
7.08304e-09
7.07219e-09
7.05989e-09
7.04602e-09
7.0305e-09
7.01326e-09
6.99435e-09
6.97403e-09
6.95309e-09
6.93256e-09
2.91314e-08
2.9219e-08
2.93087e-08
2.93957e-08
2.94767e-08
2.95505e-08
2.96169e-08
2.96763e-08
2.9729e-08
2.97754e-08
2.98162e-08
2.98518e-08
2.98828e-08
2.99097e-08
2.9933e-08
2.9953e-08
2.99702e-08
2.9985e-08
2.99975e-08
3.00082e-08
3.00172e-08
3.00249e-08
3.00312e-08
3.00365e-08
3.00408e-08
3.00442e-08
3.00468e-08
3.00487e-08
3.005e-08
3.00506e-08
3.00506e-08
3.005e-08
3.00487e-08
3.00468e-08
3.00442e-08
3.00408e-08
3.00365e-08
3.00312e-08
3.00249e-08
3.00172e-08
3.00082e-08
2.99975e-08
2.9985e-08
2.99702e-08
2.9953e-08
2.9933e-08
2.99097e-08
2.98828e-08
2.98518e-08
2.98162e-08
2.97754e-08
2.9729e-08
2.96763e-08
2.96169e-08
2.95505e-08
2.94767e-08
2.93957e-08
2.93087e-08
2.9219e-08
2.91314e-08
1.20348e-07
1.20714e-07
1.21089e-07
1.21453e-07
1.21792e-07
1.221e-07
1.22378e-07
1.22626e-07
1.22846e-07
1.2304e-07
1.23211e-07
1.2336e-07
1.23489e-07
1.23602e-07
1.23699e-07
1.23783e-07
1.23854e-07
1.23916e-07
1.23968e-07
1.24013e-07
1.24051e-07
1.24083e-07
1.24109e-07
1.24131e-07
1.24149e-07
1.24163e-07
1.24174e-07
1.24182e-07
1.24188e-07
1.2419e-07
1.2419e-07
1.24188e-07
1.24182e-07
1.24174e-07
1.24163e-07
1.24149e-07
1.24131e-07
1.24109e-07
1.24083e-07
1.24051e-07
1.24013e-07
1.23968e-07
1.23916e-07
1.23854e-07
1.23783e-07
1.23699e-07
1.23602e-07
1.23489e-07
1.2336e-07
1.23211e-07
1.2304e-07
1.22846e-07
1.22626e-07
1.22378e-07
1.221e-07
1.21792e-07
1.21453e-07
1.21089e-07
1.20714e-07
1.20348e-07
4.8496e-07
4.8644e-07
4.87961e-07
4.89434e-07
4.90804e-07
4.92053e-07
4.93177e-07
4.9418e-07
4.9507e-07
4.95856e-07
4.96545e-07
4.97148e-07
4.97672e-07
4.98127e-07
4.98519e-07
4.98858e-07
4.99149e-07
4.99397e-07
4.9961e-07
4.9979e-07
4.99943e-07
5.00072e-07
5.00179e-07
5.00268e-07
5.0034e-07
5.00398e-07
5.00442e-07
5.00475e-07
5.00496e-07
5.00507e-07
5.00507e-07
5.00496e-07
5.00475e-07
5.00442e-07
5.00398e-07
5.0034e-07
5.00268e-07
5.00179e-07
5.00072e-07
4.99943e-07
4.9979e-07
4.9961e-07
4.99397e-07
4.99149e-07
4.98858e-07
4.98519e-07
4.98127e-07
4.97672e-07
4.97148e-07
4.96545e-07
4.95856e-07
4.9507e-07
4.9418e-07
4.93177e-07
4.92053e-07
4.90804e-07
4.89434e-07
4.87961e-07
4.8644e-07
4.8496e-07
1.88935e-06
1.8951e-06
1.90101e-06
1.90673e-06
1.91204e-06
1.91689e-06
1.92124e-06
1.92514e-06
1.92859e-06
1.93163e-06
1.9343e-06
1.93664e-06
1.93867e-06
1.94043e-06
1.94196e-06
1.94327e-06
1.94439e-06
1.94536e-06
1.94618e-06
1.94688e-06
1.94747e-06
1.94797e-06
1.94839e-06
1.94873e-06
1.94901e-06
1.94924e-06
1.94941e-06
1.94953e-06
1.94962e-06
1.94966e-06
1.94966e-06
1.94962e-06
1.94953e-06
1.94941e-06
1.94924e-06
1.94901e-06
1.94873e-06
1.94839e-06
1.94797e-06
1.94747e-06
1.94688e-06
1.94618e-06
1.94536e-06
1.94439e-06
1.94327e-06
1.94196e-06
1.94043e-06
1.93867e-06
1.93664e-06
1.9343e-06
1.93163e-06
1.92859e-06
1.92514e-06
1.92124e-06
1.91689e-06
1.91204e-06
1.90673e-06
1.90101e-06
1.8951e-06
1.88935e-06
7.04619e-06
7.06742e-06
7.0892e-06
7.11023e-06
7.12977e-06
7.14756e-06
7.16358e-06
7.17788e-06
7.19056e-06
7.20174e-06
7.21156e-06
7.22014e-06
7.2276e-06
7.23408e-06
7.23967e-06
7.24449e-06
7.24863e-06
7.25217e-06
7.25519e-06
7.25776e-06
7.25993e-06
7.26176e-06
7.26329e-06
7.26455e-06
7.26558e-06
7.26641e-06
7.26704e-06
7.2675e-06
7.2678e-06
7.26795e-06
7.26795e-06
7.2678e-06
7.2675e-06
7.26704e-06
7.26641e-06
7.26558e-06
7.26455e-06
7.26329e-06
7.26176e-06
7.25993e-06
7.25776e-06
7.25519e-06
7.25217e-06
7.24863e-06
7.24449e-06
7.23967e-06
7.23408e-06
7.2276e-06
7.22014e-06
7.21156e-06
7.20174e-06
7.19056e-06
7.17788e-06
7.16358e-06
7.14756e-06
7.12977e-06
7.11023e-06
7.0892e-06
7.06742e-06
7.04619e-06
2.4879e-05
2.49524e-05
2.50275e-05
2.50999e-05
2.51671e-05
2.52283e-05
2.52834e-05
2.53326e-05
2.53762e-05
2.54146e-05
2.54483e-05
2.54778e-05
2.55035e-05
2.55257e-05
2.5545e-05
2.55615e-05
2.55757e-05
2.55879e-05
2.55983e-05
2.56071e-05
2.56146e-05
2.56209e-05
2.56261e-05
2.56305e-05
2.5634e-05
2.56368e-05
2.5639e-05
2.56406e-05
2.56416e-05
2.56421e-05
2.56421e-05
2.56416e-05
2.56406e-05
2.5639e-05
2.56368e-05
2.5634e-05
2.56305e-05
2.56261e-05
2.56209e-05
2.56146e-05
2.56071e-05
2.55983e-05
2.55879e-05
2.55757e-05
2.55615e-05
2.5545e-05
2.55257e-05
2.55035e-05
2.54778e-05
2.54483e-05
2.54146e-05
2.53762e-05
2.53326e-05
2.52834e-05
2.52283e-05
2.51671e-05
2.50999e-05
2.50275e-05
2.49524e-05
2.4879e-05
8.21512e-05
8.23857e-05
8.26248e-05
8.28548e-05
8.30681e-05
8.32622e-05
8.34368e-05
8.35926e-05
8.37308e-05
8.38527e-05
8.39596e-05
8.4053e-05
8.41343e-05
8.42048e-05
8.42657e-05
8.43182e-05
8.43632e-05
8.44018e-05
8.44347e-05
8.44626e-05
8.44863e-05
8.45062e-05
8.45228e-05
8.45366e-05
8.45478e-05
8.45567e-05
8.45636e-05
8.45687e-05
8.45719e-05
8.45736e-05
8.45736e-05
8.45719e-05
8.45687e-05
8.45636e-05
8.45567e-05
8.45478e-05
8.45366e-05
8.45228e-05
8.45062e-05
8.44863e-05
8.44626e-05
8.44347e-05
8.44018e-05
8.43632e-05
8.43182e-05
8.42657e-05
8.42048e-05
8.41343e-05
8.4053e-05
8.39596e-05
8.38527e-05
8.37308e-05
8.35926e-05
8.34368e-05
8.32622e-05
8.30681e-05
8.28548e-05
8.26248e-05
8.23857e-05
8.21512e-05
0.000250288
0.000250968
0.000251659
0.000252321
0.000252935
0.000253493
0.000253996
0.000254444
0.000254841
0.000255191
0.000255498
0.000255767
0.000256
0.000256203
0.000256378
0.000256529
0.000256658
0.000256769
0.000256863
0.000256944
0.000257012
0.000257069
0.000257117
0.000257156
0.000257188
0.000257214
0.000257234
0.000257248
0.000257258
0.000257262
0.000257262
0.000257258
0.000257248
0.000257234
0.000257214
0.000257188
0.000257156
0.000257117
0.000257069
0.000257012
0.000256944
0.000256863
0.000256769
0.000256658
0.000256529
0.000256378
0.000256203
0.000256
0.000255767
0.000255498
0.000255191
0.000254841
0.000254444
0.000253996
0.000253493
0.000252935
0.000252321
0.000251659
0.000250968
0.000250288
0.000693516
0.000695279
0.000697056
0.000698756
0.000700329
0.000701759
0.000703044
0.000704191
0.000705208
0.000706104
0.00070689
0.000707577
0.000708175
0.000708693
0.000709141
0.000709526
0.000709857
0.000710141
0.000710382
0.000710588
0.000710762
0.000710908
0.00071103
0.000711131
0.000711213
0.000711279
0.00071133
0.000711367
0.000711391
0.000711403
0.000711403
0.000711391
0.000711367
0.00071133
0.000711279
0.000711213
0.000711131
0.00071103
0.000710908
0.000710762
0.000710588
0.000710382
0.000710141
0.000709857
0.000709526
0.000709141
0.000708693
0.000708175
0.000707577
0.00070689
0.000706104
0.000705208
0.000704191
0.000703044
0.000701759
0.000700329
0.000698756
0.000697056
0.000695279
0.000693516
0.00172296
0.00172696
0.00173096
0.00173477
0.0017383
0.0017415
0.00174438
0.00174694
0.00174922
0.00175122
0.00175298
0.00175452
0.00175585
0.00175701
0.00175801
0.00175887
0.00175962
0.00176025
0.00176079
0.00176125
0.00176164
0.00176196
0.00176224
0.00176246
0.00176265
0.00176279
0.00176291
0.00176299
0.00176304
0.00176307
0.00176307
0.00176304
0.00176299
0.00176291
0.00176279
0.00176265
0.00176246
0.00176224
0.00176196
0.00176164
0.00176125
0.00176079
0.00176025
0.00175962
0.00175887
0.00175801
0.00175701
0.00175585
0.00175452
0.00175298
0.00175122
0.00174922
0.00174694
0.00174438
0.0017415
0.0017383
0.00173477
0.00173096
0.00172696
0.00172296
0.0037927
0.00380052
0.00380827
0.00381564
0.00382244
0.00382861
0.00383415
0.0038391
0.00384348
0.00384734
0.00385072
0.00385368
0.00385625
0.00385848
0.00386041
0.00386207
0.00386349
0.00386471
0.00386575
0.00386664
0.00386739
0.00386802
0.00386854
0.00386898
0.00386933
0.00386962
0.00386983
0.00386999
0.0038701
0.00387015
0.00387015
0.0038701
0.00386999
0.00386983
0.00386962
0.00386933
0.00386898
0.00386854
0.00386802
0.00386739
0.00386664
0.00386575
0.00386471
0.00386349
0.00386207
0.00386041
0.00385848
0.00385625
0.00385368
0.00385072
0.00384734
0.00384348
0.0038391
0.00383415
0.00382861
0.00382244
0.00381564
0.00380827
0.00380052
0.0037927
0.0073524
0.00736551
0.00737839
0.00739057
0.0074018
0.00741198
0.00742112
0.00742927
0.00743649
0.00744286
0.00744844
0.00745331
0.00745755
0.00746122
0.0074644
0.00746713
0.00746948
0.00747149
0.00747321
0.00747467
0.0074759
0.00747694
0.0074778
0.00747852
0.00747911
0.00747957
0.00747993
0.00748019
0.00748037
0.00748045
0.00748045
0.00748037
0.00748019
0.00747993
0.00747957
0.00747911
0.00747852
0.0074778
0.00747694
0.0074759
0.00747467
0.00747321
0.00747149
0.00746948
0.00746713
0.0074644
0.00746122
0.00745755
0.00745331
0.00744844
0.00744286
0.00743649
0.00742927
0.00742112
0.00741198
0.0074018
0.00739057
0.00737839
0.00736551
0.0073524
0.0125885
0.0126075
0.012626
0.0126434
0.0126594
0.0126739
0.0126869
0.0126985
0.0127088
0.0127179
0.0127258
0.0127327
0.0127388
0.012744
0.0127485
0.0127524
0.0127558
0.0127586
0.0127611
0.0127631
0.0127649
0.0127664
0.0127676
0.0127686
0.0127695
0.0127701
0.0127707
0.012771
0.0127713
0.0127714
0.0127714
0.0127713
0.012771
0.0127707
0.0127701
0.0127695
0.0127686
0.0127676
0.0127664
0.0127649
0.0127631
0.0127611
0.0127586
0.0127558
0.0127524
0.0127485
0.012744
0.0127388
0.0127327
0.0127258
0.0127179
0.0127088
0.0126985
0.0126869
0.0126739
0.0126594
0.0126434
0.012626
0.0126075
0.0125885
0.0192792
0.0193037
0.0193272
0.0193492
0.0193694
0.0193877
0.0194041
0.0194188
0.0194317
0.0194432
0.0194532
0.0194619
0.0194696
0.0194762
0.0194819
0.0194868
0.019491
0.0194946
0.0194977
0.0195003
0.0195025
0.0195044
0.019506
0.0195073
0.0195083