/*--------------------------------*- C++ -*----------------------------------*\
| =========                 |                                                 |
| \\      /  F ield         | foam-extend: Open Source CFD                    |
|  \\    /   O peration     | Version:     4.0                                |
|   \\  /    A nd           | Web:         http://www.foam-extend.org         |
|    \\/     M anipulation  |                                                 |
\*---------------------------------------------------------------------------*/
FoamFile
{
    version     2.0;
    format      ascii;
    class       volScalarField;
    location    "950";
    object      cMinus;
}
// * * * * * * * * * * * * * * * * * * * * * * * * * * * * * * * * * * * * * //

dimensions      [0 0 0 0 0 0 0];

internalField   nonuniform List<scalar> 
6960
(
1.38777e-19
1.38563e-19
1.38319e-19
1.38173e-19
1.38093e-19
1.3805e-19
1.38027e-19
1.38015e-19
1.3801e-19
1.38007e-19
1.38006e-19
1.38007e-19
1.38008e-19
1.38009e-19
1.38011e-19
1.38012e-19
1.38014e-19
1.38015e-19
1.38017e-19
1.38018e-19
1.3802e-19
1.38021e-19
1.38022e-19
1.38023e-19
1.38024e-19
1.38025e-19
1.38026e-19
1.38026e-19
1.38027e-19
1.38027e-19
1.38027e-19
1.38027e-19
1.38026e-19
1.38026e-19
1.38025e-19
1.38024e-19
1.38023e-19
1.38022e-19
1.38021e-19
1.3802e-19
1.38018e-19
1.38017e-19
1.38015e-19
1.38014e-19
1.38012e-19
1.38011e-19
1.38009e-19
1.38008e-19
1.38007e-19
1.38006e-19
1.38007e-19
1.3801e-19
1.38015e-19
1.38027e-19
1.3805e-19
1.38093e-19
1.38173e-19
1.38319e-19
1.38563e-19
1.38777e-19
8.3231e-19
8.31475e-19
8.30293e-19
8.29579e-19
8.29184e-19
8.28975e-19
8.28868e-19
8.28817e-19
8.28797e-19
8.28794e-19
8.288e-19
8.28812e-19
8.28828e-19
8.28845e-19
8.28862e-19
8.2888e-19
8.28898e-19
8.28915e-19
8.28932e-19
8.28947e-19
8.28961e-19
8.28975e-19
8.28987e-19
8.28997e-19
8.29006e-19
8.29014e-19
8.2902e-19
8.29025e-19
8.29028e-19
8.2903e-19
8.2903e-19
8.29028e-19
8.29025e-19
8.2902e-19
8.29014e-19
8.29006e-19
8.28997e-19
8.28987e-19
8.28975e-19
8.28961e-19
8.28947e-19
8.28932e-19
8.28915e-19
8.28898e-19
8.2888e-19
8.28862e-19
8.28845e-19
8.28828e-19
8.28812e-19
8.288e-19
8.28794e-19
8.28797e-19
8.28817e-19
8.28868e-19
8.28975e-19
8.29184e-19
8.29579e-19
8.30293e-19
8.31475e-19
8.3231e-19
4.83056e-18
4.82854e-18
4.82357e-18
4.82047e-18
4.81874e-18
4.81783e-18
4.81737e-18
4.81716e-18
4.8171e-18
4.81712e-18
4.81718e-18
4.81727e-18
4.81738e-18
4.81749e-18
4.81761e-18
4.81773e-18
4.81784e-18
4.81795e-18
4.81806e-18
4.81816e-18
4.81825e-18
4.81833e-18
4.81841e-18
4.81847e-18
4.81853e-18
4.81858e-18
4.81862e-18
4.81865e-18
4.81867e-18
4.81868e-18
4.81868e-18
4.81867e-18
4.81865e-18
4.81862e-18
4.81858e-18
4.81853e-18
4.81847e-18
4.81841e-18
4.81833e-18
4.81825e-18
4.81816e-18
4.81806e-18
4.81795e-18
4.81784e-18
4.81773e-18
4.81761e-18
4.81749e-18
4.81738e-18
4.81727e-18
4.81718e-18
4.81712e-18
4.8171e-18
4.81716e-18
4.81737e-18
4.81783e-18
4.81874e-18
4.82047e-18
4.82357e-18
4.82854e-18
4.83056e-18
2.87418e-17
2.87473e-17
2.87295e-17
2.87176e-17
2.87108e-17
2.87072e-17
2.87055e-17
2.87048e-17
2.87048e-17
2.87051e-17
2.87056e-17
2.87063e-17
2.8707e-17
2.87078e-17
2.87085e-17
2.87093e-17
2.871e-17
2.87107e-17
2.87114e-17
2.8712e-17
2.87126e-17
2.87132e-17
2.87136e-17
2.87141e-17
2.87144e-17
2.87148e-17
2.8715e-17
2.87152e-17
2.87153e-17
2.87154e-17
2.87154e-17
2.87153e-17
2.87152e-17
2.8715e-17
2.87148e-17
2.87144e-17
2.87141e-17
2.87136e-17
2.87132e-17
2.87126e-17
2.8712e-17
2.87114e-17
2.87107e-17
2.871e-17
2.87093e-17
2.87085e-17
2.87078e-17
2.8707e-17
2.87063e-17
2.87056e-17
2.87051e-17
2.87048e-17
2.87048e-17
2.87055e-17
2.87072e-17
2.87108e-17
2.87176e-17
2.87295e-17
2.87473e-17
2.87418e-17
1.76871e-16
1.77015e-16
1.76979e-16
1.76947e-16
1.76928e-16
1.76918e-16
1.76913e-16
1.76913e-16
1.76914e-16
1.76917e-16
1.76922e-16
1.76926e-16
1.76931e-16
1.76936e-16
1.76941e-16
1.76946e-16
1.76951e-16
1.76956e-16
1.7696e-16
1.76965e-16
1.76968e-16
1.76972e-16
1.76975e-16
1.76978e-16
1.7698e-16
1.76982e-16
1.76984e-16
1.76985e-16
1.76986e-16
1.76986e-16
1.76986e-16
1.76986e-16
1.76985e-16
1.76984e-16
1.76982e-16
1.7698e-16
1.76978e-16
1.76975e-16
1.76972e-16
1.76968e-16
1.76965e-16
1.7696e-16
1.76956e-16
1.76951e-16
1.76946e-16
1.76941e-16
1.76936e-16
1.76931e-16
1.76926e-16
1.76922e-16
1.76917e-16
1.76914e-16
1.76913e-16
1.76913e-16
1.76918e-16
1.76928e-16
1.76947e-16
1.76979e-16
1.77015e-16
1.76871e-16
1.12509e-15
1.12671e-15
1.12696e-15
1.12703e-15
1.12705e-15
1.12706e-15
1.12707e-15
1.12709e-15
1.12711e-15
1.12714e-15
1.12717e-15
1.1272e-15
1.12724e-15
1.12727e-15
1.12731e-15
1.12734e-15
1.12737e-15
1.12741e-15
1.12743e-15
1.12746e-15
1.12749e-15
1.12751e-15
1.12753e-15
1.12755e-15
1.12757e-15
1.12758e-15
1.12759e-15
1.1276e-15
1.1276e-15
1.12761e-15
1.12761e-15
1.1276e-15
1.1276e-15
1.12759e-15
1.12758e-15
1.12757e-15
1.12755e-15
1.12753e-15
1.12751e-15
1.12749e-15
1.12746e-15
1.12743e-15
1.12741e-15
1.12737e-15
1.12734e-15
1.12731e-15
1.12727e-15
1.12724e-15
1.1272e-15
1.12717e-15
1.12714e-15
1.12711e-15
1.12709e-15
1.12707e-15
1.12706e-15
1.12705e-15
1.12703e-15
1.12696e-15
1.12671e-15
1.12509e-15
7.3767e-15
7.39194e-15
7.39676e-15
7.39897e-15
7.40004e-15
7.4006e-15
7.40094e-15
7.40121e-15
7.40145e-15
7.40168e-15
7.40192e-15
7.40216e-15
7.40241e-15
7.40265e-15
7.40289e-15
7.40312e-15
7.40335e-15
7.40356e-15
7.40376e-15
7.40395e-15
7.40412e-15
7.40428e-15
7.40442e-15
7.40454e-15
7.40465e-15
7.40474e-15
7.40482e-15
7.40487e-15
7.40491e-15
7.40493e-15
7.40493e-15
7.40491e-15
7.40487e-15
7.40482e-15
7.40474e-15
7.40465e-15
7.40454e-15
7.40442e-15
7.40428e-15
7.40412e-15
7.40395e-15
7.40376e-15
7.40356e-15
7.40335e-15
7.40312e-15
7.40289e-15
7.40265e-15
7.40241e-15
7.40216e-15
7.40192e-15
7.40168e-15
7.40145e-15
7.40121e-15
7.40094e-15
7.4006e-15
7.40004e-15
7.39897e-15
7.39676e-15
7.39194e-15
7.3767e-15
4.9652e-14
4.97854e-14
4.9839e-14
4.98658e-14
4.98793e-14
4.98864e-14
4.98905e-14
4.98932e-14
4.98953e-14
4.98973e-14
4.98991e-14
4.99009e-14
4.99026e-14
4.99043e-14
4.9906e-14
4.99076e-14
4.99092e-14
4.99106e-14
4.9912e-14
4.99133e-14
4.99145e-14
4.99156e-14
4.99166e-14
4.99174e-14
4.99182e-14
4.99188e-14
4.99193e-14
4.99197e-14
4.99199e-14
4.99201e-14
4.99201e-14
4.99199e-14
4.99197e-14
4.99193e-14
4.99188e-14
4.99182e-14
4.99174e-14
4.99166e-14
4.99156e-14
4.99145e-14
4.99133e-14
4.9912e-14
4.99106e-14
4.99092e-14
4.99076e-14
4.9906e-14
4.99043e-14
4.99026e-14
4.99009e-14
4.98991e-14
4.98973e-14
4.98953e-14
4.98932e-14
4.98905e-14
4.98864e-14
4.98793e-14
4.98658e-14
4.9839e-14
4.97854e-14
4.9652e-14
3.41348e-13
3.42473e-13
3.42985e-13
3.4325e-13
3.43386e-13
3.43457e-13
3.43497e-13
3.43522e-13
3.4354e-13
3.43555e-13
3.43569e-13
3.43582e-13
3.43595e-13
3.43607e-13
3.43619e-13
3.43631e-13
3.43642e-13
3.43652e-13
3.43662e-13
3.43671e-13
3.43679e-13
3.43687e-13
3.43693e-13
3.43699e-13
3.43705e-13
3.43709e-13
3.43712e-13
3.43715e-13
3.43717e-13
3.43718e-13
3.43718e-13
3.43717e-13
3.43715e-13
3.43712e-13
3.43709e-13
3.43705e-13
3.43699e-13
3.43693e-13
3.43687e-13
3.43679e-13
3.43671e-13
3.43662e-13
3.43652e-13
3.43642e-13
3.43631e-13
3.43619e-13
3.43607e-13
3.43595e-13
3.43582e-13
3.43569e-13
3.43555e-13
3.4354e-13
3.43522e-13
3.43497e-13
3.43457e-13
3.43386e-13
3.4325e-13
3.42985e-13
3.42473e-13
3.41348e-13
2.38196e-12
2.39122e-12
2.39576e-12
2.39815e-12
2.39939e-12
2.40004e-12
2.4004e-12
2.40062e-12
2.40077e-12
2.40089e-12
2.40099e-12
2.40109e-12
2.40118e-12
2.40127e-12
2.40135e-12
2.40144e-12
2.40151e-12
2.40159e-12
2.40165e-12
2.40172e-12
2.40178e-12
2.40183e-12
2.40188e-12
2.40192e-12
2.40196e-12
2.40199e-12
2.40201e-12
2.40203e-12
2.40204e-12
2.40205e-12
2.40205e-12
2.40204e-12
2.40203e-12
2.40201e-12
2.40199e-12
2.40196e-12
2.40192e-12
2.40188e-12
2.40183e-12
2.40178e-12
2.40172e-12
2.40165e-12
2.40159e-12
2.40151e-12
2.40144e-12
2.40135e-12
2.40127e-12
2.40118e-12
2.40109e-12
2.40099e-12
2.40089e-12
2.40077e-12
2.40062e-12
2.4004e-12
2.40004e-12
2.39939e-12
2.39815e-12
2.39576e-12
2.39122e-12
2.38196e-12
1.67456e-11
1.682e-11
1.68585e-11
1.68789e-11
1.68896e-11
1.68951e-11
1.68982e-11
1.69e-11
1.69012e-11
1.69022e-11
1.6903e-11
1.69037e-11
1.69043e-11
1.6905e-11
1.69056e-11
1.69062e-11
1.69067e-11
1.69072e-11
1.69077e-11
1.69082e-11
1.69086e-11
1.6909e-11
1.69093e-11
1.69096e-11
1.69098e-11
1.69101e-11
1.69102e-11
1.69104e-11
1.69105e-11
1.69105e-11
1.69105e-11
1.69105e-11
1.69104e-11
1.69102e-11
1.69101e-11
1.69098e-11
1.69096e-11
1.69093e-11
1.6909e-11
1.69086e-11
1.69082e-11
1.69077e-11
1.69072e-11
1.69067e-11
1.69062e-11
1.69056e-11
1.6905e-11
1.69043e-11
1.69037e-11
1.6903e-11
1.69022e-11
1.69012e-11
1.69e-11
1.68982e-11
1.68951e-11
1.68896e-11
1.68789e-11
1.68585e-11
1.682e-11
1.67456e-11
1.17566e-10
1.18149e-10
1.18462e-10
1.18629e-10
1.18717e-10
1.18763e-10
1.18788e-10
1.18802e-10
1.18812e-10
1.18819e-10
1.18825e-10
1.1883e-10
1.18835e-10
1.18839e-10
1.18843e-10
1.18848e-10
1.18851e-10
1.18855e-10
1.18858e-10
1.18862e-10
1.18864e-10
1.18867e-10
1.18869e-10
1.18872e-10
1.18873e-10
1.18875e-10
1.18876e-10
1.18877e-10
1.18878e-10
1.18878e-10
1.18878e-10
1.18878e-10
1.18877e-10
1.18876e-10
1.18875e-10
1.18873e-10
1.18872e-10
1.18869e-10
1.18867e-10
1.18864e-10
1.18862e-10
1.18858e-10
1.18855e-10
1.18851e-10
1.18848e-10
1.18843e-10
1.18839e-10
1.18835e-10
1.1883e-10
1.18825e-10
1.18819e-10
1.18812e-10
1.18802e-10
1.18788e-10
1.18763e-10
1.18717e-10
1.18629e-10
1.18462e-10
1.18149e-10
1.17566e-10
8.16001e-10
8.20438e-10
8.22874e-10
8.24185e-10
8.24871e-10
8.25231e-10
8.25427e-10
8.2554e-10
8.25613e-10
8.25665e-10
8.25708e-10
8.25745e-10
8.25778e-10
8.2581e-10
8.2584e-10
8.25868e-10
8.25894e-10
8.25919e-10
8.25943e-10
8.25964e-10
8.25984e-10
8.26002e-10
8.26019e-10
8.26033e-10
8.26045e-10
8.26055e-10
8.26064e-10
8.2607e-10
8.26074e-10
8.26076e-10
8.26076e-10
8.26074e-10
8.2607e-10
8.26064e-10
8.26055e-10
8.26045e-10
8.26033e-10
8.26019e-10
8.26002e-10
8.25984e-10
8.25964e-10
8.25943e-10
8.25919e-10
8.25894e-10
8.25868e-10
8.2584e-10
8.2581e-10
8.25778e-10
8.25745e-10
8.25708e-10
8.25665e-10
8.25613e-10
8.2554e-10
8.25427e-10
8.25231e-10
8.24871e-10
8.24185e-10
8.22874e-10
8.20438e-10
8.16001e-10
5.536e-09
5.56837e-09
5.58647e-09
5.59625e-09
5.60137e-09
5.60406e-09
5.60551e-09
5.60635e-09
5.60688e-09
5.60725e-09
5.60755e-09
5.60781e-09
5.60804e-09
5.60825e-09
5.60845e-09
5.60864e-09
5.60882e-09
5.60898e-09
5.60914e-09
5.60928e-09
5.60942e-09
5.60954e-09
5.60964e-09
5.60974e-09
5.60982e-09
5.60989e-09
5.60994e-09
5.60999e-09
5.61001e-09
5.61003e-09
5.61003e-09
5.61001e-09
5.60999e-09
5.60994e-09
5.60989e-09
5.60982e-09
5.60974e-09
5.60964e-09
5.60954e-09
5.60942e-09
5.60928e-09
5.60914e-09
5.60898e-09
5.60882e-09
5.60864e-09
5.60845e-09
5.60825e-09
5.60804e-09
5.60781e-09
5.60755e-09
5.60725e-09
5.60688e-09
5.60635e-09
5.60551e-09
5.60406e-09
5.60137e-09
5.59625e-09
5.58647e-09
5.56837e-09
5.536e-09
3.62536e-08
3.64777e-08
3.66048e-08
3.66735e-08
3.67096e-08
3.67285e-08
3.67387e-08
3.67446e-08
3.67482e-08
3.67508e-08
3.67527e-08
3.67544e-08
3.67559e-08
3.67573e-08
3.67586e-08
3.67598e-08
3.6761e-08
3.6762e-08
3.6763e-08
3.6764e-08
3.67648e-08
3.67656e-08
3.67663e-08
3.67669e-08
3.67674e-08
3.67678e-08
3.67682e-08
3.67684e-08
3.67686e-08
3.67687e-08
3.67687e-08
3.67686e-08
3.67684e-08
3.67682e-08
3.67678e-08
3.67674e-08
3.67669e-08
3.67663e-08
3.67656e-08
3.67648e-08
3.6764e-08
3.6763e-08
3.6762e-08
3.6761e-08
3.67598e-08
3.67586e-08
3.67573e-08
3.67559e-08
3.67544e-08
3.67527e-08
3.67508e-08
3.67482e-08
3.67446e-08
3.67387e-08
3.67285e-08
3.67096e-08
3.66735e-08
3.66048e-08
3.64777e-08
3.62536e-08
2.2608e-07
2.27535e-07
2.28367e-07
2.28818e-07
2.29055e-07
2.29179e-07
2.29246e-07
2.29284e-07
2.29307e-07
2.29323e-07
2.29336e-07
2.29346e-07
2.29356e-07
2.29364e-07
2.29372e-07
2.29379e-07
2.29386e-07
2.29393e-07
2.29399e-07
2.29404e-07
2.29409e-07
2.29414e-07
2.29418e-07
2.29422e-07
2.29425e-07
2.29428e-07
2.2943e-07
2.29431e-07
2.29432e-07
2.29433e-07
2.29433e-07
2.29432e-07
2.29431e-07
2.2943e-07
2.29428e-07
2.29425e-07
2.29422e-07
2.29418e-07
2.29414e-07
2.29409e-07
2.29404e-07
2.29399e-07
2.29393e-07
2.29386e-07
2.29379e-07
2.29372e-07
2.29364e-07
2.29356e-07
2.29346e-07
2.29336e-07
2.29323e-07
2.29307e-07
2.29284e-07
2.29246e-07
2.29179e-07
2.29055e-07
2.28818e-07
2.28367e-07
2.27535e-07
2.2608e-07
1.3233e-06
1.33202e-06
1.33704e-06
1.33976e-06
1.34119e-06
1.34194e-06
1.34235e-06
1.34257e-06
1.34271e-06
1.34281e-06
1.34288e-06
1.34294e-06
1.343e-06
1.34304e-06
1.34309e-06
1.34313e-06
1.34317e-06
1.3432e-06
1.34324e-06
1.34327e-06
1.3433e-06
1.34332e-06
1.34335e-06
1.34337e-06
1.34339e-06
1.3434e-06
1.34341e-06
1.34342e-06
1.34343e-06
1.34343e-06
1.34343e-06
1.34343e-06
1.34342e-06
1.34341e-06
1.3434e-06
1.34339e-06
1.34337e-06
1.34335e-06
1.34332e-06
1.3433e-06
1.34327e-06
1.34324e-06
1.3432e-06
1.34317e-06
1.34313e-06
1.34309e-06
1.34304e-06
1.343e-06
1.34294e-06
1.34288e-06
1.34281e-06
1.34271e-06
1.34257e-06
1.34235e-06
1.34194e-06
1.34119e-06
1.33976e-06
1.33704e-06
1.33202e-06
1.3233e-06
7.16057e-06
7.2081e-06
7.23555e-06
7.25045e-06
7.25828e-06
7.26239e-06
7.26459e-06
7.26583e-06
7.26658e-06
7.2671e-06
7.26748e-06
7.2678e-06
7.26807e-06
7.26832e-06
7.26855e-06
7.26877e-06
7.26897e-06
7.26915e-06
7.26933e-06
7.26949e-06
7.26963e-06
7.26977e-06
7.26988e-06
7.26999e-06
7.27008e-06
7.27015e-06
7.27021e-06
7.27026e-06
7.27029e-06
7.2703e-06
7.2703e-06
7.27029e-06
7.27026e-06
7.27021e-06
7.27015e-06
7.27008e-06
7.26999e-06
7.26988e-06
7.26977e-06
7.26963e-06
7.26949e-06
7.26933e-06
7.26915e-06
7.26897e-06
7.26877e-06
7.26855e-06
7.26832e-06
7.26807e-06
7.2678e-06
7.26748e-06
7.2671e-06
7.26658e-06
7.26583e-06
7.26459e-06
7.26239e-06
7.25828e-06
7.25045e-06
7.23555e-06
7.2081e-06
7.16057e-06
3.52564e-05
3.54881e-05
3.56221e-05
3.56948e-05
3.57331e-05
3.57531e-05
3.57638e-05
3.57698e-05
3.57735e-05
3.5776e-05
3.57778e-05
3.57793e-05
3.57806e-05
3.57817e-05
3.57828e-05
3.57838e-05
3.57847e-05
3.57856e-05
3.57864e-05
3.57871e-05
3.57878e-05
3.57884e-05
3.57889e-05
3.57894e-05
3.57898e-05
3.57902e-05
3.57904e-05
3.57907e-05
3.57908e-05
3.57909e-05
3.57909e-05
3.57908e-05
3.57907e-05
3.57904e-05
3.57902e-05
3.57898e-05
3.57894e-05
3.57889e-05
3.57884e-05
3.57878e-05
3.57871e-05
3.57864e-05
3.57856e-05
3.57847e-05
3.57838e-05
3.57828e-05
3.57817e-05
3.57806e-05
3.57793e-05
3.57778e-05
3.5776e-05
3.57735e-05
3.57698e-05
3.57638e-05
3.57531e-05
3.57331e-05
3.56948e-05
3.56221e-05
3.54881e-05
3.52564e-05
0.00015536
0.000156351
0.000156924
0.000157235
0.000157399
0.000157484
0.00015753
0.000157556
0.000157571
0.000157582
0.000157589
0.000157596
0.000157601
0.000157606
0.00015761
0.000157614
0.000157618
0.000157621
0.000157624
0.000157627
0.00015763
0.000157633
0.000157635
0.000157637
0.000157638
0.00015764
0.000157641
0.000157642
0.000157642
0.000157643
0.000157643
0.000157642
0.000157642
0.000157641
0.00015764
0.000157638
0.000157637
0.000157635
0.000157633
0.00015763
0.000157627
0.000157624
0.000157621
0.000157618
0.000157614
0.00015761
0.000157606
0.000157601
0.000157596
0.000157589
0.000157582
0.000157571
0.000157556
0.00015753
0.000157484
0.000157399
0.000157235
0.000156924
0.000156351
0.00015536
0.00060222
0.000605866
0.000607971
0.000609112
0.000609712
0.000610026
0.000610195
0.000610289
0.000610345
0.000610383
0.00061041
0.000610432
0.000610451
0.000610468
0.000610483
0.000610497
0.00061051
0.000610523
0.000610534
0.000610544
0.000610554
0.000610563
0.00061057
0.000610577
0.000610583
0.000610588
0.000610592
0.000610595
0.000610597
0.000610598
0.000610598
0.000610597
0.000610595
0.000610592
0.000610588
0.000610583
0.000610577
0.00061057
0.000610563
0.000610554
0.000610544
0.000610534
0.000610523
0.00061051
0.000610497
0.000610483
0.000610468
0.000610451
0.000610432
0.00061041
0.000610383
0.000610345
0.000610289
0.000610195
0.000610026
0.000609712
0.000609112
0.000607971
0.000605866
0.00060222
0.00201775
0.00202904
0.00203553
0.00203905
0.0020409
0.00204187
0.00204239
0.00204268
0.00204285
0.00204296
0.00204305
0.00204311
0.00204317
0.00204322
0.00204326
0.00204331
0.00204334
0.00204338
0.00204341
0.00204344
0.00204347
0.0020435
0.00204352
0.00204354
0.00204356
0.00204357
0.00204358
0.00204359
0.0020436
0.0020436
0.0020436
0.0020436
0.00204359
0.00204358
0.00204357
0.00204356
0.00204354
0.00204352
0.0020435
0.00204347
0.00204344
0.00204341
0.00204338
0.00204334
0.00204331
0.00204326
0.00204322
0.00204317
0.00204311
0.00204305
0.00204296
0.00204285
0.00204268
0.00204239
0.00204187
0.0020409
0.00203905
0.00203553
0.00202904
0.00201775
0.00575004
0.00577881
0.00579528
0.00580421
0.0058089
0.00581136
0.00581268
0.00581341
0.00581385
0.00581414
0.00581434
0.00581451
0.00581464
0.00581477
0.00581488
0.00581498
0.00581507
0.00581516
0.00581524
0.00581532
0.00581539
0.00581545
0.0058155
0.00581555
0.00581559
0.00581563
0.00581565
0.00581567
0.00581569
0.0058157
0.0058157
0.00581569
0.00581567
0.00581565
0.00581563
0.00581559
0.00581555
0.0058155
0.00581545
0.00581539
0.00581532
0.00581524
0.00581516
0.00581507
0.00581498
0.00581488
0.00581477
0.00581464
0.00581451
0.00581434
0.00581414
0.00581385
0.00581341
0.00581268
0.00581136
0.0058089
0.00580421
0.00579528
0.00577881
0.00575004
0.0137862
0.0138458
0.0138797
0.0138981
0.0139077
0.0139128
0.0139155
0.013917
0.0139179
0.0139185
0.0139189
0.0139193
0.0139195
0.0139198
0.01392
0.0139202
0.0139204
0.0139206
0.0139207
0.0139209
0.013921
0.0139211
0.0139212
0.0139213
0.0139214
0.0139215
0.0139215
0.0139216
0.0139216
0.0139216
0.0139216
0.0139216
0.0139216
0.0139215
0.0139215
0.0139214
0.0139213
0.0139212
0.0139211
0.013921
0.0139209
0.0139207
0.0139206
0.0139204
0.0139202
0.01392
0.0139198
0.0139195
0.0139193
0.0139189
0.0139185
0.0139179
0.013917
0.0139155
0.0139128
0.0139077
0.0138981
0.0138797
0.0138458
0.0137862
0.027805
0.0279055
0.0279624
0.0279932
0.0280094
0.0280179
0.0280224
0.028025
0.0280265
0.0280274
0.0280281
0.0280287
0.0280291
0.0280295
0.0280299
0.0280302
0.0280305
0.0280308
0.028031
0.0280312
0.0280315
0.0280317
0.0280318
0.028032
0.0280321
0.0280322
0.0280323
0.0280324
0.0280324
0.0280324
0.0280324
0.0280324
0.0280324
0.0280323
0.0280322
0.0280321
0.028032
0.0280318
0.0280317
0.0280315
0.0280312
0.028031
0.0280308
0.0280305
0.0280302
0.0280299
0.0280295
0.0280291
0.0280287
0.0280281
0.0280274
0.0280265
0.028025
0.0280224
0.0280179
0.0280094
0.0279932
0.0279624
0.0279055
0.027805
0.0478522
0.0479939
0.0480736
0.0481168
0.0481395
0.0481515
0.0481578
0.0481614
0.0481635
0.0481648
0.0481658
0.0481665
0.0481671
0.0481677
0.0481681
0.0481686
0.048169
0.0481693
0.0481697
0.04817
0.0481703
0.0481705
0.0481708
0.048171
0.0481711
0.0481713
0.0481714
0.0481715
0.0481715
0.0481716
0.0481716
0.0481715
0.0481715
0.0481714
0.0481713
0.0481711
0.048171
0.0481708
0.0481705
0.0481703
0.04817
0.0481697
0.0481693
0.048169
0.0481686
0.0481681
0.0481677
0.0481671
0.0481665
0.0481658
0.0481648
0.0481635
0.0481614
0.0481578
0.0481515
0.0481395
0.0481168
0.0480736
0.0479939
0.0478522
0.0721788
0.0723537
0.0724517
0.0725046
0.0725326
0.0725473
0.0725552
0.0725596
0.0725622
0.0725638
0.072565
0.0725658
0.0725666
0.0725672
0.0725678
0.0725683
0.0725687
0.0725692
0.0725696
0.0725699
0.0725703
0.0725705
0.0725708
0.072571
0.0725712
0.0725714
0.0725715
0.0725716
0.0725717
0.0725718
0.0725718
0.0725717
0.0725716
0.0725715
0.0725714
0.0725712
0.072571
0.0725708
0.0725705
0.0725703
0.0725699
0.0725696
0.0725692
0.0725687
0.0725683
0.0725678
0.0725672
0.0725666
0.0725658
0.072565
0.0725638
0.0725622
0.0725596
0.0725552
0.0725473
0.0725326
0.0725046
0.0724517
0.0723537
0.0721788
0.0985228
0.098722
0.098833
0.098893
0.0989249
0.0989416
0.0989506
0.0989556
0.0989586
0.0989604
0.0989617
0.0989627
0.0989635
0.0989642
0.0989648
0.0989653
0.0989658
0.0989663
0.0989667
0.0989671
0.0989674
0.0989678
0.098968
0.0989683
0.0989685
0.0989687
0.0989688
0.0989689
0.098969
0.098969
0.098969
0.098969
0.0989689
0.0989688
0.0989687
0.0989685
0.0989683
0.098968
0.0989678
0.0989674
0.0989671
0.0989667
0.0989663
0.0989658
0.0989653
0.0989648
0.0989642
0.0989635
0.0989627
0.0989617
0.0989604
0.0989586
0.0989556
0.0989506
0.0989416
0.0989249
0.098893
0.098833
0.098722
0.0985228
0.125313
0.125531
0.125652
0.125718
0.125753
0.125771
0.125781
0.125786
0.12579
0.125792
0.125793
0.125794
0.125795
0.125796
0.125796
0.125797
0.125797
0.125798
0.125798
0.125799
0.125799
0.125799
0.1258
0.1258
0.1258
0.1258
0.1258
0.125801
0.125801
0.125801
0.125801
0.125801
0.125801
0.1258
0.1258
0.1258
0.1258
0.1258
0.125799
0.125799
0.125799
0.125798
0.125798
0.125797
0.125797
0.125796
0.125796
0.125795
0.125794
0.125793
0.125792
0.12579
0.125786
0.125781
0.125771
0.125753
0.125718
0.125652
0.125531
0.125313
0.15187
0.152104
0.152234
0.152304
0.152342
0.152362
0.152373
0.152379
0.152382
0.152384
0.152386
0.152387
0.152388
0.152388
0.152389
0.15239
0.15239
0.152391
0.152391
0.152392
0.152392
0.152392
0.152393
0.152393
0.152393
0.152393
0.152393
0.152393
0.152394
0.152394
0.152394
0.152394
0.152393
0.152393
0.152393
0.152393
0.152393
0.152393
0.152392
0.152392
0.152392
0.152391
0.152391
0.15239
0.15239
0.152389
0.152388
0.152388
0.152387
0.152386
0.152384
0.152382
0.152379
0.152373
0.152362
0.152342
0.152304
0.152234
0.152104
0.15187
0.178033
0.178282
0.17842
0.178495
0.178536
0.178557
0.178569
0.178575
0.178579
0.178582
0.178583
0.178584
0.178585
0.178586
0.178587
0.178587
0.178588
0.178588
0.178589
0.178589
0.178589
0.17859
0.17859
0.17859
0.178591
0.178591
0.178591
0.178591
0.178591
0.178591
0.178591
0.178591
0.178591
0.178591
0.178591
0.178591
0.17859
0.17859
0.17859
0.178589
0.178589
0.178589
0.178588
0.178588
0.178587
0.178587
0.178586
0.178585
0.178584
0.178583
0.178582
0.178579
0.178575
0.178569
0.178557
0.178536
0.178495
0.17842
0.178282
0.178033
0.203818
0.20408
0.204227
0.204307
0.204351
0.204374
0.204386
0.204393
0.204397
0.2044
0.204402
0.204403
0.204404
0.204405
0.204405
0.204406
0.204406
0.204407
0.204407
0.204408
0.204408
0.204408
0.204409
0.204409
0.204409
0.204409
0.20441
0.20441
0.20441
0.20441
0.20441
0.20441
0.20441
0.20441
0.204409
0.204409
0.204409
0.204409
0.204408
0.204408
0.204408
0.204407
0.204407
0.204406
0.204406
0.204405
0.204405
0.204404
0.204403
0.204402
0.2044
0.204397
0.204393
0.204386
0.204374
0.204351
0.204307
0.204227
0.20408
0.203818
0.229258
0.229534
0.229689
0.229774
0.229821
0.229845
0.229859
0.229866
0.229871
0.229873
0.229875
0.229876
0.229877
0.229878
0.229879
0.22988
0.22988
0.229881
0.229881
0.229882
0.229882
0.229882
0.229883
0.229883
0.229883
0.229883
0.229883
0.229883
0.229884
0.229884
0.229884
0.229884
0.229883
0.229883
0.229883
0.229883
0.229883
0.229883
0.229882
0.229882
0.229882
0.229881
0.229881
0.22988
0.22988
0.229879
0.229878
0.229877
0.229876
0.229875
0.229873
0.229871
0.229866
0.229859
0.229845
0.229821
0.229774
0.229689
0.229534
0.229258
0.254368
0.254657
0.25482
0.25491
0.254959
0.254986
0.255
0.255008
0.255013
0.255016
0.255018
0.255019
0.25502
0.255021
0.255022
0.255022
0.255023
0.255024
0.255024
0.255024
0.255025
0.255025
0.255025
0.255026
0.255026
0.255026
0.255026
0.255026
0.255026
0.255026
0.255026
0.255026
0.255026
0.255026
0.255026
0.255026
0.255026
0.255025
0.255025
0.255025
0.255024
0.255024
0.255024
0.255023
0.255022
0.255022
0.255021
0.25502
0.255019
0.255018
0.255016
0.255013
0.255008
0.255
0.254986
0.254959
0.25491
0.25482
0.254657
0.254368
0.279144
0.279445
0.279616
0.279711
0.279763
0.279791
0.279807
0.279816
0.279821
0.279824
0.279826
0.279827
0.279828
0.279829
0.27983
0.27983
0.279831
0.279832
0.279832
0.279832
0.279833
0.279833
0.279833
0.279834
0.279834
0.279834
0.279834
0.279834
0.279834
0.279834
0.279834
0.279834
0.279834
0.279834
0.279834
0.279834
0.279834
0.279833
0.279833
0.279833
0.279832
0.279832
0.279832
0.279831
0.27983
0.27983
0.279829
0.279828
0.279827
0.279826
0.279824
0.279821
0.279816
0.279807
0.279791
0.279763
0.279711
0.279616
0.279445
0.279144
0.303573
0.303884
0.304063
0.304163
0.304218
0.304248
0.304265
0.304274
0.304279
0.304283
0.304285
0.304286
0.304287
0.304288
0.304289
0.30429
0.30429
0.304291
0.304291
0.304292
0.304292
0.304292
0.304293
0.304293
0.304293
0.304293
0.304294
0.304294
0.304294
0.304294
0.304294
0.304294
0.304294
0.304294
0.304293
0.304293
0.304293
0.304293
0.304292
0.304292
0.304292
0.304291
0.304291
0.30429
0.30429
0.304289
0.304288
0.304287
0.304286
0.304285
0.304283
0.304279
0.304274
0.304265
0.304248
0.304218
0.304163
0.304063
0.303884
0.303573
0.327637
0.327957
0.328143
0.328248
0.328306
0.328338
0.328356
0.328366
0.328372
0.328375
0.328377
0.328379
0.32838
0.328381
0.328382
0.328383
0.328383
0.328384
0.328384
0.328385
0.328385
0.328385
0.328386
0.328386
0.328386
0.328386
0.328386
0.328386
0.328387
0.328387
0.328387
0.328387
0.328386
0.328386
0.328386
0.328386
0.328386
0.328386
0.328385
0.328385
0.328385
0.328384
0.328384
0.328383
0.328383
0.328382
0.328381
0.32838
0.328379
0.328377
0.328375
0.328372
0.328366
0.328356
0.328338
0.328306
0.328248
0.328143
0.327957
0.327637
0.351316
0.351645
0.351838
0.351948
0.352009
0.352043
0.352061
0.352072
0.352078
0.352082
0.352084
0.352086
0.352087
0.352088
0.352089
0.35209
0.35209
0.352091
0.352091
0.352092
0.352092
0.352092
0.352093
0.352093
0.352093
0.352093
0.352093
0.352094
0.352094
0.352094
0.352094
0.352094
0.352094
0.352093
0.352093
0.352093
0.352093
0.352093
0.352092
0.352092
0.352092
0.352091
0.352091
0.35209
0.35209
0.352089
0.352088
0.352087
0.352086
0.352084
0.352082
0.352078
0.352072
0.352061
0.352043
0.352009
0.351948
0.351838
0.351645
0.351316
0.374592
0.374929
0.375128
0.375242
0.375306
0.375342
0.375362
0.375373
0.37538
0.375384
0.375387
0.375388
0.37539
0.375391
0.375391
0.375392
0.375393
0.375393
0.375394
0.375394
0.375394
0.375395
0.375395
0.375395
0.375395
0.375396
0.375396
0.375396
0.375396
0.375396
0.375396
0.375396
0.375396
0.375396
0.375396
0.375395
0.375395
0.375395
0.375395
0.375394
0.375394
0.375394
0.375393
0.375393
0.375392
0.375391
0.375391
0.37539
0.375388
0.375387
0.375384
0.37538
0.375373
0.375362
0.375342
0.375306
0.375242
0.375128
0.374929
0.374592
0.397446
0.39779
0.397996
0.398114
0.398181
0.398219
0.39824
0.398252
0.398259
0.398263
0.398266
0.398268
0.398269
0.39827
0.398271
0.398272
0.398272
0.398273
0.398273
0.398274
0.398274
0.398274
0.398275
0.398275
0.398275
0.398275
0.398276
0.398276
0.398276
0.398276
0.398276
0.398276
0.398276
0.398276
0.398275
0.398275
0.398275
0.398275
0.398274
0.398274
0.398274
0.398273
0.398273
0.398272
0.398272
0.398271
0.39827
0.398269
0.398268
0.398266
0.398263
0.398259
0.398252
0.39824
0.398219
0.398181
0.398114
0.397996
0.39779
0.397446
0.419863
0.420213
0.420424
0.420547
0.420617
0.420656
0.420679
0.420692
0.420699
0.420704
0.420706
0.420708
0.42071
0.420711
0.420712
0.420712
0.420713
0.420713
0.420714
0.420714
0.420715
0.420715
0.420715
0.420716
0.420716
0.420716
0.420716
0.420716
0.420716
0.420716
0.420716
0.420716
0.420716
0.420716
0.420716
0.420716
0.420716
0.420715
0.420715
0.420715
0.420714
0.420714
0.420713
0.420713
0.420712
0.420712
0.420711
0.42071
0.420708
0.420706
0.420704
0.420699
0.420692
0.420679
0.420656
0.420617
0.420547
0.420424
0.420213
0.419863
0.441827
0.442181
0.442398
0.442525
0.442598
0.442639
0.442663
0.442676
0.442684
0.442689
0.442692
0.442694
0.442696
0.442697
0.442698
0.442698
0.442699
0.442699
0.4427
0.4427
0.442701
0.442701
0.442701
0.442702
0.442702
0.442702
0.442702
0.442702
0.442702
0.442702
0.442702
0.442702
0.442702
0.442702
0.442702
0.442702
0.442702
0.442701
0.442701
0.442701
0.4427
0.4427
0.442699
0.442699
0.442698
0.442698
0.442697
0.442696
0.442694
0.442692
0.442689
0.442684
0.442676
0.442663
0.442639
0.442598
0.442525
0.442398
0.442181
0.441827
0.463324
0.463682
0.463903
0.464034
0.46411
0.464154
0.464179
0.464193
0.464202
0.464207
0.46421
0.464212
0.464214
0.464215
0.464216
0.464216
0.464217
0.464217
0.464218
0.464218
0.464219
0.464219
0.464219
0.464219
0.46422
0.46422
0.46422
0.46422
0.46422
0.46422
0.46422
0.46422
0.46422
0.46422
0.46422
0.46422
0.464219
0.464219
0.464219
0.464219
0.464218
0.464218
0.464217
0.464217
0.464216
0.464216
0.464215
0.464214
0.464212
0.46421
0.464207
0.464202
0.464193
0.464179
0.464154
0.46411
0.464034
0.463903
0.463682
0.463324
0.484343
0.484704
0.484929
0.485064
0.485143
0.485188
0.485215
0.48523
0.485239
0.485244
0.485248
0.48525
0.485252
0.485253
0.485254
0.485254
0.485255
0.485255
0.485256
0.485256
0.485257
0.485257
0.485257
0.485257
0.485258
0.485258
0.485258
0.485258
0.485258
0.485258
0.485258
0.485258
0.485258
0.485258
0.485258
0.485258
0.485257
0.485257
0.485257
0.485257
0.485256
0.485256
0.485255
0.485255
0.485254
0.485254
0.485253
0.485252
0.48525
0.485248
0.485244
0.485239
0.48523
0.485215
0.485188
0.485143
0.485064
0.484929
0.484704
0.484343
0.504872
0.505236
0.505465
0.505603
0.505685
0.505732
0.50576
0.505776
0.505786
0.505792
0.505795
0.505798
0.505799
0.5058
0.505801
0.505802
0.505803
0.505803
0.505804
0.505804
0.505804
0.505805
0.505805
0.505805
0.505805
0.505805
0.505806
0.505806
0.505806
0.505806
0.505806
0.505806
0.505806
0.505806
0.505805
0.505805
0.505805
0.505805
0.505805
0.505804
0.505804
0.505804
0.505803
0.505803
0.505802
0.505801
0.5058
0.505799
0.505798
0.505795
0.505792
0.505786
0.505776
0.50576
0.505732
0.505685
0.505603
0.505465
0.505236
0.504872
0.524904
0.525269
0.525502
0.525643
0.525728
0.525777
0.525806
0.525823
0.525833
0.52584
0.525843
0.525846
0.525848
0.525849
0.52585
0.525851
0.525851
0.525852
0.525852
0.525852
0.525853
0.525853
0.525853
0.525854
0.525854
0.525854
0.525854
0.525854
0.525854
0.525854
0.525854
0.525854
0.525854
0.525854
0.525854
0.525854
0.525854
0.525853
0.525853
0.525853
0.525852
0.525852
0.525852
0.525851
0.525851
0.52585
0.525849
0.525848
0.525846
0.525843
0.52584
0.525833
0.525823
0.525806
0.525777
0.525728
0.525643
0.525502
0.525269
0.524904
0.544432
0.544797
0.545032
0.545177
0.545264
0.545316
0.545346
0.545364
0.545375
0.545381
0.545385
0.545388
0.54539
0.545391
0.545392
0.545393
0.545393
0.545394
0.545394
0.545395
0.545395
0.545395
0.545396
0.545396
0.545396
0.545396
0.545396
0.545396
0.545396
0.545396
0.545396
0.545396
0.545396
0.545396