/*--------------------------------*- C++ -*----------------------------------*\
| =========                 |                                                 |
| \\      /  F ield         | foam-extend: Open Source CFD                    |
|  \\    /   O peration     | Version:     4.0                                |
|   \\  /    A nd           | Web:         http://www.foam-extend.org         |
|    \\/     M anipulation  |                                                 |
\*---------------------------------------------------------------------------*/
FoamFile
{
    version     2.0;
    format      ascii;
    class       surfaceScalarField;
    location    "21";
    object      phi;
}
// * * * * * * * * * * * * * * * * * * * * * * * * * * * * * * * * * * * * * //

dimensions      [0 3 -1 0 0 0 0];

internalField   nonuniform List<scalar> 
13744
(
1.2636e-28
9.59236e-28
1.45163e-28
-5.98523e-29
6.26708e-29
1.90277e-29
-2.98643e-29
6.2855e-29
-1.31021e-28
1.00454e-28
-2.22292e-28
1.09666e-28
-2.85634e-28
9.20185e-29
-3.15744e-28
6.18879e-29
-3.1666e-28
2.53167e-29
-2.93629e-28
-1.28028e-29
-2.54869e-28
-4.59599e-29
-2.08777e-28
-7.08116e-29
-1.63456e-28
-8.50135e-29
-1.25175e-28
-8.85853e-29
-9.84364e-29
-8.20816e-29
-8.54323e-29
-6.74904e-29
-8.62935e-29
-4.70483e-29
-9.91148e-29
-2.37818e-29
-1.20379e-28
-7.84503e-31
-1.45407e-28
1.87139e-29
-1.6905e-28
3.20164e-29
-1.86467e-28
3.71491e-29
-1.93926e-28
3.34754e-29
-1.89475e-28
2.17807e-29
-1.73336e-28
4.28608e-30
-1.47928e-28
-1.56408e-29
-1.17458e-28
-3.41143e-29
-8.71558e-29
-4.74586e-29
-6.22549e-29
-5.29557e-29
-4.69469e-29
-4.94179e-29
-4.34779e-29
-3.74702e-29
-5.16056e-29
-1.94304e-29
-6.85176e-29
1.09573e-30
-8.92565e-29
2.00051e-29
-1.07607e-28
3.34478e-29
-1.17264e-28
3.86996e-29
-1.13167e-28
3.46182e-29
-9.26064e-29
2.19598e-29
-5.61334e-29
3.16316e-30
-7.65203e-30
-1.81084e-29
4.57631e-29
-3.76136e-29
9.53188e-29
-5.15876e-29
1.31689e-28
-5.69657e-29
1.47637e-28
-5.29176e-29
1.39036e-28
-3.9412e-29
1.07358e-28
-1.98082e-29
5.8703e-29
3.68445e-30
4.66293e-30
2.47387e-29
-4.17192e-29
4.22787e-29
-6.70412e-29
4.97067e-29
-6.31612e-29
5.12131e-29
-2.87784e-29
4.18878e-29
2.82864e-29
3.30819e-29
9.06694e-29
2.02748e-29
1.40183e-28
1.80832e-29
1.53372e-28
1.83052e-29
1.33143e-28
2.64013e-29
7.39142e-29
3.18654e-29
2.03277e-29
2.97037e-29
-4.21096e-30
3.6461e-28
6.31623e-28
4.26145e-28
-2.26468e-28
2.00817e-28
2.54444e-29
-6.89807e-29
1.89157e-28
-3.67517e-28
3.33759e-28
-6.46553e-28
3.87877e-28
-8.44761e-28
3.39577e-28
-9.49152e-28
2.51672e-28
-9.65357e-28
1.32888e-28
-9.09762e-28
5.79312e-30
-8.03642e-28
-1.11106e-28
-6.72737e-28
-2.01881e-28
-5.40056e-28
-2.59818e-28
-4.25253e-28
-2.82405e-28
-3.41781e-28
-2.71833e-28
-2.97269e-28
-2.33265e-28
-2.92751e-28
-1.73845e-28
-3.23705e-28
-1.02383e-28
-3.80537e-28
-2.85206e-29
-4.50286e-28
3.77418e-29
-5.18248e-28
8.73185e-29
-5.7036e-28
1.13109e-28
-5.95372e-28
1.11562e-28
-5.86918e-28
8.34375e-29
-5.44718e-28
3.42193e-29
-4.7484e-28
-2.66463e-29
-3.88686e-28
-8.72293e-29
-3.00948e-28
-1.35398e-28
-2.2676e-28
-1.61267e-28
-1.78666e-28
-1.59283e-28
-1.63907e-28
-1.29575e-28
-1.8269e-28
-7.80195e-29
-2.27689e-28
-1.52913e-29
-2.85138e-28
4.55456e-29
-3.37159e-28
9.14273e-29
-3.65265e-28
1.12533e-28
-3.54094e-28
1.03898e-28
-2.95112e-28
6.72677e-29
-1.89046e-28
9.97634e-30
-4.70056e-29
-5.55417e-29
1.1077e-28
-1.15434e-28
2.57936e-28
-1.56392e-28
3.67132e-28
-1.69362e-28
4.15875e-28
-1.51385e-28
3.92274e-28
-1.05514e-28
2.99492e-28
-4.27952e-29
1.56677e-28
2.54651e-29
-2.76983e-30
8.12488e-29
-1.38449e-28
1.18837e-28
-2.11683e-28
1.24937e-28
-1.96806e-28
1.13144e-28
-9.16709e-29
7.96602e-29
8.12637e-29
5.76901e-29
2.68354e-28
4.26988e-29
4.16683e-28
6.40867e-29
4.54455e-28
1.03282e-28
3.9489e-28
1.38491e-28
2.13747e-28
1.64388e-28
6.59921e-29
1.1889e-28
-2.11653e-29
6.01873e-28
1.84334e-28
7.08855e-28
-4.6906e-28
3.49562e-28
4.56669e-30
-9.6078e-29
3.46163e-28
-5.95606e-28
6.59475e-28
-1.07191e-27
7.99165e-28
-1.4164e-27
7.2052e-28
-1.60819e-27
5.68317e-28
-1.65114e-27
3.42549e-28
-1.57241e-27
9.53348e-29
-1.40492e-27
-1.41527e-28
-1.19213e-27
-3.30382e-28
-9.71864e-28
-4.59851e-28
-7.77993e-28
-5.21367e-28
-6.3343e-28
-5.19823e-28
-5.52128e-28
-4.62905e-28
-5.36673e-28
-3.63823e-28
-5.80682e-28
-2.37335e-28
-6.69032e-28
-1.00684e-28
-7.80957e-28
2.83223e-29
-8.92415e-28
1.32279e-28
-9.8012e-28
1.96621e-28
-1.02501e-27
2.1216e-28
-1.01578e-27
1.77178e-28
-9.5095e-28
9.86071e-29
-8.39512e-28
-8.42754e-30
-6.99429e-28
-1.22964e-28
-5.54456e-28
-2.22007e-28
-4.29541e-28
-2.8521e-28
-3.45837e-28
-2.9923e-28
-3.16113e-28
-2.60951e-28
-3.41708e-28
-1.78427e-28
-4.11463e-28
-6.97321e-29
-5.03312e-28
4.12221e-29
-5.87914e-28
1.29212e-28
-6.34484e-28
1.74386e-28
-6.16883e-28
1.65675e-28
-5.20176e-28
1.05343e-28
-3.44575e-28
6.52847e-30
-1.08027e-28
-1.06638e-28
1.56304e-28
-2.08129e-28
4.04122e-28
-2.71957e-28
5.89653e-28
-2.83498e-28
6.74174e-28
-2.38191e-28
6.37645e-28
-1.48161e-28
4.84135e-28
-3.52501e-29
2.46314e-28
7.21138e-29
-2.06023e-29
1.45675e-28
-2.47378e-28
1.72002e-28
-3.69655e-28
1.43878e-28
-3.42751e-28
8.7315e-29
-1.64038e-28
2.1192e-29
1.29714e-28
-2.58954e-30
4.46745e-28
3.01402e-29
6.98876e-28
1.31033e-28
7.63298e-28
2.87086e-28
6.64854e-28
3.68951e-28
3.56884e-28
4.33534e-28
1.16763e-28
2.68825e-28
-5.19629e-29
8.40145e-28
-3.80235e-28
9.93222e-28
-7.7648e-28
5.03688e-28
-4.11214e-29
-1.17068e-28
5.35275e-28
-8.22716e-28
1.08149e-27
-1.505e-27
1.34971e-27
-2.00675e-27
1.24327e-27
-2.29727e-27
1.02157e-27
-2.37701e-27
6.63767e-28
-2.28275e-27
2.64186e-28
-2.05857e-27
-1.31028e-28
-1.76561e-27
-4.52801e-28
-1.45687e-27
-6.84471e-28
-1.18105e-27
-8.07594e-28
-9.71221e-28
-8.30532e-28
-8.48397e-28
-7.62728e-28
-8.17365e-28
-6.2449e-28
-8.70437e-28
-4.36632e-28
-9.87377e-28
-2.25026e-28
-1.13986e-27
-1.64462e-29
-1.29457e-27
1.61374e-28
-1.41885e-27
2.83852e-28
-1.48549e-27
3.33172e-28
-1.47777e-27
3.02314e-28
-1.39248e-27
1.97702e-28
-1.24099e-27
3.94303e-29
-1.04744e-27
-1.41528e-28
-8.4444e-28
-3.08875e-28
-6.66818e-28
-4.28299e-28
-5.44629e-28
-4.7493e-28
-4.96648e-28
-4.39366e-28
-5.25909e-28
-3.3015e-28
-6.17916e-28
-1.72873e-28
-7.42635e-28
-4.07819e-30
-8.59321e-28
1.35928e-28
-9.24665e-28
2.14218e-28
-9.01277e-28
2.11192e-28
-7.67213e-28
1.28973e-28
-5.21575e-28
-1.27357e-29
-1.88751e-28
-1.75375e-28
1.85265e-28
-3.1831e-28
5.37917e-28
-3.99955e-28
8.04395e-28
-4.00693e-28
9.28861e-28
-3.15047e-28
8.82309e-28
-1.7039e-28
6.69054e-28
-2.34081e-30
3.35192e-28
1.35496e-28
-4.1944e-29
2.06849e-28
-3.63264e-28
1.87527e-28
-5.3764e-28
9.07009e-29
-4.99966e-28
-4.27659e-29
-2.46509e-28
-1.47781e-28
1.72062e-28
-1.59203e-28
6.24787e-28
-2.3156e-29
9.87076e-28
2.16965e-28
1.08263e-27
5.7339e-28
9.4675e-28
7.21912e-28
5.08903e-28
8.45976e-28
1.73146e-28
4.77768e-28
-9.45128e-29
1.07771e-27
-1.05303e-27
1.27618e-27
-1.13902e-27
6.60699e-28
-1.13178e-28
-1.33883e-28
7.50954e-28
-1.0503e-27
1.5955e-27
-1.94691e-27
2.03736e-27
-2.61682e-27
1.90924e-27
-3.0176e-27
1.6159e-27
-3.14451e-27
1.10336e-27
-3.04272e-27
5.2035e-28
-2.76683e-27
-7.16001e-29
-2.39563e-27
-5.6207e-28
-1.9976e-27
-9.2821e-28
-1.63689e-27
-1.13757e-27
-1.35747e-27
-1.20264e-27
-1.18818e-27
-1.13352e-27
-1.1367e-27
-9.58532e-28
-1.19465e-27
-7.04429e-28
-1.33711e-27
-4.06685e-28
-1.52846e-27
-1.01954e-28
-1.72615e-27
1.6961e-28
-1.88801e-27
3.70875e-28
-1.97831e-27
4.7222e-28
-1.97443e-27
4.58329e-28
-1.87083e-27
3.3274e-28
-1.68074e-27
1.19556e-28
-1.43404e-27
-1.39563e-28
-1.17203e-27
-3.92681e-28
-9.39442e-28
-5.88037e-28
-7.75571e-28
-6.85386e-28
-7.05702e-28
-6.65642e-28
-7.35151e-28
-5.35848e-28
-8.46632e-28
-3.28882e-28
-1.00251e-27
-9.54475e-29
-1.15074e-27
1.06266e-28
-1.23528e-27
2.27165e-28
-1.20702e-27
2.36582e-28
-1.03634e-27
1.35616e-28
-7.20572e-28
-4.89472e-29
-2.90045e-28
-2.61586e-28
1.96629e-28
-4.44748e-28
6.58437e-28
-5.38382e-28
1.01097e-27
-5.18476e-28
1.18039e-27
-3.79304e-28
1.1278e-27
-1.69704e-28
8.56935e-28
5.79248e-29
4.26952e-28
2.16629e-28
-6.26267e-29
2.64389e-28
-4.82036e-28
1.63151e-28
-7.12319e-28
-3.87811e-29
-6.66436e-28
-2.83206e-28
-3.38583e-28
-4.34338e-28
2.07452e-28
-4.19394e-28
8.0092e-28
-1.22691e-28
1.27981e-27
3.19036e-28
1.41199e-27
9.63623e-28
1.24135e-27
1.20249e-27
6.71739e-28
1.40999e-27
2.36842e-28
7.50679e-28
-1.44712e-28
1.31283e-27
-1.82262e-27
1.55477e-27
-1.54441e-27
8.18371e-28
-2.13088e-28
-1.47865e-28
9.87006e-28
-1.27899e-27
2.19629e-27
-2.39781e-27
2.85911e-27
-3.2468e-27
2.71919e-27
-3.76971e-27
2.35572e-27
-3.95478e-27
1.66822e-27
-3.85413e-27
8.72084e-28
-3.53217e-27
4.52029e-29
-3.08514e-27
-6.50504e-28
-2.5973e-27
-1.18503e-27
-2.14885e-27
-1.50736e-27
-1.79542e-27
-1.63446e-27
-1.57448e-27
-1.57584e-27
-1.49737e-27
-1.36848e-27
-1.55567e-27
-1.04488e-27
-1.72026e-27
-6.50868e-28
-1.94854e-27
-2.33818e-28
-2.1888e-27
1.51705e-28
-2.38917e-27
4.53409e-28
-2.50509e-27
6.26609e-28
-2.50746e-27
6.44325e-28
-2.38783e-27
5.04653e-28
-2.16069e-27
2.34366e-28
-1.86121e-27
-1.13788e-28
-1.53914e-27
-4.70111e-28
-1.2492e-27
-7.61896e-28
-1.04019e-27
-9.29489e-28
-9.44462e-28
-9.40503e-28
-9.70241e-28
-7.98103e-28
-1.09806e-27
-5.41871e-28
-1.28311e-27
-2.3794e-28
-1.4622e-27
3.49418e-29
-1.5664e-27
2.08431e-28
-1.53439e-27
2.38071e-28
-1.3282e-27
1.22794e-28
-9.42662e-28
-1.03245e-28
-4.13402e-28
-3.65247e-28
1.88678e-28
-5.86547e-28
7.64022e-28
-6.85789e-28
1.20812e-27
-6.35117e-28
1.42825e-27
-4.29144e-28
1.37461e-27
-1.44363e-28
1.04932e-27
1.47042e-28
5.24033e-28
3.1644e-28
-7.96917e-29
3.18338e-28
-6.00776e-28
9.75039e-29
-8.91397e-28
-2.47601e-28
-8.40981e-28
-6.38983e-28
-4.40386e-28
-8.44833e-28
2.34606e-28
-7.90338e-28
9.73286e-28
-2.74722e-28
1.57536e-27
4.33114e-28
1.75062e-27
1.45768e-27
1.54903e-27
1.81476e-27
8.4686e-28
2.13362e-27
3.0927e-28
1.09346e-27
-1.96742e-28
1.5434e-27
-2.67516e-27
1.82586e-27
-1.97928e-27
9.74423e-28
-3.42025e-28
-1.60226e-28
1.237e-27
-1.50912e-27
2.87778e-27
-2.85747e-27
3.81092e-27
-3.89641e-27
3.67316e-27
-4.55377e-27
3.24484e-27
-4.8087e-27
2.36508e-27
-4.71868e-27
1.32789e-27
-4.3571e-27
2.28318e-28
-3.83732e-27
-7.0992e-28
-3.25958e-27
-1.44832e-27
-2.72073e-27
-1.91246e-27
-2.28882e-27
-2.12385e-27
-2.01082e-27
-2.08985e-27
-1.90256e-27
-1.85669e-27
-1.95627e-27
-1.46204e-27
-2.13921e-27
-9.62855e-28
-2.40214e-27
-4.17864e-28
-2.6843e-27
1.02026e-28
-2.92403e-27
5.26769e-28
-3.0675e-27
7.93083e-28
-3.07865e-27
8.58976e-28
-2.94543e-27
7.14032e-28
-2.68298e-27
3.86051e-28
-2.33125e-27
-6.10351e-29
-1.94813e-27
-5.37803e-28
-1.59835e-27
-9.47184e-28
-1.34055e-27
-1.20594e-27
-1.21465e-27
-1.26448e-27
-1.23249e-27
-1.11933e-27
-1.37308e-27
-8.15861e-28
-1.58496e-27
-4.36602e-28
-1.79404e-27
-8.33624e-29
-1.91836e-27
1.53123e-28
-1.88392e-27
2.11759e-28
-1.64373e-27
8.79133e-29
-1.18923e-27
-1.76902e-28
-5.60648e-28
-4.86527e-28
1.59307e-28
-7.43098e-28
8.52571e-28
-8.41128e-28
1.3941e-27
-7.49376e-28
1.67141e-27
-4.63272e-28
1.62266e-27
-9.30688e-29
1.24721e-27
2.66266e-28
6.28361e-28
4.35968e-28
-9.06647e-29
3.69216e-28
-7.17001e-28
-9.97547e-30
-1.07297e-27
-5.37811e-28
-1.02275e-27
-1.11417e-27
-5.5233e-28
-1.38511e-27
2.51995e-28
-1.27928e-27
1.13978e-27
-4.86304e-28
1.87178e-27
5.53824e-28
2.09749e-27
2.054e-27
1.86993e-27
2.56189e-27
1.03552e-27
3.02468e-27
3.91745e-28
1.51287e-27
-2.43138e-28
1.76707e-27
-3.59478e-27
2.086e-27
-2.42862e-27
1.12639e-27
-5.00719e-28
-1.72253e-28
1.49389e-27
-1.74094e-27
3.63298e-27
-3.32545e-27
4.88758e-27
-4.5651e-27
4.77029e-27
-5.36962e-27
4.28656e-27
-5.70689e-27
3.2004e-27
-5.63794e-27
1.89634e-27
-5.24412e-27
4.87055e-28
-4.65544e-27
-7.31499e-28
-3.98828e-27
-1.71078e-27
-3.35664e-27
-2.34763e-27
-2.84183e-27
-2.668e-27
-2.50116e-27
-2.67523e-27
-2.35584e-27
-2.42508e-27
-2.39958e-27
-1.95981e-27
-2.59662e-27
-1.34792e-27
-2.89151e-27
-6.60096e-28
-3.21462e-27
1.46046e-29
-3.49436e-27
5.85741e-28
-3.66733e-27
9.67976e-28
-3.68989e-27
1.10047e-27
-3.54574e-27
9.61063e-28
-3.24993e-27
5.76551e-28
-2.84666e-27
2.18122e-29
-2.40163e-27
-5.92311e-28
-1.98949e-27
-1.14098e-27
-1.67904e-27
-1.51314e-27
-1.51834e-27
-1.63778e-27
-1.52355e-27
-1.50173e-27
-1.6729e-27
-1.15477e-27
-1.90889e-27
-6.9649e-28
-2.14682e-27
-2.54099e-28
-2.29166e-27
5.61799e-29
-2.25632e-27
1.53556e-28
-1.98398e-27
2.81745e-29
-1.46184e-27
-2.71395e-28
-7.33826e-28
-6.25809e-28
1.06143e-28
-9.14056e-28
9.2167e-28
-1.00369e-27
1.56683e-27
-8.60405e-28
1.90848e-27
-4.808e-28
1.87157e-27
-1.4853e-29
1.4513e-27
4.16726e-28
7.41587e-28
5.76402e-28
-9.32911e-29
4.18048e-28
-8.284e-28
-1.59037e-28
-1.25526e-27
-9.10517e-28
-1.21103e-27
-1.71199e-27
-6.74976e-28
-2.06053e-27
2.5791e-28
-1.89356e-27
1.29809e-27
-7.65277e-28
2.16684e-27
6.74515e-28
2.45133e-27
2.74959e-27
2.20402e-27
3.44611e-27
1.23886e-27
4.09077e-27
4.85547e-28
2.01645e-27
-2.7478e-28
1.98133e-27
-4.56389e-27
2.33143e-27
-2.8749e-27
1.27151e-27
-6.89344e-28
-1.85419e-28
1.75066e-27
-1.97476e-27
4.45397e-27
-3.80119e-27
6.08272e-27
-5.25213e-27
6.00864e-27
-6.21689e-27
5.48339e-27
-6.64977e-27
4.18041e-27
-6.61334e-27
2.58615e-27
-6.19567e-27
8.31118e-28
-5.54285e-27
-7.05849e-28
-4.78741e-27
-1.96439e-27
-4.06098e-27
-2.80692e-27
-3.45889e-27
-3.26346e-27
-3.04978e-27
-3.33105e-27
-2.86115e-27
-3.07522e-27
-2.88906e-27
-2.54185e-27
-3.09545e-27
-1.81133e-27
-3.41917e-27
-9.66695e-28
-3.78189e-27
-1.16894e-28
-4.10211e-27
6.24709e-28
-4.30645e-27
1.14701e-27
-4.34315e-27
1.36644e-27
-4.19091e-27
1.24548e-27
-3.86399e-27
8.07507e-28
-3.41013e-27
1.37746e-28
-2.90245e-27
-6.30076e-28
-2.42547e-27
-1.34011e-27
-2.05836e-27
-1.84914e-27
-1.8579e-27
-2.06031e-27
-1.84534e-27
-1.94722e-27
-1.99896e-27
-1.56234e-27
-2.25589e-27
-1.02263e-27
-2.52125e-27
-4.828e-28
-2.68695e-27
-8.76711e-29
-2.65238e-27
5.91223e-29
-2.35014e-27
-5.94803e-29
-1.76218e-27
-3.88457e-28
-9.35144e-28
-7.83742e-28
2.66048e-29
-1.09936e-27
9.68648e-28
-1.1731e-27
1.72393e-27
-9.67733e-28
2.13778e-27
-4.81192e-28
2.12064e-27
9.09961e-29
1.66203e-27
5.99478e-28
8.6519e-28
7.39167e-28
-8.54239e-29
4.66412e-28
-9.32717e-28
-3.48588e-28
-1.43655e-27
-1.36586e-27
-1.40513e-27
-2.43478e-27
-8.08963e-28
-2.876e-27
2.50499e-28
-2.64064e-27
1.44566e-27
-1.12032e-27
2.4581e-27
7.87231e-28
2.8106e-27
3.53992e-27
2.55103e-27
4.46858e-27
1.45788e-27
5.3392e-27
5.91938e-28
2.61251e-27
-2.80835e-28
2.1834e-27
-5.56252e-27
2.55811e-27
-3.29911e-27
1.40671e-27
-9.0732e-28
-2.01461e-28
1.99994e-27
-2.21098e-27
5.33198e-27
-4.28414e-27
7.38867e-27
-5.95661e-27
7.38519e-27
-7.09499e-27
6.83696e-27
-7.63754e-27
5.31081e-27
-7.64609e-27
3.4059e-27
-7.2141e-27
1.27049e-27
-6.50289e-27
-6.23014e-28
-5.66106e-27
-2.20037e-27
-4.83829e-27
-3.28359e-27
-4.14472e-27
-3.90594e-27
-3.66126e-27
-4.05572e-27
-3.42274e-27
-3.8081e-27
-3.42849e-27
-3.21145e-27
-3.63896e-27
-2.35821e-27
-3.98784e-27
-1.34395e-27
-4.38846e-27
-2.99111e-28
-4.74934e-27
6.37511e-28
-4.98684e-27
1.3253e-27
-5.04049e-27
1.65393e-27
-4.88322e-27
1.56651e-27
-4.52767e-27
1.08022e-27
-4.02445e-27
2.89647e-28
-3.45359e-27
-6.47464e-28
-2.90932e-27
-1.54114e-27
-2.48141e-27
-2.21164e-27
-2.23594e-27
-2.53153e-27
-2.20004e-27
-2.45739e-27
-2.35294e-27
-2.04213e-27
-2.62718e-27
-1.42002e-27
-2.9182e-27
-7.75125e-28
-3.10496e-27
-2.83908e-28
-3.07297e-27
-7.61666e-29
-2.74345e-27
-1.78411e-28
-2.09202e-27
-5.30122e-28
-1.16694e-27
-9.61275e-28
-8.20657e-29
-1.29926e-27
9.90615e-28
-1.34928e-27
1.86276e-27
-1.07124e-27
2.35736e-27
-4.64268e-28
2.36894e-27
2.24931e-28
1.87967e-27
8.15515e-28
1.00052e-27
9.25924e-28
-6.4975e-29
5.16458e-28
-1.02769e-27
-5.76645e-28
-1.61505e-27
-1.90292e-27
-1.60434e-27
-3.28393e-27
-9.54961e-28
-3.83584e-27
2.27798e-28
-3.52805e-27
1.57977e-27
-1.56095e-27
2.74283e-27
8.8264e-28
3.17351e-27
4.41882e-27
2.91049e-27
5.62934e-27
1.69352e-27
6.77685e-27
7.12169e-28
3.31007e-27
-2.48691e-28
2.37025e-27
-6.56877e-27
2.76166e-27
-3.68026e-27
1.52855e-27
-1.15317e-27
-2.22448e-28
2.23454e-27
-2.45022e-27
6.25736e-27
-4.77376e-27
8.79646e-27
-6.67755e-27
8.89569e-27
-8.00313e-27
8.34797e-27
-8.67014e-27
6.59672e-27
-8.73722e-27
4.36395e-27
-8.30161e-27
1.81539e-27
-7.53885e-27
-4.72464e-28
-6.61339e-27
-2.40923e-27
-5.69331e-27
-3.77009e-27
-4.9043e-27
-4.59036e-27
-4.34052e-27
-4.84689e-27
-4.0452e-27
-4.6241e-27
-4.02197e-27
-3.97149e-27
-4.23067e-27
-2.99348e-27
-4.60052e-27
-1.79822e-27
-5.03687e-27
-5.39014e-28
-5.43829e-27
6.17463e-28
-5.7106e-27
1.49741e-27
-5.78403e-27
1.95932e-27
-5.62498e-27
1.92278e-27
-5.24359e-27
1.39557e-27
-4.69252e-27
4.80198e-28
-4.05818e-27
-6.40778e-28
-3.44426e-27
-1.74037e-27
-2.95133e-27
-2.5979e-27
-2.6553e-27
-3.05049e-27
-2.59005e-27
-3.03341e-27
-2.73671e-27
-2.59742e-27
-3.02412e-27
-1.89354e-27
-3.33869e-27
-1.13679e-27
-3.54656e-27
-5.38229e-28
-3.51906e-27
-2.57229e-28
-3.16522e-27
-3.3232e-28
-2.45323e-27
-6.98771e-28
-1.43164e-27
-1.1597e-27
-2.22778e-28
-1.51437e-27
9.84473e-28
-1.53258e-27
1.98045e-27
-1.17119e-27
2.56499e-27
-4.30212e-28
2.61528e-27
3.87155e-28
2.10425e-27
1.06579e-27
1.14879e-27
1.1386e-27
-2.98977e-29
5.70971e-28
-1.11104e-27
-8.40278e-28
-1.78893e-27
-2.51972e-27
-1.8079e-27
-4.2598e-27
-1.11363e-27
-4.94378e-27
1.87757e-28
-4.56333e-27
1.69748e-27
-2.09747e-27
3.01805e-27
9.49982e-28
3.53796e-27
5.37839e-27
3.28172e-27
6.92711e-27
1.94657e-27
8.41012e-27
8.47471e-28
4.11882e-27
-1.63882e-28
2.5386e-27
-7.5585e-27
2.93738e-27
-3.99523e-27
1.63316e-27
-1.42435e-27
-2.50834e-28
2.44741e-27
-2.69333e-27
7.21966e-27
-5.2696e-27
1.02958e-26
-7.41388e-27
1.05344e-26
-8.94034e-27
1.0016e-26
-9.7473e-27
8.04257e-27
-9.88753e-27
5.46856e-27
-9.46023e-27
2.47627e-27
-8.65393e-27
-2.43193e-28
-7.64859e-27
-2.58071e-27
-6.63088e-27
-4.25786e-27
-5.74278e-27
-5.31069e-27
-5.09272e-27
-5.70134e-27
-4.73342e-27
-5.52292e-27
-4.67393e-27
-4.82438e-27
-4.87446e-27
-3.72191e-27
-5.2605e-27
-2.33591e-27
-5.72987e-27
-8.43855e-28
-6.17135e-27
5.57407e-28
-6.47995e-27
1.65714e-27
-6.57602e-27
2.27829e-27
-6.4186e-27
2.3123e-27
-6.01443e-27
1.75396e-27
-5.41735e-27
7.11852e-28
-4.71947e-27
-6.06309e-28
-4.03368e-27
-1.93384e-27
-3.47145e-27
-3.00479e-27
-3.11906e-27
-3.61573e-27
-3.01802e-27
-3.67603e-27
-3.15238e-27
-3.23116e-27
-3.44831e-27
-2.44794e-27
-3.78386e-27
-1.57356e-27
-4.01268e-27
-8.56531e-28
-3.99165e-27
-4.89308e-28
-3.61682e-27
-5.25278e-28
-2.8477e-27
-8.97169e-28
-1.73179e-27
-1.38069e-27
-3.98573e-28
-1.74567e-27
9.46942e-28
-1.72374e-27
2.07388e-27
-1.26828e-27
2.7582e-27
-3.79592e-28
2.85825e-27
5.77594e-28
2.33563e-27
1.3512e-27
1.3111e-27
1.3794e-27
2.18138e-29
6.3338e-28
-1.18042e-27
-1.13555e-27
-1.95624e-27
-3.21304e-27
-2.01495e-27
-5.36163e-27
-1.2856e-27
-6.20279e-27
1.28268e-28
-5.75396e-27
1.79569e-27
-2.74099e-27
3.28049e-27
9.77047e-28
3.90154e-27
6.40888e-27
3.66376e-27
8.35916e-27
2.21769e-27
1.02447e-26
9.99041e-28
5.04908e-27
-1.00152e-29
2.68493e-27
-8.50552e-27
3.08023e-27
-4.21904e-27
1.71624e-27
-1.71703e-27
-2.89509e-28
2.63185e-27
-2.94148e-27
8.20776e-27
-5.77135e-27
1.18751e-26
-8.16451e-27
1.22946e-26
-9.90548e-27
1.18392e-26
-1.08685e-26
9.65192e-27
-1.10975e-26
6.72736e-27
-1.06917e-26
3.26355e-27
-9.8512e-27
7.63373e-29
-8.77079e-27
-2.70377e-27
-7.65592e-27
-4.73753e-27
-6.66553e-27
-6.05997e-27
-5.92329e-27
-6.61495e-27
-5.49261e-27
-6.50338e-27
-5.38914e-27
-5.7719e-27
-5.57451e-27
-4.54779e-27
-5.97135e-27
-2.96332e-27
-6.47051e-27
-1.22113e-27
-6.95113e-27
4.49663e-28
-7.29724e-27
1.79767e-27
-7.41877e-27
2.60574e-27
-7.26655e-27
2.73235e-27
-6.84293e-27
2.15525e-27
-6.20201e-27
9.86729e-28
-5.44084e-27
-5.40363e-28
-4.68112e-27
-2.11734e-27
-4.04528e-27
-3.4287e-27
-3.63052e-27
-4.22526e-27
-3.48683e-27
-4.38547e-27
-3.60231e-27
-3.9459e-27
-3.90153e-27
-3.08774e-27
-4.25505e-27
-2.0912e-27
-4.50441e-27
-1.24488e-27
-4.49186e-27
-7.77944e-28
-4.09966e-27
-7.61749e-28
-3.27739e-27
-1.12851e-27
-2.06996e-27
-1.62637e-27
-6.12607e-28
-1.9946e-27
8.74565e-28
-1.92395e-27
2.13972e-27
-1.36365e-27
2.93426e-27
-3.13395e-28
3.09614e-27
7.95878e-28
2.57344e-27
1.67256e-27
1.4884e-27
1.65081e-27
9.21112e-29
7.07782e-28
-1.23347e-27
-1.45747e-27
-2.11496e-27
-3.97841e-27
-2.22449e-27
-6.58739e-27
-1.4714e-27
-7.61501e-27
4.71932e-29
-7.10724e-27
1.87114e-27
-3.50335e-27
3.52661e-27
9.50133e-28
4.26153e-27
7.4986e-27
4.05536e-27
9.92117e-27
2.50739e-27
1.22854e-26
1.16802e-27
6.11173e-27
2.31289e-28
2.8055e-27
-9.38109e-27
3.18487e-27
-4.32449e-27
1.77305e-27
-2.02594e-27
-3.41851e-28
2.78187e-27
-3.19621e-27
9.20997e-27
-6.27893e-27
1.35213e-26
-8.92838e-27
1.41677e-26
-1.08973e-26
1.38148e-26
-1.20329e-26
1.14273e-26
-1.23675e-26
8.14763e-27
-1.19977e-26
4.18766e-27
-1.11335e-26
4.97891e-28
-9.98408e-27
-2.76676e-27
-8.77341e-27
-5.19887e-27
-7.67805e-27
-6.83019e-27
-6.8379e-27
-7.58255e-27
-6.32828e-27
-7.56351e-27
-6.17269e-27
-6.81508e-27
-6.33534e-27
-5.4751e-27
-6.73696e-27
-3.68664e-27
-7.26205e-27
-1.67851e-27
-7.78044e-27
2.86131e-28
-8.165e-27
1.91152e-27
-8.31471e-27
2.9358e-27
-8.17136e-27
3.17943e-27
-7.7319e-27
2.59866e-27
-7.04963e-27
1.30658e-27
-6.22575e-27
-4.39353e-28
-5.39025e-27
-2.28646e-27
-4.67653e-27
-3.86564e-27
-4.19318e-27
-4.87652e-27
-3.99959e-27
-5.16138e-27
-4.08908e-27
-4.74375e-27
-4.38579e-27
-3.81719e-27
-4.75375e-27
-2.69539e-27
-5.02294e-27
-1.70952e-27
-5.02084e-27
-1.129e-27
-4.61517e-27
-1.04661e-27
-3.74427e-27
-1.39645e-27
-2.4488e-27
-1.89933e-27
-8.68133e-28
-2.2631e-27
7.63726e-28
-2.1349e-27
2.1744e-27
-1.45894e-27
3.09016e-27
-2.3308e-28
3.32697e-27
1.0413e-27
2.81703e-27
2.03061e-27
1.68143e-27
1.95555e-27
1.82872e-28
7.98971e-28
-1.26779e-27
-1.79993e-27
-2.26293e-27
-4.80998e-27
-2.43541e-27
-7.9337e-27
-1.6715e-27
-9.18158e-27
-5.75986e-29
-8.63017e-27
1.92042e-27
-4.39702e-27
3.7526e-27
8.54043e-28
4.61482e-27
8.63376e-27
4.45495e-27
1.1607e-26
2.81593e-27
1.45361e-26
1.35548e-27
7.31808e-27
5.80443e-28
2.89632e-27
-1.01549e-26
3.24566e-27
-4.28332e-27
1.79835e-27
-2.34407e-27
-4.11769e-28
2.8921e-27
-3.4595e-27
1.02141e-26
-6.79248e-27
1.52205e-26
-9.70445e-27
1.61437e-26
-1.19143e-26
1.59379e-26
-1.32396e-26
1.33699e-26
-1.36973e-26
9.73587e-27
-1.33794e-26
5.25876e-27
-1.25036e-26
1.03363e-27
-1.12924e-26
-2.75729e-27
-9.9883e-27
-5.6306e-27
-8.78595e-27
-7.61232e-27
-7.84246e-27
-8.59793e-27
-7.24626e-27
-8.70025e-27
-7.03003e-27
-7.95424e-27
-7.16184e-27
-6.5071e-27
-7.56154e-27
-4.51182e-27
-8.10809e-27
-2.22373e-27
-8.66233e-27
5.81822e-29
-9.08592e-27
1.99044e-27
-9.26639e-27
3.26176e-27
-9.13567e-27
3.6492e-27
-8.6842e-27
3.08268e-27
-7.96342e-27
1.67269e-27
-7.07773e-27
-2.99825e-28
-6.16487e-27
-2.43665e-27
-5.36909e-27
-4.31112e-27
-4.8108e-27
-5.56635e-27
-4.55971e-27
-6.00275e-27
-4.61555e-27
-5.62623e-27
-4.90333e-27
-4.64019e-27
-5.28169e-27
-3.39172e-27
-5.56962e-27
-2.25675e-27
-5.57985e-27
-1.54862e-27
-5.16485e-27
-1.38516e-27
-4.25034e-27
-1.70513e-27
-2.87098e-27
-2.20271e-27
-1.16848e-27
-2.55364e-27
6.10662e-28
-2.35886e-27
2.17412e-27
-1.55636e-27
3.2226e-27
-1.40619e-28
3.54846e-27
1.31276e-27
3.0655e-27
2.42591e-27
1.89076e-27
2.29662e-27
2.95873e-28
9.12425e-28
-1.28095e-27
-2.15567e-27
-2.39786e-27
-5.70046e-27
-2.64639e-27
-9.39565e-27
-1.88617e-27
-1.09025e-26
-1.88196e-28
-1.03293e-26
1.94002e-27
-5.43507e-27
3.95439e-27
6.72103e-28
4.95797e-27
9.79846e-27
4.86058e-27
1.34085e-26
3.14338e-27
1.69993e-26
1.56238e-27
8.67982e-27
1.05992e-27
2.95321e-27
-1.07936e-26
3.25669e-27
-4.06491e-27
1.78642e-27
-2.66257e-27
-5.03743e-28
2.95862e-27
-3.73381e-27
1.12078e-26
-7.31248e-27
1.69572e-26
-1.04918e-26
1.82112e-26
-1.2955e-26
1.82026e-26
-1.44872e-26
1.54801e-26
-1.50865e-26
1.14977e-26
-1.48376e-26
6.48678e-27
-1.39638e-26
1.69581e-27
-1.26995e-26
-2.66244e-27
-1.13055e-26
-6.02065e-27
-9.99496e-27
-8.39623e-27
-8.94305e-27
-9.65375e-27
-8.25265e-27
-9.90949e-27
-7.96696e-27
-9.18864e-27
-8.05925e-27
-7.64649e-27
-8.44968e-27
-5.44444e-27
-9.01252e-27
-2.8646e-27
-9.6001e-27
-2.4307e-28
-1.00629e-26
2.02559e-27
-1.02765e-26
3.57604e-27
-1.01621e-26
4.13642e-27
-9.70273e-27
3.60501e-27
-8.94663e-27
2.08577e-27
-8.00041e-27
-1.18576e-28
-7.00889e-27
-2.56321e-27
-6.127e-27
-4.76027e-27
-5.48733e-27
-6.29098e-27
-5.17081e-27
-6.90793e-27
-5.18483e-27
-6.59428e-27
-5.45667e-27
-5.56017e-27
-5.84077e-27
-4.18554e-27
-6.14593e-27
-2.89297e-27
-6.17024e-27
-2.04323e-27
-5.75023e-27
-1.78312e-27
-4.79761e-27
-2.05924e-27
-3.33919e-27
-2.54022e-27
-1.51704e-27
-2.86931e-27
4.11476e-28
-2.5987e-27
2.1349e-27
-1.65874e-27
3.32801e-27
-3.85585e-29
3.758e-27
1.60872e-27
3.31762e-27
2.85884e-27
2.11669e-27
2.67717e-27
4.32752e-28
1.05431e-27
-1.27052e-27
-2.51626e-27
-2.51737e-27
-6.641e-27
-2.85596e-27
-1.09667e-26
-2.11554e-27
-1.27764e-26
-3.46602e-28
-1.22106e-26
1.92635e-27
-6.63095e-27
4.12765e-27
3.86199e-28
5.28711e-27
1.09746e-26
5.26991e-27
1.53154e-26
3.48947e-27
1.9676e-26
1.78953e-27
1.02088e-26
1.69426e-27
2.97183e-27
-1.12618e-26
3.21182e-27
-3.63709e-27
1.73105e-27
-2.9704e-27
-6.2286e-28
2.97859e-27
-4.02213e-27
1.21787e-26
-7.83981e-27
1.87152e-26
-1.12898e-26
2.03572e-26
-1.40179e-26
2.0601e-26
-1.57743e-26
1.77563e-26
-1.65346e-26
1.34377e-26
-1.63731e-26
7.88104e-27
-1.55161e-26
2.4967e-27
-1.4209e-26
-2.46878e-27
-1.27299e-26
-6.35605e-27
-1.13108e-26
-9.1707e-27
-1.01459e-26
-1.07415e-26
-9.3538e-27
-1.11859e-26
-8.98959e-27
-1.05166e-26
-9.03318e-27
-8.89514e-27
-9.40634e-27
-6.48965e-27
-9.9796e-27
-3.60881e-27
-1.05973e-26
-6.26878e-28
-1.1099e-26
2.00741e-27
-1.13478e-26
3.87017e-27
-1.12536e-26
4.63486e-27
-1.07904e-26
4.16247e-27
-1.00025e-26
2.54586e-27
-8.99747e-27
1.07267e-28
-7.92634e-27
-2.66138e-27
-6.95447e-27
-5.20783e-27
-6.22697e-27
-7.04598e-27
-5.83679e-27
-7.87447e-27
-5.80034e-27
-7.64812e-27
-6.04859e-27
-6.58005e-27
-6.43315e-27
-5.08194e-27
-6.75355e-27
-3.62452e-27
-6.79347e-27
-2.6195e-27
-6.37287e-27
-2.24664e-27
-5.38811e-27
-2.464e-27
-3.85613e-27
-2.91616e-27
-1.91726e-27
-3.21382e-27
1.62159e-28
-2.85796e-27
2.05252e-27
-1.76956e-27
3.40251e-27
6.99181e-29
3.95263e-27
1.92714e-27
3.5718e-27
3.32953e-27
2.35922e-27
3.10054e-27
5.94972e-28
1.23143e-27
-1.23413e-27
-2.87204e-27
-2.61895e-27
-7.62115e-27
-3.06243e-27
-1.26386e-26
-2.3595e-27
-1.48004e-26
-5.34687e-28
-1.42792e-26
1.8758e-27
-7.99836e-27
4.26779e-27
-2.31398e-29
5.598e-27
1.21416e-26
5.68017e-27
1.7315e-26
3.8536e-27
2.25655e-26
2.03756e-27
1.19171e-26
2.51001e-27
2.94769e-27
-1.15216e-26
3.10469e-27
-2.96599e-27
1.62557e-27
-3.25421e-27
-7.74841e-28
2.95095e-27
-4.3281e-27
1.31144e-26
-8.37581e-27
2.04773e-26
-1.20978e-26
2.25673e-26
-1.51015e-26
2.31234e-26
-1.7099e-26
2.01956e-26
-1.80402e-26
1.55591e-26
-1.79858e-26
9.45025e-27
-1.71623e-26
3.4485e-27
-1.58241e-26
-2.16248e-27
-1.4266e-26
-6.62307e-27
-1.27392e-26
-9.92346e-27
-1.14575e-26
-1.18512e-26
-1.05563e-26
-1.25231e-26
-1.01044e-26
-1.19352e-26
-1.00897e-26
-1.0254e-26
-1.04369e-26
-7.65197e-27
-1.10139e-26
-4.46387e-27
-1.1658e-26
-1.10274e-27
-1.21975e-26
1.92582e-27
-1.24834e-26
4.13483e-27
-1.24128e-26
5.1373e-27
-1.19503e-26
4.75088e-27
-1.11345e-26
3.05225e-27
-1.00726e-26
3.80159e-28
-8.92133e-27
-2.72649e-27
-7.85588e-27
-5.64818e-27
-7.03411e-27
-7.82631e-27
-6.56186e-27
-8.89918e-27
-6.46579e-27
-8.78719e-27
-6.68219e-27
-7.70211e-27
-7.06129e-27
-6.08563e-27
-7.39438e-27
-4.4577e-27
-7.4511e-27
-3.28424e-27
-7.03438e-27
-2.78229e-27
-6.02383e-27
-2.92517e-27
-4.42448e-27
-3.33551e-27
-2.37257e-27
-3.59161e-27
-1.41399e-28
-3.14093e-27
1.92256e-27
-1.89305e-27
3.44193e-27
1.80922e-28
4.129e-27
2.26539e-27
3.82608e-27
3.83777e-27
2.61804e-27
3.57013e-27
7.83774e-28
1.4512e-27
-1.16944e-27
-3.21217e-27
-2.69998e-27
-8.62878e-27
-3.26386e-27
-1.4401e-26
-2.61768e-27
-1.69701e-26
-7.54135e-28
-1.6539e-26
1.78475e-27
-9.55108e-27
4.37005e-27
-5.76624e-28
5.88596e-27
1.32769e-26
6.08808e-27
1.93921e-26
4.2348e-27
2.5665e-26
2.3069e-27
1.38163e-26
3.53568e-27
2.87627e-27
-1.15326e-26
2.92883e-27
-2.01714e-27
1.46283e-27
-3.49808e-27
-9.66063e-28
2.87669e-27
-4.65598e-27
1.40033e-26
-8.92232e-27
2.22256e-26
-1.29156e-26
2.48254e-26
-1.62041e-26
2.57585e-26
-1.84595e-26
2.27931e-26
-1.96021e-26
1.7864e-26
-1.96756e-26
1.12022e-26
-1.89036e-26
4.56306e-27
-1.75477e-26
-1.72947e-27
-1.59184e-26
-6.80728e-27
-1.42858e-26
-1.06411e-26
-1.28842e-26
-1.2972e-26
-1.18671e-26
-1.3913e-26
-1.13181e-26
-1.34404e-26
-1.1235e-26
-1.17229e-26
-1.1547e-26
-8.9352e-27
-1.21204e-26
-5.43699e-27
-1.27862e-26
-1.68022e-27
-1.33621e-26
1.77011e-27
-1.36863e-26
4.35979e-27
-1.36429e-26
5.63544e-27
-1.31855e-26
5.36503e-27
-1.23457e-26
3.60336e-27
-1.12297e-26
7.0201e-28
-9.99805e-27
-2.75395e-27
-8.83574e-27
-6.07542e-27
-7.91337e-27
-8.62628e-27
-7.35045e-27
-9.97803e-27
-7.18524e-27
-1.00101e-26
-7.3609e-27
-8.92793e-27
-7.72788e-27
-7.20084e-27
-8.07051e-27
-5.39862e-27
-8.14488e-27
-4.04445e-27
-7.73646e-27
-3.39701e-27
-6.70678e-27
-3.44911e-27
-5.04688e-27
-3.80391e-27
-2.88644e-27
-4.00783e-27
-5.03388e-28
-3.45266e-27
1.74043e-27
-2.03425e-27
3.44178e-27
2.8979e-28
4.28337e-27
2.62019e-27
4.07804e-27
4.38292e-27
2.89241e-27
4.0893e-27
1.00013e-27
1.72157e-27
-1.07421e-27
-3.52467e-27
-2.75776e-27
-9.65008e-27
-3.4581e-27
-1.62417e-26
-2.88943e-27
-1.92789e-26
-1.00639e-27
-1.8993e-26
1.64965e-27
-1.13027e-26
4.42945e-27
-1.29606e-27
6.14593e-27
1.43554e-26
6.48987e-27
2.15287e-26
4.63161e-27
2.89693e-26
2.59767e-27
1.5918e-26
4.8016e-27
2.75296e-27
-1.12519e-26
2.67768e-27
-7.53154e-28
1.23526e-27
-3.68329e-27
-1.20357e-27
2.75916e-27
-5.01076e-27
1.48344e-26
-9.48184e-27
2.39419e-26
-1.37435e-26
2.71144e-26
-1.73243e-26
2.84929e-26
-1.98538e-26
2.55424e-26
-2.12184e-26
2.03528e-26
-2.14416e-26
1.31437e-26
-2.07408e-26
5.85181e-27
-1.93823e-26
-1.15558e-27
-1.76912e-26
-6.89355e-27
-1.59562e-26
-1.13093e-26
-1.44325e-26
-1.40915e-26
-1.32931e-26
-1.53464e-26
-1.26379e-26
-1.50266e-26
-1.24761e-26
-1.33006e-26
-1.27428e-26
-1.03423e-26
-1.33046e-26
-6.53485e-27
-1.39866e-26
-2.36893e-27
-1.45967e-26
1.52918e-27
-1.49599e-26
4.53398e-27
-1.49469e-26
6.11991e-27
-1.4499e-26
5.99856e-27
-1.36398e-26
4.19661e-27
-1.24723e-26
1.07407e-27
-1.11608e-26
-2.73941e-27
-9.89868e-27
-6.48342e-27
-8.86958e-27
-9.43963e-27