/*--------------------------------*- C++ -*----------------------------------*\
| =========                 |                                                 |
| \\      /  F ield         | foam-extend: Open Source CFD                    |
|  \\    /   O peration     | Version:     4.0                                |
|   \\  /    A nd           | Web:         http://www.foam-extend.org         |
|    \\/     M anipulation  |                                                 |
\*---------------------------------------------------------------------------*/
FoamFile
{
    version     2.0;
    format      ascii;
    class       volScalarField;
    location    "1040";
    object      psiE;
}
// * * * * * * * * * * * * * * * * * * * * * * * * * * * * * * * * * * * * * //

dimensions      [0 0 0 0 0 0 0];

internalField   nonuniform List<scalar> 
6960
(
0.336589
0.336595
0.336602
0.336609
0.336616
0.336622
0.336628
0.336634
0.336639
0.336643
0.336647
0.336651
0.336654
0.336657
0.336659
0.336661
0.336663
0.336665
0.336667
0.336668
0.336669
0.33667
0.336671
0.336672
0.336672
0.336673
0.336673
0.336673
0.336674
0.336674
0.336674
0.336674
0.336673
0.336673
0.336673
0.336672
0.336672
0.336671
0.33667
0.336669
0.336668
0.336667
0.336665
0.336663
0.336661
0.336659
0.336657
0.336654
0.336651
0.336647
0.336643
0.336639
0.336634
0.336628
0.336622
0.336616
0.336609
0.336602
0.336595
0.336589
0.843109
0.843133
0.843162
0.843191
0.843219
0.843245
0.843269
0.84329
0.84331
0.843328
0.843343
0.843358
0.84337
0.843382
0.843391
0.8434
0.843408
0.843415
0.843421
0.843426
0.84343
0.843434
0.843437
0.84344
0.843442
0.843444
0.843446
0.843447
0.843447
0.843448
0.843448
0.843447
0.843447
0.843446
0.843444
0.843442
0.84344
0.843437
0.843434
0.84343
0.843426
0.843421
0.843415
0.843408
0.8434
0.843391
0.843382
0.84337
0.843358
0.843343
0.843328
0.84331
0.84329
0.843269
0.843245
0.843219
0.843191
0.843162
0.843133
0.843109
1.30256
1.30261
1.30267
1.30273
1.30278
1.30283
1.30288
1.30292
1.30296
1.30299
1.30303
1.30305
1.30308
1.3031
1.30312
1.30314
1.30315
1.30316
1.30318
1.30319
1.30319
1.3032
1.30321
1.30321
1.30322
1.30322
1.30322
1.30323
1.30323
1.30323
1.30323
1.30323
1.30323
1.30322
1.30322
1.30322
1.30321
1.30321
1.3032
1.30319
1.30319
1.30318
1.30316
1.30315
1.30314
1.30312
1.3031
1.30308
1.30305
1.30303
1.30299
1.30296
1.30292
1.30288
1.30283
1.30278
1.30273
1.30267
1.30261
1.30256
1.74975
1.74983
1.74991
1.75001
1.75009
1.75017
1.75025
1.75031
1.75037
1.75043
1.75048
1.75052
1.75056
1.75059
1.75062
1.75065
1.75067
1.75069
1.75071
1.75072
1.75074
1.75075
1.75076
1.75077
1.75077
1.75078
1.75078
1.75079
1.75079
1.75079
1.75079
1.75079
1.75079
1.75078
1.75078
1.75077
1.75077
1.75076
1.75075
1.75074
1.75072
1.75071
1.75069
1.75067
1.75065
1.75062
1.75059
1.75056
1.75052
1.75048
1.75043
1.75037
1.75031
1.75025
1.75017
1.75009
1.75001
1.74991
1.74983
1.74975
2.19787
2.19797
2.1981
2.19822
2.19834
2.19845
2.19856
2.19865
2.19873
2.19881
2.19888
2.19894
2.19899
2.19904
2.19908
2.19912
2.19915
2.19918
2.1992
2.19922
2.19924
2.19926
2.19927
2.19928
2.19929
2.1993
2.1993
2.19931
2.19931
2.19931
2.19931
2.19931
2.19931
2.1993
2.1993
2.19929
2.19928
2.19927
2.19926
2.19924
2.19922
2.1992
2.19918
2.19915
2.19912
2.19908
2.19904
2.19899
2.19894
2.19888
2.19881
2.19873
2.19865
2.19856
2.19845
2.19834
2.19822
2.1981
2.19797
2.19787
2.65221
2.65234
2.6525
2.65267
2.65282
2.65297
2.6531
2.65322
2.65333
2.65343
2.65351
2.65359
2.65366
2.65372
2.65378
2.65382
2.65387
2.6539
2.65393
2.65396
2.65399
2.65401
2.65402
2.65404
2.65405
2.65406
2.65407
2.65407
2.65408
2.65408
2.65408
2.65408
2.65407
2.65407
2.65406
2.65405
2.65404
2.65402
2.65401
2.65399
2.65396
2.65393
2.6539
2.65387
2.65382
2.65378
2.65372
2.65366
2.65359
2.65351
2.65343
2.65333
2.65322
2.6531
2.65297
2.65282
2.65267
2.6525
2.65234
2.65221
3.11492
3.11508
3.11528
3.11548
3.11568
3.11585
3.11602
3.11617
3.1163
3.11642
3.11653
3.11662
3.11671
3.11678
3.11685
3.11691
3.11696
3.11701
3.11704
3.11708
3.11711
3.11713
3.11715
3.11717
3.11719
3.1172
3.11721
3.11722
3.11722
3.11722
3.11722
3.11722
3.11722
3.11721
3.1172
3.11719
3.11717
3.11715
3.11713
3.11711
3.11708
3.11704
3.11701
3.11696
3.11691
3.11685
3.11678
3.11671
3.11662
3.11653
3.11642
3.1163
3.11617
3.11602
3.11585
3.11568
3.11548
3.11528
3.11508
3.11492
3.58686
3.58705
3.58728
3.58753
3.58775
3.58797
3.58816
3.58834
3.5885
3.58864
3.58877
3.58889
3.58899
3.58908
3.58916
3.58923
3.58929
3.58934
3.58939
3.58943
3.58946
3.58949
3.58952
3.58954
3.58956
3.58957
3.58958
3.58959
3.5896
3.5896
3.5896
3.5896
3.58959
3.58958
3.58957
3.58956
3.58954
3.58952
3.58949
3.58946
3.58943
3.58939
3.58934
3.58929
3.58923
3.58916
3.58908
3.58899
3.58889
3.58877
3.58864
3.5885
3.58834
3.58816
3.58797
3.58775
3.58753
3.58728
3.58705
3.58686
4.06835
4.06857
4.06884
4.06912
4.06939
4.06964
4.06986
4.07007
4.07026
4.07042
4.07057
4.07071
4.07083
4.07093
4.07102
4.0711
4.07117
4.07124
4.07129
4.07134
4.07138
4.07141
4.07144
4.07147
4.07149
4.0715
4.07152
4.07153
4.07153
4.07154
4.07154
4.07153
4.07153
4.07152
4.0715
4.07149
4.07147
4.07144
4.07141
4.07138
4.07134
4.07129
4.07124
4.07117
4.0711
4.07102
4.07093
4.07083
4.07071
4.07057
4.07042
4.07026
4.07007
4.06986
4.06964
4.06939
4.06912
4.06884
4.06857
4.06835
4.5595
4.55975
4.56006
4.56038
4.56069
4.56097
4.56123
4.56146
4.56168
4.56187
4.56204
4.56219
4.56233
4.56245
4.56255
4.56264
4.56273
4.5628
4.56286
4.56291
4.56296
4.563
4.56303
4.56306
4.56308
4.5631
4.56312
4.56313
4.56313
4.56314
4.56314
4.56313
4.56313
4.56312
4.5631
4.56308
4.56306
4.56303
4.563
4.56296
4.56291
4.56286
4.5628
4.56273
4.56264
4.56255
4.56245
4.56233
4.56219
4.56204
4.56187
4.56168
4.56146
4.56123
4.56097
4.56069
4.56038
4.56006
4.55975
4.5595
5.06031
5.06059
5.06095
5.06131
5.06165
5.06197
5.06226
5.06253
5.06276
5.06298
5.06317
5.06334
5.06349
5.06363
5.06375
5.06385
5.06394
5.06402
5.06409
5.06415
5.06421
5.06425
5.06429
5.06432
5.06435
5.06437
5.06438
5.0644
5.0644
5.06441
5.06441
5.0644
5.0644
5.06438
5.06437
5.06435
5.06432
5.06429
5.06425
5.06421
5.06415
5.06409
5.06402
5.06394
5.06385
5.06375
5.06363
5.06349
5.06334
5.06317
5.06298
5.06276
5.06253
5.06226
5.06197
5.06165
5.06131
5.06095
5.06059
5.06031
5.57074
5.57105
5.57145
5.57185
5.57223
5.57258
5.57291
5.5732
5.57347
5.5737
5.57392
5.57411
5.57428
5.57443
5.57456
5.57468
5.57478
5.57487
5.57494
5.57501
5.57507
5.57512
5.57516
5.5752
5.57523
5.57525
5.57527
5.57528
5.57529
5.57529
5.57529
5.57529
5.57528
5.57527
5.57525
5.57523
5.5752
5.57516
5.57512
5.57507
5.57501
5.57494
5.57487
5.57478
5.57468
5.57456
5.57443
5.57428
5.57411
5.57392
5.5737
5.57347
5.5732
5.57291
5.57258
5.57223
5.57185
5.57145
5.57105
5.57074
6.09069
6.09103
6.09146
6.09191
6.09233
6.09272
6.09307
6.0934
6.09369
6.09395
6.09419
6.0944
6.09458
6.09475
6.09489
6.09502
6.09513
6.09523
6.09532
6.09539
6.09545
6.09551
6.09556
6.09559
6.09563
6.09565
6.09567
6.09569
6.0957
6.0957
6.0957
6.0957
6.09569
6.09567
6.09565
6.09563
6.09559
6.09556
6.09551
6.09545
6.09539
6.09532
6.09523
6.09513
6.09502
6.09489
6.09475
6.09458
6.0944
6.09419
6.09395
6.09369
6.0934
6.09307
6.09272
6.09233
6.09191
6.09146
6.09103
6.09069
6.62003
6.6204
6.62087
6.62136
6.62181
6.62224
6.62263
6.62298
6.6233
6.62359
6.62385
6.62408
6.62428
6.62446
6.62462
6.62476
6.62488
6.62499
6.62508
6.62516
6.62523
6.62529
6.62534
6.62538
6.62542
6.62545
6.62547
6.62549
6.6255
6.6255
6.6255
6.6255
6.62549
6.62547
6.62545
6.62542
6.62538
6.62534
6.62529
6.62523
6.62516
6.62508
6.62499
6.62488
6.62476
6.62462
6.62446
6.62428
6.62408
6.62385
6.62359
6.6233
6.62298
6.62263
6.62224
6.62181
6.62136
6.62087
6.6204
6.62003
7.15859
7.15899
7.1595
7.16003
7.16052
7.16099
7.16141
7.16179
7.16214
7.16245
7.16273
7.16298
7.1632
7.16339
7.16356
7.16372
7.16385
7.16396
7.16407
7.16415
7.16423
7.16429
7.16435
7.16439
7.16443
7.16446
7.16449
7.16451
7.16452
7.16452
7.16452
7.16452
7.16451
7.16449
7.16446
7.16443
7.16439
7.16435
7.16429
7.16423
7.16415
7.16407
7.16396
7.16385
7.16372
7.16356
7.16339
7.1632
7.16298
7.16273
7.16245
7.16214
7.16179
7.16141
7.16099
7.16052
7.16003
7.1595
7.15899
7.15859
7.70616
7.70659
7.70714
7.70771
7.70824
7.70874
7.70919
7.70961
7.70998
7.71032
7.71062
7.71088
7.71112
7.71133
7.71152
7.71168
7.71182
7.71195
7.71206
7.71215
7.71223
7.7123
7.71236
7.71241
7.71245
7.71249
7.71251
7.71253
7.71254
7.71255
7.71255
7.71254
7.71253
7.71251
7.71249
7.71245
7.71241
7.71236
7.7123
7.71223
7.71215
7.71206
7.71195
7.71182
7.71168
7.71152
7.71133
7.71112
7.71088
7.71062
7.71032
7.70998
7.70961
7.70919
7.70874
7.70824
7.70771
7.70714
7.70659
7.70616
8.26247
8.26294
8.26353
8.26413
8.2647
8.26524
8.26573
8.26617
8.26657
8.26693
8.26725
8.26754
8.26779
8.26802
8.26821
8.26839
8.26854
8.26868
8.26879
8.2689
8.26898
8.26906
8.26912
8.26917
8.26922
8.26925
8.26928
8.2693
8.26932
8.26932
8.26932
8.26932
8.2693
8.26928
8.26925
8.26922
8.26917
8.26912
8.26906
8.26898
8.2689
8.26879
8.26868
8.26854
8.26839
8.26821
8.26802
8.26779
8.26754
8.26725
8.26693
8.26657
8.26617
8.26573
8.26524
8.2647
8.26413
8.26353
8.26294
8.26247
8.82723
8.82772
8.82835
8.82899
8.8296
8.83017
8.83069
8.83116
8.83159
8.83197
8.83231
8.83262
8.83289
8.83313
8.83334
8.83353
8.83369
8.83384
8.83396
8.83407
8.83416
8.83424
8.83431
8.83437
8.83441
8.83445
8.83448
8.8345
8.83452
8.83453
8.83453
8.83452
8.8345
8.83448
8.83445
8.83441
8.83437
8.83431
8.83424
8.83416
8.83407
8.83396
8.83384
8.83369
8.83353
8.83334
8.83313
8.83289
8.83262
8.83231
8.83197
8.83159
8.83116
8.83069
8.83017
8.8296
8.82899
8.82835
8.82772
8.82723
9.40004
9.40056
9.40123
9.40191
9.40256
9.40316
9.40371
9.40421
9.40467
9.40507
9.40544
9.40576
9.40605
9.4063
9.40653
9.40673
9.4069
9.40705
9.40719
9.4073
9.4074
9.40748
9.40756
9.40762
9.40767
9.40771
9.40774
9.40776
9.40778
9.40778
9.40778
9.40778
9.40776
9.40774
9.40771
9.40767
9.40762
9.40756
9.40748
9.4074
9.4073
9.40719
9.40705
9.4069
9.40673
9.40653
9.4063
9.40605
9.40576
9.40544
9.40507
9.40467
9.40421
9.40371
9.40316
9.40256
9.40191
9.40123
9.40056
9.40004
9.98047
9.98103
9.98173
9.98245
9.98313
9.98377
9.98435
9.98488
9.98536
9.98579
9.98617
9.98652
9.98682
9.98709
9.98733
9.98754
9.98772
9.98788
9.98802
9.98815
9.98825
9.98834
9.98842
9.98848
9.98853
9.98858
9.98861
9.98863
9.98865
9.98866
9.98866
9.98865
9.98863
9.98861
9.98858
9.98853
9.98848
9.98842
9.98834
9.98825
9.98815
9.98802
9.98788
9.98772
9.98754
9.98733
9.98709
9.98682
9.98652
9.98617
9.98579
9.98536
9.98488
9.98435
9.98377
9.98313
9.98245
9.98173
9.98103
9.98047
10.568
10.5686
10.5693
10.5701
10.5708
10.5715
10.5721
10.5727
10.5732
10.5736
10.574
10.5744
10.5747
10.575
10.5752
10.5754
10.5756
10.5758
10.576
10.5761
10.5762
10.5763
10.5764
10.5764
10.5765
10.5765
10.5766
10.5766
10.5766
10.5766
10.5766
10.5766
10.5766
10.5766
10.5765
10.5765
10.5764
10.5764
10.5763
10.5762
10.5761
10.576
10.5758
10.5756
10.5754
10.5752
10.575
10.5747
10.5744
10.574
10.5736
10.5732
10.5727
10.5721
10.5715
10.5708
10.5701
10.5693
10.5686
10.568
11.1621
11.1627
11.1635
11.1642
11.165
11.1657
11.1663
11.1669
11.1675
11.1679
11.1683
11.1687
11.1691
11.1694
11.1696
11.1699
11.1701
11.1702
11.1704
11.1705
11.1706
11.1707
11.1708
11.1709
11.171
11.171
11.171
11.1711
11.1711
11.1711
11.1711
11.1711
11.1711
11.171
11.171
11.171
11.1709
11.1708
11.1707
11.1706
11.1705
11.1704
11.1702
11.1701
11.1699
11.1696
11.1694
11.1691
11.1687
11.1683
11.1679
11.1675
11.1669
11.1663
11.1657
11.165
11.1642
11.1635
11.1627
11.1621
11.7619
11.7626
11.7634
11.7642
11.765
11.7657
11.7664
11.767
11.7675
11.768
11.7685
11.7689
11.7692
11.7695
11.7698
11.7701
11.7703
11.7705
11.7706
11.7708
11.7709
11.771
11.7711
11.7711
11.7712
11.7713
11.7713
11.7713
11.7713
11.7714
11.7714
11.7713
11.7713
11.7713
11.7713
11.7712
11.7711
11.7711
11.771
11.7709
11.7708
11.7706
11.7705
11.7703
11.7701
11.7698
11.7695
11.7692
11.7689
11.7685
11.768
11.7675
11.767
11.7664
11.7657
11.765
11.7642
11.7634
11.7626
11.7619
12.3668
12.3675
12.3683
12.3692
12.37
12.3707
12.3714
12.3721
12.3726
12.3732
12.3736
12.374
12.3744
12.3747
12.375
12.3753
12.3755
12.3757
12.3758
12.376
12.3761
12.3762
12.3763
12.3764
12.3765
12.3765
12.3765
12.3766
12.3766
12.3766
12.3766
12.3766
12.3766
12.3765
12.3765
12.3765
12.3764
12.3763
12.3762
12.3761
12.376
12.3758
12.3757
12.3755
12.3753
12.375
12.3747
12.3744
12.374
12.3736
12.3732
12.3726
12.3721
12.3714
12.3707
12.37
12.3692
12.3683
12.3675
12.3668
12.9757
12.9764
12.9773
12.9782
12.979
12.9798
12.9806
12.9812
12.9818
12.9823
12.9828
12.9832
12.9836
12.984
12.9843
12.9845
12.9848
12.985
12.9851
12.9853
12.9854
12.9855
12.9856
12.9857
12.9858
12.9858
12.9859
12.9859
12.9859
12.9859
12.9859
12.9859
12.9859
12.9859
12.9858
12.9858
12.9857
12.9856
12.9855
12.9854
12.9853
12.9851
12.985
12.9848
12.9845
12.9843
12.984
12.9836
12.9832
12.9828
12.9823
12.9818
12.9812
12.9806
12.9798
12.979
12.9782
12.9773
12.9764
12.9757
13.5877
13.5884
13.5893
13.5902
13.5911
13.5919
13.5927
13.5934
13.594
13.5945
13.595
13.5955
13.5959
13.5962
13.5965
13.5968
13.597
13.5972
13.5974
13.5976
13.5977
13.5978
13.5979
13.598
13.5981
13.5981
13.5982
13.5982
13.5982
13.5982
13.5982
13.5982
13.5982
13.5982
13.5981
13.5981
13.598
13.5979
13.5978
13.5977
13.5976
13.5974
13.5972
13.597
13.5968
13.5965
13.5962
13.5959
13.5955
13.595
13.5945
13.594
13.5934
13.5927
13.5919
13.5911
13.5902
13.5893
13.5884
13.5877
14.2015
14.2022
14.2031
14.2041
14.205
14.2058
14.2066
14.2073
14.2079
14.2085
14.209
14.2094
14.2098
14.2102
14.2105
14.2108
14.211
14.2113
14.2114
14.2116
14.2117
14.2119
14.212
14.2121
14.2121
14.2122
14.2122
14.2123
14.2123
14.2123
14.2123
14.2123
14.2123
14.2122
14.2122
14.2121
14.2121
14.212
14.2119
14.2117
14.2116
14.2114
14.2113
14.211
14.2108
14.2105
14.2102
14.2098
14.2094
14.209
14.2085
14.2079
14.2073
14.2066
14.2058
14.205
14.2041
14.2031
14.2022
14.2015
14.8156
14.8163
14.8173
14.8183
14.8192
14.8201
14.8208
14.8216
14.8222
14.8228
14.8233
14.8238
14.8242
14.8245
14.8249
14.8252
14.8254
14.8256
14.8258
14.826
14.8261
14.8263
14.8264
14.8264
14.8265
14.8266
14.8266
14.8267
14.8267
14.8267
14.8267
14.8267
14.8267
14.8266
14.8266
14.8265
14.8264
14.8264
14.8263
14.8261
14.826
14.8258
14.8256
14.8254
14.8252
14.8249
14.8245
14.8242
14.8238
14.8233
14.8228
14.8222
14.8216
14.8208
14.8201
14.8192
14.8183
14.8173
14.8163
14.8156
15.4285
15.4292
15.4302
15.4312
15.4321
15.433
15.4338
15.4346
15.4352
15.4358
15.4363
15.4368
15.4372
15.4376
15.4379
15.4382
15.4385
15.4387
15.4389
15.4391
15.4392
15.4394
15.4395
15.4396
15.4396
15.4397
15.4397
15.4398
15.4398
15.4398
15.4398
15.4398
15.4398
15.4397
15.4397
15.4396
15.4396
15.4395
15.4394
15.4392
15.4391
15.4389
15.4387
15.4385
15.4382
15.4379
15.4376
15.4372
15.4368
15.4363
15.4358
15.4352
15.4346
15.4338
15.433
15.4321
15.4312
15.4302
15.4292
15.4285
16.0382
16.039
16.04
16.041
16.042
16.0428
16.0437
16.0444
16.0451
16.0457
16.0462
16.0467
16.0471
16.0475
16.0478
16.0481
16.0484
16.0486
16.0488
16.049
16.0492
16.0493
16.0494
16.0495
16.0496
16.0496
16.0497
16.0497
16.0497
16.0497
16.0497
16.0497
16.0497
16.0497
16.0496
16.0496
16.0495
16.0494
16.0493
16.0492
16.049
16.0488
16.0486
16.0484
16.0481
16.0478
16.0475
16.0471
16.0467
16.0462
16.0457
16.0451
16.0444
16.0437
16.0428
16.042
16.041
16.04
16.039
16.0382
16.6427
16.6435
16.6445
16.6455
16.6464
16.6473
16.6482
16.6489
16.6496
16.6502
16.6507
16.6512
16.6517
16.6521
16.6524
16.6527
16.653
16.6532
16.6534
16.6536
16.6537
16.6539
16.654
16.6541
16.6541
16.6542
16.6543
16.6543
16.6543
16.6543
16.6543
16.6543
16.6543
16.6543
16.6542
16.6541
16.6541
16.654
16.6539
16.6537
16.6536
16.6534
16.6532
16.653
16.6527
16.6524
16.6521
16.6517
16.6512
16.6507
16.6502
16.6496
16.6489
16.6482
16.6473
16.6464
16.6455
16.6445
16.6435
16.6427
17.2393
17.2401
17.2411
17.2421
17.2431
17.244
17.2448
17.2456
17.2462
17.2469
17.2474
17.2479
17.2483
17.2487
17.2491
17.2494
17.2496
17.2499
17.2501
17.2502
17.2504
17.2505
17.2506
17.2507
17.2508
17.2509
17.2509
17.251
17.251
17.251
17.251
17.251
17.251
17.2509
17.2509
17.2508
17.2507
17.2506
17.2505
17.2504
17.2502
17.2501
17.2499
17.2496
17.2494
17.2491
17.2487
17.2483
17.2479
17.2474
17.2469
17.2462
17.2456
17.2448
17.244
17.2431
17.2421
17.2411
17.2401
17.2393
17.8251
17.8259
17.8269
17.828
17.8289
17.8298
17.8306
17.8314
17.8321
17.8327
17.8332
17.8337
17.8342
17.8345
17.8349
17.8352
17.8355
17.8357
17.8359
17.8361
17.8362
17.8364
17.8365
17.8366
17.8366
17.8367
17.8368
17.8368
17.8368
17.8368
17.8368
17.8368
17.8368
17.8368
17.8367
17.8366
17.8366
17.8365
17.8364
17.8362
17.8361
17.8359
17.8357
17.8355
17.8352
17.8349
17.8345
17.8342
17.8337
17.8332
17.8327
17.8321
17.8314
17.8306
17.8298
17.8289
17.828
17.8269
17.8259
17.8251
18.3967
18.3975
18.3985
18.3995
18.4005
18.4014
18.4022
18.4029
18.4036
18.4042
18.4047
18.4052
18.4057
18.406
18.4064
18.4067
18.407
18.4072
18.4074
18.4076
18.4077
18.4078
18.408
18.4081
18.4081
18.4082
18.4082
18.4083
18.4083
18.4083
18.4083
18.4083
18.4083
18.4082
18.4082
18.4081
18.4081
18.408
18.4078
18.4077
18.4076
18.4074
18.4072
18.407
18.4067
18.4064
18.406
18.4057
18.4052
18.4047
18.4042
18.4036
18.4029
18.4022
18.4014
18.4005
18.3995
18.3985
18.3975
18.3967
18.95
18.9508
18.9518
18.9528
18.9537
18.9545
18.9553
18.9561
18.9567
18.9573
18.9578
18.9583
18.9587
18.9591
18.9595
18.9597
18.96
18.9602
18.9604
18.9606
18.9608
18.9609
18.961
18.9611
18.9612
18.9612
18.9613
18.9613
18.9613
18.9614
18.9614
18.9613
18.9613
18.9613
18.9612
18.9612
18.9611
18.961
18.9609
18.9608
18.9606
18.9604
18.9602
18.96
18.9597
18.9595
18.9591
18.9587
18.9583
18.9578
18.9573
18.9567
18.9561
18.9553
18.9545
18.9537
18.9528
18.9518
18.9508
18.95
19.4801
19.4808
19.4818
19.4827
19.4836
19.4845
19.4852
19.4859
19.4866
19.4871
19.4876
19.4881
19.4885
19.4889
19.4892
19.4895
19.4897
19.49
19.4902
19.4903
19.4905
19.4906
19.4907
19.4908
19.4909
19.4909
19.491
19.491
19.491
19.4911
19.4911
19.491
19.491
19.491
19.4909
19.4909
19.4908
19.4907
19.4906
19.4905
19.4903
19.4902
19.49
19.4897
19.4895
19.4892
19.4889
19.4885
19.4881
19.4876
19.4871
19.4866
19.4859
19.4852
19.4845
19.4836
19.4827
19.4818
19.4808
19.4801
19.9812
19.9819
19.9828
19.9837
19.9845
19.9853
19.9861
19.9867
19.9873
19.9879
19.9883
19.9888
19.9892
19.9895
19.9898
19.9901
19.9903
19.9906
19.9907
19.9909
19.9911
19.9912
19.9913
19.9914
19.9914
19.9915
19.9915
19.9916
19.9916
19.9916
19.9916
19.9916
19.9916
19.9915
19.9915
19.9914
19.9914
19.9913
19.9912
19.9911
19.9909
19.9907
19.9906
19.9903
19.9901
19.9898
19.9895
19.9892
19.9888
19.9883
19.9879
19.9873
19.9867
19.9861
19.9853
19.9845
19.9837
19.9828
19.9819
19.9812
20.4466
20.4473
20.4481
20.4489
20.4497
20.4505
20.4511
20.4517
20.4523
20.4528
20.4533
20.4537
20.454
20.4544
20.4546
20.4549
20.4551
20.4553
20.4555
20.4557
20.4558
20.4559
20.456
20.4561
20.4562
20.4562
20.4563
20.4563
20.4563
20.4563
20.4563
20.4563
20.4563
20.4563
20.4562
20.4562
20.4561
20.456
20.4559
20.4558
20.4557
20.4555
20.4553
20.4551
20.4549
20.4546
20.4544
20.454
20.4537
20.4533
20.4528
20.4523
20.4517
20.4511
20.4505
20.4497
20.4489
20.4481
20.4473
20.4466
20.8691
20.8697
20.8704
20.8712
20.8719
20.8725
20.8732
20.8737
20.8742
20.8747
20.8751
20.8754
20.8758
20.8761
20.8763
20.8766
20.8768
20.877
20.8771
20.8773
20.8774
20.8775
20.8776
20.8777
20.8777
20.8778
20.8778
20.8779
20.8779
20.8779
20.8779
20.8779
20.8779
20.8778
20.8778
20.8777
20.8777
20.8776
20.8775
20.8774
20.8773
20.8771
20.877
20.8768
20.8766
20.8763
20.8761
20.8758
20.8754
20.8751
20.8747
20.8742
20.8737
20.8732
20.8725
20.8719
20.8712
20.8704
20.8697
20.8691
21.2417
21.2422
21.2428
21.2434
21.244
21.2446
21.2451
21.2456
21.2461
21.2465
21.2468
21.2471
21.2474
21.2477
21.2479
21.2481
21.2483
21.2485
21.2486
21.2488
21.2489
21.249
21.249
21.2491
21.2492
21.2492
21.2493
21.2493
21.2493
21.2493
21.2493
21.2493
21.2493
21.2493
21.2492
21.2492
21.2491
21.249
21.249
21.2489
21.2488
21.2486
21.2485
21.2483
21.2481
21.2479
21.2477
21.2474
21.2471
21.2468
21.2465
21.2461
21.2456
21.2451
21.2446
21.244
21.2434
21.2428
21.2422
21.2417
21.5593
21.5597
21.5603
21.5608
21.5613
21.5617
21.5622
21.5626
21.5629
21.5633
21.5636
21.5639
21.5641
21.5643
21.5645
21.5647
21.5649
21.565
21.5651
21.5653
21.5654
21.5654
21.5655
21.5656
21.5656
21.5657
21.5657
21.5657
21.5657
21.5657
21.5657
21.5657
21.5657
21.5657
21.5657
21.5656
21.5656
21.5655
21.5654
21.5654
21.5653
21.5651
21.565
21.5649
21.5647
21.5645
21.5643
21.5641
21.5639
21.5636
21.5633
21.5629
21.5626
21.5622
21.5617
21.5613
21.5608
21.5603
21.5597
21.5593
21.8212
21.8215
21.8219
21.8223
21.8227
21.8231
21.8234
21.8237
21.824
21.8243
21.8245
21.8248
21.825
21.8252
21.8253
21.8255
21.8256
21.8257
21.8258
21.8259
21.826
21.8261
21.8262
21.8262
21.8263
21.8263
21.8263
21.8263
21.8264
21.8264
21.8264
21.8264
21.8263
21.8263
21.8263
21.8263
21.8262
21.8262
21.8261
21.826
21.8259
21.8258
21.8257
21.8256
21.8255
21.8253
21.8252
21.825
21.8248
21.8245
21.8243
21.824
21.8237
21.8234
21.8231
21.8227
21.8223
21.8219
21.8215
21.8212
22.0312
22.0315
22.0318
22.0321
22.0324
22.0327
22.0329
22.0332
22.0334
22.0336
22.0338
22.034
22.0342
22.0343
22.0345
22.0346
22.0347
22.0348
22.0349
22.035
22.035
22.0351
22.0352
22.0352
22.0352
22.0353
22.0353
22.0353
22.0353
22.0353
22.0353
22.0353
22.0353
22.0353
22.0353
22.0352
22.0352
22.0352
22.0351
22.035
22.035
22.0349
22.0348
22.0347
22.0346
22.0345
22.0343
22.0342
22.034
22.0338
22.0336
22.0334
22.0332
22.0329
22.0327
22.0324
22.0321
22.0318
22.0315
22.0312
22.1977
22.1978
22.198
22.1983
22.1985
22.1987
22.1989
22.1991
22.1993
22.1994
22.1996
22.1998
22.1999
22.2
22.2001
22.2002
22.2003
22.2004
22.2005
22.2006
22.2006
22.2007
22.2007
22.2008
22.2008
22.2008
22.2009
22.2009
22.2009
22.2009
22.2009
22.2009
22.2009
22.2009
22.2008
22.2008
22.2008
22.2007
22.2007
22.2006
22.2006
22.2005
22.2004
22.2003
22.2002
22.2001
22.2
22.1999
22.1998
22.1996
22.1994
22.1993
22.1991
22.1989
22.1987
22.1985
22.1983
22.198
22.1978
22.1977
22.3303
22.3304
22.3305
22.3307
22.3308
22.331
22.3312
22.3313
22.3314
22.3316
22.3317
22.3318
22.3319
22.332
22.3321
22.3322
22.3323
22.3324
22.3325
22.3325
22.3326
22.3326
22.3327
22.3327
22.3328
22.3328
22.3328
22.3328
22.3328
22.3328
22.3328
22.3328
22.3328
22.3328
22.3328
22.3328
22.3327
22.3327
22.3326
22.3326
22.3325
22.3325
22.3324
22.3323
22.3322
22.3321
22.332
22.3319
22.3318
22.3317
22.3316
22.3314
22.3313
22.3312
22.331
22.3308
22.3307
22.3305
22.3304
22.3303
22.4381
22.4381
22.4383
22.4384
22.4385
22.4386
22.4387
22.4389
22.439
22.4391
22.4392
22.4393
22.4394
22.4395
22.4396
22.4397
22.4397
22.4398
22.4399
22.4399
22.44
22.44
22.4401
22.4401
22.4401
22.4402
22.4402
22.4402
22.4402
22.4402
22.4402
22.4402
22.4402
22.4402
22.4402
22.4401
22.4401
22.4401
22.44
22.44
22.4399
22.4399
22.4398
22.4397
22.4397
22.4396
22.4395
22.4394
22.4393
22.4392
22.4391
22.439
22.4389
22.4387
22.4386
22.4385
22.4384
22.4383
22.4381
22.4381
22.5283
22.5283
22.5284
22.5285
22.5286
22.5287
22.5288
22.5289
22.529
22.5291
22.5292
22.5293
22.5294
22.5294
22.5295
22.5296
22.5297
22.5297
22.5298
22.5298
22.5299
22.5299
22.53
22.53
22.53
22.5301
22.5301
22.5301
22.5301
22.5301
22.5301
22.5301
22.5301
22.5301
22.5301
22.53
22.53
22.53
22.5299
22.5299
22.5298
22.5298
22.5297
22.5297
22.5296
22.5295
22.5294
22.5294
22.5293
22.5292
22.5291
22.529
22.5289
22.5288
22.5287
22.5286
22.5285
22.5284
22.5283
22.5283
22.6059
22.6059
22.606
22.6061
22.6061
22.6062
22.6063
22.6064
22.6065
22.6066
22.6066
22.6067
22.6068
22.6069
22.607
22.607
22.6071
22.6072
22.6072
22.6073
22.6073
22.6074
22.6074
22.6074
22.6075
22.6075
22.6075
22.6075
22.6075
22.6075
22.6075
22.6075
22.6075
22.6075
22.6075
22.6075
22.6074
22.6074
22.6074
22.6073
22.6073
22.6072
22.6072
22.6071
22.607
22.607
22.6069
22.6068
22.6067
22.6066
22.6066
22.6065
22.6064
22.6063
22.6062
22.6061
22.6061
22.606
22.6059
22.6059
22.6743
22.6743
22.6744
22.6744
22.6745
22.6746
22.6746
22.6747
22.6748
22.6749
22.6749
22.675
22.6751
22.6752
22.6752
22.6753
22.6754
22.6754
22.6755
22.6755
22.6756
22.6756
22.6757
22.6757
22.6757
22.6758
22.6758
22.6758
22.6758
22.6758
22.6758
22.6758
22.6758
22.6758
22.6758
22.6757
22.6757
22.6757
22.6756
22.6756
22.6755
22.6755
22.6754
22.6754
22.6753
22.6752
22.6752
22.6751
22.675
22.6749
22.6749
22.6748
22.6747
22.6746
22.6746
22.6745
22.6744
22.6744
22.6743
22.6743
22.7357
22.7357
22.7357
22.7358
22.7358
22.7359
22.736
22.736
22.7361
22.7362
22.7362
22.7363
22.7364
22.7365
22.7365
22.7366
22.7367
22.7367
22.7368
22.7368
22.7369
22.7369
22.737
22.737
22.737
22.7371
22.7371
22.7371
22.7371
22.7371
22.7371
22.7371
22.7371
22.7371
22.7371
22.737
22.737
22.737
22.7369
22.7369
22.7368
22.7368
22.7367
22.7367
22.7366
22.7365
22.7365
22.7364
22.7363
22.7362
22.7362
22.7361
22.736
22.736
22.7359
22.7358
22.7358
22.7357
22.7357
22.7357
22.7916
22.7916
22.7916
22.7916
22.7917
22.7917
22.7918
22.7918
22.7919
22.792
22.792
22.7921
22.7922
22.7923
22.7923
22.7924
22.7925
22.7925
22.7926
22.7926
22.7927
22.7927
22.7928
22.7928
22.7928
22.7929
22.7929
22.7929
22.7929
22.7929
22.7929
22.7929
22.7929
22.7929
22.7929
22.7928
22.7928
22.7928
22.7927
22.7927
22.7926
22.7926
22.7925
22.7925
22.7924
22.7923
22.7923
22.7922
22.7921
22.792
22.792
22.7919
22.7918
22.7918
22.7917
22.7917
22.7916
22.7916
22.7916
22.7916
22.843
22.8429
22.843
22.843
22.843
22.8431
22.8431
22.8432
22.8433
22.8433
22.8434
22.8435
22.8435
22.8436
22.8437
22.8437
22.8438
22.8439
22.8439
22.844
22.844
22.8441
22.8441
22.8442
22.8442
22.8442
22.8442
22.8442
22.8443
22.8443
22.8443
22.8443
22.8442
22.8442
22.8442
22.8442
22.8442
22.8441
22.8441
22.844
22.844
22.8439
22.8439
22.8438
22.8437
22.8437
22.8436
22.8435
22.8435
22.8434
22.8433
22.8433
22.8432
22.8431
22.8431
22.843
22.843
22.843
22.8429
22.843
22.8906
22.8906
22.8906
22.8907
22.8907
22.8907
22.8908
22.8909
22.8909
22.891
22.891
22.8911
22.8912
22.8913
22.8913
22.8914
22.8915
22.8915
22.8916
22.8917
22.8917
22.8917
22.8918
22.8918
22.8919
22.8919
22.8919
22.8919
22.8919
22.8919
22.8919
22.8919
22.8919
22.8919
22.8919
22.8919
22.8918
22.8918
22.8917
22.8917
22.8917
22.8916
22.8915
22.8915
22.8914
22.8913
22.8913
22.8912
22.8911
22.891
22.891
22.8909
22.8909
22.8908
22.8907
22.8907
22.8907
22.8906
22.8906
22.8906
22.9352
22.9352
22.9352
22.9352
22.9352
22.9353
22.9353
22.9354
22.9355
22.9355
22.9356
22.9357
22.9357
22.9358
22.9359
22.9359
22.936
22.9361
22.9361
22.9362
22.9363
22.9363
22.9363
22.9364
22.9364
22.9364
22.9365
22.9365
22.9365
22.9365
22.9365
22.9365
22.9365
22.9365
22.9364
22.9364
22.9364
22.9363
22.9363
22.9363
22.9362
22.9361
22.9361
22.936
22.9359
22.9359
22.9358
22.9357
22.9357
22.9356
22.9355
22.9355
22.9354
22.9353
22.9353
22.9352
22.9352
22.9352
22.9352
22.9352
22.9771
22.9771
22.9771
22.9771
22.9771
22.9772
22.9772
22.9773
22.9773
22.9774
22.9775
22.9775
22.9776
22.9777
22.9778
22.9778
22.9779
22.978
22.978
22.9781
22.9781
22.9782
22.9782
22.9783
22.9783
22.9783
22.9783
22.9784
22.9784
22.9784
22.9784
22.9784
22.9784
22.9783
22.9783
22.9783
22.9783
22.9782
22.9782
22.9781
22.9781
22.978
22.978
22.9779
22.9778
22.9778
22.9777
22.9776
22.9775
22.9775
22.9774
22.9773
22.9773
22.9772
22.9772
22.9771
22.9771
22.9771
22.9771
22.9771
23.0166
23.0166
23.0166
23.0166
23.0167
23.0167
23.0168
23.0168
23.0169
23.0169
23.017
23.0171
23.0172
23.0172
23.0173
23.0174
23.0175
23.0175
23.0176
23.0177
23.0177
23.0178
23.0178
23.0178
23.0179
23.0179
23.0179
23.0179
23.018
23.018
23.018
23.018
23.0179
23.0179
23.0179
23.0179
23.0178
23.0178
23.0178
23.0177
23.0177
23.0176
23.0175
23.0175
23.0174
23.0173
23.0172
23.0172
23.0171
23.017
23.0169
23.0169
23.0168
23.0168
23.0167
23.0167
23.0166
23.0166
23.0166
23.0166
23.0542
23.0542
23.0542
23.0542
23.0542
23.0542
23.0543
23.0543
23.0544
23.0545
23.0545
23.0546
23.0547
23.0548
23.0549
23.0549
23.055
23.0551
23.0551
23.0552
23.0553
23.0553
23.0554
23.0554
23.0554
23.0555
23.0555
23.0555
23.0555
23.0555
23.0555
23.0555
23.0555
23.0555
23.0555
23.0554
23.0554
23.0554
23.0553
23.0553
23.0552
23.0551
23.0551
23.055
23.0549
23.0549
23.0548
23.0547
23.0546
23.0545
23.0545
23.0544
23.0543
23.0543
23.0542
23.0542
23.0542
23.0542
23.0542
23.0542
23.0899
23.0899
23.0899
23.0899
23.0899
23.09
23.09
23.0901
23.0901
23.0902
23.0903
23.0904
23.0905
23.0905
23.0906
23.0907
23.0908
23.0908
23.0909
23.091
23.091
23.0911
23.0911
23.0912
23.0912
23.0913
23.0913
23.0913
23.0913
23.0913
23.0913
23.0913
23.0913
23.0913
23.0913
23.0912
23.0912
23.0911
23.0911
23.091
23.091
23.0909
23.0908
23.0908
23.0907
23.0906
23.0905
23.0905
23.0904
23.0903
23.0902
23.0901
23.0901
23.09
23.09
23.0899
23.0899
23.0899
23.0899
23.0899
23.124
23.124
23.124
23.1241
23.1241
23.1241
23.1242
23.1242
23.1243
23.1244
23.1245
23.1245
23.1246
23.1247
23.1248
23.1249
23.125
23.125
23.1251
23.1252
23.1252
23.1253
23.1253
23.1254
23.1254
23.1254
23.1255
23.1255
23.1255
23.1255
23.1255
23.1255
23.1255
23.1255
23.1254
23.1254
23.1254
23.1253
23.1253
23.1252
23.1252
23.1251
23.125
23.125
23.1249
23.1248
23.1247
23.1246
23.1245
23.1245
23.1244
23.1243
23.1242
23.1242
23.1241
23.1241
23.1241
23.124
23.124
23.124
23.1568
23.1568
23.1568
23.1568
23.1568
23.1569
23.1569
23.157
23.157
23.1571
23.1572
23.1573
23.1574
23.1575
23.1575
23.1576
23.1577
23.1578
23.1579
23.1579
23.158
23.1581
23.1581
23.1581
23.1582
23.1582
23.1582
23.1583
23.1583
23.1583
23.1583
23.1583
23.1583
23.1582
23.1582
23.1582
23.1581
23.1581
23.1581
23.158
23.1579
23.1579
23.1578
23.1577
23.1576
23.1575
23.1575
23.1574
23.1573
23.1572
23.1571
23.157
23.157
23.1569
23.1569
23.1568
23.1568
23.1568
23.1568
23.1568
23.1882
23.1882
23.1882
23.1882
23.1883
23.1883
23.1884
23.1884
23.1885
23.1886
23.1887
23.1887
23.1888
23.1889
23.189
23.1891
23.1892
23.1893
23.1893
23.1894
23.1895
23.1895
23.1896
23.1896
23.1897
23.1897
23.1897
23.1898
23.1898
23.1898
23.1898
23.1898
23.1898
23.1897
23.1897
23.1897
23.1896
23.1896
23.1895
23.1895
23.1894
23.1893
23.1893
23.1892
23.1891
23.189
23.1889
23.1888
23.1887
23.1887
23.1886
23.1885
23.1884
23.1884
23.1883
23.1883
23.1882
23.1882
23.1882
23.1882
23.2185
23.2185
23.2185
23.2185
23.2185
23.2186
23.2186
23.2187
23.2188
23.2189
23.2189
23.219
23.2191