/*--------------------------------*- C++ -*----------------------------------*\
| =========                 |                                                 |
| \\      /  F ield         | foam-extend: Open Source CFD                    |
|  \\    /   O peration     | Version:     4.0                                |
|   \\  /    A nd           | Web:         http://www.foam-extend.org         |
|    \\/     M anipulation  |                                                 |
\*---------------------------------------------------------------------------*/
FoamFile
{
    version     2.0;
    format      ascii;
    class       volScalarField;
    location    "340";
    object      cPlus;
}
// * * * * * * * * * * * * * * * * * * * * * * * * * * * * * * * * * * * * * //

dimensions      [0 0 0 0 0 0 0];

internalField   nonuniform List<scalar> 
6960
(
0.191481
0.191401
0.191372
0.191363
0.19136
0.19136
0.19136
0.191361
0.191361
0.191362
0.191363
0.191363
0.191364
0.191364
0.191365
0.191365
0.191366
0.191366
0.191366
0.191367
0.191367
0.191367
0.191367
0.191368
0.191368
0.191368
0.191368
0.191368
0.191368
0.191368
0.191368
0.191368
0.191368
0.191368
0.191368
0.191368
0.191368
0.191367
0.191367
0.191367
0.191367
0.191366
0.191366
0.191366
0.191365
0.191365
0.191364
0.191364
0.191363
0.191363
0.191362
0.191361
0.191361
0.19136
0.19136
0.19136
0.191363
0.191372
0.191401
0.191481
0.0581421
0.0581345
0.0581309
0.0581298
0.0581296
0.0581298
0.05813
0.0581303
0.0581305
0.0581308
0.058131
0.0581313
0.0581315
0.0581317
0.0581319
0.0581321
0.0581323
0.0581325
0.0581326
0.0581328
0.0581329
0.058133
0.0581331
0.0581332
0.0581333
0.0581333
0.0581334
0.0581334
0.0581335
0.0581335
0.0581335
0.0581335
0.0581334
0.0581334
0.0581333
0.0581333
0.0581332
0.0581331
0.058133
0.0581329
0.0581328
0.0581326
0.0581325
0.0581323
0.0581321
0.0581319
0.0581317
0.0581315
0.0581313
0.058131
0.0581308
0.0581305
0.0581303
0.05813
0.0581298
0.0581296
0.0581298
0.0581309
0.0581345
0.0581421
0.04084
0.0408556
0.0408602
0.0408617
0.0408623
0.0408626
0.0408629
0.040863
0.0408632
0.0408634
0.0408635
0.0408636
0.0408638
0.0408639
0.040864
0.0408641
0.0408642
0.0408643
0.0408644
0.0408645
0.0408645
0.0408646
0.0408647
0.0408647
0.0408648
0.0408648
0.0408648
0.0408648
0.0408649
0.0408649
0.0408649
0.0408649
0.0408648
0.0408648
0.0408648
0.0408648
0.0408647
0.0408647
0.0408646
0.0408645
0.0408645
0.0408644
0.0408643
0.0408642
0.0408641
0.040864
0.0408639
0.0408638
0.0408636
0.0408635
0.0408634
0.0408632
0.040863
0.0408629
0.0408626
0.0408623
0.0408617
0.0408602
0.0408556
0.04084
0.0392962
0.0393179
0.0393246
0.0393269
0.0393277
0.039328
0.0393282
0.0393284
0.0393286
0.0393287
0.0393288
0.0393289
0.039329
0.0393291
0.0393292
0.0393293
0.0393294
0.0393295
0.0393296
0.0393296
0.0393297
0.0393298
0.0393298
0.0393298
0.0393299
0.0393299
0.0393299
0.03933
0.03933
0.03933
0.03933
0.03933
0.03933
0.0393299
0.0393299
0.0393299
0.0393298
0.0393298
0.0393298
0.0393297
0.0393296
0.0393296
0.0393295
0.0393294
0.0393293
0.0393292
0.0393291
0.039329
0.0393289
0.0393288
0.0393287
0.0393286
0.0393284
0.0393282
0.039328
0.0393277
0.0393269
0.0393246
0.0393179
0.0392962
0.0401326
0.0401566
0.0401641
0.0401666
0.0401675
0.0401678
0.0401681
0.0401682
0.0401684
0.0401685
0.0401687
0.0401688
0.0401689
0.040169
0.0401691
0.0401692
0.0401693
0.0401694
0.0401694
0.0401695
0.0401696
0.0401696
0.0401697
0.0401697
0.0401698
0.0401698
0.0401698
0.0401698
0.0401698
0.0401699
0.0401699
0.0401698
0.0401698
0.0401698
0.0401698
0.0401698
0.0401697
0.0401697
0.0401696
0.0401696
0.0401695
0.0401694
0.0401694
0.0401693
0.0401692
0.0401691
0.040169
0.0401689
0.0401688
0.0401687
0.0401685
0.0401684
0.0401682
0.0401681
0.0401678
0.0401675
0.0401666
0.0401641
0.0401566
0.0401326
0.0414604
0.041486
0.041494
0.0414967
0.0414976
0.041498
0.0414983
0.0414985
0.0414986
0.0414988
0.0414989
0.0414991
0.0414992
0.0414993
0.0414994
0.0414995
0.0414996
0.0414997
0.0414998
0.0414998
0.0414999
0.0415
0.0415
0.0415001
0.0415001
0.0415001
0.0415002
0.0415002
0.0415002
0.0415002
0.0415002
0.0415002
0.0415002
0.0415002
0.0415001
0.0415001
0.0415001
0.0415
0.0415
0.0414999
0.0414998
0.0414998
0.0414997
0.0414996
0.0414995
0.0414994
0.0414993
0.0414992
0.0414991
0.0414989
0.0414988
0.0414986
0.0414985
0.0414983
0.041498
0.0414976
0.0414967
0.041494
0.041486
0.0414604
0.0430405
0.0430679
0.0430765
0.0430793
0.0430804
0.0430808
0.0430811
0.0430813
0.0430815
0.0430816
0.0430818
0.0430819
0.0430821
0.0430822
0.0430823
0.0430824
0.0430825
0.0430826
0.0430827
0.0430828
0.0430829
0.0430829
0.043083
0.043083
0.0430831
0.0430831
0.0430832
0.0430832
0.0430832
0.0430832
0.0430832
0.0430832
0.0430832
0.0430832
0.0430831
0.0430831
0.043083
0.043083
0.0430829
0.0430829
0.0430828
0.0430827
0.0430826
0.0430825
0.0430824
0.0430823
0.0430822
0.0430821
0.0430819
0.0430818
0.0430816
0.0430815
0.0430813
0.0430811
0.0430808
0.0430804
0.0430793
0.0430765
0.0430679
0.0430405
0.0448832
0.0449127
0.044922
0.0449251
0.0449262
0.0449267
0.044927
0.0449272
0.0449274
0.0449276
0.0449277
0.0449279
0.044928
0.0449282
0.0449283
0.0449284
0.0449286
0.0449287
0.0449288
0.0449288
0.0449289
0.044929
0.0449291
0.0449291
0.0449292
0.0449292
0.0449293
0.0449293
0.0449293
0.0449293
0.0449293
0.0449293
0.0449293
0.0449293
0.0449292
0.0449292
0.0449291
0.0449291
0.044929
0.0449289
0.0449288
0.0449288
0.0449287
0.0449286
0.0449284
0.0449283
0.0449282
0.044928
0.0449279
0.0449277
0.0449276
0.0449274
0.0449272
0.044927
0.0449267
0.0449262
0.0449251
0.044922
0.0449127
0.0448832
0.0470513
0.0470834
0.0470935
0.0470969
0.0470981
0.0470986
0.047099
0.0470992
0.0470994
0.0470996
0.0470998
0.0471
0.0471002
0.0471003
0.0471005
0.0471006
0.0471007
0.0471009
0.047101
0.0471011
0.0471012
0.0471013
0.0471013
0.0471014
0.0471014
0.0471015
0.0471015
0.0471016
0.0471016
0.0471016
0.0471016
0.0471016
0.0471016
0.0471015
0.0471015
0.0471014
0.0471014
0.0471013
0.0471013
0.0471012
0.0471011
0.047101
0.0471009
0.0471007
0.0471006
0.0471005
0.0471003
0.0471002
0.0471
0.0470998
0.0470996
0.0470994
0.0470992
0.047099
0.0470986
0.0470981
0.0470969
0.0470935
0.0470834
0.0470513
0.0496404
0.0496758
0.0496869
0.0496907
0.049692
0.0496926
0.049693
0.0496933
0.0496936
0.0496938
0.049694
0.0496942
0.0496944
0.0496946
0.0496948
0.0496949
0.0496951
0.0496952
0.0496953
0.0496954
0.0496955
0.0496956
0.0496957
0.0496958
0.0496959
0.0496959
0.049696
0.049696
0.049696
0.049696
0.049696
0.049696
0.049696
0.049696
0.0496959
0.0496959
0.0496958
0.0496957
0.0496956
0.0496955
0.0496954
0.0496953
0.0496952
0.0496951
0.0496949
0.0496948
0.0496946
0.0496944
0.0496942
0.049694
0.0496938
0.0496936
0.0496933
0.049693
0.0496926
0.049692
0.0496907
0.0496869
0.0496758
0.0496404
0.05279
0.0528297
0.0528422
0.0528464
0.052848
0.0528487
0.0528491
0.0528494
0.0528497
0.05285
0.0528502
0.0528505
0.0528507
0.0528509
0.0528511
0.0528513
0.0528515
0.0528516
0.0528518
0.0528519
0.052852
0.0528522
0.0528522
0.0528523
0.0528524
0.0528525
0.0528525
0.0528526
0.0528526
0.0528526
0.0528526
0.0528526
0.0528526
0.0528525
0.0528525
0.0528524
0.0528523
0.0528522
0.0528522
0.052852
0.0528519
0.0528518
0.0528516
0.0528515
0.0528513
0.0528511
0.0528509
0.0528507
0.0528505
0.0528502
0.05285
0.0528497
0.0528494
0.0528491
0.0528487
0.052848
0.0528464
0.0528422
0.0528297
0.05279
0.0567078
0.0567532
0.0567675
0.0567724
0.0567742
0.056775
0.0567755
0.0567759
0.0567763
0.0567766
0.0567769
0.0567772
0.0567774
0.0567777
0.0567779
0.0567782
0.0567784
0.0567786
0.0567787
0.0567789
0.056779
0.0567792
0.0567793
0.0567794
0.0567795
0.0567796
0.0567796
0.0567797
0.0567797
0.0567797
0.0567797
0.0567797
0.0567797
0.0567796
0.0567796
0.0567795
0.0567794
0.0567793
0.0567792
0.056779
0.0567789
0.0567787
0.0567786
0.0567784
0.0567782
0.0567779
0.0567777
0.0567774
0.0567772
0.0567769
0.0567766
0.0567763
0.0567759
0.0567755
0.056775
0.0567742
0.0567724
0.0567675
0.0567532
0.0567078
0.0617078
0.061761
0.061778
0.0617837
0.0617858
0.0617868
0.0617874
0.0617879
0.0617883
0.0617887
0.0617891
0.0617895
0.0617898
0.0617901
0.0617904
0.0617907
0.0617909
0.0617912
0.0617914
0.0617916
0.0617918
0.0617919
0.0617921
0.0617922
0.0617923
0.0617924
0.0617925
0.0617925
0.0617926
0.0617926
0.0617926
0.0617926
0.0617925
0.0617925
0.0617924
0.0617923
0.0617922
0.0617921
0.0617919
0.0617918
0.0617916
0.0617914
0.0617912
0.0617909
0.0617907
0.0617904
0.0617901
0.0617898
0.0617895
0.0617891
0.0617887
0.0617883
0.0617879
0.0617874
0.0617868
0.0617858
0.0617837
0.061778
0.061761
0.0617078
0.0682598
0.0683242
0.0683447
0.0683517
0.0683543
0.0683556
0.0683563
0.0683569
0.0683575
0.068358
0.0683584
0.0683589
0.0683593
0.0683597
0.0683601
0.0683604
0.0683607
0.068361
0.0683613
0.0683616
0.0683618
0.068362
0.0683622
0.0683624
0.0683625
0.0683626
0.0683627
0.0683628
0.0683628
0.0683628
0.0683628
0.0683628
0.0683628
0.0683627
0.0683626
0.0683625
0.0683624
0.0683622
0.068362
0.0683618
0.0683616
0.0683613
0.068361
0.0683607
0.0683604
0.0683601
0.0683597
0.0683593
0.0683589
0.0683584
0.068358
0.0683575
0.0683569
0.0683563
0.0683556
0.0683543
0.0683517
0.0683447
0.0683242
0.0682598
0.0770279
0.077108
0.0771336
0.0771424
0.0771457
0.0771472
0.0771482
0.077149
0.0771497
0.0771503
0.077151
0.0771515
0.0771521
0.0771526
0.077153
0.0771535
0.0771539
0.0771543
0.0771547
0.077155
0.0771553
0.0771555
0.0771558
0.077156
0.0771562
0.0771563
0.0771564
0.0771565
0.0771566
0.0771566
0.0771566
0.0771566
0.0771565
0.0771564
0.0771563
0.0771562
0.077156
0.0771558
0.0771555
0.0771553
0.077155
0.0771547
0.0771543
0.0771539
0.0771535
0.077153
0.0771526
0.0771521
0.0771515
0.077151
0.0771503
0.0771497
0.077149
0.0771482
0.0771472
0.0771457
0.0771424
0.0771336
0.077108
0.0770279
0.0888395
0.0889411
0.0889739
0.0889851
0.0889893
0.0889913
0.0889925
0.0889935
0.0889944
0.0889953
0.0889961
0.0889968
0.0889975
0.0889981
0.0889988
0.0889993
0.0889999
0.0890004
0.0890008
0.0890013
0.0890016
0.089002
0.0890023
0.0890026
0.0890028
0.089003
0.0890032
0.0890033
0.0890034
0.0890034
0.0890034
0.0890034
0.0890033
0.0890032
0.089003
0.0890028
0.0890026
0.0890023
0.089002
0.0890016
0.0890013
0.0890008
0.0890004
0.0889999
0.0889993
0.0889988
0.0889981
0.0889975
0.0889968
0.0889961
0.0889953
0.0889944
0.0889935
0.0889925
0.0889913
0.0889893
0.0889851
0.0889739
0.0889411
0.0888395
0.104516
0.104645
0.104686
0.104701
0.104706
0.104709
0.10471
0.104712
0.104713
0.104714
0.104715
0.104716
0.104717
0.104717
0.104718
0.104719
0.10472
0.10472
0.104721
0.104721
0.104722
0.104722
0.104723
0.104723
0.104723
0.104724
0.104724
0.104724
0.104724
0.104724
0.104724
0.104724
0.104724
0.104724
0.104724
0.104723
0.104723
0.104723
0.104722
0.104722
0.104721
0.104721
0.10472
0.10472
0.104719
0.104718
0.104717
0.104717
0.104716
0.104715
0.104714
0.104713
0.104712
0.10471
0.104709
0.104706
0.104701
0.104686
0.104645
0.104516
0.124562
0.124723
0.124776
0.124794
0.1248
0.124803
0.124805
0.124807
0.124808
0.12481
0.124811
0.124812
0.124813
0.124814
0.124815
0.124816
0.124817
0.124818
0.124818
0.124819
0.124819
0.12482
0.12482
0.124821
0.124821
0.124822
0.124822
0.124822
0.124822
0.124822
0.124822
0.124822
0.124822
0.124822
0.124822
0.124821
0.124821
0.12482
0.12482
0.124819
0.124819
0.124818
0.124818
0.124817
0.124816
0.124815
0.124814
0.124813
0.124812
0.124811
0.12481
0.124808
0.124807
0.124805
0.124803
0.1248
0.124794
0.124776
0.124723
0.124562
0.148886
0.14908
0.149144
0.149166
0.149174
0.149178
0.14918
0.149182
0.149184
0.149185
0.149187
0.149188
0.149189
0.14919
0.149191
0.149192
0.149193
0.149194
0.149195
0.149196
0.149196
0.149197
0.149198
0.149198
0.149198
0.149199
0.149199
0.149199
0.149199
0.149199
0.149199
0.149199
0.149199
0.149199
0.149199
0.149198
0.149198
0.149198
0.149197
0.149196
0.149196
0.149195
0.149194
0.149193
0.149192
0.149191
0.14919
0.149189
0.149188
0.149187
0.149185
0.149184
0.149182
0.14918
0.149178
0.149174
0.149166
0.149144
0.14908
0.148886
0.176758
0.176983
0.177058
0.177084
0.177094
0.177098
0.1771
0.177102
0.177104
0.177106
0.177107
0.177109
0.17711
0.177111
0.177113
0.177114
0.177115
0.177116
0.177117
0.177117
0.177118
0.177119
0.177119
0.17712
0.17712
0.177121
0.177121
0.177121
0.177121
0.177121
0.177121
0.177121
0.177121
0.177121
0.177121
0.17712
0.17712
0.177119
0.177119
0.177118
0.177117
0.177117
0.177116
0.177115
0.177114
0.177113
0.177111
0.17711
0.177109
0.177107
0.177106
0.177104
0.177102
0.1771
0.177098
0.177094
0.177084
0.177058
0.176983
0.176758
0.207074
0.207327
0.207412
0.207441
0.207452
0.207457
0.20746
0.207462
0.207464
0.207465
0.207467
0.207468
0.20747
0.207471
0.207472
0.207473
0.207474
0.207475
0.207476
0.207477
0.207478
0.207479
0.207479
0.20748
0.20748
0.207481
0.207481
0.207481
0.207481
0.207481
0.207481
0.207481
0.207481
0.207481
0.207481
0.20748
0.20748
0.207479
0.207479
0.207478
0.207477
0.207476
0.207475
0.207474
0.207473
0.207472
0.207471
0.20747
0.207468
0.207467
0.207465
0.207464
0.207462
0.20746
0.207457
0.207452
0.207441
0.207412
0.207327
0.207074
0.238722
0.238998
0.239092
0.239125
0.239137
0.239142
0.239145
0.239147
0.239149
0.239151
0.239152
0.239154
0.239155
0.239157
0.239158
0.239159
0.23916
0.239161
0.239162
0.239163
0.239164
0.239164
0.239165
0.239166
0.239166
0.239167
0.239167
0.239167
0.239167
0.239167
0.239167
0.239167
0.239167
0.239167
0.239167
0.239166
0.239166
0.239165
0.239164
0.239164
0.239163
0.239162
0.239161
0.23916
0.239159
0.239158
0.239157
0.239155
0.239154
0.239152
0.239151
0.239149
0.239147
0.239145
0.239142
0.239137
0.239125
0.239092
0.238998
0.238722
0.270826
0.271122
0.271223
0.271259
0.271272
0.271278
0.271281
0.271283
0.271285
0.271287
0.271288
0.27129
0.271291
0.271292
0.271294
0.271295
0.271296
0.271297
0.271298
0.271299
0.271299
0.2713
0.271301
0.271301
0.271302
0.271302
0.271302
0.271303
0.271303
0.271303
0.271303
0.271303
0.271303
0.271302
0.271302
0.271302
0.271301
0.271301
0.2713
0.271299
0.271299
0.271298
0.271297
0.271296
0.271295
0.271294
0.271292
0.271291
0.27129
0.271288
0.271287
0.271285
0.271283
0.271281
0.271278
0.271272
0.271259
0.271223
0.271122
0.270826
0.3028
0.303111
0.303221
0.303259
0.303273
0.303279
0.303282
0.303284
0.303286
0.303288
0.303289
0.303291
0.303292
0.303294
0.303295
0.303296
0.303297
0.303298
0.303299
0.3033
0.3033
0.303301
0.303302
0.303302
0.303303
0.303303
0.303303
0.303303
0.303304
0.303304
0.303304
0.303304
0.303303
0.303303
0.303303
0.303303
0.303302
0.303302
0.303301
0.3033
0.3033
0.303299
0.303298
0.303297
0.303296
0.303295
0.303294
0.303292
0.303291
0.303289
0.303288
0.303286
0.303284
0.303282
0.303279
0.303273
0.303259
0.303221
0.303111
0.3028
0.33429
0.334616
0.334732
0.334773
0.334788
0.334795
0.334798
0.3348
0.334802
0.334804
0.334805
0.334806
0.334808
0.334809
0.33481
0.334811
0.334812
0.334813
0.334814
0.334815
0.334815
0.334816
0.334817
0.334817
0.334818
0.334818
0.334818
0.334818
0.334819
0.334819
0.334819
0.334819
0.334818
0.334818
0.334818
0.334818
0.334817
0.334817
0.334816
0.334815
0.334815
0.334814
0.334813
0.334812
0.334811
0.33481
0.334809
0.334808
0.334806
0.334805
0.334804
0.334802
0.3348
0.334798
0.334795
0.334788
0.334773
0.334732
0.334616
0.33429
0.365098
0.365436
0.365558
0.365602
0.365618
0.365625
0.365628
0.36563
0.365632
0.365634
0.365635
0.365636
0.365638
0.365639
0.36564
0.365641
0.365642
0.365643
0.365644
0.365644
0.365645
0.365646
0.365646
0.365647
0.365647
0.365648
0.365648
0.365648
0.365648
0.365648
0.365648
0.365648
0.365648
0.365648
0.365648
0.365647
0.365647
0.365646
0.365646
0.365645
0.365644
0.365644
0.365643
0.365642
0.365641
0.36564
0.365639
0.365638
0.365636
0.365635
0.365634
0.365632
0.36563
0.365628
0.365625
0.365618
0.365602
0.365558
0.365436
0.365098
0.395111
0.395458
0.395587
0.395633
0.39565
0.395657
0.395661
0.395663
0.395665
0.395666
0.395667
0.395669
0.39567
0.395671
0.395672
0.395673
0.395674
0.395675
0.395676
0.395676
0.395677
0.395678
0.395678
0.395679
0.395679
0.395679
0.395679
0.39568
0.39568
0.39568
0.39568
0.39568
0.39568
0.395679
0.395679
0.395679
0.395679
0.395678
0.395678
0.395677
0.395676
0.395676
0.395675
0.395674
0.395673
0.395672
0.395671
0.39567
0.395669
0.395667
0.395666
0.395665
0.395663
0.395661
0.395657
0.39565
0.395633
0.395587
0.395458
0.395111
0.424264
0.42462
0.424754
0.424803
0.424821
0.424828
0.424832
0.424834
0.424835
0.424837
0.424838
0.424839
0.424841
0.424842
0.424843
0.424844
0.424844
0.424845
0.424846
0.424847
0.424847
0.424848
0.424848
0.424849
0.424849
0.424849
0.42485
0.42485
0.42485
0.42485
0.42485
0.42485
0.42485
0.42485
0.424849
0.424849
0.424849
0.424848
0.424848
0.424847
0.424847
0.424846
0.424845
0.424844
0.424844
0.424843
0.424842
0.424841
0.424839
0.424838
0.424837
0.424835
0.424834
0.424832
0.424828
0.424821
0.424803
0.424754
0.42462
0.424264
0.45252
0.452883
0.453023
0.453074
0.453094
0.453101
0.453105
0.453107
0.453108
0.45311
0.453111
0.453112
0.453113
0.453114
0.453115
0.453116
0.453117
0.453118
0.453118
0.453119
0.45312
0.45312
0.453121
0.453121
0.453121
0.453122
0.453122
0.453122
0.453122
0.453122
0.453122
0.453122
0.453122
0.453122
0.453122
0.453121
0.453121
0.453121
0.45312
0.45312
0.453119
0.453118
0.453118
0.453117
0.453116
0.453115
0.453114
0.453113
0.453112
0.453111
0.45311
0.453108
0.453107
0.453105
0.453101
0.453094
0.453074
0.453023
0.452883
0.45252
0.479861
0.480229
0.480373
0.480428
0.480448
0.480456
0.48046
0.480462
0.480463
0.480465
0.480466
0.480467
0.480468
0.480469
0.48047
0.480471
0.480471
0.480472
0.480473
0.480473
0.480474
0.480474
0.480475
0.480475
0.480476
0.480476
0.480476
0.480476
0.480476
0.480476
0.480476
0.480476
0.480476
0.480476
0.480476
0.480476
0.480475
0.480475
0.480474
0.480474
0.480473
0.480473
0.480472
0.480471
0.480471
0.48047
0.480469
0.480468
0.480467
0.480466
0.480465
0.480463
0.480462
0.48046
0.480456
0.480448
0.480428
0.480373
0.480229
0.479861
0.506275
0.506648
0.506797
0.506853
0.506875
0.506883
0.506887
0.506889
0.506891
0.506892
0.506893
0.506894
0.506895
0.506896
0.506897
0.506897
0.506898
0.506899
0.506899
0.5069
0.5069
0.506901
0.506901
0.506902
0.506902
0.506902
0.506902
0.506903
0.506903
0.506903
0.506903
0.506903
0.506903
0.506902
0.506902
0.506902
0.506902
0.506901
0.506901
0.5069
0.5069
0.506899
0.506899
0.506898
0.506897
0.506897
0.506896
0.506895
0.506894
0.506893
0.506892
0.506891
0.506889
0.506887
0.506883
0.506875
0.506853
0.506797
0.506648
0.506275
0.53176
0.532136
0.532289
0.532348
0.532371
0.53238
0.532384
0.532386
0.532387
0.532389
0.53239
0.532391
0.532391
0.532392
0.532393
0.532394
0.532394
0.532395
0.532396
0.532396
0.532397
0.532397
0.532398
0.532398
0.532398
0.532398
0.532399
0.532399
0.532399
0.532399
0.532399
0.532399
0.532399
0.532399
0.532398
0.532398
0.532398
0.532398
0.532397
0.532397
0.532396
0.532396
0.532395
0.532394
0.532394
0.532393
0.532392
0.532391
0.532391
0.53239
0.532389
0.532387
0.532386
0.532384
0.53238
0.532371
0.532348
0.532289
0.532136
0.53176
0.556319
0.556697
0.556854
0.556916
0.556939
0.556949
0.556953
0.556955
0.556956
0.556957
0.556958
0.556959
0.55696
0.556961
0.556962
0.556962
0.556963
0.556964
0.556964
0.556965
0.556965
0.556965
0.556966
0.556966
0.556966
0.556967
0.556967
0.556967
0.556967
0.556967
0.556967
0.556967
0.556967
0.556967
0.556967
0.556966
0.556966
0.556966
0.556965
0.556965
0.556965
0.556964
0.556964
0.556963
0.556962
0.556962
0.556961
0.55696
0.556959
0.556958
0.556957
0.556956
0.556955
0.556953
0.556949
0.556939
0.556916
0.556854
0.556697
0.556319
0.579958
0.580337
0.580497
0.580561
0.580586
0.580596
0.5806
0.580602
0.580604
0.580605
0.580606
0.580607
0.580607
0.580608
0.580609
0.580609
0.58061
0.58061
0.580611
0.580611
0.580612
0.580612
0.580613
0.580613
0.580613
0.580613
0.580614
0.580614
0.580614
0.580614
0.580614
0.580614
0.580614
0.580614
0.580613
0.580613
0.580613
0.580613
0.580612
0.580612
0.580611
0.580611
0.58061
0.58061
0.580609
0.580609
0.580608
0.580607
0.580607
0.580606
0.580605
0.580604
0.580602
0.5806
0.580596
0.580586
0.580561
0.580497
0.580337
0.579958
0.602686
0.603065
0.603228
0.603295
0.603321
0.603331
0.603335
0.603337
0.603339
0.60334
0.603341
0.603342
0.603342
0.603343
0.603344
0.603344
0.603345
0.603345
0.603346
0.603346
0.603346
0.603347
0.603347
0.603347
0.603348
0.603348
0.603348
0.603348
0.603348
0.603348
0.603348
0.603348
0.603348
0.603348
0.603348
0.603348
0.603347
0.603347
0.603347
0.603346
0.603346
0.603346
0.603345
0.603345
0.603344
0.603344
0.603343
0.603342
0.603342
0.603341
0.60334
0.603339
0.603337
0.603335
0.603331
0.603321
0.603295
0.603228
0.603065
0.602686
0.624516
0.624893
0.625059
0.625127
0.625154
0.625165
0.62517
0.625172
0.625173
0.625174
0.625175
0.625176
0.625177
0.625177
0.625178
0.625178
0.625179
0.625179
0.62518
0.62518
0.625181
0.625181
0.625181
0.625181
0.625182
0.625182
0.625182
0.625182
0.625182
0.625182
0.625182
0.625182
0.625182
0.625182
0.625182
0.625182
0.625181
0.625181
0.625181
0.625181
0.62518
0.62518
0.625179
0.625179
0.625178
0.625178
0.625177
0.625177
0.625176
0.625175
0.625174
0.625173
0.625172
0.62517
0.625165
0.625154
0.625127
0.625059
0.624893
0.624516
0.645459
0.645834
0.646003
0.646073
0.646101
0.646113
0.646118
0.64612
0.646121
0.646122
0.646123
0.646124
0.646124
0.646125
0.646125
0.646126
0.646126
0.646127
0.646127
0.646128
0.646128
0.646128
0.646128
0.646129
0.646129
0.646129
0.646129
0.646129
0.646129
0.646129
0.646129
0.646129
0.646129
0.646129
0.646129
0.646129
0.646129
0.646128
0.646128
0.646128
0.646128
0.646127
0.646127
0.646126
0.646126
0.646125
0.646125
0.646124
0.646124
0.646123
0.646122
0.646121
0.64612
0.646118
0.646113
0.646101
0.646073
0.646003
0.645834
0.645459
0.665532
0.665904
0.666075
0.666147
0.666177
0.666189
0.666194
0.666196
0.666197
0.666198
0.666199
0.6662
0.6662
0.666201
0.666201
0.666202
0.666202
0.666203
0.666203
0.666203
0.666204
0.666204
0.666204
0.666204
0.666205
0.666205
0.666205
0.666205
0.666205
0.666205
0.666205
0.666205
0.666205
0.666205
0.666205
0.666205
0.666204
0.666204
0.666204
0.666204
0.666203
0.666203
0.666203
0.666202
0.666202
0.666201
0.666201
0.6662
0.6662
0.666199
0.666198
0.666197
0.666196
0.666194
0.666189
0.666177
0.666147
0.666075
0.665904
0.665532
0.684752
0.68512
0.685292
0.685366
0.685397
0.68541
0.685415
0.685417
0.685419
0.68542
0.68542
0.685421
0.685421
0.685422
0.685422
0.685423
0.685423
0.685424
0.685424
0.685424
0.685424
0.685425
0.685425
0.685425
0.685425
0.685425
0.685426
0.685426
0.685426
0.685426
0.685426
0.685426
0.685426
0.685426
0.685425
0.685425
0.685425
0.685425
0.685425
0.685424
0.685424
0.685424
0.685424
0.685423
0.685423
0.685422
0.685422
0.685421
0.685421
0.68542
0.68542
0.685419
0.685417
0.685415
0.68541
0.685397
0.685366
0.685292
0.68512
0.684752
0.703136
0.7035
0.703673
0.703749
0.70378
0.703794
0.703799
0.703802
0.703803
0.703804
0.703804
0.703805
0.703805
0.703806
0.703806
0.703807
0.703807
0.703807
0.703808
0.703808
0.703808
0.703808
0.703809
0.703809
0.703809
0.703809
0.703809
0.703809
0.703809
0.703809
0.703809
0.703809
0.703809
0.703809
0.703809
0.703809
0.703809
0.703809
0.703808
0.703808
0.703808
0.703808
0.703807
0.703807
0.703807
0.703806
0.703806
0.703805
0.703805
0.703804
0.703804
0.703803
0.703802
0.703799
0.703794
0.70378
0.703749
0.703673
0.7035
0.703136
0.720703
0.721061
0.721235
0.721312
0.721345
0.721359
0.721365
0.721367
0.721369
0.72137
0.72137
0.721371
0.721371
0.721372
0.721372
0.721372
0.721373
0.721373
0.721373
0.721373
0.721374
0.721374
0.721374
0.721374
0.721374
0.721375
0.721375
0.721375
0.721375
0.721375
0.721375
0.721375
0.721375
0.721375
0.721375
0.721374
0.721374
0.721374
0.721374
0.721374
0.721373
0.721373
0.721373
0.721373
0.721372
0.721372
0.721372
0.721371
0.721371
0.72137
0.72137
0.721369
0.721367
0.721365
0.721359
0.721345
0.721312
0.721235
0.721061
0.720703
0.737472
0.737824
0.737998
0.738077
0.738111
0.738126
0.738132
0.738135
0.738136
0.738137
0.738137
0.738138
0.738138
0.738138
0.738139
0.738139
0.738139
0.73814
0.73814
0.73814
0.73814
0.738141
0.738141
0.738141
0.738141
0.738141
0.738141
0.738141
0.738141
0.738141
0.738141
0.738141
0.738141
0.738141
0.738141
0.738141
0.738141
0.738141
0.738141
0.73814
0.73814
0.73814
0.73814
0.738139
0.738139
0.738139
0.738138
0.738138
0.738138
0.738137
0.738137
0.738136
0.738135
0.738132
0.738126
0.738111
0.738077
0.737998
0.737824
0.737472
0.753464
0.753809
0.753983
0.754064
0.754099
0.754114
0.75412
0.754123
0.754125
0.754125
0.754126
0.754126
0.754127
0.754127
0.754127
0.754128
0.754128
0.754128
0.754128
0.754128
0.754129
0.754129
0.754129
0.754129
0.754129
0.754129
0.754129
0.75413
0.75413
0.75413
0.75413
0.75413
0.75413
0.754129
0.754129
0.754129
0.754129
0.754129
0.754129
0.754129
0.754128
0.754128
0.754128
0.754128
0.754128
0.754127
0.754127
0.754127
0.754126
0.754126
0.754125
0.754125
0.754123
0.75412
0.754114
0.754099
0.754064
0.753983
0.753809
0.753464
0.768699
0.769038
0.769211
0.769293
0.769329
0.769344
0.769351
0.769354
0.769355
0.769356
0.769357
0.769357
0.769357
0.769358
0.769358
0.769358
0.769359
0.769359
0.769359
0.769359
0.769359
0.769359
0.76936
0.76936
0.76936
0.76936
0.76936
0.76936
0.76936
0.76936
0.76936
0.76936
0.76936
0.76936
0.76936
0.76936
0.76936
0.76936
0.769359
0.769359
0.769359
0.769359
0.769359
0.769359
0.769358
0.769358
0.769358
0.769357
0.769357
0.769357
0.769356
0.769355
0.769354
0.769351
0.769344
0.769329
0.769293
0.769211
0.769038
0.768699
0.783198
0.78353
0.783703
0.783785
0.783822
0.783839
0.783846
0.783849
0.78385
0.783851
0.783851
0.783852
0.783852
0.783852
0.783852
0.783853
0.783853
0.783853
0.783853
0.783853
0.783854
0.783854
0.783854
0.783854
0.783854
0.783854
0.783854
0.783854
0.783854
0.783854
0.783854
0.783854
0.783854
0.783854
0.783854
0.783854
0.783854
0.783854
0.783854
0.783854
0.783853
0.783853
0.783853
0.783853
0.783853
0.783852
0.783852
0.783852
0.783852
0.783851
0.783851
0.78385
0.783849
0.783846
0.783839
0.783822
0.783785
0.783703
0.78353
0.783198
0.796985
0.797308
0.79748
0.797563
0.797601
0.797618
0.797625
0.797629
0.79763
0.797631
0.797631
0.797632
0.797632
0.797632
0.797632
0.797632
0.797633
0.797633
0.797633
0.797633
0.797633
0.797633
0.797633
0.797634
0.797634
0.797634
0.797634
0.797634
0.797634
0.797634
0.797634
0.797634
0.797634
0.797634
0.797634
0.797634
0.797634
0.797633
0.797633
0.797633
0.797633
0.797633
0.797633
0.797633
0.797632
0.797632
0.797632
0.797632
0.797632
0.797631
0.797631
0.79763
0.797629
0.797625
0.797618
0.797601
0.797563
0.79748
0.797308
0.796985
0.810079
0.810394
0.810564
0.810648
0.810687
0.810705
0.810712
0.810716
0.810717
0.810718
0.810718
0.810719
0.810719
0.810719
0.810719
0.81072
0.81072
0.81072
0.81072
0.81072
0.81072
0.81072
0.81072
0.81072
0.810721
0.810721
0.810721
0.810721
0.810721
0.810721
0.810721
0.810721
0.810721
0.810721
0.810721
0.810721
0.81072
0.81072
0.81072
0.81072
0.81072
0.81072
0.81072
0.81072
0.81072
0.810719
0.810719
0.810719
0.810719
0.810718
0.810718
0.810717
0.810716
0.810712
0.810705
0.810687
0.810648
0.810564
0.810394
0.810079
0.822504
0.82281
0.822978
0.823063
0.823103
0.823121
0.823129
0.823132
0.823134
0.823135
0.823135
0.823135
0.823136
0.823136
0.823136
0.823136
0.823136
0.823136
0.823136
0.823137
0.823137
0.823137
0.823137
0.823137
0.823137
0.823137
0.823137
0.823137
0.823137
0.823137
0.823137
0.823137
0.823137
0.823137
0.823137
0.823137
0.823137
0.823137
0.823137
0.823137
0.823137
0.823136
0.823136
0.823136
0.823136
0.823136
0.823136
0.823136
0.823135
0.823135
0.823135
0.823134
0.823132
0.823129
0.823121
0.823103
0.823063
0.822978
0.82281
0.822504
0.834281
0.834579
0.834745
0.834829
0.83487
0.834889
0.834897
0.834901
0.834903
0.834903
0.834904
0.834904
0.834904
0.834904
0.834904
0.834904
0.834905
0.834905
0.834905
0.834905
0.834905
0.834905
0.834905
0.834905
0.834905
0.834905
0.834905
0.834905
0.834905
0.834905
0.834905
0.834905
0.834905
0.834905
0.834905
0.834905
0.834905
0.834905
0.834905
0.834905
0.834905
0.834905
0.834905
0.834905
0.834904
0.834904
0.834904
0.834904
0.834904
0.834904
0.834903
0.834903
0.834901
0.834897
0.834889
0.83487
0.834829
0.834745
0.834579
0.834281
0.845433
0.845722
0.845885
0.84597
0.846011
0.846031
0.84604
0.846043
0.846045
0.846046
0.846046
0.846047
0.846047
0.846047
0.846047
0.846047
0.846047
0.846047
0.846047
0.846047
0.846047
0.846047
0.846048
0.846048
0.846048
0.846048
0.846048
0.846048
0.846048
0.846048
0.846048
0.846048
0.846048
0.846048
0.846048
0.846048
0.846048
0.846048
0.846047
0.846047
0.846047
0.846047
0.846047
0.846047
0.846047
0.846047
0.846047
0.846047
0.846047
0.846046
0.846046
0.846045
0.846043
0.84604
0.846031
0.846011
0.84597
0.845885
0.845722
0.845433
0.855983
0.856263
0.856423
0.856508
0.85655
0.856569
0.856579
0.856583
0.856585
0.856585
0.856586
0.856586
0.856586
0.856586
0.856586
0.856586
0.856586
0.856586
0.856586
0.856586
0.856587
0.856587
0.856587
0.856587
0.856587
0.856587
0.856587
0.856587
0.856587
0.856587
0.856587
0.856587
0.856587
0.856587
0.856587
0.856587
0.856587
0.856587
0.856587
0.856587
0.856586
0.856586
0.856586
0.856586
0.856586
0.856586
0.856586
0.856586
0.856586
0.856586
0.856585
0.856585
0.856583
0.856579
0.856569
0.85655
0.856508
0.856423
0.856263
0.855983
0.865953
0.866223
0.86638
0.866464
0.866507
0.866527
0.866537
0.866541
0.866543
0.866544
0.866544
0.866544
0.866544
0.866544
0.866544
0.866544
0.866545
0.866545
0.866545
0.866545
0.866545
0.866545
0.866545
0.866545
0.866545
0.866545
0.866545
0.866545
0.866545
0.866545
0.866545
0.866545
0.866545
0.866545
0.866545
0.866545
0.866545
0.866545
0.866545
0.866545
0.866545
0.866545
0.866545
0.866545
0.866544
0.866544
0.866544
0.866544
0.866544
0.866544
0.866544
0.866543
0.866541
0.866537
0.866527
0.866507
0.866464
0.86638
0.866223
0.865953
0.875364
0.875625
0.875779
0.875863
0.875905
0.875926
0.875936
0.875941
0.875943
0.875943
0.875944
0.875944
0.875944
0.875944
0.875944
0.875944
0.875944
0.875944
0.875944
0.875944
0.875944
0.875944
0.875944
0.875944
0.875944
0.875944
0.875944
0.875944
0.875944
0.875944
0.875944
0.875944
0.875944
0.875944
0.875944
0.875944
0.875944
0.875944
0.875944
0.875944
0.875944
0.875944
0.875944
0.875944
0.875944
0.875944
0.875944
0.875944
0.875944
0.875944
0.875943
0.875943
0.875941
0.875936
0.875926
0.875905
0.875863
0.875779
0.875625