/*--------------------------------*- C++ -*----------------------------------*\
| =========                 |                                                 |
| \\      /  F ield         | foam-extend: Open Source CFD                    |
|  \\    /   O peration     | Version:     4.0                                |
|   \\  /    A nd           | Web:         http://www.foam-extend.org         |
|    \\/     M anipulation  |                                                 |
\*---------------------------------------------------------------------------*/
FoamFile
{
    version     2.0;
    format      ascii;
    class       volScalarField;
    location    "1430";
    object      cMinus;
}
// * * * * * * * * * * * * * * * * * * * * * * * * * * * * * * * * * * * * * //

dimensions      [0 0 0 0 0 0 0];

internalField   nonuniform List<scalar> 
6960
(
2.61213e-22
2.6115e-22
2.60872e-22
2.6062e-22
2.60418e-22
2.60262e-22
2.60144e-22
2.60054e-22
2.59986e-22
2.59934e-22
2.59895e-22
2.59864e-22
2.5984e-22
2.59822e-22
2.59807e-22
2.59796e-22
2.59787e-22
2.59779e-22
2.59773e-22
2.59769e-22
2.59765e-22
2.59762e-22
2.59759e-22
2.59757e-22
2.59756e-22
2.59755e-22
2.59754e-22
2.59753e-22
2.59753e-22
2.59753e-22
2.59753e-22
2.59753e-22
2.59753e-22
2.59754e-22
2.59755e-22
2.59756e-22
2.59757e-22
2.59759e-22
2.59762e-22
2.59765e-22
2.59769e-22
2.59773e-22
2.59779e-22
2.59787e-22
2.59796e-22
2.59807e-22
2.59822e-22
2.5984e-22
2.59864e-22
2.59895e-22
2.59934e-22
2.59986e-22
2.60054e-22
2.60144e-22
2.60262e-22
2.60418e-22
2.6062e-22
2.60872e-22
2.6115e-22
2.61213e-22
1.10279e-21
1.10277e-21
1.10183e-21
1.10096e-21
1.10025e-21
1.09969e-21
1.09926e-21
1.09894e-21
1.09868e-21
1.09849e-21
1.09834e-21
1.09823e-21
1.09814e-21
1.09807e-21
1.09801e-21
1.09796e-21
1.09793e-21
1.0979e-21
1.09787e-21
1.09786e-21
1.09784e-21
1.09783e-21
1.09782e-21
1.09781e-21
1.0978e-21
1.0978e-21
1.0978e-21
1.09779e-21
1.09779e-21
1.09779e-21
1.09779e-21
1.09779e-21
1.09779e-21
1.0978e-21
1.0978e-21
1.0978e-21
1.09781e-21
1.09782e-21
1.09783e-21
1.09784e-21
1.09786e-21
1.09787e-21
1.0979e-21
1.09793e-21
1.09796e-21
1.09801e-21
1.09807e-21
1.09814e-21
1.09823e-21
1.09834e-21
1.09849e-21
1.09868e-21
1.09894e-21
1.09926e-21
1.09969e-21
1.10025e-21
1.10096e-21
1.10183e-21
1.10277e-21
1.10279e-21
4.36766e-21
4.3687e-21
4.36607e-21
4.36347e-21
4.36129e-21
4.35956e-21
4.3582e-21
4.35714e-21
4.35631e-21
4.35567e-21
4.35516e-21
4.35476e-21
4.35444e-21
4.35419e-21
4.35398e-21
4.35382e-21
4.35369e-21
4.35358e-21
4.3535e-21
4.35343e-21
4.35337e-21
4.35333e-21
4.35329e-21
4.35326e-21
4.35324e-21
4.35322e-21
4.35321e-21
4.3532e-21
4.3532e-21
4.35319e-21
4.35319e-21
4.3532e-21
4.3532e-21
4.35321e-21
4.35322e-21
4.35324e-21
4.35326e-21
4.35329e-21
4.35333e-21
4.35337e-21
4.35343e-21
4.3535e-21
4.35358e-21
4.35369e-21
4.35382e-21
4.35398e-21
4.35419e-21
4.35444e-21
4.35476e-21
4.35516e-21
4.35567e-21
4.35631e-21
4.35714e-21
4.3582e-21
4.35956e-21
4.36129e-21
4.36347e-21
4.36607e-21
4.3687e-21
4.36766e-21
1.74488e-20
1.74577e-20
1.74519e-20
1.74452e-20
1.74393e-20
1.74344e-20
1.74304e-20
1.74272e-20
1.74246e-20
1.74225e-20
1.74209e-20
1.74195e-20
1.74184e-20
1.74175e-20
1.74168e-20
1.74162e-20
1.74158e-20
1.74154e-20
1.74151e-20
1.74148e-20
1.74146e-20
1.74144e-20
1.74143e-20
1.74142e-20
1.74141e-20
1.74141e-20
1.7414e-20
1.7414e-20
1.7414e-20
1.74139e-20
1.74139e-20
1.7414e-20
1.7414e-20
1.7414e-20
1.74141e-20
1.74141e-20
1.74142e-20
1.74143e-20
1.74144e-20
1.74146e-20
1.74148e-20
1.74151e-20
1.74154e-20
1.74158e-20
1.74162e-20
1.74168e-20
1.74175e-20
1.74184e-20
1.74195e-20
1.74209e-20
1.74225e-20
1.74246e-20
1.74272e-20
1.74304e-20
1.74344e-20
1.74393e-20
1.74452e-20
1.74519e-20
1.74577e-20
1.74488e-20
7.16108e-20
7.16681e-20
7.1664e-20
7.16526e-20
7.16404e-20
7.1629e-20
7.16189e-20
7.16101e-20
7.16026e-20
7.15962e-20
7.15909e-20
7.15864e-20
7.15827e-20
7.15796e-20
7.15771e-20
7.1575e-20
7.15732e-20
7.15718e-20
7.15707e-20
7.15697e-20
7.15689e-20
7.15683e-20
7.15678e-20
7.15674e-20
7.15671e-20
7.15669e-20
7.15667e-20
7.15666e-20
7.15665e-20
7.15665e-20
7.15665e-20
7.15665e-20
7.15666e-20
7.15667e-20
7.15669e-20
7.15671e-20
7.15674e-20
7.15678e-20
7.15683e-20
7.15689e-20
7.15697e-20
7.15707e-20
7.15718e-20
7.15732e-20
7.1575e-20
7.15771e-20
7.15796e-20
7.15827e-20
7.15864e-20
7.15909e-20
7.15962e-20
7.16026e-20
7.16101e-20
7.16189e-20
7.1629e-20
7.16404e-20
7.16526e-20
7.1664e-20
7.16681e-20
7.16108e-20
3.03345e-19
3.03677e-19
3.03746e-19
3.03768e-19
3.03768e-19
3.03758e-19
3.03743e-19
3.03725e-19
3.03706e-19
3.03689e-19
3.03673e-19
3.03659e-19
3.03647e-19
3.03636e-19
3.03627e-19
3.03619e-19
3.03613e-19
3.03608e-19
3.03603e-19
3.036e-19
3.03597e-19
3.03594e-19
3.03592e-19
3.03591e-19
3.0359e-19
3.03589e-19
3.03588e-19
3.03588e-19
3.03587e-19
3.03587e-19
3.03587e-19
3.03587e-19
3.03588e-19
3.03588e-19
3.03589e-19
3.0359e-19
3.03591e-19
3.03592e-19
3.03594e-19
3.03597e-19
3.036e-19
3.03603e-19
3.03608e-19
3.03613e-19
3.03619e-19
3.03627e-19
3.03636e-19
3.03647e-19
3.03659e-19
3.03673e-19
3.03689e-19
3.03706e-19
3.03725e-19
3.03743e-19
3.03758e-19
3.03768e-19
3.03768e-19
3.03746e-19
3.03677e-19
3.03345e-19
1.32769e-18
1.32953e-18
1.33023e-18
1.33063e-18
1.33087e-18
1.331e-18
1.33105e-18
1.33106e-18
1.33104e-18
1.33101e-18
1.33097e-18
1.33093e-18
1.33089e-18
1.33085e-18
1.33082e-18
1.33079e-18
1.33077e-18
1.33075e-18
1.33073e-18
1.33072e-18
1.33071e-18
1.3307e-18
1.33069e-18
1.33069e-18
1.33068e-18
1.33068e-18
1.33068e-18
1.33067e-18
1.33067e-18
1.33067e-18
1.33067e-18
1.33067e-18
1.33067e-18
1.33068e-18
1.33068e-18
1.33068e-18
1.33069e-18
1.33069e-18
1.3307e-18
1.33071e-18
1.33072e-18
1.33073e-18
1.33075e-18
1.33077e-18
1.33079e-18
1.33082e-18
1.33085e-18
1.33089e-18
1.33093e-18
1.33097e-18
1.33101e-18
1.33104e-18
1.33106e-18
1.33105e-18
1.331e-18
1.33087e-18
1.33063e-18
1.33023e-18
1.32953e-18
1.32769e-18
6.00391e-18
6.01405e-18
6.01899e-18
6.02226e-18
6.02442e-18
6.02579e-18
6.0266e-18
6.02704e-18
6.02723e-18
6.02728e-18
6.02724e-18
6.02715e-18
6.02704e-18
6.02693e-18
6.02683e-18
6.02673e-18
6.02665e-18
6.02657e-18
6.02651e-18
6.02645e-18
6.02641e-18
6.02637e-18
6.02635e-18
6.02632e-18
6.02631e-18
6.02629e-18
6.02628e-18
6.02627e-18
6.02627e-18
6.02627e-18
6.02627e-18
6.02627e-18
6.02627e-18
6.02628e-18
6.02629e-18
6.02631e-18
6.02632e-18
6.02635e-18
6.02637e-18
6.02641e-18
6.02645e-18
6.02651e-18
6.02657e-18
6.02665e-18
6.02673e-18
6.02683e-18
6.02693e-18
6.02704e-18
6.02715e-18
6.02724e-18
6.02728e-18
6.02723e-18
6.02704e-18
6.0266e-18
6.02579e-18
6.02442e-18
6.02226e-18
6.01899e-18
6.01405e-18
6.00391e-18
2.80364e-17
2.80923e-17
2.81239e-17
2.8146e-17
2.81613e-17
2.81714e-17
2.81779e-17
2.81818e-17
2.81841e-17
2.81852e-17
2.81857e-17
2.81858e-17
2.81856e-17
2.81854e-17
2.8185e-17
2.81847e-17
2.81844e-17
2.81841e-17
2.81839e-17
2.81837e-17
2.81835e-17
2.81834e-17
2.81833e-17
2.81832e-17
2.81831e-17
2.81831e-17
2.8183e-17
2.8183e-17
2.8183e-17
2.8183e-17
2.8183e-17
2.8183e-17
2.8183e-17
2.8183e-17
2.81831e-17
2.81831e-17
2.81832e-17
2.81833e-17
2.81834e-17
2.81835e-17
2.81837e-17
2.81839e-17
2.81841e-17
2.81844e-17
2.81847e-17
2.8185e-17
2.81854e-17
2.81856e-17
2.81858e-17
2.81857e-17
2.81852e-17
2.81841e-17
2.81818e-17
2.81779e-17
2.81714e-17
2.81613e-17
2.8146e-17
2.81239e-17
2.80923e-17
2.80364e-17
1.35078e-16
1.35388e-16
1.35582e-16
1.35722e-16
1.35821e-16
1.35888e-16
1.35932e-16
1.35961e-16
1.35978e-16
1.35988e-16
1.35994e-16
1.35996e-16
1.35997e-16
1.35997e-16
1.35996e-16
1.35996e-16
1.35995e-16
1.35994e-16
1.35993e-16
1.35992e-16
1.35991e-16
1.35991e-16
1.3599e-16
1.3599e-16
1.3599e-16
1.3599e-16
1.35989e-16
1.35989e-16
1.35989e-16
1.35989e-16
1.35989e-16
1.35989e-16
1.35989e-16
1.35989e-16
1.3599e-16
1.3599e-16
1.3599e-16
1.3599e-16
1.35991e-16
1.35991e-16
1.35992e-16
1.35993e-16
1.35994e-16
1.35995e-16
1.35996e-16
1.35996e-16
1.35997e-16
1.35997e-16
1.35996e-16
1.35994e-16
1.35988e-16
1.35978e-16
1.35961e-16
1.35932e-16
1.35888e-16
1.35821e-16
1.35722e-16
1.35582e-16
1.35388e-16
1.35078e-16
6.70621e-16
6.72372e-16
6.7354e-16
6.74402e-16
6.75018e-16
6.75444e-16
6.7573e-16
6.75917e-16
6.76037e-16
6.76111e-16
6.76155e-16
6.7618e-16
6.76192e-16
6.76198e-16
6.76199e-16
6.76198e-16
6.76195e-16
6.76192e-16
6.76189e-16
6.76187e-16
6.76184e-16
6.76182e-16
6.76181e-16
6.76179e-16
6.76178e-16
6.76177e-16
6.76177e-16
6.76176e-16
6.76176e-16
6.76176e-16
6.76176e-16
6.76176e-16
6.76176e-16
6.76177e-16
6.76177e-16
6.76178e-16
6.76179e-16
6.76181e-16
6.76182e-16
6.76184e-16
6.76187e-16
6.76189e-16
6.76192e-16
6.76195e-16
6.76198e-16
6.76199e-16
6.76198e-16
6.76192e-16
6.7618e-16
6.76155e-16
6.76111e-16
6.76037e-16
6.75917e-16
6.7573e-16
6.75444e-16
6.75018e-16
6.74402e-16
6.7354e-16
6.72372e-16
6.70621e-16
3.42517e-15
3.43517e-15
3.4422e-15
3.44746e-15
3.45125e-15
3.4539e-15
3.4557e-15
3.45689e-15
3.45767e-15
3.45817e-15
3.45848e-15
3.45867e-15
3.45878e-15
3.45883e-15
3.45886e-15
3.45887e-15
3.45887e-15
3.45887e-15
3.45886e-15
3.45885e-15
3.45884e-15
3.45884e-15
3.45883e-15
3.45883e-15
3.45882e-15
3.45882e-15
3.45882e-15
3.45882e-15
3.45882e-15
3.45882e-15
3.45882e-15
3.45882e-15
3.45882e-15
3.45882e-15
3.45882e-15
3.45882e-15
3.45883e-15
3.45883e-15
3.45884e-15
3.45884e-15
3.45885e-15
3.45886e-15
3.45887e-15
3.45887e-15
3.45887e-15
3.45886e-15
3.45883e-15
3.45878e-15
3.45867e-15
3.45848e-15
3.45817e-15
3.45767e-15
3.45689e-15
3.4557e-15
3.4539e-15
3.45125e-15
3.44746e-15
3.4422e-15
3.43517e-15
3.42517e-15
1.79582e-14
1.80161e-14
1.80585e-14
1.80906e-14
1.81138e-14
1.81301e-14
1.81414e-14
1.81489e-14
1.81539e-14
1.81571e-14
1.81592e-14
1.81605e-14
1.81613e-14
1.81617e-14
1.8162e-14
1.81622e-14
1.81622e-14
1.81622e-14
1.81622e-14
1.81622e-14
1.81622e-14
1.81622e-14
1.81622e-14
1.81622e-14
1.81621e-14
1.81621e-14
1.81621e-14
1.81621e-14
1.81621e-14
1.81621e-14
1.81621e-14
1.81621e-14
1.81621e-14
1.81621e-14
1.81621e-14
1.81621e-14
1.81622e-14
1.81622e-14
1.81622e-14
1.81622e-14
1.81622e-14
1.81622e-14
1.81622e-14
1.81622e-14
1.81622e-14
1.8162e-14
1.81617e-14
1.81613e-14
1.81605e-14
1.81592e-14
1.81571e-14
1.81539e-14
1.81489e-14
1.81414e-14
1.81301e-14
1.81138e-14
1.80906e-14
1.80585e-14
1.80161e-14
1.79582e-14
9.639e-14
9.67301e-14
9.69873e-14
9.7183e-14
9.73258e-14
9.74266e-14
9.74962e-14
9.75434e-14
9.75748e-14
9.75955e-14
9.7609e-14
9.76176e-14
9.76231e-14
9.76265e-14
9.76286e-14
9.76298e-14
9.76305e-14
9.76309e-14
9.76311e-14
9.76312e-14
9.76312e-14
9.76312e-14
9.76312e-14
9.76312e-14
9.76312e-14
9.76312e-14
9.76312e-14
9.76312e-14
9.76312e-14
9.76312e-14
9.76312e-14
9.76312e-14
9.76312e-14
9.76312e-14
9.76312e-14
9.76312e-14
9.76312e-14
9.76312e-14
9.76312e-14
9.76312e-14
9.76312e-14
9.76311e-14
9.76309e-14
9.76305e-14
9.76298e-14
9.76286e-14
9.76265e-14
9.76231e-14
9.76176e-14
9.7609e-14
9.75955e-14
9.75748e-14
9.75434e-14
9.74962e-14
9.74266e-14
9.73258e-14
9.7183e-14
9.69873e-14
9.67301e-14
9.639e-14
5.27867e-13
5.29886e-13
5.31452e-13
5.32651e-13
5.33529e-13
5.34152e-13
5.34583e-13
5.34878e-13
5.35075e-13
5.35207e-13
5.35293e-13
5.35349e-13
5.35386e-13
5.35409e-13
5.35424e-13
5.35433e-13
5.35439e-13
5.35443e-13
5.35445e-13
5.35446e-13
5.35447e-13
5.35448e-13
5.35448e-13
5.35448e-13
5.35449e-13
5.35449e-13
5.35449e-13
5.35449e-13
5.35449e-13
5.35449e-13
5.35449e-13
5.35449e-13
5.35449e-13
5.35449e-13
5.35449e-13
5.35449e-13
5.35448e-13
5.35448e-13
5.35448e-13
5.35447e-13
5.35446e-13
5.35445e-13
5.35443e-13
5.35439e-13
5.35433e-13
5.35424e-13
5.35409e-13
5.35386e-13
5.35349e-13
5.35293e-13
5.35207e-13
5.35075e-13
5.34878e-13
5.34583e-13
5.34152e-13
5.33529e-13
5.32651e-13
5.31452e-13
5.29886e-13
5.27867e-13
2.9373e-12
2.94938e-12
2.95894e-12
2.9663e-12
2.9717e-12
2.97554e-12
2.97822e-12
2.98005e-12
2.98128e-12
2.98211e-12
2.98266e-12
2.98302e-12
2.98326e-12
2.98342e-12
2.98352e-12
2.98358e-12
2.98363e-12
2.98365e-12
2.98367e-12
2.98369e-12
2.98369e-12
2.9837e-12
2.9837e-12
2.98371e-12
2.98371e-12
2.98371e-12
2.98371e-12
2.98372e-12
2.98372e-12
2.98372e-12
2.98372e-12
2.98372e-12
2.98372e-12
2.98371e-12
2.98371e-12
2.98371e-12
2.98371e-12
2.9837e-12
2.9837e-12
2.98369e-12
2.98369e-12
2.98367e-12
2.98365e-12
2.98363e-12
2.98358e-12
2.98352e-12
2.98342e-12
2.98326e-12
2.98302e-12
2.98266e-12
2.98211e-12
2.98128e-12
2.98005e-12
2.97822e-12
2.97554e-12
2.9717e-12
2.9663e-12
2.95894e-12
2.94938e-12
2.9373e-12
1.65255e-11
1.65979e-11
1.66563e-11
1.67013e-11
1.67344e-11
1.67581e-11
1.67746e-11
1.67859e-11
1.67936e-11
1.67988e-11
1.68023e-11
1.68046e-11
1.68061e-11
1.68071e-11
1.68078e-11
1.68082e-11
1.68085e-11
1.68087e-11
1.68089e-11
1.6809e-11
1.6809e-11
1.68091e-11
1.68091e-11
1.68092e-11
1.68092e-11
1.68092e-11
1.68092e-11
1.68092e-11
1.68092e-11
1.68092e-11
1.68092e-11
1.68092e-11
1.68092e-11
1.68092e-11
1.68092e-11
1.68092e-11
1.68092e-11
1.68091e-11
1.68091e-11
1.6809e-11
1.6809e-11
1.68089e-11
1.68087e-11
1.68085e-11
1.68082e-11
1.68078e-11
1.68071e-11
1.68061e-11
1.68046e-11
1.68023e-11
1.67988e-11
1.67936e-11
1.67859e-11
1.67746e-11
1.67581e-11
1.67344e-11
1.67013e-11
1.66563e-11
1.65979e-11
1.65255e-11
9.34536e-11
9.3887e-11
9.42409e-11
9.45148e-11
9.47167e-11
9.48611e-11
9.49621e-11
9.50317e-11
9.50791e-11
9.51111e-11
9.51326e-11
9.51471e-11
9.51567e-11
9.51632e-11
9.51676e-11
9.51705e-11
9.51725e-11
9.51739e-11
9.51749e-11
9.51756e-11
9.51761e-11
9.51764e-11
9.51767e-11
9.51769e-11
9.51771e-11
9.51773e-11
9.51774e-11
9.51774e-11
9.51775e-11
9.51775e-11
9.51775e-11
9.51775e-11
9.51774e-11
9.51774e-11
9.51773e-11
9.51771e-11
9.51769e-11
9.51767e-11
9.51764e-11
9.51761e-11
9.51756e-11
9.51749e-11
9.51739e-11
9.51725e-11
9.51705e-11
9.51676e-11
9.51632e-11
9.51567e-11
9.51471e-11
9.51326e-11
9.51111e-11
9.50791e-11
9.50317e-11
9.49621e-11
9.48611e-11
9.47167e-11
9.45148e-11
9.42409e-11
9.3887e-11
9.34536e-11
5.27599e-10
5.30168e-10
5.32288e-10
5.33933e-10
5.35147e-10
5.36016e-10
5.36626e-10
5.37047e-10
5.37334e-10
5.37529e-10
5.37661e-10
5.3775e-10
5.3781e-10
5.3785e-10
5.37878e-10
5.37896e-10
5.37909e-10
5.37918e-10
5.37925e-10
5.3793e-10
5.37933e-10
5.37936e-10
5.37938e-10
5.37939e-10
5.3794e-10
5.37941e-10
5.37942e-10
5.37943e-10
5.37943e-10
5.37943e-10
5.37943e-10
5.37943e-10
5.37943e-10
5.37942e-10
5.37941e-10
5.3794e-10
5.37939e-10
5.37938e-10
5.37936e-10
5.37933e-10
5.3793e-10
5.37925e-10
5.37918e-10
5.37909e-10
5.37896e-10
5.37878e-10
5.3785e-10
5.3781e-10
5.3775e-10
5.37661e-10
5.37529e-10
5.37334e-10
5.37047e-10
5.36626e-10
5.36016e-10
5.35147e-10
5.33933e-10
5.32288e-10
5.30168e-10
5.27599e-10
2.95026e-09
2.96523e-09
2.97768e-09
2.98735e-09
2.9945e-09
2.99963e-09
3.00323e-09
3.00572e-09
3.00743e-09
3.00859e-09
3.00937e-09
3.0099e-09
3.01027e-09
3.01051e-09
3.01068e-09
3.0108e-09
3.01088e-09
3.01093e-09
3.01098e-09
3.01101e-09
3.01103e-09
3.01104e-09
3.01106e-09
3.01107e-09
3.01108e-09
3.01108e-09
3.01109e-09
3.01109e-09
3.01109e-09
3.01109e-09
3.01109e-09
3.01109e-09
3.01109e-09
3.01109e-09
3.01108e-09
3.01108e-09
3.01107e-09
3.01106e-09
3.01104e-09
3.01103e-09
3.01101e-09
3.01098e-09
3.01093e-09
3.01088e-09
3.0108e-09
3.01068e-09
3.01051e-09
3.01027e-09
3.0099e-09
3.00937e-09
3.00859e-09
3.00743e-09
3.00572e-09
3.00323e-09
2.99963e-09
2.9945e-09
2.98735e-09
2.97768e-09
2.96523e-09
2.95026e-09
1.61952e-08
1.62801e-08
1.63511e-08
1.64063e-08
1.64472e-08
1.64766e-08
1.64972e-08
1.65115e-08
1.65213e-08
1.6528e-08
1.65326e-08
1.65356e-08
1.65378e-08
1.65392e-08
1.65402e-08
1.65409e-08
1.65414e-08
1.65417e-08
1.6542e-08
1.65421e-08
1.65423e-08
1.65424e-08
1.65425e-08
1.65425e-08
1.65426e-08
1.65426e-08
1.65426e-08
1.65427e-08
1.65427e-08
1.65427e-08
1.65427e-08
1.65427e-08
1.65427e-08
1.65426e-08
1.65426e-08
1.65426e-08
1.65425e-08
1.65425e-08
1.65424e-08
1.65423e-08
1.65421e-08
1.6542e-08
1.65417e-08
1.65414e-08
1.65409e-08
1.65402e-08
1.65392e-08
1.65378e-08
1.65356e-08
1.65326e-08
1.6528e-08
1.65213e-08
1.65115e-08
1.64972e-08
1.64766e-08
1.64472e-08
1.64063e-08
1.63511e-08
1.62801e-08
1.61952e-08
8.64041e-08
8.68678e-08
8.72576e-08
8.75609e-08
8.77854e-08
8.79467e-08
8.80603e-08
8.81391e-08
8.81933e-08
8.82303e-08
8.82556e-08
8.82728e-08
8.82846e-08
8.82927e-08
8.82983e-08
8.83022e-08
8.83049e-08
8.83069e-08
8.83084e-08
8.83094e-08
8.83102e-08
8.83108e-08
8.83113e-08
8.83117e-08
8.8312e-08
8.83122e-08
8.83124e-08
8.83125e-08
8.83126e-08
8.83126e-08
8.83126e-08
8.83126e-08
8.83125e-08
8.83124e-08
8.83122e-08
8.8312e-08
8.83117e-08
8.83113e-08
8.83108e-08
8.83102e-08
8.83094e-08
8.83084e-08
8.83069e-08
8.83049e-08
8.83022e-08
8.82983e-08
8.82927e-08
8.82846e-08
8.82728e-08
8.82556e-08
8.82303e-08
8.81933e-08
8.81391e-08
8.80603e-08
8.79467e-08
8.77854e-08
8.75609e-08
8.72576e-08
8.68678e-08
8.64041e-08
4.43094e-07
4.45507e-07
4.47539e-07
4.49121e-07
4.50292e-07
4.51134e-07
4.51728e-07
4.5214e-07
4.52424e-07
4.52619e-07
4.52752e-07
4.52843e-07
4.52905e-07
4.52948e-07
4.52978e-07
4.52999e-07
4.53014e-07
4.53025e-07
4.53032e-07
4.53038e-07
4.53043e-07
4.53046e-07
4.53049e-07
4.53051e-07
4.53052e-07
4.53054e-07
4.53055e-07
4.53055e-07
4.53056e-07
4.53056e-07
4.53056e-07
4.53056e-07
4.53055e-07
4.53055e-07
4.53054e-07
4.53052e-07
4.53051e-07
4.53049e-07
4.53046e-07
4.53043e-07
4.53038e-07
4.53032e-07
4.53025e-07
4.53014e-07
4.52999e-07
4.52978e-07
4.52948e-07
4.52905e-07
4.52843e-07
4.52752e-07
4.52619e-07
4.52424e-07
4.5214e-07
4.51728e-07
4.51134e-07
4.50292e-07
4.49121e-07
4.47539e-07
4.45507e-07
4.43094e-07
2.15777e-06
2.16956e-06
2.1795e-06
2.18724e-06
2.19297e-06
2.19709e-06
2.2e-06
2.20202e-06
2.20342e-06
2.20437e-06
2.20503e-06
2.20548e-06
2.20578e-06
2.206e-06
2.20615e-06
2.20625e-06
2.20633e-06
2.20638e-06
2.20642e-06
2.20645e-06
2.20647e-06
2.20649e-06
2.2065e-06
2.20652e-06
2.20652e-06
2.20653e-06
2.20654e-06
2.20654e-06
2.20654e-06
2.20654e-06
2.20654e-06
2.20654e-06
2.20654e-06
2.20654e-06
2.20653e-06
2.20652e-06
2.20652e-06
2.2065e-06
2.20649e-06
2.20647e-06
2.20645e-06
2.20642e-06
2.20638e-06
2.20633e-06
2.20625e-06
2.20615e-06
2.206e-06
2.20578e-06
2.20548e-06
2.20503e-06
2.20437e-06
2.20342e-06
2.20202e-06
2.2e-06
2.19709e-06
2.19297e-06
2.18724e-06
2.1795e-06
2.16956e-06
2.15777e-06
9.84766e-06
9.90106e-06
9.94605e-06
9.98101e-06
1.00069e-05
1.00256e-05
1.00387e-05
1.00479e-05
1.00542e-05
1.00586e-05
1.00616e-05
1.00636e-05
1.0065e-05
1.0066e-05
1.00667e-05
1.00672e-05
1.00675e-05
1.00678e-05
1.0068e-05
1.00681e-05
1.00682e-05
1.00683e-05
1.00683e-05
1.00684e-05
1.00684e-05
1.00685e-05
1.00685e-05
1.00685e-05
1.00685e-05
1.00685e-05
1.00685e-05
1.00685e-05
1.00685e-05
1.00685e-05
1.00685e-05
1.00684e-05
1.00684e-05
1.00683e-05
1.00683e-05
1.00682e-05
1.00681e-05
1.0068e-05
1.00678e-05
1.00675e-05
1.00672e-05
1.00667e-05
1.0066e-05
1.0065e-05
1.00636e-05
1.00616e-05
1.00586e-05
1.00542e-05
1.00479e-05
1.00387e-05
1.00256e-05
1.00069e-05
9.98101e-06
9.94605e-06
9.90106e-06
9.84766e-06
4.15229e-05
4.17432e-05
4.19284e-05
4.20722e-05
4.21788e-05
4.22555e-05
4.23097e-05
4.23475e-05
4.23736e-05
4.23916e-05
4.24039e-05
4.24124e-05
4.24182e-05
4.24223e-05
4.24252e-05
4.24272e-05
4.24287e-05
4.24297e-05
4.24305e-05
4.24311e-05
4.24315e-05
4.24319e-05
4.24322e-05
4.24324e-05
4.24325e-05
4.24327e-05
4.24328e-05
4.24328e-05
4.24329e-05
4.24329e-05
4.24329e-05
4.24329e-05
4.24328e-05
4.24328e-05
4.24327e-05
4.24325e-05
4.24324e-05
4.24322e-05
4.24319e-05
4.24315e-05
4.24311e-05
4.24305e-05
4.24297e-05
4.24287e-05
4.24272e-05
4.24252e-05
4.24223e-05
4.24182e-05
4.24124e-05
4.24039e-05
4.23916e-05
4.23736e-05
4.23475e-05
4.23097e-05
4.22555e-05
4.21788e-05
4.20722e-05
4.19284e-05
4.17432e-05
4.15229e-05
0.000159288
0.000160101
0.000160783
0.000161312
0.000161703
0.000161985
0.000162185
0.000162324
0.00016242
0.000162486
0.000162531
0.000162563
0.000162585
0.0001626
0.00016261
0.000162618
0.000162623
0.000162627
0.00016263
0.000162633
0.000162634
0.000162636
0.000162637
0.000162637
0.000162638
0.000162638
0.000162639
0.000162639
0.000162639
0.000162639
0.000162639
0.000162639
0.000162639
0.000162639
0.000162638
0.000162638
0.000162637
0.000162637
0.000162636
0.000162634
0.000162633
0.00016263
0.000162627
0.000162623
0.000162618
0.00016261
0.0001626
0.000162585
0.000162563
0.000162531
0.000162486
0.00016242
0.000162324
0.000162185
0.000161985
0.000161703
0.000161312
0.000160783
0.000160101
0.000159288
0.00054686
0.000549496
0.000551693
0.000553395
0.000554654
0.000555562
0.000556204
0.000556652
0.000556962
0.000557175
0.000557323
0.000557424
0.000557495
0.000557544
0.000557579
0.000557604
0.000557622
0.000557635
0.000557644
0.000557652
0.000557657
0.000557661
0.000557665
0.000557667
0.00055767
0.000557671
0.000557672
0.000557673
0.000557674
0.000557674
0.000557674
0.000557674
0.000557673
0.000557672
0.000557671
0.00055767
0.000557667
0.000557665
0.000557661
0.000557657
0.000557652
0.000557644
0.000557635
0.000557622
0.000557604
0.000557579
0.000557544
0.000557495
0.000557424
0.000557323
0.000557175
0.000556962
0.000556652
0.000556204
0.000555562
0.000554654
0.000553395
0.000551693
0.000549496
0.00054686
0.00165206
0.00165939
0.00166546
0.00167015
0.00167363
0.00167613
0.0016779
0.00167914
0.00168
0.00168059
0.00168099
0.00168128
0.00168147
0.00168161
0.00168171
0.00168178
0.00168183
0.00168186
0.00168189
0.00168191
0.00168193
0.00168194
0.00168195
0.00168196
0.00168196
0.00168197
0.00168197
0.00168197
0.00168197
0.00168197
0.00168197
0.00168197
0.00168197
0.00168197
0.00168197
0.00168196
0.00168196
0.00168195
0.00168194
0.00168193
0.00168191
0.00168189
0.00168186
0.00168183
0.00168178
0.00168171
0.00168161
0.00168147
0.00168128
0.00168099
0.00168059
0.00168
0.00167914
0.0016779
0.00167613
0.00167363
0.00167015
0.00166546
0.00165939
0.00165206
0.00432397
0.00434111
0.00435521
0.00436608
0.00437413
0.00437993
0.00438403
0.0043869
0.00438889
0.00439026
0.00439121
0.00439187
0.00439233
0.00439265
0.00439288
0.00439304
0.00439316
0.00439324
0.00439331
0.00439335
0.00439339
0.00439342
0.00439344
0.00439346
0.00439347
0.00439349
0.00439349
0.0043935
0.0043935
0.0043935
0.0043935
0.0043935
0.0043935
0.00439349
0.00439349
0.00439347
0.00439346
0.00439344
0.00439342
0.00439339
0.00439335
0.00439331
0.00439324
0.00439316
0.00439304
0.00439288
0.00439265
0.00439233
0.00439187
0.00439121
0.00439026
0.00438889
0.0043869
0.00438403
0.00437993
0.00437413
0.00436608
0.00435521
0.00434111
0.00432397
0.00970299
0.00973626
0.00976341
0.00978431
0.00979976
0.0098109
0.00981878
0.0098243
0.00982813
0.00983077
0.00983261
0.00983388
0.00983476
0.00983539
0.00983583
0.00983614
0.00983637
0.00983654
0.00983667
0.00983676
0.00983684
0.00983689
0.00983694
0.00983697
0.009837
0.00983702
0.00983704
0.00983705
0.00983705
0.00983706
0.00983706
0.00983705
0.00983705
0.00983704
0.00983702
0.009837
0.00983697
0.00983694
0.00983689
0.00983684
0.00983676
0.00983667
0.00983654
0.00983637
0.00983614
0.00983583
0.00983539
0.00983476
0.00983388
0.00983261
0.00983077
0.00982813
0.0098243
0.00981878
0.0098109
0.00979976
0.00978431
0.00976341
0.00973626
0.00970299
0.0186572
0.018711
0.0187545
0.0187878
0.0188125
0.0188303
0.0188429
0.0188517
0.0188579
0.0188621
0.018865
0.0188671
0.0188685
0.0188695
0.0188702
0.0188708
0.0188711
0.0188714
0.0188716
0.0188718
0.0188719
0.018872
0.018872
0.0188721
0.0188721
0.0188722
0.0188722
0.0188722
0.0188722
0.0188722
0.0188722
0.0188722
0.0188722
0.0188722
0.0188722
0.0188721
0.0188721
0.018872
0.018872
0.0188719
0.0188718
0.0188716
0.0188714
0.0188711
0.0188708
0.0188702
0.0188695
0.0188685
0.0188671
0.018865
0.0188621
0.0188579
0.0188517
0.0188429
0.0188303
0.0188125
0.0187878
0.0187545
0.018711
0.0186572
0.031121
0.0311951
0.0312544
0.0312999
0.0313334
0.0313577
0.0313748
0.0313869
0.0313953
0.0314011
0.0314051
0.0314079
0.0314099
0.0314113
0.0314122
0.031413
0.0314135
0.0314139
0.0314141
0.0314144
0.0314145
0.0314147
0.0314148
0.0314148
0.0314149
0.0314149
0.031415
0.031415
0.031415
0.031415
0.031415
0.031415
0.031415
0.031415
0.0314149
0.0314149
0.0314148
0.0314148
0.0314147
0.0314145
0.0314144
0.0314141
0.0314139
0.0314135
0.031413
0.0314122
0.0314113
0.0314099
0.0314079
0.0314051
0.0314011
0.0313953
0.0313869
0.0313748
0.0313577
0.0313334
0.0312999
0.0312544
0.0311951
0.031121
0.0460957
0.0461865
0.0462584
0.0463134
0.046354
0.0463833
0.0464041
0.0464188
0.0464289
0.046436
0.0464409
0.0464444
0.0464468
0.0464485
0.0464497
0.0464506
0.0464512
0.0464517
0.0464521
0.0464523
0.0464525
0.0464527
0.0464528
0.0464529
0.046453
0.046453
0.0464531
0.0464531
0.0464531
0.0464531
0.0464531
0.0464531
0.0464531
0.0464531
0.046453
0.046453
0.0464529
0.0464528
0.0464527
0.0464525
0.0464523
0.0464521
0.0464517
0.0464512
0.0464506
0.0464497
0.0464485
0.0464468
0.0464444
0.0464409
0.046436
0.0464289
0.0464188
0.0464041
0.0463833
0.046354
0.0463134
0.0462584
0.0461865
0.0460957
0.0623505
0.062454
0.0625352
0.0625972
0.0626429
0.062676
0.0626995
0.0627161
0.0627276
0.0627357
0.0627413
0.0627452
0.0627479
0.0627499
0.0627513
0.0627523
0.062753
0.0627536
0.062754
0.0627543
0.0627545
0.0627547
0.0627549
0.062755
0.0627551
0.0627551
0.0627552
0.0627552
0.0627553
0.0627553
0.0627553
0.0627553
0.0627552
0.0627552
0.0627551
0.0627551
0.062755
0.0627549
0.0627547
0.0627545
0.0627543
0.062754
0.0627536
0.062753
0.0627523
0.0627513
0.0627499
0.0627479
0.0627452
0.0627413
0.0627357
0.0627276
0.0627161
0.0626995
0.062676
0.0626429
0.0625972
0.0625352
0.062454
0.0623505
0.0790396
0.0791533
0.0792419
0.0793093
0.0793592
0.0793953
0.079421
0.0794391
0.0794517
0.0794606
0.0794668
0.0794711
0.0794742
0.0794763
0.0794779
0.079479
0.0794798
0.0794804
0.0794809
0.0794812
0.0794815
0.0794817
0.0794819
0.079482
0.0794821
0.0794822
0.0794822
0.0794823
0.0794823
0.0794823
0.0794823
0.0794823
0.0794823
0.0794822
0.0794822
0.0794821
0.079482
0.0794819
0.0794817
0.0794815
0.0794812
0.0794809
0.0794804
0.0794798
0.079479
0.0794779
0.0794763
0.0794742
0.0794711
0.0794668
0.0794606
0.0794517
0.0794391
0.079421
0.0793953
0.0793592
0.0793093
0.0792419
0.0791533
0.0790396
0.0957982
0.0959212
0.0960166
0.096089
0.0961426
0.0961815
0.0962092
0.0962288
0.0962425
0.0962521
0.0962589
0.0962636
0.0962669
0.0962693
0.096271
0.0962723
0.0962732
0.0962738
0.0962743
0.0962747
0.096275
0.0962752
0.0962754
0.0962756
0.0962757
0.0962758
0.0962758
0.0962759
0.0962759
0.0962759
0.0962759
0.0962759
0.0962759
0.0962758
0.0962758
0.0962757
0.0962756
0.0962754
0.0962752
0.096275
0.0962747
0.0962743
0.0962738
0.0962732
0.0962723
0.096271
0.0962693
0.0962669
0.0962636
0.0962589
0.0962521
0.0962425
0.0962288
0.0962092
0.0961815
0.0961426
0.096089
0.0960166
0.0959212
0.0957982
0.112546
0.112678
0.11278
0.112858
0.112915
0.112957
0.112986
0.113007
0.113022
0.113033
0.11304
0.113045
0.113049
0.113051
0.113053
0.113055
0.113056
0.113056
0.113057
0.113057
0.113058
0.113058
0.113058
0.113058
0.113058
0.113058
0.113059
0.113059
0.113059
0.113059
0.113059
0.113059
0.113059
0.113059
0.113058
0.113058
0.113058
0.113058
0.113058
0.113058
0.113057
0.113057
0.113056
0.113056
0.113055
0.113053
0.113051
0.113049
0.113045
0.11304
0.113033
0.113022
0.113007
0.112986
0.112957
0.112915
0.112858
0.11278
0.112678
0.112546
0.1293
0.129441
0.12955
0.129633
0.129694
0.129738
0.12977
0.129793
0.129809
0.12982
0.129828
0.129833
0.129837
0.12984
0.129842
0.129844
0.129845
0.129846
0.129846
0.129847
0.129847
0.129847
0.129848
0.129848
0.129848
0.129848
0.129848
0.129848
0.129848
0.129848
0.129848
0.129848
0.129848
0.129848
0.129848
0.129848
0.129848
0.129848
0.129847
0.129847
0.129847
0.129846
0.129846
0.129845
0.129844
0.129842
0.12984
0.129837
0.129833
0.129828
0.12982
0.129809
0.129793
0.12977
0.129738
0.129694
0.129633
0.12955
0.129441
0.1293
0.146087
0.146237
0.146352
0.14644
0.146505
0.146553
0.146587
0.146611
0.146628
0.14664
0.146649
0.146655
0.146659
0.146662
0.146665
0.146666
0.146667
0.146668
0.146669
0.146669
0.14667
0.14667
0.14667
0.146671
0.146671
0.146671
0.146671
0.146671
0.146671
0.146671
0.146671
0.146671
0.146671
0.146671
0.146671
0.146671
0.146671
0.14667
0.14667
0.14667
0.146669
0.146669
0.146668
0.146667
0.146666
0.146665
0.146662
0.146659
0.146655
0.146649
0.14664
0.146628
0.146611
0.146587
0.146553
0.146505
0.14644
0.146352
0.146237
0.146087
0.16292
0.163078
0.1632
0.163293
0.163362
0.163413
0.163449
0.163475
0.163493
0.163507
0.163516
0.163522
0.163527
0.16353
0.163533
0.163534
0.163536
0.163537
0.163537
0.163538
0.163538
0.163539
0.163539
0.163539
0.163539
0.163539
0.16354
0.16354
0.16354
0.16354
0.16354
0.16354
0.16354
0.16354
0.163539
0.163539
0.163539
0.163539
0.163539
0.163538
0.163538
0.163537
0.163537
0.163536
0.163534
0.163533
0.16353
0.163527
0.163522
0.163516
0.163507
0.163493
0.163475
0.163449
0.163413
0.163362
0.163293
0.1632
0.163078
0.16292
0.179799
0.179966
0.180094
0.180192
0.180265
0.180319
0.180358
0.180385
0.180405
0.180419
0.180429
0.180436
0.180441
0.180445
0.180447
0.180449
0.180451
0.180452
0.180452
0.180453
0.180454
0.180454
0.180454
0.180454
0.180455
0.180455
0.180455
0.180455
0.180455
0.180455
0.180455
0.180455
0.180455
0.180455
0.180455
0.180455
0.180454
0.180454
0.180454
0.180454
0.180453
0.180452
0.180452
0.180451
0.180449
0.180447
0.180445
0.180441
0.180436
0.180429
0.180419
0.180405
0.180385
0.180358
0.180319
0.180265
0.180192
0.180094
0.179966
0.179799
0.196718
0.196893
0.197028
0.197131
0.197208
0.197265
0.197306
0.197335
0.197356
0.197371
0.197382
0.197389
0.197395
0.197399
0.197402
0.197404
0.197405
0.197406
0.197407
0.197408
0.197408
0.197409
0.197409
0.197409
0.197409
0.19741
0.19741
0.19741
0.19741
0.19741
0.19741
0.19741
0.19741
0.19741
0.19741
0.197409
0.197409
0.197409
0.197409
0.197408
0.197408
0.197407
0.197406
0.197405
0.197404
0.197402
0.197399
0.197395
0.197389
0.197382
0.197371
0.197356
0.197335
0.197306
0.197265
0.197208
0.197131
0.197028
0.196893
0.196718
0.213666
0.213849
0.21399
0.214099
0.21418
0.214239
0.214283
0.214314
0.214336
0.214352
0.214364
0.214372
0.214378
0.214382
0.214385
0.214387
0.214389
0.21439
0.214391
0.214392
0.214392
0.214393
0.214393
0.214393
0.214394
0.214394
0.214394
0.214394
0.214394
0.214394
0.214394
0.214394
0.214394
0.214394
0.214394
0.214394
0.214393
0.214393
0.214393
0.214392
0.214392
0.214391
0.21439
0.214389
0.214387
0.214385
0.214382
0.214378
0.214372
0.214364