/*--------------------------------*- C++ -*----------------------------------*\
| =========                 |                                                 |
| \\      /  F ield         | foam-extend: Open Source CFD                    |
|  \\    /   O peration     | Version:     4.0                                |
|   \\  /    A nd           | Web:         http://www.foam-extend.org         |
|    \\/     M anipulation  |                                                 |
\*---------------------------------------------------------------------------*/
FoamFile
{
    version     2.0;
    format      ascii;
    class       volScalarField;
    location    "1740";
    object      psiE;
}
// * * * * * * * * * * * * * * * * * * * * * * * * * * * * * * * * * * * * * //

dimensions      [0 0 0 0 0 0 0];

internalField   nonuniform List<scalar> 
6960
(
0.336304
0.336309
0.336316
0.336323
0.336329
0.336335
0.336341
0.336346
0.33635
0.336354
0.336358
0.336361
0.336364
0.336367
0.336369
0.336371
0.336373
0.336374
0.336376
0.336377
0.336378
0.336378
0.336379
0.33638
0.33638
0.336381
0.336381
0.336381
0.336381
0.336381
0.336381
0.336381
0.336381
0.336381
0.336381
0.33638
0.33638
0.336379
0.336378
0.336378
0.336377
0.336376
0.336374
0.336373
0.336371
0.336369
0.336367
0.336364
0.336361
0.336358
0.336354
0.33635
0.336346
0.336341
0.336335
0.336329
0.336323
0.336316
0.336309
0.336304
0.84148
0.841503
0.84153
0.841558
0.841584
0.841609
0.841631
0.841652
0.84167
0.841687
0.841702
0.841715
0.841726
0.841737
0.841746
0.841754
0.841761
0.841767
0.841772
0.841777
0.841781
0.841784
0.841787
0.841789
0.841791
0.841793
0.841794
0.841795
0.841796
0.841796
0.841796
0.841796
0.841795
0.841794
0.841793
0.841791
0.841789
0.841787
0.841784
0.841781
0.841777
0.841772
0.841767
0.841761
0.841754
0.841746
0.841737
0.841726
0.841715
0.841702
0.841687
0.84167
0.841652
0.841631
0.841609
0.841584
0.841558
0.84153
0.841503
0.84148
1.29896
1.299
1.29906
1.29911
1.29916
1.29921
1.29926
1.2993
1.29933
1.29937
1.2994
1.29942
1.29944
1.29947
1.29948
1.2995
1.29951
1.29952
1.29954
1.29954
1.29955
1.29956
1.29956
1.29957
1.29957
1.29958
1.29958
1.29958
1.29958
1.29958
1.29958
1.29958
1.29958
1.29958
1.29958
1.29957
1.29957
1.29956
1.29956
1.29955
1.29954
1.29954
1.29952
1.29951
1.2995
1.29948
1.29947
1.29944
1.29942
1.2994
1.29937
1.29933
1.2993
1.29926
1.29921
1.29916
1.29911
1.29906
1.299
1.29896
1.74375
1.74382
1.7439
1.74399
1.74407
1.74415
1.74422
1.74428
1.74434
1.74439
1.74443
1.74448
1.74451
1.74454
1.74457
1.7446
1.74462
1.74464
1.74465
1.74467
1.74468
1.74469
1.7447
1.74471
1.74471
1.74472
1.74472
1.74472
1.74473
1.74473
1.74473
1.74473
1.74472
1.74472
1.74472
1.74471
1.74471
1.7447
1.74469
1.74468
1.74467
1.74465
1.74464
1.74462
1.7446
1.74457
1.74454
1.74451
1.74448
1.74443
1.74439
1.74434
1.74428
1.74422
1.74415
1.74407
1.74399
1.7439
1.74382
1.74375
2.18921
2.18931
2.18943
2.18955
2.18966
2.18977
2.18987
2.18996
2.19004
2.19011
2.19017
2.19023
2.19028
2.19032
2.19036
2.1904
2.19043
2.19045
2.19048
2.1905
2.19051
2.19053
2.19054
2.19055
2.19056
2.19057
2.19057
2.19057
2.19058
2.19058
2.19058
2.19058
2.19057
2.19057
2.19057
2.19056
2.19055
2.19054
2.19053
2.19051
2.1905
2.19048
2.19045
2.19043
2.1904
2.19036
2.19032
2.19028
2.19023
2.19017
2.19011
2.19004
2.18996
2.18987
2.18977
2.18966
2.18955
2.18943
2.18931
2.18921
2.64076
2.64089
2.64104
2.6412
2.64134
2.64148
2.64161
2.64172
2.64183
2.64192
2.642
2.64208
2.64214
2.6422
2.64225
2.6423
2.64234
2.64237
2.6424
2.64243
2.64245
2.64247
2.64248
2.6425
2.64251
2.64252
2.64252
2.64253
2.64253
2.64253
2.64253
2.64253
2.64253
2.64252
2.64252
2.64251
2.6425
2.64248
2.64247
2.64245
2.64243
2.6424
2.64237
2.64234
2.6423
2.64225
2.6422
2.64214
2.64208
2.642
2.64192
2.64183
2.64172
2.64161
2.64148
2.64134
2.6412
2.64104
2.64089
2.64076
3.10061
3.10076
3.10095
3.10114
3.10133
3.1015
3.10165
3.10179
3.10192
3.10204
3.10214
3.10223
3.10231
3.10238
3.10245
3.1025
3.10255
3.10259
3.10263
3.10266
3.10269
3.10271
3.10273
3.10275
3.10276
3.10277
3.10278
3.10279
3.10279
3.10279
3.10279
3.10279
3.10279
3.10278
3.10277
3.10276
3.10275
3.10273
3.10271
3.10269
3.10266
3.10263
3.10259
3.10255
3.1025
3.10245
3.10238
3.10231
3.10223
3.10214
3.10204
3.10192
3.10179
3.10165
3.1015
3.10133
3.10114
3.10095
3.10076
3.10061
3.56964
3.56982
3.57005
3.57028
3.5705
3.5707
3.57089
3.57106
3.57121
3.57135
3.57147
3.57158
3.57168
3.57176
3.57184
3.57191
3.57196
3.57201
3.57206
3.5721
3.57213
3.57216
3.57218
3.5722
3.57222
3.57223
3.57224
3.57225
3.57225
3.57225
3.57225
3.57225
3.57225
3.57224
3.57223
3.57222
3.5722
3.57218
3.57216
3.57213
3.5721
3.57206
3.57201
3.57196
3.57191
3.57184
3.57176
3.57168
3.57158
3.57147
3.57135
3.57121
3.57106
3.57089
3.5707
3.5705
3.57028
3.57005
3.56982
3.56964
4.04822
4.04843
4.0487
4.04897
4.04922
4.04946
4.04968
4.04987
4.05005
4.05021
4.05035
4.05048
4.05059
4.05069
4.05078
4.05086
4.05092
4.05098
4.05103
4.05108
4.05112
4.05115
4.05118
4.0512
4.05122
4.05123
4.05124
4.05125
4.05126
4.05126
4.05126
4.05126
4.05125
4.05124
4.05123
4.05122
4.0512
4.05118
4.05115
4.05112
4.05108
4.05103
4.05098
4.05092
4.05086
4.05078
4.05069
4.05059
4.05048
4.05035
4.05021
4.05005
4.04987
4.04968
4.04946
4.04922
4.04897
4.0487
4.04843
4.04822
4.53647
4.53671
4.53701
4.53731
4.53761
4.53788
4.53813
4.53835
4.53855
4.53874
4.5389
4.53905
4.53917
4.53929
4.53939
4.53948
4.53955
4.53962
4.53968
4.53973
4.53977
4.53981
4.53984
4.53987
4.53989
4.5399
4.53992
4.53993
4.53993
4.53994
4.53994
4.53993
4.53993
4.53992
4.5399
4.53989
4.53987
4.53984
4.53981
4.53977
4.53973
4.53968
4.53962
4.53955
4.53948
4.53939
4.53929
4.53917
4.53905
4.5389
4.53874
4.53855
4.53835
4.53813
4.53788
4.53761
4.53731
4.53701
4.53671
4.53647
5.03439
5.03466
5.035
5.03534
5.03567
5.03598
5.03626
5.03651
5.03674
5.03694
5.03713
5.03729
5.03744
5.03756
5.03768
5.03778
5.03786
5.03794
5.038
5.03806
5.03811
5.03815
5.03818
5.03821
5.03824
5.03826
5.03827
5.03828
5.03829
5.0383
5.0383
5.03829
5.03828
5.03827
5.03826
5.03824
5.03821
5.03818
5.03815
5.03811
5.03806
5.038
5.03794
5.03786
5.03778
5.03768
5.03756
5.03744
5.03729
5.03713
5.03694
5.03674
5.03651
5.03626
5.03598
5.03567
5.03534
5.035
5.03466
5.03439
5.54195
5.54225
5.54262
5.54301
5.54337
5.54371
5.54402
5.54431
5.54456
5.54479
5.54499
5.54517
5.54534
5.54548
5.5456
5.54571
5.54581
5.54589
5.54597
5.54603
5.54608
5.54613
5.54617
5.5462
5.54623
5.54625
5.54627
5.54628
5.54629
5.54629
5.54629
5.54629
5.54628
5.54627
5.54625
5.54623
5.5462
5.54617
5.54613
5.54608
5.54603
5.54597
5.54589
5.54581
5.54571
5.5456
5.54548
5.54534
5.54517
5.54499
5.54479
5.54456
5.54431
5.54402
5.54371
5.54337
5.54301
5.54262
5.54225
5.54195
6.05906
6.05939
6.0598
6.06023
6.06063
6.061
6.06135
6.06166
6.06194
6.06219
6.06241
6.06261
6.06279
6.06295
6.06309
6.06321
6.06331
6.06341
6.06349
6.06356
6.06362
6.06367
6.06371
6.06375
6.06378
6.0638
6.06382
6.06383
6.06384
6.06385
6.06385
6.06384
6.06383
6.06382
6.0638
6.06378
6.06375
6.06371
6.06367
6.06362
6.06356
6.06349
6.06341
6.06331
6.06321
6.06309
6.06295
6.06279
6.06261
6.06241
6.06219
6.06194
6.06166
6.06135
6.061
6.06063
6.06023
6.0598
6.05939
6.05906
6.58561
6.58597
6.58642
6.58688
6.58732
6.58773
6.5881
6.58844
6.58875
6.58902
6.58927
6.58949
6.58968
6.58985
6.59
6.59014
6.59025
6.59035
6.59044
6.59052
6.59058
6.59064
6.59069
6.59072
6.59076
6.59078
6.5908
6.59082
6.59083
6.59083
6.59083
6.59083
6.59082
6.5908
6.59078
6.59076
6.59072
6.59069
6.59064
6.59058
6.59052
6.59044
6.59035
6.59025
6.59014
6.59
6.58985
6.58968
6.58949
6.58927
6.58902
6.58875
6.58844
6.5881
6.58773
6.58732
6.58688
6.58642
6.58597
6.58561
7.12143
7.12182
7.12231
7.12281
7.12329
7.12373
7.12414
7.12451
7.12484
7.12514
7.1254
7.12564
7.12585
7.12604
7.1262
7.12634
7.12647
7.12658
7.12667
7.12675
7.12683
7.12689
7.12694
7.12698
7.12701
7.12704
7.12707
7.12708
7.12709
7.1271
7.1271
7.12709
7.12708
7.12707
7.12704
7.12701
7.12698
7.12694
7.12689
7.12683
7.12675
7.12667
7.12658
7.12647
7.12634
7.1262
7.12604
7.12585
7.12564
7.1254
7.12514
7.12484
7.12451
7.12414
7.12373
7.12329
7.12281
7.12231
7.12182
7.12143
7.66634
7.66675
7.66728
7.66782
7.66833
7.66881
7.66925
7.66964
7.67
7.67032
7.67061
7.67087
7.67109
7.67129
7.67147
7.67162
7.67176
7.67188
7.67198
7.67207
7.67214
7.67221
7.67226
7.67231
7.67235
7.67238
7.6724
7.67242
7.67243
7.67244
7.67244
7.67243
7.67242
7.6724
7.67238
7.67235
7.67231
7.67226
7.67221
7.67214
7.67207
7.67198
7.67188
7.67176
7.67162
7.67147
7.67129
7.67109
7.67087
7.67061
7.67032
7.67
7.66964
7.66925
7.66881
7.66833
7.66782
7.66728
7.66675
7.66634
8.22007
8.22052
8.22108
8.22166
8.22221
8.22272
8.22319
8.22361
8.224
8.22434
8.22465
8.22492
8.22516
8.22538
8.22557
8.22573
8.22588
8.22601
8.22612
8.22621
8.22629
8.22636
8.22642
8.22647
8.22651
8.22654
8.22657
8.22659
8.2266
8.22661
8.22661
8.2266
8.22659
8.22657
8.22654
8.22651
8.22647
8.22642
8.22636
8.22629
8.22621
8.22612
8.22601
8.22588
8.22573
8.22557
8.22538
8.22516
8.22492
8.22465
8.22434
8.224
8.22361
8.22319
8.22272
8.22221
8.22166
8.22108
8.22052
8.22007
8.78234
8.78281
8.78341
8.78403
8.78462
8.78516
8.78566
8.78611
8.78652
8.78689
8.78722
8.78751
8.78777
8.788
8.7882
8.78837
8.78853
8.78866
8.78878
8.78888
8.78897
8.78904
8.78911
8.78916
8.7892
8.78924
8.78926
8.78928
8.7893
8.7893
8.7893
8.7893
8.78928
8.78926
8.78924
8.7892
8.78916
8.78911
8.78904
8.78897
8.78888
8.78878
8.78866
8.78853
8.78837
8.7882
8.788
8.78777
8.78751
8.78722
8.78689
8.78652
8.78611
8.78566
8.78516
8.78462
8.78403
8.78341
8.78281
8.78234
9.35279
9.35329
9.35393
9.35458
9.3552
9.35578
9.35631
9.35679
9.35722
9.35761
9.35796
9.35827
9.35855
9.35879
9.359
9.35919
9.35935
9.3595
9.35962
9.35973
9.35982
9.3599
9.35997
9.36002
9.36007
9.3601
9.36013
9.36015
9.36017
9.36018
9.36018
9.36017
9.36015
9.36013
9.3601
9.36007
9.36002
9.35997
9.3599
9.35982
9.35973
9.35962
9.3595
9.35935
9.35919
9.359
9.35879
9.35855
9.35827
9.35796
9.35761
9.35722
9.35679
9.35631
9.35578
9.3552
9.35458
9.35393
9.35329
9.35279
9.93099
9.93152
9.9322
9.93289
9.93355
9.93416
9.93472
9.93522
9.93568
9.93609
9.93646
9.93679
9.93708
9.93733
9.93756
9.93776
9.93793
9.93808
9.93821
9.93833
9.93842
9.93851
9.93858
9.93864
9.93869
9.93872
9.93875
9.93878
9.93879
9.9388
9.9388
9.93879
9.93878
9.93875
9.93872
9.93869
9.93864
9.93858
9.93851
9.93842
9.93833
9.93821
9.93808
9.93793
9.93776
9.93756
9.93733
9.93708
9.93679
9.93646
9.93609
9.93568
9.93522
9.93472
9.93416
9.93355
9.93289
9.9322
9.93152
9.93099
10.5165
10.517
10.5177
10.5185
10.5192
10.5198
10.5204
10.5209
10.5214
10.5218
10.5222
10.5226
10.5229
10.5231
10.5234
10.5236
10.5238
10.5239
10.5241
10.5242
10.5243
10.5244
10.5244
10.5245
10.5246
10.5246
10.5246
10.5247
10.5247
10.5247
10.5247
10.5247
10.5247
10.5246
10.5246
10.5246
10.5245
10.5244
10.5244
10.5243
10.5242
10.5241
10.5239
10.5238
10.5236
10.5234
10.5231
10.5229
10.5226
10.5222
10.5218
10.5214
10.5209
10.5204
10.5198
10.5192
10.5185
10.5177
10.517
10.5165
11.1086
11.1092
11.11
11.1107
11.1114
11.1121
11.1127
11.1133
11.1138
11.1143
11.1147
11.115
11.1153
11.1156
11.1159
11.1161
11.1163
11.1165
11.1166
11.1167
11.1168
11.1169
11.117
11.1171
11.1171
11.1172
11.1172
11.1172
11.1172
11.1172
11.1172
11.1172
11.1172
11.1172
11.1172
11.1171
11.1171
11.117
11.1169
11.1168
11.1167
11.1166
11.1165
11.1163
11.1161
11.1159
11.1156
11.1153
11.115
11.1147
11.1143
11.1138
11.1133
11.1127
11.1121
11.1114
11.1107
11.11
11.1092
11.1086
11.7068
11.7074
11.7082
11.709
11.7098
11.7105
11.7111
11.7117
11.7122
11.7127
11.7131
11.7135
11.7138
11.7141
11.7144
11.7146
11.7148
11.715
11.7151
11.7153
11.7154
11.7155
11.7156
11.7156
11.7157
11.7157
11.7158
11.7158
11.7158
11.7158
11.7158
11.7158
11.7158
11.7158
11.7157
11.7157
11.7156
11.7156
11.7155
11.7154
11.7153
11.7151
11.715
11.7148
11.7146
11.7144
11.7141
11.7138
11.7135
11.7131
11.7127
11.7122
11.7117
11.7111
11.7105
11.7098
11.709
11.7082
11.7074
11.7068
12.3103
12.3109
12.3117
12.3126
12.3133
12.3141
12.3147
12.3154
12.3159
12.3164
12.3168
12.3172
12.3176
12.3179
12.3181
12.3184
12.3186
12.3188
12.3189
12.3191
12.3192
12.3193
12.3194
12.3194
12.3195
12.3195
12.3196
12.3196
12.3196
12.3196
12.3196
12.3196
12.3196
12.3196
12.3195
12.3195
12.3194
12.3194
12.3193
12.3192
12.3191
12.3189
12.3188
12.3186
12.3184
12.3181
12.3179
12.3176
12.3172
12.3168
12.3164
12.3159
12.3154
12.3147
12.3141
12.3133
12.3126
12.3117
12.3109
12.3103
12.9181
12.9188
12.9196
12.9205
12.9213
12.922
12.9227
12.9234
12.9239
12.9244
12.9249
12.9253
12.9257
12.926
12.9263
12.9265
12.9267
12.9269
12.9271
12.9272
12.9273
12.9274
12.9275
12.9276
12.9277
12.9277
12.9277
12.9278
12.9278
12.9278
12.9278
12.9278
12.9278
12.9277
12.9277
12.9277
12.9276
12.9275
12.9274
12.9273
12.9272
12.9271
12.9269
12.9267
12.9265
12.9263
12.926
12.9257
12.9253
12.9249
12.9244
12.9239
12.9234
12.9227
12.922
12.9213
12.9205
12.9196
12.9188
12.9181
13.5293
13.5299
13.5308
13.5317
13.5325
13.5333
13.534
13.5347
13.5353
13.5358
13.5363
13.5367
13.5371
13.5374
13.5377
13.5379
13.5382
13.5384
13.5385
13.5387
13.5388
13.5389
13.539
13.5391
13.5391
13.5392
13.5392
13.5392
13.5393
13.5393
13.5393
13.5393
13.5392
13.5392
13.5392
13.5391
13.5391
13.539
13.5389
13.5388
13.5387
13.5385
13.5384
13.5382
13.5379
13.5377
13.5374
13.5371
13.5367
13.5363
13.5358
13.5353
13.5347
13.534
13.5333
13.5325
13.5317
13.5308
13.5299
13.5293
14.1426
14.1433
14.1442
14.1451
14.146
14.1468
14.1475
14.1482
14.1488
14.1493
14.1498
14.1502
14.1506
14.151
14.1512
14.1515
14.1517
14.1519
14.1521
14.1523
14.1524
14.1525
14.1526
14.1527
14.1527
14.1528
14.1528
14.1529
14.1529
14.1529
14.1529
14.1529
14.1529
14.1528
14.1528
14.1527
14.1527
14.1526
14.1525
14.1524
14.1523
14.1521
14.1519
14.1517
14.1515
14.1512
14.151
14.1506
14.1502
14.1498
14.1493
14.1488
14.1482
14.1475
14.1468
14.146
14.1451
14.1442
14.1433
14.1426
14.7567
14.7574
14.7583
14.7593
14.7602
14.761
14.7618
14.7624
14.7631
14.7636
14.7641
14.7646
14.7649
14.7653
14.7656
14.7659
14.7661
14.7663
14.7665
14.7666
14.7668
14.7669
14.767
14.7671
14.7671
14.7672
14.7672
14.7672
14.7673
14.7673
14.7673
14.7673
14.7672
14.7672
14.7672
14.7671
14.7671
14.767
14.7669
14.7668
14.7666
14.7665
14.7663
14.7661
14.7659
14.7656
14.7653
14.7649
14.7646
14.7641
14.7636
14.7631
14.7624
14.7618
14.761
14.7602
14.7593
14.7583
14.7574
14.7567
15.3701
15.3708
15.3718
15.3727
15.3736
15.3745
15.3752
15.3759
15.3766
15.3771
15.3776
15.3781
15.3785
15.3788
15.3791
15.3794
15.3797
15.3799
15.3801
15.3802
15.3803
15.3805
15.3806
15.3806
15.3807
15.3808
15.3808
15.3808
15.3808
15.3809
15.3809
15.3808
15.3808
15.3808
15.3808
15.3807
15.3806
15.3806
15.3805
15.3803
15.3802
15.3801
15.3799
15.3797
15.3794
15.3791
15.3788
15.3785
15.3781
15.3776
15.3771
15.3766
15.3759
15.3752
15.3745
15.3736
15.3727
15.3718
15.3708
15.3701
15.9809
15.9817
15.9826
15.9836
15.9845
15.9853
15.9861
15.9868
15.9875
15.9881
15.9886
15.989
15.9894
15.9898
15.9901
15.9904
15.9906
15.9908
15.991
15.9912
15.9913
15.9914
15.9915
15.9916
15.9917
15.9917
15.9918
15.9918
15.9918
15.9918
15.9918
15.9918
15.9918
15.9918
15.9917
15.9917
15.9916
15.9915
15.9914
15.9913
15.9912
15.991
15.9908
15.9906
15.9904
15.9901
15.9898
15.9894
15.989
15.9886
15.9881
15.9875
15.9868
15.9861
15.9853
15.9845
15.9836
15.9826
15.9817
15.9809
16.5871
16.5878
16.5888
16.5898
16.5907
16.5916
16.5924
16.5931
16.5937
16.5943
16.5948
16.5953
16.5957
16.5961
16.5964
16.5967
16.5969
16.5971
16.5973
16.5975
16.5976
16.5977
16.5978
16.5979
16.598
16.598
16.5981
16.5981
16.5981
16.5981
16.5981
16.5981
16.5981
16.5981
16.598
16.598
16.5979
16.5978
16.5977
16.5976
16.5975
16.5973
16.5971
16.5969
16.5967
16.5964
16.5961
16.5957
16.5953
16.5948
16.5943
16.5937
16.5931
16.5924
16.5916
16.5907
16.5898
16.5888
16.5878
16.5871
17.1862
17.1869
17.1879
17.1889
17.1898
17.1907
17.1915
17.1922
17.1929
17.1934
17.194
17.1944
17.1948
17.1952
17.1955
17.1958
17.196
17.1963
17.1964
17.1966
17.1967
17.1969
17.197
17.197
17.1971
17.1972
17.1972
17.1972
17.1973
17.1973
17.1973
17.1973
17.1972
17.1972
17.1972
17.1971
17.197
17.197
17.1969
17.1967
17.1966
17.1964
17.1963
17.196
17.1958
17.1955
17.1952
17.1948
17.1944
17.194
17.1934
17.1929
17.1922
17.1915
17.1907
17.1898
17.1889
17.1879
17.1869
17.1862
17.7754
17.7762
17.7771
17.7781
17.779
17.7799
17.7807
17.7814
17.7821
17.7826
17.7832
17.7836
17.784
17.7844
17.7847
17.785
17.7852
17.7854
17.7856
17.7858
17.7859
17.786
17.7861
17.7862
17.7863
17.7864
17.7864
17.7864
17.7864
17.7865
17.7865
17.7864
17.7864
17.7864
17.7864
17.7863
17.7862
17.7861
17.786
17.7859
17.7858
17.7856
17.7854
17.7852
17.785
17.7847
17.7844
17.784
17.7836
17.7832
17.7826
17.7821
17.7814
17.7807
17.7799
17.779
17.7781
17.7771
17.7762
17.7754
18.3514
18.3522
18.3531
18.3541
18.355
18.3559
18.3567
18.3574
18.358
18.3586
18.3591
18.3595
18.3599
18.3603
18.3606
18.3609
18.3611
18.3614
18.3615
18.3617
18.3618
18.3619
18.362
18.3621
18.3622
18.3622
18.3623
18.3623
18.3623
18.3624
18.3624
18.3623
18.3623
18.3623
18.3622
18.3622
18.3621
18.362
18.3619
18.3618
18.3617
18.3615
18.3614
18.3611
18.3609
18.3606
18.3603
18.3599
18.3595
18.3591
18.3586
18.358
18.3574
18.3567
18.3559
18.355
18.3541
18.3531
18.3522
18.3514
18.9103
18.9111
18.912
18.913
18.9139
18.9147
18.9155
18.9161
18.9168
18.9173
18.9178
18.9183
18.9187
18.919
18.9193
18.9196
18.9198
18.92
18.9202
18.9204
18.9205
18.9206
18.9207
18.9208
18.9209
18.9209
18.921
18.921
18.921
18.921
18.921
18.921
18.921
18.921
18.9209
18.9209
18.9208
18.9207
18.9206
18.9205
18.9204
18.9202
18.92
18.9198
18.9196
18.9193
18.919
18.9187
18.9183
18.9178
18.9173
18.9168
18.9161
18.9155
18.9147
18.9139
18.913
18.912
18.9111
18.9103
19.4475
19.4482
19.4491
19.45
19.4509
19.4517
19.4524
19.4531
19.4537
19.4543
19.4547
19.4552
19.4556
19.4559
19.4562
19.4565
19.4567
19.4569
19.4571
19.4572
19.4573
19.4574
19.4575
19.4576
19.4577
19.4577
19.4578
19.4578
19.4578
19.4578
19.4578
19.4578
19.4578
19.4578
19.4577
19.4577
19.4576
19.4575
19.4574
19.4573
19.4572
19.4571
19.4569
19.4567
19.4565
19.4562
19.4559
19.4556
19.4552
19.4547
19.4543
19.4537
19.4531
19.4524
19.4517
19.4509
19.45
19.4491
19.4482
19.4475
19.9574
19.9581
19.9589
19.9598
19.9606
19.9614
19.9621
19.9627
19.9633
19.9638
19.9643
19.9647
19.9651
19.9654
19.9657
19.9659
19.9661
19.9663
19.9665
19.9666
19.9667
19.9668
19.9669
19.967
19.9671
19.9671
19.9672
19.9672
19.9672
19.9672
19.9672
19.9672
19.9672
19.9672
19.9671
19.9671
19.967
19.9669
19.9668
19.9667
19.9666
19.9665
19.9663
19.9661
19.9659
19.9657
19.9654
19.9651
19.9647
19.9643
19.9638
19.9633
19.9627
19.9621
19.9614
19.9606
19.9598
19.9589
19.9581
19.9574
20.4336
20.4343
20.4351
20.4359
20.4366
20.4373
20.438
20.4386
20.4391
20.4396
20.44
20.4404
20.4407
20.441
20.4413
20.4415
20.4417
20.4419
20.442
20.4422
20.4423
20.4424
20.4425
20.4425
20.4426
20.4426
20.4427
20.4427
20.4427
20.4427
20.4427
20.4427
20.4427
20.4427
20.4426
20.4426
20.4425
20.4425
20.4424
20.4423
20.4422
20.442
20.4419
20.4417
20.4415
20.4413
20.441
20.4407
20.4404
20.44
20.4396
20.4391
20.4386
20.438
20.4373
20.4366
20.4359
20.4351
20.4343
20.4336
20.869
20.8696
20.8703
20.871
20.8717
20.8724
20.8729
20.8735
20.8739
20.8744
20.8748
20.8751
20.8754
20.8757
20.8759
20.8761
20.8763
20.8764
20.8766
20.8767
20.8768
20.8769
20.877
20.877
20.8771
20.8771
20.8772
20.8772
20.8772
20.8772
20.8772
20.8772
20.8772
20.8772
20.8771
20.8771
20.877
20.877
20.8769
20.8768
20.8767
20.8766
20.8764
20.8763
20.8761
20.8759
20.8757
20.8754
20.8751
20.8748
20.8744
20.8739
20.8735
20.8729
20.8724
20.8717
20.871
20.8703
20.8696
20.869
21.2564
21.2569
21.2575
21.2581
21.2587
21.2593
21.2598
21.2603
21.2607
21.261
21.2614
21.2617
21.2619
21.2622
21.2624
21.2625
21.2627
21.2628
21.263
21.2631
21.2631
21.2632
21.2633
21.2633
21.2634
21.2634
21.2634
21.2635
21.2635
21.2635
21.2635
21.2635
21.2635
21.2634
21.2634
21.2634
21.2633
21.2633
21.2632
21.2631
21.2631
21.263
21.2628
21.2627
21.2625
21.2624
21.2622
21.2619
21.2617
21.2614
21.261
21.2607
21.2603
21.2598
21.2593
21.2587
21.2581
21.2575
21.2569
21.2564
21.5901
21.5906
21.5911
21.5916
21.5921
21.5926
21.593
21.5934
21.5937
21.594
21.5943
21.5945
21.5947
21.5949
21.5951
21.5952
21.5954
21.5955
21.5956
21.5957
21.5957
21.5958
21.5959
21.5959
21.5959
21.596
21.596
21.596
21.596
21.596
21.596
21.596
21.596
21.596
21.596
21.5959
21.5959
21.5959
21.5958
21.5957
21.5957
21.5956
21.5955
21.5954
21.5952
21.5951
21.5949
21.5947
21.5945
21.5943
21.594
21.5937
21.5934
21.593
21.5926
21.5921
21.5916
21.5911
21.5906
21.5901
21.8682
21.8685
21.8689
21.8693
21.8697
21.8701
21.8704
21.8707
21.871
21.8712
21.8715
21.8716
21.8718
21.872
21.8721
21.8722
21.8723
21.8724
21.8725
21.8725
21.8726
21.8727
21.8727
21.8727
21.8728
21.8728
21.8728
21.8728
21.8728
21.8728
21.8728
21.8728
21.8728
21.8728
21.8728
21.8728
21.8727
21.8727
21.8727
21.8726
21.8725
21.8725
21.8724
21.8723
21.8722
21.8721
21.872
21.8718
21.8716
21.8715
21.8712
21.871
21.8707
21.8704
21.8701
21.8697
21.8693
21.8689
21.8685
21.8682
22.0933
22.0936
22.0939
22.0942
22.0945
22.0947
22.095
22.0952
22.0954
22.0956
22.0957
22.0959
22.096
22.0961
22.0962
22.0963
22.0964
22.0965
22.0965
22.0966
22.0966
22.0966
22.0967
22.0967
22.0967
22.0967
22.0967
22.0968
22.0968
22.0968
22.0968
22.0968
22.0968
22.0967
22.0967
22.0967
22.0967
22.0967
22.0966
22.0966
22.0966
22.0965
22.0965
22.0964
22.0963
22.0962
22.0961
22.096
22.0959
22.0957
22.0956
22.0954
22.0952
22.095
22.0947
22.0945
22.0942
22.0939
22.0936
22.0933
22.2727
22.2729
22.2731
22.2733
22.2735
22.2737
22.2739
22.274
22.2742
22.2743
22.2744
22.2745
22.2746
22.2747
22.2748
22.2748
22.2749
22.2749
22.275
22.275
22.2751
22.2751
22.2751
22.2751
22.2751
22.2752
22.2752
22.2752
22.2752
22.2752
22.2752
22.2752
22.2752
22.2752
22.2752
22.2751
22.2751
22.2751
22.2751
22.2751
22.275
22.275
22.2749
22.2749
22.2748
22.2748
22.2747
22.2746
22.2745
22.2744
22.2743
22.2742
22.274
22.2739
22.2737
22.2735
22.2733
22.2731
22.2729
22.2727
22.4159
22.416
22.4162
22.4163
22.4165
22.4166
22.4167
22.4168
22.4169
22.417
22.4171
22.4172
22.4173
22.4173
22.4174
22.4174
22.4174
22.4175
22.4175
22.4175
22.4176
22.4176
22.4176
22.4176
22.4176
22.4176
22.4176
22.4176
22.4176
22.4176
22.4176
22.4176
22.4176
22.4176
22.4176
22.4176
22.4176
22.4176
22.4176
22.4176
22.4175
22.4175
22.4175
22.4174
22.4174
22.4174
22.4173
22.4173
22.4172
22.4171
22.417
22.4169
22.4168
22.4167
22.4166
22.4165
22.4163
22.4162
22.416
22.4159
22.5323
22.5324
22.5325
22.5326
22.5327
22.5328
22.5329
22.533
22.533
22.5331
22.5332
22.5332
22.5333
22.5333
22.5333
22.5334
22.5334
22.5334
22.5334
22.5335
22.5335
22.5335
22.5335
22.5335
22.5335
22.5335
22.5335
22.5335
22.5335
22.5335
22.5335
22.5335
22.5335
22.5335
22.5335
22.5335
22.5335
22.5335
22.5335
22.5335
22.5335
22.5334
22.5334
22.5334
22.5334
22.5333
22.5333
22.5333
22.5332
22.5332
22.5331
22.533
22.533
22.5329
22.5328
22.5327
22.5326
22.5325
22.5324
22.5323
22.6297
22.6297
22.6298
22.6298
22.6299
22.63
22.63
22.6301
22.6301
22.6302
22.6302
22.6303
22.6303
22.6303
22.6303
22.6304
22.6304
22.6304
22.6304
22.6304
22.6304
22.6304
22.6304
22.6305
22.6305
22.6305
22.6305
22.6305
22.6305
22.6305
22.6305
22.6305
22.6305
22.6305
22.6305
22.6305
22.6305
22.6304
22.6304
22.6304
22.6304
22.6304
22.6304
22.6304
22.6304
22.6303
22.6303
22.6303
22.6303
22.6302
22.6302
22.6301
22.6301
22.63
22.63
22.6299
22.6298
22.6298
22.6297
22.6297
22.7134
22.7134
22.7135
22.7135
22.7136
22.7136
22.7137
22.7137
22.7137
22.7138
22.7138
22.7138
22.7138
22.7138
22.7139
22.7139
22.7139
22.7139
22.7139
22.7139
22.7139
22.7139
22.7139
22.7139
22.7139
22.714
22.714
22.714
22.714
22.714
22.714
22.714
22.714
22.714
22.714
22.7139
22.7139
22.7139
22.7139
22.7139
22.7139
22.7139
22.7139
22.7139
22.7139
22.7139
22.7138
22.7138
22.7138
22.7138
22.7138
22.7137
22.7137
22.7137
22.7136
22.7136
22.7135
22.7135
22.7134
22.7134
22.7873
22.7873
22.7873
22.7874
22.7874
22.7874
22.7875
22.7875
22.7875
22.7875
22.7876
22.7876
22.7876
22.7876
22.7876
22.7876
22.7876
22.7876
22.7876
22.7876
22.7877
22.7877
22.7877
22.7877
22.7877
22.7877
22.7877
22.7877
22.7877
22.7877
22.7877
22.7877
22.7877
22.7877
22.7877
22.7877
22.7877
22.7877
22.7877
22.7877
22.7876
22.7876
22.7876
22.7876
22.7876
22.7876
22.7876
22.7876
22.7876
22.7876
22.7875
22.7875
22.7875
22.7875
22.7874
22.7874
22.7874
22.7873
22.7873
22.7873
22.8538
22.8538
22.8538
22.8539
22.8539
22.8539
22.8539
22.8539
22.854
22.854
22.854
22.854
22.854
22.854
22.854
22.854
22.854
22.854
22.854
22.854
22.854
22.854
22.854
22.854
22.854
22.854
22.854
22.854
22.854
22.854
22.854
22.854
22.854
22.854
22.854
22.854
22.854
22.854
22.854
22.854
22.854
22.854
22.854
22.854
22.854
22.854
22.854
22.854
22.854
22.854
22.854
22.854
22.8539
22.8539
22.8539
22.8539
22.8539
22.8538
22.8538
22.8538
22.9146
22.9146
22.9146
22.9146
22.9146
22.9146
22.9147
22.9147
22.9147
22.9147
22.9147
22.9147
22.9147
22.9147
22.9147
22.9147
22.9147
22.9147
22.9147
22.9147
22.9147
22.9147
22.9147
22.9147
22.9147
22.9147
22.9147
22.9147
22.9147
22.9147
22.9147
22.9147
22.9147
22.9147
22.9147
22.9147
22.9147
22.9147
22.9147
22.9147
22.9147
22.9147
22.9147
22.9147
22.9147
22.9147
22.9147
22.9147
22.9147
22.9147
22.9147
22.9147
22.9147
22.9147
22.9146
22.9146
22.9146
22.9146
22.9146
22.9146
22.9708
22.9708
22.9708
22.9708
22.9708
22.9708
22.9708
22.9708
22.9708
22.9708
22.9708
22.9708
22.9708
22.9708
22.9708
22.9708
22.9708
22.9708
22.9708
22.9708
22.9708
22.9708
22.9708
22.9708
22.9708
22.9708
22.9708
22.9708
22.9708
22.9708
22.9708
22.9708
22.9708
22.9708
22.9708
22.9708
22.9708
22.9708
22.9708
22.9708
22.9708
22.9708
22.9708
22.9708
22.9708
22.9708
22.9708
22.9708
22.9708
22.9708
22.9708
22.9708
22.9708
22.9708
22.9708
22.9708
22.9708
22.9708
22.9708
22.9708
23.0232
23.0232
23.0232
23.0232
23.0232
23.0232
23.0232
23.0232
23.0232
23.0232
23.0232
23.0232
23.0232
23.0232
23.0232
23.0232
23.0232
23.0232
23.0232
23.0232
23.0232
23.0232
23.0232
23.0232
23.0232
23.0232
23.0232
23.0232
23.0232
23.0232
23.0232
23.0232
23.0232
23.0232
23.0232
23.0232
23.0232
23.0232
23.0232
23.0232
23.0232
23.0232
23.0232
23.0232
23.0232
23.0232
23.0232
23.0232
23.0232
23.0232
23.0232
23.0232
23.0232
23.0232
23.0232
23.0232
23.0232
23.0232
23.0232
23.0232
23.0725
23.0725
23.0725
23.0725
23.0725
23.0725
23.0725
23.0725
23.0725
23.0725
23.0725
23.0725
23.0725
23.0725
23.0724
23.0724
23.0724
23.0724
23.0724
23.0724
23.0724
23.0724
23.0724
23.0724
23.0724
23.0724
23.0724
23.0724
23.0724
23.0724
23.0724
23.0724
23.0724
23.0724
23.0724
23.0724
23.0724
23.0724
23.0724
23.0724
23.0724
23.0724
23.0724
23.0724
23.0724
23.0724
23.0725
23.0725
23.0725
23.0725
23.0725
23.0725
23.0725
23.0725
23.0725
23.0725
23.0725
23.0725
23.0725
23.0725
23.1192
23.1192
23.1191
23.1191
23.1191
23.1191
23.1191
23.1191
23.1191
23.1191
23.1191
23.1191
23.1191
23.1191
23.119
23.119
23.119
23.119
23.119
23.119
23.119
23.119
23.119
23.119
23.119
23.119
23.119
23.119
23.119
23.119
23.119
23.119
23.119
23.119
23.119
23.119
23.119
23.119
23.119
23.119
23.119
23.119
23.119
23.119
23.119
23.119
23.1191
23.1191
23.1191
23.1191
23.1191
23.1191
23.1191
23.1191
23.1191
23.1191
23.1191
23.1191
23.1192
23.1192
23.1635
23.1635
23.1635
23.1635
23.1635
23.1635
23.1635
23.1634
23.1634
23.1634
23.1634
23.1634
23.1634
23.1634
23.1634
23.1634
23.1634
23.1634
23.1634
23.1634
23.1634
23.1634
23.1634
23.1634
23.1634
23.1634
23.1634
23.1634
23.1634
23.1634
23.1634
23.1634
23.1634
23.1634
23.1634
23.1634
23.1634
23.1634
23.1634
23.1634
23.1634
23.1634
23.1634
23.1634
23.1634
23.1634
23.1634
23.1634
23.1634
23.1634
23.1634
23.1634
23.1634
23.1635
23.1635
23.1635
23.1635
23.1635
23.1635
23.1635
23.2059
23.2059
23.2059
23.2059
23.2059
23.2059
23.2058
23.2058
23.2058
23.2058
23.2058
23.2058
23.2058
23.2058
23.2058
23.2058
23.2058
23.2057
23.2057
23.2057
23.2057
23.2057
23.2057
23.2057
23.2057
23.2057
23.2057
23.2057
23.2057
23.2057
23.2057
23.2057
23.2057
23.2057
23.2057
23.2057
23.2057
23.2057
23.2057
23.2057
23.2057
23.2057
23.2057
23.2058
23.2058
23.2058
23.2058
23.2058
23.2058
23.2058
23.2058
23.2058
23.2058
23.2058
23.2059
23.2059
23.2059
23.2059
23.2059
23.2059
23.2466
23.2466
23.2466
23.2466
23.2466
23.2465
23.2465
23.2465
23.2465
23.2465
23.2465
23.2465
23.2465
23.2464
23.2464
23.2464
23.2464
23.2464
23.2464
23.2464
23.2464
23.2464
23.2464
23.2464
23.2464
23.2464
23.2464
23.2464
23.2464
23.2464
23.2464
23.2464
23.2464
23.2464
23.2464
23.2464
23.2464
23.2464
23.2464
23.2464
23.2464
23.2464
23.2464
23.2464
23.2464
23.2464
23.2464
23.2465
23.2465
23.2465
23.2465
23.2465
23.2465
23.2465
23.2465
23.2466
23.2466
23.2466
23.2466
23.2466
23.2858
23.2858
23.2858
23.2858
23.2858
23.2857
23.2857
23.2857
23.2857
23.2857
23.2857
23.2856
23.2856
23.2856
23.2856
23.2856
23.2856
23.2856
23.2856
23.2856
23.2856
23.2856
23.2856
23.2856
23.2856
23.2856
23.2856
23.2856
23.2856
23.2856
23.2856
23.2856
23.2856
23.2856
23.2856
23.2856
23.2856
23.2856
23.2856
23.2856
23.2856
23.2856
23.2856
23.2856
23.2856
23.2856
23.2856
23.2856
23.2856
23.2857
23.2857
23.2857
23.2857
23.2857
23.2857
23.2858
23.2858
23.2858
23.2858
23.2858
23.3237
23.3237
23.3237
23.3236
23.3236
23.3236
23.3236
23.3236
23.3235
23.3235
23.3235
23.3235
23.3235
23.3235
23.3235
23.3235
23.3235
23.3235
23.3235
23.3234
23.3234
23.3234
23.3234
23.3234
23.3234
23.3234
23.3234
23.3234
23.3234
23.3234
23.3234
23.3234
23.3234
23.3234
23.3234
23.3234
23.3234
23.3234
23.3234
23.3234
23.3234
23.3235
23.3235
23.3235
23.3235
23.3235
23.3235
23.3235
23.3235
23.3235
23.3235
23.3235
23.3236
23.3236
23.3236
23.3236
23.3236
23.3237
23.3237
23.3237
23.3604
23.3604
23.3604
23.3603
23.3603
23.3603
23.3603
23.3603
23.3602
23.3602
23.3602
23.3602
23.3602
23.3602
23.3602
23.3602
23.3602
23.3602
23.3601
23.3601
23.3601
23.3601
23.3601
23.3601
23.3601
23.3601
23.3601
23.3601
23.3601
23.3601
23.3601
23.3601
23.3601
23.3601
23.3601
23.3601
23.3601
23.3601
23.3601
23.3601
23.3601
23.3601
23.3602
23.3602
23.3602
23.3602
23.3602
23.3602
23.3602
23.3602
23.3602
23.3602
23.3603
23.3603
23.3603
23.3603
23.3603
23.3604
23.3604
23.3604
23.3961
23.396
23.396
23.396
23.396
23.396
23.3959
23.3959
23.3959
23.3959
23.3959
23.3959
23.3958
23.3958
23.3958
23.3958