/*--------------------------------*- C++ -*----------------------------------*\
| =========                 |                                                 |
| \\      /  F ield         | foam-extend: Open Source CFD                    |
|  \\    /   O peration     | Version:     4.0                                |
|   \\  /    A nd           | Web:         http://www.foam-extend.org         |
|    \\/     M anipulation  |                                                 |
\*---------------------------------------------------------------------------*/
FoamFile
{
    version     2.0;
    format      ascii;
    class       volScalarField;
    location    "440";
    object      cPlus;
}
// * * * * * * * * * * * * * * * * * * * * * * * * * * * * * * * * * * * * * //

dimensions      [0 0 0 0 0 0 0];

internalField   nonuniform List<scalar> 
6960
(
0.186832
0.186747
0.186713
0.186701
0.186696
0.186695
0.186694
0.186694
0.186694
0.186695
0.186695
0.186695
0.186695
0.186696
0.186696
0.186696
0.186696
0.186697
0.186697
0.186697
0.186697
0.186697
0.186697
0.186697
0.186698
0.186698
0.186698
0.186698
0.186698
0.186698
0.186698
0.186698
0.186698
0.186698
0.186698
0.186698
0.186697
0.186697
0.186697
0.186697
0.186697
0.186697
0.186697
0.186696
0.186696
0.186696
0.186696
0.186695
0.186695
0.186695
0.186695
0.186694
0.186694
0.186694
0.186695
0.186696
0.186701
0.186713
0.186747
0.186832
0.054114
0.0541044
0.0540996
0.0540978
0.0540973
0.0540972
0.0540972
0.0540974
0.0540975
0.0540977
0.0540978
0.054098
0.0540981
0.0540983
0.0540984
0.0540986
0.0540987
0.0540988
0.0540989
0.054099
0.0540991
0.0540992
0.0540993
0.0540993
0.0540994
0.0540994
0.0540995
0.0540995
0.0540995
0.0540995
0.0540995
0.0540995
0.0540995
0.0540995
0.0540994
0.0540994
0.0540993
0.0540993
0.0540992
0.0540991
0.054099
0.0540989
0.0540988
0.0540987
0.0540986
0.0540984
0.0540983
0.0540981
0.054098
0.0540978
0.0540977
0.0540975
0.0540974
0.0540972
0.0540972
0.0540973
0.0540978
0.0540996
0.0541044
0.054114
0.0370638
0.0370777
0.0370821
0.0370838
0.0370845
0.0370848
0.0370851
0.0370852
0.0370854
0.0370855
0.0370857
0.0370858
0.0370859
0.037086
0.0370861
0.0370862
0.0370863
0.0370864
0.0370865
0.0370866
0.0370867
0.0370867
0.0370868
0.0370868
0.0370869
0.0370869
0.0370869
0.0370869
0.037087
0.037087
0.037087
0.037087
0.0370869
0.0370869
0.0370869
0.0370869
0.0370868
0.0370868
0.0370867
0.0370867
0.0370866
0.0370865
0.0370864
0.0370863
0.0370862
0.0370861
0.037086
0.0370859
0.0370858
0.0370857
0.0370855
0.0370854
0.0370852
0.0370851
0.0370848
0.0370845
0.0370838
0.0370821
0.0370777
0.0370638
0.0354428
0.0354627
0.0354695
0.035472
0.035473
0.0354735
0.0354738
0.035474
0.0354741
0.0354743
0.0354744
0.0354745
0.0354746
0.0354748
0.0354749
0.0354749
0.035475
0.0354751
0.0354752
0.0354753
0.0354753
0.0354754
0.0354755
0.0354755
0.0354755
0.0354756
0.0354756
0.0354756
0.0354756
0.0354756
0.0354756
0.0354756
0.0354756
0.0354756
0.0354756
0.0354755
0.0354755
0.0354755
0.0354754
0.0354753
0.0354753
0.0354752
0.0354751
0.035475
0.0354749
0.0354749
0.0354748
0.0354746
0.0354745
0.0354744
0.0354743
0.0354741
0.035474
0.0354738
0.0354735
0.035473
0.035472
0.0354695
0.0354627
0.0354428
0.0360678
0.0360897
0.0360972
0.0361
0.0361011
0.0361016
0.0361019
0.0361021
0.0361023
0.0361024
0.0361026
0.0361027
0.0361028
0.0361029
0.036103
0.0361031
0.0361032
0.0361033
0.0361034
0.0361035
0.0361035
0.0361036
0.0361036
0.0361037
0.0361037
0.0361038
0.0361038
0.0361038
0.0361038
0.0361038
0.0361038
0.0361038
0.0361038
0.0361038
0.0361038
0.0361037
0.0361037
0.0361036
0.0361036
0.0361035
0.0361035
0.0361034
0.0361033
0.0361032
0.0361031
0.036103
0.0361029
0.0361028
0.0361027
0.0361026
0.0361024
0.0361023
0.0361021
0.0361019
0.0361016
0.0361011
0.0361
0.0360972
0.0360897
0.0360678
0.0371143
0.0371375
0.0371455
0.0371485
0.0371497
0.0371502
0.0371505
0.0371507
0.0371509
0.0371511
0.0371512
0.0371514
0.0371515
0.0371516
0.0371517
0.0371518
0.0371519
0.037152
0.0371521
0.0371522
0.0371523
0.0371523
0.0371524
0.0371524
0.0371525
0.0371525
0.0371526
0.0371526
0.0371526
0.0371526
0.0371526
0.0371526
0.0371526
0.0371526
0.0371525
0.0371525
0.0371524
0.0371524
0.0371523
0.0371523
0.0371522
0.0371521
0.037152
0.0371519
0.0371518
0.0371517
0.0371516
0.0371515
0.0371514
0.0371512
0.0371511
0.0371509
0.0371507
0.0371505
0.0371502
0.0371497
0.0371485
0.0371455
0.0371375
0.0371143
0.0383502
0.0383748
0.0383833
0.0383865
0.0383877
0.0383883
0.0383886
0.0383889
0.0383891
0.0383892
0.0383894
0.0383895
0.0383897
0.0383898
0.0383899
0.03839
0.0383902
0.0383903
0.0383903
0.0383904
0.0383905
0.0383906
0.0383906
0.0383907
0.0383907
0.0383908
0.0383908
0.0383908
0.0383909
0.0383909
0.0383909
0.0383909
0.0383908
0.0383908
0.0383908
0.0383907
0.0383907
0.0383906
0.0383906
0.0383905
0.0383904
0.0383903
0.0383903
0.0383902
0.03839
0.0383899
0.0383898
0.0383897
0.0383895
0.0383894
0.0383892
0.0383891
0.0383889
0.0383886
0.0383883
0.0383877
0.0383865
0.0383833
0.0383748
0.0383502
0.0397722
0.0397985
0.0398075
0.0398109
0.0398123
0.0398129
0.0398132
0.0398135
0.0398137
0.0398139
0.0398141
0.0398142
0.0398144
0.0398145
0.0398146
0.0398148
0.0398149
0.039815
0.0398151
0.0398152
0.0398153
0.0398153
0.0398154
0.0398155
0.0398155
0.0398156
0.0398156
0.0398156
0.0398156
0.0398157
0.0398157
0.0398156
0.0398156
0.0398156
0.0398156
0.0398155
0.0398155
0.0398154
0.0398153
0.0398153
0.0398152
0.0398151
0.039815
0.0398149
0.0398148
0.0398146
0.0398145
0.0398144
0.0398142
0.0398141
0.0398139
0.0398137
0.0398135
0.0398132
0.0398129
0.0398123
0.0398109
0.0398075
0.0397985
0.0397722
0.0414184
0.0414466
0.0414563
0.04146
0.0414614
0.0414621
0.0414625
0.0414628
0.041463
0.0414632
0.0414634
0.0414636
0.0414637
0.0414639
0.041464
0.0414642
0.0414643
0.0414644
0.0414645
0.0414646
0.0414647
0.0414648
0.0414649
0.0414649
0.041465
0.041465
0.0414651
0.0414651
0.0414651
0.0414651
0.0414651
0.0414651
0.0414651
0.0414651
0.041465
0.041465
0.0414649
0.0414649
0.0414648
0.0414647
0.0414646
0.0414645
0.0414644
0.0414643
0.0414642
0.041464
0.0414639
0.0414637
0.0414636
0.0414634
0.0414632
0.041463
0.0414628
0.0414625
0.0414621
0.0414614
0.04146
0.0414563
0.0414466
0.0414184
0.0433463
0.043377
0.0433875
0.0433914
0.0433931
0.0433938
0.0433942
0.0433945
0.0433948
0.043395
0.0433952
0.0433954
0.0433956
0.0433958
0.0433959
0.0433961
0.0433962
0.0433963
0.0433965
0.0433966
0.0433967
0.0433968
0.0433969
0.0433969
0.043397
0.043397
0.0433971
0.0433971
0.0433971
0.0433972
0.0433972
0.0433971
0.0433971
0.0433971
0.043397
0.043397
0.0433969
0.0433969
0.0433968
0.0433967
0.0433966
0.0433965
0.0433963
0.0433962
0.0433961
0.0433959
0.0433958
0.0433956
0.0433954
0.0433952
0.043395
0.0433948
0.0433945
0.0433942
0.0433938
0.0433931
0.0433914
0.0433875
0.043377
0.0433463
0.0456372
0.0456708
0.0456824
0.0456868
0.0456886
0.0456894
0.0456899
0.0456902
0.0456905
0.0456907
0.045691
0.0456912
0.0456914
0.0456916
0.0456918
0.0456919
0.0456921
0.0456923
0.0456924
0.0456925
0.0456926
0.0456927
0.0456928
0.0456929
0.045693
0.045693
0.0456931
0.0456931
0.0456931
0.0456932
0.0456932
0.0456931
0.0456931
0.0456931
0.045693
0.045693
0.0456929
0.0456928
0.0456927
0.0456926
0.0456925
0.0456924
0.0456923
0.0456921
0.0456919
0.0456918
0.0456916
0.0456914
0.0456912
0.045691
0.0456907
0.0456905
0.0456902
0.0456899
0.0456894
0.0456886
0.0456868
0.0456824
0.0456708
0.0456372
0.0484075
0.0484451
0.048458
0.0484629
0.0484649
0.0484659
0.0484664
0.0484668
0.0484671
0.0484674
0.0484677
0.0484679
0.0484681
0.0484684
0.0484686
0.0484688
0.048469
0.0484691
0.0484693
0.0484694
0.0484696
0.0484697
0.0484698
0.0484699
0.04847
0.04847
0.0484701
0.0484701
0.0484702
0.0484702
0.0484702
0.0484702
0.0484701
0.0484701
0.04847
0.04847
0.0484699
0.0484698
0.0484697
0.0484696
0.0484694
0.0484693
0.0484691
0.048469
0.0484688
0.0484686
0.0484684
0.0484681
0.0484679
0.0484677
0.0484674
0.0484671
0.0484668
0.0484664
0.0484659
0.0484649
0.0484629
0.048458
0.0484451
0.0484075
0.0518297
0.0518724
0.0518872
0.0518928
0.051895
0.0518961
0.0518968
0.0518972
0.0518976
0.0518979
0.0518982
0.0518985
0.0518988
0.0518991
0.0518993
0.0518995
0.0518997
0.0518999
0.0519001
0.0519003
0.0519005
0.0519006
0.0519007
0.0519008
0.0519009
0.051901
0.0519011
0.0519011
0.0519012
0.0519012
0.0519012
0.0519012
0.0519011
0.0519011
0.051901
0.0519009
0.0519008
0.0519007
0.0519006
0.0519005
0.0519003
0.0519001
0.0518999
0.0518997
0.0518995
0.0518993
0.0518991
0.0518988
0.0518985
0.0518982
0.0518979
0.0518976
0.0518972
0.0518968
0.0518961
0.051895
0.0518928
0.0518872
0.0518724
0.0518297
0.0561642
0.0562141
0.0562313
0.0562379
0.0562406
0.0562418
0.0562426
0.0562431
0.0562436
0.056244
0.0562443
0.0562447
0.056245
0.0562453
0.0562456
0.0562459
0.0562462
0.0562464
0.0562466
0.0562469
0.056247
0.0562472
0.0562474
0.0562475
0.0562476
0.0562477
0.0562478
0.0562478
0.0562479
0.0562479
0.0562479
0.0562479
0.0562478
0.0562478
0.0562477
0.0562476
0.0562475
0.0562474
0.0562472
0.056247
0.0562469
0.0562466
0.0562464
0.0562462
0.0562459
0.0562456
0.0562453
0.056245
0.0562447
0.0562443
0.056244
0.0562436
0.0562431
0.0562426
0.0562418
0.0562406
0.0562379
0.0562313
0.0562141
0.0561642
0.0618063
0.0618661
0.0618869
0.0618948
0.0618981
0.0618996
0.0619005
0.0619012
0.0619017
0.0619022
0.0619027
0.0619031
0.0619035
0.0619039
0.0619043
0.0619047
0.061905
0.0619053
0.0619056
0.0619058
0.0619061
0.0619063
0.0619065
0.0619066
0.0619068
0.0619069
0.061907
0.0619071
0.0619071
0.0619071
0.0619071
0.0619071
0.0619071
0.061907
0.0619069
0.0619068
0.0619066
0.0619065
0.0619063
0.0619061
0.0619058
0.0619056
0.0619053
0.061905
0.0619047
0.0619043
0.0619039
0.0619035
0.0619031
0.0619027
0.0619022
0.0619017
0.0619012
0.0619005
0.0618996
0.0618981
0.0618948
0.0618869
0.0618661
0.0618063
0.0693323
0.0694063
0.0694322
0.069442
0.0694461
0.069448
0.0694492
0.06945
0.0694507
0.0694514
0.069452
0.0694525
0.069453
0.0694535
0.069454
0.0694544
0.0694549
0.0694552
0.0694556
0.0694559
0.0694562
0.0694565
0.0694567
0.069457
0.0694571
0.0694573
0.0694574
0.0694575
0.0694576
0.0694576
0.0694576
0.0694576
0.0694575
0.0694574
0.0694573
0.0694571
0.069457
0.0694567
0.0694565
0.0694562
0.0694559
0.0694556
0.0694552
0.0694549
0.0694544
0.069454
0.0694535
0.069453
0.0694525
0.069452
0.0694514
0.0694507
0.06945
0.0694492
0.069448
0.0694461
0.069442
0.0694322
0.0694063
0.0693323
0.0795038
0.0795976
0.0796305
0.0796431
0.0796483
0.0796508
0.0796522
0.0796533
0.0796542
0.079655
0.0796558
0.0796565
0.0796572
0.0796578
0.0796584
0.079659
0.0796596
0.07966
0.0796605
0.0796609
0.0796613
0.0796617
0.079662
0.0796623
0.0796625
0.0796627
0.0796628
0.079663
0.079663
0.0796631
0.0796631
0.079663
0.079663
0.0796628
0.0796627
0.0796625
0.0796623
0.079662
0.0796617
0.0796613
0.0796609
0.0796605
0.07966
0.0796596
0.079659
0.0796584
0.0796578
0.0796572
0.0796565
0.0796558
0.079655
0.0796542
0.0796533
0.0796522
0.0796508
0.0796483
0.0796431
0.0796305
0.0795976
0.0795038
0.0931536
0.0932733
0.0933156
0.0933317
0.0933384
0.0933416
0.0933435
0.0933449
0.0933461
0.0933471
0.0933481
0.093349
0.0933499
0.0933507
0.0933515
0.0933522
0.0933529
0.0933535
0.0933541
0.0933547
0.0933552
0.0933556
0.093356
0.0933564
0.0933567
0.0933569
0.0933571
0.0933573
0.0933574
0.0933574
0.0933574
0.0933574
0.0933573
0.0933571
0.0933569
0.0933567
0.0933564
0.093356
0.0933556
0.0933552
0.0933547
0.0933541
0.0933535
0.0933529
0.0933522
0.0933515
0.0933507
0.0933499
0.093349
0.0933481
0.0933471
0.0933461
0.0933449
0.0933435
0.0933416
0.0933384
0.0933317
0.0933156
0.0932733
0.0931536
0.110919
0.111069
0.111123
0.111144
0.111152
0.111156
0.111158
0.11116
0.111162
0.111163
0.111164
0.111165
0.111166
0.111167
0.111168
0.111169
0.11117
0.111171
0.111172
0.111172
0.111173
0.111173
0.111174
0.111174
0.111175
0.111175
0.111175
0.111175
0.111176
0.111176
0.111176
0.111176
0.111175
0.111175
0.111175
0.111175
0.111174
0.111174
0.111173
0.111173
0.111172
0.111172
0.111171
0.11117
0.111169
0.111168
0.111167
0.111166
0.111165
0.111164
0.111163
0.111162
0.11116
0.111158
0.111156
0.111152
0.111144
0.111123
0.111069
0.110919
0.132924
0.133108
0.133174
0.1332
0.13321
0.133215
0.133218
0.13322
0.133222
0.133223
0.133225
0.133226
0.133227
0.133229
0.13323
0.133231
0.133232
0.133233
0.133234
0.133234
0.133235
0.133236
0.133236
0.133237
0.133237
0.133238
0.133238
0.133238
0.133238
0.133238
0.133238
0.133238
0.133238
0.133238
0.133238
0.133237
0.133237
0.133236
0.133236
0.133235
0.133234
0.133234
0.133233
0.133232
0.133231
0.13323
0.133229
0.133227
0.133226
0.133225
0.133223
0.133222
0.13322
0.133218
0.133215
0.13321
0.1332
0.133174
0.133108
0.132924
0.158649
0.158865
0.158943
0.158973
0.158986
0.158992
0.158995
0.158997
0.158999
0.159001
0.159003
0.159004
0.159006
0.159007
0.159008
0.15901
0.159011
0.159012
0.159013
0.159014
0.159014
0.159015
0.159016
0.159016
0.159017
0.159017
0.159018
0.159018
0.159018
0.159018
0.159018
0.159018
0.159018
0.159018
0.159017
0.159017
0.159016
0.159016
0.159015
0.159014
0.159014
0.159013
0.159012
0.159011
0.15901
0.159008
0.159007
0.159006
0.159004
0.159003
0.159001
0.158999
0.158997
0.158995
0.158992
0.158986
0.158973
0.158943
0.158865
0.158649
0.1871
0.187345
0.187434
0.187469
0.187483
0.18749
0.187494
0.187496
0.187498
0.1875
0.187502
0.187504
0.187505
0.187507
0.187508
0.187509
0.18751
0.187512
0.187513
0.187514
0.187514
0.187515
0.187516
0.187517
0.187517
0.187518
0.187518
0.187518
0.187518
0.187518
0.187518
0.187518
0.187518
0.187518
0.187518
0.187517
0.187517
0.187516
0.187515
0.187514
0.187514
0.187513
0.187512
0.18751
0.187509
0.187508
0.187507
0.187505
0.187504
0.187502
0.1875
0.187498
0.187496
0.187494
0.18749
0.187483
0.187469
0.187434
0.187345
0.1871
0.217172
0.217442
0.217541
0.217579
0.217595
0.217603
0.217607
0.217609
0.217612
0.217614
0.217616
0.217617
0.217619
0.21762
0.217622
0.217623
0.217624
0.217625
0.217627
0.217628
0.217628
0.217629
0.21763
0.217631
0.217631
0.217632
0.217632
0.217632
0.217632
0.217633
0.217633
0.217632
0.217632
0.217632
0.217632
0.217631
0.217631
0.21763
0.217629
0.217628
0.217628
0.217627
0.217625
0.217624
0.217623
0.217622
0.21762
0.217619
0.217617
0.217616
0.217614
0.217612
0.217609
0.217607
0.217603
0.217595
0.217579
0.217541
0.217442
0.217172
0.247937
0.248227
0.248335
0.248377
0.248395
0.248402
0.248407
0.24841
0.248412
0.248414
0.248416
0.248418
0.248419
0.248421
0.248422
0.248424
0.248425
0.248426
0.248427
0.248428
0.248429
0.24843
0.248431
0.248431
0.248432
0.248432
0.248433
0.248433
0.248433
0.248433
0.248433
0.248433
0.248433
0.248433
0.248432
0.248432
0.248431
0.248431
0.24843
0.248429
0.248428
0.248427
0.248426
0.248425
0.248424
0.248422
0.248421
0.248419
0.248418
0.248416
0.248414
0.248412
0.24841
0.248407
0.248402
0.248395
0.248377
0.248335
0.248227
0.247937
0.27875
0.279057
0.279173
0.279219
0.279237
0.279246
0.279251
0.279254
0.279256
0.279258
0.27926
0.279262
0.279263
0.279265
0.279266
0.279267
0.279269
0.27927
0.279271
0.279272
0.279273
0.279274
0.279274
0.279275
0.279276
0.279276
0.279276
0.279277
0.279277
0.279277
0.279277
0.279277
0.279277
0.279276
0.279276
0.279276
0.279275
0.279274
0.279274
0.279273
0.279272
0.279271
0.27927
0.279269
0.279267
0.279266
0.279265
0.279263
0.279262
0.27926
0.279258
0.279256
0.279254
0.279251
0.279246
0.279237
0.279219
0.279173
0.279057
0.27875
0.309215
0.309537
0.30966
0.309709
0.309729
0.309738
0.309743
0.309746
0.309748
0.30975
0.309752
0.309754
0.309755
0.309757
0.309758
0.30976
0.309761
0.309762
0.309763
0.309764
0.309765
0.309766
0.309766
0.309767
0.309768
0.309768
0.309768
0.309769
0.309769
0.309769
0.309769
0.309769
0.309769
0.309768
0.309768
0.309768
0.309767
0.309766
0.309766
0.309765
0.309764
0.309763
0.309762
0.309761
0.30976
0.309758
0.309757
0.309755
0.309754
0.309752
0.30975
0.309748
0.309746
0.309743
0.309738
0.309729
0.309709
0.30966
0.309537
0.309215
0.339105
0.339438
0.339568
0.33962
0.339642
0.339651
0.339656
0.33966
0.339662
0.339664
0.339666
0.339667
0.339669
0.33967
0.339672
0.339673
0.339674
0.339675
0.339676
0.339677
0.339678
0.339679
0.33968
0.33968
0.339681
0.339681
0.339682
0.339682
0.339682
0.339682
0.339682
0.339682
0.339682
0.339682
0.339681
0.339681
0.33968
0.33968
0.339679
0.339678
0.339677
0.339676
0.339675
0.339674
0.339673
0.339672
0.33967
0.339669
0.339667
0.339666
0.339664
0.339662
0.33966
0.339656
0.339651
0.339642
0.33962
0.339568
0.339438
0.339105
0.36829
0.368634
0.36877
0.368825
0.368848
0.368858
0.368863
0.368867
0.368869
0.368871
0.368873
0.368874
0.368876
0.368877
0.368879
0.36888
0.368881
0.368882
0.368883
0.368884
0.368885
0.368886
0.368887
0.368887
0.368888
0.368888
0.368888
0.368889
0.368889
0.368889
0.368889
0.368889
0.368889
0.368888
0.368888
0.368888
0.368887
0.368887
0.368886
0.368885
0.368884
0.368883
0.368882
0.368881
0.36888
0.368879
0.368877
0.368876
0.368874
0.368873
0.368871
0.368869
0.368867
0.368863
0.368858
0.368848
0.368825
0.36877
0.368634
0.36829
0.396698
0.39705
0.397192
0.39725
0.397275
0.397285
0.397291
0.397294
0.397297
0.397299
0.3973
0.397302
0.397303
0.397305
0.397306
0.397307
0.397308
0.397309
0.39731
0.397311
0.397312
0.397313
0.397314
0.397314
0.397315
0.397315
0.397315
0.397316
0.397316
0.397316
0.397316
0.397316
0.397316
0.397315
0.397315
0.397315
0.397314
0.397314
0.397313
0.397312
0.397311
0.39731
0.397309
0.397308
0.397307
0.397306
0.397305
0.397303
0.397302
0.3973
0.397299
0.397297
0.397294
0.397291
0.397285
0.397275
0.39725
0.397192
0.39705
0.396698
0.424286
0.424645
0.424793
0.424854
0.424879
0.424891
0.424897
0.4249
0.424902
0.424904
0.424906
0.424908
0.424909
0.42491
0.424912
0.424913
0.424914
0.424915
0.424916
0.424917
0.424918
0.424918
0.424919
0.424919
0.42492
0.42492
0.424921
0.424921
0.424921
0.424921
0.424921
0.424921
0.424921
0.424921
0.42492
0.42492
0.424919
0.424919
0.424918
0.424918
0.424917
0.424916
0.424915
0.424914
0.424913
0.424912
0.42491
0.424909
0.424908
0.424906
0.424904
0.424902
0.4249
0.424897
0.424891
0.424879
0.424854
0.424793
0.424645
0.424286
0.451029
0.451395
0.451547
0.451611
0.451638
0.45165
0.451656
0.45166
0.451662
0.451664
0.451666
0.451667
0.451669
0.45167
0.451671
0.451672
0.451673
0.451674
0.451675
0.451676
0.451677
0.451678
0.451678
0.451679
0.451679
0.45168
0.45168
0.45168
0.45168
0.45168
0.45168
0.45168
0.45168
0.45168
0.45168
0.451679
0.451679
0.451678
0.451678
0.451677
0.451676
0.451675
0.451674
0.451673
0.451672
0.451671
0.45167
0.451669
0.451667
0.451666
0.451664
0.451662
0.45166
0.451656
0.45165
0.451638
0.451611
0.451547
0.451395
0.451029
0.476916
0.477286
0.477443
0.47751
0.477539
0.477551
0.477558
0.477561
0.477564
0.477565
0.477567
0.477569
0.47757
0.477571
0.477572
0.477573
0.477574
0.477575
0.477576
0.477577
0.477578
0.477578
0.477579
0.477579
0.47758
0.47758
0.477581
0.477581
0.477581
0.477581
0.477581
0.477581
0.477581
0.477581
0.47758
0.47758
0.477579
0.477579
0.477578
0.477578
0.477577
0.477576
0.477575
0.477574
0.477573
0.477572
0.477571
0.47757
0.477569
0.477567
0.477565
0.477564
0.477561
0.477558
0.477551
0.477539
0.47751
0.477443
0.477286
0.476916
0.501941
0.502314
0.502476
0.502545
0.502575
0.502589
0.502595
0.502599
0.502601
0.502603
0.502605
0.502606
0.502607
0.502609
0.50261
0.502611
0.502612
0.502613
0.502613
0.502614
0.502615
0.502616
0.502616
0.502617
0.502617
0.502617
0.502618
0.502618
0.502618
0.502618
0.502618
0.502618
0.502618
0.502618
0.502617
0.502617
0.502617
0.502616
0.502616
0.502615
0.502614
0.502613
0.502613
0.502612
0.502611
0.50261
0.502609
0.502607
0.502606
0.502605
0.502603
0.502601
0.502599
0.502595
0.502589
0.502575
0.502545
0.502476
0.502314
0.501941
0.526105
0.526479
0.526645
0.526718
0.526749
0.526763
0.52677
0.526774
0.526776
0.526778
0.526779
0.526781
0.526782
0.526783
0.526784
0.526785
0.526786
0.526787
0.526788
0.526788
0.526789
0.52679
0.52679
0.526791
0.526791
0.526792
0.526792
0.526792
0.526792
0.526792
0.526792
0.526792
0.526792
0.526792
0.526792
0.526791
0.526791
0.52679
0.52679
0.526789
0.526788
0.526788
0.526787
0.526786
0.526785
0.526784
0.526783
0.526782
0.526781
0.526779
0.526778
0.526776
0.526774
0.52677
0.526763
0.526749
0.526718
0.526645
0.526479
0.526105
0.549411
0.549787
0.549957
0.550031
0.550064
0.550079
0.550086
0.55009
0.550093
0.550094
0.550096
0.550097
0.550098
0.550099
0.5501
0.550101
0.550102
0.550103
0.550104
0.550104
0.550105
0.550106
0.550106
0.550107
0.550107
0.550107
0.550108
0.550108
0.550108
0.550108
0.550108
0.550108
0.550108
0.550108
0.550107
0.550107
0.550107
0.550106
0.550106
0.550105
0.550104
0.550104
0.550103
0.550102
0.550101
0.5501
0.550099
0.550098
0.550097
0.550096
0.550094
0.550093
0.55009
0.550086
0.550079
0.550064
0.550031
0.549957
0.549787
0.549411
0.571869
0.572245
0.572418
0.572495
0.572529
0.572545
0.572552
0.572556
0.572559
0.572561
0.572562
0.572563
0.572564
0.572565
0.572566
0.572567
0.572568
0.572569
0.572569
0.57257
0.572571
0.572571
0.572572
0.572572
0.572573
0.572573
0.572573
0.572573
0.572573
0.572573
0.572573
0.572573
0.572573
0.572573
0.572573
0.572573
0.572572
0.572572
0.572571
0.572571
0.57257
0.572569
0.572569
0.572568
0.572567
0.572566
0.572565
0.572564
0.572563
0.572562
0.572561
0.572559
0.572556
0.572552
0.572545
0.572529
0.572495
0.572418
0.572245
0.571869
0.593489
0.593863
0.594039
0.594118
0.594154
0.594171
0.594178
0.594182
0.594185
0.594187
0.594188
0.594189
0.59419
0.594191
0.594192
0.594193
0.594194
0.594195
0.594195
0.594196
0.594196
0.594197
0.594197
0.594198
0.594198
0.594198
0.594199
0.594199
0.594199
0.594199
0.594199
0.594199
0.594199
0.594199
0.594198
0.594198
0.594198
0.594197
0.594197
0.594196
0.594196
0.594195
0.594195
0.594194
0.594193
0.594192
0.594191
0.59419
0.594189
0.594188
0.594187
0.594185
0.594182
0.594178
0.594171
0.594154
0.594118
0.594039
0.593863
0.593489
0.614282
0.614655
0.614833
0.614915
0.614952
0.614969
0.614977
0.614981
0.614984
0.614986
0.614987
0.614988
0.614989
0.61499
0.614991
0.614991
0.614992
0.614993
0.614994
0.614994
0.614995
0.614995
0.614996
0.614996
0.614996
0.614997
0.614997
0.614997
0.614997
0.614997
0.614997
0.614997
0.614997
0.614997
0.614997
0.614996
0.614996
0.614996
0.614995
0.614995
0.614994
0.614994
0.614993
0.614992
0.614991
0.614991
0.61499
0.614989
0.614988
0.614987
0.614986
0.614984
0.614981
0.614977
0.614969
0.614952
0.614915
0.614833
0.614655
0.614282
0.634264
0.634633
0.634813
0.634897
0.634936
0.634954
0.634962
0.634967
0.634969
0.634971
0.634972
0.634973
0.634974
0.634975
0.634976
0.634977
0.634977
0.634978
0.634979
0.634979
0.63498
0.63498
0.634981
0.634981
0.634981
0.634982
0.634982
0.634982
0.634982
0.634982
0.634982
0.634982
0.634982
0.634982
0.634982
0.634981
0.634981
0.634981
0.63498
0.63498
0.634979
0.634979
0.634978
0.634977
0.634977
0.634976
0.634975
0.634974
0.634973
0.634972
0.634971
0.634969
0.634967
0.634962
0.634954
0.634936
0.634897
0.634813
0.634633
0.634264
0.653449
0.653815
0.653996
0.654082
0.654122
0.654141
0.65415
0.654155
0.654157
0.654159
0.65416
0.654161
0.654162
0.654163
0.654164
0.654164
0.654165
0.654166
0.654166
0.654167
0.654167
0.654168
0.654168
0.654168
0.654169
0.654169
0.654169
0.654169
0.654169
0.654169
0.654169
0.654169
0.654169
0.654169
0.654169
0.654169
0.654168
0.654168
0.654168
0.654167
0.654167
0.654166
0.654166
0.654165
0.654164
0.654164
0.654163
0.654162
0.654161
0.65416
0.654159
0.654157
0.654155
0.65415
0.654141
0.654122
0.654082
0.653996
0.653815
0.653449
0.671854
0.672216
0.672398
0.672486
0.672528
0.672547
0.672557
0.672562
0.672564
0.672566
0.672567
0.672568
0.672569
0.67257
0.67257
0.672571
0.672572
0.672572
0.672573
0.672573
0.672574
0.672574
0.672574
0.672575
0.672575
0.672575
0.672575
0.672576
0.672576
0.672576
0.672576
0.672576
0.672576
0.672575
0.672575
0.672575
0.672575
0.672574
0.672574
0.672574
0.672573
0.672573
0.672572
0.672572
0.672571
0.67257
0.67257
0.672569
0.672568
0.672567
0.672566
0.672564
0.672562
0.672557
0.672547
0.672528
0.672486
0.672398
0.672216
0.671854
0.689497
0.689854
0.690037
0.690127
0.69017
0.69019
0.6902
0.690205
0.690208
0.690209
0.690211
0.690212
0.690212
0.690213
0.690214
0.690214
0.690215
0.690215
0.690216
0.690216
0.690217
0.690217
0.690217
0.690218
0.690218
0.690218
0.690218
0.690218
0.690218
0.690219
0.690219
0.690218
0.690218
0.690218
0.690218
0.690218
0.690218
0.690217
0.690217
0.690217
0.690216
0.690216
0.690215
0.690215
0.690214
0.690214
0.690213
0.690212
0.690212
0.690211
0.690209
0.690208
0.690205
0.6902
0.69019
0.69017
0.690127
0.690037
0.689854
0.689497
0.706396
0.706747
0.706931
0.707022
0.707067
0.707088
0.707098
0.707103
0.707106
0.707108
0.707109
0.70711
0.707111
0.707111
0.707112
0.707112
0.707113
0.707113
0.707114
0.707114
0.707115
0.707115
0.707115
0.707116
0.707116
0.707116
0.707116
0.707116
0.707116
0.707116
0.707116
0.707116
0.707116
0.707116
0.707116
0.707116
0.707116
0.707115
0.707115
0.707115
0.707114
0.707114
0.707113
0.707113
0.707112
0.707112
0.707111
0.707111
0.70711
0.707109
0.707108
0.707106
0.707103
0.707098
0.707088
0.707067
0.707022
0.706931
0.706747
0.706396
0.72257
0.722915
0.723099
0.723192
0.723237
0.723259
0.72327
0.723275
0.723278
0.72328
0.723281
0.723282
0.723283
0.723283
0.723284
0.723284
0.723285
0.723285
0.723286
0.723286
0.723286
0.723287
0.723287
0.723287
0.723287
0.723288
0.723288
0.723288
0.723288
0.723288
0.723288
0.723288
0.723288
0.723288
0.723288
0.723287
0.723287
0.723287
0.723287
0.723286
0.723286
0.723286
0.723285
0.723285
0.723284
0.723284
0.723283
0.723283
0.723282
0.723281
0.72328
0.723278
0.723275
0.72327
0.723259
0.723237
0.723192
0.723099
0.722915
0.72257
0.738038
0.738376
0.73856
0.738654
0.738701
0.738724
0.738735
0.738741
0.738744
0.738745
0.738746
0.738747
0.738748
0.738748
0.738749
0.738749
0.73875
0.73875
0.738751
0.738751
0.738751
0.738751
0.738752
0.738752
0.738752
0.738752
0.738752
0.738753
0.738753
0.738753
0.738753
0.738753
0.738753
0.738752
0.738752
0.738752
0.738752
0.738752
0.738751
0.738751
0.738751
0.738751
0.73875
0.73875
0.738749
0.738749
0.738748
0.738748
0.738747
0.738746
0.738745
0.738744
0.738741
0.738735
0.738724
0.738701
0.738654
0.73856
0.738376
0.738038
0.75282
0.753151
0.753334
0.753429
0.753477
0.753501
0.753513
0.753519
0.753522
0.753524
0.753525
0.753525
0.753526
0.753526
0.753527
0.753527
0.753528
0.753528
0.753528
0.753529
0.753529
0.753529
0.753529
0.75353
0.75353
0.75353
0.75353
0.75353
0.75353
0.75353
0.75353
0.75353
0.75353
0.75353
0.75353
0.75353
0.75353
0.753529
0.753529
0.753529
0.753529
0.753528
0.753528
0.753528
0.753527
0.753527
0.753526
0.753526
0.753525
0.753525
0.753524
0.753522
0.753519
0.753513
0.753501
0.753477
0.753429
0.753334
0.753151
0.75282
0.766935
0.76726
0.767441
0.767538
0.767586
0.767611
0.767623
0.767629
0.767633
0.767635
0.767636
0.767636
0.767637
0.767637
0.767638
0.767638
0.767638
0.767639
0.767639
0.767639
0.76764
0.76764
0.76764
0.76764
0.76764
0.76764
0.767641
0.767641
0.767641
0.767641
0.767641
0.767641
0.767641
0.767641
0.76764
0.76764
0.76764
0.76764
0.76764
0.76764
0.767639
0.767639
0.767639
0.767638
0.767638
0.767638
0.767637
0.767637
0.767636
0.767636
0.767635
0.767633
0.767629
0.767623
0.767611
0.767586
0.767538
0.767441
0.76726
0.766935
0.780405
0.780721
0.780902
0.780999
0.781049
0.781074
0.781087
0.781093
0.781097
0.781098
0.7811
0.7811
0.781101
0.781101
0.781102
0.781102
0.781102
0.781102
0.781103
0.781103
0.781103
0.781103
0.781104
0.781104
0.781104
0.781104
0.781104
0.781104
0.781104
0.781104
0.781104
0.781104
0.781104
0.781104
0.781104
0.781104
0.781104
0.781104
0.781103
0.781103
0.781103
0.781103
0.781102
0.781102
0.781102
0.781102
0.781101
0.781101
0.7811
0.7811
0.781098
0.781097
0.781093
0.781087
0.781074
0.781049
0.780999
0.780902
0.780721
0.780405
0.793248
0.793557
0.793736
0.793833
0.793884
0.79391
0.793923
0.79393
0.793934
0.793936
0.793937
0.793937
0.793938
0.793938
0.793938
0.793939
0.793939
0.793939
0.793939
0.79394
0.79394
0.79394
0.79394
0.79394
0.79394
0.793941
0.793941
0.793941
0.793941
0.793941
0.793941
0.793941
0.793941
0.793941
0.793941
0.79394
0.79394
0.79394
0.79394
0.79394
0.79394
0.793939
0.793939
0.793939
0.793939
0.793938
0.793938
0.793938
0.793937
0.793937
0.793936
0.793934
0.79393
0.793923
0.79391
0.793884
0.793833
0.793736
0.793557
0.793248
0.805486
0.805786
0.805963
0.806061
0.806112
0.806139
0.806153
0.80616
0.806164
0.806166
0.806167
0.806168
0.806168
0.806168
0.806169
0.806169
0.806169
0.806169
0.80617
0.80617
0.80617
0.80617
0.80617
0.80617
0.80617
0.80617
0.806171
0.806171
0.806171
0.806171
0.806171
0.806171
0.806171
0.806171
0.80617
0.80617
0.80617
0.80617
0.80617
0.80617
0.80617
0.80617
0.806169
0.806169
0.806169
0.806169
0.806168
0.806168
0.806168
0.806167
0.806166
0.806164
0.80616
0.806153
0.806139
0.806112
0.806061
0.805963
0.805786
0.805486
0.817138
0.81743
0.817604
0.817702
0.817755
0.817782
0.817796
0.817804
0.817808
0.81781
0.817811
0.817812
0.817812
0.817812
0.817812
0.817813
0.817813
0.817813
0.817813
0.817813
0.817813
0.817814
0.817814
0.817814
0.817814
0.817814
0.817814
0.817814
0.817814
0.817814
0.817814
0.817814
0.817814
0.817814
0.817814
0.817814
0.817814
0.817814
0.817814
0.817813
0.817813
0.817813
0.817813
0.817813
0.817813
0.817812
0.817812
0.817812
0.817812
0.817811
0.81781
0.817808
0.817804
0.817796
0.817782
0.817755
0.817702
0.817604
0.81743
0.817138
0.828224
0.828507
0.828679
0.828777
0.82883
0.828858
0.828873
0.828881
0.828885
0.828887
0.828888
0.828889
0.828889
0.82889
0.82889
0.82889
0.82889
0.82889
0.82889
0.82889
0.82889
0.828891
0.828891
0.828891
0.828891
0.828891
0.828891
0.828891
0.828891
0.828891
0.828891
0.828891
0.828891
0.828891
0.828891
0.828891
0.828891
0.828891
0.828891
0.82889
0.82889
0.82889
0.82889
0.82889
0.82889
0.82889
0.82889
0.828889
0.828889
0.828888
0.828887
0.828885
0.828881
0.828873
0.828858
0.82883
0.828777
0.828679
0.828507
0.828224
0.838764
0.839039
0.839208
0.839305
0.839359
0.839388
0.839404
0.839412
0.839416
0.839418
0.839419
0.83942
0.83942
0.83942
0.839421
0.839421
0.839421
0.839421
0.839421
0.839421
0.839421
0.839421
0.839421
0.839421
0.839421
0.839421
0.839421
0.839421
0.839421
0.839421
0.839421
0.839421
0.839421
0.839421
0.839421
0.839421
0.839421
0.839421
0.839421
0.839421
0.839421
0.839421
0.839421
0.839421
0.839421
0.839421
0.83942