/*--------------------------------*- C++ -*----------------------------------*\
| =========                 |                                                 |
| \\      /  F ield         | foam-extend: Open Source CFD                    |
|  \\    /   O peration     | Version:     4.0                                |
|   \\  /    A nd           | Web:         http://www.foam-extend.org         |
|    \\/     M anipulation  |                                                 |
\*---------------------------------------------------------------------------*/
FoamFile
{
    version     2.0;
    format      ascii;
    class       volScalarField;
    location    "1400";
    object      cMinus;
}
// * * * * * * * * * * * * * * * * * * * * * * * * * * * * * * * * * * * * * //

dimensions      [0 0 0 0 0 0 0];

internalField   nonuniform List<scalar> 
6960
(
1.9202e-23
1.92117e-23
1.9209e-23
1.92043e-23
1.91994e-23
1.91949e-23
1.91908e-23
1.91872e-23
1.9184e-23
1.91812e-23
1.91788e-23
1.91768e-23
1.9175e-23
1.91735e-23
1.91721e-23
1.9171e-23
1.91701e-23
1.91692e-23
1.91686e-23
1.9168e-23
1.91675e-23
1.91671e-23
1.91668e-23
1.91665e-23
1.91663e-23
1.91661e-23
1.9166e-23
1.91659e-23
1.91658e-23
1.91658e-23
1.91658e-23
1.91658e-23
1.91659e-23
1.9166e-23
1.91661e-23
1.91663e-23
1.91665e-23
1.91668e-23
1.91671e-23
1.91675e-23
1.9168e-23
1.91686e-23
1.91692e-23
1.91701e-23
1.9171e-23
1.91721e-23
1.91735e-23
1.9175e-23
1.91768e-23
1.91788e-23
1.91812e-23
1.9184e-23
1.91872e-23
1.91908e-23
1.91949e-23
1.91994e-23
1.92043e-23
1.9209e-23
1.92117e-23
1.9202e-23
8.26234e-23
8.2672e-23
8.26676e-23
8.26543e-23
8.26399e-23
8.26261e-23
8.26136e-23
8.26024e-23
8.25926e-23
8.25839e-23
8.25763e-23
8.25698e-23
8.25641e-23
8.25591e-23
8.25549e-23
8.25512e-23
8.2548e-23
8.25454e-23
8.25431e-23
8.25412e-23
8.25395e-23
8.25382e-23
8.25371e-23
8.25361e-23
8.25354e-23
8.25348e-23
8.25343e-23
8.2534e-23
8.25338e-23
8.25337e-23
8.25337e-23
8.25338e-23
8.2534e-23
8.25343e-23
8.25348e-23
8.25354e-23
8.25361e-23
8.25371e-23
8.25382e-23
8.25395e-23
8.25412e-23
8.25431e-23
8.25454e-23
8.2548e-23
8.25512e-23
8.25549e-23
8.25591e-23
8.25641e-23
8.25698e-23
8.25763e-23
8.25839e-23
8.25926e-23
8.26024e-23
8.26136e-23
8.26261e-23
8.26399e-23
8.26543e-23
8.26676e-23
8.2672e-23
8.26234e-23
2.60786e-22
2.60962e-22
2.60975e-22
2.60958e-22
2.60936e-22
2.60914e-22
2.60892e-22
2.60873e-22
2.60855e-22
2.60839e-22
2.60825e-22
2.60813e-22
2.60802e-22
2.60792e-22
2.60784e-22
2.60776e-22
2.6077e-22
2.60764e-22
2.60759e-22
2.60755e-22
2.60752e-22
2.60749e-22
2.60746e-22
2.60744e-22
2.60743e-22
2.60741e-22
2.6074e-22
2.6074e-22
2.60739e-22
2.60739e-22
2.60739e-22
2.60739e-22
2.6074e-22
2.6074e-22
2.60741e-22
2.60743e-22
2.60744e-22
2.60746e-22
2.60749e-22
2.60752e-22
2.60755e-22
2.60759e-22
2.60764e-22
2.6077e-22
2.60776e-22
2.60784e-22
2.60792e-22
2.60802e-22
2.60813e-22
2.60825e-22
2.60839e-22
2.60855e-22
2.60873e-22
2.60892e-22
2.60914e-22
2.60936e-22
2.60958e-22
2.60975e-22
2.60962e-22
2.60786e-22
7.67279e-22
7.67871e-22
7.67998e-22
7.68037e-22
7.68051e-22
7.68055e-22
7.68054e-22
7.6805e-22
7.68044e-22
7.68037e-22
7.68029e-22
7.68021e-22
7.68012e-22
7.68004e-22
7.67996e-22
7.67988e-22
7.6798e-22
7.67974e-22
7.67968e-22
7.67962e-22
7.67957e-22
7.67953e-22
7.6795e-22
7.67947e-22
7.67944e-22
7.67942e-22
7.67941e-22
7.6794e-22
7.67939e-22
7.67939e-22
7.67939e-22
7.67939e-22
7.6794e-22
7.67941e-22
7.67942e-22
7.67944e-22
7.67947e-22
7.6795e-22
7.67953e-22
7.67957e-22
7.67962e-22
7.67968e-22
7.67974e-22
7.6798e-22
7.67988e-22
7.67996e-22
7.68004e-22
7.68012e-22
7.68021e-22
7.68029e-22
7.68037e-22
7.68044e-22
7.6805e-22
7.68054e-22
7.68055e-22
7.68051e-22
7.68037e-22
7.67998e-22
7.67871e-22
7.67279e-22
2.24177e-21
2.24374e-21
2.2444e-21
2.24479e-21
2.24509e-21
2.24532e-21
2.24552e-21
2.24568e-21
2.24581e-21
2.24591e-21
2.246e-21
2.24607e-21
2.24612e-21
2.24616e-21
2.24619e-21
2.24621e-21
2.24622e-21
2.24624e-21
2.24624e-21
2.24625e-21
2.24625e-21
2.24626e-21
2.24626e-21
2.24626e-21
2.24626e-21
2.24626e-21
2.24626e-21
2.24626e-21
2.24626e-21
2.24626e-21
2.24626e-21
2.24626e-21
2.24626e-21
2.24626e-21
2.24626e-21
2.24626e-21
2.24626e-21
2.24626e-21
2.24626e-21
2.24625e-21
2.24625e-21
2.24624e-21
2.24624e-21
2.24622e-21
2.24621e-21
2.24619e-21
2.24616e-21
2.24612e-21
2.24607e-21
2.246e-21
2.24591e-21
2.24581e-21
2.24568e-21
2.24552e-21
2.24532e-21
2.24509e-21
2.24479e-21
2.2444e-21
2.24374e-21
2.24177e-21
6.64595e-21
6.65255e-21
6.65539e-21
6.65742e-21
6.6591e-21
6.66051e-21
6.6617e-21
6.66271e-21
6.66356e-21
6.66427e-21
6.66486e-21
6.66534e-21
6.66574e-21
6.66606e-21
6.66631e-21
6.66652e-21
6.66669e-21
6.66682e-21
6.66693e-21
6.66701e-21
6.66708e-21
6.66713e-21
6.66717e-21
6.66721e-21
6.66723e-21
6.66725e-21
6.66727e-21
6.66728e-21
6.66729e-21
6.66729e-21
6.66729e-21
6.66729e-21
6.66728e-21
6.66727e-21
6.66725e-21
6.66723e-21
6.66721e-21
6.66717e-21
6.66713e-21
6.66708e-21
6.66701e-21
6.66693e-21
6.66682e-21
6.66669e-21
6.66652e-21
6.66631e-21
6.66606e-21
6.66574e-21
6.66534e-21
6.66486e-21
6.66427e-21
6.66356e-21
6.66271e-21
6.6617e-21
6.66051e-21
6.6591e-21
6.65742e-21
6.65539e-21
6.65255e-21
6.64595e-21
2.01502e-20
2.01725e-20
2.01839e-20
2.01929e-20
2.02005e-20
2.0207e-20
2.02125e-20
2.02173e-20
2.02214e-20
2.02247e-20
2.02276e-20
2.023e-20
2.02319e-20
2.02335e-20
2.02348e-20
2.02359e-20
2.02368e-20
2.02375e-20
2.02381e-20
2.02385e-20
2.02389e-20
2.02392e-20
2.02395e-20
2.02397e-20
2.02398e-20
2.024e-20
2.024e-20
2.02401e-20
2.02402e-20
2.02402e-20
2.02402e-20
2.02402e-20
2.02401e-20
2.024e-20
2.024e-20
2.02398e-20
2.02397e-20
2.02395e-20
2.02392e-20
2.02389e-20
2.02385e-20
2.02381e-20
2.02375e-20
2.02368e-20
2.02359e-20
2.02348e-20
2.02335e-20
2.02319e-20
2.023e-20
2.02276e-20
2.02247e-20
2.02214e-20
2.02173e-20
2.02125e-20
2.0207e-20
2.02005e-20
2.01929e-20
2.01839e-20
2.01725e-20
2.01502e-20
6.26699e-20
6.27469e-20
6.27914e-20
6.28279e-20
6.28595e-20
6.28869e-20
6.29106e-20
6.29308e-20
6.29481e-20
6.29627e-20
6.29749e-20
6.29851e-20
6.29936e-20
6.30007e-20
6.30065e-20
6.30113e-20
6.30152e-20
6.30184e-20
6.3021e-20
6.30232e-20
6.30249e-20
6.30264e-20
6.30275e-20
6.30284e-20
6.30292e-20
6.30297e-20
6.30302e-20
6.30305e-20
6.30307e-20
6.30308e-20
6.30308e-20
6.30307e-20
6.30305e-20
6.30302e-20
6.30297e-20
6.30292e-20
6.30284e-20
6.30275e-20
6.30264e-20
6.30249e-20
6.30232e-20
6.3021e-20
6.30184e-20
6.30152e-20
6.30113e-20
6.30065e-20
6.30007e-20
6.29936e-20
6.29851e-20
6.29749e-20
6.29627e-20
6.29481e-20
6.29308e-20
6.29106e-20
6.28869e-20
6.28595e-20
6.28279e-20
6.27914e-20
6.27469e-20
6.26699e-20
2.00177e-19
2.00447e-19
2.00619e-19
2.00764e-19
2.00891e-19
2.01002e-19
2.01098e-19
2.01181e-19
2.01251e-19
2.01311e-19
2.01361e-19
2.01403e-19
2.01439e-19
2.01468e-19
2.01492e-19
2.01512e-19
2.01528e-19
2.01542e-19
2.01553e-19
2.01562e-19
2.0157e-19
2.01576e-19
2.01581e-19
2.01584e-19
2.01588e-19
2.0159e-19
2.01592e-19
2.01593e-19
2.01594e-19
2.01595e-19
2.01595e-19
2.01594e-19
2.01593e-19
2.01592e-19
2.0159e-19
2.01588e-19
2.01584e-19
2.01581e-19
2.01576e-19
2.0157e-19
2.01562e-19
2.01553e-19
2.01542e-19
2.01528e-19
2.01512e-19
2.01492e-19
2.01468e-19
2.01439e-19
2.01403e-19
2.01361e-19
2.01311e-19
2.01251e-19
2.01181e-19
2.01098e-19
2.01002e-19
2.00891e-19
2.00764e-19
2.00619e-19
2.00447e-19
2.00177e-19
6.56991e-19
6.57958e-19
6.5862e-19
6.59193e-19
6.59699e-19
6.60142e-19
6.60526e-19
6.60857e-19
6.61139e-19
6.61379e-19
6.61581e-19
6.61751e-19
6.61894e-19
6.62012e-19
6.6211e-19
6.62192e-19
6.62259e-19
6.62314e-19
6.6236e-19
6.62397e-19
6.62428e-19
6.62453e-19
6.62473e-19
6.6249e-19
6.62503e-19
6.62513e-19
6.62521e-19
6.62526e-19
6.6253e-19
6.62532e-19
6.62532e-19
6.6253e-19
6.62526e-19
6.62521e-19
6.62513e-19
6.62503e-19
6.6249e-19
6.62473e-19
6.62453e-19
6.62428e-19
6.62397e-19
6.6236e-19
6.62314e-19
6.62259e-19
6.62192e-19
6.6211e-19
6.62012e-19
6.61894e-19
6.61751e-19
6.61581e-19
6.61379e-19
6.61139e-19
6.60857e-19
6.60526e-19
6.60142e-19
6.59699e-19
6.59193e-19
6.5862e-19
6.57958e-19
6.56991e-19
2.21605e-18
2.21959e-18
2.22215e-18
2.22442e-18
2.22643e-18
2.22819e-18
2.22972e-18
2.23104e-18
2.23217e-18
2.23313e-18
2.23395e-18
2.23463e-18
2.2352e-18
2.23568e-18
2.23607e-18
2.2364e-18
2.23668e-18
2.2369e-18
2.23709e-18
2.23724e-18
2.23736e-18
2.23747e-18
2.23755e-18
2.23762e-18
2.23767e-18
2.23771e-18
2.23774e-18
2.23777e-18
2.23778e-18
2.23779e-18
2.23779e-18
2.23778e-18
2.23777e-18
2.23774e-18
2.23771e-18
2.23767e-18
2.23762e-18
2.23755e-18
2.23747e-18
2.23736e-18
2.23724e-18
2.23709e-18
2.2369e-18
2.23668e-18
2.2364e-18
2.23607e-18
2.23568e-18
2.2352e-18
2.23463e-18
2.23395e-18
2.23313e-18
2.23217e-18
2.23104e-18
2.22972e-18
2.22819e-18
2.22643e-18
2.22442e-18
2.22215e-18
2.21959e-18
2.21605e-18
7.68208e-18
7.69532e-18
7.70541e-18
7.71444e-18
7.72247e-18
7.72953e-18
7.73568e-18
7.74098e-18
7.74552e-18
7.74938e-18
7.75265e-18
7.75541e-18
7.75772e-18
7.75964e-18
7.76125e-18
7.76258e-18
7.76369e-18
7.7646e-18
7.76535e-18
7.76597e-18
7.76648e-18
7.7669e-18
7.76724e-18
7.76751e-18
7.76773e-18
7.7679e-18
7.76803e-18
7.76813e-18
7.76819e-18
7.76822e-18
7.76822e-18
7.76819e-18
7.76813e-18
7.76803e-18
7.7679e-18
7.76773e-18
7.76751e-18
7.76724e-18
7.7669e-18
7.76648e-18
7.76597e-18
7.76535e-18
7.7646e-18
7.76369e-18
7.76258e-18
7.76125e-18
7.75964e-18
7.75772e-18
7.75541e-18
7.75265e-18
7.74938e-18
7.74552e-18
7.74098e-18
7.73568e-18
7.72953e-18
7.72247e-18
7.71444e-18
7.70541e-18
7.69532e-18
7.68208e-18
2.73655e-17
2.74162e-17
2.74564e-17
2.74928e-17
2.75252e-17
2.75538e-17
2.75788e-17
2.76003e-17
2.76187e-17
2.76344e-17
2.76477e-17
2.76589e-17
2.76683e-17
2.76762e-17
2.76827e-17
2.76882e-17
2.76927e-17
2.76964e-17
2.76995e-17
2.7702e-17
2.77041e-17
2.77058e-17
2.77072e-17
2.77084e-17
2.77093e-17
2.771e-17
2.77105e-17
2.77109e-17
2.77111e-17
2.77113e-17
2.77113e-17
2.77111e-17
2.77109e-17
2.77105e-17
2.771e-17
2.77093e-17
2.77084e-17
2.77072e-17
2.77058e-17
2.77041e-17
2.7702e-17
2.76995e-17
2.76964e-17
2.76927e-17
2.76882e-17
2.76827e-17
2.76762e-17
2.76683e-17
2.76589e-17
2.76477e-17
2.76344e-17
2.76187e-17
2.76003e-17
2.75788e-17
2.75538e-17
2.75252e-17
2.74928e-17
2.74564e-17
2.74162e-17
2.73655e-17
1.00145e-16
1.00343e-16
1.00506e-16
1.00655e-16
1.00788e-16
1.00906e-16
1.01008e-16
1.01096e-16
1.01172e-16
1.01237e-16
1.01292e-16
1.01338e-16
1.01377e-16
1.01409e-16
1.01436e-16
1.01459e-16
1.01477e-16
1.01493e-16
1.01506e-16
1.01516e-16
1.01525e-16
1.01532e-16
1.01538e-16
1.01542e-16
1.01546e-16
1.01549e-16
1.01551e-16
1.01553e-16
1.01554e-16
1.01554e-16
1.01554e-16
1.01554e-16
1.01553e-16
1.01551e-16
1.01549e-16
1.01546e-16
1.01542e-16
1.01538e-16
1.01532e-16
1.01525e-16
1.01516e-16
1.01506e-16
1.01493e-16
1.01477e-16
1.01459e-16
1.01436e-16
1.01409e-16
1.01377e-16
1.01338e-16
1.01292e-16
1.01237e-16
1.01172e-16
1.01096e-16
1.01008e-16
1.00906e-16
1.00788e-16
1.00655e-16
1.00506e-16
1.00343e-16
1.00145e-16
3.76321e-16
3.77114e-16
3.77787e-16
3.78405e-16
3.7896e-16
3.79449e-16
3.79876e-16
3.80245e-16
3.80562e-16
3.80832e-16
3.81061e-16
3.81254e-16
3.81417e-16
3.81553e-16
3.81666e-16
3.81761e-16
3.81839e-16
3.81904e-16
3.81958e-16
3.82002e-16
3.82038e-16
3.82068e-16
3.82093e-16
3.82112e-16
3.82128e-16
3.82141e-16
3.8215e-16
3.82157e-16
3.82161e-16
3.82163e-16
3.82163e-16
3.82161e-16
3.82157e-16
3.8215e-16
3.82141e-16
3.82128e-16
3.82112e-16
3.82093e-16
3.82068e-16
3.82038e-16
3.82002e-16
3.81958e-16
3.81904e-16
3.81839e-16
3.81761e-16
3.81666e-16
3.81553e-16
3.81417e-16
3.81254e-16
3.81061e-16
3.80832e-16
3.80562e-16
3.80245e-16
3.79876e-16
3.79449e-16
3.7896e-16
3.78405e-16
3.77787e-16
3.77114e-16
3.76321e-16
1.45111e-15
1.45436e-15
1.45719e-15
1.4598e-15
1.46215e-15
1.46422e-15
1.46603e-15
1.4676e-15
1.46895e-15
1.47009e-15
1.47107e-15
1.47189e-15
1.47258e-15
1.47316e-15
1.47364e-15
1.47404e-15
1.47438e-15
1.47465e-15
1.47488e-15
1.47507e-15
1.47523e-15
1.47536e-15
1.47546e-15
1.47554e-15
1.47561e-15
1.47566e-15
1.4757e-15
1.47573e-15
1.47575e-15
1.47576e-15
1.47576e-15
1.47575e-15
1.47573e-15
1.4757e-15
1.47566e-15
1.47561e-15
1.47554e-15
1.47546e-15
1.47536e-15
1.47523e-15
1.47507e-15
1.47488e-15
1.47465e-15
1.47438e-15
1.47404e-15
1.47364e-15
1.47316e-15
1.47258e-15
1.47189e-15
1.47107e-15
1.47009e-15
1.46895e-15
1.4676e-15
1.46603e-15
1.46422e-15
1.46215e-15
1.4598e-15
1.45719e-15
1.45436e-15
1.45111e-15
5.73677e-15
5.75035e-15
5.76246e-15
5.77369e-15
5.78381e-15
5.79275e-15
5.80056e-15
5.80732e-15
5.81313e-15
5.81808e-15
5.82229e-15
5.82584e-15
5.82882e-15
5.83132e-15
5.83341e-15
5.83516e-15
5.8366e-15
5.8378e-15
5.8388e-15
5.83962e-15
5.84029e-15
5.84085e-15
5.8413e-15
5.84167e-15
5.84196e-15
5.84219e-15
5.84236e-15
5.84249e-15
5.84257e-15
5.84261e-15
5.84261e-15
5.84257e-15
5.84249e-15
5.84236e-15
5.84219e-15
5.84196e-15
5.84167e-15
5.8413e-15
5.84085e-15
5.84029e-15
5.83962e-15
5.8388e-15
5.8378e-15
5.8366e-15
5.83516e-15
5.83341e-15
5.83132e-15
5.82882e-15
5.82584e-15
5.82229e-15
5.81808e-15
5.81313e-15
5.80732e-15
5.80056e-15
5.79275e-15
5.78381e-15
5.77369e-15
5.76246e-15
5.75035e-15
5.73677e-15
2.32245e-14
2.32825e-14
2.33352e-14
2.33843e-14
2.34287e-14
2.34679e-14
2.35021e-14
2.35317e-14
2.35572e-14
2.3579e-14
2.35974e-14
2.3613e-14
2.36261e-14
2.36371e-14
2.36463e-14
2.3654e-14
2.36604e-14
2.36656e-14
2.367e-14
2.36736e-14
2.36766e-14
2.36791e-14
2.3681e-14
2.36827e-14
2.3684e-14
2.3685e-14
2.36857e-14
2.36863e-14
2.36867e-14
2.36868e-14
2.36868e-14
2.36867e-14
2.36863e-14
2.36857e-14
2.3685e-14
2.3684e-14
2.36827e-14
2.3681e-14
2.36791e-14
2.36766e-14
2.36736e-14
2.367e-14
2.36656e-14
2.36604e-14
2.3654e-14
2.36463e-14
2.36371e-14
2.36261e-14
2.3613e-14
2.35974e-14
2.3579e-14
2.35572e-14
2.35317e-14
2.35021e-14
2.34679e-14
2.34287e-14
2.33843e-14
2.33352e-14
2.32825e-14
2.32245e-14
9.61362e-14
9.63884e-14
9.6622e-14
9.68403e-14
9.70374e-14
9.72119e-14
9.73645e-14
9.74966e-14
9.76101e-14
9.7707e-14
9.77893e-14
9.78589e-14
9.79174e-14
9.79665e-14
9.80075e-14
9.80417e-14
9.80702e-14
9.80938e-14
9.81134e-14
9.81295e-14
9.81428e-14
9.81538e-14
9.81627e-14
9.81699e-14
9.81757e-14
9.81802e-14
9.81837e-14
9.81861e-14
9.81878e-14
9.81885e-14
9.81885e-14
9.81878e-14
9.81861e-14
9.81837e-14
9.81802e-14
9.81757e-14
9.81699e-14
9.81627e-14
9.81538e-14
9.81428e-14
9.81295e-14
9.81134e-14
9.80938e-14
9.80702e-14
9.80417e-14
9.80075e-14
9.79665e-14
9.79174e-14
9.78589e-14
9.77893e-14
9.7707e-14
9.76101e-14
9.74966e-14
9.73645e-14
9.72119e-14
9.70374e-14
9.68403e-14
9.6622e-14
9.63884e-14
9.61362e-14
4.0614e-13
4.07256e-13
4.08306e-13
4.09291e-13
4.10181e-13
4.10969e-13
4.11658e-13
4.12255e-13
4.12768e-13
4.13206e-13
4.13578e-13
4.13893e-13
4.14157e-13
4.1438e-13
4.14565e-13
4.1472e-13
4.14849e-13
4.14956e-13
4.15045e-13
4.15118e-13
4.15178e-13
4.15228e-13
4.15268e-13
4.15301e-13
4.15327e-13
4.15348e-13
4.15363e-13
4.15375e-13
4.15382e-13
4.15386e-13
4.15386e-13
4.15382e-13
4.15375e-13
4.15363e-13
4.15348e-13
4.15327e-13
4.15301e-13
4.15268e-13
4.15228e-13
4.15178e-13
4.15118e-13
4.15045e-13
4.14956e-13
4.14849e-13
4.1472e-13
4.14565e-13
4.1438e-13
4.14157e-13
4.13893e-13
4.13578e-13
4.13206e-13
4.12768e-13
4.12255e-13
4.11658e-13
4.10969e-13
4.10181e-13
4.09291e-13
4.08306e-13
4.07256e-13
4.0614e-13
1.74709e-12
1.75211e-12
1.75689e-12
1.76138e-12
1.76545e-12
1.76905e-12
1.7722e-12
1.77493e-12
1.77728e-12
1.77928e-12
1.78099e-12
1.78243e-12
1.78364e-12
1.78466e-12
1.78551e-12
1.78622e-12
1.78681e-12
1.7873e-12
1.78771e-12
1.78804e-12
1.78832e-12
1.78855e-12
1.78873e-12
1.78888e-12
1.789e-12
1.7891e-12
1.78917e-12
1.78922e-12
1.78925e-12
1.78927e-12
1.78927e-12
1.78925e-12
1.78922e-12
1.78917e-12
1.7891e-12
1.789e-12
1.78888e-12
1.78873e-12
1.78855e-12
1.78832e-12
1.78804e-12
1.78771e-12
1.7873e-12
1.78681e-12
1.78622e-12
1.78551e-12
1.78466e-12
1.78364e-12
1.78243e-12
1.78099e-12
1.77928e-12
1.77728e-12
1.77493e-12
1.7722e-12
1.76905e-12
1.76545e-12
1.76138e-12
1.75689e-12
1.75211e-12
1.74709e-12
7.6313e-12
7.6541e-12
7.67611e-12
7.69684e-12
7.7156e-12
7.73222e-12
7.74677e-12
7.75937e-12
7.77021e-12
7.77947e-12
7.78734e-12
7.79399e-12
7.7996e-12
7.8043e-12
7.80823e-12
7.81151e-12
7.81425e-12
7.81652e-12
7.8184e-12
7.81995e-12
7.82123e-12
7.82228e-12
7.82314e-12
7.82384e-12
7.8244e-12
7.82483e-12
7.82517e-12
7.82541e-12
7.82556e-12
7.82564e-12
7.82564e-12
7.82556e-12
7.82541e-12
7.82517e-12
7.82483e-12
7.8244e-12
7.82384e-12
7.82314e-12
7.82228e-12
7.82123e-12
7.81995e-12
7.8184e-12
7.81652e-12
7.81425e-12
7.81151e-12
7.80823e-12
7.8043e-12
7.7996e-12
7.79399e-12
7.78734e-12
7.77947e-12
7.77021e-12
7.75937e-12
7.74677e-12
7.73222e-12
7.7156e-12
7.69684e-12
7.67611e-12
7.6541e-12
7.6313e-12
3.37348e-11
3.38394e-11
3.39414e-11
3.40376e-11
3.41247e-11
3.42019e-11
3.42695e-11
3.4328e-11
3.43784e-11
3.44214e-11
3.4458e-11
3.44889e-11
3.4515e-11
3.45369e-11
3.45552e-11
3.45704e-11
3.45832e-11
3.45937e-11
3.46025e-11
3.46097e-11
3.46157e-11
3.46206e-11
3.46246e-11
3.46278e-11
3.46304e-11
3.46324e-11
3.4634e-11
3.46351e-11
3.46358e-11
3.46362e-11
3.46362e-11
3.46358e-11
3.46351e-11
3.4634e-11
3.46324e-11
3.46304e-11
3.46278e-11
3.46246e-11
3.46206e-11
3.46157e-11
3.46097e-11
3.46025e-11
3.45937e-11
3.45832e-11
3.45704e-11
3.45552e-11
3.45369e-11
3.4515e-11
3.44889e-11
3.4458e-11
3.44214e-11
3.43784e-11
3.4328e-11
3.42695e-11
3.42019e-11
3.41247e-11
3.40376e-11
3.39414e-11
3.38394e-11
3.37348e-11
1.5033e-10
1.50812e-10
1.51286e-10
1.51733e-10
1.52138e-10
1.52498e-10
1.52812e-10
1.53085e-10
1.53319e-10
1.5352e-10
1.5369e-10
1.53834e-10
1.53956e-10
1.54058e-10
1.54143e-10
1.54214e-10
1.54274e-10
1.54323e-10
1.54364e-10
1.54397e-10
1.54425e-10
1.54448e-10
1.54467e-10
1.54482e-10
1.54494e-10
1.54504e-10
1.54511e-10
1.54516e-10
1.54519e-10
1.54521e-10
1.54521e-10
1.54519e-10
1.54516e-10
1.54511e-10
1.54504e-10
1.54494e-10
1.54482e-10
1.54467e-10
1.54448e-10
1.54425e-10
1.54397e-10
1.54364e-10
1.54323e-10
1.54274e-10
1.54214e-10
1.54143e-10
1.54058e-10
1.53956e-10
1.53834e-10
1.5369e-10
1.5352e-10
1.53319e-10
1.53085e-10
1.52812e-10
1.52498e-10
1.52138e-10
1.51733e-10
1.51286e-10
1.50812e-10
1.5033e-10
6.72191e-10
6.74409e-10
6.76608e-10
6.78684e-10
6.80566e-10
6.82235e-10
6.83695e-10
6.84961e-10
6.86051e-10
6.86982e-10
6.87773e-10
6.88443e-10
6.89007e-10
6.89481e-10
6.89878e-10
6.90209e-10
6.90484e-10
6.90713e-10
6.90903e-10
6.9106e-10
6.91189e-10
6.91296e-10
6.91383e-10
6.91453e-10
6.91509e-10
6.91554e-10
6.91587e-10
6.91612e-10
6.91627e-10
6.91635e-10
6.91635e-10
6.91627e-10
6.91612e-10
6.91587e-10
6.91554e-10
6.91509e-10
6.91453e-10
6.91383e-10
6.91296e-10
6.91189e-10
6.9106e-10
6.90903e-10
6.90713e-10
6.90484e-10
6.90209e-10
6.89878e-10
6.89481e-10
6.89007e-10
6.88443e-10
6.87773e-10
6.86982e-10
6.86051e-10
6.84961e-10
6.83695e-10
6.82235e-10
6.80566e-10
6.78684e-10
6.76608e-10
6.74409e-10
6.72191e-10
2.99981e-09
3.00996e-09
3.02007e-09
3.02963e-09
3.0383e-09
3.04598e-09
3.05271e-09
3.05854e-09
3.06356e-09
3.06785e-09
3.0715e-09
3.07458e-09
3.07718e-09
3.07937e-09
3.0812e-09
3.08272e-09
3.08399e-09
3.08505e-09
3.08592e-09
3.08665e-09
3.08724e-09
3.08774e-09
3.08814e-09
3.08846e-09
3.08872e-09
3.08892e-09
3.08908e-09
3.08919e-09
3.08926e-09
3.0893e-09
3.0893e-09
3.08926e-09
3.08919e-09
3.08908e-09
3.08892e-09
3.08872e-09
3.08846e-09
3.08814e-09
3.08774e-09
3.08724e-09
3.08665e-09
3.08592e-09
3.08505e-09
3.08399e-09
3.08272e-09
3.0812e-09
3.07937e-09
3.07718e-09
3.07458e-09
3.0715e-09
3.06785e-09
3.06356e-09
3.05854e-09
3.05271e-09
3.04598e-09
3.0383e-09
3.02963e-09
3.02007e-09
3.00996e-09
2.99981e-09
1.32791e-08
1.3325e-08
1.33709e-08
1.34143e-08
1.34536e-08
1.34884e-08
1.3519e-08
1.35454e-08
1.35682e-08
1.35877e-08
1.36042e-08
1.36183e-08
1.36301e-08
1.364e-08
1.36483e-08
1.36552e-08
1.3661e-08
1.36658e-08
1.36697e-08
1.3673e-08
1.36758e-08
1.3678e-08
1.36798e-08
1.36813e-08
1.36825e-08
1.36834e-08
1.36841e-08
1.36846e-08
1.36849e-08
1.36851e-08
1.36851e-08
1.36849e-08
1.36846e-08
1.36841e-08
1.36834e-08
1.36825e-08
1.36813e-08
1.36798e-08
1.3678e-08
1.36758e-08
1.3673e-08
1.36697e-08
1.36658e-08
1.3661e-08
1.36552e-08
1.36483e-08
1.364e-08
1.36301e-08
1.36183e-08
1.36042e-08
1.35877e-08
1.35682e-08
1.35454e-08
1.3519e-08
1.34884e-08
1.34536e-08
1.34143e-08
1.33709e-08
1.3325e-08
1.32791e-08
5.78985e-08
5.81014e-08
5.83052e-08
5.84978e-08
5.86723e-08
5.8827e-08
5.89625e-08
5.908e-08
5.91811e-08
5.92675e-08
5.9341e-08
5.94032e-08
5.94556e-08
5.94996e-08
5.95364e-08
5.95672e-08
5.95928e-08
5.96141e-08
5.96318e-08
5.96464e-08
5.96585e-08
5.96684e-08
5.96765e-08
5.9683e-08
5.96883e-08
5.96924e-08
5.96955e-08
5.96978e-08
5.96993e-08
5.97e-08
5.97e-08
5.96993e-08
5.96978e-08
5.96955e-08
5.96924e-08
5.96883e-08
5.9683e-08
5.96765e-08
5.96684e-08
5.96585e-08
5.96464e-08
5.96318e-08
5.96141e-08
5.95928e-08
5.95672e-08
5.95364e-08
5.94996e-08
5.94556e-08
5.94032e-08
5.9341e-08
5.92675e-08
5.91811e-08
5.908e-08
5.89625e-08
5.8827e-08
5.86723e-08
5.84978e-08
5.83052e-08
5.81014e-08
5.78985e-08
2.4668e-07
2.47553e-07
2.48431e-07
2.49259e-07
2.5001e-07
2.50676e-07
2.51259e-07
2.51764e-07
2.52199e-07
2.52571e-07
2.52887e-07
2.53155e-07
2.5338e-07
2.5357e-07
2.53728e-07
2.53861e-07
2.53971e-07
2.54063e-07
2.54139e-07
2.54202e-07
2.54254e-07
2.54296e-07
2.54331e-07
2.5436e-07
2.54382e-07
2.544e-07
2.54413e-07
2.54423e-07
2.54429e-07
2.54433e-07
2.54433e-07
2.54429e-07
2.54423e-07
2.54413e-07
2.544e-07
2.54382e-07
2.5436e-07
2.54331e-07
2.54296e-07
2.54254e-07
2.54202e-07
2.54139e-07
2.54063e-07
2.53971e-07
2.53861e-07
2.53728e-07
2.5357e-07
2.5338e-07
2.53155e-07
2.52887e-07
2.52571e-07
2.52199e-07
2.51764e-07
2.51259e-07
2.50676e-07
2.5001e-07
2.49259e-07
2.48431e-07
2.47553e-07
2.4668e-07
1.01787e-06
1.02148e-06
1.02511e-06
1.02854e-06
1.03164e-06
1.03439e-06
1.03679e-06
1.03888e-06
1.04068e-06
1.04221e-06
1.04352e-06
1.04463e-06
1.04556e-06
1.04634e-06
1.047e-06
1.04754e-06
1.048e-06
1.04838e-06
1.04869e-06
1.04895e-06
1.04917e-06
1.04934e-06
1.04949e-06
1.0496e-06
1.0497e-06
1.04977e-06
1.04983e-06
1.04987e-06
1.04989e-06
1.04991e-06
1.04991e-06
1.04989e-06
1.04987e-06
1.04983e-06
1.04977e-06
1.0497e-06
1.0496e-06
1.04949e-06
1.04934e-06
1.04917e-06
1.04895e-06
1.04869e-06
1.04838e-06
1.048e-06
1.04754e-06
1.047e-06
1.04634e-06
1.04556e-06
1.04463e-06
1.04352e-06
1.04221e-06
1.04068e-06
1.03888e-06
1.03679e-06
1.03439e-06
1.03164e-06
1.02854e-06
1.02511e-06
1.02148e-06
1.01787e-06
4.0273e-06
4.04148e-06
4.05575e-06
4.06919e-06
4.08136e-06
4.09214e-06
4.10158e-06
4.10977e-06
4.11681e-06
4.12283e-06
4.12796e-06
4.13229e-06
4.13595e-06
4.13901e-06
4.14158e-06
4.14373e-06
4.14552e-06
4.14701e-06
4.14824e-06
4.14926e-06
4.1501e-06
4.15079e-06
4.15136e-06
4.15182e-06
4.15218e-06
4.15247e-06
4.15269e-06
4.15285e-06
4.15295e-06
4.153e-06
4.153e-06
4.15295e-06
4.15285e-06
4.15269e-06
4.15247e-06
4.15218e-06
4.15182e-06
4.15136e-06
4.15079e-06
4.1501e-06
4.14926e-06
4.14824e-06
4.14701e-06
4.14552e-06
4.14373e-06
4.14158e-06
4.13901e-06
4.13595e-06
4.13229e-06
4.12796e-06
4.12283e-06
4.11681e-06
4.10977e-06
4.10158e-06
4.09214e-06
4.08136e-06
4.06919e-06
4.05575e-06
4.04148e-06
4.0273e-06
1.51106e-05
1.5163e-05
1.52156e-05
1.5265e-05
1.53098e-05
1.53494e-05
1.53841e-05
1.54142e-05
1.54401e-05
1.54622e-05
1.54811e-05
1.5497e-05
1.55104e-05
1.55217e-05
1.55312e-05
1.55391e-05
1.55456e-05
1.55511e-05
1.55556e-05
1.55594e-05
1.55625e-05
1.5565e-05
1.55671e-05
1.55688e-05
1.55701e-05
1.55712e-05
1.5572e-05
1.55726e-05
1.5573e-05
1.55732e-05
1.55732e-05
1.5573e-05
1.55726e-05
1.5572e-05
1.55712e-05
1.55701e-05
1.55688e-05
1.55671e-05
1.5565e-05
1.55625e-05
1.55594e-05
1.55556e-05
1.55511e-05
1.55456e-05
1.55391e-05
1.55312e-05
1.55217e-05
1.55104e-05
1.5497e-05
1.54811e-05
1.54622e-05
1.54401e-05
1.54142e-05
1.53841e-05
1.53494e-05
1.53098e-05
1.5265e-05
1.52156e-05
1.5163e-05
1.51106e-05
5.31082e-05
5.32874e-05
5.34666e-05
5.36349e-05
5.3787e-05
5.39217e-05
5.40396e-05
5.41418e-05
5.42297e-05
5.43049e-05
5.43689e-05
5.4423e-05
5.44686e-05
5.45069e-05
5.4539e-05
5.45658e-05
5.45882e-05
5.46068e-05
5.46222e-05
5.46349e-05
5.46454e-05
5.46541e-05
5.46612e-05
5.46669e-05
5.46715e-05
5.46751e-05
5.46778e-05
5.46798e-05
5.46811e-05
5.46817e-05
5.46817e-05
5.46811e-05
5.46798e-05
5.46778e-05
5.46751e-05
5.46715e-05
5.46669e-05
5.46612e-05
5.46541e-05
5.46454e-05
5.46349e-05
5.46222e-05
5.46068e-05
5.45882e-05
5.45658e-05
5.4539e-05
5.45069e-05
5.44686e-05
5.4423e-05
5.43689e-05
5.43049e-05
5.42297e-05
5.41418e-05
5.40396e-05
5.39217e-05
5.3787e-05
5.36349e-05
5.34666e-05
5.32874e-05
5.31082e-05
0.000172497
0.000173055
0.000173611
0.000174131
0.000174601
0.000175018
0.000175382
0.000175697
0.000175969
0.000176201
0.000176398
0.000176566
0.000176706
0.000176825
0.000176924
0.000177007
0.000177076
0.000177133
0.000177181
0.00017722
0.000177253
0.000177279
0.000177301
0.000177319
0.000177333
0.000177344
0.000177353
0.000177359
0.000177363
0.000177365
0.000177365
0.000177363
0.000177359
0.000177353
0.000177344
0.000177333
0.000177319
0.000177301
0.000177279
0.000177253
0.00017722
0.000177181
0.000177133
0.000177076
0.000177007
0.000176924
0.000176825
0.000176706
0.000176566
0.000176398
0.000176201
0.000175969
0.000175697
0.000175382
0.000175018
0.000174601
0.000174131
0.000173611
0.000173055
0.000172497
0.000510269
0.000511822
0.000513361
0.000514798
0.000516094
0.000517242
0.000518246
0.000519116
0.000519864
0.000520504
0.000521048
0.000521509
0.000521897
0.000522223
0.000522496
0.000522724
0.000522915
0.000523073
0.000523204
0.000523313
0.000523402
0.000523476
0.000523536
0.000523585
0.000523624
0.000523655
0.000523678
0.000523695
0.000523706
0.000523711
0.000523711
0.000523706
0.000523695
0.000523678
0.000523655
0.000523624
0.000523585
0.000523536
0.000523476
0.000523402
0.000523313
0.000523204
0.000523073
0.000522915
0.000522724
0.000522496
0.000522223
0.000521897
0.000521509
0.000521048
0.000520504
0.000519864
0.000519116
0.000518246
0.000517242
0.000516094
0.000514798
0.000513361
0.000511822
0.000510269
0.00135428
0.00135808
0.00136181
0.00136529
0.00136842
0.00137119
0.00137361
0.00137571
0.00137752
0.00137906
0.00138037
0.00138148
0.00138242
0.00138321
0.00138387
0.00138442
0.00138488
0.00138526
0.00138558
0.00138584
0.00138605
0.00138623
0.00138638
0.0013865
0.00138659
0.00138666
0.00138672
0.00138676
0.00138679
0.0013868
0.0013868
0.00138679
0.00138676
0.00138672
0.00138666
0.00138659
0.0013865
0.00138638
0.00138623
0.00138605
0.00138584
0.00138558
0.00138526
0.00138488
0.00138442
0.00138387
0.00138321
0.00138242
0.00138148
0.00138037
0.00137906
0.00137752
0.00137571
0.00137361
0.00137119
0.00136842
0.00136529
0.00136181
0.00135808
0.00135428
0.00318165
0.00318964
0.00319743
0.00320466
0.00321117
0.00321693
0.00322196
0.00322632
0.00323007
0.00323327
0.003236
0.0032383
0.00324025
0.00324188
0.00324325
0.00324439
0.00324535
0.00324614
0.0032468
0.00324734
0.00324779
0.00324816
0.00324846
0.00324871
0.00324891
0.00324906
0.00324918
0.00324926
0.00324932
0.00324934
0.00324934
0.00324932
0.00324926
0.00324918
0.00324906
0.00324891
0.00324871
0.00324846
0.00324816
0.00324779
0.00324734
0.0032468
0.00324614
0.00324535
0.00324439
0.00324325
0.00324188
0.00324025
0.0032383
0.003236
0.00323327
0.00323007
0.00322632
0.00322196
0.00321693
0.00321117
0.00320466
0.00319743
0.00318964
0.00318165
0.00655831
0.00657266
0.00658652
0.00659934
0.00661086
0.00662105
0.00662994
0.00663765
0.00664428
0.00664994
0.00665476
0.00665884
0.00666228
0.00666517
0.00666759
0.00666961
0.0066713
0.0066727
0.00667386
0.00667483
0.00667562
0.00667628
0.00667681
0.00667725
0.0066776
0.00667787
0.00667808
0.00667823
0.00667833
0.00667837
0.00667837
0.00667833
0.00667823
0.00667808
0.00667787
0.0066776
0.00667725
0.00667681
0.00667628
0.00667562
0.00667483
0.00667386
0.0066727
0.0066713
0.00666961
0.00666759
0.00666517
0.00666228
0.00665884
0.00665476
0.00664994
0.00664428
0.00663765
0.00662994
0.00662105
0.00661086
0.00659934
0.00658652
0.00657266
0.00655831
0.0118561
0.0118782
0.0118992
0.0119187
0.0119361
0.0119515
0.0119649
0.0119766
0.0119866
0.0119951
0.0120024
0.0120086
0.0120138
0.0120181
0.0120218
0.0120249
0.0120274
0.0120295
0.0120313
0.0120328
0.012034
0.012035
0.0120358
0.0120364
0.0120369
0.0120374
0.0120377
0.0120379
0.0120381
0.0120381
0.0120381
0.0120381
0.0120379
0.0120377
0.0120374
0.0120369
0.0120364
0.0120358
0.012035
0.012034
0.0120328
0.0120313
0.0120295
0.0120274
0.0120249
0.0120218
0.0120181
0.0120138
0.0120086
0.0120024
0.0119951
0.0119866
0.0119766
0.0119649
0.0119515
0.0119361
0.0119187
0.0118992
0.0118782
0.0118561
0.0189865
0.0190161
0.0190441
0.0190697
0.0190927
0.019113
0.0191307
0.0191461
0.0191593
0.0191706
0.0191802
0.0191883
0.0191952
0.0192009
0.0192058
0.0192098
0.0192132
0.019216
0.0192183
0.0192202
0.0192218
0.0192231
0.0192242
0.0192251
0.0192258
0.0192263
0.0192267
0.019227
0.0192272
0.0192273
0.0192273
0.0192272
0.019227
0.0192267
0.0192263
0.0192258
0.0192251
0.0192242
0.0192231
0.0192218
0.0192202
0.0192183
0.019216
0.0192132
0.0192098
0.0192058
0.0192009
0.0191952
0.0191883
0.0191802
0.0191706
0.0191593
0.0191461
0.0191307
0.019113
0.0190927
0.0190697
0.0190441
0.0190161
0.0189865
0.0274446
0.0274806
0.0275141
0.0275448
0.0275722
0.0275964
0.0276175
0.0276358
0.0276515
0.027665
0.0276764
0.0276861
0.0276943
0.0277012
0.0277069
0.0277118
0.0277158
0.0277191
0.0277219
0.0277242
0.0277262
0.0277277
0.027729
0.02773
0.0277309
0.0277315
0.027732
0.0277324
0.0277326
0.0277328
0.0277328
0.0277326
0.0277324
0.027732
0.0277315
0.0277309
0.02773
0.027729
0.0277277
0.0277262
0.0277242
0.0277219
0.0277191
0.0277158
0.0277118
0.0277069
0.0277012
0.0276943
0.0276861
0.0276764
0.027665
0.0276515
0.0276358
0.0276175
0.0275964
0.0275722
0.0275448
0.0275141
0.0274806
0.0274446
0.0366319
0.0366729
0.0367107
0.0367451
0.0367758
0.0368029
0.0368265
0.036847
0.0368646
0.0368797
0.0368925
0.0369034
0.0369126
0.0369203
0.0369268
0.0369322
0.0369367
0.0369405
0.0369437
0.0369463
0.0369484
0.0369502
0.0369516
0.0369528
0.0369537
0.0369545
0.0369551
0.0369555
0.0369557
0.0369559
0.0369559
0.0369557
0.0369555
0.0369551
0.0369545
0.0369537
0.0369528
0.0369516
0.0369502
0.0369484
0.0369463
0.0369437
0.0369405
0.0369367
0.0369322
0.0369268