/*--------------------------------*- C++ -*----------------------------------*\
| =========                 |                                                 |
| \\      /  F ield         | foam-extend: Open Source CFD                    |
|  \\    /   O peration     | Version:     4.0                                |
|   \\  /    A nd           | Web:         http://www.foam-extend.org         |
|    \\/     M anipulation  |                                                 |
\*---------------------------------------------------------------------------*/
FoamFile
{
    version     2.0;
    format      ascii;
    class       volScalarField;
    location    "1400";
    object      cPlus;
}
// * * * * * * * * * * * * * * * * * * * * * * * * * * * * * * * * * * * * * //

dimensions      [0 0 0 0 0 0 0];

internalField   nonuniform List<scalar> 
6960
(
0.311632
0.311615
0.311594
0.311574
0.311556
0.31154
0.311526
0.311514
0.311503
0.311494
0.311487
0.31148
0.311475
0.31147
0.311466
0.311463
0.31146
0.311458
0.311456
0.311455
0.311453
0.311452
0.311451
0.311451
0.31145
0.31145
0.311449
0.311449
0.311449
0.311449
0.311449
0.311449
0.311449
0.311449
0.31145
0.31145
0.311451
0.311451
0.311452
0.311453
0.311455
0.311456
0.311458
0.31146
0.311463
0.311466
0.31147
0.311475
0.31148
0.311487
0.311494
0.311503
0.311514
0.311526
0.31154
0.311556
0.311574
0.311594
0.311615
0.311632
0.0974657
0.0974543
0.0974406
0.0974273
0.0974152
0.0974044
0.0973949
0.0973867
0.0973797
0.0973737
0.0973686
0.0973642
0.0973606
0.0973575
0.0973549
0.0973527
0.0973509
0.0973494
0.0973482
0.0973472
0.0973463
0.0973456
0.097345
0.0973446
0.0973442
0.0973439
0.0973437
0.0973435
0.0973434
0.0973434
0.0973434
0.0973434
0.0973435
0.0973437
0.0973439
0.0973442
0.0973446
0.097345
0.0973456
0.0973463
0.0973472
0.0973482
0.0973494
0.0973509
0.0973527
0.0973549
0.0973575
0.0973606
0.0973642
0.0973686
0.0973737
0.0973797
0.0973867
0.0973949
0.0974044
0.0974152
0.0974273
0.0974406
0.0974543
0.0974657
0.0367518
0.0367462
0.0367394
0.0367326
0.0367264
0.0367209
0.0367161
0.0367119
0.0367083
0.0367052
0.0367026
0.0367003
0.0366985
0.0366969
0.0366956
0.0366945
0.0366935
0.0366928
0.0366921
0.0366916
0.0366912
0.0366908
0.0366905
0.0366903
0.0366901
0.0366899
0.0366898
0.0366897
0.0366897
0.0366897
0.0366897
0.0366897
0.0366897
0.0366898
0.0366899
0.0366901
0.0366903
0.0366905
0.0366908
0.0366912
0.0366916
0.0366921
0.0366928
0.0366935
0.0366945
0.0366956
0.0366969
0.0366985
0.0367003
0.0367026
0.0367052
0.0367083
0.0367119
0.0367161
0.0367209
0.0367264
0.0367326
0.0367394
0.0367462
0.0367518
0.016779
0.0167772
0.0167747
0.0167721
0.0167698
0.0167676
0.0167658
0.0167642
0.0167628
0.0167616
0.0167606
0.0167597
0.016759
0.0167584
0.0167579
0.0167574
0.0167571
0.0167568
0.0167565
0.0167563
0.0167562
0.016756
0.0167559
0.0167558
0.0167557
0.0167557
0.0167556
0.0167556
0.0167556
0.0167556
0.0167556
0.0167556
0.0167556
0.0167556
0.0167557
0.0167557
0.0167558
0.0167559
0.016756
0.0167562
0.0167563
0.0167565
0.0167568
0.0167571
0.0167574
0.0167579
0.0167584
0.016759
0.0167597
0.0167606
0.0167616
0.0167628
0.0167642
0.0167658
0.0167676
0.0167698
0.0167721
0.0167747
0.0167772
0.016779
0.01
0.0100003
0.0100001
0.00999977
0.00999947
0.00999919
0.00999894
0.00999871
0.00999852
0.00999835
0.0099982
0.00999808
0.00999797
0.00999788
0.0099978
0.00999774
0.00999768
0.00999763
0.0099976
0.00999756
0.00999754
0.00999751
0.00999749
0.00999748
0.00999747
0.00999746
0.00999745
0.00999745
0.00999744
0.00999744
0.00999744
0.00999744
0.00999745
0.00999745
0.00999746
0.00999747
0.00999748
0.00999749
0.00999751
0.00999754
0.00999756
0.0099976
0.00999763
0.00999768
0.00999774
0.0099978
0.00999788
0.00999797
0.00999808
0.0099982
0.00999835
0.00999852
0.00999871
0.00999894
0.00999919
0.00999947
0.00999977
0.0100001
0.0100003
0.01
0.00773651
0.00773774
0.00773867
0.00773946
0.00774014
0.00774074
0.00774125
0.00774169
0.00774207
0.00774239
0.00774266
0.00774288
0.00774307
0.00774323
0.00774336
0.00774347
0.00774356
0.00774364
0.0077437
0.00774375
0.00774379
0.00774383
0.00774385
0.00774388
0.00774389
0.00774391
0.00774392
0.00774393
0.00774393
0.00774393
0.00774393
0.00774393
0.00774393
0.00774392
0.00774391
0.00774389
0.00774388
0.00774385
0.00774383
0.00774379
0.00774375
0.0077437
0.00774364
0.00774356
0.00774347
0.00774336
0.00774323
0.00774307
0.00774288
0.00774266
0.00774239
0.00774207
0.00774169
0.00774125
0.00774074
0.00774014
0.00773946
0.00773867
0.00773774
0.00773651
0.0070232
0.00702486
0.00702629
0.00702756
0.00702868
0.00702967
0.00703052
0.00703126
0.00703189
0.00703243
0.00703288
0.00703326
0.00703358
0.00703385
0.00703408
0.00703426
0.00703442
0.00703455
0.00703465
0.00703474
0.00703481
0.00703487
0.00703492
0.00703496
0.00703499
0.00703502
0.00703504
0.00703505
0.00703506
0.00703506
0.00703506
0.00703506
0.00703505
0.00703504
0.00703502
0.00703499
0.00703496
0.00703492
0.00703487
0.00703481
0.00703474
0.00703465
0.00703455
0.00703442
0.00703426
0.00703408
0.00703385
0.00703358
0.00703326
0.00703288
0.00703243
0.00703189
0.00703126
0.00703052
0.00702967
0.00702868
0.00702756
0.00702629
0.00702486
0.0070232
0.00683446
0.00683631
0.00683796
0.00683944
0.00684075
0.0068419
0.0068429
0.00684377
0.00684451
0.00684514
0.00684567
0.00684612
0.0068465
0.00684682
0.00684708
0.0068473
0.00684748
0.00684764
0.00684776
0.00684787
0.00684795
0.00684802
0.00684808
0.00684813
0.00684816
0.00684819
0.00684821
0.00684823
0.00684824
0.00684825
0.00684825
0.00684824
0.00684823
0.00684821
0.00684819
0.00684816
0.00684813
0.00684808
0.00684802
0.00684795
0.00684787
0.00684776
0.00684764
0.00684748
0.0068473
0.00684708
0.00684682
0.0068465
0.00684612
0.00684567
0.00684514
0.00684451
0.00684377
0.0068429
0.0068419
0.00684075
0.00683944
0.00683796
0.00683631
0.00683446
0.00682075
0.0068227
0.00682444
0.00682602
0.00682742
0.00682864
0.00682971
0.00683063
0.00683142
0.0068321
0.00683267
0.00683315
0.00683355
0.00683389
0.00683417
0.00683441
0.0068346
0.00683477
0.0068349
0.00683501
0.0068351
0.00683518
0.00683524
0.00683529
0.00683533
0.00683536
0.00683539
0.0068354
0.00683541
0.00683542
0.00683542
0.00683541
0.0068354
0.00683539
0.00683536
0.00683533
0.00683529
0.00683524
0.00683518
0.0068351
0.00683501
0.0068349
0.00683477
0.0068346
0.00683441
0.00683417
0.00683389
0.00683355
0.00683315
0.00683267
0.0068321
0.00683142
0.00683063
0.00682971
0.00682864
0.00682742
0.00682602
0.00682444
0.0068227
0.00682075
0.00686597
0.00686797
0.00686977
0.0068714
0.00687284
0.00687411
0.00687522
0.00687617
0.00687699
0.00687768
0.00687827
0.00687877
0.00687919
0.00687954
0.00687983
0.00688007
0.00688028
0.00688044
0.00688058
0.0068807
0.00688079
0.00688087
0.00688094
0.00688099
0.00688103
0.00688106
0.00688109
0.0068811
0.00688112
0.00688112
0.00688112
0.00688112
0.0068811
0.00688109
0.00688106
0.00688103
0.00688099
0.00688094
0.00688087
0.00688079
0.0068807
0.00688058
0.00688044
0.00688028
0.00688007
0.00687983
0.00687954
0.00687919
0.00687877
0.00687827
0.00687768
0.00687699
0.00687617
0.00687522
0.00687411
0.00687284
0.0068714
0.00686977
0.00686797
0.00686597
0.00693279
0.00693484
0.00693668
0.00693835
0.00693982
0.00694112
0.00694225
0.00694323
0.00694407
0.00694478
0.00694538
0.00694589
0.00694632
0.00694668
0.00694698
0.00694723
0.00694744
0.00694761
0.00694775
0.00694787
0.00694797
0.00694805
0.00694811
0.00694817
0.00694821
0.00694824
0.00694827
0.00694828
0.0069483
0.0069483
0.0069483
0.0069483
0.00694828
0.00694827
0.00694824
0.00694821
0.00694817
0.00694811
0.00694805
0.00694797
0.00694787
0.00694775
0.00694761
0.00694744
0.00694723
0.00694698
0.00694668
0.00694632
0.00694589
0.00694538
0.00694478
0.00694407
0.00694323
0.00694225
0.00694112
0.00693982
0.00693835
0.00693668
0.00693484
0.00693279
0.00700981
0.00701191
0.00701378
0.00701548
0.00701699
0.00701831
0.00701947
0.00702046
0.00702132
0.00702204
0.00702266
0.00702318
0.00702362
0.00702399
0.00702429
0.00702455
0.00702476
0.00702494
0.00702508
0.0070252
0.0070253
0.00702539
0.00702545
0.00702551
0.00702555
0.00702558
0.00702561
0.00702563
0.00702564
0.00702565
0.00702565
0.00702564
0.00702563
0.00702561
0.00702558
0.00702555
0.00702551
0.00702545
0.00702539
0.0070253
0.0070252
0.00702508
0.00702494
0.00702476
0.00702455
0.00702429
0.00702399
0.00702362
0.00702318
0.00702266
0.00702204
0.00702132
0.00702046
0.00701947
0.00701831
0.00701699
0.00701548
0.00701378
0.00701191
0.00700981
0.0070939
0.00709604
0.00709795
0.00709968
0.00710122
0.00710257
0.00710375
0.00710477
0.00710564
0.00710638
0.00710701
0.00710754
0.00710799
0.00710836
0.00710868
0.00710894
0.00710916
0.00710934
0.00710949
0.00710961
0.00710971
0.00710979
0.00710986
0.00710992
0.00710996
0.00711
0.00711002
0.00711004
0.00711005
0.00711006
0.00711006
0.00711005
0.00711004
0.00711002
0.00711
0.00710996
0.00710992
0.00710986
0.00710979
0.00710971
0.00710961
0.00710949
0.00710934
0.00710916
0.00710894
0.00710868
0.00710836
0.00710799
0.00710754
0.00710701
0.00710638
0.00710564
0.00710477
0.00710375
0.00710257
0.00710122
0.00709968
0.00709795
0.00709604
0.0070939
0.00718453
0.00718672
0.00718867
0.00719044
0.00719201
0.00719339
0.0071946
0.00719563
0.00719652
0.00719728
0.00719793
0.00719847
0.00719893
0.00719931
0.00719963
0.0071999
0.00720012
0.0072003
0.00720046
0.00720058
0.00720069
0.00720077
0.00720084
0.0072009
0.00720094
0.00720098
0.00720101
0.00720103
0.00720104
0.00720104
0.00720104
0.00720104
0.00720103
0.00720101
0.00720098
0.00720094
0.0072009
0.00720084
0.00720077
0.00720069
0.00720058
0.00720046
0.0072003
0.00720012
0.0071999
0.00719963
0.00719931
0.00719893
0.00719847
0.00719793
0.00719728
0.00719652
0.00719563
0.0071946
0.00719339
0.00719201
0.00719044
0.00718867
0.00718672
0.00718453
0.00728203
0.00728427
0.00728627
0.00728808
0.00728969
0.0072911
0.00729233
0.00729339
0.0072943
0.00729508
0.00729573
0.00729629
0.00729676
0.00729715
0.00729748
0.00729775
0.00729798
0.00729817
0.00729832
0.00729845
0.00729856
0.00729865
0.00729872
0.00729878
0.00729882
0.00729886
0.00729889
0.00729891
0.00729892
0.00729893
0.00729893
0.00729892
0.00729891
0.00729889
0.00729886
0.00729882
0.00729878
0.00729872
0.00729865
0.00729856
0.00729845
0.00729832
0.00729817
0.00729798
0.00729775
0.00729748
0.00729715
0.00729676
0.00729629
0.00729573
0.00729508
0.0072943
0.00729339
0.00729233
0.0072911
0.00728969
0.00728808
0.00728627
0.00728427
0.00728203
0.00738704
0.00738934
0.00739139
0.00739324
0.00739488
0.00739633
0.00739759
0.00739868
0.00739961
0.0074004
0.00740108
0.00740165
0.00740213
0.00740253
0.00740287
0.00740315
0.00740338
0.00740357
0.00740373
0.00740387
0.00740398
0.00740407
0.00740414
0.0074042
0.00740425
0.00740428
0.00740431
0.00740433
0.00740435
0.00740435
0.00740435
0.00740435
0.00740433
0.00740431
0.00740428
0.00740425
0.0074042
0.00740414
0.00740407
0.00740398
0.00740387
0.00740373
0.00740357
0.00740338
0.00740315
0.00740287
0.00740253
0.00740213
0.00740165
0.00740108
0.0074004
0.00739961
0.00739868
0.00739759
0.00739633
0.00739488
0.00739324
0.00739139
0.00738934
0.00738704
0.00750037
0.00750273
0.00750483
0.00750673
0.00750842
0.0075099
0.00751119
0.00751231
0.00751327
0.00751408
0.00751478
0.00751536
0.00751585
0.00751626
0.00751661
0.0075169
0.00751714
0.00751734
0.0075175
0.00751764
0.00751775
0.00751784
0.00751792
0.00751798
0.00751803
0.00751807
0.0075181
0.00751812
0.00751813
0.00751814
0.00751814
0.00751813
0.00751812
0.0075181
0.00751807
0.00751803
0.00751798
0.00751792
0.00751784
0.00751775
0.00751764
0.0075175
0.00751734
0.00751714
0.0075169
0.00751661
0.00751626
0.00751585
0.00751536
0.00751478
0.00751408
0.00751327
0.00751231
0.00751119
0.0075099
0.00750842
0.00750673
0.00750483
0.00750273
0.00750037
0.00762298
0.00762541
0.00762757
0.00762952
0.00763126
0.00763278
0.00763411
0.00763526
0.00763624
0.00763708
0.00763779
0.00763839
0.0076389
0.00763932
0.00763968
0.00763998
0.00764022
0.00764043
0.0076406
0.00764074
0.00764085
0.00764095
0.00764103
0.00764109
0.00764114
0.00764118
0.00764121
0.00764123
0.00764124
0.00764125
0.00764125
0.00764124
0.00764123
0.00764121
0.00764118
0.00764114
0.00764109
0.00764103
0.00764095
0.00764085
0.00764074
0.0076406
0.00764043
0.00764022
0.00763998
0.00763968
0.00763932
0.0076389
0.00763839
0.00763779
0.00763708
0.00763624
0.00763526
0.00763411
0.00763278
0.00763126
0.00762952
0.00762757
0.00762541
0.00762298
0.00775601
0.00775852
0.00776074
0.00776275
0.00776454
0.00776611
0.00776748
0.00776866
0.00776967
0.00777053
0.00777127
0.00777189
0.00777241
0.00777285
0.00777321
0.00777352
0.00777377
0.00777398
0.00777416
0.0077743
0.00777442
0.00777452
0.0077746
0.00777467
0.00777472
0.00777476
0.00777479
0.00777481
0.00777483
0.00777483
0.00777483
0.00777483
0.00777481
0.00777479
0.00777476
0.00777472
0.00777467
0.0077746
0.00777452
0.00777442
0.0077743
0.00777416
0.00777398
0.00777377
0.00777352
0.00777321
0.00777285
0.00777241
0.00777189
0.00777127
0.00777053
0.00776967
0.00776866
0.00776748
0.00776611
0.00776454
0.00776275
0.00776074
0.00775852
0.00775601
0.0079008
0.00790338
0.00790568
0.00790775
0.00790959
0.00791121
0.00791263
0.00791385
0.00791489
0.00791579
0.00791654
0.00791718
0.00791772
0.00791817
0.00791855
0.00791887
0.00791913
0.00791935
0.00791953
0.00791968
0.0079198
0.0079199
0.00791999
0.00792005
0.00792011
0.00792015
0.00792018
0.0079202
0.00792022
0.00792023
0.00792023
0.00792022
0.0079202
0.00792018
0.00792015
0.00792011
0.00792005
0.00791999
0.0079199
0.0079198
0.00791968
0.00791953
0.00791935
0.00791913
0.00791887
0.00791855
0.00791817
0.00791772
0.00791718
0.00791654
0.00791579
0.00791489
0.00791385
0.00791263
0.00791121
0.00790959
0.00790775
0.00790568
0.00790338
0.0079008
0.00805891
0.00806158
0.00806396
0.00806611
0.00806801
0.00806969
0.00807115
0.00807242
0.0080735
0.00807442
0.00807521
0.00807587
0.00807643
0.00807689
0.00807729
0.00807761
0.00807788
0.00807811
0.0080783
0.00807845
0.00807858
0.00807869
0.00807877
0.00807884
0.0080789
0.00807894
0.00807898
0.008079
0.00807901
0.00807902
0.00807902
0.00807901
0.008079
0.00807898
0.00807894
0.0080789
0.00807884
0.00807877
0.00807869
0.00807858
0.00807845
0.0080783
0.00807811
0.00807788
0.00807761
0.00807729
0.00807689
0.00807643
0.00807587
0.00807521
0.00807442
0.0080735
0.00807242
0.00807115
0.00806969
0.00806801
0.00806611
0.00806396
0.00806158
0.00805891
0.00823224
0.00823502
0.00823749
0.00823971
0.00824169
0.00824343
0.00824495
0.00824626
0.00824738
0.00824834
0.00824916
0.00824985
0.00825043
0.00825091
0.00825132
0.00825166
0.00825194
0.00825218
0.00825237
0.00825253
0.00825266
0.00825277
0.00825286
0.00825294
0.00825299
0.00825304
0.00825307
0.0082531
0.00825311
0.00825312
0.00825312
0.00825311
0.0082531
0.00825307
0.00825304
0.00825299
0.00825294
0.00825286
0.00825277
0.00825266
0.00825253
0.00825237
0.00825218
0.00825194
0.00825166
0.00825132
0.00825091
0.00825043
0.00824985
0.00824916
0.00824834
0.00824738
0.00824626
0.00824495
0.00824343
0.00824169
0.00823971
0.00823749
0.00823502
0.00823224
0.00842307
0.00842597
0.00842854
0.00843086
0.00843292
0.00843473
0.00843631
0.00843767
0.00843884
0.00843984
0.00844069
0.00844141
0.00844201
0.00844252
0.00844294
0.00844329
0.00844359
0.00844383
0.00844404
0.00844421
0.00844434
0.00844446
0.00844455
0.00844463
0.00844469
0.00844474
0.00844477
0.0084448
0.00844481
0.00844482
0.00844482
0.00844481
0.0084448
0.00844477
0.00844474
0.00844469
0.00844463
0.00844455
0.00844446
0.00844434
0.00844421
0.00844404
0.00844383
0.00844359
0.00844329
0.00844294
0.00844252
0.00844201
0.00844141
0.00844069
0.00843984
0.00843884
0.00843767
0.00843631
0.00843473
0.00843292
0.00843086
0.00842854
0.00842597
0.00842307
0.00863418
0.00863721
0.0086399
0.00864232
0.00864447
0.00864637
0.00864802
0.00864944
0.00865067
0.00865171
0.0086526
0.00865335
0.00865398
0.00865451
0.00865495
0.00865532
0.00865563
0.00865588
0.0086561
0.00865627
0.00865642
0.00865654
0.00865663
0.00865671
0.00865678
0.00865683
0.00865686
0.00865689
0.00865691
0.00865692
0.00865692
0.00865691
0.00865689
0.00865686
0.00865683
0.00865678
0.00865671
0.00865663
0.00865654
0.00865642
0.00865627
0.0086561
0.00865588
0.00865563
0.00865532
0.00865495
0.00865451
0.00865398
0.00865335
0.0086526
0.00865171
0.00865067
0.00864944
0.00864802
0.00864637
0.00864447
0.00864232
0.0086399
0.00863721
0.00863418
0.00886899
0.00887217
0.00887499
0.00887753
0.00887979
0.00888177
0.00888351
0.008885
0.00888629
0.00888738
0.00888831
0.0088891
0.00888976
0.00889032
0.00889078
0.00889117
0.0088915
0.00889177
0.00889199
0.00889217
0.00889233
0.00889245
0.00889255
0.00889264
0.0088927
0.00889276
0.0088928
0.00889282
0.00889284
0.00889285
0.00889285
0.00889284
0.00889282
0.0088928
0.00889276
0.0088927
0.00889264
0.00889255
0.00889245
0.00889233
0.00889217
0.00889199
0.00889177
0.0088915
0.00889117
0.00889078
0.00889032
0.00888976
0.0088891
0.00888831
0.00888738
0.00888629
0.008885
0.00888351
0.00888177
0.00887979
0.00887753
0.00887499
0.00887217
0.00886899
0.00913175
0.00913511
0.00913808
0.00914075
0.00914314
0.00914523
0.00914706
0.00914864
0.00914999
0.00915115
0.00915213
0.00915296
0.00915366
0.00915424
0.00915474
0.00915515
0.00915549
0.00915577
0.00915601
0.0091562
0.00915636
0.0091565
0.00915661
0.00915669
0.00915676
0.00915682
0.00915686
0.00915689
0.00915691
0.00915692
0.00915692
0.00915691
0.00915689
0.00915686
0.00915682
0.00915676
0.00915669
0.00915661
0.0091565
0.00915636
0.0091562
0.00915601
0.00915577
0.00915549
0.00915515
0.00915474
0.00915424
0.00915366
0.00915296
0.00915213
0.00915115
0.00914999
0.00914864
0.00914706
0.00914523
0.00914314
0.00914075
0.00913808
0.00913511
0.00913175
0.00942785
0.00943141
0.00943456
0.0094374
0.00943993
0.00944215
0.00944409
0.00944576
0.0094472
0.00944842
0.00944946
0.00945034
0.00945109
0.00945171
0.00945223
0.00945267
0.00945303
0.00945333
0.00945358
0.00945379
0.00945396
0.0094541
0.00945422
0.00945431
0.00945438
0.00945444
0.00945449
0.00945452
0.00945454
0.00945455
0.00945455
0.00945454
0.00945452
0.00945449
0.00945444
0.00945438
0.00945431
0.00945422
0.0094541
0.00945396
0.00945379
0.00945358
0.00945333
0.00945303
0.00945267
0.00945223
0.00945171
0.00945109
0.00945034
0.00944946
0.00944842
0.0094472
0.00944576
0.00944409
0.00944215
0.00943993
0.0094374
0.00943456
0.00943141
0.00942785
0.0097642
0.009768
0.00977137
0.0097744
0.00977709
0.00977947
0.00978153
0.00978332
0.00978486
0.00978617
0.00978728
0.00978822
0.00978901
0.00978968
0.00979023
0.0097907
0.00979109
0.00979141
0.00979168
0.0097919
0.00979208
0.00979223
0.00979236
0.00979246
0.00979253
0.0097926
0.00979265
0.00979268
0.0097927
0.00979271
0.00979271
0.0097927
0.00979268
0.00979265
0.0097926
0.00979253
0.00979246
0.00979236
0.00979223
0.00979208
0.0097919
0.00979168
0.00979141
0.00979109
0.0097907
0.00979023
0.00978968
0.00978901
0.00978822
0.00978728
0.00978617
0.00978486
0.00978332
0.00978153
0.00977947
0.00977709
0.0097744
0.00977137
0.009768
0.0097642
0.0101498
0.0101539
0.0101575
0.0101608
0.0101637
0.0101663
0.0101685
0.0101704
0.0101721
0.0101735
0.0101747
0.0101757
0.0101765
0.0101772
0.0101778
0.0101784
0.0101788
0.0101791
0.0101794
0.0101796
0.0101798
0.01018
0.0101801
0.0101802
0.0101803
0.0101804
0.0101804
0.0101805
0.0101805
0.0101805
0.0101805
0.0101805
0.0101805
0.0101804
0.0101804
0.0101803
0.0101802
0.0101801
0.01018
0.0101798
0.0101796
0.0101794
0.0101791
0.0101788
0.0101784
0.0101778
0.0101772
0.0101765
0.0101757
0.0101747
0.0101735
0.0101721
0.0101704
0.0101685
0.0101663
0.0101637
0.0101608
0.0101575
0.0101539
0.0101498
0.0105968
0.0106012
0.0106052
0.0106087
0.0106118
0.0106146
0.010617
0.0106191
0.0106209
0.0106225
0.0106238
0.0106249
0.0106258
0.0106266
0.0106272
0.0106278
0.0106282
0.0106286
0.0106289
0.0106292
0.0106294
0.0106296
0.0106297
0.0106298
0.0106299
0.01063
0.01063
0.0106301
0.0106301
0.0106301
0.0106301
0.0106301
0.0106301
0.01063
0.01063
0.0106299
0.0106298
0.0106297
0.0106296
0.0106294
0.0106292
0.0106289
0.0106286
0.0106282
0.0106278
0.0106272
0.0106266
0.0106258
0.0106249
0.0106238
0.0106225
0.0106209
0.0106191
0.010617
0.0106146
0.0106118
0.0106087
0.0106052
0.0106012
0.0105968
0.0111215
0.0111263
0.0111306
0.0111345
0.011138
0.011141
0.0111437
0.011146
0.011148
0.0111497
0.0111511
0.0111523
0.0111533
0.0111542
0.0111549
0.0111555
0.011156
0.0111564
0.0111568
0.011157
0.0111573
0.0111575
0.0111576
0.0111578
0.0111579
0.0111579
0.011158
0.011158
0.0111581
0.0111581
0.0111581
0.0111581
0.011158
0.011158
0.0111579
0.0111579
0.0111578
0.0111576
0.0111575
0.0111573
0.011157
0.0111568
0.0111564
0.011156
0.0111555
0.0111549
0.0111542
0.0111533
0.0111523
0.0111511
0.0111497
0.011148
0.011146
0.0111437
0.011141
0.011138
0.0111345
0.0111306
0.0111263
0.0111215
0.0117468
0.0117522
0.011757
0.0117613
0.0117652
0.0117686
0.0117715
0.0117741
0.0117763
0.0117782
0.0117798
0.0117811
0.0117823
0.0117832
0.011784
0.0117847
0.0117853
0.0117857
0.0117861
0.0117864
0.0117867
0.0117869
0.0117871
0.0117872
0.0117873
0.0117874
0.0117875
0.0117876
0.0117876
0.0117876
0.0117876
0.0117876
0.0117876
0.0117875
0.0117874
0.0117873
0.0117872
0.0117871
0.0117869
0.0117867
0.0117864
0.0117861
0.0117857
0.0117853
0.0117847
0.011784
0.0117832
0.0117823
0.0117811
0.0117798
0.0117782
0.0117763
0.0117741
0.0117715
0.0117686
0.0117652
0.0117613
0.011757
0.0117522
0.0117468
0.0125056
0.0125117
0.0125172
0.0125221
0.0125265
0.0125303
0.0125337
0.0125366
0.0125391
0.0125412
0.012543
0.0125446
0.0125459
0.0125469
0.0125479
0.0125486
0.0125493
0.0125498
0.0125502
0.0125506
0.0125509
0.0125511
0.0125513
0.0125515
0.0125516
0.0125517
0.0125518
0.0125519
0.0125519
0.0125519
0.0125519
0.0125519
0.0125519
0.0125518
0.0125517
0.0125516
0.0125515
0.0125513
0.0125511
0.0125509
0.0125506
0.0125502
0.0125498
0.0125493
0.0125486
0.0125479
0.0125469
0.0125459
0.0125446
0.012543
0.0125412
0.0125391
0.0125366
0.0125337
0.0125303
0.0125265
0.0125221
0.0125172
0.0125117
0.0125056
0.0134462
0.0134532
0.0134595
0.0134652
0.0134703
0.0134748
0.0134787
0.013482
0.0134849
0.0134874
0.0134895
0.0134913
0.0134928
0.013494
0.0134951
0.013496
0.0134967
0.0134973
0.0134978
0.0134983
0.0134986
0.0134989
0.0134991
0.0134993
0.0134995
0.0134996
0.0134997
0.0134997
0.0134998
0.0134998
0.0134998
0.0134998
0.0134997
0.0134997
0.0134996
0.0134995
0.0134993
0.0134991
0.0134989
0.0134986
0.0134983
0.0134978
0.0134973
0.0134967
0.013496
0.0134951
0.013494
0.0134928
0.0134913
0.0134895
0.0134874
0.0134849
0.013482
0.0134787
0.0134748
0.0134703
0.0134652
0.0134595
0.0134532
0.0134462
0.0146399
0.0146482
0.0146557
0.0146625
0.0146685
0.0146738
0.0146785
0.0146825
0.0146859
0.0146889
0.0146914
0.0146935
0.0146953
0.0146968
0.014698
0.0146991
0.0146999
0.0147007
0.0147013
0.0147018
0.0147022
0.0147025
0.0147028
0.014703
0.0147032
0.0147034
0.0147035
0.0147036
0.0147036
0.0147036
0.0147036
0.0147036
0.0147036
0.0147035
0.0147034
0.0147032
0.014703
0.0147028
0.0147025
0.0147022
0.0147018
0.0147013
0.0147007
0.0146999
0.0146991
0.014698
0.0146968
0.0146953
0.0146935
0.0146914
0.0146889
0.0146859
0.0146825
0.0146785
0.0146738
0.0146685
0.0146625
0.0146557
0.0146482
0.0146399
0.0161917
0.0162018
0.0162109
0.0162191
0.0162265
0.016233
0.0162387
0.0162436
0.0162478
0.0162514
0.0162544
0.016257
0.0162592
0.0162611
0.0162626
0.0162639
0.016265
0.0162658
0.0162666
0.0162672
0.0162677
0.0162681
0.0162685
0.0162687
0.016269
0.0162691
0.0162693
0.0162694
0.0162694
0.0162695
0.0162695
0.0162694
0.0162694
0.0162693
0.0162691
0.016269
0.0162687
0.0162685
0.0162681
0.0162677
0.0162672
0.0162666
0.0162658
0.016265
0.0162639
0.0162626
0.0162611
0.0162592
0.016257
0.0162544
0.0162514
0.0162478
0.0162436
0.0162387
0.016233
0.0162265
0.0162191
0.0162109
0.0162018
0.0161917
0.0182483
0.0182609
0.0182723
0.0182826
0.0182918
0.0183
0.0183071
0.0183132
0.0183185
0.018323
0.0183268
0.0183301
0.0183328
0.0183351
0.0183371
0.0183387
0.01834
0.0183411
0.0183421
0.0183428
0.0183435
0.018344
0.0183444
0.0183448
0.0183451
0.0183453
0.0183454
0.0183456
0.0183456
0.0183457
0.0183457
0.0183456
0.0183456
0.0183454
0.0183453
0.0183451
0.0183448
0.0183444
0.018344
0.0183435
0.0183428
0.0183421
0.0183411
0.01834
0.0183387
0.0183371
0.0183351
0.0183328
0.0183301
0.0183268
0.018323
0.0183185
0.0183132
0.0183071
0.0183
0.0182918
0.0182826
0.0182723
0.0182609
0.0182483
0.0209969
0.0210128
0.0210273
0.0210404
0.0210522
0.0210625
0.0210715
0.0210794
0.0210861
0.0210918
0.0210967
0.0211009
0.0211044
0.0211073
0.0211097
0.0211118
0.0211135
0.0211149
0.0211161
0.0211171
0.0211179
0.0211186
0.0211191
0.0211196
0.0211199
0.0211202
0.0211204
0.0211206
0.0211207
0.0211207
0.0211207
0.0211207
0.0211206
0.0211204
0.0211202
0.0211199
0.0211196
0.0211191
0.0211186
0.0211179
0.0211171
0.0211161
0.0211149
0.0211135
0.0211118
0.0211097
0.0211073
0.0211044
0.0211009
0.0210967
0.0210918
0.0210861
0.0210794
0.0210715
0.0210625
0.0210522
0.0210404
0.0210273
0.0210128
0.0209969
0.0246395
0.0246597
0.0246781
0.0246949
0.0247098
0.024723
0.0247345
0.0247445
0.024753
0.0247603
0.0247666
0.0247719
0.0247763
0.02478
0.0247832
0.0247858
0.024788
0.0247898
0.0247913
0.0247926
0.0247936
0.0247945
0.0247952
0.0247957
0.0247962
0.0247965
0.0247968
0.024797
0.0247971
0.0247972
0.0247972
0.0247971
0.024797
0.0247968
0.0247965
0.0247962
0.0247957
0.0247952
0.0247945
0.0247936
0.0247926
0.0247913
0.0247898
0.024788
0.0247858
0.0247832
0.02478
0.0247763
0.0247719
0.0247666
0.0247603
0.024753
0.0247445
0.0247345
0.024723
0.0247098
0.0246949
0.0246781
0.0246597
0.0246395
0.0293403
0.0293656
0.0293887
0.0294097
0.0294284
0.0294449
0.0294593
0.0294718
0.0294825
0.0294917
0.0294995
0.0295061
0.0295117
0.0295164
0.0295203
0.0295236
0.0295264
0.0295287
0.0295306
0.0295321
0.0295334
0.0295345
0.0295354
0.0295361
0.0295367
0.0295371
0.0295375
0.0295377
0.0295379
0.029538
0.029538
0.0295379
0.0295377
0.0295375
0.0295371
0.0295367
0.0295361
0.0295354
0.0295345
0.0295334
0.0295321
0.0295306
0.0295287
0.0295264
0.0295236
0.0295203
0.0295164
0.0295117
0.0295061
0.0294995
0.0294917
0.0294825
0.0294718
0.0294593
0.0294449
0.0294284
0.0294097
0.0293887
0.0293656
0.0293403
0.0351636
0.0351946
0.0352227
0.0352483
0.035271
0.0352911
0.0353087
0.0353238
0.0353369
0.0353481
0.0353576
0.0353656
0.0353725
0.0353782
0.035383
0.035387
0.0353903
0.0353931
0.0353955
0.0353974
0.035399
0.0354003
0.0354014
0.0354022
0.0354029
0.0354035
0.0354039
0.0354042
0.0354044
0.0354045
0.0354045
0.0354044
0.0354042
0.0354039
0.0354035
0.0354029
0.0354022
0.0354014
0.0354003
0.035399
0.0353974
0.0353955
0.0353931
0.0353903
0.035387
0.035383
0.0353782
0.0353725
0.0353656
0.0353576
0.0353481
0.0353369
0.0353238
0.0353087
0.0352911
0.035271
0.0352483
0.0352227
0.0351946
0.0351636
0.042044
0.0420806
0.0421138
0.0421439
0.0421707
0.0421943
0.0422149
0.0422328
0.0422481
0.0422613
0.0422725
0.042282
0.04229
0.0422968
0.0423024
0.0423072
0.0423111
0.0423144
0.0423172
0.0423194
0.0423213
0.0423229
0.0423241
0.0423252
0.042326
0.0423266
0.0423271
0.0423275
0.0423277
0.0423278
0.0423278
0.0423277
0.0423275
0.0423271
0.0423266
0.042326
0.0423252
0.0423241
0.0423229
0.0423213
0.0423194
0.0423172
0.0423144
0.0423111
0.0423072
0.0423024
0.0422968
0.04229
0.042282
0.0422725
0.0422613
0.0422481
0.0422328
0.0422149
0.0421943
0.0421707
0.0421439
0.0421138
0.0420806
0.042044
0.0498125
0.0498546
0.0498925
0.0499268
0.0499573
0.0499842
0.0500077
0.0500281
0.0500456
0.0500606
0.0500734
0.0500843
0.0500934
0.0501011
0.0501076
0.050113
0.0501176
0.0501213
0.0501245
0.0501271
0.0501293
0.050131
0.0501325
0.0501337
0.0501346
0.0501354
0.0501359
0.0501363
0.0501366
0.0501367
0.0501367
0.0501366
0.0501363
0.0501359
0.0501354
0.0501346
0.0501337
0.0501325
0.050131
0.0501293
0.0501271
0.0501245
0.0501213
0.0501176
0.050113
0.0501076
0.0501011
0.0500934
0.0500843
0.0500734
0.0500606
0.0500456
0.0500281
0.0500077
0.0499842
0.0499573
0.0499268
0.0498925
0.0498546
0.0498125
0.0582623
0.0583093
0.0583516
0.0583897
0.0584236
0.0584535
0.0584797
0.0585023
0.0585218
0.0585385
0.0585528
0.0585648
0.058575
0.0585836
0.0585909
0.0585969
0.058602
0.0586062
0.0586097
0.0586127
0.0586151
0.0586171
0.0586187
0.05862
0.0586211
0.0586219
0.0586226
0.058623
0.0586233
0.0586235
0.0586235
0.0586233
0.058623
0.0586226
0.0586219
0.0586211
0.05862
0.0586187
0.0586171
0.0586151
0.0586127
0.0586097
0.0586062
0.058602
0.0585969
0.0585909
0.0585836
0.058575
0.0585648
0.0585528
0.0585385
0.0585218
0.0585023
0.0584797
0.0584535
0.0584236
0.0583897
0.0583516
0.0583093
0.0582623
0.0672084
0.0672599
0.0673062
0.0673478
0.0673848
0.0674175
0.067446
0.0674707
0.067492
0.0675103
0.0675259
0.0675391
0.0675503
0.0675597
0.0675676
0.0675743
0.0675799
0.0675845
0.0675884
0.0675916
0.0675942
0.0675964
0.0675982
0.0675997
0.0676009
0.0676018
0.0676025
0.067603
0.0676033
0.0676035
0.0676035
0.0676033
0.067603
0.0676025
0.0676018
0.0676009
0.0675997
0.0675982
0.0675964
0.0675942
0.0675916
0.0675884
0.0675845
0.0675799
0.0675743
0.0675676
0.0675597
0.0675503
0.0675391
0.0675259
0.0675103
0.067492
0.0674707
0.067446
0.0674175
0.0673848
0.0673478
0.0673062
0.0672599
0.0672084
0.0765153
0.0765712
0.0766212
0.0766661
0.076706
0.0767412
0.076772
0.0767987
0.0768217
0.0768414
0.0768583
0.0768726
0.0768847
0.0768949
0.0769035
0.0769107
0.0769168
0.0769218
0.076926
0.0769295
0.0769324
0.0769348
0.0769368
0.0769384
0.0769397
0.0769407
0.0769414
0.076942
0.0769424
0.0769425
0.0769425
0.0769424
0.076942
0.0769414
0.0769407
0.0769397
0.0769384
0.0769368
0.0769348
0.0769324
0.0769295
0.076926
0.0769218
0.0769168
0.0769107
0.0769035
0.0768949
0.0768847
0.0768726
0.0768583
0.0768414
0.0768217
0.0767987
0.076772
0.0767412
0.076706
0.0766661
0.0766212
0.0765712
0.0765153
0.0860964
0.0861564
0.08621
0.086258
0.0863007
0.0863384
0.0863713
0.0863999
0.0864246
0.0864458
0.0864638
0.0864792
0.0864922
0.0865032
0.0865125
0.0865203
0.0865268
0.0865322
0.0865368
0.0865406
0.0865437
0.0865463
0.0865484
0.0865501
0.0865515
0.0865526
0.0865535
0.0865541
0.0865545
0.0865546
0.0865546
0.0865545
0.0865541
0.0865535
0.0865526
0.0865515
0.0865501
0.0865484
0.0865463
0.0865437
0.0865406
0.0865368
0.0865322
0.0865268
0.0865203
0.0865125
0.0865032