/*--------------------------------*- C++ -*----------------------------------*\
| =========                 |                                                 |
| \\      /  F ield         | foam-extend: Open Source CFD                    |
|  \\    /   O peration     | Version:     4.0                                |
|   \\  /    A nd           | Web:         http://www.foam-extend.org         |
|    \\/     M anipulation  |                                                 |
\*---------------------------------------------------------------------------*/
FoamFile
{
    version     2.0;
    format      ascii;
    class       volScalarField;
    location    "1770";
    object      cMinus;
}
// * * * * * * * * * * * * * * * * * * * * * * * * * * * * * * * * * * * * * //

dimensions      [0 0 0 0 0 0 0];

internalField   nonuniform List<scalar> 
6960
(
8.60504e-07
8.61723e-07
8.62004e-07
8.62194e-07
8.62356e-07
8.62499e-07
8.62628e-07
8.62743e-07
8.62846e-07
8.62939e-07
8.63023e-07
8.63098e-07
8.63166e-07
8.63228e-07
8.63283e-07
8.63333e-07
8.63377e-07
8.63417e-07
8.63453e-07
8.63485e-07
8.63514e-07
8.63539e-07
8.6356e-07
8.63579e-07
8.63595e-07
8.63608e-07
8.63618e-07
8.63625e-07
8.6363e-07
8.63633e-07
8.63633e-07
8.6363e-07
8.63625e-07
8.63618e-07
8.63608e-07
8.63595e-07
8.63579e-07
8.6356e-07
8.63539e-07
8.63514e-07
8.63485e-07
8.63453e-07
8.63417e-07
8.63377e-07
8.63333e-07
8.63283e-07
8.63228e-07
8.63166e-07
8.63098e-07
8.63023e-07
8.62939e-07
8.62846e-07
8.62743e-07
8.62628e-07
8.62499e-07
8.62356e-07
8.62194e-07
8.62004e-07
8.61723e-07
8.60504e-07
4.07586e-06
4.08288e-06
4.08454e-06
4.0855e-06
4.08626e-06
4.08691e-06
4.0875e-06
4.08802e-06
4.08848e-06
4.0889e-06
4.08928e-06
4.08961e-06
4.08992e-06
4.09019e-06
4.09044e-06
4.09066e-06
4.09086e-06
4.09104e-06
4.0912e-06
4.09134e-06
4.09147e-06
4.09158e-06
4.09168e-06
4.09176e-06
4.09183e-06
4.09189e-06
4.09193e-06
4.09197e-06
4.09199e-06
4.092e-06
4.092e-06
4.09199e-06
4.09197e-06
4.09193e-06
4.09189e-06
4.09183e-06
4.09176e-06
4.09168e-06
4.09158e-06
4.09147e-06
4.09134e-06
4.0912e-06
4.09104e-06
4.09086e-06
4.09066e-06
4.09044e-06
4.09019e-06
4.08992e-06
4.08961e-06
4.08928e-06
4.0889e-06
4.08848e-06
4.08802e-06
4.0875e-06
4.08691e-06
4.08626e-06
4.0855e-06
4.08454e-06
4.08288e-06
4.07586e-06
1.65998e-05
1.66331e-05
1.66412e-05
1.66453e-05
1.66483e-05
1.66509e-05
1.66531e-05
1.66551e-05
1.66569e-05
1.66585e-05
1.66599e-05
1.66612e-05
1.66624e-05
1.66634e-05
1.66644e-05
1.66652e-05
1.6666e-05
1.66666e-05
1.66673e-05
1.66678e-05
1.66683e-05
1.66687e-05
1.66691e-05
1.66694e-05
1.66696e-05
1.66699e-05
1.667e-05
1.66702e-05
1.66702e-05
1.66703e-05
1.66703e-05
1.66702e-05
1.66702e-05
1.667e-05
1.66699e-05
1.66696e-05
1.66694e-05
1.66691e-05
1.66687e-05
1.66683e-05
1.66678e-05
1.66673e-05
1.66666e-05
1.6666e-05
1.66652e-05
1.66644e-05
1.66634e-05
1.66624e-05
1.66612e-05
1.66599e-05
1.66585e-05
1.66569e-05
1.66551e-05
1.66531e-05
1.66509e-05
1.66483e-05
1.66453e-05
1.66412e-05
1.66331e-05
1.65998e-05
6.25627e-05
6.27039e-05
6.27381e-05
6.27543e-05
6.27653e-05
6.27745e-05
6.27824e-05
6.27894e-05
6.27957e-05
6.28013e-05
6.28063e-05
6.28108e-05
6.28148e-05
6.28184e-05
6.28217e-05
6.28246e-05
6.28273e-05
6.28296e-05
6.28317e-05
6.28336e-05
6.28353e-05
6.28367e-05
6.2838e-05
6.28391e-05
6.284e-05
6.28407e-05
6.28413e-05
6.28418e-05
6.28421e-05
6.28422e-05
6.28422e-05
6.28421e-05
6.28418e-05
6.28413e-05
6.28407e-05
6.284e-05
6.28391e-05
6.2838e-05
6.28367e-05
6.28353e-05
6.28336e-05
6.28317e-05
6.28296e-05
6.28273e-05
6.28246e-05
6.28217e-05
6.28184e-05
6.28148e-05
6.28108e-05
6.28063e-05
6.28013e-05
6.27957e-05
6.27894e-05
6.27824e-05
6.27745e-05
6.27653e-05
6.27543e-05
6.27381e-05
6.27039e-05
6.25627e-05
0.000219727
0.000220263
0.000220394
0.000220452
0.000220489
0.000220519
0.000220545
0.000220568
0.000220588
0.000220606
0.000220622
0.000220636
0.000220649
0.000220661
0.000220671
0.000220681
0.000220689
0.000220697
0.000220703
0.000220709
0.000220715
0.000220719
0.000220723
0.000220727
0.00022073
0.000220732
0.000220734
0.000220735
0.000220736
0.000220737
0.000220737
0.000220736
0.000220735
0.000220734
0.000220732
0.00022073
0.000220727
0.000220723
0.000220719
0.000220715
0.000220709
0.000220703
0.000220697
0.000220689
0.000220681
0.000220671
0.000220661
0.000220649
0.000220636
0.000220622
0.000220606
0.000220588
0.000220568
0.000220545
0.000220519
0.000220489
0.000220452
0.000220394
0.000220263
0.000219727
0.000713158
0.000714976
0.000715426
0.000715612
0.000715727
0.000715816
0.000715893
0.000715959
0.000716019
0.000716071
0.000716118
0.00071616
0.000716198
0.000716232
0.000716262
0.00071629
0.000716314
0.000716336
0.000716356
0.000716373
0.000716388
0.000716402
0.000716413
0.000716423
0.000716432
0.000716439
0.000716444
0.000716448
0.000716451
0.000716453
0.000716453
0.000716451
0.000716448
0.000716444
0.000716439
0.000716432
0.000716423
0.000716413
0.000716402
0.000716388
0.000716373
0.000716356
0.000716336
0.000716314
0.00071629
0.000716262
0.000716232
0.000716198
0.00071616
0.000716118
0.000716071
0.000716019
0.000715959
0.000715893
0.000715816
0.000715727
0.000715612
0.000715426
0.000714976
0.000713158
0.00211185
0.0021173
0.00211866
0.0021192
0.00211951
0.00211975
0.00211995
0.00212013
0.00212029
0.00212042
0.00212055
0.00212066
0.00212076
0.00212084
0.00212092
0.00212099
0.00212106
0.00212111
0.00212117
0.00212121
0.00212125
0.00212129
0.00212132
0.00212134
0.00212136
0.00212138
0.0021214
0.00212141
0.00212141
0.00212142
0.00212142
0.00212141
0.00212141
0.0021214
0.00212138
0.00212136
0.00212134
0.00212132
0.00212129
0.00212125
0.00212121
0.00212117
0.00212111
0.00212106
0.00212099
0.00212092
0.00212084
0.00212076
0.00212066
0.00212055
0.00212042
0.00212029
0.00212013
0.00211995
0.00211975
0.00211951
0.0021192
0.00211866
0.0021173
0.00211185
0.00562609
0.00564031
0.00564387
0.00564523
0.00564599
0.00564655
0.00564702
0.00564743
0.00564779
0.00564811
0.00564839
0.00564865
0.00564887
0.00564907
0.00564926
0.00564942
0.00564956
0.00564969
0.00564981
0.00564991
0.00565
0.00565008
0.00565015
0.00565021
0.00565026
0.0056503
0.00565034
0.00565036
0.00565038
0.00565038
0.00565038
0.00565038
0.00565036
0.00565034
0.0056503
0.00565026
0.00565021
0.00565015
0.00565008
0.00565
0.00564991
0.00564981
0.00564969
0.00564956
0.00564942
0.00564926
0.00564907
0.00564887
0.00564865
0.00564839
0.00564811
0.00564779
0.00564743
0.00564702
0.00564655
0.00564599
0.00564523
0.00564387
0.00564031
0.00562609
0.0133082
0.01334
0.013348
0.013351
0.0133526
0.0133537
0.0133547
0.0133555
0.0133562
0.0133568
0.0133574
0.0133579
0.0133584
0.0133588
0.0133591
0.0133594
0.0133597
0.01336
0.0133602
0.0133604
0.0133606
0.0133608
0.0133609
0.013361
0.0133611
0.0133612
0.0133612
0.0133613
0.0133613
0.0133613
0.0133613
0.0133613
0.0133613
0.0133612
0.0133612
0.0133611
0.013361
0.0133609
0.0133608
0.0133606
0.0133604
0.0133602
0.01336
0.0133597
0.0133594
0.0133591
0.0133588
0.0133584
0.0133579
0.0133574
0.0133568
0.0133562
0.0133555
0.0133547
0.0133537
0.0133526
0.013351
0.013348
0.01334
0.0133082
0.027695
0.0277556
0.0277709
0.0277764
0.0277792
0.0277812
0.0277828
0.0277842
0.0277854
0.0277865
0.0277875
0.0277883
0.0277891
0.0277897
0.0277904
0.0277909
0.0277914
0.0277918
0.0277922
0.0277925
0.0277928
0.0277931
0.0277933
0.0277935
0.0277937
0.0277938
0.0277939
0.027794
0.027794
0.0277941
0.0277941
0.027794
0.027794
0.0277939
0.0277938
0.0277937
0.0277935
0.0277933
0.0277931
0.0277928
0.0277925
0.0277922
0.0277918
0.0277914
0.0277909
0.0277904
0.0277897
0.0277891
0.0277883
0.0277875
0.0277865
0.0277854
0.0277842
0.0277828
0.0277812
0.0277792
0.0277764
0.0277709
0.0277556
0.027695
0.0506099
0.0507083
0.0507333
0.050742
0.0507463
0.0507492
0.0507516
0.0507536
0.0507554
0.0507569
0.0507583
0.0507595
0.0507606
0.0507616
0.0507624
0.0507632
0.0507639
0.0507645
0.050765
0.0507655
0.0507659
0.0507663
0.0507666
0.0507669
0.0507671
0.0507673
0.0507675
0.0507676
0.0507677
0.0507677
0.0507677
0.0507677
0.0507676
0.0507675
0.0507673
0.0507671
0.0507669
0.0507666
0.0507663
0.0507659
0.0507655
0.050765
0.0507645
0.0507639
0.0507632
0.0507624
0.0507616
0.0507606
0.0507595
0.0507583
0.0507569
0.0507554
0.0507536
0.0507516
0.0507492
0.0507463
0.050742
0.0507333
0.0507083
0.0506099
0.0818375
0.0819757
0.082011
0.082023
0.0820287
0.0820325
0.0820354
0.082038
0.0820401
0.0820421
0.0820438
0.0820453
0.0820466
0.0820478
0.0820488
0.0820498
0.0820506
0.0820514
0.082052
0.0820526
0.0820531
0.0820536
0.082054
0.0820543
0.0820546
0.0820549
0.082055
0.0820552
0.0820553
0.0820553
0.0820553
0.0820553
0.0820552
0.082055
0.0820549
0.0820546
0.0820543
0.082054
0.0820536
0.0820531
0.0820526
0.082052
0.0820514
0.0820506
0.0820498
0.0820488
0.0820478
0.0820466
0.0820453
0.0820438
0.0820421
0.0820401
0.082038
0.0820354
0.0820325
0.0820287
0.082023
0.082011
0.0819757
0.0818375
0.119027
0.119201
0.119245
0.11926
0.119267
0.119271
0.119275
0.119277
0.11928
0.119282
0.119284
0.119285
0.119287
0.119288
0.119289
0.11929
0.119291
0.119292
0.119293
0.119293
0.119294
0.119294
0.119295
0.119295
0.119296
0.119296
0.119296
0.119296
0.119296
0.119296
0.119296
0.119296
0.119296
0.119296
0.119296
0.119296
0.119295
0.119295
0.119294
0.119294
0.119293
0.119293
0.119292
0.119291
0.11929
0.119289
0.119288
0.119287
0.119285
0.119284
0.119282
0.11928
0.119277
0.119275
0.119271
0.119267
0.11926
0.119245
0.119201
0.119027
0.159034
0.159235
0.159287
0.159304
0.159312
0.159316
0.15932
0.159322
0.159325
0.159327
0.159329
0.159331
0.159332
0.159333
0.159334
0.159335
0.159336
0.159337
0.159338
0.159339
0.159339
0.15934
0.15934
0.15934
0.159341
0.159341
0.159341
0.159341
0.159341
0.159341
0.159341
0.159341
0.159341
0.159341
0.159341
0.159341
0.15934
0.15934
0.15934
0.159339
0.159339
0.159338
0.159337
0.159336
0.159335
0.159334
0.159333
0.159332
0.159331
0.159329
0.159327
0.159325
0.159322
0.15932
0.159316
0.159312
0.159304
0.159287
0.159235
0.159034
0.199358
0.19958
0.199638
0.199657
0.199664
0.199669
0.199673
0.199675
0.199678
0.19968
0.199682
0.199683
0.199685
0.199686
0.199687
0.199688
0.199689
0.199689
0.19969
0.199691
0.199691
0.199692
0.199692
0.199692
0.199693
0.199693
0.199693
0.199693
0.199693
0.199693
0.199693
0.199693
0.199693
0.199693
0.199693
0.199693
0.199692
0.199692
0.199692
0.199691
0.199691
0.19969
0.199689
0.199689
0.199688
0.199687
0.199686
0.199685
0.199683
0.199682
0.19968
0.199678
0.199675
0.199673
0.199669
0.199664
0.199657
0.199638
0.19958
0.199358
0.238643
0.238882
0.238945
0.238965
0.238973
0.238978
0.238981
0.238984
0.238986
0.238988
0.23899
0.238991
0.238993
0.238994
0.238995
0.238996
0.238997
0.238997
0.238998
0.238998
0.238999
0.238999
0.239
0.239
0.239
0.239001
0.239001
0.239001
0.239001
0.239001
0.239001
0.239001
0.239001
0.239001
0.239001
0.239
0.239
0.239
0.238999
0.238999
0.238998
0.238998
0.238997
0.238997
0.238996
0.238995
0.238994
0.238993
0.238991
0.23899
0.238988
0.238986
0.238984
0.238981
0.238978
0.238973
0.238965
0.238945
0.238882
0.238643
0.276403
0.276656
0.276724
0.276746
0.276754
0.276759
0.276762
0.276764
0.276767
0.276768
0.27677
0.276771
0.276773
0.276774
0.276775
0.276775
0.276776
0.276777
0.276777
0.276778
0.276778
0.276779
0.276779
0.276779
0.27678
0.27678
0.27678
0.27678
0.27678
0.27678
0.27678
0.27678
0.27678
0.27678
0.27678
0.27678
0.276779
0.276779
0.276779
0.276778
0.276778
0.276777
0.276777
0.276776
0.276775
0.276775
0.276774
0.276773
0.276771
0.27677
0.276768
0.276767
0.276764
0.276762
0.276759
0.276754
0.276746
0.276724
0.276656
0.276403
0.312578
0.312844
0.312917
0.31294
0.312949
0.312953
0.312956
0.312959
0.312961
0.312962
0.312964
0.312965
0.312966
0.312967
0.312968
0.312969
0.312969
0.31297
0.312971
0.312971
0.312971
0.312972
0.312972
0.312972
0.312973
0.312973
0.312973
0.312973
0.312973
0.312973
0.312973
0.312973
0.312973
0.312973
0.312973
0.312973
0.312972
0.312972
0.312972
0.312971
0.312971
0.312971
0.31297
0.312969
0.312969
0.312968
0.312967
0.312966
0.312965
0.312964
0.312962
0.312961
0.312959
0.312956
0.312953
0.312949
0.31294
0.312917
0.312844
0.312578
0.347247
0.347524
0.347602
0.347626
0.347635
0.347639
0.347642
0.347645
0.347647
0.347648
0.34765
0.347651
0.347652
0.347653
0.347653
0.347654
0.347655
0.347655
0.347656
0.347656
0.347657
0.347657
0.347657
0.347657
0.347658
0.347658
0.347658
0.347658
0.347658
0.347658
0.347658
0.347658
0.347658
0.347658
0.347658
0.347658
0.347657
0.347657
0.347657
0.347657
0.347656
0.347656
0.347655
0.347655
0.347654
0.347653
0.347653
0.347652
0.347651
0.34765
0.347648
0.347647
0.347645
0.347642
0.347639
0.347635
0.347626
0.347602
0.347524
0.347247
0.380502
0.380789
0.380871
0.380897
0.380906
0.380911
0.380914
0.380916
0.380917
0.380919
0.38092
0.380921
0.380922
0.380923
0.380924
0.380924
0.380925
0.380926
0.380926
0.380926
0.380927
0.380927
0.380927
0.380927
0.380928
0.380928
0.380928
0.380928
0.380928
0.380928
0.380928
0.380928
0.380928
0.380928
0.380928
0.380928
0.380927
0.380927
0.380927
0.380927
0.380926
0.380926
0.380926
0.380925
0.380924
0.380924
0.380923
0.380922
0.380921
0.38092
0.380919
0.380917
0.380916
0.380914
0.380911
0.380906
0.380897
0.380871
0.380789
0.380502
0.412418
0.412714
0.412801
0.412828
0.412837
0.412842
0.412844
0.412846
0.412848
0.41285
0.412851
0.412852
0.412853
0.412853
0.412854
0.412855
0.412855
0.412856
0.412856
0.412856
0.412857
0.412857
0.412857
0.412857
0.412858
0.412858
0.412858
0.412858
0.412858
0.412858
0.412858
0.412858
0.412858
0.412858
0.412858
0.412858
0.412857
0.412857
0.412857
0.412857
0.412856
0.412856
0.412856
0.412855
0.412855
0.412854
0.412853
0.412853
0.412852
0.412851
0.41285
0.412848
0.412846
0.412844
0.412842
0.412837
0.412828
0.412801
0.412714
0.412418
0.443053
0.443356
0.443447
0.443475
0.443485
0.44349
0.443492
0.443494
0.443496
0.443497
0.443498
0.443499
0.4435
0.443501
0.443501
0.443502
0.443502
0.443503
0.443503
0.443504
0.443504
0.443504
0.443504
0.443504
0.443505
0.443505
0.443505
0.443505
0.443505
0.443505
0.443505
0.443505
0.443505
0.443505
0.443505
0.443505
0.443504
0.443504
0.443504
0.443504
0.443504
0.443503
0.443503
0.443502
0.443502
0.443501
0.443501
0.4435
0.443499
0.443498
0.443497
0.443496
0.443494
0.443492
0.44349
0.443485
0.443475
0.443447
0.443356
0.443053
0.472452
0.472762
0.472856
0.472886
0.472896
0.472901
0.472903
0.472905
0.472907
0.472908
0.472909
0.47291
0.47291
0.472911
0.472912
0.472912
0.472913
0.472913
0.472913
0.472914
0.472914
0.472914
0.472914
0.472914
0.472915
0.472915
0.472915
0.472915
0.472915
0.472915
0.472915
0.472915
0.472915
0.472915
0.472915
0.472915
0.472914
0.472914
0.472914
0.472914
0.472914
0.472913
0.472913
0.472913
0.472912
0.472912
0.472911
0.47291
0.47291
0.472909
0.472908
0.472907
0.472905
0.472903
0.472901
0.472896
0.472886
0.472856
0.472762
0.472452
0.500654
0.500969
0.501067
0.501098
0.501109
0.501113
0.501116
0.501118
0.501119
0.50112
0.501121
0.501122
0.501123
0.501123
0.501124
0.501124
0.501125
0.501125
0.501125
0.501126
0.501126
0.501126
0.501126
0.501126
0.501126
0.501127
0.501127
0.501127
0.501127
0.501127
0.501127
0.501127
0.501127
0.501127
0.501127
0.501126
0.501126
0.501126
0.501126
0.501126
0.501126
0.501125
0.501125
0.501125
0.501124
0.501124
0.501123
0.501123
0.501122
0.501121
0.50112
0.501119
0.501118
0.501116
0.501113
0.501109
0.501098
0.501067
0.500969
0.500654
0.527694
0.528013
0.528115
0.528148
0.528159
0.528163
0.528166
0.528168
0.528169
0.52817
0.528171
0.528171
0.528172
0.528173
0.528173
0.528174
0.528174
0.528174
0.528175
0.528175
0.528175
0.528175
0.528175
0.528175
0.528176
0.528176
0.528176
0.528176
0.528176
0.528176
0.528176
0.528176
0.528176
0.528176
0.528176
0.528176
0.528175
0.528175
0.528175
0.528175
0.528175
0.528175
0.528174
0.528174
0.528174
0.528173
0.528173
0.528172
0.528171
0.528171
0.52817
0.528169
0.528168
0.528166
0.528163
0.528159
0.528148
0.528115
0.528013
0.527694
0.553606
0.553928
0.554033
0.554067
0.554079
0.554083
0.554086
0.554087
0.554089
0.55409
0.55409
0.554091
0.554092
0.554092
0.554093
0.554093
0.554093
0.554094
0.554094
0.554094
0.554094
0.554094
0.554094
0.554095
0.554095
0.554095
0.554095
0.554095
0.554095
0.554095
0.554095
0.554095
0.554095
0.554095
0.554095
0.554095
0.554095
0.554094
0.554094
0.554094
0.554094
0.554094
0.554094
0.554093
0.554093
0.554093
0.554092
0.554092
0.554091
0.55409
0.55409
0.554089
0.554087
0.554086
0.554083
0.554079
0.554067
0.554033
0.553928
0.553606
0.57842
0.578744
0.578853
0.578888
0.5789
0.578905
0.578907
0.578909
0.57891
0.578911
0.578911
0.578912
0.578913
0.578913
0.578914
0.578914
0.578914
0.578914
0.578915
0.578915
0.578915
0.578915
0.578915
0.578915
0.578916
0.578916
0.578916
0.578916
0.578916
0.578916
0.578916
0.578916
0.578916
0.578916
0.578916
0.578916
0.578915
0.578915
0.578915
0.578915
0.578915
0.578915
0.578914
0.578914
0.578914
0.578914
0.578913
0.578913
0.578912
0.578911
0.578911
0.57891
0.578909
0.578907
0.578905
0.5789
0.578888
0.578853
0.578744
0.57842
0.602168
0.602493
0.602604
0.602641
0.602653
0.602658
0.602661
0.602662
0.602663
0.602664
0.602665
0.602665
0.602666
0.602666
0.602667
0.602667
0.602667
0.602667
0.602668
0.602668
0.602668
0.602668
0.602668
0.602668
0.602668
0.602669
0.602669
0.602669
0.602669
0.602669
0.602669
0.602669
0.602669
0.602669
0.602669
0.602668
0.602668
0.602668
0.602668
0.602668
0.602668
0.602668
0.602667
0.602667
0.602667
0.602667
0.602666
0.602666
0.602665
0.602665
0.602664
0.602663
0.602662
0.602661
0.602658
0.602653
0.602641
0.602604
0.602493
0.602168
0.624879
0.625204
0.625318
0.625356
0.625369
0.625374
0.625376
0.625378
0.625379
0.625379
0.62538
0.625381
0.625381
0.625381
0.625382
0.625382
0.625382
0.625382
0.625383
0.625383
0.625383
0.625383
0.625383
0.625383
0.625383
0.625383
0.625383
0.625383
0.625383
0.625383
0.625383
0.625383
0.625383
0.625383
0.625383
0.625383
0.625383
0.625383
0.625383
0.625383
0.625383
0.625383
0.625382
0.625382
0.625382
0.625382
0.625381
0.625381
0.625381
0.62538
0.625379
0.625379
0.625378
0.625376
0.625374
0.625369
0.625356
0.625318
0.625204
0.624879
0.646582
0.646906
0.647022
0.647062
0.647075
0.64708
0.647083
0.647084
0.647085
0.647086
0.647086
0.647087
0.647087
0.647088
0.647088
0.647088
0.647088
0.647089
0.647089
0.647089
0.647089
0.647089
0.647089
0.647089
0.647089
0.647089
0.647089
0.64709
0.64709
0.64709
0.64709
0.64709
0.64709
0.647089
0.647089
0.647089
0.647089
0.647089
0.647089
0.647089
0.647089
0.647089
0.647089
0.647088
0.647088
0.647088
0.647088
0.647087
0.647087
0.647086
0.647086
0.647085
0.647084
0.647083
0.64708
0.647075
0.647062
0.647022
0.646906
0.646582
0.667306
0.667628
0.667747
0.667788
0.667802
0.667807
0.667809
0.667811
0.667812
0.667812
0.667813
0.667813
0.667814
0.667814
0.667814
0.667814
0.667815
0.667815
0.667815
0.667815
0.667815
0.667815
0.667815
0.667815
0.667816
0.667816
0.667816
0.667816
0.667816
0.667816
0.667816
0.667816
0.667816
0.667816
0.667816
0.667816
0.667815
0.667815
0.667815
0.667815
0.667815
0.667815
0.667815
0.667815
0.667814
0.667814
0.667814
0.667814
0.667813
0.667813
0.667812
0.667812
0.667811
0.667809
0.667807
0.667802
0.667788
0.667747
0.667628
0.667306
0.687079
0.6874
0.68752
0.687562
0.687576
0.687582
0.687584
0.687586
0.687586
0.687587
0.687588
0.687588
0.687588
0.687589
0.687589
0.687589
0.687589
0.687589
0.68759
0.68759
0.68759
0.68759
0.68759
0.68759
0.68759
0.68759
0.68759
0.68759
0.68759
0.68759
0.68759
0.68759
0.68759
0.68759
0.68759
0.68759
0.68759
0.68759
0.68759
0.68759
0.68759
0.68759
0.687589
0.687589
0.687589
0.687589
0.687589
0.687588
0.687588
0.687588
0.687587
0.687586
0.687586
0.687584
0.687582
0.687576
0.687562
0.68752
0.6874
0.687079
0.70593
0.706248
0.706369
0.706413
0.706428
0.706434
0.706436
0.706437
0.706438
0.706439
0.706439
0.706439
0.70644
0.70644
0.70644
0.70644
0.706441
0.706441
0.706441
0.706441
0.706441
0.706441
0.706441
0.706441
0.706441
0.706441
0.706441
0.706441
0.706441
0.706442
0.706442
0.706441
0.706441
0.706441
0.706441
0.706441
0.706441
0.706441
0.706441
0.706441
0.706441
0.706441
0.706441
0.706441
0.70644
0.70644
0.70644
0.70644
0.706439
0.706439
0.706439
0.706438
0.706437
0.706436
0.706434
0.706428
0.706413
0.706369
0.706248
0.70593
0.723887
0.7242
0.724323
0.724368
0.724384
0.72439
0.724392
0.724393
0.724394
0.724395
0.724395
0.724396
0.724396
0.724396
0.724396
0.724396
0.724397
0.724397
0.724397
0.724397
0.724397
0.724397
0.724397
0.724397
0.724397
0.724397
0.724397
0.724397
0.724397
0.724397
0.724397
0.724397
0.724397
0.724397
0.724397
0.724397
0.724397
0.724397
0.724397
0.724397
0.724397
0.724397
0.724397
0.724397
0.724396
0.724396
0.724396
0.724396
0.724396
0.724395
0.724395
0.724394
0.724393
0.724392
0.72439
0.724384
0.724368
0.724323
0.7242
0.723887
0.740976
0.741286
0.74141
0.741456
0.741472
0.741478
0.741481
0.741482
0.741483
0.741483
0.741483
0.741484
0.741484
0.741484
0.741484
0.741485
0.741485
0.741485
0.741485
0.741485
0.741485
0.741485
0.741485
0.741485
0.741485
0.741485
0.741485
0.741485
0.741485
0.741485
0.741485
0.741485
0.741485
0.741485
0.741485
0.741485
0.741485
0.741485
0.741485
0.741485
0.741485
0.741485
0.741485
0.741485
0.741485
0.741484
0.741484
0.741484
0.741484
0.741483
0.741483
0.741483
0.741482
0.741481
0.741478
0.741472
0.741456
0.74141
0.741286
0.740976
0.757226
0.757531
0.757656
0.757703
0.75772
0.757726
0.757729
0.75773
0.757731
0.757731
0.757732
0.757732
0.757732
0.757732
0.757732
0.757733
0.757733
0.757733
0.757733
0.757733
0.757733
0.757733
0.757733
0.757733
0.757733
0.757733
0.757733
0.757733
0.757733
0.757733
0.757733
0.757733
0.757733
0.757733
0.757733
0.757733
0.757733
0.757733
0.757733
0.757733
0.757733
0.757733
0.757733
0.757733
0.757733
0.757732
0.757732
0.757732
0.757732
0.757732
0.757731
0.757731
0.75773
0.757729
0.757726
0.75772
0.757703
0.757656
0.757531
0.757226
0.772664
0.772964
0.773089
0.773137
0.773155
0.773161
0.773164
0.773165
0.773166
0.773166
0.773167
0.773167
0.773167
0.773167
0.773167
0.773168
0.773168
0.773168
0.773168
0.773168
0.773168
0.773168
0.773168
0.773168
0.773168
0.773168
0.773168
0.773168
0.773168
0.773168
0.773168
0.773168
0.773168
0.773168
0.773168
0.773168
0.773168
0.773168
0.773168
0.773168
0.773168
0.773168
0.773168
0.773168
0.773168
0.773167
0.773167
0.773167
0.773167
0.773167
0.773166
0.773166
0.773165
0.773164
0.773161
0.773155
0.773137
0.773089
0.772964
0.772664
0.787317
0.787611
0.787736
0.787785
0.787803
0.78781
0.787813
0.787814
0.787815
0.787815
0.787816
0.787816
0.787816
0.787816
0.787816
0.787817
0.787817
0.787817
0.787817
0.787817
0.787817
0.787817
0.787817
0.787817
0.787817
0.787817
0.787817
0.787817
0.787817
0.787817
0.787817
0.787817
0.787817
0.787817
0.787817
0.787817
0.787817
0.787817
0.787817
0.787817
0.787817
0.787817
0.787817
0.787817
0.787817
0.787816
0.787816
0.787816
0.787816
0.787816
0.787815
0.787815
0.787814
0.787813
0.78781
0.787803
0.787785
0.787736
0.787611
0.787317
0.801212
0.801499
0.801624
0.801674
0.801693
0.8017
0.801703
0.801704
0.801705
0.801705
0.801706
0.801706
0.801706
0.801706
0.801706
0.801706
0.801706
0.801707
0.801707
0.801707
0.801707
0.801707
0.801707
0.801707
0.801707
0.801707
0.801707
0.801707
0.801707
0.801707
0.801707
0.801707
0.801707
0.801707
0.801707
0.801707
0.801707
0.801707
0.801707
0.801707
0.801707
0.801707
0.801707
0.801706
0.801706
0.801706
0.801706
0.801706
0.801706
0.801706
0.801705
0.801705
0.801704
0.801703
0.8017
0.801693
0.801674
0.801624
0.801499
0.801212
0.814374
0.814655
0.81478
0.814831
0.81485
0.814857
0.81486
0.814862
0.814862
0.814863
0.814863
0.814863
0.814863
0.814864
0.814864
0.814864
0.814864
0.814864
0.814864
0.814864
0.814864
0.814864
0.814864
0.814864
0.814864
0.814864
0.814864
0.814864
0.814864
0.814864
0.814864
0.814864
0.814864
0.814864
0.814864
0.814864
0.814864
0.814864
0.814864
0.814864
0.814864
0.814864
0.814864
0.814864
0.814864
0.814864
0.814864
0.814863
0.814863
0.814863
0.814863
0.814862
0.814862
0.81486
0.814857
0.81485
0.814831
0.81478
0.814655
0.814374
0.826831
0.827105
0.82723
0.827281
0.827301
0.827309
0.827312
0.827313
0.827314
0.827314
0.827314
0.827315
0.827315
0.827315
0.827315
0.827315
0.827315
0.827315
0.827315
0.827315
0.827315
0.827315
0.827315
0.827315
0.827315
0.827315
0.827315
0.827315
0.827315
0.827315
0.827315
0.827315
0.827315
0.827315
0.827315
0.827315
0.827315
0.827315
0.827315
0.827315
0.827315
0.827315
0.827315
0.827315
0.827315
0.827315
0.827315
0.827315
0.827315
0.827314
0.827314
0.827314
0.827313
0.827312
0.827309
0.827301
0.827281
0.82723
0.827105
0.826831
0.838609
0.838876
0.838999
0.839051
0.839072
0.83908
0.839083
0.839084
0.839085
0.839085
0.839086
0.839086
0.839086
0.839086
0.839086
0.839086
0.839086
0.839086
0.839086
0.839086
0.839087
0.839087
0.839087
0.839087
0.839087
0.839087
0.839087
0.839087
0.839087
0.839087
0.839087
0.839087
0.839087
0.839087
0.839087
0.839087
0.839087
0.839087
0.839087
0.839087
0.839086
0.839086
0.839086
0.839086
0.839086
0.839086
0.839086
0.839086
0.839086
0.839086
0.839085
0.839085
0.839084
0.839083
0.83908
0.839072
0.839051
0.838999
0.838876
0.838609
0.849734
0.849993
0.850115
0.850167
0.850188
0.850197
0.8502
0.850202
0.850202
0.850203
0.850203
0.850203
0.850203
0.850203
0.850203
0.850203
0.850203
0.850203
0.850204
0.850204
0.850204
0.850204
0.850204
0.850204
0.850204
0.850204
0.850204
0.850204
0.850204
0.850204
0.850204
0.850204
0.850204
0.850204
0.850204
0.850204
0.850204
0.850204
0.850204
0.850204
0.850204
0.850204
0.850203
0.850203
0.850203
0.850203
0.850203
0.850203
0.850203
0.850203
0.850203
0.850202
0.850202
0.8502
0.850197
0.850188
0.850167
0.850115
0.849993
0.849734
0.86023
0.860481
0.860602
0.860655
0.860677
0.860685
0.860689
0.86069
0.860691
0.860691
0.860691
0.860692
0.860692
0.860692
0.860692
0.860692
0.860692
0.860692
0.860692
0.860692
0.860692
0.860692
0.860692
0.860692
0.860692
0.860692
0.860692
0.860692
0.860692
0.860692
0.860692
0.860692
0.860692
0.860692
0.860692
0.860692
0.860692
0.860692
0.860692
0.860692
0.860692
0.860692
0.860692
0.860692
0.860692
0.860692
0.860692
0.860692
0.860692
0.860691
0.860691
0.860691
0.86069
0.860689
0.860685
0.860677
0.860655
0.860602
0.860481
0.86023
0.870123
0.870366
0.870486
0.870539
0.870561
0.87057
0.870574
0.870575
0.870576
0.870576
0.870577
0.870577
0.870577
0.870577
0.870577
0.870577
0.870577
0.870577
0.870577
0.870577
0.870577
0.870577
0.870577
0.870577
0.870577
0.870577
0.870577
0.870577
0.870577
0.870577
0.870577
0.870577
0.870577
0.870577
0.870577
0.870577
0.870577
0.870577
0.870577
0.870577
0.870577
0.870577
0.870577
0.870577
0.870577
0.870577
0.870577
0.870577
0.870577
0.870577
0.870576
0.870576
0.870575
0.870574
0.87057
0.870561
0.870539
0.870486
0.870366
0.870123
0.879439
0.879674
0.879791
0.879845
0.879867
0.879877
0.87988
0.879882
0.879883
0.879883
0.879883
0.879883
0.879884
0.879884
0.879884
0.879884
0.879884
0.879884
0.879884
0.879884
0.879884
0.879884
0.879884
0.879884
0.879884
0.879884
0.879884
0.879884
0.879884
0.879884
0.879884
0.879884
0.879884
0.879884
0.879884
0.879884
0.879884
0.879884
0.879884
0.879884
0.879884
0.879884
0.879884
0.879884
0.879884
0.879884
0.879884
0.879884
0.879883
0.879883
0.879883
0.879883
0.879882
0.87988
0.879877
0.879867
0.879845
0.879791
0.879674
0.879439
0.8882
0.888427
0.888543
0.888596
0.888619
0.888629
0.888633
0.888635
0.888635
0.888636
0.888636
0.888636
0.888636
0.888636
0.888636
0.888636
0.888636
0.888636
0.888637
0.888637
0.888637
0.888637
0.888637
0.888637
0.888637
0.888637
0.888637
0.888637
0.888637
0.888637
0.888637
0.888637
0.888637
0.888637
0.888637
0.888637
0.888637
0.888637
0.888637
0.888637
0.888637
0.888637
0.888636
0.888636
0.888636
0.888636
0.888636
0.888636
0.888636
0.888636
0.888636
0.888635
0.888635
0.888633
0.888629
0.888619
0.888596
0.888543
0.888427
0.8882
0.896433
0.896651
0.896765
0.896818
0.896842
0.896851
0.896856
0.896857
0.896858
0.896859
0.896859
0.896859
0.896859
0.896859
0.896859
0.896859
0.896859
0.896859
0.896859
0.896859
0.896859
0.896859
0.896859
0.896859
0.896859
0.896859
0.896859
0.896859
0.896859
0.896859
0.896859
0.896859
0.896859
0.896859
0.896859
0.896859
0.896859
0.896859
0.896859
0.896859
0.896859
0.896859
0.896859
0.896859
0.896859
0.896859
0.896859
0.896859
0.896859
0.896859
0.896859
0.896858
0.896857
0.896856
0.896851
0.896842
0.896818
0.896765
0.896651
0.896433
0.904159
0.90437
0.904481
0.904534
0.904557
0.904568
0.904572
0.904574
0.904575
0.904575
0.904575
0.904575
0.904575
0.904576
0.904576
0.904576
0.904576
0.904576
0.904576
0.904576
0.904576
0.904576
0.904576
0.904576
0.904576
0.904576
0.904576
0.904576
0.904576
0.904576
0.904576
0.904576
0.904576
0.904576
0.904576
0.904576
0.904576
0.904576
0.904576
0.904576
0.904576
0.904576
0.904576
0.904576
0.904576
0.904576
0.904576
0.904575
0.904575
0.904575
0.904575
0.904575
0.904574
0.904572
0.904568
0.904557
0.904534
0.904481
0.90437
0.904159
0.911403
0.911605
0.911713
0.911766
0.91179
0.911801
0.911805
0.911807
0.911808
0.911808
0.911809
0.911809
0.911809
0.911809
0.911809
0.911809
0.911809
0.911809
0.911809
0.911809
0.911809
0.911809
0.911809
0.911809
0.911809
0.911809
0.911809
0.911809
0.911809
0.911809
0.911809
0.911809
0.911809
0.911809
0.911809
0.911809
0.911809
0.911809
0.911809
0.911809
0.911809
0.911809
0.911809
0.911809
0.911809
0.911809
0.911809
0.911809
0.911809
0.911809
0.911808
0.911808
0.911807
0.911805
0.911801
0.91179
0.911766
0.911713
0.911605
0.911403
0.918186
0.91838
0.918486
0.918538
0.918562
0.918573
0.918578
0.91858
0.918581
0.918581
0.918582
0.918582
0.918582
0.918582
0.918582
0.918582
0.918582
0.918582
0.918582
0.918582
0.918582
0.918582
0.918582
0.918582
0.918582
0.918582
0.918582
0.918582
0.918582
0.918582
0.918582
0.918582
0.918582
0.918582
0.918582
0.918582
0.918582
0.918582
0.918582
0.918582
0.918582
0.918582
0.918582
0.918582
0.918582
0.918582
0.918582
0.918582
0.918582
0.918582
0.918581
0.918581
0.91858
0.918578
0.918573
0.918562
0.918538
0.918486
0.91838
0.918186
0.924532
0.924717
0.92482
0.924872
0.924896
0.924908
0.924912
0.924915
0.924916
0.924916
0.924916
0.924916
0.924916
0.924916
0.924916
0.924916
0.924916
0.924917
0.924917
0.924917
0.924917
0.924917
0.924917
0.924917
0.924917
0.924917
0.924917
0.924917
0.924917
0.924917
0.924917
0.924917
0.924917
0.924917
0.924917