/*--------------------------------*- C++ -*----------------------------------*\
| =========                 |                                                 |
| \\      /  F ield         | foam-extend: Open Source CFD                    |
|  \\    /   O peration     | Version:     4.0                                |
|   \\  /    A nd           | Web:         http://www.foam-extend.org         |
|    \\/     M anipulation  |                                                 |
\*---------------------------------------------------------------------------*/
FoamFile
{
    version     2.0;
    format      ascii;
    class       volScalarField;
    location    "580";
    object      cPlus;
}
// * * * * * * * * * * * * * * * * * * * * * * * * * * * * * * * * * * * * * //

dimensions      [0 0 0 0 0 0 0];

internalField   nonuniform List<scalar> 
6960
(
0.266475
0.266437
0.266399
0.266368
0.266343
0.266325
0.266311
0.266301
0.266293
0.266288
0.266284
0.266281
0.266279
0.266277
0.266276
0.266275
0.266275
0.266274
0.266274
0.266274
0.266274
0.266274
0.266273
0.266273
0.266273
0.266273
0.266273
0.266273
0.266273
0.266273
0.266273
0.266273
0.266273
0.266273
0.266273
0.266273
0.266273
0.266273
0.266274
0.266274
0.266274
0.266274
0.266274
0.266275
0.266275
0.266276
0.266277
0.266279
0.266281
0.266284
0.266288
0.266293
0.266301
0.266311
0.266325
0.266343
0.266368
0.266399
0.266437
0.266475
0.0713899
0.0713716
0.0713528
0.0713371
0.0713248
0.0713155
0.0713085
0.0713034
0.0712996
0.0712969
0.0712949
0.0712935
0.0712924
0.0712917
0.0712911
0.0712907
0.0712904
0.0712902
0.07129
0.0712899
0.0712898
0.0712897
0.0712897
0.0712896
0.0712896
0.0712896
0.0712896
0.0712896
0.0712895
0.0712895
0.0712895
0.0712895
0.0712896
0.0712896
0.0712896
0.0712896
0.0712896
0.0712897
0.0712897
0.0712898
0.0712899
0.07129
0.0712902
0.0712904
0.0712907
0.0712911
0.0712917
0.0712924
0.0712935
0.0712949
0.0712969
0.0712996
0.0713034
0.0713085
0.0713155
0.0713248
0.0713371
0.0713528
0.0713716
0.0713899
0.026057
0.0260518
0.0260459
0.0260409
0.0260369
0.0260338
0.0260315
0.0260299
0.0260286
0.0260277
0.026027
0.0260266
0.0260262
0.026026
0.0260258
0.0260256
0.0260255
0.0260254
0.0260254
0.0260253
0.0260253
0.0260253
0.0260253
0.0260253
0.0260252
0.0260252
0.0260252
0.0260252
0.0260252
0.0260252
0.0260252
0.0260252
0.0260252
0.0260252
0.0260252
0.0260252
0.0260253
0.0260253
0.0260253
0.0260253
0.0260253
0.0260254
0.0260254
0.0260255
0.0260256
0.0260258
0.026026
0.0260262
0.0260266
0.026027
0.0260277
0.0260286
0.0260299
0.0260315
0.0260338
0.0260369
0.0260409
0.0260459
0.0260518
0.026057
0.0145093
0.0145103
0.0145103
0.0145102
0.0145101
0.01451
0.0145099
0.0145098
0.0145097
0.0145096
0.0145096
0.0145096
0.0145095
0.0145095
0.0145095
0.0145095
0.0145095
0.0145095
0.0145094
0.0145094
0.0145094
0.0145094
0.0145094
0.0145094
0.0145094
0.0145094
0.0145094
0.0145094
0.0145094
0.0145094
0.0145094
0.0145094
0.0145094
0.0145094
0.0145094
0.0145094
0.0145094
0.0145094
0.0145094
0.0145094
0.0145094
0.0145094
0.0145095
0.0145095
0.0145095
0.0145095
0.0145095
0.0145095
0.0145096
0.0145096
0.0145096
0.0145097
0.0145098
0.0145099
0.01451
0.0145101
0.0145102
0.0145103
0.0145103
0.0145093
0.0116272
0.0116305
0.0116329
0.0116347
0.0116361
0.0116371
0.0116378
0.0116384
0.0116387
0.011639
0.0116392
0.0116393
0.0116394
0.0116395
0.0116396
0.0116396
0.0116396
0.0116396
0.0116396
0.0116396
0.0116397
0.0116397
0.0116397
0.0116397
0.0116397
0.0116397
0.0116397
0.0116397
0.0116397
0.0116397
0.0116397
0.0116397
0.0116397
0.0116397
0.0116397
0.0116397
0.0116397
0.0116397
0.0116397
0.0116397
0.0116396
0.0116396
0.0116396
0.0116396
0.0116396
0.0116396
0.0116395
0.0116394
0.0116393
0.0116392
0.011639
0.0116387
0.0116384
0.0116378
0.0116371
0.0116361
0.0116347
0.0116329
0.0116305
0.0116272
0.0109949
0.010999
0.0110023
0.0110048
0.0110067
0.0110081
0.0110091
0.0110099
0.0110104
0.0110108
0.0110111
0.0110113
0.0110114
0.0110115
0.0110116
0.0110117
0.0110117
0.0110117
0.0110117
0.0110117
0.0110118
0.0110118
0.0110118
0.0110118
0.0110118
0.0110118
0.0110118
0.0110118
0.0110118
0.0110118
0.0110118
0.0110118
0.0110118
0.0110118
0.0110118
0.0110118
0.0110118
0.0110118
0.0110118
0.0110118
0.0110117
0.0110117
0.0110117
0.0110117
0.0110117
0.0110116
0.0110115
0.0110114
0.0110113
0.0110111
0.0110108
0.0110104
0.0110099
0.0110091
0.0110081
0.0110067
0.0110048
0.0110023
0.010999
0.0109949
0.0109389
0.0109434
0.0109469
0.0109496
0.0109517
0.0109533
0.0109545
0.0109553
0.0109559
0.0109563
0.0109566
0.0109568
0.010957
0.0109571
0.0109572
0.0109573
0.0109573
0.0109573
0.0109574
0.0109574
0.0109574
0.0109574
0.0109574
0.0109574
0.0109574
0.0109574
0.0109574
0.0109574
0.0109574
0.0109574
0.0109574
0.0109574
0.0109574
0.0109574
0.0109574
0.0109574
0.0109574
0.0109574
0.0109574
0.0109574
0.0109574
0.0109574
0.0109573
0.0109573
0.0109573
0.0109572
0.0109571
0.010957
0.0109568
0.0109566
0.0109563
0.0109559
0.0109553
0.0109545
0.0109533
0.0109517
0.0109496
0.0109469
0.0109434
0.0109389
0.0110316
0.0110362
0.0110399
0.0110427
0.0110449
0.0110466
0.0110478
0.0110486
0.0110493
0.0110497
0.01105
0.0110503
0.0110504
0.0110505
0.0110506
0.0110507
0.0110507
0.0110508
0.0110508
0.0110508
0.0110508
0.0110508
0.0110508
0.0110508
0.0110508
0.0110508
0.0110508
0.0110508
0.0110508
0.0110508
0.0110508
0.0110508
0.0110508
0.0110508
0.0110508
0.0110508
0.0110508
0.0110508
0.0110508
0.0110508
0.0110508
0.0110508
0.0110508
0.0110507
0.0110507
0.0110506
0.0110505
0.0110504
0.0110503
0.01105
0.0110497
0.0110493
0.0110486
0.0110478
0.0110466
0.0110449
0.0110427
0.0110399
0.0110362
0.0110316
0.0111675
0.0111723
0.0111761
0.011179
0.0111813
0.0111829
0.0111842
0.0111851
0.0111857
0.0111862
0.0111865
0.0111867
0.0111869
0.011187
0.0111871
0.0111872
0.0111872
0.0111873
0.0111873
0.0111873
0.0111873
0.0111873
0.0111873
0.0111873
0.0111873
0.0111873
0.0111873
0.0111873
0.0111874
0.0111874
0.0111874
0.0111874
0.0111873
0.0111873
0.0111873
0.0111873
0.0111873
0.0111873
0.0111873
0.0111873
0.0111873
0.0111873
0.0111873
0.0111872
0.0111872
0.0111871
0.011187
0.0111869
0.0111867
0.0111865
0.0111862
0.0111857
0.0111851
0.0111842
0.0111829
0.0111813
0.011179
0.0111761
0.0111723
0.0111675
0.0113224
0.0113273
0.0113311
0.0113341
0.0113364
0.0113382
0.0113394
0.0113403
0.011341
0.0113415
0.0113418
0.0113421
0.0113422
0.0113424
0.0113425
0.0113425
0.0113426
0.0113426
0.0113426
0.0113426
0.0113427
0.0113427
0.0113427
0.0113427
0.0113427
0.0113427
0.0113427
0.0113427
0.0113427
0.0113427
0.0113427
0.0113427
0.0113427
0.0113427
0.0113427
0.0113427
0.0113427
0.0113427
0.0113427
0.0113427
0.0113426
0.0113426
0.0113426
0.0113426
0.0113425
0.0113425
0.0113424
0.0113422
0.0113421
0.0113418
0.0113415
0.011341
0.0113403
0.0113394
0.0113382
0.0113364
0.0113341
0.0113311
0.0113273
0.0113224
0.0114914
0.0114964
0.0115004
0.0115035
0.0115058
0.0115076
0.0115089
0.0115099
0.0115105
0.011511
0.0115114
0.0115116
0.0115118
0.0115119
0.011512
0.0115121
0.0115121
0.0115122
0.0115122
0.0115122
0.0115122
0.0115122
0.0115122
0.0115123
0.0115123
0.0115123
0.0115123
0.0115123
0.0115123
0.0115123
0.0115123
0.0115123
0.0115123
0.0115123
0.0115123
0.0115123
0.0115123
0.0115122
0.0115122
0.0115122
0.0115122
0.0115122
0.0115122
0.0115121
0.0115121
0.011512
0.0115119
0.0115118
0.0115116
0.0115114
0.011511
0.0115105
0.0115099
0.0115089
0.0115076
0.0115058
0.0115035
0.0115004
0.0114964
0.0114914
0.0116748
0.0116799
0.011684
0.0116872
0.0116896
0.0116914
0.0116927
0.0116937
0.0116944
0.0116949
0.0116953
0.0116955
0.0116957
0.0116959
0.011696
0.011696
0.0116961
0.0116961
0.0116961
0.0116962
0.0116962
0.0116962
0.0116962
0.0116962
0.0116962
0.0116962
0.0116962
0.0116962
0.0116962
0.0116962
0.0116962
0.0116962
0.0116962
0.0116962
0.0116962
0.0116962
0.0116962
0.0116962
0.0116962
0.0116962
0.0116962
0.0116961
0.0116961
0.0116961
0.011696
0.011696
0.0116959
0.0116957
0.0116955
0.0116953
0.0116949
0.0116944
0.0116937
0.0116927
0.0116914
0.0116896
0.0116872
0.011684
0.0116799
0.0116748
0.0118739
0.0118792
0.0118833
0.0118866
0.0118891
0.011891
0.0118924
0.0118934
0.0118941
0.0118946
0.011895
0.0118952
0.0118954
0.0118956
0.0118957
0.0118957
0.0118958
0.0118958
0.0118958
0.0118959
0.0118959
0.0118959
0.0118959
0.0118959
0.0118959
0.0118959
0.0118959
0.0118959
0.0118959
0.0118959
0.0118959
0.0118959
0.0118959
0.0118959
0.0118959
0.0118959
0.0118959
0.0118959
0.0118959
0.0118959
0.0118959
0.0118958
0.0118958
0.0118958
0.0118957
0.0118957
0.0118956
0.0118954
0.0118952
0.011895
0.0118946
0.0118941
0.0118934
0.0118924
0.011891
0.0118891
0.0118866
0.0118833
0.0118792
0.0118739
0.0120906
0.0120961
0.0121004
0.0121038
0.0121063
0.0121083
0.0121097
0.0121107
0.0121115
0.012112
0.0121124
0.0121127
0.0121128
0.012113
0.0121131
0.0121132
0.0121132
0.0121133
0.0121133
0.0121133
0.0121133
0.0121133
0.0121133
0.0121133
0.0121133
0.0121133
0.0121134
0.0121134
0.0121134
0.0121134
0.0121134
0.0121134
0.0121134
0.0121134
0.0121133
0.0121133
0.0121133
0.0121133
0.0121133
0.0121133
0.0121133
0.0121133
0.0121133
0.0121132
0.0121132
0.0121131
0.012113
0.0121128
0.0121127
0.0121124
0.012112
0.0121115
0.0121107
0.0121097
0.0121083
0.0121063
0.0121038
0.0121004
0.0120961
0.0120906
0.0123273
0.012333
0.0123374
0.0123409
0.0123436
0.0123456
0.0123471
0.0123481
0.0123489
0.0123494
0.0123498
0.0123501
0.0123503
0.0123505
0.0123506
0.0123507
0.0123507
0.0123508
0.0123508
0.0123508
0.0123508
0.0123508
0.0123508
0.0123508
0.0123508
0.0123508
0.0123509
0.0123509
0.0123509
0.0123509
0.0123509
0.0123509
0.0123509
0.0123509
0.0123508
0.0123508
0.0123508
0.0123508
0.0123508
0.0123508
0.0123508
0.0123508
0.0123508
0.0123507
0.0123507
0.0123506
0.0123505
0.0123503
0.0123501
0.0123498
0.0123494
0.0123489
0.0123481
0.0123471
0.0123456
0.0123436
0.0123409
0.0123374
0.012333
0.0123273
0.0125868
0.0125927
0.0125973
0.0126009
0.0126037
0.0126058
0.0126073
0.0126084
0.0126092
0.0126098
0.0126102
0.0126105
0.0126107
0.0126108
0.012611
0.012611
0.0126111
0.0126111
0.0126112
0.0126112
0.0126112
0.0126112
0.0126112
0.0126112
0.0126112
0.0126112
0.0126112
0.0126112
0.0126112
0.0126112
0.0126112
0.0126112
0.0126112
0.0126112
0.0126112
0.0126112
0.0126112
0.0126112
0.0126112
0.0126112
0.0126112
0.0126112
0.0126111
0.0126111
0.012611
0.012611
0.0126108
0.0126107
0.0126105
0.0126102
0.0126098
0.0126092
0.0126084
0.0126073
0.0126058
0.0126037
0.0126009
0.0125973
0.0125927
0.0125868
0.0128725
0.0128786
0.0128834
0.0128872
0.0128901
0.0128922
0.0128938
0.012895
0.0128958
0.0128964
0.0128968
0.0128971
0.0128973
0.0128975
0.0128976
0.0128977
0.0128978
0.0128978
0.0128978
0.0128978
0.0128979
0.0128979
0.0128979
0.0128979
0.0128979
0.0128979
0.0128979
0.0128979
0.0128979
0.0128979
0.0128979
0.0128979
0.0128979
0.0128979
0.0128979
0.0128979
0.0128979
0.0128979
0.0128979
0.0128979
0.0128978
0.0128978
0.0128978
0.0128978
0.0128977
0.0128976
0.0128975
0.0128973
0.0128971
0.0128968
0.0128964
0.0128958
0.012895
0.0128938
0.0128922
0.0128901
0.0128872
0.0128834
0.0128786
0.0128725
0.0131885
0.0131949
0.0131999
0.0132038
0.0132068
0.0132091
0.0132107
0.0132119
0.0132128
0.0132134
0.0132139
0.0132142
0.0132144
0.0132146
0.0132147
0.0132148
0.0132148
0.0132149
0.0132149
0.0132149
0.013215
0.013215
0.013215
0.013215
0.013215
0.013215
0.013215
0.013215
0.013215
0.013215
0.013215
0.013215
0.013215
0.013215
0.013215
0.013215
0.013215
0.013215
0.013215
0.013215
0.0132149
0.0132149
0.0132149
0.0132148
0.0132148
0.0132147
0.0132146
0.0132144
0.0132142
0.0132139
0.0132134
0.0132128
0.0132119
0.0132107
0.0132091
0.0132068
0.0132038
0.0131999
0.0131949
0.0131885
0.0135398
0.0135465
0.0135518
0.0135559
0.013559
0.0135614
0.0135631
0.0135644
0.0135653
0.0135659
0.0135664
0.0135667
0.013567
0.0135671
0.0135673
0.0135674
0.0135674
0.0135675
0.0135675
0.0135675
0.0135675
0.0135676
0.0135676
0.0135676
0.0135676
0.0135676
0.0135676
0.0135676
0.0135676
0.0135676
0.0135676
0.0135676
0.0135676
0.0135676
0.0135676
0.0135676
0.0135676
0.0135676
0.0135676
0.0135675
0.0135675
0.0135675
0.0135675
0.0135674
0.0135674
0.0135673
0.0135671
0.013567
0.0135667
0.0135664
0.0135659
0.0135653
0.0135644
0.0135631
0.0135614
0.013559
0.0135559
0.0135518
0.0135465
0.0135398
0.0139328
0.0139398
0.0139454
0.0139497
0.013953
0.0139555
0.0139573
0.0139586
0.0139596
0.0139603
0.0139608
0.0139611
0.0139614
0.0139616
0.0139617
0.0139618
0.0139619
0.0139619
0.0139619
0.013962
0.013962
0.013962
0.013962
0.013962
0.013962
0.013962
0.013962
0.013962
0.013962
0.013962
0.013962
0.013962
0.013962
0.013962
0.013962
0.013962
0.013962
0.013962
0.013962
0.013962
0.013962
0.0139619
0.0139619
0.0139619
0.0139618
0.0139617
0.0139616
0.0139614
0.0139611
0.0139608
0.0139603
0.0139596
0.0139586
0.0139573
0.0139555
0.013953
0.0139497
0.0139454
0.0139398
0.0139328
0.0143754
0.0143828
0.0143887
0.0143933
0.0143967
0.0143994
0.0144013
0.0144027
0.0144037
0.0144045
0.014405
0.0144054
0.0144056
0.0144058
0.014406
0.0144061
0.0144061
0.0144062
0.0144062
0.0144062
0.0144063
0.0144063
0.0144063
0.0144063
0.0144063
0.0144063
0.0144063
0.0144063
0.0144063
0.0144063
0.0144063
0.0144063
0.0144063
0.0144063
0.0144063
0.0144063
0.0144063
0.0144063
0.0144063
0.0144063
0.0144062
0.0144062
0.0144062
0.0144061
0.0144061
0.014406
0.0144058
0.0144056
0.0144054
0.014405
0.0144045
0.0144037
0.0144027
0.0144013
0.0143994
0.0143967
0.0143933
0.0143887
0.0143828
0.0143754
0.0148777
0.0148857
0.0148919
0.0148968
0.0149005
0.0149033
0.0149053
0.0149069
0.0149079
0.0149087
0.0149093
0.0149097
0.01491
0.0149102
0.0149103
0.0149104
0.0149105
0.0149106
0.0149106
0.0149106
0.0149106
0.0149107
0.0149107
0.0149107
0.0149107
0.0149107
0.0149107
0.0149107
0.0149107
0.0149107
0.0149107
0.0149107
0.0149107
0.0149107
0.0149107
0.0149107
0.0149107
0.0149107
0.0149107
0.0149106
0.0149106
0.0149106
0.0149106
0.0149105
0.0149104
0.0149103
0.0149102
0.01491
0.0149097
0.0149093
0.0149087
0.0149079
0.0149069
0.0149053
0.0149033
0.0149005
0.0148968
0.0148919
0.0148857
0.0148777
0.0154532
0.0154617
0.0154684
0.0154736
0.0154776
0.0154806
0.0154828
0.0154844
0.0154856
0.0154864
0.015487
0.0154874
0.0154878
0.015488
0.0154881
0.0154883
0.0154883
0.0154884
0.0154884
0.0154885
0.0154885
0.0154885
0.0154885
0.0154885
0.0154885
0.0154885
0.0154885
0.0154885
0.0154885
0.0154885
0.0154885
0.0154885
0.0154885
0.0154885
0.0154885
0.0154885
0.0154885
0.0154885
0.0154885
0.0154885
0.0154885
0.0154884
0.0154884
0.0154883
0.0154883
0.0154881
0.015488
0.0154878
0.0154874
0.015487
0.0154864
0.0154856
0.0154844
0.0154828
0.0154806
0.0154776
0.0154736
0.0154684
0.0154617
0.0154532
0.0161194
0.0161286
0.0161358
0.0161415
0.0161458
0.0161491
0.0161514
0.0161532
0.0161545
0.0161554
0.016156
0.0161565
0.0161568
0.0161571
0.0161572
0.0161574
0.0161574
0.0161575
0.0161576
0.0161576
0.0161576
0.0161576
0.0161576
0.0161577
0.0161577
0.0161577
0.0161577
0.0161577
0.0161577
0.0161577
0.0161577
0.0161577
0.0161577
0.0161577
0.0161577
0.0161577
0.0161577
0.0161576
0.0161576
0.0161576
0.0161576
0.0161576
0.0161575
0.0161574
0.0161574
0.0161572
0.0161571
0.0161568
0.0161565
0.016156
0.0161554
0.0161545
0.0161532
0.0161514
0.0161491
0.0161458
0.0161415
0.0161358
0.0161286
0.0161194
0.0169004
0.0169105
0.0169184
0.0169246
0.0169293
0.0169329
0.0169355
0.0169374
0.0169388
0.0169398
0.0169405
0.016941
0.0169414
0.0169417
0.0169418
0.016942
0.0169421
0.0169421
0.0169422
0.0169422
0.0169423
0.0169423
0.0169423
0.0169423
0.0169423
0.0169423
0.0169423
0.0169423
0.0169423
0.0169423
0.0169423
0.0169423
0.0169423
0.0169423
0.0169423
0.0169423
0.0169423
0.0169423
0.0169423
0.0169423
0.0169422
0.0169422
0.0169421
0.0169421
0.016942
0.0169418
0.0169417
0.0169414
0.016941
0.0169405
0.0169398
0.0169388
0.0169374
0.0169355
0.0169329
0.0169293
0.0169246
0.0169184
0.0169105
0.0169004
0.0178298
0.017841
0.0178498
0.0178567
0.017862
0.0178659
0.0178688
0.017871
0.0178725
0.0178736
0.0178744
0.017875
0.0178754
0.0178757
0.0178759
0.017876
0.0178761
0.0178762
0.0178763
0.0178763
0.0178763
0.0178764
0.0178764
0.0178764
0.0178764
0.0178764
0.0178764
0.0178764
0.0178764
0.0178764
0.0178764
0.0178764
0.0178764
0.0178764
0.0178764
0.0178764
0.0178764
0.0178764
0.0178764
0.0178763
0.0178763
0.0178763
0.0178762
0.0178761
0.017876
0.0178759
0.0178757
0.0178754
0.017875
0.0178744
0.0178736
0.0178725
0.017871
0.0178688
0.0178659
0.017862
0.0178567
0.0178498
0.017841
0.0178298
0.0189561
0.0189687
0.0189787
0.0189864
0.0189924
0.0189969
0.0190002
0.0190026
0.0190043
0.0190056
0.0190065
0.0190071
0.0190076
0.0190079
0.0190081
0.0190083
0.0190084
0.0190085
0.0190086
0.0190086
0.0190086
0.0190087
0.0190087
0.0190087
0.0190087
0.0190087
0.0190087
0.0190087
0.0190087
0.0190087
0.0190087
0.0190087
0.0190087
0.0190087
0.0190087
0.0190087
0.0190087
0.0190087
0.0190087
0.0190086
0.0190086
0.0190086
0.0190085
0.0190084
0.0190083
0.0190081
0.0190079
0.0190076
0.0190071
0.0190065
0.0190056
0.0190043
0.0190026
0.0190002
0.0189969
0.0189924
0.0189864
0.0189787
0.0189687
0.0189561
0.0203508
0.0203653
0.0203767
0.0203857
0.0203926
0.0203977
0.0204016
0.0204043
0.0204063
0.0204078
0.0204088
0.0204096
0.0204101
0.0204105
0.0204108
0.020411
0.0204111
0.0204112
0.0204113
0.0204113
0.0204114
0.0204114
0.0204114
0.0204114
0.0204114
0.0204115
0.0204115
0.0204115
0.0204115
0.0204115
0.0204115
0.0204115
0.0204115
0.0204115
0.0204115
0.0204114
0.0204114
0.0204114
0.0204114
0.0204114
0.0204113
0.0204113
0.0204112
0.0204111
0.020411
0.0204108
0.0204105
0.0204101
0.0204096
0.0204088
0.0204078
0.0204063
0.0204043
0.0204016
0.0203977
0.0203926
0.0203857
0.0203767
0.0203653
0.0203508
0.0221219
0.022139
0.0221525
0.0221631
0.0221713
0.0221774
0.0221819
0.0221852
0.0221876
0.0221893
0.0221905
0.0221914
0.0221921
0.0221925
0.0221928
0.0221931
0.0221932
0.0221933
0.0221934
0.0221935
0.0221935
0.0221936
0.0221936
0.0221936
0.0221936
0.0221936
0.0221937
0.0221937
0.0221937
0.0221937
0.0221937
0.0221937
0.0221937
0.0221937
0.0221936
0.0221936
0.0221936
0.0221936
0.0221936
0.0221935
0.0221935
0.0221934
0.0221933
0.0221932
0.0221931
0.0221928
0.0221925
0.0221921
0.0221914
0.0221905
0.0221893
0.0221876
0.0221852
0.0221819
0.0221774
0.0221713
0.0221631
0.0221525
0.022139
0.0221219
0.0244325
0.0244532
0.0244697
0.0244827
0.0244927
0.0245001
0.0245057
0.0245097
0.0245126
0.0245147
0.0245162
0.0245173
0.024518
0.0245186
0.024519
0.0245193
0.0245195
0.0245196
0.0245197
0.0245198
0.0245199
0.0245199
0.0245199
0.02452
0.02452
0.02452
0.02452
0.02452
0.02452
0.02452
0.02452
0.02452
0.02452
0.02452
0.02452
0.02452
0.02452
0.0245199
0.0245199
0.0245199
0.0245198
0.0245197
0.0245196
0.0245195
0.0245193
0.024519
0.0245186
0.024518
0.0245173
0.0245162
0.0245147
0.0245126
0.0245097
0.0245057
0.0245001
0.0244927
0.0244827
0.0244697
0.0244532
0.0244325
0.0275204
0.0275463
0.027567
0.0275833
0.0275958
0.0276053
0.0276122
0.0276173
0.0276209
0.0276236
0.0276255
0.0276268
0.0276278
0.0276285
0.027629
0.0276294
0.0276296
0.0276298
0.0276299
0.02763
0.0276301
0.0276302
0.0276302
0.0276302
0.0276302
0.0276302
0.0276303
0.0276303
0.0276303
0.0276303
0.0276303
0.0276303
0.0276303
0.0276303
0.0276302
0.0276302
0.0276302
0.0276302
0.0276302
0.0276301
0.02763
0.0276299
0.0276298
0.0276296
0.0276294
0.027629
0.0276285
0.0276278
0.0276268
0.0276255
0.0276236
0.0276209
0.0276173
0.0276122
0.0276053
0.0275958
0.0275833
0.027567
0.0275463
0.0275204
0.0317022
0.0317353
0.0317619
0.0317829
0.0317989
0.031811
0.03182
0.0318265
0.0318312
0.0318346
0.031837
0.0318388
0.03184
0.0318409
0.0318416
0.031842
0.0318424
0.0318426
0.0318428
0.0318429
0.031843
0.0318431
0.0318431
0.0318431
0.0318432
0.0318432
0.0318432
0.0318432
0.0318432
0.0318432
0.0318432
0.0318432
0.0318432
0.0318432
0.0318432
0.0318432
0.0318431
0.0318431
0.0318431
0.031843
0.0318429
0.0318428
0.0318426
0.0318424
0.031842
0.0318416
0.0318409
0.03184
0.0318388
0.031837
0.0318346
0.0318312
0.0318265
0.03182
0.031811
0.0317989
0.0317829
0.0317619
0.0317353
0.0317022
0.0373357
0.0373783
0.0374126
0.0374396
0.0374604
0.037476
0.0374875
0.0374959
0.037502
0.0375064
0.0375096
0.0375119
0.0375135
0.0375146
0.0375155
0.0375161
0.0375165
0.0375168
0.037517
0.0375172
0.0375173
0.0375174
0.0375174
0.0375175
0.0375175
0.0375175
0.0375176
0.0375176
0.0375176
0.0375176
0.0375176
0.0375176
0.0375176
0.0375176
0.0375175
0.0375175
0.0375175
0.0375174
0.0375174
0.0375173
0.0375172
0.037517
0.0375168
0.0375165
0.0375161
0.0375155
0.0375146
0.0375135
0.0375119
0.0375096
0.0375064
0.037502
0.0374959
0.0374875
0.037476
0.0374604
0.0374396
0.0374126
0.0373783
0.0373357
0.0447229
0.0447771
0.0448206
0.0448549
0.0448813
0.0449011
0.0449158
0.0449265
0.0449343
0.0449399
0.0449439
0.0449468
0.0449489
0.0449504
0.0449514
0.0449522
0.0449528
0.0449531
0.0449534
0.0449536
0.0449538
0.0449539
0.044954
0.044954
0.0449541
0.0449541
0.0449541
0.0449541
0.0449542
0.0449542
0.0449542
0.0449542
0.0449541
0.0449541
0.0449541
0.0449541
0.044954
0.044954
0.0449539
0.0449538
0.0449536
0.0449534
0.0449531
0.0449528
0.0449522
0.0449514
0.0449504
0.0449489
0.0449468
0.0449439
0.0449399
0.0449343
0.0449265
0.0449158
0.0449011
0.0448813
0.0448549
0.0448206
0.0447771
0.0447229
0.0539872
0.054054
0.0541076
0.0541499
0.0541824
0.0542068
0.054225
0.0542382
0.0542478
0.0542548
0.0542597
0.0542633
0.0542659
0.0542677
0.054269
0.05427
0.0542707
0.0542712
0.0542715
0.0542718
0.054272
0.0542721
0.0542722
0.0542723
0.0542723
0.0542724
0.0542724
0.0542724
0.0542724
0.0542724
0.0542724
0.0542724
0.0542724
0.0542724
0.0542724
0.0542723
0.0542723
0.0542722
0.0542721
0.054272
0.0542718
0.0542715
0.0542712
0.0542707
0.05427
0.054269
0.0542677
0.0542659
0.0542633
0.0542597
0.0542548
0.0542478
0.0542382
0.054225
0.0542068
0.0541824
0.0541499
0.0541076
0.054054
0.0539872
0.0650067
0.0650862
0.0651499
0.0652001
0.0652386
0.0652677
0.0652892
0.065305
0.0653164
0.0653247
0.0653307
0.0653349
0.065338
0.0653402
0.0653418
0.065343
0.0653438
0.0653444
0.0653448
0.0653451
0.0653454
0.0653455
0.0653456
0.0653457
0.0653458
0.0653458
0.0653459
0.0653459
0.0653459
0.0653459
0.0653459
0.0653459
0.0653459
0.0653459
0.0653458
0.0653458
0.0653457
0.0653456
0.0653455
0.0653454
0.0653451
0.0653448
0.0653444
0.0653438
0.065343
0.0653418
0.0653402
0.065338
0.0653349
0.0653307
0.0653247
0.0653164
0.065305
0.0652892
0.0652677
0.0652386
0.0652001
0.0651499
0.0650862
0.0650067
0.0774639
0.0775553
0.0776283
0.0776858
0.07773
0.0777633
0.077788
0.0778062
0.0778194
0.0778289
0.0778358
0.0778407
0.0778443
0.0778469
0.0778487
0.0778501
0.077851
0.0778517
0.0778522
0.0778526
0.0778529
0.0778531
0.0778532
0.0778533
0.0778534
0.0778534
0.0778535
0.0778535
0.0778535
0.0778535
0.0778535
0.0778535
0.0778535
0.0778535
0.0778534
0.0778534
0.0778533
0.0778532
0.0778531
0.0778529
0.0778526
0.0778522
0.0778517
0.077851
0.0778501
0.0778487
0.0778469
0.0778443
0.0778407
0.0778358
0.0778289
0.0778194
0.0778062
0.077788
0.0777633
0.07773
0.0776858
0.0776283
0.0775553
0.0774639
0.0909733
0.0910754
0.0911568
0.0912208
0.0912701
0.0913073
0.091335
0.0913553
0.0913701
0.0913808
0.0913886
0.0913941
0.0913982
0.0914011
0.0914032
0.0914047
0.0914058
0.0914066
0.0914072
0.0914076
0.0914079
0.0914081
0.0914083
0.0914084
0.0914085
0.0914085
0.0914086
0.0914086
0.0914086
0.0914086
0.0914086
0.0914086
0.0914086
0.0914086
0.0914085
0.0914085
0.0914084
0.0914083
0.0914081
0.0914079
0.0914076
0.0914072
0.0914066
0.0914058
0.0914047
0.0914032
0.0914011
0.0913982
0.0913941
0.0913886
0.0913808
0.0913701
0.0913553
0.091335
0.0913073
0.0912701
0.0912208
0.0911568
0.0910754
0.0909733
0.105197
0.105308
0.105397
0.105467
0.105521
0.105562
0.105592
0.105615
0.105631
0.105643
0.105651
0.105658
0.105662
0.105665
0.105668
0.105669
0.105671
0.105671
0.105672
0.105673
0.105673
0.105673
0.105673
0.105674
0.105674
0.105674
0.105674
0.105674
0.105674
0.105674
0.105674
0.105674
0.105674
0.105674
0.105674
0.105674
0.105674
0.105673
0.105673
0.105673
0.105673
0.105672
0.105671
0.105671
0.105669
0.105668
0.105665
0.105662
0.105658
0.105651
0.105643
0.105631
0.105615
0.105592
0.105562
0.105521
0.105467
0.105397
0.105308
0.105197
0.119891
0.120012
0.120108
0.120184
0.120242
0.120286
0.120319
0.120343
0.120361
0.120374
0.120383
0.12039
0.120395
0.120399
0.120401
0.120403
0.120404
0.120405
0.120406
0.120407
0.120407
0.120407
0.120407
0.120408
0.120408
0.120408
0.120408
0.120408
0.120408
0.120408
0.120408
0.120408
0.120408
0.120408
0.120408
0.120408
0.120408
0.120407
0.120407
0.120407
0.120407
0.120406
0.120405
0.120404
0.120403
0.120401
0.120399
0.120395
0.12039
0.120383
0.120374
0.120361
0.120343
0.120319
0.120286
0.120242
0.120184
0.120108
0.120012
0.119891
0.134905
0.135034
0.135137
0.135217
0.13528
0.135327
0.135362
0.135389
0.135408
0.135422
0.135432
0.135439
0.135445
0.135448
0.135451
0.135453
0.135455
0.135456
0.135457
0.135457
0.135458
0.135458
0.135458
0.135458
0.135459
0.135459
0.135459
0.135459
0.135459
0.135459
0.135459
0.135459
0.135459
0.135459
0.135459
0.135459
0.135458
0.135458
0.135458
0.135458
0.135457
0.135457
0.135456
0.135455
0.135453
0.135451
0.135448
0.135445
0.135439
0.135432
0.135422
0.135408
0.135389
0.135362
0.135327
0.13528
0.135217
0.135137
0.135034
0.134905
0.150143
0.150281
0.15039
0.150476
0.150542
0.150593
0.150631
0.150659
0.150679
0.150694
0.150705
0.150713
0.150719
0.150723
0.150726
0.150729
0.15073
0.150731
0.150732
0.150733
0.150733
0.150734
0.150734
0.150734
0.150734
0.150734
0.150734
0.150734
0.150734
0.150734
0.150734
0.150734
0.150734
0.150734
0.150734
0.150734
0.150734
0.150734
0.150734
0.150733
0.150733
0.150732
0.150731
0.15073
0.150729
0.150726
0.150723
0.150719
0.150713
0.150705
0.150694
0.150679
0.150659
0.150631
0.150593
0.150542
0.150476
0.15039
0.150281
0.150143
0.165551
0.165696
0.165812
0.165903
0.165973
0.166027
0.166067
0.166097
0.166119
0.166135
0.166147
0.166155
0.166162
0.166166
0.166169
0.166172
0.166174
0.166175
0.166176
0.166177
0.166177
0.166178
0.166178
0.166178
0.166178
0.166178
0.166178
0.166178
0.166178
0.166178
0.166178
0.166178
0.166178
0.166178
0.166178
0.166178
0.166178
0.166178
0.166178
0.166177
0.166177
0.166176
0.166175
0.166174
0.166172
0.166169
0.166166
0.166162
0.166155
0.166147
0.166135
0.166119
0.166097
0.166067
0.166027
0.165973
0.165903
0.165812
0.165696
0.165551
0.181089
0.181242
0.181364
0.181459
0.181534
0.181591
0.181633
0.181665
0.181689
0.181706
0.181719
0.181728
0.181735
0.181739
0.181743
0.181746
0.181748
0.181749
0.18175
0.181751
0.181751
0.181752
0.181752
0.181752
0.181753
0.181753
0.181753
0.181753
0.181753
0.181753
0.181753
0.181753
0.181753
0.181753
0.181753
0.181753
0.181752
0.181752
0.181752
0.181751
0.181751
0.18175
0.181749
0.181748
0.181746
0.181743
0.181739
0.181735
0.181728
0.181719
0.181706
0.181689
0.181665
0.181633
0.181591
0.181534
0.181459
0.181364
0.181242
0.181089
0.196731
0.196891
0.197018
0.197119
0.197197
0.197257
0.197302
0.197336
0.197361
0.197379
0.197393
0.197403
0.19741
0.197415
0.197419
0.197422
0.197424
0.197426
0.197427
0.197428
0.197428
0.197429
0.197429
0.197429
0.19743
0.19743
0.19743
0.19743
0.19743
0.19743
0.19743
0.19743
0.19743
0.19743
0.19743
0.19743
0.197429
0.197429
0.197429
0.197428
0.197428
0.197427
0.197426
0.197424
0.197422
0.197419
0.197415
0.19741
0.197403
0.197393
0.197379
0.197361
0.197336
0.197302
0.197257
0.197197
0.197119
0.197018
0.196891
0.196731
0.212453
0.212619
0.212753
0.212858
0.212941
0.213004
0.213051
0.213087
0.213114
0.213133
0.213148
0.213158
0.213166
0.213172
0.213176
0.213179
0.213181
0.213183
0.213184
0.213185
0.213186
0.213186
0.213187
0.213187
0.213187
0.213187
0.213187
0.213188
0.213188
0.213188
0.213188
0.213188
0.213188
0.213187
0.213187
0.213187
0.213187
0.213187
0.213186
0.213186
0.213185
0.213184
0.213183
0.213181
0.213179
0.213176
0.213172
0.213166
0.213158
0.213148
0.213133
0.213114
0.213087
0.213051
0.213004
0.212941
0.212858
0.212753
0.212619
0.212453
0.228237
0.22841
0.228549
0.228659
0.228745
0.228811
0.228862
0.228899
0.228927
0.228948
0.228964
0.228975
0.228983
0.22899
0.228994
0.228997
0.229
0.229002
0.229003
0.229004
0.229005
0.229005
0.229006
0.229006
0.229006
0.229006
0.229006
0.229007
0.229007
0.229007
0.229007
0.229007
0.229007
0.229006
0.229006
0.229006
0.229006
0.229006
0.229005
0.229005
0.229004
0.229003
0.229002
0.229
0.228997
0.228994
0.22899
0.228983
0.228975
0.228964
0.228948
0.228927
0.228899
0.228862
0.228811
0.228745
0.228659
0.228549
0.22841
0.228237
0.244065
0.244245
0.244389
0.244504
0.244594
0.244663
0.244716
0.244756
0.244786
0.244808
0.244824
0.244836
0.244845
0.244852
0.244857
0.24486
0.244863
0.244865
0.244866
0.244867
0.244868
0.244869
0.244869
0.244869
0.24487
0.24487
0.24487
0.24487
0.24487
0.24487
0.24487
0.24487
0.24487
0.24487
0.24487
0.24487
0.244869
0.244869
0.244869
0.244868
0.244867
0.244866
0.244865
0.244863
0.24486
0.244857
0.244852
0.244845
0.244836
0.244824
0.244808
0.244786
0.244756
0.244716
0.244663
0.244594
0.244504
0.244389
0.244245
0.244065
0.259922
0.260108
0.260258
0.260378
0.260471
0.260544
0.260599
0.260641
0.260672
0.260696
0.260713
0.260726
0.260735
0.260742
0.260748
0.260752
0.260754
0.260757
0.260758
0.260759
0.26076
0.260761
0.260761
0.260762
0.260762
0.260762
0.260762
0.260762
0.260762
0.260762
0.260762
0.260762
0.260762
0.260762
0.260762
0.260762
0.260762
0.260761
0.260761
0.26076
0.260759
0.260758
0.260757
0.260754
0.260752
0.260748
0.260742
0.260735
0.260726
0.260713
0.260696
0.260672
0.260641
0.260599
0.260544
0.260471
0.260378
0.260258
0.260108
0.259922
0.275794
0.275986
0.276141
0.276265
0.276362
0.276438
0.276496
0.27654
0.276573
0.276597
0.276616
0.276629
0.27664
0.276647
0.276653
0.276657
0.27666
0.276662
0.276664
0.276665
0.276666
0.276667
0.276667
0.276668
0.276668
0.276668
0.276668
0.276669
0.276669
0.276669
0.276669
0.276669
0.276669
0.276668
0.276668
0.276668
0.276668
0.276667
0.276667
0.276666
0.276665
0.276664
0.276662
0.27666
0.276657
0.276653
0.276647
0.27664
0.276629
0.276616
0.276597
0.276573
0.27654
0.276496
0.276438
0.276362
0.276265
0.276141
0.275986
0.275794
0.291666
0.291864
0.292024
0.292152
0.292253
0.292332
0.292392
0.292438
0.292473
0.292499
0.292519
0.292533
0.292544
0.292552
0.292558
0.292563
0.292566
0.292568
0.29257
0.292572
0.292573
0.292573
0.292574