/*--------------------------------*- C++ -*----------------------------------*\
| =========                 |                                                 |
| \\      /  F ield         | foam-extend: Open Source CFD                    |
|  \\    /   O peration     | Version:     4.0                                |
|   \\  /    A nd           | Web:         http://www.foam-extend.org         |
|    \\/     M anipulation  |                                                 |
\*---------------------------------------------------------------------------*/
FoamFile
{
    version     2.0;
    format      ascii;
    class       volVectorField;
    location    "14";
    object      bodyForce;
}
// * * * * * * * * * * * * * * * * * * * * * * * * * * * * * * * * * * * * * //

dimensions      [0 -1 0 0 0 0 0];

internalField   nonuniform List<vector> 
6960
(
(-2.56508e-05 -9.88373e+08 -0)
(-4.0125e-05 -9.88373e+08 -0)
(-1.90379e-05 -9.88373e+08 -0)
(-6.62472e-06 -9.88373e+08 -0)
(-2.91796e-06 -9.88373e+08 -0)
(-1.38781e-06 -9.88373e+08 -0)
(-8.18453e-07 -9.88373e+08 -0)
(-4.68535e-07 -9.88373e+08 -0)
(-2.69852e-07 -9.88373e+08 -0)
(-1.0972e-07 -9.88373e+08 -0)
(-1.77925e-08 -9.88373e+08 -0)
(5.0412e-08 -9.88373e+08 -0)
(1.0972e-07 -9.88373e+08 -0)
(1.4827e-07 -9.88373e+08 -0)
(1.89786e-07 -9.88373e+08 -0)
(2.10544e-07 -9.88373e+08 -0)
(2.22406e-07 -9.88373e+08 -0)
(2.31302e-07 -9.88373e+08 -0)
(2.28337e-07 -9.88373e+08 -0)
(2.1944e-07 -9.88373e+08 -0)
(2.16475e-07 -9.88373e+08 -0)
(2.01648e-07 -9.88373e+08 -0)
(1.95717e-07 -9.88373e+08 -0)
(1.69028e-07 -9.88373e+08 -0)
(1.4827e-07 -9.88373e+08 -0)
(1.27513e-07 -9.88373e+08 -0)
(9.78585e-08 -9.88373e+08 -0)
(6.5239e-08 -9.88373e+08 -0)
(4.44811e-08 -9.88373e+08 -0)
(1.18616e-08 -9.88373e+08 -0)
(-8.89623e-09 -9.88373e+08 -0)
(-3.55849e-08 -9.88373e+08 -0)
(-7.71006e-08 -9.88373e+08 -0)
(-9.78585e-08 -9.88373e+08 -0)
(-1.36409e-07 -9.88373e+08 -0)
(-1.51236e-07 -9.88373e+08 -0)
(-1.66063e-07 -9.88373e+08 -0)
(-1.98682e-07 -9.88373e+08 -0)
(-2.01648e-07 -9.88373e+08 -0)
(-2.04613e-07 -9.88373e+08 -0)
(-2.25371e-07 -9.88373e+08 -0)
(-2.31302e-07 -9.88373e+08 -0)
(-2.25371e-07 -9.88373e+08 -0)
(-2.25371e-07 -9.88373e+08 -0)
(-2.22406e-07 -9.88373e+08 -0)
(-1.89786e-07 -9.88373e+08 -0)
(-1.54201e-07 -9.88373e+08 -0)
(-1.0972e-07 -9.88373e+08 -0)
(-5.93082e-08 -9.88373e+08 -0)
(2.37233e-08 -9.88373e+08 -0)
(1.12686e-07 -9.88373e+08 -0)
(2.60956e-07 -9.88373e+08 -0)
(4.62604e-07 -9.88373e+08 -0)
(8.21418e-07 -9.88373e+08 -0)
(1.38485e-06 -9.88373e+08 -0)
(2.915e-06 -9.88373e+08 -0)
(6.61879e-06 -9.88373e+08 -0)
(1.9035e-05 -9.88373e+08 -0)
(4.0125e-05 -9.88373e+08 -0)
(2.56449e-05 -9.88373e+08 -0)
(-6.41134e-05 -2.12219e+08 -0)
(-0.000100954 -2.12219e+08 -0)
(-4.90101e-05 -2.12219e+08 -0)
(-1.75603e-05 -2.12219e+08 -0)
(-7.6191e-06 -2.12219e+08 -0)
(-3.62973e-06 -2.12219e+08 -0)
(-2.15203e-06 -2.12219e+08 -0)
(-1.23336e-06 -2.12219e+08 -0)
(-7.07572e-07 -2.12219e+08 -0)
(-3.0883e-07 -2.12219e+08 -0)
(-5.86386e-08 -2.12219e+08 -0)
(1.32914e-07 -2.12219e+08 -0)
(2.75601e-07 -2.12219e+08 -0)
(3.90924e-07 -2.12219e+08 -0)
(4.867e-07 -2.12219e+08 -0)
(5.47293e-07 -2.12219e+08 -0)
(5.76612e-07 -2.12219e+08 -0)
(5.98113e-07 -2.12219e+08 -0)
(5.94204e-07 -2.12219e+08 -0)
(5.82476e-07 -2.12219e+08 -0)
(5.66839e-07 -2.12219e+08 -0)
(5.19929e-07 -2.12219e+08 -0)
(4.88655e-07 -2.12219e+08 -0)
(4.49562e-07 -2.12219e+08 -0)
(3.77241e-07 -2.12219e+08 -0)
(3.28376e-07 -2.12219e+08 -0)
(2.5801e-07 -2.12219e+08 -0)
(1.73961e-07 -2.12219e+08 -0)
(1.09459e-07 -2.12219e+08 -0)
(3.71378e-08 -2.12219e+08 -0)
(-2.73647e-08 -2.12219e+08 -0)
(-1.05549e-07 -2.12219e+08 -0)
(-1.85689e-07 -2.12219e+08 -0)
(-2.59964e-07 -2.12219e+08 -0)
(-3.30331e-07 -2.12219e+08 -0)
(-3.90924e-07 -2.12219e+08 -0)
(-4.53471e-07 -2.12219e+08 -0)
(-5.10155e-07 -2.12219e+08 -0)
(-5.19929e-07 -2.12219e+08 -0)
(-5.45339e-07 -2.12219e+08 -0)
(-5.80522e-07 -2.12219e+08 -0)
(-5.90295e-07 -2.12219e+08 -0)
(-5.86386e-07 -2.12219e+08 -0)
(-5.8834e-07 -2.12219e+08 -0)
(-5.66839e-07 -2.12219e+08 -0)
(-4.94518e-07 -2.12219e+08 -0)
(-4.04606e-07 -2.12219e+08 -0)
(-2.93193e-07 -2.12219e+08 -0)
(-1.40733e-07 -2.12219e+08 -0)
(6.05932e-08 -2.12219e+08 -0)
(3.06875e-07 -2.12219e+08 -0)
(6.88026e-07 -2.12219e+08 -0)
(1.21968e-06 -2.12219e+08 -0)
(2.15008e-06 -2.12219e+08 -0)
(3.64536e-06 -2.12219e+08 -0)
(7.62497e-06 -2.12219e+08 -0)
(1.75447e-05 -2.12219e+08 -0)
(4.90003e-05 -2.12219e+08 -0)
(0.000100958 -2.12219e+08 -0)
(6.41134e-05 -2.12219e+08 -0)
(-6.59414e-05 -7.87495e+07 -0)
(-0.000106673 -7.87495e+07 -0)
(-5.39503e-05 -7.87495e+07 -0)
(-1.91103e-05 -7.87495e+07 -0)
(-8.33623e-06 -7.87495e+07 -0)
(-3.98555e-06 -7.87495e+07 -0)
(-2.36154e-06 -7.87495e+07 -0)
(-1.35516e-06 -7.87495e+07 -0)
(-7.84757e-07 -7.87495e+07 -0)
(-3.41515e-07 -7.87495e+07 -0)
(-6.7213e-08 -7.87495e+07 -0)
(1.34426e-07 -7.87495e+07 -0)
(2.99734e-07 -7.87495e+07 -0)
(4.25077e-07 -7.87495e+07 -0)
(5.28621e-07 -7.87495e+07 -0)
(5.95834e-07 -7.87495e+07 -0)
(6.28533e-07 -7.87495e+07 -0)
(6.48515e-07 -7.87495e+07 -0)
(6.43065e-07 -7.87495e+07 -0)
(6.32166e-07 -7.87495e+07 -0)
(6.21266e-07 -7.87495e+07 -0)
(5.70402e-07 -7.87495e+07 -0)
(5.28621e-07 -7.87495e+07 -0)
(4.85024e-07 -7.87495e+07 -0)
(4.14178e-07 -7.87495e+07 -0)
(3.57864e-07 -7.87495e+07 -0)
(2.83385e-07 -7.87495e+07 -0)
(1.88923e-07 -7.87495e+07 -0)
(1.1626e-07 -7.87495e+07 -0)
(3.81479e-08 -7.87495e+07 -0)
(-3.26982e-08 -7.87495e+07 -0)
(-1.12627e-07 -7.87495e+07 -0)
(-1.96189e-07 -7.87495e+07 -0)
(-2.79751e-07 -7.87495e+07 -0)
(-3.6513e-07 -7.87495e+07 -0)
(-4.2326e-07 -7.87495e+07 -0)
(-4.94107e-07 -7.87495e+07 -0)
(-5.57686e-07 -7.87495e+07 -0)
(-5.70402e-07 -7.87495e+07 -0)
(-5.94018e-07 -7.87495e+07 -0)
(-6.30349e-07 -7.87495e+07 -0)
(-6.41249e-07 -7.87495e+07 -0)
(-6.35799e-07 -7.87495e+07 -0)
(-6.35799e-07 -7.87495e+07 -0)
(-6.17633e-07 -7.87495e+07 -0)
(-5.35888e-07 -7.87495e+07 -0)
(-4.37793e-07 -7.87495e+07 -0)
(-3.1245e-07 -7.87495e+07 -0)
(-1.58041e-07 -7.87495e+07 -0)
(6.7213e-08 -7.87495e+07 -0)
(3.45148e-07 -7.87495e+07 -0)
(7.61142e-07 -7.87495e+07 -0)
(1.33881e-06 -7.87495e+07 -0)
(2.36335e-06 -7.87495e+07 -0)
(3.99827e-06 -7.87495e+07 -0)
(8.33986e-06 -7.87495e+07 -0)
(1.90958e-05 -7.87495e+07 -0)
(5.3943e-05 -7.87495e+07 -0)
(0.000106673 -7.87495e+07 -0)
(6.5936e-05 -7.87495e+07 -0)
(-6.16407e-05 -3.87517e+07 -0)
(-0.000100834 -3.87517e+07 -0)
(-5.19602e-05 -3.87517e+07 -0)
(-1.84994e-05 -3.87517e+07 -0)
(-8.12621e-06 -3.87517e+07 -0)
(-3.89455e-06 -3.87517e+07 -0)
(-2.30743e-06 -3.87517e+07 -0)
(-1.3279e-06 -3.87517e+07 -0)
(-7.71534e-07 -3.87517e+07 -0)
(-3.40172e-07 -3.87517e+07 -0)
(-7.17229e-08 -3.87517e+07 -0)
(1.27052e-07 -3.87517e+07 -0)
(2.84842e-07 -3.87517e+07 -0)
(4.08821e-07 -3.87517e+07 -0)
(5.09233e-07 -3.87517e+07 -0)
(5.79931e-07 -3.87517e+07 -0)
(6.0862e-07 -3.87517e+07 -0)
(6.25014e-07 -3.87517e+07 -0)
(6.22965e-07 -3.87517e+07 -0)
(6.12719e-07 -3.87517e+07 -0)
(6.00423e-07 -3.87517e+07 -0)
(5.54316e-07 -3.87517e+07 -0)
(5.12306e-07 -3.87517e+07 -0)
(4.72347e-07 -3.87517e+07 -0)
(4.03698e-07 -3.87517e+07 -0)
(3.46319e-07 -3.87517e+07 -0)
(2.71522e-07 -3.87517e+07 -0)
(1.83406e-07 -3.87517e+07 -0)
(1.14757e-07 -3.87517e+07 -0)
(3.89353e-08 -3.87517e+07 -0)
(-3.27876e-08 -3.87517e+07 -0)
(-1.09634e-07 -3.87517e+07 -0)
(-1.91603e-07 -3.87517e+07 -0)
(-2.72547e-07 -3.87517e+07 -0)
(-3.53491e-07 -3.87517e+07 -0)
(-4.06771e-07 -3.87517e+07 -0)
(-4.7747e-07 -3.87517e+07 -0)
(-5.38946e-07 -3.87517e+07 -0)
(-5.5534e-07 -3.87517e+07 -0)
(-5.78906e-07 -3.87517e+07 -0)
(-6.11694e-07 -3.87517e+07 -0)
(-6.20915e-07 -3.87517e+07 -0)
(-6.12719e-07 -3.87517e+07 -0)
(-6.17842e-07 -3.87517e+07 -0)
(-5.953e-07 -3.87517e+07 -0)
(-5.1743e-07 -3.87517e+07 -0)
(-4.22141e-07 -3.87517e+07 -0)
(-3.0431e-07 -3.87517e+07 -0)
(-1.49593e-07 -3.87517e+07 -0)
(7.06983e-08 -3.87517e+07 -0)
(3.4427e-07 -3.87517e+07 -0)
(7.50017e-07 -3.87517e+07 -0)
(1.3115e-06 -3.87517e+07 -0)
(2.30948e-06 -3.87517e+07 -0)
(3.9089e-06 -3.87517e+07 -0)
(8.1303e-06 -3.87517e+07 -0)
(1.84861e-05 -3.87517e+07 -0)
(5.19591e-05 -3.87517e+07 -0)
(0.000100834 -3.87517e+07 -0)
(6.16325e-05 -3.87517e+07 -0)
(-5.76899e-05 -2.31832e+07 -0)
(-9.47639e-05 -2.31832e+07 -0)
(-4.93324e-05 -2.31832e+07 -0)
(-1.78114e-05 -2.31832e+07 -0)
(-7.8863e-06 -2.31832e+07 -0)
(-3.7919e-06 -2.31832e+07 -0)
(-2.24919e-06 -2.31832e+07 -0)
(-1.29803e-06 -2.31832e+07 -0)
(-7.56229e-07 -2.31832e+07 -0)
(-3.36774e-07 -2.31832e+07 -0)
(-7.5959e-08 -2.31832e+07 -0)
(1.16291e-07 -2.31832e+07 -0)
(2.72243e-07 -2.31832e+07 -0)
(3.93239e-07 -2.31832e+07 -0)
(4.92053e-07 -2.31832e+07 -0)
(5.54568e-07 -2.31832e+07 -0)
(5.8549e-07 -2.31832e+07 -0)
(6.03639e-07 -2.31832e+07 -0)
(6.00278e-07 -2.31832e+07 -0)
(5.88851e-07 -2.31832e+07 -0)
(5.78095e-07 -2.31832e+07 -0)
(5.34402e-07 -2.31832e+07 -0)
(4.9407e-07 -2.31832e+07 -0)
(4.55082e-07 -2.31832e+07 -0)
(3.92567e-07 -2.31832e+07 -0)
(3.33413e-07 -2.31832e+07 -0)
(2.63504e-07 -2.31832e+07 -0)
(1.77462e-07 -2.31832e+07 -0)
(1.09569e-07 -2.31832e+07 -0)
(3.76434e-08 -2.31832e+07 -0)
(-3.22658e-08 -2.31832e+07 -0)
(-1.04864e-07 -2.31832e+07 -0)
(-1.84856e-07 -2.31832e+07 -0)
(-2.66193e-07 -2.31832e+07 -0)
(-3.38791e-07 -2.31832e+07 -0)
(-3.89206e-07 -2.31832e+07 -0)
(-4.63148e-07 -2.31832e+07 -0)
(-5.22302e-07 -2.31832e+07 -0)
(-5.31713e-07 -2.31832e+07 -0)
(-5.59946e-07 -2.31832e+07 -0)
(-5.88851e-07 -2.31832e+07 -0)
(-5.96245e-07 -2.31832e+07 -0)
(-5.93556e-07 -2.31832e+07 -0)
(-5.949e-07 -2.31832e+07 -0)
(-5.72718e-07 -2.31832e+07 -0)
(-4.96759e-07 -2.31832e+07 -0)
(-4.03994e-07 -2.31832e+07 -0)
(-2.90392e-07 -2.31832e+07 -0)
(-1.39818e-07 -2.31832e+07 -0)
(7.46146e-08 -2.31832e+07 -0)
(3.42824e-07 -2.31832e+07 -0)
(7.32702e-07 -2.31832e+07 -0)
(1.28122e-06 -2.31832e+07 -0)
(2.24987e-06 -2.31832e+07 -0)
(3.80736e-06 -2.31832e+07 -0)
(7.891e-06 -2.31832e+07 -0)
(1.77966e-05 -2.31832e+07 -0)
(4.9331e-05 -2.31832e+07 -0)
(9.47626e-05 -2.31832e+07 -0)
(5.76791e-05 -2.31832e+07 -0)
(-5.53981e-05 -1.61043e+07 -0)
(-9.12455e-05 -1.61043e+07 -0)
(-4.79676e-05 -1.61043e+07 -0)
(-1.76617e-05 -1.61043e+07 -0)
(-7.88738e-06 -1.61043e+07 -0)
(-3.80891e-06 -1.61043e+07 -0)
(-2.2617e-06 -1.61043e+07 -0)
(-1.31072e-06 -1.61043e+07 -0)
(-7.63586e-07 -1.61043e+07 -0)
(-3.44716e-07 -1.61043e+07 -0)
(-8.21707e-08 -1.61043e+07 -0)
(1.10229e-07 -1.61043e+07 -0)
(2.6455e-07 -1.61043e+07 -0)
(3.87806e-07 -1.61043e+07 -0)
(4.8601e-07 -1.61043e+07 -0)
(5.47137e-07 -1.61043e+07 -0)
(5.80205e-07 -1.61043e+07 -0)
(6.01249e-07 -1.61043e+07 -0)
(5.94234e-07 -1.61043e+07 -0)
(5.84214e-07 -1.61043e+07 -0)
(5.74193e-07 -1.61043e+07 -0)
(5.31103e-07 -1.61043e+07 -0)
(4.9102e-07 -1.61043e+07 -0)
(4.51939e-07 -1.61043e+07 -0)
(3.87806e-07 -1.61043e+07 -0)
(3.32691e-07 -1.61043e+07 -0)
(2.61543e-07 -1.61043e+07 -0)
(1.75364e-07 -1.61043e+07 -0)
(1.10229e-07 -1.61043e+07 -0)
(4.10853e-08 -1.61043e+07 -0)
(-3.40708e-08 -1.61043e+07 -0)
(-1.05219e-07 -1.61043e+07 -0)
(-1.81377e-07 -1.61043e+07 -0)
(-2.63547e-07 -1.61043e+07 -0)
(-3.35697e-07 -1.61043e+07 -0)
(-3.86804e-07 -1.61043e+07 -0)
(-4.6196e-07 -1.61043e+07 -0)
(-5.18076e-07 -1.61043e+07 -0)
(-5.29099e-07 -1.61043e+07 -0)
(-5.57157e-07 -1.61043e+07 -0)
(-5.83211e-07 -1.61043e+07 -0)
(-5.90226e-07 -1.61043e+07 -0)
(-5.9223e-07 -1.61043e+07 -0)
(-5.89224e-07 -1.61043e+07 -0)
(-5.65174e-07 -1.61043e+07 -0)
(-4.94026e-07 -1.61043e+07 -0)
(-3.95822e-07 -1.61043e+07 -0)
(-2.80583e-07 -1.61043e+07 -0)
(-1.35281e-07 -1.61043e+07 -0)
(8.21707e-08 -1.61043e+07 -0)
(3.50729e-07 -1.61043e+07 -0)
(7.40538e-07 -1.61043e+07 -0)
(1.28968e-06 -1.61043e+07 -0)
(2.2627e-06 -1.61043e+07 -0)
(3.82394e-06 -1.61043e+07 -0)
(7.89239e-06 -1.61043e+07 -0)
(1.76497e-05 -1.61043e+07 -0)
(4.79656e-05 -1.61043e+07 -0)
(9.12445e-05 -1.61043e+07 -0)
(5.53881e-05 -1.61043e+07 -0)
(-5.42862e-05 -1.24737e+07 -0)
(-8.97405e-05 -1.24737e+07 -0)
(-4.78092e-05 -1.24737e+07 -0)
(-1.80585e-05 -1.24737e+07 -0)
(-8.13699e-06 -1.24737e+07 -0)
(-3.94964e-06 -1.24737e+07 -0)
(-2.34337e-06 -1.24737e+07 -0)
(-1.36525e-06 -1.24737e+07 -0)
(-7.99832e-07 -1.24737e+07 -0)
(-3.65661e-07 -1.24737e+07 -0)
(-9.40979e-08 -1.24737e+07 -0)
(1.04828e-07 -1.24737e+07 -0)
(2.66611e-07 -1.24737e+07 -0)
(3.93725e-07 -1.24737e+07 -0)
(4.91951e-07 -1.24737e+07 -0)
(5.57159e-07 -1.24737e+07 -0)
(5.91001e-07 -1.24737e+07 -0)
(6.12462e-07 -1.24737e+07 -0)
(6.09986e-07 -1.24737e+07 -0)
(5.97604e-07 -1.24737e+07 -0)
(5.86874e-07 -1.24737e+07 -0)
(5.42301e-07 -1.24737e+07 -0)
(5.01856e-07 -1.24737e+07 -0)
(4.63886e-07 -1.24737e+07 -0)
(3.97853e-07 -1.24737e+07 -0)
(3.40899e-07 -1.24737e+07 -0)
(2.67436e-07 -1.24737e+07 -0)
(1.79942e-07 -1.24737e+07 -0)
(1.13908e-07 -1.24737e+07 -0)
(4.29219e-08 -1.24737e+07 -0)
(-3.54931e-08 -1.24737e+07 -0)
(-1.07305e-07 -1.24737e+07 -0)
(-1.8572e-07 -1.24737e+07 -0)
(-2.70738e-07 -1.24737e+07 -0)
(-3.42549e-07 -1.24737e+07 -0)
(-3.94551e-07 -1.24737e+07 -0)
(-4.7214e-07 -1.24737e+07 -0)
(-5.29094e-07 -1.24737e+07 -0)
(-5.4065e-07 -1.24737e+07 -0)
(-5.6954e-07 -1.24737e+07 -0)
(-5.99255e-07 -1.24737e+07 -0)
(-6.05033e-07 -1.24737e+07 -0)
(-6.02557e-07 -1.24737e+07 -0)
(-6.01731e-07 -1.24737e+07 -0)
(-5.7862e-07 -1.24737e+07 -0)
(-5.01856e-07 -1.24737e+07 -0)
(-4.00329e-07 -1.24737e+07 -0)
(-2.83945e-07 -1.24737e+07 -0)
(-1.31242e-07 -1.24737e+07 -0)
(9.24471e-08 -1.24737e+07 -0)
(3.70614e-07 -1.24737e+07 -0)
(7.78371e-07 -1.24737e+07 -0)
(1.34461e-06 -1.24737e+07 -0)
(2.34667e-06 -1.24737e+07 -0)
(3.96532e-06 -1.24737e+07 -0)
(8.1403e-06 -1.24737e+07 -0)
(1.80453e-05 -1.24737e+07 -0)
(4.78075e-05 -1.24737e+07 -0)
(8.97364e-05 -1.24737e+07 -0)
(5.42739e-05 -1.24737e+07 -0)
(-5.31178e-05 -1.03512e+07 -0)
(-8.83116e-05 -1.03512e+07 -0)
(-4.79668e-05 -1.03512e+07 -0)
(-1.87237e-05 -1.03512e+07 -0)
(-8.51631e-06 -1.03512e+07 -0)
(-4.15774e-06 -1.03512e+07 -0)
(-2.46816e-06 -1.03512e+07 -0)
(-1.44582e-06 -1.03512e+07 -0)
(-8.52795e-07 -1.03512e+07 -0)
(-3.95837e-07 -1.03512e+07 -0)
(-1.12057e-07 -1.03512e+07 -0)
(1.0187e-07 -1.03512e+07 -0)
(2.7141e-07 -1.03512e+07 -0)
(4.0093e-07 -1.03512e+07 -0)
(5.04983e-07 -1.03512e+07 -0)
(5.74109e-07 -1.03512e+07 -0)
(6.11219e-07 -1.03512e+07 -0)
(6.33775e-07 -1.03512e+07 -0)
(6.31593e-07 -1.03512e+07 -0)
(6.1995e-07 -1.03512e+07 -0)
(6.06853e-07 -1.03512e+07 -0)
(5.60284e-07 -1.03512e+07 -0)
(5.20263e-07 -1.03512e+07 -0)
(4.83881e-07 -1.03512e+07 -0)
(4.14755e-07 -1.03512e+07 -0)
(3.53634e-07 -1.03512e+07 -0)
(2.76504e-07 -1.03512e+07 -0)
(1.84821e-07 -1.03512e+07 -0)
(1.18606e-07 -1.03512e+07 -0)
(4.51138e-08 -1.03512e+07 -0)
(-3.8565e-08 -1.03512e+07 -0)
(-1.10601e-07 -1.03512e+07 -0)
(-1.90642e-07 -1.03512e+07 -0)
(-2.80142e-07 -1.03512e+07 -0)
(-3.54361e-07 -1.03512e+07 -0)
(-4.08934e-07 -1.03512e+07 -0)
(-4.88247e-07 -1.03512e+07 -0)
(-5.47914e-07 -1.03512e+07 -0)
(-5.60284e-07 -1.03512e+07 -0)
(-5.90845e-07 -1.03512e+07 -0)
(-6.20678e-07 -1.03512e+07 -0)
(-6.27227e-07 -1.03512e+07 -0)
(-6.25771e-07 -1.03512e+07 -0)
(-6.22133e-07 -1.03512e+07 -0)
(-5.98121e-07 -1.03512e+07 -0)
(-5.16625e-07 -1.03512e+07 -0)
(-4.08207e-07 -1.03512e+07 -0)
(-2.86691e-07 -1.03512e+07 -0)
(-1.2661e-07 -1.03512e+07 -0)
(1.06963e-07 -1.03512e+07 -0)
(4.00203e-07 -1.03512e+07 -0)
(8.27328e-07 -1.03512e+07 -0)
(1.42472e-06 -1.03512e+07 -0)
(2.47398e-06 -1.03512e+07 -0)
(4.1752e-06 -1.03512e+07 -0)
(8.51849e-06 -1.03512e+07 -0)
(1.87069e-05 -1.03512e+07 -0)
(4.79676e-05 -1.03512e+07 -0)
(8.83094e-05 -1.03512e+07 -0)
(5.31025e-05 -1.03512e+07 -0)
(-5.04949e-05 -8.88893e+06 -0)
(-8.47071e-05 -8.88893e+06 -0)
(-4.73266e-05 -8.88893e+06 -0)
(-1.92751e-05 -8.88893e+06 -0)
(-8.85246e-06 -8.88893e+06 -0)
(-4.35592e-06 -8.88893e+06 -0)
(-2.58916e-06 -8.88893e+06 -0)
(-1.52617e-06 -8.88893e+06 -0)
(-9.07705e-07 -8.88893e+06 -0)
(-4.29194e-07 -8.88893e+06 -0)
(-1.29958e-07 -8.88893e+06 -0)
(9.3303e-08 -8.88893e+06 -0)
(2.69912e-07 -8.88893e+06 -0)
(4.04535e-07 -8.88893e+06 -0)
(5.13833e-07 -8.88893e+06 -0)
(5.86476e-07 -8.88893e+06 -0)
(6.23797e-07 -8.88893e+06 -0)
(6.49789e-07 -8.88893e+06 -0)
(6.49789e-07 -8.88893e+06 -0)
(6.35127e-07 -8.88893e+06 -0)
(6.24464e-07 -8.88893e+06 -0)
(5.75146e-07 -8.88893e+06 -0)
(5.33827e-07 -8.88893e+06 -0)
(5.0117e-07 -8.88893e+06 -0)
(4.28527e-07 -8.88893e+06 -0)
(3.61882e-07 -8.88893e+06 -0)
(2.85907e-07 -8.88893e+06 -0)
(1.90605e-07 -8.88893e+06 -0)
(1.20627e-07 -8.88893e+06 -0)
(4.86509e-08 -8.88893e+06 -0)
(-3.79877e-08 -8.88893e+06 -0)
(-1.14629e-07 -8.88893e+06 -0)
(-1.95936e-07 -8.88893e+06 -0)
(-2.87906e-07 -8.88893e+06 -0)
(-3.62549e-07 -8.88893e+06 -0)
(-4.19197e-07 -8.88893e+06 -0)
(-5.01837e-07 -8.88893e+06 -0)
(-5.63817e-07 -8.88893e+06 -0)
(-5.75813e-07 -8.88893e+06 -0)
(-6.08469e-07 -8.88893e+06 -0)
(-6.39792e-07 -8.88893e+06 -0)
(-6.42458e-07 -8.88893e+06 -0)
(-6.43791e-07 -8.88893e+06 -0)
(-6.3646e-07 -8.88893e+06 -0)
(-6.13134e-07 -8.88893e+06 -0)
(-5.27162e-07 -8.88893e+06 -0)
(-4.09867e-07 -8.88893e+06 -0)
(-2.88573e-07 -8.88893e+06 -0)
(-1.20627e-07 -8.88893e+06 -0)
(1.28625e-07 -8.88893e+06 -0)
(4.3186e-07 -8.88893e+06 -0)
(8.79048e-07 -8.88893e+06 -0)
(1.50284e-06 -8.88893e+06 -0)
(2.59582e-06 -8.88893e+06 -0)
(4.37325e-06 -8.88893e+06 -0)
(8.85579e-06 -8.88893e+06 -0)
(1.92597e-05 -8.88893e+06 -0)
(4.73266e-05 -8.88893e+06 -0)
(8.47045e-05 -8.88893e+06 -0)
(5.04769e-05 -8.88893e+06 -0)
(-4.53077e-05 -7.69117e+06 -0)
(-7.70989e-05 -7.69117e+06 -0)
(-4.49049e-05 -7.69117e+06 -0)
(-1.93344e-05 -7.69117e+06 -0)
(-8.98061e-06 -7.69117e+06 -0)
(-4.46335e-06 -7.69117e+06 -0)
(-2.6583e-06 -7.69117e+06 -0)
(-1.57887e-06 -7.69117e+06 -0)
(-9.4249e-07 -7.69117e+06 -0)
(-4.56063e-07 -7.69117e+06 -0)
(-1.52434e-07 -7.69117e+06 -0)
(7.55975e-08 -7.69117e+06 -0)
(2.60873e-07 -7.69117e+06 -0)
(3.99675e-07 -7.69117e+06 -0)
(5.06255e-07 -7.69117e+06 -0)
(5.79994e-07 -7.69117e+06 -0)
(6.2213e-07 -7.69117e+06 -0)
(6.50014e-07 -7.69117e+06 -0)
(6.48155e-07 -7.69117e+06 -0)
(6.37002e-07 -7.69117e+06 -0)
(6.26468e-07 -7.69117e+06 -0)
(5.73797e-07 -7.69117e+06 -0)
(5.34759e-07 -7.69117e+06 -0)
(5.03777e-07 -7.69117e+06 -0)
(4.31897e-07 -7.69117e+06 -0)
(3.62496e-07 -7.69117e+06 -0)
(2.838e-07 -7.69117e+06 -0)
(1.90233e-07 -7.69117e+06 -0)
(1.22071e-07 -7.69117e+06 -0)
(4.89525e-08 -7.69117e+06 -0)
(-3.71791e-08 -7.69117e+06 -0)
(-1.14636e-07 -7.69117e+06 -0)
(-1.9581e-07 -7.69117e+06 -0)
(-2.87518e-07 -7.69117e+06 -0)
(-3.60637e-07 -7.69117e+06 -0)
(-4.18265e-07 -7.69117e+06 -0)
(-5.03157e-07 -7.69117e+06 -0)
(-5.63263e-07 -7.69117e+06 -0)
(-5.78135e-07 -7.69117e+06 -0)
(-6.10976e-07 -7.69117e+06 -0)
(-6.3948e-07 -7.69117e+06 -0)
(-6.401e-07 -7.69117e+06 -0)
(-6.43818e-07 -7.69117e+06 -0)
(-6.37002e-07 -7.69117e+06 -0)
(-6.10357e-07 -7.69117e+06 -0)
(-5.23606e-07 -7.69117e+06 -0)
(-4.01534e-07 -7.69117e+06 -0)
(-2.78843e-07 -7.69117e+06 -0)
(-1.0658e-07 -7.69117e+06 -0)
(1.49336e-07 -7.69117e+06 -0)
(4.56683e-07 -7.69117e+06 -0)
(9.15845e-07 -7.69117e+06 -0)
(1.55533e-06 -7.69117e+06 -0)
(2.66326e-06 -7.69117e+06 -0)
(4.48194e-06 -7.69117e+06 -0)
(8.98743e-06 -7.69117e+06 -0)
(1.93195e-05 -7.69117e+06 -0)
(4.4903e-05 -7.69117e+06 -0)
(7.70921e-05 -7.69117e+06 -0)
(4.5286e-05 -7.69117e+06 -0)
(-3.71063e-05 -6.57867e+06 -0)
(-6.46527e-05 -6.57867e+06 -0)
(-4.01257e-05 -6.57867e+06 -0)
(-1.8617e-05 -6.57867e+06 -0)
(-8.77017e-06 -6.57867e+06 -0)
(-4.41298e-06 -6.57867e+06 -0)
(-2.63295e-06 -6.57867e+06 -0)
(-1.57701e-06 -6.57867e+06 -0)
(-9.51266e-07 -6.57867e+06 -0)
(-4.71607e-07 -6.57867e+06 -0)
(-1.73689e-07 -6.57867e+06 -0)
(5.40623e-08 -6.57867e+06 -0)
(2.39254e-07 -6.57867e+06 -0)
(3.7441e-07 -6.57867e+06 -0)
(4.77934e-07 -6.57867e+06 -0)
(5.4925e-07 -6.57867e+06 -0)
(5.9411e-07 -6.57867e+06 -0)
(6.23442e-07 -6.57867e+06 -0)
(6.21141e-07 -6.57867e+06 -0)
(6.09639e-07 -6.57867e+06 -0)
(6.01012e-07 -6.57867e+06 -0)
(5.52126e-07 -6.57867e+06 -0)
(5.15317e-07 -6.57867e+06 -0)
(4.88861e-07 -6.57867e+06 -0)
(4.1582e-07 -6.57867e+06 -0)
(3.50255e-07 -6.57867e+06 -0)
(2.73187e-07 -6.57867e+06 -0)
(1.80016e-07 -6.57867e+06 -0)
(1.18477e-07 -6.57867e+06 -0)
(4.94612e-08 -6.57867e+06 -0)
(-3.5083e-08 -6.57867e+06 -0)
(-1.087e-07 -6.57867e+06 -0)
(-1.88643e-07 -6.57867e+06 -0)
(-2.76063e-07 -6.57867e+06 -0)
(-3.43928e-07 -6.57867e+06 -0)
(-4.00866e-07 -6.57867e+06 -0)
(-4.84835e-07 -6.57867e+06 -0)
(-5.44074e-07 -6.57867e+06 -0)
(-5.54426e-07 -6.57867e+06 -0)
(-5.86058e-07 -6.57867e+06 -0)
(-6.15965e-07 -6.57867e+06 -0)
(-6.1654e-07 -6.57867e+06 -0)
(-6.1769e-07 -6.57867e+06 -0)
(-6.10789e-07 -6.57867e+06 -0)
(-5.84908e-07 -6.57867e+06 -0)
(-4.93462e-07 -6.57867e+06 -0)
(-3.7326e-07 -6.57867e+06 -0)
(-2.55933e-07 -6.57867e+06 -0)
(-8.74199e-08 -6.57867e+06 -0)
(1.68513e-07 -6.57867e+06 -0)
(4.73333e-07 -6.57867e+06 -0)
(9.2366e-07 -6.57867e+06 -0)
(1.55458e-06 -6.57867e+06 -0)
(2.64158e-06 -6.57867e+06 -0)
(4.43081e-06 -6.57867e+06 -0)
(8.77477e-06 -6.57867e+06 -0)
(1.86003e-05 -6.57867e+06 -0)
(4.0124e-05 -6.57867e+06 -0)
(6.46458e-05 -6.57867e+06 -0)
(3.7081e-05 -6.57867e+06 -0)
(-2.63054e-05 -5.49024e+06 -0)
(-4.7914e-05 -5.49024e+06 -0)
(-3.30333e-05 -5.49024e+06 -0)
(-1.69987e-05 -5.49024e+06 -0)
(-8.1555e-06 -5.49024e+06 -0)
(-4.16859e-06 -5.49024e+06 -0)
(-2.4961e-06 -5.49024e+06 -0)
(-1.51188e-06 -5.49024e+06 -0)
(-9.24188e-07 -5.49024e+06 -0)
(-4.69203e-07 -5.49024e+06 -0)
(-1.8905e-07 -5.49024e+06 -0)
(2.63301e-08 -5.49024e+06 -0)
(2.03795e-07 -5.49024e+06 -0)
(3.31233e-07 -5.49024e+06 -0)
(4.25495e-07 -5.49024e+06 -0)
(4.929e-07 -5.49024e+06 -0)
(5.38715e-07 -5.49024e+06 -0)
(5.67678e-07 -5.49024e+06 -0)
(5.67678e-07 -5.49024e+06 -0)
(5.5346e-07 -5.49024e+06 -0)
(5.45034e-07 -5.49024e+06 -0)
(5.05012e-07 -5.49024e+06 -0)
(4.7131e-07 -5.49024e+06 -0)
(4.50245e-07 -5.49024e+06 -0)
(3.82314e-07 -5.49024e+06 -0)
(3.20701e-07 -5.49024e+06 -0)
(2.50663e-07 -5.49024e+06 -0)
(1.64827e-07 -5.49024e+06 -0)
(1.1006e-07 -5.49024e+06 -0)
(4.47612e-08 -5.49024e+06 -0)
(-3.37026e-08 -5.49024e+06 -0)
(-9.84747e-08 -5.49024e+06 -0)
(-1.70093e-07 -5.49024e+06 -0)
(-2.51716e-07 -5.49024e+06 -0)
(-3.11222e-07 -5.49024e+06 -0)
(-3.63883e-07 -5.49024e+06 -0)
(-4.434e-07 -5.49024e+06 -0)
(-4.9922e-07 -5.49024e+06 -0)
(-5.04486e-07 -5.49024e+06 -0)
(-5.36082e-07 -5.49024e+06 -0)
(-5.62412e-07 -5.49024e+06 -0)
(-5.63465e-07 -5.49024e+06 -0)
(-5.66625e-07 -5.49024e+06 -0)
(-5.54513e-07 -5.49024e+06 -0)
(-5.27656e-07 -5.49024e+06 -0)
(-4.43926e-07 -5.49024e+06 -0)
(-3.27547e-07 -5.49024e+06 -0)
(-2.16434e-07 -5.49024e+06 -0)
(-5.95061e-08 -5.49024e+06 -0)
(1.82731e-07 -5.49024e+06 -0)
(4.72889e-07 -5.49024e+06 -0)
(8.94172e-07 -5.49024e+06 -0)
(1.48713e-06 -5.49024e+06 -0)
(2.50558e-06 -5.49024e+06 -0)
(4.1886e-06 -5.49024e+06 -0)
(8.16076e-06 -5.49024e+06 -0)
(1.6984e-05 -5.49024e+06 -0)
(3.3028e-05 -5.49024e+06 -0)
(4.79061e-05 -5.49024e+06 -0)
(2.62843e-05 -5.49024e+06 -0)
(-1.41883e-05 -4.43291e+06 -0)
(-2.87813e-05 -4.43291e+06 -0)
(-2.43183e-05 -4.43291e+06 -0)
(-1.45723e-05 -4.43291e+06 -0)
(-7.16536e-06 -4.43291e+06 -0)
(-3.73931e-06 -4.43291e+06 -0)
(-2.25227e-06 -4.43291e+06 -0)
(-1.38325e-06 -4.43291e+06 -0)
(-8.52975e-07 -4.43291e+06 -0)
(-4.46302e-07 -4.43291e+06 -0)
(-1.97203e-07 -4.43291e+06 -0)
(-5.66134e-09 -4.43291e+06 -0)
(1.58517e-07 -4.43291e+06 -0)
(2.70801e-07 -4.43291e+06 -0)
(3.55721e-07 -4.43291e+06 -0)
(4.15165e-07 -4.43291e+06 -0)
(4.59512e-07 -4.43291e+06 -0)
(4.85931e-07 -4.43291e+06 -0)
(4.87818e-07 -4.43291e+06 -0)
(4.73665e-07 -4.43291e+06 -0)
(4.66117e-07 -4.43291e+06 -0)
(4.32149e-07 -4.43291e+06 -0)
(4.06673e-07 -4.43291e+06 -0)
(3.92519e-07 -4.43291e+06 -0)
(3.34019e-07 -4.43291e+06 -0)
(2.78349e-07 -4.43291e+06 -0)
(2.15131e-07 -4.43291e+06 -0)
(1.4059e-07 -4.43291e+06 -0)
(9.34121e-08 -4.43291e+06 -0)
(4.05729e-08 -4.43291e+06 -0)
(-2.83067e-08 -4.43291e+06 -0)
(-8.39765e-08 -4.43291e+06 -0)
(-1.45308e-07 -4.43291e+06 -0)
(-2.15131e-07 -4.43291e+06 -0)
(-2.65139e-07 -4.43291e+06 -0)
(-3.11374e-07 -4.43291e+06 -0)
(-3.83084e-07 -4.43291e+06 -0)
(-4.30262e-07 -4.43291e+06 -0)
(-4.34979e-07 -4.43291e+06 -0)
(-4.62342e-07 -4.43291e+06 -0)
(-4.84044e-07 -4.43291e+06 -0)
(-4.84044e-07 -4.43291e+06 -0)
(-4.86875e-07 -4.43291e+06 -0)
(-4.72722e-07 -4.43291e+06 -0)
(-4.50076e-07 -4.43291e+06 -0)
(-3.74592e-07 -4.43291e+06 -0)
(-2.65139e-07 -4.43291e+06 -0)
(-1.68897e-07 -4.43291e+06 -0)
(-2.92502e-08 -4.43291e+06 -0)
(1.90598e-07 -4.43291e+06 -0)
(4.50076e-07 -4.43291e+06 -0)
(8.28442e-07 -4.43291e+06 -0)
(1.35872e-06 -4.43291e+06 -0)
(2.26265e-06 -4.43291e+06 -0)
(3.75724e-06 -4.43291e+06 -0)
(7.17008e-06 -4.43291e+06 -0)
(1.45591e-05 -4.43291e+06 -0)
(2.43126e-05 -4.43291e+06 -0)
(2.87756e-05 -4.43291e+06 -0)
(1.41684e-05 -4.43291e+06 -0)
(-2.52008e-06 -3.44772e+06 -0)
(-1.00022e-05 -3.44772e+06 -0)
(-1.51476e-05 -3.44772e+06 -0)
(-1.1618e-05 -3.44772e+06 -0)
(-5.91722e-06 -3.44772e+06 -0)
(-3.17499e-06 -3.44772e+06 -0)
(-1.92523e-06 -3.44772e+06 -0)
(-1.20204e-06 -3.44772e+06 -0)
(-7.53639e-07 -3.44772e+06 -0)
(-4.07261e-07 -3.44772e+06 -0)
(-1.94992e-07 -3.44772e+06 -0)
(-3.20872e-08 -3.44772e+06 -0)
(1.09426e-07 -3.44772e+06 -0)
(2.04042e-07 -3.44772e+06 -0)
(2.73153e-07 -3.44772e+06 -0)
(3.23341e-07 -3.44772e+06 -0)
(3.65301e-07 -3.44772e+06 -0)
(3.92452e-07 -3.44772e+06 -0)
(3.93274e-07 -3.44772e+06 -0)
(3.8011e-07 -3.44772e+06 -0)
(3.72706e-07 -3.44772e+06 -0)
(3.46378e-07 -3.44772e+06 -0)
(3.291e-07 -3.44772e+06 -0)
(3.24986e-07 -3.44772e+06 -0)
(2.73153e-07 -3.44772e+06 -0)
(2.26256e-07 -3.44772e+06 -0)
(1.76891e-07 -3.44772e+06 -0)
(1.11071e-07 -3.44772e+06 -0)
(7.40475e-08 -3.44772e+06 -0)
(3.291e-08 -3.44772e+06 -0)
(-2.13915e-08 -3.44772e+06 -0)
(-6.66427e-08 -3.44772e+06 -0)
(-1.15185e-07 -3.44772e+06 -0)
(-1.71132e-07 -3.44772e+06 -0)
(-2.11447e-07 -3.44772e+06 -0)
(-2.50939e-07 -3.44772e+06 -0)
(-3.10177e-07 -3.44772e+06 -0)
(-3.50491e-07 -3.44772e+06 -0)
(-3.48846e-07 -3.44772e+06 -0)
(-3.72706e-07 -3.44772e+06 -0)
(-3.92452e-07 -3.44772e+06 -0)
(-3.90806e-07 -3.44772e+06 -0)
(-3.92452e-07 -3.44772e+06 -0)
(-3.77642e-07 -3.44772e+06 -0)
(-3.60364e-07 -3.44772e+06 -0)
(-2.91253e-07 -3.44772e+06 -0)
(-1.96637e-07 -3.44772e+06 -0)
(-1.17653e-07 -3.44772e+06 -0)
(8.2275e-10 -3.44772e+06 -0)
(1.89232e-07 -3.44772e+06 -0)
(4.10552e-07 -3.44772e+06 -0)
(7.32247e-07 -3.44772e+06 -0)
(1.17982e-06 -3.44772e+06 -0)
(1.93511e-06 -3.44772e+06 -0)
(3.19062e-06 -3.44772e+06 -0)
(5.92051e-06 -3.44772e+06 -0)
(1.16065e-05 -3.44772e+06 -0)
(1.51411e-05 -3.44772e+06 -0)
(9.99559e-06 -3.44772e+06 -0)
(2.50445e-06 -3.44772e+06 -0)
(7.02677e-06 -2.58153e+06 -0)
(5.76766e-06 -2.58153e+06 -0)
(-6.79278e-06 -2.58153e+06 -0)
(-8.5338e-06 -2.58153e+06 -0)
(-4.57472e-06 -2.58153e+06 -0)
(-2.54538e-06 -2.58153e+06 -0)
(-1.56135e-06 -2.58153e+06 -0)
(-9.94473e-07 -2.58153e+06 -0)
(-6.36518e-07 -2.58153e+06 -0)
(-3.54473e-07 -2.58153e+06 -0)
(-1.81067e-07 -2.58153e+06 -0)
(-5.29271e-08 -2.58153e+06 -0)
(6.05876e-08 -2.58153e+06 -0)
(1.41371e-07 -2.58153e+06 -0)
(1.92209e-07 -2.58153e+06 -0)
(2.32601e-07 -2.58153e+06 -0)
(2.68814e-07 -2.58153e+06 -0)
(2.96671e-07 -2.58153e+06 -0)
(2.98063e-07 -2.58153e+06 -0)
(2.83439e-07 -2.58153e+06 -0)
(2.77867e-07 -2.58153e+06 -0)
(2.59761e-07 -2.58153e+06 -0)
(2.50707e-07 -2.58153e+06 -0)
(2.50011e-07 -2.58153e+06 -0)
(2.11012e-07 -2.58153e+06 -0)
(1.73406e-07 -2.58153e+06 -0)
(1.33014e-07 -2.58153e+06 -0)
(8.42656e-08 -2.58153e+06 -0)
(5.64092e-08 -2.58153e+06 -0)
(2.57672e-08 -2.58153e+06 -0)
(-1.46246e-08 -2.58153e+06 -0)
(-4.94451e-08 -2.58153e+06 -0)
(-8.77476e-08 -2.58153e+06 -0)
(-1.29532e-07 -2.58153e+06 -0)
(-1.54603e-07 -2.58153e+06 -0)
(-1.85941e-07 -2.58153e+06 -0)
(-2.3469e-07 -2.58153e+06 -0)
(-2.66028e-07 -2.58153e+06 -0)
(-2.65332e-07 -2.58153e+06 -0)
(-2.84135e-07 -2.58153e+06 -0)
(-2.95974e-07 -2.58153e+06 -0)
(-2.93188e-07 -2.58153e+06 -0)
(-2.96671e-07 -2.58153e+06 -0)
(-2.8135e-07 -2.58153e+06 -0)
(-2.67421e-07 -2.58153e+06 -0)
(-2.11709e-07 -2.58153e+06 -0)
(-1.30925e-07 -2.58153e+06 -0)
(-7.03374e-08 -2.58153e+06 -0)
(2.43743e-08 -2.58153e+06 -0)
(1.81067e-07 -2.58153e+06 -0)
(3.59347e-07 -2.58153e+06 -0)
(6.17019e-07 -2.58153e+06 -0)
(9.74277e-07 -2.58153e+06 -0)
(1.5704e-06 -2.58153e+06 -0)
(2.56209e-06 -2.58153e+06 -0)
(4.57889e-06 -2.58153e+06 -0)
(8.52197e-06 -2.58153e+06 -0)
(6.78442e-06 -2.58153e+06 -0)
(-5.77393e-06 -2.58153e+06 -0)
(-7.0407e-06 -2.58153e+06 -0)
(1.34366e-05 -1.86659e+06 -0)
(1.681e-05 -1.86659e+06 -0)
(-2.09982e-07 -1.86659e+06 -0)
(-5.69298e-06 -1.86659e+06 -0)
(-3.30422e-06 -1.86659e+06 -0)
(-1.93218e-06 -1.86659e+06 -0)
(-1.20325e-06 -1.86659e+06 -0)
(-7.86147e-07 -1.86659e+06 -0)
(-5.13227e-07 -1.86659e+06 -0)
(-2.96951e-07 -1.86659e+06 -0)
(-1.65926e-07 -1.86659e+06 -0)
(-6.40818e-08 -1.86659e+06 -0)
(2.46028e-08 -1.86659e+06 -0)
(8.41074e-08 -1.86659e+06 -0)
(1.24159e-07 -1.86659e+06 -0)
(1.51622e-07 -1.86659e+06 -0)
(1.84807e-07 -1.86659e+06 -0)
(2.07694e-07 -1.86659e+06 -0)
(2.12843e-07 -1.86659e+06 -0)
(1.97967e-07 -1.86659e+06 -0)
(1.91673e-07 -1.86659e+06 -0)
(1.81374e-07 -1.86659e+06 -0)
(1.79658e-07 -1.86659e+06 -0)
(1.83091e-07 -1.86659e+06 -0)
(1.5105e-07 -1.86659e+06 -0)
(1.24731e-07 -1.86659e+06 -0)
(9.32619e-08 -1.86659e+06 -0)
(5.89324e-08 -1.86659e+06 -0)
(4.17676e-08 -1.86659e+06 -0)
(1.88813e-08 -1.86659e+06 -0)
(-9.7267e-09 -1.86659e+06 -0)
(-3.43295e-08 -1.86659e+06 -0)
(-6.00767e-08 -1.86659e+06 -0)
(-9.09733e-08 -1.86659e+06 -0)
(-1.06422e-07 -1.86659e+06 -0)
(-1.28164e-07 -1.86659e+06 -0)
(-1.6707e-07 -1.86659e+06 -0)
(-1.90529e-07 -1.86659e+06 -0)
(-1.85952e-07 -1.86659e+06 -0)
(-2.00828e-07 -1.86659e+06 -0)
(-2.13415e-07 -1.86659e+06 -0)
(-2.05977e-07 -1.86659e+06 -0)
(-2.08266e-07 -1.86659e+06 -0)
(-1.97395e-07 -1.86659e+06 -0)
(-1.83091e-07 -1.86659e+06 -0)
(-1.3789e-07 -1.86659e+06 -0)
(-7.60972e-08 -1.86659e+06 -0)
(-3.14688e-08 -1.86659e+06 -0)
(4.29119e-08 -1.86659e+06 -0)
(1.6421e-07 -1.86659e+06 -0)
(2.98667e-07 -1.86659e+06 -0)
(4.96634e-07 -1.86659e+06 -0)
(7.70698e-07 -1.86659e+06 -0)
(1.21183e-06 -1.86659e+06 -0)
(1.94477e-06 -1.86659e+06 -0)
(3.30822e-06 -1.86659e+06 -0)
(5.68669e-06 -1.86659e+06 -0)
(1.99684e-07 -1.86659e+06 -0)
(-1.68163e-05 -1.86659e+06 -0)