/*--------------------------------*- C++ -*----------------------------------*\
| =========                 |                                                 |
| \\      /  F ield         | foam-extend: Open Source CFD                    |
|  \\    /   O peration     | Version:     4.0                                |
|   \\  /    A nd           | Web:         http://www.foam-extend.org         |
|    \\/     M anipulation  |                                                 |
\*---------------------------------------------------------------------------*/
FoamFile
{
    version     2.0;
    format      ascii;
    class       volScalarField;
    location    "1760";
    object      cMinus;
}
// * * * * * * * * * * * * * * * * * * * * * * * * * * * * * * * * * * * * * //

dimensions      [0 0 0 0 0 0 0];

internalField   nonuniform List<scalar> 
6960
(
1.09166e-06
1.09321e-06
1.09358e-06
1.09382e-06
1.09402e-06
1.09421e-06
1.09437e-06
1.09451e-06
1.09464e-06
1.09476e-06
1.09487e-06
1.09496e-06
1.09505e-06
1.09512e-06
1.09519e-06
1.09526e-06
1.09531e-06
1.09536e-06
1.09541e-06
1.09545e-06
1.09548e-06
1.09551e-06
1.09554e-06
1.09556e-06
1.09558e-06
1.0956e-06
1.09561e-06
1.09562e-06
1.09563e-06
1.09563e-06
1.09563e-06
1.09563e-06
1.09562e-06
1.09561e-06
1.0956e-06
1.09558e-06
1.09556e-06
1.09554e-06
1.09551e-06
1.09548e-06
1.09545e-06
1.09541e-06
1.09536e-06
1.09531e-06
1.09526e-06
1.09519e-06
1.09512e-06
1.09505e-06
1.09496e-06
1.09487e-06
1.09476e-06
1.09464e-06
1.09451e-06
1.09437e-06
1.09421e-06
1.09402e-06
1.09382e-06
1.09358e-06
1.09321e-06
1.09166e-06
5.11759e-06
5.12641e-06
5.1285e-06
5.12971e-06
5.13066e-06
5.13148e-06
5.13221e-06
5.13286e-06
5.13344e-06
5.13396e-06
5.13443e-06
5.13485e-06
5.13523e-06
5.13557e-06
5.13587e-06
5.13615e-06
5.1364e-06
5.13662e-06
5.13682e-06
5.13699e-06
5.13715e-06
5.13729e-06
5.13741e-06
5.13751e-06
5.1376e-06
5.13767e-06
5.13772e-06
5.13776e-06
5.13779e-06
5.13781e-06
5.13781e-06
5.13779e-06
5.13776e-06
5.13772e-06
5.13767e-06
5.1376e-06
5.13751e-06
5.13741e-06
5.13729e-06
5.13715e-06
5.13699e-06
5.13682e-06
5.13662e-06
5.1364e-06
5.13615e-06
5.13587e-06
5.13557e-06
5.13523e-06
5.13485e-06
5.13443e-06
5.13396e-06
5.13344e-06
5.13286e-06
5.13221e-06
5.13148e-06
5.13066e-06
5.12971e-06
5.1285e-06
5.12641e-06
5.11759e-06
2.05912e-05
2.06324e-05
2.06423e-05
2.06474e-05
2.06512e-05
2.06543e-05
2.06571e-05
2.06596e-05
2.06618e-05
2.06637e-05
2.06655e-05
2.06671e-05
2.06685e-05
2.06698e-05
2.06709e-05
2.06719e-05
2.06729e-05
2.06737e-05
2.06744e-05
2.06751e-05
2.06757e-05
2.06762e-05
2.06766e-05
2.0677e-05
2.06774e-05
2.06776e-05
2.06778e-05
2.0678e-05
2.06781e-05
2.06781e-05
2.06781e-05
2.06781e-05
2.0678e-05
2.06778e-05
2.06776e-05
2.06774e-05
2.0677e-05
2.06766e-05
2.06762e-05
2.06757e-05
2.06751e-05
2.06744e-05
2.06737e-05
2.06729e-05
2.06719e-05
2.06709e-05
2.06698e-05
2.06685e-05
2.06671e-05
2.06655e-05
2.06637e-05
2.06618e-05
2.06596e-05
2.06571e-05
2.06543e-05
2.06512e-05
2.06474e-05
2.06423e-05
2.06324e-05
2.05912e-05
7.65477e-05
7.6719e-05
7.67607e-05
7.67803e-05
7.67938e-05
7.68049e-05
7.68145e-05
7.68231e-05
7.68306e-05
7.68374e-05
7.68435e-05
7.68489e-05
7.68538e-05
7.68582e-05
7.68621e-05
7.68656e-05
7.68688e-05
7.68716e-05
7.68742e-05
7.68764e-05
7.68784e-05
7.68802e-05
7.68817e-05
7.6883e-05
7.68841e-05
7.6885e-05
7.68857e-05
7.68862e-05
7.68866e-05
7.68868e-05
7.68868e-05
7.68866e-05
7.68862e-05
7.68857e-05
7.6885e-05
7.68841e-05
7.6883e-05
7.68817e-05
7.68802e-05
7.68784e-05
7.68764e-05
7.68742e-05
7.68716e-05
7.68688e-05
7.68656e-05
7.68621e-05
7.68582e-05
7.68538e-05
7.68489e-05
7.68435e-05
7.68374e-05
7.68306e-05
7.68231e-05
7.68145e-05
7.68049e-05
7.67938e-05
7.67803e-05
7.67607e-05
7.6719e-05
7.65477e-05
0.000264799
0.000265437
0.000265594
0.000265663
0.000265708
0.000265743
0.000265774
0.000265801
0.000265825
0.000265847
0.000265866
0.000265883
0.000265898
0.000265912
0.000265924
0.000265936
0.000265945
0.000265954
0.000265962
0.000265969
0.000265976
0.000265981
0.000265986
0.00026599
0.000265993
0.000265996
0.000265999
0.000266
0.000266001
0.000266002
0.000266002
0.000266001
0.000266
0.000265999
0.000265996
0.000265993
0.00026599
0.000265986
0.000265981
0.000265976
0.000265969
0.000265962
0.000265954
0.000265945
0.000265936
0.000265924
0.000265912
0.000265898
0.000265883
0.000265866
0.000265847
0.000265825
0.000265801
0.000265774
0.000265743
0.000265708
0.000265663
0.000265594
0.000265437
0.000264799
0.000845342
0.000847468
0.000847993
0.000848211
0.000848345
0.00084845
0.00084854
0.000848618
0.000848687
0.000848749
0.000848804
0.000848853
0.000848897
0.000848936
0.000848971
0.000849003
0.000849031
0.000849057
0.00084908
0.0008491
0.000849117
0.000849133
0.000849147
0.000849158
0.000849168
0.000849176
0.000849182
0.000849187
0.00084919
0.000849192
0.000849192
0.00084919
0.000849187
0.000849182
0.000849176
0.000849168
0.000849158
0.000849147
0.000849133
0.000849117
0.0008491
0.00084908
0.000849057
0.000849031
0.000849003
0.000848971
0.000848936
0.000848897
0.000848853
0.000848804
0.000848749
0.000848687
0.000848618
0.00084854
0.00084845
0.000848345
0.000848211
0.000847993
0.000847468
0.000845342
0.00245886
0.0024651
0.00246665
0.00246726
0.00246762
0.0024679
0.00246813
0.00246833
0.00246851
0.00246867
0.00246881
0.00246894
0.00246905
0.00246915
0.00246924
0.00246932
0.00246939
0.00246946
0.00246952
0.00246957
0.00246961
0.00246965
0.00246969
0.00246972
0.00246974
0.00246976
0.00246978
0.00246979
0.0024698
0.0024698
0.0024698
0.0024698
0.00246979
0.00246978
0.00246976
0.00246974
0.00246972
0.00246969
0.00246965
0.00246961
0.00246957
0.00246952
0.00246946
0.00246939
0.00246932
0.00246924
0.00246915
0.00246905
0.00246894
0.00246881
0.00246867
0.00246851
0.00246833
0.00246813
0.0024679
0.00246762
0.00246726
0.00246665
0.0024651
0.00245886
0.00642642
0.00644234
0.00644631
0.00644782
0.00644868
0.00644931
0.00644984
0.0064503
0.0064507
0.00645106
0.00645137
0.00645166
0.00645191
0.00645213
0.00645234
0.00645252
0.00645268
0.00645282
0.00645295
0.00645307
0.00645317
0.00645326
0.00645333
0.0064534
0.00645345
0.0064535
0.00645354
0.00645356
0.00645358
0.00645359
0.00645359
0.00645358
0.00645356
0.00645354
0.0064535
0.00645345
0.0064534
0.00645333
0.00645326
0.00645317
0.00645307
0.00645295
0.00645282
0.00645268
0.00645252
0.00645234
0.00645213
0.00645191
0.00645166
0.00645137
0.00645106
0.0064507
0.0064503
0.00644984
0.00644931
0.00644868
0.00644782
0.00644631
0.00644234
0.00642642
0.0149013
0.0149362
0.0149449
0.0149481
0.0149498
0.0149511
0.0149521
0.014953
0.0149538
0.0149545
0.0149551
0.0149557
0.0149561
0.0149566
0.014957
0.0149573
0.0149576
0.0149579
0.0149582
0.0149584
0.0149586
0.0149587
0.0149589
0.014959
0.0149591
0.0149592
0.0149593
0.0149593
0.0149594
0.0149594
0.0149594
0.0149594
0.0149593
0.0149593
0.0149592
0.0149591
0.014959
0.0149589
0.0149587
0.0149586
0.0149584
0.0149582
0.0149579
0.0149576
0.0149573
0.014957
0.0149566
0.0149561
0.0149557
0.0149551
0.0149545
0.0149538
0.014953
0.0149521
0.0149511
0.0149498
0.0149481
0.0149449
0.0149362
0.0149013
0.0303992
0.030464
0.0304803
0.0304861
0.0304891
0.0304913
0.030493
0.0304945
0.0304958
0.0304969
0.030498
0.0304989
0.0304997
0.0305004
0.030501
0.0305016
0.0305021
0.0305026
0.030503
0.0305033
0.0305036
0.0305039
0.0305042
0.0305044
0.0305045
0.0305047
0.0305048
0.0305049
0.0305049
0.030505
0.030505
0.0305049
0.0305049
0.0305048
0.0305047
0.0305045
0.0305044
0.0305042
0.0305039
0.0305036
0.0305033
0.030503
0.0305026
0.0305021
0.0305016
0.030501
0.0305004
0.0304997
0.0304989
0.030498
0.0304969
0.0304958
0.0304945
0.030493
0.0304913
0.0304891
0.0304861
0.0304803
0.030464
0.0303992
0.0545224
0.0546253
0.0546514
0.0546604
0.0546649
0.054668
0.0546705
0.0546726
0.0546744
0.054676
0.0546774
0.0546787
0.0546798
0.0546808
0.0546817
0.0546825
0.0546832
0.0546839
0.0546844
0.0546849
0.0546854
0.0546858
0.0546861
0.0546864
0.0546866
0.0546868
0.054687
0.0546871
0.0546872
0.0546872
0.0546872
0.0546872
0.0546871
0.054687
0.0546868
0.0546866
0.0546864
0.0546861
0.0546858
0.0546854
0.0546849
0.0546844
0.0546839
0.0546832
0.0546825
0.0546817
0.0546808
0.0546798
0.0546787
0.0546774
0.054676
0.0546744
0.0546726
0.0546705
0.054668
0.0546649
0.0546604
0.0546514
0.0546253
0.0545224
0.0867369
0.0868791
0.0869152
0.0869275
0.0869334
0.0869372
0.0869403
0.0869429
0.0869451
0.0869471
0.0869488
0.0869503
0.0869517
0.0869529
0.086954
0.0869549
0.0869558
0.0869566
0.0869572
0.0869578
0.0869584
0.0869588
0.0869592
0.0869596
0.0869599
0.0869601
0.0869603
0.0869604
0.0869605
0.0869605
0.0869605
0.0869605
0.0869604
0.0869603
0.0869601
0.0869599
0.0869596
0.0869592
0.0869588
0.0869584
0.0869578
0.0869572
0.0869566
0.0869558
0.0869549
0.086954
0.0869529
0.0869517
0.0869503
0.0869488
0.0869471
0.0869451
0.0869429
0.0869403
0.0869372
0.0869334
0.0869275
0.0869152
0.0868791
0.0867369
0.1245
0.124676
0.124721
0.124736
0.124743
0.124747
0.124751
0.124753
0.124756
0.124758
0.12476
0.124762
0.124763
0.124764
0.124765
0.124767
0.124767
0.124768
0.124769
0.12477
0.12477
0.124771
0.124771
0.124771
0.124772
0.124772
0.124772
0.124772
0.124772
0.124773
0.124773
0.124772
0.124772
0.124772
0.124772
0.124772
0.124771
0.124771
0.124771
0.12477
0.12477
0.124769
0.124768
0.124767
0.124767
0.124765
0.124764
0.124763
0.124762
0.12476
0.124758
0.124756
0.124753
0.124751
0.124747
0.124743
0.124736
0.124721
0.124676
0.1245
0.164693
0.164896
0.164948
0.164965
0.164972
0.164977
0.164981
0.164983
0.164986
0.164988
0.16499
0.164991
0.164993
0.164994
0.164995
0.164996
0.164997
0.164998
0.164999
0.164999
0.165
0.165
0.165001
0.165001
0.165002
0.165002
0.165002
0.165002
0.165002
0.165002
0.165002
0.165002
0.165002
0.165002
0.165002
0.165002
0.165001
0.165001
0.165
0.165
0.164999
0.164999
0.164998
0.164997
0.164996
0.164995
0.164994
0.164993
0.164991
0.16499
0.164988
0.164986
0.164983
0.164981
0.164977
0.164972
0.164965
0.164948
0.164896
0.164693
0.204964
0.205188
0.205246
0.205265
0.205272
0.205277
0.20528
0.205283
0.205286
0.205288
0.205289
0.205291
0.205292
0.205294
0.205295
0.205296
0.205296
0.205297
0.205298
0.205298
0.205299
0.205299
0.2053
0.2053
0.2053
0.205301
0.205301
0.205301
0.205301
0.205301
0.205301
0.205301
0.205301
0.205301
0.205301
0.2053
0.2053
0.2053
0.205299
0.205299
0.205298
0.205298
0.205297
0.205296
0.205296
0.205295
0.205294
0.205292
0.205291
0.205289
0.205288
0.205286
0.205283
0.20528
0.205277
0.205272
0.205265
0.205246
0.205188
0.204964
0.244096
0.244336
0.244399
0.244419
0.244427
0.244432
0.244435
0.244438
0.24444
0.244442
0.244444
0.244445
0.244446
0.244448
0.244449
0.244449
0.24445
0.244451
0.244452
0.244452
0.244453
0.244453
0.244453
0.244454
0.244454
0.244454
0.244454
0.244454
0.244454
0.244454
0.244454
0.244454
0.244454
0.244454
0.244454
0.244454
0.244454
0.244453
0.244453
0.244453
0.244452
0.244452
0.244451
0.24445
0.244449
0.244449
0.244448
0.244446
0.244445
0.244444
0.244442
0.24444
0.244438
0.244435
0.244432
0.244427
0.244419
0.244399
0.244336
0.244096
0.281677
0.281931
0.282
0.282021
0.282029
0.282034
0.282037
0.282039
0.282042
0.282043
0.282045
0.282046
0.282048
0.282049
0.282049
0.28205
0.282051
0.282052
0.282052
0.282053
0.282053
0.282054
0.282054
0.282054
0.282054
0.282055
0.282055
0.282055
0.282055
0.282055
0.282055
0.282055
0.282055
0.282055
0.282055
0.282054
0.282054
0.282054
0.282054
0.282053
0.282053
0.282052
0.282052
0.282051
0.28205
0.282049
0.282049
0.282048
0.282046
0.282045
0.282043
0.282042
0.282039
0.282037
0.282034
0.282029
0.282021
0.282
0.281931
0.281677
0.317678
0.317945
0.318018
0.31804
0.318049
0.318053
0.318056
0.318059
0.318061
0.318062
0.318064
0.318065
0.318066
0.318067
0.318068
0.318069
0.318069
0.31807
0.318071
0.318071
0.318071
0.318072
0.318072
0.318072
0.318073
0.318073
0.318073
0.318073
0.318073
0.318073
0.318073
0.318073
0.318073
0.318073
0.318073
0.318073
0.318072
0.318072
0.318072
0.318071
0.318071
0.318071
0.31807
0.318069
0.318069
0.318068
0.318067
0.318066
0.318065
0.318064
0.318062
0.318061
0.318059
0.318056
0.318053
0.318049
0.31804
0.318018
0.317945
0.317678
0.352182
0.35246
0.352537
0.352561
0.35257
0.352575
0.352578
0.35258
0.352582
0.352583
0.352585
0.352586
0.352587
0.352588
0.352588
0.352589
0.35259
0.35259
0.352591
0.352591
0.352592
0.352592
0.352592
0.352592
0.352593
0.352593
0.352593
0.352593
0.352593
0.352593
0.352593
0.352593
0.352593
0.352593
0.352593
0.352593
0.352592
0.352592
0.352592
0.352592
0.352591
0.352591
0.35259
0.35259
0.352589
0.352588
0.352588
0.352587
0.352586
0.352585
0.352583
0.352582
0.35258
0.352578
0.352575
0.35257
0.352561
0.352537
0.35246
0.352182
0.385281
0.385568
0.38565
0.385675
0.385684
0.385689
0.385692
0.385694
0.385696
0.385697
0.385698
0.385699
0.3857
0.385701
0.385702
0.385703
0.385703
0.385704
0.385704
0.385704
0.385705
0.385705
0.385705
0.385705
0.385706
0.385706
0.385706
0.385706
0.385706
0.385706
0.385706
0.385706
0.385706
0.385706
0.385706
0.385706
0.385705
0.385705
0.385705
0.385705
0.385704
0.385704
0.385704
0.385703
0.385703
0.385702
0.385701
0.3857
0.385699
0.385698
0.385697
0.385696
0.385694
0.385692
0.385689
0.385684
0.385675
0.38565
0.385568
0.385281
0.417046
0.417342
0.417428
0.417455
0.417465
0.417469
0.417472
0.417474
0.417476
0.417477
0.417478
0.417479
0.41748
0.417481
0.417481
0.417482
0.417482
0.417483
0.417483
0.417484
0.417484
0.417484
0.417484
0.417485
0.417485
0.417485
0.417485
0.417485
0.417485
0.417485
0.417485
0.417485
0.417485
0.417485
0.417485
0.417485
0.417485
0.417484
0.417484
0.417484
0.417484
0.417483
0.417483
0.417482
0.417482
0.417481
0.417481
0.41748
0.417479
0.417478
0.417477
0.417476
0.417474
0.417472
0.417469
0.417465
0.417455
0.417428
0.417342
0.417046
0.447535
0.447838
0.447928
0.447957
0.447966
0.447971
0.447974
0.447975
0.447977
0.447978
0.447979
0.44798
0.447981
0.447982
0.447982
0.447983
0.447983
0.447984
0.447984
0.447985
0.447985
0.447985
0.447985
0.447985
0.447986
0.447986
0.447986
0.447986
0.447986
0.447986
0.447986
0.447986
0.447986
0.447986
0.447986
0.447986
0.447985
0.447985
0.447985
0.447985
0.447985
0.447984
0.447984
0.447983
0.447983
0.447982
0.447982
0.447981
0.44798
0.447979
0.447978
0.447977
0.447975
0.447974
0.447971
0.447966
0.447957
0.447928
0.447838
0.447535
0.476791
0.477101
0.477195
0.477224
0.477235
0.477239
0.477242
0.477244
0.477245
0.477246
0.477247
0.477248
0.477249
0.477249
0.47725
0.477251
0.477251
0.477251
0.477252
0.477252
0.477252
0.477252
0.477253
0.477253
0.477253
0.477253
0.477253
0.477253
0.477253
0.477253
0.477253
0.477253
0.477253
0.477253
0.477253
0.477253
0.477253
0.477253
0.477252
0.477252
0.477252
0.477252
0.477251
0.477251
0.477251
0.47725
0.477249
0.477249
0.477248
0.477247
0.477246
0.477245
0.477244
0.477242
0.477239
0.477235
0.477224
0.477195
0.477101
0.476791
0.504854
0.505169
0.505266
0.505297
0.505308
0.505313
0.505315
0.505317
0.505318
0.505319
0.50532
0.505321
0.505322
0.505322
0.505323
0.505323
0.505324
0.505324
0.505324
0.505324
0.505325
0.505325
0.505325
0.505325
0.505325
0.505325
0.505325
0.505326
0.505326
0.505326
0.505326
0.505326
0.505326
0.505325
0.505325
0.505325
0.505325
0.505325
0.505325
0.505325
0.505324
0.505324
0.505324
0.505324
0.505323
0.505323
0.505322
0.505322
0.505321
0.50532
0.505319
0.505318
0.505317
0.505315
0.505313
0.505308
0.505297
0.505266
0.505169
0.504854
0.531758
0.532077
0.532178
0.53221
0.532221
0.532226
0.532228
0.53223
0.532231
0.532232
0.532233
0.532234
0.532234
0.532235
0.532235
0.532236
0.532236
0.532237
0.532237
0.532237
0.532237
0.532237
0.532238
0.532238
0.532238
0.532238
0.532238
0.532238
0.532238
0.532238
0.532238
0.532238
0.532238
0.532238
0.532238
0.532238
0.532238
0.532238
0.532237
0.532237
0.532237
0.532237
0.532237
0.532236
0.532236
0.532235
0.532235
0.532234
0.532234
0.532233
0.532232
0.532231
0.53223
0.532228
0.532226
0.532221
0.53221
0.532178
0.532077
0.531758
0.557536
0.557858
0.557962
0.557996
0.558007
0.558012
0.558014
0.558016
0.558017
0.558018
0.558019
0.55802
0.55802
0.558021
0.558021
0.558021
0.558022
0.558022
0.558022
0.558022
0.558023
0.558023
0.558023
0.558023
0.558023
0.558023
0.558023
0.558023
0.558023
0.558023
0.558023
0.558023
0.558023
0.558023
0.558023
0.558023
0.558023
0.558023
0.558023
0.558023
0.558022
0.558022
0.558022
0.558022
0.558021
0.558021
0.558021
0.55802
0.55802
0.558019
0.558018
0.558017
0.558016
0.558014
0.558012
0.558007
0.557996
0.557962
0.557858
0.557536
0.58222
0.582543
0.582651
0.582686
0.582698
0.582702
0.582705
0.582706
0.582707
0.582708
0.582709
0.582709
0.58271
0.58271
0.582711
0.582711
0.582711
0.582712
0.582712
0.582712
0.582712
0.582712
0.582713
0.582713
0.582713
0.582713
0.582713
0.582713
0.582713
0.582713
0.582713
0.582713
0.582713
0.582713
0.582713
0.582713
0.582713
0.582713
0.582712
0.582712
0.582712
0.582712
0.582712
0.582711
0.582711
0.582711
0.58271
0.58271
0.582709
0.582709
0.582708
0.582707
0.582706
0.582705
0.582702
0.582698
0.582686
0.582651
0.582543
0.58222
0.605839
0.606163
0.606273
0.60631
0.606322
0.606327
0.606329
0.606331
0.606332
0.606333
0.606333
0.606334
0.606334
0.606335
0.606335
0.606335
0.606336
0.606336
0.606336
0.606336
0.606337
0.606337
0.606337
0.606337
0.606337
0.606337
0.606337
0.606337
0.606337
0.606337
0.606337
0.606337
0.606337
0.606337
0.606337
0.606337
0.606337
0.606337
0.606337
0.606337
0.606336
0.606336
0.606336
0.606336
0.606335
0.606335
0.606335
0.606334
0.606334
0.606333
0.606333
0.606332
0.606331
0.606329
0.606327
0.606322
0.60631
0.606273
0.606163
0.605839
0.628424
0.628748
0.628861
0.628898
0.628911
0.628916
0.628919
0.62892
0.628921
0.628922
0.628922
0.628923
0.628923
0.628924
0.628924
0.628924
0.628924
0.628925
0.628925
0.628925
0.628925
0.628925
0.628925
0.628925
0.628926
0.628926
0.628926
0.628926
0.628926
0.628926
0.628926
0.628926
0.628926
0.628926
0.628926
0.628926
0.628925
0.628925
0.628925
0.628925
0.628925
0.628925
0.628925
0.628924
0.628924
0.628924
0.628924
0.628923
0.628923
0.628922
0.628922
0.628921
0.62892
0.628919
0.628916
0.628911
0.628898
0.628861
0.628748
0.628424
0.650003
0.650326
0.650441
0.65048
0.650494
0.650499
0.650501
0.650502
0.650503
0.650504
0.650505
0.650505
0.650506
0.650506
0.650506
0.650506
0.650507
0.650507
0.650507
0.650507
0.650507
0.650507
0.650508
0.650508
0.650508
0.650508
0.650508
0.650508
0.650508
0.650508
0.650508
0.650508
0.650508
0.650508
0.650508
0.650508
0.650508
0.650508
0.650507
0.650507
0.650507
0.650507
0.650507
0.650507
0.650506
0.650506
0.650506
0.650506
0.650505
0.650505
0.650504
0.650503
0.650502
0.650501
0.650499
0.650494
0.65048
0.650441
0.650326
0.650003
0.670605
0.670927
0.671044
0.671085
0.671098
0.671104
0.671106
0.671107
0.671108
0.671109
0.671109
0.67111
0.67111
0.67111
0.671111
0.671111
0.671111
0.671111
0.671112
0.671112
0.671112
0.671112
0.671112
0.671112
0.671112
0.671112
0.671112
0.671112
0.671112
0.671112
0.671112
0.671112
0.671112
0.671112
0.671112
0.671112
0.671112
0.671112
0.671112
0.671112
0.671112
0.671112
0.671111
0.671111
0.671111
0.671111
0.67111
0.67111
0.67111
0.671109
0.671109
0.671108
0.671107
0.671106
0.671104
0.671098
0.671085
0.671044
0.670927
0.670605
0.690259
0.690578
0.690698
0.690739
0.690754
0.690759
0.690762
0.690763
0.690764
0.690764
0.690765
0.690765
0.690765
0.690766
0.690766
0.690766
0.690766
0.690767
0.690767
0.690767
0.690767
0.690767
0.690767
0.690767
0.690767
0.690767
0.690767
0.690767
0.690767
0.690767
0.690767
0.690767
0.690767
0.690767
0.690767
0.690767
0.690767
0.690767
0.690767
0.690767
0.690767
0.690767
0.690767
0.690766
0.690766
0.690766
0.690766
0.690765
0.690765
0.690765
0.690764
0.690764
0.690763
0.690762
0.690759
0.690754
0.690739
0.690698
0.690578
0.690259
0.708993
0.709309
0.70943
0.709473
0.709488
0.709494
0.709496
0.709497
0.709498
0.709499
0.709499
0.709499
0.7095
0.7095
0.7095
0.7095
0.7095
0.709501
0.709501
0.709501
0.709501
0.709501
0.709501
0.709501
0.709501
0.709501
0.709501
0.709501
0.709501
0.709501
0.709501
0.709501
0.709501
0.709501
0.709501
0.709501
0.709501
0.709501
0.709501
0.709501
0.709501
0.709501
0.709501
0.7095
0.7095
0.7095
0.7095
0.7095
0.709499
0.709499
0.709499
0.709498
0.709497
0.709496
0.709494
0.709488
0.709473
0.70943
0.709309
0.708993
0.726835
0.727147
0.727269
0.727313
0.727329
0.727335
0.727337
0.727338
0.727339
0.727339
0.72734
0.72734
0.727341
0.727341
0.727341
0.727341
0.727341
0.727341
0.727342
0.727342
0.727342
0.727342
0.727342
0.727342
0.727342
0.727342
0.727342
0.727342
0.727342
0.727342
0.727342
0.727342
0.727342
0.727342
0.727342
0.727342
0.727342
0.727342
0.727342
0.727342
0.727342
0.727342
0.727341
0.727341
0.727341
0.727341
0.727341
0.727341
0.72734
0.72734
0.727339
0.727339
0.727338
0.727337
0.727335
0.727329
0.727313
0.727269
0.727147
0.726835
0.743811
0.744119
0.744242
0.744288
0.744304
0.74431
0.744312
0.744314
0.744314
0.744315
0.744315
0.744316
0.744316
0.744316
0.744316
0.744316
0.744316
0.744317
0.744317
0.744317
0.744317
0.744317
0.744317
0.744317
0.744317
0.744317
0.744317
0.744317
0.744317
0.744317
0.744317
0.744317
0.744317
0.744317
0.744317
0.744317
0.744317
0.744317
0.744317
0.744317
0.744317
0.744317
0.744317
0.744316
0.744316
0.744316
0.744316
0.744316
0.744316
0.744315
0.744315
0.744314
0.744314
0.744312
0.74431
0.744304
0.744288
0.744242
0.744119
0.743811
0.759951
0.760254
0.760378
0.760424
0.760441
0.760447
0.76045
0.760451
0.760452
0.760452
0.760452
0.760453
0.760453
0.760453
0.760453
0.760453
0.760454
0.760454
0.760454
0.760454
0.760454
0.760454
0.760454
0.760454
0.760454
0.760454
0.760454
0.760454
0.760454
0.760454
0.760454
0.760454
0.760454
0.760454
0.760454
0.760454
0.760454
0.760454
0.760454
0.760454
0.760454
0.760454
0.760454
0.760454
0.760453
0.760453
0.760453
0.760453
0.760453
0.760452
0.760452
0.760452
0.760451
0.76045
0.760447
0.760441
0.760424
0.760378
0.760254
0.759951
0.77528
0.775578
0.775702
0.77575
0.775767
0.775773
0.775776
0.775777
0.775778
0.775778
0.775779
0.775779
0.775779
0.775779
0.775779
0.77578
0.77578
0.77578
0.77578
0.77578
0.77578
0.77578
0.77578
0.77578
0.77578
0.77578
0.77578
0.77578
0.77578
0.77578
0.77578
0.77578
0.77578
0.77578
0.77578
0.77578
0.77578
0.77578
0.77578
0.77578
0.77578
0.77578
0.77578
0.77578
0.77578
0.775779
0.775779
0.775779
0.775779
0.775779
0.775778
0.775778
0.775777
0.775776
0.775773
0.775767
0.77575
0.775702
0.775578
0.77528
0.789826
0.790118
0.790243
0.790291
0.790309
0.790316
0.790318
0.79032
0.79032
0.790321
0.790321
0.790321
0.790321
0.790322
0.790322
0.790322
0.790322
0.790322
0.790322
0.790322
0.790322
0.790322
0.790322
0.790322
0.790322
0.790322
0.790322
0.790322
0.790322
0.790322
0.790322
0.790322
0.790322
0.790322
0.790322
0.790322
0.790322
0.790322
0.790322
0.790322
0.790322
0.790322
0.790322
0.790322
0.790322
0.790322
0.790322
0.790321
0.790321
0.790321
0.790321
0.79032
0.79032
0.790318
0.790316
0.790309
0.790291
0.790243
0.790118
0.789826
0.803616
0.803902
0.804026
0.804076
0.804094
0.804101
0.804104
0.804105
0.804106
0.804106
0.804106
0.804107
0.804107
0.804107
0.804107
0.804107
0.804107
0.804107
0.804107
0.804108
0.804108
0.804108
0.804108
0.804108
0.804108
0.804108
0.804108
0.804108
0.804108
0.804108
0.804108
0.804108
0.804108
0.804108
0.804108
0.804108
0.804108
0.804108
0.804108
0.804108
0.804108
0.804107
0.804107
0.804107
0.804107
0.804107
0.804107
0.804107
0.804107
0.804106
0.804106
0.804106
0.804105
0.804104
0.804101
0.804094
0.804076
0.804026
0.803902
0.803616
0.816677
0.816956
0.81708
0.81713
0.817149
0.817156
0.817159
0.81716
0.817161
0.817161
0.817162
0.817162
0.817162
0.817162
0.817162
0.817162
0.817162
0.817162
0.817163
0.817163
0.817163
0.817163
0.817163
0.817163
0.817163
0.817163
0.817163
0.817163
0.817163
0.817163
0.817163
0.817163
0.817163
0.817163
0.817163
0.817163
0.817163
0.817163
0.817163
0.817163
0.817163
0.817163
0.817162
0.817162
0.817162
0.817162
0.817162
0.817162
0.817162
0.817162
0.817161
0.817161
0.81716
0.817159
0.817156
0.817149
0.81713
0.81708
0.816956
0.816677
0.829034
0.829306
0.829429
0.82948
0.8295
0.829507
0.82951
0.829512
0.829512
0.829513
0.829513
0.829513
0.829513
0.829513
0.829513
0.829513
0.829514
0.829514
0.829514
0.829514
0.829514
0.829514
0.829514
0.829514
0.829514
0.829514
0.829514
0.829514
0.829514
0.829514
0.829514
0.829514
0.829514
0.829514
0.829514
0.829514
0.829514
0.829514
0.829514
0.829514
0.829514
0.829514
0.829514
0.829514
0.829513
0.829513
0.829513
0.829513
0.829513
0.829513
0.829513
0.829512
0.829512
0.82951
0.829507
0.8295
0.82948
0.829429
0.829306
0.829034
0.840714
0.840979
0.841101
0.841152
0.841173
0.841181
0.841184
0.841185
0.841186
0.841186
0.841186
0.841186
0.841187
0.841187
0.841187
0.841187
0.841187
0.841187
0.841187
0.841187
0.841187
0.841187
0.841187
0.841187
0.841187
0.841187
0.841187
0.841187
0.841187
0.841187
0.841187
0.841187
0.841187
0.841187
0.841187
0.841187
0.841187
0.841187
0.841187
0.841187
0.841187
0.841187
0.841187
0.841187
0.841187
0.841187
0.841187
0.841187
0.841186
0.841186
0.841186
0.841186
0.841185
0.841184
0.841181
0.841173
0.841152
0.841101
0.840979
0.840714
0.851743
0.852
0.852121
0.852173
0.852194
0.852202
0.852205
0.852207
0.852207
0.852208
0.852208
0.852208
0.852208
0.852208
0.852208
0.852208
0.852208
0.852208
0.852209
0.852209
0.852209
0.852209
0.852209
0.852209
0.852209
0.852209
0.852209
0.852209
0.852209
0.852209
0.852209
0.852209
0.852209
0.852209
0.852209
0.852209
0.852209
0.852209
0.852209
0.852209
0.852209
0.852209
0.852208
0.852208
0.852208
0.852208
0.852208
0.852208
0.852208
0.852208
0.852208
0.852207
0.852207
0.852205
0.852202
0.852194
0.852173
0.852121
0.852
0.851743
0.862146
0.862395
0.862515
0.862567
0.862589
0.862597
0.8626
0.862602
0.862603
0.862603
0.862603
0.862603
0.862603
0.862603
0.862604
0.862604
0.862604
0.862604
0.862604
0.862604
0.862604
0.862604
0.862604
0.862604
0.862604
0.862604
0.862604
0.862604
0.862604
0.862604
0.862604
0.862604
0.862604
0.862604
0.862604
0.862604
0.862604
0.862604
0.862604
0.862604
0.862604
0.862604
0.862604
0.862604
0.862604
0.862604
0.862603
0.862603
0.862603
0.862603
0.862603
0.862603
0.862602
0.8626
0.862597
0.862589
0.862567
0.862515
0.862395
0.862146
0.871948
0.87219
0.872308
0.87236
0.872382
0.872391
0.872395
0.872396
0.872397
0.872397
0.872397
0.872398
0.872398
0.872398
0.872398
0.872398
0.872398
0.872398
0.872398
0.872398
0.872398
0.872398
0.872398
0.872398
0.872398
0.872398
0.872398
0.872398
0.872398
0.872398
0.872398
0.872398
0.872398
0.872398
0.872398
0.872398
0.872398
0.872398
0.872398
0.872398
0.872398
0.872398
0.872398
0.872398
0.872398
0.872398
0.872398
0.872398
0.872398
0.872397
0.872397
0.872397
0.872396
0.872395
0.872391
0.872382
0.87236
0.872308
0.87219
0.871948
0.881175
0.881409
0.881525
0.881578
0.8816
0.881609
0.881613
0.881614
0.881615
0.881615
0.881616
0.881616
0.881616
0.881616
0.881616
0.881616
0.881616
0.881616
0.881616
0.881616
0.881616
0.881616
0.881616
0.881616
0.881616
0.881616
0.881616
0.881616
0.881616
0.881616
0.881616
0.881616
0.881616
0.881616
0.881616
0.881616
0.881616
0.881616
0.881616
0.881616
0.881616
0.881616
0.881616
0.881616
0.881616
0.881616
0.881616
0.881616
0.881616
0.881616
0.881615
0.881615
0.881614
0.881613
0.881609
0.8816
0.881578
0.881525
0.881409
0.881175
0.889851
0.890076
0.890191
0.890243
0.890266
0.890275
0.890279
0.890281
0.890282
0.890282
0.890282
0.890282
0.890282
0.890282
0.890283
0.890283
0.890283
0.890283
0.890283
0.890283
0.890283
0.890283
0.890283
0.890283
0.890283
0.890283
0.890283
0.890283
0.890283
0.890283
0.890283
0.890283
0.890283
0.890283
0.890283
0.890283
0.890283
0.890283
0.890283
0.890283
0.890283
0.890283
0.890283
0.890283
0.890283
0.890283
0.890282
0.890282
0.890282
0.890282
0.890282
0.890282
0.890281
0.890279
0.890275
0.890266
0.890243
0.890191
0.890076
0.889851
0.898
0.898217
0.898329
0.898382
0.898405
0.898414
0.898418
0.89842
0.898421
0.898421
0.898421
0.898421
0.898422
0.898422
0.898422
0.898422
0.898422
0.898422
0.898422
0.898422
0.898422
0.898422
0.898422
0.898422
0.898422
0.898422
0.898422
0.898422
0.898422
0.898422
0.898422
0.898422
0.898422
0.898422
0.898422
0.898422
0.898422
0.898422
0.898422
0.898422
0.898422
0.898422
0.898422
0.898422
0.898422
0.898422
0.898422
0.898422
0.898421
0.898421
0.898421
0.898421
0.89842
0.898418
0.898414
0.898405
0.898382
0.898329
0.898217
0.898
0.905645
0.905854
0.905964
0.906016
0.906039
0.906049
0.906054
0.906055
0.906056
0.906057
0.906057
0.906057
0.906057
0.906057
0.906057
0.906057
0.906057
0.906057
0.906057
0.906057
0.906057
0.906057
0.906057
0.906057
0.906057
0.906057
0.906057
0.906057
0.906057
0.906057
0.906057
0.906057
0.906057
0.906057
0.906057
0.906057
0.906057
0.906057
0.906057
0.906057
0.906057
0.906057
0.906057
0.906057
0.906057
0.906057
0.906057
0.906057
0.906057
0.906057
0.906057
0.906056
0.906055
0.906054
0.906049
0.906039
0.906016
0.905964
0.905854
0.905645
0.91281
0.91301
0.913118
0.91317
0.913194
0.913204
0.913208
0.91321
0.913211
0.913211
0.913212
0.913212
0.913212
0.913212
0.913212
0.913212
0.913212
0.913212
0.913212
0.913212
0.913212
0.913212
0.913212
0.913212
0.913212
0.913212
0.913212
0.913212
0.913212
0.913212
0.913212
0.913212
0.913212
0.913212
0.913212
0.913212
0.913212
0.913212
0.913212
0.913212
0.913212
0.913212
0.913212
0.913212
0.913212
0.913212
0.913212
0.913212
0.913212
0.913212
0.913211
0.913211
0.91321
0.913208
0.913204
0.913194
0.91317
0.913118
0.91301
0.91281
0.919518
0.91971
0.919814
0.919866
0.91989
0.9199
0.919905
0.919907
0.919908
0.919908
0.919908
0.919909
0.919909
0.919909
0.919909
0.919909
0.919909
0.919909
0.919909
0.919909
0.919909
0.919909
0.919909
0.919909
0.919909
0.919909
0.919909
0.919909
0.919909
0.919909
0.919909
0.919909
0.919909
0.919909
0.919909
0.919909
0.919909
0.919909
0.919909
0.919909
0.919909
0.919909
0.919909
0.919909
0.919909
0.919909
0.919909
0.919909
0.919909
0.919908
0.919908
0.919908
0.919907
0.919905
0.9199
0.91989
0.919866
0.919814
0.91971
0.919518
0.92579
0.925974
0.926075
0.926126
0.92615
0.926161
0.926166
0.926168
0.926169
0.92617
0.92617
0.92617
0.92617
0.92617
0.92617
0.92617
0.92617
0.92617
0.92617
0.92617
0.92617
0.92617
0.92617
0.92617
0.92617
0.92617
0.92617
0.92617
0.92617
0.92617
0.92617
0.92617
0.92617
0.92617
0.92617
0.92617
0.92617
0.92617
0.92617
0.92617
0.92617
0.92617