/*--------------------------------*- C++ -*----------------------------------*\
| =========                 |                                                 |
| \\      /  F ield         | foam-extend: Open Source CFD                    |
|  \\    /   O peration     | Version:     4.0                                |
|   \\  /    A nd           | Web:         http://www.foam-extend.org         |
|    \\/     M anipulation  |                                                 |
\*---------------------------------------------------------------------------*/
FoamFile
{
    version     2.0;
    format      ascii;
    class       volScalarField;
    location    "1760";
    object      cPlus;
}
// * * * * * * * * * * * * * * * * * * * * * * * * * * * * * * * * * * * * * //

dimensions      [0 0 0 0 0 0 0];

internalField   nonuniform List<scalar> 
6960
(
0.25199
0.251946
0.251936
0.251934
0.251935
0.251936
0.251938
0.251939
0.25194
0.251941
0.251942
0.251943
0.251944
0.251944
0.251945
0.251946
0.251946
0.251947
0.251947
0.251948
0.251948
0.251948
0.251949
0.251949
0.251949
0.251949
0.251949
0.251949
0.251949
0.251949
0.251949
0.251949
0.251949
0.251949
0.251949
0.251949
0.251949
0.251949
0.251948
0.251948
0.251948
0.251947
0.251947
0.251946
0.251946
0.251945
0.251944
0.251944
0.251943
0.251942
0.251941
0.25194
0.251939
0.251938
0.251936
0.251935
0.251934
0.251936
0.251946
0.25199
0.0942754
0.0942773
0.0942779
0.0942787
0.0942796
0.0942805
0.0942813
0.094282
0.0942826
0.0942832
0.0942837
0.0942842
0.0942846
0.094285
0.0942854
0.0942857
0.094286
0.0942862
0.0942865
0.0942867
0.0942868
0.094287
0.0942871
0.0942872
0.0942874
0.0942874
0.0942875
0.0942875
0.0942876
0.0942876
0.0942876
0.0942876
0.0942875
0.0942875
0.0942874
0.0942874
0.0942872
0.0942871
0.094287
0.0942868
0.0942867
0.0942865
0.0942862
0.094286
0.0942857
0.0942854
0.094285
0.0942846
0.0942842
0.0942837
0.0942832
0.0942826
0.094282
0.0942813
0.0942805
0.0942796
0.0942787
0.0942779
0.0942773
0.0942754
0.0670706
0.0670932
0.0670987
0.0671006
0.0671016
0.0671023
0.0671029
0.0671033
0.0671037
0.0671041
0.0671044
0.0671047
0.067105
0.0671052
0.0671054
0.0671056
0.0671057
0.0671059
0.067106
0.0671061
0.0671062
0.0671063
0.0671064
0.0671064
0.0671065
0.0671065
0.0671066
0.0671066
0.0671066
0.0671066
0.0671066
0.0671066
0.0671066
0.0671066
0.0671065
0.0671065
0.0671064
0.0671064
0.0671063
0.0671062
0.0671061
0.067106
0.0671059
0.0671057
0.0671056
0.0671054
0.0671052
0.067105
0.0671047
0.0671044
0.0671041
0.0671037
0.0671033
0.0671029
0.0671023
0.0671016
0.0671006
0.0670987
0.0670932
0.0670706
0.0638339
0.0638654
0.063873
0.0638754
0.0638765
0.0638771
0.0638776
0.0638781
0.0638784
0.0638787
0.063879
0.0638792
0.0638794
0.0638796
0.0638798
0.0638799
0.06388
0.0638801
0.0638802
0.0638803
0.0638804
0.0638805
0.0638805
0.0638806
0.0638806
0.0638806
0.0638807
0.0638807
0.0638807
0.0638807
0.0638807
0.0638807
0.0638807
0.0638807
0.0638806
0.0638806
0.0638806
0.0638805
0.0638805
0.0638804
0.0638803
0.0638802
0.0638801
0.06388
0.0638799
0.0638798
0.0638796
0.0638794
0.0638792
0.063879
0.0638787
0.0638784
0.0638781
0.0638776
0.0638771
0.0638765
0.0638754
0.063873
0.0638654
0.0638339
0.0661029
0.0661399
0.0661488
0.0661516
0.0661528
0.0661535
0.066154
0.0661545
0.0661549
0.0661552
0.0661554
0.0661557
0.0661559
0.0661561
0.0661562
0.0661564
0.0661565
0.0661566
0.0661567
0.0661568
0.0661569
0.0661569
0.066157
0.0661571
0.0661571
0.0661571
0.0661572
0.0661572
0.0661572
0.0661572
0.0661572
0.0661572
0.0661572
0.0661572
0.0661571
0.0661571
0.0661571
0.066157
0.0661569
0.0661569
0.0661568
0.0661567
0.0661566
0.0661565
0.0661564
0.0661562
0.0661561
0.0661559
0.0661557
0.0661554
0.0661552
0.0661549
0.0661545
0.066154
0.0661535
0.0661528
0.0661516
0.0661488
0.0661399
0.0661029
0.0703012
0.0703435
0.0703537
0.0703569
0.0703583
0.0703591
0.0703597
0.0703602
0.0703607
0.070361
0.0703614
0.0703616
0.0703619
0.0703621
0.0703623
0.0703624
0.0703626
0.0703627
0.0703628
0.0703629
0.070363
0.0703631
0.0703632
0.0703632
0.0703633
0.0703633
0.0703633
0.0703634
0.0703634
0.0703634
0.0703634
0.0703634
0.0703634
0.0703633
0.0703633
0.0703633
0.0703632
0.0703632
0.0703631
0.070363
0.0703629
0.0703628
0.0703627
0.0703626
0.0703624
0.0703623
0.0703621
0.0703619
0.0703616
0.0703614
0.070361
0.0703607
0.0703602
0.0703597
0.0703591
0.0703583
0.0703569
0.0703537
0.0703435
0.0703012
0.0759156
0.0759644
0.0759763
0.0759801
0.0759817
0.0759827
0.0759834
0.075984
0.0759845
0.075985
0.0759854
0.0759857
0.075986
0.0759863
0.0759865
0.0759867
0.0759869
0.075987
0.0759872
0.0759873
0.0759874
0.0759875
0.0759876
0.0759876
0.0759877
0.0759877
0.0759878
0.0759878
0.0759878
0.0759878
0.0759878
0.0759878
0.0759878
0.0759878
0.0759877
0.0759877
0.0759876
0.0759876
0.0759875
0.0759874
0.0759873
0.0759872
0.075987
0.0759869
0.0759867
0.0759865
0.0759863
0.075986
0.0759857
0.0759854
0.075985
0.0759845
0.075984
0.0759834
0.0759827
0.0759817
0.0759801
0.0759763
0.0759644
0.0759156
0.0832046
0.0832622
0.0832763
0.0832808
0.0832828
0.083284
0.0832849
0.0832856
0.0832863
0.0832868
0.0832873
0.0832877
0.0832881
0.0832884
0.0832887
0.0832889
0.0832891
0.0832893
0.0832895
0.0832897
0.0832898
0.0832899
0.08329
0.0832901
0.0832902
0.0832902
0.0832903
0.0832903
0.0832903
0.0832904
0.0832904
0.0832903
0.0832903
0.0832903
0.0832902
0.0832902
0.0832901
0.08329
0.0832899
0.0832898
0.0832897
0.0832895
0.0832893
0.0832891
0.0832889
0.0832887
0.0832884
0.0832881
0.0832877
0.0832873
0.0832868
0.0832863
0.0832856
0.0832849
0.083284
0.0832828
0.0832808
0.0832763
0.0832622
0.0832046
0.0927299
0.0927996
0.0928168
0.0928223
0.0928247
0.0928262
0.0928273
0.0928282
0.092829
0.0928297
0.0928303
0.0928309
0.0928313
0.0928317
0.0928321
0.0928324
0.0928327
0.0928329
0.0928332
0.0928334
0.0928335
0.0928337
0.0928338
0.0928339
0.092834
0.0928341
0.0928342
0.0928342
0.0928342
0.0928342
0.0928342
0.0928342
0.0928342
0.0928342
0.0928341
0.092834
0.0928339
0.0928338
0.0928337
0.0928335
0.0928334
0.0928332
0.0928329
0.0928327
0.0928324
0.0928321
0.0928317
0.0928313
0.0928309
0.0928303
0.0928297
0.092829
0.0928282
0.0928273
0.0928262
0.0928247
0.0928223
0.0928168
0.0927996
0.0927299
0.105219
0.105305
0.105327
0.105333
0.105336
0.105338
0.10534
0.105341
0.105342
0.105343
0.105344
0.105344
0.105345
0.105345
0.105346
0.105346
0.105347
0.105347
0.105347
0.105347
0.105348
0.105348
0.105348
0.105348
0.105348
0.105348
0.105348
0.105348
0.105348
0.105348
0.105348
0.105348
0.105348
0.105348
0.105348
0.105348
0.105348
0.105348
0.105348
0.105348
0.105347
0.105347
0.105347
0.105347
0.105346
0.105346
0.105345
0.105345
0.105344
0.105344
0.105343
0.105342
0.105341
0.10534
0.105338
0.105336
0.105333
0.105327
0.105305
0.105219
0.121413
0.121519
0.121546
0.121554
0.121558
0.12156
0.121562
0.121564
0.121565
0.121566
0.121567
0.121568
0.121568
0.121569
0.12157
0.12157
0.12157
0.121571
0.121571
0.121572
0.121572
0.121572
0.121572
0.121572
0.121573
0.121573
0.121573
0.121573
0.121573
0.121573
0.121573
0.121573
0.121573
0.121573
0.121573
0.121573
0.121572
0.121572
0.121572
0.121572
0.121572
0.121571
0.121571
0.12157
0.12157
0.12157
0.121569
0.121568
0.121568
0.121567
0.121566
0.121565
0.121564
0.121562
0.12156
0.121558
0.121554
0.121546
0.121519
0.121413
0.141819
0.14195
0.141983
0.141994
0.141998
0.142001
0.142003
0.142005
0.142006
0.142008
0.142009
0.14201
0.142011
0.142011
0.142012
0.142013
0.142013
0.142014
0.142014
0.142014
0.142015
0.142015
0.142015
0.142015
0.142016
0.142016
0.142016
0.142016
0.142016
0.142016
0.142016
0.142016
0.142016
0.142016
0.142016
0.142016
0.142015
0.142015
0.142015
0.142015
0.142014
0.142014
0.142014
0.142013
0.142013
0.142012
0.142011
0.142011
0.14201
0.142009
0.142008
0.142006
0.142005
0.142003
0.142001
0.141998
0.141994
0.141983
0.14195
0.141819
0.166469
0.166627
0.166667
0.166679
0.166685
0.166688
0.166691
0.166693
0.166694
0.166696
0.166697
0.166698
0.166699
0.1667
0.166701
0.166701
0.166702
0.166703
0.166703
0.166703
0.166704
0.166704
0.166704
0.166705
0.166705
0.166705
0.166705
0.166705
0.166705
0.166705
0.166705
0.166705
0.166705
0.166705
0.166705
0.166705
0.166705
0.166704
0.166704
0.166704
0.166703
0.166703
0.166703
0.166702
0.166701
0.166701
0.1667
0.166699
0.166698
0.166697
0.166696
0.166694
0.166693
0.166691
0.166688
0.166685
0.166679
0.166667
0.166627
0.166469
0.194817
0.195
0.195048
0.195063
0.195069
0.195072
0.195075
0.195077
0.195079
0.195081
0.195082
0.195083
0.195084
0.195085
0.195086
0.195087
0.195088
0.195088
0.195089
0.195089
0.19509
0.19509
0.19509
0.195091
0.195091
0.195091
0.195091
0.195091
0.195091
0.195091
0.195091
0.195091
0.195091
0.195091
0.195091
0.195091
0.195091
0.19509
0.19509
0.19509
0.195089
0.195089
0.195088
0.195088
0.195087
0.195086
0.195085
0.195084
0.195083
0.195082
0.195081
0.195079
0.195077
0.195075
0.195072
0.195069
0.195063
0.195048
0.195
0.194817
0.225884
0.226091
0.226145
0.226162
0.226169
0.226173
0.226176
0.226178
0.22618
0.226182
0.226183
0.226185
0.226186
0.226187
0.226188
0.226189
0.226189
0.22619
0.22619
0.226191
0.226191
0.226192
0.226192
0.226192
0.226192
0.226193
0.226193
0.226193
0.226193
0.226193
0.226193
0.226193
0.226193
0.226193
0.226193
0.226192
0.226192
0.226192
0.226192
0.226191
0.226191
0.22619
0.22619
0.226189
0.226189
0.226188
0.226187
0.226186
0.226185
0.226183
0.226182
0.22618
0.226178
0.226176
0.226173
0.226169
0.226162
0.226145
0.226091
0.225884
0.258557
0.258785
0.258846
0.258865
0.258872
0.258876
0.258879
0.258882
0.258884
0.258885
0.258887
0.258888
0.258889
0.25889
0.258891
0.258892
0.258892
0.258893
0.258894
0.258894
0.258894
0.258895
0.258895
0.258895
0.258896
0.258896
0.258896
0.258896
0.258896
0.258896
0.258896
0.258896
0.258896
0.258896
0.258896
0.258896
0.258895
0.258895
0.258895
0.258894
0.258894
0.258894
0.258893
0.258892
0.258892
0.258891
0.25889
0.258889
0.258888
0.258887
0.258885
0.258884
0.258882
0.258879
0.258876
0.258872
0.258865
0.258846
0.258785
0.258557
0.291857
0.292104
0.29217
0.292191
0.292199
0.292203
0.292206
0.292208
0.29221
0.292212
0.292213
0.292214
0.292215
0.292216
0.292217
0.292218
0.292219
0.292219
0.29222
0.29222
0.29222
0.292221
0.292221
0.292221
0.292222
0.292222
0.292222
0.292222
0.292222
0.292222
0.292222
0.292222
0.292222
0.292222
0.292222
0.292222
0.292221
0.292221
0.292221
0.29222
0.29222
0.29222
0.292219
0.292219
0.292218
0.292217
0.292216
0.292215
0.292214
0.292213
0.292212
0.29221
0.292208
0.292206
0.292203
0.292199
0.292191
0.29217
0.292104
0.291857
0.325067
0.325328
0.3254
0.325422
0.32543
0.325435
0.325438
0.32544
0.325442
0.325443
0.325445
0.325446
0.325447
0.325448
0.325449
0.325449
0.32545
0.32545
0.325451
0.325451
0.325452
0.325452
0.325452
0.325453
0.325453
0.325453
0.325453
0.325453
0.325453
0.325453
0.325453
0.325453
0.325453
0.325453
0.325453
0.325453
0.325453
0.325452
0.325452
0.325452
0.325451
0.325451
0.32545
0.32545
0.325449
0.325449
0.325448
0.325447
0.325446
0.325445
0.325443
0.325442
0.32544
0.325438
0.325435
0.32543
0.325422
0.3254
0.325328
0.325067
0.357724
0.357998
0.358075
0.358099
0.358108
0.358112
0.358115
0.358117
0.358119
0.35812
0.358122
0.358123
0.358124
0.358124
0.358125
0.358126
0.358126
0.358127
0.358127
0.358128
0.358128
0.358128
0.358129
0.358129
0.358129
0.358129
0.358129
0.358129
0.35813
0.35813
0.35813
0.35813
0.358129
0.358129
0.358129
0.358129
0.358129
0.358129
0.358128
0.358128
0.358128
0.358127
0.358127
0.358126
0.358126
0.358125
0.358124
0.358124
0.358123
0.358122
0.35812
0.358119
0.358117
0.358115
0.358112
0.358108
0.358099
0.358075
0.357998
0.357724
0.389562
0.389847
0.389928
0.389953
0.389962
0.389967
0.389969
0.389971
0.389973
0.389975
0.389976
0.389977
0.389978
0.389979
0.389979
0.38998
0.38998
0.389981
0.389981
0.389982
0.389982
0.389982
0.389983
0.389983
0.389983
0.389983
0.389983
0.389983
0.389983
0.389983
0.389983
0.389983
0.389983
0.389983
0.389983
0.389983
0.389983
0.389983
0.389982
0.389982
0.389982
0.389981
0.389981
0.38998
0.38998
0.389979
0.389979
0.389978
0.389977
0.389976
0.389975
0.389973
0.389971
0.389969
0.389967
0.389962
0.389953
0.389928
0.389847
0.389562
0.420433
0.420728
0.420813
0.42084
0.42085
0.420854
0.420857
0.420859
0.42086
0.420862
0.420863
0.420864
0.420865
0.420865
0.420866
0.420866
0.420867
0.420867
0.420868
0.420868
0.420868
0.420869
0.420869
0.420869
0.420869
0.420869
0.420869
0.42087
0.42087
0.42087
0.42087
0.42087
0.42087
0.420869
0.420869
0.420869
0.420869
0.420869
0.420869
0.420868
0.420868
0.420868
0.420867
0.420867
0.420866
0.420866
0.420865
0.420865
0.420864
0.420863
0.420862
0.42086
0.420859
0.420857
0.420854
0.42085
0.42084
0.420813
0.420728
0.420433
0.450267
0.450569
0.450659
0.450687
0.450696
0.450701
0.450703
0.450705
0.450707
0.450708
0.450709
0.45071
0.450711
0.450712
0.450712
0.450713
0.450713
0.450714
0.450714
0.450714
0.450715
0.450715
0.450715
0.450715
0.450715
0.450715
0.450715
0.450716
0.450716
0.450716
0.450716
0.450716
0.450716
0.450715
0.450715
0.450715
0.450715
0.450715
0.450715
0.450715
0.450714
0.450714
0.450714
0.450713
0.450713
0.450712
0.450712
0.450711
0.45071
0.450709
0.450708
0.450707
0.450705
0.450703
0.450701
0.450696
0.450687
0.450659
0.450569
0.450267
0.479028
0.479337
0.479431
0.47946
0.47947
0.479475
0.479477
0.479479
0.479481
0.479482
0.479483
0.479484
0.479484
0.479485
0.479486
0.479486
0.479487
0.479487
0.479487
0.479487
0.479488
0.479488
0.479488
0.479488
0.479488
0.479489
0.479489
0.479489
0.479489
0.479489
0.479489
0.479489
0.479489
0.479489
0.479489
0.479488
0.479488
0.479488
0.479488
0.479488
0.479487
0.479487
0.479487
0.479487
0.479486
0.479486
0.479485
0.479484
0.479484
0.479483
0.479482
0.479481
0.479479
0.479477
0.479475
0.47947
0.47946
0.479431
0.479337
0.479028
0.506709
0.507023
0.507121
0.507151
0.507162
0.507167
0.507169
0.507171
0.507172
0.507173
0.507174
0.507175
0.507176
0.507176
0.507177
0.507177
0.507177
0.507178
0.507178
0.507178
0.507179
0.507179
0.507179
0.507179
0.507179
0.507179
0.507179
0.507179
0.507179
0.507179
0.507179
0.507179
0.507179
0.507179
0.507179
0.507179
0.507179
0.507179
0.507179
0.507179
0.507178
0.507178
0.507178
0.507177
0.507177
0.507177
0.507176
0.507176
0.507175
0.507174
0.507173
0.507172
0.507171
0.507169
0.507167
0.507162
0.507151
0.507121
0.507023
0.506709
0.533313
0.53363
0.533732
0.533764
0.533775
0.533779
0.533782
0.533783
0.533785
0.533786
0.533787
0.533787
0.533788
0.533788
0.533789
0.533789
0.53379
0.53379
0.53379
0.533791
0.533791
0.533791
0.533791
0.533791
0.533791
0.533791
0.533791
0.533791
0.533792
0.533792
0.533792
0.533792
0.533791
0.533791
0.533791
0.533791
0.533791
0.533791
0.533791
0.533791
0.533791
0.53379
0.53379
0.53379
0.533789
0.533789
0.533788
0.533788
0.533787
0.533787
0.533786
0.533785
0.533783
0.533782
0.533779
0.533775
0.533764
0.533732
0.53363
0.533313
0.55885
0.559171
0.559276
0.559309
0.559321
0.559325
0.559328
0.559329
0.55933
0.559331
0.559332
0.559333
0.559333
0.559334
0.559334
0.559335
0.559335
0.559335
0.559336
0.559336
0.559336
0.559336
0.559336
0.559336
0.559336
0.559336
0.559337
0.559337
0.559337
0.559337
0.559337
0.559337
0.559337
0.559337
0.559336
0.559336
0.559336
0.559336
0.559336
0.559336
0.559336
0.559336
0.559335
0.559335
0.559335
0.559334
0.559334
0.559333
0.559333
0.559332
0.559331
0.55933
0.559329
0.559328
0.559325
0.559321
0.559309
0.559276
0.559171
0.55885
0.583339
0.583662
0.583769
0.583804
0.583816
0.583821
0.583823
0.583825
0.583826
0.583827
0.583827
0.583828
0.583829
0.583829
0.583829
0.58383
0.58383
0.58383
0.583831
0.583831
0.583831
0.583831
0.583831
0.583831
0.583831
0.583831
0.583831
0.583832
0.583832
0.583832
0.583832
0.583832
0.583832
0.583831
0.583831
0.583831
0.583831
0.583831
0.583831
0.583831
0.583831
0.583831
0.58383
0.58383
0.58383
0.583829
0.583829
0.583829
0.583828
0.583827
0.583827
0.583826
0.583825
0.583823
0.583821
0.583816
0.583804
0.583769
0.583662
0.583339
0.606799
0.607122
0.607232
0.607269
0.607281
0.607286
0.607288
0.60729
0.607291
0.607292
0.607292
0.607293
0.607293
0.607294
0.607294
0.607295
0.607295
0.607295
0.607295
0.607295
0.607296
0.607296
0.607296
0.607296
0.607296
0.607296
0.607296
0.607296
0.607296
0.607296
0.607296
0.607296
0.607296
0.607296
0.607296
0.607296
0.607296
0.607296
0.607296
0.607296
0.607295
0.607295
0.607295
0.607295
0.607295
0.607294
0.607294
0.607293
0.607293
0.607292
0.607292
0.607291
0.60729
0.607288
0.607286
0.607281
0.607269
0.607232
0.607122
0.606799
0.629251
0.629575
0.629688
0.629725
0.629738
0.629743
0.629745
0.629747
0.629748
0.629749
0.629749
0.62975
0.62975
0.629751
0.629751
0.629751
0.629751
0.629752
0.629752
0.629752
0.629752
0.629752
0.629752
0.629752
0.629752
0.629753
0.629753
0.629753
0.629753
0.629753
0.629753
0.629753
0.629753
0.629753
0.629753
0.629752
0.629752
0.629752
0.629752
0.629752
0.629752
0.629752
0.629752
0.629751
0.629751
0.629751
0.629751
0.62975
0.62975
0.629749
0.629749
0.629748
0.629747
0.629745
0.629743
0.629738
0.629725
0.629688
0.629575
0.629251
0.65072
0.651043
0.651158
0.651197
0.65121
0.651215
0.651218
0.651219
0.65122
0.651221
0.651221
0.651222
0.651222
0.651222
0.651223
0.651223
0.651223
0.651223
0.651224
0.651224
0.651224
0.651224
0.651224
0.651224
0.651224
0.651224
0.651224
0.651224
0.651224
0.651224
0.651224
0.651224
0.651224
0.651224
0.651224
0.651224
0.651224
0.651224
0.651224
0.651224
0.651224
0.651224
0.651223
0.651223
0.651223
0.651223
0.651222
0.651222
0.651222
0.651221
0.651221
0.65122
0.651219
0.651218
0.651215
0.65121
0.651197
0.651158
0.651043
0.65072
0.671229
0.67155
0.671668
0.671708
0.671722
0.671727
0.67173
0.671731
0.671732
0.671733
0.671733
0.671733
0.671734
0.671734
0.671734
0.671735
0.671735
0.671735
0.671735
0.671735
0.671735
0.671736
0.671736
0.671736
0.671736
0.671736
0.671736
0.671736
0.671736
0.671736
0.671736
0.671736
0.671736
0.671736
0.671736
0.671736
0.671736
0.671736
0.671736
0.671735
0.671735
0.671735
0.671735
0.671735
0.671735
0.671734
0.671734
0.671734
0.671733
0.671733
0.671733
0.671732
0.671731
0.67173
0.671727
0.671722
0.671708
0.671668
0.67155
0.671229
0.690805
0.691123
0.691243
0.691284
0.691299
0.691304
0.691306
0.691308
0.691309
0.691309
0.69131
0.69131
0.69131
0.691311
0.691311
0.691311
0.691311
0.691311
0.691312
0.691312
0.691312
0.691312
0.691312
0.691312
0.691312
0.691312
0.691312
0.691312
0.691312
0.691312
0.691312
0.691312
0.691312
0.691312
0.691312
0.691312
0.691312
0.691312
0.691312
0.691312
0.691312
0.691312
0.691311
0.691311
0.691311
0.691311
0.691311
0.69131
0.69131
0.69131
0.691309
0.691309
0.691308
0.691306
0.691304
0.691299
0.691284
0.691243
0.691123
0.690805
0.709471
0.709787
0.709908
0.709951
0.709966
0.709971
0.709974
0.709975
0.709976
0.709976
0.709977
0.709977
0.709977
0.709978
0.709978
0.709978
0.709978
0.709978
0.709978
0.709979
0.709979
0.709979
0.709979
0.709979
0.709979
0.709979
0.709979
0.709979
0.709979
0.709979
0.709979
0.709979
0.709979
0.709979
0.709979
0.709979
0.709979
0.709979
0.709979
0.709979
0.709979
0.709978
0.709978
0.709978
0.709978
0.709978
0.709978
0.709977
0.709977
0.709977
0.709976
0.709976
0.709975
0.709974
0.709971
0.709966
0.709951
0.709908
0.709787
0.709471
0.727255
0.727567
0.727689
0.727733
0.727749
0.727755
0.727757
0.727758
0.727759
0.72776
0.72776
0.72776
0.727761
0.727761
0.727761
0.727761
0.727761
0.727761
0.727762
0.727762
0.727762
0.727762
0.727762
0.727762
0.727762
0.727762
0.727762
0.727762
0.727762
0.727762
0.727762
0.727762
0.727762
0.727762
0.727762
0.727762
0.727762
0.727762
0.727762
0.727762
0.727762
0.727762
0.727761
0.727761
0.727761
0.727761
0.727761
0.727761
0.72776
0.72776
0.72776
0.727759
0.727758
0.727757
0.727755
0.727749
0.727733
0.727689
0.727567
0.727255
0.744182
0.74449
0.744613
0.744658
0.744674
0.74468
0.744683
0.744684
0.744685
0.744685
0.744686
0.744686
0.744686
0.744686
0.744686
0.744687
0.744687
0.744687
0.744687
0.744687
0.744687
0.744687
0.744687
0.744687
0.744687
0.744687
0.744687
0.744687
0.744687
0.744687
0.744687
0.744687
0.744687
0.744687
0.744687
0.744687
0.744687
0.744687
0.744687
0.744687
0.744687
0.744687
0.744687
0.744687
0.744687
0.744686
0.744686
0.744686
0.744686
0.744686
0.744685
0.744685
0.744684
0.744683
0.74468
0.744674
0.744658
0.744613
0.74449
0.744182
0.760278
0.760581
0.760705
0.760751
0.760768
0.760774
0.760777
0.760778
0.760779
0.760779
0.76078
0.76078
0.76078
0.76078
0.76078
0.760781
0.760781
0.760781
0.760781
0.760781
0.760781
0.760781
0.760781
0.760781
0.760781
0.760781
0.760781
0.760781
0.760781
0.760781
0.760781
0.760781
0.760781
0.760781
0.760781
0.760781
0.760781
0.760781
0.760781
0.760781
0.760781
0.760781
0.760781
0.760781
0.760781
0.76078
0.76078
0.76078
0.76078
0.76078
0.760779
0.760779
0.760778
0.760777
0.760774
0.760768
0.760751
0.760705
0.760581
0.760278
0.77557
0.775868
0.775992
0.776039
0.776057
0.776063
0.776066
0.776067
0.776068
0.776068
0.776068
0.776069
0.776069
0.776069
0.776069
0.776069
0.776069
0.77607
0.77607
0.77607
0.77607
0.77607
0.77607
0.77607
0.77607
0.77607
0.77607
0.77607
0.77607
0.77607
0.77607
0.77607
0.77607
0.77607
0.77607
0.77607
0.77607
0.77607
0.77607
0.77607
0.77607
0.77607
0.77607
0.776069
0.776069
0.776069
0.776069
0.776069
0.776069
0.776068
0.776068
0.776068
0.776067
0.776066
0.776063
0.776057
0.776039
0.775992
0.775868
0.77557
0.790084
0.790375
0.7905
0.790548
0.790566
0.790573
0.790576
0.790577
0.790577
0.790578
0.790578
0.790578
0.790579
0.790579
0.790579
0.790579
0.790579
0.790579
0.790579
0.790579
0.790579
0.790579
0.790579
0.790579
0.79058
0.79058
0.79058
0.79058
0.79058
0.79058
0.79058
0.79058
0.79058
0.79058
0.79058
0.79058
0.790579
0.790579
0.790579
0.790579
0.790579
0.790579
0.790579
0.790579
0.790579
0.790579
0.790579
0.790579
0.790578
0.790578
0.790578
0.790577
0.790577
0.790576
0.790573
0.790566
0.790548
0.7905
0.790375
0.790084
0.803845
0.804131
0.804255
0.804304
0.804323
0.80433
0.804332
0.804334
0.804334
0.804335
0.804335
0.804335
0.804335
0.804335
0.804336
0.804336
0.804336
0.804336
0.804336
0.804336
0.804336
0.804336
0.804336
0.804336
0.804336
0.804336
0.804336
0.804336
0.804336
0.804336
0.804336
0.804336
0.804336
0.804336
0.804336
0.804336
0.804336
0.804336
0.804336
0.804336
0.804336
0.804336
0.804336
0.804336
0.804336
0.804336
0.804335
0.804335
0.804335
0.804335
0.804335
0.804334
0.804334
0.804332
0.80433
0.804323
0.804304
0.804255
0.804131
0.803845
0.81688
0.817159
0.817283
0.817333
0.817352
0.817359
0.817362
0.817364
0.817364
0.817365
0.817365
0.817365
0.817365
0.817365
0.817365
0.817366
0.817366
0.817366
0.817366
0.817366
0.817366
0.817366
0.817366
0.817366
0.817366
0.817366
0.817366
0.817366
0.817366
0.817366
0.817366
0.817366
0.817366
0.817366
0.817366
0.817366
0.817366
0.817366
0.817366
0.817366
0.817366
0.817366
0.817366
0.817366
0.817366
0.817365
0.817365
0.817365
0.817365
0.817365
0.817365
0.817364
0.817364
0.817362
0.817359
0.817352
0.817333
0.817283
0.817159
0.81688
0.829215
0.829487
0.82961
0.829661
0.829681
0.829688
0.829691
0.829693
0.829693
0.829694
0.829694
0.829694
0.829694
0.829694
0.829694
0.829695
0.829695
0.829695
0.829695
0.829695
0.829695
0.829695
0.829695
0.829695
0.829695
0.829695
0.829695
0.829695
0.829695
0.829695
0.829695
0.829695
0.829695
0.829695
0.829695
0.829695
0.829695
0.829695
0.829695
0.829695
0.829695
0.829695
0.829695
0.829695
0.829695
0.829694
0.829694
0.829694
0.829694
0.829694
0.829694
0.829693
0.829693
0.829691
0.829688
0.829681
0.829661
0.82961
0.829487
0.829215
0.840876
0.84114
0.841263
0.841314
0.841334
0.841342
0.841345
0.841347
0.841347
0.841348
0.841348
0.841348
0.841348
0.841348
0.841348
0.841348
0.841348
0.841348
0.841349
0.841349
0.841349
0.841349
0.841349
0.841349
0.841349
0.841349
0.841349
0.841349
0.841349
0.841349
0.841349
0.841349
0.841349
0.841349
0.841349
0.841349
0.841349
0.841349
0.841349
0.841349
0.841349
0.841349
0.841348
0.841348
0.841348
0.841348
0.841348
0.841348
0.841348
0.841348
0.841348
0.841347
0.841347
0.841345
0.841342
0.841334
0.841314
0.841263
0.84114
0.840876
0.851887
0.852144
0.852265
0.852317
0.852338
0.852346
0.852349
0.852351
0.852351
0.852352
0.852352
0.852352
0.852352
0.852352
0.852352
0.852353
0.852353
0.852353
0.852353
0.852353
0.852353
0.852353
0.852353
0.852353
0.852353
0.852353
0.852353
0.852353
0.852353
0.852353
0.852353
0.852353
0.852353
0.852353
0.852353
0.852353
0.852353
0.852353
0.852353
0.852353
0.852353
0.852353
0.852353
0.852353
0.852353
0.852352
0.852352
0.852352
0.852352
0.852352
0.852352
0.852351
0.852351
0.852349
0.852346
0.852338
0.852317
0.852265
0.852144
0.851887
0.862275
0.862524
0.862644
0.862696
0.862717
0.862726
0.862729
0.862731
0.862731
0.862732
0.862732
0.862732
0.862732
0.862732
0.862732
0.862732
0.862732
0.862732
0.862733
0.862733
0.862733
0.862733
0.862733
0.862733
0.862733
0.862733
0.862733
0.862733
0.862733
0.862733
0.862733
0.862733
0.862733
0.862733
0.862733
0.862733
0.862733
0.862733
0.862733
0.862733
0.862733
0.862733
0.862732
0.862732
0.862732
0.862732
0.862732
0.862732
0.862732
0.862732
0.862732
0.862731
0.862731
0.862729
0.862726
0.862717
0.862696
0.862644
0.862524
0.862275
0.872064
0.872305
0.872423
0.872476
0.872497
0.872506
0.87251
0.872511
0.872512
0.872512
0.872513
0.872513
0.872513
0.872513
0.872513
0.872513
0.872513
0.872513
0.872513
0.872513
0.872513
0.872513
0.872513
0.872513
0.872513
0.872513
0.872513
0.872513
0.872513
0.872513
0.872513
0.872513
0.872513
0.872513
0.872513
0.872513
0.872513
0.872513
0.872513
0.872513
0.872513
0.872513
0.872513
0.872513
0.872513
0.872513
0.872513
0.872513
0.872513
0.872513
0.872512
0.872512
0.872511
0.87251
0.872506
0.872497
0.872476
0.872423
0.872305
0.872064
0.881278
0.881512
0.881628
0.881681
0.881703
0.881712
0.881716
0.881717
0.881718
0.881718
0.881719
0.881719
0.881719
0.881719
0.881719
0.881719
0.881719
0.881719
0.881719
0.881719
0.881719
0.881719
0.881719
0.881719
0.881719
0.881719
0.881719
0.881719
0.881719
0.881719
0.881719
0.881719
0.881719
0.881719
0.881719
0.881719
0.881719
0.881719
0.881719
0.881719
0.881719
0.881719
0.881719
0.881719
0.881719
0.881719
0.881719
0.881719
0.881719
0.881719
0.881718
0.881718
0.881717
0.881716
0.881712
0.881703
0.881681
0.881628
0.881512
0.881278
0.889943
0.890168
0.890283
0.890335
0.890358
0.890367
0.890371
0.890373
0.890374
0.890374
0.890374
0.890374
0.890375
0.890375
0.890375
0.890375
0.890375
0.890375
0.890375
0.890375
0.890375
0.890375
0.890375
0.890375
0.890375
0.890375
0.890375
0.890375
0.890375
0.890375
0.890375
0.890375
0.890375
0.890375
0.890375
0.890375
0.890375
0.890375
0.890375
0.890375
0.890375
0.890375
0.890375
0.890375
0.890375
0.890375
0.890375
0.890375
0.890374
0.890374
0.890374
0.890374
0.890373
0.890371
0.890367
0.890358
0.890335
0.890283
0.890168
0.889943
0.898082
0.898299
0.898411
0.898464
0.898487
0.898497
0.898501
0.898502
0.898503
0.898504
0.898504
0.898504
0.898504
0.898504
0.898504
0.898504
0.898504
0.898504
0.898504
0.898504
0.898504
0.898504
0.898504
0.898504
0.898504
0.898504
0.898504
0.898504
0.898504
0.898504
0.898504
0.898504
0.898504
0.898504
0.898504
0.898504
0.898504
0.898504
0.898504
0.898504
0.898504
0.898504
0.898504
0.898504
0.898504
0.898504
0.898504
0.898504
0.898504
0.898504
0.898504
0.898503
0.898502
0.898501
0.898497
0.898487
0.898464
0.898411
0.898299
0.898082
0.905719
0.905927
0.906037
0.90609
0.906113
0.906123
0.906127
0.906129
0.90613
0.90613
0.906131
0.906131
0.906131
0.906131
0.906131
0.906131
0.906131
0.906131
0.906131
0.906131
0.906131
0.906131
0.906131
0.906131
0.906131
0.906131
0.906131
0.906131
0.906131
0.906131
0.906131
0.906131
0.906131
0.906131
0.906131
0.906131
0.906131
0.906131
0.906131
0.906131
0.906131
0.906131
0.906131
0.906131
0.906131
0.906131
0.906131
0.906131
0.906131
0.906131
0.90613
0.90613
0.906129
0.906127
0.906123
0.906113
0.90609
0.906037
0.905927
0.905719
0.912876
0.913077
0.913184
0.913236
0.91326
0.91327
0.913274
0.913276
0.913277
0.913277
0.913278
0.913278
0.913278
0.913278
0.913278
0.913278
0.913278
0.913278
0.913278
0.913278
0.913278
0.913278
0.913278
0.913278
0.913278
0.913278
0.913278
0.913278
0.913278
0.913278
0.913278
0.913278
0.913278
0.913278
0.913278
0.913278
0.913278
0.913278
0.913278
0.913278
0.913278
0.913278
0.913278
0.913278
0.913278
0.913278
0.913278
0.913278
0.913278
0.913278
0.913277
0.913277
0.913276
0.913274
0.91327
0.91326
0.913236
0.913184
0.913077
0.912876
0.919577
0.919769
0.919873
0.919925
0.919949
0.91996
0.919964
0.919966
0.919967
0.919967
0.919968
0.919968
0.919968
0.919968
0.919968
0.919968
0.919968
0.919968
0.919968
0.919968
0.919968
0.919968
0.919968
0.919968
0.919968
0.919968
0.919968
0.919968
0.919968
0.919968
0.919968
0.919968
0.919968
0.919968
0.919968
0.919968
0.919968
0.919968
0.919968
0.919968
0.919968
0.919968
0.919968
0.919968
0.919968
0.919968
0.919968
0.919968
0.919968
0.919968
0.919967
0.919967
0.919966
0.919964
0.91996
0.919949
0.919925
0.919873
0.919769
0.919577
0.925843
0.926026
0.926128
0.926179
0.926203
0.926214
0.926219
0.926221
0.926222
0.926222
0.926223
0.926223
0.926223
0.926223
0.926223
0.926223
0.926223
0.926223
0.926223
0.926223
0.926223
0.926223
0.926223
0.926223
0.926223
0.926223
0.926223
0.926223
0.926223
0.926223
0.926223
0.926223
0.926223
0.926223
0.926223
0.926223
0.926223
0.926223
0.926223
0.926223
0.926223
0.926223
0.926223
0.926223
0.926223
0.926223
0.926223
0.926223
0.926223
0.926223
0.926222
0.926222
0.926221
0.926219
0.926214
0.926203
0.926179
0.926128
0.926026
0.925843
0.931696
0.931871
0.93197
0.93202
0.932044
0.932055
0.93206
0.932063
0.932064
0.932064
0.932064
0.932064
0.932064
0.932064
0.932064
0.932064
0.932065
0.932065
0.932065
0.932065
0.932065
0.932065
0.932065
0.932065
0.932065
0.932065
0.932065
0.932065
0.932065
0.932065
0.932065
0.932065
0.932065
0.932065
0.932065
0.932065
0.932065
0.932065
0.932065
0.932065
0.932065
0.932065
0.932065
0.932065
0.932064
0.932064
0.932064
0.932064
0.932064
0.932064
0.932064
0.932064
0.932063
0.93206
0.932055
0.932044
0.93202
0.93197
0.931871
0.931696
0.937156
0.937323
0.937419
0.937469
0.937493
0.937504
0.937509
0.937512
0.937513
0.937513
0.937513
0.937514
0.937514
0.937514
0.937514
0.937514
0.937514
0.937514
0.937514
0.937514
0.937514
0.937514
0.937514
0.937514
0.937514
0.937514
0.937514
0.937514
0.937514
0.937514
0.937514
0.937514
0.937514
0.937514