/*--------------------------------*- C++ -*----------------------------------*\
| =========                 |                                                 |
| \\      /  F ield         | foam-extend: Open Source CFD                    |
|  \\    /   O peration     | Version:     4.0                                |
|   \\  /    A nd           | Web:         http://www.foam-extend.org         |
|    \\/     M anipulation  |                                                 |
\*---------------------------------------------------------------------------*/
FoamFile
{
    version     2.0;
    format      ascii;
    class       volScalarField;
    location    "1760";
    object      psiE;
}
// * * * * * * * * * * * * * * * * * * * * * * * * * * * * * * * * * * * * * //

dimensions      [0 0 0 0 0 0 0];

internalField   nonuniform List<scalar> 
6960
(
0.392242
0.392277
0.392285
0.392287
0.392286
0.392286
0.392285
0.392285
0.392284
0.392284
0.392283
0.392283
0.392282
0.392282
0.392282
0.392281
0.392281
0.392281
0.392281
0.392281
0.39228
0.39228
0.39228
0.39228
0.39228
0.39228
0.39228
0.39228
0.39228
0.39228
0.39228
0.39228
0.39228
0.39228
0.39228
0.39228
0.39228
0.39228
0.39228
0.39228
0.392281
0.392281
0.392281
0.392281
0.392281
0.392282
0.392282
0.392282
0.392283
0.392283
0.392284
0.392284
0.392285
0.392285
0.392286
0.392286
0.392287
0.392285
0.392277
0.392242
1.05268
1.05281
1.05284
1.05284
1.05284
1.05284
1.05284
1.05284
1.05283
1.05283
1.05283
1.05283
1.05283
1.05283
1.05282
1.05282
1.05282
1.05282
1.05282
1.05282
1.05282
1.05282
1.05282
1.05282
1.05282
1.05282
1.05282
1.05282
1.05281
1.05281
1.05281
1.05281
1.05282
1.05282
1.05282
1.05282
1.05282
1.05282
1.05282
1.05282
1.05282
1.05282
1.05282
1.05282
1.05282
1.05282
1.05283
1.05283
1.05283
1.05283
1.05283
1.05283
1.05284
1.05284
1.05284
1.05284
1.05284
1.05284
1.05281
1.05268
1.67904
1.67926
1.67931
1.67932
1.67932
1.67931
1.67931
1.6793
1.6793
1.6793
1.67929
1.67929
1.67929
1.67928
1.67928
1.67928
1.67928
1.67927
1.67927
1.67927
1.67927
1.67927
1.67927
1.67927
1.67927
1.67926
1.67926
1.67926
1.67926
1.67926
1.67926
1.67926
1.67926
1.67926
1.67926
1.67927
1.67927
1.67927
1.67927
1.67927
1.67927
1.67927
1.67927
1.67928
1.67928
1.67928
1.67928
1.67929
1.67929
1.67929
1.6793
1.6793
1.6793
1.67931
1.67931
1.67932
1.67932
1.67931
1.67926
1.67904
2.28351
2.28382
2.28389
2.28391
2.2839
2.2839
2.28389
2.28388
2.28387
2.28387
2.28386
2.28386
2.28385
2.28385
2.28384
2.28384
2.28384
2.28383
2.28383
2.28383
2.28383
2.28382
2.28382
2.28382
2.28382
2.28382
2.28382
2.28382
2.28382
2.28382
2.28382
2.28382
2.28382
2.28382
2.28382
2.28382
2.28382
2.28382
2.28382
2.28383
2.28383
2.28383
2.28383
2.28384
2.28384
2.28384
2.28385
2.28385
2.28386
2.28386
2.28387
2.28387
2.28388
2.28389
2.2839
2.2839
2.28391
2.28389
2.28382
2.28351
2.8651
2.86548
2.86556
2.86557
2.86557
2.86556
2.86555
2.86554
2.86553
2.86552
2.86551
2.8655
2.8655
2.86549
2.86549
2.86548
2.86548
2.86547
2.86547
2.86546
2.86546
2.86546
2.86546
2.86545
2.86545
2.86545
2.86545
2.86545
2.86545
2.86545
2.86545
2.86545
2.86545
2.86545
2.86545
2.86545
2.86545
2.86546
2.86546
2.86546
2.86546
2.86547
2.86547
2.86548
2.86548
2.86549
2.86549
2.8655
2.8655
2.86551
2.86552
2.86553
2.86554
2.86555
2.86556
2.86557
2.86557
2.86556
2.86548
2.8651
3.41918
3.4196
3.4197
3.41971
3.4197
3.41969
3.41967
3.41966
3.41965
3.41964
3.41963
3.41962
3.41961
3.4196
3.41959
3.41959
3.41958
3.41957
3.41957
3.41956
3.41956
3.41956
3.41955
3.41955
3.41955
3.41955
3.41955
3.41955
3.41954
3.41954
3.41954
3.41954
3.41955
3.41955
3.41955
3.41955
3.41955
3.41955
3.41956
3.41956
3.41956
3.41957
3.41957
3.41958
3.41959
3.41959
3.4196
3.41961
3.41962
3.41963
3.41964
3.41965
3.41966
3.41967
3.41969
3.4197
3.41971
3.4197
3.4196
3.41918
3.93958
3.94002
3.94012
3.94012
3.94011
3.94009
3.94007
3.94006
3.94004
3.94003
3.94001
3.94
3.93999
3.93998
3.93997
3.93996
3.93995
3.93995
3.93994
3.93994
3.93993
3.93993
3.93992
3.93992
3.93992
3.93991
3.93991
3.93991
3.93991
3.93991
3.93991
3.93991
3.93991
3.93991
3.93991
3.93992
3.93992
3.93992
3.93993
3.93993
3.93994
3.93994
3.93995
3.93995
3.93996
3.93997
3.93998
3.93999
3.94
3.94001
3.94003
3.94004
3.94006
3.94007
3.94009
3.94011
3.94012
3.94012
3.94002
3.93958
4.41913
4.41956
4.41965
4.41965
4.41964
4.41961
4.41959
4.41957
4.41955
4.41953
4.41951
4.4195
4.41948
4.41947
4.41946
4.41945
4.41944
4.41943
4.41943
4.41942
4.41941
4.41941
4.4194
4.4194
4.4194
4.41939
4.41939
4.41939
4.41939
4.41939
4.41939
4.41939
4.41939
4.41939
4.41939
4.4194
4.4194
4.4194
4.41941
4.41941
4.41942
4.41943
4.41943
4.41944
4.41945
4.41946
4.41947
4.41948
4.4195
4.41951
4.41953
4.41955
4.41957
4.41959
4.41961
4.41964
4.41965
4.41965
4.41956
4.41913
4.85047
4.85085
4.85093
4.85092
4.8509
4.85087
4.85084
4.85081
4.85079
4.85077
4.85075
4.85073
4.85072
4.8507
4.85069
4.85067
4.85066
4.85065
4.85065
4.85064
4.85063
4.85062
4.85062
4.85061
4.85061
4.85061
4.8506
4.8506
4.8506
4.8506
4.8506
4.8506
4.8506
4.8506
4.85061
4.85061
4.85061
4.85062
4.85062
4.85063
4.85064
4.85065
4.85065
4.85066
4.85067
4.85069
4.8507
4.85072
4.85073
4.85075
4.85077
4.85079
4.85081
4.85084
4.85087
4.8509
4.85092
4.85093
4.85085
4.85047
5.22742
5.22773
5.22778
5.22776
5.22773
5.2277
5.22766
5.22763
5.2276
5.22758
5.22756
5.22753
5.22752
5.2275
5.22748
5.22747
5.22746
5.22744
5.22743
5.22742
5.22742
5.22741
5.2274
5.2274
5.22739
5.22739
5.22739
5.22738
5.22738
5.22738
5.22738
5.22738
5.22738
5.22739
5.22739
5.22739
5.2274
5.2274
5.22741
5.22742
5.22742
5.22743
5.22744
5.22746
5.22747
5.22748
5.2275
5.22752
5.22753
5.22756
5.22758
5.2276
5.22763
5.22766
5.2277
5.22773
5.22776
5.22778
5.22773
5.22742
5.54701
5.54722
5.54724
5.54722
5.54718
5.54713
5.5471
5.54706
5.54703
5.547
5.54697
5.54695
5.54693
5.54691
5.54689
5.54687
5.54686
5.54685
5.54683
5.54682
5.54682
5.54681
5.5468
5.54679
5.54679
5.54678
5.54678
5.54678
5.54678
5.54678
5.54678
5.54678
5.54678
5.54678
5.54678
5.54679
5.54679
5.5468
5.54681
5.54682
5.54682
5.54683
5.54685
5.54686
5.54687
5.54689
5.54691
5.54693
5.54695
5.54697
5.547
5.54703
5.54706
5.5471
5.54713
5.54718
5.54722
5.54724
5.54722
5.54701
5.81105
5.81116
5.81116
5.81111
5.81107
5.81102
5.81098
5.81094
5.8109
5.81087
5.81084
5.81081
5.81079
5.81077
5.81075
5.81073
5.81072
5.8107
5.81069
5.81068
5.81067
5.81066
5.81065
5.81064
5.81064
5.81063
5.81063
5.81063
5.81062
5.81062
5.81062
5.81062
5.81063
5.81063
5.81063
5.81064
5.81064
5.81065
5.81066
5.81067
5.81068
5.81069
5.8107
5.81072
5.81073
5.81075
5.81077
5.81079
5.81081
5.81084
5.81087
5.8109
5.81094
5.81098
5.81102
5.81107
5.81111
5.81116
5.81116
5.81105
6.02611
6.02613
6.0261
6.02604
6.02599
6.02594
6.02589
6.02585
6.02581
6.02578
6.02574
6.02572
6.02569
6.02567
6.02565
6.02563
6.02561
6.02559
6.02558
6.02557
6.02556
6.02555
6.02554
6.02553
6.02552
6.02552
6.02552
6.02551
6.02551
6.02551
6.02551
6.02551
6.02551
6.02552
6.02552
6.02552
6.02553
6.02554
6.02555
6.02556
6.02557
6.02558
6.02559
6.02561
6.02563
6.02565
6.02567
6.02569
6.02572
6.02574
6.02578
6.02581
6.02585
6.02589
6.02594
6.02599
6.02604
6.0261
6.02613
6.02611
6.20162
6.20157
6.20151
6.20145
6.20139
6.20134
6.20129
6.20124
6.2012
6.20116
6.20113
6.2011
6.20107
6.20105
6.20103
6.20101
6.20099
6.20097
6.20096
6.20094
6.20093
6.20092
6.20091
6.20091
6.2009
6.20089
6.20089
6.20089
6.20088
6.20088
6.20088
6.20088
6.20089
6.20089
6.20089
6.2009
6.20091
6.20091
6.20092
6.20093
6.20094
6.20096
6.20097
6.20099
6.20101
6.20103
6.20105
6.20107
6.2011
6.20113
6.20116
6.2012
6.20124
6.20129
6.20134
6.20139
6.20145
6.20151
6.20157
6.20162
6.34737
6.34726
6.34719
6.34712
6.34706
6.347
6.34695
6.3469
6.34686
6.34682
6.34679
6.34676
6.34673
6.3467
6.34668
6.34666
6.34664
6.34662
6.34661
6.34659
6.34658
6.34657
6.34656
6.34655
6.34655
6.34654
6.34654
6.34653
6.34653
6.34653
6.34653
6.34653
6.34653
6.34654
6.34654
6.34655
6.34655
6.34656
6.34657
6.34658
6.34659
6.34661
6.34662
6.34664
6.34666
6.34668
6.3467
6.34673
6.34676
6.34679
6.34682
6.34686
6.3469
6.34695
6.347
6.34706
6.34712
6.34719
6.34726
6.34737
6.47169
6.47154
6.47145
6.47138
6.47131
6.47126
6.4712
6.47115
6.47111
6.47107
6.47104
6.47101
6.47098
6.47095
6.47093
6.47091
6.47089
6.47087
6.47085
6.47084
6.47083
6.47082
6.47081
6.4708
6.47079
6.47079
6.47078
6.47078
6.47078
6.47078
6.47078
6.47078
6.47078
6.47078
6.47079
6.47079
6.4708
6.47081
6.47082
6.47083
6.47084
6.47085
6.47087
6.47089
6.47091
6.47093
6.47095
6.47098
6.47101
6.47104
6.47107
6.47111
6.47115
6.4712
6.47126
6.47131
6.47138
6.47145
6.47154
6.47169
6.5808
6.58063
6.58054
6.58046
6.58039
6.58033
6.58028
6.58023
6.58019
6.58015
6.58011
6.58008
6.58005
6.58002
6.58
6.57998
6.57996
6.57994
6.57992
6.57991
6.5799
6.57989
6.57988
6.57987
6.57986
6.57986
6.57985
6.57985
6.57985
6.57985
6.57985
6.57985
6.57985
6.57985
6.57986
6.57986
6.57987
6.57988
6.57989
6.5799
6.57991
6.57992
6.57994
6.57996
6.57998
6.58
6.58002
6.58005
6.58008
6.58011
6.58015
6.58019
6.58023
6.58028
6.58033
6.58039
6.58046
6.58054
6.58063
6.5808
6.67906
6.67888
6.67877
6.67869
6.67863
6.67857
6.67851
6.67846
6.67842
6.67838
6.67834
6.67831
6.67828
6.67825
6.67823
6.6782
6.67818
6.67817
6.67815
6.67814
6.67812
6.67811
6.6781
6.67809
6.67809
6.67808
6.67808
6.67807
6.67807
6.67807
6.67807
6.67807
6.67807
6.67808
6.67808
6.67809
6.67809
6.6781
6.67811
6.67812
6.67814
6.67815
6.67817
6.67818
6.6782
6.67823
6.67825
6.67828
6.67831
6.67834
6.67838
6.67842
6.67846
6.67851
6.67857
6.67863
6.67869
6.67877
6.67888
6.67906
6.76938
6.76919
6.76908
6.769
6.76893
6.76887
6.76881
6.76876
6.76872
6.76868
6.76864
6.76861
6.76858
6.76855
6.76853
6.76851
6.76849
6.76847
6.76845
6.76844
6.76842
6.76841
6.7684
6.7684
6.76839
6.76838
6.76838
6.76837
6.76837
6.76837
6.76837
6.76837
6.76837
6.76838
6.76838
6.76839
6.7684
6.7684
6.76841
6.76842
6.76844
6.76845
6.76847
6.76849
6.76851
6.76853
6.76855
6.76858
6.76861
6.76864
6.76868
6.76872
6.76876
6.76881
6.76887
6.76893
6.769
6.76908
6.76919
6.76938
6.85376
6.85356
6.85344
6.85336
6.85329
6.85323
6.85317
6.85312
6.85308
6.85304
6.853
6.85297
6.85294
6.85291
6.85289
6.85286
6.85284
6.85282
6.85281
6.85279
6.85278
6.85277
6.85276
6.85275
6.85274
6.85274
6.85273
6.85273
6.85273
6.85273
6.85273
6.85273
6.85273
6.85273
6.85274
6.85274
6.85275
6.85276
6.85277
6.85278
6.85279
6.85281
6.85282
6.85284
6.85286
6.85289
6.85291
6.85294
6.85297
6.853
6.85304
6.85308
6.85312
6.85317
6.85323
6.85329
6.85336
6.85344
6.85356
6.85376
6.93356
6.93336
6.93325
6.93316
6.93309
6.93303
6.93297
6.93292
6.93288
6.93283
6.9328
6.93276
6.93273
6.93271
6.93268
6.93266
6.93264
6.93262
6.9326
6.93259
6.93258
6.93257
6.93256
6.93255
6.93254
6.93253
6.93253
6.93253
6.93252
6.93252
6.93252
6.93252
6.93253
6.93253
6.93253
6.93254
6.93255
6.93256
6.93257
6.93258
6.93259
6.9326
6.93262
6.93264
6.93266
6.93268
6.93271
6.93273
6.93276
6.9328
6.93283
6.93288
6.93292
6.93297
6.93303
6.93309
6.93316
6.93325
6.93336
6.93356
7.0098
7.0096
7.00949
7.0094
7.00933
7.00927
7.00921
7.00916
7.00911
7.00907
7.00903
7.009
7.00897
7.00894
7.00892
7.0089
7.00888
7.00886
7.00884
7.00883
7.00881
7.0088
7.00879
7.00878
7.00878
7.00877
7.00877
7.00876
7.00876
7.00876
7.00876
7.00876
7.00876
7.00877
7.00877
7.00878
7.00878
7.00879
7.0088
7.00881
7.00883
7.00884
7.00886
7.00888
7.0089
7.00892
7.00894
7.00897
7.009
7.00903
7.00907
7.00911
7.00916
7.00921
7.00927
7.00933
7.0094
7.00949
7.0096
7.0098
7.08324
7.08304
7.08292
7.08283
7.08276
7.0827
7.08264
7.08259
7.08254
7.0825
7.08246
7.08243
7.0824
7.08237
7.08235
7.08233
7.08231
7.08229
7.08227
7.08226
7.08224
7.08223
7.08222
7.08221
7.08221
7.0822
7.08219
7.08219
7.08219
7.08219
7.08219
7.08219
7.08219
7.08219
7.0822
7.08221
7.08221
7.08222
7.08223
7.08224
7.08226
7.08227
7.08229
7.08231
7.08233
7.08235
7.08237
7.0824
7.08243
7.08246
7.0825
7.08254
7.08259
7.08264
7.0827
7.08276
7.08283
7.08292
7.08304
7.08324
7.15444
7.15425
7.15413
7.15404
7.15397
7.1539
7.15385
7.1538
7.15375
7.15371
7.15367
7.15364
7.15361
7.15358
7.15355
7.15353
7.15351
7.15349
7.15348
7.15346
7.15345
7.15344
7.15343
7.15342
7.15341
7.15341
7.1534
7.1534
7.15339
7.15339
7.15339
7.15339
7.1534
7.1534
7.15341
7.15341
7.15342
7.15343
7.15344
7.15345
7.15346
7.15348
7.15349
7.15351
7.15353
7.15355
7.15358
7.15361
7.15364
7.15367
7.15371
7.15375
7.1538
7.15385
7.1539
7.15397
7.15404
7.15413
7.15425
7.15444
7.22389
7.2237
7.22358
7.22349
7.22342
7.22335
7.2233
7.22325
7.2232
7.22316
7.22312
7.22309
7.22306
7.22303
7.223
7.22298
7.22296
7.22294
7.22293
7.22291
7.2229
7.22289
7.22288
7.22287
7.22286
7.22285
7.22285
7.22285
7.22284
7.22284
7.22284
7.22284
7.22285
7.22285
7.22285
7.22286
7.22287
7.22288
7.22289
7.2229
7.22291
7.22293
7.22294
7.22296
7.22298
7.223
7.22303
7.22306
7.22309
7.22312
7.22316
7.2232
7.22325
7.2233
7.22335
7.22342
7.22349
7.22358
7.2237
7.22389
7.29196
7.29177
7.29165
7.29156
7.29149
7.29142
7.29137
7.29132
7.29127
7.29123
7.29119
7.29116
7.29113
7.2911
7.29107
7.29105
7.29103
7.29101
7.291
7.29098
7.29097
7.29096
7.29095
7.29094
7.29093
7.29092
7.29092
7.29092
7.29091
7.29091
7.29091
7.29091
7.29092
7.29092
7.29092
7.29093
7.29094
7.29095
7.29096
7.29097
7.29098
7.291
7.29101
7.29103
7.29105
7.29107
7.2911
7.29113
7.29116
7.29119
7.29123
7.29127
7.29132
7.29137
7.29142
7.29149
7.29156
7.29165
7.29177
7.29196
7.35897
7.35878
7.35866
7.35857
7.3585
7.35843
7.35838
7.35832
7.35828
7.35824
7.3582
7.35817
7.35814
7.35811
7.35808
7.35806
7.35804
7.35802
7.358
7.35799
7.35798
7.35796
7.35795
7.35795
7.35794
7.35793
7.35793
7.35792
7.35792
7.35792
7.35792
7.35792
7.35792
7.35793
7.35793
7.35794
7.35795
7.35795
7.35796
7.35798
7.35799
7.358
7.35802
7.35804
7.35806
7.35808
7.35811
7.35814
7.35817
7.3582
7.35824
7.35828
7.35832
7.35838
7.35843
7.3585
7.35857
7.35866
7.35878
7.35897
7.42517
7.425
7.42487
7.42478
7.42471
7.42465
7.42459
7.42454
7.42449
7.42445
7.42441
7.42438
7.42435
7.42432
7.4243
7.42427
7.42425
7.42423
7.42422
7.4242
7.42419
7.42418
7.42417
7.42416
7.42415
7.42414
7.42414
7.42414
7.42413
7.42413
7.42413
7.42413
7.42414
7.42414
7.42414
7.42415
7.42416
7.42417
7.42418
7.42419
7.4242
7.42422
7.42423
7.42425
7.42427
7.4243
7.42432
7.42435
7.42438
7.42441
7.42445
7.42449
7.42454
7.42459
7.42465
7.42471
7.42478
7.42487
7.425
7.42517
7.49082
7.49064
7.49052
7.49043
7.49036
7.49029
7.49024
7.49019
7.49014
7.4901
7.49006
7.49003
7.49
7.48997
7.48994
7.48992
7.4899
7.48988
7.48986
7.48985
7.48984
7.48982
7.48981
7.48981
7.4898
7.48979
7.48979
7.48978
7.48978
7.48978
7.48978
7.48978
7.48978
7.48979
7.48979
7.4898
7.48981
7.48981
7.48982
7.48984
7.48985
7.48986
7.48988
7.4899
7.48992
7.48994
7.48997
7.49
7.49003
7.49006
7.4901
7.49014
7.49019
7.49024
7.49029
7.49036
7.49043
7.49052
7.49064
7.49082
7.5561
7.55593
7.5558
7.55571
7.55564
7.55558
7.55552
7.55547
7.55542
7.55538
7.55534
7.55531
7.55528
7.55525
7.55523
7.5552
7.55518
7.55516
7.55515
7.55513
7.55512
7.55511
7.5551
7.55509
7.55508
7.55507
7.55507
7.55507
7.55506
7.55506
7.55506
7.55506
7.55507
7.55507
7.55507
7.55508
7.55509
7.5551
7.55511
7.55512
7.55513
7.55515
7.55516
7.55518
7.5552
7.55523
7.55525
7.55528
7.55531
7.55534
7.55538
7.55542
7.55547
7.55552
7.55558
7.55564
7.55571
7.5558
7.55593
7.5561
7.62118
7.62102
7.6209
7.62081
7.62073
7.62067
7.62061
7.62056
7.62052
7.62048
7.62044
7.6204
7.62037
7.62035
7.62032
7.6203
7.62028
7.62026
7.62024
7.62023
7.62021
7.6202
7.62019
7.62018
7.62018
7.62017
7.62017
7.62016
7.62016
7.62016
7.62016
7.62016
7.62016
7.62017
7.62017
7.62018
7.62018
7.62019
7.6202
7.62021
7.62023
7.62024
7.62026
7.62028
7.6203
7.62032
7.62035
7.62037
7.6204
7.62044
7.62048
7.62052
7.62056
7.62061
7.62067
7.62073
7.62081
7.6209
7.62102
7.62118
7.68625
7.68609
7.68596
7.68587
7.6858
7.68574
7.68568
7.68563
7.68558
7.68554
7.68551
7.68547
7.68544
7.68541
7.68539
7.68536
7.68534
7.68533
7.68531
7.68529
7.68528
7.68527
7.68526
7.68525
7.68524
7.68524
7.68523
7.68523
7.68523
7.68522
7.68522
7.68523
7.68523
7.68523
7.68524
7.68524
7.68525
7.68526
7.68527
7.68528
7.68529
7.68531
7.68533
7.68534
7.68536
7.68539
7.68541
7.68544
7.68547
7.68551
7.68554
7.68558
7.68563
7.68568
7.68574
7.6858
7.68587
7.68596
7.68609
7.68625
7.75142
7.75127
7.75115
7.75106
7.75098
7.75092
7.75086
7.75081
7.75077
7.75073
7.75069
7.75065
7.75062
7.7506
7.75057
7.75055
7.75053
7.75051
7.75049
7.75048
7.75046
7.75045
7.75044
7.75043
7.75042
7.75042
7.75041
7.75041
7.75041
7.75041
7.75041
7.75041
7.75041
7.75041
7.75042
7.75042
7.75043
7.75044
7.75045
7.75046
7.75048
7.75049
7.75051
7.75053
7.75055
7.75057
7.7506
7.75062
7.75065
7.75069
7.75073
7.75077
7.75081
7.75086
7.75092
7.75098
7.75106
7.75115
7.75127
7.75142
7.81684
7.8167
7.81658
7.81649
7.81641
7.81635
7.81629
7.81624
7.8162
7.81616
7.81612
7.81608
7.81605
7.81603
7.816
7.81598
7.81596
7.81594
7.81592
7.81591
7.81589
7.81588
7.81587
7.81586
7.81585
7.81585
7.81584
7.81584
7.81584
7.81584
7.81584
7.81584
7.81584
7.81584
7.81585
7.81585
7.81586
7.81587
7.81588
7.81589
7.81591
7.81592
7.81594
7.81596
7.81598
7.816
7.81603
7.81605
7.81608
7.81612
7.81616
7.8162
7.81624
7.81629
7.81635
7.81641
7.81649
7.81658
7.8167
7.81684
7.88264
7.88249
7.88237
7.88228
7.88221
7.88215
7.88209
7.88204
7.882
7.88195
7.88192
7.88188
7.88185
7.88182
7.8818
7.88178
7.88176
7.88174
7.88172
7.88171
7.88169
7.88168
7.88167
7.88166
7.88165
7.88165
7.88164
7.88164
7.88164
7.88164
7.88164
7.88164
7.88164
7.88164
7.88165
7.88165
7.88166
7.88167
7.88168
7.88169
7.88171
7.88172
7.88174
7.88176
7.88178
7.8818
7.88182
7.88185
7.88188
7.88192
7.88195
7.882
7.88204
7.88209
7.88215
7.88221
7.88228
7.88237
7.88249
7.88264
7.94891
7.94878
7.94866
7.94857
7.94849
7.94843
7.94837
7.94832
7.94828
7.94824
7.9482
7.94817
7.94814
7.94811
7.94808
7.94806
7.94804
7.94802
7.948
7.94799
7.94798
7.94796
7.94795
7.94794
7.94794
7.94793
7.94793
7.94792
7.94792
7.94792
7.94792
7.94792
7.94792
7.94793
7.94793
7.94794
7.94794
7.94795
7.94796
7.94798
7.94799
7.948
7.94802
7.94804
7.94806
7.94808
7.94811
7.94814
7.94817
7.9482
7.94824
7.94828
7.94832
7.94837
7.94843
7.94849
7.94857
7.94866
7.94878
7.94891
8.01578
8.01565
8.01553
8.01544
8.01537
8.0153
8.01525
8.0152
8.01515
8.01511
8.01507
8.01504
8.01501
8.01498
8.01496
8.01493
8.01491
8.01489
8.01488
8.01486
8.01485
8.01484
8.01483
8.01482
8.01481
8.01481
8.0148
8.0148
8.01479
8.01479
8.01479
8.01479
8.0148
8.0148
8.01481
8.01481
8.01482
8.01483
8.01484
8.01485
8.01486
8.01488
8.01489
8.01491
8.01493
8.01496
8.01498
8.01501
8.01504
8.01507
8.01511
8.01515
8.0152
8.01525
8.0153
8.01537
8.01544
8.01553
8.01565
8.01578
8.08334
8.08321
8.0831
8.08301
8.08294
8.08287
8.08282
8.08277
8.08272
8.08268
8.08264
8.08261
8.08258
8.08255
8.08253
8.0825
8.08248
8.08246
8.08245
8.08243
8.08242
8.08241
8.0824
8.08239
8.08238
8.08237
8.08237
8.08237
8.08236
8.08236
8.08236
8.08236
8.08237
8.08237
8.08237
8.08238
8.08239
8.0824
8.08241
8.08242
8.08243
8.08245
8.08246
8.08248
8.0825
8.08253
8.08255
8.08258
8.08261
8.08264
8.08268
8.08272
8.08277
8.08282
8.08287
8.08294
8.08301
8.0831
8.08321
8.08334
8.15169
8.15157
8.15146
8.15137
8.15129
8.15123
8.15118
8.15113
8.15108
8.15104
8.151
8.15097
8.15094
8.15091
8.15089
8.15086
8.15084
8.15082
8.15081
8.15079
8.15078
8.15077
8.15076
8.15075
8.15074
8.15073
8.15073
8.15073
8.15072
8.15072
8.15072
8.15072
8.15073
8.15073
8.15073
8.15074
8.15075
8.15076
8.15077
8.15078
8.15079
8.15081
8.15082
8.15084
8.15086
8.15089
8.15091
8.15094
8.15097
8.151
8.15104
8.15108
8.15113
8.15118
8.15123
8.15129
8.15137
8.15146
8.15157
8.15169
8.22093
8.22081
8.2207
8.22061
8.22054
8.22048
8.22042
8.22037
8.22033
8.22029
8.22025
8.22022
8.22018
8.22016
8.22013
8.22011
8.22009
8.22007
8.22005
8.22004
8.22002
8.22001
8.22
8.21999
8.21999
8.21998
8.21998
8.21997
8.21997
8.21997
8.21997
8.21997
8.21997
8.21998
8.21998
8.21999
8.21999
8.22
8.22001
8.22002
8.22004
8.22005
8.22007
8.22009
8.22011
8.22013
8.22016
8.22018
8.22022
8.22025
8.22029
8.22033
8.22037
8.22042
8.22048
8.22054
8.22061
8.2207
8.22081
8.22093
8.29115
8.29103
8.29092
8.29084
8.29076
8.2907
8.29065
8.2906
8.29055
8.29051
8.29047
8.29044
8.29041
8.29038
8.29036
8.29033
8.29031
8.29029
8.29028
8.29026
8.29025
8.29024
8.29023
8.29022
8.29021
8.29021
8.2902
8.2902
8.29019
8.29019
8.29019
8.29019
8.2902
8.2902
8.29021
8.29021
8.29022
8.29023
8.29024
8.29025
8.29026
8.29028
8.29029
8.29031
8.29033
8.29036
8.29038
8.29041
8.29044
8.29047
8.29051
8.29055
8.2906
8.29065
8.2907
8.29076
8.29084
8.29092
8.29103
8.29115
8.36243
8.36232
8.36222
8.36213
8.36206
8.36199
8.36194
8.36189
8.36184
8.3618
8.36177
8.36173
8.3617
8.36167
8.36165
8.36163
8.36161
8.36159
8.36157
8.36156
8.36154
8.36153
8.36152
8.36151
8.3615
8.3615
8.36149
8.36149
8.36149
8.36149
8.36149
8.36149
8.36149
8.36149
8.3615
8.3615
8.36151
8.36152
8.36153
8.36154
8.36156
8.36157
8.36159
8.36161
8.36163
8.36165
8.36167
8.3617
8.36173
8.36177
8.3618
8.36184
8.36189
8.36194
8.36199
8.36206
8.36213
8.36222
8.36232
8.36243
8.43487
8.43477
8.43466
8.43457
8.4345
8.43444
8.43439
8.43434
8.43429
8.43425
8.43421
8.43418
8.43415
8.43412
8.4341
8.43407
8.43405
8.43404
8.43402
8.434
8.43399
8.43398
8.43397
8.43396
8.43395
8.43395
8.43394
8.43394
8.43394
8.43393
8.43393
8.43394
8.43394
8.43394
8.43395
8.43395
8.43396
8.43397
8.43398
8.43399
8.434
8.43402
8.43404
8.43405
8.43407
8.4341
8.43412
8.43415
8.43418
8.43421
8.43425
8.43429
8.43434
8.43439
8.43444
8.4345
8.43457
8.43466
8.43477
8.43487
8.50856
8.50845
8.50835
8.50826
8.50819
8.50813
8.50808
8.50803
8.50798
8.50794
8.50791
8.50787
8.50784
8.50781
8.50779
8.50777
8.50775
8.50773
8.50771
8.5077
8.50768
8.50767
8.50766
8.50765
8.50764
8.50764
8.50763
8.50763
8.50763
8.50763
8.50763
8.50763
8.50763
8.50763
8.50764
8.50764
8.50765
8.50766
8.50767
8.50768
8.5077
8.50771
8.50773
8.50775
8.50777
8.50779
8.50781
8.50784
8.50787
8.50791
8.50794
8.50798
8.50803
8.50808
8.50813
8.50819
8.50826
8.50835
8.50845
8.50856
8.58357
8.58347
8.58337
8.58328
8.58321
8.58315
8.5831
8.58305
8.583
8.58296
8.58293
8.58289
8.58286
8.58283
8.58281
8.58279
8.58277
8.58275
8.58273
8.58272
8.5827
8.58269
8.58268
8.58267
8.58266
8.58266
8.58265
8.58265
8.58265
8.58265
8.58265
8.58265
8.58265
8.58265
8.58266
8.58266
8.58267
8.58268
8.58269
8.5827
8.58272
8.58273
8.58275
8.58277
8.58279
8.58281
8.58283
8.58286
8.58289
8.58293
8.58296
8.583
8.58305
8.5831
8.58315
8.58321
8.58328
8.58337
8.58347
8.58357
8.65999
8.6599
8.6598
8.65972
8.65964
8.65958
8.65953
8.65948
8.65944
8.6594
8.65936
8.65933
8.6593
8.65927
8.65924
8.65922
8.6592
8.65918
8.65917
8.65915
8.65914
8.65913
8.65911
8.65911
8.6591
8.65909
8.65909
8.65908
8.65908
8.65908
8.65908
8.65908
8.65908
8.65909
8.65909
8.6591
8.65911
8.65911
8.65913
8.65914
8.65915
8.65917
8.65918
8.6592
8.65922
8.65924
8.65927
8.6593
8.65933
8.65936
8.6594
8.65944
8.65948
8.65953
8.65958
8.65964
8.65972
8.6598
8.6599
8.65999
8.73792
8.73783
8.73773
8.73765
8.73758
8.73752
8.73746
8.73741
8.73737
8.73733
8.73729
8.73726
8.73723
8.7372
8.73718
8.73716
8.73713
8.73712
8.7371
8.73708
8.73707
8.73706
8.73705
8.73704
8.73703
8.73703
8.73702
8.73702
8.73702
8.73701
8.73701
8.73702
8.73702
8.73702
8.73703
8.73703
8.73704
8.73705
8.73706
8.73707
8.73708
8.7371
8.73712
8.73713
8.73716
8.73718
8.7372
8.73723
8.73726
8.73729
8.73733
8.73737
8.73741
8.73746
8.73752
8.73758
8.73765
8.73773
8.73783
8.73792
8.81743
8.81734
8.81725
8.81717
8.8171
8.81703
8.81698
8.81693
8.81689
8.81685
8.81681
8.81678
8.81675
8.81672
8.8167
8.81667
8.81665
8.81664
8.81662
8.8166
8.81659
8.81658
8.81657
8.81656
8.81655
8.81655
8.81654
8.81654
8.81654
8.81653
8.81653
8.81654
8.81654
8.81654
8.81655
8.81655
8.81656
8.81657
8.81658
8.81659
8.8166
8.81662
8.81664
8.81665
8.81667
8.8167
8.81672
8.81675
8.81678
8.81681
8.81685
8.81689
8.81693
8.81698
8.81703
8.8171
8.81717
8.81725
8.81734
8.81743
8.89861
8.89853
8.89844
8.89835
8.89828
8.89822
8.89817
8.89812
8.89808
8.89804
8.898
8.89797
8.89794
8.89791
8.89789
8.89787
8.89784
8.89783
8.89781
8.89779
8.89778
8.89777
8.89776
8.89775
8.89774
8.89774
8.89773
8.89773
8.89773
8.89773
8.89773
8.89773
8.89773
8.89773
8.89774
8.89774
8.89775
8.89776
8.89777
8.89778
8.89779
8.89781
8.89783
8.89784
8.89787
8.89789
8.89791
8.89794
8.89797
8.898
8.89804
8.89808
8.89812
8.89817
8.89822
8.89828
8.89835
8.89844
8.89853
8.89861
8.98155
8.98147
8.98138
8.9813
8.98123
8.98117
8.98112
8.98107
8.98103
8.98099
8.98095
8.98092
8.98089
8.98086
8.98084
8.98081
8.98079
8.98077
8.98076
8.98074
8.98073
8.98072
8.98071
8.9807
8.98069
8.98068
8.98068
8.98068
8.98067
8.98067
8.98067
8.98067
8.98068
8.98068
8.98068
8.98069
8.9807
8.98071
8.98072
8.98073
8.98074
8.98076
8.98077
8.98079
8.98081
8.98084
8.98086
8.98089
8.98092
8.98095
8.98099
8.98103
8.98107
8.98112
8.98117
8.98123
8.9813
8.98138
8.98147
8.98155
9.06633
9.06626
9.06617
9.06609
9.06602
9.06596
9.06591
9.06586
9.06582
9.06578
9.06574
9.06571
9.06568
9.06565
9.06563
9.0656
9.06558
9.06557
9.06555
9.06553
9.06552
9.06551
9.0655
9.06549
9.06548
9.06548
9.06547
9.06547
9.06547
9.06547
9.06547
9.06547
9.06547
9.06547
9.06548
9.06548
9.06549
9.0655
9.06551
9.06552
9.06553
9.06555
9.06557
9.06558
9.0656
9.06563
9.06565
9.06568
9.06571
9.06574
9.06578
9.06582
9.06586
9.06591
9.06596
9.06602
9.06609
9.06617
9.06626
9.06633
9.15305
9.15297
9.15289
9.15281
9.15274
9.15268
9.15263
9.15258
9.15254
9.1525
9.15247
9.15243
9.1524
9.15238
9.15235
9.15233
9.15231
9.15229
9.15227
9.15226
9.15225
9.15223
9.15222
9.15222
9.15221
9.1522
9.1522
9.15219
9.15219
9.15219
9.15219
9.15219
9.15219
9.1522
9.1522
9.15221
9.15222
9.15222
9.15223
9.15225
9.15226
9.15227
9.15229
9.15231
9.15233
9.15235
9.15238
9.1524
9.15243
9.15247
9.1525
9.15254
9.15258
9.15263
9.15268
9.15274
9.15281
9.15289
9.15297
9.15305
9.24178
9.24171
9.24163
9.24155
9.24149
9.24143
9.24137
9.24133
9.24129
9.24125
9.24121
9.24118
9.24115
9.24112
9.2411
9.24107
9.24105
9.24104
9.24102
9.241
9.24099
9.24098
9.24097
9.24096
9.24095
9.24095
9.24094
9.24094
9.24094
9.24094
9.24094
9.24094
9.24094
9.24094
9.24095
9.24095
9.24096
9.24097
9.24098
9.24099
9.241
9.24102
9.24104
9.24105
9.24107
9.2411
9.24112
9.24115
9.24118
9.24121
9.24125
9.24129
9.24133
9.24137
9.24143
9.24149
9.24155
9.24163
9.24171
9.24178
9.33263
9.33256
9.33248
9.33241
9.33234
9.33228
9.33223
9.33218
9.33214
9.3321
9.33207
9.33203
9.33201
9.33198
9.33195
9.33193
9.33191
9.33189
9.33188
9.33186
9.33185
9.33184
9.33183
9.33182
9.33181
9.3318
9.3318
9.3318
9.33179
9.33179
9.33179
9.33179
9.3318
9.3318
9.3318
9.33181
9.33182
9.33183
9.33184
9.33185
9.33186
9.33188
9.33189
9.33191
9.33193
9.33195
9.33198
9.33201
9.33203
9.33207
9.3321
9.33214
9.33218
9.33223
9.33228
9.33234
9.33241
9.33248
9.33256
9.33263
9.42568
9.42561
9.42554
9.42546
9.4254
9.42534
9.42529
9.42524
9.4252
9.42516
9.42513
9.42509
9.42506
9.42504
9.42501
9.42499
9.42497
9.42495
9.42494
9.42492
9.42491
9.4249
9.42489
9.42488
9.42487
9.42486
9.42486
9.42486
9.42485
9.42485
9.42485
9.42485
9.42486
9.42486
9.42486
9.42487
9.42488
9.42489
9.4249
9.42491
9.42492
9.42494
9.42495
9.42497
9.42499
9.42501
9.42504
9.42506
9.42509
9.42513
9.42516
9.4252
9.42524
9.42529
9.42534
9.4254
9.42546
9.42554
9.42561
9.42568
9.52102
9.52096
9.52089
9.52081
9.52075
9.52069
9.52064
9.5206
9.52055
9.52052
9.52048
9.52045
9.52042
9.52039
9.52037
9.52035
9.52033
9.52031
9.52029
9.52028
9.52026
9.52025
9.52024
9.52023
9.52023
9.52022
9.52021
9.52021
9.52021
9.52021
9.52021
9.52021
9.52021
9.52021
9.52022
9.52023
9.52023
9.52024
9.52025
9.52026
9.52028
9.52029
9.52031
9.52033
9.52035
9.52037
9.52039
9.52042
9.52045
9.52048
9.52052
9.52055
9.5206
9.52064
9.52069
9.52075
9.52081
9.52089
9.52096
9.52102
9.61876
9.6187
9.61863
9.61856
9.61849
9.61844
9.61839
9.61834
9.6183
9.61826
9.61823
9.61819
9.61816
9.61814
9.61811
9.61809
9.61807
9.61805
9.61804
9.61802
9.61801
9.618
9.61799
9.61798
9.61797
9.61797
9.61796
9.61796
9.61795
9.61795
9.61795
9.61795
9.61796
9.61796
9.61797
9.61797
9.61798
9.61799
9.618
9.61801
9.61802
9.61804
9.61805
9.61807
9.61809
9.61811
9.61814
9.61816
9.61819
9.61823
9.61826
9.6183
9.61834
9.61839
9.61844
9.61849
9.61856
9.61863
9.6187
9.61876
9.71898
9.71893
9.71885
9.71879
9.71872
9.71867
9.71862
9.71857
9.71853
9.71849
9.71846
9.71843
9.7184
9.71837
9.71835
9.71832
9.7183
9.71829
9.71827
9.71825
9.71824
9.71823
9.71822
9.71821
9.7182
9.7182
9.71819
9.71819
9.71819
9.71819
9.71819
9.71819
9.71819
9.71819
9.7182
9.7182
9.71821
9.71822
9.71823
9.71824
9.71825
9.71827
9.71829
9.7183
9.71832
9.71835
9.71837
9.7184
9.71843
9.71846
9.71849
9.71853
9.71857
9.71862
9.71867
9.71872
9.71879
9.71885
9.71893
9.71898
9.82179
9.82173
9.82167
9.8216
9.82154
9.82148
9.82143
9.82139
9.82135
9.82131
9.82127
9.82124
9.82121
9.82119
9.82116
9.82114
9.82112
9.8211
9.82109
9.82107
9.82106
9.82105
9.82104
9.82103
9.82102
9.82102
9.82101
9.82101
9.821
9.821
9.821
9.821
9.82101
9.82101
9.82102
9.82102
9.82103
9.82104
9.82105
9.82106
9.82107
9.82109
9.8211
9.82112
9.82114
9.82116
9.82119
9.82121
9.82124
9.82127
9.82131
9.82135
9.82139
9.82143
9.82148
9.82154
9.8216
9.82167
9.82173
9.82179
9.92728
9.92723
9.92716
9.9271
9.92703
9.92698
9.92693
9.92689
9.92685
9.92681
9.92677
9.92674
9.92671
9.92669
9.92666
9.92664
9.92662
9.9266
9.92659
9.92657
9.92656
9.92655
9.92654
9.92653
9.92652
9.92652
9.92651
9.92651
9.92651
9.92651
9.92651
9.92651
9.92651
9.92651
9.92652
9.92652
9.92653
9.92654
9.92655
9.92656
9.92657
9.92659
9.9266
9.92662
9.92664
9.92666
9.92669
9.92671
9.92674
9.92677
9.92681
9.92685
9.92689
9.92693
9.92698
9.92703
9.9271
9.92716
9.92723
9.92728
10.0356
10.0355
10.0354
10.0354
10.0353
10.0353
10.0352
10.0352
10.0351
10.0351
10.0351
10.035
10.035
10.035
10.035
10.0349
10.0349
10.0349
10.0349
10.0349
10.0348
10.0348
10.0348
10.0348
10.0348
10.0348
10.0348
10.0348
10.0348
10.0348
10.0348
10.0348
10.0348
10.0348
10.0348
10.0348
10.0348
10.0348
10.0348
10.0348
10.0349
10.0349
10.0349
10.0349
10.0349
10.035
10.035
10.035
10.035
10.0351
10.0351
10.0351
10.0352
10.0352
10.0353
10.0353
10.0354
10.0354
10.0355
10.0356
10.1467
10.1467
10.1466
10.1466
10.1465
10.1464
10.1464
10.1464
10.1463
10.1463
10.1462
10.1462
10.1462
10.1462
10.1461
10.1461
10.1461
10.1461
10.1461
10.146
10.146
10.146
10.146
10.146
10.146
10.146
10.146
10.146
10.146