/*--------------------------------*- C++ -*----------------------------------*\
| =========                 |                                                 |
| \\      /  F ield         | foam-extend: Open Source CFD                    |
|  \\    /   O peration     | Version:     4.0                                |
|   \\  /    A nd           | Web:         http://www.foam-extend.org         |
|    \\/     M anipulation  |                                                 |
\*---------------------------------------------------------------------------*/
FoamFile
{
    version     2.0;
    format      ascii;
    class       volScalarField;
    location    "1140";
    object      cMinus;
}
// * * * * * * * * * * * * * * * * * * * * * * * * * * * * * * * * * * * * * //

dimensions      [0 0 0 0 0 0 0];

internalField   nonuniform List<scalar> 
6960
(
3.57006e-23
3.57074e-23
3.5692e-23
3.5674e-23
3.56572e-23
3.56424e-23
3.56296e-23
3.56186e-23
3.56092e-23
3.56012e-23
3.55944e-23
3.55886e-23
3.55836e-23
3.55794e-23
3.55757e-23
3.55726e-23
3.557e-23
3.55676e-23
3.55657e-23
3.5564e-23
3.55625e-23
3.55613e-23
3.55603e-23
3.55594e-23
3.55587e-23
3.55581e-23
3.55576e-23
3.55573e-23
3.55571e-23
3.5557e-23
3.5557e-23
3.55571e-23
3.55573e-23
3.55576e-23
3.55581e-23
3.55587e-23
3.55594e-23
3.55603e-23
3.55613e-23
3.55625e-23
3.5564e-23
3.55657e-23
3.55676e-23
3.557e-23
3.55726e-23
3.55757e-23
3.55794e-23
3.55836e-23
3.55886e-23
3.55944e-23
3.56012e-23
3.56092e-23
3.56186e-23
3.56296e-23
3.56424e-23
3.56572e-23
3.5674e-23
3.5692e-23
3.57074e-23
3.57006e-23
1.67817e-22
1.67881e-22
1.67828e-22
1.67761e-22
1.67697e-22
1.67641e-22
1.67592e-22
1.6755e-22
1.67514e-22
1.67484e-22
1.67458e-22
1.67436e-22
1.67417e-22
1.67401e-22
1.67387e-22
1.67376e-22
1.67366e-22
1.67357e-22
1.6735e-22
1.67344e-22
1.67339e-22
1.67334e-22
1.67331e-22
1.67328e-22
1.67325e-22
1.67323e-22
1.67322e-22
1.67321e-22
1.6732e-22
1.6732e-22
1.6732e-22
1.6732e-22
1.67321e-22
1.67322e-22
1.67323e-22
1.67325e-22
1.67328e-22
1.67331e-22
1.67334e-22
1.67339e-22
1.67344e-22
1.6735e-22
1.67357e-22
1.67366e-22
1.67376e-22
1.67387e-22
1.67401e-22
1.67417e-22
1.67436e-22
1.67458e-22
1.67484e-22
1.67514e-22
1.6755e-22
1.67592e-22
1.67641e-22
1.67697e-22
1.67761e-22
1.67828e-22
1.67881e-22
1.67817e-22
5.87552e-22
5.87858e-22
5.87758e-22
5.87602e-22
5.87447e-22
5.87307e-22
5.87182e-22
5.87073e-22
5.86977e-22
5.86895e-22
5.86823e-22
5.86761e-22
5.86708e-22
5.86661e-22
5.86621e-22
5.86586e-22
5.86557e-22
5.86531e-22
5.86509e-22
5.8649e-22
5.86474e-22
5.8646e-22
5.86448e-22
5.86439e-22
5.86431e-22
5.86425e-22
5.8642e-22
5.86416e-22
5.86414e-22
5.86413e-22
5.86413e-22
5.86414e-22
5.86416e-22
5.8642e-22
5.86425e-22
5.86431e-22
5.86439e-22
5.86448e-22
5.8646e-22
5.86474e-22
5.8649e-22
5.86509e-22
5.86531e-22
5.86557e-22
5.86586e-22
5.86621e-22
5.86661e-22
5.86708e-22
5.86761e-22
5.86823e-22
5.86895e-22
5.86977e-22
5.87073e-22
5.87182e-22
5.87307e-22
5.87447e-22
5.87602e-22
5.87758e-22
5.87858e-22
5.87552e-22
1.94586e-21
1.94716e-21
1.94716e-21
1.94694e-21
1.94668e-21
1.94643e-21
1.94619e-21
1.94597e-21
1.94577e-21
1.94559e-21
1.94542e-21
1.94527e-21
1.94514e-21
1.94502e-21
1.94492e-21
1.94482e-21
1.94474e-21
1.94467e-21
1.94461e-21
1.94455e-21
1.94451e-21
1.94447e-21
1.94443e-21
1.9444e-21
1.94438e-21
1.94436e-21
1.94434e-21
1.94433e-21
1.94433e-21
1.94432e-21
1.94432e-21
1.94433e-21
1.94433e-21
1.94434e-21
1.94436e-21
1.94438e-21
1.9444e-21
1.94443e-21
1.94447e-21
1.94451e-21
1.94455e-21
1.94461e-21
1.94467e-21
1.94474e-21
1.94482e-21
1.94492e-21
1.94502e-21
1.94514e-21
1.94527e-21
1.94542e-21
1.94559e-21
1.94577e-21
1.94597e-21
1.94619e-21
1.94643e-21
1.94668e-21
1.94694e-21
1.94716e-21
1.94716e-21
1.94586e-21
6.46364e-21
6.46902e-21
6.47017e-21
6.47052e-21
6.47059e-21
6.47052e-21
6.47035e-21
6.47013e-21
6.46987e-21
6.46959e-21
6.4693e-21
6.46902e-21
6.46873e-21
6.46847e-21
6.46822e-21
6.46798e-21
6.46777e-21
6.46758e-21
6.46741e-21
6.46726e-21
6.46712e-21
6.46701e-21
6.46691e-21
6.46682e-21
6.46675e-21
6.46669e-21
6.46665e-21
6.46661e-21
6.46659e-21
6.46658e-21
6.46658e-21
6.46659e-21
6.46661e-21
6.46665e-21
6.46669e-21
6.46675e-21
6.46682e-21
6.46691e-21
6.46701e-21
6.46712e-21
6.46726e-21
6.46741e-21
6.46758e-21
6.46777e-21
6.46798e-21
6.46822e-21
6.46847e-21
6.46873e-21
6.46902e-21
6.4693e-21
6.46959e-21
6.46987e-21
6.47013e-21
6.47035e-21
6.47052e-21
6.47059e-21
6.47052e-21
6.47017e-21
6.46902e-21
6.46364e-21
2.19262e-20
2.19481e-20
2.19562e-20
2.19612e-20
2.19647e-20
2.19672e-20
2.19689e-20
2.19699e-20
2.19705e-20
2.19707e-20
2.19707e-20
2.19704e-20
2.197e-20
2.19696e-20
2.19691e-20
2.19686e-20
2.19681e-20
2.19676e-20
2.19672e-20
2.19668e-20
2.19664e-20
2.19661e-20
2.19658e-20
2.19655e-20
2.19653e-20
2.19651e-20
2.1965e-20
2.19649e-20
2.19648e-20
2.19648e-20
2.19648e-20
2.19648e-20
2.19649e-20
2.1965e-20
2.19651e-20
2.19653e-20
2.19655e-20
2.19658e-20
2.19661e-20
2.19664e-20
2.19668e-20
2.19672e-20
2.19676e-20
2.19681e-20
2.19686e-20
2.19691e-20
2.19696e-20
2.197e-20
2.19704e-20
2.19707e-20
2.19707e-20
2.19705e-20
2.19699e-20
2.19689e-20
2.19672e-20
2.19647e-20
2.19612e-20
2.19562e-20
2.19481e-20
2.19262e-20
7.64023e-20
7.64921e-20
7.65351e-20
7.65662e-20
7.65901e-20
7.66086e-20
7.66225e-20
7.66328e-20
7.66401e-20
7.6645e-20
7.66482e-20
7.665e-20
7.66508e-20
7.66508e-20
7.66504e-20
7.66497e-20
7.66487e-20
7.66477e-20
7.66467e-20
7.66456e-20
7.66446e-20
7.66437e-20
7.66429e-20
7.66422e-20
7.66416e-20
7.66411e-20
7.66406e-20
7.66403e-20
7.66401e-20
7.664e-20
7.664e-20
7.66401e-20
7.66403e-20
7.66406e-20
7.66411e-20
7.66416e-20
7.66422e-20
7.66429e-20
7.66437e-20
7.66446e-20
7.66456e-20
7.66467e-20
7.66477e-20
7.66487e-20
7.66497e-20
7.66504e-20
7.66508e-20
7.66508e-20
7.665e-20
7.66482e-20
7.6645e-20
7.66401e-20
7.66328e-20
7.66225e-20
7.66086e-20
7.65901e-20
7.65662e-20
7.65351e-20
7.64921e-20
7.64023e-20
2.73995e-19
2.74366e-19
2.74575e-19
2.74737e-19
2.74866e-19
2.74968e-19
2.75048e-19
2.75109e-19
2.75154e-19
2.75188e-19
2.75211e-19
2.75228e-19
2.75238e-19
2.75245e-19
2.75248e-19
2.75249e-19
2.75249e-19
2.75247e-19
2.75245e-19
2.75243e-19
2.75241e-19
2.75239e-19
2.75236e-19
2.75234e-19
2.75233e-19
2.75231e-19
2.7523e-19
2.75229e-19
2.75228e-19
2.75228e-19
2.75228e-19
2.75228e-19
2.75229e-19
2.7523e-19
2.75231e-19
2.75233e-19
2.75234e-19
2.75236e-19
2.75239e-19
2.75241e-19
2.75243e-19
2.75245e-19
2.75247e-19
2.75249e-19
2.75249e-19
2.75248e-19
2.75245e-19
2.75238e-19
2.75228e-19
2.75211e-19
2.75188e-19
2.75154e-19
2.75109e-19
2.75048e-19
2.74968e-19
2.74866e-19
2.74737e-19
2.74575e-19
2.74366e-19
2.73995e-19
1.0119e-18
1.01346e-18
1.01443e-18
1.01522e-18
1.01586e-18
1.01637e-18
1.01678e-18
1.0171e-18
1.01734e-18
1.01752e-18
1.01766e-18
1.01775e-18
1.01782e-18
1.01787e-18
1.0179e-18
1.01792e-18
1.01793e-18
1.01793e-18
1.01793e-18
1.01793e-18
1.01793e-18
1.01792e-18
1.01792e-18
1.01791e-18
1.01791e-18
1.0179e-18
1.0179e-18
1.0179e-18
1.01789e-18
1.01789e-18
1.01789e-18
1.01789e-18
1.0179e-18
1.0179e-18
1.0179e-18
1.01791e-18
1.01791e-18
1.01792e-18
1.01792e-18
1.01793e-18
1.01793e-18
1.01793e-18
1.01793e-18
1.01793e-18
1.01792e-18
1.0179e-18
1.01787e-18
1.01782e-18
1.01775e-18
1.01766e-18
1.01752e-18
1.01734e-18
1.0171e-18
1.01678e-18
1.01637e-18
1.01586e-18
1.01522e-18
1.01443e-18
1.01346e-18
1.0119e-18
3.84894e-18
3.85557e-18
3.86009e-18
3.86381e-18
3.86688e-18
3.86937e-18
3.87135e-18
3.87291e-18
3.87412e-18
3.87504e-18
3.87573e-18
3.87625e-18
3.87662e-18
3.87689e-18
3.87708e-18
3.87721e-18
3.87729e-18
3.87735e-18
3.87738e-18
3.87739e-18
3.87739e-18
3.87739e-18
3.87738e-18
3.87737e-18
3.87736e-18
3.87735e-18
3.87734e-18
3.87733e-18
3.87732e-18
3.87732e-18
3.87732e-18
3.87732e-18
3.87733e-18
3.87734e-18
3.87735e-18
3.87736e-18
3.87737e-18
3.87738e-18
3.87739e-18
3.87739e-18
3.87739e-18
3.87738e-18
3.87735e-18
3.87729e-18
3.87721e-18
3.87708e-18
3.87689e-18
3.87662e-18
3.87625e-18
3.87573e-18
3.87504e-18
3.87412e-18
3.87291e-18
3.87135e-18
3.86937e-18
3.86688e-18
3.86381e-18
3.86009e-18
3.85557e-18
3.84894e-18
1.50762e-17
1.51049e-17
1.51258e-17
1.51433e-17
1.51579e-17
1.51697e-17
1.51792e-17
1.51867e-17
1.51926e-17
1.51971e-17
1.52006e-17
1.52032e-17
1.52051e-17
1.52065e-17
1.52076e-17
1.52083e-17
1.52088e-17
1.52092e-17
1.52094e-17
1.52095e-17
1.52096e-17
1.52097e-17
1.52097e-17
1.52097e-17
1.52097e-17
1.52096e-17
1.52096e-17
1.52096e-17
1.52096e-17
1.52096e-17
1.52096e-17
1.52096e-17
1.52096e-17
1.52096e-17
1.52096e-17
1.52097e-17
1.52097e-17
1.52097e-17
1.52097e-17
1.52096e-17
1.52095e-17
1.52094e-17
1.52092e-17
1.52088e-17
1.52083e-17
1.52076e-17
1.52065e-17
1.52051e-17
1.52032e-17
1.52006e-17
1.51971e-17
1.51926e-17
1.51867e-17
1.51792e-17
1.51697e-17
1.51579e-17
1.51433e-17
1.51258e-17
1.51049e-17
1.50762e-17
6.07895e-17
6.09172e-17
6.10143e-17
6.10969e-17
6.11658e-17
6.12222e-17
6.12677e-17
6.13038e-17
6.13321e-17
6.13541e-17
6.1371e-17
6.13839e-17
6.13936e-17
6.14008e-17
6.14062e-17
6.14101e-17
6.14129e-17
6.14149e-17
6.14163e-17
6.14172e-17
6.14179e-17
6.14183e-17
6.14185e-17
6.14187e-17
6.14187e-17
6.14188e-17
6.14187e-17
6.14187e-17
6.14187e-17
6.14187e-17
6.14187e-17
6.14187e-17
6.14187e-17
6.14187e-17
6.14188e-17
6.14187e-17
6.14187e-17
6.14185e-17
6.14183e-17
6.14179e-17
6.14172e-17
6.14163e-17
6.14149e-17
6.14129e-17
6.14101e-17
6.14062e-17
6.14008e-17
6.13936e-17
6.13839e-17
6.1371e-17
6.13541e-17
6.13321e-17
6.13038e-17
6.12677e-17
6.12222e-17
6.11658e-17
6.10969e-17
6.10143e-17
6.09172e-17
6.07895e-17
2.52175e-16
2.52753e-16
2.5321e-16
2.53603e-16
2.53932e-16
2.54202e-16
2.5442e-16
2.54595e-16
2.54732e-16
2.54839e-16
2.54922e-16
2.54985e-16
2.55033e-16
2.55069e-16
2.55097e-16
2.55117e-16
2.55132e-16
2.55143e-16
2.5515e-16
2.55156e-16
2.5516e-16
2.55163e-16
2.55164e-16
2.55166e-16
2.55166e-16
2.55167e-16
2.55167e-16
2.55167e-16
2.55167e-16
2.55167e-16
2.55167e-16
2.55167e-16
2.55167e-16
2.55167e-16
2.55167e-16
2.55166e-16
2.55166e-16
2.55164e-16
2.55163e-16
2.5516e-16
2.55156e-16
2.5515e-16
2.55143e-16
2.55132e-16
2.55117e-16
2.55097e-16
2.55069e-16
2.55033e-16
2.54985e-16
2.54922e-16
2.54839e-16
2.54732e-16
2.54595e-16
2.5442e-16
2.54202e-16
2.53932e-16
2.53603e-16
2.5321e-16
2.52753e-16
2.52175e-16
1.07533e-15
1.078e-15
1.08018e-15
1.08207e-15
1.08366e-15
1.08497e-15
1.08603e-15
1.08688e-15
1.08755e-15
1.08807e-15
1.08848e-15
1.08879e-15
1.08903e-15
1.08921e-15
1.08935e-15
1.08945e-15
1.08953e-15
1.08959e-15
1.08963e-15
1.08966e-15
1.08968e-15
1.0897e-15
1.08971e-15
1.08972e-15
1.08972e-15
1.08973e-15
1.08973e-15
1.08973e-15
1.08973e-15
1.08973e-15
1.08973e-15
1.08973e-15
1.08973e-15
1.08973e-15
1.08973e-15
1.08972e-15
1.08972e-15
1.08971e-15
1.0897e-15
1.08968e-15
1.08966e-15
1.08963e-15
1.08959e-15
1.08953e-15
1.08945e-15
1.08935e-15
1.08921e-15
1.08903e-15
1.08879e-15
1.08848e-15
1.08807e-15
1.08755e-15
1.08688e-15
1.08603e-15
1.08497e-15
1.08366e-15
1.08207e-15
1.08018e-15
1.078e-15
1.07533e-15
4.70813e-15
4.72073e-15
4.73131e-15
4.74053e-15
4.7483e-15
4.75472e-15
4.75992e-15
4.76409e-15
4.76739e-15
4.76999e-15
4.77201e-15
4.77357e-15
4.77476e-15
4.77568e-15
4.77638e-15
4.7769e-15
4.7773e-15
4.7776e-15
4.77782e-15
4.77798e-15
4.7781e-15
4.77819e-15
4.77826e-15
4.7783e-15
4.77834e-15
4.77836e-15
4.77838e-15
4.77839e-15
4.77839e-15
4.7784e-15
4.7784e-15
4.77839e-15
4.77839e-15
4.77838e-15
4.77836e-15
4.77834e-15
4.7783e-15
4.77826e-15
4.77819e-15
4.7781e-15
4.77798e-15
4.77782e-15
4.7776e-15
4.7773e-15
4.7769e-15
4.77638e-15
4.77568e-15
4.77476e-15
4.77357e-15
4.77201e-15
4.76999e-15
4.76739e-15
4.76409e-15
4.75992e-15
4.75472e-15
4.7483e-15
4.74053e-15
4.73131e-15
4.72073e-15
4.70813e-15
2.11332e-14
2.11938e-14
2.12459e-14
2.12915e-14
2.133e-14
2.13619e-14
2.13877e-14
2.14085e-14
2.1425e-14
2.1438e-14
2.14481e-14
2.1456e-14
2.1462e-14
2.14666e-14
2.14702e-14
2.14729e-14
2.14749e-14
2.14765e-14
2.14776e-14
2.14785e-14
2.14792e-14
2.14797e-14
2.148e-14
2.14803e-14
2.14805e-14
2.14806e-14
2.14807e-14
2.14808e-14
2.14808e-14
2.14808e-14
2.14808e-14
2.14808e-14
2.14808e-14
2.14807e-14
2.14806e-14
2.14805e-14
2.14803e-14
2.148e-14
2.14797e-14
2.14792e-14
2.14785e-14
2.14776e-14
2.14765e-14
2.14749e-14
2.14729e-14
2.14702e-14
2.14666e-14
2.1462e-14
2.1456e-14
2.14481e-14
2.1438e-14
2.1425e-14
2.14085e-14
2.13877e-14
2.13619e-14
2.133e-14
2.12915e-14
2.12459e-14
2.11938e-14
2.11332e-14
9.70638e-14
9.73601e-14
9.76203e-14
9.7849e-14
9.80426e-14
9.82027e-14
9.8333e-14
9.84377e-14
9.8521e-14
9.85867e-14
9.8638e-14
9.86779e-14
9.87087e-14
9.87325e-14
9.87507e-14
9.87646e-14
9.87752e-14
9.87832e-14
9.87893e-14
9.8794e-14
9.87974e-14
9.88e-14
9.8802e-14
9.88034e-14
9.88045e-14
9.88053e-14
9.88058e-14
9.88062e-14
9.88064e-14
9.88066e-14
9.88066e-14
9.88064e-14
9.88062e-14
9.88058e-14
9.88053e-14
9.88045e-14
9.88034e-14
9.8802e-14
9.88e-14
9.87974e-14
9.8794e-14
9.87893e-14
9.87832e-14
9.87752e-14
9.87646e-14
9.87507e-14
9.87325e-14
9.87087e-14
9.86779e-14
9.8638e-14
9.85867e-14
9.8521e-14
9.84377e-14
9.8333e-14
9.82027e-14
9.80426e-14
9.7849e-14
9.76203e-14
9.73601e-14
9.70638e-14
4.55072e-13
4.56545e-13
4.57861e-13
4.59021e-13
4.60005e-13
4.60819e-13
4.61483e-13
4.62017e-13
4.62442e-13
4.62778e-13
4.63041e-13
4.63245e-13
4.63404e-13
4.63526e-13
4.63621e-13
4.63693e-13
4.63748e-13
4.6379e-13
4.63822e-13
4.63847e-13
4.63865e-13
4.63879e-13
4.6389e-13
4.63898e-13
4.63903e-13
4.63908e-13
4.63911e-13
4.63913e-13
4.63914e-13
4.63915e-13
4.63915e-13
4.63914e-13
4.63913e-13
4.63911e-13
4.63908e-13
4.63903e-13
4.63898e-13
4.6389e-13
4.63879e-13
4.63865e-13
4.63847e-13
4.63822e-13
4.6379e-13
4.63748e-13
4.63693e-13
4.63621e-13
4.63526e-13
4.63404e-13
4.63245e-13
4.63041e-13
4.62778e-13
4.62442e-13
4.62017e-13
4.61483e-13
4.60819e-13
4.60005e-13
4.59021e-13
4.57861e-13
4.56545e-13
4.55072e-13
2.17148e-12
2.17889e-12
2.18562e-12
2.19156e-12
2.19661e-12
2.20079e-12
2.2042e-12
2.20695e-12
2.20914e-12
2.21087e-12
2.21222e-12
2.21328e-12
2.2141e-12
2.21474e-12
2.21523e-12
2.21561e-12
2.21589e-12
2.21612e-12
2.21629e-12
2.21642e-12
2.21651e-12
2.21659e-12
2.21665e-12
2.21669e-12
2.21672e-12
2.21674e-12
2.21676e-12
2.21677e-12
2.21678e-12
2.21678e-12
2.21678e-12
2.21678e-12
2.21677e-12
2.21676e-12
2.21674e-12
2.21672e-12
2.21669e-12
2.21665e-12
2.21659e-12
2.21651e-12
2.21642e-12
2.21629e-12
2.21612e-12
2.21589e-12
2.21561e-12
2.21523e-12
2.21474e-12
2.2141e-12
2.21328e-12
2.21222e-12
2.21087e-12
2.20914e-12
2.20695e-12
2.2042e-12
2.20079e-12
2.19661e-12
2.19156e-12
2.18562e-12
2.17889e-12
2.17148e-12
1.05084e-11
1.05461e-11
1.05807e-11
1.06114e-11
1.06374e-11
1.0659e-11
1.06766e-11
1.06909e-11
1.07022e-11
1.07112e-11
1.07182e-11
1.07237e-11
1.0728e-11
1.07313e-11
1.07338e-11
1.07358e-11
1.07373e-11
1.07385e-11
1.07394e-11
1.07401e-11
1.07406e-11
1.0741e-11
1.07413e-11
1.07415e-11
1.07417e-11
1.07418e-11
1.07419e-11
1.0742e-11
1.0742e-11
1.07421e-11
1.07421e-11
1.0742e-11
1.0742e-11
1.07419e-11
1.07418e-11
1.07417e-11
1.07415e-11
1.07413e-11
1.0741e-11
1.07406e-11
1.07401e-11
1.07394e-11
1.07385e-11
1.07373e-11
1.07358e-11
1.07338e-11
1.07313e-11
1.0728e-11
1.07237e-11
1.07182e-11
1.07112e-11
1.07022e-11
1.06909e-11
1.06766e-11
1.0659e-11
1.06374e-11
1.06114e-11
1.05807e-11
1.05461e-11
1.05084e-11
5.13549e-11
5.15473e-11
5.17259e-11
5.18845e-11
5.20193e-11
5.21311e-11
5.22225e-11
5.22961e-11
5.23549e-11
5.24015e-11
5.24381e-11
5.24667e-11
5.2489e-11
5.25062e-11
5.25196e-11
5.25299e-11
5.25379e-11
5.2544e-11
5.25488e-11
5.25524e-11
5.25552e-11
5.25573e-11
5.25589e-11
5.25602e-11
5.25611e-11
5.25618e-11
5.25623e-11
5.25626e-11
5.25629e-11
5.2563e-11
5.2563e-11
5.25629e-11
5.25626e-11
5.25623e-11
5.25618e-11
5.25611e-11
5.25602e-11
5.25589e-11
5.25573e-11
5.25552e-11
5.25524e-11
5.25488e-11
5.2544e-11
5.25379e-11
5.25299e-11
5.25196e-11
5.25062e-11
5.2489e-11
5.24667e-11
5.24381e-11
5.24015e-11
5.23549e-11
5.22961e-11
5.22225e-11
5.21311e-11
5.20193e-11
5.18845e-11
5.17259e-11
5.15473e-11
5.13549e-11
2.52184e-10
2.53167e-10
2.54087e-10
2.54904e-10
2.556e-10
2.56178e-10
2.56649e-10
2.5703e-10
2.57334e-10
2.57575e-10
2.57765e-10
2.57913e-10
2.58029e-10
2.58118e-10
2.58188e-10
2.58242e-10
2.58283e-10
2.58315e-10
2.5834e-10
2.58359e-10
2.58374e-10
2.58385e-10
2.58394e-10
2.584e-10
2.58405e-10
2.58409e-10
2.58412e-10
2.58414e-10
2.58415e-10
2.58415e-10
2.58415e-10
2.58415e-10
2.58414e-10
2.58412e-10
2.58409e-10
2.58405e-10
2.584e-10
2.58394e-10
2.58385e-10
2.58374e-10
2.58359e-10
2.5834e-10
2.58315e-10
2.58283e-10
2.58242e-10
2.58188e-10
2.58118e-10
2.58029e-10
2.57913e-10
2.57765e-10
2.57575e-10
2.57334e-10
2.5703e-10
2.56649e-10
2.56178e-10
2.556e-10
2.54904e-10
2.54087e-10
2.53167e-10
2.52184e-10
1.23713e-09
1.24211e-09
1.24682e-09
1.251e-09
1.25456e-09
1.25751e-09
1.25993e-09
1.26188e-09
1.26344e-09
1.26467e-09
1.26564e-09
1.26641e-09
1.267e-09
1.26746e-09
1.26782e-09
1.2681e-09
1.26831e-09
1.26848e-09
1.26861e-09
1.26871e-09
1.26878e-09
1.26884e-09
1.26889e-09
1.26892e-09
1.26895e-09
1.26897e-09
1.26898e-09
1.26899e-09
1.269e-09
1.269e-09
1.269e-09
1.269e-09
1.26899e-09
1.26898e-09
1.26897e-09
1.26895e-09
1.26892e-09
1.26889e-09
1.26884e-09
1.26878e-09
1.26871e-09
1.26861e-09
1.26848e-09
1.26831e-09
1.2681e-09
1.26782e-09
1.26746e-09
1.267e-09
1.26641e-09
1.26564e-09
1.26467e-09
1.26344e-09
1.26188e-09
1.25993e-09
1.25751e-09
1.25456e-09
1.251e-09
1.24682e-09
1.24211e-09
1.23713e-09
6.02224e-09
6.04719e-09
6.07086e-09
6.09191e-09
6.10984e-09
6.12473e-09
6.13691e-09
6.14674e-09
6.15461e-09
6.16084e-09
6.16576e-09
6.16961e-09
6.17261e-09
6.17495e-09
6.17677e-09
6.17818e-09
6.17927e-09
6.18011e-09
6.18077e-09
6.18127e-09
6.18166e-09
6.18196e-09
6.18219e-09
6.18237e-09
6.1825e-09
6.1826e-09
6.18268e-09
6.18273e-09
6.18276e-09
6.18278e-09
6.18278e-09
6.18276e-09
6.18273e-09
6.18268e-09
6.1826e-09
6.1825e-09
6.18237e-09
6.18219e-09
6.18196e-09
6.18166e-09
6.18127e-09
6.18077e-09
6.18011e-09
6.17927e-09
6.17818e-09
6.17677e-09
6.17495e-09
6.17261e-09
6.16961e-09
6.16576e-09
6.16084e-09
6.15461e-09
6.14674e-09
6.13691e-09
6.12473e-09
6.10984e-09
6.09191e-09
6.07086e-09
6.04719e-09
6.02224e-09
2.88684e-08
2.89907e-08
2.91071e-08
2.92107e-08
2.92988e-08
2.93721e-08
2.94321e-08
2.94805e-08
2.95192e-08
2.955e-08
2.95742e-08
2.95932e-08
2.9608e-08
2.96196e-08
2.96286e-08
2.96355e-08
2.96409e-08
2.96451e-08
2.96484e-08
2.96509e-08
2.96528e-08
2.96543e-08
2.96555e-08
2.96564e-08
2.9657e-08
2.96575e-08
2.96579e-08
2.96582e-08
2.96583e-08
2.96584e-08
2.96584e-08
2.96583e-08
2.96582e-08
2.96579e-08
2.96575e-08
2.9657e-08
2.96564e-08
2.96555e-08
2.96543e-08
2.96528e-08
2.96509e-08
2.96484e-08
2.96451e-08
2.96409e-08
2.96355e-08
2.96286e-08
2.96196e-08
2.9608e-08
2.95932e-08
2.95742e-08
2.955e-08
2.95192e-08
2.94805e-08
2.94321e-08
2.93721e-08
2.92988e-08
2.92107e-08
2.91071e-08
2.89907e-08
2.88684e-08
1.35102e-07
1.35682e-07
1.36237e-07
1.3673e-07
1.3715e-07
1.37499e-07
1.37784e-07
1.38015e-07
1.382e-07
1.38346e-07
1.38462e-07
1.38552e-07
1.38623e-07
1.38678e-07
1.38721e-07
1.38755e-07
1.38781e-07
1.38801e-07
1.38816e-07
1.38828e-07
1.38838e-07
1.38845e-07
1.38851e-07
1.38855e-07
1.38858e-07
1.38861e-07
1.38862e-07
1.38864e-07
1.38864e-07
1.38865e-07
1.38865e-07
1.38864e-07
1.38864e-07
1.38862e-07
1.38861e-07
1.38858e-07
1.38855e-07
1.38851e-07
1.38845e-07
1.38838e-07
1.38828e-07
1.38816e-07
1.38801e-07
1.38781e-07
1.38755e-07
1.38721e-07
1.38678e-07
1.38623e-07
1.38552e-07
1.38462e-07
1.38346e-07
1.382e-07
1.38015e-07
1.37784e-07
1.37499e-07
1.3715e-07
1.3673e-07
1.36237e-07
1.35682e-07
1.35102e-07
6.11336e-07
6.13984e-07
6.16514e-07
6.18763e-07
6.20677e-07
6.22269e-07
6.2357e-07
6.24623e-07
6.25465e-07
6.26133e-07
6.26661e-07
6.27075e-07
6.27399e-07
6.27651e-07
6.27848e-07
6.28001e-07
6.2812e-07
6.28212e-07
6.28283e-07
6.28339e-07
6.28382e-07
6.28415e-07
6.28441e-07
6.28461e-07
6.28476e-07
6.28487e-07
6.28496e-07
6.28501e-07
6.28505e-07
6.28507e-07
6.28507e-07
6.28505e-07
6.28501e-07
6.28496e-07
6.28487e-07
6.28476e-07
6.28461e-07
6.28441e-07
6.28415e-07
6.28382e-07
6.28339e-07
6.28283e-07
6.28212e-07
6.2812e-07
6.28001e-07
6.27848e-07
6.27651e-07
6.27399e-07
6.27075e-07
6.26661e-07
6.26133e-07
6.25465e-07
6.24623e-07
6.2357e-07
6.22269e-07
6.20677e-07
6.18763e-07
6.16514e-07
6.13984e-07
6.11336e-07
2.64625e-06
2.6577e-06
2.66863e-06
2.67834e-06
2.6866e-06
2.69347e-06
2.69909e-06
2.70363e-06
2.70727e-06
2.71015e-06
2.71243e-06
2.71422e-06
2.71562e-06
2.71672e-06
2.71757e-06
2.71823e-06
2.71875e-06
2.71915e-06
2.71946e-06
2.7197e-06
2.71989e-06
2.72003e-06
2.72014e-06
2.72023e-06
2.7203e-06
2.72034e-06
2.72038e-06
2.72041e-06
2.72042e-06
2.72043e-06
2.72043e-06
2.72042e-06
2.72041e-06
2.72038e-06
2.72034e-06
2.7203e-06
2.72023e-06
2.72014e-06
2.72003e-06
2.71989e-06
2.7197e-06
2.71946e-06
2.71915e-06
2.71875e-06
2.71823e-06
2.71757e-06
2.71672e-06
2.71562e-06
2.71422e-06
2.71243e-06
2.71015e-06
2.70727e-06
2.70363e-06
2.69909e-06
2.69347e-06
2.6866e-06
2.67834e-06
2.66863e-06
2.6577e-06
2.64625e-06
1.0829e-05
1.08753e-05
1.09194e-05
1.09586e-05
1.09919e-05
1.10196e-05
1.10422e-05
1.10605e-05
1.10752e-05
1.10868e-05
1.1096e-05
1.11033e-05
1.11089e-05
1.11133e-05
1.11168e-05
1.11195e-05
1.11215e-05
1.11232e-05
1.11244e-05
1.11254e-05
1.11262e-05
1.11268e-05
1.11272e-05
1.11276e-05
1.11278e-05
1.1128e-05
1.11282e-05
1.11283e-05
1.11284e-05
1.11284e-05
1.11284e-05
1.11284e-05
1.11283e-05
1.11282e-05
1.1128e-05
1.11278e-05
1.11276e-05
1.11272e-05
1.11268e-05
1.11262e-05
1.11254e-05
1.11244e-05
1.11232e-05
1.11215e-05
1.11195e-05
1.11168e-05
1.11133e-05
1.11089e-05
1.11033e-05
1.1096e-05
1.10868e-05
1.10752e-05
1.10605e-05
1.10422e-05
1.10196e-05
1.09919e-05
1.09586e-05
1.09194e-05
1.08753e-05
1.0829e-05
4.13537e-05
4.15264e-05
4.16905e-05
4.18359e-05
4.19595e-05
4.20622e-05
4.21462e-05
4.22141e-05
4.22685e-05
4.23117e-05
4.23459e-05
4.23727e-05
4.23937e-05
4.24102e-05
4.2423e-05
4.24329e-05
4.24407e-05
4.24467e-05
4.24514e-05
4.24551e-05
4.24579e-05
4.24601e-05
4.24619e-05
4.24632e-05
4.24642e-05
4.24649e-05
4.24655e-05
4.24659e-05
4.24661e-05
4.24663e-05
4.24663e-05
4.24661e-05
4.24659e-05
4.24655e-05
4.24649e-05
4.24642e-05
4.24632e-05
4.24619e-05
4.24601e-05
4.24579e-05
4.24551e-05
4.24514e-05
4.24467e-05
4.24407e-05
4.24329e-05
4.2423e-05
4.24102e-05
4.23937e-05
4.23727e-05
4.23459e-05
4.23117e-05
4.22685e-05
4.22141e-05
4.21462e-05
4.20622e-05
4.19595e-05
4.18359e-05
4.16905e-05
4.15264e-05
4.13537e-05
0.000145296
0.000145879
0.000146432
0.00014692
0.000147335
0.00014768
0.000147962
0.00014819
0.000148372
0.000148518
0.000148632
0.000148722
0.000148793
0.000148848
0.000148891
0.000148925
0.000148951
0.000148972
0.000148987
0.000149
0.000149009
0.000149017
0.000149023
0.000149027
0.00014903
0.000149033
0.000149035
0.000149036
0.000149037
0.000149037
0.000149037
0.000149037
0.000149036
0.000149035
0.000149033
0.00014903
0.000149027
0.000149023
0.000149017
0.000149009
0.000149
0.000148987
0.000148972
0.000148951
0.000148925
0.000148891
0.000148848
0.000148793
0.000148722
0.000148632
0.000148518
0.000148372
0.00014819
0.000147962
0.00014768
0.000147335
0.00014692
0.000146432
0.000145879
0.000145296
0.000462543
0.000464298
0.000465949
0.000467406
0.000468643
0.000469671
0.000470511
0.000471191
0.000471735
0.000472168
0.00047251
0.000472779
0.00047299
0.000473155
0.000473283
0.000473384
0.000473462
0.000473523
0.00047357
0.000473607
0.000473636
0.000473659
0.000473676
0.000473689
0.0004737
0.000473707
0.000473713
0.000473717
0.00047372
0.000473721
0.000473721
0.00047372
0.000473717
0.000473713
0.000473707
0.0004737
0.000473689
0.000473676
0.000473659
0.000473636
0.000473607
0.00047357
0.000473523
0.000473462
0.000473384
0.000473283
0.000473155
0.00047299
0.000472779
0.00047251
0.000472168
0.000471735
0.000471191
0.000470511
0.000469671
0.000468643
0.000467406
0.000465949
0.000464298
0.000462543
0.0013132
0.00131779
0.00132209
0.00132587
0.00132908
0.00133175
0.00133393
0.00133569
0.0013371
0.00133822
0.00133911
0.00133981
0.00134036
0.00134078
0.00134112
0.00134138
0.00134158
0.00134174
0.00134187
0.00134196
0.00134204
0.0013421
0.00134214
0.00134218
0.0013422
0.00134222
0.00134224
0.00134225
0.00134226
0.00134226
0.00134226
0.00134226
0.00134225
0.00134224
0.00134222
0.0013422
0.00134218
0.00134214
0.0013421
0.00134204
0.00134196
0.00134187
0.00134174
0.00134158
0.00134138
0.00134112
0.00134078
0.00134036
0.00133981
0.00133911
0.00133822
0.0013371
0.00133569
0.00133393
0.00133175
0.00132908
0.00132587
0.00132209
0.00131779
0.0013132
0.00327641
0.00328671
0.00329626
0.00330465
0.00331175
0.00331765
0.00332248
0.00332638
0.0033295
0.00333199
0.00333395
0.0033355
0.00333671
0.00333766
0.00333841
0.00333899
0.00333944
0.00333979
0.00334007
0.00334028
0.00334045
0.00334058
0.00334068
0.00334076
0.00334082
0.00334086
0.0033409
0.00334092
0.00334094
0.00334094
0.00334094
0.00334094
0.00334092
0.0033409
0.00334086
0.00334082
0.00334076
0.00334068
0.00334058
0.00334045
0.00334028
0.00334007
0.00333979
0.00333944
0.00333899
0.00333841
0.00333766
0.00333671
0.0033355
0.00333395
0.00333199
0.0033295
0.00332638
0.00332248
0.00331765
0.00331175
0.00330465
0.00329626
0.00328671
0.00327641
0.00711028
0.00712976
0.00714767
0.00716334
0.0071766
0.00718761
0.00719661
0.00720389
0.00720972
0.00721436
0.00721803
0.00722092
0.00722319
0.00722497
0.00722636
0.00722744
0.00722829
0.00722895
0.00722947
0.00722987
0.00723019
0.00723043
0.00723062
0.00723077
0.00723088
0.00723097
0.00723103
0.00723108
0.00723111
0.00723112
0.00723112
0.00723111
0.00723108
0.00723103
0.00723097
0.00723088
0.00723077
0.00723062
0.00723043
0.00723019
0.00722987
0.00722947
0.00722895
0.00722829
0.00722744
0.00722636
0.00722497
0.00722319
0.00722092
0.00721803
0.00721436
0.00720972
0.00720389
0.00719661
0.00718761
0.0071766
0.00716334
0.00714767
0.00712976
0.00711028
0.0133983
0.0134295
0.0134578
0.0134825
0.0135034
0.0135208
0.0135349
0.0135464
0.0135556
0.0135629
0.0135687
0.0135732
0.0135768
0.0135796
0.0135818
0.0135835
0.0135849
0.0135859
0.0135868
0.0135874
0.0135879
0.0135883
0.0135886
0.0135888
0.013589
0.0135891
0.0135892
0.0135893
0.0135894
0.0135894
0.0135894
0.0135894
0.0135893
0.0135892
0.0135891
0.013589
0.0135888
0.0135886
0.0135883
0.0135879
0.0135874
0.0135868
0.0135859
0.0135849
0.0135835
0.0135818
0.0135796
0.0135768
0.0135732
0.0135687
0.0135629
0.0135556
0.0135464
0.0135349
0.0135208
0.0135034
0.0134825
0.0134578
0.0134295
0.0133983
0.0221345
0.0221774
0.022216
0.0222496
0.0222779
0.0223015
0.0223207
0.0223362
0.0223487
0.0223586
0.0223665
0.0223727
0.0223776
0.0223814
0.0223844
0.0223867
0.0223886
0.02239
0.0223911
0.022392
0.0223927
0.0223932
0.0223936
0.022394
0.0223942
0.0223944
0.0223945
0.0223946
0.0223947
0.0223947
0.0223947
0.0223947
0.0223946
0.0223945
0.0223944
0.0223942
0.022394
0.0223936
0.0223932
0.0223927
0.022392
0.0223911
0.02239
0.0223886
0.0223867
0.0223844
0.0223814
0.0223776
0.0223727
0.0223665
0.0223586
0.0223487
0.0223362
0.0223207
0.0223015
0.0222779
0.0222496
0.022216
0.0221774
0.0221345
0.0326975
0.0327503
0.0327973
0.0328381
0.0328724
0.0329009
0.0329242
0.032943
0.0329582
0.0329702
0.0329798
0.0329873
0.0329933
0.0329979
0.0330016
0.0330044
0.0330067
0.0330084
0.0330098
0.0330109
0.0330117
0.0330124
0.0330129
0.0330133
0.0330136
0.0330138
0.033014
0.0330141
0.0330142
0.0330142
0.0330142
0.0330142
0.0330141
0.033014
0.0330138
0.0330136
0.0330133
0.0330129
0.0330124
0.0330117
0.0330109
0.0330098
0.0330084
0.0330067
0.0330044
0.0330016
0.0329979
0.0329933
0.0329873
0.0329798
0.0329702
0.0329582
0.032943
0.0329242
0.0329009
0.0328724
0.0328381
0.0327973
0.0327503
0.0326975
0.0442706
0.0443312
0.0443845
0.0444305
0.0444693
0.0445015
0.0445278
0.0445491
0.0445663
0.0445799
0.0445908
0.0445993
0.0446061
0.0446114
0.0446155
0.0446188
0.0446213
0.0446233
0.0446249
0.0446261
0.0446271
0.0446279
0.0446285
0.0446289
0.0446293
0.0446295
0.0446297
0.0446299
0.04463
0.04463
0.04463
0.04463
0.0446299
0.0446297
0.0446295
0.0446293
0.0446289
0.0446285
0.0446279
0.0446271
0.0446261
0.0446249
0.0446233
0.0446213
0.0446188
0.0446155
0.0446114
0.0446061
0.0445993
0.0445908
0.0445799
0.0445663
0.0445491
0.0445278
0.0445015
0.0444693
0.0444305
0.0443845
0.0443312
0.0442706
0.0562552
0.0563221
0.0563805
0.0564307
0.056473
0.056508
0.0565368
0.05656
0.0565788
0.0565937
0.0566056
0.056615
0.0566224
0.0566282
0.0566328
0.0566363
0.0566392
0.0566414
0.0566431
0.0566445
0.0566456
0.0566464
0.0566471
0.0566476
0.056648
0.0566483
0.0566485
0.0566486
0.0566487
0.0566488
0.0566488
0.0566487
0.0566486
0.0566485
0.0566483
0.056648
0.0566476
0.0566471
0.0566464
0.0566456
0.0566445
0.0566431
0.0566414
0.0566392
0.0566363
0.0566328
0.0566282
0.0566224
0.056615
0.0566056
0.0565937
0.0565788
0.05656
0.0565368
0.056508
0.056473
0.0564307
0.0563805
0.0563221
0.0562552
0.0683716
0.0684443
0.0685072
0.0685612
0.0686066
0.0686443
0.0686752
0.0687003
0.0687205
0.0687366
0.0687494
0.0687596
0.0687676
0.0687739
0.0687789
0.0687828
0.0687859
0.0687883
0.0687902
0.0687917
0.0687928
0.0687938
0.0687945
0.068795
0.0687955
0.0687958
0.068796
0.0687962
0.0687963
0.0687964
0.0687964
0.0687963
0.0687962
0.068796
0.0687958
0.0687955
0.068795
0.0687945
0.0687938
0.0687928
0.0687917
0.0687902
0.0687883
0.0687859
0.0687828
0.0687789
0.0687739
0.0687676
0.0687596
0.0687494
0.0687366
0.0687205
0.0687003
0.0686752
0.0686443
0.0686066
0.0685612
0.0685072
0.0684443
0.0683716
0.0805486
0.0806269
0.0806943
0.080752
0.0808006
0.0808409
0.080874
0.0809008
0.0809225
0.0809398
0.0809536
0.0809645
0.0809732
0.08098
0.0809854
0.0809896
0.080993
0.0809956
0.0809977
0.0809993
0.0810006
0.0810016
0.0810023
0.081003
0.0810034
0.0810038
0.0810041
0.0810043
0.0810044
0.0810044
0.0810044
0.0810044
0.0810043
0.0810041
0.0810038
0.0810034
0.081003
0.0810023
0.0810016
0.0810006
0.0809993
0.0809977
0.0809956
0.080993
0.0809896
0.0809854
0.08098
0.0809732
0.0809645
0.0809536
0.0809398
0.0809225
0.0809008
0.080874
0.0808409
0.0808006
0.080752
0.0806943
0.0806269
0.0805486
0.0927962
0.09288
0.092952
0.0930135
0.0930653
0.0931083
0.0931437
0.0931724
0.0931956
0.0932141
0.0932289
0.0932407
0.09325
0.0932573
0.0932631
0.0932677
0.0932713
0.0932742
0.0932764
0.0932782
0.0932796
0.0932807
0.0932815