/*--------------------------------*- C++ -*----------------------------------*\
| =========                 |                                                 |
| \\      /  F ield         | foam-extend: Open Source CFD                    |
|  \\    /   O peration     | Version:     4.0                                |
|   \\  /    A nd           | Web:         http://www.foam-extend.org         |
|    \\/     M anipulation  |                                                 |
\*---------------------------------------------------------------------------*/
FoamFile
{
    version     2.0;
    format      ascii;
    class       volScalarField;
    location    "1920";
    object      cMinus;
}
// * * * * * * * * * * * * * * * * * * * * * * * * * * * * * * * * * * * * * //

dimensions      [0 0 0 0 0 0 0];

internalField   nonuniform List<scalar> 
6960
(
7.56489e-24
7.56564e-24
7.56588e-24
7.566e-24
7.5661e-24
7.56619e-24
7.56629e-24
7.56638e-24
7.56648e-24
7.56657e-24
7.56667e-24
7.56677e-24
7.56687e-24
7.56697e-24
7.56706e-24
7.56715e-24
7.56724e-24
7.56732e-24
7.5674e-24
7.56747e-24
7.56753e-24
7.5676e-24
7.56765e-24
7.5677e-24
7.56774e-24
7.56777e-24
7.5678e-24
7.56782e-24
7.56784e-24
7.56784e-24
7.56784e-24
7.56784e-24
7.56782e-24
7.5678e-24
7.56777e-24
7.56774e-24
7.5677e-24
7.56765e-24
7.5676e-24
7.56753e-24
7.56747e-24
7.5674e-24
7.56732e-24
7.56724e-24
7.56715e-24
7.56706e-24
7.56697e-24
7.56687e-24
7.56677e-24
7.56667e-24
7.56657e-24
7.56648e-24
7.56638e-24
7.56629e-24
7.56619e-24
7.5661e-24
7.566e-24
7.56588e-24
7.56564e-24
7.56489e-24
2.07051e-23
2.07072e-23
2.07079e-23
2.07083e-23
2.07087e-23
2.07091e-23
2.07094e-23
2.07098e-23
2.07101e-23
2.07105e-23
2.07108e-23
2.07112e-23
2.07115e-23
2.07118e-23
2.07121e-23
2.07124e-23
2.07127e-23
2.0713e-23
2.07133e-23
2.07135e-23
2.07137e-23
2.07139e-23
2.07141e-23
2.07142e-23
2.07144e-23
2.07145e-23
2.07146e-23
2.07146e-23
2.07147e-23
2.07147e-23
2.07147e-23
2.07147e-23
2.07146e-23
2.07146e-23
2.07145e-23
2.07144e-23
2.07142e-23
2.07141e-23
2.07139e-23
2.07137e-23
2.07135e-23
2.07133e-23
2.0713e-23
2.07127e-23
2.07124e-23
2.07121e-23
2.07118e-23
2.07115e-23
2.07112e-23
2.07108e-23
2.07105e-23
2.07101e-23
2.07098e-23
2.07094e-23
2.07091e-23
2.07087e-23
2.07083e-23
2.07079e-23
2.07072e-23
2.07051e-23
4.90243e-23
4.90295e-23
4.90315e-23
4.90329e-23
4.9034e-23
4.90352e-23
4.90363e-23
4.90374e-23
4.90385e-23
4.90395e-23
4.90406e-23
4.90416e-23
4.90426e-23
4.90436e-23
4.90445e-23
4.90454e-23
4.90463e-23
4.90471e-23
4.90478e-23
4.90485e-23
4.90491e-23
4.90497e-23
4.90502e-23
4.90506e-23
4.9051e-23
4.90513e-23
4.90516e-23
4.90518e-23
4.90519e-23
4.90519e-23
4.90519e-23
4.90519e-23
4.90518e-23
4.90516e-23
4.90513e-23
4.9051e-23
4.90506e-23
4.90502e-23
4.90497e-23
4.90491e-23
4.90485e-23
4.90478e-23
4.90471e-23
4.90463e-23
4.90454e-23
4.90445e-23
4.90436e-23
4.90426e-23
4.90416e-23
4.90406e-23
4.90395e-23
4.90385e-23
4.90374e-23
4.90363e-23
4.90352e-23
4.9034e-23
4.90329e-23
4.90315e-23
4.90295e-23
4.90243e-23
1.10417e-22
1.10429e-22
1.10434e-22
1.10438e-22
1.10442e-22
1.10445e-22
1.10448e-22
1.10452e-22
1.10455e-22
1.10458e-22
1.10461e-22
1.10464e-22
1.10466e-22
1.10469e-22
1.10472e-22
1.10474e-22
1.10476e-22
1.10479e-22
1.10481e-22
1.10482e-22
1.10484e-22
1.10486e-22
1.10487e-22
1.10488e-22
1.10489e-22
1.1049e-22
1.10491e-22
1.10491e-22
1.10492e-22
1.10492e-22
1.10492e-22
1.10492e-22
1.10491e-22
1.10491e-22
1.1049e-22
1.10489e-22
1.10488e-22
1.10487e-22
1.10486e-22
1.10484e-22
1.10482e-22
1.10481e-22
1.10479e-22
1.10476e-22
1.10474e-22
1.10472e-22
1.10469e-22
1.10466e-22
1.10464e-22
1.10461e-22
1.10458e-22
1.10455e-22
1.10452e-22
1.10448e-22
1.10445e-22
1.10442e-22
1.10438e-22
1.10434e-22
1.10429e-22
1.10417e-22
2.45706e-22
2.45735e-22
2.45749e-22
2.45759e-22
2.45769e-22
2.45778e-22
2.45787e-22
2.45796e-22
2.45805e-22
2.45813e-22
2.45822e-22
2.45829e-22
2.45837e-22
2.45844e-22
2.45851e-22
2.45858e-22
2.45864e-22
2.4587e-22
2.45875e-22
2.4588e-22
2.45884e-22
2.45888e-22
2.45892e-22
2.45895e-22
2.45898e-22
2.459e-22
2.45902e-22
2.45903e-22
2.45904e-22
2.45904e-22
2.45904e-22
2.45904e-22
2.45903e-22
2.45902e-22
2.459e-22
2.45898e-22
2.45895e-22
2.45892e-22
2.45888e-22
2.45884e-22
2.4588e-22
2.45875e-22
2.4587e-22
2.45864e-22
2.45858e-22
2.45851e-22
2.45844e-22
2.45837e-22
2.45829e-22
2.45822e-22
2.45813e-22
2.45805e-22
2.45796e-22
2.45787e-22
2.45778e-22
2.45769e-22
2.45759e-22
2.45749e-22
2.45735e-22
2.45706e-22
5.49588e-22
5.49657e-22
5.49691e-22
5.4972e-22
5.49746e-22
5.49772e-22
5.49797e-22
5.49821e-22
5.49845e-22
5.49867e-22
5.49889e-22
5.49911e-22
5.49931e-22
5.4995e-22
5.49968e-22
5.49986e-22
5.50002e-22
5.50017e-22
5.50031e-22
5.50044e-22
5.50055e-22
5.50066e-22
5.50075e-22
5.50083e-22
5.5009e-22
5.50096e-22
5.50101e-22
5.50104e-22
5.50107e-22
5.50108e-22
5.50108e-22
5.50107e-22
5.50104e-22
5.50101e-22
5.50096e-22
5.5009e-22
5.50083e-22
5.50075e-22
5.50066e-22
5.50055e-22
5.50044e-22
5.50031e-22
5.50017e-22
5.50002e-22
5.49986e-22
5.49968e-22
5.4995e-22
5.49931e-22
5.49911e-22
5.49889e-22
5.49867e-22
5.49845e-22
5.49821e-22
5.49797e-22
5.49772e-22
5.49746e-22
5.4972e-22
5.49691e-22
5.49657e-22
5.49588e-22
1.24594e-21
1.2461e-21
1.24619e-21
1.24627e-21
1.24634e-21
1.24641e-21
1.24647e-21
1.24654e-21
1.2466e-21
1.24666e-21
1.24672e-21
1.24678e-21
1.24683e-21
1.24688e-21
1.24693e-21
1.24698e-21
1.24702e-21
1.24706e-21
1.2471e-21
1.24713e-21
1.24716e-21
1.24719e-21
1.24721e-21
1.24723e-21
1.24725e-21
1.24727e-21
1.24728e-21
1.24729e-21
1.24729e-21
1.2473e-21
1.2473e-21
1.24729e-21
1.24729e-21
1.24728e-21
1.24727e-21
1.24725e-21
1.24723e-21
1.24721e-21
1.24719e-21
1.24716e-21
1.24713e-21
1.2471e-21
1.24706e-21
1.24702e-21
1.24698e-21
1.24693e-21
1.24688e-21
1.24683e-21
1.24678e-21
1.24672e-21
1.24666e-21
1.2466e-21
1.24654e-21
1.24647e-21
1.24641e-21
1.24634e-21
1.24627e-21
1.24619e-21
1.2461e-21
1.24594e-21
2.8746e-21
2.875e-21
2.87523e-21
2.87543e-21
2.87563e-21
2.87581e-21
2.87599e-21
2.87617e-21
2.87634e-21
2.8765e-21
2.87666e-21
2.87681e-21
2.87695e-21
2.87709e-21
2.87721e-21
2.87733e-21
2.87745e-21
2.87755e-21
2.87765e-21
2.87773e-21
2.87781e-21
2.87789e-21
2.87795e-21
2.87801e-21
2.87805e-21
2.87809e-21
2.87812e-21
2.87815e-21
2.87816e-21
2.87817e-21
2.87817e-21
2.87816e-21
2.87815e-21
2.87812e-21
2.87809e-21
2.87805e-21
2.87801e-21
2.87795e-21
2.87789e-21
2.87781e-21
2.87773e-21
2.87765e-21
2.87755e-21
2.87745e-21
2.87733e-21
2.87721e-21
2.87709e-21
2.87695e-21
2.87681e-21
2.87666e-21
2.8765e-21
2.87634e-21
2.87617e-21
2.87599e-21
2.87581e-21
2.87563e-21
2.87543e-21
2.87523e-21
2.875e-21
2.8746e-21
6.76396e-21
6.76494e-21
6.76555e-21
6.76609e-21
6.76661e-21
6.76711e-21
6.7676e-21
6.76807e-21
6.76853e-21
6.76897e-21
6.76939e-21
6.76979e-21
6.77017e-21
6.77053e-21
6.77087e-21
6.77119e-21
6.77149e-21
6.77176e-21
6.77202e-21
6.77225e-21
6.77246e-21
6.77265e-21
6.77282e-21
6.77297e-21
6.77309e-21
6.7732e-21
6.77328e-21
6.77335e-21
6.77339e-21
6.77341e-21
6.77341e-21
6.77339e-21
6.77335e-21
6.77328e-21
6.7732e-21
6.77309e-21
6.77297e-21
6.77282e-21
6.77265e-21
6.77246e-21
6.77225e-21
6.77202e-21
6.77176e-21
6.77149e-21
6.77119e-21
6.77087e-21
6.77053e-21
6.77017e-21
6.76979e-21
6.76939e-21
6.76897e-21
6.76853e-21
6.76807e-21
6.7676e-21
6.76711e-21
6.76661e-21
6.76609e-21
6.76555e-21
6.76494e-21
6.76396e-21
1.62506e-20
1.62531e-20
1.62547e-20
1.62561e-20
1.62575e-20
1.62589e-20
1.62602e-20
1.62615e-20
1.62628e-20
1.6264e-20
1.62651e-20
1.62662e-20
1.62672e-20
1.62682e-20
1.62691e-20
1.62699e-20
1.62707e-20
1.62715e-20
1.62722e-20
1.62728e-20
1.62734e-20
1.62739e-20
1.62743e-20
1.62747e-20
1.6275e-20
1.62753e-20
1.62755e-20
1.62757e-20
1.62758e-20
1.62759e-20
1.62759e-20
1.62758e-20
1.62757e-20
1.62755e-20
1.62753e-20
1.6275e-20
1.62747e-20
1.62743e-20
1.62739e-20
1.62734e-20
1.62728e-20
1.62722e-20
1.62715e-20
1.62707e-20
1.62699e-20
1.62691e-20
1.62682e-20
1.62672e-20
1.62662e-20
1.62651e-20
1.6264e-20
1.62628e-20
1.62615e-20
1.62602e-20
1.62589e-20
1.62575e-20
1.62561e-20
1.62547e-20
1.62531e-20
1.62506e-20
3.98919e-20
3.98984e-20
3.99027e-20
3.99066e-20
3.99105e-20
3.99143e-20
3.99179e-20
3.99215e-20
3.99249e-20
3.99281e-20
3.99312e-20
3.99342e-20
3.9937e-20
3.99396e-20
3.99421e-20
3.99444e-20
3.99466e-20
3.99486e-20
3.99505e-20
3.99521e-20
3.99537e-20
3.99551e-20
3.99563e-20
3.99574e-20
3.99583e-20
3.9959e-20
3.99596e-20
3.99601e-20
3.99604e-20
3.99605e-20
3.99605e-20
3.99604e-20
3.99601e-20
3.99596e-20
3.9959e-20
3.99583e-20
3.99574e-20
3.99563e-20
3.99551e-20
3.99537e-20
3.99521e-20
3.99505e-20
3.99486e-20
3.99466e-20
3.99444e-20
3.99421e-20
3.99396e-20
3.9937e-20
3.99342e-20
3.99312e-20
3.99281e-20
3.99249e-20
3.99215e-20
3.99179e-20
3.99143e-20
3.99105e-20
3.99066e-20
3.99027e-20
3.98984e-20
3.98919e-20
1.00104e-19
1.00121e-19
1.00133e-19
1.00144e-19
1.00155e-19
1.00165e-19
1.00176e-19
1.00185e-19
1.00195e-19
1.00204e-19
1.00212e-19
1.00221e-19
1.00228e-19
1.00236e-19
1.00242e-19
1.00249e-19
1.00255e-19
1.0026e-19
1.00265e-19
1.0027e-19
1.00274e-19
1.00278e-19
1.00282e-19
1.00284e-19
1.00287e-19
1.00289e-19
1.00291e-19
1.00292e-19
1.00293e-19
1.00293e-19
1.00293e-19
1.00293e-19
1.00292e-19
1.00291e-19
1.00289e-19
1.00287e-19
1.00284e-19
1.00282e-19
1.00278e-19
1.00274e-19
1.0027e-19
1.00265e-19
1.0026e-19
1.00255e-19
1.00249e-19
1.00242e-19
1.00236e-19
1.00228e-19
1.00221e-19
1.00212e-19
1.00204e-19
1.00195e-19
1.00185e-19
1.00176e-19
1.00165e-19
1.00155e-19
1.00144e-19
1.00133e-19
1.00121e-19
1.00104e-19
2.56877e-19
2.56922e-19
2.56955e-19
2.56986e-19
2.57016e-19
2.57046e-19
2.57075e-19
2.57102e-19
2.57129e-19
2.57154e-19
2.57178e-19
2.57201e-19
2.57223e-19
2.57244e-19
2.57263e-19
2.57281e-19
2.57298e-19
2.57313e-19
2.57328e-19
2.57341e-19
2.57352e-19
2.57363e-19
2.57372e-19
2.57381e-19
2.57388e-19
2.57393e-19
2.57398e-19
2.57402e-19
2.57404e-19
2.57405e-19
2.57405e-19
2.57404e-19
2.57402e-19
2.57398e-19
2.57393e-19
2.57388e-19
2.57381e-19
2.57372e-19
2.57363e-19
2.57352e-19
2.57341e-19
2.57328e-19
2.57313e-19
2.57298e-19
2.57281e-19
2.57263e-19
2.57244e-19
2.57223e-19
2.57201e-19
2.57178e-19
2.57154e-19
2.57129e-19
2.57102e-19
2.57075e-19
2.57046e-19
2.57016e-19
2.56986e-19
2.56955e-19
2.56922e-19
2.56877e-19
6.7425e-19
6.74374e-19
6.74466e-19
6.74555e-19
6.74642e-19
6.74727e-19
6.74809e-19
6.74888e-19
6.74964e-19
6.75037e-19
6.75106e-19
6.75171e-19
6.75234e-19
6.75292e-19
6.75347e-19
6.75398e-19
6.75446e-19
6.7549e-19
6.75531e-19
6.75568e-19
6.75602e-19
6.75632e-19
6.75659e-19
6.75682e-19
6.75702e-19
6.75718e-19
6.75732e-19
6.75742e-19
6.75748e-19
6.75751e-19
6.75751e-19
6.75748e-19
6.75742e-19
6.75732e-19
6.75718e-19
6.75702e-19
6.75682e-19
6.75659e-19
6.75632e-19
6.75602e-19
6.75568e-19
6.75531e-19
6.7549e-19
6.75446e-19
6.75398e-19
6.75347e-19
6.75292e-19
6.75234e-19
6.75171e-19
6.75106e-19
6.75037e-19
6.74964e-19
6.74888e-19
6.74809e-19
6.74727e-19
6.74642e-19
6.74555e-19
6.74466e-19
6.74374e-19
6.7425e-19
1.81065e-18
1.81099e-18
1.81126e-18
1.81151e-18
1.81177e-18
1.81202e-18
1.81226e-18
1.81249e-18
1.81271e-18
1.81292e-18
1.81312e-18
1.81331e-18
1.81349e-18
1.81366e-18
1.81382e-18
1.81397e-18
1.81411e-18
1.81424e-18
1.81436e-18
1.81446e-18
1.81456e-18
1.81465e-18
1.81473e-18
1.81479e-18
1.81485e-18
1.8149e-18
1.81494e-18
1.81497e-18
1.81498e-18
1.81499e-18
1.81499e-18
1.81498e-18
1.81497e-18
1.81494e-18
1.8149e-18
1.81485e-18
1.81479e-18
1.81473e-18
1.81465e-18
1.81456e-18
1.81446e-18
1.81436e-18
1.81424e-18
1.81411e-18
1.81397e-18
1.81382e-18
1.81366e-18
1.81349e-18
1.81331e-18
1.81312e-18
1.81292e-18
1.81271e-18
1.81249e-18
1.81226e-18
1.81202e-18
1.81177e-18
1.81151e-18
1.81126e-18
1.81099e-18
1.81065e-18
4.97546e-18
4.97644e-18
4.97722e-18
4.97799e-18
4.97874e-18
4.97948e-18
4.98019e-18
4.98088e-18
4.98153e-18
4.98216e-18
4.98275e-18
4.98332e-18
4.98385e-18
4.98436e-18
4.98483e-18
4.98527e-18
4.98568e-18
4.98606e-18
4.9864e-18
4.98672e-18
4.98701e-18
4.98727e-18
4.9875e-18
4.98769e-18
4.98786e-18
4.98801e-18
4.98812e-18
4.9882e-18
4.98826e-18
4.98829e-18
4.98829e-18
4.98826e-18
4.9882e-18
4.98812e-18
4.98801e-18
4.98786e-18
4.98769e-18
4.9875e-18
4.98727e-18
4.98701e-18
4.98672e-18
4.9864e-18
4.98606e-18
4.98568e-18
4.98527e-18
4.98483e-18
4.98436e-18
4.98385e-18
4.98332e-18
4.98275e-18
4.98216e-18
4.98153e-18
4.98088e-18
4.98019e-18
4.97948e-18
4.97874e-18
4.97799e-18
4.97722e-18
4.97644e-18
4.97546e-18
1.39915e-17
1.39943e-17
1.39967e-17
1.3999e-17
1.40013e-17
1.40035e-17
1.40056e-17
1.40077e-17
1.40097e-17
1.40116e-17
1.40134e-17
1.40151e-17
1.40167e-17
1.40182e-17
1.40196e-17
1.4021e-17
1.40222e-17
1.40233e-17
1.40244e-17
1.40253e-17
1.40262e-17
1.4027e-17
1.40277e-17
1.40283e-17
1.40288e-17
1.40292e-17
1.40295e-17
1.40298e-17
1.403e-17
1.40301e-17
1.40301e-17
1.403e-17
1.40298e-17
1.40295e-17
1.40292e-17
1.40288e-17
1.40283e-17
1.40277e-17
1.4027e-17
1.40262e-17
1.40253e-17
1.40244e-17
1.40233e-17
1.40222e-17
1.4021e-17
1.40196e-17
1.40182e-17
1.40167e-17
1.40151e-17
1.40134e-17
1.40116e-17
1.40097e-17
1.40077e-17
1.40056e-17
1.40035e-17
1.40013e-17
1.3999e-17
1.39967e-17
1.39943e-17
1.39915e-17
4.0266e-17
4.02745e-17
4.02816e-17
4.02887e-17
4.02957e-17
4.03026e-17
4.03092e-17
4.03156e-17
4.03217e-17
4.03276e-17
4.03331e-17
4.03383e-17
4.03433e-17
4.0348e-17
4.03523e-17
4.03564e-17
4.03602e-17
4.03637e-17
4.03669e-17
4.03698e-17
4.03725e-17
4.03749e-17
4.0377e-17
4.03788e-17
4.03804e-17
4.03817e-17
4.03827e-17
4.03835e-17
4.0384e-17
4.03843e-17
4.03843e-17
4.0384e-17
4.03835e-17
4.03827e-17
4.03817e-17
4.03804e-17
4.03788e-17
4.0377e-17
4.03749e-17
4.03725e-17
4.03698e-17
4.03669e-17
4.03637e-17
4.03602e-17
4.03564e-17
4.03523e-17
4.0348e-17
4.03433e-17
4.03383e-17
4.03331e-17
4.03276e-17
4.03217e-17
4.03156e-17
4.03092e-17
4.03026e-17
4.02957e-17
4.02887e-17
4.02816e-17
4.02745e-17
4.0266e-17
1.18587e-16
1.18613e-16
1.18635e-16
1.18657e-16
1.18679e-16
1.18701e-16
1.18722e-16
1.18742e-16
1.18761e-16
1.18779e-16
1.18797e-16
1.18813e-16
1.18829e-16
1.18843e-16
1.18857e-16
1.1887e-16
1.18882e-16
1.18893e-16
1.18903e-16
1.18912e-16
1.1892e-16
1.18928e-16
1.18934e-16
1.1894e-16
1.18945e-16
1.18949e-16
1.18952e-16
1.18955e-16
1.18956e-16
1.18957e-16
1.18957e-16
1.18956e-16
1.18955e-16
1.18952e-16
1.18949e-16
1.18945e-16
1.1894e-16
1.18934e-16
1.18928e-16
1.1892e-16
1.18912e-16
1.18903e-16
1.18893e-16
1.18882e-16
1.1887e-16
1.18857e-16
1.18843e-16
1.18829e-16
1.18813e-16
1.18797e-16
1.18779e-16
1.18761e-16
1.18742e-16
1.18722e-16
1.18701e-16
1.18679e-16
1.18657e-16
1.18635e-16
1.18613e-16
1.18587e-16
3.57353e-16
3.57433e-16
3.57504e-16
3.57575e-16
3.57646e-16
3.57715e-16
3.57782e-16
3.57846e-16
3.57908e-16
3.57966e-16
3.58022e-16
3.58075e-16
3.58124e-16
3.58171e-16
3.58215e-16
3.58256e-16
3.58294e-16
3.58329e-16
3.58361e-16
3.5839e-16
3.58417e-16
3.5844e-16
3.58461e-16
3.5848e-16
3.58495e-16
3.58508e-16
3.58519e-16
3.58527e-16
3.58532e-16
3.58534e-16
3.58534e-16
3.58532e-16
3.58527e-16
3.58519e-16
3.58508e-16
3.58495e-16
3.5848e-16
3.58461e-16
3.5844e-16
3.58417e-16
3.5839e-16
3.58361e-16
3.58329e-16
3.58294e-16
3.58256e-16
3.58215e-16
3.58171e-16
3.58124e-16
3.58075e-16
3.58022e-16
3.57966e-16
3.57908e-16
3.57846e-16
3.57782e-16
3.57715e-16
3.57646e-16
3.57575e-16
3.57504e-16
3.57433e-16
3.57353e-16
1.10157e-15
1.10183e-15
1.10206e-15
1.10229e-15
1.10252e-15
1.10275e-15
1.10297e-15
1.10318e-15
1.10338e-15
1.10357e-15
1.10375e-15
1.10392e-15
1.10408e-15
1.10424e-15
1.10438e-15
1.10451e-15
1.10464e-15
1.10475e-15
1.10485e-15
1.10495e-15
1.10504e-15
1.10511e-15
1.10518e-15
1.10524e-15
1.10529e-15
1.10534e-15
1.10537e-15
1.10539e-15
1.10541e-15
1.10542e-15
1.10542e-15
1.10541e-15
1.10539e-15
1.10537e-15
1.10534e-15
1.10529e-15
1.10524e-15
1.10518e-15
1.10511e-15
1.10504e-15
1.10495e-15
1.10485e-15
1.10475e-15
1.10464e-15
1.10451e-15
1.10438e-15
1.10424e-15
1.10408e-15
1.10392e-15
1.10375e-15
1.10357e-15
1.10338e-15
1.10318e-15
1.10297e-15
1.10275e-15
1.10252e-15
1.10229e-15
1.10206e-15
1.10183e-15
1.10157e-15
3.47234e-15
3.47316e-15
3.47393e-15
3.4747e-15
3.47547e-15
3.47623e-15
3.47695e-15
3.47765e-15
3.47832e-15
3.47896e-15
3.47956e-15
3.48013e-15
3.48067e-15
3.48118e-15
3.48165e-15
3.48209e-15
3.4825e-15
3.48288e-15
3.48323e-15
3.48355e-15
3.48384e-15
3.48409e-15
3.48432e-15
3.48452e-15
3.48469e-15
3.48483e-15
3.48494e-15
3.48502e-15
3.48508e-15
3.48511e-15
3.48511e-15
3.48508e-15
3.48502e-15
3.48494e-15
3.48483e-15
3.48469e-15
3.48452e-15
3.48432e-15
3.48409e-15
3.48384e-15
3.48355e-15
3.48323e-15
3.48288e-15
3.4825e-15
3.48209e-15
3.48165e-15
3.48118e-15
3.48067e-15
3.48013e-15
3.47956e-15
3.47896e-15
3.47832e-15
3.47765e-15
3.47695e-15
3.47623e-15
3.47547e-15
3.4747e-15
3.47393e-15
3.47316e-15
3.47234e-15
1.11866e-14
1.11893e-14
1.11919e-14
1.11945e-14
1.11972e-14
1.11997e-14
1.12022e-14
1.12046e-14
1.12068e-14
1.1209e-14
1.1211e-14
1.1213e-14
1.12148e-14
1.12165e-14
1.12181e-14
1.12196e-14
1.1221e-14
1.12223e-14
1.12235e-14
1.12245e-14
1.12255e-14
1.12264e-14
1.12272e-14
1.12278e-14
1.12284e-14
1.12289e-14
1.12293e-14
1.12295e-14
1.12297e-14
1.12298e-14
1.12298e-14
1.12297e-14
1.12295e-14
1.12293e-14
1.12289e-14
1.12284e-14
1.12278e-14
1.12272e-14
1.12264e-14
1.12255e-14
1.12245e-14
1.12235e-14
1.12223e-14
1.1221e-14
1.12196e-14
1.12181e-14
1.12165e-14
1.12148e-14
1.1213e-14
1.1211e-14
1.1209e-14
1.12068e-14
1.12046e-14
1.12022e-14
1.11997e-14
1.11972e-14
1.11945e-14
1.11919e-14
1.11893e-14
1.11866e-14
3.68081e-14
3.68173e-14
3.68262e-14
3.68353e-14
3.68444e-14
3.68532e-14
3.68617e-14
3.68699e-14
3.68778e-14
3.68852e-14
3.68923e-14
3.6899e-14
3.69053e-14
3.69112e-14
3.69168e-14
3.69219e-14
3.69267e-14
3.69311e-14
3.69352e-14
3.69389e-14
3.69423e-14
3.69453e-14
3.69479e-14
3.69502e-14
3.69522e-14
3.69539e-14
3.69552e-14
3.69561e-14
3.69568e-14
3.69571e-14
3.69571e-14
3.69568e-14
3.69561e-14
3.69552e-14
3.69539e-14
3.69522e-14
3.69502e-14
3.69479e-14
3.69453e-14
3.69423e-14
3.69389e-14
3.69352e-14
3.69311e-14
3.69267e-14
3.69219e-14
3.69168e-14
3.69112e-14
3.69053e-14
3.6899e-14
3.68923e-14
3.68852e-14
3.68778e-14
3.68699e-14
3.68617e-14
3.68532e-14
3.68444e-14
3.68353e-14
3.68262e-14
3.68173e-14
3.68081e-14
1.23588e-13
1.23619e-13
1.23651e-13
1.23683e-13
1.23714e-13
1.23745e-13
1.23776e-13
1.23804e-13
1.23832e-13
1.23858e-13
1.23883e-13
1.23906e-13
1.23929e-13
1.23949e-13
1.23969e-13
1.23987e-13
1.24004e-13
1.24019e-13
1.24034e-13
1.24047e-13
1.24058e-13
1.24069e-13
1.24078e-13
1.24086e-13
1.24093e-13
1.24099e-13
1.24104e-13
1.24107e-13
1.24109e-13
1.24111e-13
1.24111e-13
1.24109e-13
1.24107e-13
1.24104e-13
1.24099e-13
1.24093e-13
1.24086e-13
1.24078e-13
1.24069e-13
1.24058e-13
1.24047e-13
1.24034e-13
1.24019e-13
1.24004e-13
1.23987e-13
1.23969e-13
1.23949e-13
1.23929e-13
1.23906e-13
1.23883e-13
1.23858e-13
1.23832e-13
1.23804e-13
1.23776e-13
1.23745e-13
1.23714e-13
1.23683e-13
1.23651e-13
1.23619e-13
1.23588e-13
4.22973e-13
4.23085e-13
4.23196e-13
4.23311e-13
4.23424e-13
4.23535e-13
4.23643e-13
4.23746e-13
4.23844e-13
4.23938e-13
4.24027e-13
4.24111e-13
4.2419e-13
4.24264e-13
4.24334e-13
4.24399e-13
4.24459e-13
4.24514e-13
4.24565e-13
4.24612e-13
4.24654e-13
4.24691e-13
4.24724e-13
4.24753e-13
4.24778e-13
4.24799e-13
4.24815e-13
4.24827e-13
4.24836e-13
4.2484e-13
4.2484e-13
4.24836e-13
4.24827e-13
4.24815e-13
4.24799e-13
4.24778e-13
4.24753e-13
4.24724e-13
4.24691e-13
4.24654e-13
4.24612e-13
4.24565e-13
4.24514e-13
4.24459e-13
4.24399e-13
4.24334e-13
4.24264e-13
4.2419e-13
4.24111e-13
4.24027e-13
4.23938e-13
4.23844e-13
4.23746e-13
4.23643e-13
4.23535e-13
4.23424e-13
4.23311e-13
4.23196e-13
4.23085e-13
4.22973e-13
1.47356e-12
1.47396e-12
1.47436e-12
1.47477e-12
1.47519e-12
1.47559e-12
1.47598e-12
1.47635e-12
1.47671e-12
1.47705e-12
1.47737e-12
1.47768e-12
1.47796e-12
1.47823e-12
1.47848e-12
1.47872e-12
1.47894e-12
1.47914e-12
1.47932e-12
1.47949e-12
1.47964e-12
1.47978e-12
1.4799e-12
1.48e-12
1.48009e-12
1.48017e-12
1.48023e-12
1.48027e-12
1.4803e-12
1.48032e-12
1.48032e-12
1.4803e-12
1.48027e-12
1.48023e-12
1.48017e-12
1.48009e-12
1.48e-12
1.4799e-12
1.47978e-12
1.47964e-12
1.47949e-12
1.47932e-12
1.47914e-12
1.47894e-12
1.47872e-12
1.47848e-12
1.47823e-12
1.47796e-12
1.47768e-12
1.47737e-12
1.47705e-12
1.47671e-12
1.47635e-12
1.47598e-12
1.47559e-12
1.47519e-12
1.47477e-12
1.47436e-12
1.47396e-12
1.47356e-12
5.21696e-12
5.21841e-12
5.21989e-12
5.22141e-12
5.22293e-12
5.22441e-12
5.22585e-12
5.22722e-12
5.22854e-12
5.22978e-12
5.23097e-12
5.23209e-12
5.23314e-12
5.23413e-12
5.23506e-12
5.23592e-12
5.23672e-12
5.23746e-12
5.23813e-12
5.23875e-12
5.23931e-12
5.23981e-12
5.24025e-12
5.24064e-12
5.24097e-12
5.24124e-12
5.24146e-12
5.24162e-12
5.24173e-12
5.24178e-12
5.24178e-12
5.24173e-12
5.24162e-12
5.24146e-12
5.24124e-12
5.24097e-12
5.24064e-12
5.24025e-12
5.23981e-12
5.23931e-12
5.23875e-12
5.23813e-12
5.23746e-12
5.23672e-12
5.23592e-12
5.23506e-12
5.23413e-12
5.23314e-12
5.23209e-12
5.23097e-12
5.22978e-12
5.22854e-12
5.22722e-12
5.22585e-12
5.22441e-12
5.22293e-12
5.22141e-12
5.21989e-12
5.21841e-12
5.21696e-12
1.87328e-11
1.87381e-11
1.87436e-11
1.87493e-11
1.87549e-11
1.87605e-11
1.87658e-11
1.87709e-11
1.87758e-11
1.87804e-11
1.87848e-11
1.8789e-11
1.87929e-11
1.87966e-11
1.88e-11
1.88032e-11
1.88062e-11
1.88089e-11
1.88114e-11
1.88137e-11
1.88158e-11
1.88176e-11
1.88193e-11
1.88207e-11
1.88219e-11
1.8823e-11
1.88238e-11
1.88244e-11
1.88248e-11
1.8825e-11
1.8825e-11
1.88248e-11
1.88244e-11
1.88238e-11
1.8823e-11
1.88219e-11
1.88207e-11
1.88193e-11
1.88176e-11
1.88158e-11
1.88137e-11
1.88114e-11
1.88089e-11
1.88062e-11
1.88032e-11
1.88e-11
1.87966e-11
1.87929e-11
1.8789e-11
1.87848e-11
1.87804e-11
1.87758e-11
1.87709e-11
1.87658e-11
1.87605e-11
1.87549e-11
1.87493e-11
1.87436e-11
1.87381e-11
1.87328e-11
6.80606e-11
6.80803e-11
6.81009e-11
6.81221e-11
6.81433e-11
6.8164e-11
6.8184e-11
6.82032e-11
6.82215e-11
6.82389e-11
6.82554e-11
6.8271e-11
6.82856e-11
6.82994e-11
6.83123e-11
6.83243e-11
6.83354e-11
6.83457e-11
6.83551e-11
6.83637e-11
6.83714e-11
6.83784e-11
6.83845e-11
6.83899e-11
6.83944e-11
6.83982e-11
6.84012e-11
6.84035e-11
6.8405e-11
6.84058e-11
6.84058e-11
6.8405e-11
6.84035e-11
6.84012e-11
6.83982e-11
6.83944e-11
6.83899e-11
6.83845e-11
6.83784e-11
6.83714e-11
6.83637e-11
6.83551e-11
6.83457e-11
6.83354e-11
6.83243e-11
6.83123e-11
6.82994e-11
6.82856e-11
6.8271e-11
6.82554e-11
6.82389e-11
6.82215e-11
6.82032e-11
6.8184e-11
6.8164e-11
6.81433e-11
6.81221e-11
6.81009e-11
6.80803e-11
6.80606e-11
2.49508e-10
2.49582e-10
2.49659e-10
2.49739e-10
2.49819e-10
2.49897e-10
2.49973e-10
2.50045e-10
2.50114e-10
2.50179e-10
2.50242e-10
2.503e-10
2.50356e-10
2.50407e-10
2.50456e-10
2.50501e-10
2.50543e-10
2.50582e-10
2.50617e-10
2.50649e-10
2.50679e-10
2.50705e-10
2.50728e-10
2.50748e-10
2.50765e-10
2.5078e-10
2.50791e-10
2.50799e-10
2.50805e-10
2.50808e-10
2.50808e-10
2.50805e-10
2.50799e-10
2.50791e-10
2.5078e-10
2.50765e-10
2.50748e-10
2.50728e-10
2.50705e-10
2.50679e-10
2.50649e-10
2.50617e-10
2.50582e-10
2.50543e-10
2.50501e-10
2.50456e-10
2.50407e-10
2.50356e-10
2.503e-10
2.50242e-10
2.50179e-10
2.50114e-10
2.50045e-10
2.49973e-10
2.49897e-10
2.49819e-10
2.49739e-10
2.49659e-10
2.49582e-10
2.49508e-10
9.19917e-10
9.20194e-10
9.20486e-10
9.2079e-10
9.21092e-10
9.21387e-10
9.21672e-10
9.21945e-10
9.22205e-10
9.22453e-10
9.22688e-10
9.22909e-10
9.23118e-10
9.23314e-10
9.23497e-10
9.23668e-10
9.23826e-10
9.23971e-10
9.24105e-10
9.24227e-10
9.24337e-10
9.24436e-10
9.24523e-10
9.24599e-10
9.24664e-10
9.24718e-10
9.24761e-10
9.24793e-10
9.24814e-10
9.24825e-10
9.24825e-10
9.24814e-10
9.24793e-10
9.24761e-10
9.24718e-10
9.24664e-10
9.24599e-10
9.24523e-10
9.24436e-10
9.24337e-10
9.24227e-10
9.24105e-10
9.23971e-10
9.23826e-10
9.23668e-10
9.23497e-10
9.23314e-10
9.23118e-10
9.22909e-10
9.22688e-10
9.22453e-10
9.22205e-10
9.21945e-10
9.21672e-10
9.21387e-10
9.21092e-10
9.2079e-10
9.20486e-10
9.20194e-10
9.19917e-10
3.39812e-09
3.39916e-09
3.40026e-09
3.4014e-09
3.40254e-09
3.40366e-09
3.40473e-09
3.40576e-09
3.40674e-09
3.40767e-09
3.40856e-09
3.40939e-09
3.41018e-09
3.41092e-09
3.41161e-09
3.41225e-09
3.41284e-09
3.41339e-09
3.4139e-09
3.41436e-09
3.41477e-09
3.41514e-09
3.41547e-09
3.41576e-09
3.416e-09
3.4162e-09
3.41637e-09
3.41649e-09
3.41657e-09
3.41661e-09
3.41661e-09
3.41657e-09
3.41649e-09
3.41637e-09
3.4162e-09
3.416e-09
3.41576e-09
3.41547e-09
3.41514e-09
3.41477e-09
3.41436e-09
3.4139e-09
3.41339e-09
3.41284e-09
3.41225e-09
3.41161e-09
3.41092e-09
3.41018e-09
3.40939e-09
3.40856e-09
3.40767e-09
3.40674e-09
3.40576e-09
3.40473e-09
3.40366e-09
3.40254e-09
3.4014e-09
3.40026e-09
3.39916e-09
3.39812e-09
1.25212e-08
1.2525e-08
1.25292e-08
1.25335e-08
1.25377e-08
1.25419e-08
1.25459e-08
1.25498e-08
1.25534e-08
1.25569e-08
1.25602e-08
1.25634e-08
1.25663e-08
1.25691e-08
1.25717e-08
1.25741e-08
1.25763e-08
1.25783e-08
1.25802e-08
1.25819e-08
1.25835e-08
1.25849e-08
1.25861e-08
1.25872e-08
1.25881e-08
1.25888e-08
1.25894e-08
1.25899e-08
1.25902e-08
1.25903e-08
1.25903e-08
1.25902e-08
1.25899e-08
1.25894e-08
1.25888e-08
1.25881e-08
1.25872e-08
1.25861e-08
1.25849e-08
1.25835e-08
1.25819e-08
1.25802e-08
1.25783e-08
1.25763e-08
1.25741e-08
1.25717e-08
1.25691e-08
1.25663e-08
1.25634e-08
1.25602e-08
1.25569e-08
1.25534e-08
1.25498e-08
1.25459e-08
1.25419e-08
1.25377e-08
1.25335e-08
1.25292e-08
1.2525e-08
1.25212e-08
4.57903e-08
4.58047e-08
4.582e-08
4.58358e-08
4.58516e-08
4.5867e-08
4.58819e-08
4.58961e-08
4.59097e-08
4.59226e-08
4.59349e-08
4.59464e-08
4.59573e-08
4.59675e-08
4.5977e-08
4.59859e-08
4.59941e-08
4.60017e-08
4.60086e-08
4.6015e-08
4.60207e-08
4.60258e-08
4.60304e-08
4.60343e-08
4.60377e-08
4.60405e-08
4.60427e-08
4.60444e-08
4.60455e-08
4.6046e-08
4.6046e-08
4.60455e-08
4.60444e-08
4.60427e-08
4.60405e-08
4.60377e-08
4.60343e-08
4.60304e-08
4.60258e-08
4.60207e-08
4.6015e-08
4.60086e-08
4.60017e-08
4.59941e-08
4.59859e-08
4.5977e-08
4.59675e-08
4.59573e-08
4.59464e-08
4.59349e-08
4.59226e-08
4.59097e-08
4.58961e-08
4.58819e-08
4.5867e-08
4.58516e-08
4.58358e-08
4.582e-08
4.58047e-08
4.57903e-08
1.65241e-07
1.65293e-07
1.65349e-07
1.65406e-07
1.65464e-07
1.6552e-07
1.65574e-07
1.65625e-07
1.65674e-07
1.65721e-07
1.65766e-07
1.65807e-07
1.65847e-07
1.65884e-07
1.65918e-07
1.65951e-07
1.6598e-07
1.66008e-07
1.66033e-07
1.66056e-07
1.66077e-07
1.66095e-07
1.66112e-07
1.66126e-07
1.66138e-07
1.66148e-07
1.66156e-07
1.66163e-07
1.66167e-07
1.66169e-07
1.66169e-07
1.66167e-07
1.66163e-07
1.66156e-07
1.66148e-07
1.66138e-07
1.66126e-07
1.66112e-07
1.66095e-07
1.66077e-07
1.66056e-07
1.66033e-07
1.66008e-07
1.6598e-07
1.65951e-07
1.65918e-07
1.65884e-07
1.65847e-07
1.65807e-07
1.65766e-07
1.65721e-07
1.65674e-07
1.65625e-07
1.65574e-07
1.6552e-07
1.65464e-07
1.65406e-07
1.65349e-07
1.65293e-07
1.65241e-07
5.84552e-07
5.84736e-07
5.84933e-07
5.85137e-07
5.85339e-07
5.85537e-07
5.85727e-07
5.8591e-07
5.86084e-07
5.86249e-07
5.86406e-07
5.86554e-07
5.86693e-07
5.86823e-07
5.86945e-07
5.87059e-07
5.87164e-07
5.87261e-07
5.8735e-07
5.87431e-07
5.87504e-07
5.8757e-07
5.87628e-07
5.87678e-07
5.87721e-07
5.87757e-07
5.87786e-07
5.87807e-07
5.87821e-07
5.87828e-07
5.87828e-07
5.87821e-07
5.87807e-07
5.87786e-07
5.87757e-07
5.87721e-07
5.87678e-07
5.87628e-07
5.8757e-07
5.87504e-07
5.87431e-07
5.8735e-07
5.87261e-07
5.87164e-07
5.87059e-07
5.86945e-07
5.86823e-07
5.86693e-07
5.86554e-07
5.86406e-07
5.86249e-07
5.86084e-07
5.8591e-07
5.85727e-07
5.85537e-07
5.85339e-07
5.85137e-07
5.84933e-07
5.84736e-07
5.84552e-07
2.0121e-06
2.01273e-06
2.01341e-06
2.0141e-06
2.0148e-06
2.01547e-06
2.01612e-06
2.01674e-06
2.01734e-06
2.0179e-06
2.01844e-06
2.01894e-06
2.01942e-06
2.01986e-06
2.02028e-06
2.02066e-06
2.02102e-06
2.02135e-06
2.02166e-06
2.02193e-06
2.02218e-06
2.02241e-06
2.0226e-06
2.02278e-06
2.02292e-06
2.02304e-06
2.02314e-06
2.02321e-06
2.02326e-06
2.02329e-06
2.02329e-06
2.02326e-06
2.02321e-06
2.02314e-06
2.02304e-06
2.02292e-06
2.02278e-06
2.0226e-06
2.02241e-06
2.02218e-06
2.02193e-06
2.02166e-06
2.02135e-06
2.02102e-06
2.02066e-06
2.02028e-06
2.01986e-06
2.01942e-06
2.01894e-06
2.01844e-06
2.0179e-06
2.01734e-06
2.01674e-06
2.01612e-06
2.01547e-06
2.0148e-06
2.0141e-06
2.01341e-06
2.01273e-06
2.0121e-06
6.6825e-06
6.68456e-06
6.68677e-06
6.68905e-06
6.69131e-06
6.69352e-06
6.69564e-06
6.69767e-06
6.69961e-06
6.70145e-06
6.70319e-06
6.70484e-06
6.70639e-06
6.70784e-06
6.7092e-06
6.71046e-06
6.71163e-06
6.71271e-06
6.7137e-06
6.7146e-06
6.71541e-06
6.71614e-06
6.71678e-06
6.71734e-06
6.71782e-06
6.71822e-06
6.71854e-06
6.71878e-06
6.71893e-06
6.71901e-06
6.71901e-06
6.71893e-06
6.71878e-06
6.71854e-06
6.71822e-06
6.71782e-06
6.71734e-06
6.71678e-06
6.71614e-06
6.71541e-06
6.7146e-06
6.7137e-06
6.71271e-06
6.71163e-06
6.71046e-06
6.7092e-06
6.70784e-06
6.70639e-06
6.70484e-06
6.70319e-06
6.70145e-06
6.69961e-06
6.69767e-06
6.69564e-06
6.69352e-06
6.69131e-06
6.68905e-06
6.68677e-06
6.68456e-06
6.6825e-06
2.12108e-05
2.12172e-05
2.12241e-05
2.12311e-05
2.12381e-05
2.12449e-05
2.12515e-05
2.12577e-05
2.12637e-05
2.12694e-05
2.12748e-05
2.12799e-05
2.12846e-05
2.12891e-05
2.12933e-05
2.12972e-05
2.13008e-05
2.13041e-05
2.13072e-05
2.131e-05
2.13125e-05
2.13147e-05
2.13167e-05
2.13184e-05
2.13199e-05
2.13211e-05
2.13221e-05
2.13229e-05
2.13233e-05
2.13236e-05
2.13236e-05
2.13233e-05
2.13229e-05
2.13221e-05
2.13211e-05
2.13199e-05
2.13184e-05
2.13167e-05
2.13147e-05
2.13125e-05
2.131e-05
2.13072e-05
2.13041e-05
2.13008e-05
2.12972e-05
2.12933e-05
2.12891e-05
2.12846e-05
2.12799e-05
2.12748e-05
2.12694e-05
2.12637e-05
2.12577e-05
2.12515e-05
2.12449e-05
2.12381e-05
2.12311e-05
2.12241e-05
2.12172e-05
2.12108e-05
6.36595e-05
6.36782e-05
6.3698e-05
6.37184e-05
6.37386e-05
6.37582e-05
6.37771e-05
6.37952e-05
6.38124e-05
6.38288e-05
6.38443e-05
6.38589e-05
6.38727e-05
6.38856e-05
6.38977e-05
6.39089e-05
6.39193e-05
6.39289e-05
6.39377e-05
6.39457e-05
6.39529e-05
6.39594e-05
6.39651e-05
6.39701e-05
6.39743e-05
6.39778e-05
6.39807e-05
6.39828e-05
6.39842e-05
6.39849e-05
6.39849e-05
6.39842e-05
6.39828e-05
6.39807e-05
6.39778e-05
6.39743e-05
6.39701e-05
6.39651e-05
6.39594e-05
6.39529e-05
6.39457e-05
6.39377e-05
6.39289e-05
6.39193e-05
6.39089e-05
6.38977e-05