/*--------------------------------*- C++ -*----------------------------------*\
| =========                 |                                                 |
| \\      /  F ield         | foam-extend: Open Source CFD                    |
|  \\    /   O peration     | Version:     4.0                                |
|   \\  /    A nd           | Web:         http://www.foam-extend.org         |
|    \\/     M anipulation  |                                                 |
\*---------------------------------------------------------------------------*/
FoamFile
{
    version     2.0;
    format      ascii;
    class       volScalarField;
    location    "1830";
    object      cMinus;
}
// * * * * * * * * * * * * * * * * * * * * * * * * * * * * * * * * * * * * * //

dimensions      [0 0 0 0 0 0 0];

internalField   nonuniform List<scalar> 
6960
(
7.73647e-24
7.73744e-24
7.73775e-24
7.73791e-24
7.73803e-24
7.73814e-24
7.73826e-24
7.73837e-24
7.73849e-24
7.73862e-24
7.73874e-24
7.73886e-24
7.73899e-24
7.73911e-24
7.73922e-24
7.73934e-24
7.73945e-24
7.73955e-24
7.73964e-24
7.73973e-24
7.73982e-24
7.73989e-24
7.73996e-24
7.74002e-24
7.74007e-24
7.74012e-24
7.74015e-24
7.74018e-24
7.74019e-24
7.7402e-24
7.7402e-24
7.74019e-24
7.74018e-24
7.74015e-24
7.74012e-24
7.74007e-24
7.74002e-24
7.73996e-24
7.73989e-24
7.73982e-24
7.73973e-24
7.73964e-24
7.73955e-24
7.73945e-24
7.73934e-24
7.73922e-24
7.73911e-24
7.73899e-24
7.73886e-24
7.73874e-24
7.73862e-24
7.73849e-24
7.73837e-24
7.73826e-24
7.73814e-24
7.73803e-24
7.73791e-24
7.73775e-24
7.73744e-24
7.73647e-24
2.12284e-23
2.12312e-23
2.12321e-23
2.12327e-23
2.12332e-23
2.12336e-23
2.12341e-23
2.12345e-23
2.12349e-23
2.12354e-23
2.12358e-23
2.12363e-23
2.12367e-23
2.12371e-23
2.12375e-23
2.12379e-23
2.12383e-23
2.12386e-23
2.12389e-23
2.12392e-23
2.12395e-23
2.12398e-23
2.124e-23
2.12402e-23
2.12404e-23
2.12405e-23
2.12406e-23
2.12407e-23
2.12408e-23
2.12408e-23
2.12408e-23
2.12408e-23
2.12407e-23
2.12406e-23
2.12405e-23
2.12404e-23
2.12402e-23
2.124e-23
2.12398e-23
2.12395e-23
2.12392e-23
2.12389e-23
2.12386e-23
2.12383e-23
2.12379e-23
2.12375e-23
2.12371e-23
2.12367e-23
2.12363e-23
2.12358e-23
2.12354e-23
2.12349e-23
2.12345e-23
2.12341e-23
2.12336e-23
2.12332e-23
2.12327e-23
2.12321e-23
2.12312e-23
2.12284e-23
5.04235e-23
5.04302e-23
5.04329e-23
5.04347e-23
5.04362e-23
5.04377e-23
5.04391e-23
5.04405e-23
5.04419e-23
5.04433e-23
5.04447e-23
5.0446e-23
5.04473e-23
5.04486e-23
5.04498e-23
5.04509e-23
5.0452e-23
5.0453e-23
5.04539e-23
5.04548e-23
5.04556e-23
5.04563e-23
5.04569e-23
5.04575e-23
5.0458e-23
5.04584e-23
5.04587e-23
5.0459e-23
5.04591e-23
5.04592e-23
5.04592e-23
5.04591e-23
5.0459e-23
5.04587e-23
5.04584e-23
5.0458e-23
5.04575e-23
5.04569e-23
5.04563e-23
5.04556e-23
5.04548e-23
5.04539e-23
5.0453e-23
5.0452e-23
5.04509e-23
5.04498e-23
5.04486e-23
5.04473e-23
5.0446e-23
5.04447e-23
5.04433e-23
5.04419e-23
5.04405e-23
5.04391e-23
5.04377e-23
5.04362e-23
5.04347e-23
5.04329e-23
5.04302e-23
5.04235e-23
1.13992e-22
1.14008e-22
1.14015e-22
1.1402e-22
1.14025e-22
1.14029e-22
1.14033e-22
1.14037e-22
1.14042e-22
1.14046e-22
1.14049e-22
1.14053e-22
1.14057e-22
1.1406e-22
1.14064e-22
1.14067e-22
1.1407e-22
1.14073e-22
1.14075e-22
1.14077e-22
1.1408e-22
1.14082e-22
1.14083e-22
1.14085e-22
1.14086e-22
1.14087e-22
1.14088e-22
1.14089e-22
1.14089e-22
1.14089e-22
1.14089e-22
1.14089e-22
1.14089e-22
1.14088e-22
1.14087e-22
1.14086e-22
1.14085e-22
1.14083e-22
1.14082e-22
1.1408e-22
1.14077e-22
1.14075e-22
1.14073e-22
1.1407e-22
1.14067e-22
1.14064e-22
1.1406e-22
1.14057e-22
1.14053e-22
1.14049e-22
1.14046e-22
1.14042e-22
1.14037e-22
1.14033e-22
1.14029e-22
1.14025e-22
1.1402e-22
1.14015e-22
1.14008e-22
1.13992e-22
2.54716e-22
2.54754e-22
2.54772e-22
2.54786e-22
2.54799e-22
2.54811e-22
2.54823e-22
2.54835e-22
2.54846e-22
2.54857e-22
2.54868e-22
2.54879e-22
2.54889e-22
2.54898e-22
2.54907e-22
2.54916e-22
2.54923e-22
2.54931e-22
2.54938e-22
2.54944e-22
2.5495e-22
2.54955e-22
2.5496e-22
2.54964e-22
2.54967e-22
2.5497e-22
2.54972e-22
2.54974e-22
2.54975e-22
2.54976e-22
2.54976e-22
2.54975e-22
2.54974e-22
2.54972e-22
2.5497e-22
2.54967e-22
2.54964e-22
2.5496e-22
2.54955e-22
2.5495e-22
2.54944e-22
2.54938e-22
2.54931e-22
2.54923e-22
2.54916e-22
2.54907e-22
2.54898e-22
2.54889e-22
2.54879e-22
2.54868e-22
2.54857e-22
2.54846e-22
2.54835e-22
2.54823e-22
2.54811e-22
2.54799e-22
2.54786e-22
2.54772e-22
2.54754e-22
2.54716e-22
5.7229e-22
5.7238e-22
5.72427e-22
5.72465e-22
5.72501e-22
5.72535e-22
5.72568e-22
5.726e-22
5.72632e-22
5.72662e-22
5.72691e-22
5.72719e-22
5.72746e-22
5.72771e-22
5.72795e-22
5.72817e-22
5.72839e-22
5.72858e-22
5.72876e-22
5.72893e-22
5.72908e-22
5.72922e-22
5.72934e-22
5.72945e-22
5.72954e-22
5.72961e-22
5.72967e-22
5.72972e-22
5.72975e-22
5.72976e-22
5.72976e-22
5.72975e-22
5.72972e-22
5.72967e-22
5.72961e-22
5.72954e-22
5.72945e-22
5.72934e-22
5.72922e-22
5.72908e-22
5.72893e-22
5.72876e-22
5.72858e-22
5.72839e-22
5.72817e-22
5.72795e-22
5.72771e-22
5.72746e-22
5.72719e-22
5.72691e-22
5.72662e-22
5.72632e-22
5.726e-22
5.72568e-22
5.72535e-22
5.72501e-22
5.72465e-22
5.72427e-22
5.7238e-22
5.7229e-22
1.30352e-21
1.30374e-21
1.30386e-21
1.30396e-21
1.30405e-21
1.30415e-21
1.30424e-21
1.30433e-21
1.30441e-21
1.30449e-21
1.30457e-21
1.30464e-21
1.30472e-21
1.30478e-21
1.30485e-21
1.30491e-21
1.30496e-21
1.30501e-21
1.30506e-21
1.30511e-21
1.30515e-21
1.30518e-21
1.30521e-21
1.30524e-21
1.30527e-21
1.30529e-21
1.3053e-21
1.30531e-21
1.30532e-21
1.30532e-21
1.30532e-21
1.30532e-21
1.30531e-21
1.3053e-21
1.30529e-21
1.30527e-21
1.30524e-21
1.30521e-21
1.30518e-21
1.30515e-21
1.30511e-21
1.30506e-21
1.30501e-21
1.30496e-21
1.30491e-21
1.30485e-21
1.30478e-21
1.30472e-21
1.30464e-21
1.30457e-21
1.30449e-21
1.30441e-21
1.30433e-21
1.30424e-21
1.30415e-21
1.30405e-21
1.30396e-21
1.30386e-21
1.30374e-21
1.30352e-21
3.02217e-21
3.0227e-21
3.02302e-21
3.02329e-21
3.02355e-21
3.0238e-21
3.02405e-21
3.02429e-21
3.02451e-21
3.02473e-21
3.02494e-21
3.02514e-21
3.02533e-21
3.02551e-21
3.02568e-21
3.02584e-21
3.02599e-21
3.02613e-21
3.02626e-21
3.02637e-21
3.02648e-21
3.02657e-21
3.02666e-21
3.02673e-21
3.02679e-21
3.02684e-21
3.02689e-21
3.02692e-21
3.02694e-21
3.02695e-21
3.02695e-21
3.02694e-21
3.02692e-21
3.02689e-21
3.02684e-21
3.02679e-21
3.02673e-21
3.02666e-21
3.02657e-21
3.02648e-21
3.02637e-21
3.02626e-21
3.02613e-21
3.02599e-21
3.02584e-21
3.02568e-21
3.02551e-21
3.02533e-21
3.02514e-21
3.02494e-21
3.02473e-21
3.02451e-21
3.02429e-21
3.02405e-21
3.0238e-21
3.02355e-21
3.02329e-21
3.02302e-21
3.0227e-21
3.02217e-21
7.14706e-21
7.14838e-21
7.1492e-21
7.14994e-21
7.15065e-21
7.15134e-21
7.152e-21
7.15265e-21
7.15326e-21
7.15386e-21
7.15442e-21
7.15496e-21
7.15547e-21
7.15596e-21
7.15641e-21
7.15684e-21
7.15723e-21
7.1576e-21
7.15794e-21
7.15825e-21
7.15853e-21
7.15878e-21
7.159e-21
7.1592e-21
7.15936e-21
7.1595e-21
7.15961e-21
7.1597e-21
7.15975e-21
7.15978e-21
7.15978e-21
7.15975e-21
7.1597e-21
7.15961e-21
7.1595e-21
7.15936e-21
7.1592e-21
7.159e-21
7.15878e-21
7.15853e-21
7.15825e-21
7.15794e-21
7.1576e-21
7.15723e-21
7.15684e-21
7.15641e-21
7.15596e-21
7.15547e-21
7.15496e-21
7.15442e-21
7.15386e-21
7.15326e-21
7.15265e-21
7.152e-21
7.15134e-21
7.15065e-21
7.14994e-21
7.1492e-21
7.14838e-21
7.14706e-21
1.72598e-20
1.72631e-20
1.72653e-20
1.72674e-20
1.72693e-20
1.72712e-20
1.7273e-20
1.72747e-20
1.72764e-20
1.7278e-20
1.72796e-20
1.72811e-20
1.72824e-20
1.72837e-20
1.7285e-20
1.72861e-20
1.72872e-20
1.72882e-20
1.72891e-20
1.72899e-20
1.72907e-20
1.72914e-20
1.7292e-20
1.72925e-20
1.72929e-20
1.72933e-20
1.72936e-20
1.72938e-20
1.7294e-20
1.72941e-20
1.72941e-20
1.7294e-20
1.72938e-20
1.72936e-20
1.72933e-20
1.72929e-20
1.72925e-20
1.7292e-20
1.72914e-20
1.72907e-20
1.72899e-20
1.72891e-20
1.72882e-20
1.72872e-20
1.72861e-20
1.7285e-20
1.72837e-20
1.72824e-20
1.72811e-20
1.72796e-20
1.7278e-20
1.72764e-20
1.72747e-20
1.7273e-20
1.72712e-20
1.72693e-20
1.72674e-20
1.72653e-20
1.72631e-20
1.72598e-20
4.25934e-20
4.2602e-20
4.2608e-20
4.26135e-20
4.26189e-20
4.26241e-20
4.26291e-20
4.26339e-20
4.26386e-20
4.2643e-20
4.26473e-20
4.26513e-20
4.26551e-20
4.26587e-20
4.2662e-20
4.26652e-20
4.26681e-20
4.26708e-20
4.26733e-20
4.26756e-20
4.26777e-20
4.26795e-20
4.26811e-20
4.26826e-20
4.26838e-20
4.26848e-20
4.26856e-20
4.26862e-20
4.26866e-20
4.26868e-20
4.26868e-20
4.26866e-20
4.26862e-20
4.26856e-20
4.26848e-20
4.26838e-20
4.26826e-20
4.26811e-20
4.26795e-20
4.26777e-20
4.26756e-20
4.26733e-20
4.26708e-20
4.26681e-20
4.26652e-20
4.2662e-20
4.26587e-20
4.26551e-20
4.26513e-20
4.26473e-20
4.2643e-20
4.26386e-20
4.26339e-20
4.26291e-20
4.26241e-20
4.26189e-20
4.26135e-20
4.2608e-20
4.2602e-20
4.25934e-20
1.0746e-19
1.07483e-19
1.07499e-19
1.07515e-19
1.0753e-19
1.07544e-19
1.07558e-19
1.07572e-19
1.07585e-19
1.07597e-19
1.07609e-19
1.0762e-19
1.07631e-19
1.07641e-19
1.0765e-19
1.07659e-19
1.07667e-19
1.07674e-19
1.07681e-19
1.07688e-19
1.07693e-19
1.07698e-19
1.07703e-19
1.07707e-19
1.0771e-19
1.07713e-19
1.07715e-19
1.07717e-19
1.07718e-19
1.07719e-19
1.07719e-19
1.07718e-19
1.07717e-19
1.07715e-19
1.07713e-19
1.0771e-19
1.07707e-19
1.07703e-19
1.07698e-19
1.07693e-19
1.07688e-19
1.07681e-19
1.07674e-19
1.07667e-19
1.07659e-19
1.0765e-19
1.07641e-19
1.07631e-19
1.0762e-19
1.07609e-19
1.07597e-19
1.07585e-19
1.07572e-19
1.07558e-19
1.07544e-19
1.0753e-19
1.07515e-19
1.07499e-19
1.07483e-19
1.0746e-19
2.77267e-19
2.77329e-19
2.77375e-19
2.77418e-19
2.77461e-19
2.77502e-19
2.77542e-19
2.77581e-19
2.77618e-19
2.77653e-19
2.77686e-19
2.77718e-19
2.77748e-19
2.77776e-19
2.77802e-19
2.77827e-19
2.7785e-19
2.77871e-19
2.7789e-19
2.77908e-19
2.77924e-19
2.77939e-19
2.77951e-19
2.77962e-19
2.77972e-19
2.7798e-19
2.77986e-19
2.77991e-19
2.77994e-19
2.77995e-19
2.77995e-19
2.77994e-19
2.77991e-19
2.77986e-19
2.7798e-19
2.77972e-19
2.77962e-19
2.77951e-19
2.77939e-19
2.77924e-19
2.77908e-19
2.7789e-19
2.77871e-19
2.7785e-19
2.77827e-19
2.77802e-19
2.77776e-19
2.77748e-19
2.77718e-19
2.77686e-19
2.77653e-19
2.77618e-19
2.77581e-19
2.77542e-19
2.77502e-19
2.77461e-19
2.77418e-19
2.77375e-19
2.77329e-19
2.77267e-19
7.3184e-19
7.32009e-19
7.32139e-19
7.32265e-19
7.32388e-19
7.32507e-19
7.32622e-19
7.32733e-19
7.32839e-19
7.3294e-19
7.33037e-19
7.33128e-19
7.33214e-19
7.33295e-19
7.3337e-19
7.33441e-19
7.33507e-19
7.33567e-19
7.33623e-19
7.33674e-19
7.3372e-19
7.33761e-19
7.33797e-19
7.33829e-19
7.33856e-19
7.33879e-19
7.33897e-19
7.3391e-19
7.33919e-19
7.33924e-19
7.33924e-19
7.33919e-19
7.3391e-19
7.33897e-19
7.33879e-19
7.33856e-19
7.33829e-19
7.33797e-19
7.33761e-19
7.3372e-19
7.33674e-19
7.33623e-19
7.33567e-19
7.33507e-19
7.33441e-19
7.3337e-19
7.33295e-19
7.33214e-19
7.33128e-19
7.33037e-19
7.3294e-19
7.32839e-19
7.32733e-19
7.32622e-19
7.32507e-19
7.32388e-19
7.32265e-19
7.32139e-19
7.32009e-19
7.3184e-19
1.97647e-18
1.97694e-18
1.97732e-18
1.97769e-18
1.97805e-18
1.9784e-18
1.97874e-18
1.97906e-18
1.97937e-18
1.97967e-18
1.97995e-18
1.98022e-18
1.98047e-18
1.9807e-18
1.98093e-18
1.98113e-18
1.98132e-18
1.9815e-18
1.98166e-18
1.98181e-18
1.98195e-18
1.98207e-18
1.98217e-18
1.98226e-18
1.98234e-18
1.98241e-18
1.98246e-18
1.9825e-18
1.98253e-18
1.98254e-18
1.98254e-18
1.98253e-18
1.9825e-18
1.98246e-18
1.98241e-18
1.98234e-18
1.98226e-18
1.98217e-18
1.98207e-18
1.98195e-18
1.98181e-18
1.98166e-18
1.9815e-18
1.98132e-18
1.98113e-18
1.98093e-18
1.9807e-18
1.98047e-18
1.98022e-18
1.97995e-18
1.97967e-18
1.97937e-18
1.97906e-18
1.97874e-18
1.9784e-18
1.97805e-18
1.97769e-18
1.97732e-18
1.97694e-18
1.97647e-18
5.46244e-18
5.4638e-18
5.46492e-18
5.46601e-18
5.46709e-18
5.46813e-18
5.46915e-18
5.47012e-18
5.47104e-18
5.47193e-18
5.47277e-18
5.47356e-18
5.47431e-18
5.47502e-18
5.47567e-18
5.47629e-18
5.47686e-18
5.47738e-18
5.47787e-18
5.47831e-18
5.47871e-18
5.47906e-18
5.47938e-18
5.47965e-18
5.47989e-18
5.48008e-18
5.48024e-18
5.48035e-18
5.48043e-18
5.48047e-18
5.48047e-18
5.48043e-18
5.48035e-18
5.48024e-18
5.48008e-18
5.47989e-18
5.47965e-18
5.47938e-18
5.47906e-18
5.47871e-18
5.47831e-18
5.47787e-18
5.47738e-18
5.47686e-18
5.47629e-18
5.47567e-18
5.47502e-18
5.47431e-18
5.47356e-18
5.47277e-18
5.47193e-18
5.47104e-18
5.47012e-18
5.46915e-18
5.46813e-18
5.46709e-18
5.46601e-18
5.46492e-18
5.4638e-18
5.46244e-18
1.54507e-17
1.54547e-17
1.5458e-17
1.54613e-17
1.54646e-17
1.54678e-17
1.54709e-17
1.54738e-17
1.54767e-17
1.54793e-17
1.54819e-17
1.54843e-17
1.54866e-17
1.54887e-17
1.54907e-17
1.54926e-17
1.54943e-17
1.54959e-17
1.54974e-17
1.54987e-17
1.54999e-17
1.5501e-17
1.55019e-17
1.55028e-17
1.55035e-17
1.55041e-17
1.55045e-17
1.55049e-17
1.55051e-17
1.55052e-17
1.55052e-17
1.55051e-17
1.55049e-17
1.55045e-17
1.55041e-17
1.55035e-17
1.55028e-17
1.55019e-17
1.5501e-17
1.54999e-17
1.54987e-17
1.54974e-17
1.54959e-17
1.54943e-17
1.54926e-17
1.54907e-17
1.54887e-17
1.54866e-17
1.54843e-17
1.54819e-17
1.54793e-17
1.54767e-17
1.54738e-17
1.54709e-17
1.54678e-17
1.54646e-17
1.54613e-17
1.5458e-17
1.54547e-17
1.54507e-17
4.47281e-17
4.47402e-17
4.47505e-17
4.47608e-17
4.47709e-17
4.47808e-17
4.47904e-17
4.47995e-17
4.48083e-17
4.48166e-17
4.48245e-17
4.4832e-17
4.4839e-17
4.48456e-17
4.48518e-17
4.48576e-17
4.48629e-17
4.48678e-17
4.48724e-17
4.48765e-17
4.48802e-17
4.48835e-17
4.48865e-17
4.4889e-17
4.48912e-17
4.4893e-17
4.48945e-17
4.48956e-17
4.48963e-17
4.48967e-17
4.48967e-17
4.48963e-17
4.48956e-17
4.48945e-17
4.4893e-17
4.48912e-17
4.4889e-17
4.48865e-17
4.48835e-17
4.48802e-17
4.48765e-17
4.48724e-17
4.48678e-17
4.48629e-17
4.48576e-17
4.48518e-17
4.48456e-17
4.4839e-17
4.4832e-17
4.48245e-17
4.48166e-17
4.48083e-17
4.47995e-17
4.47904e-17
4.47808e-17
4.47709e-17
4.47608e-17
4.47505e-17
4.47402e-17
4.47281e-17
1.32514e-16
1.32551e-16
1.32584e-16
1.32616e-16
1.32648e-16
1.32679e-16
1.3271e-16
1.32739e-16
1.32766e-16
1.32793e-16
1.32818e-16
1.32841e-16
1.32863e-16
1.32884e-16
1.32904e-16
1.32922e-16
1.32939e-16
1.32954e-16
1.32968e-16
1.32981e-16
1.32993e-16
1.33004e-16
1.33013e-16
1.33021e-16
1.33028e-16
1.33034e-16
1.33038e-16
1.33042e-16
1.33044e-16
1.33045e-16
1.33045e-16
1.33044e-16
1.33042e-16
1.33038e-16
1.33034e-16
1.33028e-16
1.33021e-16
1.33013e-16
1.33004e-16
1.32993e-16
1.32981e-16
1.32968e-16
1.32954e-16
1.32939e-16
1.32922e-16
1.32904e-16
1.32884e-16
1.32863e-16
1.32841e-16
1.32818e-16
1.32793e-16
1.32766e-16
1.32739e-16
1.3271e-16
1.32679e-16
1.32648e-16
1.32616e-16
1.32584e-16
1.32551e-16
1.32514e-16
4.01722e-16
4.01838e-16
4.01942e-16
4.02046e-16
4.0215e-16
4.02251e-16
4.02348e-16
4.02441e-16
4.0253e-16
4.02615e-16
4.02696e-16
4.02771e-16
4.02843e-16
4.0291e-16
4.02973e-16
4.03031e-16
4.03085e-16
4.03135e-16
4.03181e-16
4.03223e-16
4.0326e-16
4.03294e-16
4.03324e-16
4.0335e-16
4.03372e-16
4.0339e-16
4.03405e-16
4.03416e-16
4.03423e-16
4.03427e-16
4.03427e-16
4.03423e-16
4.03416e-16
4.03405e-16
4.0339e-16
4.03372e-16
4.0335e-16
4.03324e-16
4.03294e-16
4.0326e-16
4.03223e-16
4.03181e-16
4.03135e-16
4.03085e-16
4.03031e-16
4.02973e-16
4.0291e-16
4.02843e-16
4.02771e-16
4.02696e-16
4.02615e-16
4.0253e-16
4.02441e-16
4.02348e-16
4.02251e-16
4.0215e-16
4.02046e-16
4.01942e-16
4.01838e-16
4.01722e-16
1.24582e-15
1.24619e-15
1.24653e-15
1.24687e-15
1.24721e-15
1.24754e-15
1.24786e-15
1.24817e-15
1.24846e-15
1.24874e-15
1.24901e-15
1.24926e-15
1.24949e-15
1.24971e-15
1.24992e-15
1.25011e-15
1.25029e-15
1.25045e-15
1.2506e-15
1.25074e-15
1.25086e-15
1.25097e-15
1.25107e-15
1.25115e-15
1.25123e-15
1.25129e-15
1.25133e-15
1.25137e-15
1.25139e-15
1.25141e-15
1.25141e-15
1.25139e-15
1.25137e-15
1.25133e-15
1.25129e-15
1.25123e-15
1.25115e-15
1.25107e-15
1.25097e-15
1.25086e-15
1.25074e-15
1.2506e-15
1.25045e-15
1.25029e-15
1.25011e-15
1.24992e-15
1.24971e-15
1.24949e-15
1.24926e-15
1.24901e-15
1.24874e-15
1.24846e-15
1.24817e-15
1.24786e-15
1.24754e-15
1.24721e-15
1.24687e-15
1.24653e-15
1.24619e-15
1.24582e-15
3.95075e-15
3.95196e-15
3.95309e-15
3.95424e-15
3.95538e-15
3.95649e-15
3.95757e-15
3.95859e-15
3.95958e-15
3.96051e-15
3.96139e-15
3.96223e-15
3.96301e-15
3.96375e-15
3.96444e-15
3.96508e-15
3.96567e-15
3.96622e-15
3.96672e-15
3.96718e-15
3.96759e-15
3.96796e-15
3.96829e-15
3.96857e-15
3.96881e-15
3.96902e-15
3.96918e-15
3.9693e-15
3.96938e-15
3.96942e-15
3.96942e-15
3.96938e-15
3.9693e-15
3.96918e-15
3.96902e-15
3.96881e-15
3.96857e-15
3.96829e-15
3.96796e-15
3.96759e-15
3.96718e-15
3.96672e-15
3.96622e-15
3.96567e-15
3.96508e-15
3.96444e-15
3.96375e-15
3.96301e-15
3.96223e-15
3.96139e-15
3.96051e-15
3.95958e-15
3.95859e-15
3.95757e-15
3.95649e-15
3.95538e-15
3.95424e-15
3.95309e-15
3.95196e-15
3.95075e-15
1.28045e-14
1.28086e-14
1.28124e-14
1.28163e-14
1.28202e-14
1.2824e-14
1.28277e-14
1.28312e-14
1.28346e-14
1.28377e-14
1.28408e-14
1.28436e-14
1.28463e-14
1.28488e-14
1.28511e-14
1.28533e-14
1.28554e-14
1.28572e-14
1.28589e-14
1.28605e-14
1.28619e-14
1.28631e-14
1.28643e-14
1.28652e-14
1.28661e-14
1.28667e-14
1.28673e-14
1.28677e-14
1.2868e-14
1.28681e-14
1.28681e-14
1.2868e-14
1.28677e-14
1.28673e-14
1.28667e-14
1.28661e-14
1.28652e-14
1.28643e-14
1.28631e-14
1.28619e-14
1.28605e-14
1.28589e-14
1.28572e-14
1.28554e-14
1.28533e-14
1.28511e-14
1.28488e-14
1.28463e-14
1.28436e-14
1.28408e-14
1.28377e-14
1.28346e-14
1.28312e-14
1.28277e-14
1.2824e-14
1.28202e-14
1.28163e-14
1.28124e-14
1.28086e-14
1.28045e-14
4.23834e-14
4.23972e-14
4.24105e-14
4.24241e-14
4.24377e-14
4.24509e-14
4.24637e-14
4.24759e-14
4.24875e-14
4.24986e-14
4.25091e-14
4.2519e-14
4.25283e-14
4.2537e-14
4.25451e-14
4.25527e-14
4.25598e-14
4.25662e-14
4.25722e-14
4.25776e-14
4.25825e-14
4.25868e-14
4.25907e-14
4.2594e-14
4.25969e-14
4.25993e-14
4.26012e-14
4.26026e-14
4.26035e-14
4.2604e-14
4.2604e-14
4.26035e-14
4.26026e-14
4.26012e-14
4.25993e-14
4.25969e-14
4.2594e-14
4.25907e-14
4.25868e-14
4.25825e-14
4.25776e-14
4.25722e-14
4.25662e-14
4.25598e-14
4.25527e-14
4.25451e-14
4.2537e-14
4.25283e-14
4.2519e-14
4.25091e-14
4.24986e-14
4.24875e-14
4.24759e-14
4.24637e-14
4.24509e-14
4.24377e-14
4.24241e-14
4.24105e-14
4.23972e-14
4.23834e-14
1.43146e-13
1.43194e-13
1.43241e-13
1.43289e-13
1.43337e-13
1.43384e-13
1.43429e-13
1.43472e-13
1.43513e-13
1.43552e-13
1.4359e-13
1.43625e-13
1.43657e-13
1.43688e-13
1.43717e-13
1.43744e-13
1.43769e-13
1.43792e-13
1.43813e-13
1.43832e-13
1.43849e-13
1.43864e-13
1.43878e-13
1.4389e-13
1.439e-13
1.43908e-13
1.43915e-13
1.4392e-13
1.43923e-13
1.43925e-13
1.43925e-13
1.43923e-13
1.4392e-13
1.43915e-13
1.43908e-13
1.439e-13
1.4389e-13
1.43878e-13
1.43864e-13
1.43849e-13
1.43832e-13
1.43813e-13
1.43792e-13
1.43769e-13
1.43744e-13
1.43717e-13
1.43688e-13
1.43657e-13
1.43625e-13
1.4359e-13
1.43552e-13
1.43513e-13
1.43472e-13
1.43429e-13
1.43384e-13
1.43337e-13
1.43289e-13
1.43241e-13
1.43194e-13
1.43146e-13
4.92738e-13
4.92907e-13
4.93076e-13
4.9325e-13
4.93422e-13
4.9359e-13
4.93752e-13
4.93908e-13
4.94056e-13
4.94197e-13
4.9433e-13
4.94456e-13
4.94574e-13
4.94684e-13
4.94788e-13
4.94884e-13
4.94973e-13
4.95055e-13
4.95131e-13
4.95199e-13
4.95261e-13
4.95316e-13
4.95365e-13
4.95408e-13
4.95444e-13
4.95474e-13
4.95498e-13
4.95516e-13
4.95528e-13
4.95534e-13
4.95534e-13
4.95528e-13
4.95516e-13
4.95498e-13
4.95474e-13
4.95444e-13
4.95408e-13
4.95365e-13
4.95316e-13
4.95261e-13
4.95199e-13
4.95131e-13
4.95055e-13
4.94973e-13
4.94884e-13
4.94788e-13
4.94684e-13
4.94574e-13
4.94456e-13
4.9433e-13
4.94197e-13
4.94056e-13
4.93908e-13
4.93752e-13
4.9359e-13
4.93422e-13
4.9325e-13
4.93076e-13
4.92907e-13
4.92738e-13
1.72622e-12
1.72683e-12
1.72744e-12
1.72807e-12
1.7287e-12
1.72932e-12
1.72991e-12
1.73048e-12
1.73102e-12
1.73153e-12
1.73201e-12
1.73247e-12
1.7329e-12
1.73331e-12
1.73368e-12
1.73404e-12
1.73436e-12
1.73466e-12
1.73493e-12
1.73518e-12
1.73541e-12
1.73561e-12
1.73579e-12
1.73594e-12
1.73607e-12
1.73618e-12
1.73627e-12
1.73634e-12
1.73638e-12
1.7364e-12
1.7364e-12
1.73638e-12
1.73634e-12
1.73627e-12
1.73618e-12
1.73607e-12
1.73594e-12
1.73579e-12
1.73561e-12
1.73541e-12
1.73518e-12
1.73493e-12
1.73466e-12
1.73436e-12
1.73404e-12
1.73368e-12
1.73331e-12
1.7329e-12
1.73247e-12
1.73201e-12
1.73153e-12
1.73102e-12
1.73048e-12
1.72991e-12
1.72932e-12
1.7287e-12
1.72807e-12
1.72744e-12
1.72683e-12
1.72622e-12
6.14433e-12
6.14655e-12
6.14882e-12
6.15116e-12
6.15349e-12
6.15576e-12
6.15795e-12
6.16004e-12
6.16204e-12
6.16393e-12
6.16573e-12
6.16742e-12
6.16901e-12
6.17051e-12
6.1719e-12
6.17319e-12
6.17439e-12
6.1755e-12
6.17651e-12
6.17743e-12
6.17826e-12
6.179e-12
6.17966e-12
6.18023e-12
6.18072e-12
6.18112e-12
6.18144e-12
6.18169e-12
6.18185e-12
6.18193e-12
6.18193e-12
6.18185e-12
6.18169e-12
6.18144e-12
6.18112e-12
6.18072e-12
6.18023e-12
6.17966e-12
6.179e-12
6.17826e-12
6.17743e-12
6.17651e-12
6.1755e-12
6.17439e-12
6.17319e-12
6.1719e-12
6.17051e-12
6.16901e-12
6.16742e-12
6.16573e-12
6.16393e-12
6.16204e-12
6.16004e-12
6.15795e-12
6.15576e-12
6.15349e-12
6.15116e-12
6.14882e-12
6.14655e-12
6.14433e-12
2.2175e-11
2.21832e-11
2.21917e-11
2.22004e-11
2.22091e-11
2.22176e-11
2.22258e-11
2.22336e-11
2.22411e-11
2.22481e-11
2.22548e-11
2.22612e-11
2.22671e-11
2.22727e-11
2.22779e-11
2.22827e-11
2.22872e-11
2.22913e-11
2.22951e-11
2.22985e-11
2.23016e-11
2.23044e-11
2.23068e-11
2.2309e-11
2.23108e-11
2.23123e-11
2.23135e-11
2.23144e-11
2.2315e-11
2.23153e-11
2.23153e-11
2.2315e-11
2.23144e-11
2.23135e-11
2.23123e-11
2.23108e-11
2.2309e-11
2.23068e-11
2.23044e-11
2.23016e-11
2.22985e-11
2.22951e-11
2.22913e-11
2.22872e-11
2.22827e-11
2.22779e-11
2.22727e-11
2.22671e-11
2.22612e-11
2.22548e-11
2.22481e-11
2.22411e-11
2.22336e-11
2.22258e-11
2.22176e-11
2.22091e-11
2.22004e-11
2.21917e-11
2.21832e-11
2.2175e-11
8.09475e-11
8.09782e-11
8.101e-11
8.10429e-11
8.10757e-11
8.11077e-11
8.11385e-11
8.1168e-11
8.11961e-11
8.12227e-11
8.1248e-11
8.12718e-11
8.12941e-11
8.13151e-11
8.13346e-11
8.13528e-11
8.13697e-11
8.13852e-11
8.13994e-11
8.14123e-11
8.14239e-11
8.14344e-11
8.14436e-11
8.14516e-11
8.14584e-11
8.14641e-11
8.14686e-11
8.1472e-11
8.14742e-11
8.14754e-11
8.14754e-11
8.14742e-11
8.1472e-11
8.14686e-11
8.14641e-11
8.14584e-11
8.14516e-11
8.14436e-11
8.14344e-11
8.14239e-11
8.14123e-11
8.13994e-11
8.13852e-11
8.13697e-11
8.13528e-11
8.13346e-11
8.13151e-11
8.12941e-11
8.12718e-11
8.1248e-11
8.12227e-11
8.11961e-11
8.1168e-11
8.11385e-11
8.11077e-11
8.10757e-11
8.10429e-11
8.101e-11
8.09782e-11
8.09475e-11
2.98021e-10
2.98136e-10
2.98257e-10
2.98381e-10
2.98505e-10
2.98627e-10
2.98743e-10
2.98855e-10
2.98961e-10
2.99062e-10
2.99158e-10
2.99248e-10
2.99332e-10
2.99411e-10
2.99485e-10
2.99554e-10
2.99618e-10
2.99676e-10
2.9973e-10
2.99779e-10
2.99823e-10
2.99862e-10
2.99897e-10
2.99928e-10
2.99953e-10
2.99975e-10
2.99992e-10
3.00005e-10
3.00013e-10
3.00017e-10
3.00017e-10
3.00013e-10
3.00005e-10
2.99992e-10
2.99975e-10
2.99953e-10
2.99928e-10
2.99897e-10
2.99862e-10
2.99823e-10
2.99779e-10
2.9973e-10
2.99676e-10
2.99618e-10
2.99554e-10
2.99485e-10
2.99411e-10
2.99332e-10
2.99248e-10
2.99158e-10
2.99062e-10
2.98961e-10
2.98855e-10
2.98743e-10
2.98627e-10
2.98505e-10
2.98381e-10
2.98257e-10
2.98136e-10
2.98021e-10
1.10289e-09
1.10333e-09
1.10378e-09
1.10426e-09
1.10473e-09
1.10519e-09
1.10563e-09
1.10605e-09
1.10646e-09
1.10684e-09
1.1072e-09
1.10754e-09
1.10786e-09
1.10816e-09
1.10844e-09
1.1087e-09
1.10894e-09
1.10916e-09
1.10937e-09
1.10955e-09
1.10972e-09
1.10987e-09
1.11e-09
1.11012e-09
1.11021e-09
1.11029e-09
1.11036e-09
1.11041e-09
1.11044e-09
1.11046e-09
1.11046e-09
1.11044e-09
1.11041e-09
1.11036e-09
1.11029e-09
1.11021e-09
1.11012e-09
1.11e-09
1.10987e-09
1.10972e-09
1.10955e-09
1.10937e-09
1.10916e-09
1.10894e-09
1.1087e-09
1.10844e-09
1.10816e-09
1.10786e-09
1.10754e-09
1.1072e-09
1.10684e-09
1.10646e-09
1.10605e-09
1.10563e-09
1.10519e-09
1.10473e-09
1.10426e-09
1.10378e-09
1.10333e-09
1.10289e-09
4.08665e-09
4.08828e-09
4.09e-09
4.09179e-09
4.09357e-09
4.09531e-09
4.09698e-09
4.09858e-09
4.1001e-09
4.10155e-09
4.10291e-09
4.1042e-09
4.10541e-09
4.10655e-09
4.10761e-09
4.10859e-09
4.1095e-09
4.11034e-09
4.1111e-09
4.1118e-09
4.11243e-09
4.113e-09
4.11349e-09
4.11393e-09
4.11429e-09
4.1146e-09
4.11484e-09
4.11503e-09
4.11515e-09
4.11521e-09
4.11521e-09
4.11515e-09
4.11503e-09
4.11484e-09
4.1146e-09
4.11429e-09
4.11393e-09
4.11349e-09
4.113e-09
4.11243e-09
4.1118e-09
4.1111e-09
4.11034e-09
4.1095e-09
4.10859e-09
4.10761e-09
4.10655e-09
4.10541e-09
4.1042e-09
4.10291e-09
4.10155e-09
4.1001e-09
4.09858e-09
4.09698e-09
4.09531e-09
4.09357e-09
4.09179e-09
4.09e-09
4.08828e-09
4.08665e-09
1.50934e-08
1.50995e-08
1.5106e-08
1.51127e-08
1.51194e-08
1.51259e-08
1.51322e-08
1.51382e-08
1.51439e-08
1.51493e-08
1.51544e-08
1.51592e-08
1.51638e-08
1.5168e-08
1.5172e-08
1.51757e-08
1.51791e-08
1.51822e-08
1.51851e-08
1.51877e-08
1.51901e-08
1.51922e-08
1.5194e-08
1.51957e-08
1.5197e-08
1.51982e-08
1.51991e-08
1.51998e-08
1.52002e-08
1.52005e-08
1.52005e-08
1.52002e-08
1.51998e-08
1.51991e-08
1.51982e-08
1.5197e-08
1.51957e-08
1.5194e-08
1.51922e-08
1.51901e-08
1.51877e-08
1.51851e-08
1.51822e-08
1.51791e-08
1.51757e-08
1.5172e-08
1.5168e-08
1.51638e-08
1.51592e-08
1.51544e-08
1.51493e-08
1.51439e-08
1.51382e-08
1.51322e-08
1.51259e-08
1.51194e-08
1.51127e-08
1.5106e-08
1.50995e-08
1.50934e-08
5.52769e-08
5.52994e-08
5.53235e-08
5.53484e-08
5.53731e-08
5.53972e-08
5.54204e-08
5.54426e-08
5.54637e-08
5.54837e-08
5.55027e-08
5.55205e-08
5.55373e-08
5.5553e-08
5.55677e-08
5.55813e-08
5.55939e-08
5.56055e-08
5.56161e-08
5.56258e-08
5.56345e-08
5.56423e-08
5.56492e-08
5.56552e-08
5.56603e-08
5.56645e-08
5.56679e-08
5.56704e-08
5.56721e-08
5.56729e-08
5.56729e-08
5.56721e-08
5.56704e-08
5.56679e-08
5.56645e-08
5.56603e-08
5.56552e-08
5.56492e-08
5.56423e-08
5.56345e-08
5.56258e-08
5.56161e-08
5.56055e-08
5.55939e-08
5.55813e-08
5.55677e-08
5.5553e-08
5.55373e-08
5.55205e-08
5.55027e-08
5.54837e-08
5.54637e-08
5.54426e-08
5.54204e-08
5.53972e-08
5.53731e-08
5.53484e-08
5.53235e-08
5.52994e-08
5.52769e-08
1.99557e-07
1.99638e-07
1.99726e-07
1.99816e-07
1.99906e-07
1.99993e-07
2.00077e-07
2.00158e-07
2.00234e-07
2.00307e-07
2.00376e-07
2.00441e-07
2.00501e-07
2.00558e-07
2.00611e-07
2.00661e-07
2.00706e-07
2.00748e-07
2.00787e-07
2.00822e-07
2.00853e-07
2.00882e-07
2.00907e-07
2.00928e-07
2.00947e-07
2.00962e-07
2.00974e-07
2.00983e-07
2.0099e-07
2.00993e-07
2.00993e-07
2.0099e-07
2.00983e-07
2.00974e-07
2.00962e-07
2.00947e-07
2.00928e-07
2.00907e-07
2.00882e-07
2.00853e-07
2.00822e-07
2.00787e-07
2.00748e-07
2.00706e-07
2.00661e-07
2.00611e-07
2.00558e-07
2.00501e-07
2.00441e-07
2.00376e-07
2.00307e-07
2.00234e-07
2.00158e-07
2.00077e-07
1.99993e-07
1.99906e-07
1.99816e-07
1.99726e-07
1.99638e-07
1.99557e-07
7.05394e-07
7.05682e-07
7.05991e-07
7.0631e-07
7.06627e-07
7.06935e-07
7.07232e-07
7.07516e-07
7.07786e-07
7.08042e-07
7.08284e-07
7.08512e-07
7.08727e-07
7.08927e-07
7.09114e-07
7.09288e-07
7.09449e-07
7.09597e-07
7.09733e-07
7.09856e-07
7.09967e-07
7.10067e-07
7.10155e-07
7.10231e-07
7.10296e-07
7.1035e-07
7.10393e-07
7.10425e-07
7.10447e-07
7.10458e-07
7.10458e-07
7.10447e-07
7.10425e-07
7.10393e-07
7.1035e-07
7.10296e-07
7.10231e-07
7.10155e-07
7.10067e-07
7.09967e-07
7.09856e-07
7.09733e-07
7.09597e-07
7.09449e-07
7.09288e-07
7.09114e-07
7.08927e-07
7.08727e-07
7.08512e-07
7.08284e-07
7.08042e-07
7.07786e-07
7.07516e-07
7.07232e-07
7.06935e-07
7.06627e-07
7.0631e-07
7.05991e-07
7.05682e-07
7.05394e-07
2.42284e-06
2.42383e-06
2.42488e-06
2.42597e-06
2.42705e-06
2.4281e-06
2.4291e-06
2.43007e-06
2.43099e-06
2.43186e-06
2.43268e-06
2.43346e-06
2.43419e-06
2.43487e-06
2.4355e-06
2.4361e-06
2.43664e-06
2.43715e-06
2.43761e-06
2.43803e-06
2.4384e-06
2.43874e-06
2.43904e-06
2.4393e-06
2.43952e-06
2.4397e-06
2.43985e-06
2.43996e-06
2.44003e-06
2.44007e-06
2.44007e-06
2.44003e-06
2.43996e-06
2.43985e-06
2.4397e-06
2.43952e-06
2.4393e-06
2.43904e-06
2.43874e-06
2.4384e-06
2.43803e-06
2.43761e-06
2.43715e-06
2.43664e-06
2.4361e-06
2.4355e-06
2.43487e-06
2.43419e-06
2.43346e-06
2.43268e-06
2.43186e-06
2.43099e-06
2.43007e-06
2.4291e-06
2.4281e-06
2.42705e-06
2.42597e-06
2.42488e-06
2.42383e-06
2.42284e-06
8.01682e-06
8.02003e-06
8.02347e-06
8.027e-06
8.03051e-06
8.03392e-06
8.03719e-06
8.04033e-06
8.04331e-06
8.04614e-06
8.04881e-06
8.05133e-06
8.05369e-06
8.0559e-06
8.05797e-06
8.05989e-06
8.06166e-06
8.06329e-06
8.06479e-06
8.06615e-06
8.06737e-06
8.06847e-06
8.06944e-06
8.07028e-06
8.071e-06
8.07159e-06
8.07207e-06
8.07242e-06
8.07266e-06
8.07277e-06
8.07277e-06
8.07266e-06
8.07242e-06
8.07207e-06
8.07159e-06
8.071e-06
8.07028e-06
8.06944e-06
8.06847e-06
8.06737e-06
8.06615e-06
8.06479e-06
8.06329e-06
8.06166e-06
8.05989e-06
8.05797e-06
8.0559e-06
8.05369e-06
8.05133e-06
8.04881e-06
8.04614e-06
8.04331e-06
8.04033e-06
8.03719e-06
8.03392e-06
8.03051e-06
8.027e-06
8.02347e-06
8.02003e-06
8.01682e-06
2.53069e-05
2.53168e-05
2.53274e-05
2.53383e-05
2.53491e-05
2.53595e-05
2.53696e-05
2.53792e-05
2.53883e-05
2.5397e-05
2.54051e-05
2.54129e-05
2.54201e-05
2.54269e-05
2.54332e-05
2.54391e-05
2.54445e-05
2.54495e-05
2.54541e-05
2.54582e-05
2.5462e-05
2.54654e-05
2.54683e-05
2.54709e-05
2.54731e-05
2.54749e-05
2.54764e-05
2.54774e-05
2.54782e-05
2.54785e-05
2.54785e-05
2.54782e-05
2.54774e-05
2.54764e-05
2.54749e-05
2.54731e-05
2.54709e-05
2.54683e-05
2.54654e-05
2.5462e-05
2.54582e-05
2.54541e-05
2.54495e-05
2.54445e-05
2.54391e-05
2.54332e-05
2.54269e-05
2.54201e-05
2.54129e-05
2.54051e-05
2.5397e-05
2.53883e-05
2.53792e-05
2.53696e-05
2.53595e-05
2.53491e-05
2.53383e-05
2.53274e-05
2.53168e-05
2.53069e-05
7.53877e-05
7.54162e-05
7.54466e-05
7.54777e-05
7.55084e-05
7.55383e-05
7.5567e-05
7.55944e-05
7.56205e-05
7.56452e-05
7.56686e-05
7.56906e-05
7.57113e-05
7.57306e-05
7.57486e-05
7.57654e-05
7.57809e-05
7.57951e-05
7.58082e-05
7.58201e-05
7.58308e-05
7.58403e-05
7.58488e-05
7.58561e-05
7.58624e-05
7.58676e-05
7.58717e-05
7.58748e-05
7.58769e-05
7.58779e-05
7.58779e-05
7.58769e-05
7.58748e-05
7.58717e-05
7.58676e-05
7.58624e-05
7.58561e-05
7.58488e-05
7.58403e-05
7.58308e-05
7.58201e-05
7.58082e-05
7.57951e-05
7.57809e-05
7.57654e-05
7.57486e-05
7.57306e-05
7.57113e-05
7.56906e-05
7.56686e-05
7.56452e-05
7.56205e-05