/*--------------------------------*- C++ -*----------------------------------*\
| =========                 |                                                 |
| \\      /  F ield         | foam-extend: Open Source CFD                    |
|  \\    /   O peration     | Version:     4.0                                |
|   \\  /    A nd           | Web:         http://www.foam-extend.org         |
|    \\/     M anipulation  |                                                 |
\*---------------------------------------------------------------------------*/
FoamFile
{
    version     2.0;
    format      ascii;
    class       volScalarField;
    location    "1700";
    object      psiE;
}
// * * * * * * * * * * * * * * * * * * * * * * * * * * * * * * * * * * * * * //

dimensions      [0 0 0 0 0 0 0];

internalField   nonuniform List<scalar> 
6960
(
0.325076
0.325077
0.325078
0.32508
0.325081
0.325082
0.325083
0.325085
0.325086
0.325087
0.325088
0.325089
0.32509
0.325091
0.325092
0.325092
0.325093
0.325094
0.325094
0.325095
0.325095
0.325096
0.325096
0.325096
0.325097
0.325097
0.325097
0.325097
0.325097
0.325097
0.325097
0.325097
0.325097
0.325097
0.325097
0.325097
0.325096
0.325096
0.325096
0.325095
0.325095
0.325094
0.325094
0.325093
0.325092
0.325092
0.325091
0.32509
0.325089
0.325088
0.325087
0.325086
0.325085
0.325083
0.325082
0.325081
0.32508
0.325078
0.325077
0.325076
0.79587
0.795874
0.795878
0.795883
0.795889
0.795894
0.795899
0.795903
0.795908
0.795912
0.795916
0.79592
0.795924
0.795928
0.795931
0.795934
0.795936
0.795939
0.795941
0.795944
0.795945
0.795947
0.795949
0.79595
0.795951
0.795952
0.795953
0.795953
0.795954
0.795954
0.795954
0.795954
0.795953
0.795953
0.795952
0.795951
0.79595
0.795949
0.795947
0.795945
0.795944
0.795941
0.795939
0.795936
0.795934
0.795931
0.795928
0.795924
0.79592
0.795916
0.795912
0.795908
0.795903
0.795899
0.795894
0.795889
0.795883
0.795878
0.795874
0.79587
1.20828
1.20828
1.20829
1.2083
1.20831
1.20832
1.20833
1.20834
1.20835
1.20836
1.20837
1.20838
1.20838
1.20839
1.2084
1.2084
1.20841
1.20841
1.20842
1.20842
1.20842
1.20843
1.20843
1.20843
1.20844
1.20844
1.20844
1.20844
1.20844
1.20844
1.20844
1.20844
1.20844
1.20844
1.20844
1.20844
1.20843
1.20843
1.20843
1.20842
1.20842
1.20842
1.20841
1.20841
1.2084
1.2084
1.20839
1.20838
1.20838
1.20837
1.20836
1.20835
1.20834
1.20833
1.20832
1.20831
1.2083
1.20829
1.20828
1.20828
1.60015
1.60016
1.60017
1.60019
1.60021
1.60022
1.60024
1.60025
1.60027
1.60028
1.60029
1.60031
1.60032
1.60033
1.60034
1.60035
1.60036
1.60036
1.60037
1.60038
1.60038
1.60039
1.60039
1.6004
1.6004
1.6004
1.60041
1.60041
1.60041
1.60041
1.60041
1.60041
1.60041
1.60041
1.6004
1.6004
1.6004
1.60039
1.60039
1.60038
1.60038
1.60037
1.60036
1.60036
1.60035
1.60034
1.60033
1.60032
1.60031
1.60029
1.60028
1.60027
1.60025
1.60024
1.60022
1.60021
1.60019
1.60017
1.60016
1.60015
1.98738
1.9874
1.98742
1.98744
1.98747
1.98749
1.98751
1.98753
1.98755
1.98757
1.98759
1.98761
1.98762
1.98764
1.98765
1.98766
1.98768
1.98769
1.9877
1.98771
1.98771
1.98772
1.98773
1.98773
1.98774
1.98774
1.98775
1.98775
1.98775
1.98775
1.98775
1.98775
1.98775
1.98775
1.98774
1.98774
1.98773
1.98773
1.98772
1.98771
1.98771
1.9877
1.98769
1.98768
1.98766
1.98765
1.98764
1.98762
1.98761
1.98759
1.98757
1.98755
1.98753
1.98751
1.98749
1.98747
1.98744
1.98742
1.9874
1.98738
2.37724
2.37726
2.37729
2.37732
2.37735
2.37738
2.37741
2.37744
2.37746
2.37749
2.37751
2.37753
2.37756
2.37757
2.37759
2.37761
2.37763
2.37764
2.37765
2.37767
2.37768
2.37769
2.37769
2.3777
2.37771
2.37771
2.37772
2.37772
2.37772
2.37772
2.37772
2.37772
2.37772
2.37772
2.37771
2.37771
2.3777
2.37769
2.37769
2.37768
2.37767
2.37765
2.37764
2.37763
2.37761
2.37759
2.37757
2.37756
2.37753
2.37751
2.37749
2.37746
2.37744
2.37741
2.37738
2.37735
2.37732
2.37729
2.37726
2.37724
2.77315
2.77318
2.77322
2.77325
2.77329
2.77333
2.77337
2.7734
2.77343
2.77346
2.77349
2.77352
2.77355
2.77357
2.7736
2.77362
2.77364
2.77365
2.77367
2.77369
2.7737
2.77371
2.77372
2.77373
2.77374
2.77375
2.77375
2.77375
2.77376
2.77376
2.77376
2.77376
2.77375
2.77375
2.77375
2.77374
2.77373
2.77372
2.77371
2.7737
2.77369
2.77367
2.77365
2.77364
2.77362
2.7736
2.77357
2.77355
2.77352
2.77349
2.77346
2.77343
2.7734
2.77337
2.77333
2.77329
2.77325
2.77322
2.77318
2.77315
3.17677
3.1768
3.17684
3.17689
3.17693
3.17698
3.17702
3.17706
3.1771
3.17714
3.17718
3.17721
3.17724
3.17727
3.1773
3.17732
3.17735
3.17737
3.17739
3.17741
3.17742
3.17744
3.17745
3.17746
3.17747
3.17748
3.17748
3.17749
3.17749
3.17749
3.17749
3.17749
3.17749
3.17748
3.17748
3.17747
3.17746
3.17745
3.17744
3.17742
3.17741
3.17739
3.17737
3.17735
3.17732
3.1773
3.17727
3.17724
3.17721
3.17718
3.17714
3.1771
3.17706
3.17702
3.17698
3.17693
3.17689
3.17684
3.1768
3.17677
3.58887
3.5889
3.58895
3.58901
3.58906
3.58911
3.58917
3.58921
3.58926
3.58931
3.58935
3.58939
3.58942
3.58946
3.58949
3.58952
3.58955
3.58957
3.5896
3.58962
3.58964
3.58965
3.58967
3.58968
3.58969
3.5897
3.58971
3.58972
3.58972
3.58972
3.58972
3.58972
3.58972
3.58971
3.5897
3.58969
3.58968
3.58967
3.58965
3.58964
3.58962
3.5896
3.58957
3.58955
3.58952
3.58949
3.58946
3.58942
3.58939
3.58935
3.58931
3.58926
3.58921
3.58917
3.58911
3.58906
3.58901
3.58895
3.5889
3.58887
4.00985
4.00989
4.00995
4.01001
4.01007
4.01013
4.01019
4.01025
4.0103
4.01035
4.0104
4.01045
4.01049
4.01053
4.01056
4.0106
4.01063
4.01066
4.01069
4.01071
4.01073
4.01075
4.01077
4.01078
4.0108
4.01081
4.01082
4.01082
4.01083
4.01083
4.01083
4.01083
4.01082
4.01082
4.01081
4.0108
4.01078
4.01077
4.01075
4.01073
4.01071
4.01069
4.01066
4.01063
4.0106
4.01056
4.01053
4.01049
4.01045
4.0104
4.01035
4.0103
4.01025
4.01019
4.01013
4.01007
4.01001
4.00995
4.00989
4.00985
4.4399
4.43995
4.44001
4.44008
4.44015
4.44022
4.44029
4.44035
4.44041
4.44047
4.44053
4.44058
4.44063
4.44067
4.44071
4.44075
4.44079
4.44082
4.44085
4.44088
4.4409
4.44093
4.44095
4.44096
4.44098
4.44099
4.441
4.44101
4.44101
4.44101
4.44101
4.44101
4.44101
4.441
4.44099
4.44098
4.44096
4.44095
4.44093
4.4409
4.44088
4.44085
4.44082
4.44079
4.44075
4.44071
4.44067
4.44063
4.44058
4.44053
4.44047
4.44041
4.44035
4.44029
4.44022
4.44015
4.44008
4.44001
4.43995
4.4399
4.87913
4.87918
4.87925
4.87933
4.87941
4.87949
4.87956
4.87963
4.8797
4.87977
4.87983
4.87988
4.87994
4.87999
4.88004
4.88008
4.88012
4.88016
4.88019
4.88022
4.88025
4.88027
4.8803
4.88031
4.88033
4.88034
4.88035
4.88036
4.88037
4.88037
4.88037
4.88037
4.88036
4.88035
4.88034
4.88033
4.88031
4.8803
4.88027
4.88025
4.88022
4.88019
4.88016
4.88012
4.88008
4.88004
4.87999
4.87994
4.87988
4.87983
4.87977
4.8797
4.87963
4.87956
4.87949
4.87941
4.87933
4.87925
4.87918
4.87913
5.32757
5.32763
5.32771
5.3278
5.32788
5.32797
5.32805
5.32813
5.32821
5.32828
5.32835
5.32841
5.32847
5.32852
5.32858
5.32862
5.32867
5.32871
5.32875
5.32878
5.32881
5.32884
5.32886
5.32889
5.3289
5.32892
5.32893
5.32894
5.32894
5.32895
5.32895
5.32894
5.32894
5.32893
5.32892
5.3289
5.32889
5.32886
5.32884
5.32881
5.32878
5.32875
5.32871
5.32867
5.32862
5.32858
5.32852
5.32847
5.32841
5.32835
5.32828
5.32821
5.32813
5.32805
5.32797
5.32788
5.3278
5.32771
5.32763
5.32757
5.78524
5.78531
5.7854
5.78549
5.78559
5.78568
5.78577
5.78586
5.78594
5.78602
5.78609
5.78616
5.78623
5.78629
5.78635
5.7864
5.78645
5.7865
5.78654
5.78657
5.78661
5.78664
5.78666
5.78669
5.78671
5.78672
5.78674
5.78675
5.78675
5.78675
5.78675
5.78675
5.78675
5.78674
5.78672
5.78671
5.78669
5.78666
5.78664
5.78661
5.78657
5.78654
5.7865
5.78645
5.7864
5.78635
5.78629
5.78623
5.78616
5.78609
5.78602
5.78594
5.78586
5.78577
5.78568
5.78559
5.78549
5.7854
5.78531
5.78524
6.25213
6.2522
6.2523
6.2524
6.25251
6.25261
6.25271
6.2528
6.25289
6.25298
6.25306
6.25313
6.25321
6.25327
6.25333
6.25339
6.25345
6.25349
6.25354
6.25358
6.25362
6.25365
6.25368
6.2537
6.25372
6.25374
6.25376
6.25377
6.25377
6.25378
6.25378
6.25377
6.25377
6.25376
6.25374
6.25372
6.2537
6.25368
6.25365
6.25362
6.25358
6.25354
6.25349
6.25345
6.25339
6.25333
6.25327
6.25321
6.25313
6.25306
6.25298
6.25289
6.2528
6.25271
6.25261
6.25251
6.2524
6.2523
6.2522
6.25213
6.72819
6.72827
6.72837
6.72848
6.72859
6.7287
6.72881
6.72891
6.72901
6.7291
6.72919
6.72927
6.72935
6.72942
6.72949
6.72955
6.72961
6.72966
6.72971
6.72976
6.7298
6.72983
6.72986
6.72989
6.72991
6.72993
6.72995
6.72996
6.72997
6.72997
6.72997
6.72997
6.72996
6.72995
6.72993
6.72991
6.72989
6.72986
6.72983
6.7298
6.72976
6.72971
6.72966
6.72961
6.72955
6.72949
6.72942
6.72935
6.72927
6.72919
6.7291
6.72901
6.72891
6.72881
6.7287
6.72859
6.72848
6.72837
6.72827
6.72819
7.21335
7.21343
7.21354
7.21366
7.21378
7.2139
7.21402
7.21413
7.21423
7.21433
7.21443
7.21452
7.2146
7.21468
7.21475
7.21482
7.21488
7.21494
7.21499
7.21504
7.21508
7.21512
7.21515
7.21518
7.2152
7.21522
7.21524
7.21525
7.21526
7.21526
7.21526
7.21526
7.21525
7.21524
7.21522
7.2152
7.21518
7.21515
7.21512
7.21508
7.21504
7.21499
7.21494
7.21488
7.21482
7.21475
7.21468
7.2146
7.21452
7.21443
7.21433
7.21423
7.21413
7.21402
7.2139
7.21378
7.21366
7.21354
7.21343
7.21335
7.70751
7.70759
7.70771
7.70784
7.70797
7.7081
7.70822
7.70834
7.70845
7.70856
7.70866
7.70876
7.70885
7.70893
7.70901
7.70908
7.70915
7.70921
7.70926
7.70931
7.70936
7.7094
7.70944
7.70947
7.70949
7.70952
7.70953
7.70955
7.70956
7.70956
7.70956
7.70956
7.70955
7.70953
7.70952
7.70949
7.70947
7.70944
7.7094
7.70936
7.70931
7.70926
7.70921
7.70915
7.70908
7.70901
7.70893
7.70885
7.70876
7.70866
7.70856
7.70845
7.70834
7.70822
7.7081
7.70797
7.70784
7.70771
7.70759
7.70751
8.21053
8.21062
8.21075
8.21089
8.21103
8.21116
8.21129
8.21142
8.21154
8.21165
8.21176
8.21186
8.21196
8.21205
8.21213
8.21221
8.21228
8.21234
8.2124
8.21246
8.21251
8.21255
8.21259
8.21262
8.21265
8.21267
8.21269
8.21271
8.21272
8.21272
8.21272
8.21272
8.21271
8.21269
8.21267
8.21265
8.21262
8.21259
8.21255
8.21251
8.21246
8.2124
8.21234
8.21228
8.21221
8.21213
8.21205
8.21196
8.21186
8.21176
8.21165
8.21154
8.21142
8.21129
8.21116
8.21103
8.21089
8.21075
8.21062
8.21053
8.72225
8.72235
8.72248
8.72263
8.72278
8.72292
8.72306
8.72319
8.72332
8.72344
8.72356
8.72366
8.72377
8.72386
8.72395
8.72403
8.72411
8.72417
8.72424
8.7243
8.72435
8.72439
8.72443
8.72447
8.7245
8.72452
8.72454
8.72456
8.72457
8.72457
8.72457
8.72457
8.72456
8.72454
8.72452
8.7245
8.72447
8.72443
8.72439
8.72435
8.7243
8.72424
8.72417
8.72411
8.72403
8.72395
8.72386
8.72377
8.72366
8.72356
8.72344
8.72332
8.72319
8.72306
8.72292
8.72278
8.72263
8.72248
8.72235
8.72225
9.24245
9.24255
9.2427
9.24285
9.24301
9.24316
9.24331
9.24345
9.24358
9.24371
9.24383
9.24395
9.24405
9.24415
9.24425
9.24433
9.24441
9.24449
9.24455
9.24461
9.24467
9.24472
9.24476
9.2448
9.24483
9.24486
9.24488
9.24489
9.2449
9.24491
9.24491
9.2449
9.24489
9.24488
9.24486
9.24483
9.2448
9.24476
9.24472
9.24467
9.24461
9.24455
9.24449
9.24441
9.24433
9.24425
9.24415
9.24405
9.24395
9.24383
9.24371
9.24358
9.24345
9.24331
9.24316
9.24301
9.24285
9.2427
9.24255
9.24245
9.77087
9.77098
9.77113
9.7713
9.77146
9.77162
9.77178
9.77193
9.77207
9.7722
9.77233
9.77245
9.77256
9.77267
9.77277
9.77286
9.77294
9.77302
9.77309
9.77316
9.77321
9.77326
9.77331
9.77335
9.77338
9.77341
9.77343
9.77345
9.77346
9.77347
9.77347
9.77346
9.77345
9.77343
9.77341
9.77338
9.77335
9.77331
9.77326
9.77321
9.77316
9.77309
9.77302
9.77294
9.77286
9.77277
9.77267
9.77256
9.77245
9.77233
9.7722
9.77207
9.77193
9.77178
9.77162
9.77146
9.7713
9.77113
9.77098
9.77087
10.3072
10.3073
10.3075
10.3077
10.3078
10.308
10.3082
10.3083
10.3085
10.3086
10.3087
10.3089
10.309
10.3091
10.3092
10.3093
10.3094
10.3095
10.3095
10.3096
10.3097
10.3097
10.3098
10.3098
10.3098
10.3099
10.3099
10.3099
10.3099
10.3099
10.3099
10.3099
10.3099
10.3099
10.3099
10.3098
10.3098
10.3098
10.3097
10.3097
10.3096
10.3095
10.3095
10.3094
10.3093
10.3092
10.3091
10.309
10.3089
10.3087
10.3086
10.3085
10.3083
10.3082
10.308
10.3078
10.3077
10.3075
10.3073
10.3072
10.8511
10.8512
10.8514
10.8515
10.8517
10.8519
10.8521
10.8522
10.8524
10.8525
10.8527
10.8528
10.8529
10.8531
10.8532
10.8533
10.8534
10.8534
10.8535
10.8536
10.8537
10.8537
10.8538
10.8538
10.8538
10.8539
10.8539
10.8539
10.8539
10.8539
10.8539
10.8539
10.8539
10.8539
10.8539
10.8538
10.8538
10.8538
10.8537
10.8537
10.8536
10.8535
10.8534
10.8534
10.8533
10.8532
10.8531
10.8529
10.8528
10.8527
10.8525
10.8524
10.8522
10.8521
10.8519
10.8517
10.8515
10.8514
10.8512
10.8511
11.4021
11.4022
11.4024
11.4025
11.4027
11.4029
11.4031
11.4033
11.4034
11.4036
11.4037
11.4039
11.404
11.4041
11.4042
11.4043
11.4044
11.4045
11.4046
11.4047
11.4048
11.4048
11.4049
11.4049
11.405
11.405
11.405
11.405
11.405
11.405
11.405
11.405
11.405
11.405
11.405
11.405
11.4049
11.4049
11.4048
11.4048
11.4047
11.4046
11.4045
11.4044
11.4043
11.4042
11.4041
11.404
11.4039
11.4037
11.4036
11.4034
11.4033
11.4031
11.4029
11.4027
11.4025
11.4024
11.4022
11.4021
11.9596
11.9598
11.96
11.9601
11.9603
11.9605
11.9607
11.9609
11.9611
11.9612
11.9614
11.9615
11.9617
11.9618
11.9619
11.962
11.9621
11.9622
11.9623
11.9624
11.9624
11.9625
11.9626
11.9626
11.9627
11.9627
11.9627
11.9627
11.9627
11.9628
11.9628
11.9627
11.9627
11.9627
11.9627
11.9627
11.9626
11.9626
11.9625
11.9624
11.9624
11.9623
11.9622
11.9621
11.962
11.9619
11.9618
11.9617
11.9615
11.9614
11.9612
11.9611
11.9609
11.9607
11.9605
11.9603
11.9601
11.96
11.9598
11.9596
12.5232
12.5234
12.5235
12.5238
12.524
12.5242
12.5243
12.5245
12.5247
12.5249
12.525
12.5252
12.5253
12.5255
12.5256
12.5257
12.5258
12.5259
12.526
12.5261
12.5261
12.5262
12.5263
12.5263
12.5263
12.5264
12.5264
12.5264
12.5264
12.5265
12.5265
12.5264
12.5264
12.5264
12.5264
12.5263
12.5263
12.5263
12.5262
12.5261
12.5261
12.526
12.5259
12.5258
12.5257
12.5256
12.5255
12.5253
12.5252
12.525
12.5249
12.5247
12.5245
12.5243
12.5242
12.524
12.5238
12.5235
12.5234
12.5232
13.0921
13.0923
13.0925
13.0927
13.0929
13.0931
13.0933
13.0935
13.0937
13.0938
13.094
13.0942
13.0943
13.0944
13.0946
13.0947
13.0948
13.0949
13.095
13.0951
13.0951
13.0952
13.0953
13.0953
13.0954
13.0954
13.0954
13.0954
13.0955
13.0955
13.0955
13.0955
13.0954
13.0954
13.0954
13.0954
13.0953
13.0953
13.0952
13.0951
13.0951
13.095
13.0949
13.0948
13.0947
13.0946
13.0944
13.0943
13.0942
13.094
13.0938
13.0937
13.0935
13.0933
13.0931
13.0929
13.0927
13.0925
13.0923
13.0921
13.6656
13.6657
13.6659
13.6661
13.6663
13.6666
13.6668
13.667
13.6671
13.6673
13.6675
13.6677
13.6678
13.6679
13.6681
13.6682
13.6683
13.6684
13.6685
13.6686
13.6687
13.6687
13.6688
13.6689
13.6689
13.6689
13.669
13.669
13.669
13.669
13.669
13.669
13.669
13.669
13.6689
13.6689
13.6689
13.6688
13.6687
13.6687
13.6686
13.6685
13.6684
13.6683
13.6682
13.6681
13.6679
13.6678
13.6677
13.6675
13.6673
13.6671
13.667
13.6668
13.6666
13.6663
13.6661
13.6659
13.6657
13.6656
14.2426
14.2427
14.243
14.2432
14.2434
14.2436
14.2438
14.244
14.2442
14.2444
14.2446
14.2448
14.2449
14.2451
14.2452
14.2453
14.2454
14.2455
14.2456
14.2457
14.2458
14.2459
14.2459
14.246
14.246
14.2461
14.2461
14.2461
14.2461
14.2462
14.2462
14.2461
14.2461
14.2461
14.2461
14.246
14.246
14.2459
14.2459
14.2458
14.2457
14.2456
14.2455
14.2454
14.2453
14.2452
14.2451
14.2449
14.2448
14.2446
14.2444
14.2442
14.244
14.2438
14.2436
14.2434
14.2432
14.243
14.2427
14.2426
14.8222
14.8224
14.8226
14.8228
14.823
14.8233
14.8235
14.8237
14.8239
14.8241
14.8242
14.8244
14.8246
14.8247
14.8249
14.825
14.8251
14.8252
14.8253
14.8254
14.8255
14.8256
14.8256
14.8257
14.8257
14.8258
14.8258
14.8258
14.8258
14.8258
14.8258
14.8258
14.8258
14.8258
14.8258
14.8257
14.8257
14.8256
14.8256
14.8255
14.8254
14.8253
14.8252
14.8251
14.825
14.8249
14.8247
14.8246
14.8244
14.8242
14.8241
14.8239
14.8237
14.8235
14.8233
14.823
14.8228
14.8226
14.8224
14.8222
15.4032
15.4033
15.4035
15.4038
15.404
15.4042
15.4044
15.4047
15.4049
15.4051
15.4052
15.4054
15.4056
15.4057
15.4059
15.406
15.4061
15.4062
15.4063
15.4064
15.4065
15.4066
15.4067
15.4067
15.4068
15.4068
15.4068
15.4069
15.4069
15.4069
15.4069
15.4069
15.4069
15.4068
15.4068
15.4068
15.4067
15.4067
15.4066
15.4065
15.4064
15.4063
15.4062
15.4061
15.406
15.4059
15.4057
15.4056
15.4054
15.4052
15.4051
15.4049
15.4047
15.4044
15.4042
15.404
15.4038
15.4035
15.4033
15.4032
15.9841
15.9842
15.9844
15.9847
15.9849
15.9852
15.9854
15.9856
15.9858
15.986
15.9862
15.9864
15.9865
15.9867
15.9868
15.987
15.9871
15.9872
15.9873
15.9874
15.9875
15.9876
15.9876
15.9877
15.9877
15.9878
15.9878
15.9878
15.9879
15.9879
15.9879
15.9879
15.9878
15.9878
15.9878
15.9877
15.9877
15.9876
15.9876
15.9875
15.9874
15.9873
15.9872
15.9871
15.987
15.9868
15.9867
15.9865
15.9864
15.9862
15.986
15.9858
15.9856
15.9854
15.9852
15.9849
15.9847
15.9844
15.9842
15.9841
16.5633
16.5635
16.5637
16.5639
16.5642
16.5644
16.5647
16.5649
16.5651
16.5653
16.5655
16.5657
16.5658
16.566
16.5661
16.5663
16.5664
16.5665
16.5666
16.5667
16.5668
16.5669
16.5669
16.567
16.5671
16.5671
16.5671
16.5672
16.5672
16.5672
16.5672
16.5672
16.5672
16.5671
16.5671
16.5671
16.567
16.5669
16.5669
16.5668
16.5667
16.5666
16.5665
16.5664
16.5663
16.5661
16.566
16.5658
16.5657
16.5655
16.5653
16.5651
16.5649
16.5647
16.5644
16.5642
16.5639
16.5637
16.5635
16.5633
17.1391
17.1392
17.1395
17.1397
17.1399
17.1402
17.1404
17.1406
17.1409
17.1411
17.1412
17.1414
17.1416
17.1418
17.1419
17.142
17.1422
17.1423
17.1424
17.1425
17.1426
17.1427
17.1427
17.1428
17.1428
17.1429
17.1429
17.1429
17.143
17.143
17.143
17.143
17.1429
17.1429
17.1429
17.1428
17.1428
17.1427
17.1427
17.1426
17.1425
17.1424
17.1423
17.1422
17.142
17.1419
17.1418
17.1416
17.1414
17.1412
17.1411
17.1409
17.1406
17.1404
17.1402
17.1399
17.1397
17.1395
17.1392
17.1391
17.7092
17.7093
17.7096
17.7098
17.71
17.7103
17.7105
17.7107
17.711
17.7112
17.7113
17.7115
17.7117
17.7119
17.712
17.7121
17.7123
17.7124
17.7125
17.7126
17.7127
17.7128
17.7128
17.7129
17.7129
17.713
17.713
17.713
17.7131
17.7131
17.7131
17.7131
17.713
17.713
17.713
17.7129
17.7129
17.7128
17.7128
17.7127
17.7126
17.7125
17.7124
17.7123
17.7121
17.712
17.7119
17.7117
17.7115
17.7113
17.7112
17.711
17.7107
17.7105
17.7103
17.71
17.7098
17.7096
17.7093
17.7092
18.2711
18.2712
18.2715
18.2717
18.272
18.2722
18.2724
18.2727
18.2729
18.2731
18.2733
18.2734
18.2736
18.2738
18.2739
18.2741
18.2742
18.2743
18.2744
18.2745
18.2746
18.2747
18.2748
18.2748
18.2749
18.2749
18.2749
18.275
18.275
18.275
18.275
18.275
18.275
18.2749
18.2749
18.2749
18.2748
18.2748
18.2747
18.2746
18.2745
18.2744
18.2743
18.2742
18.2741
18.2739
18.2738
18.2736
18.2734
18.2733
18.2731
18.2729
18.2727
18.2724
18.2722
18.272
18.2717
18.2715
18.2712
18.2711
18.8219
18.8221
18.8223
18.8225
18.8228
18.823
18.8233
18.8235
18.8237
18.8239
18.8241
18.8243
18.8244
18.8246
18.8247
18.8249
18.825
18.8251
18.8252
18.8253
18.8254
18.8255
18.8256
18.8256
18.8257
18.8257
18.8257
18.8258
18.8258
18.8258
18.8258
18.8258
18.8258
18.8257
18.8257
18.8257
18.8256
18.8256
18.8255
18.8254
18.8253
18.8252
18.8251
18.825
18.8249
18.8247
18.8246
18.8244
18.8243
18.8241
18.8239
18.8237
18.8235
18.8233
18.823
18.8228
18.8225
18.8223
18.8221
18.8219
19.3582
19.3584
19.3586
19.3588
19.3591
19.3593
19.3595
19.3597
19.3599
19.3601
19.3603
19.3605
19.3607
19.3608
19.361
19.3611
19.3612
19.3614
19.3615
19.3616
19.3616
19.3617
19.3618
19.3618
19.3619
19.3619
19.362
19.362
19.362
19.362
19.362
19.362
19.362
19.362
19.3619
19.3619
19.3618
19.3618
19.3617
19.3616
19.3616
19.3615
19.3614
19.3612
19.3611
19.361
19.3608
19.3607
19.3605
19.3603
19.3601
19.3599
19.3597
19.3595
19.3593
19.3591
19.3588
19.3586
19.3584
19.3582
19.8759
19.876
19.8762
19.8765
19.8767
19.8769
19.8772
19.8774
19.8776
19.8778
19.8779
19.8781
19.8783
19.8784
19.8786
19.8787
19.8788
19.8789
19.879
19.8791
19.8792
19.8793
19.8794
19.8794
19.8795
19.8795
19.8796
19.8796
19.8796
19.8796
19.8796
19.8796
19.8796
19.8796
19.8795
19.8795
19.8794
19.8794
19.8793
19.8792
19.8791
19.879
19.8789
19.8788
19.8787
19.8786
19.8784
19.8783
19.8781
19.8779
19.8778
19.8776
19.8774
19.8772
19.8769
19.8767
19.8765
19.8762
19.876
19.8759
20.3701
20.3703
20.3705
20.3707
20.3709
20.3711
20.3713
20.3715
20.3717
20.3719
20.3721
20.3723
20.3724
20.3726
20.3727
20.3728
20.373
20.3731
20.3732
20.3733
20.3733
20.3734
20.3735
20.3735
20.3736
20.3736
20.3737
20.3737
20.3737
20.3737
20.3737
20.3737
20.3737
20.3737
20.3736
20.3736
20.3735
20.3735
20.3734
20.3733
20.3733
20.3732
20.3731
20.373
20.3728
20.3727
20.3726
20.3724
20.3723
20.3721
20.3719
20.3717
20.3715
20.3713
20.3711
20.3709
20.3707
20.3705
20.3703
20.3701
20.8353
20.8354
20.8356
20.8358
20.836
20.8362
20.8364
20.8366
20.8368
20.837
20.8372
20.8373
20.8375
20.8376
20.8377
20.8378
20.838
20.8381
20.8382
20.8382
20.8383
20.8384
20.8385
20.8385
20.8386
20.8386
20.8386
20.8386
20.8387
20.8387
20.8387
20.8387
20.8386
20.8386
20.8386
20.8386
20.8385
20.8385
20.8384
20.8383
20.8382
20.8382
20.8381
20.838
20.8378
20.8377
20.8376
20.8375
20.8373
20.8372
20.837
20.8368
20.8366
20.8364
20.8362
20.836
20.8358
20.8356
20.8354
20.8353
21.265
21.2651
21.2653
21.2655
21.2657
21.2659
21.266
21.2662
21.2664
21.2665
21.2667
21.2668
21.267
21.2671
21.2672
21.2673
21.2675
21.2675
21.2676
21.2677
21.2678
21.2679
21.2679
21.268
21.268
21.268
21.2681
21.2681
21.2681
21.2681
21.2681
21.2681
21.2681
21.2681
21.268
21.268
21.268
21.2679
21.2679
21.2678
21.2677
21.2676
21.2675
21.2675
21.2673
21.2672
21.2671
21.267
21.2668
21.2667
21.2665
21.2664
21.2662
21.266
21.2659
21.2657
21.2655
21.2653
21.2651
21.265
21.6525
21.6527
21.6528
21.653
21.6532
21.6533
21.6535
21.6536
21.6538
21.6539
21.6541
21.6542
21.6543
21.6544
21.6546
21.6547
21.6548
21.6548
21.6549
21.655
21.6551
21.6551
21.6552
21.6552
21.6553
21.6553
21.6553
21.6553
21.6553
21.6554
21.6554
21.6553
21.6553
21.6553
21.6553
21.6553
21.6552
21.6552
21.6551
21.6551
21.655
21.6549
21.6548
21.6548
21.6547
21.6546
21.6544
21.6543
21.6542
21.6541
21.6539
21.6538
21.6536
21.6535
21.6533
21.6532
21.653
21.6528
21.6527
21.6525
21.9921
21.9922
21.9923
21.9925
21.9926
21.9928
21.9929
21.993
21.9932
21.9933
21.9934
21.9935
21.9936
21.9937
21.9938
21.9939
21.994
21.9941
21.9942
21.9942
21.9943
21.9943
21.9944
21.9944
21.9945
21.9945
21.9945
21.9945
21.9945
21.9945
21.9945
21.9945
21.9945
21.9945
21.9945
21.9945
21.9944
21.9944
21.9943
21.9943
21.9942
21.9942
21.9941
21.994
21.9939
21.9938
21.9937
21.9936
21.9935
21.9934
21.9933
21.9932
21.993
21.9929
21.9928
21.9926
21.9925
21.9923
21.9922
21.9921
22.2801
22.2802
22.2803
22.2804
22.2806
22.2807
22.2808
22.2809
22.281
22.2811
22.2812
22.2813
22.2814
22.2815
22.2816
22.2817
22.2818
22.2818
22.2819
22.2819
22.282
22.282
22.2821
22.2821
22.2821
22.2822
22.2822
22.2822
22.2822
22.2822
22.2822
22.2822
22.2822
22.2822
22.2822
22.2821
22.2821
22.2821
22.282
22.282
22.2819
22.2819
22.2818
22.2818
22.2817
22.2816
22.2815
22.2814
22.2813
22.2812
22.2811
22.281
22.2809
22.2808
22.2807
22.2806
22.2804
22.2803
22.2802
22.2801
22.5172
22.5172
22.5173
22.5174
22.5175
22.5176
22.5177
22.5178
22.5179
22.518
22.518
22.5181
22.5182
22.5183
22.5184
22.5184
22.5185
22.5185
22.5186
22.5186
22.5187
22.5187
22.5187
22.5188
22.5188
22.5188
22.5188
22.5189
22.5189
22.5189
22.5189
22.5189
22.5189
22.5188
22.5188
22.5188
22.5188
22.5187
22.5187
22.5187
22.5186
22.5186
22.5185
22.5185
22.5184
22.5184
22.5183
22.5182
22.5181
22.518
22.518
22.5179
22.5178
22.5177
22.5176
22.5175
22.5174
22.5173
22.5172
22.5172
22.708
22.708
22.7081
22.7081
22.7082
22.7083
22.7084
22.7084
22.7085
22.7086
22.7086
22.7087
22.7088
22.7088
22.7089
22.7089
22.709
22.709
22.7091
22.7091
22.7092
22.7092
22.7092
22.7093
22.7093
22.7093
22.7093
22.7093
22.7093
22.7093
22.7093
22.7093
22.7093
22.7093
22.7093
22.7093
22.7093
22.7092
22.7092
22.7092
22.7091
22.7091
22.709
22.709
22.7089
22.7089
22.7088
22.7088
22.7087
22.7086
22.7086
22.7085
22.7084
22.7084
22.7083
22.7082
22.7081
22.7081
22.708
22.708
22.8604
22.8604
22.8605
22.8605
22.8606
22.8606
22.8607
22.8607
22.8608
22.8609
22.8609
22.861
22.861
22.8611
22.8611
22.8612
22.8612
22.8613
22.8613
22.8613
22.8614
22.8614
22.8614
22.8614
22.8615
22.8615
22.8615
22.8615
22.8615
22.8615
22.8615
22.8615
22.8615
22.8615
22.8615
22.8615
22.8614
22.8614
22.8614
22.8614
22.8613
22.8613
22.8613
22.8612
22.8612
22.8611
22.8611
22.861
22.861
22.8609
22.8609
22.8608
22.8607
22.8607
22.8606
22.8606
22.8605
22.8605
22.8604
22.8604
22.9833
22.9833
22.9833
22.9834
22.9834
22.9835
22.9835
22.9836
22.9836
22.9837
22.9837
22.9838
22.9838
22.9838
22.9839
22.9839
22.984
22.984
22.984
22.9841
22.9841
22.9841
22.9841
22.9842
22.9842
22.9842
22.9842
22.9842
22.9842
22.9842
22.9842
22.9842
22.9842
22.9842
22.9842
22.9842
22.9842
22.9841
22.9841
22.9841
22.9841
22.984
22.984
22.984
22.9839
22.9839
22.9838
22.9838
22.9838
22.9837
22.9837
22.9836
22.9836
22.9835
22.9835
22.9834
22.9834
22.9833
22.9833
22.9833
23.0846
23.0846
23.0846
23.0846
23.0847
23.0847
23.0848
23.0848
23.0848
23.0849
23.0849
23.085
23.085
23.085
23.0851
23.0851
23.0852
23.0852
23.0852
23.0852
23.0853
23.0853
23.0853
23.0853
23.0854
23.0854
23.0854
23.0854
23.0854
23.0854
23.0854
23.0854
23.0854
23.0854
23.0854
23.0854
23.0853
23.0853
23.0853
23.0853
23.0852
23.0852
23.0852
23.0852
23.0851
23.0851
23.085
23.085
23.085
23.0849
23.0849
23.0848
23.0848
23.0848
23.0847
23.0847
23.0846
23.0846
23.0846
23.0846
23.1704
23.1704
23.1704
23.1704
23.1704
23.1705
23.1705
23.1705
23.1706
23.1706
23.1707
23.1707
23.1707
23.1708
23.1708
23.1708
23.1709
23.1709
23.1709
23.171
23.171
23.171
23.171
23.171
23.1711
23.1711
23.1711
23.1711
23.1711
23.1711
23.1711
23.1711
23.1711
23.1711
23.1711
23.1711
23.171
23.171
23.171
23.171
23.171
23.1709
23.1709
23.1709
23.1708
23.1708
23.1708
23.1707
23.1707
23.1707
23.1706
23.1706
23.1705
23.1705
23.1705
23.1704
23.1704
23.1704
23.1704
23.1704
23.2449
23.2449
23.245
23.245
23.245
23.245
23.2451
23.2451
23.2451
23.2452
23.2452
23.2452
23.2453
23.2453
23.2454
23.2454
23.2454
23.2455
23.2455
23.2455
23.2455
23.2456
23.2456
23.2456
23.2456
23.2456
23.2456
23.2456
23.2456
23.2456
23.2456
23.2456
23.2456
23.2456
23.2456
23.2456
23.2456
23.2456
23.2456
23.2455
23.2455
23.2455
23.2455
23.2454
23.2454
23.2454
23.2453
23.2453
23.2452
23.2452
23.2452
23.2451
23.2451
23.2451
23.245
23.245
23.245
23.245
23.2449
23.2449
23.3112
23.3112
23.3112
23.3112
23.3113
23.3113
23.3113
23.3113
23.3114
23.3114
23.3115
23.3115
23.3115
23.3116
23.3116
23.3116
23.3117
23.3117
23.3117
23.3117
23.3118
23.3118
23.3118
23.3118
23.3118
23.3119
23.3119
23.3119
23.3119
23.3119
23.3119
23.3119
23.3119
23.3119
23.3119
23.3118
23.3118
23.3118
23.3118
23.3118
23.3117
23.3117
23.3117
23.3117
23.3116
23.3116
23.3116
23.3115
23.3115
23.3115
23.3114
23.3114
23.3113
23.3113
23.3113
23.3113
23.3112
23.3112
23.3112
23.3112
23.3711
23.3711
23.3711
23.3711
23.3711
23.3711
23.3712
23.3712
23.3712
23.3713
23.3713
23.3713
23.3714
23.3714
23.3714
23.3715
23.3715
23.3715
23.3716
23.3716
23.3716
23.3716
23.3717
23.3717
23.3717
23.3717
23.3717
23.3717
23.3717
23.3717
23.3717
23.3717
23.3717
23.3717
23.3717
23.3717
23.3717
23.3717
23.3716
23.3716
23.3716
23.3716
23.3715
23.3715
23.3715
23.3714
23.3714
23.3714
23.3713
23.3713
23.3713
23.3712
23.3712
23.3712
23.3711
23.3711
23.3711
23.3711
23.3711
23.3711
23.4259
23.4259
23.4259
23.4259
23.4259
23.4259
23.426
23.426
23.426
23.4261
23.4261
23.4261
23.4262
23.4262
23.4262
23.4263
23.4263
23.4263
23.4264
23.4264
23.4264
23.4264
23.4264
23.4265
23.4265
23.4265
23.4265
23.4265
23.4265
23.4265
23.4265
23.4265
23.4265
23.4265
23.4265
23.4265
23.4265
23.4264
23.4264
23.4264
23.4264
23.4264
23.4263
23.4263
23.4263
23.4262
23.4262
23.4262
23.4261
23.4261
23.4261
23.426
23.426
23.426
23.4259
23.4259
23.4259
23.4259
23.4259
23.4259
23.4765
23.4765
23.4765
23.4765
23.4765
23.4766
23.4766
23.4766
23.4767
23.4767
23.4767
23.4768
23.4768
23.4768
23.4769
23.4769
23.4769
23.477
23.477
23.477
23.477
23.4771
23.4771
23.4771
23.4771
23.4771
23.4771
23.4771
23.4772
23.4772
23.4772
23.4772
23.4771
23.4771
23.4771
23.4771
23.4771
23.4771
23.4771
23.477
23.477
23.477
23.477
23.4769
23.4769
23.4769
23.4768
23.4768
23.4768
23.4767
23.4767
23.4767
23.4766
23.4766
23.4766
23.4765
23.4765
23.4765
23.4765
23.4765
23.5237
23.5237
23.5237
23.5237
23.5237
23.5237
23.5238
23.5238
23.5238
23.5239
23.5239
23.5239
23.524
23.524
23.5241
23.5241
23.5241
23.5242
23.5242
23.5242
23.5242
23.5243
23.5243
23.5243
23.5243
23.5243
23.5243
23.5243
23.5243
23.5244
23.5244
23.5243
23.5243
23.5243
23.5243
23.5243
23.5243
23.5243
23.5243
23.5242
23.5242
23.5242
23.5242
23.5241
23.5241
23.5241
23.524
23.524
23.5239
23.5239
23.5239
23.5238
23.5238
23.5238
23.5237
23.5237
23.5237
23.5237
23.5237
23.5237
23.5679
23.5679
23.5679
23.568
23.568
23.568
23.568
23.5681
23.5681
23.5681
23.5682
23.5682
23.5682
23.5683
23.5683
23.5683
23.5684
23.5684
23.5684
23.5685
23.5685
23.5685
23.5685
23.5686
23.5686
23.5686
23.5686
23.5686
23.5686
23.5686
23.5686
23.5686
23.5686
23.5686
23.5686
23.5686
23.5686
23.5685
23.5685
23.5685
23.5685
23.5684
23.5684
23.5684
23.5683
23.5683
23.5683
23.5682
23.5682
23.5682
23.5681
23.5681
23.5681
23.568
23.568
23.568
23.568
23.5679
23.5679
23.5679
23.6097
23.6097
23.6097
23.6097
23.6097
23.6097
23.6098
23.6098
23.6098
23.6099
23.6099
23.6099
23.61
23.61
23.6101
23.6101
23.6101
23.6102
23.6102
23.6102
23.6103
23.6103
23.6103
23.6103
23.6103
23.6103
23.6104
23.6104
23.6104
23.6104
23.6104
23.6104
23.6104
23.6104
23.6103
23.6103
23.6103
23.6103
23.6103
23.6103
23.6102
23.6102
23.6102
23.6101
23.6101
23.6101
23.61
23.61
23.6099
23.6099
23.6099
23.6098
23.6098
23.6098
23.6097
23.6097
23.6097
23.6097
23.6097
23.6097
23.6492
23.6492
23.6492
23.6492
23.6493
23.6493
23.6493
23.6493
23.6494
23.6494
23.6495
23.6495
23.6495
23.6496
23.6496
23.6497
23.6497
23.6497
23.6498
23.6498
23.6498
23.6498
23.6499
23.6499
23.6499
23.6499
23.6499
23.6499
23.6499
23.65
23.65
23.6499
23.6499
23.6499
23.6499
23.6499
23.6499
23.6499
23.6498
23.6498
23.6498
23.6498
23.6497
23.6497
23.6497
23.6496
23.6496
23.6495
23.6495
23.6495
23.6494
23.6494
23.6493
23.6493
23.6493
23.6493
23.6492
23.6492
23.6492
23.6492
23.6868
23.6868
23.6869
23.6869
23.6869
23.6869
23.6869
23.687
23.687
23.6871
23.6871