/*--------------------------------*- C++ -*----------------------------------*\
| =========                 |                                                 |
| \\      /  F ield         | foam-extend: Open Source CFD                    |
|  \\    /   O peration     | Version:     4.0                                |
|   \\  /    A nd           | Web:         http://www.foam-extend.org         |
|    \\/     M anipulation  |                                                 |
\*---------------------------------------------------------------------------*/
FoamFile
{
    version     2.0;
    format      ascii;
    class       volScalarField;
    location    "1160";
    object      cMinus;
}
// * * * * * * * * * * * * * * * * * * * * * * * * * * * * * * * * * * * * * //

dimensions      [0 0 0 0 0 0 0];

internalField   nonuniform List<scalar> 
6960
(
1.50128e-23
1.49753e-23
1.49789e-23
1.49822e-23
1.49849e-23
1.4987e-23
1.49887e-23
1.49899e-23
1.49909e-23
1.49915e-23
1.49918e-23
1.49919e-23
1.49918e-23
1.49915e-23
1.49911e-23
1.49906e-23
1.499e-23
1.49894e-23
1.49888e-23
1.49882e-23
1.49875e-23
1.49869e-23
1.49864e-23
1.49859e-23
1.49855e-23
1.49851e-23
1.49848e-23
1.49846e-23
1.49844e-23
1.49843e-23
1.49843e-23
1.49844e-23
1.49846e-23
1.49848e-23
1.49851e-23
1.49855e-23
1.49859e-23
1.49864e-23
1.49869e-23
1.49875e-23
1.49882e-23
1.49888e-23
1.49894e-23
1.499e-23
1.49906e-23
1.49911e-23
1.49915e-23
1.49918e-23
1.49919e-23
1.49918e-23
1.49915e-23
1.49909e-23
1.49899e-23
1.49887e-23
1.4987e-23
1.49849e-23
1.49822e-23
1.49789e-23
1.49753e-23
1.50128e-23
4.13244e-23
4.12753e-23
4.12838e-23
4.12904e-23
4.12955e-23
4.12998e-23
4.13033e-23
4.13063e-23
4.13086e-23
4.13105e-23
4.13119e-23
4.1313e-23
4.13137e-23
4.13141e-23
4.13142e-23
4.13142e-23
4.1314e-23
4.13137e-23
4.13133e-23
4.13128e-23
4.13123e-23
4.13119e-23
4.13114e-23
4.1311e-23
4.13106e-23
4.13102e-23
4.13099e-23
4.13097e-23
4.13096e-23
4.13095e-23
4.13095e-23
4.13096e-23
4.13097e-23
4.13099e-23
4.13102e-23
4.13106e-23
4.1311e-23
4.13114e-23
4.13119e-23
4.13123e-23
4.13128e-23
4.13133e-23
4.13137e-23
4.1314e-23
4.13142e-23
4.13142e-23
4.13141e-23
4.13137e-23
4.1313e-23
4.13119e-23
4.13105e-23
4.13086e-23
4.13063e-23
4.13033e-23
4.12998e-23
4.12955e-23
4.12904e-23
4.12838e-23
4.12753e-23
4.13244e-23
1.06732e-22
1.06612e-22
1.06639e-22
1.06661e-22
1.06679e-22
1.06695e-22
1.06708e-22
1.0672e-22
1.0673e-22
1.06738e-22
1.06745e-22
1.0675e-22
1.06754e-22
1.06757e-22
1.0676e-22
1.06761e-22
1.06762e-22
1.06763e-22
1.06763e-22
1.06763e-22
1.06763e-22
1.06762e-22
1.06762e-22
1.06761e-22
1.06761e-22
1.0676e-22
1.0676e-22
1.06759e-22
1.06759e-22
1.06759e-22
1.06759e-22
1.06759e-22
1.06759e-22
1.0676e-22
1.0676e-22
1.06761e-22
1.06761e-22
1.06762e-22
1.06762e-22
1.06763e-22
1.06763e-22
1.06763e-22
1.06763e-22
1.06762e-22
1.06761e-22
1.0676e-22
1.06757e-22
1.06754e-22
1.0675e-22
1.06745e-22
1.06738e-22
1.0673e-22
1.0672e-22
1.06708e-22
1.06695e-22
1.06679e-22
1.06661e-22
1.06639e-22
1.06612e-22
1.06732e-22
2.68001e-22
2.67678e-22
2.67762e-22
2.67835e-22
2.67898e-22
2.67953e-22
2.68001e-22
2.68042e-22
2.68078e-22
2.68109e-22
2.68134e-22
2.68156e-22
2.68173e-22
2.68187e-22
2.68198e-22
2.68206e-22
2.68212e-22
2.68217e-22
2.6822e-22
2.68222e-22
2.68223e-22
2.68223e-22
2.68223e-22
2.68223e-22
2.68223e-22
2.68222e-22
2.68221e-22
2.68221e-22
2.68221e-22
2.6822e-22
2.6822e-22
2.68221e-22
2.68221e-22
2.68221e-22
2.68222e-22
2.68223e-22
2.68223e-22
2.68223e-22
2.68223e-22
2.68223e-22
2.68222e-22
2.6822e-22
2.68217e-22
2.68212e-22
2.68206e-22
2.68198e-22
2.68187e-22
2.68173e-22
2.68156e-22
2.68134e-22
2.68109e-22
2.68078e-22
2.68042e-22
2.68001e-22
2.67953e-22
2.67898e-22
2.67835e-22
2.67762e-22
2.67678e-22
2.68001e-22
6.72089e-22
6.71224e-22
6.7148e-22
6.71712e-22
6.71915e-22
6.72095e-22
6.72253e-22
6.72392e-22
6.72513e-22
6.72616e-22
6.72704e-22
6.72779e-22
6.7284e-22
6.72891e-22
6.72932e-22
6.72965e-22
6.72991e-22
6.73011e-22
6.73026e-22
6.73037e-22
6.73045e-22
6.7305e-22
6.73053e-22
6.73055e-22
6.73056e-22
6.73057e-22
6.73057e-22
6.73057e-22
6.73056e-22
6.73056e-22
6.73056e-22
6.73056e-22
6.73057e-22
6.73057e-22
6.73057e-22
6.73056e-22
6.73055e-22
6.73053e-22
6.7305e-22
6.73045e-22
6.73037e-22
6.73026e-22
6.73011e-22
6.72991e-22
6.72965e-22
6.72932e-22
6.72891e-22
6.7284e-22
6.72779e-22
6.72704e-22
6.72616e-22
6.72513e-22
6.72392e-22
6.72253e-22
6.72095e-22
6.71915e-22
6.71712e-22
6.7148e-22
6.71224e-22
6.72089e-22
1.7049e-21
1.70262e-21
1.70339e-21
1.7041e-21
1.70473e-21
1.7053e-21
1.7058e-21
1.70624e-21
1.70663e-21
1.70696e-21
1.70725e-21
1.70749e-21
1.7077e-21
1.70787e-21
1.70801e-21
1.70813e-21
1.70822e-21
1.7083e-21
1.70836e-21
1.7084e-21
1.70844e-21
1.70846e-21
1.70848e-21
1.70849e-21
1.7085e-21
1.70851e-21
1.70851e-21
1.70852e-21
1.70852e-21
1.70852e-21
1.70852e-21
1.70852e-21
1.70852e-21
1.70851e-21
1.70851e-21
1.7085e-21
1.70849e-21
1.70848e-21
1.70846e-21
1.70844e-21
1.7084e-21
1.70836e-21
1.7083e-21
1.70822e-21
1.70813e-21
1.70801e-21
1.70787e-21
1.7077e-21
1.70749e-21
1.70725e-21
1.70696e-21
1.70663e-21
1.70624e-21
1.7058e-21
1.7053e-21
1.70473e-21
1.7041e-21
1.70339e-21
1.70262e-21
1.7049e-21
4.39939e-21
4.39348e-21
4.39575e-21
4.3979e-21
4.39984e-21
4.40158e-21
4.40313e-21
4.40451e-21
4.40571e-21
4.40677e-21
4.40768e-21
4.40846e-21
4.40912e-21
4.40968e-21
4.41015e-21
4.41054e-21
4.41086e-21
4.41112e-21
4.41133e-21
4.4115e-21
4.41163e-21
4.41173e-21
4.41181e-21
4.41187e-21
4.41192e-21
4.41195e-21
4.41198e-21
4.41199e-21
4.412e-21
4.41201e-21
4.41201e-21
4.412e-21
4.41199e-21
4.41198e-21
4.41195e-21
4.41192e-21
4.41187e-21
4.41181e-21
4.41173e-21
4.41163e-21
4.4115e-21
4.41133e-21
4.41112e-21
4.41086e-21
4.41054e-21
4.41015e-21
4.40968e-21
4.40912e-21
4.40846e-21
4.40768e-21
4.40677e-21
4.40571e-21
4.40451e-21
4.40313e-21
4.40158e-21
4.39984e-21
4.3979e-21
4.39575e-21
4.39348e-21
4.39939e-21
1.15765e-20
1.15614e-20
1.15682e-20
1.15747e-20
1.15806e-20
1.15859e-20
1.15906e-20
1.15949e-20
1.15986e-20
1.16019e-20
1.16048e-20
1.16072e-20
1.16093e-20
1.16111e-20
1.16127e-20
1.16139e-20
1.1615e-20
1.16159e-20
1.16166e-20
1.16172e-20
1.16177e-20
1.1618e-20
1.16184e-20
1.16186e-20
1.16188e-20
1.16189e-20
1.1619e-20
1.16191e-20
1.16191e-20
1.16192e-20
1.16192e-20
1.16191e-20
1.16191e-20
1.1619e-20
1.16189e-20
1.16188e-20
1.16186e-20
1.16184e-20
1.1618e-20
1.16177e-20
1.16172e-20
1.16166e-20
1.16159e-20
1.1615e-20
1.16139e-20
1.16127e-20
1.16111e-20
1.16093e-20
1.16072e-20
1.16048e-20
1.16019e-20
1.15986e-20
1.15949e-20
1.15906e-20
1.15859e-20
1.15806e-20
1.15747e-20
1.15682e-20
1.15614e-20
1.15765e-20
3.11009e-20
3.1063e-20
3.10833e-20
3.11029e-20
3.11208e-20
3.1137e-20
3.11516e-20
3.11647e-20
3.11763e-20
3.11865e-20
3.11954e-20
3.12032e-20
3.12099e-20
3.12157e-20
3.12206e-20
3.12248e-20
3.12283e-20
3.12312e-20
3.12337e-20
3.12357e-20
3.12374e-20
3.12387e-20
3.12398e-20
3.12407e-20
3.12414e-20
3.12419e-20
3.12424e-20
3.12426e-20
3.12428e-20
3.12429e-20
3.12429e-20
3.12428e-20
3.12426e-20
3.12424e-20
3.12419e-20
3.12414e-20
3.12407e-20
3.12398e-20
3.12387e-20
3.12374e-20
3.12357e-20
3.12337e-20
3.12312e-20
3.12283e-20
3.12248e-20
3.12206e-20
3.12157e-20
3.12099e-20
3.12032e-20
3.11954e-20
3.11865e-20
3.11763e-20
3.11647e-20
3.11516e-20
3.1137e-20
3.11208e-20
3.11029e-20
3.10833e-20
3.1063e-20
3.11009e-20
8.53667e-20
8.52741e-20
8.53356e-20
8.53952e-20
8.545e-20
8.54999e-20
8.55451e-20
8.55856e-20
8.56218e-20
8.56538e-20
8.56819e-20
8.57065e-20
8.57279e-20
8.57464e-20
8.57623e-20
8.57759e-20
8.57875e-20
8.57973e-20
8.58056e-20
8.58125e-20
8.58183e-20
8.58231e-20
8.5827e-20
8.58301e-20
8.58327e-20
8.58347e-20
8.58362e-20
8.58373e-20
8.5838e-20
8.58383e-20
8.58383e-20
8.5838e-20
8.58373e-20
8.58362e-20
8.58347e-20
8.58327e-20
8.58301e-20
8.5827e-20
8.58231e-20
8.58183e-20
8.58125e-20
8.58056e-20
8.57973e-20
8.57875e-20
8.57759e-20
8.57623e-20
8.57464e-20
8.57279e-20
8.57065e-20
8.56819e-20
8.56538e-20
8.56218e-20
8.55856e-20
8.55451e-20
8.54999e-20
8.545e-20
8.53952e-20
8.53356e-20
8.52741e-20
8.53667e-20
2.39545e-19
2.39327e-19
2.39516e-19
2.397e-19
2.3987e-19
2.40025e-19
2.40166e-19
2.40293e-19
2.40407e-19
2.40508e-19
2.40598e-19
2.40676e-19
2.40745e-19
2.40805e-19
2.40857e-19
2.40902e-19
2.4094e-19
2.40973e-19
2.41001e-19
2.41024e-19
2.41044e-19
2.41061e-19
2.41075e-19
2.41086e-19
2.41095e-19
2.41102e-19
2.41108e-19
2.41112e-19
2.41114e-19
2.41116e-19
2.41116e-19
2.41114e-19
2.41112e-19
2.41108e-19
2.41102e-19
2.41095e-19
2.41086e-19
2.41075e-19
2.41061e-19
2.41044e-19
2.41024e-19
2.41001e-19
2.40973e-19
2.4094e-19
2.40902e-19
2.40857e-19
2.40805e-19
2.40745e-19
2.40676e-19
2.40598e-19
2.40508e-19
2.40407e-19
2.40293e-19
2.40166e-19
2.40025e-19
2.3987e-19
2.397e-19
2.39516e-19
2.39327e-19
2.39545e-19
6.87595e-19
6.87118e-19
6.87708e-19
6.88281e-19
6.88814e-19
6.89305e-19
6.89752e-19
6.90156e-19
6.90519e-19
6.90843e-19
6.91132e-19
6.91386e-19
6.91611e-19
6.91807e-19
6.91978e-19
6.92127e-19
6.92255e-19
6.92366e-19
6.92461e-19
6.92542e-19
6.9261e-19
6.92668e-19
6.92716e-19
6.92756e-19
6.92788e-19
6.92814e-19
6.92834e-19
6.92849e-19
6.92858e-19
6.92863e-19
6.92863e-19
6.92858e-19
6.92849e-19
6.92834e-19
6.92814e-19
6.92788e-19
6.92756e-19
6.92716e-19
6.92668e-19
6.9261e-19
6.92542e-19
6.92461e-19
6.92366e-19
6.92255e-19
6.92127e-19
6.91978e-19
6.91807e-19
6.91611e-19
6.91386e-19
6.91132e-19
6.90843e-19
6.90519e-19
6.90156e-19
6.89752e-19
6.89305e-19
6.88814e-19
6.88281e-19
6.87708e-19
6.87118e-19
6.87595e-19
2.02024e-18
2.01932e-18
2.0212e-18
2.02302e-18
2.02473e-18
2.0263e-18
2.02774e-18
2.02905e-18
2.03023e-18
2.03128e-18
2.03223e-18
2.03306e-18
2.0338e-18
2.03446e-18
2.03503e-18
2.03553e-18
2.03596e-18
2.03634e-18
2.03666e-18
2.03694e-18
2.03718e-18
2.03738e-18
2.03755e-18
2.03769e-18
2.03781e-18
2.0379e-18
2.03797e-18
2.03802e-18
2.03806e-18
2.03808e-18
2.03808e-18
2.03806e-18
2.03802e-18
2.03797e-18
2.0379e-18
2.03781e-18
2.03769e-18
2.03755e-18
2.03738e-18
2.03718e-18
2.03694e-18
2.03666e-18
2.03634e-18
2.03596e-18
2.03553e-18
2.03503e-18
2.03446e-18
2.0338e-18
2.03306e-18
2.03223e-18
2.03128e-18
2.03023e-18
2.02905e-18
2.02774e-18
2.0263e-18
2.02473e-18
2.02302e-18
2.0212e-18
2.01932e-18
2.02024e-18
6.07955e-18
6.07837e-18
6.08445e-18
6.09038e-18
6.09594e-18
6.10109e-18
6.10581e-18
6.11012e-18
6.11401e-18
6.11752e-18
6.12066e-18
6.12346e-18
6.12595e-18
6.12815e-18
6.13009e-18
6.13179e-18
6.13328e-18
6.13458e-18
6.1357e-18
6.13667e-18
6.1375e-18
6.13821e-18
6.13881e-18
6.13931e-18
6.13972e-18
6.14005e-18
6.14031e-18
6.1405e-18
6.14062e-18
6.14068e-18
6.14068e-18
6.14062e-18
6.1405e-18
6.14031e-18
6.14005e-18
6.13972e-18
6.13931e-18
6.13881e-18
6.13821e-18
6.1375e-18
6.13667e-18
6.1357e-18
6.13458e-18
6.13328e-18
6.13179e-18
6.13009e-18
6.12815e-18
6.12595e-18
6.12346e-18
6.12066e-18
6.11752e-18
6.11401e-18
6.11012e-18
6.10581e-18
6.10109e-18
6.09594e-18
6.09038e-18
6.08445e-18
6.07837e-18
6.07955e-18
1.87496e-17
1.8751e-17
1.87711e-17
1.87908e-17
1.88093e-17
1.88265e-17
1.88423e-17
1.88568e-17
1.88699e-17
1.88818e-17
1.88924e-17
1.8902e-17
1.89105e-17
1.8918e-17
1.89247e-17
1.89306e-17
1.89358e-17
1.89403e-17
1.89442e-17
1.89476e-17
1.89506e-17
1.89531e-17
1.89552e-17
1.8957e-17
1.89585e-17
1.89597e-17
1.89606e-17
1.89613e-17
1.89617e-17
1.8962e-17
1.8962e-17
1.89617e-17
1.89613e-17
1.89606e-17
1.89597e-17
1.89585e-17
1.8957e-17
1.89552e-17
1.89531e-17
1.89506e-17
1.89476e-17
1.89442e-17
1.89403e-17
1.89358e-17
1.89306e-17
1.89247e-17
1.8918e-17
1.89105e-17
1.8902e-17
1.88924e-17
1.88818e-17
1.88699e-17
1.88568e-17
1.88423e-17
1.88265e-17
1.88093e-17
1.87908e-17
1.87711e-17
1.8751e-17
1.87496e-17
5.92882e-17
5.93081e-17
5.93763e-17
5.94429e-17
5.9506e-17
5.95647e-17
5.96189e-17
5.96684e-17
5.97136e-17
5.97544e-17
5.97913e-17
5.98244e-17
5.9854e-17
5.98804e-17
5.99038e-17
5.99245e-17
5.99428e-17
5.99588e-17
5.99728e-17
5.99849e-17
5.99954e-17
6.00045e-17
6.00122e-17
6.00186e-17
6.0024e-17
6.00283e-17
6.00316e-17
6.00341e-17
6.00357e-17
6.00365e-17
6.00365e-17
6.00357e-17
6.00341e-17
6.00316e-17
6.00283e-17
6.0024e-17
6.00186e-17
6.00122e-17
6.00045e-17
5.99954e-17
5.99849e-17
5.99728e-17
5.99588e-17
5.99428e-17
5.99245e-17
5.99038e-17
5.98804e-17
5.9854e-17
5.98244e-17
5.97913e-17
5.97544e-17
5.97136e-17
5.96684e-17
5.96189e-17
5.95647e-17
5.9506e-17
5.94429e-17
5.93763e-17
5.93081e-17
5.92882e-17
1.92274e-16
1.92387e-16
1.92623e-16
1.92854e-16
1.93074e-16
1.93279e-16
1.93468e-16
1.93642e-16
1.938e-16
1.93944e-16
1.94074e-16
1.94191e-16
1.94296e-16
1.9439e-16
1.94474e-16
1.94548e-16
1.94613e-16
1.94671e-16
1.94721e-16
1.94765e-16
1.94803e-16
1.94836e-16
1.94864e-16
1.94888e-16
1.94907e-16
1.94923e-16
1.94935e-16
1.94944e-16
1.9495e-16
1.94953e-16
1.94953e-16
1.9495e-16
1.94944e-16
1.94935e-16
1.94923e-16
1.94907e-16
1.94888e-16
1.94864e-16
1.94836e-16
1.94803e-16
1.94765e-16
1.94721e-16
1.94671e-16
1.94613e-16
1.94548e-16
1.94474e-16
1.9439e-16
1.94296e-16
1.94191e-16
1.94074e-16
1.93944e-16
1.938e-16
1.93642e-16
1.93468e-16
1.93279e-16
1.93074e-16
1.92854e-16
1.92623e-16
1.92387e-16
1.92274e-16
6.39542e-16
6.40067e-16
6.40904e-16
6.41726e-16
6.42508e-16
6.43239e-16
6.43916e-16
6.44538e-16
6.45106e-16
6.45624e-16
6.46092e-16
6.46514e-16
6.46894e-16
6.47234e-16
6.47537e-16
6.47806e-16
6.48045e-16
6.48255e-16
6.4844e-16
6.48601e-16
6.48741e-16
6.48862e-16
6.48965e-16
6.49052e-16
6.49124e-16
6.49183e-16
6.49229e-16
6.49263e-16
6.49285e-16
6.49296e-16
6.49296e-16
6.49285e-16
6.49263e-16
6.49229e-16
6.49183e-16
6.49124e-16
6.49052e-16
6.48965e-16
6.48862e-16
6.48741e-16
6.48601e-16
6.4844e-16
6.48255e-16
6.48045e-16
6.47806e-16
6.47537e-16
6.47234e-16
6.46894e-16
6.46514e-16
6.46092e-16
6.45624e-16
6.45106e-16
6.44538e-16
6.43916e-16
6.43239e-16
6.42508e-16
6.41726e-16
6.40904e-16
6.40067e-16
6.39542e-16
2.18131e-15
2.18356e-15
2.18659e-15
2.18958e-15
2.19243e-15
2.1951e-15
2.19757e-15
2.19984e-15
2.20193e-15
2.20382e-15
2.20554e-15
2.2071e-15
2.20849e-15
2.20975e-15
2.21087e-15
2.21187e-15
2.21275e-15
2.21353e-15
2.21422e-15
2.21482e-15
2.21534e-15
2.21579e-15
2.21618e-15
2.21651e-15
2.21678e-15
2.217e-15
2.21717e-15
2.2173e-15
2.21738e-15
2.21742e-15
2.21742e-15
2.21738e-15
2.2173e-15
2.21717e-15
2.217e-15
2.21678e-15
2.21651e-15
2.21618e-15
2.21579e-15
2.21534e-15
2.21482e-15
2.21422e-15
2.21353e-15
2.21275e-15
2.21187e-15
2.21087e-15
2.20975e-15
2.20849e-15
2.2071e-15
2.20554e-15
2.20382e-15
2.20193e-15
2.19984e-15
2.19757e-15
2.1951e-15
2.19243e-15
2.18958e-15
2.18659e-15
2.18356e-15
2.18131e-15
7.6249e-15
7.63419e-15
7.64543e-15
7.65653e-15
7.66713e-15
7.67707e-15
7.68629e-15
7.69479e-15
7.70257e-15
7.70967e-15
7.71611e-15
7.72194e-15
7.72719e-15
7.7319e-15
7.73612e-15
7.73988e-15
7.74321e-15
7.74616e-15
7.74876e-15
7.75103e-15
7.75301e-15
7.75473e-15
7.75619e-15
7.75743e-15
7.75846e-15
7.7593e-15
7.75995e-15
7.76043e-15
7.76075e-15
7.76091e-15
7.76091e-15
7.76075e-15
7.76043e-15
7.75995e-15
7.7593e-15
7.75846e-15
7.75743e-15
7.75619e-15
7.75473e-15
7.75301e-15
7.75103e-15
7.74876e-15
7.74616e-15
7.74321e-15
7.73988e-15
7.73612e-15
7.7319e-15
7.72719e-15
7.72194e-15
7.71611e-15
7.70967e-15
7.70257e-15
7.69479e-15
7.68629e-15
7.67707e-15
7.66713e-15
7.65653e-15
7.64543e-15
7.63419e-15
7.6249e-15
2.72931e-14
2.73307e-14
2.73733e-14
2.74154e-14
2.74556e-14
2.74934e-14
2.75285e-14
2.75609e-14
2.75906e-14
2.76176e-14
2.76422e-14
2.76645e-14
2.76845e-14
2.77026e-14
2.77187e-14
2.77331e-14
2.77459e-14
2.77573e-14
2.77672e-14
2.7776e-14
2.77836e-14
2.77902e-14
2.77958e-14
2.78006e-14
2.78046e-14
2.78078e-14
2.78103e-14
2.78122e-14
2.78134e-14
2.7814e-14
2.7814e-14
2.78134e-14
2.78122e-14
2.78103e-14
2.78078e-14
2.78046e-14
2.78006e-14
2.77958e-14
2.77902e-14
2.77836e-14
2.7776e-14
2.77672e-14
2.77573e-14
2.77459e-14
2.77331e-14
2.77187e-14
2.77026e-14
2.76845e-14
2.76645e-14
2.76422e-14
2.76176e-14
2.75906e-14
2.75609e-14
2.75285e-14
2.74934e-14
2.74556e-14
2.74154e-14
2.73733e-14
2.73307e-14
2.72931e-14
9.99218e-14
1.00074e-13
1.00238e-13
1.00401e-13
1.00557e-13
1.00703e-13
1.00839e-13
1.00965e-13
1.0108e-13
1.01185e-13
1.01281e-13
1.01367e-13
1.01445e-13
1.01515e-13
1.01578e-13
1.01634e-13
1.01684e-13
1.01729e-13
1.01767e-13
1.01802e-13
1.01831e-13
1.01857e-13
1.01879e-13
1.01898e-13
1.01913e-13
1.01926e-13
1.01936e-13
1.01943e-13
1.01948e-13
1.0195e-13
1.0195e-13
1.01948e-13
1.01943e-13
1.01936e-13
1.01926e-13
1.01913e-13
1.01898e-13
1.01879e-13
1.01857e-13
1.01831e-13
1.01802e-13
1.01767e-13
1.01729e-13
1.01684e-13
1.01634e-13
1.01578e-13
1.01515e-13
1.01445e-13
1.01367e-13
1.01281e-13
1.01185e-13
1.0108e-13
1.00965e-13
1.00839e-13
1.00703e-13
1.00557e-13
1.00401e-13
1.00238e-13
1.00074e-13
9.99218e-14
3.73595e-13
3.74207e-13
3.74853e-13
3.75495e-13
3.76109e-13
3.76687e-13
3.77224e-13
3.77719e-13
3.78174e-13
3.78589e-13
3.78966e-13
3.79308e-13
3.79617e-13
3.79895e-13
3.80143e-13
3.80365e-13
3.80563e-13
3.80738e-13
3.80892e-13
3.81027e-13
3.81145e-13
3.81248e-13
3.81335e-13
3.81409e-13
3.81471e-13
3.81521e-13
3.8156e-13
3.81589e-13
3.81608e-13
3.81618e-13
3.81618e-13
3.81608e-13
3.81589e-13
3.8156e-13
3.81521e-13
3.81471e-13
3.81409e-13
3.81335e-13
3.81248e-13
3.81145e-13
3.81027e-13
3.80892e-13
3.80738e-13
3.80563e-13
3.80365e-13
3.80143e-13
3.79895e-13
3.79617e-13
3.79308e-13
3.78966e-13
3.78589e-13
3.78174e-13
3.77719e-13
3.77224e-13
3.76687e-13
3.76109e-13
3.75495e-13
3.74853e-13
3.74207e-13
3.73595e-13
1.42386e-12
1.42634e-12
1.42892e-12
1.43148e-12
1.43394e-12
1.43626e-12
1.43841e-12
1.44039e-12
1.44221e-12
1.44388e-12
1.44539e-12
1.44676e-12
1.448e-12
1.44911e-12
1.45011e-12
1.451e-12
1.45179e-12
1.4525e-12
1.45312e-12
1.45366e-12
1.45413e-12
1.45454e-12
1.45489e-12
1.45519e-12
1.45544e-12
1.45564e-12
1.4558e-12
1.45592e-12
1.45599e-12
1.45603e-12
1.45603e-12
1.45599e-12
1.45592e-12
1.4558e-12
1.45564e-12
1.45544e-12
1.45519e-12
1.45489e-12
1.45454e-12
1.45413e-12
1.45366e-12
1.45312e-12
1.4525e-12
1.45179e-12
1.451e-12
1.45011e-12
1.44911e-12
1.448e-12
1.44676e-12
1.44539e-12
1.44388e-12
1.44221e-12
1.44039e-12
1.43841e-12
1.43626e-12
1.43394e-12
1.43148e-12
1.42892e-12
1.42634e-12
1.42386e-12
5.51931e-12
5.52941e-12
5.53985e-12
5.55025e-12
5.56023e-12
5.56962e-12
5.57835e-12
5.5864e-12
5.59379e-12
5.60055e-12
5.60669e-12
5.61225e-12
5.61728e-12
5.6218e-12
5.62585e-12
5.62947e-12
5.63269e-12
5.63554e-12
5.63805e-12
5.64026e-12
5.64219e-12
5.64385e-12
5.64528e-12
5.64649e-12
5.6475e-12
5.64832e-12
5.64896e-12
5.64943e-12
5.64974e-12
5.6499e-12
5.6499e-12
5.64974e-12
5.64943e-12
5.64896e-12
5.64832e-12
5.6475e-12
5.64649e-12
5.64528e-12
5.64385e-12
5.64219e-12
5.64026e-12
5.63805e-12
5.63554e-12
5.63269e-12
5.62947e-12
5.62585e-12
5.6218e-12
5.61728e-12
5.61225e-12
5.60669e-12
5.60055e-12
5.59379e-12
5.5864e-12
5.57835e-12
5.56962e-12
5.56023e-12
5.55025e-12
5.53985e-12
5.52941e-12
5.51931e-12
2.17023e-11
2.17437e-11
2.17864e-11
2.1829e-11
2.18699e-11
2.19084e-11
2.19442e-11
2.19772e-11
2.20075e-11
2.20352e-11
2.20604e-11
2.20832e-11
2.21038e-11
2.21223e-11
2.21389e-11
2.21538e-11
2.21669e-11
2.21786e-11
2.21889e-11
2.2198e-11
2.22059e-11
2.22127e-11
2.22186e-11
2.22235e-11
2.22277e-11
2.2231e-11
2.22336e-11
2.22356e-11
2.22369e-11
2.22375e-11
2.22375e-11
2.22369e-11
2.22356e-11
2.22336e-11
2.2231e-11
2.22277e-11
2.22235e-11
2.22186e-11
2.22127e-11
2.22059e-11
2.2198e-11
2.21889e-11
2.21786e-11
2.21669e-11
2.21538e-11
2.21389e-11
2.21223e-11
2.21038e-11
2.20832e-11
2.20604e-11
2.20352e-11
2.20075e-11
2.19772e-11
2.19442e-11
2.19084e-11
2.18699e-11
2.1829e-11
2.17864e-11
2.17437e-11
2.17023e-11
8.62948e-11
8.64652e-11
8.66413e-11
8.68172e-11
8.6986e-11
8.71448e-11
8.72925e-11
8.74288e-11
8.75538e-11
8.76681e-11
8.7772e-11
8.78661e-11
8.79511e-11
8.80276e-11
8.80961e-11
8.81573e-11
8.82118e-11
8.826e-11
8.83025e-11
8.83398e-11
8.83724e-11
8.84006e-11
8.84247e-11
8.84452e-11
8.84622e-11
8.8476e-11
8.84869e-11
8.84949e-11
8.85001e-11
8.85028e-11
8.85028e-11
8.85001e-11
8.84949e-11
8.84869e-11
8.8476e-11
8.84622e-11
8.84452e-11
8.84247e-11
8.84006e-11
8.83724e-11
8.83398e-11
8.83025e-11
8.826e-11
8.82118e-11
8.81573e-11
8.80961e-11
8.80276e-11
8.79511e-11
8.78661e-11
8.7772e-11
8.76681e-11
8.75538e-11
8.74288e-11
8.72925e-11
8.71448e-11
8.6986e-11
8.68172e-11
8.66413e-11
8.64652e-11
8.62948e-11
3.45745e-10
3.46448e-10
3.47176e-10
3.47904e-10
3.48604e-10
3.49261e-10
3.49873e-10
3.50437e-10
3.50954e-10
3.51427e-10
3.51857e-10
3.52247e-10
3.52599e-10
3.52915e-10
3.53199e-10
3.53452e-10
3.53677e-10
3.53877e-10
3.54053e-10
3.54207e-10
3.54342e-10
3.54458e-10
3.54558e-10
3.54643e-10
3.54713e-10
3.5477e-10
3.54815e-10
3.54848e-10
3.5487e-10
3.54881e-10
3.54881e-10
3.5487e-10
3.54848e-10
3.54815e-10
3.5477e-10
3.54713e-10
3.54643e-10
3.54558e-10
3.54458e-10
3.54342e-10
3.54207e-10
3.54053e-10
3.53877e-10
3.53677e-10
3.53452e-10
3.53199e-10
3.52915e-10
3.52599e-10
3.52247e-10
3.51857e-10
3.51427e-10
3.50954e-10
3.50437e-10
3.49873e-10
3.49261e-10
3.48604e-10
3.47904e-10
3.47176e-10
3.46448e-10
3.45745e-10
1.38997e-09
1.39287e-09
1.39588e-09
1.39889e-09
1.40179e-09
1.40451e-09
1.40703e-09
1.40937e-09
1.41151e-09
1.41346e-09
1.41524e-09
1.41685e-09
1.4183e-09
1.41961e-09
1.42078e-09
1.42183e-09
1.42276e-09
1.42358e-09
1.42431e-09
1.42494e-09
1.4255e-09
1.42598e-09
1.42639e-09
1.42674e-09
1.42703e-09
1.42727e-09
1.42745e-09
1.42759e-09
1.42768e-09
1.42773e-09
1.42773e-09
1.42768e-09
1.42759e-09
1.42745e-09
1.42727e-09
1.42703e-09
1.42674e-09
1.42639e-09
1.42598e-09
1.4255e-09
1.42494e-09
1.42431e-09
1.42358e-09
1.42276e-09
1.42183e-09
1.42078e-09
1.41961e-09
1.4183e-09
1.41685e-09
1.41524e-09
1.41346e-09
1.41151e-09
1.40937e-09
1.40703e-09
1.40451e-09
1.40179e-09
1.39889e-09
1.39588e-09
1.39287e-09
1.38997e-09
5.58024e-09
5.5921e-09
5.60449e-09
5.61686e-09
5.62874e-09
5.63992e-09
5.6503e-09
5.65988e-09
5.66867e-09
5.67669e-09
5.68399e-09
5.6906e-09
5.69657e-09
5.70193e-09
5.70674e-09
5.71103e-09
5.71485e-09
5.71823e-09
5.72121e-09
5.72383e-09
5.72611e-09
5.72808e-09
5.72977e-09
5.7312e-09
5.73239e-09
5.73336e-09
5.73412e-09
5.73468e-09
5.73505e-09
5.73523e-09
5.73523e-09
5.73505e-09
5.73468e-09
5.73412e-09
5.73336e-09
5.73239e-09
5.7312e-09
5.72977e-09
5.72808e-09
5.72611e-09
5.72383e-09
5.72121e-09
5.71823e-09
5.71485e-09
5.71103e-09
5.70674e-09
5.70193e-09
5.69657e-09
5.6906e-09
5.68399e-09
5.67669e-09
5.66867e-09
5.65988e-09
5.6503e-09
5.63992e-09
5.62874e-09
5.61686e-09
5.60449e-09
5.5921e-09
5.58024e-09
2.22488e-08
2.22968e-08
2.23471e-08
2.23973e-08
2.24455e-08
2.24909e-08
2.2533e-08
2.25718e-08
2.26075e-08
2.264e-08
2.26696e-08
2.26964e-08
2.27206e-08
2.27424e-08
2.27618e-08
2.27792e-08
2.27947e-08
2.28084e-08
2.28205e-08
2.28311e-08
2.28403e-08
2.28483e-08
2.28551e-08
2.28609e-08
2.28658e-08
2.28697e-08
2.28727e-08
2.2875e-08
2.28765e-08
2.28772e-08
2.28772e-08
2.28765e-08
2.2875e-08
2.28727e-08
2.28697e-08
2.28658e-08
2.28609e-08
2.28551e-08
2.28483e-08
2.28403e-08
2.28311e-08
2.28205e-08
2.28084e-08
2.27947e-08
2.27792e-08
2.27618e-08
2.27424e-08
2.27206e-08
2.26964e-08
2.26696e-08
2.264e-08
2.26075e-08
2.25718e-08
2.2533e-08
2.24909e-08
2.24455e-08
2.23973e-08
2.23471e-08
2.22968e-08
2.22488e-08
8.75476e-08
8.77386e-08
8.7939e-08
8.81391e-08
8.8331e-08
8.85114e-08
8.8679e-08
8.88336e-08
8.89754e-08
8.91048e-08
8.92225e-08
8.93291e-08
8.94252e-08
8.95117e-08
8.95891e-08
8.96582e-08
8.97197e-08
8.97741e-08
8.98221e-08
8.98642e-08
8.99009e-08
8.99326e-08
8.99598e-08
8.99828e-08
9.0002e-08
9.00175e-08
9.00297e-08
9.00387e-08
9.00446e-08
9.00476e-08
9.00476e-08
9.00446e-08
9.00387e-08
9.00297e-08
9.00175e-08
9.0002e-08
8.99828e-08
8.99598e-08
8.99326e-08
8.99009e-08
8.98642e-08
8.98221e-08
8.97741e-08
8.97197e-08
8.96582e-08
8.95891e-08
8.95117e-08
8.94252e-08
8.93291e-08
8.92225e-08
8.91048e-08
8.89754e-08
8.88336e-08
8.8679e-08
8.85114e-08
8.8331e-08
8.81391e-08
8.7939e-08
8.77386e-08
8.75476e-08
3.37586e-07
3.38326e-07
3.39103e-07
3.39879e-07
3.40623e-07
3.41321e-07
3.4197e-07
3.42569e-07
3.43118e-07
3.43619e-07
3.44074e-07
3.44486e-07
3.44858e-07
3.45193e-07
3.45492e-07
3.4576e-07
3.45998e-07
3.46208e-07
3.46393e-07
3.46556e-07
3.46698e-07
3.46821e-07
3.46926e-07
3.47015e-07
3.47089e-07
3.47149e-07
3.47196e-07
3.47231e-07
3.47254e-07
3.47265e-07
3.47265e-07
3.47254e-07
3.47231e-07
3.47196e-07
3.47149e-07
3.47089e-07
3.47015e-07
3.46926e-07
3.46821e-07
3.46698e-07
3.46556e-07
3.46393e-07
3.46208e-07
3.45998e-07
3.4576e-07
3.45492e-07
3.45193e-07
3.44858e-07
3.44486e-07
3.44074e-07
3.43619e-07
3.43118e-07
3.42569e-07
3.4197e-07
3.41321e-07
3.40623e-07
3.39879e-07
3.39103e-07
3.38326e-07
3.37586e-07
1.26545e-06
1.26822e-06
1.27113e-06
1.27403e-06
1.27681e-06
1.27942e-06
1.28185e-06
1.28408e-06
1.28613e-06
1.288e-06
1.2897e-06
1.29124e-06
1.29263e-06
1.29388e-06
1.295e-06
1.29599e-06
1.29688e-06
1.29766e-06
1.29836e-06
1.29896e-06
1.29949e-06
1.29995e-06
1.30034e-06
1.30067e-06
1.30095e-06
1.30117e-06
1.30135e-06
1.30148e-06
1.30156e-06
1.3016e-06
1.3016e-06
1.30156e-06
1.30148e-06
1.30135e-06
1.30117e-06
1.30095e-06
1.30067e-06
1.30034e-06
1.29995e-06
1.29949e-06
1.29896e-06
1.29836e-06
1.29766e-06
1.29688e-06
1.29599e-06
1.295e-06
1.29388e-06
1.29263e-06
1.29124e-06
1.2897e-06
1.288e-06
1.28613e-06
1.28408e-06
1.28185e-06
1.27942e-06
1.27681e-06
1.27403e-06
1.27113e-06
1.26822e-06
1.26545e-06
4.57002e-06
4.57994e-06
4.59036e-06
4.60072e-06
4.61063e-06
4.61994e-06
4.62859e-06
4.63655e-06
4.64386e-06
4.65053e-06
4.65658e-06
4.66207e-06
4.66702e-06
4.67146e-06
4.67544e-06
4.67899e-06
4.68215e-06
4.68494e-06
4.68741e-06
4.68957e-06
4.69145e-06
4.69308e-06
4.69447e-06
4.69565e-06
4.69663e-06
4.69743e-06
4.69805e-06
4.69852e-06
4.69882e-06
4.69897e-06
4.69897e-06
4.69882e-06
4.69852e-06
4.69805e-06
4.69743e-06
4.69663e-06
4.69565e-06
4.69447e-06
4.69308e-06
4.69145e-06
4.68957e-06
4.68741e-06
4.68494e-06
4.68215e-06
4.67899e-06
4.67544e-06
4.67146e-06
4.66702e-06
4.66207e-06
4.65658e-06
4.65053e-06
4.64386e-06
4.63655e-06
4.62859e-06
4.61994e-06
4.61063e-06
4.60072e-06
4.59036e-06
4.57994e-06
4.57002e-06
1.57406e-05
1.57742e-05
1.58094e-05
1.58443e-05
1.58777e-05
1.5909e-05
1.59381e-05
1.59649e-05
1.59895e-05
1.60119e-05
1.60323e-05
1.60507e-05
1.60674e-05
1.60823e-05
1.60957e-05
1.61076e-05
1.61182e-05
1.61276e-05
1.61359e-05
1.61431e-05
1.61495e-05
1.61549e-05
1.61596e-05
1.61636e-05
1.61669e-05
1.61695e-05
1.61716e-05
1.61732e-05
1.61742e-05
1.61747e-05
1.61747e-05
1.61742e-05
1.61732e-05
1.61716e-05
1.61695e-05
1.61669e-05
1.61636e-05
1.61596e-05
1.61549e-05
1.61495e-05
1.61431e-05
1.61359e-05
1.61276e-05
1.61182e-05
1.61076e-05
1.60957e-05
1.60823e-05
1.60674e-05
1.60507e-05
1.60323e-05
1.60119e-05
1.59895e-05
1.59649e-05
1.59381e-05
1.5909e-05
1.58777e-05
1.58443e-05
1.58094e-05
1.57742e-05
1.57406e-05
5.11285e-05
5.12346e-05
5.13452e-05
5.14549e-05
5.15596e-05
5.16578e-05
5.1749e-05
5.1833e-05
5.191e-05
5.19802e-05
5.2044e-05
5.21017e-05
5.21537e-05
5.22005e-05
5.22424e-05
5.22797e-05
5.23129e-05
5.23423e-05
5.23682e-05
5.23909e-05
5.24106e-05
5.24277e-05
5.24424e-05
5.24548e-05
5.24651e-05
5.24734e-05
5.248e-05
5.24848e-05
5.2488e-05
5.24896e-05
5.24896e-05
5.2488e-05
5.24848e-05
5.248e-05
5.24734e-05
5.24651e-05
5.24548e-05
5.24424e-05
5.24277e-05
5.24106e-05
5.23909e-05
5.23682e-05
5.23423e-05
5.23129e-05
5.22797e-05
5.22424e-05
5.22005e-05
5.21537e-05
5.21017e-05
5.2044e-05
5.19802e-05
5.191e-05
5.1833e-05
5.1749e-05
5.16578e-05
5.15596e-05
5.14549e-05
5.13452e-05
5.12346e-05
5.11285e-05
0.000154676
0.000154984
0.000155303
0.000155619
0.00015592
0.000156203
0.000156465
0.000156706
0.000156927
0.000157129
0.000157312
0.000157477
0.000157627
0.000157761
0.000157881
0.000157988
0.000158084
0.000158168
0.000158242
0.000158307
0.000158364
0.000158413
0.000158455
0.00015849
0.00015852
0.000158544
0.000158563
0.000158577
0.000158586
0.00015859
0.00015859
0.000158586
0.000158577
0.000158563
0.000158544
0.00015852
0.00015849
0.000158455
0.000158413
0.000158364
0.000158307
0.000158242
0.000158168
0.000158084
0.000157988
0.000157881
0.000157761
0.000157627
0.000157477
0.000157312
0.000157129
0.000156927
0.000156706
0.000156465
0.000156203
0.00015592
0.000155619
0.000155303
0.000154984
0.000154676
0.000429957
0.000430763
0.000431596
0.000432415
0.000433197
0.000433928
0.000434607
0.000435232
0.000435804
0.000436326
0.0004368
0.000437229
0.000437616
0.000437963
0.000438274
0.000438551
0.000438797
0.000439015
0.000439207
0.000439376
0.000439522
0.000439649
0.000439757
0.000439849
0.000439926
0.000439988
0.000440036
0.000440072
0.000440096
0.000440107
0.000440107
0.000440096
0.000440072
0.000440036
0.000439988
0.000439926
0.000439849
0.000439757
0.000439649
0.000439522
0.000439376
0.000439207
0.000439015
0.000438797
0.000438551
0.000438274
0.000437963
0.000437616
0.000437229
0.0004368
0.000436326
0.000435804
0.000435232
0.000434607
0.000433928
0.000433197
0.000432415
0.000431596
0.000430763
0.000429957
0.00108303
0.00108491
0.00108683
0.00108871
0.00109051
0.00109219
0.00109374
0.00109518
0.00109649
0.00109768
0.00109877
0.00109975
0.00110064
0.00110143
0.00110215
0.00110278
0.00110334
0.00110384
0.00110428
0.00110467
0.001105
0.00110529
0.00110554
0.00110575
0.00110593
0.00110607
0.00110618
0.00110626
0.00110632
0.00110634
0.00110634
0.00110632
0.00110626
0.00110618
0.00110607
0.00110593
0.00110575
0.00110554
0.00110529
0.001105
0.00110467
0.00110428
0.00110384
0.00110334
0.00110278
0.00110215
0.00110143
0.00110064
0.00109975
0.00109877
0.00109768
0.00109649
0.00109518
0.00109374
0.00109219
0.00109051
0.00108871
0.00108683
0.00108491
0.00108303
0.00244126
0.00244506
0.00244893
0.0024527
0.0024563
0.00245965
0.00246276
0.00246563
0.00246825
0.00247064
0.00247281
0.00247477
0.00247653
0.00247812
0.00247954
0.00248081
0.00248193
0.00248293
0.00248381
0.00248457
0.00248524
0.00248582
0.00248632
0.00248674
0.00248708
0.00248737
0.00248759
0.00248775
0.00248786
0.00248791
0.00248791
0.00248786
0.00248775
0.00248759
0.00248737
0.00248708
0.00248674
0.00248632
0.00248582
0.00248524
0.00248457
0.00248381
0.00248293
0.00248193
0.00248081
0.00247954
0.00247812
0.00247653
0.00247477
0.00247281
0.00247064
0.00246825
0.00246563
0.00246276
0.00245965
0.0024563
0.0024527
0.00244893
0.00244506
0.00244126
0.00488295