/*--------------------------------*- C++ -*----------------------------------*\
| =========                 |                                                 |
| \\      /  F ield         | foam-extend: Open Source CFD                    |
|  \\    /   O peration     | Version:     4.0                                |
|   \\  /    A nd           | Web:         http://www.foam-extend.org         |
|    \\/     M anipulation  |                                                 |
\*---------------------------------------------------------------------------*/
FoamFile
{
    version     2.0;
    format      ascii;
    class       volScalarField;
    location    "13";
    object      dC2;
}
// * * * * * * * * * * * * * * * * * * * * * * * * * * * * * * * * * * * * * //

dimensions      [0 -1 0 0 0 0 0];

internalField   nonuniform List<scalar> 
6960
(
4.83522e-11
4.83521e-11
4.83521e-11
4.83521e-11
4.83521e-11
4.83521e-11
4.83521e-11
4.83521e-11
4.83521e-11
4.83521e-11
4.83521e-11
4.83521e-11
4.83521e-11
4.83521e-11
4.83521e-11
4.83521e-11
4.83521e-11
4.83521e-11
4.83521e-11
4.83521e-11
4.83521e-11
4.83521e-11
4.83521e-11
4.83521e-11
4.83521e-11
4.83521e-11
4.83521e-11
4.83521e-11
4.83521e-11
4.83521e-11
4.83521e-11
4.83521e-11
4.83521e-11
4.83521e-11
4.83521e-11
4.83521e-11
4.83521e-11
4.83521e-11
4.83521e-11
4.83521e-11
4.83521e-11
4.83521e-11
4.83521e-11
4.83521e-11
4.83521e-11
4.83521e-11
4.83521e-11
4.83521e-11
4.83521e-11
4.83521e-11
4.83521e-11
4.83521e-11
4.83521e-11
4.83521e-11
4.83521e-11
4.83521e-11
4.83521e-11
4.83521e-11
4.83521e-11
4.83522e-11
1.25395e-10
1.25395e-10
1.25395e-10
1.25395e-10
1.25395e-10
1.25395e-10
1.25395e-10
1.25395e-10
1.25395e-10
1.25395e-10
1.25395e-10
1.25395e-10
1.25395e-10
1.25395e-10
1.25395e-10
1.25395e-10
1.25395e-10
1.25395e-10
1.25395e-10
1.25395e-10
1.25395e-10
1.25395e-10
1.25395e-10
1.25395e-10
1.25395e-10
1.25395e-10
1.25395e-10
1.25395e-10
1.25395e-10
1.25395e-10
1.25395e-10
1.25395e-10
1.25395e-10
1.25395e-10
1.25395e-10
1.25395e-10
1.25395e-10
1.25395e-10
1.25395e-10
1.25395e-10
1.25395e-10
1.25395e-10
1.25395e-10
1.25395e-10
1.25395e-10
1.25395e-10
1.25395e-10
1.25395e-10
1.25395e-10
1.25395e-10
1.25395e-10
1.25395e-10
1.25395e-10
1.25395e-10
1.25395e-10
1.25395e-10
1.25395e-10
1.25395e-10
1.25395e-10
1.25395e-10
2.30974e-10
2.30974e-10
2.30974e-10
2.30974e-10
2.30974e-10
2.30974e-10
2.30974e-10
2.30974e-10
2.30974e-10
2.30974e-10
2.30974e-10
2.30974e-10
2.30974e-10
2.30974e-10
2.30974e-10
2.30974e-10
2.30974e-10
2.30974e-10
2.30974e-10
2.30974e-10
2.30974e-10
2.30974e-10
2.30974e-10
2.30974e-10
2.30974e-10
2.30974e-10
2.30974e-10
2.30974e-10
2.30974e-10
2.30974e-10
2.30974e-10
2.30974e-10
2.30974e-10
2.30974e-10
2.30974e-10
2.30974e-10
2.30974e-10
2.30974e-10
2.30974e-10
2.30974e-10
2.30974e-10
2.30974e-10
2.30974e-10
2.30974e-10
2.30974e-10
2.30974e-10
2.30974e-10
2.30974e-10
2.30974e-10
2.30974e-10
2.30974e-10
2.30974e-10
2.30974e-10
2.30974e-10
2.30974e-10
2.30974e-10
2.30974e-10
2.30974e-10
2.30974e-10
2.30974e-10
2.99197e-10
2.99197e-10
2.99197e-10
2.99197e-10
2.99197e-10
2.99197e-10
2.99197e-10
2.99197e-10
2.99197e-10
2.99197e-10
2.99197e-10
2.99197e-10
2.99197e-10
2.99197e-10
2.99197e-10
2.99197e-10
2.99197e-10
2.99197e-10
2.99197e-10
2.99197e-10
2.99197e-10
2.99197e-10
2.99197e-10
2.99197e-10
2.99197e-10
2.99197e-10
2.99197e-10
2.99197e-10
2.99197e-10
2.99197e-10
2.99197e-10
2.99197e-10
2.99197e-10
2.99197e-10
2.99197e-10
2.99197e-10
2.99197e-10
2.99197e-10
2.99197e-10
2.99197e-10
2.99197e-10
2.99197e-10
2.99197e-10
2.99197e-10
2.99197e-10
2.99197e-10
2.99197e-10
2.99197e-10
2.99197e-10
2.99198e-10
2.99197e-10
2.99197e-10
2.99197e-10
2.99197e-10
2.99197e-10
2.99197e-10
2.99197e-10
2.99197e-10
2.99197e-10
2.99198e-10
2.15287e-10
2.15287e-10
2.15287e-10
2.15287e-10
2.15287e-10
2.15287e-10
2.15287e-10
2.15287e-10
2.15287e-10
2.15287e-10
2.15287e-10
2.15287e-10
2.15287e-10
2.15287e-10
2.15287e-10
2.15287e-10
2.15287e-10
2.15287e-10
2.15287e-10
2.15287e-10
2.15287e-10
2.15287e-10
2.15287e-10
2.15287e-10
2.15287e-10
2.15287e-10
2.15287e-10
2.15287e-10
2.15287e-10
2.15287e-10
2.15287e-10
2.15287e-10
2.15287e-10
2.15287e-10
2.15287e-10
2.15287e-10
2.15287e-10
2.15287e-10
2.15287e-10
2.15287e-10
2.15287e-10
2.15287e-10
2.15287e-10
2.15287e-10
2.15287e-10
2.15287e-10
2.15287e-10
2.15287e-10
2.15287e-10
2.15287e-10
2.15287e-10
2.15287e-10
2.15287e-10
2.15287e-10
2.15287e-10
2.15287e-10
2.15287e-10
2.15287e-10
2.15287e-10
2.15287e-10
-1.00083e-10
-1.00083e-10
-1.00083e-10
-1.00083e-10
-1.00083e-10
-1.00083e-10
-1.00083e-10
-1.00083e-10
-1.00082e-10
-1.00083e-10
-1.00082e-10
-1.00083e-10
-1.00083e-10
-1.00083e-10
-1.00082e-10
-1.00083e-10
-1.00083e-10
-1.00083e-10
-1.00083e-10
-1.00083e-10
-1.00083e-10
-1.00083e-10
-1.00083e-10
-1.00083e-10
-1.00083e-10
-1.00083e-10
-1.00083e-10
-1.00083e-10
-1.00082e-10
-1.00083e-10
-1.00083e-10
-1.00083e-10
-1.00083e-10
-1.00083e-10
-1.00083e-10
-1.00083e-10
-1.00082e-10
-1.00083e-10
-1.00083e-10
-1.00083e-10
-1.00083e-10
-1.00082e-10
-1.00083e-10
-1.00083e-10
-1.00083e-10
-1.00083e-10
-1.00083e-10
-1.00083e-10
-1.00083e-10
-1.00083e-10
-1.00083e-10
-1.00083e-10
-1.00082e-10
-1.00083e-10
-1.00083e-10
-1.00083e-10
-1.00083e-10
-1.00083e-10
-1.00083e-10
-1.00083e-10
-5.21249e-10
-5.21248e-10
-5.21248e-10
-5.21248e-10
-5.21248e-10
-5.21248e-10
-5.21248e-10
-5.21248e-10
-5.21248e-10
-5.21248e-10
-5.21248e-10
-5.21248e-10
-5.21248e-10
-5.21248e-10
-5.21248e-10
-5.21248e-10
-5.21248e-10
-5.21248e-10
-5.21248e-10
-5.21248e-10
-5.21248e-10
-5.21248e-10
-5.21248e-10
-5.21248e-10
-5.21248e-10
-5.21248e-10
-5.21248e-10
-5.21248e-10
-5.21248e-10
-5.21248e-10
-5.21248e-10
-5.21248e-10
-5.21248e-10
-5.21248e-10
-5.21248e-10
-5.21248e-10
-5.21248e-10
-5.21248e-10
-5.21248e-10
-5.21248e-10
-5.21248e-10
-5.21248e-10
-5.21248e-10
-5.21248e-10
-5.21248e-10
-5.21248e-10
-5.21248e-10
-5.21248e-10
-5.21248e-10
-5.21248e-10
-5.21248e-10
-5.21248e-10
-5.21248e-10
-5.21248e-10
-5.21248e-10
-5.21248e-10
-5.21248e-10
-5.21248e-10
-5.21248e-10
-5.21249e-10
-6.83666e-10
-6.83666e-10
-6.83666e-10
-6.83666e-10
-6.83666e-10
-6.83666e-10
-6.83666e-10
-6.83666e-10
-6.83666e-10
-6.83666e-10
-6.83666e-10
-6.83666e-10
-6.83666e-10
-6.83666e-10
-6.83666e-10
-6.83666e-10
-6.83666e-10
-6.83666e-10
-6.83666e-10
-6.83666e-10
-6.83666e-10
-6.83666e-10
-6.83666e-10
-6.83666e-10
-6.83666e-10
-6.83666e-10
-6.83666e-10
-6.83666e-10
-6.83666e-10
-6.83666e-10
-6.83666e-10
-6.83666e-10
-6.83666e-10
-6.83666e-10
-6.83666e-10
-6.83666e-10
-6.83666e-10
-6.83666e-10
-6.83666e-10
-6.83666e-10
-6.83666e-10
-6.83666e-10
-6.83666e-10
-6.83666e-10
-6.83666e-10
-6.83666e-10
-6.83666e-10
-6.83666e-10
-6.83666e-10
-6.83666e-10
-6.83666e-10
-6.83666e-10
-6.83666e-10
-6.83666e-10
-6.83666e-10
-6.83666e-10
-6.83666e-10
-6.83665e-10
-6.83665e-10
-6.83666e-10
-3.13182e-10
-3.13183e-10
-3.13183e-10
-3.13184e-10
-3.13184e-10
-3.13184e-10
-3.13184e-10
-3.13184e-10
-3.13184e-10
-3.13184e-10
-3.13184e-10
-3.13184e-10
-3.13184e-10
-3.13184e-10
-3.13184e-10
-3.13184e-10
-3.13184e-10
-3.13184e-10
-3.13184e-10
-3.13184e-10
-3.13184e-10
-3.13184e-10
-3.13184e-10
-3.13184e-10
-3.13184e-10
-3.13184e-10
-3.13184e-10
-3.13184e-10
-3.13184e-10
-3.13184e-10
-3.13184e-10
-3.13184e-10
-3.13184e-10
-3.13184e-10
-3.13184e-10
-3.13184e-10
-3.13184e-10
-3.13184e-10
-3.13184e-10
-3.13184e-10
-3.13184e-10
-3.13184e-10
-3.13184e-10
-3.13184e-10
-3.13184e-10
-3.13184e-10
-3.13184e-10
-3.13184e-10
-3.13184e-10
-3.13184e-10
-3.13184e-10
-3.13184e-10
-3.13184e-10
-3.13184e-10
-3.13184e-10
-3.13184e-10
-3.13184e-10
-3.13184e-10
-3.13183e-10
-3.13182e-10
3.60776e-10
3.60774e-10
3.60773e-10
3.60774e-10
3.60773e-10
3.60773e-10
3.60774e-10
3.60774e-10
3.60774e-10
3.60774e-10
3.60773e-10
3.60774e-10
3.60773e-10
3.60774e-10
3.60774e-10
3.60773e-10
3.60774e-10
3.60773e-10
3.60773e-10
3.60774e-10
3.60774e-10
3.60773e-10
3.60773e-10
3.60773e-10
3.60774e-10
3.60774e-10
3.60774e-10
3.60774e-10
3.60773e-10
3.60773e-10
3.60774e-10
3.60774e-10
3.60774e-10
3.60774e-10
3.60773e-10
3.60774e-10
3.60773e-10
3.60774e-10
3.60773e-10
3.60773e-10
3.60774e-10
3.60773e-10
3.60773e-10
3.60773e-10
3.60774e-10
3.60774e-10
3.60773e-10
3.60773e-10
3.60773e-10
3.60773e-10
3.60773e-10
3.60774e-10
3.60774e-10
3.60773e-10
3.60773e-10
3.60773e-10
3.60773e-10
3.60773e-10
3.60774e-10
3.60775e-10
7.55432e-10
7.55432e-10
7.55432e-10
7.55432e-10
7.55432e-10
7.55433e-10
7.55432e-10
7.55432e-10
7.55432e-10
7.55432e-10
7.55432e-10
7.55432e-10
7.55432e-10
7.55432e-10
7.55432e-10
7.55432e-10
7.55432e-10
7.55432e-10
7.55433e-10
7.55432e-10
7.55432e-10
7.55432e-10
7.55432e-10
7.55432e-10
7.55432e-10
7.55432e-10
7.55432e-10
7.55432e-10
7.55432e-10
7.55432e-10
7.55432e-10
7.55432e-10
7.55432e-10
7.55432e-10
7.55432e-10
7.55433e-10
7.55432e-10
7.55432e-10
7.55432e-10
7.55433e-10
7.55432e-10
7.55432e-10
7.55433e-10
7.55433e-10
7.55433e-10
7.55432e-10
7.55432e-10
7.55432e-10
7.55432e-10
7.55433e-10
7.55433e-10
7.55432e-10
7.55432e-10
7.55432e-10
7.55432e-10
7.55432e-10
7.55432e-10
7.55431e-10
7.55432e-10
7.55433e-10
5.87027e-10
5.87027e-10
5.87027e-10
5.87028e-10
5.87028e-10
5.87028e-10
5.87027e-10
5.87028e-10
5.87028e-10
5.87028e-10
5.87028e-10
5.87028e-10
5.87028e-10
5.87028e-10
5.87028e-10
5.87028e-10
5.87028e-10
5.87028e-10
5.87028e-10
5.87028e-10
5.87028e-10
5.87028e-10
5.87028e-10
5.87028e-10
5.87028e-10
5.87028e-10
5.87028e-10
5.87028e-10
5.87028e-10
5.87028e-10
5.87028e-10
5.87028e-10
5.87028e-10
5.87028e-10
5.87028e-10
5.87028e-10
5.87028e-10
5.87027e-10
5.87028e-10
5.87028e-10
5.87028e-10
5.87028e-10
5.87027e-10
5.87027e-10
5.87027e-10
5.87027e-10
5.87028e-10
5.87028e-10
5.87028e-10
5.87028e-10
5.87028e-10
5.87028e-10
5.87028e-10
5.87028e-10
5.87028e-10
5.87028e-10
5.87028e-10
5.87028e-10
5.87027e-10
5.87026e-10
1.32433e-10
1.32435e-10
1.32435e-10
1.32436e-10
1.32435e-10
1.32436e-10
1.32435e-10
1.32435e-10
1.32435e-10
1.32435e-10
1.32436e-10
1.32435e-10
1.32436e-10
1.32435e-10
1.32436e-10
1.32436e-10
1.32436e-10
1.32436e-10
1.32436e-10
1.32435e-10
1.32435e-10
1.32436e-10
1.32436e-10
1.32435e-10
1.32435e-10
1.32435e-10
1.32435e-10
1.32435e-10
1.32435e-10
1.32435e-10
1.32435e-10
1.32435e-10
1.32435e-10
1.32435e-10
1.32434e-10
1.32435e-10
1.32435e-10
1.32435e-10
1.32435e-10
1.32435e-10
1.32436e-10
1.32436e-10
1.32436e-10
1.32436e-10
1.32435e-10
1.32435e-10
1.32435e-10
1.32435e-10
1.32436e-10
1.32436e-10
1.32435e-10
1.32435e-10
1.32435e-10
1.32435e-10
1.32435e-10
1.32435e-10
1.32435e-10
1.32435e-10
1.32434e-10
1.32434e-10
-1.96828e-10
-1.96828e-10
-1.96828e-10
-1.96829e-10
-1.96828e-10
-1.96828e-10
-1.96828e-10
-1.96828e-10
-1.96828e-10
-1.96828e-10
-1.96828e-10
-1.96828e-10
-1.96829e-10
-1.96828e-10
-1.96827e-10
-1.96828e-10
-1.96828e-10
-1.96828e-10
-1.96828e-10
-1.96828e-10
-1.96827e-10
-1.96828e-10
-1.96829e-10
-1.96828e-10
-1.96828e-10
-1.96828e-10
-1.96828e-10
-1.96827e-10
-1.96828e-10
-1.96828e-10
-1.96828e-10
-1.96827e-10
-1.96828e-10
-1.96828e-10
-1.96828e-10
-1.96828e-10
-1.96827e-10
-1.96827e-10
-1.96828e-10
-1.96828e-10
-1.96829e-10
-1.96828e-10
-1.96828e-10
-1.96827e-10
-1.96828e-10
-1.96827e-10
-1.96828e-10
-1.96828e-10
-1.96828e-10
-1.96828e-10
-1.96828e-10
-1.96828e-10
-1.96828e-10
-1.96828e-10
-1.96828e-10
-1.96828e-10
-1.96828e-10
-1.96828e-10
-1.96828e-10
-1.96829e-10
-2.72438e-10
-2.72437e-10
-2.72437e-10
-2.72437e-10
-2.72438e-10
-2.72438e-10
-2.72438e-10
-2.72438e-10
-2.72439e-10
-2.72437e-10
-2.72438e-10
-2.72438e-10
-2.72438e-10
-2.72438e-10
-2.72438e-10
-2.72437e-10
-2.72439e-10
-2.72438e-10
-2.72437e-10
-2.72437e-10
-2.72438e-10
-2.72438e-10
-2.72437e-10
-2.72437e-10
-2.72438e-10
-2.72438e-10
-2.72438e-10
-2.72439e-10
-2.72437e-10
-2.72437e-10
-2.72438e-10
-2.72438e-10
-2.72437e-10
-2.72438e-10
-2.72439e-10
-2.72438e-10
-2.72437e-10
-2.72438e-10
-2.72437e-10
-2.72437e-10
-2.72438e-10
-2.72437e-10
-2.72438e-10
-2.72439e-10
-2.72438e-10
-2.72438e-10
-2.72438e-10
-2.72438e-10
-2.72438e-10
-2.72437e-10
-2.72438e-10
-2.72437e-10
-2.72437e-10
-2.72438e-10
-2.72438e-10
-2.72438e-10
-2.72438e-10
-2.72437e-10
-2.72438e-10
-2.72437e-10
-2.0835e-10
-2.08349e-10
-2.08349e-10
-2.0835e-10
-2.08349e-10
-2.08349e-10
-2.08349e-10
-2.08349e-10
-2.08348e-10
-2.0835e-10
-2.08349e-10
-2.0835e-10
-2.08349e-10
-2.0835e-10
-2.0835e-10
-2.0835e-10
-2.08349e-10
-2.08349e-10
-2.08349e-10
-2.0835e-10
-2.08349e-10
-2.08348e-10
-2.0835e-10
-2.08349e-10
-2.08349e-10
-2.08351e-10
-2.0835e-10
-2.08348e-10
-2.08351e-10
-2.0835e-10
-2.08349e-10
-2.0835e-10
-2.08351e-10
-2.0835e-10
-2.08349e-10
-2.0835e-10
-2.0835e-10
-2.0835e-10
-2.0835e-10
-2.08349e-10
-2.0835e-10
-2.0835e-10
-2.08348e-10
-2.08347e-10
-2.08349e-10
-2.08349e-10
-2.0835e-10
-2.08349e-10
-2.0835e-10
-2.0835e-10
-2.08349e-10
-2.08348e-10
-2.08351e-10
-2.0835e-10
-2.08349e-10
-2.0835e-10
-2.08349e-10
-2.08349e-10
-2.08349e-10
-2.0835e-10
-1.33122e-10
-1.33121e-10
-1.33123e-10
-1.33122e-10
-1.33122e-10
-1.33123e-10
-1.33123e-10
-1.33121e-10
-1.33124e-10
-1.33122e-10
-1.33122e-10
-1.33121e-10
-1.33122e-10
-1.33121e-10
-1.33122e-10
-1.33122e-10
-1.33123e-10
-1.33124e-10
-1.33122e-10
-1.33121e-10
-1.33123e-10
-1.33124e-10
-1.33123e-10
-1.33123e-10
-1.33122e-10
-1.33121e-10
-1.33121e-10
-1.33123e-10
-1.33121e-10
-1.33123e-10
-1.33122e-10
-1.33121e-10
-1.33122e-10
-1.33122e-10
-1.33122e-10
-1.33123e-10
-1.33121e-10
-1.33122e-10
-1.33123e-10
-1.33122e-10
-1.33123e-10
-1.33122e-10
-1.33123e-10
-1.33124e-10
-1.33124e-10
-1.33121e-10
-1.33122e-10
-1.33123e-10
-1.33122e-10
-1.33122e-10
-1.33123e-10
-1.33125e-10
-1.33122e-10
-1.33122e-10
-1.33121e-10
-1.33121e-10
-1.33123e-10
-1.33122e-10
-1.33121e-10
-1.33121e-10
-9.12984e-11
-9.12995e-11
-9.1297e-11
-9.12978e-11
-9.12969e-11
-9.12972e-11
-9.12976e-11
-9.13005e-11
-9.12956e-11
-9.12967e-11
-9.12973e-11
-9.12981e-11
-9.1298e-11
-9.12989e-11
-9.1298e-11
-9.12989e-11
-9.12963e-11
-9.12946e-11
-9.12978e-11
-9.1296e-11
-9.12957e-11
-9.12961e-11
-9.12986e-11
-9.12969e-11
-9.12976e-11
-9.12977e-11
-9.12983e-11
-9.12968e-11
-9.1298e-11
-9.12977e-11
-9.12985e-11
-9.12993e-11
-9.12968e-11
-9.1297e-11
-9.12973e-11
-9.12955e-11
-9.12978e-11
-9.12994e-11
-9.12968e-11
-9.12966e-11
-9.12984e-11
-9.12953e-11
-9.12983e-11
-9.12959e-11
-9.12965e-11
-9.12972e-11
-9.12975e-11
-9.12982e-11
-9.12969e-11
-9.1298e-11
-9.12986e-11
-9.12931e-11
-9.12975e-11
-9.12963e-11
-9.12973e-11
-9.12974e-11
-9.12971e-11
-9.12982e-11
-9.12989e-11
-9.12985e-11
-7.31029e-11
-7.31009e-11
-7.31035e-11
-7.31015e-11
-7.31037e-11
-7.31032e-11
-7.31039e-11
-7.31012e-11
-7.31037e-11
-7.31047e-11
-7.31043e-11
-7.31054e-11
-7.31042e-11
-7.31038e-11
-7.31019e-11
-7.31022e-11
-7.31034e-11
-7.31077e-11
-7.31034e-11
-7.31047e-11
-7.31033e-11
-7.31053e-11
-7.31017e-11
-7.31047e-11
-7.31011e-11
-7.3103e-11
-7.31021e-11
-7.31041e-11
-7.31037e-11
-7.31036e-11
-7.31022e-11
-7.31032e-11
-7.31026e-11
-7.31029e-11
-7.31025e-11
-7.3106e-11
-7.31044e-11
-7.31023e-11
-7.31033e-11
-7.31023e-11
-7.31046e-11
-7.31047e-11
-7.31023e-11
-7.31044e-11
-7.3104e-11
-7.31031e-11
-7.31036e-11
-7.31017e-11
-7.31035e-11
-7.31032e-11
-7.31019e-11
-7.31077e-11
-7.31031e-11
-7.31048e-11
-7.31044e-11
-7.31045e-11
-7.31026e-11
-7.31038e-11
-7.31023e-11
-7.31008e-11
-6.11266e-11
-6.11261e-11
-6.11253e-11
-6.11281e-11
-6.11275e-11
-6.11249e-11
-6.11229e-11
-6.11248e-11
-6.11261e-11
-6.11241e-11
-6.11241e-11
-6.11231e-11
-6.11244e-11
-6.1123e-11
-6.11256e-11
-6.11256e-11
-6.11268e-11
-6.11228e-11
-6.11251e-11
-6.11259e-11
-6.11248e-11
-6.11245e-11
-6.11256e-11
-6.11233e-11
-6.1128e-11
-6.11249e-11
-6.11277e-11
-6.11237e-11
-6.11254e-11
-6.1123e-11
-6.11266e-11
-6.11247e-11
-6.11268e-11
-6.1125e-11
-6.11273e-11
-6.11228e-11
-6.11246e-11
-6.11255e-11
-6.11268e-11
-6.11252e-11
-6.11239e-11
-6.11258e-11
-6.11268e-11
-6.11253e-11
-6.1125e-11
-6.11251e-11
-6.11238e-11
-6.11251e-11
-6.11242e-11
-6.11242e-11
-6.11248e-11
-6.11243e-11
-6.11254e-11
-6.11241e-11
-6.11237e-11
-6.11252e-11
-6.1125e-11
-6.11249e-11
-6.1125e-11
-6.11271e-11
-4.79169e-11
-4.79164e-11
-4.79174e-11
-4.79165e-11
-4.79176e-11
-4.79175e-11
-4.79187e-11
-4.79176e-11
-4.79154e-11
-4.79174e-11
-4.79182e-11
-4.79175e-11
-4.79164e-11
-4.79195e-11
-4.79159e-11
-4.79163e-11
-4.7916e-11
-4.79173e-11
-4.79157e-11
-4.79164e-11
-4.79181e-11
-4.79171e-11
-4.79175e-11
-4.79175e-11
-4.7917e-11
-4.79198e-11
-4.79142e-11
-4.79199e-11
-4.79187e-11
-4.79186e-11
-4.79178e-11
-4.79177e-11
-4.79156e-11
-4.79173e-11
-4.79161e-11
-4.79189e-11
-4.79171e-11
-4.79143e-11
-4.79166e-11
-4.79162e-11
-4.79182e-11
-4.79161e-11
-4.79176e-11
-4.79171e-11
-4.7916e-11
-4.79167e-11
-4.79176e-11
-4.79177e-11
-4.79178e-11
-4.79185e-11
-4.79179e-11
-4.79167e-11
-4.79168e-11
-4.79178e-11
-4.79176e-11
-4.79159e-11
-4.79171e-11
-4.79154e-11
-4.79184e-11
-4.79149e-11
-3.38688e-11
-3.38734e-11
-3.38718e-11
-3.38707e-11
-3.38692e-11
-3.38712e-11
-3.38714e-11
-3.38725e-11
-3.38739e-11
-3.3873e-11
-3.38722e-11
-3.38706e-11
-3.38702e-11
-3.3869e-11
-3.38751e-11
-3.38734e-11
-3.387e-11
-3.38733e-11
-3.38734e-11
-3.38744e-11
-3.38709e-11
-3.38699e-11
-3.38716e-11
-3.3874e-11
-3.38708e-11
-3.38681e-11
-3.38763e-11
-3.38703e-11
-3.38731e-11
-3.38711e-11
-3.38715e-11
-3.38714e-11
-3.38731e-11
-3.38707e-11
-3.38722e-11
-3.38705e-11
-3.3872e-11
-3.38737e-11
-3.38723e-11
-3.38725e-11
-3.38709e-11
-3.38731e-11
-3.3872e-11
-3.38707e-11
-3.38736e-11
-3.38721e-11
-3.38718e-11
-3.38705e-11
-3.38711e-11
-3.38701e-11
-3.38705e-11
-3.38717e-11
-3.38706e-11
-3.38721e-11
-3.387e-11
-3.38745e-11
-3.38736e-11
-3.38732e-11
-3.38733e-11
-3.38732e-11
-2.1431e-11
-2.14259e-11
-2.14297e-11
-2.14278e-11
-2.14301e-11
-2.14288e-11
-2.14279e-11
-2.14304e-11
-2.14289e-11
-2.14299e-11
-2.14275e-11
-2.14301e-11
-2.14277e-11
-2.1427e-11
-2.14261e-11
-2.1426e-11
-2.14287e-11
-2.14277e-11
-2.14271e-11
-2.14259e-11
-2.14267e-11
-2.14312e-11
-2.14267e-11
-2.14273e-11
-2.14292e-11
-2.14301e-11
-2.14256e-11
-2.14308e-11
-2.14246e-11
-2.14294e-11
-2.14285e-11
-2.14286e-11
-2.1428e-11
-2.14286e-11
-2.14278e-11
-2.14274e-11
-2.14262e-11
-2.14278e-11
-2.14312e-11
-2.14286e-11
-2.14293e-11
-2.14261e-11
-2.14273e-11
-2.14283e-11
-2.14259e-11
-2.14274e-11
-2.14279e-11
-2.14297e-11
-2.14301e-11
-2.14284e-11
-2.14298e-11
-2.14284e-11
-2.1431e-11
-2.14279e-11
-2.14299e-11
-2.14265e-11
-2.14256e-11
-2.14286e-11
-2.14257e-11
-2.14291e-11
-1.20438e-11
-1.20443e-11
-1.20407e-11
-1.20433e-11
-1.20432e-11
-1.20427e-11
-1.2044e-11
-1.20426e-11
-1.20432e-11
-1.20407e-11
-1.20425e-11
-1.20407e-11
-1.20435e-11
-1.20437e-11
-1.2041e-11
-1.20417e-11
-1.20429e-11
-1.20429e-11
-1.20431e-11
-1.20438e-11
-1.20437e-11
-1.2043e-11
-1.20461e-11
-1.20427e-11
-1.20423e-11
-1.20414e-11
-1.20429e-11
-1.20394e-11
-1.20452e-11
-1.20414e-11
-1.20426e-11
-1.2042e-11
-1.2043e-11
-1.20425e-11
-1.20454e-11
-1.20428e-11
-1.20457e-11
-1.20423e-11
-1.20384e-11
-1.20432e-11
-1.20424e-11
-1.2043e-11
-1.20432e-11
-1.20434e-11
-1.20449e-11
-1.20436e-11
-1.2042e-11
-1.20422e-11
-1.20429e-11
-1.20436e-11
-1.20424e-11
-1.20402e-11
-1.20419e-11
-1.20439e-11
-1.20442e-11
-1.20424e-11
-1.20426e-11
-1.20416e-11
-1.20438e-11
-1.2044e-11
-5.79734e-12
-5.79931e-12
-5.80045e-12
-5.80048e-12
-5.80221e-12
-5.80224e-12
-5.80211e-12
-5.80238e-12
-5.7973e-12
-5.80456e-12
-5.8023e-12
-5.804e-12
-5.79944e-12
-5.80091e-12
-5.80634e-12
-5.80185e-12
-5.80176e-12
-5.80039e-12
-5.80072e-12
-5.80394e-12
-5.79999e-12
-5.8031e-12
-5.79822e-12
-5.80342e-12
-5.80228e-12
-5.80075e-12
-5.80383e-12
-5.80378e-12
-5.80594e-12
-5.80448e-12
-5.80334e-12
-5.804e-12
-5.80287e-12
-5.79915e-12
-5.80098e-12
-5.80109e-12
-5.79985e-12
-5.80197e-12
-5.8046e-12
-5.80047e-12
-5.80234e-12
-5.80191e-12
-5.80166e-12
-5.79936e-12
-5.80228e-12
-5.80388e-12
-5.80189e-12
-5.80145e-12
-5.80259e-12
-5.8002e-12
-5.80143e-12
-5.80333e-12
-5.80386e-12
-5.80111e-12
-5.80175e-12
-5.80189e-12
-5.80432e-12
-5.80295e-12
-5.80122e-12
-5.79953e-12
-2.05214e-12
-2.04785e-12
-2.04948e-12
-2.04785e-12
-2.04485e-12
-2.04763e-12
-2.04609e-12
-2.04956e-12
-2.05279e-12
-2.04984e-12
-2.04729e-12
-2.04609e-12
-2.04927e-12
-2.04472e-12
-2.04323e-12
-2.04849e-12
-2.04827e-12
-2.05149e-12
-2.0451e-12
-2.04571e-12
-2.04992e-12
-2.04453e-12
-2.0525e-12
-2.04389e-12
-2.04704e-12
-2.05021e-12
-2.0463e-12
-2.04788e-12
-2.04659e-12
-2.04577e-12
-2.04588e-12
-2.04636e-12
-2.04814e-12
-2.05081e-12
-2.04676e-12
-2.04671e-12
-2.04949e-12
-2.04816e-12
-2.046e-12
-2.04633e-12
-2.04778e-12
-2.04686e-12
-2.04824e-12
-2.04949e-12
-2.04573e-12
-2.04511e-12
-2.04951e-12
-2.04685e-12
-2.04879e-12
-2.04852e-12
-2.04763e-12
-2.04706e-12
-2.04351e-12
-2.04694e-12
-2.04842e-12
-2.04928e-12
-2.04562e-12
-2.04845e-12
-2.04667e-12
-2.05027e-12
2.61274e-14
2.72856e-14
2.85849e-14
2.56848e-14
2.53034e-14
2.58662e-14
2.56903e-14
2.80993e-14
2.96837e-14
2.63777e-14
2.31091e-14
2.57654e-14
2.89161e-14
2.26314e-14
2.51601e-14
2.71909e-14
2.93759e-14
2.99308e-14
2.56034e-14
2.48428e-14
2.73204e-14
2.57371e-14
2.86597e-14
2.32341e-14
2.64262e-14
2.74273e-14
2.47562e-14
2.56733e-14
2.65824e-14
2.46957e-14
2.60965e-14
2.55817e-14
2.49551e-14
2.93154e-14
2.67673e-14
2.60928e-14
2.80057e-14
2.79121e-14
2.22937e-14
2.68417e-14
2.6656e-14
2.42676e-14
2.79986e-14
2.54503e-14
2.66071e-14
2.6969e-14
2.95475e-14
2.59961e-14
2.95832e-14
2.75532e-14
2.92176e-14
2.59427e-14
2.23006e-14
2.40704e-14
2.71409e-14
2.97507e-14
2.73752e-14
2.92566e-14
2.47329e-14
2.60775e-14
1.07668e-12
1.07651e-12
1.07611e-12
1.07819e-12
1.07656e-12
1.07921e-12
1.07591e-12
1.07153e-12
1.07688e-12
1.07517e-12
1.0789e-12
1.07402e-12
1.07263e-12
1.07936e-12
1.07786e-12
1.08071e-12
1.07374e-12
1.07592e-12
1.07835e-12
1.07613e-12
1.07507e-12
1.07532e-12
1.07637e-12
1.07516e-12
1.07712e-12
1.07588e-12
1.07658e-12
1.07517e-12
1.07633e-12
1.07499e-12
1.07809e-12
1.07641e-12
1.07621e-12
1.07271e-12
1.07408e-12
1.0755e-12
1.07375e-12
1.07651e-12
1.07927e-12
1.0764e-12
1.0769e-12
1.07849e-12
1.07549e-12
1.07912e-12
1.07539e-12
1.07627e-12
1.0759e-12
1.07386e-12
1.07499e-12
1.07276e-12
1.07389e-12
1.07556e-12
1.08164e-12
1.07913e-12
1.07639e-12
1.07305e-12
1.07316e-12
1.07399e-12
1.0766e-12
1.07908e-12
1.54321e-12
1.54642e-12
1.54541e-12
1.54338e-12
1.54462e-12
1.5364e-12
1.54373e-12
1.54632e-12
1.54383e-12
1.54531e-12
1.54483e-12
1.54811e-12
1.54612e-12
1.54278e-12
1.54324e-12
1.54202e-12
1.54185e-12
1.54468e-12
1.54162e-12
1.54737e-12
1.54513e-12
1.54221e-12
1.54308e-12
1.54509e-12
1.54276e-12
1.54384e-12
1.54552e-12
1.54774e-12
1.54393e-12
1.54538e-12
1.54287e-12
1.54551e-12
1.54355e-12
1.54545e-12
1.5451e-12
1.54433e-12
1.54708e-12
1.54067e-12
1.54244e-12
1.54524e-12
1.54121e-12
1.54361e-12
1.5414e-12
1.54094e-12
1.54379e-12
1.54347e-12
1.545e-12
1.54661e-12
1.54169e-12
1.54588e-12
1.54221e-12
1.54553e-12
1.5418e-12
1.5449e-12
1.54306e-12
1.54748e-12
1.54442e-12
1.54345e-12
1.54182e-12
1.5421e-12
1.70148e-12
1.69857e-12
1.7022e-12
1.70202e-12
1.70041e-12
1.70777e-12
1.70104e-12
1.70047e-12
1.69874e-12
1.69859e-12
1.69828e-12
1.70225e-12
1.69891e-12
1.69934e-12
1.70473e-12
1.69892e-12
1.7062e-12
1.70324e-12
1.70048e-12
1.6951e-12
1.70109e-12
1.70497e-12
1.69761e-12
1.7016e-12
1.70342e-12
1.69718e-12
1.69629e-12
1.69704e-12
1.70372e-12
1.69803e-12
1.7031e-12
1.70175e-12
1.70031e-12
1.6996e-12
1.70166e-12
1.70263e-12
1.69743e-12
1.70704e-12
1.70248e-12
1.70085e-12
1.7026e-12
1.70064e-12
1.69924e-12
1.70552e-12
1.69989e-12
1.70382e-12
1.70073e-12
1.69877e-12
1.70526e-12
1.70338e-12
1.7031e-12
1.70212e-12
1.70141e-12
1.69796e-12
1.70013e-12
1.70124e-12
1.70208e-12
1.70278e-12
1.70434e-12
1.70203e-12
1.69813e-12
1.69901e-12
1.69876e-12
1.69617e-12
1.6943e-12
1.6962e-12
1.69473e-12
1.69555e-12
1.69881e-12
1.70078e-12
1.69746e-12
1.69262e-12
1.69833e-12
1.69868e-12
1.69074e-12
1.69884e-12
1.69306e-12
1.69414e-12
1.6956e-12
1.69714e-12
1.69593e-12
1.69439e-12
1.70266e-12
1.69343e-12
1.69402e-12
1.70179e-12
1.69913e-12
1.69791e-12
1.69618e-12
1.69528e-12
1.69164e-12
1.6953e-12
1.69596e-12
1.69371e-12
1.6953e-12
1.69341e-12
1.69979e-12
1.69334e-12
1.69434e-12
1.69506e-12
1.69571e-12
1.69824e-12
1.69731e-12
1.69408e-12
1.69742e-12
1.69628e-12
1.69273e-12
1.70038e-12
1.6927e-12
1.69127e-12
1.69633e-12
1.69536e-12
1.69707e-12
1.69995e-12
1.69774e-12
1.69028e-12
1.69348e-12
1.69435e-12
1.69812e-12
1.69385e-12
1.61284e-12
1.61092e-12
1.61168e-12
1.61183e-12
1.6147e-12
1.6125e-12
1.6073e-12
1.61314e-12
1.61101e-12
1.60984e-12
1.61399e-12
1.61466e-12
1.6121e-12
1.61207e-12
1.61682e-12
1.61125e-12
1.61618e-12
1.61468e-12
1.61138e-12
1.61202e-12
1.61171e-12
1.61153e-12
1.61005e-12
1.61509e-12
1.61406e-12
1.61117e-12
1.61152e-12
1.61115e-12
1.60918e-12
1.61337e-12
1.61505e-12
1.61325e-12
1.61489e-12
1.61466e-12
1.613e-12
1.61373e-12
1.61005e-12
1.61211e-12
1.61376e-12
1.61377e-12
1.61356e-12
1.61186e-12
1.6111e-12
1.61326e-12
1.6131e-12
1.61303e-12
1.61846e-12
1.60823e-12
1.6153e-12
1.61435e-12
1.61087e-12
1.61064e-12
1.61474e-12
1.60744e-12
1.61143e-12
1.61527e-12
1.61455e-12
1.61265e-12
1.608e-12
1.61404e-12
1.49133e-12
1.4959e-12
1.49278e-12
1.49537e-12
1.49509e-12
1.49141e-12
1.49841e-12
1.49577e-12
1.49592e-12
1.49455e-12
1.49678e-12
1.49346e-12
1.49379e-12
1.49378e-12
1.49471e-12
1.49692e-12
1.49199e-12
1.49262e-12
1.49621e-12
1.4947e-12
1.49177e-12
1.49551e-12
1.49324e-12
1.49523e-12
1.49608e-12
1.49185e-12
1.49419e-12
1.49399e-12
1.49774e-12
1.49303e-12
1.49051e-12
1.49566e-12
1.49303e-12
1.49503e-12
1.49756e-12
1.49024e-12
1.49586e-12
1.49599e-12
1.49267e-12
1.49283e-12
1.49133e-12
1.49253e-12
1.4952e-12
1.49329e-12
1.49587e-12
1.49439e-12
1.48975e-12
1.49646e-12
1.49113e-12
1.49348e-12
1.49812e-12
1.495e-12
1.49289e-12
1.49785e-12
1.49611e-12
1.49434e-12
1.49532e-12
1.49398e-12
1.49597e-12
1.49524e-12
1.36596e-12
1.36291e-12
1.36645e-12
1.36224e-12
1.36085e-12
1.36474e-12
1.36564e-12
1.36176e-12
1.36219e-12
1.36448e-12
1.3583e-12
1.36518e-12
1.36151e-12
1.36725e-12
1.36193e-12
1.36251e-12
1.36702e-12
1.36067e-12
1.36196e-12
1.36275e-12
1.36594e-12
1.36192e-12
1.36318e-12
1.36211e-12
1.35891e-12
1.36474e-12
1.36414e-12
1.3649e-12
1.35983e-12
1.36759e-12
1.36454e-12
1.36274e-12
1.3624e-12
1.3619e-12
1.36238e-12
1.36831e-12
1.36268e-12
1.36711e-12
1.3616e-12
1.36343e-12
1.3651e-12
1.36699e-12
1.3628e-12
1.36387e-12
1.3634e-12
1.36377e-12
1.36799e-12
1.36271e-12
1.36852e-12
1.36303e-12
1.36424e-12
1.3655e-12
1.36657e-12
1.36342e-12
1.36644e-12
1.36457e-12
1.36616e-12
1.36568e-12
1.36611e-12
1.36476e-12
1.23096e-12
1.23724e-12
1.23289e-12
1.23733e-12
1.2364e-12
1.23467e-12
1.23068e-12
1.23569e-12
1.23182e-12
1.23507e-12
1.23766e-12
1.23038e-12
1.2341e-12
1.23007e-12
1.23699e-12
1.23184e-12
1.22771e-12
1.23411e-12
1.23264e-12
1.23291e-12
1.23473e-12
1.23448e-12
1.2366e-12
1.23703e-12
1.2365e-12
1.23176e-12
1.23044e-12
1.23413e-12
1.23714e-12
1.23261e-12
1.23127e-12
1.23206e-12
1.23292e-12
1.23421e-12
1.23537e-12
1.22773e-12
1.23426e-12
1.23319e-12
1.23728e-12
1.23294e-12
1.23392e-12
1.23056e-12
1.23437e-12
1.23522e-12
1.23126e-12
1.2342e-12
1.23363e-12
1.23478e-12
1.22926e-12
1.23339e-12
1.22907e-12
1.23362e-12
1.2313e-12
1.2325e-12
1.22928e-12
1.23268e-12
1.23399e-12
1.23024e-12
1.23015e-12
1.2333e-12
1.11214e-12
1.10554e-12
1.11031e-12
1.1083e-12
1.11157e-12
1.10912e-12
1.11186e-12
1.10977e-12
1.11411e-12
1.10545e-12
1.11206e-12
1.1115e-12
1.10877e-12
1.1133e-12
1.10892e-12
1.11035e-12
1.10977e-12
1.11323e-12
1.1095e-12
1.10949e-12
1.10847e-12
1.11389e-12
1.10949e-12
1.10599e-12
1.10565e-12
1.113e-12
1.11412e-12
1.10704e-12
1.10555e-12
1.10628e-12
1.11057e-12
1.1099e-12
1.1122e-12
1.11036e-12
1.10777e-12
1.10934e-12
1.10837e-12
1.10635e-12
1.10615e-12
1.11216e-12
1.10895e-12
1.11383e-12
1.10503e-12
1.10825e-12
1.1124e-12
1.10786e-12
1.10767e-12
1.11026e-12
1.1129e-12
1.11431e-12
1.10808e-12
1.10849e-12
1.10871e-12
1.10893e-12
1.11277e-12
1.11669e-12
1.10876e-12
1.11076e-12
1.11556e-12
1.11044e-12
9.93176e-13
9.96288e-13
9.93603e-13
9.91232e-13
9.89594e-13
9.95596e-13
9.94376e-13
9.98287e-13
9.86796e-13
9.96159e-13
9.91174e-13
9.92937e-13
9.92949e-13
9.90794e-13
9.93664e-13
9.94539e-13
9.9637e-13
9.90739e-13
9.91334e-13
9.95909e-13
9.96704e-13
9.90765e-13
9.92028e-13
9.98067e-13
9.93356e-13
9.93655e-13
9.89013e-13
9.99682e-13
9.98718e-13
9.92978e-13
9.94161e-13
9.93307e-13
9.91948e-13
9.96159e-13
9.99747e-13
9.94505e-13
9.9431e-13
9.96572e-13
9.98462e-13
9.90217e-13
9.98819e-13
9.88999e-13
9.97254e-13
9.9296e-13
9.89811e-13
1.00014e-12
9.98107e-13
9.96993e-13
9.88357e-13
9.89076e-13
9.96521e-13
9.95403e-13
9.9462e-13
9.96199e-13
9.9496e-13
9.87911e-13
9.92257e-13
9.97542e-13
9.93371e-13
9.91278e-13
8.88911e-13
8.89159e-13
8.91549e-13
8.91373e-13
8.92498e-13
8.87479e-13
8.87629e-13
8.84857e-13
8.93378e-13
8.92422e-13
8.94018e-13
8.8832e-13
8.95339e-13
8.91813e-13
8.88444e-13
8.89963e-13
8.86831e-13
8.89358e-13
8.91398e-13
8.89084e-13
8.88536e-13
8.89053e-13
8.91861e-13
8.85152e-13
8.89948e-13
8.89041e-13
8.93938e-13
8.85968e-13
8.8644e-13
8.91563e-13
8.90695e-13
8.88449e-13
8.88797e-13
8.86178e-13
8.847e-13
8.89432e-13
8.85891e-13
8.86452e-13
8.85656e-13
8.88355e-13
8.85206e-13
8.89445e-13
8.90745e-13
8.92968e-13
8.93977e-13
8.86643e-13
8.92075e-13
8.858e-13
8.93447e-13
8.92532e-13
8.91657e-13
8.86358e-13
8.85293e-13
8.86709e-13
8.92892e-13
8.94042e-13
8.92152e-13
8.8773e-13
8.88268e-13
8.91005e-13
7.95479e-13
7.95703e-13
7.91174e-13
7.97107e-13
7.94818e-13
7.97112e-13
7.97612e-13
7.97732e-13
7.92208e-13
7.9235e-13
7.92794e-13
7.95485e-13
7.93657e-13
7.92856e-13
7.95893e-13
7.96047e-13
7.9706e-13
7.95608e-13
7.9637e-13
7.94396e-13
7.94723e-13
7.92229e-13
7.96033e-13
8.00519e-13
7.9559e-13
7.92263e-13
7.96056e-13
7.94641e-13
7.97839e-13
7.94825e-13
7.92867e-13
7.97129e-13
7.97579e-13
7.94542e-13
7.93755e-13
7.9263e-13
7.99702e-13
7.95475e-13
7.99859e-13
7.97298e-13
7.98381e-13
7.94422e-13
7.94854e-13
7.86911e-13
7.92665e-13
7.94856e-13
7.87082e-13
7.95952e-13
7.94099e-13
7.95072e-13
7.93351e-13
7.97653e-13
7.98593e-13
7.95098e-13
7.9151e-13
7.91135e-13
7.95691e-13
7.96272e-13
8.00975e-13
7.94828e-13
7.08689e-13
7.09406e-13
7.09443e-13
7.0908e-13
7.0944e-13
7.13196e-13
7.04821e-13
7.10233e-13
7.1187e-13
7.1006e-13
7.11879e-13
7.03604e-13
7.09902e-13
7.0945e-13
7.12044e-13
7.11699e-13
7.09122e-13
7.12496e-13