/*--------------------------------*- C++ -*----------------------------------*\
| =========                 |                                                 |
| \\      /  F ield         | foam-extend: Open Source CFD                    |
|  \\    /   O peration     | Version:     4.0                                |
|   \\  /    A nd           | Web:         http://www.foam-extend.org         |
|    \\/     M anipulation  |                                                 |
\*---------------------------------------------------------------------------*/
FoamFile
{
    version     2.0;
    format      ascii;
    class       volVectorField;
    location    "9";
    object      U;
}
// * * * * * * * * * * * * * * * * * * * * * * * * * * * * * * * * * * * * * //

dimensions      [0 1 -1 0 0 0 0];

internalField   nonuniform List<vector> 
6960
(
(-2.04586e-06 -237.321 0)
(-1.46995e-06 -237.314 0)
(9.47115e-07 -237.314 0)
(4.1278e-07 -237.314 0)
(8.81237e-08 -237.314 0)
(5.87735e-08 -237.314 0)
(2.65699e-08 -237.314 0)
(1.96379e-08 -237.314 0)
(1.14169e-08 -237.314 0)
(8.91182e-09 -237.314 0)
(5.88516e-09 -237.314 0)
(4.74744e-09 -237.314 0)
(3.3874e-09 -237.314 0)
(2.78663e-09 -237.314 0)
(2.09387e-09 -237.314 0)
(1.74198e-09 -237.314 0)
(1.35649e-09 -237.314 0)
(1.13491e-09 -237.314 0)
(9.05439e-10 -237.314 0)
(7.58579e-10 -237.314 0)
(6.12985e-10 -237.314 0)
(5.10943e-10 -237.314 0)
(4.1336e-10 -237.314 0)
(3.39074e-10 -237.314 0)
(2.69173e-10 -237.314 0)
(2.11826e-10 -237.314 0)
(1.57688e-10 -237.314 0)
(1.10513e-10 -237.314 0)
(6.46113e-11 -237.314 0)
(2.16306e-11 -237.314 0)
(-2.13032e-11 -237.314 0)
(-6.48429e-11 -237.314 0)
(-1.11376e-10 -237.314 0)
(-1.57536e-10 -237.314 0)
(-2.12114e-10 -237.314 0)
(-2.69868e-10 -237.314 0)
(-3.38711e-10 -237.314 0)
(-4.13555e-10 -237.314 0)
(-5.11592e-10 -237.314 0)
(-6.12473e-10 -237.314 0)
(-7.58585e-10 -237.314 0)
(-9.06144e-10 -237.314 0)
(-1.13447e-09 -237.314 0)
(-1.35658e-09 -237.314 0)
(-1.74257e-09 -237.314 0)
(-2.0933e-09 -237.314 0)
(-2.78657e-09 -237.314 0)
(-3.38778e-09 -237.314 0)
(-4.74684e-09 -237.314 0)
(-5.88518e-09 -237.314 0)
(-8.91227e-09 -237.314 0)
(-1.14158e-08 -237.314 0)
(-1.96373e-08 -237.314 0)
(-2.657e-08 -237.314 0)
(-5.87722e-08 -237.314 0)
(-8.81233e-08 -237.314 0)
(-4.1278e-07 -237.314 0)
(-9.47114e-07 -237.314 0)
(1.46996e-06 -237.314 0)
(2.04586e-06 -237.321 0)
(0.000228011 14.9815 0)
(0.000229767 14.9887 0)
(2.83079e-06 14.9887 0)
(1.20472e-06 14.9887 0)
(2.69515e-07 14.9887 0)
(1.77169e-07 14.9887 0)
(8.09513e-08 14.9887 0)
(5.94099e-08 14.9887 0)
(3.47516e-08 14.9887 0)
(2.6991e-08 14.9887 0)
(1.78967e-08 14.9887 0)
(1.43925e-08 14.9887 0)
(1.02862e-08 14.9887 0)
(8.44333e-09 14.9887 0)
(6.35904e-09 14.9887 0)
(5.26888e-09 14.9887 0)
(4.10972e-09 14.9887 0)
(3.43696e-09 14.9887 0)
(2.73249e-09 14.9887 0)
(2.28962e-09 14.9887 0)
(1.85452e-09 14.9887 0)
(1.53362e-09 14.9887 0)
(1.24406e-09 14.9887 0)
(1.02424e-09 14.9887 0)
(8.02958e-10 14.9887 0)
(6.35282e-10 14.9887 0)
(4.77915e-10 14.9887 0)
(3.25678e-10 14.9887 0)
(1.96537e-10 14.9887 0)
(8.25415e-11 14.9887 0)
(-1.03791e-10 14.9887 0)
(-1.90935e-10 14.9887 0)
(-2.80867e-10 14.9887 0)
(-5.24884e-10 14.9887 0)
(-6.36149e-10 14.9887 0)
(-7.57719e-10 14.9887 0)
(-1.07054e-09 14.9887 0)
(-1.2446e-09 14.9887 0)
(-1.4882e-09 14.9887 0)
(-1.90039e-09 14.9887 0)
(-2.28964e-09 14.9887 0)
(-2.68723e-09 14.9887 0)
(-3.48304e-09 14.9887 0)
(-4.10995e-09 14.9887 0)
(-5.22325e-09 14.9887 0)
(-6.40472e-09 14.9887 0)
(-8.44311e-09 14.9887 0)
(-1.024e-08 14.9887 0)
(-1.44381e-08 14.9887 0)
(-1.78966e-08 14.9887 0)
(-2.69449e-08 14.9887 0)
(-3.47959e-08 14.9887 0)
(-5.94082e-08 14.9887 0)
(-8.0904e-08 14.9887 0)
(-1.77213e-07 14.9887 0)
(-2.69514e-07 14.9887 0)
(-1.20467e-06 14.9887 0)
(-2.83084e-06 14.9887 0)
(-0.000229767 14.9887 0)
(-0.000228011 14.9815 0)
(0.000196338 42.647 0)
(0.000199035 42.6432 0)
(4.43232e-06 42.6432 0)
(1.96029e-06 42.6432 0)
(4.57758e-07 42.6432 0)
(2.97929e-07 42.6432 0)
(1.37375e-07 42.6432 0)
(1.00264e-07 42.6432 0)
(5.89206e-08 42.6432 0)
(4.55947e-08 42.6432 0)
(3.03107e-08 42.6432 0)
(2.4296e-08 42.6432 0)
(1.73941e-08 42.6432 0)
(1.42346e-08 42.6432 0)
(1.07181e-08 42.6432 0)
(8.86463e-09 42.6432 0)
(6.90539e-09 42.6432 0)
(5.75522e-09 42.6432 0)
(4.57555e-09 42.6432 0)
(3.81974e-09 42.6432 0)
(3.08306e-09 42.6432 0)
(2.54999e-09 42.6432 0)
(2.06027e-09 42.6432 0)
(1.68773e-09 42.6432 0)
(1.32731e-09 42.6432 0)
(1.04473e-09 42.6432 0)
(7.80581e-10 42.6432 0)
(5.37829e-10 42.6432 0)
(3.19401e-10 42.6432 0)
(1.21502e-10 42.6432 0)
(-1.39745e-10 42.6432 0)
(-3.15126e-10 42.6432 0)
(-5.00347e-10 42.6432 0)
(-8.2171e-10 42.6432 0)
(-1.04621e-09 42.6432 0)
(-1.28916e-09 42.6432 0)
(-1.72778e-09 42.6432 0)
(-2.06114e-09 42.6432 0)
(-2.51145e-09 42.6432 0)
(-3.12241e-09 42.6432 0)
(-3.81981e-09 42.6432 0)
(-4.53726e-09 42.6432 0)
(-5.79485e-09 42.6432 0)
(-6.90572e-09 42.6432 0)
(-8.8257e-09 42.6432 0)
(-1.07571e-08 42.6432 0)
(-1.42343e-08 42.6432 0)
(-1.73542e-08 42.6432 0)
(-2.43349e-08 42.6432 0)
(-3.03105e-08 42.6432 0)
(-4.55551e-08 42.6432 0)
(-5.89573e-08 42.6432 0)
(-1.00261e-07 42.6432 0)
(-1.37333e-07 42.6432 0)
(-2.97965e-07 42.6432 0)
(-4.57755e-07 42.6432 0)
(-1.96025e-06 42.6432 0)
(-4.43236e-06 42.6432 0)
(-0.000199035 42.6432 0)
(-0.000196338 42.647 0)
(9.0547e-05 10.2759 0)
(9.40578e-05 10.272 0)
(5.84799e-06 10.272 0)
(2.66225e-06 10.272 0)
(6.52244e-07 10.272 0)
(4.20878e-07 10.272 0)
(1.95824e-07 10.272 0)
(1.42188e-07 10.272 0)
(8.39223e-08 10.272 0)
(6.47068e-08 10.272 0)
(4.31131e-08 10.272 0)
(3.44439e-08 10.272 0)
(2.46864e-08 10.272 0)
(2.0138e-08 10.272 0)
(1.51515e-08 10.272 0)
(1.25003e-08 10.272 0)
(9.71852e-09 10.272 0)
(8.06894e-09 10.272 0)
(6.40598e-09 10.272 0)
(5.32537e-09 10.272 0)
(4.28049e-09 10.272 0)
(3.53507e-09 10.272 0)
(2.84297e-09 10.272 0)
(2.31679e-09 10.272 0)
(1.82332e-09 10.272 0)
(1.42791e-09 10.272 0)
(1.0602e-09 10.272 0)
(7.35731e-10 10.272 0)
(4.31504e-10 10.272 0)
(1.51413e-10 10.272 0)
(-1.59833e-10 10.272 0)
(-4.3064e-10 10.272 0)
(-7.20605e-10 10.272 0)
(-1.0805e-09 10.272 0)
(-1.43002e-09 10.272 0)
(-1.80731e-09 10.272 0)
(-2.33567e-09 10.272 0)
(-2.84418e-09 10.272 0)
(-3.51838e-09 10.272 0)
(-4.29841e-09 10.272 0)
(-5.32554e-09 10.272 0)
(-6.38964e-09 10.272 0)
(-8.08713e-09 10.272 0)
(-9.71891e-09 10.272 0)
(-1.2483e-08 10.272 0)
(-1.51687e-08 10.272 0)
(-2.01374e-08 10.272 0)
(-2.46678e-08 10.272 0)
(-3.44609e-08 10.272 0)
(-4.31127e-08 10.272 0)
(-6.46885e-08 10.272 0)
(-8.39365e-08 10.272 0)
(-1.42184e-07 10.272 0)
(-1.95803e-07 10.272 0)
(-4.20891e-07 10.272 0)
(-6.52241e-07 10.272 0)
(-2.66223e-06 10.272 0)
(-5.848e-06 10.272 0)
(-9.40578e-05 10.272 0)
(-9.0547e-05 10.2759 0)
(5.63498e-05 -1.46583 0)
(6.0681e-05 -1.46639 0)
(7.21625e-06 -1.46639 0)
(3.31577e-06 -1.4664 0)
(8.52525e-07 -1.4664 0)
(5.4587e-07 -1.4664 0)
(2.56277e-07 -1.4664 0)
(1.85171e-07 -1.4664 0)
(1.0976e-07 -1.4664 0)
(8.43225e-08 -1.4664 0)
(5.63037e-08 -1.4664 0)
(4.48382e-08 -1.4664 0)
(3.21588e-08 -1.4664 0)
(2.61516e-08 -1.4664 0)
(1.96608e-08 -1.4664 0)
(1.61706e-08 -1.4664 0)
(1.25472e-08 -1.4664 0)
(1.03794e-08 -1.4664 0)
(8.21857e-09 -1.4664 0)
(6.80462e-09 -1.4664 0)
(5.44833e-09 -1.4664 0)
(4.48391e-09 -1.4664 0)
(3.59068e-09 -1.4664 0)
(2.91337e-09 -1.4664 0)
(2.28658e-09 -1.4664 0)
(1.78387e-09 -1.4664 0)
(1.31931e-09 -1.4664 0)
(9.15589e-10 -1.4664 0)
(5.34497e-10 -1.4664 0)
(1.8329e-10 -1.4664 0)
(-1.88832e-10 -1.4664 0)
(-5.35167e-10 -1.4664 0)
(-9.08356e-10 -1.4664 0)
(-1.33328e-09 -1.4664 0)
(-1.78664e-09 -1.4664 0)
(-2.27827e-09 -1.4664 0)
(-2.92564e-09 -1.4664 0)
(-3.59225e-09 -1.4664 0)
(-4.47457e-09 -1.4664 0)
(-5.45934e-09 -1.4664 0)
(-6.80492e-09 -1.4664 0)
(-8.20966e-09 -1.4664 0)
(-1.03906e-08 -1.4664 0)
(-1.25476e-08 -1.4664 0)
(-1.61603e-08 -1.4664 0)
(-1.96707e-08 -1.4664 0)
(-2.61508e-08 -1.4664 0)
(-3.2147e-08 -1.4664 0)
(-4.48479e-08 -1.4664 0)
(-5.6303e-08 -1.4664 0)
(-8.43109e-08 -1.4664 0)
(-1.09766e-07 -1.4664 0)
(-1.85166e-07 -1.4664 0)
(-2.56263e-07 -1.4664 0)
(-5.45874e-07 -1.4664 0)
(-8.52521e-07 -1.4664 0)
(-3.31575e-06 -1.4664 0)
(-7.21626e-06 -1.46639 0)
(-6.06809e-05 -1.46639 0)
(-5.63498e-05 -1.46583 0)
(6.03957e-05 -0.802098 0)
(6.55255e-05 -0.801609 0)
(8.52403e-06 -0.80161 0)
(3.93538e-06 -0.801619 0)
(1.05815e-06 -0.801619 0)
(6.72763e-07 -0.801619 0)
(3.18723e-07 -0.801619 0)
(2.29211e-07 -0.801619 0)
(1.36442e-07 -0.801619 0)
(1.04452e-07 -0.801619 0)
(6.98944e-08 -0.801619 0)
(5.54899e-08 -0.801619 0)
(3.98246e-08 -0.801619 0)
(3.22881e-08 -0.801619 0)
(2.42581e-08 -0.801619 0)
(1.98888e-08 -0.801619 0)
(1.54038e-08 -0.801619 0)
(1.26979e-08 -0.801619 0)
(1.00257e-08 -0.801619 0)
(8.26859e-09 -0.801619 0)
(6.59627e-09 -0.801619 0)
(5.40692e-09 -0.801619 0)
(4.31219e-09 -0.801619 0)
(3.48456e-09 -0.801619 0)
(2.72461e-09 -0.801619 0)
(2.11825e-09 -0.801619 0)
(1.5616e-09 -0.801619 0)
(1.08139e-09 -0.801619 0)
(6.29882e-10 -0.801619 0)
(2.15241e-10 -0.801619 0)
(-2.21681e-10 -0.801619 0)
(-6.31107e-10 -0.801619 0)
(-1.07432e-09 -0.801619 0)
(-1.57702e-09 -0.801619 0)
(-2.12172e-09 -0.801619 0)
(-2.71631e-09 -0.801619 0)
(-3.49798e-09 -0.801619 0)
(-4.31411e-09 -0.801619 0)
(-5.39719e-09 -0.801619 0)
(-6.60816e-09 -0.801619 0)
(-8.26905e-09 -0.801619 0)
(-1.00165e-08 -0.801619 0)
(-1.27098e-08 -0.801619 0)
(-1.54042e-08 -0.801619 0)
(-1.98779e-08 -0.801619 0)
(-2.42683e-08 -0.801619 0)
(-3.22871e-08 -0.801619 0)
(-3.98119e-08 -0.801619 0)
(-5.55e-08 -0.801619 0)
(-6.98933e-08 -0.801619 0)
(-1.04439e-07 -0.801619 0)
(-1.36448e-07 -0.801619 0)
(-2.29205e-07 -0.801619 0)
(-3.18707e-07 -0.801619 0)
(-6.72767e-07 -0.801619 0)
(-1.05815e-06 -0.801619 0)
(-3.93537e-06 -0.801619 0)
(-8.52404e-06 -0.80161 0)
(-6.55255e-05 -0.801609 0)
(-6.03957e-05 -0.802098 0)
(6.07377e-05 0.357282 0)
(6.65932e-05 0.357451 0)
(9.72569e-06 0.357449 0)
(4.52651e-06 0.357439 0)
(1.26858e-06 0.357439 0)
(8.01405e-07 0.357439 0)
(3.83146e-07 0.357439 0)
(2.74308e-07 0.357439 0)
(1.63981e-07 0.357439 0)
(1.25112e-07 0.357439 0)
(8.39028e-08 0.357439 0)
(6.6416e-08 0.357439 0)
(4.77035e-08 0.357439 0)
(3.85661e-08 0.357439 0)
(2.89611e-08 0.357439 0)
(2.36746e-08 0.357439 0)
(1.83067e-08 0.357439 0)
(1.50412e-08 0.357439 0)
(1.18456e-08 0.357439 0)
(9.73366e-09 0.357439 0)
(7.73876e-09 0.357439 0)
(6.31925e-09 0.357439 0)
(5.02043e-09 0.357439 0)
(4.0409e-09 0.357439 0)
(3.14829e-09 0.357439 0)
(2.43931e-09 0.357439 0)
(1.79267e-09 0.357439 0)
(1.23878e-09 0.357439 0)
(7.19939e-10 0.357439 0)
(2.45044e-10 0.357439 0)
(-2.52169e-10 0.357439 0)
(-7.21889e-10 0.357439 0)
(-1.23263e-09 0.357439 0)
(-1.8088e-09 0.357439 0)
(-2.44351e-09 0.357439 0)
(-3.14077e-09 0.357439 0)
(-4.05477e-09 0.357439 0)
(-5.02271e-09 0.357439 0)
(-6.30987e-09 0.357439 0)
(-7.75083e-09 0.357439 0)
(-9.73431e-09 0.357439 0)
(-1.18367e-08 0.357439 0)
(-1.50533e-08 0.357439 0)
(-1.8307e-08 0.357439 0)
(-2.36637e-08 0.357439 0)
(-2.8971e-08 0.357439 0)
(-3.85649e-08 0.357439 0)
(-4.76906e-08 0.357439 0)
(-6.64258e-08 0.357439 0)
(-8.39012e-08 0.357439 0)
(-1.25099e-07 0.357439 0)
(-1.63986e-07 0.357439 0)
(-2.74301e-07 0.357439 0)
(-3.83129e-07 0.357439 0)
(-8.01408e-07 0.357439 0)
(-1.26857e-06 0.357439 0)
(-4.5265e-06 0.357439 0)
(-9.7257e-06 0.357449 0)
(-6.65932e-05 0.357451 0)
(-6.07377e-05 0.357282 0)
(5.3975e-05 0.346276 0)
(6.04754e-05 0.346221 0)
(1.08122e-05 0.34622 0)
(5.0873e-06 0.346209 0)
(1.48317e-06 0.346209 0)
(9.31617e-07 0.346208 0)
(4.49518e-07 0.346208 0)
(3.20458e-07 0.346208 0)
(1.92388e-07 0.346208 0)
(1.46316e-07 0.346208 0)
(9.83468e-08 0.346208 0)
(7.76352e-08 0.346208 0)
(5.5815e-08 0.346208 0)
(4.50055e-08 0.346208 0)
(3.37899e-08 0.346208 0)
(2.75478e-08 0.346208 0)
(2.12754e-08 0.346208 0)
(1.74284e-08 0.346208 0)
(1.36965e-08 0.346208 0)
(1.12172e-08 0.346208 0)
(8.892e-09 0.346208 0)
(7.23603e-09 0.346208 0)
(5.72908e-09 0.346208 0)
(4.59446e-09 0.346208 0)
(3.5682e-09 0.346208 0)
(2.75579e-09 0.346208 0)
(2.0193e-09 0.346208 0)
(1.3928e-09 0.346208 0)
(8.07643e-10 0.346208 0)
(2.73466e-10 0.346208 0)
(-2.80703e-10 0.346208 0)
(-8.10567e-10 0.346208 0)
(-1.38904e-09 0.346208 0)
(-2.03474e-09 0.346208 0)
(-2.76074e-09 0.346208 0)
(-3.56292e-09 0.346208 0)
(-4.60739e-09 0.346208 0)
(-5.73172e-09 0.346208 0)
(-7.22843e-09 0.346208 0)
(-8.90287e-09 0.346208 0)
(-1.1218e-08 0.346208 0)
(-1.36894e-08 0.346208 0)
(-1.7439e-08 0.346208 0)
(-2.12757e-08 0.346208 0)
(-2.75382e-08 0.346208 0)
(-3.37979e-08 0.346208 0)
(-4.5004e-08 0.346208 0)
(-5.58035e-08 0.346208 0)
(-7.76431e-08 0.346208 0)
(-9.83449e-08 0.346208 0)
(-1.46304e-07 0.346208 0)
(-1.92391e-07 0.346208 0)
(-3.20451e-07 0.346208 0)
(-4.49502e-07 0.346208 0)
(-9.31617e-07 0.346208 0)
(-1.48316e-06 0.346209 0)
(-5.08728e-06 0.346209 0)
(-1.08122e-05 0.34622 0)
(-6.04754e-05 0.346221 0)
(-5.39749e-05 0.346276 0)
(4.68648e-05 0.123573 0)
(5.39374e-05 0.123543 0)
(1.17901e-05 0.123542 0)
(5.61576e-06 0.12353 0)
(1.70119e-06 0.12353 0)
(1.06318e-06 0.123529 0)
(5.17795e-07 0.123529 0)
(3.67651e-07 0.123529 0)
(2.21673e-07 0.123529 0)
(1.68077e-07 0.123529 0)
(1.13242e-07 0.123529 0)
(8.91639e-08 0.123529 0)
(6.41766e-08 0.123529 0)
(5.16237e-08 0.123529 0)
(3.87624e-08 0.123529 0)
(3.15259e-08 0.123529 0)
(2.43274e-08 0.123529 0)
(1.98764e-08 0.123529 0)
(1.55947e-08 0.123529 0)
(1.27347e-08 0.123529 0)
(1.00707e-08 0.123529 0)
(8.17057e-09 0.123529 0)
(6.45037e-09 0.123529 0)
(5.15627e-09 0.123529 0)
(3.99358e-09 0.123529 0)
(3.07553e-09 0.123529 0)
(2.24783e-09 0.123529 0)
(1.54777e-09 0.123529 0)
(8.95784e-10 0.123529 0)
(3.01929e-10 0.123529 0)
(-3.09312e-10 0.123529 0)
(-8.99714e-10 0.123529 0)
(-1.54646e-09 0.123529 0)
(-2.26256e-09 0.123529 0)
(-3.08124e-09 0.123529 0)
(-3.99063e-09 0.123529 0)
(-5.16823e-09 0.123529 0)
(-6.45337e-09 0.123529 0)
(-8.16479e-09 0.123529 0)
(-1.00804e-08 0.123529 0)
(-1.27358e-08 0.123529 0)
(-1.55894e-08 0.123529 0)
(-1.98856e-08 0.123529 0)
(-2.43275e-08 0.123529 0)
(-3.15177e-08 0.123529 0)
(-3.87685e-08 0.123529 0)
(-5.1622e-08 0.123529 0)
(-6.41664e-08 0.123529 0)
(-8.917e-08 0.123529 0)
(-1.1324e-07 0.123529 0)
(-1.68066e-07 0.123529 0)
(-2.21674e-07 0.123529 0)
(-3.67643e-07 0.123529 0)
(-5.17779e-07 0.123529 0)
(-1.06318e-06 0.123529 0)
(-1.70118e-06 0.12353 0)
(-5.61575e-06 0.12353 0)
(-1.17901e-05 0.123542 0)
(-5.39374e-05 0.123543 0)
(-4.68647e-05 0.123573 0)
(4.13858e-05 0.0344445 0)
(4.89591e-05 0.0344706 0)
(1.26606e-05 0.0344695 0)
(6.11134e-06 0.0344575 0)
(1.92181e-06 0.0344569 0)
(1.19585e-06 0.0344565 0)
(5.87917e-07 0.0344565 0)
(4.15868e-07 0.0344565 0)
(2.51838e-07 0.0344564 0)
(1.90403e-07 0.0344564 0)
(1.28601e-07 0.0344564 0)
(1.01015e-07 0.0344564 0)
(7.28023e-08 0.0344564 0)
(5.84351e-08 0.0344564 0)
(4.38929e-08 0.0344564 0)
(3.56231e-08 0.0344564 0)
(2.74765e-08 0.0344564 0)
(2.23989e-08 0.0344564 0)
(1.7553e-08 0.0344564 0)
(1.42984e-08 0.0344564 0)
(1.12865e-08 0.0344564 0)
(9.13345e-09 0.0344564 0)
(7.19394e-09 0.0344564 0)
(5.73495e-09 0.0344564 0)
(4.43176e-09 0.0344564 0)
(3.40465e-09 0.0344564 0)
(2.48316e-09 0.0344564 0)
(1.70715e-09 0.0344564 0)
(9.86512e-10 0.0344564 0)
(3.31292e-10 0.0344564 0)
(-3.39047e-10 0.0344564 0)
(-9.91433e-10 0.0344564 0)
(-1.70795e-09 0.0344564 0)
(-2.49753e-09 0.0344564 0)
(-3.41115e-09 0.0344564 0)
(-4.43082e-09 0.0344564 0)
(-5.74629e-09 0.0344564 0)
(-7.19732e-09 0.0344564 0)
(-9.12916e-09 0.0344564 0)
(-1.12953e-08 0.0344564 0)
(-1.42998e-08 0.0344564 0)
(-1.75491e-08 0.0344564 0)
(-2.24069e-08 0.0344564 0)
(-2.74766e-08 0.0344564 0)
(-3.56159e-08 0.0344564 0)
(-4.38975e-08 0.0344564 0)
(-5.84332e-08 0.0344564 0)
(-7.27929e-08 0.0344564 0)
(-1.0102e-07 0.0344564 0)
(-1.28598e-07 0.0344564 0)
(-1.90393e-07 0.0344564 0)
(-2.51837e-07 0.0344564 0)
(-4.15859e-07 0.0344565 0)
(-5.87902e-07 0.0344565 0)
(-1.19585e-06 0.0344565 0)
(-1.9218e-06 0.0344569 0)
(-6.11132e-06 0.0344575 0)
(-1.26606e-05 0.0344695 0)
(-4.89591e-05 0.0344706 0)
(-4.13858e-05 0.0344445 0)
(3.67297e-05 0.01821 0)
(4.47293e-05 0.0182545 0)
(1.34211e-05 0.0182537 0)
(6.57353e-06 0.0182411 0)
(2.14413e-06 0.0182404 0)
(1.32933e-06 0.0182399 0)
(6.59809e-07 0.0182399 0)
(4.65082e-07 0.0182398 0)
(2.82881e-07 0.0182398 0)
(2.13298e-07 0.0182398 0)
(1.44431e-07 0.0182398 0)
(1.13199e-07 0.0182398 0)
(8.17023e-08 0.0182398 0)
(6.54502e-08 0.0182398 0)
(4.91922e-08 0.0182398 0)
(3.98498e-08 0.0182398 0)
(3.0733e-08 0.0182398 0)
(2.50055e-08 0.0182398 0)
(1.95808e-08 0.0182398 0)
(1.59173e-08 0.0182398 0)
(1.25477e-08 0.0182398 0)
(1.01323e-08 0.0182398 0)
(7.96669e-09 0.0182398 0)
(6.3366e-09 0.0182398 0)
(4.88809e-09 0.0182398 0)
(3.74758e-09 0.0182398 0)
(2.72872e-09 0.0182398 0)
(1.87343e-09 0.0182398 0)
(1.08134e-09 0.0182398 0)
(3.62025e-10 0.0182398 0)
(-3.70296e-10 0.0182398 0)
(-1.08724e-09 0.0182398 0)
(-1.87619e-09 0.0182398 0)
(-2.74294e-09 0.0182398 0)
(-3.75485e-09 0.0182398 0)
(-4.88898e-09 0.0182398 0)
(-6.34753e-09 0.0182398 0)
(-7.97049e-09 0.0182398 0)
(-1.01294e-08 0.0182398 0)
(-1.25557e-08 0.0182398 0)
(-1.5919e-08 0.0182398 0)
(-1.95783e-08 0.0182398 0)
(-2.50125e-08 0.0182398 0)
(-3.07329e-08 0.0182398 0)
(-3.98434e-08 0.0182398 0)
(-4.91954e-08 0.0182398 0)
(-6.5448e-08 0.0182398 0)
(-8.16938e-08 0.0182398 0)
(-1.13203e-07 0.0182398 0)
(-1.44428e-07 0.0182398 0)
(-2.13289e-07 0.0182398 0)
(-2.82878e-07 0.0182398 0)
(-4.65072e-07 0.0182398 0)
(-6.59794e-07 0.0182399 0)
(-1.32933e-06 0.0182399 0)
(-2.14412e-06 0.0182404 0)
(-6.57352e-06 0.0182411 0)
(-1.34211e-05 0.0182537 0)
(-4.47292e-05 0.0182545 0)
(-3.67296e-05 0.01821 0)
(3.23104e-05 0.0128586 0)
(4.06607e-05 0.0129047 0)
(1.407e-05 0.0129042 0)
(7.00135e-06 0.0128911 0)
(2.36715e-06 0.0128902 0)
(1.4633e-06 0.0128897 0)
(7.33376e-07 0.0128896 0)
(5.15258e-07 0.0128896 0)
(3.14794e-07 0.0128896 0)
(2.36764e-07 0.0128896 0)
(1.60739e-07 0.0128896 0)
(1.25722e-07 0.0128896 0)
(9.08844e-08 0.0128896 0)
(7.26765e-08 0.0128895 0)
(5.46677e-08 0.0128895 0)
(4.42132e-08 0.0128895 0)
(3.41038e-08 0.0128895 0)
(2.7703e-08 0.0128895 0)
(2.16847e-08 0.0128895 0)
(1.75975e-08 0.0128895 0)
(1.38598e-08 0.0128895 0)
(1.11724e-08 0.0128895 0)
(8.77327e-09 0.0128895 0)
(6.9653e-09 0.0128895 0)
(5.36608e-09 0.0128895 0)
(4.10722e-09 0.0128895 0)
(2.98681e-09 0.0128895 0)
(2.0483e-09 0.0128895 0)
(1.18124e-09 0.0128895 0)
(3.94423e-10 0.0128895 0)
(-4.03258e-10 0.0128895 0)
(-1.18816e-09 0.0128895 0)
(-2.05296e-09 0.0128895 0)
(-3.00094e-09 0.0128895 0)
(-4.11525e-09 0.0128895 0)
(-5.36876e-09 0.0128895 0)
(-6.97589e-09 0.0128895 0)
(-8.77749e-09 0.0128895 0)
(-1.11706e-08 0.0128895 0)
(-1.38672e-08 0.0128895 0)
(-1.75993e-08 0.0128895 0)
(-2.16834e-08 0.0128895 0)
(-2.77092e-08 0.0128895 0)
(-3.41036e-08 0.0128895 0)
(-4.42076e-08 0.0128895 0)
(-5.46696e-08 0.0128895 0)
(-7.26741e-08 0.0128895 0)
(-9.08765e-08 0.0128896 0)
(-1.25724e-07 0.0128896 0)
(-1.60735e-07 0.0128896 0)
(-2.36755e-07 0.0128896 0)
(-3.1479e-07 0.0128896 0)
(-5.15248e-07 0.0128896 0)
(-7.33362e-07 0.0128896 0)
(-1.4633e-06 0.0128897 0)
(-2.36714e-06 0.0128902 0)
(-7.00134e-06 0.0128911 0)
(-1.407e-05 0.0129042 0)
(-4.06607e-05 0.0129047 0)
(-3.23103e-05 0.0128586 0)
(2.8077e-05 0.00743165 0)
(3.67033e-05 0.00747898 0)
(1.46079e-05 0.00747886 0)
(7.39354e-06 0.00746533 0)
(2.5898e-06 0.00746433 0)
(1.59741e-06 0.00746375 0)
(8.08508e-07 0.00746366 0)
(5.66354e-07 0.00746359 0)
(3.47567e-07 0.00746358 0)
(2.60798e-07 0.00746356 0)
(1.77527e-07 0.00746356 0)
(1.38589e-07 0.00746355 0)
(1.00353e-07 0.00746355 0)
(8.01193e-08 0.00746355 0)
(6.03246e-08 0.00746355 0)
(4.87186e-08 0.00746354 0)
(3.75939e-08 0.00746354 0)
(3.0496e-08 0.00746354 0)
(2.38688e-08 0.00746354 0)
(1.93427e-08 0.00746354 0)
(1.52265e-08 0.00746354 0)
(1.22569e-08 0.00746354 0)
(9.61663e-09 0.00746354 0)
(7.62364e-09 0.00746354 0)
(5.86796e-09 0.00746354 0)
(4.4854e-09 0.00746354 0)
(3.25888e-09 0.00746354 0)
(2.23281e-09 0.00746354 0)
(1.28682e-09 0.00746354 0)
(4.2868e-10 0.00746354 0)
(-4.38118e-10 0.00746354 0)
(-1.2948e-09 0.00746354 0)
(-2.23933e-09 0.00746354 0)
(-3.27296e-09 0.00746354 0)
(-4.4942e-09 0.00746354 0)
(-5.87236e-09 0.00746354 0)
(-7.63398e-09 0.00746354 0)
(-9.62128e-09 0.00746354 0)
(-1.22563e-08 0.00746354 0)
(-1.52333e-08 0.00746354 0)
(-1.93449e-08 0.00746354 0)
(-2.38686e-08 0.00746354 0)
(-3.05013e-08 0.00746354 0)
(-3.75935e-08 0.00746354 0)
(-4.87136e-08 0.00746354 0)
(-6.03252e-08 0.00746355 0)
(-8.01166e-08 0.00746355 0)
(-1.00346e-07 0.00746355 0)
(-1.38589e-07 0.00746355 0)
(-1.77522e-07 0.00746356 0)
(-2.60789e-07 0.00746356 0)
(-3.47561e-07 0.00746358 0)
(-5.66342e-07 0.00746359 0)
(-8.08494e-07 0.00746366 0)
(-1.5974e-06 0.00746375 0)
(-2.58979e-06 0.00746433 0)
(-7.39353e-06 0.00746533 0)
(-1.46079e-05 0.00747886 0)
(-3.67033e-05 0.00747898 0)
(-2.80769e-05 0.00743165 0)
(2.40822e-05 0.00383689 0)
(3.29116e-05 0.00388667 0)
(1.50361e-05 0.0038869 0)
(7.74886e-06 0.00387304 0)
(2.81095e-06 0.00387191 0)
(1.73125e-06 0.00387124 0)
(8.85075e-07 0.00387114 0)
(6.18316e-07 0.00387106 0)
(3.81181e-07 0.00387103 0)
(2.85395e-07 0.00387102 0)
(1.94795e-07 0.00387101 0)
(1.51801e-07 0.003871 0)
(1.10113e-07 0.003871 0)
(8.77824e-08 0.003871 0)
(6.61666e-08 0.003871 0)
(5.33693e-08 0.003871 0)
(4.12066e-08 0.003871 0)
(3.33875e-08 0.003871 0)
(2.6136e-08 0.00387099 0)
(2.11557e-08 0.00387099 0)
(1.66501e-08 0.00387099 0)
(1.33879e-08 0.00387099 0)
(1.04986e-08 0.00387099 0)
(8.31323e-09 0.00387099 0)
(6.39508e-09 0.00387099 0)
(4.88322e-09 0.00387099 0)
(3.5458e-09 0.00387099 0)
(2.42757e-09 0.00387099 0)
(1.39846e-09 0.00387099 0)
(4.64929e-10 0.00387099 0)
(-4.75014e-10 0.00387099 0)
(-1.40752e-09 0.00387099 0)
(-2.4359e-09 0.00387099 0)
(-3.55989e-09 0.00387099 0)
(-4.89282e-09 0.00387099 0)
(-6.40116e-09 0.00387099 0)
(-8.32339e-09 0.00387099 0)
(-1.05037e-08 0.00387099 0)
(-1.33885e-08 0.00387099 0)
(-1.66564e-08 0.00387099 0)
(-2.11581e-08 0.00387099 0)
(-2.61369e-08 0.00387099 0)
(-3.33921e-08 0.003871 0)
(-4.12059e-08 0.003871 0)
(-5.33649e-08 0.003871 0)
(-6.61661e-08 0.003871 0)
(-8.77794e-08 0.003871 0)
(-1.10107e-07 0.003871 0)
(-1.51801e-07 0.003871 0)
(-1.9479e-07 0.00387101 0)
(-2.85386e-07 0.00387102 0)
(-3.81174e-07 0.00387103 0)
(-6.18305e-07 0.00387106 0)
(-8.85061e-07 0.00387114 0)
(-1.73124e-06 0.00387124 0)
(-2.81094e-06 0.00387191 0)
(-7.74884e-06 0.00387304 0)
(-1.5036e-05 0.0038869 0)
(-3.29116e-05 0.00388667 0)
(-2.40822e-05 0.00383689 0)
(2.03311e-05 0.00213997 0)
(2.92929e-05 0.00219177 0)
(1.53564e-05 0.00219238 0)
(8.06615e-06 0.00217827 0)
(3.02942e-06 0.002177 0)
(1.86442e-06 0.00217624 0)
(9.62928e-07 0.00217611 0)
(6.71087e-07 0.00217602 0)
(4.15618e-07 0.00217599 0)
(3.10547e-07 0.00217597 0)
(2.12543e-07 0.00217596 0)
(1.65361e-07 0.00217595 0)
(1.20166e-07 0.00217595 0)
(9.56683e-08 0.00217595 0)
(7.21965e-08 0.00217595 0)
(5.81679e-08 0.00217595 0)
(4.4944e-08 0.00217594 0)
(3.63798e-08 0.00217594 0)
(2.84881e-08 0.00217594 0)
(2.30381e-08 0.00217594 0)
(1.8132e-08 0.00217594 0)
(1.45667e-08 0.00217594 0)
(1.14203e-08 0.00217594 0)
(9.03507e-09 0.00217594 0)
(6.94824e-09 0.00217594 0)
(5.30135e-09 0.00217594 0)
(3.84807e-09 0.00217594 0)
(2.63294e-09 0.00217594 0)
(1.51642e-09 0.00217594 0)
(5.03263e-10 0.00217594 0)
(-5.14028e-10 0.00217594 0)
(-1.52655e-09 0.00217594 0)
(-2.64304e-09 0.00217594 0)
(-3.86225e-09 0.00217594 0)
(-5.31175e-09 0.00217594 0)
(-6.95596e-09 0.00217594 0)
(-9.04511e-09 0.00217594 0)
(-1.14259e-08 0.00217594 0)
(-1.45684e-08 0.00217594 0)
(-1.81379e-08 0.00217594 0)
(-2.30408e-08 0.00217594 0)
(-2.849e-08 0.00217594 0)
(-3.63835e-08 0.00217594 0)
(-4.49431e-08 0.00217594 0)
(-5.81641e-08 0.00217595 0)
(-7.21948e-08 0.00217595 0)
(-9.56651e-08 0.00217595 0)
(-1.2016e-07 0.00217595 0)
(-1.65359e-07 0.00217595 0)
(-2.12537e-07 0.00217596 0)
(-3.10538e-07 0.00217597 0)
(-4.15609e-07 0.00217599 0)
(-6.71074e-07 0.00217602 0)
(-9.62914e-07 0.00217611 0)
(-1.8644e-06 0.00217624 0)
(-3.02941e-06 0.002177 0)
(-8.06614e-06 0.00217827 0)
(-1.53564e-05 0.00219238 0)
(-2.92929e-05 0.00219177 0)
(-2.03311e-05 0.00213997 0)
(1.68095e-05 0.00136403 0)
(2.58356e-05 0.00141712 0)
(1.55716e-05 0.00141812 0)
(8.3444e-06 0.00140385 0)
(3.24398e-06 0.00140243 0)
(1.99645e-06 0.00140158 0)
(1.0419e-06 0.00140143 0)
(7.24594e-07 0.00140132 0)
(4.50848e-07 0.00140129 0)
(3.36243e-07 0.00140126 0)
(2.30767e-07 0.00140126 0)
(1.79268e-07 0.00140125 0)
(1.30513e-07 0.00140124 0)
(1.03779e-07 0.00140124 0)
(7.84161e-08 0.00140124 0)
(6.31164e-08 0.00140124 0)
(4.88081e-08 0.00140124 0)
(3.94742e-08 0.00140124 0)
(3.09266e-08 0.00140123 0)
(2.49911e-08 0.00140123 0)
(1.96734e-08 0.00140123 0)
(1.57943e-08 0.00140123 0)
(1.23826e-08 0.00140123 0)
(9.78979e-09 0.00140123 0)
(7.52798e-09 0.00140123 0)
(5.74022e-09 0.00140123 0)
(4.16599e-09 0.00140123 0)
(2.84913e-09 0.00140123 0)
(1.64081e-09 0.00140123 0)
(5.43711e-10 0.00140123 0)
(-5.55222e-10 0.00140123 0)
(-1.65201e-09 0.00140123 0)
(-2.86095e-09 0.00140123 0)
(-4.18034e-09 0.00140123 0)
(-5.75142e-09 0.00140123 0)
(-7.53727e-09 0.00140123 0)
(-9.79976e-09 0.00140123 0)
(-1.23887e-08 0.00140123 0)
(-1.57969e-08 0.00140123 0)
(-1.96789e-08 0.00140123 0)
(-2.49941e-08 0.00140123 0)
(-3.09294e-08 0.00140123 0)
(-3.94773e-08 0.00140124 0)
(-4.8807e-08 0.00140124 0)
(-6.3113e-08 0.00140124 0)
(-7.84134e-08 0.00140124 0)
(-1.03776e-07 0.00140124 0)
(-1.30507e-07 0.00140124 0)
(-1.79265e-07 0.00140125 0)
(-2.30761e-07 0.00140126 0)
(-3.36235e-07 0.00140127 0)
(-4.50838e-07 0.00140129 0)
(-7.24581e-07 0.00140132 0)
(-1.04188e-06 0.00140143 0)
(-1.99643e-06 0.00140158 0)
(-3.24397e-06 0.00140243 0)
(-8.34438e-06 0.00140385 0)
(-1.55716e-05 0.00141812 0)
(-2.58356e-05 0.00141712 0)
(-1.68094e-05 0.00136403 0)
(1.35096e-05 0.000937029 0)
(2.25352e-05 0.000991031 0)
(1.56846e-05 0.000992427 0)
(8.58269e-06 0.000978075 0)
(3.45336e-06 0.000976518 0)
(2.12685e-06 0.000975565 0)
(1.1218e-06 0.000975396 0)
(7.78759e-07 0.00097527 0)
(4.86842e-07 0.000975235 0)
(3.62471e-07 0.000975205 0)
(2.49462e-07 0.000975194 0)
(1.93521e-07 0.000975185 0)
(1.41155e-07 0.00097518 0)
(1.12116e-07 0.000975176 0)
(8.48271e-08 0.000975174 0)
(6.82164e-08 0.000975172 0)
(5.28003e-08 0.000975171 0)
(4.26723e-08 0.00097517 0)
(3.34526e-08 0.00097517 0)
(2.70158e-08 0.000975169 0)
(2.12751e-08 0.000975169 0)
(1.70712e-08 0.000975169 0)
(1.3386e-08 0.000975168 0)
(1.05778e-08 0.000975168 0)
(8.1347e-09 0.000975168 0)
(6.20013e-09 0.000975168 0)
(4.49977e-09 0.000975168 0)
(3.0763e-09 0.000975168 0)
(1.77173e-09 0.000975168 0)
(5.86298e-10 0.000975168 0)
(-5.98601e-10 0.000975168 0)
(-1.78401e-09 0.000975168 0)
(-3.08978e-09 0.000975168 0)
(-4.51434e-09 0.000975168 0)
(-6.21211e-09 0.000975168 0)
(-8.14547e-09 0.000975168 0)
(-1.05878e-08 0.000975168 0)
(-1.33925e-08 0.000975168 0)
(-1.70749e-08 0.000975169 0)
(-2.12803e-08 0.000975169 0)
(-2.70191e-08 0.000975169 0)
(-3.34563e-08 0.00097517 0)
(-4.26746e-08 0.00097517 0)
(-5.27989e-08 0.000975171 0)
(-6.82133e-08 0.000975172 0)
(-8.48234e-08 0.000975174 0)
(-1.12112e-07 0.000975176 0)
(-1.41149e-07 0.00097518 0)
(-1.93518e-07 0.000975185 0)
(-2.49456e-07 0.000975194 0)
(-3.62463e-07 0.000975205 0)
(-4.8683e-07 0.000975235 0)
(-7.78745e-07 0.00097527 0)
(-1.12178e-06 0.000975396 0)
(-2.12684e-06 0.000975565 0)
(-3.45335e-06 0.000976518 0)
(-8.58268e-06 0.000978075 0)
(-1.56846e-05 0.000992427 0)
(-2.25352e-05 0.000991031 0)
(-1.35096e-05 0.000937029 0)
(1.04298e-05 0.000675051 0)
(1.93933e-05 0.000729746 0)
(1.56991e-05 0.00073155 0)
(8.7803e-06 0.000717193 0)
(3.65627e-06 0.000715495 0)
(2.25513e-06 0.000714443 0)
(1.20241e-06 0.000714248 0)
(8.33491e-07 0.000714105 0)
(5.23559e-07 0.000714064 0)
(3.89213e-07 0.00071403 0)
(2.68622e-07 0.000714017 0)
(2.08119e-07 0.000714006 0)
(1.52092e-07 0.000714001 0)
(1.2068e-07 0.000713996 0)
(9.14307e-08 0.000713994 0)
(7.34691e-08 0.000713992 0)
(5.69217e-08 0.000713991 0)
(4.59749e-08 0.00071399 0)
(3.60669e-08 0.000713989 0)
(2.91129e-08 0.000713988 0)
(2.29376e-08 0.000713988 0)
(1.83982e-08 0.000713987 0)
(1.44308e-08 0.000713987 0)
(1.13996e-08 0.000713987 0)
(8.76869e-09 0.000713987 0)
(6.68129e-09 0.000713987 0)
(4.84956e-09 0.000713987 0)
(3.3146e-09 0.000713987 0)
(1.90923e-09 0.000713987 0)
(6.3104e-10 0.000713986 0)
(-6.44167e-10 0.000713986 0)
(-1.92261e-09 0.000713987 0)
(-3.32968e-09 0.000713987 0)
(-4.86444e-09 0.000713987 0)
(-6.69406e-09 0.000713987 0)
(-8.78087e-09 0.000713987 0)
(-1.14096e-08 0.000713987 0)
(-1.44379e-08 0.000713987 0)
(-1.84028e-08 0.000713987 0)
(-2.29426e-08 0.000713988 0)
(-2.91164e-08 0.000713988 0)
(-3.60715e-08 0.000713989 0)
(-4.59767e-08 0.00071399 0)
(-5.69201e-08 0.000713991 0)
(-7.34664e-08 0.000713992 0)
(-9.1426e-08 0.000713994 0)
(-1.20676e-07 0.000713996 0)
(-1.52086e-07 0.000714001 0)
(-2.08114e-07 0.000714006 0)
(-2.68615e-07 0.000714017 0)
(-3.89205e-07 0.00071403 0)
(-5.23547e-07 0.000714064 0)
(-8.33476e-07 0.000714105 0)
(-1.2024e-06 0.000714248 0)
(-2.25511e-06 0.000714443 0)
(-3.65626e-06 0.000715495 0)
(-8.78028e-06 0.000717193 0)
(-1.56991e-05 0.00073155 0)
(-1.93933e-05 0.000729746 0)
(-1.04298e-05 0.000675051 0)
(7.56868e-06 0.000513311 0)
(1.64123e-05 0.000568501 0)
(1.56192e-05 0.000570719 0)
(8.93666e-06 0.000556433 0)
(3.8514e-06 0.000554597 0)
(2.38073e-06 0.000553444 0)
(1.28351e-06 0.000553222 0)
(8.88688e-07 0.00055306 0)
(5.60957e-07 0.000553013 0)
(4.16449e-07 0.000552974 0)
(2.88239e-07 0.000552959 0)
(2.23058e-07 0.000552946 0)
(1.63323e-07 0.000552941 0)
(1.29472e-07 0.000552935 0)
(9.82277e-08 0.000552933 0)
(7.88758e-08 0.00055293 0)
(6.11735e-08 0.000552929 0)
(4.93834e-08 0.000552927 0)
(3.87707e-08 0.000552927 0)
(3.12831e-08 0.000552926 0)
(2.46618e-08 0.000552925 0)
(1.97757e-08 0.000552925 0)
(1.55177e-08 0.000552925 0)
(1.22554e-08 0.000552925 0)
(9.43021e-09 0.000552924 0)
(7.18389e-09 0.000552924 0)
(5.21556e-09 0.000552924 0)
(3.56414e-09 0.000552924 0)
(2.05339e-09 0.000552924 0)
(6.77947e-10 0.000552924 0)
(-6.91954e-10 0.000552924 0)
(-2.06785e-09 0.000552924 0)
(-3.58075e-09 0.000552924 0)
(-5.23079e-09 0.000552924 0)
(-7.19745e-09 0.000552924 0)