/*--------------------------------*- C++ -*----------------------------------*\
| =========                 |                                                 |
| \\      /  F ield         | foam-extend: Open Source CFD                    |
|  \\    /   O peration     | Version:     4.0                                |
|   \\  /    A nd           | Web:         http://www.foam-extend.org         |
|    \\/     M anipulation  |                                                 |
\*---------------------------------------------------------------------------*/
FoamFile
{
    version     2.0;
    format      ascii;
    class       volScalarField;
    location    "1640";
    object      cPlus;
}
// * * * * * * * * * * * * * * * * * * * * * * * * * * * * * * * * * * * * * //

dimensions      [0 0 0 0 0 0 0];

internalField   nonuniform List<scalar> 
6960
(
0.321701
0.321688
0.321671
0.321655
0.32164
0.321626
0.321614
0.321602
0.321593
0.321584
0.321577
0.32157
0.321564
0.321559
0.321555
0.321551
0.321548
0.321546
0.321543
0.321541
0.32154
0.321538
0.321537
0.321536
0.321536
0.321535
0.321534
0.321534
0.321534
0.321534
0.321534
0.321534
0.321534
0.321534
0.321535
0.321536
0.321536
0.321537
0.321538
0.32154
0.321541
0.321543
0.321546
0.321548
0.321551
0.321555
0.321559
0.321564
0.32157
0.321577
0.321584
0.321593
0.321602
0.321614
0.321626
0.32164
0.321655
0.321671
0.321688
0.321701
0.104386
0.104376
0.104365
0.104353
0.104342
0.104333
0.104324
0.104316
0.104309
0.104303
0.104298
0.104293
0.104289
0.104285
0.104282
0.10428
0.104278
0.104276
0.104274
0.104273
0.104271
0.104271
0.10427
0.104269
0.104268
0.104268
0.104268
0.104267
0.104267
0.104267
0.104267
0.104267
0.104267
0.104268
0.104268
0.104268
0.104269
0.10427
0.104271
0.104271
0.104273
0.104274
0.104276
0.104278
0.10428
0.104282
0.104285
0.104289
0.104293
0.104298
0.104303
0.104309
0.104316
0.104324
0.104333
0.104342
0.104353
0.104365
0.104376
0.104386
0.0404071
0.0404021
0.0403958
0.0403895
0.0403836
0.0403781
0.0403733
0.0403689
0.0403651
0.0403617
0.0403587
0.0403561
0.0403539
0.040352
0.0403503
0.0403489
0.0403476
0.0403466
0.0403457
0.0403449
0.0403443
0.0403437
0.0403433
0.0403429
0.0403426
0.0403424
0.0403422
0.040342
0.040342
0.0403419
0.0403419
0.040342
0.040342
0.0403422
0.0403424
0.0403426
0.0403429
0.0403433
0.0403437
0.0403443
0.0403449
0.0403457
0.0403466
0.0403476
0.0403489
0.0403503
0.040352
0.0403539
0.0403561
0.0403587
0.0403617
0.0403651
0.0403689
0.0403733
0.0403781
0.0403836
0.0403895
0.0403958
0.0404021
0.0404071
0.0182566
0.0182547
0.018252
0.0182492
0.0182466
0.0182442
0.0182421
0.0182402
0.0182385
0.018237
0.0182357
0.0182345
0.0182335
0.0182327
0.0182319
0.0182313
0.0182307
0.0182303
0.0182299
0.0182295
0.0182293
0.018229
0.0182288
0.0182287
0.0182285
0.0182284
0.0182283
0.0182283
0.0182282
0.0182282
0.0182282
0.0182282
0.0182283
0.0182283
0.0182284
0.0182285
0.0182287
0.0182288
0.018229
0.0182293
0.0182295
0.0182299
0.0182303
0.0182307
0.0182313
0.0182319
0.0182327
0.0182335
0.0182345
0.0182357
0.018237
0.0182385
0.0182402
0.0182421
0.0182442
0.0182466
0.0182492
0.018252
0.0182547
0.0182566
0.010259
0.0102588
0.0102582
0.0102575
0.0102569
0.0102562
0.0102557
0.0102552
0.0102547
0.0102543
0.010254
0.0102537
0.0102534
0.0102532
0.010253
0.0102528
0.0102526
0.0102525
0.0102524
0.0102523
0.0102522
0.0102522
0.0102521
0.0102521
0.010252
0.010252
0.010252
0.010252
0.010252
0.010252
0.010252
0.010252
0.010252
0.010252
0.010252
0.010252
0.0102521
0.0102521
0.0102522
0.0102522
0.0102523
0.0102524
0.0102525
0.0102526
0.0102528
0.010253
0.0102532
0.0102534
0.0102537
0.010254
0.0102543
0.0102547
0.0102552
0.0102557
0.0102562
0.0102569
0.0102575
0.0102582
0.0102588
0.010259
0.00738839
0.00738913
0.00738961
0.00738998
0.00739031
0.00739059
0.00739084
0.00739106
0.00739125
0.00739142
0.00739157
0.00739169
0.0073918
0.0073919
0.00739197
0.00739204
0.0073921
0.00739215
0.00739219
0.00739223
0.00739226
0.00739228
0.0073923
0.00739232
0.00739233
0.00739234
0.00739235
0.00739236
0.00739236
0.00739236
0.00739236
0.00739236
0.00739236
0.00739235
0.00739234
0.00739233
0.00739232
0.0073923
0.00739228
0.00739226
0.00739223
0.00739219
0.00739215
0.0073921
0.00739204
0.00739197
0.0073919
0.0073918
0.00739169
0.00739157
0.00739142
0.00739125
0.00739106
0.00739084
0.00739059
0.00739031
0.00738998
0.00738961
0.00738913
0.00738839
0.00639549
0.00639666
0.00639765
0.00639853
0.00639933
0.00640005
0.00640069
0.00640126
0.00640176
0.00640219
0.00640258
0.00640291
0.00640319
0.00640344
0.00640365
0.00640384
0.00640399
0.00640412
0.00640424
0.00640433
0.00640441
0.00640448
0.00640454
0.00640458
0.00640462
0.00640465
0.00640468
0.00640469
0.0064047
0.00640471
0.00640471
0.0064047
0.00640469
0.00640468
0.00640465
0.00640462
0.00640458
0.00640454
0.00640448
0.00640441
0.00640433
0.00640424
0.00640412
0.00640399
0.00640384
0.00640365
0.00640344
0.00640319
0.00640291
0.00640258
0.00640219
0.00640176
0.00640126
0.00640069
0.00640005
0.00639933
0.00639853
0.00639765
0.00639666
0.00639549
0.0060828
0.00608417
0.00608539
0.00608651
0.00608753
0.00608844
0.00608926
0.00608998
0.00609062
0.00609118
0.00609167
0.0060921
0.00609246
0.00609278
0.00609305
0.00609329
0.00609349
0.00609366
0.0060938
0.00609393
0.00609403
0.00609412
0.00609419
0.00609425
0.0060943
0.00609434
0.00609437
0.00609439
0.0060944
0.00609441
0.00609441
0.0060944
0.00609439
0.00609437
0.00609434
0.0060943
0.00609425
0.00609419
0.00609412
0.00609403
0.00609393
0.0060938
0.00609366
0.00609349
0.00609329
0.00609305
0.00609278
0.00609246
0.0060921
0.00609167
0.00609118
0.00609062
0.00608998
0.00608926
0.00608844
0.00608753
0.00608651
0.00608539
0.00608417
0.0060828
0.00601257
0.00601404
0.00601537
0.00601659
0.00601771
0.00601871
0.00601961
0.0060204
0.00602111
0.00602172
0.00602226
0.00602273
0.00602313
0.00602348
0.00602378
0.00602404
0.00602426
0.00602445
0.00602461
0.00602474
0.00602486
0.00602495
0.00602503
0.0060251
0.00602515
0.0060252
0.00602523
0.00602525
0.00602527
0.00602528
0.00602528
0.00602527
0.00602525
0.00602523
0.0060252
0.00602515
0.0060251
0.00602503
0.00602495
0.00602486
0.00602474
0.00602461
0.00602445
0.00602426
0.00602404
0.00602378
0.00602348
0.00602313
0.00602273
0.00602226
0.00602172
0.00602111
0.0060204
0.00601961
0.00601871
0.00601771
0.00601659
0.00601537
0.00601404
0.00601257
0.00602812
0.00602964
0.00603103
0.00603231
0.00603347
0.00603452
0.00603546
0.00603629
0.00603702
0.00603767
0.00603823
0.00603872
0.00603914
0.00603951
0.00603982
0.00604009
0.00604032
0.00604052
0.00604069
0.00604083
0.00604095
0.00604105
0.00604113
0.0060412
0.00604126
0.0060413
0.00604134
0.00604136
0.00604138
0.00604139
0.00604139
0.00604138
0.00604136
0.00604134
0.0060413
0.00604126
0.0060412
0.00604113
0.00604105
0.00604095
0.00604083
0.00604069
0.00604052
0.00604032
0.00604009
0.00603982
0.00603951
0.00603914
0.00603872
0.00603823
0.00603767
0.00603702
0.00603629
0.00603546
0.00603452
0.00603347
0.00603231
0.00603103
0.00602964
0.00602812
0.00607493
0.00607649
0.00607791
0.00607922
0.00608042
0.00608149
0.00608246
0.00608331
0.00608406
0.00608472
0.0060853
0.0060858
0.00608624
0.00608661
0.00608694
0.00608722
0.00608745
0.00608766
0.00608783
0.00608797
0.0060881
0.0060882
0.00608829
0.00608836
0.00608842
0.00608846
0.0060885
0.00608852
0.00608854
0.00608855
0.00608855
0.00608854
0.00608852
0.0060885
0.00608846
0.00608842
0.00608836
0.00608829
0.0060882
0.0060881
0.00608797
0.00608783
0.00608766
0.00608745
0.00608722
0.00608694
0.00608661
0.00608624
0.0060858
0.0060853
0.00608472
0.00608406
0.00608331
0.00608246
0.00608149
0.00608042
0.00607922
0.00607791
0.00607649
0.00607493
0.00613469
0.00613628
0.00613773
0.00613907
0.00614029
0.00614139
0.00614237
0.00614324
0.00614401
0.00614469
0.00614528
0.00614579
0.00614623
0.00614662
0.00614695
0.00614723
0.00614747
0.00614768
0.00614786
0.00614801
0.00614813
0.00614824
0.00614833
0.0061484
0.00614846
0.00614851
0.00614854
0.00614857
0.00614859
0.0061486
0.0061486
0.00614859
0.00614857
0.00614854
0.00614851
0.00614846
0.0061484
0.00614833
0.00614824
0.00614813
0.00614801
0.00614786
0.00614768
0.00614747
0.00614723
0.00614695
0.00614662
0.00614623
0.00614579
0.00614528
0.00614469
0.00614401
0.00614324
0.00614237
0.00614139
0.00614029
0.00613907
0.00613773
0.00613628
0.00613469
0.00620161
0.00620323
0.00620471
0.00620607
0.00620732
0.00620844
0.00620944
0.00621033
0.00621111
0.0062118
0.0062124
0.00621292
0.00621338
0.00621377
0.00621411
0.00621439
0.00621464
0.00621485
0.00621503
0.00621519
0.00621531
0.00621542
0.00621551
0.00621559
0.00621565
0.0062157
0.00621573
0.00621576
0.00621578
0.00621579
0.00621579
0.00621578
0.00621576
0.00621573
0.0062157
0.00621565
0.00621559
0.00621551
0.00621542
0.00621531
0.00621519
0.00621503
0.00621485
0.00621464
0.00621439
0.00621411
0.00621377
0.00621338
0.00621292
0.0062124
0.0062118
0.00621111
0.00621033
0.00620944
0.00620844
0.00620732
0.00620607
0.00620471
0.00620323
0.00620161
0.00627411
0.00627577
0.00627728
0.00627867
0.00627994
0.00628108
0.0062821
0.006283
0.0062838
0.00628451
0.00628512
0.00628565
0.00628611
0.00628651
0.00628686
0.00628715
0.00628741
0.00628762
0.0062878
0.00628796
0.00628809
0.0062882
0.00628829
0.00628837
0.00628843
0.00628848
0.00628852
0.00628855
0.00628857
0.00628857
0.00628857
0.00628857
0.00628855
0.00628852
0.00628848
0.00628843
0.00628837
0.00628829
0.0062882
0.00628809
0.00628796
0.0062878
0.00628762
0.00628741
0.00628715
0.00628686
0.00628651
0.00628611
0.00628565
0.00628512
0.00628451
0.0062838
0.006283
0.0062821
0.00628108
0.00627994
0.00627867
0.00627728
0.00627577
0.00627411
0.00635205
0.00635374
0.00635528
0.00635669
0.00635799
0.00635915
0.0063602
0.00636112
0.00636194
0.00636265
0.00636328
0.00636382
0.00636429
0.0063647
0.00636505
0.00636536
0.00636561
0.00636583
0.00636602
0.00636618
0.00636632
0.00636643
0.00636652
0.0063666
0.00636666
0.00636671
0.00636675
0.00636678
0.0063668
0.00636681
0.00636681
0.0063668
0.00636678
0.00636675
0.00636671
0.00636666
0.0063666
0.00636652
0.00636643
0.00636632
0.00636618
0.00636602
0.00636583
0.00636561
0.00636536
0.00636505
0.0063647
0.00636429
0.00636382
0.00636328
0.00636265
0.00636194
0.00636112
0.0063602
0.00635915
0.00635799
0.00635669
0.00635528
0.00635374
0.00635205
0.00643574
0.00643747
0.00643904
0.00644049
0.00644181
0.006443
0.00644407
0.00644501
0.00644585
0.00644658
0.00644722
0.00644777
0.00644826
0.00644867
0.00644903
0.00644934
0.00644961
0.00644983
0.00645002
0.00645019
0.00645032
0.00645044
0.00645054
0.00645061
0.00645068
0.00645073
0.00645077
0.0064508
0.00645082
0.00645083
0.00645083
0.00645082
0.0064508
0.00645077
0.00645073
0.00645068
0.00645061
0.00645054
0.00645044
0.00645032
0.00645019
0.00645002
0.00644983
0.00644961
0.00644934
0.00644903
0.00644867
0.00644826
0.00644777
0.00644722
0.00644658
0.00644585
0.00644501
0.00644407
0.006443
0.00644181
0.00644049
0.00643904
0.00643747
0.00643574
0.00652573
0.0065275
0.00652911
0.0065306
0.00653195
0.00653317
0.00653426
0.00653523
0.00653608
0.00653683
0.00653748
0.00653805
0.00653855
0.00653897
0.00653934
0.00653966
0.00653993
0.00654016
0.00654036
0.00654052
0.00654066
0.00654078
0.00654088
0.00654096
0.00654103
0.00654108
0.00654112
0.00654115
0.00654117
0.00654118
0.00654118
0.00654117
0.00654115
0.00654112
0.00654108
0.00654103
0.00654096
0.00654088
0.00654078
0.00654066
0.00654052
0.00654036
0.00654016
0.00653993
0.00653966
0.00653934
0.00653897
0.00653855
0.00653805
0.00653748
0.00653683
0.00653608
0.00653523
0.00653426
0.00653317
0.00653195
0.0065306
0.00652911
0.0065275
0.00652573
0.0066227
0.00662452
0.00662617
0.00662769
0.00662907
0.00663032
0.00663144
0.00663243
0.0066333
0.00663407
0.00663474
0.00663533
0.00663583
0.00663627
0.00663665
0.00663697
0.00663725
0.00663749
0.00663769
0.00663786
0.00663801
0.00663813
0.00663823
0.00663831
0.00663838
0.00663843
0.00663848
0.00663851
0.00663853
0.00663854
0.00663854
0.00663853
0.00663851
0.00663848
0.00663843
0.00663838
0.00663831
0.00663823
0.00663813
0.00663801
0.00663786
0.00663769
0.00663749
0.00663725
0.00663697
0.00663665
0.00663627
0.00663583
0.00663533
0.00663474
0.00663407
0.0066333
0.00663243
0.00663144
0.00663032
0.00662907
0.00662769
0.00662617
0.00662452
0.0066227
0.00672743
0.00672929
0.00673099
0.00673255
0.00673397
0.00673525
0.0067364
0.00673742
0.00673832
0.00673911
0.00673979
0.00674039
0.00674092
0.00674137
0.00674175
0.00674209
0.00674237
0.00674261
0.00674282
0.006743
0.00674315
0.00674327
0.00674337
0.00674346
0.00674353
0.00674359
0.00674363
0.00674366
0.00674368
0.00674369
0.00674369
0.00674368
0.00674366
0.00674363
0.00674359
0.00674353
0.00674346
0.00674337
0.00674327
0.00674315
0.006743
0.00674282
0.00674261
0.00674237
0.00674209
0.00674175
0.00674137
0.00674092
0.00674039
0.00673979
0.00673911
0.00673832
0.00673742
0.0067364
0.00673525
0.00673397
0.00673255
0.00673099
0.00672929
0.00672743
0.00684084
0.00684276
0.0068445
0.00684611
0.00684757
0.00684889
0.00685007
0.00685112
0.00685204
0.00685285
0.00685356
0.00685418
0.00685472
0.00685518
0.00685558
0.00685592
0.00685621
0.00685646
0.00685668
0.00685686
0.00685701
0.00685714
0.00685725
0.00685734
0.00685741
0.00685747
0.00685751
0.00685754
0.00685756
0.00685757
0.00685757
0.00685756
0.00685754
0.00685751
0.00685747
0.00685741
0.00685734
0.00685725
0.00685714
0.00685701
0.00685686
0.00685668
0.00685646
0.00685621
0.00685592
0.00685558
0.00685518
0.00685472
0.00685418
0.00685356
0.00685285
0.00685204
0.00685112
0.00685007
0.00684889
0.00684757
0.00684611
0.0068445
0.00684276
0.00684084
0.00696401
0.006966
0.0069678
0.00696945
0.00697096
0.00697232
0.00697353
0.00697461
0.00697556
0.0069764
0.00697713
0.00697777
0.00697832
0.0069788
0.00697921
0.00697956
0.00697987
0.00698013
0.00698035
0.00698053
0.00698069
0.00698082
0.00698093
0.00698103
0.0069811
0.00698116
0.00698121
0.00698124
0.00698126
0.00698127
0.00698127
0.00698126
0.00698124
0.00698121
0.00698116
0.0069811
0.00698103
0.00698093
0.00698082
0.00698069
0.00698053
0.00698035
0.00698013
0.00697987
0.00697956
0.00697921
0.0069788
0.00697832
0.00697777
0.00697713
0.0069764
0.00697556
0.00697461
0.00697353
0.00697232
0.00697096
0.00696945
0.0069678
0.006966
0.00696401
0.00709823
0.00710028
0.00710214
0.00710385
0.00710541
0.00710681
0.00710807
0.00710919
0.00711017
0.00711103
0.00711179
0.00711245
0.00711302
0.00711351
0.00711394
0.00711431
0.00711462
0.00711489
0.00711511
0.00711531
0.00711547
0.00711561
0.00711572
0.00711582
0.00711589
0.00711595
0.007116
0.00711604
0.00711606
0.00711607
0.00711607
0.00711606
0.00711604
0.007116
0.00711595
0.00711589
0.00711582
0.00711572
0.00711561
0.00711547
0.00711531
0.00711511
0.00711489
0.00711462
0.00711431
0.00711394
0.00711351
0.00711302
0.00711245
0.00711179
0.00711103
0.00711017
0.00710919
0.00710807
0.00710681
0.00710541
0.00710385
0.00710214
0.00710028
0.00709823
0.00724501
0.00724714
0.00724907
0.00725084
0.00725245
0.00725391
0.00725521
0.00725636
0.00725738
0.00725828
0.00725906
0.00725974
0.00726034
0.00726085
0.00726129
0.00726167
0.00726199
0.00726227
0.00726251
0.00726271
0.00726288
0.00726302
0.00726314
0.00726324
0.00726332
0.00726338
0.00726343
0.00726346
0.00726349
0.0072635
0.0072635
0.00726349
0.00726346
0.00726343
0.00726338
0.00726332
0.00726324
0.00726314
0.00726302
0.00726288
0.00726271
0.00726251
0.00726227
0.00726199
0.00726167
0.00726129
0.00726085
0.00726034
0.00725974
0.00725906
0.00725828
0.00725738
0.00725636
0.00725521
0.00725391
0.00725245
0.00725084
0.00724907
0.00724714
0.00724501
0.00740617
0.00740839
0.00741039
0.00741223
0.00741391
0.00741542
0.00741677
0.00741797
0.00741903
0.00741996
0.00742078
0.00742149
0.0074221
0.00742264
0.00742309
0.00742349
0.00742383
0.00742411
0.00742436
0.00742457
0.00742475
0.00742489
0.00742502
0.00742512
0.0074252
0.00742527
0.00742532
0.00742536
0.00742538
0.00742539
0.00742539
0.00742538
0.00742536
0.00742532
0.00742527
0.0074252
0.00742512
0.00742502
0.00742489
0.00742475
0.00742457
0.00742436
0.00742411
0.00742383
0.00742349
0.00742309
0.00742264
0.0074221
0.00742149
0.00742078
0.00741996
0.00741903
0.00741797
0.00741677
0.00741542
0.00741391
0.00741223
0.00741039
0.00740839
0.00740617
0.00758392
0.00758624
0.00758832
0.00759024
0.00759199
0.00759357
0.00759498
0.00759623
0.00759734
0.00759831
0.00759916
0.0075999
0.00760054
0.00760109
0.00760157
0.00760198
0.00760234
0.00760264
0.00760289
0.00760311
0.0076033
0.00760345
0.00760358
0.00760369
0.00760377
0.00760384
0.0076039
0.00760394
0.00760396
0.00760397
0.00760397
0.00760396
0.00760394
0.0076039
0.00760384
0.00760377
0.00760369
0.00760358
0.00760345
0.0076033
0.00760311
0.00760289
0.00760264
0.00760234
0.00760198
0.00760157
0.00760109
0.00760054
0.0075999
0.00759916
0.00759831
0.00759734
0.00759623
0.00759498
0.00759357
0.00759199
0.00759024
0.00758832
0.00758624
0.00758392
0.00778096
0.00778338
0.00778557
0.00778758
0.00778941
0.00779106
0.00779253
0.00779385
0.007795
0.00779602
0.00779691
0.00779769
0.00779836
0.00779894
0.00779944
0.00779987
0.00780024
0.00780056
0.00780083
0.00780105
0.00780125
0.00780141
0.00780154
0.00780166
0.00780175
0.00780182
0.00780188
0.00780192
0.00780194
0.00780196
0.00780196
0.00780194
0.00780192
0.00780188
0.00780182
0.00780175
0.00780166
0.00780154
0.00780141
0.00780125
0.00780105
0.00780083
0.00780056
0.00780024
0.00779987
0.00779944
0.00779894
0.00779836
0.00779769
0.00779691
0.00779602
0.007795
0.00779385
0.00779253
0.00779106
0.00778941
0.00778758
0.00778557
0.00778338
0.00778096
0.00800062
0.00800317
0.00800547
0.00800758
0.00800951
0.00801124
0.00801279
0.00801417
0.00801539
0.00801646
0.0080174
0.00801821
0.00801892
0.00801953
0.00802006
0.00802051
0.0080209
0.00802123
0.00802152
0.00802176
0.00802196
0.00802213
0.00802227
0.00802239
0.00802249
0.00802256
0.00802262
0.00802267
0.00802269
0.00802271
0.00802271
0.00802269
0.00802267
0.00802262
0.00802256
0.00802249
0.00802239
0.00802227
0.00802213
0.00802196
0.00802176
0.00802152
0.00802123
0.0080209
0.00802051
0.00802006
0.00801953
0.00801892
0.00801821
0.0080174
0.00801646
0.00801539
0.00801417
0.00801279
0.00801124
0.00800951
0.00800758
0.00800547
0.00800317
0.00800062
0.00824709
0.00824979
0.00825221
0.00825445
0.00825648
0.00825832
0.00825996
0.00826142
0.0082627
0.00826383
0.00826482
0.00826569
0.00826644
0.00826708
0.00826764
0.00826812
0.00826853
0.00826888
0.00826918
0.00826944
0.00826965
0.00826983
0.00826998
0.00827011
0.00827021
0.00827029
0.00827035
0.0082704
0.00827043
0.00827044
0.00827044
0.00827043
0.0082704
0.00827035
0.00827029
0.00827021
0.00827011
0.00826998
0.00826983
0.00826965
0.00826944
0.00826918
0.00826888
0.00826853
0.00826812
0.00826764
0.00826708
0.00826644
0.00826569
0.00826482
0.00826383
0.0082627
0.00826142
0.00825996
0.00825832
0.00825648
0.00825445
0.00825221
0.00824979
0.00824709
0.00852568
0.00852855
0.00853114
0.00853351
0.00853567
0.00853762
0.00853937
0.00854092
0.00854229
0.00854349
0.00854455
0.00854546
0.00854626
0.00854695
0.00854754
0.00854806
0.00854849
0.00854887
0.00854919
0.00854946
0.00854969
0.00854988
0.00855004
0.00855017
0.00855028
0.00855037
0.00855043
0.00855048
0.00855051
0.00855053
0.00855053
0.00855051
0.00855048
0.00855043
0.00855037
0.00855028
0.00855017
0.00855004
0.00854988
0.00854969
0.00854946
0.00854919
0.00854887
0.00854849
0.00854806
0.00854754
0.00854695
0.00854626
0.00854546
0.00854455
0.00854349
0.00854229
0.00854092
0.00853937
0.00853762
0.00853567
0.00853351
0.00853114
0.00852855
0.00852568
0.00884327
0.00884635
0.00884912
0.00885166
0.00885398
0.00885607
0.00885794
0.0088596
0.00886107
0.00886236
0.00886348
0.00886447
0.00886532
0.00886606
0.0088667
0.00886725
0.00886771
0.00886812
0.00886846
0.00886875
0.00886899
0.0088692
0.00886937
0.00886951
0.00886963
0.00886972
0.00886979
0.00886985
0.00886988
0.0088699
0.0088699
0.00886988
0.00886985
0.00886979
0.00886972
0.00886963
0.00886951
0.00886937
0.0088692
0.00886899
0.00886875
0.00886846
0.00886812
0.00886771
0.00886725
0.0088667
0.00886606
0.00886532
0.00886447
0.00886348
0.00886236
0.00886107
0.0088596
0.00885794
0.00885607
0.00885398
0.00885166
0.00884912
0.00884635
0.00884327
0.00920892
0.00921224
0.00921523
0.00921797
0.00922048
0.00922274
0.00922476
0.00922655
0.00922814
0.00922953
0.00923075
0.00923181
0.00923274
0.00923354
0.00923422
0.00923482
0.00923532
0.00923576
0.00923613
0.00923644
0.00923671
0.00923693
0.00923712
0.00923727
0.0092374
0.0092375
0.00923757
0.00923763
0.00923767
0.00923769
0.00923769
0.00923767
0.00923763
0.00923757
0.0092375
0.0092374
0.00923727
0.00923712
0.00923693
0.00923671
0.00923644
0.00923613
0.00923576
0.00923532
0.00923482
0.00923422
0.00923354
0.00923274
0.00923181
0.00923075
0.00922953
0.00922814
0.00922655
0.00922476
0.00922274
0.00922048
0.00921797
0.00921523
0.00921224
0.00920892
0.00963477
0.0096384
0.00964165
0.00964465
0.00964738
0.00964985
0.00965205
0.00965401
0.00965575
0.00965727
0.0096586
0.00965976
0.00966077
0.00966164
0.0096624
0.00966304
0.0096636
0.00966407
0.00966448
0.00966482
0.00966511
0.00966535
0.00966556
0.00966573
0.00966586
0.00966597
0.00966606
0.00966612
0.00966616
0.00966618
0.00966618
0.00966616
0.00966612
0.00966606
0.00966597
0.00966586
0.00966573
0.00966556
0.00966535
0.00966511
0.00966482
0.00966448
0.00966407
0.0096636
0.00966304
0.0096624
0.00966164
0.00966077
0.00965976
0.0096586
0.00965727
0.00965575
0.00965401
0.00965205
0.00964985
0.00964738
0.00964465
0.00964165
0.0096384
0.00963477
0.0101376
0.0101416
0.0101452
0.0101485
0.0101515
0.0101542
0.0101567
0.0101588
0.0101608
0.0101624
0.0101639
0.0101652
0.0101663
0.0101673
0.0101681
0.0101688
0.0101694
0.01017
0.0101704
0.0101708
0.0101711
0.0101714
0.0101716
0.0101718
0.0101719
0.0101721
0.0101722
0.0101722
0.0101723
0.0101723
0.0101723
0.0101723
0.0101722
0.0101722
0.0101721
0.0101719
0.0101718
0.0101716
0.0101714
0.0101711
0.0101708
0.0101704
0.01017
0.0101694
0.0101688
0.0101681
0.0101673
0.0101663
0.0101652
0.0101639
0.0101624
0.0101608
0.0101588
0.0101567
0.0101542
0.0101515
0.0101485
0.0101452
0.0101416
0.0101376
0.0107409
0.0107454
0.0107494
0.0107532
0.0107566
0.0107596
0.0107624
0.0107648
0.0107669
0.0107688
0.0107705
0.0107719
0.0107732
0.0107743
0.0107752
0.010776
0.0107767
0.0107773
0.0107778
0.0107782
0.0107786
0.0107789
0.0107791
0.0107793
0.0107795
0.0107797
0.0107798
0.0107798
0.0107799
0.0107799
0.0107799
0.0107799
0.0107798
0.0107798
0.0107797
0.0107795
0.0107793
0.0107791
0.0107789
0.0107786
0.0107782
0.0107778
0.0107773
0.0107767
0.010776
0.0107752
0.0107743
0.0107732
0.0107719
0.0107705
0.0107688
0.0107669
0.0107648
0.0107624
0.0107596
0.0107566
0.0107532
0.0107494
0.0107454
0.0107409
0.011479
0.0114841
0.0114887
0.0114929
0.0114968
0.0115003
0.0115034
0.0115062
0.0115087
0.0115108
0.0115127
0.0115144
0.0115158
0.0115171
0.0115181
0.0115191
0.0115199
0.0115205
0.0115211
0.0115216
0.011522
0.0115224
0.0115227
0.0115229
0.0115231
0.0115232
0.0115234
0.0115235
0.0115235
0.0115235
0.0115235
0.0115235
0.0115235
0.0115234
0.0115232
0.0115231
0.0115229
0.0115227
0.0115224
0.011522
0.0115216
0.0115211
0.0115205
0.0115199
0.0115191
0.0115181
0.0115171
0.0115158
0.0115144
0.0115127
0.0115108
0.0115087
0.0115062
0.0115034
0.0115003
0.0114968
0.0114929
0.0114887
0.0114841
0.011479
0.0124018
0.0124077
0.0124131
0.0124181
0.0124226
0.0124267
0.0124304
0.0124336
0.0124365
0.0124391
0.0124413
0.0124432
0.0124449
0.0124464
0.0124476
0.0124487
0.0124496
0.0124504
0.0124511
0.0124517
0.0124521
0.0124526
0.0124529
0.0124532
0.0124534
0.0124536
0.0124537
0.0124538
0.0124539
0.0124539
0.0124539
0.0124539
0.0124538
0.0124537
0.0124536
0.0124534
0.0124532
0.0124529
0.0124526
0.0124521
0.0124517
0.0124511
0.0124504
0.0124496
0.0124487
0.0124476
0.0124464
0.0124449
0.0124432
0.0124413
0.0124391
0.0124365
0.0124336
0.0124304
0.0124267
0.0124226
0.0124181
0.0124131
0.0124077
0.0124018
0.0135832
0.0135903
0.0135967
0.0136027
0.0136081
0.0136131
0.0136175
0.0136214
0.0136249
0.0136279
0.0136306
0.0136329
0.0136349
0.0136367
0.0136382
0.0136395
0.0136406
0.0136416
0.0136424
0.0136431
0.0136437
0.0136442
0.0136446
0.0136449
0.0136452
0.0136454
0.0136456
0.0136457
0.0136458
0.0136458
0.0136458
0.0136458
0.0136457
0.0136456
0.0136454
0.0136452
0.0136449
0.0136446
0.0136442
0.0136437
0.0136431
0.0136424
0.0136416
0.0136406
0.0136395
0.0136382
0.0136367
0.0136349
0.0136329
0.0136306
0.0136279
0.0136249
0.0136214
0.0136175
0.0136131
0.0136081
0.0136027
0.0135967
0.0135903
0.0135832
0.0151292
0.0151378
0.0151458
0.0151531
0.0151599
0.0151659
0.0151714
0.0151762
0.0151805
0.0151843
0.0151876
0.0151904
0.0151929
0.0151951
0.015197
0.0151986
0.0152
0.0152011
0.0152021
0.015203
0.0152037
0.0152043
0.0152048
0.0152053
0.0152056
0.0152059
0.0152061
0.0152062
0.0152063
0.0152064
0.0152064
0.0152063
0.0152062
0.0152061
0.0152059
0.0152056
0.0152053
0.0152048
0.0152043
0.0152037
0.015203
0.0152021
0.0152011
0.0152
0.0151986
0.015197
0.0151951
0.0151929
0.0151904
0.0151876
0.0151843
0.0151805
0.0151762
0.0151714
0.0151659
0.0151599
0.0151531
0.0151458
0.0151378
0.0151292
0.0171823
0.0171932
0.0172032
0.0172124
0.0172209
0.0172285
0.0172354
0.0172415
0.0172469
0.0172516
0.0172558
0.0172594
0.0172626
0.0172653
0.0172676
0.0172697
0.0172714
0.0172729
0.0172742
0.0172752
0.0172762
0.0172769
0.0172776
0.0172781
0.0172785
0.0172789
0.0172791
0.0172793
0.0172795
0.0172795
0.0172795
0.0172795
0.0172793
0.0172791
0.0172789
0.0172785
0.0172781
0.0172776
0.0172769
0.0172762
0.0172752
0.0172742
0.0172729
0.0172714
0.0172697
0.0172676
0.0172653
0.0172626
0.0172594
0.0172558
0.0172516
0.0172469
0.0172415
0.0172354
0.0172285
0.0172209
0.0172124
0.0172032
0.0171932
0.0171823
0.0199129
0.0199266
0.0199393
0.0199511
0.0199619
0.0199716
0.0199803
0.0199881
0.0199949
0.020001
0.0200062
0.0200109
0.0200149
0.0200183
0.0200213
0.0200239
0.0200261
0.020028
0.0200296
0.020031
0.0200322
0.0200331
0.020034
0.0200346
0.0200352
0.0200356
0.020036
0.0200362
0.0200364
0.0200365
0.0200365
0.0200364
0.0200362
0.020036
0.0200356
0.0200352
0.0200346
0.020034
0.0200331
0.0200322
0.020031
0.0200296
0.020028
0.0200261
0.0200239
0.0200213
0.0200183
0.0200149
0.0200109
0.0200062
0.020001
0.0199949
0.0199881
0.0199803
0.0199716
0.0199619
0.0199511
0.0199393
0.0199266
0.0199129
0.0234876
0.0235049
0.0235209
0.0235358
0.0235494
0.0235616
0.0235726
0.0235824
0.0235911
0.0235987
0.0236054
0.0236112
0.0236163
0.0236207
0.0236245
0.0236277
0.0236305
0.0236329
0.023635
0.0236367
0.0236382
0.0236394
0.0236404
0.0236413
0.023642
0.0236426
0.023643
0.0236433
0.0236435
0.0236436
0.0236436
0.0236435
0.0236433
0.023643
0.0236426
0.023642
0.0236413
0.0236404
0.0236394
0.0236382
0.0236367
0.023635
0.0236329
0.0236305
0.0236277
0.0236245
0.0236207
0.0236163
0.0236112
0.0236054
0.0235987
0.0235911
0.0235824
0.0235726
0.0235616
0.0235494
0.0235358
0.0235209
0.0235049
0.0234876
0.0280185
0.0280399
0.0280597
0.0280781
0.0280949
0.0281101
0.0281237
0.0281358
0.0281465
0.0281559
0.0281642
0.0281714
0.0281777
0.0281831
0.0281878
0.0281918
0.0281953
0.0281982
0.0282008
0.0282029
0.0282047
0.0282063
0.0282075
0.0282086
0.0282095
0.0282102
0.0282107
0.0282111
0.0282113
0.0282115
0.0282115
0.0282113
0.0282111
0.0282107
0.0282102
0.0282095
0.0282086
0.0282075
0.0282063
0.0282047
0.0282029
0.0282008
0.0281982
0.0281953
0.0281918
0.0281878
0.0281831
0.0281777
0.0281714
0.0281642
0.0281559
0.0281465
0.0281358
0.0281237
0.0281101
0.0280949
0.0280781
0.0280597
0.0280399
0.0280185
0.0335186
0.0335444
0.0335682
0.0335903
0.0336104
0.0336286
0.0336449
0.0336594
0.0336722
0.0336835
0.0336934
0.033702
0.0337095
0.0337161
0.0337217
0.0337265
0.0337307
0.0337342
0.0337373
0.0337398
0.033742
0.0337439
0.0337454
0.0337467
0.0337477
0.0337485
0.0337492
0.0337497
0.03375
0.0337501
0.0337501
0.03375
0.0337497
0.0337492
0.0337485
0.0337477
0.0337467
0.0337454
0.0337439
0.033742
0.0337398
0.0337373
0.0337342
0.0337307
0.0337265
0.0337217
0.0337161
0.0337095
0.033702
0.0336934
0.0336835
0.0336722
0.0336594
0.0336449
0.0336286
0.0336104
0.0335903
0.0335682
0.0335444
0.0335186
0.0398945
0.0399246
0.0399523
0.0399779
0.0400012
0.0400223
0.0400412
0.040058
0.0400729
0.0400859
0.0400974
0.0401074
0.0401162
0.0401237
0.0401302
0.0401359
0.0401407
0.0401448
0.0401484
0.0401514
0.0401539
0.040156
0.0401578
0.0401593
0.0401605
0.0401615
0.0401622
0.0401628
0.0401631
0.0401633
0.0401633
0.0401631
0.0401628
0.0401622
0.0401615
0.0401605
0.0401593
0.0401578
0.040156
0.0401539
0.0401514
0.0401484
0.0401448
0.0401407
0.0401359
0.0401302
0.0401237
0.0401162
0.0401074
0.0400974
0.0400859
0.0400729
0.040058
0.0400412
0.0400223
0.0400012
0.0399779
0.0399523
0.0399246
0.0398945
0.0469846
0.0470187
0.04705
0.0470788
0.0471051
0.0471289
0.0471501
0.047169
0.0471858
0.0472006
0.0472135
0.0472248
0.0472346
0.0472431
0.0472505
0.0472569
0.0472623
0.047267
0.047271
0.0472744
0.0472772
0.0472797
0.0472817
0.0472834
0.0472847
0.0472858
0.0472867
0.0472873
0.0472877
0.0472879
0.0472879
0.0472877
0.0472873
0.0472867
0.0472858
0.0472847
0.0472834
0.0472817
0.0472797
0.0472772
0.0472744
0.047271
0.047267
0.0472623
0.0472569
0.0472505
0.0472431
0.0472346
0.0472248
0.0472135
0.0472006
0.0471858
0.047169
0.0471501
0.0471289
0.0471051
0.0470788
0.04705
0.0470187
0.0469846
0.0546161
0.0546539
0.0546885
0.0547203
0.0547493
0.0547754
0.0547988
0.0548197
0.0548381
0.0548544
0.0548687
0.0548812
0.054892
0.0549014
0.0549096
0.0549166
0.0549226
0.0549278
0.0549322
0.0549359
0.0549391
0.0549418
0.054944
0.0549459
0.0549474
0.0549486
0.0549496
0.0549502
0.0549507
0.0549509
0.0549509
0.0549507
0.0549502
0.0549496
0.0549486
0.0549474
0.0549459
0.054944
0.0549418
0.0549391
0.0549359
0.0549322
0.0549278
0.0549226
0.0549166
0.0549096
0.0549014
0.054892
0.0548812
0.0548687
0.0548544
0.0548381
0.0548197
0.0547988
0.0547754
0.0547493
0.0547203
0.0546885
0.0546539
0.0546161
0.0626465
0.0626878
0.0627255
0.06276
0.0627915
0.0628198
0.0628453
0.0628679
0.0628879
0.0629056
0.0629211
0.0629347
0.0629465
0.0629567
0.0629656
0.0629732
0.0629798
0.0629854
0.0629902
0.0629943
0.0629978
0.0630007
0.0630032
0.0630052
0.0630069
0.0630082
0.0630092
0.0630099
0.0630104