/*--------------------------------*- C++ -*----------------------------------*\
| =========                 |                                                 |
| \\      /  F ield         | foam-extend: Open Source CFD                    |
|  \\    /   O peration     | Version:     4.0                                |
|   \\  /    A nd           | Web:         http://www.foam-extend.org         |
|    \\/     M anipulation  |                                                 |
\*---------------------------------------------------------------------------*/
FoamFile
{
    version     2.0;
    format      ascii;
    class       volScalarField;
    location    "260";
    object      psiE;
}
// * * * * * * * * * * * * * * * * * * * * * * * * * * * * * * * * * * * * * //

dimensions      [0 0 0 0 0 0 0];

internalField   nonuniform List<scalar> 
6960
(
0.182681
0.182656
0.182651
0.182649
0.182648
0.182648
0.182648
0.182649
0.182649
0.182649
0.18265
0.18265
0.182651
0.182651
0.182652
0.182652
0.182652
0.182653
0.182653
0.182654
0.182654
0.182654
0.182655
0.182655
0.182655
0.182655
0.182655
0.182655
0.182655
0.182656
0.182656
0.182655
0.182655
0.182655
0.182655
0.182655
0.182655
0.182655
0.182654
0.182654
0.182654
0.182653
0.182653
0.182652
0.182652
0.182652
0.182651
0.182651
0.18265
0.18265
0.182649
0.182649
0.182649
0.182648
0.182648
0.182648
0.182649
0.182651
0.182656
0.182681
0.350068
0.350014
0.350003
0.349999
0.349998
0.349998
0.349998
0.349999
0.35
0.350002
0.350003
0.350004
0.350006
0.350007
0.350009
0.35001
0.350011
0.350013
0.350014
0.350015
0.350016
0.350017
0.350018
0.350019
0.350019
0.35002
0.35002
0.350021
0.350021
0.350021
0.350021
0.350021
0.350021
0.35002
0.35002
0.350019
0.350019
0.350018
0.350017
0.350016
0.350015
0.350014
0.350013
0.350011
0.35001
0.350009
0.350007
0.350006
0.350004
0.350003
0.350002
0.35
0.349999
0.349998
0.349998
0.349998
0.349999
0.350003
0.350014
0.350068
0.44145
0.441382
0.441367
0.441362
0.441361
0.441361
0.441362
0.441363
0.441365
0.441367
0.44137
0.441372
0.441375
0.441377
0.44138
0.441382
0.441384
0.441387
0.441389
0.441391
0.441392
0.441394
0.441396
0.441397
0.441398
0.441399
0.4414
0.4414
0.441401
0.441401
0.441401
0.441401
0.4414
0.4414
0.441399
0.441398
0.441397
0.441396
0.441394
0.441392
0.441391
0.441389
0.441387
0.441384
0.441382
0.44138
0.441377
0.441375
0.441372
0.44137
0.441367
0.441365
0.441363
0.441362
0.441361
0.441361
0.441362
0.441367
0.441382
0.44145
0.503075
0.503001
0.502983
0.502978
0.502976
0.502977
0.502978
0.502981
0.502983
0.502987
0.50299
0.502994
0.502997
0.503001
0.503004
0.503008
0.503011
0.503014
0.503017
0.50302
0.503023
0.503025
0.503027
0.503029
0.503031
0.503032
0.503033
0.503034
0.503034
0.503035
0.503035
0.503034
0.503034
0.503033
0.503032
0.503031
0.503029
0.503027
0.503025
0.503023
0.50302
0.503017
0.503014
0.503011
0.503008
0.503004
0.503001
0.502997
0.502994
0.50299
0.502987
0.502983
0.502981
0.502978
0.502977
0.502976
0.502978
0.502983
0.503001
0.503075
0.553117
0.553041
0.553022
0.553016
0.553014
0.553015
0.553018
0.553021
0.553025
0.553029
0.553033
0.553038
0.553043
0.553048
0.553052
0.553057
0.553061
0.553066
0.55307
0.553073
0.553077
0.55308
0.553082
0.553085
0.553087
0.553089
0.55309
0.553091
0.553092
0.553092
0.553092
0.553092
0.553091
0.55309
0.553089
0.553087
0.553085
0.553082
0.55308
0.553077
0.553073
0.55307
0.553066
0.553061
0.553057
0.553052
0.553048
0.553043
0.553038
0.553033
0.553029
0.553025
0.553021
0.553018
0.553015
0.553014
0.553016
0.553022
0.553041
0.553117
0.598434
0.598357
0.598336
0.59833
0.598329
0.59833
0.598333
0.598338
0.598342
0.598348
0.598353
0.598359
0.598365
0.598371
0.598377
0.598383
0.598388
0.598394
0.598398
0.598403
0.598407
0.598411
0.598415
0.598418
0.59842
0.598422
0.598424
0.598425
0.598426
0.598427
0.598427
0.598426
0.598425
0.598424
0.598422
0.59842
0.598418
0.598415
0.598411
0.598407
0.598403
0.598398
0.598394
0.598388
0.598383
0.598377
0.598371
0.598365
0.598359
0.598353
0.598348
0.598342
0.598338
0.598333
0.59833
0.598329
0.59833
0.598336
0.598357
0.598434
0.641568
0.641491
0.641469
0.641463
0.641462
0.641464
0.641468
0.641473
0.641479
0.641485
0.641492
0.641499
0.641507
0.641514
0.641521
0.641528
0.641535
0.641541
0.641547
0.641552
0.641557
0.641562
0.641566
0.64157
0.641573
0.641576
0.641578
0.641579
0.64158
0.641581
0.641581
0.64158
0.641579
0.641578
0.641576
0.641573
0.64157
0.641566
0.641562
0.641557
0.641552
0.641547
0.641541
0.641535
0.641528
0.641521
0.641514
0.641507
0.641499
0.641492
0.641485
0.641479
0.641473
0.641468
0.641464
0.641462
0.641463
0.641469
0.641491
0.641568
0.683515
0.683439
0.683416
0.683409
0.683409
0.683412
0.683416
0.683422
0.683429
0.683437
0.683445
0.683454
0.683462
0.683471
0.683479
0.683487
0.683495
0.683502
0.683509
0.683516
0.683522
0.683527
0.683532
0.683536
0.68354
0.683543
0.683546
0.683547
0.683549
0.683549
0.683549
0.683549
0.683547
0.683546
0.683543
0.68354
0.683536
0.683532
0.683527
0.683522
0.683516
0.683509
0.683502
0.683495
0.683487
0.683479
0.683471
0.683462
0.683454
0.683445
0.683437
0.683429
0.683422
0.683416
0.683412
0.683409
0.683409
0.683416
0.683439
0.683515
0.724736
0.72466
0.724637
0.72463
0.72463
0.724634
0.724639
0.724646
0.724654
0.724663
0.724673
0.724682
0.724692
0.724702
0.724712
0.724721
0.72473
0.724739
0.724747
0.724754
0.724761
0.724767
0.724773
0.724778
0.724782
0.724786
0.724789
0.724791
0.724792
0.724793
0.724793
0.724792
0.724791
0.724789
0.724786
0.724782
0.724778
0.724773
0.724767
0.724761
0.724754
0.724747
0.724739
0.72473
0.724721
0.724712
0.724702
0.724692
0.724682
0.724673
0.724663
0.724654
0.724646
0.724639
0.724634
0.72463
0.72463
0.724637
0.72466
0.724736
0.765505
0.76543
0.765406
0.7654
0.7654
0.765404
0.765411
0.765419
0.765428
0.765438
0.765449
0.76546
0.765471
0.765482
0.765493
0.765504
0.765514
0.765524
0.765533
0.765542
0.76555
0.765557
0.765563
0.765569
0.765574
0.765578
0.765581
0.765583
0.765585
0.765586
0.765586
0.765585
0.765583
0.765581
0.765578
0.765574
0.765569
0.765563
0.765557
0.76555
0.765542
0.765533
0.765524
0.765514
0.765504
0.765493
0.765482
0.765471
0.76546
0.765449
0.765438
0.765428
0.765419
0.765411
0.765404
0.7654
0.7654
0.765406
0.76543
0.765505
0.806025
0.805951
0.805926
0.80592
0.80592
0.805925
0.805933
0.805942
0.805952
0.805964
0.805976
0.805988
0.806001
0.806014
0.806026
0.806038
0.80605
0.806061
0.806071
0.80608
0.806089
0.806097
0.806105
0.806111
0.806116
0.806121
0.806124
0.806127
0.806129
0.80613
0.80613
0.806129
0.806127
0.806124
0.806121
0.806116
0.806111
0.806105
0.806097
0.806089
0.80608
0.806071
0.806061
0.80605
0.806038
0.806026
0.806014
0.806001
0.805988
0.805976
0.805964
0.805952
0.805942
0.805933
0.805925
0.80592
0.80592
0.805926
0.805951
0.806025
0.846461
0.846388
0.846363
0.846357
0.846358
0.846364
0.846372
0.846383
0.846394
0.846407
0.846421
0.846435
0.846449
0.846463
0.846476
0.84649
0.846503
0.846515
0.846526
0.846537
0.846547
0.846556
0.846564
0.846571
0.846577
0.846582
0.846586
0.846589
0.846591
0.846592
0.846592
0.846591
0.846589
0.846586
0.846582
0.846577
0.846571
0.846564
0.846556
0.846547
0.846537
0.846526
0.846515
0.846503
0.84649
0.846476
0.846463
0.846449
0.846435
0.846421
0.846407
0.846394
0.846383
0.846372
0.846364
0.846358
0.846357
0.846363
0.846388
0.846461
0.886961
0.886888
0.886863
0.886857
0.886859
0.886865
0.886875
0.886886
0.886899
0.886914
0.886929
0.886944
0.886959
0.886975
0.88699
0.887005
0.887019
0.887033
0.887046
0.887057
0.887068
0.887078
0.887087
0.887095
0.887101
0.887107
0.887111
0.887115
0.887117
0.887118
0.887118
0.887117
0.887115
0.887111
0.887107
0.887101
0.887095
0.887087
0.887078
0.887068
0.887057
0.887046
0.887033
0.887019
0.887005
0.88699
0.886975
0.886959
0.886944
0.886929
0.886914
0.886899
0.886886
0.886875
0.886865
0.886859
0.886857
0.886863
0.886888
0.886961
0.927653
0.927581
0.927556
0.92755
0.927553
0.92756
0.927571
0.927583
0.927598
0.927613
0.92763
0.927647
0.927664
0.927681
0.927698
0.927714
0.927729
0.927744
0.927758
0.927771
0.927783
0.927794
0.927804
0.927812
0.92782
0.927826
0.927831
0.927834
0.927837
0.927838
0.927838
0.927837
0.927834
0.927831
0.927826
0.92782
0.927812
0.927804
0.927794
0.927783
0.927771
0.927758
0.927744
0.927729
0.927714
0.927698
0.927681
0.927664
0.927647
0.92763
0.927613
0.927598
0.927583
0.927571
0.92756
0.927553
0.92755
0.927556
0.927581
0.927653
0.968656
0.968586
0.96856
0.968555
0.968558
0.968566
0.968578
0.968592
0.968607
0.968625
0.968642
0.968661
0.96868
0.968698
0.968717
0.968734
0.968752
0.968768
0.968783
0.968797
0.96881
0.968822
0.968833
0.968842
0.96885
0.968857
0.968862
0.968866
0.968869
0.96887
0.96887
0.968869
0.968866
0.968862
0.968857
0.96885
0.968842
0.968833
0.968822
0.96881
0.968797
0.968783
0.968768
0.968752
0.968734
0.968717
0.968698
0.96868
0.968661
0.968642
0.968625
0.968607
0.968592
0.968578
0.968566
0.968558
0.968555
0.96856
0.968586
0.968656
1.01008
1.01001
1.00998
1.00998
1.00998
1.00999
1.01
1.01002
1.01004
1.01006
1.01008
1.0101
1.01012
1.01014
1.01016
1.01018
1.01019
1.01021
1.01023
1.01024
1.01026
1.01027
1.01028
1.01029
1.0103
1.01031
1.01031
1.01032
1.01032
1.01032
1.01032
1.01032
1.01032
1.01031
1.01031
1.0103
1.01029
1.01028
1.01027
1.01026
1.01024
1.01023
1.01021
1.01019
1.01018
1.01016
1.01014
1.01012
1.0101
1.01008
1.01006
1.01004
1.01002
1.01
1.00999
1.00998
1.00998
1.00998
1.01001
1.01008
1.05202
1.05195
1.05193
1.05192
1.05193
1.05194
1.05195
1.05197
1.05199
1.05201
1.05203
1.05205
1.05207
1.0521
1.05212
1.05214
1.05216
1.05218
1.0522
1.05221
1.05223
1.05224
1.05225
1.05226
1.05227
1.05228
1.05229
1.05229
1.0523
1.0523
1.0523
1.0523
1.05229
1.05229
1.05228
1.05227
1.05226
1.05225
1.05224
1.05223
1.05221
1.0522
1.05218
1.05216
1.05214
1.05212
1.0521
1.05207
1.05205
1.05203
1.05201
1.05199
1.05197
1.05195
1.05194
1.05193
1.05192
1.05193
1.05195
1.05202
1.09458
1.09452
1.09449
1.09449
1.09449
1.0945
1.09452
1.09454
1.09456
1.09458
1.0946
1.09462
1.09465
1.09467
1.09469
1.09472
1.09474
1.09476
1.09478
1.0948
1.09481
1.09483
1.09484
1.09485
1.09486
1.09487
1.09488
1.09488
1.09489
1.09489
1.09489
1.09489
1.09488
1.09488
1.09487
1.09486
1.09485
1.09484
1.09483
1.09481
1.0948
1.09478
1.09476
1.09474
1.09472
1.09469
1.09467
1.09465
1.09462
1.0946
1.09458
1.09456
1.09454
1.09452
1.0945
1.09449
1.09449
1.09449
1.09452
1.09458
1.13784
1.13778
1.13776
1.13775
1.13776
1.13777
1.13779
1.13781
1.13783
1.13785
1.13788
1.1379
1.13793
1.13795
1.13798
1.138
1.13802
1.13805
1.13807
1.13809
1.1381
1.13812
1.13814
1.13815
1.13816
1.13817
1.13818
1.13818
1.13818
1.13819
1.13819
1.13818
1.13818
1.13818
1.13817
1.13816
1.13815
1.13814
1.13812
1.1381
1.13809
1.13807
1.13805
1.13802
1.138
1.13798
1.13795
1.13793
1.1379
1.13788
1.13785
1.13783
1.13781
1.13779
1.13777
1.13776
1.13775
1.13776
1.13778
1.13784
1.1819
1.18183
1.18181
1.18181
1.18181
1.18183
1.18184
1.18187
1.18189
1.18191
1.18194
1.18197
1.18199
1.18202
1.18205
1.18207
1.1821
1.18212
1.18215
1.18217
1.18219
1.1822
1.18222
1.18223
1.18224
1.18225
1.18226
1.18227
1.18227
1.18227
1.18227
1.18227
1.18227
1.18226
1.18225
1.18224
1.18223
1.18222
1.1822
1.18219
1.18217
1.18215
1.18212
1.1821
1.18207
1.18205
1.18202
1.18199
1.18197
1.18194
1.18191
1.18189
1.18187
1.18184
1.18183
1.18181
1.18181
1.18181
1.18183
1.1819
1.22682
1.22676
1.22674
1.22673
1.22674
1.22675
1.22677
1.2268
1.22682
1.22685
1.22688
1.2269
1.22693
1.22696
1.22699
1.22702
1.22705
1.22707
1.2271
1.22712
1.22714
1.22716
1.22717
1.22719
1.2272
1.22721
1.22722
1.22723
1.22723
1.22723
1.22723
1.22723
1.22723
1.22722
1.22721
1.2272
1.22719
1.22717
1.22716
1.22714
1.22712
1.2271
1.22707
1.22705
1.22702
1.22699
1.22696
1.22693
1.2269
1.22688
1.22685
1.22682
1.2268
1.22677
1.22675
1.22674
1.22673
1.22674
1.22676
1.22682
1.27269
1.27263
1.27261
1.27261
1.27261
1.27263
1.27265
1.27267
1.2727
1.27273
1.27276
1.27279
1.27282
1.27285
1.27288
1.27291
1.27294
1.27297
1.273
1.27302
1.27304
1.27306
1.27308
1.27309
1.27311
1.27312
1.27313
1.27313
1.27314
1.27314
1.27314
1.27314
1.27313
1.27313
1.27312
1.27311
1.27309
1.27308
1.27306
1.27304
1.27302
1.273
1.27297
1.27294
1.27291
1.27288
1.27285
1.27282
1.27279
1.27276
1.27273
1.2727
1.27267
1.27265
1.27263
1.27261
1.27261
1.27261
1.27263
1.27269
1.31958
1.31953
1.31951
1.3195
1.31951
1.31953
1.31955
1.31958
1.31961
1.31964
1.31967
1.3197
1.31974
1.31977
1.3198
1.31983
1.31986
1.31989
1.31992
1.31994
1.31997
1.31999
1.32001
1.32002
1.32004
1.32005
1.32006
1.32007
1.32007
1.32007
1.32007
1.32007
1.32007
1.32006
1.32005
1.32004
1.32002
1.32001
1.31999
1.31997
1.31994
1.31992
1.31989
1.31986
1.31983
1.3198
1.31977
1.31974
1.3197
1.31967
1.31964
1.31961
1.31958
1.31955
1.31953
1.31951
1.3195
1.31951
1.31953
1.31958
1.36757
1.36752
1.3675
1.3675
1.36751
1.36753
1.36755
1.36758
1.36761
1.36764
1.36767
1.36771
1.36774
1.36778
1.36781
1.36785
1.36788
1.36791
1.36794
1.36797
1.36799
1.36801
1.36803
1.36805
1.36807
1.36808
1.36809
1.3681
1.3681
1.3681
1.3681
1.3681
1.3681
1.36809
1.36808
1.36807
1.36805
1.36803
1.36801
1.36799
1.36797
1.36794
1.36791
1.36788
1.36785
1.36781
1.36778
1.36774
1.36771
1.36767
1.36764
1.36761
1.36758
1.36755
1.36753
1.36751
1.3675
1.3675
1.36752
1.36757
1.41673
1.41668
1.41666
1.41666
1.41667
1.41669
1.41671
1.41674
1.41677
1.41681
1.41685
1.41688
1.41692
1.41696
1.41699
1.41703
1.41706
1.4171
1.41713
1.41716
1.41718
1.41721
1.41723
1.41725
1.41726
1.41728
1.41729
1.41729
1.4173
1.4173
1.4173
1.4173
1.41729
1.41729
1.41728
1.41726
1.41725
1.41723
1.41721
1.41718
1.41716
1.41713
1.4171
1.41706
1.41703
1.41699
1.41696
1.41692
1.41688
1.41685
1.41681
1.41677
1.41674
1.41671
1.41669
1.41667
1.41666
1.41666
1.41668
1.41673
1.46712
1.46707
1.46705
1.46705
1.46707
1.46709
1.46711
1.46714
1.46718
1.46722
1.46725
1.46729
1.46733
1.46737
1.46741
1.46745
1.46749
1.46752
1.46755
1.46758
1.46761
1.46764
1.46766
1.46768
1.46769
1.46771
1.46772
1.46773
1.46773
1.46774
1.46774
1.46773
1.46773
1.46772
1.46771
1.46769
1.46768
1.46766
1.46764
1.46761
1.46758
1.46755
1.46752
1.46749
1.46745
1.46741
1.46737
1.46733
1.46729
1.46725
1.46722
1.46718
1.46714
1.46711
1.46709
1.46707
1.46705
1.46705
1.46707
1.46712
1.51882
1.51877
1.51875
1.51875
1.51877
1.51879
1.51882
1.51885
1.51889
1.51893
1.51897
1.51901
1.51905
1.51909
1.51913
1.51917
1.51921
1.51925
1.51928
1.51931
1.51934
1.51937
1.51939
1.51941
1.51943
1.51945
1.51946
1.51947
1.51947
1.51948
1.51948
1.51947
1.51947
1.51946
1.51945
1.51943
1.51941
1.51939
1.51937
1.51934
1.51931
1.51928
1.51925
1.51921
1.51917
1.51913
1.51909
1.51905
1.51901
1.51897
1.51893
1.51889
1.51885
1.51882
1.51879
1.51877
1.51875
1.51875
1.51877
1.51882
1.57188
1.57184
1.57182
1.57182
1.57184
1.57186
1.57189
1.57193
1.57196
1.57201
1.57205
1.57209
1.57214
1.57218
1.57223
1.57227
1.57231
1.57235
1.57238
1.57242
1.57245
1.57248
1.5725
1.57252
1.57254
1.57256
1.57257
1.57258
1.57259
1.57259
1.57259
1.57259
1.57258
1.57257
1.57256
1.57254
1.57252
1.5725
1.57248
1.57245
1.57242
1.57238
1.57235
1.57231
1.57227
1.57223
1.57218
1.57214
1.57209
1.57205
1.57201
1.57196
1.57193
1.57189
1.57186
1.57184
1.57182
1.57182
1.57184
1.57188
1.62638
1.62634
1.62633
1.62633
1.62635
1.62637
1.6264
1.62644
1.62648
1.62652
1.62657
1.62661
1.62666
1.62671
1.62675
1.6268
1.62684
1.62688
1.62692
1.62696
1.62699
1.62702
1.62704
1.62707
1.62709
1.6271
1.62712
1.62713
1.62713
1.62714
1.62714
1.62713
1.62713
1.62712
1.6271
1.62709
1.62707
1.62704
1.62702
1.62699
1.62696
1.62692
1.62688
1.62684
1.6268
1.62675
1.62671
1.62666
1.62661
1.62657
1.62652
1.62648
1.62644
1.6264
1.62637
1.62635
1.62633
1.62633
1.62634
1.62638
1.68239
1.68235
1.68233
1.68233
1.68235
1.68238
1.68241
1.68245
1.68249
1.68254
1.68259
1.68264
1.68269
1.68273
1.68278
1.68283
1.68287
1.68292
1.68296
1.68299
1.68303
1.68306
1.68309
1.68311
1.68313
1.68315
1.68316
1.68318
1.68318
1.68319
1.68319
1.68318
1.68318
1.68316
1.68315
1.68313
1.68311
1.68309
1.68306
1.68303
1.68299
1.68296
1.68292
1.68287
1.68283
1.68278
1.68273
1.68269
1.68264
1.68259
1.68254
1.68249
1.68245
1.68241
1.68238
1.68235
1.68233
1.68233
1.68235
1.68239
1.73995
1.73991
1.7399
1.7399
1.73992
1.73995
1.73999
1.74003
1.74007
1.74012
1.74017
1.74022
1.74027
1.74033
1.74038
1.74043
1.74047
1.74052
1.74056
1.7406
1.74064
1.74067
1.7407
1.74072
1.74075
1.74076
1.74078
1.74079
1.7408
1.7408
1.7408
1.7408
1.74079
1.74078
1.74076
1.74075
1.74072
1.7407
1.74067
1.74064
1.7406
1.74056
1.74052
1.74047
1.74043
1.74038
1.74033
1.74027
1.74022
1.74017
1.74012
1.74007
1.74003
1.73999
1.73995
1.73992
1.7399
1.7399
1.73991
1.73995
1.79914
1.79911
1.7991
1.7991
1.79912
1.79915
1.79919
1.79923
1.79928
1.79933
1.79938
1.79944
1.79949
1.79955
1.7996
1.79965
1.7997
1.79975
1.79979
1.79983
1.79987
1.79991
1.79994
1.79996
1.79999
1.80001
1.80002
1.80003
1.80004
1.80005
1.80005
1.80004
1.80003
1.80002
1.80001
1.79999
1.79996
1.79994
1.79991
1.79987
1.79983
1.79979
1.79975
1.7997
1.79965
1.7996
1.79955
1.79949
1.79944
1.79938
1.79933
1.79928
1.79923
1.79919
1.79915
1.79912
1.7991
1.7991
1.79911
1.79914
1.86003
1.86
1.85998
1.85999
1.86001
1.86004
1.86008
1.86013
1.86018
1.86023
1.86029
1.86034
1.8604
1.86046
1.86052
1.86057
1.86062
1.86067
1.86072
1.86076
1.8608
1.86084
1.86087
1.8609
1.86092
1.86094
1.86096
1.86097
1.86098
1.86098
1.86098
1.86098
1.86097
1.86096
1.86094
1.86092
1.8609
1.86087
1.86084
1.8608
1.86076
1.86072
1.86067
1.86062
1.86057
1.86052
1.86046
1.8604
1.86034
1.86029
1.86023
1.86018
1.86013
1.86008
1.86004
1.86001
1.85999
1.85998
1.86
1.86003
1.92267
1.92264
1.92263
1.92264
1.92266
1.92269
1.92273
1.92278
1.92283
1.92289
1.92295
1.92301
1.92307
1.92313
1.92319
1.92324
1.9233
1.92335
1.9234
1.92345
1.92349
1.92353
1.92356
1.92359
1.92361
1.92364
1.92365
1.92367
1.92367
1.92368
1.92368
1.92367
1.92367
1.92365
1.92364
1.92361
1.92359
1.92356
1.92353
1.92349
1.92345
1.9234
1.92335
1.9233
1.92324
1.92319
1.92313
1.92307
1.92301
1.92295
1.92289
1.92283
1.92278
1.92273
1.92269
1.92266
1.92264
1.92263
1.92264
1.92267
1.98712
1.9871
1.98709
1.9871
1.98713
1.98716
1.9872
1.98725
1.98731
1.98737
1.98743
1.98749
1.98755
1.98762
1.98768
1.98774
1.9878
1.98785
1.9879
1.98795
1.98799
1.98803
1.98807
1.9881
1.98813
1.98815
1.98817
1.98818
1.98819
1.98819
1.98819
1.98819
1.98818
1.98817
1.98815
1.98813
1.9881
1.98807
1.98803
1.98799
1.98795
1.9879
1.98785
1.9878
1.98774
1.98768
1.98762
1.98755
1.98749
1.98743
1.98737
1.98731
1.98725
1.9872
1.98716
1.98713
1.9871
1.98709
1.9871
1.98712
2.05347
2.05344
2.05344
2.05345
2.05347
2.05351
2.05356
2.05361
2.05367
2.05373
2.05379
2.05386
2.05393
2.05399
2.05406
2.05412
2.05418
2.05424
2.05429
2.05434
2.05439
2.05443
2.05446
2.0545
2.05453
2.05455
2.05457
2.05458
2.05459
2.0546
2.0546
2.05459
2.05458
2.05457
2.05455
2.05453
2.0545
2.05446
2.05443
2.05439
2.05434
2.05429
2.05424
2.05418
2.05412
2.05406
2.05399
2.05393
2.05386
2.05379
2.05373
2.05367
2.05361
2.05356
2.05351
2.05347
2.05345
2.05344
2.05344
2.05347
2.12176
2.12174
2.12173
2.12175
2.12177
2.12181
2.12186
2.12192
2.12198
2.12204
2.12211
2.12218
2.12225
2.12232
2.12238
2.12245
2.12251
2.12257
2.12263
2.12268
2.12273
2.12277
2.12281
2.12284
2.12287
2.1229
2.12292
2.12293
2.12294
2.12295
2.12295
2.12294
2.12293
2.12292
2.1229
2.12287
2.12284
2.12281
2.12277
2.12273
2.12268
2.12263
2.12257
2.12251
2.12245
2.12238
2.12232
2.12225
2.12218
2.12211
2.12204
2.12198
2.12192
2.12186
2.12181
2.12177
2.12175
2.12173
2.12174
2.12176
2.19206
2.19204
2.19204
2.19206
2.19209
2.19213
2.19218
2.19224
2.1923
2.19237
2.19244
2.19251
2.19258
2.19265
2.19272
2.19279
2.19286
2.19292
2.19298
2.19304
2.19309
2.19313
2.19317
2.19321
2.19324
2.19326
2.19328
2.1933
2.19331
2.19332
2.19332
2.19331
2.1933
2.19328
2.19326
2.19324
2.19321
2.19317
2.19313
2.19309
2.19304
2.19298
2.19292
2.19286
2.19279
2.19272
2.19265
2.19258
2.19251
2.19244
2.19237
2.1923
2.19224
2.19218
2.19213
2.19209
2.19206
2.19204
2.19204
2.19206
2.26445
2.26443
2.26443
2.26445
2.26448
2.26452
2.26458
2.26464
2.2647
2.26477
2.26485
2.26492
2.265
2.26507
2.26515
2.26522
2.26529
2.26536
2.26542
2.26547
2.26553
2.26557
2.26562
2.26565
2.26569
2.26571
2.26573
2.26575
2.26576
2.26577
2.26577
2.26576
2.26575
2.26573
2.26571
2.26569
2.26565
2.26562
2.26557
2.26553
2.26547
2.26542
2.26536
2.26529
2.26522
2.26515
2.26507
2.265
2.26492
2.26485
2.26477
2.2647
2.26464
2.26458
2.26452
2.26448
2.26445
2.26443
2.26443
2.26445
2.33898
2.33897
2.33897
2.33899
2.33902
2.33907
2.33912
2.33919
2.33926
2.33933
2.33941
2.33949
2.33957
2.33964
2.33972
2.3398
2.33987
2.33994
2.34
2.34006
2.34012
2.34017
2.34021
2.34025
2.34028
2.34031
2.34033
2.34035
2.34036
2.34037
2.34037
2.34036
2.34035
2.34033
2.34031
2.34028
2.34025
2.34021
2.34017
2.34012
2.34006
2.34
2.33994
2.33987
2.3398
2.33972
2.33964
2.33957
2.33949
2.33941
2.33933
2.33926
2.33919
2.33912
2.33907
2.33902
2.33899
2.33897
2.33897
2.33898
2.41573
2.41572
2.41573
2.41575
2.41578
2.41583
2.41589
2.41595
2.41603
2.4161
2.41619
2.41627
2.41635
2.41643
2.41651
2.41659
2.41667
2.41674
2.41681
2.41687
2.41693
2.41698
2.41702
2.41707
2.4171
2.41713
2.41715
2.41717
2.41718
2.41719
2.41719
2.41718
2.41717
2.41715
2.41713
2.4171
2.41707
2.41702
2.41698
2.41693
2.41687
2.41681
2.41674
2.41667
2.41659
2.41651
2.41643
2.41635
2.41627
2.41619
2.4161
2.41603
2.41595
2.41589
2.41583
2.41578
2.41575
2.41573
2.41572
2.41573
2.49477
2.49477
2.49477
2.49479
2.49483
2.49488
2.49494
2.49501
2.49509
2.49517
2.49525
2.49534
2.49542
2.49551
2.4956
2.49568
2.49576
2.49583
2.4959
2.49597
2.49603
2.49608
2.49613
2.49617
2.49621
2.49624
2.49626
2.49628
2.49629
2.4963
2.4963
2.49629
2.49628
2.49626
2.49624
2.49621
2.49617
2.49613
2.49608
2.49603
2.49597
2.4959
2.49583
2.49576
2.49568
2.4956
2.49551
2.49542
2.49534
2.49525
2.49517
2.49509
2.49501
2.49494
2.49488
2.49483
2.49479
2.49477
2.49477
2.49477
2.57617
2.57617
2.57617
2.5762
2.57624
2.57629
2.57635
2.57643
2.57651
2.57659
2.57668
2.57677
2.57686
2.57695
2.57704
2.57712
2.5772
2.57728
2.57736
2.57742
2.57749
2.57754
2.57759
2.57764
2.57767
2.57771
2.57773
2.57775
2.57776
2.57777
2.57777
2.57776
2.57775
2.57773
2.57771
2.57767
2.57764
2.57759
2.57754
2.57749
2.57742
2.57736
2.57728
2.5772
2.57712
2.57704
2.57695
2.57686
2.57677
2.57668
2.57659
2.57651
2.57643
2.57635
2.57629
2.57624
2.5762
2.57617
2.57617
2.57617
2.66
2.66
2.66001
2.66004
2.66008
2.66013
2.6602
2.66027
2.66036
2.66045
2.66054
2.66063
2.66073
2.66082
2.66091
2.661
2.66109
2.66117
2.66124
2.66132
2.66138
2.66144
2.66149
2.66154
2.66158
2.66161
2.66164
2.66166
2.66167
2.66168
2.66168
2.66167
2.66166
2.66164
2.66161
2.66158
2.66154
2.66149
2.66144
2.66138
2.66132
2.66124
2.66117
2.66109
2.661
2.66091
2.66082
2.66073
2.66063
2.66054
2.66045
2.66036
2.66027
2.6602
2.66013
2.66008
2.66004
2.66001
2.66
2.66
2.74634
2.74634
2.74635
2.74638
2.74642
2.74648
2.74655
2.74663
2.74672
2.74681
2.74691
2.747
2.7471
2.7472
2.7473
2.74739
2.74748
2.74756
2.74764
2.74772
2.74778
2.74785
2.7479
2.74795
2.74799
2.74802
2.74805
2.74807
2.74809
2.74809
2.74809
2.74809
2.74807
2.74805
2.74802
2.74799
2.74795
2.7479
2.74785
2.74778
2.74772
2.74764
2.74756
2.74748
2.74739
2.7473
2.7472
2.7471
2.747
2.74691
2.74681
2.74672
2.74663
2.74655
2.74648
2.74642
2.74638
2.74635
2.74634
2.74634
2.83527
2.83527
2.83528
2.83531
2.83536
2.83542
2.83549
2.83557
2.83566
2.83576
2.83586
2.83596
2.83607
2.83617
2.83627
2.83637
2.83646
2.83655
2.83663
2.83671
2.83678
2.83684
2.8369
2.83695
2.83699
2.83703
2.83705
2.83708
2.83709
2.8371
2.8371
2.83709
2.83708
2.83705
2.83703
2.83699
2.83695
2.8369
2.83684
2.83678
2.83671
2.83663
2.83655
2.83646
2.83637
2.83627
2.83617
2.83607
2.83596
2.83586
2.83576
2.83566
2.83557
2.83549
2.83542
2.83536
2.83531
2.83528
2.83527
2.83527
2.92685
2.92686
2.92687
2.9269
2.92695
2.92702
2.92709
2.92718
2.92727
2.92738
2.92748
2.92759
2.92769
2.9278
2.9279
2.92801
2.9281
2.92819
2.92828
2.92836
2.92843
2.9285
2.92856
2.92861
2.92866
2.92869
2.92872
2.92875
2.92876
2.92877
2.92877
2.92876
2.92875
2.92872
2.92869
2.92866
2.92861
2.92856
2.9285
2.92843
2.92836
2.92828
2.92819
2.9281
2.92801
2.9279
2.9278
2.92769
2.92759
2.92748
2.92738
2.92727
2.92718
2.92709
2.92702
2.92695
2.9269
2.92687
2.92686
2.92685
3.02119
3.02119
3.02121
3.02124
3.0213
3.02136
3.02144
3.02153
3.02163
3.02174
3.02184
3.02196
3.02207
3.02218
3.02229
3.02239
3.02249
3.02259
3.02268
3.02276
3.02284
3.02291
3.02297
3.02302
3.02307
3.02311
3.02314
3.02316
3.02318
3.02319
3.02319
3.02318
3.02316
3.02314
3.02311
3.02307
3.02302
3.02297
3.02291
3.02284
3.02276
3.02268
3.02259
3.02249
3.02239
3.02229
3.02218
3.02207
3.02196
3.02184
3.02174
3.02163
3.02153
3.02144
3.02136
3.0213
3.02124
3.02121
3.02119
3.02119
3.11835
3.11835
3.11837
3.11841
3.11847
3.11854
3.11862
3.11871
3.11882
3.11892
3.11904
3.11915
3.11927
3.11939
3.1195
3.11961
3.11971
3.11981
3.11991
3.11999
3.12007
3.12014
3.12021
3.12026
3.12031
3.12035
3.12039
3.12041
3.12043
3.12043
3.12043
3.12043
3.12041
3.12039
3.12035
3.12031
3.12026
3.12021
3.12014
3.12007
3.11999
3.11991
3.11981
3.11971
3.11961
3.1195
3.11939
3.11927
3.11915
3.11904
3.11892
3.11882
3.11871
3.11862
3.11854
3.11847
3.11841
3.11837
3.11835
3.11835
3.21842
3.21843
3.21845
3.21849
3.21855
3.21862
3.21871
3.21881
3.21891
3.21903
3.21915
3.21927
3.21939
3.21951
3.21963
3.21974
3.21985
3.21995
3.22005
3.22014
3.22022
3.2203
3.22036
3.22042
3.22047
3.22052
3.22055
3.22057
3.22059
3.2206
3.2206
3.22059
3.22057
3.22055
3.22052
3.22047
3.22042
3.22036
3.2203
3.22022
3.22014
3.22005
3.21995
3.21985
3.21974
3.21963
3.21951
3.21939
3.21927
3.21915
3.21903
3.21891
3.21881
3.21871
3.21862
3.21855
3.21849
3.21845
3.21843
3.21842
3.3215
3.32151
3.32153
3.32157
3.32163
3.32171
3.3218
3.3219
3.32202
3.32213
3.32226
3.32238
3.32251
3.32264
3.32276
3.32288
3.32299
3.3231
3.3232
3.32329
3.32338
3.32346
3.32353
3.32359
3.32364
3.32368
3.32372
3.32374
3.32376
3.32377
3.32377
3.32376
3.32374
3.32372
3.32368
3.32364
3.32359
3.32353
3.32346
3.32338
3.32329
3.3232
3.3231
3.32299
3.32288
3.32276
3.32264
3.32251
3.32238
3.32226
3.32213
3.32202
3.3219
3.3218
3.32171
3.32163
3.32157
3.32153
3.32151
3.3215
3.42766
3.42768
3.4277
3.42775
3.42781
3.42789
3.42799
3.42809
3.42821
3.42833
3.42846
3.42859
3.42873
3.42886
3.42898
3.42911
3.42923
3.42934
3.42944
3.42954
3.42963
3.42971
3.42978
3.42984
3.4299
3.42994
3.42998
3.43001
3.43003
3.43003
3.43003
3.43003
3.43001
3.42998
3.42994
3.4299
3.42984
3.42978
3.42971
3.42963
3.42954
3.42944
3.42934
3.42923
3.42911
3.42898
3.42886
3.42873
3.42859
3.42846
3.42833
3.42821
3.42809
3.42799
3.42789
3.42781
3.42775
3.4277
3.42768
3.42766
3.53702
3.53703
3.53706
3.53711
3.53718
3.53726
3.53736
3.53747
3.53759
3.53772
3.53785
3.53799
3.53813
3.53826
3.5384
3.53852
3.53865
3.53876
3.53887
3.53897
3.53907
3.53915
3.53923
3.53929
3.53935
3.53939
3.53943
3.53946
3.53948
3.53949
3.53949
3.53948
3.53946
3.53943
3.53939
3.53935
3.53929
3.53923
3.53915
3.53907
3.53897
3.53887
3.53876
3.53865
3.53852
3.5384
3.53826
3.53813
3.53799
3.53785
3.53772
3.53759
3.53747
3.53736
3.53726
3.53718
3.53711
3.53706
3.53703
3.53702
3.64965
3.64967
3.6497
3.64975
3.64982
3.64991
3.65001
3.65013
3.65026
3.65039
3.65053
3.65067
3.65081
3.65095
3.65109
3.65123
3.65135
3.65147
3.65159
3.65169
3.65179
3.65188
3.65195
3.65202
3.65208
3.65213
3.65217
3.6522
3.65222
3.65223
3.65223
3.65222
3.6522
3.65217
3.65213
3.65208
3.65202
3.65195
3.65188
3.65179
3.65169
3.65159
3.65147
3.65135
3.65123
3.65109
3.65095
3.65081
3.65067
3.65053
3.65039
3.65026
3.65013
3.65001
3.64991
3.64982
3.64975
3.6497
3.64967
3.64965
3.76567
3.76568
3.76572
3.76577
3.76585
3.76594
3.76605
3.76617
3.7663
3.76644
3.76658
3.76673
3.76688
3.76703
3.76717
3.76731
3.76744
3.76757
3.76769
3.7678
3.7679
3.76799
3.76807
3.76814
3.7682
3.76825
3.76829
3.76832
3.76834
3.76835
3.76835
3.76834
3.76832
3.76829
3.76825
3.7682
3.76814
3.76807
3.76799
3.7679
3.7678
3.76769
3.76757
3.76744
3.76731
3.76717
3.76703
3.76688
3.76673
3.76658
3.76644
3.7663
3.76617
3.76605
3.76594
3.76585
3.76577
3.76572
3.76568
3.76567
3.88516
3.88518
3.88522
3.88528
3.88535
3.88545
3.88556
3.88569
3.88583
3.88597
3.88612
3.88628
3.88643
3.88658
3.88673
3.88688
3.88702
3.88715
3.88727
3.88738
3.88749
3.88758
3.88766
3.88774
3.8878
3.88785
3.8879
3.88793
3.88795
3.88796
3.88796
3.88795
3.88793
3.8879
3.88785
3.8878
3.88774
3.88766
3.88758
3.88749
3.88738
3.88727
3.88715
3.88702
3.88688
3.88673
3.88658
3.88643
3.88628
3.88612
3.88597
3.88583
3.88569
3.88556
3.88545
3.88535
3.88528
3.88522
3.88518
3.88516
4.00825
4.00826
4.0083
4.00836
4.00845
4.00855
4.00867
4.0088
4.00894
4.00909
4.00925
4.00941
4.00957
4.00973
4.00988
4.01003
4.01018
4.01031
4.01044
4.01056
4.01067
4.01076
4.01085
4.01093
4.01099
4.01105
4.01109
4.01112
4.01115
4.01116
4.01116
4.01115
4.01112
4.01109
4.01105
4.01099
4.01093
4.01085
4.01076
4.01067
4.01056
4.01044
4.01031
4.01018
4.01003
4.00988
4.00973
4.00957
4.00941
4.00925
4.00909
4.00894
4.0088
4.00867
4.00855
4.00845
4.00836
4.0083
4.00826
4.00825
4.13502
4.13504
4.13508
4.13515
4.13523
4.13534
4.13546
4.1356
4.13575
4.13591
4.13607
4.13624
4.1364
4.13657
4.13673
4.13689
4.13704
4.13718
4.13731
4.13743
4.13754
4.13765
4.13774
4.13781
4.13788
4.13794
4.13798
4.13802
4.13804
4.13805
4.13805
4.13804
4.13802
4.13798
4.13794
4.13788
4.13781
4.13774
4.13765
4.13754
4.13743
4.13731
4.13718
4.13704
4.13689
4.13673
4.13657
4.1364
4.13624
4.13607
4.13591
4.13575
4.1356
4.13546
4.13534
4.13523
4.13515
4.13508
4.13504
4.13502
4.2656
4.26563
4.26567
4.26574
4.26583
4.26594
4.26607
4.26621
4.26637
4.26653
4.2667
4.26687
4.26705
4.26722
4.26739
4.26755
4.2677
4.26785
4.26799
4.26811
4.26823
4.26834
4.26843
4.26851
4.26858
4.26864
4.26869
4.26872
4.26875
4.26876
4.26876
4.26875
4.26872
4.26869
4.26864
4.26858
4.26851
4.26843
4.26834
4.26823
4.26811
4.26799
4.26785
4.2677
4.26755
4.26739
4.26722
4.26705
4.26687
4.2667
4.26653
4.26637
4.26621
4.26607
4.26594
4.26583
4.26574
4.26567
4.26563
4.2656
4.4001
4.40013
4.40017
4.40024
4.40034
4.40045
4.40059
4.40074
4.4009
4.40107
4.40125
4.40143
4.40161
4.40179
4.40196
4.40213
4.40229
4.40244
4.40259
4.40272
4.40284
4.40295
4.40305
4.40313
4.4032
4.40326
4.40331
4.40335
4.40337
4.40339
4.40339
4.40337
4.40335
4.40331
4.40326
4.4032
4.40313