/*--------------------------------*- C++ -*----------------------------------*\
| =========                 |                                                 |
| \\      /  F ield         | foam-extend: Open Source CFD                    |
|  \\    /   O peration     | Version:     4.0                                |
|   \\  /    A nd           | Web:         http://www.foam-extend.org         |
|    \\/     M anipulation  |                                                 |
\*---------------------------------------------------------------------------*/
FoamFile
{
    version     2.0;
    format      ascii;
    class       volScalarField;
    location    "600";
    object      cMinus;
}
// * * * * * * * * * * * * * * * * * * * * * * * * * * * * * * * * * * * * * //

dimensions      [0 0 0 0 0 0 0];

internalField   nonuniform List<scalar> 
6960
(
2.13159e-19
2.10992e-19
2.11618e-19
2.12134e-19
2.12507e-19
2.12761e-19
2.12923e-19
2.13014e-19
2.13053e-19
2.13055e-19
2.13031e-19
2.1299e-19
2.12936e-19
2.12876e-19
2.12811e-19
2.12746e-19
2.12681e-19
2.12618e-19
2.12558e-19
2.12501e-19
2.12449e-19
2.12402e-19
2.12359e-19
2.12322e-19
2.12289e-19
2.12262e-19
2.12241e-19
2.12225e-19
2.12214e-19
2.12209e-19
2.12209e-19
2.12214e-19
2.12225e-19
2.12241e-19
2.12262e-19
2.12289e-19
2.12322e-19
2.12359e-19
2.12402e-19
2.12449e-19
2.12501e-19
2.12558e-19
2.12618e-19
2.12681e-19
2.12746e-19
2.12811e-19
2.12876e-19
2.12936e-19
2.1299e-19
2.13031e-19
2.13055e-19
2.13053e-19
2.13014e-19
2.12923e-19
2.12761e-19
2.12507e-19
2.12134e-19
2.11618e-19
2.10992e-19
2.13159e-19
3.46481e-19
3.43052e-19
3.44077e-19
3.44919e-19
3.4553e-19
3.45947e-19
3.46212e-19
3.46362e-19
3.46428e-19
3.46434e-19
3.46396e-19
3.4633e-19
3.46244e-19
3.46147e-19
3.46044e-19
3.45938e-19
3.45833e-19
3.45732e-19
3.45635e-19
3.45544e-19
3.4546e-19
3.45383e-19
3.45315e-19
3.45254e-19
3.45202e-19
3.45159e-19
3.45124e-19
3.45098e-19
3.45081e-19
3.45072e-19
3.45072e-19
3.45081e-19
3.45098e-19
3.45124e-19
3.45159e-19
3.45202e-19
3.45254e-19
3.45315e-19
3.45383e-19
3.4546e-19
3.45544e-19
3.45635e-19
3.45732e-19
3.45833e-19
3.45938e-19
3.46044e-19
3.46147e-19
3.46244e-19
3.4633e-19
3.46396e-19
3.46434e-19
3.46428e-19
3.46362e-19
3.46212e-19
3.45947e-19
3.4553e-19
3.44919e-19
3.44077e-19
3.43052e-19
3.46481e-19
8.72083e-19
8.63667e-19
8.66245e-19
8.6836e-19
8.69891e-19
8.70937e-19
8.71602e-19
8.71979e-19
8.72144e-19
8.72156e-19
8.72061e-19
8.71894e-19
8.71678e-19
8.71433e-19
8.71173e-19
8.70907e-19
8.70644e-19
8.70388e-19
8.70144e-19
8.69916e-19
8.69704e-19
8.69512e-19
8.69339e-19
8.69187e-19
8.69056e-19
8.68947e-19
8.6886e-19
8.68794e-19
8.6875e-19
8.68728e-19
8.68728e-19
8.6875e-19
8.68794e-19
8.6886e-19
8.68947e-19
8.69056e-19
8.69187e-19
8.69339e-19
8.69512e-19
8.69704e-19
8.69916e-19
8.70144e-19
8.70388e-19
8.70644e-19
8.70907e-19
8.71173e-19
8.71433e-19
8.71678e-19
8.71894e-19
8.72061e-19
8.72156e-19
8.72144e-19
8.71979e-19
8.71602e-19
8.70937e-19
8.69891e-19
8.6836e-19
8.66245e-19
8.63667e-19
8.72083e-19
2.33537e-18
2.31334e-18
2.32025e-18
2.3259e-18
2.32999e-18
2.33278e-18
2.33455e-18
2.33556e-18
2.33599e-18
2.33602e-18
2.33577e-18
2.33532e-18
2.33474e-18
2.33408e-18
2.33338e-18
2.33267e-18
2.33196e-18
2.33128e-18
2.33063e-18
2.33001e-18
2.32945e-18
2.32893e-18
2.32847e-18
2.32806e-18
2.32771e-18
2.32742e-18
2.32718e-18
2.32701e-18
2.32689e-18
2.32683e-18
2.32683e-18
2.32689e-18
2.32701e-18
2.32718e-18
2.32742e-18
2.32771e-18
2.32806e-18
2.32847e-18
2.32893e-18
2.32945e-18
2.33001e-18
2.33063e-18
2.33128e-18
2.33196e-18
2.33267e-18
2.33338e-18
2.33408e-18
2.33474e-18
2.33532e-18
2.33577e-18
2.33602e-18
2.33599e-18
2.33556e-18
2.33455e-18
2.33278e-18
2.32999e-18
2.3259e-18
2.32025e-18
2.31334e-18
2.33537e-18
6.27322e-18
6.2155e-18
6.23406e-18
6.24922e-18
6.26019e-18
6.26768e-18
6.27243e-18
6.27512e-18
6.27629e-18
6.27637e-18
6.27568e-18
6.27446e-18
6.27291e-18
6.27114e-18
6.26926e-18
6.26735e-18
6.26545e-18
6.26361e-18
6.26185e-18
6.2602e-18
6.25868e-18
6.25729e-18
6.25605e-18
6.25495e-18
6.25401e-18
6.25323e-18
6.2526e-18
6.25213e-18
6.25181e-18
6.25165e-18
6.25165e-18
6.25181e-18
6.25213e-18
6.2526e-18
6.25323e-18
6.25401e-18
6.25495e-18
6.25605e-18
6.25729e-18
6.25868e-18
6.2602e-18
6.26185e-18
6.26361e-18
6.26545e-18
6.26735e-18
6.26926e-18
6.27114e-18
6.27291e-18
6.27446e-18
6.27568e-18
6.27637e-18
6.27629e-18
6.27512e-18
6.27243e-18
6.26768e-18
6.26019e-18
6.24922e-18
6.23406e-18
6.2155e-18
6.27322e-18
1.68379e-17
1.66872e-17
1.67371e-17
1.67777e-17
1.68071e-17
1.68272e-17
1.684e-17
1.68472e-17
1.68503e-17
1.68505e-17
1.68487e-17
1.68454e-17
1.68412e-17
1.68365e-17
1.68314e-17
1.68263e-17
1.68212e-17
1.68163e-17
1.68115e-17
1.68071e-17
1.6803e-17
1.67993e-17
1.6796e-17
1.6793e-17
1.67905e-17
1.67884e-17
1.67867e-17
1.67854e-17
1.67846e-17
1.67842e-17
1.67842e-17
1.67846e-17
1.67854e-17
1.67867e-17
1.67884e-17
1.67905e-17
1.6793e-17
1.6796e-17
1.67993e-17
1.6803e-17
1.68071e-17
1.68115e-17
1.68163e-17
1.68212e-17
1.68263e-17
1.68314e-17
1.68365e-17
1.68412e-17
1.68454e-17
1.68487e-17
1.68505e-17
1.68503e-17
1.68472e-17
1.684e-17
1.68272e-17
1.68071e-17
1.67777e-17
1.67371e-17
1.66872e-17
1.68379e-17
4.52064e-17
4.4814e-17
4.49481e-17
4.50572e-17
4.51361e-17
4.51899e-17
4.52242e-17
4.52435e-17
4.52519e-17
4.52525e-17
4.52475e-17
4.52387e-17
4.52275e-17
4.52148e-17
4.52013e-17
4.51875e-17
4.51738e-17
4.51606e-17
4.51479e-17
4.5136e-17
4.51251e-17
4.51151e-17
4.51061e-17
4.50982e-17
4.50915e-17
4.50858e-17
4.50813e-17
4.50779e-17
4.50756e-17
4.50745e-17
4.50745e-17
4.50756e-17
4.50779e-17
4.50813e-17
4.50858e-17
4.50915e-17
4.50982e-17
4.51061e-17
4.51151e-17
4.51251e-17
4.5136e-17
4.51479e-17
4.51606e-17
4.51738e-17
4.51875e-17
4.52013e-17
4.52148e-17
4.52275e-17
4.52387e-17
4.52475e-17
4.52525e-17
4.52519e-17
4.52435e-17
4.52242e-17
4.51899e-17
4.51361e-17
4.50572e-17
4.49481e-17
4.4814e-17
4.52064e-17
1.21523e-16
1.20505e-16
1.20865e-16
1.21158e-16
1.2137e-16
1.21515e-16
1.21607e-16
1.21659e-16
1.21681e-16
1.21683e-16
1.21669e-16
1.21646e-16
1.21616e-16
1.21582e-16
1.21546e-16
1.21509e-16
1.21472e-16
1.21436e-16
1.21402e-16
1.2137e-16
1.21341e-16
1.21314e-16
1.2129e-16
1.21269e-16
1.21251e-16
1.21236e-16
1.21224e-16
1.21214e-16
1.21208e-16
1.21205e-16
1.21205e-16
1.21208e-16
1.21214e-16
1.21224e-16
1.21236e-16
1.21251e-16
1.21269e-16
1.2129e-16
1.21314e-16
1.21341e-16
1.2137e-16
1.21402e-16
1.21436e-16
1.21472e-16
1.21509e-16
1.21546e-16
1.21582e-16
1.21616e-16
1.21646e-16
1.21669e-16
1.21683e-16
1.21681e-16
1.21659e-16
1.21607e-16
1.21515e-16
1.2137e-16
1.21158e-16
1.20865e-16
1.20505e-16
1.21523e-16
3.27443e-16
3.24809e-16
3.25781e-16
3.26569e-16
3.27139e-16
3.27528e-16
3.27776e-16
3.27916e-16
3.27977e-16
3.27981e-16
3.27946e-16
3.27883e-16
3.27802e-16
3.27711e-16
3.27614e-16
3.27514e-16
3.27416e-16
3.2732e-16
3.27229e-16
3.27144e-16
3.27065e-16
3.26993e-16
3.26929e-16
3.26872e-16
3.26823e-16
3.26782e-16
3.2675e-16
3.26725e-16
3.26709e-16
3.26701e-16
3.26701e-16
3.26709e-16
3.26725e-16
3.2675e-16
3.26782e-16
3.26823e-16
3.26872e-16
3.26929e-16
3.26993e-16
3.27065e-16
3.27144e-16
3.27229e-16
3.2732e-16
3.27416e-16
3.27514e-16
3.27614e-16
3.27711e-16
3.27802e-16
3.27883e-16
3.27946e-16
3.27981e-16
3.27977e-16
3.27916e-16
3.27776e-16
3.27528e-16
3.27139e-16
3.26569e-16
3.25781e-16
3.24809e-16
3.27443e-16
8.85874e-16
8.79091e-16
8.81722e-16
8.83845e-16
8.85383e-16
8.86435e-16
8.87104e-16
8.87484e-16
8.8765e-16
8.87664e-16
8.8757e-16
8.87402e-16
8.87187e-16
8.86941e-16
8.86681e-16
8.86414e-16
8.8615e-16
8.85894e-16
8.85649e-16
8.8542e-16
8.85208e-16
8.85015e-16
8.84842e-16
8.84689e-16
8.84558e-16
8.84449e-16
8.84361e-16
8.84295e-16
8.84252e-16
8.8423e-16
8.8423e-16
8.84252e-16
8.84295e-16
8.84361e-16
8.84449e-16
8.84558e-16
8.84689e-16
8.84842e-16
8.85015e-16
8.85208e-16
8.8542e-16
8.85649e-16
8.85894e-16
8.8615e-16
8.86414e-16
8.86681e-16
8.86941e-16
8.87187e-16
8.87402e-16
8.8757e-16
8.87664e-16
8.8765e-16
8.87484e-16
8.87104e-16
8.86435e-16
8.85383e-16
8.83845e-16
8.81722e-16
8.79091e-16
8.85874e-16
2.41371e-15
2.39636e-15
2.40351e-15
2.40927e-15
2.41345e-15
2.41631e-15
2.41813e-15
2.41917e-15
2.41963e-15
2.41968e-15
2.41943e-15
2.41899e-15
2.41841e-15
2.41776e-15
2.41706e-15
2.41634e-15
2.41563e-15
2.41495e-15
2.41429e-15
2.41367e-15
2.4131e-15
2.41258e-15
2.41212e-15
2.41171e-15
2.41136e-15
2.41106e-15
2.41083e-15
2.41065e-15
2.41053e-15
2.41048e-15
2.41048e-15
2.41053e-15
2.41065e-15
2.41083e-15
2.41106e-15
2.41136e-15
2.41171e-15
2.41212e-15
2.41258e-15
2.4131e-15
2.41367e-15
2.41429e-15
2.41495e-15
2.41563e-15
2.41634e-15
2.41706e-15
2.41776e-15
2.41841e-15
2.41899e-15
2.41943e-15
2.41968e-15
2.41963e-15
2.41917e-15
2.41813e-15
2.41631e-15
2.41345e-15
2.40927e-15
2.40351e-15
2.39636e-15
2.41371e-15
6.66016e-15
6.6162e-15
6.63586e-15
6.65166e-15
6.66314e-15
6.67101e-15
6.67606e-15
6.67896e-15
6.68028e-15
6.68046e-15
6.67985e-15
6.67868e-15
6.67715e-15
6.6754e-15
6.67353e-15
6.67162e-15
6.66972e-15
6.66787e-15
6.66611e-15
6.66446e-15
6.66292e-15
6.66153e-15
6.66028e-15
6.65918e-15
6.65823e-15
6.65744e-15
6.65681e-15
6.65634e-15
6.65602e-15
6.65586e-15
6.65586e-15
6.65602e-15
6.65634e-15
6.65681e-15
6.65744e-15
6.65823e-15
6.65918e-15
6.66028e-15
6.66153e-15
6.66292e-15
6.66446e-15
6.66611e-15
6.66787e-15
6.66972e-15
6.67162e-15
6.67353e-15
6.6754e-15
6.67715e-15
6.67868e-15
6.67985e-15
6.68046e-15
6.68028e-15
6.67896e-15
6.67606e-15
6.67101e-15
6.66314e-15
6.65166e-15
6.63586e-15
6.6162e-15
6.66016e-15
1.87978e-14
1.86886e-14
1.87438e-14
1.87881e-14
1.88204e-14
1.88427e-14
1.88571e-14
1.88655e-14
1.88695e-14
1.88703e-14
1.88689e-14
1.88659e-14
1.88619e-14
1.88573e-14
1.88523e-14
1.88472e-14
1.88421e-14
1.88371e-14
1.88324e-14
1.8828e-14
1.88239e-14
1.88201e-14
1.88167e-14
1.88138e-14
1.88112e-14
1.88091e-14
1.88074e-14
1.88061e-14
1.88053e-14
1.88049e-14
1.88049e-14
1.88053e-14
1.88061e-14
1.88074e-14
1.88091e-14
1.88112e-14
1.88138e-14
1.88167e-14
1.88201e-14
1.88239e-14
1.8828e-14
1.88324e-14
1.88371e-14
1.88421e-14
1.88472e-14
1.88523e-14
1.88573e-14
1.88619e-14
1.88659e-14
1.88689e-14
1.88703e-14
1.88695e-14
1.88655e-14
1.88571e-14
1.88427e-14
1.88204e-14
1.87881e-14
1.87438e-14
1.86886e-14
1.87978e-14
5.52045e-14
5.49437e-14
5.51052e-14
5.52347e-14
5.53297e-14
5.53959e-14
5.54393e-14
5.54655e-14
5.54788e-14
5.54828e-14
5.54803e-14
5.54732e-14
5.54631e-14
5.54511e-14
5.5438e-14
5.54245e-14
5.54109e-14
5.53977e-14
5.5385e-14
5.53731e-14
5.53621e-14
5.5352e-14
5.53429e-14
5.5335e-14
5.53281e-14
5.53224e-14
5.53178e-14
5.53144e-14
5.53121e-14
5.53109e-14
5.53109e-14
5.53121e-14
5.53144e-14
5.53178e-14
5.53224e-14
5.53281e-14
5.5335e-14
5.53429e-14
5.5352e-14
5.53621e-14
5.53731e-14
5.5385e-14
5.53977e-14
5.54109e-14
5.54245e-14
5.5438e-14
5.54511e-14
5.54631e-14
5.54732e-14
5.54803e-14
5.54828e-14
5.54788e-14
5.54655e-14
5.54393e-14
5.53959e-14
5.53297e-14
5.52347e-14
5.51052e-14
5.49437e-14
5.52045e-14
1.73119e-13
1.72554e-13
1.73062e-13
1.7347e-13
1.73773e-13
1.73988e-13
1.74132e-13
1.74223e-13
1.74273e-13
1.74295e-13
1.74296e-13
1.74282e-13
1.74259e-13
1.74229e-13
1.74196e-13
1.7416e-13
1.74125e-13
1.7409e-13
1.74056e-13
1.74024e-13
1.73994e-13
1.73967e-13
1.73943e-13
1.73922e-13
1.73903e-13
1.73888e-13
1.73875e-13
1.73866e-13
1.7386e-13
1.73857e-13
1.73857e-13
1.7386e-13
1.73866e-13
1.73875e-13
1.73888e-13
1.73903e-13
1.73922e-13
1.73943e-13
1.73967e-13
1.73994e-13
1.74024e-13
1.74056e-13
1.7409e-13
1.74125e-13
1.7416e-13
1.74196e-13
1.74229e-13
1.74259e-13
1.74282e-13
1.74296e-13
1.74295e-13
1.74273e-13
1.74223e-13
1.74132e-13
1.73988e-13
1.73773e-13
1.7347e-13
1.73062e-13
1.72554e-13
1.73119e-13
5.98076e-13
5.97194e-13
5.98989e-13
6.00437e-13
6.01529e-13
6.02318e-13
6.02866e-13
6.03228e-13
6.03451e-13
6.03571e-13
6.03618e-13
6.03613e-13
6.03573e-13
6.03509e-13
6.0343e-13
6.03343e-13
6.03252e-13
6.03161e-13
6.03072e-13
6.02988e-13
6.02909e-13
6.02836e-13
6.02771e-13
6.02713e-13
6.02664e-13
6.02622e-13
6.02589e-13
6.02564e-13
6.02547e-13
6.02539e-13
6.02539e-13
6.02547e-13
6.02564e-13
6.02589e-13
6.02622e-13
6.02664e-13
6.02713e-13
6.02771e-13
6.02836e-13
6.02909e-13
6.02988e-13
6.03072e-13
6.03161e-13
6.03252e-13
6.03343e-13
6.0343e-13
6.03509e-13
6.03573e-13
6.03613e-13
6.03618e-13
6.03571e-13
6.03451e-13
6.03228e-13
6.02866e-13
6.02318e-13
6.01529e-13
6.00437e-13
5.98989e-13
5.97194e-13
5.98076e-13
2.32963e-12
2.33054e-12
2.33785e-12
2.3438e-12
2.34836e-12
2.35173e-12
2.35414e-12
2.35581e-12
2.35692e-12
2.35761e-12
2.358e-12
2.35818e-12
2.3582e-12
2.35813e-12
2.35798e-12
2.35779e-12
2.35758e-12
2.35735e-12
2.35713e-12
2.35691e-12
2.3567e-12
2.35651e-12
2.35634e-12
2.35618e-12
2.35605e-12
2.35594e-12
2.35585e-12
2.35578e-12
2.35573e-12
2.35571e-12
2.35571e-12
2.35573e-12
2.35578e-12
2.35585e-12
2.35594e-12
2.35605e-12
2.35618e-12
2.35634e-12
2.35651e-12
2.3567e-12
2.35691e-12
2.35713e-12
2.35735e-12
2.35758e-12
2.35779e-12
2.35798e-12
2.35813e-12
2.3582e-12
2.35818e-12
2.358e-12
2.35761e-12
2.35692e-12
2.35581e-12
2.35414e-12
2.35173e-12
2.34836e-12
2.3438e-12
2.33785e-12
2.33054e-12
2.32963e-12
1.0227e-11
1.02473e-11
1.02816e-11
1.03096e-11
1.03314e-11
1.03478e-11
1.03598e-11
1.03684e-11
1.03744e-11
1.03784e-11
1.0381e-11
1.03826e-11
1.03835e-11
1.03838e-11
1.03838e-11
1.03836e-11
1.03832e-11
1.03827e-11
1.03822e-11
1.03817e-11
1.03812e-11
1.03807e-11
1.03802e-11
1.03798e-11
1.03795e-11
1.03792e-11
1.03789e-11
1.03787e-11
1.03786e-11
1.03785e-11
1.03785e-11
1.03786e-11
1.03787e-11
1.03789e-11
1.03792e-11
1.03795e-11
1.03798e-11
1.03802e-11
1.03807e-11
1.03812e-11
1.03817e-11
1.03822e-11
1.03827e-11
1.03832e-11
1.03836e-11
1.03838e-11
1.03838e-11
1.03835e-11
1.03826e-11
1.0381e-11
1.03784e-11
1.03744e-11
1.03684e-11
1.03598e-11
1.03478e-11
1.03314e-11
1.03096e-11
1.02816e-11
1.02473e-11
1.0227e-11
4.93544e-11
4.9509e-11
4.96863e-11
4.98323e-11
4.99466e-11
5.00335e-11
5.0098e-11
5.0145e-11
5.01787e-11
5.02023e-11
5.02185e-11
5.02294e-11
5.02364e-11
5.02407e-11
5.0243e-11
5.0244e-11
5.02441e-11
5.02436e-11
5.02428e-11
5.02417e-11
5.02405e-11
5.02394e-11
5.02382e-11
5.02372e-11
5.02363e-11
5.02355e-11
5.02349e-11
5.02344e-11
5.0234e-11
5.02339e-11
5.02339e-11
5.0234e-11
5.02344e-11
5.02349e-11
5.02355e-11
5.02363e-11
5.02372e-11
5.02382e-11
5.02394e-11
5.02405e-11
5.02417e-11
5.02428e-11
5.02436e-11
5.02441e-11
5.0244e-11
5.0243e-11
5.02407e-11
5.02364e-11
5.02294e-11
5.02185e-11
5.02023e-11
5.01787e-11
5.0145e-11
5.0098e-11
5.00335e-11
4.99466e-11
4.98323e-11
4.96863e-11
4.9509e-11
4.93544e-11
2.52905e-10
2.53886e-10
2.54856e-10
2.55656e-10
2.56286e-10
2.56767e-10
2.57127e-10
2.57392e-10
2.57585e-10
2.57722e-10
2.57819e-10
2.57886e-10
2.57933e-10
2.57963e-10
2.57983e-10
2.57996e-10
2.58003e-10
2.58006e-10
2.58007e-10
2.58007e-10
2.58005e-10
2.58003e-10
2.58001e-10
2.57998e-10
2.57996e-10
2.57994e-10
2.57992e-10
2.57991e-10
2.5799e-10
2.5799e-10
2.5799e-10
2.5799e-10
2.57991e-10
2.57992e-10
2.57994e-10
2.57996e-10
2.57998e-10
2.58001e-10
2.58003e-10
2.58005e-10
2.58007e-10
2.58007e-10
2.58006e-10
2.58003e-10
2.57996e-10
2.57983e-10
2.57963e-10
2.57933e-10
2.57886e-10
2.57819e-10
2.57722e-10
2.57585e-10
2.57392e-10
2.57127e-10
2.56767e-10
2.56286e-10
2.55656e-10
2.54856e-10
2.53886e-10
2.52905e-10
1.33395e-09
1.33975e-09
1.34515e-09
1.34962e-09
1.35314e-09
1.35584e-09
1.35786e-09
1.35936e-09
1.36045e-09
1.36124e-09
1.36181e-09
1.36221e-09
1.36249e-09
1.36268e-09
1.36281e-09
1.3629e-09
1.36296e-09
1.363e-09
1.36302e-09
1.36303e-09
1.36304e-09
1.36304e-09
1.36303e-09
1.36303e-09
1.36303e-09
1.36302e-09
1.36302e-09
1.36301e-09
1.36301e-09
1.36301e-09
1.36301e-09
1.36301e-09
1.36301e-09
1.36302e-09
1.36302e-09
1.36303e-09
1.36303e-09
1.36303e-09
1.36304e-09
1.36304e-09
1.36303e-09
1.36302e-09
1.363e-09
1.36296e-09
1.3629e-09
1.36281e-09
1.36268e-09
1.36249e-09
1.36221e-09
1.36181e-09
1.36124e-09
1.36045e-09
1.35936e-09
1.35786e-09
1.35584e-09
1.35314e-09
1.34962e-09
1.34515e-09
1.33975e-09
1.33395e-09
7.07261e-09
7.10549e-09
7.13538e-09
7.16011e-09
7.17964e-09
7.19462e-09
7.20589e-09
7.21424e-09
7.22035e-09
7.22479e-09
7.22797e-09
7.23025e-09
7.23186e-09
7.233e-09
7.23379e-09
7.23434e-09
7.23472e-09
7.23498e-09
7.23514e-09
7.23525e-09
7.23532e-09
7.23535e-09
7.23537e-09
7.23538e-09
7.23538e-09
7.23537e-09
7.23537e-09
7.23536e-09
7.23536e-09
7.23536e-09
7.23536e-09
7.23536e-09
7.23536e-09
7.23537e-09
7.23537e-09
7.23538e-09
7.23538e-09
7.23537e-09
7.23535e-09
7.23532e-09
7.23525e-09
7.23514e-09
7.23498e-09
7.23472e-09
7.23434e-09
7.23379e-09
7.233e-09
7.23186e-09
7.23025e-09
7.22797e-09
7.22479e-09
7.22035e-09
7.21424e-09
7.20589e-09
7.19462e-09
7.17964e-09
7.16011e-09
7.13538e-09
7.10549e-09
7.07261e-09
3.70222e-08
3.72015e-08
3.73631e-08
3.74968e-08
3.76023e-08
3.76833e-08
3.77443e-08
3.77896e-08
3.78228e-08
3.78469e-08
3.78643e-08
3.78767e-08
3.78856e-08
3.7892e-08
3.78964e-08
3.78996e-08
3.79018e-08
3.79033e-08
3.79043e-08
3.7905e-08
3.79055e-08
3.79058e-08
3.7906e-08
3.79061e-08
3.79062e-08
3.79062e-08
3.79062e-08
3.79062e-08
3.79062e-08
3.79062e-08
3.79062e-08
3.79062e-08
3.79062e-08
3.79062e-08
3.79062e-08
3.79062e-08
3.79061e-08
3.7906e-08
3.79058e-08
3.79055e-08
3.7905e-08
3.79043e-08
3.79033e-08
3.79018e-08
3.78996e-08
3.78964e-08
3.7892e-08
3.78856e-08
3.78767e-08
3.78643e-08
3.78469e-08
3.78228e-08
3.77896e-08
3.77443e-08
3.76833e-08
3.76023e-08
3.74968e-08
3.73631e-08
3.72015e-08
3.70222e-08
1.885e-07
1.89436e-07
1.90275e-07
1.9097e-07
1.91518e-07
1.91939e-07
1.92256e-07
1.92492e-07
1.92664e-07
1.9279e-07
1.92881e-07
1.92946e-07
1.92993e-07
1.93026e-07
1.9305e-07
1.93067e-07
1.93079e-07
1.93087e-07
1.93093e-07
1.93097e-07
1.93099e-07
1.93101e-07
1.93103e-07
1.93103e-07
1.93104e-07
1.93104e-07
1.93104e-07
1.93104e-07
1.93105e-07
1.93105e-07
1.93105e-07
1.93105e-07
1.93104e-07
1.93104e-07
1.93104e-07
1.93104e-07
1.93103e-07
1.93103e-07
1.93101e-07
1.93099e-07
1.93097e-07
1.93093e-07
1.93087e-07
1.93079e-07
1.93067e-07
1.9305e-07
1.93026e-07
1.92993e-07
1.92946e-07
1.92881e-07
1.9279e-07
1.92664e-07
1.92492e-07
1.92256e-07
1.91939e-07
1.91518e-07
1.9097e-07
1.90275e-07
1.89436e-07
1.885e-07
9.208e-07
9.25422e-07
9.29561e-07
9.32983e-07
9.35683e-07
9.37755e-07
9.39316e-07
9.40475e-07
9.41326e-07
9.41946e-07
9.42394e-07
9.42717e-07
9.42949e-07
9.43115e-07
9.43233e-07
9.43317e-07
9.43377e-07
9.4342e-07
9.43449e-07
9.4347e-07
9.43485e-07
9.43495e-07
9.43502e-07
9.43506e-07
9.43509e-07
9.43511e-07
9.43513e-07
9.43513e-07
9.43514e-07
9.43514e-07
9.43514e-07
9.43514e-07
9.43513e-07
9.43513e-07
9.43511e-07
9.43509e-07
9.43506e-07
9.43502e-07
9.43495e-07
9.43485e-07
9.4347e-07
9.43449e-07
9.4342e-07
9.43377e-07
9.43317e-07
9.43233e-07
9.43115e-07
9.42949e-07
9.42717e-07
9.42394e-07
9.41946e-07
9.41326e-07
9.40475e-07
9.39316e-07
9.37755e-07
9.35683e-07
9.32983e-07
9.29561e-07
9.25422e-07
9.208e-07
4.257e-06
4.27834e-06
4.29742e-06
4.31317e-06
4.32559e-06
4.33512e-06
4.3423e-06
4.34763e-06
4.35154e-06
4.3544e-06
4.35646e-06
4.35795e-06
4.35902e-06
4.35979e-06
4.36034e-06
4.36073e-06
4.36101e-06
4.36121e-06
4.36135e-06
4.36145e-06
4.36152e-06
4.36157e-06
4.36161e-06
4.36163e-06
4.36165e-06
4.36166e-06
4.36166e-06
4.36167e-06
4.36167e-06
4.36167e-06
4.36167e-06
4.36167e-06
4.36167e-06
4.36166e-06
4.36166e-06
4.36165e-06
4.36163e-06
4.36161e-06
4.36157e-06
4.36152e-06
4.36145e-06
4.36135e-06
4.36121e-06
4.36101e-06
4.36073e-06
4.36034e-06
4.35979e-06
4.35902e-06
4.35795e-06
4.35646e-06
4.3544e-06
4.35154e-06
4.34763e-06
4.3423e-06
4.33512e-06
4.32559e-06
4.31317e-06
4.29742e-06
4.27834e-06
4.257e-06
1.83653e-05
1.84561e-05
1.8537e-05
1.86037e-05
1.86562e-05
1.86965e-05
1.87269e-05
1.87495e-05
1.8766e-05
1.87781e-05
1.87869e-05
1.87932e-05
1.87977e-05
1.8801e-05
1.88033e-05
1.8805e-05
1.88062e-05
1.88071e-05
1.88077e-05
1.88081e-05
1.88084e-05
1.88086e-05
1.88088e-05
1.88089e-05
1.8809e-05
1.8809e-05
1.8809e-05
1.88091e-05
1.88091e-05
1.88091e-05
1.88091e-05
1.88091e-05
1.88091e-05
1.8809e-05
1.8809e-05
1.8809e-05
1.88089e-05
1.88088e-05
1.88086e-05
1.88084e-05
1.88081e-05
1.88077e-05
1.88071e-05
1.88062e-05
1.8805e-05
1.88033e-05
1.8801e-05
1.87977e-05
1.87932e-05
1.87869e-05
1.87781e-05
1.8766e-05
1.87495e-05
1.87269e-05
1.86965e-05
1.86562e-05
1.86037e-05
1.8537e-05
1.84561e-05
1.83653e-05
7.28403e-05
7.319e-05
7.35004e-05
7.37559e-05
7.39571e-05
7.41114e-05
7.42276e-05
7.43139e-05
7.43773e-05
7.44235e-05
7.44571e-05
7.44813e-05
7.44988e-05
7.45113e-05
7.45204e-05
7.45268e-05
7.45315e-05
7.45348e-05
7.45372e-05
7.45389e-05
7.45401e-05
7.45409e-05
7.45415e-05
7.45419e-05
7.45422e-05
7.45424e-05
7.45426e-05
7.45427e-05
7.45427e-05
7.45427e-05
7.45427e-05
7.45427e-05
7.45427e-05
7.45426e-05
7.45424e-05
7.45422e-05
7.45419e-05
7.45415e-05
7.45409e-05
7.45401e-05
7.45389e-05
7.45372e-05
7.45348e-05
7.45315e-05
7.45268e-05
7.45204e-05
7.45113e-05
7.44988e-05
7.44813e-05
7.44571e-05
7.44235e-05
7.43773e-05
7.43139e-05
7.42276e-05
7.41114e-05
7.39571e-05
7.37559e-05
7.35004e-05
7.319e-05
7.28403e-05
0.000261425
0.000262623
0.00026368
0.000264549
0.000265232
0.000265757
0.000266151
0.000266444
0.00026666
0.000266817
0.000266931
0.000267014
0.000267073
0.000267116
0.000267147
0.000267169
0.000267185
0.000267196
0.000267204
0.00026721
0.000267215
0.000267217
0.00026722
0.000267221
0.000267222
0.000267223
0.000267223
0.000267224
0.000267224
0.000267224
0.000267224
0.000267224
0.000267224
0.000267223
0.000267223
0.000267222
0.000267221
0.00026722
0.000267217
0.000267215
0.00026721
0.000267204
0.000267196
0.000267185
0.000267169
0.000267147
0.000267116
0.000267073
0.000267014
0.000266931
0.000266817
0.00026666
0.000266444
0.000266151
0.000265757
0.000265232
0.000264549
0.00026368
0.000262623
0.000261425
0.000835083
0.000838653
0.000841787
0.000844356
0.000846375
0.000847923
0.000849089
0.000849954
0.000850591
0.000851056
0.000851393
0.000851637
0.000851814
0.000851941
0.000852032
0.000852098
0.000852146
0.00085218
0.000852204
0.000852222
0.000852235
0.000852244
0.00085225
0.000852255
0.000852258
0.00085226
0.000852262
0.000852263
0.000852263
0.000852263
0.000852263
0.000852263
0.000852263
0.000852262
0.00085226
0.000852258
0.000852255
0.00085225
0.000852244
0.000852235
0.000852222
0.000852204
0.00085218
0.000852146
0.000852098
0.000852032
0.000851941
0.000851814
0.000851637
0.000851393
0.000851056
0.000850591
0.000849954
0.000849089
0.000847923
0.000846375
0.000844356
0.000841787
0.000838653
0.000835083
0.00233591
0.00234498
0.0023529
0.00235936
0.00236444
0.00236833
0.00237127
0.00237344
0.00237505
0.00237622
0.00237707
0.00237768
0.00237813
0.00237845
0.00237868
0.00237885
0.00237897
0.00237905
0.00237912
0.00237916
0.00237919
0.00237922
0.00237923
0.00237925
0.00237925
0.00237926
0.00237926
0.00237927
0.00237927
0.00237927
0.00237927
0.00237927
0.00237927
0.00237926
0.00237926
0.00237925
0.00237925
0.00237923
0.00237922
0.00237919
0.00237916
0.00237912
0.00237905
0.00237897
0.00237885
0.00237868
0.00237845
0.00237813
0.00237768
0.00237707
0.00237622
0.00237505
0.00237344
0.00237127
0.00236833
0.00236444
0.00235936
0.0023529
0.00234498
0.00233591
0.00564572
0.00566505
0.00568177
0.00569539
0.00570609
0.00571428
0.00572045
0.00572504
0.00572842
0.00573088
0.00573268
0.00573398
0.00573492
0.0057356
0.00573609
0.00573644
0.0057367
0.00573688
0.00573702
0.00573711
0.00573718
0.00573723
0.00573727
0.0057373
0.00573731
0.00573733
0.00573733
0.00573734
0.00573734
0.00573735
0.00573735
0.00573734
0.00573734
0.00573733
0.00573733
0.00573731
0.0057373
0.00573727
0.00573723
0.00573718
0.00573711
0.00573702
0.00573688
0.0057367
0.00573644
0.00573609
0.0057356
0.00573492
0.00573398
0.00573268
0.00573088
0.00572842
0.00572504
0.00572045
0.00571428
0.00570609
0.00569539
0.00568177
0.00566505
0.00564572
0.0117167
0.011751
0.0117804
0.0118043
0.011823
0.0118374
0.0118482
0.0118562
0.0118621
0.0118664
0.0118696
0.0118719
0.0118735
0.0118747
0.0118756
0.0118762
0.0118767
0.011877
0.0118773
0.0118774
0.0118775
0.0118776
0.0118777
0.0118777
0.0118778
0.0118778
0.0118778
0.0118778
0.0118778
0.0118778
0.0118778
0.0118778
0.0118778
0.0118778
0.0118778
0.0118778
0.0118777
0.0118777
0.0118776
0.0118775
0.0118774
0.0118773
0.011877
0.0118767
0.0118762
0.0118756
0.0118747
0.0118735
0.0118719
0.0118696
0.0118664
0.0118621
0.0118562
0.0118482
0.0118374
0.011823
0.0118043
0.0117804
0.011751
0.0117167
0.0209851
0.0210363
0.0210798
0.021115
0.0211426
0.0211637
0.0211797
0.0211915
0.0212003
0.0212067
0.0212113
0.0212147
0.0212172
0.021219
0.0212203
0.0212212
0.0212219
0.0212224
0.0212227
0.021223
0.0212232
0.0212233
0.0212234
0.0212235
0.0212235
0.0212236
0.0212236
0.0212236
0.0212236
0.0212236
0.0212236
0.0212236
0.0212236
0.0212236
0.0212236
0.0212235
0.0212235
0.0212234
0.0212233
0.0212232
0.021223
0.0212227
0.0212224
0.0212219
0.0212212
0.0212203
0.021219
0.0212172
0.0212147
0.0212113
0.0212067
0.0212003
0.0211915
0.0211797
0.0211637
0.0211426
0.021115
0.0210798
0.0210363
0.0209851
0.0330008
0.0330674
0.0331233
0.0331685
0.0332039
0.033231
0.0332514
0.0332667
0.0332779
0.0332861
0.0332921
0.0332965
0.0332997
0.033302
0.0333037
0.0333049
0.0333058
0.0333064
0.0333069
0.0333072
0.0333075
0.0333077
0.0333078
0.0333079
0.033308
0.033308
0.033308
0.0333081
0.0333081
0.0333081
0.0333081
0.0333081
0.0333081
0.033308
0.033308
0.033308
0.0333079
0.0333078
0.0333077
0.0333075
0.0333072
0.0333069
0.0333064
0.0333058
0.0333049
0.0333037
0.033302
0.0332997
0.0332965
0.0332921
0.0332861
0.0332779
0.0332667
0.0332514
0.033231
0.0332039
0.0331685
0.0331233
0.0330674
0.0330008
0.0467425
0.0468212
0.0468866
0.0469392
0.0469805
0.0470121
0.0470359
0.0470537
0.0470669
0.0470765
0.0470836
0.0470887
0.0470925
0.0470952
0.0470972
0.0470986
0.0470997
0.0471004
0.047101
0.0471014
0.0471017
0.0471019
0.0471021
0.0471022
0.0471023
0.0471023
0.0471024
0.0471024
0.0471024
0.0471024
0.0471024
0.0471024
0.0471024
0.0471024
0.0471023
0.0471023
0.0471022
0.0471021
0.0471019
0.0471017
0.0471014
0.047101
0.0471004
0.0470997
0.0470986
0.0470972
0.0470952
0.0470925
0.0470887
0.0470836
0.0470765
0.0470669
0.0470537
0.0470359
0.0470121
0.0469805
0.0469392
0.0468866
0.0468212
0.0467425
0.0612598
0.0613478
0.0614203
0.0614786
0.0615242
0.0615592
0.0615856
0.0616054
0.06162
0.0616307
0.0616386
0.0616444
0.0616486
0.0616516
0.0616538
0.0616555
0.0616567
0.0616575
0.0616582
0.0616586
0.061659
0.0616592
0.0616594
0.0616595
0.0616596
0.0616597
0.0616597
0.0616598
0.0616598
0.0616598
0.0616598
0.0616598
0.0616598
0.0616597
0.0616597
0.0616596
0.0616595
0.0616594
0.0616592
0.061659
0.0616586
0.0616582
0.0616575
0.0616567
0.0616555
0.0616538
0.0616516
0.0616486
0.0616444
0.0616386
0.0616307
0.06162
0.0616054
0.0615856
0.0615592
0.0615242
0.0614786
0.0614203
0.0613478
0.0612598
0.0760119
0.076108
0.0761865
0.0762495
0.0762988
0.0763367
0.0763653
0.0763868
0.0764027
0.0764144
0.0764229
0.0764292
0.0764338
0.0764372
0.0764396
0.0764414
0.0764428
0.0764437
0.0764444
0.0764449
0.0764453
0.0764456
0.0764458
0.076446
0.0764461
0.0764461
0.0764462
0.0764462
0.0764462
0.0764463
0.0764463
0.0764462
0.0764462
0.0764462
0.0764461
0.0764461
0.076446
0.0764458
0.0764456
0.0764453
0.0764449
0.0764444
0.0764437
0.0764428
0.0764414
0.0764396
0.0764372
0.0764338
0.0764292
0.0764229
0.0764144
0.0764027
0.0763868
0.0763653
0.0763367
0.0762988
0.0762495
0.0761865
0.076108
0.0760119
0.0908103
0.090914
0.0909982
0.0910657
0.0911185
0.0911592
0.09119
0.0912131
0.0912302
0.0912429
0.0912522
0.091259
0.091264
0.0912676
0.0912703
0.0912723
0.0912737
0.0912748
0.0912756
0.0912762
0.0912766
0.0912769
0.0912771
0.0912773
0.0912774
0.0912775
0.0912775
0.0912776
0.0912776
0.0912776
0.0912776
0.0912776
0.0912776
0.0912775
0.0912775
0.0912774
0.0912773
0.0912771
0.0912769
0.0912766
0.0912762
0.0912756
0.0912748
0.0912737
0.0912723
0.0912703
0.0912676
0.091264
0.091259
0.0912522
0.0912429
0.0912302
0.0912131
0.09119
0.0911592
0.0911185
0.0910657
0.0909982
0.090914
0.0908103
0.105636
0.105747
0.105837
0.105909
0.105965
0.106009
0.106042
0.106067
0.106085
0.106099
0.106109
0.106116
0.106121
0.106125
0.106128
0.106131
0.106132
0.106133
0.106134
0.106135
0.106135
0.106136
0.106136
0.106136
0.106136
0.106136
0.106136
0.106136
0.106136
0.106136
0.106136
0.106136
0.106136
0.106136
0.106136
0.106136
0.106136
0.106136
0.106136
0.106135
0.106135
0.106134
0.106133
0.106132
0.106131
0.106128
0.106125
0.106121
0.106116
0.106109
0.106099
0.106085
0.106067
0.106042
0.106009
0.105965
0.105909
0.105837
0.105747
0.105636
0.120513
0.120632
0.120728
0.120804
0.120864
0.120911
0.120946
0.120973
0.120992
0.121007
0.121018
0.121026
0.121032
0.121036
0.121039
0.121042
0.121043
0.121045
0.121046
0.121046
0.121047
0.121047
0.121047
0.121048
0.121048
0.121048
0.121048
0.121048
0.121048
0.121048
0.121048
0.121048
0.121048
0.121048
0.121048
0.121048
0.121048
0.121047
0.121047
0.121047
0.121046
0.121046
0.121045
0.121043
0.121042
0.121039
0.121036
0.121032
0.121026
0.121018
0.121007
0.120992
0.120973
0.120946
0.120911
0.120864
0.120804
0.120728
0.120632
0.120513
0.135465
0.135591
0.135692
0.135774
0.135837
0.135887
0.135924
0.135953
0.135974
0.13599
0.136001
0.13601
0.136016
0.136021
0.136024
0.136027
0.136029
0.13603
0.136031
0.136032
0.136033
0.136033
0.136033
0.136034
0.136034
0.136034
0.136034
0.136034
0.136034
0.136034
0.136034
0.136034
0.136034
0.136034
0.136034
0.136034
0.136034
0.136033
0.136033
0.136033
0.136032
0.136031
0.13603
0.136029
0.136027
0.136024
0.136021
0.136016
0.13601
0.136001
0.13599
0.135974
0.135953
0.135924
0.135887
0.135837
0.135774
0.135692
0.135591
0.135465
0.150499
0.150632
0.150739
0.150826
0.150893
0.150946
0.150986
0.151016
0.151038
0.151055
0.151068
0.151077
0.151084
0.151089
0.151093
0.151096
0.151098
0.151099
0.1511
0.151101
0.151102
0.151102
0.151102
0.151103
0.151103
0.151103
0.151103
0.151103
0.151103
0.151103
0.151103
0.151103
0.151103
0.151103
0.151103
0.151103
0.151103
0.151102
0.151102
0.151102
0.151101
0.1511
0.151099
0.151098
0.151096
0.151093
0.151089
0.151084
0.151077
0.151068
0.151055
0.151038
0.151016
0.150986
0.150946
0.150893
0.150826
0.150739
0.150632
0.150499
0.165616
0.165756
0.165869
0.16596
0.166032
0.166087
0.166129
0.166162
0.166186
0.166204
0.166217
0.166227