/*--------------------------------*- C++ -*----------------------------------*\
| =========                 |                                                 |
| \\      /  F ield         | foam-extend: Open Source CFD                    |
|  \\    /   O peration     | Version:     4.0                                |
|   \\  /    A nd           | Web:         http://www.foam-extend.org         |
|    \\/     M anipulation  |                                                 |
\*---------------------------------------------------------------------------*/
FoamFile
{
    version     2.0;
    format      ascii;
    class       volScalarField;
    location    "600";
    object      psiE;
}
// * * * * * * * * * * * * * * * * * * * * * * * * * * * * * * * * * * * * * //

dimensions      [0 0 0 0 0 0 0];

internalField   nonuniform List<scalar> 
6960
(
0.365729
0.365748
0.365768
0.365784
0.365798
0.365808
0.365816
0.365822
0.365826
0.36583
0.365833
0.365835
0.365837
0.365838
0.365839
0.36584
0.365841
0.365842
0.365842
0.365843
0.365843
0.365844
0.365844
0.365844
0.365844
0.365845
0.365845
0.365845
0.365845
0.365845
0.365845
0.365845
0.365845
0.365845
0.365845
0.365844
0.365844
0.365844
0.365844
0.365843
0.365843
0.365842
0.365842
0.365841
0.36584
0.365839
0.365838
0.365837
0.365835
0.365833
0.36583
0.365826
0.365822
0.365816
0.365808
0.365798
0.365784
0.365768
0.365748
0.365729
0.96217
0.962247
0.962326
0.962392
0.962445
0.962487
0.962519
0.962543
0.962561
0.962575
0.962586
0.962594
0.9626
0.962605
0.96261
0.962613
0.962616
0.962618
0.96262
0.962622
0.962623
0.962625
0.962626
0.962626
0.962627
0.962628
0.962628
0.962629
0.962629
0.962629
0.962629
0.962629
0.962629
0.962628
0.962628
0.962627
0.962626
0.962626
0.962625
0.962623
0.962622
0.96262
0.962618
0.962616
0.962613
0.96261
0.962605
0.9626
0.962594
0.962586
0.962575
0.962561
0.962543
0.962519
0.962487
0.962445
0.962392
0.962326
0.962247
0.96217
1.53444
1.53459
1.53474
1.53486
1.53496
1.53504
1.5351
1.53515
1.53519
1.53521
1.53523
1.53525
1.53526
1.53527
1.53528
1.53528
1.53529
1.53529
1.5353
1.5353
1.5353
1.5353
1.5353
1.53531
1.53531
1.53531
1.53531
1.53531
1.53531
1.53531
1.53531
1.53531
1.53531
1.53531
1.53531
1.53531
1.53531
1.5353
1.5353
1.5353
1.5353
1.5353
1.53529
1.53529
1.53528
1.53528
1.53527
1.53526
1.53525
1.53523
1.53521
1.53519
1.53515
1.5351
1.53504
1.53496
1.53486
1.53474
1.53459
1.53444
2.10767
2.10789
2.10812
2.10831
2.10846
2.10858
2.10867
2.10874
2.1088
2.10884
2.10887
2.10889
2.10891
2.10892
2.10893
2.10894
2.10895
2.10896
2.10896
2.10897
2.10897
2.10897
2.10898
2.10898
2.10898
2.10898
2.10898
2.10898
2.10898
2.10898
2.10898
2.10898
2.10898
2.10898
2.10898
2.10898
2.10898
2.10898
2.10897
2.10897
2.10897
2.10896
2.10896
2.10895
2.10894
2.10893
2.10892
2.10891
2.10889
2.10887
2.10884
2.1088
2.10874
2.10867
2.10858
2.10846
2.10831
2.10812
2.10789
2.10767
2.68878
2.68908
2.68939
2.68965
2.68986
2.69002
2.69014
2.69024
2.69031
2.69036
2.6904
2.69044
2.69046
2.69048
2.69049
2.69051
2.69052
2.69053
2.69053
2.69054
2.69054
2.69055
2.69055
2.69055
2.69056
2.69056
2.69056
2.69056
2.69056
2.69056
2.69056
2.69056
2.69056
2.69056
2.69056
2.69056
2.69055
2.69055
2.69055
2.69054
2.69054
2.69053
2.69053
2.69052
2.69051
2.69049
2.69048
2.69046
2.69044
2.6904
2.69036
2.69031
2.69024
2.69014
2.69002
2.68986
2.68965
2.68939
2.68908
2.68878
3.27962
3.28
3.28038
3.28071
3.28098
3.28118
3.28134
3.28146
3.28155
3.28162
3.28167
3.28171
3.28174
3.28176
3.28178
3.2818
3.28181
3.28182
3.28183
3.28183
3.28184
3.28185
3.28185
3.28185
3.28186
3.28186
3.28186
3.28186
3.28186
3.28186
3.28186
3.28186
3.28186
3.28186
3.28186
3.28186
3.28185
3.28185
3.28185
3.28184
3.28183
3.28183
3.28182
3.28181
3.2818
3.28178
3.28176
3.28174
3.28171
3.28167
3.28162
3.28155
3.28146
3.28134
3.28118
3.28098
3.28071
3.28038
3.28
3.27962
3.88052
3.88098
3.88145
3.88185
3.88217
3.88241
3.8826
3.88275
3.88286
3.88294
3.883
3.88305
3.88309
3.88312
3.88314
3.88316
3.88317
3.88319
3.8832
3.8832
3.88321
3.88322
3.88322
3.88323
3.88323
3.88323
3.88324
3.88324
3.88324
3.88324
3.88324
3.88324
3.88324
3.88324
3.88323
3.88323
3.88323
3.88322
3.88322
3.88321
3.8832
3.8832
3.88319
3.88317
3.88316
3.88314
3.88312
3.88309
3.88305
3.883
3.88294
3.88286
3.88275
3.8826
3.88241
3.88217
3.88185
3.88145
3.88098
3.88052
4.49141
4.49194
4.49249
4.49296
4.49334
4.49363
4.49385
4.49402
4.49415
4.49424
4.49432
4.49437
4.49442
4.49445
4.49448
4.4945
4.49452
4.49453
4.49454
4.49455
4.49456
4.49457
4.49458
4.49458
4.49459
4.49459
4.49459
4.49459
4.4946
4.4946
4.4946
4.4946
4.49459
4.49459
4.49459
4.49459
4.49458
4.49458
4.49457
4.49456
4.49455
4.49454
4.49453
4.49452
4.4945
4.49448
4.49445
4.49442
4.49437
4.49432
4.49424
4.49415
4.49402
4.49385
4.49363
4.49334
4.49296
4.49249
4.49194
4.49141
5.11202
5.11263
5.11326
5.1138
5.11423
5.11456
5.11482
5.11501
5.11516
5.11527
5.11536
5.11542
5.11547
5.11551
5.11554
5.11557
5.11559
5.1156
5.11562
5.11563
5.11564
5.11565
5.11565
5.11566
5.11567
5.11567
5.11567
5.11568
5.11568
5.11568
5.11568
5.11568
5.11568
5.11567
5.11567
5.11567
5.11566
5.11565
5.11565
5.11564
5.11563
5.11562
5.1156
5.11559
5.11557
5.11554
5.11551
5.11547
5.11542
5.11536
5.11527
5.11516
5.11501
5.11482
5.11456
5.11423
5.1138
5.11326
5.11263
5.11202
5.74201
5.74271
5.74342
5.74402
5.74451
5.74488
5.74517
5.74539
5.74556
5.74568
5.74578
5.74585
5.74591
5.74595
5.74599
5.74602
5.74604
5.74606
5.74607
5.74609
5.7461
5.74611
5.74612
5.74612
5.74613
5.74613
5.74614
5.74614
5.74614
5.74614
5.74614
5.74614
5.74614
5.74614
5.74613
5.74613
5.74612
5.74612
5.74611
5.7461
5.74609
5.74607
5.74606
5.74604
5.74602
5.74599
5.74595
5.74591
5.74585
5.74578
5.74568
5.74556
5.74539
5.74517
5.74488
5.74451
5.74402
5.74342
5.74271
5.74201
6.38098
6.38175
6.38254
6.38322
6.38376
6.38418
6.3845
6.38474
6.38493
6.38507
6.38517
6.38525
6.38532
6.38537
6.38541
6.38544
6.38546
6.38548
6.3855
6.38552
6.38553
6.38554
6.38555
6.38556
6.38556
6.38557
6.38557
6.38558
6.38558
6.38558
6.38558
6.38558
6.38558
6.38557
6.38557
6.38556
6.38556
6.38555
6.38554
6.38553
6.38552
6.3855
6.38548
6.38546
6.38544
6.38541
6.38537
6.38532
6.38525
6.38517
6.38507
6.38493
6.38474
6.3845
6.38418
6.38376
6.38322
6.38254
6.38175
6.38098
7.02844
7.02928
7.03015
7.03089
7.03149
7.03195
7.0323
7.03257
7.03277
7.03293
7.03305
7.03314
7.0332
7.03326
7.0333
7.03334
7.03337
7.03339
7.03341
7.03343
7.03344
7.03345
7.03346
7.03347
7.03348
7.03348
7.03349
7.03349
7.03349
7.0335
7.0335
7.03349
7.03349
7.03349
7.03348
7.03348
7.03347
7.03346
7.03345
7.03344
7.03343
7.03341
7.03339
7.03337
7.03334
7.0333
7.03326
7.0332
7.03314
7.03305
7.03293
7.03277
7.03257
7.0323
7.03195
7.03149
7.03089
7.03015
7.02928
7.02844
7.68381
7.68472
7.68567
7.68648
7.68712
7.68763
7.68801
7.68831
7.68853
7.6887
7.68882
7.68892
7.689
7.68906
7.68911
7.68914
7.68918
7.6892
7.68922
7.68924
7.68926
7.68927
7.68928
7.68929
7.6893
7.68931
7.68931
7.68931
7.68932
7.68932
7.68932
7.68932
7.68931
7.68931
7.68931
7.6893
7.68929
7.68928
7.68927
7.68926
7.68924
7.68922
7.6892
7.68918
7.68914
7.68911
7.68906
7.689
7.68892
7.68882
7.6887
7.68853
7.68831
7.68801
7.68763
7.68712
7.68648
7.68567
7.68472
7.68381
8.34642
8.34741
8.34843
8.34931
8.35
8.35055
8.35096
8.35128
8.35152
8.3517
8.35184
8.35195
8.35203
8.35209
8.35215
8.35219
8.35222
8.35225
8.35227
8.35229
8.35231
8.35233
8.35234
8.35235
8.35236
8.35236
8.35237
8.35237
8.35238
8.35238
8.35238
8.35238
8.35237
8.35237
8.35236
8.35236
8.35235
8.35234
8.35233
8.35231
8.35229
8.35227
8.35225
8.35222
8.35219
8.35215
8.35209
8.35203
8.35195
8.35184
8.3517
8.35152
8.35128
8.35096
8.35055
8.35
8.34931
8.34843
8.34741
8.34642
9.0155
9.01657
9.01766
9.0186
9.01935
9.01993
9.02038
9.02072
9.02098
9.02117
9.02132
9.02143
9.02152
9.02159
9.02165
9.02169
9.02173
9.02176
9.02179
9.02181
9.02183
9.02184
9.02186
9.02187
9.02188
9.02189
9.02189
9.0219
9.0219
9.0219
9.0219
9.0219
9.0219
9.02189
9.02189
9.02188
9.02187
9.02186
9.02184
9.02183
9.02181
9.02179
9.02176
9.02173
9.02169
9.02165
9.02159
9.02152
9.02143
9.02132
9.02117
9.02098
9.02072
9.02038
9.01993
9.01935
9.0186
9.01766
9.01657
9.0155
9.69017
9.6913
9.69247
9.69347
9.69426
9.69489
9.69536
9.69572
9.696
9.69621
9.69637
9.69649
9.69659
9.69666
9.69672
9.69677
9.69681
9.69684
9.69687
9.69689
9.69691
9.69693
9.69695
9.69696
9.69697
9.69698
9.69698
9.69699
9.69699
9.69699
9.69699
9.69699
9.69699
9.69698
9.69698
9.69697
9.69696
9.69695
9.69693
9.69691
9.69689
9.69687
9.69684
9.69681
9.69677
9.69672
9.69666
9.69659
9.69649
9.69637
9.69621
9.696
9.69572
9.69536
9.69489
9.69426
9.69347
9.69247
9.6913
9.69017
10.3694
10.3706
10.3718
10.3729
10.3737
10.3744
10.3749
10.3753
10.3756
10.3758
10.376
10.3761
10.3762
10.3763
10.3763
10.3764
10.3764
10.3765
10.3765
10.3765
10.3765
10.3766
10.3766
10.3766
10.3766
10.3766
10.3766
10.3766
10.3766
10.3766
10.3766
10.3766
10.3766
10.3766
10.3766
10.3766
10.3766
10.3766
10.3766
10.3765
10.3765
10.3765
10.3765
10.3764
10.3764
10.3763
10.3763
10.3762
10.3761
10.376
10.3758
10.3756
10.3753
10.3749
10.3744
10.3737
10.3729
10.3718
10.3706
10.3694
11.052
11.0532
11.0545
11.0556
11.0565
11.0572
11.0578
11.0582
11.0585
11.0587
11.0589
11.059
11.0591
11.0592
11.0593
11.0593
11.0594
11.0594
11.0595
11.0595
11.0595
11.0595
11.0595
11.0596
11.0596
11.0596
11.0596
11.0596
11.0596
11.0596
11.0596
11.0596
11.0596
11.0596
11.0596
11.0596
11.0596
11.0595
11.0595
11.0595
11.0595
11.0595
11.0594
11.0594
11.0593
11.0593
11.0592
11.0591
11.059
11.0589
11.0587
11.0585
11.0582
11.0578
11.0572
11.0565
11.0556
11.0545
11.0532
11.052
11.7366
11.7379
11.7393
11.7404
11.7413
11.7421
11.7426
11.743
11.7434
11.7436
11.7438
11.7439
11.7441
11.7442
11.7442
11.7443
11.7443
11.7444
11.7444
11.7444
11.7445
11.7445
11.7445
11.7445
11.7445
11.7445
11.7445
11.7445
11.7446
11.7446
11.7446
11.7446
11.7445
11.7445
11.7445
11.7445
11.7445
11.7445
11.7445
11.7445
11.7444
11.7444
11.7444
11.7443
11.7443
11.7442
11.7442
11.7441
11.7439
11.7438
11.7436
11.7434
11.743
11.7426
11.7421
11.7413
11.7404
11.7393
11.7379
11.7366
12.4216
12.423
12.4244
12.4256
12.4266
12.4273
12.4279
12.4283
12.4287
12.4289
12.4291
12.4293
12.4294
12.4295
12.4296
12.4296
12.4297
12.4297
12.4298
12.4298
12.4298
12.4298
12.4299
12.4299
12.4299
12.4299
12.4299
12.4299
12.4299
12.4299
12.4299
12.4299
12.4299
12.4299
12.4299
12.4299
12.4299
12.4299
12.4298
12.4298
12.4298
12.4298
12.4297
12.4297
12.4296
12.4296
12.4295
12.4294
12.4293
12.4291
12.4289
12.4287
12.4283
12.4279
12.4273
12.4266
12.4256
12.4244
12.423
12.4216
13.1053
13.1067
13.1082
13.1094
13.1104
13.1112
13.1118
13.1122
13.1126
13.1129
13.1131
13.1132
13.1133
13.1134
13.1135
13.1136
13.1136
13.1137
13.1137
13.1138
13.1138
13.1138
13.1138
13.1138
13.1139
13.1139
13.1139
13.1139
13.1139
13.1139
13.1139
13.1139
13.1139
13.1139
13.1139
13.1139
13.1138
13.1138
13.1138
13.1138
13.1138
13.1137
13.1137
13.1136
13.1136
13.1135
13.1134
13.1133
13.1132
13.1131
13.1129
13.1126
13.1122
13.1118
13.1112
13.1104
13.1094
13.1082
13.1067
13.1053
13.7855
13.7869
13.7885
13.7897
13.7908
13.7916
13.7922
13.7927
13.793
13.7933
13.7935
13.7937
13.7938
13.7939
13.794
13.7941
13.7941
13.7942
13.7942
13.7942
13.7943
13.7943
13.7943
13.7943
13.7943
13.7944
13.7944
13.7944
13.7944
13.7944
13.7944
13.7944
13.7944
13.7944
13.7944
13.7943
13.7943
13.7943
13.7943
13.7943
13.7942
13.7942
13.7942
13.7941
13.7941
13.794
13.7939
13.7938
13.7937
13.7935
13.7933
13.793
13.7927
13.7922
13.7916
13.7908
13.7897
13.7885
13.7869
13.7855
14.4598
14.4613
14.4629
14.4642
14.4652
14.4661
14.4667
14.4672
14.4676
14.4678
14.4681
14.4682
14.4684
14.4685
14.4685
14.4686
14.4687
14.4687
14.4688
14.4688
14.4688
14.4689
14.4689
14.4689
14.4689
14.4689
14.4689
14.4689
14.469
14.469
14.469
14.469
14.4689
14.4689
14.4689
14.4689
14.4689
14.4689
14.4689
14.4688
14.4688
14.4688
14.4687
14.4687
14.4686
14.4685
14.4685
14.4684
14.4682
14.4681
14.4678
14.4676
14.4672
14.4667
14.4661
14.4652
14.4642
14.4629
14.4613
14.4598
15.1255
15.1271
15.1286
15.13
15.131
15.1319
15.1325
15.133
15.1334
15.1337
15.1339
15.1341
15.1342
15.1343
15.1344
15.1345
15.1345
15.1346
15.1346
15.1347
15.1347
15.1347
15.1347
15.1348
15.1348
15.1348
15.1348
15.1348
15.1348
15.1348
15.1348
15.1348
15.1348
15.1348
15.1348
15.1348
15.1348
15.1347
15.1347
15.1347
15.1347
15.1346
15.1346
15.1345
15.1345
15.1344
15.1343
15.1342
15.1341
15.1339
15.1337
15.1334
15.133
15.1325
15.1319
15.131
15.13
15.1286
15.1271
15.1255
15.7793
15.7808
15.7824
15.7838
15.7848
15.7857
15.7863
15.7868
15.7872
15.7875
15.7877
15.7879
15.788
15.7882
15.7882
15.7883
15.7884
15.7884
15.7885
15.7885
15.7886
15.7886
15.7886
15.7886
15.7886
15.7887
15.7887
15.7887
15.7887
15.7887
15.7887
15.7887
15.7887
15.7887
15.7887
15.7886
15.7886
15.7886
15.7886
15.7886
15.7885
15.7885
15.7884
15.7884
15.7883
15.7882
15.7882
15.788
15.7879
15.7877
15.7875
15.7872
15.7868
15.7863
15.7857
15.7848
15.7838
15.7824
15.7808
15.7793
16.4173
16.4188
16.4204
16.4217
16.4228
16.4237
16.4243
16.4248
16.4252
16.4255
16.4257
16.4259
16.426
16.4261
16.4262
16.4263
16.4264
16.4264
16.4265
16.4265
16.4266
16.4266
16.4266
16.4266
16.4267
16.4267
16.4267
16.4267
16.4267
16.4267
16.4267
16.4267
16.4267
16.4267
16.4267
16.4267
16.4266
16.4266
16.4266
16.4266
16.4265
16.4265
16.4264
16.4264
16.4263
16.4262
16.4261
16.426
16.4259
16.4257
16.4255
16.4252
16.4248
16.4243
16.4237
16.4228
16.4217
16.4204
16.4188
16.4173
17.035
17.0365
17.038
17.0394
17.0404
17.0412
17.0419
17.0424
17.0428
17.043
17.0433
17.0435
17.0436
17.0437
17.0438
17.0439
17.044
17.044
17.0441
17.0441
17.0441
17.0442
17.0442
17.0442
17.0442
17.0443
17.0443
17.0443
17.0443
17.0443
17.0443
17.0443
17.0443
17.0443
17.0443
17.0442
17.0442
17.0442
17.0442
17.0441
17.0441
17.0441
17.044
17.044
17.0439
17.0438
17.0437
17.0436
17.0435
17.0433
17.043
17.0428
17.0424
17.0419
17.0412
17.0404
17.0394
17.038
17.0365
17.035
17.6268
17.6283
17.6298
17.6311
17.6322
17.633
17.6336
17.6341
17.6344
17.6347
17.635
17.6351
17.6353
17.6354
17.6355
17.6356
17.6356
17.6357
17.6357
17.6358
17.6358
17.6359
17.6359
17.6359
17.6359
17.636
17.636
17.636
17.636
17.636
17.636
17.636
17.636
17.636
17.636
17.6359
17.6359
17.6359
17.6359
17.6358
17.6358
17.6357
17.6357
17.6356
17.6356
17.6355
17.6354
17.6353
17.6351
17.635
17.6347
17.6344
17.6341
17.6336
17.633
17.6322
17.6311
17.6298
17.6283
17.6268
18.1864
18.1879
18.1893
18.1905
18.1915
18.1923
18.1929
18.1933
18.1937
18.194
18.1942
18.1944
18.1945
18.1946
18.1947
18.1948
18.1949
18.1949
18.195
18.195
18.1951
18.1951
18.1951
18.1952
18.1952
18.1952
18.1952
18.1952
18.1952
18.1952
18.1952
18.1952
18.1952
18.1952
18.1952
18.1952
18.1952
18.1951
18.1951
18.1951
18.195
18.195
18.1949
18.1949
18.1948
18.1947
18.1946
18.1945
18.1944
18.1942
18.194
18.1937
18.1933
18.1929
18.1923
18.1915
18.1905
18.1893
18.1879
18.1864
18.706
18.7073
18.7087
18.7098
18.7107
18.7114
18.712
18.7124
18.7128
18.7131
18.7133
18.7134
18.7136
18.7137
18.7138
18.7139
18.7139
18.714
18.714
18.7141
18.7141
18.7142
18.7142
18.7142
18.7142
18.7143
18.7143
18.7143
18.7143
18.7143
18.7143
18.7143
18.7143
18.7143
18.7143
18.7142
18.7142
18.7142
18.7142
18.7141
18.7141
18.714
18.714
18.7139
18.7139
18.7138
18.7137
18.7136
18.7134
18.7133
18.7131
18.7128
18.7124
18.712
18.7114
18.7107
18.7098
18.7087
18.7073
18.706
19.1768
19.178
19.1792
19.1802
19.181
19.1817
19.1822
19.1826
19.1829
19.1832
19.1834
19.1835
19.1837
19.1838
19.1839
19.1839
19.184
19.1841
19.1841
19.1842
19.1842
19.1843
19.1843
19.1843
19.1843
19.1844
19.1844
19.1844
19.1844
19.1844
19.1844
19.1844
19.1844
19.1844
19.1844
19.1843
19.1843
19.1843
19.1843
19.1842
19.1842
19.1841
19.1841
19.184
19.1839
19.1839
19.1838
19.1837
19.1835
19.1834
19.1832
19.1829
19.1826
19.1822
19.1817
19.181
19.1802
19.1792
19.178
19.1768
19.5901
19.5911
19.5921
19.593
19.5937
19.5943
19.5948
19.5951
19.5954
19.5956
19.5958
19.596
19.5961
19.5962
19.5963
19.5964
19.5964
19.5965
19.5965
19.5966
19.5966
19.5967
19.5967
19.5967
19.5968
19.5968
19.5968
19.5968
19.5968
19.5968
19.5968
19.5968
19.5968
19.5968
19.5968
19.5968
19.5967
19.5967
19.5967
19.5966
19.5966
19.5965
19.5965
19.5964
19.5964
19.5963
19.5962
19.5961
19.596
19.5958
19.5956
19.5954
19.5951
19.5948
19.5943
19.5937
19.593
19.5921
19.5911
19.5901
19.9394
19.9402
19.941
19.9417
19.9423
19.9428
19.9432
19.9435
19.9437
19.9439
19.9441
19.9442
19.9444
19.9445
19.9445
19.9446
19.9447
19.9447
19.9448
19.9449
19.9449
19.9449
19.945
19.945
19.945
19.945
19.9451
19.9451
19.9451
19.9451
19.9451
19.9451
19.9451
19.9451
19.945
19.945
19.945
19.945
19.9449
19.9449
19.9449
19.9448
19.9447
19.9447
19.9446
19.9445
19.9445
19.9444
19.9442
19.9441
19.9439
19.9437
19.9435
19.9432
19.9428
19.9423
19.9417
19.941
19.9402
19.9394
20.2231
20.2237
20.2244
20.2249
20.2254
20.2258
20.2261
20.2263
20.2266
20.2267
20.2269
20.227
20.2271
20.2272
20.2273
20.2274
20.2274
20.2275
20.2275
20.2276
20.2276
20.2277
20.2277
20.2277
20.2278
20.2278
20.2278
20.2278
20.2278
20.2278
20.2278
20.2278
20.2278
20.2278
20.2278
20.2278
20.2277
20.2277
20.2277
20.2276
20.2276
20.2275
20.2275
20.2274
20.2274
20.2273
20.2272
20.2271
20.227
20.2269
20.2267
20.2266
20.2263
20.2261
20.2258
20.2254
20.2249
20.2244
20.2237
20.2231
20.4465
20.4469
20.4474
20.4478
20.4481
20.4484
20.4487
20.4489
20.449
20.4492
20.4493
20.4494
20.4495
20.4496
20.4497
20.4498
20.4498
20.4499
20.45
20.45
20.4501
20.4501
20.4501
20.4502
20.4502
20.4502
20.4502
20.4502
20.4503
20.4503
20.4503
20.4503
20.4502
20.4502
20.4502
20.4502
20.4502
20.4501
20.4501
20.4501
20.45
20.45
20.4499
20.4498
20.4498
20.4497
20.4496
20.4495
20.4494
20.4493
20.4492
20.449
20.4489
20.4487
20.4484
20.4481
20.4478
20.4474
20.4469
20.4465
20.6197
20.62
20.6203
20.6206
20.6209
20.6211
20.6213
20.6215
20.6216
20.6218
20.6219
20.622
20.6221
20.6222
20.6222
20.6223
20.6224
20.6224
20.6225
20.6225
20.6226
20.6226
20.6227
20.6227
20.6227
20.6228
20.6228
20.6228
20.6228
20.6228
20.6228
20.6228
20.6228
20.6228
20.6228
20.6227
20.6227
20.6227
20.6226
20.6226
20.6225
20.6225
20.6224
20.6224
20.6223
20.6222
20.6222
20.6221
20.622
20.6219
20.6218
20.6216
20.6215
20.6213
20.6211
20.6209
20.6206
20.6203
20.62
20.6197
20.7551
20.7553
20.7555
20.7557
20.7559
20.7561
20.7563
20.7564
20.7565
20.7566
20.7567
20.7568
20.7569
20.757
20.7571
20.7572
20.7572
20.7573
20.7574
20.7574
20.7575
20.7575
20.7575
20.7576
20.7576
20.7576
20.7576
20.7577
20.7577
20.7577
20.7577
20.7577
20.7577
20.7576
20.7576
20.7576
20.7576
20.7575
20.7575
20.7575
20.7574
20.7574
20.7573
20.7572
20.7572
20.7571
20.757
20.7569
20.7568
20.7567
20.7566
20.7565
20.7564
20.7563
20.7561
20.7559
20.7557
20.7555
20.7553
20.7551
20.8635
20.8636
20.8638
20.864
20.8641
20.8642
20.8644
20.8645
20.8646
20.8647
20.8648
20.8649
20.865
20.8651
20.8652
20.8652
20.8653
20.8654
20.8654
20.8655
20.8655
20.8656
20.8656
20.8657
20.8657
20.8657
20.8657
20.8657
20.8658
20.8658
20.8658
20.8658
20.8657
20.8657
20.8657
20.8657
20.8657
20.8656
20.8656
20.8655
20.8655
20.8654
20.8654
20.8653
20.8652
20.8652
20.8651
20.865
20.8649
20.8648
20.8647
20.8646
20.8645
20.8644
20.8642
20.8641
20.864
20.8638
20.8636
20.8635
20.9532
20.9533
20.9534
20.9535
20.9536
20.9537
20.9538
20.9539
20.9541
20.9542
20.9542
20.9543
20.9544
20.9545
20.9546
20.9547
20.9547
20.9548
20.9549
20.9549
20.955
20.955
20.9551
20.9551
20.9551
20.9552
20.9552
20.9552
20.9552
20.9552
20.9552
20.9552
20.9552
20.9552
20.9552
20.9551
20.9551
20.9551
20.955
20.955
20.9549
20.9549
20.9548
20.9547
20.9547
20.9546
20.9545
20.9544
20.9543
20.9542
20.9542
20.9541
20.9539
20.9538
20.9537
20.9536
20.9535
20.9534
20.9533
20.9532
21.0297
21.0297
21.0298
21.0299
21.03
21.0301
21.0302
21.0303
21.0304
21.0305
21.0305
21.0306
21.0307
21.0308
21.0309
21.031
21.0311
21.0311
21.0312
21.0312
21.0313
21.0313
21.0314
21.0314
21.0315
21.0315
21.0315
21.0315
21.0315
21.0315
21.0315
21.0315
21.0315
21.0315
21.0315
21.0315
21.0314
21.0314
21.0313
21.0313
21.0312
21.0312
21.0311
21.0311
21.031
21.0309
21.0308
21.0307
21.0306
21.0305
21.0305
21.0304
21.0303
21.0302
21.0301
21.03
21.0299
21.0298
21.0297
21.0297
21.0965
21.0965
21.0966
21.0966
21.0967
21.0968
21.0969
21.097
21.0971
21.0972
21.0973
21.0974
21.0975
21.0975
21.0976
21.0977
21.0978
21.0979
21.0979
21.098
21.098
21.0981
21.0981
21.0982
21.0982
21.0982
21.0982
21.0983
21.0983
21.0983
21.0983
21.0983
21.0983
21.0982
21.0982
21.0982
21.0982
21.0981
21.0981
21.098
21.098
21.0979
21.0979
21.0978
21.0977
21.0976
21.0975
21.0975
21.0974
21.0973
21.0972
21.0971
21.097
21.0969
21.0968
21.0967
21.0966
21.0966
21.0965
21.0965
21.156
21.156
21.156
21.1561
21.1562
21.1562
21.1563
21.1564
21.1565
21.1566
21.1567
21.1568
21.1569
21.157
21.1571
21.1571
21.1572
21.1573
21.1574
21.1574
21.1575
21.1575
21.1576
21.1576
21.1577
21.1577
21.1577
21.1577
21.1577
21.1577
21.1577
21.1577
21.1577
21.1577
21.1577
21.1577
21.1576
21.1576
21.1575
21.1575
21.1574
21.1574
21.1573
21.1572
21.1571
21.1571
21.157
21.1569
21.1568
21.1567
21.1566
21.1565
21.1564
21.1563
21.1562
21.1562
21.1561
21.156
21.156
21.156
21.2097
21.2097
21.2098
21.2098
21.2099
21.2099
21.21
21.2101
21.2102
21.2103
21.2104
21.2105
21.2106
21.2107
21.2108
21.2109
21.2109
21.211
21.2111
21.2111
21.2112
21.2113
21.2113
21.2113
21.2114
21.2114
21.2114
21.2115
21.2115
21.2115
21.2115
21.2115
21.2115
21.2114
21.2114
21.2114
21.2113
21.2113
21.2113
21.2112
21.2111
21.2111
21.211
21.2109
21.2109
21.2108
21.2107
21.2106
21.2105
21.2104
21.2103
21.2102
21.2101
21.21
21.2099
21.2099
21.2098
21.2098
21.2097
21.2097
21.2588
21.2588
21.2588
21.2589
21.2589
21.259
21.2591
21.2591
21.2592
21.2593
21.2594
21.2595
21.2596
21.2597
21.2598
21.2599
21.26
21.2601
21.2601
21.2602
21.2603
21.2603
21.2604
21.2604
21.2604
21.2605
21.2605
21.2605
21.2605
21.2605
21.2605
21.2605
21.2605
21.2605
21.2605
21.2604
21.2604
21.2604
21.2603
21.2603
21.2602
21.2601
21.2601
21.26
21.2599
21.2598
21.2597
21.2596
21.2595
21.2594
21.2593
21.2592
21.2591
21.2591
21.259
21.2589
21.2589
21.2588
21.2588
21.2588
21.304
21.304
21.304
21.304
21.3041
21.3042
21.3042
21.3043
21.3044
21.3045
21.3046
21.3047
21.3048
21.3049
21.305
21.3051
21.3052
21.3052
21.3053
21.3054
21.3055
21.3055
21.3056
21.3056
21.3056
21.3057
21.3057
21.3057
21.3057
21.3057
21.3057
21.3057
21.3057
21.3057
21.3057
21.3056
21.3056
21.3056
21.3055
21.3055
21.3054
21.3053
21.3052
21.3052
21.3051
21.305
21.3049
21.3048
21.3047
21.3046
21.3045
21.3044
21.3043
21.3042
21.3042
21.3041
21.304
21.304
21.304
21.304
21.3459
21.3459
21.3459
21.3459
21.346
21.346
21.3461
21.3462
21.3463
21.3464
21.3465
21.3466
21.3467
21.3468
21.3469
21.347
21.3471
21.3472
21.3472
21.3473
21.3474
21.3474
21.3475
21.3475
21.3476
21.3476
21.3476
21.3477
21.3477
21.3477
21.3477
21.3477
21.3477
21.3476
21.3476
21.3476
21.3475
21.3475
21.3474
21.3474
21.3473
21.3472
21.3472
21.3471
21.347
21.3469
21.3468
21.3467
21.3466
21.3465
21.3464
21.3463
21.3462
21.3461
21.346
21.346
21.3459
21.3459
21.3459
21.3459
21.385
21.385
21.385
21.385
21.3851
21.3851
21.3852
21.3853
21.3854
21.3855
21.3856
21.3857
21.3858
21.3859
21.386
21.3861
21.3862
21.3863
21.3864
21.3864
21.3865
21.3866
21.3866
21.3867
21.3867
21.3867
21.3868
21.3868
21.3868
21.3868
21.3868
21.3868
21.3868
21.3868
21.3867
21.3867
21.3867
21.3866
21.3866
21.3865
21.3864
21.3864
21.3863
21.3862
21.3861
21.386
21.3859
21.3858
21.3857
21.3856
21.3855
21.3854
21.3853
21.3852
21.3851
21.3851
21.385
21.385
21.385
21.385
21.4217
21.4217
21.4217
21.4217
21.4217
21.4218
21.4219
21.4219
21.422
21.4221
21.4222
21.4223
21.4224
21.4226
21.4227
21.4228
21.4229
21.4229
21.423
21.4231
21.4232
21.4232
21.4233
21.4233
21.4234
21.4234
21.4235
21.4235
21.4235
21.4235
21.4235
21.4235
21.4235
21.4235
21.4234
21.4234
21.4233
21.4233
21.4232
21.4232
21.4231
21.423
21.4229
21.4229
21.4228
21.4227
21.4226
21.4224
21.4223
21.4222
21.4221
21.422
21.4219
21.4219
21.4218
21.4217
21.4217
21.4217
21.4217
21.4217
21.4562
21.4562
21.4562
21.4562
21.4562
21.4563
21.4564
21.4564
21.4565
21.4566
21.4567
21.4569
21.457
21.4571
21.4572
21.4573
21.4574
21.4575
21.4576
21.4577
21.4577
21.4578
21.4578
21.4579
21.4579
21.458
21.458
21.458
21.458
21.4581
21.4581
21.458
21.458
21.458
21.458
21.4579
21.4579
21.4578
21.4578
21.4577
21.4577
21.4576
21.4575
21.4574
21.4573
21.4572
21.4571
21.457
21.4569
21.4567
21.4566
21.4565
21.4564
21.4564
21.4563
21.4562
21.4562
21.4562
21.4562
21.4562
21.4888
21.4888
21.4888
21.4888
21.4888
21.4889
21.489
21.4891
21.4892
21.4893
21.4894
21.4895
21.4896
21.4897
21.4898
21.4899
21.49
21.4901
21.4902
21.4903
21.4904
21.4904
21.4905
21.4906
21.4906
21.4906
21.4907
21.4907
21.4907
21.4907
21.4907
21.4907
21.4907
21.4907
21.4906
21.4906
21.4906
21.4905
21.4904
21.4904
21.4903
21.4902
21.4901
21.49
21.4899
21.4898
21.4897
21.4896
21.4895
21.4894
21.4893
21.4892
21.4891
21.489
21.4889
21.4888
21.4888
21.4888
21.4888
21.4888
21.5197
21.5197
21.5197
21.5197
21.5198
21.5198
21.5199
21.52
21.5201
21.5202
21.5203
21.5204
21.5205
21.5206
21.5208
21.5209
21.521
21.5211
21.5212
21.5213
21.5213
21.5214
21.5215
21.5215
21.5216
21.5216
21.5216
21.5217
21.5217
21.5217
21.5217
21.5217
21.5217
21.5216
21.5216
21.5216
21.5215
21.5215
21.5214
21.5213
21.5213
21.5212
21.5211
21.521
21.5209
21.5208
21.5206
21.5205
21.5204
21.5203
21.5202
21.5201
21.52
21.5199
21.5198
21.5198
21.5197
21.5197
21.5197
21.5197
21.5491
21.5491
21.5491
21.5491
21.5492
21.5492
21.5493
21.5494
21.5495
21.5496
21.5497
21.5498
21.5499
21.5501
21.5502
21.5503
21.5504
21.5505
21.5506
21.5507
21.5508
21.5509
21.5509
21.551
21.551
21.5511
21.5511
21.5511
21.5511
21.5511
21.5511
21.5511
21.5511
21.5511
21.5511
21.551
21.551
21.5509
21.5509
21.5508
21.5507
21.5506
21.5505
21.5504
21.5503
21.5502
21.5501
21.5499
21.5498
21.5497
21.5496
21.5495
21.5494
21.5493
21.5492
21.5492
21.5491
21.5491
21.5491
21.5491
21.5772
21.5771
21.5771
21.5771
21.5772
21.5772
21.5773
21.5774
21.5775
21.5776
21.5777
21.5779
21.578
21.5781
21.5782
21.5783
21.5785
21.5786
21.5787
21.5788
21.5788
21.5789
21.579
21.579
21.5791
21.5791
21.5792
21.5792
21.5792
21.5792
21.5792
21.5792
21.5792
21.5792
21.5791
21.5791
21.579
21.579
21.5789
21.5788
21.5788
21.5787
21.5786
21.5785
21.5783
21.5782
21.5781
21.578
21.5779
21.5777
21.5776
21.5775
21.5774
21.5773
21.5772
21.5772
21.5771
21.5771
21.5771
21.5772
21.6039
21.6039
21.6039
21.6039
21.6039
21.604
21.6041
21.6042
21.6043
21.6044
21.6045
21.6046
21.6048
21.6049
21.605
21.6051
21.6053
21.6054
21.6055
21.6056
21.6057
21.6057
21.6058
21.6059
21.6059
21.606
21.606
21.606
21.606
21.606
21.606
21.606
21.606
21.606
21.606
21.6059
21.6059
21.6058
21.6057
21.6057
21.6056
21.6055
21.6054
21.6053
21.6051
21.605
21.6049
21.6048
21.6046
21.6045
21.6044
21.6043
21.6042
21.6041
21.604
21.6039
21.6039
21.6039
21.6039
21.6039
21.6295
21.6295
21.6295
21.6295
21.6295
21.6296
21.6297
21.6298
21.6299
21.63
21.6301
21.6303
21.6304
21.6305
21.6307
21.6308
21.6309
21.631
21.6311
21.6312
21.6313
21.6314
21.6315
21.6315
21.6316
21.6316
21.6317
21.6317
21.6317
21.6317
21.6317
21.6317
21.6317
21.6317
21.6316
21.6316
21.6315
21.6315
21.6314
21.6313
21.6312
21.6311
21.631
21.6309
21.6308
21.6307
21.6305
21.6304
21.6303
21.6301
21.63
21.6299
21.6298
21.6297
21.6296
21.6295
21.6295
21.6295
21.6295
21.6295
21.654
21.654
21.654
21.654
21.6541
21.6541
21.6542
21.6543
21.6544
21.6545
21.6547
21.6548
21.655
21.6551
21.6552
21.6554
21.6555
21.6556
21.6557
21.6558
21.6559
21.656
21.6561
21.6561
21.6562
21.6562
21.6563
21.6563
21.6563
21.6563
21.6563
21.6563
21.6563
21.6563
21.6562
21.6562
21.6561
21.6561
21.656
21.6559
21.6558
21.6557
21.6556
21.6555
21.6554
21.6552
21.6551
21.655
21.6548
21.6547
21.6545
21.6544
21.6543
21.6542
21.6541
21.6541
21.654
21.654
21.654
21.654
21.6776
21.6776
21.6776
21.6776
21.6776
21.6777
21.6778
21.6779
21.678
21.6781
21.6783
21.6784
21.6785
21.6787
21.6788
21.679
21.6791
21.6792
21.6793
21.6794
21.6795
21.6796
21.6797
21.6798
21.6798
21.6799
21.6799
21.6799
21.6799
21.68
21.68
21.6799
21.6799
21.6799
21.6799
21.6798
21.6798
21.6797
21.6796
21.6795
21.6794
21.6793
21.6792
21.6791
21.679
21.6788
21.6787
21.6785
21.6784
21.6783
21.6781
21.678
21.6779
21.6778
21.6777
21.6776
21.6776
21.6776
21.6776
21.6776
21.7002
21.7002
21.7002
21.7002
21.7003
21.7003
21.7004
21.7005
21.7006
21.7008
21.7009
21.7011
21.7012
21.7013
21.7015
21.7016
21.7018
21.7019
21.702
21.7021
21.7022
21.7023
21.7024
21.7025
21.7025
21.7026
21.7026
21.7026
21.7027
21.7027
21.7027
21.7027
21.7026
21.7026
21.7026
21.7025
21.7025
21.7024
21.7023
21.7022
21.7021
21.702
21.7019
21.7018
21.7016
21.7015
21.7013
21.7012
21.7011
21.7009
21.7008
21.7006
21.7005
21.7004
21.7003
21.7003
21.7002
21.7002
21.7002
21.7002
21.722
21.722
21.722
21.722
21.722
21.7221
21.7222
21.7223
21.7224
21.7226
21.7227
21.7229
21.723
21.7232
21.7233
21.7235
21.7236
21.7237
21.7239
21.724
21.7241
21.7242
21.7242
21.7243
21.7244
21.7244
21.7245
21.7245
21.7245
21.7245
21.7245
21.7245
21.7245
21.7245
21.7244
21.7244
21.7243
21.7242
21.7242
21.7241
21.724
21.7239
21.7237
21.7236
21.7235
21.7233
21.7232
21.723
21.7229
21.7227
21.7226
21.7224
21.7223
21.7222
21.7221
21.722
21.722
21.722
21.722
21.722
21.743
21.743
21.743
21.743
21.743
21.7431
21.7432
21.7433
21.7434
21.7436
21.7437
21.7439
21.744
21.7442
21.7443
21.7445
21.7446
21.7448
21.7449
21.745
21.7451
21.7452
21.7453
21.7454
21.7454
21.7455
21.7455
21.7456
21.7456
21.7456
21.7456
21.7456
21.7456
21.7455
21.7455
21.7454
21.7454
21.7453
21.7452
21.7451
21.745
21.7449
21.7448
21.7446
21.7445
21.7443
21.7442
21.744
21.7439
21.7437
21.7436
21.7434
21.7433
21.7432
21.7431
21.743
21.743
21.743
21.743
21.743
21.7632
21.7632
21.7632
21.7632
21.7632
21.7633
21.7634
21.7635
21.7636
21.7638
21.7639
21.7641
21.7643
21.7644
21.7646
21.7647
21.7649
21.765
21.7652
21.7653
21.7654
21.7655
21.7656
21.7657
21.7657
21.7658
21.7658
21.7659
21.7659
21.7659
21.7659
21.7659
21.7659
21.7658
21.7658
21.7657
21.7657
21.7656
21.7655
21.7654
21.7653
21.7652
21.765
21.7649
21.7647
21.7646
21.7644
21.7643
21.7641
21.7639
21.7638
21.7636
21.7635
21.7634
21.7633
21.7632
21.7632
21.7632
21.7632
21.7632
21.7827
21.7827
21.7827
21.7827
21.7827
21.7828
21.7829
21.783
21.7832
21.7833
21.7835
21.7836
21.7838
21.784
21.7841
21.7843