/*--------------------------------*- C++ -*----------------------------------*\
| =========                 |                                                 |
| \\      /  F ield         | foam-extend: Open Source CFD                    |
|  \\    /   O peration     | Version:     4.0                                |
|   \\  /    A nd           | Web:         http://www.foam-extend.org         |
|    \\/     M anipulation  |                                                 |
\*---------------------------------------------------------------------------*/
FoamFile
{
    version     2.0;
    format      ascii;
    class       volScalarField;
    location    "560";
    object      cMinus;
}
// * * * * * * * * * * * * * * * * * * * * * * * * * * * * * * * * * * * * * //

dimensions      [0 0 0 0 0 0 0];

internalField   nonuniform List<scalar> 
6960
(
2.46733e-18
2.45802e-18
2.46482e-18
2.46797e-18
2.46892e-18
2.46865e-18
2.46768e-18
2.46631e-18
2.46469e-18
2.46291e-18
2.46104e-18
2.45911e-18
2.45716e-18
2.45522e-18
2.45332e-18
2.45148e-18
2.44971e-18
2.44804e-18
2.44646e-18
2.445e-18
2.44366e-18
2.44245e-18
2.44136e-18
2.44041e-18
2.4396e-18
2.43892e-18
2.43837e-18
2.43796e-18
2.43769e-18
2.43755e-18
2.43755e-18
2.43769e-18
2.43796e-18
2.43837e-18
2.43892e-18
2.4396e-18
2.44041e-18
2.44136e-18
2.44245e-18
2.44366e-18
2.445e-18
2.44646e-18
2.44804e-18
2.44971e-18
2.45148e-18
2.45332e-18
2.45522e-18
2.45716e-18
2.45911e-18
2.46104e-18
2.46291e-18
2.46469e-18
2.46631e-18
2.46768e-18
2.46865e-18
2.46892e-18
2.46797e-18
2.46482e-18
2.45802e-18
2.46733e-18
4.03858e-18
4.02569e-18
4.03622e-18
4.04105e-18
4.0425e-18
4.04205e-18
4.04052e-18
4.03837e-18
4.03584e-18
4.03306e-18
4.03013e-18
4.02712e-18
4.02407e-18
4.02105e-18
4.01808e-18
4.0152e-18
4.01244e-18
4.00982e-18
4.00737e-18
4.00509e-18
4.003e-18
4.0011e-18
3.99941e-18
3.99793e-18
3.99665e-18
3.99559e-18
3.99474e-18
3.9941e-18
3.99368e-18
3.99346e-18
3.99346e-18
3.99368e-18
3.9941e-18
3.99474e-18
3.99559e-18
3.99665e-18
3.99793e-18
3.99941e-18
4.0011e-18
4.003e-18
4.00509e-18
4.00737e-18
4.00982e-18
4.01244e-18
4.0152e-18
4.01808e-18
4.02105e-18
4.02407e-18
4.02712e-18
4.03013e-18
4.03306e-18
4.03584e-18
4.03837e-18
4.04052e-18
4.04205e-18
4.0425e-18
4.04105e-18
4.03622e-18
4.02569e-18
4.03858e-18
1.34712e-17
1.34343e-17
1.34675e-17
1.34826e-17
1.34871e-17
1.34855e-17
1.34806e-17
1.34738e-17
1.34657e-17
1.34568e-17
1.34475e-17
1.34379e-17
1.34282e-17
1.34186e-17
1.34091e-17
1.33999e-17
1.33912e-17
1.33828e-17
1.3375e-17
1.33677e-17
1.33611e-17
1.3355e-17
1.33497e-17
1.33449e-17
1.33409e-17
1.33375e-17
1.33348e-17
1.33328e-17
1.33314e-17
1.33307e-17
1.33307e-17
1.33314e-17
1.33328e-17
1.33348e-17
1.33375e-17
1.33409e-17
1.33449e-17
1.33497e-17
1.3355e-17
1.33611e-17
1.33677e-17
1.3375e-17
1.33828e-17
1.33912e-17
1.33999e-17
1.34091e-17
1.34186e-17
1.34282e-17
1.34379e-17
1.34475e-17
1.34568e-17
1.34657e-17
1.34738e-17
1.34806e-17
1.34855e-17
1.34871e-17
1.34826e-17
1.34675e-17
1.34343e-17
1.34712e-17
4.996e-17
4.98458e-17
4.9961e-17
5.00134e-17
5.00286e-17
5.00231e-17
5.0006e-17
4.9982e-17
4.99538e-17
4.9923e-17
4.98905e-17
4.98571e-17
4.98235e-17
4.979e-17
4.97571e-17
4.97253e-17
4.96947e-17
4.96658e-17
4.96386e-17
4.96134e-17
4.95903e-17
4.95693e-17
4.95506e-17
4.95342e-17
4.95201e-17
4.95084e-17
4.9499e-17
4.94919e-17
4.94872e-17
4.94849e-17
4.94849e-17
4.94872e-17
4.94919e-17
4.9499e-17
4.95084e-17
4.95201e-17
4.95342e-17
4.95506e-17
4.95693e-17
4.95903e-17
4.96134e-17
4.96386e-17
4.96658e-17
4.96947e-17
4.97253e-17
4.97571e-17
4.979e-17
4.98235e-17
4.98571e-17
4.98905e-17
4.9923e-17
4.99538e-17
4.9982e-17
5.0006e-17
5.00231e-17
5.00286e-17
5.00134e-17
4.9961e-17
4.98458e-17
4.996e-17
1.94302e-16
1.93971e-16
1.94381e-16
1.94566e-16
1.9462e-16
1.94601e-16
1.94542e-16
1.94458e-16
1.94359e-16
1.94252e-16
1.94138e-16
1.94022e-16
1.93904e-16
1.93787e-16
1.93673e-16
1.93562e-16
1.93455e-16
1.93354e-16
1.9326e-16
1.93172e-16
1.93091e-16
1.93018e-16
1.92953e-16
1.92896e-16
1.92846e-16
1.92805e-16
1.92773e-16
1.92748e-16
1.92732e-16
1.92724e-16
1.92724e-16
1.92732e-16
1.92748e-16
1.92773e-16
1.92805e-16
1.92846e-16
1.92896e-16
1.92953e-16
1.93018e-16
1.93091e-16
1.93172e-16
1.9326e-16
1.93354e-16
1.93455e-16
1.93562e-16
1.93673e-16
1.93787e-16
1.93904e-16
1.94022e-16
1.94138e-16
1.94252e-16
1.94359e-16
1.94458e-16
1.94542e-16
1.94601e-16
1.9462e-16
1.94566e-16
1.94381e-16
1.93971e-16
1.94302e-16
8.08681e-16
8.07925e-16
8.09445e-16
8.10138e-16
8.10349e-16
8.10295e-16
8.10092e-16
8.09802e-16
8.09461e-16
8.09087e-16
8.08693e-16
8.08288e-16
8.07879e-16
8.07474e-16
8.07076e-16
8.0669e-16
8.0632e-16
8.0597e-16
8.05641e-16
8.05336e-16
8.05056e-16
8.04803e-16
8.04577e-16
8.04378e-16
8.04208e-16
8.04066e-16
8.03953e-16
8.03867e-16
8.03811e-16
8.03782e-16
8.03782e-16
8.03811e-16
8.03867e-16
8.03953e-16
8.04066e-16
8.04208e-16
8.04378e-16
8.04577e-16
8.04803e-16
8.05056e-16
8.05336e-16
8.05641e-16
8.0597e-16
8.0632e-16
8.0669e-16
8.07076e-16
8.07474e-16
8.07879e-16
8.08288e-16
8.08693e-16
8.09087e-16
8.09461e-16
8.09802e-16
8.10092e-16
8.10295e-16
8.10349e-16
8.10138e-16
8.09445e-16
8.07925e-16
8.08681e-16
3.70552e-15
3.70563e-15
3.71189e-15
3.71481e-15
3.71581e-15
3.71575e-15
3.71512e-15
3.71415e-15
3.71299e-15
3.7117e-15
3.71035e-15
3.70896e-15
3.70755e-15
3.70616e-15
3.70479e-15
3.70347e-15
3.7022e-15
3.70099e-15
3.69986e-15
3.69882e-15
3.69786e-15
3.69699e-15
3.69621e-15
3.69553e-15
3.69495e-15
3.69446e-15
3.69407e-15
3.69378e-15
3.69359e-15
3.69349e-15
3.69349e-15
3.69359e-15
3.69378e-15
3.69407e-15
3.69446e-15
3.69495e-15
3.69553e-15
3.69621e-15
3.69699e-15
3.69786e-15
3.69882e-15
3.69986e-15
3.70099e-15
3.7022e-15
3.70347e-15
3.70479e-15
3.70616e-15
3.70755e-15
3.70896e-15
3.71035e-15
3.7117e-15
3.71299e-15
3.71415e-15
3.71512e-15
3.71575e-15
3.71581e-15
3.71481e-15
3.71189e-15
3.70563e-15
3.70552e-15
1.90739e-14
1.90951e-14
1.9126e-14
1.91411e-14
1.91472e-14
1.91484e-14
1.91469e-14
1.91439e-14
1.91402e-14
1.91359e-14
1.91314e-14
1.91267e-14
1.9122e-14
1.91173e-14
1.91127e-14
1.91083e-14
1.9104e-14
1.91e-14
1.90962e-14
1.90927e-14
1.90895e-14
1.90866e-14
1.9084e-14
1.90817e-14
1.90797e-14
1.90781e-14
1.90768e-14
1.90758e-14
1.90752e-14
1.90749e-14
1.90749e-14
1.90752e-14
1.90758e-14
1.90768e-14
1.90781e-14
1.90797e-14
1.90817e-14
1.9084e-14
1.90866e-14
1.90895e-14
1.90927e-14
1.90962e-14
1.91e-14
1.9104e-14
1.91083e-14
1.91127e-14
1.91173e-14
1.9122e-14
1.91267e-14
1.91314e-14
1.91359e-14
1.91402e-14
1.91439e-14
1.91469e-14
1.91484e-14
1.91472e-14
1.91411e-14
1.9126e-14
1.90951e-14
1.90739e-14
1.10193e-13
1.10432e-13
1.10621e-13
1.10719e-13
1.10764e-13
1.10781e-13
1.10783e-13
1.10776e-13
1.10766e-13
1.10753e-13
1.10739e-13
1.10724e-13
1.10709e-13
1.10694e-13
1.1068e-13
1.10666e-13
1.10652e-13
1.10639e-13
1.10627e-13
1.10616e-13
1.10606e-13
1.10597e-13
1.10589e-13
1.10581e-13
1.10575e-13
1.1057e-13
1.10566e-13
1.10563e-13
1.10561e-13
1.1056e-13
1.1056e-13
1.10561e-13
1.10563e-13
1.10566e-13
1.1057e-13
1.10575e-13
1.10581e-13
1.10589e-13
1.10597e-13
1.10606e-13
1.10616e-13
1.10627e-13
1.10639e-13
1.10652e-13
1.10666e-13
1.1068e-13
1.10694e-13
1.10709e-13
1.10724e-13
1.10739e-13
1.10753e-13
1.10766e-13
1.10776e-13
1.10783e-13
1.10781e-13
1.10764e-13
1.10719e-13
1.10621e-13
1.10432e-13
1.10193e-13
6.98904e-13
7.01082e-13
7.02454e-13
7.03191e-13
7.03562e-13
7.03733e-13
7.038e-13
7.03813e-13
7.03798e-13
7.03769e-13
7.03734e-13
7.03694e-13
7.03654e-13
7.03613e-13
7.03573e-13
7.03534e-13
7.03497e-13
7.03462e-13
7.03429e-13
7.03399e-13
7.03371e-13
7.03347e-13
7.03324e-13
7.03305e-13
7.03289e-13
7.03275e-13
7.03264e-13
7.03256e-13
7.03251e-13
7.03248e-13
7.03248e-13
7.03251e-13
7.03256e-13
7.03264e-13
7.03275e-13
7.03289e-13
7.03305e-13
7.03324e-13
7.03347e-13
7.03371e-13
7.03399e-13
7.03429e-13
7.03462e-13
7.03497e-13
7.03534e-13
7.03573e-13
7.03613e-13
7.03654e-13
7.03694e-13
7.03734e-13
7.03769e-13
7.03798e-13
7.03813e-13
7.038e-13
7.03733e-13
7.03562e-13
7.03191e-13
7.02454e-13
7.01082e-13
6.98904e-13
4.71828e-12
4.73674e-12
4.74756e-12
4.75351e-12
4.75662e-12
4.75818e-12
4.75893e-12
4.75926e-12
4.7594e-12
4.75943e-12
4.75941e-12
4.75937e-12
4.75931e-12
4.75925e-12
4.7592e-12
4.75914e-12
4.75908e-12
4.75903e-12
4.75899e-12
4.75894e-12
4.7589e-12
4.75887e-12
4.75884e-12
4.75882e-12
4.7588e-12
4.75878e-12
4.75877e-12
4.75876e-12
4.75875e-12
4.75875e-12
4.75875e-12
4.75875e-12
4.75876e-12
4.75877e-12
4.75878e-12
4.7588e-12
4.75882e-12
4.75884e-12
4.75887e-12
4.7589e-12
4.75894e-12
4.75899e-12
4.75903e-12
4.75908e-12
4.75914e-12
4.7592e-12
4.75925e-12
4.75931e-12
4.75937e-12
4.75941e-12
4.75943e-12
4.7594e-12
4.75926e-12
4.75893e-12
4.75818e-12
4.75662e-12
4.75351e-12
4.74756e-12
4.73674e-12
4.71828e-12
3.29388e-11
3.30897e-11
3.3177e-11
3.32256e-11
3.32514e-11
3.32648e-11
3.32716e-11
3.32752e-11
3.32771e-11
3.32783e-11
3.3279e-11
3.32796e-11
3.32801e-11
3.32805e-11
3.32809e-11
3.32812e-11
3.32816e-11
3.32819e-11
3.32822e-11
3.32826e-11
3.32828e-11
3.32831e-11
3.32834e-11
3.32836e-11
3.32838e-11
3.32839e-11
3.32841e-11
3.32842e-11
3.32842e-11
3.32843e-11
3.32843e-11
3.32842e-11
3.32842e-11
3.32841e-11
3.32839e-11
3.32838e-11
3.32836e-11
3.32834e-11
3.32831e-11
3.32828e-11
3.32826e-11
3.32822e-11
3.32819e-11
3.32816e-11
3.32812e-11
3.32809e-11
3.32805e-11
3.32801e-11
3.32796e-11
3.3279e-11
3.32783e-11
3.32771e-11
3.32752e-11
3.32716e-11
3.32648e-11
3.32514e-11
3.32256e-11
3.3177e-11
3.30897e-11
3.29388e-11
2.32317e-10
2.33512e-10
2.34209e-10
2.34598e-10
2.34807e-10
2.34916e-10
2.34974e-10
2.35005e-10
2.35023e-10
2.35035e-10
2.35044e-10
2.35051e-10
2.35057e-10
2.35063e-10
2.35069e-10
2.35074e-10
2.35079e-10
2.35084e-10
2.35089e-10
2.35093e-10
2.35097e-10
2.35101e-10
2.35104e-10
2.35107e-10
2.35109e-10
2.35111e-10
2.35113e-10
2.35114e-10
2.35115e-10
2.35116e-10
2.35116e-10
2.35115e-10
2.35114e-10
2.35113e-10
2.35111e-10
2.35109e-10
2.35107e-10
2.35104e-10
2.35101e-10
2.35097e-10
2.35093e-10
2.35089e-10
2.35084e-10
2.35079e-10
2.35074e-10
2.35069e-10
2.35063e-10
2.35057e-10
2.35051e-10
2.35044e-10
2.35035e-10
2.35023e-10
2.35005e-10
2.34974e-10
2.34916e-10
2.34807e-10
2.34598e-10
2.34209e-10
2.33512e-10
2.32317e-10
1.62452e-09
1.63365e-09
1.63903e-09
1.64205e-09
1.64367e-09
1.64453e-09
1.64498e-09
1.64523e-09
1.64538e-09
1.64548e-09
1.64555e-09
1.64561e-09
1.64567e-09
1.64572e-09
1.64577e-09
1.64581e-09
1.64586e-09
1.6459e-09
1.64594e-09
1.64598e-09
1.64601e-09
1.64604e-09
1.64607e-09
1.64609e-09
1.64611e-09
1.64613e-09
1.64615e-09
1.64616e-09
1.64616e-09
1.64617e-09
1.64617e-09
1.64616e-09
1.64616e-09
1.64615e-09
1.64613e-09
1.64611e-09
1.64609e-09
1.64607e-09
1.64604e-09
1.64601e-09
1.64598e-09
1.64594e-09
1.6459e-09
1.64586e-09
1.64581e-09
1.64577e-09
1.64572e-09
1.64567e-09
1.64561e-09
1.64555e-09
1.64548e-09
1.64538e-09
1.64523e-09
1.64498e-09
1.64453e-09
1.64367e-09
1.64205e-09
1.63903e-09
1.63365e-09
1.62452e-09
1.1079e-08
1.11457e-08
1.11853e-08
1.12075e-08
1.12195e-08
1.12259e-08
1.12292e-08
1.12311e-08
1.12322e-08
1.12329e-08
1.12335e-08
1.12339e-08
1.12343e-08
1.12347e-08
1.12351e-08
1.12354e-08
1.12357e-08
1.12361e-08
1.12363e-08
1.12366e-08
1.12369e-08
1.12371e-08
1.12373e-08
1.12375e-08
1.12376e-08
1.12378e-08
1.12379e-08
1.12379e-08
1.1238e-08
1.1238e-08
1.1238e-08
1.1238e-08
1.12379e-08
1.12379e-08
1.12378e-08
1.12376e-08
1.12375e-08
1.12373e-08
1.12371e-08
1.12369e-08
1.12366e-08
1.12363e-08
1.12361e-08
1.12357e-08
1.12354e-08
1.12351e-08
1.12347e-08
1.12343e-08
1.12339e-08
1.12335e-08
1.12329e-08
1.12322e-08
1.12311e-08
1.12292e-08
1.12259e-08
1.12195e-08
1.12075e-08
1.11853e-08
1.11457e-08
1.1079e-08
7.25529e-08
7.30114e-08
7.3286e-08
7.34406e-08
7.35237e-08
7.35676e-08
7.3591e-08
7.36039e-08
7.36116e-08
7.36167e-08
7.36204e-08
7.36236e-08
7.36263e-08
7.36289e-08
7.36313e-08
7.36335e-08
7.36357e-08
7.36377e-08
7.36396e-08
7.36414e-08
7.3643e-08
7.36445e-08
7.36459e-08
7.36471e-08
7.36481e-08
7.3649e-08
7.36496e-08
7.36502e-08
7.36505e-08
7.36507e-08
7.36507e-08
7.36505e-08
7.36502e-08
7.36496e-08
7.3649e-08
7.36481e-08
7.36471e-08
7.36459e-08
7.36445e-08
7.3643e-08
7.36414e-08
7.36396e-08
7.36377e-08
7.36357e-08
7.36335e-08
7.36313e-08
7.36289e-08
7.36263e-08
7.36236e-08
7.36204e-08
7.36167e-08
7.36116e-08
7.36039e-08
7.3591e-08
7.35676e-08
7.35237e-08
7.34406e-08
7.3286e-08
7.30114e-08
7.25529e-08
4.4924e-07
4.52172e-07
4.53938e-07
4.54931e-07
4.55466e-07
4.55748e-07
4.55898e-07
4.55981e-07
4.5603e-07
4.56062e-07
4.56086e-07
4.56105e-07
4.56123e-07
4.56138e-07
4.56153e-07
4.56167e-07
4.5618e-07
4.56192e-07
4.56204e-07
4.56215e-07
4.56225e-07
4.56234e-07
4.56242e-07
4.56249e-07
4.56255e-07
4.5626e-07
4.56265e-07
4.56268e-07
4.5627e-07
4.56271e-07
4.56271e-07
4.5627e-07
4.56268e-07
4.56265e-07
4.5626e-07
4.56255e-07
4.56249e-07
4.56242e-07
4.56234e-07
4.56225e-07
4.56215e-07
4.56204e-07
4.56192e-07
4.5618e-07
4.56167e-07
4.56153e-07
4.56138e-07
4.56123e-07
4.56105e-07
4.56086e-07
4.56062e-07
4.5603e-07
4.55981e-07
4.55898e-07
4.55748e-07
4.55466e-07
4.54931e-07
4.53938e-07
4.52172e-07
4.4924e-07
2.58919e-06
2.60636e-06
2.61673e-06
2.62256e-06
2.6257e-06
2.62735e-06
2.62823e-06
2.62872e-06
2.629e-06
2.62919e-06
2.62932e-06
2.62943e-06
2.62953e-06
2.62962e-06
2.6297e-06
2.62978e-06
2.62985e-06
2.62992e-06
2.62998e-06
2.63004e-06
2.6301e-06
2.63015e-06
2.63019e-06
2.63023e-06
2.63027e-06
2.6303e-06
2.63032e-06
2.63034e-06
2.63035e-06
2.63035e-06
2.63035e-06
2.63035e-06
2.63034e-06
2.63032e-06
2.6303e-06
2.63027e-06
2.63023e-06
2.63019e-06
2.63015e-06
2.6301e-06
2.63004e-06
2.62998e-06
2.62992e-06
2.62985e-06
2.62978e-06
2.6297e-06
2.62962e-06
2.62953e-06
2.62943e-06
2.62932e-06
2.62919e-06
2.629e-06
2.62872e-06
2.62823e-06
2.62735e-06
2.6257e-06
2.62256e-06
2.61673e-06
2.60636e-06
2.58919e-06
1.36695e-05
1.376e-05
1.38147e-05
1.38455e-05
1.3862e-05
1.38708e-05
1.38754e-05
1.38779e-05
1.38794e-05
1.38804e-05
1.38811e-05
1.38817e-05
1.38821e-05
1.38826e-05
1.3883e-05
1.38834e-05
1.38837e-05
1.38841e-05
1.38844e-05
1.38847e-05
1.3885e-05
1.38852e-05
1.38855e-05
1.38857e-05
1.38858e-05
1.3886e-05
1.38861e-05
1.38862e-05
1.38862e-05
1.38863e-05
1.38863e-05
1.38862e-05
1.38862e-05
1.38861e-05
1.3886e-05
1.38858e-05
1.38857e-05
1.38855e-05
1.38852e-05
1.3885e-05
1.38847e-05
1.38844e-05
1.38841e-05
1.38837e-05
1.38834e-05
1.3883e-05
1.38826e-05
1.38821e-05
1.38817e-05
1.38811e-05
1.38804e-05
1.38794e-05
1.38779e-05
1.38754e-05
1.38708e-05
1.3862e-05
1.38455e-05
1.38147e-05
1.376e-05
1.36695e-05
6.50274e-05
6.54494e-05
6.57044e-05
6.58476e-05
6.59246e-05
6.59653e-05
6.59869e-05
6.59987e-05
6.60056e-05
6.601e-05
6.60132e-05
6.60157e-05
6.60179e-05
6.60199e-05
6.60217e-05
6.60234e-05
6.6025e-05
6.60265e-05
6.6028e-05
6.60293e-05
6.60305e-05
6.60316e-05
6.60326e-05
6.60334e-05
6.60342e-05
6.60348e-05
6.60353e-05
6.60357e-05
6.60359e-05
6.60361e-05
6.60361e-05
6.60359e-05
6.60357e-05
6.60353e-05
6.60348e-05
6.60342e-05
6.60334e-05
6.60326e-05
6.60316e-05
6.60305e-05
6.60293e-05
6.6028e-05
6.60265e-05
6.6025e-05
6.60234e-05
6.60217e-05
6.60199e-05
6.60179e-05
6.60157e-05
6.60132e-05
6.601e-05
6.60056e-05
6.59987e-05
6.59869e-05
6.59653e-05
6.59246e-05
6.58476e-05
6.57044e-05
6.54494e-05
6.50274e-05
0.000274042
0.000275749
0.000276779
0.000277357
0.000277667
0.000277831
0.000277918
0.000277965
0.000277993
0.000278011
0.000278023
0.000278033
0.000278042
0.000278049
0.000278056
0.000278063
0.000278069
0.000278075
0.00027808
0.000278085
0.00027809
0.000278094
0.000278098
0.000278101
0.000278104
0.000278107
0.000278109
0.00027811
0.000278111
0.000278112
0.000278112
0.000278111
0.00027811
0.000278109
0.000278107
0.000278104
0.000278101
0.000278098
0.000278094
0.00027809
0.000278085
0.00027808
0.000278075
0.000278069
0.000278063
0.000278056
0.000278049
0.000278042
0.000278033
0.000278023
0.000278011
0.000277993
0.000277965
0.000277918
0.000277831
0.000277667
0.000277357
0.000276779
0.000275749
0.000274042
0.0010054
0.00101127
0.0010148
0.00101677
0.00101784
0.0010184
0.00101869
0.00101886
0.00101895
0.00101901
0.00101905
0.00101909
0.00101911
0.00101914
0.00101916
0.00101918
0.0010192
0.00101922
0.00101924
0.00101926
0.00101927
0.00101929
0.0010193
0.00101931
0.00101932
0.00101933
0.00101933
0.00101934
0.00101934
0.00101934
0.00101934
0.00101934
0.00101934
0.00101933
0.00101933
0.00101932
0.00101931
0.0010193
0.00101929
0.00101927
0.00101926
0.00101924
0.00101922
0.0010192
0.00101918
0.00101916
0.00101914
0.00101911
0.00101909
0.00101905
0.00101901
0.00101895
0.00101886
0.00101869
0.0010184
0.00101784
0.00101677
0.0010148
0.00101127
0.0010054
0.0031569
0.00317367
0.0031837
0.00318931
0.00319233
0.00319392
0.00319476
0.00319522
0.00319549
0.00319566
0.00319578
0.00319587
0.00319595
0.00319601
0.00319608
0.00319614
0.00319619
0.00319624
0.00319629
0.00319634
0.00319638
0.00319641
0.00319645
0.00319648
0.0031965
0.00319652
0.00319654
0.00319655
0.00319656
0.00319657
0.00319657
0.00319656
0.00319655
0.00319654
0.00319652
0.0031965
0.00319648
0.00319645
0.00319641
0.00319638
0.00319634
0.00319629
0.00319624
0.00319619
0.00319614
0.00319608
0.00319601
0.00319595
0.00319587
0.00319578
0.00319566
0.00319549
0.00319522
0.00319476
0.00319392
0.00319233
0.00318931
0.0031837
0.00317367
0.0031569
0.00836509
0.00840416
0.00842741
0.0084404
0.00844739
0.00845108
0.00845303
0.0084541
0.00845471
0.0084551
0.00845537
0.00845557
0.00845575
0.0084559
0.00845604
0.00845617
0.00845629
0.00845641
0.00845652
0.00845661
0.0084567
0.00845679
0.00845686
0.00845692
0.00845698
0.00845703
0.00845706
0.00845709
0.00845711
0.00845712
0.00845712
0.00845711
0.00845709
0.00845706
0.00845703
0.00845698
0.00845692
0.00845686
0.00845679
0.0084567
0.00845661
0.00845652
0.00845641
0.00845629
0.00845617
0.00845604
0.0084559
0.00845575
0.00845557
0.00845537
0.0084551
0.00845471
0.0084541
0.00845303
0.00845108
0.00844739
0.0084404
0.00842741
0.00840416
0.00836509
0.0185883
0.018662
0.0187056
0.01873
0.0187431
0.01875
0.0187537
0.0187557
0.0187568
0.0187575
0.018758
0.0187584
0.0187587
0.018759
0.0187593
0.0187595
0.0187597
0.0187599
0.0187601
0.0187603
0.0187604
0.0187606
0.0187607
0.0187608
0.0187609
0.018761
0.0187611
0.0187611
0.0187612
0.0187612
0.0187612
0.0187612
0.0187611
0.0187611
0.018761
0.0187609
0.0187608
0.0187607
0.0187606
0.0187604
0.0187603
0.0187601
0.0187599
0.0187597
0.0187595
0.0187593
0.018759
0.0187587
0.0187584
0.018758
0.0187575
0.0187568
0.0187557
0.0187537
0.01875
0.0187431
0.01873
0.0187056
0.018662
0.0185883
0.0348703
0.0349846
0.0350517
0.0350892
0.0351094
0.03512
0.0351257
0.0351288
0.0351306
0.0351316
0.0351324
0.035133
0.0351334
0.0351338
0.0351342
0.0351346
0.0351349
0.0351352
0.0351355
0.0351357
0.0351359
0.0351362
0.0351364
0.0351365
0.0351367
0.0351368
0.0351369
0.035137
0.035137
0.035137
0.035137
0.035137
0.035137
0.0351369
0.0351368
0.0351367
0.0351365
0.0351364
0.0351362
0.0351359
0.0351357
0.0351355
0.0351352
0.0351349
0.0351346
0.0351342
0.0351338
0.0351334
0.035133
0.0351324
0.0351316
0.0351306
0.0351288
0.0351257
0.03512
0.0351094
0.0350892
0.0350517
0.0349846
0.0348703
0.0563947
0.0565456
0.0566337
0.0566828
0.0567093
0.0567233
0.0567308
0.0567348
0.0567372
0.0567386
0.0567396
0.0567403
0.0567409
0.0567414
0.0567419
0.0567423
0.0567427
0.0567431
0.0567434
0.0567437
0.056744
0.0567443
0.0567445
0.0567447
0.0567449
0.056745
0.0567452
0.0567452
0.0567453
0.0567453
0.0567453
0.0567453
0.0567452
0.0567452
0.056745
0.0567449
0.0567447
0.0567445
0.0567443
0.056744
0.0567437
0.0567434
0.0567431
0.0567427
0.0567423
0.0567419
0.0567414
0.0567409
0.0567403
0.0567396
0.0567386
0.0567372
0.0567348
0.0567308
0.0567233
0.0567093
0.0566828
0.0566337
0.0565456
0.0563947
0.0810664
0.081245
0.0813488
0.0814067
0.0814379
0.0814545
0.0814633
0.0814681
0.0814708
0.0814725
0.0814736
0.0814745
0.0814752
0.0814757
0.0814763
0.0814767
0.0814772
0.0814776
0.081478
0.0814783
0.0814786
0.0814789
0.0814792
0.0814794
0.0814796
0.0814798
0.0814799
0.08148
0.0814801
0.0814801
0.0814801
0.0814801
0.08148
0.0814799
0.0814798
0.0814796
0.0814794
0.0814792
0.0814789
0.0814786
0.0814783
0.081478
0.0814776
0.0814772
0.0814767
0.0814763
0.0814757
0.0814752
0.0814745
0.0814736
0.0814725
0.0814708
0.0814681
0.0814633
0.0814545
0.0814379
0.0814067
0.0813488
0.081245
0.0810664
0.106919
0.107119
0.107234
0.107298
0.107333
0.107351
0.107361
0.107366
0.10737
0.107371
0.107373
0.107374
0.107374
0.107375
0.107375
0.107376
0.107376
0.107377
0.107377
0.107378
0.107378
0.107378
0.107378
0.107379
0.107379
0.107379
0.107379
0.107379
0.107379
0.107379
0.107379
0.107379
0.107379
0.107379
0.107379
0.107379
0.107379
0.107378
0.107378
0.107378
0.107378
0.107377
0.107377
0.107376
0.107376
0.107375
0.107375
0.107374
0.107374
0.107373
0.107371
0.10737
0.107366
0.107361
0.107351
0.107333
0.107298
0.107234
0.107119
0.106919
0.132855
0.13307
0.133195
0.133264
0.133302
0.133322
0.133333
0.133339
0.133342
0.133344
0.133346
0.133347
0.133347
0.133348
0.133349
0.133349
0.13335
0.13335
0.13335
0.133351
0.133351
0.133351
0.133352
0.133352
0.133352
0.133352
0.133352
0.133353
0.133353
0.133353
0.133353
0.133353
0.133353
0.133352
0.133352
0.133352
0.133352
0.133352
0.133351
0.133351
0.133351
0.13335
0.13335
0.13335
0.133349
0.133349
0.133348
0.133347
0.133347
0.133346
0.133344
0.133342
0.133339
0.133333
0.133322
0.133302
0.133264
0.133195
0.13307
0.132855
0.158496
0.158726
0.158859
0.158934
0.158975
0.158997
0.159008
0.159015
0.159018
0.15902
0.159022
0.159023
0.159024
0.159024
0.159025
0.159025
0.159026
0.159026
0.159027
0.159027
0.159027
0.159028
0.159028
0.159028
0.159028
0.159029
0.159029
0.159029
0.159029
0.159029
0.159029
0.159029
0.159029
0.159029
0.159029
0.159028
0.159028
0.159028
0.159028
0.159027
0.159027
0.159027
0.159026
0.159026
0.159025
0.159025
0.159024
0.159024
0.159023
0.159022
0.15902
0.159018
0.159015
0.159008
0.158997
0.158975
0.158934
0.158859
0.158726
0.158496
0.183796
0.184041
0.184182
0.184262
0.184306
0.184329
0.184342
0.184349
0.184353
0.184355
0.184356
0.184357
0.184358
0.184359
0.18436
0.18436
0.184361
0.184361
0.184361
0.184362
0.184362
0.184362
0.184363
0.184363
0.184363
0.184363
0.184363
0.184364
0.184364
0.184364
0.184364
0.184364
0.184364
0.184363
0.184363
0.184363
0.184363
0.184363
0.184362
0.184362
0.184362
0.184361
0.184361
0.184361
0.18436
0.18436
0.184359
0.184358
0.184357
0.184356
0.184355
0.184353
0.184349
0.184342
0.184329
0.184306
0.184262
0.184182
0.184041
0.183796
0.208789
0.209048
0.209198
0.209283
0.209329
0.209354
0.209368
0.209375
0.20938
0.209382
0.209384
0.209385
0.209386
0.209387
0.209387
0.209388
0.209388
0.209389
0.209389
0.209389
0.20939
0.20939
0.20939
0.20939
0.209391
0.209391
0.209391
0.209391
0.209391
0.209391
0.209391
0.209391
0.209391
0.209391
0.209391
0.209391
0.20939
0.20939
0.20939
0.20939
0.209389
0.209389
0.209389
0.209388
0.209388
0.209387
0.209387
0.209386
0.209385
0.209384
0.209382
0.20938
0.209375
0.209368
0.209354
0.209329
0.209283
0.209198
0.209048
0.208789
0.233501
0.233773
0.233932
0.234022
0.234071
0.234098
0.234113
0.234121
0.234126
0.234128
0.23413
0.234131
0.234132
0.234133
0.234133
0.234134
0.234134
0.234135
0.234135
0.234136
0.234136
0.234136
0.234136
0.234137
0.234137
0.234137
0.234137
0.234137
0.234137
0.234137
0.234137
0.234137
0.234137
0.234137
0.234137
0.234137
0.234137
0.234136
0.234136
0.234136
0.234136
0.234135
0.234135
0.234134
0.234134
0.234133
0.234133
0.234132
0.234131
0.23413
0.234128
0.234126
0.234121
0.234113
0.234098
0.234071
0.234022
0.233932
0.233773
0.233501
0.257938
0.258222
0.258388
0.258484
0.258536
0.258565
0.258581
0.25859
0.258595
0.258597
0.258599
0.258601
0.258601
0.258602
0.258603
0.258603
0.258604
0.258604
0.258605
0.258605
0.258605
0.258606
0.258606
0.258606
0.258606
0.258607
0.258607
0.258607
0.258607
0.258607
0.258607
0.258607
0.258607
0.258607
0.258607
0.258606
0.258606
0.258606
0.258606
0.258605
0.258605
0.258605
0.258604
0.258604
0.258603
0.258603
0.258602
0.258601
0.258601
0.258599
0.258597
0.258595
0.25859
0.258581
0.258565
0.258536
0.258484
0.258388
0.258222
0.257938
0.282089
0.282384
0.282559
0.282659
0.282715
0.282746
0.282763
0.282772
0.282777
0.28278
0.282782
0.282784
0.282785
0.282785
0.282786
0.282787
0.282787
0.282787
0.282788
0.282788
0.282789
0.282789
0.282789
0.282789
0.28279
0.28279
0.28279
0.28279
0.28279
0.28279
0.28279
0.28279
0.28279
0.28279
0.28279
0.28279
0.282789
0.282789
0.282789
0.282789
0.282788
0.282788
0.282787
0.282787
0.282787
0.282786
0.282785
0.282785
0.282784
0.282782
0.28278
0.282777
0.282772
0.282763
0.282746
0.282715
0.282659
0.282559
0.282384
0.282089
0.305939
0.306245
0.306427
0.306532
0.306591
0.306624
0.306642
0.306652
0.306657
0.306661
0.306663
0.306664
0.306665
0.306666
0.306667
0.306667
0.306668
0.306668
0.306668
0.306669
0.306669
0.306669
0.30667
0.30667
0.30667
0.30667
0.30667
0.30667
0.306671
0.306671
0.306671
0.306671
0.30667
0.30667
0.30667
0.30667
0.30667
0.30667
0.306669
0.306669
0.306669
0.306668
0.306668
0.306668
0.306667
0.306667
0.306666
0.306665
0.306664
0.306663
0.306661
0.306657
0.306652
0.306642
0.306624
0.306591
0.306532
0.306427
0.306245
0.305939
0.329468
0.329783
0.329972
0.330082
0.330145
0.330179
0.330199
0.330209
0.330215
0.330219
0.330221
0.330223
0.330224
0.330224
0.330225
0.330226
0.330226
0.330227
0.330227
0.330227
0.330228
0.330228
0.330228
0.330228
0.330229
0.330229
0.330229
0.330229
0.330229
0.330229
0.330229
0.330229
0.330229
0.330229
0.330229
0.330229
0.330228
0.330228
0.330228
0.330228
0.330227
0.330227
0.330227
0.330226
0.330226
0.330225
0.330224
0.330224
0.330223
0.330221
0.330219
0.330215
0.330209
0.330199
0.330179
0.330145
0.330082
0.329972
0.329783
0.329468
0.352656
0.35298
0.353176
0.353291
0.353356
0.353393
0.353413
0.353425
0.353431
0.353435
0.353438
0.353439
0.35344
0.353441
0.353442
0.353442
0.353443
0.353443
0.353443
0.353444
0.353444
0.353444
0.353445
0.353445
0.353445
0.353445
0.353445
0.353445
0.353446
0.353446
0.353446
0.353446
0.353445
0.353445
0.353445
0.353445
0.353445
0.353445
0.353444
0.353444
0.353444
0.353443
0.353443
0.353443
0.353442
0.353442
0.353441
0.35344
0.353439
0.353438
0.353435
0.353431
0.353425
0.353413
0.353393
0.353356
0.353291
0.353176
0.35298
0.352656
0.375484
0.375815
0.376018
0.376138
0.376206
0.376245
0.376267
0.376279
0.376286
0.37629
0.376293
0.376294
0.376295
0.376296
0.376297
0.376297
0.376298
0.376298
0.376299
0.376299
0.376299
0.376299
0.3763
0.3763
0.3763
0.3763
0.3763
0.376301
0.376301
0.376301
0.376301
0.376301
0.376301
0.3763
0.3763
0.3763
0.3763
0.3763
0.376299
0.376299
0.376299
0.376299
0.376298
0.376298
0.376297
0.376297
0.376296
0.376295
0.376294
0.376293
0.37629
0.376286
0.376279
0.376267
0.376245
0.376206
0.376138
0.376018
0.375815
0.375484
0.397933
0.398271
0.39848
0.398604
0.398676
0.398717
0.39874
0.398753
0.39876
0.398765
0.398767
0.398769
0.39877
0.398771
0.398772
0.398772
0.398773
0.398773
0.398774
0.398774
0.398774
0.398774
0.398775
0.398775
0.398775
0.398775
0.398775
0.398775
0.398775
0.398775
0.398775
0.398775
0.398775
0.398775
0.398775
0.398775
0.398775
0.398775
0.398774
0.398774
0.398774
0.398774
0.398773
0.398773
0.398772
0.398772
0.398771
0.39877
0.398769
0.398767
0.398765
0.39876
0.398753
0.39874
0.398717
0.398676
0.398604
0.39848
0.398271
0.397933
0.419986
0.42033
0.420545
0.420673
0.420748
0.420791
0.420815
0.420829
0.420837
0.420842
0.420845
0.420846
0.420848
0.420849
0.420849
0.42085
0.42085
0.420851
0.420851
0.420851
0.420852
0.420852
0.420852
0.420852
0.420852
0.420853
0.420853
0.420853
0.420853
0.420853
0.420853
0.420853
0.420853
0.420853
0.420853
0.420852
0.420852
0.420852
0.420852
0.420852
0.420851
0.420851
0.420851
0.42085
0.42085
0.420849
0.420849
0.420848
0.420846
0.420845
0.420842
0.420837
0.420829
0.420815
0.420791
0.420748
0.420673
0.420545
0.42033
0.419986
0.441627
0.441976
0.442196
0.442328
0.442406
0.442451
0.442477
0.442492
0.4425
0.442505
0.442508
0.44251
0.442511
0.442512
0.442513
0.442514
0.442514
0.442514
0.442515
0.442515
0.442515
0.442515
0.442516
0.442516
0.442516
0.442516
0.442516
0.442516
0.442516
0.442516
0.442516
0.442516
0.442516
0.442516
0.442516
0.442516
0.442516
0.442516
0.442515
0.442515
0.442515
0.442515
0.442514
0.442514
0.442514
0.442513
0.442512
0.442511
0.44251
0.442508
0.442505
0.4425
0.442492
0.442477
0.442451
0.442406
0.442328
0.442196
0.441976
0.441627
0.462841
0.463194
0.463418
0.463555
0.463636
0.463683
0.46371
0.463726
0.463735
0.46374
0.463743
0.463745
0.463747
0.463748
0.463748
0.463749
0.463749
0.46375
0.46375
0.46375
0.463751
0.463751
0.463751
0.463751
0.463751
0.463752
0.463752
0.463752
0.463752
0.463752
0.463752
0.463752
0.463752
0.463752
0.463752
0.463751
0.463751
0.463751
0.463751
0.463751
0.46375
0.46375
0.46375
0.463749
0.463749
0.463748
0.463748
0.463747
0.463745
0.463743
0.46374
0.463735
0.463726
0.46371
0.463683
0.463636
0.463555
0.463418
0.463194
0.462841
0.483615
0.483971
0.4842
0.48434
0.484424
0.484473
0.484502
0.484518
0.484528
0.484534
0.484537
0.484539
0.484541
0.484542
0.484542
0.484543
0.484543
0.484544
0.484544
0.484544
0.484545
0.484545
0.484545
0.484545
0.484545
0.484545
0.484546
0.484546
0.484546
0.484546
0.484546
0.484546
0.484546
0.484546
0.484545
0.484545
0.484545
0.484545
0.484545
0.484545
0.484544
0.484544
0.484544
0.484543
0.484543
0.484542
0.484542
0.484541
0.484539
0.484537
0.484534
0.484528
0.484518
0.484502
0.484473
0.484424
0.48434
0.4842
0.483971
0.483615
0.503937
0.504295
0.504528
0.504672
0.504759
0.50481
0.50484
0.504858
0.504868
0.504874
0.504878
0.50488
0.504882
0.504883
0.504883
0.504884
0.504884
0.504885
0.504885
0.504885
0.504885
0.504886
0.504886
0.504886
0.504886
0.504886
0.504886
0.504886
0.504886
0.504886
0.504886
0.504886
0.504886
0.504886
0.504886
0.504886
0.504886
0.504886
0.504886
0.504885
0.504885
0.504885
0.504885
0.504884
0.504884
0.504883
0.504883
0.504882
0.50488
0.504878
0.504874
0.504868
0.504858
0.50484
0.50481
0.504759
0.504672
0.504528
0.504295
0.503937
0.523797
0.524157
0.524393
0.524541
0.524631
0.524684
0.524716
0.524734
0.524745
0.524751
0.524755
0.524758
0.524759
0.52476
0.524761
0.524761
0.524762
0.524762
0.524762
0.524763
0.524763
0.524763
0.524763
0.524763
0.524764
0.524764
0.524764
0.524764
0.524764