/*--------------------------------*- C++ -*----------------------------------*\
| =========                 |                                                 |
| \\      /  F ield         | foam-extend: Open Source CFD                    |
|  \\    /   O peration     | Version:     4.0                                |
|   \\  /    A nd           | Web:         http://www.foam-extend.org         |
|    \\/     M anipulation  |                                                 |
\*---------------------------------------------------------------------------*/
FoamFile
{
    version     2.0;
    format      ascii;
    class       volScalarField;
    location    "2000";
    object      cPlus;
}
// * * * * * * * * * * * * * * * * * * * * * * * * * * * * * * * * * * * * * //

dimensions      [0 0 0 0 0 0 0];

internalField   nonuniform List<scalar> 
6960
(
0.194176
0.194093
0.194043
0.194017
0.194004
0.193997
0.193994
0.193993
0.193992
0.193991
0.193991
0.193991
0.193991
0.193991
0.193991
0.193991
0.193991
0.193991
0.193991
0.193991
0.193991
0.193991
0.193991
0.193991
0.193991
0.193991
0.193991
0.193991
0.193991
0.193991
0.193991
0.193991
0.193991
0.193991
0.193991
0.193991
0.193991
0.193991
0.193991
0.193991
0.193991
0.193991
0.193991
0.193991
0.193991
0.193991
0.193991
0.193991
0.193991
0.193991
0.193991
0.193992
0.193993
0.193994
0.193997
0.194004
0.194017
0.194043
0.194093
0.194176
0.0474365
0.0474185
0.0474065
0.0474002
0.047397
0.0473955
0.0473947
0.0473943
0.0473941
0.0473941
0.047394
0.047394
0.047394
0.047394
0.047394
0.047394
0.0473941
0.0473941
0.0473941
0.0473941
0.0473941
0.0473941
0.0473941
0.0473942
0.0473942
0.0473942
0.0473942
0.0473942
0.0473942
0.0473942
0.0473942
0.0473942
0.0473942
0.0473942
0.0473942
0.0473942
0.0473942
0.0473941
0.0473941
0.0473941
0.0473941
0.0473941
0.0473941
0.0473941
0.047394
0.047394
0.047394
0.047394
0.047394
0.047394
0.0473941
0.0473941
0.0473943
0.0473947
0.0473955
0.047397
0.0474002
0.0474065
0.0474185
0.0474365
0.0259326
0.0259382
0.0259402
0.0259411
0.0259415
0.0259417
0.0259418
0.0259419
0.0259419
0.0259419
0.025942
0.025942
0.025942
0.025942
0.0259421
0.0259421
0.0259421
0.0259421
0.0259421
0.0259422
0.0259422
0.0259422
0.0259422
0.0259422
0.0259422
0.0259422
0.0259422
0.0259422
0.0259422
0.0259422
0.0259422
0.0259422
0.0259422
0.0259422
0.0259422
0.0259422
0.0259422
0.0259422
0.0259422
0.0259422
0.0259422
0.0259421
0.0259421
0.0259421
0.0259421
0.0259421
0.025942
0.025942
0.025942
0.025942
0.0259419
0.0259419
0.0259419
0.0259418
0.0259417
0.0259415
0.0259411
0.0259402
0.0259382
0.0259326
0.0229541
0.0229659
0.0229715
0.0229743
0.0229757
0.0229764
0.0229767
0.0229769
0.022977
0.022977
0.0229771
0.0229771
0.0229772
0.0229772
0.0229772
0.0229772
0.0229773
0.0229773
0.0229773
0.0229773
0.0229773
0.0229773
0.0229773
0.0229774
0.0229774
0.0229774
0.0229774
0.0229774
0.0229774
0.0229774
0.0229774
0.0229774
0.0229774
0.0229774
0.0229774
0.0229774
0.0229774
0.0229773
0.0229773
0.0229773
0.0229773
0.0229773
0.0229773
0.0229773
0.0229772
0.0229772
0.0229772
0.0229772
0.0229771
0.0229771
0.022977
0.022977
0.0229769
0.0229767
0.0229764
0.0229757
0.0229743
0.0229715
0.0229659
0.0229541
0.0228551
0.0228685
0.0228751
0.0228784
0.02288
0.0228807
0.0228811
0.0228814
0.0228815
0.0228816
0.0228816
0.0228816
0.0228817
0.0228817
0.0228817
0.0228818
0.0228818
0.0228818
0.0228818
0.0228818
0.0228818
0.0228819
0.0228819
0.0228819
0.0228819
0.0228819
0.0228819
0.0228819
0.0228819
0.0228819
0.0228819
0.0228819
0.0228819
0.0228819
0.0228819
0.0228819
0.0228819
0.0228819
0.0228819
0.0228818
0.0228818
0.0228818
0.0228818
0.0228818
0.0228818
0.0228817
0.0228817
0.0228817
0.0228816
0.0228816
0.0228816
0.0228815
0.0228814
0.0228811
0.0228807
0.02288
0.0228784
0.0228751
0.0228685
0.0228551
0.0232206
0.0232347
0.0232417
0.0232451
0.0232468
0.0232476
0.0232481
0.0232483
0.0232484
0.0232485
0.0232485
0.0232486
0.0232486
0.0232487
0.0232487
0.0232487
0.0232487
0.0232487
0.0232488
0.0232488
0.0232488
0.0232488
0.0232488
0.0232488
0.0232488
0.0232488
0.0232488
0.0232489
0.0232489
0.0232489
0.0232489
0.0232489
0.0232489
0.0232488
0.0232488
0.0232488
0.0232488
0.0232488
0.0232488
0.0232488
0.0232488
0.0232488
0.0232487
0.0232487
0.0232487
0.0232487
0.0232487
0.0232486
0.0232486
0.0232485
0.0232485
0.0232484
0.0232483
0.0232481
0.0232476
0.0232468
0.0232451
0.0232417
0.0232347
0.0232206
0.023691
0.0237057
0.0237129
0.0237165
0.0237182
0.0237191
0.0237195
0.0237198
0.0237199
0.02372
0.0237201
0.0237201
0.0237201
0.0237202
0.0237202
0.0237202
0.0237202
0.0237203
0.0237203
0.0237203
0.0237203
0.0237203
0.0237203
0.0237204
0.0237204
0.0237204
0.0237204
0.0237204
0.0237204
0.0237204
0.0237204
0.0237204
0.0237204
0.0237204
0.0237204
0.0237204
0.0237204
0.0237203
0.0237203
0.0237203
0.0237203
0.0237203
0.0237203
0.0237202
0.0237202
0.0237202
0.0237202
0.0237201
0.0237201
0.0237201
0.02372
0.0237199
0.0237198
0.0237195
0.0237191
0.0237182
0.0237165
0.0237129
0.0237057
0.023691
0.0242196
0.0242348
0.0242423
0.024246
0.0242479
0.0242488
0.0242492
0.0242494
0.0242496
0.0242497
0.0242497
0.0242498
0.0242498
0.0242499
0.0242499
0.0242499
0.0242499
0.02425
0.02425
0.02425
0.02425
0.02425
0.02425
0.02425
0.0242501
0.0242501
0.0242501
0.0242501
0.0242501
0.0242501
0.0242501
0.0242501
0.0242501
0.0242501
0.0242501
0.0242501
0.02425
0.02425
0.02425
0.02425
0.02425
0.02425
0.02425
0.0242499
0.0242499
0.0242499
0.0242499
0.0242498
0.0242498
0.0242497
0.0242497
0.0242496
0.0242494
0.0242492
0.0242488
0.0242479
0.024246
0.0242423
0.0242348
0.0242196
0.0248065
0.0248224
0.0248302
0.0248341
0.024836
0.024837
0.0248374
0.0248377
0.0248378
0.0248379
0.024838
0.024838
0.0248381
0.0248381
0.0248382
0.0248382
0.0248382
0.0248382
0.0248382
0.0248383
0.0248383
0.0248383
0.0248383
0.0248383
0.0248383
0.0248383
0.0248383
0.0248383
0.0248384
0.0248384
0.0248384
0.0248384
0.0248383
0.0248383
0.0248383
0.0248383
0.0248383
0.0248383
0.0248383
0.0248383
0.0248383
0.0248382
0.0248382
0.0248382
0.0248382
0.0248382
0.0248381
0.0248381
0.024838
0.024838
0.0248379
0.0248378
0.0248377
0.0248374
0.024837
0.024836
0.0248341
0.0248302
0.0248224
0.0248065
0.0254605
0.0254771
0.0254853
0.0254894
0.0254914
0.0254924
0.0254929
0.0254931
0.0254933
0.0254934
0.0254935
0.0254935
0.0254935
0.0254936
0.0254936
0.0254936
0.0254937
0.0254937
0.0254937
0.0254937
0.0254938
0.0254938
0.0254938
0.0254938
0.0254938
0.0254938
0.0254938
0.0254938
0.0254938
0.0254938
0.0254938
0.0254938
0.0254938
0.0254938
0.0254938
0.0254938
0.0254938
0.0254938
0.0254938
0.0254938
0.0254937
0.0254937
0.0254937
0.0254937
0.0254936
0.0254936
0.0254936
0.0254935
0.0254935
0.0254935
0.0254934
0.0254933
0.0254931
0.0254929
0.0254924
0.0254914
0.0254894
0.0254853
0.0254771
0.0254605
0.0261934
0.0262108
0.0262194
0.0262237
0.0262258
0.0262269
0.0262274
0.0262277
0.0262278
0.0262279
0.026228
0.0262281
0.0262281
0.0262281
0.0262282
0.0262282
0.0262282
0.0262283
0.0262283
0.0262283
0.0262283
0.0262283
0.0262284
0.0262284
0.0262284
0.0262284
0.0262284
0.0262284
0.0262284
0.0262284
0.0262284
0.0262284
0.0262284
0.0262284
0.0262284
0.0262284
0.0262284
0.0262284
0.0262283
0.0262283
0.0262283
0.0262283
0.0262283
0.0262282
0.0262282
0.0262282
0.0262281
0.0262281
0.0262281
0.026228
0.0262279
0.0262278
0.0262277
0.0262274
0.0262269
0.0262258
0.0262237
0.0262194
0.0262108
0.0261934
0.0270202
0.0270387
0.0270478
0.0270523
0.0270545
0.0270556
0.0270562
0.0270565
0.0270566
0.0270568
0.0270568
0.0270569
0.0270569
0.027057
0.027057
0.0270571
0.0270571
0.0270571
0.0270571
0.0270572
0.0270572
0.0270572
0.0270572
0.0270572
0.0270572
0.0270572
0.0270572
0.0270573
0.0270573
0.0270573
0.0270573
0.0270573
0.0270573
0.0270572
0.0270572
0.0270572
0.0270572
0.0270572
0.0270572
0.0270572
0.0270572
0.0270571
0.0270571
0.0270571
0.0270571
0.027057
0.027057
0.0270569
0.0270569
0.0270568
0.0270568
0.0270566
0.0270565
0.0270562
0.0270556
0.0270545
0.0270523
0.0270478
0.0270387
0.0270202
0.0279606
0.0279802
0.0279899
0.0279947
0.027997
0.0279982
0.0279988
0.0279991
0.0279993
0.0279994
0.0279995
0.0279996
0.0279996
0.0279997
0.0279997
0.0279997
0.0279998
0.0279998
0.0279998
0.0279998
0.0279999
0.0279999
0.0279999
0.0279999
0.0279999
0.0279999
0.0279999
0.028
0.028
0.028
0.028
0.028
0.028
0.0279999
0.0279999
0.0279999
0.0279999
0.0279999
0.0279999
0.0279999
0.0279998
0.0279998
0.0279998
0.0279998
0.0279997
0.0279997
0.0279997
0.0279996
0.0279996
0.0279995
0.0279994
0.0279993
0.0279991
0.0279988
0.0279982
0.027997
0.0279947
0.0279899
0.0279802
0.0279606
0.0290399
0.0290609
0.0290712
0.0290764
0.0290789
0.0290802
0.0290808
0.0290812
0.0290814
0.0290815
0.0290816
0.0290816
0.0290817
0.0290818
0.0290818
0.0290818
0.0290819
0.0290819
0.0290819
0.029082
0.029082
0.029082
0.029082
0.029082
0.029082
0.0290821
0.0290821
0.0290821
0.0290821
0.0290821
0.0290821
0.0290821
0.0290821
0.0290821
0.0290821
0.029082
0.029082
0.029082
0.029082
0.029082
0.029082
0.0290819
0.0290819
0.0290819
0.0290818
0.0290818
0.0290818
0.0290817
0.0290816
0.0290816
0.0290815
0.0290814
0.0290812
0.0290808
0.0290802
0.0290789
0.0290764
0.0290712
0.0290609
0.0290399
0.0302921
0.0303148
0.030326
0.0303316
0.0303343
0.0303357
0.0303364
0.0303368
0.030337
0.0303371
0.0303372
0.0303373
0.0303374
0.0303374
0.0303375
0.0303375
0.0303375
0.0303376
0.0303376
0.0303376
0.0303377
0.0303377
0.0303377
0.0303377
0.0303377
0.0303377
0.0303377
0.0303378
0.0303378
0.0303378
0.0303378
0.0303378
0.0303378
0.0303377
0.0303377
0.0303377
0.0303377
0.0303377
0.0303377
0.0303377
0.0303376
0.0303376
0.0303376
0.0303375
0.0303375
0.0303375
0.0303374
0.0303374
0.0303373
0.0303372
0.0303371
0.030337
0.0303368
0.0303364
0.0303357
0.0303343
0.0303316
0.030326
0.0303148
0.0302921
0.0317639
0.0317886
0.0318009
0.031807
0.03181
0.0318114
0.0318122
0.0318126
0.0318129
0.031813
0.0318131
0.0318132
0.0318133
0.0318133
0.0318134
0.0318134
0.0318135
0.0318135
0.0318135
0.0318136
0.0318136
0.0318136
0.0318136
0.0318137
0.0318137
0.0318137
0.0318137
0.0318137
0.0318137
0.0318137
0.0318137
0.0318137
0.0318137
0.0318137
0.0318137
0.0318137
0.0318137
0.0318136
0.0318136
0.0318136
0.0318136
0.0318135
0.0318135
0.0318135
0.0318134
0.0318134
0.0318133
0.0318133
0.0318132
0.0318131
0.031813
0.0318129
0.0318126
0.0318122
0.0318114
0.03181
0.031807
0.0318009
0.0317886
0.0317639
0.0335204
0.0335477
0.0335613
0.0335681
0.0335714
0.0335731
0.0335739
0.0335744
0.0335746
0.0335748
0.0335749
0.033575
0.0335751
0.0335752
0.0335752
0.0335753
0.0335753
0.0335754
0.0335754
0.0335754
0.0335755
0.0335755
0.0335755
0.0335755
0.0335756
0.0335756
0.0335756
0.0335756
0.0335756
0.0335756
0.0335756
0.0335756
0.0335756
0.0335756
0.0335756
0.0335756
0.0335755
0.0335755
0.0335755
0.0335755
0.0335754
0.0335754
0.0335754
0.0335753
0.0335753
0.0335752
0.0335752
0.0335751
0.033575
0.0335749
0.0335748
0.0335746
0.0335744
0.0335739
0.0335731
0.0335714
0.0335681
0.0335613
0.0335477
0.0335204
0.0356563
0.0356871
0.0357024
0.03571
0.0357138
0.0357157
0.0357166
0.0357171
0.0357174
0.0357176
0.0357178
0.0357179
0.035718
0.035718
0.0357181
0.0357182
0.0357182
0.0357183
0.0357183
0.0357184
0.0357184
0.0357184
0.0357185
0.0357185
0.0357185
0.0357185
0.0357185
0.0357185
0.0357185
0.0357186
0.0357186
0.0357185
0.0357185
0.0357185
0.0357185
0.0357185
0.0357185
0.0357185
0.0357184
0.0357184
0.0357184
0.0357183
0.0357183
0.0357182
0.0357182
0.0357181
0.035718
0.035718
0.0357179
0.0357178
0.0357176
0.0357174
0.0357171
0.0357166
0.0357157
0.0357138
0.03571
0.0357024
0.0356871
0.0356563
0.038313
0.0383484
0.0383661
0.0383749
0.0383792
0.0383814
0.0383825
0.0383831
0.0383834
0.0383837
0.0383838
0.038384
0.0383841
0.0383842
0.0383842
0.0383843
0.0383844
0.0383844
0.0383845
0.0383845
0.0383846
0.0383846
0.0383846
0.0383847
0.0383847
0.0383847
0.0383847
0.0383848
0.0383848
0.0383848
0.0383848
0.0383848
0.0383848
0.0383847
0.0383847
0.0383847
0.0383847
0.0383846
0.0383846
0.0383846
0.0383845
0.0383845
0.0383844
0.0383844
0.0383843
0.0383842
0.0383842
0.0383841
0.038384
0.0383838
0.0383837
0.0383834
0.0383831
0.0383825
0.0383814
0.0383792
0.0383749
0.0383661
0.0383484
0.038313
0.0417071
0.0417489
0.0417698
0.0417803
0.0417854
0.041788
0.0417893
0.04179
0.0417904
0.0417907
0.0417909
0.041791
0.0417912
0.0417913
0.0417914
0.0417915
0.0417915
0.0417916
0.0417917
0.0417917
0.0417918
0.0417918
0.0417919
0.0417919
0.0417919
0.041792
0.041792
0.041792
0.041792
0.041792
0.041792
0.041792
0.041792
0.041792
0.041792
0.0417919
0.0417919
0.0417919
0.0417918
0.0417918
0.0417917
0.0417917
0.0417916
0.0417915
0.0417915
0.0417914
0.0417913
0.0417912
0.041791
0.0417909
0.0417907
0.0417904
0.04179
0.0417893
0.041788
0.0417854
0.0417803
0.0417698
0.0417489
0.0417071
0.0461707
0.0462217
0.0462472
0.04626
0.0462664
0.0462695
0.0462711
0.046272
0.0462725
0.0462728
0.0462731
0.0462733
0.0462734
0.0462736
0.0462737
0.0462738
0.0462739
0.046274
0.0462741
0.0462742
0.0462742
0.0462743
0.0462743
0.0462744
0.0462744
0.0462744
0.0462745
0.0462745
0.0462745
0.0462745
0.0462745
0.0462745
0.0462745
0.0462745
0.0462744
0.0462744
0.0462744
0.0462743
0.0462743
0.0462742
0.0462742
0.0462741
0.046274
0.0462739
0.0462738
0.0462737
0.0462736
0.0462734
0.0462733
0.0462731
0.0462728
0.0462725
0.046272
0.0462711
0.0462695
0.0462664
0.04626
0.0462472
0.0462217
0.0461707
0.0521941
0.0522582
0.0522905
0.0523067
0.0523147
0.0523187
0.0523208
0.0523219
0.0523225
0.052323
0.0523233
0.0523235
0.0523237
0.0523239
0.052324
0.0523242
0.0523243
0.0523244
0.0523245
0.0523246
0.0523247
0.0523248
0.0523249
0.0523249
0.052325
0.052325
0.052325
0.0523251
0.0523251
0.0523251
0.0523251
0.0523251
0.0523251
0.052325
0.052325
0.052325
0.0523249
0.0523249
0.0523248
0.0523247
0.0523246
0.0523245
0.0523244
0.0523243
0.0523242
0.052324
0.0523239
0.0523237
0.0523235
0.0523233
0.052323
0.0523225
0.0523219
0.0523208
0.0523187
0.0523147
0.0523067
0.0522905
0.0522582
0.0521941
0.0604298
0.0605123
0.0605541
0.0605751
0.0605855
0.0605906
0.0605933
0.0605947
0.0605956
0.0605962
0.0605966
0.0605969
0.0605971
0.0605974
0.0605976
0.0605978
0.0605979
0.0605981
0.0605982
0.0605984
0.0605985
0.0605986
0.0605987
0.0605987
0.0605988
0.0605988
0.0605989
0.0605989
0.0605989
0.060599
0.060599
0.0605989
0.0605989
0.0605989
0.0605988
0.0605988
0.0605987
0.0605987
0.0605986
0.0605985
0.0605984
0.0605982
0.0605981
0.0605979
0.0605978
0.0605976
0.0605974
0.0605971
0.0605969
0.0605966
0.0605962
0.0605956
0.0605947
0.0605933
0.0605906
0.0605855
0.0605751
0.0605541
0.0605123
0.0604298
0.0715921
0.0716988
0.071753
0.0717802
0.0717937
0.0718005
0.071804
0.0718058
0.071807
0.0718077
0.0718082
0.0718086
0.071809
0.0718093
0.0718095
0.0718098
0.07181
0.0718102
0.0718104
0.0718105
0.0718107
0.0718108
0.0718109
0.071811
0.0718111
0.0718112
0.0718112
0.0718113
0.0718113
0.0718113
0.0718113
0.0718113
0.0718113
0.0718112
0.0718112
0.0718111
0.071811
0.0718109
0.0718108
0.0718107
0.0718105
0.0718104
0.0718102
0.07181
0.0718098
0.0718095
0.0718093
0.071809
0.0718086
0.0718082
0.0718077
0.071807
0.0718058
0.071804
0.0718005
0.0717937
0.0717802
0.071753
0.0716988
0.0715921
0.086219
0.0863544
0.0864235
0.0864582
0.0864755
0.0864842
0.0864886
0.086491
0.0864924
0.0864934
0.086494
0.0864945
0.086495
0.0864954
0.0864957
0.086496
0.0864963
0.0864965
0.0864967
0.0864969
0.0864971
0.0864973
0.0864974
0.0864975
0.0864976
0.0864977
0.0864978
0.0864979
0.0864979
0.0864979
0.0864979
0.0864979
0.0864979
0.0864978
0.0864977
0.0864976
0.0864975
0.0864974
0.0864973
0.0864971
0.0864969
0.0864967
0.0864965
0.0864963
0.086496
0.0864957
0.0864954
0.086495
0.0864945
0.086494
0.0864934
0.0864924
0.086491
0.0864886
0.0864842
0.0864755
0.0864582
0.0864235
0.0863544
0.086219
0.104401
0.104567
0.104652
0.104695
0.104716
0.104727
0.104732
0.104735
0.104737
0.104738
0.104739
0.104739
0.10474
0.10474
0.104741
0.104741
0.104742
0.104742
0.104742
0.104742
0.104743
0.104743
0.104743
0.104743
0.104743
0.104743
0.104743
0.104743
0.104743
0.104743
0.104743
0.104743
0.104743
0.104743
0.104743
0.104743
0.104743
0.104743
0.104743
0.104743
0.104742
0.104742
0.104742
0.104742
0.104741
0.104741
0.10474
0.10474
0.104739
0.104739
0.104738
0.104737
0.104735
0.104732
0.104727
0.104716
0.104695
0.104652
0.104567
0.104401
0.125686
0.125882
0.125982
0.126032
0.126058
0.12607
0.126077
0.12608
0.126083
0.126084
0.126085
0.126086
0.126086
0.126087
0.126087
0.126087
0.126088
0.126088
0.126088
0.126089
0.126089
0.126089
0.126089
0.12609
0.12609
0.12609
0.12609
0.12609
0.12609
0.12609
0.12609
0.12609
0.12609
0.12609
0.12609
0.12609
0.12609
0.126089
0.126089
0.126089
0.126089
0.126088
0.126088
0.126088
0.126087
0.126087
0.126087
0.126086
0.126086
0.126085
0.126084
0.126083
0.12608
0.126077
0.12607
0.126058
0.126032
0.125982
0.125882
0.125686
0.149262
0.149484
0.149598
0.149656
0.149685
0.149699
0.149707
0.149711
0.149713
0.149715
0.149716
0.149716
0.149717
0.149718
0.149718
0.149719
0.149719
0.149719
0.14972
0.14972
0.14972
0.14972
0.149721
0.149721
0.149721
0.149721
0.149721
0.149721
0.149721
0.149721
0.149721
0.149721
0.149721
0.149721
0.149721
0.149721
0.149721
0.149721
0.14972
0.14972
0.14972
0.14972
0.149719
0.149719
0.149719
0.149718
0.149718
0.149717
0.149716
0.149716
0.149715
0.149713
0.149711
0.149707
0.149699
0.149685
0.149656
0.149598
0.149484
0.149262
0.174267
0.174511
0.174637
0.174701
0.174733
0.17475
0.174758
0.174763
0.174765
0.174767
0.174768
0.174769
0.17477
0.17477
0.174771
0.174771
0.174772
0.174772
0.174772
0.174773
0.174773
0.174773
0.174773
0.174774
0.174774
0.174774
0.174774
0.174774
0.174774
0.174774
0.174774
0.174774
0.174774
0.174774
0.174774
0.174774
0.174774
0.174773
0.174773
0.174773
0.174773
0.174772
0.174772
0.174772
0.174771
0.174771
0.17477
0.17477
0.174769
0.174768
0.174767
0.174765
0.174763
0.174758
0.17475
0.174733
0.174701
0.174637
0.174511
0.174267
0.200009
0.200272
0.200409
0.200479
0.200514
0.200532
0.200541
0.200546
0.200549
0.200551
0.200552
0.200553
0.200553
0.200554
0.200555
0.200555
0.200556
0.200556
0.200556
0.200557
0.200557
0.200557
0.200557
0.200558
0.200558
0.200558
0.200558
0.200558
0.200558
0.200558
0.200558
0.200558
0.200558
0.200558
0.200558
0.200558
0.200558
0.200557
0.200557
0.200557
0.200557
0.200556
0.200556
0.200556
0.200555
0.200555
0.200554
0.200553
0.200553
0.200552
0.200551
0.200549
0.200546
0.200541
0.200532
0.200514
0.200479
0.200409
0.200272
0.200009
0.226023
0.226304
0.22645
0.226525
0.226563
0.226582
0.226592
0.226598
0.226601
0.226603
0.226604
0.226605
0.226606
0.226607
0.226607
0.226608
0.226608
0.226608
0.226609
0.226609
0.226609
0.22661
0.22661
0.22661
0.22661
0.22661
0.22661
0.226611
0.226611
0.226611
0.226611
0.226611
0.226611
0.22661
0.22661
0.22661
0.22661
0.22661
0.22661
0.226609
0.226609
0.226609
0.226608
0.226608
0.226608
0.226607
0.226607
0.226606
0.226605
0.226604
0.226603
0.226601
0.226598
0.226592
0.226582
0.226563
0.226525
0.22645
0.226304
0.226023
0.252028
0.252324
0.252479
0.252559
0.2526
0.252621
0.252631
0.252637
0.252641
0.252643
0.252644
0.252645
0.252646
0.252647
0.252647
0.252648
0.252648
0.252648
0.252649
0.252649
0.252649
0.25265
0.25265
0.25265
0.25265
0.25265
0.25265
0.252651
0.252651
0.252651
0.252651
0.252651
0.252651
0.25265
0.25265
0.25265
0.25265
0.25265
0.25265
0.252649
0.252649
0.252649
0.252648
0.252648
0.252648
0.252647
0.252647
0.252646
0.252645
0.252644
0.252643
0.252641
0.252637
0.252631
0.252621
0.2526
0.252559
0.252479
0.252324
0.252028
0.277856
0.278164
0.278328
0.278413
0.278457
0.278479
0.278491
0.278497
0.278501
0.278503
0.278504
0.278505
0.278506
0.278507
0.278507
0.278508
0.278508
0.278509
0.278509
0.278509
0.27851
0.27851
0.27851
0.27851
0.278511
0.278511
0.278511
0.278511
0.278511
0.278511
0.278511
0.278511
0.278511
0.278511
0.278511
0.278511
0.27851
0.27851
0.27851
0.27851
0.278509
0.278509
0.278509
0.278508
0.278508
0.278507
0.278507
0.278506
0.278505
0.278504
0.278503
0.278501
0.278497
0.278491
0.278479
0.278457
0.278413
0.278328
0.278164
0.277856
0.303402
0.303723
0.303894
0.303984
0.30403
0.304054
0.304067
0.304074
0.304077
0.30408
0.304081
0.304082
0.304083
0.304084
0.304085
0.304085
0.304085
0.304086
0.304086
0.304087
0.304087
0.304087
0.304087
0.304087
0.304088
0.304088
0.304088
0.304088
0.304088
0.304088
0.304088
0.304088
0.304088
0.304088
0.304088
0.304088
0.304087
0.304087
0.304087
0.304087
0.304087
0.304086
0.304086
0.304085
0.304085
0.304085
0.304084
0.304083
0.304082
0.304081
0.30408
0.304077
0.304074
0.304067
0.304054
0.30403
0.303984
0.303894
0.303723
0.303402
0.328598
0.328929
0.329108
0.329202
0.329251
0.329277
0.32929
0.329298
0.329302
0.329304
0.329306
0.329307
0.329308
0.329309
0.329309
0.32931
0.32931
0.329311
0.329311
0.329311
0.329312
0.329312
0.329312
0.329312
0.329312
0.329312
0.329313
0.329313
0.329313
0.329313
0.329313
0.329313
0.329313
0.329313
0.329312
0.329312
0.329312
0.329312
0.329312
0.329312
0.329311
0.329311
0.329311
0.32931
0.32931
0.329309
0.329309
0.329308
0.329307
0.329306
0.329304
0.329302
0.329298
0.32929
0.329277
0.329251
0.329202
0.329108
0.328929
0.328598
0.353393
0.353734
0.35392
0.354019
0.35407
0.354097
0.354112
0.35412
0.354124
0.354127
0.354128
0.35413
0.35413
0.354131
0.354132
0.354132
0.354133
0.354133
0.354133
0.354134
0.354134
0.354134
0.354134
0.354135
0.354135
0.354135
0.354135
0.354135
0.354135
0.354135
0.354135
0.354135
0.354135
0.354135
0.354135
0.354135
0.354135
0.354134
0.354134
0.354134
0.354134
0.354133
0.354133
0.354133
0.354132
0.354132
0.354131
0.35413
0.35413
0.354128
0.354127
0.354124
0.35412
0.354112
0.354097
0.35407
0.354019
0.35392
0.353734
0.353393
0.377749
0.378098
0.378291
0.378394
0.378449
0.378477
0.378493
0.378501
0.378506
0.378509
0.37851
0.378512
0.378513
0.378513
0.378514
0.378514
0.378515
0.378515
0.378516
0.378516
0.378516
0.378516
0.378517
0.378517
0.378517
0.378517
0.378517
0.378517
0.378517
0.378517
0.378517
0.378517
0.378517
0.378517
0.378517
0.378517
0.378517
0.378517
0.378516
0.378516
0.378516
0.378516
0.378515
0.378515
0.378514
0.378514
0.378513
0.378513
0.378512
0.37851
0.378509
0.378506
0.378501
0.378493
0.378477
0.378449
0.378394
0.378291
0.378098
0.377749
0.401637
0.401992
0.402191
0.402299
0.402356
0.402387
0.402403
0.402412
0.402417
0.40242
0.402422
0.402423
0.402424
0.402425
0.402425
0.402426
0.402426
0.402427
0.402427
0.402427
0.402427
0.402428
0.402428
0.402428
0.402428
0.402428
0.402428
0.402428
0.402429
0.402429
0.402429
0.402429
0.402428
0.402428
0.402428
0.402428
0.402428
0.402428
0.402428
0.402427
0.402427
0.402427
0.402427
0.402426
0.402426
0.402425
0.402425
0.402424
0.402423
0.402422
0.40242
0.402417
0.402412
0.402403
0.402387
0.402356
0.402299
0.402191
0.401992
0.401637
0.42503
0.425392
0.425596
0.425708
0.425768
0.4258
0.425817
0.425827
0.425832
0.425835
0.425837
0.425839
0.42584
0.42584
0.425841
0.425842
0.425842
0.425842
0.425843
0.425843
0.425843
0.425843
0.425844
0.425844
0.425844
0.425844
0.425844
0.425844
0.425844
0.425844
0.425844
0.425844
0.425844
0.425844
0.425844
0.425844
0.425844
0.425844
0.425843
0.425843
0.425843
0.425843
0.425842
0.425842
0.425842
0.425841
0.42584
0.42584
0.425839
0.425837
0.425835
0.425832
0.425827
0.425817
0.4258
0.425768
0.425708
0.425596
0.425392
0.42503
0.447909
0.448276
0.448486
0.448601
0.448664
0.448698
0.448716
0.448726
0.448732
0.448735
0.448737
0.448739
0.44874
0.44874
0.448741
0.448742
0.448742
0.448742
0.448743
0.448743
0.448743
0.448743
0.448744
0.448744
0.448744
0.448744
0.448744
0.448744
0.448744
0.448744
0.448744
0.448744
0.448744
0.448744
0.448744
0.448744
0.448744
0.448744
0.448743
0.448743
0.448743
0.448743
0.448742
0.448742
0.448742
0.448741
0.44874
0.44874
0.448739
0.448737
0.448735
0.448732
0.448726
0.448716
0.448698
0.448664
0.448601
0.448486
0.448276
0.447909
0.470257
0.470628
0.470842
0.470962
0.471027
0.471063
0.471082
0.471092
0.471099
0.471102
0.471104
0.471106
0.471107
0.471108
0.471108
0.471109
0.471109
0.47111
0.47111
0.47111
0.471111
0.471111
0.471111
0.471111
0.471111
0.471111
0.471111
0.471112
0.471112
0.471112
0.471112
0.471112
0.471112
0.471111
0.471111
0.471111
0.471111
0.471111
0.471111
0.471111
0.47111
0.47111
0.47111
0.471109
0.471109
0.471108
0.471108
0.471107
0.471106
0.471104
0.471102
0.471099
0.471092
0.471082
0.471063
0.471027
0.470962
0.470842
0.470628
0.470257
0.49206
0.492434
0.492653
0.492776
0.492844
0.492881
0.492901
0.492913
0.492919
0.492923
0.492925
0.492927
0.492928
0.492929
0.49293
0.49293
0.492931
0.492931
0.492931
0.492931
0.492932
0.492932
0.492932
0.492932
0.492932
0.492933
0.492933
0.492933
0.492933
0.492933
0.492933
0.492933
0.492933
0.492933
0.492933
0.492932
0.492932
0.492932
0.492932
0.492932
0.492931
0.492931
0.492931
0.492931
0.49293
0.49293
0.492929
0.492928
0.492927
0.492925
0.492923
0.492919
0.492913
0.492901
0.492881
0.492844
0.492776
0.492653
0.492434
0.49206
0.513307
0.513683
0.513906
0.514033
0.514103
0.514142
0.514164
0.514176
0.514183
0.514187
0.514189
0.514191
0.514192
0.514193
0.514194
0.514194
0.514194
0.514195
0.514195
0.514195
0.514196
0.514196
0.514196
0.514196
0.514196
0.514196
0.514197
0.514197
0.514197
0.514197
0.514197
0.514197
0.514197
0.514197
0.514196
0.514196
0.514196
0.514196
0.514196
0.514196
0.514195
0.514195
0.514195
0.514194
0.514194
0.514194
0.514193
0.514192
0.514191
0.514189
0.514187
0.514183
0.514176
0.514164
0.514142
0.514103
0.514033
0.513906
0.513683
0.513307
0.533991
0.534368
0.534594
0.534724
0.534797
0.534838
0.53486
0.534873
0.53488
0.534885
0.534887
0.534889
0.53489
0.534891
0.534892
0.534892
0.534893
0.534893
0.534893
0.534894
0.534894
0.534894
0.534894
0.534894
0.534894
0.534895
0.534895
0.534895
0.534895
0.534895
0.534895
0.534895
0.534895
0.534895
0.534895
0.534894
0.534894
0.534894
0.534894
0.534894
0.534894
0.534893
0.534893
0.534893
0.534892
0.534892
0.534891
0.53489
0.534889
0.534887
0.534885
0.53488
0.534873
0.53486
0.534838
0.534797
0.534724
0.534594
0.534368
0.533991
0.554104
0.554481
0.55471
0.554843
0.554918
0.554961
0.554985
0.554998
0.555006
0.55501
0.555013
0.555015
0.555016
0.555017
0.555018
0.555018
0.555019
0.555019
0.555019
0.55502
0.55502
0.55502
0.55502
0.55502
0.555021
0.555021
0.555021
0.555021
0.555021
0.555021
0.555021
0.555021
0.555021
0.555021
0.555021
0.555021
0.55502
0.55502
0.55502
0.55502
0.55502
0.555019
0.555019
0.555019
0.555018
0.555018
0.555017
0.555016
0.555015
0.555013
0.55501
0.555006
0.554998
0.554985
0.554961
0.554918
0.554843
0.55471
0.554481
0.554104
0.573641
0.574018
0.574249
0.574385
0.574463
0.574507
0.574532
0.574547
0.574555
0.57456
0.574563
0.574565
0.574566
0.574567
0.574568
0.574568
0.574568
0.574569
0.574569
0.574569
0.57457
0.57457
0.57457
0.57457
0.57457
0.57457
0.57457
0.57457
0.57457
0.57457
0.57457
0.57457
0.57457
0.57457
0.57457
0.57457
0.57457
0.57457
0.57457
0.57457
0.574569
0.574569
0.574569
0.574568
0.574568
0.574568
0.574567
0.574566
0.574565
0.574563
0.57456
0.574555
0.574547
0.574532
0.574507
0.574463
0.574385
0.574249
0.574018
0.573641
0.592602
0.592977
0.59321
0.593349
0.593429
0.593475
0.593501
0.593516
0.593525
0.59353
0.593533
0.593535
0.593537
0.593538
0.593538
0.593539
0.593539
0.59354
0.59354
0.59354
0.59354
0.59354
0.593541
0.593541
0.593541
0.593541
0.593541
0.593541
0.593541
0.593541
0.593541
0.593541
0.593541
0.593541
0.593541
0.593541
0.593541
0.593541
0.59354
0.59354
0.59354
0.59354
0.59354
0.593539
0.593539
0.593538
0.593538
0.593537
0.593535
0.593533
0.59353
0.593525
0.593516
0.593501
0.593475
0.593429
0.593349
0.59321
0.592977
0.592602
0.610984
0.611357
0.611591
0.611732
0.611815
0.611863
0.61189
0.611906
0.611915
0.61192
0.611924
0.611926
0.611927
0.611928
0.611929
0.61193
0.61193
0.61193
0.611931
0.611931
0.611931
0.611931
0.611931
0.611932
0.611932
0.611932
0.611932
0.611932
0.611932
0.611932
0.611932
0.611932
0.611932
0.611932
0.611932
0.611932
0.611932
0.611931
0.611931
0.611931
0.611931
0.611931
0.61193
0.61193
0.61193
0.611929
0.611928
0.611927
0.611926
0.611924
0.61192
0.611915
0.611906
0.61189
0.611863
0.611815
0.611732
0.611591
0.611357
0.610984
0.628788
0.629158
0.629394
0.629537
0.629622
0.629671
0.629699
0.629716
0.629726
0.629732
0.629735
0.629738
0.629739
0.62974
0.629741
0.629741
0.629742
0.629742
0.629742
0.629743
0.629743
0.629743
0.629743
0.629743
0.629743
0.629744
0.629744
0.629744
0.629744
0.629744
0.629744
0.629744
0.629744
0.629744
0.629744
0.629743
0.629743
0.629743
0.629743
0.629743
0.629743
0.629742
0.629742
0.629742
0.629741
0.629741
0.62974
0.629739
0.629738
0.629735
0.629732
0.629726
0.629716
0.629699
0.629671
0.629622
0.629537
0.629394
0.629158
0.628788
0.646017
0.646384
0.64662
0.646765
0.646851
0.646902
0.646932
0.64695
0.64696
0.646966
0.64697
0.646972
0.646974
0.646975
0.646976
0.646976
0.646977
0.646977
0.646977
0.646978
0.646978
0.646978
0.646978
0.646978
0.646978
0.646978
0.646979
0.646979
0.646979
0.646979
0.646979
0.646979
0.646979
0.646979
0.646978
0.646978
0.646978
0.646978
0.646978
0.646978
0.646978
0.646977
0.646977
0.646977
0.646976
0.646976
0.646975
0.646974
0.646972
0.64697
0.646966
0.64696
0.64695
0.646932
0.646902
0.646851
0.646765
0.64662
0.646384
0.646017
0.662674
0.663036
0.663272
0.663419
0.663508
0.66356
0.663591
0.66361
0.66362
0.663627
0.663631
0.663634
0.663635
0.663636
0.663637
0.663638
0.663638
0.663639
0.663639
0.663639
0.663639
0.663639
0.66364
0.66364
0.66364
0.66364
0.66364
0.66364
0.66364
0.66364
0.66364
0.66364
0.66364
0.66364
0.66364
0.66364
0.66364
0.66364
0.663639
0.663639
0.663639
0.663639
0.663639
0.663638
0.663638
0.663637
0.663636
0.663635
0.663634
0.663631
0.663627
0.66362
0.66361
0.663591
0.66356
0.663508
0.663419
0.663272
0.663036
0.662674
0.678763
0.679121
0.679357
0.679505
0.679595
0.679649
0.679681
0.679701
0.679712
0.679719
0.679723
0.679726
0.679728
0.679729
0.67973
0.679731
0.679731
0.679731
0.679732
0.679732
0.679732
0.679732
0.679732
0.679732
0.679733
0.679733
0.679733
0.679733
0.679733
0.679733
0.679733
0.679733
0.679733
0.679733
0.679733
0.679733
0.679732
0.679732
0.679732
0.679732
0.679732
0.679732
0.679731
0.679731
0.679731
0.67973
0.679729
0.679728
0.679726
0.679723
0.679719
0.679712
0.679701
0.679681
0.679649
0.679595
0.679505
0.679357
0.679121
0.678763
0.694291
0.694644
0.694878
0.695028
0.69512