/*--------------------------------*- C++ -*----------------------------------*\
| =========                 |                                                 |
| \\      /  F ield         | foam-extend: Open Source CFD                    |
|  \\    /   O peration     | Version:     4.0                                |
|   \\  /    A nd           | Web:         http://www.foam-extend.org         |
|    \\/     M anipulation  |                                                 |
\*---------------------------------------------------------------------------*/
FoamFile
{
    version     2.0;
    format      ascii;
    class       volScalarField;
    location    "5";
    object      p;
}
// * * * * * * * * * * * * * * * * * * * * * * * * * * * * * * * * * * * * * //

dimensions      [0 2 -2 0 0 0 0];

internalField   nonuniform List<scalar> 
6960
(
1.38756e-12
-7.65405e-08
-7.71579e-08
-7.7992e-08
-7.88093e-08
-7.9268e-08
-7.9169e-08
-7.87802e-08
-7.81696e-08
-7.75282e-08
-7.70114e-08
-7.67185e-08
-7.66922e-08
-7.68874e-08
-7.7235e-08
-7.76191e-08
-7.79511e-08
-7.81517e-08
-7.81969e-08
-7.80934e-08
-7.78901e-08
-7.76485e-08
-7.74353e-08
-7.72999e-08
-7.7268e-08
-7.73366e-08
-7.74777e-08
-7.76479e-08
-7.78e-08
-7.78946e-08
-7.79089e-08
-7.78409e-08
-7.7708e-08
-7.75423e-08
-7.73814e-08
-7.72619e-08
-7.72085e-08
-7.72347e-08
-7.73333e-08
-7.74903e-08
-7.76703e-08
-7.78491e-08
-7.79801e-08
-7.80543e-08
-7.80293e-08
-7.79339e-08
-7.77354e-08
-7.75156e-08
-7.72405e-08
-7.70441e-08
-7.68586e-08
-7.68481e-08
-7.68602e-08
-7.70623e-08
-7.71837e-08
-7.74044e-08
-7.74149e-08
-7.74246e-08
-7.73736e-08
-7.73488e-08
-9.84499e-08
-7.71663e-08
-7.70198e-08
-7.71755e-08
-7.74069e-08
-7.76491e-08
-7.7743e-08
-7.77977e-08
-7.77567e-08
-7.76654e-08
-7.75489e-08
-7.74395e-08
-7.73674e-08
-7.73366e-08
-7.73556e-08
-7.7404e-08
-7.74722e-08
-7.75352e-08
-7.75833e-08
-7.76045e-08
-7.76013e-08
-7.75776e-08
-7.75448e-08
-7.75132e-08
-7.74919e-08
-7.74856e-08
-7.74939e-08
-7.75124e-08
-7.75338e-08
-7.75505e-08
-7.75565e-08
-7.75495e-08
-7.75307e-08
-7.75057e-08
-7.74806e-08
-7.74641e-08
-7.74596e-08
-7.74714e-08
-7.74942e-08
-7.75262e-08
-7.75537e-08
-7.75762e-08
-7.75774e-08
-7.75682e-08
-7.75348e-08
-7.75046e-08
-7.7462e-08
-7.74463e-08
-7.74286e-08
-7.74512e-08
-7.7461e-08
-7.75014e-08
-7.74971e-08
-7.75057e-08
-7.74498e-08
-7.74094e-08
-7.73526e-08
-7.73171e-08
-7.73538e-08
-7.73869e-08
-1.39872e-07
-7.80193e-08
-7.74234e-08
-7.70518e-08
-7.66661e-08
-7.65782e-08
-7.66697e-08
-7.69375e-08
-7.72606e-08
-7.7579e-08
-7.78085e-08
-7.79105e-08
-7.78851e-08
-7.77525e-08
-7.75681e-08
-7.73775e-08
-7.7234e-08
-7.71608e-08
-7.71702e-08
-7.72461e-08
-7.73636e-08
-7.74873e-08
-7.75873e-08
-7.76413e-08
-7.76419e-08
-7.7595e-08
-7.75177e-08
-7.74334e-08
-7.73644e-08
-7.73283e-08
-7.73329e-08
-7.73762e-08
-7.74465e-08
-7.75276e-08
-7.75997e-08
-7.76481e-08
-7.76603e-08
-7.76358e-08
-7.75751e-08
-7.74937e-08
-7.73999e-08
-7.73182e-08
-7.72544e-08
-7.72324e-08
-7.72459e-08
-7.73104e-08
-7.74028e-08
-7.75251e-08
-7.76413e-08
-7.77418e-08
-7.77955e-08
-7.77936e-08
-7.77375e-08
-7.76333e-08
-7.7532e-08
-7.74386e-08
-7.74302e-08
-7.74391e-08
-7.74762e-08
-7.74543e-08
-8.94684e-08
-7.80048e-08
-7.7629e-08
-7.73744e-08
-7.704e-08
-7.69308e-08
-7.69296e-08
-7.7069e-08
-7.72613e-08
-7.74754e-08
-7.76479e-08
-7.77447e-08
-7.77599e-08
-7.76965e-08
-7.75904e-08
-7.74673e-08
-7.73669e-08
-7.73056e-08
-7.72976e-08
-7.73346e-08
-7.74035e-08
-7.74813e-08
-7.75481e-08
-7.75878e-08
-7.75935e-08
-7.75677e-08
-7.75205e-08
-7.74673e-08
-7.74233e-08
-7.74008e-08
-7.74056e-08
-7.74368e-08
-7.7486e-08
-7.75417e-08
-7.75891e-08
-7.76178e-08
-7.76181e-08
-7.75914e-08
-7.75383e-08
-7.7474e-08
-7.74042e-08
-7.73516e-08
-7.73164e-08
-7.73195e-08
-7.73457e-08
-7.74092e-08
-7.74774e-08
-7.75593e-08
-7.76143e-08
-7.76538e-08
-7.76469e-08
-7.76159e-08
-7.75545e-08
-7.74946e-08
-7.74513e-08
-7.74415e-08
-7.74732e-08
-7.75068e-08
-7.75148e-08
-7.74556e-08
-6.51294e-08
-7.77426e-08
-7.75279e-08
-7.74409e-08
-7.72953e-08
-7.72756e-08
-7.72597e-08
-7.73198e-08
-7.73903e-08
-7.74747e-08
-7.75432e-08
-7.75822e-08
-7.75927e-08
-7.757e-08
-7.75333e-08
-7.74868e-08
-7.74506e-08
-7.74271e-08
-7.74252e-08
-7.74395e-08
-7.74669e-08
-7.74975e-08
-7.75243e-08
-7.75406e-08
-7.75436e-08
-7.75342e-08
-7.75161e-08
-7.74953e-08
-7.74778e-08
-7.74685e-08
-7.74698e-08
-7.74817e-08
-7.75007e-08
-7.75229e-08
-7.75417e-08
-7.75536e-08
-7.75532e-08
-7.75425e-08
-7.7519e-08
-7.74918e-08
-7.7459e-08
-7.74356e-08
-7.74149e-08
-7.7415e-08
-7.74189e-08
-7.74467e-08
-7.74687e-08
-7.75074e-08
-7.75238e-08
-7.75463e-08
-7.75349e-08
-7.75268e-08
-7.74894e-08
-7.74679e-08
-7.74373e-08
-7.7436e-08
-7.74439e-08
-7.74541e-08
-7.74663e-08
-7.74312e-08
-7.13716e-08
-7.76528e-08
-7.74743e-08
-7.74533e-08
-7.73806e-08
-7.73992e-08
-7.73838e-08
-7.74191e-08
-7.7447e-08
-7.74835e-08
-7.75117e-08
-7.75262e-08
-7.75314e-08
-7.75209e-08
-7.75081e-08
-7.74896e-08
-7.7478e-08
-7.74701e-08
-7.74724e-08
-7.748e-08
-7.74933e-08
-7.75068e-08
-7.75184e-08
-7.75251e-08
-7.75262e-08
-7.75219e-08
-7.75141e-08
-7.75054e-08
-7.74981e-08
-7.74944e-08
-7.74951e-08
-7.75005e-08
-7.75086e-08
-7.75182e-08
-7.75258e-08
-7.75308e-08
-7.75295e-08
-7.75243e-08
-7.75119e-08
-7.74989e-08
-7.74808e-08
-7.74692e-08
-7.7455e-08
-7.74547e-08
-7.74509e-08
-7.74653e-08
-7.74698e-08
-7.74919e-08
-7.74934e-08
-7.75092e-08
-7.74957e-08
-7.74966e-08
-7.74677e-08
-7.74612e-08
-7.74338e-08
-7.74365e-08
-7.74331e-08
-7.7436e-08
-7.74483e-08
-7.74239e-08
-7.54697e-08
-7.7619e-08
-7.74463e-08
-7.74504e-08
-7.74051e-08
-7.74395e-08
-7.7427e-08
-7.74559e-08
-7.74702e-08
-7.74903e-08
-7.75037e-08
-7.75084e-08
-7.75104e-08
-7.75028e-08
-7.74975e-08
-7.74884e-08
-7.74855e-08
-7.74838e-08
-7.74884e-08
-7.74946e-08
-7.75035e-08
-7.75115e-08
-7.75179e-08
-7.75212e-08
-7.75212e-08
-7.75184e-08
-7.75138e-08
-7.7509e-08
-7.75052e-08
-7.75035e-08
-7.75042e-08
-7.75074e-08
-7.7512e-08
-7.75174e-08
-7.75213e-08
-7.75241e-08
-7.75228e-08
-7.75197e-08
-7.75113e-08
-7.75034e-08
-7.74902e-08
-7.74825e-08
-7.74701e-08
-7.74691e-08
-7.74622e-08
-7.74717e-08
-7.74703e-08
-7.74871e-08
-7.74846e-08
-7.74993e-08
-7.74865e-08
-7.74912e-08
-7.74653e-08
-7.7463e-08
-7.7435e-08
-7.74366e-08
-7.74277e-08
-7.74269e-08
-7.74411e-08
-7.74218e-08
-7.68515e-08
-7.7609e-08
-7.74354e-08
-7.74465e-08
-7.74082e-08
-7.7447e-08
-7.74363e-08
-7.74647e-08
-7.74766e-08
-7.74933e-08
-7.75033e-08
-7.75054e-08
-7.75061e-08
-7.74987e-08
-7.74947e-08
-7.74875e-08
-7.74866e-08
-7.74864e-08
-7.74917e-08
-7.74978e-08
-7.75061e-08
-7.75129e-08
-7.75183e-08
-7.75208e-08
-7.75205e-08
-7.7518e-08
-7.75141e-08
-7.75101e-08
-7.7507e-08
-7.75058e-08
-7.75063e-08
-7.7509e-08
-7.75127e-08
-7.7517e-08
-7.75202e-08
-7.75225e-08
-7.75213e-08
-7.75189e-08
-7.75117e-08
-7.75052e-08
-7.74935e-08
-7.74867e-08
-7.74746e-08
-7.74731e-08
-7.7465e-08
-7.74729e-08
-7.74698e-08
-7.74853e-08
-7.74821e-08
-7.74972e-08
-7.74854e-08
-7.74919e-08
-7.74673e-08
-7.7466e-08
-7.74371e-08
-7.74371e-08
-7.74256e-08
-7.74227e-08
-7.74381e-08
-7.74216e-08
-7.72038e-08
-7.76074e-08
-7.74322e-08
-7.74447e-08
-7.74063e-08
-7.74452e-08
-7.74351e-08
-7.74642e-08
-7.74767e-08
-7.7494e-08
-7.75042e-08
-7.75065e-08
-7.75071e-08
-7.74993e-08
-7.7495e-08
-7.74875e-08
-7.74863e-08
-7.74859e-08
-7.74912e-08
-7.74974e-08
-7.75058e-08
-7.75129e-08
-7.75185e-08
-7.75211e-08
-7.75211e-08
-7.75186e-08
-7.75147e-08
-7.75107e-08
-7.75074e-08
-7.7506e-08
-7.75064e-08
-7.75089e-08
-7.75123e-08
-7.75166e-08
-7.75198e-08
-7.75222e-08
-7.75212e-08
-7.75191e-08
-7.75123e-08
-7.75061e-08
-7.74946e-08
-7.74879e-08
-7.74757e-08
-7.74739e-08
-7.74652e-08
-7.74725e-08
-7.74688e-08
-7.7484e-08
-7.7481e-08
-7.74967e-08
-7.74859e-08
-7.74935e-08
-7.74698e-08
-7.74689e-08
-7.74393e-08
-7.7438e-08
-7.74248e-08
-7.74204e-08
-7.74366e-08
-7.74219e-08
-7.72967e-08
-7.76087e-08
-7.74324e-08
-7.74447e-08
-7.7404e-08
-7.74412e-08
-7.74309e-08
-7.74605e-08
-7.74743e-08
-7.74931e-08
-7.75049e-08
-7.75082e-08
-7.75093e-08
-7.75015e-08
-7.74966e-08
-7.74882e-08
-7.74861e-08
-7.7485e-08
-7.74898e-08
-7.7496e-08
-7.75046e-08
-7.75122e-08
-7.75184e-08
-7.75215e-08
-7.75218e-08
-7.75195e-08
-7.75155e-08
-7.75111e-08
-7.75075e-08
-7.75057e-08
-7.75058e-08
-7.75081e-08
-7.75116e-08
-7.75161e-08
-7.75194e-08
-7.75222e-08
-7.75214e-08
-7.75197e-08
-7.75129e-08
-7.75069e-08
-7.74953e-08
-7.74885e-08
-7.74759e-08
-7.74737e-08
-7.74646e-08
-7.74714e-08
-7.74674e-08
-7.74826e-08
-7.74798e-08
-7.74963e-08
-7.74864e-08
-7.74951e-08
-7.74722e-08
-7.74717e-08
-7.74417e-08
-7.74393e-08
-7.74246e-08
-7.74188e-08
-7.74354e-08
-7.74222e-08
-7.73375e-08
-7.76114e-08
-7.74345e-08
-7.74461e-08
-7.74022e-08
-7.74371e-08
-7.74259e-08
-7.74557e-08
-7.74707e-08
-7.74913e-08
-7.75049e-08
-7.75098e-08
-7.75118e-08
-7.75042e-08
-7.74987e-08
-7.74894e-08
-7.74862e-08
-7.7484e-08
-7.74882e-08
-7.74941e-08
-7.7503e-08
-7.75111e-08
-7.7518e-08
-7.75218e-08
-7.75226e-08
-7.75205e-08
-7.75164e-08
-7.75118e-08
-7.75077e-08
-7.75054e-08
-7.75051e-08
-7.75072e-08
-7.75107e-08
-7.75153e-08
-7.7519e-08
-7.75221e-08
-7.75218e-08
-7.75203e-08
-7.75138e-08
-7.75078e-08
-7.74961e-08
-7.7489e-08
-7.74761e-08
-7.74734e-08
-7.74638e-08
-7.74701e-08
-7.74657e-08
-7.74809e-08
-7.74784e-08
-7.74955e-08
-7.74866e-08
-7.74966e-08
-7.74746e-08
-7.74747e-08
-7.74443e-08
-7.7441e-08
-7.74247e-08
-7.74174e-08
-7.74343e-08
-7.74224e-08
-7.73546e-08
-7.76148e-08
-7.74378e-08
-7.74487e-08
-7.74012e-08
-7.74332e-08
-7.74207e-08
-7.74503e-08
-7.74663e-08
-7.74887e-08
-7.75044e-08
-7.75111e-08
-7.75143e-08
-7.75071e-08
-7.75013e-08
-7.7491e-08
-7.74866e-08
-7.74833e-08
-7.74866e-08
-7.74921e-08
-7.75011e-08
-7.75097e-08
-7.75173e-08
-7.75219e-08
-7.75233e-08
-7.75215e-08
-7.75174e-08
-7.75125e-08
-7.7508e-08
-7.75051e-08
-7.75044e-08
-7.75062e-08
-7.75097e-08
-7.75144e-08
-7.75185e-08
-7.7522e-08
-7.75221e-08
-7.7521e-08
-7.75147e-08
-7.75088e-08
-7.74971e-08
-7.74898e-08
-7.74764e-08
-7.74732e-08
-7.74628e-08
-7.74686e-08
-7.74637e-08
-7.74787e-08
-7.74765e-08
-7.74944e-08
-7.74866e-08
-7.74979e-08
-7.7477e-08
-7.74779e-08
-7.74473e-08
-7.74431e-08
-7.7425e-08
-7.74161e-08
-7.74332e-08
-7.74226e-08
-7.73588e-08
-7.76188e-08
-7.74422e-08
-7.74523e-08
-7.7401e-08
-7.74298e-08
-7.74156e-08
-7.74445e-08
-7.74613e-08
-7.74854e-08
-7.75032e-08
-7.75119e-08
-7.75166e-08
-7.75101e-08
-7.75041e-08
-7.7493e-08
-7.74874e-08
-7.74828e-08
-7.74851e-08
-7.74901e-08
-7.7499e-08
-7.7508e-08
-7.75164e-08
-7.75218e-08
-7.75239e-08
-7.75226e-08
-7.75186e-08
-7.75134e-08
-7.75084e-08
-7.7505e-08
-7.75037e-08
-7.75052e-08
-7.75085e-08
-7.75134e-08
-7.75177e-08
-7.75217e-08
-7.75223e-08
-7.75217e-08
-7.75158e-08
-7.75101e-08
-7.74983e-08
-7.74907e-08
-7.74769e-08
-7.7473e-08
-7.74619e-08
-7.74669e-08
-7.74615e-08
-7.74762e-08
-7.74741e-08
-7.74928e-08
-7.74862e-08
-7.7499e-08
-7.74795e-08
-7.74814e-08
-7.74506e-08
-7.74456e-08
-7.74257e-08
-7.7415e-08
-7.74321e-08
-7.74227e-08
-7.73602e-08
-7.76233e-08
-7.74475e-08
-7.74568e-08
-7.74017e-08
-7.7427e-08
-7.74105e-08
-7.74384e-08
-7.74557e-08
-7.74813e-08
-7.75014e-08
-7.75124e-08
-7.75188e-08
-7.75132e-08
-7.75072e-08
-7.74953e-08
-7.74885e-08
-7.74825e-08
-7.74837e-08
-7.7488e-08
-7.74968e-08
-7.75062e-08
-7.75152e-08
-7.75216e-08
-7.75245e-08
-7.75237e-08
-7.75199e-08
-7.75145e-08
-7.7509e-08
-7.7505e-08
-7.75031e-08
-7.75041e-08
-7.75071e-08
-7.75121e-08
-7.75168e-08
-7.75213e-08
-7.75225e-08
-7.75224e-08
-7.7517e-08
-7.75115e-08
-7.74998e-08
-7.7492e-08
-7.74776e-08
-7.7473e-08
-7.7461e-08
-7.74652e-08
-7.7459e-08
-7.74734e-08
-7.74713e-08
-7.74908e-08
-7.74854e-08
-7.74999e-08
-7.74818e-08
-7.7485e-08
-7.74542e-08
-7.74485e-08
-7.74266e-08
-7.74141e-08
-7.7431e-08
-7.74226e-08
-7.73615e-08
-7.76282e-08
-7.74536e-08
-7.74624e-08
-7.74032e-08
-7.74247e-08
-7.74057e-08
-7.74321e-08
-7.74496e-08
-7.74767e-08
-7.7499e-08
-7.75123e-08
-7.75207e-08
-7.75163e-08
-7.75106e-08
-7.7498e-08
-7.749e-08
-7.74826e-08
-7.74825e-08
-7.74859e-08
-7.74944e-08
-7.7504e-08
-7.75138e-08
-7.75211e-08
-7.75249e-08
-7.75248e-08
-7.75212e-08
-7.75158e-08
-7.75098e-08
-7.75051e-08
-7.75025e-08
-7.7503e-08
-7.75057e-08
-7.75107e-08
-7.75156e-08
-7.75206e-08
-7.75225e-08
-7.75231e-08
-7.75182e-08
-7.75131e-08
-7.75015e-08
-7.74935e-08
-7.74787e-08
-7.74733e-08
-7.74603e-08
-7.74635e-08
-7.74563e-08
-7.74703e-08
-7.74681e-08
-7.74883e-08
-7.74841e-08
-7.75004e-08
-7.74841e-08
-7.74887e-08
-7.74581e-08
-7.7452e-08
-7.74279e-08
-7.74134e-08
-7.74299e-08
-7.74225e-08
-7.73614e-08
-7.76335e-08
-7.74606e-08
-7.7469e-08
-7.74057e-08
-7.74232e-08
-7.74012e-08
-7.74257e-08
-7.74431e-08
-7.74714e-08
-7.74959e-08
-7.75117e-08
-7.75223e-08
-7.75193e-08
-7.75141e-08
-7.75011e-08
-7.74919e-08
-7.7483e-08
-7.74814e-08
-7.74838e-08
-7.74918e-08
-7.75017e-08
-7.75122e-08
-7.75204e-08
-7.75252e-08
-7.75258e-08
-7.75227e-08
-7.75172e-08
-7.75108e-08
-7.75054e-08
-7.75021e-08
-7.75019e-08
-7.75042e-08
-7.75091e-08
-7.75143e-08
-7.75198e-08
-7.75223e-08
-7.75236e-08
-7.75194e-08
-7.75148e-08
-7.75034e-08
-7.74953e-08
-7.748e-08
-7.74739e-08
-7.74598e-08
-7.74619e-08
-7.74536e-08
-7.74668e-08
-7.74645e-08
-7.74853e-08
-7.74823e-08
-7.75006e-08
-7.74861e-08
-7.74926e-08
-7.74623e-08
-7.74559e-08
-7.74295e-08
-7.74131e-08
-7.74288e-08
-7.74222e-08
-7.73594e-08
-7.76391e-08
-7.74683e-08
-7.74765e-08
-7.74092e-08
-7.74226e-08
-7.73971e-08
-7.74193e-08
-7.74363e-08
-7.74655e-08
-7.74922e-08
-7.75105e-08
-7.75236e-08
-7.75222e-08
-7.75177e-08
-7.75044e-08
-7.74941e-08
-7.74837e-08
-7.74806e-08
-7.74818e-08
-7.74892e-08
-7.74992e-08
-7.75102e-08
-7.75194e-08
-7.75253e-08
-7.75268e-08
-7.75242e-08
-7.75187e-08
-7.7512e-08
-7.75059e-08
-7.75018e-08
-7.75009e-08
-7.75027e-08
-7.75074e-08
-7.75127e-08
-7.75187e-08
-7.75219e-08
-7.75241e-08
-7.75206e-08
-7.75166e-08
-7.75055e-08
-7.74975e-08
-7.74817e-08
-7.74748e-08
-7.74596e-08
-7.74604e-08
-7.74508e-08
-7.74632e-08
-7.74604e-08
-7.74818e-08
-7.74799e-08
-7.75004e-08
-7.74879e-08
-7.74965e-08
-7.74668e-08
-7.74604e-08
-7.74316e-08
-7.74131e-08
-7.74279e-08
-7.74219e-08
-7.73558e-08
-7.76448e-08
-7.74767e-08
-7.7485e-08
-7.74138e-08
-7.74229e-08
-7.73937e-08
-7.74131e-08
-7.74291e-08
-7.7459e-08
-7.74877e-08
-7.75087e-08
-7.75243e-08
-7.7525e-08
-7.75214e-08
-7.7508e-08
-7.74968e-08
-7.74848e-08
-7.74801e-08
-7.74799e-08
-7.74866e-08
-7.74964e-08
-7.75081e-08
-7.75182e-08
-7.75251e-08
-7.75276e-08
-7.75257e-08
-7.75204e-08
-7.75133e-08
-7.75066e-08
-7.75016e-08
-7.74999e-08
-7.75011e-08
-7.75055e-08
-7.75109e-08
-7.75174e-08
-7.75213e-08
-7.75243e-08
-7.75217e-08
-7.75185e-08
-7.75079e-08
-7.74999e-08
-7.74838e-08
-7.74761e-08
-7.74596e-08
-7.74591e-08
-7.7448e-08
-7.74593e-08
-7.74559e-08
-7.74778e-08
-7.7477e-08
-7.74997e-08
-7.74893e-08
-7.75004e-08
-7.74715e-08
-7.74653e-08
-7.74342e-08
-7.74136e-08
-7.7427e-08
-7.74214e-08
-7.73509e-08
-7.76505e-08
-7.74856e-08
-7.74944e-08
-7.74194e-08
-7.74243e-08
-7.73909e-08
-7.74071e-08
-7.74218e-08
-7.7452e-08
-7.74826e-08
-7.75062e-08
-7.75246e-08
-7.75274e-08
-7.75252e-08
-7.75119e-08
-7.74998e-08
-7.74863e-08
-7.74799e-08
-7.74782e-08
-7.7484e-08
-7.74935e-08
-7.75056e-08
-7.75167e-08
-7.75248e-08
-7.75284e-08
-7.75272e-08
-7.75222e-08
-7.75149e-08
-7.75075e-08
-7.75017e-08
-7.7499e-08
-7.74995e-08
-7.75035e-08
-7.7509e-08
-7.75158e-08
-7.75205e-08
-7.75244e-08
-7.75228e-08
-7.75204e-08
-7.75104e-08
-7.75026e-08
-7.74862e-08
-7.74778e-08
-7.746e-08
-7.7458e-08
-7.74452e-08
-7.74554e-08
-7.74511e-08
-7.74733e-08
-7.74734e-08
-7.74984e-08
-7.74903e-08
-7.75042e-08
-7.74763e-08
-7.74708e-08
-7.74372e-08
-7.74147e-08
-7.74263e-08
-7.74207e-08
-7.73452e-08
-7.76561e-08
-7.7495e-08
-7.75046e-08
-7.74262e-08
-7.74268e-08
-7.7389e-08
-7.74015e-08
-7.74144e-08
-7.74445e-08
-7.74767e-08
-7.75029e-08
-7.75243e-08
-7.75295e-08
-7.75288e-08
-7.7516e-08
-7.75032e-08
-7.74883e-08
-7.74801e-08
-7.74768e-08
-7.74814e-08
-7.74905e-08
-7.75029e-08
-7.75149e-08
-7.75242e-08
-7.7529e-08
-7.75286e-08
-7.75241e-08
-7.75166e-08
-7.75087e-08
-7.75019e-08
-7.74983e-08
-7.74979e-08
-7.75014e-08
-7.75068e-08
-7.7514e-08
-7.75194e-08
-7.75243e-08
-7.75238e-08
-7.75224e-08
-7.7513e-08
-7.75056e-08
-7.7489e-08
-7.74799e-08
-7.74608e-08
-7.74572e-08
-7.74426e-08
-7.74513e-08
-7.74459e-08
-7.74682e-08
-7.74692e-08
-7.74965e-08
-7.74908e-08
-7.75078e-08
-7.74812e-08
-7.74768e-08
-7.74408e-08
-7.74163e-08
-7.74257e-08
-7.742e-08
-7.7339e-08
-7.76614e-08
-7.75046e-08
-7.75156e-08
-7.7434e-08
-7.74306e-08
-7.7388e-08
-7.73964e-08
-7.74071e-08
-7.74366e-08
-7.74702e-08
-7.74989e-08
-7.75233e-08
-7.75312e-08
-7.75323e-08
-7.75202e-08
-7.75069e-08
-7.74906e-08
-7.74806e-08
-7.74756e-08
-7.74789e-08
-7.74874e-08
-7.75e-08
-7.75128e-08
-7.75233e-08
-7.75294e-08
-7.753e-08
-7.7526e-08
-7.75185e-08
-7.751e-08
-7.75024e-08
-7.74977e-08
-7.74964e-08
-7.74992e-08
-7.75044e-08
-7.75119e-08
-7.7518e-08
-7.75239e-08
-7.75245e-08
-7.75243e-08
-7.75158e-08
-7.75089e-08
-7.74922e-08
-7.74824e-08
-7.74621e-08
-7.74568e-08
-7.74402e-08
-7.74472e-08
-7.74404e-08
-7.74627e-08
-7.74643e-08
-7.7494e-08
-7.74907e-08
-7.75111e-08
-7.74861e-08
-7.74832e-08
-7.74448e-08
-7.74186e-08
-7.74254e-08
-7.74191e-08
-7.73325e-08
-7.76661e-08
-7.75144e-08
-7.75273e-08
-7.7443e-08
-7.74357e-08
-7.73881e-08
-7.73921e-08
-7.74e-08
-7.74285e-08
-7.74631e-08
-7.74941e-08
-7.75215e-08
-7.75324e-08
-7.75357e-08
-7.75244e-08
-7.75109e-08
-7.74934e-08
-7.74816e-08
-7.74747e-08
-7.74765e-08
-7.74843e-08
-7.74969e-08
-7.75104e-08
-7.75221e-08
-7.75295e-08
-7.75313e-08
-7.7528e-08
-7.75206e-08
-7.75116e-08
-7.7503e-08
-7.74973e-08
-7.74949e-08
-7.7497e-08
-7.75019e-08
-7.75096e-08
-7.75163e-08
-7.75233e-08
-7.75251e-08
-7.75261e-08
-7.75187e-08
-7.75124e-08
-7.74957e-08
-7.74854e-08
-7.74638e-08
-7.74568e-08
-7.7438e-08
-7.74432e-08
-7.74348e-08
-7.74568e-08
-7.74588e-08
-7.74907e-08
-7.74899e-08
-7.7514e-08
-7.74909e-08
-7.749e-08
-7.74494e-08
-7.74216e-08
-7.74254e-08
-7.7418e-08
-7.73261e-08
-7.76701e-08
-7.75241e-08
-7.75395e-08
-7.7453e-08
-7.74422e-08
-7.73895e-08
-7.73886e-08
-7.73933e-08
-7.74202e-08
-7.74555e-08
-7.74885e-08
-7.7519e-08
-7.75329e-08
-7.75386e-08
-7.75287e-08
-7.75152e-08
-7.74967e-08
-7.74831e-08
-7.74742e-08
-7.74744e-08
-7.74812e-08
-7.74936e-08
-7.75077e-08
-7.75206e-08
-7.75294e-08
-7.75325e-08
-7.75299e-08
-7.75228e-08
-7.75134e-08
-7.7504e-08
-7.74971e-08
-7.74936e-08
-7.74948e-08
-7.74992e-08
-7.7507e-08
-7.75143e-08
-7.75223e-08
-7.75254e-08
-7.75278e-08
-7.75215e-08
-7.7516e-08
-7.74996e-08
-7.74889e-08
-7.7466e-08
-7.74573e-08
-7.74362e-08
-7.74394e-08
-7.7429e-08
-7.74504e-08
-7.74526e-08
-7.74867e-08
-7.74884e-08
-7.75165e-08
-7.74955e-08
-7.74971e-08
-7.74544e-08
-7.74255e-08
-7.74257e-08
-7.74168e-08
-7.73198e-08
-7.76732e-08
-7.75336e-08
-7.7552e-08
-7.7464e-08
-7.74501e-08
-7.73921e-08
-7.73861e-08
-7.73871e-08
-7.74119e-08
-7.74473e-08
-7.74822e-08
-7.75157e-08
-7.75328e-08
-7.75412e-08
-7.75329e-08
-7.75198e-08
-7.75003e-08
-7.74851e-08
-7.74742e-08
-7.74725e-08
-7.74781e-08
-7.74901e-08
-7.75048e-08
-7.75188e-08
-7.7529e-08
-7.75334e-08
-7.75318e-08
-7.75251e-08
-7.75155e-08
-7.75052e-08
-7.74971e-08
-7.74924e-08
-7.74926e-08
-7.74964e-08
-7.75041e-08
-7.7512e-08
-7.7521e-08
-7.75255e-08
-7.75292e-08
-7.75243e-08
-7.75198e-08
-7.75037e-08
-7.74928e-08
-7.74688e-08
-7.74584e-08
-7.74349e-08
-7.74358e-08
-7.74232e-08
-7.74438e-08
-7.74458e-08
-7.7482e-08
-7.7486e-08
-7.75183e-08
-7.74998e-08
-7.75045e-08
-7.74599e-08
-7.74302e-08
-7.74264e-08
-7.74155e-08
-7.7314e-08
-7.7675e-08
-7.75426e-08
-7.75647e-08
-7.7476e-08
-7.74595e-08
-7.73962e-08
-7.73848e-08
-7.73816e-08
-7.74037e-08
-7.74388e-08
-7.74752e-08
-7.75116e-08
-7.75319e-08
-7.75433e-08
-7.75369e-08
-7.75245e-08
-7.75044e-08
-7.74875e-08
-7.74746e-08
-7.7471e-08
-7.74751e-08
-7.74866e-08
-7.75015e-08
-7.75166e-08
-7.75282e-08
-7.75341e-08
-7.75337e-08
-7.75275e-08
-7.75177e-08
-7.75067e-08
-7.74974e-08
-7.74915e-08
-7.74905e-08
-7.74936e-08
-7.75011e-08
-7.75094e-08
-7.75193e-08
-7.75251e-08
-7.75305e-08
-7.7527e-08
-7.75237e-08
-7.75082e-08
-7.74971e-08
-7.74721e-08
-7.746e-08
-7.7434e-08
-7.74327e-08
-7.74175e-08
-7.7437e-08
-7.74383e-08
-7.74764e-08
-7.74827e-08
-7.75195e-08
-7.75036e-08
-7.75119e-08
-7.74659e-08
-7.74359e-08
-7.74276e-08
-7.74141e-08
-7.73086e-08
-7.76754e-08
-7.75508e-08
-7.75773e-08
-7.74886e-08
-7.74703e-08
-7.74018e-08
-7.73848e-08
-7.73769e-08
-7.73958e-08
-7.743e-08
-7.74674e-08
-7.75065e-08
-7.75302e-08
-7.75448e-08
-7.75407e-08
-7.75292e-08
-7.75088e-08
-7.74905e-08
-7.74755e-08
-7.74698e-08
-7.74724e-08
-7.7483e-08
-7.74981e-08
-7.7514e-08
-7.75271e-08
-7.75345e-08
-7.75354e-08
-7.75299e-08
-7.75201e-08
-7.75085e-08
-7.74981e-08
-7.74907e-08
-7.74885e-08
-7.74907e-08
-7.74978e-08
-7.75064e-08
-7.75173e-08
-7.75244e-08
-7.75313e-08
-7.75295e-08
-7.75275e-08
-7.75128e-08
-7.75019e-08
-7.7476e-08
-7.74624e-08
-7.74339e-08
-7.743e-08
-7.7412e-08
-7.743e-08
-7.74304e-08
-7.74701e-08
-7.74783e-08
-7.75198e-08
-7.75068e-08
-7.75194e-08
-7.74722e-08
-7.74425e-08
-7.74292e-08
-7.74126e-08
-7.73037e-08
-7.76742e-08
-7.75581e-08
-7.75896e-08
-7.75019e-08
-7.74824e-08
-7.74089e-08
-7.73863e-08
-7.73733e-08
-7.73884e-08
-7.74211e-08
-7.74591e-08
-7.75006e-08
-7.75276e-08
-7.75456e-08
-7.7544e-08
-7.7534e-08
-7.75135e-08
-7.7494e-08
-7.7477e-08
-7.74691e-08
-7.74699e-08
-7.74795e-08
-7.74944e-08
-7.75111e-08
-7.75256e-08
-7.75346e-08
-7.75369e-08
-7.75323e-08
-7.75227e-08
-7.75105e-08
-7.7499e-08
-7.74903e-08
-7.74867e-08
-7.74878e-08
-7.74945e-08
-7.75032e-08
-7.75148e-08
-7.75233e-08
-7.75318e-08
-7.75317e-08
-7.75313e-08
-7.75176e-08
-7.7507e-08
-7.74804e-08
-7.74654e-08
-7.74344e-08
-7.74279e-08
-7.74068e-08
-7.7423e-08
-7.7422e-08
-7.7463e-08
-7.74729e-08
-7.75191e-08
-7.75092e-08
-7.75268e-08
-7.74789e-08
-7.74502e-08
-7.74313e-08
-7.7411e-08
-7.72994e-08
-7.76711e-08
-7.75642e-08
-7.76013e-08
-7.75155e-08
-7.74958e-08
-7.74175e-08
-7.73895e-08
-7.7371e-08
-7.73817e-08
-7.74123e-08
-7.74503e-08
-7.74939e-08
-7.7524e-08
-7.75456e-08
-7.75469e-08
-7.75386e-08
-7.75185e-08
-7.7498e-08
-7.74791e-08
-7.7469e-08
-7.74677e-08
-7.7476e-08
-7.74906e-08
-7.75079e-08
-7.75236e-08
-7.75343e-08
-7.75381e-08
-7.75346e-08
-7.75254e-08
-7.75129e-08
-7.75004e-08
-7.74902e-08
-7.74851e-08
-7.74851e-08
-7.7491e-08
-7.74997e-08
-7.75119e-08
-7.75217e-08
-7.75319e-08
-7.75336e-08
-7.75348e-08
-7.75224e-08
-7.75124e-08
-7.74854e-08
-7.74691e-08
-7.74357e-08
-7.74266e-08
-7.74021e-08
-7.74162e-08
-7.74132e-08
-7.74552e-08
-7.74665e-08
-7.75174e-08
-7.75107e-08
-7.75339e-08
-7.74857e-08
-7.74589e-08
-7.74339e-08
-7.74093e-08
-7.72955e-08
-7.76659e-08
-7.75687e-08
-7.76121e-08
-7.75294e-08
-7.75103e-08
-7.74277e-08
-7.73943e-08
-7.73701e-08
-7.73759e-08
-7.74037e-08
-7.74411e-08
-7.74864e-08
-7.75195e-08
-7.75447e-08
-7.75492e-08
-7.75431e-08
-7.75236e-08
-7.75024e-08
-7.74818e-08
-7.74694e-08
-7.7466e-08
-7.74727e-08
-7.74867e-08
-7.75044e-08
-7.75213e-08
-7.75336e-08
-7.75391e-08
-7.75368e-08
-7.75282e-08
-7.75155e-08
-7.7502e-08
-7.74905e-08
-7.74839e-08
-7.74824e-08
-7.74875e-08
-7.7496e-08
-7.75087e-08
-7.75196e-08
-7.75314e-08
-7.7535e-08
-7.75381e-08
-7.75272e-08
-7.7518e-08
-7.74909e-08
-7.74736e-08
-7.74379e-08
-7.74261e-08
-7.73981e-08
-7.74097e-08
-7.74043e-08
-7.74467e-08
-7.74588e-08
-7.75144e-08
-7.75111e-08
-7.75405e-08
-7.74926e-08
-7.74685e-08
-7.74372e-08
-7.74077e-08
-7.7292e-08
-7.76586e-08
-7.75715e-08
-7.76217e-08
-7.75431e-08
-7.75258e-08
-7.74393e-08
-7.74009e-08
-7.73707e-08
-7.73711e-08
-7.73955e-08
-7.74317e-08
-7.74782e-08
-7.7514e-08
-7.75428e-08
-7.75508e-08
-7.75472e-08
-7.75288e-08
-7.75073e-08
-7.7485e-08
-7.74704e-08
-7.74647e-08
-7.74697e-08
-7.74828e-08
-7.75006e-08
-7.75186e-08
-7.75325e-08
-7.75397e-08
-7.75389e-08
-7.75311e-08
-7.75183e-08
-7.75041e-08
-7.74912e-08
-7.7483e-08
-7.748e-08
-7.7484e-08
-7.7492e-08
-7.7505e-08
-7.75169e-08
-7.75304e-08
-7.75359e-08
-7.75411e-08
-7.75318e-08
-7.75238e-08
-7.74969e-08
-7.74789e-08
-7.7441e-08
-7.74265e-08
-7.73948e-08
-7.74036e-08
-7.73952e-08
-7.74377e-08
-7.74501e-08
-7.75103e-08
-7.75102e-08
-7.75464e-08
-7.74994e-08
-7.74791e-08
-7.7441e-08
-7.74061e-08
-7.72889e-08
-7.76491e-08
-7.75723e-08
-7.76298e-08
-7.75565e-08
-7.7542e-08
-7.74523e-08
-7.74093e-08
-7.73731e-08
-7.73677e-08
-7.7388e-08
-7.74222e-08
-7.74693e-08
-7.75076e-08
-7.754e-08
-7.75516e-08
-7.75509e-08
-7.7534e-08
-7.75125e-08
-7.74889e-08
-7.74721e-08
-7.7464e-08
-7.7467e-08
-7.74789e-08
-7.74966e-08
-7.75154e-08
-7.75309e-08
-7.75399e-08
-7.75407e-08
-7.75339e-08
-7.75213e-08
-7.75065e-08
-7.74924e-08
-7.74825e-08
-7.74779e-08
-7.74806e-08
-7.74879e-08
-7.7501e-08
-7.75138e-08
-7.75287e-08
-7.75362e-08
-7.75435e-08
-7.75362e-08
-7.75297e-08
-7.75033e-08
-7.74848e-08
-7.74451e-08
-7.74281e-08
-7.73925e-08
-7.73982e-08
-7.73862e-08
-7.74282e-08
-7.74403e-08
-7.75048e-08
-7.75078e-08
-7.75515e-08
-7.7506e-08
-7.74906e-08
-7.74455e-08
-7.74046e-08
-7.72862e-08
-7.76373e-08
-7.75708e-08
-7.7636e-08
-7.75691e-08
-7.75587e-08
-7.74664e-08
-7.74195e-08
-7.73773e-08
-7.73657e-08
-7.73813e-08
-7.74129e-08
-7.746e-08
-7.75003e-08
-7.75361e-08
-7.75514e-08
-7.7554e-08
-7.7539e-08
-7.7518e-08
-7.74933e-08
-7.74745e-08
-7.74639e-08
-7.74647e-08
-7.74752e-08
-7.74924e-08
-7.75119e-08
-7.75288e-08
-7.75396e-08
-7.75422e-08
-7.75366e-08
-7.75245e-08
-7.75092e-08
-7.7494e-08
-7.74825e-08
-7.74762e-08
-7.74773e-08
-7.74838e-08
-7.74967e-08
-7.75101e-08
-7.75264e-08
-7.75358e-08
-7.75453e-08
-7.75402e-08
-7.75355e-08
-7.75099e-08
-7.74915e-08
-7.74502e-08
-7.74308e-08
-7.73913e-08
-7.73937e-08
-7.73776e-08
-7.74184e-08
-7.74295e-08
-7.7498e-08
-7.75038e-08
-7.75555e-08
-7.7512e-08
-7.75028e-08
-7.74506e-08
-7.74032e-08
-7.72838e-08
-7.76234e-08
-7.75669e-08
-7.764e-08
-7.75808e-08
-7.75756e-08
-7.74816e-08
-7.74315e-08
-7.73833e-08
-7.73655e-08
-7.73757e-08
-7.7404e-08
-7.74504e-08
-7.74921e-08
-7.75312e-08
-7.75503e-08
-7.75564e-08
-7.75438e-08
-7.75236e-08
-7.74983e-08
-7.74776e-08
-7.74645e-08
-7.74629e-08
-7.74716e-08
-7.74882e-08
-7.7508e-08
-7.75262e-08
-7.75389e-08
-7.75433e-08
-7.75392e-08
-7.75278e-08
-7.75123e-08
-7.74961e-08
-7.7483e-08
-7.74749e-08
-7.74744e-08
-7.74797e-08
-7.74921e-08
-7.75059e-08
-7.75233e-08
-7.75347e-08
-7.75464e-08
-7.75436e-08
-7.7541e-08
-7.75168e-08
-7.74988e-08
-7.74563e-08
-7.74348e-08
-7.73913e-08
-7.73902e-08
-7.73694e-08
-7.74085e-08
-7.74178e-08
-7.74898e-08
-7.74982e-08
-7.75583e-08
-7.75174e-08
-7.75155e-08
-7.74562e-08
-7.74021e-08
-7.72818e-08
-7.76074e-08
-7.75604e-08
-7.76415e-08
-7.75911e-08
-7.75922e-08
-7.74976e-08
-7.74451e-08
-7.73913e-08
-7.7367e-08
-7.73715e-08
-7.73957e-08
-7.74406e-08
-7.74832e-08
-7.75252e-08
-7.75481e-08
-7.75579e-08
-7.75482e-08
-7.75293e-08
-7.75037e-08
-7.74813e-08
-7.74659e-08
-7.74617e-08
-7.74684e-08
-7.74839e-08
-7.75038e-08
-7.75231e-08
-7.75376e-08
-7.75439e-08
-7.75415e-08
-7.75311e-08
-7.75157e-08
-7.74986e-08
-7.7484e-08
-7.74741e-08
-7.74717e-08
-7.74756e-08
-7.74873e-08
-7.75012e-08
-7.75196e-08
-7.75327e-08
-7.75467e-08
-7.75465e-08
-7.75462e-08
-7.75238e-08
-7.75066e-08
-7.74634e-08
-7.744e-08
-7.73927e-08
-7.73879e-08
-7.73619e-08
-7.73987e-08
-7.74052e-08
-7.74803e-08
-7.74906e-08
-7.75595e-08
-7.75219e-08
-7.75287e-08
-7.74624e-08
-7.74012e-08
-7.72802e-08
-7.75897e-08
-7.75513e-08
-7.76402e-08
-7.75997e-08
-7.76083e-08
-7.7514e-08
-7.74602e-08
-7.74012e-08
-7.73706e-08
-7.73687e-08
-7.73882e-08
-7.74309e-08
-7.74738e-08
-7.75183e-08
-7.75448e-08
-7.75586e-08
-7.7552e-08
-7.75349e-08
-7.75094e-08
-7.74858e-08
-7.74679e-08
-7.74611e-08
-7.74655e-08
-7.74797e-08
-7.74994e-08
-7.75196e-08
-7.75357e-08
-7.75441e-08
-7.75435e-08
-7.75344e-08
-7.75194e-08
-7.75017e-08
-7.74857e-08
-7.74739e-08
-7.74695e-08
-7.74718e-08
-7.74824e-08
-7.74961e-08
-7.75152e-08
-7.75298e-08
-7.75461e-08
-7.75485e-08
-7.75509e-08
-7.75306e-08
-7.75148e-08
-7.74713e-08
-7.74466e-08
-7.73957e-08
-7.7387e-08
-7.73555e-08
-7.73892e-08
-7.73921e-08
-7.74695e-08
-7.74812e-08
-7.75591e-08
-7.75252e-08
-7.7542e-08
-7.74691e-08
-7.74008e-08
-7.72789e-08
-7.75706e-08
-7.75394e-08
-7.76359e-08
-7.76062e-08
-7.76234e-08
-7.75306e-08
-7.74765e-08
-7.7413e-08
-7.73761e-08
-7.73677e-08
-7.73818e-08
-7.74215e-08
-7.74639e-08
-7.75104e-08
-7.75404e-08
-7.75583e-08
-7.75552e-08
-7.75404e-08
-7.75155e-08
-7.74908e-08
-7.74708e-08
-7.74613e-08
-7.74632e-08
-7.74756e-08
-7.74947e-08
-7.75156e-08
-7.75332e-08
-7.75437e-08
-7.75452e-08
-7.75375e-08
-7.75232e-08
-7.75052e-08
-7.74879e-08
-7.74743e-08
-7.74679e-08
-7.74682e-08
-7.74774e-08
-7.74906e-08
-7.75101e-08
-7.75261e-08
-7.75444e-08
-7.75496e-08
-7.75549e-08
-7.75372e-08
-7.75232e-08
-7.74801e-08
-7.74545e-08
-7.74002e-08
-7.73877e-08
-7.73502e-08
-7.73804e-08
-7.73787e-08
-7.74576e-08
-7.74698e-08
-7.75569e-08
-7.7527e-08
-7.75551e-08
-7.74761e-08
-7.74009e-08
-7.72781e-08
-7.75504e-08
-7.75247e-08
-7.76285e-08
-7.76105e-08
-7.76371e-08
-7.75469e-08
-7.74939e-08
-7.74264e-08
-7.73838e-08
-7.73685e-08
-7.73768e-08
-7.74126e-08
-7.74538e-08
-7.75017e-08
-7.75349e-08
-7.75568e-08
-7.75575e-08
-7.75454e-08
-7.75216e-08
-7.74964e-08
-7.74744e-08
-7.74623e-08
-7.74615e-08
-7.74719e-08
-7.749e-08
-7.75112e-08
-7.75302e-08
-7.75427e-08
-7.75464e-08
-7.75405e-08
-7.75271e-08
-7.75091e-08
-7.74908e-08
-7.74754e-08
-7.74669e-08
-7.74651e-08
-7.74726e-08
-7.74849e-08
-7.75043e-08
-7.75214e-08
-7.75417e-08
-7.75497e-08
-7.7558e-08
-7.75433e-08
-7.75318e-08
-7.74896e-08
-7.74636e-08
-7.74064e-08
-7.73902e-08
-7.73465e-08
-7.73724e-08
-7.73651e-08
-7.74447e-08
-7.74565e-08
-7.75527e-08
-7.7527e-08
-7.75678e-08
-7.74835e-08
-7.74015e-08
-7.72777e-08
-7.75299e-08
-7.75075e-08
-7.76178e-08
-7.76122e-08
-7.7649e-08
-7.75625e-08
-7.75118e-08
-7.74414e-08
-7.73935e-08
-7.73713e-08
-7.73733e-08
-7.74046e-08
-7.74438e-08
-7.74924e-08
-7.75283e-08
-7.75542e-08
-7.75589e-08
-7.755e-08
-7.75278e-08
-7.75024e-08
-7.74788e-08
-7.74641e-08
-7.74605e-08
-7.74685e-08
-7.74854e-08
-7.75064e-08
-7.75266e-08
-7.75411e-08
-7.7547e-08
-7.75431e-08
-7.7531e-08
-7.75133e-08
-7.74943e-08
-7.74773e-08
-7.74665e-08
-7.74625e-08
-7.7468e-08
-7.7479e-08
-7.74981e-08
-7.75159e-08
-7.7538e-08