/*--------------------------------*- C++ -*----------------------------------*\
| =========                 |                                                 |
| \\      /  F ield         | foam-extend: Open Source CFD                    |
|  \\    /   O peration     | Version:     4.0                                |
|   \\  /    A nd           | Web:         http://www.foam-extend.org         |
|    \\/     M anipulation  |                                                 |
\*---------------------------------------------------------------------------*/
FoamFile
{
    version     2.0;
    format      ascii;
    class       surfaceScalarField;
    location    "5";
    object      phi;
}
// * * * * * * * * * * * * * * * * * * * * * * * * * * * * * * * * * * * * * //

dimensions      [0 3 -1 0 0 0 0];

internalField   nonuniform List<scalar> 
13744
(
-3.09463e-25
-4.69647e-22
-5.81892e-26
-3.00737e-25
1.43476e-27
-2.86288e-26
-2.52545e-26
2.71258e-26
-2.37444e-26
3.47499e-27
-2.86879e-26
1.56392e-26
-2.68308e-26
-4.96247e-27
-2.25662e-26
6.7161e-27
-1.94619e-26
-7.96676e-27
-8.25733e-27
-7.44186e-27
-1.1099e-27
-1.37184e-26
1.1672e-26
-1.43765e-26
2.00081e-26
-1.37818e-26
2.6788e-26
-1.34302e-26
2.78752e-26
-6.73499e-27
2.18239e-26
6.27789e-28
9.91126e-27
1.11246e-26
-7.34569e-27
1.96469e-26
-2.52764e-26
2.55386e-26
-4.05568e-26
2.61631e-26
-4.84168e-26
2.02452e-26
-4.64961e-26
8.67118e-27
-3.43878e-26
-5.92168e-27
-1.48821e-26
-1.95598e-26
6.89353e-27
-2.79588e-26
2.48978e-26
-2.87316e-26
3.40103e-26
-2.09548e-26
3.19101e-26
-7.25885e-27
1.9892e-26
8.39268e-27
2.23348e-27
2.07058e-26
-1.46091e-26
2.54418e-26
-2.55628e-26
2.2182e-26
-2.77908e-26
1.17715e-26
-2.19248e-26
-2.21701e-28
-1.21695e-26
-1.10847e-26
-1.75862e-27
-1.69311e-26
3.59891e-27
-1.49178e-26
4.27246e-27
-1.11808e-26
1.4871e-27
-2.62981e-27
-2.99467e-27
3.67702e-29
-1.64525e-27
1.34432e-27
9.2182e-28
3.11566e-27
9.6498e-27
-3.55969e-27
2.00568e-26
1.49775e-27
2.46314e-26
-1.57734e-27
3.01953e-26
2.99219e-27
2.30091e-26
1.18823e-26
1.34769e-26
4.46308e-27
1.90801e-27
1.37941e-26
-1.79381e-26
4.41384e-27
-2.73871e-26
1.21835e-27
-4.04152e-26
5.52193e-27
-4.29431e-26
-8.56018e-27
-3.48595e-26
1.36751e-27
-2.45689e-26
-4.71371e-27
-6.11959e-27
-5.17405e-27
7.22321e-27
3.16706e-28
1.36375e-26
-4.1961e-28
1.26457e-26
2.43865e-27
9.94249e-27
-4.84277e-25
-4.69222e-22
-1.74958e-25
-7.64219e-25
1.50782e-28
-1.25299e-25
-7.2156e-26
9.54397e-26
-6.4878e-26
1.28882e-26
-9.18014e-26
6.8333e-26
-8.21013e-26
-7.52186e-27
-7.31996e-26
3.00624e-26
-5.93146e-26
-2.33491e-26
-2.99468e-26
-2.26836e-26
-8.73063e-27
-4.53705e-26
3.07218e-26
-4.97779e-26
5.70064e-26
-5.1016e-26
7.91394e-26
-5.04388e-26
8.48143e-26
-3.20419e-26
6.97296e-26
-8.38627e-27
3.69541e-26
2.60771e-26
-1.3716e-26
5.80599e-26
-6.83565e-26
8.41266e-26
-1.1677e-25
9.37409e-26
-1.44793e-25
8.18169e-26
-1.43887e-25
4.77595e-26
-1.11977e-25
-8.29085e-28
-5.5602e-26
-5.18249e-26
1.04422e-26
-8.98454e-26
6.79156e-26
-1.03933e-25
1.00418e-25
-8.77196e-26
9.9505e-26
-4.66335e-26
6.74075e-26
7.72953e-27
1.59362e-26
5.67943e-26
-3.61476e-26
8.45167e-26
-7.31271e-26
8.49363e-26
-8.40078e-26
5.7293e-26
-7.02704e-26
1.87684e-26
-4.25482e-26
-2.24242e-26
-1.17865e-26
-4.79976e-26
5.31417e-27
-4.96929e-26
1.05678e-26
-4.24994e-26
2.63433e-27
-1.56268e-26
-8.98282e-27
-9.06692e-27
-5.59471e-27
-1.63083e-27
2.52914e-27
-9.66017e-28
3.26502e-26
-2.45917e-26
6.27297e-26
-8.38383e-27
8.10338e-26
-2.22949e-26
9.86959e-26
4.09154e-27
7.64357e-26
3.64514e-26
5.01744e-26
2.50933e-26
7.68261e-27
6.79699e-26
-5.20905e-26
3.28248e-26
-8.42066e-26
2.74092e-26
-1.26496e-25
2.51763e-26
-1.33755e-25
-2.94079e-26
-1.10144e-25
-5.05033e-27
-7.68976e-26
-3.48463e-26
-1.94397e-26
-3.17025e-26
2.27574e-26
-7.99165e-27
4.23733e-26
-4.97636e-28
3.79687e-26
1.55611e-26
4.33838e-26
-6.96761e-25
-4.68703e-22
-2.64191e-25
-1.45465e-24
-3.67041e-27
-2.73033e-25
-1.17e-25
1.92798e-25
-1.03927e-25
2.54298e-26
-1.58733e-25
1.53392e-25
-1.40123e-25
-2.04497e-27
-1.28831e-25
6.88141e-26
-1.02156e-25
-3.83997e-26
-5.64387e-26
-4.20386e-26
-2.08813e-26
-8.70508e-26
4.66026e-26
-9.86062e-26
9.22397e-26
-1.05523e-25
1.31718e-25
-1.05196e-25
1.43998e-25
-7.61205e-26
1.22014e-25
-3.14369e-26
6.99836e-26
3.38215e-26
-1.39932e-26
1.00614e-25
-1.06674e-25
1.602e-25
-1.90904e-25
1.90073e-25
-2.42778e-25
1.78803e-25
-2.46609e-25
1.19938e-25
-1.97821e-25
2.6305e-26
-1.0559e-25
-8.02659e-26
5.94203e-27
-1.68563e-25
1.06086e-25
-2.12981e-25
1.66238e-25
-1.96386e-25
1.70627e-25
-1.24031e-25
1.21208e-25
-1.58678e-26
3.663e-26
9.09432e-26
-5.22541e-26
1.62589e-25
-1.18483e-25
1.8031e-25
-1.41334e-25
1.38382e-25
-1.22479e-25
6.65683e-26
-7.79101e-26
-2.00043e-26
-2.6882e-26
-7.84811e-26
2.92054e-27
-9.54616e-26
1.46757e-26
-8.89201e-26
2.1382e-27
-4.18405e-26
-1.56953e-26
-3.37014e-26
-1.04819e-26
-1.55384e-26
3.75893e-27
-2.40706e-26
5.77028e-26
-6.84638e-26
1.08087e-25
-3.94208e-26
1.43379e-25
-6.86579e-26
1.74606e-25
3.69134e-27
1.37501e-25
7.00059e-26
9.51618e-26
7.41464e-26
1.7259e-26
1.71622e-25
-8.4342e-26
9.66164e-26
-1.42646e-25
9.25596e-26
-2.17488e-25
5.53714e-26
-2.30541e-25
-6.44922e-26
-1.92022e-25
-3.2784e-26
-1.34275e-25
-1.05726e-25
-3.55462e-26
-9.00089e-26
3.7977e-26
-3.05507e-26
7.22211e-26
8.97535e-28
6.41587e-26
4.39915e-26
1.02533e-25
-9.66374e-25
-4.67837e-22
-3.54723e-25
-2.42503e-24
-9.28439e-27
-4.73451e-25
-1.59938e-25
3.16862e-25
-1.4267e-25
4.0329e-26
-2.27172e-25
2.70439e-25
-2.0051e-25
1.09909e-26
-1.88211e-25
1.22839e-25
-1.48448e-25
-5.24389e-26
-8.71336e-26
-6.55727e-26
-3.69098e-26
-1.38519e-25
5.96334e-26
-1.60995e-25
1.25797e-25
-1.77392e-25
1.84456e-25
-1.77852e-25
2.05031e-25
-1.39257e-25
1.77868e-25
-6.86151e-26
1.07726e-25
3.42949e-26
-9.46507e-27
1.47406e-25
-1.41152e-25
2.53924e-25
-2.63327e-25
3.15409e-25
-3.41882e-25
3.1151e-25
-3.53431e-25
2.25482e-25
-2.90116e-25
7.56925e-26
-1.63017e-25
-1.04775e-25
-5.29548e-27
-2.64116e-25
1.39808e-25
-3.55995e-25
2.30848e-25
-3.47232e-25
2.43824e-25
-2.39847e-25
1.79461e-25
-6.28927e-26
6.26162e-26
1.22696e-25
-6.39606e-26
2.59343e-25
-1.61614e-25
3.08151e-25
-1.99028e-25
2.55295e-25
-1.77256e-25
1.43666e-25
-1.1701e-25
-3.0685e-27
-4.59125e-26
-1.07772e-25
-2.69642e-27
-1.52074e-25
1.66282e-26
-1.50443e-25
1.92885e-28
-8.21404e-26
-2.33857e-26
-7.47624e-26
-1.63747e-26
-4.15937e-26
4.41757e-27
-6.729e-26
8.32139e-26
-1.35012e-25
1.55136e-25
-9.15764e-26
2.09549e-25
-1.39147e-25
2.559e-25
3.69623e-27
2.05066e-25
1.14636e-25
1.46728e-25
1.54863e-25
3.16205e-26
3.26595e-25
-1.13831e-25
1.98053e-25
-2.01199e-25
1.97813e-25
-3.11336e-25
9.58565e-26
-3.32059e-25
-1.14647e-25
-2.79642e-25
-8.41201e-26
-1.96884e-25
-2.1946e-25
-5.54213e-26
-1.82442e-25
5.15118e-26
-6.86062e-26
1.0226e-25
2.9585e-27
9.11401e-26
8.82897e-26
1.88541e-25
-1.24238e-24
-4.66715e-22
-4.55298e-25
-3.67221e-24
-1.69196e-26
-7.35682e-25
-2.00846e-25
4.64114e-25
-1.81006e-25
5.69494e-26
-2.96734e-25
4.20326e-25
-2.62997e-25
3.22215e-26
-2.51154e-25
1.9343e-25
-1.98138e-25
-6.41479e-26
-1.22092e-25
-9.26612e-26
-5.69106e-26
-1.98933e-25
6.96265e-26
-2.36778e-25
1.5747e-25
-2.66591e-25
2.37155e-25
-2.68731e-25
2.67736e-25
-2.22312e-25
2.37172e-25
-1.2103e-25
1.50124e-25
2.59485e-26
-8.43014e-29
1.96917e-25
-1.71621e-25
3.64111e-25
-3.33764e-25
4.6929e-25
-4.41762e-25
4.80541e-25
-4.64012e-25
3.65998e-25
-3.88605e-25
1.49722e-25
-2.27788e-25
-1.22794e-25
-2.3377e-26
-3.7446e-25
1.68793e-25
-5.32076e-25
2.93854e-25
-5.40847e-25
3.18704e-25
-3.96041e-25
2.41882e-25
-1.36155e-25
9.37827e-26
1.49242e-25
-7.11921e-26
3.72786e-25
-2.02302e-25
4.67849e-25
-2.56822e-25
4.08966e-25
-2.34361e-25
2.5207e-25
-1.59694e-25
3.08781e-26
-6.87792e-26
-1.3375e-25
-1.14659e-26
-2.18248e-25
1.64728e-26
-2.2663e-25
-3.11434e-27
-1.37067e-25
-3.20054e-26
-1.32932e-25
-2.32881e-26
-8.07573e-26
4.32641e-27
-1.31518e-25
1.08724e-25
-2.24884e-25
2.03294e-25
-1.66255e-25
2.78814e-25
-2.34792e-25
3.41904e-25
2.65516e-27
2.78697e-25
1.69218e-25
2.04665e-25
2.67554e-25
5.10183e-26
5.33418e-25
-1.40024e-25
3.39491e-25
-2.59188e-25
3.4571e-25
-4.07251e-25
1.48569e-25
-4.37724e-25
-1.78163e-25
-3.72746e-25
-1.59406e-25
-2.64794e-25
-3.77254e-25
-7.9527e-26
-3.1091e-25
6.27773e-26
-1.24418e-25
1.32057e-25
4.45244e-27
1.18695e-25
1.48373e-25
3.02972e-25
-1.51553e-24
-4.65358e-22
-5.61822e-25
-5.18801e-24
-2.67351e-26
-1.06447e-24
-2.3944e-25
6.30301e-25
-2.18724e-25
7.47609e-26
-3.66997e-25
6.0368e-25
-3.27313e-25
6.23794e-26
-3.17515e-25
2.82084e-25
-2.51197e-25
-7.19824e-26
-1.61461e-25
-1.22372e-25
-8.10895e-26
-2.67218e-25
7.62695e-26
-3.25577e-25
1.86924e-25
-3.72936e-25
2.8952e-25
-3.78095e-25
3.31884e-25
-3.26141e-25
2.99834e-25
-1.89875e-25
1.97236e-25
7.0523e-27
1.43853e-26
2.47376e-25
-1.97688e-25
4.89254e-25
-4.01728e-25
6.50971e-25
-5.41923e-25
6.86297e-25
-5.77971e-25
5.43061e-25
-4.93116e-25
2.50944e-25
-3e-25
-1.3141e-25
-4.8656e-26
-4.97075e-25
1.92518e-25
-7.39833e-25
3.54703e-25
-7.77447e-25
3.94833e-25
-5.94409e-25
3.08268e-25
-2.38561e-25
1.30188e-25
1.67442e-25
-7.36721e-26
5.00465e-25
-2.40159e-25
6.58337e-25
-3.14355e-25
6.00008e-25
-2.93549e-25
3.93691e-25
-2.05872e-25
8.44353e-26
-9.55069e-26
-1.54036e-25
-2.34519e-26
-2.92406e-25
1.41423e-26
-3.1682e-25
-7.79395e-27
-2.07001e-25
-4.1568e-26
-2.08867e-25
-3.12988e-26
-1.33956e-25
3.28211e-27
-2.17587e-25
1.33801e-25
-3.38689e-25
2.52036e-25
-2.64744e-25
3.50596e-25
-3.56688e-25
4.32129e-25
-1.05319e-27
3.58195e-25
2.32314e-25
2.69025e-25
4.11971e-25
7.58779e-26
7.92178e-25
-1.62249e-25
5.229e-25
-3.15888e-25
5.38643e-25
-5.04483e-25
2.15694e-25
-5.4703e-25
-2.5297e-25
-4.71186e-25
-2.58506e-25
-3.38165e-25
-5.7986e-25
-1.08367e-25
-4.7721e-25
7.11881e-26
-2.0026e-25
1.61187e-25
3.91284e-27
1.46612e-25
2.23938e-25
4.4725e-25
-1.78985e-24
-4.63764e-22
-6.72491e-25
-6.96988e-24
-3.88605e-26
-1.46228e-24
-2.75363e-25
8.10552e-25
-2.55545e-25
9.32821e-26
-4.37489e-25
8.20976e-25
-3.93153e-25
1.02182e-25
-3.8714e-25
3.90346e-25
-3.07592e-25
-7.43496e-26
-2.05417e-25
-1.53672e-25
-1.097e-25
-3.42201e-25
7.91841e-26
-4.26957e-25
2.13747e-25
-4.9616e-25
3.41184e-25
-5.06154e-25
3.97198e-25
-4.51558e-25
3.65752e-25
-2.76337e-25
2.49156e-25
-2.41735e-26
3.42613e-26
2.96922e-25
-2.18842e-25
6.27708e-25
-4.66605e-25
8.59556e-25
-6.41764e-25
9.29053e-25
-6.94865e-25
7.58188e-25
-6.03476e-25
3.81953e-25
-3.79811e-25
-1.27572e-25
-8.15933e-26
-6.29231e-25
2.10335e-25
-9.77646e-25
4.12734e-25
-1.05705e-24
4.71715e-25
-8.36645e-25
3.78412e-25
-3.73032e-25
1.71946e-25
1.74032e-25
-7.10355e-26
6.39734e-25
-2.747e-25
8.78341e-25
-3.71188e-25
8.28856e-25
-3.54539e-25
5.70339e-25
-2.5546e-25
1.60183e-25
-1.2616e-25
-1.662e-25
-3.8774e-26
-3.72876e-25
9.51571e-27
-4.20244e-25
-1.39054e-26
-2.92202e-25
-5.21209e-26
-3.03087e-25
-4.05166e-26
-2.01963e-25
1.06006e-27
-3.26181e-25
1.58009e-25
-4.7691e-25
3.00835e-25
-3.88275e-25
4.2435e-25
-5.05997e-25
5.26134e-25
-9.2638e-27
4.43437e-25
3.02123e-25
3.39957e-25
5.8748e-25
1.06713e-25
1.10259e-24
-1.79741e-25
7.50065e-25
-3.70509e-25
7.79041e-25
-6.02246e-25
2.99674e-25
-6.5946e-25
-3.36536e-25
-5.74831e-25
-3.80866e-25
-4.17192e-25
-8.27697e-25
-1.42474e-25
-6.83042e-25
7.61335e-26
-2.98586e-25
1.89206e-25
-4.22959e-28
1.74663e-25
3.14457e-25
6.22758e-25
-2.06672e-24
-4.6193e-22
-7.87566e-25
-9.01611e-24
-5.34075e-26
-1.93163e-24
-3.08212e-25
9.99405e-25
-2.91146e-25
1.11992e-25
-5.07679e-25
1.07254e-24
-4.60175e-25
1.52317e-25
-4.59842e-25
5.19846e-25
-3.6726e-25
-6.95703e-26
-2.54143e-25
-1.85399e-25
-1.43014e-25
-4.22567e-25
7.79502e-26
-5.40387e-25
2.37477e-25
-6.3588e-25
3.91725e-25
-6.5305e-25
4.63346e-25
-5.99328e-25
4.34795e-25
-3.81602e-25
3.05982e-25
-6.95927e-26
5.98991e-26
3.43541e-25
-2.34505e-25
7.776e-25
-5.27693e-25
1.09391e-24
-7.40594e-25
1.20889e-24
-8.14177e-25
1.01281e-24
-7.19476e-25
5.4541e-25
-4.67386e-25
-1.08013e-25
-1.22699e-25
-7.6787e-25
2.2152e-25
-1.24354e-24
4.67201e-25
-1.37939e-24
5.48786e-25
-1.12431e-24
4.52072e-25
-5.42545e-25
2.19174e-25
1.65514e-25
-6.28743e-26
7.87607e-25
-3.05381e-25
1.12625e-24
-4.26822e-25
1.0957e-24
-4.17003e-25
7.83733e-25
-3.08351e-25
2.60769e-25
-1.6081e-25
-1.67637e-25
-5.75749e-26
-4.57763e-25
2.44254e-27
-5.35943e-25
-2.15381e-26
-3.92784e-25
-6.37332e-26
-4.15998e-25
-5.1074e-26
-2.85476e-25
-2.58398e-27
-4.57872e-25
1.80893e-25
-6.39953e-25
3.49136e-25
-5.3806e-25
4.99515e-25
-6.83929e-25
6.23472e-25
-2.407e-26
5.34315e-25
3.7651e-25
4.17657e-25
7.9303e-25
1.4409e-25
1.46397e-24
-1.91663e-25
1.02263e-24
-4.22185e-25
1.06935e-24
-6.99693e-25
4.03263e-25
-7.74448e-25
-4.25855e-25
-6.83528e-25
-5.25542e-25
-5.02072e-25
-1.12084e-24
-1.82404e-25
-9.30059e-25
7.69698e-26
-4.22044e-25
2.15632e-25
-1.0609e-26
2.02594e-25
4.19154e-25
8.30809e-25
-2.34519e-24
-4.59854e-22
-9.07398e-25
-1.13234e-23
-7.04696e-26
-2.47522e-24
-3.37557e-25
1.19077e-24
-3.25163e-25
1.30262e-25
-5.76976e-25
1.35849e-24
-5.27985e-25
2.13391e-25
-5.3539e-25
6.72293e-25
-4.30107e-25
-5.58814e-26
-3.0781e-25
-2.16239e-25
-1.81309e-25
-5.06828e-25
7.21194e-26
-6.65217e-25
2.57605e-25
-7.91561e-25
4.40672e-25
-8.18827e-25
5.29946e-25
-7.70133e-25
5.06795e-25
-5.06833e-25
3.67795e-25
-1.31139e-25
9.1668e-26
3.85067e-25
-2.44052e-25
9.3681e-25
-5.8422e-25
1.35263e-24
-8.37634e-25
1.52564e-24
-9.35308e-25
1.30821e-24
-8.40845e-25
7.43992e-25
-5.62864e-25
-6.92693e-26
-1.72502e-25
-9.09591e-25
2.25292e-25
-1.53514e-24
5.17282e-25
-1.74385e-24
6.25403e-25
-1.45874e-24
5.28949e-25
-7.50086e-25
2.71972e-25
1.38172e-25
-4.87641e-26
9.40736e-25
-3.31607e-25
1.40006e-24
-4.80694e-25
1.40043e-24
-4.80555e-25
1.03544e-24
-3.64398e-25
3.88876e-25
-1.9951e-25
-1.55575e-25
-8.00034e-26
-5.4493e-25
-7.24511e-27
-6.62728e-25
-3.08021e-26
-5.08683e-25
-7.64913e-26
-5.47859e-25
-6.31203e-26
-3.85098e-25
-7.91228e-27
-6.13113e-25
2.01973e-25
-8.28125e-25
3.96353e-25
-7.15264e-25
5.75493e-25
-8.91711e-25
7.23659e-25
-4.77969e-26
6.30702e-25
4.53016e-25
5.02322e-25
1.02714e-24
1.88607e-25
1.87521e-24
-1.97116e-25
1.34206e-24
-4.69974e-25
1.41197e-24
-7.95897e-25
5.29505e-25
-8.91359e-25
-5.17455e-25
-7.97081e-25
-6.91175e-25
-5.92992e-25
-1.459e-24
-2.28723e-25
-1.21983e-24
7.30182e-26
-5.73449e-25
2.39939e-25
-2.90072e-26
2.3012e-25
5.36982e-25
1.0726e-24
-2.62411e-24
-4.57535e-22
-1.03206e-24
-1.38868e-23
-9.01222e-26
-3.09562e-24
-3.62957e-25
1.37795e-24
-3.57199e-25
1.47334e-25
-6.44724e-25
1.67876e-24
-5.96141e-25
2.85902e-25
-6.13498e-25
8.49457e-25
-4.95992e-25
-3.14511e-26
-3.66566e-25
-2.44731e-25
-2.24854e-25
-5.93319e-25
6.12245e-26
-8.00674e-25
2.73591e-25
-9.62499e-25
4.875e-25
-1.00341e-24
5.96561e-25
-9.64552e-25
5.81535e-25
-6.53149e-25
4.34644e-25
-2.10804e-25
1.29934e-25
4.1919e-25
-2.4683e-25
1.10296e-24
-6.35351e-25
1.63401e-24
-9.32023e-25
1.87884e-24
-1.05757e-24
1.6455e-24
-9.67234e-25
9.80373e-25
-6.66341e-25
-7.69304e-27
-2.31525e-25
-1.05064e-24
2.20833e-25
-1.84963e-24
5.62082e-25
-2.14939e-24
7.00841e-25
-1.84106e-24
6.08673e-25
-9.98618e-25
3.30395e-25
8.80902e-26
-2.82816e-26
1.0954e-24
-3.52752e-25
1.69734e-24
-5.32183e-25
1.74256e-24
-5.44748e-25
1.32683e-24
-4.23405e-25
5.47194e-25
-2.4229e-25
-1.27082e-25
-1.06203e-25
-6.31986e-25
-1.97246e-26
-7.99161e-25
-4.18234e-26
-6.39633e-25
-9.04955e-26
-6.98763e-25
-7.68183e-26
-5.01327e-25
-1.52031e-26
-7.9222e-25
2.20745e-25
-1.04163e-24
4.41858e-25
-9.21002e-25
6.51637e-25
-1.13057e-24
8.26159e-25
-8.30037e-26
7.32425e-25
5.28856e-25
5.94139e-25
1.2879e-24
2.40877e-25
2.33474e-24
-1.95151e-25
1.70961e-24
-5.12855e-25
1.80926e-24
-8.89841e-25
6.81721e-25
-1.00948e-24
-6.07387e-25
-9.15232e-25
-8.75964e-25
-6.90112e-25
-1.84146e-24
-2.82009e-25
-1.55379e-24
6.35655e-26
-7.55782e-25
2.61554e-25
-5.82995e-26
2.56915e-25
6.66604e-25
1.34916e-24
-2.90255e-24
-4.54973e-22
-1.16155e-24
-1.67002e-23
-1.12424e-25
-3.79522e-24
-3.83965e-25
1.5536e-24
-3.86827e-25
1.62303e-25
-7.10199e-25
2.03302e-24
-6.64146e-25
3.70214e-25
-6.93816e-25
1.05317e-24
-5.64721e-25
5.6047e-27
-4.30528e-25
-2.69265e-25
-2.73897e-25
-6.80193e-25
4.47871e-26
-9.45855e-25
2.84861e-25
-1.14781e-24
5.3164e-25
-1.20662e-24
6.62696e-25
-1.18305e-24
6.58747e-25
-8.2161e-25
5.06537e-25
-3.10617e-25
1.75047e-25
4.43461e-25
-2.42169e-25
1.27342e-24
-6.80204e-25
1.936e-24
-1.02282e-24
2.26774e-24
-1.18018e-24
2.02556e-24
-1.09821e-24
1.25718e-24
-7.77844e-25
8.05228e-26
-3.00268e-25
-1.18693e-24
2.07303e-25
-2.18377e-24
6.00646e-25
-2.59459e-24
7.74288e-25
-2.27207e-24
6.9079e-25
-1.29104e-24
3.94445e-25
1.11693e-26
-1.02033e-27
1.24752e-24
-3.68161e-25
2.01523e-24
-5.80614e-25
2.12125e-24
-6.09066e-25
1.65905e-24
-4.85113e-25
7.38395e-25
-2.89137e-25
-7.90815e-26
-1.36302e-25
-7.16285e-25
-3.51765e-26
-9.43542e-25
-5.47396e-26
-7.85151e-25
-1.05858e-25
-8.68613e-25
-9.23408e-26
-6.34544e-25
-2.47484e-26
-9.95364e-25
2.36682e-25
-1.28055e-24
4.8498e-25
-1.15633e-24
7.27241e-25
-1.40173e-24
9.30369e-25
-1.32477e-25
8.39256e-25
6.00917e-25
6.93258e-25
1.57293e-24
3.01516e-25
2.84049e-24
-1.84776e-25
2.12629e-24
-5.49731e-25
2.26347e-24
-9.80416e-25
8.6351e-25
-1.12798e-24
-6.91221e-25
-1.03765e-24
-1.07764e-24
-7.93552e-25
-2.26709e-24
-3.42832e-25
-1.93325e-24
4.78671e-26
-9.72167e-25
2.79852e-25
-1.01497e-25
2.82615e-25
8.06375e-25
1.66133e-24
-3.17959e-24
-4.52166e-22
-1.29584e-24
-1.97563e-23
-1.37417e-25
-4.57623e-24
-4.00146e-25
1.70976e-24
-4.13597e-25
1.74098e-25
-7.72609e-25
2.42067e-24
-7.31444e-25
4.66524e-25
-7.75922e-25
1.28529e-24
-6.36041e-25
5.72004e-26
-4.99771e-25
-2.88078e-25
-3.2866e-25
-7.65417e-25
2.23263e-26
-1.09972e-24
2.90821e-25
-1.34641e-24
5.72478e-25
-1.42811e-24
7.27797e-25
-1.42594e-24
7.38102e-25
-1.01319e-24
5.8343e-25
-4.3263e-25
2.27328e-25
4.55309e-25
-2.29398e-25
1.44529e-24
-7.17854e-25
2.25627e-24
-1.10901e-24
2.69122e-24
-1.30226e-24
2.44903e-24
-1.23322e-24
1.57696e-24
-8.97319e-25
1.99318e-25
-3.79187e-25
-1.31402e-24
1.83849e-25
-2.53383e-24
6.31959e-25
-3.07751e-24
8.44847e-25
-2.75225e-24
7.74753e-25
-1.63014e-24
4.64047e-25
-9.68376e-26
3.33948e-26
1.39265e-24
-3.77167e-25
2.35041e-24
-6.25257e-25
2.53521e-24
-6.72923e-25
2.03298e-24
-5.49199e-25
9.65095e-25
-3.39994e-25
-8.36957e-27
-1.70406e-25
-7.94925e-25
-5.37793e-26
-1.09389e-24
-6.96973e-26
-9.44509e-25
-1.22701e-25
-1.05711e-24
-1.09868e-25
-7.8499e-25
-3.68504e-26
-1.22255e-24
2.49236e-25
-1.54485e-24
5.25009e-25
-1.4222e-24
8.01536e-25
-1.70638e-24
1.03561e-24
-1.99221e-25
9.50891e-25
6.6576e-25
7.99778e-25
1.87936e-24
3.71127e-25
3.38991e-24
-1.64971e-25
2.59284e-24
-5.79429e-25
2.77675e-24
-1.06641e-24
1.07872e-24
-1.24596e-24
-7.64045e-25
-1.16389e-24
-1.29344e-24
-9.03379e-25
-2.73426e-24
-4.11753e-25
-2.35932e-24
2.51515e-26
-1.22585e-24
2.94155e-25
-1.61948e-25
3.06808e-25
9.54317e-25
2.00974e-24
-3.45429e-24
-4.49115e-22
-1.43493e-24
-2.30464e-23
-1.65128e-25
-5.44059e-24
-4.11078e-25
1.83785e-24
-4.37039e-25
1.81473e-25
-8.31097e-25
2.84078e-24
-7.97423e-25
5.74831e-25
-8.59313e-25
1.54773e-24
-7.09629e-25
1.25254e-25
-5.74317e-25
-2.99251e-25
-3.89325e-25
-8.46773e-25
-6.63348e-27
-1.26109e-24
2.9086e-25
-1.557e-24
6.09358e-25
-1.66741e-24
7.91249e-25
-1.69339e-24
8.19205e-25
-1.22878e-24
6.65217e-25
-5.78894e-25
2.87057e-25
4.52057e-25
-2.07851e-25
1.61543e-24
-7.47343e-25
2.59211e-24
-1.1895e-24
3.14781e-24
-1.42282e-24
2.91625e-24
-1.37162e-24
1.94215e-24
-1.02461e-24
3.52732e-25
-4.68682e-25
-1.42716e-24
1.49628e-25
-2.89563e-24
6.54958e-25
-3.59576e-24
9.11528e-25
-3.28169e-24
8.59911e-25
-2.01854e-24
5.39044e-25
-2.40289e-25
7.52931e-26
1.52598e-24
-3.79096e-25
2.69909e-24
-6.65335e-25
2.98272e-24
-7.35659e-25
2.44917e-24
-6.15262e-25
1.22981e-24
-3.94741e-25
8.83538e-26
-2.08591e-25
-8.64754e-25
-7.57031e-26
-1.24795e-24
-8.68478e-26
-1.11671e-24
-1.41155e-25
-1.26371e-24
-1.29582e-25
-9.52749e-25
-5.18183e-26
-1.47361e-24
2.5784e-25
-1.83434e-24
5.61196e-25
-1.71951e-24
8.73688e-25
-2.04569e-24
1.14113e-24
-2.86437e-25
1.06694e-24
7.19629e-25
9.13733e-25
2.20386e-24
4.50284e-25
3.97989e-24
-1.34696e-25
3.10967e-24
-6.00709e-25
3.35107e-24
-1.14651e-24
1.33144e-24
-1.36237e-24
-8.20478e-25
-1.29345e-24
-1.52006e-24
-1.01959e-24
-3.24082e-24
-4.89305e-25
-2.83287e-24
-5.37339e-27
-1.52015e-24
3.03732e-25
-2.43338e-25
3.29033e-25
1.1081e-24
2.39467e-24
-3.72562e-24
-4.45823e-22
-1.5788e-24
-2.65604e-23
-1.95569e-25
-6.38998e-24
-4.16373e-25
1.92865e-24
-4.5667e-25
1.82993e-25
-8.84739e-25
3.29208e-24
-8.61412e-25
6.94904e-25
-9.43402e-25
1.84239e-24
-7.8509e-25
2.11656e-25
-6.54124e-25
-3.00712e-25
-4.56023e-25
-9.21863e-25
-4.25529e-26
-1.42864e-24
2.84358e-25
-1.77806e-24
6.41584e-25
-1.92389e-24
8.52378e-25
-1.98536e-24
9.0159e-25
-1.46912e-24
7.51719e-25
-7.51431e-25
3.54464e-25
4.30948e-25
-1.76886e-25
1.78044e-24
-7.67693e-25
2.94048e-24
-1.26313e-24
3.63565e-24
-1.54076e-24
3.42723e-24
-1.51262e-24
2.355e-24
-1.15946e-24
5.44859e-25
-5.69073e-25
-1.5213e-24
1.03815e-25
-3.26452e-24
6.6854e-25
-4.14638e-24
9.73257e-25
-3.86003e-24
9.45506e-25
-2.45868e-24
6.19178e-25
-4.23608e-25
1.24943e-25
1.64239e-24
-3.73284e-25
3.05697e-24
-7.00028e-25
3.46154e-24
-7.9654e-25
2.90783e-24
-6.82822e-25
1.5349e-24
-4.53195e-25
2.14454e-25
-2.50891e-25
-9.22384e-25
-1.01104e-25
-1.40315e-24
-1.06344e-25
-1.30048e-24
-1.61353e-25
-1.48764e-24
-1.51669e-25
-1.13772e-24
-6.99634e-26
-1.74818e-24
2.61919e-25
-2.14868e-24
5.92757e-25
-2.04898e-24
9.42798e-25
-2.42075e-24
1.24608e-24
-3.9751e-25
1.18691e-24
7.58458e-25
1.03507e-24
2.54256e-24
5.39519e-25
4.60676e-24
-9.2909e-26
3.67683e-24
-6.12267e-25
3.98821e-24
-1.21932e-24
1.62596e-24
-1.47605e-24
-8.54678e-25
-1.42566e-24
-1.75365e-24
-1.14211e-24
-3.78407e-24
-5.75983e-25
-3.35449e-24
-4.45119e-26
-1.85846e-24
3.07799e-25
-3.49689e-25
3.48779e-25
1.26503e-24
2.8161e-24
-3.99257e-24
-4.4229e-22
-1.72743e-24
-3.02871e-23
-2.28739e-25
-7.42579e-24
-4.15683e-25
1.97238e-24
-4.71996e-25
1.7703e-25
-9.32548e-25
3.77286e-24
-9.22681e-25
8.26253e-25
-1.02751e-24
2.17117e-24
-8.61942e-25
3.18235e-25
-7.39079e-25
-2.90236e-25
-5.28824e-25
-9.88112e-25
-8.58678e-26
-1.60088e-24
2.70694e-25
-2.00783e-24
6.6843e-25
-2.19674e-24
9.10446e-25
-2.30162e-24
9.84718e-25
-1.73481e-24
8.42678e-25
-9.52205e-25
4.2971e-25
3.89168e-25
-1.35894e-25
1.93671e-24
-7.77915e-25
3.29799e-24
-1.32868e-24
4.15243e-24
-1.6549e-24
3.98159e-24
-1.65532e-24
2.81754e-24
-1.30147e-24
7.79805e-25
-6.80585e-25
-1.5911e-24
4.56266e-26
-3.63536e-24
6.71574e-25
-4.72587e-24
1.02887e-24
-4.48645e-24
1.03066e-24
-2.95266e-24
7.04078e-25
-6.5123e-25
1.82538e-25
1.73647e-24
-3.59086e-25
3.41931e-24
-7.2848e-25
3.96891e-24
-8.54757e-25
3.40871e-24
-7.5131e-25
1.88253e-24
-5.15097e-25
3.73322e-25
-2.97296e-25
-9.64208e-25
-1.30119e-25
-1.55663e-24
-1.28337e-25
-1.49423e-24
-1.83433e-25
-1.72782e-24
-1.76309e-25
-1.33961e-24
-9.15945e-26
-2.04568e-24
2.60891e-25
-2.48737e-24
6.18881e-25
-2.41124e-24
1.0079e-24
-2.83261e-24
1.34953e-24
-5.35978e-25
1.31019e-24
7.77887e-25
1.16365e-24
2.89107e-24
6.39299e-25
5.26629e-24
-3.85823e-26
4.29393e-24
-6.12749e-25
4.68967e-24
-1.28332e-24
1.96671e-24
-1.58574e-24
-8.6037e-25
-1.55973e-24
-1.98977e-24
-1.27075e-24
-4.36071e-24
-6.72226e-25
-3.92443e-24
-9.30705e-26
-2.24415e-24
3.0552e-25
-4.85352e-25
3.6548e-25
1.42201e-24
3.27357e-24
-4.2541e-24
-4.38519e-22
-1.88081e-24
-3.42137e-23
-2.64622e-25
-8.54903e-24
-4.08715e-25
1.95868e-24
-4.82528e-25
1.61757e-25
-9.7348e-25
4.28099e-24
-9.80444e-25
9.68092e-25
-1.11084e-24
2.5359e-24
-9.3962e-25
4.46712e-25
-8.28984e-25
-2.65448e-25
-6.07722e-25
-1.04279e-24
-1.36978e-25
-1.77619e-24
2.4926e-25
-2.2443e-24
6.89137e-25
-2.48499e-24
9.6466e-25
-2.6417e-24
1.06797e-24
-2.0263e-24
9.37747e-25
-1.18309e-24
5.12882e-25
3.23875e-25
-8.43149e-26
2.0804e-24
-7.77022e-25
3.6609e-24
-1.38487e-24
4.69544e-24
-1.76394e-24
4.57856e-24
-1.79867e-24
3.33154e-24
-1.45009e-24
1.06163e-24
-8.03324e-25
-1.63102e-24
-2.5664e-26
-4.00256e-24
6.62916e-25
-5.33014e-24
1.07713e-24
-5.15955e-24
1.11438e-24
-3.5023e-24
7.93249e-25
-9.27539e-25
2.48177e-25
1.80252e-24
-3.35894e-25
3.78087e-24
-7.49811e-25
4.50152e-24
-9.09429e-25
3.95113e-24
-8.20069e-25
2.27462e-24
-5.80104e-25
5.68329e-25
-3.47736e-25
-9.86421e-25
-1.62855e-25
-1.70524e-24
-1.52969e-25
-1.69604e-24
-2.0753e-25
-1.98289e-24
-2.03672e-25
-1.55789e-24
-1.17011e-25
-2.36529e-24
2.54178e-25
-2.84972e-24
6.38731e-25
-2.80669e-24
1.06797e-24
-3.28218e-24
1.45043e-24
-7.05508e-25
1.43608e-24
7.73281e-25
1.2992e-24
3.24452e-24
7.50009e-25
5.95363e-24
2.92798e-26
4.96009e-24
-6.00762e-25
5.45663e-24
-1.33692e-24
2.35828e-24
-1.69e-24
-8.30868e-25
-1.69475e-24
-2.22339e-24
-1.40521e-24
-4.96677e-24
-7.78402e-25
-4.5425e-24
-1.51846e-25
-2.68055e-24
2.96014e-25
-6.54987e-25
3.78514e-25
1.57554e-24
3.76612e-24
-4.50915e-24
-4.34515e-22
-2.03892e-24
-3.83262e-23
-3.03197e-25
-9.76035e-24
-3.95247e-25
1.87666e-24
-4.87781e-25
1.35153e-25
-1.00644e-24
4.81382e-24
-1.03387e-24
1.11932e-24
-1.19253e-24
2.93839e-24
-1.01746e-24
5.98663e-25
-9.23543e-25
-2.2383e-25
-6.92628e-25
-1.083e-24
-1.96236e-25
-1.95278e-24
2.19469e-25
-2.48521e-24
7.02931e-25
-2.78749e-24
1.01417e-24
-3.00487e-24
1.15065e-24
-2.3438e-24
1.03648e-24
-1.44585e-24
6.03976e-25
2.32239e-25
-2.16555e-26
2.20748e-24
-7.64047e-25
4.02515e-24
-1.4304e-24
5.26148e-24
-1.86646e-24
5.21687e-24
-1.94147e-24
3.89842e-24
-1.60463e-24
1.3943e-24
-9.37262e-25
-1.63529e-24
-1.10703e-25
-4.36007e-24
6.41423e-25
-5.95451e-24
1.11672e-24
-5.87737e-24
1.19554e-24
-4.10896e-24
8.8606e-25
-1.2568e-24
3.21853e-25
1.83467e-24
-3.03151e-25
4.13594e-24
-7.63125e-25
5.05549e-24
-9.59609e-25
4.53388e-24
-8.88345e-25
2.71275e-24
-6.47783e-25
8.02774e-25
-4.0208e-25
-9.85057e-25
-1.99387e-25
-1.84553e-24
-1.80371e-25
-1.90366e-24
-2.33773e-25
-2.25118e-24
-2.33916e-25
-1.79178e-24
-1.46498e-25
-2.70595e-24
2.41212e-25
-3.23482e-24
6.51459e-25
-3.23559e-24
1.12192e-24
-3.77028e-24
1.54768e-24
-9.0985e-25
1.5637e-24
7.39757e-25
1.44132e-24
3.59745e-24
8.71931e-25
6.66334e-24
1.11619e-25
5.6739e-24
-5.74889e-25
6.28992e-24
-1.37843e-24
2.80529e-24
-1.7873e-24
-7.59122e-25
-1.82962e-24
-2.44882e-24
-1.54507e-24
-5.59762e-24
-8.94788e-25
-5.20807e-24
-2.21611e-25
-3.17085e-24
2.78354e-25
-8.63542e-25
3.87203e-25
1.7217e-24
4.29224e-24
-4.75671e-24
-4.30281e-22
-2.20176e-24
-4.26092e-23
-3.44434e-25
-1.10599e-23
-3.75141e-25
1.71498e-24
-4.8729e-25
9.50069e-26
-1.03031e-24
5.36815e-24
-1.08206e-24
1.27847e-24
-1.27156e-24
3.3803e-24
-1.0947e-24
7.75463e-25
-1.02236e-24
-1.62727e-25
-7.83348e-25
-1.10575e-24
-2.63932e-25
-2.12872e-24
1.80768e-25
-2.72801e-24
7.09021e-25
-3.10289e-24
1.05808e-24
-3.39015e-24
1.23198e-24
-2.68735e-24
1.13833e-24
-1.74207e-24
7.02887e-25
1.11478e-25
5.2498e-26
2.31379e-24
-7.38056e-25
4.38633e-24
-1.46392e-24
5.84689e-24
-1.96098e-24
5.89481e-24
-2.08236e-24
4.51924e-24
-1.76422e-24
1.78161e-24
-1.08221e-24
-1.59805e-24
-2.10034e-25
-4.70143e-24
6.05978e-25
-6.59367e-24
1.14628e-24
-6.6373e-24
1.2729e-24
-4.77355e-24
9.81731e-25
-1.6431e-24
4.03431e-25
1.82686e-24
-2.60369e-25
4.47838e-24
-7.67525e-25
5.62634e-24
-1.00429e-24
5.15517e-24
-9.5529e-25
3.19812e-24
-7.17604e-25
1.07983e-24
-4.60122e-25
-9.5602e-25
-2.39743e-25
-1.97378e-24
-2.10652e-25
-2.11449e-24
-2.62279e-25
-2.53066e-24
-2.6718e-25
-2.04023e-24
-1.80315e-25
-3.06632e-24
2.2145e-25
-3.64157e-24
6.56214e-25
-3.69793e-24
1.16863e-24
-4.29757e-24
1.64005e-24
-1.1528e-24
1.69205e-24
6.72216e-25
1.58947e-24
3.94393e-24
1.00522e-24
7.38934e-24
2.09298e-25
6.43336e-24
-5.33707e-25
7.18989e-24
-1.4061e-24
3.31238e-24
-1.87593e-24
-6.37765e-25
-1.96309e-24
-2.65977e-24
-1.68974e-24
-6.24787e-24
-1.02155e-24
-5.91993e-24
-3.03098e-25
-3.71808e-24
2.51583e-25
-1.11621e-24
3.90816e-25
1.85612e-24
4.84978e-24
-4.99579e-24
-4.25822e-22
-2.36937e-24
-4.7046e-23
-3.88299e-25
-1.24476e-23
-3.48361e-25
1.46189e-24
-4.80619e-25
3.89346e-26
-1.04391e-24
5.94015e-24
-1.1241e-24
1.44373e-24
-1.34685e-24
3.86318e-24
-1.17047e-24
9.78234e-25
-1.12491e-24
-7.93579e-26
-8.79576e-25
-1.10793e-24
-3.4028e-25
-2.3019e-24
1.32654e-25
-2.96991e-24
7.06619e-25
-3.42965e-24
1.09543e-24
-3.79623e-24
1.31109e-24
-3.0567e-24
1.24262e-24
-2.07314e-24
8.09393e-25
-4.10983e-26
1.38461e-25
2.39503e-24
-6.98167e-25
4.73976e-24
-1.48406e-24
6.44755e-24
-2.04591e-24
6.61009e-24
-2.21986e-24
5.19458e-24
-1.92778e-24
2.22711e-24
-1.23781e-24
-1.51332e-24
-3.24073e-25
-5.0198e-24
5.55504e-25
-7.24172e-24
1.16437e-24
-7.43605e-24
1.34509e-24
-5.49639e-24
1.07933e-24
-2.09023e-24
4.92634e-25
1.77298e-24
-2.07152e-25
4.80165e-24
-7.6213e-25
6.20896e-24
-1.0424e-24
5.81261e-24
-1.01996e-24
3.7315e-24
-7.88931e-25
1.40247e-24
-5.21573e-25
-8.95136e-25
-2.83902e-25
-2.086e-24
-2.43897e-25
-2.32557e-24
-2.93152e-25
-2.81898e-24
-3.03576e-25
-2.30188e-24
-2.18694e-25
-3.44478e-24
1.94379e-25
-4.06862e-24
6.52152e-25
-4.19345e-24
1.20691e-24
-4.86454e-24
1.72622e-24
-1.43817e-24
1.82e-24
5.65384e-25
1.74294e-24
4.27751e-24
1.14989e-24
8.12492e-24
3.23075e-25
7.2358e-24
-4.75811e-25
8.15638e-24
-1.4181e-24
3.88409e-24
-1.9541e-24
-4.59172e-25
-2.09371e-24
-2.8493e-24
-1.83846e-24
-6.91139e-24
-1.15871e-24
-6.67624e-24
-3.96978e-25
-4.32495e-24
2.14715e-25
-1.4184e-24
3.88565e-25
1.97401e-24
5.43582e-24
-5.22542e-24
-4.21146e-22
-2.54178e-24
-5.16185e-23
-4.34762e-25
-1.39224e-23
-3.1499e-25
1.10531e-24
-4.67371e-25
-3.56055e-26
-1.04608e-24
6.52534e-24
-1.15904e-24
1.61287e-24
-1.41716e-24
4.38838e-24
-1.24381e-24
1.20779e-24
-1.23054e-24
2.91683e-26
-9.8088e-25
-1.08636e-24
-4.25406e-25
-2.4701e-24
7.46915e-26
-3.20786e-24
6.94945e-25
-3.76607e-24
1.12526e-24
-4.2215e-24
1.38705e-24
-3.45136e-24
1.3486e-24
-2.44021e-24
9.23147e-25
-2.28044e-25
2.36433e-25
2.44682e-24
-6.43571e-25
5.08046e-24
-1.48947e-24
7.05884e-24
-2.11959e-24
7.3599e-24
-2.35232e-24
5.92452e-24
-2.09407e-24
2.73405e-24
-1.4035e-24
-1.37516e-24
-4.53086e-25
-5.308e-24
4.88995e-25
-7.89214e-24
1.16954e-24
-8.26961e-24
1.41064e-24
-6.2772e-24
1.17775e-24
-2.60162e-24
5.89029e-25
1.66687e-24
-1.43208e-25
5.09883e-24
-7.46091e-25
6.79768e-24
-1.07284e-24
6.50317e-24
-1.08133e-24
4.3131e-24
-8.61022e-25
1.77341e-24
-5.86054e-25
-7.98201e-25
-3.3178e-25