/*--------------------------------*- C++ -*----------------------------------*\
| =========                 |                                                 |
| \\      /  F ield         | foam-extend: Open Source CFD                    |
|  \\    /   O peration     | Version:     4.0                                |
|   \\  /    A nd           | Web:         http://www.foam-extend.org         |
|    \\/     M anipulation  |                                                 |
\*---------------------------------------------------------------------------*/
FoamFile
{
    version     2.0;
    format      ascii;
    class       surfaceScalarField;
    location    "5";
    object      phi;
}
// * * * * * * * * * * * * * * * * * * * * * * * * * * * * * * * * * * * * * //

dimensions      [0 3 -1 0 0 0 0];

internalField   nonuniform List<scalar> 
13744
(
-9.03836e-26
8.84106e-26
-8.30309e-26
-7.35266e-27
7.72961e-28
-8.38039e-26
2.81156e-28
4.91778e-28
5.18281e-28
-2.3715e-28
1.40356e-27
-8.85295e-28
1.78203e-27
-3.78481e-28
1.31864e-27
4.63398e-28
8.72226e-28
4.46431e-28
3.76792e-28
4.95453e-28
3.99179e-29
3.36894e-28
-8.16726e-29
1.21608e-28
4.82916e-29
-1.29949e-28
3.84504e-28
-3.36201e-28
8.10016e-28
-4.25504e-28
1.23013e-27
-4.20108e-28
1.51798e-27
-2.87847e-28
1.62099e-27
-1.03021e-28
1.50031e-27
1.20676e-28
1.20322e-27
2.97071e-28
7.95945e-28
4.07267e-28
3.78975e-28
4.16955e-28
3.90167e-29
3.39946e-28
-1.47616e-28
1.86624e-28
-1.4883e-28
1.2108e-30
2.22959e-29
-1.71125e-28
3.1091e-28
-2.88608e-28
6.38271e-28
-3.27351e-28
9.15444e-28
-2.77159e-28
1.06135e-27
-1.45897e-28
1.02369e-27
3.76764e-29
7.87072e-28
2.36625e-28
3.77352e-28
4.09722e-28
-1.46376e-28
5.23726e-28
-6.94545e-28
5.48164e-28
-1.17385e-27
4.79294e-28
-1.49011e-27
3.16251e-28
-1.58288e-27
9.27618e-29
-1.4137e-27
-1.69186e-28
-1.01607e-27
-3.97626e-28
-4.44256e-28
-5.71817e-28
1.66721e-28
-6.10975e-28
7.03038e-28
-5.36313e-28
9.79503e-28
-2.76463e-28
9.24209e-28
5.52972e-29
4.283e-28
4.95912e-28
-3.99183e-28
8.27487e-28
-1.50534e-27
1.10616e-27
-2.55594e-27
1.0506e-27
-3.39448e-27
8.38556e-28
-3.60542e-27
2.1094e-28
-3.20621e-27
-3.99204e-28
-2.00212e-27
-1.20409e-27
-4.72871e-28
-1.52926e-27
1.18502e-27
-1.6579e-27
2.03091e-27
-8.45908e-28
2.34188e-27
-3.10986e-28
6.49605e-28
1.69227e-27
-2.51148e-28
9.00753e-28
-2.51143e-28
-1.00723e-25
1.89134e-25
-3.14075e-26
-7.66685e-26
2.9718e-27
-1.18183e-25
2.6605e-27
8.03025e-28
2.16624e-27
2.5703e-28
2.15116e-27
-8.70291e-28
1.74881e-27
2.38217e-29
8.44615e-28
1.36757e-27
4.71722e-28
8.19333e-28
5.14205e-28
4.52999e-28
9.93773e-28
-1.42636e-28
1.77406e-27
-6.58635e-28
2.66731e-27
-1.02316e-27
3.49274e-27
-1.1616e-27
4.03912e-27
-9.71849e-28
4.23429e-27
-6.15251e-28
4.02125e-27
-7.47828e-29
3.47886e-27
4.39375e-28
2.70153e-27
8.97996e-28
1.86026e-27
1.13833e-27
1.10143e-27
1.16607e-27
5.52931e-28
9.65416e-28
2.77877e-28
6.1496e-28
2.88823e-28
1.75642e-28
5.33309e-28
-2.43301e-28
9.09292e-28
-5.47123e-28
1.29094e-27
-6.70258e-28
1.55728e-27
-5.93671e-28
1.61169e-27
-3.31537e-28
1.3952e-27
7.06374e-29
9.01228e-28
5.31681e-28
1.71176e-28
9.66706e-28
-7.11807e-28
1.29272e-27
-1.64021e-27
1.45214e-27
-2.48836e-27
1.3963e-27
-3.14271e-27
1.13362e-27
-3.50352e-27
6.7704e-28
-3.51978e-27
1.08995e-28
-3.1789e-27
-5.10093e-28
-2.55696e-27
-1.01958e-27
-1.77128e-27
-1.3575e-27
-1.02629e-27
-1.35596e-27
-5.19566e-28
-1.04302e-27
-4.89039e-28
-3.06976e-28
-1.05143e-27
6.17699e-28
-2.25968e-27
1.70418e-27
-3.94427e-27
2.51209e-27
-5.83367e-27
2.99558e-27
-7.46815e-27
2.6851e-27
-8.38661e-27
1.75703e-27
-8.18967e-27
1.40167e-29
-6.70825e-27
-1.8806e-27
-4.16109e-27
-3.75125e-27
-1.08573e-27
-4.60463e-27
1.60132e-27
-4.34498e-27
2.76411e-27
-2.00875e-27
2.71692e-27
-2.63837e-28
-2.80506e-28
4.68967e-27
-1.75284e-27
2.37308e-27
-2.00397e-27
-1.5134e-25
3.40474e-25
-2.01268e-26
-2.07882e-25
3.06075e-27
-1.41371e-25
4.30829e-27
-4.44584e-28
3.91736e-27
6.47826e-28
3.22361e-27
-1.76689e-28
2.32842e-27
9.18905e-28
1.46126e-27
2.23467e-27
1.2998e-27
9.80768e-28
1.83125e-27
-7.84358e-29
2.86149e-27
-1.17283e-27
4.17309e-27
-1.97018e-27
5.41424e-27
-2.26425e-27
6.3673e-27
-2.1146e-27
6.79367e-27
-1.39816e-27
6.67323e-27
-4.9476e-28
6.02544e-27
5.73065e-28
5.02122e-27
1.44363e-27
3.84381e-27
2.07542e-27
2.71561e-27
2.26652e-27
1.8079e-27
2.07375e-27
1.22862e-27
1.54464e-27
1.00137e-27
8.42141e-28
1.07541e-27
1.01535e-28
1.34149e-27
-5.09437e-28
1.65212e-27
-8.57792e-28
1.86245e-27
-8.80606e-28
1.85559e-27
-5.86796e-28
1.56318e-27
-3.9096e-29
9.68894e-28
6.64985e-28
1.11542e-28
1.38909e-27
-9.29144e-28
2.00744e-27
-2.04755e-27
2.41117e-27
-3.13079e-27
2.5354e-27
-4.06847e-27
2.33398e-27
-4.77182e-27
1.83694e-27
-5.17591e-27
1.08109e-27
-5.25796e-27
1.9101e-28
-5.03407e-27
-7.34023e-28
-4.58727e-27
-1.46641e-27
-4.04293e-27
-1.90184e-27
-3.58614e-27
-1.81274e-27
-3.40797e-27
-1.22118e-27
-3.70169e-27
-1.32282e-29
-4.57384e-27
1.48987e-27
-6.01195e-27
3.14231e-27
-7.85381e-27
4.35396e-27
-9.73831e-27
4.88009e-27
-1.12696e-26
4.21641e-27
-1.18723e-26
2.35973e-27
-1.13298e-26
-5.28508e-28
-9.3169e-27
-3.89342e-27
-6.38193e-27
-6.68619e-27
-2.86652e-27
-8.12004e-27
2.38719e-29
-7.23539e-27
1.21289e-27
-3.19782e-27
1.20344e-27
-2.54455e-28
-1.83018e-27
7.72322e-27
-3.23856e-27
3.78144e-27
-5.24251e-27
-1.49309e-25
4.89784e-25
-6.46752e-26
-2.92516e-25
3.36276e-27
-2.09409e-25
5.84734e-27
-2.92925e-27
5.256e-27
1.23898e-27
3.79393e-27
1.28518e-27
2.45636e-27
2.2563e-27
1.74583e-27
2.94508e-27
2.00667e-27
7.19874e-28
3.26588e-27
-1.33764e-27
5.04556e-27
-2.95248e-27
7.02439e-27
-3.94894e-27
8.66094e-27
-3.90073e-27
9.71337e-27
-3.16695e-27
9.92678e-27
-1.61149e-27
9.36735e-27
6.47636e-29
8.15508e-27
1.78541e-27
6.58149e-27
3.01728e-27
4.93177e-27
3.72517e-27
3.48795e-27
3.71035e-27
2.44143e-27
3.12025e-27
1.87078e-27
2.11523e-27
1.74528e-27
9.6755e-28
1.93704e-27
-9.03176e-29
2.26776e-27
-8.40251e-28
2.53678e-27
-1.12688e-27
2.57672e-27
-9.20597e-28
2.27592e-27
-2.85993e-28
1.59767e-27
6.39207e-28
5.73508e-28
1.68922e-27
-7.07834e-28
2.67052e-27
-2.123e-27
3.42269e-27
-3.54068e-27
3.82891e-27
-4.8369e-27
3.83167e-27
-5.91234e-27
3.40942e-27
-6.69444e-27
2.61901e-27
-7.14756e-27
1.53415e-27
-7.26992e-27
3.13311e-28
-7.10637e-27
-8.97636e-28
-6.75318e-27
-1.81965e-27
-6.3574e-27
-2.29764e-27
-6.11316e-27
-2.05697e-27
-6.22257e-27
-1.11174e-27
-6.87657e-27
6.4079e-28
-8.15672e-27
2.77004e-27
-1.00222e-26
5.00777e-27
-1.2226e-26
6.55781e-27
-1.4355e-26
7.00909e-27
-1.58936e-26
5.75501e-27
-1.62516e-26
2.71778e-27
-1.51561e-26
-1.62401e-27
-1.23886e-26
-6.66082e-27
-8.58226e-27
-1.04925e-26
-4.36293e-27
-1.23393e-26
-9.4987e-28
-1.06485e-26
7.50548e-29
-4.22281e-27
-1.40535e-28
-3.89611e-29
-3.7178e-27
1.13004e-26
-5.13634e-27
5.19994e-27
-1.03788e-26
-8.20126e-26
5.71797e-25
-5.6443e-26
-3.18085e-25
4.594e-27
-2.70446e-25
8.3647e-27
-6.70004e-27
7.24348e-27
2.35997e-27
4.58338e-27
3.945e-27
2.47821e-27
4.36125e-27
1.7052e-27
3.71792e-27
2.31381e-27
1.11182e-28
4.37798e-27
-3.40182e-27
7.09345e-27
-5.66791e-27
9.97093e-27
-6.82635e-27
1.22172e-26
-6.14688e-27
1.35162e-26
-4.4659e-27
1.35707e-26
-1.66588e-27
1.2533e-26
1.10258e-27
1.06455e-26
3.67302e-27
8.35612e-27
5.30678e-27
6.09057e-27
5.99078e-27
4.22312e-27
5.57782e-27
2.98406e-27
4.35929e-27
2.42569e-27
2.67352e-27
2.45076e-27
9.42362e-28
2.83225e-27
-4.71926e-28
3.29698e-27
-1.30511e-27
3.56867e-27
-1.39867e-27
3.44324e-27
-7.95234e-28
2.81131e-27
3.45926e-28
1.67577e-27
1.7748e-27
1.32407e-28
3.23267e-27
-1.66038e-27
4.46341e-27
-3.51694e-27
5.27936e-27
-5.2678e-27
5.57987e-27
-6.77353e-27
5.33746e-27
-7.95142e-27
4.58732e-27
-8.75729e-27
3.42485e-27
-9.20297e-27
1.97977e-27
-9.32403e-27
4.343e-28
-9.2098e-27
-1.01195e-27
-8.97477e-27
-2.05475e-27
-8.78946e-27
-2.48297e-27
-8.8443e-27
-2.00212e-27
-9.34127e-27
-6.14739e-28
-1.04455e-26
1.74506e-27
-1.22014e-26
4.52593e-27
-1.4521e-26
7.32738e-27
-1.70723e-26
9.10921e-27
-1.93901e-26
9.32686e-27
-2.08535e-26
7.21844e-27
-2.08797e-26
2.74401e-27
-1.91548e-26
-3.34888e-27
-1.56003e-26
-1.02152e-26
-1.09233e-26
-1.51694e-26
-6.05246e-27
-1.72101e-26
-2.17081e-27
-1.45301e-26
-1.32662e-27
-5.06709e-27
-1.71797e-27
3.52264e-28
-5.64911e-27
1.52314e-26
-6.98208e-27
6.53287e-27
-1.73609e-26
-7.3413e-26
6.4521e-25
-4.63013e-26
-3.45196e-25
6.1157e-27
-3.22863e-25
1.10936e-26
-1.1678e-26
9.43816e-27
4.01513e-27
5.52836e-27
7.85445e-27
2.58615e-27
7.30316e-27
1.71676e-27
4.5871e-27
2.67103e-27
-8.4322e-28
5.56652e-27
-6.29734e-27
9.26639e-27
-9.36774e-27
1.30986e-26
-1.06585e-26
1.60045e-26
-9.05272e-27
1.75823e-26
-6.04352e-27
1.74863e-26
-1.56978e-27
1.59543e-26
2.63468e-27
1.33564e-26
6.27109e-27
1.03049e-26
8.35846e-27
7.37578e-27
8.91994e-27
5.04394e-27
7.90969e-27
3.58435e-27
5.81886e-27
3.02479e-27
3.233e-27
3.19974e-27
7.67271e-28
3.77821e-27
-1.05054e-27
4.38592e-27
-1.91298e-27
4.66471e-27
-1.6776e-27
4.36906e-27
-4.99688e-28
3.38956e-27
1.32541e-27
1.76911e-27
3.3953e-27
-3.29554e-28
5.33144e-27
-2.6739e-27
6.80788e-27
-5.01128e-27
7.61686e-27
-7.12961e-27
7.69832e-27
-8.87115e-27
7.0791e-27
-1.01685e-26
5.88468e-27
-1.10065e-26
4.26284e-27
-1.14464e-26
2.41956e-27
-1.1564e-26
5.51883e-28
-1.14967e-26
-1.07933e-27
-1.13803e-26
-2.17123e-27
-1.14124e-26
-2.45091e-27
-1.17808e-26
-1.63381e-27
-1.26903e-26
2.94876e-28
-1.42768e-26
3.33154e-27
-1.655e-26
6.79916e-27
-1.93632e-26
1.01406e-26
-2.23035e-26
1.20495e-26
-2.48316e-26
1.18549e-26
-2.62327e-26
8.61951e-27
-2.5902e-26
2.41336e-27
-2.3513e-26
-5.73783e-27
-1.90961e-26
-1.46319e-26
-1.34843e-26
-2.07812e-26
-7.87879e-27
-2.28156e-26
-3.48792e-27
-1.8921e-26
-2.80416e-27
-5.75094e-27
-3.37704e-27
9.24986e-28
-7.72223e-27
1.95765e-26
-8.9545e-27
7.76507e-27
-2.63153e-26
-6.70733e-26
7.12283e-25
-3.86481e-26
-3.73621e-25
7.98737e-27
-3.69498e-25
1.4124e-26
-1.78147e-26
1.18895e-26
6.24928e-27
6.64179e-27
1.31018e-26
2.77317e-27
1.11714e-26
1.75447e-27
5.60552e-27
3.04526e-27
-2.13418e-27
6.80388e-27
-1.0056e-26
1.15502e-26
-1.4114e-26
1.64107e-26
-1.55189e-26
2.00427e-26
-1.26846e-26
2.19432e-26
-7.94392e-27
2.17103e-26
-1.33665e-27
1.96664e-26
4.67868e-27
1.63157e-26
9.62205e-27
1.24456e-26
1.22287e-26
8.79489e-27
1.25707e-26
5.94972e-27
1.07549e-26
4.23686e-27
7.53171e-27
3.66178e-27
3.80798e-27
3.98823e-27
4.4067e-28
4.77503e-27
-1.83752e-27
5.53896e-27
-2.6771e-27
5.83226e-27
-1.97108e-27
5.36241e-27
-2.99618e-29
4.01732e-27
2.67045e-27
1.88085e-27
5.53181e-27
-8.13665e-28
8.02607e-27
-3.75407e-27
9.74844e-27
-6.61494e-27
1.04779e-26
-9.13667e-27
1.02202e-26
-1.11404e-26
9.08292e-27
-1.2573e-26
7.31734e-27
-1.34501e-26
5.13994e-27
-1.38849e-26
2.85426e-27
-1.39977e-26
6.64537e-28
-1.39769e-26
-1.1002e-27
-1.39832e-26
-2.16501e-27
-1.42434e-26
-2.19079e-27
-1.49437e-26
-9.33534e-28
-1.62927e-26
1.64389e-27
-1.83946e-26
5.43352e-27
-2.12242e-26
9.62877e-27
-2.45693e-26
1.34858e-26
-2.79349e-26
1.54152e-26
-3.06949e-26
1.46149e-26
-3.20435e-26
9.96813e-27
-3.13359e-26
1.70585e-27
-2.82488e-26
-8.82489e-27
-2.29019e-26
-1.99787e-26
-1.62915e-26
-2.73914e-26
-9.87e-27
-2.9237e-26
-4.92623e-27
-2.38648e-26
-4.36995e-27
-6.30734e-27
-5.13339e-27
1.68825e-27
-9.92178e-27
2.43647e-26
-1.10472e-26
8.89038e-27
-3.73625e-26
-5.75034e-26
7.69787e-25
-3.20659e-26
-3.99058e-25
1.02283e-26
-4.11792e-25
1.74778e-26
-2.50643e-26
1.46155e-26
9.11119e-27
7.94007e-27
1.97767e-26
3.05551e-27
1.60556e-26
1.83041e-27
6.83028e-27
3.44517e-27
-3.74916e-27
8.09661e-27
-1.47076e-26
1.39507e-26
-1.99681e-26
1.99142e-26
-2.14822e-26
2.43406e-26
-1.7111e-26
2.66107e-26
-1.02138e-26
2.62564e-26
-9.82195e-28
2.36846e-26
7.25071e-27
1.95387e-26
1.37682e-26
1.47926e-26
1.6975e-26
1.036e-26
1.70034e-26
6.94968e-27
1.41653e-26
4.94786e-27
9.53355e-27
4.34039e-27
4.41535e-27
4.81811e-27
-3.72216e-29
5.82369e-27
-2.84331e-27
6.75695e-27
-3.61059e-27
7.07261e-27
-2.28696e-27
6.42507e-27
6.17418e-28
4.69666e-27
4.39879e-27
2.01268e-27
8.21583e-27
-1.31942e-27
1.13583e-26
-4.90235e-27
1.33315e-26
-8.33202e-27
1.39077e-26
-1.1296e-26
1.31844e-26
-1.35912e-26
1.13782e-26
-1.51775e-26
8.90379e-27
-1.61027e-26
6.06511e-27
-1.65344e-26
3.28587e-27
-1.66412e-26
7.71181e-28
-1.66663e-26
-1.07524e-27
-1.67988e-26
-2.03268e-27
-1.72966e-26
-1.693e-27
-1.83467e-26
1.16526e-28
-2.01612e-26
3.45848e-27
-2.28128e-26
8.0851e-27
-2.62386e-26
1.30546e-26
-3.01569e-26
1.74041e-26
-3.39862e-26
1.92445e-26
-3.70048e-26
1.76336e-26
-3.83118e-26
1.1275e-26
-3.72118e-26
6.05986e-28
-3.33887e-26
-1.2648e-26
-2.70454e-26
-2.63219e-26
-1.93621e-26
-3.50745e-26
-1.20423e-26
-3.65566e-26
-6.48846e-27
-2.94186e-26
-6.02921e-27
-6.76671e-27
-6.98532e-27
2.64415e-27
-1.2255e-26
2.96341e-26
-1.32602e-26
9.89551e-27
-5.06227e-26
-4.61048e-26
8.15893e-25
-2.55491e-26
-4.19613e-25
1.28747e-26
-4.50216e-25
2.11924e-26
-3.3382e-26
1.7648e-26
1.26552e-26
9.44762e-27
2.79766e-26
3.44973e-27
2.20529e-26
1.95135e-27
8.32825e-27
3.87073e-27
-5.6688e-27
9.44165e-27
-2.02786e-26
1.64661e-26
-2.69925e-26
2.36113e-26
-2.86274e-26
2.89068e-26
-2.24063e-26
3.15992e-26
-1.2906e-26
3.1144e-26
-5.26844e-28
2.80304e-26
1.03646e-26
2.30467e-26
1.87521e-26
1.73643e-26
2.26577e-26
1.20851e-26
2.22828e-26
8.05286e-27
1.81976e-26
5.72184e-27
1.18646e-26
5.06184e-27
5.07524e-27
5.68892e-27
-6.64492e-28
6.92359e-27
-4.07821e-27
8.04028e-27
-4.72755e-27
8.3876e-27
-2.63453e-27
7.56017e-27
1.44465e-27
5.43118e-27
6.52769e-27
2.16759e-27
1.14794e-26
-1.8456e-27
1.53716e-26
-6.12029e-27
1.76064e-26
-1.01674e-26
1.7955e-26
-1.3616e-26
1.66333e-26
-1.62349e-26
1.39973e-26
-1.79959e-26
1.06649e-26
-1.89797e-26
7.04888e-27
-1.94111e-26
3.7172e-27
-1.95109e-26
8.70847e-28
-1.95809e-26
-1.00547e-27
-1.98423e-26
-1.77144e-27
-2.05868e-26
-9.48517e-28
-2.20042e-26
1.53385e-27
-2.43104e-26
5.76476e-27
-2.75464e-26
1.13211e-26
-3.16094e-26
1.71176e-26
-3.61449e-26
2.19397e-26
-4.04787e-26
2.35782e-26
-4.37865e-26
2.09414e-26
-4.50648e-26
1.25533e-26
-4.35604e-26
-8.98368e-28
-3.89622e-26
-1.7246e-26
-3.1556e-26
-3.37278e-26
-2.27185e-26
-4.39118e-26
-1.44139e-26
-4.48611e-26
-8.18224e-27
-3.56502e-26
-7.78608e-27
-7.16299e-27
-8.93207e-27
3.7899e-27
-1.47244e-26
3.54262e-26
-1.55956e-26
1.07666e-26
-6.62183e-26
-3.39269e-26
8.4982e-25
-1.86939e-26
-4.34845e-25
1.59607e-26
-4.8487e-25
2.53059e-26
-4.27272e-26
2.10234e-26
1.69373e-26
1.1195e-26
3.78044e-26
3.97801e-27
2.92693e-26
2.12864e-27
1.01771e-26
4.32465e-27
-7.86513e-27
1.08366e-26
-2.67907e-26
1.90933e-26
-3.52492e-26
2.75024e-26
-3.70364e-26
3.37471e-26
-2.86508e-26
3.69215e-26
-1.60803e-26
3.63916e-26
3.24684e-30
3.27259e-26
1.40305e-26
2.68624e-26
2.4616e-26
2.01813e-26
2.9339e-26
1.39866e-26
2.84777e-26
9.27055e-27
2.29138e-26
6.56498e-27
1.45702e-26
5.82817e-27
5.81194e-27
6.60016e-27
-1.43668e-27
8.07339e-27
-5.5517e-27
9.38823e-27
-6.04268e-27
9.77795e-27
-3.02456e-27
8.76994e-27
2.45242e-27
6.22407e-27
9.07344e-27
2.34865e-27
1.53549e-26
-2.3905e-27
2.01109e-26
-7.40867e-27
2.26248e-26
-1.2125e-26
2.26716e-26
-1.61042e-26
2.06127e-26
-1.90826e-26
1.69759e-26
-2.10421e-26
1.26245e-26
-2.20972e-26
8.10392e-27
-2.25324e-26
4.15233e-27
-2.26248e-26
9.63115e-28
-2.27385e-26
-8.91954e-28
-2.31312e-26
-1.37891e-27
-2.41309e-26
5.10246e-29
-2.59323e-26
3.33525e-27
-2.87559e-26
8.58834e-27
-3.26111e-26
1.51764e-26
-3.73528e-26
2.18594e-26
-4.2551e-26
2.7138e-26
-4.74324e-26
2.84596e-26
-5.10637e-26
2.45727e-26
-5.23297e-26
1.38193e-26
-5.04123e-26
-2.81571e-27
-4.50014e-26
-2.26567e-26
-3.64659e-26
-4.22632e-26
-2.63881e-26
-5.39893e-26
-1.70059e-26
-5.42431e-26
-1.0019e-26
-4.26371e-26
-9.64437e-27
-7.53779e-27
-1.09724e-26
5.11772e-27
-1.73307e-26
4.17841e-26
-1.80556e-26
1.14914e-26
-8.42738e-26
-2.14121e-26
8.71233e-25
-1.14302e-26
-4.44826e-25
1.95172e-26
-5.15818e-25
2.98558e-26
-5.30657e-26
2.47806e-26
2.2012e-26
1.32171e-26
4.93672e-26
4.66745e-27
3.78183e-26
2.37803e-27
1.2466e-26
4.8128e-27
-1.03003e-26
1.22804e-26
-3.42584e-26
2.1829e-26
-4.47979e-26
3.15862e-26
-4.67936e-26
3.88658e-26
-3.59303e-26
4.25886e-26
-1.98028e-26
4.20166e-26
5.75446e-28
3.77933e-26
1.82542e-26
3.10096e-26
3.14e-26
2.32663e-26
3.70826e-26
1.60833e-26
3.56609e-26
1.06162e-26
2.83812e-26
7.48504e-27
1.77014e-26
6.64233e-27
6.65456e-27
7.55144e-27
-2.34602e-27
9.27125e-27
-7.27179e-27
1.07991e-26
-7.57089e-27
1.12433e-26
-3.46911e-27
1.00558e-26
3.63969e-27
7.07807e-27
1.2051e-26
2.55897e-27
1.9874e-26
-2.95195e-27
2.5622e-26
-8.76756e-27
2.84406e-26
-1.42083e-26
2.81126e-26
-1.87678e-26
2.51725e-26
-2.21454e-26
2.03538e-26
-2.43305e-26
1.48098e-26
-2.54722e-26
9.24558e-27
-2.59171e-26
4.59717e-27
-2.60026e-26
1.04848e-27
-2.61592e-26
-7.3564e-28
-2.66851e-26
-8.53192e-28
-2.79473e-26
1.31308e-27
-3.01485e-26
5.53648e-27
-3.3514e-26
1.19538e-26
-3.80227e-26
1.96852e-26
-4.34848e-26
2.73215e-26
-4.93925e-26
3.30457e-26
-5.48671e-26
3.39343e-26
-5.88597e-26
2.85654e-26
-6.01342e-26
1.50938e-26
-5.77996e-26
-5.15022e-27
-5.1541e-26
-2.89152e-26
-4.18097e-26
-5.19942e-26
-3.04019e-26
-6.53969e-26
-1.98423e-26
-6.48026e-26
-1.20126e-26
-5.04667e-26
-1.1608e-26
-7.94255e-27
-1.31042e-26
6.61365e-27
-2.00734e-26
4.87529e-26
-2.06419e-26
1.20597e-26
-1.04916e-25
-8.68698e-27
8.7992e-25
-3.77169e-27
-4.49741e-25
2.35727e-26
-5.43162e-25
3.48808e-26
-6.43737e-26
2.89619e-26
2.79305e-26
1.55537e-26
6.27747e-26
5.54994e-27
4.78214e-26
2.71938e-27
1.52959e-26
5.34378e-27
-1.29252e-26
1.37731e-26
-4.2688e-26
2.46696e-26
-5.56944e-26
3.586e-26
-5.79839e-26
4.42653e-26
-4.43354e-26
4.86099e-26
-2.41473e-26
4.80358e-26
1.1499e-27
4.32546e-26
2.30356e-26
3.55131e-26
3.91419e-26
2.66434e-26
4.59526e-26
1.8396e-26
4.39086e-26
1.21052e-26
3.46722e-26
8.49136e-27
2.13153e-26
7.50809e-27
7.63774e-27
8.54249e-27
-3.38064e-27
1.05148e-26
-9.2444e-27
1.22704e-26
-9.32691e-27
1.27825e-26
-3.98154e-27
1.14183e-26
5.00352e-27
7.9955e-27
1.54736e-26
2.80167e-27
2.50678e-26
-3.52737e-27
3.19512e-26
-1.01964e-26
3.51099e-26
-1.642e-26
3.43365e-26
-2.16135e-26
3.03663e-26
-2.54341e-26
2.41747e-26
-2.78761e-26
1.72519e-26
-2.91229e-26
1.04925e-26
-2.95857e-26
5.05989e-27
-2.96662e-26
1.12876e-27
-2.98649e-26
-5.37148e-28
-3.05255e-26
-1.92825e-28
-3.20565e-26
2.84398e-27
-3.4672e-26
8.15185e-27
-3.86023e-26
1.58841e-26
-4.37975e-26
2.48804e-26
-5.00211e-26
3.35452e-26
-5.66858e-26
3.97104e-26
-6.28015e-26
4.005e-26
-6.71973e-26
3.29612e-26
-6.85061e-26
1.64026e-26
-6.57555e-26
-7.90084e-27
-5.86178e-26
-3.60527e-26
-4.76257e-26
-6.29861e-26
-3.47947e-26
-7.82276e-26
-2.29499e-26
-7.6647e-26
-1.41789e-26
-5.92376e-26
-1.36813e-26
-8.44027e-27
-1.53242e-26
8.25618e-27
-2.29511e-26
5.63795e-26
-2.33558e-26
1.24642e-26
-1.28271e-25
4.19516e-27
8.75726e-25
4.27832e-27
-4.49823e-25
2.81541e-26
-5.67037e-25
4.04208e-26
-7.66402e-26
3.3613e-26
3.47378e-26
1.8249e-26
7.81379e-26
6.66249e-27
5.94071e-26
3.17684e-27
1.87809e-26
5.92904e-27
-1.56779e-26
1.53159e-26
-5.20752e-26
2.76109e-26
-6.79895e-26
4.03198e-26
-7.06928e-26
4.9946e-26
-5.39615e-26
5.49935e-26
-2.91947e-26
5.4465e-26
1.67873e-27
4.91325e-26
2.83685e-26
4.03993e-26
4.78755e-26
3.03392e-26
5.60131e-26
2.09479e-26
5.33001e-26
1.37551e-26
4.18653e-26
9.5949e-27
2.54756e-26
8.43013e-27
8.80243e-27
9.57312e-27
-4.52387e-27
1.18011e-26
-1.14727e-26
1.37986e-26
-1.13249e-26
1.4393e-26
-4.57633e-27
1.28573e-26
6.53886e-27
8.9782e-27
1.93525e-26
3.07986e-27
3.09661e-26
-4.1138e-27
3.9145e-26
-1.16939e-26
4.26903e-26
-1.87619e-26
4.14048e-26
-2.46474e-26
3.62522e-26
-2.89596e-26
2.84872e-26
-3.16939e-26
1.99865e-26
-3.30684e-26
1.1867e-26
-3.35601e-26
5.5515e-27
-3.3639e-26
1.20748e-27
-3.38799e-26
-2.96529e-28
-3.46762e-26
6.0323e-28
-3.64811e-26
4.64876e-27
-3.95232e-26
1.11938e-26
-4.40392e-26
2.04001e-26
-4.99522e-26
3.07934e-26
-5.69774e-26
4.05705e-26
-6.44471e-26
4.71802e-26
-7.1254e-26
4.68569e-26
-7.60991e-26
3.78063e-26
-7.74735e-26
1.7777e-26
-7.4314e-26
-1.10603e-26
-6.62709e-26
-4.40956e-26
-5.39548e-26
-7.53019e-26
-3.96048e-26
-9.25773e-26
-2.63595e-26
-8.98921e-26
-1.65365e-26
-6.90605e-26
-1.58697e-26
-9.10718e-27
-1.76285e-26
1.00146e-26
-2.5961e-26
6.47116e-26
-2.61979e-26
1.27008e-26
-1.54469e-25
1.71606e-26
8.58566e-25
1.27085e-26
-4.4537e-25
3.32854e-26
-5.87613e-25
4.65165e-26
-8.98712e-26
3.87831e-26
4.24707e-26
2.13525e-26
9.55678e-26
8.04758e-27
7.27112e-26
3.77938e-27
2.30483e-26
6.58332e-27
-1.84824e-26
1.69115e-26
-6.24038e-26
3.06487e-26
-8.17269e-26
4.49599e-26
-8.50039e-26
5.59064e-26
-6.49079e-26
6.17455e-26
-3.50336e-26
6.13192e-26
2.10527e-27
5.54496e-26
3.42385e-26
4.56954e-26
5.76302e-26
3.43818e-26
6.73271e-26
2.37645e-26
6.39178e-26
1.55858e-26
5.00443e-26
1.08084e-26
3.02532e-26
9.41415e-27
1.01966e-26
1.06434e-26
-5.75332e-27
1.31267e-26
-1.39564e-26
1.53793e-26
-1.35779e-26
1.60714e-26
-5.269e-27
1.43714e-26
8.23843e-27
1.00275e-26
2.36962e-26
3.39657e-27
3.7597e-26
-4.70788e-27
4.72496e-26
-1.32583e-26
5.1241e-26
-2.12354e-26
4.93823e-26
-2.78752e-26
4.28923e-26
-3.27324e-26
3.33448e-26
-3.57998e-26
2.30541e-26
-3.73288e-26
1.3396e-26
-3.78638e-26
6.08641e-27
-3.79468e-26
1.29037e-27
-3.82307e-26
-1.29673e-29
-3.91634e-26
1.53569e-27
-4.12459e-26
6.731e-27
-4.47248e-26
1.46727e-26
-4.98447e-26
2.552e-26
-5.6504e-26
3.74527e-26
-6.43691e-26
4.84356e-26
-7.26918e-26
5.55029e-26
-8.02417e-26
5.44068e-26
-8.55865e-26
4.31512e-26
-8.70641e-26
1.92547e-26
-8.35104e-26
-1.4614e-26
-7.45417e-26
-5.3064e-26
-6.08419e-26
-8.90014e-26
-4.48751e-26
-1.08544e-25
-3.01057e-26
-1.04661e-25
-1.91066e-26
-8.00594e-26
-1.81794e-26
-1.00345e-26
-2.00124e-26
1.18473e-26
-2.90989e-26
7.37976e-26
-2.91676e-26
1.27692e-26
-1.83637e-25
3.01303e-26
8.28436e-25
2.14884e-26
-4.36727e-25
3.89867e-26
-6.05111e-25
5.32094e-26
-1.04094e-25
4.45247e-26
5.1155e-26
2.49185e-26
1.15173e-25
9.7537e-27
8.78751e-26
4.56138e-27
2.82398e-26
7.32532e-27
-2.1247e-26
1.85643e-26
-7.36432e-26
3.37785e-26
-9.69412e-26
4.97732e-26
-1.00999e-25
6.21429e-26
-7.72775e-26
6.88698e-26
-4.17602e-26
6.8612e-26
2.36327e-27
6.22283e-26
4.06226e-26
5.14298e-26
6.84291e-26
3.88016e-26
7.99558e-26
2.68738e-26
7.5846e-26
1.76199e-26
5.92986e-26
1.21467e-26
3.57265e-26
1.04672e-26
1.18762e-26
1.17536e-26
-7.03999e-27
1.44877e-26
-1.66908e-26
1.70068e-26
-1.60975e-26
1.78131e-26
-6.07584e-27
1.59585e-26
1.00926e-26
1.11438e-26
2.85105e-26
3.75466e-27
4.4986e-26
-5.30591e-27
5.63103e-26
-1.48868e-26
6.08221e-26
-2.38407e-26
5.83365e-26
-3.13017e-26
5.03537e-26
-3.6763e-26
3.88066e-26
-4.02096e-26
2.6501e-26
-4.1925e-26
1.51114e-26
-4.25218e-26
6.68312e-27
-4.26175e-26
1.38594e-27
-4.29464e-26
3.156e-28
-4.40161e-26
2.6051e-27
-4.6378e-26
9.09269e-27
-5.03016e-26
1.85961e-26
-5.60401e-26
3.12585e-26
-6.34712e-26
4.48839e-26
-7.22118e-26
5.71762e-26
-8.14343e-26
6.47255e-26
-8.97806e-26
6.27531e-26
-9.56801e-26
4.90507e-26
-9.73054e-26
2.08799e-26
-9.33803e-26
-1.8539e-26
-8.34735e-26
-6.29706e-26
-6.83349e-26
-1.0414e-25
-5.06523e-26
-1.26226e-25
-3.42274e-26
-1.21086e-25
-2.19142e-26
-9.23724e-26
-2.06186e-26
-1.13302e-26
-2.24708e-26
1.36991e-26
-3.23587e-26
8.3685e-26
-3.22632e-26
1.26734e-26
-2.159e-25
4.30299e-26
7.85407e-25
3.0577e-26
-4.24273e-25
4.52741e-26
-6.19808e-25
6.05407e-26
-1.1936e-25
5.08932e-26
6.0802e-26
2.90068e-26
1.37059e-25
1.18358e-26
1.05045e-25
5.56331e-27
3.45114e-26
8.17838e-27
-2.38629e-26
2.02815e-26
-8.57468e-26
3.69962e-26
-1.13656e-25
5.47513e-26
-1.18754e-25
6.86494e-26
-9.11755e-26
7.6368e-26
-4.94785e-26
7.63553e-26
2.37626e-27
6.94904e-26
4.74879e-26
5.76318e-26
8.02884e-26
4.3631e-26
9.39571e-26
3.03066e-26
8.91708e-26
1.98824e-26
6.97233e-26
1.36271e-26
4.1982e-26
1.15976e-26
1.39056e-26
1.29047e-26
-8.34729e-27
1.58797e-26
-1.96661e-26
1.86745e-26
-1.88928e-26
1.96117e-26
-7.01362e-27
1.76146e-26
1.20891e-26
1.23268e-26
3.3798e-26
4.15661e-27
5.31561e-26
-5.90394e-27
6.63709e-26
-1.65761e-26
7.14946e-26
-2.65773e-26
6.83381e-26
-3.49308e-26
5.87077e-26
-4.1061e-26
4.49373e-26
-4.49393e-26
3.03796e-26
-4.68789e-26
1.70511e-26
-4.75607e-26
7.36494e-27
-4.76811e-26
1.50611e-27
-4.80588e-26
6.92956e-28
-4.9266e-26
3.81204e-27
-5.19077e-26
1.17341e-26
-5.62806e-26
2.29688e-26
-6.26484e-26
3.76263e-26
-7.08727e-26
5.31082e-26
-8.05207e-26
6.68242e-26
-9.06885e-26
7.48934e-26
-9.98854e-26
7.19501e-26
-1.06399e-25
5.55643e-26
-1.08224e-25
2.27046e-26
-1.0396e-25
-2.28027e-26
-9.31115e-26
-7.38187e-26
-7.64854e-26
-1.20765e-25
-5.69882e-26
-1.45723e-25
-3.87689e-26
-1.39305e-25
-2.49881e-26
-1.06153e-25
-2.31973e-26
-1.31211e-26
-2.4998e-26
1.54994e-26
-3.57325e-26
9.4419e-26
-3.54815e-26
1.24221e-26
-2.51382e-25
5.57797e-26
7.29628e-25
3.9926e-26
-4.08418e-25
5.21579e-26
-6.32039e-25
6.85506e-26
-1.35752e-25
5.79467e-26
7.14056e-26
3.36825e-26
1.61322e-25
1.43558e-26
1.24371e-25
6.83245e-27
4.20337e-26
9.17127e-27
-2.62025e-26
2.20732e-26
-9.86493e-26
4.02985e-26
-1.31882e-25
5.98842e-26
-1.3834e-25
7.54174e-26
-1.06709e-25
8.42391e-26
-5.83e-26
8.45587e-26
2.05687e-27
7.72571e-26
5.47901e-26
6.4331e-26
9.3215e-26
4.8904e-26
1.09385e-25
3.40964e-26
1.03979e-25
2.24015e-26
8.14186e-26
1.52692e-26
4.91146e-26
1.2816e-26
1.63589e-26
1.40984e-26
-9.62993e-27
1.72981e-26
-2.28662e-26
2.03746e-26
-2.19698e-26
2.14596e-26
-8.09918e-27
1.93347e-26
1.42134e-26
1.35749e-26
3.95573e-26
4.6044e-27
6.21265e-26
-6.49782e-27
7.74733e-26
-1.83221e-26
8.33191e-26
-2.94434e-26
7.94598e-26
-3.87656e-26
6.80305e-26
-4.56356e-26
5.18078e-26
-5.00047e-26
3.47491e-26
-5.2213e-26
1.92595e-26
-5.30089e-26
8.16083e-27
-5.31699e-26
1.66701e-27
-5.36025e-26
1.12518e-27
-5.49483e-26
5.15745e-27
-5.78684e-26
1.4654e-26
-6.26918e-26
2.77921e-26
-6.9695e-26
4.46294e-26
-7.87286e-26
6.21418e-26
-8.93114e-26
7.7407e-26
-1.00467e-25
8.60493e-26
-1.10569e-25
8.2052e-26
-1.1776e-25
6.27555e-26
-1.19844e-25
2.47883e-26
-1.15285e-25
-2.73616e-26
-1.03502e-25
-8.56011e-26
-8.53484e-26
-1.38919e-25
-6.39392e-26
-1.67132e-25
-4.37795e-26
-1.59464e-25
-2.83617e-26
-1.2157e-25
-2.59283e-26
-1.55546e-26
-2.75882e-26
1.7159e-26
-3.92104e-26
1.06041e-25
-3.88176e-26
1.2029e-26
-2.90199e-25
6.82913e-26
6.61337e-25
4.94784e-26
-3.89604e-25
5.96415e-26
-6.42201e-25
7.72776e-26
-1.53387e-25
6.57451e-26
8.29377e-26
3.90158e-26
1.88051e-25
1.73829e-26
1.46003e-25
8.42361e-27
5.09919e-26
1.03391e-26
-2.81189e-26
2.39538e-26
-1.12265e-25
4.36836e-26
-1.51612e-25
6.51615e-26
-1.59818e-25
8.24357e-26
-1.23983e-25
9.24788e-26
-6.8343e-26
9.32296e-26
1.30639e-27
8.55478e-26
6.24723e-26
7.15574e-26
1.07206e-25
5.46565e-26
1.26286e-25
3.82792e-26
1.20357e-25
2.52088e-26
9.44895e-26
1.70961e-26
5.72277e-26
1.41347e-26
1.93203e-26
1.53374e-26
-1.08328e-26
1.87382e-26
-2.62674e-26
2.20984e-26
-2.53306e-26
2.33473e-26
-9.34881e-27
2.11116e-26
1.64484e-26
1.48853e-26
4.57831e-26
5.09928e-27
7.19122e-26
-7.08338e-27
8.9656e-26
-2.01198e-26
9.63557e-26
-3.24361e-26
9.17765e-26
-4.28076e-26
7.84025e-26
-5.04948e-26
5.94956e-26
-5.54215e-26
3.96762e-26
-5.79503e-26
2.17884e-26
-5.88958e-26
9.10636e-27
-5.91188e-26
1.88984e-27
-5.96153e-26
1.62134e-27
-6.11013e-26
6.64305e-27
-6.42969e-26
1.78492e-26
-6.95685e-26
3.30636e-26
-7.72076e-26
5.22684e-26
-8.70605e-26
7.19946e-26
-9.85995e-26
8.8946e-26
-1.10782e-25
9.82321e-26
-1.21843e-25
9.31127e-26
-1.29779e-25
7.06921e-26
-1.3219e-25
2.71988e-26
-1.27391e-25
-3.21603e-26
-1.14694e-25
-9.82976e-26
-9.49824e-26
-1.58631e-25
-7.1567e-26
-1.90547e-25
-4.93149e-26
-1.81715e-25
-3.20737e-26
-1.38811e-25
-2.88275e-26
-1.88008e-26
-3.02358e-26
1.85669e-26
-4.27804e-26
1.18585e-25
-4.22647e-26
1.15129e-26
-3.32464e-25
8.04691e-26
5.80869e-25
5.91674e-26
-3.68301e-25
6.77206e-26
-6.50753e-25
8.67569e-26
-1.72423e-25
7.43497e-26
9.53447e-26
4.50821e-26
2.17317e-25
2.09939e-26
1.7009e-25
1.03999e-26
6.15848e-26
1.17242e-26
-2.94442e-26
2.59425e-26
-1.26484e-25
4.71516e-26
-1.72821e-25
7.05716e-26
-1.83238e-25
8.96909e-26
-1.43102e-25
1.0108e-25
-7.97316e-26
1.02372e-25
1.44832e-29
9.43805e-26
7.04642e-26
7.93408e-26
1.22246e-25
6.0926e-26
1.44702e-25
4.28944e-26
1.38389e-25
2.83391e-26
1.09045e-25
1.91338e-26
6.64335e-26
1.55689e-26
2.28853e-26
1.66257e-26
-1.18898e-26
2.01952e-26
-2.98372e-26
2.38358e-26
-2.89717e-26
2.52638e-26
-1.07776e-26
2.29365e-26
1.87751e-26
1.62531e-26
5.2466e-26
5.6415e-27
8.25236e-26
-7.65657e-27
1.02954e-25
-2.19638e-26
1.10663e-25
-3.55515e-26
1.05365e-25
-4.70573e-26
8.99088e-26
-5.56457e-26
6.80847e-26
-6.12046e-26
4.52355e-26
-6.41143e-26
2.46983e-26
-6.52527e-26
1.02447e-26
-6.55648e-26
2.20187e-27
-6.61382e-26
2.19434e-27
-6.77674e-26
8.27184e-27
-7.12339e-26
2.13154e-26
-7.69475e-26
3.8777e-26
-8.52167e-26
6.05375e-26
-9.58917e-26
8.26696e-26
-1.08401e-25
1.01455e-25
-1.21644e-25
1.11475e-25
-1.33715e-25
1.05184e-25
-1.42468e-25
7.9445e-26
-1.45282e-25
3.00125e-26
-1.40312e-25
-3.71301e-26
-1.26736e-25
-1.11874e-25
-1.05449e-25
-1.79917e-25
-7.99383e-26
-2.16056e-25
-5.54369e-26
-2.06216e-25
-3.6169e-26
-1.58079e-25
-3.19151e-26
-2.30547e-26
-3.29357e-26
1.95872e-26
-4.64281e-26
1.32076e-25
-4.58137e-26
1.0898e-26
-3.78278e-25
9.22121e-26
4.88658e-25
6.89162e-26
-3.45004e-25
7.63812e-26
-6.58217e-25
9.70195e-26
-1.9306e-25
8.38218e-26
1.08542e-25
5.19612e-26
2.49177e-25
2.52736e-26
1.96776e-25
1.28332e-26
7.40239e-26
1.33771e-26
-2.99892e-26
2.80644e-26
-1.41172e-25
5.07056e-26
-1.95463e-25
7.61033e-26
-2.08636e-25
9.7167e-26
-1.64166e-25
1.10031e-25
-9.25953e-26
1.11986e-25
-1.9409e-27
1.03771e-25
7.86806e-26
8.77104e-26
1.38307e-25
6.77509e-26
1.64662e-25
4.79835e-26
1.58157e-25
3.18309e-26
1.25198e-25
2.14121e-26
7.68528e-26
1.71365e-26
2.71609e-26
1.79692e-26
-1.27226e-26
2.16646e-26
-3.3533e-26
2.55759e-26
-3.28836e-26
2.7196e-26
-1.23984e-26
2.47981e-26
2.11722e-26
1.7672e-26
5.95915e-26
6.23004e-27
9.39652e-26
-8.21371e-27
1.17398e-25
-2.3848e-26
1.26298e-25
-3.87843e-26
1.20301e-25
-5.15132e-26
1.02638e-25
-6.10939e-26
7.76661e-26
-6.73685e-26
5.15106e-26
-7.07286e-26
2.80587e-26
-7.21117e-26
1.16279e-26
-7.25475e-26
2.63759e-27
-7.32154e-26
2.86188e-27
-7.49929e-26
1.00488e-26
-7.87245e-26
2.50466e-26
-8.48696e-26
4.49218e-26
-9.37564e-26
6.94241e-26
-1.05248e-25
9.4161e-26
-1.18733e-25
1.1494e-25
-1.33064e-25
1.25807e-25
-1.46194e-25
1.18314e-25
-1.55837e-25
8.90881e-26
-1.59139e-25
3.3314e-26
-1.54081e-25
-4.21878e-26