/*--------------------------------*- C++ -*----------------------------------*\
| =========                 |                                                 |
| \\      /  F ield         | foam-extend: Open Source CFD                    |
|  \\    /   O peration     | Version:     4.0                                |
|   \\  /    A nd           | Web:         http://www.foam-extend.org         |
|    \\/     M anipulation  |                                                 |
\*---------------------------------------------------------------------------*/
FoamFile
{
    version     2.0;
    format      ascii;
    class       volScalarField;
    location    "340";
    object      psiE;
}
// * * * * * * * * * * * * * * * * * * * * * * * * * * * * * * * * * * * * * //

dimensions      [0 0 0 0 0 0 0];

internalField   nonuniform List<scalar> 
6960
(
0.349834
0.349846
0.349859
0.349872
0.349883
0.349892
0.3499
0.349907
0.349912
0.349917
0.349921
0.349925
0.349927
0.34993
0.349932
0.349933
0.349935
0.349936
0.349937
0.349938
0.349939
0.34994
0.34994
0.349941
0.349941
0.349941
0.349942
0.349942
0.349942
0.349942
0.349942
0.349942
0.349942
0.349942
0.349941
0.349941
0.349941
0.34994
0.34994
0.349939
0.349938
0.349937
0.349936
0.349935
0.349933
0.349932
0.34993
0.349927
0.349925
0.349921
0.349917
0.349912
0.349907
0.3499
0.349892
0.349883
0.349872
0.349859
0.349846
0.349834
0.899752
0.899801
0.899855
0.899906
0.89995
0.899988
0.90002
0.900047
0.90007
0.900088
0.900104
0.900117
0.900128
0.900137
0.900144
0.900151
0.900156
0.900161
0.900164
0.900168
0.90017
0.900173
0.900175
0.900176
0.900178
0.900179
0.90018
0.90018
0.900181
0.900181
0.900181
0.900181
0.90018
0.90018
0.900179
0.900178
0.900176
0.900175
0.900173
0.90017
0.900168
0.900164
0.900161
0.900156
0.900151
0.900144
0.900137
0.900128
0.900117
0.900104
0.900088
0.90007
0.900047
0.90002
0.899988
0.89995
0.899906
0.899855
0.899801
0.899752
1.41564
1.41574
1.41584
1.41594
1.41603
1.4161
1.41616
1.41621
1.41626
1.41629
1.41632
1.41635
1.41637
1.41639
1.4164
1.41641
1.41642
1.41643
1.41644
1.41644
1.41645
1.41645
1.41646
1.41646
1.41646
1.41646
1.41646
1.41647
1.41647
1.41647
1.41647
1.41647
1.41647
1.41646
1.41646
1.41646
1.41646
1.41646
1.41645
1.41645
1.41644
1.41644
1.41643
1.41642
1.41641
1.4164
1.41639
1.41637
1.41635
1.41632
1.41629
1.41626
1.41621
1.41616
1.4161
1.41603
1.41594
1.41584
1.41574
1.41564
1.92733
1.92748
1.92764
1.92779
1.92792
1.92804
1.92813
1.92821
1.92828
1.92833
1.92838
1.92842
1.92845
1.92847
1.9285
1.92851
1.92853
1.92854
1.92855
1.92856
1.92857
1.92858
1.92858
1.92859
1.92859
1.92859
1.92859
1.9286
1.9286
1.9286
1.9286
1.9286
1.9286
1.92859
1.92859
1.92859
1.92859
1.92858
1.92858
1.92857
1.92856
1.92855
1.92854
1.92853
1.92851
1.9285
1.92847
1.92845
1.92842
1.92838
1.92833
1.92828
1.92821
1.92813
1.92804
1.92792
1.92779
1.92764
1.92748
1.92733
2.44448
2.44468
2.4449
2.44511
2.44529
2.44544
2.44558
2.44568
2.44578
2.44585
2.44591
2.44597
2.44601
2.44604
2.44607
2.4461
2.44612
2.44614
2.44615
2.44616
2.44617
2.44618
2.44619
2.44619
2.4462
2.4462
2.4462
2.44621
2.44621
2.44621
2.44621
2.44621
2.44621
2.4462
2.4462
2.4462
2.44619
2.44619
2.44618
2.44617
2.44616
2.44615
2.44614
2.44612
2.4461
2.44607
2.44604
2.44601
2.44597
2.44591
2.44585
2.44578
2.44568
2.44558
2.44544
2.44529
2.44511
2.4449
2.44468
2.44448
2.97027
2.97052
2.9708
2.97107
2.9713
2.9715
2.97166
2.9718
2.97192
2.97201
2.97209
2.97216
2.97221
2.97226
2.9723
2.97233
2.97235
2.97238
2.97239
2.97241
2.97242
2.97243
2.97244
2.97245
2.97245
2.97246
2.97246
2.97247
2.97247
2.97247
2.97247
2.97247
2.97247
2.97246
2.97246
2.97245
2.97245
2.97244
2.97243
2.97242
2.97241
2.97239
2.97238
2.97235
2.97233
2.9723
2.97226
2.97221
2.97216
2.97209
2.97201
2.97192
2.9718
2.97166
2.9715
2.9713
2.97107
2.9708
2.97052
2.97027
3.50568
3.50599
3.50633
3.50666
3.50694
3.50718
3.50738
3.50755
3.50769
3.50781
3.50791
3.50799
3.50805
3.50811
3.50815
3.50819
3.50822
3.50825
3.50827
3.50829
3.50831
3.50832
3.50833
3.50834
3.50835
3.50835
3.50836
3.50836
3.50836
3.50836
3.50836
3.50836
3.50836
3.50836
3.50835
3.50835
3.50834
3.50833
3.50832
3.50831
3.50829
3.50827
3.50825
3.50822
3.50819
3.50815
3.50811
3.50805
3.50799
3.50791
3.50781
3.50769
3.50755
3.50738
3.50718
3.50694
3.50666
3.50633
3.50599
3.50568
4.05097
4.05133
4.05173
4.05211
4.05245
4.05273
4.05297
4.05317
4.05334
4.05348
4.05359
4.05369
4.05377
4.05383
4.05389
4.05393
4.05397
4.054
4.05402
4.05405
4.05406
4.05408
4.05409
4.0541
4.05411
4.05412
4.05412
4.05413
4.05413
4.05413
4.05413
4.05413
4.05413
4.05412
4.05412
4.05411
4.0541
4.05409
4.05408
4.05406
4.05405
4.05402
4.054
4.05397
4.05393
4.05389
4.05383
4.05377
4.05369
4.05359
4.05348
4.05334
4.05317
4.05297
4.05273
4.05245
4.05211
4.05173
4.05133
4.05097
4.60609
4.60651
4.60698
4.60742
4.6078
4.60813
4.60841
4.60864
4.60883
4.60899
4.60912
4.60923
4.60932
4.6094
4.60946
4.60951
4.60956
4.60959
4.60962
4.60965
4.60967
4.60968
4.6097
4.60971
4.60972
4.60973
4.60973
4.60974
4.60974
4.60974
4.60974
4.60974
4.60974
4.60973
4.60973
4.60972
4.60971
4.6097
4.60968
4.60967
4.60965
4.60962
4.60959
4.60956
4.60951
4.60946
4.6094
4.60932
4.60923
4.60912
4.60899
4.60883
4.60864
4.60841
4.60813
4.6078
4.60742
4.60698
4.60651
4.60609
5.17092
5.17139
5.17192
5.17242
5.17286
5.17323
5.17354
5.17381
5.17403
5.17421
5.17436
5.17448
5.17459
5.17467
5.17474
5.1748
5.17485
5.17489
5.17492
5.17495
5.17497
5.17499
5.17501
5.17502
5.17504
5.17504
5.17505
5.17506
5.17506
5.17506
5.17506
5.17506
5.17506
5.17505
5.17504
5.17504
5.17502
5.17501
5.17499
5.17497
5.17495
5.17492
5.17489
5.17485
5.1748
5.17474
5.17467
5.17459
5.17448
5.17436
5.17421
5.17403
5.17381
5.17354
5.17323
5.17286
5.17242
5.17192
5.17139
5.17092
5.74525
5.74577
5.74637
5.74692
5.74741
5.74783
5.74818
5.74847
5.74872
5.74892
5.74909
5.74923
5.74934
5.74944
5.74952
5.74958
5.74964
5.74968
5.74972
5.74975
5.74978
5.7498
5.74982
5.74984
5.74985
5.74986
5.74987
5.74987
5.74988
5.74988
5.74988
5.74988
5.74987
5.74987
5.74986
5.74985
5.74984
5.74982
5.7498
5.74978
5.74975
5.74972
5.74968
5.74964
5.74958
5.74952
5.74944
5.74934
5.74923
5.74909
5.74892
5.74872
5.74847
5.74818
5.74783
5.74741
5.74692
5.74637
5.74577
5.74525
6.32882
6.32939
6.33005
6.33066
6.3312
6.33166
6.33205
6.33238
6.33265
6.33287
6.33306
6.33321
6.33334
6.33344
6.33353
6.3336
6.33366
6.33371
6.33376
6.33379
6.33382
6.33385
6.33387
6.33388
6.3339
6.33391
6.33392
6.33392
6.33393
6.33393
6.33393
6.33393
6.33392
6.33392
6.33391
6.3339
6.33388
6.33387
6.33385
6.33382
6.33379
6.33376
6.33371
6.33366
6.3336
6.33353
6.33344
6.33334
6.33321
6.33306
6.33287
6.33265
6.33238
6.33205
6.33166
6.3312
6.33066
6.33005
6.32939
6.32882
6.9213
6.92193
6.92265
6.92332
6.92391
6.92441
6.92484
6.92519
6.92549
6.92574
6.92594
6.92611
6.92625
6.92636
6.92646
6.92654
6.92661
6.92666
6.92671
6.92675
6.92678
6.92681
6.92683
6.92685
6.92686
6.92687
6.92688
6.92689
6.92689
6.9269
6.9269
6.92689
6.92689
6.92688
6.92687
6.92686
6.92685
6.92683
6.92681
6.92678
6.92675
6.92671
6.92666
6.92661
6.92654
6.92646
6.92636
6.92625
6.92611
6.92594
6.92574
6.92549
6.92519
6.92484
6.92441
6.92391
6.92332
6.92265
6.92193
6.9213
7.52232
7.523
7.52378
7.52451
7.52515
7.5257
7.52616
7.52655
7.52687
7.52714
7.52736
7.52754
7.52769
7.52782
7.52792
7.52801
7.52808
7.52814
7.52819
7.52824
7.52827
7.5283
7.52833
7.52835
7.52836
7.52838
7.52839
7.52839
7.5284
7.5284
7.5284
7.5284
7.52839
7.52839
7.52838
7.52836
7.52835
7.52833
7.5283
7.52827
7.52824
7.52819
7.52814
7.52808
7.52801
7.52792
7.52782
7.52769
7.52754
7.52736
7.52714
7.52687
7.52655
7.52616
7.5257
7.52515
7.52451
7.52378
7.523
7.52232
8.13143
8.13217
8.13301
8.13379
8.13448
8.13507
8.13557
8.13599
8.13634
8.13662
8.13686
8.13706
8.13722
8.13736
8.13747
8.13757
8.13764
8.13771
8.13776
8.13781
8.13785
8.13788
8.13791
8.13793
8.13795
8.13796
8.13797
8.13798
8.13799
8.13799
8.13799
8.13799
8.13798
8.13797
8.13796
8.13795
8.13793
8.13791
8.13788
8.13785
8.13781
8.13776
8.13771
8.13764
8.13757
8.13747
8.13736
8.13722
8.13706
8.13686
8.13662
8.13634
8.13599
8.13557
8.13507
8.13448
8.13379
8.13301
8.13217
8.13143
8.74811
8.7489
8.7498
8.75064
8.75138
8.75201
8.75254
8.75299
8.75336
8.75367
8.75393
8.75414
8.75432
8.75446
8.75458
8.75468
8.75477
8.75484
8.7549
8.75494
8.75499
8.75502
8.75505
8.75507
8.75509
8.75511
8.75512
8.75513
8.75514
8.75514
8.75514
8.75514
8.75513
8.75512
8.75511
8.75509
8.75507
8.75505
8.75502
8.75499
8.75494
8.7549
8.75484
8.75477
8.75468
8.75458
8.75446
8.75432
8.75414
8.75393
8.75367
8.75336
8.75299
8.75254
8.75201
8.75138
8.75064
8.7498
8.7489
8.74811
9.37174
9.37258
9.37354
9.37443
9.37522
9.37589
9.37646
9.37694
9.37734
9.37766
9.37794
9.37816
9.37835
9.37851
9.37864
9.37874
9.37883
9.37891
9.37897
9.37902
9.37907
9.37911
9.37914
9.37916
9.37918
9.3792
9.37921
9.37922
9.37923
9.37923
9.37923
9.37923
9.37922
9.37921
9.3792
9.37918
9.37916
9.37914
9.37911
9.37907
9.37902
9.37897
9.37891
9.37883
9.37874
9.37864
9.37851
9.37835
9.37816
9.37794
9.37766
9.37734
9.37694
9.37646
9.37589
9.37522
9.37443
9.37354
9.37258
9.37174
10.0016
10.0025
10.0035
10.0045
10.0053
10.006
10.0066
10.0071
10.0075
10.0079
10.0082
10.0084
10.0086
10.0088
10.0089
10.009
10.0091
10.0092
10.0093
10.0093
10.0094
10.0094
10.0095
10.0095
10.0095
10.0095
10.0095
10.0096
10.0096
10.0096
10.0096
10.0096
10.0096
10.0095
10.0095
10.0095
10.0095
10.0095
10.0094
10.0094
10.0093
10.0093
10.0092
10.0091
10.009
10.0089
10.0088
10.0086
10.0084
10.0082
10.0079
10.0075
10.0071
10.0066
10.006
10.0053
10.0045
10.0035
10.0025
10.0016
10.6369
10.6379
10.6389
10.6399
10.6408
10.6416
10.6422
10.6427
10.6432
10.6435
10.6438
10.6441
10.6443
10.6445
10.6446
10.6447
10.6449
10.6449
10.645
10.6451
10.6451
10.6452
10.6452
10.6452
10.6452
10.6453
10.6453
10.6453
10.6453
10.6453
10.6453
10.6453
10.6453
10.6453
10.6453
10.6452
10.6452
10.6452
10.6452
10.6451
10.6451
10.645
10.6449
10.6449
10.6447
10.6446
10.6445
10.6443
10.6441
10.6438
10.6435
10.6432
10.6427
10.6422
10.6416
10.6408
10.6399
10.6389
10.6379
10.6369
11.2767
11.2777
11.2788
11.2799
11.2808
11.2816
11.2822
11.2828
11.2833
11.2837
11.284
11.2842
11.2845
11.2846
11.2848
11.2849
11.285
11.2851
11.2852
11.2853
11.2853
11.2854
11.2854
11.2854
11.2855
11.2855
11.2855
11.2855
11.2855
11.2855
11.2855
11.2855
11.2855
11.2855
11.2855
11.2855
11.2854
11.2854
11.2854
11.2853
11.2853
11.2852
11.2851
11.285
11.2849
11.2848
11.2846
11.2845
11.2842
11.284
11.2837
11.2833
11.2828
11.2822
11.2816
11.2808
11.2799
11.2788
11.2777
11.2767
11.9199
11.9209
11.9221
11.9232
11.9241
11.925
11.9257
11.9263
11.9267
11.9271
11.9275
11.9278
11.928
11.9282
11.9283
11.9285
11.9286
11.9287
11.9288
11.9288
11.9289
11.9289
11.929
11.929
11.929
11.9291
11.9291
11.9291
11.9291
11.9291
11.9291
11.9291
11.9291
11.9291
11.9291
11.929
11.929
11.929
11.9289
11.9289
11.9288
11.9288
11.9287
11.9286
11.9285
11.9283
11.9282
11.928
11.9278
11.9275
11.9271
11.9267
11.9263
11.9257
11.925
11.9241
11.9232
11.9221
11.9209
11.9199
12.5652
12.5663
12.5675
12.5687
12.5696
12.5705
12.5712
12.5718
12.5723
12.5728
12.5731
12.5734
12.5736
12.5738
12.574
12.5742
12.5743
12.5744
12.5745
12.5745
12.5746
12.5746
12.5747
12.5747
12.5747
12.5748
12.5748
12.5748
12.5748
12.5748
12.5748
12.5748
12.5748
12.5748
12.5748
12.5747
12.5747
12.5747
12.5746
12.5746
12.5745
12.5745
12.5744
12.5743
12.5742
12.574
12.5738
12.5736
12.5734
12.5731
12.5728
12.5723
12.5718
12.5712
12.5705
12.5696
12.5687
12.5675
12.5663
12.5652
13.2113
13.2124
13.2136
13.2148
13.2158
13.2167
13.2175
13.2181
13.2186
13.2191
13.2194
13.2197
13.22
13.2202
13.2204
13.2205
13.2206
13.2207
13.2208
13.2209
13.221
13.221
13.2211
13.2211
13.2211
13.2211
13.2212
13.2212
13.2212
13.2212
13.2212
13.2212
13.2212
13.2212
13.2211
13.2211
13.2211
13.2211
13.221
13.221
13.2209
13.2208
13.2207
13.2206
13.2205
13.2204
13.2202
13.22
13.2197
13.2194
13.2191
13.2186
13.2181
13.2175
13.2167
13.2158
13.2148
13.2136
13.2124
13.2113
13.8564
13.8575
13.8588
13.86
13.8611
13.862
13.8628
13.8634
13.8639
13.8644
13.8648
13.8651
13.8653
13.8656
13.8657
13.8659
13.866
13.8661
13.8662
13.8663
13.8664
13.8664
13.8665
13.8665
13.8665
13.8666
13.8666
13.8666
13.8666
13.8666
13.8666
13.8666
13.8666
13.8666
13.8666
13.8665
13.8665
13.8665
13.8664
13.8664
13.8663
13.8662
13.8661
13.866
13.8659
13.8657
13.8656
13.8653
13.8651
13.8648
13.8644
13.8639
13.8634
13.8628
13.862
13.8611
13.86
13.8588
13.8575
13.8564
14.4986
14.4998
14.5011
14.5024
14.5034
14.5044
14.5052
14.5058
14.5064
14.5068
14.5072
14.5076
14.5078
14.508
14.5082
14.5084
14.5085
14.5086
14.5087
14.5088
14.5089
14.5089
14.509
14.509
14.509
14.5091
14.5091
14.5091
14.5091
14.5091
14.5091
14.5091
14.5091
14.5091
14.5091
14.509
14.509
14.509
14.5089
14.5089
14.5088
14.5087
14.5086
14.5085
14.5084
14.5082
14.508
14.5078
14.5076
14.5072
14.5068
14.5064
14.5058
14.5052
14.5044
14.5034
14.5024
14.5011
14.4998
14.4986
15.1358
15.137
15.1384
15.1396
15.1407
15.1417
15.1425
15.1432
15.1437
15.1442
15.1446
15.1449
15.1452
15.1454
15.1456
15.1458
15.1459
15.146
15.1461
15.1462
15.1463
15.1463
15.1464
15.1464
15.1465
15.1465
15.1465
15.1465
15.1465
15.1465
15.1465
15.1465
15.1465
15.1465
15.1465
15.1465
15.1464
15.1464
15.1463
15.1463
15.1462
15.1461
15.146
15.1459
15.1458
15.1456
15.1454
15.1452
15.1449
15.1446
15.1442
15.1437
15.1432
15.1425
15.1417
15.1407
15.1396
15.1384
15.137
15.1358
15.7654
15.7667
15.768
15.7693
15.7704
15.7714
15.7722
15.7729
15.7734
15.7739
15.7743
15.7746
15.7749
15.7752
15.7754
15.7755
15.7757
15.7758
15.7759
15.776
15.776
15.7761
15.7761
15.7762
15.7762
15.7763
15.7763
15.7763
15.7763
15.7763
15.7763
15.7763
15.7763
15.7763
15.7763
15.7762
15.7762
15.7761
15.7761
15.776
15.776
15.7759
15.7758
15.7757
15.7755
15.7754
15.7752
15.7749
15.7746
15.7743
15.7739
15.7734
15.7729
15.7722
15.7714
15.7704
15.7693
15.768
15.7667
15.7654
16.3845
16.3857
16.3871
16.3883
16.3895
16.3904
16.3912
16.3919
16.3925
16.393
16.3934
16.3937
16.394
16.3942
16.3944
16.3946
16.3948
16.3949
16.395
16.3951
16.3951
16.3952
16.3953
16.3953
16.3953
16.3954
16.3954
16.3954
16.3954
16.3954
16.3954
16.3954
16.3954
16.3954
16.3954
16.3953
16.3953
16.3953
16.3952
16.3951
16.3951
16.395
16.3949
16.3948
16.3946
16.3944
16.3942
16.394
16.3937
16.3934
16.393
16.3925
16.3919
16.3912
16.3904
16.3895
16.3883
16.3871
16.3857
16.3845
16.9894
16.9906
16.992
16.9933
16.9944
16.9954
16.9962
16.9969
16.9974
16.9979
16.9983
16.9987
16.9989
16.9992
16.9994
16.9996
16.9997
16.9998
16.9999
17
17.0001
17.0002
17.0002
17.0003
17.0003
17.0003
17.0003
17.0004
17.0004
17.0004
17.0004
17.0004
17.0004
17.0003
17.0003
17.0003
17.0003
17.0002
17.0002
17.0001
17
16.9999
16.9998
16.9997
16.9996
16.9994
16.9992
16.9989
16.9987
16.9983
16.9979
16.9974
16.9969
16.9962
16.9954
16.9944
16.9933
16.992
16.9906
16.9894
17.5762
17.5774
17.5787
17.58
17.5811
17.582
17.5828
17.5835
17.5841
17.5846
17.585
17.5853
17.5856
17.5858
17.586
17.5862
17.5864
17.5865
17.5866
17.5867
17.5868
17.5868
17.5869
17.5869
17.587
17.587
17.587
17.587
17.5871
17.5871
17.5871
17.5871
17.587
17.587
17.587
17.587
17.5869
17.5869
17.5868
17.5868
17.5867
17.5866
17.5865
17.5864
17.5862
17.586
17.5858
17.5856
17.5853
17.585
17.5846
17.5841
17.5835
17.5828
17.582
17.5811
17.58
17.5787
17.5774
17.5762
18.1399
18.1411
18.1424
18.1436
18.1447
18.1456
18.1464
18.147
18.1476
18.1481
18.1484
18.1488
18.1491
18.1493
18.1495
18.1497
18.1498
18.1499
18.15
18.1501
18.1502
18.1503
18.1503
18.1504
18.1504
18.1505
18.1505
18.1505
18.1505
18.1505
18.1505
18.1505
18.1505
18.1505
18.1505
18.1504
18.1504
18.1503
18.1503
18.1502
18.1501
18.15
18.1499
18.1498
18.1497
18.1495
18.1493
18.1491
18.1488
18.1484
18.1481
18.1476
18.147
18.1464
18.1456
18.1447
18.1436
18.1424
18.1411
18.1399
18.6746
18.6758
18.677
18.6782
18.6792
18.6801
18.6808
18.6815
18.682
18.6825
18.6828
18.6832
18.6834
18.6837
18.6839
18.684
18.6842
18.6843
18.6844
18.6845
18.6846
18.6847
18.6847
18.6848
18.6848
18.6848
18.6849
18.6849
18.6849
18.6849
18.6849
18.6849
18.6849
18.6849
18.6848
18.6848
18.6848
18.6847
18.6847
18.6846
18.6845
18.6844
18.6843
18.6842
18.684
18.6839
18.6837
18.6834
18.6832
18.6828
18.6825
18.682
18.6815
18.6808
18.6801
18.6792
18.6782
18.677
18.6758
18.6746
19.1735
19.1745
19.1757
19.1768
19.1778
19.1786
19.1793
19.1799
19.1804
19.1808
19.1812
19.1815
19.1818
19.182
19.1822
19.1824
19.1825
19.1826
19.1827
19.1828
19.1829
19.183
19.183
19.1831
19.1831
19.1831
19.1832
19.1832
19.1832
19.1832
19.1832
19.1832
19.1832
19.1832
19.1831
19.1831
19.1831
19.183
19.183
19.1829
19.1828
19.1827
19.1826
19.1825
19.1824
19.1822
19.182
19.1818
19.1815
19.1812
19.1808
19.1804
19.1799
19.1793
19.1786
19.1778
19.1768
19.1757
19.1745
19.1735
19.6285
19.6295
19.6305
19.6315
19.6324
19.6331
19.6338
19.6343
19.6348
19.6352
19.6356
19.6358
19.6361
19.6363
19.6365
19.6367
19.6368
19.6369
19.637
19.6371
19.6372
19.6373
19.6373
19.6374
19.6374
19.6374
19.6375
19.6375
19.6375
19.6375
19.6375
19.6375
19.6375
19.6375
19.6374
19.6374
19.6374
19.6373
19.6373
19.6372
19.6371
19.637
19.6369
19.6368
19.6367
19.6365
19.6363
19.6361
19.6358
19.6356
19.6352
19.6348
19.6343
19.6338
19.6331
19.6324
19.6315
19.6305
19.6295
19.6285
20.0315
20.0323
20.0333
20.0341
20.0349
20.0355
20.0361
20.0366
20.037
20.0374
20.0377
20.038
20.0382
20.0384
20.0386
20.0387
20.0388
20.039
20.0391
20.0391
20.0392
20.0393
20.0394
20.0394
20.0394
20.0395
20.0395
20.0395
20.0395
20.0395
20.0395
20.0395
20.0395
20.0395
20.0395
20.0394
20.0394
20.0394
20.0393
20.0392
20.0391
20.0391
20.039
20.0388
20.0387
20.0386
20.0384
20.0382
20.038
20.0377
20.0374
20.037
20.0366
20.0361
20.0355
20.0349
20.0341
20.0333
20.0323
20.0315
20.3756
20.3763
20.377
20.3778
20.3784
20.3789
20.3794
20.3798
20.3802
20.3805
20.3808
20.381
20.3812
20.3814
20.3816
20.3817
20.3818
20.382
20.3821
20.3821
20.3822
20.3823
20.3823
20.3824
20.3824
20.3825
20.3825
20.3825
20.3825
20.3825
20.3825
20.3825
20.3825
20.3825
20.3825
20.3824
20.3824
20.3823
20.3823
20.3822
20.3821
20.3821
20.382
20.3818
20.3817
20.3816
20.3814
20.3812
20.381
20.3808
20.3805
20.3802
20.3798
20.3794
20.3789
20.3784
20.3778
20.377
20.3763
20.3756
20.6578
20.6583
20.6589
20.6595
20.66
20.6604
20.6608
20.6611
20.6614
20.6617
20.6619
20.6621
20.6623
20.6625
20.6626
20.6628
20.6629
20.663
20.6631
20.6632
20.6633
20.6633
20.6634
20.6634
20.6635
20.6635
20.6635
20.6635
20.6636
20.6636
20.6636
20.6636
20.6635
20.6635
20.6635
20.6635
20.6634
20.6634
20.6633
20.6633
20.6632
20.6631
20.663
20.6629
20.6628
20.6626
20.6625
20.6623
20.6621
20.6619
20.6617
20.6614
20.6611
20.6608
20.6604
20.66
20.6595
20.6589
20.6583
20.6578
20.8807
20.8811
20.8815
20.882
20.8823
20.8827
20.883
20.8833
20.8835
20.8837
20.8839
20.8841
20.8843
20.8844
20.8846
20.8847
20.8848
20.8849
20.885
20.8851
20.8851
20.8852
20.8853
20.8853
20.8854
20.8854
20.8854
20.8854
20.8855
20.8855
20.8855
20.8855
20.8854
20.8854
20.8854
20.8854
20.8853
20.8853
20.8852
20.8851
20.8851
20.885
20.8849
20.8848
20.8847
20.8846
20.8844
20.8843
20.8841
20.8839
20.8837
20.8835
20.8833
20.883
20.8827
20.8823
20.882
20.8815
20.8811
20.8807
21.0525
21.0528
21.0531
21.0534
21.0537
21.0539
21.0542
21.0544
21.0546
21.0548
21.0549
21.0551
21.0552
21.0554
21.0555
21.0556
21.0557
21.0558
21.0559
21.056
21.0561
21.0561
21.0562
21.0562
21.0563
21.0563
21.0563
21.0564
21.0564
21.0564
21.0564
21.0564
21.0564
21.0563
21.0563
21.0563
21.0562
21.0562
21.0561
21.0561
21.056
21.0559
21.0558
21.0557
21.0556
21.0555
21.0554
21.0552
21.0551
21.0549
21.0548
21.0546
21.0544
21.0542
21.0539
21.0537
21.0534
21.0531
21.0528
21.0525
21.184
21.1842
21.1844
21.1846
21.1849
21.185
21.1852
21.1854
21.1856
21.1857
21.1859
21.186
21.1861
21.1863
21.1864
21.1865
21.1866
21.1867
21.1868
21.1869
21.1869
21.187
21.1871
21.1871
21.1872
21.1872
21.1872
21.1872
21.1873
21.1873
21.1873
21.1873
21.1872
21.1872
21.1872
21.1872
21.1871
21.1871
21.187
21.1869
21.1869
21.1868
21.1867
21.1866
21.1865
21.1864
21.1863
21.1861
21.186
21.1859
21.1857
21.1856
21.1854
21.1852
21.185
21.1849
21.1846
21.1844
21.1842
21.184
21.286
21.2861
21.2862
21.2864
21.2866
21.2867
21.2868
21.287
21.2871
21.2873
21.2874
21.2875
21.2877
21.2878
21.2879
21.288
21.2881
21.2882
21.2883
21.2884
21.2884
21.2885
21.2886
21.2886
21.2887
21.2887
21.2887
21.2887
21.2888
21.2888
21.2888
21.2888
21.2887
21.2887
21.2887
21.2887
21.2886
21.2886
21.2885
21.2884
21.2884
21.2883
21.2882
21.2881
21.288
21.2879
21.2878
21.2877
21.2875
21.2874
21.2873
21.2871
21.287
21.2868
21.2867
21.2866
21.2864
21.2862
21.2861
21.286
21.3669
21.367
21.3671
21.3672
21.3673
21.3674
21.3676
21.3677
21.3678
21.3679
21.368
21.3682
21.3683
21.3684
21.3685
21.3686
21.3687
21.3688
21.3689
21.369
21.3691
21.3691
21.3692
21.3692
21.3693
21.3693
21.3694
21.3694
21.3694
21.3694
21.3694
21.3694
21.3694
21.3694
21.3693
21.3693
21.3692
21.3692
21.3691
21.3691
21.369
21.3689
21.3688
21.3687
21.3686
21.3685
21.3684
21.3683
21.3682
21.368
21.3679
21.3678
21.3677
21.3676
21.3674
21.3673
21.3672
21.3671
21.367
21.3669
21.4329
21.433
21.433
21.4331
21.4332
21.4333
21.4334
21.4335
21.4336
21.4337
21.4338
21.434
21.4341
21.4342
21.4343
21.4344
21.4345
21.4346
21.4347
21.4348
21.4349
21.4349
21.435
21.435
21.4351
21.4351
21.4352
21.4352
21.4352
21.4352
21.4352
21.4352
21.4352
21.4352
21.4351
21.4351
21.435
21.435
21.4349
21.4349
21.4348
21.4347
21.4346
21.4345
21.4344
21.4343
21.4342
21.4341
21.434
21.4338
21.4337
21.4336
21.4335
21.4334
21.4333
21.4332
21.4331
21.433
21.433
21.4329
21.488
21.488
21.488
21.4881
21.4882
21.4882
21.4883
21.4884
21.4885
21.4886
21.4888
21.4889
21.489
21.4891
21.4892
21.4893
21.4894
21.4895
21.4896
21.4897
21.4898
21.4899
21.4899
21.49
21.49
21.4901
21.4901
21.4901
21.4901
21.4901
21.4901
21.4901
21.4901
21.4901
21.4901
21.49
21.49
21.4899
21.4899
21.4898
21.4897
21.4896
21.4895
21.4894
21.4893
21.4892
21.4891
21.489
21.4889
21.4888
21.4886
21.4885
21.4884
21.4883
21.4882
21.4882
21.4881
21.488
21.488
21.488
21.5347
21.5347
21.5347
21.5348
21.5348
21.5349
21.535
21.5351
21.5352
21.5353
21.5354
21.5355
21.5356
21.5357
21.5359
21.536
21.5361
21.5362
21.5363
21.5364
21.5364
21.5365
21.5366
21.5366
21.5367
21.5367
21.5368
21.5368
21.5368
21.5368
21.5368
21.5368
21.5368
21.5368
21.5367
21.5367
21.5366
21.5366
21.5365
21.5364
21.5364
21.5363
21.5362
21.5361
21.536
21.5359
21.5357
21.5356
21.5355
21.5354
21.5353
21.5352
21.5351
21.535
21.5349
21.5348
21.5348
21.5347
21.5347
21.5347
21.5748
21.5748
21.5748
21.5749
21.5749
21.575
21.575
21.5751
21.5752
21.5753
21.5754
21.5756
21.5757
21.5758
21.5759
21.576
21.5761
21.5762
21.5763
21.5764
21.5765
21.5766
21.5767
21.5767
21.5768
21.5768
21.5768
21.5769
21.5769
21.5769
21.5769
21.5769
21.5769
21.5768
21.5768
21.5768
21.5767
21.5767
21.5766
21.5765
21.5764
21.5763
21.5762
21.5761
21.576
21.5759
21.5758
21.5757
21.5756
21.5754
21.5753
21.5752
21.5751
21.575
21.575
21.5749
21.5749
21.5748
21.5748
21.5748
21.6096
21.6095
21.6095
21.6096
21.6096
21.6096
21.6097
21.6098
21.6099
21.61
21.6101
21.6102
21.6103
21.6105
21.6106
21.6107
21.6108
21.6109
21.611
21.6111
21.6112
21.6113
21.6114
21.6114
21.6115
21.6115
21.6115
21.6116
21.6116
21.6116
21.6116
21.6116
21.6116
21.6115
21.6115
21.6115
21.6114
21.6114
21.6113
21.6112
21.6111
21.611
21.6109
21.6108
21.6107
21.6106
21.6105
21.6103
21.6102
21.6101
21.61
21.6099
21.6098
21.6097
21.6096
21.6096
21.6096
21.6095
21.6095
21.6096
21.6397
21.6397
21.6397
21.6397
21.6397
21.6398
21.6398
21.6399
21.64
21.6401
21.6402
21.6403
21.6405
21.6406
21.6407
21.6408
21.6409
21.6411
21.6412
21.6413
21.6413
21.6414
21.6415
21.6416
21.6416
21.6417
21.6417
21.6417
21.6417
21.6418
21.6418
21.6417
21.6417
21.6417
21.6417
21.6416
21.6416
21.6415
21.6414
21.6413
21.6413
21.6412
21.6411
21.6409
21.6408
21.6407
21.6406
21.6405
21.6403
21.6402
21.6401
21.64
21.6399
21.6398
21.6398
21.6397
21.6397
21.6397
21.6397
21.6397
21.6659
21.6659
21.6659
21.6659
21.6659
21.6659
21.666
21.6661
21.6662
21.6663
21.6664
21.6665
21.6667
21.6668
21.6669
21.667
21.6672
21.6673
21.6674
21.6675
21.6676
21.6677
21.6677
21.6678
21.6678
21.6679
21.6679
21.668
21.668
21.668
21.668
21.668
21.668
21.6679
21.6679
21.6678
21.6678
21.6677
21.6677
21.6676
21.6675
21.6674
21.6673
21.6672
21.667
21.6669
21.6668
21.6667
21.6665
21.6664
21.6663
21.6662
21.6661
21.666
21.6659
21.6659
21.6659
21.6659
21.6659
21.6659
21.6887
21.6887
21.6887
21.6887
21.6887
21.6887
21.6888
21.6888
21.6889
21.689
21.6892
21.6893
21.6894
21.6895
21.6897
21.6898
21.6899
21.69
21.6902
21.6903
21.6904
21.6904
21.6905
21.6906
21.6906
21.6907
21.6907
21.6908
21.6908
21.6908
21.6908
21.6908
21.6908
21.6907
21.6907
21.6906
21.6906
21.6905
21.6904
21.6904
21.6903
21.6902
21.69
21.6899
21.6898
21.6897
21.6895
21.6894
21.6893
21.6892
21.689
21.6889
21.6888
21.6888
21.6887
21.6887
21.6887
21.6887
21.6887
21.6887
21.7084
21.7084
21.7084
21.7083
21.7084
21.7084
21.7085
21.7085
21.7086
21.7087
21.7089
21.709
21.7091
21.7093
21.7094
21.7095
21.7097
21.7098
21.7099
21.71
21.7101
21.7102
21.7103
21.7103
21.7104
21.7104
21.7105
21.7105
21.7105
21.7105
21.7105
21.7105
21.7105
21.7105
21.7104
21.7104
21.7103
21.7103
21.7102
21.7101
21.71
21.7099
21.7098
21.7097
21.7095
21.7094
21.7093
21.7091
21.709
21.7089
21.7087
21.7086
21.7085
21.7085
21.7084
21.7084
21.7083
21.7084
21.7084
21.7084
21.7254
21.7253
21.7253
21.7253
21.7253
21.7253
21.7254
21.7255
21.7256
21.7257
21.7258
21.7259
21.7261
21.7262
21.7263
21.7265
21.7266
21.7267
21.7269
21.727
21.7271
21.7272
21.7272
21.7273
21.7274
21.7274
21.7275
21.7275
21.7275
21.7275
21.7275
21.7275
21.7275
21.7275
21.7274
21.7274
21.7273
21.7272
21.7272
21.7271
21.727
21.7269
21.7267
21.7266
21.7265
21.7263
21.7262
21.7261
21.7259
21.7258
21.7257
21.7256
21.7255
21.7254
21.7253
21.7253
21.7253
21.7253
21.7253
21.7254
21.7398
21.7398
21.7397
21.7397
21.7397
21.7397
21.7398
21.7399
21.74
21.7401
21.7402
21.7403
21.7405
21.7406
21.7408
21.7409
21.741
21.7412
21.7413
21.7414
21.7415
21.7416
21.7417
21.7418
21.7418
21.7419
21.7419
21.742
21.742
21.742
21.742
21.742
21.742
21.7419
21.7419
21.7418
21.7418
21.7417
21.7416
21.7415
21.7414
21.7413
21.7412
21.741
21.7409
21.7408
21.7406
21.7405
21.7403
21.7402
21.7401
21.74
21.7399
21.7398
21.7397
21.7397
21.7397
21.7397
21.7398
21.7398
21.7519
21.7518
21.7518
21.7518
21.7518
21.7518
21.7519
21.7519
21.752
21.7522
21.7523
21.7524
21.7526
21.7527
21.7529
21.753
21.7532
21.7533
21.7534
21.7535
21.7537
21.7538
21.7538
21.7539
21.754
21.754
21.7541
21.7541
21.7541
21.7541
21.7541
21.7541
21.7541
21.7541
21.754
21.754
21.7539
21.7538
21.7538
21.7537
21.7535
21.7534
21.7533
21.7532
21.753
21.7529
21.7527
21.7526
21.7524
21.7523
21.7522
21.752
21.7519
21.7519
21.7518
21.7518
21.7518
21.7518
21.7518
21.7519
21.7618
21.7618
21.7617
21.7617
21.7617
21.7617
21.7618
21.7619
21.762
21.7621
21.7622
21.7624
21.7625
21.7627
21.7628
21.763
21.7631
21.7632
21.7634
21.7635
21.7636
21.7637
21.7638
21.7639
21.764
21.764
21.7641
21.7641
21.7641
21.7641
21.7641
21.7641
21.7641
21.7641
21.764
21.764
21.7639
21.7638
21.7637
21.7636
21.7635
21.7634
21.7632
21.7631
21.763
21.7628
21.7627
21.7625
21.7624
21.7622
21.7621
21.762
21.7619
21.7618
21.7617
21.7617
21.7617
21.7617
21.7618
21.7618
21.7697
21.7696
21.7696
21.7695
21.7695
21.7696
21.7696
21.7697
21.7698
21.7699
21.7701
21.7702
21.7704
21.7706
21.7707
21.7709
21.771
21.7712
21.7713
21.7714
21.7715
21.7716
21.7717
21.7718
21.7719
21.772
21.772
21.772
21.7721
21.7721
21.7721
21.7721
21.772
21.772
21.772
21.7719
21.7718
21.7717
21.7716
21.7715
21.7714
21.7713
21.7712
21.771
21.7709
21.7707
21.7706
21.7704
21.7702
21.7701
21.7699
21.7698
21.7697
21.7696
21.7696
21.7695
21.7695
21.7696
21.7696
21.7697
21.7756
21.7756
21.7755
21.7755
21.7755
21.7755
21.7756
21.7756
21.7758
21.7759
21.776
21.7762
21.7763
21.7765
21.7767
21.7768
21.777
21.7771
21.7773
21.7774
21.7775
21.7776
21.7777
21.7778
21.7779
21.778
21.778
21.778
21.7781
21.7781
21.7781
21.7781
21.778
21.778
21.778
21.7779
21.7778
21.7777
21.7776
21.7775
21.7774
21.7773
21.7771
21.777
21.7768
21.7767
21.7765
21.7763
21.7762
21.776
21.7759
21.7758
21.7756
21.7756
21.7755
21.7755
21.7755
21.7755
21.7756
21.7756
21.7797
21.7796
21.7796
21.7795
21.7795
21.7796
21.7796
21.7797
21.7798
21.78
21.7801
21.7803
21.7804
21.7806
21.7808
21.7809
21.7811
21.7813
21.7814
21.7815
21.7817
21.7818
21.7819
21.782
21.782
21.7821
21.7822
21.7822
21.7822
21.7822
21.7822
21.7822
21.7822
21.7822
21.7821
21.782
21.782
21.7819
21.7818
21.7817
21.7815
21.7814
21.7813
21.7811
21.7809
21.7808
21.7806
21.7804
21.7803
21.7801
21.78
21.7798
21.7797
21.7796
21.7796
21.7795
21.7795
21.7796
21.7796
21.7797
21.782
21.7819
21.7819
21.7818
21.7818
21.7818
21.7819
21.782
21.7821
21.7823
21.7824
21.7826
21.7828
21.7829
21.7831
21.7833
21.7834
21.7836
21.7838
21.7839
21.784
21.7841
21.7842
21.7843
21.7844
21.7845
21.7845
21.7846
21.7846
21.7846
21.7846
21.7846
21.7846
21.7845
21.7845
21.7844
21.7843
21.7842
21.7841
21.784
21.7839
21.7838
21.7836
21.7834
21.7833
21.7831
21.7829
21.7828
21.7826
21.7824
21.7823
21.7821
21.782
21.7819
21.7818
21.7818
21.7818
21.7819
21.7819
21.782
21.7826
21.7825
21.7824
21.7824
21.7824
21.7824
21.7825
21.7825
21.7827
21.7828
21.783
21.7831
21.7833
21.7835
21.7837
21.7839
21.784
21.7842
21.7844
21.7845
21.7846
21.7848
21.7849
21.785
21.785
21.7851
21.7852
21.7852
21.7852
21.7852
21.7852
21.7852
21.7852
21.7852
21.7851
21.785
21.785
21.7849
21.7848
21.7846
21.7845
21.7844
21.7842
21.784
21.7839
21.7837
21.7835
21.7833
21.7831
21.783
21.7828
21.7827
21.7825
21.7825
21.7824
21.7824
21.7824
21.7824
21.7825
21.7826
21.7814
21.7813
21.7812
21.7812
21.7812
21.7812
21.7813
21.7814
21.7815
21.7817
21.7818
21.782
21.7822
21.7824
21.7826
21.7828
21.7829
21.7831
21.7833
21.7834
21.7835
21.7837
21.7838
21.7839
21.784
21.784
21.7841
21.7841
21.7842
21.7842
21.7842
21.7842
21.7841
21.7841
21.784
21.784
21.7839
21.7838
21.7837
21.7835
21.7834
21.7833
21.7831
21.7829
21.7828
21.7826
21.7824
21.7822
21.782
21.7818
21.7817
21.7815
21.7814
21.7813
21.7812
21.7812
21.7812
21.7812
21.7813
21.7814
21.7786
21.7785
21.7784
21.7783
21.7783
21.7784
21.7784
21.7785
21.7787
21.7788
21.779
21.7792
21.7794
21.7796
21.7798
21.78
21.7801
21.7803