/*--------------------------------*- C++ -*----------------------------------*\
| =========                 |                                                 |
| \\      /  F ield         | foam-extend: Open Source CFD                    |
|  \\    /   O peration     | Version:     4.0                                |
|   \\  /    A nd           | Web:         http://www.foam-extend.org         |
|    \\/     M anipulation  |                                                 |
\*---------------------------------------------------------------------------*/
FoamFile
{
    version     2.0;
    format      ascii;
    class       surfaceScalarField;
    location    "18";
    object      phi;
}
// * * * * * * * * * * * * * * * * * * * * * * * * * * * * * * * * * * * * * //

dimensions      [0 3 -1 0 0 0 0];

internalField   nonuniform List<scalar> 
13744
(
-2.86265e-30
-4.67479e-27
2.48634e-33
-2.82963e-30
-2.37791e-32
2.70442e-32
-8.34443e-32
6.09549e-32
-5.74308e-32
-2.57615e-32
-3.27341e-32
-3.29458e-32
-3.67014e-33
-2.82939e-32
2.14629e-32
-1.72708e-32
3.71061e-32
-1.74777e-32
4.08647e-32
6.73534e-33
3.06007e-32
1.09704e-32
1.22936e-32
4.07412e-32
-1.02872e-32
4.05956e-32
-2.99371e-32
1.86932e-32
-4.28319e-32
1.31706e-32
-4.68687e-32
6.65367e-33
-4.2699e-32
-3.33207e-33
-3.18218e-32
-6.99662e-33
-1.81358e-32
-1.47656e-32
-5.05818e-33
-1.22201e-32
5.01597e-33
-9.81916e-33
1.02413e-32
-5.28348e-33
9.85851e-33
4.6571e-34
5.65852e-33
4.31181e-33
-2.86873e-34
6.9644e-33
-6.78718e-33
6.53137e-33
-1.20949e-32
5.74168e-33
-1.49457e-32
2.77969e-33
-1.55223e-32
2.17463e-33
-1.39074e-32
-1.40005e-33
-1.0679e-32
-2.56593e-33
-7.18232e-33
-3.26875e-33
-3.92305e-33
-2.50597e-33
-8.9963e-34
-2.00248e-33
1.38182e-33
-2.22167e-33
2.97545e-33
-1.91683e-34
4.09625e-33
-1.0252e-33
4.55379e-33
-5.39279e-34
4.54307e-33
1.55919e-34
4.19214e-33
6.42239e-34
3.39917e-33
1.32782e-33
2.40354e-33
1.48939e-33
1.82739e-33
1.14913e-33
1.58106e-33
-4.81018e-33
2.13025e-33
2.77509e-34
3.63024e-33
-7.39628e-34
5.91592e-33
-3.51009e-34
8.5524e-33
8.44813e-34
1.10641e-32
-2.27454e-33
1.28964e-32
-4.89894e-34
1.29967e-32
4.28609e-33
1.28552e-32
-1.54858e-33
9.82654e-33
1.42884e-33
7.70126e-33
1.67288e-32
3.60546e-33
8.26534e-33
3.03024e-33
-1.65877e-33
-2.06161e-34
1.16873e-32
3.38487e-33
-2.74294e-33
6.48273e-33
-3.92852e-33
5.99014e-33
-4.84212e-30
-4.66996e-27
-1.48325e-30
-6.30537e-30
5.47074e-32
-1.50879e-30
-1.61655e-31
2.7808e-31
-7.02281e-32
-1.14775e-31
-7.75847e-32
-3.95898e-32
-2.91366e-32
-7.56993e-32
-1.30459e-32
-3.24147e-32
1.36787e-32
-4.41126e-32
1.68798e-32
-1.82183e-32
1.16808e-32
2.10501e-32
-9.27549e-33
2.35735e-32
-3.20679e-32
4.36533e-32
-5.48065e-32
3.97207e-32
-6.97146e-32
2.75264e-32
-7.65004e-32
1.43189e-32
-7.25479e-32
7.99641e-33
-6.13443e-32
-1.91999e-32
-4.55905e-32
-2.50631e-32
-2.95034e-32
-2.5397e-32
-1.61047e-32
-2.23205e-32
-7.85299e-33
-1.42601e-32
-5.64889e-33
-4.57074e-33
-8.34864e-33
7.86256e-33
-1.3468e-32
1.69843e-32
-1.95078e-32
1.66925e-32
-2.47159e-32
1.15387e-32
-2.74293e-32
7.79107e-33
-2.7402e-32
2.21512e-33
-2.47237e-32
-5.86796e-33
-1.99827e-32
-7.69021e-33
-1.44444e-32
-8.75332e-33
-9.16596e-33
-7.69038e-33
-4.42207e-33
-5.04387e-33
-4.91064e-34
-4.57925e-33
2.56307e-33
-4.09319e-33
4.70482e-33
-1.83342e-33
6.13004e-33
-1.03657e-33
7.22092e-33
-2.38794e-34
8.17278e-33
2.90598e-34
9.13996e-33
1.19617e-33
1.0362e-32
1.28632e-33
1.22918e-32
1.96062e-33
1.50478e-32
-3.00158e-33
1.83356e-32
-1.83223e-33
2.20674e-32
-8.58806e-34
2.61438e-32
-4.34839e-33
2.97494e-32
-6.44322e-33
3.21006e-32
-1.61086e-33
3.25146e-32
-1.8367e-32
3.12396e-32
9.06415e-33
2.90901e-32
7.41364e-33
2.61543e-32
3.9025e-33
2.23299e-32
2.14231e-32
2.05177e-32
1.73923e-32
1.60975e-32
2.78249e-33
1.24208e-32
1.00138e-32
1.35883e-32
-9.95218e-34
1.40622e-32
-3.63428e-33
2.13768e-32
-7.03815e-30
-4.66292e-27
-2.54231e-30
-1.07601e-29
1.25521e-31
-4.17773e-30
-2.40834e-31
6.60092e-31
-6.21337e-32
-2.9546e-31
-1.12125e-31
-5.77666e-33
-4.3408e-32
-1.18605e-31
-4.8842e-32
-5.61488e-33
-1.7987e-32
-7.29715e-32
-2.44862e-32
7.61927e-33
-2.7244e-32
4.61353e-32
-5.14601e-32
5.6028e-32
-6.92757e-32
7.19603e-32
-8.85306e-32
6.16123e-32
-9.82741e-32
4.07591e-32
-1.02107e-31
1.73785e-32
-9.46297e-32
5.026e-33
-8.3255e-32
-3.07703e-32
-6.75865e-32
-4.93858e-32
-5.1402e-32
-3.57492e-32
-3.84568e-32
-3.50034e-32
-3.10455e-32
-1.6951e-32
-2.8376e-32
-4.42435e-33
-2.9963e-32
1.06809e-32
-3.32928e-32
2.07753e-33
-3.68082e-32
2.26152e-32
-3.96405e-32
1.46974e-32
-4.01596e-32
6.77265e-33
-3.75811e-32
-1.53352e-33
-3.2787e-32
-5.76684e-33
-2.68386e-32
-9.82082e-33
-2.01259e-32
-1.39426e-32
-1.3938e-32
-1.29698e-32
-8.81555e-33
-8.19965e-33
-4.22502e-33
-7.38683e-33
-3.01643e-34
-8.77089e-33
2.55975e-33
-3.53211e-33
5.39441e-33
-2.80168e-33
8.60483e-33
-2.25537e-33
1.20164e-32
-2.75044e-33
1.59772e-32
-2.06146e-33
2.07521e-32
-2.78325e-33
2.6012e-32
-3.97101e-33
3.21974e-32
-5.35866e-33
3.76249e-32
-5.64192e-33
4.27648e-32
-4.4032e-33
4.73607e-32
-3.23162e-33
5.10773e-32
-4.37977e-33
5.19352e-32
-2.57706e-33
5.18566e-32
-2.1126e-32
4.98207e-32
1.99981e-32
4.73083e-32
2.42646e-33
4.47409e-32
6.13654e-33
4.11743e-32
-4.97972e-34
4.05634e-32
-2.29827e-32
3.30052e-32
1.33865e-32
2.64891e-32
-2.36143e-32
2.30378e-32
4.05786e-33
1.61395e-32
6.64107e-33
3.79789e-32
-9.86494e-30
-4.65302e-27
-2.93707e-30
-1.7732e-29
1.39107e-31
-7.251e-30
-3.61353e-31
1.18072e-30
-8.43714e-32
-5.70724e-31
-1.64151e-31
9.72353e-32
-6.08629e-32
-2.25282e-31
-7.65219e-32
6.9877e-33
-3.2292e-32
-1.21783e-31
-4.56399e-32
3.21005e-32
-4.90535e-32
3.68442e-32
-8.35304e-32
8.61712e-32
-1.06067e-31
1.00891e-31
-1.31181e-31
9.55284e-32
-1.41785e-31
5.83009e-32
-1.45734e-31
2.19906e-32
-1.3443e-31
-3.66756e-33
-1.18496e-31
-4.01345e-32
-9.69278e-32
-6.8639e-32
-7.5339e-32
-6.80156e-32
-5.7973e-32
-5.11134e-32
-4.81454e-32
-2.60412e-32
-4.47478e-32
-1.0614e-32
-4.67221e-32
1.37029e-32
-5.06386e-32
2.26155e-32
-5.49816e-32
2.846e-32
-5.82964e-32
2.19351e-32
-5.84753e-32
1.5096e-32
-5.47447e-32
-3.23855e-33
-4.81172e-32
-1.39711e-32
-3.98889e-32
-1.6542e-32
-3.06858e-32
-2.17689e-32
-2.19123e-32
-2.01819e-32
-1.41448e-32
-1.75176e-32
-6.95257e-33
-1.37988e-32
-5.26727e-34
-1.3326e-32
4.59664e-33
-7.21084e-33
9.34364e-33
-5.57073e-33
1.42762e-32
-5.80343e-33
1.90026e-32
-7.15335e-33
2.40382e-32
-5.99813e-33
2.97538e-32
-6.91649e-33
3.62664e-32
-9.72999e-33
4.39852e-32
-1.01097e-32
5.13488e-32
-1.0756e-32
5.89629e-32
-3.86461e-33
6.65392e-32
-8.46451e-33
7.32073e-32
3.12019e-33
7.63632e-32
-3.96975e-33
7.83788e-32
-1.77546e-32
7.57962e-32
1.65419e-32
7.29758e-32
-1.68881e-33
6.69499e-32
1.22436e-32
6.15082e-32
1.82787e-32
5.63012e-32
5.99007e-33
4.70604e-32
2.12646e-32
3.37267e-32
1.33989e-33
3.4953e-32
5.6442e-33
1.62075e-32
2.56472e-32
5.46274e-32
-1.34629e-29
-4.63956e-27
-4.04446e-30
-2.7077e-29
1.3956e-31
-1.14315e-29
-4.70322e-31
1.79547e-30
-9.62662e-32
-9.45976e-31
-2.18384e-31
1.26018e-31
-9.02653e-32
-3.57245e-31
-1.25891e-31
8.85785e-33
-7.20169e-32
-1.72204e-31
-9.16471e-32
1.01678e-31
-8.93205e-32
2.45665e-32
-1.24949e-31
1.16664e-31
-1.4252e-31
1.21371e-31
-1.66309e-31
1.24391e-31
-1.73692e-31
6.82328e-32
-1.77818e-31
2.78337e-32
-1.6611e-31
-2.71674e-32
-1.50481e-31
-5.3627e-32
-1.28321e-31
-9.02136e-32
-1.06266e-31
-6.8405e-32
-8.74788e-32
-6.92145e-32
-7.55928e-32
-3.97124e-32
-7.00479e-32
-1.77707e-32
-6.96904e-32
1.54068e-32
-7.10959e-32
1.61755e-32
-7.36357e-32
3.42652e-32
-7.55174e-32
2.38573e-32
-7.43839e-32
1.57407e-32
-6.9743e-32
-7.84474e-33
-6.21916e-32
-1.83508e-32
-5.25622e-32
-2.34637e-32
-4.16386e-32
-3.14794e-32
-3.07669e-32
-3.0052e-32
-2.04208e-32
-2.38046e-32
-1.05988e-32
-2.1734e-32
-1.51788e-33
-1.97759e-32
6.1368e-33
-1.37663e-32
1.27966e-32
-1.04029e-32
1.93193e-32
-1.12092e-32
2.53065e-32
-1.33152e-32
3.16555e-32
-1.18534e-32
3.85876e-32
-1.38049e-32
4.71039e-32
-1.50943e-32
5.69658e-32
-1.29232e-32
6.75504e-32
-1.89539e-32
7.81932e-32
-1.12856e-32
8.94531e-32
-1.98155e-32
9.85546e-32
1.2125e-32
1.04272e-31
1.82128e-34
1.06501e-31
-1.19114e-32
1.0253e-31
4.78695e-33
9.74324e-32
1.3095e-33
8.90323e-32
1.67557e-32
8.07712e-32
1.58456e-32
7.38564e-32
2.44763e-33
6.24579e-32
2.14641e-32
4.49496e-32
1.62252e-32
5.15083e-32
4.07663e-33
1.60224e-32
6.30711e-32
7.07272e-32
-1.66634e-29
-4.6228e-27
-5.35932e-30
-3.84611e-29
9.66611e-32
-1.68856e-29
-5.9274e-31
2.49724e-30
-1.12364e-31
-1.42369e-30
-2.73889e-31
3.83704e-31
-1.20502e-31
-5.02226e-31
-1.77068e-31
7.66742e-32
-1.1538e-31
-2.40459e-31
-1.43589e-31
8.7482e-32
-1.37155e-31
3.40135e-32
-1.75009e-31
1.43302e-31
-1.86401e-31
1.47102e-31
-2.07174e-31
1.54818e-31
-2.09675e-31
7.6145e-32
-2.12017e-31
2.8053e-32
-1.98333e-31
-4.04021e-32
-1.827e-31
-6.93527e-32
-1.60152e-31
-1.10337e-31
-1.3789e-31
-1.04234e-31
-1.18482e-31
-8.72609e-32
-1.05797e-31
-4.76866e-32
-9.88828e-32
-1.95157e-32
-9.65882e-32
1.57524e-32
-9.54294e-32
1.24039e-32
-9.54878e-32
3.60292e-32
-9.49759e-32
2.27494e-32
-9.14442e-32
1.45409e-32
-8.4466e-32
-1.44194e-32
-7.47728e-32
-2.44232e-32
-6.33414e-32
-3.53991e-32
-5.0759e-32
-4.24102e-32
-3.8339e-32
-4.03783e-32
-2.66637e-32
-3.36111e-32
-1.56353e-32
-3.10566e-32
-5.3653e-33
-2.67965e-32
3.50138e-33
-2.21621e-32
1.16337e-32
-1.69736e-32
2.02011e-32
-1.89992e-32
2.88498e-32
-2.09204e-32
3.86318e-32
-2.09796e-32
4.95833e-32
-2.37148e-32
6.25455e-32
-2.60643e-32
7.65817e-32
-2.8244e-32
9.08793e-32
-3.07392e-32
1.03897e-31
-2.13134e-32
1.16729e-31
-2.71598e-32
1.25475e-31
8.80941e-33
1.30589e-31
-5.62442e-33
1.31006e-31
-7.69112e-33
1.25551e-31
-1.50364e-32
1.18133e-31
2.00034e-33
1.11063e-31
2.0996e-32
1.01238e-31
1.98261e-32
9.75729e-32
1.95659e-32
8.17022e-32
4.21514e-32
6.29122e-32
2.04819e-32
6.65676e-32
4.35489e-33
1.72574e-32
1.18422e-31
8.86066e-32
-1.95957e-29
-4.60323e-27
-6.34076e-30
-5.16057e-29
2.64499e-33
-2.32268e-29
-7.38551e-31
3.22022e-30
-1.42857e-31
-2.02703e-30
-3.3824e-31
6.161e-31
-1.56205e-31
-6.90295e-31
-2.30669e-31
1.68509e-31
-1.59281e-31
-3.1397e-31
-1.9481e-31
1.24544e-31
-1.85694e-31
2.53054e-32
-2.27616e-31
2.64576e-31
-2.33772e-31
1.24891e-31
-2.52825e-31
1.62896e-31
-2.51785e-31
7.90721e-32
-2.52756e-31
3.50193e-32
-2.36637e-31
-5.7166e-32
-2.19994e-31
-8.27786e-32
-1.95849e-31
-1.37522e-31
-1.72086e-31
-1.28167e-31
-1.5107e-31
-1.08636e-31
-1.3703e-31
-5.4193e-32
-1.28524e-31
-2.26122e-32
-1.24438e-31
1.25179e-32
-1.21216e-31
9.48191e-33
-1.19152e-31
3.6242e-32
-1.16438e-31
1.93341e-32
-1.10699e-31
1.36543e-32
-1.01382e-31
-1.94716e-32
-8.93493e-32
-3.18999e-32
-7.5834e-32
-4.48211e-32
-6.13171e-32
-5.52535e-32
-4.71316e-32
-5.28931e-32
-3.39352e-32
-4.99986e-32
-2.14277e-32
-4.14578e-32
-9.53927e-33
-3.80225e-32
9.26333e-34
-2.89914e-32
1.09432e-32
-2.55532e-32
2.19362e-32
-2.95163e-32
3.35708e-32
-3.2247e-32
4.68118e-32
-3.42095e-32
6.17517e-32
-3.77535e-32
7.87014e-32
-4.01719e-32
9.67442e-32
-4.67825e-32
1.14112e-31
-4.48819e-32
1.29624e-31
-2.64469e-32
1.43819e-31
-3.48814e-32
1.5336e-31
4.16311e-33
1.58087e-31
-3.2843e-33
1.57883e-31
-2.7576e-32
1.51373e-31
-7.75836e-33
1.42865e-31
4.31047e-33
1.3655e-31
2.19551e-32
1.24564e-31
2.18832e-32
1.2246e-31
-1.39531e-32
1.00874e-31
5.65163e-32
7.95454e-32
2.8912e-32
7.75556e-32
1.13575e-32
2.05042e-32
1.81503e-31
1.08939e-31
-2.27792e-29
-4.58042e-27
-7.51802e-30
-6.69727e-29
-1.4592e-31
-3.0594e-29
-9.0307e-31
3.99227e-30
-1.84506e-31
-2.74249e-30
-4.09542e-31
8.64377e-31
-1.97047e-31
-9.00984e-31
-2.88992e-31
2.33263e-31
-2.07541e-31
-3.95084e-31
-2.49914e-31
1.67292e-31
-2.38047e-31
-8.13528e-33
-2.84085e-31
3.26735e-31
-2.85038e-31
1.57358e-31
-3.02814e-31
1.93061e-31
-2.97961e-31
7.60645e-32
-2.9753e-31
3.59807e-32
-2.78678e-31
-7.29604e-32
-2.60742e-31
-9.2823e-32
-2.35015e-31
-1.65754e-31
-2.09404e-31
-1.42787e-31
-1.86369e-31
-1.31379e-31
-1.70746e-31
-7.37121e-32
-1.60326e-31
-3.12289e-32
-1.54172e-31
8.26802e-33
-1.48692e-31
5.95359e-33
-1.44484e-31
3.83112e-32
-1.39758e-31
1.98316e-32
-1.32285e-31
6.72508e-33
-1.2106e-31
-2.67574e-32
-1.06977e-31
-4.24796e-32
-9.16002e-32
-5.83528e-32
-7.50228e-32
-6.95427e-32
-5.85046e-32
-6.68589e-32
-4.27884e-32
-6.41163e-32
-2.74652e-32
-5.40098e-32
-1.25379e-32
-5.30571e-32
7.46865e-34
-4.11935e-32
1.33856e-32
-3.67733e-32
2.69291e-32
-4.17154e-32
4.08693e-32
-4.6967e-32
5.63089e-32
-4.95931e-32
7.35486e-32
-5.45652e-32
9.292e-32
-5.83171e-32
1.13814e-31
-6.5035e-32
1.34126e-31
-6.15878e-32
1.52856e-31
-4.82691e-32
1.70241e-31
-4.18765e-32
1.83119e-31
-1.05826e-33
1.89934e-31
-3.15557e-33
1.91491e-31
-1.60004e-32
1.83663e-31
-3.83189e-34
1.73915e-31
8.54331e-33
1.65392e-31
2.97406e-32
1.49711e-31
2.51716e-32
1.44589e-31
8.50202e-33
1.18878e-31
1.02875e-31
9.36981e-32
3.31735e-32
9.07179e-32
1.80576e-32
2.39724e-32
2.53994e-31
1.33322e-31
-2.59487e-29
-4.55441e-27
-9.01369e-30
-8.39241e-29
-3.5065e-31
-3.92538e-29
-1.08782e-30
4.73675e-30
-2.37231e-31
-3.59235e-30
-4.8873e-31
1.10852e-30
-2.44362e-31
-1.18634e-30
-3.52807e-31
3.56828e-31
-2.60534e-31
-4.92604e-31
-3.10007e-31
1.95693e-31
-2.95077e-31
3.26544e-32
-3.44686e-31
3.95389e-31
-3.40199e-31
1.35515e-31
-3.56708e-31
2.04614e-31
-3.4815e-31
7.24817e-32
-3.46245e-31
4.01138e-32
-3.24718e-31
-9.35854e-32
-3.05433e-31
-1.07881e-31
-2.77717e-31
-1.97284e-31
-2.50135e-31
-1.75505e-31
-2.24831e-31
-1.56558e-31
-2.07327e-31
-9.31908e-32
-1.94818e-31
-4.30041e-32
-1.86447e-31
1.8754e-33
-1.78694e-31
1.196e-33
-1.72354e-31
3.84509e-32
-1.65486e-31
1.40424e-32
-1.56012e-31
1.38512e-34
-1.42716e-31
-3.87714e-32
-1.26378e-31
-5.58808e-32
-1.08837e-31
-7.21623e-32
-8.98504e-32
-8.66987e-32
-7.06781e-32
-8.57551e-32
-5.22468e-32
-7.94784e-32
-3.39706e-32
-6.92686e-32
-1.59164e-32
-6.65253e-32
1.11017e-34
-5.46308e-32
1.52216e-32
-5.04834e-32
3.13006e-32
-5.74397e-32
4.75707e-32
-6.24816e-32
6.55048e-32
-6.77979e-32
8.54248e-32
-7.48133e-32
1.08013e-31
-8.15843e-32
1.32333e-31
-8.4479e-32
1.56517e-31
-8.24069e-32
1.78953e-31
-6.13965e-32
2.00051e-31
-5.51053e-32
2.15889e-31
-1.59483e-32
2.24602e-31
-5.26779e-33
2.26331e-31
-1.30675e-32
2.17135e-31
1.67119e-32
2.05936e-31
8.52902e-33
1.94658e-31
3.79278e-32
1.76158e-31
3.21216e-32
1.68176e-31
-7.92341e-33
1.3939e-31
1.21761e-31
1.09029e-31
1.28444e-31
1.07854e-31
2.80535e-32
2.61906e-32
3.3931e-31
1.60577e-31
-2.90298e-29
-4.52543e-27
-1.04428e-29
-1.02384e-28
-6.1137e-31
-4.90788e-29
-1.29581e-30
5.42824e-30
-3.03833e-31
-4.5824e-30
-5.79161e-31
1.30538e-30
-3.00796e-31
-1.45087e-30
-4.23359e-31
5.31672e-31
-3.19774e-31
-6.00371e-31
-3.76617e-31
2.82493e-31
-3.58019e-31
-1.07144e-32
-4.10685e-31
4.36507e-31
-4.00179e-31
1.44768e-31
-4.14586e-31
2.28411e-31
-4.02734e-31
6.47209e-32
-3.98952e-31
3.80767e-32
-3.74215e-31
-1.10194e-31
-3.53295e-31
-1.31316e-31
-3.2378e-31
-2.18861e-31
-2.94267e-31
-2.00652e-31
-2.66604e-31
-1.83337e-31
-2.46985e-31
-1.04207e-31
-2.32261e-31
-5.56202e-32
-2.21699e-31
-8.03178e-33
-2.11594e-31
-1.41562e-32
-2.02849e-31
2.95788e-32
-1.93429e-31
6.35701e-33
-1.81545e-31
-8.99917e-33
-1.65701e-31
-5.47528e-32
-1.46615e-31
-7.10313e-32
-1.26469e-31
-9.24978e-32
-1.04854e-31
-1.05116e-31
-8.31249e-32
-1.03962e-31
-6.22972e-32
-9.90326e-32
-4.15343e-32
-8.67775e-32
-2.08308e-32
-8.25123e-32
-2.44469e-33
-7.07585e-32
1.5011e-32
-6.707e-32
3.38743e-32
-7.58349e-32
5.31871e-32
-8.06069e-32
7.46909e-32
-8.974e-32
9.85715e-32
-9.83917e-32
1.25641e-31
-1.05587e-31
1.5449e-31
-1.0551e-31
1.8309e-31
-1.0681e-31
2.09021e-31
-8.07278e-32
2.33184e-31
-7.05396e-32
2.50581e-31
-2.28528e-32
2.60166e-31
-5.65845e-33
2.61405e-31
-2.70077e-33
2.50344e-31
2.30551e-32
2.37214e-31
3.15789e-32
2.25222e-31
3.68437e-32
2.04124e-31
6.32298e-32
1.94575e-31
3.11712e-32
1.61662e-31
1.82841e-31
1.27726e-31
1.49508e-31
1.25998e-31
3.77407e-32
2.78503e-32
4.41744e-31
1.89138e-31
-3.22073e-29
-4.49326e-27
-1.17237e-29
-1.23093e-28
-9.35305e-31
-5.98622e-29
-1.52777e-30
6.04092e-30
-3.84921e-31
-5.72365e-30
-6.79274e-31
1.54659e-30
-3.64958e-31
-1.7955e-30
-5.01173e-31
5.99628e-31
-3.85508e-31
-7.15763e-31
-4.48885e-31
3.33143e-31
-4.26234e-31
-2.03749e-32
-4.81621e-31
5.45448e-31
-4.65209e-31
1.14993e-31
-4.77364e-31
2.46606e-31
-4.61786e-31
5.53299e-32
-4.55937e-31
4.05619e-32
-4.28059e-31
-1.33844e-31
-4.05403e-31
-1.57279e-31
-3.73734e-31
-2.53519e-31
-3.42374e-31
-2.29036e-31
-3.12178e-31
-2.13777e-31
-2.90125e-31
-1.24588e-31
-2.73012e-31
-6.64544e-32
-2.59896e-31
-1.95345e-32
-2.47133e-31
-2.15277e-32
-2.35759e-31
2.11851e-32
-2.23588e-31
-2.138e-33
-2.08991e-31
-2.03989e-32
-1.90383e-31
-6.66051e-32
-1.6842e-31
-8.74748e-32
-1.45555e-31
-1.10507e-31
-1.21393e-31
-1.26043e-31
-9.70788e-32
-1.26619e-31
-7.36277e-32
-1.16378e-31
-5.01123e-32
-1.07491e-31
-2.64834e-32
-1.0053e-31
-5.36068e-33
-8.96216e-32
1.48647e-32
-8.56781e-32
3.68726e-32
-9.72988e-32
5.95656e-32
-1.04035e-31
8.48287e-32
-1.15021e-31
1.12821e-31
-1.27142e-31
1.44303e-31
-1.39136e-31
1.7757e-31
-1.33837e-31
2.10432e-31
-1.35401e-31
2.40241e-31
-1.05119e-31
2.6747e-31
-9.02535e-32
2.87189e-31
-3.6131e-32
2.97987e-31
-1.64319e-32
2.98876e-31
-1.00904e-33
2.86789e-31
2.09723e-32
2.72231e-31
4.32969e-32
2.59214e-31
4.57679e-32
2.34482e-31
6.6027e-32
2.23669e-31
6.56471e-32
1.84861e-31
2.06787e-31
1.46629e-31
2.27483e-31
1.42095e-31
5.08468e-32
3.06851e-32
5.57597e-31
2.2097e-31
-3.54998e-29
-4.45766e-27
-1.31318e-29
-1.45414e-28
-1.32591e-30
-7.16631e-29
-1.78737e-30
6.49639e-30
-4.83412e-31
-7.02633e-30
-7.90406e-31
1.9256e-30
-4.38212e-31
-2.17564e-30
-5.8649e-31
7.71784e-31
-4.58208e-31
-8.45187e-31
-5.27258e-31
3.61667e-31
-5.00356e-31
-7.51805e-32
-5.57519e-31
5.86304e-31
-5.34773e-31
9.29908e-32
-5.45203e-31
2.64826e-31
-5.25569e-31
4.20843e-32
-5.1757e-31
3.68544e-32
-4.86331e-31
-1.75936e-31
-4.61773e-31
-1.81863e-31
-4.27971e-31
-2.81349e-31
-3.94181e-31
-2.62507e-31
-3.61195e-31
-2.467e-31
-3.3662e-31
-1.47944e-31
-3.16809e-31
-8.65108e-32
-3.01071e-31
-3.22278e-32
-2.85677e-31
-3.942e-32
-2.71341e-31
1.18342e-32
-2.56189e-31
-1.5132e-32
-2.39036e-31
-3.23267e-32
-2.17612e-31
-8.39524e-32
-1.92679e-31
-1.06803e-31
-1.67074e-31
-1.31294e-31
-1.40054e-31
-1.49989e-31
-1.127e-31
-1.51588e-31
-8.61862e-32
-1.38626e-31
-5.94485e-32
-1.2995e-31
-3.24219e-32
-1.22576e-31
-8.03053e-33
-1.12194e-31
1.53919e-32
-1.06362e-31
4.07525e-32
-1.21662e-31
6.68566e-32
-1.29557e-31
9.57e-32
-1.44047e-31
1.27571e-31
-1.57842e-31
1.63229e-31
-1.75149e-31
2.0079e-31
-1.65184e-31
2.38034e-31
-1.67985e-31
2.72221e-31
-1.36272e-31
3.03162e-31
-1.12058e-31
3.25927e-31
-4.73706e-32
3.386e-31
-2.6379e-32
3.4059e-31
-2.02401e-32
3.27486e-31
2.31322e-32
3.11107e-31
5.26139e-32
2.95946e-31
5.40186e-32
2.67154e-31
9.67742e-32
2.52652e-31
1.96197e-32
2.08323e-31
2.66421e-31
1.66915e-31
2.57757e-31
1.59537e-31
6.83163e-32
3.47507e-32
6.93759e-31
2.56676e-31
-3.87051e-29
-4.41901e-27
-1.47385e-29
-1.69417e-28
-1.7853e-30
-8.46121e-29
-2.07609e-30
6.77869e-30
-6.00334e-31
-8.50027e-30
-9.15595e-31
2.26193e-30
-5.22417e-31
-2.5771e-30
-6.79603e-31
9.45025e-31
-5.38763e-31
-9.90693e-31
-6.12029e-31
5.16942e-31
-5.78918e-31
-5.47035e-32
-6.38453e-31
7.03426e-31
-6.10489e-31
5.75034e-32
-6.18536e-31
2.82764e-31
-5.94748e-31
2.46158e-32
-5.84194e-31
4.00258e-32
-5.49796e-31
-2.23565e-31
-5.23341e-31
-2.07035e-31
-4.87094e-31
-3.26173e-31
-4.50598e-31
-3.13083e-31
-4.14367e-31
-2.8231e-31
-3.86948e-31
-1.76956e-31
-3.64236e-31
-1.04375e-31
-3.45632e-31
-4.8919e-32
-3.27214e-31
-5.46008e-32
-3.0975e-31
1.3098e-33
-2.91583e-31
-2.92873e-32
-2.71492e-31
-5.32907e-32
-2.46979e-31
-1.03419e-31
-2.19044e-31
-1.25e-31
-1.90449e-31
-1.5924e-31
-1.60338e-31
-1.76476e-31
-1.29836e-31
-1.79659e-31
-9.99774e-32
-1.69381e-31
-6.96849e-32
-1.54692e-31
-3.90538e-32
-1.47605e-31
-1.11544e-32
-1.36889e-31
1.5634e-32
-1.31998e-31
4.45626e-32
-1.49747e-31
7.42962e-32
-1.59259e-31
1.06932e-31
-1.77972e-31
1.42908e-31
-1.95701e-31
1.83075e-31
-2.15301e-31
2.25204e-31
-2.03357e-31
2.67333e-31
-2.0462e-31
3.06293e-31
-1.75707e-31
3.41389e-31
-1.36961e-31
3.67744e-31
-6.17222e-32
3.822e-31
-2.85931e-32
3.84571e-31
-4.72456e-33
3.70785e-31
5.08744e-32
3.52737e-31
7.6956e-32
3.34621e-31
6.09694e-32
3.01985e-31
1.32716e-31
2.84049e-31
1.6157e-32
2.34095e-31
3.21348e-31
1.88813e-31
3.20069e-31
1.79336e-31
9.28054e-32
3.89298e-32
8.38858e-31
2.97105e-31
-4.1778e-29
-4.37726e-27
-1.63884e-29
-1.94584e-28
-2.32025e-30
-9.86695e-29
-2.39687e-30
6.88537e-30
-7.38031e-31
-1.01587e-29
-1.05035e-30
2.69643e-30
-6.13584e-31
-3.02677e-30
-7.81838e-31
1.06148e-30
-6.27254e-31
-1.1442e-30
-7.04089e-31
5.65454e-31
-6.64313e-31
-1.26755e-31
-7.23719e-31
7.29551e-31
-6.90575e-31
5.37853e-32
-6.9768e-31
2.97375e-31
-6.69385e-31
5.80631e-33
-6.55965e-31
3.17852e-32
-6.18046e-31
-2.52184e-31
-5.89265e-31
-2.30277e-31
-5.50563e-31
-3.59734e-31
-5.11572e-31
-3.41676e-31
-4.71921e-31
-3.20601e-31
-4.41437e-31
-2.08593e-31
-4.1557e-31
-1.30337e-31
-3.93794e-31
-6.83647e-32
-3.72212e-31
-6.63648e-32
-3.51427e-31
-1.48504e-32
-3.29967e-31
-4.6076e-32
-3.06809e-31
-7.18074e-32
-2.78955e-31
-1.25764e-31
-2.47667e-31
-1.54591e-31
-2.15862e-31
-1.88745e-31
-1.82341e-31
-2.07019e-31
-1.48391e-31
-2.08861e-31
-1.15049e-31
-1.93878e-31
-8.10584e-32
-1.84043e-31
-4.67505e-32
-1.74945e-31
-1.51823e-32
-1.62888e-31
1.53441e-32
-1.59673e-31
4.81224e-32
-1.80748e-31
8.18048e-32
-1.93277e-31
1.18631e-31
-2.15348e-31
1.59127e-31
-2.36362e-31
2.04246e-31
-2.61283e-31
2.51575e-31
-2.47245e-31
2.98958e-31
-2.46772e-31
3.42598e-31
-2.06949e-31
3.82046e-31
-1.66002e-31
4.12332e-31
-8.81163e-32
4.28676e-31
-3.99188e-32
4.3113e-31
-2.49107e-32
4.16877e-31
5.18674e-32
3.96787e-31
9.15877e-32
3.75664e-31
8.2854e-32
3.39083e-31
1.63022e-31
3.17224e-31
1.93783e-32
2.61574e-31
3.87955e-31
2.11614e-31
3.78529e-31
1.99476e-31
1.19365e-31
4.29707e-32
1.00455e-30
3.43148e-31
-4.48328e-29
-4.33244e-27
-1.80149e-29
-2.21408e-28
-2.92799e-30
-1.13748e-28
-2.75249e-30
6.69824e-30
-8.98383e-31
-1.20116e-29
-1.20505e-30
3.00337e-30
-7.21832e-31
-3.49803e-30
-8.91806e-31
1.30196e-30
-7.22908e-31
-1.31797e-30
-8.04415e-31
6.44549e-31
-7.57059e-31
-1.78978e-31
-8.15437e-31
8.24755e-31
-7.7729e-31
5.05747e-32
-7.82873e-31
3.18962e-31
-7.49854e-31
-1.72762e-32
-7.33513e-31
1.2963e-32
-6.91603e-31
-2.80085e-31
-6.6053e-31
-2.58417e-31
-6.19143e-31
-3.99575e-31
-5.77125e-31
-3.84152e-31
-5.34046e-31
-3.63899e-31
-5.00249e-31
-2.40429e-31
-4.71197e-31
-1.58091e-31
-4.46044e-31
-9.17129e-32
-4.20833e-31
-9.39166e-32
-3.9642e-31
-3.44433e-32
-3.71381e-31
-6.69073e-32
-3.44969e-31
-9.6485e-32
-3.1371e-31
-1.53906e-31
-2.78839e-31
-1.92124e-31
-2.4342e-31
-2.18694e-31
-2.06303e-31
-2.39569e-31
-1.68672e-31
-2.43681e-31
-1.31652e-31
-2.25698e-31
-9.37546e-32
-2.16935e-31
-5.53676e-32
-2.09751e-31
-1.98117e-32
-1.94927e-31
1.47462e-32
-1.91534e-31
5.16927e-32
-2.15892e-31
8.96461e-32
-2.31767e-31
1.30977e-31
-2.57504e-31
1.76235e-31
-2.81738e-31
2.26573e-31
-3.08479e-31
2.79287e-31
-2.98565e-31
3.32168e-31
-2.94189e-31
3.81114e-31
-2.48214e-31
4.25236e-31
-2.02695e-31
4.59511e-31
-1.06652e-31
4.77888e-31
-4.90836e-32
4.80188e-31
-4.73211e-33
4.65816e-31
6.31385e-32
4.44201e-31
1.08998e-31
4.19804e-31
9.77246e-32
3.79119e-31
1.88631e-31
3.51997e-31
5.81031e-32
2.89175e-31
4.68285e-31
2.34956e-31
4.06224e-31
2.19894e-31
1.48992e-31
4.73811e-32
1.18897e-30
3.93681e-31
-4.78968e-29
-4.28456e-27
-1.96938e-29
-2.49613e-28
-3.61833e-30
-1.29816e-28
-3.14546e-30
6.2475e-30
-1.08474e-30
-1.40703e-29
-1.37304e-30
3.13991e-30
-8.39729e-31
-4.05688e-30
-1.01197e-30
1.40379e-30
-8.27623e-31
-1.50276e-30
-9.11393e-31
7.73836e-31
-8.55773e-31
-2.58482e-31
-9.13422e-31
8.84776e-31
-8.6902e-31
-7.92692e-33
-8.73809e-31
3.31113e-31
-8.3683e-31
-4.47124e-32
-8.17045e-31
4.25871e-33
-7.71081e-31
-3.08415e-31
-7.37382e-31
-2.95419e-31
-6.92953e-31
-4.41964e-31
-6.47938e-31
-4.26335e-31
-6.01216e-31
-4.09885e-31
-5.63801e-31
-2.7953e-31
-5.3075e-31
-1.88199e-31
-5.01933e-31
-1.18943e-31
-4.7339e-31
-1.125e-31
-4.45013e-31
-6.11035e-32
-4.16131e-31
-9.11604e-32
-3.86391e-31
-1.22119e-31
-3.51398e-31
-1.80042e-31
-3.1253e-31
-2.18659e-31
-2.73375e-31
-2.53406e-31
-2.3247e-31
-2.75966e-31
-1.90829e-31
-2.79992e-31
-1.49796e-31
-2.62275e-31
-1.07656e-31
-2.52906e-31
-6.50803e-32
-2.45248e-31
-2.52498e-32
-2.30071e-31
1.38809e-32
-2.27531e-31
5.536e-32
-2.55919e-31
9.78907e-32
-2.73732e-31
1.43954e-31
-3.04804e-31
1.94216e-31
-3.33901e-31
2.49976e-31
-3.6367e-31
3.08498e-31
-3.5322e-31
3.6718e-31
-3.47167e-31
4.21389e-31
-2.9159e-31
4.70483e-31
-2.41658e-31
5.09235e-31
-1.26117e-31
5.29701e-31
-5.89844e-32
5.31923e-31
8.02615e-33
5.17157e-31
8.97542e-32
4.94257e-31
1.25633e-31
4.67013e-31
1.05788e-31
4.21514e-31
2.15071e-31
3.88974e-31
5.95868e-32
3.19553e-31
5.44522e-31
2.60158e-31
4.94889e-31
2.40852e-31
1.82717e-31
5.225e-32
1.38719e-30
4.51131e-31
-5.09014e-29
-4.23374e-27
-2.14492e-29
-2.79086e-28
-4.39248e-30
-1.46865e-28
-3.57824e-30
5.45514e-30
-1.29806e-30
-1.63481e-29
-1.56232e-30
3.37017e-30
-9.77283e-31
-4.67766e-30
-1.14371e-30
1.57906e-30
-9.42415e-31
-1.71226e-30
-1.02747e-30
7.89569e-31
-9.6198e-31
-2.73539e-31
-1.02037e-30
9.59051e-31
-9.70135e-31
-4.20164e-32
-9.72067e-31
3.35732e-31
-9.30466e-31
-7.66879e-32
-9.07199e-31
-1.20314e-32
-8.56899e-31
-3.3567e-31
-8.2063e-31
-3.15766e-31
-7.72905e-31
-4.78926e-31
-7.24658e-31
-4.86666e-31
-6.74083e-31
-4.59454e-31
-6.32189e-31
-3.17e-31
-5.95027e-31
-2.20675e-31
-5.62463e-31
-1.49523e-31
-5.30081e-31
-1.36062e-31
-4.97387e-31
-8.77598e-32
-4.64372e-31
-1.17273e-31
-4.31052e-31
-1.50608e-31
-3.92245e-31
-2.12178e-31
-3.49272e-31
-2.57156e-31
-3.05881e-31
-2.90964e-31
-2.60868e-31
-3.17273e-31
-2.15027e-31
-3.20904e-31
-1.6962e-31
-2.9983e-31
-1.22911e-31
-2.93651e-31
-7.58742e-32
-2.84606e-31
-3.14142e-32
-2.69116e-31
1.26962e-32
-2.67628e-31
5.90103e-32
-3.00386e-31
1.06446e-31
-3.20342e-31
1.57532e-31
-3.55777e-31
2.13058e-31
-3.89722e-31
2.7461e-31
-4.22759e-31
3.39445e-31
-4.09782e-31
4.04196e-31
-4.05824e-31
4.64219e-31
-3.35667e-31
5.18702e-31
-2.84051e-31
5.61654e-31
-1.54494e-31
5.84617e-31
-7.73583e-32
5.87851e-31
2.89134e-32
5.72519e-31
1.15864e-31
5.47773e-31
1.39797e-31
5.1738e-31
1.22522e-31
4.67351e-31
2.46492e-31
4.29256e-31
8.87715e-32
3.5165e-31
6.22984e-31
2.86578e-31
5.94275e-31
2.63127e-31
2.20608e-31
5.75268e-32
1.60581e-30
5.12113e-31
-5.38094e-29
-4.17981e-27
-2.32626e-29
-3.09794e-28
-5.25757e-30
-1.6486e-28
-4.05279e-30
4.27002e-30
-1.54047e-30
-1.88576e-29
-1.77266e-30
3.55011e-30
-1.13165e-30
-5.34626e-30
-1.28738e-30
1.71886e-30
-1.06784e-30
-1.93409e-30
-1.15253e-30
8.6462e-31
-1.07747e-30
-4.1325e-31
-1.1352e-30
1.03081e-30
-1.07889e-30
-8.53151e-32
-1.07845e-30
3.42465e-31
-1.03165e-30
-1.17226e-31
-1.00411e-30
-3.03473e-32
-9.48788e-31
-3.96317e-31
-9.09351e-31
-3.56122e-31
-8.58336e-31
-5.32145e-31
-8.06424e-31
-5.40388e-31
-7.52005e-31
-5.1288e-31
-7.05502e-31
-3.66678e-31
-6.64029e-31
-2.62273e-31
-6.27745e-31
-1.83022e-31
-5.9104e-31
-1.7261e-31
-5.53814e-31
-1.20633e-31
-5.16604e-31
-1.52094e-31
-4.79239e-31
-1.88353e-31
-4.36274e-31
-2.48248e-31
-3.8908e-31
-2.96046e-31
-3.41239e-31
-3.32862e-31
-2.91747e-31
-3.62048e-31
-2.41349e-31
-3.65495e-31
-1.91124e-31
-3.42015e-31
-1.39523e-31
-3.39105e-31
-8.77808e-32
-3.29627e-31
-3.83368e-32
-3.12971e-31
1.10493e-32
-3.12218e-31
6.25402e-32
-3.48355e-31
1.15213e-31
-3.71858e-31
1.71629e-31
-4.12742e-31
2.32784e-31
-4.51912e-31
3.00462e-31
-4.92612e-31
3.71803e-31
-4.86063e-31
4.43029e-31
-4.70231e-31
5.09241e-31
-3.94211e-31
5.69509e-31
-3.31763e-31
6.17412e-31
-1.86485e-31
6.4351e-31
-8.95351e-32
6.48632e-31
4.19042e-32
6.33334e-31
1.42677e-31
6.05628e-31
1.62531e-31
5.70911e-31
1.46606e-31
5.16425e-31
2.77281e-31
4.71345e-31
1.11199e-31
3.84721e-31
7.10603e-31
3.15418e-31
5.90081e-31
2.87649e-31
2.65553e-31
6.329e-32
1.84467e-30
5.81385e-31
-5.66245e-29
-4.12326e-27
-2.51024e-29
-3.41202e-28
-6.20136e-30
-1.83749e-28
-4.57236e-30
2.63129e-30
-1.81531e-30
-2.16051e-29
-2.00282e-30
3.79029e-30
-1.30258e-30
-6.04349e-30
-1.44487e-30
1.86675e-30
-1.20482e-30
-2.17943e-30
-1.28864e-30
9.27682e-31
-1.20262e-30
-5.07911e-31
-1.26009e-30
1.06041e-30
-1.19806e-30
-1.69845e-31
-1.19284e-30
3.37684e-31
-1.14054e-30
-1.58437e-31
-1.10871e-30
-4.79766e-32
-1.04827e-30
-4.48745e-31
-1.00507e-30
-3.94618e-31
-9.50276e-31
-5.82053e-31
-8.94256e-31
-5.78932e-31
-8.35703e-31
-5.70674e-31
-7.84684e-31
-4.13151e-31
-7.38782e-31
-3.05903e-31
-6.9836e-31
-2.20529e-31
-6.56945e-31
-2.13647e-31
-6.14949e-31
-1.58016e-31
-5.73014e-31
-1.88688e-31
-5.31407e-31
-2.2066e-31
-4.83979e-31
-2.86448e-31
-4.3202e-31
-3.45646e-31
-3.79449e-31
-3.81553e-31
-3.25199e-31
-4.09953e-31
-2.70033e-31
-4.14513e-31
-2.14863e-31
-3.88957e-31
-1.57916e-31
-3.89532e-31
-1.00909e-31
-3.76835e-31
-4.617e-32
-3.62142e-31
8.87907e-33
-3.61689e-31
6.59799e-32
-4.02529e-31
1.24196e-31
-4.29617e-31
1.86312e-31
-4.75181e-31
2.53542e-31
-5.20197e-31
3.27674e-31
-5.63569e-31
4.05996e-31
-5.65556e-31
4.8404e-31
-5.41409e-31
5.56441e-31
-4.58533e-31
6.22947e-31
-3.85771e-31
6.76207e-31
-2.25882e-31
7.05301e-31
-1.08605e-31
7.11419e-31
4.52858e-32
6.96834e-31
1.55074e-31
6.67421e-31
1.84316e-31
6.27902e-31
1.81098e-31
5.68666e-31
3.36612e-31
5.16885e-31
1.39738e-31
4.20874e-31
8.06709e-31
3.48092e-31
7.15461e-31
3.14969e-31
3.1996e-31
6.95211e-32
2.10827e-30
6.58383e-31
-5.93457e-29
-4.06387e-27
-2.69786e-29
-3.73548e-28
-7.23979e-30
-2.03469e-28
-5.13944e-30
5.6935e-31
-2.12426e-30
-2.46106e-29
-2.25677e-30
4.00138e-30
-1.49309e-30
-6.76968e-30
-1.61932e-30
1.98534e-30
-1.35672e-30
-2.44852e-30
-1.43776e-30
9.96392e-31
-1.34004e-30
-5.74876e-31
-1.3939e-30
1.15847e-30
-1.32741e-30
-2.0957e-31
-1.3178e-30
3.39758e-31
-1.25819e-30
-2.09711e-31
-1.22108e-30
-7.1765e-32
-1.1557e-30
-4.97009e-31
-1.10828e-30
-4.32456e-31
-1.04857e-30
-6.40718e-31
-9.88881e-31
-6.25819e-31
-9.26233e-31
-6.31634e-31
-8.70575e-31
-4.73554e-31
-8.19836e-31
-3.58044e-31
-7.74387e-31
-2.63111e-31
-7.27545e-31
-2.57899e-31
-6.80257e-31
-1.98863e-31
-6.33577e-31
-2.28738e-31
-5.87478e-31
-2.54305e-31
-5.35359e-31
-3.29869e-31
-4.78583e-31
-3.9273e-31
-4.20965e-31
-4.31181e-31
-3.61497e-31
-4.64026e-31
-3.0116e-31