/*--------------------------------*- C++ -*----------------------------------*\
| =========                 |                                                 |
| \\      /  F ield         | foam-extend: Open Source CFD                    |
|  \\    /   O peration     | Version:     4.0                                |
|   \\  /    A nd           | Web:         http://www.foam-extend.org         |
|    \\/     M anipulation  |                                                 |
\*---------------------------------------------------------------------------*/
FoamFile
{
    version     2.0;
    format      ascii;
    class       volVectorField;
    location    "18";
    object      U;
}
// * * * * * * * * * * * * * * * * * * * * * * * * * * * * * * * * * * * * * //

dimensions      [0 1 -1 0 0 0 0];

internalField   nonuniform List<vector> 
6960
(
(-2.77122e-16 -1.00005e-14 0)
(-2.15228e-16 1.60397e-16 0)
(2.74073e-17 1.20638e-16 0)
(-1.36408e-17 2.53257e-17 0)
(6.82899e-18 -7.05382e-17 0)
(-5.48575e-18 -1.35727e-16 0)
(2.04333e-18 -1.57064e-16 0)
(-3.13274e-18 -1.37523e-16 0)
(-7.44787e-21 -8.17811e-17 0)
(-2.30751e-18 -7.00713e-18 0)
(-8.10237e-19 6.96833e-17 0)
(-1.89885e-18 1.28856e-16 0)
(-1.15586e-18 1.56207e-16 0)
(-1.56792e-18 1.52303e-16 0)
(-1.10476e-18 1.22233e-16 0)
(-1.28711e-18 7.31996e-17 0)
(-1.0458e-18 2.13439e-17 0)
(-1.10508e-18 -1.89969e-17 0)
(-1.02215e-18 -4.482e-17 0)
(-1.02646e-18 -5.301e-17 0)
(-9.43892e-19 -4.09356e-17 0)
(-9.37715e-19 -1.62953e-17 0)
(-8.83359e-19 1.12479e-17 0)
(-8.32436e-19 3.67601e-17 0)
(-7.62666e-19 5.44462e-17 0)
(-6.89493e-19 6.11691e-17 0)
(-6.21501e-19 5.92817e-17 0)
(-5.63907e-19 4.95378e-17 0)
(-4.98044e-19 3.36188e-17 0)
(-4.27988e-19 1.76945e-17 0)
(-3.6973e-19 4.51266e-18 0)
(-3.12283e-19 -6.40172e-18 0)
(-2.3999e-19 -1.30974e-17 0)
(-1.79545e-19 -1.54791e-17 0)
(-1.17235e-19 -1.52832e-17 0)
(-4.66178e-20 -1.16312e-17 0)
(2.25009e-20 -5.05883e-18 0)
(7.84267e-20 1.89793e-18 0)
(1.51538e-19 9.43169e-18 0)
(2.26764e-19 1.69369e-17 0)
(3.00541e-19 2.19654e-17 0)
(3.9743e-19 2.31378e-17 0)
(4.93812e-19 2.0291e-17 0)
(6.1301e-19 1.30213e-17 0)
(7.17276e-19 3.5013e-18 0)
(8.23622e-19 -8.17669e-18 0)
(8.88955e-19 -1.91102e-17 0)
(9.88923e-19 -2.56342e-17 0)
(9.8584e-19 -2.59981e-17 0)
(1.0219e-18 -2.31357e-17 0)
(9.44088e-19 -1.49036e-17 0)
(9.58253e-19 -2.32619e-18 0)
(8.39118e-19 7.63342e-18 0)
(9.15673e-19 1.32973e-17 0)
(7.11827e-19 1.14858e-17 0)
(9.82024e-19 5.49853e-18 0)
(4.0594e-19 -7.84754e-18 0)
(7.25257e-19 -1.45653e-17 0)
(4.66313e-19 -2.21067e-17 0)
(-4.18752e-19 -7.90032e-18 0)
(-5.05093e-16 -1.97066e-14 0)
(-3.30736e-16 3.31948e-16 0)
(7.04452e-17 2.62289e-16 0)
(-4.66186e-17 6.90934e-17 0)
(1.43552e-17 -1.29449e-16 0)
(-1.8974e-17 -2.70298e-16 0)
(5.60909e-18 -3.2261e-16 0)
(-7.08035e-18 -2.93214e-16 0)
(3.71705e-18 -1.86501e-16 0)
(-2.31804e-18 -3.72188e-17 0)
(1.56894e-18 1.21049e-16 0)
(-3.11737e-18 2.47216e-16 0)
(-2.87734e-18 3.11017e-16 0)
(-5.82989e-18 3.10912e-16 0)
(-5.84308e-18 2.55642e-16 0)
(-7.03373e-18 1.58785e-16 0)
(-6.05719e-18 5.29888e-17 0)
(-5.42269e-18 -3.19456e-17 0)
(-4.19864e-18 -8.84091e-17 0)
(-3.0421e-18 -1.09205e-16 0)
(-1.79389e-18 -8.84585e-17 0)
(-1.29288e-18 -4.06643e-17 0)
(-1.0992e-18 1.50816e-17 0)
(-1.24874e-18 6.80844e-17 0)
(-1.6135e-18 1.05772e-16 0)
(-1.99203e-18 1.21359e-16 0)
(-2.29124e-18 1.19145e-16 0)
(-2.5446e-18 1.00452e-16 0)
(-2.53699e-18 6.86503e-17 0)
(-2.24377e-18 3.62198e-17 0)
(-1.91135e-18 9.15973e-18 0)
(-1.53972e-18 -1.28611e-17 0)
(-1.06063e-18 -2.58522e-17 0)
(-6.66639e-19 -2.98936e-17 0)
(-2.92182e-19 -2.86989e-17 0)
(1.14593e-19 -2.08687e-17 0)
(4.24643e-19 -7.8271e-18 0)
(6.22207e-19 5.1998e-18 0)
(8.59526e-19 1.85264e-17 0)
(1.00938e-18 3.12117e-17 0)
(1.03909e-18 3.90482e-17 0)
(1.09182e-18 3.97778e-17 0)
(1.12644e-18 3.34322e-17 0)
(1.28368e-18 1.95544e-17 0)
(1.46801e-18 2.7407e-18 0)
(1.74504e-18 -1.74851e-17 0)
(2.10391e-18 -3.57779e-17 0)
(2.72299e-18 -4.59884e-17 0)
(3.00739e-18 -4.46599e-17 0)
(3.37781e-18 -3.94464e-17 0)
(3.4501e-18 -2.48589e-17 0)
(3.53125e-18 -4.59749e-18 0)
(2.96782e-18 1.17143e-17 0)
(2.82201e-18 1.8079e-17 0)
(1.8602e-18 1.44339e-17 0)
(2.27663e-18 1.06333e-18 0)
(5.78874e-19 -2.00339e-17 0)
(1.67698e-18 -3.37485e-17 0)
(1.54766e-18 -4.53596e-17 0)
(-7.83012e-19 -1.39064e-17 0)
(-7.34747e-16 -1.58123e-14 0)
(-4.56029e-16 1.96545e-16 0)
(1.06662e-16 1.79511e-16 0)
(-8.02065e-17 6.96342e-17 0)
(2.02862e-17 -5.53565e-17 0)
(-3.31436e-17 -1.53192e-16 0)
(8.11816e-18 -1.99416e-16 0)
(-1.15579e-17 -1.98964e-16 0)
(7.02554e-18 -1.46615e-16 0)
(-2.2721e-18 -6.2538e-17 0)
(4.15949e-18 3.52601e-17 0)
(-3.89052e-18 1.19722e-16 0)
(-4.2061e-18 1.70791e-16 0)
(-9.79245e-18 1.83484e-16 0)
(-1.05143e-17 1.60199e-16 0)
(-1.29171e-17 1.07247e-16 0)
(-1.13856e-17 4.40425e-17 0)
(-1.01375e-17 -1.07562e-17 0)
(-7.78431e-18 -5.04589e-17 0)
(-5.41236e-18 -6.93266e-17 0)
(-2.90214e-18 -6.28895e-17 0)
(-1.76776e-18 -3.8132e-17 0)
(-1.31894e-18 -5.56377e-18 0)
(-1.61118e-18 2.74317e-17 0)
(-2.40298e-18 5.20807e-17 0)
(-3.24761e-18 6.39246e-17 0)
(-3.9622e-18 6.49612e-17 0)
(-4.57047e-18 5.56836e-17 0)
(-4.66292e-18 3.82108e-17 0)
(-4.16758e-18 2.00872e-17 0)
(-3.54344e-18 5.41012e-18 0)
(-2.82011e-18 -5.26469e-18 0)
(-1.90148e-18 -9.8297e-18 0)
(-1.15948e-18 -9.30939e-18 0)
(-4.75143e-19 -6.66954e-18 0)
(2.42449e-19 -1.91877e-18 0)
(7.51587e-19 3.41708e-18 0)
(1.04142e-18 6.30371e-18 0)
(1.3997e-18 7.40604e-18 0)
(1.61219e-18 7.43002e-18 0)
(1.62584e-18 5.81821e-18 0)
(1.6894e-18 2.89841e-18 0)
(1.7417e-18 -5.20068e-19 0)
(2.03558e-18 -3.98825e-18 0)
(2.3885e-18 -5.34051e-18 0)
(2.88306e-18 -6.72017e-18 0)
(3.5327e-18 -7.3537e-18 0)
(4.62618e-18 -6.17485e-18 0)
(5.09251e-18 -2.58787e-18 0)
(5.67105e-18 -3.43058e-18 0)
(5.77637e-18 -3.15831e-18 0)
(5.84232e-18 -4.95089e-18 0)
(4.83869e-18 -5.643e-18 0)
(4.55907e-18 -1.23312e-17 0)
(2.96838e-18 -1.26228e-17 0)
(3.69856e-18 -1.97627e-17 0)
(9.26691e-19 -1.77566e-17 0)
(2.73422e-18 -2.42631e-17 0)
(2.81128e-18 -2.38381e-17 0)
(-1.02273e-18 -7.03279e-18 0)
(-1.06042e-15 -1.20201e-14 0)
(-6.84614e-16 -4.73777e-17 0)
(1.39856e-16 -3.0309e-18 0)
(-1.08998e-16 2.59829e-17 0)
(2.9287e-17 2.7797e-17 0)
(-4.51892e-17 2.18321e-17 0)
(1.01601e-17 8.57701e-18 0)
(-1.82449e-17 -9.82429e-18 0)
(6.55621e-18 -2.7734e-17 0)
(-6.35945e-18 -4.12217e-17 0)
(3.03033e-18 -4.7269e-17 0)
(-7.04053e-18 -4.58075e-17 0)
(-6.21839e-18 -3.71721e-17 0)
(-1.2908e-17 -2.48038e-17 0)
(-1.31399e-17 -1.23207e-17 0)
(-1.61828e-17 -2.10038e-18 0)
(-1.436e-17 4.36917e-18 0)
(-1.32144e-17 5.855e-18 0)
(-1.05868e-17 3.59956e-18 0)
(-8.01164e-18 -1.07722e-18 0)
(-5.10351e-18 -7.62399e-18 0)
(-3.73554e-18 -1.39452e-17 0)
(-3.03877e-18 -1.80869e-17 0)
(-3.2203e-18 -2.03124e-17 0)
(-3.92991e-18 -2.11847e-17 0)
(-4.71665e-18 -2.02548e-17 0)
(-5.38006e-18 -1.80687e-17 0)
(-5.94657e-18 -1.49539e-17 0)
(-5.93615e-18 -1.06816e-17 0)
(-5.27024e-18 -5.60442e-18 0)
(-4.45266e-18 8.61989e-20 0)
(-3.5313e-18 6.7589e-18 0)
(-2.41239e-18 1.34718e-17 0)
(-1.55001e-18 1.85001e-17 0)
(-7.82311e-19 2.08206e-17 0)
(-1.80939e-20 1.93372e-17 0)
(5.14387e-19 1.33335e-17 0)
(8.06694e-19 3.63747e-18 0)
(1.25616e-18 -8.41122e-18 0)
(1.63841e-18 -2.04722e-17 0)
(1.90438e-18 -2.95476e-17 0)
(2.32762e-18 -3.29278e-17 0)
(2.77663e-18 -2.98421e-17 0)
(3.51752e-18 -1.94957e-17 0)
(4.22974e-18 -4.18035e-18 0)
(4.97162e-18 1.34025e-17 0)
(5.7066e-18 2.84882e-17 0)
(6.82114e-18 3.80745e-17 0)
(7.01939e-18 3.85722e-17 0)
(7.41714e-18 2.98184e-17 0)
(7.19893e-18 1.41438e-17 0)
(7.198e-18 -6.52622e-18 0)
(6.05783e-18 -2.173e-17 0)
(6.16352e-18 -3.29939e-17 0)
(4.44253e-18 -2.76126e-17 0)
(5.89115e-18 -2.14002e-17 0)
(2.07803e-18 -1.04795e-18 0)
(4.23095e-18 2.55292e-18 0)
(3.75937e-18 1.02995e-17 0)
(-1.8006e-18 -4.2505e-18 0)
(-1.38555e-15 -1.23651e-14 0)
(-9.20764e-16 -1.52193e-16 0)
(1.67976e-16 -8.87084e-17 0)
(-1.35015e-16 -2.22561e-18 0)
(3.99578e-17 4.12708e-17 0)
(-5.55004e-17 7.57118e-17 0)
(1.23006e-17 8.2943e-17 0)
(-2.56403e-17 7.13496e-17 0)
(4.14849e-18 3.89228e-17 0)
(-1.28411e-17 -1.58428e-18 0)
(-6.02327e-19 -4.31806e-17 0)
(-1.2055e-17 -7.47503e-17 0)
(-9.20601e-18 -8.89242e-17 0)
(-1.59693e-17 -8.58076e-17 0)
(-1.49268e-17 -6.91344e-17 0)
(-1.80626e-17 -4.23633e-17 0)
(-1.59217e-17 -1.3805e-17 0)
(-1.51532e-17 8.1157e-18 0)
(-1.27238e-17 2.16494e-17 0)
(-1.05113e-17 2.59267e-17 0)
(-7.7745e-18 1.92024e-17 0)
(-6.51348e-18 5.45206e-18 0)
(-5.68642e-18 -9.77891e-18 0)
(-5.6648e-18 -2.38273e-17 0)
(-6.01557e-18 -3.38012e-17 0)
(-6.43105e-18 -3.73727e-17 0)
(-6.74668e-18 -3.5874e-17 0)
(-7.01634e-18 -2.98848e-17 0)
(-6.75444e-18 -1.99651e-17 0)
(-5.91389e-18 -9.36653e-18 0)
(-4.98679e-18 -1.23763e-19 0)
(-3.99451e-18 7.85024e-18 0)
(-2.83911e-18 1.31986e-17 0)
(-1.98795e-18 1.51799e-17 0)
(-1.2441e-18 1.46519e-17 0)
(-5.15887e-19 1.12434e-17 0)
(2.46333e-20 5.2083e-18 0)
(3.55243e-19 -1.46119e-18 0)
(9.52843e-19 -8.08712e-18 0)
(1.58671e-18 -1.37549e-17 0)
(2.21854e-18 -1.67079e-17 0)
(3.1069e-18 -1.57895e-17 0)
(4.03678e-18 -1.14578e-17 0)
(5.24727e-18 -3.60473e-18 0)
(6.29086e-18 5.04541e-18 0)
(7.23133e-18 1.40612e-17 0)
(7.93404e-18 2.03796e-17 0)
(8.92796e-18 2.30022e-17 0)
(8.79516e-18 1.92306e-17 0)
(9.00619e-18 1.35606e-17 0)
(8.49401e-18 4.64443e-18 0)
(8.48601e-18 -4.04054e-18 0)
(7.38546e-18 -9.67901e-18 0)
(7.98539e-18 -9.20743e-18 0)
(6.18625e-18 -3.96834e-18 0)
(8.25666e-18 3.65775e-18 0)
(3.35565e-18 1.13647e-17 0)
(5.76779e-18 1.3659e-17 0)
(4.21027e-18 1.38983e-17 0)
(-2.99238e-18 -4.73722e-18 0)
(-1.67106e-15 -1.30228e-14 0)
(-1.12601e-15 -1.52981e-16 0)
(1.88756e-16 -8.70966e-17 0)
(-1.6159e-16 -7.4996e-19 0)
(4.93205e-17 2.40511e-17 0)
(-6.57013e-17 5.39027e-17 0)
(1.43144e-17 6.21535e-17 0)
(-3.26956e-17 6.06553e-17 0)
(1.93915e-18 4.2582e-17 0)
(-1.91133e-17 1.85885e-17 0)
(-4.27427e-18 -9.31366e-18 0)
(-1.72788e-17 -3.19665e-17 0)
(-1.25656e-17 -4.4478e-17 0)
(-1.94017e-17 -4.58485e-17 0)
(-1.71327e-17 -3.7938e-17 0)
(-2.02755e-17 -2.20278e-17 0)
(-1.77324e-17 -3.99309e-18 0)
(-1.72453e-17 1.04095e-17 0)
(-1.4923e-17 1.99603e-17 0)
(-1.30087e-17 2.39607e-17 0)
(-1.03926e-17 2.06005e-17 0)
(-9.23641e-18 1.24181e-17 0)
(-8.29744e-18 3.08253e-18 0)
(-8.09491e-18 -5.53598e-18 0)
(-8.11489e-18 -1.13803e-17 0)
(-8.19653e-18 -1.30002e-17 0)
(-8.21076e-18 -1.1838e-17 0)
(-8.2338e-18 -8.47347e-18 0)
(-7.78285e-18 -3.63943e-18 0)
(-6.82791e-18 9.20324e-20 0)
(-5.83798e-18 1.32316e-18 0)
(-4.81525e-18 6.52671e-19 0)
(-3.59127e-18 -1.93998e-18 0)
(-2.65624e-18 -5.56765e-18 0)
(-1.78305e-18 -8.2434e-18 0)
(-8.91956e-19 -9.33205e-18 0)
(-1.52544e-19 -8.22788e-18 0)
(3.78319e-19 -4.06221e-18 0)
(1.18654e-18 2.18545e-18 0)
(2.01937e-18 8.75121e-18 0)
(2.83995e-18 1.45439e-17 0)
(3.9201e-18 1.79399e-17 0)
(5.01886e-18 1.78466e-17 0)
(6.4122e-18 1.3827e-17 0)
(7.61398e-18 6.25027e-18 0)
(8.74695e-18 -2.87139e-18 0)
(9.58587e-18 -1.11226e-17 0)
(1.07889e-17 -1.70483e-17 0)
(1.07434e-17 -1.92675e-17 0)
(1.1165e-17 -1.49122e-17 0)
(1.06734e-17 -6.61769e-18 0)
(1.06414e-17 4.52551e-18 0)
(9.41573e-18 1.37077e-17 0)
(1.00292e-17 2.24911e-17 0)
(7.72775e-18 2.15215e-17 0)
(1.00174e-17 1.98371e-17 0)
(4.04916e-18 8.99703e-18 0)
(6.98936e-18 6.89072e-18 0)
(4.76096e-18 4.20475e-20 0)
(-3.82999e-18 5.20021e-18 0)
(-1.94281e-15 -1.32897e-14 0)
(-1.32622e-15 -1.58331e-16 0)
(2.02186e-16 -7.97149e-17 0)
(-1.894e-16 4.02268e-18 0)
(5.67823e-17 6.45808e-18 0)
(-7.62709e-17 2.56857e-17 0)
(1.58949e-17 2.91247e-17 0)
(-3.94669e-17 3.18231e-17 0)
(5.0364e-20 2.49623e-17 0)
(-2.47769e-17 1.65694e-17 0)
(-7.46642e-18 4.83075e-18 0)
(-2.2312e-17 -4.74487e-18 0)
(-1.5984e-17 -1.07787e-17 0)
(-2.3057e-17 -1.22472e-17 0)
(-1.98147e-17 -9.98556e-18 0)
(-2.30567e-17 -3.9016e-18 0)
(-2.01018e-17 3.09278e-18 0)
(-1.97676e-17 8.68318e-18 0)
(-1.74014e-17 1.257e-17 0)
(-1.55982e-17 1.45185e-17 0)
(-1.29544e-17 1.33404e-17 0)
(-1.17967e-17 1.0267e-17 0)
(-1.07277e-17 6.84633e-18 0)
(-1.03537e-17 3.77664e-18 0)
(-1.01321e-17 1.83828e-18 0)
(-9.98903e-18 1.57944e-18 0)
(-9.79931e-18 1.90657e-18 0)
(-9.66956e-18 2.62928e-18 0)
(-9.11578e-18 3.2887e-18 0)
(-8.07866e-18 2.65938e-18 0)
(-7.02576e-18 3.1831e-19 0)
(-5.92477e-18 -3.00925e-18 0)
(-4.56133e-18 -6.86865e-18 0)
(-3.43393e-18 -1.02531e-17 0)
(-2.30988e-18 -1.1743e-17 0)
(-1.12495e-18 -1.09396e-17 0)
(-7.7081e-20 -7.60429e-18 0)
(6.99514e-19 -1.79279e-18 0)
(1.7088e-18 5.21516e-18 0)
(2.66138e-18 1.15468e-17 0)
(3.52641e-18 1.59788e-17 0)
(4.62647e-18 1.69726e-17 0)
(5.72457e-18 1.42378e-17 0)
(7.19553e-18 7.57822e-18 0)
(8.52159e-18 -1.24696e-18 0)
(9.92227e-18 -1.06117e-17 0)
(1.1063e-17 -1.72053e-17 0)
(1.27132e-17 -2.06629e-17 0)
(1.29881e-17 -1.87113e-17 0)
(1.37491e-17 -1.20165e-17 0)
(1.32956e-17 -1.67646e-18 0)
(1.31786e-17 8.30019e-18 0)
(1.16172e-17 1.546e-17 0)
(1.19805e-17 1.85691e-17 0)
(8.97699e-18 1.40296e-17 0)
(1.14975e-17 8.69976e-18 0)
(4.58655e-18 6.72941e-20 0)
(8.11206e-18 7.02883e-19 0)
(5.77212e-18 -3.09871e-18 0)
(-4.14578e-18 1.47649e-17 0)
(-2.18474e-15 -1.42981e-14 0)
(-1.50495e-15 -1.89662e-16 0)
(2.08103e-16 -8.74446e-17 0)
(-2.18193e-16 6.07002e-18 0)
(6.24781e-17 -6.39165e-18 0)
(-8.71855e-17 6.93495e-18 0)
(1.6984e-17 5.18475e-18 0)
(-4.61552e-17 8.77104e-18 0)
(-1.80264e-18 5.86887e-18 0)
(-3.01697e-17 4.71828e-18 0)
(-1.04483e-17 8.38899e-19 0)
(-2.72091e-17 -1.6124e-18 0)
(-1.93744e-17 -3.97649e-18 0)
(-2.69151e-17 -4.71444e-18 0)
(-2.2792e-17 -4.58336e-18 0)
(-2.61722e-17 -2.87551e-18 0)
(-2.28048e-17 -9.66201e-19 0)
(-2.25153e-17 7.08574e-19 0)
(-2.00337e-17 2.07782e-18 0)
(-1.82685e-17 3.22374e-18 0)
(-1.54835e-17 3.28742e-18 0)
(-1.43083e-17 2.73915e-18 0)
(-1.311e-17 1.91731e-18 0)
(-1.26066e-17 9.06016e-19 0)
(-1.21909e-17 -7.84105e-20 0)
(-1.18723e-17 -6.45165e-19 0)
(-1.15034e-17 -1.29586e-18 0)
(-1.12261e-17 -1.63261e-18 0)
(-1.05533e-17 -1.60501e-18 0)
(-9.36031e-18 -1.48258e-18 0)
(-8.17905e-18 -1.34512e-18 0)
(-6.95327e-18 -9.50562e-19 0)
(-5.42465e-18 -4.38332e-19 0)
(-4.12421e-18 1.4372e-19 0)
(-2.80789e-18 8.49877e-19 0)
(-1.41767e-18 1.2838e-18 0)
(-1.67091e-19 1.3077e-18 0)
(7.6215e-19 9.48312e-19 0)
(1.92383e-18 7.37518e-21 0)
(3.0123e-18 -1.51496e-18 0)
(4.00039e-18 -3.20916e-18 0)
(5.26174e-18 -4.75236e-18 0)
(6.53245e-18 -5.65295e-18 0)
(8.24677e-18 -5.76144e-18 0)
(9.81872e-18 -4.75705e-18 0)
(1.15281e-17 -2.77829e-18 0)
(1.28968e-17 1.18056e-19 0)
(1.48515e-17 2.67255e-18 0)
(1.52305e-17 4.82993e-18 0)
(1.61335e-17 5.53654e-18 0)
(1.55573e-17 5.33277e-18 0)
(1.52375e-17 2.5114e-18 0)
(1.34524e-17 -2.70681e-19 0)
(1.37657e-17 -4.23593e-18 0)
(1.02707e-17 -6.00404e-18 0)
(1.3219e-17 -6.47944e-18 0)
(5.51723e-18 -3.22597e-18 0)
(9.52323e-18 7.45012e-19 0)
(6.8515e-18 2.14166e-18 0)
(-4.48619e-18 8.65717e-18 0)
(-2.38464e-15 -1.47562e-14 0)
(-1.65001e-15 -2.31565e-16 0)
(2.07128e-16 -1.05026e-16 0)
(-2.4774e-16 1.11297e-17 0)
(6.66217e-17 -1.13555e-17 0)
(-9.83805e-17 5.64478e-19 0)
(1.7428e-17 -5.69536e-18 0)
(-5.29646e-17 -2.06426e-18 0)
(-3.81603e-18 -4.58117e-18 0)
(-3.55129e-17 -2.96013e-18 0)
(-1.35021e-17 -3.95845e-18 0)
(-3.2058e-17 -3.23757e-18 0)
(-2.28168e-17 -3.99743e-18 0)
(-3.08327e-17 -3.97064e-18 0)
(-2.59399e-17 -4.37795e-18 0)
(-2.94826e-17 -4.16323e-18 0)
(-2.57071e-17 -4.18885e-18 0)
(-2.54599e-17 -4.04623e-18 0)
(-2.28152e-17 -3.85884e-18 0)
(-2.10304e-17 -3.26e-18 0)
(-1.80912e-17 -2.95292e-18 0)
(-1.68543e-17 -2.73176e-18 0)
(-1.5542e-17 -2.71446e-18 0)
(-1.4907e-17 -3.00765e-18 0)
(-1.43258e-17 -3.58773e-18 0)
(-1.38439e-17 -4.05622e-18 0)
(-1.32955e-17 -4.66041e-18 0)
(-1.28245e-17 -4.80761e-18 0)
(-1.19859e-17 -4.27638e-18 0)
(-1.05859e-17 -3.04023e-18 0)
(-9.23386e-18 -1.19424e-18 0)
(-7.85983e-18 1.16457e-18 0)
(-6.17788e-18 3.56545e-18 0)
(-4.75555e-18 5.46674e-18 0)
(-3.34335e-18 6.43803e-18 0)
(-1.83874e-18 5.93156e-18 0)
(-4.7757e-19 3.89066e-18 0)
(5.38465e-19 6.25821e-19 0)
(1.85141e-18 -3.40972e-18 0)
(3.13973e-18 -7.32585e-18 0)
(4.36829e-18 -1.01946e-17 0)
(5.94517e-18 -1.1095e-17 0)
(7.54874e-18 -9.75796e-18 0)
(9.62905e-18 -6.09836e-18 0)
(1.14942e-17 -1.08304e-18 0)
(1.34776e-17 4.66753e-18 0)
(1.49672e-17 9.26657e-18 0)
(1.7026e-17 1.19188e-17 0)
(1.73422e-17 1.13067e-17 0)
(1.81911e-17 8.12551e-18 0)
(1.73934e-17 2.78438e-18 0)
(1.70599e-17 -3.47059e-18 0)
(1.5165e-17 -8.0026e-18 0)
(1.56276e-17 -1.06513e-17 0)
(1.18744e-17 -8.81049e-18 0)
(1.519e-17 -5.52674e-18 0)
(6.64061e-18 5.07718e-20 0)
(1.08926e-17 1.84193e-18 0)
(7.61705e-18 3.24633e-18 0)
(-5.1516e-18 -2.90543e-18 0)
(-2.57428e-15 -1.38503e-14 0)
(-1.79322e-15 -2.78557e-16 0)
(1.99698e-16 -1.29886e-16 0)
(-2.77775e-16 1.71898e-17 0)
(6.91859e-17 -1.19027e-17 0)
(-1.09825e-16 1.9556e-18 0)
(1.69589e-17 -6.91191e-18 0)
(-5.98976e-17 -2.51187e-18 0)
(-6.15417e-18 -5.54881e-18 0)
(-4.09283e-17 -2.69078e-18 0)
(-1.685e-17 -2.68674e-18 0)
(-3.68887e-17 -6.23277e-19 0)
(-2.6493e-17 -7.34805e-19 0)
(-3.47472e-17 -1.05044e-19 0)
(-2.92616e-17 -5.67941e-19 0)
(-3.29371e-17 -8.31754e-19 0)
(-2.87645e-17 -1.70079e-18 0)
(-2.84956e-17 -2.37216e-18 0)
(-2.57103e-17 -3.03407e-18 0)
(-2.39073e-17 -3.10044e-18 0)
(-2.07969e-17 -3.1162e-18 0)
(-1.94753e-17 -2.84103e-18 0)
(-1.80167e-17 -2.49577e-18 0)
(-1.7249e-17 -2.19907e-18 0)
(-1.6508e-17 -2.07669e-18 0)
(-1.58626e-17 -1.82984e-18 0)
(-1.51262e-17 -1.83356e-18 0)
(-1.44675e-17 -1.69351e-18 0)
(-1.34746e-17 -1.37079e-18 0)
(-1.18731e-17 -8.20016e-19 0)
(-1.03597e-17 -1.56679e-19 0)
(-8.83461e-18 6.23545e-19 0)
(-7.00976e-18 1.31737e-18 0)
(-5.46274e-18 1.72649e-18 0)
(-3.94517e-18 1.76341e-18 0)
(-2.29681e-18 1.26483e-18 0)
(-7.90297e-19 3.55936e-19 0)
(3.51174e-19 -7.40432e-19 0)
(1.84754e-18 -1.84246e-18 0)
(3.35439e-18 -2.60769e-18 0)
(4.82358e-18 -2.80638e-18 0)
(6.68872e-18 -2.2375e-18 0)
(8.57976e-18 -1.09029e-18 0)
(1.0968e-17 5.3978e-19 0)
(1.3095e-17 1.99734e-18 0)
(1.52999e-17 3.31536e-18 0)
(1.69183e-17 3.58977e-18 0)
(1.91056e-17 3.19954e-18 0)
(1.94079e-17 1.52189e-18 0)
(2.03105e-17 -1.29521e-19 0)
(1.9443e-17 -2.08655e-18 0)
(1.90309e-17 -3.05942e-18 0)
(1.71101e-17 -3.14506e-18 0)
(1.76521e-17 -1.76078e-18 0)
(1.35444e-17 -9.14375e-21 0)
(1.69528e-17 2.12475e-18 0)
(7.61301e-18 2.4603e-18 0)
(1.21885e-17 1.17059e-18 0)
(8.21423e-18 3.82023e-19 0)
(-5.88874e-18 -4.85266e-18 0)
(-2.77299e-15 -1.29782e-14 0)
(-1.9539e-15 -3.3502e-16 0)
(1.85505e-16 -1.5964e-16 0)
(-3.0827e-16 2.07012e-17 0)
(7.03781e-17 -1.34735e-17 0)
(-1.21454e-16 4.20355e-18 0)
(1.59548e-17 -6.33321e-18 0)
(-6.69383e-17 -6.78921e-19 0)
(-8.8349e-18 -4.30284e-18 0)
(-4.64102e-17 -6.47956e-19 0)
(-2.03311e-17 -3.55752e-19 0)
(-4.17764e-17 2.49506e-18 0)
(-3.02621e-17 2.65107e-18 0)
(-3.87979e-17 3.66815e-18 0)
(-3.2708e-17 3.24443e-18 0)
(-3.65227e-17 2.84782e-18 0)
(-3.19575e-17 1.58797e-18 0)
(-3.17004e-17 4.687e-19 0)
(-2.87407e-17 -6.95127e-19 0)
(-2.68981e-17 -1.20395e-18 0)
(-2.36391e-17 -1.46837e-18 0)
(-2.21763e-17 -1.19398e-18 0)
(-2.05707e-17 -6.5629e-19 0)
(-1.96455e-17 3.616e-20 0)
(-1.87275e-17 6.36335e-19 0)
(-1.7924e-17 1.31847e-18 0)
(-1.70083e-17 1.56951e-18 0)
(-1.61892e-17 1.61345e-18 0)
(-1.5045e-17 1.36039e-18 0)
(-1.32802e-17 8.84751e-19 0)
(-1.16073e-17 1.56765e-19 0)
(-9.94964e-18 -6.44673e-19 0)
(-7.97549e-18 -1.42338e-18 0)
(-6.26882e-18 -2.05435e-18 0)
(-4.58166e-18 -2.3625e-18 0)
(-2.72993e-18 -2.31318e-18 0)
(-1.02074e-18 -1.80417e-18 0)
(2.94401e-19 -8.50236e-19 0)
(1.98685e-18 3.55227e-19 0)
(3.69236e-18 1.61031e-18 0)
(5.3447e-18 2.66809e-18 0)
(7.42111e-18 3.25298e-18 0)
(9.51072e-18 3.17878e-18 0)
(1.21403e-17 2.37568e-18 0)
(1.44705e-17 8.97797e-19 0)
(1.69353e-17 -8.15349e-19 0)
(1.87571e-17 -2.54093e-18 0)
(2.1166e-17 -3.72915e-18 0)
(2.16258e-17 -4.22123e-18 0)
(2.26311e-17 -3.54978e-18 0)
(2.17226e-17 -2.09129e-18 0)
(2.13163e-17 5.08157e-20 0)
(1.92432e-17 1.94374e-18 0)
(1.97204e-17 3.70037e-18 0)
(1.5138e-17 3.60948e-18 0)
(1.8686e-17 3.57884e-18 0)
(8.45786e-18 1.39127e-18 0)
(1.33407e-17 4.2913e-20 0)
(8.92181e-18 -7.59258e-19 0)
(-6.4486e-18 1.99913e-19 0)
(-2.96066e-15 -1.30923e-14 0)
(-2.11102e-15 -4.01133e-16 0)
(1.65186e-16 -1.92313e-16 0)
(-3.39389e-16 2.23273e-17 0)
(6.99444e-17 -1.69334e-17 0)
(-1.33283e-16 5.21221e-18 0)
(1.43111e-17 -7.40967e-18 0)
(-7.41162e-17 -5.21697e-19 0)
(-1.18631e-17 -4.99293e-18 0)
(-5.19939e-17 -8.15843e-19 0)
(-2.39905e-17 -6.43352e-19 0)
(-4.67563e-17 2.7937e-18 0)
(-3.40481e-17 2.9492e-18 0)
(-4.2952e-17 4.37149e-18 0)
(-3.62829e-17 4.02911e-18 0)
(-4.02079e-17 3.71739e-18 0)
(-3.52941e-17 2.32602e-18 0)
(-3.49983e-17 1.12006e-18 0)
(-3.19042e-17 -2.34995e-19 0)
(-2.99956e-17 -8.90202e-19 0)
(-2.65297e-17 -1.23196e-18 0)
(-2.49579e-17 -9.35593e-19 0)
(-2.31778e-17 -3.39348e-19 0)
(-2.20961e-17 4.31687e-19 0)
(-2.10204e-17 1.08195e-18 0)
(-2.00725e-17 1.7821e-18 0)
(-1.89472e-17 1.96103e-18 0)
(-1.79912e-17 1.86247e-18 0)
(-1.67163e-17 1.4227e-18 0)
(-1.47705e-17 7.61884e-19 0)
(-1.29474e-17 -8.08305e-20 0)
(-1.11468e-17 -8.93386e-19 0)
(-8.99155e-18 -1.55608e-18 0)
(-7.10478e-18 -1.9525e-18 0)
(-5.23031e-18 -2.00006e-18 0)
(-3.16904e-18 -1.72129e-18 0)
(-1.25248e-18 -1.12319e-18 0)
(2.44546e-19 -2.99572e-19 0)
(2.1261e-18 5.27302e-19 0)
(4.01946e-18 1.20233e-18 0)
(5.84131e-18 1.57486e-18 0)
(8.11586e-18 1.50439e-18 0)
(1.04025e-17 1.00701e-18 0)
(1.32791e-17 1.28357e-19 0)
(1.58235e-17 -9.35173e-19 0)
(1.8583e-17 -1.91036e-18 0)
(2.06314e-17 -2.48773e-18 0)
(2.33021e-17 -2.61563e-18 0)
(2.38879e-17 -2.13595e-18 0)
(2.50345e-17 -1.24662e-18 0)
(2.41333e-17 1.17266e-19 0)
(2.36377e-17 1.16829e-18 0)
(2.13796e-17 1.90098e-18 0)
(2.17542e-17 1.99214e-18 0)
(1.67172e-17 1.19371e-18 0)
(2.02773e-17 9.02269e-19 0)
(9.40431e-18 1.30595e-19 0)
(1.46529e-17 -2.03427e-19 0)
(9.7476e-18 5.24685e-19 0)
(-6.88209e-18 3.08643e-18 0)
(-3.11799e-15 -1.34848e-14 0)
(-2.2452e-15 -4.71609e-16 0)
(1.39186e-16 -2.28294e-16 0)
(-3.71143e-16 2.3783e-17 0)
(6.79319e-17 -2.08209e-17 0)
(-1.45371e-16 6.27382e-18 0)
(1.17478e-17 -9.05385e-18 0)
(-8.13871e-17 -1.03517e-18 0)
(-1.52624e-17 -6.65579e-18 0)
(-5.77371e-17 -2.01772e-18 0)
(-2.7781e-17 -2.18474e-18 0)
(-5.16278e-17 1.69264e-18 0)
(-3.80537e-17 1.73631e-18 0)
(-4.71916e-17 3.53301e-18 0)
(-4.00119e-17 3.33585e-18 0)
(-4.40065e-17 3.23069e-18 0)
(-3.87564e-17 1.77743e-18 0)
(-3.8469e-17 6.37708e-19 0)
(-3.52122e-17 -7.93445e-19 0)
(-3.3234e-17 -1.55204e-18 0)
(-2.95387e-17 -1.95633e-18 0)
(-2.78332e-17 -1.70219e-18 0)
(-2.58747e-17 -1.14497e-18 0)
(-2.46337e-17 -4.25971e-19 0)
(-2.3387e-17 1.63752e-19 0)
(-2.2275e-17 8.29376e-19 0)
(-2.09549e-17 9.86035e-19 0)
(-1.98607e-17 9.32566e-19 0)
(-1.841e-17 6.37648e-19 0)
(-1.62984e-17 2.65937e-19 0)
(-1.43157e-17 -1.74798e-19 0)
(-1.23598e-17 -4.95895e-19 0)
(-1.00271e-17 -6.65508e-19 0)
(-7.97772e-18 -6.64605e-19 0)
(-5.90672e-18 -5.39637e-19 0)
(-3.65435e-18 -3.9121e-19 0)
(-1.54061e-18 -2.53007e-19 0)
(1.3071e-19 -1.69779e-19 0)
(2.19891e-18 -2.49321e-19 0)
(4.2957e-18 -4.30744e-19 0)
(6.30673e-18 -6.87989e-19 0)
(8.80447e-18 -9.51521e-19 0)
(1.132e-17 -1.15584e-18 0)
(1.4468e-17 -1.1959e-18 0)
(1.72415e-17 -1.1218e-18 0)
(2.03125e-17 -8.28737e-19 0)
(2.2571e-17 -3.70863e-19 0)
(2.54953e-17 1.04998e-19 0)
(2.62113e-17 4.78621e-19 0)
(2.74054e-17 6.28613e-19 0)
(2.64567e-17 7.96456e-19 0)
(2.59886e-17 4.92054e-19 0)
(2.34851e-17 1.93565e-19 0)
(2.38036e-17 -2.85721e-19 0)
(1.83718e-17 -6.84131e-19 0)
(2.2012e-17 -1.65197e-19 0)
(1.04033e-17 4.06906e-19 0)
(1.6064e-17 1.29742e-19 0)
(1.05649e-17 1.8713e-18 0)
(-7.32009e-18 2.2906e-18 0)
(-3.2519e-15 -1.342e-14 0)
(-2.36354e-15 -5.44768e-16 0)
(1.07076e-16 -2.68336e-16 0)
(-4.03469e-16 2.52273e-17 0)
(6.42362e-17 -2.47074e-17 0)
(-1.57717e-16 7.90944e-18 0)
(8.98968e-18 -1.02173e-17 0)
(-8.88217e-17 -8.79559e-19 0)
(-1.90826e-17 -7.84416e-18 0)
(-6.35626e-17 -2.71894e-18 0)
(-3.18441e-17 -3.36922e-18 0)
(-5.65491e-17 8.8495e-19 0)
(-4.19648e-17 8.55212e-19 0)
(-5.15412e-17 3.03077e-18 0)
(-4.38654e-17 2.9938e-18 0)
(-4.79142e-17 3.10332e-18 0)
(-4.23284e-17 1.63213e-18 0)
(-4.20344e-17 5.36814e-19 0)
(-3.85874e-17 -1.01416e-18 0)
(-3.65846e-17 -1.90723e-18 0)
(-3.2662e-17 -2.46183e-18 0)
(-3.08089e-17 -2.30358e-18 0)
(-2.86714e-17 -1.81611e-18 0)
(-2.72498e-17 -1.11963e-18 0)
(-2.58288e-17 -5.06323e-19 0)
(-2.4557e-17 2.19489e-19 0)
(-2.30323e-17 4.66671e-19 0)
(-2.17934e-17 5.39442e-19 0)
(-2.01823e-17 3.89694e-19 0)
(-1.7879e-17 1.82379e-19 0)
(-1.57372e-17 -9.44896e-20 0)
(-1.36228e-17 -2.63917e-19 0)
(-1.10988e-17 -3.25839e-19 0)
(-8.88578e-18 -2.86797e-19 0)
(-6.6315e-18 -2.12686e-19 0)
(-4.18147e-18 -2.02301e-19 0)
(-1.89207e-18 -2.61903e-19 0)
(-2.48521e-20 -4.03012e-19 0)
(2.24176e-18 -6.87875e-19 0)
(4.55178e-18 -9.75007e-19 0)
(6.76899e-18 -1.22537e-18 0)
(9.50421e-18 -1.3329e-18 0)
(1.22623e-17 -1.28585e-18 0)
(1.56884e-17 -9.7873e-19 0)
(1.87279e-17 -6.26635e-19 0)
(2.20704e-17 -1.22418e-19 0)
(2.45174e-17 3.32171e-19 0)
(2.76983e-17 6.68416e-19 0)
(2.85662e-17 6.95395e-19 0)
(2.97828e-17 4.69114e-19 0)
(2.8803e-17 3.19104e-19 0)
(2.83929e-17 -1.28431e-19 0)
(2.56094e-17 -3.99415e-19 0)
(2.59148e-17 -4.42653e-19 0)
(2.00729e-17 -5.08172e-19 0)
(2.37274e-17 5.54422e-19 0)
(1.14547e-17 1.15376e-18 0)
(1.73533e-17 3.80215e-19 0)
(1.13282e-17 2.43191e-18 0)
(-7.78404e-18 1.08094e-18 0)
(-3.37403e-15 -1.30809e-14 0)
(-2.47714e-15 -6.22175e-16 0)
(6.99665e-17 -3.11887e-16 0)
(-4.36409e-16 2.59575e-17 0)
(5.88499e-17 -2.90067e-17 0)
(-1.70371e-16 9.78172e-18 0)
(4.82966e-18 -1.11016e-17 0)
(-9.64648e-17 -1.97324e-19 0)
(-2.304e-17 -8.53372e-18 0)
(-6.95573e-17 -2.96202e-18 0)
(-3.61705e-17 -4.08511e-18 0)
(-6.15424e-17 5.42013e-19 0)
(-4.6039e-17 5.02541e-19 0)
(-5.60035e-17 3.00868e-18 0)
(-4.78273e-17 3.1086e-18 0)
(-5.19503e-17 3.44007e-18 0)
(-4.60387e-17 2.01671e-18 0)
(-4.56977e-17 9.0818e-19 0)
(-4.21301e-17 -7.78378e-19 0)
(-4.00207e-17 -1.84557e-18 0)
(-3.58902e-17 -2.57686e-18 0)
(-3.38856e-17 -2.53107e-18 0)
(-3.15539e-17 -2.10246e-18 0)
(-2.9978e-17 -1.40095e-18 0)
(-2.83474e-17 -7.21839e-19 0)
(-2.69087e-17 9.56191e-20 0)
(-2.51728e-17 4.49604e-19 0)
(-2.3786e-17 6.12158e-19 0)
(-2.20207e-17 5.10314e-19 0)
(-1.95393e-17 2.81684e-19 0)
(-1.72231e-17 -4.1373e-20 0)
(-1.49368e-17 -3.03283e-19 0)
(-1.22345e-17 -4.83354e-19 0)
(-9.8359e-18 -5.47924e-19 0)
(-7.41212e-18 -5.51639e-19 0)
(-4.74498e-18 -5.67472e-19 0)
(-2.2645e-18 -5.73909e-19 0)
(-1.95732e-19 -6.05479e-19 0)
(2.27878e-18 -7.39165e-19 0)
(4.80814e-18 -8.52652e-19 0)
(7.23646e-18 -9.48859e-19 0)
(1.02102e-17 -9.67641e-19 0)
(1.32027e-17 -9.18349e-19 0)
(1.6908e-17 -6.99366e-19 0)
(2.01931e-17 -5.31861e-19 0)
(2.38191e-17 -2.47995e-19 0)
(2.64955e-17 -4.92585e-20 0)
(2.99116e-17 1.15959e-19 0)
(3.09404e-17 7.6654e-20 0)
(3.21896e-17 -5.3288e-20 0)
(3.11439e-17 -3.48849e-20 0)
(3.08741e-17 -1.42738e-19 0)
(2.78168e-17 -1.6133e-19 0)
(2.80769e-17 1.32199e-19 0)
(2.18643e-17 7.97463e-22 0)
(2.53181e-17 1.26943e-18 0)
(1.24536e-17 1.47718e-18 0)
(1.85802e-17 4.01906e-19 0)
(1.20704e-17 2.8021e-18 0)
(-8.2355e-18 9.3527e-19 0)
(-3.48385e-15 -1.28506e-14 0)
(-2.58615e-15 -7.04882e-16 0)
(2.73248e-17 -3.58284e-16 0)
(-4.69918e-16 2.57171e-17 0)
(5.16699e-17 -3.39619e-17 0)
(-1.8342e-16 1.13864e-17 0)
(3.67043e-19 -1.20147e-17 0)
(-1.04329e-16 5.41981e-19 0)
(-2.73499e-17 -9.14687e-18 0)
(-7.57103e-17 -3.08102e-18 0)
(-4.05013e-17 -4.76681e-18 0)
(-6.66422e-17 3.01611e-19 0)
(-5.01531e-17 1.20273e-19 0)
(-6.04431e-17 2.99223e-18 0)
(-5.19448e-17 3.23328e-18 0)
(-5.61042e-17 3.81614e-18 0)
(-4.98782e-17 2.46104e-18 0)
(-4.95059e-17 1.35853e-18 0)
(-4.57831e-17 -4.45205e-19 0)
(-4.35754e-17 -1.6674e-18 0)
(-3.9248e-17 -2.57985e-18 0)
(-3.70681e-17 -2.64325e-18 0)
(-3.45395e-17 -2.28304e-18 0)
(-3.27221e-17 -1.59475e-18 0)
(-3.09483e-17 -8.70521e-19 0)
(-2.93417e-17 2.85203e-20 0)
(-2.73768e-17 4.66845e-19 0)
(-2.58546e-17 6.91926e-19 0)
(-2.39412e-17 6.12993e-19 0)
(-2.12612e-17 3.42059e-19 0)
(-1.87671e-17 -3.66957e-20 0)
(-1.63204e-17 -3.91553e-19 0)
(-1.34267e-17 -6.67289e-19 0)
(-1.08358e-17 -7.96993e-19 0)
(-8.22702e-18 -8.33627e-19 0)
(-5.33734e-18 -8.33644e-19 0)
(-2.68235e-18 -7.72264e-19 0)
(-3.8475e-19 -7.10752e-19 0)
(2.31183e-18 -7.53156e-19 0)
(5.06384e-18 -7.87745e-19 0)
(7.70638e-18 -8.48094e-19 0)
(1.09115e-17 -8.91955e-19 0)
(1.41409e-17 -9.16155e-19 0)
(1.81154e-17 -8.10439e-19 0)
(2.16715e-17 -7.68772e-19 0)
(2.55623e-17 -5.79221e-19 0)
(2.84454e-17 -4.4741e-19 0)
(3.21316e-17 -2.51287e-19 0)
(3.33245e-17 -1.99264e-19 0)
(3.45975e-17 -1.36541e-19 0)
(3.35084e-17 2.11884e-20 0)
(3.33181e-17 3.72834e-20 0)
(3.00816e-17 7.23222e-20 0)
(3.02789e-17 4.3147e-19 0)
(2.36365e-17 1.95907e-19 0)
(2.69817e-17 1.50952e-18 0)
(1.35601e-17 1.5814e-18 0)
(1.9771e-17 3.6583e-19 0)
(1.28122e-17 3.39696e-18 0)
(-8.6722e-18 1.28177e-18 0)
(-3.57775e-15 -1.27481e-14 0)
(-2.68527e-15 -7.92312e-16 0)
(-2.01814e-17 -4.07537e-16 0)
(-5.04054e-16 2.44391e-17 0)
(4.27551e-17 -3.95765e-17 0)
(-1.96769e-16 1.29398e-17 0)
(-5.4131e-18 -1.30868e-17 0)
(-1.12547e-16 1.35064e-18 0)
(-3.20172e-17 -9.81935e-18 0)
(-8.20925e-17 -3.28781e-18 0)
(-4.50095e-17 -5.54179e-18 0)
(-7.18226e-17 -9.20532e-20 0)
(-5.4627e-17 -4.87029e-19 0)
(-6.50591e-17 2.78804e-18 0)
(-5.6172e-17 3.19502e-18 0)
(-6.03908e-17 4.082e-18 0)
(-5.38622e-17 2.80419e-18 0)
(-5.34469e-17 1.76334e-18 0)
(-4.96199e-17 -1.32321e-19 0)
(-4.72554e-17 -1.53408e-18 0)
(-4.27717e-17 -2.60133e-18 0)
(-4.03654e-17 -2.78475e-18 0)
(-3.76002e-17 -2.50999e-18 0)
(-3.55845e-17 -1.86726e-18 0)
(-3.36326e-17 -1.10313e-18 0)
(-3.18463e-17 -1.5943e-19 0)
(-2.96494e-17 3.59781e-19 0)
(-2.79874e-17 6.51473e-19 0)
(-2.5926e-17 6.13602e-19 0)
(-2.30664e-17 3.53756e-19 0)
(-2.03871e-17 -3.69197e-20 0)
(-1.77543e-17 -4.28981e-19 0)
(-1.4679e-17 -7.44807e-19 0)
(-1.18857e-17 -8.90032e-19 0)
(-9.08304e-18 -9.53652e-19 0)
(-5.96343e-18 -9.56932e-19 0)
(-3.1327e-18 -8.80888e-19 0)
(-5.90962e-19 -8.07659e-19 0)
(2.332e-18 -8.55858e-19 0)
(5.30992e-18 -9.00582e-19 0)
(8.17354e-18 -9.89577e-19 0)
(1.16078e-17 -1.07519e-18 0)
(1.50758e-17 -1.14039e-18 0)
(1.93297e-17 -1.0609e-18 0)
(2.31729e-17 -1.018e-18 0)
(2.731e-17 -7.84681e-19 0)
(3.04519e-17 -6.066e-19 0)
(3.43771e-17 -3.22101e-19 0)