/*--------------------------------*- C++ -*----------------------------------*\
| =========                 |                                                 |
| \\      /  F ield         | foam-extend: Open Source CFD                    |
|  \\    /   O peration     | Version:     4.0                                |
|   \\  /    A nd           | Web:         http://www.foam-extend.org         |
|    \\/     M anipulation  |                                                 |
\*---------------------------------------------------------------------------*/
FoamFile
{
    version     2.0;
    format      ascii;
    class       surfaceScalarField;
    location    "19";
    object      phi;
}
// * * * * * * * * * * * * * * * * * * * * * * * * * * * * * * * * * * * * * //

dimensions      [0 3 -1 0 0 0 0];

internalField   nonuniform List<scalar> 
13744
(
-3.91501e-09
3.91524e-09
1.71602e-09
-5.63103e-09
3.14784e-11
1.68454e-09
1.25569e-11
1.89215e-11
1.13453e-11
1.2112e-12
7.28317e-12
4.06286e-12
5.74677e-12
1.53627e-12
4.04332e-12
1.70319e-12
3.04776e-12
9.95648e-13
2.28452e-12
7.62279e-13
1.74464e-12
5.40457e-13
1.36093e-12
3.83249e-13
1.06308e-12
2.98594e-13
8.49642e-13
2.15439e-13
6.76603e-13
1.74416e-13
5.49147e-13
1.27287e-13
4.43034e-13
1.0647e-13
3.62492e-13
8.08797e-14
2.94914e-13
6.80567e-14
2.41453e-13
5.34572e-14
1.96604e-13
4.42424e-14
1.6037e-13
3.7137e-14
1.29074e-13
3.03646e-14
1.03365e-13
2.53686e-14
8.10764e-14
2.13718e-14
6.15562e-14
1.89848e-14
4.44152e-14
1.80411e-14
2.89363e-14
1.43219e-14
1.40109e-14
1.46549e-14
-4.73386e-16
1.39888e-14
-1.28536e-14
1.27121e-14
-3.00011e-14
1.74305e-14
-4.43491e-14
1.249e-14
-6.03428e-14
1.47105e-14
-8.2176e-14
2.226e-14
-1.03314e-13
2.17049e-14
-1.27875e-13
2.27041e-14
-1.61496e-13
3.42504e-14
-1.96637e-13
3.35842e-14
-2.40364e-13
4.42979e-14
-2.96102e-13
5.72875e-14
-3.62489e-13
6.55032e-14
-4.41853e-13
7.95475e-14
-5.50275e-13
1.08635e-13
-6.7666e-13
1.25566e-13
-8.4855e-13
1.71307e-13
-1.06423e-12
2.14939e-13
-1.36093e-12
2.95597e-13
-1.7435e-12
3.8336e-13
-2.28568e-12
5.42622e-13
-3.04781e-12
7.63278e-13
-4.04224e-12
9.94149e-13
-5.74798e-12
1.70614e-12
-7.28324e-12
1.53566e-12
-1.13441e-11
4.06164e-12
-1.25581e-11
1.21436e-12
-3.14784e-11
1.89198e-11
-1.71602e-09
1.68454e-09
3.91501e-09
-5.63103e-09
3.91501e-09
1.6017e-08
-1.21017e-08
2.51576e-09
7.87019e-09
9.78417e-11
4.10246e-09
3.55396e-11
8.1223e-11
3.61277e-11
6.23501e-13
2.16785e-11
1.85109e-11
1.82622e-11
4.95276e-12
1.22211e-11
7.74431e-12
9.66915e-12
3.54811e-12
6.96047e-12
3.4735e-12
5.52054e-12
1.97947e-12
4.17157e-12
1.73156e-12
3.35247e-12
1.117e-12
2.61719e-12
9.4641e-13
2.12817e-12
6.61249e-13
1.69651e-12
5.57776e-13
1.39102e-12
4.11338e-13
1.12332e-12
3.46889e-13
9.23178e-13
2.66676e-13
7.50372e-13
2.26485e-13
6.15124e-13
1.81188e-13
4.97892e-13
1.53322e-13
4.04189e-13
1.27509e-13
3.21651e-13
1.07581e-13
2.52612e-13
9.2093e-14
1.92353e-13
8.03801e-14
1.38709e-13
6.97775e-14
8.93876e-14
6.46705e-14
4.47094e-14
6.11178e-14
1.74896e-16
6.05072e-14
-4.68646e-14
6.01186e-14
-8.65015e-14
5.59552e-14
-1.38518e-13
6.93334e-14
-1.94866e-13
7.18314e-14
-2.49751e-13
7.70495e-14
-3.21506e-13
9.25371e-14
-4.06744e-13
1.11855e-13
-4.95121e-13
1.22735e-13
-6.15218e-13
1.57985e-13
-7.53261e-13
1.81577e-13
-9.20586e-13
2.21601e-13
-1.12331e-12
2.68341e-13
-1.39362e-12
3.50275e-13
-1.69374e-12
4.07729e-13
-2.12833e-12
5.62217e-13
-2.62007e-12
6.63858e-13
-3.34976e-12
9.46576e-13
-4.17156e-12
1.11938e-12
-5.52327e-12
1.73223e-12
-6.9578e-12
1.97586e-12
-9.66931e-12
3.47261e-12
-1.2224e-11
3.54883e-12
-1.82597e-11
7.73981e-12
-2.16787e-11
4.95454e-12
-3.61305e-11
1.85118e-11
-3.55369e-11
6.18838e-13
-9.78417e-11
8.12244e-11
-2.51576e-09
4.10246e-09
-1.6017e-08
7.87019e-09
-1.2102e-08
1.24255e-08
-2.45273e-08
4.14054e-09
1.61552e-08
1.61228e-10
8.08177e-09
5.81171e-11
1.84336e-10
6.28179e-11
-4.07521e-12
3.68646e-11
4.44646e-11
3.18636e-11
9.95268e-12
2.09522e-11
1.86572e-11
1.68923e-11
7.60714e-12
1.19839e-11
8.38005e-12
9.6435e-12
4.32154e-12
7.20266e-12
4.17427e-12
5.85304e-12
2.46933e-12
4.5282e-12
2.27238e-12
3.71252e-12
1.47815e-12
2.94053e-12
1.33091e-12
2.42461e-12
9.25815e-13
1.94907e-12
8.22009e-13
1.60885e-12
6.08874e-13
1.30272e-12
5.30992e-13
1.07133e-12
4.10727e-13
8.65448e-13
3.61211e-13
7.03419e-13
2.81997e-13
5.591e-13
2.51965e-13
4.4011e-13
2.09166e-13
3.34079e-13
1.83215e-13
2.41443e-13
1.61482e-13
1.5577e-13
1.53377e-13
7.72573e-14
1.35808e-13
-2.73923e-16
1.34615e-13
-7.83655e-14
1.37418e-13
-1.53835e-13
1.34032e-13
-2.41128e-13
1.53905e-13
-3.35387e-13
1.68227e-13
-4.38214e-13
1.77025e-13
-5.58848e-13
2.13829e-13
-7.04802e-13
2.57516e-13
-8.63704e-13
2.81081e-13
-1.0715e-12
3.63043e-13
-1.30465e-12
4.15695e-13
-1.6074e-12
5.27439e-13
-1.94907e-12
6.11872e-13
-2.42607e-12
8.26339e-13
-2.93879e-12
9.22595e-13
-3.71279e-12
1.3369e-12
-4.53012e-12
1.48329e-12
-5.85141e-12
2.26547e-12
-7.20265e-12
2.46869e-12
-9.64516e-12
4.17658e-12
-1.19823e-11
4.31485e-12
-1.68926e-11
8.38135e-12
-2.09542e-11
7.61061e-12
-3.18623e-11
1.86516e-11
-3.68649e-11
9.95312e-12
-6.28196e-11
4.44653e-11
-5.81155e-11
-4.08343e-12
-1.61228e-10
1.8434e-10
-4.14054e-09
8.08177e-09
-1.24255e-08
1.61552e-08
-2.45275e-08
3.38805e-09
-2.79153e-08
3.51572e-09
1.60275e-08
2.17101e-10
1.13804e-08
8.08351e-11
3.20599e-10
9.09196e-11
-1.41668e-11
5.31817e-11
8.22004e-11
4.64076e-11
1.67279e-11
3.03896e-11
3.46732e-11
2.46706e-11
1.33258e-11
1.74287e-11
1.56223e-11
1.40993e-11
7.64763e-12
1.04926e-11
7.78654e-12
8.56119e-12
4.39457e-12
6.60392e-12
4.22832e-12
5.43063e-12
2.65087e-12
4.29246e-12
2.47047e-12
3.54638e-12
1.67298e-12
2.84664e-12
1.52896e-12
2.35355e-12
1.10305e-12
1.90313e-12
9.866e-13
1.56699e-12
7.48075e-13
1.26512e-12
6.61582e-13
1.02855e-12
5.23755e-13
8.17277e-13
4.66446e-13
6.43971e-13
3.84567e-13
4.88123e-13
3.41678e-13
3.53119e-13
2.98317e-13
2.27971e-13
2.73379e-13
1.12416e-13
2.56885e-13
-5.47914e-16
2.50334e-13
-1.12154e-13
2.47503e-13
-2.27711e-13
2.47032e-13
-3.52669e-13
2.77091e-13
-4.87576e-13
3.03514e-13
-6.4368e-13
3.37695e-13
-8.16915e-13
3.83873e-13
-1.0281e-12
4.67008e-13
-1.26506e-12
5.1744e-13
-1.56721e-12
6.65731e-13
-1.90347e-12
7.53522e-13
-2.35391e-12
9.79848e-13
-2.84663e-12
1.10238e-12
-3.54604e-12
1.52178e-12
-4.29239e-12
1.66532e-12
-5.431e-12
2.46682e-12
-6.60425e-12
2.64947e-12
-8.56128e-12
4.22382e-12
-1.04926e-11
4.40473e-12
-1.40992e-11
7.78767e-12
-1.74289e-11
7.6454e-12
-2.4671e-11
1.56253e-11
-3.039e-11
1.33287e-11
-4.64082e-11
3.4667e-11
-5.31821e-11
1.67359e-11
-9.09196e-11
8.22063e-11
-8.08351e-11
-1.417e-11
-2.17101e-10
3.20599e-10
-3.51572e-09
1.13804e-08
-3.38805e-09
1.60275e-08
-2.79155e-08
1.00115e-09
-2.89165e-08
2.08866e-09
1.494e-08
2.67833e-10
1.32012e-08
1.03497e-10
4.84939e-10
1.20437e-10
-3.10995e-11
7.06745e-11
1.31968e-10
6.19327e-11
2.54721e-11
4.0571e-11
5.60358e-11
3.30335e-11
2.0868e-11
2.33196e-11
2.53359e-11
1.89077e-11
1.2061e-11
1.40576e-11
1.26246e-11
1.14896e-11
6.96842e-12
8.85525e-12
6.86724e-12
7.29106e-12
4.21414e-12
5.75917e-12
4.00251e-12
4.76234e-12
2.67521e-12
3.82079e-12
2.45996e-12
3.16097e-12
1.76201e-12
2.55507e-12
1.58538e-12
2.10471e-12
1.19874e-12
1.69884e-12
1.06638e-12
1.38155e-12
8.4311e-13
1.09759e-12
7.52835e-13
8.65055e-13
6.16895e-13
6.55558e-13
5.52398e-13
4.74331e-13
4.8505e-13
3.06181e-13
4.41307e-13
1.50832e-13
4.10907e-13
-4.17009e-16
4.01318e-13
-1.50601e-13
4.0129e-13
-3.061e-13
3.99472e-13
-4.73748e-13
4.48551e-13
-6.54658e-13
4.82822e-13
-8.64861e-13
5.43135e-13
-1.09711e-12
6.20747e-13
-1.38079e-12
7.49643e-13
-1.69894e-12
8.36144e-13
-2.105e-12
1.07184e-12
-2.55532e-12
1.1993e-12
-3.16163e-12
1.57955e-12
-3.82079e-12
1.76612e-12
-4.76171e-12
2.47267e-12
-5.75926e-12
2.66857e-12
-7.29154e-12
4.00723e-12
-8.85548e-12
4.22212e-12
-1.14899e-11
6.85935e-12
-1.40576e-11
6.96546e-12
-1.89075e-11
1.26333e-11
-2.33201e-11
1.20533e-11
-3.30339e-11
2.53404e-11
-4.05714e-11
2.08693e-11
-6.19336e-11
5.60311e-11
-7.0675e-11
2.54717e-11
-1.20437e-10
1.31967e-10
-1.03497e-10
-3.11061e-11
-2.67833e-10
4.84944e-10
-2.08866e-09
1.32012e-08
-1.00115e-09
1.494e-08
-2.89167e-08
1.36809e-09
-3.02845e-08
1.33457e-09
1.49735e-08
3.15152e-10
1.42206e-08
1.26078e-10
6.74009e-10
1.51368e-10
-5.63903e-11
8.93868e-11
1.93942e-10
7.84772e-11
3.63788e-11
5.1535e-11
8.29809e-11
4.2011e-11
3.03837e-11
2.96827e-11
3.76657e-11
2.4089e-11
1.76565e-11
1.79147e-11
1.8806e-11
1.46518e-11
1.02253e-11
1.12933e-11
1.02245e-11
9.30287e-12
6.20655e-12
7.34827e-12
5.9559e-12
6.07845e-12
3.93807e-12
4.87661e-12
3.66726e-12
4.03534e-12
2.6015e-12
3.26185e-12
2.36529e-12
2.6873e-12
1.76748e-12
2.16902e-12
1.58114e-12
1.76415e-12
1.24926e-12
1.40151e-12
1.10324e-12
1.10465e-12
9.11566e-13
8.3716e-13
8.20271e-13
6.05721e-13
7.08333e-13
3.90949e-13
6.61096e-13
1.92602e-13
6.06515e-13
-2.90106e-16
5.9713e-13
-1.92702e-13
5.89733e-13
-3.90598e-13
6.04992e-13
-6.05013e-13
6.58473e-13
-8.36324e-13
7.16309e-13
-1.10412e-12
8.10668e-13
-1.40092e-12
9.17592e-13
-1.7635e-12
1.11162e-12
-2.16886e-12
1.23857e-12
-2.68766e-12
1.58762e-12
-3.26244e-12
1.7791e-12
-4.03587e-12
2.35247e-12
-4.8766e-12
2.60438e-12
-6.07797e-12
3.66639e-12
-7.34809e-12
3.93623e-12
-9.30344e-12
5.96472e-12
-1.12938e-11
6.20911e-12
-1.4652e-11
1.02144e-11
-1.79147e-11
1.02279e-11
-2.40891e-11
1.88072e-11
-2.9683e-11
1.76508e-11
-4.20116e-11
3.76671e-11
-5.15356e-11
3.03883e-11
-7.84781e-11
8.29738e-11
-8.93874e-11
3.6382e-11
-1.51368e-10
1.93942e-10
-1.26078e-10
-5.63966e-11
-3.15153e-10
6.7402e-10
-1.33457e-09
1.42206e-08
-1.36809e-09
1.49735e-08
-3.02848e-08
9.9024e-10
-3.12748e-08
1.02489e-09
1.49389e-08
3.58196e-10
1.48873e-08
1.48626e-10
8.83583e-10
1.83705e-10
-9.14695e-11
1.09361e-10
2.68287e-10
9.60794e-11
4.96606e-11
6.33203e-11
1.15737e-10
5.16344e-11
4.20748e-11
3.6545e-11
5.27579e-11
2.96645e-11
2.45344e-11
2.20816e-11
2.63892e-11
1.80622e-11
1.42517e-11
1.39297e-11
1.43569e-11
1.14755e-11
8.65881e-12
9.06771e-12
8.3636e-12
7.5011e-12
5.50781e-12
6.0194e-12
5.14958e-12
4.98114e-12
3.63966e-12
4.027e-12
3.31279e-12
3.31773e-12
2.48668e-12
2.67817e-12
2.22838e-12
2.17824e-12
1.74369e-12
1.73064e-12
1.5649e-12
1.36407e-12
1.28046e-12
1.03379e-12
1.15145e-12
7.47991e-13
9.98923e-13
4.82775e-13
9.24767e-13
2.37818e-13
8.5593e-13
-2.80375e-16
8.27286e-13
-2.37967e-13
8.3163e-13
-4.82411e-13
8.47076e-13
-7.47137e-13
9.25409e-13
-1.03278e-12
9.94288e-13
-1.36342e-12
1.15099e-12
-1.72993e-12
1.27954e-12
-2.17746e-12
1.56533e-12
-2.67797e-12
1.74251e-12
-3.31813e-12
2.22925e-12
-4.0277e-12
2.48318e-12
-4.98177e-12
3.31363e-12
-6.0194e-12
3.64171e-12
-7.5005e-12
5.14575e-12
-9.06751e-12
5.50496e-12
-1.14762e-11
8.36719e-12
-1.39304e-11
8.66024e-12
-1.80624e-11
1.43473e-11
-2.20816e-11
1.42531e-11
-2.96645e-11
2.6389e-11
-3.65454e-11
2.45278e-11
-5.16351e-11
5.27645e-11
-6.33211e-11
4.20839e-11
-9.60804e-11
1.15725e-10
-1.09362e-10
4.96614e-11
-1.83705e-10
2.68294e-10
-1.48626e-10
-9.14786e-11
-3.58197e-10
8.8358e-10
-1.02489e-09
1.48873e-08
-9.90239e-10
1.49389e-08
-3.1275e-08
-8.5012e-11
-3.11898e-08
7.05379e-10
1.41485e-08
3.95643e-10
1.51971e-08
1.71099e-10
1.10812e-09
2.17432e-10
-1.37807e-10
1.30639e-10
3.55083e-10
1.14776e-10
6.55228e-11
7.59668e-11
1.54545e-10
6.19351e-11
5.6109e-11
4.39343e-11
7.07518e-11
3.5656e-11
3.2813e-11
2.65769e-11
3.54667e-11
2.17355e-11
1.90893e-11
1.67769e-11
1.93136e-11
1.38191e-11
1.16209e-11
1.09258e-11
1.12609e-11
9.03707e-12
7.3954e-12
7.25483e-12
6.93171e-12
6.00293e-12
4.88886e-12
4.85438e-12
4.4709e-12
3.99909e-12
3.34229e-12
3.2288e-12
2.99585e-12
2.62594e-12
2.35038e-12
2.08662e-12
2.09655e-12
1.64461e-12
1.7235e-12
1.24646e-12
1.542e-12
9.01839e-13
1.34063e-12
5.82131e-13
1.24325e-12
2.86683e-13
1.1474e-12
-2.87356e-16
1.11465e-12
-2.86792e-13
1.11449e-12
-5.81879e-13
1.13353e-12
-9.00854e-13
1.24461e-12
-1.24512e-12
1.34441e-12
-1.644e-12
1.54196e-12
-2.08579e-12
1.72508e-12
-2.62487e-12
2.10004e-12
-3.22874e-12
2.34415e-12
-3.99957e-12
3.00357e-12
-4.85503e-12
3.34355e-12
-6.00383e-12
4.45735e-12
-7.25483e-12
4.89038e-12
-9.03621e-12
6.92936e-12
-1.09257e-11
7.39239e-12
-1.38198e-11
1.12638e-11
-1.67775e-11
1.16258e-11
-2.17359e-11
1.93113e-11
-2.65769e-11
1.90912e-11
-3.56558e-11
3.54742e-11
-4.39348e-11
3.2809e-11
-6.19359e-11
7.07586e-11
-7.59676e-11
5.61067e-11
-1.14778e-10
1.54545e-10
-1.3064e-10
6.55292e-11
-2.17432e-10
3.55078e-10
-1.71099e-10
-1.37809e-10
-3.95643e-10
1.10813e-09
-7.05378e-10
1.51971e-08
8.50134e-11
1.41485e-08
-3.119e-08
-1.189e-09
-3.00008e-08
2.94319e-10
1.26652e-08
4.26872e-10
1.50645e-08
1.93381e-10
1.34162e-09
2.52528e-10
-1.96951e-10
1.53259e-10
4.54353e-10
1.34605e-10
8.41768e-11
8.95145e-11
1.99637e-10
7.29455e-11
7.26703e-11
5.18791e-11
9.18223e-11
4.20864e-11
4.26089e-11
3.14198e-11
4.61296e-11
2.56872e-11
2.48212e-11
1.98478e-11
2.51524e-11
1.63439e-11
1.51184e-11
1.29313e-11
1.46666e-11
1.06935e-11
9.62781e-12
8.58882e-12
9.03424e-12
7.10562e-12
6.37927e-12
5.74802e-12
5.81298e-12
4.73472e-12
4.34235e-12
3.82366e-12
3.904e-12
3.10941e-12
3.06458e-12
2.47124e-12
2.7348e-12
1.94762e-12
2.24409e-12
1.47627e-12
2.01929e-12
1.06804e-12
1.74855e-12
6.89482e-13
1.62462e-12
3.39484e-13
1.49419e-12
-2.82524e-16
1.45962e-12
-3.39575e-13
1.45171e-12
-6.89329e-13
1.49245e-12
-1.06692e-12
1.62717e-12
-1.47461e-12
1.75513e-12
-1.94704e-12
2.01378e-12
-2.47029e-12
2.25091e-12
-3.10809e-12
2.73448e-12
-3.8237e-12
3.06242e-12
-4.73526e-12
3.90808e-12
-5.74864e-12
4.35108e-12
-7.10675e-12
5.81241e-12
-8.58883e-12
6.37256e-12
-1.06924e-11
9.03689e-12
-1.29313e-11
9.62985e-12
-1.63448e-11
1.46794e-11
-1.98484e-11
1.51218e-11
-2.56878e-11
2.51435e-11
-3.14199e-11
2.48231e-11
-4.20862e-11
4.61348e-11
-5.18799e-11
4.26049e-11
-7.29464e-11
9.18246e-11
-8.95153e-11
7.26782e-11
-1.34606e-10
1.99635e-10
-1.5326e-10
8.41748e-11
-2.52528e-10
4.54352e-10
-1.93381e-10
-1.9696e-10
-4.26872e-10
1.34162e-09
-2.94317e-10
1.50645e-08
1.189e-09
1.26651e-08
-3.0001e-08
-2.19027e-09
-2.78105e-08
-1.48259e-10
1.06231e-08
4.51619e-10
1.44646e-08
2.15355e-10
1.57788e-09
2.88961e-10
-2.70558e-10
1.77258e-10
5.66057e-10
1.55599e-10
1.05833e-10
1.04004e-10
2.51232e-10
8.46985e-11
9.19852e-11
6.0409e-11
1.16108e-10
4.89793e-11
5.40377e-11
3.66304e-11
5.84903e-11
2.99334e-11
3.15214e-11
2.31559e-11
3.19342e-11
1.90611e-11
1.92186e-11
1.50933e-11
1.86354e-11
1.24779e-11
1.22494e-11
1.00277e-11
1.14873e-11
8.29427e-12
8.10993e-12
6.7122e-12
7.40891e-12
5.5281e-12
5.53881e-12
4.4656e-12
4.97415e-12
3.63101e-12
3.89905e-12
2.88637e-12
3.48178e-12
2.27461e-12
2.85435e-12
1.72432e-12
2.5704e-12
1.24741e-12
2.22609e-12
8.05351e-13
2.05886e-12
3.96487e-13
1.91309e-12
-2.81746e-16
1.85403e-12
-3.96566e-13
1.84864e-12
-8.05279e-13
1.9013e-12
-1.24615e-12
2.06157e-12
-1.72238e-12
2.2271e-12
-2.274e-12
2.56867e-12
-2.88529e-12
2.85564e-12
-3.62945e-12
3.48323e-12
-4.46572e-12
3.90234e-12
-5.5287e-12
4.97788e-12
-6.71282e-12
5.54591e-12
-8.29563e-12
7.40037e-12
-1.00276e-11
8.10729e-12
-1.24766e-11
1.14787e-11
-1.50934e-11
1.22526e-11
-1.90621e-11
1.86432e-11
-2.31565e-11
1.92203e-11
-2.99341e-11
3.19268e-11
-3.66306e-11
3.15134e-11
-4.8979e-11
5.8484e-11
-6.04099e-11
5.40356e-11
-8.46995e-11
1.16117e-10
-1.04004e-10
9.19834e-11
-1.55601e-10
2.5123e-10
-1.77259e-10
1.0584e-10
-2.88961e-10
5.66049e-10
-2.15355e-10
-2.70557e-10
-4.51619e-10
1.57789e-09
1.4826e-10
1.44646e-08
2.19027e-09
1.06231e-08
-2.78107e-08
-3.18316e-09
-2.46273e-08
-5.97596e-10
8.03757e-09
4.69578e-10
1.33975e-08
2.36929e-10
1.81053e-09
3.26694e-10
-3.6032e-10
2.0267e-10
6.90075e-10
1.77792e-10
1.30715e-10
1.19474e-10
3.09551e-10
9.7227e-11
1.14225e-10
6.9554e-11
1.43784e-10
5.63592e-11
6.72322e-11
4.22296e-11
7.2613e-11
3.44909e-11
3.92586e-11
2.67154e-11
3.97129e-11
2.19822e-11
2.39448e-11
1.74216e-11
2.31967e-11
1.43982e-11
1.52725e-11
1.15779e-11
1.43069e-11
9.57437e-12
1.01137e-11
7.75141e-12
9.23113e-12
6.38291e-12
6.90342e-12
5.15763e-12
6.19239e-12
4.19318e-12
4.86098e-12
3.33398e-12
4.3393e-12
2.62712e-12
3.5648e-12
1.9918e-12
3.20375e-12
1.44078e-12
2.77915e-12
9.30331e-13
2.57567e-12
4.57941e-13
2.37586e-12
-2.76612e-16
2.31455e-12
-4.58026e-13
2.31232e-12
-9.30329e-13
2.37344e-12
-1.43939e-12
2.57247e-12
-1.98957e-12
2.77644e-12
-2.62649e-12
3.2047e-12
-3.33276e-12
3.56316e-12
-4.19139e-12
4.34269e-12
-5.15783e-12
4.86041e-12
-6.38356e-12
6.19999e-12
-7.75203e-12
6.90367e-12
-9.57594e-12
9.2255e-12
-1.15779e-11
1.01154e-11
-1.43967e-11
1.43022e-11
-1.74217e-11
1.52688e-11
-2.19832e-11
2.32074e-11
-2.6716e-11
2.39508e-11
-3.44919e-11
3.96996e-11
-4.22298e-11
3.92623e-11
-5.63588e-11
7.26124e-11
-6.95551e-11
6.72323e-11
-9.72282e-11
1.43792e-10
-1.19475e-10
1.14233e-10
-1.77795e-10
3.09545e-10
-2.02671e-10
1.30707e-10
-3.26693e-10
6.90079e-10
-2.3693e-10
-3.60324e-10
-4.69579e-10
1.81053e-09
5.97598e-10
1.33974e-08
3.18316e-09
8.03757e-09
-2.46276e-08
-4.21533e-09
-2.0412e-08
-1.06141e-09
4.88367e-09
4.80406e-10
1.18556e-08
2.58029e-10
2.03291e-09
3.6568e-10
-4.67977e-10
2.29527e-10
8.26235e-10
2.01216e-10
1.59022e-10
1.35967e-10
3.74795e-10
1.10565e-10
1.39631e-10
7.93452e-11
1.74992e-10
6.42509e-11
8.23256e-11
4.82389e-11
8.86245e-11
3.93774e-11
4.81183e-11
3.05411e-11
4.85427e-11
2.51192e-11
2.93717e-11
1.99261e-11
2.83932e-11
1.64627e-11
1.87372e-11
1.32465e-11
1.75241e-11
1.09516e-11
1.24074e-11
8.87037e-12
1.13109e-11
7.30304e-12
8.47441e-12
5.90299e-12
7.59375e-12
4.79853e-12
5.9647e-12
3.81616e-12
5.32238e-12
3.00678e-12
4.36894e-12
2.27998e-12
3.92818e-12
1.64909e-12
3.40702e-12
1.06497e-12
3.15958e-12
5.24166e-13
2.92166e-12
-2.70309e-16
2.83549e-12
-5.24244e-13
2.83067e-12
-1.06506e-12
2.91037e-12
-1.64757e-12
3.15447e-12
-2.27746e-12
3.40725e-12
-3.00614e-12
3.93548e-12
-3.81481e-12
4.37172e-12
-4.79652e-12
5.32457e-12
-5.90326e-12
5.97325e-12
-7.30375e-12
7.60087e-12
-8.87098e-12
8.47639e-12
-1.09534e-11
1.13078e-11
-1.32465e-11
1.23951e-11
-1.6461e-11
1.75168e-11
-1.99263e-11
1.87448e-11
-2.51203e-11
2.84045e-11
-3.05417e-11
2.93753e-11
-3.93785e-11
4.85357e-11
-4.82391e-11
4.8121e-11
-6.42504e-11
8.86298e-11
-7.93464e-11
8.23224e-11
-1.10566e-10
1.75011e-10
-1.35968e-10
1.39628e-10
-2.01219e-10
3.74802e-10
-2.29528e-10
1.59026e-10
-3.6568e-10
8.26223e-10
-2.5803e-10
-4.67973e-10
-4.80406e-10
2.03291e-09
1.06142e-09
1.18556e-08
4.21533e-09
4.88366e-09
-2.04122e-08
-5.28432e-09
-1.51277e-08
-1.54781e-09
1.14715e-09
4.83822e-10
9.824e-09
2.78595e-10
2.23813e-09
4.05865e-10
-5.95239e-10
2.57855e-10
9.74236e-10
2.25899e-10
1.90977e-10
1.5352e-10
4.47177e-10
1.24745e-10
1.68405e-10
8.98138e-11
2.0994e-10
7.26802e-11
9.94529e-11
5.46805e-11
1.06627e-10
4.46108e-11
5.8194e-11
3.46484e-11
5.85047e-11
2.84846e-11
3.55369e-11
2.26176e-11
3.42573e-11
1.86801e-11
2.26728e-11
1.50407e-11
2.11654e-11
1.24319e-11
1.50153e-11
1.00741e-11
1.36689e-11
8.29259e-12
1.02514e-11
6.70502e-12
9.18051e-12
5.44979e-12
7.22245e-12
4.33511e-12
6.43513e-12
3.41534e-12
5.29738e-12
2.59018e-12
4.75718e-12
1.87329e-12
4.12744e-12
1.20991e-12
3.82393e-12
5.95434e-13
3.53454e-12
-2.63043e-16
3.43813e-12
-5.9552e-13
3.42868e-12
-1.21009e-12
3.53097e-12
-1.87163e-12
3.81249e-12
-2.58736e-12
4.12343e-12
-3.41469e-12
4.75734e-12
-4.33363e-12
5.29643e-12
-5.44754e-12
6.43374e-12
-6.70538e-12
7.23092e-12
-8.29335e-12
9.1895e-12
-1.00747e-11
1.02515e-11
-1.24339e-11
1.36582e-11
-1.50407e-11
1.50104e-11
-1.86781e-11
2.11543e-11
-2.26179e-11
2.26751e-11
-2.84858e-11
3.42645e-11
-3.4649e-11
3.55378e-11
-4.46121e-11
5.84932e-11
-5.46809e-11
5.81906e-11
-7.26797e-11
1.06621e-10
-8.98152e-11
9.9464e-11
-1.24746e-10
2.09937e-10
-1.53521e-10
1.68412e-10
-2.25902e-10
4.4718e-10
-2.57857e-10
1.90977e-10
-4.05865e-10
9.74239e-10
-2.78596e-10
-5.95244e-10
-4.83822e-10
2.23813e-09
1.54781e-09
9.824e-09
5.28432e-09
1.14715e-09
-1.51279e-08
-6.38375e-09
-8.74394e-09
-2.05885e-09
-3.17774e-09
4.79658e-10
7.28549e-09
2.98589e-10
2.4192e-09
4.47188e-10
-7.43848e-10
2.8768e-10
1.13375e-09
2.51866e-10
2.26797e-10
1.72173e-10
5.26874e-10
1.398e-10
2.00779e-10
1.00992e-10
2.48739e-10
8.16735e-11
1.1878e-10
6.15776e-11
1.26718e-10
5.021e-11
6.95532e-11
3.90532e-11
6.96629e-11
3.20917e-11
4.24923e-11
2.5507e-11
4.08472e-11
2.10594e-11
2.71168e-11
1.69682e-11
2.52467e-11
1.40217e-11
1.79619e-11
1.13678e-11
1.63164e-11
9.35588e-12
1.22604e-11
7.56731e-12
1.09687e-11
6.14984e-12
8.63994e-12
4.89321e-12
7.69132e-12
3.85464e-12
6.32985e-12
2.9238e-12
5.68576e-12
2.11438e-12
4.93272e-12
1.36581e-12
4.57262e-12
6.72107e-13
4.22448e-12
-2.63977e-16
4.10451e-12
-6.72181e-13
4.09222e-12
-1.36611e-12
4.21408e-12
-2.11259e-12
4.56254e-12
-2.9207e-12
4.93199e-12
-3.85395e-12
5.70101e-12
-4.89158e-12
6.32985e-12
-6.14735e-12
7.69164e-12
-7.56776e-12
8.64577e-12
-9.3567e-12
1.09811e-11
-1.13684e-11
1.22743e-11
-1.40239e-11
1.63245e-11
-1.69681e-11
1.79564e-11
-2.10572e-11
2.52412e-11
-2.55073e-11
2.71287e-11
-3.2093e-11
4.08536e-11
-3.90538e-11
4.24996e-11
-5.02116e-11
6.96603e-11
-6.1578e-11
6.95474e-11
-8.16729e-11
1.26724e-10
-1.00993e-10
1.18784e-10
-1.39802e-10
2.48748e-10
-1.72174e-10
2.00784e-10
-2.51869e-10
5.26874e-10
-2.87682e-10
2.2679e-10
-4.47187e-10
1.13374e-09
-2.9859e-10
-7.43841e-10
-4.79659e-10
2.4192e-09
2.05885e-09
7.28547e-09
6.38375e-09
-3.17775e-09
-8.74415e-09
-7.51427e-09
-1.22968e-09
-2.59476e-09
-8.09725e-09
4.67865e-10
4.22287e-09
3.18006e-10
2.56906e-09
4.89578e-10
-9.15409e-10
3.19021e-10
1.30431e-09
2.79138e-10
2.66679e-10
1.91963e-10
6.14048e-10
1.55765e-10
2.3698e-10
1.12911e-10
2.91593e-10
9.12573e-11
1.40425e-10
6.89537e-11
1.49029e-10
5.61945e-11
8.23203e-11
4.37722e-11
8.20833e-11
3.59542e-11
5.03161e-11
2.86059e-11
4.81828e-11
2.36103e-11
3.21168e-11
1.90369e-11
2.98277e-11
1.57275e-11
2.12731e-11
1.27571e-11
1.92915e-11
1.04975e-11
1.45251e-11
8.4936e-12
1.2978e-11
6.90173e-12
1.02357e-11
5.49285e-12
9.10564e-12
4.32661e-12
7.49774e-12
3.28233e-12
6.73076e-12
2.37345e-12
5.84476e-12
1.53335e-12
5.41289e-12
7.54506e-13
5.00813e-12
-2.62928e-16
4.85958e-12
-7.54576e-13
4.85456e-12
-1.53377e-12
5.00358e-12
-2.37153e-12
5.40664e-12
-3.27893e-12
5.83482e-12
-4.32591e-12
6.73491e-12
-5.4911e-12
7.50396e-12
-6.89903e-12
9.09832e-12
-8.49411e-12
1.02438e-11
-1.04983e-11
1.29788e-11
-1.27576e-11
1.45193e-11
-1.57299e-11
1.92944e-11
-1.90369e-11
2.12578e-11
-2.36079e-11
2.98117e-11
-2.86063e-11
3.21346e-11
-3.59555e-11
4.82095e-11
-4.37728e-11
5.03132e-11
-5.61963e-11
8.20782e-11
-6.89542e-11
8.23114e-11
-9.12567e-11
1.4902e-10
-1.12913e-10
1.40441e-10
-1.55766e-10
2.91602e-10
-1.91963e-10
2.36971e-10
-2.79142e-10
6.14057e-10
-3.19023e-10
2.66679e-10
-4.89578e-10
1.3043e-09
-3.18007e-10
-9.15411e-10
-4.67865e-10
2.56906e-09
2.59476e-09
4.22286e-09
7.51427e-09
-8.09726e-09
-1.22989e-09
-8.67839e-09
7.44871e-09
-3.1559e-09
-1.36197e-08
4.48523e-10
6.18445e-10
3.36883e-10
2.68071e-09
5.3296e-10
-1.11149e-09
3.51892e-10
1.48537e-09
3.07735e-10
3.10835e-10
2.12924e-10
7.08856e-10
1.72669e-10
2.7723e-10
1.25604e-10
3.38669e-10
1.01459e-10
1.64583e-10
7.68329e-11
1.73647e-10
6.25843e-11
9.65665e-11
4.88226e-11
9.58467e-11
4.00861e-11
5.90512e-11
3.19264e-11
5.63582e-11
2.63426e-11
3.77068e-11
2.12553e-11
3.49155e-11
1.75563e-11
2.49708e-11
1.42477e-11
2.26055e-11
1.17221e-11
1.70492e-11
9.48783e-12
1.52072e-11
7.70869e-12
1.20074e-11
6.13666e-12
1.06765e-11
4.83329e-12
8.79726e-12
3.66735e-12
7.89824e-12
2.6516e-12
6.8619e-12
1.71329e-12
6.34416e-12
8.42984e-13
5.87787e-12
-2.47574e-16
5.70123e-12
-8.43049e-13
5.69956e-12
-1.71382e-12
5.86449e-12
-2.64961e-12
6.33254e-12
-3.66366e-12
6.84956e-12
-4.83254e-12
7.91002e-12
-6.13479e-12
8.79717e-12
-7.70575e-12
1.06778e-11
-9.48843e-12
1.20264e-11
-1.1723e-11
1.52169e-11
-1.42482e-11
1.70534e-11
-1.75589e-11
2.26022e-11
-2.12553e-11
2.49591e-11
-2.634e-11
3.48968e-11
-3.19269e-11
3.77061e-11
-4.00875e-11
5.63657e-11
-4.88231e-11
5.9048e-11
-6.25864e-11
9.5845e-11
-7.68336e-11
9.65593e-11
-1.01458e-10
1.73649e-10
-1.25606e-10
1.64588e-10
-1.72671e-10
3.38664e-10
-2.12925e-10
2.77234e-10
-3.07738e-10
7.08864e-10
-3.51894e-10
3.10821e-10
-5.32959e-10
1.48536e-09
-3.36884e-10
-1.11148e-09
-4.48524e-10
2.6807e-09
3.1559e-09
6.18429e-10
8.67839e-09
-1.36198e-08
7.44851e-09
-9.87729e-09
1.7326e-08
-3.74245e-09
-1.97546e-08
4.21874e-10
-3.54588e-09
3.55311e-10
2.74726e-09
5.77249e-10
-1.33342e-09
3.86303e-10
1.67632e-09
3.37667e-10
3.59467e-10
2.35092e-10
8.11427e-10
1.90546e-10
3.2178e-10
1.39103e-10
3.90096e-10
1.12306e-10
1.91373e-10
8.52402e-11
2.00714e-10
6.94001e-11
1.12402e-10
5.42221e-11
1.11025e-10
4.45024e-11
6.87716e-11
3.5481e-11
6.53665e-11
2.92669e-11
4.39125e-11
2.36322e-11
4.05507e-11
1.95153e-11
2.90906e-11
1.58457e-11
2.62677e-11
1.30348e-11
1.98629e-11
1.05541e-11
1.76905e-11
8.57409e-12
1.39945e-11
6.82736e-12
1.24196e-11
5.37686e-12
1.02501e-11
4.08049e-12
9.19376e-12
2.95005e-12
7.97947e-12
1.90643e-12
7.39445e-12
9.3793e-13
6.84671e-12
-2.29031e-16
6.64086e-12
-9.3803e-13
6.64081e-12
-1.90706e-12
6.84577e-12
-2.94796e-12
7.38058e-12
-4.0765e-12
7.98567e-12
-5.37607e-12
9.2148e-12
-6.82536e-12
1.02448e-11
-8.57094e-12
1.2411e-11
-1.05548e-11
1.4017e-11
-1.30357e-11
1.76989e-11
-1.58462e-11
1.98617e-11
-1.95181e-11
2.62764e-11
-2.36321e-11
2.9069e-11
-2.92641e-11
4.05364e-11
-3.54815e-11
4.39401e-11
-4.45038e-11
6.5388e-11
-5.42227e-11
6.87745e-11
-6.94024e-11
1.11026e-10
-8.52409e-11
1.12395e-10
-1.12305e-10
2.00707e-10
-1.39106e-10
1.91387e-10
-1.90547e-10
3.90111e-10
-2.35093e-10
3.21776e-10
-3.37671e-10
8.11449e-10
-3.86305e-10
3.59462e-10
-5.77248e-10
1.6763e-09
-3.55312e-10
-1.33343e-09
-4.21875e-10
2.74727e-09
3.74245e-09
-3.5459e-09
9.87729e-09
-1.97546e-08
1.73258e-08
-1.11104e-08
2.84364e-08
-4.35362e-09
-2.65114e-08
3.88348e-10
-8.28785e-09
3.73447e-10
2.76216e-09
6.22357e-10
-1.58234e-09
4.22258e-10
1.87641e-09
3.68943e-10
4.12787e-10
2.58496e-10
9.21878e-10
2.09424e-10
3.70847e-10
1.53441e-10
4.46084e-10
1.23826e-10
2.20989e-10
9.42006e-11
2.30344e-10
7.66629e-11
1.29951e-10
5.99893e-11
1.27695e-10
4.92183e-11
7.95379e-11
3.92828e-11
7.5308e-11
3.2394e-11
5.07999e-11
2.61766e-11
4.67638e-11
2.16122e-11
3.3653e-11
1.75575e-11
3.032e-11
1.44409e-11
2.29774e-11
1.16969e-11
2.04376e-11
9.50146e-12
1.61882e-11
7.56784e-12
1.43574e-11
5.95955e-12
1.186e-11
4.52346e-12
1.06284e-11
3.27009e-12
9.24911e-12
2.11354e-12
8.55004e-12
1.03976e-12
7.92131e-12
-2.08247e-16
7.68339e-12
-1.03988e-12
7.66215e-12
-2.11432e-12
7.9144e-12
-3.26787e-12
8.5273e-12
-4.51923e-12
9.23029e-12
-5.95876e-12
1.06528e-11
-7.56573e-12
1.18554e-11
-9.49808e-12
1.4349e-11
-1.16977e-11
1.62091e-11
-1.44418e-11
2.04371e-11
-1.75579e-11
2.29784e-11
-2.16152e-11
3.03311e-11
-2.61766e-11
3.36355e-11
-3.23909e-11
4.67376e-11
-3.92834e-11
5.08231e-11
-4.92197e-11
7.53249e-11
-5.99898e-11
7.9537e-11
-7.66655e-11
1.27703e-10
-9.42015e-11
1.29931e-10
-1.23826e-10
2.30332e-10
-1.53443e-10
2.21001e-10
-2.09426e-10
4.46092e-10
-2.58497e-10
3.70844e-10
-3.68947e-10
9.2189e-10
-4.2226e-10
4.12777e-10
-6.22356e-10
1.87639e-09
-3.73449e-10
-1.58232e-09
-3.88348e-10
2.76216e-09
4.35363e-09
-8.28788e-09
1.11104e-08
-2.65114e-08
2.84362e-08
-1.23749e-08
4.08113e-08
-4.9871e-09
-3.38991e-08
3.48597e-10
-1.36236e-08
3.91528e-10
2.71923e-09
6.68188e-10
-1.859e-09
4.59756e-10
2.08485e-09
4.01563e-10
4.70983e-10
2.83164e-10
1.04028e-09
2.29332e-10
4.24684e-10
1.68647e-10
5.06774e-10
1.36047e-10
2.53585e-10
1.0374e-10
2.62644e-10
8.43944e-11
1.49286e-10
6.61429e-11
1.45956e-10
5.42496e-11
9.14351e-11
4.33453e-11
8.62119e-11
3.57351e-11
5.84216e-11
2.88983e-11
5.36014e-11
2.38549e-11
3.86929e-11
1.93898e-11
3.47954e-11
1.59458e-11
2.64202e-11
1.29207e-11
2.34473e-11
1.04946e-11
1.86047e-11
8.36112e-12
1.6487e-11
6.58377e-12
1.36405e-11
4.99817e-12
1.2214e-11
3.61297e-12
1.06294e-11
2.33552e-12
9.83019e-12
1.14889e-12
9.10674e-12
-2.51418e-16
8.83182e-12
-1.14899e-12
8.83205e-12
-2.33644e-12
9.09688e-12
-3.61067e-12
9.807e-12
-4.99364e-12
1.06197e-11
-6.58297e-12
1.22301e-11
-8.35891e-12
1.36303e-11
-1.0491e-11
1.64824e-11
-1.29216e-11
1.86425e-11
-1.59468e-11
2.34713e-11
-1.93901e-11
2.6421e-11
-2.38581e-11
3.47989e-11
-2.88982e-11
3.86724e-11
-3.57318e-11
5.35865e-11
-4.3346e-11
5.84417e-11
-5.42511e-11
8.62247e-11
-6.61433e-11
9.14302e-11
-8.43973e-11
1.4595e-10
-1.03741e-10
1.49278e-10
-1.36046e-10
2.6264e-10
-1.6865e-10
2.53614e-10
-2.29334e-10
5.06774e-10
-2.83165e-10
4.24691e-10
-4.01567e-10
1.0403e-09
-4.59758e-10
4.70968e-10
-6.68187e-10
2.08482e-09
-3.9153e-10
-1.85899e-09
-3.48598e-10
2.71923e-09
4.98711e-09
-1.36236e-08
1.23749e-08
-3.38991e-08
4.08111e-08
-1.36644e-08
5.44757e-08
-5.63827e-09
-4.19253e-08
3.03535e-10
-1.95654e-08
4.09884e-10
2.61289e-09
7.14646e-10
-2.16377e-09
4.98786e-10
2.30071e-09
4.35522e-10
5.34234e-10
3.09121e-10
1.16668e-09
2.50296e-10
4.83516e-10
1.84754e-10
5.72314e-10
1.48996e-10
2.89347e-10
1.13883e-10
2.97768e-10
9.26166e-11
1.70555e-10
7.27023e-11
1.65854e-10
5.96126e-11
1.04526e-10
4.76825e-11
9.8147e-11
3.93019e-11
6.67918e-11
3.1807e-11
6.10994e-11
2.62518e-11
4.42522e-11
2.13495e-11
3.96902e-11
1.75554e-11
3.02157e-11
1.42304e-11
2.67831e-11
1.15574e-11
2.12834e-11
9.2104e-12
1.88259e-11
7.25201e-12
1.55915e-11
5.50649e-12
1.39627e-11
3.98016e-12
1.2158e-11
2.57325e-12
1.12296e-11
1.26578e-12
1.04079e-11
-2.26844e-16
1.00954e-11
-1.26592e-12
1.0081e-11
-2.5743e-12
1.0411e-11
-3.97777e-12
1.12049e-11
-5.50175e-12
1.21324e-11
-7.25121e-12
1.39937e-11
-9.20806e-12
1.55933e-11
-1.15536e-11
1.88286e-11
-1.42313e-11
2.13233e-11
-1.75564e-11
2.67955e-11
-2.13497e-11
3.0214e-11
-2.62551e-11
3.97084e-11
-3.18069e-11
4.42237e-11
-3.92985e-11
6.10704e-11
-4.76832e-11
6.68173e-11
-5.96141e-11
9.81595e-11
-7.27027e-11
1.04516e-10
-9.26197e-11
1.65874e-10
-1.13885e-10
1.70537e-10
-1.48995e-10
2.97749e-10
-1.84756e-10
2.89368e-10
-2.50297e-10
5.72324e-10
-3.09122e-10
4.83488e-10
-4.35526e-10
1.1667e-09
-4.98788e-10
5.34234e-10
-7.14645e-10
2.30069e-09
-4.09887e-10
-2.16374e-09
-3.03536e-10
2.61287e-09
5.63827e-09
-1.95654e-08
1.36644e-08
-4.19253e-08
5.44755e-08
-1.49668e-08
6.94425e-08
-6.29906e-09
-5.0593e-08
2.54373e-10
-2.61188e-08
4.28955e-10
2.4383e-09
7.61629e-10
-2.49643e-09
5.39334e-10
2.523e-09