/*--------------------------------*- C++ -*----------------------------------*\
| =========                 |                                                 |
| \\      /  F ield         | foam-extend: Open Source CFD                    |
|  \\    /   O peration     | Version:     4.0                                |
|   \\  /    A nd           | Web:         http://www.foam-extend.org         |
|    \\/     M anipulation  |                                                 |
\*---------------------------------------------------------------------------*/
FoamFile
{
    version     2.0;
    format      ascii;
    class       volScalarField;
    location    "1980";
    object      psiE;
}
// * * * * * * * * * * * * * * * * * * * * * * * * * * * * * * * * * * * * * //

dimensions      [0 0 0 0 0 0 0];

internalField   nonuniform List<scalar> 
6960
(
0.332035
0.332039
0.332043
0.332048
0.332053
0.332058
0.332062
0.332066
0.332069
0.332072
0.332075
0.332078
0.33208
0.332083
0.332085
0.332086
0.332088
0.332089
0.332091
0.332092
0.332093
0.332093
0.332094
0.332095
0.332095
0.332096
0.332096
0.332096
0.332096
0.332096
0.332096
0.332096
0.332096
0.332096
0.332096
0.332095
0.332095
0.332094
0.332093
0.332093
0.332092
0.332091
0.332089
0.332088
0.332086
0.332085
0.332083
0.33208
0.332078
0.332075
0.332072
0.332069
0.332066
0.332062
0.332058
0.332053
0.332048
0.332043
0.332039
0.332035
0.82411
0.824125
0.824144
0.824164
0.824183
0.824202
0.824219
0.824234
0.824249
0.824262
0.824274
0.824285
0.824295
0.824304
0.824312
0.824319
0.824325
0.824331
0.824336
0.82434
0.824344
0.824348
0.824351
0.824353
0.824355
0.824357
0.824358
0.824359
0.82436
0.82436
0.82436
0.82436
0.824359
0.824358
0.824357
0.824355
0.824353
0.824351
0.824348
0.824344
0.82434
0.824336
0.824331
0.824325
0.824319
0.824312
0.824304
0.824295
0.824285
0.824274
0.824262
0.824249
0.824234
0.824219
0.824202
0.824183
0.824164
0.824144
0.824125
0.82411
1.26453
1.26456
1.2646
1.26464
1.26468
1.26471
1.26475
1.26478
1.26481
1.26483
1.26486
1.26488
1.2649
1.26492
1.26493
1.26495
1.26496
1.26497
1.26498
1.26499
1.265
1.265
1.26501
1.26501
1.26502
1.26502
1.26502
1.26503
1.26503
1.26503
1.26503
1.26503
1.26503
1.26502
1.26502
1.26502
1.26501
1.26501
1.265
1.265
1.26499
1.26498
1.26497
1.26496
1.26495
1.26493
1.26492
1.2649
1.26488
1.26486
1.26483
1.26481
1.26478
1.26475
1.26471
1.26468
1.26464
1.2646
1.26456
1.26453
1.68947
1.68952
1.68958
1.68964
1.6897
1.68976
1.68982
1.68986
1.68991
1.68995
1.68999
1.69002
1.69005
1.69008
1.69011
1.69013
1.69015
1.69017
1.69018
1.6902
1.69021
1.69022
1.69023
1.69024
1.69024
1.69025
1.69025
1.69026
1.69026
1.69026
1.69026
1.69026
1.69026
1.69025
1.69025
1.69024
1.69024
1.69023
1.69022
1.69021
1.6902
1.69018
1.69017
1.69015
1.69013
1.69011
1.69008
1.69005
1.69002
1.68999
1.68995
1.68991
1.68986
1.68982
1.68976
1.6897
1.68964
1.68958
1.68952
1.68947
2.11329
2.11335
2.11344
2.11352
2.11361
2.11369
2.11377
2.11383
2.1139
2.11396
2.11401
2.11406
2.1141
2.11414
2.11418
2.11421
2.11423
2.11426
2.11428
2.1143
2.11432
2.11433
2.11435
2.11436
2.11437
2.11437
2.11438
2.11438
2.11439
2.11439
2.11439
2.11439
2.11438
2.11438
2.11437
2.11437
2.11436
2.11435
2.11433
2.11432
2.1143
2.11428
2.11426
2.11423
2.11421
2.11418
2.11414
2.1141
2.11406
2.11401
2.11396
2.1139
2.11383
2.11377
2.11369
2.11361
2.11352
2.11344
2.11335
2.11329
2.54206
2.54214
2.54225
2.54237
2.54248
2.54258
2.54268
2.54277
2.54285
2.54293
2.543
2.54306
2.54312
2.54317
2.54321
2.54326
2.54329
2.54333
2.54335
2.54338
2.5434
2.54342
2.54344
2.54345
2.54346
2.54347
2.54348
2.54349
2.54349
2.54349
2.54349
2.54349
2.54349
2.54348
2.54347
2.54346
2.54345
2.54344
2.54342
2.5434
2.54338
2.54335
2.54333
2.54329
2.54326
2.54321
2.54317
2.54312
2.54306
2.543
2.54293
2.54285
2.54277
2.54268
2.54258
2.54248
2.54237
2.54225
2.54214
2.54206
2.97842
2.97853
2.97866
2.97881
2.97894
2.97907
2.9792
2.97931
2.97941
2.9795
2.97959
2.97967
2.97974
2.9798
2.97986
2.97991
2.97996
2.98
2.98003
2.98006
2.98009
2.98011
2.98013
2.98015
2.98017
2.98018
2.98019
2.98019
2.9802
2.9802
2.9802
2.9802
2.98019
2.98019
2.98018
2.98017
2.98015
2.98013
2.98011
2.98009
2.98006
2.98003
2.98
2.97996
2.97991
2.97986
2.9798
2.97974
2.97967
2.97959
2.9795
2.97941
2.97931
2.9792
2.97907
2.97894
2.97881
2.97866
2.97853
2.97842
3.42352
3.42365
3.42382
3.42399
3.42415
3.42431
3.42445
3.42459
3.42471
3.42482
3.42492
3.42502
3.4251
3.42518
3.42525
3.42531
3.42536
3.42541
3.42545
3.42549
3.42552
3.42555
3.42558
3.4256
3.42562
3.42563
3.42564
3.42565
3.42565
3.42566
3.42566
3.42565
3.42565
3.42564
3.42563
3.42562
3.4256
3.42558
3.42555
3.42552
3.42549
3.42545
3.42541
3.42536
3.42531
3.42525
3.42518
3.4251
3.42502
3.42492
3.42482
3.42471
3.42459
3.42445
3.42431
3.42415
3.42399
3.42382
3.42365
3.42352
3.87786
3.87801
3.8782
3.8784
3.87859
3.87877
3.87894
3.8791
3.87924
3.87937
3.87949
3.8796
3.8797
3.87979
3.87987
3.87994
3.88
3.88006
3.88011
3.88016
3.88019
3.88023
3.88026
3.88028
3.8803
3.88032
3.88033
3.88034
3.88035
3.88035
3.88035
3.88035
3.88034
3.88033
3.88032
3.8803
3.88028
3.88026
3.88023
3.88019
3.88016
3.88011
3.88006
3.88
3.87994
3.87987
3.87979
3.8797
3.8796
3.87949
3.87937
3.87924
3.8791
3.87894
3.87877
3.87859
3.8784
3.8782
3.87801
3.87786
4.34163
4.3418
4.34202
4.34225
4.34247
4.34267
4.34287
4.34305
4.34321
4.34336
4.3435
4.34363
4.34374
4.34384
4.34393
4.34401
4.34409
4.34415
4.34421
4.34426
4.3443
4.34434
4.34438
4.3444
4.34443
4.34445
4.34446
4.34447
4.34448
4.34448
4.34448
4.34448
4.34447
4.34446
4.34445
4.34443
4.3444
4.34438
4.34434
4.3443
4.34426
4.34421
4.34415
4.34409
4.34401
4.34393
4.34384
4.34374
4.34363
4.3435
4.34336
4.34321
4.34305
4.34287
4.34267
4.34247
4.34225
4.34202
4.3418
4.34163
4.81492
4.81511
4.81535
4.81561
4.81586
4.81609
4.81631
4.81651
4.8167
4.81687
4.81703
4.81717
4.81729
4.81741
4.81751
4.81761
4.81769
4.81776
4.81783
4.81788
4.81793
4.81798
4.81801
4.81804
4.81807
4.81809
4.81811
4.81812
4.81813
4.81813
4.81813
4.81813
4.81812
4.81811
4.81809
4.81807
4.81804
4.81801
4.81798
4.81793
4.81788
4.81783
4.81776
4.81769
4.81761
4.81751
4.81741
4.81729
4.81717
4.81703
4.81687
4.8167
4.81651
4.81631
4.81609
4.81586
4.81561
4.81535
4.81511
4.81492
5.29772
5.29794
5.29821
5.2985
5.29877
5.29903
5.29928
5.2995
5.29971
5.2999
5.30008
5.30023
5.30037
5.3005
5.30062
5.30072
5.30081
5.30089
5.30097
5.30103
5.30109
5.30113
5.30117
5.30121
5.30124
5.30126
5.30128
5.3013
5.3013
5.30131
5.30131
5.3013
5.3013
5.30128
5.30126
5.30124
5.30121
5.30117
5.30113
5.30109
5.30103
5.30097
5.30089
5.30081
5.30072
5.30062
5.3005
5.30037
5.30023
5.30008
5.2999
5.29971
5.2995
5.29928
5.29903
5.29877
5.2985
5.29821
5.29794
5.29772
5.79002
5.79025
5.79056
5.79087
5.79118
5.79147
5.79174
5.79199
5.79222
5.79242
5.79262
5.79279
5.79295
5.79309
5.79321
5.79333
5.79343
5.79352
5.7936
5.79367
5.79373
5.79378
5.79383
5.79387
5.7939
5.79393
5.79395
5.79396
5.79397
5.79398
5.79398
5.79397
5.79396
5.79395
5.79393
5.7939
5.79387
5.79383
5.79378
5.79373
5.79367
5.7936
5.79352
5.79343
5.79333
5.79321
5.79309
5.79295
5.79279
5.79262
5.79242
5.79222
5.79199
5.79174
5.79147
5.79118
5.79087
5.79056
5.79025
5.79002
6.29174
6.292
6.29233
6.29267
6.29301
6.29332
6.29362
6.29389
6.29414
6.29437
6.29458
6.29477
6.29494
6.2951
6.29523
6.29536
6.29547
6.29557
6.29566
6.29573
6.2958
6.29586
6.29591
6.29595
6.29599
6.29601
6.29604
6.29605
6.29606
6.29607
6.29607
6.29606
6.29605
6.29604
6.29601
6.29599
6.29595
6.29591
6.29586
6.2958
6.29573
6.29566
6.29557
6.29547
6.29536
6.29523
6.2951
6.29494
6.29477
6.29458
6.29437
6.29414
6.29389
6.29362
6.29332
6.29301
6.29267
6.29233
6.292
6.29174
6.80279
6.80306
6.80342
6.8038
6.80416
6.8045
6.80482
6.80512
6.80539
6.80564
6.80587
6.80607
6.80626
6.80643
6.80658
6.80671
6.80683
6.80694
6.80704
6.80712
6.80719
6.80726
6.80731
6.80736
6.80739
6.80743
6.80745
6.80747
6.80748
6.80749
6.80749
6.80748
6.80747
6.80745
6.80743
6.80739
6.80736
6.80731
6.80726
6.80719
6.80712
6.80704
6.80694
6.80683
6.80671
6.80658
6.80643
6.80626
6.80607
6.80587
6.80564
6.80539
6.80512
6.80482
6.8045
6.80416
6.8038
6.80342
6.80306
6.80279
7.32302
7.32332
7.32371
7.32411
7.3245
7.32487
7.32522
7.32554
7.32583
7.3261
7.32635
7.32657
7.32677
7.32695
7.32711
7.32726
7.32739
7.3275
7.32761
7.3277
7.32777
7.32784
7.3279
7.32795
7.32799
7.32803
7.32805
7.32807
7.32808
7.32809
7.32809
7.32808
7.32807
7.32805
7.32803
7.32799
7.32795
7.3279
7.32784
7.32777
7.3277
7.32761
7.3275
7.32739
7.32726
7.32711
7.32695
7.32677
7.32657
7.32635
7.3261
7.32583
7.32554
7.32522
7.32487
7.3245
7.32411
7.32371
7.32332
7.32302
7.85227
7.85259
7.85301
7.85344
7.85386
7.85426
7.85463
7.85497
7.85529
7.85558
7.85584
7.85608
7.85629
7.85649
7.85666
7.85682
7.85696
7.85708
7.85719
7.85729
7.85737
7.85744
7.85751
7.85756
7.85761
7.85764
7.85767
7.85769
7.8577
7.85771
7.85771
7.8577
7.85769
7.85767
7.85764
7.85761
7.85756
7.85751
7.85744
7.85737
7.85729
7.85719
7.85708
7.85696
7.85682
7.85666
7.85649
7.85629
7.85608
7.85584
7.85558
7.85529
7.85497
7.85463
7.85426
7.85386
7.85344
7.85301
7.85259
7.85227
8.39032
8.39066
8.39111
8.39157
8.39202
8.39244
8.39284
8.39321
8.39354
8.39385
8.39413
8.39439
8.39462
8.39482
8.39501
8.39518
8.39533
8.39546
8.39557
8.39568
8.39577
8.39585
8.39591
8.39597
8.39602
8.39606
8.39609
8.39611
8.39612
8.39613
8.39613
8.39612
8.39611
8.39609
8.39606
8.39602
8.39597
8.39591
8.39585
8.39577
8.39568
8.39557
8.39546
8.39533
8.39518
8.39501
8.39482
8.39462
8.39439
8.39413
8.39385
8.39354
8.39321
8.39284
8.39244
8.39202
8.39157
8.39111
8.39066
8.39032
8.93691
8.93727
8.93774
8.93824
8.93871
8.93917
8.93959
8.93998
8.94033
8.94066
8.94096
8.94123
8.94147
8.94169
8.94189
8.94207
8.94223
8.94237
8.94249
8.9426
8.9427
8.94278
8.94285
8.94291
8.94296
8.943
8.94304
8.94306
8.94308
8.94308
8.94308
8.94308
8.94306
8.94304
8.943
8.94296
8.94291
8.94285
8.94278
8.9427
8.9426
8.94249
8.94237
8.94223
8.94207
8.94189
8.94169
8.94147
8.94123
8.94096
8.94066
8.94033
8.93998
8.93959
8.93917
8.93871
8.93824
8.93774
8.93727
8.93691
9.49172
9.4921
9.4926
9.49312
9.49363
9.49411
9.49455
9.49496
9.49534
9.49569
9.496
9.49629
9.49655
9.49678
9.49699
9.49718
9.49735
9.4975
9.49763
9.49774
9.49785
9.49793
9.49801
9.49807
9.49813
9.49817
9.4982
9.49823
9.49825
9.49825
9.49825
9.49825
9.49823
9.4982
9.49817
9.49813
9.49807
9.49801
9.49793
9.49785
9.49774
9.49763
9.4975
9.49735
9.49718
9.49699
9.49678
9.49655
9.49629
9.496
9.49569
9.49534
9.49496
9.49455
9.49411
9.49363
9.49312
9.4926
9.4921
9.49172
10.0544
10.0548
10.0553
10.0559
10.0564
10.0569
10.0574
10.0578
10.0582
10.0586
10.0589
10.0592
10.0595
10.0597
10.0599
10.0601
10.0603
10.0605
10.0606
10.0607
10.0608
10.0609
10.061
10.0611
10.0611
10.0612
10.0612
10.0612
10.0613
10.0613
10.0613
10.0613
10.0612
10.0612
10.0612
10.0611
10.0611
10.061
10.0609
10.0608
10.0607
10.0606
10.0605
10.0603
10.0601
10.0599
10.0597
10.0595
10.0592
10.0589
10.0586
10.0582
10.0578
10.0574
10.0569
10.0564
10.0559
10.0553
10.0548
10.0544
10.6244
10.6249
10.6254
10.626
10.6265
10.6271
10.6276
10.628
10.6284
10.6288
10.6292
10.6295
10.6298
10.63
10.6303
10.6305
10.6307
10.6308
10.631
10.6311
10.6312
10.6313
10.6314
10.6315
10.6315
10.6316
10.6316
10.6316
10.6317
10.6317
10.6317
10.6317
10.6316
10.6316
10.6316
10.6315
10.6315
10.6314
10.6313
10.6312
10.6311
10.631
10.6308
10.6307
10.6305
10.6303
10.63
10.6298
10.6295
10.6292
10.6288
10.6284
10.628
10.6276
10.6271
10.6265
10.626
10.6254
10.6249
10.6244
11.2014
11.2018
11.2024
11.203
11.2036
11.2041
11.2047
11.2051
11.2056
11.206
11.2063
11.2067
11.207
11.2072
11.2075
11.2077
11.2079
11.2081
11.2082
11.2084
11.2085
11.2086
11.2087
11.2087
11.2088
11.2089
11.2089
11.2089
11.2089
11.209
11.209
11.2089
11.2089
11.2089
11.2089
11.2088
11.2087
11.2087
11.2086
11.2085
11.2084
11.2082
11.2081
11.2079
11.2077
11.2075
11.2072
11.207
11.2067
11.2063
11.206
11.2056
11.2051
11.2047
11.2041
11.2036
11.203
11.2024
11.2018
11.2014
11.7846
11.7851
11.7857
11.7863
11.7869
11.7875
11.788
11.7885
11.789
11.7894
11.7898
11.7901
11.7904
11.7907
11.791
11.7912
11.7914
11.7916
11.7917
11.7919
11.792
11.7921
11.7922
11.7923
11.7924
11.7924
11.7924
11.7925
11.7925
11.7925
11.7925
11.7925
11.7925
11.7924
11.7924
11.7924
11.7923
11.7922
11.7921
11.792
11.7919
11.7917
11.7916
11.7914
11.7912
11.791
11.7907
11.7904
11.7901
11.7898
11.7894
11.789
11.7885
11.788
11.7875
11.7869
11.7863
11.7857
11.7851
11.7846
12.3734
12.3739
12.3745
12.3752
12.3758
12.3764
12.377
12.3775
12.378
12.3784
12.3788
12.3792
12.3795
12.3798
12.38
12.3803
12.3805
12.3807
12.3808
12.381
12.3811
12.3812
12.3813
12.3814
12.3815
12.3815
12.3816
12.3816
12.3816
12.3816
12.3816
12.3816
12.3816
12.3816
12.3815
12.3815
12.3814
12.3813
12.3812
12.3811
12.381
12.3808
12.3807
12.3805
12.3803
12.38
12.3798
12.3795
12.3792
12.3788
12.3784
12.378
12.3775
12.377
12.3764
12.3758
12.3752
12.3745
12.3739
12.3734
12.967
12.9675
12.9682
12.9688
12.9695
12.9701
12.9707
12.9712
12.9717
12.9722
12.9726
12.973
12.9733
12.9736
12.9739
12.9741
12.9743
12.9745
12.9747
12.9749
12.975
12.9751
12.9752
12.9753
12.9753
12.9754
12.9754
12.9755
12.9755
12.9755
12.9755
12.9755
12.9755
12.9754
12.9754
12.9753
12.9753
12.9752
12.9751
12.975
12.9749
12.9747
12.9745
12.9743
12.9741
12.9739
12.9736
12.9733
12.973
12.9726
12.9722
12.9717
12.9712
12.9707
12.9701
12.9695
12.9688
12.9682
12.9675
12.967
13.5645
13.565
13.5656
13.5663
13.567
13.5677
13.5683
13.5688
13.5693
13.5698
13.5702
13.5706
13.5709
13.5713
13.5715
13.5718
13.572
13.5722
13.5724
13.5725
13.5727
13.5728
13.5729
13.573
13.5731
13.5731
13.5732
13.5732
13.5732
13.5732
13.5732
13.5732
13.5732
13.5732
13.5731
13.5731
13.573
13.5729
13.5728
13.5727
13.5725
13.5724
13.5722
13.572
13.5718
13.5715
13.5713
13.5709
13.5706
13.5702
13.5698
13.5693
13.5688
13.5683
13.5677
13.567
13.5663
13.5656
13.565
13.5645
14.1647
14.1652
14.1659
14.1666
14.1673
14.168
14.1686
14.1692
14.1697
14.1702
14.1706
14.171
14.1713
14.1717
14.172
14.1722
14.1724
14.1727
14.1728
14.173
14.1731
14.1733
14.1734
14.1734
14.1735
14.1736
14.1736
14.1737
14.1737
14.1737
14.1737
14.1737
14.1737
14.1736
14.1736
14.1735
14.1734
14.1734
14.1733
14.1731
14.173
14.1728
14.1727
14.1724
14.1722
14.172
14.1717
14.1713
14.171
14.1706
14.1702
14.1697
14.1692
14.1686
14.168
14.1673
14.1666
14.1659
14.1652
14.1647
14.7664
14.767
14.7677
14.7684
14.7691
14.7698
14.7705
14.771
14.7716
14.7721
14.7725
14.7729
14.7733
14.7736
14.7739
14.7742
14.7744
14.7746
14.7748
14.775
14.7751
14.7752
14.7753
14.7754
14.7755
14.7756
14.7756
14.7756
14.7757
14.7757
14.7757
14.7757
14.7756
14.7756
14.7756
14.7755
14.7754
14.7753
14.7752
14.7751
14.775
14.7748
14.7746
14.7744
14.7742
14.7739
14.7736
14.7733
14.7729
14.7725
14.7721
14.7716
14.771
14.7705
14.7698
14.7691
14.7684
14.7677
14.767
14.7664
15.3683
15.3689
15.3696
15.3704
15.3711
15.3718
15.3724
15.373
15.3736
15.3741
15.3745
15.3749
15.3753
15.3756
15.3759
15.3762
15.3765
15.3767
15.3769
15.377
15.3772
15.3773
15.3774
15.3775
15.3776
15.3776
15.3777
15.3777
15.3778
15.3778
15.3778
15.3778
15.3777
15.3777
15.3776
15.3776
15.3775
15.3774
15.3773
15.3772
15.377
15.3769
15.3767
15.3765
15.3762
15.3759
15.3756
15.3753
15.3749
15.3745
15.3741
15.3736
15.373
15.3724
15.3718
15.3711
15.3704
15.3696
15.3689
15.3683
15.9687
15.9693
15.97
15.9708
15.9715
15.9722
15.9729
15.9735
15.974
15.9745
15.975
15.9754
15.9758
15.9761
15.9765
15.9767
15.977
15.9772
15.9774
15.9776
15.9777
15.9778
15.9779
15.978
15.9781
15.9782
15.9782
15.9783
15.9783
15.9783
15.9783
15.9783
15.9783
15.9782
15.9782
15.9781
15.978
15.9779
15.9778
15.9777
15.9776
15.9774
15.9772
15.977
15.9767
15.9765
15.9761
15.9758
15.9754
15.975
15.9745
15.974
15.9735
15.9729
15.9722
15.9715
15.9708
15.97
15.9693
15.9687
16.5657
16.5663
16.567
16.5678
16.5685
16.5693
16.5699
16.5705
16.5711
16.5716
16.5721
16.5725
16.5729
16.5732
16.5735
16.5738
16.5741
16.5743
16.5745
16.5746
16.5748
16.5749
16.575
16.5751
16.5752
16.5753
16.5753
16.5754
16.5754
16.5754
16.5754
16.5754
16.5754
16.5753
16.5753
16.5752
16.5751
16.575
16.5749
16.5748
16.5746
16.5745
16.5743
16.5741
16.5738
16.5735
16.5732
16.5729
16.5725
16.5721
16.5716
16.5711
16.5705
16.5699
16.5693
16.5685
16.5678
16.567
16.5663
16.5657
17.1571
17.1577
17.1584
17.1592
17.16
17.1607
17.1613
17.162
17.1625
17.163
17.1635
17.1639
17.1643
17.1647
17.165
17.1653
17.1655
17.1657
17.1659
17.1661
17.1662
17.1664
17.1665
17.1666
17.1667
17.1667
17.1668
17.1668
17.1668
17.1668
17.1668
17.1668
17.1668
17.1668
17.1667
17.1667
17.1666
17.1665
17.1664
17.1662
17.1661
17.1659
17.1657
17.1655
17.1653
17.165
17.1647
17.1643
17.1639
17.1635
17.163
17.1625
17.162
17.1613
17.1607
17.16
17.1592
17.1584
17.1577
17.1571
17.7404
17.741
17.7417
17.7425
17.7432
17.744
17.7446
17.7452
17.7458
17.7463
17.7468
17.7472
17.7476
17.7479
17.7482
17.7485
17.7488
17.749
17.7492
17.7494
17.7495
17.7496
17.7498
17.7498
17.7499
17.75
17.75
17.7501
17.7501
17.7501
17.7501
17.7501
17.7501
17.75
17.75
17.7499
17.7498
17.7498
17.7496
17.7495
17.7494
17.7492
17.749
17.7488
17.7485
17.7482
17.7479
17.7476
17.7472
17.7468
17.7463
17.7458
17.7452
17.7446
17.744
17.7432
17.7425
17.7417
17.741
17.7404
18.3125
18.3131
18.3139
18.3147
18.3154
18.3161
18.3168
18.3174
18.3179
18.3184
18.3189
18.3193
18.3197
18.32
18.3204
18.3206
18.3209
18.3211
18.3213
18.3215
18.3216
18.3217
18.3218
18.3219
18.322
18.3221
18.3221
18.3222
18.3222
18.3222
18.3222
18.3222
18.3222
18.3221
18.3221
18.322
18.3219
18.3218
18.3217
18.3216
18.3215
18.3213
18.3211
18.3209
18.3206
18.3204
18.32
18.3197
18.3193
18.3189
18.3184
18.3179
18.3174
18.3168
18.3161
18.3154
18.3147
18.3139
18.3131
18.3125
18.8701
18.8707
18.8714
18.8722
18.8729
18.8736
18.8743
18.8749
18.8754
18.8759
18.8764
18.8768
18.8772
18.8775
18.8778
18.8781
18.8783
18.8785
18.8787
18.8789
18.879
18.8792
18.8793
18.8794
18.8794
18.8795
18.8795
18.8796
18.8796
18.8796
18.8796
18.8796
18.8796
18.8795
18.8795
18.8794
18.8794
18.8793
18.8792
18.879
18.8789
18.8787
18.8785
18.8783
18.8781
18.8778
18.8775
18.8772
18.8768
18.8764
18.8759
18.8754
18.8749
18.8743
18.8736
18.8729
18.8722
18.8714
18.8707
18.8701
19.409
19.4095
19.4102
19.411
19.4117
19.4124
19.413
19.4136
19.4141
19.4146
19.415
19.4154
19.4158
19.4161
19.4164
19.4167
19.4169
19.4171
19.4173
19.4175
19.4176
19.4177
19.4178
19.4179
19.418
19.4181
19.4181
19.4181
19.4182
19.4182
19.4182
19.4182
19.4181
19.4181
19.4181
19.418
19.4179
19.4178
19.4177
19.4176
19.4175
19.4173
19.4171
19.4169
19.4167
19.4164
19.4161
19.4158
19.4154
19.415
19.4146
19.4141
19.4136
19.413
19.4124
19.4117
19.411
19.4102
19.4095
19.409
19.9241
19.9247
19.9254
19.9261
19.9268
19.9274
19.928
19.9286
19.9291
19.9296
19.93
19.9304
19.9307
19.931
19.9313
19.9316
19.9318
19.932
19.9321
19.9323
19.9324
19.9326
19.9327
19.9327
19.9328
19.9329
19.9329
19.9329
19.933
19.933
19.933
19.933
19.9329
19.9329
19.9329
19.9328
19.9327
19.9327
19.9326
19.9324
19.9323
19.9321
19.932
19.9318
19.9316
19.9313
19.931
19.9307
19.9304
19.93
19.9296
19.9291
19.9286
19.928
19.9274
19.9268
19.9261
19.9254
19.9247
19.9241
20.4099
20.4104
20.4111
20.4118
20.4124
20.413
20.4136
20.4141
20.4146
20.415
20.4154
20.4158
20.4161
20.4164
20.4166
20.4169
20.4171
20.4173
20.4174
20.4176
20.4177
20.4178
20.4179
20.418
20.418
20.4181
20.4181
20.4182
20.4182
20.4182
20.4182
20.4182
20.4182
20.4181
20.4181
20.418
20.418
20.4179
20.4178
20.4177
20.4176
20.4174
20.4173
20.4171
20.4169
20.4166
20.4164
20.4161
20.4158
20.4154
20.415
20.4146
20.4141
20.4136
20.413
20.4124
20.4118
20.4111
20.4104
20.4099
20.8596
20.8601
20.8607
20.8613
20.8619
20.8625
20.863
20.8634
20.8639
20.8643
20.8646
20.865
20.8653
20.8655
20.8658
20.866
20.8662
20.8664
20.8665
20.8666
20.8667
20.8668
20.8669
20.867
20.8671
20.8671
20.8672
20.8672
20.8672
20.8672
20.8672
20.8672
20.8672
20.8672
20.8671
20.8671
20.867
20.8669
20.8668
20.8667
20.8666
20.8665
20.8664
20.8662
20.866
20.8658
20.8655
20.8653
20.865
20.8646
20.8643
20.8639
20.8634
20.863
20.8625
20.8619
20.8613
20.8607
20.8601
20.8596
21.2663
21.2667
21.2672
21.2677
21.2683
21.2688
21.2692
21.2696
21.27
21.2704
21.2707
21.271
21.2712
21.2715
21.2717
21.2719
21.272
21.2722
21.2723
21.2724
21.2725
21.2726
21.2727
21.2728
21.2728
21.2729
21.2729
21.2729
21.2729
21.2729
21.2729
21.2729
21.2729
21.2729
21.2729
21.2728
21.2728
21.2727
21.2726
21.2725
21.2724
21.2723
21.2722
21.272
21.2719
21.2717
21.2715
21.2712
21.271
21.2707
21.2704
21.27
21.2696
21.2692
21.2688
21.2683
21.2677
21.2672
21.2667
21.2663
21.6233
21.6237
21.6241
21.6246
21.625
21.6254
21.6258
21.6262
21.6265
21.6268
21.6271
21.6273
21.6275
21.6277
21.6279
21.6281
21.6282
21.6283
21.6285
21.6286
21.6286
21.6287
21.6288
21.6288
21.6289
21.6289
21.6289
21.629
21.629
21.629
21.629
21.629
21.629
21.6289
21.6289
21.6289
21.6288
21.6288
21.6287
21.6286
21.6286
21.6285
21.6283
21.6282
21.6281
21.6279
21.6277
21.6275
21.6273
21.6271
21.6268
21.6265
21.6262
21.6258
21.6254
21.625
21.6246
21.6241
21.6237
21.6233
21.9268
21.9271
21.9274
21.9278
21.9281
21.9285
21.9288
21.9291
21.9293
21.9296
21.9298
21.93
21.9302
21.9303
21.9305
21.9306
21.9307
21.9308
21.9309
21.931
21.931
21.9311
21.9311
21.9312
21.9312
21.9312
21.9313
21.9313
21.9313
21.9313
21.9313
21.9313
21.9313
21.9313
21.9312
21.9312
21.9312
21.9311
21.9311
21.931
21.931
21.9309
21.9308
21.9307
21.9306
21.9305
21.9303
21.9302
21.93
21.9298
21.9296
21.9293
21.9291
21.9288
21.9285
21.9281
21.9278
21.9274
21.9271
21.9268
22.1766
22.1768
22.1771
22.1773
22.1776
22.1779
22.1781
22.1783
22.1785
22.1787
22.1789
22.179
22.1792
22.1793
22.1794
22.1795
22.1796
22.1797
22.1797
22.1798
22.1798
22.1799
22.1799
22.1799
22.18
22.18
22.18
22.18
22.18
22.18
22.18
22.18
22.18
22.18
22.18
22.18
22.1799
22.1799
22.1799
22.1798
22.1798
22.1797
22.1797
22.1796
22.1795
22.1794
22.1793
22.1792
22.179
22.1789
22.1787
22.1785
22.1783
22.1781
22.1779
22.1776
22.1773
22.1771
22.1768
22.1766
22.3775
22.3776
22.3778
22.378
22.3782
22.3784
22.3786
22.3787
22.3789
22.379
22.3791
22.3793
22.3794
22.3794
22.3795
22.3796
22.3796
22.3797
22.3797
22.3798
22.3798
22.3799
22.3799
22.3799
22.3799
22.3799
22.38
22.38
22.38
22.38
22.38
22.38
22.38
22.38
22.3799
22.3799
22.3799
22.3799
22.3799
22.3798
22.3798
22.3797
22.3797
22.3796
22.3796
22.3795
22.3794
22.3794
22.3793
22.3791
22.379
22.3789
22.3787
22.3786
22.3784
22.3782
22.378
22.3778
22.3776
22.3775
22.5377
22.5378
22.5379
22.5381
22.5382
22.5383
22.5385
22.5386
22.5387
22.5388
22.5389
22.5389
22.539
22.5391
22.5391
22.5392
22.5392
22.5392
22.5393
22.5393
22.5393
22.5393
22.5394
22.5394
22.5394
22.5394
22.5394
22.5394
22.5394
22.5394
22.5394
22.5394
22.5394
22.5394
22.5394
22.5394
22.5394
22.5394
22.5393
22.5393
22.5393
22.5393
22.5392
22.5392
22.5392
22.5391
22.5391
22.539
22.5389
22.5389
22.5388
22.5387
22.5386
22.5385
22.5383
22.5382
22.5381
22.5379
22.5378
22.5377
22.6666
22.6667
22.6668
22.6669
22.667
22.667
22.6671
22.6672
22.6673
22.6673
22.6674
22.6674
22.6675
22.6675
22.6676
22.6676
22.6676
22.6677
22.6677
22.6677
22.6677
22.6677
22.6677
22.6677
22.6677
22.6678
22.6678
22.6678
22.6678
22.6678
22.6678
22.6678
22.6678
22.6678
22.6678
22.6677
22.6677
22.6677
22.6677
22.6677
22.6677
22.6677
22.6677
22.6676
22.6676
22.6676
22.6675
22.6675
22.6674
22.6674
22.6673
22.6673
22.6672
22.6671
22.667
22.667
22.6669
22.6668
22.6667
22.6666
22.7727
22.7728
22.7728
22.7729
22.773
22.773
22.7731
22.7731
22.7732
22.7732
22.7733
22.7733
22.7733
22.7733
22.7734
22.7734
22.7734
22.7734
22.7734
22.7734
22.7734
22.7735
22.7735
22.7735
22.7735
22.7735
22.7735
22.7735
22.7735
22.7735
22.7735
22.7735
22.7735
22.7735
22.7735
22.7735
22.7735
22.7735
22.7735
22.7734
22.7734
22.7734
22.7734
22.7734
22.7734
22.7734
22.7733
22.7733
22.7733
22.7733
22.7732
22.7732
22.7731
22.7731
22.773
22.773
22.7729
22.7728
22.7728
22.7727
22.8626
22.8626
22.8627
22.8627
22.8628
22.8628
22.8628
22.8629
22.8629
22.8629
22.8629
22.863
22.863
22.863
22.863
22.863
22.863
22.863
22.8631
22.8631
22.8631
22.8631
22.8631
22.8631
22.8631
22.8631
22.8631
22.8631
22.8631
22.8631
22.8631
22.8631
22.8631
22.8631
22.8631
22.8631
22.8631
22.8631
22.8631
22.8631
22.8631
22.8631
22.863
22.863
22.863
22.863
22.863
22.863
22.863
22.8629
22.8629
22.8629
22.8629
22.8628
22.8628
22.8628
22.8627
22.8627
22.8626
22.8626
22.9408
22.9408
22.9409
22.9409
22.9409
22.941
22.941
22.941
22.941
22.941
22.941
22.9411
22.9411
22.9411
22.9411
22.9411
22.9411
22.9411
22.9411
22.9411
22.9411
22.9411
22.9411
22.9411
22.9411
22.9411
22.9411
22.9411
22.9411
22.9411
22.9411
22.9411
22.9411
22.9411
22.9411
22.9411
22.9411
22.9411
22.9411
22.9411
22.9411
22.9411
22.9411
22.9411
22.9411
22.9411
22.9411
22.9411
22.9411
22.941
22.941
22.941
22.941
22.941
22.941
22.9409
22.9409
22.9409
22.9408
22.9408
23.0105
23.0105
23.0105
23.0105
23.0105
23.0105
23.0106
23.0106
23.0106
23.0106
23.0106
23.0106
23.0106
23.0106
23.0106
23.0106
23.0106
23.0106
23.0106
23.0106
23.0106
23.0106
23.0106
23.0106
23.0106
23.0106
23.0106
23.0106
23.0106
23.0106
23.0106
23.0106
23.0106
23.0106
23.0106
23.0106
23.0106
23.0106
23.0106
23.0106
23.0106
23.0106
23.0106
23.0106
23.0106
23.0106
23.0106
23.0106
23.0106
23.0106
23.0106
23.0106
23.0106
23.0106
23.0105
23.0105
23.0105
23.0105
23.0105
23.0105
23.0736
23.0736
23.0736
23.0736
23.0736
23.0736
23.0736
23.0736
23.0736
23.0736
23.0736
23.0736
23.0736
23.0736
23.0736
23.0736
23.0736
23.0736
23.0736
23.0736
23.0736
23.0736
23.0736
23.0736
23.0736
23.0736
23.0736
23.0736
23.0736
23.0736
23.0736
23.0736
23.0736
23.0736
23.0736
23.0736
23.0736
23.0736
23.0736
23.0736
23.0736
23.0736
23.0736
23.0736
23.0736
23.0736
23.0736
23.0736
23.0736
23.0736
23.0736
23.0736
23.0736
23.0736
23.0736
23.0736
23.0736
23.0736
23.0736
23.0736
23.1315
23.1315
23.1315
23.1315
23.1315
23.1315
23.1315
23.1315
23.1315
23.1315
23.1315
23.1315
23.1315
23.1315
23.1314
23.1314
23.1314
23.1314
23.1314
23.1314
23.1314
23.1314
23.1314
23.1314
23.1314
23.1314
23.1314
23.1314
23.1314
23.1314
23.1314
23.1314
23.1314
23.1314
23.1314
23.1314
23.1314
23.1314
23.1314
23.1314
23.1314
23.1314
23.1314
23.1314
23.1314
23.1314
23.1315
23.1315
23.1315
23.1315
23.1315
23.1315
23.1315
23.1315
23.1315
23.1315
23.1315
23.1315
23.1315
23.1315
23.1852
23.1852
23.1852
23.1852
23.1852
23.1852
23.1852
23.1852
23.1852
23.1852
23.1852
23.1851
23.1851
23.1851
23.1851
23.1851
23.1851
23.1851
23.1851
23.1851
23.1851
23.1851
23.1851
23.1851
23.1851
23.1851
23.1851
23.1851
23.1851
23.1851
23.1851
23.1851
23.1851
23.1851
23.1851
23.1851
23.1851
23.1851
23.1851
23.1851
23.1851
23.1851
23.1851
23.1851
23.1851
23.1851
23.1851
23.1851
23.1851
23.1852
23.1852
23.1852
23.1852
23.1852
23.1852
23.1852
23.1852
23.1852
23.1852
23.1852
23.2355
23.2355
23.2355
23.2354
23.2354
23.2354
23.2354
23.2354
23.2354
23.2354
23.2354
23.2354
23.2354
23.2353
23.2353
23.2353
23.2353
23.2353
23.2353
23.2353
23.2353
23.2353
23.2353
23.2353
23.2353
23.2353
23.2353
23.2353
23.2353
23.2353
23.2353
23.2353
23.2353
23.2353
23.2353
23.2353
23.2353
23.2353
23.2353
23.2353
23.2353
23.2353
23.2353
23.2353
23.2353
23.2353
23.2353
23.2354
23.2354
23.2354
23.2354
23.2354
23.2354
23.2354
23.2354
23.2354
23.2354
23.2355
23.2355
23.2355
23.2828
23.2828
23.2828
23.2828
23.2828
23.2828
23.2827
23.2827
23.2827
23.2827
23.2827
23.2827
23.2827
23.2827
23.2826
23.2826
23.2826
23.2826
23.2826
23.2826
23.2826
23.2826
23.2826
23.2826
23.2826
23.2826
23.2826
23.2826
23.2826
23.2826
23.2826
23.2826
23.2826
23.2826
23.2826
23.2826
23.2826
23.2826
23.2826
23.2826
23.2826
23.2826
23.2826
23.2826
23.2826
23.2826
23.2827
23.2827
23.2827
23.2827
23.2827
23.2827
23.2827
23.2827
23.2828
23.2828
23.2828
23.2828
23.2828
23.2828
23.3277
23.3277
23.3276
23.3276
23.3276
23.3276
23.3276
23.3276
23.3276
23.3275
23.3275
23.3275
23.3275
23.3275
23.3275
23.3275
23.3275
23.3274
23.3274
23.3274
23.3274
23.3274
23.3274
23.3274
23.3274
23.3274
23.3274
23.3274
23.3274
23.3274
23.3274
23.3274
23.3274
23.3274
23.3274
23.3274
23.3274
23.3274
23.3274
23.3274
23.3274
23.3274
23.3274
23.3275
23.3275
23.3275
23.3275
23.3275
23.3275
23.3275
23.3275
23.3276
23.3276
23.3276
23.3276
23.3276
23.3276
23.3276
23.3277
23.3277
23.3704
23.3704
23.3704
23.3703
23.3703
23.3703
23.3703
23.3703
23.3703
23.3702
23.3702
23.3702
23.3702
23.3702
23.3702
23.3702
23.3701
23.3701
23.3701
23.3701
23.3701
23.3701
23.3701
23.3701
23.3701
23.3701
23.3701
23.3701
23.3701
23.3701
23.3701
23.3701
23.3701
23.3701
23.3701
23.3701
23.3701
23.3701
23.3701
23.3701
23.3701
23.3701
23.3701
23.3701
23.3702
23.3702
23.3702
23.3702
23.3702
23.3702
23.3702
23.3703
23.3703
23.3703
23.3703
23.3703
23.3703
23.3704
23.3704
23.3704
23.4112
23.4112
23.4112
23.4112
23.4112
23.4112
23.4111
23.4111
23.4111
23.4111
23.4111
23.411
23.411
23.411
23.411
23.411
23.411
23.411
23.411
23.4109
23.4109
23.4109
23.4109
23.4109
23.4109
23.4109
23.4109
23.4109
23.4109
23.4109
23.4109
23.4109
23.4109
23.4109
23.4109
23.4109
23.4109
23.4109
23.4109
23.4109
23.4109
23.411
23.411
23.411
23.411
23.411
23.411
23.411
23.411
23.4111
23.4111
23.4111
23.4111
23.4111
23.4112
23.4112
23.4112
23.4112
23.4112
23.4112
23.4505
23.4504
23.4504
23.4504
23.4504
23.4504
23.4503
23.4503
23.4503
23.4503
23.4503
23.4502
23.4502
23.4502
23.4502
23.4502
23.4502
23.4502
23.4502
23.4501
23.4501
23.4501
23.4501
23.4501
23.4501
23.4501
23.4501
23.4501
23.4501
23.4501
23.4501
23.4501
23.4501
23.4501
23.4501
23.4501
23.4501
23.4501
23.4501
23.4501
23.4501
23.4502
23.4502
23.4502
23.4502
23.4502
23.4502
23.4502
23.4502
23.4503
23.4503
23.4503
23.4503
23.4503
23.4504
23.4504
23.4504
23.4504
23.4504
23.4505
23.4882
23.4882
23.4882
23.4882
23.4882
23.4881
23.4881
23.4881
23.4881
23.4881
23.488
23.488
23.488
23.488
23.488
23.488
23.4879
23.4879
23.4879
23.4879
23.4879
23.4879
23.4879
23.4879
23.4879
23.4879
23.4879
23.4879
23.4879
23.4879
23.4879
23.4879
23.4879
23.4879
23.4879
23.4879
23.4879
23.4879
23.4879
23.4879
23.4879
23.4879
23.4879
23.4879
23.488
23.488
23.488
23.488
23.488
23.488
23.4881
23.4881
23.4881
23.4881
23.4881
23.4882
23.4882
23.4882
23.4882
23.4882
23.5247
23.5247
23.5247
23.5247
23.5247
23.5246
23.5246
23.5246
23.5246
23.5246
23.5245
23.5245
23.5245
23.5245
23.5245
23.5244
23.5244
23.5244
23.5244
23.5244
23.5244
23.5244