/*--------------------------------*- C++ -*----------------------------------*\
| =========                 |                                                 |
| \\      /  F ield         | foam-extend: Open Source CFD                    |
|  \\    /   O peration     | Version:     4.0                                |
|   \\  /    A nd           | Web:         http://www.foam-extend.org         |
|    \\/     M anipulation  |                                                 |
\*---------------------------------------------------------------------------*/
FoamFile
{
    version     2.0;
    format      ascii;
    class       volScalarField;
    location    "1920";
    object      psiE;
}
// * * * * * * * * * * * * * * * * * * * * * * * * * * * * * * * * * * * * * //

dimensions      [0 0 0 0 0 0 0];

internalField   nonuniform List<scalar> 
6960
(
0.332963
0.332967
0.332972
0.332978
0.332983
0.332988
0.332992
0.332996
0.333
0.333004
0.333007
0.33301
0.333012
0.333015
0.333017
0.333018
0.33302
0.333021
0.333023
0.333024
0.333025
0.333026
0.333026
0.333027
0.333028
0.333028
0.333028
0.333028
0.333029
0.333029
0.333029
0.333029
0.333028
0.333028
0.333028
0.333028
0.333027
0.333026
0.333026
0.333025
0.333024
0.333023
0.333021
0.33302
0.333018
0.333017
0.333015
0.333012
0.33301
0.333007
0.333004
0.333
0.332996
0.332992
0.332988
0.332983
0.332978
0.332972
0.332967
0.332963
0.827888
0.827905
0.827926
0.827947
0.827968
0.827988
0.828006
0.828023
0.828039
0.828053
0.828066
0.828077
0.828087
0.828097
0.828105
0.828113
0.828119
0.828125
0.82813
0.828135
0.828139
0.828142
0.828145
0.828147
0.82815
0.828151
0.828153
0.828153
0.828154
0.828154
0.828154
0.828154
0.828153
0.828153
0.828151
0.82815
0.828147
0.828145
0.828142
0.828139
0.828135
0.82813
0.828125
0.828119
0.828113
0.828105
0.828097
0.828087
0.828077
0.828066
0.828053
0.828039
0.828023
0.828006
0.827988
0.827968
0.827947
0.827926
0.827905
0.827888
1.27203
1.27207
1.27211
1.27215
1.27219
1.27223
1.27227
1.2723
1.27233
1.27236
1.27239
1.27241
1.27243
1.27245
1.27246
1.27248
1.27249
1.2725
1.27251
1.27252
1.27253
1.27254
1.27254
1.27255
1.27255
1.27256
1.27256
1.27256
1.27256
1.27256
1.27256
1.27256
1.27256
1.27256
1.27256
1.27255
1.27255
1.27254
1.27254
1.27253
1.27252
1.27251
1.2725
1.27249
1.27248
1.27246
1.27245
1.27243
1.27241
1.27239
1.27236
1.27233
1.2723
1.27227
1.27223
1.27219
1.27215
1.27211
1.27207
1.27203
1.70133
1.70138
1.70145
1.70152
1.70158
1.70164
1.7017
1.70175
1.7018
1.70185
1.70189
1.70192
1.70196
1.70198
1.70201
1.70203
1.70205
1.70207
1.70209
1.7021
1.70212
1.70213
1.70214
1.70214
1.70215
1.70215
1.70216
1.70216
1.70216
1.70216
1.70216
1.70216
1.70216
1.70216
1.70215
1.70215
1.70214
1.70214
1.70213
1.70212
1.7021
1.70209
1.70207
1.70205
1.70203
1.70201
1.70198
1.70196
1.70192
1.70189
1.70185
1.7018
1.70175
1.7017
1.70164
1.70158
1.70152
1.70145
1.70138
1.70133
2.12991
2.12998
2.13008
2.13017
2.13026
2.13035
2.13043
2.1305
2.13057
2.13063
2.13069
2.13074
2.13079
2.13083
2.13086
2.1309
2.13093
2.13095
2.13097
2.13099
2.13101
2.13103
2.13104
2.13105
2.13106
2.13107
2.13107
2.13108
2.13108
2.13108
2.13108
2.13108
2.13108
2.13107
2.13107
2.13106
2.13105
2.13104
2.13103
2.13101
2.13099
2.13097
2.13095
2.13093
2.1309
2.13086
2.13083
2.13079
2.13074
2.13069
2.13063
2.13057
2.1305
2.13043
2.13035
2.13026
2.13017
2.13008
2.12998
2.12991
2.56371
2.56381
2.56393
2.56405
2.56417
2.56428
2.56439
2.56449
2.56457
2.56465
2.56473
2.56479
2.56485
2.56491
2.56495
2.565
2.56503
2.56507
2.5651
2.56512
2.56514
2.56516
2.56518
2.56519
2.56521
2.56522
2.56522
2.56523
2.56523
2.56523
2.56523
2.56523
2.56523
2.56522
2.56522
2.56521
2.56519
2.56518
2.56516
2.56514
2.56512
2.5651
2.56507
2.56503
2.565
2.56495
2.56491
2.56485
2.56479
2.56473
2.56465
2.56457
2.56449
2.56439
2.56428
2.56417
2.56405
2.56393
2.56381
2.56371
3.00528
3.00539
3.00554
3.0057
3.00584
3.00598
3.00611
3.00623
3.00634
3.00644
3.00653
3.00661
3.00669
3.00675
3.00681
3.00687
3.00691
3.00695
3.00699
3.00702
3.00705
3.00707
3.0071
3.00711
3.00713
3.00714
3.00715
3.00715
3.00716
3.00716
3.00716
3.00716
3.00715
3.00715
3.00714
3.00713
3.00711
3.0071
3.00707
3.00705
3.00702
3.00699
3.00695
3.00691
3.00687
3.00681
3.00675
3.00669
3.00661
3.00653
3.00644
3.00634
3.00623
3.00611
3.00598
3.00584
3.0057
3.00554
3.00539
3.00528
3.45569
3.45583
3.456
3.45619
3.45637
3.45653
3.45669
3.45683
3.45696
3.45708
3.45719
3.45729
3.45738
3.45746
3.45753
3.45759
3.45765
3.4577
3.45774
3.45778
3.45781
3.45784
3.45786
3.45789
3.4579
3.45792
3.45793
3.45794
3.45794
3.45794
3.45794
3.45794
3.45794
3.45793
3.45792
3.4579
3.45789
3.45786
3.45784
3.45781
3.45778
3.45774
3.4577
3.45765
3.45759
3.45753
3.45746
3.45738
3.45729
3.45719
3.45708
3.45696
3.45683
3.45669
3.45653
3.45637
3.45619
3.456
3.45583
3.45569
3.9154
3.91557
3.91577
3.91599
3.9162
3.91639
3.91657
3.91674
3.91689
3.91703
3.91716
3.91727
3.91738
3.91747
3.91755
3.91763
3.91769
3.91775
3.9178
3.91784
3.91788
3.91792
3.91795
3.91797
3.91799
3.91801
3.91802
3.91803
3.91804
3.91804
3.91804
3.91804
3.91803
3.91802
3.91801
3.91799
3.91797
3.91795
3.91792
3.91788
3.91784
3.9178
3.91775
3.91769
3.91763
3.91755
3.91747
3.91738
3.91727
3.91716
3.91703
3.91689
3.91674
3.91657
3.91639
3.9162
3.91599
3.91577
3.91557
3.9154
4.38462
4.3848
4.38504
4.38528
4.38552
4.38575
4.38595
4.38614
4.38632
4.38648
4.38662
4.38675
4.38687
4.38698
4.38707
4.38716
4.38723
4.3873
4.38736
4.38741
4.38745
4.38749
4.38752
4.38755
4.38758
4.38759
4.38761
4.38762
4.38763
4.38763
4.38763
4.38763
4.38762
4.38761
4.38759
4.38758
4.38755
4.38752
4.38749
4.38745
4.38741
4.38736
4.3873
4.38723
4.38716
4.38707
4.38698
4.38687
4.38675
4.38662
4.38648
4.38632
4.38614
4.38595
4.38575
4.38552
4.38528
4.38504
4.3848
4.38462
4.86338
4.86359
4.86386
4.86413
4.8644
4.86466
4.86489
4.86511
4.8653
4.86548
4.86565
4.86579
4.86593
4.86605
4.86615
4.86625
4.86633
4.86641
4.86647
4.86653
4.86658
4.86662
4.86666
4.86669
4.86672
4.86674
4.86676
4.86677
4.86678
4.86678
4.86678
4.86678
4.86677
4.86676
4.86674
4.86672
4.86669
4.86666
4.86662
4.86658
4.86653
4.86647
4.86641
4.86633
4.86625
4.86615
4.86605
4.86593
4.86579
4.86565
4.86548
4.8653
4.86511
4.86489
4.86466
4.8644
4.86413
4.86386
4.86359
4.86338
5.3517
5.35193
5.35223
5.35254
5.35284
5.35312
5.35338
5.35362
5.35384
5.35404
5.35422
5.35439
5.35454
5.35467
5.35479
5.35489
5.35499
5.35507
5.35514
5.35521
5.35527
5.35531
5.35536
5.35539
5.35542
5.35544
5.35546
5.35548
5.35548
5.35549
5.35549
5.35548
5.35548
5.35546
5.35544
5.35542
5.35539
5.35536
5.35531
5.35527
5.35521
5.35514
5.35507
5.35499
5.35489
5.35479
5.35467
5.35454
5.35439
5.35422
5.35404
5.35384
5.35362
5.35338
5.35312
5.35284
5.35254
5.35223
5.35193
5.3517
5.84953
5.84979
5.85012
5.85046
5.85078
5.85109
5.85138
5.85165
5.85189
5.85211
5.85231
5.85249
5.85266
5.8528
5.85293
5.85305
5.85316
5.85325
5.85333
5.8534
5.85346
5.85351
5.85356
5.8536
5.85363
5.85366
5.85368
5.85369
5.8537
5.85371
5.85371
5.8537
5.85369
5.85368
5.85366
5.85363
5.8536
5.85356
5.85351
5.85346
5.8534
5.85333
5.85325
5.85316
5.85305
5.85293
5.8528
5.85266
5.85249
5.85231
5.85211
5.85189
5.85165
5.85138
5.85109
5.85078
5.85046
5.85012
5.84979
5.84953
6.35679
6.35707
6.35743
6.3578
6.35816
6.3585
6.35882
6.35911
6.35937
6.35961
6.35983
6.36003
6.36021
6.36037
6.36051
6.36064
6.36076
6.36086
6.36095
6.36102
6.36109
6.36115
6.3612
6.36124
6.36128
6.3613
6.36133
6.36134
6.36135
6.36136
6.36136
6.36135
6.36134
6.36133
6.3613
6.36128
6.36124
6.3612
6.36115
6.36109
6.36102
6.36095
6.36086
6.36076
6.36064
6.36051
6.36037
6.36021
6.36003
6.35983
6.35961
6.35937
6.35911
6.35882
6.3585
6.35816
6.3578
6.35743
6.35707
6.35679
6.87338
6.87368
6.87407
6.87447
6.87486
6.87523
6.87557
6.87589
6.87618
6.87644
6.87668
6.87689
6.87709
6.87726
6.87742
6.87755
6.87768
6.87779
6.87788
6.87797
6.87804
6.8781
6.87816
6.8782
6.87824
6.87827
6.8783
6.87832
6.87833
6.87833
6.87833
6.87833
6.87832
6.8783
6.87827
6.87824
6.8782
6.87816
6.8781
6.87804
6.87797
6.87788
6.87779
6.87768
6.87755
6.87742
6.87726
6.87709
6.87689
6.87668
6.87644
6.87618
6.87589
6.87557
6.87523
6.87486
6.87447
6.87407
6.87368
6.87338
7.39913
7.39946
7.39988
7.40031
7.40073
7.40113
7.4015
7.40184
7.40215
7.40243
7.40269
7.40292
7.40313
7.40332
7.40349
7.40364
7.40377
7.40389
7.40399
7.40408
7.40416
7.40423
7.40429
7.40434
7.40438
7.40441
7.40444
7.40446
7.40447
7.40448
7.40448
7.40447
7.40446
7.40444
7.40441
7.40438
7.40434
7.40429
7.40423
7.40416
7.40408
7.40399
7.40389
7.40377
7.40364
7.40349
7.40332
7.40313
7.40292
7.40269
7.40243
7.40215
7.40184
7.4015
7.40113
7.40073
7.40031
7.39988
7.39946
7.39913
7.93387
7.93422
7.93467
7.93514
7.93559
7.93601
7.93641
7.93677
7.93711
7.93741
7.93769
7.93794
7.93816
7.93836
7.93854
7.9387
7.93885
7.93897
7.93908
7.93918
7.93927
7.93934
7.9394
7.93945
7.9395
7.93954
7.93956
7.93958
7.9396
7.9396
7.9396
7.9396
7.93958
7.93956
7.93954
7.9395
7.93945
7.9394
7.93934
7.93927
7.93918
7.93908
7.93897
7.93885
7.9387
7.93854
7.93836
7.93816
7.93794
7.93769
7.93741
7.93711
7.93677
7.93641
7.93601
7.93559
7.93514
7.93467
7.93422
7.93387
8.47736
8.47773
8.47821
8.47871
8.47919
8.47965
8.48007
8.48046
8.48082
8.48114
8.48143
8.4817
8.48194
8.48215
8.48235
8.48252
8.48267
8.48281
8.48292
8.48303
8.48312
8.4832
8.48326
8.48332
8.48337
8.48341
8.48344
8.48346
8.48347
8.48348
8.48348
8.48347
8.48346
8.48344
8.48341
8.48337
8.48332
8.48326
8.4832
8.48312
8.48303
8.48292
8.48281
8.48267
8.48252
8.48235
8.48215
8.48194
8.4817
8.48143
8.48114
8.48082
8.48046
8.48007
8.47965
8.47919
8.47871
8.47821
8.47773
8.47736
9.02932
9.02972
9.03023
9.03075
9.03127
9.03175
9.0322
9.03261
9.03299
9.03333
9.03365
9.03393
9.03418
9.03441
9.03462
9.0348
9.03496
9.0351
9.03523
9.03534
9.03544
9.03552
9.03559
9.03565
9.0357
9.03574
9.03577
9.0358
9.03581
9.03582
9.03582
9.03581
9.0358
9.03577
9.03574
9.0357
9.03565
9.03559
9.03552
9.03544
9.03534
9.03523
9.0351
9.03496
9.0348
9.03462
9.03441
9.03418
9.03393
9.03365
9.03333
9.03299
9.03261
9.0322
9.03175
9.03127
9.03075
9.03023
9.02972
9.02932
9.58941
9.58983
9.59037
9.59093
9.59147
9.59198
9.59246
9.59289
9.59329
9.59366
9.59399
9.59429
9.59456
9.5948
9.59501
9.59521
9.59538
9.59553
9.59566
9.59578
9.59588
9.59597
9.59605
9.59611
9.59616
9.59621
9.59624
9.59626
9.59628
9.59629
9.59629
9.59628
9.59626
9.59624
9.59621
9.59616
9.59611
9.59605
9.59597
9.59588
9.59578
9.59566
9.59553
9.59538
9.59521
9.59501
9.5948
9.59456
9.59429
9.59399
9.59366
9.59329
9.59289
9.59246
9.59198
9.59147
9.59093
9.59037
9.58983
9.58941
10.1572
10.1577
10.1582
10.1588
10.1594
10.1599
10.1604
10.1609
10.1613
10.1617
10.1621
10.1624
10.1627
10.1629
10.1631
10.1633
10.1635
10.1637
10.1638
10.1639
10.1641
10.1641
10.1642
10.1643
10.1643
10.1644
10.1644
10.1645
10.1645
10.1645
10.1645
10.1645
10.1645
10.1644
10.1644
10.1643
10.1643
10.1642
10.1641
10.1641
10.1639
10.1638
10.1637
10.1635
10.1633
10.1631
10.1629
10.1627
10.1624
10.1621
10.1617
10.1613
10.1609
10.1604
10.1599
10.1594
10.1588
10.1582
10.1577
10.1572
10.7323
10.7328
10.7334
10.734
10.7346
10.7352
10.7357
10.7362
10.7366
10.737
10.7374
10.7377
10.738
10.7383
10.7385
10.7387
10.7389
10.7391
10.7392
10.7394
10.7395
10.7396
10.7397
10.7397
10.7398
10.7398
10.7399
10.7399
10.7399
10.7399
10.7399
10.7399
10.7399
10.7399
10.7398
10.7398
10.7397
10.7397
10.7396
10.7395
10.7394
10.7392
10.7391
10.7389
10.7387
10.7385
10.7383
10.738
10.7377
10.7374
10.737
10.7366
10.7362
10.7357
10.7352
10.7346
10.734
10.7334
10.7328
10.7323
11.3141
11.3146
11.3152
11.3159
11.3165
11.3171
11.3176
11.3181
11.3186
11.319
11.3194
11.3198
11.3201
11.3203
11.3206
11.3208
11.321
11.3212
11.3213
11.3215
11.3216
11.3217
11.3218
11.3219
11.3219
11.322
11.322
11.322
11.3221
11.3221
11.3221
11.3221
11.322
11.322
11.322
11.3219
11.3219
11.3218
11.3217
11.3216
11.3215
11.3213
11.3212
11.321
11.3208
11.3206
11.3203
11.3201
11.3198
11.3194
11.319
11.3186
11.3181
11.3176
11.3171
11.3165
11.3159
11.3152
11.3146
11.3141
11.902
11.9025
11.9031
11.9038
11.9045
11.9051
11.9057
11.9062
11.9067
11.9071
11.9075
11.9079
11.9082
11.9085
11.9087
11.909
11.9092
11.9094
11.9095
11.9097
11.9098
11.9099
11.91
11.9101
11.9101
11.9102
11.9102
11.9103
11.9103
11.9103
11.9103
11.9103
11.9103
11.9102
11.9102
11.9101
11.9101
11.91
11.9099
11.9098
11.9097
11.9095
11.9094
11.9092
11.909
11.9087
11.9085
11.9082
11.9079
11.9075
11.9071
11.9067
11.9062
11.9057
11.9051
11.9045
11.9038
11.9031
11.9025
11.902
12.4952
12.4957
12.4964
12.4971
12.4978
12.4984
12.499
12.4996
12.5001
12.5005
12.5009
12.5013
12.5016
12.5019
12.5022
12.5025
12.5027
12.5029
12.503
12.5032
12.5033
12.5034
12.5035
12.5036
12.5037
12.5037
12.5037
12.5038
12.5038
12.5038
12.5038
12.5038
12.5038
12.5037
12.5037
12.5037
12.5036
12.5035
12.5034
12.5033
12.5032
12.503
12.5029
12.5027
12.5025
12.5022
12.5019
12.5016
12.5013
12.5009
12.5005
12.5001
12.4996
12.499
12.4984
12.4978
12.4971
12.4964
12.4957
12.4952
13.0929
13.0934
13.0941
13.0949
13.0956
13.0962
13.0968
13.0974
13.0979
13.0984
13.0988
13.0992
13.0996
13.0999
13.1002
13.1004
13.1006
13.1008
13.101
13.1012
13.1013
13.1014
13.1015
13.1016
13.1016
13.1017
13.1017
13.1018
13.1018
13.1018
13.1018
13.1018
13.1018
13.1017
13.1017
13.1016
13.1016
13.1015
13.1014
13.1013
13.1012
13.101
13.1008
13.1006
13.1004
13.1002
13.0999
13.0996
13.0992
13.0988
13.0984
13.0979
13.0974
13.0968
13.0962
13.0956
13.0949
13.0941
13.0934
13.0929
13.6941
13.6947
13.6954
13.6961
13.6969
13.6975
13.6982
13.6988
13.6993
13.6998
13.7002
13.7006
13.701
13.7013
13.7016
13.7018
13.7021
13.7023
13.7025
13.7026
13.7027
13.7029
13.703
13.7031
13.7031
13.7032
13.7032
13.7033
13.7033
13.7033
13.7033
13.7033
13.7033
13.7032
13.7032
13.7031
13.7031
13.703
13.7029
13.7027
13.7026
13.7025
13.7023
13.7021
13.7018
13.7016
13.7013
13.701
13.7006
13.7002
13.6998
13.6993
13.6988
13.6982
13.6975
13.6969
13.6961
13.6954
13.6947
13.6941
14.2977
14.2982
14.299
14.2998
14.3005
14.3012
14.3019
14.3025
14.303
14.3035
14.304
14.3044
14.3047
14.3051
14.3054
14.3056
14.3059
14.3061
14.3063
14.3064
14.3066
14.3067
14.3068
14.3069
14.3069
14.307
14.3071
14.3071
14.3071
14.3071
14.3071
14.3071
14.3071
14.3071
14.307
14.3069
14.3069
14.3068
14.3067
14.3066
14.3064
14.3063
14.3061
14.3059
14.3056
14.3054
14.3051
14.3047
14.3044
14.304
14.3035
14.303
14.3025
14.3019
14.3012
14.3005
14.2998
14.299
14.2982
14.2977
14.9023
14.9029
14.9037
14.9045
14.9052
14.9059
14.9066
14.9072
14.9078
14.9083
14.9088
14.9092
14.9096
14.9099
14.9102
14.9105
14.9107
14.9109
14.9111
14.9113
14.9114
14.9115
14.9117
14.9117
14.9118
14.9119
14.9119
14.912
14.912
14.912
14.912
14.912
14.912
14.9119
14.9119
14.9118
14.9117
14.9117
14.9115
14.9114
14.9113
14.9111
14.9109
14.9107
14.9105
14.9102
14.9099
14.9096
14.9092
14.9088
14.9083
14.9078
14.9072
14.9066
14.9059
14.9052
14.9045
14.9037
14.9029
14.9023
15.5065
15.5071
15.5079
15.5087
15.5095
15.5102
15.5109
15.5115
15.5121
15.5126
15.5131
15.5135
15.5139
15.5143
15.5146
15.5149
15.5151
15.5153
15.5155
15.5157
15.5158
15.516
15.5161
15.5162
15.5162
15.5163
15.5163
15.5164
15.5164
15.5164
15.5164
15.5164
15.5164
15.5163
15.5163
15.5162
15.5162
15.5161
15.516
15.5158
15.5157
15.5155
15.5153
15.5151
15.5149
15.5146
15.5143
15.5139
15.5135
15.5131
15.5126
15.5121
15.5115
15.5109
15.5102
15.5095
15.5087
15.5079
15.5071
15.5065
16.1086
16.1092
16.11
16.1108
16.1116
16.1124
16.1131
16.1137
16.1143
16.1148
16.1153
16.1157
16.1161
16.1165
16.1168
16.1171
16.1173
16.1175
16.1177
16.1179
16.118
16.1182
16.1183
16.1184
16.1184
16.1185
16.1186
16.1186
16.1186
16.1186
16.1186
16.1186
16.1186
16.1186
16.1185
16.1184
16.1184
16.1183
16.1182
16.118
16.1179
16.1177
16.1175
16.1173
16.1171
16.1168
16.1165
16.1161
16.1157
16.1153
16.1148
16.1143
16.1137
16.1131
16.1124
16.1116
16.1108
16.11
16.1092
16.1086
16.7065
16.7072
16.708
16.7088
16.7096
16.7103
16.711
16.7117
16.7123
16.7128
16.7133
16.7137
16.7141
16.7145
16.7148
16.7151
16.7153
16.7156
16.7157
16.7159
16.7161
16.7162
16.7163
16.7164
16.7165
16.7165
16.7166
16.7166
16.7167
16.7167
16.7167
16.7167
16.7166
16.7166
16.7165
16.7165
16.7164
16.7163
16.7162
16.7161
16.7159
16.7157
16.7156
16.7153
16.7151
16.7148
16.7145
16.7141
16.7137
16.7133
16.7128
16.7123
16.7117
16.711
16.7103
16.7096
16.7088
16.708
16.7072
16.7065
17.298
17.2986
17.2995
17.3003
17.3011
17.3018
17.3025
17.3032
17.3038
17.3043
17.3048
17.3052
17.3056
17.306
17.3063
17.3066
17.3068
17.3071
17.3073
17.3074
17.3076
17.3077
17.3078
17.3079
17.308
17.3081
17.3081
17.3081
17.3082
17.3082
17.3082
17.3082
17.3081
17.3081
17.3081
17.308
17.3079
17.3078
17.3077
17.3076
17.3074
17.3073
17.3071
17.3068
17.3066
17.3063
17.306
17.3056
17.3052
17.3048
17.3043
17.3038
17.3032
17.3025
17.3018
17.3011
17.3003
17.2995
17.2986
17.298
17.8803
17.881
17.8818
17.8826
17.8834
17.8842
17.8848
17.8855
17.8861
17.8866
17.8871
17.8875
17.8879
17.8883
17.8886
17.8889
17.8891
17.8894
17.8895
17.8897
17.8899
17.89
17.8901
17.8902
17.8903
17.8903
17.8904
17.8904
17.8905
17.8905
17.8905
17.8905
17.8904
17.8904
17.8903
17.8903
17.8902
17.8901
17.89
17.8899
17.8897
17.8895
17.8894
17.8891
17.8889
17.8886
17.8883
17.8879
17.8875
17.8871
17.8866
17.8861
17.8855
17.8848
17.8842
17.8834
17.8826
17.8818
17.881
17.8803
18.4503
18.451
18.4518
18.4526
18.4534
18.4541
18.4548
18.4554
18.456
18.4565
18.457
18.4575
18.4578
18.4582
18.4585
18.4588
18.459
18.4593
18.4595
18.4596
18.4598
18.4599
18.46
18.4601
18.4602
18.4602
18.4603
18.4603
18.4603
18.4604
18.4604
18.4603
18.4603
18.4603
18.4602
18.4602
18.4601
18.46
18.4599
18.4598
18.4596
18.4595
18.4593
18.459
18.4588
18.4585
18.4582
18.4578
18.4575
18.457
18.4565
18.456
18.4554
18.4548
18.4541
18.4534
18.4526
18.4518
18.451
18.4503
19.0043
19.0049
19.0057
19.0065
19.0073
19.008
19.0087
19.0093
19.0099
19.0104
19.0109
19.0113
19.0117
19.012
19.0123
19.0126
19.0128
19.013
19.0132
19.0134
19.0135
19.0137
19.0138
19.0139
19.0139
19.014
19.014
19.0141
19.0141
19.0141
19.0141
19.0141
19.0141
19.014
19.014
19.0139
19.0139
19.0138
19.0137
19.0135
19.0134
19.0132
19.013
19.0128
19.0126
19.0123
19.012
19.0117
19.0113
19.0109
19.0104
19.0099
19.0093
19.0087
19.008
19.0073
19.0065
19.0057
19.0049
19.0043
19.5378
19.5384
19.5392
19.5399
19.5407
19.5414
19.5421
19.5427
19.5432
19.5437
19.5442
19.5446
19.5449
19.5453
19.5456
19.5458
19.5461
19.5463
19.5464
19.5466
19.5467
19.5469
19.547
19.5471
19.5471
19.5472
19.5472
19.5473
19.5473
19.5473
19.5473
19.5473
19.5473
19.5472
19.5472
19.5471
19.5471
19.547
19.5469
19.5467
19.5466
19.5464
19.5463
19.5461
19.5458
19.5456
19.5453
19.5449
19.5446
19.5442
19.5437
19.5432
19.5427
19.5421
19.5414
19.5407
19.5399
19.5392
19.5384
19.5378
20.0456
20.0462
20.0469
20.0477
20.0484
20.0491
20.0497
20.0502
20.0508
20.0512
20.0517
20.0521
20.0524
20.0527
20.053
20.0533
20.0535
20.0537
20.0539
20.054
20.0541
20.0542
20.0543
20.0544
20.0545
20.0546
20.0546
20.0546
20.0546
20.0547
20.0547
20.0546
20.0546
20.0546
20.0546
20.0545
20.0544
20.0543
20.0542
20.0541
20.054
20.0539
20.0537
20.0535
20.0533
20.053
20.0527
20.0524
20.0521
20.0517
20.0512
20.0508
20.0502
20.0497
20.0491
20.0484
20.0477
20.0469
20.0462
20.0456
20.5216
20.5222
20.5229
20.5236
20.5242
20.5248
20.5254
20.5259
20.5264
20.5269
20.5273
20.5276
20.528
20.5283
20.5285
20.5287
20.529
20.5291
20.5293
20.5294
20.5296
20.5297
20.5298
20.5298
20.5299
20.5299
20.53
20.53
20.53
20.53
20.53
20.53
20.53
20.53
20.5299
20.5299
20.5298
20.5298
20.5297
20.5296
20.5294
20.5293
20.5291
20.529
20.5287
20.5285
20.5283
20.528
20.5276
20.5273
20.5269
20.5264
20.5259
20.5254
20.5248
20.5242
20.5236
20.5229
20.5222
20.5216
20.9589
20.9594
20.9601
20.9607
20.9613
20.9618
20.9624
20.9628
20.9633
20.9637
20.964
20.9644
20.9647
20.9649
20.9652
20.9654
20.9656
20.9657
20.9659
20.966
20.9661
20.9662
20.9663
20.9664
20.9664
20.9665
20.9665
20.9665
20.9665
20.9665
20.9665
20.9665
20.9665
20.9665
20.9665
20.9664
20.9664
20.9663
20.9662
20.9661
20.966
20.9659
20.9657
20.9656
20.9654
20.9652
20.9649
20.9647
20.9644
20.964
20.9637
20.9633
20.9628
20.9624
20.9618
20.9613
20.9607
20.9601
20.9594
20.9589
21.3505
21.3509
21.3515
21.352
21.3525
21.353
21.3535
21.3539
21.3543
21.3546
21.3549
21.3552
21.3555
21.3557
21.3559
21.3561
21.3563
21.3564
21.3565
21.3566
21.3567
21.3568
21.3569
21.3569
21.357
21.357
21.3571
21.3571
21.3571
21.3571
21.3571
21.3571
21.3571
21.3571
21.357
21.357
21.3569
21.3569
21.3568
21.3567
21.3566
21.3565
21.3564
21.3563
21.3561
21.3559
21.3557
21.3555
21.3552
21.3549
21.3546
21.3543
21.3539
21.3535
21.353
21.3525
21.352
21.3515
21.3509
21.3505
21.6904
21.6908
21.6912
21.6917
21.6921
21.6925
21.6929
21.6932
21.6935
21.6938
21.6941
21.6943
21.6945
21.6947
21.6949
21.6951
21.6952
21.6953
21.6954
21.6955
21.6956
21.6957
21.6957
21.6958
21.6958
21.6958
21.6959
21.6959
21.6959
21.6959
21.6959
21.6959
21.6959
21.6959
21.6958
21.6958
21.6958
21.6957
21.6957
21.6956
21.6955
21.6954
21.6953
21.6952
21.6951
21.6949
21.6947
21.6945
21.6943
21.6941
21.6938
21.6935
21.6932
21.6929
21.6925
21.6921
21.6917
21.6912
21.6908
21.6904
21.9758
21.9761
21.9764
21.9768
21.9771
21.9775
21.9778
21.978
21.9783
21.9785
21.9787
21.9789
21.9791
21.9792
21.9794
21.9795
21.9796
21.9797
21.9798
21.9798
21.9799
21.98
21.98
21.98
21.9801
21.9801
21.9801
21.9801
21.9801
21.9802
21.9802
21.9801
21.9801
21.9801
21.9801
21.9801
21.98
21.98
21.98
21.9799
21.9798
21.9798
21.9797
21.9796
21.9795
21.9794
21.9792
21.9791
21.9789
21.9787
21.9785
21.9783
21.978
21.9778
21.9775
21.9771
21.9768
21.9764
21.9761
21.9758
22.2084
22.2086
22.2089
22.2092
22.2094
22.2097
22.2099
22.2101
22.2103
22.2105
22.2106
22.2108
22.2109
22.211
22.2111
22.2112
22.2113
22.2113
22.2114
22.2114
22.2115
22.2115
22.2116
22.2116
22.2116
22.2116
22.2117
22.2117
22.2117
22.2117
22.2117
22.2117
22.2117
22.2117
22.2116
22.2116
22.2116
22.2116
22.2115
22.2115
22.2114
22.2114
22.2113
22.2113
22.2112
22.2111
22.211
22.2109
22.2108
22.2106
22.2105
22.2103
22.2101
22.2099
22.2097
22.2094
22.2092
22.2089
22.2086
22.2084
22.3945
22.3946
22.3948
22.395
22.3952
22.3954
22.3955
22.3957
22.3958
22.3959
22.3961
22.3962
22.3962
22.3963
22.3964
22.3965
22.3965
22.3966
22.3966
22.3966
22.3967
22.3967
22.3967
22.3967
22.3968
22.3968
22.3968
22.3968
22.3968
22.3968
22.3968
22.3968
22.3968
22.3968
22.3968
22.3968
22.3967
22.3967
22.3967
22.3967
22.3966
22.3966
22.3966
22.3965
22.3965
22.3964
22.3963
22.3962
22.3962
22.3961
22.3959
22.3958
22.3957
22.3955
22.3954
22.3952
22.395
22.3948
22.3946
22.3945
22.543
22.5431
22.5432
22.5433
22.5435
22.5436
22.5437
22.5438
22.5439
22.544
22.5441
22.5441
22.5442
22.5443
22.5443
22.5443
22.5444
22.5444
22.5444
22.5445
22.5445
22.5445
22.5445
22.5445
22.5446
22.5446
22.5446
22.5446
22.5446
22.5446
22.5446
22.5446
22.5446
22.5446
22.5446
22.5446
22.5445
22.5445
22.5445
22.5445
22.5445
22.5444
22.5444
22.5444
22.5443
22.5443
22.5443
22.5442
22.5441
22.5441
22.544
22.5439
22.5438
22.5437
22.5436
22.5435
22.5433
22.5432
22.5431
22.543
22.6633
22.6633
22.6634
22.6635
22.6636
22.6637
22.6638
22.6638
22.6639
22.664
22.664
22.6641
22.6641
22.6641
22.6642
22.6642
22.6642
22.6642
22.6643
22.6643
22.6643
22.6643
22.6643
22.6643
22.6643
22.6643
22.6643
22.6643
22.6643
22.6643
22.6643
22.6643
22.6643
22.6643
22.6643
22.6643
22.6643
22.6643
22.6643
22.6643
22.6643
22.6643
22.6642
22.6642
22.6642
22.6642
22.6641
22.6641
22.6641
22.664
22.664
22.6639
22.6638
22.6638
22.6637
22.6636
22.6635
22.6634
22.6633
22.6633
22.7632
22.7633
22.7633
22.7634
22.7635
22.7635
22.7636
22.7636
22.7637
22.7637
22.7637
22.7638
22.7638
22.7638
22.7638
22.7639
22.7639
22.7639
22.7639
22.7639
22.7639
22.7639
22.7639
22.7639
22.7639
22.7639
22.7639
22.7639
22.7639
22.7639
22.7639
22.7639
22.7639
22.7639
22.7639
22.7639
22.7639
22.7639
22.7639
22.7639
22.7639
22.7639
22.7639
22.7639
22.7639
22.7638
22.7638
22.7638
22.7638
22.7637
22.7637
22.7637
22.7636
22.7636
22.7635
22.7635
22.7634
22.7633
22.7633
22.7632
22.8488
22.8488
22.8488
22.8489
22.8489
22.849
22.849
22.849
22.8491
22.8491
22.8491
22.8491
22.8491
22.8491
22.8492
22.8492
22.8492
22.8492
22.8492
22.8492
22.8492
22.8492
22.8492
22.8492
22.8492
22.8492
22.8492
22.8492
22.8492
22.8492
22.8492
22.8492
22.8492
22.8492
22.8492
22.8492
22.8492
22.8492
22.8492
22.8492
22.8492
22.8492
22.8492
22.8492
22.8492
22.8492
22.8491
22.8491
22.8491
22.8491
22.8491
22.8491
22.849
22.849
22.849
22.8489
22.8489
22.8488
22.8488
22.8488
22.9239
22.9239
22.9239
22.9239
22.924
22.924
22.924
22.924
22.924
22.9241
22.9241
22.9241
22.9241
22.9241
22.9241
22.9241
22.9241
22.9241
22.9241
22.9241
22.9241
22.9241
22.9241
22.9241
22.9241
22.9241
22.9241
22.9241
22.9241
22.9241
22.9241
22.9241
22.9241
22.9241
22.9241
22.9241
22.9241
22.9241
22.9241
22.9241
22.9241
22.9241
22.9241
22.9241
22.9241
22.9241
22.9241
22.9241
22.9241
22.9241
22.9241
22.924
22.924
22.924
22.924
22.924
22.9239
22.9239
22.9239
22.9239
22.9912
22.9912
22.9912
22.9912
22.9912
22.9912
22.9913
22.9913
22.9913
22.9913
22.9913
22.9913
22.9913
22.9913
22.9913
22.9913
22.9913
22.9913
22.9913
22.9913
22.9913
22.9913
22.9913
22.9913
22.9913
22.9913
22.9913
22.9913
22.9913
22.9913
22.9913
22.9913
22.9913
22.9913
22.9913
22.9913
22.9913
22.9913
22.9913
22.9913
22.9913
22.9913
22.9913
22.9913
22.9913
22.9913
22.9913
22.9913
22.9913
22.9913
22.9913
22.9913
22.9913
22.9913
22.9912
22.9912
22.9912
22.9912
22.9912
22.9912
23.0525
23.0525
23.0525
23.0525
23.0525
23.0525
23.0525
23.0525
23.0525
23.0525
23.0525
23.0525
23.0525
23.0525
23.0525
23.0525
23.0525
23.0525
23.0525
23.0525
23.0525
23.0525
23.0525
23.0525
23.0525
23.0525
23.0525
23.0525
23.0525
23.0525
23.0525
23.0525
23.0525
23.0525
23.0525
23.0525
23.0525
23.0525
23.0525
23.0525
23.0525
23.0525
23.0525
23.0525
23.0525
23.0525
23.0525
23.0525
23.0525
23.0525
23.0525
23.0525
23.0525
23.0525
23.0525
23.0525
23.0525
23.0525
23.0525
23.0525
23.109
23.109
23.109
23.109
23.109
23.109
23.109
23.109
23.109
23.109
23.109
23.109
23.109
23.109
23.109
23.109
23.109
23.109
23.109
23.109
23.1089
23.1089
23.1089
23.1089
23.1089
23.1089
23.1089
23.1089
23.1089
23.1089
23.1089
23.1089
23.1089
23.1089
23.1089
23.1089
23.1089
23.1089
23.1089
23.1089
23.109
23.109
23.109
23.109
23.109
23.109
23.109
23.109
23.109
23.109
23.109
23.109
23.109
23.109
23.109
23.109
23.109
23.109
23.109
23.109
23.1616
23.1616
23.1616
23.1616
23.1616
23.1616
23.1616
23.1616
23.1616
23.1616
23.1616
23.1615
23.1615
23.1615
23.1615
23.1615
23.1615
23.1615
23.1615
23.1615
23.1615
23.1615
23.1615
23.1615
23.1615
23.1615
23.1615
23.1615
23.1615
23.1615
23.1615
23.1615
23.1615
23.1615
23.1615
23.1615
23.1615
23.1615
23.1615
23.1615
23.1615
23.1615
23.1615
23.1615
23.1615
23.1615
23.1615
23.1615
23.1615
23.1616
23.1616
23.1616
23.1616
23.1616
23.1616
23.1616
23.1616
23.1616
23.1616
23.1616
23.211
23.211
23.2109
23.2109
23.2109
23.2109
23.2109
23.2109
23.2109
23.2109
23.2109
23.2109
23.2109
23.2108
23.2108
23.2108
23.2108
23.2108
23.2108
23.2108
23.2108
23.2108
23.2108
23.2108
23.2108
23.2108
23.2108
23.2108
23.2108
23.2108
23.2108
23.2108
23.2108
23.2108
23.2108
23.2108
23.2108
23.2108
23.2108
23.2108
23.2108
23.2108
23.2108
23.2108
23.2108
23.2108
23.2108
23.2109
23.2109
23.2109
23.2109
23.2109
23.2109
23.2109
23.2109
23.2109
23.2109
23.2109
23.211
23.211
23.2576
23.2576
23.2575
23.2575
23.2575
23.2575
23.2575
23.2575
23.2575
23.2575
23.2574
23.2574
23.2574
23.2574
23.2574
23.2574
23.2574
23.2574
23.2574
23.2574
23.2574
23.2573
23.2573
23.2573
23.2573
23.2573
23.2573
23.2573
23.2573
23.2573
23.2573
23.2573
23.2573
23.2573
23.2573
23.2573
23.2573
23.2573
23.2573
23.2574
23.2574
23.2574
23.2574
23.2574
23.2574
23.2574
23.2574
23.2574
23.2574
23.2574
23.2575
23.2575
23.2575
23.2575
23.2575
23.2575
23.2575
23.2575
23.2576
23.2576
23.3018
23.3018
23.3018
23.3018
23.3018
23.3017
23.3017
23.3017
23.3017
23.3017
23.3017
23.3017
23.3016
23.3016
23.3016
23.3016
23.3016
23.3016
23.3016
23.3016
23.3016
23.3016
23.3016
23.3015
23.3015
23.3015
23.3015
23.3015
23.3015
23.3015
23.3015
23.3015
23.3015
23.3015
23.3015
23.3015
23.3015
23.3016
23.3016
23.3016
23.3016
23.3016
23.3016
23.3016
23.3016
23.3016
23.3016
23.3016
23.3017
23.3017
23.3017
23.3017
23.3017
23.3017
23.3017
23.3018
23.3018
23.3018
23.3018
23.3018
23.344
23.344
23.344
23.344
23.344
23.3439
23.3439
23.3439
23.3439
23.3439
23.3439
23.3438
23.3438
23.3438
23.3438
23.3438
23.3438
23.3438
23.3438
23.3438
23.3437
23.3437
23.3437
23.3437
23.3437
23.3437
23.3437
23.3437
23.3437
23.3437
23.3437
23.3437
23.3437
23.3437
23.3437
23.3437
23.3437
23.3437
23.3437
23.3437
23.3438
23.3438
23.3438
23.3438
23.3438
23.3438
23.3438
23.3438
23.3438
23.3439
23.3439
23.3439
23.3439
23.3439
23.3439
23.344
23.344
23.344
23.344
23.344
23.3845
23.3844
23.3844
23.3844
23.3844
23.3844
23.3844
23.3843
23.3843
23.3843
23.3843
23.3843
23.3843
23.3842
23.3842
23.3842
23.3842
23.3842
23.3842
23.3842
23.3842
23.3842
23.3842
23.3841
23.3841
23.3841
23.3841
23.3841
23.3841
23.3841
23.3841
23.3841
23.3841
23.3841
23.3841
23.3841
23.3841
23.3842
23.3842
23.3842
23.3842
23.3842
23.3842
23.3842
23.3842
23.3842
23.3842
23.3843
23.3843
23.3843
23.3843
23.3843
23.3843
23.3844
23.3844
23.3844
23.3844
23.3844
23.3844
23.3845
23.4233
23.4233
23.4233
23.4233
23.4233
23.4233
23.4232
23.4232
23.4232
23.4232
23.4232
23.4231
23.4231
23.4231
23.4231
23.4231
23.4231
23.4231
23.423
23.423
23.423
23.423
23.423
23.423
23.423
23.423
23.423
23.423
23.423
23.423
23.423
23.423
23.423
23.423
23.423
23.423
23.423
23.423
23.423
23.423
23.423
23.423
23.4231
23.4231
23.4231
23.4231
23.4231
23.4231
23.4231
23.4232
23.4232
23.4232
23.4232
23.4232
23.4233
23.4233
23.4233
23.4233
23.4233
23.4233
23.4609
23.4608
23.4608
23.4608
23.4608
23.4608
23.4607
23.4607
23.4607
23.4607
23.4607
23.4606
23.4606
23.4606
23.4606
23.4606
23.4606
23.4606
23.4605
23.4605
23.4605
23.4605
23.4605
23.4605
23.4605
23.4605
23.4605
23.4605
23.4605
23.4605
23.4605
23.4605
23.4605
23.4605
23.4605
23.4605
23.4605
23.4605
23.4605
23.4605
23.4605
23.4605
23.4606
23.4606
23.4606
23.4606
23.4606
23.4606
23.4606
23.4607
23.4607
23.4607
23.4607
23.4607
23.4608
23.4608
23.4608
23.4608
23.4608
23.4609
23.4971
23.4971
23.4971
23.4971
23.4971
23.497
23.497
23.497
23.497
23.497
23.4969
23.4969
23.4969