/*--------------------------------*- C++ -*----------------------------------*\
| =========                 |                                                 |
| \\      /  F ield         | foam-extend: Open Source CFD                    |
|  \\    /   O peration     | Version:     4.0                                |
|   \\  /    A nd           | Web:         http://www.foam-extend.org         |
|    \\/     M anipulation  |                                                 |
\*---------------------------------------------------------------------------*/
FoamFile
{
    version     2.0;
    format      ascii;
    class       surfaceScalarField;
    location    "5";
    object      phi;
}
// * * * * * * * * * * * * * * * * * * * * * * * * * * * * * * * * * * * * * //

dimensions      [0 3 -1 0 0 0 0];

internalField   nonuniform List<scalar> 
13744
(
-4.0696e-41
-3.27966e-38
-1.14642e-41
-1.32756e-39
7.4502e-43
-1.23178e-39
4.98383e-43
-1.15507e-39
2.41082e-43
-1.1109e-39
3.31824e-43
-1.05419e-39
2.2222e-43
-9.98166e-40
-3.63129e-43
-9.5756e-40
-6.39037e-43
-9.42194e-40
-6.94009e-44
-9.51768e-40
6.85433e-43
-9.83889e-40
7.44887e-43
-1.02068e-39
6.54018e-44
-1.04469e-39
-4.02871e-43
-1.05804e-39
-1.45519e-43
-1.06844e-39
-2.88972e-43
-1.07421e-39
-1.30951e-42
-1.06831e-39
-1.79276e-42
-1.0543e-39
-1.03083e-42
-1.04683e-39
1.94859e-44
-1.05107e-39
4.99946e-43
-1.06366e-39
6.97683e-43
-1.08475e-39
1.02647e-42
-1.11095e-39
1.02912e-42
-1.12465e-39
2.21641e-43
-1.10694e-39
-8.39481e-43
-1.06547e-39
-7.97285e-43
-1.03193e-39
5.37093e-43
-1.03356e-39
1.27492e-42
-1.06477e-39
4.40046e-44
-1.08769e-39
-1.54683e-42
-1.06522e-39
-1.06504e-42
-1.00588e-39
4.49056e-43
-9.66394e-40
5.41416e-43
-9.75244e-40
6.67088e-44
-1.00163e-39
3.40978e-43
-1.02677e-39
3.00715e-43
-1.05715e-39
-3.24914e-43
-1.07902e-39
-3.4683e-43
-1.08265e-39
4.25535e-43
-1.08513e-39
9.87497e-43
-1.09877e-39
6.11265e-43
-1.11722e-39
-3.1265e-43
-1.12626e-39
-5.10646e-43
-1.11798e-39
5.54993e-43
-1.10964e-39
1.26435e-42
-1.12286e-39
3.59214e-43
-1.13936e-39
-6.95309e-43
-1.1285e-39
-6.89082e-43
-1.0953e-39
-4.50304e-43
-1.05807e-39
-5.70098e-43
-1.02182e-39
-6.62456e-43
-9.91294e-40
-4.63754e-43
-9.77746e-40
-3.1705e-43
-9.94359e-40
-5.05041e-43
-1.03302e-39
-8.74374e-43
-1.08076e-39
-9.22695e-43
-1.12576e-39
1.14234e-43
-1.20077e-39
1.59932e-43
-1.28127e-39
-1.4185e-39
-6.96037e-41
-3.50558e-38
-2.63902e-41
-4.12409e-39
1.34454e-42
-3.86685e-39
1.1291e-42
-3.65965e-39
5.95971e-43
-3.56836e-39
1.03573e-42
-3.44454e-39
9.55371e-43
-3.31344e-39
-6.32781e-43
-3.2006e-39
-1.50871e-42
-3.13169e-39
-1.24732e-45
-3.12333e-39
2.12141e-42
-3.19416e-39
2.21653e-42
-3.30013e-39
2.38107e-43
-3.3799e-39
-1.21233e-42
-3.42731e-39
-8.31543e-43
-3.45836e-39
-1.35055e-42
-3.46814e-39
-3.81939e-42
-3.43969e-39
-4.76007e-42
-3.3873e-39
-2.60071e-42
-3.35755e-39
1.30701e-43
-3.3668e-39
1.4381e-42
-3.40474e-39
2.18871e-42
-3.47254e-39
3.24162e-42
-3.56235e-39
3.15826e-42
-3.62188e-39
7.35739e-43
-3.58804e-39
-2.11515e-42
-3.47576e-39
-1.673e-42
-3.3829e-39
2.03927e-42
-3.40276e-39
3.612e-42
-3.5175e-39
-1.94025e-43
-3.59774e-39
-4.40499e-42
-3.52407e-39
-2.80124e-42
-3.33051e-39
1.22266e-42
-3.19764e-39
1.32249e-42
-3.21141e-39
3.87847e-44
-3.27746e-39
7.53043e-43
-3.34303e-39
5.87195e-43
-3.42857e-39
-1.08648e-42
-3.48734e-39
-1.0608e-42
-3.48993e-39
1.02792e-42
-3.49294e-39
2.46627e-42
-3.53363e-39
1.4239e-42
-3.58911e-39
-9.70336e-43
-3.61551e-39
-1.26584e-42
-3.59211e-39
1.59172e-42
-3.57488e-39
3.00533e-42
-3.62405e-39
1.80297e-43
-3.67026e-39
-2.51122e-42
-3.61923e-39
-2.08249e-42
-3.50596e-39
-1.17381e-42
-3.40617e-39
-1.47758e-42
-3.33334e-39
-1.67476e-42
-3.28023e-39
-9.25363e-43
-3.25862e-39
-3.20863e-43
-3.30166e-39
-7.14563e-43
-3.39229e-39
-1.93905e-42
-3.50297e-39
-1.71937e-42
-3.6021e-39
2.29603e-43
-3.79358e-39
1.14837e-42
-4.01155e-39
-4.38686e-39
-9.25181e-41
-3.77415e-38
-3.73211e-41
-7.36024e-39
1.60861e-42
-6.98075e-39
1.57537e-42
-6.66673e-39
9.13699e-43
-6.55847e-39
1.81926e-42
-6.38367e-39
1.96338e-42
-6.17539e-39
-4.85128e-43
-5.96721e-39
-2.00282e-42
-5.81044e-39
2.39442e-43
-5.75439e-39
3.53966e-42
-5.85129e-39
3.56551e-42
-6.0306e-39
3.07019e-43
-6.17861e-39
-2.14793e-42
-6.27283e-39
-1.8297e-42
-6.33255e-39
-2.70741e-42
-6.34725e-39
-6.21683e-42
-6.28975e-39
-7.29079e-42
-6.1875e-39
-3.84552e-42
-6.1236e-39
2.42202e-43
-6.12953e-39
2.23082e-42
-6.19067e-39
3.61409e-42
-6.31083e-39
5.48439e-42
-6.47722e-39
5.35169e-42
-6.59984e-39
1.39319e-42
-6.56653e-39
-3.05516e-42
-6.39612e-39
-2.12934e-42
-6.25391e-39
3.69546e-42
-6.30347e-39
5.76191e-42
-6.51481e-39
-5.24597e-43
-6.66166e-39
-6.89696e-42
-6.53808e-39
-4.10219e-42
-6.20482e-39
1.99052e-42
-5.97028e-39
1.85322e-42
-5.97834e-39
-2.16306e-43
-6.06894e-39
8.97543e-43
-6.15755e-39
6.35608e-43
-6.28276e-39
-1.92802e-42
-6.36536e-39
-1.81425e-42
-6.35764e-39
1.42504e-42
-6.35856e-39
3.59209e-42
-6.42929e-39
1.96483e-42
-6.52679e-39
-1.6525e-42
-6.57535e-39
-1.9084e-42
-6.541e-39
2.4958e-42
-6.51937e-39
4.24743e-42
-6.60834e-39
-4.52662e-43
-6.68144e-39
-4.44807e-42
-6.57711e-39
-3.39158e-42
-6.36693e-39
-1.77845e-42
-6.19593e-39
-2.2703e-42
-6.09506e-39
-2.51104e-42
-6.04603e-39
-1.1064e-42
-6.0512e-39
5.28848e-44
-6.14877e-39
-4.86795e-43
-6.30058e-39
-2.59898e-42
-6.46334e-39
-2.07989e-42
-6.58952e-39
1.97752e-43
-6.8665e-39
2.156e-42
-7.18602e-39
-7.76423e-39
-1.11698e-40
-4.05979e-38
-4.55309e-41
-1.08321e-38
1.76059e-42
-1.03974e-38
1.91318e-42
-1.00218e-38
1.25134e-42
-9.93589e-39
2.71423e-42
-9.73788e-39
3.22212e-42
-9.46612e-39
3.98729e-44
-9.15532e-39
-2.14936e-42
-8.88667e-39
6.13254e-43
-8.7541e-39
4.84884e-42
-8.85485e-39
4.68471e-42
-9.09831e-39
1.72317e-43
-9.31843e-39
-3.25039e-42
-9.4705e-39
-3.02435e-42
-9.56971e-39
-4.16472e-42
-9.59495e-39
-8.42646e-42
-9.50627e-39
-9.45568e-42
-9.34404e-39
-4.86084e-42
-9.23132e-39
3.09013e-43
-9.22074e-39
2.82767e-42
-9.29863e-39
4.8517e-42
-9.47266e-39
7.60444e-42
-9.72383e-39
7.51688e-42
-9.92462e-39
2.17973e-42
-9.91378e-39
-3.71157e-42
-9.70935e-39
-2.34875e-42
-9.53616e-39
5.31245e-42
-9.6243e-39
7.70331e-42
-9.93516e-39
-8.2831e-43
-1.01529e-38
-8.96742e-42
-9.98976e-39
-4.98148e-42
-9.52968e-39
2.80963e-42
-9.19778e-39
2.20814e-42
-9.18887e-39
-6.6988e-43
-9.28084e-39
8.26401e-43
-9.36458e-39
5.29386e-43
-9.50208e-39
-2.79382e-42
-9.58704e-39
-2.58953e-42
-9.55727e-39
1.65681e-42
-9.55266e-39
4.45297e-42
-9.65438e-39
2.32143e-42
-9.79706e-39
-2.33881e-42
-9.87337e-39
-2.51591e-42
-9.83523e-39
3.23698e-42
-9.81316e-39
5.18367e-42
-9.93868e-39
-1.22349e-42
-1.00303e-38
-6.27234e-42
-9.86373e-39
-4.53045e-42
-9.54953e-39
-2.28526e-42
-9.30636e-39
-3.01438e-42
-9.19003e-39
-3.28368e-42
-9.17348e-39
-1.19189e-42
-9.2394e-39
5.57467e-43
-9.41337e-39
-1.02689e-43
-9.62524e-39
-3.04393e-42
-9.81833e-39
-2.32219e-42
-9.9349e-39
7.28124e-44
-1.02502e-38
2.93634e-42
-1.06119e-38
-1.13191e-38
-1.26882e-40
-4.35579e-38
-5.17746e-41
-1.44896e-38
1.79824e-42
-1.40638e-38
2.14258e-42
-1.36707e-38
1.60289e-42
-1.36462e-38
3.71878e-42
-1.34627e-38
4.71864e-42
-1.31642e-38
9.26636e-43
-1.27726e-38
-1.96118e-42
-1.23918e-38
1.09558e-42
-1.21639e-38
6.00471e-42
-1.22417e-38
5.52848e-42
-1.25281e-38
-1.96421e-43
-1.28141e-38
-4.51519e-42
-1.30315e-38
-4.35476e-42
-1.31835e-38
-5.63258e-42
-1.32297e-38
-1.03929e-41
-1.31108e-38
-1.12566e-41
-1.2878e-38
-5.66795e-42
-1.26993e-38
3.22997e-43
-1.2657e-38
3.21586e-42
-1.27444e-38
5.85378e-42
-1.2973e-38
9.52649e-42
-1.33153e-38
9.59143e-42
-1.36075e-38
3.06441e-42
-1.36408e-38
-4.1234e-42
-1.3427e-38
-2.41679e-42
-1.32396e-38
6.7929e-42
-1.33708e-38
9.39585e-42
-1.37794e-38
-1.08056e-42
-1.40709e-38
-1.05963e-41
-1.38815e-38
-5.45103e-42
-1.33131e-38
3.68437e-42
-1.28936e-38
2.4225e-42
-1.28595e-38
-1.28088e-42
-1.293e-38
5.79538e-43
-1.29801e-38
3.10663e-43
-1.3102e-38
-3.64592e-42
-1.3168e-38
-3.36225e-42
-1.31048e-38
1.74148e-42
-1.30912e-38
5.07688e-42
-1.32242e-38
2.52783e-42
-1.34148e-38
-3.01121e-42
-1.35252e-38
-3.09685e-42
-1.34909e-38
3.8193e-42
-1.34704e-38
5.88417e-42
-1.36252e-38
-2.01059e-42
-1.3725e-38
-7.87852e-42
-1.34907e-38
-5.45055e-42
-1.30739e-38
-2.69032e-42
-1.2766e-38
-3.72884e-42
-1.26478e-38
-4.04564e-42
-1.26816e-38
-1.2777e-42
-1.28216e-38
1.07162e-42
-1.30695e-38
3.2884e-43
-1.33205e-38
-3.36232e-42
-1.35131e-38
-2.4957e-42
-1.35841e-38
-1.43197e-43
-1.38957e-38
3.53751e-42
-1.42469e-38
-1.50051e-38
-1.38574e-40
-4.65328e-38
-5.6384e-41
-1.82247e-38
1.71413e-42
-1.7847e-38
2.25386e-42
-1.74643e-38
1.93118e-42
-1.75292e-38
4.78966e-42
-1.74015e-38
6.40753e-42
-1.71341e-38
2.13793e-42
-1.67177e-38
-1.45737e-42
-1.62604e-38
1.68008e-42
-1.59421e-38
6.9991e-42
-1.59759e-38
6.08538e-42
-1.62761e-38
-8.08503e-43
-1.66094e-38
-5.93496e-42
-1.68909e-38
-5.78176e-42
-1.71057e-38
-7.05987e-42
-1.71846e-38
-1.20928e-41
-1.70393e-38
-1.27036e-41
-1.67276e-38
-6.28175e-42
-1.64673e-38
2.82263e-43
-1.63797e-38
3.39522e-42
-1.64699e-38
6.60449e-42
-1.67517e-38
1.12173e-41
-1.71866e-38
1.1537e-41
-1.75772e-38
4.00943e-42
-1.76706e-38
-4.33885e-42
-1.74668e-38
-2.39229e-42
-1.72759e-38
8.0938e-42
-1.74467e-38
1.08304e-41
-1.79444e-38
-1.28232e-42
-1.8309e-38
-1.1819e-41
-1.81078e-38
-5.56169e-42
-1.74541e-38
4.60631e-42
-1.69632e-38
2.53527e-42
-1.69021e-38
-1.98903e-42
-1.6934e-38
2.25538e-43
-1.69273e-38
3.76888e-44
-1.70119e-38
-4.45359e-42
-1.70438e-38
-4.12182e-42
-1.69404e-38
1.69203e-42
-1.69158e-38
5.48962e-42
-1.70789e-38
2.60656e-42
-1.73176e-38
-3.67135e-42
-1.74661e-38
-3.66629e-42
-1.74423e-38
4.26023e-42
-1.7424e-38
6.42351e-42
-1.75997e-38
-2.71803e-42
-1.76995e-38
-9.19919e-42
-1.73997e-38
-6.12998e-42
-1.68926e-38
-3.00514e-42
-1.65329e-38
-4.44447e-42
-1.64185e-38
-4.84761e-42
-1.64966e-38
-1.42756e-42
-1.66906e-38
1.53432e-42
-1.69784e-38
7.63017e-43
-1.72281e-38
-3.59379e-42
-1.73859e-38
-2.6185e-42
-1.7386e-38
-4.26015e-43
-1.76717e-38
4.00672e-42
-1.79859e-38
-1.87367e-38
-1.47547e-40
-4.94504e-38
-5.96989e-41
-2.1918e-38
1.48315e-42
-2.15862e-38
2.2227e-42
-2.12105e-38
2.1901e-42
-2.13682e-38
5.86319e-42
-2.13247e-38
8.20507e-42
-2.11504e-38
3.59224e-42
-2.0787e-38
-6.87393e-43
-2.0322e-38
2.36246e-42
-1.99511e-38
7.86e-42
-1.99409e-38
6.38724e-42
-2.02304e-38
-1.6524e-42
-2.05855e-38
-7.50871e-42
-2.09173e-38
-7.28323e-42
-2.11942e-38
-8.41051e-42
-2.13127e-38
-1.3518e-41
-2.1146e-38
-1.38224e-41
-2.07525e-38
-6.72252e-42
-2.04016e-38
1.9514e-43
-2.02599e-38
3.3825e-42
-2.03474e-38
7.10344e-42
-2.06775e-38
1.26619e-41
-2.11987e-38
1.33362e-41
-2.1685e-38
4.99135e-42
-2.18452e-38
-4.39843e-42
-2.1662e-38
-2.32121e-42
-2.1469e-38
9.19564e-42
-2.16661e-38
1.20179e-41
-2.22357e-38
-1.44183e-42
-2.26682e-38
-1.26962e-41
-2.24687e-38
-5.38012e-42
-2.1756e-38
5.56541e-42
-2.12158e-38
2.58923e-42
-2.11341e-38
-2.73666e-42
-2.112e-38
-1.80247e-43
-2.10444e-38
-2.47476e-43
-2.10813e-38
-5.20088e-42
-2.10743e-38
-4.86674e-42
-2.09316e-38
1.52083e-42
-2.08974e-38
5.71443e-42
-2.10879e-38
2.57207e-42
-2.13696e-38
-4.32073e-42
-2.15551e-38
-4.22406e-42
-2.15451e-38
4.59196e-42
-2.15299e-38
6.86617e-42
-2.17229e-38
-3.29547e-42
-2.18234e-38
-1.02294e-41
-2.1471e-38
-6.58669e-42
-2.08918e-38
-3.24003e-42
-2.0488e-38
-5.16077e-42
-2.0362e-38
-5.68657e-42
-2.04459e-38
-1.63958e-42
-2.06412e-38
1.94252e-42
-2.09138e-38
1.19553e-42
-2.11176e-38
-3.75744e-42
-2.12183e-38
-2.70858e-42
-2.1146e-38
-7.60757e-43
-2.14153e-38
4.37394e-42
-2.17071e-38
-2.24373e-38
-1.54335e-40
-5.23119e-38
-6.19901e-41
-2.55077e-38
1.10732e-42
-2.51733e-38
2.03746e-42
-2.47617e-38
2.32601e-42
-2.49784e-38
6.85259e-42
-2.5016e-38
9.99583e-42
-2.49744e-38
5.17007e-42
-2.47365e-38
2.65391e-43
-2.43471e-38
3.12536e-42
-2.39903e-38
8.62723e-42
-2.39666e-38
6.48999e-42
-2.4242e-38
-2.6965e-42
-2.45969e-38
-9.22881e-42
-2.49545e-38
-8.84522e-42
-2.52768e-38
-9.66598e-42
-2.54305e-38
-1.46771e-41
-2.52473e-38
-1.46458e-41
-2.47765e-38
-7.00916e-42
-2.43356e-38
7.35091e-44
-2.41375e-38
3.19951e-42
-2.42177e-38
7.36192e-42
-2.45869e-38
1.38641e-41
-2.51803e-38
1.49904e-41
-2.57495e-38
5.99745e-42
-2.59722e-38
-4.33599e-42
-2.581e-38
-2.23444e-42
-2.56063e-38
1.01024e-41
-2.58078e-38
1.29821e-41
-2.64249e-38
-1.57443e-42
-2.69148e-38
-1.33031e-41
-2.67284e-38
-4.97854e-42
-2.59834e-38
6.55323e-42
-2.54204e-38
2.62429e-42
-2.53324e-38
-3.47292e-42
-2.5276e-38
-5.89992e-43
-2.51321e-38
-5.15785e-43
-2.51241e-38
-5.88715e-42
-2.50851e-38
-5.60394e-42
-2.49127e-38
1.23903e-42
-2.48745e-38
5.77555e-42
-2.50886e-38
2.43716e-42
-2.5403e-38
-4.96624e-42
-2.5617e-38
-4.77322e-42
-2.56195e-38
4.84431e-42
-2.56105e-38
7.25896e-42
-2.58267e-38
-3.72912e-42
-2.59424e-38
-1.09964e-41
-2.5559e-38
-6.8453e-42
-2.49219e-38
-3.38604e-42
-2.44624e-38
-5.83999e-42
-2.42806e-38
-6.51194e-42
-2.43043e-38
-1.86172e-42
-2.44334e-38
2.33694e-42
-2.46392e-38
1.64676e-42
-2.47725e-38
-3.87108e-42
-2.48234e-38
-2.80251e-42
-2.47125e-38
-1.16887e-42
-2.50139e-38
4.62838e-42
-2.53417e-38
-2.6101e-38
-1.59268e-40
-5.52448e-38
-6.34064e-41
-2.90622e-38
6.46306e-43
-2.86417e-38
1.73146e-42
-2.81133e-38
2.31319e-42
-2.83155e-38
7.68129e-42
-2.83865e-38
1.16575e-41
-2.84724e-38
6.72514e-42
-2.83969e-38
1.27722e-42
-2.81508e-38
3.91519e-42
-2.78823e-38
9.32334e-42
-2.79012e-38
6.45272e-42
-2.81869e-38
-3.89401e-42
-2.85358e-38
-1.10738e-41
-2.88926e-38
-1.04526e-41
-2.92301e-38
-1.08193e-41
-2.94036e-38
-1.55919e-41
-2.92066e-38
-1.52119e-41
-2.867e-38
-7.16e-42
-2.81486e-38
-6.9308e-44
-2.78975e-38
2.87121e-42
-2.79663e-38
7.40055e-42
-2.83615e-38
1.48431e-41
-2.90062e-38
1.65166e-41
-2.96374e-38
7.02742e-42
-2.99092e-38
-4.17393e-42
-2.97596e-38
-2.14724e-42
-2.95298e-38
1.08356e-41
-2.97078e-38
1.37568e-41
-3.03437e-38
-1.69642e-42
-3.08771e-38
-1.37178e-41
-3.07119e-38
-4.42835e-42
-2.99593e-38
7.56025e-42
-2.94006e-38
2.67066e-42
-2.9326e-38
-4.16168e-42
-2.92407e-38
-9.71097e-43
-2.90408e-38
-7.54305e-43
-2.90018e-38
-6.52602e-42
-2.89475e-38
-6.34794e-42
-2.87621e-38
8.56741e-43
-2.87289e-38
5.70027e-42
-2.89623e-38
2.21788e-42
-2.9295e-38
-5.61629e-42
-2.95236e-38
-5.32507e-42
-2.95336e-38
5.03039e-42
-2.95371e-38
7.62147e-42
-2.97929e-38
-4.03212e-42
-2.99479e-38
-1.15327e-41
-2.95552e-38
-6.90642e-42
-2.886e-38
-3.39206e-42
-2.83092e-38
-6.3997e-42
-2.80062e-38
-7.2367e-42
-2.78976e-38
-2.01937e-42
-2.79074e-38
2.76397e-42
-2.80268e-38
2.12211e-42
-2.81059e-38
-3.9861e-42
-2.81559e-38
-2.98599e-42
-2.80776e-38
-1.7377e-42
-2.84943e-38
4.70241e-42
-2.89463e-38
-2.98489e-38
-1.62524e-40
-5.85289e-38
-6.39618e-41
-3.28265e-38
2.38366e-43
-3.22288e-38
1.41149e-42
-3.14816e-38
2.192e-42
-3.1566e-38
8.32703e-42
-3.15813e-38
1.31045e-41
-3.17359e-38
8.11926e-42
-3.18036e-38
2.19952e-42
-3.17227e-38
4.63302e-42
-3.1593e-38
9.9282e-42
-3.17118e-38
6.31272e-42
-3.20506e-38
-5.1956e-42
-3.24078e-38
-1.30079e-41
-3.27481e-38
-1.20823e-41
-3.3071e-38
-1.18682e-41
-3.32446e-38
-1.62931e-41
-3.30353e-38
-1.55639e-41
-3.24471e-38
-7.19318e-42
-3.18591e-38
-2.18558e-43
-3.1561e-38
2.42528e-42
-3.16143e-38
7.24695e-42
-3.20204e-38
1.56301e-41
-3.26925e-38
1.79462e-41
-3.33604e-38
8.0953e-42
-3.3663e-38
-3.91951e-42
-3.35129e-38
-2.059e-42
-3.32387e-38
1.14299e-41
-3.33653e-38
1.43817e-41
-3.39915e-38
-1.82209e-42
-3.45533e-38
-1.40145e-41
-3.44135e-38
-3.79593e-42
-3.36728e-38
8.57423e-42
-3.31427e-38
2.74488e-42
-3.31027e-38
-4.78661e-42
-3.30073e-38
-1.3117e-42
-3.2771e-38
-9.68396e-43
-3.27219e-38
-7.14411e-42
-3.26737e-38
-7.11962e-42
-3.24947e-38
3.83992e-43
-3.24767e-38
5.52062e-42
-3.27255e-38
1.93601e-42
-3.3062e-38
-6.2794e-42
-3.32903e-38
-5.90279e-42
-3.33036e-38
5.13864e-42
-3.33279e-38
7.94516e-42
-3.36417e-38
-4.22893e-42
-3.38572e-38
-1.18496e-41
-3.34644e-38
-6.72178e-42
-3.26929e-38
-3.15488e-42
-3.20033e-38
-6.72605e-42
-3.1519e-38
-7.77224e-42
-3.12325e-38
-2.06323e-42
-3.11131e-38
3.22535e-42
-3.11775e-38
2.56944e-42
-3.12671e-38
-4.21839e-42
-3.14028e-38
-3.41434e-42
-3.1454e-38
-2.63412e-42
-3.2086e-38
4.475e-42
-3.27513e-38
-3.39567e-38
-1.64173e-40
-6.25772e-38
-6.35563e-41
-3.72179e-38
9.78775e-44
-3.63812e-38
1.26814e-42
-3.53193e-38
2.09274e-42
-3.51782e-38
8.85859e-42
-3.50255e-38
1.43341e-41
-3.51475e-38
9.27256e-42
-3.52826e-38
2.90187e-42
-3.53274e-38
5.158e-42
-3.53339e-38
1.03782e-41
-3.55767e-38
6.06762e-42
-3.60036e-38
-6.5711e-42
-3.63958e-38
-1.49963e-41
-3.67246e-38
-1.37084e-41
-3.70205e-38
-1.28124e-41
-3.71836e-38
-1.68148e-41
-3.69654e-38
-1.57438e-41
-3.63382e-38
-7.12388e-42
-3.56951e-38
-3.57806e-43
-3.53546e-38
1.89067e-42
-3.53878e-38
6.93319e-42
-3.57905e-38
1.62651e-41
-3.64671e-38
1.93215e-41
-3.71471e-38
9.22774e-42
-3.74619e-38
-3.56555e-42
-3.7299e-38
-1.95572e-42
-3.69655e-38
1.19276e-41
-3.70181e-38
1.48996e-41
-3.76112e-38
-1.96167e-42
-3.81876e-38
-1.42577e-41
-3.80739e-38
-3.13909e-42
-3.73577e-38
9.58017e-42
-3.68736e-38
2.84855e-42
-3.6886e-38
-5.35211e-42
-3.67997e-38
-1.62044e-42
-3.65483e-38
-1.17922e-42
-3.65105e-38
-7.77727e-42
-3.64887e-38
-7.94368e-42
-3.63332e-38
-1.69449e-43
-3.63386e-38
5.27082e-42
-3.65996e-38
1.61549e-42
-3.69296e-38
-6.96693e-42
-3.71494e-38
-6.54153e-42
-3.71657e-38
5.13908e-42
-3.72175e-38
8.20994e-42
-3.75961e-38
-4.33142e-42
-3.78724e-38
-1.19184e-41
-3.74674e-38
-6.19569e-42
-3.65934e-38
-2.5445e-42
-3.57336e-38
-6.71728e-42
-3.50489e-38
-8.08024e-42
-3.45951e-38
-2.01911e-42
-3.43951e-38
3.63825e-42
-3.44858e-38
2.85347e-42
-3.46867e-38
-4.75868e-42
-3.50141e-38
-4.30808e-42
-3.52926e-38
-4.09155e-42
-3.6227e-38
3.79666e-42
-3.71586e-38
-3.88339e-38
-1.64247e-40
-6.78669e-38
-6.20291e-41
-4.27605e-38
4.81151e-43
-4.16849e-38
1.5563e-42
-4.02506e-38
2.23165e-42
-3.98031e-38
9.44808e-42
-3.93769e-38
1.54559e-41
-3.93503e-38
1.02108e-41
-3.94407e-38
3.33163e-42
-3.95171e-38
5.40323e-42
-3.95918e-38
1.05998e-41
-3.99231e-38
5.67821e-42
-4.04349e-38
-8.03102e-42
-4.08813e-38
-1.7034e-41
-4.12215e-38
-1.53226e-41
-4.15063e-38
-1.36584e-41
-4.16701e-38
-1.71869e-41
-4.14542e-38
-1.57833e-41
-4.07975e-38
-6.95845e-42
-4.01041e-38
-4.68124e-43
-3.9721e-38
1.29527e-42
-3.97288e-38
6.49178e-42
-4.01162e-38
1.67913e-41
-4.07792e-38
2.06901e-41
-4.14516e-38
1.04581e-41
-4.1765e-38
-3.09614e-42
-4.15825e-38
-1.81627e-42
-4.11833e-38
1.23727e-41
-4.11496e-38
1.53521e-41
-4.1695e-38
-2.12032e-42
-4.22757e-38
-1.44985e-41
-4.21855e-38
-2.50306e-42
-4.14984e-38
1.05632e-41
-4.10688e-38
2.97148e-42
-4.11445e-38
-5.8787e-42
-4.10817e-38
-1.92059e-42
-4.08321e-38
-1.41685e-42
-4.08214e-38
-8.46374e-42
-4.08397e-38
-8.8446e-42
-4.07179e-38
-7.95147e-43
-4.07508e-38
4.98053e-42
-4.10223e-38
1.27303e-42
-4.13441e-38
-7.6981e-42
-4.15577e-38
-7.28108e-42
-4.15815e-38
5.00593e-42
-4.16581e-38
8.41568e-42
-4.20836e-38
-4.3158e-42
-4.23905e-38
-1.16758e-41
-4.19433e-38
-5.22339e-42
-4.09533e-38
-1.4642e-42
-3.99391e-38
-6.34568e-42
-3.91036e-38
-8.22167e-42
-3.85613e-38
-2.01869e-42
-3.83806e-38
3.82271e-42
-3.86078e-38
2.76051e-42
-3.90291e-38
-5.85146e-42
-3.96428e-38
-5.91603e-42
-4.02158e-38
-6.36498e-42
-4.14957e-38
2.53418e-42
-4.26774e-38
-4.49525e-38
-1.62804e-40
-7.48355e-38
-5.92314e-41
-4.99698e-38
1.62488e-42
-4.87342e-38
2.5455e-42
-4.69308e-38
2.8741e-42
-4.6151e-38
1.03484e-41
-4.53846e-38
1.6688e-41
-4.51129e-38
1.10873e-41
-4.50445e-38
3.56426e-42
-4.50313e-38
5.38304e-42
-4.5056e-38
1.05703e-41
-4.53771e-38
5.09929e-42
-4.59149e-38
-9.63129e-42
-4.64038e-38
-1.91726e-41
-4.67789e-38
-1.69611e-41
-4.70903e-38
-1.4432e-41
-4.72911e-38
-1.74326e-41
-4.7103e-38
-1.56944e-41
-4.64275e-38
-6.68753e-42
-4.56827e-38
-5.26201e-43
-4.5251e-38
6.63599e-43
-4.52266e-38
5.95066e-42
-4.55899e-38
1.72489e-41
-4.62275e-38
2.20965e-41
-4.6881e-38
1.18177e-41
-4.71874e-38
-2.49567e-42
-4.6988e-38
-1.62105e-42
-4.65278e-38
1.2803e-41
-4.64085e-38
1.57759e-41
-4.6902e-38
-2.29782e-42
-4.74812e-38
-1.47703e-41
-4.74093e-38
-1.91648e-42
-4.67483e-38
1.15131e-41
-4.63722e-38
3.09865e-42
-4.65133e-38
-6.39393e-42
-4.64805e-38
-2.23984e-42
-4.62409e-38
-1.7102e-42
-4.62628e-38
-9.23605e-42
-4.63241e-38
-9.84274e-42
-4.62376e-38
-1.48858e-42
-4.62975e-38
4.66599e-42
-4.6581e-38
9.08284e-43
-4.69024e-38
-8.50063e-42
-4.71216e-38
-8.14943e-42
-4.71566e-38
4.7491e-42
-4.72386e-38
8.61245e-42
-4.7665e-38
-4.11719e-42
-4.79481e-38
-1.10573e-41
-4.74289e-38
-3.75747e-42
-4.63456e-38
7.67516e-44
-4.52584e-38
-5.71074e-42
-4.43928e-38
-8.37954e-42
-4.3894e-38
-2.29491e-42
-4.38551e-38
3.52557e-42
-4.43235e-38
2.03714e-42
-4.5048e-38
-7.74348e-42
-4.60006e-38
-8.45193e-42
-4.68773e-38
-9.66089e-42
-4.84799e-38
6.25902e-43
-4.98111e-38
-5.27395e-38
-1.59986e-40
-8.37688e-38
-5.51014e-41
-5.92196e-38
3.6755e-42
-5.79731e-38
4.45221e-42
-5.58712e-38
4.27239e-42
-5.48029e-38
1.18388e-41
-5.36906e-38
1.83139e-41
-5.31273e-38
1.21628e-41
-5.28199e-38
3.81572e-42
-5.2608e-38
5.25666e-42
-5.24508e-38
1.03767e-41
-5.26262e-38
4.33164e-42
-5.30816e-38
-1.14472e-41
-5.35567e-38
-2.1523e-41
-5.39655e-38
-1.87231e-41
-5.434e-38
-1.51961e-41
-5.46277e-38
-1.75771e-41
-5.45087e-38
-1.5469e-41
-5.38342e-38
-6.28186e-42
-5.30377e-38
-5.0133e-43
-5.25486e-38
1.64018e-44
-5.24831e-38
5.32897e-42
-5.28157e-38
1.76671e-41
-5.34226e-38
2.35731e-41
-5.40545e-38
1.3326e-41
-5.43581e-38
-1.75856e-42
-5.41542e-38
-1.36084e-42
-5.36492e-38
1.32441e-41
-5.34567e-38
1.61989e-41
-5.39036e-38
-2.48877e-42
-5.44797e-38
-1.50881e-41
-5.44194e-38
-1.38851e-42
-5.37751e-38
1.24296e-41
-5.34437e-38
3.21827e-42
-5.36442e-38
-6.9215e-42
-5.36395e-38
-2.5984e-42
-5.34078e-38
-2.07629e-42
-5.34562e-38
-1.01138e-41
-5.35521e-38
-1.09526e-41
-5.34935e-38
-2.25346e-42
-5.35774e-38
4.32289e-42
-5.38783e-38
5.01457e-43
-5.42144e-38
-9.40089e-42
-5.44531e-38
-9.14033e-42
-5.44933e-38
4.43759e-42
-5.45422e-38
8.90652e-42
-5.49062e-38
-3.65544e-42
-5.51108e-38
-1.00537e-41
-5.4516e-38
-1.87377e-42
-5.3412e-38
1.91406e-42
-5.23899e-38
-5.05408e-42
-5.16583e-38
-8.83894e-42
-5.13496e-38
-3.13782e-42
-5.15584e-38
2.47744e-42
-5.2332e-38
4.5418e-43
-5.33871e-38
-1.06152e-41
-5.46676e-38
-1.20224e-41
-5.5787e-38
-1.40647e-41
-5.76198e-38
-1.87512e-42
-5.89262e-38
-6.24643e-38
-1.56035e-40
-9.47146e-38
-4.97137e-41
-7.06331e-38
6.63441e-42
-6.95638e-38
7.3758e-42
-6.72867e-38
6.59604e-42
-6.60382e-38
1.41532e-41
-6.46414e-38
2.0613e-41
-6.38057e-38
1.37442e-41
-6.32391e-38
4.40128e-42
-6.27682e-38
5.31889e-42
-6.23291e-38
1.02424e-41
-6.22318e-38
3.47387e-42
-6.24776e-38
-1.35183e-41
-6.28426e-38
-2.42195e-41
-6.32396e-38
-2.07633e-41
-6.36831e-38
-1.60638e-41
-6.40982e-38
-1.76658e-41
-6.40971e-38
-1.50914e-41
-6.34571e-38
-5.69542e-42
-6.26193e-38
-3.53124e-43
-6.20678e-38
-6.27326e-43
-6.19527e-38
4.63549e-42
-6.22483e-38
1.80595e-41
-6.28231e-38
2.51334e-41
-6.3438e-38
1.49829e-41
-6.3751e-38
-8.96321e-43
-6.35627e-38
-1.04265e-42
-6.30369e-38
1.3705e-41
-6.2792e-38
1.66387e-41
-6.32042e-38
-2.68283e-42
-6.37781e-38
-1.54479e-41
-6.37211e-38
-9.08484e-43
-6.30806e-38
1.33246e-41
-6.27804e-38
3.32786e-42
-6.30293e-38
-7.47217e-42
-6.30441e-38
-2.99892e-42
-6.28099e-38
-2.51221e-42
-6.28689e-38
-1.10999e-41
-6.2982e-38
-1.21847e-41
-6.29389e-38
-3.10603e-42
-6.3043e-38
3.92618e-42
-6.33697e-38
2.37368e-44
-6.37362e-38
-1.04037e-41
-6.39999e-38
-1.01958e-41
-6.40236e-38
4.19668e-42
-6.39889e-38
9.42764e-42
-6.42338e-38
-2.89002e-42
-6.43356e-38
-8.766e-42
-6.37075e-38
1.97521e-43
-6.26986e-38
3.73405e-42
-6.19033e-38
-4.71923e-42
-6.14646e-38
-9.92428e-42
-6.14598e-38
-4.82185e-42
-6.1969e-38
4.66646e-43
-6.30464e-38
-2.12293e-42
-6.43897e-38
-1.45173e-41
-6.59198e-38
-1.65737e-41
-6.71579e-38
-1.94921e-41
-6.90765e-38
-4.78576e-42
-7.01443e-38
-7.41534e-38
-1.51264e-40
-1.07447e-37
-4.32864e-41
-8.40312e-38
1.03409e-41
-8.33232e-38
1.1261e-41
-8.10181e-38
9.877e-42
-7.9739e-38
1.74121e-41
-7.81728e-38
2.37812e-41
-7.71478e-38
1.60974e-41
-7.63702e-38
5.64884e-42
-7.56513e-38
5.93222e-42
-7.48984e-38
1.05001e-41
-7.44541e-38
2.74662e-42
-7.43858e-38
-1.57866e-41
-7.4529e-38
-2.73523e-41
-7.48242e-38
-2.32492e-41
-7.52917e-38
-1.71923e-41
-7.58398e-38
-1.77827e-41
-7.59961e-38
-1.4561e-41
-7.54343e-38
-4.8791e-42
-7.45819e-38
-3.38632e-44
-7.39749e-38
-1.24727e-42
-7.38061e-38
3.87068e-42
-7.40591e-38
1.84225e-41
-7.46012e-38
2.6769e-41
-7.52069e-38
1.67671e-41
-7.55455e-38
6.08089e-44
-7.53958e-38
-6.90369e-43
-7.4876e-38
1.41792e-41
-7.46022e-38
1.71041e-41
-7.49931e-38
-2.86479e-42
-7.55658e-38
-1.58291e-41
-7.5503e-38
-4.48937e-43
-7.48528e-38
1.42211e-41
-7.457e-38
3.436e-42
-7.4855e-38
-8.03971e-42
-7.48785e-38
-3.42221e-42
-7.46271e-38
-2.99304e-42
-7.46759e-38
-1.21828e-41
-7.47857e-38
-1.35492e-41
-7.47448e-38
-4.07509e-42
-7.48664e-38
3.4404e-42
-7.52261e-38
-5.41509e-43
-7.56302e-38
-1.14723e-41
-7.59094e-38
-1.12084e-41
-7.58817e-38
4.17029e-42
-7.57185e-38
1.02645e-41
-7.58205e-38
-1.88148e-42
-7.58465e-38
-7.43039e-42
-7.52734e-38
2.09741e-42
-7.44924e-38
5.14122e-42
-7.40633e-38
-5.064e-42
-7.40223e-38
-1.19106e-41
-7.43642e-38
-7.52548e-42
-7.51514e-38
-2.59231e-42
-7.64593e-38
-5.6807e-42
-7.79837e-38
-1.93373e-41
-7.96329e-38
-2.18788e-41
-8.08287e-38
-2.56825e-41
-8.26691e-38
-7.81369e-42
-8.32913e-38
-8.75604e-38
-1.45998e-40
-1.21493e-37
-3.61459e-41
-9.89539e-38
1.45002e-41
-9.87467e-38
1.59017e-41
-9.65531e-38
1.39895e-41
-9.54011e-38
2.15801e-41
-9.38071e-38
2.78674e-41
-9.27202e-38
1.9362e-41
-9.18394e-38
7.79612e-42
-9.09556e-38
7.4233e-42
-8.99381e-38
1.15163e-41
-8.91519e-38
2.47041e-42
-8.87227e-38
-1.80618e-41
-8.85512e-38
-3.08994e-41
-8.8632e-38
-2.62964e-41
-8.90298e-38
-1.8748e-41
-8.96665e-38
-1.80522e-41
-8.99896e-38
-1.39149e-41
-8.95467e-38
-3.8028e-42
-8.87208e-38
5.01132e-43
-8.80825e-38
-1.8211e-42
-8.78659e-38
3.03198e-42
-8.80727e-38
1.87409e-41
-8.85801e-38
2.84535e-41
-8.91831e-38
1.86391e-41
-8.9562e-38
1.06852e-42
-8.94719e-38
-3.39075e-43
-8.89811e-38
1.46502e-41
-8.86981e-38
1.7599e-41
-8.90778e-38
-3.01439e-42
-8.96476e-38
-1.6199e-41
-8.95695e-38
2.75282e-44
-8.88983e-38
1.51471e-41
-8.86228e-38
3.55847e-42
-8.89355e-38
-8.60365e-42
-8.8959e-38
-3.83078e-42
-8.86773e-38
-3.47767e-42
-8.86972e-38
-1.33424e-41
-8.87861e-38
-1.5058e-41
-8.87372e-38
-5.19388e-42
-8.88732e-38
2.8392e-42
-8.92659e-38
-1.17744e-42
-8.97011e-38
-1.25249e-41
-8.99717e-38
-1.20517e-41
-8.98577e-38
4.45797e-42
-8.95472e-38
1.13972e-41
-8.9532e-38
-8.25604e-43
-8.95604e-38
-6.39501e-42
-8.91544e-38
3.41633e-42
-8.87128e-38
5.76486e-42
-8.87277e-38
-6.3549e-42
-8.91049e-38
-1.49366e-41
-8.97505e-38
-1.1267e-41
-9.07186e-38
-6.61751e-42
-9.21239e-38
-1.00412e-41
-9.36794e-38
-2.48086e-41
-9.52945e-38
-2.75714e-41
-9.62851e-38
-3.22395e-41
-9.78986e-38
-1.06111e-41
-9.79181e-38
-1.02201e-37
-1.40502e-40
-1.36218e-37
-2.86653e-41
-1.14747e-37
1.87446e-41
-1.15109e-37
2.09855e-41
-1.13134e-37
1.86729e-41
-1.12245e-37
2.64625e-41
-1.10759e-37
3.27424e-41
-1.09752e-37
2.34937e-41
-1.0891e-37
1.09084e-41
-1.07998e-37
9.98399e-42
-1.06834e-37
1.35944e-41
-1.05789e-37
2.99868e-42
-1.05026e-37
-2.00371e-41
-1.04497e-37
-3.46908e-41
-1.04263e-37
-2.99051e-41
-1.04472e-37
-2.08513e-41
-1.05107e-37
-1.86149e-41
-1.05563e-37
-1.32351e-41
-1.05259e-37
-2.47718e-42
-1.04504e-37
1.27616e-42
-1.03874e-37
-2.32916e-42
-1.03629e-37
2.11905e-42
-1.03791e-37
1.89962e-41
-1.0426e-37
3.01524e-41
-1.04863e-37
2.05515e-41
-1.05291e-37
2.079e-42
-1.05274e-37
-2.39528e-44
-1.04826e-37
1.51026e-41
-1.04545e-37
1.81295e-41
-1.04915e-37
-3.10582e-42
-1.05476e-37
-1.65191e-41
-1.05373e-37
5.58356e-43
-1.04674e-37
1.6126e-41
-1.04403e-37
3.7096e-42
-1.04742e-37
-9.13845e-42
-1.04763e-37
-4.18015e-42
-1.04445e-37
-3.92104e-42
-1.04425e-37
-1.45588e-41
-1.04483e-37
-1.67224e-41
-1.04421e-37
-6.48442e-42
-1.04565e-37
2.12561e-42
-1.0498e-37
-1.82671e-42
-1.05426e-37
-1.34577e-41
-1.05659e-37
-1.26347e-41
-1.05442e-37
5.05274e-42
-1.05006e-37
1.26621e-41
-1.04946e-37
-3.56529e-44
-1.05083e-37
-6.04823e-42
-1.04944e-37
3.79737e-42
-1.049e-37
5.36452e-42
-1.05355e-37
-8.681e-42
-1.06085e-37
-1.89468e-41
-1.06916e-37
-1.58764e-41
-1.07914e-37
-1.13602e-41
-1.09252e-37
-1.48901e-41
-1.10678e-37
-3.05621e-41
-1.12116e-37
-3.32164e-41
-1.12768e-37
-3.87007e-41
-1.14047e-37
-1.28416e-41
-1.13386e-37
-1.17443e-37
-1.34922e-40
-1.50938e-37
-2.11964e-41
-1.30686e-37
2.27039e-41
-1.31604e-37
2.61577e-41
-1.29912e-37
2.35885e-41
-1.2938e-37
3.17438e-41
-1.28108e-37
3.81137e-41
-1.27308e-37
2.82543e-41
-1.26649e-37
1.48447e-41
-1.25865e-37
1.36124e-41
-1.24711e-37
1.68935e-41
-1.23545e-37
4.62887e-42
-1.22539e-37
-2.13564e-41
-1.21674e-37
-3.84288e-41
-1.21072e-37
-3.39297e-41
-1.20984e-37
-2.35203e-41
-1.21501e-37
-1.95801e-41
-1.22017e-37
-1.2631e-41
-1.21838e-37
-9.62547e-43
-1.21186e-37
2.27825e-42
-1.20609e-37
-2.76425e-42
-1.20367e-37
1.13531e-42
-1.20494e-37
1.91765e-41
-1.20921e-37
3.18354e-41
-1.2152e-37
2.24628e-41
-1.21999e-37
3.0552e-42
-1.22057e-37
2.33961e-43
-1.21654e-37
1.55339e-41
-1.21373e-37
1.87118e-41
-1.21728e-37
-3.10754e-42
-1.22268e-37
-1.67525e-41
-1.22131e-37
1.16996e-42
-1.21404e-37
1.71651e-41
-1.21144e-37
3.89057e-42
-1.21516e-37
-9.62716e-42
-1.21541e-37
-4.43439e-42
-1.21188e-37
-4.28784e-42
-1.21128e-37
-1.58168e-41
-1.21157e-37
-1.85445e-41
-1.21078e-37
-7.94107e-42
-1.21221e-37
1.34085e-42
-1.21636e-37
-2.40828e-42
-1.22065e-37
-1.41912e-41
-1.22244e-37
-1.29581e-41
-1.21936e-37
5.80995e-42
-1.21435e-37
1.37717e-41
-1.21432e-37
1.27302e-43
-1.21776e-37
-6.72329e-42
-1.21959e-37
3.0271e-42
-1.22298e-37
3.89705e-42
-1.23113e-37
-1.19162e-41
-1.24065e-37
-2.36823e-41
-1.24923e-37
-2.1014e-41
-1.2578e-37
-1.64492e-41
-1.2689e-37
-1.98396e-41
-1.28048e-37
-3.61985e-41
-1.29203e-37
-3.83881e-41
-1.2943e-37
-4.46203e-41
-1.30322e-37
-1.42484e-41
-1.28992e-37
-1.32628e-37
-1.29254e-40
-1.65024e-37
-1.40121e-41
-1.46103e-37
2.60679e-41
-1.47495e-37
3.10831e-41
-1.46101e-37
2.83852e-41
-1.45974e-37
3.70546e-41
-1.44982e-37
4.35841e-41
-1.44479e-37
3.32548e-41
-1.44116e-37
1.9281e-41
-1.43597e-37
1.8109e-41
-1.42608e-37
2.13869e-41
-1.41478e-37
7.52461e-42
-1.40365e-37
-2.17073e-41
-1.39247e-37
-4.17581e-41
-1.38283e-37
-3.80993e-41
-1.37833e-37
-2.66415e-41
-1.38125e-37
-2.09766e-41
-1.38602e-37
-1.22013e-41
-1.385e-37
6.4488e-43
-1.37957e-37
3.45155e-42
-1.37471e-37
-3.14207e-42