/*--------------------------------*- C++ -*----------------------------------*\
| =========                 |                                                 |
| \\      /  F ield         | foam-extend: Open Source CFD                    |
|  \\    /   O peration     | Version:     4.0                                |
|   \\  /    A nd           | Web:         http://www.foam-extend.org         |
|    \\/     M anipulation  |                                                 |
\*---------------------------------------------------------------------------*/
FoamFile
{
    version     2.0;
    format      ascii;
    class       volScalarField;
    location    "1080";
    object      cPlus;
}
// * * * * * * * * * * * * * * * * * * * * * * * * * * * * * * * * * * * * * //

dimensions      [0 0 0 0 0 0 0];

internalField   nonuniform List<scalar> 
6960
(
0.285171
0.285142
0.285111
0.285083
0.28506
0.285041
0.285026
0.285013
0.285004
0.284996
0.284991
0.284986
0.284983
0.28498
0.284978
0.284976
0.284975
0.284974
0.284973
0.284973
0.284972
0.284972
0.284971
0.284971
0.284971
0.284971
0.284971
0.284971
0.284971
0.284971
0.284971
0.284971
0.284971
0.284971
0.284971
0.284971
0.284971
0.284971
0.284972
0.284972
0.284973
0.284973
0.284974
0.284975
0.284976
0.284978
0.28498
0.284983
0.284986
0.284991
0.284996
0.285004
0.285013
0.285026
0.285041
0.28506
0.285083
0.285111
0.285142
0.285171
0.0812072
0.0811914
0.0811738
0.0811581
0.0811448
0.081134
0.0811253
0.0811183
0.0811129
0.0811086
0.0811053
0.0811027
0.0811007
0.0810991
0.081098
0.081097
0.0810963
0.0810957
0.0810953
0.081095
0.0810947
0.0810945
0.0810943
0.0810942
0.0810941
0.0810941
0.081094
0.081094
0.0810939
0.0810939
0.0810939
0.0810939
0.081094
0.081094
0.0810941
0.0810941
0.0810942
0.0810943
0.0810945
0.0810947
0.081095
0.0810953
0.0810957
0.0810963
0.081097
0.081098
0.0810991
0.0811007
0.0811027
0.0811053
0.0811086
0.0811129
0.0811183
0.0811253
0.081134
0.0811448
0.0811581
0.0811738
0.0811914
0.0812072
0.0294406
0.0294348
0.0294279
0.0294216
0.0294163
0.0294119
0.0294084
0.0294056
0.0294034
0.0294016
0.0294003
0.0293992
0.0293984
0.0293978
0.0293973
0.0293969
0.0293966
0.0293964
0.0293962
0.0293961
0.029396
0.0293959
0.0293958
0.0293958
0.0293957
0.0293957
0.0293957
0.0293957
0.0293957
0.0293957
0.0293957
0.0293957
0.0293957
0.0293957
0.0293957
0.0293957
0.0293958
0.0293958
0.0293959
0.029396
0.0293961
0.0293962
0.0293964
0.0293966
0.0293969
0.0293973
0.0293978
0.0293984
0.0293992
0.0294003
0.0294016
0.0294034
0.0294056
0.0294084
0.0294119
0.0294163
0.0294216
0.0294279
0.0294348
0.0294406
0.0147029
0.0147024
0.0147011
0.0146999
0.0146988
0.0146979
0.0146971
0.0146965
0.014696
0.0146956
0.0146953
0.0146951
0.0146949
0.0146948
0.0146947
0.0146946
0.0146945
0.0146945
0.0146944
0.0146944
0.0146943
0.0146943
0.0146943
0.0146943
0.0146943
0.0146943
0.0146943
0.0146943
0.0146943
0.0146943
0.0146943
0.0146943
0.0146943
0.0146943
0.0146943
0.0146943
0.0146943
0.0146943
0.0146943
0.0146943
0.0146944
0.0146944
0.0146945
0.0146945
0.0146946
0.0146947
0.0146948
0.0146949
0.0146951
0.0146953
0.0146956
0.014696
0.0146965
0.0146971
0.0146979
0.0146988
0.0146999
0.0147011
0.0147024
0.0147029
0.0104941
0.010496
0.0104972
0.0104982
0.010499
0.0104996
0.0105001
0.0105005
0.0105007
0.010501
0.0105011
0.0105013
0.0105013
0.0105014
0.0105015
0.0105015
0.0105015
0.0105016
0.0105016
0.0105016
0.0105016
0.0105016
0.0105016
0.0105016
0.0105016
0.0105016
0.0105016
0.0105016
0.0105016
0.0105016
0.0105016
0.0105016
0.0105016
0.0105016
0.0105016
0.0105016
0.0105016
0.0105016
0.0105016
0.0105016
0.0105016
0.0105016
0.0105016
0.0105015
0.0105015
0.0105015
0.0105014
0.0105013
0.0105013
0.0105011
0.010501
0.0105007
0.0105005
0.0105001
0.0104996
0.010499
0.0104982
0.0104972
0.010496
0.0104941
0.00936074
0.00936353
0.00936578
0.00936764
0.00936917
0.00937039
0.00937136
0.00937213
0.00937272
0.00937318
0.00937353
0.0093738
0.00937401
0.00937417
0.00937429
0.00937438
0.00937445
0.0093745
0.00937454
0.00937458
0.0093746
0.00937462
0.00937463
0.00937464
0.00937465
0.00937466
0.00937466
0.00937467
0.00937467
0.00937467
0.00937467
0.00937467
0.00937467
0.00937466
0.00937466
0.00937465
0.00937464
0.00937463
0.00937462
0.0093746
0.00937458
0.00937454
0.0093745
0.00937445
0.00937438
0.00937429
0.00937417
0.00937401
0.0093738
0.00937353
0.00937318
0.00937272
0.00937213
0.00937136
0.00937039
0.00936917
0.00936764
0.00936578
0.00936353
0.00936074
0.00911592
0.00911908
0.00912172
0.00912392
0.00912573
0.00912719
0.00912835
0.00912926
0.00912997
0.00913052
0.00913095
0.00913127
0.00913152
0.00913171
0.00913186
0.00913197
0.00913206
0.00913212
0.00913217
0.00913221
0.00913224
0.00913226
0.00913228
0.0091323
0.00913231
0.00913231
0.00913232
0.00913232
0.00913233
0.00913233
0.00913233
0.00913233
0.00913232
0.00913232
0.00913231
0.00913231
0.0091323
0.00913228
0.00913226
0.00913224
0.00913221
0.00913217
0.00913212
0.00913206
0.00913197
0.00913186
0.00913171
0.00913152
0.00913127
0.00913095
0.00913052
0.00912997
0.00912926
0.00912835
0.00912719
0.00912573
0.00912392
0.00912172
0.00911908
0.00911592
0.0091245
0.00912783
0.00913062
0.00913297
0.0091349
0.00913645
0.00913769
0.00913867
0.00913943
0.00914001
0.00914047
0.00914082
0.00914108
0.00914129
0.00914144
0.00914156
0.00914166
0.00914173
0.00914178
0.00914182
0.00914185
0.00914188
0.0091419
0.00914191
0.00914192
0.00914193
0.00914194
0.00914194
0.00914194
0.00914195
0.00914195
0.00914194
0.00914194
0.00914194
0.00914193
0.00914192
0.00914191
0.0091419
0.00914188
0.00914185
0.00914182
0.00914178
0.00914173
0.00914166
0.00914156
0.00914144
0.00914129
0.00914108
0.00914082
0.00914047
0.00914001
0.00913943
0.00913867
0.00913769
0.00913645
0.0091349
0.00913297
0.00913062
0.00912783
0.0091245
0.00920707
0.00921049
0.00921338
0.0092158
0.0092178
0.0092194
0.00922068
0.00922169
0.00922248
0.00922309
0.00922355
0.00922392
0.00922419
0.0092244
0.00922457
0.00922469
0.00922479
0.00922486
0.00922492
0.00922496
0.00922499
0.00922502
0.00922504
0.00922505
0.00922506
0.00922507
0.00922508
0.00922508
0.00922509
0.00922509
0.00922509
0.00922509
0.00922508
0.00922508
0.00922507
0.00922506
0.00922505
0.00922504
0.00922502
0.00922499
0.00922496
0.00922492
0.00922486
0.00922479
0.00922469
0.00922457
0.0092244
0.00922419
0.00922392
0.00922355
0.00922309
0.00922248
0.00922169
0.00922068
0.0092194
0.0092178
0.0092158
0.00921338
0.00921049
0.00920707
0.0093149
0.00931841
0.00932136
0.00932385
0.00932589
0.00932753
0.00932884
0.00932988
0.00933068
0.00933131
0.00933179
0.00933216
0.00933244
0.00933266
0.00933283
0.00933296
0.00933305
0.00933313
0.00933319
0.00933323
0.00933327
0.00933329
0.00933331
0.00933333
0.00933334
0.00933335
0.00933335
0.00933336
0.00933336
0.00933336
0.00933336
0.00933336
0.00933336
0.00933335
0.00933335
0.00933334
0.00933333
0.00933331
0.00933329
0.00933327
0.00933323
0.00933319
0.00933313
0.00933305
0.00933296
0.00933283
0.00933266
0.00933244
0.00933216
0.00933179
0.00933131
0.00933068
0.00932988
0.00932884
0.00932753
0.00932589
0.00932385
0.00932136
0.00931841
0.0093149
0.00943564
0.00943923
0.00944226
0.0094448
0.00944688
0.00944857
0.00944991
0.00945097
0.00945179
0.00945243
0.00945292
0.0094533
0.00945359
0.00945382
0.00945399
0.00945412
0.00945422
0.0094543
0.00945436
0.0094544
0.00945444
0.00945446
0.00945449
0.0094545
0.00945451
0.00945452
0.00945453
0.00945453
0.00945454
0.00945454
0.00945454
0.00945454
0.00945453
0.00945453
0.00945452
0.00945451
0.0094545
0.00945449
0.00945446
0.00945444
0.0094544
0.00945436
0.0094543
0.00945422
0.00945412
0.00945399
0.00945382
0.00945359
0.0094533
0.00945292
0.00945243
0.00945179
0.00945097
0.00944991
0.00944857
0.00944688
0.0094448
0.00944226
0.00943923
0.00943564
0.00956681
0.00957049
0.00957359
0.00957618
0.00957832
0.00958004
0.00958142
0.0095825
0.00958335
0.009584
0.00958451
0.0095849
0.0095852
0.00958542
0.0095856
0.00958573
0.00958584
0.00958592
0.00958598
0.00958602
0.00958606
0.00958609
0.00958611
0.00958612
0.00958614
0.00958615
0.00958615
0.00958616
0.00958616
0.00958616
0.00958616
0.00958616
0.00958616
0.00958615
0.00958615
0.00958614
0.00958612
0.00958611
0.00958609
0.00958606
0.00958602
0.00958598
0.00958592
0.00958584
0.00958573
0.0095856
0.00958542
0.0095852
0.0095849
0.00958451
0.009584
0.00958335
0.0095825
0.00958142
0.00958004
0.00957832
0.00957618
0.00957359
0.00957049
0.00956681
0.00970859
0.00971237
0.00971554
0.0097182
0.00972039
0.00972216
0.00972357
0.00972468
0.00972555
0.00972622
0.00972674
0.00972714
0.00972744
0.00972768
0.00972786
0.00972799
0.0097281
0.00972818
0.00972824
0.00972829
0.00972833
0.00972836
0.00972838
0.0097284
0.00972841
0.00972842
0.00972843
0.00972843
0.00972843
0.00972844
0.00972844
0.00972843
0.00972843
0.00972843
0.00972842
0.00972841
0.0097284
0.00972838
0.00972836
0.00972833
0.00972829
0.00972824
0.00972818
0.0097281
0.00972799
0.00972786
0.00972768
0.00972744
0.00972714
0.00972674
0.00972622
0.00972555
0.00972468
0.00972357
0.00972216
0.00972039
0.0097182
0.00971554
0.00971237
0.00970859
0.00986197
0.00986585
0.0098691
0.00987183
0.00987408
0.0098759
0.00987735
0.00987849
0.00987938
0.00988007
0.0098806
0.00988101
0.00988133
0.00988157
0.00988175
0.00988189
0.009882
0.00988209
0.00988215
0.0098822
0.00988224
0.00988227
0.00988229
0.00988231
0.00988232
0.00988233
0.00988234
0.00988234
0.00988235
0.00988235
0.00988235
0.00988235
0.00988234
0.00988234
0.00988233
0.00988232
0.00988231
0.00988229
0.00988227
0.00988224
0.0098822
0.00988215
0.00988209
0.009882
0.00988189
0.00988175
0.00988157
0.00988133
0.00988101
0.0098806
0.00988007
0.00987938
0.00987849
0.00987735
0.0098759
0.00987408
0.00987183
0.0098691
0.00986585
0.00986197
0.0100283
0.0100323
0.0100356
0.0100384
0.0100407
0.0100426
0.0100441
0.0100453
0.0100462
0.0100469
0.0100474
0.0100479
0.0100482
0.0100484
0.0100486
0.0100488
0.0100489
0.010049
0.010049
0.0100491
0.0100491
0.0100492
0.0100492
0.0100492
0.0100492
0.0100492
0.0100492
0.0100492
0.0100492
0.0100492
0.0100492
0.0100492
0.0100492
0.0100492
0.0100492
0.0100492
0.0100492
0.0100492
0.0100492
0.0100491
0.0100491
0.010049
0.010049
0.0100489
0.0100488
0.0100486
0.0100484
0.0100482
0.0100479
0.0100474
0.0100469
0.0100462
0.0100453
0.0100441
0.0100426
0.0100407
0.0100384
0.0100356
0.0100323
0.0100283
0.0102091
0.0102132
0.0102167
0.0102196
0.010222
0.0102239
0.0102254
0.0102266
0.0102276
0.0102283
0.0102289
0.0102293
0.0102296
0.0102299
0.0102301
0.0102302
0.0102304
0.0102305
0.0102305
0.0102306
0.0102306
0.0102306
0.0102307
0.0102307
0.0102307
0.0102307
0.0102307
0.0102307
0.0102307
0.0102307
0.0102307
0.0102307
0.0102307
0.0102307
0.0102307
0.0102307
0.0102307
0.0102307
0.0102306
0.0102306
0.0102306
0.0102305
0.0102305
0.0102304
0.0102302
0.0102301
0.0102299
0.0102296
0.0102293
0.0102289
0.0102283
0.0102276
0.0102266
0.0102254
0.0102239
0.010222
0.0102196
0.0102167
0.0102132
0.0102091
0.0104064
0.0104106
0.0104142
0.0104172
0.0104197
0.0104217
0.0104232
0.0104245
0.0104255
0.0104262
0.0104268
0.0104273
0.0104276
0.0104279
0.0104281
0.0104282
0.0104284
0.0104285
0.0104285
0.0104286
0.0104286
0.0104287
0.0104287
0.0104287
0.0104287
0.0104287
0.0104287
0.0104287
0.0104287
0.0104287
0.0104287
0.0104287
0.0104287
0.0104287
0.0104287
0.0104287
0.0104287
0.0104287
0.0104287
0.0104286
0.0104286
0.0104285
0.0104285
0.0104284
0.0104282
0.0104281
0.0104279
0.0104276
0.0104273
0.0104268
0.0104262
0.0104255
0.0104245
0.0104232
0.0104217
0.0104197
0.0104172
0.0104142
0.0104106
0.0104064
0.0106224
0.0106268
0.0106305
0.0106336
0.0106362
0.0106382
0.0106399
0.0106412
0.0106422
0.010643
0.0106436
0.010644
0.0106444
0.0106447
0.0106449
0.0106451
0.0106452
0.0106453
0.0106453
0.0106454
0.0106454
0.0106455
0.0106455
0.0106455
0.0106455
0.0106456
0.0106456
0.0106456
0.0106456
0.0106456
0.0106456
0.0106456
0.0106456
0.0106456
0.0106456
0.0106455
0.0106455
0.0106455
0.0106455
0.0106454
0.0106454
0.0106453
0.0106453
0.0106452
0.0106451
0.0106449
0.0106447
0.0106444
0.010644
0.0106436
0.010643
0.0106422
0.0106412
0.0106399
0.0106382
0.0106362
0.0106336
0.0106305
0.0106268
0.0106224
0.0108599
0.0108645
0.0108683
0.0108715
0.0108742
0.0108763
0.010878
0.0108794
0.0108804
0.0108813
0.0108819
0.0108824
0.0108828
0.010883
0.0108833
0.0108834
0.0108836
0.0108837
0.0108837
0.0108838
0.0108838
0.0108839
0.0108839
0.0108839
0.0108839
0.010884
0.010884
0.010884
0.010884
0.010884
0.010884
0.010884
0.010884
0.010884
0.010884
0.0108839
0.0108839
0.0108839
0.0108839
0.0108838
0.0108838
0.0108837
0.0108837
0.0108836
0.0108834
0.0108833
0.010883
0.0108828
0.0108824
0.0108819
0.0108813
0.0108804
0.0108794
0.010878
0.0108763
0.0108742
0.0108715
0.0108683
0.0108645
0.0108599
0.0111221
0.0111269
0.011131
0.0111343
0.0111371
0.0111393
0.0111411
0.0111425
0.0111436
0.0111445
0.0111451
0.0111456
0.011146
0.0111463
0.0111465
0.0111467
0.0111469
0.011147
0.011147
0.0111471
0.0111472
0.0111472
0.0111472
0.0111472
0.0111473
0.0111473
0.0111473
0.0111473
0.0111473
0.0111473
0.0111473
0.0111473
0.0111473
0.0111473
0.0111473
0.0111473
0.0111472
0.0111472
0.0111472
0.0111472
0.0111471
0.011147
0.011147
0.0111469
0.0111467
0.0111465
0.0111463
0.011146
0.0111456
0.0111451
0.0111445
0.0111436
0.0111425
0.0111411
0.0111393
0.0111371
0.0111343
0.011131
0.0111269
0.0111221
0.0114133
0.0114183
0.0114225
0.011426
0.0114289
0.0114313
0.0114331
0.0114346
0.0114358
0.0114367
0.0114374
0.0114379
0.0114383
0.0114386
0.0114389
0.011439
0.0114392
0.0114393
0.0114394
0.0114394
0.0114395
0.0114395
0.0114396
0.0114396
0.0114396
0.0114396
0.0114396
0.0114396
0.0114396
0.0114396
0.0114396
0.0114396
0.0114396
0.0114396
0.0114396
0.0114396
0.0114396
0.0114396
0.0114395
0.0114395
0.0114394
0.0114394
0.0114393
0.0114392
0.011439
0.0114389
0.0114386
0.0114383
0.0114379
0.0114374
0.0114367
0.0114358
0.0114346
0.0114331
0.0114313
0.0114289
0.011426
0.0114225
0.0114183
0.0114133
0.0117384
0.0117437
0.0117481
0.0117518
0.0117548
0.0117573
0.0117593
0.0117608
0.011762
0.011763
0.0117637
0.0117643
0.0117647
0.011765
0.0117653
0.0117655
0.0117656
0.0117657
0.0117658
0.0117659
0.0117659
0.011766
0.011766
0.011766
0.011766
0.0117661
0.0117661
0.0117661
0.0117661
0.0117661
0.0117661
0.0117661
0.0117661
0.0117661
0.0117661
0.011766
0.011766
0.011766
0.011766
0.0117659
0.0117659
0.0117658
0.0117657
0.0117656
0.0117655
0.0117653
0.011765
0.0117647
0.0117643
0.0117637
0.011763
0.011762
0.0117608
0.0117593
0.0117573
0.0117548
0.0117518
0.0117481
0.0117437
0.0117384
0.0121038
0.0121094
0.012114
0.0121179
0.0121211
0.0121238
0.0121258
0.0121275
0.0121288
0.0121298
0.0121305
0.0121311
0.0121316
0.0121319
0.0121322
0.0121324
0.0121326
0.0121327
0.0121328
0.0121328
0.0121329
0.0121329
0.012133
0.012133
0.012133
0.012133
0.012133
0.0121331
0.0121331
0.0121331
0.0121331
0.0121331
0.0121331
0.012133
0.012133
0.012133
0.012133
0.012133
0.0121329
0.0121329
0.0121328
0.0121328
0.0121327
0.0121326
0.0121324
0.0121322
0.0121319
0.0121316
0.0121311
0.0121305
0.0121298
0.0121288
0.0121275
0.0121258
0.0121238
0.0121211
0.0121179
0.012114
0.0121094
0.0121038
0.0125175
0.0125235
0.0125285
0.0125326
0.012536
0.0125388
0.012541
0.0125428
0.0125441
0.0125452
0.012546
0.0125467
0.0125471
0.0125475
0.0125478
0.012548
0.0125482
0.0125483
0.0125484
0.0125485
0.0125486
0.0125486
0.0125486
0.0125487
0.0125487
0.0125487
0.0125487
0.0125487
0.0125487
0.0125487
0.0125487
0.0125487
0.0125487
0.0125487
0.0125487
0.0125487
0.0125487
0.0125486
0.0125486
0.0125486
0.0125485
0.0125484
0.0125483
0.0125482
0.012548
0.0125478
0.0125475
0.0125471
0.0125467
0.012546
0.0125452
0.0125441
0.0125428
0.012541
0.0125388
0.012536
0.0125326
0.0125285
0.0125235
0.0125175
0.0129903
0.0129967
0.013002
0.0130064
0.0130101
0.0130131
0.0130154
0.0130173
0.0130188
0.0130199
0.0130208
0.0130215
0.013022
0.0130224
0.0130227
0.0130229
0.0130231
0.0130233
0.0130234
0.0130234
0.0130235
0.0130236
0.0130236
0.0130236
0.0130237
0.0130237
0.0130237
0.0130237
0.0130237
0.0130237
0.0130237
0.0130237
0.0130237
0.0130237
0.0130237
0.0130237
0.0130236
0.0130236
0.0130236
0.0130235
0.0130234
0.0130234
0.0130233
0.0130231
0.0130229
0.0130227
0.0130224
0.013022
0.0130215
0.0130208
0.0130199
0.0130188
0.0130173
0.0130154
0.0130131
0.0130101
0.0130064
0.013002
0.0129967
0.0129903
0.0135359
0.0135428
0.0135485
0.0135533
0.0135573
0.0135605
0.0135631
0.0135651
0.0135667
0.0135679
0.0135689
0.0135696
0.0135702
0.0135706
0.0135709
0.0135712
0.0135714
0.0135715
0.0135717
0.0135717
0.0135718
0.0135719
0.0135719
0.0135719
0.013572
0.013572
0.013572
0.013572
0.013572
0.013572
0.013572
0.013572
0.013572
0.013572
0.013572
0.013572
0.0135719
0.0135719
0.0135719
0.0135718
0.0135717
0.0135717
0.0135715
0.0135714
0.0135712
0.0135709
0.0135706
0.0135702
0.0135696
0.0135689
0.0135679
0.0135667
0.0135651
0.0135631
0.0135605
0.0135573
0.0135533
0.0135485
0.0135428
0.0135359
0.0141732
0.0141807
0.014187
0.0141923
0.0141966
0.0142001
0.0142029
0.0142051
0.0142069
0.0142082
0.0142092
0.01421
0.0142107
0.0142111
0.0142115
0.0142118
0.014212
0.0142122
0.0142123
0.0142124
0.0142125
0.0142125
0.0142126
0.0142126
0.0142126
0.0142126
0.0142127
0.0142127
0.0142127
0.0142127
0.0142127
0.0142127
0.0142127
0.0142127
0.0142126
0.0142126
0.0142126
0.0142126
0.0142125
0.0142125
0.0142124
0.0142123
0.0142122
0.014212
0.0142118
0.0142115
0.0142111
0.0142107
0.01421
0.0142092
0.0142082
0.0142069
0.0142051
0.0142029
0.0142001
0.0141966
0.0141923
0.014187
0.0141807
0.0141732
0.0149283
0.0149367
0.0149436
0.0149494
0.0149542
0.0149581
0.0149612
0.0149637
0.0149656
0.0149671
0.0149682
0.0149691
0.0149698
0.0149703
0.0149707
0.014971
0.0149713
0.0149715
0.0149716
0.0149717
0.0149718
0.0149719
0.0149719
0.0149719
0.014972
0.014972
0.014972
0.014972
0.014972
0.014972
0.014972
0.014972
0.014972
0.014972
0.014972
0.014972
0.0149719
0.0149719
0.0149719
0.0149718
0.0149717
0.0149716
0.0149715
0.0149713
0.014971
0.0149707
0.0149703
0.0149698
0.0149691
0.0149682
0.0149671
0.0149656
0.0149637
0.0149612
0.0149581
0.0149542
0.0149494
0.0149436
0.0149367
0.0149283
0.0158385
0.0158478
0.0158556
0.0158622
0.0158676
0.015872
0.0158755
0.0158782
0.0158804
0.0158821
0.0158834
0.0158844
0.0158851
0.0158857
0.0158862
0.0158865
0.0158868
0.015887
0.0158872
0.0158873
0.0158874
0.0158874
0.0158875
0.0158875
0.0158876
0.0158876
0.0158876
0.0158876
0.0158876
0.0158876
0.0158876
0.0158876
0.0158876
0.0158876
0.0158876
0.0158876
0.0158875
0.0158875
0.0158874
0.0158874
0.0158873
0.0158872
0.015887
0.0158868
0.0158865
0.0158862
0.0158857
0.0158851
0.0158844
0.0158834
0.0158821
0.0158804
0.0158782
0.0158755
0.015872
0.0158676
0.0158622
0.0158556
0.0158478
0.0158385
0.0169581
0.0169688
0.0169777
0.0169853
0.0169915
0.0169965
0.0170005
0.0170037
0.0170062
0.0170081
0.0170096
0.0170107
0.0170116
0.0170123
0.0170128
0.0170132
0.0170135
0.0170138
0.0170139
0.0170141
0.0170142
0.0170143
0.0170143
0.0170144
0.0170144
0.0170144
0.0170145
0.0170145
0.0170145
0.0170145
0.0170145
0.0170145
0.0170145
0.0170145
0.0170144
0.0170144
0.0170144
0.0170143
0.0170143
0.0170142
0.0170141
0.0170139
0.0170138
0.0170135
0.0170132
0.0170128
0.0170123
0.0170116
0.0170107
0.0170096
0.0170081
0.0170062
0.0170037
0.0170005
0.0169965
0.0169915
0.0169853
0.0169777
0.0169688
0.0169581
0.0183685
0.018381
0.0183915
0.0184004
0.0184077
0.0184136
0.0184183
0.018422
0.018425
0.0184272
0.018429
0.0184304
0.0184314
0.0184322
0.0184328
0.0184333
0.0184337
0.0184339
0.0184341
0.0184343
0.0184344
0.0184345
0.0184346
0.0184347
0.0184347
0.0184347
0.0184348
0.0184348
0.0184348
0.0184348
0.0184348
0.0184348
0.0184348
0.0184348
0.0184347
0.0184347
0.0184347
0.0184346
0.0184345
0.0184344
0.0184343
0.0184341
0.0184339
0.0184337
0.0184333
0.0184328
0.0184322
0.0184314
0.0184304
0.018429
0.0184272
0.018425
0.018422
0.0184183
0.0184136
0.0184077
0.0184004
0.0183915
0.018381
0.0183685
0.0201918
0.0202068
0.0202195
0.0202302
0.020239
0.0202462
0.0202519
0.0202564
0.02026
0.0202627
0.0202649
0.0202665
0.0202678
0.0202688
0.0202695
0.0202701
0.0202705
0.0202708
0.0202711
0.0202713
0.0202715
0.0202716
0.0202717
0.0202717
0.0202718
0.0202718
0.0202719
0.0202719
0.0202719
0.0202719
0.0202719
0.0202719
0.0202719
0.0202719
0.0202718
0.0202718
0.0202717
0.0202717
0.0202716
0.0202715
0.0202713
0.0202711
0.0202708
0.0202705
0.0202701
0.0202695
0.0202688
0.0202678
0.0202665
0.0202649
0.0202627
0.02026
0.0202564
0.0202519
0.0202462
0.020239
0.0202302
0.0202195
0.0202068
0.0201918
0.0226061
0.0226247
0.0226405
0.0226538
0.0226648
0.0226737
0.0226808
0.0226865
0.0226909
0.0226943
0.022697
0.022699
0.0227006
0.0227018
0.0227028
0.0227035
0.022704
0.0227044
0.0227048
0.022705
0.0227052
0.0227054
0.0227055
0.0227056
0.0227056
0.0227057
0.0227057
0.0227057
0.0227057
0.0227058
0.0227058
0.0227057
0.0227057
0.0227057
0.0227057
0.0227056
0.0227056
0.0227055
0.0227054
0.0227052
0.022705
0.0227048
0.0227044
0.022704
0.0227035
0.0227028
0.0227018
0.0227006
0.022699
0.022697
0.0226943
0.0226909
0.0226865
0.0226808
0.0226737
0.0226648
0.0226538
0.0226405
0.0226247
0.0226061
0.0258532
0.0258768
0.0258969
0.0259138
0.0259279
0.0259392
0.0259483
0.0259555
0.0259612
0.0259655
0.0259689
0.0259716
0.0259736
0.0259751
0.0259763
0.0259772
0.0259779
0.0259785
0.0259789
0.0259792
0.0259794
0.0259796
0.0259798
0.0259799
0.02598
0.02598
0.0259801
0.0259801
0.0259801
0.0259801
0.0259801
0.0259801
0.0259801
0.0259801
0.02598
0.02598
0.0259799
0.0259798
0.0259796
0.0259794
0.0259792
0.0259789
0.0259785
0.0259779
0.0259772
0.0259763
0.0259751
0.0259736
0.0259716
0.0259689
0.0259655
0.0259612
0.0259555
0.0259483
0.0259392
0.0259279
0.0259138
0.0258969
0.0258768
0.0258532
0.0302189
0.0302491
0.0302749
0.0302967
0.0303147
0.0303294
0.0303411
0.0303503
0.0303576
0.0303632
0.0303676
0.030371
0.0303736
0.0303755
0.0303771
0.0303783
0.0303792
0.0303798
0.0303804
0.0303808
0.0303811
0.0303813
0.0303815
0.0303817
0.0303818
0.0303819
0.0303819
0.030382
0.030382
0.030382
0.030382
0.030382
0.030382
0.0303819
0.0303819
0.0303818
0.0303817
0.0303815
0.0303813
0.0303811
0.0303808
0.0303804
0.0303798
0.0303792
0.0303783
0.0303771
0.0303755
0.0303736
0.030371
0.0303676
0.0303632
0.0303576
0.0303503
0.0303411
0.0303294
0.0303147
0.0302967
0.0302749
0.0302491
0.0302189
0.0359691
0.0360075
0.0360404
0.0360681
0.0360911
0.0361097
0.0361246
0.0361364
0.0361456
0.0361528
0.0361584
0.0361627
0.036166
0.0361685
0.0361705
0.036172
0.0361732
0.0361741
0.0361747
0.0361753
0.0361757
0.036176
0.0361762
0.0361764
0.0361765
0.0361766
0.0361767
0.0361768
0.0361768
0.0361768
0.0361768
0.0361768
0.0361768
0.0361767
0.0361766
0.0361765
0.0361764
0.0361762
0.036176
0.0361757
0.0361753
0.0361747
0.0361741
0.0361732
0.036172
0.0361705
0.0361685
0.036166
0.0361627
0.0361584
0.0361528
0.0361456
0.0361364
0.0361246
0.0361097
0.0360911
0.0360681
0.0360404
0.0360075
0.0359691
0.043255
0.0433027
0.0433434
0.0433778
0.0434063
0.0434293
0.0434478
0.0434624
0.0434739
0.0434828
0.0434898
0.0434951
0.0434992
0.0435024
0.0435049
0.0435067
0.0435082
0.0435093
0.0435101
0.0435108
0.0435113
0.0435117
0.043512
0.0435122
0.0435124
0.0435125
0.0435126
0.0435127
0.0435127
0.0435128
0.0435128
0.0435127
0.0435127
0.0435126
0.0435125
0.0435124
0.0435122
0.043512
0.0435117
0.0435113
0.0435108
0.0435101
0.0435093
0.0435082
0.0435067
0.0435049
0.0435024
0.0434992
0.0434951
0.0434898
0.0434828
0.0434739
0.0434624
0.0434478
0.0434293
0.0434063
0.0433778
0.0433434
0.0433027
0.043255
0.0520417
0.0520989
0.0521477
0.0521889
0.0522229
0.0522505
0.0522726
0.0522901
0.0523039
0.0523146
0.0523229
0.0523294
0.0523343
0.0523382
0.0523411
0.0523434
0.0523451
0.0523464
0.0523475
0.0523483
0.0523489
0.0523494
0.0523497
0.05235
0.0523502
0.0523504
0.0523505
0.0523506
0.0523506
0.0523506
0.0523506
0.0523506
0.0523506
0.0523505
0.0523504
0.0523502
0.05235
0.0523497
0.0523494
0.0523489
0.0523483
0.0523475
0.0523464
0.0523451
0.0523434
0.0523411
0.0523382
0.0523343
0.0523294
0.0523229
0.0523146
0.0523039
0.0522901
0.0522726
0.0522505
0.0522229
0.0521889
0.0521477
0.0520989
0.0520417
0.0621185
0.0621849
0.0622414
0.0622889
0.0623282
0.0623601
0.0623857
0.0624059
0.0624219
0.0624343
0.062444
0.0624515
0.0624572
0.0624617
0.0624651
0.0624678
0.0624698
0.0624714
0.0624726
0.0624735
0.0624742
0.0624748
0.0624752
0.0624755
0.0624758
0.062476
0.0624761
0.0624762
0.0624763
0.0624763
0.0624763
0.0624763
0.0624762
0.0624761
0.062476
0.0624758
0.0624755
0.0624752
0.0624748
0.0624742
0.0624735
0.0624726
0.0624714
0.0624698
0.0624678
0.0624651
0.0624617
0.0624572
0.0624515
0.062444
0.0624343
0.0624219
0.0624059
0.0623857
0.0623601
0.0623282
0.0622889
0.0622414
0.0621849
0.0621185
0.0731866
0.0732614
0.0733248
0.0733782
0.0734222
0.073458
0.0734868
0.0735096
0.0735275
0.0735416
0.0735525
0.0735609
0.0735674
0.0735725
0.0735764
0.0735794
0.0735817
0.0735835
0.0735849
0.0735859
0.0735867
0.0735874
0.0735879
0.0735882
0.0735885
0.0735888
0.0735889
0.073589
0.0735891
0.0735891
0.0735891
0.0735891
0.073589
0.0735889
0.0735888
0.0735885
0.0735882
0.0735879
0.0735874
0.0735867
0.0735859
0.0735849
0.0735835
0.0735817
0.0735794
0.0735764
0.0735725
0.0735674
0.0735609
0.0735525
0.0735416
0.0735275
0.0735096
0.0734868
0.073458
0.0734222
0.0733782
0.0733248
0.0732614
0.0731866
0.0849585
0.0850411
0.0851108
0.0851694
0.0852178
0.0852572
0.0852888
0.0853139
0.0853337
0.0853492
0.0853612
0.0853706
0.0853778
0.0853834
0.0853878
0.0853911
0.0853937
0.0853957
0.0853972
0.0853984
0.0853993
0.0854001
0.0854006
0.085401
0.0854014
0.0854016
0.0854018
0.0854019
0.085402
0.085402
0.085402
0.085402
0.0854019
0.0854018
0.0854016
0.0854014
0.085401
0.0854006
0.0854001
0.0853993
0.0853984
0.0853972
0.0853957
0.0853937
0.0853911
0.0853878
0.0853834
0.0853778
0.0853706
0.0853612
0.0853492
0.0853337
0.0853139
0.0852888
0.0852572
0.0852178
0.0851694
0.0851108
0.0850411
0.0849585
0.0972153
0.097305
0.0973806
0.097444
0.0974964
0.0975391
0.0975734
0.0976007
0.0976222
0.0976391
0.0976523
0.0976625
0.0976704
0.0976766
0.0976813
0.097685
0.0976878
0.09769
0.0976917
0.097693
0.0976941
0.0976949
0.0976955
0.097696
0.0976963
0.0976966
0.0976968
0.0976969
0.097697
0.0976971
0.0976971
0.097697
0.0976969
0.0976968
0.0976966
0.0976963
0.097696
0.0976955
0.0976949
0.0976941
0.097693
0.0976917
0.09769
0.0976878
0.097685
0.0976813
0.0976766
0.0976704
0.0976625
0.0976523
0.0976391
0.0976222
0.0976007
0.0975734
0.0975391
0.0974964
0.097444
0.0973806
0.097305
0.0972153
0.109813
0.109909
0.109991
0.110059
0.110115
0.110161
0.110198
0.110227
0.11025
0.110268
0.110283
0.110294
0.110302
0.110309
0.110314
0.110318
0.110321
0.110324
0.110326
0.110327
0.110328
0.110329
0.11033
0.11033
0.110331
0.110331
0.110331
0.110331
0.110331
0.110331
0.110331
0.110331
0.110331
0.110331
0.110331
0.110331
0.11033
0.11033
0.110329
0.110328
0.110327
0.110326
0.110324
0.110321
0.110318
0.110314
0.110309
0.110302
0.110294
0.110283
0.110268
0.11025
0.110227
0.110198
0.110161
0.110115
0.110059
0.109991
0.109909
0.109813
0.122664
0.122767
0.122854
0.122926
0.122986
0.123035
0.123074
0.123106
0.123131
0.12315
0.123166
0.123178
0.123187
0.123194
0.1232
0.123204
0.123207
0.12321
0.123212
0.123214
0.123215
0.123216
0.123217
0.123217
0.123218
0.123218
0.123218
0.123218
0.123218
0.123218
0.123218
0.123218
0.123218
0.123218
0.123218
0.123218
0.123217
0.123217
0.123216
0.123215
0.123214
0.123212
0.12321
0.123207
0.123204
0.1232
0.123194
0.123187
0.123178
0.123166
0.12315
0.123131
0.123106
0.123074
0.123035
0.122986
0.122926
0.122854
0.122767
0.122664
0.135716
0.135825
0.135917
0.135994
0.136057
0.136109
0.136151
0.136185
0.136211
0.136232
0.136249
0.136261
0.136271
0.136279
0.136285
0.13629
0.136294
0.136296
0.136299
0.1363
0.136302
0.136303
0.136304
0.136304
0.136305
0.136305
0.136305
0.136306
0.136306
0.136306
0.136306
0.136306
0.136306
0.136305
0.136305
0.136305
0.136304
0.136304
0.136303
0.136302
0.1363
0.136299
0.136296
0.136294
0.13629
0.136285
0.136279
0.136271
0.136261
0.136249
0.136232
0.136211
0.136185
0.136151
0.136109
0.136057
0.135994
0.135917
0.135825
0.135716
0.148935
0.14905
0.149147
0.149228
0.149295
0.14935
0.149395
0.14943
0.149459
0.149481
0.149499
0.149512
0.149523
0.149531
0.149538
0.149543
0.149547
0.14955
0.149552
0.149554
0.149556
0.149557
0.149558
0.149558
0.149559
0.149559
0.14956
0.14956
0.14956
0.14956
0.14956
0.14956
0.14956
0.14956
0.149559
0.149559
0.149558
0.149558
0.149557
0.149556
0.149554
0.149552
0.14955
0.149547
0.149543
0.149538
0.149531
0.149523
0.149512
0.149499
0.149481
0.149459
0.14943
0.149395
0.14935
0.149295
0.149228
0.149147
0.14905
0.148935
0.162298
0.162418
0.16252
0.162606
0.162677
0.162735
0.162782
0.162819
0.162849
0.162873
0.162892
0.162906
0.162918
0.162927
0.162934
0.162939
0.162943
0.162947
0.162949
0.162951
0.162953
0.162954
0.162955
0.162956
0.162956
0.162957
0.162957
0.162957
0.162958
0.162958
0.162958
0.162958
0.162957
0.162957
0.162957
0.162956
0.162956
0.162955
0.162954
0.162953
0.162951
0.162949
0.162947
0.162943
0.162939
0.162934
0.162927
0.162918
0.162906
0.162892
0.162873
0.162849
0.162819
0.162782
0.162735
0.162677
0.162606
0.16252
0.162418
0.162298
0.175786
0.175912
0.176019
0.176109
0.176183
0.176244
0.176294
0.176334
0.176365
0.17639
0.17641
0.176426
0.176438
0.176448
0.176455
0.176461
0.176465
0.176469
0.176472
0.176474
0.176476
0.176477
0.176478
0.176479
0.17648
0.17648
0.17648
0.176481
0.176481
0.176481
0.176481
0.176481
0.176481
0.17648
0.17648
0.17648
0.176479
0.176478
0.176477
0.176476
0.176474
0.176472
0.176469
0.176465
0.176461
0.176455
0.176448
0.176438
0.176426
0.17641
0.17639
0.176365
0.176334
0.176294
0.176244
0.176183
0.176109
0.176019
0.175912
0.175786
0.189385
0.189517
0.189628
0.189722
0.1898
0.189864
0.189916
0.189958
0.189992
0.190018
0.190039
0.190056
0.190069
0.190079
0.190087
0.190093
0.190098
0.190102
0.190105
0.190107
0.190109
0.190111
0.190112
0.190113
0.190113
0.190114
0.190114
0.190115
0.190115
0.190115
0.190115
0.190115
0.190115
0.190114
0.190114
0.190113
0.190113
0.190112
0.190111
0.190109
0.190107
0.190105
0.190102
0.190098
0.190093
0.190087
0.190079
0.190069
0.190056
0.190039
0.190018
0.189992
0.189958
0.189916
0.189864
0.1898
0.189722
0.189628
0.189517
0.189385
0.203081