/*--------------------------------*- C++ -*----------------------------------*\
| =========                 |                                                 |
| \\      /  F ield         | foam-extend: Open Source CFD                    |
|  \\    /   O peration     | Version:     4.0                                |
|   \\  /    A nd           | Web:         http://www.foam-extend.org         |
|    \\/     M anipulation  |                                                 |
\*---------------------------------------------------------------------------*/
FoamFile
{
    version     2.0;
    format      ascii;
    class       volVectorField;
    location    "11";
    object      bodyForce;
}
// * * * * * * * * * * * * * * * * * * * * * * * * * * * * * * * * * * * * * //

dimensions      [1 -2 -2 0 0 0 0];

internalField   nonuniform List<vector> 
6960
(
(1.93638e-31 -4.55607e-15 -0)
(-4.61043e-32 -4.55607e-15 -0)
(-3.68835e-31 -4.55607e-15 -0)
(-2.30522e-31 -4.55607e-15 -0)
(6.45461e-32 -4.55607e-15 -0)
(6.08577e-31 -4.55607e-15 -0)
(4.05718e-31 -4.55607e-15 -0)
(1.47534e-31 -4.55607e-15 -0)
(-2.67405e-31 -4.55607e-15 -0)
(-6.63902e-31 -4.55607e-15 -0)
(-2.30522e-31 -4.55607e-15 -0)
(-6.45461e-32 -4.55607e-15 -0)
(1.29092e-31 -4.55607e-15 -0)
(1.93638e-31 -4.55607e-15 -0)
(-1.19871e-31 -4.55607e-15 -0)
(-1.29092e-31 -4.55607e-15 -0)
(1.56755e-31 -4.55607e-15 -0)
(4.70264e-31 -4.55607e-15 -0)
(-3.68835e-32 -4.55607e-15 -0)
(-1.93638e-31 -4.55607e-15 -0)
(1.84417e-32 -4.55607e-15 -0)
(1.84417e-32 -4.55607e-15 -0)
(2.58184e-31 -4.55607e-15 -0)
(-9.22087e-32 -4.55607e-15 -0)
(-7.37669e-32 -4.55607e-15 -0)
(2.21301e-31 -4.55607e-15 -0)
(-1.47534e-31 -4.55607e-15 -0)
(-1.65976e-31 -4.55607e-15 -0)
(4.51822e-31 -4.55607e-15 -0)
(5.25589e-31 -4.55607e-15 -0)
(-0 -4.55607e-15 -0)
(-4.97927e-31 -4.55607e-15 -0)
(-2.21301e-31 -4.55607e-15 -0)
(9.22087e-32 -4.55607e-15 -0)
(-2.21301e-31 -4.55607e-15 -0)
(-1.0143e-31 -4.55607e-15 -0)
(1.29092e-31 -4.55607e-15 -0)
(-2.21301e-31 -4.55607e-15 -0)
(-1.29092e-31 -4.55607e-15 -0)
(3.59614e-31 -4.55607e-15 -0)
(9.22087e-32 -4.55607e-15 -0)
(-1.93638e-31 -4.55607e-15 -0)
(2.95068e-31 -4.55607e-15 -0)
(5.16369e-31 -4.55607e-15 -0)
(1.65976e-31 -4.55607e-15 -0)
(1.56755e-31 -4.55607e-15 -0)
(1.0143e-31 -4.55607e-15 -0)
(-3.68835e-32 -4.55607e-15 -0)
(-3.68835e-32 -4.55607e-15 -0)
(-2.76626e-32 -4.55607e-15 -0)
(5.53252e-32 -4.55607e-15 -0)
(2.02859e-31 -4.55607e-15 -0)
(-3.68835e-32 -4.55607e-15 -0)
(-2.76626e-31 -4.55607e-15 -0)
(3.68835e-32 -4.55607e-15 -0)
(-6.45461e-32 -4.55607e-15 -0)
(-5.71694e-31 -4.55607e-15 -0)
(-2.58184e-31 -4.55607e-15 -0)
(-5.53252e-32 -4.55607e-15 -0)
(-2.02859e-31 -4.55607e-15 -0)
(7.5198e-31 -4.55607e-15 -0)
(-1.07426e-31 -4.55607e-15 -0)
(-1.21749e-30 -4.55607e-15 -0)
(-7.87789e-31 -4.55607e-15 -0)
(2.14852e-31 -4.55607e-15 -0)
(1.89785e-30 -4.55607e-15 -0)
(1.21749e-30 -4.55607e-15 -0)
(3.93894e-31 -4.55607e-15 -0)
(-7.16172e-31 -4.55607e-15 -0)
(-2.04109e-30 -4.55607e-15 -0)
(-6.80363e-31 -4.55607e-15 -0)
(-1.79043e-31 -4.55607e-15 -0)
(2.86469e-31 -4.55607e-15 -0)
(5.37129e-31 -4.55607e-15 -0)
(-3.22277e-31 -4.55607e-15 -0)
(-3.58086e-31 -4.55607e-15 -0)
(4.65512e-31 -4.55607e-15 -0)
(1.43234e-30 -4.55607e-15 -0)
(-1.43234e-31 -4.55607e-15 -0)
(-6.44554e-31 -4.55607e-15 -0)
(1.07426e-31 -4.55607e-15 -0)
(7.16172e-32 -4.55607e-15 -0)
(8.23597e-31 -4.55607e-15 -0)
(-1.79043e-31 -4.55607e-15 -0)
(-1.43234e-31 -4.55607e-15 -0)
(5.37129e-31 -4.55607e-15 -0)
(-4.65512e-31 -4.55607e-15 -0)
(-4.65512e-31 -4.55607e-15 -0)
(1.39653e-30 -4.55607e-15 -0)
(1.64719e-30 -4.55607e-15 -0)
(-7.16172e-32 -4.55607e-15 -0)
(-1.64719e-30 -4.55607e-15 -0)
(-6.08746e-31 -4.55607e-15 -0)
(2.5066e-31 -4.55607e-15 -0)
(-7.87789e-31 -4.55607e-15 -0)
(-1.79043e-31 -4.55607e-15 -0)
(2.86469e-31 -4.55607e-15 -0)
(-6.44554e-31 -4.55607e-15 -0)
(-2.14852e-31 -4.55607e-15 -0)
(1.00264e-30 -4.55607e-15 -0)
(2.5066e-31 -4.55607e-15 -0)
(-5.0132e-31 -4.55607e-15 -0)
(7.87789e-31 -4.55607e-15 -0)
(1.57558e-30 -4.55607e-15 -0)
(5.72937e-31 -4.55607e-15 -0)
(4.29703e-31 -4.55607e-15 -0)
(2.14852e-31 -4.55607e-15 -0)
(-3.58086e-32 -4.55607e-15 -0)
(-7.16172e-32 -4.55607e-15 -0)
(-7.16172e-32 -4.55607e-15 -0)
(1.79043e-31 -4.55607e-15 -0)
(5.37129e-31 -4.55607e-15 -0)
(-1.07426e-31 -4.55607e-15 -0)
(-8.23597e-31 -4.55607e-15 -0)
(7.16172e-32 -4.55607e-15 -0)
(-1.43234e-31 -4.55607e-15 -0)
(-1.683e-30 -4.55607e-15 -0)
(-8.59406e-31 -4.55607e-15 -0)
(-1.79043e-31 -4.55607e-15 -0)
(-5.0132e-31 -4.55607e-15 -0)
(1.11248e-30 -4.55606e-15 -0)
(-2.0859e-31 -4.55606e-15 -0)
(-1.87731e-30 -4.55606e-15 -0)
(-1.18201e-30 -4.55606e-15 -0)
(3.4765e-31 -4.55606e-15 -0)
(2.98979e-30 -4.55606e-15 -0)
(2.01637e-30 -4.55606e-15 -0)
(8.34361e-31 -4.55606e-15 -0)
(-1.18201e-30 -4.55606e-15 -0)
(-3.54603e-30 -4.55606e-15 -0)
(-1.25154e-30 -4.55606e-15 -0)
(-1.3906e-31 -4.55606e-15 -0)
(4.8671e-31 -4.55606e-15 -0)
(8.34361e-31 -4.55606e-15 -0)
(-4.1718e-31 -4.55606e-15 -0)
(-6.953e-31 -4.55606e-15 -0)
(6.953e-31 -4.55606e-15 -0)
(2.57261e-30 -4.55606e-15 -0)
(-2.7812e-31 -4.55606e-15 -0)
(-1.11248e-30 -4.55606e-15 -0)
(2.7812e-31 -4.55606e-15 -0)
(1.3906e-31 -4.55606e-15 -0)
(1.18201e-30 -4.55606e-15 -0)
(-2.7812e-31 -4.55606e-15 -0)
(-4.1718e-31 -4.55606e-15 -0)
(1.04295e-30 -4.55606e-15 -0)
(-5.5624e-31 -4.55606e-15 -0)
(-9.73421e-31 -4.55606e-15 -0)
(2.22496e-30 -4.55606e-15 -0)
(2.92026e-30 -4.55606e-15 -0)
(-6.953e-32 -4.55606e-15 -0)
(-2.71167e-30 -4.55606e-15 -0)
(-9.73421e-31 -4.55606e-15 -0)
(4.1718e-31 -4.55606e-15 -0)
(-1.25154e-30 -4.55606e-15 -0)
(-4.1718e-31 -4.55606e-15 -0)
(5.5624e-31 -4.55606e-15 -0)
(-1.25154e-30 -4.55606e-15 -0)
(-4.1718e-31 -4.55606e-15 -0)
(1.87731e-30 -4.55606e-15 -0)
(4.1718e-31 -4.55606e-15 -0)
(-9.03891e-31 -4.55606e-15 -0)
(1.46013e-30 -4.55606e-15 -0)
(2.50308e-30 -4.55607e-15 -0)
(9.73421e-31 -4.55607e-15 -0)
(9.03891e-31 -4.55607e-15 -0)
(2.7812e-31 -4.55607e-15 -0)
(-2.0859e-31 -4.55607e-15 -0)
(-0 -4.55607e-15 -0)
(-2.0859e-31 -4.55607e-15 -0)
(2.0859e-31 -4.55607e-15 -0)
(1.04295e-30 -4.55607e-15 -0)
(-6.95301e-32 -4.55607e-15 -0)
(-1.3906e-30 -4.55607e-15 -0)
(1.3906e-31 -4.55607e-15 -0)
(-4.1718e-31 -4.55607e-15 -0)
(-2.85073e-30 -4.55607e-15 -0)
(-1.25154e-30 -4.55607e-15 -0)
(-3.4765e-31 -4.55607e-15 -0)
(-9.73421e-31 -4.55607e-15 -0)
(1.41758e-30 -4.55606e-15 -0)
(-2.02511e-31 -4.55606e-15 -0)
(-2.56514e-30 -4.55606e-15 -0)
(-1.68759e-30 -4.55606e-15 -0)
(4.05023e-31 -4.55606e-15 -0)
(4.32024e-30 -4.55606e-15 -0)
(2.97017e-30 -4.55606e-15 -0)
(9.45053e-31 -4.55606e-15 -0)
(-1.62009e-30 -4.55606e-15 -0)
(-4.92777e-30 -4.55606e-15 -0)
(-1.89011e-30 -4.55606e-15 -0)
(-2.02511e-31 -4.55606e-15 -0)
(7.42541e-31 -4.55606e-15 -0)
(1.35008e-30 -4.55606e-15 -0)
(-6.07534e-31 -4.55606e-15 -0)
(-1.14756e-30 -4.55606e-15 -0)
(1.01256e-30 -4.55606e-15 -0)
(3.44269e-30 -4.55606e-15 -0)
(-4.05023e-31 -4.55606e-15 -0)
(-1.48508e-30 -4.55606e-15 -0)
(4.05023e-31 -4.55606e-15 -0)
(3.37519e-31 -4.55606e-15 -0)
(1.68759e-30 -4.55606e-15 -0)
(-6.07534e-31 -4.55606e-15 -0)
(-5.4003e-31 -4.55606e-15 -0)
(1.55259e-30 -4.55606e-15 -0)
(-8.10045e-31 -4.55606e-15 -0)
(-1.48508e-30 -4.55606e-15 -0)
(3.30768e-30 -4.55606e-15 -0)
(4.18523e-30 -4.55606e-15 -0)
(-0 -4.55606e-15 -0)
(-3.71271e-30 -4.55606e-15 -0)
(-1.62009e-30 -4.55606e-15 -0)
(7.42541e-31 -4.55606e-15 -0)
(-1.89011e-30 -4.55606e-15 -0)
(-4.72526e-31 -4.55606e-15 -0)
(8.10045e-31 -4.55606e-15 -0)
(-1.89011e-30 -4.55606e-15 -0)
(-4.72526e-31 -4.55606e-15 -0)
(2.70015e-30 -4.55606e-15 -0)
(4.72526e-31 -4.55606e-15 -0)
(-1.35008e-30 -4.55606e-15 -0)
(2.22762e-30 -4.55606e-15 -0)
(3.6452e-30 -4.55606e-15 -0)
(1.14756e-30 -4.55606e-15 -0)
(1.14756e-30 -4.55606e-15 -0)
(5.4003e-31 -4.55606e-15 -0)
(-2.70015e-31 -4.55606e-15 -0)
(-0 -4.55606e-15 -0)
(-2.70015e-31 -4.55606e-15 -0)
(4.05023e-31 -4.55606e-15 -0)
(1.48508e-30 -4.55606e-15 -0)
(-1.35008e-31 -4.55606e-15 -0)
(-1.95761e-30 -4.55606e-15 -0)
(-0 -4.55606e-15 -0)
(-5.4003e-31 -4.55606e-15 -0)
(-3.98272e-30 -4.55606e-15 -0)
(-1.7551e-30 -4.55606e-15 -0)
(-6.07534e-31 -4.55606e-15 -0)
(-1.48508e-30 -4.55606e-15 -0)
(2.09717e-30 -4.55606e-15 -0)
(-3.93219e-31 -4.55606e-15 -0)
(-3.53897e-30 -4.55606e-15 -0)
(-2.09717e-30 -4.55606e-15 -0)
(5.24292e-31 -4.55606e-15 -0)
(5.63614e-30 -4.55606e-15 -0)
(4.06326e-30 -4.55606e-15 -0)
(1.57288e-30 -4.55606e-15 -0)
(-2.49039e-30 -4.55606e-15 -0)
(-6.42258e-30 -4.55606e-15 -0)
(-2.35931e-30 -4.55606e-15 -0)
(-3.93219e-31 -4.55606e-15 -0)
(1.17966e-30 -4.55606e-15 -0)
(1.70395e-30 -4.55606e-15 -0)
(-9.17511e-31 -4.55606e-15 -0)
(-1.17966e-30 -4.55606e-15 -0)
(1.17966e-30 -4.55606e-15 -0)
(4.8497e-30 -4.55606e-15 -0)
(-7.86438e-31 -4.55606e-15 -0)
(-2.09717e-30 -4.55606e-15 -0)
(5.24292e-31 -4.55606e-15 -0)
(5.24292e-31 -4.55606e-15 -0)
(2.22824e-30 -4.55606e-15 -0)
(-7.86438e-31 -4.55606e-15 -0)
(-5.24292e-31 -4.55606e-15 -0)
(2.09717e-30 -4.55606e-15 -0)
(-1.04858e-30 -4.55606e-15 -0)
(-1.9661e-30 -4.55606e-15 -0)
(4.32541e-30 -4.55606e-15 -0)
(5.24292e-30 -4.55606e-15 -0)
(-3.93219e-31 -4.55606e-15 -0)
(-4.71863e-30 -4.55606e-15 -0)
(-1.70395e-30 -4.55606e-15 -0)
(5.24292e-31 -4.55606e-15 -0)
(-2.35931e-30 -4.55606e-15 -0)
(-5.24292e-31 -4.55606e-15 -0)
(1.04858e-30 -4.55606e-15 -0)
(-2.62146e-30 -4.55606e-15 -0)
(-3.93219e-31 -4.55606e-15 -0)
(3.53897e-30 -4.55606e-15 -0)
(2.62146e-31 -4.55606e-15 -0)
(-1.83502e-30 -4.55606e-15 -0)
(2.62146e-30 -4.55606e-15 -0)
(5.11185e-30 -4.55606e-15 -0)
(1.9661e-30 -4.55606e-15 -0)
(1.17966e-30 -4.55606e-15 -0)
(7.86438e-31 -4.55606e-15 -0)
(-2.62146e-31 -4.55606e-15 -0)
(-1.31073e-31 -4.55606e-15 -0)
(-2.62146e-31 -4.55606e-15 -0)
(2.62146e-31 -4.55606e-15 -0)
(1.83502e-30 -4.55606e-15 -0)
(-2.62146e-31 -4.55606e-15 -0)
(-2.09717e-30 -4.55606e-15 -0)
(1.31073e-31 -4.55606e-15 -0)
(-9.17511e-31 -4.55606e-15 -0)
(-5.11185e-30 -4.55606e-15 -0)
(-2.49039e-30 -4.55606e-15 -0)
(-7.86438e-31 -4.55606e-15 -0)
(-1.9661e-30 -4.55606e-15 -0)
(2.54506e-30 -4.55606e-15 -0)
(-1.27253e-31 -4.55606e-15 -0)
(-4.70837e-30 -4.55606e-15 -0)
(-2.54506e-30 -4.55606e-15 -0)
(8.90772e-31 -4.55606e-15 -0)
(6.99893e-30 -4.55606e-15 -0)
(5.34463e-30 -4.55606e-15 -0)
(1.78154e-30 -4.55606e-15 -0)
(-3.56309e-30 -4.55606e-15 -0)
(-7.76244e-30 -4.55606e-15 -0)
(-2.29056e-30 -4.55606e-15 -0)
(-7.63519e-31 -4.55606e-15 -0)
(1.39979e-30 -4.55606e-15 -0)
(2.03605e-30 -4.55606e-15 -0)
(-1.01803e-30 -4.55606e-15 -0)
(-1.52704e-30 -4.55606e-15 -0)
(1.27253e-30 -4.55606e-15 -0)
(5.72639e-30 -4.55606e-15 -0)
(-3.8176e-31 -4.55606e-15 -0)
(-2.29056e-30 -4.55606e-15 -0)
(2.54506e-31 -4.55606e-15 -0)
(6.36266e-31 -4.55606e-15 -0)
(3.05408e-30 -4.55606e-15 -0)
(-1.01803e-30 -4.55606e-15 -0)
(-8.90772e-31 -4.55606e-15 -0)
(2.79957e-30 -4.55606e-15 -0)
(-1.27253e-30 -4.55606e-15 -0)
(-2.1633e-30 -4.55606e-15 -0)
(5.09013e-30 -4.55606e-15 -0)
(6.48991e-30 -4.55606e-15 -0)
(-5.09013e-31 -4.55606e-15 -0)
(-5.9809e-30 -4.55606e-15 -0)
(-2.41781e-30 -4.55606e-15 -0)
(7.63519e-31 -4.55606e-15 -0)
(-2.54506e-30 -4.55606e-15 -0)
(-3.8176e-31 -4.55606e-15 -0)
(8.90772e-31 -4.55606e-15 -0)
(-3.56309e-30 -4.55606e-15 -0)
(-6.36266e-31 -4.55606e-15 -0)
(4.58112e-30 -4.55606e-15 -0)
(7.63519e-31 -4.55606e-15 -0)
(-2.54506e-30 -4.55606e-15 -0)
(3.18133e-30 -4.55606e-15 -0)
(6.48991e-30 -4.55606e-15 -0)
(2.41781e-30 -4.55606e-15 -0)
(1.39979e-30 -4.55606e-15 -0)
(1.14528e-30 -4.55606e-15 -0)
(-2.54506e-31 -4.55606e-15 -0)
(-6.36266e-31 -4.55606e-15 -0)
(-6.36266e-31 -4.55606e-15 -0)
(7.63519e-31 -4.55606e-15 -0)
(2.41781e-30 -4.55606e-15 -0)
(-3.8176e-31 -4.55606e-15 -0)
(-2.79957e-30 -4.55606e-15 -0)
(1.27253e-31 -4.55606e-15 -0)
(-8.90772e-31 -4.55606e-15 -0)
(-6.10815e-30 -4.55606e-15 -0)
(-3.18133e-30 -4.55606e-15 -0)
(-1.39979e-30 -4.55606e-15 -0)
(-2.29056e-30 -4.55606e-15 -0)
(3.08862e-30 -4.55606e-15 -0)
(-0 -4.55606e-15 -0)
(-5.43597e-30 -4.55606e-15 -0)
(-3.33571e-30 -4.55606e-15 -0)
(6.17723e-31 -4.55606e-15 -0)
(8.40104e-30 -4.55606e-15 -0)
(6.17723e-30 -4.55606e-15 -0)
(2.10026e-30 -4.55606e-15 -0)
(-3.95343e-30 -4.55606e-15 -0)
(-9.51294e-30 -4.55606e-15 -0)
(-2.71798e-30 -4.55606e-15 -0)
(-4.94179e-31 -4.55606e-15 -0)
(1.23545e-30 -4.55606e-15 -0)
(2.96507e-30 -4.55606e-15 -0)
(-9.88357e-31 -4.55606e-15 -0)
(-2.10026e-30 -4.55606e-15 -0)
(1.85317e-30 -4.55606e-15 -0)
(6.9185e-30 -4.55606e-15 -0)
(-1.1119e-30 -4.55606e-15 -0)
(-2.71798e-30 -4.55606e-15 -0)
(8.64813e-31 -4.55606e-15 -0)
(2.47089e-31 -4.55606e-15 -0)
(3.45925e-30 -4.55606e-15 -0)
(-9.88357e-31 -4.55606e-15 -0)
(-9.88357e-31 -4.55606e-15 -0)
(3.21216e-30 -4.55606e-15 -0)
(-1.23545e-30 -4.55606e-15 -0)
(-2.71798e-30 -4.55606e-15 -0)
(6.05369e-30 -4.55606e-15 -0)
(8.15395e-30 -4.55606e-15 -0)
(-9.88357e-31 -4.55606e-15 -0)
(-7.16559e-30 -4.55606e-15 -0)
(-2.47089e-30 -4.55606e-15 -0)
(3.70634e-31 -4.55606e-15 -0)
(-2.84153e-30 -4.55606e-15 -0)
(-6.17723e-31 -4.55606e-15 -0)
(1.23545e-30 -4.55606e-15 -0)
(-3.95343e-30 -4.55606e-15 -0)
(-6.17723e-31 -4.55606e-15 -0)
(5.18888e-30 -4.55606e-15 -0)
(8.64813e-31 -4.55606e-15 -0)
(-2.96507e-30 -4.55606e-15 -0)
(3.70634e-30 -4.55606e-15 -0)
(7.78332e-30 -4.55606e-15 -0)
(2.96507e-30 -4.55606e-15 -0)
(1.60608e-30 -4.55606e-15 -0)
(1.23545e-30 -4.55606e-15 -0)
(-3.70634e-31 -4.55606e-15 -0)
(-4.94179e-31 -4.55606e-15 -0)
(-6.17724e-31 -4.55606e-15 -0)
(1.1119e-30 -4.55606e-15 -0)
(2.71798e-30 -4.55606e-15 -0)
(-8.64813e-31 -4.55606e-15 -0)
(-3.08862e-30 -4.55606e-15 -0)
(1.23545e-31 -4.55606e-15 -0)
(-9.88358e-31 -4.55606e-15 -0)
(-6.9185e-30 -4.55606e-15 -0)
(-4.20052e-30 -4.55606e-15 -0)
(-1.85317e-30 -4.55606e-15 -0)
(-2.47089e-30 -4.55606e-15 -0)
(3.11855e-30 -4.55606e-15 -0)
(-0 -4.55606e-15 -0)
(-6.2371e-30 -4.55606e-15 -0)
(-4.0781e-30 -4.55606e-15 -0)
(1.19944e-30 -4.55606e-15 -0)
(1.05551e-29 -4.55606e-15 -0)
(6.95677e-30 -4.55606e-15 -0)
(1.91911e-30 -4.55606e-15 -0)
(-4.79777e-30 -4.55606e-15 -0)
(-1.12748e-29 -4.55606e-15 -0)
(-3.11855e-30 -4.55606e-15 -0)
(-4.79777e-31 -4.55606e-15 -0)
(1.67922e-30 -4.55606e-15 -0)
(2.63877e-30 -4.55606e-15 -0)
(-1.43933e-30 -4.55606e-15 -0)
(-1.43933e-30 -4.55606e-15 -0)
(2.159e-30 -4.55606e-15 -0)
(7.43654e-30 -4.55606e-15 -0)
(-7.19665e-31 -4.55606e-15 -0)
(-3.83822e-30 -4.55606e-15 -0)
(9.59554e-31 -4.55606e-15 -0)
(1.19944e-30 -4.55606e-15 -0)
(3.83822e-30 -4.55606e-15 -0)
(-1.67922e-30 -4.55606e-15 -0)
(-1.19944e-30 -4.55606e-15 -0)
(4.31799e-30 -4.55606e-15 -0)
(-2.39888e-30 -4.55606e-15 -0)
(-3.35844e-30 -4.55606e-15 -0)
(8.15621e-30 -4.55606e-15 -0)
(9.59554e-30 -4.55606e-15 -0)
(-7.19665e-31 -4.55606e-15 -0)
(-9.11576e-30 -4.55606e-15 -0)
(-3.35844e-30 -4.55606e-15 -0)
(1.43933e-30 -4.55606e-15 -0)
(-3.59833e-30 -4.55606e-15 -0)
(-1.19944e-30 -4.55606e-15 -0)
(1.67922e-30 -4.55606e-15 -0)
(-4.55788e-30 -4.55606e-15 -0)
(-9.59554e-31 -4.55606e-15 -0)
(5.99721e-30 -4.55606e-15 -0)
(1.19944e-30 -4.55606e-15 -0)
(-4.0781e-30 -4.55606e-15 -0)
(4.79777e-30 -4.55606e-15 -0)
(9.35565e-30 -4.55606e-15 -0)
(3.11855e-30 -4.55606e-15 -0)
(2.63877e-30 -4.55606e-15 -0)
(1.19944e-30 -4.55606e-15 -0)
(-7.19666e-31 -4.55606e-15 -0)
(-9.59554e-31 -4.55606e-15 -0)
(-1.19944e-30 -4.55606e-15 -0)
(1.19944e-30 -4.55606e-15 -0)
(3.59833e-30 -4.55606e-15 -0)
(-4.79777e-31 -4.55606e-15 -0)
(-4.07811e-30 -4.55606e-15 -0)
(7.19666e-31 -4.55606e-15 -0)
(-1.43933e-30 -4.55606e-15 -0)
(-8.15621e-30 -4.55606e-15 -0)
(-4.79777e-30 -4.55606e-15 -0)
(-2.39889e-30 -4.55606e-15 -0)
(-3.11855e-30 -4.55606e-15 -0)
(3.49346e-30 -4.55606e-15 -0)
(-0 -4.55606e-15 -0)
(-7.21982e-30 -4.55606e-15 -0)
(-4.89085e-30 -4.55606e-15 -0)
(1.39738e-30 -4.55606e-15 -0)
(1.1412e-29 -4.55606e-15 -0)
(9.083e-30 -4.55606e-15 -0)
(1.86318e-30 -4.55606e-15 -0)
(-6.28823e-30 -4.55606e-15 -0)
(-1.25765e-29 -4.55606e-15 -0)
(-2.79477e-30 -4.55606e-15 -0)
(-1.16449e-30 -4.55606e-15 -0)
(1.86318e-30 -4.55606e-15 -0)
(3.26056e-30 -4.55606e-15 -0)
(-1.39738e-30 -4.55606e-15 -0)
(-1.39738e-30 -4.55606e-15 -0)
(2.09608e-30 -4.55606e-15 -0)
(8.61721e-30 -4.55606e-15 -0)
(-9.3159e-31 -4.55606e-15 -0)
(-3.95926e-30 -4.55606e-15 -0)
(9.3159e-31 -4.55606e-15 -0)
(9.3159e-31 -4.55606e-15 -0)
(4.19215e-30 -4.55606e-15 -0)
(-1.86318e-30 -4.55606e-15 -0)
(-9.3159e-31 -4.55606e-15 -0)
(4.65795e-30 -4.55606e-15 -0)
(-1.63028e-30 -4.55606e-15 -0)
(-3.72636e-30 -4.55606e-15 -0)
(8.61721e-30 -4.55606e-15 -0)
(1.11791e-29 -4.55606e-15 -0)
(-9.3159e-31 -4.55606e-15 -0)
(-1.00146e-29 -4.55606e-15 -0)
(-3.95926e-30 -4.55606e-15 -0)
(9.3159e-31 -4.55606e-15 -0)
(-3.95926e-30 -4.55606e-15 -0)
(-1.16449e-30 -4.55606e-15 -0)
(9.3159e-31 -4.55606e-15 -0)
(-4.89085e-30 -4.55606e-15 -0)
(-4.65795e-31 -4.55606e-15 -0)
(6.52113e-30 -4.55606e-15 -0)
(9.3159e-31 -4.55606e-15 -0)
(-3.72636e-30 -4.55606e-15 -0)
(5.12375e-30 -4.55606e-15 -0)
(1.07133e-29 -4.55606e-15 -0)
(4.19216e-30 -4.55606e-15 -0)
(2.56187e-30 -4.55606e-15 -0)
(1.63028e-30 -4.55606e-15 -0)
(-2.32898e-31 -4.55606e-15 -0)
(-1.86318e-30 -4.55606e-15 -0)
(-1.63028e-30 -4.55606e-15 -0)
(1.63028e-30 -4.55606e-15 -0)
(4.19216e-30 -4.55606e-15 -0)
(-4.65795e-31 -4.55606e-15 -0)
(-4.19216e-30 -4.55606e-15 -0)
(6.98693e-31 -4.55606e-15 -0)
(-1.16449e-30 -4.55606e-15 -0)
(-9.3159e-30 -4.55606e-15 -0)
(-6.52113e-30 -4.55606e-15 -0)
(-3.26057e-30 -4.55606e-15 -0)
(-3.49346e-30 -4.55606e-15 -0)
(4.29609e-30 -4.55606e-15 -0)
(2.2611e-31 -4.55606e-15 -0)
(-8.59219e-30 -4.55606e-15 -0)
(-5.42665e-30 -4.55606e-15 -0)
(2.03499e-30 -4.55606e-15 -0)
(1.33405e-29 -4.55606e-15 -0)
(9.49663e-30 -4.55606e-15 -0)
(2.03499e-30 -4.55606e-15 -0)
(-6.10498e-30 -4.55606e-15 -0)
(-1.46972e-29 -4.55606e-15 -0)
(-3.39165e-30 -4.55606e-15 -0)
(-1.13055e-30 -4.55606e-15 -0)
(1.58277e-30 -4.55606e-15 -0)
(3.61776e-30 -4.55606e-15 -0)
(-2.03499e-30 -4.55606e-15 -0)
(-1.80888e-30 -4.55606e-15 -0)
(3.16554e-30 -4.55606e-15 -0)
(1.0175e-29 -4.55606e-15 -0)
(-9.04441e-31 -4.55606e-15 -0)
(-5.65275e-30 -4.55606e-15 -0)
(1.13055e-30 -4.55606e-15 -0)
(1.80888e-30 -4.55606e-15 -0)
(4.74831e-30 -4.55606e-15 -0)
(-2.03499e-30 -4.55606e-15 -0)
(-1.58277e-30 -4.55606e-15 -0)
(4.5222e-30 -4.55606e-15 -0)
(-1.35666e-30 -4.55606e-15 -0)
(-3.84387e-30 -4.55606e-15 -0)
(9.49663e-30 -4.55606e-15 -0)
(1.221e-29 -4.55606e-15 -0)
(-9.04441e-31 -4.55606e-15 -0)
(-1.08533e-29 -4.55606e-15 -0)
(-4.74831e-30 -4.55606e-15 -0)
(6.78331e-31 -4.55606e-15 -0)
(-4.06998e-30 -4.55606e-15 -0)
(-1.13055e-30 -4.55606e-15 -0)
(6.78331e-31 -4.55606e-15 -0)
(-5.65276e-30 -4.55606e-15 -0)
(-0 -4.55606e-15 -0)
(7.46164e-30 -4.55606e-15 -0)
(6.78331e-31 -4.55606e-15 -0)
(-4.29609e-30 -4.55606e-15 -0)
(5.65276e-30 -4.55606e-15 -0)
(1.24361e-29 -4.55606e-15 -0)
(4.52221e-30 -4.55606e-15 -0)
(2.71332e-30 -4.55606e-15 -0)
(2.2611e-30 -4.55606e-15 -0)
(-0 -4.55606e-15 -0)
(-2.2611e-30 -4.55606e-15 -0)
(-1.80888e-30 -4.55606e-15 -0)
(1.80888e-30 -4.55606e-15 -0)
(4.06998e-30 -4.55606e-15 -0)
(-6.78331e-31 -4.55606e-15 -0)
(-3.84387e-30 -4.55606e-15 -0)
(1.13055e-30 -4.55606e-15 -0)
(-1.58277e-30 -4.55606e-15 -0)
(-1.0175e-29 -4.55606e-15 -0)
(-7.68775e-30 -4.55606e-15 -0)
(-4.2961e-30 -4.55606e-15 -0)
(-3.84387e-30 -4.55606e-15 -0)
(4.39041e-30 -4.55606e-15 -0)
(-0 -4.55606e-15 -0)
(-8.34179e-30 -4.55606e-15 -0)
(-5.70754e-30 -4.55606e-15 -0)
(1.53665e-30 -4.55606e-15 -0)
(1.51469e-29 -4.55606e-15 -0)
(1.0098e-29 -4.55606e-15 -0)
(2.63425e-30 -4.55606e-15 -0)
(-7.24418e-30 -4.55606e-15 -0)
(-1.66836e-29 -4.55606e-15 -0)
(-3.73185e-30 -4.55606e-15 -0)
(-8.78083e-31 -4.55606e-15 -0)
(1.75617e-30 -4.55606e-15 -0)
(3.73185e-30 -4.55606e-15 -0)
(-1.75617e-30 -4.55606e-15 -0)
(-1.31712e-30 -4.55606e-15 -0)
(3.29281e-30 -4.55606e-15 -0)
(1.0976e-29 -4.55606e-15 -0)
(-1.53665e-30 -4.55606e-15 -0)
(-5.2685e-30 -4.55606e-15 -0)
(1.31712e-30 -4.55606e-15 -0)
(1.97569e-30 -4.55606e-15 -0)
(5.04898e-30 -4.55606e-15 -0)
(-2.41473e-30 -4.55606e-15 -0)
(-1.75617e-30 -4.55606e-15 -0)
(5.04898e-30 -4.55606e-15 -0)
(-1.97569e-30 -4.55606e-15 -0)
(-4.39041e-30 -4.55606e-15 -0)
(1.11956e-29 -4.55606e-15 -0)
(1.36103e-29 -4.55606e-15 -0)
(-1.97569e-30 -4.55606e-15 -0)
(-1.25127e-29 -4.55606e-15 -0)
(-3.73185e-30 -4.55606e-15 -0)
(1.0976e-30 -4.55606e-15 -0)
(-5.70754e-30 -4.55606e-15 -0)
(-1.53665e-30 -4.55606e-15 -0)
(4.39041e-31 -4.55606e-15 -0)
(-5.70754e-30 -4.55606e-15 -0)
(2.19521e-31 -4.55606e-15 -0)
(7.68323e-30 -4.55606e-15 -0)
(-2.19521e-31 -4.55606e-15 -0)
(-5.2685e-30 -4.55606e-15 -0)
(7.68323e-30 -4.55606e-15 -0)
(1.38298e-29 -4.55606e-15 -0)
(5.04898e-30 -4.55606e-15 -0)
(3.95137e-30 -4.55606e-15 -0)
(2.19521e-30 -4.55606e-15 -0)
(-2.19521e-31 -4.55606e-15 -0)
(-2.19521e-30 -4.55606e-15 -0)
(-2.63425e-30 -4.55606e-15 -0)
(2.19521e-30 -4.55606e-15 -0)
(5.04898e-30 -4.55606e-15 -0)
(-4.39042e-31 -4.55606e-15 -0)
(-4.60994e-30 -4.55606e-15 -0)
(1.31712e-30 -4.55606e-15 -0)
(-1.0976e-30 -4.55606e-15 -0)
(-1.16346e-29 -4.55606e-15 -0)
(-9.00035e-30 -4.55606e-15 -0)
(-5.70754e-30 -4.55606e-15 -0)
(-4.82946e-30 -4.55606e-15 -0)
(4.68871e-30 -4.55606e-15 -0)
(-4.26247e-31 -4.55606e-15 -0)
(-9.59055e-30 -4.55606e-15 -0)
(-6.3937e-30 -4.55606e-15 -0)
(2.34436e-30 -4.55606e-15 -0)
(1.76892e-29 -4.55606e-15 -0)
(1.06562e-29 -4.55606e-15 -0)
(2.34436e-30 -4.55606e-15 -0)
(-8.09868e-30 -4.55606e-15 -0)
(-1.83286e-29 -4.55606e-15 -0)
(-3.19685e-30 -4.55606e-15 -0)
(-1.91811e-30 -4.55606e-15 -0)
(1.49186e-30 -4.55606e-15 -0)
(5.54121e-30 -4.55606e-15 -0)
(-2.98373e-30 -4.55606e-15 -0)
(-2.34436e-30 -4.55606e-15 -0)
(4.68871e-30 -4.55606e-15 -0)
(1.17218e-29 -4.55606e-15 -0)
(-1.06562e-30 -4.55606e-15 -0)
(-6.3937e-30 -4.55606e-15 -0)
(1.49186e-30 -4.55606e-15 -0)
(3.6231e-30 -4.55606e-15 -0)
(5.32808e-30 -4.55606e-15 -0)
(-2.7706e-30 -4.55606e-15 -0)
(-1.91811e-30 -4.55606e-15 -0)
(4.68871e-30 -4.55606e-15 -0)
(-2.34436e-30 -4.55606e-15 -0)
(-4.47559e-30 -4.55606e-15 -0)
(1.2148e-29 -4.55606e-15 -0)
(1.49186e-29 -4.55606e-15 -0)
(-2.13123e-30 -4.55606e-15 -0)
(-1.34268e-29 -4.55606e-15 -0)
(-4.68871e-30 -4.55606e-15 -0)
(1.06562e-30 -4.55606e-15 -0)
(-5.32808e-30 -4.55606e-15 -0)
(-1.91811e-30 -4.55606e-15 -0)
(-0 -4.55606e-15 -0)
(-6.3937e-30 -4.55606e-15 -0)
(2.13123e-31 -4.55606e-15 -0)
(8.95118e-30 -4.55606e-15 -0)
(-2.13123e-31 -4.55606e-15 -0)
(-6.18058e-30 -4.55606e-15 -0)
(8.73806e-30 -4.55606e-15 -0)
(1.5558e-29 -4.55606e-15 -0)
(5.32808e-30 -4.55606e-15 -0)
(4.26247e-30 -4.55606e-15 -0)
(2.98373e-30 -4.55606e-15 -0)
(-4.26247e-31 -4.55606e-15 -0)
(-2.98373e-30 -4.55606e-15 -0)
(-3.40997e-30 -4.55606e-15 -0)
(3.40997e-30 -4.55606e-15 -0)
(5.96745e-30 -4.55606e-15 -0)
(-1.06562e-30 -4.55606e-15 -0)
(-4.47559e-30 -4.55606e-15 -0)
(6.3937e-31 -4.55606e-15 -0)
(-1.06562e-30 -4.55606e-15 -0)
(-1.17218e-29 -4.55606e-15 -0)
(-1.08693e-29 -4.55606e-15 -0)
(-6.81995e-30 -4.55606e-15 -0)
(-5.54121e-30 -4.55606e-15 -0)
(5.37972e-30 -4.55606e-15 -0)
(-0 -4.55606e-15 -0)
(-9.93179e-30 -4.55606e-15 -0)
(-6.62119e-30 -4.55606e-15 -0)
(2.06912e-30 -4.55606e-15 -0)
(1.90359e-29 -4.55606e-15 -0)
(1.28286e-29 -4.55606e-15 -0)
(2.48295e-30 -4.55606e-15 -0)
(-9.10414e-30 -4.55606e-15 -0)
(-1.98636e-29 -4.55606e-15 -0)
(-3.72442e-30 -4.55605e-15 -0)
(-2.48295e-30 -4.55605e-15 -0)
(2.48295e-30 -4.55605e-15 -0)
(5.37972e-30 -4.55605e-15 -0)
(-3.72442e-30 -4.55605e-15 -0)
(-2.06912e-30 -4.55605e-15 -0)
(5.79354e-30 -4.55605e-15 -0)
(1.28286e-29 -4.55605e-15 -0)
(-1.6553e-30 -4.55605e-15 -0)
(-7.03502e-30 -4.55605e-15 -0)
(8.27649e-31 -4.55605e-15 -0)
(4.55207e-30 -4.55605e-15 -0)
(6.62119e-30 -4.55605e-15 -0)
(-3.72442e-30 -4.55605e-15 -0)
(-2.89677e-30 -4.55605e-15 -0)
(5.37972e-30 -4.55605e-15 -0)
(-2.48295e-30 -4.55605e-15 -0)
(-4.55207e-30 -4.55605e-15 -0)
(1.28286e-29 -4.55605e-15 -0)
(1.57253e-29 -4.55605e-15 -0)
(-2.89677e-30 -4.55605e-15 -0)
(-1.57253e-29 -4.55605e-15 -0)
(-4.13825e-30 -4.55605e-15 -0)
(1.24147e-30 -4.55605e-15 -0)
(-5.79354e-30 -4.55605e-15 -0)
(-1.6553e-30 -4.55606e-15 -0)
(-0 -4.55606e-15 -0)
(-7.44884e-30 -4.55606e-15 -0)
(-4.13825e-31 -4.55606e-15 -0)
(9.51797e-30 -4.55606e-15 -0)
(4.13825e-31 -4.55606e-15 -0)
(-5.79354e-30 -4.55606e-15 -0)
(8.69032e-30 -4.55606e-15 -0)
(1.69668e-29 -4.55606e-15 -0)
(7.44884e-30 -4.55606e-15 -0)
(4.9659e-30 -4.55606e-15 -0)
(2.48295e-30 -4.55606e-15 -0)
(-4.13825e-31 -4.55606e-15 -0)
(-3.72442e-30 -4.55606e-15 -0)
(-4.13825e-30 -4.55606e-15 -0)
(2.89677e-30 -4.55606e-15 -0)
(7.03502e-30 -4.55606e-15 -0)
(-4.13825e-31 -4.55606e-15 -0)
(-4.9659e-30 -4.55606e-15 -0)
(8.27649e-31 -4.55606e-15 -0)
(-8.27649e-31 -4.55606e-15 -0)
(-1.32424e-29 -4.55606e-15 -0)
(-1.24147e-29 -4.55606e-15 -0)
(-8.27649e-30 -4.55606e-15 -0)
(-7.03502e-30 -4.55606e-15 -0)
(6.02647e-30 -4.55605e-15 -0)
(4.01765e-31 -4.55605e-15 -0)
(-1.04459e-29 -4.55605e-15 -0)
(-6.83e-30 -4.55605e-15 -0)
(2.81235e-30 -4.55605e-15 -0)
(2.049e-29 -4.55605e-15 -0)
(1.32582e-29 -4.55605e-15 -0)
(2.41059e-30 -4.55605e-15 -0)
(-9.24058e-30 -4.55605e-15 -0)
(-2.24988e-29 -4.55605e-15 -0)
(-3.61588e-30 -4.55605e-15 -0)
(-2.81235e-30 -4.55605e-15 -0)
(1.20529e-30 -4.55605e-15 -0)
(6.42823e-30 -4.55605e-15 -0)
(-3.61588e-30 -4.55605e-15 -0)
(-2.00882e-30 -4.55605e-15 -0)
(6.42823e-30 -4.55605e-15 -0)
(1.48653e-29 -4.55605e-15 -0)
(-8.03529e-31 -4.55605e-15 -0)
(-8.43705e-30 -4.55605e-15 -0)
(-4.01764e-31 -4.55605e-15 -0)
(4.82117e-30 -4.55605e-15 -0)
(7.63353e-30 -4.55605e-15 -0)
(-3.21412e-30 -4.55605e-15 -0)
(-4.01764e-30 -4.55605e-15 -0)
(4.41941e-30 -4.55605e-15 -0)
(-2.00882e-30 -4.55605e-15 -0)
(-3.61588e-30 -4.55605e-15 -0)
(1.40618e-29 -4.55605e-15 -0)
(1.68741e-29 -4.55605e-15 -0)
(-4.01764e-30 -4.55605e-15 -0)
(-1.68741e-29 -4.55605e-15 -0)
(-3.21412e-30 -4.55605e-15 -0)
(8.03529e-31 -4.55605e-15 -0)
(-6.42823e-30 -4.55605e-15 -0)
(-8.03529e-31 -4.55605e-15 -0)
(-8.03529e-31 -4.55605e-15 -0)
(-8.83882e-30 -4.55605e-15 -0)
(-0 -4.55605e-15 -0)
(1.00441e-29 -4.55605e-15 -0)
(8.03529e-31 -4.55605e-15 -0)
(-5.6247e-30 -4.55605e-15 -0)
(8.83882e-30 -4.55605e-15 -0)
(1.88829e-29 -4.55605e-15 -0)
(6.83e-30 -4.55605e-15 -0)
(5.22294e-30 -4.55605e-15 -0)
(4.41941e-30 -4.55605e-15 -0)
(-0 -4.55606e-15 -0)
(-5.22294e-30 -4.55606e-15 -0)
(-5.22294e-30 -4.55606e-15 -0)
(4.41941e-30 -4.55606e-15 -0)
(6.42823e-30 -4.55606e-15 -0)
(-0 -4.55606e-15 -0)
(-4.41941e-30 -4.55606e-15 -0)
(-0 -4.55606e-15 -0)
(-8.03529e-31 -4.55606e-15 -0)
(-1.32582e-29 -4.55606e-15 -0)
(-1.366e-29 -4.55606e-15 -0)
(-1.00441e-29 -4.55606e-15 -0)
(-6.83e-30 -4.55606e-15 -0)
(6.63095e-30 -4.55605e-15 -0)
(3.90056e-31 -4.55605e-15 -0)
(-1.13116e-29 -4.55605e-15 -0)
(-7.41106e-30 -4.55605e-15 -0)
(2.73039e-30 -4.55605e-15 -0)
(2.22332e-29 -4.55605e-15 -0)
(1.52122e-29 -4.55605e-15 -0)
(1.56022e-30 -4.55605e-15 -0)
(-1.01415e-29 -4.55605e-15 -0)
(-2.26232e-29 -4.55605e-15 -0)
(-4.68067e-30 -4.55605e-15 -0)
(-3.90056e-30 -4.55605e-15 -0)
(2.34034e-30 -4.55605e-15 -0)
(7.41106e-30 -4.55605e-15 -0)
(-5.85084e-30 -4.55605e-15 -0)
(-2.34034e-30 -4.55605e-15 -0)
(8.19117e-30 -4.55605e-15 -0)
(1.52122e-29 -4.55605e-15 -0)
(-1.56022e-30 -4.55605e-15 -0)
(-9.7514e-30 -4.55605e-15 -0)
(1.56022e-30 -4.55605e-15 -0)
(6.63095e-30 -4.55605e-15 -0)
(7.80112e-30 -4.55605e-15 -0)
(-3.90056e-30 -4.55605e-15 -0)
(-3.5105e-30 -4.55605e-15 -0)
(4.29062e-30 -4.55605e-15 -0)
(-3.90056e-30 -4.55605e-15 -0)
(-4.29062e-30 -4.55605e-15 -0)
(1.52122e-29 -4.55605e-15 -0)
(1.79426e-29 -4.55605e-15 -0)
(-2.34034e-30 -4.55605e-15 -0)
(-1.83326e-29 -4.55605e-15 -0)
(-3.90056e-30 -4.55605e-15 -0)
(1.17017e-30 -4.55605e-15 -0)
(-7.41106e-30 -4.55605e-15 -0)
(-1.56022e-30 -4.55605e-15 -0)
(-7.80112e-31 -4.55605e-15 -0)
(-8.97129e-30 -4.55605e-15 -0)
(-0 -4.55605e-15 -0)
(9.7514e-30 -4.55605e-15 -0)
(-3.90056e-31 -4.55605e-15 -0)
(-5.85084e-30 -4.55605e-15 -0)
(1.17017e-29 -4.55605e-15 -0)
(2.1063e-29 -4.55605e-15 -0)
(7.02101e-30 -4.55605e-15 -0)
(6.2409e-30 -4.55605e-15 -0)
(4.68067e-30 -4.55605e-15 -0)
(-3.90056e-31 -4.55605e-15 -0)
(-7.02101e-30 -4.55605e-15 -0)
(-5.46079e-30 -4.55605e-15 -0)
(3.90056e-30 -4.55605e-15 -0)
(8.19118e-30 -4.55605e-15 -0)
(3.90056e-31 -4.55605e-15 -0)
(-4.29062e-30 -4.55605e-15 -0)
(-3.90056e-31 -4.55605e-15 -0)
(-7.80112e-31 -4.55605e-15 -0)
(-1.3652e-29 -4.55605e-15 -0)
(-1.48221e-29 -4.55605e-15 -0)
(-1.17017e-29 -4.55605e-15 -0)
(-7.80112e-30 -4.55605e-15 -0)
(7.95246e-30 -4.55605e-15 -0)
(3.78689e-31 -4.55605e-15 -0)
(-1.17393e-29 -4.55605e-15 -0)
(-6.43771e-30 -4.55605e-15 -0)
(3.78689e-30 -4.55605e-15 -0)
(2.31e-29 -4.55605e-15 -0)
(1.43902e-29 -4.55605e-15 -0)
(2.27213e-30 -4.55605e-15 -0)
(-9.46722e-30 -4.55605e-15 -0)
(-2.34787e-29 -4.55605e-15 -0)
(-5.30164e-30 -4.55605e-15 -0)
(-5.68033e-30 -4.55605e-15 -0)
(1.13607e-30 -4.55605e-15 -0)
(8.70984e-30 -4.55605e-15 -0)
(-6.43771e-30 -4.55605e-15 -0)
(-1.89344e-30 -4.55605e-15 -0)
(9.46722e-30 -4.55605e-15 -0)
(1.59049e-29 -4.55605e-15 -0)
(-0 -4.55605e-15 -0)
(-1.0982e-29 -4.55605e-15 -0)
(3.78689e-31 -4.55605e-15 -0)
(7.57377e-30 -4.55605e-15 -0)
(9.46721e-30 -4.55605e-15 -0)
(-3.78689e-30 -4.55605e-15 -0)
(-5.68033e-30 -4.55605e-15 -0)
(3.4082e-30 -4.55605e-15 -0)
(-3.4082e-30 -4.55605e-15 -0)
(-4.16557e-30 -4.55605e-15 -0)
(1.7041e-29 -4.55605e-15 -0)
(2.00705e-29 -4.55605e-15 -0)
(-3.78689e-30 -4.55605e-15 -0)
(-2.12066e-29 -4.55605e-15 -0)
(-3.78689e-30 -4.55605e-15 -0)
(1.13607e-30 -4.55605e-15 -0)
(-8.33115e-30 -4.55605e-15 -0)
(-7.57377e-31 -4.55605e-15 -0)
(-2.27213e-30 -4.55605e-15 -0)
(-9.8459e-30 -4.55605e-15 -0)
(2.27213e-30 -4.55605e-15 -0)
(1.02246e-29 -4.55605e-15 -0)
(3.78689e-31 -4.55605e-15 -0)
(-6.8164e-30 -4.55605e-15 -0)
(1.2118e-29 -4.55605e-15 -0)
(2.23426e-29 -4.55605e-15 -0)
(7.95246e-30 -4.55605e-15 -0)
(4.92295e-30 -4.55605e-15 -0)
(6.43771e-30 -4.55605e-15 -0)
(3.78689e-31 -4.55605e-15 -0)
(-7.19509e-30 -4.55605e-15 -0)
(-7.95246e-30 -4.55605e-15 -0)
(4.54427e-30 -4.55605e-15 -0)
(8.70984e-30 -4.55605e-15 -0)
(1.13607e-30 -4.55605e-15 -0)
(-4.92295e-30 -4.55605e-15 -0)
(-0 -4.55605e-15 -0)
(-1.13607e-30 -4.55605e-15 -0)
(-1.43902e-29 -4.55605e-15 -0)
(-1.51476e-29 -4.55605e-15 -0)
(-1.24967e-29 -4.55605e-15 -0)
(-8.70984e-30 -4.55605e-15 -0)
(8.45601e-30 -4.55605e-15 -0)
(1.47061e-30 -4.55605e-15 -0)
(-1.17649e-29 -4.55605e-15 -0)
(-6.9854e-30 -4.55605e-15 -0)