/*--------------------------------*- C++ -*----------------------------------*\
| =========                 |                                                 |
| \\      /  F ield         | foam-extend: Open Source CFD                    |
|  \\    /   O peration     | Version:     4.0                                |
|   \\  /    A nd           | Web:         http://www.foam-extend.org         |
|    \\/     M anipulation  |                                                 |
\*---------------------------------------------------------------------------*/
FoamFile
{
    version     2.0;
    format      ascii;
    class       volVectorField;
    location    "11";
    object      bodyForce;
}
// * * * * * * * * * * * * * * * * * * * * * * * * * * * * * * * * * * * * * //

dimensions      [1 -2 -2 0 0 0 0];

internalField   nonuniform List<vector> 
6960
(
(2.58184e-31 -4.55607e-15 -0)
(1.93638e-31 -4.55607e-15 -0)
(9.22087e-33 -4.55607e-15 -0)
(-1.29092e-31 -4.55607e-15 -0)
(-9.22087e-33 -4.55607e-15 -0)
(3.87276e-31 -4.55607e-15 -0)
(1.29092e-31 -4.55607e-15 -0)
(-0 -4.55607e-15 -0)
(-9.22087e-32 -4.55607e-15 -0)
(-8.57541e-31 -4.55607e-15 -0)
(-4.05718e-31 -4.55607e-15 -0)
(2.21301e-31 -4.55607e-15 -0)
(-1.84417e-32 -4.55607e-15 -0)
(-2.02859e-31 -4.55607e-15 -0)
(-2.02859e-31 -4.55607e-15 -0)
(2.58184e-31 -4.55607e-15 -0)
(7.56111e-31 -4.55607e-15 -0)
(5.25589e-31 -4.55607e-15 -0)
(-1.47534e-31 -4.55607e-15 -0)
(-3.50393e-31 -4.55607e-15 -0)
(-1.84417e-31 -4.55607e-15 -0)
(1.29092e-31 -4.55607e-15 -0)
(3.78056e-31 -4.55607e-15 -0)
(-9.22087e-33 -4.55607e-15 -0)
(-2.39743e-31 -4.55607e-15 -0)
(-2.76626e-32 -4.55607e-15 -0)
(-3.96497e-31 -4.55607e-15 -0)
(-3.50393e-31 -4.55607e-15 -0)
(4.42602e-31 -4.55607e-15 -0)
(7.28448e-31 -4.55607e-15 -0)
(2.48963e-31 -4.55607e-15 -0)
(-5.80915e-31 -4.55607e-15 -0)
(-5.44031e-31 -4.55607e-15 -0)
(-1.93638e-31 -4.55607e-15 -0)
(7.37669e-32 -4.55607e-15 -0)
(4.61043e-32 -4.55607e-15 -0)
(-4.61043e-32 -4.55607e-15 -0)
(-1.75196e-31 -4.55607e-15 -0)
(-1.47534e-31 -4.55607e-15 -0)
(1.84417e-31 -4.55607e-15 -0)
(7.37669e-32 -4.55607e-15 -0)
(8.29878e-32 -4.55607e-15 -0)
(3.87276e-31 -4.55607e-15 -0)
(4.05718e-31 -4.55607e-15 -0)
(-3.68835e-32 -4.55607e-15 -0)
(3.68835e-32 -4.55607e-15 -0)
(1.65976e-31 -4.55607e-15 -0)
(-6.45461e-32 -4.55607e-15 -0)
(-2.30522e-31 -4.55607e-15 -0)
(3.68835e-32 -4.55607e-15 -0)
(3.2273e-31 -4.55607e-15 -0)
(3.50393e-31 -4.55607e-15 -0)
(1.1065e-31 -4.55607e-15 -0)
(-4.33381e-31 -4.55607e-15 -0)
(-2.48963e-31 -4.55607e-15 -0)
(-1.0143e-31 -4.55607e-15 -0)
(-5.71694e-31 -4.55607e-15 -0)
(-2.48963e-31 -4.55607e-15 -0)
(-1.93638e-31 -4.55607e-15 -0)
(-3.68835e-31 -4.55607e-15 -0)
(9.31023e-31 -4.55607e-15 -0)
(6.44554e-31 -4.55607e-15 -0)
(-1.07426e-31 -4.55607e-15 -0)
(-5.37129e-31 -4.55607e-15 -0)
(-1.07426e-31 -4.55607e-15 -0)
(1.18168e-30 -4.55607e-15 -0)
(3.93894e-31 -4.55607e-15 -0)
(-3.58086e-32 -4.55607e-15 -0)
(-1.07426e-31 -4.55607e-15 -0)
(-2.39918e-30 -4.55607e-15 -0)
(-1.28911e-30 -4.55607e-15 -0)
(6.08746e-31 -4.55607e-15 -0)
(-0 -4.55607e-15 -0)
(-6.44554e-31 -4.55607e-15 -0)
(-6.08746e-31 -4.55607e-15 -0)
(6.80363e-31 -4.55607e-15 -0)
(2.22013e-30 -4.55607e-15 -0)
(1.75462e-30 -4.55607e-15 -0)
(-4.65512e-31 -4.55607e-15 -0)
(-1.07426e-30 -4.55607e-15 -0)
(-6.08746e-31 -4.55607e-15 -0)
(3.22277e-31 -4.55607e-15 -0)
(1.11007e-30 -4.55607e-15 -0)
(1.07426e-31 -4.55607e-15 -0)
(-7.87789e-31 -4.55607e-15 -0)
(-1.79043e-31 -4.55607e-15 -0)
(-1.2533e-30 -4.55607e-15 -0)
(-8.59406e-31 -4.55607e-15 -0)
(1.43234e-30 -4.55607e-15 -0)
(2.11271e-30 -4.55607e-15 -0)
(6.80363e-31 -4.55607e-15 -0)
(-1.71881e-30 -4.55607e-15 -0)
(-1.683e-30 -4.55607e-15 -0)
(-6.80363e-31 -4.55607e-15 -0)
(2.5066e-31 -4.55607e-15 -0)
(2.86469e-31 -4.55607e-15 -0)
(-1.43234e-31 -4.55607e-15 -0)
(-6.80363e-31 -4.55607e-15 -0)
(-2.86469e-31 -4.55607e-15 -0)
(5.0132e-31 -4.55607e-15 -0)
(-3.58086e-32 -4.55607e-15 -0)
(2.86469e-31 -4.55607e-15 -0)
(1.2533e-30 -4.55607e-15 -0)
(1.14587e-30 -4.55607e-15 -0)
(-3.58086e-32 -4.55607e-15 -0)
(7.16172e-32 -4.55607e-15 -0)
(5.0132e-31 -4.55607e-15 -0)
(-7.16172e-32 -4.55607e-15 -0)
(-6.80363e-31 -4.55607e-15 -0)
(1.43234e-31 -4.55607e-15 -0)
(1.00264e-30 -4.55607e-15 -0)
(1.00264e-30 -4.55607e-15 -0)
(3.58086e-31 -4.55607e-15 -0)
(-1.2533e-30 -4.55607e-15 -0)
(-7.87789e-31 -4.55607e-15 -0)
(-2.86469e-31 -4.55607e-15 -0)
(-1.75462e-30 -4.55607e-15 -0)
(-8.23597e-31 -4.55607e-15 -0)
(-5.72937e-31 -4.55607e-15 -0)
(-9.66832e-31 -4.55607e-15 -0)
(1.46013e-30 -4.55606e-15 -0)
(9.73421e-31 -4.55606e-15 -0)
(-0 -4.55606e-15 -0)
(-4.8671e-31 -4.55606e-15 -0)
(-3.4765e-31 -4.55606e-15 -0)
(1.94684e-30 -4.55606e-15 -0)
(7.6483e-31 -4.55606e-15 -0)
(-0 -4.55606e-15 -0)
(-2.0859e-31 -4.55606e-15 -0)
(-4.38039e-30 -4.55606e-15 -0)
(-2.15543e-30 -4.55606e-15 -0)
(1.11248e-30 -4.55606e-15 -0)
(-2.0859e-31 -4.55606e-15 -0)
(-1.11248e-30 -4.55606e-15 -0)
(-6.2577e-31 -4.55606e-15 -0)
(1.25154e-30 -4.55606e-15 -0)
(3.4765e-30 -4.55606e-15 -0)
(2.85073e-30 -4.55606e-15 -0)
(-8.34361e-31 -4.55606e-15 -0)
(-1.73825e-30 -4.55606e-15 -0)
(-7.6483e-31 -4.55606e-15 -0)
(4.1718e-31 -4.55606e-15 -0)
(1.66872e-30 -4.55606e-15 -0)
(1.3906e-31 -4.55606e-15 -0)
(-1.3906e-30 -4.55606e-15 -0)
(-0 -4.55606e-15 -0)
(-1.87731e-30 -4.55606e-15 -0)
(-1.59919e-30 -4.55606e-15 -0)
(2.22496e-30 -4.55606e-15 -0)
(3.54603e-30 -4.55606e-15 -0)
(1.32107e-30 -4.55606e-15 -0)
(-2.85073e-30 -4.55606e-15 -0)
(-2.98979e-30 -4.55606e-15 -0)
(-9.73421e-31 -4.55606e-15 -0)
(2.7812e-31 -4.55606e-15 -0)
(4.8671e-31 -4.55606e-15 -0)
(-1.3906e-31 -4.55606e-15 -0)
(-1.18201e-30 -4.55606e-15 -0)
(-6.2577e-31 -4.55606e-15 -0)
(9.03891e-31 -4.55606e-15 -0)
(2.7812e-31 -4.55606e-15 -0)
(4.8671e-31 -4.55606e-15 -0)
(1.94684e-30 -4.55606e-15 -0)
(1.73825e-30 -4.55606e-15 -0)
(-6.953e-32 -4.55606e-15 -0)
(2.7812e-31 -4.55606e-15 -0)
(8.34361e-31 -4.55606e-15 -0)
(-6.953e-32 -4.55606e-15 -0)
(-1.11248e-30 -4.55606e-15 -0)
(3.4765e-31 -4.55606e-15 -0)
(1.46013e-30 -4.55606e-15 -0)
(1.59919e-30 -4.55606e-15 -0)
(6.2577e-31 -4.55606e-15 -0)
(-2.15543e-30 -4.55606e-15 -0)
(-1.32107e-30 -4.55606e-15 -0)
(-4.8671e-31 -4.55606e-15 -0)
(-2.85073e-30 -4.55606e-15 -0)
(-1.25154e-30 -4.55606e-15 -0)
(-9.73421e-31 -4.55606e-15 -0)
(-1.80778e-30 -4.55606e-15 -0)
(1.8901e-30 -4.55606e-15 -0)
(1.48508e-30 -4.55606e-15 -0)
(-2.70015e-31 -4.55606e-15 -0)
(-8.10045e-31 -4.55606e-15 -0)
(-0 -4.55606e-15 -0)
(2.49764e-30 -4.55606e-15 -0)
(1.14756e-30 -4.55606e-15 -0)
(3.37519e-31 -4.55606e-15 -0)
(-7.42541e-31 -4.55606e-15 -0)
(-6.54786e-30 -4.55606e-15 -0)
(-3.03767e-30 -4.55606e-15 -0)
(1.7551e-30 -4.55606e-15 -0)
(-6.75037e-32 -4.55606e-15 -0)
(-1.28257e-30 -4.55606e-15 -0)
(-1.21507e-30 -4.55606e-15 -0)
(1.55259e-30 -4.55606e-15 -0)
(5.19779e-30 -4.55606e-15 -0)
(3.98272e-30 -4.55606e-15 -0)
(-1.35007e-30 -4.55606e-15 -0)
(-2.43013e-30 -4.55606e-15 -0)
(-1.28257e-30 -4.55606e-15 -0)
(1.08006e-30 -4.55606e-15 -0)
(2.63265e-30 -4.55606e-15 -0)
(-0 -4.55606e-15 -0)
(-1.8901e-30 -4.55606e-15 -0)
(-1.35007e-31 -4.55606e-15 -0)
(-2.56514e-30 -4.55606e-15 -0)
(-2.63265e-30 -4.55606e-15 -0)
(3.24018e-30 -4.55606e-15 -0)
(5.4003e-30 -4.55606e-15 -0)
(1.68759e-30 -4.55606e-15 -0)
(-4.38774e-30 -4.55606e-15 -0)
(-3.98272e-30 -4.55606e-15 -0)
(-1.35007e-30 -4.55606e-15 -0)
(3.37519e-31 -4.55606e-15 -0)
(5.4003e-31 -4.55606e-15 -0)
(-3.37519e-31 -4.55606e-15 -0)
(-1.55259e-30 -4.55606e-15 -0)
(-7.42541e-31 -4.55606e-15 -0)
(1.14756e-30 -4.55606e-15 -0)
(4.05022e-31 -4.55606e-15 -0)
(6.07534e-31 -4.55606e-15 -0)
(3.03767e-30 -4.55606e-15 -0)
(2.90266e-30 -4.55606e-15 -0)
(2.70015e-31 -4.55606e-15 -0)
(6.75037e-32 -4.55606e-15 -0)
(8.10045e-31 -4.55606e-15 -0)
(-4.05022e-31 -4.55606e-15 -0)
(-1.62009e-30 -4.55606e-15 -0)
(4.72526e-31 -4.55606e-15 -0)
(2.63265e-30 -4.55606e-15 -0)
(2.36263e-30 -4.55606e-15 -0)
(6.75037e-31 -4.55606e-15 -0)
(-3.17268e-30 -4.55606e-15 -0)
(-1.8226e-30 -4.55606e-15 -0)
(-7.42541e-31 -4.55606e-15 -0)
(-4.18523e-30 -4.55606e-15 -0)
(-1.7551e-30 -4.55606e-15 -0)
(-1.28257e-30 -4.55606e-15 -0)
(-2.36263e-30 -4.55606e-15 -0)
(2.62146e-30 -4.55606e-15 -0)
(2.09717e-30 -4.55606e-15 -0)
(-0 -4.55606e-15 -0)
(-1.04858e-30 -4.55606e-15 -0)
(-5.24292e-31 -4.55606e-15 -0)
(3.53897e-30 -4.55606e-15 -0)
(1.9661e-30 -4.55606e-15 -0)
(-0 -4.55606e-15 -0)
(-1.31073e-30 -4.55606e-15 -0)
(-7.73331e-30 -4.55606e-15 -0)
(-3.93219e-30 -4.55606e-15 -0)
(1.83502e-30 -4.55606e-15 -0)
(1.31073e-31 -4.55606e-15 -0)
(-1.70395e-30 -4.55606e-15 -0)
(-1.4418e-30 -4.55606e-15 -0)
(1.9661e-30 -4.55606e-15 -0)
(6.55365e-30 -4.55606e-15 -0)
(5.76721e-30 -4.55606e-15 -0)
(-1.57288e-30 -4.55606e-15 -0)
(-3.53897e-30 -4.55606e-15 -0)
(-1.83502e-30 -4.55606e-15 -0)
(1.04858e-30 -4.55606e-15 -0)
(3.14575e-30 -4.55606e-15 -0)
(5.24292e-31 -4.55606e-15 -0)
(-1.83502e-30 -4.55606e-15 -0)
(-5.24292e-31 -4.55606e-15 -0)
(-3.53897e-30 -4.55606e-15 -0)
(-2.88361e-30 -4.55606e-15 -0)
(3.93219e-30 -4.55606e-15 -0)
(6.55365e-30 -4.55606e-15 -0)
(2.09717e-30 -4.55606e-15 -0)
(-5.24292e-30 -4.55606e-15 -0)
(-5.50507e-30 -4.55606e-15 -0)
(-1.9661e-30 -4.55606e-15 -0)
(7.86438e-31 -4.55606e-15 -0)
(6.55365e-31 -4.55606e-15 -0)
(-1.31073e-31 -4.55606e-15 -0)
(-1.9661e-30 -4.55606e-15 -0)
(-1.04858e-30 -4.55606e-15 -0)
(1.70395e-30 -4.55606e-15 -0)
(2.62146e-31 -4.55606e-15 -0)
(5.24292e-31 -4.55606e-15 -0)
(3.80112e-30 -4.55606e-15 -0)
(3.53897e-30 -4.55606e-15 -0)
(-1.31073e-31 -4.55606e-15 -0)
(2.62146e-31 -4.55606e-15 -0)
(1.83502e-30 -4.55606e-15 -0)
(-1.31073e-31 -4.55606e-15 -0)
(-1.9661e-30 -4.55606e-15 -0)
(5.24292e-31 -4.55606e-15 -0)
(2.75253e-30 -4.55606e-15 -0)
(2.88361e-30 -4.55606e-15 -0)
(1.04858e-30 -4.55606e-15 -0)
(-3.93219e-30 -4.55606e-15 -0)
(-2.35931e-30 -4.55606e-15 -0)
(-1.17966e-30 -4.55606e-15 -0)
(-5.24292e-30 -4.55606e-15 -0)
(-2.22824e-30 -4.55606e-15 -0)
(-1.9661e-30 -4.55606e-15 -0)
(-3.14575e-30 -4.55606e-15 -0)
(3.30858e-30 -4.55606e-15 -0)
(2.29056e-30 -4.55606e-15 -0)
(-3.8176e-31 -4.55606e-15 -0)
(-1.39978e-30 -4.55606e-15 -0)
(-2.54506e-31 -4.55606e-15 -0)
(4.32661e-30 -4.55606e-15 -0)
(2.29056e-30 -4.55606e-15 -0)
(2.54506e-31 -4.55606e-15 -0)
(-1.65429e-30 -4.55606e-15 -0)
(-9.41674e-30 -4.55606e-15 -0)
(-4.32661e-30 -4.55606e-15 -0)
(2.03605e-30 -4.55606e-15 -0)
(-1.27253e-31 -4.55606e-15 -0)
(-2.54506e-30 -4.55606e-15 -0)
(-2.03605e-30 -4.55606e-15 -0)
(2.79957e-30 -4.55606e-15 -0)
(7.8897e-30 -4.55606e-15 -0)
(6.61717e-30 -4.55606e-15 -0)
(-1.27253e-30 -4.55606e-15 -0)
(-3.8176e-30 -4.55606e-15 -0)
(-2.67232e-30 -4.55606e-15 -0)
(1.39978e-30 -4.55606e-15 -0)
(4.19935e-30 -4.55606e-15 -0)
(2.54506e-31 -4.55606e-15 -0)
(-2.67232e-30 -4.55606e-15 -0)
(-2.54506e-31 -4.55606e-15 -0)
(-4.45386e-30 -4.55606e-15 -0)
(-3.94485e-30 -4.55606e-15 -0)
(5.34463e-30 -4.55606e-15 -0)
(8.1442e-30 -4.55606e-15 -0)
(2.41781e-30 -4.55606e-15 -0)
(-6.48991e-30 -4.55606e-15 -0)
(-6.87167e-30 -4.55606e-15 -0)
(-2.41781e-30 -4.55606e-15 -0)
(1.39978e-30 -4.55606e-15 -0)
(1.14528e-30 -4.55606e-15 -0)
(-6.36266e-31 -4.55606e-15 -0)
(-3.05408e-30 -4.55606e-15 -0)
(-1.39978e-30 -4.55606e-15 -0)
(2.41781e-30 -4.55606e-15 -0)
(3.8176e-31 -4.55606e-15 -0)
(1.01803e-30 -4.55606e-15 -0)
(4.19935e-30 -4.55606e-15 -0)
(4.19935e-30 -4.55606e-15 -0)
(2.54506e-31 -4.55606e-15 -0)
(6.36266e-31 -4.55606e-15 -0)
(1.9088e-30 -4.55606e-15 -0)
(-3.8176e-31 -4.55606e-15 -0)
(-3.05408e-30 -4.55606e-15 -0)
(5.09013e-31 -4.55606e-15 -0)
(4.45386e-30 -4.55606e-15 -0)
(3.43584e-30 -4.55606e-15 -0)
(1.01803e-30 -4.55606e-15 -0)
(-4.45386e-30 -4.55606e-15 -0)
(-3.05408e-30 -4.55606e-15 -0)
(-1.39978e-30 -4.55606e-15 -0)
(-6.23541e-30 -4.55606e-15 -0)
(-2.92682e-30 -4.55606e-15 -0)
(-2.92682e-30 -4.55606e-15 -0)
(-4.0721e-30 -4.55606e-15 -0)
(3.5828e-30 -4.55606e-15 -0)
(2.96507e-30 -4.55606e-15 -0)
(-0 -4.55606e-15 -0)
(-1.72963e-30 -4.55606e-15 -0)
(-1.23545e-31 -4.55606e-15 -0)
(4.94179e-30 -4.55606e-15 -0)
(2.10026e-30 -4.55606e-15 -0)
(3.70634e-31 -4.55606e-15 -0)
(-1.48254e-30 -4.55606e-15 -0)
(-1.19838e-29 -4.55606e-15 -0)
(-5.31242e-30 -4.55606e-15 -0)
(2.96507e-30 -4.55606e-15 -0)
(-8.64813e-31 -4.55606e-15 -0)
(-2.10026e-30 -4.55606e-15 -0)
(-1.60608e-30 -4.55606e-15 -0)
(2.96507e-30 -4.55606e-15 -0)
(1.00071e-29 -4.55606e-15 -0)
(7.90686e-30 -4.55606e-15 -0)
(-2.10026e-30 -4.55606e-15 -0)
(-5.06533e-30 -4.55606e-15 -0)
(-2.47089e-30 -4.55606e-15 -0)
(2.10026e-30 -4.55606e-15 -0)
(4.81824e-30 -4.55606e-15 -0)
(-2.47089e-31 -4.55606e-15 -0)
(-3.33571e-30 -4.55606e-15 -0)
(-2.47089e-31 -4.55606e-15 -0)
(-4.94179e-30 -4.55606e-15 -0)
(-4.81824e-30 -4.55606e-15 -0)
(6.9185e-30 -4.55606e-15 -0)
(1.00071e-29 -4.55606e-15 -0)
(2.10026e-30 -4.55606e-15 -0)
(-8.0304e-30 -4.55606e-15 -0)
(-7.65977e-30 -4.55606e-15 -0)
(-3.5828e-30 -4.55606e-15 -0)
(1.1119e-30 -4.55606e-15 -0)
(1.60608e-30 -4.55606e-15 -0)
(-7.41268e-31 -4.55606e-15 -0)
(-3.33571e-30 -4.55606e-15 -0)
(-1.48254e-30 -4.55606e-15 -0)
(2.71798e-30 -4.55606e-15 -0)
(7.41268e-31 -4.55606e-15 -0)
(1.48254e-30 -4.55606e-15 -0)
(5.18888e-30 -4.55606e-15 -0)
(5.68305e-30 -4.55606e-15 -0)
(2.47089e-31 -4.55606e-15 -0)
(1.23545e-31 -4.55606e-15 -0)
(1.97671e-30 -4.55606e-15 -0)
(-4.94179e-31 -4.55606e-15 -0)
(-2.84153e-30 -4.55606e-15 -0)
(9.88357e-31 -4.55606e-15 -0)
(4.81824e-30 -4.55606e-15 -0)
(3.95343e-30 -4.55606e-15 -0)
(6.17723e-31 -4.55606e-15 -0)
(-5.8066e-30 -4.55606e-15 -0)
(-3.33571e-30 -4.55606e-15 -0)
(-1.23545e-30 -4.55606e-15 -0)
(-7.41268e-30 -4.55606e-15 -0)
(-3.95343e-30 -4.55606e-15 -0)
(-3.33571e-30 -4.55606e-15 -0)
(-4.57115e-30 -4.55606e-15 -0)
(3.11855e-30 -4.55606e-15 -0)
(3.35844e-30 -4.55606e-15 -0)
(2.39888e-31 -4.55606e-15 -0)
(-2.39888e-30 -4.55606e-15 -0)
(-0 -4.55606e-15 -0)
(6.95677e-30 -4.55606e-15 -0)
(2.63877e-30 -4.55606e-15 -0)
(4.79777e-31 -4.55606e-15 -0)
(-2.63877e-30 -4.55606e-15 -0)
(-1.41534e-29 -4.55606e-15 -0)
(-6.71688e-30 -4.55606e-15 -0)
(3.35844e-30 -4.55606e-15 -0)
(-2.39888e-31 -4.55606e-15 -0)
(-3.35844e-30 -4.55606e-15 -0)
(-2.159e-30 -4.55606e-15 -0)
(4.79777e-30 -4.55606e-15 -0)
(1.12748e-29 -4.55606e-15 -0)
(8.15621e-30 -4.55606e-15 -0)
(-2.87866e-30 -4.55606e-15 -0)
(-6.2371e-30 -4.55606e-15 -0)
(-2.63877e-30 -4.55606e-15 -0)
(3.11855e-30 -4.55606e-15 -0)
(5.27755e-30 -4.55606e-15 -0)
(-0 -4.55606e-15 -0)
(-3.11855e-30 -4.55606e-15 -0)
(2.39888e-31 -4.55606e-15 -0)
(-7.19665e-30 -4.55606e-15 -0)
(-6.47699e-30 -4.55606e-15 -0)
(8.63598e-30 -4.55606e-15 -0)
(1.24742e-29 -4.55606e-15 -0)
(2.87866e-30 -4.55606e-15 -0)
(-1.00753e-29 -4.55606e-15 -0)
(-9.35565e-30 -4.55606e-15 -0)
(-3.11855e-30 -4.55606e-15 -0)
(1.19944e-30 -4.55606e-15 -0)
(1.91911e-30 -4.55606e-15 -0)
(-2.39888e-31 -4.55606e-15 -0)
(-3.59833e-30 -4.55606e-15 -0)
(-2.159e-30 -4.55606e-15 -0)
(3.11855e-30 -4.55606e-15 -0)
(1.19944e-30 -4.55606e-15 -0)
(1.19944e-30 -4.55606e-15 -0)
(5.75732e-30 -4.55606e-15 -0)
(6.47699e-30 -4.55606e-15 -0)
(-0 -4.55606e-15 -0)
(2.39888e-31 -4.55606e-15 -0)
(1.91911e-30 -4.55606e-15 -0)
(2.39888e-31 -4.55606e-15 -0)
(-3.35844e-30 -4.55606e-15 -0)
(2.39888e-31 -4.55606e-15 -0)
(5.99721e-30 -4.55606e-15 -0)
(4.55788e-30 -4.55606e-15 -0)
(1.19944e-30 -4.55606e-15 -0)
(-5.99721e-30 -4.55606e-15 -0)
(-3.83822e-30 -4.55606e-15 -0)
(-2.39888e-30 -4.55606e-15 -0)
(-9.35565e-30 -4.55606e-15 -0)
(-4.31799e-30 -4.55606e-15 -0)
(-4.31799e-30 -4.55606e-15 -0)
(-5.27755e-30 -4.55606e-15 -0)
(4.19215e-30 -4.55606e-15 -0)
(5.12374e-30 -4.55606e-15 -0)
(-2.32897e-31 -4.55606e-15 -0)
(-3.02767e-30 -4.55606e-15 -0)
(-4.65795e-31 -4.55606e-15 -0)
(6.75403e-30 -4.55606e-15 -0)
(4.19215e-30 -4.55606e-15 -0)
(-0 -4.55606e-15 -0)
(-4.19215e-30 -4.55606e-15 -0)
(-1.51383e-29 -4.55606e-15 -0)
(-6.05533e-30 -4.55606e-15 -0)
(2.79477e-30 -4.55606e-15 -0)
(-2.32897e-31 -4.55606e-15 -0)
(-3.26056e-30 -4.55606e-15 -0)
(-2.32897e-30 -4.55606e-15 -0)
(4.19215e-30 -4.55606e-15 -0)
(1.28094e-29 -4.55606e-15 -0)
(1.02475e-29 -4.55606e-15 -0)
(-2.56187e-30 -4.55606e-15 -0)
(-6.05533e-30 -4.55606e-15 -0)
(-3.26056e-30 -4.55606e-15 -0)
(2.09608e-30 -4.55606e-15 -0)
(5.12374e-30 -4.55606e-15 -0)
(2.32897e-31 -4.55606e-15 -0)
(-3.02767e-30 -4.55606e-15 -0)
(-4.65795e-31 -4.55606e-15 -0)
(-6.98692e-30 -4.55606e-15 -0)
(-5.58954e-30 -4.55606e-15 -0)
(8.61721e-30 -4.55606e-15 -0)
(1.30423e-29 -4.55606e-15 -0)
(4.19215e-30 -4.55606e-15 -0)
(-1.09462e-29 -4.55606e-15 -0)
(-1.16449e-29 -4.55606e-15 -0)
(-4.19215e-30 -4.55606e-15 -0)
(2.32897e-30 -4.55606e-15 -0)
(1.86318e-30 -4.55606e-15 -0)
(-1.16449e-30 -4.55606e-15 -0)
(-3.95926e-30 -4.55606e-15 -0)
(-1.86318e-30 -4.55606e-15 -0)
(3.49346e-30 -4.55606e-15 -0)
(4.65795e-31 -4.55606e-15 -0)
(1.16449e-30 -4.55606e-15 -0)
(7.45272e-30 -4.55606e-15 -0)
(6.28823e-30 -4.55606e-15 -0)
(4.65795e-31 -4.55606e-15 -0)
(1.39738e-30 -4.55606e-15 -0)
(2.79477e-30 -4.55606e-15 -0)
(6.98692e-31 -4.55606e-15 -0)
(-3.95926e-30 -4.55606e-15 -0)
(2.32897e-31 -4.55606e-15 -0)
(6.05533e-30 -4.55606e-15 -0)
(5.82244e-30 -4.55606e-15 -0)
(1.39738e-30 -4.55606e-15 -0)
(-7.91851e-30 -4.55606e-15 -0)
(-3.95926e-30 -4.55606e-15 -0)
(-2.32897e-30 -4.55606e-15 -0)
(-1.07133e-29 -4.55606e-15 -0)
(-5.35664e-30 -4.55606e-15 -0)
(-5.12374e-30 -4.55606e-15 -0)
(-6.52113e-30 -4.55606e-15 -0)
(4.5222e-30 -4.55606e-15 -0)
(4.29609e-30 -4.55606e-15 -0)
(-9.04441e-31 -4.55606e-15 -0)
(-3.39165e-30 -4.55606e-15 -0)
(2.2611e-31 -4.55606e-15 -0)
(8.13997e-30 -4.55606e-15 -0)
(4.5222e-30 -4.55606e-15 -0)
(9.04441e-31 -4.55606e-15 -0)
(-4.74831e-30 -4.55606e-15 -0)
(-1.8541e-29 -4.55606e-15 -0)
(-6.55719e-30 -4.55606e-15 -0)
(3.61776e-30 -4.55606e-15 -0)
(-2.03499e-30 -4.55606e-15 -0)
(-2.93943e-30 -4.55606e-15 -0)
(-2.48721e-30 -4.55606e-15 -0)
(5.65275e-30 -4.55606e-15 -0)
(1.49233e-29 -4.55606e-15 -0)
(1.04011e-29 -4.55606e-15 -0)
(-2.71332e-30 -4.55606e-15 -0)
(-7.00942e-30 -4.55606e-15 -0)
(-3.61776e-30 -4.55606e-15 -0)
(2.48721e-30 -4.55606e-15 -0)
(6.33108e-30 -4.55606e-15 -0)
(-4.5222e-31 -4.55606e-15 -0)
(-4.29609e-30 -4.55606e-15 -0)
(-2.2611e-31 -4.55606e-15 -0)
(-8.36608e-30 -4.55606e-15 -0)
(-7.00942e-30 -4.55606e-15 -0)
(1.08533e-29 -4.55606e-15 -0)
(1.51494e-29 -4.55606e-15 -0)
(4.5222e-30 -4.55606e-15 -0)
(-1.19838e-29 -4.55606e-15 -0)
(-1.35666e-29 -4.55606e-15 -0)
(-4.97442e-30 -4.55606e-15 -0)
(3.16554e-30 -4.55606e-15 -0)
(2.2611e-30 -4.55606e-15 -0)
(-1.13055e-30 -4.55606e-15 -0)
(-5.87886e-30 -4.55606e-15 -0)
(-1.80888e-30 -4.55606e-15 -0)
(5.20053e-30 -4.55606e-15 -0)
(-0 -4.55606e-15 -0)
(1.80888e-30 -4.55606e-15 -0)
(8.13997e-30 -4.55606e-15 -0)
(6.7833e-30 -4.55606e-15 -0)
(6.7833e-31 -4.55606e-15 -0)
(1.58277e-30 -4.55606e-15 -0)
(3.61776e-30 -4.55606e-15 -0)
(6.7833e-31 -4.55606e-15 -0)
(-4.97442e-30 -4.55606e-15 -0)
(-4.5222e-31 -4.55606e-15 -0)
(6.55719e-30 -4.55606e-15 -0)
(6.33108e-30 -4.55606e-15 -0)
(2.03499e-30 -4.55606e-15 -0)
(-7.91386e-30 -4.55606e-15 -0)
(-4.74831e-30 -4.55606e-15 -0)
(-2.48721e-30 -4.55606e-15 -0)
(-1.15316e-29 -4.55606e-15 -0)
(-6.7833e-30 -4.55606e-15 -0)
(-6.7833e-30 -4.55606e-15 -0)
(-7.23553e-30 -4.55606e-15 -0)
(4.82945e-30 -4.55606e-15 -0)
(5.48802e-30 -4.55606e-15 -0)
(2.19521e-31 -4.55606e-15 -0)
(-3.95137e-30 -4.55606e-15 -0)
(-4.39041e-31 -4.55606e-15 -0)
(8.78083e-30 -4.55606e-15 -0)
(4.82945e-30 -4.55606e-15 -0)
(-2.19521e-31 -4.55606e-15 -0)
(-5.2685e-30 -4.55606e-15 -0)
(-1.95373e-29 -4.55606e-15 -0)
(-6.58562e-30 -4.55606e-15 -0)
(4.39041e-30 -4.55606e-15 -0)
(-1.75617e-30 -4.55606e-15 -0)
(-4.39041e-30 -4.55606e-15 -0)
(-2.19521e-30 -4.55606e-15 -0)
(5.48802e-30 -4.55606e-15 -0)
(1.66836e-29 -4.55606e-15 -0)
(1.29517e-29 -4.55606e-15 -0)
(-3.73185e-30 -4.55606e-15 -0)
(-7.02466e-30 -4.55606e-15 -0)
(-4.39041e-30 -4.55606e-15 -0)
(2.63425e-30 -4.55606e-15 -0)
(7.02466e-30 -4.55606e-15 -0)
(-1.0976e-30 -4.55606e-15 -0)
(-4.82945e-30 -4.55606e-15 -0)
(-2.19521e-31 -4.55606e-15 -0)
(-9.87843e-30 -4.55606e-15 -0)
(-7.4637e-30 -4.55606e-15 -0)
(1.25127e-29 -4.55606e-15 -0)
(1.71226e-29 -4.55606e-15 -0)
(4.17089e-30 -4.55606e-15 -0)
(-1.40493e-29 -4.55606e-15 -0)
(-1.38298e-29 -4.55606e-15 -0)
(-5.04898e-30 -4.55606e-15 -0)
(2.63425e-30 -4.55606e-15 -0)
(2.41473e-30 -4.55606e-15 -0)
(-1.75617e-30 -4.55606e-15 -0)
(-6.14658e-30 -4.55606e-15 -0)
(-1.31712e-30 -4.55606e-15 -0)
(5.2685e-30 -4.55606e-15 -0)
(-2.41473e-30 -4.55606e-15 -0)
(1.53664e-30 -4.55606e-15 -0)
(1.0098e-29 -4.55606e-15 -0)
(8.34179e-30 -4.55606e-15 -0)
(1.75617e-30 -4.55606e-15 -0)
(1.97569e-30 -4.55606e-15 -0)
(3.07329e-30 -4.55606e-15 -0)
(4.39041e-31 -4.55606e-15 -0)
(-5.48802e-30 -4.55606e-15 -0)
(-4.39041e-31 -4.55606e-15 -0)
(8.34179e-30 -4.55606e-15 -0)
(7.90274e-30 -4.55606e-15 -0)
(2.41473e-30 -4.55606e-15 -0)
(-9.43939e-30 -4.55606e-15 -0)
(-5.48802e-30 -4.55606e-15 -0)
(-2.19521e-30 -4.55606e-15 -0)
(-1.27322e-29 -4.55606e-15 -0)
(-8.12227e-30 -4.55606e-15 -0)
(-8.34179e-30 -4.55606e-15 -0)
(-8.56131e-30 -4.55606e-15 -0)
(4.90183e-30 -4.55605e-15 -0)
(5.96745e-30 -4.55605e-15 -0)
(2.13123e-31 -4.55605e-15 -0)
(-4.04934e-30 -4.55605e-15 -0)
(-0 -4.55605e-15 -0)
(9.80367e-30 -4.55605e-15 -0)
(5.32808e-30 -4.55605e-15 -0)
(6.3937e-31 -4.55605e-15 -0)
(-6.81994e-30 -4.55605e-15 -0)
(-2.19517e-29 -4.55605e-15 -0)
(-5.96745e-30 -4.55605e-15 -0)
(4.47559e-30 -4.55605e-15 -0)
(-3.19685e-30 -4.55605e-15 -0)
(-3.83622e-30 -4.55605e-15 -0)
(-2.7706e-30 -4.55605e-15 -0)
(6.60682e-30 -4.55605e-15 -0)
(1.91811e-29 -4.55605e-15 -0)
(1.17218e-29 -4.55605e-15 -0)
(-3.40997e-30 -4.55605e-15 -0)
(-6.60682e-30 -4.55605e-15 -0)
(-4.68871e-30 -4.55605e-15 -0)
(3.62309e-30 -4.55605e-15 -0)
(7.24619e-30 -4.55605e-15 -0)
(-1.70499e-30 -4.55605e-15 -0)
(-4.68871e-30 -4.55605e-15 -0)
(-1.27874e-30 -4.55605e-15 -0)
(-1.17218e-29 -4.55605e-15 -0)
(-7.45931e-30 -4.55605e-15 -0)
(1.32136e-29 -4.55605e-15 -0)
(1.87548e-29 -4.55605e-15 -0)
(5.5412e-30 -4.55605e-15 -0)
(-1.53449e-29 -4.55605e-15 -0)
(-1.59842e-29 -4.55605e-15 -0)
(-5.11496e-30 -4.55605e-15 -0)
(3.62309e-30 -4.55605e-15 -0)
(2.13123e-30 -4.55605e-15 -0)
(-2.7706e-30 -4.55605e-15 -0)
(-6.3937e-30 -4.55605e-15 -0)
(-1.70499e-30 -4.55605e-15 -0)
(5.32808e-30 -4.55605e-15 -0)
(-1.70499e-30 -4.55605e-15 -0)
(1.70499e-30 -4.55605e-15 -0)
(1.00168e-29 -4.55605e-15 -0)
(1.08693e-29 -4.55605e-15 -0)
(1.70499e-30 -4.55605e-15 -0)
(1.27874e-30 -4.55605e-15 -0)
(4.26246e-30 -4.55605e-15 -0)
(2.13123e-31 -4.55605e-15 -0)
(-6.60682e-30 -4.55605e-15 -0)
(-4.26246e-31 -4.55605e-15 -0)
(1.06562e-29 -4.55605e-15 -0)
(8.52493e-30 -4.55605e-15 -0)
(1.49186e-30 -4.55605e-15 -0)
(-1.0443e-29 -4.55605e-15 -0)
(-5.75433e-30 -4.55605e-15 -0)
(-1.91811e-30 -4.55605e-15 -0)
(-1.34268e-29 -4.55605e-15 -0)
(-9.37742e-30 -4.55605e-15 -0)
(-9.59054e-30 -4.55605e-15 -0)
(-9.59055e-30 -4.55605e-15 -0)
(5.37972e-30 -4.55605e-15 -0)
(7.03502e-30 -4.55605e-15 -0)
(-4.13824e-31 -4.55605e-15 -0)
(-4.13824e-30 -4.55605e-15 -0)
(1.24147e-30 -4.55605e-15 -0)
(1.11733e-29 -4.55605e-15 -0)
(7.03502e-30 -4.55605e-15 -0)
(-8.27649e-31 -4.55605e-15 -0)
(-9.10414e-30 -4.55605e-15 -0)
(-2.56571e-29 -4.55605e-15 -0)
(-6.62119e-30 -4.55605e-15 -0)
(5.79354e-30 -4.55605e-15 -0)
(-3.3106e-30 -4.55605e-15 -0)
(-2.89677e-30 -4.55605e-15 -0)
(-2.89677e-30 -4.55605e-15 -0)
(6.62119e-30 -4.55605e-15 -0)
(2.15189e-29 -4.55605e-15 -0)
(1.36562e-29 -4.55605e-15 -0)
(-3.72442e-30 -4.55605e-15 -0)
(-8.27649e-30 -4.55605e-15 -0)
(-5.79354e-30 -4.55605e-15 -0)
(4.55207e-30 -4.55605e-15 -0)
(9.93179e-30 -4.55605e-15 -0)
(-2.06912e-30 -4.55605e-15 -0)
(-7.03502e-30 -4.55605e-15 -0)
(8.27649e-31 -4.55605e-15 -0)
(-1.20009e-29 -4.55605e-15 -0)
(-1.07594e-29 -4.55605e-15 -0)
(1.53115e-29 -4.55605e-15 -0)
(1.98636e-29 -4.55605e-15 -0)
(4.55207e-30 -4.55605e-15 -0)
(-1.73806e-29 -4.55605e-15 -0)
(-1.69668e-29 -4.55605e-15 -0)
(-6.62119e-30 -4.55605e-15 -0)
(4.13824e-30 -4.55605e-15 -0)
(2.89677e-30 -4.55605e-15 -0)
(-3.72442e-30 -4.55605e-15 -0)
(-7.03501e-30 -4.55605e-15 -0)
(-1.6553e-30 -4.55605e-15 -0)
(4.96589e-30 -4.55605e-15 -0)
(-4.13824e-31 -4.55605e-15 -0)
(3.3106e-30 -4.55605e-15 -0)
(1.15871e-29 -4.55605e-15 -0)
(1.15871e-29 -4.55605e-15 -0)
(3.3106e-30 -4.55605e-15 -0)
(2.06912e-30 -4.55605e-15 -0)
(2.89677e-30 -4.55605e-15 -0)
(-4.13824e-31 -4.55605e-15 -0)
(-7.03502e-30 -4.55605e-15 -0)
(-8.27649e-31 -4.55605e-15 -0)
(9.93179e-30 -4.55605e-15 -0)
(9.51796e-30 -4.55605e-15 -0)
(1.6553e-30 -4.55605e-15 -0)
(-1.11733e-29 -4.55605e-15 -0)
(-6.20737e-30 -4.55605e-15 -0)
(-2.48295e-30 -4.55605e-15 -0)
(-1.48977e-29 -4.55605e-15 -0)
(-1.03456e-29 -4.55605e-15 -0)
(-1.07594e-29 -4.55605e-15 -0)
(-1.07594e-29 -4.55605e-15 -0)
(6.82999e-30 -4.55605e-15 -0)
(7.63352e-30 -4.55605e-15 -0)
(8.03529e-31 -4.55605e-15 -0)
(-4.01764e-30 -4.55605e-15 -0)
(8.03529e-31 -4.55605e-15 -0)
(1.366e-29 -4.55605e-15 -0)
(7.23176e-30 -4.55605e-15 -0)
(-1.60706e-30 -4.55605e-15 -0)
(-1.08476e-29 -4.55605e-15 -0)
(-2.81235e-29 -4.55605e-15 -0)
(-5.6247e-30 -4.55605e-15 -0)
(6.02647e-30 -4.55605e-15 -0)
(-4.82117e-30 -4.55605e-15 -0)
(-5.22294e-30 -4.55605e-15 -0)
(-3.21412e-30 -4.55605e-15 -0)
(8.03529e-30 -4.55605e-15 -0)
(2.45076e-29 -4.55605e-15 -0)
(1.60706e-29 -4.55605e-15 -0)
(-4.41941e-30 -4.55605e-15 -0)
(-9.24058e-30 -4.55605e-15 -0)
(-6.82999e-30 -4.55605e-15 -0)
(4.41941e-30 -4.55605e-15 -0)
(1.12494e-29 -4.55605e-15 -0)
(-8.03529e-31 -4.55605e-15 -0)
(-6.82999e-30 -4.55605e-15 -0)
(-8.03529e-31 -4.55605e-15 -0)
(-1.44635e-29 -4.55605e-15 -0)
(-1.04459e-29 -4.55605e-15 -0)
(1.68741e-29 -4.55605e-15 -0)
(2.00882e-29 -4.55605e-15 -0)
(4.82117e-30 -4.55605e-15 -0)
(-1.88829e-29 -4.55605e-15 -0)
(-1.68741e-29 -4.55605e-15 -0)
(-6.42823e-30 -4.55605e-15 -0)
(3.61588e-30 -4.55605e-15 -0)
(4.41941e-30 -4.55605e-15 -0)
(-3.21412e-30 -4.55605e-15 -0)
(-9.24058e-30 -4.55605e-15 -0)
(-2.00882e-30 -4.55605e-15 -0)
(6.02647e-30 -4.55605e-15 -0)
(4.01764e-31 -4.55605e-15 -0)
(3.61588e-30 -4.55605e-15 -0)
(1.08476e-29 -4.55605e-15 -0)
(1.366e-29 -4.55605e-15 -0)
(1.20529e-30 -4.55605e-15 -0)
(1.20529e-30 -4.55605e-15 -0)
(4.82117e-30 -4.55605e-15 -0)
(8.03529e-31 -4.55605e-15 -0)
(-8.43705e-30 -4.55605e-15 -0)
(-2.41059e-30 -4.55605e-15 -0)
(1.366e-29 -4.55605e-15 -0)
(9.24058e-30 -4.55605e-15 -0)
(2.41059e-30 -4.55605e-15 -0)
(-1.04459e-29 -4.55605e-15 -0)
(-8.03529e-30 -4.55605e-15 -0)
(-3.21412e-30 -4.55605e-15 -0)
(-1.48653e-29 -4.55605e-15 -0)
(-1.24547e-29 -4.55605e-15 -0)
(-1.32582e-29 -4.55605e-15 -0)
(-1.04459e-29 -4.55605e-15 -0)
(6.63095e-30 -4.55605e-15 -0)
(9.7514e-30 -4.55605e-15 -0)
(7.80112e-31 -4.55605e-15 -0)
(-5.07073e-30 -4.55605e-15 -0)
(1.95028e-30 -4.55605e-15 -0)
(1.4042e-29 -4.55605e-15 -0)
(8.97128e-30 -4.55605e-15 -0)
(-2.34033e-30 -4.55605e-15 -0)
(-1.28718e-29 -4.55605e-15 -0)
(-2.8084e-29 -4.55605e-15 -0)
(-6.24089e-30 -4.55605e-15 -0)
(5.46078e-30 -4.55605e-15 -0)
(-4.29061e-30 -4.55605e-15 -0)
(-4.29061e-30 -4.55605e-15 -0)
(-5.46078e-30 -4.55605e-15 -0)
(7.41106e-30 -4.55605e-15 -0)
(2.7694e-29 -4.55605e-15 -0)
(1.75525e-29 -4.55605e-15 -0)
(-4.29061e-30 -4.55605e-15 -0)
(-9.36134e-30 -4.55605e-15 -0)
(-7.02101e-30 -4.55605e-15 -0)
(4.68067e-30 -4.55605e-15 -0)
(1.17017e-29 -4.55605e-15 -0)
(-2.34034e-30 -4.55605e-15 -0)
(-7.02101e-30 -4.55605e-15 -0)
(-1.56022e-30 -4.55605e-15 -0)
(-1.67724e-29 -4.55605e-15 -0)
(-9.36134e-30 -4.55605e-15 -0)
(1.79426e-29 -4.55605e-15 -0)
(2.0673e-29 -4.55605e-15 -0)
(5.85084e-30 -4.55605e-15 -0)
(-1.91127e-29 -4.55605e-15 -0)
(-1.98928e-29 -4.55605e-15 -0)
(-5.85084e-30 -4.55605e-15 -0)
(3.90056e-30 -4.55605e-15 -0)
(3.90056e-30 -4.55605e-15 -0)
(-2.34034e-30 -4.55605e-15 -0)
(-1.09216e-29 -4.55605e-15 -0)
(-2.34034e-30 -4.55605e-15 -0)
(5.85084e-30 -4.55605e-15 -0)
(-7.80112e-31 -4.55605e-15 -0)
(3.5105e-30 -4.55605e-15 -0)
(1.28718e-29 -4.55605e-15 -0)
(1.48221e-29 -4.55605e-15 -0)
(2.34034e-30 -4.55605e-15 -0)
(7.80112e-31 -4.55605e-15 -0)
(6.24089e-30 -4.55605e-15 -0)
(1.56022e-30 -4.55605e-15 -0)
(-1.09216e-29 -4.55605e-15 -0)
(-3.90056e-31 -4.55605e-15 -0)
(1.24818e-29 -4.55605e-15 -0)
(1.01415e-29 -4.55605e-15 -0)
(1.95028e-30 -4.55605e-15 -0)
(-1.01415e-29 -4.55605e-15 -0)
(-6.63095e-30 -4.55605e-15 -0)
(-4.29061e-30 -4.55605e-15 -0)
(-1.59923e-29 -4.55605e-15 -0)
(-1.44321e-29 -4.55605e-15 -0)
(-1.52122e-29 -4.55605e-15 -0)
(-1.09216e-29 -4.55605e-15 -0)
(9.08852e-30 -4.55605e-15 -0)
(1.13607e-29 -4.55605e-15 -0)
(1.13607e-30 -4.55605e-15 -0)
(-3.02951e-30 -4.55605e-15 -0)
(1.89344e-30 -4.55605e-15 -0)
(1.36328e-29 -4.55605e-15 -0)
(9.46721e-30 -4.55605e-15 -0)
(-2.27213e-30 -4.55605e-15 -0)
(-1.36328e-29 -4.55605e-15 -0)
(-2.9159e-29 -4.55605e-15 -0)
(-6.05902e-30 -4.55605e-15 -0)
(4.16557e-30 -4.55605e-15 -0)
(-7.19508e-30 -4.55605e-15 -0)
(-3.78688e-30 -4.55605e-15 -0)
(-4.92295e-30 -4.55605e-15 -0)
(7.95246e-30 -4.55605e-15 -0)
(2.9159e-29 -4.55605e-15 -0)
(1.96918e-29 -4.55605e-15 -0)
(-4.54426e-30 -4.55605e-15 -0)
(-1.02246e-29 -4.55605e-15 -0)
(-7.95246e-30 -4.55605e-15 -0)
(6.05902e-30 -4.55605e-15 -0)
(1.17393e-29 -4.55605e-15 -0)
(-1.89344e-30 -4.55605e-15 -0)
(-7.19508e-30 -4.55605e-15 -0)
(-2.65082e-30 -4.55605e-15 -0)
(-1.7041e-29 -4.55605e-15 -0)
(-9.8459e-30 -4.55605e-15 -0)
(1.96918e-29 -4.55605e-15 -0)
(2.15852e-29 -4.55605e-15 -0)
(6.4377e-30 -4.55605e-15 -0)
(-2.12066e-29 -4.55605e-15 -0)
(-2.19639e-29 -4.55605e-15 -0)
(-6.4377e-30 -4.55605e-15 -0)
(4.16557e-30 -4.55605e-15 -0)
(3.78688e-30 -4.55605e-15 -0)
(-3.4082e-30 -4.55605e-15 -0)
(-1.0982e-29 -4.55605e-15 -0)
(-1.51475e-30 -4.55605e-15 -0)
(6.4377e-30 -4.55605e-15 -0)
(-3.78688e-31 -4.55605e-15 -0)
(4.92295e-30 -4.55605e-15 -0)
(1.36328e-29 -4.55605e-15 -0)
(1.59049e-29 -4.55605e-15 -0)
(-0 -4.55605e-15 -0)
(3.78688e-31 -4.55605e-15 -0)
(8.70984e-30 -4.55605e-15 -0)
(3.02951e-30 -4.55605e-15 -0)
(-1.17393e-29 -4.55605e-15 -0)
(-3.02951e-30 -4.55605e-15 -0)
(1.47689e-29 -4.55605e-15 -0)
(1.2118e-29 -4.55605e-15 -0)
(1.13607e-30 -4.55605e-15 -0)
(-1.2118e-29 -4.55605e-15 -0)
(-7.19508e-30 -4.55605e-15 -0)
(-4.54426e-30 -4.55605e-15 -0)
(-1.59049e-29 -4.55605e-15 -0)
(-1.40115e-29 -4.55605e-15 -0)
(-1.66623e-29 -4.55605e-15 -0)
(-1.2118e-29 -4.55605e-15 -0)
(9.92661e-30 -4.55605e-15 -0)
(1.28678e-29 -4.55605e-15 -0)
(2.20591e-30 -4.55605e-15 -0)