/*--------------------------------*- C++ -*----------------------------------*\
| =========                 |                                                 |
| \\      /  F ield         | foam-extend: Open Source CFD                    |
|  \\    /   O peration     | Version:     4.0                                |
|   \\  /    A nd           | Web:         http://www.foam-extend.org         |
|    \\/     M anipulation  |                                                 |
\*---------------------------------------------------------------------------*/
FoamFile
{
    version     2.0;
    format      ascii;
    class       volScalarField;
    location    "11";
    object      p;
}
// * * * * * * * * * * * * * * * * * * * * * * * * * * * * * * * * * * * * * //

dimensions      [0 2 -2 0 0 0 0];

internalField   nonuniform List<scalar> 
6960
(
2.91905e-07
4.15881e-07
4.26827e-07
4.18196e-07
4.11412e-07
4.14915e-07
4.06282e-07
4.10071e-07
4.08101e-07
4.0911e-07
4.11952e-07
4.12607e-07
4.15592e-07
4.17745e-07
4.19087e-07
4.21758e-07
4.2223e-07
4.23623e-07
4.23671e-07
4.22802e-07
4.21834e-07
4.19318e-07
4.17079e-07
4.14473e-07
4.12275e-07
4.11298e-07
4.11295e-07
4.13041e-07
4.15894e-07
4.1945e-07
4.23067e-07
4.25594e-07
4.26573e-07
4.25664e-07
4.23101e-07
4.197e-07
4.16294e-07
4.13825e-07
4.132e-07
4.14077e-07
4.16617e-07
4.19648e-07
4.22398e-07
4.24889e-07
4.25568e-07
4.26165e-07
4.25468e-07
4.2476e-07
4.24372e-07
4.23319e-07
4.22635e-07
4.21284e-07
4.18984e-07
4.17402e-07
4.14626e-07
4.14481e-07
4.13732e-07
4.16342e-07
4.16484e-07
4.19718e-07
4.14366e-07
4.15752e-07
4.26832e-07
4.18225e-07
4.11401e-07
4.14928e-07
4.06266e-07
4.10067e-07
4.08091e-07
4.09096e-07
4.11947e-07
4.12596e-07
4.15586e-07
4.17744e-07
4.19085e-07
4.21763e-07
4.22233e-07
4.2363e-07
4.2368e-07
4.22808e-07
4.21841e-07
4.19322e-07
4.17084e-07
4.14476e-07
4.12274e-07
4.11294e-07
4.11289e-07
4.13035e-07
4.15887e-07
4.19442e-07
4.23062e-07
4.25594e-07
4.26577e-07
4.25669e-07
4.23106e-07
4.19706e-07
4.16297e-07
4.13822e-07
4.13194e-07
4.14071e-07
4.16614e-07
4.19647e-07
4.22399e-07
4.24895e-07
4.25574e-07
4.26169e-07
4.25465e-07
4.24751e-07
4.24362e-07
4.2331e-07
4.22633e-07
4.21291e-07
4.19e-07
4.17426e-07
4.14646e-07
4.14493e-07
4.13733e-07
4.16331e-07
4.16475e-07
4.19711e-07
4.34116e-07
4.15566e-07
4.26887e-07
4.18255e-07
4.11424e-07
4.14949e-07
4.06261e-07
4.10069e-07
4.08077e-07
4.0908e-07
4.11931e-07
4.12574e-07
4.15571e-07
4.17726e-07
4.19073e-07
4.21756e-07
4.22228e-07
4.23634e-07
4.23687e-07
4.22823e-07
4.21858e-07
4.19339e-07
4.17102e-07
4.1449e-07
4.12282e-07
4.11293e-07
4.11278e-07
4.13016e-07
4.15862e-07
4.19417e-07
4.23042e-07
4.25586e-07
4.26582e-07
4.25684e-07
4.23127e-07
4.19728e-07
4.16313e-07
4.13827e-07
4.13186e-07
4.14054e-07
4.16596e-07
4.19631e-07
4.2239e-07
4.24892e-07
4.25577e-07
4.26174e-07
4.25466e-07
4.24748e-07
4.24357e-07
4.23305e-07
4.22637e-07
4.21304e-07
4.19027e-07
4.17458e-07
4.14674e-07
4.14509e-07
4.13733e-07
4.16317e-07
4.16464e-07
4.19706e-07
4.25194e-07
4.15387e-07
4.26984e-07
4.18288e-07
4.11477e-07
4.14971e-07
4.06264e-07
4.10073e-07
4.08057e-07
4.09062e-07
4.11906e-07
4.12543e-07
4.15547e-07
4.17697e-07
4.19053e-07
4.21739e-07
4.22218e-07
4.23636e-07
4.23695e-07
4.22843e-07
4.21883e-07
4.1937e-07
4.17135e-07
4.14516e-07
4.123e-07
4.11294e-07
4.11263e-07
4.12985e-07
4.15819e-07
4.19372e-07
4.23005e-07
4.25567e-07
4.26586e-07
4.25709e-07
4.23165e-07
4.19767e-07
4.16341e-07
4.13837e-07
4.13174e-07
4.14027e-07
4.16564e-07
4.19601e-07
4.22373e-07
4.24886e-07
4.25582e-07
4.26184e-07
4.25468e-07
4.24747e-07
4.24347e-07
4.23299e-07
4.22643e-07
4.21325e-07
4.19068e-07
4.17507e-07
4.14719e-07
4.14535e-07
4.13734e-07
4.16296e-07
4.16446e-07
4.19697e-07
4.21547e-07
4.15219e-07
4.27121e-07
4.18332e-07
4.11567e-07
4.15005e-07
4.06281e-07
4.10081e-07
4.08031e-07
4.09039e-07
4.11867e-07
4.12498e-07
4.15511e-07
4.17651e-07
4.19022e-07
4.2171e-07
4.222e-07
4.23635e-07
4.23701e-07
4.22871e-07
4.21919e-07
4.19416e-07
4.17184e-07
4.14557e-07
4.12331e-07
4.113e-07
4.11244e-07
4.12941e-07
4.15755e-07
4.19305e-07
4.22947e-07
4.25536e-07
4.26589e-07
4.25742e-07
4.2322e-07
4.19827e-07
4.16387e-07
4.13857e-07
4.13162e-07
4.1399e-07
4.16516e-07
4.19552e-07
4.22342e-07
4.2487e-07
4.25583e-07
4.26194e-07
4.25471e-07
4.2475e-07
4.24339e-07
4.23296e-07
4.22657e-07
4.21356e-07
4.19126e-07
4.17573e-07
4.14779e-07
4.14568e-07
4.13736e-07
4.1627e-07
4.16425e-07
4.19688e-07
4.21906e-07
4.15056e-07
4.27293e-07
4.18386e-07
4.11694e-07
4.15052e-07
4.06313e-07
4.10098e-07
4.08002e-07
4.09012e-07
4.11817e-07
4.12441e-07
4.15461e-07
4.17589e-07
4.1898e-07
4.21669e-07
4.22172e-07
4.23629e-07
4.23706e-07
4.22905e-07
4.21964e-07
4.19477e-07
4.17251e-07
4.14615e-07
4.12375e-07
4.11312e-07
4.11223e-07
4.12886e-07
4.15673e-07
4.19216e-07
4.22869e-07
4.25491e-07
4.26588e-07
4.25784e-07
4.23292e-07
4.19906e-07
4.16451e-07
4.13889e-07
4.13151e-07
4.13945e-07
4.16452e-07
4.19484e-07
4.22296e-07
4.24841e-07
4.25579e-07
4.26202e-07
4.25475e-07
4.24756e-07
4.24333e-07
4.23298e-07
4.22677e-07
4.21398e-07
4.192e-07
4.17655e-07
4.14853e-07
4.1461e-07
4.1374e-07
4.16239e-07
4.16399e-07
4.19678e-07
4.2247e-07
4.1489e-07
4.27497e-07
4.18449e-07
4.11854e-07
4.15114e-07
4.06362e-07
4.10122e-07
4.07972e-07
4.08982e-07
4.11756e-07
4.12372e-07
4.15399e-07
4.17511e-07
4.18925e-07
4.21613e-07
4.22135e-07
4.23617e-07
4.23709e-07
4.22943e-07
4.22017e-07
4.19551e-07
4.17335e-07
4.14688e-07
4.12433e-07
4.1133e-07
4.112e-07
4.1282e-07
4.15573e-07
4.19106e-07
4.22771e-07
4.25432e-07
4.26583e-07
4.25831e-07
4.23379e-07
4.20005e-07
4.16532e-07
4.13932e-07
4.13142e-07
4.13892e-07
4.16373e-07
4.19399e-07
4.22233e-07
4.24799e-07
4.25567e-07
4.26207e-07
4.25479e-07
4.24764e-07
4.24329e-07
4.23304e-07
4.22704e-07
4.2145e-07
4.1929e-07
4.17753e-07
4.14943e-07
4.1466e-07
4.13746e-07
4.16205e-07
4.1637e-07
4.19667e-07
4.22618e-07
4.14722e-07
4.27731e-07
4.18521e-07
4.12047e-07
4.15192e-07
4.06427e-07
4.10154e-07
4.07941e-07
4.0895e-07
4.11685e-07
4.12291e-07
4.15324e-07
4.17418e-07
4.18858e-07
4.21545e-07
4.22089e-07
4.23599e-07
4.23709e-07
4.22985e-07
4.22078e-07
4.19639e-07
4.17434e-07
4.14778e-07
4.12506e-07
4.11357e-07
4.11179e-07
4.12746e-07
4.15456e-07
4.18976e-07
4.22652e-07
4.25359e-07
4.26571e-07
4.25883e-07
4.23479e-07
4.20122e-07
4.16632e-07
4.13988e-07
4.13136e-07
4.13833e-07
4.16281e-07
4.19296e-07
4.22155e-07
4.24743e-07
4.25549e-07
4.2621e-07
4.25483e-07
4.24775e-07
4.24325e-07
4.23313e-07
4.22738e-07
4.21511e-07
4.19394e-07
4.17867e-07
4.15048e-07
4.1472e-07
4.13756e-07
4.16168e-07
4.16338e-07
4.19656e-07
4.22647e-07
4.14551e-07
4.2799e-07
4.18602e-07
4.12271e-07
4.15284e-07
4.06509e-07
4.10197e-07
4.07912e-07
4.08916e-07
4.11606e-07
4.122e-07
4.15237e-07
4.1731e-07
4.18779e-07
4.21464e-07
4.22032e-07
4.23573e-07
4.23704e-07
4.2303e-07
4.22145e-07
4.19738e-07
4.17547e-07
4.14883e-07
4.12592e-07
4.11391e-07
4.11159e-07
4.12665e-07
4.15325e-07
4.18826e-07
4.22512e-07
4.2527e-07
4.26553e-07
4.25938e-07
4.23592e-07
4.20257e-07
4.16749e-07
4.14057e-07
4.13134e-07
4.13769e-07
4.16177e-07
4.19176e-07
4.2206e-07
4.24674e-07
4.25522e-07
4.26208e-07
4.25484e-07
4.24787e-07
4.24323e-07
4.23326e-07
4.22777e-07
4.21581e-07
4.19513e-07
4.17995e-07
4.15168e-07
4.1479e-07
4.1377e-07
4.16128e-07
4.16304e-07
4.19644e-07
4.22678e-07
4.14376e-07
4.28271e-07
4.1869e-07
4.12524e-07
4.15392e-07
4.06608e-07
4.1025e-07
4.07884e-07
4.08882e-07
4.11519e-07
4.12098e-07
4.15139e-07
4.17188e-07
4.18688e-07
4.21369e-07
4.21965e-07
4.2354e-07
4.23695e-07
4.23076e-07
4.22217e-07
4.19849e-07
4.17675e-07
4.15003e-07
4.12693e-07
4.11435e-07
4.11141e-07
4.12578e-07
4.15181e-07
4.18658e-07
4.22353e-07
4.25165e-07
4.26527e-07
4.25994e-07
4.23716e-07
4.20409e-07
4.16884e-07
4.1414e-07
4.13138e-07
4.13702e-07
4.16062e-07
4.1904e-07
4.2195e-07
4.24589e-07
4.25486e-07
4.26201e-07
4.25484e-07
4.248e-07
4.24321e-07
4.23342e-07
4.22821e-07
4.2166e-07
4.19644e-07
4.18137e-07
4.15303e-07
4.1487e-07
4.13789e-07
4.16088e-07
4.16268e-07
4.19631e-07
4.22701e-07
4.14197e-07
4.28568e-07
4.18783e-07
4.12804e-07
4.15516e-07
4.06724e-07
4.10314e-07
4.07861e-07
4.08848e-07
4.11425e-07
4.11988e-07
4.1503e-07
4.17053e-07
4.18584e-07
4.2126e-07
4.21888e-07
4.23498e-07
4.23681e-07
4.23123e-07
4.22293e-07
4.19969e-07
4.17816e-07
4.15139e-07
4.12809e-07
4.11489e-07
4.11129e-07
4.12487e-07
4.15024e-07
4.18473e-07
4.22175e-07
4.25043e-07
4.26491e-07
4.26051e-07
4.23848e-07
4.20576e-07
4.17037e-07
4.14237e-07
4.1315e-07
4.13634e-07
4.15937e-07
4.18888e-07
4.21823e-07
4.2449e-07
4.2544e-07
4.26188e-07
4.25482e-07
4.24813e-07
4.2432e-07
4.2336e-07
4.22869e-07
4.21745e-07
4.19787e-07
4.18293e-07
4.15452e-07
4.1496e-07
4.13815e-07
4.16048e-07
4.16231e-07
4.19619e-07
4.227e-07
4.14012e-07
4.28879e-07
4.18881e-07
4.1311e-07
4.15655e-07
4.06857e-07
4.1039e-07
4.07842e-07
4.08816e-07
4.11327e-07
4.1187e-07
4.14911e-07
4.16904e-07
4.18469e-07
4.21138e-07
4.21799e-07
4.23447e-07
4.2366e-07
4.23168e-07
4.22372e-07
4.20098e-07
4.1797e-07
4.15288e-07
4.12939e-07
4.11554e-07
4.11121e-07
4.12394e-07
4.14858e-07
4.18272e-07
4.21977e-07
4.24906e-07
4.26445e-07
4.26105e-07
4.23989e-07
4.20757e-07
4.17207e-07
4.1435e-07
4.13169e-07
4.13566e-07
4.15804e-07
4.18723e-07
4.21681e-07
4.24376e-07
4.25384e-07
4.26168e-07
4.25476e-07
4.24826e-07
4.24318e-07
4.2338e-07
4.2292e-07
4.21836e-07
4.19941e-07
4.18462e-07
4.15617e-07
4.15063e-07
4.13847e-07
4.16008e-07
4.16193e-07
4.19605e-07
4.22671e-07
4.13821e-07
4.29198e-07
4.18982e-07
4.13439e-07
4.1581e-07
4.07009e-07
4.1048e-07
4.07831e-07
4.08787e-07
4.11225e-07
4.11746e-07
4.14782e-07
4.16743e-07
4.18342e-07
4.21003e-07
4.21698e-07
4.23386e-07
4.23632e-07
4.23211e-07
4.22452e-07
4.20234e-07
4.18133e-07
4.15451e-07
4.13083e-07
4.11631e-07
4.11121e-07
4.123e-07
4.14683e-07
4.18056e-07
4.21762e-07
4.24751e-07
4.26386e-07
4.26156e-07
4.24134e-07
4.20951e-07
4.17393e-07
4.14477e-07
4.13198e-07
4.135e-07
4.15664e-07
4.18545e-07
4.21524e-07
4.24247e-07
4.25316e-07
4.2614e-07
4.25466e-07
4.24837e-07
4.24317e-07
4.23402e-07
4.22974e-07
4.21933e-07
4.20105e-07
4.18643e-07
4.15795e-07
4.15177e-07
4.13888e-07
4.15971e-07
4.16154e-07
4.19592e-07
4.22618e-07
4.13624e-07
4.29522e-07
4.19084e-07
4.13789e-07
4.1598e-07
4.07177e-07
4.10583e-07
4.07827e-07
4.08762e-07
4.11121e-07
4.11615e-07
4.14644e-07
4.16571e-07
4.18204e-07
4.20854e-07
4.21587e-07
4.23313e-07
4.23596e-07
4.2325e-07
4.22532e-07
4.20376e-07
4.18307e-07
4.15628e-07
4.13242e-07
4.11719e-07
4.11129e-07
4.12207e-07
4.14502e-07
4.17827e-07
4.21529e-07
4.24579e-07
4.26315e-07
4.26202e-07
4.24284e-07
4.21157e-07
4.17595e-07
4.14621e-07
4.13238e-07
4.13437e-07
4.15519e-07
4.18356e-07
4.21351e-07
4.24102e-07
4.25236e-07
4.26104e-07
4.25452e-07
4.24847e-07
4.24314e-07
4.23424e-07
4.2303e-07
4.22034e-07
4.20277e-07
4.18835e-07
4.15988e-07
4.15303e-07
4.13938e-07
4.15937e-07
4.16116e-07
4.19579e-07
4.22539e-07
4.13419e-07
4.29847e-07
4.19185e-07
4.14158e-07
4.16165e-07
4.07363e-07
4.107e-07
4.07832e-07
4.08742e-07
4.11016e-07
4.11481e-07
4.14498e-07
4.16389e-07
4.18054e-07
4.20693e-07
4.21463e-07
4.2323e-07
4.23552e-07
4.23284e-07
4.22611e-07
4.20523e-07
4.18489e-07
4.15817e-07
4.13414e-07
4.11821e-07
4.11146e-07
4.12117e-07
4.14317e-07
4.17587e-07
4.2128e-07
4.24389e-07
4.26229e-07
4.2624e-07
4.24435e-07
4.21372e-07
4.17812e-07
4.1478e-07
4.1329e-07
4.13379e-07
4.15371e-07
4.18156e-07
4.21165e-07
4.23942e-07
4.25145e-07
4.26059e-07
4.25433e-07
4.24855e-07
4.2431e-07
4.23447e-07
4.23086e-07
4.22138e-07
4.20456e-07
4.19037e-07
4.16194e-07
4.15442e-07
4.13997e-07
4.15907e-07
4.1608e-07
4.19565e-07
4.22435e-07
4.13207e-07
4.30168e-07
4.19284e-07
4.14543e-07
4.16363e-07
4.07566e-07
4.10833e-07
4.07847e-07
4.08729e-07
4.10913e-07
4.11343e-07
4.14346e-07
4.16196e-07
4.17893e-07
4.20518e-07
4.21328e-07
4.23135e-07
4.23498e-07
4.23312e-07
4.22687e-07
4.20672e-07
4.18678e-07
4.16017e-07
4.136e-07
4.11935e-07
4.11174e-07
4.12032e-07
4.1413e-07
4.17337e-07
4.21016e-07
4.24183e-07
4.26128e-07
4.2627e-07
4.24585e-07
4.21596e-07
4.18043e-07
4.14955e-07
4.13355e-07
4.13328e-07
4.15222e-07
4.17947e-07
4.20966e-07
4.23767e-07
4.25041e-07
4.26004e-07
4.25408e-07
4.2486e-07
4.24303e-07
4.23469e-07
4.23142e-07
4.22244e-07
4.2064e-07
4.19248e-07
4.16414e-07
4.15594e-07
4.14068e-07
4.15883e-07
4.16045e-07
4.19552e-07
4.22306e-07
4.12987e-07
4.30481e-07
4.19377e-07
4.14942e-07
4.16574e-07
4.07785e-07
4.10981e-07
4.07874e-07
4.08723e-07
4.10811e-07
4.11203e-07
4.14187e-07
4.15995e-07
4.17722e-07
4.20332e-07
4.21181e-07
4.23027e-07
4.23435e-07
4.23332e-07
4.2276e-07
4.20823e-07
4.18872e-07
4.16227e-07
4.13799e-07
4.12063e-07
4.11213e-07
4.11953e-07
4.13942e-07
4.17079e-07
4.20737e-07
4.23959e-07
4.26011e-07
4.26289e-07
4.24733e-07
4.21825e-07
4.18287e-07
4.15145e-07
4.13434e-07
4.13286e-07
4.15073e-07
4.17732e-07
4.20754e-07
4.23578e-07
4.24924e-07
4.25938e-07
4.25377e-07
4.24861e-07
4.24295e-07
4.23489e-07
4.23196e-07
4.22351e-07
4.20829e-07
4.19466e-07
4.16646e-07
4.15759e-07
4.1415e-07
4.15866e-07
4.16013e-07
4.19539e-07
4.22152e-07
4.12758e-07
4.30781e-07
4.19463e-07
4.15353e-07
4.16798e-07
4.0802e-07
4.11145e-07
4.07913e-07
4.08726e-07
4.10714e-07
4.11062e-07
4.14024e-07
4.15786e-07
4.17541e-07
4.20133e-07
4.21022e-07
4.22907e-07
4.2336e-07
4.23344e-07
4.22827e-07
4.20973e-07
4.19071e-07
4.16447e-07
4.14011e-07
4.12205e-07
4.11265e-07
4.11882e-07
4.13756e-07
4.16814e-07
4.20445e-07
4.23719e-07
4.25877e-07
4.26295e-07
4.24877e-07
4.22059e-07
4.18543e-07
4.15352e-07
4.13528e-07
4.13254e-07
4.14926e-07
4.17511e-07
4.20531e-07
4.23374e-07
4.24793e-07
4.25862e-07
4.25339e-07
4.24859e-07
4.24284e-07
4.23508e-07
4.23248e-07
4.22456e-07
4.2102e-07
4.19691e-07
4.16889e-07
4.15938e-07
4.14245e-07
4.15856e-07
4.15984e-07
4.19527e-07
4.21975e-07
4.1252e-07
4.31066e-07
4.1954e-07
4.15773e-07
4.17031e-07
4.0827e-07
4.11326e-07
4.07965e-07
4.0874e-07
4.10622e-07
4.10923e-07
4.13858e-07
4.15571e-07
4.1735e-07
4.19923e-07
4.20851e-07
4.22774e-07
4.23275e-07
4.23347e-07
4.22888e-07
4.21122e-07
4.19272e-07
4.16675e-07
4.14234e-07
4.12361e-07
4.11331e-07
4.11821e-07
4.13573e-07
4.16546e-07
4.20142e-07
4.23462e-07
4.25726e-07
4.26288e-07
4.25013e-07
4.22295e-07
4.1881e-07
4.15574e-07
4.13638e-07
4.13233e-07
4.14784e-07
4.17287e-07
4.20297e-07
4.23157e-07
4.2465e-07
4.25773e-07
4.25294e-07
4.24851e-07
4.24269e-07
4.23524e-07
4.23296e-07
4.2256e-07
4.21211e-07
4.19921e-07
4.17143e-07
4.16129e-07
4.14353e-07
4.15856e-07
4.15959e-07
4.19515e-07
4.21774e-07
4.12274e-07
4.31329e-07
4.19604e-07
4.16198e-07
4.17274e-07
4.08535e-07
4.11523e-07
4.08031e-07
4.08764e-07
4.10537e-07
4.10785e-07
4.13689e-07
4.1535e-07
4.17151e-07
4.19703e-07
4.20669e-07
4.22627e-07
4.23177e-07
4.23338e-07
4.22941e-07
4.21268e-07
4.19474e-07
4.16909e-07
4.14469e-07
4.12531e-07
4.11412e-07
4.11772e-07
4.13397e-07
4.16275e-07
4.19829e-07
4.23189e-07
4.25556e-07
4.26264e-07
4.2514e-07
4.22531e-07
4.19085e-07
4.15811e-07
4.13764e-07
4.13226e-07
4.14648e-07
4.17062e-07
4.20055e-07
4.22927e-07
4.24494e-07
4.25673e-07
4.25242e-07
4.24837e-07
4.24251e-07
4.23537e-07
4.2334e-07
4.2266e-07
4.21401e-07
4.20154e-07
4.17406e-07
4.16334e-07
4.14475e-07
4.15865e-07
4.15939e-07
4.19505e-07
4.21551e-07
4.1202e-07
4.31569e-07
4.19653e-07
4.16628e-07
4.17523e-07
4.08813e-07
4.11736e-07
4.08112e-07
4.08801e-07
4.10461e-07
4.10652e-07
4.1352e-07
4.15125e-07
4.16945e-07
4.19472e-07
4.20476e-07
4.22468e-07
4.23068e-07
4.23317e-07
4.22985e-07
4.21409e-07
4.19675e-07
4.17149e-07
4.14713e-07
4.12715e-07
4.11508e-07
4.11735e-07
4.13229e-07
4.16005e-07
4.19507e-07
4.229e-07
4.25367e-07
4.26224e-07
4.25256e-07
4.22764e-07
4.19368e-07
4.16062e-07
4.13908e-07
4.13234e-07
4.1452e-07
4.16837e-07
4.19806e-07
4.22685e-07
4.24324e-07
4.25561e-07
4.25181e-07
4.24818e-07
4.24228e-07
4.23545e-07
4.23378e-07
4.22755e-07
4.21588e-07
4.20388e-07
4.17678e-07
4.16551e-07
4.14612e-07
4.15886e-07
4.15925e-07
4.19496e-07
4.21307e-07
4.11758e-07
4.31781e-07
4.19685e-07
4.17057e-07
4.17778e-07
4.09102e-07
4.11966e-07
4.08207e-07
4.08851e-07
4.10394e-07
4.10523e-07
4.13351e-07
4.14898e-07
4.16732e-07
4.19233e-07
4.20271e-07
4.22295e-07
4.22945e-07
4.23284e-07
4.23019e-07
4.21543e-07
4.19874e-07
4.17394e-07
4.14965e-07
4.12913e-07
4.11619e-07
4.11713e-07
4.13071e-07
4.15736e-07
4.19179e-07
4.22598e-07
4.25159e-07
4.26165e-07
4.25359e-07
4.22994e-07
4.19656e-07
4.16327e-07
4.14068e-07
4.13258e-07
4.14403e-07
4.16615e-07
4.19551e-07
4.22432e-07
4.24142e-07
4.25437e-07
4.25111e-07
4.24792e-07
4.242e-07
4.23549e-07
4.23409e-07
4.22844e-07
4.21771e-07
4.20623e-07
4.17957e-07
4.16781e-07
4.14763e-07
4.1592e-07
4.15918e-07
4.19488e-07
4.21043e-07
4.11489e-07
4.3196e-07
4.19697e-07
4.17485e-07
4.18035e-07
4.09402e-07
4.12211e-07
4.08317e-07
4.08916e-07
4.10338e-07
4.10401e-07
4.13185e-07
4.14669e-07
4.16513e-07
4.18985e-07
4.20056e-07
4.22109e-07
4.2281e-07
4.23237e-07
4.23041e-07
4.21668e-07
4.20069e-07
4.1764e-07
4.15226e-07
4.13123e-07
4.11747e-07
4.11706e-07
4.12925e-07
4.15472e-07
4.18847e-07
4.22282e-07
4.24932e-07
4.26087e-07
4.25446e-07
4.23216e-07
4.19948e-07
4.16603e-07
4.14247e-07
4.13299e-07
4.14298e-07
4.16397e-07
4.19293e-07
4.2217e-07
4.23948e-07
4.253e-07
4.25033e-07
4.24758e-07
4.24167e-07
4.23547e-07
4.23433e-07
4.22925e-07
4.21947e-07
4.20855e-07
4.18242e-07
4.17023e-07
4.1493e-07
4.15967e-07
4.15918e-07
4.19482e-07
4.20759e-07
4.11213e-07
4.32105e-07
4.19687e-07
4.17908e-07
4.18291e-07
4.09712e-07
4.12472e-07
4.08442e-07
4.08997e-07
4.10295e-07
4.10287e-07
4.13022e-07
4.1444e-07
4.16289e-07
4.1873e-07
4.19832e-07
4.21909e-07
4.22662e-07
4.23175e-07
4.23051e-07
4.21784e-07
4.20258e-07
4.17887e-07
4.15493e-07
4.13347e-07
4.11891e-07
4.11717e-07
4.12793e-07
4.15215e-07
4.18512e-07
4.21954e-07
4.24686e-07
4.25987e-07
4.25516e-07
4.23429e-07
4.20241e-07
4.16892e-07
4.14443e-07
4.1336e-07
4.14207e-07
4.16187e-07
4.19032e-07
4.21899e-07
4.23742e-07
4.25151e-07
4.24945e-07
4.24717e-07
4.24129e-07
4.23539e-07
4.23449e-07
4.22998e-07
4.22115e-07
4.21084e-07
4.18531e-07
4.17275e-07
4.15112e-07
4.16028e-07
4.15926e-07
4.19478e-07
4.20458e-07
4.10932e-07
4.32212e-07
4.19651e-07
4.18323e-07
4.18545e-07
4.10029e-07
4.12748e-07
4.08582e-07
4.09094e-07
4.10266e-07
4.10182e-07
4.12865e-07
4.14212e-07
4.16062e-07
4.18468e-07
4.19598e-07
4.21698e-07
4.225e-07
4.23097e-07
4.23047e-07
4.21889e-07
4.20439e-07
4.18133e-07
4.15764e-07
4.13582e-07
4.12052e-07
4.11745e-07
4.12677e-07
4.14966e-07
4.18177e-07
4.21616e-07
4.24422e-07
4.25866e-07
4.25566e-07
4.23631e-07
4.20533e-07
4.17189e-07
4.14656e-07
4.13439e-07
4.14132e-07
4.15986e-07
4.18771e-07
4.21622e-07
4.23524e-07
4.24989e-07
4.24848e-07
4.24667e-07
4.24084e-07
4.23524e-07
4.23455e-07
4.2306e-07
4.22273e-07
4.21308e-07
4.18821e-07
4.17537e-07
4.1531e-07
4.16104e-07
4.15943e-07
4.19477e-07
4.2014e-07
4.10646e-07
4.32278e-07
4.19588e-07
4.18728e-07
4.18793e-07
4.10352e-07
4.13037e-07
4.08736e-07
4.09208e-07
4.10251e-07
4.10088e-07
4.12714e-07
4.13987e-07
4.15834e-07
4.18202e-07
4.19355e-07
4.21474e-07
4.22325e-07
4.23004e-07
4.23028e-07
4.2198e-07
4.2061e-07
4.18376e-07
4.16039e-07
4.13829e-07
4.12229e-07
4.11792e-07
4.12579e-07
4.14729e-07
4.17844e-07
4.21268e-07
4.24139e-07
4.25723e-07
4.25595e-07
4.23819e-07
4.20823e-07
4.17495e-07
4.14887e-07
4.13539e-07
4.14075e-07
4.15796e-07
4.18513e-07
4.21339e-07
4.23297e-07
4.24816e-07
4.24741e-07
4.24609e-07
4.24033e-07
4.23502e-07
4.23451e-07
4.23111e-07
4.22418e-07
4.21523e-07
4.19113e-07
4.17808e-07
4.15522e-07
4.16196e-07
4.15969e-07
4.19479e-07
4.19806e-07
4.10358e-07
4.32301e-07
4.19496e-07
4.1912e-07
4.19032e-07
4.10679e-07
4.13338e-07
4.08904e-07
4.0934e-07
4.10251e-07
4.10006e-07
4.12572e-07
4.13766e-07
4.15604e-07
4.17932e-07
4.19105e-07
4.21239e-07
4.22138e-07
4.22895e-07
4.22994e-07
4.22058e-07
4.20771e-07
4.18615e-07
4.16315e-07
4.14085e-07
4.12421e-07
4.11858e-07
4.12499e-07
4.14504e-07
4.17515e-07
4.20914e-07
4.2384e-07
4.25556e-07
4.25602e-07
4.23991e-07
4.21107e-07
4.17808e-07
4.15133e-07
4.1366e-07
4.14037e-07
4.1562e-07
4.18258e-07
4.21053e-07
4.2306e-07
4.24631e-07
4.24625e-07
4.24543e-07
4.23975e-07
4.23472e-07
4.23437e-07
4.2315e-07
4.22551e-07
4.21729e-07
4.19402e-07
4.18085e-07
4.15748e-07
4.16304e-07
4.16006e-07
4.19484e-07
4.19459e-07
4.10069e-07
4.32278e-07
4.19372e-07
4.19496e-07
4.19259e-07
4.11008e-07
4.1365e-07
4.09084e-07
4.09489e-07
4.10268e-07
4.09938e-07
4.1244e-07
4.13551e-07
4.15376e-07
4.1766e-07
4.18848e-07
4.20993e-07
4.21937e-07
4.2277e-07
4.22945e-07
4.22119e-07
4.2092e-07
4.18847e-07
4.1659e-07
4.1435e-07
4.12629e-07
4.11944e-07
4.1244e-07
4.14295e-07
4.17193e-07
4.20554e-07
4.23524e-07
4.25367e-07
4.25584e-07
4.24144e-07
4.21383e-07
4.18124e-07
4.15395e-07
4.13801e-07
4.14019e-07
4.15459e-07
4.1801e-07
4.20766e-07
4.22816e-07
4.24434e-07
4.24499e-07
4.24467e-07
4.23911e-07
4.23434e-07
4.23411e-07
4.23176e-07
4.22668e-07
4.21924e-07
4.19688e-07
4.18369e-07
4.15989e-07
4.16428e-07
4.16053e-07
4.19493e-07
4.191e-07
4.09782e-07
4.32207e-07
4.19216e-07
4.19855e-07
4.19469e-07
4.11338e-07
4.1397e-07
4.09275e-07
4.09657e-07
4.103e-07
4.09884e-07
4.1232e-07
4.13343e-07
4.1515e-07
4.17386e-07
4.18585e-07
4.20737e-07
4.21724e-07
4.22628e-07
4.22878e-07
4.22164e-07
4.21054e-07
4.1907e-07
4.16864e-07
4.14622e-07
4.12851e-07
4.1205e-07
4.12403e-07
4.14103e-07
4.1688e-07
4.20191e-07
4.23194e-07
4.25156e-07
4.25541e-07
4.24277e-07
4.21648e-07
4.18443e-07
4.1567e-07
4.13964e-07
4.14024e-07
4.15316e-07
4.17771e-07
4.20478e-07
4.22565e-07
4.24228e-07
4.24364e-07
4.24382e-07
4.2384e-07
4.23389e-07
4.23375e-07
4.23187e-07
4.22769e-07
4.22105e-07
4.19967e-07
4.18655e-07
4.16242e-07
4.16569e-07
4.16112e-07
4.19506e-07
4.18729e-07
4.09498e-07
4.32087e-07
4.19026e-07
4.20193e-07
4.19661e-07
4.11666e-07
4.14297e-07
4.09477e-07
4.09843e-07
4.1035e-07
4.09846e-07
4.12212e-07
4.13143e-07
4.14928e-07
4.17113e-07
4.18318e-07
4.20473e-07
4.21499e-07
4.22469e-07
4.22795e-07
4.22191e-07
4.21173e-07
4.19284e-07
4.17134e-07
4.14899e-07
4.13087e-07
4.12176e-07
4.12388e-07
4.13931e-07
4.16578e-07
4.19827e-07
4.2285e-07
4.24921e-07
4.25472e-07
4.24387e-07
4.21901e-07
4.18762e-07
4.15959e-07
4.14147e-07
4.14051e-07
4.15192e-07
4.17542e-07
4.20193e-07
4.22308e-07
4.24012e-07
4.24219e-07
4.24288e-07
4.23762e-07
4.23335e-07
4.23326e-07
4.23184e-07
4.22852e-07
4.22271e-07
4.20238e-07
4.18944e-07
4.16507e-07
4.16725e-07
4.16183e-07
4.19523e-07
4.18349e-07
4.0922e-07
4.31917e-07
4.18801e-07
4.20509e-07
4.19829e-07
4.1199e-07
4.14629e-07
4.09687e-07
4.10047e-07
4.10415e-07
4.09825e-07
4.12119e-07
4.12954e-07
4.14712e-07
4.16842e-07
4.18048e-07
4.20201e-07
4.21263e-07
4.22295e-07
4.22695e-07
4.222e-07
4.21275e-07
4.19485e-07
4.17397e-07
4.1518e-07
4.13335e-07
4.12322e-07
4.12397e-07
4.13779e-07
4.1629e-07
4.19465e-07
4.22495e-07
4.24665e-07
4.25376e-07
4.24473e-07
4.22138e-07
4.19078e-07
4.16258e-07
4.1435e-07
4.14102e-07
4.1509e-07
4.17326e-07
4.19913e-07
4.22048e-07
4.23788e-07
4.24066e-07
4.24186e-07
4.23677e-07
4.23272e-07
4.23266e-07
4.23166e-07
4.22917e-07
4.22419e-07
4.20499e-07
4.19232e-07
4.16782e-07
4.16898e-07
4.16265e-07
4.19545e-07
4.17961e-07
4.0895e-07
4.31696e-07
4.18541e-07
4.208e-07
4.1997e-07
4.12308e-07
4.14962e-07
4.09904e-07
4.10268e-07
4.10497e-07
4.09821e-07
4.12041e-07
4.12776e-07
4.14503e-07
4.16575e-07
4.17776e-07
4.19922e-07
4.21016e-07
4.22105e-07
4.22578e-07
4.22189e-07
4.21359e-07
4.19673e-07
4.17653e-07
4.15463e-07
4.13593e-07
4.12486e-07
4.12429e-07
4.13649e-07
4.16019e-07
4.19107e-07
4.22131e-07
4.24388e-07
4.25253e-07
4.24533e-07
4.22357e-07
4.19389e-07
4.16565e-07
4.14573e-07
4.14177e-07
4.1501e-07
4.17125e-07
4.1964e-07
4.21786e-07
4.23557e-07
4.23905e-07
4.24074e-07
4.23585e-07
4.23202e-07
4.23195e-07
4.23132e-07
4.22961e-07
4.22549e-07
4.20746e-07
4.19516e-07
4.17065e-07
4.17086e-07
4.16359e-07
4.19572e-07
4.17567e-07
4.08692e-07
4.31424e-07
4.18247e-07
4.21065e-07
4.20082e-07
4.12619e-07
4.15294e-07
4.10126e-07
4.10506e-07
4.10594e-07
4.09836e-07
4.11979e-07
4.1261e-07
4.14303e-07
4.16312e-07
4.17503e-07
4.19639e-07
4.2076e-07
4.219e-07
4.22444e-07
4.22158e-07
4.21424e-07
4.19845e-07
4.17899e-07
4.15747e-07
4.1386e-07
4.12669e-07
4.12485e-07
4.13544e-07
4.15765e-07
4.18755e-07
4.2176e-07
4.24092e-07
4.25102e-07
4.24565e-07
4.22555e-07
4.19692e-07
4.1688e-07
4.14813e-07
4.14276e-07
4.14953e-07
4.16942e-07
4.19375e-07
4.21523e-07
4.2332e-07
4.23736e-07
4.23955e-07
4.23487e-07
4.23124e-07
4.23113e-07
4.23083e-07
4.22985e-07
4.22658e-07
4.20978e-07
4.19795e-07
4.17355e-07
4.17287e-07
4.16464e-07
4.19605e-07
4.17168e-07
4.08449e-07
4.31101e-07
4.17919e-07
4.21303e-07
4.2016e-07
4.12921e-07
4.15622e-07
4.10351e-07
4.1076e-07
4.10706e-07
4.09869e-07
4.11935e-07
4.12458e-07
4.14114e-07
4.16056e-07
4.17232e-07
4.19353e-07
4.20496e-07
4.21681e-07
4.22293e-07
4.22107e-07
4.2147e-07
4.20001e-07
4.18133e-07
4.16027e-07
4.14135e-07
4.12869e-07
4.12565e-07
4.13463e-07
4.15532e-07
4.18413e-07
4.21385e-07
4.23778e-07
4.24924e-07
4.24569e-07
4.22731e-07
4.19984e-07
4.17198e-07
4.15071e-07
4.14399e-07
4.14922e-07
4.16777e-07
4.19121e-07
4.21262e-07
4.23078e-07
4.2356e-07
4.23827e-07
4.23383e-07
4.23038e-07
4.2302e-07
4.23018e-07
4.22987e-07
4.22745e-07
4.21192e-07
4.20066e-07
4.17648e-07
4.17502e-07
4.16582e-07
4.19643e-07
4.16766e-07
4.08224e-07
4.30728e-07
4.17559e-07
4.21511e-07
4.20202e-07
4.13212e-07
4.15941e-07
4.10576e-07
4.11028e-07
4.10832e-07
4.09921e-07
4.11908e-07
4.12321e-07
4.13936e-07
4.15808e-07
4.16963e-07
4.19065e-07
4.20224e-07
4.21448e-07
4.22125e-07
4.22035e-07
4.21495e-07
4.20138e-07
4.18353e-07
4.16304e-07
4.14414e-07
4.13085e-07
4.12668e-07
4.13407e-07
4.15322e-07
4.18082e-07
4.21008e-07
4.23448e-07
4.24721e-07
4.24543e-07
4.22882e-07
4.20263e-07
4.17518e-07
4.15343e-07
4.14545e-07
4.14916e-07
4.16633e-07
4.18881e-07
4.21005e-07
4.22832e-07
4.23378e-07
4.23692e-07
4.23274e-07
4.22945e-07
4.22917e-07
4.22938e-07
4.22969e-07
4.22809e-07
4.21386e-07
4.20327e-07
4.17944e-07
4.17728e-07
4.1671e-07
4.19686e-07
4.16363e-07
4.08019e-07
4.30305e-07
4.17168e-07
4.21688e-07
4.20205e-07
4.1349e-07
4.1625e-07
4.108e-07
4.11309e-07
4.10969e-07
4.09992e-07
4.119e-07
4.12199e-07
4.13772e-07
4.15569e-07
4.16699e-07
4.18776e-07
4.19947e-07
4.21204e-07
4.21943e-07
4.21943e-07
4.215e-07
4.20255e-07
4.18558e-07
4.16574e-07
4.14695e-07
4.13314e-07
4.12793e-07
4.13378e-07
4.15135e-07
4.17766e-07
4.20631e-07
4.23104e-07
4.24491e-07
4.24487e-07
4.23006e-07
4.20526e-07
4.17836e-07
4.15627e-07
4.14714e-07
4.14937e-07
4.16511e-07
4.18655e-07
4.20753e-07
4.22586e-07
4.23191e-07
4.23551e-07
4.2316e-07
4.22846e-07
4.22805e-07
4.22845e-07
4.22929e-07
4.2285e-07
4.21558e-07
4.20573e-07
4.18239e-07
4.17963e-07
4.16849e-07
4.19735e-07
4.1596e-07
4.07839e-07
4.29834e-07
4.16749e-07
4.21834e-07
4.20167e-07
4.13755e-07
4.16545e-07
4.1102e-07
4.116e-07
4.11117e-07
4.10081e-07
4.1191e-07
4.12093e-07
4.13623e-07
4.15341e-07
4.16441e-07
4.1849e-07
4.19665e-07
4.2095e-07
4.21746e-07
4.21831e-07
4.21483e-07
4.20351e-07
4.18746e-07
4.16835e-07
4.14977e-07
4.13556e-07
4.1294e-07
4.13374e-07
4.14974e-07
4.17466e-07
4.20259e-07
4.22749e-07
4.24238e-07
4.24402e-07
4.23102e-07
4.2077e-07
4.1815e-07
4.15922e-07
4.14904e-07
4.14983e-07
4.16413e-07
4.18447e-07
4.20508e-07
4.2234e-07
4.23001e-07
4.23403e-07
4.23041e-07
4.22742e-07
4.22685e-07
4.22737e-07
4.22868e-07
4.22866e-07
4.21706e-07
4.20804e-07
4.1853e-07
4.18206e-07
4.16996e-07
4.1979e-07
4.15559e-07
4.07686e-07
4.29316e-07
4.16307e-07
4.21948e-07
4.20085e-07
4.14004e-07
4.16821e-07
4.11234e-07
4.11901e-07
4.11273e-07
4.1019e-07
4.11938e-07
4.12005e-07
4.1349e-07
4.15125e-07
4.1619e-07
4.18206e-07
4.1938e-07
4.20686e-07
4.21535e-07
4.217e-07
4.21445e-07
4.20426e-07
4.18916e-07
4.17086e-07
4.15258e-07
4.13807e-07
4.13106e-07
4.13397e-07
4.14839e-07
4.17185e-07
4.19893e-07
4.22385e-07
4.23963e-07
4.24286e-07
4.23168e-07
4.20994e-07
4.18457e-07
4.16225e-07
4.15114e-07
4.15055e-07
4.16339e-07
4.18257e-07
4.20273e-07
4.22095e-07
4.22807e-07
4.23251e-07
4.22919e-07
4.22632e-07
4.22558e-07
4.22617e-07
4.22786e-07
4.22857e-07
4.21828e-07
4.21015e-07
4.18814e-07
4.18453e-07
4.17153e-07
4.1985e-07
4.15163e-07
4.07563e-07
4.28755e-07
4.15844e-07
4.22029e-07
4.19959e-07
4.14238e-07
4.17075e-07
4.11441e-07
4.12208e-07
4.11436e-07
4.10316e-07
4.11983e-07
4.11933e-07
4.13374e-07
4.14922e-07
4.15948e-07
4.17928e-07
4.19094e-07
4.20416e-07
4.21312e-07
4.2155e-07
4.21387e-07
4.20479e-07
4.19065e-07
4.17324e-07
4.15533e-07
4.14067e-07
4.1329e-07
4.13446e-07
4.14731e-07
4.16926e-07
4.19537e-07
4.22016e-07
4.23668e-07
4.24142e-07
4.23204e-07
4.21193e-07
4.18753e-07
4.16532e-07
4.15341e-07
4.15153e-07
4.16291e-07
4.18088e-07
4.20049e-07
4.21855e-07
4.22613e-07
4.23094e-07
4.22794e-07
4.22519e-07
4.22425e-07
4.22486e-07
4.22686e-07
4.22823e-07
4.21924e-07
4.21205e-07
4.19089e-07
4.18703e-07
4.17316e-07
4.19915e-07
4.14772e-07
4.07472e-07
4.28152e-07
4.15365e-07
4.22077e-07
4.19788e-07
4.14455e-07
4.17304e-07
4.11637e-07
4.12518e-07
4.11602e-07
4.10458e-07
4.12045e-07
4.11879e-07
4.13276e-07
4.14733e-07
4.15717e-07
4.17657e-07
4.18808e-07
4.20139e-07
4.21078e-07
4.21382e-07
4.21308e-07
4.20509e-07
4.19194e-07
4.17547e-07
4.15802e-07
4.14332e-07
4.13491e-07
4.13519e-07
4.14652e-07
4.16689e-07
4.19194e-07
4.21643e-07
4.23355e-07
4.23969e-07
4.23208e-07
4.21367e-07
4.19036e-07
4.16841e-07
4.15585e-07
4.15275e-07
4.16268e-07
4.17941e-07
4.19839e-07
4.2162e-07
4.22418e-07
4.22935e-07
4.22667e-07
4.22403e-07
4.22288e-07
4.22345e-07
4.22567e-07
4.22765e-07
4.21991e-07
4.21372e-07
4.19351e-07
4.18951e-07
4.17484e-07
4.19986e-07
4.14389e-07
4.07417e-07
4.2751e-07
4.14876e-07
4.22092e-07
4.19572e-07
4.14655e-07
4.17505e-07
4.11822e-07
4.12829e-07
4.1177e-07
4.10617e-07
4.12123e-07
4.11843e-07
4.13196e-07
4.14559e-07
4.15498e-07
4.17393e-07
4.18524e-07
4.19859e-07
4.20834e-07
4.21198e-07
4.2121e-07
4.20517e-07
4.19302e-07
4.17753e-07
4.16062e-07
4.14599e-07
4.13705e-07
4.13615e-07
4.146e-07
4.16477e-07
4.18866e-07
4.21272e-07
4.23027e-07
4.23769e-07
4.2318e-07
4.21513e-07
4.19303e-07
4.17148e-07
4.15841e-07
4.1542e-07
4.16271e-07
4.17817e-07
4.19643e-07
4.21392e-07
4.22224e-07
4.22774e-07
4.22539e-07