/*--------------------------------*- C++ -*----------------------------------*\
| =========                 |                                                 |
| \\      /  F ield         | foam-extend: Open Source CFD                    |
|  \\    /   O peration     | Version:     4.0                                |
|   \\  /    A nd           | Web:         http://www.foam-extend.org         |
|    \\/     M anipulation  |                                                 |
\*---------------------------------------------------------------------------*/
FoamFile
{
    version     2.0;
    format      ascii;
    class       volVectorField;
    location    "11";
    object      U;
}
// * * * * * * * * * * * * * * * * * * * * * * * * * * * * * * * * * * * * * //

dimensions      [0 1 -1 0 0 0 0];

internalField   nonuniform List<vector> 
6960
(
(-1.13319e-13 -3.25069e-12 0)
(-8.79098e-14 -1.8033e-15 0)
(1.11885e-14 1.9574e-16 0)
(-5.4354e-15 6.84798e-16 0)
(3.04124e-15 1.30565e-15 0)
(-1.90792e-15 1.68797e-15 0)
(1.18057e-15 1.76496e-15 0)
(-8.6287e-16 1.51603e-15 0)
(4.56491e-16 1.05501e-15 0)
(-4.68007e-16 4.971e-16 0)
(1.26731e-16 1.52006e-17 0)
(-3.0191e-16 -2.8878e-16 0)
(-2.33062e-17 -3.46578e-16 0)
(-2.21187e-16 -1.79397e-16 0)
(-8.9573e-17 1.47519e-16 0)
(-1.82508e-16 5.28066e-16 0)
(-1.19636e-16 8.63935e-16 0)
(-1.63617e-16 1.08029e-15 0)
(-1.37253e-16 1.14813e-15 0)
(-1.62129e-16 1.07854e-15 0)
(-1.50372e-16 9.12638e-16 0)
(-1.60042e-16 7.00106e-16 0)
(-1.53924e-16 4.82639e-16 0)
(-1.59505e-16 2.83314e-16 0)
(-1.5456e-16 1.07674e-16 0)
(-1.51471e-16 -4.70464e-17 0)
(-1.45574e-16 -1.78404e-16 0)
(-1.4558e-16 -2.69247e-16 0)
(-1.43985e-16 -2.86282e-16 0)
(-1.40263e-16 -1.91543e-16 0)
(-1.34577e-16 4.0291e-17 0)
(-1.31276e-16 3.99697e-16 0)
(-1.26404e-16 8.32431e-16 0)
(-1.15365e-16 1.23801e-15 0)
(-9.88604e-17 1.4945e-15 0)
(-8.33343e-17 1.48855e-15 0)
(-7.08618e-17 1.1613e-15 0)
(-5.91504e-17 5.34734e-16 0)
(-4.89252e-17 -2.75152e-16 0)
(-4.61289e-17 -1.07677e-15 0)
(-5.30743e-17 -1.65734e-15 0)
(-6.40339e-17 -1.82522e-15 0)
(-7.22369e-17 -1.5107e-15 0)
(-7.57436e-17 -7.35583e-16 0)
(-7.46754e-17 2.76893e-16 0)
(-6.37345e-17 1.3097e-15 0)
(-4.07951e-17 1.98845e-15 0)
(-6.58967e-18 2.19902e-15 0)
(2.49454e-17 1.72108e-15 0)
(5.42852e-17 8.25235e-16 0)
(6.66223e-17 -4.37865e-16 0)
(7.69078e-17 -1.49748e-15 0)
(5.67225e-17 -2.27657e-15 0)
(4.87485e-17 -2.33096e-15 0)
(7.19686e-18 -1.93777e-15 0)
(2.13663e-17 -1.07309e-15 0)
(-1.39479e-17 -3.95841e-16 0)
(4.53435e-17 -5.70875e-17 0)
(-4.7078e-18 -1.74892e-16 0)
(5.2494e-17 -8.95674e-16 0)
(-2.34266e-13 -6.69218e-12 0)
(-1.62093e-13 -5.69896e-15 0)
(3.05188e-14 -9.22369e-16 0)
(-1.62102e-14 1.07912e-15 0)
(8.66232e-15 2.2164e-15 0)
(-5.65201e-15 3.10912e-15 0)
(3.34882e-15 3.33674e-15 0)
(-2.59163e-15 2.94712e-15 0)
(1.24702e-15 2.09596e-15 0)
(-1.43809e-15 1.02588e-15 0)
(3.01151e-16 6.37732e-17 0)
(-9.3311e-16 -5.72141e-16 0)
(-1.08259e-16 -7.36375e-16 0)
(-6.72205e-16 -4.50341e-16 0)
(-2.83486e-16 1.69357e-16 0)
(-5.5424e-16 9.21073e-16 0)
(-3.75519e-16 1.60756e-15 0)
(-5.09931e-16 2.07139e-15 0)
(-4.41331e-16 2.24083e-15 0)
(-5.21403e-16 2.12435e-15 0)
(-4.91299e-16 1.79468e-15 0)
(-5.19521e-16 1.34991e-15 0)
(-5.00869e-16 8.81379e-16 0)
(-5.17348e-16 4.50365e-16 0)
(-5.02648e-16 8.51709e-17 0)
(-4.91109e-16 -2.0661e-16 0)
(-4.70572e-16 -4.16595e-16 0)
(-4.67691e-16 -5.1967e-16 0)
(-4.58307e-16 -4.7066e-16 0)
(-4.3837e-16 -2.22312e-16 0)
(-4.1101e-16 2.48506e-16 0)
(-3.94573e-16 9.06401e-16 0)
(-3.79955e-16 1.64555e-15 0)
(-3.52524e-16 2.28949e-15 0)
(-3.14343e-16 2.6374e-15 0)
(-2.85443e-16 2.51346e-15 0)
(-2.68825e-16 1.84537e-15 0)
(-2.49524e-16 6.99597e-16 0)
(-2.22764e-16 -7.00098e-16 0)
(-2.05336e-16 -2.01651e-15 0)
(-2.06222e-16 -2.89192e-15 0)
(-2.11306e-16 -3.0251e-15 0)
(-2.04858e-16 -2.33652e-15 0)
(-1.91216e-16 -9.05004e-16 0)
(-1.79026e-16 8.49056e-16 0)
(-1.57091e-16 2.54834e-15 0)
(-1.13597e-16 3.55129e-15 0)
(-4.64021e-17 3.71976e-15 0)
(1.38474e-17 2.69978e-15 0)
(7.532e-17 1.04744e-15 0)
(1.06355e-16 -1.16541e-15 0)
(1.50577e-16 -2.89097e-15 0)
(1.22118e-16 -4.10076e-15 0)
(1.31946e-16 -4.00952e-15 0)
(3.80631e-17 -3.24952e-15 0)
(8.62388e-17 -1.76595e-15 0)
(-3.10059e-17 -7.36314e-16 0)
(1.16466e-16 -4.02507e-16 0)
(-5.84509e-17 -6.74053e-16 0)
(1.29387e-16 -2.03886e-15 0)
(-3.4598e-13 -6.18238e-12 0)
(-2.30466e-13 -1.09166e-14 0)
(4.70428e-14 -4.38246e-15 0)
(-2.70772e-14 1.88694e-16 0)
(1.38665e-14 1.08174e-16 0)
(-9.38778e-15 7.99519e-16 0)
(5.36816e-15 9.32251e-16 0)
(-4.31812e-15 9.96535e-16 0)
(1.96516e-15 7.65668e-16 0)
(-2.41875e-15 4.49725e-16 0)
(4.27011e-16 8.07172e-17 0)
(-1.58708e-15 -1.97495e-16 0)
(-2.34088e-16 -3.41536e-16 0)
(-1.1511e-15 -3.09126e-16 0)
(-5.12745e-16 -1.33238e-16 0)
(-9.54225e-16 1.34992e-16 0)
(-6.61625e-16 4.15203e-16 0)
(-8.81762e-16 6.39502e-16 0)
(-7.72272e-16 7.56946e-16 0)
(-9.07222e-16 7.50901e-16 0)
(-8.60588e-16 6.32279e-16 0)
(-9.06827e-16 4.36214e-16 0)
(-8.76072e-16 2.0856e-16 0)
(-9.03404e-16 -3.69921e-18 0)
(-8.78248e-16 -1.6331e-16 0)
(-8.55358e-16 -2.46916e-16 0)
(-8.1746e-16 -2.46036e-16 0)
(-8.10917e-16 -1.64957e-16 0)
(-7.94891e-16 -1.93062e-17 0)
(-7.60215e-16 1.64598e-16 0)
(-7.13408e-16 3.52773e-16 0)
(-6.87741e-16 5.06651e-16 0)
(-6.67625e-16 5.90824e-16 0)
(-6.25104e-16 5.76808e-16 0)
(-5.62427e-16 4.55003e-16 0)
(-5.14851e-16 2.37149e-16 0)
(-4.87797e-16 -3.40046e-17 0)
(-4.53531e-16 -2.98782e-16 0)
(-4.02854e-16 -4.85775e-16 0)
(-3.66677e-16 -5.39606e-16 0)
(-3.63273e-16 -4.29888e-16 0)
(-3.69078e-16 -1.69342e-16 0)
(-3.5665e-16 1.80715e-16 0)
(-3.34635e-16 5.36055e-16 0)
(-3.1873e-16 7.79174e-16 0)
(-2.89156e-16 8.55487e-16 0)
(-2.21672e-16 6.89109e-16 0)
(-1.12049e-16 3.66222e-16 0)
(-1.03843e-17 -1.1432e-16 0)
(9.43852e-17 -5.19715e-16 0)
(1.52582e-16 -8.70745e-16 0)
(2.31822e-16 -9.14007e-16 0)
(1.90523e-16 -8.37548e-16 0)
(2.05e-16 -4.96509e-16 0)
(4.61389e-17 -2.57723e-16 0)
(1.1618e-16 -7.55183e-17 0)
(-8.35882e-17 -1.91529e-16 0)
(1.56923e-16 -5.86443e-16 0)
(-1.24094e-16 -7.42523e-16 0)
(2.03983e-16 -1.13225e-15 0)
(-4.71465e-13 -5.39457e-12 0)
(-3.16078e-13 -1.86624e-14 0)
(6.07303e-14 -8.37591e-15 0)
(-3.80793e-14 5.94347e-17 0)
(1.85916e-14 -2.11449e-15 0)
(-1.31395e-14 -1.88946e-15 0)
(7.23571e-15 -2.25681e-15 0)
(-6.01798e-15 -1.75446e-15 0)
(2.64806e-15 -1.28172e-15 0)
(-3.36729e-15 -5.36226e-16 0)
(5.39174e-16 -8.76765e-19 0)
(-2.24272e-15 3.80377e-16 0)
(-3.97903e-16 4.13766e-16 0)
(-1.67033e-15 2.07485e-16 0)
(-7.99557e-16 -2.06608e-16 0)
(-1.40628e-15 -6.62569e-16 0)
(-9.9689e-16 -1.06649e-15 0)
(-1.28836e-15 -1.31463e-15 0)
(-1.12775e-15 -1.38655e-15 0)
(-1.3065e-15 -1.29112e-15 0)
(-1.23797e-15 -1.0863e-15 0)
(-1.29876e-15 -8.30172e-16 0)
(-1.25653e-15 -5.74379e-16 0)
(-1.29655e-15 -3.41318e-16 0)
(-1.26345e-15 -1.3497e-16 0)
(-1.23074e-15 5.09126e-17 0)
(-1.1778e-15 2.13377e-16 0)
(-1.17207e-15 3.31772e-16 0)
(-1.15669e-15 3.63642e-16 0)
(-1.11608e-15 2.58824e-16 0)
(-1.05882e-15 -1.87282e-17 0)
(-1.03098e-15 -4.6024e-16 0)
(-1.00712e-15 -9.98913e-16 0)
(-9.4246e-16 -1.50948e-15 0)
(-8.38796e-16 -1.83967e-15 0)
(-7.49839e-16 -1.84668e-15 0)
(-6.88886e-16 -1.45234e-15 0)
(-6.2119e-16 -6.79231e-16 0)
(-5.3899e-16 3.31255e-16 0)
(-4.91577e-16 1.33932e-15 0)
(-5.07191e-16 2.07918e-15 0)
(-5.46977e-16 2.30885e-15 0)
(-5.63106e-16 1.93776e-15 0)
(-5.57801e-16 9.8557e-16 0)
(-5.47217e-16 -2.7387e-16 0)
(-4.97297e-16 -1.57031e-15 0)
(-3.74552e-16 -2.43543e-15 0)
(-1.78628e-16 -2.71973e-15 0)
(6.34983e-18 -2.14892e-15 0)
(1.83436e-16 -1.04461e-15 0)
(2.75217e-16 5.21225e-16 0)
(3.70972e-16 1.8565e-15 0)
(2.80315e-16 2.83406e-15 0)
(2.546e-16 2.92572e-15 0)
(-1.66174e-18 2.42943e-15 0)
(7.79022e-17 1.35577e-15 0)
(-1.81446e-16 4.81418e-16 0)
(1.77952e-16 4.27488e-17 0)
(-1.6476e-16 1.85219e-16 0)
(3.01957e-16 1.07746e-15 0)
(-5.95643e-13 -5.47554e-12 0)
(-4.03832e-13 -2.92517e-14 0)
(7.16127e-14 -1.25654e-14 0)
(-4.92183e-14 1.44597e-15 0)
(2.28279e-14 -1.94569e-15 0)
(-1.69121e-14 -1.34194e-15 0)
(8.93298e-15 -2.20222e-15 0)
(-7.71247e-15 -1.69606e-15 0)
(3.27102e-15 -1.43301e-15 0)
(-4.30291e-15 -6.34878e-16 0)
(6.25919e-16 -9.14079e-17 0)
(-2.90099e-15 4.22683e-16 0)
(-5.92061e-16 5.4445e-16 0)
(-2.21615e-15 4.34968e-16 0)
(-1.12866e-15 4.10347e-17 0)
(-1.89719e-15 -4.36461e-16 0)
(-1.37304e-15 -9.20094e-16 0)
(-1.72698e-15 -1.26003e-15 0)
(-1.5094e-15 -1.41652e-15 0)
(-1.723e-15 -1.36051e-15 0)
(-1.62744e-15 -1.14154e-15 0)
(-1.69847e-15 -8.17249e-16 0)
(-1.64453e-15 -4.64259e-16 0)
(-1.6991e-15 -1.3692e-16 0)
(-1.66214e-15 1.22431e-16 0)
(-1.62387e-15 2.92817e-16 0)
(-1.56031e-15 3.62075e-16 0)
(-1.55936e-15 3.27307e-16 0)
(-1.54762e-15 1.86856e-16 0)
(-1.50206e-15 -5.42501e-17 0)
(-1.43319e-15 -3.78425e-16 0)
(-1.40021e-15 -7.40918e-16 0)
(-1.36806e-15 -1.0724e-15 0)
(-1.27521e-15 -1.28536e-15 0)
(-1.12397e-15 -1.30266e-15 0)
(-9.88352e-16 -1.07396e-15 0)
(-8.91135e-16 -6.08374e-16 0)
(-7.91099e-16 2.20741e-17 0)
(-6.81763e-16 6.77187e-16 0)
(-6.30141e-16 1.18772e-15 0)
(-6.7303e-16 1.40209e-15 0)
(-7.53494e-16 1.22682e-15 0)
(-8.00928e-16 6.87786e-16 0)
(-8.09484e-16 -1.18509e-16 0)
(-7.96722e-16 -9.44071e-16 0)
(-7.15219e-16 -1.60781e-15 0)
(-5.25661e-16 -1.81669e-15 0)
(-2.33813e-16 -1.59605e-15 0)
(3.80606e-17 -8.24781e-16 0)
(2.84689e-16 1.06709e-16 0)
(4.01332e-16 1.18437e-15 0)
(5.01889e-16 1.83272e-15 0)
(3.52268e-16 2.18324e-15 0)
(2.80469e-16 1.8576e-15 0)
(-6.77259e-17 1.36576e-15 0)
(2.87939e-17 6.87598e-16 0)
(-2.71513e-16 4.09485e-16 0)
(2.04709e-16 6.42448e-16 0)
(-1.94471e-16 8.82478e-16 0)
(4.07131e-16 1.70511e-15 0)
(-7.05347e-13 -5.83595e-12 0)
(-4.80562e-13 -4.23327e-14 0)
(7.97117e-14 -1.84581e-14 0)
(-6.04722e-14 2.78337e-15 0)
(2.66009e-14 -1.05898e-15 0)
(-2.0686e-14 7.96286e-16 0)
(1.04528e-14 -2.63973e-16 0)
(-9.42744e-15 2.07015e-16 0)
(3.79257e-15 -1.97493e-16 0)
(-5.26855e-15 1.71457e-17 0)
(6.52332e-16 -9.465e-17 0)
(-3.57968e-15 6.72924e-17 0)
(-8.15233e-16 6.91486e-17 0)
(-2.77007e-15 1.64431e-16 0)
(-1.47124e-15 1.51664e-16 0)
(-2.39587e-15 1.547e-16 0)
(-1.76469e-15 9.28506e-17 0)
(-2.18303e-15 4.14443e-17 0)
(-1.91521e-15 -1.93052e-17 0)
(-2.16569e-15 -4.20801e-17 0)
(-2.04555e-15 -3.72037e-17 0)
(-2.126e-15 4.93984e-18 0)
(-2.05993e-15 6.17323e-17 0)
(-2.12808e-15 1.20066e-16 0)
(-2.08733e-15 1.53475e-16 0)
(-2.04329e-15 1.46022e-16 0)
(-1.96856e-15 8.90658e-17 0)
(-1.97024e-15 -4.57515e-18 0)
(-1.95797e-15 -1.09397e-16 0)
(-1.90096e-15 -1.91991e-16 0)
(-1.81301e-15 -2.22034e-16 0)
(-1.76867e-15 -1.77383e-16 0)
(-1.72584e-15 -5.45882e-17 0)
(-1.60784e-15 1.24576e-16 0)
(-1.41795e-15 3.13003e-16 0)
(-1.24928e-15 4.53861e-16 0)
(-1.131e-15 4.95784e-16 0)
(-1.01085e-15 4.10849e-16 0)
(-8.79058e-16 1.98455e-16 0)
(-8.178e-16 -1.0093e-16 0)
(-8.72326e-16 -4.19076e-16 0)
(-9.70809e-16 -6.64245e-16 0)
(-1.02492e-15 -7.66554e-16 0)
(-1.02808e-15 -6.80734e-16 0)
(-1.00469e-15 -4.23343e-16 0)
(-8.98084e-16 -4.49819e-17 0)
(-6.60982e-16 3.50505e-16 0)
(-3.0158e-16 6.57527e-16 0)
(2.91162e-17 7.82701e-16 0)
(3.24371e-16 6.83474e-16 0)
(4.60616e-16 3.96828e-16 0)
(5.76856e-16 -1.24063e-17 0)
(3.94195e-16 -3.8623e-16 0)
(3.06024e-16 -6.41788e-16 0)
(-1.07202e-16 -6.40862e-16 0)
(1.37945e-17 -4.10272e-16 0)
(-3.35767e-16 -5.03645e-17 0)
(2.32277e-16 3.53992e-16 0)
(-2.46607e-16 4.22356e-16 0)
(4.91341e-16 3.86711e-16 0)
(-8.04143e-13 -5.8653e-12 0)
(-5.49852e-13 -5.75309e-14 0)
(8.50179e-14 -2.64444e-14 0)
(-7.18493e-14 3.3521e-15 0)
(2.98976e-14 -1.46163e-15 0)
(-2.44579e-14 1.68157e-15 0)
(1.17975e-14 4.24007e-16 0)
(-1.11591e-14 1.16548e-15 0)
(4.21233e-15 4.23455e-16 0)
(-6.26674e-15 4.41873e-16 0)
(6.12986e-16 -5.76345e-17 0)
(-4.28461e-15 -1.0367e-16 0)
(-1.07264e-15 -2.5387e-16 0)
(-3.33487e-15 -1.07474e-16 0)
(-1.82727e-15 2.86268e-17 0)
(-2.89953e-15 2.83032e-16 0)
(-2.16754e-15 4.67465e-16 0)
(-2.6522e-15 6.20169e-16 0)
(-2.34234e-15 6.59374e-16 0)
(-2.63417e-15 6.29387e-16 0)
(-2.49466e-15 5.22492e-16 0)
(-2.58583e-15 3.856e-16 0)
(-2.50779e-15 2.34083e-16 0)
(-2.58727e-15 1.00197e-16 0)
(-2.53989e-15 -1.03248e-17 0)
(-2.48615e-15 -9.11482e-17 0)
(-2.39618e-15 -1.44162e-16 0)
(-2.3962e-15 -1.60007e-16 0)
(-2.37949e-15 -1.28366e-16 0)
(-2.30768e-15 -4.07399e-17 0)
(-2.1987e-15 1.00826e-16 0)
(-2.14325e-15 2.82836e-16 0)
(-2.09287e-15 4.76324e-16 0)
(-1.9556e-15 6.34104e-16 0)
(-1.73476e-15 7.01709e-16 0)
(-1.5408e-15 6.35733e-16 0)
(-1.4071e-15 4.26488e-16 0)
(-1.26817e-15 1.02217e-16 0)
(-1.10951e-15 -2.72725e-16 0)
(-1.02861e-15 -6.08441e-16 0)
(-1.08099e-15 -8.12079e-16 0)
(-1.18339e-15 -8.07274e-16 0)
(-1.23327e-15 -5.84944e-16 0)
(-1.22708e-15 -1.78571e-16 0)
(-1.19721e-15 2.87735e-16 0)
(-1.07803e-15 7.17039e-16 0)
(-8.10005e-16 9.40159e-16 0)
(-4.00479e-16 9.36199e-16 0)
(-2.22036e-17 6.16029e-16 0)
(3.18313e-16 1.51692e-16 0)
(4.82369e-16 -4.38222e-16 0)
(6.29386e-16 -8.65061e-16 0)
(4.33501e-16 -1.14404e-15 0)
(3.43329e-16 -1.0735e-15 0)
(-1.28406e-16 -8.45942e-16 0)
(9.37284e-18 -4.59186e-16 0)
(-4.05387e-16 -2.1785e-16 0)
(2.4166e-16 -1.92672e-16 0)
(-3.21643e-16 -2.74012e-16 0)
(5.55898e-16 -6.55796e-16 0)
(-8.99349e-13 -5.67859e-12 0)
(-6.19019e-13 -7.4973e-14 0)
(8.75398e-14 -3.56878e-14 0)
(-8.33821e-14 3.86354e-15 0)
(3.2671e-14 -2.75457e-15 0)
(-2.8248e-14 1.43294e-15 0)
(1.29608e-14 -2.93545e-16 0)
(-1.28967e-14 8.86162e-16 0)
(4.5487e-15 1.02188e-16 0)
(-7.27604e-15 4.07187e-16 0)
(5.24354e-16 -5.84983e-17 0)
(-5.00761e-15 1.01516e-17 0)
(-1.36664e-15 -1.9053e-16 0)
(-3.92155e-15 -8.58119e-17 0)
(-2.21303e-15 -6.65168e-17 0)
(-3.42499e-15 1.00842e-16 0)
(-2.59513e-15 2.01681e-16 0)
(-3.14202e-15 3.22885e-16 0)
(-2.7916e-15 3.59985e-16 0)
(-3.12336e-15 3.6457e-16 0)
(-2.96585e-15 3.0275e-16 0)
(-3.06747e-15 2.14903e-16 0)
(-2.97788e-15 1.03549e-16 0)
(-3.06768e-15 5.42738e-18 0)
(-3.0126e-15 -7.02598e-17 0)
(-2.94735e-15 -1.09786e-16 0)
(-2.84049e-15 -1.15265e-16 0)
(-2.83752e-15 -8.30317e-17 0)
(-2.81624e-15 -1.83674e-17 0)
(-2.73073e-15 6.75327e-17 0)
(-2.60295e-15 1.5529e-16 0)
(-2.53904e-15 2.28025e-16 0)
(-2.48354e-15 2.71703e-16 0)
(-2.32823e-15 2.72671e-16 0)
(-2.0757e-15 2.20977e-16 0)
(-1.85333e-15 1.18756e-16 0)
(-1.69914e-15 -1.23137e-17 0)
(-1.53544e-15 -1.41509e-16 0)
(-1.34441e-15 -2.36609e-16 0)
(-1.2402e-15 -2.72818e-16 0)
(-1.28969e-15 -2.32916e-16 0)
(-1.39859e-15 -1.1686e-16 0)
(-1.44966e-15 4.73041e-17 0)
(-1.44085e-15 2.17965e-16 0)
(-1.41053e-15 3.37235e-16 0)
(-1.28233e-15 3.82401e-16 0)
(-9.8313e-16 3.15502e-16 0)
(-5.19363e-16 1.75461e-16 0)
(-8.58963e-17 -4.51202e-17 0)
(3.08273e-16 -2.32305e-16 0)
(5.08082e-16 -3.99499e-16 0)
(6.89321e-16 -4.21582e-16 0)
(4.80437e-16 -3.9619e-16 0)
(3.82003e-16 -2.41954e-16 0)
(-1.55145e-16 -1.41354e-16 0)
(-9.8187e-18 -4.96079e-17 0)
(-4.91884e-16 -1.06699e-16 0)
(2.35056e-16 -2.62943e-16 0)
(-4.00324e-16 -3.27956e-16 0)
(6.16246e-16 -4.83954e-16 0)
(-9.90844e-13 -5.57294e-12 0)
(-6.879e-13 -9.49519e-14 0)
(8.73228e-14 -4.58955e-14 0)
(-9.50943e-14 4.68005e-15 0)
(3.48857e-14 -4.01678e-15 0)
(-3.20747e-14 1.30844e-15 0)
(1.393e-14 -1.07047e-15 0)
(-1.4643e-14 5.43718e-16 0)
(4.80368e-15 -3.40676e-16 0)
(-8.29029e-15 2.97077e-16 0)
(3.92642e-16 -1.0018e-16 0)
(-5.74401e-15 1.57408e-16 0)
(-1.6963e-15 -4.7167e-17 0)
(-4.53283e-15 5.07719e-17 0)
(-2.63445e-15 -5.31825e-17 0)
(-3.97964e-15 -3.3948e-18 0)
(-3.05463e-15 -4.02321e-17 0)
(-3.65773e-15 -4.86274e-18 0)
(-3.26529e-15 -1.26307e-17 0)
(-3.63227e-15 1.14136e-17 0)
(-3.45541e-15 9.7575e-18 0)
(-3.56556e-15 1.36432e-17 0)
(-3.46456e-15 -6.89457e-19 0)
(-3.56464e-15 -8.40076e-18 0)
(-3.50284e-15 -1.49407e-17 0)
(-3.42687e-15 -1.19057e-17 0)
(-3.30415e-15 -6.13248e-18 0)
(-3.2989e-15 7.40304e-18 0)
(-3.27393e-15 2.49031e-17 0)
(-3.17565e-15 3.92691e-17 0)
(-3.02983e-15 3.78425e-17 0)
(-2.95752e-15 1.80613e-17 0)
(-2.89605e-15 -1.48218e-17 0)
(-2.72092e-15 -5.2961e-17 0)
(-2.43395e-15 -9.0246e-17 0)
(-2.17965e-15 -1.16216e-16 0)
(-2.00137e-15 -1.16063e-16 0)
(-1.81022e-15 -8.16356e-17 0)
(-1.58583e-15 -1.92039e-17 0)
(-1.45909e-15 5.35007e-17 0)
(-1.50807e-15 1.20045e-16 0)
(-1.62681e-15 1.63718e-16 0)
(-1.68252e-15 1.7079e-16 0)
(-1.67318e-15 1.29734e-16 0)
(-1.64244e-15 4.98712e-17 0)
(-1.50271e-15 -4.72981e-17 0)
(-1.16814e-15 -1.30249e-16 0)
(-6.45013e-16 -1.77498e-16 0)
(-1.51668e-16 -1.74335e-16 0)
(2.9911e-16 -1.14722e-16 0)
(5.35529e-16 -1.82651e-17 0)
(7.48652e-16 9.69429e-17 0)
(5.24152e-16 1.72428e-16 0)
(4.12963e-16 2.11552e-16 0)
(-1.89872e-16 1.63612e-16 0)
(-3.86025e-17 9.35384e-17 0)
(-5.81704e-16 -1.65853e-17 0)
(2.2387e-16 -6.09739e-17 0)
(-4.75726e-16 -5.34812e-17 0)
(6.76383e-16 1.81301e-17 0)
(-1.07557e-12 -5.56513e-12 0)
(-7.53387e-13 -1.17381e-13 0)
(8.4426e-14 -5.7375e-14 0)
(-1.06996e-13 5.54299e-15 0)
(3.65248e-14 -5.18079e-15 0)
(-3.59456e-14 1.59614e-15 0)
(1.46953e-14 -1.47198e-15 0)
(-1.64067e-14 5.86398e-16 0)
(4.96783e-15 -5.3905e-16 0)
(-9.31712e-15 3.15908e-16 0)
(2.12086e-16 -1.51659e-16 0)
(-6.49649e-15 2.2329e-16 0)
(-2.06169e-15 -1.15587e-17 0)
(-5.16665e-15 1.23521e-16 0)
(-3.08852e-15 -2.38847e-17 0)
(-4.56055e-15 1.03846e-17 0)
(-3.54416e-15 -7.48978e-17 0)
(-4.19894e-15 -6.38906e-17 0)
(-3.76449e-15 -9.67147e-17 0)
(-4.16302e-15 -7.11622e-17 0)
(-3.966e-15 -6.063e-17 0)
(-4.08287e-15 -2.82752e-17 0)
(-3.97036e-15 -1.21065e-17 0)
(-4.08038e-15 1.08405e-17 0)
(-4.01259e-15 2.50412e-17 0)
(-3.92663e-15 3.56619e-17 0)
(-3.78886e-15 3.20224e-17 0)
(-3.78149e-15 2.29282e-17 0)
(-3.75274e-15 9.74564e-18 0)
(-3.64124e-15 -7.28502e-18 0)
(-3.47663e-15 -3.41653e-17 0)
(-3.39471e-15 -6.57363e-17 0)
(-3.32599e-15 -9.15618e-17 0)
(-3.13012e-15 -1.03439e-16 0)
(-2.80829e-15 -1.01506e-16 0)
(-2.52183e-15 -8.43957e-17 0)
(-2.3194e-15 -4.82106e-17 0)
(-2.10093e-15 5.11342e-18 0)
(-1.84334e-15 6.02676e-17 0)
(-1.69369e-15 9.80228e-17 0)
(-1.74098e-15 1.08155e-16 0)
(-1.86772e-15 8.84754e-17 0)
(-1.92603e-15 4.13398e-17 0)
(-1.91416e-15 -2.95944e-17 0)
(-1.88136e-15 -1.03382e-16 0)
(-1.72926e-15 -1.5795e-16 0)
(-1.35978e-15 -1.66902e-16 0)
(-7.78813e-16 -1.33196e-16 0)
(-2.2739e-16 -5.538e-17 0)
(2.78375e-16 4.07488e-17 0)
(5.51146e-16 1.41157e-16 0)
(7.96605e-16 2.07735e-16 0)
(5.59662e-16 2.2112e-16 0)
(4.38287e-16 1.8322e-16 0)
(-2.24943e-16 9.98154e-17 0)
(-6.73853e-17 3.53562e-17 0)
(-6.68128e-16 -1.88522e-17 0)
(2.09878e-16 4.00792e-17 0)
(-5.52264e-16 7.79624e-17 0)
(7.3207e-16 1.97454e-16 0)
(-1.15274e-12 -5.55683e-12 0)
(-8.14637e-13 -1.41983e-13 0)
(7.8911e-14 -7.02869e-14 0)
(-1.19095e-13 6.25267e-15 0)
(3.75725e-14 -6.4866e-15 0)
(-3.98675e-14 2.02116e-15 0)
(1.52491e-14 -1.7582e-15 0)
(-1.81942e-14 8.04753e-16 0)
(5.03377e-15 -6.24569e-16 0)
(-1.03632e-14 4.12442e-16 0)
(-2.30304e-17 -2.00193e-16 0)
(-7.26868e-15 2.5275e-16 0)
(-2.46438e-15 -4.19541e-17 0)
(-5.82249e-15 1.4058e-16 0)
(-3.5734e-15 -2.13291e-17 0)
(-5.16532e-15 4.66318e-17 0)
(-4.06174e-15 -3.8953e-17 0)
(-4.76468e-15 -1.22546e-17 0)
(-4.28959e-15 -5.06294e-17 0)
(-4.71727e-15 -2.52553e-17 0)
(-4.50028e-15 -2.50793e-17 0)
(-4.62259e-15 -2.74121e-19 0)
(-4.49848e-15 4.46508e-18 0)
(-4.61758e-15 1.94408e-17 0)
(-4.54375e-15 2.57481e-17 0)
(-4.44761e-15 3.007e-17 0)
(-4.2947e-15 1.9382e-17 0)
(-4.28452e-15 5.44158e-18 0)
(-4.25117e-15 -8.73889e-18 0)
(-4.12568e-15 -2.12888e-17 0)
(-3.94165e-15 -3.8794e-17 0)
(-3.84941e-15 -5.60793e-17 0)
(-3.77309e-15 -6.41716e-17 0)
(-3.55685e-15 -5.91599e-17 0)
(-3.20114e-15 -4.77917e-17 0)
(-2.88345e-15 -3.35374e-17 0)
(-2.65726e-15 -1.35242e-17 0)
(-2.41126e-15 1.24589e-17 0)
(-2.11943e-15 3.31975e-17 0)
(-1.94461e-15 3.69835e-17 0)
(-1.98678e-15 2.2865e-17 0)
(-2.11779e-15 -2.39218e-18 0)
(-2.17573e-15 -3.4932e-17 0)
(-2.15968e-15 -7.30835e-17 0)
(-2.12478e-15 -1.05855e-16 0)
(-1.96211e-15 -1.1832e-16 0)
(-1.56098e-15 -9.97005e-17 0)
(-9.26125e-16 -5.70376e-17 0)
(-3.19417e-16 1.55803e-18 0)
(2.4026e-16 6.31043e-17 0)
(5.51331e-16 1.15013e-16 0)
(8.32566e-16 1.41638e-16 0)
(5.89273e-16 1.24718e-16 0)
(4.62035e-16 8.41204e-17 0)
(-2.5671e-16 1.39274e-17 0)
(-9.44974e-17 -1.849e-17 0)
(-7.53222e-16 -4.91748e-17 0)
(1.90069e-16 2.65216e-17 0)
(-6.33349e-16 6.04514e-17 0)
(7.80683e-16 1.62225e-16 0)
(-1.22292e-12 -5.52025e-12 0)
(-8.72147e-13 -1.68627e-13 0)
(7.08485e-14 -8.45852e-14 0)
(-1.31402e-13 6.77921e-15 0)
(3.80091e-14 -8.02664e-15 0)
(-4.38504e-14 2.42919e-15 0)
(1.55833e-14 -2.11431e-15 0)
(-2.00106e-14 1.02468e-15 0)
(4.99724e-15 -7.2823e-16 0)
(-1.14318e-14 5.2003e-16 0)
(-3.1546e-16 -2.49519e-16 0)
(-8.06271e-15 2.89139e-16 0)
(-2.90605e-15 -7.66088e-17 0)
(-6.50154e-15 1.52321e-16 0)
(-4.0899e-15 -3.15059e-17 0)
(-5.79446e-15 7.02211e-17 0)
(-4.60778e-15 -1.63603e-17 0)
(-5.35546e-15 2.97798e-17 0)
(-4.84123e-15 -1.11841e-17 0)
(-5.29585e-15 1.76092e-17 0)
(-5.05928e-15 8.7027e-18 0)
(-5.18587e-15 2.5759e-17 0)
(-5.05009e-15 1.69831e-17 0)
(-5.17726e-15 2.19054e-17 0)
(-5.09708e-15 1.93128e-17 0)
(-4.99031e-15 1.87562e-17 0)
(-4.82191e-15 4.95968e-18 0)
(-4.80798e-15 -7.85981e-18 0)
(-4.76914e-15 -1.67889e-17 0)
(-4.62903e-15 -2.06617e-17 0)
(-4.42524e-15 -2.8987e-17 0)
(-4.32236e-15 -3.7693e-17 0)
(-4.23842e-15 -3.87377e-17 0)
(-4.00244e-15 -3.03002e-17 0)
(-3.61391e-15 -2.21776e-17 0)
(-3.26571e-15 -1.85078e-17 0)
(-3.0157e-15 -1.37188e-17 0)
(-2.74136e-15 -4.00845e-18 0)
(-2.41369e-15 2.28157e-18 0)
(-2.21101e-15 -3.48629e-18 0)
(-2.24448e-15 -1.86441e-17 0)
(-2.37624e-15 -3.43993e-17 0)
(-2.43138e-15 -4.98819e-17 0)
(-2.41034e-15 -6.80726e-17 0)
(-2.37405e-15 -8.4628e-17 0)
(-2.20316e-15 -8.65385e-17 0)
(-1.77382e-15 -6.912e-17 0)
(-1.08878e-15 -3.62103e-17 0)
(-4.28869e-16 1.084e-18 0)
(1.84577e-16 4.36459e-17 0)
(5.36834e-16 7.56474e-17 0)
(8.57852e-16 9.72751e-17 0)
(6.14424e-16 7.7199e-17 0)
(4.852e-16 4.97612e-17 0)
(-2.85057e-16 -1.48238e-17 0)
(-1.20697e-16 -3.54319e-17 0)
(-8.38426e-16 -7.3808e-17 0)
(1.63482e-16 -3.95113e-18 0)
(-7.1918e-16 2.25917e-17 0)
(8.2207e-16 1.18473e-16 0)
(-1.28643e-12 -5.47106e-12 0)
(-9.26164e-13 -1.97283e-13 0)
(6.0324e-14 -1.00216e-13 0)
(-1.43925e-13 7.10395e-15 0)
(3.78143e-14 -9.80365e-15 0)
(-4.79059e-14 2.80728e-15 0)
(1.56892e-14 -2.56227e-15 0)
(-2.18611e-14 1.22028e-15 0)
(4.85446e-15 -8.73941e-16 0)
(-1.25254e-14 6.23073e-16 0)
(-6.67125e-16 -3.04539e-16 0)
(-8.88016e-15 3.38309e-16 0)
(-3.38819e-15 -1.02514e-16 0)
(-7.2053e-15 1.74001e-16 0)
(-4.63952e-15 -4.24842e-17 0)
(-6.44941e-15 8.56479e-17 0)
(-5.18362e-15 -1.21184e-17 0)
(-5.97242e-15 4.84372e-17 0)
(-5.42037e-15 1.99401e-18 0)
(-5.89951e-15 3.63808e-17 0)
(-5.64359e-15 2.28636e-17 0)
(-5.77326e-15 3.88956e-17 0)
(-5.62568e-15 2.33077e-17 0)
(-5.75987e-15 2.44971e-17 0)
(-5.67304e-15 1.78375e-17 0)
(-5.55525e-15 1.55562e-17 0)
(-5.37108e-15 -3.50656e-19 0)
(-5.3525e-15 -1.30907e-17 0)
(-5.30737e-15 -1.99089e-17 0)
(-5.1521e-15 -2.02217e-17 0)
(-4.92834e-15 -2.61552e-17 0)
(-4.81448e-15 -3.36392e-17 0)
(-4.7228e-15 -3.3966e-17 0)
(-4.46757e-15 -2.56161e-17 0)
(-4.04712e-15 -2.00539e-17 0)
(-3.66889e-15 -2.12306e-17 0)
(-3.39475e-15 -2.11858e-17 0)
(-3.09111e-15 -1.42926e-17 0)
(-2.72604e-15 -9.17962e-18 0)
(-2.49303e-15 -1.50217e-17 0)
(-2.51448e-15 -2.83137e-17 0)
(-2.64377e-15 -3.98682e-17 0)
(-2.694e-15 -5.08325e-17 0)
(-2.66728e-15 -6.6635e-17 0)
(-2.63026e-15 -8.39741e-17 0)
(-2.45319e-15 -8.79997e-17 0)
(-1.99869e-15 -7.42486e-17 0)
(-1.26677e-15 -4.43876e-17 0)
(-5.55453e-16 -1.06668e-17 0)
(1.11765e-16 3.35513e-17 0)
(5.08013e-16 6.78215e-17 0)
(8.72561e-16 9.73179e-17 0)
(6.34909e-16 7.8708e-17 0)
(5.07357e-16 5.61961e-17 0)
(-3.10395e-16 -1.63757e-17 0)
(-1.46189e-16 -3.92593e-17 0)
(-9.23495e-16 -9.29398e-17 0)
(1.30613e-16 -2.16453e-17 0)
(-8.09135e-16 2.96934e-18 0)
(8.56565e-16 1.10489e-16 0)
(-1.3433e-12 -5.41889e-12 0)
(-9.76615e-13 -2.27885e-13 0)
(4.7437e-14 -1.17153e-13 0)
(-1.56674e-13 7.1834e-15 0)
(3.69692e-14 -1.18164e-14 0)
(-5.20465e-14 3.16616e-15 0)
(1.55576e-14 -3.0853e-15 0)
(-2.3752e-14 1.40617e-15 0)
(4.6012e-15 -1.05175e-15 0)
(-1.3647e-14 7.25048e-16 0)
(-1.08022e-15 -3.67013e-16 0)
(-9.72279e-15 3.95348e-16 0)
(-3.91235e-15 -1.24631e-16 0)
(-7.93523e-15 2.03186e-16 0)
(-5.22367e-15 -5.23664e-17 0)
(-7.13154e-15 9.95346e-17 0)
(-5.79053e-15 -1.56338e-17 0)
(-6.61677e-15 5.66253e-17 0)
(-6.02807e-15 2.19596e-18 0)
(-6.52914e-15 4.29827e-17 0)
(-6.25397e-15 2.67681e-17 0)
(-6.38545e-15 4.53909e-17 0)
(-6.22589e-15 2.65862e-17 0)
(-6.36599e-15 2.75845e-17 0)
(-6.27221e-15 1.9376e-17 0)
(-6.14305e-15 1.67044e-17 0)
(-5.94291e-15 -1.56312e-18 0)
(-5.91885e-15 -1.57481e-17 0)
(-5.86661e-15 -2.30015e-17 0)
(-5.6957e-15 -2.29202e-17 0)
(-5.45175e-15 -2.98766e-17 0)
(-5.32654e-15 -3.90644e-17 0)
(-5.22687e-15 -4.03492e-17 0)
(-4.95275e-15 -3.19674e-17 0)
(-4.5012e-15 -2.69825e-17 0)
(-4.09336e-15 -2.93066e-17 0)
(-3.79472e-15 -2.91491e-17 0)
(-3.46086e-15 -2.00513e-17 0)
(-3.05698e-15 -1.23831e-17 0)
(-2.79131e-15 -1.70285e-17 0)
(-2.79755e-15 -3.01861e-17 0)
(-2.92118e-15 -4.20674e-17 0)
(-2.96436e-15 -5.48738e-17 0)
(-2.93119e-15 -7.51107e-17 0)
(-2.8939e-15 -9.82291e-17 0)
(-2.71245e-15 -1.06293e-16 0)
(-2.23571e-15 -9.34773e-17 0)
(-1.46015e-15 -6.07776e-17 0)
(-6.99271e-16 -2.15087e-17 0)
(2.16161e-17 3.26396e-17 0)
(4.64484e-16 7.66069e-17 0)
(8.7617e-16 1.1589e-16 0)
(6.50168e-16 9.75927e-17 0)
(5.28097e-16 7.37852e-17 0)
(-3.32828e-16 -1.26276e-17 0)
(-1.70726e-16 -4.236e-17 0)
(-1.00784e-15 -1.11313e-16 0)
(9.20411e-17 -3.18648e-17 0)
(-9.02795e-16 -6.2573e-18 0)
(8.84337e-16 1.20984e-16 0)
(-1.39352e-12 -5.36452e-12 0)
(-1.02339e-12 -2.60324e-13 0)
(3.22997e-14 -1.35376e-13 0)
(-1.69652e-13 6.96445e-15 0)
(3.54565e-14 -1.40732e-14 0)
(-5.62844e-14 3.50613e-15 0)
(1.51795e-14 -3.6744e-15 0)
(-2.56897e-14 1.59143e-15 0)
(4.23283e-15 -1.25405e-15 0)
(-1.48002e-14 8.29333e-16 0)
(-1.55728e-15 -4.37286e-16 0)
(-1.05927e-14 4.56847e-16 0)
(-4.48014e-15 -1.47276e-16 0)
(-8.69282e-15 2.36473e-16 0)
(-5.84366e-15 -6.19e-17 0)
(-7.84209e-15 1.14508e-16 0)
(-6.42973e-15 -2.09447e-17 0)
(-7.28969e-15 6.27069e-17 0)
(-6.66545e-15 -1.15234e-18 0)
(-7.18577e-15 4.64125e-17 0)
(-6.89138e-15 2.77645e-17 0)
(-7.02331e-15 5.01505e-17 0)
(-6.85154e-15 2.90279e-17 0)
(-6.9964e-15 3.08907e-17 0)
(-6.89532e-15 2.17404e-17 0)
(-6.75448e-15 1.88949e-17 0)
(-6.53818e-15 -2.20157e-18 0)
(-6.50778e-15 -1.86693e-17 0)
(-6.44759e-15 -2.73874e-17 0)
(-6.26055e-15 -2.79174e-17 0)
(-5.9962e-15 -3.68121e-17 0)
(-5.8592e-15 -4.82486e-17 0)
(-5.75122e-15 -5.04372e-17 0)
(-5.45855e-15 -4.13679e-17 0)
(-4.97672e-15 -3.59888e-17 0)
(-4.53973e-15 -3.83928e-17 0)
(-4.21624e-15 -3.71281e-17 0)
(-3.85129e-15 -2.51381e-17 0)
(-3.40727e-15 -1.49175e-17 0)
(-3.10665e-15 -1.91809e-17 0)
(-3.09443e-15 -3.36397e-17 0)
(-3.20912e-15 -4.74923e-17 0)
(-3.243e-15 -6.36966e-17 0)
(-3.20247e-15 -8.94884e-17 0)
(-3.16525e-15 -1.18652e-16 0)
(-2.98114e-15 -1.29941e-16 0)
(-2.48506e-15 -1.16203e-16 0)
(-1.66924e-15 -7.83878e-17 0)
(-8.6081e-16 -3.11375e-17 0)
(-8.65058e-17 3.46922e-17 0)
(4.05503e-16 8.94597e-17 0)
(8.67946e-16 1.38131e-16 0)
(6.59616e-16 1.18996e-16 0)
(5.47146e-16 9.1915e-17 0)
(-3.52275e-16 -9.88992e-18 0)
(-1.9392e-16 -4.70231e-17 0)
(-1.09091e-15 -1.30903e-16 0)
(4.82226e-17 -4.05042e-17 0)
(-9.99943e-16 -1.35706e-17 0)
(9.05437e-16 1.36054e-16 0)
(-1.43712e-12 -5.30705e-12 0)
(-1.0664e-12 -2.9447e-13 0)
(1.50363e-14 -1.54858e-13 0)
(-1.82862e-13 6.39189e-15 0)
(3.32604e-14 -1.65882e-14 0)
(-6.06324e-14 3.81863e-15 0)
(1.45456e-14 -4.32972e-15 0)
(-2.76814e-14 1.77688e-15 0)
(3.74446e-15 -1.47898e-15 0)
(-1.59889e-14 9.3653e-16 0)
(-2.1011e-15 -5.15627e-16 0)
(-1.14921e-14 5.21353e-16 0)
(-5.09329e-15 -1.72214e-16 0)
(-9.47959e-15 2.72251e-16 0)
(-6.50078e-15 -7.17857e-17 0)
(-8.58232e-15 1.3104e-16 0)
(-7.10239e-15 -2.62891e-17 0)
(-7.99238e-15 6.9421e-17 0)
(-7.33364e-15 -4.77958e-18 0)
(-7.87051e-15 4.98913e-17 0)
(-7.55685e-15 2.85377e-17 0)
(-7.68787e-15 5.49733e-17 0)
(-7.50359e-15 3.14289e-17 0)
(-7.65198e-15 3.42939e-17 0)
(-7.5432e-15 2.41589e-17 0)
(-7.39035e-15 2.10747e-17 0)
(-7.15769e-15 -3.19627e-18 0)
(-7.12006e-15 -2.23061e-17 0)
(-7.05106e-15 -3.27857e-17 0)
(-6.84737e-15 -3.40928e-17 0)
(-6.5624e-15 -4.50629e-17 0)
(-6.41313e-15 -5.87515e-17 0)
(-6.29647e-15 -6.16221e-17 0)
(-5.98557e-15 -5.14968e-17 0)
(-5.47434e-15 -4.54654e-17 0)
(-5.00867e-15 -4.79051e-17 0)
(-4.66004e-15 -4.56401e-17 0)
(-4.26317e-15 -3.09842e-17 0)
(-3.77772e-15 -1.86591e-17 0)
(-3.43991e-15 -2.31724e-17 0)
(-3.40591e-15 -3.95284e-17 0)
(-3.50824e-15 -5.56779e-17 0)
(-3.53044e-15 -7.53743e-17 0)
(-3.48153e-15 -1.06628e-16 0)
(-3.44459e-15 -1.41585e-16 0)
(-3.25946e-15 -1.55591e-16 0)
(-2.74702e-15 -1.40373e-16 0)
(-1.89445e-15 -9.69219e-17 0)
(-1.04068e-15 -4.13774e-17 0)
(-2.13353e-16 3.64655e-17 0)
(3.30232e-16 1.02205e-16 0)
(8.47097e-16 1.60446e-16 0)
(6.62635e-16 1.40299e-16 0)
(5.64215e-16 1.09916e-16 0)
(-3.68682e-16 -7.80023e-18 0)
(-2.15423e-16 -5.23544e-17 0)
(-1.17223e-15 -1.51971e-16 0)
(-4.41288e-19 -5.0064e-17 0)
(-1.10042e-15 -2.24418e-17 0)
(9.19902e-16 1.50451e-16 0)
(-1.47419e-12 -5.24603e-12 0)
(-1.10559e-12 -3.30188e-13 0)
(-4.2173e-15 -1.75563e-13 0)
(-1.96304e-13 5.41067e-15 0)
(3.03671e-14 -1.93774e-14 0)
(-6.51034e-14 4.09123e-15 0)
(1.36465e-14 -5.05534e-15 0)
(-2.97344e-14 1.95951e-15 0)
(3.13099e-15 -1.72751e-15 0)
(-1.72174e-14 1.04569e-15 0)
(-2.71464e-15 -6.02476e-16 0)
(-1.24236e-14 5.88233e-16 0)
(-5.75366e-15 -1.99924e-16 0)
(-1.02972e-14 3.10006e-16 0)
(-7.19639e-15 -8.23201e-17 0)
(-9.35352e-15 1.49005e-16 0)
(-7.80974e-15 -3.15231e-17 0)
(-8.72607e-15 7.71013e-17 0)
(-8.03387e-15 -8.20319e-18 0)
(-8.58454e-15 5.39198e-17 0)
(-8.25153e-15 2.95195e-17 0)
(-8.38023e-15 6.01351e-17 0)
(-8.18308e-15 3.38886e-17 0)
(-8.33368e-15 3.77328e-17 0)
(-8.21672e-15 2.64807e-17 0)
(-8.05151e-15 2.30978e-17 0)
(-7.8023e-15 -4.58858e-18 0)
(-7.75651e-15 -2.65266e-17 0)
(-7.67779e-15 -3.8869e-17 0)
(-7.45692e-15 -4.09584e-17 0)
(-7.15112e-15 -5.40646e-17 0)
(-6.98907e-15 -7.00515e-17 0)
(-6.8633e-15 -7.35475e-17 0)
(-6.53447e-15 -6.22502e-17 0)
(-5.99475e-15 -5.55797e-17 0)
(-5.50093e-15 -5.82217e-17 0)
(-5.12685e-15 -5.51379e-17 0)
(-4.69729e-15 -3.79381e-17 0)
(-4.16922e-15 -2.36645e-17 0)
(-3.79198e-15 -2.86395e-17 0)