/*--------------------------------*- C++ -*----------------------------------*\
| =========                 |                                                 |
| \\      /  F ield         | foam-extend: Open Source CFD                    |
|  \\    /   O peration     | Version:     4.0                                |
|   \\  /    A nd           | Web:         http://www.foam-extend.org         |
|    \\/     M anipulation  |                                                 |
\*---------------------------------------------------------------------------*/
FoamFile
{
    version     2.0;
    format      ascii;
    class       volScalarField;
    location    "150";
    object      psiE;
}
// * * * * * * * * * * * * * * * * * * * * * * * * * * * * * * * * * * * * * //

dimensions      [0 0 0 0 0 0 0];

internalField   nonuniform List<scalar> 
6960
(
0.331622
0.33163
0.33163
0.331629
0.331628
0.331627
0.331627
0.331627
0.331628
0.331628
0.331629
0.33163
0.33163
0.331631
0.331632
0.331633
0.331633
0.331634
0.331635
0.331635
0.331636
0.331636
0.331637
0.331637
0.331638
0.331638
0.331638
0.331638
0.331638
0.331639
0.331639
0.331638
0.331638
0.331638
0.331638
0.331638
0.331637
0.331637
0.331636
0.331636
0.331635
0.331635
0.331634
0.331633
0.331633
0.331632
0.331631
0.33163
0.33163
0.331629
0.331628
0.331628
0.331627
0.331627
0.331627
0.331628
0.331629
0.33163
0.33163
0.331622
0.806498
0.806522
0.806518
0.806513
0.806509
0.806507
0.806506
0.806506
0.806506
0.806507
0.806508
0.80651
0.806511
0.806513
0.806515
0.806517
0.806519
0.806521
0.806523
0.806524
0.806526
0.806527
0.806528
0.806529
0.80653
0.806531
0.806532
0.806532
0.806533
0.806533
0.806533
0.806533
0.806532
0.806532
0.806531
0.80653
0.806529
0.806528
0.806527
0.806526
0.806524
0.806523
0.806521
0.806519
0.806517
0.806515
0.806513
0.806511
0.80651
0.806508
0.806507
0.806506
0.806506
0.806506
0.806507
0.806509
0.806513
0.806518
0.806522
0.806498
1.19348
1.19351
1.1935
1.19349
1.19348
1.19347
1.19347
1.19347
1.19347
1.19347
1.19347
1.19348
1.19348
1.19348
1.19348
1.19349
1.19349
1.19349
1.19349
1.1935
1.1935
1.1935
1.1935
1.19351
1.19351
1.19351
1.19351
1.19351
1.19351
1.19351
1.19351
1.19351
1.19351
1.19351
1.19351
1.19351
1.19351
1.1935
1.1935
1.1935
1.1935
1.19349
1.19349
1.19349
1.19349
1.19348
1.19348
1.19348
1.19348
1.19347
1.19347
1.19347
1.19347
1.19347
1.19347
1.19348
1.19349
1.1935
1.19351
1.19348
1.51627
1.51629
1.51628
1.51626
1.51625
1.51624
1.51623
1.51623
1.51623
1.51623
1.51623
1.51624
1.51624
1.51624
1.51625
1.51625
1.51625
1.51626
1.51626
1.51626
1.51627
1.51627
1.51627
1.51627
1.51628
1.51628
1.51628
1.51628
1.51628
1.51628
1.51628
1.51628
1.51628
1.51628
1.51628
1.51628
1.51627
1.51627
1.51627
1.51627
1.51626
1.51626
1.51626
1.51625
1.51625
1.51625
1.51624
1.51624
1.51624
1.51623
1.51623
1.51623
1.51623
1.51623
1.51624
1.51625
1.51626
1.51628
1.51629
1.51627
1.7834
1.78341
1.78338
1.78335
1.78334
1.78333
1.78332
1.78332
1.78332
1.78332
1.78332
1.78332
1.78333
1.78333
1.78333
1.78334
1.78334
1.78335
1.78335
1.78336
1.78336
1.78337
1.78337
1.78337
1.78337
1.78338
1.78338
1.78338
1.78338
1.78338
1.78338
1.78338
1.78338
1.78338
1.78338
1.78337
1.78337
1.78337
1.78337
1.78336
1.78336
1.78335
1.78335
1.78334
1.78334
1.78333
1.78333
1.78333
1.78332
1.78332
1.78332
1.78332
1.78332
1.78332
1.78333
1.78334
1.78335
1.78338
1.78341
1.7834
2.00105
2.00102
2.00099
2.00096
2.00094
2.00092
2.00091
2.00091
2.00091
2.00091
2.00091
2.00092
2.00092
2.00093
2.00093
2.00094
2.00095
2.00095
2.00096
2.00096
2.00097
2.00097
2.00098
2.00098
2.00098
2.00099
2.00099
2.00099
2.00099
2.00099
2.00099
2.00099
2.00099
2.00099
2.00099
2.00098
2.00098
2.00098
2.00097
2.00097
2.00096
2.00096
2.00095
2.00095
2.00094
2.00093
2.00093
2.00092
2.00092
2.00091
2.00091
2.00091
2.00091
2.00091
2.00092
2.00094
2.00096
2.00099
2.00102
2.00105
2.17645
2.1764
2.17635
2.17632
2.17629
2.17628
2.17627
2.17626
2.17626
2.17627
2.17627
2.17627
2.17628
2.17629
2.1763
2.1763
2.17631
2.17632
2.17632
2.17633
2.17634
2.17634
2.17635
2.17635
2.17636
2.17636
2.17636
2.17636
2.17637
2.17637
2.17637
2.17637
2.17636
2.17636
2.17636
2.17636
2.17635
2.17635
2.17634
2.17634
2.17633
2.17632
2.17632
2.17631
2.1763
2.1763
2.17629
2.17628
2.17627
2.17627
2.17627
2.17626
2.17626
2.17627
2.17628
2.17629
2.17632
2.17635
2.1764
2.17645
2.31785
2.31777
2.31772
2.31768
2.31765
2.31764
2.31763
2.31762
2.31762
2.31763
2.31763
2.31764
2.31765
2.31766
2.31767
2.31768
2.31769
2.31769
2.3177
2.31771
2.31772
2.31773
2.31773
2.31774
2.31774
2.31775
2.31775
2.31775
2.31775
2.31775
2.31775
2.31775
2.31775
2.31775
2.31775
2.31774
2.31774
2.31773
2.31773
2.31772
2.31771
2.3177
2.31769
2.31769
2.31768
2.31767
2.31766
2.31765
2.31764
2.31763
2.31763
2.31762
2.31762
2.31763
2.31764
2.31765
2.31768
2.31772
2.31777
2.31785
2.4333
2.4332
2.43314
2.43309
2.43307
2.43305
2.43304
2.43304
2.43304
2.43305
2.43305
2.43306
2.43307
2.43309
2.4331
2.43311
2.43312
2.43313
2.43314
2.43315
2.43316
2.43317
2.43318
2.43318
2.43319
2.43319
2.4332
2.4332
2.4332
2.4332
2.4332
2.4332
2.4332
2.4332
2.43319
2.43319
2.43318
2.43318
2.43317
2.43316
2.43315
2.43314
2.43313
2.43312
2.43311
2.4331
2.43309
2.43307
2.43306
2.43305
2.43305
2.43304
2.43304
2.43304
2.43305
2.43307
2.43309
2.43314
2.4332
2.4333
2.52962
2.5295
2.52943
2.52939
2.52936
2.52935
2.52934
2.52934
2.52934
2.52935
2.52936
2.52937
2.52938
2.5294
2.52941
2.52943
2.52944
2.52945
2.52947
2.52948
2.52949
2.5295
2.52951
2.52952
2.52952
2.52953
2.52953
2.52954
2.52954
2.52954
2.52954
2.52954
2.52954
2.52953
2.52953
2.52952
2.52952
2.52951
2.5295
2.52949
2.52948
2.52947
2.52945
2.52944
2.52943
2.52941
2.5294
2.52938
2.52937
2.52936
2.52935
2.52934
2.52934
2.52934
2.52935
2.52936
2.52939
2.52943
2.5295
2.52962
2.61202
2.61189
2.61182
2.61178
2.61175
2.61173
2.61173
2.61173
2.61173
2.61174
2.61176
2.61177
2.61179
2.6118
2.61182
2.61184
2.61185
2.61187
2.61188
2.6119
2.61191
2.61192
2.61193
2.61194
2.61195
2.61196
2.61196
2.61196
2.61197
2.61197
2.61197
2.61197
2.61196
2.61196
2.61196
2.61195
2.61194
2.61193
2.61192
2.61191
2.6119
2.61188
2.61187
2.61185
2.61184
2.61182
2.6118
2.61179
2.61177
2.61176
2.61174
2.61173
2.61173
2.61173
2.61173
2.61175
2.61178
2.61182
2.61189
2.61202
2.68421
2.68408
2.68401
2.68396
2.68394
2.68392
2.68392
2.68392
2.68393
2.68394
2.68395
2.68397
2.68399
2.68401
2.68403
2.68405
2.68407
2.68408
2.6841
2.68412
2.68413
2.68415
2.68416
2.68417
2.68418
2.68419
2.68419
2.6842
2.6842
2.6842
2.6842
2.6842
2.6842
2.68419
2.68419
2.68418
2.68417
2.68416
2.68415
2.68413
2.68412
2.6841
2.68408
2.68407
2.68405
2.68403
2.68401
2.68399
2.68397
2.68395
2.68394
2.68393
2.68392
2.68392
2.68392
2.68394
2.68396
2.68401
2.68408
2.68421
2.74876
2.74862
2.74855
2.74851
2.74848
2.74847
2.74846
2.74847
2.74848
2.74849
2.74851
2.74853
2.74855
2.74858
2.7486
2.74862
2.74864
2.74866
2.74868
2.7487
2.74872
2.74873
2.74875
2.74876
2.74877
2.74878
2.74879
2.74879
2.7488
2.7488
2.7488
2.7488
2.74879
2.74879
2.74878
2.74877
2.74876
2.74875
2.74873
2.74872
2.7487
2.74868
2.74866
2.74864
2.74862
2.7486
2.74858
2.74855
2.74853
2.74851
2.74849
2.74848
2.74847
2.74846
2.74847
2.74848
2.74851
2.74855
2.74862
2.74876
2.80742
2.80729
2.80721
2.80717
2.80714
2.80713
2.80713
2.80714
2.80715
2.80717
2.80719
2.80721
2.80724
2.80726
2.80729
2.80731
2.80734
2.80736
2.80738
2.80741
2.80742
2.80744
2.80746
2.80747
2.80748
2.80749
2.8075
2.80751
2.80751
2.80751
2.80751
2.80751
2.80751
2.8075
2.80749
2.80748
2.80747
2.80746
2.80744
2.80742
2.80741
2.80738
2.80736
2.80734
2.80731
2.80729
2.80726
2.80724
2.80721
2.80719
2.80717
2.80715
2.80714
2.80713
2.80713
2.80714
2.80717
2.80721
2.80729
2.80742
2.86144
2.8613
2.86122
2.86118
2.86116
2.86115
2.86115
2.86116
2.86117
2.86119
2.86122
2.86125
2.86127
2.8613
2.86133
2.86136
2.86139
2.86142
2.86144
2.86146
2.86149
2.86151
2.86152
2.86154
2.86155
2.86156
2.86157
2.86158
2.86158
2.86159
2.86159
2.86158
2.86158
2.86157
2.86156
2.86155
2.86154
2.86152
2.86151
2.86149
2.86146
2.86144
2.86142
2.86139
2.86136
2.86133
2.8613
2.86127
2.86125
2.86122
2.86119
2.86117
2.86116
2.86115
2.86115
2.86116
2.86118
2.86122
2.8613
2.86144
2.9117
2.91156
2.91149
2.91144
2.91142
2.91141
2.91142
2.91143
2.91145
2.91147
2.9115
2.91153
2.91156
2.91159
2.91163
2.91166
2.91169
2.91172
2.91175
2.91177
2.9118
2.91182
2.91184
2.91186
2.91187
2.91188
2.91189
2.9119
2.91191
2.91191
2.91191
2.91191
2.9119
2.91189
2.91188
2.91187
2.91186
2.91184
2.91182
2.9118
2.91177
2.91175
2.91172
2.91169
2.91166
2.91163
2.91159
2.91156
2.91153
2.9115
2.91147
2.91145
2.91143
2.91142
2.91141
2.91142
2.91144
2.91149
2.91156
2.9117
2.95889
2.95875
2.95867
2.95863
2.95861
2.9586
2.95861
2.95862
2.95864
2.95867
2.9587
2.95874
2.95877
2.95881
2.95884
2.95888
2.95891
2.95895
2.95898
2.95901
2.95903
2.95906
2.95908
2.9591
2.95912
2.95913
2.95914
2.95915
2.95915
2.95916
2.95916
2.95915
2.95915
2.95914
2.95913
2.95912
2.9591
2.95908
2.95906
2.95903
2.95901
2.95898
2.95895
2.95891
2.95888
2.95884
2.95881
2.95877
2.95874
2.9587
2.95867
2.95864
2.95862
2.95861
2.9586
2.95861
2.95863
2.95867
2.95875
2.95889
3.00351
3.00337
3.00329
3.00325
3.00323
3.00323
3.00324
3.00326
3.00328
3.00331
3.00335
3.00339
3.00343
3.00347
3.00351
3.00354
3.00358
3.00362
3.00365
3.00368
3.00371
3.00374
3.00376
3.00379
3.0038
3.00382
3.00383
3.00384
3.00385
3.00385
3.00385
3.00385
3.00384
3.00383
3.00382
3.0038
3.00379
3.00376
3.00374
3.00371
3.00368
3.00365
3.00362
3.00358
3.00354
3.00351
3.00347
3.00343
3.00339
3.00335
3.00331
3.00328
3.00326
3.00324
3.00323
3.00323
3.00325
3.00329
3.00337
3.00351
3.04599
3.04585
3.04578
3.04574
3.04572
3.04572
3.04573
3.04575
3.04578
3.04581
3.04585
3.04589
3.04594
3.04598
3.04603
3.04607
3.04611
3.04615
3.04619
3.04622
3.04625
3.04628
3.04631
3.04633
3.04635
3.04637
3.04638
3.04639
3.0464
3.0464
3.0464
3.0464
3.04639
3.04638
3.04637
3.04635
3.04633
3.04631
3.04628
3.04625
3.04622
3.04619
3.04615
3.04611
3.04607
3.04603
3.04598
3.04594
3.04589
3.04585
3.04581
3.04578
3.04575
3.04573
3.04572
3.04572
3.04574
3.04578
3.04585
3.04599
3.08667
3.08653
3.08645
3.08641
3.0864
3.0864
3.08641
3.08644
3.08647
3.08651
3.08655
3.0866
3.08665
3.08669
3.08674
3.08679
3.08683
3.08688
3.08692
3.08696
3.08699
3.08702
3.08705
3.08707
3.0871
3.08711
3.08713
3.08714
3.08715
3.08715
3.08715
3.08715
3.08714
3.08713
3.08711
3.0871
3.08707
3.08705
3.08702
3.08699
3.08696
3.08692
3.08688
3.08683
3.08679
3.08674
3.08669
3.08665
3.0866
3.08655
3.08651
3.08647
3.08644
3.08641
3.0864
3.0864
3.08641
3.08645
3.08653
3.08667
3.12582
3.12568
3.12561
3.12557
3.12555
3.12556
3.12558
3.1256
3.12564
3.12568
3.12573
3.12578
3.12583
3.12588
3.12593
3.12598
3.12603
3.12608
3.12612
3.12617
3.1262
3.12624
3.12627
3.1263
3.12632
3.12634
3.12635
3.12636
3.12637
3.12638
3.12638
3.12637
3.12636
3.12635
3.12634
3.12632
3.1263
3.12627
3.12624
3.1262
3.12617
3.12612
3.12608
3.12603
3.12598
3.12593
3.12588
3.12583
3.12578
3.12573
3.12568
3.12564
3.1256
3.12558
3.12556
3.12555
3.12557
3.12561
3.12568
3.12582
3.16368
3.16355
3.16347
3.16343
3.16342
3.16343
3.16345
3.16348
3.16352
3.16357
3.16362
3.16367
3.16373
3.16378
3.16384
3.16389
3.16395
3.164
3.16405
3.16409
3.16413
3.16417
3.1642
3.16423
3.16425
3.16428
3.16429
3.1643
3.16431
3.16432
3.16432
3.16431
3.1643
3.16429
3.16428
3.16425
3.16423
3.1642
3.16417
3.16413
3.16409
3.16405
3.164
3.16395
3.16389
3.16384
3.16378
3.16373
3.16367
3.16362
3.16357
3.16352
3.16348
3.16345
3.16343
3.16342
3.16343
3.16347
3.16355
3.16368
3.20046
3.20032
3.20025
3.20021
3.2002
3.20021
3.20024
3.20027
3.20031
3.20037
3.20042
3.20048
3.20054
3.2006
3.20066
3.20072
3.20078
3.20083
3.20088
3.20093
3.20097
3.20101
3.20105
3.20108
3.20111
3.20113
3.20115
3.20116
3.20117
3.20118
3.20118
3.20117
3.20116
3.20115
3.20113
3.20111
3.20108
3.20105
3.20101
3.20097
3.20093
3.20088
3.20083
3.20078
3.20072
3.20066
3.2006
3.20054
3.20048
3.20042
3.20037
3.20031
3.20027
3.20024
3.20021
3.2002
3.20021
3.20025
3.20032
3.20046
3.23632
3.23619
3.23612
3.23608
3.23608
3.23609
3.23611
3.23615
3.2362
3.23626
3.23632
3.23638
3.23644
3.23651
3.23657
3.23664
3.2367
3.23676
3.23681
3.23686
3.23691
3.23695
3.23699
3.23703
3.23705
3.23708
3.2371
3.23711
3.23712
3.23713
3.23713
3.23712
3.23711
3.2371
3.23708
3.23705
3.23703
3.23699
3.23695
3.23691
3.23686
3.23681
3.23676
3.2367
3.23664
3.23657
3.23651
3.23644
3.23638
3.23632
3.23626
3.2362
3.23615
3.23611
3.23609
3.23608
3.23608
3.23612
3.23619
3.23632
3.27143
3.2713
3.27123
3.2712
3.27119
3.27121
3.27124
3.27128
3.27133
3.27139
3.27146
3.27152
3.27159
3.27166
3.27173
3.2718
3.27187
3.27193
3.27199
3.27204
3.27209
3.27214
3.27218
3.27222
3.27225
3.27227
3.27229
3.27231
3.27232
3.27232
3.27232
3.27232
3.27231
3.27229
3.27227
3.27225
3.27222
3.27218
3.27214
3.27209
3.27204
3.27199
3.27193
3.27187
3.2718
3.27173
3.27166
3.27159
3.27152
3.27146
3.27139
3.27133
3.27128
3.27124
3.27121
3.27119
3.2712
3.27123
3.2713
3.27143
3.30592
3.3058
3.30572
3.30569
3.30569
3.30571
3.30574
3.30579
3.30585
3.30591
3.30598
3.30605
3.30613
3.3062
3.30628
3.30635
3.30642
3.30649
3.30655
3.30661
3.30666
3.30671
3.30675
3.30679
3.30683
3.30685
3.30687
3.30689
3.3069
3.30691
3.30691
3.3069
3.30689
3.30687
3.30685
3.30683
3.30679
3.30675
3.30671
3.30666
3.30661
3.30655
3.30649
3.30642
3.30635
3.30628
3.3062
3.30613
3.30605
3.30598
3.30591
3.30585
3.30579
3.30574
3.30571
3.30569
3.30569
3.30572
3.3058
3.30592
3.33992
3.33979
3.33972
3.3397
3.3397
3.33972
3.33975
3.3398
3.33987
3.33993
3.34001
3.34009
3.34017
3.34025
3.34033
3.3404
3.34048
3.34055
3.34062
3.34068
3.34074
3.34079
3.34084
3.34088
3.34091
3.34094
3.34096
3.34098
3.34099
3.341
3.341
3.34099
3.34098
3.34096
3.34094
3.34091
3.34088
3.34084
3.34079
3.34074
3.34068
3.34062
3.34055
3.34048
3.3404
3.34033
3.34025
3.34017
3.34009
3.34001
3.33993
3.33987
3.3398
3.33975
3.33972
3.3397
3.3397
3.33972
3.33979
3.33992
3.37353
3.37341
3.37334
3.37332
3.37332
3.37334
3.37338
3.37344
3.3735
3.37358
3.37366
3.37374
3.37383
3.37391
3.374
3.37408
3.37416
3.37423
3.37431
3.37437
3.37443
3.37449
3.37454
3.37458
3.37462
3.37465
3.37467
3.37469
3.3747
3.37471
3.37471
3.3747
3.37469
3.37467
3.37465
3.37462
3.37458
3.37454
3.37449
3.37443
3.37437
3.37431
3.37423
3.37416
3.37408
3.374
3.37391
3.37383
3.37374
3.37366
3.37358
3.3735
3.37344
3.37338
3.37334
3.37332
3.37332
3.37334
3.37341
3.37353
3.40686
3.40675
3.40668
3.40665
3.40666
3.40669
3.40673
3.40679
3.40686
3.40694
3.40703
3.40711
3.4072
3.4073
3.40739
3.40747
3.40756
3.40764
3.40771
3.40779
3.40785
3.40791
3.40796
3.40801
3.40805
3.40808
3.40811
3.40812
3.40814
3.40814
3.40814
3.40814
3.40812
3.40811
3.40808
3.40805
3.40801
3.40796
3.40791
3.40785
3.40779
3.40771
3.40764
3.40756
3.40747
3.40739
3.4073
3.4072
3.40711
3.40703
3.40694
3.40686
3.40679
3.40673
3.40669
3.40666
3.40665
3.40668
3.40675
3.40686
3.44001
3.43989
3.43983
3.43981
3.43981
3.43984
3.43989
3.43996
3.44003
3.44012
3.44021
3.4403
3.4404
3.4405
3.44059
3.44069
3.44077
3.44086
3.44094
3.44101
3.44108
3.44115
3.4412
3.44125
3.44129
3.44133
3.44135
3.44137
3.44139
3.4414
3.4414
3.44139
3.44137
3.44135
3.44133
3.44129
3.44125
3.4412
3.44115
3.44108
3.44101
3.44094
3.44086
3.44077
3.44069
3.44059
3.4405
3.4404
3.4403
3.44021
3.44012
3.44003
3.43996
3.43989
3.43984
3.43981
3.43981
3.43983
3.43989
3.44001
3.47305
3.47294
3.47288
3.47286
3.47287
3.47291
3.47296
3.47303
3.47311
3.4732
3.47329
3.47339
3.4735
3.4736
3.4737
3.4738
3.47389
3.47398
3.47407
3.47415
3.47422
3.47429
3.47435
3.4744
3.47444
3.47448
3.47451
3.47453
3.47454
3.47455
3.47455
3.47454
3.47453
3.47451
3.47448
3.47444
3.4744
3.47435
3.47429
3.47422
3.47415
3.47407
3.47398
3.47389
3.4738
3.4737
3.4736
3.4735
3.47339
3.47329
3.4732
3.47311
3.47303
3.47296
3.47291
3.47287
3.47286
3.47288
3.47294
3.47305
3.50608
3.50598
3.50592
3.5059
3.50591
3.50595
3.50601
3.50608
3.50617
3.50626
3.50636
3.50647
3.50658
3.50669
3.5068
3.5069
3.507
3.5071
3.50719
3.50727
3.50735
3.50741
3.50748
3.50753
3.50758
3.50762
3.50765
3.50767
3.50769
3.50769
3.50769
3.50769
3.50767
3.50765
3.50762
3.50758
3.50753
3.50748
3.50741
3.50735
3.50727
3.50719
3.5071
3.507
3.5069
3.5068
3.50669
3.50658
3.50647
3.50636
3.50626
3.50617
3.50608
3.50601
3.50595
3.50591
3.5059
3.50592
3.50598
3.50608
3.53917
3.53907
3.53901
3.539
3.53901
3.53906
3.53912
3.5392
3.53929
3.53939
3.5395
3.53961
3.53972
3.53984
3.53995
3.54006
3.54017
3.54027
3.54036
3.54045
3.54053
3.54061
3.54067
3.54073
3.54078
3.54082
3.54085
3.54088
3.54089
3.5409
3.5409
3.54089
3.54088
3.54085
3.54082
3.54078
3.54073
3.54067
3.54061
3.54053
3.54045
3.54036
3.54027
3.54017
3.54006
3.53995
3.53984
3.53972
3.53961
3.5395
3.53939
3.53929
3.5392
3.53912
3.53906
3.53901
3.539
3.53901
3.53907
3.53917
3.57239
3.5723
3.57224
3.57223
3.57225
3.5723
3.57236
3.57245
3.57254
3.57265
3.57277
3.57288
3.57301
3.57313
3.57325
3.57336
3.57347
3.57358
3.57368
3.57377
3.57386
3.57394
3.574
3.57406
3.57412
3.57416
3.57419
3.57422
3.57424
3.57425
3.57425
3.57424
3.57422
3.57419
3.57416
3.57412
3.57406
3.574
3.57394
3.57386
3.57377
3.57368
3.57358
3.57347
3.57336
3.57325
3.57313
3.57301
3.57288
3.57277
3.57265
3.57254
3.57245
3.57236
3.5723
3.57225
3.57223
3.57224
3.5723
3.57239
3.60582
3.60573
3.60567
3.60566
3.60569
3.60574
3.60581
3.6059
3.60601
3.60612
3.60624
3.60637
3.60649
3.60662
3.60675
3.60687
3.60699
3.6071
3.6072
3.6073
3.60739
3.60747
3.60754
3.60761
3.60766
3.60771
3.60774
3.60777
3.60779
3.6078
3.6078
3.60779
3.60777
3.60774
3.60771
3.60766
3.60761
3.60754
3.60747
3.60739
3.6073
3.6072
3.6071
3.60699
3.60687
3.60675
3.60662
3.60649
3.60637
3.60624
3.60612
3.60601
3.6059
3.60581
3.60574
3.60569
3.60566
3.60567
3.60573
3.60582
3.63952
3.63943
3.63938
3.63937
3.6394
3.63946
3.63953
3.63963
3.63974
3.63986
3.63999
3.64012
3.64025
3.64039
3.64052
3.64065
3.64077
3.64089
3.641
3.6411
3.6412
3.64128
3.64136
3.64143
3.64148
3.64153
3.64157
3.6416
3.64162
3.64163
3.64163
3.64162
3.6416
3.64157
3.64153
3.64148
3.64143
3.64136
3.64128
3.6412
3.6411
3.641
3.64089
3.64077
3.64065
3.64052
3.64039
3.64025
3.64012
3.63999
3.63986
3.63974
3.63963
3.63953
3.63946
3.6394
3.63937
3.63938
3.63943
3.63952
3.67355
3.67347
3.67342
3.67342
3.67345
3.67351
3.67359
3.67369
3.67381
3.67393
3.67407
3.67421
3.67435
3.67449
3.67463
3.67477
3.6749
3.67502
3.67514
3.67524
3.67534
3.67543
3.67551
3.67558
3.67564
3.67569
3.67573
3.67576
3.67578
3.67579
3.67579
3.67578
3.67576
3.67573
3.67569
3.67564
3.67558
3.67551
3.67543
3.67534
3.67524
3.67514
3.67502
3.6749
3.67477
3.67463
3.67449
3.67435
3.67421
3.67407
3.67393
3.67381
3.67369
3.67359
3.67351
3.67345
3.67342
3.67342
3.67347
3.67355
3.70798
3.7079
3.70786
3.70786
3.70789
3.70796
3.70805
3.70815
3.70828
3.70841
3.70855
3.7087
3.70885
3.709
3.70914
3.70928
3.70942
3.70955
3.70967
3.70979
3.70989
3.70998
3.71007
3.71014
3.71021
3.71026
3.7103
3.71033
3.71035
3.71036
3.71036
3.71035
3.71033
3.7103
3.71026
3.71021
3.71014
3.71007
3.70998
3.70989
3.70979
3.70967
3.70955
3.70942
3.70928
3.70914
3.709
3.70885
3.7087
3.70855
3.70841
3.70828
3.70815
3.70805
3.70796
3.70789
3.70786
3.70786
3.7079
3.70798
3.74287
3.74279
3.74275
3.74276
3.7428
3.74287
3.74296
3.74307
3.7432
3.74334
3.74349
3.74365
3.7438
3.74396
3.74411
3.74426
3.74441
3.74454
3.74467
3.74479
3.7449
3.745
3.74509
3.74516
3.74523
3.74528
3.74533
3.74536
3.74538
3.7454
3.7454
3.74538
3.74536
3.74533
3.74528
3.74523
3.74516
3.74509
3.745
3.7449
3.74479
3.74467
3.74454
3.74441
3.74426
3.74411
3.74396
3.7438
3.74365
3.74349
3.74334
3.7432
3.74307
3.74296
3.74287
3.7428
3.74276
3.74275
3.74279
3.74287
3.77828
3.7782
3.77817
3.77817
3.77822
3.77829
3.77839
3.77851
3.77865
3.7788
3.77895
3.77912
3.77928
3.77944
3.77961
3.77976
3.77991
3.78006
3.78019
3.78031
3.78043
3.78053
3.78062
3.78071
3.78077
3.78083
3.78088
3.78091
3.78094
3.78095
3.78095
3.78094
3.78091
3.78088
3.78083
3.78077
3.78071
3.78062
3.78053
3.78043
3.78031
3.78019
3.78006
3.77991
3.77976
3.77961
3.77944
3.77928
3.77912
3.77895
3.7788
3.77865
3.77851
3.77839
3.77829
3.77822
3.77817
3.77817
3.7782
3.77828
3.81426
3.81419
3.81415
3.81416
3.81421
3.81429
3.8144
3.81453
3.81467
3.81483
3.81499
3.81516
3.81533
3.81551
3.81567
3.81584
3.816
3.81615
3.81629
3.81642
3.81654
3.81665
3.81674
3.81683
3.8169
3.81696
3.81701
3.81704
3.81707
3.81708
3.81708
3.81707
3.81704
3.81701
3.81696
3.8169
3.81683
3.81674
3.81665
3.81654
3.81642
3.81629
3.81615
3.816
3.81584
3.81567
3.81551
3.81533
3.81516
3.81499
3.81483
3.81467
3.81453
3.8144
3.81429
3.81421
3.81416
3.81415
3.81419
3.81426
3.85086
3.8508
3.85077
3.85079
3.85084
3.85093
3.85104
3.85117
3.85132
3.85149
3.85166
3.85184
3.85202
3.8522
3.85238
3.85255
3.85271
3.85287
3.85302
3.85315
3.85328
3.85339
3.85349
3.85358
3.85366
3.85372
3.85377
3.85381
3.85384
3.85385
3.85385
3.85384
3.85381
3.85377
3.85372
3.85366
3.85358
3.85349
3.85339
3.85328
3.85315
3.85302
3.85287
3.85271
3.85255
3.85238
3.8522
3.85202
3.85184
3.85166
3.85149
3.85132
3.85117
3.85104
3.85093
3.85084
3.85079
3.85077
3.8508
3.85086
3.88816
3.8881
3.88807
3.88809
3.88815
3.88824
3.88836
3.8885
3.88866
3.88883
3.88902
3.8892
3.88939
3.88958
3.88977
3.88995
3.89012
3.89028
3.89044
3.89058
3.89071
3.89083
3.89094
3.89103
3.89111
3.89117
3.89123
3.89127
3.89129
3.89131
3.89131
3.89129
3.89127
3.89123
3.89117
3.89111
3.89103
3.89094
3.89083
3.89071
3.89058
3.89044
3.89028
3.89012
3.88995
3.88977
3.88958
3.88939
3.8892
3.88902
3.88883
3.88866
3.8885
3.88836
3.88824
3.88815
3.88809
3.88807
3.8881
3.88816
3.92619
3.92614
3.92612
3.92614
3.9262
3.9263
3.92643
3.92658
3.92674
3.92692
3.92711
3.92731
3.92751
3.92771
3.9279
3.92809
3.92827
3.92844
3.9286
3.92875
3.92889
3.92901
3.92912
3.92922
3.9293
3.92937
3.92943
3.92947
3.9295
3.92951
3.92951
3.9295
3.92947
3.92943
3.92937
3.9293
3.92922
3.92912
3.92901
3.92889
3.92875
3.9286
3.92844
3.92827
3.92809
3.9279
3.92771
3.92751
3.92731
3.92711
3.92692
3.92674
3.92658
3.92643
3.9263
3.9262
3.92614
3.92612
3.92614
3.92619
3.96502
3.96497
3.96495
3.96498
3.96505
3.96516
3.96529
3.96544
3.96562
3.96581
3.96601
3.96621
3.96642
3.96663
3.96683
3.96703
3.96722
3.9674
3.96757
3.96772
3.96786
3.96799
3.96811
3.96821
3.9683
3.96837
3.96843
3.96847
3.9685
3.96851
3.96851
3.9685
3.96847
3.96843
3.96837
3.9683
3.96821
3.96811
3.96799
3.96786
3.96772
3.96757
3.9674
3.96722
3.96703
3.96683
3.96663
3.96642
3.96621
3.96601
3.96581
3.96562
3.96544
3.96529
3.96516
3.96505
3.96498
3.96495
3.96497
3.96502
4.00469
4.00465
4.00464
4.00467
4.00474
4.00486
4.005
4.00516
4.00534
4.00554
4.00575
4.00597
4.00618
4.0064
4.00661
4.00682
4.00702
4.0072
4.00738
4.00754
4.00769
4.00783
4.00795
4.00805
4.00814
4.00822
4.00828
4.00832
4.00835
4.00837
4.00837
4.00835
4.00832
4.00828
4.00822
4.00814
4.00805
4.00795
4.00783
4.00769
4.00754
4.00738
4.0072
4.00702
4.00682
4.00661
4.0064
4.00618
4.00597
4.00575
4.00554
4.00534
4.00516
4.005
4.00486
4.00474
4.00467
4.00464
4.00465
4.00469
4.04527
4.04522
4.04522
4.04526
4.04534
4.04546
4.0456
4.04578
4.04597
4.04618
4.0464
4.04662
4.04685
4.04708
4.0473
4.04751
4.04772
4.04791
4.0481
4.04827
4.04842
4.04856
4.04869
4.0488
4.04889
4.04897
4.04904
4.04908
4.04911
4.04913
4.04913
4.04911
4.04908
4.04904
4.04897
4.04889
4.0488
4.04869
4.04856
4.04842
4.04827
4.0481
4.04791
4.04772
4.04751
4.0473
4.04708
4.04685
4.04662
4.0464
4.04618
4.04597
4.04578
4.0456
4.04546
4.04534
4.04526
4.04522
4.04522
4.04527
4.08679
4.08675
4.08675
4.0868
4.08688
4.08701
4.08716
4.08735
4.08755
4.08777
4.088
4.08823
4.08847
4.0887
4.08894
4.08916
4.08938
4.08958
4.08977
4.08995
4.09011
4.09026
4.09039
4.0905
4.0906
4.09069
4.09075
4.0908
4.09083
4.09085
4.09085
4.09083
4.0908
4.09075
4.09069
4.0906
4.0905
4.09039
4.09026
4.09011
4.08995
4.08977
4.08958
4.08938
4.08916
4.08894
4.0887
4.08847
4.08823
4.088
4.08777
4.08755
4.08735
4.08716
4.08701
4.08688
4.0868
4.08675
4.08675
4.08679
4.12932
4.12928
4.12929
4.12934
4.12943
4.12957
4.12973
4.12992
4.13013
4.13036
4.1306
4.13085
4.13109
4.13134
4.13158
4.13182
4.13204
4.13226
4.13245
4.13264
4.13281
4.13296
4.1331
4.13322
4.13332
4.13341
4.13348
4.13353
4.13356
4.13358
4.13358
4.13356
4.13353
4.13348
4.13341
4.13332
4.13322
4.1331
4.13296
4.13281
4.13264
4.13245
4.13226
4.13204
4.13182
4.13158
4.13134
4.13109
4.13085
4.1306
4.13036
4.13013
4.12992
4.12973
4.12957
4.12943
4.12934
4.12929
4.12928
4.12932
4.1729
4.17287
4.17288
4.17294
4.17304
4.17318
4.17335
4.17355
4.17377
4.17401
4.17426
4.17452
4.17478
4.17504
4.17529
4.17553
4.17577
4.17599
4.1762
4.17639
4.17657
4.17673
4.17687
4.17699
4.1771
4.17719
4.17726
4.17732
4.17735
4.17737
4.17737
4.17735
4.17732
4.17726
4.17719
4.1771
4.17699
4.17687
4.17673
4.17657
4.17639
4.1762
4.17599
4.17577
4.17553
4.17529
4.17504
4.17478
4.17452
4.17426
4.17401
4.17377
4.17355
4.17335
4.17318
4.17304
4.17294
4.17288
4.17287
4.1729
4.21759
4.21756
4.21758
4.21764
4.21775
4.2179
4.21808
4.21829
4.21852
4.21877
4.21904
4.2193
4.21958
4.21984
4.22011
4.22036
4.22061
4.22084
4.22106
4.22126
4.22144
4.22161
4.22175
4.22188
4.222
4.22209
4.22216
4.22222
4.22226
4.22227
4.22227
4.22226
4.22222
4.22216
4.22209
4.222
4.22188
4.22175
4.22161
4.22144
4.22126
4.22106
4.22084
4.22061
4.22036
4.22011
4.21984
4.21958
4.2193
4.21904
4.21877
4.21852
4.21829
4.21808
4.2179
4.21775
4.21764
4.21758
4.21756
4.21759
4.26343
4.26342
4.26344
4.26351
4.26362
4.26378
4.26397
4.26419
4.26444
4.2647
4.26497
4.26525
4.26553
4.26581
4.26609
4.26636
4.26661
4.26685
4.26708
4.26729
4.26748
4.26765
4.2678
4.26794
4.26806
4.26815
4.26823
4.26829
4.26833
4.26835
4.26835
4.26833
4.26829
4.26823
4.26815
4.26806
4.26794
4.2678
4.26765
4.26748
4.26729
4.26708
4.26685
4.26661
4.26636
4.26609
4.26581
4.26553
4.26525
4.26497
4.2647
4.26444
4.26419
4.26397
4.26378
4.26362
4.26351
4.26344
4.26342
4.26343
4.31049
4.31048
4.31051
4.31058
4.31071
4.31087
4.31107
4.31131
4.31156
4.31183
4.31212
4.31241
4.31271
4.313
4.31329
4.31356
4.31383
4.31408
4.31432
4.31453
4.31473
4.31491
4.31507
4.31521
4.31533
4.31543
4.31552
4.31558
4.31562
4.31564
4.31564
4.31562
4.31558
4.31552
4.31543
4.31533
4.31521
4.31507
4.31491
4.31473
4.31453
4.31432
4.31408
4.31383
4.31356
4.31329
4.313
4.31271
4.31241
4.31212
4.31183
4.31156
4.31131
4.31107
4.31087
4.31071
4.31058
4.31051
4.31048
4.31049
4.35881
4.35881
4.35884
4.35892
4.35906
4.35923
4.35944
4.35968
4.35995
4.36024
4.36054
4.36084
4.36115
4.36145
4.36175
4.36204
4.36232
4.36258
4.36282
4.36305
4.36326
4.36345
4.36361
4.36376
4.36388
4.36399
4.36407
4.36413
4.36418
4.3642
4.3642
4.36418
4.36413
4.36407
4.36399
4.36388
4.36376
4.36361
4.36345
4.36326
4.36305
4.36282
4.36258
4.36232
4.36204
4.36175
4.36145
4.36115
4.36084
4.36054
4.36024
4.35995
4.35968
4.35944
4.35923
4.35906
4.35892
4.35884
4.35881
4.35881
4.40845
4.40845
4.40849
4.40858
4.40872
4.4089
4.40913
4.40938
4.40966
4.40996
4.41027
4.41059
4.41091
4.41123
4.41154
4.41184
4.41213
4.4124
4.41265
4.41289
4.41311
4.4133
4.41347
4.41363
4.41376
4.41387
4.41395
4.41402
4.41406
4.41408
4.41408
4.41406
4.41402
4.41395
4.41387
4.41376
4.41363
4.41347
4.4133
4.41311
4.41289
4.41265
4.4124
4.41213
4.41184
4.41154
4.41123
4.41091
4.41059
4.41027
4.40996
4.40966
4.40938
4.40913
4.4089
4.40872
4.40858
4.40849
4.40845
4.40845
4.45945
4.45946
4.45951
4.4596
4.45975
4.45995
4.46018
4.46045
4.46074
4.46105
4.46138
4.46171
4.46204
4.46237
4.4627
4.46301
4.46331
4.4636
4.46386
4.46411
4.46433
4.46453
4.46471
4.46487
4.46501
4.46512
4.46521
4.46528
4.46532
4.46535
4.46535
4.46532
4.46528
4.46521
4.46512
4.46501
4.46487
4.46471
4.46453
4.46433
4.46411
4.46386
4.4636
4.46331
4.46301
4.4627
4.46237
4.46204
4.46171
4.46138
4.46105
4.46074
4.46045
4.46018
4.45995
4.45975
4.4596
4.45951
4.45946
4.45945
4.51188
4.51189
4.51194
4.51205
4.51221
4.51241
4.51266
4.51294
4.51324
4.51357
4.51391
4.51426
4.5146
4.51495
4.51529
4.51561
4.51593
4.51622
4.5165
4.51675
4.51699
4.5172
4.51738
4.51755
4.51769
4.51781
4.5179
4.51797
4.51802
4.51804
4.51804
4.51802
4.51797
4.5179
4.51781
4.51769
4.51755
4.51738
4.5172
4.51699
4.51675
4.5165
4.51622
4.51593
4.51561
4.51529
4.51495
4.5146
4.51426
4.51391
4.51357
4.51324
4.51294
4.51266
4.51241
4.51221
4.51205
4.51194
4.51189
4.51188
4.56578
4.5658
4.56586
4.56597
4.56614
4.56636
4.56661
4.56691
4.56723
4.56757
4.56792
4.56828
4.56865
4.56901
4.56936
4.5697
4.57002
4.57033
4.57062
4.57088
4.57112
4.57134
4.57154
4.57171
4.57186
4.57198
4.57208
4.57215
4.5722
4.57222
4.57222
4.5722
4.57215
4.57208
4.57198
4.57186
4.57171
4.57154
4.57134
4.57112
4.57088
4.57062
4.57033
4.57002
4.5697
4.56936
4.56901
4.56865
4.56828
4.56792
4.56757
4.56723
4.56691
4.56661
4.56636
4.56614
4.56597
4.56586
4.5658
4.56578
4.62122
4.62124
4.62131
4.62143
4.62161
4.62183
4.6221
4.62241
4.62274
4.6231
4.62347
4.62385
4.62423
4.6246
4.62497
4.62532
4.62566
4.62598
4.62628
4.62655
4.6268
4.62703
4.62723
4.62741
4.62756
4.62769
4.62779
4.62787
4.62792
4.62794
4.62794
4.62792
4.62787
4.62779
4.62769
4.62756
4.62741
4.62723
4.62703
4.6268
4.62655
4.62628
4.62598
4.62566
4.62532
4.62497
4.6246
4.62423
4.62385
4.62347
4.6231
4.62274
4.62241
4.6221
4.62183
4.62161
4.62143
4.62131
4.62124
4.62122
4.67824
4.67826
4.67834
4.67847
4.67866
4.67889
4.67918
4.6795
4.67985
4.68022
4.68061
4.681
4.68139
4.68179
4.68217
4.68254
4.68289
4.68322
4.68353
4.68382
4.68408
4.68431
4.68452
4.68471
4.68487
4.685
4.6851
4.68518
4.68523
4.68526
4.68526
4.68523
4.68518
4.6851
4.685
4.68487
4.68471
4.68452
4.68431
4.68408
4.68382
4.68353
4.68322
4.68289
4.68254
4.68217
4.68179
4.68139
4.681
4.68061
4.68022
4.67985
4.6795
4.67918
4.67889
4.67866
4.67847
4.67834
4.67826
4.67824
4.7369
4.73693
4.73701
4.73715
4.73735
4.7376
4.7379
4.73823
4.7386
4.73899
4.73939
4.7398
4.74021
4.74062
4.74102
4.7414
4.74177
4.74211
4.74243
4.74273
4.743
4.74325
4.74347
4.74366
4.74382
4.74396
4.74407
4.74415
4.7442
4.74423
4.74423
4.7442
4.74415
4.74407
4.74396
4.74382
4.74366
4.74347
4.74325
4.743
4.74273
4.74243
4.74211
4.74177
4.7414
4.74102
4.74062
4.74021
4.7398
4.73939
4.73899
4.7386
4.73823
4.7379
4.7376
4.73735
4.73715
4.73701
4.73693
4.7369
4.79725
4.79729
4.79738
4.79753
4.79774
4.79801
4.79832
4.79867
4.79905
4.79946
4.79988
4.80031
4.80074
4.80116
4.80157
4.80197
4.80235
4.80271
4.80305
4.80335
4.80364