/*--------------------------------*- C++ -*----------------------------------*\
| =========                 |                                                 |
| \\      /  F ield         | foam-extend: Open Source CFD                    |
|  \\    /   O peration     | Version:     4.0                                |
|   \\  /    A nd           | Web:         http://www.foam-extend.org         |
|    \\/     M anipulation  |                                                 |
\*---------------------------------------------------------------------------*/
FoamFile
{
    version     2.0;
    format      ascii;
    class       volScalarField;
    location    "860";
    object      psiE;
}
// * * * * * * * * * * * * * * * * * * * * * * * * * * * * * * * * * * * * * //

dimensions      [0 0 0 0 0 0 0];

internalField   nonuniform List<scalar> 
6960
(
0.409078
0.409123
0.409136
0.40914
0.409141
0.409141
0.409141
0.409141
0.40914
0.40914
0.40914
0.40914
0.409139
0.409139
0.409139
0.409139
0.409139
0.409138
0.409138
0.409138
0.409138
0.409138
0.409138
0.409138
0.409138
0.409138
0.409138
0.409138
0.409138
0.409138
0.409138
0.409138
0.409138
0.409138
0.409138
0.409138
0.409138
0.409138
0.409138
0.409138
0.409138
0.409138
0.409138
0.409139
0.409139
0.409139
0.409139
0.409139
0.40914
0.40914
0.40914
0.40914
0.409141
0.409141
0.409141
0.409141
0.40914
0.409136
0.409123
0.409078
1.12445
1.12462
1.12467
1.12469
1.12469
1.12469
1.12469
1.12469
1.12469
1.12469
1.12469
1.12468
1.12468
1.12468
1.12468
1.12468
1.12468
1.12468
1.12468
1.12468
1.12468
1.12468
1.12468
1.12468
1.12468
1.12468
1.12468
1.12468
1.12468
1.12468
1.12468
1.12468
1.12468
1.12468
1.12468
1.12468
1.12468
1.12468
1.12468
1.12468
1.12468
1.12468
1.12468
1.12468
1.12468
1.12468
1.12468
1.12468
1.12468
1.12469
1.12469
1.12469
1.12469
1.12469
1.12469
1.12469
1.12469
1.12467
1.12462
1.12445
1.82051
1.82081
1.8209
1.82092
1.82093
1.82093
1.82093
1.82093
1.82092
1.82092
1.82092
1.82092
1.82092
1.82091
1.82091
1.82091
1.82091
1.82091
1.82091
1.8209
1.8209
1.8209
1.8209
1.8209
1.8209
1.8209
1.8209
1.8209
1.8209
1.8209
1.8209
1.8209
1.8209
1.8209
1.8209
1.8209
1.8209
1.8209
1.8209
1.8209
1.8209
1.82091
1.82091
1.82091
1.82091
1.82091
1.82091
1.82092
1.82092
1.82092
1.82092
1.82092
1.82093
1.82093
1.82093
1.82093
1.82092
1.8209
1.82081
1.82051
2.50662
2.50705
2.50718
2.50722
2.50723
2.50722
2.50722
2.50722
2.50721
2.50721
2.50721
2.5072
2.5072
2.5072
2.5072
2.50719
2.50719
2.50719
2.50719
2.50719
2.50718
2.50718
2.50718
2.50718
2.50718
2.50718
2.50718
2.50718
2.50718
2.50718
2.50718
2.50718
2.50718
2.50718
2.50718
2.50718
2.50718
2.50718
2.50718
2.50718
2.50719
2.50719
2.50719
2.50719
2.50719
2.5072
2.5072
2.5072
2.5072
2.50721
2.50721
2.50721
2.50722
2.50722
2.50722
2.50723
2.50722
2.50718
2.50705
2.50662
3.1819
3.18244
3.18261
3.18265
3.18266
3.18266
3.18265
3.18265
3.18264
3.18264
3.18263
3.18263
3.18263
3.18262
3.18262
3.18261
3.18261
3.18261
3.18261
3.1826
3.1826
3.1826
3.1826
3.1826
3.18259
3.18259
3.18259
3.18259
3.18259
3.18259
3.18259
3.18259
3.18259
3.18259
3.18259
3.18259
3.1826
3.1826
3.1826
3.1826
3.1826
3.18261
3.18261
3.18261
3.18261
3.18262
3.18262
3.18263
3.18263
3.18263
3.18264
3.18264
3.18265
3.18265
3.18266
3.18266
3.18265
3.18261
3.18244
3.1819
3.84318
3.84382
3.84401
3.84406
3.84407
3.84407
3.84407
3.84406
3.84405
3.84404
3.84404
3.84403
3.84403
3.84402
3.84402
3.84401
3.84401
3.844
3.844
3.844
3.84399
3.84399
3.84399
3.84399
3.84399
3.84398
3.84398
3.84398
3.84398
3.84398
3.84398
3.84398
3.84398
3.84398
3.84398
3.84399
3.84399
3.84399
3.84399
3.84399
3.844
3.844
3.844
3.84401
3.84401
3.84402
3.84402
3.84403
3.84403
3.84404
3.84404
3.84405
3.84406
3.84407
3.84407
3.84407
3.84406
3.84401
3.84382
3.84318
4.48636
4.48708
4.4873
4.48735
4.48736
4.48736
4.48735
4.48734
4.48733
4.48733
4.48732
4.48731
4.4873
4.4873
4.48729
4.48728
4.48728
4.48727
4.48727
4.48726
4.48726
4.48726
4.48725
4.48725
4.48725
4.48725
4.48725
4.48725
4.48724
4.48724
4.48724
4.48724
4.48725
4.48725
4.48725
4.48725
4.48725
4.48725
4.48726
4.48726
4.48726
4.48727
4.48727
4.48728
4.48728
4.48729
4.4873
4.4873
4.48731
4.48732
4.48733
4.48733
4.48734
4.48735
4.48736
4.48736
4.48735
4.4873
4.48708
4.48636
5.10652
5.10729
5.10752
5.10758
5.10759
5.10759
5.10758
5.10756
5.10755
5.10754
5.10753
5.10752
5.10751
5.10751
5.1075
5.10749
5.10748
5.10748
5.10747
5.10747
5.10746
5.10746
5.10745
5.10745
5.10745
5.10745
5.10744
5.10744
5.10744
5.10744
5.10744
5.10744
5.10744
5.10744
5.10745
5.10745
5.10745
5.10745
5.10746
5.10746
5.10747
5.10747
5.10748
5.10748
5.10749
5.1075
5.10751
5.10751
5.10752
5.10753
5.10754
5.10755
5.10756
5.10758
5.10759
5.10759
5.10758
5.10752
5.10729
5.10652
5.69775
5.69856
5.6988
5.69886
5.69886
5.69885
5.69884
5.69883
5.69881
5.6988
5.69879
5.69877
5.69876
5.69875
5.69874
5.69874
5.69873
5.69872
5.69871
5.69871
5.6987
5.6987
5.69869
5.69869
5.69868
5.69868
5.69868
5.69868
5.69868
5.69868
5.69868
5.69868
5.69868
5.69868
5.69868
5.69868
5.69869
5.69869
5.6987
5.6987
5.69871
5.69871
5.69872
5.69873
5.69874
5.69874
5.69875
5.69876
5.69877
5.69879
5.6988
5.69881
5.69883
5.69884
5.69885
5.69886
5.69886
5.6988
5.69856
5.69775
6.25308
6.25388
6.25412
6.25417
6.25418
6.25416
6.25415
6.25413
6.25411
6.2541
6.25408
6.25407
6.25405
6.25404
6.25403
6.25402
6.25401
6.254
6.25399
6.25399
6.25398
6.25397
6.25397
6.25396
6.25396
6.25396
6.25395
6.25395
6.25395
6.25395
6.25395
6.25395
6.25395
6.25395
6.25396
6.25396
6.25396
6.25397
6.25397
6.25398
6.25399
6.25399
6.254
6.25401
6.25402
6.25403
6.25404
6.25405
6.25407
6.25408
6.2541
6.25411
6.25413
6.25415
6.25416
6.25418
6.25417
6.25412
6.25388
6.25308
6.76447
6.76522
6.76544
6.76549
6.76549
6.76547
6.76545
6.76543
6.76541
6.76539
6.76537
6.76536
6.76534
6.76533
6.76531
6.7653
6.76529
6.76528
6.76527
6.76526
6.76525
6.76524
6.76524
6.76523
6.76523
6.76522
6.76522
6.76522
6.76522
6.76522
6.76522
6.76522
6.76522
6.76522
6.76522
6.76523
6.76523
6.76524
6.76524
6.76525
6.76526
6.76527
6.76528
6.76529
6.7653
6.76531
6.76533
6.76534
6.76536
6.76537
6.76539
6.76541
6.76543
6.76545
6.76547
6.76549
6.76549
6.76544
6.76522
6.76447
7.22343
7.22409
7.22429
7.22432
7.22432
7.22429
7.22427
7.22424
7.22422
7.22419
7.22417
7.22415
7.22413
7.22412
7.2241
7.22409
7.22407
7.22406
7.22405
7.22404
7.22403
7.22402
7.22401
7.22401
7.224
7.224
7.22399
7.22399
7.22399
7.22399
7.22399
7.22399
7.22399
7.22399
7.224
7.224
7.22401
7.22401
7.22402
7.22403
7.22404
7.22405
7.22406
7.22407
7.22409
7.2241
7.22412
7.22413
7.22415
7.22417
7.22419
7.22422
7.22424
7.22427
7.22429
7.22432
7.22432
7.22429
7.22409
7.22343
7.62262
7.62316
7.62331
7.62334
7.62332
7.62329
7.62326
7.62323
7.6232
7.62317
7.62315
7.62313
7.6231
7.62308
7.62307
7.62305
7.62303
7.62302
7.62301
7.62299
7.62298
7.62297
7.62297
7.62296
7.62295
7.62295
7.62294
7.62294
7.62294
7.62294
7.62294
7.62294
7.62294
7.62294
7.62295
7.62295
7.62296
7.62297
7.62297
7.62298
7.62299
7.62301
7.62302
7.62303
7.62305
7.62307
7.62308
7.6231
7.62313
7.62315
7.62317
7.6232
7.62323
7.62326
7.62329
7.62332
7.62334
7.62331
7.62316
7.62262
7.9583
7.9587
7.9588
7.95881
7.95878
7.95874
7.95871
7.95867
7.95864
7.95861
7.95858
7.95856
7.95853
7.95851
7.95849
7.95847
7.95845
7.95844
7.95842
7.95841
7.9584
7.95839
7.95838
7.95837
7.95836
7.95835
7.95835
7.95835
7.95834
7.95834
7.95834
7.95834
7.95835
7.95835
7.95835
7.95836
7.95837
7.95838
7.95839
7.9584
7.95841
7.95842
7.95844
7.95845
7.95847
7.95849
7.95851
7.95853
7.95856
7.95858
7.95861
7.95864
7.95867
7.95871
7.95874
7.95878
7.95881
7.9588
7.9587
7.9583
8.23246
8.2327
8.23275
8.23274
8.2327
8.23266
8.23262
8.23258
8.23255
8.23252
8.23248
8.23246
8.23243
8.2324
8.23238
8.23236
8.23234
8.23232
8.23231
8.23229
8.23228
8.23227
8.23226
8.23225
8.23224
8.23223
8.23223
8.23222
8.23222
8.23222
8.23222
8.23222
8.23222
8.23223
8.23223
8.23224
8.23225
8.23226
8.23227
8.23228
8.23229
8.23231
8.23232
8.23234
8.23236
8.23238
8.2324
8.23243
8.23246
8.23248
8.23252
8.23255
8.23258
8.23262
8.23266
8.2327
8.23274
8.23275
8.2327
8.23246
8.45278
8.45289
8.4529
8.45287
8.45283
8.45278
8.45274
8.4527
8.45266
8.45262
8.45259
8.45256
8.45253
8.4525
8.45248
8.45245
8.45243
8.45241
8.4524
8.45238
8.45237
8.45235
8.45234
8.45233
8.45232
8.45232
8.45231
8.45231
8.4523
8.4523
8.4523
8.4523
8.45231
8.45231
8.45232
8.45232
8.45233
8.45234
8.45235
8.45237
8.45238
8.4524
8.45241
8.45243
8.45245
8.45248
8.4525
8.45253
8.45256
8.45259
8.45262
8.45266
8.4527
8.45274
8.45278
8.45283
8.45287
8.4529
8.45289
8.45278
8.63031
8.63032
8.63029
8.63025
8.6302
8.63015
8.6301
8.63006
8.63002
8.62998
8.62995
8.62991
8.62988
8.62986
8.62983
8.62981
8.62978
8.62976
8.62975
8.62973
8.62971
8.6297
8.62969
8.62968
8.62967
8.62966
8.62966
8.62965
8.62965
8.62965
8.62965
8.62965
8.62965
8.62966
8.62966
8.62967
8.62968
8.62969
8.6297
8.62971
8.62973
8.62975
8.62976
8.62978
8.62981
8.62983
8.62986
8.62988
8.62991
8.62995
8.62998
8.63002
8.63006
8.6301
8.63015
8.6302
8.63025
8.63029
8.63032
8.63031
8.77627
8.77619
8.77614
8.77609
8.77604
8.77599
8.77594
8.77589
8.77585
8.77581
8.77577
8.77574
8.77571
8.77568
8.77565
8.77563
8.77561
8.77559
8.77557
8.77555
8.77553
8.77552
8.77551
8.7755
8.77549
8.77548
8.77548
8.77547
8.77547
8.77547
8.77547
8.77547
8.77547
8.77548
8.77548
8.77549
8.7755
8.77551
8.77552
8.77553
8.77555
8.77557
8.77559
8.77561
8.77563
8.77565
8.77568
8.77571
8.77574
8.77577
8.77581
8.77585
8.77589
8.77594
8.77599
8.77604
8.77609
8.77614
8.77619
8.77627
8.89991
8.89979
8.89972
8.89966
8.8996
8.89955
8.8995
8.89945
8.89941
8.89937
8.89933
8.8993
8.89927
8.89924
8.89921
8.89919
8.89916
8.89914
8.89912
8.89911
8.89909
8.89908
8.89906
8.89905
8.89904
8.89904
8.89903
8.89903
8.89902
8.89902
8.89902
8.89902
8.89903
8.89903
8.89904
8.89904
8.89905
8.89906
8.89908
8.89909
8.89911
8.89912
8.89914
8.89916
8.89919
8.89921
8.89924
8.89927
8.8993
8.89933
8.89937
8.89941
8.89945
8.8995
8.89955
8.8996
8.89966
8.89972
8.89979
8.89991
9.00798
9.00783
9.00774
9.00768
9.00762
9.00756
9.00751
9.00747
9.00742
9.00738
9.00734
9.00731
9.00728
9.00725
9.00722
9.00719
9.00717
9.00715
9.00713
9.00711
9.0071
9.00708
9.00707
9.00706
9.00705
9.00704
9.00704
9.00703
9.00703
9.00703
9.00703
9.00703
9.00703
9.00704
9.00704
9.00705
9.00706
9.00707
9.00708
9.0071
9.00711
9.00713
9.00715
9.00717
9.00719
9.00722
9.00725
9.00728
9.00731
9.00734
9.00738
9.00742
9.00747
9.00751
9.00756
9.00762
9.00768
9.00774
9.00783
9.00798
9.10501
9.10484
9.10475
9.10468
9.10462
9.10456
9.10451
9.10446
9.10442
9.10438
9.10434
9.10431
9.10427
9.10424
9.10422
9.10419
9.10417
9.10415
9.10413
9.10411
9.10409
9.10408
9.10407
9.10405
9.10405
9.10404
9.10403
9.10403
9.10402
9.10402
9.10402
9.10402
9.10403
9.10403
9.10404
9.10405
9.10405
9.10407
9.10408
9.10409
9.10411
9.10413
9.10415
9.10417
9.10419
9.10422
9.10424
9.10427
9.10431
9.10434
9.10438
9.10442
9.10446
9.10451
9.10456
9.10462
9.10468
9.10475
9.10484
9.10501
9.19402
9.19384
9.19374
9.19366
9.1936
9.19355
9.19349
9.19345
9.1934
9.19336
9.19332
9.19329
9.19326
9.19323
9.1932
9.19317
9.19315
9.19313
9.19311
9.19309
9.19307
9.19306
9.19305
9.19304
9.19303
9.19302
9.19301
9.19301
9.193
9.193
9.193
9.193
9.19301
9.19301
9.19302
9.19303
9.19304
9.19305
9.19306
9.19307
9.19309
9.19311
9.19313
9.19315
9.19317
9.1932
9.19323
9.19326
9.19329
9.19332
9.19336
9.1934
9.19345
9.19349
9.19355
9.1936
9.19366
9.19374
9.19384
9.19402
9.27701
9.27682
9.27672
9.27664
9.27658
9.27652
9.27647
9.27642
9.27638
9.27633
9.2763
9.27626
9.27623
9.2762
9.27617
9.27614
9.27612
9.2761
9.27608
9.27606
9.27605
9.27603
9.27602
9.27601
9.276
9.27599
9.27598
9.27598
9.27598
9.27598
9.27598
9.27598
9.27598
9.27598
9.27599
9.276
9.27601
9.27602
9.27603
9.27605
9.27606
9.27608
9.2761
9.27612
9.27614
9.27617
9.2762
9.27623
9.27626
9.2763
9.27633
9.27638
9.27642
9.27647
9.27652
9.27658
9.27664
9.27672
9.27682
9.27701
9.35538
9.35519
9.35508
9.355
9.35493
9.35488
9.35482
9.35478
9.35473
9.35469
9.35465
9.35462
9.35458
9.35455
9.35453
9.3545
9.35448
9.35446
9.35444
9.35442
9.3544
9.35439
9.35437
9.35436
9.35435
9.35435
9.35434
9.35434
9.35433
9.35433
9.35433
9.35433
9.35434
9.35434
9.35435
9.35435
9.35436
9.35437
9.35439
9.3544
9.35442
9.35444
9.35446
9.35448
9.3545
9.35453
9.35455
9.35458
9.35462
9.35465
9.35469
9.35473
9.35478
9.35482
9.35488
9.35493
9.355
9.35508
9.35519
9.35538
9.43013
9.42994
9.42982
9.42974
9.42968
9.42962
9.42957
9.42952
9.42948
9.42944
9.4294
9.42936
9.42933
9.4293
9.42927
9.42925
9.42922
9.4292
9.42918
9.42916
9.42915
9.42913
9.42912
9.42911
9.4291
9.42909
9.42909
9.42908
9.42908
9.42908
9.42908
9.42908
9.42908
9.42909
9.42909
9.4291
9.42911
9.42912
9.42913
9.42915
9.42916
9.42918
9.4292
9.42922
9.42925
9.42927
9.4293
9.42933
9.42936
9.4294
9.42944
9.42948
9.42952
9.42957
9.42962
9.42968
9.42974
9.42982
9.42994
9.43013
9.50202
9.50183
9.50172
9.50164
9.50157
9.50151
9.50146
9.50141
9.50137
9.50133
9.50129
9.50125
9.50122
9.50119
9.50116
9.50114
9.50111
9.50109
9.50107
9.50105
9.50104
9.50102
9.50101
9.501
9.50099
9.50098
9.50098
9.50097
9.50097
9.50097
9.50097
9.50097
9.50097
9.50098
9.50098
9.50099
9.501
9.50101
9.50102
9.50104
9.50105
9.50107
9.50109
9.50111
9.50114
9.50116
9.50119
9.50122
9.50125
9.50129
9.50133
9.50137
9.50141
9.50146
9.50151
9.50157
9.50164
9.50172
9.50183
9.50202
9.57165
9.57146
9.57134
9.57126
9.57119
9.57113
9.57108
9.57103
9.57099
9.57095
9.57091
9.57087
9.57084
9.57081
9.57078
9.57076
9.57073
9.57071
9.57069
9.57067
9.57066
9.57064
9.57063
9.57062
9.57061
9.5706
9.5706
9.57059
9.57059
9.57059
9.57059
9.57059
9.57059
9.5706
9.5706
9.57061
9.57062
9.57063
9.57064
9.57066
9.57067
9.57069
9.57071
9.57073
9.57076
9.57078
9.57081
9.57084
9.57087
9.57091
9.57095
9.57099
9.57103
9.57108
9.57113
9.57119
9.57126
9.57134
9.57146
9.57165
9.63946
9.63928
9.63916
9.63907
9.63901
9.63895
9.6389
9.63885
9.6388
9.63876
9.63872
9.63869
9.63866
9.63863
9.6386
9.63857
9.63855
9.63853
9.63851
9.63849
9.63848
9.63846
9.63845
9.63844
9.63843
9.63842
9.63842
9.63841
9.63841
9.63841
9.63841
9.63841
9.63841
9.63842
9.63842
9.63843
9.63844
9.63845
9.63846
9.63848
9.63849
9.63851
9.63853
9.63855
9.63857
9.6386
9.63863
9.63866
9.63869
9.63872
9.63876
9.6388
9.63885
9.6389
9.63895
9.63901
9.63907
9.63916
9.63928
9.63946
9.70585
9.70567
9.70555
9.70547
9.7054
9.70534
9.70529
9.70524
9.7052
9.70516
9.70512
9.70508
9.70505
9.70502
9.70499
9.70497
9.70494
9.70492
9.7049
9.70489
9.70487
9.70486
9.70484
9.70483
9.70482
9.70482
9.70481
9.70481
9.7048
9.7048
9.7048
9.7048
9.70481
9.70481
9.70482
9.70482
9.70483
9.70484
9.70486
9.70487
9.70489
9.7049
9.70492
9.70494
9.70497
9.70499
9.70502
9.70505
9.70508
9.70512
9.70516
9.7052
9.70524
9.70529
9.70534
9.7054
9.70547
9.70555
9.70567
9.70585
9.77114
9.77096
9.77084
9.77075
9.77068
9.77063
9.77057
9.77053
9.77048
9.77044
9.7704
9.77037
9.77034
9.77031
9.77028
9.77025
9.77023
9.77021
9.77019
9.77017
9.77016
9.77014
9.77013
9.77012
9.77011
9.7701
9.7701
9.77009
9.77009
9.77009
9.77009
9.77009
9.77009
9.7701
9.7701
9.77011
9.77012
9.77013
9.77014
9.77016
9.77017
9.77019
9.77021
9.77023
9.77025
9.77028
9.77031
9.77034
9.77037
9.7704
9.77044
9.77048
9.77053
9.77057
9.77063
9.77068
9.77075
9.77084
9.77096
9.77114
9.83557
9.8354
9.83528
9.83519
9.83513
9.83507
9.83502
9.83497
9.83492
9.83488
9.83485
9.83481
9.83478
9.83475
9.83472
9.8347
9.83467
9.83465
9.83463
9.83462
9.8346
9.83459
9.83458
9.83456
9.83456
9.83455
9.83454
9.83454
9.83453
9.83453
9.83453
9.83453
9.83454
9.83454
9.83455
9.83456
9.83456
9.83458
9.83459
9.8346
9.83462
9.83463
9.83465
9.83467
9.8347
9.83472
9.83475
9.83478
9.83481
9.83485
9.83488
9.83492
9.83497
9.83502
9.83507
9.83513
9.83519
9.83528
9.8354
9.83557
9.8994
9.89923
9.89911
9.89902
9.89895
9.8989
9.89884
9.8988
9.89875
9.89871
9.89867
9.89864
9.89861
9.89858
9.89855
9.89853
9.8985
9.89848
9.89846
9.89845
9.89843
9.89842
9.89841
9.8984
9.89839
9.89838
9.89837
9.89837
9.89837
9.89836
9.89836
9.89837
9.89837
9.89837
9.89838
9.89839
9.8984
9.89841
9.89842
9.89843
9.89845
9.89846
9.89848
9.8985
9.89853
9.89855
9.89858
9.89861
9.89864
9.89867
9.89871
9.89875
9.8988
9.89884
9.8989
9.89895
9.89902
9.89911
9.89923
9.8994
9.96281
9.96264
9.96252
9.96244
9.96237
9.96231
9.96226
9.96221
9.96217
9.96213
9.96209
9.96205
9.96202
9.96199
9.96197
9.96194
9.96192
9.9619
9.96188
9.96186
9.96185
9.96183
9.96182
9.96181
9.9618
9.9618
9.96179
9.96179
9.96178
9.96178
9.96178
9.96178
9.96179
9.96179
9.9618
9.9618
9.96181
9.96182
9.96183
9.96185
9.96186
9.96188
9.9619
9.96192
9.96194
9.96197
9.96199
9.96202
9.96205
9.96209
9.96213
9.96217
9.96221
9.96226
9.96231
9.96237
9.96244
9.96252
9.96264
9.96281
10.026
10.0258
10.0257
10.0256
10.0255
10.0255
10.0254
10.0254
10.0253
10.0253
10.0253
10.0252
10.0252
10.0252
10.0251
10.0251
10.0251
10.0251
10.0251
10.025
10.025
10.025
10.025
10.025
10.025
10.025
10.025
10.025
10.025
10.025
10.025
10.025
10.025
10.025
10.025
10.025
10.025
10.025
10.025
10.025
10.025
10.0251
10.0251
10.0251
10.0251
10.0251
10.0252
10.0252
10.0252
10.0253
10.0253
10.0253
10.0254
10.0254
10.0255
10.0255
10.0256
10.0257
10.0258
10.026
10.0891
10.0889
10.0888
10.0887
10.0886
10.0886
10.0885
10.0885
10.0884
10.0884
10.0884
10.0883
10.0883
10.0883
10.0882
10.0882
10.0882
10.0882
10.0882
10.0881
10.0881
10.0881
10.0881
10.0881
10.0881
10.0881
10.0881
10.0881
10.0881
10.0881
10.0881
10.0881
10.0881
10.0881
10.0881
10.0881
10.0881
10.0881
10.0881
10.0881
10.0881
10.0882
10.0882
10.0882
10.0882
10.0882
10.0883
10.0883
10.0883
10.0884
10.0884
10.0884
10.0885
10.0885
10.0886
10.0886
10.0887
10.0888
10.0889
10.0891
10.1522
10.1521
10.1519
10.1519
10.1518
10.1517
10.1517
10.1516
10.1516
10.1515
10.1515
10.1515
10.1514
10.1514
10.1514
10.1514
10.1513
10.1513
10.1513
10.1513
10.1513
10.1513
10.1512
10.1512
10.1512
10.1512
10.1512
10.1512
10.1512
10.1512
10.1512
10.1512
10.1512
10.1512
10.1512
10.1512
10.1512
10.1512
10.1513
10.1513
10.1513
10.1513
10.1513
10.1513
10.1514
10.1514
10.1514
10.1514
10.1515
10.1515
10.1515
10.1516
10.1516
10.1517
10.1517
10.1518
10.1519
10.1519
10.1521
10.1522
10.2155
10.2154
10.2153
10.2152
10.2151
10.2151
10.215
10.215
10.2149
10.2149
10.2148
10.2148
10.2148
10.2148
10.2147
10.2147
10.2147
10.2147
10.2146
10.2146
10.2146
10.2146
10.2146
10.2146
10.2146
10.2146
10.2146
10.2146
10.2145
10.2145
10.2145
10.2145
10.2146
10.2146
10.2146
10.2146
10.2146
10.2146
10.2146
10.2146
10.2146
10.2146
10.2147
10.2147
10.2147
10.2147
10.2148
10.2148
10.2148
10.2148
10.2149
10.2149
10.215
10.215
10.2151
10.2151
10.2152
10.2153
10.2154
10.2155
10.2792
10.279
10.2789
10.2788
10.2788
10.2787
10.2787
10.2786
10.2786
10.2785
10.2785
10.2785
10.2784
10.2784
10.2784
10.2783
10.2783
10.2783
10.2783
10.2783
10.2783
10.2782
10.2782
10.2782
10.2782
10.2782
10.2782
10.2782
10.2782
10.2782
10.2782
10.2782
10.2782
10.2782
10.2782
10.2782
10.2782
10.2782
10.2782
10.2783
10.2783
10.2783
10.2783
10.2783
10.2783
10.2784
10.2784
10.2784
10.2785
10.2785
10.2785
10.2786
10.2786
10.2787
10.2787
10.2788
10.2788
10.2789
10.279
10.2792
10.3432
10.3431
10.343
10.3429
10.3428
10.3428
10.3427
10.3427
10.3426
10.3426
10.3426
10.3425
10.3425
10.3425
10.3424
10.3424
10.3424
10.3424
10.3424
10.3423
10.3423
10.3423
10.3423
10.3423
10.3423
10.3423
10.3423
10.3423
10.3423
10.3423
10.3423
10.3423
10.3423
10.3423
10.3423
10.3423
10.3423
10.3423
10.3423
10.3423
10.3423
10.3424
10.3424
10.3424
10.3424
10.3424
10.3425
10.3425
10.3425
10.3426
10.3426
10.3426
10.3427
10.3427
10.3428
10.3428
10.3429
10.343
10.3431
10.3432
10.4078
10.4077
10.4076
10.4075
10.4074
10.4074
10.4073
10.4073
10.4072
10.4072
10.4071
10.4071
10.4071
10.4071
10.407
10.407
10.407
10.407
10.4069
10.4069
10.4069
10.4069
10.4069
10.4069
10.4069
10.4069
10.4069
10.4069
10.4069
10.4069
10.4069
10.4069
10.4069
10.4069
10.4069
10.4069
10.4069
10.4069
10.4069
10.4069
10.4069
10.4069
10.407
10.407
10.407
10.407
10.4071
10.4071
10.4071
10.4071
10.4072
10.4072
10.4073
10.4073
10.4074
10.4074
10.4075
10.4076
10.4077
10.4078
10.473
10.4729
10.4728
10.4727
10.4726
10.4726
10.4725
10.4725
10.4724
10.4724
10.4723
10.4723
10.4723
10.4723
10.4722
10.4722
10.4722
10.4722
10.4722
10.4721
10.4721
10.4721
10.4721
10.4721
10.4721
10.4721
10.4721
10.4721
10.4721
10.4721
10.4721
10.4721
10.4721
10.4721
10.4721
10.4721
10.4721
10.4721
10.4721
10.4721
10.4721
10.4722
10.4722
10.4722
10.4722
10.4722
10.4723
10.4723
10.4723
10.4723
10.4724
10.4724
10.4725
10.4725
10.4726
10.4726
10.4727
10.4728
10.4729
10.473
10.5389
10.5388
10.5387
10.5386
10.5385
10.5385
10.5384
10.5384
10.5383
10.5383
10.5383
10.5382
10.5382
10.5382
10.5382
10.5381
10.5381
10.5381
10.5381
10.5381
10.538
10.538
10.538
10.538
10.538
10.538
10.538
10.538
10.538
10.538
10.538
10.538
10.538
10.538
10.538
10.538
10.538
10.538
10.538
10.538
10.5381
10.5381
10.5381
10.5381
10.5381
10.5382
10.5382
10.5382
10.5382
10.5383
10.5383
10.5383
10.5384
10.5384
10.5385
10.5385
10.5386
10.5387
10.5388
10.5389
10.6056
10.6055
10.6054
10.6053
10.6053
10.6052
10.6052
10.6051
10.6051
10.605
10.605
10.605
10.6049
10.6049
10.6049
10.6049
10.6048
10.6048
10.6048
10.6048
10.6048
10.6048
10.6048
10.6047
10.6047
10.6047
10.6047
10.6047
10.6047
10.6047
10.6047
10.6047
10.6047
10.6047
10.6047
10.6047
10.6047
10.6048
10.6048
10.6048
10.6048
10.6048
10.6048
10.6048
10.6049
10.6049
10.6049
10.6049
10.605
10.605
10.605
10.6051
10.6051
10.6052
10.6052
10.6053
10.6053
10.6054
10.6055
10.6056
10.6732
10.6731
10.673
10.673
10.6729
10.6728
10.6728
10.6727
10.6727
10.6727
10.6726
10.6726
10.6726
10.6725
10.6725
10.6725
10.6725
10.6724
10.6724
10.6724
10.6724
10.6724
10.6724
10.6724
10.6724
10.6724
10.6724
10.6723
10.6723
10.6723
10.6723
10.6723
10.6723
10.6724
10.6724
10.6724
10.6724
10.6724
10.6724
10.6724
10.6724
10.6724
10.6724
10.6725
10.6725
10.6725
10.6725
10.6726
10.6726
10.6726
10.6727
10.6727
10.6727
10.6728
10.6728
10.6729
10.673
10.673
10.6731
10.6732
10.7418
10.7417
10.7416
10.7416
10.7415
10.7414
10.7414
10.7413
10.7413
10.7413
10.7412
10.7412
10.7412
10.7411
10.7411
10.7411
10.7411
10.7411
10.741
10.741
10.741
10.741
10.741
10.741
10.741
10.741
10.741
10.741
10.741
10.7409
10.7409
10.741
10.741
10.741
10.741
10.741
10.741
10.741
10.741
10.741
10.741
10.741
10.7411
10.7411
10.7411
10.7411
10.7411
10.7412
10.7412
10.7412
10.7413
10.7413
10.7413
10.7414
10.7414
10.7415
10.7416
10.7416
10.7417
10.7418
10.8115
10.8114
10.8113
10.8112
10.8111
10.8111
10.811
10.811
10.811
10.8109
10.8109
10.8109
10.8108
10.8108
10.8108
10.8108
10.8107
10.8107
10.8107
10.8107
10.8107
10.8107
10.8107
10.8106
10.8106
10.8106
10.8106
10.8106
10.8106
10.8106
10.8106
10.8106
10.8106
10.8106
10.8106
10.8106
10.8106
10.8107
10.8107
10.8107
10.8107
10.8107
10.8107
10.8107
10.8108
10.8108
10.8108
10.8108
10.8109
10.8109
10.8109
10.811
10.811
10.811
10.8111
10.8111
10.8112
10.8113
10.8114
10.8115
10.8823
10.8822
10.8821
10.882
10.882
10.8819
10.8819
10.8818
10.8818
10.8817
10.8817
10.8817
10.8816
10.8816
10.8816
10.8816
10.8816
10.8815
10.8815
10.8815
10.8815
10.8815
10.8815
10.8815
10.8815
10.8814
10.8814
10.8814
10.8814
10.8814
10.8814
10.8814
10.8814
10.8814
10.8814
10.8815
10.8815
10.8815
10.8815
10.8815
10.8815
10.8815
10.8815
10.8816
10.8816
10.8816
10.8816
10.8816
10.8817
10.8817
10.8817
10.8818
10.8818
10.8819
10.8819
10.882
10.882
10.8821
10.8822
10.8823
10.9543
10.9542
10.9541
10.9541
10.954
10.9539
10.9539
10.9538
10.9538
10.9538
10.9537
10.9537
10.9537
10.9537
10.9536
10.9536
10.9536
10.9536
10.9536
10.9535
10.9535
10.9535
10.9535
10.9535
10.9535
10.9535
10.9535
10.9535
10.9535
10.9535
10.9535
10.9535
10.9535
10.9535
10.9535
10.9535
10.9535
10.9535
10.9535
10.9535
10.9535
10.9536
10.9536
10.9536
10.9536
10.9536
10.9537
10.9537
10.9537
10.9537
10.9538
10.9538
10.9538
10.9539
10.9539
10.954
10.9541
10.9541
10.9542
10.9543
11.0277
11.0276
11.0275
11.0274
11.0273
11.0273
11.0272
11.0272
11.0272
11.0271
11.0271
11.0271
11.027
11.027
11.027
11.027
11.0269
11.0269
11.0269
11.0269
11.0269
11.0269
11.0269
11.0269
11.0268
11.0268
11.0268
11.0268
11.0268
11.0268
11.0268
11.0268
11.0268
11.0268
11.0268
11.0268
11.0269
11.0269
11.0269
11.0269
11.0269
11.0269
11.0269
11.0269
11.027
11.027
11.027
11.027
11.0271
11.0271
11.0271
11.0272
11.0272
11.0272
11.0273
11.0273
11.0274
11.0275
11.0276
11.0277
11.1024
11.1023
11.1022
11.1021
11.1021
11.102
11.102
11.1019
11.1019
11.1019
11.1018
11.1018
11.1018
11.1017
11.1017
11.1017
11.1017
11.1017
11.1017
11.1016
11.1016
11.1016
11.1016
11.1016
11.1016
11.1016
11.1016
11.1016
11.1016
11.1016
11.1016
11.1016
11.1016
11.1016
11.1016
11.1016
11.1016
11.1016
11.1016
11.1016
11.1016
11.1017
11.1017
11.1017
11.1017
11.1017
11.1017
11.1018
11.1018
11.1018
11.1019
11.1019
11.1019
11.102
11.102
11.1021
11.1021
11.1022
11.1023
11.1024
11.1786
11.1785
11.1784
11.1783
11.1783
11.1782
11.1782
11.1781
11.1781
11.1781
11.178
11.178
11.178
11.178
11.1779
11.1779
11.1779
11.1779
11.1779
11.1778
11.1778
11.1778
11.1778
11.1778
11.1778
11.1778
11.1778
11.1778
11.1778
11.1778
11.1778
11.1778
11.1778
11.1778
11.1778
11.1778
11.1778
11.1778
11.1778
11.1778
11.1778
11.1779
11.1779
11.1779
11.1779
11.1779
11.178
11.178
11.178
11.178
11.1781
11.1781
11.1781
11.1782
11.1782
11.1783
11.1783
11.1784
11.1785
11.1786
11.2563
11.2563
11.2562
11.2561
11.256
11.256
11.2559
11.2559
11.2559
11.2558
11.2558
11.2558
11.2557
11.2557
11.2557
11.2557
11.2557
11.2556
11.2556
11.2556
11.2556
11.2556
11.2556
11.2556
11.2556
11.2556
11.2556
11.2556
11.2555
11.2555
11.2555
11.2555
11.2556
11.2556
11.2556
11.2556
11.2556
11.2556
11.2556
11.2556
11.2556
11.2556
11.2556
11.2557
11.2557
11.2557
11.2557
11.2557
11.2558
11.2558
11.2558
11.2559
11.2559
11.2559
11.256
11.256
11.2561
11.2562
11.2563
11.2563
11.3357
11.3356
11.3356
11.3355
11.3354
11.3354
11.3353
11.3353
11.3352
11.3352
11.3352
11.3352
11.3351
11.3351
11.3351
11.3351
11.335
11.335
11.335
11.335
11.335
11.335
11.335
11.335
11.335
11.335
11.3349
11.3349
11.3349
11.3349
11.3349
11.3349
11.3349
11.3349
11.335
11.335
11.335
11.335
11.335
11.335
11.335
11.335
11.335
11.335
11.3351
11.3351
11.3351
11.3351
11.3352
11.3352
11.3352
11.3352
11.3353
11.3353
11.3354
11.3354
11.3355
11.3356
11.3356
11.3357
11.4168
11.4167
11.4167
11.4166
11.4165
11.4165
11.4164
11.4164
11.4163
11.4163
11.4163
11.4163
11.4162
11.4162
11.4162
11.4162
11.4162
11.4161
11.4161
11.4161
11.4161
11.4161
11.4161
11.4161
11.4161
11.4161
11.4161
11.4161
11.4161
11.4161
11.4161
11.4161
11.4161
11.4161
11.4161
11.4161
11.4161
11.4161
11.4161
11.4161
11.4161
11.4161
11.4161
11.4162
11.4162
11.4162
11.4162
11.4162
11.4163
11.4163
11.4163
11.4163
11.4164
11.4164
11.4165
11.4165
11.4166
11.4167
11.4167
11.4168
11.4997
11.4996
11.4996
11.4995
11.4994
11.4994
11.4993
11.4993
11.4992
11.4992
11.4992
11.4992
11.4991
11.4991
11.4991
11.4991
11.4991
11.499
11.499
11.499
11.499
11.499
11.499
11.499
11.499
11.499
11.499
11.499
11.499
11.499
11.499
11.499
11.499
11.499
11.499
11.499
11.499
11.499
11.499
11.499
11.499
11.499
11.499
11.4991
11.4991
11.4991
11.4991
11.4991
11.4992
11.4992
11.4992
11.4992
11.4993
11.4993
11.4994
11.4994
11.4995
11.4996
11.4996
11.4997
11.5845
11.5844
11.5843
11.5843
11.5842
11.5841
11.5841
11.5841
11.584
11.584
11.584
11.5839
11.5839
11.5839
11.5839
11.5839
11.5838
11.5838
11.5838
11.5838
11.5838
11.5838
11.5838
11.5838
11.5838
11.5838
11.5838
11.5837
11.5837
11.5837
11.5837
11.5837
11.5837
11.5838
11.5838
11.5838
11.5838
11.5838
11.5838
11.5838
11.5838
11.5838
11.5838
11.5838
11.5839
11.5839
11.5839
11.5839
11.5839
11.584
11.584
11.584
11.5841
11.5841
11.5841
11.5842
11.5843
11.5843
11.5844
11.5845
11.6712
11.6711
11.6711
11.671
11.6709
11.6709
11.6708
11.6708
11.6708
11.6707
11.6707
11.6707
11.6707
11.6706
11.6706
11.6706
11.6706
11.6706
11.6706
11.6706
11.6705
11.6705
11.6705
11.6705
11.6705
11.6705
11.6705
11.6705
11.6705
11.6705
11.6705
11.6705
11.6705
11.6705
11.6705
11.6705
11.6705
11.6705
11.6705
11.6705
11.6706
11.6706
11.6706
11.6706
11.6706
11.6706
11.6706
11.6707
11.6707
11.6707
11.6707
11.6708
11.6708
11.6708
11.6709
11.6709
11.671
11.6711
11.6711
11.6712
11.76
11.7599
11.7599
11.7598
11.7597
11.7597
11.7596
11.7596
11.7596
11.7595
11.7595
11.7595
11.7595
11.7594
11.7594
11.7594
11.7594
11.7594
11.7594
11.7594
11.7593
11.7593
11.7593
11.7593
11.7593
11.7593
11.7593
11.7593
11.7593
11.7593
11.7593
11.7593
11.7593
11.7593
11.7593
11.7593
11.7593
11.7593
11.7593
11.7593
11.7594
11.7594
11.7594
11.7594
11.7594
11.7594
11.7594
11.7595
11.7595
11.7595
11.7595
11.7596
11.7596
11.7596
11.7597
11.7597
11.7598
11.7599
11.7599
11.76
11.8509
11.8509
11.8508
11.8507
11.8507
11.8506
11.8506
11.8505
11.8505
11.8505
11.8505
11.8504
11.8504
11.8504
11.8504
11.8504
11.8503
11.8503
11.8503
11.8503
11.8503
11.8503
11.8503
11.8503
11.8503
11.8503
11.8503
11.8503
11.8502
11.8502
11.8502
11.8502
11.8503
11.8503
11.8503
11.8503
11.8503
11.8503
11.8503
11.8503
11.8503
11.8503
11.8503
11.8503
11.8504
11.8504
11.8504
11.8504
11.8504
11.8505
11.8505
11.8505
11.8505
11.8506
11.8506
11.8507
11.8507
11.8508
11.8509
11.8509
11.9441
11.944
11.944
11.9439
11.9438
11.9438
11.9437
11.9437
11.9437
11.9436
11.9436
11.9436
11.9436
11.9436
11.9435
11.9435
11.9435
11.9435
11.9435
11.9435
11.9435
11.9435
11.9434
11.9434
11.9434
11.9434
11.9434
11.9434
11.9434
11.9434
11.9434
11.9434
11.9434
11.9434
11.9434
11.9434
11.9434
11.9434
11.9435
11.9435
11.9435
11.9435
11.9435
11.9435
11.9435
11.9435
11.9436
11.9436
11.9436
11.9436
11.9436
11.9437
11.9437
11.9437
11.9438
11.9438
11.9439
11.944
11.944
11.9441
12.0395
12.0395
12.0394
12.0394
12.0393
12.0393
12.0392
12.0392
12.0392
12.0391
12.0391
12.0391
12.0391
12.039
12.039
12.039
12.039
12.039
12.039
12.039
12.0389
12.0389
12.0389
12.0389
12.0389
12.0389
12.0389
12.0389
12.0389
12.0389
12.0389
12.0389
12.0389
12.0389
12.0389
12.0389
12.0389
12.0389
12.0389
12.0389
12.039
12.039
12.039
12.039
12.039
12.039
12.039
12.0391
12.0391
12.0391
12.0391
12.0392
12.0392
12.0392
12.0393
12.0393
12.0394
12.0394
12.0395
12.0395
12.1374
12.1374
12.1373
12.1373
12.1372
12.1372
12.1371
12.1371
12.137
12.137
12.137
12.137
12.137
12.1369
12.1369
12.1369
12.1369
12.1369
12.1369
12.1369
12.1368
12.1368
12.1368
12.1368
12.1368
12.1368
12.1368
12.1368
12.1368
12.1368
12.1368