/*--------------------------------*- C++ -*----------------------------------*\
| =========                 |                                                 |
| \\      /  F ield         | foam-extend: Open Source CFD                    |
|  \\    /   O peration     | Version:     4.0                                |
|   \\  /    A nd           | Web:         http://www.foam-extend.org         |
|    \\/     M anipulation  |                                                 |
\*---------------------------------------------------------------------------*/
FoamFile
{
    version     2.0;
    format      ascii;
    class       volScalarField;
    location    "22";
    object      p;
}
// * * * * * * * * * * * * * * * * * * * * * * * * * * * * * * * * * * * * * //

dimensions      [0 2 -2 0 0 0 0];

internalField   nonuniform List<scalar> 
6960
(
2.19722e-07
3.28238e-07
3.19536e-07
3.53399e-07
2.85693e-07
2.85562e-07
2.86298e-07
3.18298e-07
3.43165e-07
3.50728e-07
3.81701e-07
3.84737e-07
3.86304e-07
3.70006e-07
3.50416e-07
3.4004e-07
3.28935e-07
3.27968e-07
3.32903e-07
3.43594e-07
3.56818e-07
3.64624e-07
3.6863e-07
3.68514e-07
3.64802e-07
3.59495e-07
3.54163e-07
3.52307e-07
3.53802e-07
3.57032e-07
3.60578e-07
3.63522e-07
3.64722e-07
3.63116e-07
3.59714e-07
3.56217e-07
3.54343e-07
3.53855e-07
3.54945e-07
3.57588e-07
3.61034e-07
3.63479e-07
3.64424e-07
3.64398e-07
3.63269e-07
3.62158e-07
3.5932e-07
3.57639e-07
3.56671e-07
3.55625e-07
3.56468e-07
3.56233e-07
3.57887e-07
3.59775e-07
3.59398e-07
3.61758e-07
3.59435e-07
3.61611e-07
3.58443e-07
3.61554e-07
3.14738e-07
3.28375e-07
3.19508e-07
3.53372e-07
2.85564e-07
2.85448e-07
2.86145e-07
3.18224e-07
3.43169e-07
3.50792e-07
3.81835e-07
3.84854e-07
3.86409e-07
3.70053e-07
3.50394e-07
3.39975e-07
3.28836e-07
3.27881e-07
3.32847e-07
3.43578e-07
3.56846e-07
3.64677e-07
3.6869e-07
3.6856e-07
3.64823e-07
3.59492e-07
3.54141e-07
3.52278e-07
3.53775e-07
3.57017e-07
3.60576e-07
3.6353e-07
3.64732e-07
3.63125e-07
3.59719e-07
3.56218e-07
3.54344e-07
3.53857e-07
3.5495e-07
3.57592e-07
3.61034e-07
3.63473e-07
3.64412e-07
3.64383e-07
3.63257e-07
3.62153e-07
3.59322e-07
3.57651e-07
3.56684e-07
3.55639e-07
3.56479e-07
3.56235e-07
3.57888e-07
3.59771e-07
3.59394e-07
3.61758e-07
3.59437e-07
3.61618e-07
3.5845e-07
3.61558e-07
3.30845e-07
3.2855e-07
3.19733e-07
3.53438e-07
2.85583e-07
2.85393e-07
2.85886e-07
3.18052e-07
3.42959e-07
3.50737e-07
3.81882e-07
3.84945e-07
3.86592e-07
3.70192e-07
3.50499e-07
3.39999e-07
3.28776e-07
3.27792e-07
3.32734e-07
3.43492e-07
3.56805e-07
3.64682e-07
3.6874e-07
3.68623e-07
3.64881e-07
3.59527e-07
3.54144e-07
3.52254e-07
3.53735e-07
3.56977e-07
3.60552e-07
3.63526e-07
3.64749e-07
3.63154e-07
3.59751e-07
3.56242e-07
3.54356e-07
3.53856e-07
3.5494e-07
3.57577e-07
3.61017e-07
3.63457e-07
3.64401e-07
3.64374e-07
3.63256e-07
3.62159e-07
3.59334e-07
3.57671e-07
3.56699e-07
3.55654e-07
3.56486e-07
3.56233e-07
3.57886e-07
3.59759e-07
3.5939e-07
3.61758e-07
3.5944e-07
3.61629e-07
3.58458e-07
3.61563e-07
3.23565e-07
3.28809e-07
3.20186e-07
3.53576e-07
2.85749e-07
2.85401e-07
2.85545e-07
3.17796e-07
3.42553e-07
3.50574e-07
3.81839e-07
3.85007e-07
3.86837e-07
3.70411e-07
3.50721e-07
3.40107e-07
3.28755e-07
3.27704e-07
3.32574e-07
3.43344e-07
3.567e-07
3.64642e-07
3.68779e-07
3.68698e-07
3.64969e-07
3.59597e-07
3.54172e-07
3.52238e-07
3.53683e-07
3.56916e-07
3.60506e-07
3.63511e-07
3.64767e-07
3.632e-07
3.59806e-07
3.56288e-07
3.54379e-07
3.53854e-07
3.54919e-07
3.57544e-07
3.60982e-07
3.63429e-07
3.64387e-07
3.64369e-07
3.63264e-07
3.62173e-07
3.59355e-07
3.57701e-07
3.56716e-07
3.55673e-07
3.56491e-07
3.56225e-07
3.57879e-07
3.59738e-07
3.59384e-07
3.61754e-07
3.59446e-07
3.61643e-07
3.58468e-07
3.61567e-07
3.2098e-07
3.29156e-07
3.20872e-07
3.53788e-07
2.86069e-07
2.85476e-07
2.85126e-07
3.17457e-07
3.41943e-07
3.50301e-07
3.81701e-07
3.85036e-07
3.87146e-07
3.7071e-07
3.51063e-07
3.40303e-07
3.28776e-07
3.2762e-07
3.32366e-07
3.43132e-07
3.56527e-07
3.64554e-07
3.68805e-07
3.68785e-07
3.6509e-07
3.59703e-07
3.54225e-07
3.52232e-07
3.53621e-07
3.56834e-07
3.60439e-07
3.63484e-07
3.64787e-07
3.63262e-07
3.59884e-07
3.56356e-07
3.54415e-07
3.53851e-07
3.54886e-07
3.57496e-07
3.60931e-07
3.63389e-07
3.64369e-07
3.64366e-07
3.63282e-07
3.62197e-07
3.59385e-07
3.57739e-07
3.56736e-07
3.55695e-07
3.56494e-07
3.56214e-07
3.5787e-07
3.59709e-07
3.59377e-07
3.61746e-07
3.59453e-07
3.6166e-07
3.5848e-07
3.61572e-07
3.21884e-07
3.29585e-07
3.2178e-07
3.54071e-07
2.86547e-07
2.85621e-07
2.84644e-07
3.1704e-07
3.41137e-07
3.4992e-07
3.81464e-07
3.85028e-07
3.87508e-07
3.71084e-07
3.51523e-07
3.40584e-07
3.28843e-07
3.27543e-07
3.32115e-07
3.42861e-07
3.5629e-07
3.64419e-07
3.68816e-07
3.68882e-07
3.65241e-07
3.59842e-07
3.54305e-07
3.52235e-07
3.53549e-07
3.5673e-07
3.6035e-07
3.63443e-07
3.64808e-07
3.63339e-07
3.59986e-07
3.56447e-07
3.54464e-07
3.53849e-07
3.54844e-07
3.57431e-07
3.60863e-07
3.63338e-07
3.64349e-07
3.64366e-07
3.63307e-07
3.62229e-07
3.59425e-07
3.57786e-07
3.56759e-07
3.55721e-07
3.56494e-07
3.56199e-07
3.57858e-07
3.59671e-07
3.59368e-07
3.61736e-07
3.59461e-07
3.61678e-07
3.58493e-07
3.61577e-07
3.23026e-07
3.3009e-07
3.22899e-07
3.54425e-07
2.87189e-07
2.85841e-07
2.84113e-07
3.16551e-07
3.40145e-07
3.49431e-07
3.81123e-07
3.84978e-07
3.87913e-07
3.71525e-07
3.52096e-07
3.4095e-07
3.2896e-07
3.27479e-07
3.31827e-07
3.42534e-07
3.55988e-07
3.64235e-07
3.68809e-07
3.68985e-07
3.6542e-07
3.60016e-07
3.54412e-07
3.5225e-07
3.53469e-07
3.56606e-07
3.60239e-07
3.63389e-07
3.64829e-07
3.63429e-07
3.6011e-07
3.56559e-07
3.54527e-07
3.53848e-07
3.54793e-07
3.5735e-07
3.60779e-07
3.63275e-07
3.64325e-07
3.64368e-07
3.63341e-07
3.62269e-07
3.59473e-07
3.57842e-07
3.56784e-07
3.55751e-07
3.56493e-07
3.56182e-07
3.57842e-07
3.59626e-07
3.59356e-07
3.61721e-07
3.59471e-07
3.61698e-07
3.58508e-07
3.61583e-07
3.2389e-07
3.30666e-07
3.24212e-07
3.54846e-07
2.87999e-07
2.8614e-07
2.83553e-07
3.15999e-07
3.38976e-07
3.48837e-07
3.80672e-07
3.84878e-07
3.8835e-07
3.72026e-07
3.52777e-07
3.41401e-07
3.2913e-07
3.27432e-07
3.31507e-07
3.42156e-07
3.55624e-07
3.64001e-07
3.68781e-07
3.6909e-07
3.65622e-07
3.6022e-07
3.54545e-07
3.52277e-07
3.53383e-07
3.56465e-07
3.60109e-07
3.6332e-07
3.64848e-07
3.63531e-07
3.60255e-07
3.56694e-07
3.54603e-07
3.5385e-07
3.54735e-07
3.57255e-07
3.60678e-07
3.632e-07
3.64297e-07
3.64372e-07
3.63383e-07
3.62317e-07
3.59531e-07
3.57906e-07
3.56813e-07
3.55785e-07
3.5649e-07
3.56161e-07
3.57823e-07
3.59572e-07
3.59343e-07
3.61702e-07
3.59481e-07
3.61719e-07
3.58524e-07
3.61588e-07
3.24703e-07
3.31311e-07
3.25703e-07
3.55333e-07
2.88979e-07
2.86522e-07
2.82981e-07
3.15391e-07
3.37643e-07
3.4814e-07
3.80105e-07
3.84723e-07
3.88806e-07
3.72579e-07
3.53561e-07
3.41935e-07
3.29358e-07
3.27408e-07
3.31164e-07
3.41732e-07
3.55199e-07
3.63718e-07
3.68729e-07
3.69193e-07
3.65844e-07
3.60452e-07
3.54704e-07
3.52319e-07
3.53294e-07
3.56308e-07
3.59958e-07
3.63237e-07
3.64862e-07
3.63643e-07
3.60418e-07
3.56849e-07
3.54694e-07
3.53856e-07
3.5467e-07
3.57147e-07
3.60562e-07
3.63113e-07
3.64263e-07
3.64377e-07
3.63432e-07
3.62374e-07
3.59598e-07
3.57979e-07
3.56846e-07
3.55824e-07
3.56486e-07
3.56139e-07
3.57801e-07
3.59511e-07
3.59328e-07
3.61679e-07
3.59492e-07
3.61742e-07
3.58542e-07
3.61593e-07
3.25553e-07
3.3202e-07
3.27355e-07
3.55882e-07
2.90132e-07
2.86991e-07
2.82415e-07
3.14736e-07
3.36157e-07
3.47344e-07
3.7942e-07
3.84508e-07
3.89269e-07
3.73175e-07
3.5444e-07
3.42549e-07
3.29648e-07
3.27412e-07
3.30803e-07
3.41268e-07
3.54717e-07
3.63386e-07
3.6865e-07
3.69291e-07
3.66084e-07
3.60712e-07
3.5489e-07
3.52376e-07
3.53204e-07
3.56138e-07
3.59789e-07
3.63138e-07
3.64871e-07
3.63762e-07
3.60599e-07
3.57024e-07
3.548e-07
3.53867e-07
3.546e-07
3.57027e-07
3.6043e-07
3.63013e-07
3.64224e-07
3.64382e-07
3.63487e-07
3.62438e-07
3.59674e-07
3.58061e-07
3.56884e-07
3.55866e-07
3.56481e-07
3.56114e-07
3.57775e-07
3.59443e-07
3.5931e-07
3.61652e-07
3.59503e-07
3.61764e-07
3.58561e-07
3.61599e-07
3.26422e-07
3.32789e-07
3.29147e-07
3.56492e-07
2.91458e-07
2.87549e-07
2.81874e-07
3.14043e-07
3.34533e-07
3.46452e-07
3.78612e-07
3.84226e-07
3.89727e-07
3.73806e-07
3.55407e-07
3.43241e-07
3.30002e-07
3.27449e-07
3.30431e-07
3.40769e-07
3.54179e-07
3.63004e-07
3.6854e-07
3.69379e-07
3.66335e-07
3.60995e-07
3.55101e-07
3.5245e-07
3.53115e-07
3.55956e-07
3.59602e-07
3.63024e-07
3.64874e-07
3.63886e-07
3.60795e-07
3.57219e-07
3.54922e-07
3.53885e-07
3.54528e-07
3.56896e-07
3.60284e-07
3.62901e-07
3.64178e-07
3.64387e-07
3.63548e-07
3.62508e-07
3.5976e-07
3.58152e-07
3.56926e-07
3.55913e-07
3.56475e-07
3.56089e-07
3.57747e-07
3.59369e-07
3.59289e-07
3.61619e-07
3.59513e-07
3.61787e-07
3.58581e-07
3.61604e-07
3.27286e-07
3.33612e-07
3.31061e-07
3.57157e-07
2.92958e-07
2.882e-07
2.81374e-07
3.1332e-07
3.32785e-07
3.4547e-07
3.77679e-07
3.83873e-07
3.90168e-07
3.74462e-07
3.56455e-07
3.44008e-07
3.30424e-07
3.27524e-07
3.30057e-07
3.40241e-07
3.5359e-07
3.62573e-07
3.68398e-07
3.69454e-07
3.66596e-07
3.613e-07
3.55337e-07
3.52541e-07
3.53029e-07
3.55764e-07
3.59399e-07
3.62894e-07
3.64868e-07
3.64014e-07
3.61004e-07
3.57432e-07
3.55059e-07
3.53911e-07
3.54454e-07
3.56756e-07
3.60124e-07
3.62776e-07
3.64124e-07
3.6439e-07
3.63613e-07
3.62586e-07
3.59855e-07
3.58251e-07
3.56973e-07
3.55965e-07
3.56469e-07
3.56062e-07
3.57716e-07
3.59289e-07
3.59265e-07
3.61582e-07
3.59523e-07
3.61809e-07
3.58601e-07
3.6161e-07
3.28132e-07
3.34484e-07
3.33076e-07
3.57875e-07
2.94629e-07
2.88946e-07
2.80934e-07
3.12578e-07
3.30929e-07
3.44402e-07
3.76619e-07
3.83444e-07
3.90578e-07
3.75133e-07
3.57576e-07
3.44846e-07
3.30915e-07
3.27641e-07
3.29687e-07
3.3969e-07
3.52953e-07
3.62095e-07
3.6822e-07
3.69511e-07
3.66862e-07
3.61622e-07
3.55597e-07
3.52651e-07
3.52949e-07
3.55566e-07
3.59181e-07
3.62748e-07
3.64852e-07
3.64142e-07
3.61225e-07
3.57663e-07
3.55212e-07
3.53946e-07
3.54381e-07
3.56608e-07
3.59951e-07
3.62638e-07
3.64063e-07
3.64391e-07
3.63681e-07
3.62669e-07
3.59958e-07
3.58359e-07
3.57027e-07
3.56022e-07
3.56464e-07
3.56035e-07
3.57682e-07
3.59203e-07
3.59239e-07
3.6154e-07
3.59532e-07
3.6183e-07
3.58623e-07
3.61615e-07
3.28948e-07
3.354e-07
3.3517e-07
3.58641e-07
2.96469e-07
2.89788e-07
2.80572e-07
3.11826e-07
3.28981e-07
3.43253e-07
3.7543e-07
3.82934e-07
3.90946e-07
3.7581e-07
3.5876e-07
3.4575e-07
3.31477e-07
3.27805e-07
3.29329e-07
3.39123e-07
3.52272e-07
3.6157e-07
3.68004e-07
3.69548e-07
3.67127e-07
3.61959e-07
3.5588e-07
3.52781e-07
3.52876e-07
3.55364e-07
3.58949e-07
3.62586e-07
3.64824e-07
3.64268e-07
3.61455e-07
3.5791e-07
3.5538e-07
3.53992e-07
3.5431e-07
3.56453e-07
3.59767e-07
3.62487e-07
3.63992e-07
3.64388e-07
3.63752e-07
3.62758e-07
3.60071e-07
3.58475e-07
3.57086e-07
3.56084e-07
3.5646e-07
3.56009e-07
3.57645e-07
3.59112e-07
3.59209e-07
3.61492e-07
3.5954e-07
3.6185e-07
3.58645e-07
3.61621e-07
3.29724e-07
3.36352e-07
3.37322e-07
3.5945e-07
2.98474e-07
2.90729e-07
2.80306e-07
3.11074e-07
3.26958e-07
3.42031e-07
3.74112e-07
3.8234e-07
3.91258e-07
3.76483e-07
3.59997e-07
3.46715e-07
3.32113e-07
3.28019e-07
3.28989e-07
3.38546e-07
3.51552e-07
3.61e-07
3.67749e-07
3.69559e-07
3.67389e-07
3.62308e-07
3.56185e-07
3.52931e-07
3.52814e-07
3.55159e-07
3.58705e-07
3.62408e-07
3.64783e-07
3.64391e-07
3.61693e-07
3.58171e-07
3.55565e-07
3.5405e-07
3.54243e-07
3.56295e-07
3.59571e-07
3.62324e-07
3.63912e-07
3.64381e-07
3.63825e-07
3.62851e-07
3.60192e-07
3.586e-07
3.57153e-07
3.56152e-07
3.56457e-07
3.55985e-07
3.57607e-07
3.59016e-07
3.59176e-07
3.6144e-07
3.59547e-07
3.61868e-07
3.58667e-07
3.61626e-07
3.30449e-07
3.37335e-07
3.39508e-07
3.60297e-07
3.00638e-07
2.9177e-07
2.8015e-07
3.10332e-07
3.24877e-07
3.40742e-07
3.72666e-07
3.81657e-07
3.91503e-07
3.77141e-07
3.61278e-07
3.47737e-07
3.32823e-07
3.28288e-07
3.28676e-07
3.37966e-07
3.50797e-07
3.60387e-07
3.67452e-07
3.69542e-07
3.67643e-07
3.62665e-07
3.5651e-07
3.53101e-07
3.52763e-07
3.54956e-07
3.58451e-07
3.62214e-07
3.64729e-07
3.64507e-07
3.61934e-07
3.58446e-07
3.55766e-07
3.5412e-07
3.54182e-07
3.56134e-07
3.59366e-07
3.62149e-07
3.63822e-07
3.64368e-07
3.63897e-07
3.62948e-07
3.6032e-07
3.58733e-07
3.57227e-07
3.56226e-07
3.56457e-07
3.55962e-07
3.57566e-07
3.58917e-07
3.5914e-07
3.61381e-07
3.59551e-07
3.61883e-07
3.5869e-07
3.61632e-07
3.31111e-07
3.38341e-07
3.41706e-07
3.61176e-07
3.02954e-07
2.92909e-07
2.80123e-07
3.09609e-07
3.22759e-07
3.39394e-07
3.71093e-07
3.80884e-07
3.91668e-07
3.77774e-07
3.62591e-07
3.48809e-07
3.33607e-07
3.28615e-07
3.28396e-07
3.37391e-07
3.50012e-07
3.59733e-07
3.67112e-07
3.69493e-07
3.67885e-07
3.63025e-07
3.56853e-07
3.53293e-07
3.52727e-07
3.54755e-07
3.58189e-07
3.62005e-07
3.64659e-07
3.64615e-07
3.62178e-07
3.58731e-07
3.55981e-07
3.54205e-07
3.54129e-07
3.55972e-07
3.59153e-07
3.61963e-07
3.63721e-07
3.64348e-07
3.63967e-07
3.63048e-07
3.60457e-07
3.58873e-07
3.57308e-07
3.56306e-07
3.56461e-07
3.55941e-07
3.57525e-07
3.58815e-07
3.591e-07
3.61318e-07
3.59553e-07
3.61896e-07
3.58712e-07
3.61637e-07
3.31703e-07
3.39363e-07
3.4389e-07
3.62081e-07
3.05411e-07
2.94147e-07
2.80238e-07
3.08917e-07
3.20622e-07
3.37996e-07
3.69396e-07
3.80018e-07
3.91742e-07
3.78373e-07
3.63925e-07
3.49924e-07
3.34464e-07
3.29001e-07
3.28157e-07
3.36827e-07
3.49203e-07
3.59042e-07
3.66728e-07
3.69409e-07
3.68109e-07
3.63387e-07
3.57213e-07
3.53505e-07
3.52707e-07
3.5456e-07
3.5792e-07
3.61782e-07
3.64573e-07
3.64711e-07
3.62421e-07
3.59027e-07
3.56212e-07
3.54305e-07
3.54086e-07
3.55812e-07
3.58933e-07
3.61764e-07
3.63608e-07
3.64321e-07
3.64035e-07
3.63149e-07
3.60599e-07
3.59022e-07
3.57398e-07
3.56394e-07
3.56467e-07
3.55924e-07
3.57483e-07
3.5871e-07
3.59057e-07
3.61248e-07
3.59553e-07
3.61905e-07
3.58735e-07
3.61642e-07
3.32215e-07
3.40393e-07
3.46039e-07
3.63006e-07
3.08001e-07
2.95482e-07
2.80509e-07
3.08265e-07
3.18486e-07
3.36556e-07
3.6758e-07
3.79058e-07
3.91714e-07
3.78926e-07
3.65268e-07
3.51074e-07
3.35393e-07
3.2945e-07
3.27964e-07
3.36281e-07
3.48376e-07
3.58316e-07
3.663e-07
3.69287e-07
3.68312e-07
3.63744e-07
3.57587e-07
3.53738e-07
3.52705e-07
3.54374e-07
3.57647e-07
3.61545e-07
3.64469e-07
3.64795e-07
3.62662e-07
3.5933e-07
3.56458e-07
3.54421e-07
3.54054e-07
3.55656e-07
3.58708e-07
3.61556e-07
3.63484e-07
3.64284e-07
3.64098e-07
3.63251e-07
3.60748e-07
3.59177e-07
3.57497e-07
3.56488e-07
3.56479e-07
3.55911e-07
3.5744e-07
3.58604e-07
3.59012e-07
3.61173e-07
3.5955e-07
3.61911e-07
3.58757e-07
3.61646e-07
3.32641e-07
3.41423e-07
3.48128e-07
3.63944e-07
3.10709e-07
2.96912e-07
2.80948e-07
3.07663e-07
3.16371e-07
3.35085e-07
3.6565e-07
3.78004e-07
3.91573e-07
3.79424e-07
3.66608e-07
3.52253e-07
3.36392e-07
3.29963e-07
3.27825e-07
3.35759e-07
3.47536e-07
3.5756e-07
3.65826e-07
3.69125e-07
3.68489e-07
3.64094e-07
3.57973e-07
3.53991e-07
3.52722e-07
3.54199e-07
3.57372e-07
3.61295e-07
3.64348e-07
3.64863e-07
3.62897e-07
3.59639e-07
3.56717e-07
3.54553e-07
3.54036e-07
3.55505e-07
3.58479e-07
3.61337e-07
3.63347e-07
3.64238e-07
3.64156e-07
3.63352e-07
3.60902e-07
3.5934e-07
3.57604e-07
3.5659e-07
3.56496e-07
3.55904e-07
3.57397e-07
3.58497e-07
3.58963e-07
3.61093e-07
3.59544e-07
3.61912e-07
3.58778e-07
3.6165e-07
3.32976e-07
3.42445e-07
3.50133e-07
3.64886e-07
3.13522e-07
2.98434e-07
2.81568e-07
3.07119e-07
3.14297e-07
3.33592e-07
3.63612e-07
3.76856e-07
3.9131e-07
3.79857e-07
3.67932e-07
3.5345e-07
3.37458e-07
3.30541e-07
3.27746e-07
3.3527e-07
3.46691e-07
3.56777e-07
3.65308e-07
3.6892e-07
3.68637e-07
3.64432e-07
3.58368e-07
3.54263e-07
3.5276e-07
3.54036e-07
3.57097e-07
3.61034e-07
3.64208e-07
3.64915e-07
3.63123e-07
3.59951e-07
3.56988e-07
3.54703e-07
3.54033e-07
3.55362e-07
3.58249e-07
3.6111e-07
3.63197e-07
3.6418e-07
3.64206e-07
3.63451e-07
3.6106e-07
3.59508e-07
3.57721e-07
3.567e-07
3.5652e-07
3.55902e-07
3.57356e-07
3.58389e-07
3.58911e-07
3.61008e-07
3.59534e-07
3.61908e-07
3.58798e-07
3.61653e-07
3.33214e-07
3.43451e-07
3.52032e-07
3.65826e-07
3.16423e-07
3.00044e-07
2.82375e-07
3.06642e-07
3.12286e-07
3.32087e-07
3.61475e-07
3.75616e-07
3.90916e-07
3.80216e-07
3.69228e-07
3.54659e-07
3.38586e-07
3.31183e-07
3.27732e-07
3.34819e-07
3.45847e-07
3.55972e-07
3.64745e-07
3.68671e-07
3.68752e-07
3.64754e-07
3.58768e-07
3.54553e-07
3.52819e-07
3.5389e-07
3.56825e-07
3.60762e-07
3.64049e-07
3.64947e-07
3.63339e-07
3.60264e-07
3.57272e-07
3.54871e-07
3.54047e-07
3.5523e-07
3.5802e-07
3.60874e-07
3.63035e-07
3.64111e-07
3.64248e-07
3.63547e-07
3.61222e-07
3.59683e-07
3.57847e-07
3.56818e-07
3.5655e-07
3.55906e-07
3.57316e-07
3.58283e-07
3.58857e-07
3.60918e-07
3.59522e-07
3.619e-07
3.58817e-07
3.61656e-07
3.33355e-07
3.44431e-07
3.53802e-07
3.66756e-07
3.19395e-07
3.01737e-07
2.83378e-07
3.06242e-07
3.10359e-07
3.30583e-07
3.59248e-07
3.74286e-07
3.90384e-07
3.80492e-07
3.70481e-07
3.55868e-07
3.39773e-07
3.3189e-07
3.27787e-07
3.34413e-07
3.45011e-07
3.5515e-07
3.6414e-07
3.68376e-07
3.68829e-07
3.65056e-07
3.59172e-07
3.5486e-07
3.52901e-07
3.5376e-07
3.56558e-07
3.60481e-07
3.63872e-07
3.64959e-07
3.63541e-07
3.60575e-07
3.57565e-07
3.55056e-07
3.54079e-07
3.55109e-07
3.57792e-07
3.60632e-07
3.62861e-07
3.64029e-07
3.64278e-07
3.63638e-07
3.61385e-07
3.59863e-07
3.57983e-07
3.56945e-07
3.56588e-07
3.55919e-07
3.57278e-07
3.58178e-07
3.58801e-07
3.60823e-07
3.59505e-07
3.61886e-07
3.58835e-07
3.61658e-07
3.33395e-07
3.45378e-07
3.55421e-07
3.67667e-07
3.22417e-07
3.03508e-07
2.84582e-07
3.05924e-07
3.08535e-07
3.2909e-07
3.56942e-07
3.7287e-07
3.89708e-07
3.80676e-07
3.7168e-07
3.57068e-07
3.41013e-07
3.32658e-07
3.27916e-07
3.34058e-07
3.44189e-07
3.54316e-07
3.63495e-07
3.68035e-07
3.68865e-07
3.65333e-07
3.59574e-07
3.55182e-07
3.53006e-07
3.53651e-07
3.56297e-07
3.60194e-07
3.63676e-07
3.64949e-07
3.63728e-07
3.60883e-07
3.57867e-07
3.55259e-07
3.5413e-07
3.55003e-07
3.5757e-07
3.60384e-07
3.62674e-07
3.63933e-07
3.64298e-07
3.63722e-07
3.61549e-07
3.60047e-07
3.58128e-07
3.57081e-07
3.56635e-07
3.55939e-07
3.57244e-07
3.58077e-07
3.58743e-07
3.60723e-07
3.59485e-07
3.61866e-07
3.58851e-07
3.61658e-07
3.33337e-07
3.46282e-07
3.5687e-07
3.68551e-07
3.25468e-07
3.05349e-07
2.85989e-07
3.05696e-07
3.06834e-07
3.2762e-07
3.54571e-07
3.71372e-07
3.88883e-07
3.80763e-07
3.7281e-07
3.58249e-07
3.42298e-07
3.33487e-07
3.28123e-07
3.33758e-07
3.43389e-07
3.53476e-07
3.62811e-07
3.67647e-07
3.68859e-07
3.65582e-07
3.59973e-07
3.55517e-07
3.53134e-07
3.53563e-07
3.56047e-07
3.59901e-07
3.63462e-07
3.64916e-07
3.63897e-07
3.61183e-07
3.58176e-07
3.55479e-07
3.54201e-07
3.54912e-07
3.57354e-07
3.60133e-07
3.62475e-07
3.63823e-07
3.64303e-07
3.63799e-07
3.61712e-07
3.60234e-07
3.58282e-07
3.57225e-07
3.56692e-07
3.55968e-07
3.57213e-07
3.57978e-07
3.58683e-07
3.6062e-07
3.59461e-07
3.61841e-07
3.58866e-07
3.61658e-07
3.33182e-07
3.47135e-07
3.5813e-07
3.69399e-07
3.28526e-07
3.07254e-07
2.87599e-07
3.05563e-07
3.05276e-07
3.26184e-07
3.52147e-07
3.69799e-07
3.87906e-07
3.80744e-07
3.73859e-07
3.594e-07
3.43621e-07
3.34371e-07
3.2841e-07
3.33521e-07
3.42617e-07
3.52635e-07
3.62091e-07
3.67212e-07
3.68806e-07
3.65798e-07
3.60363e-07
3.55862e-07
3.53285e-07
3.53497e-07
3.55808e-07
3.59604e-07
3.6323e-07
3.64858e-07
3.64045e-07
3.61475e-07
3.5849e-07
3.55715e-07
3.54294e-07
3.5484e-07
3.57146e-07
3.5988e-07
3.62265e-07
3.63698e-07
3.64294e-07
3.63867e-07
3.61873e-07
3.60424e-07
3.58446e-07
3.57378e-07
3.56758e-07
3.56008e-07
3.57187e-07
3.57884e-07
3.58623e-07
3.60513e-07
3.59433e-07
3.61809e-07
3.58879e-07
3.61657e-07
3.32932e-07
3.4793e-07
3.59183e-07
3.70204e-07
3.31566e-07
3.09213e-07
2.89408e-07
3.0553e-07
3.0388e-07
3.24793e-07
3.49685e-07
3.68156e-07
3.86774e-07
3.80615e-07
3.74814e-07
3.60511e-07
3.44975e-07
3.35307e-07
3.28779e-07
3.33348e-07
3.41882e-07
3.518e-07
3.61339e-07
3.66732e-07
3.68704e-07
3.65979e-07
3.60742e-07
3.56215e-07
3.53458e-07
3.53455e-07
3.55583e-07
3.59307e-07
3.62982e-07
3.64776e-07
3.64171e-07
3.61754e-07
3.58806e-07
3.55968e-07
3.54409e-07
3.54788e-07
3.5695e-07
3.59626e-07
3.62044e-07
3.63559e-07
3.6427e-07
3.63923e-07
3.62031e-07
3.60614e-07
3.58618e-07
3.57541e-07
3.56835e-07
3.56058e-07
3.57167e-07
3.57796e-07
3.58562e-07
3.60403e-07
3.59402e-07
3.61771e-07
3.58889e-07
3.61654e-07
3.32592e-07
3.48657e-07
3.60014e-07
3.70956e-07
3.34564e-07
3.11219e-07
2.91413e-07
3.05601e-07
3.02662e-07
3.2346e-07
3.47203e-07
3.66454e-07
3.85488e-07
3.80372e-07
3.75663e-07
3.61572e-07
3.46348e-07
3.3629e-07
3.29231e-07
3.33245e-07
3.41188e-07
3.50976e-07
3.6056e-07
3.66208e-07
3.68552e-07
3.66121e-07
3.61104e-07
3.56572e-07
3.53652e-07
3.53439e-07
3.55375e-07
3.59011e-07
3.62718e-07
3.64669e-07
3.64272e-07
3.62019e-07
3.59123e-07
3.56235e-07
3.54546e-07
3.54758e-07
3.56768e-07
3.59375e-07
3.61814e-07
3.63404e-07
3.64228e-07
3.63967e-07
3.62182e-07
3.60805e-07
3.58798e-07
3.57712e-07
3.56924e-07
3.56119e-07
3.57153e-07
3.57714e-07
3.58502e-07
3.6029e-07
3.59367e-07
3.61726e-07
3.58898e-07
3.61649e-07
3.32168e-07
3.4931e-07
3.60612e-07
3.71649e-07
3.37492e-07
3.13259e-07
2.93604e-07
3.05776e-07
3.01638e-07
3.22194e-07
3.44716e-07
3.64699e-07
3.8405e-07
3.80011e-07
3.76394e-07
3.62572e-07
3.47732e-07
3.37314e-07
3.29764e-07
3.33214e-07
3.40543e-07
3.50171e-07
3.59757e-07
3.65642e-07
3.68349e-07
3.6622e-07
3.61448e-07
3.56931e-07
3.53867e-07
3.53447e-07
3.55184e-07
3.58718e-07
3.62441e-07
3.64537e-07
3.64348e-07
3.62267e-07
3.59438e-07
3.56515e-07
3.54705e-07
3.5475e-07
3.56601e-07
3.59127e-07
3.61576e-07
3.63235e-07
3.64168e-07
3.63997e-07
3.62326e-07
3.60994e-07
3.58985e-07
3.57891e-07
3.57024e-07
3.56192e-07
3.57147e-07
3.5764e-07
3.58442e-07
3.60176e-07
3.59328e-07
3.61676e-07
3.58904e-07
3.61643e-07
3.31665e-07
3.49881e-07
3.60966e-07
3.72272e-07
3.40326e-07
3.15326e-07
2.95971e-07
3.06058e-07
3.00822e-07
3.21007e-07
3.42245e-07
3.62902e-07
3.82463e-07
3.79531e-07
3.76998e-07
3.63501e-07
3.49116e-07
3.3837e-07
3.30379e-07
3.33257e-07
3.39953e-07
3.49391e-07
3.58935e-07
3.65037e-07
3.68094e-07
3.66275e-07
3.61768e-07
3.57288e-07
3.54099e-07
3.53481e-07
3.55013e-07
3.58431e-07
3.62152e-07
3.6438e-07
3.64396e-07
3.62495e-07
3.59749e-07
3.56806e-07
3.54885e-07
3.54767e-07
3.56452e-07
3.58886e-07
3.61332e-07
3.63051e-07
3.6409e-07
3.64012e-07
3.62461e-07
3.6118e-07
3.59178e-07
3.58079e-07
3.57136e-07
3.56277e-07
3.57148e-07
3.57575e-07
3.58385e-07
3.60062e-07
3.59287e-07
3.61619e-07
3.58908e-07
3.61636e-07
3.31092e-07
3.50365e-07
3.61068e-07
3.72821e-07
3.43037e-07
3.17406e-07
2.98498e-07
3.06445e-07
3.00226e-07
3.19907e-07
3.39807e-07
3.61074e-07
3.80734e-07
3.78931e-07
3.77463e-07
3.6435e-07
3.50489e-07
3.39452e-07
3.31072e-07
3.33375e-07
3.39422e-07
3.48641e-07
3.581e-07
3.64396e-07
3.67787e-07
3.66282e-07
3.6206e-07
3.57639e-07
3.54349e-07
3.5354e-07
3.54864e-07
3.58152e-07
3.61852e-07
3.64199e-07
3.64415e-07
3.62701e-07
3.60052e-07
3.57107e-07
3.55087e-07
3.54808e-07
3.56322e-07
3.58653e-07
3.61083e-07
3.62854e-07
3.63993e-07
3.6401e-07
3.62585e-07
3.6136e-07
3.59376e-07
3.58274e-07
3.5726e-07
3.56376e-07
3.57159e-07
3.57518e-07
3.5833e-07
3.59947e-07
3.59242e-07
3.61555e-07
3.5891e-07
3.61626e-07
3.30455e-07
3.50755e-07
3.60916e-07
3.73287e-07
3.456e-07
3.1949e-07
3.01169e-07
3.06936e-07
2.9986e-07
3.18903e-07
3.37422e-07
3.59226e-07
3.78869e-07
3.78213e-07
3.77782e-07
3.6511e-07
3.51839e-07
3.40552e-07
3.31839e-07
3.33568e-07
3.38957e-07
3.47927e-07
3.57257e-07
3.63723e-07
3.67429e-07
3.66241e-07
3.62322e-07
3.57981e-07
3.54612e-07
3.53624e-07
3.54738e-07
3.57883e-07
3.61544e-07
3.63994e-07
3.64406e-07
3.62882e-07
3.60345e-07
3.57414e-07
3.5531e-07
3.54875e-07
3.56215e-07
3.58431e-07
3.60831e-07
3.62643e-07
3.63876e-07
3.6399e-07
3.62695e-07
3.61535e-07
3.59577e-07
3.58476e-07
3.57397e-07
3.56487e-07
3.5718e-07
3.57473e-07
3.58278e-07
3.59834e-07
3.59196e-07
3.61486e-07
3.58909e-07
3.61614e-07
3.29765e-07
3.51046e-07
3.60508e-07
3.73663e-07
3.47988e-07
3.21564e-07
3.03964e-07
3.07527e-07
2.99733e-07
3.18003e-07
3.35109e-07
3.57371e-07
3.76878e-07
3.77379e-07
3.77948e-07
3.65772e-07
3.53154e-07
3.41658e-07
3.32677e-07
3.33835e-07
3.38562e-07
3.47256e-07
3.56412e-07
3.63023e-07
3.67021e-07
3.66149e-07
3.6255e-07
3.5831e-07
3.54886e-07
3.53731e-07
3.54635e-07
3.57627e-07
3.61231e-07
3.63768e-07
3.64367e-07
3.63037e-07
3.60625e-07
3.57726e-07
3.55551e-07
3.54968e-07
3.5613e-07
3.58223e-07
3.60579e-07
3.62422e-07
3.63741e-07
3.63951e-07
3.62791e-07
3.61701e-07
3.5978e-07
3.58684e-07
3.57545e-07
3.56612e-07
3.57212e-07
3.57439e-07
3.5823e-07
3.59722e-07
3.59148e-07
3.61412e-07
3.58906e-07
3.616e-07
3.2903e-07
3.51235e-07
3.59846e-07
3.73946e-07
3.50178e-07
3.23619e-07
3.06861e-07
3.08213e-07
2.99847e-07
3.17213e-07
3.32889e-07
3.5552e-07
3.74773e-07
3.76434e-07
3.77954e-07
3.66329e-07
3.54422e-07
3.42764e-07
3.3358e-07
3.34174e-07
3.38239e-07
3.46632e-07
3.55572e-07
3.623e-07
3.66564e-07
3.66007e-07
3.6274e-07
3.58622e-07
3.55169e-07
3.53861e-07
3.54556e-07
3.57385e-07
3.60915e-07
3.63522e-07
3.64298e-07
3.63164e-07
3.6089e-07
3.5804e-07
3.55809e-07
3.55087e-07
3.56071e-07
3.5803e-07
3.60329e-07
3.6219e-07
3.63586e-07
3.63892e-07
3.62871e-07
3.61856e-07
3.59984e-07
3.58896e-07
3.57705e-07
3.5675e-07
3.57255e-07
3.57417e-07
3.58188e-07
3.59614e-07
3.59098e-07
3.61332e-07
3.589e-07
3.61584e-07
3.2826e-07
3.51318e-07
3.58938e-07
3.74128e-07
3.52145e-07
3.25641e-07
3.09834e-07
3.08989e-07
3.00205e-07
3.16538e-07
3.30781e-07
3.53685e-07
3.72567e-07
3.75384e-07
3.77797e-07
3.66776e-07
3.55632e-07
3.43857e-07
3.3454e-07
3.34581e-07
3.37992e-07
3.46061e-07
3.54742e-07
3.61559e-07
3.66061e-07
3.65815e-07
3.62891e-07
3.58913e-07
3.55457e-07
3.54011e-07
3.54503e-07
3.57161e-07
3.60597e-07
3.63257e-07
3.64199e-07
3.63261e-07
3.61136e-07
3.58352e-07
3.56083e-07
3.55231e-07
3.56038e-07
3.57856e-07
3.60083e-07
3.61951e-07
3.63413e-07
3.63813e-07
3.62932e-07
3.62e-07
3.60185e-07
3.59112e-07
3.57876e-07
3.56901e-07
3.57311e-07
3.57408e-07
3.58152e-07
3.59509e-07
3.59048e-07
3.61248e-07
3.58893e-07
3.61565e-07
3.27464e-07
3.51295e-07
3.57793e-07
3.74207e-07
3.53868e-07
3.2762e-07
3.12858e-07
3.09846e-07
3.00806e-07
3.15982e-07
3.28804e-07
3.51881e-07
3.70274e-07
3.74235e-07
3.77475e-07
3.67107e-07
3.56771e-07
3.44928e-07
3.3555e-07
3.35053e-07
3.37823e-07
3.45545e-07
3.53929e-07
3.60807e-07
3.65515e-07
3.65573e-07
3.63e-07
3.5918e-07
3.55746e-07
3.54179e-07
3.54474e-07
3.56954e-07
3.60281e-07
3.62976e-07
3.64072e-07
3.63327e-07
3.61362e-07
3.58659e-07
3.56369e-07
3.55399e-07
3.56031e-07
3.57702e-07
3.59845e-07
3.61705e-07
3.63222e-07
3.63713e-07
3.62973e-07
3.62129e-07
3.60383e-07
3.59329e-07
3.58058e-07
3.57064e-07
3.57379e-07
3.57413e-07
3.58123e-07
3.5941e-07
3.58998e-07
3.6116e-07
3.58884e-07
3.61544e-07
3.26654e-07
3.51163e-07
3.56424e-07
3.74179e-07
3.55329e-07
3.29544e-07
3.15902e-07
3.10777e-07
3.01646e-07
3.15546e-07
3.26976e-07
3.50118e-07
3.67912e-07
3.72996e-07
3.76986e-07
3.67318e-07
3.57828e-07
3.45968e-07
3.36601e-07
3.35584e-07
3.37732e-07
3.45089e-07
3.53138e-07
3.60049e-07
3.64931e-07
3.65282e-07
3.63064e-07
3.59419e-07
3.56033e-07
3.54363e-07
3.54469e-07
3.56767e-07
3.5997e-07
3.62681e-07
3.63916e-07
3.63362e-07
3.61563e-07
3.58959e-07
3.56665e-07
3.55591e-07
3.56052e-07
3.5757e-07
3.59616e-07
3.61456e-07
3.63016e-07
3.63593e-07
3.62994e-07
3.62242e-07
3.60575e-07
3.59546e-07
3.58248e-07
3.57241e-07
3.57459e-07
3.57432e-07
3.58102e-07
3.59317e-07
3.5895e-07
3.61069e-07
3.58874e-07
3.61521e-07
3.25841e-07
3.50923e-07
3.54849e-07
3.74042e-07
3.56511e-07
3.31403e-07
3.18937e-07
3.11772e-07
3.02716e-07
3.15231e-07
3.25312e-07
3.48408e-07
3.65498e-07
3.71677e-07
3.76333e-07
3.67408e-07
3.58792e-07
3.46965e-07
3.37683e-07
3.36167e-07
3.37719e-07
3.44695e-07
3.52375e-07
3.59291e-07
3.64311e-07
3.64945e-07
3.63083e-07
3.59628e-07
3.56315e-07
3.5456e-07
3.54487e-07
3.56602e-07
3.59666e-07
3.62376e-07
3.63734e-07
3.63364e-07
3.6174e-07
3.59248e-07
3.56968e-07
3.55804e-07
3.56101e-07
3.57462e-07
3.59399e-07
3.61206e-07
3.62795e-07
3.63452e-07
3.62992e-07
3.62337e-07
3.60758e-07
3.59761e-07
3.58446e-07
3.57428e-07
3.57553e-07
3.57466e-07
3.5809e-07
3.59232e-07
3.58903e-07
3.60976e-07
3.58862e-07
3.61495e-07
3.25033e-07
3.50577e-07
3.53088e-07
3.73794e-07
3.57401e-07
3.33188e-07
3.21932e-07
3.12821e-07
3.04005e-07
3.15035e-07
3.2383e-07
3.46763e-07
3.63051e-07
3.70289e-07
3.75519e-07
3.67376e-07
3.59654e-07
3.4791e-07
3.38787e-07
3.36796e-07
3.37782e-07
3.44365e-07
3.51646e-07
3.58538e-07
3.63661e-07
3.64563e-07
3.63057e-07
3.59802e-07
3.56587e-07
3.54766e-07
3.54528e-07
3.56458e-07
3.59371e-07
3.62062e-07
3.63528e-07
3.63333e-07
3.61888e-07
3.59523e-07
3.57275e-07
3.56036e-07
3.56177e-07
3.57379e-07
3.59198e-07
3.60957e-07
3.62563e-07
3.63292e-07
3.62967e-07
3.62412e-07
3.60931e-07
3.59973e-07
3.58651e-07
3.57626e-07
3.5766e-07
3.57516e-07
3.58088e-07
3.59155e-07
3.58859e-07
3.60882e-07
3.5885e-07
3.61467e-07
3.24242e-07
3.50127e-07
3.51165e-07
3.73435e-07
3.57992e-07
3.34889e-07
3.24854e-07
3.13913e-07
3.05499e-07
3.14955e-07
3.2254e-07
3.45193e-07
3.60591e-07
3.68844e-07
3.74549e-07
3.67222e-07
3.60404e-07
3.48794e-07
3.39903e-07
3.37463e-07
3.37921e-07
3.44099e-07
3.50955e-07
3.57797e-07
3.62985e-07
3.64141e-07
3.62983e-07
3.59941e-07
3.56847e-07
3.54979e-07
3.5459e-07
3.56336e-07
3.59087e-07
3.61743e-07
3.63298e-07
3.63271e-07
3.62007e-07
3.5978e-07
3.57582e-07
3.56284e-07
3.5628e-07
3.57324e-07
3.59014e-07
3.60713e-07
3.62321e-07
3.63114e-07
3.62919e-07
3.62467e-07
3.61091e-07
3.60178e-07
3.5886e-07
3.57834e-07
3.57779e-07
3.57581e-07
3.58096e-07
3.59088e-07
3.58819e-07
3.60787e-07
3.58838e-07
3.61436e-07
3.23479e-07
3.49578e-07
3.49105e-07
3.72965e-07
3.58277e-07
3.36499e-07
3.27674e-07
3.15037e-07
3.07181e-07
3.14986e-07
3.21455e-07
3.43707e-07
3.58138e-07
3.67355e-07
3.7343e-07
3.6695e-07
3.61035e-07
3.49609e-07
3.41018e-07
3.3816e-07
3.3813e-07
3.43897e-07
3.50308e-07
3.57074e-07
3.62289e-07
3.63681e-07
3.62864e-07
3.60042e-07
3.5709e-07
3.55195e-07
3.54671e-07
3.56237e-07
3.58817e-07
3.61422e-07
3.63048e-07
3.63177e-07
3.62096e-07
3.60017e-07
3.57886e-07
3.56547e-07
3.56408e-07
3.57295e-07
3.58851e-07
3.60476e-07
3.62071e-07
3.62918e-07
3.62848e-07
3.62499e-07
3.61235e-07
3.60375e-07