/*--------------------------------*- C++ -*----------------------------------*\
| =========                 |                                                 |
| \\      /  F ield         | foam-extend: Open Source CFD                    |
|  \\    /   O peration     | Version:     4.0                                |
|   \\  /    A nd           | Web:         http://www.foam-extend.org         |
|    \\/     M anipulation  |                                                 |
\*---------------------------------------------------------------------------*/
FoamFile
{
    version     2.0;
    format      ascii;
    class       surfaceScalarField;
    location    "22";
    object      phi;
}
// * * * * * * * * * * * * * * * * * * * * * * * * * * * * * * * * * * * * * //

dimensions      [0 3 -1 0 0 0 0];

internalField   nonuniform List<scalar> 
13744
(
-4.45837e-28
-6.37695e-25
-6.053e-29
-3.8516e-28
6.81415e-30
-6.80698e-29
1.99259e-30
4.06946e-30
3.8364e-30
-2.56798e-30
2.92875e-30
4.29853e-31
1.97832e-30
8.5278e-31
8.60048e-31
1.44106e-30
-3.98736e-31
2.04572e-30
-1.30447e-30
1.92388e-30
-1.93331e-30
1.53299e-30
-1.99966e-30
7.46126e-31
-1.74598e-30
3.05835e-31
-1.24439e-30
-1.2551e-31
-7.14145e-31
-5.40132e-31
-1.74993e-31
-8.91523e-31
2.562e-31
-8.01804e-31
4.99627e-31
-4.57193e-31
4.85713e-31
-1.68107e-31
2.84717e-31
-2.58094e-32
-1.47026e-32
1.95243e-31
-3.64729e-31
4.87585e-31
-7.72122e-31
6.29127e-31
-1.21232e-30
5.4864e-31
-1.62948e-30
4.46297e-31
-1.96759e-30
4.20908e-31
-2.19533e-30
3.53212e-31
-2.29326e-30
1.79955e-31
-2.23899e-30
1.69851e-32
-1.98792e-30
-8.80388e-32
-1.49814e-30
-2.3511e-31
-8.04954e-31
-4.40317e-31
-5.1824e-32
-5.78927e-31
5.93423e-31
-6.26063e-31
1.0162e-30
-6.70772e-31
1.11369e-30
-6.64796e-31
7.46097e-31
-4.40855e-31
-1.62959e-31
-3.73583e-32
-1.48196e-30
3.33732e-31
-2.90592e-30
6.35526e-31
-4.12395e-30
1.01055e-30
-4.90008e-30
1.37432e-30
-4.99409e-30
1.42759e-30
-4.19631e-30
1.11477e-30
-2.49716e-30
6.95067e-31
-2.50569e-31
3.09857e-31
2.03306e-30
-2.19627e-31
3.86248e-30
-8.37044e-31
4.90015e-30
-1.28727e-30
4.80672e-30
-1.2665e-30
3.50071e-30
-1.12007e-30
1.25555e-30
-8.39751e-31
-1.20642e-30
-6.73317e-31
-3.08644e-30
-2.78498e-31
-3.89328e-30
-2.24773e-31
-3.20125e-30
-2.20124e-31
-1.6544e-30
-3.02638e-31
5.15856e-31
-4.44664e-32
1.27686e-30
7.56742e-31
2.32148e-30
-7.30386e-28
-6.36964e-25
-2.09995e-28
-9.03686e-28
2.2501e-29
-3.01662e-28
8.71414e-31
2.41096e-29
1.30946e-29
-1.70838e-29
7.32878e-30
3.77728e-30
7.11506e-30
-6.99137e-31
2.25824e-30
5.87196e-30
-1.0554e-31
5.56784e-30
-3.45645e-30
7.19779e-30
-5.20976e-30
5.18877e-30
-6.24581e-30
3.77948e-30
-5.32782e-30
1.67667e-30
-3.89376e-30
2.20451e-31
-2.39739e-30
-1.6292e-30
-1.19774e-30
-2.64623e-30
1.99689e-31
-2.67296e-30
1.27182e-30
-1.82606e-30
1.42596e-30
-1.07092e-30
6.66541e-31
-3.50584e-31
-2.48288e-31
5.91423e-31
-1.07898e-30
1.63643e-30
-2.17109e-30
2.1617e-30
-3.67341e-30
2.12586e-30
-5.1236e-30
1.96792e-30
-6.13246e-30
1.85897e-30
-6.76786e-30
1.48447e-30
-7.15927e-30
7.77291e-31
-7.10456e-30
6.84256e-32
-6.32316e-30
-4.95623e-31
-4.78507e-30
-1.1192e-30
-2.69682e-30
-1.7973e-30
-4.06992e-31
-2.20519e-30
1.60254e-30
-2.23669e-30
2.86392e-30
-2.06736e-30
3.08597e-30
-1.65251e-30
2.02095e-30
-7.45244e-31
-5.94792e-31
4.8061e-31
-4.58533e-30
1.54264e-30
-8.96474e-30
2.29009e-30
-1.25066e-29
2.92928e-30
-1.45232e-29
3.24814e-30
-1.46641e-29
2.79424e-30
-1.23156e-29
1.62541e-30
-7.12701e-30
4.08605e-31
-8.96557e-32
-5.5214e-31
6.82426e-30
-1.48787e-30
1.20441e-29
-2.23825e-30
1.48783e-29
-2.39327e-30
1.4552e-29
-1.6223e-30
1.05295e-29
-9.50172e-31
3.48243e-30
-3.71176e-31
-4.09819e-30
-6.67354e-31
-9.7315e-30
-8.09621e-31
-1.19173e-29
-2.09247e-30
-9.92984e-30
-2.91096e-30
-5.10685e-30
-3.14369e-30
1.23201e-30
-1.15507e-30
3.78131e-30
2.48511e-30
9.12495e-30
-1.05969e-27
-6.35901e-25
-3.2812e-28
-1.63075e-27
3.6115e-29
-6.66455e-28
-3.07232e-30
6.15159e-29
2.27807e-29
-4.66525e-29
1.1245e-29
1.04633e-29
1.28856e-29
-6.8568e-30
3.72199e-30
1.26338e-29
7.83654e-31
9.02271e-30
-5.31578e-30
1.52817e-29
-8.27153e-30
1.02985e-29
-1.07273e-29
9.17944e-30
-9.13737e-30
4.33441e-30
-6.79746e-30
1.60641e-30
-4.38611e-30
-2.80571e-30
-2.70533e-30
-4.81796e-30
-2.64773e-31
-5.33352e-30
1.85006e-30
-3.95913e-30
2.29956e-30
-2.78919e-30
9.18696e-31
-1.18304e-30
-6.265e-31
9.49903e-31
-1.84243e-30
3.27575e-30
-3.57709e-30
4.48729e-30
-6.26563e-30
4.68105e-30
-8.89584e-30
4.56533e-30
-1.0625e-29
4.34121e-30
-1.16869e-29
3.38648e-30
-1.24461e-29
1.70232e-30
-1.24583e-29
-3.46169e-32
-1.11353e-29
-1.47559e-30
-8.49472e-30
-2.87275e-30
-4.95333e-30
-4.12675e-30
-1.03711e-30
-4.67472e-30
2.44183e-30
-4.33376e-30
4.58858e-30
-3.39701e-30
4.93617e-30
-1.92162e-30
3.20656e-30
1.89786e-31
-1.09284e-30
2.38941e-30
-7.85588e-30
3.86968e-30
-1.53495e-29
4.43734e-30
-2.12462e-29
4.39532e-30
-2.44052e-29
3.4377e-30
-2.45429e-29
1.29613e-30
-2.06256e-29
-1.39362e-30
-1.17738e-29
-3.25492e-30
3.95814e-31
-3.96273e-30
1.21768e-29
-3.84836e-30
2.08224e-29
-2.82366e-30
2.5429e-29
-5.55593e-31
2.48785e-29
2.46581e-30
1.80059e-29
4.11524e-30
5.81676e-30
4.09986e-30
-7.22462e-30
1.5068e-30
-1.6819e-29
-1.82238e-30
-2.04264e-29
-6.99781e-30
-1.72009e-29
-1.04282e-29
-8.95708e-30
-1.04809e-29
1.65535e-30
-4.57726e-30
6.23323e-30
4.85513e-30
2.04556e-29
-1.47394e-27
-6.34423e-25
-4.51034e-28
-2.64663e-27
4.47767e-29
-1.16229e-27
-8.60497e-30
1.12955e-28
3.20276e-29
-9.23535e-29
1.51212e-29
2.01391e-29
1.88764e-29
-1.79536e-29
5.43936e-30
2.15751e-29
1.97357e-30
1.23397e-29
-6.95244e-30
2.62805e-29
-1.12799e-29
1.69671e-29
-1.5359e-29
1.70265e-29
-1.31874e-29
8.35351e-30
-9.96815e-30
4.15566e-30
-6.68448e-30
-3.98629e-30
-4.57051e-30
-7.42688e-30
-1.0424e-30
-8.86464e-30
2.23207e-30
-6.90459e-30
3.05691e-30
-5.34432e-30
1.05864e-30
-2.57321e-30
-1.11643e-30
1.20098e-30
-2.68738e-30
5.38329e-30
-5.06332e-30
7.64283e-30
-9.00697e-30
8.25664e-30
-1.29106e-29
8.25288e-30
-1.54273e-29
7.87068e-30
-1.69676e-29
6.06164e-30
-1.81531e-29
2.93903e-30
-1.82803e-29
-3.36217e-31
-1.64291e-29
-3.08723e-30
-1.26646e-29
-5.5557e-30
-7.61488e-30
-7.47078e-30
-1.98203e-30
-7.98252e-30
3.06484e-30
-6.8581e-30
6.16919e-30
-4.58084e-30
6.69612e-30
-1.39891e-30
4.35565e-30
2.4448e-30
-1.61384e-30
5.76441e-30
-1.12265e-29
7.30414e-30
-2.19591e-29
6.92466e-30
-3.02899e-29
5.16272e-30
-3.46161e-29
1.68039e-30
-3.47757e-29
-3.34578e-30
-2.92843e-29
-8.23925e-30
-1.66358e-29
-1.05086e-29
9.22305e-31
-9.92118e-30
1.78187e-29
-7.08024e-30
3.00597e-29
-2.24428e-30
3.65627e-29
4.66121e-30
3.58679e-29
1.14966e-29
2.60812e-29
1.45602e-29
8.51476e-30
1.28658e-29
-1.03024e-29
5.90794e-30
-2.41306e-29
-3.50373e-30
-2.93626e-29
-1.52485e-29
-2.4998e-29
-2.32202e-29
-1.32944e-29
-2.27104e-29
1.76732e-30
-1.06718e-29
8.56583e-30
7.78826e-30
3.63789e-29
-1.89888e-27
-6.32518e-25
-5.91277e-28
-3.94463e-27
4.79809e-29
-1.80088e-27
-1.59142e-29
1.74927e-28
4.07027e-29
-1.55255e-28
1.88911e-29
3.23708e-29
2.50505e-29
-3.43913e-29
7.40365e-30
3.24759e-29
3.45979e-30
1.53552e-29
-8.36816e-30
4.0158e-29
-1.42273e-29
2.52e-29
-2.0123e-29
2.74009e-29
-1.74691e-29
1.38584e-29
-1.34136e-29
8.01744e-30
-9.30509e-30
-5.05843e-30
-6.80017e-30
-1.04039e-29
-2.14325e-30
-1.32302e-29
2.39516e-30
-1.06497e-29
3.67049e-30
-8.76038e-30
1.06738e-30
-4.57351e-30
-1.72938e-30
1.29423e-30
-3.62634e-30
7.9347e-30
-6.64307e-30
1.16266e-29
-1.19031e-29
1.28658e-29
-1.71646e-29
1.30616e-29
-2.05341e-29
1.24979e-29
-2.2608e-29
9.56713e-30
-2.42833e-29
4.53516e-30
-2.45808e-29
-8.05588e-31
-2.2226e-29
-5.31907e-30
-1.73287e-29
-9.17599e-30
-1.07282e-29
-1.1849e-29
-3.29952e-30
-1.21474e-29
3.41157e-30
-9.82153e-30
7.55861e-30
-5.62012e-30
8.34103e-30
-6.3631e-32
5.46551e-30
6.06891e-30
-2.13695e-30
1.06635e-29
-1.46469e-29
1.18784e-29
-2.87208e-29
9.74174e-30
-3.95689e-29
5.17476e-30
-4.51162e-29
-2.14311e-30
-4.53584e-29
-1.13331e-29
-3.83247e-29
-1.91754e-29
-2.17921e-29
-2.16208e-29
1.36481e-30
-1.86482e-29
2.3608e-29
-1.13296e-29
3.96374e-29
-5.40548e-31
4.82086e-29
1.33591e-29
4.75054e-29
2.57125e-29
3.48054e-29
3.07126e-29
1.16887e-29
2.62607e-29
-1.3182e-29
1.28165e-29
-3.15257e-29
-5.68862e-30
-3.86278e-29
-2.68354e-29
-3.32852e-29
-4.14443e-29
-1.81342e-29
-4.00974e-29
1.52392e-30
-1.97177e-29
1.07339e-29
1.11568e-29
5.69191e-29
-2.32051e-27
-6.30189e-25
-7.42299e-28
-5.51064e-27
4.52065e-29
-2.58685e-27
-2.52239e-29
2.43647e-28
4.86507e-29
-2.3649e-28
2.24801e-29
4.66501e-29
3.13678e-29
-5.65961e-29
9.61016e-30
4.50824e-29
5.24697e-30
1.78808e-29
-9.55107e-30
5.68529e-29
-1.70976e-29
3.49941e-29
-2.5001e-29
4.0381e-29
-2.19757e-29
2.09761e-29
-1.71427e-29
1.33456e-29
-1.22655e-29
-5.89694e-30
-9.41261e-30
-1.36638e-29
-3.58968e-30
-1.8382e-29
2.30984e-30
-1.51775e-29
4.10965e-30
-1.30599e-29
9.21839e-31
-7.23563e-30
-2.48112e-30
1.176e-30
-4.67287e-30
1.0897e-29
-8.32787e-30
1.64276e-29
-1.49597e-29
1.85162e-29
-2.16575e-29
1.90213e-29
-2.59445e-29
1.82756e-29
-2.86109e-29
1.39664e-29
-3.08451e-29
6.54941e-30
-3.13767e-29
-1.39825e-30
-2.85538e-29
-8.14605e-30
-2.25269e-29
-1.37311e-29
-1.43441e-29
-1.72776e-29
-5.0484e-30
-1.71951e-29
3.42277e-30
-1.32517e-29
8.70884e-30
-6.5371e-30
9.84252e-30
2.08044e-30
6.52954e-30
1.10858e-29
-2.64546e-30
1.71267e-29
-1.8075e-29
1.76238e-29
-3.55742e-29
1.2895e-29
-4.90243e-29
4.40276e-30
-5.5868e-29
-8.11679e-30
-5.62831e-29
-2.28274e-29
-4.77719e-29
-3.44315e-29
-2.7306e-29
-3.68468e-29
1.62553e-30
-3.03803e-29
2.94354e-29
-1.67818e-29
4.94649e-29
2.1923e-30
6.03165e-29
2.55763e-29
5.97906e-29
4.52953e-29
4.42332e-29
5.28631e-29
1.54432e-29
4.46174e-29
-1.57327e-29
2.25477e-29
-3.88845e-29
-8.15182e-30
-4.81426e-29
-4.16803e-29
-4.20404e-29
-6.52016e-29
-2.3503e-29
-6.28809e-29
8.73317e-31
-3.20084e-29
1.26892e-29
1.48019e-29
8.20565e-29
-2.7449e-27
-6.27435e-25
-9.0121e-28
-7.33952e-27
3.59089e-29
-3.52136e-27
-3.67835e-29
3.15047e-28
5.56963e-29
-3.37254e-28
2.58029e-29
6.23927e-29
3.77818e-29
-8.50195e-29
1.20521e-29
5.9104e-29
7.34245e-30
1.97016e-29
-1.04833e-29
7.62766e-29
-1.98699e-29
4.63332e-29
-2.99727e-29
5.60389e-29
-2.67001e-29
2.98347e-29
-2.11641e-29
2.02989e-29
-1.55852e-29
-6.36431e-30
-1.24317e-29
-1.71059e-29
-5.41064e-30
-2.42593e-29
1.94188e-30
-2.04641e-29
4.34047e-30
-1.82619e-29
5.9528e-31
-1.06104e-29
-3.39093e-30
7.89374e-31
-5.84224e-30
1.42296e-29
-1.01294e-29
2.20261e-29
-1.81826e-29
2.52097e-29
-2.63906e-29
2.61592e-29
-3.16595e-29
2.52568e-29
-3.49812e-29
1.93275e-29
-3.78496e-29
9.04928e-30
-3.86877e-29
-2.05833e-30
-3.54437e-29
-1.15316e-29
-2.83025e-29
-1.92096e-29
-1.85165e-29
-2.37695e-29
-7.29024e-30
-2.31557e-29
3.03686e-30
-1.71875e-29
9.56888e-30
-7.3703e-30
1.11685e-29
5.01056e-30
7.53802e-30
1.75006e-29
-3.12475e-30
2.51816e-29
-2.14713e-29
2.45721e-29
-4.24624e-29
1.64045e-29
-5.85992e-29
2.84118e-30
-6.68323e-29
-1.6296e-29
-6.75382e-29
-3.79601e-29
-5.76472e-29
-5.42139e-29
-3.32352e-29
-5.64366e-29
1.61579e-30
-4.53721e-29
3.52016e-29
-2.366e-29
5.94601e-29
5.80817e-30
7.28419e-29
4.12951e-29
7.27278e-29
7.03777e-29
5.44226e-29
8.12744e-29
1.9883e-29
6.8273e-29
-1.78261e-29
3.54524e-29
-4.60904e-29
-1.06101e-29
-5.78306e-29
-5.96408e-29
-5.12444e-29
-9.45415e-29
-2.94312e-29
-9.12791e-29
-2.41586e-31
-4.78539e-29
1.43801e-29
1.85309e-29
1.11724e-28
-3.1741e-27
-6.2425e-25
-1.06835e-27
-9.42785e-27
1.95245e-29
-4.60536e-27
-5.08656e-29
3.84785e-28
6.16441e-29
-4.588e-28
2.87617e-29
7.89363e-29
4.42373e-29
-1.2014e-28
1.47183e-29
7.42113e-29
9.75324e-30
2.05753e-29
-1.11444e-29
9.83116e-29
-2.25203e-29
5.91849e-29
-3.50158e-29
7.44369e-29
-3.16334e-29
4.05612e-29
-2.54855e-29
2.90409e-29
-1.92847e-29
-6.31064e-30
-1.58847e-29
-2.06147e-29
-7.63944e-30
-3.07876e-29
1.25308e-30
-2.64767e-29
4.32553e-30
-2.43802e-29
5.73268e-32
-1.47472e-29
-4.48153e-30
7.42801e-32
-7.15197e-30
1.78843e-29
-1.20604e-29
2.8394e-29
-2.15786e-29
3.2941e-29
-3.13662e-29
3.44987e-29
-3.76812e-29
3.34945e-29
-4.17245e-29
2.57222e-29
-4.53088e-29
1.21102e-29
-4.65352e-29
-2.71927e-30
-4.29291e-29
-1.54283e-29
-3.47015e-29
-2.55911e-29
-2.3303e-29
-3.13336e-29
-1.009e-29
-3.0062e-29
2.18872e-30
-2.1678e-29
1.00838e-29
-8.17284e-30
1.2283e-29
8.68671e-30
8.47822e-30
2.53014e-29
-3.56187e-30
3.48452e-29
-2.4797e-29
3.27555e-29
-4.93287e-29
2.03031e-29
-6.82356e-29
5.06179e-31
-7.79671e-29
-2.67094e-29
-7.91086e-29
-5.68352e-29
-6.79689e-29
-7.87093e-29
-3.96347e-29
-8.06386e-29
1.24948e-30
-6.3898e-29
4.08098e-29
-3.22263e-29
6.95417e-29
1.01097e-29
8.57404e-29
6.0442e-29
8.63226e-29
1.01044e-28
6.54338e-29
1.16183e-28
2.51157e-29
9.75703e-29
-1.93308e-29
5.19176e-29
-5.30226e-29
-1.2721e-29
-6.76121e-29
-8.05092e-29
-6.08763e-29
-1.2946e-28
-3.59507e-29
-1.25489e-28
-1.88197e-30
-6.7581e-29
1.57506e-29
2.2116e-29
1.45801e-28
-3.60664e-27
-6.2063e-25
-1.24416e-27
-1.17703e-26
-4.51887e-30
-5.83964e-27
-6.77645e-29
4.48257e-28
6.6278e-29
-6.0244e-28
3.12451e-29
9.55366e-29
5.06691e-29
-1.62461e-28
1.75921e-29
9.00339e-29
1.24841e-29
2.02304e-29
-1.15128e-29
1.22809e-28
-2.50226e-29
7.34981e-29
-4.01058e-29
9.56245e-29
-3.67652e-29
5.32802e-29
-3.01135e-29
3.97392e-29
-2.33847e-29
-5.57381e-30
-1.98005e-29
-2.40592e-29
-1.03127e-29
-3.78781e-29
2.01632e-31
-3.31724e-29
4.0237e-30
-3.14222e-29
-7.26195e-31
-1.96932e-29
-5.77918e-30
-1.03221e-30
-8.62224e-30
2.18057e-29
-1.41352e-29
3.54943e-29
-2.51554e-29
4.16978e-29
-3.65871e-29
4.40585e-29
-4.40119e-29
4.30402e-29
-4.88469e-29
3.32253e-29
-5.32353e-29
1.58152e-29
-5.49415e-29
-3.30404e-30
-5.10449e-29
-1.97773e-29
-4.17724e-29
-3.28461e-29
-2.87639e-29
-3.99744e-29
-1.35165e-29
-3.79495e-29
8.09056e-31
-2.67809e-29
1.01943e-29
-9.01195e-30
1.31454e-29
1.30519e-29
9.33403e-30
3.44603e-29
-3.94561e-30
4.61243e-29
-2.80138e-29
4.22068e-29
-5.61154e-29
2.46362e-29
-7.78727e-29
-2.5644e-30
-8.92263e-29
-3.93582e-29
-9.09754e-29
-7.95297e-29
-7.87527e-29
-1.08086e-28
-4.65587e-29
-1.09699e-28
4.40243e-31
-8.62527e-29
4.61614e-29
-4.27827e-29
7.96252e-29
1.48463e-29
9.89648e-29
8.28855e-29
1.00579e-28
1.3733e-28
7.73283e-29
1.57799e-28
3.12531e-29
1.32857e-28
-2.01093e-29
7.2367e-29
-5.95529e-29
-1.40814e-29
-7.73999e-29
-1.04009e-28
-7.09105e-29
-1.69898e-28
-4.30926e-29
-1.65683e-28
-4.11224e-30
-9.15321e-29
1.67411e-29
2.52922e-29
1.84109e-28
-4.0408e-27
-6.16575e-25
-1.42867e-27
-1.43599e-26
-3.67945e-29
-7.22446e-27
-8.77957e-29
5.00619e-28
6.93611e-29
-7.6954e-28
3.31267e-29
1.11365e-28
5.70005e-29
-2.12518e-28
2.06495e-29
1.06158e-28
1.55363e-29
1.83644e-29
-1.15672e-29
1.49584e-28
-2.73493e-29
8.92002e-29
-4.52159e-29
1.19636e-28
-4.20825e-29
6.8112e-29
-3.50525e-29
5.25642e-29
-2.79051e-29
-3.97968e-30
-2.42098e-29
-2.72927e-29
-1.34698e-29
-4.54264e-29
-1.25774e-30
-4.04967e-29
3.39004e-30
-3.93875e-29
-1.79346e-30
-2.54927e-29
-7.31392e-30
-2.59536e-30
-1.02763e-29
2.59312e-29
-1.63704e-29
4.32811e-29
-2.89222e-29
5.14596e-29
-4.20571e-29
5.48518e-29
-5.06543e-29
5.39431e-29
-5.63542e-29
4.19142e-29
-6.16415e-29
2.02544e-29
-6.39291e-29
-3.7252e-30
-5.98269e-29
-2.45087e-29
-4.95652e-29
-4.09357e-29
-3.49627e-29
-4.96913e-29
-1.76421e-29
-4.6855e-29
-1.1759e-30
-3.25625e-29
9.83584e-30
-9.96896e-30
1.37105e-29
1.80321e-29
1.00855e-29
4.49328e-29
-4.26692e-30
5.9015e-29
-3.10836e-29
5.29591e-29
-6.27632e-29
2.94613e-29
-8.74467e-29
-6.31051e-30
-1.0056e-28
-5.42158e-29
-1.03115e-28
-1.06092e-28
-9.00118e-29
-1.42491e-28
-5.40605e-29
-1.43863e-28
-8.99723e-31
-1.12751e-28
5.11542e-29
-5.56723e-29
8.96216e-29
1.97116e-29
1.12463e-28
1.08433e-28
1.15498e-28
1.79218e-28
9.01679e-29
2.06299e-28
3.84107e-29
1.74482e-28
-2.00166e-29
9.72609e-29
-6.55435e-29
-1.42246e-29
-8.70979e-29
-1.29792e-28
-8.13143e-29
-2.15732e-28
-5.08856e-29
-2.12006e-28
-6.9992e-30
-1.20062e-28
1.7288e-29
2.77559e-29
2.26404e-28
-4.47524e-27
-6.12085e-25
-1.6218e-27
-1.71884e-26
-7.78726e-29
-8.75938e-27
-1.11295e-28
5.36807e-28
7.06343e-29
-9.61517e-28
3.4264e-29
1.25504e-28
6.31416e-29
-2.70871e-28
2.38577e-29
1.22127e-28
1.8906e-29
1.46431e-29
-1.12881e-29
1.78418e-28
-2.94719e-29
1.06194e-28
-5.03169e-29
1.46488e-28
-4.75698e-29
8.51701e-29
-4.03052e-29
6.76878e-29
-3.28654e-29
-1.34271e-30
-2.91435e-29
-3.01527e-29
-1.71521e-29
-5.33118e-29
-3.17363e-30
-4.83822e-29
2.37562e-30
-4.82665e-29
-3.18687e-30
-3.21856e-29
-9.11983e-30
-4.68214e-30
-1.21408e-29
3.01912e-29
-1.87852e-29
5.1699e-29
-3.289e-29
6.21972e-29
-4.77809e-29
6.68854e-29
-5.76117e-29
6.62498e-29
-6.42522e-29
5.18679e-29
-7.05395e-29
2.55246e-29
-7.35204e-29
-3.8849e-30
-6.93112e-29
-2.9541e-29
-5.81317e-29
-4.98107e-29
-4.19651e-29
-6.04783e-29
-2.25429e-29
-5.68165e-29
-3.84455e-30
-3.90977e-29
8.93892e-30
-1.11394e-29
1.3928e-29
2.35354e-29
1.07085e-29
5.66569e-29
-4.51945e-30
7.3502e-29
-3.39689e-29
6.5045e-29
-6.92113e-29
3.48484e-29
-9.68903e-29
-1.06492e-29
-1.11913e-28
-7.12256e-29
-1.15501e-28
-1.36541e-28
-1.01756e-28
-1.82051e-28
-6.21926e-29
-1.83371e-28
-2.86001e-30
-1.43728e-28
5.56818e-29
-7.12805e-29
9.94357e-29
2.43407e-29
1.26176e-28
1.36825e-28
1.31076e-28
2.26629e-28
1.04013e-28
2.61828e-28
4.67076e-29
2.22795e-28
-1.89002e-29
1.27095e-28
-7.0846e-29
-1.2619e-29
-9.65984e-29
-1.57432e-28
-9.20466e-29
-2.66773e-28
-5.93546e-29
-2.64567e-28
-1.06112e-29
-1.53538e-28
1.7324e-29
2.91638e-29
2.7237e-28
-4.9086e-27
-6.07159e-25
-1.82343e-27
-2.02462e-26
-1.28315e-28
-1.04433e-26
-1.38617e-28
5.51569e-28
6.98166e-29
-1.17984e-27
3.4497e-29
1.36949e-28
6.89884e-29
-3.38109e-28
2.71742e-29
1.37437e-28
2.25828e-29
8.69867e-30
-1.06581e-29
2.09052e-28
-3.1362e-29
1.24357e-28
-5.53777e-29
1.76174e-28
-5.32092e-29
1.04559e-28
-4.58717e-29
8.52818e-29
-3.82834e-29
2.5333e-30
-3.4633e-29
-3.24606e-29
-2.14032e-29
-6.13963e-29
-5.59782e-30
-5.6747e-29
9.27413e-31
-5.80389e-29
-4.95328e-30
-3.98064e-29
-1.12354e-29
-7.36037e-30
-1.42466e-29
3.45093e-29
-2.14021e-29
6.06836e-29
-3.70719e-29
7.38721e-29
-5.37646e-29
8.01588e-29
-6.48874e-29
8.00027e-29
-7.25466e-29
6.31664e-29
-7.9941e-29
3.1729e-29
-8.37374e-29
-3.67496e-30
-7.95344e-29
-3.47805e-29
-6.75244e-29
-5.94113e-29
-4.98392e-29
-7.23227e-29
-2.82986e-29
-6.78725e-29
-7.28001e-30
-4.64691e-29
7.42842e-30
-1.26331e-29
1.37416e-29
2.94516e-29
1.11738e-29
6.95525e-29
-4.70019e-30
8.95575e-29
-3.66332e-29
7.8496e-29
-7.53977e-29
4.08795e-29
-1.06133e-28
-1.54738e-29
-1.23225e-28
-9.02997e-29
-1.28099e-28
-1.7086e-28
-1.1399e-28
-2.26867e-28
-7.10057e-29
-2.28458e-28
-5.53187e-30
-1.79536e-28
5.96329e-29
-9.00359e-29
1.08965e-28
2.83071e-29
1.40038e-28
1.67734e-28
1.47304e-28
2.79425e-28
1.18923e-28
3.24487e-28
5.62657e-29
2.78142e-28
-1.65997e-29
1.624e-28
-7.53004e-29
-8.66588e-30
-1.05782e-28
-1.86419e-28
-1.03056e-28
-3.22755e-28
-6.85192e-29
-3.23436e-28
-1.50172e-29
-1.92329e-28
1.67782e-29
2.91322e-29
3.21614e-28
-5.3395e-27
-6.01802e-25
-2.03341e-27
-2.35227e-26
-1.8867e-28
-1.22744e-26
-1.70135e-28
5.39486e-28
6.66045e-29
-1.42601e-27
3.36471e-29
1.44601e-28
7.44208e-29
-4.14848e-28
3.05449e-29
1.51539e-28
2.65488e-29
1.29437e-31
-9.66417e-30
2.41185e-28
-3.29914e-29
1.43535e-28
-6.03656e-29
2.08667e-28
-5.89798e-29
1.26371e-28
-5.17496e-29
1.05516e-28
-4.41754e-29
7.8541e-30
-4.07092e-29
-3.40221e-29
-2.62677e-29
-6.95242e-29
-8.58517e-30
-6.5494e-29
-1.01175e-30
-6.86723e-29
-7.14424e-30
-4.83829e-29
-1.3704e-29
-1.06977e-29
-1.66287e-29
3.88032e-29
-2.42469e-29
7.01605e-29
-4.14837e-29
8.6436e-29
-6.00157e-29
9.46631e-29
-7.24858e-29
9.52393e-29
-8.1243e-29
7.58897e-29
-8.98571e-29
3.89764e-29
-9.46015e-29
-2.97705e-30
-9.05325e-29
-4.01216e-29
-7.77967e-29
-6.96663e-29
-5.86551e-29
-8.52047e-29
-3.4992e-29
-8.00611e-29
-1.15701e-29
-5.47669e-29
5.22349e-30
-1.45746e-29
1.30892e-29
3.56511e-29
1.14466e-29
8.35195e-29
-4.81028e-30
1.0714e-28
-3.90421e-29
9.33411e-29
-8.12591e-29
4.76483e-29
-1.15099e-28
-2.06533e-29
-1.34432e-28
-1.11317e-28
-1.4087e-28
-2.09e-28
-1.26715e-28
-2.7701e-28
-8.05483e-29
-2.7935e-28
-9.00776e-30
-2.20547e-28
6.28914e-29
-1.1241e-28
1.181e-28
3.11205e-29
1.53975e-28
2.00755e-28
1.64166e-28
3.37393e-28
1.34951e-28
3.94331e-28
6.72084e-29
3.40856e-28
-1.29473e-29
2.03735e-28
-7.87349e-29
-1.69921e-30
-1.14514e-28
-2.1616e-28
-1.14277e-28
-3.8333e-28
-7.83916e-29
-3.88632e-28
-2.02853e-29
-2.36807e-28
1.55773e-29
2.72367e-29
3.73657e-28
-5.76647e-27
-5.96017e-25
-2.25152e-27
-2.70059e-26
-2.59466e-28
-1.42502e-26
-2.06237e-28
4.95014e-28
6.06716e-29
-1.70157e-27
3.15162e-29
1.47268e-28
7.93016e-29
-5.0173e-28
3.39025e-29
1.63835e-28
3.07766e-29
-1.15008e-29
-8.29789e-30
2.74474e-28
-3.43337e-29
1.63544e-28
-6.52463e-29
2.43909e-28
-6.48583e-29
1.50684e-28
-5.79336e-29
1.28554e-28
-5.05555e-29
1.48335e-29
-4.74024e-29
-3.46276e-29
-3.17916e-29
-7.75212e-29
-1.21934e-29
-7.45093e-29
-3.50322e-30
-8.01207e-29
-9.81617e-30
-5.79344e-29
-1.65738e-29
-1.47603e-29
-1.9327e-29
4.29846e-29
-2.735e-29
8.00461e-29
-4.61442e-29
9.98301e-29
-6.65437e-29
1.1038e-28
-8.04118e-29
1.11991e-28
-9.03471e-29
9.01168e-29
-1.00298e-28
4.73806e-29
-1.06133e-28
-1.66296e-30
-1.02341e-28
-4.54461e-29
-8.90018e-29
-8.04927e-29
-6.84838e-29
-9.90968e-29
-4.27091e-29
-9.34194e-29
-1.6807e-29
-6.40885e-29
2.23748e-30
-1.71031e-29
1.19021e-29
4.19846e-29
1.14858e-29
9.84372e-29
-4.85585e-30
1.26192e-28
-4.11637e-29
1.09606e-28
-8.67324e-29
5.52595e-29
-1.23712e-28
-2.60317e-29
-1.45462e-28
-1.3412e-28
-1.5377e-28
-2.5087e-28
-1.39926e-28
-3.32524e-28
-9.08656e-29
-3.36259e-28
-1.33806e-29
-2.67143e-28
6.53367e-29
-1.38917e-28
1.26723e-28
3.22248e-29
1.67902e-28
2.35404e-28
1.81635e-28
4.00248e-28
1.52148e-28
4.71358e-28
7.96591e-29
4.11255e-28
-7.7688e-30
2.51691e-28
-8.09655e-29
9.01493e-30
-1.22646e-28
-2.45967e-28
-1.25633e-28
-4.48061e-28
-8.89747e-29
-4.60121e-28
-2.6482e-29
-2.87337e-28
1.36453e-29
2.30128e-29
4.27926e-28
-6.18802e-27
-5.89809e-25
-2.4775e-27
-3.06827e-26
-3.41202e-28
-1.63674e-26
-2.47327e-28
4.12522e-28
5.16691e-29
-2.00811e-27
2.78856e-29
1.43668e-28
8.34751e-29
-5.99423e-28
3.71653e-29
1.73682e-28
3.52281e-29
-2.66631e-29
-6.5575e-30
3.08532e-28
-3.5365e-29
1.84165e-28
-6.99851e-29
2.81813e-28
-7.08188e-29
1.77559e-28
-6.44154e-29
1.54553e-28
-5.74352e-29
2.36918e-29
-5.47416e-29
-3.40527e-29
-3.80214e-29
-8.51944e-29
-1.64827e-29
-8.36612e-29
-6.6125e-30
-9.23224e-29
-1.30305e-29
-6.84701e-29
-1.98987e-29
-1.96118e-29
-2.23869e-29
4.6961e-29
-3.07463e-29
9.02476e-29
-5.10761e-29
1.13985e-28
-7.33606e-29
1.27283e-28
-8.8672e-29
1.30282e-28
-9.98647e-29
1.05925e-28
-1.11275e-28
5.70594e-29
-1.18352e-28
4.04916e-31
-1.14994e-28
-5.06235e-29
-1.01193e-28
-9.1795e-29
-7.93975e-29
-1.13962e-28
-5.1538e-29
-1.07983e-28
-2.30875e-29
-7.4538e-29
-1.62225e-30
-2.03724e-29
1.01045e-29
4.82823e-29
1.12434e-29
1.14163e-28
-4.84898e-30
1.46639e-28
-4.29698e-29
1.2731e-28
-9.17548e-29
6.38279e-29
-1.31892e-28
-3.14283e-29
-1.5624e-28
-1.58516e-28
-1.66745e-28
-2.9634e-28
-1.53611e-28
-3.93411e-28
-1.01998e-28
-3.99382e-28
-1.87426e-29
-3.19722e-28
6.68442e-29
-1.70111e-28
1.34707e-28
3.09964e-29
1.81725e-28
2.71114e-28
1.99676e-28
4.67616e-28
1.70554e-28
5.55507e-28
9.37398e-29
4.89634e-28
-8.84431e-31
3.06877e-28
-8.17962e-29
2.42771e-29
-1.30013e-28
-2.75063e-28
-1.37029e-28
-5.16415e-28
-1.00261e-28
-5.37798e-28
-3.367e-29
-3.44272e-28
1.0905e-29
1.59574e-29
4.83753e-28
-6.60263e-27
-5.83187e-25
-2.71103e-27
-3.45388e-26
-4.34347e-28
-1.86218e-26
-2.93819e-28
2.86328e-28
3.92261e-29
-2.34719e-27
2.25155e-29
1.32422e-28
8.67655e-29
-7.08617e-28
4.02351e-29
1.80391e-28
3.98524e-29
-4.58625e-29
-4.44915e-30
3.42924e-28
-3.60649e-29
2.0514e-28
-7.4547e-29
3.22259e-28
-7.6833e-29
2.07034e-28
-7.11835e-29
1.8366e-28
-6.48233e-29
3.46534e-29
-6.27541e-29
-3.20597e-29
-4.50038e-29
-9.2332e-29
-2.1516e-29
-9.27993e-29
-1.04092e-29
-1.05199e-28
-1.6854e-29
-7.99874e-29
-2.37382e-29
-2.53114e-29
-2.58596e-29
5.06359e-29
-3.44761e-29
1.00663e-28
-5.63062e-29
1.2882e-28
-8.04814e-29
1.45332e-28
-9.72742e-29
1.50128e-28
-1.09802e-28
1.23386e-28
-1.22795e-28
6.81336e-29
-1.31275e-28
3.37301e-30
-1.28525e-28
-5.55108e-29
-1.14421e-28
-1.03465e-28
-9.14684e-29
-1.29755e-28
-6.1569e-29
-1.23782e-28
-3.05121e-29
-8.6225e-29
-6.45422e-30
-2.45505e-29
7.61338e-30
5.43529e-29
1.06633e-29
1.30529e-28
-4.8087e-30
1.68389e-28
-4.44367e-29
1.46467e-28
-9.62647e-29
7.34767e-29
-1.39556e-28
-3.66375e-29
-1.66685e-28
-1.84273e-28
-1.79737e-28
-3.45231e-28
-1.67751e-28
-4.59637e-28
-1.13981e-28
-4.68893e-28
-2.51843e-29
-3.78684e-28
6.7286e-29
-2.06588e-28
1.4192e-28
2.67437e-29
1.95338e-28
3.07227e-28
2.1824e-28
5.39037e-28
1.90202e-28
6.46641e-28
1.09569e-28
5.76255e-28
7.88958e-30
3.69922e-28
-8.10192e-29
4.49521e-29
-1.36434e-28
-3.02567e-28
-1.48354e-28
-5.87751e-28
-1.12228e-28
-6.21487e-28
-4.19065e-29
-4.07939e-28
7.27883e-30
5.53083e-30
5.4036e-28
-7.00876e-27
-5.76158e-25
-2.9517e-27
-3.85587e-26
-5.39327e-28
-2.10085e-26
-3.46139e-28
1.10751e-28
2.29503e-29
-2.72043e-27
1.51438e-29
1.12061e-28
8.89758e-29
-8.30022e-28
4.2996e-29
1.83226e-28
4.45845e-29
-6.96377e-29
-1.98862e-30
3.7717e-28
-3.64181e-29
2.26177e-28
-7.8898e-29
3.65088e-28
-8.28711e-29
2.39122e-28
-7.82232e-29
2.16007e-28
-7.27254e-29
4.79444e-29
-7.14651e-29
-2.83983e-29
-5.27855e-29
-9.87038e-29
-2.73576e-29
-1.01753e-28
-1.49668e-29
-1.18654e-28
-2.13586e-29
-9.24697e-29
-2.81582e-29
-3.19119e-29
-2.98027e-29
5.39105e-29
-3.85859e-29
1.11183e-28
-6.18663e-29
1.44244e-28
-8.79246e-29
1.64478e-28
-1.06229e-28
1.71535e-28
-1.20166e-28
1.4257e-28
-1.34868e-28
8.07258e-29
-1.44918e-28
7.39572e-30
-1.42963e-28
-5.99527e-29
-1.28738e-28
-1.1538e-28
-1.04768e-28
-1.46418e-28
-7.28936e-29
-1.40847e-28
-3.9185e-29
-9.92638e-29
-1.23629e-29
-2.98196e-29
4.33811e-30
5.99838e-29
9.68121e-30
1.47345e-28
-4.76208e-30
1.91326e-28
-4.5547e-29
1.67079e-28
-1.00203e-28
8.43358e-29
-1.4662e-28
-4.14295e-29
-1.76708e-28
-2.11119e-28
-1.92676e-28
-3.97318e-28
-1.82315e-28
-5.31119e-28
-1.26841e-28
-5.44939e-28
-3.27929e-29
-4.44434e-28
6.6532e-29
-2.48978e-28
1.4822e-28
1.87073e-29
2.08621e-28
3.42997e-28
2.37264e-28
6.13951e-28
2.11112e-28
7.44544e-28
1.27258e-28
6.71335e-28
1.87392e-29
4.4146e-28
-7.8416e-29
7.19657e-29
-1.41709e-28
-3.27504e-28
-1.59477e-28
-6.61318e-28
-1.2484e-28
-7.1092e-28
-5.12416e-29
-4.78634e-28
2.68985e-30
-8.83976e-30
5.96862e-28
-7.40487e-27
-5.68733e-25
-3.19907e-27
-4.27261e-26
-6.5652e-28
-2.35218e-26
-4.04715e-28
-1.19839e-28
2.42917e-30
-3.12942e-27
5.4864e-30
8.10277e-29
8.98865e-29
-9.64368e-28
4.53124e-29
1.81409e-28
4.93428e-29
-9.85595e-29
7.96884e-31
4.10741e-28
-3.64157e-29
2.4694e-28
-8.30059e-29
4.10103e-28
-8.89019e-29
2.73809e-28
-8.5517e-29
2.5171e-28
-8.11435e-29
6.37898e-29
-8.0897e-29
-2.28081e-29
-6.14119e-29
-1.04061e-28
-3.4074e-29
-1.10333e-28
-2.03626e-29
-1.32569e-28
-2.66216e-29
-1.05885e-28
-3.32306e-29
-3.94585e-29
-3.42807e-29
5.6685e-29
-4.31284e-29
1.21689e-28
-6.7794e-29
1.60154e-28
-9.5713e-29
1.84656e-28
-1.15549e-28
1.94497e-28
-1.30965e-28
1.63539e-28
-1.47501e-28
9.49586e-29
-1.59298e-28
1.26344e-29
-1.58338e-28
-6.37824e-29
-1.4419e-28
-1.27405e-28
-1.19367e-28
-1.63881e-28
-8.56039e-29
-1.59199e-28
-4.92135e-29
-1.13772e-28
-1.94582e-29
-3.63751e-29
1.79997e-31
6.49402e-29
8.22321e-30
1.64393e-28
-4.74534e-30
2.15313e-28
-4.629e-29
1.89137e-28
-1.03515e-28
9.65394e-29
-1.52999e-28
-4.55522e-29
-1.86219e-28
-2.38745e-28
-2.05486e-28
-4.52326e-28
-1.97267e-28
-6.07728e-28
-1.40596e-28
-6.27633e-28
-4.16507e-29
-5.1737e-28
6.44511e-29
-2.9794e-28
1.53456e-28
6.06179e-30
2.21444e-28
3.7758e-28
2.56671e-28
6.91691e-28
2.3329e-28
8.48908e-28
1.4691e-28
7.7504e-28
3.18503e-29
5.22124e-28
-7.37583e-29
1.06298e-28
-1.45623e-28
-3.48796e-28
-1.70243e-28
-7.36244e-28
-1.38041e-28
-8.05734e-28
-6.17152e-29
-5.56607e-28
-2.93643e-30
-2.77559e-29
6.52254e-28
-7.78942e-27
-5.60925e-25
-3.45259e-27
-4.70234e-26
-7.86248e-28
-2.61552e-26
-4.6998e-28
-4.10974e-28
-2.27684e-29
-3.57572e-27
-6.7633e-30
3.76753e-29
8.92547e-29
-1.1124e-27
4.70273e-29
1.74118e-28
5.4028e-29
-1.33229e-28
3.86681e-30
4.43061e-28
-3.60572e-29
2.67052e-28
-8.68419e-29
4.57061e-28
-9.48935e-29
3.11049e-28
-9.30443e-29
2.9086e-28
-9.00761e-29
8.24099e-29
-9.10691e-29
-1.50203e-29
-7.09277e-29
-1.08138e-28
-4.17324e-29
-1.18328e-28
-2.66773e-29
-1.46806e-28
-3.27254e-29
-1.20183e-28
-3.90342e-29
-4.79858e-29
-3.93656e-29
5.88604e-29
-4.8164e-29
1.32057e-28
-7.41331e-29
1.76436e-28
-1.03875e-28
2.05792e-28
-1.2525e-28
2.18997e-28
-1.42208e-28
1.86344e-28
-1.60703e-28
1.10953e-28
-1.74424e-28
1.92559e-29
-1.74676e-28
-6.68216e-29
-1.60823e-28
-1.39391e-28
-1.35334e-28
-1.82065e-28
-9.97916e-29
-1.78852e-28
-6.07069e-29
-1.2987e-28
-2.78557e-29
-4.4425e-29
-4.96776e-30
6.89655e-29
6.20557e-30
1.81425e-28
-4.80497e-30
2.40184e-28
-4.6664e-29
2.12616e-28
-1.0615e-28
1.10223e-28
-1.58608e-28
-4.87323e-29
-1.95119e-28
-2.66798e-28
-2.1808e-28
-5.09922e-28
-2.12553e-28
-6.89274e-28
-1.55255e-28
-7.17046e-28
-5.1833e-29
-5.9788e-28
6.09127e-29
-3.54162e-28
1.57474e-28
-1.20822e-29
2.33662e-28
4.10037e-28
2.76364e-28
7.71483e-28
2.56723e-28
9.59323e-28
1.68616e-28
8.87471e-28
4.74061e-29
6.12537e-28
-6.68093e-29
1.48979e-28
-1.47941e-28
-3.65267e-28
-1.80478e-28
-8.11532e-28
-1.51756e-28
-9.05453e-28
-7.33551e-29
-6.42049e-28
-9.67049e-30
-5.18419e-29
7.05414e-28
-8.16086e-27
-5.52745e-25
-3.71169e-27
-5.14322e-26
-9.28768e-28
-2.89013e-26
-5.42363e-28
-7.68026e-28
-5.30901e-29
-4.06089e-27
-2.19342e-29
-1.97228e-29
8.68133e-29
-1.27487e-27
4.79614e-29
1.60493e-28
5.85203e-29
-1.74274e-28
7.16521e-30
4.73506e-28
-3.53519e-29
2.86093e-28
-9.03816e-29
5.05675e-28
-1.00815e-28
3.50756e-28
-1.00782e-28
3.33525e-28
-9.95178e-29
1.04017e-28
-1.01997e-28
-4.76056e-30
-8.13752e-29
-1.10654e-28
-5.04005e-29
-1.25505e-28
-3.39945e-29
-1.61204e-28
-3.9758e-29
-1.35294e-28
-4.56546e-29
-5.75163e-29
-4.51368e-29
6.03406e-29
-5.3761e-29
1.42158e-28
-8.09348e-29
1.92966e-28
-1.12443e-28
2.27795e-28
-1.35354e-28
2.45003e-28
-1.53907e-28
2.11031e-28
-1.7448e-28
1.28828e-28
-1.9031e-28
2.74315e-29
-1.91997e-28
-6.88819e-29
-1.78678e-28
-1.51173e-28
-1.52734e-28
-2.00872e-28
-1.15547e-28
-1.99815e-28
-7.37766e-29
-1.47678e-28
-3.76758e-29
-5.41882e-29
-1.12202e-29