/*--------------------------------*- C++ -*----------------------------------*\
| =========                 |                                                 |
| \\      /  F ield         | foam-extend: Open Source CFD                    |
|  \\    /   O peration     | Version:     4.0                                |
|   \\  /    A nd           | Web:         http://www.foam-extend.org         |
|    \\/     M anipulation  |                                                 |
\*---------------------------------------------------------------------------*/
FoamFile
{
    version     2.0;
    format      ascii;
    class       volScalarField;
    location    "490";
    object      cMinus;
}
// * * * * * * * * * * * * * * * * * * * * * * * * * * * * * * * * * * * * * //

dimensions      [0 0 0 0 0 0 0];

internalField   nonuniform List<scalar> 
6960
(
7.00813e-17
6.99123e-17
7.0075e-17
7.01382e-17
7.01505e-17
7.01373e-17
7.01107e-17
7.00763e-17
7.0037e-17
6.99945e-17
6.99498e-17
6.9904e-17
6.98578e-17
6.98118e-17
6.97666e-17
6.97228e-17
6.96808e-17
6.96409e-17
6.96035e-17
6.95688e-17
6.95369e-17
6.95081e-17
6.94823e-17
6.94597e-17
6.94402e-17
6.9424e-17
6.94111e-17
6.94014e-17
6.93949e-17
6.93917e-17
6.93917e-17
6.93949e-17
6.94014e-17
6.94111e-17
6.9424e-17
6.94402e-17
6.94597e-17
6.94823e-17
6.95081e-17
6.95369e-17
6.95688e-17
6.96035e-17
6.96409e-17
6.96808e-17
6.97228e-17
6.97666e-17
6.98118e-17
6.98578e-17
6.9904e-17
6.99498e-17
6.99945e-17
7.0037e-17
7.00763e-17
7.01107e-17
7.01373e-17
7.01505e-17
7.01382e-17
7.0075e-17
6.99123e-17
7.00813e-17
1.1413e-16
1.13915e-16
1.14165e-16
1.14261e-16
1.1428e-16
1.14259e-16
1.14218e-16
1.14164e-16
1.14103e-16
1.14037e-16
1.13968e-16
1.13897e-16
1.13826e-16
1.13754e-16
1.13684e-16
1.13617e-16
1.13551e-16
1.1349e-16
1.13432e-16
1.13378e-16
1.13328e-16
1.13284e-16
1.13244e-16
1.13209e-16
1.13179e-16
1.13154e-16
1.13133e-16
1.13118e-16
1.13108e-16
1.13103e-16
1.13103e-16
1.13108e-16
1.13118e-16
1.13133e-16
1.13154e-16
1.13179e-16
1.13209e-16
1.13244e-16
1.13284e-16
1.13328e-16
1.13378e-16
1.13432e-16
1.1349e-16
1.13551e-16
1.13617e-16
1.13684e-16
1.13754e-16
1.13826e-16
1.13897e-16
1.13968e-16
1.14037e-16
1.14103e-16
1.14164e-16
1.14218e-16
1.14259e-16
1.1428e-16
1.14261e-16
1.14165e-16
1.13915e-16
1.1413e-16
3.83639e-16
3.83073e-16
3.83856e-16
3.84157e-16
3.84212e-16
3.84145e-16
3.84013e-16
3.83844e-16
3.83651e-16
3.83443e-16
3.83224e-16
3.82999e-16
3.82772e-16
3.82547e-16
3.82325e-16
3.8211e-16
3.81904e-16
3.81709e-16
3.81525e-16
3.81355e-16
3.81198e-16
3.81057e-16
3.8093e-16
3.80819e-16
3.80724e-16
3.80645e-16
3.80581e-16
3.80534e-16
3.80502e-16
3.80486e-16
3.80486e-16
3.80502e-16
3.80534e-16
3.80581e-16
3.80645e-16
3.80724e-16
3.80819e-16
3.8093e-16
3.81057e-16
3.81198e-16
3.81355e-16
3.81525e-16
3.81709e-16
3.81904e-16
3.8211e-16
3.82325e-16
3.82547e-16
3.82772e-16
3.82999e-16
3.83224e-16
3.83443e-16
3.83651e-16
3.83844e-16
3.84013e-16
3.84145e-16
3.84212e-16
3.84157e-16
3.83856e-16
3.83073e-16
3.83639e-16
1.45906e-15
1.45753e-15
1.46025e-15
1.46128e-15
1.46147e-15
1.46124e-15
1.46078e-15
1.4602e-15
1.45953e-15
1.45881e-15
1.45806e-15
1.45728e-15
1.4565e-15
1.45572e-15
1.45496e-15
1.45422e-15
1.4535e-15
1.45283e-15
1.4522e-15
1.45161e-15
1.45107e-15
1.45058e-15
1.45014e-15
1.44976e-15
1.44943e-15
1.44916e-15
1.44894e-15
1.44877e-15
1.44866e-15
1.44861e-15
1.44861e-15
1.44866e-15
1.44877e-15
1.44894e-15
1.44916e-15
1.44943e-15
1.44976e-15
1.45014e-15
1.45058e-15
1.45107e-15
1.45161e-15
1.4522e-15
1.45283e-15
1.4535e-15
1.45422e-15
1.45496e-15
1.45572e-15
1.4565e-15
1.45728e-15
1.45806e-15
1.45881e-15
1.45953e-15
1.4602e-15
1.46078e-15
1.46124e-15
1.46147e-15
1.46128e-15
1.46025e-15
1.45753e-15
1.45906e-15
5.98894e-15
5.98614e-15
5.99591e-15
5.99965e-15
6.00038e-15
5.99962e-15
5.99807e-15
5.99607e-15
5.99379e-15
5.99132e-15
5.98873e-15
5.98606e-15
5.98337e-15
5.98069e-15
5.97806e-15
5.97551e-15
5.97306e-15
5.97073e-15
5.96855e-15
5.96652e-15
5.96467e-15
5.96298e-15
5.96148e-15
5.96016e-15
5.95903e-15
5.95809e-15
5.95733e-15
5.95676e-15
5.95639e-15
5.9562e-15
5.9562e-15
5.95639e-15
5.95676e-15
5.95733e-15
5.95809e-15
5.95903e-15
5.96016e-15
5.96148e-15
5.96298e-15
5.96467e-15
5.96652e-15
5.96855e-15
5.97073e-15
5.97306e-15
5.97551e-15
5.97806e-15
5.98069e-15
5.98337e-15
5.98606e-15
5.98873e-15
5.99132e-15
5.99379e-15
5.99607e-15
5.99807e-15
5.99962e-15
6.00038e-15
5.99965e-15
5.99591e-15
5.98614e-15
5.98894e-15
2.74409e-14
2.74499e-14
2.74888e-14
2.75042e-14
2.75079e-14
2.75059e-14
2.7501e-14
2.74944e-14
2.74868e-14
2.74785e-14
2.74698e-14
2.74609e-14
2.74518e-14
2.74428e-14
2.74339e-14
2.74253e-14
2.7417e-14
2.74092e-14
2.74018e-14
2.7395e-14
2.73887e-14
2.73831e-14
2.7378e-14
2.73735e-14
2.73697e-14
2.73665e-14
2.7364e-14
2.73621e-14
2.73608e-14
2.73602e-14
2.73602e-14
2.73608e-14
2.73621e-14
2.7364e-14
2.73665e-14
2.73697e-14
2.73735e-14
2.7378e-14
2.73831e-14
2.73887e-14
2.7395e-14
2.74018e-14
2.74092e-14
2.7417e-14
2.74253e-14
2.74339e-14
2.74428e-14
2.74518e-14
2.74609e-14
2.74698e-14
2.74785e-14
2.74868e-14
2.74944e-14
2.7501e-14
2.75059e-14
2.75079e-14
2.75042e-14
2.74888e-14
2.74499e-14
2.74409e-14
1.44593e-13
1.44782e-13
1.44974e-13
1.45054e-13
1.45081e-13
1.45081e-13
1.45069e-13
1.4505e-13
1.45026e-13
1.45e-13
1.44973e-13
1.44944e-13
1.44916e-13
1.44887e-13
1.44858e-13
1.44831e-13
1.44804e-13
1.44779e-13
1.44755e-13
1.44733e-13
1.44713e-13
1.44695e-13
1.44679e-13
1.44664e-13
1.44652e-13
1.44642e-13
1.44634e-13
1.44628e-13
1.44624e-13
1.44622e-13
1.44622e-13
1.44624e-13
1.44628e-13
1.44634e-13
1.44642e-13
1.44652e-13
1.44664e-13
1.44679e-13
1.44695e-13
1.44713e-13
1.44733e-13
1.44755e-13
1.44779e-13
1.44804e-13
1.44831e-13
1.44858e-13
1.44887e-13
1.44916e-13
1.44944e-13
1.44973e-13
1.45e-13
1.45026e-13
1.4505e-13
1.45069e-13
1.45081e-13
1.45081e-13
1.45054e-13
1.44974e-13
1.44782e-13
1.44593e-13
8.74874e-13
8.76917e-13
8.78163e-13
8.78727e-13
8.7896e-13
8.79035e-13
8.79036e-13
8.79e-13
8.78945e-13
8.78879e-13
8.78807e-13
8.7873e-13
8.78651e-13
8.78571e-13
8.78492e-13
8.78415e-13
8.78341e-13
8.7827e-13
8.78204e-13
8.78142e-13
8.78085e-13
8.78034e-13
8.77989e-13
8.77948e-13
8.77914e-13
8.77886e-13
8.77863e-13
8.77846e-13
8.77834e-13
8.77829e-13
8.77829e-13
8.77834e-13
8.77846e-13
8.77863e-13
8.77886e-13
8.77914e-13
8.77948e-13
8.77989e-13
8.78034e-13
8.78085e-13
8.78142e-13
8.78204e-13
8.7827e-13
8.78341e-13
8.78415e-13
8.78492e-13
8.78571e-13
8.78651e-13
8.7873e-13
8.78807e-13
8.78879e-13
8.78945e-13
8.79e-13
8.79036e-13
8.79035e-13
8.7896e-13
8.78727e-13
8.78163e-13
8.76917e-13
8.74874e-13
5.87722e-12
5.8965e-12
5.90636e-12
5.91105e-12
5.9132e-12
5.91415e-12
5.91455e-12
5.9147e-12
5.91472e-12
5.91468e-12
5.91461e-12
5.91452e-12
5.91441e-12
5.91429e-12
5.91417e-12
5.91405e-12
5.91394e-12
5.91382e-12
5.91371e-12
5.91361e-12
5.91352e-12
5.91344e-12
5.91336e-12
5.9133e-12
5.91324e-12
5.9132e-12
5.91316e-12
5.91314e-12
5.91312e-12
5.91311e-12
5.91311e-12
5.91312e-12
5.91314e-12
5.91316e-12
5.9132e-12
5.91324e-12
5.9133e-12
5.91336e-12
5.91344e-12
5.91352e-12
5.91361e-12
5.91371e-12
5.91382e-12
5.91394e-12
5.91405e-12
5.91417e-12
5.91429e-12
5.91441e-12
5.91452e-12
5.91461e-12
5.91468e-12
5.91472e-12
5.9147e-12
5.91455e-12
5.91415e-12
5.9132e-12
5.91105e-12
5.90636e-12
5.8965e-12
5.87722e-12
4.19373e-11
4.2109e-11
4.21933e-11
4.22343e-11
4.22538e-11
4.22632e-11
4.22681e-11
4.22708e-11
4.22726e-11
4.2274e-11
4.22751e-11
4.22761e-11
4.2277e-11
4.22779e-11
4.22786e-11
4.22793e-11
4.228e-11
4.22806e-11
4.22811e-11
4.22817e-11
4.22821e-11
4.22826e-11
4.22829e-11
4.22833e-11
4.22836e-11
4.22838e-11
4.2284e-11
4.22842e-11
4.22843e-11
4.22843e-11
4.22843e-11
4.22843e-11
4.22842e-11
4.2284e-11
4.22838e-11
4.22836e-11
4.22833e-11
4.22829e-11
4.22826e-11
4.22821e-11
4.22817e-11
4.22811e-11
4.22806e-11
4.228e-11
4.22793e-11
4.22786e-11
4.22779e-11
4.2277e-11
4.22761e-11
4.22751e-11
4.2274e-11
4.22726e-11
4.22708e-11
4.22681e-11
4.22632e-11
4.22538e-11
4.22343e-11
4.21933e-11
4.2109e-11
4.19373e-11
3.06061e-10
3.07524e-10
3.08245e-10
3.08599e-10
3.08769e-10
3.08854e-10
3.08899e-10
3.08926e-10
3.08946e-10
3.08962e-10
3.08976e-10
3.0899e-10
3.09002e-10
3.09014e-10
3.09025e-10
3.09036e-10
3.09046e-10
3.09055e-10
3.09064e-10
3.09072e-10
3.0908e-10
3.09086e-10
3.09092e-10
3.09098e-10
3.09102e-10
3.09106e-10
3.09109e-10
3.09112e-10
3.09113e-10
3.09114e-10
3.09114e-10
3.09113e-10
3.09112e-10
3.09109e-10
3.09106e-10
3.09102e-10
3.09098e-10
3.09092e-10
3.09086e-10
3.0908e-10
3.09072e-10
3.09064e-10
3.09055e-10
3.09046e-10
3.09036e-10
3.09025e-10
3.09014e-10
3.09002e-10
3.0899e-10
3.08976e-10
3.08962e-10
3.08946e-10
3.08926e-10
3.08899e-10
3.08854e-10
3.08769e-10
3.08599e-10
3.08245e-10
3.07524e-10
3.06061e-10
2.22092e-09
2.23282e-09
2.23875e-09
2.24168e-09
2.24309e-09
2.24379e-09
2.24417e-09
2.2444e-09
2.24457e-09
2.24471e-09
2.24483e-09
2.24495e-09
2.24506e-09
2.24516e-09
2.24526e-09
2.24536e-09
2.24545e-09
2.24553e-09
2.24561e-09
2.24568e-09
2.24575e-09
2.24581e-09
2.24586e-09
2.24591e-09
2.24595e-09
2.24598e-09
2.24601e-09
2.24603e-09
2.24604e-09
2.24605e-09
2.24605e-09
2.24604e-09
2.24603e-09
2.24601e-09
2.24598e-09
2.24595e-09
2.24591e-09
2.24586e-09
2.24581e-09
2.24575e-09
2.24568e-09
2.24561e-09
2.24553e-09
2.24545e-09
2.24536e-09
2.24526e-09
2.24516e-09
2.24506e-09
2.24495e-09
2.24483e-09
2.24471e-09
2.24457e-09
2.2444e-09
2.24417e-09
2.24379e-09
2.24309e-09
2.24168e-09
2.23875e-09
2.23282e-09
2.22092e-09
1.56794e-08
1.57708e-08
1.5817e-08
1.58398e-08
1.58508e-08
1.58562e-08
1.58591e-08
1.58609e-08
1.58622e-08
1.58632e-08
1.58642e-08
1.5865e-08
1.58658e-08
1.58666e-08
1.58674e-08
1.58681e-08
1.58688e-08
1.58694e-08
1.587e-08
1.58705e-08
1.5871e-08
1.58715e-08
1.58719e-08
1.58722e-08
1.58725e-08
1.58728e-08
1.5873e-08
1.58731e-08
1.58732e-08
1.58733e-08
1.58733e-08
1.58732e-08
1.58731e-08
1.5873e-08
1.58728e-08
1.58725e-08
1.58722e-08
1.58719e-08
1.58715e-08
1.5871e-08
1.58705e-08
1.587e-08
1.58694e-08
1.58688e-08
1.58681e-08
1.58674e-08
1.58666e-08
1.58658e-08
1.5865e-08
1.58642e-08
1.58632e-08
1.58622e-08
1.58609e-08
1.58591e-08
1.58562e-08
1.58508e-08
1.58398e-08
1.5817e-08
1.57708e-08
1.56794e-08
1.05725e-07
1.06379e-07
1.06713e-07
1.06878e-07
1.06958e-07
1.06997e-07
1.07018e-07
1.0703e-07
1.07039e-07
1.07046e-07
1.07052e-07
1.07058e-07
1.07064e-07
1.07069e-07
1.07074e-07
1.07079e-07
1.07084e-07
1.07088e-07
1.07092e-07
1.07095e-07
1.07099e-07
1.07102e-07
1.07104e-07
1.07107e-07
1.07109e-07
1.07111e-07
1.07112e-07
1.07113e-07
1.07114e-07
1.07114e-07
1.07114e-07
1.07114e-07
1.07113e-07
1.07112e-07
1.07111e-07
1.07109e-07
1.07107e-07
1.07104e-07
1.07102e-07
1.07099e-07
1.07095e-07
1.07092e-07
1.07088e-07
1.07084e-07
1.07079e-07
1.07074e-07
1.07069e-07
1.07064e-07
1.07058e-07
1.07052e-07
1.07046e-07
1.07039e-07
1.0703e-07
1.07018e-07
1.06997e-07
1.06958e-07
1.06878e-07
1.06713e-07
1.06379e-07
1.05725e-07
6.69332e-07
6.73639e-07
6.75857e-07
6.76951e-07
6.77478e-07
6.77737e-07
6.77872e-07
6.77952e-07
6.78008e-07
6.78053e-07
6.78092e-07
6.78129e-07
6.78163e-07
6.78196e-07
6.78227e-07
6.78256e-07
6.78284e-07
6.7831e-07
6.78334e-07
6.78357e-07
6.78377e-07
6.78396e-07
6.78412e-07
6.78427e-07
6.78439e-07
6.7845e-07
6.78458e-07
6.78465e-07
6.78469e-07
6.78471e-07
6.78471e-07
6.78469e-07
6.78465e-07
6.78458e-07
6.7845e-07
6.78439e-07
6.78427e-07
6.78412e-07
6.78396e-07
6.78377e-07
6.78357e-07
6.78334e-07
6.7831e-07
6.78284e-07
6.78256e-07
6.78227e-07
6.78196e-07
6.78163e-07
6.78129e-07
6.78092e-07
6.78053e-07
6.78008e-07
6.77952e-07
6.77872e-07
6.77737e-07
6.77478e-07
6.76951e-07
6.75857e-07
6.73639e-07
6.69332e-07
3.91298e-06
3.93866e-06
3.95195e-06
3.9585e-06
3.96165e-06
3.96319e-06
3.96399e-06
3.96446e-06
3.96478e-06
3.96503e-06
3.96526e-06
3.96546e-06
3.96565e-06
3.96583e-06
3.966e-06
3.96617e-06
3.96632e-06
3.96647e-06
3.9666e-06
3.96672e-06
3.96684e-06
3.96694e-06
3.96703e-06
3.96711e-06
3.96718e-06
3.96724e-06
3.96729e-06
3.96732e-06
3.96735e-06
3.96736e-06
3.96736e-06
3.96735e-06
3.96732e-06
3.96729e-06
3.96724e-06
3.96718e-06
3.96711e-06
3.96703e-06
3.96694e-06
3.96684e-06
3.96672e-06
3.9666e-06
3.96647e-06
3.96632e-06
3.96617e-06
3.966e-06
3.96583e-06
3.96565e-06
3.96546e-06
3.96526e-06
3.96503e-06
3.96478e-06
3.96446e-06
3.96399e-06
3.96319e-06
3.96165e-06
3.9585e-06
3.95195e-06
3.93866e-06
3.91298e-06
2.07777e-05
2.09141e-05
2.09848e-05
2.10197e-05
2.10364e-05
2.10445e-05
2.10487e-05
2.10512e-05
2.10528e-05
2.10541e-05
2.10552e-05
2.10563e-05
2.10572e-05
2.10581e-05
2.1059e-05
2.10598e-05
2.10605e-05
2.10613e-05
2.10619e-05
2.10625e-05
2.10631e-05
2.10636e-05
2.10641e-05
2.10645e-05
2.10648e-05
2.10651e-05
2.10653e-05
2.10655e-05
2.10656e-05
2.10657e-05
2.10657e-05
2.10656e-05
2.10655e-05
2.10653e-05
2.10651e-05
2.10648e-05
2.10645e-05
2.10641e-05
2.10636e-05
2.10631e-05
2.10625e-05
2.10619e-05
2.10613e-05
2.10605e-05
2.10598e-05
2.1059e-05
2.10581e-05
2.10572e-05
2.10563e-05
2.10552e-05
2.10541e-05
2.10528e-05
2.10512e-05
2.10487e-05
2.10445e-05
2.10364e-05
2.10197e-05
2.09848e-05
2.09141e-05
2.07777e-05
9.85527e-05
9.91866e-05
9.95157e-05
9.96776e-05
9.97552e-05
9.97928e-05
9.98121e-05
9.98232e-05
9.98306e-05
9.98364e-05
9.98413e-05
9.98457e-05
9.98499e-05
9.98538e-05
9.98576e-05
9.98611e-05
9.98644e-05
9.98675e-05
9.98704e-05
9.98731e-05
9.98756e-05
9.98778e-05
9.98798e-05
9.98815e-05
9.9883e-05
9.98842e-05
9.98852e-05
9.9886e-05
9.98865e-05
9.98867e-05
9.98867e-05
9.98865e-05
9.9886e-05
9.98852e-05
9.98842e-05
9.9883e-05
9.98815e-05
9.98798e-05
9.98778e-05
9.98756e-05
9.98731e-05
9.98704e-05
9.98675e-05
9.98644e-05
9.98611e-05
9.98576e-05
9.98538e-05
9.98499e-05
9.98457e-05
9.98413e-05
9.98364e-05
9.98306e-05
9.98232e-05
9.98121e-05
9.97928e-05
9.97552e-05
9.96776e-05
9.95157e-05
9.91866e-05
9.85527e-05
0.000410528
0.000413057
0.000414369
0.000415013
0.000415322
0.000415471
0.000415548
0.000415591
0.00041562
0.000415642
0.00041566
0.000415677
0.000415693
0.000415708
0.000415722
0.000415735
0.000415747
0.000415759
0.00041577
0.00041578
0.000415789
0.000415797
0.000415805
0.000415811
0.000415817
0.000415821
0.000415825
0.000415828
0.00041583
0.000415831
0.000415831
0.00041583
0.000415828
0.000415825
0.000415821
0.000415817
0.000415811
0.000415805
0.000415797
0.000415789
0.00041578
0.00041577
0.000415759
0.000415747
0.000415735
0.000415722
0.000415708
0.000415693
0.000415677
0.00041566
0.000415642
0.00041562
0.000415591
0.000415548
0.000415471
0.000415322
0.000415013
0.000414369
0.000413057
0.000410528
0.00147623
0.00148472
0.0014891
0.00149126
0.00149229
0.00149279
0.00149304
0.00149318
0.00149328
0.00149335
0.00149341
0.00149346
0.00149351
0.00149356
0.0014936
0.00149364
0.00149368
0.00149372
0.00149375
0.00149378
0.00149381
0.00149384
0.00149386
0.00149388
0.0014939
0.00149392
0.00149393
0.00149394
0.00149394
0.00149395
0.00149395
0.00149394
0.00149394
0.00149393
0.00149392
0.0014939
0.00149388
0.00149386
0.00149384
0.00149381
0.00149378
0.00149375
0.00149372
0.00149368
0.00149364
0.0014936
0.00149356
0.00149351
0.00149346
0.00149341
0.00149335
0.00149328
0.00149318
0.00149304
0.00149279
0.00149229
0.00149126
0.0014891
0.00148472
0.00147623
0.00450853
0.00453195
0.00454403
0.00454996
0.00455279
0.00455416
0.00455485
0.00455523
0.00455548
0.00455567
0.00455583
0.00455597
0.0045561
0.00455622
0.00455634
0.00455644
0.00455655
0.00455664
0.00455673
0.00455681
0.00455689
0.00455696
0.00455702
0.00455707
0.00455712
0.00455715
0.00455718
0.00455721
0.00455722
0.00455723
0.00455723
0.00455722
0.00455721
0.00455718
0.00455715
0.00455712
0.00455707
0.00455702
0.00455696
0.00455689
0.00455681
0.00455673
0.00455664
0.00455655
0.00455644
0.00455634
0.00455622
0.0045561
0.00455597
0.00455583
0.00455567
0.00455548
0.00455523
0.00455485
0.00455416
0.00455279
0.00454996
0.00454403
0.00453195
0.00450853
0.0115522
0.0116046
0.0116315
0.0116447
0.011651
0.011654
0.0116556
0.0116564
0.011657
0.0116574
0.0116577
0.011658
0.0116583
0.0116585
0.0116588
0.011659
0.0116592
0.0116594
0.0116596
0.0116598
0.0116599
0.0116601
0.0116602
0.0116603
0.0116604
0.0116605
0.0116606
0.0116606
0.0116606
0.0116606
0.0116606
0.0116606
0.0116606
0.0116606
0.0116605
0.0116604
0.0116603
0.0116602
0.0116601
0.0116599
0.0116598
0.0116596
0.0116594
0.0116592
0.011659
0.0116588
0.0116585
0.0116583
0.011658
0.0116577
0.0116574
0.011657
0.0116564
0.0116556
0.011654
0.011651
0.0116447
0.0116315
0.0116046
0.0115522
0.024758
0.0248527
0.0249011
0.0249249
0.0249362
0.0249417
0.0249444
0.0249459
0.0249469
0.0249476
0.0249482
0.0249487
0.0249491
0.0249496
0.02495
0.0249504
0.0249507
0.0249511
0.0249514
0.0249517
0.024952
0.0249522
0.0249524
0.0249526
0.0249528
0.0249529
0.024953
0.0249531
0.0249531
0.0249532
0.0249532
0.0249531
0.0249531
0.024953
0.0249529
0.0249528
0.0249526
0.0249524
0.0249522
0.024952
0.0249517
0.0249514
0.0249511
0.0249507
0.0249504
0.02495
0.0249496
0.0249491
0.0249487
0.0249482
0.0249476
0.0249469
0.0249459
0.0249444
0.0249417
0.0249362
0.0249249
0.0249011
0.0248527
0.024758
0.0448607
0.0450019
0.0450737
0.0451089
0.0451257
0.0451338
0.0451379
0.0451401
0.0451415
0.0451425
0.0451433
0.045144
0.0451447
0.0451453
0.0451458
0.0451464
0.0451469
0.0451474
0.0451478
0.0451482
0.0451486
0.0451489
0.0451492
0.0451495
0.0451497
0.0451499
0.04515
0.0451502
0.0451502
0.0451503
0.0451503
0.0451502
0.0451502
0.04515
0.0451499
0.0451497
0.0451495
0.0451492
0.0451489
0.0451486
0.0451482
0.0451478
0.0451474
0.0451469
0.0451464
0.0451458
0.0451453
0.0451447
0.045144
0.0451433
0.0451425
0.0451415
0.0451401
0.0451379
0.0451338
0.0451257
0.0451089
0.0450737
0.0450019
0.0448607
0.0704293
0.0706102
0.0707019
0.0707468
0.0707683
0.0707787
0.0707839
0.0707867
0.0707884
0.0707897
0.0707907
0.0707915
0.0707923
0.070793
0.0707937
0.0707944
0.070795
0.0707955
0.0707961
0.0707965
0.070797
0.0707974
0.0707977
0.070798
0.0707983
0.0707985
0.0707987
0.0707988
0.0707989
0.070799
0.070799
0.0707989
0.0707988
0.0707987
0.0707985
0.0707983
0.070798
0.0707977
0.0707974
0.070797
0.0707965
0.0707961
0.0707955
0.070795
0.0707944
0.0707937
0.070793
0.0707923
0.0707915
0.0707907
0.0707897
0.0707884
0.0707867
0.0707839
0.0707787
0.0707683
0.0707468
0.0707019
0.0706102
0.0704293
0.098925
0.0991353
0.0992414
0.0992935
0.0993186
0.0993306
0.0993366
0.0993399
0.0993418
0.0993432
0.0993443
0.0993453
0.0993461
0.0993469
0.0993476
0.0993483
0.099349
0.0993496
0.0993501
0.0993507
0.0993511
0.0993516
0.0993519
0.0993523
0.0993526
0.0993528
0.099353
0.0993532
0.0993532
0.0993533
0.0993533
0.0993532
0.0993532
0.099353
0.0993528
0.0993526
0.0993523
0.0993519
0.0993516
0.0993511
0.0993507
0.0993501
0.0993496
0.099349
0.0993483
0.0993476
0.0993469
0.0993461
0.0993453
0.0993443
0.0993432
0.0993418
0.0993399
0.0993366
0.0993306
0.0993186
0.0992935
0.0992414
0.0991353
0.098925
0.128269
0.1285
0.128617
0.128675
0.128702
0.128716
0.128722
0.128726
0.128728
0.12873
0.128731
0.128732
0.128733
0.128733
0.128734
0.128735
0.128736
0.128736
0.128737
0.128737
0.128738
0.128738
0.128739
0.128739
0.128739
0.128739
0.12874
0.12874
0.12874
0.12874
0.12874
0.12874
0.12874
0.12874
0.128739
0.128739
0.128739
0.128739
0.128738
0.128738
0.128737
0.128737
0.128736
0.128736
0.128735
0.128734
0.128733
0.128733
0.128732
0.128731
0.12873
0.128728
0.128726
0.128722
0.128716
0.128702
0.128675
0.128617
0.1285
0.128269
0.157413
0.157662
0.157788
0.15785
0.15788
0.157895
0.157902
0.157906
0.157908
0.15791
0.157911
0.157912
0.157913
0.157913
0.157914
0.157915
0.157916
0.157916
0.157917
0.157917
0.157918
0.157918
0.157919
0.157919
0.157919
0.15792
0.15792
0.15792
0.15792
0.15792
0.15792
0.15792
0.15792
0.15792
0.15792
0.157919
0.157919
0.157919
0.157918
0.157918
0.157917
0.157917
0.157916
0.157916
0.157915
0.157914
0.157913
0.157913
0.157912
0.157911
0.15791
0.157908
0.157906
0.157902
0.157895
0.15788
0.15785
0.157788
0.157662
0.157413
0.186041
0.186306
0.186441
0.186507
0.18654
0.186555
0.186563
0.186567
0.18657
0.186571
0.186573
0.186574
0.186575
0.186575
0.186576
0.186577
0.186577
0.186578
0.186579
0.186579
0.18658
0.18658
0.18658
0.186581
0.186581
0.186581
0.186582
0.186582
0.186582
0.186582
0.186582
0.186582
0.186582
0.186582
0.186581
0.186581
0.186581
0.18658
0.18658
0.18658
0.186579
0.186579
0.186578
0.186577
0.186577
0.186576
0.186575
0.186575
0.186574
0.186573
0.186571
0.18657
0.186567
0.186563
0.186555
0.18654
0.186507
0.186441
0.186306
0.186041
0.214135
0.214415
0.214558
0.214629
0.214664
0.214681
0.214689
0.214694
0.214696
0.214698
0.214699
0.2147
0.214701
0.214702
0.214703
0.214703
0.214704
0.214705
0.214705
0.214706
0.214706
0.214707
0.214707
0.214707
0.214708
0.214708
0.214708
0.214708
0.214708
0.214708
0.214708
0.214708
0.214708
0.214708
0.214708
0.214708
0.214707
0.214707
0.214707
0.214706
0.214706
0.214705
0.214705
0.214704
0.214703
0.214703
0.214702
0.214701
0.2147
0.214699
0.214698
0.214696
0.214694
0.214689
0.214681
0.214664
0.214629
0.214558
0.214415
0.214135
0.241735
0.242029
0.24218
0.242256
0.242293
0.242311
0.24232
0.242325
0.242328
0.24233
0.242331
0.242332
0.242333
0.242334
0.242334
0.242335
0.242336
0.242336
0.242337
0.242337
0.242338
0.242338
0.242339
0.242339
0.242339
0.24234
0.24234
0.24234
0.24234
0.24234
0.24234
0.24234
0.24234
0.24234
0.24234
0.242339
0.242339
0.242339
0.242338
0.242338
0.242337
0.242337
0.242336
0.242336
0.242335
0.242334
0.242334
0.242333
0.242332
0.242331
0.24233
0.242328
0.242325
0.24232
0.242311
0.242293
0.242256
0.24218
0.242029
0.241735
0.268867
0.269175
0.269334
0.269414
0.269454
0.269473
0.269483
0.269488
0.269491
0.269493
0.269494
0.269495
0.269496
0.269497
0.269497
0.269498
0.269499
0.269499
0.2695
0.2695
0.269501
0.269501
0.269502
0.269502
0.269502
0.269502
0.269503
0.269503
0.269503
0.269503
0.269503
0.269503
0.269503
0.269503
0.269502
0.269502
0.269502
0.269502
0.269501
0.269501
0.2695
0.2695
0.269499
0.269499
0.269498
0.269497
0.269497
0.269496
0.269495
0.269494
0.269493
0.269491
0.269488
0.269483
0.269473
0.269454
0.269414
0.269334
0.269175
0.268867
0.295535
0.295855
0.296022
0.296107
0.296149
0.29617
0.29618
0.296185
0.296189
0.29619
0.296192
0.296193
0.296194
0.296195
0.296195
0.296196
0.296197
0.296197
0.296198
0.296198
0.296199
0.296199
0.2962
0.2962
0.2962
0.2962
0.296201
0.296201
0.296201
0.296201
0.296201
0.296201
0.296201
0.296201
0.2962
0.2962
0.2962
0.2962
0.296199
0.296199
0.296198
0.296198
0.296197
0.296197
0.296196
0.296195
0.296195
0.296194
0.296193
0.296192
0.29619
0.296189
0.296185
0.29618
0.29617
0.296149
0.296107
0.296022
0.295855
0.295535
0.321731
0.322062
0.322236
0.322325
0.32237
0.322392
0.322403
0.322409
0.322412
0.322414
0.322416
0.322417
0.322418
0.322419
0.322419
0.32242
0.322421
0.322421
0.322422
0.322422
0.322423
0.322423
0.322423
0.322424
0.322424
0.322424
0.322424
0.322425
0.322425
0.322425
0.322425
0.322425
0.322425
0.322424
0.322424
0.322424
0.322424
0.322423
0.322423
0.322423
0.322422
0.322422
0.322421
0.322421
0.32242
0.322419
0.322419
0.322418
0.322417
0.322416
0.322414
0.322412
0.322409
0.322403
0.322392
0.32237
0.322325
0.322236
0.322062
0.321731
0.347439
0.34778
0.347961
0.348055
0.348102
0.348126
0.348138
0.348144
0.348147
0.34815
0.348151
0.348152
0.348153
0.348154
0.348155
0.348155
0.348156
0.348156
0.348157
0.348157
0.348158
0.348158
0.348159
0.348159
0.348159
0.348159
0.348159
0.34816
0.34816
0.34816
0.34816
0.34816
0.34816
0.348159
0.348159
0.348159
0.348159
0.348159
0.348158
0.348158
0.348157
0.348157
0.348156
0.348156
0.348155
0.348155
0.348154
0.348153
0.348152
0.348151
0.34815
0.348147
0.348144
0.348138
0.348126
0.348102
0.348055
0.347961
0.34778
0.347439
0.372643
0.372992
0.373181
0.373279
0.373329
0.373354
0.373366
0.373373
0.373377
0.373379
0.37338
0.373382
0.373382
0.373383
0.373384
0.373385
0.373385
0.373386
0.373386
0.373387
0.373387
0.373387
0.373388
0.373388
0.373388
0.373389
0.373389
0.373389
0.373389
0.373389
0.373389
0.373389
0.373389
0.373389
0.373389
0.373388
0.373388
0.373388
0.373387
0.373387
0.373387
0.373386
0.373386
0.373385
0.373385
0.373384
0.373383
0.373382
0.373382
0.37338
0.373379
0.373377
0.373373
0.373366
0.373354
0.373329
0.373279
0.373181
0.372992
0.372643
0.397326
0.397683
0.397878
0.39798
0.398032
0.398059
0.398072
0.398079
0.398083
0.398086
0.398087
0.398088
0.398089
0.39809
0.398091
0.398091
0.398092
0.398092
0.398093
0.398093
0.398094
0.398094
0.398094
0.398095
0.398095
0.398095
0.398095
0.398095
0.398096
0.398096
0.398096
0.398096
0.398095
0.398095
0.398095
0.398095
0.398095
0.398094
0.398094
0.398094
0.398093
0.398093
0.398092
0.398092
0.398091
0.398091
0.39809
0.398089
0.398088
0.398087
0.398086
0.398083
0.398079
0.398072
0.398059
0.398032
0.39798
0.397878
0.397683
0.397326
0.421472
0.421835
0.422036
0.422142
0.422197
0.422225
0.42224
0.422247
0.422252
0.422254
0.422256
0.422257
0.422258
0.422258
0.422259
0.42226
0.42226
0.422261
0.422261
0.422262
0.422262
0.422262
0.422263
0.422263
0.422263
0.422263
0.422264
0.422264
0.422264
0.422264
0.422264
0.422264
0.422264
0.422264
0.422263
0.422263
0.422263
0.422263
0.422262
0.422262
0.422262
0.422261
0.422261
0.42226
0.42226
0.422259
0.422258
0.422258
0.422257
0.422256
0.422254
0.422252
0.422247
0.42224
0.422225
0.422197
0.422142
0.422036
0.421835
0.421472
0.445067
0.445436
0.445642
0.445752
0.44581
0.445839
0.445855
0.445863
0.445867
0.44587
0.445871
0.445873
0.445873
0.445874
0.445875
0.445875
0.445876
0.445876
0.445877
0.445877
0.445878
0.445878
0.445878
0.445879
0.445879
0.445879
0.445879
0.445879
0.445879
0.445879
0.445879
0.445879
0.445879
0.445879
0.445879
0.445879
0.445879
0.445878
0.445878
0.445878
0.445877
0.445877
0.445876
0.445876
0.445875
0.445875
0.445874
0.445873
0.445873
0.445871
0.44587
0.445867
0.445863
0.445855
0.445839
0.44581
0.445752
0.445642
0.445436
0.445067
0.468098
0.468471
0.468682
0.468797
0.468857
0.468888
0.468904
0.468913
0.468918
0.46892
0.468922
0.468923
0.468924
0.468925
0.468925
0.468926
0.468926
0.468927
0.468927
0.468928
0.468928
0.468928
0.468929
0.468929
0.468929
0.468929
0.46893
0.46893
0.46893
0.46893
0.46893
0.46893
0.46893
0.46893
0.468929
0.468929
0.468929
0.468929
0.468928
0.468928
0.468928
0.468927
0.468927
0.468926
0.468926
0.468925
0.468925
0.468924
0.468923
0.468922
0.46892
0.468918
0.468913
0.468904
0.468888
0.468857
0.468797
0.468682
0.468471
0.468098
0.490555
0.490932
0.491147
0.491265
0.491328
0.491361
0.491378
0.491387
0.491392
0.491395
0.491397
0.491398
0.491399
0.491399
0.4914
0.491401
0.491401
0.491401
0.491402
0.491402
0.491403
0.491403
0.491403
0.491403
0.491404
0.491404
0.491404
0.491404
0.491404
0.491404
0.491404
0.491404
0.491404
0.491404
0.491404
0.491404
0.491403
0.491403
0.491403
0.491403
0.491402
0.491402
0.491401
0.491401
0.491401
0.4914
0.491399
0.491399
0.491398
0.491397
0.491395
0.491392
0.491387
0.491378
0.491361
0.491328
0.491265
0.491147
0.490932
0.490555
0.512428
0.512807
0.513027
0.513149
0.513214
0.513248
0.513266
0.513276
0.513281
0.513284
0.513286
0.513287
0.513288
0.513289
0.51329
0.51329
0.513291
0.513291
0.513291
0.513292
0.513292
0.513292
0.513293
0.513293
0.513293
0.513293
0.513293
0.513294
0.513294
0.513294
0.513294
0.513294
0.513294
0.513293
0.513293
0.513293
0.513293
0.513293
0.513292
0.513292
0.513292
0.513291
0.513291
0.513291
0.51329
0.51329
0.513289
0.513288
0.513287
0.513286
0.513284
0.513281
0.513276
0.513266
0.513248
0.513214
0.513149
0.513027
0.512807
0.512428
0.533711
0.534092
0.534315
0.53444
0.534508
0.534544
0.534563
0.534573
0.534579
0.534582
0.534584
0.534585
0.534586
0.534587
0.534587
0.534588
0.534588
0.534589
0.534589
0.534589
0.53459
0.53459
0.53459
0.53459
0.534591
0.534591
0.534591
0.534591
0.534591
0.534591
0.534591
0.534591
0.534591
0.534591
0.534591
0.534591
0.53459
0.53459
0.53459
0.53459
0.534589
0.534589
0.534589
0.534588
0.534588
0.534587
0.534587
0.534586
0.534585
0.534584
0.534582
0.534579
0.534573
0.534563
0.534544
0.534508
0.53444
0.534315
0.534092
0.533711
0.554398
0.554779
0.555006
0.555134
0.555204
0.555242
0.555262
0.555273
0.555279
0.555282
0.555284
0.555285
0.555286
0.555287
0.555288
0.555288
0.555288
0.555289
0.555289
0.555289
0.55529
0.55529
0.55529
0.55529
0.555291
0.555291
0.555291
0.555291
0.555291
0.555291
0.555291
0.555291
0.555291
0.555291
0.555291
0.555291
0.55529
0.55529
0.55529
0.55529
0.555289
0.555289
0.555289
0.555288
0.555288
0.555288
0.555287
0.555286
0.555285
0.555284
0.555282
0.555279
0.555273
0.555262
0.555242
0.555204
0.555134
0.555006
0.554779
0.554398
0.574486
0.574867
0.575096
0.575227
0.575299
0.575339
0.57536
0.575371
0.575378
0.575381
0.575383
0.575385
0.575386
0.575386
0.575387
0.575387
0.575388
0.575388
0.575388
0.575389
0.575389
0.575389
0.575389
0.57539
0.57539
0.57539
0.57539
0.57539
0.57539
0.57539
0.57539
0.57539
0.57539
0.57539
0.57539
0.57539
0.57539
0.575389
0.575389
0.575389
0.575389
0.575388
0.575388
0.575388
0.575387
0.575387
0.575386
0.575386
0.575385
0.575383
0.575381
0.575378
0.575371
0.57536
0.575339
0.575299
0.575227
0.575096
0.574867
0.574486
0.593972
0.594352
0.594583
0.594717
0.594791
0.594832
0.594855
0.594867
0.594873
0.594877
0.59488
0.594881
0.594882
0.594882
0.594883
0.594883
0.594884
0.594884
0.594884
0.594885
0.594885
0.594885
0.594885
0.594886
0.594886
0.594886
0.594886
0.594886
0.594886
0.594886
0.594886
0.594886
0.594886
0.594886
0.594886
0.594886
0.594886
0.594885
0.594885
0.594885
0.594885
0.594884
0.594884
0.594884
0.594883
0.594883
0.594882
0.594882
0.594881
0.59488
0.594877
0.594873
0.594867
0.594855
0.594832
0.594791
0.594717
0.594583
0.594352
0.593972
0.612856
0.613234
0.613467
0.613603
0.61368
0.613723
0.613746
0.613759
0.613766
0.61377
0.613772
0.613774
0.613775
0.613775
0.613776
0.613776
0.613776
0.613777
0.613777
0.613777
0.613777
0.613778
0.613778
0.613778
0.613778
0.613778
0.613778
0.613778
0.613779
0.613779
0.613779
0.613779
0.613778
0.613778
0.613778
0.613778
0.613778
0.613778
0.613778
0.613777
0.613777
0.613777
0.613777
0.613776
0.613776
0.613776
0.613775
0.613775
0.613774
0.613772
0.61377
0.613766
0.613759
0.613746
0.613723
0.61368
0.613603
0.613467
0.613234
0.612856
0.631139
0.631514
0.631748
0.631887
0.631966
0.63201
0.632035
0.632048
0.632056
0.63206
0.632062
0.632064
0.632065
0.632065
0.632066
0.632066
0.632067