/*--------------------------------*- C++ -*----------------------------------*\
| =========                 |                                                 |
| \\      /  F ield         | foam-extend: Open Source CFD                    |
|  \\    /   O peration     | Version:     4.0                                |
|   \\  /    A nd           | Web:         http://www.foam-extend.org         |
|    \\/     M anipulation  |                                                 |
\*---------------------------------------------------------------------------*/
FoamFile
{
    version     2.0;
    format      ascii;
    class       volScalarField;
    location    "490";
    object      cPlus;
}
// * * * * * * * * * * * * * * * * * * * * * * * * * * * * * * * * * * * * * //

dimensions      [0 0 0 0 0 0 0];

internalField   nonuniform List<scalar> 
6960
(
0.191773
0.19169
0.19164
0.191615
0.191604
0.191598
0.191595
0.191594
0.191594
0.191593
0.191593
0.191593
0.191593
0.191593
0.191593
0.191593
0.191593
0.191593
0.191593
0.191593
0.191593
0.191593
0.191593
0.191593
0.191594
0.191594
0.191594
0.191594
0.191594
0.191594
0.191594
0.191594
0.191594
0.191594
0.191594
0.191594
0.191593
0.191593
0.191593
0.191593
0.191593
0.191593
0.191593
0.191593
0.191593
0.191593
0.191593
0.191593
0.191593
0.191593
0.191593
0.191594
0.191594
0.191595
0.191598
0.191604
0.191615
0.19164
0.19169
0.191773
0.0472959
0.0472787
0.0472674
0.0472617
0.0472589
0.0472576
0.047257
0.0472568
0.0472567
0.0472566
0.0472566
0.0472566
0.0472567
0.0472567
0.0472567
0.0472567
0.0472568
0.0472568
0.0472568
0.0472568
0.0472569
0.0472569
0.0472569
0.0472569
0.0472569
0.047257
0.047257
0.047257
0.047257
0.047257
0.047257
0.047257
0.047257
0.047257
0.047257
0.0472569
0.0472569
0.0472569
0.0472569
0.0472569
0.0472568
0.0472568
0.0472568
0.0472568
0.0472567
0.0472567
0.0472567
0.0472567
0.0472566
0.0472566
0.0472566
0.0472567
0.0472568
0.047257
0.0472576
0.0472589
0.0472617
0.0472674
0.0472787
0.0472959
0.0265523
0.0265586
0.0265609
0.0265619
0.0265624
0.0265626
0.0265627
0.0265628
0.0265628
0.0265629
0.0265629
0.026563
0.026563
0.026563
0.0265631
0.0265631
0.0265631
0.0265632
0.0265632
0.0265632
0.0265632
0.0265633
0.0265633
0.0265633
0.0265633
0.0265633
0.0265633
0.0265633
0.0265633
0.0265633
0.0265633
0.0265633
0.0265633
0.0265633
0.0265633
0.0265633
0.0265633
0.0265633
0.0265633
0.0265632
0.0265632
0.0265632
0.0265632
0.0265631
0.0265631
0.0265631
0.026563
0.026563
0.026563
0.0265629
0.0265629
0.0265628
0.0265628
0.0265627
0.0265626
0.0265624
0.0265619
0.0265609
0.0265586
0.0265523
0.0237721
0.0237845
0.0237903
0.0237931
0.0237944
0.023795
0.0237953
0.0237954
0.0237955
0.0237956
0.0237956
0.0237957
0.0237957
0.0237958
0.0237958
0.0237958
0.0237959
0.0237959
0.0237959
0.0237959
0.023796
0.023796
0.023796
0.023796
0.023796
0.023796
0.023796
0.0237961
0.0237961
0.0237961
0.0237961
0.0237961
0.0237961
0.023796
0.023796
0.023796
0.023796
0.023796
0.023796
0.023796
0.0237959
0.0237959
0.0237959
0.0237959
0.0237958
0.0237958
0.0237958
0.0237957
0.0237957
0.0237956
0.0237956
0.0237955
0.0237954
0.0237953
0.023795
0.0237944
0.0237931
0.0237903
0.0237845
0.0237721
0.0237359
0.0237499
0.0237566
0.0237598
0.0237613
0.023762
0.0237624
0.0237625
0.0237626
0.0237627
0.0237628
0.0237628
0.0237629
0.0237629
0.0237629
0.023763
0.023763
0.023763
0.0237631
0.0237631
0.0237631
0.0237631
0.0237632
0.0237632
0.0237632
0.0237632
0.0237632
0.0237632
0.0237632
0.0237632
0.0237632
0.0237632
0.0237632
0.0237632
0.0237632
0.0237632
0.0237632
0.0237632
0.0237631
0.0237631
0.0237631
0.0237631
0.023763
0.023763
0.023763
0.0237629
0.0237629
0.0237629
0.0237628
0.0237628
0.0237627
0.0237626
0.0237625
0.0237624
0.023762
0.0237613
0.0237598
0.0237566
0.0237499
0.0237359
0.0241404
0.024155
0.0241621
0.0241655
0.0241671
0.0241678
0.0241682
0.0241684
0.0241685
0.0241686
0.0241686
0.0241687
0.0241687
0.0241688
0.0241688
0.0241688
0.0241689
0.0241689
0.0241689
0.024169
0.024169
0.024169
0.024169
0.024169
0.024169
0.0241691
0.0241691
0.0241691
0.0241691
0.0241691
0.0241691
0.0241691
0.0241691
0.0241691
0.0241691
0.024169
0.024169
0.024169
0.024169
0.024169
0.024169
0.0241689
0.0241689
0.0241689
0.0241688
0.0241688
0.0241688
0.0241687
0.0241687
0.0241686
0.0241686
0.0241685
0.0241684
0.0241682
0.0241678
0.0241671
0.0241655
0.0241621
0.024155
0.0241404
0.0246492
0.0246644
0.0246718
0.0246753
0.024677
0.0246777
0.0246781
0.0246783
0.0246784
0.0246785
0.0246786
0.0246786
0.0246787
0.0246787
0.0246788
0.0246788
0.0246788
0.0246789
0.0246789
0.0246789
0.0246789
0.024679
0.024679
0.024679
0.024679
0.024679
0.024679
0.0246791
0.0246791
0.0246791
0.0246791
0.0246791
0.0246791
0.024679
0.024679
0.024679
0.024679
0.024679
0.024679
0.0246789
0.0246789
0.0246789
0.0246789
0.0246788
0.0246788
0.0246788
0.0246787
0.0246787
0.0246786
0.0246786
0.0246785
0.0246784
0.0246783
0.0246781
0.0246777
0.024677
0.0246753
0.0246718
0.0246644
0.0246492
0.0252205
0.0252363
0.025244
0.0252477
0.0252494
0.0252502
0.0252506
0.0252508
0.0252509
0.025251
0.0252511
0.0252511
0.0252512
0.0252512
0.0252513
0.0252513
0.0252513
0.0252514
0.0252514
0.0252514
0.0252515
0.0252515
0.0252515
0.0252515
0.0252515
0.0252516
0.0252516
0.0252516
0.0252516
0.0252516
0.0252516
0.0252516
0.0252516
0.0252516
0.0252516
0.0252515
0.0252515
0.0252515
0.0252515
0.0252515
0.0252514
0.0252514
0.0252514
0.0252513
0.0252513
0.0252513
0.0252512
0.0252512
0.0252511
0.0252511
0.025251
0.0252509
0.0252508
0.0252506
0.0252502
0.0252494
0.0252477
0.025244
0.0252363
0.0252205
0.0258563
0.0258728
0.0258808
0.0258846
0.0258864
0.0258873
0.0258877
0.0258879
0.0258881
0.0258881
0.0258882
0.0258883
0.0258883
0.0258884
0.0258884
0.0258885
0.0258885
0.0258885
0.0258886
0.0258886
0.0258886
0.0258886
0.0258887
0.0258887
0.0258887
0.0258887
0.0258887
0.0258887
0.0258887
0.0258887
0.0258887
0.0258887
0.0258887
0.0258887
0.0258887
0.0258887
0.0258887
0.0258887
0.0258886
0.0258886
0.0258886
0.0258886
0.0258885
0.0258885
0.0258885
0.0258884
0.0258884
0.0258883
0.0258883
0.0258882
0.0258881
0.0258881
0.0258879
0.0258877
0.0258873
0.0258864
0.0258846
0.0258808
0.0258728
0.0258563
0.0265666
0.0265839
0.0265923
0.0265963
0.0265982
0.0265991
0.0265995
0.0265998
0.0265999
0.0266
0.0266001
0.0266001
0.0266002
0.0266002
0.0266003
0.0266003
0.0266004
0.0266004
0.0266004
0.0266005
0.0266005
0.0266005
0.0266006
0.0266006
0.0266006
0.0266006
0.0266006
0.0266006
0.0266006
0.0266006
0.0266006
0.0266006
0.0266006
0.0266006
0.0266006
0.0266006
0.0266006
0.0266006
0.0266005
0.0266005
0.0266005
0.0266004
0.0266004
0.0266004
0.0266003
0.0266003
0.0266002
0.0266002
0.0266001
0.0266001
0.0266
0.0265999
0.0265998
0.0265995
0.0265991
0.0265982
0.0265963
0.0265923
0.0265839
0.0265666
0.0273651
0.0273833
0.0273922
0.0273964
0.0273984
0.0273994
0.0273998
0.0274001
0.0274002
0.0274003
0.0274004
0.0274004
0.0274005
0.0274006
0.0274006
0.0274006
0.0274007
0.0274007
0.0274008
0.0274008
0.0274008
0.0274009
0.0274009
0.0274009
0.0274009
0.0274009
0.027401
0.027401
0.027401
0.027401
0.027401
0.027401
0.027401
0.027401
0.0274009
0.0274009
0.0274009
0.0274009
0.0274009
0.0274008
0.0274008
0.0274008
0.0274007
0.0274007
0.0274006
0.0274006
0.0274006
0.0274005
0.0274004
0.0274004
0.0274003
0.0274002
0.0274001
0.0273998
0.0273994
0.0273984
0.0273964
0.0273922
0.0273833
0.0273651
0.0282693
0.0282887
0.028298
0.0283025
0.0283046
0.0283056
0.0283061
0.0283064
0.0283065
0.0283066
0.0283067
0.0283068
0.0283069
0.0283069
0.028307
0.028307
0.0283071
0.0283071
0.0283071
0.0283072
0.0283072
0.0283072
0.0283073
0.0283073
0.0283073
0.0283073
0.0283074
0.0283074
0.0283074
0.0283074
0.0283074
0.0283074
0.0283074
0.0283074
0.0283073
0.0283073
0.0283073
0.0283073
0.0283072
0.0283072
0.0283072
0.0283071
0.0283071
0.0283071
0.028307
0.028307
0.0283069
0.0283069
0.0283068
0.0283067
0.0283066
0.0283065
0.0283064
0.0283061
0.0283056
0.0283046
0.0283025
0.028298
0.0282887
0.0282693
0.029302
0.0293227
0.0293326
0.0293374
0.0293397
0.0293408
0.0293413
0.0293416
0.0293418
0.0293419
0.029342
0.029342
0.0293421
0.0293422
0.0293422
0.0293423
0.0293423
0.0293424
0.0293424
0.0293425
0.0293425
0.0293425
0.0293426
0.0293426
0.0293426
0.0293426
0.0293426
0.0293426
0.0293427
0.0293427
0.0293427
0.0293427
0.0293426
0.0293426
0.0293426
0.0293426
0.0293426
0.0293426
0.0293425
0.0293425
0.0293425
0.0293424
0.0293424
0.0293423
0.0293423
0.0293422
0.0293422
0.0293421
0.029342
0.029342
0.0293419
0.0293418
0.0293416
0.0293413
0.0293408
0.0293397
0.0293374
0.0293326
0.0293227
0.029302
0.0304933
0.0305155
0.0305262
0.0305314
0.0305338
0.030535
0.0305355
0.0305358
0.030536
0.0305361
0.0305362
0.0305363
0.0305364
0.0305365
0.0305365
0.0305366
0.0305366
0.0305367
0.0305367
0.0305368
0.0305368
0.0305369
0.0305369
0.0305369
0.0305369
0.030537
0.030537
0.030537
0.030537
0.030537
0.030537
0.030537
0.030537
0.030537
0.030537
0.0305369
0.0305369
0.0305369
0.0305369
0.0305368
0.0305368
0.0305367
0.0305367
0.0305366
0.0305366
0.0305365
0.0305365
0.0305364
0.0305363
0.0305362
0.0305361
0.030536
0.0305358
0.0305355
0.030535
0.0305338
0.0305314
0.0305262
0.0305155
0.0304933
0.0318836
0.0319077
0.0319194
0.031925
0.0319277
0.0319289
0.0319295
0.0319299
0.0319301
0.0319302
0.0319303
0.0319304
0.0319305
0.0319305
0.0319306
0.0319307
0.0319307
0.0319308
0.0319308
0.0319309
0.0319309
0.031931
0.031931
0.031931
0.0319311
0.0319311
0.0319311
0.0319311
0.0319311
0.0319311
0.0319311
0.0319311
0.0319311
0.0319311
0.0319311
0.0319311
0.031931
0.031931
0.031931
0.0319309
0.0319309
0.0319308
0.0319308
0.0319307
0.0319307
0.0319306
0.0319305
0.0319305
0.0319304
0.0319303
0.0319302
0.0319301
0.0319299
0.0319295
0.0319289
0.0319277
0.031925
0.0319194
0.0319077
0.0318836
0.0335293
0.0335557
0.0335685
0.0335747
0.0335776
0.033579
0.0335797
0.0335801
0.0335803
0.0335804
0.0335806
0.0335807
0.0335808
0.0335808
0.0335809
0.033581
0.0335811
0.0335811
0.0335812
0.0335812
0.0335813
0.0335813
0.0335814
0.0335814
0.0335814
0.0335815
0.0335815
0.0335815
0.0335815
0.0335815
0.0335815
0.0335815
0.0335815
0.0335815
0.0335815
0.0335814
0.0335814
0.0335814
0.0335813
0.0335813
0.0335812
0.0335812
0.0335811
0.0335811
0.033581
0.0335809
0.0335808
0.0335808
0.0335807
0.0335806
0.0335804
0.0335803
0.0335801
0.0335797
0.033579
0.0335776
0.0335747
0.0335685
0.0335557
0.0335293
0.0355102
0.0355398
0.0355541
0.035561
0.0355642
0.0355658
0.0355666
0.035567
0.0355672
0.0355674
0.0355675
0.0355676
0.0355677
0.0355678
0.0355679
0.035568
0.0355681
0.0355682
0.0355682
0.0355683
0.0355683
0.0355684
0.0355684
0.0355685
0.0355685
0.0355685
0.0355686
0.0355686
0.0355686
0.0355686
0.0355686
0.0355686
0.0355686
0.0355686
0.0355685
0.0355685
0.0355685
0.0355684
0.0355684
0.0355683
0.0355683
0.0355682
0.0355682
0.0355681
0.035568
0.0355679
0.0355678
0.0355677
0.0355676
0.0355675
0.0355674
0.0355672
0.035567
0.0355666
0.0355658
0.0355642
0.035561
0.0355541
0.0355398
0.0355102
0.0379445
0.0379781
0.0379943
0.0380022
0.0380059
0.0380077
0.0380086
0.0380091
0.0380094
0.0380095
0.0380097
0.0380098
0.03801
0.0380101
0.0380102
0.0380103
0.0380104
0.0380104
0.0380105
0.0380106
0.0380107
0.0380107
0.0380108
0.0380108
0.0380109
0.0380109
0.0380109
0.0380109
0.0380109
0.038011
0.038011
0.0380109
0.0380109
0.0380109
0.0380109
0.0380109
0.0380108
0.0380108
0.0380107
0.0380107
0.0380106
0.0380105
0.0380104
0.0380104
0.0380103
0.0380102
0.0380101
0.03801
0.0380098
0.0380097
0.0380095
0.0380094
0.0380091
0.0380086
0.0380077
0.0380059
0.0380022
0.0379943
0.0379781
0.0379445
0.0410109
0.0410499
0.0410689
0.0410781
0.0410825
0.0410846
0.0410856
0.0410861
0.0410865
0.0410867
0.0410869
0.041087
0.0410872
0.0410873
0.0410874
0.0410876
0.0410877
0.0410878
0.0410879
0.041088
0.041088
0.0410881
0.0410882
0.0410882
0.0410883
0.0410883
0.0410883
0.0410884
0.0410884
0.0410884
0.0410884
0.0410884
0.0410884
0.0410883
0.0410883
0.0410883
0.0410882
0.0410882
0.0410881
0.041088
0.041088
0.0410879
0.0410878
0.0410877
0.0410876
0.0410874
0.0410873
0.0410872
0.041087
0.0410869
0.0410867
0.0410865
0.0410861
0.0410856
0.0410846
0.0410825
0.0410781
0.0410689
0.0410499
0.0410109
0.0449849
0.0450317
0.0450545
0.0450656
0.0450709
0.0450734
0.0450746
0.0450753
0.0450757
0.045076
0.0450762
0.0450764
0.0450766
0.0450767
0.0450769
0.045077
0.0450772
0.0450773
0.0450774
0.0450775
0.0450776
0.0450777
0.0450778
0.0450779
0.0450779
0.045078
0.045078
0.045078
0.045078
0.0450781
0.0450781
0.045078
0.045078
0.045078
0.045078
0.0450779
0.0450779
0.0450778
0.0450777
0.0450776
0.0450775
0.0450774
0.0450773
0.0450772
0.045077
0.0450769
0.0450767
0.0450766
0.0450764
0.0450762
0.045076
0.0450757
0.0450753
0.0450746
0.0450734
0.0450709
0.0450656
0.0450545
0.0450317
0.0449849
0.0502847
0.0503426
0.0503709
0.0503847
0.0503913
0.0503944
0.050396
0.0503968
0.0503973
0.0503977
0.050398
0.0503982
0.0503985
0.0503987
0.0503989
0.050399
0.0503992
0.0503994
0.0503995
0.0503996
0.0503998
0.0503999
0.0504
0.0504001
0.0504001
0.0504002
0.0504003
0.0504003
0.0504003
0.0504003
0.0504003
0.0504003
0.0504003
0.0504003
0.0504002
0.0504001
0.0504001
0.0504
0.0503999
0.0503998
0.0503996
0.0503995
0.0503994
0.0503992
0.050399
0.0503989
0.0503987
0.0503985
0.0503982
0.050398
0.0503977
0.0503973
0.0503968
0.050396
0.0503944
0.0503913
0.0503847
0.0503709
0.0503426
0.0502847
0.0575017
0.0575754
0.0576117
0.0576294
0.0576378
0.0576419
0.0576439
0.057645
0.0576456
0.0576461
0.0576465
0.0576468
0.0576471
0.0576473
0.0576476
0.0576478
0.057648
0.0576482
0.0576484
0.0576486
0.0576488
0.0576489
0.0576491
0.0576492
0.0576493
0.0576493
0.0576494
0.0576495
0.0576495
0.0576495
0.0576495
0.0576495
0.0576495
0.0576494
0.0576493
0.0576493
0.0576492
0.0576491
0.0576489
0.0576488
0.0576486
0.0576484
0.0576482
0.057648
0.0576478
0.0576476
0.0576473
0.0576471
0.0576468
0.0576465
0.0576461
0.0576456
0.057645
0.0576439
0.0576419
0.0576378
0.0576294
0.0576117
0.0575754
0.0575017
0.0673584
0.0674537
0.0675009
0.0675239
0.0675349
0.0675401
0.0675428
0.0675442
0.067545
0.0675456
0.0675461
0.0675465
0.0675469
0.0675473
0.0675476
0.0675479
0.0675482
0.0675485
0.0675487
0.0675489
0.0675491
0.0675493
0.0675495
0.0675497
0.0675498
0.0675499
0.06755
0.06755
0.0675501
0.0675501
0.0675501
0.0675501
0.06755
0.06755
0.0675499
0.0675498
0.0675497
0.0675495
0.0675493
0.0675491
0.0675489
0.0675487
0.0675485
0.0675482
0.0675479
0.0675476
0.0675473
0.0675469
0.0675465
0.0675461
0.0675456
0.067545
0.0675442
0.0675428
0.0675401
0.0675349
0.0675239
0.0675009
0.0674537
0.0673584
0.0805294
0.0806518
0.0807126
0.0807423
0.0807565
0.0807633
0.0807667
0.0807685
0.0807696
0.0807704
0.080771
0.0807715
0.080772
0.0807725
0.0807729
0.0807733
0.0807737
0.080774
0.0807743
0.0807746
0.0807749
0.0807751
0.0807753
0.0807755
0.0807757
0.0807758
0.0807759
0.080776
0.0807761
0.0807761
0.0807761
0.0807761
0.080776
0.0807759
0.0807758
0.0807757
0.0807755
0.0807753
0.0807751
0.0807749
0.0807746
0.0807743
0.080774
0.0807737
0.0807733
0.0807729
0.0807725
0.080772
0.0807715
0.080771
0.0807704
0.0807696
0.0807685
0.0807667
0.0807633
0.0807565
0.0807423
0.0807126
0.0806518
0.0805294
0.0973567
0.0975097
0.0975858
0.0976231
0.0976409
0.0976495
0.0976538
0.0976561
0.0976575
0.0976584
0.0976592
0.0976599
0.0976604
0.097661
0.0976615
0.097662
0.0976624
0.0976628
0.0976632
0.0976636
0.0976639
0.0976642
0.0976645
0.0976647
0.0976649
0.0976651
0.0976652
0.0976653
0.0976654
0.0976654
0.0976654
0.0976654
0.0976653
0.0976652
0.0976651
0.0976649
0.0976647
0.0976645
0.0976642
0.0976639
0.0976636
0.0976632
0.0976628
0.0976624
0.097662
0.0976615
0.097661
0.0976604
0.0976599
0.0976592
0.0976584
0.0976575
0.0976561
0.0976538
0.0976495
0.0976409
0.0976231
0.0975858
0.0975097
0.0973567
0.117641
0.117825
0.117917
0.117962
0.117983
0.117994
0.117999
0.118002
0.118003
0.118004
0.118005
0.118006
0.118007
0.118007
0.118008
0.118009
0.118009
0.11801
0.11801
0.11801
0.118011
0.118011
0.118011
0.118012
0.118012
0.118012
0.118012
0.118012
0.118012
0.118012
0.118012
0.118012
0.118012
0.118012
0.118012
0.118012
0.118012
0.118011
0.118011
0.118011
0.11801
0.11801
0.11801
0.118009
0.118009
0.118008
0.118007
0.118007
0.118006
0.118005
0.118004
0.118003
0.118002
0.117999
0.117994
0.117983
0.117962
0.117917
0.117825
0.117641
0.140695
0.140907
0.141013
0.141066
0.141091
0.141103
0.141109
0.141112
0.141114
0.141115
0.141116
0.141117
0.141118
0.141119
0.141119
0.14112
0.141121
0.141121
0.141122
0.141122
0.141122
0.141123
0.141123
0.141123
0.141124
0.141124
0.141124
0.141124
0.141124
0.141124
0.141124
0.141124
0.141124
0.141124
0.141124
0.141124
0.141123
0.141123
0.141123
0.141122
0.141122
0.141122
0.141121
0.141121
0.14112
0.141119
0.141119
0.141118
0.141117
0.141116
0.141115
0.141114
0.141112
0.141109
0.141103
0.141091
0.141066
0.141013
0.140907
0.140695
0.165624
0.165861
0.16598
0.166038
0.166067
0.16608
0.166087
0.166091
0.166093
0.166094
0.166095
0.166096
0.166097
0.166098
0.166099
0.166099
0.1661
0.1661
0.166101
0.166101
0.166102
0.166102
0.166103
0.166103
0.166103
0.166103
0.166104
0.166104
0.166104
0.166104
0.166104
0.166104
0.166104
0.166104
0.166103
0.166103
0.166103
0.166103
0.166102
0.166102
0.166101
0.166101
0.1661
0.1661
0.166099
0.166099
0.166098
0.166097
0.166096
0.166095
0.166094
0.166093
0.166091
0.166087
0.16608
0.166067
0.166038
0.16598
0.165861
0.165624
0.191616
0.191874
0.192004
0.192068
0.1921
0.192115
0.192122
0.192126
0.192129
0.19213
0.192131
0.192132
0.192133
0.192134
0.192135
0.192135
0.192136
0.192137
0.192137
0.192138
0.192138
0.192139
0.192139
0.192139
0.19214
0.19214
0.19214
0.19214
0.19214
0.19214
0.19214
0.19214
0.19214
0.19214
0.19214
0.19214
0.192139
0.192139
0.192139
0.192138
0.192138
0.192137
0.192137
0.192136
0.192135
0.192135
0.192134
0.192133
0.192132
0.192131
0.19213
0.192129
0.192126
0.192122
0.192115
0.1921
0.192068
0.192004
0.191874
0.191616
0.218083
0.218358
0.218499
0.218568
0.218602
0.218619
0.218627
0.218632
0.218634
0.218636
0.218637
0.218638
0.218639
0.21864
0.21864
0.218641
0.218642
0.218642
0.218643
0.218643
0.218644
0.218644
0.218645
0.218645
0.218645
0.218645
0.218646
0.218646
0.218646
0.218646
0.218646
0.218646
0.218646
0.218646
0.218645
0.218645
0.218645
0.218645
0.218644
0.218644
0.218643
0.218643
0.218642
0.218642
0.218641
0.21864
0.21864
0.218639
0.218638
0.218637
0.218636
0.218634
0.218632
0.218627
0.218619
0.218602
0.218568
0.218499
0.218358
0.218083
0.24465
0.244941
0.245091
0.245166
0.245202
0.24522
0.245229
0.245234
0.245237
0.245238
0.24524
0.245241
0.245242
0.245242
0.245243
0.245244
0.245244
0.245245
0.245246
0.245246
0.245247
0.245247
0.245247
0.245248
0.245248
0.245248
0.245248
0.245249
0.245249
0.245249
0.245249
0.245249
0.245249
0.245248
0.245248
0.245248
0.245248
0.245247
0.245247
0.245247
0.245246
0.245246
0.245245
0.245244
0.245244
0.245243
0.245242
0.245242
0.245241
0.24524
0.245238
0.245237
0.245234
0.245229
0.24522
0.245202
0.245166
0.245091
0.244941
0.24465
0.271095
0.271401
0.271559
0.271639
0.271678
0.271697
0.271707
0.271712
0.271715
0.271717
0.271718
0.271719
0.27172
0.271721
0.271722
0.271722
0.271723
0.271724
0.271724
0.271725
0.271725
0.271725
0.271726
0.271726
0.271726
0.271727
0.271727
0.271727
0.271727
0.271727
0.271727
0.271727
0.271727
0.271727
0.271727
0.271726
0.271726
0.271726
0.271725
0.271725
0.271725
0.271724
0.271724
0.271723
0.271722
0.271722
0.271721
0.27172
0.271719
0.271718
0.271717
0.271715
0.271712
0.271707
0.271697
0.271678
0.271639
0.271559
0.271401
0.271095
0.297285
0.297604
0.29777
0.297854
0.297896
0.297917
0.297927
0.297933
0.297936
0.297938
0.297939
0.29794
0.297941
0.297942
0.297942
0.297943
0.297944
0.297944
0.297945
0.297945
0.297946
0.297946
0.297946
0.297947
0.297947
0.297947
0.297947
0.297948
0.297948
0.297948
0.297948
0.297948
0.297948
0.297947
0.297947
0.297947
0.297947
0.297946
0.297946
0.297946
0.297945
0.297945
0.297944
0.297944
0.297943
0.297942
0.297942
0.297941
0.29794
0.297939
0.297938
0.297936
0.297933
0.297927
0.297917
0.297896
0.297854
0.29777
0.297604
0.297285
0.323134
0.323464
0.323637
0.323726
0.323771
0.323793
0.323804
0.32381
0.323813
0.323815
0.323817
0.323818
0.323819
0.323819
0.32382
0.323821
0.323821
0.323822
0.323823
0.323823
0.323823
0.323824
0.323824
0.323825
0.323825
0.323825
0.323825
0.323825
0.323825
0.323825
0.323825
0.323825
0.323825
0.323825
0.323825
0.323825
0.323825
0.323824
0.323824
0.323823
0.323823
0.323823
0.323822
0.323821
0.323821
0.32382
0.323819
0.323819
0.323818
0.323817
0.323815
0.323813
0.32381
0.323804
0.323793
0.323771
0.323726
0.323637
0.323464
0.323134
0.348582
0.348922
0.349103
0.349197
0.349244
0.349268
0.34928
0.349286
0.349289
0.349291
0.349293
0.349294
0.349295
0.349296
0.349296
0.349297
0.349297
0.349298
0.349299
0.349299
0.349299
0.3493
0.3493
0.3493
0.349301
0.349301
0.349301
0.349301
0.349301
0.349301
0.349301
0.349301
0.349301
0.349301
0.349301
0.349301
0.3493
0.3493
0.3493
0.349299
0.349299
0.349299
0.349298
0.349297
0.349297
0.349296
0.349296
0.349295
0.349294
0.349293
0.349291
0.349289
0.349286
0.34928
0.349268
0.349244
0.349197
0.349103
0.348922
0.348582
0.373587
0.373936
0.374124
0.374222
0.374272
0.374297
0.374309
0.374316
0.37432
0.374322
0.374323
0.374325
0.374325
0.374326
0.374327
0.374328
0.374328
0.374329
0.374329
0.37433
0.37433
0.37433
0.374331
0.374331
0.374331
0.374332
0.374332
0.374332
0.374332
0.374332
0.374332
0.374332
0.374332
0.374332
0.374332
0.374331
0.374331
0.374331
0.37433
0.37433
0.37433
0.374329
0.374329
0.374328
0.374328
0.374327
0.374326
0.374325
0.374325
0.374323
0.374322
0.37432
0.374316
0.374309
0.374297
0.374272
0.374222
0.374124
0.373936
0.373587
0.398114
0.398471
0.398665
0.398768
0.39882
0.398847
0.39886
0.398867
0.398871
0.398873
0.398875
0.398876
0.398877
0.398878
0.398878
0.398879
0.39888
0.39888
0.398881
0.398881
0.398881
0.398882
0.398882
0.398882
0.398883
0.398883
0.398883
0.398883
0.398883
0.398883
0.398883
0.398883
0.398883
0.398883
0.398883
0.398883
0.398882
0.398882
0.398882
0.398881
0.398881
0.398881
0.39888
0.39888
0.398879
0.398878
0.398878
0.398877
0.398876
0.398875
0.398873
0.398871
0.398867
0.39886
0.398847
0.39882
0.398768
0.398665
0.398471
0.398114
0.422137
0.4225
0.4227
0.422807
0.422862
0.42289
0.422904
0.422912
0.422916
0.422918
0.42292
0.422921
0.422922
0.422923
0.422923
0.422924
0.422924
0.422925
0.422925
0.422926
0.422926
0.422927
0.422927
0.422927
0.422927
0.422928
0.422928
0.422928
0.422928
0.422928
0.422928
0.422928
0.422928
0.422928
0.422928
0.422927
0.422927
0.422927
0.422927
0.422926
0.422926
0.422925
0.422925
0.422924
0.422924
0.422923
0.422923
0.422922
0.422921
0.42292
0.422918
0.422916
0.422912
0.422904
0.42289
0.422862
0.422807
0.4227
0.4225
0.422137
0.445632
0.446001
0.446207
0.446317
0.446374
0.446404
0.446419
0.446427
0.446432
0.446434
0.446436
0.446437
0.446438
0.446439
0.44644
0.44644
0.446441
0.446441
0.446442
0.446442
0.446442
0.446443
0.446443
0.446443
0.446444
0.446444
0.446444
0.446444
0.446444
0.446444
0.446444
0.446444
0.446444
0.446444
0.446444
0.446444
0.446443
0.446443
0.446443
0.446442
0.446442
0.446442
0.446441
0.446441
0.44644
0.44644
0.446439
0.446438
0.446437
0.446436
0.446434
0.446432
0.446427
0.446419
0.446404
0.446374
0.446317
0.446207
0.446001
0.445632
0.468582
0.468955
0.469166
0.46928
0.46934
0.469372
0.469388
0.469396
0.469401
0.469404
0.469405
0.469407
0.469408
0.469408
0.469409
0.469409
0.46941
0.46941
0.469411
0.469411
0.469412
0.469412
0.469412
0.469412
0.469413
0.469413
0.469413
0.469413
0.469413
0.469413
0.469413
0.469413
0.469413
0.469413
0.469413
0.469413
0.469412
0.469412
0.469412
0.469412
0.469411
0.469411
0.46941
0.46941
0.469409
0.469409
0.469408
0.469408
0.469407
0.469405
0.469404
0.469401
0.469396
0.469388
0.469372
0.46934
0.46928
0.469166
0.468955
0.468582
0.490972
0.491348
0.491564
0.491682
0.491744
0.491777
0.491794
0.491803
0.491808
0.491811
0.491813
0.491814
0.491815
0.491816
0.491817
0.491817
0.491818
0.491818
0.491818
0.491819
0.491819
0.491819
0.49182
0.49182
0.49182
0.49182
0.491821
0.491821
0.491821
0.491821
0.491821
0.491821
0.491821
0.491821
0.49182
0.49182
0.49182
0.49182
0.491819
0.491819
0.491819
0.491818
0.491818
0.491818
0.491817
0.491817
0.491816
0.491815
0.491814
0.491813
0.491811
0.491808
0.491803
0.491794
0.491777
0.491744
0.491682
0.491564
0.491348
0.490972
0.512789
0.513168
0.513388
0.51351
0.513575
0.513609
0.513627
0.513637
0.513642
0.513645
0.513647
0.513648
0.513649
0.51365
0.513651
0.513651
0.513652
0.513652
0.513652
0.513653
0.513653
0.513653
0.513654
0.513654
0.513654
0.513654
0.513654
0.513654
0.513654
0.513655
0.513655
0.513654
0.513654
0.513654
0.513654
0.513654
0.513654
0.513654
0.513653
0.513653
0.513653
0.513652
0.513652
0.513652
0.513651
0.513651
0.51365
0.513649
0.513648
0.513647
0.513645
0.513642
0.513637
0.513627
0.513609
0.513575
0.51351
0.513388
0.513168
0.512789
0.534025
0.534406
0.534629
0.534754
0.534822
0.534858
0.534877
0.534887
0.534893
0.534896
0.534898
0.534899
0.5349
0.534901
0.534901
0.534902
0.534902
0.534903
0.534903
0.534904
0.534904
0.534904
0.534904
0.534905
0.534905
0.534905
0.534905
0.534905
0.534905
0.534905
0.534905
0.534905
0.534905
0.534905
0.534905
0.534905
0.534905
0.534904
0.534904
0.534904
0.534904
0.534903
0.534903
0.534902
0.534902
0.534901
0.534901
0.5349
0.534899
0.534898
0.534896
0.534893
0.534887
0.534877
0.534858
0.534822
0.534754
0.534629
0.534406
0.534025
0.554673
0.555054
0.555281
0.555409
0.555479
0.555517
0.555537
0.555548
0.555553
0.555557
0.555559
0.55556
0.555561
0.555562
0.555562
0.555563
0.555563
0.555564
0.555564
0.555564
0.555565
0.555565
0.555565
0.555565
0.555565
0.555566
0.555566
0.555566
0.555566
0.555566
0.555566
0.555566
0.555566
0.555566
0.555566
0.555565
0.555565
0.555565
0.555565
0.555565
0.555564
0.555564
0.555564
0.555563
0.555563
0.555562
0.555562
0.555561
0.55556
0.555559
0.555557
0.555553
0.555548
0.555537
0.555517
0.555479
0.555409
0.555281
0.555054
0.554673
0.574727
0.575108
0.575337
0.575468
0.575541
0.57558
0.575601
0.575613
0.575619
0.575622
0.575625
0.575626
0.575627
0.575627
0.575628
0.575628
0.575629
0.575629
0.57563
0.57563
0.57563
0.57563
0.575631
0.575631
0.575631
0.575631
0.575631
0.575631
0.575631
0.575631
0.575631
0.575631
0.575631
0.575631
0.575631
0.575631
0.575631
0.575631
0.57563
0.57563
0.57563
0.57563
0.575629
0.575629
0.575628
0.575628
0.575627
0.575627
0.575626
0.575625
0.575622
0.575619
0.575613
0.575601
0.57558
0.575541
0.575468
0.575337
0.575108
0.574727
0.594184
0.594564
0.594795
0.594929
0.595004
0.595045
0.595067
0.595079
0.595086
0.59509
0.595092
0.595093
0.595094
0.595095
0.595096
0.595096
0.595096
0.595097
0.595097
0.595097
0.595097
0.595098
0.595098
0.595098
0.595098
0.595098
0.595098
0.595098
0.595099
0.595099
0.595099
0.595099
0.595098
0.595098
0.595098
0.595098
0.595098
0.595098
0.595098
0.595097
0.595097
0.595097
0.595097
0.595096
0.595096
0.595096
0.595095
0.595094
0.595093
0.595092
0.59509
0.595086
0.595079
0.595067
0.595045
0.595004
0.594929
0.594795
0.594564
0.594184
0.613044
0.613422
0.613655
0.613791
0.613868
0.61391
0.613934
0.613947
0.613954
0.613958
0.61396
0.613961
0.613962
0.613963
0.613964
0.613964
0.613964
0.613965
0.613965
0.613965
0.613965
0.613966
0.613966
0.613966
0.613966
0.613966
0.613966
0.613966
0.613966
0.613966
0.613966
0.613966
0.613966
0.613966
0.613966
0.613966
0.613966
0.613966
0.613966
0.613965
0.613965
0.613965
0.613965
0.613964
0.613964
0.613964
0.613963
0.613962
0.613961
0.61396
0.613958
0.613954
0.613947
0.613934
0.61391
0.613868
0.613791
0.613655
0.613422
0.613044
0.631306
0.631681
0.631915
0.632053
0.632133
0.632177
0.632201
0.632215
0.632222
0.632226
0.632229
0.63223
0.632231
0.632232
0.632233
0.632233
0.632233
0.632233
0.632234
0.632234
0.632234
0.632234
0.632234
0.632235
0.632235
0.632235
0.632235
0.632235
0.632235
0.632235
0.632235
0.632235
0.632235
0.632235
0.632235
0.632235
0.632235
0.632234
0.632234
0.632234
0.632234
0.632234
0.632233
0.632233
0.632233
0.632233
0.632232
0.632231
0.63223
0.632229
0.632226
0.632222
0.632215
0.632201
0.632177
0.632133
0.632053
0.631915
0.631681
0.631306
0.648972
0.649344
0.649578
0.649719
0.6498
0.649846
0.649871
0.649886
0.649893
0.649898
0.649901
0.649902
0.649903
0.649904
0.649904
0.649905
0.649905
0.649905
0.649905
0.649905
0.649906
0.649906
0.649906
0.649906
0.649906
0.649906
0.649906
0.649906
0.649906
0.649906
0.649906
0.649906
0.649906
0.649906
0.649906
0.649906
0.649906
0.649906
0.649906
0.649906
0.649905
0.649905
0.649905
0.649905
0.649905
0.649904
0.649904
0.649903
0.649902
0.649901
0.649898
0.649893
0.649886
0.649871
0.649846
0.6498
0.649719
0.649578
0.649344
0.648972
0.666045
0.666413
0.666648
0.66679
0.666873
0.666921
0.666947
0.666962
0.666971
0.666975
0.666978
0.66698
0.666981
0.666981
0.666982
0.666982
0.666982
0.666983
0.666983
0.666983
0.666983
0.666983
0.666983
0.666984
0.666984
0.666984
0.666984
0.666984
0.666984
0.666984
0.666984
0.666984
0.666984
0.666984
0.666984
0.666984
0.666984
0.666983
0.666983
0.666983
0.666983
0.666983
0.666983
0.666982
0.666982
0.666982
0.666981
0.666981
0.66698
0.666978
0.666975
0.666971
0.666962
0.666947
0.666921
0.666873
0.66679
0.666648
0.666413
0.666045
0.68253
0.682894
0.683128
0.683272
0.683357
0.683406
0.683434
0.683449
0.683458
0.683463
0.683466
0.683468
0.683469
0.68347
0.68347
0.68347
0.683471
0.683471
0.683471
0.683471
0.683471
0.683471
0.683471
0.683471
0.683472
0.683472
0.683472
0.683472
0.683472
0.683472
0.683472
0.683472
0.683472
0.683472
0.683472
0.683472
0.683471
0.683471
0.683471
0.683471
0.683471
0.683471
0.683471
0.683471
0.68347
0.68347
0.68347
0.683469
0.683468
0.683466
0.683463
0.683458
0.683449
0.683434
0.683406
0.683357
0.683272
0.683128
0.682894
0.68253
0.698433
0.698791
0.699025
0.69917
0.699257
0.699307
0.699336
0.699353
0.699362
0.699367
0.69937
0.699372
0.699373
0.699374
0.699374
0.699375
0.699375
0.699375
0.699375
0.699375
0.699375
0.699375
0.699375
0.699376
0.699376
0.699376
0.699376
0.699376
0.699376
0.699376
0.699376
0.699376
0.699376
0.699376
0.699376
0.699376
0.699376
0.699375
0.699375
0.699375
0.699375
0.699375
0.699375
0.699375
0.699375
0.699374
0.699374
0.699373
0.699372
0.69937
0.699367
0.699362
0.699353
0.699336
0.699307
0.699257
0.69917
0.699025