/*--------------------------------*- C++ -*----------------------------------*\
| =========                 |                                                 |
| \\      /  F ield         | foam-extend: Open Source CFD                    |
|  \\    /   O peration     | Version:     4.0                                |
|   \\  /    A nd           | Web:         http://www.foam-extend.org         |
|    \\/     M anipulation  |                                                 |
\*---------------------------------------------------------------------------*/
FoamFile
{
    version     2.0;
    format      ascii;
    class       volScalarField;
    location    "490";
    object      psiE;
}
// * * * * * * * * * * * * * * * * * * * * * * * * * * * * * * * * * * * * * //

dimensions      [0 0 0 0 0 0 0];

internalField   nonuniform List<scalar> 
6960
(
0.410807
0.410855
0.410883
0.410898
0.410905
0.410908
0.41091
0.410912
0.410913
0.410914
0.410914
0.410915
0.410916
0.410917
0.410918
0.410918
0.410919
0.41092
0.41092
0.410921
0.410921
0.410922
0.410922
0.410923
0.410923
0.410923
0.410924
0.410924
0.410924
0.410924
0.410924
0.410924
0.410924
0.410924
0.410923
0.410923
0.410923
0.410922
0.410922
0.410921
0.410921
0.41092
0.41092
0.410919
0.410918
0.410918
0.410917
0.410916
0.410915
0.410914
0.410914
0.410913
0.410912
0.41091
0.410908
0.410905
0.410898
0.410883
0.410855
0.410807
1.14139
1.14158
1.14169
1.14175
1.14178
1.14179
1.1418
1.1418
1.1418
1.14181
1.14181
1.14181
1.14182
1.14182
1.14182
1.14182
1.14182
1.14183
1.14183
1.14183
1.14183
1.14183
1.14183
1.14183
1.14184
1.14184
1.14184
1.14184
1.14184
1.14184
1.14184
1.14184
1.14184
1.14184
1.14184
1.14184
1.14183
1.14183
1.14183
1.14183
1.14183
1.14183
1.14183
1.14182
1.14182
1.14182
1.14182
1.14182
1.14181
1.14181
1.14181
1.1418
1.1418
1.1418
1.14179
1.14178
1.14175
1.14169
1.14158
1.14139
1.86685
1.8672
1.8674
1.86751
1.86756
1.86759
1.8676
1.86761
1.86761
1.86762
1.86762
1.86763
1.86763
1.86763
1.86764
1.86764
1.86765
1.86765
1.86765
1.86765
1.86766
1.86766
1.86766
1.86766
1.86767
1.86767
1.86767
1.86767
1.86767
1.86767
1.86767
1.86767
1.86767
1.86767
1.86767
1.86767
1.86766
1.86766
1.86766
1.86766
1.86765
1.86765
1.86765
1.86765
1.86764
1.86764
1.86763
1.86763
1.86763
1.86762
1.86762
1.86761
1.86761
1.8676
1.86759
1.86756
1.86751
1.8674
1.8672
1.86685
2.59798
2.59849
2.59879
2.59894
2.59902
2.59905
2.59907
2.59908
2.59909
2.5991
2.59911
2.59911
2.59912
2.59912
2.59913
2.59913
2.59914
2.59914
2.59915
2.59915
2.59916
2.59916
2.59916
2.59916
2.59917
2.59917
2.59917
2.59917
2.59917
2.59917
2.59917
2.59917
2.59917
2.59917
2.59917
2.59917
2.59916
2.59916
2.59916
2.59916
2.59915
2.59915
2.59914
2.59914
2.59913
2.59913
2.59912
2.59912
2.59911
2.59911
2.5991
2.59909
2.59908
2.59907
2.59905
2.59902
2.59894
2.59879
2.59849
2.59798
3.33576
3.33642
3.33682
3.33701
3.33711
3.33716
3.33719
3.3372
3.33721
3.33722
3.33723
3.33724
3.33725
3.33725
3.33726
3.33727
3.33727
3.33728
3.33728
3.33729
3.3373
3.3373
3.3373
3.33731
3.33731
3.33731
3.33731
3.33732
3.33732
3.33732
3.33732
3.33732
3.33732
3.33731
3.33731
3.33731
3.33731
3.3373
3.3373
3.3373
3.33729
3.33728
3.33728
3.33727
3.33727
3.33726
3.33725
3.33725
3.33724
3.33723
3.33722
3.33721
3.3372
3.33719
3.33716
3.33711
3.33701
3.33682
3.33642
3.33576
4.07947
4.08029
4.08077
4.08102
4.08114
4.0812
4.08123
4.08125
4.08126
4.08127
4.08128
4.08129
4.0813
4.08131
4.08132
4.08133
4.08134
4.08134
4.08135
4.08136
4.08136
4.08137
4.08137
4.08138
4.08138
4.08139
4.08139
4.08139
4.08139
4.08139
4.08139
4.08139
4.08139
4.08139
4.08139
4.08138
4.08138
4.08137
4.08137
4.08136
4.08136
4.08135
4.08134
4.08134
4.08133
4.08132
4.08131
4.0813
4.08129
4.08128
4.08127
4.08126
4.08125
4.08123
4.0812
4.08114
4.08102
4.08077
4.08029
4.07947
4.82802
4.82898
4.82956
4.82985
4.82999
4.83006
4.8301
4.83012
4.83014
4.83015
4.83016
4.83017
4.83019
4.8302
4.83021
4.83022
4.83023
4.83023
4.83024
4.83025
4.83026
4.83026
4.83027
4.83028
4.83028
4.83028
4.83029
4.83029
4.83029
4.83029
4.83029
4.83029
4.83029
4.83029
4.83028
4.83028
4.83028
4.83027
4.83026
4.83026
4.83025
4.83024
4.83023
4.83023
4.83022
4.83021
4.8302
4.83019
4.83017
4.83016
4.83015
4.83014
4.83012
4.8301
4.83006
4.82999
4.82985
4.82956
4.82898
4.82802
5.58009
5.5812
5.58185
5.58219
5.58235
5.58243
5.58248
5.5825
5.58252
5.58254
5.58255
5.58257
5.58258
5.58259
5.5826
5.58261
5.58263
5.58264
5.58265
5.58265
5.58266
5.58267
5.58268
5.58268
5.58269
5.58269
5.5827
5.5827
5.5827
5.5827
5.5827
5.5827
5.5827
5.5827
5.58269
5.58269
5.58268
5.58268
5.58267
5.58266
5.58265
5.58265
5.58264
5.58263
5.58261
5.5826
5.58259
5.58258
5.58257
5.58255
5.58254
5.58252
5.5825
5.58248
5.58243
5.58235
5.58219
5.58185
5.5812
5.58009
6.33417
6.33541
6.33615
6.33653
6.33671
6.3368
6.33685
6.33688
6.3369
6.33692
6.33693
6.33695
6.33696
6.33698
6.33699
6.33701
6.33702
6.33703
6.33704
6.33705
6.33706
6.33707
6.33708
6.33708
6.33709
6.33709
6.3371
6.3371
6.3371
6.3371
6.3371
6.3371
6.3371
6.3371
6.33709
6.33709
6.33708
6.33708
6.33707
6.33706
6.33705
6.33704
6.33703
6.33702
6.33701
6.33699
6.33698
6.33696
6.33695
6.33693
6.33692
6.3369
6.33688
6.33685
6.3368
6.33671
6.33653
6.33615
6.33541
6.33417
7.0885
7.08988
7.09069
7.09111
7.09131
7.09142
7.09147
7.0915
7.09153
7.09155
7.09156
7.09158
7.0916
7.09161
7.09163
7.09164
7.09166
7.09167
7.09168
7.0917
7.09171
7.09172
7.09172
7.09173
7.09174
7.09174
7.09175
7.09175
7.09175
7.09175
7.09175
7.09175
7.09175
7.09175
7.09174
7.09174
7.09173
7.09172
7.09172
7.09171
7.0917
7.09168
7.09167
7.09166
7.09164
7.09163
7.09161
7.0916
7.09158
7.09156
7.09155
7.09153
7.0915
7.09147
7.09142
7.09131
7.09111
7.09069
7.08988
7.0885
7.8411
7.84259
7.84348
7.84393
7.84416
7.84427
7.84433
7.84436
7.84439
7.84441
7.84443
7.84445
7.84447
7.84448
7.8445
7.84452
7.84453
7.84455
7.84456
7.84458
7.84459
7.8446
7.84461
7.84462
7.84462
7.84463
7.84463
7.84464
7.84464
7.84464
7.84464
7.84464
7.84464
7.84463
7.84463
7.84462
7.84462
7.84461
7.8446
7.84459
7.84458
7.84456
7.84455
7.84453
7.84452
7.8445
7.84448
7.84447
7.84445
7.84443
7.84441
7.84439
7.84436
7.84433
7.84427
7.84416
7.84393
7.84348
7.84259
7.8411
8.58964
8.59124
8.59219
8.59268
8.59292
8.59304
8.5931
8.59314
8.59317
8.59319
8.59321
8.59323
8.59325
8.59327
8.59329
8.59331
8.59333
8.59334
8.59336
8.59337
8.59339
8.5934
8.59341
8.59342
8.59343
8.59343
8.59344
8.59344
8.59344
8.59344
8.59344
8.59344
8.59344
8.59344
8.59343
8.59343
8.59342
8.59341
8.5934
8.59339
8.59337
8.59336
8.59334
8.59333
8.59331
8.59329
8.59327
8.59325
8.59323
8.59321
8.59319
8.59317
8.59314
8.5931
8.59304
8.59292
8.59268
8.59219
8.59124
8.58964
9.33143
9.33313
9.33414
9.33465
9.33491
9.33504
9.3351
9.33515
9.33518
9.3352
9.33523
9.33525
9.33527
9.33529
9.33531
9.33533
9.33535
9.33537
9.33539
9.3354
9.33541
9.33543
9.33544
9.33545
9.33546
9.33547
9.33547
9.33548
9.33548
9.33548
9.33548
9.33548
9.33548
9.33547
9.33547
9.33546
9.33545
9.33544
9.33543
9.33541
9.3354
9.33539
9.33537
9.33535
9.33533
9.33531
9.33529
9.33527
9.33525
9.33523
9.3352
9.33518
9.33515
9.3351
9.33504
9.33491
9.33465
9.33414
9.33313
9.33143
10.0634
10.0651
10.0662
10.0667
10.067
10.0671
10.0672
10.0673
10.0673
10.0673
10.0673
10.0674
10.0674
10.0674
10.0674
10.0675
10.0675
10.0675
10.0675
10.0675
10.0676
10.0676
10.0676
10.0676
10.0676
10.0676
10.0676
10.0676
10.0676
10.0676
10.0676
10.0676
10.0676
10.0676
10.0676
10.0676
10.0676
10.0676
10.0676
10.0676
10.0675
10.0675
10.0675
10.0675
10.0675
10.0674
10.0674
10.0674
10.0674
10.0673
10.0673
10.0673
10.0673
10.0672
10.0671
10.067
10.0667
10.0662
10.0651
10.0634
10.7818
10.7837
10.7848
10.7853
10.7856
10.7857
10.7858
10.7858
10.7859
10.7859
10.7859
10.786
10.786
10.786
10.786
10.7861
10.7861
10.7861
10.7861
10.7861
10.7862
10.7862
10.7862
10.7862
10.7862
10.7862
10.7862
10.7862
10.7862
10.7862
10.7862
10.7862
10.7862
10.7862
10.7862
10.7862
10.7862
10.7862
10.7862
10.7862
10.7861
10.7861
10.7861
10.7861
10.7861
10.786
10.786
10.786
10.786
10.7859
10.7859
10.7859
10.7858
10.7858
10.7857
10.7856
10.7853
10.7848
10.7837
10.7818
11.4825
11.4844
11.4855
11.4861
11.4863
11.4865
11.4866
11.4866
11.4866
11.4867
11.4867
11.4867
11.4868
11.4868
11.4868
11.4868
11.4869
11.4869
11.4869
11.4869
11.4869
11.487
11.487
11.487
11.487
11.487
11.487
11.487
11.487
11.487
11.487
11.487
11.487
11.487
11.487
11.487
11.487
11.487
11.487
11.4869
11.4869
11.4869
11.4869
11.4869
11.4868
11.4868
11.4868
11.4868
11.4867
11.4867
11.4867
11.4866
11.4866
11.4866
11.4865
11.4863
11.4861
11.4855
11.4844
11.4825
12.1603
12.1622
12.1633
12.1639
12.1642
12.1643
12.1644
12.1645
12.1645
12.1645
12.1646
12.1646
12.1646
12.1646
12.1647
12.1647
12.1647
12.1647
12.1648
12.1648
12.1648
12.1648
12.1648
12.1649
12.1649
12.1649
12.1649
12.1649
12.1649
12.1649
12.1649
12.1649
12.1649
12.1649
12.1649
12.1649
12.1649
12.1648
12.1648
12.1648
12.1648
12.1648
12.1647
12.1647
12.1647
12.1647
12.1646
12.1646
12.1646
12.1646
12.1645
12.1645
12.1645
12.1644
12.1643
12.1642
12.1639
12.1633
12.1622
12.1603
12.8092
12.8111
12.8122
12.8127
12.813
12.8132
12.8132
12.8133
12.8133
12.8134
12.8134
12.8134
12.8135
12.8135
12.8135
12.8135
12.8136
12.8136
12.8136
12.8136
12.8137
12.8137
12.8137
12.8137
12.8137
12.8137
12.8137
12.8137
12.8137
12.8138
12.8138
12.8137
12.8137
12.8137
12.8137
12.8137
12.8137
12.8137
12.8137
12.8137
12.8136
12.8136
12.8136
12.8136
12.8135
12.8135
12.8135
12.8135
12.8134
12.8134
12.8134
12.8133
12.8133
12.8132
12.8132
12.813
12.8127
12.8122
12.8111
12.8092
13.4218
13.4236
13.4247
13.4252
13.4255
13.4256
13.4257
13.4257
13.4258
13.4258
13.4259
13.4259
13.4259
13.4259
13.426
13.426
13.426
13.4261
13.4261
13.4261
13.4261
13.4262
13.4262
13.4262
13.4262
13.4262
13.4262
13.4262
13.4262
13.4262
13.4262
13.4262
13.4262
13.4262
13.4262
13.4262
13.4262
13.4262
13.4262
13.4261
13.4261
13.4261
13.4261
13.426
13.426
13.426
13.4259
13.4259
13.4259
13.4259
13.4258
13.4258
13.4257
13.4257
13.4256
13.4255
13.4252
13.4247
13.4236
13.4218
13.9893
13.991
13.992
13.9925
13.9928
13.9929
13.993
13.993
13.9931
13.9931
13.9931
13.9932
13.9932
13.9932
13.9933
13.9933
13.9933
13.9933
13.9934
13.9934
13.9934
13.9934
13.9935
13.9935
13.9935
13.9935
13.9935
13.9935
13.9935
13.9935
13.9935
13.9935
13.9935
13.9935
13.9935
13.9935
13.9935
13.9935
13.9934
13.9934
13.9934
13.9934
13.9933
13.9933
13.9933
13.9933
13.9932
13.9932
13.9932
13.9931
13.9931
13.9931
13.993
13.993
13.9929
13.9928
13.9925
13.992
13.991
13.9893
14.5017
14.5032
14.5041
14.5046
14.5048
14.5049
14.505
14.505
14.5051
14.5051
14.5051
14.5052
14.5052
14.5052
14.5053
14.5053
14.5053
14.5054
14.5054
14.5054
14.5054
14.5055
14.5055
14.5055
14.5055
14.5055
14.5055
14.5055
14.5055
14.5055
14.5055
14.5055
14.5055
14.5055
14.5055
14.5055
14.5055
14.5055
14.5055
14.5054
14.5054
14.5054
14.5054
14.5053
14.5053
14.5053
14.5052
14.5052
14.5052
14.5051
14.5051
14.5051
14.505
14.505
14.5049
14.5048
14.5046
14.5041
14.5032
14.5017
14.9489
14.9502
14.9509
14.9513
14.9515
14.9517
14.9517
14.9518
14.9518
14.9518
14.9519
14.9519
14.952
14.952
14.952
14.9521
14.9521
14.9521
14.9521
14.9522
14.9522
14.9522
14.9522
14.9522
14.9523
14.9523
14.9523
14.9523
14.9523
14.9523
14.9523
14.9523
14.9523
14.9523
14.9523
14.9523
14.9522
14.9522
14.9522
14.9522
14.9522
14.9521
14.9521
14.9521
14.9521
14.952
14.952
14.952
14.9519
14.9519
14.9518
14.9518
14.9518
14.9517
14.9517
14.9515
14.9513
14.9509
14.9502
14.9489
15.3238
15.3248
15.3254
15.3257
15.3259
15.326
15.326
15.3261
15.3261
15.3261
15.3262
15.3262
15.3263
15.3263
15.3263
15.3264
15.3264
15.3264
15.3265
15.3265
15.3265
15.3265
15.3265
15.3266
15.3266
15.3266
15.3266
15.3266
15.3266
15.3266
15.3266
15.3266
15.3266
15.3266
15.3266
15.3266
15.3266
15.3265
15.3265
15.3265
15.3265
15.3265
15.3264
15.3264
15.3264
15.3263
15.3263
15.3263
15.3262
15.3262
15.3261
15.3261
15.3261
15.326
15.326
15.3259
15.3257
15.3254
15.3248
15.3238
15.6255
15.6263
15.6267
15.627
15.6271
15.6272
15.6272
15.6273
15.6273
15.6273
15.6274
15.6274
15.6274
15.6275
15.6275
15.6275
15.6276
15.6276
15.6276
15.6277
15.6277
15.6277
15.6277
15.6278
15.6278
15.6278
15.6278
15.6278
15.6278
15.6278
15.6278
15.6278
15.6278
15.6278
15.6278
15.6278
15.6278
15.6277
15.6277
15.6277
15.6277
15.6276
15.6276
15.6276
15.6275
15.6275
15.6275
15.6274
15.6274
15.6274
15.6273
15.6273
15.6273
15.6272
15.6272
15.6271
15.627
15.6267
15.6263
15.6255
15.8614
15.8619
15.8622
15.8624
15.8625
15.8625
15.8626
15.8626
15.8627
15.8627
15.8627
15.8628
15.8628
15.8628
15.8629
15.8629
15.863
15.863
15.863
15.863
15.8631
15.8631
15.8631
15.8631
15.8632
15.8632
15.8632
15.8632
15.8632
15.8632
15.8632
15.8632
15.8632
15.8632
15.8632
15.8632
15.8631
15.8631
15.8631
15.8631
15.863
15.863
15.863
15.863
15.8629
15.8629
15.8628
15.8628
15.8628
15.8627
15.8627
15.8627
15.8626
15.8626
15.8625
15.8625
15.8624
15.8622
15.8619
15.8614
16.0443
16.0446
16.0448
16.0449
16.045
16.0451
16.0451
16.0452
16.0452
16.0452
16.0453
16.0453
16.0453
16.0454
16.0454
16.0455
16.0455
16.0455
16.0456
16.0456
16.0456
16.0457
16.0457
16.0457
16.0457
16.0457
16.0457
16.0458
16.0458
16.0458
16.0458
16.0458
16.0458
16.0457
16.0457
16.0457
16.0457
16.0457
16.0457
16.0456
16.0456
16.0456
16.0455
16.0455
16.0455
16.0454
16.0454
16.0453
16.0453
16.0453
16.0452
16.0452
16.0452
16.0451
16.0451
16.045
16.0449
16.0448
16.0446
16.0443
16.1885
16.1886
16.1888
16.1889
16.1889
16.189
16.189
16.189
16.1891
16.1891
16.1892
16.1892
16.1892
16.1893
16.1893
16.1894
16.1894
16.1894
16.1895
16.1895
16.1895
16.1896
16.1896
16.1896
16.1896
16.1896
16.1897
16.1897
16.1897
16.1897
16.1897
16.1897
16.1897
16.1897
16.1896
16.1896
16.1896
16.1896
16.1896
16.1895
16.1895
16.1895
16.1894
16.1894
16.1894
16.1893
16.1893
16.1892
16.1892
16.1892
16.1891
16.1891
16.189
16.189
16.189
16.1889
16.1889
16.1888
16.1886
16.1885
16.3058
16.3059
16.3059
16.306
16.306
16.3061
16.3061
16.3062
16.3062
16.3062
16.3063
16.3063
16.3064
16.3064
16.3065
16.3065
16.3066
16.3066
16.3066
16.3067
16.3067
16.3067
16.3068
16.3068
16.3068
16.3068
16.3068
16.3068
16.3068
16.3068
16.3068
16.3068
16.3068
16.3068
16.3068
16.3068
16.3068
16.3068
16.3067
16.3067
16.3067
16.3066
16.3066
16.3066
16.3065
16.3065
16.3064
16.3064
16.3063
16.3063
16.3062
16.3062
16.3062
16.3061
16.3061
16.306
16.306
16.3059
16.3059
16.3058
16.4048
16.4048
16.4048
16.4049
16.4049
16.4049
16.405
16.405
16.405
16.4051
16.4051
16.4052
16.4052
16.4053
16.4053
16.4054
16.4054
16.4055
16.4055
16.4055
16.4056
16.4056
16.4056
16.4057
16.4057
16.4057
16.4057
16.4057
16.4057
16.4057
16.4057
16.4057
16.4057
16.4057
16.4057
16.4057
16.4057
16.4056
16.4056
16.4056
16.4055
16.4055
16.4055
16.4054
16.4054
16.4053
16.4053
16.4052
16.4052
16.4051
16.4051
16.405
16.405
16.405
16.4049
16.4049
16.4049
16.4048
16.4048
16.4048
16.491
16.4909
16.491
16.491
16.491
16.491
16.4911
16.4911
16.4912
16.4912
16.4913
16.4913
16.4914
16.4914
16.4915
16.4915
16.4916
16.4916
16.4917
16.4917
16.4917
16.4918
16.4918
16.4918
16.4919
16.4919
16.4919
16.4919
16.4919
16.4919
16.4919
16.4919
16.4919
16.4919
16.4919
16.4919
16.4918
16.4918
16.4918
16.4917
16.4917
16.4917
16.4916
16.4916
16.4915
16.4915
16.4914
16.4914
16.4913
16.4913
16.4912
16.4912
16.4911
16.4911
16.491
16.491
16.491
16.491
16.4909
16.491
16.5679
16.5679
16.5679
16.5679
16.5679
16.5679
16.568
16.568
16.5681
16.5681
16.5682
16.5682
16.5683
16.5684
16.5684
16.5685
16.5685
16.5686
16.5686
16.5686
16.5687
16.5687
16.5688
16.5688
16.5688
16.5688
16.5688
16.5689
16.5689
16.5689
16.5689
16.5689
16.5689
16.5688
16.5688
16.5688
16.5688
16.5688
16.5687
16.5687
16.5686
16.5686
16.5686
16.5685
16.5685
16.5684
16.5684
16.5683
16.5682
16.5682
16.5681
16.5681
16.568
16.568
16.5679
16.5679
16.5679
16.5679
16.5679
16.5679
16.6379
16.6379
16.6378
16.6378
16.6379
16.6379
16.6379
16.638
16.638
16.6381
16.6382
16.6382
16.6383
16.6383
16.6384
16.6385
16.6385
16.6386
16.6386
16.6387
16.6387
16.6387
16.6388
16.6388
16.6388
16.6388
16.6389
16.6389
16.6389
16.6389
16.6389
16.6389
16.6389
16.6389
16.6388
16.6388
16.6388
16.6388
16.6387
16.6387
16.6387
16.6386
16.6386
16.6385
16.6385
16.6384
16.6383
16.6383
16.6382
16.6382
16.6381
16.638
16.638
16.6379
16.6379
16.6379
16.6378
16.6378
16.6379
16.6379
16.7025
16.7024
16.7024
16.7024
16.7024
16.7025
16.7025
16.7026
16.7026
16.7027
16.7027
16.7028
16.7029
16.7029
16.703
16.703
16.7031
16.7032
16.7032
16.7033
16.7033
16.7033
16.7034
16.7034
16.7034
16.7035
16.7035
16.7035
16.7035
16.7035
16.7035
16.7035
16.7035
16.7035
16.7035
16.7034
16.7034
16.7034
16.7033
16.7033
16.7033
16.7032
16.7032
16.7031
16.703
16.703
16.7029
16.7029
16.7028
16.7027
16.7027
16.7026
16.7026
16.7025
16.7025
16.7024
16.7024
16.7024
16.7024
16.7025
16.7628
16.7627
16.7627
16.7627
16.7627
16.7627
16.7628
16.7628
16.7629
16.7629
16.763
16.7631
16.7631
16.7632
16.7633
16.7633
16.7634
16.7635
16.7635
16.7636
16.7636
16.7636
16.7637
16.7637
16.7637
16.7638
16.7638
16.7638
16.7638
16.7638
16.7638
16.7638
16.7638
16.7638
16.7638
16.7637
16.7637
16.7637
16.7636
16.7636
16.7636
16.7635
16.7635
16.7634
16.7633
16.7633
16.7632
16.7631
16.7631
16.763
16.7629
16.7629
16.7628
16.7628
16.7627
16.7627
16.7627
16.7627
16.7627
16.7628
16.8195
16.8194
16.8194
16.8194
16.8194
16.8195
16.8195
16.8196
16.8196
16.8197
16.8198
16.8198
16.8199
16.82
16.82
16.8201
16.8202
16.8202
16.8203
16.8203
16.8204
16.8204
16.8205
16.8205
16.8205
16.8206
16.8206
16.8206
16.8206
16.8206
16.8206
16.8206
16.8206
16.8206
16.8206
16.8205
16.8205
16.8205
16.8204
16.8204
16.8203
16.8203
16.8202
16.8202
16.8201
16.82
16.82
16.8199
16.8198
16.8198
16.8197
16.8196
16.8196
16.8195
16.8195
16.8194
16.8194
16.8194
16.8194
16.8195
16.8734
16.8733
16.8732
16.8732
16.8733
16.8733
16.8733
16.8734
16.8735
16.8735
16.8736
16.8737
16.8738
16.8738
16.8739
16.874
16.8741
16.8741
16.8742
16.8742
16.8743
16.8743
16.8744
16.8744
16.8745
16.8745
16.8745
16.8745
16.8745
16.8745
16.8745
16.8745
16.8745
16.8745
16.8745
16.8745
16.8744
16.8744
16.8743
16.8743
16.8742
16.8742
16.8741
16.8741
16.874
16.8739
16.8738
16.8738
16.8737
16.8736
16.8735
16.8735
16.8734
16.8733
16.8733
16.8733
16.8732
16.8732
16.8733
16.8734
16.9248
16.9247
16.9247
16.9247
16.9247
16.9247
16.9248
16.9248
16.9249
16.925
16.9251
16.9251
16.9252
16.9253
16.9254
16.9255
16.9255
16.9256
16.9257
16.9257
16.9258
16.9258
16.9259
16.9259
16.926
16.926
16.926
16.926
16.926
16.926
16.926
16.926
16.926
16.926
16.926
16.926
16.9259
16.9259
16.9258
16.9258
16.9257
16.9257
16.9256
16.9255
16.9255
16.9254
16.9253
16.9252
16.9251
16.9251
16.925
16.9249
16.9248
16.9248
16.9247
16.9247
16.9247
16.9247
16.9247
16.9248
16.9742
16.9741
16.9741
16.9741
16.9741
16.9741
16.9742
16.9743
16.9743
16.9744
16.9745
16.9746
16.9747
16.9747
16.9748
16.9749
16.975
16.9751
16.9751
16.9752
16.9752
16.9753
16.9753
16.9754
16.9754
16.9755
16.9755
16.9755
16.9755
16.9755
16.9755
16.9755
16.9755
16.9755
16.9755
16.9754
16.9754
16.9753
16.9753
16.9752
16.9752
16.9751
16.9751
16.975
16.9749
16.9748
16.9747
16.9747
16.9746
16.9745
16.9744
16.9743
16.9743
16.9742
16.9741
16.9741
16.9741
16.9741
16.9741
16.9742
17.0219
17.0218
17.0218
17.0218
17.0218
17.0218
17.0219
17.0219
17.022
17.0221
17.0222
17.0223
17.0224
17.0225
17.0226
17.0226
17.0227
17.0228
17.0229
17.0229
17.023
17.0231
17.0231
17.0232
17.0232
17.0232
17.0232
17.0233
17.0233
17.0233
17.0233
17.0233
17.0233
17.0232
17.0232
17.0232
17.0232
17.0231
17.0231
17.023
17.0229
17.0229
17.0228
17.0227
17.0226
17.0226
17.0225
17.0224
17.0223
17.0222
17.0221
17.022
17.0219
17.0219
17.0218
17.0218
17.0218
17.0218
17.0218
17.0219
17.0682
17.0681
17.068
17.068
17.068
17.0681
17.0681
17.0682
17.0683
17.0684
17.0685
17.0686
17.0686
17.0687
17.0688
17.0689
17.069
17.0691
17.0692
17.0692
17.0693
17.0694
17.0694
17.0695
17.0695
17.0695
17.0696
17.0696
17.0696
17.0696
17.0696
17.0696
17.0696
17.0696
17.0695
17.0695
17.0695
17.0694
17.0694
17.0693
17.0692
17.0692
17.0691
17.069
17.0689
17.0688
17.0687
17.0686
17.0686
17.0685
17.0684
17.0683
17.0682
17.0681
17.0681
17.068
17.068
17.068
17.0681
17.0682
17.1132
17.1131
17.113
17.113
17.113
17.1131
17.1131
17.1132
17.1133
17.1134
17.1135
17.1136
17.1137
17.1138
17.1139
17.114
17.1141
17.1142
17.1142
17.1143
17.1144
17.1144
17.1145
17.1146
17.1146
17.1146
17.1147
17.1147
17.1147
17.1147
17.1147
17.1147
17.1147
17.1147
17.1146
17.1146
17.1146
17.1145
17.1144
17.1144
17.1143
17.1142
17.1142
17.1141
17.114
17.1139
17.1138
17.1137
17.1136
17.1135
17.1134
17.1133
17.1132
17.1131
17.1131
17.113
17.113
17.113
17.1131
17.1132
17.1571
17.157
17.157
17.157
17.157
17.157
17.1571
17.1572
17.1573
17.1574
17.1575
17.1576
17.1577
17.1578
17.1579
17.158
17.1581
17.1582
17.1583
17.1584
17.1584
17.1585
17.1585
17.1586
17.1586
17.1587
17.1587
17.1587
17.1587
17.1588
17.1588
17.1587
17.1587
17.1587
17.1587
17.1586
17.1586
17.1585
17.1585
17.1584
17.1584
17.1583
17.1582
17.1581
17.158
17.1579
17.1578
17.1577
17.1576
17.1575
17.1574
17.1573
17.1572
17.1571
17.157
17.157
17.157
17.157
17.157
17.1571
17.2002
17.2001
17.2001
17.2001
17.2001
17.2001
17.2002
17.2003
17.2004
17.2005
17.2006
17.2007
17.2008
17.2009
17.201
17.2011
17.2012
17.2013
17.2014
17.2015
17.2016
17.2017
17.2017
17.2018
17.2018
17.2019
17.2019
17.2019
17.2019
17.2019
17.2019
17.2019
17.2019
17.2019
17.2019
17.2018
17.2018
17.2017
17.2017
17.2016
17.2015
17.2014
17.2013
17.2012
17.2011
17.201
17.2009
17.2008
17.2007
17.2006
17.2005
17.2004
17.2003
17.2002
17.2001
17.2001
17.2001
17.2001
17.2001
17.2002
17.2425
17.2425
17.2424
17.2424
17.2424
17.2425
17.2426
17.2427
17.2428
17.2429
17.243
17.2431
17.2432
17.2433
17.2434
17.2435
17.2437
17.2438
17.2438
17.2439
17.244
17.2441
17.2442
17.2442
17.2443
17.2443
17.2443
17.2444
17.2444
17.2444
17.2444
17.2444
17.2444
17.2443
17.2443
17.2443
17.2442
17.2442
17.2441
17.244
17.2439
17.2438
17.2438
17.2437
17.2435
17.2434
17.2433
17.2432
17.2431
17.243
17.2429
17.2428
17.2427
17.2426
17.2425
17.2424
17.2424
17.2424
17.2425
17.2425
17.2843
17.2842
17.2842
17.2841
17.2842
17.2842
17.2843
17.2844
17.2845
17.2846
17.2847
17.2849
17.285
17.2851
17.2852
17.2853
17.2855
17.2856
17.2857
17.2857
17.2858
17.2859
17.286
17.286
17.2861
17.2861
17.2862
17.2862
17.2862
17.2862
17.2862
17.2862
17.2862
17.2862
17.2861
17.2861
17.286
17.286
17.2859
17.2858
17.2857
17.2857
17.2856
17.2855
17.2853
17.2852
17.2851
17.285
17.2849
17.2847
17.2846
17.2845
17.2844
17.2843
17.2842
17.2842
17.2841
17.2842
17.2842
17.2843
17.3255
17.3254
17.3254
17.3254
17.3254
17.3255
17.3256
17.3256
17.3258
17.3259
17.326
17.3261
17.3263
17.3264
17.3265
17.3266
17.3268
17.3269
17.327
17.3271
17.3271
17.3272
17.3273
17.3274
17.3274
17.3275
17.3275
17.3275
17.3275
17.3275
17.3275
17.3275
17.3275
17.3275
17.3275
17.3274
17.3274
17.3273
17.3272
17.3271
17.3271
17.327
17.3269
17.3268
17.3266
17.3265
17.3264
17.3263
17.3261
17.326
17.3259
17.3258
17.3256
17.3256
17.3255
17.3254
17.3254
17.3254
17.3254
17.3255
17.3663
17.3663
17.3662
17.3662
17.3662
17.3663
17.3664
17.3665
17.3666
17.3667
17.3669
17.367
17.3671
17.3673
17.3674
17.3675
17.3676
17.3678
17.3679
17.368
17.3681
17.3681
17.3682
17.3683
17.3683
17.3684
17.3684
17.3685
17.3685
17.3685
17.3685
17.3685
17.3685
17.3684
17.3684
17.3683
17.3683
17.3682
17.3681
17.3681
17.368
17.3679
17.3678
17.3676
17.3675
17.3674
17.3673
17.3671
17.367
17.3669
17.3667
17.3666
17.3665
17.3664
17.3663
17.3662
17.3662
17.3662
17.3663
17.3663
17.4068
17.4068
17.4067
17.4067
17.4068
17.4068
17.4069
17.407
17.4071
17.4073
17.4074
17.4076
17.4077
17.4078
17.408
17.4081
17.4082
17.4084
17.4085
17.4086
17.4087
17.4088
17.4088
17.4089
17.409
17.409
17.409
17.4091
17.4091
17.4091
17.4091
17.4091
17.4091
17.409
17.409
17.409
17.4089
17.4088
17.4088
17.4087
17.4086
17.4085
17.4084
17.4082
17.4081
17.408
17.4078
17.4077
17.4076
17.4074
17.4073
17.4071
17.407
17.4069
17.4068
17.4068
17.4067
17.4067
17.4068
17.4068
17.4471
17.447
17.447
17.447
17.447
17.4471
17.4472
17.4473
17.4475
17.4476
17.4477
17.4479
17.448
17.4482
17.4483
17.4485
17.4486
17.4487
17.4488
17.4489
17.449
17.4491
17.4492
17.4493
17.4494
17.4494
17.4494
17.4495
17.4495
17.4495
17.4495
17.4495
17.4495
17.4494
17.4494
17.4494
17.4493
17.4492
17.4491
17.449
17.4489
17.4488
17.4487
17.4486
17.4485
17.4483
17.4482
17.448
17.4479
17.4477
17.4476
17.4475
17.4473
17.4472
17.4471
17.447
17.447
17.447
17.447
17.4471
17.4872
17.4872
17.4871
17.4871
17.4872
17.4873
17.4874
17.4875
17.4876
17.4877
17.4879
17.4881
17.4882
17.4884
17.4885
17.4887
17.4888
17.4889
17.4891
17.4892
17.4893
17.4894
17.4895
17.4895
17.4896
17.4896
17.4897
17.4897
17.4897
17.4898
17.4898
17.4897
17.4897
17.4897
17.4896
17.4896
17.4895
17.4895
17.4894
17.4893
17.4892
17.4891
17.4889
17.4888
17.4887
17.4885
17.4884
17.4882
17.4881
17.4879
17.4877
17.4876
17.4875
17.4874
17.4873
17.4872
17.4871
17.4871
17.4872
17.4872
17.5272
17.5272
17.5272
17.5272
17.5272
17.5273
17.5274
17.5275
17.5277
17.5278
17.528
17.5281
17.5283
17.5285
17.5286
17.5288
17.5289
17.5291
17.5292
17.5293
17.5294
17.5295
17.5296
17.5297
17.5298
17.5298
17.5299
17.5299
17.5299
17.5299
17.5299
17.5299
17.5299
17.5299
17.5298
17.5298
17.5297
17.5296
17.5295
17.5294
17.5293
17.5292
17.5291
17.5289
17.5288
17.5286
17.5285
17.5283
17.5281
17.528
17.5278
17.5277
17.5275
17.5274
17.5273
17.5272
17.5272
17.5272
17.5272
17.5272
17.5673
17.5672
17.5672
17.5672
17.5672
17.5673
17.5674
17.5676
17.5677
17.5679
17.568
17.5682
17.5684
17.5685
17.5687
17.5689
17.569
17.5692
17.5693
17.5694
17.5695
17.5696
17.5697
17.5698
17.5699
17.5699
17.57
17.57
17.5701
17.5701
17.5701
17.5701
17.57
17.57
17.5699
17.5699
17.5698
17.5697
17.5696
17.5695
17.5694
17.5693
17.5692
17.569
17.5689
17.5687
17.5685
17.5684
17.5682
17.568
17.5679
17.5677
17.5676
17.5674
17.5673
17.5672
17.5672
17.5672
17.5672
17.5673
17.6073
17.6073
17.6072
17.6073
17.6073
17.6074
17.6075
17.6076
17.6078
17.608
17.6081
17.6083
17.6085
17.6087
17.6088
17.609
17.6092
17.6093
17.6095
17.6096
17.6097
17.6098
17.6099
17.61
17.6101
17.6101
17.6102
17.6102
17.6102
17.6103
17.6103
17.6102
17.6102
17.6102
17.6101
17.6101
17.61
17.6099
17.6098
17.6097
17.6096
17.6095
17.6093
17.6092
17.609
17.6088
17.6087
17.6085
17.6083
17.6081
17.608
17.6078
17.6076
17.6075
17.6074
17.6073
17.6073
17.6072
17.6073
17.6073
17.6475
17.6474
17.6474
17.6474
17.6475
17.6476
17.6477
17.6478
17.648
17.6482
17.6483
17.6485
17.6487
17.6489
17.6491
17.6493
17.6494
17.6496
17.6497
17.6499
17.65
17.6501
17.6502
17.6503
17.6504
17.6504
17.6505
17.6505
17.6505
17.6506
17.6506
17.6505
17.6505
17.6505
17.6504
17.6504
17.6503
17.6502
17.6501
17.65
17.6499
17.6497
17.6496
17.6494
17.6493
17.6491
17.6489
17.6487
17.6485
17.6483
17.6482
17.648
17.6478
17.6477
17.6476
17.6475
17.6474
17.6474
17.6474
17.6475
17.6878
17.6877
17.6877
17.6877
17.6878
17.6879
17.688
17.6882
17.6883
17.6885
17.6887
17.6889
17.6891
17.6893
17.6895
17.6896
17.6898
17.69
17.6901
17.6903
17.6904
17.6905
17.6906
17.6907
17.6908
17.6909
17.6909
17.691
17.691
17.691
17.691
17.691
17.691
17.6909
17.6909
17.6908
17.6907
17.6906
17.6905
17.6904
17.6903
17.6901
17.69
17.6898
17.6896
17.6895
17.6893
17.6891
17.6889
17.6887
17.6885
17.6883
17.6882
17.688
17.6879
17.6878
17.6877
17.6877
17.6877
17.6878
17.7283
17.7282
17.7282
17.7282
17.7283
17.7284
17.7285
17.7287
17.7289
17.7291
17.7293
17.7295
17.7297
17.7299
17.7301
17.7302
17.7304
17.7306
17.7308
17.7309
17.731
17.7312
17.7313
17.7314
17.7315
17.7315
17.7316
17.7316
17.7317
17.7317
17.7317
17.7317
17.7316
17.7316
17.7315
17.7315
17.7314
17.7313
17.7312
17.731
17.7309
17.7308
17.7306
17.7304
17.7302
17.7301
17.7299
17.7297
17.7295
17.7293
17.7291
17.7289
17.7287
17.7285
17.7284
17.7283
17.7282
17.7282
17.7282
17.7283
17.769
17.769
17.769
17.769
17.7691
17.7692
17.7693
17.7695
17.7697
17.7699
17.7701
17.7703
17.7705
17.7707
17.7709
17.7711
17.7713
17.7715
17.7716
17.7718
17.7719
17.7721
17.7722
17.7723
17.7724
17.7724
17.7725
17.7725
17.7726
17.7726
17.7726
17.7726
17.7725
17.7725
17.7724
17.7724
17.7723
17.7722
17.7721
17.7719
17.7718
17.7716
17.7715
17.7713
17.7711
17.7709
17.7707
17.7705
17.7703
17.7701
17.7699
17.7697
17.7695
17.7693
17.7692
17.7691
17.769
17.769
17.769
17.769
17.8101
17.81
17.81
17.8101
17.8102
17.8103
17.8104
17.8106
17.8108
17.811
17.8112
17.8114
17.8116
17.8119
17.8121
17.8123
17.8125
17.8127
17.8128
17.813
17.8132
17.8133
17.8134
17.8135
17.8136
17.8137
17.8137
17.8138
17.8138
17.8138
17.8138
17.8138
17.8138
17.8137
17.8137
17.8136
17.8135
17.8134
17.8133
17.8132
17.813
17.8128
17.8127
17.8125
17.8123
17.8121
17.8119
17.8116
17.8114
17.8112
17.811
17.8108
17.8106
17.8104
17.8103
17.8102
17.8101
17.81
17.81
17.8101
17.8515
17.8515
17.8515
17.8515
17.8516
17.8517
17.8519
17.852
17.8522
17.8525
17.8527
17.8529
17.8531
17.8534
17.8536
17.8538
17.854
17.8542
17.8544
17.8546
17.8547
17.8549
17.855
17.8551
17.8552
17.8553
17.8553
17.8554
17.8554
17.8554
17.8554
17.8554
17.8554
17.8553
17.8553
17.8552
17.8551
17.855
17.8549
17.8547
17.8546
17.8544
17.8542
17.854
17.8538
17.8536
17.8534
17.8531
17.8529
17.8527
17.8525
17.8522
17.852
17.8519
17.8517
17.8516
17.8515
17.8515
17.8515
17.8515
17.8933
17.8933
17.8933
17.8933
17.8934
17.8935
17.8937
17.8939
17.8941
17.8943
17.8946
17.8948
17.895
17.8953
17.8955
17.8957
17.8959
17.8961
17.8963
17.8965
17.8967
17.8968
17.8969
17.8971
17.8972
17.8972
17.8973
17.8973
17.8974
17.8974
17.8974
17.8974
17.8973
17.8973
17.8972
17.8972
17.8971
17.8969
17.8968
17.8967
17.8965
17.8963
17.8961
17.8959
17.8957
17.8955
17.8953
17.895
17.8948
17.8946
17.8943
17.8941
17.8939
17.8937
17.8935
17.8934
17.8933
17.8933
17.8933
17.8933
17.9355
17.9355
17.9355
17.9356
17.9357
17.9358
17.936
17.9362
17.9364
17.9366
17.9369
17.9371
17.9374
17.9376
17.9379
17.9381
17.9383
17.9385
17.9387
17.9389
17.9391
17.9392
17.9394
17.9395
17.9396
17.9397
17.9397
17.9398
17.9398
17.9398
17.9398
17.9398
17.9398
17.9397
17.9397
17.9396
17.9395
17.9394
17.9392
17.9391
17.9389
17.9387
17.9385
17.9383
17.9381
17.9379
17.9376
17.9374
17.9371
17.9369
17.9366
17.9364
17.9362
17.936
17.9358
17.9357
17.9356
17.9355
17.9355
17.9355
17.9783
17.9782
17.9783
17.9783
17.9784
17.9786
17.9787
17.9789
17.9792
17.9794
17.9797
17.9799
17.9802
17.9805
17.9807
17.981
17.9812
17.9814
17.9816
17.9818
17.982