/*--------------------------------*- C++ -*----------------------------------*\
| =========                 |                                                 |
| \\      /  F ield         | foam-extend: Open Source CFD                    |
|  \\    /   O peration     | Version:     4.0                                |
|   \\  /    A nd           | Web:         http://www.foam-extend.org         |
|    \\/     M anipulation  |                                                 |
\*---------------------------------------------------------------------------*/
FoamFile
{
    version     2.0;
    format      ascii;
    class       volScalarField;
    location    "1620";
    object      psiE;
}
// * * * * * * * * * * * * * * * * * * * * * * * * * * * * * * * * * * * * * //

dimensions      [0 0 0 0 0 0 0];

internalField   nonuniform List<scalar> 
6960
(
0.32561
0.325611
0.325613
0.325614
0.325616
0.325617
0.325619
0.32562
0.325622
0.325623
0.325624
0.325626
0.325627
0.325628
0.325629
0.32563
0.325631
0.325631
0.325632
0.325633
0.325633
0.325634
0.325634
0.325635
0.325635
0.325635
0.325636
0.325636
0.325636
0.325636
0.325636
0.325636
0.325636
0.325636
0.325635
0.325635
0.325635
0.325634
0.325634
0.325633
0.325633
0.325632
0.325631
0.325631
0.32563
0.325629
0.325628
0.325627
0.325626
0.325624
0.325623
0.325622
0.32562
0.325619
0.325617
0.325616
0.325614
0.325613
0.325611
0.32561
0.798066
0.798071
0.798077
0.798083
0.79809
0.798096
0.798102
0.798108
0.798114
0.798119
0.798124
0.798129
0.798133
0.798138
0.798141
0.798145
0.798148
0.798151
0.798154
0.798157
0.798159
0.798161
0.798163
0.798164
0.798166
0.798167
0.798168
0.798168
0.798169
0.798169
0.798169
0.798169
0.798168
0.798168
0.798167
0.798166
0.798164
0.798163
0.798161
0.798159
0.798157
0.798154
0.798151
0.798148
0.798145
0.798141
0.798138
0.798133
0.798129
0.798124
0.798119
0.798114
0.798108
0.798102
0.798096
0.79809
0.798083
0.798077
0.798071
0.798066
1.21269
1.2127
1.21271
1.21273
1.21274
1.21275
1.21276
1.21278
1.21279
1.2128
1.21281
1.21282
1.21283
1.21283
1.21284
1.21285
1.21286
1.21286
1.21287
1.21287
1.21288
1.21288
1.21288
1.21289
1.21289
1.21289
1.21289
1.2129
1.2129
1.2129
1.2129
1.2129
1.2129
1.21289
1.21289
1.21289
1.21289
1.21288
1.21288
1.21288
1.21287
1.21287
1.21286
1.21286
1.21285
1.21284
1.21283
1.21283
1.21282
1.21281
1.2128
1.21279
1.21278
1.21276
1.21275
1.21274
1.21273
1.21271
1.2127
1.21269
1.60722
1.60724
1.60726
1.60728
1.6073
1.60732
1.60734
1.60735
1.60737
1.60739
1.6074
1.60742
1.60743
1.60745
1.60746
1.60747
1.60748
1.60749
1.6075
1.60751
1.60751
1.60752
1.60752
1.60753
1.60753
1.60754
1.60754
1.60754
1.60754
1.60754
1.60754
1.60754
1.60754
1.60754
1.60754
1.60753
1.60753
1.60752
1.60752
1.60751
1.60751
1.6075
1.60749
1.60748
1.60747
1.60746
1.60745
1.60743
1.60742
1.6074
1.60739
1.60737
1.60735
1.60734
1.60732
1.6073
1.60728
1.60726
1.60724
1.60722
1.99742
1.99744
1.99747
1.9975
1.99753
1.99756
1.99758
1.99761
1.99764
1.99766
1.99768
1.9977
1.99772
1.99774
1.99776
1.99777
1.99779
1.9978
1.99781
1.99782
1.99783
1.99784
1.99785
1.99786
1.99786
1.99787
1.99787
1.99787
1.99788
1.99788
1.99788
1.99788
1.99787
1.99787
1.99787
1.99786
1.99786
1.99785
1.99784
1.99783
1.99782
1.99781
1.9978
1.99779
1.99777
1.99776
1.99774
1.99772
1.9977
1.99768
1.99766
1.99764
1.99761
1.99758
1.99756
1.99753
1.9975
1.99747
1.99744
1.99742
2.39046
2.39049
2.39052
2.39056
2.3906
2.39064
2.39067
2.39071
2.39074
2.39077
2.3908
2.39083
2.39085
2.39088
2.3909
2.39092
2.39094
2.39096
2.39097
2.39099
2.391
2.39101
2.39102
2.39103
2.39104
2.39105
2.39105
2.39105
2.39106
2.39106
2.39106
2.39106
2.39105
2.39105
2.39105
2.39104
2.39103
2.39102
2.39101
2.391
2.39099
2.39097
2.39096
2.39094
2.39092
2.3909
2.39088
2.39085
2.39083
2.3908
2.39077
2.39074
2.39071
2.39067
2.39064
2.3906
2.39056
2.39052
2.39049
2.39046
2.7897
2.78974
2.78978
2.78983
2.78988
2.78992
2.78997
2.79001
2.79005
2.79009
2.79013
2.79016
2.79019
2.79022
2.79025
2.79028
2.7903
2.79032
2.79034
2.79036
2.79037
2.79039
2.7904
2.79041
2.79042
2.79043
2.79044
2.79044
2.79044
2.79044
2.79044
2.79044
2.79044
2.79044
2.79043
2.79042
2.79041
2.7904
2.79039
2.79037
2.79036
2.79034
2.79032
2.7903
2.79028
2.79025
2.79022
2.79019
2.79016
2.79013
2.79009
2.79005
2.79001
2.78997
2.78992
2.78988
2.78983
2.78978
2.78974
2.7897
3.19674
3.19678
3.19683
3.19689
3.19695
3.197
3.19706
3.19711
3.19716
3.19721
3.19725
3.19729
3.19733
3.19737
3.1974
3.19743
3.19746
3.19748
3.19751
3.19753
3.19755
3.19757
3.19758
3.19759
3.19761
3.19761
3.19762
3.19763
3.19763
3.19763
3.19763
3.19763
3.19763
3.19762
3.19761
3.19761
3.19759
3.19758
3.19757
3.19755
3.19753
3.19751
3.19748
3.19746
3.19743
3.1974
3.19737
3.19733
3.19729
3.19725
3.19721
3.19716
3.19711
3.19706
3.197
3.19695
3.19689
3.19683
3.19678
3.19674
3.61234
3.61238
3.61245
3.61251
3.61258
3.61265
3.61271
3.61277
3.61283
3.61288
3.61294
3.61298
3.61303
3.61307
3.61311
3.61315
3.61318
3.61321
3.61324
3.61326
3.61329
3.61331
3.61332
3.61334
3.61335
3.61336
3.61337
3.61338
3.61338
3.61339
3.61339
3.61338
3.61338
3.61337
3.61336
3.61335
3.61334
3.61332
3.61331
3.61329
3.61326
3.61324
3.61321
3.61318
3.61315
3.61311
3.61307
3.61303
3.61298
3.61294
3.61288
3.61283
3.61277
3.61271
3.61265
3.61258
3.61251
3.61245
3.61238
3.61234
4.03687
4.03692
4.03699
4.03707
4.03715
4.03722
4.0373
4.03737
4.03743
4.0375
4.03756
4.03761
4.03766
4.03771
4.03776
4.0378
4.03784
4.03787
4.0379
4.03793
4.03796
4.03798
4.038
4.03802
4.03804
4.03805
4.03806
4.03806
4.03807
4.03807
4.03807
4.03807
4.03806
4.03806
4.03805
4.03804
4.03802
4.038
4.03798
4.03796
4.03793
4.0379
4.03787
4.03784
4.0378
4.03776
4.03771
4.03766
4.03761
4.03756
4.0375
4.03743
4.03737
4.0373
4.03722
4.03715
4.03707
4.03699
4.03692
4.03687
4.47051
4.47057
4.47065
4.47074
4.47083
4.47092
4.471
4.47108
4.47115
4.47122
4.47129
4.47135
4.47141
4.47147
4.47152
4.47157
4.47161
4.47165
4.47169
4.47172
4.47175
4.47177
4.4718
4.47182
4.47183
4.47185
4.47186
4.47187
4.47187
4.47188
4.47188
4.47187
4.47187
4.47186
4.47185
4.47183
4.47182
4.4718
4.47177
4.47175
4.47172
4.47169
4.47165
4.47161
4.47157
4.47152
4.47147
4.47141
4.47135
4.47129
4.47122
4.47115
4.47108
4.471
4.47092
4.47083
4.47074
4.47065
4.47057
4.47051
4.91336
4.91343
4.91352
4.91362
4.91372
4.91382
4.91391
4.914
4.91408
4.91416
4.91424
4.91431
4.91437
4.91443
4.91449
4.91454
4.91459
4.91464
4.91468
4.91471
4.91475
4.91478
4.9148
4.91482
4.91484
4.91486
4.91487
4.91488
4.91489
4.91489
4.91489
4.91489
4.91488
4.91487
4.91486
4.91484
4.91482
4.9148
4.91478
4.91475
4.91471
4.91468
4.91464
4.91459
4.91454
4.91449
4.91443
4.91437
4.91431
4.91424
4.91416
4.91408
4.914
4.91391
4.91382
4.91372
4.91362
4.91352
4.91343
4.91336
5.36546
5.36554
5.36564
5.36575
5.36586
5.36596
5.36607
5.36616
5.36626
5.36634
5.36643
5.3665
5.36658
5.36665
5.36671
5.36677
5.36682
5.36687
5.36691
5.36695
5.36699
5.36702
5.36705
5.36708
5.3671
5.36712
5.36713
5.36714
5.36715
5.36715
5.36715
5.36715
5.36714
5.36713
5.36712
5.3671
5.36708
5.36705
5.36702
5.36699
5.36695
5.36691
5.36687
5.36682
5.36677
5.36671
5.36665
5.36658
5.3665
5.36643
5.36634
5.36626
5.36616
5.36607
5.36596
5.36586
5.36575
5.36564
5.36554
5.36546
5.82681
5.82689
5.827
5.82712
5.82724
5.82736
5.82747
5.82758
5.82768
5.82778
5.82787
5.82795
5.82803
5.82811
5.82818
5.82824
5.8283
5.82836
5.8284
5.82845
5.82849
5.82852
5.82856
5.82858
5.82861
5.82863
5.82864
5.82865
5.82866
5.82866
5.82866
5.82866
5.82865
5.82864
5.82863
5.82861
5.82858
5.82856
5.82852
5.82849
5.82845
5.8284
5.82836
5.8283
5.82824
5.82818
5.82811
5.82803
5.82795
5.82787
5.82778
5.82768
5.82758
5.82747
5.82736
5.82724
5.82712
5.827
5.82689
5.82681
6.29739
6.29748
6.2976
6.29773
6.29786
6.29799
6.29811
6.29823
6.29834
6.29844
6.29854
6.29863
6.29872
6.2988
6.29888
6.29895
6.29901
6.29907
6.29912
6.29917
6.29922
6.29925
6.29929
6.29932
6.29934
6.29936
6.29938
6.29939
6.2994
6.29941
6.29941
6.2994
6.29939
6.29938
6.29936
6.29934
6.29932
6.29929
6.29925
6.29922
6.29917
6.29912
6.29907
6.29901
6.29895
6.29888
6.2988
6.29872
6.29863
6.29854
6.29844
6.29834
6.29823
6.29811
6.29799
6.29786
6.29773
6.2976
6.29748
6.29739
6.77715
6.77724
6.77737
6.77751
6.77765
6.77779
6.77792
6.77805
6.77817
6.77829
6.77839
6.77849
6.77859
6.77867
6.77876
6.77883
6.7789
6.77897
6.77902
6.77908
6.77912
6.77916
6.7792
6.77923
6.77926
6.77928
6.7793
6.77931
6.77932
6.77933
6.77933
6.77932
6.77931
6.7793
6.77928
6.77926
6.77923
6.7792
6.77916
6.77912
6.77908
6.77902
6.77897
6.7789
6.77883
6.77876
6.77867
6.77859
6.77849
6.77839
6.77829
6.77817
6.77805
6.77792
6.77779
6.77765
6.77751
6.77737
6.77724
6.77715
7.266
7.26611
7.26625
7.2664
7.26655
7.2667
7.26684
7.26698
7.26711
7.26723
7.26734
7.26745
7.26755
7.26765
7.26774
7.26782
7.26789
7.26796
7.26802
7.26808
7.26813
7.26818
7.26822
7.26825
7.26828
7.2683
7.26832
7.26834
7.26835
7.26835
7.26835
7.26835
7.26834
7.26832
7.2683
7.26828
7.26825
7.26822
7.26818
7.26813
7.26808
7.26802
7.26796
7.26789
7.26782
7.26774
7.26765
7.26755
7.26745
7.26734
7.26723
7.26711
7.26698
7.26684
7.2667
7.26655
7.2664
7.26625
7.26611
7.266
7.76385
7.76396
7.76411
7.76428
7.76444
7.7646
7.76475
7.7649
7.76503
7.76517
7.76529
7.7654
7.76551
7.76561
7.76571
7.7658
7.76588
7.76595
7.76602
7.76608
7.76613
7.76618
7.76622
7.76626
7.76629
7.76632
7.76634
7.76635
7.76636
7.76637
7.76637
7.76636
7.76635
7.76634
7.76632
7.76629
7.76626
7.76622
7.76618
7.76613
7.76608
7.76602
7.76595
7.76588
7.7658
7.76571
7.76561
7.76551
7.7654
7.76529
7.76517
7.76503
7.7649
7.76475
7.7646
7.76444
7.76428
7.76411
7.76396
7.76385
8.27055
8.27067
8.27083
8.271
8.27117
8.27134
8.27151
8.27166
8.27181
8.27195
8.27208
8.2722
8.27232
8.27243
8.27253
8.27262
8.27271
8.27278
8.27286
8.27292
8.27298
8.27303
8.27308
8.27311
8.27315
8.27318
8.2732
8.27321
8.27323
8.27323
8.27323
8.27323
8.27321
8.2732
8.27318
8.27315
8.27311
8.27308
8.27303
8.27298
8.27292
8.27286
8.27278
8.27271
8.27262
8.27253
8.27243
8.27232
8.2722
8.27208
8.27195
8.27181
8.27166
8.27151
8.27134
8.27117
8.271
8.27083
8.27067
8.27055
8.78591
8.78604
8.78621
8.78639
8.78657
8.78675
8.78693
8.78709
8.78725
8.7874
8.78754
8.78767
8.78779
8.78791
8.78801
8.78811
8.7882
8.78828
8.78836
8.78843
8.78849
8.78855
8.78859
8.78864
8.78867
8.7887
8.78872
8.78874
8.78875
8.78876
8.78876
8.78875
8.78874
8.78872
8.7887
8.78867
8.78864
8.78859
8.78855
8.78849
8.78843
8.78836
8.78828
8.7882
8.78811
8.78801
8.78791
8.78779
8.78767
8.78754
8.7874
8.78725
8.78709
8.78693
8.78675
8.78657
8.78639
8.78621
8.78604
8.78591
9.30972
9.30985
9.31003
9.31022
9.31042
9.31061
9.31079
9.31096
9.31113
9.31129
9.31143
9.31157
9.3117
9.31182
9.31194
9.31204
9.31214
9.31223
9.31231
9.31238
9.31244
9.3125
9.31255
9.3126
9.31263
9.31267
9.31269
9.31271
9.31272
9.31273
9.31273
9.31272
9.31271
9.31269
9.31267
9.31263
9.3126
9.31255
9.3125
9.31244
9.31238
9.31231
9.31223
9.31214
9.31204
9.31194
9.31182
9.3117
9.31157
9.31143
9.31129
9.31113
9.31096
9.31079
9.31061
9.31042
9.31022
9.31003
9.30985
9.30972
9.84169
9.84183
9.84202
9.84222
9.84243
9.84263
9.84282
9.843
9.84318
9.84334
9.8435
9.84365
9.84378
9.84391
9.84403
9.84414
9.84424
9.84433
9.84442
9.84449
9.84456
9.84462
9.84468
9.84472
9.84476
9.8448
9.84482
9.84484
9.84486
9.84486
9.84486
9.84486
9.84484
9.84482
9.8448
9.84476
9.84472
9.84468
9.84462
9.84456
9.84449
9.84442
9.84433
9.84424
9.84414
9.84403
9.84391
9.84378
9.84365
9.8435
9.84334
9.84318
9.843
9.84282
9.84263
9.84243
9.84222
9.84202
9.84183
9.84169
10.3815
10.3816
10.3818
10.3821
10.3823
10.3825
10.3827
10.3829
10.3831
10.3832
10.3834
10.3836
10.3837
10.3838
10.384
10.3841
10.3842
10.3843
10.3844
10.3844
10.3845
10.3846
10.3846
10.3847
10.3847
10.3848
10.3848
10.3848
10.3848
10.3848
10.3848
10.3848
10.3848
10.3848
10.3848
10.3847
10.3847
10.3846
10.3846
10.3845
10.3844
10.3844
10.3843
10.3842
10.3841
10.384
10.3838
10.3837
10.3836
10.3834
10.3832
10.3831
10.3829
10.3827
10.3825
10.3823
10.3821
10.3818
10.3816
10.3815
10.9288
10.9289
10.9291
10.9294
10.9296
10.9298
10.93
10.9302
10.9304
10.9306
10.9308
10.9309
10.9311
10.9312
10.9313
10.9315
10.9316
10.9317
10.9318
10.9319
10.9319
10.932
10.9321
10.9321
10.9322
10.9322
10.9322
10.9322
10.9323
10.9323
10.9323
10.9323
10.9322
10.9322
10.9322
10.9322
10.9321
10.9321
10.932
10.9319
10.9319
10.9318
10.9317
10.9316
10.9315
10.9313
10.9312
10.9311
10.9309
10.9308
10.9306
10.9304
10.9302
10.93
10.9298
10.9296
10.9294
10.9291
10.9289
10.9288
11.483
11.4832
11.4834
11.4836
11.4839
11.4841
11.4843
11.4845
11.4847
11.4849
11.4851
11.4853
11.4854
11.4856
11.4857
11.4858
11.486
11.4861
11.4862
11.4863
11.4863
11.4864
11.4865
11.4865
11.4866
11.4866
11.4866
11.4867
11.4867
11.4867
11.4867
11.4867
11.4867
11.4866
11.4866
11.4866
11.4865
11.4865
11.4864
11.4863
11.4863
11.4862
11.4861
11.486
11.4858
11.4857
11.4856
11.4854
11.4853
11.4851
11.4849
11.4847
11.4845
11.4843
11.4841
11.4839
11.4836
11.4834
11.4832
11.483
12.0438
12.0439
12.0442
12.0444
12.0447
12.0449
12.0451
12.0453
12.0455
12.0457
12.0459
12.0461
12.0463
12.0464
12.0466
12.0467
12.0468
12.0469
12.047
12.0471
12.0472
12.0473
12.0473
12.0474
12.0474
12.0475
12.0475
12.0475
12.0476
12.0476
12.0476
12.0476
12.0475
12.0475
12.0475
12.0474
12.0474
12.0473
12.0473
12.0472
12.0471
12.047
12.0469
12.0468
12.0467
12.0466
12.0464
12.0463
12.0461
12.0459
12.0457
12.0455
12.0453
12.0451
12.0449
12.0447
12.0444
12.0442
12.0439
12.0438
12.6104
12.6105
12.6108
12.611
12.6113
12.6115
12.6118
12.612
12.6122
12.6124
12.6126
12.6128
12.613
12.6131
12.6133
12.6134
12.6135
12.6136
12.6137
12.6138
12.6139
12.614
12.6141
12.6141
12.6142
12.6142
12.6142
12.6143
12.6143
12.6143
12.6143
12.6143
12.6143
12.6142
12.6142
12.6142
12.6141
12.6141
12.614
12.6139
12.6138
12.6137
12.6136
12.6135
12.6134
12.6133
12.6131
12.613
12.6128
12.6126
12.6124
12.6122
12.612
12.6118
12.6115
12.6113
12.611
12.6108
12.6105
12.6104
13.1821
13.1823
13.1825
13.1828
13.183
13.1833
13.1835
13.1838
13.184
13.1842
13.1844
13.1846
13.1848
13.1849
13.1851
13.1852
13.1854
13.1855
13.1856
13.1857
13.1858
13.1859
13.1859
13.186
13.186
13.1861
13.1861
13.1861
13.1862
13.1862
13.1862
13.1862
13.1861
13.1861
13.1861
13.186
13.186
13.1859
13.1859
13.1858
13.1857
13.1856
13.1855
13.1854
13.1852
13.1851
13.1849
13.1848
13.1846
13.1844
13.1842
13.184
13.1838
13.1835
13.1833
13.183
13.1828
13.1825
13.1823
13.1821
13.7581
13.7583
13.7586
13.7588
13.7591
13.7594
13.7596
13.7599
13.7601
13.7603
13.7605
13.7607
13.7609
13.7611
13.7612
13.7614
13.7615
13.7616
13.7617
13.7618
13.7619
13.762
13.7621
13.7621
13.7622
13.7622
13.7623
13.7623
13.7623
13.7623
13.7623
13.7623
13.7623
13.7623
13.7622
13.7622
13.7621
13.7621
13.762
13.7619
13.7618
13.7617
13.7616
13.7615
13.7614
13.7612
13.7611
13.7609
13.7607
13.7605
13.7603
13.7601
13.7599
13.7596
13.7594
13.7591
13.7588
13.7586
13.7583
13.7581
14.3375
14.3377
14.338
14.3382
14.3385
14.3388
14.3391
14.3393
14.3395
14.3398
14.34
14.3402
14.3404
14.3405
14.3407
14.3409
14.341
14.3411
14.3412
14.3413
14.3414
14.3415
14.3416
14.3417
14.3417
14.3418
14.3418
14.3418
14.3418
14.3418
14.3418
14.3418
14.3418
14.3418
14.3418
14.3417
14.3417
14.3416
14.3415
14.3414
14.3413
14.3412
14.3411
14.341
14.3409
14.3407
14.3405
14.3404
14.3402
14.34
14.3398
14.3395
14.3393
14.3391
14.3388
14.3385
14.3382
14.338
14.3377
14.3375
14.9192
14.9194
14.9196
14.9199
14.9202
14.9205
14.9208
14.921
14.9213
14.9215
14.9217
14.9219
14.9221
14.9223
14.9225
14.9226
14.9228
14.9229
14.923
14.9231
14.9232
14.9233
14.9234
14.9234
14.9235
14.9235
14.9236
14.9236
14.9236
14.9236
14.9236
14.9236
14.9236
14.9236
14.9235
14.9235
14.9234
14.9234
14.9233
14.9232
14.9231
14.923
14.9229
14.9228
14.9226
14.9225
14.9223
14.9221
14.9219
14.9217
14.9215
14.9213
14.921
14.9208
14.9205
14.9202
14.9199
14.9196
14.9194
14.9192
15.5019
15.5021
15.5023
15.5026
15.5029
15.5032
15.5035
15.5037
15.504
15.5042
15.5044
15.5047
15.5049
15.505
15.5052
15.5054
15.5055
15.5056
15.5058
15.5059
15.506
15.5061
15.5061
15.5062
15.5063
15.5063
15.5063
15.5064
15.5064
15.5064
15.5064
15.5064
15.5064
15.5063
15.5063
15.5063
15.5062
15.5061
15.5061
15.506
15.5059
15.5058
15.5056
15.5055
15.5054
15.5052
15.505
15.5049
15.5047
15.5044
15.5042
15.504
15.5037
15.5035
15.5032
15.5029
15.5026
15.5023
15.5021
15.5019
16.0841
16.0843
16.0846
16.0849
16.0852
16.0855
16.0857
16.086
16.0863
16.0865
16.0867
16.0869
16.0871
16.0873
16.0875
16.0877
16.0878
16.088
16.0881
16.0882
16.0883
16.0884
16.0885
16.0885
16.0886
16.0886
16.0887
16.0887
16.0887
16.0887
16.0887
16.0887
16.0887
16.0887
16.0886
16.0886
16.0885
16.0885
16.0884
16.0883
16.0882
16.0881
16.088
16.0878
16.0877
16.0875
16.0873
16.0871
16.0869
16.0867
16.0865
16.0863
16.086
16.0857
16.0855
16.0852
16.0849
16.0846
16.0843
16.0841
16.6642
16.6644
16.6647
16.665
16.6653
16.6656
16.6659
16.6662
16.6664
16.6667
16.6669
16.6671
16.6673
16.6675
16.6677
16.6678
16.668
16.6681
16.6683
16.6684
16.6685
16.6686
16.6686
16.6687
16.6688
16.6688
16.6689
16.6689
16.6689
16.6689
16.6689
16.6689
16.6689
16.6689
16.6688
16.6688
16.6687
16.6686
16.6686
16.6685
16.6684
16.6683
16.6681
16.668
16.6678
16.6677
16.6675
16.6673
16.6671
16.6669
16.6667
16.6664
16.6662
16.6659
16.6656
16.6653
16.665
16.6647
16.6644
16.6642
17.2403
17.2405
17.2408
17.2411
17.2414
17.2417
17.242
17.2423
17.2425
17.2428
17.243
17.2432
17.2434
17.2436
17.2438
17.244
17.2441
17.2443
17.2444
17.2445
17.2446
17.2447
17.2448
17.2448
17.2449
17.2449
17.245
17.245
17.245
17.245
17.245
17.245
17.245
17.245
17.2449
17.2449
17.2448
17.2448
17.2447
17.2446
17.2445
17.2444
17.2443
17.2441
17.244
17.2438
17.2436
17.2434
17.2432
17.243
17.2428
17.2425
17.2423
17.242
17.2417
17.2414
17.2411
17.2408
17.2405
17.2403
17.8101
17.8103
17.8106
17.8109
17.8112
17.8115
17.8118
17.8121
17.8123
17.8126
17.8128
17.813
17.8132
17.8134
17.8136
17.8138
17.8139
17.8141
17.8142
17.8143
17.8144
17.8145
17.8146
17.8147
17.8147
17.8148
17.8148
17.8148
17.8149
17.8149
17.8149
17.8149
17.8148
17.8148
17.8148
17.8147
17.8147
17.8146
17.8145
17.8144
17.8143
17.8142
17.8141
17.8139
17.8138
17.8136
17.8134
17.8132
17.813
17.8128
17.8126
17.8123
17.8121
17.8118
17.8115
17.8112
17.8109
17.8106
17.8103
17.8101
18.371
18.3712
18.3715
18.3718
18.3721
18.3724
18.3727
18.373
18.3732
18.3735
18.3737
18.3739
18.3741
18.3743
18.3745
18.3747
18.3748
18.375
18.3751
18.3752
18.3753
18.3754
18.3755
18.3755
18.3756
18.3757
18.3757
18.3757
18.3757
18.3757
18.3757
18.3757
18.3757
18.3757
18.3757
18.3756
18.3755
18.3755
18.3754
18.3753
18.3752
18.3751
18.375
18.3748
18.3747
18.3745
18.3743
18.3741
18.3739
18.3737
18.3735
18.3732
18.373
18.3727
18.3724
18.3721
18.3718
18.3715
18.3712
18.371
18.9199
18.9202
18.9204
18.9207
18.921
18.9213
18.9216
18.9219
18.9221
18.9224
18.9226
18.9228
18.923
18.9232
18.9234
18.9236
18.9237
18.9238
18.924
18.9241
18.9242
18.9243
18.9244
18.9244
18.9245
18.9245
18.9246
18.9246
18.9246
18.9246
18.9246
18.9246
18.9246
18.9246
18.9245
18.9245
18.9244
18.9244
18.9243
18.9242
18.9241
18.924
18.9238
18.9237
18.9236
18.9234
18.9232
18.923
18.9228
18.9226
18.9224
18.9221
18.9219
18.9216
18.9213
18.921
18.9207
18.9204
18.9202
18.9199
19.4533
19.4535
19.4538
19.4541
19.4544
19.4547
19.4549
19.4552
19.4555
19.4557
19.4559
19.4561
19.4563
19.4565
19.4567
19.4569
19.457
19.4571
19.4573
19.4574
19.4575
19.4576
19.4577
19.4577
19.4578
19.4578
19.4579
19.4579
19.4579
19.4579
19.4579
19.4579
19.4579
19.4579
19.4578
19.4578
19.4577
19.4577
19.4576
19.4575
19.4574
19.4573
19.4571
19.457
19.4569
19.4567
19.4565
19.4563
19.4561
19.4559
19.4557
19.4555
19.4552
19.4549
19.4547
19.4544
19.4541
19.4538
19.4535
19.4533
19.9669
19.9671
19.9673
19.9676
19.9679
19.9682
19.9684
19.9687
19.9689
19.9692
19.9694
19.9696
19.9698
19.97
19.9701
19.9703
19.9704
19.9706
19.9707
19.9708
19.9709
19.971
19.9711
19.9711
19.9712
19.9712
19.9713
19.9713
19.9713
19.9713
19.9713
19.9713
19.9713
19.9713
19.9712
19.9712
19.9711
19.9711
19.971
19.9709
19.9708
19.9707
19.9706
19.9704
19.9703
19.9701
19.97
19.9698
19.9696
19.9694
19.9692
19.9689
19.9687
19.9684
19.9682
19.9679
19.9676
19.9673
19.9671
19.9669
20.4555
20.4557
20.456
20.4562
20.4565
20.4568
20.457
20.4573
20.4575
20.4577
20.4579
20.4581
20.4583
20.4585
20.4587
20.4588
20.4589
20.4591
20.4592
20.4593
20.4594
20.4595
20.4596
20.4596
20.4597
20.4597
20.4598
20.4598
20.4598
20.4598
20.4598
20.4598
20.4598
20.4598
20.4597
20.4597
20.4596
20.4596
20.4595
20.4594
20.4593
20.4592
20.4591
20.4589
20.4588
20.4587
20.4585
20.4583
20.4581
20.4579
20.4577
20.4575
20.4573
20.457
20.4568
20.4565
20.4562
20.456
20.4557
20.4555
20.9134
20.9136
20.9139
20.9141
20.9144
20.9146
20.9149
20.9151
20.9153
20.9155
20.9157
20.9159
20.9161
20.9162
20.9164
20.9165
20.9167
20.9168
20.9169
20.917
20.9171
20.9172
20.9172
20.9173
20.9173
20.9174
20.9174
20.9174
20.9175
20.9175
20.9175
20.9175
20.9174
20.9174
20.9174
20.9173
20.9173
20.9172
20.9172
20.9171
20.917
20.9169
20.9168
20.9167
20.9165
20.9164
20.9162
20.9161
20.9159
20.9157
20.9155
20.9153
20.9151
20.9149
20.9146
20.9144
20.9141
20.9139
20.9136
20.9134
21.3341
21.3342
21.3344
21.3347
21.3349
21.3351
21.3353
21.3356
21.3358
21.3359
21.3361
21.3363
21.3365
21.3366
21.3367
21.3369
21.337
21.3371
21.3372
21.3373
21.3374
21.3375
21.3375
21.3376
21.3376
21.3377
21.3377
21.3377
21.3377
21.3378
21.3378
21.3377
21.3377
21.3377
21.3377
21.3376
21.3376
21.3375
21.3375
21.3374
21.3373
21.3372
21.3371
21.337
21.3369
21.3367
21.3366
21.3365
21.3363
21.3361
21.3359
21.3358
21.3356
21.3353
21.3351
21.3349
21.3347
21.3344
21.3342
21.3341
21.7108
21.7109
21.7111
21.7113
21.7115
21.7117
21.7119
21.7121
21.7122
21.7124
21.7126
21.7127
21.7129
21.713
21.7131
21.7132
21.7134
21.7135
21.7135
21.7136
21.7137
21.7138
21.7138
21.7139
21.7139
21.714
21.714
21.714
21.714
21.714
21.714
21.714
21.714
21.714
21.714
21.7139
21.7139
21.7138
21.7138
21.7137
21.7136
21.7135
21.7135
21.7134
21.7132
21.7131
21.713
21.7129
21.7127
21.7126
21.7124
21.7122
21.7121
21.7119
21.7117
21.7115
21.7113
21.7111
21.7109
21.7108
22.0381
22.0382
22.0383
22.0385
22.0387
22.0388
22.039
22.0392
22.0393
22.0395
22.0396
22.0397
22.0399
22.04
22.0401
22.0402
22.0403
22.0404
22.0405
22.0405
22.0406
22.0406
22.0407
22.0407
22.0408
22.0408
22.0408
22.0409
22.0409
22.0409
22.0409
22.0409
22.0409
22.0408
22.0408
22.0408
22.0407
22.0407
22.0406
22.0406
22.0405
22.0405
22.0404
22.0403
22.0402
22.0401
22.04
22.0399
22.0397
22.0396
22.0395
22.0393
22.0392
22.039
22.0388
22.0387
22.0385
22.0383
22.0382
22.0381
22.3134
22.3135
22.3136
22.3137
22.3139
22.314
22.3141
22.3143
22.3144
22.3145
22.3146
22.3147
22.3148
22.3149
22.315
22.3151
22.3152
22.3153
22.3154
22.3154
22.3155
22.3155
22.3156
22.3156
22.3156
22.3157
22.3157
22.3157
22.3157
22.3157
22.3157
22.3157
22.3157
22.3157
22.3157
22.3156
22.3156
22.3156
22.3155
22.3155
22.3154
22.3154
22.3153
22.3152
22.3151
22.315
22.3149
22.3148
22.3147
22.3146
22.3145
22.3144
22.3143
22.3141
22.314
22.3139
22.3137
22.3136
22.3135
22.3134
22.5383
22.5384
22.5385
22.5386
22.5387
22.5388
22.5389
22.539
22.5391
22.5392
22.5393
22.5394
22.5395
22.5396
22.5396
22.5397
22.5398
22.5398
22.5399
22.54
22.54
22.54
22.5401
22.5401
22.5401
22.5402
22.5402
22.5402
22.5402
22.5402
22.5402
22.5402
22.5402
22.5402
22.5402
22.5401
22.5401
22.5401
22.54
22.54
22.54
22.5399
22.5398
22.5398
22.5397
22.5396
22.5396
22.5395
22.5394
22.5393
22.5392
22.5391
22.539
22.5389
22.5388
22.5387
22.5386
22.5385
22.5384
22.5383
22.7187
22.7187
22.7188
22.7189
22.7189
22.719
22.7191
22.7192
22.7193
22.7193
22.7194
22.7195
22.7196
22.7196
22.7197
22.7198
22.7198
22.7199
22.7199
22.72
22.72
22.72
22.7201
22.7201
22.7201
22.7201
22.7202
22.7202
22.7202
22.7202
22.7202
22.7202
22.7202
22.7202
22.7201
22.7201
22.7201
22.7201
22.72
22.72
22.72
22.7199
22.7199
22.7198
22.7198
22.7197
22.7196
22.7196
22.7195
22.7194
22.7193
22.7193
22.7192
22.7191
22.719
22.7189
22.7189
22.7188
22.7187
22.7187
22.8628
22.8628
22.8629
22.8629
22.863
22.8631
22.8631
22.8632
22.8633
22.8633
22.8634
22.8635
22.8635
22.8636
22.8636
22.8637
22.8637
22.8638
22.8638
22.8639
22.8639
22.8639
22.864
22.864
22.864
22.864
22.864
22.864
22.864
22.864
22.864
22.864
22.864
22.864
22.864
22.864
22.864
22.864
22.8639
22.8639
22.8639
22.8638
22.8638
22.8637
22.8637
22.8636
22.8636
22.8635
22.8635
22.8634
22.8633
22.8633
22.8632
22.8631
22.8631
22.863
22.8629
22.8629
22.8628
22.8628
22.9795
22.9796
22.9796
22.9796
22.9797
22.9797
22.9798
22.9799
22.9799
22.98
22.98
22.9801
22.9801
22.9802
22.9802
22.9803
22.9803
22.9803
22.9804
22.9804
22.9804
22.9805
22.9805
22.9805
22.9805
22.9806
22.9806
22.9806
22.9806
22.9806
22.9806
22.9806
22.9806
22.9806
22.9806
22.9805
22.9805
22.9805
22.9805
22.9804
22.9804
22.9804
22.9803
22.9803
22.9803
22.9802
22.9802
22.9801
22.9801
22.98
22.98
22.9799
22.9799
22.9798
22.9797
22.9797
22.9796
22.9796
22.9796
22.9795
23.0764
23.0764
23.0764
23.0765
23.0765
23.0765
23.0766
23.0766
23.0767
23.0767
23.0768
23.0768
23.0769
23.0769
23.077
23.077
23.077
23.0771
23.0771
23.0771
23.0772
23.0772
23.0772
23.0772
23.0772
23.0773
23.0773
23.0773
23.0773
23.0773
23.0773
23.0773
23.0773
23.0773
23.0773
23.0772
23.0772
23.0772
23.0772
23.0772
23.0771
23.0771
23.0771
23.077
23.077
23.077
23.0769
23.0769
23.0768
23.0768
23.0767
23.0767
23.0766
23.0766
23.0765
23.0765
23.0765
23.0764
23.0764
23.0764
23.159
23.159
23.159
23.159
23.1591
23.1591
23.1591
23.1592
23.1592
23.1593
23.1593
23.1593
23.1594
23.1594
23.1595
23.1595
23.1595
23.1596
23.1596
23.1596
23.1597
23.1597
23.1597
23.1597
23.1597
23.1598
23.1598
23.1598
23.1598
23.1598
23.1598
23.1598
23.1598
23.1598
23.1598
23.1597
23.1597
23.1597
23.1597
23.1597
23.1596
23.1596
23.1596
23.1595
23.1595
23.1595
23.1594
23.1594
23.1593
23.1593
23.1593
23.1592
23.1592
23.1591
23.1591
23.1591
23.159
23.159
23.159
23.159
23.2312
23.2312
23.2312
23.2312
23.2313
23.2313
23.2313
23.2314
23.2314
23.2314
23.2315
23.2315
23.2316
23.2316
23.2316
23.2317
23.2317
23.2318
23.2318
23.2318
23.2318
23.2319
23.2319
23.2319
23.2319
23.2319
23.2319
23.2319
23.232
23.232
23.232
23.232
23.2319
23.2319
23.2319
23.2319
23.2319
23.2319
23.2319
23.2318
23.2318
23.2318
23.2318
23.2317
23.2317
23.2316
23.2316
23.2316
23.2315
23.2315
23.2314
23.2314
23.2314
23.2313
23.2313
23.2313
23.2312
23.2312
23.2312
23.2312
23.2957
23.2957
23.2957
23.2957
23.2957
23.2957
23.2958
23.2958
23.2958
23.2959
23.2959
23.296
23.296
23.296
23.2961
23.2961
23.2962
23.2962
23.2962
23.2962
23.2963
23.2963
23.2963
23.2963
23.2963
23.2964
23.2964
23.2964
23.2964
23.2964
23.2964
23.2964
23.2964
23.2964
23.2964
23.2963
23.2963
23.2963
23.2963
23.2963
23.2962
23.2962
23.2962
23.2962
23.2961
23.2961
23.296
23.296
23.296
23.2959
23.2959
23.2958
23.2958
23.2958
23.2957
23.2957
23.2957
23.2957
23.2957
23.2957
23.3541
23.3541
23.3541
23.3541
23.3542
23.3542
23.3542
23.3542
23.3543
23.3543
23.3544
23.3544
23.3544
23.3545
23.3545
23.3545
23.3546
23.3546
23.3546
23.3547
23.3547
23.3547
23.3547
23.3548
23.3548
23.3548
23.3548
23.3548
23.3548
23.3548
23.3548
23.3548
23.3548
23.3548
23.3548
23.3548
23.3548
23.3547
23.3547
23.3547
23.3547
23.3546
23.3546
23.3546
23.3545
23.3545
23.3545
23.3544
23.3544
23.3544
23.3543
23.3543
23.3542
23.3542
23.3542
23.3542
23.3541
23.3541
23.3541
23.3541
23.4077
23.4077
23.4077
23.4078
23.4078
23.4078
23.4078
23.4079
23.4079
23.4079
23.408
23.408
23.4081
23.4081
23.4081
23.4082
23.4082
23.4082
23.4083
23.4083
23.4083
23.4083
23.4084
23.4084
23.4084
23.4084
23.4084
23.4084
23.4084
23.4084
23.4084
23.4084
23.4084
23.4084
23.4084
23.4084
23.4084
23.4084
23.4083
23.4083
23.4083
23.4083
23.4082
23.4082
23.4082
23.4081
23.4081
23.4081
23.408
23.408
23.4079
23.4079
23.4079
23.4078
23.4078
23.4078
23.4078
23.4077
23.4077
23.4077
23.4574
23.4574
23.4574
23.4574
23.4574
23.4575
23.4575
23.4575
23.4576
23.4576
23.4576
23.4577
23.4577
23.4578
23.4578
23.4578
23.4579
23.4579
23.4579
23.458
23.458
23.458
23.458
23.4581
23.4581
23.4581
23.4581
23.4581
23.4581
23.4581
23.4581
23.4581
23.4581
23.4581
23.4581
23.4581
23.4581
23.458
23.458
23.458
23.458
23.4579
23.4579
23.4579
23.4578
23.4578
23.4578
23.4577
23.4577
23.4576
23.4576
23.4576
23.4575
23.4575
23.4575
23.4574
23.4574
23.4574
23.4574
23.4574
23.5038
23.5038
23.5038
23.5038
23.5038
23.5038
23.5039
23.5039
23.5039
23.504
23.504
23.504
23.5041
23.5041
23.5042
23.5042
23.5042
23.5043
23.5043
23.5043
23.5044
23.5044
23.5044
23.5044
23.5045
23.5045
23.5045
23.5045
23.5045
23.5045
23.5045
23.5045
23.5045
23.5045
23.5045
23.5045
23.5044
23.5044
23.5044
23.5044
23.5043
23.5043
23.5043
23.5042
23.5042
23.5042
23.5041
23.5041
23.504
23.504
23.504
23.5039
23.5039
23.5039
23.5038
23.5038
23.5038
23.5038
23.5038
23.5038
23.5473
23.5473
23.5473
23.5473
23.5473
23.5474
23.5474
23.5474
23.5475
23.5475
23.5476
23.5476
23.5476
23.5477
23.5477
23.5478
23.5478
23.5478
23.5479
23.5479
23.5479
23.548
23.548
23.548
23.548
23.548
23.548
23.548
23.5481
23.5481
23.5481
23.5481
23.548
23.548
23.548
23.548
23.548
23.548
23.548
23.5479
23.5479
23.5479
23.5478
23.5478
23.5478
23.5477
23.5477
23.5476
23.5476
23.5476
23.5475
23.5475
23.5474
23.5474
23.5474
23.5473
23.5473
23.5473
23.5473
23.5473
23.5884
23.5884
23.5884
23.5884
23.5885
23.5885
23.5885
23.5886
23.5886
23.5886
23.5887
23.5887
23.5888
23.5888
23.5888
23.5889
23.5889
23.589
23.589
23.589
23.5891
23.5891
23.5891
23.5891
23.5892
23.5892
23.5892
23.5892
23.5892
23.5892
23.5892
23.5892
23.5892
23.5892
23.5892
23.5892
23.5891
23.5891
23.5891
23.5891
23.589
23.589
23.589
23.5889
23.5889
23.5888
23.5888
23.5888
23.5887
23.5887
23.5886
23.5886
23.5886
23.5885
23.5885
23.5885
23.5884
23.5884
23.5884
23.5884
23.6274
23.6274
23.6274
23.6274
23.6275
23.6275
23.6275
23.6276
23.6276
23.6276
23.6277
23.6277
23.6278
23.6278
23.6279
23.6279
23.6279
23.628
23.628
23.6281
23.6281
23.6281
23.6281
23.6282
23.6282
23.6282
23.6282
23.6282
23.6282
23.6282
23.6282
23.6282
23.6282
23.6282
23.6282
23.6282
23.6282
23.6281
23.6281
23.6281
23.6281
23.628
23.628
23.6279
23.6279
23.6279
23.6278
23.6278
23.6277
23.6277
23.6276
23.6276
23.6276
23.6275
23.6275
23.6275
23.6274
23.6274
23.6274
23.6274
23.6646
23.6646
23.6646
23.6646
23.6646
23.6646
23.6647
23.6647
23.6647
23.6648
23.6648
23.6649
23.6649
23.665
23.665
23.6651