/*--------------------------------*- C++ -*----------------------------------*\
| =========                 |                                                 |
| \\      /  F ield         | foam-extend: Open Source CFD                    |
|  \\    /   O peration     | Version:     4.0                                |
|   \\  /    A nd           | Web:         http://www.foam-extend.org         |
|    \\/     M anipulation  |                                                 |
\*---------------------------------------------------------------------------*/
FoamFile
{
    version     2.0;
    format      ascii;
    class       volScalarField;
    location    "1";
    object      psiE;
}
// * * * * * * * * * * * * * * * * * * * * * * * * * * * * * * * * * * * * * //

dimensions      [1 2 -3 0 0 -1 0];

internalField   nonuniform List<scalar> 
6960
(
1.23813e-30
3.17133e-20
4.86476e-32
-1.57247e-20
-1.57247e-20
1.59772e-20
1.59772e-20
-1.57247e-20
-1.23587e-30
-1.28595e-30
-1.57247e-20
-1.95752e-33
-1.23717e-30
-1.57247e-20
1.28125e-30
1.59772e-20
-1.57247e-20
1.59772e-20
1.59772e-20
-1.57247e-20
1.59772e-20
1.59772e-20
-1.57247e-20
-1.23717e-30
1.18636e-30
-1.57247e-20
-1.57247e-20
2.75577e-22
-3.17134e-20
-1.60117e-20
-3.19197e-20
-2.75577e-22
-1.23292e-30
-1.60117e-20
-1.60117e-20
-1.18349e-30
-1.60117e-20
-1.23487e-30
-1.60117e-20
3.17133e-20
1.23762e-30
-1.18383e-30
-1.1817e-30
-2.75577e-22
3.17133e-20
1.569e-20
3.17133e-20
-1.18204e-30
1.23763e-30
3.17133e-20
1.569e-20
3.17133e-20
3.17133e-20
1.569e-20
1.59772e-20
-2.75577e-22
1.569e-20
1.569e-20
3.17133e-20
1.19129e-30
1.83266e-20
-1.39794e-20
1.39666e-20
1.83267e-20
-1.39794e-20
-3.23061e-20
-1.39794e-20
-1.55621e-31
-1.83139e-20
-3.23061e-20
1.39666e-20
3.98132e-31
-1.83139e-20
1.83267e-20
3.22678e-20
1.39666e-20
-1.53865e-31
1.39666e-20
4.13532e-32
3.22678e-20
-1.39794e-20
1.39666e-20
-1.83139e-20
-1.83139e-20
4.33447e-21
-1.39794e-20
1.39666e-20
1.14756e-32
1.83267e-20
1.83267e-20
1.39666e-20
1.39666e-20
-1.83139e-20
-1.83139e-20
4.33447e-21
-4.32171e-21
4.33447e-21
-1.83139e-20
3.22678e-20
1.83267e-20
1.83267e-20
-4.32171e-21
-4.32171e-21
-1.83139e-20
5.95063e-31
3.22678e-20
5.95469e-31
-4.32171e-21
1.83267e-20
-1.83139e-20
1.39666e-20
1.64332e-30
1.83267e-20
-1.83139e-20
5.63426e-31
1.15388e-31
1.39666e-20
3.22678e-20
-1.39794e-20
4.33447e-21
-1.77791e-20
-1.3571e-20
3.87074e-31
-1.3571e-20
1.77674e-20
-1.3571e-20
-8.38203e-31
1.35593e-20
4.20807e-21
-4.44072e-31
3.13151e-20
1.35593e-20
3.13151e-20
-4.19639e-21
-4.19639e-21
4.20807e-21
1.35593e-20
3.13151e-20
-1.77791e-20
-1.3571e-20
-1.18339e-30
-6.31839e-32
1.35593e-20
1.35593e-20
-1.3571e-20
1.35593e-20
8.39928e-31
-3.72463e-34
-1.3571e-20
-1.3571e-20
1.77674e-20
3.88681e-31
1.35593e-20
-4.19639e-21
3.13151e-20
-3.13619e-20
4.20807e-21
-5.08103e-31
1.77674e-20
1.64279e-31
-1.77791e-20
4.20807e-21
4.20807e-21
1.77674e-20
-1.77791e-20
-4.19639e-21
-1.77791e-20
4.20807e-21
-4.19639e-21
-6.14584e-31
3.13151e-20
1.77674e-20
-3.13619e-20
-1.30576e-30
1.15789e-34
4.20807e-21
3.13151e-20
1.00177e-31
-1.77791e-20
1.77674e-20
1.7271e-20
-2.40578e-31
-6.86093e-31
1.7271e-20
4.38653e-31
-1.7271e-20
-1.7271e-20
-1.31642e-20
-1.7271e-20
1.7271e-20
3.845e-31
-1.31642e-20
4.08544e-21
-4.91842e-31
1.31428e-20
-3.04566e-20
4.26312e-31
4.08544e-21
1.7271e-20
-4.06408e-21
-3.04566e-20
-1.7271e-20
1.7271e-20
-1.7271e-20
-1.02085e-30
-1.31642e-20
1.7271e-20
-9.06784e-32
3.04139e-20
1.31428e-20
-1.31642e-20
-2.97791e-31
7.24592e-31
1.31428e-20
1.31428e-20
-4.06408e-21
1.7271e-20
2.97216e-31
-1.7271e-20
-1.31642e-20
1.7271e-20
-5.81143e-31
3.04139e-20
3.04139e-20
1.31428e-20
1.93845e-31
-3.04566e-20
3.04139e-20
-4.91609e-31
-4.06408e-21
4.76201e-31
4.38653e-31
-3.84616e-31
-3.04566e-20
-6.86983e-31
1.31428e-20
-4.06408e-21
-3.04566e-20
-7.36719e-31
1.31429e-20
-2.95472e-20
4.0055e-21
-2.95472e-20
-3.94687e-21
-4.08104e-34
-1.28198e-20
-3.78001e-31
1.27611e-20
-1.28198e-20
-1.67666e-20
-1.67666e-20
-2.95472e-20
-1.28198e-20
-1.67666e-20
-1.67666e-20
-6.67128e-31
4.0055e-21
-1.28198e-20
4.0055e-21
1.27611e-20
1.27611e-20
-1.67666e-20
1.27611e-20
1.6747e-20
-2.95472e-20
1.6747e-20
-2.95472e-20
-3.94687e-21
-3.94687e-21
1.6747e-20
-6.23983e-31
-1.28198e-20
1.6747e-20
1.6747e-20
5.45336e-31
5.03326e-31
3.78666e-31
1.27611e-20
-3.77282e-31
1.6747e-20
-1.28198e-20
-2.95472e-20
-1.28198e-20
6.66534e-31
-3.94687e-21
1.27611e-20
2.95472e-20
1.6747e-20
-1.67666e-20
-1.28198e-20
-1.28198e-20
9.96244e-35
1.6747e-20
-2.95472e-20
-2.95472e-20
-1.28198e-20
-2.95472e-20
-2.95472e-20
-1.28198e-20
3.15948e-32
3.85082e-21
-1.6259e-20
-3.83293e-21
1.24261e-20
5.69233e-34
1.24261e-20
-2.20942e-31
1.24261e-20
-3.1751e-31
-1.6259e-20
1.6259e-20
-2.86672e-20
2.86851e-20
-1.2444e-20
-1.2444e-20
-5.10822e-31
-6.63432e-32
2.86851e-20
1.6259e-20
1.6259e-20
2.86851e-20
-6.91369e-31
3.85082e-21
-1.2444e-20
-7.20059e-31
-1.2444e-20
2.86851e-20
-7.61876e-32
3.85082e-21
-2.86672e-20
-1.6259e-20
1.24261e-20
1.04579e-31
-2.86672e-20
1.24261e-20
2.86851e-20
6.96237e-32
6.15262e-31
2.21388e-31
1.24261e-20
1.6259e-20
-1.2444e-20
1.6259e-20
3.74703e-34
-1.52824e-31
2.71263e-32
-1.2444e-20
-1.2444e-20
2.86851e-20
-2.86672e-20
-2.86672e-20
-7.72096e-32
-2.86672e-20
1.6259e-20
-7.19401e-31
-1.2444e-20
1.6259e-20
-5.74516e-31
3.85082e-21
-1.2444e-20
-1.99555e-20
2.78317e-20
-7.87621e-21
-3.72222e-21
-4.2413e-34
-1.58016e-20
-1.20793e-20
3.39067e-31
-3.72222e-21
1.20302e-20
1.99392e-20
-2.78317e-20
-3.72222e-21
-1.20793e-20
4.15399e-21
-2.78317e-20
-7.87621e-21
-7.87621e-21
4.15399e-21
-4.13762e-21
1.20302e-20
-1.99555e-20
-4.13762e-21
-4.13762e-21
-7.87621e-21
-1.49592e-31
-7.87621e-21
-4.31809e-34
-1.20793e-20
-3.71479e-31
-1.20793e-20
7.90899e-21
-1.20793e-20
-4.13762e-21
1.20302e-20
7.90899e-21
3.73859e-21
1.99392e-20
1.20302e-20
4.15399e-21
-1.20793e-20
-4.13762e-21
4.15399e-21
-1.24971e-31
-4.13762e-21
-1.20793e-20
-1.20793e-20
-2.45694e-32
-4.13762e-21
-7.87621e-21
-3.05143e-31
-4.13762e-21
-1.20793e-20
-4.13762e-21
-7.87621e-21
-3.399e-31
1.20302e-20
6.64698e-32
1.99392e-20
-2.1445e-31
1.93581e-20
-7.66257e-21
-2.29461e-31
7.69252e-21
5.70449e-32
7.69252e-21
-7.78358e-32
7.69252e-21
7.69252e-21
7.69252e-21
1.93581e-20
-2.63276e-31
-4.03293e-21
7.69252e-21
-1.17255e-20
7.69252e-21
4.03293e-21
4.03293e-21
-7.66257e-21
1.93581e-20
2.93234e-31
1.17105e-20
-1.93581e-20
-1.17255e-20
-2.29613e-31
4.03293e-21
-1.17255e-20
-1.64978e-31
7.69252e-21
7.69252e-21
-1.93581e-20
1.17105e-20
1.17105e-20
-7.60703e-33
-1.93581e-20
1.20972e-31
2.21744e-31
4.13761e-31
7.69252e-21
-1.00882e-31
-1.85584e-31
-6.4031e-32
7.69252e-21
-7.66257e-21
-7.84249e-33
-1.17255e-20
-1.85582e-31
1.17105e-20
7.69252e-21
-1.17255e-20
1.17105e-20
7.69252e-21
1.17105e-20
1.93581e-20
-1.93581e-20
-7.66257e-21
-7.66257e-21
4.03293e-21
7.69252e-21
1.54146e-34
-1.13547e-20
-1.05026e-31
-7.43926e-21
1.53323e-31
3.9154e-21
-3.9154e-21
7.43926e-21
-3.9154e-21
1.87939e-20
-1.87939e-20
1.21856e-31
1.13684e-20
8.62843e-32
-3.9154e-21
1.13684e-20
-3.76108e-32
-1.13547e-20
3.9154e-21
-1.182e-32
3.13145e-31
7.43926e-21
3.0132e-31
-1.13547e-20
-1.13547e-20
-7.43926e-21
-1.87939e-20
-1.13547e-20
-1.13547e-20
-1.87939e-20
-1.13547e-20
7.43926e-21
3.94734e-31
3.9154e-21
3.9154e-21
7.43926e-21
3.61443e-34
1.13684e-20
7.43926e-21
-1.13547e-20
-1.13547e-20
-2.19181e-34
-4.82626e-32
1.87939e-20
3.73545e-32
3.9154e-21
3.9154e-21
-2.35119e-31
3.9154e-21
1.87939e-20
1.13684e-20
-1.13547e-20
-7.43926e-21
-7.43926e-21
4.05639e-31
7.43926e-21
-5.536e-32
1.13684e-20
1.13684e-20
1.13684e-20
-9.28315e-32
7.23501e-21
-1.22574e-31
3.8013e-21
3.8013e-21
-1.10363e-20
-1.82462e-20
-7.23502e-21
-4.83222e-32
-1.82462e-20
-3.8013e-21
-1.10363e-20
-7.23502e-21
1.10238e-20
1.10238e-20
1.10238e-20
-1.10363e-20
-1.38343e-31
-3.29082e-32
7.23502e-21
3.8013e-21
1.10238e-20
1.10238e-20
-1.38073e-31
-7.23502e-21
-1.82462e-20
-7.23502e-21
-1.10363e-20
-7.23502e-21
1.10238e-20
-5.78714e-32
1.10238e-20
1.82588e-20
-3.25776e-32
7.23502e-21
-1.82462e-20
-4.29828e-32
1.10238e-20
3.8013e-21
-1.10363e-20
-1.82462e-20
1.2185e-31
-3.8013e-21
-7.23502e-21
1.10238e-20
-7.23502e-21
1.82588e-20
-1.82462e-20
1.82588e-20
7.23502e-21
-1.10363e-20
-7.23502e-21
-3.8013e-21
-1.02811e-32
1.10238e-20
-7.23502e-21
3.8013e-21
-3.8013e-21
1.10238e-20
3.8013e-21
-7.23501e-21
7.01198e-21
-1.07025e-20
7.74057e-32
1.0714e-20
-5.01494e-32
-1.07025e-20
1.0714e-20
3.64522e-34
1.0714e-20
-1.07025e-20
-1.19191e-31
-7.79549e-32
3.69052e-21
-1.07025e-20
1.54769e-31
-1.19008e-31
3.62974e-32
-7.01198e-21
1.0714e-20
-1.33785e-31
1.0714e-20
-3.7135e-21
-3.68123e-32
-7.79549e-32
3.69052e-21
3.69052e-21
1.0714e-20
-1.07025e-20
1.25269e-32
7.01198e-21
7.01198e-21
2.32971e-31
-7.01198e-21
1.13982e-31
-1.60726e-31
-3.7135e-21
7.01198e-21
-6.46532e-32
1.0714e-20
-3.7135e-21
1.0714e-20
-7.01198e-21
-3.7135e-21
1.0714e-20
2.74412e-32
1.96554e-31
-1.96901e-31
1.0714e-20
-3.7135e-21
7.01198e-21
-1.47286e-31
-4.15092e-33
7.01198e-21
1.7726e-20
1.7726e-20
2.16077e-31
7.01198e-21
-1.07025e-20
7.01198e-21
7.01198e-21
1.03906e-20
-1.03906e-20
3.58297e-21
-1.03906e-20
6.80763e-21
-6.81814e-21
1.03906e-20
5.93625e-32
-1.03906e-20
-2.54149e-31
5.18156e-42
1.10073e-34
6.80763e-21
-3.58297e-21
3.58297e-21
1.15866e-34
3.58297e-21
-1.71982e-20
-3.58297e-21
-1.71982e-20
3.58297e-21
-3.58297e-21
-3.58297e-21
2.18851e-34
1.72087e-20
1.26404e-31
-6.81814e-21
-6.81814e-21
-1.03906e-20
-1.03906e-20
-1.03906e-20
3.58296e-21
-1.03906e-20
3.58297e-21
3.58296e-21
6.80763e-21
6.80763e-21
-1.03906e-20
6.80763e-21
-1.03906e-20
1.72087e-20
1.72087e-20
6.80763e-21
1.03906e-20
1.03906e-20
5.95305e-32
1.50633e-31
1.03906e-20
-6.81814e-21
6.80763e-21
-6.81814e-21
3.58297e-21
3.58296e-21
1.09826e-31
-6.81814e-21
1.72087e-20
-1.03906e-20
6.80763e-21
-6.81814e-21
-6.81814e-21
-6.60924e-21
6.60924e-21
3.47855e-21
-6.60924e-21
-6.60924e-21
-6.60924e-21
2.18749e-31
6.60924e-21
-6.60924e-21
-1.6697e-20
-2.54495e-34
1.30714e-31
6.60924e-21
-1.6697e-20
3.02465e-32
-7.87497e-32
1.00782e-20
1.00782e-20
4.79266e-32
1.6697e-20
-1.6697e-20
-3.47855e-21
-1.00878e-20
1.00738e-34
1.6697e-20
1.00782e-20
3.47855e-21
-3.47855e-21
-1.04879e-32
-1.02798e-32
1.00782e-20
-1.00878e-20
-1.00878e-20
3.47855e-21
-6.60924e-21
-7.28591e-32
5.92773e-33
-1.00878e-20
-2.15244e-32
-6.60924e-21
6.60924e-21
-6.60924e-21
1.00782e-20
9.43916e-33
3.47855e-21
6.60924e-21
1.6697e-20
3.47855e-21
1.00782e-20
-1.00878e-20
1.6697e-20
-2.09516e-32
-1.00878e-20
-6.60924e-21
1.6697e-20
1.6697e-20
6.60924e-21
-7.27584e-32
-6.60924e-21
1.00782e-20
3.37717e-21
-9.79381e-21
2.61704e-32
-2.69405e-32
-3.37717e-21
-9.42238e-32
1.62193e-20
-9.79381e-21
-1.62104e-20
-9.79381e-21
1.12268e-31
1.62193e-20
-1.62104e-20
-1.26835e-31
-1.40719e-34
-9.79381e-21
-6.40783e-21
9.78499e-21
9.78499e-21
1.36097e-32
-1.26743e-31
-9.79381e-21
-3.37717e-21
-4.85237e-35
1.25891e-31
-6.40783e-21
2.62177e-32
-2.64778e-32
9.78499e-21
9.78499e-21
9.78499e-21
3.37717e-21
-1.62104e-20
-6.40783e-21
9.78499e-21
-1.62104e-20
-6.40783e-21
-9.33024e-33
-9.79381e-21
-6.40783e-21
6.41663e-21
-3.37717e-21
-3.66321e-32
-9.79381e-21
-9.79381e-21
9.78499e-21
3.37717e-21
-9.79381e-21
-1.62104e-20
-7.69373e-32
-6.40783e-21
-6.40783e-21
-9.28297e-33
-6.40783e-21
-1.62104e-20
8.11031e-32
-1.62104e-20
-1.62104e-20
-5.01319e-32
6.41663e-21
-6.22963e-21
9.50033e-21
6.8031e-32
3.2707e-21
-1.5738e-20
-6.22963e-21
9.50033e-21
9.50033e-21
-1.5738e-20
-7.54979e-32
1.57461e-20
-6.22963e-21
6.22963e-21
1.99499e-32
1.97367e-32
-9.50839e-21
6.22963e-21
1.0375e-31
6.22963e-21
-1.5738e-20
2.88113e-32
6.22963e-21
3.58382e-32
-3.83148e-32
-7.15347e-42
-1.10727e-31
3.80144e-32
1.99955e-32
9.50033e-21
8.55207e-32
-3.29488e-21
9.50033e-21
6.22963e-21
-9.50839e-21
3.2707e-21
-1.5738e-20
6.22963e-21
9.50033e-21
-6.22963e-21
-5.2715e-32
-6.22963e-21
-9.50839e-21
-1.5738e-20
6.22963e-21
-9.50839e-21
6.56503e-32
1.57461e-20
-1.5738e-20
6.22963e-21
2.92364e-32
1.57461e-20
6.22963e-21
9.50033e-21
6.22963e-21
-1.38486e-31
-6.22963e-21
6.22963e-21
-9.50839e-21
-2.94534e-32
-6.22963e-21
1.06785e-20
9.22391e-21
1.06785e-20
1.94965e-32
4.60826e-21
1.06785e-20
2.37299e-32
3.17582e-21
9.22391e-21
-1.43244e-21
9.22391e-21
-1.43244e-21
4.60826e-21
3.17582e-21
3.17582e-21
-3.18067e-32
4.0366e-33
6.04809e-21
4.60826e-21
1.52942e-20
4.60826e-21
1.06785e-20
9.22391e-21
-6.04809e-21
2.50094e-32
-1.06564e-20
6.04809e-21
3.17582e-21
1.06785e-20
3.17582e-21
9.22391e-21
1.38543e-20
-1.43244e-21
1.43244e-21
1.43244e-21
-1.2707e-31
1.06785e-20
6.04809e-21
-4.61565e-21
-1.43244e-21
-1.43244e-21
-4.61565e-21
6.04809e-21
4.60826e-21
1.43244e-21
-3.28889e-32
3.17582e-21
-6.04809e-21
-1.38469e-20
4.60826e-21
-6.04809e-21
-4.61565e-21
1.1473e-31
-1.43244e-21
-4.61565e-21
1.52942e-20
9.22391e-21
9.22391e-21
-4.61565e-21
-6.22838e-32
-5.87858e-21
4.48113e-21
1.3907e-21
2.8534e-32
-5.87859e-21
-5.87859e-21
-5.87859e-21
-4.48113e-21
4.48113e-21
-5.87859e-21
-1.11756e-33
-1.41143e-32
-1.3907e-21
-5.87859e-21
-4.48113e-21
4.48113e-21
-5.87859e-21
-4.48113e-21
-1.3907e-21
-5.87859e-21
1.3907e-21
-1.3907e-21
5.87859e-21
-5.87859e-21
4.48113e-21
-5.87859e-21
4.48113e-21
-5.87859e-21
5.87859e-21
5.87859e-21
-5.87859e-21
-5.87859e-21
5.87859e-21
7.6868e-33
1.3907e-21
-5.87859e-21
-4.48113e-21
1.03597e-20
-2.60771e-33
-7.40307e-33
5.87859e-21
1.03597e-20
1.3907e-21
1.03597e-20
4.48113e-21
-5.87859e-21
4.55388e-32
1.3907e-21
-8.03649e-32
-3.85381e-33
1.82342e-32
-1.76143e-32
1.03597e-20
5.87859e-21
-1.3907e-21
-1.3907e-21
-1.3907e-21
-1.0353e-20
-2.46693e-32
-4.48113e-21
-5.69454e-21
1.35017e-21
5.69453e-21
5.69453e-21
-2.75482e-32
-1.35017e-21
-2.7614e-32
-4.55334e-32
5.69453e-21
-1.00513e-20
-1.00513e-20
-1.35017e-21
-1.00513e-20
-3.04095e-33
-4.35054e-21
4.35054e-21
4.35054e-21
4.35054e-21
4.35054e-21
4.35054e-21
-5.69453e-21
4.35054e-21
1.00574e-20
5.69453e-21
-5.69453e-21
-5.69453e-21
4.57824e-32
-2.94338e-33
-5.69453e-21
5.23781e-32
-2.94338e-33
-5.69453e-21
-5.69453e-21
-1.15207e-34
-4.35054e-21
5.69453e-21
-5.69453e-21
5.69453e-21
4.35054e-21
1.88675e-32
9.14167e-33
1.00574e-20
-1.35017e-21
6.76034e-32
-4.35054e-21
-1.35017e-21
5.69453e-21
1.00574e-20
-1.35017e-21
-5.69453e-21
1.00574e-20
1.35017e-21
-5.69453e-21
-5.69453e-21
1.00574e-20
1.8336e-32
-5.69453e-21
-5.69453e-21
-1.31666e-34
-5.69454e-21
-7.59404e-33
5.71542e-33
5.53458e-21
2.39994e-32
1.62162e-32
1.58276e-32
-2.1278e-32
-5.53458e-21
-5.53458e-21
-4.70247e-32
4.2181e-21
-4.21811e-21
-2.57572e-32
5.53458e-21
4.2181e-21
-1.30517e-21
-5.53458e-21
1.82256e-32
5.53458e-21
9.76398e-21
-4.50394e-32
-9.75833e-21
4.2181e-21
-4.21811e-21
-2.88773e-32
1.31082e-21
5.53458e-21
5.53458e-21
5.53458e-21
5.53458e-21
5.53458e-21
-2.29437e-33
9.76398e-21
3.75771e-32
-5.53458e-21
-4.21811e-21
-4.21811e-21
4.01242e-32
1.31082e-21
4.2181e-21
-4.21811e-21
9.76398e-21
-1.04111e-32
4.2181e-21
-5.53458e-21
-5.53458e-21
4.2181e-21
1.31082e-21
-2.16396e-32
-4.21811e-21
9.76398e-21
-1.03127e-32
-4.4992e-32
4.2181e-21
1.31082e-21
5.53458e-21
4.2181e-21
-1.30517e-21
8.80652e-35
9.76397e-21
4.09551e-21
3.24463e-32
1.27779e-21
5.41801e-35
4.09551e-21
5.36811e-21
-5.37329e-21
-2.23373e-33
-3.91844e-32
-1.27262e-21
-4.10067e-21
-1.56377e-32
4.09551e-21
1.27779e-21
-5.37329e-21
-4.10067e-21
-4.10067e-21
-4.43091e-33
-5.37329e-21
3.63004e-32
-5.37329e-21
-4.10067e-21
1.91828e-33
5.36811e-21
-1.27262e-21
2.32479e-32
-4.10067e-21
4.09551e-21
-5.37329e-21
1.27779e-21
-9.46878e-21
5.36811e-21
5.36811e-21
9.47395e-21
5.36811e-21
5.36811e-21
5.36811e-21
4.09551e-21
4.09551e-21
-4.10067e-21
4.09551e-21
5.04079e-32
-1.27262e-21
-5.37329e-21
5.36811e-21
-1.27262e-21
-5.37329e-21
-4.10067e-21
-4.10067e-21
-2.95862e-32
-5.37329e-21
-4.10067e-21
-5.37329e-21
-5.37329e-21
-1.27262e-21
4.09551e-21
-1.27262e-21
1.27779e-21
1.84472e-32
1.27262e-21
1.24026e-21
9.19786e-21
4.39951e-33
1.21118e-32
-5.19774e-21
-3.98116e-21
-1.23553e-21
5.21669e-21
-5.19774e-21
5.21669e-21
-5.19774e-21
1.21497e-32
3.98116e-21
4.31208e-33
-3.98116e-21
-5.19774e-21
9.19786e-21
-1.23553e-21
-5.19774e-21
-1.56738e-32
3.98116e-21
1.24027e-21
-3.98116e-21
5.21669e-21
-5.19774e-21
5.21669e-21
3.98116e-21
-1.40961e-32
-5.60735e-33
-1.13457e-32
-3.15523e-32
5.21669e-21
-3.98116e-21
-5.19774e-21
-5.19774e-21
9.19786e-21
-3.98116e-21
-1.23553e-21
1.24027e-21
5.21669e-21
1.36626e-32
3.98116e-21
9.19786e-21
-3.98116e-21
5.75287e-33
-3.98116e-21
-5.19774e-21
-1.23553e-21
2.36855e-33
-3.98116e-21
9.19786e-21
5.21669e-21
-5.19774e-21
9.19786e-21
-1.23553e-21
-1.23553e-21
-5.19774e-21
1.64735e-32
5.21669e-21
-7.68499e-33
-8.92547e-21
3.86514e-21
-1.03642e-32
3.86514e-21
-3.86947e-21
-8.92546e-21
8.93416e-21
1.20819e-21
-1.87146e-32
5.05599e-21
8.93416e-21
3.86514e-21
-5.06032e-21
-1.36048e-32
-5.06032e-21
8.93416e-21
-3.86947e-21
5.05599e-21
5.05599e-21
-5.06032e-21
-8.92546e-21
3.86514e-21
8.93416e-21
8.93416e-21
-3.86947e-21
-8.92546e-21
-8.92546e-21
-8.92546e-21
3.86514e-21
-5.06032e-21
-1.35583e-32
1.54331e-32
-1.19953e-21
-1.19953e-21
-1.87728e-32
1.20819e-21
-8.92546e-21
6.78455e-33
-1.19953e-21
1.54331e-32
1.05424e-32
3.86514e-21
1.20819e-21
-2.20485e-32
-3.86947e-21
-1.03683e-33
8.93416e-21
-3.86947e-21
5.05599e-21
8.93416e-21
1.20819e-21
5.09795e-33
8.93416e-21
3.86514e-21
1.20819e-21
1.20819e-21
-1.76658e-33
3.86514e-21
-5.06032e-21
-3.86947e-21
1.14872e-21
1.30776e-32
-3.75648e-21
7.35783e-33
-3.75648e-21
-4.91707e-21
4.91707e-21
4.91707e-21
-1.16457e-21
-4.91707e-21
-3.75648e-21
3.08632e-32
-3.75648e-21
-4.91707e-21
-3.75648e-21
-4.91707e-21
-8.66957e-21
4.91707e-21
4.91707e-21
-1.29796e-32
8.6775e-21
-3.75648e-21
2.03087e-32
1.14869e-21
-1.0066e-32
4.91707e-21
-3.75648e-21
-4.91707e-21
-3.75648e-21
-3.75648e-21
-4.91707e-21
-8.93331e-33
-3.75648e-21
-3.75648e-21
-1.16457e-21
2.96891e-33
3.7525e-21
3.7525e-21
-8.66957e-21
-4.15433e-35
3.7525e-21
-4.91707e-21
3.7525e-21
-3.75648e-21
4.91707e-21
3.7525e-21
4.91707e-21
-1.16457e-21
4.91707e-21
-1.16457e-21
4.91707e-21
-3.75648e-21
-3.75648e-21
3.7525e-21
-4.91707e-21
4.91707e-21
4.91707e-21
3.7525e-21
1.14869e-21
-2.17158e-32
3.64314e-21
1.13063e-21
-3.64314e-21
-1.13063e-21
4.77377e-21
-3.64314e-21
-8.41692e-21
1.37524e-32
-1.26989e-32
4.77377e-21
4.77377e-21
8.41692e-21
3.64314e-21
3.64314e-21
3.64314e-21
-8.41692e-21
4.77377e-21
-3.64314e-21
4.77377e-21
-7.59477e-33
2.23056e-32
3.64314e-21
-1.13063e-21
-7.27995e-33
7.84284e-33
1.93883e-32
3.64314e-21
-4.77377e-21
-8.78091e-33
1.13063e-21
4.77377e-21
-3.64314e-21
4.77377e-21
-8.68485e-33
3.64314e-21
7.88087e-33
1.13063e-21
-4.77377e-21
-1.77501e-32
1.02823e-32
4.77377e-21
8.41692e-21
-8.92925e-33
-4.77377e-21
4.77377e-21
-8.41692e-21
-4.77377e-21
1.5105e-32
8.41692e-21
1.13063e-21
-3.64314e-21
-3.64314e-21
1.47233e-33
1.13063e-21
3.64314e-21
1.47325e-33
-4.77377e-21
-1.13063e-21
-3.64314e-21
-4.77377e-21
5.52535e-33
-1.09768e-21
3.53697e-21
3.53697e-21
-8.17163e-21
-4.63465e-21
-3.25256e-32
1.10434e-21
-4.63465e-21
8.17828e-21
1.10434e-21
1.73991e-32
4.63465e-21
-8.17163e-21
8.17828e-21
-1.09768e-21
4.63465e-21
1.10434e-21
-8.17163e-21
-3.53697e-21
1.10434e-21
4.63465e-21
-1.07369e-32
-4.63465e-21
3.53697e-21
3.53697e-21
4.63465e-21
-2.49491e-32
6.56073e-33
-4.63465e-21
3.30373e-33
-4.63465e-21
1.65076e-32
-1.52348e-32
1.10434e-21
3.53697e-21
-5.88558e-33
8.17828e-21
1.10434e-21
4.63465e-21
-1.09768e-21
4.63465e-21
-8.17163e-21
-9.80417e-33
3.43275e-33
8.17828e-21
-3.53697e-21
8.17828e-21
-3.53697e-21
-1.28074e-32
3.53697e-21
3.53697e-21
4.63465e-21
9.06405e-33
1.41759e-32
-4.63465e-21
4.63465e-21
1.29446e-32
-4.63465e-21
-1.09768e-21
-1.06569e-21
3.43085e-21
-4.49046e-21
-4.49046e-21
-4.49046e-21
1.06569e-21
-7.93044e-21
4.49959e-21
-4.49046e-21
-4.49046e-21
3.64765e-33
5.52173e-35
7.93653e-21
-2.04113e-32
4.49959e-21
-1.06569e-21
4.49959e-21
3.43085e-21
-1.4819e-32
4.49959e-21
-3.4339e-21
-3.4339e-21
-4.49046e-21
-1.58311e-32
1.06569e-21
4.49959e-21
4.49959e-21
-7.93044e-21
3.43085e-21
-1.01807e-32
-3.4339e-21
-4.49046e-21
3.43085e-21
-7.93044e-21
-7.93044e-21
-7.93044e-21
-4.49046e-21
9.2396e-33
2.35105e-33
2.52741e-33
-3.4339e-21
3.43085e-21
-3.4339e-21
-5.67089e-33
-3.4339e-21
1.06569e-21
7.93653e-21
-7.93044e-21
7.93653e-21
-7.93044e-21
1.40326e-32
1.22831e-32
-7.93044e-21
3.43085e-21
3.43085e-21
-4.49046e-21
3.43085e-21
7.93653e-21
7.93653e-21
-7.5632e-33
3.30743e-33
-4.37403e-21
-1.37457e-32
-3.3394e-21
1.04021e-21
6.88157e-33
-3.3394e-21
4.37403e-21
-3.3394e-21
-7.31089e-33
1.04021e-21
-6.42474e-33
-4.37403e-21
-3.3394e-21
-4.37403e-21
7.70228e-21
7.45496e-33
-3.3394e-21
-4.9619e-33
4.37403e-21
4.37403e-21
-3.3394e-21
-3.3394e-21
-4.37403e-21
-4.57574e-33
3.33382e-21
4.37403e-21
3.33382e-21
3.33382e-21
-1.03463e-21
4.37403e-21
-7.24092e-33
4.37403e-21
-1.03463e-21
7.70228e-21
4.37403e-21
-1.36911e-32
-3.3394e-21
-6.4433e-33
-3.3394e-21
-4.37403e-21
3.33382e-21
1.04021e-21
-3.3394e-21
-1.03463e-21
-1.03463e-21
3.33382e-21
1.04021e-21
7.84638e-33
3.33382e-21
4.37403e-21
3.33382e-21
3.33382e-21
-3.3394e-21
-8.85531e-34
4.37403e-21
-4.37403e-21
4.37403e-21
-4.37403e-21
-3.33939e-21
3.23158e-21
3.23667e-21
-4.24625e-21
3.23667e-21
4.24625e-21
3.23667e-21
-3.75259e-34
4.24625e-21
3.23667e-21
5.70633e-33
-4.24625e-21
-4.24625e-21
1.00958e-21
4.24625e-21
-1.16898e-32
4.24625e-21
5.73575e-33
-4.72778e-33
-3.23667e-21
-4.24625e-21
-4.24625e-21
-1.4507e-32
7.47782e-21
-1.17174e-32
-4.24625e-21
1.00958e-21
1.62894e-32
9.13191e-33
3.23667e-21
-7.01182e-33
7.63381e-34
-5.53036e-33
1.00958e-21
3.23667e-21
-3.23667e-21
-3.23667e-21
-4.24625e-21
3.23667e-21
-4.24625e-21
3.23667e-21
1.00958e-21
1.00958e-21
1.14693e-32
1.00958e-21
-7.47782e-21
-4.24625e-21
-4.24625e-21
3.23667e-21
-3.23667e-21
4.24625e-21
-1.00958e-21
-3.23667e-21
4.24625e-21
3.23667e-21
-4.24625e-21
-3.23667e-21
-4.24625e-21
1.19888e-32
1.00958e-21
-1.02144e-32
6.69801e-33
-4.12222e-21
-3.14701e-21
5.44357e-33
1.03323e-32
7.97068e-33
3.14234e-21
6.77266e-33
4.11755e-21
4.11755e-21
-1.1364e-32
9.7521e-22
-3.14701e-21
9.7521e-22
-4.12222e-21
7.25523e-21
4.11755e-21
2.48418e-33
-4.12222e-21
-4.12222e-21
-5.42724e-33
-7.26456e-21
1.21262e-32
-4.12222e-21
-7.26456e-21
-3.14701e-21
7.25523e-21
3.14234e-21
7.25523e-21
-4.12222e-21
-4.12222e-21
-4.12222e-21
-4.12222e-21
-4.12222e-21
-1.67837e-33
4.11755e-21
4.11755e-21
-3.14701e-21
-7.26456e-21
-4.25901e-33
-3.14701e-21
6.1977e-33
7.25523e-21
9.7521e-22
3.14234e-21
-2.90349e-33
-7.26456e-21
-4.12222e-21
7.25523e-21
4.11755e-21
4.11755e-21
7.25523e-21
9.7521e-22
-4.12222e-21
-4.12222e-21
-5.09301e-34
-4.12222e-21
4.11755e-21
-3.14701e-21
-4.12221e-21
1.99451e-21
-1.99878e-21
-2.98635e-34
9.42515e-22
4.00183e-21
3.05077e-21
-5.04954e-21
1.05199e-21
7.0526e-21
9.42515e-22
-5.04954e-21
-5.04954e-21
4.00183e-21
-5.04954e-21
4.00183e-21
1.9945e-21
-1.99878e-21
1.9945e-21
-7.8155e-33
1.9945e-21
-5.25588e-33
5.05809e-21
1.9945e-21
1.9945e-21
-1.02828e-32
5.05809e-21
6.28777e-33
-1.99878e-21
-2.95412e-21
-7.86742e-33
-2.95412e-21
-6.00061e-21
1.05199e-21
1.9945e-21
1.9945e-21
2.69568e-33
-4.00184e-21
-7.04832e-21
-1.99878e-21
-7.04832e-21
1.9945e-21
4.00183e-21
-1.99878e-21
-8.74244e-34
5.05809e-21
1.9945e-21
1.05199e-21
-2.95412e-21
1.9945e-21
1.9945e-21
4.00183e-21
4.24817e-33
1.05199e-21
-9.05565e-21
3.05077e-21
3.05077e-21
1.05199e-21
4.00183e-21
9.05138e-21
1.05199e-21
2.95796e-21
1.94835e-21
2.95795e-21
1.04263e-33
2.95795e-21
1.31893e-33
1.94835e-21
1.94835e-21
7.01407e-33
-1.94053e-21
-1.02133e-21
-4.91021e-21
-1.94053e-21
-2.96969e-21
5.73439e-33
-4.91021e-21
1.94835e-21
1.02652e-33
-2.96969e-21
2.95795e-21
-4.91021e-21
-3.88497e-21
-1.02133e-21
1.01628e-33
-1.94053e-21
1.02133e-21
-1.94053e-21
1.02133e-21
2.95795e-21
-2.96969e-21
-3.88497e-21
-4.91021e-21
-8.9622e-36
-1.94053e-21
-1.02133e-21
-1.94053e-21
1.02133e-21
4.90239e-21
-2.96969e-21
1.94835e-21
-1.94053e-21
-2.96969e-21
-2.96969e-21
-1.94053e-21
-1.94053e-21
1.02133e-21
-4.91021e-21
4.90239e-21
6.84683e-21
1.94835e-21
-2.96969e-21
-3.88497e-21
-4.91021e-21
2.95795e-21
-1.02133e-21
-1.02133e-21
-4.91021e-21
1.2646e-33
-2.96969e-21
1.02133e-21
2.481e-34
2.87196e-21
-2.88271e-21
3.839e-33
2.87196e-21
-1.88398e-21
-2.88271e-21
2.87196e-21
3.86599e-33
2.87196e-21
1.89114e-21
-3.63928e-33
-2.88271e-21
-2.88271e-21
1.89114e-21
-2.88271e-21
-9.91567e-22
-9.91567e-22
-9.91567e-22
-1.88398e-21
1.89114e-21
-1.16555e-33
4.75952e-21
-9.91567e-22
5.30036e-34
1.89114e-21
2.87196e-21
-1.88398e-21
-2.88271e-21
2.87196e-21
-2.88271e-21
9.91567e-22
-9.91567e-22
-2.88271e-21
2.87196e-21
2.87196e-21
-4.76668e-21
-2.88271e-21
-2.71299e-33
3.24393e-33
-1.76271e-33
-2.88271e-21
1.89114e-21
1.89114e-21
2.87196e-21
2.87196e-21
-2.88271e-21
-4.76668e-21
9.91567e-22
1.89114e-21
-1.88398e-21
-9.91567e-22
4.75952e-21
4.75952e-21
-9.91567e-22
-4.76668e-21
1.89114e-21
-2.88271e-21
-1.88767e-33
1.89112e-21
-2.79174e-21
-2.79502e-21
1.82907e-21
4.62737e-21
-1.83235e-21
2.79502e-21
-3.16345e-33
-2.79502e-21
4.62737e-21
-4.62082e-21
1.82907e-21
9.6267e-22
-2.79502e-21
-2.79502e-21
-1.83235e-21
4.62737e-21
-9.6267e-22
-1.83235e-21
2.79502e-21
-2.79502e-21
1.82907e-21
2.79502e-21
2.39316e-33
1.82907e-21
2.79502e-21
1.40519e-33
-1.83235e-21
-1.75412e-34
1.00756e-33
-4.62082e-21
-2.37694e-33
2.79502e-21
-1.83235e-21
2.79502e-21
2.79502e-21
-4.62082e-21
2.79502e-21
2.79502e-21
1.99232e-33
1.82907e-21
1.98079e-33
-4.43338e-33
-9.6267e-22
-2.79502e-21
-1.83235e-21
-4.62082e-21
4.62737e-21
4.62737e-21
9.6267e-22
1.82907e-21
-9.6267e-22
2.79502e-21
-2.79502e-21
5.69757e-33
1.82907e-21
-1.83235e-21
2.79502e-21
9.6267e-22
9.6267e-22
3.36668e-33
2.71337e-21
2.71338e-21
2.71338e-21
4.48915e-21
-9.34615e-22
-1.77877e-21
-9.34615e-22
-2.09701e-33
-2.71339e-21
-4.55095e-33
2.48757e-33
1.77577e-21
4.48915e-21
-4.48915e-21
-7.94037e-34
2.71338e-21
4.48915e-21
1.77577e-21
-4.48915e-21
1.77577e-21
-9.34615e-22
-2.71339e-21
-1.77877e-21
9.34615e-22
2.4347e-33
-6.33308e-36
-1.77877e-21
1.77577e-21
4.48915e-21
-2.71339e-21
5.01709e-34
-2.71339e-21
1.77577e-21
2.71338e-21
-4.48915e-21
1.77577e-21
-1.77877e-21
-2.71339e-21
2.71338e-21
-1.77877e-21
2.71338e-21
-2.71339e-21
-4.48915e-21
1.77577e-21
4.48915e-21
-2.84709e-33
-1.77877e-21
1.77577e-21
2.71338e-21
1.77577e-21
-1.77877e-21
-4.48915e-21
1.77577e-21
2.71338e-21
9.34615e-22
9.34615e-22
-2.71339e-21
1.19219e-33
-1.77877e-21
2.71337e-21
-1.72402e-21
2.6314e-21
2.6314e-21
2.52757e-34
-6.76944e-34
-1.90955e-34
-3.28766e-33
1.52613e-33
-2.74281e-33
-1.72402e-21
1.72677e-21
-9.07378e-22
-1.72402e-21
1.72677e-21
9.07378e-22
9.07378e-22
1.33016e-33
1.36322e-34
2.6314e-21
2.09448e-33
1.72677e-21
-1.72402e-21
-4.35816e-21
-1.72402e-21
9.07378e-22
-1.53184e-33
-2.63414e-21
-1.72402e-21
-2.63414e-21
4.35816e-21
9.07378e-22
-4.35816e-21
-4.35816e-21
2.59069e-33
9.07378e-22
2.6314e-21
-1.79985e-34
-4.34647e-33
1.63433e-33
-4.35816e-21
-9.07378e-22
-4.34454e-33
1.72677e-21
2.6314e-21
2.29371e-33
9.07378e-22
9.07378e-22
-9.07378e-22
-1.72402e-21
1.72677e-21
2.6314e-21
-3.85367e-33
-9.07378e-22
-1.72402e-21
-4.35816e-21
-9.07378e-22
1.72677e-21
9.07378e-22
-6.92507e-34
1.72676e-21
1.12711e-33
1.67629e-21
2.55471e-21
-4.22849e-21
2.08593e-33
1.67629e-21
-4.22849e-21
2.55471e-21
-1.67378e-21
-8.78419e-22
-8.78419e-22
6.60823e-34
-2.55471e-21
-2.55471e-21
-2.55471e-21
1.23702e-33
-2.55471e-21
-1.67378e-21
-4.22849e-21
1.67629e-21
4.22849e-21
8.80935e-22
-1.67378e-21
1.67629e-21
8.80935e-22
-2.55471e-21
-2.84409e-33
-8.78419e-22
-2.37481e-33
1.67629e-21
1.67629e-21
2.55471e-21
2.55471e-21
1.67629e-21
-2.55471e-21
2.30542e-33
1.67629e-21
-4.22849e-21
-1.34355e-33
-2.55471e-21
-1.48274e-33
-4.22849e-21
2.55471e-21
-8.78419e-22
-8.78419e-22
-2.55471e-21
-4.22849e-21
-6.04765e-34
1.67629e-21
-1.67378e-21
1.67629e-21
-1.67378e-21
2.55471e-21
-4.22849e-21
-2.49637e-33
8.80935e-22
-8.78419e-22
-4.35466e-34
8.80935e-22
1.90054e-33
4.10526e-21
4.10526e-21
-2.48026e-21
1.6273e-21
4.10526e-21
-4.10526e-21
-4.10526e-21
-1.625e-21
4.10526e-21
1.34092e-33
1.6273e-21
2.47796e-21
-8.57565e-22
1.6273e-21
-2.01405e-33
1.6273e-21
-1.27416e-33
-1.62616e-34
2.47796e-21
-2.48026e-21
2.02152e-33
-1.625e-21
-2.80284e-33
8.57565e-22
-2.48026e-21
1.6273e-21
-2.48026e-21
8.57565e-22
-1.625e-21
2.47796e-21
-1.625e-21
-2.48026e-21
-1.625e-21
8.57565e-22
2.47796e-21
1.6273e-21
7.94309e-34
-2.48026e-21
-2.48026e-21
-1.625e-21
-1.625e-21
2.47796e-21
-1.625e-21
1.30585e-33
-2.48026e-21
-1.28977e-33
-8.57565e-22
-1.06447e-33
8.57565e-22
-2.48026e-21
7.91456e-34
8.57565e-22
-2.48026e-21
-2.48026e-21
6.0236e-36
4.10526e-21
8.57565e-22
-1.625e-21
-4.10526e-21
1.62729e-21
2.40798e-21
-2.40798e-21
-1.60068e-33
8.32446e-22
-2.40798e-21
-1.91248e-33
-1.40534e-33
2.40798e-21
1.42056e-33
3.98562e-21
2.40798e-21
2.40798e-21
6.63741e-35
-8.32448e-22
-1.57764e-21
-1.57764e-21
4.35018e-44
1.57764e-21
-2.40798e-21
-1.57764e-21
6.29897e-34
1.57764e-21
-3.98562e-21
-2.40798e-21
2.40798e-21
1.57764e-21
-1.57764e-21
-2.40798e-21
-2.40798e-21
8.32446e-22
3.98562e-21
2.40798e-21
-2.40798e-21
-2.40798e-21
5.48988e-34
-1.57764e-21
-1.71168e-33
-1.57764e-21
1.57764e-21
-5.70824e-34
-1.57764e-21
-2.40798e-21
-1.57764e-21
3.98562e-21
2.40798e-21
4.93209e-34
-1.57764e-21
-2.40798e-21
3.53231e-34
2.40798e-21
6.52246e-34
3.98562e-21
3.98562e-21
1.57764e-21
-2.2422e-34
2.02206e-33
8.43538e-34
-7.3692e-34
-3.98562e-21
-3.98562e-21
-3.86947e-21
-9.0108e-34
-1.1689e-21
-1.53167e-21
-1.53167e-21
-4.24313e-34
1.1689e-21
1.1689e-21
-8.04207e-22
-1.1689e-21
2.70057e-21
8.04209e-22
1.1689e-21
-1.1689e-21
2.3378e-21
-2.33973e-21
4.07823e-34
-2.70057e-21
3.51057e-21
1.1689e-21
1.5336e-21
-1.1689e-21
-2.70057e-21
-2.70057e-21
-3.87074e-35
-3.62763e-22
1.1689e-21
-3.62763e-22
3.86947e-21
1.1689e-21
-1.53167e-21
-8.04207e-22
-4.71734e-34
-2.33973e-21
-1.1689e-21
1.5336e-21
-3.86947e-21
-3.62763e-22
1.1689e-21
3.62763e-22
-1.90481e-33
-3.86947e-21
-2.70057e-21
-1.1689e-21
3.62763e-22
1.1689e-21
-8.04207e-22
-1.53167e-21
5.37141e-34
-2.70057e-21
1.5336e-21
3.62763e-22
1.51481e-33
3.86947e-21
-3.62763e-22
8.04209e-22
1.1689e-21
-5.58963e-34
-1.53167e-21
-1.22863e-33
-1.48527e-21
-8.24996e-34
-1.13484e-21
1.13484e-21
3.52191e-22
-1.13484e-21
-6.97504e-35
-1.13484e-21
-1.13484e-21
-1.13484e-21
-1.13484e-21
-1.13484e-21
-1.13484e-21