/*--------------------------------*- C++ -*----------------------------------*\
| =========                 |                                                 |
| \\      /  F ield         | foam-extend: Open Source CFD                    |
|  \\    /   O peration     | Version:     4.0                                |
|   \\  /    A nd           | Web:         http://www.foam-extend.org         |
|    \\/     M anipulation  |                                                 |
\*---------------------------------------------------------------------------*/
FoamFile
{
    version     2.0;
    format      ascii;
    class       volScalarField;
    location    "1560";
    object      cMinus;
}
// * * * * * * * * * * * * * * * * * * * * * * * * * * * * * * * * * * * * * //

dimensions      [0 0 0 0 0 0 0];

internalField   nonuniform List<scalar> 
6960
(
1.46942e-23
1.47025e-23
1.47021e-23
1.47003e-23
1.46981e-23
1.46961e-23
1.46942e-23
1.46925e-23
1.46911e-23
1.46898e-23
1.46886e-23
1.46877e-23
1.46868e-23
1.46861e-23
1.46855e-23
1.4685e-23
1.46846e-23
1.46842e-23
1.46839e-23
1.46836e-23
1.46834e-23
1.46832e-23
1.46831e-23
1.4683e-23
1.46829e-23
1.46828e-23
1.46827e-23
1.46827e-23
1.46827e-23
1.46826e-23
1.46826e-23
1.46827e-23
1.46827e-23
1.46827e-23
1.46828e-23
1.46829e-23
1.4683e-23
1.46831e-23
1.46832e-23
1.46834e-23
1.46836e-23
1.46839e-23
1.46842e-23
1.46846e-23
1.4685e-23
1.46855e-23
1.46861e-23
1.46868e-23
1.46877e-23
1.46886e-23
1.46898e-23
1.46911e-23
1.46925e-23
1.46942e-23
1.46961e-23
1.46981e-23
1.47003e-23
1.47021e-23
1.47025e-23
1.46942e-23
6.06954e-23
6.07332e-23
6.07362e-23
6.07327e-23
6.07278e-23
6.0723e-23
6.07184e-23
6.07144e-23
6.07109e-23
6.07078e-23
6.07051e-23
6.07028e-23
6.07009e-23
6.06992e-23
6.06977e-23
6.06965e-23
6.06955e-23
6.06946e-23
6.06939e-23
6.06933e-23
6.06929e-23
6.06925e-23
6.06922e-23
6.06919e-23
6.06917e-23
6.06916e-23
6.06915e-23
6.06914e-23
6.06913e-23
6.06913e-23
6.06913e-23
6.06913e-23
6.06914e-23
6.06915e-23
6.06916e-23
6.06917e-23
6.06919e-23
6.06922e-23
6.06925e-23
6.06929e-23
6.06933e-23
6.06939e-23
6.06946e-23
6.06955e-23
6.06965e-23
6.06977e-23
6.06992e-23
6.07009e-23
6.07028e-23
6.07051e-23
6.07078e-23
6.07109e-23
6.07144e-23
6.07184e-23
6.0723e-23
6.07278e-23
6.07327e-23
6.07362e-23
6.07332e-23
6.06954e-23
1.82958e-22
1.83084e-22
1.83108e-22
1.83112e-22
1.83111e-22
1.83109e-22
1.83107e-22
1.83104e-22
1.83102e-22
1.83101e-22
1.831e-22
1.83098e-22
1.83098e-22
1.83097e-22
1.83096e-22
1.83096e-22
1.83096e-22
1.83095e-22
1.83095e-22
1.83095e-22
1.83095e-22
1.83095e-22
1.83095e-22
1.83095e-22
1.83095e-22
1.83095e-22
1.83095e-22
1.83096e-22
1.83096e-22
1.83096e-22
1.83096e-22
1.83096e-22
1.83096e-22
1.83095e-22
1.83095e-22
1.83095e-22
1.83095e-22
1.83095e-22
1.83095e-22
1.83095e-22
1.83095e-22
1.83095e-22
1.83095e-22
1.83096e-22
1.83096e-22
1.83096e-22
1.83097e-22
1.83098e-22
1.83098e-22
1.831e-22
1.83101e-22
1.83102e-22
1.83104e-22
1.83107e-22
1.83109e-22
1.83111e-22
1.83112e-22
1.83108e-22
1.83084e-22
1.82958e-22
5.10477e-22
5.10869e-22
5.10982e-22
5.11041e-22
5.11083e-22
5.11117e-22
5.11147e-22
5.11173e-22
5.11196e-22
5.11217e-22
5.11235e-22
5.11251e-22
5.11265e-22
5.11277e-22
5.11288e-22
5.11297e-22
5.11305e-22
5.11312e-22
5.11318e-22
5.11323e-22
5.11328e-22
5.11332e-22
5.11335e-22
5.11338e-22
5.11341e-22
5.11343e-22
5.11344e-22
5.11345e-22
5.11346e-22
5.11347e-22
5.11347e-22
5.11346e-22
5.11345e-22
5.11344e-22
5.11343e-22
5.11341e-22
5.11338e-22
5.11335e-22
5.11332e-22
5.11328e-22
5.11323e-22
5.11318e-22
5.11312e-22
5.11305e-22
5.11297e-22
5.11288e-22
5.11277e-22
5.11265e-22
5.11251e-22
5.11235e-22
5.11217e-22
5.11196e-22
5.11173e-22
5.11147e-22
5.11117e-22
5.11083e-22
5.11041e-22
5.10982e-22
5.10869e-22
5.10477e-22
1.40713e-21
1.40833e-21
1.40878e-21
1.40909e-21
1.40934e-21
1.40956e-21
1.40975e-21
1.40992e-21
1.41007e-21
1.4102e-21
1.41032e-21
1.41042e-21
1.41051e-21
1.41059e-21
1.41065e-21
1.41071e-21
1.41076e-21
1.4108e-21
1.41084e-21
1.41087e-21
1.4109e-21
1.41092e-21
1.41094e-21
1.41096e-21
1.41097e-21
1.41098e-21
1.41099e-21
1.411e-21
1.411e-21
1.411e-21
1.411e-21
1.411e-21
1.411e-21
1.41099e-21
1.41098e-21
1.41097e-21
1.41096e-21
1.41094e-21
1.41092e-21
1.4109e-21
1.41087e-21
1.41084e-21
1.4108e-21
1.41076e-21
1.41071e-21
1.41065e-21
1.41059e-21
1.41051e-21
1.41042e-21
1.41032e-21
1.4102e-21
1.41007e-21
1.40992e-21
1.40975e-21
1.40956e-21
1.40934e-21
1.40909e-21
1.40878e-21
1.40833e-21
1.40713e-21
3.92202e-21
3.92571e-21
3.92741e-21
3.9287e-21
3.9298e-21
3.93077e-21
3.93163e-21
3.9324e-21
3.93307e-21
3.93367e-21
3.93419e-21
3.93465e-21
3.93505e-21
3.93539e-21
3.93569e-21
3.93594e-21
3.93616e-21
3.93635e-21
3.93651e-21
3.93665e-21
3.93677e-21
3.93686e-21
3.93695e-21
3.93702e-21
3.93707e-21
3.93712e-21
3.93715e-21
3.93718e-21
3.9372e-21
3.93721e-21
3.93721e-21
3.9372e-21
3.93718e-21
3.93715e-21
3.93712e-21
3.93707e-21
3.93702e-21
3.93695e-21
3.93686e-21
3.93677e-21
3.93665e-21
3.93651e-21
3.93635e-21
3.93616e-21
3.93594e-21
3.93569e-21
3.93539e-21
3.93505e-21
3.93465e-21
3.93419e-21
3.93367e-21
3.93307e-21
3.9324e-21
3.93163e-21
3.93077e-21
3.9298e-21
3.9287e-21
3.92741e-21
3.92571e-21
3.92202e-21
1.11532e-20
1.11648e-20
1.11709e-20
1.11758e-20
1.11801e-20
1.11839e-20
1.11874e-20
1.11904e-20
1.11931e-20
1.11955e-20
1.11975e-20
1.11994e-20
1.12009e-20
1.12023e-20
1.12035e-20
1.12045e-20
1.12053e-20
1.12061e-20
1.12067e-20
1.12072e-20
1.12077e-20
1.12081e-20
1.12084e-20
1.12087e-20
1.12089e-20
1.12091e-20
1.12092e-20
1.12093e-20
1.12094e-20
1.12094e-20
1.12094e-20
1.12094e-20
1.12093e-20
1.12092e-20
1.12091e-20
1.12089e-20
1.12087e-20
1.12084e-20
1.12081e-20
1.12077e-20
1.12072e-20
1.12067e-20
1.12061e-20
1.12053e-20
1.12045e-20
1.12035e-20
1.12023e-20
1.12009e-20
1.11994e-20
1.11975e-20
1.11955e-20
1.11931e-20
1.11904e-20
1.11874e-20
1.11839e-20
1.11801e-20
1.11758e-20
1.11709e-20
1.11648e-20
1.11532e-20
3.24765e-20
3.25132e-20
3.25347e-20
3.25529e-20
3.2569e-20
3.25835e-20
3.25964e-20
3.26078e-20
3.2618e-20
3.26269e-20
3.26347e-20
3.26415e-20
3.26474e-20
3.26525e-20
3.26569e-20
3.26607e-20
3.26639e-20
3.26667e-20
3.26691e-20
3.26711e-20
3.26728e-20
3.26743e-20
3.26755e-20
3.26765e-20
3.26773e-20
3.26779e-20
3.26784e-20
3.26788e-20
3.26791e-20
3.26792e-20
3.26792e-20
3.26791e-20
3.26788e-20
3.26784e-20
3.26779e-20
3.26773e-20
3.26765e-20
3.26755e-20
3.26743e-20
3.26728e-20
3.26711e-20
3.26691e-20
3.26667e-20
3.26639e-20
3.26607e-20
3.26569e-20
3.26525e-20
3.26474e-20
3.26415e-20
3.26347e-20
3.26269e-20
3.2618e-20
3.26078e-20
3.25964e-20
3.25835e-20
3.2569e-20
3.25529e-20
3.25347e-20
3.25132e-20
3.24765e-20
9.69782e-20
9.7097e-20
9.7173e-20
9.72388e-20
9.7298e-20
9.73511e-20
9.73985e-20
9.74407e-20
9.7478e-20
9.75108e-20
9.75395e-20
9.75645e-20
9.75862e-20
9.7605e-20
9.76212e-20
9.76351e-20
9.76471e-20
9.76573e-20
9.7666e-20
9.76734e-20
9.76797e-20
9.76849e-20
9.76893e-20
9.7693e-20
9.7696e-20
9.76984e-20
9.77002e-20
9.77016e-20
9.77024e-20
9.77029e-20
9.77029e-20
9.77024e-20
9.77016e-20
9.77002e-20
9.76984e-20
9.7696e-20
9.7693e-20
9.76893e-20
9.76849e-20
9.76797e-20
9.76734e-20
9.7666e-20
9.76573e-20
9.76471e-20
9.76351e-20
9.76212e-20
9.7605e-20
9.75862e-20
9.75645e-20
9.75395e-20
9.75108e-20
9.7478e-20
9.74407e-20
9.73985e-20
9.73511e-20
9.7298e-20
9.72388e-20
9.7173e-20
9.7097e-20
9.69782e-20
2.97175e-19
2.97568e-19
2.97837e-19
2.98076e-19
2.98291e-19
2.98485e-19
2.98659e-19
2.98813e-19
2.98949e-19
2.99069e-19
2.99174e-19
2.99265e-19
2.99345e-19
2.99413e-19
2.99472e-19
2.99523e-19
2.99567e-19
2.99604e-19
2.99636e-19
2.99663e-19
2.99686e-19
2.99705e-19
2.99721e-19
2.99734e-19
2.99745e-19
2.99754e-19
2.99761e-19
2.99765e-19
2.99769e-19
2.9977e-19
2.9977e-19
2.99769e-19
2.99765e-19
2.99761e-19
2.99754e-19
2.99745e-19
2.99734e-19
2.99721e-19
2.99705e-19
2.99686e-19
2.99663e-19
2.99636e-19
2.99604e-19
2.99567e-19
2.99523e-19
2.99472e-19
2.99413e-19
2.99345e-19
2.99265e-19
2.99174e-19
2.99069e-19
2.98949e-19
2.98813e-19
2.98659e-19
2.98485e-19
2.98291e-19
2.98076e-19
2.97837e-19
2.97568e-19
2.97175e-19
9.34823e-19
9.36152e-19
9.37115e-19
9.37982e-19
9.38769e-19
9.3948e-19
9.40115e-19
9.4068e-19
9.4118e-19
9.4162e-19
9.42004e-19
9.42339e-19
9.4263e-19
9.42881e-19
9.43098e-19
9.43284e-19
9.43444e-19
9.43581e-19
9.43697e-19
9.43796e-19
9.43879e-19
9.43949e-19
9.44008e-19
9.44057e-19
9.44096e-19
9.44128e-19
9.44152e-19
9.4417e-19
9.44182e-19
9.44187e-19
9.44187e-19
9.44182e-19
9.4417e-19
9.44152e-19
9.44128e-19
9.44096e-19
9.44057e-19
9.44008e-19
9.43949e-19
9.43879e-19
9.43796e-19
9.43697e-19
9.43581e-19
9.43444e-19
9.43284e-19
9.43098e-19
9.42881e-19
9.4263e-19
9.42339e-19
9.42004e-19
9.4162e-19
9.4118e-19
9.4068e-19
9.40115e-19
9.3948e-19
9.38769e-19
9.37982e-19
9.37115e-19
9.36152e-19
9.34823e-19
3.01919e-18
3.02379e-18
3.02728e-18
3.03046e-18
3.03337e-18
3.03599e-18
3.03834e-18
3.04043e-18
3.04228e-18
3.0439e-18
3.04532e-18
3.04656e-18
3.04763e-18
3.04856e-18
3.04936e-18
3.05005e-18
3.05064e-18
3.05115e-18
3.05158e-18
3.05194e-18
3.05225e-18
3.05251e-18
3.05272e-18
3.0529e-18
3.05305e-18
3.05317e-18
3.05326e-18
3.05332e-18
3.05336e-18
3.05338e-18
3.05338e-18
3.05336e-18
3.05332e-18
3.05326e-18
3.05317e-18
3.05305e-18
3.0529e-18
3.05272e-18
3.05251e-18
3.05225e-18
3.05194e-18
3.05158e-18
3.05115e-18
3.05064e-18
3.05005e-18
3.04936e-18
3.04856e-18
3.04763e-18
3.04656e-18
3.04532e-18
3.0439e-18
3.04228e-18
3.04043e-18
3.03834e-18
3.03599e-18
3.03337e-18
3.03046e-18
3.02728e-18
3.02379e-18
3.01919e-18
1.00117e-17
1.00279e-17
1.00408e-17
1.00526e-17
1.00635e-17
1.00733e-17
1.00821e-17
1.00899e-17
1.00968e-17
1.01029e-17
1.01082e-17
1.01128e-17
1.01168e-17
1.01203e-17
1.01233e-17
1.01259e-17
1.01281e-17
1.013e-17
1.01316e-17
1.01329e-17
1.01341e-17
1.01351e-17
1.01359e-17
1.01365e-17
1.01371e-17
1.01375e-17
1.01379e-17
1.01381e-17
1.01383e-17
1.01383e-17
1.01383e-17
1.01383e-17
1.01381e-17
1.01379e-17
1.01375e-17
1.01371e-17
1.01365e-17
1.01359e-17
1.01351e-17
1.01341e-17
1.01329e-17
1.01316e-17
1.013e-17
1.01281e-17
1.01259e-17
1.01233e-17
1.01203e-17
1.01168e-17
1.01128e-17
1.01082e-17
1.01029e-17
1.00968e-17
1.00899e-17
1.00821e-17
1.00733e-17
1.00635e-17
1.00526e-17
1.00408e-17
1.00279e-17
1.00117e-17
3.40825e-17
3.41413e-17
3.41895e-17
3.42343e-17
3.42755e-17
3.43127e-17
3.43461e-17
3.43757e-17
3.4402e-17
3.44251e-17
3.44452e-17
3.44628e-17
3.44781e-17
3.44913e-17
3.45027e-17
3.45125e-17
3.45208e-17
3.4528e-17
3.45341e-17
3.45392e-17
3.45436e-17
3.45473e-17
3.45504e-17
3.45529e-17
3.4555e-17
3.45566e-17
3.45579e-17
3.45588e-17
3.45594e-17
3.45597e-17
3.45597e-17
3.45594e-17
3.45588e-17
3.45579e-17
3.45566e-17
3.4555e-17
3.45529e-17
3.45504e-17
3.45473e-17
3.45436e-17
3.45392e-17
3.45341e-17
3.4528e-17
3.45208e-17
3.45125e-17
3.45027e-17
3.44913e-17
3.44781e-17
3.44628e-17
3.44452e-17
3.44251e-17
3.4402e-17
3.43757e-17
3.43461e-17
3.43127e-17
3.42755e-17
3.42343e-17
3.41895e-17
3.41413e-17
3.40825e-17
1.19087e-16
1.19305e-16
1.19489e-16
1.19661e-16
1.1982e-16
1.19964e-16
1.20092e-16
1.20207e-16
1.20308e-16
1.20397e-16
1.20475e-16
1.20543e-16
1.20602e-16
1.20653e-16
1.20697e-16
1.20735e-16
1.20767e-16
1.20795e-16
1.20818e-16
1.20838e-16
1.20855e-16
1.20869e-16
1.20881e-16
1.20891e-16
1.20899e-16
1.20905e-16
1.2091e-16
1.20913e-16
1.20916e-16
1.20917e-16
1.20917e-16
1.20916e-16
1.20913e-16
1.2091e-16
1.20905e-16
1.20899e-16
1.20891e-16
1.20881e-16
1.20869e-16
1.20855e-16
1.20838e-16
1.20818e-16
1.20795e-16
1.20767e-16
1.20735e-16
1.20697e-16
1.20653e-16
1.20602e-16
1.20543e-16
1.20475e-16
1.20397e-16
1.20308e-16
1.20207e-16
1.20092e-16
1.19964e-16
1.1982e-16
1.19661e-16
1.19489e-16
1.19305e-16
1.19087e-16
4.26911e-16
4.27735e-16
4.28452e-16
4.29127e-16
4.29749e-16
4.30313e-16
4.30819e-16
4.31269e-16
4.31666e-16
4.32016e-16
4.32323e-16
4.32589e-16
4.32821e-16
4.33021e-16
4.33193e-16
4.33342e-16
4.33469e-16
4.33577e-16
4.33669e-16
4.33748e-16
4.33814e-16
4.33869e-16
4.33916e-16
4.33954e-16
4.33985e-16
4.3401e-16
4.3403e-16
4.34044e-16
4.34053e-16
4.34057e-16
4.34057e-16
4.34053e-16
4.34044e-16
4.3403e-16
4.3401e-16
4.33985e-16
4.33954e-16
4.33916e-16
4.33869e-16
4.33814e-16
4.33748e-16
4.33669e-16
4.33577e-16
4.33469e-16
4.33342e-16
4.33193e-16
4.33021e-16
4.32821e-16
4.32589e-16
4.32323e-16
4.32016e-16
4.31666e-16
4.31269e-16
4.30819e-16
4.30313e-16
4.29749e-16
4.29127e-16
4.28452e-16
4.27735e-16
4.26911e-16
1.56928e-15
1.57247e-15
1.57532e-15
1.57801e-15
1.58049e-15
1.58275e-15
1.58477e-15
1.58657e-15
1.58816e-15
1.58956e-15
1.59078e-15
1.59185e-15
1.59278e-15
1.59358e-15
1.59427e-15
1.59486e-15
1.59537e-15
1.5958e-15
1.59617e-15
1.59648e-15
1.59675e-15
1.59697e-15
1.59715e-15
1.59731e-15
1.59743e-15
1.59753e-15
1.59761e-15
1.59766e-15
1.5977e-15
1.59772e-15
1.59772e-15
1.5977e-15
1.59766e-15
1.59761e-15
1.59753e-15
1.59743e-15
1.59731e-15
1.59715e-15
1.59697e-15
1.59675e-15
1.59648e-15
1.59617e-15
1.5958e-15
1.59537e-15
1.59486e-15
1.59427e-15
1.59358e-15
1.59278e-15
1.59185e-15
1.59078e-15
1.58956e-15
1.58816e-15
1.58657e-15
1.58477e-15
1.58275e-15
1.58049e-15
1.57801e-15
1.57532e-15
1.57247e-15
1.56928e-15
5.91037e-15
5.92302e-15
5.93452e-15
5.94545e-15
5.95556e-15
5.96473e-15
5.97295e-15
5.98028e-15
5.98675e-15
5.99245e-15
5.99743e-15
6.00178e-15
6.00554e-15
6.0088e-15
6.01161e-15
6.01402e-15
6.01609e-15
6.01785e-15
6.01936e-15
6.02063e-15
6.02171e-15
6.02261e-15
6.02337e-15
6.02399e-15
6.0245e-15
6.0249e-15
6.02521e-15
6.02544e-15
6.02559e-15
6.02566e-15
6.02566e-15
6.02559e-15
6.02544e-15
6.02521e-15
6.0249e-15
6.0245e-15
6.02399e-15
6.02337e-15
6.02261e-15
6.02171e-15
6.02063e-15
6.01936e-15
6.01785e-15
6.01609e-15
6.01402e-15
6.01161e-15
6.0088e-15
6.00554e-15
6.00178e-15
5.99743e-15
5.99245e-15
5.98675e-15
5.98028e-15
5.97295e-15
5.96473e-15
5.95556e-15
5.94545e-15
5.93452e-15
5.92302e-15
5.91037e-15
2.27843e-14
2.28354e-14
2.28827e-14
2.29279e-14
2.29698e-14
2.30077e-14
2.30418e-14
2.30721e-14
2.3099e-14
2.31225e-14
2.31432e-14
2.31612e-14
2.31768e-14
2.31903e-14
2.32019e-14
2.32119e-14
2.32205e-14
2.32278e-14
2.3234e-14
2.32393e-14
2.32437e-14
2.32475e-14
2.32506e-14
2.32532e-14
2.32553e-14
2.3257e-14
2.32583e-14
2.32592e-14
2.32598e-14
2.32601e-14
2.32601e-14
2.32598e-14
2.32592e-14
2.32583e-14
2.3257e-14
2.32553e-14
2.32532e-14
2.32506e-14
2.32475e-14
2.32437e-14
2.32393e-14
2.3234e-14
2.32278e-14
2.32205e-14
2.32119e-14
2.32019e-14
2.31903e-14
2.31768e-14
2.31612e-14
2.31432e-14
2.31225e-14
2.3099e-14
2.30721e-14
2.30418e-14
2.30077e-14
2.29698e-14
2.29279e-14
2.28827e-14
2.28354e-14
2.27843e-14
8.97824e-14
8.99929e-14
9.01914e-14
9.03814e-14
9.05574e-14
9.07172e-14
9.08607e-14
9.09884e-14
9.11014e-14
9.12007e-14
9.12876e-14
9.13634e-14
9.14292e-14
9.1486e-14
9.1535e-14
9.15771e-14
9.16131e-14
9.16439e-14
9.16701e-14
9.16923e-14
9.17111e-14
9.17269e-14
9.174e-14
9.17509e-14
9.17597e-14
9.17668e-14
9.17722e-14
9.17762e-14
9.17788e-14
9.178e-14
9.178e-14
9.17788e-14
9.17762e-14
9.17722e-14
9.17668e-14
9.17597e-14
9.17509e-14
9.174e-14
9.17269e-14
9.17111e-14
9.16923e-14
9.16701e-14
9.16439e-14
9.16131e-14
9.15771e-14
9.1535e-14
9.1486e-14
9.14292e-14
9.13634e-14
9.12876e-14
9.12007e-14
9.11014e-14
9.09884e-14
9.08607e-14
9.07172e-14
9.05574e-14
9.03814e-14
9.01914e-14
8.99929e-14
8.97824e-14
3.61052e-13
3.61935e-13
3.6278e-13
3.63592e-13
3.64344e-13
3.65027e-13
3.6564e-13
3.66186e-13
3.66669e-13
3.67093e-13
3.67465e-13
3.67789e-13
3.6807e-13
3.68313e-13
3.68523e-13
3.68703e-13
3.68857e-13
3.68988e-13
3.691e-13
3.69195e-13
3.69276e-13
3.69343e-13
3.69399e-13
3.69446e-13
3.69483e-13
3.69514e-13
3.69537e-13
3.69554e-13
3.69565e-13
3.6957e-13
3.6957e-13
3.69565e-13
3.69554e-13
3.69537e-13
3.69514e-13
3.69483e-13
3.69446e-13
3.69399e-13
3.69343e-13
3.69276e-13
3.69195e-13
3.691e-13
3.68988e-13
3.68857e-13
3.68703e-13
3.68523e-13
3.68313e-13
3.6807e-13
3.67789e-13
3.67465e-13
3.67093e-13
3.66669e-13
3.66186e-13
3.6564e-13
3.65027e-13
3.64344e-13
3.63592e-13
3.6278e-13
3.61935e-13
3.61052e-13
1.47875e-12
1.48252e-12
1.48617e-12
1.48968e-12
1.49293e-12
1.49589e-12
1.49855e-12
1.50091e-12
1.503e-12
1.50484e-12
1.50645e-12
1.50786e-12
1.50908e-12
1.51013e-12
1.51104e-12
1.51182e-12
1.51248e-12
1.51305e-12
1.51354e-12
1.51395e-12
1.5143e-12
1.51459e-12
1.51483e-12
1.51503e-12
1.5152e-12
1.51533e-12
1.51543e-12
1.5155e-12
1.51555e-12
1.51557e-12
1.51557e-12
1.51555e-12
1.5155e-12
1.51543e-12
1.51533e-12
1.5152e-12
1.51503e-12
1.51483e-12
1.51459e-12
1.5143e-12
1.51395e-12
1.51354e-12
1.51305e-12
1.51248e-12
1.51182e-12
1.51104e-12
1.51013e-12
1.50908e-12
1.50786e-12
1.50645e-12
1.50484e-12
1.503e-12
1.50091e-12
1.49855e-12
1.49589e-12
1.49293e-12
1.48968e-12
1.48617e-12
1.48252e-12
1.47875e-12
6.15327e-12
6.16951e-12
6.18544e-12
6.2008e-12
6.21506e-12
6.22801e-12
6.23964e-12
6.25e-12
6.25917e-12
6.26723e-12
6.27428e-12
6.28043e-12
6.28576e-12
6.29037e-12
6.29435e-12
6.29776e-12
6.30069e-12
6.30318e-12
6.30531e-12
6.30711e-12
6.30863e-12
6.30991e-12
6.31098e-12
6.31186e-12
6.31258e-12
6.31315e-12
6.31359e-12
6.31391e-12
6.31412e-12
6.31422e-12
6.31422e-12
6.31412e-12
6.31391e-12
6.31359e-12
6.31315e-12
6.31258e-12
6.31186e-12
6.31098e-12
6.30991e-12
6.30863e-12
6.30711e-12
6.30531e-12
6.30318e-12
6.30069e-12
6.29776e-12
6.29435e-12
6.29037e-12
6.28576e-12
6.28043e-12
6.27428e-12
6.26723e-12
6.25917e-12
6.25e-12
6.23964e-12
6.22801e-12
6.21506e-12
6.2008e-12
6.18544e-12
6.16951e-12
6.15327e-12
2.59373e-11
2.60081e-11
2.60783e-11
2.61461e-11
2.6209e-11
2.62662e-11
2.63175e-11
2.63632e-11
2.64037e-11
2.64393e-11
2.64704e-11
2.64976e-11
2.65211e-11
2.65415e-11
2.6559e-11
2.65741e-11
2.6587e-11
2.6598e-11
2.66074e-11
2.66154e-11
2.66221e-11
2.66277e-11
2.66324e-11
2.66363e-11
2.66395e-11
2.6642e-11
2.66439e-11
2.66454e-11
2.66463e-11
2.66467e-11
2.66467e-11
2.66463e-11
2.66454e-11
2.66439e-11
2.6642e-11
2.66395e-11
2.66363e-11
2.66324e-11
2.66277e-11
2.66221e-11
2.66154e-11
2.66074e-11
2.6598e-11
2.6587e-11
2.65741e-11
2.6559e-11
2.65415e-11
2.65211e-11
2.64976e-11
2.64704e-11
2.64393e-11
2.64037e-11
2.63632e-11
2.63175e-11
2.62662e-11
2.6209e-11
2.61461e-11
2.60783e-11
2.60081e-11
2.59373e-11
1.10368e-10
1.10678e-10
1.10989e-10
1.11289e-10
1.11568e-10
1.11822e-10
1.12049e-10
1.12252e-10
1.12432e-10
1.12589e-10
1.12727e-10
1.12848e-10
1.12952e-10
1.13042e-10
1.1312e-10
1.13187e-10
1.13244e-10
1.13293e-10
1.13335e-10
1.1337e-10
1.134e-10
1.13425e-10
1.13446e-10
1.13463e-10
1.13477e-10
1.13488e-10
1.13497e-10
1.13503e-10
1.13507e-10
1.13509e-10
1.13509e-10
1.13507e-10
1.13503e-10
1.13497e-10
1.13488e-10
1.13477e-10
1.13463e-10
1.13446e-10
1.13425e-10
1.134e-10
1.1337e-10
1.13335e-10
1.13293e-10
1.13244e-10
1.13187e-10
1.1312e-10
1.13042e-10
1.12952e-10
1.12848e-10
1.12727e-10
1.12589e-10
1.12432e-10
1.12252e-10
1.12049e-10
1.11822e-10
1.11568e-10
1.11289e-10
1.10989e-10
1.10678e-10
1.10368e-10
4.7215e-10
4.73516e-10
4.74892e-10
4.76223e-10
4.77459e-10
4.78583e-10
4.79593e-10
4.80492e-10
4.81287e-10
4.81987e-10
4.82599e-10
4.83132e-10
4.83595e-10
4.83996e-10
4.84341e-10
4.84637e-10
4.84891e-10
4.85108e-10
4.85292e-10
4.85448e-10
4.8558e-10
4.85691e-10
4.85784e-10
4.8586e-10
4.85922e-10
4.85972e-10
4.8601e-10
4.86038e-10
4.86056e-10
4.86065e-10
4.86065e-10
4.86056e-10
4.86038e-10
4.8601e-10
4.85972e-10
4.85922e-10
4.8586e-10
4.85784e-10
4.85691e-10
4.8558e-10
4.85448e-10
4.85292e-10
4.85108e-10
4.84891e-10
4.84637e-10
4.84341e-10
4.83996e-10
4.83595e-10
4.83132e-10
4.82599e-10
4.81987e-10
4.81287e-10
4.80492e-10
4.79593e-10
4.78583e-10
4.77459e-10
4.76223e-10
4.74892e-10
4.73516e-10
4.7215e-10
2.02102e-09
2.027e-09
2.03307e-09
2.03894e-09
2.04439e-09
2.04935e-09
2.05381e-09
2.05777e-09
2.06128e-09
2.06437e-09
2.06707e-09
2.06942e-09
2.07147e-09
2.07323e-09
2.07476e-09
2.07606e-09
2.07718e-09
2.07814e-09
2.07895e-09
2.07964e-09
2.08022e-09
2.08071e-09
2.08112e-09
2.08146e-09
2.08173e-09
2.08195e-09
2.08212e-09
2.08224e-09
2.08232e-09
2.08236e-09
2.08236e-09
2.08232e-09
2.08224e-09
2.08212e-09
2.08195e-09
2.08173e-09
2.08146e-09
2.08112e-09
2.08071e-09
2.08022e-09
2.07964e-09
2.07895e-09
2.07814e-09
2.07718e-09
2.07606e-09
2.07476e-09
2.07323e-09
2.07147e-09
2.06942e-09
2.06707e-09
2.06437e-09
2.06128e-09
2.05777e-09
2.05381e-09
2.04935e-09
2.04439e-09
2.03894e-09
2.03307e-09
2.027e-09
2.02102e-09
8.60838e-09
8.63438e-09
8.66087e-09
8.6865e-09
8.7103e-09
8.73194e-09
8.75137e-09
8.76868e-09
8.784e-09
8.79747e-09
8.80926e-09
8.81953e-09
8.82844e-09
8.83615e-09
8.84279e-09
8.8485e-09
8.85338e-09
8.85755e-09
8.8611e-09
8.86411e-09
8.86666e-09
8.86879e-09
8.87057e-09
8.87204e-09
8.87323e-09
8.87419e-09
8.87492e-09
8.87545e-09
8.8758e-09
8.87598e-09
8.87598e-09
8.8758e-09
8.87545e-09
8.87492e-09
8.87419e-09
8.87323e-09
8.87204e-09
8.87057e-09
8.86879e-09
8.86666e-09
8.86411e-09
8.8611e-09
8.85755e-09
8.85338e-09
8.8485e-09
8.84279e-09
8.83615e-09
8.82844e-09
8.81953e-09
8.80926e-09
8.79747e-09
8.784e-09
8.76868e-09
8.75137e-09
8.73194e-09
8.7103e-09
8.6865e-09
8.66087e-09
8.63438e-09
8.60838e-09
3.62577e-08
3.63688e-08
3.64825e-08
3.65924e-08
3.66944e-08
3.67872e-08
3.68706e-08
3.69448e-08
3.70104e-08
3.70682e-08
3.71187e-08
3.71628e-08
3.7201e-08
3.7234e-08
3.72625e-08
3.7287e-08
3.73079e-08
3.73258e-08
3.7341e-08
3.73539e-08
3.73648e-08
3.7374e-08
3.73816e-08
3.73879e-08
3.7393e-08
3.73971e-08
3.74002e-08
3.74025e-08
3.7404e-08
3.74048e-08
3.74048e-08
3.7404e-08
3.74025e-08
3.74002e-08
3.73971e-08
3.7393e-08
3.73879e-08
3.73816e-08
3.7374e-08
3.73648e-08
3.73539e-08
3.7341e-08
3.73258e-08
3.73079e-08
3.7287e-08
3.72625e-08
3.7234e-08
3.7201e-08
3.71628e-08
3.71187e-08
3.70682e-08
3.70104e-08
3.69448e-08
3.68706e-08
3.67872e-08
3.66944e-08
3.65924e-08
3.64825e-08
3.63688e-08
3.62577e-08
1.49932e-07
1.50396e-07
1.50872e-07
1.51331e-07
1.51758e-07
1.52146e-07
1.52494e-07
1.52804e-07
1.53079e-07
1.5332e-07
1.53532e-07
1.53716e-07
1.53875e-07
1.54013e-07
1.54132e-07
1.54235e-07
1.54322e-07
1.54397e-07
1.5446e-07
1.54514e-07
1.5456e-07
1.54598e-07
1.5463e-07
1.54656e-07
1.54678e-07
1.54695e-07
1.54708e-07
1.54717e-07
1.54724e-07
1.54727e-07
1.54727e-07
1.54724e-07
1.54717e-07
1.54708e-07
1.54695e-07
1.54678e-07
1.54656e-07
1.5463e-07
1.54598e-07
1.5456e-07
1.54514e-07
1.5446e-07
1.54397e-07
1.54322e-07
1.54235e-07
1.54132e-07
1.54013e-07
1.53875e-07
1.53716e-07
1.53532e-07
1.5332e-07
1.53079e-07
1.52804e-07
1.52494e-07
1.52146e-07
1.51758e-07
1.51331e-07
1.50872e-07
1.50396e-07
1.49932e-07
6.03802e-07
6.05677e-07
6.07601e-07
6.09459e-07
6.11182e-07
6.12749e-07
6.14156e-07
6.15409e-07
6.16517e-07
6.17491e-07
6.18344e-07
6.19088e-07
6.19732e-07
6.2029e-07
6.2077e-07
6.21183e-07
6.21536e-07
6.21838e-07
6.22095e-07
6.22312e-07
6.22496e-07
6.2265e-07
6.22779e-07
6.22885e-07
6.22972e-07
6.2304e-07
6.23093e-07
6.23132e-07
6.23157e-07
6.2317e-07
6.2317e-07
6.23157e-07
6.23132e-07
6.23093e-07
6.2304e-07
6.22972e-07
6.22885e-07
6.22779e-07
6.2265e-07
6.22496e-07
6.22312e-07
6.22095e-07
6.21838e-07
6.21536e-07
6.21183e-07
6.2077e-07
6.2029e-07
6.19732e-07
6.19088e-07
6.18344e-07
6.17491e-07
6.16517e-07
6.15409e-07
6.14156e-07
6.12749e-07
6.11182e-07
6.09459e-07
6.07601e-07
6.05677e-07
6.03802e-07
2.3467e-06
2.35396e-06
2.36141e-06
2.36859e-06
2.37525e-06
2.38131e-06
2.38674e-06
2.39158e-06
2.39586e-06
2.39962e-06
2.40292e-06
2.40579e-06
2.40828e-06
2.41043e-06
2.41229e-06
2.41388e-06
2.41524e-06
2.41641e-06
2.4174e-06
2.41824e-06
2.41895e-06
2.41955e-06
2.42004e-06
2.42045e-06
2.42079e-06
2.42105e-06
2.42126e-06
2.4214e-06
2.4215e-06
2.42155e-06
2.42155e-06
2.4215e-06
2.4214e-06
2.42126e-06
2.42105e-06
2.42079e-06
2.42045e-06
2.42004e-06
2.41955e-06
2.41895e-06
2.41824e-06
2.4174e-06
2.41641e-06
2.41524e-06
2.41388e-06
2.41229e-06
2.41043e-06
2.40828e-06
2.40579e-06
2.40292e-06
2.39962e-06
2.39586e-06
2.39158e-06
2.38674e-06
2.38131e-06
2.37525e-06
2.36859e-06
2.36141e-06
2.35396e-06
2.3467e-06
8.71322e-06
8.73986e-06
8.76714e-06
8.79341e-06
8.81775e-06
8.83986e-06
8.85971e-06
8.87738e-06
8.89301e-06
8.90675e-06
8.91878e-06
8.92926e-06
8.93835e-06
8.94621e-06
8.95298e-06
8.9588e-06
8.96378e-06
8.96803e-06
8.97165e-06
8.97472e-06
8.97731e-06
8.97948e-06
8.98129e-06
8.98279e-06
8.98401e-06
8.98498e-06
8.98572e-06
8.98627e-06
8.98662e-06
8.9868e-06
8.9868e-06
8.98662e-06
8.98627e-06
8.98572e-06
8.98498e-06
8.98401e-06
8.98279e-06
8.98129e-06
8.97948e-06
8.97731e-06
8.97472e-06
8.97165e-06
8.96803e-06
8.96378e-06
8.9588e-06
8.95298e-06
8.94621e-06
8.93835e-06
8.92926e-06
8.91878e-06
8.90675e-06
8.89301e-06
8.87738e-06
8.85971e-06
8.83986e-06
8.81775e-06
8.79341e-06
8.76714e-06
8.73986e-06
8.71322e-06
3.05598e-05
3.06511e-05
3.07444e-05
3.08341e-05
3.09171e-05
3.09924e-05
3.10601e-05
3.11203e-05
3.11736e-05
3.12204e-05
3.12614e-05
3.12971e-05
3.13281e-05
3.13549e-05
3.13779e-05
3.13977e-05
3.14147e-05
3.14292e-05
3.14415e-05
3.1452e-05
3.14608e-05
3.14682e-05
3.14743e-05
3.14794e-05
3.14836e-05
3.14869e-05
3.14894e-05
3.14913e-05
3.14925e-05
3.14931e-05
3.14931e-05
3.14925e-05
3.14913e-05
3.14894e-05
3.14869e-05
3.14836e-05
3.14794e-05
3.14743e-05
3.14682e-05
3.14608e-05
3.1452e-05
3.14415e-05
3.14292e-05
3.14147e-05
3.13977e-05
3.13779e-05
3.13549e-05
3.13281e-05
3.12971e-05
3.12614e-05
3.12204e-05
3.11736e-05
3.11203e-05
3.10601e-05
3.09924e-05
3.09171e-05
3.08341e-05
3.07444e-05
3.06511e-05
3.05598e-05
9.99834e-05
0.000100272
0.000100565
0.000100847
0.000101107
0.000101343
0.000101555
0.000101744
0.000101911
0.000102057
0.000102186
0.000102298
0.000102395
0.000102478
0.000102551
0.000102613
0.000102666
0.000102711
0.00010275
0.000102782
0.00010281
0.000102833
0.000102853
0.000102869
0.000102882
0.000102892
0.0001029
0.000102906
0.000102909
0.000102911
0.000102911
0.000102909
0.000102906
0.0001029
0.000102892
0.000102882
0.000102869
0.000102853
0.000102833
0.00010281
0.000102782
0.00010275
0.000102711
0.000102666
0.000102613
0.000102551
0.000102478
0.000102395
0.000102298
0.000102186
0.000102057
0.000101911
0.000101744
0.000101555
0.000101343
0.000101107
0.000100847
0.000100565
0.000100272
9.99834e-05
0.000300988
0.000301813
0.000302648
0.000303446
0.000304184
0.000304853
0.000305454
0.000305988
0.00030646
0.000306876
0.000307239
0.000307555
0.00030783
0.000308067
0.000308271
0.000308447
0.000308597
0.000308726
0.000308835
0.000308927
0.000309005
0.000309071
0.000309126
0.000309171
0.000309208
0.000309237
0.000309259
0.000309276
0.000309286
0.000309292
0.000309292
0.000309286
0.000309276
0.000309259
0.000309237
0.000309208
0.000309171
0.000309126
0.000309071
0.000309005
0.000308927
0.000308835
0.000308726
0.000308597
0.000308447
0.000308271
0.000308067
0.00030783
0.000307555
0.000307239
0.000306876
0.00030646
0.000305988
0.000305454
0.000304853
0.000304184
0.000303446
0.000302648
0.000301813
0.000300988
0.000821691
0.000823788
0.000825896
0.000827906
0.000829761
0.000831443
0.000832952
0.000834294
0.00083548
0.000836523
0.000837435
0.000838229
0.000838918
0.000839514
0.000840027
0.000840468
0.000840845
0.000841167
0.000841441
0.000841674
0.00084187
0.000842035
0.000842172
0.000842285
0.000842377
0.000842451
0.000842507
0.000842549
0.000842575
0.000842589
0.000842589
0.000842575
0.000842549
0.000842507
0.000842451
0.000842377
0.000842285
0.000842172
0.000842035
0.00084187
0.000841674
0.000841441
0.000841167
0.000840845
0.000840468
0.000840027
0.000839514
0.000838918
0.000838229
0.000837435
0.000836523
0.00083548
0.000834294
0.000832952
0.000831443
0.000829761
0.000827906
0.000825896
0.000823788
0.000821691
0.0020058
0.00201045
0.00201509
0.0020195
0.00202356
0.00202724
0.00203055
0.00203348
0.00203608
0.00203836
0.00204035
0.00204209
0.0020436
0.0020449
0.00204602
0.00204698
0.00204781
0.00204851
0.00204911
0.00204962
0.00205005
0.00205041
0.00205071
0.00205096
0.00205116
0.00205132
0.00205144
0.00205153
0.00205159
0.00205162
0.00205162
0.00205159
0.00205153
0.00205144
0.00205132
0.00205116
0.00205096
0.00205071
0.00205041
0.00205005
0.00204962
0.00204911
0.00204851
0.00204781
0.00204698
0.00204602
0.0020449
0.0020436
0.00204209
0.00204035
0.00203836
0.00203608
0.00203348
0.00203055
0.00202724
0.00202356
0.0020195
0.00201509
0.00201045
0.0020058
0.00432944
0.00433832
0.0043471
0.00435541
0.00436306
0.00436998
0.00437619
0.00438171
0.00438659
0.00439087
0.00439462
0.00439788
0.00440071
0.00440316
0.00440526
0.00440707
0.00440862
0.00440995
0.00441107
0.00441203
0.00441283
0.00441351
0.00441407
0.00441454
0.00441492
0.00441522
0.00441545
0.00441562
0.00441573
0.00441578
0.00441578
0.00441573
0.00441562
0.00441545
0.00441522
0.00441492
0.00441454
0.00441407
0.00441351
0.00441283
0.00441203
0.00441107
0.00440995
0.00440862
0.00440707
0.00440526
0.00440316
0.00440071
0.00439788
0.00439462
0.00439087
0.00438659
0.00438171
0.00437619
0.00436998
0.00436306
0.00435541
0.0043471
0.00433832
0.00432944
0.00822396
0.00823849
0.0082527
0.0082661
0.00827842
0.00828957
0.00829955
0.00830842
0.00831626
0.00832315
0.00832918
0.00833442
0.00833897
0.0083429
0.00834629
0.0083492
0.00835169
0.00835382
0.00835563
0.00835716
0.00835846
0.00835954
0.00836045
0.0083612
0.00836181
0.00836229
0.00836267
0.00836294
0.00836312
0.00836321
0.00836321
0.00836312
0.00836294
0.00836267
0.00836229
0.00836181
0.0083612
0.00836045
0.00835954
0.00835846
0.00835716
0.00835563
0.00835382
0.00835169
0.0083492
0.00834629
0.0083429
0.00833897
0.00833442
0.00832918
0.00832315
0.00831626
0.00830842
0.00829955
0.00828957
0.00827842
0.0082661
0.0082527
0.00823849
0.00822396
0.0138117
0.0138323
0.0138523
0.013871
0.0138882
0.0139037
0.0139176
0.01393
0.0139409
0.0139505
0.0139589
0.0139662
0.0139725
0.013978
0.0139827
0.0139868
0.0139902
0.0139932
0.0139957
0.0139978
0.0139997
0.0140012
0.0140024
0.0140035
0.0140043
0.014005
0.0140055
0.0140059
0.0140062
0.0140063
0.0140063
0.0140062
0.0140059
0.0140055
0.014005
0.0140043
0.0140035
0.0140024
0.0140012
0.0139997
0.0139978
0.0139957
0.0139932
0.0139902
0.0139868
0.0139827
0.013978
0.0139725
0.0139662
0.0139589
0.0139505
0.0139409
0.01393
0.0139176
0.0139037
0.0138882
0.013871
0.0138523
0.0138323
0.0138117
0.020803
0.0208291
0.020854
0.0208773
0.0208986
0.0209179
0.0209352
0.0209505
0.020964
0.0209759
0.0209863
0.0209954
0.0210032
0.02101
0.0210159
0.0210209
0.0210252
0.0210289
0.021032
0.0210347
0.0210369