/*--------------------------------*- C++ -*----------------------------------*\
| =========                 |                                                 |
| \\      /  F ield         | foam-extend: Open Source CFD                    |
|  \\    /   O peration     | Version:     4.0                                |
|   \\  /    A nd           | Web:         http://www.foam-extend.org         |
|    \\/     M anipulation  |                                                 |
\*---------------------------------------------------------------------------*/
FoamFile
{
    version     2.0;
    format      ascii;
    class       volScalarField;
    location    "1560";
    object      psiE;
}
// * * * * * * * * * * * * * * * * * * * * * * * * * * * * * * * * * * * * * //

dimensions      [0 0 0 0 0 0 0];

internalField   nonuniform List<scalar> 
6960
(
0.34064
0.340647
0.340656
0.340665
0.340673
0.34068
0.340687
0.340693
0.340698
0.340702
0.340706
0.34071
0.340713
0.340716
0.340718
0.34072
0.340721
0.340723
0.340724
0.340725
0.340726
0.340727
0.340727
0.340728
0.340728
0.340729
0.340729
0.340729
0.340729
0.340729
0.340729
0.340729
0.340729
0.340729
0.340729
0.340728
0.340728
0.340727
0.340727
0.340726
0.340725
0.340724
0.340723
0.340721
0.34072
0.340718
0.340716
0.340713
0.34071
0.340706
0.340702
0.340698
0.340693
0.340687
0.34068
0.340673
0.340665
0.340656
0.340647
0.34064
0.859115
0.859144
0.859179
0.859214
0.859247
0.859277
0.859304
0.859328
0.859349
0.859367
0.859383
0.859398
0.85941
0.85942
0.85943
0.859437
0.859444
0.85945
0.859455
0.859459
0.859463
0.859466
0.859468
0.85947
0.859472
0.859473
0.859474
0.859475
0.859475
0.859476
0.859476
0.859475
0.859475
0.859474
0.859473
0.859472
0.85947
0.859468
0.859466
0.859463
0.859459
0.859455
0.85945
0.859444
0.859437
0.85943
0.85942
0.85941
0.859398
0.859383
0.859367
0.859349
0.859328
0.859304
0.859277
0.859247
0.859214
0.859179
0.859144
0.859115
1.33373
1.33379
1.33386
1.33393
1.33399
1.33405
1.33411
1.33415
1.33419
1.33423
1.33426
1.33429
1.33431
1.33433
1.33435
1.33437
1.33438
1.33439
1.3344
1.33441
1.33442
1.33442
1.33443
1.33443
1.33444
1.33444
1.33444
1.33444
1.33444
1.33444
1.33444
1.33444
1.33444
1.33444
1.33444
1.33444
1.33443
1.33443
1.33442
1.33442
1.33441
1.3344
1.33439
1.33438
1.33437
1.33435
1.33433
1.33431
1.33429
1.33426
1.33423
1.33419
1.33415
1.33411
1.33405
1.33399
1.33393
1.33386
1.33379
1.33373
1.79825
1.79833
1.79844
1.79855
1.79865
1.79874
1.79882
1.7989
1.79896
1.79902
1.79907
1.79911
1.79915
1.79918
1.79921
1.79923
1.79926
1.79927
1.79929
1.7993
1.79931
1.79932
1.79933
1.79933
1.79934
1.79934
1.79935
1.79935
1.79935
1.79935
1.79935
1.79935
1.79935
1.79935
1.79934
1.79934
1.79933
1.79933
1.79932
1.79931
1.7993
1.79929
1.79927
1.79926
1.79923
1.79921
1.79918
1.79915
1.79911
1.79907
1.79902
1.79896
1.7989
1.79882
1.79874
1.79865
1.79855
1.79844
1.79833
1.79825
2.26502
2.26514
2.26529
2.26544
2.26558
2.26571
2.26582
2.26593
2.26602
2.2661
2.26616
2.26622
2.26628
2.26632
2.26636
2.26639
2.26642
2.26645
2.26647
2.26649
2.2665
2.26651
2.26652
2.26653
2.26654
2.26654
2.26655
2.26655
2.26655
2.26656
2.26656
2.26655
2.26655
2.26655
2.26654
2.26654
2.26653
2.26652
2.26651
2.2665
2.26649
2.26647
2.26645
2.26642
2.26639
2.26636
2.26632
2.26628
2.26622
2.26616
2.2661
2.26602
2.26593
2.26582
2.26571
2.26558
2.26544
2.26529
2.26514
2.26502
2.73882
2.73898
2.73917
2.73937
2.73955
2.73971
2.73986
2.73999
2.74011
2.74021
2.7403
2.74037
2.74044
2.7405
2.74055
2.74059
2.74063
2.74066
2.74069
2.74071
2.74073
2.74075
2.74076
2.74077
2.74078
2.74079
2.74079
2.7408
2.7408
2.7408
2.7408
2.7408
2.7408
2.74079
2.74079
2.74078
2.74077
2.74076
2.74075
2.74073
2.74071
2.74069
2.74066
2.74063
2.74059
2.74055
2.7405
2.74044
2.74037
2.7403
2.74021
2.74011
2.73999
2.73986
2.73971
2.73955
2.73937
2.73917
2.73898
2.73882
3.22148
3.22167
3.22191
3.22215
3.22237
3.22257
3.22275
3.22292
3.22306
3.22318
3.22329
3.22339
3.22347
3.22354
3.2236
3.22366
3.2237
3.22374
3.22377
3.2238
3.22383
3.22385
3.22386
3.22388
3.22389
3.2239
3.2239
3.22391
3.22391
3.22391
3.22391
3.22391
3.22391
3.2239
3.2239
3.22389
3.22388
3.22386
3.22385
3.22383
3.2238
3.22377
3.22374
3.2237
3.22366
3.2236
3.22354
3.22347
3.22339
3.22329
3.22318
3.22306
3.22292
3.22275
3.22257
3.22237
3.22215
3.22191
3.22167
3.22148
3.71368
3.71391
3.71419
3.71447
3.71474
3.71498
3.71519
3.71539
3.71556
3.71571
3.71584
3.71595
3.71605
3.71613
3.71621
3.71627
3.71632
3.71637
3.71641
3.71644
3.71647
3.7165
3.71652
3.71653
3.71655
3.71656
3.71656
3.71657
3.71657
3.71658
3.71658
3.71657
3.71657
3.71656
3.71656
3.71655
3.71653
3.71652
3.7165
3.71647
3.71644
3.71641
3.71637
3.71632
3.71627
3.71621
3.71613
3.71605
3.71595
3.71584
3.71571
3.71556
3.71539
3.71519
3.71498
3.71474
3.71447
3.71419
3.71391
3.71368
4.21565
4.21592
4.21625
4.21658
4.21688
4.21716
4.21741
4.21764
4.21783
4.21801
4.21816
4.21829
4.2184
4.2185
4.21859
4.21866
4.21873
4.21878
4.21882
4.21886
4.2189
4.21892
4.21895
4.21897
4.21898
4.21899
4.219
4.21901
4.21901
4.21902
4.21902
4.21901
4.21901
4.219
4.21899
4.21898
4.21897
4.21895
4.21892
4.2189
4.21886
4.21882
4.21878
4.21873
4.21866
4.21859
4.2185
4.2184
4.21829
4.21816
4.21801
4.21783
4.21764
4.21741
4.21716
4.21688
4.21658
4.21625
4.21592
4.21565
4.72745
4.72775
4.72813
4.7285
4.72885
4.72917
4.72945
4.72971
4.72993
4.73013
4.7303
4.73045
4.73058
4.7307
4.73079
4.73088
4.73095
4.73101
4.73106
4.73111
4.73114
4.73118
4.7312
4.73122
4.73124
4.73126
4.73127
4.73127
4.73128
4.73128
4.73128
4.73128
4.73127
4.73127
4.73126
4.73124
4.73122
4.7312
4.73118
4.73114
4.73111
4.73106
4.73101
4.73095
4.73088
4.73079
4.7307
4.73058
4.73045
4.7303
4.73013
4.72993
4.72971
4.72945
4.72917
4.72885
4.7285
4.72813
4.72775
4.72745
5.24902
5.24936
5.24978
5.2502
5.25059
5.25095
5.25127
5.25156
5.25181
5.25203
5.25223
5.2524
5.25254
5.25267
5.25278
5.25287
5.25295
5.25302
5.25308
5.25313
5.25317
5.25321
5.25324
5.25326
5.25328
5.2533
5.25331
5.25332
5.25332
5.25333
5.25333
5.25332
5.25332
5.25331
5.2533
5.25328
5.25326
5.25324
5.25321
5.25317
5.25313
5.25308
5.25302
5.25295
5.25287
5.25278
5.25267
5.25254
5.2524
5.25223
5.25203
5.25181
5.25156
5.25127
5.25095
5.25059
5.2502
5.24978
5.24936
5.24902
5.78028
5.78066
5.78112
5.78159
5.78202
5.78242
5.78278
5.7831
5.78338
5.78362
5.78384
5.78403
5.78419
5.78433
5.78445
5.78456
5.78464
5.78472
5.78479
5.78484
5.78489
5.78493
5.78496
5.78499
5.78501
5.78503
5.78504
5.78505
5.78506
5.78506
5.78506
5.78506
5.78505
5.78504
5.78503
5.78501
5.78499
5.78496
5.78493
5.78489
5.78484
5.78479
5.78472
5.78464
5.78456
5.78445
5.78433
5.78419
5.78403
5.78384
5.78362
5.78338
5.7831
5.78278
5.78242
5.78202
5.78159
5.78112
5.78066
5.78028
6.32108
6.3215
6.32201
6.32252
6.323
6.32344
6.32383
6.32418
6.32449
6.32476
6.325
6.3252
6.32538
6.32554
6.32567
6.32579
6.32589
6.32597
6.32604
6.3261
6.32615
6.3262
6.32623
6.32626
6.32629
6.32631
6.32632
6.32633
6.32634
6.32634
6.32634
6.32634
6.32633
6.32632
6.32631
6.32629
6.32626
6.32623
6.3262
6.32615
6.3261
6.32604
6.32597
6.32589
6.32579
6.32567
6.32554
6.32538
6.3252
6.325
6.32476
6.32449
6.32418
6.32383
6.32344
6.323
6.32252
6.32201
6.3215
6.32108
6.87126
6.87171
6.87227
6.87283
6.87335
6.87383
6.87426
6.87464
6.87497
6.87527
6.87553
6.87575
6.87595
6.87612
6.87626
6.87639
6.8765
6.87659
6.87667
6.87673
6.87679
6.87684
6.87688
6.87691
6.87693
6.87696
6.87697
6.87698
6.87699
6.87699
6.87699
6.87699
6.87698
6.87697
6.87696
6.87693
6.87691
6.87688
6.87684
6.87679
6.87673
6.87667
6.87659
6.8765
6.87639
6.87626
6.87612
6.87595
6.87575
6.87553
6.87527
6.87497
6.87464
6.87426
6.87383
6.87335
6.87283
6.87227
6.87171
6.87126
7.43059
7.43108
7.43168
7.43229
7.43285
7.43337
7.43383
7.43424
7.43461
7.43493
7.43521
7.43545
7.43566
7.43584
7.436
7.43614
7.43625
7.43635
7.43644
7.43651
7.43657
7.43662
7.43666
7.4367
7.43673
7.43675
7.43677
7.43678
7.43679
7.43679
7.43679
7.43679
7.43678
7.43677
7.43675
7.43673
7.4367
7.43666
7.43662
7.43657
7.43651
7.43644
7.43635
7.43625
7.43614
7.436
7.43584
7.43566
7.43545
7.43521
7.43493
7.43461
7.43424
7.43383
7.43337
7.43285
7.43229
7.43168
7.43108
7.43059
7.99879
7.99932
7.99997
8.00062
8.00123
8.00178
8.00228
8.00272
8.00311
8.00346
8.00376
8.00402
8.00425
8.00445
8.00462
8.00476
8.00489
8.00499
8.00508
8.00516
8.00523
8.00528
8.00533
8.00537
8.0054
8.00542
8.00544
8.00545
8.00546
8.00547
8.00547
8.00546
8.00545
8.00544
8.00542
8.0054
8.00537
8.00533
8.00528
8.00523
8.00516
8.00508
8.00499
8.00489
8.00476
8.00462
8.00445
8.00425
8.00402
8.00376
8.00346
8.00311
8.00272
8.00228
8.00178
8.00123
8.00062
7.99997
7.99932
7.99879
8.57555
8.57611
8.5768
8.5775
8.57815
8.57874
8.57927
8.57975
8.58017
8.58053
8.58086
8.58114
8.58138
8.58159
8.58177
8.58193
8.58206
8.58218
8.58228
8.58236
8.58243
8.58249
8.58254
8.58258
8.58261
8.58264
8.58266
8.58267
8.58268
8.58268
8.58268
8.58268
8.58267
8.58266
8.58264
8.58261
8.58258
8.58254
8.58249
8.58243
8.58236
8.58228
8.58218
8.58206
8.58193
8.58177
8.58159
8.58138
8.58114
8.58086
8.58053
8.58017
8.57975
8.57927
8.57874
8.57815
8.5775
8.5768
8.57611
8.57555
9.16046
9.16106
9.1618
9.16254
9.16323
9.16386
9.16443
9.16493
9.16538
9.16577
9.16611
9.16641
9.16667
9.16689
9.16709
9.16725
9.1674
9.16752
9.16762
9.16771
9.16778
9.16785
9.1679
9.16794
9.16798
9.168
9.16803
9.16804
9.16805
9.16806
9.16806
9.16805
9.16804
9.16803
9.168
9.16798
9.16794
9.1679
9.16785
9.16778
9.16771
9.16762
9.16752
9.1674
9.16725
9.16709
9.16689
9.16667
9.16641
9.16611
9.16577
9.16538
9.16493
9.16443
9.16386
9.16323
9.16254
9.1618
9.16106
9.16046
9.75308
9.75371
9.75449
9.75528
9.75601
9.75668
9.75728
9.75781
9.75828
9.7587
9.75906
9.75938
9.75965
9.75989
9.7601
9.76027
9.76042
9.76055
9.76066
9.76075
9.76083
9.7609
9.76095
9.761
9.76104
9.76107
9.76109
9.76111
9.76112
9.76112
9.76112
9.76112
9.76111
9.76109
9.76107
9.76104
9.761
9.76095
9.7609
9.76083
9.76075
9.76066
9.76055
9.76042
9.76027
9.7601
9.75989
9.75965
9.75938
9.75906
9.7587
9.75828
9.75781
9.75728
9.75668
9.75601
9.75528
9.75449
9.75371
9.75308
10.3529
10.3535
10.3544
10.3552
10.356
10.3567
10.3573
10.3579
10.3584
10.3588
10.3592
10.3595
10.3598
10.36
10.3603
10.3604
10.3606
10.3607
10.3609
10.361
10.361
10.3611
10.3612
10.3612
10.3613
10.3613
10.3613
10.3613
10.3613
10.3613
10.3613
10.3613
10.3613
10.3613
10.3613
10.3613
10.3612
10.3612
10.3611
10.361
10.361
10.3609
10.3607
10.3606
10.3604
10.3603
10.36
10.3598
10.3595
10.3592
10.3588
10.3584
10.3579
10.3573
10.3567
10.356
10.3552
10.3544
10.3535
10.3529
10.9592
10.9599
10.9608
10.9616
10.9624
10.9632
10.9638
10.9644
10.965
10.9654
10.9658
10.9662
10.9665
10.9667
10.967
10.9672
10.9673
10.9675
10.9676
10.9677
10.9678
10.9679
10.9679
10.968
10.968
10.968
10.9681
10.9681
10.9681
10.9681
10.9681
10.9681
10.9681
10.9681
10.968
10.968
10.968
10.9679
10.9679
10.9678
10.9677
10.9676
10.9675
10.9673
10.9672
10.967
10.9667
10.9665
10.9662
10.9658
10.9654
10.965
10.9644
10.9638
10.9632
10.9624
10.9616
10.9608
10.9599
10.9592
11.5713
11.5721
11.573
11.5739
11.5747
11.5755
11.5762
11.5768
11.5774
11.5778
11.5783
11.5786
11.579
11.5792
11.5795
11.5797
11.5798
11.58
11.5801
11.5802
11.5803
11.5804
11.5805
11.5805
11.5806
11.5806
11.5806
11.5806
11.5807
11.5807
11.5807
11.5807
11.5806
11.5806
11.5806
11.5806
11.5805
11.5805
11.5804
11.5803
11.5802
11.5801
11.58
11.5798
11.5797
11.5795
11.5792
11.579
11.5786
11.5783
11.5778
11.5774
11.5768
11.5762
11.5755
11.5747
11.5739
11.573
11.5721
11.5713
12.1885
12.1892
12.1902
12.1911
12.192
12.1928
12.1935
12.1942
12.1948
12.1953
12.1957
12.1961
12.1964
12.1967
12.1969
12.1972
12.1973
12.1975
12.1976
12.1977
12.1978
12.1979
12.198
12.198
12.1981
12.1981
12.1981
12.1982
12.1982
12.1982
12.1982
12.1982
12.1982
12.1981
12.1981
12.1981
12.198
12.198
12.1979
12.1978
12.1977
12.1976
12.1975
12.1973
12.1972
12.1969
12.1967
12.1964
12.1961
12.1957
12.1953
12.1948
12.1942
12.1935
12.1928
12.192
12.1911
12.1902
12.1892
12.1885
12.8096
12.8104
12.8114
12.8124
12.8133
12.8141
12.8149
12.8156
12.8162
12.8167
12.8171
12.8175
12.8179
12.8182
12.8184
12.8186
12.8188
12.819
12.8191
12.8192
12.8193
12.8194
12.8195
12.8196
12.8196
12.8196
12.8197
12.8197
12.8197
12.8197
12.8197
12.8197
12.8197
12.8197
12.8196
12.8196
12.8196
12.8195
12.8194
12.8193
12.8192
12.8191
12.819
12.8188
12.8186
12.8184
12.8182
12.8179
12.8175
12.8171
12.8167
12.8162
12.8156
12.8149
12.8141
12.8133
12.8124
12.8114
12.8104
12.8096
13.4337
13.4345
13.4355
13.4366
13.4375
13.4384
13.4391
13.4398
13.4404
13.441
13.4415
13.4419
13.4422
13.4425
13.4428
13.443
13.4432
13.4434
13.4435
13.4436
13.4438
13.4438
13.4439
13.444
13.444
13.4441
13.4441
13.4441
13.4441
13.4441
13.4441
13.4441
13.4441
13.4441
13.4441
13.444
13.444
13.4439
13.4438
13.4438
13.4436
13.4435
13.4434
13.4432
13.443
13.4428
13.4425
13.4422
13.4419
13.4415
13.441
13.4404
13.4398
13.4391
13.4384
13.4375
13.4366
13.4355
13.4345
13.4337
14.0594
14.0603
14.0613
14.0624
14.0633
14.0642
14.065
14.0657
14.0664
14.0669
14.0674
14.0678
14.0682
14.0685
14.0688
14.069
14.0692
14.0694
14.0695
14.0697
14.0698
14.0699
14.0699
14.07
14.07
14.0701
14.0701
14.0701
14.0701
14.0702
14.0702
14.0701
14.0701
14.0701
14.0701
14.07
14.07
14.0699
14.0699
14.0698
14.0697
14.0695
14.0694
14.0692
14.069
14.0688
14.0685
14.0682
14.0678
14.0674
14.0669
14.0664
14.0657
14.065
14.0642
14.0633
14.0624
14.0613
14.0603
14.0594
14.6853
14.6862
14.6873
14.6883
14.6893
14.6902
14.6911
14.6918
14.6924
14.693
14.6935
14.6939
14.6943
14.6946
14.6949
14.6951
14.6954
14.6955
14.6957
14.6958
14.6959
14.696
14.6961
14.6961
14.6962
14.6962
14.6963
14.6963
14.6963
14.6963
14.6963
14.6963
14.6963
14.6963
14.6962
14.6962
14.6961
14.6961
14.696
14.6959
14.6958
14.6957
14.6955
14.6954
14.6951
14.6949
14.6946
14.6943
14.6939
14.6935
14.693
14.6924
14.6918
14.6911
14.6902
14.6893
14.6883
14.6873
14.6862
14.6853
15.3097
15.3106
15.3117
15.3128
15.3138
15.3147
15.3156
15.3163
15.317
15.3175
15.318
15.3185
15.3189
15.3192
15.3195
15.3197
15.3199
15.3201
15.3203
15.3204
15.3205
15.3206
15.3207
15.3207
15.3208
15.3208
15.3209
15.3209
15.3209
15.3209
15.3209
15.3209
15.3209
15.3209
15.3208
15.3208
15.3207
15.3207
15.3206
15.3205
15.3204
15.3203
15.3201
15.3199
15.3197
15.3195
15.3192
15.3189
15.3185
15.318
15.3175
15.317
15.3163
15.3156
15.3147
15.3138
15.3128
15.3117
15.3106
15.3097
15.9306
15.9315
15.9326
15.9337
15.9348
15.9357
15.9366
15.9373
15.938
15.9386
15.9391
15.9395
15.9399
15.9402
15.9405
15.9408
15.941
15.9412
15.9413
15.9415
15.9416
15.9417
15.9418
15.9418
15.9419
15.9419
15.9419
15.942
15.942
15.942
15.942
15.942
15.942
15.9419
15.9419
15.9419
15.9418
15.9418
15.9417
15.9416
15.9415
15.9413
15.9412
15.941
15.9408
15.9405
15.9402
15.9399
15.9395
15.9391
15.9386
15.938
15.9373
15.9366
15.9357
15.9348
15.9337
15.9326
15.9315
15.9306
16.5458
16.5467
16.5478
16.5489
16.55
16.5509
16.5518
16.5525
16.5532
16.5538
16.5543
16.5548
16.5552
16.5555
16.5558
16.5561
16.5563
16.5565
16.5566
16.5567
16.5569
16.557
16.557
16.5571
16.5572
16.5572
16.5572
16.5573
16.5573
16.5573
16.5573
16.5573
16.5573
16.5572
16.5572
16.5572
16.5571
16.557
16.557
16.5569
16.5567
16.5566
16.5565
16.5563
16.5561
16.5558
16.5555
16.5552
16.5548
16.5543
16.5538
16.5532
16.5525
16.5518
16.5509
16.55
16.5489
16.5478
16.5467
16.5458
17.1526
17.1535
17.1546
17.1558
17.1568
17.1578
17.1586
17.1594
17.1601
17.1606
17.1612
17.1616
17.162
17.1624
17.1626
17.1629
17.1631
17.1633
17.1635
17.1636
17.1637
17.1638
17.1639
17.1639
17.164
17.164
17.1641
17.1641
17.1641
17.1641
17.1641
17.1641
17.1641
17.1641
17.164
17.164
17.1639
17.1639
17.1638
17.1637
17.1636
17.1635
17.1633
17.1631
17.1629
17.1626
17.1624
17.162
17.1616
17.1612
17.1606
17.1601
17.1594
17.1586
17.1578
17.1568
17.1558
17.1546
17.1535
17.1526
17.7479
17.7489
17.75
17.7511
17.7522
17.7531
17.754
17.7547
17.7554
17.756
17.7565
17.757
17.7573
17.7577
17.758
17.7582
17.7584
17.7586
17.7588
17.7589
17.759
17.7591
17.7592
17.7593
17.7593
17.7594
17.7594
17.7594
17.7594
17.7595
17.7595
17.7594
17.7594
17.7594
17.7594
17.7593
17.7593
17.7592
17.7591
17.759
17.7589
17.7588
17.7586
17.7584
17.7582
17.758
17.7577
17.7573
17.757
17.7565
17.756
17.7554
17.7547
17.754
17.7531
17.7522
17.7511
17.75
17.7489
17.7479
18.3282
18.3292
18.3303
18.3314
18.3324
18.3334
18.3342
18.3349
18.3356
18.3362
18.3367
18.3371
18.3375
18.3379
18.3382
18.3384
18.3386
18.3388
18.339
18.3391
18.3392
18.3393
18.3394
18.3394
18.3395
18.3395
18.3396
18.3396
18.3396
18.3396
18.3396
18.3396
18.3396
18.3396
18.3395
18.3395
18.3394
18.3394
18.3393
18.3392
18.3391
18.339
18.3388
18.3386
18.3384
18.3382
18.3379
18.3375
18.3371
18.3367
18.3362
18.3356
18.3349
18.3342
18.3334
18.3324
18.3314
18.3303
18.3292
18.3282
18.8892
18.8901
18.8912
18.8923
18.8933
18.8942
18.895
18.8958
18.8964
18.897
18.8975
18.8979
18.8983
18.8986
18.8989
18.8991
18.8993
18.8995
18.8997
18.8998
18.8999
18.9
18.9001
18.9001
18.9002
18.9002
18.9003
18.9003
18.9003
18.9003
18.9003
18.9003
18.9003
18.9003
18.9002
18.9002
18.9001
18.9001
18.9
18.8999
18.8998
18.8997
18.8995
18.8993
18.8991
18.8989
18.8986
18.8983
18.8979
18.8975
18.897
18.8964
18.8958
18.895
18.8942
18.8933
18.8923
18.8912
18.8901
18.8892
19.4258
19.4266
19.4277
19.4287
19.4297
19.4306
19.4313
19.432
19.4327
19.4332
19.4337
19.4341
19.4345
19.4348
19.4351
19.4353
19.4355
19.4357
19.4358
19.4359
19.436
19.4361
19.4362
19.4363
19.4363
19.4363
19.4364
19.4364
19.4364
19.4364
19.4364
19.4364
19.4364
19.4364
19.4363
19.4363
19.4363
19.4362
19.4361
19.436
19.4359
19.4358
19.4357
19.4355
19.4353
19.4351
19.4348
19.4345
19.4341
19.4337
19.4332
19.4327
19.432
19.4313
19.4306
19.4297
19.4287
19.4277
19.4266
19.4258
19.9318
19.9326
19.9336
19.9346
19.9355
19.9363
19.9371
19.9377
19.9383
19.9388
19.9393
19.9397
19.94
19.9403
19.9406
19.9408
19.941
19.9412
19.9413
19.9414
19.9415
19.9416
19.9417
19.9417
19.9418
19.9418
19.9418
19.9419
19.9419
19.9419
19.9419
19.9419
19.9419
19.9418
19.9418
19.9418
19.9417
19.9417
19.9416
19.9415
19.9414
19.9413
19.9412
19.941
19.9408
19.9406
19.9403
19.94
19.9397
19.9393
19.9388
19.9383
19.9377
19.9371
19.9363
19.9355
19.9346
19.9336
19.9326
19.9318
20.4004
20.4012
20.4021
20.403
20.4038
20.4046
20.4053
20.4059
20.4064
20.4069
20.4073
20.4077
20.408
20.4083
20.4085
20.4087
20.4089
20.409
20.4091
20.4093
20.4093
20.4094
20.4095
20.4095
20.4096
20.4096
20.4096
20.4097
20.4097
20.4097
20.4097
20.4097
20.4097
20.4096
20.4096
20.4096
20.4095
20.4095
20.4094
20.4093
20.4093
20.4091
20.409
20.4089
20.4087
20.4085
20.4083
20.408
20.4077
20.4073
20.4069
20.4064
20.4059
20.4053
20.4046
20.4038
20.403
20.4021
20.4012
20.4004
20.8241
20.8247
20.8255
20.8263
20.8271
20.8278
20.8284
20.8289
20.8294
20.8298
20.8302
20.8305
20.8308
20.831
20.8312
20.8314
20.8316
20.8317
20.8318
20.8319
20.832
20.8321
20.8321
20.8322
20.8322
20.8322
20.8323
20.8323
20.8323
20.8323
20.8323
20.8323
20.8323
20.8323
20.8322
20.8322
20.8322
20.8321
20.8321
20.832
20.8319
20.8318
20.8317
20.8316
20.8314
20.8312
20.831
20.8308
20.8305
20.8302
20.8298
20.8294
20.8289
20.8284
20.8278
20.8271
20.8263
20.8255
20.8247
20.8241
21.1957
21.1963
21.197
21.1977
21.1983
21.1989
21.1994
21.1999
21.2003
21.2006
21.2009
21.2012
21.2014
21.2017
21.2018
21.202
21.2021
21.2022
21.2023
21.2024
21.2025
21.2025
21.2026
21.2026
21.2027
21.2027
21.2027
21.2027
21.2027
21.2028
21.2028
21.2027
21.2027
21.2027
21.2027
21.2027
21.2026
21.2026
21.2025
21.2025
21.2024
21.2023
21.2022
21.2021
21.202
21.2018
21.2017
21.2014
21.2012
21.2009
21.2006
21.2003
21.1999
21.1994
21.1989
21.1983
21.1977
21.197
21.1963
21.1957
21.5109
21.5114
21.5119
21.5125
21.513
21.5134
21.5138
21.5142
21.5146
21.5148
21.5151
21.5153
21.5155
21.5157
21.5158
21.516
21.5161
21.5162
21.5162
21.5163
21.5164
21.5164
21.5165
21.5165
21.5165
21.5166
21.5166
21.5166
21.5166
21.5166
21.5166
21.5166
21.5166
21.5166
21.5166
21.5165
21.5165
21.5165
21.5164
21.5164
21.5163
21.5162
21.5162
21.5161
21.516
21.5158
21.5157
21.5155
21.5153
21.5151
21.5148
21.5146
21.5142
21.5138
21.5134
21.513
21.5125
21.5119
21.5114
21.5109
21.7694
21.7698
21.7702
21.7706
21.771
21.7714
21.7717
21.772
21.7722
21.7725
21.7727
21.7728
21.773
21.7731
21.7732
21.7733
21.7734
21.7735
21.7735
21.7736
21.7736
21.7737
21.7737
21.7737
21.7738
21.7738
21.7738
21.7738
21.7738
21.7738
21.7738
21.7738
21.7738
21.7738
21.7738
21.7738
21.7737
21.7737
21.7737
21.7736
21.7736
21.7735
21.7735
21.7734
21.7733
21.7732
21.7731
21.773
21.7728
21.7727
21.7725
21.7722
21.772
21.7717
21.7714
21.771
21.7706
21.7702
21.7698
21.7694
21.9764
21.9766
21.9769
21.9772
21.9775
21.9778
21.978
21.9782
21.9784
21.9786
21.9787
21.9789
21.979
21.9791
21.9792
21.9792
21.9793
21.9794
21.9794
21.9795
21.9795
21.9795
21.9795
21.9796
21.9796
21.9796
21.9796
21.9796
21.9796
21.9796
21.9796
21.9796
21.9796
21.9796
21.9796
21.9796
21.9796
21.9795
21.9795
21.9795
21.9795
21.9794
21.9794
21.9793
21.9792
21.9792
21.9791
21.979
21.9789
21.9787
21.9786
21.9784
21.9782
21.978
21.9778
21.9775
21.9772
21.9769
21.9766
21.9764
22.1406
22.1408
22.141
22.1412
22.1414
22.1416
22.1418
22.142
22.1421
22.1422
22.1423
22.1424
22.1425
22.1426
22.1426
22.1427
22.1427
22.1428
22.1428
22.1429
22.1429
22.1429
22.1429
22.1429
22.143
22.143
22.143
22.143
22.143
22.143
22.143
22.143
22.143
22.143
22.143
22.143
22.1429
22.1429
22.1429
22.1429
22.1429
22.1428
22.1428
22.1427
22.1427
22.1426
22.1426
22.1425
22.1424
22.1423
22.1422
22.1421
22.142
22.1418
22.1416
22.1414
22.1412
22.141
22.1408
22.1406
22.2723
22.2724
22.2726
22.2727
22.2729
22.273
22.2732
22.2733
22.2734
22.2735
22.2735
22.2736
22.2737
22.2737
22.2738
22.2738
22.2738
22.2739
22.2739
22.2739
22.274
22.274
22.274
22.274
22.274
22.274
22.274
22.274
22.274
22.274
22.274
22.274
22.274
22.274
22.274
22.274
22.274
22.274
22.274
22.274
22.2739
22.2739
22.2739
22.2738
22.2738
22.2738
22.2737
22.2737
22.2736
22.2735
22.2735
22.2734
22.2733
22.2732
22.273
22.2729
22.2727
22.2726
22.2724
22.2723
22.3805
22.3806
22.3807
22.3808
22.3809
22.381
22.3811
22.3812
22.3813
22.3813
22.3814
22.3814
22.3815
22.3815
22.3816
22.3816
22.3816
22.3816
22.3817
22.3817
22.3817
22.3817
22.3817
22.3817
22.3817
22.3818
22.3818
22.3818
22.3818
22.3818
22.3818
22.3818
22.3818
22.3818
22.3818
22.3817
22.3817
22.3817
22.3817
22.3817
22.3817
22.3817
22.3816
22.3816
22.3816
22.3816
22.3815
22.3815
22.3814
22.3814
22.3813
22.3813
22.3812
22.3811
22.381
22.3809
22.3808
22.3807
22.3806
22.3805
22.4721
22.4722
22.4722
22.4723
22.4724
22.4725
22.4725
22.4726
22.4726
22.4727
22.4727
22.4728
22.4728
22.4728
22.4729
22.4729
22.4729
22.4729
22.4729
22.473
22.473
22.473
22.473
22.473
22.473
22.473
22.473
22.473
22.473
22.473
22.473
22.473
22.473
22.473
22.473
22.473
22.473
22.473
22.473
22.473
22.473
22.4729
22.4729
22.4729
22.4729
22.4729
22.4728
22.4728
22.4728
22.4727
22.4727
22.4726
22.4726
22.4725
22.4725
22.4724
22.4723
22.4722
22.4722
22.4721
22.5519
22.5519
22.552
22.552
22.5521
22.5521
22.5522
22.5522
22.5522
22.5523
22.5523
22.5523
22.5524
22.5524
22.5524
22.5524
22.5524
22.5525
22.5525
22.5525
22.5525
22.5525
22.5525
22.5525
22.5525
22.5525
22.5525
22.5525
22.5525
22.5525
22.5525
22.5525
22.5525
22.5525
22.5525
22.5525
22.5525
22.5525
22.5525
22.5525
22.5525
22.5525
22.5525
22.5524
22.5524
22.5524
22.5524
22.5524
22.5523
22.5523
22.5523
22.5522
22.5522
22.5522
22.5521
22.5521
22.552
22.552
22.5519
22.5519
22.6229
22.6229
22.623
22.623
22.623
22.6231
22.6231
22.6232
22.6232
22.6232
22.6232
22.6233
22.6233
22.6233
22.6233
22.6233
22.6233
22.6234
22.6234
22.6234
22.6234
22.6234
22.6234
22.6234
22.6234
22.6234
22.6234
22.6234
22.6234
22.6234
22.6234
22.6234
22.6234
22.6234
22.6234
22.6234
22.6234
22.6234
22.6234
22.6234
22.6234
22.6234
22.6234
22.6233
22.6233
22.6233
22.6233
22.6233
22.6233
22.6232
22.6232
22.6232
22.6232
22.6231
22.6231
22.623
22.623
22.623
22.6229
22.6229
22.6874
22.6874
22.6874
22.6874
22.6874
22.6875
22.6875
22.6875
22.6875
22.6876
22.6876
22.6876
22.6876
22.6876
22.6876
22.6877
22.6877
22.6877
22.6877
22.6877
22.6877
22.6877
22.6877
22.6877
22.6877
22.6877
22.6877
22.6877
22.6877
22.6877
22.6877
22.6877
22.6877
22.6877
22.6877
22.6877
22.6877
22.6877
22.6877
22.6877
22.6877
22.6877
22.6877
22.6877
22.6877
22.6876
22.6876
22.6876
22.6876
22.6876
22.6876
22.6875
22.6875
22.6875
22.6875
22.6874
22.6874
22.6874
22.6874
22.6874
22.7466
22.7466
22.7466
22.7466
22.7466
22.7467
22.7467
22.7467
22.7467
22.7467
22.7467
22.7467
22.7468
22.7468
22.7468
22.7468
22.7468
22.7468
22.7468
22.7468
22.7468
22.7468
22.7469
22.7469
22.7469
22.7469
22.7469
22.7469
22.7469
22.7469
22.7469
22.7469
22.7469
22.7469
22.7469
22.7469
22.7469
22.7469
22.7468
22.7468
22.7468
22.7468
22.7468
22.7468
22.7468
22.7468
22.7468
22.7468
22.7467
22.7467
22.7467
22.7467
22.7467
22.7467
22.7467
22.7466
22.7466
22.7466
22.7466
22.7466
22.8016
22.8016
22.8016
22.8016
22.8016
22.8017
22.8017
22.8017
22.8017
22.8017
22.8017
22.8017
22.8017
22.8017
22.8017
22.8018
22.8018
22.8018
22.8018
22.8018
22.8018
22.8018
22.8018
22.8018
22.8018
22.8018
22.8018
22.8018
22.8018
22.8018
22.8018
22.8018
22.8018
22.8018
22.8018
22.8018
22.8018
22.8018
22.8018
22.8018
22.8018
22.8018
22.8018
22.8018
22.8018
22.8017
22.8017
22.8017
22.8017
22.8017
22.8017
22.8017
22.8017
22.8017
22.8017
22.8016
22.8016
22.8016
22.8016
22.8016
22.8532
22.8532
22.8532
22.8532
22.8532
22.8532
22.8532
22.8532
22.8532
22.8532
22.8532
22.8532
22.8532
22.8532
22.8532
22.8533
22.8533
22.8533
22.8533
22.8533
22.8533
22.8533
22.8533
22.8533
22.8533
22.8533
22.8533
22.8533
22.8533
22.8533
22.8533
22.8533
22.8533
22.8533
22.8533
22.8533
22.8533
22.8533
22.8533
22.8533
22.8533
22.8533
22.8533
22.8533
22.8533
22.8532
22.8532
22.8532
22.8532
22.8532
22.8532
22.8532
22.8532
22.8532
22.8532
22.8532
22.8532
22.8532
22.8532
22.8532
22.9018
22.9018
22.9018
22.9018
22.9018
22.9018
22.9018
22.9018
22.9018
22.9018
22.9018
22.9018
22.9018
22.9018
22.9018
22.9019
22.9019
22.9019
22.9019
22.9019
22.9019
22.9019
22.9019
22.9019
22.9019
22.9019
22.9019
22.9019
22.9019
22.9019
22.9019
22.9019
22.9019
22.9019
22.9019
22.9019
22.9019
22.9019
22.9019
22.9019
22.9019
22.9019
22.9019
22.9019
22.9019
22.9018
22.9018
22.9018
22.9018
22.9018
22.9018
22.9018
22.9018
22.9018
22.9018
22.9018
22.9018
22.9018
22.9018
22.9018
22.948
22.948
22.948
22.948
22.948
22.948
22.948
22.948
22.948
22.948
22.948
22.948
22.948
22.948
22.948
22.948
22.948
22.948
22.948
22.948
22.948
22.948
22.948
22.948
22.948
22.948
22.948
22.948
22.948
22.948
22.948
22.948
22.948
22.948
22.948
22.948
22.948
22.948
22.948
22.948
22.948
22.948
22.948
22.948
22.948
22.948
22.948
22.948
22.948
22.948
22.948
22.948
22.948
22.948
22.948
22.948
22.948
22.948
22.948
22.948
22.9921
22.992
22.992
22.992
22.992
22.992
22.992
22.992
22.992
22.992
22.992
22.992
22.992
22.992
22.992
22.992
22.992
22.992
22.992
22.992
22.992
22.992
22.9921
22.9921
22.9921
22.9921
22.9921
22.9921
22.9921
22.9921
22.9921
22.9921
22.9921
22.9921
22.9921
22.9921
22.9921
22.9921
22.992
22.992
22.992
22.992
22.992
22.992
22.992
22.992
22.992
22.992
22.992
22.992
22.992
22.992
22.992
22.992
22.992
22.992
22.992
22.992
22.992
22.9921
23.0343
23.0343
23.0343
23.0342
23.0342
23.0342
23.0342
23.0342
23.0342
23.0342
23.0342
23.0342
23.0342
23.0342
23.0342
23.0342
23.0342
23.0342
23.0342
23.0342
23.0342
23.0342
23.0342
23.0343
23.0343
23.0343
23.0343
23.0343
23.0343
23.0343
23.0343
23.0343
23.0343
23.0343
23.0343
23.0343
23.0343
23.0342
23.0342
23.0342
23.0342
23.0342
23.0342
23.0342
23.0342
23.0342
23.0342
23.0342
23.0342
23.0342
23.0342
23.0342
23.0342
23.0342
23.0342
23.0342
23.0342
23.0343
23.0343
23.0343
23.0749
23.0749
23.0749
23.0749
23.0748
23.0748
23.0748
23.0748
23.0748
23.0748
23.0748
23.0748
23.0748
23.0748
23.0748
23.0748
23.0748
23.0748
23.0748
23.0748
23.0748
23.0748
23.0748
23.0749
23.0749
23.0749
23.0749
23.0749
23.0749
23.0749
23.0749
23.0749
23.0749
23.0749
23.0749
23.0749
23.0749
23.0748
23.0748
23.0748
23.0748
23.0748
23.0748
23.0748
23.0748
23.0748
23.0748
23.0748
23.0748
23.0748
23.0748
23.0748
23.0748
23.0748
23.0748
23.0748
23.0749
23.0749
23.0749
23.0749
23.1141
23.1141
23.1141
23.1141
23.1141
23.114
23.114
23.114
23.114
23.114
23.114
23.114
23.114
23.114
23.114
23.114
23.114
23.114
23.114
23.114
23.114
23.1141
23.1141
23.1141
23.1141
23.1141
23.1141
23.1141
23.1141
23.1141
23.1141
23.1141
23.1141
23.1141
23.1141
23.1141
23.1141
23.1141
23.1141
23.114
23.114
23.114
23.114
23.114
23.114
23.114
23.114
23.114
23.114
23.114
23.114
23.114
23.114
23.114
23.114
23.1141
23.1141
23.1141
23.1141
23.1141
23.1521
23.1521
23.1521
23.1521
23.152
23.152
23.152
23.152
23.152
23.152
23.152
23.152
23.152
23.152
23.152
23.152
23.152
23.152
23.152
23.152
23.152
23.152
23.152
23.152
23.152
23.152
23.152
23.152
23.152
23.152
23.152
23.152
23.152
23.152
23.152
23.152
23.152
23.152
23.152
23.152
23.152
23.152
23.152
23.152
23.152
23.152
23.152
23.152
23.152
23.152
23.152
23.152
23.152
23.152
23.152
23.152
23.1521
23.1521
23.1521
23.1521
23.189
23.189
23.189
23.189
23.1889
23.1889
23.1889
23.1889
23.1889
23.1889
23.1889
23.1889
23.1889
23.1889
23.1889
23.1889
23.1889
23.1889
23.1889
23.1889
23.1889
23.1889
23.1889
23.1889
23.1889
23.1889
23.1889
23.1889
23.1889
23.1889
23.1889
23.1889
23.1889
23.1889
23.1889
23.1889
23.1889
23.1889
23.1889
23.1889
23.1889
23.1889
23.1889
23.1889
23.1889
23.1889
23.1889
23.1889
23.1889
23.1889
23.1889
23.1889
23.1889
23.1889
23.1889
23.1889
23.189
23.189
23.189
23.189
23.2249
23.2249
23.2249
23.2249
23.2249
23.2248
23.2248
23.2248
23.2248
23.2248
23.2248
23.2248
23.2248
23.2248
23.2248
23.2248
23.2248
23.2248
23.2248
23.2248
23.2248
23.2248
23.2248
23.2248
23.2249
23.2249
23.2249
23.2249
23.2249
23.2249
23.2249
23.2249
23.2249
23.2249
23.2249
23.2249
23.2248
23.2248
23.2248
23.2248
23.2248
23.2248
23.2248
23.2248
23.2248
23.2248
23.2248
23.2248
23.2248
23.2248
23.2248
23.2248
23.2248
23.2248
23.2248
23.2249
23.2249
23.2249
23.2249
23.2249
23.26
23.26
23.26
23.2599
23.2599
23.2599
23.2599
23.2599
23.2599
23.2599
23.2599
23.2599
23.2599
23.2599
23.2599
23.2599
23.2599
23.2599
23.2599
23.2599
23.2599
23.2599
23.2599
23.2599
23.2599
23.2599
23.2599
23.2599
23.2599
23.2599
23.2599
23.2599
23.2599
23.2599
23.2599
23.2599