/*--------------------------------*- C++ -*----------------------------------*\
| =========                 |                                                 |
| \\      /  F ield         | foam-extend: Open Source CFD                    |
|  \\    /   O peration     | Version:     4.0                                |
|   \\  /    A nd           | Web:         http://www.foam-extend.org         |
|    \\/     M anipulation  |                                                 |
\*---------------------------------------------------------------------------*/
FoamFile
{
    version     2.0;
    format      ascii;
    class       volScalarField;
    location    "7";
    object      cMinus;
}
// * * * * * * * * * * * * * * * * * * * * * * * * * * * * * * * * * * * * * //

dimensions      [0 -3 0 0 0 0 0];

internalField   nonuniform List<scalar> 
6960
(
3.51073e-06
1.97693e-06
-8.28238e-07
-3.97708e-06
-5.90404e-06
-5.4574e-06
-2.95304e-06
1.42077e-07
2.44573e-06
3.44252e-06
3.37387e-06
2.74705e-06
1.97926e-06
1.2954e-06
7.70016e-07
3.9876e-07
1.49322e-07
-1.31102e-08
-1.16837e-07
-1.82255e-07
-2.23191e-07
-2.48672e-07
-2.64481e-07
-2.74266e-07
-2.80311e-07
-2.84029e-07
-2.86298e-07
-2.8765e-07
-2.88406e-07
-2.88745e-07
-2.88747e-07
-2.88406e-07
-2.87651e-07
-2.86297e-07
-2.84028e-07
-2.8031e-07
-2.74268e-07
-2.64482e-07
-2.48672e-07
-2.23189e-07
-1.82253e-07
-1.16833e-07
-1.31065e-08
1.49325e-07
3.9876e-07
7.70016e-07
1.29539e-06
1.97926e-06
2.74705e-06
3.37387e-06
3.44252e-06
2.44574e-06
1.42078e-07
-2.95304e-06
-5.4574e-06
-5.90403e-06
-3.97708e-06
-8.28234e-07
1.97693e-06
3.51073e-06
3.5973e-06
2.02524e-06
-8.49816e-07
-4.07701e-06
-6.05185e-06
-5.594e-06
-3.02718e-06
1.45186e-07
2.50649e-06
3.5284e-06
3.45829e-06
2.81599e-06
2.02911e-06
1.32819e-06
7.8966e-07
4.0909e-07
1.53382e-07
-1.3142e-08
-1.19486e-07
-1.86558e-07
-2.2853e-07
-2.54657e-07
-2.70868e-07
-2.80902e-07
-2.871e-07
-2.90913e-07
-2.93241e-07
-2.94627e-07
-2.95402e-07
-2.9575e-07
-2.95751e-07
-2.95402e-07
-2.94628e-07
-2.93239e-07
-2.90912e-07
-2.87099e-07
-2.80903e-07
-2.70869e-07
-2.54657e-07
-2.28528e-07
-1.86556e-07
-1.19482e-07
-1.31383e-08
1.53385e-07
4.09089e-07
7.89659e-07
1.32818e-06
2.02911e-06
2.81599e-06
3.45829e-06
3.5284e-06
2.50649e-06
1.45188e-07
-3.02717e-06
-5.594e-06
-6.05184e-06
-4.07701e-06
-8.49812e-07
2.02525e-06
3.59731e-06
3.67922e-06
2.06965e-06
-8.73362e-07
-4.17606e-06
-6.19669e-06
-5.72791e-06
-3.10081e-06
1.46622e-07
2.56472e-06
3.61221e-06
3.54163e-06
2.88478e-06
2.07941e-06
1.36169e-06
8.10102e-07
4.20205e-07
1.58175e-07
-1.24946e-08
-1.21503e-07
-1.90265e-07
-2.333e-07
-2.60093e-07
-2.76718e-07
-2.87009e-07
-2.93368e-07
-2.9728e-07
-2.99668e-07
-3.0109e-07
-3.01886e-07
-3.02242e-07
-3.02244e-07
-3.01886e-07
-3.01091e-07
-2.99666e-07
-2.97279e-07
-2.93367e-07
-2.87011e-07
-2.76719e-07
-2.60093e-07
-2.33298e-07
-1.90263e-07
-1.21499e-07
-1.24908e-08
1.58178e-07
4.20204e-07
8.10102e-07
1.36169e-06
2.07941e-06
2.88478e-06
3.54164e-06
3.61221e-06
2.56472e-06
1.46624e-07
-3.10081e-06
-5.72791e-06
-6.19669e-06
-4.17606e-06
-8.73358e-07
2.06965e-06
3.67922e-06
3.75616e-06
2.1099e-06
-8.98988e-07
-4.27416e-06
-6.33838e-06
-5.85896e-06
-3.17389e-06
1.46302e-07
2.62027e-06
3.69379e-06
3.6238e-06
2.95337e-06
2.13013e-06
1.39595e-06
8.31385e-07
4.32149e-07
1.6375e-07
-1.11211e-08
-1.22841e-07
-1.93332e-07
-2.37457e-07
-2.64935e-07
-2.81988e-07
-2.92547e-07
-2.99071e-07
-3.03086e-07
-3.05537e-07
-3.06998e-07
-3.07815e-07
-3.08181e-07
-3.08182e-07
-3.07815e-07
-3.06999e-07
-3.05536e-07
-3.03085e-07
-2.9907e-07
-2.92548e-07
-2.81989e-07
-2.64935e-07
-2.37455e-07
-1.93329e-07
-1.22837e-07
-1.11173e-08
1.63753e-07
4.32149e-07
8.31385e-07
1.39594e-06
2.13014e-06
2.95337e-06
3.6238e-06
3.69379e-06
2.62027e-06
1.46304e-07
-3.17388e-06
-5.85896e-06
-6.33838e-06
-4.27415e-06
-8.98984e-07
2.1099e-06
3.75616e-06
3.82782e-06
2.14575e-06
-9.26802e-07
-4.37124e-06
-6.47675e-06
-5.98698e-06
-3.24635e-06
1.44149e-07
2.67299e-06
3.77299e-06
3.70469e-06
3.02172e-06
2.18129e-06
1.43096e-06
8.53546e-07
4.4497e-07
1.70153e-07
-8.9739e-09
-1.23456e-07
-1.95712e-07
-2.40957e-07
-2.6914e-07
-2.86636e-07
-2.97472e-07
-3.04169e-07
-3.08291e-07
-3.10808e-07
-3.12308e-07
-3.13148e-07
-3.13523e-07
-3.13525e-07
-3.13148e-07
-3.12309e-07
-3.10807e-07
-3.0829e-07
-3.04168e-07
-2.97473e-07
-2.86637e-07
-2.6914e-07
-2.40955e-07
-1.9571e-07
-1.23451e-07
-8.97007e-09
1.70156e-07
4.44969e-07
8.53546e-07
1.43096e-06
2.18129e-06
3.02172e-06
3.70469e-06
3.77299e-06
2.67299e-06
1.4415e-07
-3.24635e-06
-5.98698e-06
-6.47675e-06
-4.37124e-06
-9.26798e-07
2.14575e-06
3.82782e-06
3.89388e-06
2.17695e-06
-9.56906e-07
-4.46725e-06
-6.61162e-06
-6.11182e-06
-3.31814e-06
1.40088e-07
2.72274e-06
3.84967e-06
3.78419e-06
3.08976e-06
2.23288e-06
1.46677e-06
8.76623e-07
4.5871e-07
1.77432e-07
-6.00673e-09
-1.233e-07
-1.97362e-07
-2.43756e-07
-2.72666e-07
-2.90619e-07
-3.01742e-07
-3.08619e-07
-3.12853e-07
-3.15439e-07
-3.16981e-07
-3.17843e-07
-3.1823e-07
-3.18232e-07
-3.17843e-07
-3.16982e-07
-3.15437e-07
-3.12852e-07
-3.08618e-07
-3.01744e-07
-2.9062e-07
-2.72666e-07
-2.43754e-07
-1.97359e-07
-1.23295e-07
-6.00289e-09
1.77435e-07
4.58709e-07
8.76623e-07
1.46677e-06
2.23288e-06
3.08976e-06
3.78419e-06
3.84967e-06
2.72274e-06
1.4009e-07
-3.31814e-06
-6.11182e-06
-6.61161e-06
-4.46724e-06
-9.56902e-07
2.17696e-06
3.89388e-06
3.95404e-06
2.20328e-06
-9.89399e-07
-4.56212e-06
-6.74282e-06
-6.23331e-06
-3.38922e-06
1.34055e-07
2.76937e-06
3.92368e-06
3.86219e-06
3.15745e-06
2.28487e-06
1.50339e-06
9.00651e-07
4.73414e-07
1.85633e-07
-2.1728e-09
-1.22328e-07
-1.98237e-07
-2.45811e-07
-2.75469e-07
-2.93896e-07
-3.05316e-07
-3.1238e-07
-3.16731e-07
-3.19389e-07
-3.20974e-07
-3.21861e-07
-3.22259e-07
-3.22261e-07
-3.21861e-07
-3.20975e-07
-3.19387e-07
-3.1673e-07
-3.12379e-07
-3.05318e-07
-2.93897e-07
-2.75469e-07
-2.45809e-07
-1.98234e-07
-1.22323e-07
-2.16897e-09
1.85635e-07
4.73413e-07
9.00651e-07
1.50339e-06
2.28487e-06
3.15745e-06
3.86219e-06
3.92368e-06
2.76937e-06
1.34057e-07
-3.38922e-06
-6.23331e-06
-6.74282e-06
-4.56212e-06
-9.89395e-07
2.20329e-06
3.95404e-06
4.008e-06
2.22452e-06
-1.02437e-06
-4.6558e-06
-6.8702e-06
-6.35129e-06
-3.45952e-06
1.25985e-07
2.81276e-06
3.99487e-06
3.9386e-06
3.22472e-06
2.33727e-06
1.54083e-06
9.25667e-07
4.89123e-07
1.948e-07
2.57284e-09
-1.20495e-07
-1.98293e-07
-2.47078e-07
-2.77508e-07
-2.96424e-07
-3.08154e-07
-3.15412e-07
-3.19884e-07
-3.22618e-07
-3.24249e-07
-3.25161e-07
-3.2557e-07
-3.25572e-07
-3.25162e-07
-3.24249e-07
-3.22616e-07
-3.19884e-07
-3.15411e-07
-3.08155e-07
-2.96425e-07
-2.77508e-07
-2.47076e-07
-1.9829e-07
-1.2049e-07
2.57666e-09
1.94803e-07
4.89123e-07
9.25666e-07
1.54083e-06
2.33727e-06
3.22472e-06
3.9386e-06
3.99487e-06
2.81276e-06
1.25987e-07
-3.45951e-06
-6.35129e-06
-6.8702e-06
-4.6558e-06
-1.02437e-06
2.22452e-06
4.00801e-06
4.05549e-06
2.24043e-06
-1.06191e-06
-4.74822e-06
-6.99361e-06
-6.46563e-06
-3.52898e-06
1.15825e-07
2.85276e-06
4.0631e-06
4.01329e-06
3.29153e-06
2.39005e-06
1.57911e-06
9.51701e-07
5.05881e-07
2.04978e-07
8.27561e-09
-1.17758e-07
-1.97487e-07
-2.47517e-07
-2.78742e-07
-2.98164e-07
-3.10214e-07
-3.17675e-07
-3.22274e-07
-3.25087e-07
-3.26765e-07
-3.27705e-07
-3.28126e-07
-3.28128e-07
-3.27705e-07
-3.26766e-07
-3.25085e-07
-3.22273e-07
-3.17674e-07
-3.10216e-07
-2.98165e-07
-2.78742e-07
-2.47515e-07
-1.97484e-07
-1.17753e-07
8.2794e-09
2.04981e-07
5.05881e-07
9.51701e-07
1.57911e-06
2.39005e-06
3.29153e-06
4.01329e-06
4.0631e-06
2.85276e-06
1.15827e-07
-3.52898e-06
-6.46563e-06
-6.99361e-06
-4.74822e-06
-1.06191e-06
2.24044e-06
4.05549e-06
4.09621e-06
2.25083e-06
-1.1021e-06
-4.83934e-06
-7.1129e-06
-6.57619e-06
-3.59755e-06
1.03522e-07
2.88926e-06
4.12824e-06
4.08617e-06
3.35781e-06
2.4432e-06
1.61825e-06
9.78788e-07
5.23726e-07
2.16212e-07
1.49787e-08
-1.14073e-07
-1.95778e-07
-2.47085e-07
-2.79131e-07
-2.99076e-07
-3.11459e-07
-3.1913e-07
-3.23862e-07
-3.26757e-07
-3.28486e-07
-3.29453e-07
-3.29888e-07
-3.29889e-07
-3.29454e-07
-3.28486e-07
-3.26755e-07
-3.23861e-07
-3.19129e-07
-3.11461e-07
-2.99077e-07
-2.79131e-07
-2.47083e-07
-1.95775e-07
-1.14068e-07
1.49825e-08
2.16215e-07
5.23726e-07
9.78788e-07
1.61825e-06
2.4432e-06
3.35781e-06
4.08617e-06
4.12824e-06
2.88926e-06
1.03524e-07
-3.59755e-06
-6.57619e-06
-7.1129e-06
-4.83934e-06
-1.1021e-06
2.25083e-06
4.09621e-06
4.1299e-06
2.2555e-06
-1.14501e-06
-4.92909e-06
-7.22794e-06
-6.68283e-06
-3.66517e-06
8.90364e-08
2.92214e-06
4.19015e-06
4.15711e-06
3.42349e-06
2.4967e-06
1.65825e-06
1.00695e-06
5.42698e-07
2.28542e-07
2.27256e-08
-1.09398e-07
-1.93123e-07
-2.45743e-07
-2.78634e-07
-2.99122e-07
-3.1185e-07
-3.1974e-07
-3.2461e-07
-3.27592e-07
-3.29372e-07
-3.3037e-07
-3.30818e-07
-3.30819e-07
-3.3037e-07
-3.29373e-07
-3.2759e-07
-3.24609e-07
-3.19739e-07
-3.11851e-07
-2.99123e-07
-2.78634e-07
-2.45741e-07
-1.9312e-07
-1.09393e-07
2.27293e-08
2.28544e-07
5.42698e-07
1.00695e-06
1.65825e-06
2.4967e-06
3.42349e-06
4.15712e-06
4.19015e-06
2.92214e-06
8.90385e-08
-3.66517e-06
-6.68283e-06
-7.22794e-06
-4.92909e-06
-1.145e-06
2.25551e-06
4.1299e-06
4.15629e-06
2.25427e-06
-1.1907e-06
-5.01743e-06
-7.33861e-06
-6.78542e-06
-3.73178e-06
7.23294e-08
2.95129e-06
4.24869e-06
4.22603e-06
3.48851e-06
2.55053e-06
1.69913e-06
1.03623e-06
5.62833e-07
2.4201e-07
3.15572e-08
-1.03692e-07
-1.89484e-07
-2.43452e-07
-2.77215e-07
-2.98263e-07
-3.1135e-07
-3.19468e-07
-3.24482e-07
-3.27554e-07
-3.2939e-07
-3.30419e-07
-3.3088e-07
-3.30882e-07
-3.30419e-07
-3.2939e-07
-3.27552e-07
-3.24482e-07
-3.19467e-07
-3.11351e-07
-2.98264e-07
-2.77215e-07
-2.4345e-07
-1.89481e-07
-1.03687e-07
3.15609e-08
2.42013e-07
5.62833e-07
1.03623e-06
1.69913e-06
2.55053e-06
3.48851e-06
4.22603e-06
4.24869e-06
2.95129e-06
7.23316e-08
-3.73178e-06
-6.78542e-06
-7.33861e-06
-5.01742e-06
-1.19069e-06
2.25427e-06
4.1563e-06
4.17515e-06
2.24695e-06
-1.23923e-06
-5.10429e-06
-7.44478e-06
-6.88385e-06
-3.79733e-06
5.33736e-08
2.97661e-06
4.30374e-06
4.29279e-06
3.5528e-06
2.60465e-06
1.74089e-06
1.06664e-06
5.84167e-07
2.56654e-07
4.15146e-08
-9.69155e-08
-1.8482e-07
-2.40173e-07
-2.74836e-07
-2.96464e-07
-3.09923e-07
-3.18279e-07
-3.23443e-07
-3.2661e-07
-3.28503e-07
-3.29565e-07
-3.30041e-07
-3.30043e-07
-3.29565e-07
-3.28503e-07
-3.26608e-07
-3.23443e-07
-3.18278e-07
-3.09924e-07
-2.96465e-07
-2.74836e-07
-2.40171e-07
-1.84817e-07
-9.69106e-08
4.15182e-08
2.56657e-07
5.84167e-07
1.06664e-06
1.74089e-06
2.60465e-06
3.5528e-06
4.29279e-06
4.30375e-06
2.97662e-06
5.33758e-08
-3.79733e-06
-6.88385e-06
-7.44478e-06
-5.10429e-06
-1.23923e-06
2.24696e-06
4.17515e-06
4.18623e-06
2.23339e-06
-1.29066e-06
-5.18962e-06
-7.54636e-06
-6.97802e-06
-3.86175e-06
3.21461e-08
2.99801e-06
4.35518e-06
4.3573e-06
3.61629e-06
2.65904e-06
1.78353e-06
1.0982e-06
6.06732e-07
2.72514e-07
5.2636e-08
-8.90293e-08
-1.79095e-07
-2.35871e-07
-2.71461e-07
-2.93689e-07
-3.07535e-07
-3.16138e-07
-3.2146e-07
-3.24725e-07
-3.26678e-07
-3.27774e-07
-3.28266e-07
-3.28268e-07
-3.27775e-07
-3.26679e-07
-3.24723e-07
-3.21459e-07
-3.16137e-07
-3.07536e-07
-2.93691e-07
-2.71461e-07
-2.35869e-07
-1.79092e-07
-8.90244e-08
5.26395e-08
2.72517e-07
6.06732e-07
1.0982e-06
1.78353e-06
2.65905e-06
3.61629e-06
4.3573e-06
4.35519e-06
2.99802e-06
3.21484e-08
-3.86175e-06
-6.97802e-06
-7.54636e-06
-5.18962e-06
-1.29065e-06
2.2334e-06
4.18623e-06
4.18931e-06
2.21344e-06
-1.34502e-06
-5.27339e-06
-7.64324e-06
-7.06781e-06
-3.92498e-06
8.63429e-09
3.01541e-06
4.40289e-06
4.41944e-06
3.6789e-06
2.71367e-06
1.82705e-06
1.13094e-06
6.30561e-07
2.89624e-07
6.49594e-08
-7.99968e-08
-1.72273e-07
-2.3051e-07
-2.67056e-07
-2.89906e-07
-3.04153e-07
-3.13013e-07
-3.18499e-07
-3.21867e-07
-3.23884e-07
-3.25016e-07
-3.25525e-07
-3.25526e-07
-3.25017e-07
-3.23884e-07
-3.21866e-07
-3.18499e-07
-3.13013e-07
-3.04154e-07
-2.89907e-07
-2.67056e-07
-2.30508e-07
-1.7227e-07
-7.99919e-08
6.49628e-08
2.89627e-07
6.30561e-07
1.13094e-06
1.82705e-06
2.71367e-06
3.6789e-06
4.41944e-06
4.40289e-06
3.01541e-06
8.63668e-09
-3.92498e-06
-7.06781e-06
-7.64323e-06
-5.27338e-06
-1.34501e-06
2.21344e-06
4.18931e-06
4.18418e-06
2.18695e-06
-1.40235e-06
-5.35553e-06
-7.73533e-06
-7.15314e-06
-3.98697e-06
-1.71694e-08
3.02872e-06
4.44675e-06
4.47911e-06
3.74056e-06
2.76849e-06
1.87144e-06
1.16487e-06
6.5568e-07
3.0802e-07
7.85197e-08
-6.97821e-08
-1.64318e-07
-2.24056e-07
-2.61589e-07
-2.85081e-07
-2.99745e-07
-3.08873e-07
-3.14531e-07
-3.18007e-07
-3.2009e-07
-3.2126e-07
-3.21786e-07
-3.21787e-07
-3.2126e-07
-3.2009e-07
-3.18005e-07
-3.1453e-07
-3.08873e-07
-2.99746e-07
-2.85083e-07
-2.61589e-07
-2.24054e-07
-1.64315e-07
-6.97772e-08
7.85231e-08
3.08022e-07
6.5568e-07
1.16487e-06
1.87144e-06
2.76849e-06
3.74056e-06
4.47911e-06
4.44675e-06
3.02872e-06
-1.71669e-08
-3.98697e-06
-7.15314e-06
-7.73533e-06
-5.35553e-06
-1.40234e-06
2.18696e-06
4.18418e-06
4.17065e-06
2.15381e-06
-1.46266e-06
-5.436e-06
-7.82256e-06
-7.23393e-06
-4.04766e-06
-4.5262e-08
3.03788e-06
4.48666e-06
4.53619e-06
3.80119e-06
2.82347e-06
1.9167e-06
1.2e-06
6.82117e-07
3.27731e-07
9.33518e-08
-5.83517e-08
-1.55197e-07
-2.16477e-07
-2.55028e-07
-2.79186e-07
-2.94281e-07
-3.03689e-07
-3.09525e-07
-3.13114e-07
-3.15267e-07
-3.16477e-07
-3.1702e-07
-3.17022e-07
-3.16477e-07
-3.15267e-07
-3.13113e-07
-3.09525e-07
-3.03689e-07
-2.94282e-07
-2.79187e-07
-2.55028e-07
-2.16475e-07
-1.55194e-07
-5.83468e-08
9.33551e-08
3.27734e-07
6.82118e-07
1.2e-06
1.9167e-06
2.82347e-06
3.80119e-06
4.53619e-06
4.48666e-06
3.03788e-06
-4.52595e-08
-4.04765e-06
-7.23393e-06
-7.82256e-06
-5.436e-06
-1.46266e-06
2.15382e-06
4.17065e-06
4.14854e-06
2.11391e-06
-1.52599e-06
-5.51477e-06
-7.90487e-06
-7.3101e-06
-4.10698e-06
-7.56351e-08
3.04283e-06
4.52251e-06
4.59057e-06
3.8607e-06
2.87855e-06
1.96282e-06
1.23635e-06
7.09896e-07
3.4879e-07
1.09487e-07
-4.56729e-08
-1.4488e-07
-2.07743e-07
-2.47343e-07
-2.7219e-07
-2.87734e-07
-2.97433e-07
-3.03455e-07
-3.07162e-07
-3.09388e-07
-3.10639e-07
-3.11202e-07
-3.11203e-07
-3.1064e-07
-3.09388e-07
-3.07161e-07
-3.03455e-07
-2.97432e-07
-2.87735e-07
-2.72191e-07
-2.47343e-07
-2.07741e-07
-1.44876e-07
-4.5668e-08
1.0949e-07
3.48793e-07
7.09896e-07
1.23635e-06
1.96281e-06
2.87855e-06
3.8607e-06
4.59058e-06
4.52251e-06
3.04284e-06
-7.56324e-08
-4.10698e-06
-7.3101e-06
-7.90487e-06
-5.51477e-06
-1.52598e-06
2.11392e-06
4.14854e-06
4.11769e-06
2.06716e-06
-1.59233e-06
-5.59178e-06
-7.9822e-06
-7.38159e-06
-4.16488e-06
-1.08269e-07
3.04354e-06
4.55421e-06
4.64216e-06
3.91901e-06
2.9337e-06
2.00977e-06
1.27392e-06
7.39037e-07
3.71223e-07
1.26956e-07
-3.17158e-08
-1.33335e-07
-1.97825e-07
-2.38507e-07
-2.64066e-07
-2.80077e-07
-2.90078e-07
-2.96295e-07
-3.00126e-07
-3.02428e-07
-3.03723e-07
-3.04305e-07
-3.04307e-07
-3.03723e-07
-3.02428e-07
-3.00124e-07
-2.96295e-07
-2.90077e-07
-2.80078e-07
-2.64067e-07
-2.38507e-07
-1.97823e-07
-1.33332e-07
-3.17109e-08
1.26959e-07
3.71226e-07
7.39037e-07
1.27392e-06
2.00977e-06
2.9337e-06
3.91901e-06
4.64216e-06
4.55421e-06
3.04354e-06
-1.08267e-07
-4.16487e-06
-7.38158e-06
-7.98219e-06
-5.59178e-06
-1.59232e-06
2.06717e-06
4.1177e-06
4.07797e-06
2.01349e-06
-1.66168e-06
-5.66701e-06
-8.05449e-06
-7.44834e-06
-4.22129e-06
-1.4314e-07
3.03995e-06
4.58167e-06
4.69085e-06
3.97603e-06
2.98885e-06
2.05754e-06
1.31272e-06
7.69558e-07
3.95057e-07
1.45786e-07
-1.64514e-08
-1.20536e-07
-1.86696e-07
-2.28493e-07
-2.5479e-07
-2.71284e-07
-2.816e-07
-2.88021e-07
-2.91981e-07
-2.94362e-07
-2.95704e-07
-2.96307e-07
-2.96308e-07
-2.95704e-07
-2.94362e-07
-2.9198e-07
-2.8802e-07
-2.816e-07
-2.71285e-07
-2.54791e-07
-2.28493e-07
-1.86693e-07
-1.20533e-07
-1.64465e-08
1.45789e-07
3.95059e-07
7.69559e-07
1.31272e-06
2.05754e-06
2.98885e-06
3.97603e-06
4.69085e-06
4.58167e-06
3.03995e-06
-1.43138e-07
-4.22129e-06
-7.44834e-06
-8.05449e-06
-5.667e-06
-1.66167e-06
2.01349e-06
4.07797e-06
4.02924e-06
1.95282e-06
-1.73403e-06
-5.7404e-06
-8.12174e-06
-7.51031e-06
-4.27617e-06
-1.80213e-07
3.03205e-06
4.6048e-06
4.73652e-06
4.03167e-06
3.04395e-06
2.1061e-06
1.35275e-06
8.01476e-07
4.20312e-07
1.66005e-07
1.46408e-10
-1.06456e-07
-1.7433e-07
-2.17278e-07
-2.44338e-07
-2.61334e-07
-2.71978e-07
-2.7861e-07
-2.82706e-07
-2.85171e-07
-2.8656e-07
-2.87186e-07
-2.87187e-07
-2.86561e-07
-2.85171e-07
-2.82704e-07
-2.7861e-07
-2.71977e-07
-2.61335e-07
-2.44339e-07
-2.17277e-07
-1.74328e-07
-1.06453e-07
1.51272e-10
1.66008e-07
4.20315e-07
8.01476e-07
1.35275e-06
2.1061e-06
3.04395e-06
4.03168e-06
4.73652e-06
4.6048e-06
3.03205e-06
-1.8021e-07
-4.27617e-06
-7.51031e-06
-8.12173e-06
-5.7404e-06
-1.73402e-06
1.95283e-06
4.02925e-06
3.97141e-06
1.88513e-06
-1.80936e-06
-5.81194e-06
-8.1839e-06
-7.56747e-06
-4.32945e-06
-2.19446e-07
3.01982e-06
4.62354e-06
4.77909e-06
4.08585e-06
3.09894e-06
2.15542e-06
1.394e-06
8.348e-07
4.47011e-07
1.87634e-07
1.81027e-08
-9.10718e-08
-1.60705e-07
-2.04838e-07
-2.32688e-07
-2.50206e-07
-2.6119e-07
-2.68044e-07
-2.72281e-07
-2.74833e-07
-2.76273e-07
-2.76922e-07
-2.76923e-07
-2.76274e-07
-2.74833e-07
-2.72279e-07
-2.68044e-07
-2.6119e-07
-2.50206e-07
-2.32689e-07
-2.04838e-07
-1.60703e-07
-9.10683e-08
1.81075e-08
1.87637e-07
4.47014e-07
8.348e-07
1.394e-06
2.15542e-06
3.09894e-06
4.08585e-06
4.77909e-06
4.62354e-06
3.01982e-06
-2.19443e-07
-4.32945e-06
-7.56747e-06
-8.1839e-06
-5.81194e-06
-1.80935e-06
1.88514e-06
3.97142e-06
3.90439e-06
1.81038e-06
-1.88764e-06
-5.88159e-06
-8.24098e-06
-7.61979e-06
-4.38109e-06
-2.60788e-07
3.00326e-06
4.63781e-06
4.81844e-06
4.13846e-06
3.15375e-06
2.20548e-06
1.43646e-06
8.69541e-07
4.7517e-07
2.10697e-07
3.74394e-08
-7.43601e-08
-1.45799e-07
-1.91154e-07
-2.1982e-07
-2.37879e-07
-2.49219e-07
-2.56303e-07
-2.60688e-07
-2.63332e-07
-2.64825e-07
-2.65498e-07
-2.65499e-07
-2.64826e-07
-2.63332e-07
-2.60687e-07
-2.56303e-07
-2.49218e-07
-2.3788e-07
-2.19821e-07
-1.91153e-07
-1.45797e-07
-7.43565e-08
3.74442e-08
2.107e-07
4.75173e-07
8.69542e-07
1.43646e-06
2.20548e-06
3.15375e-06
4.13846e-06
4.81845e-06
4.63781e-06
3.00326e-06
-2.60785e-07
-4.38108e-06
-7.61979e-06
-8.24097e-06
-5.88159e-06
-1.88764e-06
1.81039e-06
3.90439e-06
3.82812e-06
1.72857e-06
-1.96884e-06
-5.94933e-06
-8.29297e-06
-7.66727e-06
-4.43101e-06
-3.04182e-07
2.98237e-06
4.64756e-06
4.8545e-06
4.18942e-06
3.20831e-06
2.25622e-06
1.48013e-06
9.05703e-07
5.04805e-07
2.35211e-07
5.81774e-08
-5.63014e-08
-1.29593e-07
-1.76207e-07
-2.05718e-07
-2.24338e-07
-2.36047e-07
-2.43372e-07
-2.47911e-07
-2.50652e-07
-2.52201e-07
-2.52899e-07
-2.52899e-07
-2.52201e-07
-2.50652e-07
-2.4791e-07
-2.43372e-07
-2.36047e-07
-2.24338e-07
-2.05719e-07
-1.76206e-07
-1.29591e-07
-5.62977e-08
5.81822e-08
2.35214e-07
5.04808e-07
9.05704e-07
1.48013e-06
2.25622e-06
3.20831e-06
4.18942e-06
4.8545e-06
4.64756e-06
2.98237e-06
-3.04179e-07
-4.43101e-06
-7.66727e-06
-8.29297e-06
-5.94933e-06
-1.96883e-06
1.72858e-06
3.82812e-06
3.74255e-06
1.6397e-06
-2.0529e-06
-6.01513e-06
-8.33989e-06
-7.7099e-06
-4.47919e-06
-3.49563e-07
2.95717e-06
4.65273e-06
4.88714e-06
4.23861e-06
3.26255e-06
2.30761e-06
1.52498e-06
9.43289e-07
5.35926e-07
2.61194e-07
8.03342e-08
-3.68772e-08
-1.12069e-07
-1.5998e-07
-1.90365e-07
-2.09567e-07
-2.21661e-07
-2.29237e-07
-2.33937e-07
-2.36779e-07
-2.38386e-07
-2.39111e-07
-2.39111e-07
-2.38387e-07
-2.36779e-07
-2.33937e-07
-2.29237e-07
-2.21661e-07
-2.09568e-07
-1.90365e-07
-1.59979e-07
-1.12067e-07
-3.68734e-08
8.0339e-08
2.61197e-07
5.35929e-07
9.4329e-07
1.52498e-06
2.30761e-06
3.26255e-06
4.23862e-06
4.88714e-06
4.65273e-06
2.95718e-06
-3.4956e-07
-4.47918e-06
-7.7099e-06
-8.33989e-06
-6.01513e-06
-2.0529e-06
1.63971e-06
3.74255e-06
3.64767e-06
1.54381e-06
-2.13978e-06
-6.07897e-06
-8.38177e-06
-7.7477e-06
-4.52555e-06
-3.96857e-07
2.9277e-06
4.65329e-06
4.9163e-06
4.28595e-06
3.31638e-06
2.35961e-06
1.571e-06
9.82295e-07
5.68545e-07
2.88659e-07
1.03926e-07
-1.6072e-08
-9.32121e-08
-1.42459e-07
-1.73747e-07
-1.93554e-07
-2.06047e-07
-2.13886e-07
-2.18755e-07
-2.21702e-07
-2.2337e-07
-2.24122e-07
-2.24123e-07
-2.23371e-07
-2.21702e-07
-2.18754e-07
-2.13886e-07
-2.06047e-07
-1.93554e-07
-1.73748e-07
-1.42458e-07
-9.32096e-08
-1.60681e-08
1.03931e-07
2.88662e-07
5.68547e-07
9.82296e-07
1.571e-06
2.35961e-06
3.31638e-06
4.28596e-06
4.9163e-06
4.65329e-06
2.9277e-06
-3.96854e-07
-4.52555e-06
-7.7477e-06
-8.38177e-06
-6.07897e-06
-2.13978e-06
1.54382e-06
3.64767e-06
3.54348e-06
1.44094e-06
-2.22941e-06
-6.14085e-06
-8.41865e-06
-7.78067e-06
-4.57007e-06
-4.45984e-07
2.89399e-06
4.6492e-06
4.94188e-06
4.33134e-06
3.36973e-06
2.41215e-06
1.61816e-06
1.02272e-06
6.02664e-07
3.17619e-07
1.28967e-07
6.12863e-09
-7.3009e-08
-1.23632e-07
-1.55854e-07
-1.76287e-07
-1.89197e-07
-1.97308e-07
-2.02353e-07
-2.05411e-07
-2.07143e-07
-2.07925e-07
-2.07925e-07
-2.07144e-07
-2.05411e-07
-2.02353e-07
-1.97308e-07
-1.89196e-07
-1.76287e-07
-1.55854e-07
-1.23631e-07
-7.30064e-08
6.13258e-09
1.28972e-07
3.17621e-07
6.02667e-07
1.02272e-06
1.61816e-06
2.41215e-06
3.36973e-06
4.33134e-06
4.94188e-06
4.6492e-06
2.89399e-06
-4.45981e-07
-4.57007e-06
-7.78067e-06
-8.41865e-06
-6.14084e-06
-2.22941e-06
1.44094e-06
3.54348e-06
3.43001e-06
1.33114e-06
-2.32173e-06
-6.20074e-06
-8.45058e-06
-7.80887e-06
-4.61269e-06
-4.96858e-07
2.85609e-06
4.64044e-06
4.9638e-06
4.37467e-06
3.42251e-06
2.46518e-06
1.66643e-06
1.06455e-06
6.3829e-07
3.48081e-07
1.55468e-07
2.97359e-08
-5.14482e-08
-1.03488e-07
-1.36674e-07
-1.57758e-07
-1.711e-07
-1.79497e-07
-1.84726e-07
-1.87899e-07
-1.89698e-07
-1.90511e-07
-1.90512e-07
-1.89699e-07
-1.87899e-07
-1.84726e-07
-1.79496e-07
-1.711e-07
-1.57758e-07
-1.36675e-07
-1.03487e-07
-5.14455e-08
2.974e-08
1.55473e-07
3.48084e-07
6.38292e-07
1.06455e-06
1.66643e-06
2.46518e-06
3.42251e-06
4.37467e-06
4.96381e-06
4.64044e-06
2.8561e-06
-4.96855e-07
-4.61269e-06
-7.80886e-06
-8.45057e-06
-6.20074e-06
-2.32172e-06
1.33115e-06
3.43001e-06
3.30731e-06
1.21452e-06
-2.41665e-06
-6.25865e-06
-8.47762e-06
-7.83232e-06
-4.65337e-06
-5.49385e-07
2.81407e-06
4.62699e-06
4.98199e-06
4.41584e-06
3.47463e-06
2.51864e-06
1.71578e-06
1.10777e-06
6.75419e-07
3.80054e-07
1.83438e-07
5.476e-08
-2.85207e-08
-8.20181e-08
-1.16202e-07
-1.37959e-07
-1.51752e-07
-1.60445e-07
-1.65867e-07
-1.69161e-07
-1.71031e-07
-1.71876e-07
-1.71876e-07
-1.71032e-07
-1.69161e-07
-1.65867e-07
-1.60445e-07
-1.51751e-07
-1.37959e-07
-1.16203e-07
-8.20168e-08
-2.8518e-08
5.47641e-08
1.83443e-07
3.80056e-07
6.75421e-07
1.10777e-06
1.71578e-06
2.51864e-06
3.47463e-06
4.41584e-06
4.98199e-06
4.62699e-06
2.81408e-06
-5.49382e-07
-4.65337e-06
-7.83231e-06
-8.47761e-06
-6.25865e-06
-2.41664e-06
1.21452e-06
3.30731e-06
3.17546e-06
1.09115e-06
-2.51409e-06
-6.31457e-06
-8.49984e-06
-7.85108e-06
-4.69207e-06
-6.03467e-07
2.76801e-06
4.60886e-06
4.99636e-06
4.45474e-06
3.526e-06
2.57245e-06
1.76616e-06
1.15236e-06
7.14049e-07
4.13538e-07
2.12884e-07
8.12077e-08
-4.21921e-09
-5.92169e-08
-9.44313e-08
-1.16887e-07
-1.31147e-07
-1.4015e-07
-1.45773e-07
-1.49193e-07
-1.51137e-07
-1.52016e-07
-1.52017e-07
-1.51138e-07
-1.49194e-07
-1.45773e-07
-1.4015e-07
-1.31147e-07
-1.16887e-07
-9.44319e-08
-5.92155e-08
-4.21647e-09
8.1212e-08
2.12889e-07
4.13541e-07
7.14051e-07
1.15237e-06
1.76616e-06
2.57245e-06
3.526e-06
4.45474e-06
4.99636e-06
4.60886e-06
2.76801e-06
-6.03464e-07
-4.69207e-06
-7.85108e-06
-8.49984e-06
-6.31457e-06
-2.51408e-06
1.09115e-06
3.17546e-06
3.03455e-06
9.61161e-07
-2.61396e-06
-6.36851e-06
-8.51734e-06
-7.86522e-06
-4.72877e-06
-6.58996e-07
2.71799e-06
4.58605e-06
5.00685e-06
4.49129e-06
3.57651e-06
2.62656e-06
1.81754e-06
1.19832e-06
7.54172e-07
4.48537e-07
2.4381e-07
1.09085e-07
2.14611e-08
-3.50794e-08
-7.13581e-08
-9.45374e-08
-1.09284e-07
-1.18609e-07
-1.24443e-07
-1.27995e-07
-1.30017e-07
-1.30931e-07
-1.30932e-07
-1.30018e-07
-1.27996e-07
-1.24443e-07
-1.18609e-07
-1.09284e-07
-9.45373e-08
-7.13587e-08
-3.5078e-08
2.14639e-08
1.09089e-07
2.43814e-07
4.48539e-07
7.54174e-07
1.19832e-06
1.81754e-06
2.62656e-06
3.57651e-06
4.49129e-06
5.00685e-06
4.58605e-06
2.71799e-06
-6.58993e-07
-4.72876e-06
-7.86522e-06
-8.51733e-06
-6.3685e-06
-2.61395e-06
9.61167e-07
3.03455e-06
2.8847e-06
8.24688e-07
-2.71616e-06
-6.42047e-06
-8.5302e-06
-7.87482e-06
-4.76342e-06
-7.15866e-07
2.6641e-06
4.55857e-06
5.0134e-06
4.52536e-06
3.62607e-06
2.68087e-06
1.86986e-06
1.24559e-06
7.95778e-07
4.85047e-07
2.76218e-07
1.38395e-07
4.85237e-08
-9.60345e-09
-4.69809e-08
-7.09104e-08
-8.61624e-08
-9.58241e-08
-1.01877e-07
-1.05568e-07
-1.07671e-07
-1.08623e-07
-1.08623e-07
-1.07672e-07
-1.05569e-07
-1.01877e-07
-9.58242e-08
-8.61622e-08
-7.09102e-08
-4.69815e-08
-9.60201e-09
4.85265e-08
1.38399e-07
2.76222e-07
4.85049e-07
7.9578e-07
1.24559e-06
1.86986e-06
2.68087e-06
3.62607e-06
4.52537e-06
5.0134e-06
4.55857e-06
2.6641e-06
-7.15863e-07
-4.76341e-06
-7.87482e-06
-8.5302e-06
-6.42047e-06
-2.71615e-06
8.24694e-07
2.88471e-06
2.72608e-06
6.81883e-07
-2.82059e-06
-6.47048e-06
-8.53855e-06
-7.87996e-06
-4.796e-06
-7.73958e-07
2.60645e-06
4.52646e-06
5.01595e-06
4.55688e-06
3.67457e-06
2.73532e-06
1.92306e-06
1.29417e-06
8.38852e-07
5.23063e-07
3.10107e-07
1.69138e-07
7.69691e-08
1.72116e-08
-2.13003e-08
-4.60067e-08
-6.17842e-08
-7.17962e-08
-7.8078e-08
-8.19147e-08
-8.41023e-08
-8.5093e-08
-8.50935e-08
-8.4103e-08
-8.19158e-08
-7.80783e-08
-7.17962e-08
-6.17839e-08
-4.60065e-08
-2.13008e-08
1.7213e-08
7.69721e-08
1.69142e-07
3.10111e-07
5.23066e-07
8.38855e-07
1.29417e-06
1.92307e-06
2.73532e-06
3.67457e-06
4.55688e-06
5.01596e-06
4.52646e-06
2.60645e-06
-7.73955e-07
-4.79599e-06
-7.87995e-06
-8.53855e-06
-6.47047e-06
-2.82058e-06
6.81889e-07
2.72608e-06
2.55884e-06
5.32915e-07
-2.92714e-06
-6.51854e-06
-8.5425e-06
-7.88073e-06
-4.82649e-06
-8.33158e-07
2.54516e-06
4.48975e-06
5.01446e-06
4.58572e-06
3.72191e-06
2.7898e-06
1.97711e-06
1.34401e-06
8.83378e-07
5.62578e-07
3.45474e-07
2.01313e-07
1.06797e-07
4.5364e-08
5.68165e-09
-1.98296e-08
-3.61528e-08
-4.65297e-08
-5.3051e-08
-5.70395e-08
-5.93161e-08
-6.03479e-08
-6.03483e-08
-5.93169e-08
-5.70407e-08
-5.30514e-08
-4.65299e-08
-3.61524e-08
-1.98293e-08
5.68131e-09
4.53655e-08
1.068e-07
2.01317e-07
3.45478e-07
5.62581e-07
8.8338e-07
1.34401e-06
1.97711e-06
2.7898e-06
3.72191e-06
4.58572e-06
5.01447e-06
4.48975e-06
2.54516e-06
-8.33155e-07
-4.82648e-06
-7.88073e-06
-8.5425e-06
-6.51853e-06
-2.92714e-06
5.32921e-07
2.55885e-06
2.3832e-06
3.77972e-07
-3.0357e-06
-6.56468e-06
-8.54218e-06
-7.87725e-06
-4.85487e-06
-8.93339e-07
2.48035e-06
4.44849e-06
5.00888e-06
4.6118e-06
3.76797e-06
2.84424e-06
2.03191e-06
1.39507e-06
9.29333e-07
6.03582e-07
3.82315e-07
2.34917e-07
1.38004e-07
7.48507e-08
3.39607e-08
7.61629e-09
-9.27391e-09
-2.0031e-08
-2.68022e-08
-3.09496e-08
-3.33194e-08
-3.43942e-08
-3.43947e-08
-3.33202e-08
-3.09508e-08
-2.68026e-08
-2.00311e-08
-9.27349e-09
7.61669e-09
3.39605e-08
7.48522e-08
1.38007e-07
2.34922e-07
3.82319e-07
6.03584e-07
9.29335e-07
1.39507e-06
2.03191e-06
2.84424e-06
3.76797e-06
4.61181e-06
5.00888e-06
4.4485e-06
2.48036e-06
-8.93336e-07
-4.85487e-06
-7.87725e-06
-8.54218e-06
-6.56468e-06
-3.03569e-06
3.77978e-07
2.3832e-06
2.19937e-06
2.17256e-07
-3.14615e-06
-6.60894e-06
-8.53773e-06
-7.86963e-06
-4.88114e-06
-9.54381e-07
2.41217e-06
4.40275e-06
4.99918e-06
4.63503e-06
3.81265e-06
2.89853e-06
2.08742e-06
1.44731e-06
9.76692e-07
6.46059e-07
4.2062e-07
2.69945e-07
1.70586e-07
1.05666e-07
6.35312e-08
3.63241e-08
1.88452e-08
7.69215e-09
6.60046e-10
-3.65359e-09
-6.12113e-09
-7.24106e-09
-7.24155e-09
-6.12191e-09
-3.65486e-09
6.59511e-10
7.69196e-09
1.88457e-08
3.63246e-08
6.35312e-08
1.05668e-07
1.70589e-07
2.6995e-07
4.20624e-07
6.46061e-07
9.76694e-07
1.44731e-06
2.08742e-06
2.89853e-06
3.81265e-06
4.63503e-06
4.99918e-06
4.40275e-06
2.41218e-06
-9.54378e-07
-4.88113e-06
-7.86963e-06
-8.53773e-06
-6.60894e-06
-3.14614e-06
2.17263e-07
2.19937e-06
2.0076e-06
5.09889e-08
-3.25836e-06
-6.65135e-06
-8.52931e-06
-7.85801e-06
-4.90528e-06
-1.01615e-06
2.34076e-06
4.35259e-06
4.98533e-06
4.65529e-06
3.85584e-06
2.95257e-06
2.14355e-06
1.50068e-06
1.02543e-06
6.89994e-07
4.60381e-07
3.0639e-07
2.04535e-07
1.37804e-07
9.43853e-08
6.62856e-08
4.81952e-08
3.663e-08
2.93255e-08
2.4838e-08
2.22681e-08
2.11009e-08
2.11004e-08
2.22673e-08
2.48367e-08
2.93249e-08
3.66298e-08
4.81958e-08
6.62862e-08
9.43854e-08
1.37806e-07
2.04538e-07
3.06395e-07
4.60385e-07
6.89996e-07
1.02543e-06
1.50069e-06
2.14355e-06
2.95257e-06
3.85584e-06
4.6553e-06
4.98533e-06
4.35259e-06
2.34076e-06
-1.01615e-06
-4.90527e-06
-7.85801e-06
-8.5293e-06
-6.65135e-06
-3.25835e-06
5.09952e-08
2.0076e-06
1.80816e-06
-1.20596e-07
-3.37221e-06
-6.69195e-06
-8.51706e-06
-7.84251e-06
-4.92729e-06
-1.07853e-06
2.26626e-06
4.29809e-06
4.96731e-06
4.67252e-06
3.89741e-06
3.00626e-06
2.20022e-06
1.55514e-06
1.0755e-06
7.35366e-07
5.01584e-07
3.44241e-07
2.39843e-07
1.71255e-07
1.26514e-07
9.74905e-08
7.87656e-08
6.6771e-08
5.91823e-08
5.45129e-08
5.18359e-08
5.0619e-08
5.06185e-08
5.18351e-08
5.45116e-08
5.91816e-08
6.67708e-08
7.87662e-08
9.74912e-08
1.26514e-07
1.71257e-07
2.39847e-07
3.44246e-07
5.01587e-07
7.35368e-07
1.07551e-06
1.55514e-06
2.20022e-06
3.00626e-06
3.89741e-06
4.67252e-06
4.96731e-06
4.2981e-06
2.26626e-06
-1.07853e-06
-4.92729e-06
-7.84251e-06
-8.51706e-06
-6.69194e-06
-3.37221e-06
-1.20589e-07
1.80817e-06
1.60136e-06
-2.97247e-07
-3.48758e-06
-6.73078e-06
-8.50117e-06
-7.82329e-06
-4.94718e-06
-1.14138e-06
2.18884e-06
4.23936e-06
4.94511e-06
4.68662e-06
3.93725e-06
3.05949e-06
2.25735e-06
1.61061e-06
1.12689e-06
7.82153e-07
5.44213e-07
3.83487e-07
2.76501e-07
2.06009e-07
1.59905e-07
1.29927e-07
1.10544e-07
9.81023e-08
9.02168e-08
8.53573e-08
8.2568e-08
8.12992e-08
8.12986e-08
8.25672e-08
8.53561e-08
9.02161e-08
9.81021e-08
1.10544e-07
1.29928e-07
1.59906e-07
2.06011e-07
2.76504e-07
3.83492e-07
5.44217e-07
7.82155e-07
1.12689e-06
1.61061e-06
2.25736e-06
3.05949e-06
3.93725e-06
4.68662e-06
4.94511e-06
4.23936e-06
2.18884e-06
-1.14138e-06
-4.94718e-06
-7.82328e-06
-8.50117e-06
-6.73078e-06
-3.48757e-06
-2.97241e-07
1.60136e-06
1.3875e-06
-4.787e-07
-3.60432e-06
-6.7679e-06
-8.48181e-06
-7.80049e-06
-4.96496e-06
-1.20457e-06