/*--------------------------------*- C++ -*----------------------------------*\
| =========                 |                                                 |
| \\      /  F ield         | foam-extend: Open Source CFD                    |
|  \\    /   O peration     | Version:     4.0                                |
|   \\  /    A nd           | Web:         http://www.foam-extend.org         |
|    \\/     M anipulation  |                                                 |
\*---------------------------------------------------------------------------*/
FoamFile
{
    version     2.0;
    format      ascii;
    class       volScalarField;
    location    "5";
    object      p;
}
// * * * * * * * * * * * * * * * * * * * * * * * * * * * * * * * * * * * * * //

dimensions      [0 2 -2 0 0 0 0];

internalField   nonuniform List<scalar> 
6960
(
8.89517e-19
-1.78258e-09
-1.7299e-09
-1.76123e-09
-1.74169e-09
-1.76452e-09
-1.75165e-09
-1.75435e-09
-1.7459e-09
-1.74425e-09
-1.74177e-09
-1.74365e-09
-1.74819e-09
-1.7547e-09
-1.76248e-09
-1.769e-09
-1.77384e-09
-1.77517e-09
-1.77358e-09
-1.76899e-09
-1.76307e-09
-1.75693e-09
-1.75227e-09
-1.74987e-09
-1.75019e-09
-1.75276e-09
-1.75663e-09
-1.76044e-09
-1.76287e-09
-1.7629e-09
-1.76002e-09
-1.75444e-09
-1.7468e-09
-1.73835e-09
-1.73014e-09
-1.72369e-09
-1.71934e-09
-1.71812e-09
-1.71887e-09
-1.72196e-09
-1.72459e-09
-1.72699e-09
-1.72541e-09
-1.72111e-09
-1.71096e-09
-1.69822e-09
-1.68211e-09
-1.66708e-09
-1.65528e-09
-1.64861e-09
-1.65094e-09
-1.65716e-09
-1.67041e-09
-1.68025e-09
-1.68564e-09
-1.68431e-09
-1.66734e-09
-1.65675e-09
-1.62693e-09
-1.6405e-09
-2.0156e-09
-1.79337e-09
-1.72968e-09
-1.75111e-09
-1.72082e-09
-1.73764e-09
-1.72473e-09
-1.7324e-09
-1.73249e-09
-1.74084e-09
-1.74725e-09
-1.75497e-09
-1.76099e-09
-1.76449e-09
-1.76562e-09
-1.76359e-09
-1.76007e-09
-1.75521e-09
-1.75098e-09
-1.7478e-09
-1.74681e-09
-1.74776e-09
-1.7505e-09
-1.75403e-09
-1.75746e-09
-1.75977e-09
-1.76037e-09
-1.75899e-09
-1.75583e-09
-1.75139e-09
-1.74626e-09
-1.74111e-09
-1.73629e-09
-1.73223e-09
-1.72879e-09
-1.72634e-09
-1.72438e-09
-1.72356e-09
-1.72283e-09
-1.72308e-09
-1.72223e-09
-1.72122e-09
-1.717e-09
-1.71109e-09
-1.70089e-09
-1.68933e-09
-1.67615e-09
-1.6648e-09
-1.65807e-09
-1.65589e-09
-1.6629e-09
-1.67111e-09
-1.68532e-09
-1.69212e-09
-1.69447e-09
-1.68749e-09
-1.66881e-09
-1.6566e-09
-1.629e-09
-1.64447e-09
-2.64428e-09
-1.80796e-09
-1.74024e-09
-1.75606e-09
-1.71556e-09
-1.72503e-09
-1.70811e-09
-1.71567e-09
-1.71903e-09
-1.73323e-09
-1.74626e-09
-1.75983e-09
-1.7695e-09
-1.77373e-09
-1.77262e-09
-1.76606e-09
-1.75691e-09
-1.74673e-09
-1.73876e-09
-1.73426e-09
-1.73456e-09
-1.73897e-09
-1.74638e-09
-1.75455e-09
-1.76145e-09
-1.76528e-09
-1.7652e-09
-1.7613e-09
-1.75458e-09
-1.74659e-09
-1.73892e-09
-1.7329e-09
-1.72909e-09
-1.7276e-09
-1.72756e-09
-1.72845e-09
-1.72885e-09
-1.72884e-09
-1.72718e-09
-1.725e-09
-1.72085e-09
-1.71652e-09
-1.7098e-09
-1.70286e-09
-1.69337e-09
-1.68408e-09
-1.67434e-09
-1.66661e-09
-1.66316e-09
-1.66276e-09
-1.67033e-09
-1.67717e-09
-1.68965e-09
-1.69408e-09
-1.69562e-09
-1.68882e-09
-1.67181e-09
-1.6624e-09
-1.63491e-09
-1.64921e-09
-1.94726e-09
-1.80975e-09
-1.73984e-09
-1.75475e-09
-1.71296e-09
-1.722e-09
-1.70548e-09
-1.714e-09
-1.71852e-09
-1.73394e-09
-1.74797e-09
-1.7622e-09
-1.77203e-09
-1.77593e-09
-1.774e-09
-1.76626e-09
-1.75576e-09
-1.74433e-09
-1.73545e-09
-1.73061e-09
-1.73121e-09
-1.73653e-09
-1.74522e-09
-1.75477e-09
-1.76282e-09
-1.76727e-09
-1.76717e-09
-1.76262e-09
-1.75481e-09
-1.74557e-09
-1.7368e-09
-1.73011e-09
-1.72617e-09
-1.7251e-09
-1.72589e-09
-1.72778e-09
-1.72912e-09
-1.72978e-09
-1.72838e-09
-1.72606e-09
-1.72142e-09
-1.71639e-09
-1.70889e-09
-1.70123e-09
-1.6912e-09
-1.68159e-09
-1.67183e-09
-1.66434e-09
-1.66144e-09
-1.66176e-09
-1.67029e-09
-1.67801e-09
-1.69136e-09
-1.69629e-09
-1.69799e-09
-1.69105e-09
-1.67338e-09
-1.66372e-09
-1.63573e-09
-1.65004e-09
-1.72983e-09
-1.81067e-09
-1.73662e-09
-1.75114e-09
-1.70937e-09
-1.71919e-09
-1.7043e-09
-1.71453e-09
-1.72042e-09
-1.73665e-09
-1.75092e-09
-1.76485e-09
-1.77405e-09
-1.77713e-09
-1.77434e-09
-1.7658e-09
-1.75463e-09
-1.7427e-09
-1.73355e-09
-1.72868e-09
-1.72955e-09
-1.73538e-09
-1.74479e-09
-1.75511e-09
-1.76381e-09
-1.76868e-09
-1.76861e-09
-1.76372e-09
-1.75524e-09
-1.74517e-09
-1.73561e-09
-1.72834e-09
-1.72415e-09
-1.72321e-09
-1.72444e-09
-1.72696e-09
-1.72896e-09
-1.73017e-09
-1.72907e-09
-1.72679e-09
-1.72192e-09
-1.71648e-09
-1.70846e-09
-1.70027e-09
-1.68976e-09
-1.67979e-09
-1.66982e-09
-1.66228e-09
-1.65956e-09
-1.66023e-09
-1.66933e-09
-1.67772e-09
-1.69178e-09
-1.69732e-09
-1.69932e-09
-1.69247e-09
-1.67432e-09
-1.66442e-09
-1.63597e-09
-1.65086e-09
-1.70455e-09
-1.81383e-09
-1.7388e-09
-1.75259e-09
-1.7091e-09
-1.71738e-09
-1.70141e-09
-1.71119e-09
-1.71726e-09
-1.73422e-09
-1.74958e-09
-1.76473e-09
-1.77499e-09
-1.77877e-09
-1.7762e-09
-1.76737e-09
-1.75547e-09
-1.74254e-09
-1.73235e-09
-1.72663e-09
-1.72701e-09
-1.73282e-09
-1.74264e-09
-1.7537e-09
-1.76328e-09
-1.76892e-09
-1.76937e-09
-1.7646e-09
-1.75588e-09
-1.74529e-09
-1.73511e-09
-1.72728e-09
-1.72277e-09
-1.72181e-09
-1.7233e-09
-1.72628e-09
-1.72877e-09
-1.73037e-09
-1.72945e-09
-1.72711e-09
-1.72198e-09
-1.71617e-09
-1.70777e-09
-1.69931e-09
-1.68865e-09
-1.67869e-09
-1.66877e-09
-1.66133e-09
-1.65864e-09
-1.65935e-09
-1.66849e-09
-1.67703e-09
-1.69142e-09
-1.69743e-09
-1.69996e-09
-1.69357e-09
-1.67543e-09
-1.66533e-09
-1.63665e-09
-1.65123e-09
-1.71431e-09
-1.81716e-09
-1.74361e-09
-1.75686e-09
-1.71127e-09
-1.7172e-09
-1.69886e-09
-1.70696e-09
-1.71228e-09
-1.72957e-09
-1.74611e-09
-1.76297e-09
-1.77503e-09
-1.7803e-09
-1.7786e-09
-1.76988e-09
-1.75738e-09
-1.74332e-09
-1.73178e-09
-1.7248e-09
-1.72428e-09
-1.72974e-09
-1.73977e-09
-1.75151e-09
-1.76202e-09
-1.76862e-09
-1.76981e-09
-1.76543e-09
-1.75669e-09
-1.74575e-09
-1.73501e-09
-1.72663e-09
-1.72171e-09
-1.72058e-09
-1.72217e-09
-1.72544e-09
-1.72831e-09
-1.73026e-09
-1.72956e-09
-1.72728e-09
-1.72206e-09
-1.7161e-09
-1.70753e-09
-1.69897e-09
-1.68823e-09
-1.67823e-09
-1.66818e-09
-1.66058e-09
-1.65759e-09
-1.65809e-09
-1.66709e-09
-1.67586e-09
-1.69074e-09
-1.69762e-09
-1.70095e-09
-1.69535e-09
-1.67708e-09
-1.66668e-09
-1.6375e-09
-1.65118e-09
-1.71305e-09
-1.81957e-09
-1.74706e-09
-1.76013e-09
-1.71315e-09
-1.71746e-09
-1.69741e-09
-1.7042e-09
-1.70884e-09
-1.7262e-09
-1.74347e-09
-1.76151e-09
-1.77491e-09
-1.78138e-09
-1.78045e-09
-1.77195e-09
-1.75907e-09
-1.74418e-09
-1.73153e-09
-1.72346e-09
-1.72212e-09
-1.72717e-09
-1.73731e-09
-1.74958e-09
-1.76091e-09
-1.76837e-09
-1.77027e-09
-1.76628e-09
-1.75756e-09
-1.7463e-09
-1.73504e-09
-1.72609e-09
-1.72071e-09
-1.71935e-09
-1.72095e-09
-1.72446e-09
-1.72768e-09
-1.72999e-09
-1.72958e-09
-1.72749e-09
-1.72233e-09
-1.71637e-09
-1.70772e-09
-1.69909e-09
-1.68819e-09
-1.67802e-09
-1.66761e-09
-1.65963e-09
-1.65614e-09
-1.65634e-09
-1.66518e-09
-1.67432e-09
-1.68985e-09
-1.69789e-09
-1.70211e-09
-1.69745e-09
-1.67889e-09
-1.66819e-09
-1.63823e-09
-1.65116e-09
-1.70981e-09
-1.82174e-09
-1.74955e-09
-1.76256e-09
-1.71452e-09
-1.71761e-09
-1.69631e-09
-1.70214e-09
-1.70626e-09
-1.72364e-09
-1.74143e-09
-1.76037e-09
-1.77483e-09
-1.78227e-09
-1.78201e-09
-1.77373e-09
-1.76059e-09
-1.745e-09
-1.73141e-09
-1.72236e-09
-1.72023e-09
-1.72489e-09
-1.73507e-09
-1.7478e-09
-1.75986e-09
-1.76814e-09
-1.77073e-09
-1.76714e-09
-1.75846e-09
-1.7469e-09
-1.73512e-09
-1.72559e-09
-1.71974e-09
-1.71811e-09
-1.7197e-09
-1.72342e-09
-1.72698e-09
-1.72967e-09
-1.72957e-09
-1.72769e-09
-1.72262e-09
-1.71667e-09
-1.70798e-09
-1.6993e-09
-1.68826e-09
-1.6779e-09
-1.66711e-09
-1.65872e-09
-1.65465e-09
-1.65447e-09
-1.66307e-09
-1.67254e-09
-1.68867e-09
-1.69792e-09
-1.70307e-09
-1.69949e-09
-1.68068e-09
-1.66979e-09
-1.63895e-09
-1.65128e-09
-1.71039e-09
-1.82401e-09
-1.75222e-09
-1.76521e-09
-1.71609e-09
-1.71792e-09
-1.69529e-09
-1.70007e-09
-1.70357e-09
-1.72092e-09
-1.73921e-09
-1.75906e-09
-1.77462e-09
-1.7831e-09
-1.7836e-09
-1.77563e-09
-1.76227e-09
-1.74601e-09
-1.73146e-09
-1.72138e-09
-1.7184e-09
-1.72257e-09
-1.73272e-09
-1.74588e-09
-1.75868e-09
-1.7678e-09
-1.77113e-09
-1.76801e-09
-1.75942e-09
-1.74761e-09
-1.73532e-09
-1.7252e-09
-1.71884e-09
-1.7169e-09
-1.71844e-09
-1.72234e-09
-1.72623e-09
-1.72928e-09
-1.7295e-09
-1.72784e-09
-1.72287e-09
-1.71698e-09
-1.70828e-09
-1.6996e-09
-1.68846e-09
-1.67796e-09
-1.6668e-09
-1.65795e-09
-1.65323e-09
-1.65257e-09
-1.66078e-09
-1.67048e-09
-1.68717e-09
-1.69767e-09
-1.70386e-09
-1.70152e-09
-1.68258e-09
-1.67161e-09
-1.63979e-09
-1.65144e-09
-1.71218e-09
-1.82631e-09
-1.75523e-09
-1.76829e-09
-1.71808e-09
-1.71857e-09
-1.69446e-09
-1.69799e-09
-1.70073e-09
-1.71793e-09
-1.73667e-09
-1.75745e-09
-1.7742e-09
-1.78384e-09
-1.78523e-09
-1.77768e-09
-1.76419e-09
-1.74729e-09
-1.73175e-09
-1.72057e-09
-1.71663e-09
-1.7202e-09
-1.73025e-09
-1.74377e-09
-1.7573e-09
-1.76731e-09
-1.77145e-09
-1.76887e-09
-1.76045e-09
-1.74844e-09
-1.73567e-09
-1.72494e-09
-1.71802e-09
-1.71573e-09
-1.71716e-09
-1.72119e-09
-1.72538e-09
-1.72879e-09
-1.72934e-09
-1.72793e-09
-1.72311e-09
-1.71733e-09
-1.70868e-09
-1.70004e-09
-1.68886e-09
-1.67823e-09
-1.66669e-09
-1.65734e-09
-1.65185e-09
-1.65059e-09
-1.65828e-09
-1.66814e-09
-1.68535e-09
-1.69718e-09
-1.70451e-09
-1.70362e-09
-1.68462e-09
-1.67367e-09
-1.64075e-09
-1.65161e-09
-1.71349e-09
-1.82859e-09
-1.75845e-09
-1.7717e-09
-1.72043e-09
-1.71958e-09
-1.69387e-09
-1.69603e-09
-1.69785e-09
-1.71477e-09
-1.73389e-09
-1.75559e-09
-1.77356e-09
-1.78445e-09
-1.78685e-09
-1.77983e-09
-1.7663e-09
-1.74882e-09
-1.73228e-09
-1.71995e-09
-1.71497e-09
-1.71784e-09
-1.72768e-09
-1.74151e-09
-1.75574e-09
-1.76666e-09
-1.77168e-09
-1.76972e-09
-1.76155e-09
-1.74938e-09
-1.73615e-09
-1.72481e-09
-1.71731e-09
-1.71459e-09
-1.71586e-09
-1.71998e-09
-1.72444e-09
-1.72821e-09
-1.72909e-09
-1.72796e-09
-1.72334e-09
-1.71771e-09
-1.70916e-09
-1.70063e-09
-1.68944e-09
-1.67872e-09
-1.66677e-09
-1.65686e-09
-1.6505e-09
-1.64853e-09
-1.65558e-09
-1.66551e-09
-1.6832e-09
-1.69642e-09
-1.70499e-09
-1.70574e-09
-1.68678e-09
-1.67596e-09
-1.64181e-09
-1.65179e-09
-1.71425e-09
-1.8308e-09
-1.76182e-09
-1.77537e-09
-1.72313e-09
-1.72094e-09
-1.69358e-09
-1.69424e-09
-1.69501e-09
-1.71152e-09
-1.73092e-09
-1.75348e-09
-1.77269e-09
-1.78491e-09
-1.78842e-09
-1.78206e-09
-1.7686e-09
-1.75058e-09
-1.73307e-09
-1.71955e-09
-1.71344e-09
-1.71552e-09
-1.72505e-09
-1.73911e-09
-1.75402e-09
-1.76586e-09
-1.7718e-09
-1.77054e-09
-1.76269e-09
-1.75044e-09
-1.73678e-09
-1.72482e-09
-1.71669e-09
-1.71351e-09
-1.71455e-09
-1.71871e-09
-1.7234e-09
-1.72751e-09
-1.72875e-09
-1.72793e-09
-1.72354e-09
-1.71811e-09
-1.70972e-09
-1.70135e-09
-1.69018e-09
-1.67939e-09
-1.66702e-09
-1.65653e-09
-1.6492e-09
-1.64642e-09
-1.65268e-09
-1.66262e-09
-1.68071e-09
-1.69539e-09
-1.70527e-09
-1.70785e-09
-1.68903e-09
-1.67849e-09
-1.64298e-09
-1.65199e-09
-1.71461e-09
-1.83293e-09
-1.76529e-09
-1.77927e-09
-1.72615e-09
-1.72268e-09
-1.6936e-09
-1.69267e-09
-1.69224e-09
-1.7082e-09
-1.72777e-09
-1.75114e-09
-1.77159e-09
-1.78519e-09
-1.78992e-09
-1.78433e-09
-1.77105e-09
-1.75259e-09
-1.73413e-09
-1.71939e-09
-1.71209e-09
-1.71326e-09
-1.72238e-09
-1.73658e-09
-1.75212e-09
-1.76489e-09
-1.7718e-09
-1.77131e-09
-1.76388e-09
-1.75159e-09
-1.73754e-09
-1.72496e-09
-1.71618e-09
-1.71247e-09
-1.71324e-09
-1.71738e-09
-1.72228e-09
-1.72672e-09
-1.72832e-09
-1.72784e-09
-1.72372e-09
-1.71854e-09
-1.71035e-09
-1.7022e-09
-1.69109e-09
-1.68026e-09
-1.66746e-09
-1.65634e-09
-1.64797e-09
-1.64428e-09
-1.64961e-09
-1.65946e-09
-1.67789e-09
-1.69406e-09
-1.70533e-09
-1.70992e-09
-1.69134e-09
-1.68123e-09
-1.64426e-09
-1.65221e-09
-1.71462e-09
-1.83494e-09
-1.76883e-09
-1.78338e-09
-1.72949e-09
-1.72479e-09
-1.69397e-09
-1.69134e-09
-1.68959e-09
-1.70485e-09
-1.72446e-09
-1.74856e-09
-1.77024e-09
-1.78528e-09
-1.79132e-09
-1.78662e-09
-1.77364e-09
-1.75483e-09
-1.73546e-09
-1.71948e-09
-1.71092e-09
-1.71109e-09
-1.71969e-09
-1.73395e-09
-1.75006e-09
-1.76375e-09
-1.77167e-09
-1.77203e-09
-1.76508e-09
-1.75285e-09
-1.73844e-09
-1.72525e-09
-1.71579e-09
-1.71151e-09
-1.71193e-09
-1.716e-09
-1.72107e-09
-1.72583e-09
-1.72779e-09
-1.72767e-09
-1.72387e-09
-1.71899e-09
-1.71105e-09
-1.70316e-09
-1.69216e-09
-1.68131e-09
-1.66809e-09
-1.65633e-09
-1.64683e-09
-1.64213e-09
-1.6464e-09
-1.65606e-09
-1.67473e-09
-1.69241e-09
-1.70513e-09
-1.71191e-09
-1.69369e-09
-1.68419e-09
-1.64564e-09
-1.65247e-09
-1.71429e-09
-1.83681e-09
-1.77242e-09
-1.78768e-09
-1.73315e-09
-1.72729e-09
-1.6947e-09
-1.69029e-09
-1.68708e-09
-1.70149e-09
-1.72101e-09
-1.74576e-09
-1.76865e-09
-1.78515e-09
-1.79259e-09
-1.78892e-09
-1.77636e-09
-1.75729e-09
-1.73707e-09
-1.71985e-09
-1.70996e-09
-1.70903e-09
-1.717e-09
-1.73121e-09
-1.74784e-09
-1.76244e-09
-1.7714e-09
-1.77268e-09
-1.7663e-09
-1.75419e-09
-1.73949e-09
-1.7257e-09
-1.71553e-09
-1.71062e-09
-1.71065e-09
-1.71459e-09
-1.71977e-09
-1.72483e-09
-1.72717e-09
-1.72743e-09
-1.72397e-09
-1.71943e-09
-1.7118e-09
-1.70422e-09
-1.69337e-09
-1.68256e-09
-1.66892e-09
-1.6565e-09
-1.64582e-09
-1.64002e-09
-1.64309e-09
-1.65244e-09
-1.67124e-09
-1.69043e-09
-1.70463e-09
-1.71378e-09
-1.69605e-09
-1.68735e-09
-1.64714e-09
-1.65276e-09
-1.71361e-09
-1.8385e-09
-1.77603e-09
-1.79213e-09
-1.73711e-09
-1.73018e-09
-1.69583e-09
-1.68955e-09
-1.68474e-09
-1.69815e-09
-1.71745e-09
-1.74273e-09
-1.76678e-09
-1.78478e-09
-1.79371e-09
-1.79118e-09
-1.77918e-09
-1.75997e-09
-1.73897e-09
-1.72052e-09
-1.70925e-09
-1.70711e-09
-1.71433e-09
-1.7284e-09
-1.74546e-09
-1.76094e-09
-1.77097e-09
-1.77323e-09
-1.76751e-09
-1.75561e-09
-1.74066e-09
-1.7263e-09
-1.71541e-09
-1.70983e-09
-1.70939e-09
-1.71314e-09
-1.7184e-09
-1.72373e-09
-1.72644e-09
-1.7271e-09
-1.72403e-09
-1.71987e-09
-1.71258e-09
-1.70537e-09
-1.69472e-09
-1.68398e-09
-1.66995e-09
-1.65688e-09
-1.64494e-09
-1.63797e-09
-1.6397e-09
-1.64863e-09
-1.66744e-09
-1.68811e-09
-1.70382e-09
-1.7155e-09
-1.6984e-09
-1.69071e-09
-1.64875e-09
-1.65309e-09
-1.71261e-09
-1.83999e-09
-1.7796e-09
-1.79671e-09
-1.74136e-09
-1.73348e-09
-1.69736e-09
-1.68916e-09
-1.68264e-09
-1.69488e-09
-1.7138e-09
-1.7395e-09
-1.76465e-09
-1.78415e-09
-1.79465e-09
-1.79338e-09
-1.78208e-09
-1.76285e-09
-1.74114e-09
-1.72148e-09
-1.70879e-09
-1.70537e-09
-1.71172e-09
-1.72552e-09
-1.74294e-09
-1.75926e-09
-1.77038e-09
-1.77367e-09
-1.7687e-09
-1.75709e-09
-1.74197e-09
-1.72706e-09
-1.71543e-09
-1.70915e-09
-1.70818e-09
-1.71167e-09
-1.71696e-09
-1.72253e-09
-1.72561e-09
-1.72669e-09
-1.72402e-09
-1.72029e-09
-1.7134e-09
-1.70659e-09
-1.6962e-09
-1.68558e-09
-1.67119e-09
-1.65747e-09
-1.64425e-09
-1.63602e-09
-1.63627e-09
-1.64465e-09
-1.66332e-09
-1.68543e-09
-1.70266e-09
-1.71701e-09
-1.70069e-09
-1.69424e-09
-1.65047e-09
-1.65346e-09
-1.71129e-09
-1.84125e-09
-1.7831e-09
-1.80137e-09
-1.74587e-09
-1.73717e-09
-1.69933e-09
-1.68916e-09
-1.68079e-09
-1.69172e-09
-1.71008e-09
-1.73607e-09
-1.76225e-09
-1.78325e-09
-1.79538e-09
-1.7955e-09
-1.78503e-09
-1.76592e-09
-1.7436e-09
-1.72276e-09
-1.70863e-09
-1.70383e-09
-1.70919e-09
-1.7226e-09
-1.74028e-09
-1.75739e-09
-1.7696e-09
-1.77399e-09
-1.76984e-09
-1.75862e-09
-1.74339e-09
-1.72797e-09
-1.71562e-09
-1.70858e-09
-1.70702e-09
-1.7102e-09
-1.71546e-09
-1.72124e-09
-1.72467e-09
-1.72618e-09
-1.72395e-09
-1.72068e-09
-1.71422e-09
-1.70788e-09
-1.69779e-09
-1.68735e-09
-1.67264e-09
-1.6583e-09
-1.64375e-09
-1.63421e-09
-1.63285e-09
-1.64054e-09
-1.65891e-09
-1.68238e-09
-1.70111e-09
-1.71827e-09
-1.70288e-09
-1.69792e-09
-1.65229e-09
-1.65389e-09
-1.70969e-09
-1.84223e-09
-1.78649e-09
-1.80607e-09
-1.75063e-09
-1.74126e-09
-1.70174e-09
-1.68956e-09
-1.67925e-09
-1.6887e-09
-1.70634e-09
-1.73247e-09
-1.75959e-09
-1.78206e-09
-1.79587e-09
-1.79748e-09
-1.78801e-09
-1.76915e-09
-1.74633e-09
-1.72437e-09
-1.70877e-09
-1.70252e-09
-1.70678e-09
-1.71967e-09
-1.7375e-09
-1.75533e-09
-1.76863e-09
-1.77416e-09
-1.77092e-09
-1.76017e-09
-1.74493e-09
-1.72905e-09
-1.71597e-09
-1.70814e-09
-1.70594e-09
-1.70874e-09
-1.71392e-09
-1.71986e-09
-1.72363e-09
-1.72557e-09
-1.7238e-09
-1.72102e-09
-1.71503e-09
-1.7092e-09
-1.69947e-09
-1.68928e-09
-1.67429e-09
-1.65938e-09
-1.64349e-09
-1.63259e-09
-1.62948e-09
-1.63634e-09
-1.65423e-09
-1.67896e-09
-1.69915e-09
-1.71924e-09
-1.70494e-09
-1.70173e-09
-1.65421e-09
-1.65437e-09
-1.70783e-09
-1.84292e-09
-1.78972e-09
-1.81077e-09
-1.75559e-09
-1.74573e-09
-1.7046e-09
-1.69041e-09
-1.67806e-09
-1.68587e-09
-1.70262e-09
-1.72872e-09
-1.75666e-09
-1.78057e-09
-1.7961e-09
-1.79931e-09
-1.79096e-09
-1.77252e-09
-1.74932e-09
-1.72631e-09
-1.70924e-09
-1.70147e-09
-1.70452e-09
-1.71675e-09
-1.73461e-09
-1.7531e-09
-1.76746e-09
-1.77416e-09
-1.77191e-09
-1.76174e-09
-1.74656e-09
-1.73028e-09
-1.71648e-09
-1.70785e-09
-1.70496e-09
-1.7073e-09
-1.71233e-09
-1.7184e-09
-1.72249e-09
-1.72486e-09
-1.72355e-09
-1.7213e-09
-1.71581e-09
-1.71055e-09
-1.70123e-09
-1.69135e-09
-1.67615e-09
-1.66071e-09
-1.6435e-09
-1.63119e-09
-1.62621e-09
-1.63209e-09
-1.6493e-09
-1.67518e-09
-1.69676e-09
-1.71988e-09
-1.70681e-09
-1.70564e-09
-1.65622e-09
-1.65491e-09
-1.70574e-09
-1.84328e-09
-1.79273e-09
-1.81539e-09
-1.76072e-09
-1.75056e-09
-1.70793e-09
-1.69174e-09
-1.67726e-09
-1.68328e-09
-1.69895e-09
-1.72485e-09
-1.75348e-09
-1.77877e-09
-1.79604e-09
-1.80094e-09
-1.79387e-09
-1.77599e-09
-1.75256e-09
-1.72858e-09
-1.71007e-09
-1.70072e-09
-1.70244e-09
-1.71388e-09
-1.73165e-09
-1.7507e-09
-1.76608e-09
-1.77399e-09
-1.7728e-09
-1.7633e-09
-1.74827e-09
-1.73165e-09
-1.71718e-09
-1.70772e-09
-1.70408e-09
-1.70591e-09
-1.71073e-09
-1.71687e-09
-1.72125e-09
-1.72404e-09
-1.72322e-09
-1.72149e-09
-1.71655e-09
-1.71188e-09
-1.70303e-09
-1.69354e-09
-1.67821e-09
-1.66231e-09
-1.6438e-09
-1.63007e-09
-1.6231e-09
-1.62785e-09
-1.64416e-09
-1.67104e-09
-1.6939e-09
-1.72012e-09
-1.70846e-09
-1.70961e-09
-1.65831e-09
-1.65552e-09
-1.70346e-09
-1.84328e-09
-1.79548e-09
-1.8199e-09
-1.76598e-09
-1.75572e-09
-1.71171e-09
-1.69355e-09
-1.67688e-09
-1.68098e-09
-1.69538e-09
-1.7209e-09
-1.75007e-09
-1.77665e-09
-1.79566e-09
-1.80234e-09
-1.79668e-09
-1.77954e-09
-1.75603e-09
-1.73118e-09
-1.71125e-09
-1.70029e-09
-1.70057e-09
-1.7111e-09
-1.72862e-09
-1.74813e-09
-1.7645e-09
-1.77363e-09
-1.77357e-09
-1.76483e-09
-1.75006e-09
-1.73317e-09
-1.71804e-09
-1.70775e-09
-1.70332e-09
-1.70457e-09
-1.70912e-09
-1.71528e-09
-1.71992e-09
-1.72311e-09
-1.72277e-09
-1.7216e-09
-1.71722e-09
-1.71319e-09
-1.70487e-09
-1.69583e-09
-1.68046e-09
-1.66419e-09
-1.64441e-09
-1.62926e-09
-1.6202e-09
-1.62367e-09
-1.63886e-09
-1.66654e-09
-1.69057e-09
-1.71994e-09
-1.70982e-09
-1.71359e-09
-1.66046e-09
-1.65621e-09
-1.70102e-09
-1.84289e-09
-1.79792e-09
-1.82423e-09
-1.77132e-09
-1.76119e-09
-1.71594e-09
-1.69588e-09
-1.67698e-09
-1.67902e-09
-1.69197e-09
-1.7169e-09
-1.74645e-09
-1.77422e-09
-1.79496e-09
-1.80348e-09
-1.79937e-09
-1.78313e-09
-1.75969e-09
-1.7341e-09
-1.71281e-09
-1.70021e-09
-1.69897e-09
-1.70842e-09
-1.72558e-09
-1.74543e-09
-1.76272e-09
-1.77306e-09
-1.77418e-09
-1.76631e-09
-1.75189e-09
-1.73482e-09
-1.71909e-09
-1.70796e-09
-1.7027e-09
-1.70331e-09
-1.70752e-09
-1.71365e-09
-1.7185e-09
-1.72208e-09
-1.72222e-09
-1.7216e-09
-1.71781e-09
-1.71445e-09
-1.7067e-09
-1.69821e-09
-1.68288e-09
-1.66634e-09
-1.64537e-09
-1.62881e-09
-1.61757e-09
-1.61961e-09
-1.63344e-09
-1.66172e-09
-1.68675e-09
-1.71927e-09
-1.71084e-09
-1.71755e-09
-1.66264e-09
-1.65696e-09
-1.69845e-09
-1.84211e-09
-1.8e-09
-1.82832e-09
-1.77668e-09
-1.76692e-09
-1.72062e-09
-1.69874e-09
-1.67758e-09
-1.67745e-09
-1.68876e-09
-1.71289e-09
-1.74264e-09
-1.77147e-09
-1.7939e-09
-1.80431e-09
-1.80187e-09
-1.78672e-09
-1.76353e-09
-1.73733e-09
-1.71476e-09
-1.7005e-09
-1.69765e-09
-1.70591e-09
-1.72253e-09
-1.7426e-09
-1.76073e-09
-1.77227e-09
-1.77463e-09
-1.7677e-09
-1.75375e-09
-1.73659e-09
-1.7203e-09
-1.70835e-09
-1.70224e-09
-1.70215e-09
-1.70595e-09
-1.71198e-09
-1.717e-09
-1.72094e-09
-1.72155e-09
-1.72148e-09
-1.71828e-09
-1.71562e-09
-1.7085e-09
-1.70063e-09
-1.68546e-09
-1.66877e-09
-1.64669e-09
-1.62876e-09
-1.61528e-09
-1.61574e-09
-1.62795e-09
-1.65661e-09
-1.68243e-09
-1.71809e-09
-1.71148e-09
-1.72142e-09
-1.66485e-09
-1.6578e-09
-1.69579e-09
-1.8409e-09
-1.80167e-09
-1.8321e-09
-1.782e-09
-1.77287e-09
-1.7257e-09
-1.70212e-09
-1.67871e-09
-1.6763e-09
-1.6858e-09
-1.70894e-09
-1.73867e-09
-1.76843e-09
-1.79248e-09
-1.80482e-09
-1.80417e-09
-1.79025e-09
-1.76751e-09
-1.74086e-09
-1.71708e-09
-1.70119e-09
-1.69665e-09
-1.70359e-09
-1.71953e-09
-1.73967e-09
-1.75854e-09
-1.77126e-09
-1.77489e-09
-1.769e-09
-1.75561e-09
-1.73846e-09
-1.72169e-09
-1.70894e-09
-1.70194e-09
-1.7011e-09
-1.70443e-09
-1.7103e-09
-1.71544e-09
-1.7197e-09
-1.72075e-09
-1.72123e-09
-1.71863e-09
-1.71668e-09
-1.71024e-09
-1.70308e-09
-1.68817e-09
-1.67147e-09
-1.64839e-09
-1.62916e-09
-1.61337e-09
-1.61212e-09
-1.62246e-09
-1.65123e-09
-1.67762e-09
-1.71635e-09
-1.71167e-09
-1.72514e-09
-1.66705e-09
-1.65873e-09
-1.69306e-09
-1.83926e-09
-1.80289e-09
-1.83551e-09
-1.78722e-09
-1.77898e-09
-1.73117e-09
-1.70603e-09
-1.68039e-09
-1.67564e-09
-1.68316e-09
-1.70508e-09
-1.73459e-09
-1.7651e-09
-1.79069e-09
-1.80496e-09
-1.8062e-09
-1.7937e-09
-1.77158e-09
-1.74465e-09
-1.71979e-09
-1.70228e-09
-1.69601e-09
-1.7015e-09
-1.7166e-09
-1.73666e-09
-1.75617e-09
-1.77002e-09
-1.77494e-09
-1.77017e-09
-1.75745e-09
-1.74041e-09
-1.72323e-09
-1.70971e-09
-1.70183e-09
-1.70019e-09
-1.70298e-09
-1.70862e-09
-1.71383e-09
-1.71837e-09
-1.71983e-09
-1.72083e-09
-1.71882e-09
-1.7176e-09
-1.71189e-09
-1.70551e-09
-1.69099e-09
-1.67442e-09
-1.65048e-09
-1.63002e-09
-1.61192e-09
-1.60882e-09
-1.61703e-09
-1.64564e-09
-1.67233e-09
-1.71404e-09
-1.71135e-09
-1.72867e-09
-1.66921e-09
-1.65974e-09
-1.69029e-09
-1.83718e-09
-1.80361e-09
-1.83848e-09
-1.79227e-09
-1.78519e-09
-1.73699e-09
-1.71046e-09
-1.68266e-09
-1.6755e-09
-1.68089e-09
-1.70137e-09
-1.73044e-09
-1.76151e-09
-1.78853e-09
-1.80472e-09
-1.80794e-09
-1.797e-09
-1.77571e-09
-1.74869e-09
-1.72287e-09
-1.7038e-09
-1.69575e-09
-1.69968e-09
-1.71378e-09
-1.73361e-09
-1.75364e-09
-1.76856e-09
-1.77478e-09
-1.77118e-09
-1.75925e-09
-1.74243e-09
-1.72493e-09
-1.71068e-09
-1.70191e-09
-1.69944e-09
-1.70163e-09
-1.70697e-09
-1.71218e-09
-1.71695e-09
-1.71879e-09
-1.72029e-09
-1.71885e-09
-1.71835e-09
-1.71341e-09
-1.70789e-09
-1.69389e-09
-1.67761e-09
-1.65296e-09
-1.6314e-09
-1.61097e-09
-1.60593e-09
-1.61175e-09
-1.63989e-09
-1.66658e-09
-1.71111e-09
-1.71049e-09
-1.73192e-09
-1.67131e-09
-1.66084e-09
-1.68751e-09
-1.83467e-09
-1.80379e-09
-1.84096e-09
-1.79709e-09
-1.79143e-09
-1.74311e-09
-1.71539e-09
-1.68551e-09
-1.67592e-09
-1.67903e-09
-1.69788e-09
-1.72626e-09
-1.7577e-09
-1.786e-09
-1.80407e-09
-1.80933e-09
-1.80012e-09
-1.77984e-09
-1.75293e-09
-1.72631e-09
-1.70575e-09
-1.69591e-09
-1.69817e-09
-1.71113e-09
-1.73055e-09
-1.75096e-09
-1.76686e-09
-1.77438e-09
-1.77203e-09
-1.76098e-09
-1.74449e-09
-1.72676e-09
-1.71185e-09
-1.70219e-09
-1.69885e-09
-1.70038e-09
-1.70537e-09
-1.71052e-09
-1.71546e-09
-1.71764e-09
-1.71958e-09
-1.7187e-09
-1.71892e-09
-1.71476e-09
-1.71018e-09
-1.69683e-09
-1.68101e-09
-1.65582e-09
-1.6333e-09
-1.61059e-09
-1.60351e-09
-1.60668e-09
-1.63405e-09
-1.6604e-09
-1.70757e-09
-1.70903e-09
-1.73482e-09
-1.67329e-09
-1.66202e-09
-1.68474e-09
-1.83174e-09
-1.80341e-09
-1.84287e-09
-1.8016e-09
-1.79763e-09
-1.74947e-09
-1.72079e-09
-1.68895e-09
-1.67692e-09
-1.67765e-09
-1.69465e-09
-1.72211e-09
-1.75369e-09
-1.78312e-09
-1.80301e-09
-1.81036e-09
-1.80299e-09
-1.78393e-09
-1.75733e-09
-1.73007e-09
-1.70812e-09
-1.6965e-09
-1.69701e-09
-1.70867e-09
-1.72752e-09
-1.74816e-09
-1.76496e-09
-1.77375e-09
-1.77268e-09
-1.7626e-09
-1.74657e-09
-1.72871e-09
-1.7132e-09
-1.70268e-09
-1.69845e-09
-1.69928e-09
-1.70383e-09
-1.70886e-09
-1.71391e-09
-1.71637e-09
-1.71872e-09
-1.71835e-09
-1.71927e-09
-1.71591e-09
-1.71233e-09
-1.69976e-09
-1.68458e-09
-1.65907e-09
-1.63574e-09
-1.61081e-09
-1.60164e-09
-1.60193e-09
-1.62819e-09
-1.65384e-09
-1.70341e-09
-1.70692e-09
-1.73731e-09
-1.67512e-09
-1.66329e-09
-1.68199e-09
-1.82841e-09
-1.80244e-09
-1.84418e-09
-1.80574e-09
-1.80371e-09
-1.75601e-09
-1.72662e-09
-1.69298e-09
-1.67854e-09
-1.67678e-09
-1.69176e-09
-1.71805e-09
-1.74952e-09
-1.7799e-09
-1.80152e-09
-1.81097e-09
-1.80558e-09
-1.78793e-09
-1.76184e-09
-1.73415e-09
-1.71092e-09
-1.69753e-09
-1.69623e-09
-1.70645e-09
-1.72456e-09
-1.74526e-09
-1.76284e-09
-1.77287e-09
-1.77312e-09
-1.76411e-09
-1.74863e-09
-1.73076e-09
-1.71472e-09
-1.70338e-09
-1.69825e-09
-1.69833e-09
-1.70239e-09
-1.70723e-09
-1.71232e-09
-1.715e-09
-1.7177e-09
-1.7178e-09
-1.71938e-09
-1.71683e-09
-1.71431e-09
-1.70265e-09
-1.68829e-09
-1.66266e-09
-1.63874e-09
-1.61169e-09
-1.60038e-09
-1.59758e-09
-1.6224e-09
-1.64695e-09
-1.69863e-09
-1.70414e-09
-1.73931e-09
-1.67677e-09
-1.66463e-09
-1.6793e-09
-1.82471e-09
-1.80088e-09
-1.84482e-09
-1.80942e-09
-1.80959e-09
-1.76265e-09
-1.73283e-09
-1.69757e-09
-1.68079e-09
-1.67648e-09
-1.68925e-09
-1.71414e-09
-1.74526e-09
-1.77638e-09
-1.79961e-09
-1.81114e-09
-1.80783e-09
-1.79176e-09
-1.76642e-09
-1.73849e-09
-1.71413e-09
-1.69903e-09
-1.69586e-09
-1.70452e-09
-1.72171e-09
-1.74231e-09
-1.76055e-09
-1.77174e-09
-1.77333e-09
-1.76546e-09
-1.75066e-09
-1.73289e-09
-1.71642e-09
-1.70429e-09
-1.69827e-09
-1.69756e-09
-1.70106e-09
-1.70564e-09
-1.71071e-09
-1.71355e-09
-1.71653e-09
-1.71704e-09
-1.71923e-09
-1.71749e-09
-1.71607e-09
-1.70543e-09
-1.69209e-09
-1.66658e-09
-1.64228e-09
-1.61325e-09
-1.59981e-09
-1.59371e-09
-1.61678e-09
-1.63981e-09
-1.69326e-09
-1.70064e-09
-1.74075e-09
-1.67817e-09
-1.66605e-09
-1.67668e-09
-1.82069e-09
-1.7987e-09
-1.84476e-09
-1.81259e-09
-1.81518e-09
-1.76933e-09
-1.73936e-09
-1.7027e-09
-1.68368e-09
-1.67679e-09
-1.6872e-09
-1.71045e-09
-1.74095e-09
-1.77259e-09
-1.79727e-09
-1.81087e-09
-1.8097e-09
-1.79539e-09
-1.77101e-09
-1.74305e-09
-1.71772e-09
-1.70098e-09
-1.69593e-09
-1.70291e-09
-1.71902e-09
-1.73933e-09
-1.75808e-09
-1.77037e-09
-1.7733e-09
-1.76664e-09
-1.75263e-09
-1.73507e-09
-1.71826e-09
-1.70542e-09
-1.6985e-09
-1.69698e-09
-1.69988e-09
-1.70413e-09
-1.7091e-09
-1.71203e-09
-1.71522e-09
-1.71607e-09
-1.71882e-09
-1.71786e-09
-1.71756e-09
-1.70807e-09
-1.69592e-09
-1.67079e-09
-1.64635e-09
-1.61551e-09
-1.59998e-09
-1.59044e-09
-1.61141e-09
-1.6325e-09
-1.68735e-09
-1.69642e-09
-1.74155e-09
-1.6793e-09
-1.66752e-09
-1.67415e-09
-1.81639e-09
-1.79592e-09
-1.84397e-09
-1.81519e-09
-1.8204e-09
-1.77596e-09
-1.74614e-09
-1.70834e-09
-1.6872e-09
-1.67772e-09
-1.68564e-09
-1.70703e-09
-1.73666e-09
-1.76856e-09
-1.79453e-09
-1.81012e-09
-1.81115e-09
-1.79875e-09
-1.77554e-09
-1.74779e-09
-1.72168e-09
-1.7034e-09
-1.69645e-09
-1.70166e-09
-1.71652e-09
-1.73638e-09
-1.75549e-09
-1.76878e-09
-1.77302e-09
-1.76762e-09
-1.7545e-09
-1.73728e-09
-1.72024e-09
-1.70674e-09
-1.69896e-09
-1.69661e-09
-1.69885e-09
-1.70272e-09
-1.70752e-09
-1.71047e-09
-1.71378e-09
-1.7149e-09
-1.71813e-09
-1.71792e-09
-1.71875e-09
-1.7105e-09
-1.69972e-09
-1.67522e-09
-1.65091e-09
-1.6185e-09
-1.60096e-09
-1.58784e-09
-1.60642e-09
-1.62512e-09
-1.68093e-09
-1.69146e-09
-1.74166e-09
-1.68009e-09
-1.66903e-09
-1.67173e-09
-1.81188e-09
-1.79256e-09
-1.84242e-09
-1.81716e-09
-1.82516e-09
-1.78245e-09
-1.7531e-09
-1.71441e-09
-1.69133e-09
-1.6793e-09
-1.68464e-09
-1.70396e-09
-1.73246e-09
-1.76436e-09
-1.79142e-09
-1.80889e-09
-1.81215e-09
-1.80179e-09
-1.77997e-09
-1.75264e-09
-1.72595e-09
-1.70626e-09
-1.69745e-09
-1.70081e-09
-1.71428e-09
-1.73349e-09
-1.75278e-09
-1.76696e-09
-1.77248e-09
-1.76839e-09
-1.75624e-09
-1.73949e-09
-1.72232e-09
-1.70826e-09
-1.69965e-09
-1.69646e-09
-1.698e-09
-1.70143e-09
-1.70599e-09
-1.70888e-09
-1.71223e-09
-1.71353e-09
-1.71716e-09
-1.71764e-09
-1.71959e-09
-1.71267e-09
-1.70343e-09
-1.67983e-09
-1.65594e-09
-1.6222e-09
-1.60277e-09
-1.586e-09
-1.60191e-09
-1.61777e-09
-1.67409e-09
-1.68579e-09
-1.74101e-09
-1.68051e-09
-1.67057e-09
-1.66944e-09
-1.80722e-09
-1.78865e-09
-1.84011e-09
-1.81845e-09
-1.82937e-09
-1.7887e-09
-1.76015e-09
-1.72088e-09
-1.69606e-09
-1.68154e-09
-1.68423e-09
-1.7013e-09
-1.7284e-09
-1.76003e-09
-1.78795e-09
-1.80719e-09
-1.81266e-09
-1.80445e-09
-1.78421e-09
-1.75756e-09
-1.7305e-09
-1.70954e-09
-1.69892e-09
-1.70038e-09
-1.71232e-09
-1.73071e-09
-1.75002e-09
-1.76495e-09
-1.7717e-09
-1.76892e-09
-1.75784e-09
-1.74166e-09
-1.7245e-09
-1.70995e-09
-1.70056e-09
-1.69654e-09
-1.69736e-09
-1.70029e-09
-1.70454e-09
-1.7073e-09
-1.71061e-09
-1.712e-09
-1.71591e-09
-1.71701e-09
-1.72006e-09
-1.71452e-09
-1.70697e-09
-1.68453e-09
-1.66137e-09
-1.6266e-09
-1.60545e-09
-1.58501e-09
-1.598e-09
-1.61058e-09
-1.66691e-09
-1.67942e-09
-1.73955e-09
-1.68052e-09
-1.6721e-09
-1.66731e-09
-1.80251e-09
-1.78422e-09
-1.83704e-09
-1.81902e-09
-1.83296e-09
-1.79462e-09
-1.76719e-09
-1.72766e-09
-1.70134e-09
-1.68444e-09
-1.68445e-09
-1.6991e-09
-1.72456e-09
-1.75565e-09
-1.78419e-09
-1.80502e-09
-1.81267e-09
-1.80669e-09
-1.78821e-09
-1.76246e-09
-1.73527e-09
-1.71323e-09
-1.70086e-09
-1.7004e-09
-1.71069e-09
-1.72808e-09
-1.74722e-09
-1.76277e-09
-1.77066e-09
-1.76921e-09
-1.75927e-09
-1.74377e-09
-1.72672e-09
-1.7118e-09
-1.70169e-09
-1.69685e-09
-1.69693e-09
-1.69932e-09
-1.7032e-09
-1.70575e-09
-1.70893e-09
-1.71031e-09
-1.7144e-09
-1.71603e-09
-1.72011e-09
-1.716e-09
-1.71027e-09
-1.68926e-09
-1.66713e-09
-1.63167e-09
-1.60901e-09
-1.58495e-09
-1.59479e-09
-1.60369e-09
-1.65949e-09
-1.67239e-09
-1.73725e-09
-1.68007e-09
-1.67361e-09
-1.66534e-09
-1.79783e-09
-1.77933e-09
-1.83323e-09
-1.81885e-09
-1.83586e-09
-1.80012e-09
-1.77413e-09
-1.73467e-09
-1.70711e-09
-1.68799e-09
-1.68532e-09
-1.69742e-09
-1.72101e-09
-1.75128e-09
-1.78017e-09
-1.80242e-09
-1.81217e-09
-1.80847e-09
-1.79191e-09
-1.76729e-09
-1.7402e-09
-1.71726e-09
-1.70327e-09
-1.70088e-09
-1.70942e-09
-1.72565e-09
-1.74444e-09
-1.76045e-09
-1.76939e-09
-1.76925e-09
-1.7605e-09
-1.74579e-09
-1.72898e-09
-1.71378e-09
-1.70302e-09
-1.69741e-09
-1.69673e-09
-1.69854e-09
-1.70199e-09
-1.70428e-09