/*--------------------------------*- C++ -*----------------------------------*\
| =========                 |                                                 |
| \\      /  F ield         | foam-extend: Open Source CFD                    |
|  \\    /   O peration     | Version:     4.0                                |
|   \\  /    A nd           | Web:         http://www.foam-extend.org         |
|    \\/     M anipulation  |                                                 |
\*---------------------------------------------------------------------------*/
FoamFile
{
    version     2.0;
    format      ascii;
    class       volVectorField;
    location    "5";
    object      U;
}
// * * * * * * * * * * * * * * * * * * * * * * * * * * * * * * * * * * * * * //

dimensions      [0 1 -1 0 0 0 0];

internalField   nonuniform List<vector> 
6960
(
(-1.60307e-06 -242.791 0)
(-1.11337e-06 -242.784 0)
(7.81149e-07 -242.784 0)
(3.1677e-07 -242.784 0)
(5.64618e-08 -242.784 0)
(3.65373e-08 -242.784 0)
(1.32148e-08 -242.784 0)
(9.54129e-09 -242.784 0)
(4.49945e-09 -242.784 0)
(3.55565e-09 -242.784 0)
(2.05959e-09 -242.784 0)
(1.79816e-09 -242.784 0)
(1.28036e-09 -242.784 0)
(1.21214e-09 -242.784 0)
(1.01408e-09 -242.784 0)
(9.9465e-10 -242.784 0)
(9.05344e-10 -242.784 0)
(8.87651e-10 -242.784 0)
(8.30094e-10 -242.784 0)
(7.98614e-10 -242.784 0)
(7.4255e-10 -242.784 0)
(6.93698e-10 -242.784 0)
(6.28487e-10 -242.784 0)
(5.62939e-10 -242.784 0)
(4.86746e-10 -242.784 0)
(4.07822e-10 -242.784 0)
(3.21639e-10 -242.784 0)
(2.33164e-10 -242.784 0)
(1.40614e-10 -242.784 0)
(4.69982e-11 -242.784 0)
(-4.70715e-11 -242.784 0)
(-1.40774e-10 -242.784 0)
(-2.33716e-10 -242.784 0)
(-3.21324e-10 -242.784 0)
(-4.07791e-10 -242.784 0)
(-4.87358e-10 -242.784 0)
(-5.62719e-10 -242.784 0)
(-6.28468e-10 -242.784 0)
(-6.93873e-10 -242.784 0)
(-7.41676e-10 -242.784 0)
(-7.98157e-10 -242.784 0)
(-8.30164e-10 -242.784 0)
(-8.86845e-10 -242.784 0)
(-9.05109e-10 -242.784 0)
(-9.94651e-10 -242.784 0)
(-1.01294e-09 -242.784 0)
(-1.2113e-09 -242.784 0)
(-1.27995e-09 -242.784 0)
(-1.79715e-09 -242.784 0)
(-2.05866e-09 -242.784 0)
(-3.55473e-09 -242.784 0)
(-4.49799e-09 -242.784 0)
(-9.5405e-09 -242.784 0)
(-1.32143e-08 -242.784 0)
(-3.65358e-08 -242.784 0)
(-5.64609e-08 -242.784 0)
(-3.16769e-07 -242.784 0)
(-7.81148e-07 -242.784 0)
(1.11337e-06 -242.784 0)
(1.60307e-06 -242.791 0)
(0.000219263 28.1693 0)
(0.000220841 28.1756 0)
(2.43803e-06 28.1756 0)
(9.52952e-07 28.1756 0)
(1.94979e-07 28.1756 0)
(1.24744e-07 28.1756 0)
(5.09653e-08 28.1756 0)
(3.65137e-08 28.1756 0)
(1.94324e-08 28.1756 0)
(1.49793e-08 28.1756 0)
(9.41684e-09 28.1756 0)
(7.75531e-09 28.1756 0)
(5.55348e-09 28.1756 0)
(4.83164e-09 28.1756 0)
(3.8509e-09 28.1756 0)
(3.4652e-09 28.1756 0)
(2.96304e-09 28.1756 0)
(2.72645e-09 28.1756 0)
(2.40575e-09 28.1756 0)
(2.2148e-09 28.1756 0)
(1.98466e-09 28.1756 0)
(1.78762e-09 28.1756 0)
(1.58107e-09 28.1756 0)
(1.39265e-09 28.1756 0)
(1.17392e-09 28.1756 0)
(9.7534e-10 28.1756 0)
(7.6619e-10 28.1756 0)
(5.4309e-10 28.1756 0)
(3.31767e-10 28.1756 0)
(1.26697e-10 28.1756 0)
(-1.48096e-10 28.1756 0)
(-3.26202e-10 28.1756 0)
(-4.99326e-10 28.1756 0)
(-8.10528e-10 28.1756 0)
(-9.75286e-10 28.1756 0)
(-1.13028e-09 28.1756 0)
(-1.43711e-09 28.1756 0)
(-1.58099e-09 28.1756 0)
(-1.74288e-09 28.1756 0)
(-2.02756e-09 28.1756 0)
(-2.21355e-09 28.1756 0)
(-2.36065e-09 28.1756 0)
(-2.76938e-09 28.1756 0)
(-2.96224e-09 28.1756 0)
(-3.41988e-09 28.1756 0)
(-3.89296e-09 28.1756 0)
(-4.82935e-09 28.1756 0)
(-5.50704e-09 28.1756 0)
(-7.79758e-09 28.1756 0)
(-9.4143e-09 28.1756 0)
(-1.49319e-08 28.1756 0)
(-1.94739e-08 28.1756 0)
(-3.65117e-08 28.1756 0)
(-5.09189e-08 28.1756 0)
(-1.24785e-07 28.1756 0)
(-1.94977e-07 28.1756 0)
(-9.52904e-07 28.1756 0)
(-2.43808e-06 28.1756 0)
(-0.000220841 28.1756 0)
(-0.000219263 28.1693 0)
(0.000169887 44.5749 0)
(0.00017236 44.5705 0)
(3.88452e-06 44.5705 0)
(1.58739e-06 44.5705 0)
(3.55583e-07 44.5705 0)
(2.25799e-07 44.5705 0)
(9.81063e-08 44.5705 0)
(6.99657e-08 44.5705 0)
(3.91783e-08 44.5705 0)
(2.99114e-08 44.5705 0)
(1.93948e-08 44.5705 0)
(1.56203e-08 44.5705 0)
(1.12351e-08 44.5705 0)
(9.43992e-09 44.5705 0)
(7.35982e-09 44.5705 0)
(6.36983e-09 44.5705 0)
(5.25947e-09 44.5705 0)
(4.64896e-09 44.5705 0)
(3.96745e-09 44.5705 0)
(3.52956e-09 44.5705 0)
(3.06449e-09 44.5705 0)
(2.69711e-09 44.5705 0)
(2.3275e-09 44.5705 0)
(2.00918e-09 44.5705 0)
(1.67186e-09 44.5705 0)
(1.36942e-09 44.5705 0)
(1.06156e-09 44.5705 0)
(7.52457e-10 44.5705 0)
(4.53578e-10 44.5705 0)
(1.63572e-10 44.5705 0)
(-1.80756e-10 44.5705 0)
(-4.49628e-10 44.5705 0)
(-7.19037e-10 44.5705 0)
(-1.09583e-09 44.5705 0)
(-1.36938e-09 44.5705 0)
(-1.63853e-09 44.5705 0)
(-2.0435e-09 44.5705 0)
(-2.32736e-09 44.5705 0)
(-2.6622e-09 44.5705 0)
(-3.09663e-09 44.5705 0)
(-3.52761e-09 44.5705 0)
(-3.93188e-09 44.5705 0)
(-4.68094e-09 44.5705 0)
(-5.25803e-09 44.5705 0)
(-6.33387e-09 44.5705 0)
(-7.39051e-09 44.5705 0)
(-9.43637e-09 44.5705 0)
(-1.11975e-08 44.5705 0)
(-1.56511e-08 44.5705 0)
(-1.93909e-08 44.5705 0)
(-2.98725e-08 44.5705 0)
(-3.92085e-08 44.5705 0)
(-6.99628e-08 44.5705 0)
(-9.8069e-08 44.5705 0)
(-2.25829e-07 44.5705 0)
(-3.5558e-07 44.5705 0)
(-1.58736e-06 44.5705 0)
(-3.88455e-06 44.5705 0)
(-0.00017236 44.5705 0)
(-0.000169887 44.5749 0)
(6.44657e-05 7.22517 0)
(6.77291e-05 7.22146 0)
(5.18802e-06 7.22146 0)
(2.19334e-06 7.22145 0)
(5.28914e-07 7.22145 0)
(3.3347e-07 7.22145 0)
(1.50227e-07 7.22145 0)
(1.06696e-07 7.22145 0)
(6.13806e-08 7.22145 0)
(4.65948e-08 7.22145 0)
(3.06958e-08 7.22145 0)
(2.44462e-08 7.22145 0)
(1.76363e-08 7.22145 0)
(1.45615e-08 7.22145 0)
(1.12339e-08 7.22145 0)
(9.52006e-09 7.22145 0)
(7.71059e-09 7.22145 0)
(6.65229e-09 7.22145 0)
(5.55966e-09 7.22145 0)
(4.83289e-09 7.22145 0)
(4.10392e-09 7.22145 0)
(3.54985e-09 7.22145 0)
(3.00583e-09 7.22145 0)
(2.55267e-09 7.22145 0)
(2.10146e-09 7.22145 0)
(1.70045e-09 7.22145 0)
(1.30301e-09 7.22145 0)
(9.2348e-10 7.22145 0)
(5.50133e-10 7.22145 0)
(1.87889e-10 7.22145 0)
(-1.95561e-10 7.22145 0)
(-5.49347e-10 7.22145 0)
(-9.11745e-10 7.22145 0)
(-1.31589e-09 7.22145 0)
(-1.70046e-09 7.22145 0)
(-2.0897e-09 7.22145 0)
(-2.56547e-09 7.22145 0)
(-3.00566e-09 7.22145 0)
(-3.53614e-09 7.22145 0)
(-4.11405e-09 7.22145 0)
(-4.83032e-09 7.22145 0)
(-5.54493e-09 7.22145 0)
(-6.662e-09 7.22145 0)
(-7.70851e-09 7.22145 0)
(-9.50476e-09 7.22145 0)
(-1.12419e-08 7.22145 0)
(-1.45568e-08 7.22145 0)
(-1.76188e-08 7.22145 0)
(-2.44542e-08 7.22145 0)
(-3.06906e-08 7.22145 0)
(-4.65762e-08 7.22145 0)
(-6.13882e-08 7.22145 0)
(-1.06692e-07 7.22145 0)
(-1.5021e-07 7.22145 0)
(-3.33477e-07 7.22145 0)
(-5.28909e-07 7.22145 0)
(-2.19333e-06 7.22145 0)
(-5.18803e-06 7.22146 0)
(-6.77291e-05 7.22146 0)
(-6.44657e-05 7.22517 0)
(3.99889e-05 -3.42082 0)
(4.4048e-05 -3.42095 0)
(6.46122e-06 -3.42096 0)
(2.7696e-06 -3.42096 0)
(7.10245e-07 -3.42096 0)
(4.44705e-07 -3.42096 0)
(2.05213e-07 -3.42096 0)
(1.45173e-07 -3.42096 0)
(8.49158e-08 -3.42096 0)
(6.41898e-08 -3.42096 0)
(4.26996e-08 -3.42096 0)
(3.37798e-08 -3.42096 0)
(2.44247e-08 -3.42096 0)
(1.99662e-08 -3.42096 0)
(1.53237e-08 -3.42096 0)
(1.28212e-08 -3.42096 0)
(1.02722e-08 -3.42096 0)
(8.73162e-09 -3.42096 0)
(7.19865e-09 -3.42096 0)
(6.16373e-09 -3.42096 0)
(5.15805e-09 -3.42096 0)
(4.4024e-09 -3.42096 0)
(3.67868e-09 -3.42096 0)
(3.08783e-09 -3.42096 0)
(2.51706e-09 -3.42096 0)
(2.01898e-09 -3.42096 0)
(1.53511e-09 -3.42096 0)
(1.08386e-09 -3.42096 0)
(6.42216e-10 -3.42096 0)
(2.16485e-10 -3.42096 0)
(-2.22292e-10 -3.42096 0)
(-6.42416e-10 -3.42096 0)
(-1.07745e-09 -3.42096 0)
(-1.54299e-09 -3.42096 0)
(-2.01905e-09 -3.42096 0)
(-2.51048e-09 -3.42096 0)
(-3.09547e-09 -3.42096 0)
(-3.67849e-09 -3.42096 0)
(-4.39355e-09 -3.42096 0)
(-5.16262e-09 -3.42096 0)
(-6.16055e-09 -3.42096 0)
(-7.18839e-09 -3.42096 0)
(-8.73547e-09 -3.42096 0)
(-1.02695e-08 -3.42096 0)
(-1.28101e-08 -3.42096 0)
(-1.53255e-08 -3.42096 0)
(-1.99603e-08 -3.42096 0)
(-2.44109e-08 -3.42096 0)
(-3.37812e-08 -3.42096 0)
(-4.2693e-08 -3.42096 0)
(-6.4175e-08 -3.42096 0)
(-8.49174e-08 -3.42096 0)
(-1.45169e-07 -3.42096 0)
(-2.05201e-07 -3.42096 0)
(-4.44706e-07 -3.42096 0)
(-7.1024e-07 -3.42096 0)
(-2.76959e-06 -3.42096 0)
(-6.46122e-06 -3.42096 0)
(-4.4048e-05 -3.42095 0)
(-3.99889e-05 -3.42082 0)
(5.04537e-05 -1.47253 0)
(5.52729e-05 -1.47183 0)
(7.67361e-06 -1.47183 0)
(3.32578e-06 -1.47184 0)
(8.97684e-07 -1.47184 0)
(5.58425e-07 -1.47184 0)
(2.62384e-07 -1.47184 0)
(1.84908e-07 -1.47184 0)
(1.09428e-07 -1.47184 0)
(8.24336e-08 -1.47184 0)
(5.5211e-08 -1.47184 0)
(4.34756e-08 -1.47184 0)
(3.1497e-08 -1.47184 0)
(2.55802e-08 -1.47184 0)
(1.95789e-08 -1.47184 0)
(1.62438e-08 -1.47184 0)
(1.29287e-08 -1.47184 0)
(1.08817e-08 -1.47184 0)
(8.8898e-09 -1.47184 0)
(7.53259e-09 -1.47184 0)
(6.24058e-09 -1.47184 0)
(5.27302e-09 -1.47184 0)
(4.3643e-09 -1.47184 0)
(3.63173e-09 -1.47184 0)
(2.93665e-09 -1.47184 0)
(2.33997e-09 -1.47184 0)
(1.76912e-09 -1.47184 0)
(1.24378e-09 -1.47184 0)
(7.34824e-10 -1.47184 0)
(2.4773e-10 -1.47184 0)
(-2.5498e-10 -1.47184 0)
(-7.35063e-10 -1.47184 0)
(-1.23563e-09 -1.47184 0)
(-1.77911e-09 -1.47184 0)
(-2.34011e-09 -1.47184 0)
(-2.92815e-09 -1.47184 0)
(-3.64127e-09 -1.47184 0)
(-4.36408e-09 -1.47184 0)
(-5.26192e-09 -1.47184 0)
(-6.24666e-09 -1.47184 0)
(-7.5288e-09 -1.47184 0)
(-8.87691e-09 -1.47184 0)
(-1.08867e-08 -1.47184 0)
(-1.29253e-08 -1.47184 0)
(-1.62299e-08 -1.47184 0)
(-1.95816e-08 -1.47184 0)
(-2.55733e-08 -1.47184 0)
(-3.14799e-08 -1.47184 0)
(-4.34777e-08 -1.47184 0)
(-5.52031e-08 -1.47184 0)
(-8.24155e-08 -1.47184 0)
(-1.09431e-07 -1.47184 0)
(-1.84903e-07 -1.47184 0)
(-2.62369e-07 -1.47184 0)
(-5.58427e-07 -1.47184 0)
(-8.97678e-07 -1.47184 0)
(-3.32576e-06 -1.47184 0)
(-7.67362e-06 -1.47183 0)
(-5.52729e-05 -1.47183 0)
(-5.04536e-05 -1.47253 0)
(5.32248e-05 0.0969791 0)
(5.87186e-05 0.0972109 0)
(8.77695e-06 0.0972093 0)
(3.86292e-06 0.0972011 0)
(1.09013e-06 0.0972008 0)
(6.74136e-07 0.0972006 0)
(3.21485e-07 0.0972006 0)
(2.25726e-07 0.0972006 0)
(1.34797e-07 0.0972006 0)
(1.01238e-07 0.0972006 0)
(6.81652e-08 0.0972006 0)
(5.3485e-08 0.0972006 0)
(3.88197e-08 0.0972006 0)
(3.13793e-08 0.0972006 0)
(2.39822e-08 0.0972006 0)
(1.97788e-08 0.0972006 0)
(1.56751e-08 0.0972006 0)
(1.31001e-08 0.0972006 0)
(1.06355e-08 0.0972006 0)
(8.94295e-09 0.0972006 0)
(7.35542e-09 0.0972006 0)
(6.16835e-09 0.0972006 0)
(5.06876e-09 0.0972006 0)
(4.1894e-09 0.0972006 0)
(3.36681e-09 0.0972006 0)
(2.66837e-09 0.0972006 0)
(2.00818e-09 0.0972006 0)
(1.40724e-09 0.0972006 0)
(8.2924e-10 0.0972006 0)
(2.79e-10 0.0972006 0)
(-2.8697e-10 0.0972006 0)
(-8.29739e-10 0.0972006 0)
(-1.3989e-09 0.0972006 0)
(-2.01872e-09 0.0972006 0)
(-2.6686e-09 0.0972006 0)
(-3.35792e-09 0.0972006 0)
(-4.1993e-09 0.0972006 0)
(-5.06848e-09 0.0972006 0)
(-6.15654e-09 0.0972006 0)
(-7.36147e-09 0.0972006 0)
(-8.93854e-09 0.0972006 0)
(-1.06215e-08 0.0972006 0)
(-1.31048e-08 0.0972006 0)
(-1.56709e-08 0.0972006 0)
(-1.97636e-08 0.0972006 0)
(-2.39842e-08 0.0972006 0)
(-3.13712e-08 0.0972006 0)
(-3.88008e-08 0.0972006 0)
(-5.3486e-08 0.0972006 0)
(-6.81559e-08 0.0972006 0)
(-1.01218e-07 0.0972006 0)
(-1.34799e-07 0.0972006 0)
(-2.25719e-07 0.0972006 0)
(-3.21468e-07 0.0972006 0)
(-6.74138e-07 0.0972006 0)
(-1.09012e-06 0.0972008 0)
(-3.8629e-06 0.0972011 0)
(-8.77695e-06 0.0972093 0)
(-5.87186e-05 0.0972109 0)
(-5.32248e-05 0.0969791 0)
(4.77288e-05 0.186858 0)
(5.38106e-05 0.186831 0)
(9.76614e-06 0.186829 0)
(4.37628e-06 0.18682 0)
(1.28665e-06 0.18682 0)
(7.91494e-07 0.186819 0)
(3.82375e-07 0.186819 0)
(2.67539e-07 0.186819 0)
(1.60967e-07 0.186819 0)
(1.20565e-07 0.186819 0)
(8.15351e-08 0.186819 0)
(6.37882e-08 0.186819 0)
(4.63792e-08 0.186819 0)
(3.73541e-08 0.186819 0)
(2.85278e-08 0.186819 0)
(2.34229e-08 0.186819 0)
(1.85099e-08 0.186819 0)
(1.53872e-08 0.186819 0)
(1.24373e-08 0.186819 0)
(1.03971e-08 0.186819 0)
(8.50532e-09 0.186819 0)
(7.09149e-09 0.186819 0)
(5.79522e-09 0.186819 0)
(4.76391e-09 0.186819 0)
(3.81037e-09 0.186819 0)
(3.00665e-09 0.186819 0)
(2.25427e-09 0.186819 0)
(1.57576e-09 0.186819 0)
(9.26387e-10 0.186819 0)
(3.1056e-10 0.186819 0)
(-3.18474e-10 0.186819 0)
(-9.2738e-10 0.186819 0)
(-1.5689e-09 0.186819 0)
(-2.26373e-09 0.186819 0)
(-3.00696e-09 0.186819 0)
(-3.80274e-09 0.186819 0)
(-4.77251e-09 0.186819 0)
(-5.79486e-09 0.186819 0)
(-7.08058e-09 0.186819 0)
(-8.5097e-09 0.186819 0)
(-1.0392e-08 0.186819 0)
(-1.24238e-08 0.186819 0)
(-1.53899e-08 0.186819 0)
(-1.8505e-08 0.186819 0)
(-2.3408e-08 0.186819 0)
(-2.85274e-08 0.186819 0)
(-3.73447e-08 0.186819 0)
(-4.636e-08 0.186819 0)
(-6.37865e-08 0.186819 0)
(-8.15244e-08 0.186819 0)
(-1.20545e-07 0.186819 0)
(-1.60966e-07 0.186819 0)
(-2.67532e-07 0.186819 0)
(-3.82358e-07 0.186819 0)
(-7.91493e-07 0.186819 0)
(-1.28664e-06 0.18682 0)
(-4.37627e-06 0.18682 0)
(-9.76614e-06 0.186829 0)
(-5.38106e-05 0.186831 0)
(-4.77287e-05 0.186858 0)
(4.17287e-05 0.028553 0)
(4.83245e-05 0.0285417 0)
(1.06509e-05 0.0285403 0)
(4.8624e-06 0.0285305 0)
(1.48639e-06 0.02853 0)
(9.10216e-07 0.0285298 0)
(4.44966e-07 0.0285298 0)
(3.10302e-07 0.0285297 0)
(1.87916e-07 0.0285297 0)
(1.40398e-07 0.0285297 0)
(9.53122e-08 0.0285297 0)
(7.43796e-08 0.0285297 0)
(5.41718e-08 0.0285297 0)
(4.35025e-08 0.0285297 0)
(3.3215e-08 0.0285297 0)
(2.71759e-08 0.0285297 0)
(2.1434e-08 0.0285297 0)
(1.77443e-08 0.0285297 0)
(1.42964e-08 0.0285297 0)
(1.18966e-08 0.0285297 0)
(9.69227e-09 0.0285297 0)
(8.04405e-09 0.0285297 0)
(6.54543e-09 0.0285297 0)
(5.35707e-09 0.0285297 0)
(4.26863e-09 0.0285297 0)
(3.3561e-09 0.0285297 0)
(2.50861e-09 0.0285297 0)
(1.74992e-09 0.0285297 0)
(1.02683e-09 0.0285297 0)
(3.43162e-10 0.0285297 0)
(-3.50977e-10 0.0285297 0)
(-1.02834e-09 0.0285297 0)
(-1.74462e-09 0.0285297 0)
(-2.51689e-09 0.0285297 0)
(-3.35647e-09 0.0285297 0)
(-4.26236e-09 0.0285297 0)
(-5.36426e-09 0.0285297 0)
(-6.54497e-09 0.0285297 0)
(-8.03413e-09 0.0285297 0)
(-9.69487e-09 0.0285297 0)
(-1.18909e-08 0.0285297 0)
(-1.42835e-08 0.0285297 0)
(-1.77449e-08 0.0285297 0)
(-2.14282e-08 0.0285297 0)
(-2.71614e-08 0.0285297 0)
(-3.32121e-08 0.0285297 0)
(-4.3492e-08 0.0285297 0)
(-5.41525e-08 0.0285297 0)
(-7.43751e-08 0.0285297 0)
(-9.53001e-08 0.0285297 0)
(-1.40378e-07 0.0285297 0)
(-1.87913e-07 0.0285297 0)
(-3.10293e-07 0.0285297 0)
(-4.44949e-07 0.0285298 0)
(-9.10213e-07 0.0285298 0)
(-1.48638e-06 0.02853 0)
(-4.86238e-06 0.0285305 0)
(-1.06509e-05 0.0285403 0)
(-4.83245e-05 0.0285417 0)
(-4.17287e-05 0.028553 0)
(3.71456e-05 -0.0139211 0)
(4.41852e-05 -0.0138862 0)
(1.14344e-05 -0.0138873 0)
(5.31985e-06 -0.0138977 0)
(1.6885e-06 -0.0138983 0)
(1.03004e-06 -0.0138986 0)
(5.09188e-07 -0.0138986 0)
(3.53986e-07 -0.0138986 0)
(2.15637e-07 -0.0138986 0)
(1.60737e-07 -0.0138986 0)
(1.09497e-07 -0.0138987 0)
(8.52605e-08 -0.0138987 0)
(6.21993e-08 -0.0138987 0)
(4.98264e-08 -0.0138987 0)
(3.80457e-08 -0.0138987 0)
(3.10395e-08 -0.0138987 0)
(2.44491e-08 -0.0138987 0)
(2.0173e-08 -0.0138987 0)
(1.62142e-08 -0.0138987 0)
(1.3443e-08 -0.0138987 0)
(1.09176e-08 -0.0138987 0)
(9.02716e-09 -0.0138987 0)
(7.32043e-09 -0.0138987 0)
(5.96984e-09 -0.0138987 0)
(4.74234e-09 -0.0138987 0)
(3.71736e-09 -0.0138987 0)
(2.77176e-09 -0.0138987 0)
(1.93001e-09 -0.0138987 0)
(1.13081e-09 -0.0138987 0)
(3.77021e-10 -0.0138987 0)
(-3.84885e-10 -0.0138987 0)
(-1.13279e-09 -0.0138987 0)
(-1.92598e-09 -0.0138987 0)
(-2.77917e-09 -0.0138987 0)
(-3.7178e-09 -0.0138987 0)
(-4.73711e-09 -0.0138987 0)
(-5.97591e-09 -0.0138987 0)
(-7.31985e-09 -0.0138987 0)
(-9.0179e-09 -0.0138987 0)
(-1.09187e-08 -0.0138987 0)
(-1.34366e-08 -0.0138987 0)
(-1.62017e-08 -0.0138987 0)
(-2.01717e-08 -0.0138987 0)
(-2.44424e-08 -0.0138987 0)
(-3.10251e-08 -0.0138987 0)
(-3.80406e-08 -0.0138987 0)
(-4.98146e-08 -0.0138987 0)
(-6.21796e-08 -0.0138987 0)
(-8.52534e-08 -0.0138987 0)
(-1.09483e-07 -0.0138987 0)
(-1.60716e-07 -0.0138986 0)
(-2.15632e-07 -0.0138986 0)
(-3.53977e-07 -0.0138986 0)
(-5.09171e-07 -0.0138986 0)
(-1.03003e-06 -0.0138986 0)
(-1.68849e-06 -0.0138983 0)
(-5.31983e-06 -0.0138977 0)
(-1.14344e-05 -0.0138873 0)
(-4.41852e-05 -0.0138862 0)
(-3.71455e-05 -0.0139211 0)
(3.31589e-05 -0.00578667 0)
(4.05719e-05 -0.00574121 0)
(1.21159e-05 -0.005742 0)
(5.74759e-06 -0.0057529 0)
(1.89209e-06 -0.00575359 0)
(1.15069e-06 -0.00575395 0)
(5.74969e-07 -0.005754 0)
(3.98566e-07 -0.00575404 0)
(2.44125e-07 -0.00575405 0)
(1.8158e-07 -0.00575406 0)
(1.24092e-07 -0.00575407 0)
(9.64342e-08 -0.00575407 0)
(7.04651e-08 -0.00575407 0)
(5.63287e-08 -0.00575407 0)
(4.30225e-08 -0.00575407 0)
(3.50162e-08 -0.00575407 0)
(2.75571e-08 -0.00575407 0)
(2.2675e-08 -0.00575407 0)
(1.81924e-08 -0.00575407 0)
(1.50375e-08 -0.00575407 0)
(1.21824e-08 -0.00575407 0)
(1.00418e-08 -0.00575407 0)
(8.121e-09 -0.00575407 0)
(6.60285e-09 -0.00575407 0)
(5.23206e-09 -0.00575407 0)
(4.09087e-09 -0.00575407 0)
(3.04402e-09 -0.00575407 0)
(2.11629e-09 -0.00575407 0)
(1.23844e-09 -0.00575407 0)
(4.12117e-10 -0.00575407 0)
(-4.20103e-10 -0.00575407 0)
(-1.24088e-09 -0.00575407 0)
(-2.11339e-09 -0.00575407 0)
(-3.0507e-09 -0.00575407 0)
(-4.09138e-09 -0.00575407 0)
(-5.22774e-09 -0.00575407 0)
(-6.60793e-09 -0.00575407 0)
(-8.1203e-09 -0.00575407 0)
(-1.0033e-08 -0.00575407 0)
(-1.21821e-08 -0.00575407 0)
(-1.50303e-08 -0.00575407 0)
(-1.818e-08 -0.00575407 0)
(-2.26719e-08 -0.00575407 0)
(-2.75495e-08 -0.00575407 0)
(-3.50016e-08 -0.00575407 0)
(-4.30154e-08 -0.00575407 0)
(-5.63156e-08 -0.00575407 0)
(-7.04447e-08 -0.00575407 0)
(-9.64246e-08 -0.00575407 0)
(-1.24077e-07 -0.00575407 0)
(-1.81559e-07 -0.00575406 0)
(-2.44118e-07 -0.00575405 0)
(-3.98555e-07 -0.00575404 0)
(-5.74953e-07 -0.005754 0)
(-1.15068e-06 -0.00575395 0)
(-1.89208e-06 -0.00575359 0)
(-5.74758e-06 -0.0057529 0)
(-1.21159e-05 -0.005742 0)
(-4.05719e-05 -0.00574121 0)
(-3.31589e-05 -0.00578667 0)
(2.92806e-05 0.000170973 0)
(3.69969e-05 0.000214228 0)
(1.26951e-05 0.000213733 0)
(6.14434e-06 0.000202366 0)
(2.09624e-06 0.000201559 0)
(1.27186e-06 0.000201131 0)
(6.42227e-07 0.000201067 0)
(4.44012e-07 0.000201019 0)
(2.73375e-07 0.000201006 0)
(2.02928e-07 0.000200995 0)
(1.39101e-07 0.000200992 0)
(1.07904e-07 0.000200988 0)
(7.89727e-08 0.000200987 0)
(6.30126e-08 0.000200985 0)
(4.81484e-08 0.000200985 0)
(3.91082e-08 0.000200984 0)
(3.07601e-08 0.000200984 0)
(2.5252e-08 0.000200983 0)
(2.02324e-08 0.000200983 0)
(1.66813e-08 0.000200983 0)
(1.34877e-08 0.000200983 0)
(1.10888e-08 0.000200983 0)
(8.94791e-09 0.000200983 0)
(7.25672e-09 0.000200983 0)
(5.73832e-09 0.000200983 0)
(4.47701e-09 0.000200983 0)
(3.32567e-09 0.000200983 0)
(2.30898e-09 0.000200983 0)
(1.34985e-09 0.000200983 0)
(4.48446e-10 0.000200983 0)
(-4.56571e-10 0.000200983 0)
(-1.35274e-09 0.000200983 0)
(-2.3072e-09 0.000200983 0)
(-3.33166e-09 0.000200983 0)
(-4.47758e-09 0.000200983 0)
(-5.73487e-09 0.000200983 0)
(-7.26084e-09 0.000200983 0)
(-8.94707e-09 0.000200983 0)
(-1.10805e-08 0.000200983 0)
(-1.34861e-08 0.000200983 0)
(-1.66735e-08 0.000200983 0)
(-2.022e-08 0.000200983 0)
(-2.52473e-08 0.000200983 0)
(-3.07516e-08 0.000200984 0)
(-3.90935e-08 0.000200984 0)
(-4.81392e-08 0.000200985 0)
(-6.29982e-08 0.000200985 0)
(-7.89516e-08 0.000200987 0)
(-1.07892e-07 0.000200988 0)
(-1.39085e-07 0.000200992 0)
(-2.02907e-07 0.000200995 0)
(-2.73365e-07 0.000201006 0)
(-4.44e-07 0.000201019 0)
(-6.4221e-07 0.000201067 0)
(-1.27185e-06 0.000201131 0)
(-2.09623e-06 0.000201559 0)
(-6.14432e-06 0.000202366 0)
(-1.26951e-05 0.000213733 0)
(-3.69968e-05 0.000214228 0)
(-2.92805e-05 0.000170973 0)
(2.55219e-05 0.00049196 0)
(3.34733e-05 0.000534847 0)
(1.31733e-05 0.000534663 0)
(6.50873e-06 0.000522911 0)
(2.29995e-06 0.000521981 0)
(1.39324e-06 0.000521481 0)
(7.10863e-07 0.000521402 0)
(4.90288e-07 0.000521344 0)
(3.03376e-07 0.000521328 0)
(2.2478e-07 0.000521315 0)
(1.54526e-07 0.00052131 0)
(1.19673e-07 0.000521306 0)
(8.77253e-08 0.000521304 0)
(6.98812e-08 0.000521303 0)
(5.34259e-08 0.000521302 0)
(4.33181e-08 0.000521301 0)
(3.40602e-08 0.000521301 0)
(2.7906e-08 0.0005213 0)
(2.23358e-08 0.0005213 0)
(1.83758e-08 0.0005213 0)
(1.48346e-08 0.0005213 0)
(1.21692e-08 0.0005213 0)
(9.80193e-09 0.0005213 0)
(7.93208e-09 0.0005213 0)
(6.26159e-09 0.0005213 0)
(4.87619e-09 0.0005213 0)
(3.61704e-09 0.000521299 0)
(2.50829e-09 0.000521299 0)
(1.46515e-09 0.000521299 0)
(4.86072e-10 0.000521299 0)
(-4.94321e-10 0.000521299 0)
(-1.46852e-09 0.000521299 0)
(-2.50761e-09 0.000521299 0)
(-3.62235e-09 0.0005213 0)
(-4.8768e-09 0.0005213 0)
(-6.25897e-09 0.0005213 0)
(-7.93526e-09 0.0005213 0)
(-9.80092e-09 0.0005213 0)
(-1.21613e-08 0.0005213 0)
(-1.48317e-08 0.0005213 0)
(-1.83672e-08 0.0005213 0)
(-2.23234e-08 0.0005213 0)
(-2.78995e-08 0.0005213 0)
(-3.40508e-08 0.000521301 0)
(-4.33032e-08 0.000521301 0)
(-5.34147e-08 0.000521302 0)
(-6.98654e-08 0.000521303 0)
(-8.77035e-08 0.000521304 0)
(-1.19659e-07 0.000521306 0)
(-1.54508e-07 0.00052131 0)
(-2.24758e-07 0.000521315 0)
(-3.03364e-07 0.000521328 0)
(-4.90274e-07 0.000521344 0)
(-7.10845e-07 0.000521402 0)
(-1.39323e-06 0.000521481 0)
(-2.29993e-06 0.000521981 0)
(-6.50871e-06 0.000522911 0)
(-1.31733e-05 0.000534663 0)
(-3.34732e-05 0.000534847 0)
(-2.55218e-05 0.00049196 0)
(2.19552e-05 -4.79585e-06 0)
(3.00758e-05 3.95904e-05 0)
(1.35525e-05 3.97395e-05 0)
(6.83953e-06 2.76795e-05 0)
(2.50218e-06 2.6622e-05 0)
(1.51447e-06 2.60445e-05 0)
(7.80762e-07 2.59503e-05 0)
(5.37349e-07 2.58809e-05 0)
(3.34115e-07 2.5862e-05 0)
(2.47132e-07 2.58463e-05 0)
(1.70368e-07 2.58405e-05 0)
(1.31744e-07 2.58354e-05 0)
(9.6726e-08 2.58332e-05 0)
(7.69372e-08 2.58312e-05 0)
(5.88579e-08 2.58302e-05 0)
(4.76482e-08 2.58293e-05 0)
(3.74596e-08 2.58288e-05 0)
(3.06386e-08 2.58283e-05 0)
(2.4504e-08 2.5828e-05 0)
(2.01223e-08 2.58278e-05 0)
(1.62243e-08 2.58276e-05 0)
(1.32838e-08 2.58275e-05 0)
(1.06838e-08 2.58274e-05 0)
(8.62956e-09 2.58273e-05 0)
(6.8024e-09 2.58272e-05 0)
(5.2888e-09 2.58272e-05 0)
(3.91841e-09 2.58272e-05 0)
(2.71443e-09 2.58271e-05 0)
(1.58448e-09 2.58271e-05 0)
(5.25042e-10 2.58271e-05 0)
(-5.33423e-10 2.58271e-05 0)
(-1.58835e-09 2.58271e-05 0)
(-2.71481e-09 2.58271e-05 0)
(-3.9231e-09 2.58272e-05 0)
(-5.28944e-09 2.58272e-05 0)
(-6.80054e-09 2.58272e-05 0)
(-8.63185e-09 2.58273e-05 0)
(-1.06826e-08 2.58274e-05 0)
(-1.32762e-08 2.58275e-05 0)
(-1.622e-08 2.58276e-05 0)
(-2.01129e-08 2.58278e-05 0)
(-2.44915e-08 2.5828e-05 0)
(-3.06304e-08 2.58283e-05 0)
(-3.74491e-08 2.58288e-05 0)
(-4.76329e-08 2.58293e-05 0)
(-5.88447e-08 2.58302e-05 0)
(-7.69201e-08 2.58312e-05 0)
(-9.67033e-08 2.58332e-05 0)
(-1.31727e-07 2.58354e-05 0)
(-1.70348e-07 2.58405e-05 0)
(-2.47109e-07 2.58463e-05 0)
(-3.34101e-07 2.5862e-05 0)
(-5.37334e-07 2.58809e-05 0)
(-7.80744e-07 2.59503e-05 0)
(-1.51445e-06 2.60445e-05 0)
(-2.50217e-06 2.6622e-05 0)
(-6.83951e-06 2.76795e-05 0)
(-1.35525e-05 3.97395e-05 0)
(-3.00758e-05 3.95903e-05 0)
(-2.19551e-05 -4.79593e-06 0)
(1.85945e-05 -9.00121e-05 0)
(2.68211e-05 -4.41723e-05 0)
(1.38348e-05 -4.36761e-05 0)
(7.13568e-06 -5.59692e-05 0)
(2.70187e-06 -5.71563e-05 0)
(1.63516e-06 -5.78144e-05 0)
(8.51793e-07 -5.79263e-05 0)
(5.85145e-07 -5.80078e-05 0)
(3.65576e-07 -5.80305e-05 0)
(2.69979e-07 -5.80491e-05 0)
(1.86627e-07 -5.80561e-05 0)
(1.44118e-07 -5.80621e-05 0)
(1.05977e-07 -5.80648e-05 0)
(8.41835e-08 -5.80672e-05 0)
(6.44468e-08 -5.80684e-05 0)
(5.21007e-08 -5.80695e-05 0)
(4.09601e-08 -5.80701e-05 0)
(3.34516e-08 -5.80707e-05 0)
(2.67386e-08 -5.8071e-05 0)
(2.1922e-08 -5.80713e-05 0)
(1.76577e-08 -5.80715e-05 0)
(1.44337e-08 -5.80717e-05 0)
(1.15944e-08 -5.80718e-05 0)
(9.3498e-09 -5.80719e-05 0)
(7.36127e-09 -5.8072e-05 0)
(5.71524e-09 -5.8072e-05 0)
(4.23008e-09 -5.80721e-05 0)
(2.92763e-09 -5.80721e-05 0)
(1.70799e-09 -5.80721e-05 0)
(5.65383e-10 -5.80721e-05 0)
(-5.73926e-10 -5.80721e-05 0)
(-1.71232e-09 -5.80721e-05 0)
(-2.92902e-09 -5.80721e-05 0)
(-4.2342e-09 -5.80721e-05 0)
(-5.71592e-09 -5.8072e-05 0)
(-7.36011e-09 -5.8072e-05 0)
(-9.35124e-09 -5.80719e-05 0)
(-1.1593e-08 -5.80718e-05 0)
(-1.44263e-08 -5.80717e-05 0)
(-1.76522e-08 -5.80715e-05 0)
(-2.19119e-08 -5.80713e-05 0)
(-2.67259e-08 -5.8071e-05 0)
(-3.34418e-08 -5.80707e-05 0)
(-4.09485e-08 -5.80701e-05 0)
(-5.2085e-08 -5.80695e-05 0)
(-6.44316e-08 -5.80684e-05 0)
(-8.41651e-08 -5.80672e-05 0)
(-1.05954e-07 -5.80648e-05 0)
(-1.44099e-07 -5.80621e-05 0)
(-1.86605e-07 -5.80561e-05 0)
(-2.69954e-07 -5.80491e-05 0)
(-3.65559e-07 -5.80305e-05 0)
(-5.85129e-07 -5.80078e-05 0)
(-8.51775e-07 -5.79263e-05 0)
(-1.63515e-06 -5.78144e-05 0)
(-2.70186e-06 -5.71563e-05 0)
(-7.13566e-06 -5.59692e-05 0)
(-1.38348e-05 -4.3676e-05 0)
(-2.68211e-05 -4.41723e-05 0)
(-1.85945e-05 -9.00122e-05 0)
(1.54336e-05 -4.10888e-05 0)
(2.37053e-05 5.78838e-06 0)
(1.40226e-05 6.64233e-06 0)
(7.39623e-06 -5.81003e-06 0)
(2.8979e-06 -7.12772e-06 0)
(1.75491e-06 -7.86964e-06 0)
(9.23807e-07 -8.00106e-06 0)
(6.33615e-07 -8.09577e-06 0)
(3.97735e-07 -8.12271e-06 0)
(2.93312e-07 -8.1445e-06 0)
(2.03301e-07 -8.1528e-06 0)
(1.56797e-07 -8.15986e-06 0)
(1.15481e-07 -8.16307e-06 0)
(9.16224e-08 -8.1659e-06 0)
(7.0195e-08 -8.16735e-06 0)
(5.66779e-08 -8.16865e-06 0)
(4.45638e-08 -8.16939e-06 0)
(3.63468e-08 -8.17005e-06 0)
(2.9041e-08 -8.17045e-06 0)
(2.37763e-08 -8.17081e-06 0)
(1.91361e-08 -8.17104e-06 0)
(1.56196e-08 -8.17125e-06 0)
(1.25343e-08 -8.17139e-06 0)
(1.00934e-08 -8.17151e-06 0)
(7.93872e-09 -8.1716e-06 0)
(6.15595e-09 -8.17167e-06 0)
(4.55237e-09 -8.17171e-06 0)
(3.14809e-09 -8.17175e-06 0)
(1.83579e-09 -8.17178e-06 0)
(6.07164e-10 -8.17178e-06 0)
(-6.15859e-10 -8.17179e-06 0)
(-1.84056e-09 -8.17178e-06 0)
(-3.15046e-09 -8.17175e-06 0)
(-4.55601e-09 -8.17171e-06 0)
(-6.15666e-09 -8.17167e-06 0)
(-7.93819e-09 -8.17159e-06 0)
(-1.00941e-08 -8.17151e-06 0)
(-1.25327e-08 -8.1714e-06 0)
(-1.56123e-08 -8.17125e-06 0)
(-1.91294e-08 -8.17104e-06 0)
(-2.37653e-08 -8.17082e-06 0)
(-2.90282e-08 -8.17044e-06 0)
(-3.63352e-08 -8.17004e-06 0)
(-4.4551e-08 -8.16939e-06 0)
(-5.66618e-08 -8.16865e-06 0)
(-7.01778e-08 -8.16735e-06 0)
(-9.16025e-08 -8.1659e-06 0)
(-1.15456e-07 -8.16307e-06 0)
(-1.56775e-07 -8.15985e-06 0)
(-2.03277e-07 -8.15281e-06 0)
(-2.93286e-07 -8.1445e-06 0)
(-3.97717e-07 -8.12271e-06 0)
(-6.33597e-07 -8.09578e-06 0)
(-9.23788e-07 -8.00106e-06 0)
(-1.7549e-06 -7.86963e-06 0)
(-2.89789e-06 -7.12773e-06 0)
(-7.39621e-06 -5.81003e-06 0)
(-1.40226e-05 6.64233e-06 0)
(-2.37053e-05 5.78837e-06 0)
(-1.54335e-05 -4.10889e-05 0)
(1.24692e-05 -2.36404e-05 0)
(2.07283e-05 2.40374e-05 0)
(1.4119e-05 2.5258e-05 0)
(7.62036e-06 1.27186e-05 0)
(3.08913e-06 1.12706e-05 0)
(1.87328e-06 1.04424e-05 0)
(9.96635e-07 1.02896e-05 0)
(6.82689e-07 1.01806e-05 0)
(4.30567e-07 1.01489e-05 0)
(3.1712e-07 1.01236e-05 0)
(2.20387e-07 1.01138e-05 0)
(1.69781e-07 1.01056e-05 0)
(1.25239e-07 1.01018e-05 0)
(9.92558e-08 1.00985e-05 0)
(7.61044e-08 1.00968e-05 0)
(6.13818e-08 1.00953e-05 0)
(4.82724e-08 1.00944e-05 0)
(3.93257e-08 1.00936e-05 0)
(3.14128e-08 1.00931e-05 0)
(2.56864e-08 1.00927e-05 0)
(2.06604e-08 1.00924e-05 0)
(1.68426e-08 1.00922e-05 0)
(1.35044e-08 1.0092e-05 0)
(1.08611e-08 1.00919e-05 0)
(8.5353e-09 1.00918e-05 0)
(6.61134e-09 1.00917e-05 0)
(4.88559e-09 1.00916e-05 0)
(3.37601e-09 1.00916e-05 0)
(1.96798e-09 1.00916e-05 0)
(6.50419e-10 1.00915e-05 0)
(-6.59263e-10 1.00915e-05 0)
(-1.97322e-09 1.00915e-05 0)
(-3.37936e-09 1.00916e-05 0)
(-4.88882e-09 1.00916e-05 0)
(-6.61205e-09 1.00917e-05 0)
(-8.5353e-09 1.00918e-05 0)
(-1.0861e-08 1.00919e-05 0)
(-1.35026e-08 1.0092e-05 0)
(-1.68353e-08 1.00922e-05 0)
(-2.06525e-08 1.00924e-05 0)
(-2.56746e-08 1.00927e-05 0)
(-3.13996e-08 1.00931e-05 0)
(-3.93125e-08 1.00936e-05 0)
(-4.82585e-08 1.00944e-05 0)
(-6.13651e-08 1.00953e-05 0)
(-7.60854e-08 1.00968e-05 0)
(-9.92345e-08 1.00985e-05 0)
(-1.25213e-07 1.01018e-05 0)
(-1.69756e-07 1.01056e-05 0)
(-2.20361e-07 1.01138e-05 0)
(-3.17094e-07 1.01236e-05 0)
(-4.30547e-07 1.01489e-05 0)
(-6.8267e-07 1.01806e-05 0)
(-9.96615e-07 1.02896e-05 0)
(-1.87327e-06 1.04424e-05 0)
(-3.08912e-06 1.12706e-05 0)
(-7.62034e-06 1.27186e-05 0)
(-1.4119e-05 2.5258e-05 0)
(-2.07283e-05 2.40374e-05 0)
(-1.24692e-05 -2.36405e-05 0)
(9.70147e-06 -2.86569e-05 0)
(1.78932e-05 1.96624e-05 0)
(1.41272e-05 2.12563e-05 0)
(7.80742e-06 8.7e-06 0)
(3.2744e-06 7.12349e-06 0)
(1.98982e-06 6.2069e-06 0)
(1.07009e-06 6.03104e-06 0)
(7.32288e-07 5.90655e-06 0)
(4.64039e-07 5.86969e-06 0)
(3.41391e-07 5.84051e-06 0)
(2.3788e-07 5.8291e-06 0)
(1.83068e-07 5.81956e-06 0)
(1.35252e-07 5.81513e-06 0)
(1.07085e-07 5.81129e-06 0)
(8.21771e-08 5.80928e-06 0)
(6.62142e-08 5.8075e-06 0)
(5.20877e-08 5.80648e-06 0)
(4.239e-08 5.80557e-06 0)
(3.38553e-08 5.80501e-06 0)
(2.76535e-08 5.80451e-06 0)
(2.22318e-08 5.80418e-06 0)
(1.81035e-08 5.8039e-06 0)
(1.45055e-08 5.8037e-06 0)
(1.16535e-08 5.80353e-06 0)
(9.15151e-09 5.80341e-06 0)
(7.08181e-09 5.80331e-06 0)
(5.23007e-09 5.80324e-06 0)
(3.61166e-09 5.80319e-06 0)
(2.1047e-09 5.80315e-06 0)
(6.95152e-10 5.80314e-06 0)
(-7.04179e-10 5.80314e-06 0)
(-2.11041e-09 5.80315e-06 0)
(-3.61594e-09 5.80319e-06 0)
(-5.23293e-09 5.80324e-06 0)
(-7.08251e-09 5.8033e-06 0)
(-9.15197e-09 5.80341e-06 0)
(-1.16526e-08 5.80353e-06 0)
(-1.45034e-08 5.80369e-06 0)
(-1.80962e-08 5.8039e-06 0)
(-2.22227e-08 5.80418e-06 0)
(-2.76409e-08 5.8045e-06 0)
(-3.38417e-08 5.80501e-06 0)
(-4.23752e-08 5.80557e-06 0)
(-5.20727e-08 5.80647e-06 0)
(-6.61969e-08 5.8075e-06 0)
(-8.21562e-08 5.80928e-06 0)
(-1.07063e-07 5.81128e-06 0)
(-1.35225e-07 5.81513e-06 0)
(-1.83041e-07 5.81957e-06 0)
(-2.37853e-07 5.82909e-06 0)
(-3.41363e-07 5.84051e-06 0)
(-4.64016e-07 5.8697e-06 0)
(-7.32267e-07 5.90654e-06 0)
(-1.07007e-06 6.03104e-06 0)
(-1.9898e-06 6.20691e-06 0)
(-3.27438e-06 7.12349e-06 0)
(-7.8074e-06 8.70001e-06 0)
(-1.41272e-05 2.12563e-05 0)
(-1.78932e-05 1.96623e-05 0)
(-9.70144e-06 -2.8657e-05 0)
(7.12933e-06 -3.36497e-05 0)
(1.52024e-05 1.51404e-05 0)
(1.4051e-05 1.71118e-05 0)
(7.95694e-06 4.60652e-06 0)
(3.45252e-06 2.90447e-06 0)
(2.10402e-06 1.89832e-06 0)
(1.14396e-06 1.69755e-06 0)