/*--------------------------------*- C++ -*----------------------------------*\
| =========                 |                                                 |
| \\      /  F ield         | foam-extend: Open Source CFD                    |
|  \\    /   O peration     | Version:     4.0                                |
|   \\  /    A nd           | Web:         http://www.foam-extend.org         |
|    \\/     M anipulation  |                                                 |
\*---------------------------------------------------------------------------*/
FoamFile
{
    version     2.0;
    format      ascii;
    class       volVectorField;
    location    "19";
    object      U;
}
// * * * * * * * * * * * * * * * * * * * * * * * * * * * * * * * * * * * * * //

dimensions      [0 1 -1 0 0 0 0];

internalField   nonuniform List<vector> 
6960
(
(-5.89691e-27 -1.34926e-25 0)
(-4.16967e-27 -3.10722e-26 0)
(6.16405e-28 -5.10946e-26 0)
(-1.01985e-27 -6.46401e-26 0)
(-5.37833e-29 -6.21953e-26 0)
(-2.49374e-27 -4.12873e-26 0)
(-3.18441e-27 -1.33826e-26 0)
(-3.37667e-27 5.51287e-27 0)
(-4.18378e-27 1.18828e-26 0)
(-4.42876e-27 1.18213e-26 0)
(-2.91421e-27 8.61351e-27 0)
(-1.71339e-27 2.83351e-28 0)
(-2.60509e-27 -1.33246e-26 0)
(-3.86274e-27 -2.83955e-26 0)
(-2.97346e-27 -4.06325e-26 0)
(-8.16489e-28 -4.59573e-26 0)
(-4.25064e-28 -3.85646e-26 0)
(-1.35397e-27 -1.82113e-26 0)
(-1.55087e-27 2.89359e-27 0)
(-1.358e-27 1.10231e-26 0)
(-9.38153e-28 2.4767e-27 0)
(7.81892e-28 -1.85845e-26 0)
(2.33252e-27 -4.32204e-26 0)
(1.83348e-27 -5.86368e-26 0)
(1.35547e-27 -5.77862e-26 0)
(1.5753e-27 -4.60266e-26 0)
(1.19387e-27 -3.31807e-26 0)
(1.16182e-27 -2.25373e-26 0)
(1.21273e-27 -1.10491e-26 0)
(2.48834e-28 7.38138e-28 0)
(-1.47208e-28 6.9889e-27 0)
(3.84437e-28 6.02457e-27 0)
(-7.31288e-28 1.71529e-28 0)
(-2.55126e-27 -1.30858e-26 0)
(-1.54403e-27 -3.59047e-26 0)
(1.0794e-27 -5.71954e-26 0)
(1.60844e-27 -6.10176e-26 0)
(-4.5069e-28 -4.50917e-26 0)
(-1.60572e-27 -1.98432e-26 0)
(-7.20157e-28 2.6671e-27 0)
(-5.53043e-28 1.3903e-26 0)
(-1.49844e-27 1.04542e-26 0)
(-1.8025e-27 -2.40755e-27 0)
(-5.28251e-28 -1.41121e-26 0)
(2.02969e-27 -2.08336e-26 0)
(3.41845e-27 -2.5612e-26 0)
(2.70089e-27 -2.71877e-26 0)
(1.45126e-27 -2.02301e-26 0)
(-9.2362e-29 -5.66007e-27 0)
(-9.41803e-28 6.32412e-27 0)
(-2.9421e-28 6.62887e-27 0)
(1.65037e-27 -1.63465e-27 0)
(4.04907e-27 -1.10627e-26 0)
(5.05595e-27 -2.05276e-26 0)
(3.85519e-27 -3.2104e-26 0)
(3.27004e-27 -4.48626e-26 0)
(4.24741e-27 -5.69994e-26 0)
(3.83553e-27 -6.6402e-26 0)
(1.79621e-27 -6.95456e-26 0)
(-5.62469e-28 -8.0073e-26 0)
(-1.92475e-26 -2.46752e-25 0)
(-1.44223e-26 -4.99963e-26 0)
(1.14263e-27 -9.671e-26 0)
(-3.68107e-27 -1.15753e-25 0)
(-6.00769e-28 -1.03107e-25 0)
(-6.54698e-27 -6.20874e-26 0)
(-8.57419e-27 -8.0744e-27 0)
(-9.62045e-27 3.51807e-26 0)
(-1.16789e-26 5.67898e-26 0)
(-1.1829e-26 6.08019e-26 0)
(-8.12256e-27 5.25735e-26 0)
(-5.72057e-27 2.95028e-26 0)
(-7.95338e-27 -9.30195e-27 0)
(-1.03753e-26 -5.39039e-26 0)
(-7.37577e-27 -8.8999e-26 0)
(-1.48617e-27 -1.02783e-25 0)
(-9.1762e-29 -8.60585e-26 0)
(-2.049e-27 -4.13391e-26 0)
(-2.75234e-27 5.9699e-27 0)
(-2.96831e-27 2.65935e-26 0)
(-2.53465e-27 1.00978e-26 0)
(1.45575e-27 -3.49845e-26 0)
(5.29578e-27 -8.76434e-26 0)
(4.26778e-27 -1.2251e-25 0)
(3.84677e-27 -1.27737e-25 0)
(5.21116e-27 -1.09216e-25 0)
(4.43808e-27 -7.89043e-26 0)
(4.27615e-27 -4.62024e-26 0)
(4.18654e-27 -1.45439e-26 0)
(1.41434e-27 1.2611e-26 0)
(-3.26232e-28 2.64842e-26 0)
(-3.65387e-28 2.18491e-26 0)
(-4.16096e-27 3.47873e-28 0)
(-8.55936e-27 -3.72843e-26 0)
(-5.28229e-27 -8.61876e-26 0)
(1.98585e-27 -1.24297e-25 0)
(4.16059e-27 -1.26749e-25 0)
(-6.26454e-28 -9.05911e-26 0)
(-4.15135e-27 -3.33752e-26 0)
(-2.28839e-27 1.80584e-26 0)
(-1.44259e-27 4.07629e-26 0)
(-3.71828e-27 2.90716e-26 0)
(-5.16634e-27 -1.48626e-27 0)
(-2.5178e-27 -2.89115e-26 0)
(4.32672e-27 -4.52381e-26 0)
(8.71692e-27 -5.16697e-26 0)
(7.63511e-27 -4.37405e-26 0)
(4.51909e-27 -1.72254e-26 0)
(1.95756e-28 2.08706e-26 0)
(-1.72829e-27 5.11998e-26 0)
(1.8287e-28 5.41997e-26 0)
(4.39869e-27 3.17316e-26 0)
(9.18374e-27 1.64525e-27 0)
(1.12146e-26 -2.25327e-26 0)
(9.04832e-27 -4.07756e-26 0)
(9.27003e-27 -6.10389e-26 0)
(1.26898e-26 -8.89465e-26 0)
(1.17153e-26 -1.13663e-25 0)
(5.67889e-27 -1.23484e-25 0)
(-1.55541e-27 -1.59222e-25 0)
(-3.63866e-26 -1.59124e-25 0)
(-2.90308e-26 4.28606e-26 0)
(3.18952e-28 -2.5201e-26 0)
(-7.01746e-27 -5.02377e-26 0)
(-1.15964e-27 -3.03484e-26 0)
(-9.39013e-27 2.15668e-26 0)
(-1.25605e-26 8.93072e-26 0)
(-1.45918e-26 1.5172e-25 0)
(-1.77115e-26 1.93795e-25 0)
(-1.78545e-26 2.10758e-25 0)
(-1.32219e-26 2.0378e-25 0)
(-1.08271e-26 1.69866e-25 0)
(-1.39915e-26 1.11545e-25 0)
(-1.63586e-26 4.63925e-26 0)
(-1.08524e-26 -3.91177e-27 0)
(-1.54409e-27 -2.74672e-26 0)
(1.21355e-27 -1.45283e-26 0)
(-1.03824e-27 3.39577e-26 0)
(-2.37601e-27 8.85062e-26 0)
(-3.49706e-27 1.16375e-25 0)
(-3.33913e-27 1.08594e-25 0)
(2.33002e-27 7.41723e-26 0)
(7.88855e-27 3.18652e-26 0)
(6.28602e-27 3.52098e-27 0)
(5.92786e-27 -4.11108e-27 0)
(8.5384e-27 5.54057e-27 0)
(7.80677e-27 3.12125e-26 0)
(7.65551e-27 6.60065e-26 0)
(7.26961e-27 1.01346e-25 0)
(2.89375e-27 1.3129e-25 0)
(-3.72381e-28 1.45456e-25 0)
(-1.90889e-27 1.38579e-25 0)
(-8.40791e-27 1.16552e-25 0)
(-1.45514e-26 8.28162e-26 0)
(-9.16007e-27 3.93125e-26 0)
(1.7908e-27 4.47299e-27 0)
(5.63464e-27 -4.75858e-28 0)
(-9.09965e-28 2.69156e-26 0)
(-6.63214e-27 7.62088e-26 0)
(-4.11073e-27 1.24817e-25 0)
(-2.03543e-27 1.47606e-25 0)
(-5.03009e-27 1.3767e-25 0)
(-8.12537e-27 1.109e-25 0)
(-5.32893e-27 8.65203e-26 0)
(4.89418e-27 6.81955e-26 0)
(1.24761e-26 5.70865e-26 0)
(1.20833e-26 6.49827e-26 0)
(7.88827e-27 9.94556e-26 0)
(1.30509e-27 1.53801e-25 0)
(-1.28546e-27 2.02857e-25 0)
(1.3909e-27 2.11664e-25 0)
(6.32149e-27 1.76012e-25 0)
(1.18659e-26 1.26483e-25 0)
(1.46202e-26 9.40609e-26 0)
(1.26353e-26 8.02269e-26 0)
(1.46533e-26 6.1438e-26 0)
(2.03268e-26 1.94498e-26 0)
(1.88277e-26 -2.38436e-26 0)
(8.77267e-27 -4.83026e-26 0)
(-2.74528e-27 -1.14755e-25 0)
(-5.58125e-26 -7.20087e-26 0)
(-4.66356e-26 1.50627e-25 0)
(-1.87441e-27 6.73354e-26 0)
(-1.08371e-26 3.46378e-26 0)
(-1.62574e-27 5.43079e-26 0)
(-1.12813e-26 1.09472e-25 0)
(-1.54074e-26 1.82089e-25 0)
(-1.83791e-26 2.50921e-25 0)
(-2.23995e-26 3.00185e-25 0)
(-2.27171e-26 3.2398e-25 0)
(-1.81223e-26 3.23899e-25 0)
(-1.64557e-26 2.96434e-25 0)
(-2.0114e-26 2.44566e-25 0)
(-2.16912e-26 1.85893e-25 0)
(-1.38301e-26 1.35867e-25 0)
(-1.74061e-27 9.77254e-26 0)
(2.65608e-27 8.70513e-26 0)
(1.04455e-27 1.19884e-25 0)
(-5.13996e-28 1.75168e-25 0)
(-2.43259e-27 2.20399e-25 0)
(-2.54129e-27 2.43459e-25 0)
(4.16062e-27 2.42076e-25 0)
(1.06375e-26 2.22169e-25 0)
(8.13985e-27 2.03653e-25 0)
(7.52025e-27 1.96377e-25 0)
(1.11526e-26 1.98275e-25 0)
(1.06475e-26 2.10332e-25 0)
(1.05232e-26 2.27598e-25 0)
(9.77372e-27 2.45873e-25 0)
(4.20632e-27 2.64393e-25 0)
(-3.6088e-28 2.72359e-25 0)
(-3.57042e-27 2.66548e-25 0)
(-1.22061e-26 2.61101e-25 0)
(-1.92557e-26 2.58574e-25 0)
(-1.21578e-26 2.46063e-25 0)
(1.12715e-27 2.28537e-25 0)
(5.85586e-27 2.19343e-25 0)
(-2.18644e-27 2.20126e-25 0)
(-9.81274e-27 2.34445e-25 0)
(-6.53083e-27 2.56628e-25 0)
(-2.64981e-27 2.67029e-25 0)
(-5.70084e-27 2.57147e-25 0)
(-1.04031e-26 2.42593e-25 0)
(-8.17291e-27 2.384e-25 0)
(4.31591e-27 2.33233e-25 0)
(1.45231e-26 2.15478e-25 0)
(1.52566e-26 2.01685e-25 0)
(1.07901e-26 2.15723e-25 0)
(2.83912e-27 2.6483e-25 0)
(1.38999e-28 3.22807e-25 0)
(3.19072e-27 3.39139e-25 0)
(7.76325e-27 3.01864e-25 0)
(1.31355e-26 2.47636e-25 0)
(1.66184e-26 2.16024e-25 0)
(1.54577e-26 2.08509e-25 0)
(1.92957e-26 1.91753e-25 0)
(2.64783e-26 1.38272e-25 0)
(2.45487e-26 7.98411e-26 0)
(1.08587e-26 4.61933e-26 0)
(-3.8444e-27 -3.7235e-26 0)
(-7.6199e-26 -1.89557e-26 0)
(-6.60512e-26 2.37852e-25 0)
(-5.44289e-27 1.40755e-25 0)
(-1.51993e-26 9.14509e-26 0)
(-2.01641e-27 1.00964e-25 0)
(-1.23211e-26 1.57774e-25 0)
(-1.74124e-26 2.35964e-25 0)
(-2.15793e-26 3.03279e-25 0)
(-2.64643e-26 3.44203e-25 0)
(-2.68268e-26 3.63719e-25 0)
(-2.24832e-26 3.73069e-25 0)
(-2.1584e-26 3.6872e-25 0)
(-2.52551e-26 3.48519e-25 0)
(-2.58697e-26 3.21064e-25 0)
(-1.65003e-26 2.85688e-25 0)
(-2.69471e-27 2.32564e-25 0)
(3.55799e-27 1.89039e-25 0)
(3.81316e-27 1.99308e-25 0)
(2.9552e-27 2.57451e-25 0)
(6.64953e-28 3.29658e-25 0)
(1.5703e-28 3.93459e-25 0)
(6.84879e-27 4.28017e-25 0)
(1.3248e-26 4.26618e-25 0)
(9.80253e-27 4.16793e-25 0)
(8.96354e-27 4.18442e-25 0)
(1.32626e-26 4.22687e-25 0)
(1.26203e-26 4.18817e-25 0)
(1.22192e-26 4.02615e-25 0)
(1.11669e-26 3.85224e-25 0)
(5.01515e-27 3.80043e-25 0)
(-3.2887e-28 3.78849e-25 0)
(-4.745e-27 3.82445e-25 0)
(-1.45308e-26 4.12264e-25 0)
(-2.19054e-26 4.60385e-25 0)
(-1.39028e-26 4.87713e-25 0)
(2.75893e-28 4.85118e-25 0)
(4.94296e-27 4.66042e-25 0)
(-4.65533e-27 4.35686e-25 0)
(-1.3927e-26 4.09495e-25 0)
(-9.70967e-27 3.97331e-25 0)
(-3.66948e-27 3.87127e-25 0)
(-6.22046e-27 3.71742e-25 0)
(-1.19694e-26 3.69498e-25 0)
(-1.03478e-26 3.92294e-25 0)
(3.2213e-27 4.07346e-25 0)
(1.46513e-26 3.78448e-25 0)
(1.62125e-26 3.23372e-25 0)
(1.22739e-26 2.91953e-25 0)
(4.18221e-27 3.15974e-25 0)
(2.10989e-27 3.71678e-25 0)
(5.48915e-27 3.94709e-25 0)
(9.32006e-27 3.6692e-25 0)
(1.40727e-26 3.24432e-25 0)
(1.80759e-26 3.0201e-25 0)
(1.77311e-26 2.96627e-25 0)
(2.29627e-26 2.75209e-25 0)
(3.09164e-26 2.11034e-25 0)
(2.88323e-26 1.42956e-25 0)
(1.22383e-26 1.07816e-25 0)
(-4.68207e-27 2.47273e-26 0)
(-9.64072e-26 1.94434e-26 0)
(-8.6129e-26 3.21528e-25 0)
(-1.03654e-26 2.09539e-25 0)
(-2.03187e-26 1.36315e-25 0)
(-2.52939e-27 1.28564e-25 0)
(-1.27153e-26 1.82999e-25 0)
(-1.88476e-26 2.65678e-25 0)
(-2.46459e-26 3.30954e-25 0)
(-3.04641e-26 3.60413e-25 0)
(-3.04962e-26 3.70823e-25 0)
(-2.59946e-26 3.88521e-25 0)
(-2.53856e-26 4.13329e-25 0)
(-2.8614e-26 4.34656e-25 0)
(-2.84721e-26 4.47528e-25 0)
(-1.87437e-26 4.35706e-25 0)
(-4.43347e-27 3.78497e-25 0)
(3.70948e-27 3.12824e-25 0)
(6.91072e-27 3.06714e-25 0)
(7.7442e-27 3.68121e-25 0)
(5.59065e-27 4.62094e-25 0)
(4.50399e-27 5.56061e-25 0)
(1.02064e-26 6.15967e-25 0)
(1.58089e-26 6.31584e-25 0)
(1.16552e-26 6.39488e-25 0)
(1.0689e-26 6.60606e-25 0)
(1.49915e-26 6.71338e-25 0)
(1.33997e-26 6.49679e-25 0)
(1.22017e-26 5.9434e-25 0)
(1.09906e-26 5.32202e-25 0)
(5.06247e-27 4.95775e-25 0)
(-1.48619e-28 4.87571e-25 0)
(-4.7852e-27 5.1192e-25 0)
(-1.46254e-26 5.8755e-25 0)
(-2.21662e-26 6.88822e-25 0)
(-1.44431e-26 7.51011e-25 0)
(-8.2641e-28 7.54466e-25 0)
(2.92066e-27 7.18355e-25 0)
(-8.30062e-27 6.581e-25 0)
(-1.89717e-26 5.99702e-25 0)
(-1.37134e-26 5.58902e-25 0)
(-5.30762e-27 5.2725e-25 0)
(-6.78829e-27 5.04322e-25 0)
(-1.27831e-26 5.12864e-25 0)
(-1.1585e-26 5.56907e-25 0)
(1.85344e-27 5.82583e-25 0)
(1.27912e-26 5.35311e-25 0)
(1.4503e-26 4.35286e-25 0)
(1.17553e-26 3.52982e-25 0)
(4.80125e-27 3.42477e-25 0)
(4.18684e-27 3.87517e-25 0)
(8.1576e-27 4.15358e-25 0)
(1.13994e-26 4.01284e-25 0)
(1.54293e-26 3.76555e-25 0)
(1.95485e-26 3.67081e-25 0)
(1.95261e-26 3.63601e-25 0)
(2.55272e-26 3.35207e-25 0)
(3.37019e-26 2.60591e-25 0)
(3.18429e-26 1.85856e-25 0)
(1.32683e-26 1.53505e-25 0)
(-5.27657e-27 8.31361e-26 0)
(-1.15742e-25 5.1012e-26 0)
(-1.06109e-25 4.04728e-25 0)
(-1.6681e-26 2.73355e-25 0)
(-2.63005e-26 1.74545e-25 0)
(-3.35947e-27 1.48797e-25 0)
(-1.27532e-26 1.9631e-25 0)
(-1.98241e-26 2.80371e-25 0)
(-2.75307e-26 3.48788e-25 0)
(-3.4456e-26 3.76131e-25 0)
(-3.39055e-26 3.81542e-25 0)
(-2.86688e-26 4.03627e-25 0)
(-2.76828e-26 4.48927e-25 0)
(-3.01101e-26 5.0113e-25 0)
(-2.95031e-26 5.45705e-25 0)
(-2.02879e-26 5.59586e-25 0)
(-6.33044e-27 5.16269e-25 0)
(3.61287e-27 4.54229e-25 0)
(1.02955e-26 4.50053e-25 0)
(1.33011e-26 5.15493e-25 0)
(1.14695e-26 6.14151e-25 0)
(9.63804e-27 7.12642e-25 0)
(1.39178e-26 7.7915e-25 0)
(1.8663e-26 8.09313e-25 0)
(1.41879e-26 8.41968e-25 0)
(1.29123e-26 8.85961e-25 0)
(1.63548e-26 9.01856e-25 0)
(1.30051e-26 8.65915e-25 0)
(1.04847e-26 7.81837e-25 0)
(9.19204e-27 6.84448e-25 0)
(4.36475e-27 6.23306e-25 0)
(4.55481e-28 6.1578e-25 0)
(-3.3388e-27 6.65117e-25 0)
(-1.25149e-26 7.77437e-25 0)
(-2.04695e-26 9.11726e-25 0)
(-1.42199e-26 9.90265e-25 0)
(-2.37948e-27 9.89576e-25 0)
(-1.45244e-28 9.34499e-25 0)
(-1.27992e-26 8.52692e-25 0)
(-2.44642e-26 7.80621e-25 0)
(-1.81718e-26 7.31063e-25 0)
(-7.4617e-27 6.89615e-25 0)
(-7.49437e-27 6.60308e-25 0)
(-1.31327e-26 6.7016e-25 0)
(-1.2338e-26 7.1572e-25 0)
(-4.9263e-29 7.31629e-25 0)
(9.13478e-27 6.60314e-25 0)
(1.04893e-26 5.27142e-25 0)
(9.35339e-27 4.09305e-25 0)
(4.51117e-27 3.70906e-25 0)
(6.08625e-27 4.04415e-25 0)
(1.09917e-26 4.33911e-25 0)
(1.39335e-26 4.28104e-25 0)
(1.73309e-26 4.14051e-25 0)
(2.12972e-26 4.14571e-25 0)
(2.10343e-26 4.16695e-25 0)
(2.70711e-26 3.86019e-25 0)
(3.49862e-26 3.02034e-25 0)
(3.37685e-26 2.19457e-25 0)
(1.41865e-26 1.90247e-25 0)
(-5.6682e-27 1.36919e-25 0)
(-1.33767e-25 6.93239e-26 0)
(-1.25442e-25 4.79962e-25 0)
(-2.43953e-26 3.29097e-25 0)
(-3.30956e-26 2.07578e-25 0)
(-4.5812e-27 1.66528e-25 0)
(-1.267e-26 2.06213e-25 0)
(-2.03687e-26 2.89899e-25 0)
(-2.99312e-26 3.65005e-25 0)
(-3.81161e-26 3.9989e-25 0)
(-3.70325e-26 4.08546e-25 0)
(-3.07998e-26 4.32106e-25 0)
(-2.89935e-26 4.81076e-25 0)
(-3.03564e-26 5.407e-25 0)
(-2.93252e-26 5.99324e-25 0)
(-2.0855e-26 6.3698e-25 0)
(-7.50506e-27 6.22766e-25 0)
(4.14651e-27 5.88217e-25 0)
(1.42014e-26 6.04286e-25 0)
(1.90419e-26 6.74847e-25 0)
(1.71966e-26 7.61606e-25 0)
(1.45493e-26 8.42205e-25 0)
(1.7594e-26 8.98897e-25 0)
(2.19276e-26 9.33698e-25 0)
(1.75149e-26 9.82645e-25 0)
(1.56031e-26 1.04269e-24 0)
(1.7451e-26 1.06366e-24 0)
(1.18596e-26 1.02404e-24 0)
(7.72162e-27 9.32594e-25 0)
(6.41435e-27 8.271e-25 0)
(3.36422e-27 7.64437e-25 0)
(1.61852e-27 7.6614e-25 0)
(-7.39247e-28 8.28822e-25 0)
(-9.07966e-27 9.4981e-25 0)
(-1.78655e-26 1.08442e-24 0)
(-1.38953e-26 1.15492e-24 0)
(-4.47902e-27 1.14152e-24 0)
(-3.94878e-27 1.07375e-24 0)
(-1.75917e-26 9.85979e-25 0)
(-2.96345e-26 9.21549e-25 0)
(-2.23121e-26 8.87325e-25 0)
(-9.74072e-27 8.54134e-25 0)
(-8.54735e-27 8.19318e-25 0)
(-1.37419e-26 8.13103e-25 0)
(-1.34471e-26 8.36687e-25 0)
(-2.84902e-27 8.28192e-25 0)
(4.09274e-27 7.34878e-25 0)
(5.02955e-27 5.85821e-25 0)
(5.81542e-27 4.56444e-25 0)
(3.63889e-27 4.09686e-25 0)
(7.73726e-27 4.38978e-25 0)
(1.36559e-26 4.65188e-25 0)
(1.6472e-26 4.56298e-25 0)
(1.94828e-26 4.4211e-25 0)
(2.33722e-26 4.47667e-25 0)
(2.25328e-26 4.57983e-25 0)
(2.78635e-26 4.3124e-25 0)
(3.49675e-26 3.41376e-25 0)
(3.47262e-26 2.48771e-25 0)
(1.50599e-26 2.19188e-25 0)
(-5.84395e-27 1.80385e-25 0)
(-1.50062e-25 6.47172e-26 0)
(-1.43528e-25 5.35376e-25 0)
(-3.33191e-26 3.75392e-25 0)
(-4.0614e-26 2.37628e-25 0)
(-6.1531e-27 1.83862e-25 0)
(-1.24973e-26 2.18565e-25 0)
(-2.04929e-26 3.03363e-25 0)
(-3.17261e-26 3.83789e-25 0)
(-4.1209e-26 4.25425e-25 0)
(-3.97853e-26 4.38866e-25 0)
(-3.27201e-26 4.61654e-25 0)
(-3.00861e-26 5.01899e-25 0)
(-3.01988e-26 5.50089e-25 0)
(-2.84002e-26 6.07884e-25 0)
(-2.03212e-26 6.64597e-25 0)
(-7.39181e-27 6.83193e-25 0)
(5.90623e-27 6.82757e-25 0)
(1.88232e-26 7.23573e-25 0)
(2.4626e-26 7.9943e-25 0)
(2.21283e-26 8.71504e-25 0)
(1.86392e-26 9.30019e-25 0)
(2.07851e-26 9.67749e-25 0)
(2.51423e-26 9.88514e-25 0)
(2.11836e-26 1.03115e-24 0)
(1.8621e-26 1.09415e-24 0)
(1.85923e-26 1.12287e-24 0)
(1.06638e-26 1.09466e-24 0)
(4.98546e-27 1.02114e-24 0)
(3.85756e-27 9.40526e-25 0)
(2.75803e-27 9.03202e-25 0)
(3.11401e-27 9.17356e-25 0)
(2.02449e-27 9.71263e-25 0)
(-5.64621e-27 1.06778e-24 0)
(-1.55583e-26 1.1726e-24 0)
(-1.413e-26 1.21518e-24 0)
(-7.0704e-27 1.18394e-24 0)
(-7.93719e-27 1.11354e-24 0)
(-2.19836e-26 1.03829e-24 0)
(-3.37414e-26 1.00068e-24 0)
(-2.53993e-26 9.98056e-25 0)
(-1.18002e-26 9.82339e-25 0)
(-1.03086e-26 9.38397e-25 0)
(-1.54143e-26 9.02006e-25 0)
(-1.55258e-26 8.92051e-25 0)
(-6.5645e-27 8.59875e-25 0)
(-1.79825e-27 7.55468e-25 0)
(-1.01072e-27 6.06525e-25 0)
(2.08036e-27 4.85299e-25 0)
(2.82843e-27 4.49105e-25 0)
(9.2346e-27 4.83159e-25 0)
(1.58159e-26 5.02941e-25 0)
(1.85815e-26 4.83962e-25 0)
(2.1601e-26 4.65392e-25 0)
(2.57015e-26 4.73458e-25 0)
(2.41554e-26 4.89958e-25 0)
(2.81897e-26 4.68316e-25 0)
(3.39204e-26 3.76778e-25 0)
(3.479e-26 2.74705e-25 0)
(1.57865e-26 2.4003e-25 0)
(-5.84235e-27 2.08862e-25 0)
(-1.64215e-25 3.37057e-26 0)
(-1.5971e-25 5.6043e-25 0)
(-4.29803e-26 4.07908e-25 0)
(-4.87208e-26 2.65227e-25 0)
(-8.00104e-27 2.02416e-25 0)
(-1.2134e-26 2.34649e-25 0)
(-2.02128e-26 3.21959e-25 0)
(-3.31202e-26 4.0343e-25 0)
(-4.39728e-26 4.41242e-25 0)
(-4.23282e-26 4.48448e-25 0)
(-3.46336e-26 4.64723e-25 0)
(-3.13522e-26 4.95259e-25 0)
(-3.0124e-26 5.30936e-25 0)
(-2.70821e-26 5.8359e-25 0)
(-1.88528e-26 6.52119e-25 0)
(-6.09521e-27 6.93519e-25 0)
(8.73998e-27 7.13758e-25 0)
(2.40346e-26 7.67015e-25 0)
(3.01155e-26 8.46837e-25 0)
(2.64619e-26 9.15915e-25 0)
(2.1911e-26 9.64348e-25 0)
(2.30303e-26 9.80886e-25 0)
(2.74821e-26 9.70261e-25 0)
(2.44617e-26 9.85692e-25 0)
(2.17777e-26 1.03897e-24 0)
(2.01835e-26 1.07616e-24 0)
(1.0234e-26 1.07302e-24 0)
(3.3939e-27 1.0395e-24 0)
(2.62323e-27 1.00541e-24 0)
(3.0162e-27 1.00442e-24 0)
(4.4824e-27 1.02652e-24 0)
(3.88534e-27 1.05525e-24 0)
(-3.37789e-27 1.10714e-24 0)
(-1.44422e-26 1.16602e-24 0)
(-1.53461e-26 1.17271e-24 0)
(-1.00351e-26 1.12378e-24 0)
(-1.15684e-26 1.05798e-24 0)
(-2.53301e-26 1.00785e-24 0)
(-3.63214e-26 1.00837e-24 0)
(-2.72484e-26 1.03869e-24 0)
(-1.37411e-26 1.03231e-24 0)
(-1.30805e-26 9.71857e-25 0)
(-1.84252e-26 9.06349e-25 0)
(-1.85522e-26 8.71818e-25 0)
(-1.08023e-26 8.29307e-25 0)
(-7.94659e-27 7.28732e-25 0)
(-7.00073e-27 5.93377e-25 0)
(-1.23603e-27 4.89903e-25 0)
(2.53582e-27 4.69874e-25 0)
(1.07524e-26 5.11881e-25 0)
(1.746e-26 5.28531e-25 0)
(2.02284e-26 5.04287e-25 0)
(2.36466e-26 4.85648e-25 0)
(2.81678e-26 4.96354e-25 0)
(2.58051e-26 5.14616e-25 0)
(2.81742e-26 4.94039e-25 0)
(3.21256e-26 4.01942e-25 0)
(3.40719e-26 2.92807e-25 0)
(1.62072e-26 2.50997e-25 0)
(-5.77225e-27 2.20675e-25 0)
(-1.76035e-25 -1.83793e-26 0)
(-1.73555e-25 5.51254e-25 0)
(-5.27476e-26 4.18029e-25 0)
(-5.71035e-26 2.84934e-25 0)
(-1.00362e-26 2.20861e-25 0)
(-1.1568e-26 2.51033e-25 0)
(-1.96185e-26 3.37896e-25 0)
(-3.44791e-26 4.15017e-25 0)
(-4.70317e-26 4.37463e-25 0)
(-4.51987e-26 4.22563e-25 0)
(-3.66603e-26 4.23244e-25 0)
(-3.25959e-26 4.49397e-25 0)
(-2.99938e-26 4.85061e-25 0)
(-2.55132e-26 5.38222e-25 0)
(-1.68926e-26 6.11369e-25 0)
(-4.32227e-27 6.58203e-25 0)
(1.18571e-26 6.76586e-25 0)
(2.94214e-26 7.2374e-25 0)
(3.58073e-26 8.04056e-25 0)
(3.08773e-26 8.8131e-25 0)
(2.47363e-26 9.32306e-25 0)
(2.41232e-26 9.32453e-25 0)
(2.84212e-26 8.89108e-25 0)
(2.68405e-26 8.73144e-25 0)
(2.48538e-26 9.10457e-25 0)
(2.24818e-26 9.52681e-25 0)
(1.12242e-26 9.79622e-25 0)
(3.61888e-27 9.93933e-25 0)
(3.01565e-27 1.00464e-24 0)
(4.01658e-27 1.02836e-24 0)
(5.36979e-27 1.04945e-24 0)
(4.39071e-27 1.05285e-24 0)
(-2.7434e-27 1.06343e-24 0)
(-1.48186e-26 1.08006e-24 0)
(-1.75921e-26 1.05638e-24 0)
(-1.32591e-26 9.95162e-25 0)
(-1.46069e-26 9.35864e-25 0)
(-2.73798e-26 9.09932e-25 0)
(-3.74245e-26 9.43717e-25 0)
(-2.83465e-26 9.93726e-25 0)
(-1.60734e-26 9.80203e-25 0)
(-1.68583e-26 8.99512e-25 0)
(-2.22677e-26 8.20227e-25 0)
(-2.18937e-26 7.83785e-25 0)
(-1.4962e-26 7.49024e-25 0)
(-1.37949e-26 6.65581e-25 0)
(-1.2574e-26 5.5298e-25 0)
(-4.05579e-27 4.67887e-25 0)
(2.74239e-27 4.57886e-25 0)
(1.24827e-26 5.05711e-25 0)
(1.9011e-26 5.27116e-25 0)
(2.17977e-26 5.09344e-25 0)
(2.57724e-26 4.97773e-25 0)
(3.06958e-26 5.12424e-25 0)
(2.73159e-26 5.30314e-25 0)
(2.77593e-26 5.06859e-25 0)
(2.97171e-26 4.11535e-25 0)
(3.27166e-26 2.9561e-25 0)
(1.62804e-26 2.47642e-25 0)
(-5.65257e-27 2.16798e-25 0)
(-1.85673e-25 -8.14158e-26 0)
(-1.85077e-25 5.1275e-25 0)
(-6.21465e-26 3.99644e-25 0)
(-6.53017e-26 2.86356e-25 0)
(-1.20879e-26 2.30727e-25 0)
(-1.09318e-26 2.59909e-25 0)
(-1.89451e-26 3.40664e-25 0)
(-3.61318e-26 4.07625e-25 0)
(-5.09185e-26 4.09722e-25 0)
(-4.89484e-26 3.66293e-25 0)
(-3.89473e-26 3.46105e-25 0)
(-3.34722e-26 3.6961e-25 0)
(-2.9383e-26 4.13478e-25 0)
(-2.36462e-26 4.7316e-25 0)
(-1.49084e-26 5.47451e-25 0)
(-2.89212e-27 5.87802e-25 0)
(1.44321e-26 5.90083e-25 0)
(3.45418e-26 6.19544e-25 0)
(4.17771e-26 6.92399e-25 0)
(3.57386e-26 7.72745e-25 0)
(2.75053e-26 8.27212e-25 0)
(2.44274e-26 8.22613e-25 0)
(2.82452e-26 7.65344e-25 0)
(2.83764e-26 7.32715e-25 0)
(2.7733e-26 7.5808e-25 0)
(2.54589e-26 8.01114e-25 0)
(1.36862e-26 8.49019e-25 0)
(5.43613e-27 8.95401e-25 0)
(4.40599e-27 9.27537e-25 0)
(5.17706e-27 9.53692e-25 0)
(5.72294e-27 9.66352e-25 0)
(3.9274e-27 9.56393e-25 0)
(-3.28949e-27 9.48312e-25 0)
(-1.6306e-26 9.4481e-25 0)
(-2.05734e-26 9.07095e-25 0)
(-1.66491e-26 8.42032e-25 0)
(-1.72339e-26 7.86812e-25 0)
(-2.85825e-26 7.70163e-25 0)
(-3.77541e-26 8.14512e-25 0)
(-2.94683e-26 8.63973e-25 0)
(-1.91838e-26 8.34957e-25 0)
(-2.12806e-26 7.40809e-25 0)
(-2.60647e-26 6.65387e-25 0)
(-2.47017e-26 6.46762e-25 0)
(-1.84419e-26 6.34605e-25 0)
(-1.89461e-26 5.76733e-25 0)
(-1.76173e-26 4.89592e-25 0)
(-6.58462e-27 4.20424e-25 0)
(3.2349e-27 4.16107e-25 0)
(1.45936e-26 4.68866e-25 0)
(2.09546e-26 4.99193e-25 0)
(2.37042e-26 4.93102e-25 0)
(2.81533e-26 4.91219e-25 0)
(3.33233e-26 5.11036e-25 0)
(2.86628e-26 5.30317e-25 0)
(2.68654e-26 5.04628e-25 0)
(2.66498e-26 4.04115e-25 0)
(3.07914e-26 2.78652e-25 0)
(1.61369e-26 2.24845e-25 0)
(-5.3481e-27 1.99263e-25 0)
(-1.93447e-25 -1.45295e-25 0)
(-1.94645e-25 4.5555e-25 0)
(-7.1107e-26 3.56089e-25 0)
(-7.30227e-26 2.62038e-25 0)
(-1.39324e-26 2.18861e-25 0)
(-1.03125e-26 2.50233e-25 0)
(-1.84502e-26 3.23355e-25 0)
(-3.82458e-26 3.77963e-25 0)
(-5.56782e-26 3.63356e-25 0)
(-5.36496e-26 2.99779e-25 0)
(-4.16401e-26 2.63031e-25 0)
(-3.40801e-26 2.79182e-25 0)
(-2.82678e-26 3.22607e-25 0)
(-2.14575e-26 3.83626e-25 0)
(-1.30379e-26 4.59281e-25 0)
(-2.06513e-27 4.97404e-25 0)
(1.62025e-26 4.88887e-25 0)
(3.90712e-26 4.99744e-25 0)
(4.75392e-26 5.51491e-25 0)
(4.06673e-26 6.14521e-25 0)
(3.04309e-26 6.63169e-25 0)
(2.48006e-26 6.66656e-25 0)
(2.79517e-26 6.21962e-25 0)
(2.97057e-26 5.96768e-25 0)
(3.05621e-26 6.2293e-25 0)
(2.87835e-26 6.63532e-25 0)
(1.68061e-26 7.10434e-25 0)
(7.71806e-27 7.55363e-25 0)
(5.73937e-27 7.79077e-25 0)
(5.9358e-27 7.91108e-25 0)
(5.72102e-27 7.93385e-25 0)
(3.3352e-27 7.83052e-25 0)
(-3.91081e-27 7.82221e-25 0)
(-1.79694e-26 7.88075e-25 0)
(-2.37501e-26 7.58421e-25 0)
(-2.01456e-26 6.99055e-25 0)
(-1.99679e-26 6.42539e-25 0)
(-2.99775e-26 6.14249e-25 0)
(-3.83961e-26 6.42086e-25 0)
(-3.11482e-26 6.75905e-25 0)
(-2.29163e-26 6.36371e-25 0)
(-2.58129e-26 5.42961e-25 0)
(-2.92171e-26 4.81437e-25 0)
(-2.64379e-26 4.85536e-25 0)
(-2.084e-26 4.99775e-25 0)
(-2.32185e-26 4.69334e-25 0)
(-2.2119e-26 4.0757e-25 0)
(-8.8211e-27 3.57164e-25 0)
(4.07117e-27 3.64925e-25 0)
(1.71543e-26 4.25348e-25 0)
(2.33194e-26 4.59371e-25 0)
(2.59435e-26 4.56359e-25 0)
(3.08147e-26 4.5832e-25 0)
(3.61577e-26 4.81972e-25 0)
(3.00084e-26 5.0527e-25 0)
(2.55948e-26 4.82438e-25 0)
(2.28877e-26 3.80563e-25 0)
(2.82372e-26 2.44348e-25 0)
(1.59743e-26 1.82873e-25 0)
(-4.74961e-27 1.72068e-25 0)
(-1.99619e-25 -2.01468e-25 0)
(-2.02732e-25 3.90623e-25 0)
(-7.99037e-26 2.98711e-25 0)
(-8.0424e-26 2.14971e-25 0)
(-1.55026e-26 1.78191e-25 0)
(-9.59702e-27 2.13441e-25 0)
(-1.80953e-26 2.85139e-25 0)
(-4.06763e-26 3.34865e-25 0)
(-6.08872e-26 3.14459e-25 0)
(-5.88577e-26 2.45527e-25 0)
(-4.47731e-26 2.02019e-25 0)
(-3.50401e-26 2.05083e-25 0)
(-2.73745e-26 2.28879e-25 0)
(-1.92224e-26 2.74153e-25 0)
(-1.09657e-26 3.5106e-25 0)
(-1.22212e-27 4.04378e-25 0)
(1.75752e-26 4.04881e-25 0)
(4.27548e-26 4.0176e-25 0)
(5.22364e-26 4.18809e-25 0)
(4.48903e-26 4.45578e-25 0)
(3.35101e-26 4.78764e-25 0)
(2.60337e-26 4.95391e-25 0)
(2.86291e-26 4.79243e-25 0)
(3.17098e-26 4.80299e-25 0)
(3.36322e-26 5.18927e-25 0)
(3.18714e-26 5.5158e-25 0)
(1.92682e-26 5.73607e-25 0)
(9.10296e-27 5.88136e-25 0)
(6.20638e-27 5.85149e-25 0)
(6.08656e-27 5.78533e-25 0)
(5.60249e-27 5.73126e-25 0)
(3.29544e-27 5.69134e-25 0)
(-3.54881e-27 5.88824e-25 0)
(-1.87311e-26 6.24001e-25 0)
(-2.64475e-26 6.22021e-25 0)
(-2.37129e-26 5.77733e-25 0)
(-2.34228e-26 5.15062e-25 0)
(-3.25499e-26 4.61786e-25 0)
(-4.01136e-26 4.62031e-25 0)
(-3.34436e-26 4.79406e-25 0)
(-2.67919e-26 4.38426e-25 0)
(-3.00479e-26 3.55521e-25 0)
(-3.16835e-26 3.08444e-25 0)
(-2.72112e-26 3.26207e-25 0)
(-2.21825e-26 3.56481e-25 0)
(-2.65279e-26 3.4928e-25 0)
(-2.58115e-26 3.17689e-25 0)
(-1.02892e-26 2.98259e-25 0)
(5.6102e-27 3.29873e-25 0)
(2.00415e-26 3.99116e-25 0)
(2.55822e-26 4.25436e-25 0)
(2.79953e-26 4.09454e-25 0)
(3.34882e-26 4.02626e-25 0)
(3.91902e-26 4.23166e-25 0)
(3.15704e-26 4.4941e-25 0)
(2.42896e-26 4.35055e-25 0)
(1.86382e-26 3.41352e-25 0)
(2.50369e-26 2.00309e-25 0)
(1.59869e-26 1.32082e-25 0)
(-3.89987e-27 1.44047e-25 0)
(-2.0442e-25 -2.43762e-25 0)
(-2.09778e-25 3.26147e-25 0)
(-8.88614e-26 2.39629e-25 0)
(-8.79921e-26 1.58262e-25 0)
(-1.70384e-26 1.17216e-25 0)
(-8.58325e-27 1.53132e-25 0)
(-1.73916e-26 2.32475e-25 0)
(-4.28573e-26 2.93362e-25 0)
(-6.59678e-26 2.8165e-25 0)
(-6.40948e-26 2.17076e-25 0)
(-4.8308e-26 1.71999e-25 0)
(-3.70079e-26 1.60154e-25 0)
(-2.77106e-26 1.52943e-25 0)
(-1.74692e-26 1.6839e-25 0)
(-8.23652e-27 2.4384e-25 0)
(6.49426e-28 3.25253e-25 0)
(1.91992e-26 3.50296e-25 0)
(4.54508e-26 3.38409e-25 0)
(5.52817e-26 3.18383e-25 0)
(4.79083e-26 3.0642e-25 0)
(3.65613e-26 3.2076e-25 0)
(2.82923e-26 3.44642e-25 0)
(3.0751e-26 3.53187e-25 0)
(3.48792e-26 3.80437e-25 0)
(3.69627e-26 4.29026e-25 0)
(3.40843e-26 4.44324e-25 0)
(2.01542e-26 4.30938e-25 0)
(8.93559e-27 4.11145e-25 0)
(5.61414e-27 3.8377e-25 0)
(5.73269e-27 3.62724e-25 0)
(5.51923e-27 3.52901e-25 0)
(3.96009e-27 3.54561e-25 0)
(-1.85581e-27 3.90534e-25 0)
(-1.79634e-26 4.54351e-25 0)
(-2.8089e-26 4.86506e-25 0)
(-2.72362e-26 4.64136e-25 0)
(-2.78539e-26 3.98478e-25 0)
(-3.6462e-26 3.26738e-25 0)
(-4.27659e-26 3.13114e-25 0)
(-3.60696e-26 3.26527e-25 0)
(-3.05853e-26 2.8761e-25 0)
(-3.39858e-26 2.11932e-25 0)
(-3.38442e-26 1.71564e-25 0)
(-2.76665e-26 1.88725e-25 0)
(-2.29019e-26 2.19016e-25 0)
(-2.8698e-26 2.29971e-25 0)
(-2.80006e-26 2.38633e-25 0)
(-1.02732e-26 2.64234e-25 0)
(8.10864e-27 3.25051e-25 0)
(2.29382e-26 3.98418e-25 0)
(2.70744e-26 4.07598e-25 0)
(2.91445e-26 3.67238e-25 0)
(3.56139e-26 3.389e-25 0)
(4.21311e-26 3.44635e-25 0)
(3.34266e-26 3.6713e-25 0)
(2.33713e-26 3.62961e-25 0)
(1.44053e-26 2.87657e-25 0)
(2.15054e-26 1.55515e-25 0)
(1.64442e-26 8.9541e-26 0)
(-2.81281e-27 1.26974e-25 0)
(-2.08177e-25 -2.7081e-25 0)
(-2.1616e-25 2.67488e-25 0)
(-9.81084e-26 1.87574e-25 0)
(-9.60969e-26 1.08506e-25 0)
(-1.89093e-26 5.81204e-26 0)
(-7.20427e-27 8.9314e-26 0)
(-1.57166e-26 1.79888e-25 0)
(-4.40288e-26 2.64682e-25 0)
(-7.04975e-26 2.72403e-25 0)
(-6.93016e-26 2.13048e-25 0)
(-5.23239e-26 1.62925e-25 0)
(-4.01733e-26 1.38272e-25 0)
(-2.96342e-26 1.08017e-25 0)
(-1.64848e-26 9.90898e-26 0)
(-4.73736e-27 1.70824e-25 0)
(3.95382e-27 2.7351e-25 0)
(2.13936e-26 3.1868e-25 0)
(4.73332e-26 3.02014e-25 0)
(5.68611e-26 2.58119e-25 0)
(4.98109e-26 2.21368e-25 0)
(3.93337e-26 2.19766e-25 0)
(3.10509e-26 2.3961e-25 0)
(3.37814e-26 2.52557e-25 0)
(3.87106e-26 2.82555e-25 0)
(4.0029e-26 3.21023e-25 0)
(3.51054e-26 3.11183e-25 0)
(1.96318e-26 2.72174e-25 0)
(7.70282e-27 2.38967e-25 0)
(4.37517e-27 2.0542e-25 0)
(5.0772e-27 1.78532e-25 0)
(5.43581e-27 1.65278e-25 0)
(4.96717e-27 1.66351e-25 0)
(6.62274e-28 2.03567e-25 0)
(-1.59063e-26 2.77378e-25 0)
(-2.85378e-26 3.31796e-25 0)
(-3.03759e-26 3.32812e-25 0)
(-3.26749e-26 2.80219e-25 0)
(-4.07624e-26 2.17523e-25 0)
(-4.54039e-26 2.18777e-25 0)
(-3.86609e-26 2.44515e-25 0)
(-3.45606e-26 2.05847e-25 0)
(-3.8133e-26 1.24544e-25 0)
(-3.62911e-26 7.70297e-26 0)
(-2.84646e-26 8.26321e-26 0)
(-2.33646e-26 1.06322e-25 0)
(-2.94324e-26 1.35633e-25 0)
(-2.8012e-26 1.89296e-25 0)
(-8.38527e-27 2.60888e-25 0)
(1.14458e-26 3.44499e-25 0)
(2.55056e-26 4.14838e-25 0)
(2.74319e-26 4.04879e-25 0)
(2.89239e-26 3.39625e-25 0)
(3.66025e-26 2.84462e-25 0)
(4.44738e-26 2.6527e-25 0)
(3.54037e-26 2.74458e-25 0)
(2.31107e-26 2.7723e-25 0)
(1.08278e-26 2.26683e-25 0)
(1.83496e-26 1.18811e-25 0)
(1.77014e-26 6.83622e-26 0)
(-1.28516e-27 1.27144e-25 0)
(-2.11248e-25 -2.8647e-25 0)
(-2.22095e-25 2.18236e-25 0)
(-1.07502e-25 1.49509e-25 0)
(-1.04673e-25 8.00625e-26 0)
(-2.12572e-26 2.47699e-26 0)
(-5.58604e-27 4.91076e-26 0)
(-1.28721e-26 1.45912e-25 0)
(-4.38215e-26 2.5191e-25 0)
(-7.44102e-26 2.77475e-25 0)
(-7.4804e-26 2.18374e-25 0)
(-5.70353e-26 1.57674e-25 0)
(-4.41718e-26 1.25688e-25 0)
(-3.24123e-26 9.41816e-26 0)
(-1.58725e-26 8.43553e-26 0)
(-7.98168e-28 1.54967e-25 0)
(8.0113e-27 2.58464e-25 0)
(2.38738e-26 3.03118e-25 0)
(4.88491e-26 2.81454e-25 0)
(5.77699e-26 2.31258e-25 0)
(5.10934e-26 1.8795e-25 0)
(4.16543e-26 1.76558e-25 0)
(3.34278e-26 1.82323e-25 0)
(3.6312e-26 1.73266e-25 0)
(4.17518e-26 1.71166e-25 0)
(4.20248e-26 1.75224e-25 0)
(3.51915e-26 1.40959e-25 0)
(1.87832e-26 9.76764e-26 0)
(6.6074e-27 7.78634e-26 0)
(3.24126e-27 5.87737e-26 0)
(4.33044e-27 3.60702e-26 0)
(5.1418e-27 1.94088e-26 0)
(5.70293e-27 1.2138e-26 0)
(3.03894e-27 3.48899e-26 0)
(-1.3538e-26 9.5132e-26 0)
(-2.8209e-26 1.49874e-25 0)
(-3.25802e-26 1.70685e-25 0)
(-3.64949e-26 1.52537e-25 0)
(-4.3835e-26 1.32163e-25 0)
(-4.68868e-26 1.7454e-25 0)
(-4.0923e-26 2.24249e-25 0)
(-3.91646e-26 1.84651e-25 0)
(-4.32396e-26 8.72241e-26 0)
(-3.96017e-26 2.07084e-26 0)
(-2.97693e-26 1.24835e-26 0)
(-2.34106e-26 3.71471e-26 0)
(-2.85523e-26 8.85107e-26 0)
(-2.59178e-26 1.76908e-25 0)
(-4.97052e-27 2.76016e-25 0)
(1.52561e-26 3.68156e-25 0)
(2.76235e-26 4.31958e-25 0)
(2.67431e-26 4.08583e-25 0)
(2.73481e-26 3.27053e-25 0)
(3.61952e-26 2.49771e-25 0)
(4.57816e-26 2.03442e-25 0)
(3.71859e-26 1.93108e-25 0)
(2.35731e-26 1.98763e-25 0)
(8.42922e-27 1.74843e-25 0)
(1.62745e-26 9.90184e-26 0)
(1.99494e-26 6.9892e-26 0)
(8.90248e-28 1.406e-25 0)
(-2.13785e-25 -2.9471e-25 0)
(-2.27487e-25 1.81952e-25 0)
(-1.16645e-25 1.32843e-25 0)
(-1.13304e-25 8.29434e-26 0)
(-2.39032e-26 3.09253e-26 0)