/*--------------------------------*- C++ -*----------------------------------*\
| =========                 |                                                 |
| \\      /  F ield         | foam-extend: Open Source CFD                    |
|  \\    /   O peration     | Version:     4.0                                |
|   \\  /    A nd           | Web:         http://www.foam-extend.org         |
|    \\/     M anipulation  |                                                 |
\*---------------------------------------------------------------------------*/
FoamFile
{
    version     2.0;
    format      ascii;
    class       volScalarField;
    location    "510";
    object      psiE;
}
// * * * * * * * * * * * * * * * * * * * * * * * * * * * * * * * * * * * * * //

dimensions      [0 0 0 0 0 0 0];

internalField   nonuniform List<scalar> 
6960
(
0.319193
0.319194
0.319191
0.319189
0.319187
0.319186
0.319185
0.319184
0.319183
0.319182
0.319182
0.319182
0.319181
0.319181
0.319181
0.319181
0.319181
0.319181
0.319181
0.319181
0.31918
0.31918
0.31918
0.31918
0.31918
0.31918
0.31918
0.31918
0.31918
0.31918
0.31918
0.31918
0.31918
0.31918
0.31918
0.31918
0.31918
0.31918
0.31918
0.31918
0.319181
0.319181
0.319181
0.319181
0.319181
0.319181
0.319181
0.319181
0.319182
0.319182
0.319182
0.319183
0.319184
0.319185
0.319186
0.319187
0.319189
0.319191
0.319194
0.319193
0.753638
0.753634
0.753624
0.753615
0.753608
0.753603
0.753598
0.753595
0.753592
0.75359
0.753588
0.753587
0.753585
0.753584
0.753583
0.753583
0.753582
0.753582
0.753581
0.753581
0.753581
0.75358
0.75358
0.75358
0.75358
0.75358
0.753579
0.753579
0.753579
0.753579
0.753579
0.753579
0.753579
0.753579
0.75358
0.75358
0.75358
0.75358
0.75358
0.753581
0.753581
0.753581
0.753582
0.753582
0.753583
0.753583
0.753584
0.753585
0.753587
0.753588
0.75359
0.753592
0.753595
0.753598
0.753603
0.753608
0.753615
0.753624
0.753634
0.753638
1.0892
1.08918
1.08916
1.08914
1.08913
1.08912
1.08911
1.0891
1.0891
1.08909
1.08909
1.08909
1.08909
1.08908
1.08908
1.08908
1.08908
1.08908
1.08908
1.08908
1.08908
1.08908
1.08907
1.08907
1.08907
1.08907
1.08907
1.08907
1.08907
1.08907
1.08907
1.08907
1.08907
1.08907
1.08907
1.08907
1.08907
1.08907
1.08908
1.08908
1.08908
1.08908
1.08908
1.08908
1.08908
1.08908
1.08908
1.08909
1.08909
1.08909
1.08909
1.0891
1.0891
1.08911
1.08912
1.08913
1.08914
1.08916
1.08918
1.0892
1.35718
1.35714
1.35711
1.35709
1.35707
1.35705
1.35704
1.35703
1.35702
1.35701
1.35701
1.357
1.357
1.357
1.357
1.35699
1.35699
1.35699
1.35699
1.35699
1.35699
1.35698
1.35698
1.35698
1.35698
1.35698
1.35698
1.35698
1.35698
1.35698
1.35698
1.35698
1.35698
1.35698
1.35698
1.35698
1.35698
1.35698
1.35698
1.35699
1.35699
1.35699
1.35699
1.35699
1.35699
1.357
1.357
1.357
1.357
1.35701
1.35701
1.35702
1.35703
1.35704
1.35705
1.35707
1.35709
1.35711
1.35714
1.35718
1.57344
1.57337
1.57333
1.5733
1.57327
1.57325
1.57323
1.57322
1.57321
1.5732
1.5732
1.57319
1.57318
1.57318
1.57318
1.57317
1.57317
1.57317
1.57317
1.57317
1.57317
1.57316
1.57316
1.57316
1.57316
1.57316
1.57316
1.57316
1.57316
1.57316
1.57316
1.57316
1.57316
1.57316
1.57316
1.57316
1.57316
1.57316
1.57316
1.57317
1.57317
1.57317
1.57317
1.57317
1.57317
1.57318
1.57318
1.57318
1.57319
1.5732
1.5732
1.57321
1.57322
1.57323
1.57325
1.57327
1.5733
1.57333
1.57337
1.57344
1.7495
1.74941
1.74935
1.74931
1.74928
1.74926
1.74924
1.74922
1.74921
1.7492
1.74919
1.74919
1.74918
1.74918
1.74917
1.74917
1.74917
1.74916
1.74916
1.74916
1.74916
1.74916
1.74916
1.74916
1.74915
1.74915
1.74915
1.74915
1.74915
1.74915
1.74915
1.74915
1.74915
1.74915
1.74915
1.74915
1.74916
1.74916
1.74916
1.74916
1.74916
1.74916
1.74916
1.74917
1.74917
1.74917
1.74918
1.74918
1.74919
1.74919
1.7492
1.74921
1.74922
1.74924
1.74926
1.74928
1.74931
1.74935
1.74941
1.7495
1.89508
1.89497
1.8949
1.89485
1.89482
1.89479
1.89477
1.89475
1.89474
1.89473
1.89472
1.89471
1.89471
1.8947
1.8947
1.89469
1.89469
1.89469
1.89469
1.89468
1.89468
1.89468
1.89468
1.89468
1.89468
1.89468
1.89468
1.89468
1.89468
1.89468
1.89468
1.89468
1.89468
1.89468
1.89468
1.89468
1.89468
1.89468
1.89468
1.89468
1.89468
1.89469
1.89469
1.89469
1.89469
1.8947
1.8947
1.89471
1.89471
1.89472
1.89473
1.89474
1.89475
1.89477
1.89479
1.89482
1.89485
1.8949
1.89497
1.89508
2.01822
2.01809
2.01801
2.01796
2.01793
2.0179
2.01787
2.01786
2.01784
2.01783
2.01782
2.01781
2.01781
2.0178
2.0178
2.01779
2.01779
2.01779
2.01778
2.01778
2.01778
2.01778
2.01778
2.01778
2.01778
2.01778
2.01778
2.01777
2.01777
2.01777
2.01777
2.01777
2.01777
2.01778
2.01778
2.01778
2.01778
2.01778
2.01778
2.01778
2.01778
2.01778
2.01779
2.01779
2.01779
2.0178
2.0178
2.01781
2.01781
2.01782
2.01783
2.01784
2.01786
2.01787
2.0179
2.01793
2.01796
2.01801
2.01809
2.01822
2.12516
2.12502
2.12494
2.12488
2.12484
2.12481
2.12479
2.12477
2.12475
2.12474
2.12473
2.12473
2.12472
2.12471
2.12471
2.12471
2.1247
2.1247
2.1247
2.1247
2.12469
2.12469
2.12469
2.12469
2.12469
2.12469
2.12469
2.12469
2.12469
2.12469
2.12469
2.12469
2.12469
2.12469
2.12469
2.12469
2.12469
2.12469
2.12469
2.12469
2.1247
2.1247
2.1247
2.1247
2.12471
2.12471
2.12471
2.12472
2.12473
2.12473
2.12474
2.12475
2.12477
2.12479
2.12481
2.12484
2.12488
2.12494
2.12502
2.12516
2.22045
2.2203
2.22022
2.22016
2.22012
2.22008
2.22006
2.22004
2.22002
2.22001
2.22
2.22
2.21999
2.21998
2.21998
2.21998
2.21997
2.21997
2.21997
2.21997
2.21997
2.21997
2.21996
2.21996
2.21996
2.21996
2.21996
2.21996
2.21996
2.21996
2.21996
2.21996
2.21996
2.21996
2.21996
2.21996
2.21996
2.21996
2.21997
2.21997
2.21997
2.21997
2.21997
2.21997
2.21998
2.21998
2.21998
2.21999
2.22
2.22
2.22001
2.22002
2.22004
2.22006
2.22008
2.22012
2.22016
2.22022
2.2203
2.22045
2.30726
2.30711
2.30702
2.30696
2.30692
2.30689
2.30686
2.30684
2.30683
2.30681
2.3068
2.3068
2.30679
2.30679
2.30678
2.30678
2.30678
2.30677
2.30677
2.30677
2.30677
2.30677
2.30677
2.30677
2.30677
2.30677
2.30677
2.30677
2.30677
2.30677
2.30677
2.30677
2.30677
2.30677
2.30677
2.30677
2.30677
2.30677
2.30677
2.30677
2.30677
2.30677
2.30677
2.30678
2.30678
2.30678
2.30679
2.30679
2.3068
2.3068
2.30681
2.30683
2.30684
2.30686
2.30689
2.30692
2.30696
2.30702
2.30711
2.30726
2.38778
2.38763
2.38754
2.38748
2.38744
2.3874
2.38738
2.38736
2.38734
2.38733
2.38732
2.38731
2.38731
2.3873
2.3873
2.3873
2.38729
2.38729
2.38729
2.38729
2.38729
2.38729
2.38729
2.38729
2.38729
2.38729
2.38729
2.38729
2.38729
2.38729
2.38729
2.38729
2.38729
2.38729
2.38729
2.38729
2.38729
2.38729
2.38729
2.38729
2.38729
2.38729
2.38729
2.38729
2.3873
2.3873
2.3873
2.38731
2.38731
2.38732
2.38733
2.38734
2.38736
2.38738
2.3874
2.38744
2.38748
2.38754
2.38763
2.38778
2.46353
2.46338
2.46329
2.46323
2.46318
2.46315
2.46312
2.4631
2.46309
2.46308
2.46307
2.46306
2.46305
2.46305
2.46305
2.46305
2.46304
2.46304
2.46304
2.46304
2.46304
2.46304
2.46304
2.46304
2.46304
2.46304
2.46304
2.46304
2.46304
2.46304
2.46304
2.46304
2.46304
2.46304
2.46304
2.46304
2.46304
2.46304
2.46304
2.46304
2.46304
2.46304
2.46304
2.46304
2.46305
2.46305
2.46305
2.46305
2.46306
2.46307
2.46308
2.46309
2.4631
2.46312
2.46315
2.46318
2.46323
2.46329
2.46338
2.46353
2.5356
2.53544
2.53535
2.53529
2.53524
2.53521
2.53518
2.53516
2.53515
2.53514
2.53513
2.53512
2.53512
2.53511
2.53511
2.53511
2.53511
2.53511
2.53511
2.53511
2.53511
2.53511
2.53511
2.53511
2.53511
2.53511
2.53511
2.53511
2.53511
2.53511
2.53511
2.53511
2.53511
2.53511
2.53511
2.53511
2.53511
2.53511
2.53511
2.53511
2.53511
2.53511
2.53511
2.53511
2.53511
2.53511
2.53511
2.53512
2.53512
2.53513
2.53514
2.53515
2.53516
2.53518
2.53521
2.53524
2.53529
2.53535
2.53544
2.5356
2.60477
2.60461
2.60452
2.60446
2.60441
2.60438
2.60435
2.60433
2.60432
2.60431
2.6043
2.60429
2.60429
2.60429
2.60428
2.60428
2.60428
2.60428
2.60428
2.60428
2.60428
2.60428
2.60428
2.60428
2.60428
2.60428
2.60428
2.60429
2.60429
2.60429
2.60429
2.60429
2.60429
2.60428
2.60428
2.60428
2.60428
2.60428
2.60428
2.60428
2.60428
2.60428
2.60428
2.60428
2.60428
2.60428
2.60429
2.60429
2.60429
2.6043
2.60431
2.60432
2.60433
2.60435
2.60438
2.60441
2.60446
2.60452
2.60461
2.60477
2.67166
2.6715
2.67141
2.67135
2.6713
2.67127
2.67124
2.67122
2.67121
2.6712
2.67119
2.67118
2.67118
2.67118
2.67118
2.67118
2.67118
2.67118
2.67118
2.67118
2.67118
2.67118
2.67118
2.67118
2.67118
2.67118
2.67118
2.67118
2.67118
2.67118
2.67118
2.67118
2.67118
2.67118
2.67118
2.67118
2.67118
2.67118
2.67118
2.67118
2.67118
2.67118
2.67118
2.67118
2.67118
2.67118
2.67118
2.67118
2.67118
2.67119
2.6712
2.67121
2.67122
2.67124
2.67127
2.6713
2.67135
2.67141
2.6715
2.67166
2.73675
2.73659
2.7365
2.73644
2.73639
2.73636
2.73633
2.73631
2.7363
2.73629
2.73628
2.73628
2.73627
2.73627
2.73627
2.73627
2.73627
2.73627
2.73627
2.73628
2.73628
2.73628
2.73628
2.73628
2.73628
2.73628
2.73628
2.73628
2.73628
2.73628
2.73628
2.73628
2.73628
2.73628
2.73628
2.73628
2.73628
2.73628
2.73628
2.73628
2.73628
2.73627
2.73627
2.73627
2.73627
2.73627
2.73627
2.73627
2.73628
2.73628
2.73629
2.7363
2.73631
2.73633
2.73636
2.73639
2.73644
2.7365
2.73659
2.73675
2.80042
2.80027
2.80018
2.80012
2.80007
2.80004
2.80001
2.79999
2.79998
2.79997
2.79996
2.79996
2.79996
2.79995
2.79995
2.79996
2.79996
2.79996
2.79996
2.79996
2.79996
2.79997
2.79997
2.79997
2.79997
2.79997
2.79997
2.79997
2.79997
2.79997
2.79997
2.79997
2.79997
2.79997
2.79997
2.79997
2.79997
2.79997
2.79997
2.79996
2.79996
2.79996
2.79996
2.79996
2.79996
2.79995
2.79995
2.79996
2.79996
2.79996
2.79997
2.79998
2.79999
2.80001
2.80004
2.80007
2.80012
2.80018
2.80027
2.80042
2.86301
2.86286
2.86277
2.8627
2.86266
2.86263
2.8626
2.86258
2.86257
2.86256
2.86255
2.86255
2.86255
2.86255
2.86255
2.86255
2.86255
2.86255
2.86256
2.86256
2.86256
2.86256
2.86257
2.86257
2.86257
2.86257
2.86257
2.86257
2.86257
2.86257
2.86257
2.86257
2.86257
2.86257
2.86257
2.86257
2.86257
2.86257
2.86256
2.86256
2.86256
2.86256
2.86255
2.86255
2.86255
2.86255
2.86255
2.86255
2.86255
2.86255
2.86256
2.86257
2.86258
2.8626
2.86263
2.86266
2.8627
2.86277
2.86286
2.86301
2.92478
2.92463
2.92454
2.92447
2.92443
2.9244
2.92437
2.92435
2.92434
2.92433
2.92433
2.92432
2.92432
2.92432
2.92432
2.92433
2.92433
2.92433
2.92433
2.92434
2.92434
2.92434
2.92435
2.92435
2.92435
2.92435
2.92435
2.92435
2.92435
2.92435
2.92435
2.92435
2.92435
2.92435
2.92435
2.92435
2.92435
2.92435
2.92434
2.92434
2.92434
2.92433
2.92433
2.92433
2.92433
2.92432
2.92432
2.92432
2.92432
2.92433
2.92433
2.92434
2.92435
2.92437
2.9244
2.92443
2.92447
2.92454
2.92463
2.92478
2.98596
2.98581
2.98572
2.98566
2.98561
2.98558
2.98556
2.98554
2.98553
2.98552
2.98551
2.98551
2.98551
2.98551
2.98551
2.98552
2.98552
2.98552
2.98553
2.98553
2.98553
2.98554
2.98554
2.98554
2.98554
2.98555
2.98555
2.98555
2.98555
2.98555
2.98555
2.98555
2.98555
2.98555
2.98555
2.98554
2.98554
2.98554
2.98554
2.98553
2.98553
2.98553
2.98552
2.98552
2.98552
2.98551
2.98551
2.98551
2.98551
2.98551
2.98552
2.98553
2.98554
2.98556
2.98558
2.98561
2.98566
2.98572
2.98581
2.98596
3.04676
3.04661
3.04652
3.04646
3.04641
3.04638
3.04636
3.04634
3.04633
3.04632
3.04632
3.04632
3.04632
3.04632
3.04632
3.04632
3.04633
3.04633
3.04634
3.04634
3.04634
3.04635
3.04635
3.04635
3.04636
3.04636
3.04636
3.04636
3.04636
3.04636
3.04636
3.04636
3.04636
3.04636
3.04636
3.04636
3.04635
3.04635
3.04635
3.04634
3.04634
3.04634
3.04633
3.04633
3.04632
3.04632
3.04632
3.04632
3.04632
3.04632
3.04632
3.04633
3.04634
3.04636
3.04638
3.04641
3.04646
3.04652
3.04661
3.04676
3.10735
3.10721
3.10712
3.10705
3.10701
3.10698
3.10695
3.10694
3.10693
3.10692
3.10692
3.10692
3.10692
3.10692
3.10692
3.10693
3.10693
3.10694
3.10694
3.10695
3.10695
3.10696
3.10696
3.10696
3.10697
3.10697
3.10697
3.10697
3.10697
3.10697
3.10697
3.10697
3.10697
3.10697
3.10697
3.10697
3.10696
3.10696
3.10696
3.10695
3.10695
3.10694
3.10694
3.10693
3.10693
3.10692
3.10692
3.10692
3.10692
3.10692
3.10692
3.10693
3.10694
3.10695
3.10698
3.10701
3.10705
3.10712
3.10721
3.10735
3.1679
3.16776
3.16767
3.16761
3.16756
3.16753
3.16751
3.16749
3.16748
3.16748
3.16747
3.16748
3.16748
3.16748
3.16748
3.16749
3.1675
3.1675
3.16751
3.16751
3.16752
3.16752
3.16753
3.16753
3.16753
3.16754
3.16754
3.16754
3.16754
3.16754
3.16754
3.16754
3.16754
3.16754
3.16754
3.16753
3.16753
3.16753
3.16752
3.16752
3.16751
3.16751
3.1675
3.1675
3.16749
3.16748
3.16748
3.16748
3.16748
3.16747
3.16748
3.16748
3.16749
3.16751
3.16753
3.16756
3.16761
3.16767
3.16776
3.1679
3.22855
3.22842
3.22833
3.22826
3.22822
3.22819
3.22817
3.22815
3.22814
3.22814
3.22814
3.22814
3.22814
3.22814
3.22815
3.22815
3.22816
3.22817
3.22817
3.22818
3.22819
3.22819
3.2282
3.2282
3.2282
3.22821
3.22821
3.22821
3.22821
3.22821
3.22821
3.22821
3.22821
3.22821
3.22821
3.2282
3.2282
3.2282
3.22819
3.22819
3.22818
3.22817
3.22817
3.22816
3.22815
3.22815
3.22814
3.22814
3.22814
3.22814
3.22814
3.22814
3.22815
3.22817
3.22819
3.22822
3.22826
3.22833
3.22842
3.22855
3.28944
3.28931
3.28922
3.28916
3.28911
3.28908
3.28906
3.28904
3.28904
3.28903
3.28903
3.28903
3.28904
3.28904
3.28905
3.28906
3.28906
3.28907
3.28908
3.28908
3.28909
3.2891
3.2891
3.28911
3.28911
3.28911
3.28912
3.28912
3.28912
3.28912
3.28912
3.28912
3.28912
3.28912
3.28911
3.28911
3.28911
3.2891
3.2891
3.28909
3.28908
3.28908
3.28907
3.28906
3.28906
3.28905
3.28904
3.28904
3.28903
3.28903
3.28903
3.28904
3.28904
3.28906
3.28908
3.28911
3.28916
3.28922
3.28931
3.28944
3.35068
3.35056
3.35047
3.35041
3.35036
3.35033
3.35031
3.3503
3.35029
3.35029
3.35029
3.35029
3.3503
3.3503
3.35031
3.35032
3.35032
3.35033
3.35034
3.35035
3.35035
3.35036
3.35037
3.35037
3.35038
3.35038
3.35038
3.35039
3.35039
3.35039
3.35039
3.35039
3.35039
3.35038
3.35038
3.35038
3.35037
3.35037
3.35036
3.35035
3.35035
3.35034
3.35033
3.35032
3.35032
3.35031
3.3503
3.3503
3.35029
3.35029
3.35029
3.35029
3.3503
3.35031
3.35033
3.35036
3.35041
3.35047
3.35056
3.35068
3.41241
3.41228
3.41219
3.41213
3.41209
3.41206
3.41204
3.41203
3.41202
3.41202
3.41202
3.41202
3.41203
3.41204
3.41204
3.41205
3.41206
3.41207
3.41208
3.41209
3.4121
3.4121
3.41211
3.41211
3.41212
3.41212
3.41213
3.41213
3.41213
3.41213
3.41213
3.41213
3.41213
3.41213
3.41212
3.41212
3.41211
3.41211
3.4121
3.4121
3.41209
3.41208
3.41207
3.41206
3.41205
3.41204
3.41204
3.41203
3.41202
3.41202
3.41202
3.41202
3.41203
3.41204
3.41206
3.41209
3.41213
3.41219
3.41228
3.41241
3.47471
3.47459
3.47451
3.47444
3.4744
3.47437
3.47435
3.47434
3.47433
3.47433
3.47434
3.47434
3.47435
3.47436
3.47436
3.47437
3.47438
3.47439
3.4744
3.47441
3.47442
3.47443
3.47444
3.47444
3.47445
3.47445
3.47446
3.47446
3.47446
3.47446
3.47446
3.47446
3.47446
3.47446
3.47445
3.47445
3.47444
3.47444
3.47443
3.47442
3.47441
3.4744
3.47439
3.47438
3.47437
3.47436
3.47436
3.47435
3.47434
3.47434
3.47433
3.47433
3.47434
3.47435
3.47437
3.4744
3.47444
3.47451
3.47459
3.47471
3.53771
3.53759
3.5375
3.53744
3.5374
3.53737
3.53735
3.53734
3.53734
3.53734
3.53734
3.53735
3.53735
3.53736
3.53737
3.53738
3.5374
3.53741
3.53742
3.53743
3.53744
3.53744
3.53745
3.53746
3.53746
3.53747
3.53747
3.53748
3.53748
3.53748
3.53748
3.53748
3.53748
3.53747
3.53747
3.53746
3.53746
3.53745
3.53744
3.53744
3.53743
3.53742
3.53741
3.5374
3.53738
3.53737
3.53736
3.53735
3.53735
3.53734
3.53734
3.53734
3.53734
3.53735
3.53737
3.5374
3.53744
3.5375
3.53759
3.53771
3.60149
3.60138
3.60129
3.60123
3.60119
3.60116
3.60114
3.60113
3.60113
3.60113
3.60113
3.60114
3.60115
3.60116
3.60117
3.60118
3.60119
3.60121
3.60122
3.60123
3.60124
3.60125
3.60126
3.60126
3.60127
3.60128
3.60128
3.60128
3.60129
3.60129
3.60129
3.60129
3.60128
3.60128
3.60128
3.60127
3.60126
3.60126
3.60125
3.60124
3.60123
3.60122
3.60121
3.60119
3.60118
3.60117
3.60116
3.60115
3.60114
3.60113
3.60113
3.60113
3.60113
3.60114
3.60116
3.60119
3.60123
3.60129
3.60138
3.60149
3.66616
3.66605
3.66596
3.6659
3.66586
3.66583
3.66582
3.66581
3.6658
3.66581
3.66581
3.66582
3.66583
3.66584
3.66585
3.66587
3.66588
3.66589
3.6659
3.66592
3.66593
3.66594
3.66595
3.66595
3.66596
3.66597
3.66597
3.66597
3.66598
3.66598
3.66598
3.66598
3.66597
3.66597
3.66597
3.66596
3.66595
3.66595
3.66594
3.66593
3.66592
3.6659
3.66589
3.66588
3.66587
3.66585
3.66584
3.66583
3.66582
3.66581
3.66581
3.6658
3.66581
3.66582
3.66583
3.66586
3.6659
3.66596
3.66605
3.66616
3.7318
3.73169
3.73161
3.73155
3.73151
3.73148
3.73147
3.73146
3.73146
3.73146
3.73147
3.73148
3.73149
3.7315
3.73151
3.73153
3.73154
3.73155
3.73157
3.73158
3.73159
3.7316
3.73161
3.73162
3.73163
3.73163
3.73164
3.73164
3.73165
3.73165
3.73165
3.73165
3.73164
3.73164
3.73163
3.73163
3.73162
3.73161
3.7316
3.73159
3.73158
3.73157
3.73155
3.73154
3.73153
3.73151
3.7315
3.73149
3.73148
3.73147
3.73146
3.73146
3.73146
3.73147
3.73148
3.73151
3.73155
3.73161
3.73169
3.7318
3.79851
3.79841
3.79832
3.79827
3.79823
3.7982
3.79819
3.79818
3.79818
3.79818
3.79819
3.7982
3.79821
3.79823
3.79824
3.79826
3.79827
3.79829
3.7983
3.79831
3.79833
3.79834
3.79835
3.79836
3.79837
3.79837
3.79838
3.79838
3.79838
3.79839
3.79839
3.79838
3.79838
3.79838
3.79837
3.79837
3.79836
3.79835
3.79834
3.79833
3.79831
3.7983
3.79829
3.79827
3.79826
3.79824
3.79823
3.79821
3.7982
3.79819
3.79818
3.79818
3.79818
3.79819
3.7982
3.79823
3.79827
3.79832
3.79841
3.79851
3.86638
3.86628
3.8662
3.86614
3.8661
3.86608
3.86606
3.86606
3.86606
3.86606
3.86607
3.86608
3.8661
3.86611
3.86613
3.86614
3.86616
3.86618
3.86619
3.86621
3.86622
3.86623
3.86624
3.86625
3.86626
3.86627
3.86627
3.86628
3.86628
3.86628
3.86628
3.86628
3.86628
3.86627
3.86627
3.86626
3.86625
3.86624
3.86623
3.86622
3.86621
3.86619
3.86618
3.86616
3.86614
3.86613
3.86611
3.8661
3.86608
3.86607
3.86606
3.86606
3.86606
3.86606
3.86608
3.8661
3.86614
3.8662
3.86628
3.86638
3.93549
3.9354
3.93532
3.93526
3.93522
3.9352
3.93519
3.93518
3.93518
3.93519
3.9352
3.93521
3.93523
3.93524
3.93526
3.93528
3.9353
3.93531
3.93533
3.93534
3.93536
3.93537
3.93538
3.93539
3.9354
3.93541
3.93542
3.93542
3.93542
3.93543
3.93543
3.93542
3.93542
3.93542
3.93541
3.9354
3.93539
3.93538
3.93537
3.93536
3.93534
3.93533
3.93531
3.9353
3.93528
3.93526
3.93524
3.93523
3.93521
3.9352
3.93519
3.93518
3.93518
3.93519
3.9352
3.93522
3.93526
3.93532
3.9354
3.93549
4.00594
4.00585
4.00577
4.00572
4.00568
4.00566
4.00564
4.00564
4.00564
4.00565
4.00566
4.00567
4.00569
4.00571
4.00573
4.00575
4.00576
4.00578
4.0058
4.00582
4.00583
4.00585
4.00586
4.00587
4.00588
4.00589
4.00589
4.0059
4.0059
4.0059
4.0059
4.0059
4.0059
4.00589
4.00589
4.00588
4.00587
4.00586
4.00585
4.00583
4.00582
4.0058
4.00578
4.00576
4.00575
4.00573
4.00571
4.00569
4.00567
4.00566
4.00565
4.00564
4.00564
4.00564
4.00566
4.00568
4.00572
4.00577
4.00585
4.00594
4.07781
4.07772
4.07764
4.07759
4.07755
4.07753
4.07752
4.07752
4.07752
4.07753
4.07754
4.07756
4.07757
4.07759
4.07761
4.07763
4.07765
4.07767
4.07769
4.07771
4.07773
4.07774
4.07775
4.07777
4.07778
4.07778
4.07779
4.0778
4.0778
4.0778
4.0778
4.0778
4.0778
4.07779
4.07778
4.07778
4.07777
4.07775
4.07774
4.07773
4.07771
4.07769
4.07767
4.07765
4.07763
4.07761
4.07759
4.07757
4.07756
4.07754
4.07753
4.07752
4.07752
4.07752
4.07753
4.07755
4.07759
4.07764
4.07772
4.07781
4.15118
4.15109
4.15102
4.15097
4.15093
4.15091
4.1509
4.1509
4.1509
4.15091
4.15093
4.15095
4.15097
4.15099
4.15101
4.15103
4.15105
4.15107
4.15109
4.15111
4.15113
4.15114
4.15116
4.15117
4.15118
4.15119
4.1512
4.1512
4.1512
4.15121
4.15121
4.1512
4.1512
4.1512
4.15119
4.15118
4.15117
4.15116
4.15114
4.15113
4.15111
4.15109
4.15107
4.15105
4.15103
4.15101
4.15099
4.15097
4.15095
4.15093
4.15091
4.1509
4.1509
4.1509
4.15091
4.15093
4.15097
4.15102
4.15109
4.15118
4.22614
4.22606
4.22599
4.22594
4.22591
4.22589
4.22588
4.22588
4.22588
4.22589
4.22591
4.22593
4.22595
4.22597
4.22599
4.22602
4.22604
4.22606
4.22608
4.2261
4.22612
4.22614
4.22615
4.22616
4.22618
4.22619
4.22619
4.2262
4.2262
4.2262
4.2262
4.2262
4.2262
4.22619
4.22619
4.22618
4.22616
4.22615
4.22614
4.22612
4.2261
4.22608
4.22606
4.22604
4.22602
4.22599
4.22597
4.22595
4.22593
4.22591
4.22589
4.22588
4.22588
4.22588
4.22589
4.22591
4.22594
4.22599
4.22606
4.22614
4.30279
4.30271
4.30264
4.30259
4.30256
4.30254
4.30253
4.30253
4.30254
4.30255
4.30257
4.30259
4.30261
4.30264
4.30266
4.30268
4.30271
4.30273
4.30275
4.30277
4.30279
4.30281
4.30283
4.30284
4.30285
4.30286
4.30287
4.30288
4.30288
4.30288
4.30288
4.30288
4.30288
4.30287
4.30286
4.30285
4.30284
4.30283
4.30281
4.30279
4.30277
4.30275
4.30273
4.30271
4.30268
4.30266
4.30264
4.30261
4.30259
4.30257
4.30255
4.30254
4.30253
4.30253
4.30254
4.30256
4.30259
4.30264
4.30271
4.30279
4.3812
4.38112
4.38105
4.381
4.38097
4.38096
4.38095
4.38095
4.38096
4.38098
4.38099
4.38102
4.38104
4.38107
4.38109
4.38112
4.38114
4.38117
4.38119
4.38121
4.38123
4.38125
4.38127
4.38128
4.3813
4.38131
4.38131
4.38132
4.38133
4.38133
4.38133
4.38133
4.38132
4.38131
4.38131
4.3813
4.38128
4.38127
4.38125
4.38123
4.38121
4.38119
4.38117
4.38114
4.38112
4.38109
4.38107
4.38104
4.38102
4.38099
4.38098
4.38096
4.38095
4.38095
4.38096
4.38097
4.381
4.38105
4.38112
4.3812
4.46146
4.46139
4.46132
4.46127
4.46124
4.46123
4.46122
4.46123
4.46124
4.46125
4.46127
4.4613
4.46132
4.46135
4.46138
4.4614
4.46143
4.46146
4.46148
4.46151
4.46153
4.46155
4.46156
4.46158
4.46159
4.4616
4.46161
4.46162
4.46162
4.46163
4.46163
4.46162
4.46162
4.46161
4.4616
4.46159
4.46158
4.46156
4.46155
4.46153
4.46151
4.46148
4.46146
4.46143
4.4614
4.46138
4.46135
4.46132
4.4613
4.46127
4.46125
4.46124
4.46123
4.46122
4.46123
4.46124
4.46127
4.46132
4.46139
4.46146
4.54366
4.54359
4.54353
4.54348
4.54345
4.54344
4.54344
4.54344
4.54345
4.54347
4.54349
4.54352
4.54355
4.54357
4.5436
4.54363
4.54366
4.54369
4.54372
4.54374
4.54376
4.54378
4.5438
4.54382
4.54383
4.54384
4.54385
4.54386
4.54387
4.54387
4.54387
4.54387
4.54386
4.54385
4.54384
4.54383
4.54382
4.5438
4.54378
4.54376
4.54374
4.54372
4.54369
4.54366
4.54363
4.5436
4.54357
4.54355
4.54352
4.54349
4.54347
4.54345
4.54344
4.54344
4.54344
4.54345
4.54348
4.54353
4.54359
4.54366
4.62789
4.62783
4.62777
4.62772
4.6277
4.62768
4.62768
4.62769
4.6277
4.62772
4.62774
4.62777
4.6278
4.62783
4.62786
4.62789
4.62792
4.62795
4.62798
4.62801
4.62803
4.62805
4.62807
4.62809
4.6281
4.62811
4.62812
4.62813
4.62814
4.62814
4.62814
4.62814
4.62813
4.62812
4.62811
4.6281
4.62809
4.62807
4.62805
4.62803
4.62801
4.62798
4.62795
4.62792
4.62789
4.62786
4.62783
4.6278
4.62777
4.62774
4.62772
4.6277
4.62769
4.62768
4.62768
4.6277
4.62772
4.62777
4.62783
4.62789
4.71425
4.71418
4.71412
4.71408
4.71406
4.71404
4.71404
4.71405
4.71407
4.71409
4.71412
4.71414
4.71418
4.71421
4.71424
4.71427
4.7143
4.71433
4.71436
4.71439
4.71442
4.71444
4.71446
4.71448
4.71449
4.71451
4.71452
4.71452
4.71453
4.71453
4.71453
4.71453
4.71452
4.71452
4.71451
4.71449
4.71448
4.71446
4.71444
4.71442
4.71439
4.71436
4.71433
4.7143
4.71427
4.71424
4.71421
4.71418
4.71414
4.71412
4.71409
4.71407
4.71405
4.71404
4.71404
4.71406
4.71408
4.71412
4.71418
4.71425
4.80281
4.80275
4.80269
4.80265
4.80263
4.80262
4.80262
4.80263
4.80265
4.80267
4.8027
4.80273
4.80276
4.8028
4.80283
4.80286
4.8029
4.80293
4.80296
4.80299
4.80302
4.80304
4.80306
4.80308
4.8031
4.80311
4.80312
4.80313
4.80313
4.80314
4.80314
4.80313
4.80313
4.80312
4.80311
4.8031
4.80308
4.80306
4.80304
4.80302
4.80299
4.80296
4.80293
4.8029
4.80286
4.80283
4.8028
4.80276
4.80273
4.8027
4.80267
4.80265
4.80263
4.80262
4.80262
4.80263
4.80265
4.80269
4.80275
4.80281
4.89367
4.89362
4.89356
4.89353
4.8935
4.89349
4.8935
4.89351
4.89353
4.89355
4.89358
4.89362
4.89365
4.89369
4.89372
4.89376
4.89379
4.89383
4.89386
4.89389
4.89392
4.89394
4.89397
4.89399
4.894
4.89402
4.89403
4.89404
4.89404
4.89405
4.89405
4.89404
4.89404
4.89403
4.89402
4.894
4.89399
4.89397
4.89394
4.89392
4.89389
4.89386
4.89383
4.89379
4.89376
4.89372
4.89369
4.89365
4.89362
4.89358
4.89355
4.89353
4.89351
4.8935
4.89349
4.8935
4.89353
4.89356
4.89362
4.89367
4.98694
4.98688
4.98683
4.98679
4.98677
4.98677
4.98677
4.98679
4.98681
4.98683
4.98687
4.9869
4.98694
4.98698
4.98701
4.98705
4.98709
4.98713
4.98716
4.98719
4.98722
4.98725
4.98727
4.98729
4.98731
4.98732
4.98734
4.98734
4.98735
4.98735
4.98735
4.98735
4.98734
4.98734
4.98732
4.98731
4.98729
4.98727
4.98725
4.98722
4.98719
4.98716
4.98713
4.98709
4.98705
4.98701
4.98698
4.98694
4.9869
4.98687
4.98683
4.98681
4.98679
4.98677
4.98677
4.98677
4.98679
4.98683
4.98688
4.98694
5.08269
5.08264
5.08259
5.08256
5.08254
5.08253
5.08254
5.08255
5.08258
5.08261
5.08264
5.08268
5.08272
5.08276
5.0828
5.08284
5.08288
5.08291
5.08295
5.08298
5.08301
5.08304
5.08307
5.08309
5.08311
5.08312
5.08313
5.08314
5.08315
5.08315
5.08315
5.08315
5.08314
5.08313
5.08312
5.08311
5.08309
5.08307
5.08304
5.08301
5.08298
5.08295
5.08291
5.08288
5.08284
5.0828
5.08276
5.08272
5.08268
5.08264
5.08261
5.08258
5.08255
5.08254
5.08253
5.08254
5.08256
5.08259
5.08264
5.08269
5.18103
5.18098
5.18094
5.1809
5.18089
5.18088
5.18089
5.18091
5.18094
5.18097
5.181
5.18104
5.18108
5.18113
5.18117
5.18121
5.18125
5.18129
5.18133
5.18136
5.1814
5.18143
5.18145
5.18147
5.18149
5.18151
5.18152
5.18153
5.18154
5.18154
5.18154
5.18154
5.18153
5.18152
5.18151
5.18149
5.18147
5.18145
5.18143
5.1814
5.18136
5.18133
5.18129
5.18125
5.18121
5.18117
5.18113
5.18108
5.18104
5.181
5.18097
5.18094
5.18091
5.18089
5.18088
5.18089
5.1809
5.18094
5.18098
5.18103
5.28206
5.28201
5.28197
5.28194
5.28193
5.28192
5.28193
5.28195
5.28198
5.28202
5.28205
5.2821
5.28214
5.28218
5.28223
5.28227
5.28232
5.28236
5.2824
5.28243
5.28247
5.2825
5.28252
5.28255
5.28257
5.28259
5.2826
5.28261
5.28262
5.28262
5.28262
5.28262
5.28261
5.2826
5.28259
5.28257
5.28255
5.28252
5.2825
5.28247
5.28243
5.2824
5.28236
5.28232
5.28227
5.28223
5.28218
5.28214
5.2821
5.28205
5.28202
5.28198
5.28195
5.28193
5.28192
5.28193
5.28194
5.28197
5.28201
5.28206
5.38587
5.38583
5.38579
5.38576
5.38575
5.38575
5.38576
5.38578
5.38581
5.38585
5.38589
5.38594
5.38598
5.38603
5.38608
5.38612
5.38617
5.38621
5.38625
5.38629
5.38633
5.38636
5.38639
5.38641
5.38643
5.38645
5.38646
5.38648
5.38648
5.38649
5.38649
5.38648
5.38648
5.38646
5.38645
5.38643
5.38641
5.38639
5.38636
5.38633
5.38629
5.38625
5.38621
5.38617
5.38612
5.38608
5.38603
5.38598
5.38594
5.38589
5.38585
5.38581
5.38578
5.38576
5.38575
5.38575
5.38576
5.38579
5.38583
5.38587
5.49257
5.49253
5.4925
5.49247
5.49246
5.49246
5.49248
5.4925
5.49254
5.49258
5.49262
5.49267
5.49271
5.49276
5.49281
5.49286
5.49291
5.49295
5.493
5.49304
5.49307
5.49311
5.49314
5.49316
5.49319
5.4932
5.49322
5.49323
5.49324
5.49324
5.49324
5.49324
5.49323
5.49322
5.4932
5.49319
5.49316
5.49314
5.49311
5.49307
5.49304
5.493
5.49295
5.49291
5.49286
5.49281
5.49276
5.49271
5.49267
5.49262
5.49258
5.49254
5.4925
5.49248
5.49246
5.49246
5.49247
5.4925
5.49253
5.49257
5.60227
5.60223
5.6022
5.60217
5.60217
5.60217
5.60219
5.60222
5.60225
5.60229
5.60234
5.60239
5.60244
5.60249
5.60254
5.60259
5.60264
5.60269
5.60274
5.60278
5.60282
5.60285
5.60288
5.60291
5.60293
5.60295
5.60297
5.60298
5.60299
5.60299
5.60299
5.60299
5.60298
5.60297
5.60295
5.60293
5.60291
5.60288
5.60285
5.60282
5.60278
5.60274
5.60269
5.60264
5.60259
5.60254
5.60249
5.60244
5.60239
5.60234
5.60229
5.60225
5.60222
5.60219
5.60217
5.60217
5.60217
5.6022
5.60223
5.60227
5.71506
5.71503
5.71499
5.71497
5.71497
5.71498
5.715
5.71503
5.71506
5.71511
5.71516
5.71521
5.71526
5.71532
5.71537
5.71543
5.71548
5.71553
5.71557
5.71562
5.71566
5.71569
5.71573
5.71575
5.71578
5.7158
5.71582
5.71583
5.71584
5.71584
5.71584
5.71584
5.71583
5.71582
5.7158
5.71578
5.71575
5.71573
5.71569
5.71566
5.71562
5.71557
5.71553
5.71548
5.71543
5.71537
5.71532
5.71526
5.71521
5.71516
5.71511
5.71506
5.71503
5.715
5.71498
5.71497
5.71497
5.71499
5.71503
5.71506
5.83105
5.83103
5.831
5.83098
5.83098
5.83099
5.83101
5.83104
5.83108
5.83113
5.83118
5.83124
5.83129
5.83135
5.83141
5.83146
5.83152
5.83157
5.83162
5.83166
5.83171
5.83174
5.83178
5.83181
5.83183
5.83185
5.83187
5.83188
5.83189
5.8319
5.8319
5.83189
5.83188
5.83187
5.83185
5.83183
5.83181
5.83178
5.83174
5.83171
5.83166
5.83162
5.83157
5.83152
5.83146
5.83141
5.83135
5.83129
5.83124
5.83118
5.83113
5.83108
5.83104
5.83101
5.83099
5.83098
5.83098
5.831
5.83103
5.83105
5.95037
5.95034
5.95032
5.9503
5.9503
5.95032
5.95034
5.95038
5.95042
5.95047
5.95052
5.95058
5.95064
5.9507
5.95076
5.95082
5.95088
5.95093
5.95098
5.95103
5.95107
5.95111
5.95115
5.95118
5.95121
5.95123
5.95125
5.95126
5.95127
5.95127
5.95127
5.95127
5.95126
5.95125
5.95123
5.95121
5.95118
5.95115
5.95111
5.95107
5.95103
5.95098
5.95093
5.95088
5.95082
5.95076
5.9507
5.95064
5.95058
5.95052
5.95047
5.95042
5.95038
5.95034
5.95032
5.9503
5.9503
5.95032
5.95034
5.95037
6.07311
6.07309
6.07307
6.07306
6.07306
6.07307
6.0731
6.07314
6.07319
6.07324
6.0733
6.07336
6.07342
6.07348
6.07355
6.07361
6.07367
6.07372
6.07378
6.07383
6.07387
6.07391
6.07395
6.07398
6.07401
6.07403
6.07405
6.07407
6.07408
6.07408
6.07408
6.07408
6.07407
6.07405
6.07403
6.07401
6.07398
6.07395
6.07391
6.07387
6.07383
6.07378
6.07372
6.07367
6.07361
6.07355
6.07348
6.07342
6.07336
6.0733
6.07324
6.07319
6.07314
6.0731
6.07307
6.07306
6.07306
6.07307
6.07309
6.07311
6.1994
6.19938
6.19936
6.19935
6.19936
6.19938
6.19941
6.19945
6.1995
6.19956
6.19962
6.19968
6.19975
6.19981
6.19988
6.19994
6.20001
6.20006
6.20012
6.20017
6.20022
6.20026
6.2003
6.20033
6.20036
6.20039
6.20041
6.20042
6.20043
6.20044
6.20044
6.20043
6.20042
6.20041
6.20039
6.20036
6.20033
6.2003
6.20026
6.20022
6.20017
6.20012
6.20006
6.20001
6.19994
6.19988
6.19981
6.19975
6.19968
6.19962
6.19956
6.1995
6.19945
6.19941
6.19938
6.19936
6.19935
6.19936
6.19938
6.1994
6.32935
6.32934
6.32932
6.32931
6.32932
6.32934
6.32938
6.32942
6.32948
6.32953
6.3296
6.32967
6.32974
6.32981
6.32988
6.32994
6.33001
6.33007
6.33013
6.33018
6.33023
6.33028
6.33032
6.33035
6.33038
6.33041
6.33043
6.33044
6.33045
6.33046
6.33046
6.33045
6.33044
6.33043
6.33041
6.33038
6.33035
6.33032
6.33028
6.33023
6.33018
6.33013
6.33007
6.33001
6.32994
6.32988
6.32981
6.32974
6.32967
6.3296
6.32953
6.32948
6.32942
6.32938
6.32934
6.32932
6.32931
6.32932
6.32934
6.32935
6.46309
6.46307
6.46306
6.46306
6.46307
6.46309
6.46313
6.46318
6.46324
6.4633