/*--------------------------------*- C++ -*----------------------------------*\
| =========                 |                                                 |
| \\      /  F ield         | foam-extend: Open Source CFD                    |
|  \\    /   O peration     | Version:     4.0                                |
|   \\  /    A nd           | Web:         http://www.foam-extend.org         |
|    \\/     M anipulation  |                                                 |
\*---------------------------------------------------------------------------*/
FoamFile
{
    version     2.0;
    format      ascii;
    class       volVectorField;
    location    "25";
    object      bodyForce;
}
// * * * * * * * * * * * * * * * * * * * * * * * * * * * * * * * * * * * * * //

dimensions      [0 -1 0 0 0 0 0];

internalField   nonuniform List<vector> 
6960
(
(-1.35502e-05 -9.28152e+08 -0)
(-4.14111e-05 -9.28152e+08 -0)
(-4.95126e-05 -9.28152e+08 -0)
(-3.17222e-05 -9.28152e+08 -0)
(-1.62798e-05 -9.28152e+08 -0)
(-9.63327e-06 -9.28152e+08 -0)
(-5.66601e-06 -9.28152e+08 -0)
(-3.58564e-06 -9.28152e+08 -0)
(-2.21287e-06 -9.28152e+08 -0)
(-1.37012e-06 -9.28152e+08 -0)
(-7.68541e-07 -9.28152e+08 -0)
(-3.7367e-07 -9.28152e+08 -0)
(-8.48046e-08 -9.28152e+08 -0)
(1.32507e-07 -9.28152e+08 -0)
(2.99466e-07 -9.28152e+08 -0)
(4.18723e-07 -9.28152e+08 -0)
(5.08827e-07 -9.28152e+08 -0)
(5.6183e-07 -9.28152e+08 -0)
(5.88332e-07 -9.28152e+08 -0)
(5.90982e-07 -9.28152e+08 -0)
(5.77731e-07 -9.28152e+08 -0)
(5.5918e-07 -9.28152e+08 -0)
(5.14128e-07 -9.28152e+08 -0)
(4.63775e-07 -9.28152e+08 -0)
(4.10772e-07 -9.28152e+08 -0)
(3.36568e-07 -9.28152e+08 -0)
(2.70315e-07 -9.28152e+08 -0)
(2.04061e-07 -9.28152e+08 -0)
(1.27207e-07 -9.28152e+08 -0)
(3.97521e-08 -9.28152e+08 -0)
(-3.44519e-08 -9.28152e+08 -0)
(-1.13956e-07 -9.28152e+08 -0)
(-2.01411e-07 -9.28152e+08 -0)
(-2.80915e-07 -9.28152e+08 -0)
(-3.52469e-07 -9.28152e+08 -0)
(-4.18723e-07 -9.28152e+08 -0)
(-4.71725e-07 -9.28152e+08 -0)
(-5.27378e-07 -9.28152e+08 -0)
(-5.5918e-07 -9.28152e+08 -0)
(-5.77731e-07 -9.28152e+08 -0)
(-6.06883e-07 -9.28152e+08 -0)
(-6.09533e-07 -9.28152e+08 -0)
(-5.5388e-07 -9.28152e+08 -0)
(-4.95577e-07 -9.28152e+08 -0)
(-4.29323e-07 -9.28152e+08 -0)
(-3.10067e-07 -9.28152e+08 -0)
(-1.48408e-07 -9.28152e+08 -0)
(6.09533e-08 -9.28152e+08 -0)
(3.7367e-07 -9.28152e+08 -0)
(8.00343e-07 -9.28152e+08 -0)
(1.39928e-06 -9.28152e+08 -0)
(2.22347e-06 -9.28152e+08 -0)
(3.58034e-06 -9.28152e+08 -0)
(5.66601e-06 -9.28152e+08 -0)
(9.62532e-06 -9.28152e+08 -0)
(1.62772e-05 -9.28152e+08 -0)
(3.17275e-05 -9.28152e+08 -0)
(4.95047e-05 -9.28152e+08 -0)
(4.13926e-05 -9.28152e+08 -0)
(1.35369e-05 -9.28152e+08 -0)
(-3.19286e-05 -1.89996e+08 -0)
(-9.76586e-05 -1.89996e+08 -0)
(-0.000116959 -1.89996e+08 -0)
(-7.51127e-05 -1.89996e+08 -0)
(-3.85999e-05 -1.89996e+08 -0)
(-2.28279e-05 -1.89996e+08 -0)
(-1.34407e-05 -1.89996e+08 -0)
(-8.50051e-06 -1.89996e+08 -0)
(-5.24628e-06 -1.89996e+08 -0)
(-3.25272e-06 -1.89996e+08 -0)
(-1.82165e-06 -1.89996e+08 -0)
(-8.85187e-07 -1.89996e+08 -0)
(-2.0961e-07 -1.89996e+08 -0)
(3.09137e-07 -1.89996e+08 -0)
(7.11769e-07 -1.89996e+08 -0)
(9.96778e-07 -1.89996e+08 -0)
(1.19885e-06 -1.89996e+08 -0)
(1.33155e-06 -1.89996e+08 -0)
(1.39489e-06 -1.89996e+08 -0)
(1.3979e-06 -1.89996e+08 -0)
(1.37528e-06 -1.89996e+08 -0)
(1.3225e-06 -1.89996e+08 -0)
(1.21544e-06 -1.89996e+08 -0)
(1.09027e-06 -1.89996e+08 -0)
(9.66618e-07 -1.89996e+08 -0)
(8.06772e-07 -1.89996e+08 -0)
(6.37877e-07 -1.89996e+08 -0)
(4.79539e-07 -1.89996e+08 -0)
(3.10645e-07 -1.89996e+08 -0)
(1.07067e-07 -1.89996e+08 -0)
(-9.04791e-08 -1.89996e+08 -0)
(-2.75961e-07 -1.89996e+08 -0)
(-4.81047e-07 -1.89996e+08 -0)
(-6.62005e-07 -1.89996e+08 -0)
(-8.21852e-07 -1.89996e+08 -0)
(-9.89238e-07 -1.89996e+08 -0)
(-1.12948e-06 -1.89996e+08 -0)
(-1.24409e-06 -1.89996e+08 -0)
(-1.32703e-06 -1.89996e+08 -0)
(-1.38433e-06 -1.89996e+08 -0)
(-1.43259e-06 -1.89996e+08 -0)
(-1.42505e-06 -1.89996e+08 -0)
(-1.31647e-06 -1.89996e+08 -0)
(-1.17774e-06 -1.89996e+08 -0)
(-1.01337e-06 -1.89996e+08 -0)
(-7.34388e-07 -1.89996e+08 -0)
(-3.6644e-07 -1.89996e+08 -0)
(1.4929e-07 -1.89996e+08 -0)
(9.03283e-07 -1.89996e+08 -0)
(1.89252e-06 -1.89996e+08 -0)
(3.31455e-06 -1.89996e+08 -0)
(5.27041e-06 -1.89996e+08 -0)
(8.49297e-06 -1.89996e+08 -0)
(1.34422e-05 -1.89996e+08 -0)
(2.28188e-05 -1.89996e+08 -0)
(3.85923e-05 -1.89996e+08 -0)
(7.51308e-05 -1.89996e+08 -0)
(0.000116934 -1.89996e+08 -0)
(9.76209e-05 -1.89996e+08 -0)
(3.19195e-05 -1.89996e+08 -0)
(-2.83512e-05 -6.52766e+07 -0)
(-8.91727e-05 -6.52766e+07 -0)
(-0.00010764 -6.52766e+07 -0)
(-6.87551e-05 -6.52766e+07 -0)
(-3.54437e-05 -6.52766e+07 -0)
(-2.096e-05 -6.52766e+07 -0)
(-1.23468e-05 -6.52766e+07 -0)
(-7.80829e-06 -6.52766e+07 -0)
(-4.82204e-06 -6.52766e+07 -0)
(-2.9839e-06 -6.52766e+07 -0)
(-1.67413e-06 -6.52766e+07 -0)
(-8.16561e-07 -6.52766e+07 -0)
(-1.93304e-07 -6.52766e+07 -0)
(2.83512e-07 -6.52766e+07 -0)
(6.51374e-07 -6.52766e+07 -0)
(9.1497e-07 -6.52766e+07 -0)
(1.10242e-06 -6.52766e+07 -0)
(1.22308e-06 -6.52766e+07 -0)
(1.28166e-06 -6.52766e+07 -0)
(1.27932e-06 -6.52766e+07 -0)
(1.26292e-06 -6.52766e+07 -0)
(1.21723e-06 -6.52766e+07 -0)
(1.11647e-06 -6.52766e+07 -0)
(9.96978e-07 -6.52766e+07 -0)
(8.88025e-07 -6.52766e+07 -0)
(7.43926e-07 -6.52766e+07 -0)
(5.85768e-07 -6.52766e+07 -0)
(4.36983e-07 -6.52766e+07 -0)
(2.85855e-07 -6.52766e+07 -0)
(9.72375e-08 -6.52766e+07 -0)
(-8.43506e-08 -6.52766e+07 -0)
(-2.54223e-07 -6.52766e+07 -0)
(-4.39326e-07 -6.52766e+07 -0)
(-6.08027e-07 -6.52766e+07 -0)
(-7.57984e-07 -6.52766e+07 -0)
(-9.04426e-07 -6.52766e+07 -0)
(-1.03564e-06 -6.52766e+07 -0)
(-1.14342e-06 -6.52766e+07 -0)
(-1.21957e-06 -6.52766e+07 -0)
(-1.27346e-06 -6.52766e+07 -0)
(-1.31329e-06 -6.52766e+07 -0)
(-1.30509e-06 -6.52766e+07 -0)
(-1.20785e-06 -6.52766e+07 -0)
(-1.0825e-06 -6.52766e+07 -0)
(-9.29029e-07 -6.52766e+07 -0)
(-6.73634e-07 -6.52766e+07 -0)
(-3.35059e-07 -6.52766e+07 -0)
(1.39413e-07 -6.52766e+07 -0)
(8.28276e-07 -6.52766e+07 -0)
(1.73739e-06 -6.52766e+07 -0)
(3.04717e-06 -6.52766e+07 -0)
(4.84313e-06 -6.52766e+07 -0)
(7.80009e-06 -6.52766e+07 -0)
(1.23457e-05 -6.52766e+07 -0)
(2.09482e-05 -6.52766e+07 -0)
(3.54343e-05 -6.52766e+07 -0)
(6.87762e-05 -6.52766e+07 -0)
(0.00010762 -6.52766e+07 -0)
(8.91352e-05 -6.52766e+07 -0)
(2.83418e-05 -6.52766e+07 -0)
(-2.34754e-05 -2.9974e+07 -0)
(-7.40071e-05 -2.9974e+07 -0)
(-8.92408e-05 -2.9974e+07 -0)
(-5.69297e-05 -2.9974e+07 -0)
(-2.94337e-05 -2.9974e+07 -0)
(-1.74062e-05 -2.9974e+07 -0)
(-1.0257e-05 -2.9974e+07 -0)
(-6.48757e-06 -2.9974e+07 -0)
(-4.00764e-06 -2.9974e+07 -0)
(-2.48049e-06 -2.9974e+07 -0)
(-1.38919e-06 -2.9974e+07 -0)
(-6.79672e-07 -2.9974e+07 -0)
(-1.61049e-07 -2.9974e+07 -0)
(2.34816e-07 -2.9974e+07 -0)
(5.38332e-07 -2.9974e+07 -0)
(7.61323e-07 -2.9974e+07 -0)
(9.15051e-07 -2.9974e+07 -0)
(1.01416e-06 -2.9974e+07 -0)
(1.06371e-06 -2.9974e+07 -0)
(1.06259e-06 -2.9974e+07 -0)
(1.04626e-06 -2.9974e+07 -0)
(1.01134e-06 -2.9974e+07 -0)
(9.26876e-07 -2.9974e+07 -0)
(8.29459e-07 -2.9974e+07 -0)
(7.39361e-07 -2.9974e+07 -0)
(6.16041e-07 -2.9974e+07 -0)
(4.87089e-07 -2.9974e+07 -0)
(3.63768e-07 -2.9974e+07 -0)
(2.35379e-07 -2.9974e+07 -0)
(8.22138e-08 -2.9974e+07 -0)
(-6.92623e-08 -2.9974e+07 -0)
(-2.11729e-07 -2.9974e+07 -0)
(-3.66584e-07 -2.9974e+07 -0)
(-5.05108e-07 -2.9974e+07 -0)
(-6.29555e-07 -2.9974e+07 -0)
(-7.50623e-07 -2.9974e+07 -0)
(-8.57614e-07 -2.9974e+07 -0)
(-9.49964e-07 -2.9974e+07 -0)
(-1.01472e-06 -2.9974e+07 -0)
(-1.05695e-06 -2.9974e+07 -0)
(-1.09018e-06 -2.9974e+07 -0)
(-1.08342e-06 -2.9974e+07 -0)
(-1.00121e-06 -2.9974e+07 -0)
(-8.98721e-07 -2.9974e+07 -0)
(-7.71458e-07 -2.9974e+07 -0)
(-5.5804e-07 -2.9974e+07 -0)
(-2.77049e-07 -2.9974e+07 -0)
(1.16e-07 -2.9974e+07 -0)
(6.85866e-07 -2.9974e+07 -0)
(1.44325e-06 -2.9974e+07 -0)
(2.53286e-06 -2.9974e+07 -0)
(4.02566e-06 -2.9974e+07 -0)
(6.47969e-06 -2.9974e+07 -0)
(1.02559e-05 -2.9974e+07 -0)
(1.73955e-05 -2.9974e+07 -0)
(2.94275e-05 -2.9974e+07 -0)
(5.69488e-05 -2.9974e+07 -0)
(8.92268e-05 -2.9974e+07 -0)
(7.39772e-05 -2.9974e+07 -0)
(2.34687e-05 -2.9974e+07 -0)
(-2.11876e-05 -1.78345e+07 -0)
(-6.6349e-05 -1.78345e+07 -0)
(-7.96816e-05 -1.78345e+07 -0)
(-5.0843e-05 -1.78345e+07 -0)
(-2.6362e-05 -1.78345e+07 -0)
(-1.5591e-05 -1.78345e+07 -0)
(-9.1899e-06 -1.78345e+07 -0)
(-5.81356e-06 -1.78345e+07 -0)
(-3.59123e-06 -1.78345e+07 -0)
(-2.22301e-06 -1.78345e+07 -0)
(-1.24785e-06 -1.78345e+07 -0)
(-6.07945e-07 -1.78345e+07 -0)
(-1.44166e-07 -1.78345e+07 -0)
(2.08769e-07 -1.78345e+07 -0)
(4.8282e-07 -1.78345e+07 -0)
(6.81388e-07 -1.78345e+07 -0)
(8.18754e-07 -1.78345e+07 -0)
(9.11237e-07 -1.78345e+07 -0)
(9.51359e-07 -1.78345e+07 -0)
(9.51359e-07 -1.78345e+07 -0)
(9.37079e-07 -1.78345e+07 -0)
(9.05117e-07 -1.78345e+07 -0)
(8.30314e-07 -1.78345e+07 -0)
(7.41911e-07 -1.78345e+07 -0)
(6.62347e-07 -1.78345e+07 -0)
(5.52863e-07 -1.78345e+07 -0)
(4.37258e-07 -1.78345e+07 -0)
(3.24373e-07 -1.78345e+07 -0)
(2.12169e-07 -1.78345e+07 -0)
(7.48031e-08 -1.78345e+07 -0)
(-6.46027e-08 -1.78345e+07 -0)
(-1.89048e-07 -1.78345e+07 -0)
(-3.28454e-07 -1.78345e+07 -0)
(-4.52899e-07 -1.78345e+07 -0)
(-5.63743e-07 -1.78345e+07 -0)
(-6.71188e-07 -1.78345e+07 -0)
(-7.69792e-07 -1.78345e+07 -0)
(-8.50715e-07 -1.78345e+07 -0)
(-9.07157e-07 -1.78345e+07 -0)
(-9.47279e-07 -1.78345e+07 -0)
(-9.772e-07 -1.78345e+07 -0)
(-9.6904e-07 -1.78345e+07 -0)
(-8.96957e-07 -1.78345e+07 -0)
(-8.04473e-07 -1.78345e+07 -0)
(-6.90908e-07 -1.78345e+07 -0)
(-4.99141e-07 -1.78345e+07 -0)
(-2.4889e-07 -1.78345e+07 -0)
(1.05404e-07 -1.78345e+07 -0)
(6.16105e-07 -1.78345e+07 -0)
(1.29341e-06 -1.78345e+07 -0)
(2.26993e-06 -1.78345e+07 -0)
(3.60687e-06 -1.78345e+07 -0)
(5.8054e-06 -1.78345e+07 -0)
(9.19058e-06 -1.78345e+07 -0)
(1.55815e-05 -1.78345e+07 -0)
(2.63545e-05 -1.78345e+07 -0)
(5.086e-05 -1.78345e+07 -0)
(7.96694e-05 -1.78345e+07 -0)
(6.63218e-05 -1.78345e+07 -0)
(2.11815e-05 -1.78345e+07 -0)
(-2.17151e-05 -1.33288e+07 -0)
(-6.74456e-05 -1.33288e+07 -0)
(-8.06409e-05 -1.33288e+07 -0)
(-5.14848e-05 -1.33288e+07 -0)
(-2.67661e-05 -1.33288e+07 -0)
(-1.58324e-05 -1.33288e+07 -0)
(-9.33668e-06 -1.33288e+07 -0)
(-5.90562e-06 -1.33288e+07 -0)
(-3.64865e-06 -1.33288e+07 -0)
(-2.26003e-06 -1.33288e+07 -0)
(-1.26735e-06 -1.33288e+07 -0)
(-6.18641e-07 -1.33288e+07 -0)
(-1.4829e-07 -1.33288e+07 -0)
(2.11989e-07 -1.33288e+07 -0)
(4.90734e-07 -1.33288e+07 -0)
(6.88964e-07 -1.33288e+07 -0)
(8.31139e-07 -1.33288e+07 -0)
(9.26432e-07 -1.33288e+07 -0)
(9.66689e-07 -1.33288e+07 -0)
(9.64651e-07 -1.33288e+07 -0)
(9.52931e-07 -1.33288e+07 -0)
(9.20317e-07 -1.33288e+07 -0)
(8.4235e-07 -1.33288e+07 -0)
(7.54701e-07 -1.33288e+07 -0)
(6.71638e-07 -1.33288e+07 -0)
(5.61057e-07 -1.33288e+07 -0)
(4.44361e-07 -1.33288e+07 -0)
(3.29194e-07 -1.33288e+07 -0)
(2.15556e-07 -1.33288e+07 -0)
(7.74575e-08 -1.33288e+07 -0)
(-6.67561e-08 -1.33288e+07 -0)
(-1.93134e-07 -1.33288e+07 -0)
(-3.32761e-07 -1.33288e+07 -0)
(-4.5863e-07 -1.33288e+07 -0)
(-5.71758e-07 -1.33288e+07 -0)
(-6.83868e-07 -1.33288e+07 -0)
(-7.81709e-07 -1.33288e+07 -0)
(-8.63753e-07 -1.33288e+07 -0)
(-9.21336e-07 -1.33288e+07 -0)
(-9.62613e-07 -1.33288e+07 -0)
(-9.9115e-07 -1.33288e+07 -0)
(-9.84525e-07 -1.33288e+07 -0)
(-9.11654e-07 -1.33288e+07 -0)
(-8.1738e-07 -1.33288e+07 -0)
(-6.99156e-07 -1.33288e+07 -0)
(-5.0806e-07 -1.33288e+07 -0)
(-2.51737e-07 -1.33288e+07 -0)
(1.09052e-07 -1.33288e+07 -0)
(6.26794e-07 -1.33288e+07 -0)
(1.31627e-06 -1.33288e+07 -0)
(2.30538e-06 -1.33288e+07 -0)
(3.66445e-06 -1.33288e+07 -0)
(5.899e-06 -1.33288e+07 -0)
(9.33617e-06 -1.33288e+07 -0)
(1.58207e-05 -1.33288e+07 -0)
(2.676e-05 -1.33288e+07 -0)
(5.15046e-05 -1.33288e+07 -0)
(8.06261e-05 -1.33288e+07 -0)
(6.74181e-05 -1.33288e+07 -0)
(2.17115e-05 -1.33288e+07 -0)
(-2.43244e-05 -1.16057e+07 -0)
(-7.49597e-05 -1.16057e+07 -0)
(-8.92543e-05 -1.16057e+07 -0)
(-5.70224e-05 -1.16057e+07 -0)
(-2.97183e-05 -1.16057e+07 -0)
(-1.75836e-05 -1.16057e+07 -0)
(-1.0375e-05 -1.16057e+07 -0)
(-6.55991e-06 -1.16057e+07 -0)
(-4.05568e-06 -1.16057e+07 -0)
(-2.51265e-06 -1.16057e+07 -0)
(-1.40921e-06 -1.16057e+07 -0)
(-6.88208e-07 -1.16057e+07 -0)
(-1.65294e-07 -1.16057e+07 -0)
(2.34868e-07 -1.16057e+07 -0)
(5.43299e-07 -1.16057e+07 -0)
(7.65315e-07 -1.16057e+07 -0)
(9.22633e-07 -1.16057e+07 -0)
(1.0281e-06 -1.16057e+07 -0)
(1.07419e-06 -1.16057e+07 -0)
(1.07197e-06 -1.16057e+07 -0)
(1.05779e-06 -1.16057e+07 -0)
(1.02145e-06 -1.16057e+07 -0)
(9.3637e-07 -1.16057e+07 -0)
(8.38435e-07 -1.16057e+07 -0)
(7.47146e-07 -1.16057e+07 -0)
(6.23065e-07 -1.16057e+07 -0)
(4.94552e-07 -1.16057e+07 -0)
(3.65597e-07 -1.16057e+07 -0)
(2.38413e-07 -1.16057e+07 -0)
(8.50843e-08 -1.16057e+07 -0)
(-7.26762e-08 -1.16057e+07 -0)
(-2.14483e-07 -1.16057e+07 -0)
(-3.70914e-07 -1.16057e+07 -0)
(-5.09619e-07 -1.16057e+07 -0)
(-6.3503e-07 -1.16057e+07 -0)
(-7.60441e-07 -1.16057e+07 -0)
(-8.68126e-07 -1.16057e+07 -0)
(-9.57198e-07 -1.16057e+07 -0)
(-1.02323e-06 -1.16057e+07 -0)
(-1.07064e-06 -1.16057e+07 -0)
(-1.10211e-06 -1.16057e+07 -0)
(-1.09236e-06 -1.16057e+07 -0)
(-1.01082e-06 -1.16057e+07 -0)
(-9.08895e-07 -1.16057e+07 -0)
(-7.7728e-07 -1.16057e+07 -0)
(-5.61025e-07 -1.16057e+07 -0)
(-2.79183e-07 -1.16057e+07 -0)
(1.20093e-07 -1.16057e+07 -0)
(6.984e-07 -1.16057e+07 -0)
(1.46283e-06 -1.16057e+07 -0)
(2.56272e-06 -1.16057e+07 -0)
(4.07385e-06 -1.16057e+07 -0)
(6.55371e-06 -1.16057e+07 -0)
(1.03723e-05 -1.16057e+07 -0)
(1.75708e-05 -1.16057e+07 -0)
(2.97117e-05 -1.16057e+07 -0)
(5.70455e-05 -1.16057e+07 -0)
(8.92375e-05 -1.16057e+07 -0)
(7.49282e-05 -1.16057e+07 -0)
(2.43199e-05 -1.16057e+07 -0)
(-2.82403e-05 -1.0934e+07 -0)
(-8.64048e-05 -1.0934e+07 -0)
(-0.000102487 -1.0934e+07 -0)
(-6.55203e-05 -1.0934e+07 -0)
(-3.42302e-05 -1.0934e+07 -0)
(-2.02601e-05 -1.0934e+07 -0)
(-1.1959e-05 -1.0934e+07 -0)
(-7.5617e-06 -1.0934e+07 -0)
(-4.67698e-06 -1.0934e+07 -0)
(-2.89889e-06 -1.0934e+07 -0)
(-1.62638e-06 -1.0934e+07 -0)
(-7.94433e-07 -1.0934e+07 -0)
(-1.90897e-07 -1.0934e+07 -0)
(2.69674e-07 -1.0934e+07 -0)
(6.23959e-07 -1.0934e+07 -0)
(8.81962e-07 -1.0934e+07 -0)
(1.06327e-06 -1.0934e+07 -0)
(1.1854e-06 -1.0934e+07 -0)
(1.23875e-06 -1.0934e+07 -0)
(1.23541e-06 -1.0934e+07 -0)
(1.21874e-06 -1.0934e+07 -0)
(1.17623e-06 -1.0934e+07 -0)
(1.07911e-06 -1.0934e+07 -0)
(9.66991e-07 -1.0934e+07 -0)
(8.61539e-07 -1.0934e+07 -0)
(7.19408e-07 -1.0934e+07 -0)
(5.70191e-07 -1.0934e+07 -0)
(4.19724e-07 -1.0934e+07 -0)
(2.75092e-07 -1.0934e+07 -0)
(9.83663e-08 -1.0934e+07 -0)
(-8.50285e-08 -1.0934e+07 -0)
(-2.46749e-07 -1.0934e+07 -0)
(-4.26393e-07 -1.0934e+07 -0)
(-5.8603e-07 -1.0934e+07 -0)
(-7.32746e-07 -1.0934e+07 -0)
(-8.78211e-07 -1.0934e+07 -0)
(-1.00117e-06 -1.0934e+07 -0)
(-1.10245e-06 -1.0934e+07 -0)
(-1.17915e-06 -1.0934e+07 -0)
(-1.23333e-06 -1.0934e+07 -0)
(-1.26918e-06 -1.0934e+07 -0)
(-1.26042e-06 -1.0934e+07 -0)
(-1.16622e-06 -1.0934e+07 -0)
(-1.04618e-06 -1.0934e+07 -0)
(-8.94883e-07 -1.0934e+07 -0)
(-6.46467e-07 -1.0934e+07 -0)
(-3.20524e-07 -1.0934e+07 -0)
(1.39213e-07 -1.0934e+07 -0)
(8.07771e-07 -1.0934e+07 -0)
(1.68848e-06 -1.0934e+07 -0)
(2.95432e-06 -1.0934e+07 -0)
(4.69657e-06 -1.0934e+07 -0)
(7.55628e-06 -1.0934e+07 -0)
(1.19569e-05 -1.0934e+07 -0)
(2.0243e-05 -1.0934e+07 -0)
(3.42219e-05 -1.0934e+07 -0)
(6.55478e-05 -1.0934e+07 -0)
(0.000102469 -1.0934e+07 -0)
(8.63694e-05 -1.0934e+07 -0)
(2.82353e-05 -1.0934e+07 -0)
(-3.29248e-05 -1.06617e+07 -0)
(-0.000100056 -1.06617e+07 -0)
(-0.00011824 -1.06617e+07 -0)
(-7.56383e-05 -1.06617e+07 -0)
(-3.96096e-05 -1.06617e+07 -0)
(-2.34539e-05 -1.06617e+07 -0)
(-1.38538e-05 -1.06617e+07 -0)
(-8.75915e-06 -1.06617e+07 -0)
(-5.41881e-06 -1.06617e+07 -0)
(-3.36065e-06 -1.06617e+07 -0)
(-1.88671e-06 -1.06617e+07 -0)
(-9.21417e-07 -1.06617e+07 -0)
(-2.22635e-07 -1.06617e+07 -0)
(3.10389e-07 -1.06617e+07 -0)
(7.21533e-07 -1.06617e+07 -0)
(1.01892e-06 -1.06617e+07 -0)
(1.23181e-06 -1.06617e+07 -0)
(1.374e-06 -1.06617e+07 -0)
(1.43494e-06 -1.06617e+07 -0)
(1.42925e-06 -1.06617e+07 -0)
(1.41056e-06 -1.06617e+07 -0)
(1.36425e-06 -1.06617e+07 -0)
(1.25131e-06 -1.06617e+07 -0)
(1.1213e-06 -1.06617e+07 -0)
(9.9617e-07 -1.06617e+07 -0)
(8.32038e-07 -1.06617e+07 -0)
(6.62218e-07 -1.06617e+07 -0)
(4.87522e-07 -1.06617e+07 -0)
(3.17702e-07 -1.06617e+07 -0)
(1.14568e-07 -1.06617e+07 -0)
(-9.91295e-08 -1.06617e+07 -0)
(-2.86826e-07 -1.06617e+07 -0)
(-4.94023e-07 -1.06617e+07 -0)
(-6.79281e-07 -1.06617e+07 -0)
(-8.46664e-07 -1.06617e+07 -0)
(-1.01892e-06 -1.06617e+07 -0)
(-1.16112e-06 -1.06617e+07 -0)
(-1.27487e-06 -1.06617e+07 -0)
(-1.36506e-06 -1.06617e+07 -0)
(-1.42925e-06 -1.06617e+07 -0)
(-1.47069e-06 -1.06617e+07 -0)
(-1.45932e-06 -1.06617e+07 -0)
(-1.34719e-06 -1.06617e+07 -0)
(-1.21149e-06 -1.06617e+07 -0)
(-1.0368e-06 -1.06617e+07 -0)
(-7.49159e-07 -1.06617e+07 -0)
(-3.69704e-07 -1.06617e+07 -0)
(1.64132e-07 -1.06617e+07 -0)
(9.3523e-07 -1.06617e+07 -0)
(1.95903e-06 -1.06617e+07 -0)
(3.42403e-06 -1.06617e+07 -0)
(5.44075e-06 -1.06617e+07 -0)
(8.75427e-06 -1.06617e+07 -0)
(1.38489e-05 -1.06617e+07 -0)
(2.34344e-05 -1.06617e+07 -0)
(3.96031e-05 -1.06617e+07 -0)
(7.56708e-05 -1.06617e+07 -0)
(0.000118221 -1.06617e+07 -0)
(0.000100011 -1.06617e+07 -0)
(3.29159e-05 -1.06617e+07 -0)
(-3.80611e-05 -1.05389e+07 -0)
(-0.000114895 -1.05389e+07 -0)
(-0.000135274 -1.05389e+07 -0)
(-8.65828e-05 -1.05389e+07 -0)
(-4.54498e-05 -1.05389e+07 -0)
(-2.69269e-05 -1.05389e+07 -0)
(-1.59159e-05 -1.05389e+07 -0)
(-1.00664e-05 -1.05389e+07 -0)
(-6.22685e-06 -1.05389e+07 -0)
(-3.86211e-06 -1.05389e+07 -0)
(-2.17002e-06 -1.05389e+07 -0)
(-1.06128e-06 -1.05389e+07 -0)
(-2.59083e-07 -1.05389e+07 -0)
(3.54831e-07 -1.05389e+07 -0)
(8.2794e-07 -1.05389e+07 -0)
(1.17231e-06 -1.05389e+07 -0)
(1.4153e-06 -1.05389e+07 -0)
(1.57864e-06 -1.05389e+07 -0)
(1.64542e-06 -1.05389e+07 -0)
(1.6422e-06 -1.05389e+07 -0)
(1.62128e-06 -1.05389e+07 -0)
(1.56576e-06 -1.05389e+07 -0)
(1.43864e-06 -1.05389e+07 -0)
(1.28978e-06 -1.05389e+07 -0)
(1.14415e-06 -1.05389e+07 -0)
(9.55067e-07 -1.05389e+07 -0)
(7.59548e-07 -1.05389e+07 -0)
(5.6081e-07 -1.05389e+07 -0)
(3.66096e-07 -1.05389e+07 -0)
(1.31151e-07 -1.05389e+07 -0)
(-1.15863e-07 -1.05389e+07 -0)
(-3.30693e-07 -1.05389e+07 -0)
(-5.65638e-07 -1.05389e+07 -0)
(-7.78859e-07 -1.05389e+07 -0)
(-9.74378e-07 -1.05389e+07 -0)
(-1.17231e-06 -1.05389e+07 -0)
(-1.33162e-06 -1.05389e+07 -0)
(-1.46197e-06 -1.05389e+07 -0)
(-1.56898e-06 -1.05389e+07 -0)
(-1.64381e-06 -1.05389e+07 -0)
(-1.69048e-06 -1.05389e+07 -0)
(-1.67358e-06 -1.05389e+07 -0)
(-1.54726e-06 -1.05389e+07 -0)
(-1.39197e-06 -1.05389e+07 -0)
(-1.19162e-06 -1.05389e+07 -0)
(-8.60124e-07 -1.05389e+07 -0)
(-4.23223e-07 -1.05389e+07 -0)
(1.90692e-07 -1.05389e+07 -0)
(1.07737e-06 -1.05389e+07 -0)
(2.2529e-06 -1.05389e+07 -0)
(3.93613e-06 -1.05389e+07 -0)
(6.25501e-06 -1.05389e+07 -0)
(1.00592e-05 -1.05389e+07 -0)
(1.59103e-05 -1.05389e+07 -0)
(2.69036e-05 -1.05389e+07 -0)
(4.54433e-05 -1.05389e+07 -0)
(8.66223e-05 -1.05389e+07 -0)
(0.00013525 -1.05389e+07 -0)
(0.000114844 -1.05389e+07 -0)
(3.80506e-05 -1.05389e+07 -0)
(-4.34812e-05 -1.04687e+07 -0)
(-0.000130367 -1.04687e+07 -0)
(-0.000152889 -1.04687e+07 -0)
(-9.79032e-05 -1.04687e+07 -0)
(-5.1525e-05 -1.04687e+07 -0)
(-3.0546e-05 -1.04687e+07 -0)
(-1.80684e-05 -1.04687e+07 -0)
(-1.14306e-05 -1.04687e+07 -0)
(-7.07063e-06 -1.04687e+07 -0)
(-4.39044e-06 -1.04687e+07 -0)
(-2.46741e-06 -1.04687e+07 -0)
(-1.20681e-06 -1.04687e+07 -0)
(-2.97888e-07 -1.04687e+07 -0)
(4.02269e-07 -1.04687e+07 -0)
(9.38629e-07 -1.04687e+07 -0)
(1.32805e-06 -1.04687e+07 -0)
(1.60667e-06 -1.04687e+07 -0)
(1.79134e-06 -1.04687e+07 -0)
(1.86923e-06 -1.04687e+07 -0)
(1.8628e-06 -1.04687e+07 -0)
(1.83872e-06 -1.04687e+07 -0)
(1.7801e-06 -1.04687e+07 -0)
(1.63557e-06 -1.04687e+07 -0)
(1.46535e-06 -1.04687e+07 -0)
(1.29834e-06 -1.04687e+07 -0)
(1.08396e-06 -1.04687e+07 -0)
(8.63956e-07 -1.04687e+07 -0)
(6.33514e-07 -1.04687e+07 -0)
(4.17525e-07 -1.04687e+07 -0)
(1.48543e-07 -1.04687e+07 -0)
(-1.33287e-07 -1.04687e+07 -0)
(-3.7497e-07 -1.04687e+07 -0)
(-6.41543e-07 -1.04687e+07 -0)
(-8.84029e-07 -1.04687e+07 -0)
(-1.10644e-06 -1.04687e+07 -0)
(-1.33126e-06 -1.04687e+07 -0)
(-1.51192e-06 -1.04687e+07 -0)
(-1.65886e-06 -1.04687e+07 -0)
(-1.78331e-06 -1.04687e+07 -0)
(-1.86762e-06 -1.04687e+07 -0)
(-1.91821e-06 -1.04687e+07 -0)
(-1.89813e-06 -1.04687e+07 -0)
(-1.75441e-06 -1.04687e+07 -0)
(-1.58017e-06 -1.04687e+07 -0)
(-1.35294e-06 -1.04687e+07 -0)
(-9.74761e-07 -1.04687e+07 -0)
(-4.76942e-07 -1.04687e+07 -0)
(2.16792e-07 -1.04687e+07 -0)
(1.22528e-06 -1.04687e+07 -0)
(2.56136e-06 -1.04687e+07 -0)
(4.47153e-06 -1.04687e+07 -0)
(7.10596e-06 -1.04687e+07 -0)
(1.14217e-05 -1.04687e+07 -0)
(1.80612e-05 -1.04687e+07 -0)
(3.05195e-05 -1.04687e+07 -0)
(5.15186e-05 -1.04687e+07 -0)
(9.79506e-05 -1.04687e+07 -0)
(0.000152861 -1.04687e+07 -0)
(0.000130306 -1.04687e+07 -0)
(4.34716e-05 -1.04687e+07 -0)
(-4.90994e-05 -1.04128e+07 -0)
(-0.000146144 -1.04128e+07 -0)
(-0.000170661 -1.04128e+07 -0)
(-0.000109327 -1.04128e+07 -0)
(-5.76984e-05 -1.04128e+07 -0)
(-3.42344e-05 -1.04128e+07 -0)
(-2.02655e-05 -1.04128e+07 -0)
(-1.28241e-05 -1.04128e+07 -0)
(-7.93889e-06 -1.04128e+07 -0)
(-4.92708e-06 -1.04128e+07 -0)
(-2.7743e-06 -1.04128e+07 -0)
(-1.35897e-06 -1.04128e+07 -0)
(-3.34913e-07 -1.04128e+07 -0)
(4.48429e-07 -1.04128e+07 -0)
(1.05063e-06 -1.04128e+07 -0)
(1.48859e-06 -1.04128e+07 -0)
(1.80257e-06 -1.04128e+07 -0)
(2.00948e-06 -1.04128e+07 -0)
(2.09643e-06 -1.04128e+07 -0)
(2.08918e-06 -1.04128e+07 -0)
(2.06261e-06 -1.04128e+07 -0)
(1.99901e-06 -1.04128e+07 -0)
(1.83719e-06 -1.04128e+07 -0)
(1.64317e-06 -1.04128e+07 -0)
(1.45317e-06 -1.04128e+07 -0)
(1.21567e-06 -1.04128e+07 -0)
(9.70926e-07 -1.04128e+07 -0)
(7.14105e-07 -1.04128e+07 -0)
(4.67751e-07 -1.04128e+07 -0)
(1.66651e-07 -1.04128e+07 -0)
(-1.5377e-07 -1.04128e+07 -0)
(-4.20251e-07 -1.04128e+07 -0)
(-7.18936e-07 -1.04128e+07 -0)
(-9.91053e-07 -1.04128e+07 -0)
(-1.24063e-06 -1.04128e+07 -0)
(-1.49503e-06 -1.04128e+07 -0)
(-1.6963e-06 -1.04128e+07 -0)
(-1.86376e-06 -1.04128e+07 -0)
(-1.99901e-06 -1.04128e+07 -0)
(-2.09562e-06 -1.04128e+07 -0)
(-2.15198e-06 -1.04128e+07 -0)
(-2.12782e-06 -1.04128e+07 -0)
(-1.9652e-06 -1.04128e+07 -0)
(-1.77117e-06 -1.04128e+07 -0)
(-1.51596e-06 -1.04128e+07 -0)
(-1.09491e-06 -1.04128e+07 -0)
(-5.33768e-07 -1.04128e+07 -0)
(2.47964e-07 -1.04128e+07 -0)
(1.37508e-06 -1.04128e+07 -0)
(2.87735e-06 -1.04128e+07 -0)
(5.0245e-06 -1.04128e+07 -0)
(7.97753e-06 -1.04128e+07 -0)
(1.28144e-05 -1.04128e+07 -0)
(2.02542e-05 -1.04128e+07 -0)
(3.42038e-05 -1.04128e+07 -0)
(5.76912e-05 -1.04128e+07 -0)
(0.00010938 -1.04128e+07 -0)
(0.00017063 -1.04128e+07 -0)
(0.000146079 -1.04128e+07 -0)
(4.90889e-05 -1.04128e+07 -0)
(-5.48585e-05 -1.03542e+07 -0)
(-0.000161991 -1.03542e+07 -0)
(-0.000188257 -1.03542e+07 -0)
(-0.000120644 -1.03542e+07 -0)
(-6.38707e-05 -1.03542e+07 -0)
(-3.79296e-05 -1.03542e+07 -0)
(-2.24746e-05 -1.03542e+07 -0)
(-1.42282e-05 -1.03542e+07 -0)
(-8.81207e-06 -1.03542e+07 -0)
(-5.4728e-06 -1.03542e+07 -0)
(-3.08564e-06 -1.03542e+07 -0)
(-1.51203e-06 -1.03542e+07 -0)
(-3.75171e-07 -1.03542e+07 -0)
(4.95097e-07 -1.03542e+07 -0)
(1.16441e-06 -1.03542e+07 -0)
(1.64978e-06 -1.03542e+07 -0)
(1.9974e-06 -1.03542e+07 -0)
(2.22834e-06 -1.03542e+07 -0)
(2.32639e-06 -1.03542e+07 -0)
(2.31585e-06 -1.03542e+07 -0)
(2.28668e-06 -1.03542e+07 -0)
(2.22105e-06 -1.03542e+07 -0)
(2.04116e-06 -1.03542e+07 -0)
(1.82157e-06 -1.03542e+07 -0)
(1.61251e-06 -1.03542e+07 -0)
(1.3524e-06 -1.03542e+07 -0)
(1.07852e-06 -1.03542e+07 -0)
(7.89237e-07 -1.03542e+07 -0)
(5.17785e-07 -1.03542e+07 -0)
(1.83939e-07 -1.03542e+07 -0)
(-1.69354e-07 -1.03542e+07 -0)
(-4.68356e-07 -1.03542e+07 -0)
(-7.9734e-07 -1.03542e+07 -0)
(-1.10039e-06 -1.03542e+07 -0)
(-1.37995e-06 -1.03542e+07 -0)
(-1.65707e-06 -1.03542e+07 -0)
(-1.87991e-06 -1.03542e+07 -0)
(-2.06547e-06 -1.03542e+07 -0)
(-2.21943e-06 -1.03542e+07 -0)
(-2.32639e-06 -1.03542e+07 -0)
(-2.38635e-06 -1.03542e+07 -0)
(-2.35718e-06 -1.03542e+07 -0)
(-2.18053e-06 -1.03542e+07 -0)
(-1.96418e-06 -1.03542e+07 -0)
(-1.68057e-06 -1.03542e+07 -0)
(-1.21303e-06 -1.03542e+07 -0)
(-5.92333e-07 -1.03542e+07 -0)
(2.77935e-07 -1.03542e+07 -0)
(1.53148e-06 -1.03542e+07 -0)
(3.1999e-06 -1.03542e+07 -0)
(5.57976e-06 -1.03542e+07 -0)
(8.85583e-06 -1.03542e+07 -0)
(1.42184e-05 -1.03542e+07 -0)
(2.24617e-05 -1.03542e+07 -0)
(3.78955e-05 -1.03542e+07 -0)
(6.38626e-05 -1.03542e+07 -0)
(0.000120701 -1.03542e+07 -0)
(0.000188224 -1.03542e+07 -0)
(0.000161923 -1.03542e+07 -0)
(5.48504e-05 -1.03542e+07 -0)
(-6.07041e-05 -1.0282e+07 -0)
(-0.000177648 -1.0282e+07 -0)
(-0.000205315 -1.0282e+07 -0)
(-0.000131617 -1.0282e+07 -0)
(-6.99268e-05 -1.0282e+07 -0)
(-4.15804e-05 -1.0282e+07 -0)
(-2.46632e-05 -1.0282e+07 -0)
(-1.56223e-05 -1.0282e+07 -0)
(-9.67933e-06 -1.0282e+07 -0)
(-6.01337e-06 -1.0282e+07 -0)
(-3.39423e-06 -1.0282e+07 -0)
(-1.66315e-06 -1.0282e+07 -0)
(-4.15787e-07 -1.0282e+07 -0)
(5.36922e-07 -1.0282e+07 -0)
(1.27519e-06 -1.0282e+07 -0)
(1.81048e-06 -1.0282e+07 -0)
(2.19189e-06 -1.0282e+07 -0)
(2.44643e-06 -1.0282e+07 -0)
(2.55365e-06 -1.0282e+07 -0)
(2.54301e-06 -1.0282e+07 -0)
(2.51109e-06 -1.0282e+07 -0)
(2.43907e-06 -1.0282e+07 -0)
(2.24181e-06 -1.0282e+07 -0)
(2.002e-06 -1.0282e+07 -0)
(1.76955e-06 -1.0282e+07 -0)
(1.48554e-06 -1.0282e+07 -0)
(1.18434e-06 -1.0282e+07 -0)
(8.65132e-07 -1.0282e+07 -0)
(5.68843e-07 -1.0282e+07 -0)
(2.03801e-07 -1.0282e+07 -0)
(-1.85795e-07 -1.0282e+07 -0)
(-5.14005e-07 -1.0282e+07 -0)
(-8.75773e-07 -1.0282e+07 -0)
(-1.20808e-06 -1.0282e+07 -0)
(-1.51337e-06 -1.0282e+07 -0)
(-1.81866e-06 -1.0282e+07 -0)
(-2.06584e-06 -1.0282e+07 -0)
(-2.27128e-06 -1.0282e+07 -0)
(-2.43498e-06 -1.0282e+07 -0)
(-2.55038e-06 -1.0282e+07 -0)
(-2.62241e-06 -1.0282e+07 -0)
(-2.58721e-06 -1.0282e+07 -0)
(-2.39078e-06 -1.0282e+07 -0)
(-2.15669e-06 -1.0282e+07 -0)
(-1.8424e-06 -1.0282e+07 -0)
(-1.33248e-06 -1.0282e+07 -0)
(-6.40051e-07 -1.0282e+07 -0)
(3.11841e-07 -1.0282e+07 -0)
(1.68034e-06 -1.0282e+07 -0)
(3.51537e-06 -1.0282e+07 -0)
(6.13532e-06 -1.0282e+07 -0)
(9.73008e-06 -1.0282e+07 -0)
(1.56092e-05 -1.0282e+07 -0)
(2.46485e-05 -1.0282e+07 -0)
(4.15378e-05 -1.0282e+07 -0)
(6.99202e-05 -1.0282e+07 -0)
(0.000131682 -1.0282e+07 -0)
(0.000205274 -1.0282e+07 -0)
(0.000177574 -1.0282e+07 -0)
(6.0696e-05 -1.0282e+07 -0)
(-6.65378e-05 -1.01842e+07 -0)
(-0.000192733 -1.01842e+07 -0)
(-0.000221308 -1.01842e+07 -0)
(-0.000141917 -1.01842e+07 -0)
(-7.57128e-05 -1.01842e+07 -0)
(-4.50836e-05 -1.01842e+07 -0)
(-2.678e-05 -1.01842e+07 -0)
(-1.69713e-05 -1.01842e+07 -0)
(-1.05272e-05 -1.01842e+07 -0)
(-6.54362e-06 -1.01842e+07 -0)
(-3.69489e-06 -1.01842e+07 -0)
(-1.81509e-06 -1.01842e+07 -0)
(-4.5958e-07 -1.01842e+07 -0)
(5.82355e-07 -1.01842e+07 -0)
(1.3804e-06 -1.01842e+07 -0)
(1.95943e-06 -1.01842e+07 -0)
(2.38251e-06 -1.01842e+07 -0)
(2.65627e-06 -1.01842e+07 -0)
(2.77407e-06 -1.01842e+07 -0)
(2.7608e-06 -1.01842e+07 -0)
(2.72927e-06 -1.01842e+07 -0)
(2.65129e-06 -1.01842e+07 -0)
(2.43726e-06 -1.01842e+07 -0)
(2.17678e-06 -1.01842e+07 -0)
(1.92791e-06 -1.01842e+07 -0)
(1.61268e-06 -1.01842e+07 -0)
(1.28583e-06 -1.01842e+07 -0)
(9.42387e-07 -1.01842e+07 -0)
(6.20515e-07 -1.01842e+07 -0)
(2.20665e-07 -1.01842e+07 -0)
(-2.04073e-07 -1.01842e+07 -0)
(-5.60787e-07 -1.01842e+07 -0)
(-9.50683e-07 -1.01842e+07 -0)
(-1.31569e-06 -1.01842e+07 -0)
(-1.6442e-06 -1.01842e+07 -0)
(-1.97769e-06 -1.01842e+07 -0)
(-2.24149e-06 -1.01842e+07 -0)
(-2.46879e-06 -1.01842e+07 -0)
(-2.64632e-06 -1.01842e+07 -0)
(-2.77241e-06 -1.01842e+07 -0)
(-2.85039e-06 -1.01842e+07 -0)
(-2.80725e-06 -1.01842e+07 -0)
(-2.59654e-06 -1.01842e+07 -0)
(-2.34103e-06 -1.01842e+07 -0)
(-1.99925e-06 -1.01842e+07 -0)
(-1.44344e-06 -1.01842e+07 -0)
(-6.90199e-07 -1.01842e+07 -0)
(3.45099e-07 -1.01842e+07 -0)
(1.83002e-06 -1.01842e+07 -0)
(3.82762e-06 -1.01842e+07 -0)
(6.67635e-06 -1.01842e+07 -0)
(1.05803e-05 -1.01842e+07 -0)
(1.6953e-05 -1.01842e+07 -0)
(2.67601e-05 -1.01842e+07 -0)
(4.50454e-05 -1.01842e+07 -0)
(7.57078e-05 -1.01842e+07 -0)
(0.000141985 -1.01842e+07 -0)
(0.00022127 -1.01842e+07 -0)
(0.000192655 -1.01842e+07 -0)
(6.65295e-05 -1.01842e+07 -0)
(-7.21916e-05 -1.00429e+07 -0)
(-0.000206608 -1.00429e+07 -0)
(-0.000235408 -1.00429e+07 -0)
(-0.000151025 -1.00429e+07 -0)
(-8.09832e-05 -1.00429e+07 -0)
(-4.83009e-05 -1.00429e+07 -0)
(-2.87394e-05 -1.00429e+07 -0)
(-1.82309e-05 -1.00429e+07 -0)
(-1.13129e-05 -1.00429e+07 -0)
(-7.04444e-06 -1.00429e+07 -0)
(-3.98516e-06 -1.00429e+07 -0)
(-1.95463e-06 -1.00429e+07 -0)
(-4.9414e-07 -1.00429e+07 -0)
(6.15566e-07 -1.00429e+07 -0)
(1.47567e-06 -1.00429e+07 -0)
(2.10304e-06 -1.00429e+07 -0)
(2.55165e-06 -1.00429e+07 -0)
(2.85016e-06 -1.00429e+07 -0)
(2.98676e-06 -1.00429e+07 -0)
(2.96484e-06 -1.00429e+07 -0)
(2.92436e-06 -1.00429e+07 -0)
(2.8569e-06 -1.00429e+07 -0)
(2.62248e-06 -1.00429e+07 -0)
(2.33578e-06 -1.00429e+07 -0)
(2.071e-06 -1.00429e+07 -0)
(1.73202e-06 -1.00429e+07 -0)
(1.38123e-06 -1.00429e+07 -0)
(1.01526e-06 -1.00429e+07 -0)
(6.67847e-07 -1.00429e+07 -0)
(2.37794e-07 -1.00429e+07 -0)
(-2.24302e-07 -1.00429e+07 -0)
(-6.03761e-07 -1.00429e+07 -0)
(-1.01864e-06 -1.00429e+07 -0)
(-1.41327e-06 -1.00429e+07 -0)
(-1.76743e-06 -1.00429e+07 -0)
(-2.12328e-06 -1.00429e+07 -0)
(-2.40998e-06 -1.00429e+07 -0)
(-2.65452e-06 -1.00429e+07 -0)
(-2.8451e-06 -1.00429e+07 -0)
(-2.97664e-06 -1.00429e+07 -0)
(-3.06097e-06 -1.00429e+07 -0)
(-3.00869e-06 -1.00429e+07 -0)
(-2.78438e-06 -1.00429e+07 -0)
(-2.51286e-06 -1.00429e+07 -0)
(-2.14521e-06 -1.00429e+07 -0)
(-1.54482e-06 -1.00429e+07 -0)
(-7.36993e-07 -1.00429e+07 -0)
(3.79459e-07 -1.00429e+07 -0)
(1.96813e-06 -1.00429e+07 -0)
(4.12008e-06 -1.00429e+07 -0)
(7.18779e-06 -1.00429e+07 -0)
(1.13736e-05 -1.00429e+07 -0)
(1.82106e-05 -1.00429e+07 -0)
(2.87141e-05 -1.00429e+07 -0)
(4.8257e-05 -1.00429e+07 -0)
(8.09748e-05 -1.00429e+07 -0)
(0.000151107 -1.00429e+07 -0)
(0.000235366 -1.00429e+07 -0)
(0.000206525 -1.00429e+07 -0)
(7.21865e-05 -1.00429e+07 -0)
(-7.73479e-05 -9.82884e+06 -0)
(-0.000218189 -9.82884e+06 -0)
(-0.000246283 -9.82884e+06 -0)
(-0.000158111 -9.82884e+06 -0)