/*--------------------------------*- C++ -*----------------------------------*\
| =========                 |                                                 |
| \\      /  F ield         | foam-extend: Open Source CFD                    |
|  \\    /   O peration     | Version:     4.0                                |
|   \\  /    A nd           | Web:         http://www.foam-extend.org         |
|    \\/     M anipulation  |                                                 |
\*---------------------------------------------------------------------------*/
FoamFile
{
    version     2.0;
    format      ascii;
    class       surfaceScalarField;
    location    "25";
    object      phi;
}
// * * * * * * * * * * * * * * * * * * * * * * * * * * * * * * * * * * * * * //

dimensions      [0 3 -1 0 0 0 0];

internalField   nonuniform List<scalar> 
13744
(
-3.97391e-09
3.97371e-09
1.70675e-09
-5.68066e-09
1.0728e-11
1.69602e-09
5.08063e-12
5.64748e-12
9.72905e-12
-4.64723e-12
7.47887e-12
2.25148e-12
6.88634e-12
5.9186e-13
5.18045e-12
1.70614e-12
4.10954e-12
1.07003e-12
3.18709e-12
9.23484e-13
2.48536e-12
7.01827e-13
1.97861e-12
5.07372e-13
1.56136e-12
4.17222e-13
1.26511e-12
2.96763e-13
1.01382e-12
2.51243e-13
8.31077e-13
1.82798e-13
6.73961e-13
1.56986e-13
5.55816e-13
1.19849e-13
4.54238e-13
1.01974e-13
3.74615e-13
8.04357e-14
3.0636e-13
6.80012e-14
2.51294e-13
5.50671e-14
2.03235e-13
4.76841e-14
1.63552e-13
4.05787e-14
1.2864e-13
3.50275e-14
9.81063e-14
2.91989e-14
7.08872e-14
2.61458e-14
4.62296e-14
2.45359e-14
2.25328e-14
2.31482e-14
-4.54488e-16
2.29816e-14
-2.13332e-14
2.03171e-14
-4.73382e-14
2.7256e-14
-7.08786e-14
2.38698e-14
-9.69049e-14
2.55906e-14
-1.29739e-13
3.30846e-14
-1.63494e-13
3.26406e-14
-2.02044e-13
3.90799e-14
-2.52367e-13
5.11258e-14
-3.06259e-13
5.53446e-14
-3.73411e-13
6.77791e-14
-4.5537e-13
8.24896e-14
-5.5579e-13
1.01086e-13
-6.72768e-13
1.17351e-13
-8.32183e-13
1.58928e-13
-1.0138e-12
1.83242e-13
-1.26394e-12
2.50244e-13
-1.56248e-12
2.9915e-13
-1.97858e-12
4.1589e-13
-2.48422e-12
5.06373e-13
-3.18827e-12
7.0477e-13
-4.10962e-12
9.20208e-13
-5.17939e-12
1.06926e-12
-6.8876e-12
1.70908e-12
-7.47899e-12
5.91693e-13
-9.72803e-12
2.24815e-12
-5.08191e-12
-4.64673e-12
-1.07281e-11
5.64682e-12
-1.70675e-09
1.69602e-09
3.97391e-09
-5.68066e-09
3.97391e-09
1.60121e-08
-1.20384e-08
2.45703e-09
7.8744e-09
3.6634e-11
4.11642e-09
1.00558e-11
3.22251e-11
3.2149e-11
-2.67438e-11
2.13592e-11
1.30374e-11
2.22297e-11
-2.77223e-13
1.53777e-11
8.55632e-12
1.31662e-11
3.28515e-12
9.60489e-12
4.48147e-12
7.91748e-12
2.38909e-12
6.02074e-12
2.40347e-12
4.94744e-12
1.48836e-12
3.8772e-12
1.36668e-12
3.19917e-12
9.28313e-13
2.55896e-12
8.2323e-13
2.12025e-12
5.95246e-13
1.71825e-12
5.17753e-13
1.42425e-12
3.94629e-13
1.16181e-12
3.42171e-13
9.59302e-13
2.72338e-13
7.79564e-13
2.34923e-13
6.36316e-13
1.9329e-13
5.08411e-13
1.67366e-13
4.01283e-13
1.43274e-13
3.05901e-13
1.2701e-13
2.21419e-13
1.13187e-13
1.43138e-13
1.02085e-13
7.13292e-14
9.53682e-14
2.42295e-16
9.47575e-14
-7.33997e-14
9.40914e-14
-1.40333e-13
9.13158e-14
-2.21389e-13
1.04861e-13
-3.08491e-13
1.12577e-13
-3.98385e-13
1.22791e-13
-5.08242e-13
1.43607e-13
-6.38922e-13
1.70253e-13
-7.76591e-13
1.86962e-13
-9.59009e-13
2.36255e-13
-1.16439e-12
2.71949e-13
-1.42145e-12
3.39062e-13
-1.71817e-12
3.96461e-13
-2.12286e-12
5.2186e-13
-2.55609e-12
5.92582e-13
-3.19909e-12
8.22786e-13
-3.87986e-12
9.31422e-13
-4.94459e-12
1.36213e-12
-6.02066e-12
1.49281e-12
-7.92023e-12
2.40435e-12
-9.60224e-12
2.38581e-12
-1.31665e-11
4.48624e-12
-1.53807e-11
3.2841e-12
-2.22273e-11
8.55371e-12
-2.13596e-11
-2.78111e-13
-3.21521e-11
1.30415e-11
-1.00534e-11
-2.67433e-11
-3.66342e-11
3.22247e-11
-2.45703e-09
4.11642e-09
-1.60121e-08
7.8744e-09
-1.20382e-08
1.22702e-08
-2.43086e-08
4.03665e-09
1.61079e-08
5.75424e-11
8.09553e-09
1.22773e-11
7.74913e-11
5.64321e-11
-7.0894e-11
3.56131e-11
3.38605e-11
3.89551e-11
-3.62183e-12
2.61485e-11
2.13651e-11
2.30682e-11
6.35889e-12
1.64565e-11
1.10936e-11
1.38594e-11
4.98529e-12
1.03623e-11
5.90261e-12
8.6503e-12
3.20671e-12
6.69384e-12
3.32501e-12
5.58648e-12
2.03654e-12
4.42853e-12
1.97867e-12
3.69823e-12
1.32774e-12
2.97811e-12
1.24009e-12
2.48281e-12
8.894e-13
2.01555e-12
8.11795e-13
1.67103e-12
6.12371e-13
1.35399e-12
5.487e-13
1.1076e-12
4.38316e-13
8.83222e-13
3.9091e-13
6.98862e-13
3.24657e-13
5.31236e-13
2.96568e-13
3.85361e-13
2.60153e-13
2.49126e-13
2.39836e-13
1.23567e-13
2.20324e-13
-1.70025e-16
2.15855e-13
-1.2451e-13
2.1802e-13
-2.47345e-13
2.17631e-13
-3.85309e-13
2.41834e-13
-5.32639e-13
2.59792e-13
-6.96931e-13
2.87159e-13
-8.82938e-13
3.30042e-13
-1.10903e-12
3.93213e-13
-1.35193e-12
4.28935e-13
-1.67055e-12
5.54168e-13
-2.01694e-12
6.19005e-13
-2.48105e-12
7.99916e-13
-2.97799e-12
8.93258e-13
-3.69968e-12
1.24104e-12
-4.42664e-12
1.32194e-12
-5.58634e-12
1.98128e-12
-6.69536e-12
2.03576e-12
-8.64845e-12
3.31823e-12
-1.03622e-11
3.20369e-12
-1.38611e-11
5.90505e-12
-1.6455e-11
4.97799e-12
-2.30687e-11
1.1102e-11
-2.61507e-11
6.3666e-12
-3.89539e-11
2.13574e-11
-3.56137e-11
-3.61389e-12
-5.64344e-11
3.38618e-11
-1.22763e-11
-7.09029e-11
-5.75427e-11
7.74966e-11
-4.03665e-09
8.09553e-09
-1.22702e-08
1.61079e-08
-2.43084e-08
3.07117e-09
-2.73797e-08
3.34567e-09
1.58334e-08
6.77544e-11
1.13734e-08
1.29195e-11
1.32326e-10
8.15764e-11
-1.39555e-10
5.08578e-11
6.45744e-11
5.67288e-11
-9.4876e-12
3.77723e-11
4.03207e-11
3.36951e-11
1.04466e-11
2.38768e-11
2.09185e-11
2.02675e-11
8.59583e-12
1.50724e-11
1.10926e-11
1.26549e-11
5.61817e-12
9.75227e-12
6.22169e-12
8.17273e-12
3.61448e-12
6.45964e-12
3.69915e-12
5.40953e-12
2.3724e-12
4.34711e-12
2.30601e-12
3.63174e-12
1.60748e-12
2.94327e-12
1.49544e-12
2.44382e-12
1.11786e-12
1.97832e-12
1.02027e-12
1.61939e-12
7.98889e-13
1.29055e-12
7.24226e-13
1.02217e-12
5.96252e-13
7.76062e-13
5.37327e-13
5.63464e-13
4.68209e-13
3.64334e-13
4.39086e-13
1.80088e-13
4.08527e-13
-4.03661e-16
3.99021e-13
-1.79585e-13
4.02081e-13
-3.64292e-13
3.97266e-13
-5.63382e-13
4.44852e-13
-7.75626e-13
4.74926e-13
-1.02184e-12
5.35356e-13
-1.29015e-12
5.98438e-13
-1.61899e-12
7.24185e-13
-1.97782e-12
7.93664e-13
-2.44313e-12
1.01966e-12
-2.94283e-12
1.1203e-12
-3.63164e-12
1.49355e-12
-4.34694e-12
1.6094e-12
-5.40916e-12
2.30815e-12
-6.45938e-12
2.37178e-12
-8.17252e-12
3.70447e-12
-9.75199e-12
3.62513e-12
-1.26547e-11
6.2198e-12
-1.50722e-11
5.62517e-12
-2.02674e-11
1.10972e-11
-2.3877e-11
8.5908e-12
-3.36957e-11
2.09169e-11
-3.7773e-11
1.0444e-11
-5.67296e-11
4.03174e-11
-5.08587e-11
-9.48668e-12
-8.15773e-11
6.45798e-11
-1.29205e-11
-1.39561e-10
-6.77549e-11
1.32326e-10
-3.34567e-09
1.13734e-08
-3.07117e-09
1.58334e-08
-2.73795e-08
5.86583e-10
-2.79663e-08
1.8465e-09
1.45735e-08
6.95038e-11
1.31504e-08
1.16824e-11
1.90147e-10
1.07538e-10
-2.3541e-10
6.71238e-11
1.04996e-10
7.55852e-11
-1.79491e-11
5.02925e-11
6.56108e-11
4.50823e-11
1.56463e-11
3.18984e-11
3.40972e-11
2.71683e-11
1.3324e-11
2.01738e-11
1.80903e-11
1.69792e-11
8.8136e-12
1.30682e-11
1.01397e-11
1.09705e-11
5.71231e-12
8.66258e-12
6.00391e-12
7.26303e-12
3.77682e-12
5.83247e-12
3.73048e-12
4.8767e-12
2.56203e-12
3.95015e-12
2.42287e-12
3.28168e-12
1.78327e-12
2.65563e-12
1.63815e-12
2.17463e-12
1.27572e-12
1.73256e-12
1.16217e-12
1.37266e-12
9.54591e-13
1.04193e-12
8.68326e-13
7.56674e-13
7.57706e-13
4.89163e-13
7.04679e-13
2.41659e-13
6.47211e-13
-2.21656e-16
6.40203e-13
-2.41126e-13
6.3561e-13
-4.89338e-13
6.53172e-13
-7.56555e-13
7.06303e-13
-1.04118e-12
7.59864e-13
-1.37243e-12
8.60721e-13
-1.73204e-12
9.59198e-13
-2.1739e-12
1.16596e-12
-2.65517e-12
1.27193e-12
-3.2808e-12
1.64422e-12
-3.9494e-12
1.78958e-12
-4.87676e-12
2.41811e-12
-5.83223e-12
2.56333e-12
-7.26236e-12
3.73353e-12
-8.66244e-12
3.7645e-12
-1.09702e-11
6.00345e-12
-1.30677e-11
5.7154e-12
-1.69791e-11
1.01272e-11
-2.01735e-11
8.81763e-12
-2.71681e-11
1.80956e-11
-3.1899e-11
1.33181e-11
-4.50831e-11
3.41019e-11
-5.02932e-11
1.5655e-11
-7.55865e-11
6.56062e-11
-6.7125e-11
-1.79501e-11
-1.07539e-10
1.04988e-10
-1.16838e-11
-2.35415e-10
-6.95044e-11
1.90146e-10
-1.8465e-09
1.31504e-08
-5.86584e-10
1.45735e-08
-2.79661e-08
8.68821e-10
-2.88351e-08
1.02485e-09
1.44175e-08
6.43611e-11
1.41109e-08
8.43584e-12
2.4607e-10
1.34264e-10
-3.61238e-10
8.44397e-11
1.54813e-10
9.55577e-11
-2.90711e-11
6.37529e-11
9.74225e-11
5.72663e-11
2.21403e-11
4.05557e-11
5.0805e-11
3.45891e-11
1.92915e-11
2.56903e-11
2.6991e-11
2.16426e-11
1.28659e-11
1.66578e-11
1.51189e-11
1.39929e-11
8.38246e-12
1.10486e-11
8.94036e-12
9.26765e-12
5.55811e-12
7.44179e-12
5.56317e-12
6.22406e-12
3.78069e-12
5.04127e-12
3.61226e-12
4.1889e-12
2.64087e-12
3.38958e-12
2.44222e-12
2.77602e-12
1.89247e-12
2.21156e-12
1.72164e-12
1.75229e-12
1.41499e-12
1.3301e-12
1.29545e-12
9.65982e-13
1.12141e-12
6.24394e-13
1.04376e-12
3.08496e-13
9.75511e-13
-5.64191e-17
9.47097e-13
-3.08196e-13
9.47464e-13
-6.24365e-13
9.65575e-13
-9.65816e-13
1.05088e-12
-1.32945e-12
1.11847e-12
-1.7517e-12
1.29105e-12
-2.21092e-12
1.41909e-12
-2.7754e-12
1.73243e-12
-3.38872e-12
1.88153e-12
-4.18781e-12
2.44622e-12
-5.04063e-12
2.63684e-12
-6.22386e-12
3.60566e-12
-7.4415e-12
3.78046e-12
-9.26711e-12
5.5654e-12
-1.10482e-11
5.55551e-12
-1.39925e-11
8.95023e-12
-1.66574e-11
8.38254e-12
-2.16422e-11
1.51195e-11
-2.569e-11
1.28706e-11
-3.45891e-11
2.69948e-11
-4.05561e-11
1.92885e-11
-5.72673e-11
5.08157e-11
-6.3754e-11
2.21396e-11
-9.5559e-11
9.74141e-11
-8.44412e-11
-2.90664e-11
-1.34265e-10
1.54818e-10
-8.43736e-12
-3.61241e-10
-6.43618e-11
2.46073e-10
-1.02485e-09
1.41109e-08
-8.68822e-10
1.44175e-08
-2.88349e-08
3.9296e-10
-2.92281e-08
6.47904e-10
1.41625e-08
5.12766e-11
1.47076e-08
3.11579e-12
2.94234e-10
1.61696e-10
-5.19815e-10
1.02832e-10
2.1368e-10
1.16679e-10
-4.29183e-11
7.81978e-11
1.35895e-10
7.02841e-11
3.00491e-11
4.98838e-11
7.12125e-11
4.25582e-11
2.66155e-11
3.16466e-11
3.7899e-11
2.6665e-11
1.78413e-11
2.0538e-11
2.125e-11
1.72539e-11
1.16605e-11
1.36295e-11
1.25682e-11
1.14329e-11
7.75539e-12
9.18311e-12
7.8096e-12
7.68052e-12
5.28526e-12
6.22206e-12
5.06653e-12
5.16998e-12
3.68347e-12
4.18395e-12
3.42757e-12
3.42653e-12
2.64687e-12
2.73e-12
2.42745e-12
2.16303e-12
1.98006e-12
1.64197e-12
1.8124e-12
1.19245e-12
1.56799e-12
7.70814e-13
1.47112e-12
3.8078e-13
1.35552e-12
4.96435e-18
1.32213e-12
-3.80478e-13
1.32612e-12
-7.7078e-13
1.35353e-12
-1.19225e-12
1.47261e-12
-1.64116e-12
1.56613e-12
-2.16234e-12
1.81146e-12
-2.72922e-12
1.9827e-12
-3.42577e-12
2.42618e-12
-4.18292e-12
2.641e-12
-5.16869e-12
3.42672e-12
-6.22127e-12
3.69505e-12
-7.68028e-12
5.05999e-12
-9.18275e-12
5.28269e-12
-1.14323e-11
7.81324e-12
-1.3629e-11
7.74637e-12
-1.72534e-11
1.25731e-11
-2.05375e-11
1.16654e-11
-2.66646e-11
2.12395e-11
-3.16463e-11
1.78435e-11
-4.25582e-11
3.7906e-11
-4.98843e-11
2.66119e-11
-7.02853e-11
7.1211e-11
-7.81991e-11
3.00526e-11
-1.1668e-10
1.35895e-10
-1.02834e-10
-4.29177e-11
-1.61698e-10
2.13682e-10
-3.11764e-12
-5.19825e-10
-5.12775e-11
2.94236e-10
-6.47904e-10
1.47076e-08
-3.92961e-10
1.41625e-08
-2.92279e-08
-7.87024e-10
-2.84411e-08
2.57302e-10
1.31182e-08
2.87329e-11
1.49361e-08
-4.4356e-12
3.274e-10
1.89767e-10
-7.14022e-10
1.22326e-10
2.8112e-10
1.38979e-10
-5.95677e-11
9.36719e-11
1.81209e-10
8.41733e-11
3.95502e-11
5.99189e-11
9.54638e-11
5.1105e-11
3.54345e-11
3.80687e-11
5.09388e-11
3.20675e-11
2.38427e-11
2.47267e-11
2.85876e-11
2.07679e-11
1.56133e-11
1.64175e-11
1.69224e-11
1.37689e-11
1.03993e-11
1.10649e-11
1.05165e-11
9.253e-12
7.0932e-12
7.49834e-12
6.81745e-12
6.2297e-12
4.96033e-12
5.04267e-12
4.61624e-12
4.12936e-12
3.56085e-12
3.29043e-12
3.25962e-12
2.60691e-12
2.6645e-12
1.97911e-12
2.43827e-12
1.43722e-12
2.11281e-12
9.29101e-13
1.97974e-12
4.58889e-13
1.83231e-12
4.34962e-17
1.79032e-12
-4.58456e-13
1.78069e-12
-9.29209e-13
1.82192e-12
-1.43697e-12
1.98072e-12
-1.978e-12
2.1112e-12
-2.60625e-12
2.43288e-12
-3.28952e-12
2.66604e-12
-4.1283e-12
3.2694e-12
-5.04163e-12
3.55685e-12
-6.22819e-12
4.61783e-12
-7.49727e-12
4.95958e-12
-9.25286e-12
6.81063e-12
-1.10645e-11
7.10052e-12
-1.3768e-11
1.05147e-11
-1.6417e-11
1.03954e-11
-2.07674e-11
1.69263e-11
-2.47259e-11
1.56235e-11
-3.20672e-11
2.85857e-11
-3.80682e-11
2.38501e-11
-5.11048e-11
5.09421e-11
-5.99197e-11
3.54281e-11
-8.41748e-11
9.54706e-11
-9.36733e-11
3.95508e-11
-1.38981e-10
1.81204e-10
-1.22328e-10
-5.95666e-11
-1.89769e-10
2.8112e-10
4.43329e-12
-7.14024e-10
-2.87339e-11
3.27399e-10
-2.57302e-10
1.49361e-08
7.87023e-10
1.31182e-08
-2.84409e-08
-1.99553e-09
-2.64455e-08
-2.28942e-10
1.13516e-08
-4.08646e-12
1.47113e-08
-1.44561e-11
3.37771e-10
2.18402e-10
-9.46871e-10
1.42943e-10
3.56577e-10
1.62488e-10
-7.91143e-11
1.1022e-10
2.33477e-10
9.89722e-11
5.08026e-11
7.06982e-11
1.23739e-10
6.02597e-11
4.58678e-11
4.49831e-11
6.62128e-11
3.78717e-11
3.09576e-11
2.92424e-11
3.72234e-11
2.45503e-11
2.03147e-11
1.94255e-11
2.20429e-11
1.62863e-11
1.35402e-11
1.3096e-11
1.37031e-11
1.09488e-11
9.2408e-12
8.87626e-12
8.8973e-12
7.37307e-12
6.45831e-12
5.96989e-12
6.0159e-12
4.8879e-12
4.6461e-12
3.8956e-12
4.25452e-12
3.08605e-12
3.47499e-12
2.34318e-12
3.18543e-12
1.70146e-12
2.74868e-12
1.10003e-12
2.574e-12
5.4322e-13
2.38268e-12
8.18362e-17
2.32952e-12
-5.42668e-13
2.33224e-12
-1.10026e-12
2.38209e-12
-1.70114e-12
2.58236e-12
-2.34178e-12
2.75565e-12
-3.08541e-12
3.18131e-12
-3.89455e-12
3.47667e-12
-4.88655e-12
4.25596e-12
-5.9688e-12
4.63611e-12
-7.37137e-12
6.01736e-12
-8.87493e-12
6.46227e-12
-1.09488e-11
8.89465e-12
-1.30955e-11
9.24083e-12
-1.62851e-11
1.3698e-11
-1.94251e-11
1.35382e-11
-2.45496e-11
2.20485e-11
-2.92415e-11
2.03172e-11
-3.78714e-11
3.72135e-11
-4.49827e-11
3.09604e-11
-6.02593e-11
6.62235e-11
-7.06992e-11
4.58707e-11
-9.89739e-11
1.23743e-10
-1.10222e-10
5.08012e-11
-1.62491e-10
2.33467e-10
-1.42945e-10
-7.91107e-11
-2.18404e-10
3.56581e-10
1.44533e-11
-9.46881e-10
4.0853e-12
3.37767e-10
2.28942e-10
1.47113e-08
1.99553e-09
1.13516e-08
-2.64453e-08
-3.10152e-09
-2.3344e-08
-7.50432e-10
9.00055e-09
-4.76518e-11
1.40085e-08
-2.71884e-11
3.17311e-10
2.47518e-10
-1.22159e-09
1.64703e-10
4.39394e-10
1.87233e-10
-1.01646e-10
1.27888e-10
2.92819e-10
1.14719e-10
6.39656e-11
8.22598e-11
1.56196e-10
7.00536e-11
5.80764e-11
5.24179e-11
8.38519e-11
4.41003e-11
3.92747e-11
3.41049e-11
4.72105e-11
2.86169e-11
2.58039e-11
2.26671e-11
2.79923e-11
1.89961e-11
1.72095e-11
1.52859e-11
1.74151e-11
1.27757e-11
1.17552e-11
1.03623e-11
1.13053e-11
8.60542e-12
8.21497e-12
6.96998e-12
7.65101e-12
5.7057e-12
5.90777e-12
4.54838e-12
5.41418e-12
3.60272e-12
4.41824e-12
2.73591e-12
4.05233e-12
1.98643e-12
3.50527e-12
1.28443e-12
3.28361e-12
6.34181e-13
3.03664e-12
1.40122e-16
2.9686e-12
-6.33541e-13
2.96282e-12
-1.28473e-12
3.03474e-12
-1.98604e-12
3.27969e-12
-2.73426e-12
3.4954e-12
-3.60206e-12
4.04914e-12
-4.54719e-12
4.42349e-12
-5.70409e-12
5.41547e-12
-6.96882e-12
5.90937e-12
-8.60351e-12
7.65589e-12
-1.03607e-11
8.22969e-12
-1.27757e-11
1.1302e-11
-1.52854e-11
1.17519e-11
-1.89947e-11
1.74167e-11
-2.26666e-11
1.72112e-11
-2.86161e-11
2.80019e-11
-3.41037e-11
2.58019e-11
-4.41e-11
4.72107e-11
-5.24174e-11
3.92776e-11
-7.00531e-11
8.3855e-11
-8.22611e-11
5.80733e-11
-1.14721e-10
1.56206e-10
-1.27889e-10
6.397e-11
-1.87236e-10
2.92819e-10
-1.64706e-10
-1.01639e-10
-2.47521e-10
4.39389e-10
2.71852e-11
-1.22158e-09
4.76505e-11
3.17305e-10
7.50433e-10
1.40085e-08
3.10151e-09
9.00055e-09
-2.33438e-08
-4.20201e-09
-1.9142e-08
-1.28298e-09
6.08151e-09
-1.02486e-10
1.2828e-08
-4.28552e-11
2.57673e-10
2.77027e-10
-1.54146e-09
1.87623e-10
5.28798e-10
2.13238e-10
-1.2726e-10
1.46719e-10
3.59333e-10
1.31453e-10
7.92365e-11
9.46427e-11
1.93008e-10
8.05188e-11
7.21991e-11
6.04018e-11
1.03967e-10
5.07768e-11
4.89021e-11
3.93343e-11
5.86582e-11
3.29844e-11
3.21451e-11
2.61563e-11
3.4821e-11
2.191e-11
2.14628e-11
1.76444e-11
2.16832e-11
1.47418e-11
1.46535e-11
1.19632e-11
1.40847e-11
9.93233e-12
1.02507e-11
8.04758e-12
9.53468e-12
6.58654e-12
7.37294e-12
5.2518e-12
6.74585e-12
4.15932e-12
5.52019e-12
3.15915e-12
5.05161e-12
2.29345e-12
4.37008e-12
1.48314e-12
4.09019e-12
7.32199e-13
3.78493e-12
1.91318e-16
3.69698e-12
-7.31454e-13
3.69149e-12
-1.48353e-12
3.78952e-12
-2.293e-12
4.09556e-12
-3.15723e-12
4.36203e-12
-4.15864e-12
5.0458e-12
-5.25049e-12
5.51507e-12
-6.58465e-12
6.75081e-12
-8.04634e-12
7.3614e-12
-9.93021e-12
9.5354e-12
-1.19614e-11
1.02484e-11
-1.47419e-11
1.40875e-11
-1.76438e-11
1.46515e-11
-2.19084e-11
2.16792e-11
-2.61559e-11
2.14589e-11
-3.29836e-11
3.48295e-11
-3.93329e-11
3.2155e-11
-5.07766e-11
5.86535e-11
-6.04012e-11
4.88997e-11
-8.05182e-11
1.03975e-10
-9.46441e-11
7.22049e-11
-1.31455e-10
1.9302e-10
-1.46721e-10
7.92343e-11
-2.13241e-10
3.59341e-10
-1.87626e-10
-1.27251e-10
-2.7703e-10
5.28798e-10
4.28515e-11
-1.54148e-09
1.02484e-10
2.57671e-10
1.28298e-09
1.2828e-08
4.20201e-09
6.08152e-09
-1.91418e-08
-5.34697e-09
-1.37951e-08
-1.83546e-09
2.57001e-09
-1.69163e-10
1.11617e-08
-6.16665e-11
1.50181e-10
3.06834e-10
-1.90997e-09
2.11717e-10
6.23918e-10
2.40526e-10
-1.56071e-10
1.66759e-10
4.33111e-10
1.49212e-10
9.67772e-11
1.07886e-10
2.34329e-10
9.16883e-11
8.83917e-11
6.89645e-11
1.26691e-10
5.79258e-11
5.99329e-11
4.49519e-11
7.16334e-11
3.76703e-11
3.94341e-11
2.99082e-11
4.25905e-11
2.50404e-11
2.63269e-11
2.01819e-11
2.65402e-11
1.68557e-11
1.79791e-11
1.36861e-11
1.72583e-11
1.13597e-11
1.25709e-11
9.20758e-12
1.16959e-11
7.53436e-12
9.03763e-12
6.0091e-12
8.27007e-12
4.75836e-12
6.7591e-12
3.61483e-12
6.1978e-12
2.62394e-12
5.36304e-12
1.69709e-12
5.01429e-12
8.37709e-13
4.64865e-12
2.41548e-16
4.53474e-12
-8.3685e-13
4.52712e-12
-1.69756e-12
4.64402e-12
-2.62342e-12
5.01496e-12
-3.61264e-12
5.35584e-12
-4.75766e-12
6.19736e-12
-6.00764e-12
6.76462e-12
-7.53221e-12
8.27209e-12
-9.20625e-12
9.03767e-12
-1.13574e-11
1.16886e-11
-1.36841e-11
1.25811e-11
-1.68558e-11
1.72548e-11
-2.01811e-11
1.79787e-11
-2.50385e-11
2.65334e-11
-2.99078e-11
2.63273e-11
-3.76694e-11
4.25836e-11
-4.49503e-11
3.94352e-11
-5.79256e-11
7.16336e-11
-6.89638e-11
5.99394e-11
-9.16876e-11
1.26693e-10
-1.07888e-10
8.83943e-11
-1.49215e-10
2.3434e-10
-1.66761e-10
9.67741e-11
-2.40529e-10
4.33104e-10
-2.1172e-10
-1.56069e-10
-3.06837e-10
6.23915e-10
6.16624e-11
-1.90996e-09
1.69161e-10
1.50167e-10
1.83546e-09
1.11617e-08
5.34697e-09
2.57e-09
-1.37949e-08
-6.53608e-09
-7.25896e-09
-2.4173e-09
-1.54878e-09
-2.48205e-10
8.9926e-09
-8.38218e-11
-1.41996e-11
3.36837e-10
-2.33062e-09
2.36996e-10
7.23757e-10
2.69115e-10
-1.88184e-10
1.8805e-10
5.14176e-10
1.68036e-10
1.1679e-10
1.22031e-10
2.80335e-10
1.03596e-10
1.06835e-10
7.81367e-11
1.52154e-10
6.55725e-11
7.25073e-11
5.09797e-11
8.62215e-11
4.26928e-11
4.77228e-11
3.39382e-11
5.13339e-11
2.84e-11
3.18654e-11
2.29091e-11
3.20294e-11
1.91262e-11
2.17676e-11
1.55387e-11
2.08422e-11
1.28937e-11
1.52156e-11
1.04551e-11
1.41285e-11
8.55337e-12
1.09466e-11
6.82363e-12
9.9986e-12
5.40255e-12
8.1839e-12
4.105e-12
7.49506e-12
2.97935e-12
6.48368e-12
1.92726e-12
6.06815e-12
9.51185e-13
5.61763e-12
2.88748e-16
5.485e-12
-9.50222e-13
5.48297e-12
-1.92778e-12
5.63193e-12
-2.97875e-12
6.06359e-12
-4.10254e-12
6.47819e-12
-5.40183e-12
7.4931e-12
-6.82203e-12
8.18786e-12
-8.55093e-12
1.0007e-11
-1.04537e-11
1.09443e-11
-1.28912e-11
1.41242e-11
-1.55364e-11
1.52215e-11
-1.91264e-11
2.08446e-11
-2.29083e-11
2.17621e-11
-2.83979e-11
3.20358e-11
-3.39378e-11
3.18697e-11
-4.26918e-11
5.1346e-11
-5.09778e-11
4.77183e-11
-6.55723e-11
8.62242e-11
-7.8136e-11
7.25081e-11
-1.03595e-10
1.52156e-10
-1.22033e-10
1.06846e-10
-1.68038e-10
2.80347e-10
-1.88052e-10
1.16794e-10
-2.69119e-10
5.14174e-10
-2.37e-10
-1.88189e-10
-3.3684e-10
7.23753e-10
8.38172e-11
-2.33062e-09
2.48203e-10
-1.42105e-11
2.4173e-09
8.9926e-09
6.53608e-09
-1.54877e-09
-7.25877e-09
-7.76544e-09
5.06467e-10
-3.03204e-09
-6.28218e-09
-3.40032e-10
6.3006e-09
-1.09502e-10
-2.44733e-10
3.66932e-10
-2.80706e-09
2.63471e-10
8.27218e-10
2.99022e-10
-2.23736e-10
2.10634e-10
6.02551e-10
1.87961e-10
1.39472e-10
1.37118e-10
3.31184e-10
1.16275e-10
1.27675e-10
8.79499e-11
1.80474e-10
7.3743e-11
8.67073e-11
5.74406e-11
1.02526e-10
4.80707e-11
5.70879e-11
3.82625e-11
6.11483e-11
3.20023e-11
3.81305e-11
2.58375e-11
3.81984e-11
2.1563e-11
2.60425e-11
1.75287e-11
2.48758e-11
1.45409e-11
1.82086e-11
1.17955e-11
1.68758e-11
9.64793e-12
1.30913e-11
7.69897e-12
1.19553e-11
6.09466e-12
9.79251e-12
4.63182e-12
8.94957e-12
3.36128e-12
7.7597e-12
2.17463e-12
7.26121e-12
1.07314e-12
6.72383e-12
3.51537e-16
6.55924e-12
-1.07205e-12
6.5518e-12
-2.17525e-12
6.7272e-12
-3.36057e-12
7.26206e-12
-4.62909e-12
7.74165e-12
-6.09391e-12
8.96185e-12
-7.69723e-12
9.78861e-12
-9.64521e-12
1.19483e-11
-1.17941e-11
1.3084e-11
-1.45382e-11
1.68719e-11
-1.75262e-11
1.82117e-11
-2.15632e-11
2.48849e-11
-2.58366e-11
2.60314e-11
-3.19999e-11
3.81847e-11
-3.82621e-11
3.81282e-11
-4.80696e-11
6.11461e-11
-5.74385e-11
5.70861e-11
-7.37429e-11
1.02527e-10
-8.79492e-11
8.67126e-11
-1.16275e-10
1.80486e-10
-1.3712e-10
1.27683e-10
-1.87964e-10
3.31194e-10
-2.10636e-10
1.39465e-10
-2.99026e-10
6.02564e-10
-2.63476e-10
-2.23729e-10
-3.66936e-10
8.27214e-10
1.09496e-10
-2.80706e-09
3.4003e-10
-2.44747e-10
3.03204e-09
6.30059e-09
7.76543e-09
-6.28216e-09
5.06662e-10
-9.03863e-09
9.5451e-09
-3.68156e-09
-1.16392e-08
-4.44958e-10
3.06399e-09
-1.38856e-10
-5.50838e-10
3.97013e-10
-3.34292e-09
2.91148e-10
9.33084e-10
3.30257e-10
-2.62849e-10
2.34553e-10
6.98269e-10
2.09025e-10
1.64993e-10
1.53188e-10
3.87019e-10
1.29762e-10
1.511e-10
9.84366e-11
2.11803e-10
8.24643e-11
1.02682e-10
6.43582e-11
1.20635e-10
5.38238e-11
6.76223e-11
4.28981e-11
7.20749e-11
3.58612e-11
4.51574e-11
2.89791e-11
4.50725e-11
2.41757e-11
3.08335e-11
1.96646e-11
2.93884e-11
1.63081e-11
2.15607e-11
1.32346e-11
1.9947e-11
1.08227e-11
1.55062e-11
8.63887e-12
1.41338e-11
6.83763e-12
1.15891e-11
5.19759e-12
1.05998e-11
3.77135e-12
9.17925e-12
2.4403e-12
8.58721e-12
1.20409e-12
7.95694e-12
4.08302e-16
7.75262e-12
-1.20288e-12
7.75426e-12
-2.44095e-12
7.96639e-12
-3.77057e-12
8.5796e-12
-5.19454e-12
9.16972e-12
-6.8369e-12
1.06054e-11
-8.63699e-12
1.15872e-11
-1.08197e-11
1.41348e-11
-1.3233e-11
1.55111e-11
-1.63053e-11
1.99444e-11
-1.96618e-11
2.15732e-11
-2.4176e-11
2.93984e-11
-2.89781e-11
3.08361e-11
-3.58586e-11
4.50705e-11
-4.28977e-11
4.51716e-11
-5.38226e-11
7.20805e-11
-6.43558e-11
6.76225e-11
-8.24642e-11
1.20641e-10
-9.84358e-11
1.02679e-10
-1.29761e-10
2.11806e-10
-1.5319e-10
1.51112e-10
-2.09028e-10
3.87025e-10
-2.34555e-10
1.64996e-10
-3.30262e-10
6.98269e-10
-2.91153e-10
-2.62848e-10
-3.97016e-10
9.33077e-10
1.3885e-10
-3.34293e-09
4.44956e-10
-5.50853e-10
3.68156e-09
3.06398e-09
9.03863e-09
-1.16392e-08
9.54529e-09
-1.03617e-08
1.99068e-08
-4.3683e-09
-1.76326e-08
-5.63177e-10
-7.41128e-10
-1.71992e-10
-9.42021e-10
4.2697e-10
-3.94189e-09
3.20031e-10
1.04002e-09
3.62828e-10
-3.05644e-10
2.59845e-10
8.01246e-10
2.31265e-10
1.9358e-10
1.70281e-10
4.47998e-10
1.44091e-10
1.77287e-10
1.0963e-10
2.46266e-10
9.17642e-11
1.20546e-10
7.17571e-11
1.4064e-10
5.99724e-11
7.94066e-11
4.78624e-11
8.41808e-11
3.99915e-11
5.30333e-11
3.23461e-11
5.27236e-11
2.69748e-11
3.62189e-11
2.19549e-11
3.44056e-11
1.82026e-11
2.53144e-11
1.47782e-11
2.33704e-11
1.20826e-11
1.81966e-11
9.64727e-12
1.65681e-11
7.63465e-12
1.35986e-11
5.80464e-12
1.24261e-11
4.2113e-12
1.0782e-11
2.72538e-12
1.00724e-11
1.34457e-12
9.34158e-12
4.83339e-16
9.11138e-12
-1.34326e-12
9.10213e-12
-2.7261e-12
9.3505e-12
-4.2104e-12
1.00726e-11
-5.80131e-12
1.07571e-11
-7.63392e-12
1.24285e-11
-9.64526e-12
1.36044e-11
-1.20792e-11
1.65692e-11
-1.47766e-11
1.81977e-11
-1.81996e-11
2.33632e-11
-2.19519e-11
2.53184e-11
-2.69752e-11
3.44205e-11
-3.23451e-11
3.62107e-11
-3.99886e-11
5.27127e-11
-4.78621e-11
5.30444e-11
-5.99711e-11
8.41885e-11
-7.17545e-11
7.94117e-11
-9.17642e-11
1.4065e-10
-1.09629e-10
1.20552e-10
-1.4409e-10
2.46265e-10
-1.70284e-10
1.7731e-10
-2.31268e-10
4.48016e-10
-2.59848e-10
1.9357e-10
-3.62833e-10
8.01255e-10
-3.20036e-10
-3.05637e-10
-4.26974e-10
1.04002e-09
1.71986e-10
-3.94188e-09
5.63174e-10
-9.42039e-10
4.3683e-09
-7.41144e-10
1.03617e-08
-1.76326e-08
1.9907e-08
-1.17402e-08
3.1647e-08
-5.09504e-09
-2.42778e-08
-6.9473e-10
-5.14145e-09
-2.08963e-10
-1.42779e-09
4.56699e-10
-4.60755e-09
3.50122e-10
1.1466e-09
3.96738e-10
-3.52258e-10
2.86547e-10
9.11439e-10
2.54714e-10
2.25402e-10
1.88439e-10
5.14275e-10
1.59298e-10
2.06431e-10
1.21563e-10
2.84e-10
1.01671e-10
1.40442e-10
7.96625e-11
1.62642e-10
6.65376e-11
9.25342e-11
5.31739e-11
9.75526e-11
4.44084e-11
6.17984e-11
3.59517e-11
6.11786e-11
2.99711e-11
4.21899e-11
2.44089e-11
3.99786e-11
2.02318e-11
2.94991e-11
1.64327e-11
2.71725e-11
1.34326e-11
2.11969e-11
1.07283e-11
1.92777e-11
8.48895e-12
1.58452e-11
6.45556e-12
1.44626e-11
4.68294e-12
1.25445e-11
3.03109e-12
1.17291e-11
1.49522e-12
1.08691e-11
5.44391e-16
1.05983e-11
-1.49377e-12
1.05971e-11
-3.03184e-12
1.0889e-11
-4.68196e-12
1.17148e-11
-6.45195e-12
1.25315e-11
-8.48819e-12
1.44694e-11
-1.07262e-11
1.58474e-11
-1.3429e-11
1.92745e-11
-1.64311e-11
2.1199e-11
-2.02286e-11
2.71619e-11
-2.44056e-11
2.94995e-11
-2.99716e-11
3.99865e-11
-3.59506e-11
4.21841e-11
-4.44052e-11
6.11697e-11
-5.31736e-11
6.18153e-11
-6.65363e-11
9.75411e-11
-7.96597e-11
9.2529e-11
-1.01671e-10
1.62658e-10
-1.21562e-10
1.40434e-10
-1.59297e-10
2.84008e-10
-1.88442e-10
2.06455e-10
-2.54718e-10
5.1428e-10
-2.8655e-10
2.25399e-10
-3.96744e-10
9.11451e-10
-3.50127e-10
-3.5226e-10
-4.56703e-10
1.14658e-09
2.08957e-10
-4.60754e-09
6.94728e-10
-1.42781e-09
5.09504e-09
-5.14147e-09
1.17402e-08
-2.42778e-08
3.16472e-08
-1.31795e-08
4.48265e-08
-5.86454e-09
-3.15927e-08
-8.39481e-10
-1.01665e-08
-2.49753e-10
-2.01751e-09
4.86098e-10
-5.3434e-09
3.81424e-10
1.25127e-09
4.31984e-10
-4.02821e-10
3.14693e-10
1.02872e-09
2.79406e-10
2.60698e-10
2.07702e-10
5.85983e-10
1.75418e-10
2.38714e-10
1.3427e-10
3.25145e-10
1.12214e-10
1.62494e-10
8.81005e-11
1.86768e-10
7.35414e-11
1.07091e-10
5.88514e-11
1.12242e-10
4.91277e-11
7.15231e-11
3.98094e-11
7.04963e-11
3.3176e-11
4.88252e-11
2.7036e-11
4.6109e-11
2.24037e-11
3.41254e-11
1.82047e-11
3.13697e-11
1.48782e-11
2.45262e-11
1.18864e-11
2.22607e-11
9.40398e-12
1.83302e-11
7.15296e-12
1.67084e-11
5.18823e-12
1.45127e-11
3.35864e-12
1.35499e-11
1.65663e-12
1.25809e-11
6.26222e-16
1.22558e-11
-1.65504e-12
1.22484e-11
-3.35946e-12
1.25937e-11
-5.18709e-12
1.35452e-11
-7.14907e-12
1.44903e-11
-9.40321e-12
1.67293e-11
-1.18842e-11
1.83183e-11
-1.48743e-11
2.22627e-11
-1.8203e-11
2.45333e-11
-2.24004e-11
3.13548e-11
-2.70325e-11
3.41305e-11
-3.31765e-11
4.61345e-11
-3.98082e-11
4.8822e-11
-4.91243e-11
7.04826e-11
-5.88512e-11
7.15328e-11
-7.354e-11
1.12235e-10
-8.80974e-11
1.0709e-10
-1.12214e-10
1.86776e-10
-1.3427e-10
1.62494e-10
-1.75417e-10
3.25154e-10
-2.07705e-10
2.38747e-10
-2.7941e-10
5.85998e-10
-3.14696e-10
2.60695e-10
-4.3199e-10
1.02874e-09
-3.8143e-10
-4.02817e-10
-4.86103e-10
1.25127e-09
2.49746e-10
-5.34339e-09
8.39478e-10
-2.01755e-09
5.86454e-09
-1.01665e-08
1.31795e-08
-3.15927e-08
4.48267e-08
-1.46852e-08
5.95117e-08
-6.67948e-09
-3.95985e-08
-9.97071e-10
-1.58489e-08
-2.94256e-10
-2.72033e-09
5.15075e-10
-6.15273e-09
4.13937e-10
1.35241e-09
4.68559e-10
-4.57441e-10
3.44313e-10
1.15298e-09
3.05372e-10
2.99638e-10
2.28109e-10
6.63244e-10
1.92487e-10
2.74336e-10
1.47787e-10
3.69852e-10
1.23422e-10
1.86864e-10
9.70977e-11
2.13088e-10
8.10063e-11
1.23186e-10
6.49146e-11
1.2832e-10
5.41659e-11
8.22715e-11
4.39333e-11
8.07277e-11
3.6601e-11
5.61588e-11
2.98462e-11
5.28684e-11
2.47265e-11
3.92387e-11
2.01009e-11
3.5999e-11
1.6425e-11
2.82022e-11
1.31261e-11
2.5566e-11
1.03833e-11
2.10569e-11
7.89964e-12
1.91958e-11
5.72913e-12
1.66837e-11
3.70941e-12
1.55775e-11
1.82941e-12
1.44589e-11
6.92723e-16
1.4085e-11
-1.82768e-12
1.40746e-11
-3.71024e-12
1.44757e-11
-5.72789e-12
1.55645e-11
-7.89544e-12
1.66567e-11
-1.03826e-11
1.92066e-11
-1.31237e-11
2.10608e-11
-1.64208e-11
2.55626e-11
-2.00992e-11
2.82095e-11
-2.47231e-11
3.59816e-11
-2.98425e-11
3.92513e-11
-3.66016e-11
5.28849e-11
-4.3932e-11
5.61466e-11
-5.41623e-11
8.0719e-11
-6.49144e-11
8.22903e-11
-8.10047e-11
1.28324e-10
-9.70944e-11
1.23171e-10
-1.23423e-10
2.131e-10
-1.47786e-10
1.86854e-10
-1.92485e-10
3.69848e-10
-2.28112e-10
2.74366e-10
-3.05376e-10
6.63256e-10
-3.44315e-10
2.99628e-10
-4.68565e-10
1.15299e-09
-4.13943e-10
-4.57448e-10
-5.15079e-10
1.35241e-09
2.94248e-10
-6.15272e-09
9.97068e-10
-2.72036e-09
6.67948e-09
-1.58489e-08
1.46852e-08
-3.95985e-08
5.95119e-08
-1.62636e-08
7.57753e-08
-7.54248e-09
-4.83196e-08
-1.16688e-09
-2.22245e-08
-3.42257e-10
-3.54495e-09
5.43546e-10
-7.03854e-09
4.47663e-10
1.44829e-09
5.06447e-10
-5.16225e-10
3.75434e-10
1.28399e-09
3.32639e-10
3.42433e-10
2.49698e-10
7.46189e-10
2.10539e-10
3.13506e-10
1.62147e-10
4.18238e-10
1.35327e-10
2.13684e-10
1.06681e-10
2.41735e-10
8.89553e-11
1.40902e-10
7.13838e-11
1.45903e-10
5.954e-11
9.41127e-11
4.83381e-11
9.19349e-11
4.02587e-11
6.42403e-11
3.285e-11
6.02769e-11
2.72089e-11
4.4895e-11
2.21287e-11
4.10775e-11
1.80789e-11
3.22551e-11
1.44521e-11
2.91962e-11
1.14309e-11
2.40947e-11
8.69854e-12
2.19315e-11
6.30781e-12
1.90697e-11
4.08473e-12
1.77967e-11
2.01429e-12
1.65267e-11
7.71149e-16
1.61012e-11
-2.0124e-12
1.61001e-11
-4.08558e-12
1.6548e-11
-6.30644e-12
1.77854e-11
-8.69405e-12
1.90437e-11
-1.14302e-11
2.19506e-11
-1.44496e-11
2.4083e-11
-1.80743e-11
2.9188e-11
-2.2127e-11
3.22644e-11
-2.72053e-11
4.10678e-11
-3.2846e-11
4.48845e-11
-4.02593e-11
6.03073e-11
-4.83367e-11
6.422e-11
-5.95362e-11
9.19127e-11
-7.13836e-11
9.41379e-11
-8.89537e-11
1.45904e-10
-1.06678e-10
1.40904e-10
-1.35327e-10
2.41755e-10
-1.62146e-10
2.1367e-10
-2.10537e-10
4.18242e-10
-2.49702e-10
3.1354e-10
-3.32643e-10
7.462e-10
-3.75436e-10
3.42424e-10
-5.06453e-10
1.28401e-09
-4.47669e-10
-5.16225e-10
-5.43551e-10
1.44828e-09
3.42249e-10
-7.03852e-09
1.16688e-09
-3.545e-09
7.54248e-09
-2.22245e-08
1.62636e-08
-4.83196e-08
7.57755e-08
-1.79211e-08
9.36964e-08
-8.45607e-09
-5.77847e-08
-1.348e-09
-2.93326e-08
-3.93407e-10
-4.49955e-09
5.71447e-10