/*--------------------------------*- C++ -*----------------------------------*\
| =========                 |                                                 |
| \\      /  F ield         | foam-extend: Open Source CFD                    |
|  \\    /   O peration     | Version:     4.0                                |
|   \\  /    A nd           | Web:         http://www.foam-extend.org         |
|    \\/     M anipulation  |                                                 |
\*---------------------------------------------------------------------------*/
FoamFile
{
    version     2.0;
    format      ascii;
    class       volVectorField;
    location    "25";
    object      U;
}
// * * * * * * * * * * * * * * * * * * * * * * * * * * * * * * * * * * * * * //

dimensions      [0 1 -1 0 0 0 0];

internalField   nonuniform List<vector> 
6960
(
(-4.16385e-06 -212.662 0)
(-3.02997e-06 -212.655 0)
(1.29559e-06 -212.655 0)
(3.5097e-07 -212.655 0)
(2.30423e-07 -212.655 0)
(1.02973e-07 -212.655 0)
(7.94351e-08 -212.655 0)
(4.37588e-08 -212.655 0)
(3.51639e-08 -212.655 0)
(2.18845e-08 -212.655 0)
(1.81646e-08 -212.655 0)
(1.22693e-08 -212.655 0)
(1.03458e-08 -212.655 0)
(7.41583e-09 -212.655 0)
(6.28409e-09 -212.655 0)
(4.70453e-09 -212.655 0)
(3.98084e-09 -212.655 0)
(3.07218e-09 -212.655 0)
(2.58743e-09 -212.655 0)
(2.03498e-09 -212.655 0)
(1.69972e-09 -212.655 0)
(1.3485e-09 -212.655 0)
(1.11044e-09 -212.655 0)
(8.7446e-10 -212.655 0)
(7.0193e-10 -212.655 0)
(5.34858e-10 -212.655 0)
(4.01416e-10 -212.655 0)
(2.73444e-10 -212.655 0)
(1.63532e-10 -212.655 0)
(5.1866e-11 -212.655 0)
(-5.15513e-11 -212.655 0)
(-1.62091e-10 -212.655 0)
(-2.74544e-10 -212.655 0)
(-4.01175e-10 -212.655 0)
(-5.35016e-10 -212.655 0)
(-7.03609e-10 -212.655 0)
(-8.74492e-10 -212.655 0)
(-1.11128e-09 -212.655 0)
(-1.34982e-09 -212.655 0)
(-1.69932e-09 -212.655 0)
(-2.03606e-09 -212.655 0)
(-2.58904e-09 -212.655 0)
(-3.07069e-09 -212.655 0)
(-3.98078e-09 -212.655 0)
(-4.7067e-09 -212.655 0)
(-6.28396e-09 -212.655 0)
(-7.41767e-09 -212.655 0)
(-1.03485e-08 -212.655 0)
(-1.22684e-08 -212.655 0)
(-1.81628e-08 -212.655 0)
(-2.18827e-08 -212.655 0)
(-3.51611e-08 -212.655 0)
(-4.3759e-08 -212.655 0)
(-7.94369e-08 -212.655 0)
(-1.02972e-07 -212.655 0)
(-2.30423e-07 -212.655 0)
(-3.5097e-07 -212.655 0)
(-1.29559e-06 -212.655 0)
(3.02997e-06 -212.655 0)
(4.16385e-06 -212.662 0)
(0.000195364 15.5667 0)
(0.000198692 15.5729 0)
(3.80199e-06 15.5729 0)
(1.03577e-06 15.5729 0)
(6.88481e-07 15.5729 0)
(3.11358e-07 15.5729 0)
(2.3877e-07 15.5729 0)
(1.32581e-07 15.5729 0)
(1.06007e-07 15.5729 0)
(6.63494e-08 15.5729 0)
(5.48377e-08 15.5729 0)
(3.72095e-08 15.5729 0)
(3.12576e-08 15.5729 0)
(2.24841e-08 15.5729 0)
(1.90055e-08 15.5729 0)
(1.42552e-08 15.5729 0)
(1.20417e-08 15.5729 0)
(9.31416e-09 15.5729 0)
(7.82404e-09 15.5729 0)
(6.16478e-09 15.5729 0)
(5.14809e-09 15.5729 0)
(4.07931e-09 15.5729 0)
(3.36031e-09 15.5729 0)
(2.65252e-09 15.5729 0)
(2.11935e-09 15.5729 0)
(1.61918e-09 15.5729 0)
(1.21931e-09 15.5729 0)
(8.23126e-10 15.5729 0)
(4.9744e-10 15.5729 0)
(1.73036e-10 15.5729 0)
(-1.91609e-10 15.5729 0)
(-4.87652e-10 15.5729 0)
(-7.84303e-10 15.5729 0)
(-1.26061e-09 15.5729 0)
(-1.61964e-09 15.5729 0)
(-2.0822e-09 15.5729 0)
(-2.69465e-09 15.5729 0)
(-3.36278e-09 15.5729 0)
(-4.04115e-09 15.5729 0)
(-5.189e-09 15.5729 0)
(-6.16796e-09 15.5729 0)
(-7.78675e-09 15.5729 0)
(-9.35179e-09 15.5729 0)
(-1.20415e-08 15.5729 0)
(-1.42196e-08 15.5729 0)
(-1.90471e-08 15.5729 0)
(-2.24895e-08 15.5729 0)
(-3.12235e-08 15.5729 0)
(-3.72491e-08 15.5729 0)
(-5.48324e-08 15.5729 0)
(-6.63021e-08 15.5729 0)
(-1.06041e-07 15.5729 0)
(-1.32582e-07 15.5729 0)
(-2.38734e-07 15.5729 0)
(-3.11397e-07 15.5729 0)
(-6.88481e-07 15.5729 0)
(-1.03573e-06 15.5729 0)
(-3.80203e-06 15.5729 0)
(-0.000198692 15.5729 0)
(-0.000195364 15.5667 0)
(0.000157907 39.5484 0)
(0.000163121 39.5448 0)
(5.98699e-06 39.5448 0)
(1.70475e-06 39.5448 0)
(1.14965e-06 39.5448 0)
(5.25065e-07 39.5448 0)
(4.00865e-07 39.5448 0)
(2.24011e-07 39.5448 0)
(1.784e-07 39.5448 0)
(1.12184e-07 39.5448 0)
(9.24019e-08 39.5448 0)
(6.29156e-08 39.5448 0)
(5.27121e-08 39.5448 0)
(3.80141e-08 39.5448 0)
(3.20587e-08 39.5448 0)
(2.40987e-08 39.5448 0)
(2.03197e-08 39.5448 0)
(1.57343e-08 39.5448 0)
(1.32077e-08 39.5448 0)
(1.04131e-08 39.5448 0)
(8.68371e-09 39.5448 0)
(6.89173e-09 39.5448 0)
(5.66988e-09 39.5448 0)
(4.47362e-09 39.5448 0)
(3.57926e-09 39.5448 0)
(2.73235e-09 39.5448 0)
(2.05285e-09 39.5448 0)
(1.3927e-09 39.5448 0)
(8.36373e-10 39.5448 0)
(2.78962e-10 39.5448 0)
(-2.93942e-10 39.5448 0)
(-8.24868e-10 39.5448 0)
(-1.36188e-09 39.5448 0)
(-2.08764e-09 39.5448 0)
(-2.73305e-09 39.5448 0)
(-3.55104e-09 39.5448 0)
(-4.50979e-09 39.5448 0)
(-5.67392e-09 39.5448 0)
(-6.86201e-09 39.5448 0)
(-8.71796e-09 39.5448 0)
(-1.04182e-08 39.5448 0)
(-1.31793e-08 39.5448 0)
(-1.57632e-08 39.5448 0)
(-2.03194e-08 39.5448 0)
(-2.40731e-08 39.5448 0)
(-3.20942e-08 39.5448 0)
(-3.80229e-08 39.5448 0)
(-5.2689e-08 39.5448 0)
(-6.29476e-08 39.5448 0)
(-9.23932e-08 39.5448 0)
(-1.1214e-07 39.5448 0)
(-1.78423e-07 39.5448 0)
(-2.24012e-07 39.5448 0)
(-4.00837e-07 39.5448 0)
(-5.25097e-07 39.5448 0)
(-1.14965e-06 39.5448 0)
(-1.70471e-06 39.5448 0)
(-5.98703e-06 39.5448 0)
(-0.000163121 39.5448 0)
(-0.000157907 39.5484 0)
(5.52201e-05 9.6345 0)
(6.21138e-05 9.63082 0)
(7.93525e-06 9.63082 0)
(2.34211e-06 9.63081 0)
(1.61299e-06 9.63081 0)
(7.43921e-07 9.63081 0)
(5.65644e-07 9.63081 0)
(3.18055e-07 9.63081 0)
(2.52355e-07 9.63081 0)
(1.59404e-07 9.63081 0)
(1.30871e-07 9.63081 0)
(8.94058e-08 9.63081 0)
(7.47157e-08 9.63081 0)
(5.40151e-08 9.63081 0)
(4.54543e-08 9.63081 0)
(3.42366e-08 9.63081 0)
(2.88187e-08 9.63081 0)
(2.23395e-08 9.63081 0)
(1.87364e-08 9.63081 0)
(1.47812e-08 9.63081 0)
(1.23113e-08 9.63081 0)
(9.78241e-09 9.63081 0)
(8.03936e-09 9.63081 0)
(6.34164e-09 9.63081 0)
(5.07765e-09 9.63081 0)
(3.87424e-09 9.63081 0)
(2.90572e-09 9.63081 0)
(1.97815e-09 9.63081 0)
(1.18254e-09 9.63081 0)
(3.82711e-10 9.63081 0)
(-3.87888e-10 9.63081 0)
(-1.17132e-09 9.63081 0)
(-1.96851e-09 9.63081 0)
(-2.92067e-09 9.63081 0)
(-3.8751e-09 9.63081 0)
(-5.07138e-09 9.63081 0)
(-6.35854e-09 9.63081 0)
(-8.04486e-09 9.63081 0)
(-9.77424e-09 9.63081 0)
(-1.23256e-08 9.63081 0)
(-1.47883e-08 9.63081 0)
(-1.873e-08 9.63081 0)
(-2.23464e-08 9.63081 0)
(-2.88183e-08 9.63081 0)
(-3.4234e-08 9.63081 0)
(-4.54702e-08 9.63081 0)
(-5.40271e-08 9.63081 0)
(-7.47166e-08 9.63081 0)
(-8.9417e-08 9.63081 0)
(-1.30859e-07 9.63081 0)
(-1.59376e-07 9.63081 0)
(-2.52354e-07 9.63081 0)
(-3.18056e-07 9.63081 0)
(-5.65639e-07 9.63081 0)
(-7.43931e-07 9.63081 0)
(-1.61299e-06 9.63081 0)
(-2.3421e-06 9.63081 0)
(-7.93527e-06 9.63082 0)
(-6.21138e-05 9.63082 0)
(-5.52201e-05 9.6345 0)
(1.89126e-05 -1.27179 0)
(2.73978e-05 -1.27232 0)
(9.77046e-06 -1.27232 0)
(2.95095e-06 -1.27232 0)
(2.07753e-06 -1.27232 0)
(9.67711e-07 -1.27232 0)
(7.33015e-07 -1.27232 0)
(4.14705e-07 -1.27232 0)
(3.27879e-07 -1.27232 0)
(2.08022e-07 -1.27232 0)
(1.70257e-07 -1.27232 0)
(1.16696e-07 -1.27232 0)
(9.72756e-08 -1.27232 0)
(7.04967e-08 -1.27232 0)
(5.92022e-08 -1.27232 0)
(4.46722e-08 -1.27232 0)
(3.75435e-08 -1.27232 0)
(2.91366e-08 -1.27232 0)
(2.44104e-08 -1.27232 0)
(1.92718e-08 -1.27232 0)
(1.60356e-08 -1.27232 0)
(1.27499e-08 -1.27232 0)
(1.04699e-08 -1.27232 0)
(8.26042e-09 -1.27232 0)
(6.61219e-09 -1.27232 0)
(5.0453e-09 -1.27232 0)
(3.78121e-09 -1.27232 0)
(2.57673e-09 -1.27232 0)
(1.53783e-09 -1.27232 0)
(4.9436e-10 -1.27232 0)
(-4.95981e-10 -1.27232 0)
(-1.52534e-09 -1.27232 0)
(-2.57483e-09 -1.27232 0)
(-3.78963e-09 -1.27232 0)
(-5.04626e-09 -1.27232 0)
(-6.61425e-09 -1.27232 0)
(-8.27133e-09 -1.27232 0)
(-1.04767e-08 -1.27232 0)
(-1.27498e-08 -1.27232 0)
(-1.60435e-08 -1.27232 0)
(-1.92805e-08 -1.27232 0)
(-2.44123e-08 -1.27232 0)
(-2.91351e-08 -1.27232 0)
(-3.75431e-08 -1.27232 0)
(-4.46789e-08 -1.27232 0)
(-5.92121e-08 -1.27232 0)
(-7.05117e-08 -1.27232 0)
(-9.72868e-08 -1.27232 0)
(-1.167e-07 -1.27232 0)
(-1.70243e-07 -1.27232 0)
(-2.07997e-07 -1.27232 0)
(-3.27867e-07 -1.27232 0)
(-4.14706e-07 -1.27232 0)
(-7.33019e-07 -1.27232 0)
(-9.67713e-07 -1.27232 0)
(-2.07753e-06 -1.27232 0)
(-2.95094e-06 -1.27232 0)
(-9.77046e-06 -1.27232 0)
(-2.73978e-05 -1.27232 0)
(-1.89126e-05 -1.27179 0)
(1.80819e-05 -0.793611 0)
(2.80469e-05 -0.793156 0)
(1.14812e-05 -0.793157 0)
(3.54287e-06 -0.793163 0)
(2.54222e-06 -0.793164 0)
(1.19618e-06 -0.793164 0)
(9.02865e-07 -0.793164 0)
(5.13943e-07 -0.793164 0)
(4.04965e-07 -0.793164 0)
(2.58048e-07 -0.793164 0)
(2.1057e-07 -0.793164 0)
(1.44799e-07 -0.793164 0)
(1.20402e-07 -0.793164 0)
(8.7468e-08 -0.793164 0)
(7.33091e-08 -0.793164 0)
(5.54125e-08 -0.793164 0)
(4.6499e-08 -0.793164 0)
(3.61292e-08 -0.793164 0)
(3.02336e-08 -0.793164 0)
(2.38876e-08 -0.793164 0)
(1.98583e-08 -0.793164 0)
(1.57967e-08 -0.793164 0)
(1.29628e-08 -0.793164 0)
(1.02304e-08 -0.793164 0)
(8.18444e-09 -0.793164 0)
(6.2462e-09 -0.793164 0)
(4.67911e-09 -0.793164 0)
(3.18948e-09 -0.793164 0)
(1.90199e-09 -0.793164 0)
(6.1161e-10 -0.793164 0)
(-6.12986e-10 -0.793164 0)
(-1.88754e-09 -0.793164 0)
(-3.1881e-09 -0.793164 0)
(-4.68802e-09 -0.793164 0)
(-6.24716e-09 -0.793164 0)
(-8.18747e-09 -0.793164 0)
(-1.02423e-08 -0.793164 0)
(-1.29709e-08 -0.793164 0)
(-1.57974e-08 -0.793164 0)
(-1.98667e-08 -0.793164 0)
(-2.38977e-08 -0.793164 0)
(-3.02365e-08 -0.793164 0)
(-3.61265e-08 -0.793164 0)
(-4.64985e-08 -0.793164 0)
(-5.54213e-08 -0.793164 0)
(-7.33199e-08 -0.793164 0)
(-8.74857e-08 -0.793164 0)
(-1.20416e-07 -0.793164 0)
(-1.44803e-07 -0.793164 0)
(-2.10553e-07 -0.793164 0)
(-2.5802e-07 -0.793164 0)
(-4.04951e-07 -0.793164 0)
(-5.13944e-07 -0.793164 0)
(-9.0287e-07 -0.793164 0)
(-1.19618e-06 -0.793164 0)
(-2.54222e-06 -0.793164 0)
(-3.54285e-06 -0.793163 0)
(-1.14812e-05 -0.793157 0)
(-2.80469e-05 -0.793156 0)
(-1.80819e-05 -0.793611 0)
(1.42731e-05 0.222049 0)
(2.5563e-05 0.222223 0)
(1.30288e-05 0.222222 0)
(4.12161e-06 0.222216 0)
(3.00596e-06 0.222215 0)
(1.42904e-06 0.222215 0)
(1.07506e-06 0.222215 0)
(6.15739e-07 0.222215 0)
(4.83605e-07 0.222215 0)
(3.09494e-07 0.222215 0)
(2.51819e-07 0.222215 0)
(1.73724e-07 0.222215 0)
(1.44106e-07 0.222215 0)
(1.04938e-07 0.222215 0)
(8.77812e-08 0.222215 0)
(6.64649e-08 0.222215 0)
(5.56903e-08 0.222215 0)
(4.33208e-08 0.222215 0)
(3.62105e-08 0.222215 0)
(2.86315e-08 0.222215 0)
(2.37807e-08 0.222215 0)
(1.89255e-08 0.222215 0)
(1.55198e-08 0.222215 0)
(1.2252e-08 0.222215 0)
(9.79623e-09 0.222215 0)
(7.47767e-09 0.222215 0)
(5.59909e-09 0.222215 0)
(3.81764e-09 0.222215 0)
(2.2747e-09 0.222215 0)
(7.31592e-10 0.222215 0)
(-7.32401e-10 0.222215 0)
(-2.25865e-09 0.222215 0)
(-3.81735e-09 0.222215 0)
(-5.60774e-09 0.222215 0)
(-7.47856e-09 0.222215 0)
(-9.80061e-09 0.222215 0)
(-1.22641e-08 0.222215 0)
(-1.55289e-08 0.222215 0)
(-1.89276e-08 0.222215 0)
(-2.37891e-08 0.222215 0)
(-2.8643e-08 0.222215 0)
(-3.62147e-08 0.222215 0)
(-4.33165e-08 0.222215 0)
(-5.56899e-08 0.222215 0)
(-6.64761e-08 0.222215 0)
(-8.77922e-08 0.222215 0)
(-1.04958e-07 0.222215 0)
(-1.44123e-07 0.222215 0)
(-1.73728e-07 0.222215 0)
(-2.518e-07 0.222215 0)
(-3.09463e-07 0.222215 0)
(-4.83588e-07 0.222215 0)
(-6.15741e-07 0.222215 0)
(-1.07507e-06 0.222215 0)
(-1.42905e-06 0.222215 0)
(-3.00596e-06 0.222215 0)
(-4.1216e-06 0.222216 0)
(-1.30288e-05 0.222222 0)
(-2.5563e-05 0.222223 0)
(-1.42731e-05 0.222049 0)
(4.1104e-06 0.220645 0)
(1.65672e-05 0.220613 0)
(1.44092e-05 0.220613 0)
(4.6849e-06 0.220606 0)
(3.46753e-06 0.220606 0)
(1.66597e-06 0.220606 0)
(1.24945e-06 0.220606 0)
(7.20052e-07 0.220606 0)
(5.63784e-07 0.220605 0)
(3.62362e-07 0.220605 0)
(2.94011e-07 0.220605 0)
(2.03482e-07 0.220605 0)
(1.68395e-07 0.220605 0)
(1.22915e-07 0.220605 0)
(1.02625e-07 0.220605 0)
(7.78357e-08 0.220605 0)
(6.51225e-08 0.220605 0)
(5.07158e-08 0.220605 0)
(4.23446e-08 0.220605 0)
(3.35066e-08 0.220605 0)
(2.78053e-08 0.220605 0)
(2.21386e-08 0.220605 0)
(1.81423e-08 0.220605 0)
(1.43263e-08 0.220605 0)
(1.14486e-08 0.220605 0)
(8.74051e-09 0.220605 0)
(6.54166e-09 0.220605 0)
(4.46168e-09 0.220605 0)
(2.65615e-09 0.220605 0)
(8.5412e-10 0.220605 0)
(-8.53727e-10 0.220605 0)
(-2.63897e-09 0.220605 0)
(-4.46372e-09 0.220605 0)
(-6.54861e-09 0.220605 0)
(-8.74124e-09 0.220605 0)
(-1.14555e-08 0.220605 0)
(-1.43372e-08 0.220605 0)
(-1.81524e-08 0.220605 0)
(-2.21432e-08 0.220605 0)
(-2.78123e-08 0.220605 0)
(-3.35191e-08 0.220605 0)
(-4.23512e-08 0.220605 0)
(-5.07087e-08 0.220605 0)
(-6.51222e-08 0.220605 0)
(-7.78504e-08 0.220605 0)
(-1.02635e-07 0.220605 0)
(-1.22938e-07 0.220605 0)
(-1.68416e-07 0.220605 0)
(-2.03484e-07 0.220605 0)
(-2.93991e-07 0.220605 0)
(-3.6233e-07 0.220605 0)
(-5.63762e-07 0.220605 0)
(-7.20053e-07 0.220606 0)
(-1.24946e-06 0.220606 0)
(-1.66597e-06 0.220606 0)
(-3.46753e-06 0.220606 0)
(-4.68489e-06 0.220606 0)
(-1.44092e-05 0.220613 0)
(-1.65672e-05 0.220613 0)
(-4.11039e-06 0.220645 0)
(-6.42562e-06 0.0355655 0)
(7.05157e-06 0.0355483 0)
(1.56329e-05 0.0355482 0)
(5.23094e-06 0.0355416 0)
(3.92568e-06 0.0355409 0)
(1.90658e-06 0.0355408 0)
(1.42586e-06 0.0355407 0)
(8.26827e-07 0.0355407 0)
(6.45479e-07 0.0355407 0)
(4.16654e-07 0.0355407 0)
(3.37151e-07 0.0355406 0)
(2.34081e-07 0.0355406 0)
(1.93277e-07 0.0355406 0)
(1.41408e-07 0.0355406 0)
(1.17849e-07 0.0355406 0)
(8.95309e-08 0.0355406 0)
(7.48008e-08 0.0355406 0)
(5.83187e-08 0.0355406 0)
(4.86394e-08 0.0355406 0)
(3.85159e-08 0.0355406 0)
(3.19347e-08 0.0355406 0)
(2.54378e-08 0.0355406 0)
(2.08321e-08 0.0355406 0)
(1.6455e-08 0.0355406 0)
(1.31426e-08 0.0355406 0)
(1.00356e-08 0.0355406 0)
(7.50757e-09 0.0355406 0)
(5.12191e-09 0.0355406 0)
(3.04666e-09 0.0355406 0)
(9.79721e-10 0.0355406 0)
(-9.78081e-10 0.0355406 0)
(-3.02865e-09 0.0355406 0)
(-5.12631e-09 0.0355406 0)
(-7.5126e-09 0.0355406 0)
(-1.00361e-08 0.0355406 0)
(-1.31517e-08 0.0355406 0)
(-1.64644e-08 0.0355406 0)
(-2.0843e-08 0.0355406 0)
(-2.5445e-08 0.0355406 0)
(-3.19402e-08 0.0355406 0)
(-3.85294e-08 0.0355406 0)
(-4.86484e-08 0.0355406 0)
(-5.83088e-08 0.0355406 0)
(-7.48006e-08 0.0355406 0)
(-8.95489e-08 0.0355406 0)
(-1.17857e-07 0.0355406 0)
(-1.41432e-07 0.0355406 0)
(-1.93303e-07 0.0355406 0)
(-2.34081e-07 0.0355406 0)
(-3.37129e-07 0.0355406 0)
(-4.16622e-07 0.0355407 0)
(-6.45454e-07 0.0355407 0)
(-8.26828e-07 0.0355407 0)
(-1.42587e-06 0.0355407 0)
(-1.90657e-06 0.0355408 0)
(-3.92568e-06 0.0355409 0)
(-5.23092e-06 0.0355416 0)
(-1.56329e-05 0.0355482 0)
(-7.05157e-06 0.0355483 0)
(6.42563e-06 0.0355655 0)
(-1.55488e-05 -0.0344232 0)
(-1.1925e-06 -0.0343963 0)
(1.67063e-05 -0.0343958 0)
(5.7598e-06 -0.0344021 0)
(4.37906e-06 -0.034403 0)
(2.15046e-06 -0.0344031 0)
(1.60408e-06 -0.0344032 0)
(9.35993e-07 -0.0344033 0)
(7.28663e-07 -0.0344033 0)
(4.72365e-07 -0.0344033 0)
(3.81241e-07 -0.0344033 0)
(2.65529e-07 -0.0344033 0)
(2.18761e-07 -0.0344033 0)
(1.60424e-07 -0.0344033 0)
(1.33458e-07 -0.0344033 0)
(1.01557e-07 -0.0344033 0)
(8.47303e-08 -0.0344033 0)
(6.61341e-08 -0.0344033 0)
(5.50988e-08 -0.0344033 0)
(4.36627e-08 -0.0344033 0)
(3.61716e-08 -0.0344033 0)
(2.88253e-08 -0.0344033 0)
(2.3591e-08 -0.0344033 0)
(1.86395e-08 -0.0344033 0)
(1.48794e-08 -0.0344033 0)
(1.13637e-08 -0.0344033 0)
(8.49753e-09 -0.0344033 0)
(5.79876e-09 -0.0344033 0)
(3.44655e-09 -0.0344033 0)
(1.10861e-09 -0.0344033 0)
(-1.10585e-09 -0.0344033 0)
(-3.42794e-09 -0.0344033 0)
(-5.80519e-09 -0.0344033 0)
(-8.50076e-09 -0.0344033 0)
(-1.13639e-08 -0.0344033 0)
(-1.48902e-08 -0.0344033 0)
(-1.86475e-08 -0.0344033 0)
(-2.36025e-08 -0.0344033 0)
(-2.88347e-08 -0.0344033 0)
(-3.61757e-08 -0.0344033 0)
(-4.36768e-08 -0.0344033 0)
(-5.51096e-08 -0.0344033 0)
(-6.61218e-08 -0.0344033 0)
(-8.47302e-08 -0.0344033 0)
(-1.01577e-07 -0.0344033 0)
(-1.33465e-07 -0.0344033 0)
(-1.60449e-07 -0.0344033 0)
(-2.1879e-07 -0.0344033 0)
(-2.65527e-07 -0.0344033 0)
(-3.81218e-07 -0.0344033 0)
(-4.72333e-07 -0.0344033 0)
(-7.28634e-07 -0.0344033 0)
(-9.35994e-07 -0.0344033 0)
(-1.60409e-06 -0.0344032 0)
(-2.15045e-06 -0.0344031 0)
(-4.37906e-06 -0.034403 0)
(-5.75979e-06 -0.0344021 0)
(-1.67063e-05 -0.0343958 0)
(1.19251e-06 -0.0343963 0)
(1.55488e-05 -0.0344232 0)
(-2.39442e-05 -0.0464147 0)
(-8.84891e-06 -0.0463758 0)
(1.76324e-05 -0.0463747 0)
(6.27223e-06 -0.0463805 0)
(4.82631e-06 -0.0463816 0)
(2.39715e-06 -0.0463817 0)
(1.78388e-06 -0.0463819 0)
(1.04747e-06 -0.0463819 0)
(8.13299e-07 -0.046382 0)
(5.29486e-07 -0.046382 0)
(4.26282e-07 -0.046382 0)
(2.9783e-07 -0.046382 0)
(2.44851e-07 -0.046382 0)
(1.79969e-07 -0.046382 0)
(1.49459e-07 -0.046382 0)
(1.13919e-07 -0.046382 0)
(9.4916e-08 -0.046382 0)
(7.41662e-08 -0.046382 0)
(6.17264e-08 -0.046382 0)
(4.89501e-08 -0.046382 0)
(4.05186e-08 -0.046382 0)
(3.23034e-08 -0.046382 0)
(2.64209e-08 -0.046382 0)
(2.08813e-08 -0.046382 0)
(1.666e-08 -0.046382 0)
(1.2726e-08 -0.046382 0)
(9.51224e-09 -0.046382 0)
(6.49272e-09 -0.046382 0)
(3.85608e-09 -0.046382 0)
(1.24085e-09 -0.046382 0)
(-1.23701e-09 -0.046382 0)
(-3.83714e-09 -0.046382 0)
(-6.50103e-09 -0.046382 0)
(-9.51367e-09 -0.046382 0)
(-1.27258e-08 -0.046382 0)
(-1.66723e-08 -0.046382 0)
(-2.08878e-08 -0.046382 0)
(-2.64329e-08 -0.046382 0)
(-3.23148e-08 -0.046382 0)
(-4.05215e-08 -0.046382 0)
(-4.89647e-08 -0.046382 0)
(-6.17387e-08 -0.046382 0)
(-7.41518e-08 -0.046382 0)
(-9.49161e-08 -0.046382 0)
(-1.13942e-07 -0.046382 0)
(-1.49466e-07 -0.046382 0)
(-1.79996e-07 -0.046382 0)
(-2.44884e-07 -0.046382 0)
(-2.97827e-07 -0.046382 0)
(-4.26259e-07 -0.046382 0)
(-5.29454e-07 -0.046382 0)
(-8.13267e-07 -0.046382 0)
(-1.04747e-06 -0.0463819 0)
(-1.78389e-06 -0.0463819 0)
(-2.39715e-06 -0.0463817 0)
(-4.82631e-06 -0.0463816 0)
(-6.27222e-06 -0.0463805 0)
(-1.76324e-05 -0.0463747 0)
(8.84892e-06 -0.0463758 0)
(2.39442e-05 -0.0464147 0)
(-3.20929e-05 -0.0560127 0)
(-1.63966e-05 -0.0559749 0)
(1.84154e-05 -0.0559732 0)
(6.76906e-06 -0.0559784 0)
(5.26597e-06 -0.0559797 0)
(2.64614e-06 -0.0559798 0)
(1.965e-06 -0.05598 0)
(1.16115e-06 -0.0559801 0)
(8.99341e-07 -0.0559801 0)
(5.88004e-07 -0.0559801 0)
(4.72271e-07 -0.0559801 0)
(3.30989e-07 -0.0559802 0)
(2.71555e-07 -0.0559802 0)
(2.00051e-07 -0.0559802 0)
(1.65859e-07 -0.0559802 0)
(1.26623e-07 -0.0559802 0)
(1.05363e-07 -0.0559802 0)
(8.24197e-08 -0.0559802 0)
(6.8526e-08 -0.0559802 0)
(5.43814e-08 -0.0559802 0)
(4.49786e-08 -0.0559802 0)
(3.58745e-08 -0.0559802 0)
(2.93237e-08 -0.0559802 0)
(2.31821e-08 -0.0559802 0)
(1.8486e-08 -0.0559802 0)
(1.41233e-08 -0.0559802 0)
(1.05525e-08 -0.0559802 0)
(7.20434e-09 -0.0559802 0)
(4.27555e-09 -0.0559802 0)
(1.37648e-09 -0.0559802 0)
(-1.37159e-09 -0.0559802 0)
(-4.25656e-09 -0.0559802 0)
(-7.21444e-09 -0.0559802 0)
(-1.0552e-08 -0.0559802 0)
(-1.41226e-08 -0.0559802 0)
(-1.84995e-08 -0.0559802 0)
(-2.3187e-08 -0.0559802 0)
(-2.93359e-08 -0.0559802 0)
(-3.58878e-08 -0.0559802 0)
(-4.49802e-08 -0.0559802 0)
(-5.43962e-08 -0.0559802 0)
(-6.85396e-08 -0.0559802 0)
(-8.24033e-08 -0.0559802 0)
(-1.05363e-07 -0.0559802 0)
(-1.26648e-07 -0.0559802 0)
(-1.65864e-07 -0.0559802 0)
(-2.00079e-07 -0.0559802 0)
(-2.7159e-07 -0.0559802 0)
(-3.30985e-07 -0.0559802 0)
(-4.72247e-07 -0.0559801 0)
(-5.87972e-07 -0.0559801 0)
(-8.99306e-07 -0.0559801 0)
(-1.16115e-06 -0.0559801 0)
(-1.96502e-06 -0.05598 0)
(-2.64614e-06 -0.0559798 0)
(-5.26597e-06 -0.0559797 0)
(-6.76905e-06 -0.0559784 0)
(-1.84154e-05 -0.0559732 0)
(1.63967e-05 -0.0559749 0)
(3.20929e-05 -0.0560127 0)
(-3.99961e-05 -0.073783 0)
(-2.38331e-05 -0.0737441 0)
(1.90611e-05 -0.0737418 0)
(7.25137e-06 -0.0737462 0)
(5.69656e-06 -0.0737476 0)
(2.89688e-06 -0.0737478 0)
(2.14715e-06 -0.073748 0)
(1.27692e-06 -0.0737481 0)
(9.86734e-07 -0.0737481 0)
(6.47897e-07 -0.0737481 0)
(5.19201e-07 -0.0737482 0)
(3.65007e-07 -0.0737482 0)
(2.98875e-07 -0.0737482 0)
(2.20674e-07 -0.0737482 0)
(1.82662e-07 -0.0737482 0)
(1.39674e-07 -0.0737482 0)
(1.16076e-07 -0.0737482 0)
(9.08987e-08 -0.0737482 0)
(7.55015e-08 -0.0737482 0)
(5.996e-08 -0.0737482 0)
(4.95542e-08 -0.0737482 0)
(3.95409e-08 -0.0737482 0)
(3.23014e-08 -0.0737482 0)
(2.55435e-08 -0.0737482 0)
(2.03585e-08 -0.0737482 0)
(1.55569e-08 -0.0737482 0)
(1.1619e-08 -0.0737482 0)
(7.93421e-09 -0.0737482 0)
(4.7053e-09 -0.0737482 0)
(1.51562e-09 -0.0737482 0)
(-1.50968e-09 -0.0737482 0)
(-4.68654e-09 -0.0737482 0)
(-7.94601e-09 -0.0737482 0)
(-1.16165e-08 -0.0737482 0)
(-1.55556e-08 -0.0737482 0)
(-2.0373e-08 -0.0737482 0)
(-2.55466e-08 -0.0737482 0)
(-3.23138e-08 -0.0737482 0)
(-3.95559e-08 -0.0737482 0)
(-4.95546e-08 -0.0737482 0)
(-5.99748e-08 -0.0737482 0)
(-7.55161e-08 -0.0737482 0)
(-9.08805e-08 -0.0737482 0)
(-1.16077e-07 -0.0737482 0)
(-1.39702e-07 -0.0737482 0)
(-1.82666e-07 -0.0737482 0)
(-2.20703e-07 -0.0737482 0)
(-2.98912e-07 -0.0737482 0)
(-3.65001e-07 -0.0737482 0)
(-5.19177e-07 -0.0737482 0)
(-6.47866e-07 -0.0737481 0)
(-9.86697e-07 -0.0737481 0)
(-1.27691e-06 -0.0737481 0)
(-2.14717e-06 -0.073748 0)
(-2.89687e-06 -0.0737478 0)
(-5.69656e-06 -0.0737476 0)
(-7.25136e-06 -0.0737462 0)
(-1.90611e-05 -0.0737418 0)
(2.38331e-05 -0.0737441 0)
(3.99961e-05 -0.073783 0)
(-4.75456e-05 -0.101773 0)
(-3.10455e-05 -0.101728 0)
(1.95769e-05 -0.101725 0)
(7.72074e-06 -0.101729 0)
(6.11654e-06 -0.10173 0)
(3.14875e-06 -0.10173 0)
(2.33001e-06 -0.101731 0)
(1.39463e-06 -0.101731 0)
(1.07541e-06 -0.101731 0)
(7.09139e-07 -0.101731 0)
(5.67063e-07 -0.101731 0)
(3.99882e-07 -0.101731 0)
(3.26816e-07 -0.101731 0)
(2.41844e-07 -0.101731 0)
(1.99874e-07 -0.101731 0)
(1.53078e-07 -0.101731 0)
(1.2706e-07 -0.101731 0)
(9.96078e-08 -0.101731 0)
(8.26567e-08 -0.101731 0)
(6.56892e-08 -0.101731 0)
(5.42486e-08 -0.101731 0)
(4.33051e-08 -0.101731 0)
(3.53562e-08 -0.101731 0)
(2.79673e-08 -0.101731 0)
(2.22791e-08 -0.101731 0)
(1.70277e-08 -0.101731 0)
(1.27127e-08 -0.101731 0)
(8.68291e-09 -0.101731 0)
(5.1457e-09 -0.101731 0)
(1.65839e-09 -0.101731 0)
(-1.65143e-09 -0.101731 0)
(-5.12742e-09 -0.101731 0)
(-8.69633e-09 -0.101731 0)
(-1.27082e-08 -0.101731 0)
(-1.70258e-08 -0.101731 0)
(-2.22943e-08 -0.101731 0)
(-2.79685e-08 -0.101731 0)
(-3.53686e-08 -0.101731 0)
(-4.33218e-08 -0.101731 0)
(-5.42477e-08 -0.101731 0)
(-6.57038e-08 -0.101731 0)
(-8.26721e-08 -0.101731 0)
(-9.95879e-08 -0.101731 0)
(-1.27061e-07 -0.101731 0)
(-1.53107e-07 -0.101731 0)
(-1.99877e-07 -0.101731 0)
(-2.41873e-07 -0.101731 0)
(-3.26855e-07 -0.101731 0)
(-3.99875e-07 -0.101731 0)
(-5.6704e-07 -0.101731 0)
(-7.09109e-07 -0.101731 0)
(-1.07537e-06 -0.101731 0)
(-1.39463e-06 -0.101731 0)
(-2.33004e-06 -0.101731 0)
(-3.14874e-06 -0.10173 0)
(-6.11654e-06 -0.10173 0)
(-7.72074e-06 -0.101729 0)
(-1.95769e-05 -0.101725 0)
(3.10455e-05 -0.101728 0)
(4.75456e-05 -0.101773 0)
(-5.46119e-05 -0.148976 0)
(-3.78996e-05 -0.148916 0)
(1.99709e-05 -0.148913 0)
(8.17928e-06 -0.148915 0)
(6.52433e-06 -0.148917 0)
(3.40108e-06 -0.148917 0)
(2.51324e-06 -0.148917 0)
(1.51414e-06 -0.148917 0)
(1.1653e-06 -0.148917 0)
(7.71695e-07 -0.148917 0)
(6.15844e-07 -0.148917 0)
(4.35611e-07 -0.148918 0)
(3.55378e-07 -0.148918 0)
(2.63563e-07 -0.148918 0)
(2.175e-07 -0.148918 0)
(1.66839e-07 -0.148918 0)
(1.3832e-07 -0.148918 0)
(1.08551e-07 -0.148918 0)
(8.99956e-08 -0.148918 0)
(7.15726e-08 -0.148918 0)
(5.90648e-08 -0.148918 0)
(4.71699e-08 -0.148918 0)
(3.84903e-08 -0.148918 0)
(3.04554e-08 -0.148918 0)
(2.42494e-08 -0.148918 0)
(1.85371e-08 -0.148918 0)
(1.38346e-08 -0.148918 0)
(9.45113e-09 -0.148918 0)
(5.59716e-09 -0.148918 0)
(1.80493e-09 -0.148918 0)
(-1.797e-09 -0.148918 0)
(-5.5796e-09 -0.148918 0)
(-9.46603e-09 -0.148918 0)
(-1.38279e-08 -0.148918 0)
(-1.85345e-08 -0.148918 0)
(-2.4265e-08 -0.148918 0)
(-3.04545e-08 -0.148918 0)
(-3.85025e-08 -0.148918 0)
(-4.7188e-08 -0.148918 0)
(-5.90626e-08 -0.148918 0)
(-7.15867e-08 -0.148918 0)
(-9.00116e-08 -0.148918 0)
(-1.0853e-07 -0.148918 0)
(-1.38321e-07 -0.148918 0)
(-1.6687e-07 -0.148918 0)
(-2.17502e-07 -0.148918 0)
(-2.63592e-07 -0.148918 0)
(-3.55418e-07 -0.148918 0)
(-4.35604e-07 -0.148918 0)
(-6.15822e-07 -0.148917 0)
(-7.71667e-07 -0.148917 0)
(-1.16526e-06 -0.148917 0)
(-1.51414e-06 -0.148917 0)
(-2.51326e-06 -0.148917 0)
(-3.40107e-06 -0.148917 0)
(-6.52433e-06 -0.148917 0)
(-8.17928e-06 -0.148915 0)
(-1.99709e-05 -0.148913 0)
(3.78996e-05 -0.148916 0)
(5.46119e-05 -0.148976 0)
(-6.09246e-05 -0.232466 0)
(-4.41196e-05 -0.232376 0)
(2.02522e-05 -0.232372 0)
(8.62959e-06 -0.232373 0)
(6.91832e-06 -0.232375 0)
(3.65315e-06 -0.232375 0)
(2.69643e-06 -0.232375 0)
(1.63525e-06 -0.232375 0)
(1.25631e-06 -0.232375 0)
(8.35524e-07 -0.232376 0)
(6.65525e-07 -0.232376 0)
(4.72188e-07 -0.232376 0)
(3.84561e-07 -0.232376 0)
(2.85835e-07 -0.232376 0)
(2.35544e-07 -0.232376 0)
(1.80962e-07 -0.232376 0)
(1.49859e-07 -0.232376 0)
(1.17733e-07 -0.232376 0)
(9.75221e-08 -0.232376 0)
(7.76135e-08 -0.232376 0)
(6.40058e-08 -0.232376 0)
(5.11379e-08 -0.232376 0)
(4.1706e-08 -0.232376 0)
(3.30098e-08 -0.232376 0)
(2.62709e-08 -0.232376 0)
(2.00865e-08 -0.232376 0)
(1.49856e-08 -0.232376 0)
(1.02396e-08 -0.232376 0)
(6.06011e-09 -0.232376 0)
(1.95542e-09 -0.232376 0)
(-1.94657e-09 -0.232376 0)
(-6.04349e-09 -0.232376 0)
(-1.02558e-08 -0.232376 0)
(-1.49769e-08 -0.232376 0)
(-2.00831e-08 -0.232376 0)
(-2.62868e-08 -0.232376 0)
(-3.30068e-08 -0.232376 0)
(-4.17179e-08 -0.232376 0)
(-5.11573e-08 -0.232376 0)
(-6.40024e-08 -0.232376 0)
(-7.76269e-08 -0.232376 0)
(-9.75383e-08 -0.232376 0)
(-1.1771e-07 -0.232376 0)
(-1.49861e-07 -0.232376 0)
(-1.80994e-07 -0.232376 0)
(-2.35544e-07 -0.232376 0)
(-2.85864e-07 -0.232376 0)
(-3.84602e-07 -0.232376 0)
(-4.7218e-07 -0.232376 0)
(-6.65504e-07 -0.232376 0)
(-8.35499e-07 -0.232376 0)
(-1.25627e-06 -0.232375 0)
(-1.63525e-06 -0.232375 0)
(-2.69645e-06 -0.232375 0)
(-3.65314e-06 -0.232375 0)
(-6.91832e-06 -0.232375 0)
(-8.62958e-06 -0.232373 0)
(-2.02522e-05 -0.232372 0)
(4.41196e-05 -0.232376 0)
(6.09246e-05 -0.232466 0)
(-6.5917e-05 -0.374869 0)
(-4.91325e-05 -0.374719 0)
(2.04311e-05 -0.374713 0)
(9.07459e-06 -0.374713 0)
(7.29687e-06 -0.374715 0)
(3.90417e-06 -0.374715 0)
(2.87916e-06 -0.374715 0)
(1.75777e-06 -0.374716 0)
(1.34834e-06 -0.374716 0)
(9.00577e-07 -0.374716 0)
(7.16084e-07 -0.374716 0)
(5.09603e-07 -0.374716 0)
(4.14363e-07 -0.374716 0)
(3.0866e-07 -0.374716 0)
(2.54009e-07 -0.374716 0)
(1.95451e-07 -0.374716 0)
(1.61684e-07 -0.374716 0)
(1.27157e-07 -0.374716 0)
(1.0524e-07 -0.374716 0)
(8.38156e-08 -0.374716 0)
(6.90749e-08 -0.374716 0)
(5.52119e-08 -0.374716 0)
(4.5006e-08 -0.374716 0)
(3.56325e-08 -0.374716 0)
(2.83454e-08 -0.374716 0)
(2.16771e-08 -0.374716 0)
(1.61668e-08 -0.374716 0)
(1.1049e-08 -0.374716 0)
(6.53501e-09 -0.374716 0)
(2.11004e-09 -0.374716 0)
(-2.10037e-09 -0.374716 0)
(-6.5195e-09 -0.374716 0)
(-1.10662e-08 -0.374716 0)
(-1.61562e-08 -0.374716 0)
(-2.1673e-08 -0.374716 0)
(-2.83612e-08 -0.374716 0)
(-3.56277e-08 -0.374716 0)
(-4.50174e-08 -0.374716 0)
(-5.52323e-08 -0.374716 0)
(-6.90705e-08 -0.374716 0)
(-8.38281e-08 -0.374716 0)
(-1.05256e-07 -0.374716 0)
(-1.27134e-07 -0.374716 0)
(-1.61686e-07 -0.374716 0)
(-1.95483e-07 -0.374716 0)
(-2.54008e-07 -0.374716 0)
(-3.08689e-07 -0.374716 0)
(-4.14405e-07 -0.374716 0)
(-5.09594e-07 -0.374716 0)
(-7.16064e-07 -0.374716 0)
(-9.00553e-07 -0.374716 0)
(-1.3483e-06 -0.374716 0)
(-1.75777e-06 -0.374716 0)
(-2.87919e-06 -0.374715 0)
(-3.90416e-06 -0.374715 0)
(-7.29687e-06 -0.374715 0)
(-9.07458e-06 -0.374713 0)
(-2.04311e-05 -0.374713 0)
(4.91325e-05 -0.374719 0)
(6.5917e-05 -0.374869 0)
(-6.86239e-05 -0.595628 0)
(-5.19656e-05 -0.595376 0)
(2.05192e-05 -0.59537 0)
(9.5172e-06 -0.595367 0)
(7.65832e-06 -0.59537 0)
(4.15329e-06 -0.59537 0)
(3.06097e-06 -0.595371 0)
(1.88146e-06 -0.595371 0)
(1.44127e-06 -0.595371 0)
(9.66792e-07 -0.595371 0)
(7.67492e-07 -0.595371 0)
(5.47842e-07 -0.595371 0)
(4.44779e-07 -0.595371 0)
(3.32039e-07 -0.595371 0)
(2.72897e-07 -0.595371 0)
(2.10308e-07 -0.595371 0)
(1.73796e-07 -0.595371 0)
(1.36828e-07 -0.595371 0)
(1.13153e-07 -0.595371 0)
(9.01825e-08 -0.595371 0)
(7.42756e-08 -0.595371 0)
(5.93949e-08 -0.595371 0)
(4.83927e-08 -0.595371 0)
(3.83259e-08 -0.595371 0)
(3.04749e-08 -0.595371 0)
(2.33106e-08 -0.595371 0)
(1.73796e-08 -0.595371 0)
(1.18803e-08 -0.595371 0)
(7.02239e-09 -0.595371 0)
(2.26902e-09 -0.595371 0)
(-2.25873e-09 -0.595371 0)
(-7.00809e-09 -0.595371 0)
(-1.18979e-08 -0.595371 0)
(-1.73675e-08 -0.595371 0)
(-2.33057e-08 -0.595371 0)
(-3.04899e-08 -0.595371 0)
(-3.83195e-08 -0.595371 0)
(-4.84036e-08 -0.595371 0)
(-5.94158e-08 -0.595371 0)
(-7.42705e-08 -0.595371 0)
(-9.0194e-08 -0.595371 0)
(-1.13169e-07 -0.595371 0)
(-1.36805e-07 -0.595371 0)
(-1.73799e-07 -0.595371 0)
(-2.1034e-07 -0.595371 0)
(-2.72896e-07 -0.595371 0)
(-3.32067e-07 -0.595371 0)
(-4.44821e-07 -0.595371 0)
(-5.47833e-07 -0.595371 0)
(-7.67474e-07 -0.595371 0)
(-9.6677e-07 -0.595371 0)
(-1.44123e-06 -0.595371 0)
(-1.88146e-06 -0.595371 0)
(-3.061e-06 -0.595371 0)
(-4.15328e-06 -0.59537 0)
(-7.65832e-06 -0.59537 0)
(-9.51719e-06 -0.595367 0)
(-2.05192e-05 -0.59537 0)
(5.19656e-05 -0.595376 0)
(6.86239e-05 -0.595628 0)
(-6.77531e-05 -0.892837 0)
(-5.13177e-05 -0.892441 0)
(2.05288e-05 -0.892434 0)
(9.95967e-06 -0.89243 0)
(8.00099e-06 -0.892432 0)
(4.39959e-06 -0.892433 0)
(3.24136e-06 -0.892433 0)
(2.00607e-06 -0.892433 0)
(1.53497e-06 -0.892433 0)
(1.0341e-06 -0.892433 0)
(8.19715e-07 -0.892433 0)
(5.86889e-07 -0.892433 0)
(4.75804e-07 -0.892433 0)
(3.55969e-07 -0.892433 0)
(2.9221e-07 -0.892433 0)
(2.25537e-07 -0.892434 0)
(1.86201e-07 -0.892434 0)
(1.4675e-07 -0.892434 0)
(1.21266e-07 -0.892434 0)
(9.67178e-08 -0.892434 0)
(7.96112e-08 -0.892434 0)
(6.36901e-08 -0.892434 0)
(5.1869e-08 -0.892434 0)
(4.10923e-08 -0.892434 0)
(3.26611e-08 -0.892434 0)
(2.49885e-08 -0.892434 0)
(1.8625e-08 -0.892434 0)
(1.27343e-08 -0.892434 0)
(7.52283e-09 -0.892434 0)
(2.43264e-09 -0.892434 0)
(-2.42206e-09 -0.892434 0)
(-7.50979e-09 -0.892434 0)
(-1.27515e-08 -0.892434 0)
(-1.86121e-08 -0.892434 0)
(-2.49828e-08 -0.892434 0)
(-3.26747e-08 -0.892434 0)
(-4.10849e-08 -0.892434 0)
(-5.18792e-08 -0.892434 0)
(-6.37106e-08 -0.892434 0)
(-7.96062e-08 -0.892434 0)