/*--------------------------------*- C++ -*----------------------------------*\
| =========                 |                                                 |
| \\      /  F ield         | foam-extend: Open Source CFD                    |
|  \\    /   O peration     | Version:     4.0                                |
|   \\  /    A nd           | Web:         http://www.foam-extend.org         |
|    \\/     M anipulation  |                                                 |
\*---------------------------------------------------------------------------*/
FoamFile
{
    version     2.0;
    format      ascii;
    class       volScalarField;
    location    "280";
    object      psiE;
}
// * * * * * * * * * * * * * * * * * * * * * * * * * * * * * * * * * * * * * //

dimensions      [0 0 0 0 0 0 0];

internalField   nonuniform List<scalar> 
6960
(
0.361264
0.361282
0.3613
0.361315
0.361328
0.361338
0.361346
0.361352
0.361357
0.36136
0.361363
0.361366
0.361367
0.361369
0.36137
0.361371
0.361372
0.361373
0.361374
0.361374
0.361375
0.361375
0.361376
0.361376
0.361376
0.361377
0.361377
0.361377
0.361377
0.361377
0.361377
0.361377
0.361377
0.361377
0.361377
0.361376
0.361376
0.361376
0.361375
0.361375
0.361374
0.361374
0.361373
0.361372
0.361371
0.36137
0.361369
0.361367
0.361366
0.361363
0.36136
0.361357
0.361352
0.361346
0.361338
0.361328
0.361315
0.3613
0.361282
0.361264
0.946714
0.946786
0.946859
0.946922
0.946973
0.947014
0.947045
0.947069
0.947088
0.947102
0.947114
0.947122
0.94713
0.947135
0.94714
0.947144
0.947147
0.94715
0.947152
0.947154
0.947156
0.947157
0.947158
0.947159
0.94716
0.947161
0.947162
0.947162
0.947162
0.947162
0.947162
0.947162
0.947162
0.947162
0.947161
0.94716
0.947159
0.947158
0.947157
0.947156
0.947154
0.947152
0.94715
0.947147
0.947144
0.94714
0.947135
0.94713
0.947122
0.947114
0.947102
0.947088
0.947069
0.947045
0.947014
0.946973
0.946922
0.946859
0.946786
0.946714
1.50659
1.50672
1.50687
1.50699
1.50708
1.50716
1.50722
1.50727
1.5073
1.50733
1.50735
1.50737
1.50738
1.50739
1.5074
1.50741
1.50741
1.50742
1.50742
1.50743
1.50743
1.50743
1.50743
1.50743
1.50744
1.50744
1.50744
1.50744
1.50744
1.50744
1.50744
1.50744
1.50744
1.50744
1.50744
1.50744
1.50743
1.50743
1.50743
1.50743
1.50743
1.50742
1.50742
1.50741
1.50741
1.5074
1.50739
1.50738
1.50737
1.50735
1.50733
1.5073
1.50727
1.50722
1.50716
1.50708
1.50699
1.50687
1.50672
1.50659
2.06666
2.06687
2.06709
2.06727
2.06742
2.06753
2.06763
2.0677
2.06775
2.06779
2.06782
2.06785
2.06787
2.06788
2.0679
2.06791
2.06792
2.06792
2.06793
2.06793
2.06794
2.06794
2.06795
2.06795
2.06795
2.06795
2.06795
2.06795
2.06795
2.06796
2.06796
2.06795
2.06795
2.06795
2.06795
2.06795
2.06795
2.06795
2.06794
2.06794
2.06793
2.06793
2.06792
2.06792
2.06791
2.0679
2.06788
2.06787
2.06785
2.06782
2.06779
2.06775
2.0677
2.06763
2.06753
2.06742
2.06727
2.06709
2.06687
2.06666
2.63423
2.63451
2.6348
2.63505
2.63525
2.63541
2.63553
2.63563
2.6357
2.63576
2.6358
2.63583
2.63586
2.63588
2.6359
2.63591
2.63592
2.63593
2.63594
2.63595
2.63595
2.63596
2.63596
2.63597
2.63597
2.63597
2.63597
2.63597
2.63597
2.63598
2.63598
2.63597
2.63597
2.63597
2.63597
2.63597
2.63597
2.63596
2.63596
2.63595
2.63595
2.63594
2.63593
2.63592
2.63591
2.6359
2.63588
2.63586
2.63583
2.6358
2.63576
2.6357
2.63563
2.63553
2.63541
2.63525
2.63505
2.6348
2.63451
2.63423
3.21128
3.21163
3.212
3.21231
3.21257
3.21277
3.21293
3.21305
3.21314
3.21321
3.21326
3.21331
3.21334
3.21337
3.21339
3.21341
3.21342
3.21343
3.21344
3.21345
3.21346
3.21346
3.21347
3.21347
3.21348
3.21348
3.21348
3.21348
3.21349
3.21349
3.21349
3.21349
3.21348
3.21348
3.21348
3.21348
3.21347
3.21347
3.21346
3.21346
3.21345
3.21344
3.21343
3.21342
3.21341
3.21339
3.21337
3.21334
3.21331
3.21326
3.21321
3.21314
3.21305
3.21293
3.21277
3.21257
3.21231
3.212
3.21163
3.21128
3.79824
3.79867
3.79911
3.79949
3.7998
3.80004
3.80023
3.80038
3.80049
3.80058
3.80064
3.80069
3.80073
3.80077
3.80079
3.80081
3.80083
3.80085
3.80086
3.80087
3.80088
3.80088
3.80089
3.8009
3.8009
3.8009
3.80091
3.80091
3.80091
3.80091
3.80091
3.80091
3.80091
3.80091
3.8009
3.8009
3.8009
3.80089
3.80088
3.80088
3.80087
3.80086
3.80085
3.80083
3.80081
3.80079
3.80077
3.80073
3.80069
3.80064
3.80058
3.80049
3.80038
3.80023
3.80004
3.7998
3.79949
3.79911
3.79867
3.79824
4.39506
4.39556
4.39608
4.39653
4.39689
4.39717
4.3974
4.39757
4.3977
4.3978
4.39788
4.39794
4.39799
4.39802
4.39805
4.39808
4.3981
4.39812
4.39813
4.39814
4.39815
4.39816
4.39817
4.39818
4.39818
4.39819
4.39819
4.39819
4.39819
4.39819
4.39819
4.39819
4.39819
4.39819
4.39819
4.39818
4.39818
4.39817
4.39816
4.39815
4.39814
4.39813
4.39812
4.3981
4.39808
4.39805
4.39802
4.39799
4.39794
4.39788
4.3978
4.3977
4.39757
4.3974
4.39717
4.39689
4.39653
4.39608
4.39556
4.39506
5.00151
5.00208
5.00268
5.00319
5.00361
5.00394
5.00419
5.00439
5.00454
5.00466
5.00475
5.00482
5.00487
5.00491
5.00495
5.00498
5.005
5.00502
5.00504
5.00505
5.00506
5.00507
5.00508
5.00509
5.0051
5.0051
5.0051
5.00511
5.00511
5.00511
5.00511
5.00511
5.00511
5.0051
5.0051
5.0051
5.00509
5.00508
5.00507
5.00506
5.00505
5.00504
5.00502
5.005
5.00498
5.00495
5.00491
5.00487
5.00482
5.00475
5.00466
5.00454
5.00439
5.00419
5.00394
5.00361
5.00319
5.00268
5.00208
5.00151
5.61728
5.61792
5.6186
5.61918
5.61965
5.62002
5.62031
5.62053
5.6207
5.62083
5.62093
5.62101
5.62108
5.62112
5.62116
5.6212
5.62122
5.62125
5.62126
5.62128
5.62129
5.6213
5.62131
5.62132
5.62133
5.62133
5.62134
5.62134
5.62134
5.62134
5.62134
5.62134
5.62134
5.62134
5.62133
5.62133
5.62132
5.62131
5.6213
5.62129
5.62128
5.62126
5.62125
5.62122
5.6212
5.62116
5.62112
5.62108
5.62101
5.62093
5.62083
5.6207
5.62053
5.62031
5.62002
5.61965
5.61918
5.6186
5.61792
5.61728
6.24198
6.2427
6.24346
6.2441
6.24462
6.24504
6.24536
6.24561
6.2458
6.24594
6.24606
6.24614
6.24621
6.24627
6.24631
6.24635
6.24638
6.2464
6.24642
6.24644
6.24646
6.24647
6.24648
6.24649
6.2465
6.2465
6.24651
6.24651
6.24651
6.24651
6.24651
6.24651
6.24651
6.24651
6.2465
6.2465
6.24649
6.24648
6.24647
6.24646
6.24644
6.24642
6.2464
6.24638
6.24635
6.24631
6.24627
6.24621
6.24614
6.24606
6.24594
6.2458
6.24561
6.24536
6.24504
6.24462
6.2441
6.24346
6.2427
6.24198
6.87517
6.87596
6.87679
6.8775
6.87808
6.87853
6.87888
6.87916
6.87937
6.87953
6.87965
6.87975
6.87983
6.87989
6.87994
6.87998
6.88001
6.88004
6.88006
6.88008
6.8801
6.88011
6.88012
6.88013
6.88014
6.88015
6.88015
6.88016
6.88016
6.88016
6.88016
6.88016
6.88016
6.88015
6.88015
6.88014
6.88013
6.88012
6.88011
6.8801
6.88008
6.88006
6.88004
6.88001
6.87998
6.87994
6.87989
6.87983
6.87975
6.87965
6.87953
6.87937
6.87916
6.87888
6.87853
6.87808
6.8775
6.87679
6.87596
6.87517
7.51631
7.51717
7.51807
7.51884
7.51947
7.51997
7.52035
7.52065
7.52088
7.52105
7.52119
7.5213
7.52138
7.52145
7.5215
7.52154
7.52158
7.52161
7.52164
7.52166
7.52168
7.52169
7.5217
7.52172
7.52172
7.52173
7.52174
7.52174
7.52174
7.52175
7.52175
7.52174
7.52174
7.52174
7.52173
7.52172
7.52172
7.5217
7.52169
7.52168
7.52166
7.52164
7.52161
7.52158
7.52154
7.5215
7.52145
7.52138
7.5213
7.52119
7.52105
7.52088
7.52065
7.52035
7.51997
7.51947
7.51884
7.51807
7.51717
7.51631
8.16476
8.16569
8.16666
8.1675
8.16818
8.16872
8.16913
8.16945
8.1697
8.16989
8.17004
8.17016
8.17025
8.17032
8.17038
8.17043
8.17047
8.1705
8.17053
8.17055
8.17057
8.17059
8.1706
8.17061
8.17062
8.17063
8.17064
8.17064
8.17065
8.17065
8.17065
8.17065
8.17064
8.17064
8.17063
8.17062
8.17061
8.1706
8.17059
8.17057
8.17055
8.17053
8.1705
8.17047
8.17043
8.17038
8.17032
8.17025
8.17016
8.17004
8.16989
8.1697
8.16945
8.16913
8.16872
8.16818
8.1675
8.16666
8.16569
8.16476
8.81981
8.82081
8.82186
8.82275
8.82348
8.82406
8.82451
8.82485
8.82512
8.82532
8.82548
8.82561
8.8257
8.82578
8.82585
8.8259
8.82594
8.82598
8.82601
8.82603
8.82605
8.82607
8.82609
8.8261
8.82611
8.82612
8.82613
8.82613
8.82613
8.82614
8.82614
8.82613
8.82613
8.82613
8.82612
8.82611
8.8261
8.82609
8.82607
8.82605
8.82603
8.82601
8.82598
8.82594
8.8259
8.82585
8.82578
8.8257
8.82561
8.82548
8.82532
8.82512
8.82485
8.82451
8.82406
8.82348
8.82275
8.82186
8.82081
8.81981
9.48063
9.48169
9.48281
9.48376
9.48454
9.48515
9.48563
9.486
9.48628
9.4865
9.48667
9.48681
9.48691
9.48699
9.48706
9.48712
9.48716
9.4872
9.48723
9.48726
9.48729
9.48731
9.48732
9.48734
9.48735
9.48736
9.48737
9.48737
9.48737
9.48738
9.48738
9.48737
9.48737
9.48737
9.48736
9.48735
9.48734
9.48732
9.48731
9.48729
9.48726
9.48723
9.4872
9.48716
9.48712
9.48706
9.48699
9.48691
9.48681
9.48667
9.4865
9.48628
9.486
9.48563
9.48515
9.48454
9.48376
9.48281
9.48169
9.48063
10.1462
10.1474
10.1485
10.1496
10.1504
10.151
10.1515
10.1519
10.1522
10.1525
10.1526
10.1528
10.1529
10.153
10.1531
10.1531
10.1532
10.1532
10.1532
10.1533
10.1533
10.1533
10.1533
10.1534
10.1534
10.1534
10.1534
10.1534
10.1534
10.1534
10.1534
10.1534
10.1534
10.1534
10.1534
10.1534
10.1534
10.1533
10.1533
10.1533
10.1533
10.1532
10.1532
10.1532
10.1531
10.1531
10.153
10.1529
10.1528
10.1526
10.1525
10.1522
10.1519
10.1515
10.151
10.1504
10.1496
10.1485
10.1474
10.1462
10.8155
10.8167
10.818
10.819
10.8199
10.8206
10.8211
10.8215
10.8219
10.8221
10.8223
10.8224
10.8226
10.8227
10.8227
10.8228
10.8228
10.8229
10.8229
10.823
10.823
10.823
10.823
10.823
10.8231
10.8231
10.8231
10.8231
10.8231
10.8231
10.8231
10.8231
10.8231
10.8231
10.8231
10.8231
10.823
10.823
10.823
10.823
10.823
10.8229
10.8229
10.8228
10.8228
10.8227
10.8227
10.8226
10.8224
10.8223
10.8221
10.8219
10.8215
10.8211
10.8206
10.8199
10.819
10.818
10.8167
10.8155
11.4873
11.4885
11.4898
11.4909
11.4918
11.4925
11.4931
11.4935
11.4939
11.4941
11.4943
11.4945
11.4946
11.4947
11.4948
11.4949
11.4949
11.495
11.495
11.495
11.4951
11.4951
11.4951
11.4951
11.4951
11.4952
11.4952
11.4952
11.4952
11.4952
11.4952
11.4952
11.4952
11.4952
11.4952
11.4951
11.4951
11.4951
11.4951
11.4951
11.495
11.495
11.495
11.4949
11.4949
11.4948
11.4947
11.4946
11.4945
11.4943
11.4941
11.4939
11.4935
11.4931
11.4925
11.4918
11.4909
11.4898
11.4885
11.4873
12.1599
12.1612
12.1626
12.1637
12.1647
12.1654
12.166
12.1665
12.1668
12.1671
12.1673
12.1675
12.1676
12.1677
12.1678
12.1678
12.1679
12.168
12.168
12.168
12.1681
12.1681
12.1681
12.1681
12.1681
12.1682
12.1682
12.1682
12.1682
12.1682
12.1682
12.1682
12.1682
12.1682
12.1682
12.1681
12.1681
12.1681
12.1681
12.1681
12.168
12.168
12.168
12.1679
12.1678
12.1678
12.1677
12.1676
12.1675
12.1673
12.1671
12.1668
12.1665
12.166
12.1654
12.1647
12.1637
12.1626
12.1612
12.1599
12.8318
12.8332
12.8346
12.8358
12.8368
12.8375
12.8381
12.8386
12.839
12.8393
12.8395
12.8396
12.8398
12.8399
12.84
12.8401
12.8401
12.8402
12.8402
12.8403
12.8403
12.8403
12.8403
12.8404
12.8404
12.8404
12.8404
12.8404
12.8404
12.8404
12.8404
12.8404
12.8404
12.8404
12.8404
12.8404
12.8404
12.8403
12.8403
12.8403
12.8403
12.8402
12.8402
12.8401
12.8401
12.84
12.8399
12.8398
12.8396
12.8395
12.8393
12.839
12.8386
12.8381
12.8375
12.8368
12.8358
12.8346
12.8332
12.8318
13.5011
13.5025
13.5039
13.5051
13.5061
13.5069
13.5076
13.5081
13.5084
13.5087
13.5089
13.5091
13.5093
13.5094
13.5095
13.5096
13.5096
13.5097
13.5097
13.5098
13.5098
13.5098
13.5098
13.5099
13.5099
13.5099
13.5099
13.5099
13.5099
13.5099
13.5099
13.5099
13.5099
13.5099
13.5099
13.5099
13.5099
13.5098
13.5098
13.5098
13.5098
13.5097
13.5097
13.5096
13.5096
13.5095
13.5094
13.5093
13.5091
13.5089
13.5087
13.5084
13.5081
13.5076
13.5069
13.5061
13.5051
13.5039
13.5025
13.5011
14.1654
14.1668
14.1683
14.1695
14.1706
14.1714
14.172
14.1725
14.1729
14.1732
14.1734
14.1736
14.1738
14.1739
14.174
14.1741
14.1741
14.1742
14.1742
14.1743
14.1743
14.1744
14.1744
14.1744
14.1744
14.1744
14.1744
14.1745
14.1745
14.1745
14.1745
14.1745
14.1745
14.1744
14.1744
14.1744
14.1744
14.1744
14.1744
14.1743
14.1743
14.1742
14.1742
14.1741
14.1741
14.174
14.1739
14.1738
14.1736
14.1734
14.1732
14.1729
14.1725
14.172
14.1714
14.1706
14.1695
14.1683
14.1668
14.1654
14.8221
14.8236
14.8251
14.8264
14.8274
14.8283
14.8289
14.8294
14.8298
14.8301
14.8303
14.8305
14.8307
14.8308
14.8309
14.831
14.8311
14.8311
14.8312
14.8312
14.8313
14.8313
14.8313
14.8313
14.8314
14.8314
14.8314
14.8314
14.8314
14.8314
14.8314
14.8314
14.8314
14.8314
14.8314
14.8314
14.8313
14.8313
14.8313
14.8313
14.8312
14.8312
14.8311
14.8311
14.831
14.8309
14.8308
14.8307
14.8305
14.8303
14.8301
14.8298
14.8294
14.8289
14.8283
14.8274
14.8264
14.8251
14.8236
14.8221
15.4683
15.4698
15.4713
15.4726
15.4737
15.4745
15.4752
15.4757
15.4761
15.4764
15.4766
15.4768
15.477
15.4771
15.4772
15.4773
15.4774
15.4774
15.4775
15.4775
15.4776
15.4776
15.4776
15.4777
15.4777
15.4777
15.4777
15.4777
15.4777
15.4777
15.4777
15.4777
15.4777
15.4777
15.4777
15.4777
15.4777
15.4776
15.4776
15.4776
15.4775
15.4775
15.4774
15.4774
15.4773
15.4772
15.4771
15.477
15.4768
15.4766
15.4764
15.4761
15.4757
15.4752
15.4745
15.4737
15.4726
15.4713
15.4698
15.4683
16.1004
16.1019
16.1034
16.1047
16.1057
16.1066
16.1072
16.1078
16.1082
16.1085
16.1087
16.1089
16.1091
16.1092
16.1093
16.1094
16.1095
16.1095
16.1096
16.1096
16.1097
16.1097
16.1098
16.1098
16.1098
16.1098
16.1098
16.1098
16.1099
16.1099
16.1099
16.1099
16.1098
16.1098
16.1098
16.1098
16.1098
16.1098
16.1097
16.1097
16.1096
16.1096
16.1095
16.1095
16.1094
16.1093
16.1092
16.1091
16.1089
16.1087
16.1085
16.1082
16.1078
16.1072
16.1066
16.1057
16.1047
16.1034
16.1019
16.1004
16.7141
16.7156
16.7171
16.7184
16.7195
16.7203
16.721
16.7215
16.7219
16.7222
16.7224
16.7226
16.7228
16.7229
16.723
16.7231
16.7232
16.7233
16.7233
16.7234
16.7234
16.7234
16.7235
16.7235
16.7235
16.7235
16.7236
16.7236
16.7236
16.7236
16.7236
16.7236
16.7236
16.7236
16.7235
16.7235
16.7235
16.7235
16.7234
16.7234
16.7234
16.7233
16.7233
16.7232
16.7231
16.723
16.7229
16.7228
16.7226
16.7224
16.7222
16.7219
16.7215
16.721
16.7203
16.7195
16.7184
16.7171
16.7156
16.7141
17.3046
17.306
17.3075
17.3088
17.3098
17.3106
17.3113
17.3118
17.3122
17.3125
17.3127
17.3129
17.3131
17.3132
17.3133
17.3134
17.3135
17.3136
17.3136
17.3137
17.3137
17.3138
17.3138
17.3138
17.3138
17.3139
17.3139
17.3139
17.3139
17.3139
17.3139
17.3139
17.3139
17.3139
17.3139
17.3138
17.3138
17.3138
17.3138
17.3137
17.3137
17.3136
17.3136
17.3135
17.3134
17.3133
17.3132
17.3131
17.3129
17.3127
17.3125
17.3122
17.3118
17.3113
17.3106
17.3098
17.3088
17.3075
17.306
17.3046
17.8658
17.8672
17.8686
17.8698
17.8708
17.8716
17.8722
17.8727
17.8731
17.8734
17.8736
17.8738
17.874
17.8741
17.8742
17.8743
17.8744
17.8745
17.8745
17.8746
17.8746
17.8747
17.8747
17.8747
17.8748
17.8748
17.8748
17.8748
17.8748
17.8748
17.8748
17.8748
17.8748
17.8748
17.8748
17.8748
17.8747
17.8747
17.8747
17.8746
17.8746
17.8745
17.8745
17.8744
17.8743
17.8742
17.8741
17.874
17.8738
17.8736
17.8734
17.8731
17.8727
17.8722
17.8716
17.8708
17.8698
17.8686
17.8672
17.8658
18.3906
18.3919
18.3932
18.3944
18.3953
18.396
18.3966
18.3971
18.3974
18.3977
18.398
18.3982
18.3983
18.3984
18.3986
18.3987
18.3987
18.3988
18.3989
18.3989
18.399
18.399
18.399
18.3991
18.3991
18.3991
18.3991
18.3992
18.3992
18.3992
18.3992
18.3992
18.3992
18.3991
18.3991
18.3991
18.3991
18.399
18.399
18.399
18.3989
18.3989
18.3988
18.3987
18.3987
18.3986
18.3984
18.3983
18.3982
18.398
18.3977
18.3974
18.3971
18.3966
18.396
18.3953
18.3944
18.3932
18.3919
18.3906
18.8706
18.8718
18.873
18.8741
18.8749
18.8756
18.8761
18.8766
18.8769
18.8772
18.8774
18.8776
18.8777
18.8779
18.878
18.8781
18.8782
18.8782
18.8783
18.8783
18.8784
18.8784
18.8785
18.8785
18.8785
18.8786
18.8786
18.8786
18.8786
18.8786
18.8786
18.8786
18.8786
18.8786
18.8786
18.8785
18.8785
18.8785
18.8784
18.8784
18.8783
18.8783
18.8782
18.8782
18.8781
18.878
18.8779
18.8777
18.8776
18.8774
18.8772
18.8769
18.8766
18.8761
18.8756
18.8749
18.8741
18.873
18.8718
18.8706
19.297
19.2981
19.2991
19.3
19.3008
19.3014
19.3019
19.3023
19.3026
19.3028
19.303
19.3032
19.3033
19.3035
19.3036
19.3037
19.3038
19.3038
19.3039
19.3039
19.304
19.304
19.3041
19.3041
19.3041
19.3042
19.3042
19.3042
19.3042
19.3042
19.3042
19.3042
19.3042
19.3042
19.3042
19.3041
19.3041
19.3041
19.304
19.304
19.3039
19.3039
19.3038
19.3038
19.3037
19.3036
19.3035
19.3033
19.3032
19.303
19.3028
19.3026
19.3023
19.3019
19.3014
19.3008
19.3
19.2991
19.2981
19.297
19.662
19.6628
19.6637
19.6645
19.6651
19.6656
19.666
19.6664
19.6666
19.6669
19.667
19.6672
19.6673
19.6675
19.6676
19.6677
19.6677
19.6678
19.6679
19.6679
19.668
19.668
19.6681
19.6681
19.6681
19.6682
19.6682
19.6682
19.6682
19.6682
19.6682
19.6682
19.6682
19.6682
19.6682
19.6681
19.6681
19.6681
19.668
19.668
19.6679
19.6679
19.6678
19.6677
19.6677
19.6676
19.6675
19.6673
19.6672
19.667
19.6669
19.6666
19.6664
19.666
19.6656
19.6651
19.6645
19.6637
19.6628
19.662
19.9614
19.9621
19.9628
19.9634
19.9639
19.9643
19.9646
19.9649
19.9651
19.9653
19.9655
19.9656
19.9658
19.9659
19.966
19.9661
19.9661
19.9662
19.9663
19.9663
19.9664
19.9664
19.9665
19.9665
19.9665
19.9666
19.9666
19.9666
19.9666
19.9666
19.9666
19.9666
19.9666
19.9666
19.9666
19.9665
19.9665
19.9665
19.9664
19.9664
19.9663
19.9663
19.9662
19.9661
19.9661
19.966
19.9659
19.9658
19.9656
19.9655
19.9653
19.9651
19.9649
19.9646
19.9643
19.9639
19.9634
19.9628
19.9621
19.9614
20.1974
20.1979
20.1984
20.1988
20.1992
20.1995
20.1998
20.2
20.2002
20.2004
20.2005
20.2007
20.2008
20.2009
20.201
20.2011
20.2012
20.2012
20.2013
20.2014
20.2014
20.2015
20.2015
20.2015
20.2016
20.2016
20.2016
20.2016
20.2016
20.2016
20.2016
20.2016
20.2016
20.2016
20.2016
20.2016
20.2015
20.2015
20.2015
20.2014
20.2014
20.2013
20.2012
20.2012
20.2011
20.201
20.2009
20.2008
20.2007
20.2005
20.2004
20.2002
20.2
20.1998
20.1995
20.1992
20.1988
20.1984
20.1979
20.1974
20.3782
20.3785
20.3788
20.3792
20.3794
20.3797
20.3799
20.3801
20.3802
20.3804
20.3805
20.3806
20.3807
20.3808
20.3809
20.381
20.3811
20.3812
20.3812
20.3813
20.3814
20.3814
20.3814
20.3815
20.3815
20.3815
20.3816
20.3816
20.3816
20.3816
20.3816
20.3816
20.3816
20.3816
20.3815
20.3815
20.3815
20.3814
20.3814
20.3814
20.3813
20.3812
20.3812
20.3811
20.381
20.3809
20.3808
20.3807
20.3806
20.3805
20.3804
20.3802
20.3801
20.3799
20.3797
20.3794
20.3792
20.3788
20.3785
20.3782
20.5154
20.5156
20.5158
20.516
20.5162
20.5164
20.5166
20.5167
20.5169
20.517
20.5171
20.5172
20.5173
20.5174
20.5175
20.5176
20.5177
20.5178
20.5178
20.5179
20.518
20.518
20.5181
20.5181
20.5181
20.5182
20.5182
20.5182
20.5182
20.5182
20.5182
20.5182
20.5182
20.5182
20.5182
20.5181
20.5181
20.5181
20.518
20.518
20.5179
20.5178
20.5178
20.5177
20.5176
20.5175
20.5174
20.5173
20.5172
20.5171
20.517
20.5169
20.5167
20.5166
20.5164
20.5162
20.516
20.5158
20.5156
20.5154
20.6207
20.6208
20.621
20.6211
20.6213
20.6214
20.6215
20.6217
20.6218
20.6219
20.622
20.6221
20.6222
20.6223
20.6224
20.6225
20.6226
20.6227
20.6227
20.6228
20.6229
20.6229
20.623
20.623
20.623
20.6231
20.6231
20.6231
20.6231
20.6231
20.6231
20.6231
20.6231
20.6231
20.6231
20.623
20.623
20.623
20.6229
20.6229
20.6228
20.6227
20.6227
20.6226
20.6225
20.6224
20.6223
20.6222
20.6221
20.622
20.6219
20.6218
20.6217
20.6215
20.6214
20.6213
20.6211
20.621
20.6208
20.6207
20.7035
20.7036
20.7037
20.7038
20.7039
20.704
20.7041
20.7042
20.7043
20.7044
20.7045
20.7047
20.7048
20.7049
20.7049
20.705
20.7051
20.7052
20.7053
20.7053
20.7054
20.7055
20.7055
20.7055
20.7056
20.7056
20.7056
20.7057
20.7057
20.7057
20.7057
20.7057
20.7057
20.7056
20.7056
20.7056
20.7055
20.7055
20.7055
20.7054
20.7053
20.7053
20.7052
20.7051
20.705
20.7049
20.7049
20.7048
20.7047
20.7045
20.7044
20.7043
20.7042
20.7041
20.704
20.7039
20.7038
20.7037
20.7036
20.7035
20.7705
20.7705
20.7705
20.7706
20.7707
20.7708
20.7709
20.771
20.7711
20.7712
20.7713
20.7714
20.7715
20.7716
20.7717
20.7718
20.7719
20.772
20.772
20.7721
20.7722
20.7722
20.7723
20.7723
20.7724
20.7724
20.7724
20.7724
20.7724
20.7724
20.7724
20.7724
20.7724
20.7724
20.7724
20.7724
20.7723
20.7723
20.7722
20.7722
20.7721
20.772
20.772
20.7719
20.7718
20.7717
20.7716
20.7715
20.7714
20.7713
20.7712
20.7711
20.771
20.7709
20.7708
20.7707
20.7706
20.7705
20.7705
20.7705
20.8259
20.8259
20.8259
20.826
20.826
20.8261
20.8262
20.8263
20.8264
20.8265
20.8266
20.8267
20.8268
20.8269
20.827
20.8271
20.8272
20.8272
20.8273
20.8274
20.8275
20.8275
20.8276
20.8276
20.8277
20.8277
20.8277
20.8277
20.8277
20.8278
20.8278
20.8277
20.8277
20.8277
20.8277
20.8277
20.8276
20.8276
20.8275
20.8275
20.8274
20.8273
20.8272
20.8272
20.8271
20.827
20.8269
20.8268
20.8267
20.8266
20.8265
20.8264
20.8263
20.8262
20.8261
20.826
20.826
20.8259
20.8259
20.8259
20.8726
20.8725
20.8726
20.8726
20.8726
20.8727
20.8728
20.8729
20.873
20.8731
20.8732
20.8733
20.8734
20.8735
20.8736
20.8737
20.8738
20.8739
20.8739
20.874
20.8741
20.8741
20.8742
20.8742
20.8743
20.8743
20.8743
20.8744
20.8744
20.8744
20.8744
20.8744
20.8744
20.8743
20.8743
20.8743
20.8742
20.8742
20.8741
20.8741
20.874
20.8739
20.8739
20.8738
20.8737
20.8736
20.8735
20.8734
20.8733
20.8732
20.8731
20.873
20.8729
20.8728
20.8727
20.8726
20.8726
20.8726
20.8725
20.8726
20.9123
20.9123
20.9123
20.9123
20.9124
20.9124
20.9125
20.9126
20.9127
20.9128
20.9129
20.913
20.9131
20.9132
20.9133
20.9134
20.9135
20.9136
20.9137
20.9137
20.9138
20.9139
20.9139
20.914
20.914
20.9141
20.9141
20.9141
20.9141
20.9141
20.9141
20.9141
20.9141
20.9141
20.9141
20.914
20.914
20.9139
20.9139
20.9138
20.9137
20.9137
20.9136
20.9135
20.9134
20.9133
20.9132
20.9131
20.913
20.9129
20.9128
20.9127
20.9126
20.9125
20.9124
20.9124
20.9123
20.9123
20.9123
20.9123
20.9465
20.9465
20.9465
20.9465
20.9465
20.9465
20.9466
20.9467
20.9468
20.9469
20.947
20.9471
20.9472
20.9473
20.9474
20.9475
20.9476
20.9477
20.9478
20.9479
20.9479
20.948
20.9481
20.9481
20.9482
20.9482
20.9482
20.9483
20.9483
20.9483
20.9483
20.9483
20.9483
20.9482
20.9482
20.9482
20.9481
20.9481
20.948
20.9479
20.9479
20.9478
20.9477
20.9476
20.9475
20.9474
20.9473
20.9472
20.9471
20.947
20.9469
20.9468
20.9467
20.9466
20.9465
20.9465
20.9465
20.9465
20.9465
20.9465
20.9759
20.9759
20.9759
20.9759
20.9759
20.9759
20.976
20.9761
20.9762
20.9763
20.9764
20.9765
20.9766
20.9767
20.9768
20.9769
20.977
20.9771
20.9772
20.9773
20.9774
20.9774
20.9775
20.9775
20.9776
20.9776
20.9776
20.9777
20.9777
20.9777
20.9777
20.9777
20.9777
20.9776
20.9776
20.9776
20.9775
20.9775
20.9774
20.9774
20.9773
20.9772
20.9771
20.977
20.9769
20.9768
20.9767
20.9766
20.9765
20.9764
20.9763
20.9762
20.9761
20.976
20.9759
20.9759
20.9759
20.9759
20.9759
20.9759
21.0013
21.0012
21.0012
21.0012
21.0012
21.0012
21.0013
21.0014
21.0015
21.0016
21.0017
21.0018
21.0019
21.002
21.0021
21.0022
21.0023
21.0024
21.0025
21.0026
21.0027
21.0028
21.0028
21.0029
21.0029
21.003
21.003
21.003
21.003
21.0031
21.0031
21.003
21.003
21.003
21.003
21.0029
21.0029
21.0028
21.0028
21.0027
21.0026
21.0025
21.0024
21.0023
21.0022
21.0021
21.002
21.0019
21.0018
21.0017
21.0016
21.0015
21.0014
21.0013
21.0012
21.0012
21.0012
21.0012
21.0012
21.0013
21.023
21.023
21.023
21.0229
21.023
21.023
21.023
21.0231
21.0232
21.0233
21.0234
21.0235
21.0237
21.0238
21.0239
21.024
21.0241
21.0242
21.0243
21.0244
21.0245
21.0246
21.0246
21.0247
21.0247
21.0248
21.0248
21.0248
21.0248
21.0249
21.0249
21.0248
21.0248
21.0248
21.0248
21.0247
21.0247
21.0246
21.0246
21.0245
21.0244
21.0243
21.0242
21.0241
21.024
21.0239
21.0238
21.0237
21.0235
21.0234
21.0233
21.0232
21.0231
21.023
21.023
21.023
21.0229
21.023
21.023
21.023
21.0417
21.0416
21.0416
21.0415
21.0415
21.0416
21.0416
21.0417
21.0418
21.0419
21.042
21.0421
21.0423
21.0424
21.0425
21.0426
21.0427
21.0428
21.0429
21.043
21.0431
21.0432
21.0433
21.0433
21.0434
21.0434
21.0434
21.0435
21.0435
21.0435
21.0435
21.0435
21.0435
21.0434
21.0434
21.0434
21.0433
21.0433
21.0432
21.0431
21.043
21.0429
21.0428
21.0427
21.0426
21.0425
21.0424
21.0423
21.0421
21.042
21.0419
21.0418
21.0417
21.0416
21.0416
21.0415
21.0415
21.0416
21.0416
21.0417
21.0574
21.0573
21.0573
21.0573
21.0573
21.0573
21.0573
21.0574
21.0575
21.0576
21.0577
21.0579
21.058
21.0581
21.0582
21.0584
21.0585
21.0586
21.0587
21.0588
21.0589
21.0589
21.059
21.0591
21.0591
21.0592
21.0592
21.0592
21.0593
21.0593
21.0593
21.0593
21.0592
21.0592
21.0592
21.0591
21.0591
21.059
21.0589
21.0589
21.0588
21.0587
21.0586
21.0585
21.0584
21.0582
21.0581
21.058
21.0579
21.0577
21.0576
21.0575
21.0574
21.0573
21.0573
21.0573
21.0573
21.0573
21.0573
21.0574
21.0705
21.0705
21.0704
21.0704
21.0704
21.0704
21.0705
21.0705
21.0706
21.0707
21.0709
21.071
21.0711
21.0712
21.0714
21.0715
21.0716
21.0717
21.0718
21.0719
21.072
21.0721
21.0722
21.0722
21.0723
21.0723
21.0724
21.0724
21.0724
21.0724
21.0724
21.0724
21.0724
21.0724
21.0723
21.0723
21.0722
21.0722
21.0721
21.072
21.0719
21.0718
21.0717
21.0716
21.0715
21.0714
21.0712
21.0711
21.071
21.0709
21.0707
21.0706
21.0705
21.0705
21.0704
21.0704
21.0704
21.0704
21.0705
21.0705
21.0812
21.0812
21.0811
21.0811
21.0811
21.0811
21.0811
21.0812
21.0813
21.0814
21.0816
21.0817
21.0818
21.082
21.0821
21.0822
21.0823
21.0825
21.0826
21.0827
21.0828
21.0828
21.0829
21.083
21.083
21.0831
21.0831
21.0831
21.0832
21.0832
21.0832
21.0832
21.0831
21.0831
21.0831
21.083
21.083
21.0829
21.0828
21.0828
21.0827
21.0826
21.0825
21.0823
21.0822
21.0821
21.082
21.0818
21.0817
21.0816
21.0814
21.0813
21.0812
21.0811
21.0811
21.0811
21.0811
21.0811
21.0812
21.0812
21.0897
21.0896
21.0895
21.0895
21.0895
21.0895
21.0896
21.0897
21.0898
21.0899
21.09
21.0901
21.0903
21.0904
21.0905
21.0907
21.0908
21.0909
21.091
21.0911
21.0912
21.0913
21.0914
21.0915
21.0915
21.0916
21.0916
21.0916
21.0917
21.0917
21.0917
21.0917
21.0916
21.0916
21.0916
21.0915
21.0915
21.0914
21.0913
21.0912
21.0911
21.091
21.0909
21.0908
21.0907
21.0905
21.0904
21.0903
21.0901
21.09
21.0899
21.0898
21.0897
21.0896
21.0895
21.0895
21.0895
21.0895
21.0896
21.0897
21.096
21.0959
21.0958
21.0958
21.0958
21.0958
21.0959
21.096
21.0961
21.0962
21.0963
21.0964
21.0966
21.0967
21.0969
21.097
21.0971
21.0973
21.0974
21.0975
21.0976
21.0977
21.0978
21.0978
21.0979
21.0979
21.098
21.098
21.098
21.098
21.098
21.098
21.098
21.098
21.0979
21.0979
21.0978
21.0978
21.0977
21.0976
21.0975
21.0974
21.0973
21.0971
21.097
21.0969
21.0967
21.0966
21.0964
21.0963
21.0962
21.0961
21.096
21.0959
21.0958
21.0958
21.0958
21.0958
21.0959
21.096
21.1003
21.1002
21.1001
21.1001
21.1001
21.1001
21.1001
21.1002
21.1003
21.1005
21.1006
21.1007
21.1009
21.101
21.1012
21.1013
21.1015
21.1016
21.1017
21.1018
21.1019
21.102
21.1021
21.1022
21.1022
21.1023
21.1023
21.1024
21.1024
21.1024
21.1024
21.1024
21.1024
21.1023
21.1023
21.1022
21.1022
21.1021
21.102
21.1019
21.1018
21.1017
21.1016
21.1015
21.1013
21.1012
21.101
21.1009
21.1007
21.1006
21.1005
21.1003
21.1002
21.1001
21.1001
21.1001
21.1001
21.1001
21.1002
21.1003
21.1026
21.1025
21.1024
21.1024
21.1024
21.1024
21.1025
21.1025
21.1027
21.1028
21.1029
21.1031
21.1032
21.1034
21.1035
21.1037
21.1038
21.1039
21.1041
21.1042
21.1043
21.1044
21.1045
21.1046
21.1046
21.1047
21.1047
21.1047
21.1048
21.1048
21.1048
21.1048
21.1047
21.1047
21.1047
21.1046
21.1046
21.1045
21.1044
21.1043
21.1042
21.1041
21.1039
21.1038
21.1037
21.1035
21.1034
21.1032
21.1031
21.1029
21.1028
21.1027
21.1025
21.1025
21.1024
21.1024
21.1024
21.1024
21.1025
21.1026
21.1031
21.103
21.1029
21.1028
21.1028
21.1028
21.1029
21.103
21.1031
21.1032
21.1034
21.1035
21.1037
21.1038
21.104
21.1041
21.1043
21.1044
21.1045
21.1047
21.1048
21.1049
21.105
21.105
21.1051
21.1052
21.1052
21.1052
21.1053
21.1053
21.1053
21.1053
21.1052
21.1052
21.1052
21.1051
21.105
21.105
21.1049
21.1048
21.1047
21.1045
21.1044
21.1043
21.1041
21.104
21.1038
21.1037
21.1035
21.1034
21.1032
21.1031
21.103
21.1029
21.1028
21.1028
21.1028
21.1029
21.103
21.1031
21.1016
21.1015
21.1014
21.1014
21.1014
21.1014
21.1014
21.1015
21.1016
21.1018
21.1019
21.1021
21.1022
21.1024
21.1026
21.1027
21.1029
21.103
21.1032
21.1033
21.1034
21.1035
21.1036
21.1037
21.1037
21.1038
21.1038
21.1039
21.1039
21.1039
21.1039
21.1039
21.1039
21.1038
21.1038
21.1037
21.1037
21.1036
21.1035
21.1034
21.1033
21.1032
21.103
21.1029
21.1027
21.1026
21.1024
21.1022
21.1021
21.1019
21.1018
21.1016
21.1015
21.1014
21.1014
21.1014
21.1014
21.1014
21.1015
21.1016
21.0984
21.0983
21.0982
21.0981
21.0981
21.0981
21.0982
21.0983
21.0984
21.0985
21.0987
21.0988
21.099
21.0992
21.0993
21.0995
21.0997
21.0998
21.0999
21.1001
21.1002
21.1003
21.1004
21.1005
21.1005
21.1006
21.1006
21.1007
21.1007
21.1007
21.1007
21.1007
21.1007
21.1006
21.1006
21.1005
21.1005
21.1004
21.1003
21.1002
21.1001
21.0999
21.0998
21.0997
21.0995
21.0993
21.0992
21.099
21.0988
21.0987
21.0985
21.0984
21.0983
21.0982
21.0981
21.0981
21.0981
21.0982
21.0983
21.0984
21.0933
21.0931
21.093
21.093
21.093
21.093
21.0931
21.0931
21.0933
21.0934
21.0936
21.0937
21.0939
21.0941
21.0943
21.0944
21.0946
21.0947
21.0949
21.095
21.0951
21.0953
21.0953
21.0954
21.0955
21.0956
21.0956
21.0957
21.0957
21.0957
21.0957
21.0957
21.0957
21.0956
21.0956
21.0955
21.0954
21.0953
21.0953
21.0951
21.095
21.0949
21.0947
21.0946
21.0944
21.0943
21.0941
21.0939
21.0937
21.0936
21.0934
21.0933
21.0931
21.0931
21.093
21.093
21.093
21.093
21.0931
21.0933
21.0863
21.0862
21.0861
21.086
21.086
21.086
21.0861
21.0862
21.0863
21.0865
21.0866
21.0868
21.087
21.0872
21.0873
21.0875
21.0877
21.0878
21.088
21.0881
21.0883
21.0884
21.0885
21.0886
21.0886
21.0887
21.0887
21.0888
21.0888
21.0888
21.0888
21.0888
21.0888
21.0887
21.0887
21.0886
21.0886
21.0885
21.0884
21.0883
21.0881
21.088
21.0878
21.0877
21.0875
21.0873
21.0872
21.087
21.0868
21.0866
21.0865
21.0863
21.0862
21.0861
21.086
21.086
21.086
21.0861
21.0862
21.0863
21.0775
21.0774
21.0773
21.0772
21.0772
21.0772
21.0773
21.0774
21.0775
21.0777
21.0778
21.078
21.0782
21.0784
21.0786
21.0787
21.0789
21.0791
21.0792
21.0794
21.0795
21.0796
21.0797
21.0798
21.0799
21.08
21.08
21.08
21.0801
21.0801
21.0801
21.0801
21.08
21.08
21.08
21.0799
21.0798
21.0797
21.0796
21.0795
21.0794
21.0792
21.0791
21.0789
21.0787
21.0786
21.0784
21.0782
21.078
21.0778
21.0777
21.0775
21.0774
21.0773
21.0772
21.0772
21.0772
21.0773
21.0774
21.0775
21.0668
21.0667
21.0665
21.0665
21.0664
21.0665
21.0665
21.0666
21.0668
21.0669
21.0671
21.0673
21.0675
21.0677
21.0679