/*--------------------------------*- C++ -*----------------------------------*\
| =========                 |                                                 |
| \\      /  F ield         | foam-extend: Open Source CFD                    |
|  \\    /   O peration     | Version:     4.0                                |
|   \\  /    A nd           | Web:         http://www.foam-extend.org         |
|    \\/     M anipulation  |                                                 |
\*---------------------------------------------------------------------------*/
FoamFile
{
    version     2.0;
    format      ascii;
    class       volScalarField;
    location    "820";
    object      cMinus;
}
// * * * * * * * * * * * * * * * * * * * * * * * * * * * * * * * * * * * * * //

dimensions      [0 0 0 0 0 0 0];

internalField   nonuniform List<scalar> 
6960
(
5.65634e-22
5.62306e-22
5.63335e-22
5.6398e-22
5.64285e-22
5.64333e-22
5.64194e-22
5.63921e-22
5.63557e-22
5.63131e-22
5.62665e-22
5.62177e-22
5.6168e-22
5.61182e-22
5.60692e-22
5.60216e-22
5.5976e-22
5.59328e-22
5.58922e-22
5.58545e-22
5.582e-22
5.57887e-22
5.57608e-22
5.57363e-22
5.57153e-22
5.56978e-22
5.56838e-22
5.56732e-22
5.56662e-22
5.56627e-22
5.56627e-22
5.56662e-22
5.56732e-22
5.56838e-22
5.56978e-22
5.57153e-22
5.57363e-22
5.57608e-22
5.57887e-22
5.582e-22
5.58545e-22
5.58922e-22
5.59328e-22
5.5976e-22
5.60216e-22
5.60692e-22
5.61182e-22
5.6168e-22
5.62177e-22
5.62665e-22
5.63131e-22
5.63557e-22
5.63921e-22
5.64194e-22
5.64333e-22
5.64285e-22
5.6398e-22
5.63335e-22
5.62306e-22
5.65634e-22
1.69447e-21
1.68945e-21
1.69039e-21
1.6908e-21
1.69081e-21
1.69052e-21
1.69004e-21
1.68941e-21
1.68868e-21
1.6879e-21
1.68708e-21
1.68624e-21
1.68541e-21
1.68458e-21
1.68378e-21
1.683e-21
1.68226e-21
1.68157e-21
1.68092e-21
1.68031e-21
1.67976e-21
1.67926e-21
1.67882e-21
1.67843e-21
1.6781e-21
1.67782e-21
1.6776e-21
1.67743e-21
1.67732e-21
1.67726e-21
1.67726e-21
1.67732e-21
1.67743e-21
1.6776e-21
1.67782e-21
1.6781e-21
1.67843e-21
1.67882e-21
1.67926e-21
1.67976e-21
1.68031e-21
1.68092e-21
1.68157e-21
1.68226e-21
1.683e-21
1.68378e-21
1.68458e-21
1.68541e-21
1.68624e-21
1.68708e-21
1.6879e-21
1.68868e-21
1.68941e-21
1.69004e-21
1.69052e-21
1.69081e-21
1.6908e-21
1.69039e-21
1.68945e-21
1.69447e-21
6.69221e-21
6.67776e-21
6.68082e-21
6.68202e-21
6.68191e-21
6.68087e-21
6.67918e-21
6.67705e-21
6.67462e-21
6.67201e-21
6.6693e-21
6.66655e-21
6.66381e-21
6.66111e-21
6.65849e-21
6.65596e-21
6.65356e-21
6.6513e-21
6.64918e-21
6.64723e-21
6.64544e-21
6.64383e-21
6.64239e-21
6.64113e-21
6.64005e-21
6.63916e-21
6.63844e-21
6.6379e-21
6.63754e-21
6.63736e-21
6.63736e-21
6.63754e-21
6.6379e-21
6.63844e-21
6.63916e-21
6.64005e-21
6.64113e-21
6.64239e-21
6.64383e-21
6.64544e-21
6.64723e-21
6.64918e-21
6.6513e-21
6.65356e-21
6.65596e-21
6.65849e-21
6.66111e-21
6.66381e-21
6.66655e-21
6.6693e-21
6.67201e-21
6.67462e-21
6.67705e-21
6.67918e-21
6.68087e-21
6.68191e-21
6.68202e-21
6.68082e-21
6.67776e-21
6.69221e-21
2.67731e-20
2.67306e-20
2.67445e-20
2.67508e-20
2.67518e-20
2.67491e-20
2.67437e-20
2.67366e-20
2.67283e-20
2.67192e-20
2.67098e-20
2.67001e-20
2.66905e-20
2.6681e-20
2.66718e-20
2.66629e-20
2.66544e-20
2.66465e-20
2.66391e-20
2.66322e-20
2.66259e-20
2.66203e-20
2.66152e-20
2.66108e-20
2.66071e-20
2.66039e-20
2.66014e-20
2.65995e-20
2.65983e-20
2.65976e-20
2.65976e-20
2.65983e-20
2.65995e-20
2.66014e-20
2.66039e-20
2.66071e-20
2.66108e-20
2.66152e-20
2.66203e-20
2.66259e-20
2.66322e-20
2.66391e-20
2.66465e-20
2.66544e-20
2.66629e-20
2.66718e-20
2.6681e-20
2.66905e-20
2.67001e-20
2.67098e-20
2.67192e-20
2.67283e-20
2.67366e-20
2.67437e-20
2.67491e-20
2.67518e-20
2.67508e-20
2.67445e-20
2.67306e-20
2.67731e-20
1.09413e-19
1.09303e-19
1.0937e-19
1.09405e-19
1.09417e-19
1.09414e-19
1.09399e-19
1.09376e-19
1.09348e-19
1.09317e-19
1.09284e-19
1.0925e-19
1.09216e-19
1.09183e-19
1.0915e-19
1.09119e-19
1.09089e-19
1.09061e-19
1.09035e-19
1.09011e-19
1.08988e-19
1.08969e-19
1.08951e-19
1.08935e-19
1.08922e-19
1.08911e-19
1.08902e-19
1.08896e-19
1.08891e-19
1.08889e-19
1.08889e-19
1.08891e-19
1.08896e-19
1.08902e-19
1.08911e-19
1.08922e-19
1.08935e-19
1.08951e-19
1.08969e-19
1.08988e-19
1.09011e-19
1.09035e-19
1.09061e-19
1.09089e-19
1.09119e-19
1.0915e-19
1.09183e-19
1.09216e-19
1.0925e-19
1.09284e-19
1.09317e-19
1.09348e-19
1.09376e-19
1.09399e-19
1.09414e-19
1.09417e-19
1.09405e-19
1.0937e-19
1.09303e-19
1.09413e-19
4.61416e-19
4.61229e-19
4.61568e-19
4.61764e-19
4.61859e-19
4.61881e-19
4.6185e-19
4.61784e-19
4.61694e-19
4.61589e-19
4.61476e-19
4.61358e-19
4.61239e-19
4.61121e-19
4.61007e-19
4.60896e-19
4.60791e-19
4.60692e-19
4.60599e-19
4.60514e-19
4.60436e-19
4.60366e-19
4.60304e-19
4.60249e-19
4.60202e-19
4.60163e-19
4.60132e-19
4.60109e-19
4.60094e-19
4.60086e-19
4.60086e-19
4.60094e-19
4.60109e-19
4.60132e-19
4.60163e-19
4.60202e-19
4.60249e-19
4.60304e-19
4.60366e-19
4.60436e-19
4.60514e-19
4.60599e-19
4.60692e-19
4.60791e-19
4.60896e-19
4.61007e-19
4.61121e-19
4.61239e-19
4.61358e-19
4.61476e-19
4.61589e-19
4.61694e-19
4.61784e-19
4.6185e-19
4.61881e-19
4.61859e-19
4.61764e-19
4.61568e-19
4.61229e-19
4.61416e-19
2.01739e-18
2.01779e-18
2.01958e-18
2.0207e-18
2.02134e-18
2.02161e-18
2.02164e-18
2.02149e-18
2.02123e-18
2.02089e-18
2.02051e-18
2.0201e-18
2.01969e-18
2.01927e-18
2.01887e-18
2.01848e-18
2.0181e-18
2.01775e-18
2.01743e-18
2.01713e-18
2.01685e-18
2.0166e-18
2.01638e-18
2.01619e-18
2.01603e-18
2.01589e-18
2.01578e-18
2.0157e-18
2.01564e-18
2.01562e-18
2.01562e-18
2.01564e-18
2.0157e-18
2.01578e-18
2.01589e-18
2.01603e-18
2.01619e-18
2.01638e-18
2.0166e-18
2.01685e-18
2.01713e-18
2.01743e-18
2.01775e-18
2.0181e-18
2.01848e-18
2.01887e-18
2.01927e-18
2.01969e-18
2.0201e-18
2.02051e-18
2.02089e-18
2.02123e-18
2.02149e-18
2.02164e-18
2.02161e-18
2.02134e-18
2.0207e-18
2.01958e-18
2.01779e-18
2.01739e-18
9.16405e-18
9.17122e-18
9.18106e-18
9.18758e-18
9.19163e-18
9.19385e-18
9.19476e-18
9.19477e-18
9.19416e-18
9.19317e-18
9.19194e-18
9.19057e-18
9.18913e-18
9.18768e-18
9.18626e-18
9.18487e-18
9.18356e-18
9.18232e-18
9.18116e-18
9.18009e-18
9.17912e-18
9.17824e-18
9.17747e-18
9.17679e-18
9.17621e-18
9.17573e-18
9.17534e-18
9.17505e-18
9.17486e-18
9.17477e-18
9.17477e-18
9.17486e-18
9.17505e-18
9.17534e-18
9.17573e-18
9.17621e-18
9.17679e-18
9.17747e-18
9.17824e-18
9.17912e-18
9.18009e-18
9.18116e-18
9.18232e-18
9.18356e-18
9.18487e-18
9.18626e-18
9.18768e-18
9.18913e-18
9.19057e-18
9.19194e-18
9.19317e-18
9.19416e-18
9.19477e-18
9.19476e-18
9.19385e-18
9.19163e-18
9.18758e-18
9.18106e-18
9.17122e-18
9.16405e-18
4.32764e-17
4.33344e-17
4.33904e-17
4.34291e-17
4.34545e-17
4.34699e-17
4.34782e-17
4.34815e-17
4.34815e-17
4.34793e-17
4.34757e-17
4.34713e-17
4.34664e-17
4.34614e-17
4.34564e-17
4.34515e-17
4.34469e-17
4.34425e-17
4.34384e-17
4.34346e-17
4.34311e-17
4.3428e-17
4.34253e-17
4.34229e-17
4.34208e-17
4.34191e-17
4.34178e-17
4.34167e-17
4.34161e-17
4.34157e-17
4.34157e-17
4.34161e-17
4.34167e-17
4.34178e-17
4.34191e-17
4.34208e-17
4.34229e-17
4.34253e-17
4.3428e-17
4.34311e-17
4.34346e-17
4.34384e-17
4.34425e-17
4.34469e-17
4.34515e-17
4.34564e-17
4.34614e-17
4.34664e-17
4.34713e-17
4.34757e-17
4.34793e-17
4.34815e-17
4.34815e-17
4.34782e-17
4.34699e-17
4.34545e-17
4.34291e-17
4.33904e-17
4.33344e-17
4.32764e-17
2.12326e-16
2.12721e-16
2.13049e-16
2.13282e-16
2.13441e-16
2.13543e-16
2.13604e-16
2.13637e-16
2.1365e-16
2.1365e-16
2.13643e-16
2.1363e-16
2.13615e-16
2.13598e-16
2.13581e-16
2.13564e-16
2.13547e-16
2.13531e-16
2.13517e-16
2.13503e-16
2.13491e-16
2.1348e-16
2.1347e-16
2.13462e-16
2.13454e-16
2.13448e-16
2.13444e-16
2.1344e-16
2.13438e-16
2.13436e-16
2.13436e-16
2.13438e-16
2.1344e-16
2.13444e-16
2.13448e-16
2.13454e-16
2.13462e-16
2.1347e-16
2.1348e-16
2.13491e-16
2.13503e-16
2.13517e-16
2.13531e-16
2.13547e-16
2.13564e-16
2.13581e-16
2.13598e-16
2.13615e-16
2.1363e-16
2.13643e-16
2.1365e-16
2.1365e-16
2.13637e-16
2.13604e-16
2.13543e-16
2.13441e-16
2.13282e-16
2.13049e-16
2.12721e-16
2.12326e-16
1.08039e-15
1.08291e-15
1.08488e-15
1.08631e-15
1.0873e-15
1.08796e-15
1.08838e-15
1.08863e-15
1.08876e-15
1.08882e-15
1.08882e-15
1.0888e-15
1.08876e-15
1.0887e-15
1.08865e-15
1.08859e-15
1.08853e-15
1.08847e-15
1.08842e-15
1.08837e-15
1.08833e-15
1.08829e-15
1.08826e-15
1.08823e-15
1.0882e-15
1.08818e-15
1.08816e-15
1.08815e-15
1.08814e-15
1.08814e-15
1.08814e-15
1.08814e-15
1.08815e-15
1.08816e-15
1.08818e-15
1.0882e-15
1.08823e-15
1.08826e-15
1.08829e-15
1.08833e-15
1.08837e-15
1.08842e-15
1.08847e-15
1.08853e-15
1.08859e-15
1.08865e-15
1.0887e-15
1.08876e-15
1.0888e-15
1.08882e-15
1.08882e-15
1.08876e-15
1.08863e-15
1.08838e-15
1.08796e-15
1.0873e-15
1.08631e-15
1.08488e-15
1.08291e-15
1.08039e-15
5.68591e-15
5.70171e-15
5.71377e-15
5.72264e-15
5.72888e-15
5.73311e-15
5.73587e-15
5.73759e-15
5.73861e-15
5.73916e-15
5.73941e-15
5.73946e-15
5.73939e-15
5.73925e-15
5.73907e-15
5.73888e-15
5.73868e-15
5.73848e-15
5.7383e-15
5.73813e-15
5.73797e-15
5.73783e-15
5.73771e-15
5.7376e-15
5.73751e-15
5.73744e-15
5.73738e-15
5.73733e-15
5.7373e-15
5.73729e-15
5.73729e-15
5.7373e-15
5.73733e-15
5.73738e-15
5.73744e-15
5.73751e-15
5.7376e-15
5.73771e-15
5.73783e-15
5.73797e-15
5.73813e-15
5.7383e-15
5.73848e-15
5.73868e-15
5.73888e-15
5.73907e-15
5.73925e-15
5.73939e-15
5.73946e-15
5.73941e-15
5.73916e-15
5.73861e-15
5.73759e-15
5.73587e-15
5.73311e-15
5.72888e-15
5.72264e-15
5.71377e-15
5.70171e-15
5.68591e-15
3.08424e-14
3.09406e-14
3.10155e-14
3.10711e-14
3.11107e-14
3.11377e-14
3.11557e-14
3.11673e-14
3.11745e-14
3.11787e-14
3.11811e-14
3.11821e-14
3.11825e-14
3.11823e-14
3.11819e-14
3.11813e-14
3.11806e-14
3.118e-14
3.11794e-14
3.11788e-14
3.11782e-14
3.11777e-14
3.11773e-14
3.11769e-14
3.11766e-14
3.11763e-14
3.11761e-14
3.11759e-14
3.11758e-14
3.11758e-14
3.11758e-14
3.11758e-14
3.11759e-14
3.11761e-14
3.11763e-14
3.11766e-14
3.11769e-14
3.11773e-14
3.11777e-14
3.11782e-14
3.11788e-14
3.11794e-14
3.118e-14
3.11806e-14
3.11813e-14
3.11819e-14
3.11823e-14
3.11825e-14
3.11821e-14
3.11811e-14
3.11787e-14
3.11745e-14
3.11673e-14
3.11557e-14
3.11377e-14
3.11107e-14
3.10711e-14
3.10155e-14
3.09406e-14
3.08424e-14
1.71717e-13
1.72328e-13
1.72798e-13
1.7315e-13
1.73402e-13
1.73575e-13
1.73692e-13
1.73768e-13
1.73817e-13
1.73847e-13
1.73865e-13
1.73875e-13
1.7388e-13
1.73881e-13
1.73881e-13
1.7388e-13
1.73878e-13
1.73876e-13
1.73874e-13
1.73872e-13
1.7387e-13
1.73868e-13
1.73867e-13
1.73866e-13
1.73865e-13
1.73864e-13
1.73863e-13
1.73862e-13
1.73862e-13
1.73862e-13
1.73862e-13
1.73862e-13
1.73862e-13
1.73863e-13
1.73864e-13
1.73865e-13
1.73866e-13
1.73867e-13
1.73868e-13
1.7387e-13
1.73872e-13
1.73874e-13
1.73876e-13
1.73878e-13
1.7388e-13
1.73881e-13
1.73881e-13
1.7388e-13
1.73875e-13
1.73865e-13
1.73847e-13
1.73817e-13
1.73768e-13
1.73692e-13
1.73575e-13
1.73402e-13
1.7315e-13
1.72798e-13
1.72328e-13
1.71717e-13
9.76574e-13
9.80394e-13
9.83367e-13
9.85605e-13
9.87212e-13
9.88327e-13
9.89081e-13
9.89579e-13
9.89902e-13
9.90106e-13
9.90232e-13
9.90308e-13
9.90351e-13
9.90373e-13
9.90383e-13
9.90385e-13
9.90382e-13
9.90377e-13
9.90371e-13
9.90364e-13
9.90358e-13
9.90352e-13
9.90347e-13
9.90343e-13
9.90339e-13
9.90336e-13
9.90333e-13
9.90332e-13
9.90331e-13
9.9033e-13
9.9033e-13
9.90331e-13
9.90332e-13
9.90333e-13
9.90336e-13
9.90339e-13
9.90343e-13
9.90347e-13
9.90352e-13
9.90358e-13
9.90364e-13
9.90371e-13
9.90377e-13
9.90382e-13
9.90385e-13
9.90383e-13
9.90373e-13
9.90351e-13
9.90308e-13
9.90232e-13
9.90106e-13
9.89902e-13
9.89579e-13
9.89081e-13
9.88327e-13
9.87212e-13
9.85605e-13
9.83367e-13
9.80394e-13
9.76574e-13
5.64221e-12
5.66613e-12
5.68498e-12
5.69923e-12
5.70949e-12
5.71664e-12
5.72149e-12
5.72472e-12
5.72683e-12
5.72819e-12
5.72905e-12
5.72958e-12
5.7299e-12
5.73009e-12
5.73019e-12
5.73024e-12
5.73026e-12
5.73026e-12
5.73025e-12
5.73023e-12
5.73021e-12
5.7302e-12
5.73018e-12
5.73017e-12
5.73016e-12
5.73015e-12
5.73014e-12
5.73013e-12
5.73013e-12
5.73013e-12
5.73013e-12
5.73013e-12
5.73013e-12
5.73014e-12
5.73015e-12
5.73016e-12
5.73017e-12
5.73018e-12
5.7302e-12
5.73021e-12
5.73023e-12
5.73025e-12
5.73026e-12
5.73026e-12
5.73024e-12
5.73019e-12
5.73009e-12
5.7299e-12
5.72958e-12
5.72905e-12
5.72819e-12
5.72683e-12
5.72472e-12
5.72149e-12
5.71664e-12
5.70949e-12
5.69923e-12
5.68498e-12
5.66613e-12
5.64221e-12
3.29109e-11
3.30603e-11
3.31796e-11
3.327e-11
3.33352e-11
3.33807e-11
3.34118e-11
3.34325e-11
3.34462e-11
3.3455e-11
3.34607e-11
3.34643e-11
3.34666e-11
3.34679e-11
3.34688e-11
3.34692e-11
3.34695e-11
3.34696e-11
3.34696e-11
3.34696e-11
3.34696e-11
3.34696e-11
3.34695e-11
3.34695e-11
3.34695e-11
3.34695e-11
3.34695e-11
3.34694e-11
3.34694e-11
3.34694e-11
3.34694e-11
3.34694e-11
3.34694e-11
3.34695e-11
3.34695e-11
3.34695e-11
3.34695e-11
3.34695e-11
3.34696e-11
3.34696e-11
3.34696e-11
3.34696e-11
3.34696e-11
3.34695e-11
3.34692e-11
3.34688e-11
3.34679e-11
3.34666e-11
3.34643e-11
3.34607e-11
3.3455e-11
3.34462e-11
3.34325e-11
3.34118e-11
3.33807e-11
3.33352e-11
3.327e-11
3.31796e-11
3.30603e-11
3.29109e-11
1.92442e-10
1.93369e-10
1.94116e-10
1.94684e-10
1.95094e-10
1.95381e-10
1.95577e-10
1.95708e-10
1.95795e-10
1.95852e-10
1.95889e-10
1.95912e-10
1.95927e-10
1.95937e-10
1.95943e-10
1.95946e-10
1.95949e-10
1.9595e-10
1.95951e-10
1.95951e-10
1.95951e-10
1.95951e-10
1.95951e-10
1.95951e-10
1.95951e-10
1.95951e-10
1.95951e-10
1.95951e-10
1.95951e-10
1.95951e-10
1.95951e-10
1.95951e-10
1.95951e-10
1.95951e-10
1.95951e-10
1.95951e-10
1.95951e-10
1.95951e-10
1.95951e-10
1.95951e-10
1.95951e-10
1.95951e-10
1.9595e-10
1.95949e-10
1.95946e-10
1.95943e-10
1.95937e-10
1.95927e-10
1.95912e-10
1.95889e-10
1.95852e-10
1.95795e-10
1.95708e-10
1.95577e-10
1.95381e-10
1.95094e-10
1.94684e-10
1.94116e-10
1.93369e-10
1.92442e-10
1.11903e-09
1.12469e-09
1.12929e-09
1.1328e-09
1.13533e-09
1.1371e-09
1.13832e-09
1.13914e-09
1.13968e-09
1.14003e-09
1.14027e-09
1.14042e-09
1.14051e-09
1.14057e-09
1.14061e-09
1.14064e-09
1.14066e-09
1.14067e-09
1.14067e-09
1.14068e-09
1.14068e-09
1.14068e-09
1.14068e-09
1.14068e-09
1.14068e-09
1.14068e-09
1.14068e-09
1.14068e-09
1.14068e-09
1.14068e-09
1.14068e-09
1.14068e-09
1.14068e-09
1.14068e-09
1.14068e-09
1.14068e-09
1.14068e-09
1.14068e-09
1.14068e-09
1.14068e-09
1.14068e-09
1.14067e-09
1.14067e-09
1.14066e-09
1.14064e-09
1.14061e-09
1.14057e-09
1.14051e-09
1.14042e-09
1.14027e-09
1.14003e-09
1.13968e-09
1.13914e-09
1.13832e-09
1.1371e-09
1.13533e-09
1.1328e-09
1.12929e-09
1.12469e-09
1.11903e-09
6.41252e-09
6.44628e-09
6.47394e-09
6.495e-09
6.51025e-09
6.52093e-09
6.52825e-09
6.53319e-09
6.53647e-09
6.53863e-09
6.54005e-09
6.54097e-09
6.54157e-09
6.54196e-09
6.54222e-09
6.54238e-09
6.54249e-09
6.54256e-09
6.5426e-09
6.54263e-09
6.54266e-09
6.54267e-09
6.54268e-09
6.54269e-09
6.5427e-09
6.54271e-09
6.54271e-09
6.54271e-09
6.54272e-09
6.54272e-09
6.54272e-09
6.54272e-09
6.54271e-09
6.54271e-09
6.54271e-09
6.5427e-09
6.54269e-09
6.54268e-09
6.54267e-09
6.54266e-09
6.54263e-09
6.5426e-09
6.54256e-09
6.54249e-09
6.54238e-09
6.54222e-09
6.54196e-09
6.54157e-09
6.54097e-09
6.54005e-09
6.53863e-09
6.53647e-09
6.53319e-09
6.52825e-09
6.52093e-09
6.51025e-09
6.495e-09
6.47394e-09
6.44628e-09
6.41252e-09
3.58489e-08
3.60435e-08
3.62037e-08
3.63258e-08
3.64142e-08
3.64762e-08
3.65187e-08
3.65474e-08
3.65665e-08
3.65792e-08
3.65875e-08
3.6593e-08
3.65965e-08
3.65989e-08
3.66004e-08
3.66014e-08
3.66021e-08
3.66025e-08
3.66028e-08
3.6603e-08
3.66032e-08
3.66033e-08
3.66034e-08
3.66034e-08
3.66035e-08
3.66035e-08
3.66036e-08
3.66036e-08
3.66036e-08
3.66036e-08
3.66036e-08
3.66036e-08
3.66036e-08
3.66036e-08
3.66035e-08
3.66035e-08
3.66034e-08
3.66034e-08
3.66033e-08
3.66032e-08
3.6603e-08
3.66028e-08
3.66025e-08
3.66021e-08
3.66014e-08
3.66004e-08
3.65989e-08
3.65965e-08
3.6593e-08
3.65875e-08
3.65792e-08
3.65665e-08
3.65474e-08
3.65187e-08
3.64762e-08
3.64142e-08
3.63258e-08
3.62037e-08
3.60435e-08
3.58489e-08
1.93345e-07
1.94417e-07
1.95302e-07
1.95976e-07
1.96465e-07
1.96807e-07
1.97043e-07
1.97202e-07
1.97308e-07
1.97378e-07
1.97425e-07
1.97455e-07
1.97475e-07
1.97488e-07
1.97497e-07
1.97503e-07
1.97507e-07
1.9751e-07
1.97511e-07
1.97513e-07
1.97514e-07
1.97514e-07
1.97515e-07
1.97515e-07
1.97516e-07
1.97516e-07
1.97516e-07
1.97516e-07
1.97516e-07
1.97516e-07
1.97516e-07
1.97516e-07
1.97516e-07
1.97516e-07
1.97516e-07
1.97516e-07
1.97515e-07
1.97515e-07
1.97514e-07
1.97514e-07
1.97513e-07
1.97511e-07
1.9751e-07
1.97507e-07
1.97503e-07
1.97497e-07
1.97488e-07
1.97475e-07
1.97455e-07
1.97425e-07
1.97378e-07
1.97308e-07
1.97202e-07
1.97043e-07
1.96807e-07
1.96465e-07
1.95976e-07
1.95302e-07
1.94417e-07
1.93345e-07
9.93814e-07
9.99381e-07
1.00398e-06
1.00749e-06
1.01003e-06
1.01181e-06
1.01303e-06
1.01386e-06
1.01442e-06
1.01478e-06
1.01503e-06
1.01519e-06
1.01529e-06
1.01536e-06
1.01541e-06
1.01544e-06
1.01546e-06
1.01548e-06
1.01549e-06
1.0155e-06
1.0155e-06
1.0155e-06
1.01551e-06
1.01551e-06
1.01551e-06
1.01551e-06
1.01551e-06
1.01552e-06
1.01552e-06
1.01552e-06
1.01552e-06
1.01552e-06
1.01552e-06
1.01551e-06
1.01551e-06
1.01551e-06
1.01551e-06
1.01551e-06
1.0155e-06
1.0155e-06
1.0155e-06
1.01549e-06
1.01548e-06
1.01546e-06
1.01544e-06
1.01541e-06
1.01536e-06
1.01529e-06
1.01519e-06
1.01503e-06
1.01478e-06
1.01442e-06
1.01386e-06
1.01303e-06
1.01181e-06
1.01003e-06
1.00749e-06
1.00398e-06
9.99381e-07
9.93814e-07
4.80462e-06
4.8315e-06
4.85371e-06
4.87061e-06
4.88286e-06
4.89145e-06
4.89737e-06
4.90137e-06
4.90405e-06
4.90583e-06
4.90701e-06
4.90779e-06
4.90831e-06
4.90866e-06
4.90889e-06
4.90904e-06
4.90915e-06
4.90922e-06
4.90927e-06
4.90931e-06
4.90934e-06
4.90936e-06
4.90937e-06
4.90939e-06
4.9094e-06
4.90941e-06
4.90941e-06
4.90942e-06
4.90942e-06
4.90942e-06
4.90942e-06
4.90942e-06
4.90942e-06
4.90941e-06
4.90941e-06
4.9094e-06
4.90939e-06
4.90937e-06
4.90936e-06
4.90934e-06
4.90931e-06
4.90927e-06
4.90922e-06
4.90915e-06
4.90904e-06
4.90889e-06
4.90866e-06
4.90831e-06
4.90779e-06
4.90701e-06
4.90583e-06
4.90405e-06
4.90137e-06
4.89737e-06
4.89145e-06
4.88286e-06
4.87061e-06
4.85371e-06
4.8315e-06
4.80462e-06
2.15391e-05
2.16578e-05
2.17558e-05
2.18302e-05
2.18841e-05
2.1922e-05
2.19481e-05
2.19657e-05
2.19776e-05
2.19854e-05
2.19907e-05
2.19942e-05
2.19965e-05
2.1998e-05
2.19991e-05
2.19998e-05
2.20002e-05
2.20006e-05
2.20008e-05
2.2001e-05
2.20011e-05
2.20012e-05
2.20013e-05
2.20013e-05
2.20014e-05
2.20014e-05
2.20014e-05
2.20015e-05
2.20015e-05
2.20015e-05
2.20015e-05
2.20015e-05
2.20015e-05
2.20014e-05
2.20014e-05
2.20014e-05
2.20013e-05
2.20013e-05
2.20012e-05
2.20011e-05
2.2001e-05
2.20008e-05
2.20006e-05
2.20002e-05
2.19998e-05
2.19991e-05
2.1998e-05
2.19965e-05
2.19942e-05
2.19907e-05
2.19854e-05
2.19776e-05
2.19657e-05
2.19481e-05
2.1922e-05
2.18841e-05
2.18302e-05
2.17558e-05
2.16578e-05
2.15391e-05
8.81846e-05
8.86562e-05
8.90441e-05
8.93386e-05
8.95518e-05
8.97016e-05
8.98046e-05
8.98745e-05
8.99214e-05
8.99527e-05
8.99735e-05
8.99873e-05
8.99966e-05
9.00028e-05
9.00069e-05
9.00098e-05
9.00117e-05
9.00131e-05
9.00141e-05
9.00148e-05
9.00153e-05
9.00157e-05
9.0016e-05
9.00162e-05
9.00164e-05
9.00166e-05
9.00167e-05
9.00168e-05
9.00168e-05
9.00169e-05
9.00169e-05
9.00168e-05
9.00168e-05
9.00167e-05
9.00166e-05
9.00164e-05
9.00162e-05
9.0016e-05
9.00157e-05
9.00153e-05
9.00148e-05
9.00141e-05
9.00131e-05
9.00117e-05
9.00098e-05
9.00069e-05
9.00028e-05
8.99966e-05
8.99873e-05
8.99735e-05
8.99527e-05
8.99214e-05
8.98745e-05
8.98046e-05
8.97016e-05
8.95518e-05
8.93386e-05
8.90441e-05
8.86562e-05
8.81846e-05
0.000324408
0.00032606
0.000327413
0.000328438
0.00032918
0.000329702
0.000330061
0.000330304
0.000330468
0.000330577
0.00033065
0.000330698
0.000330731
0.000330753
0.000330767
0.000330777
0.000330784
0.000330789
0.000330793
0.000330795
0.000330797
0.000330799
0.0003308
0.000330801
0.000330801
0.000330802
0.000330802
0.000330802
0.000330803
0.000330803
0.000330803
0.000330803
0.000330802
0.000330802
0.000330802
0.000330801
0.000330801
0.0003308
0.000330799
0.000330797
0.000330795
0.000330793
0.000330789
0.000330784
0.000330777
0.000330767
0.000330753
0.000330731
0.000330698
0.00033065
0.000330577
0.000330468
0.000330304
0.000330061
0.000329702
0.00032918
0.000328438
0.000327413
0.00032606
0.000324408
0.00105424
0.00105923
0.0010633
0.00106638
0.0010686
0.00107017
0.00107125
0.00107198
0.00107247
0.0010728
0.00107302
0.00107316
0.00107326
0.00107333
0.00107337
0.00107341
0.00107343
0.00107344
0.00107345
0.00107346
0.00107347
0.00107347
0.00107347
0.00107348
0.00107348
0.00107348
0.00107348
0.00107348
0.00107348
0.00107348
0.00107348
0.00107348
0.00107348
0.00107348
0.00107348
0.00107348
0.00107348
0.00107347
0.00107347
0.00107347
0.00107346
0.00107345
0.00107344
0.00107343
0.00107341
0.00107337
0.00107333
0.00107326
0.00107316
0.00107302
0.0010728
0.00107247
0.00107198
0.00107125
0.00107017
0.0010686
0.00106638
0.0010633
0.00105923
0.00105424
0.00297682
0.00298958
0.0029999
0.00300769
0.00301333
0.00301729
0.00302002
0.00302187
0.00302312
0.00302396
0.00302452
0.00302489
0.00302514
0.00302531
0.00302543
0.00302551
0.00302556
0.0030256
0.00302563
0.00302565
0.00302566
0.00302567
0.00302568
0.00302569
0.0030257
0.0030257
0.0030257
0.00302571
0.00302571
0.00302571
0.00302571
0.00302571
0.00302571
0.0030257
0.0030257
0.0030257
0.00302569
0.00302568
0.00302567
0.00302566
0.00302565
0.00302563
0.0030256
0.00302556
0.00302551
0.00302543
0.00302531
0.00302514
0.00302489
0.00302452
0.00302396
0.00302312
0.00302187
0.00302002
0.00301729
0.00301333
0.00300769
0.0029999
0.00298958
0.00297682
0.0072082
0.00723527
0.007257
0.00727337
0.0072852
0.00729352
0.00729926
0.00730315
0.00730578
0.00730754
0.00730872
0.00730951
0.00731004
0.00731041
0.00731065
0.00731082
0.00731094
0.00731102
0.00731108
0.00731113
0.00731116
0.00731118
0.0073112
0.00731122
0.00731123
0.00731124
0.00731125
0.00731125
0.00731125
0.00731126
0.00731126
0.00731125
0.00731125
0.00731125
0.00731124
0.00731123
0.00731122
0.0073112
0.00731118
0.00731116
0.00731113
0.00731108
0.00731102
0.00731094
0.00731082
0.00731065
0.00731041
0.00731004
0.00730951
0.00730872
0.00730754
0.00730578
0.00730315
0.00729926
0.00729352
0.0072852
0.00727337
0.007257
0.00723527
0.0072082
0.0148919
0.0149394
0.0149772
0.0150056
0.0150261
0.0150405
0.0150505
0.0150572
0.0150618
0.0150649
0.0150669
0.0150683
0.0150692
0.0150699
0.0150703
0.0150706
0.0150708
0.015071
0.0150711
0.0150712
0.0150712
0.0150713
0.0150713
0.0150713
0.0150713
0.0150714
0.0150714
0.0150714
0.0150714
0.0150714
0.0150714
0.0150714
0.0150714
0.0150714
0.0150714
0.0150713
0.0150713
0.0150713
0.0150713
0.0150712
0.0150712
0.0150711
0.015071
0.0150708
0.0150706
0.0150703
0.0150699
0.0150692
0.0150683
0.0150669
0.0150649
0.0150618
0.0150572
0.0150505
0.0150405
0.0150261
0.0150056
0.0149772
0.0149394
0.0148919
0.0264401
0.02651
0.0265651
0.0266064
0.0266363
0.0266573
0.0266718
0.0266817
0.0266884
0.0266928
0.0266959
0.0266979
0.0266993
0.0267002
0.0267008
0.0267013
0.0267016
0.0267018
0.026702
0.0267021
0.0267022
0.0267023
0.0267023
0.0267023
0.0267024
0.0267024
0.0267024
0.0267024
0.0267024
0.0267024
0.0267024
0.0267024
0.0267024
0.0267024
0.0267024
0.0267024
0.0267023
0.0267023
0.0267023
0.0267022
0.0267021
0.026702
0.0267018
0.0267016
0.0267013
0.0267008
0.0267002
0.0266993
0.0266979
0.0266959
0.0266928
0.0266884
0.0266817
0.0266718
0.0266573
0.0266363
0.0266064
0.0265651
0.02651
0.0264401
0.0411538
0.0412434
0.0413134
0.0413657
0.0414035
0.0414301
0.0414485
0.041461
0.0414695
0.0414753
0.0414791
0.0414817
0.0414835
0.0414847
0.0414855
0.0414861
0.0414865
0.0414868
0.041487
0.0414871
0.0414873
0.0414873
0.0414874
0.0414875
0.0414875
0.0414875
0.0414876
0.0414876
0.0414876
0.0414876
0.0414876
0.0414876
0.0414876
0.0414876
0.0414875
0.0414875
0.0414875
0.0414874
0.0414873
0.0414873
0.0414871
0.041487
0.0414868
0.0414865
0.0414861
0.0414855
0.0414847
0.0414835
0.0414817
0.0414791
0.0414753
0.0414695
0.041461
0.0414485
0.0414301
0.0414035
0.0413657
0.0413134
0.0412434
0.0411538
0.0577283
0.057833
0.057914
0.0579744
0.0580181
0.0580489
0.0580702
0.0580848
0.0580947
0.0581014
0.0581059
0.0581089
0.058111
0.0581124
0.0581134
0.0581141
0.0581146
0.0581149
0.0581152
0.0581154
0.0581155
0.0581156
0.0581157
0.0581157
0.0581158
0.0581158
0.0581158
0.0581159
0.0581159
0.0581159
0.0581159
0.0581159
0.0581159
0.0581158
0.0581158
0.0581158
0.0581157
0.0581157
0.0581156
0.0581155
0.0581154
0.0581152
0.0581149
0.0581146
0.0581141
0.0581134
0.0581124
0.058111
0.0581089
0.0581059
0.0581014
0.0580947
0.0580848
0.0580702
0.0580489
0.0580181
0.0579744
0.057914
0.057833
0.0577283
0.0750529
0.0751693
0.0752586
0.0753252
0.0753733
0.0754073
0.0754309
0.075447
0.075458
0.0754655
0.0754705
0.0754739
0.0754762
0.0754778
0.0754789
0.0754797
0.0754803
0.0754806
0.0754809
0.0754811
0.0754813
0.0754814
0.0754815
0.0754816
0.0754816
0.0754817
0.0754817
0.0754817
0.0754817
0.0754817
0.0754817
0.0754817
0.0754817
0.0754817
0.0754817
0.0754816
0.0754816
0.0754815
0.0754814
0.0754813
0.0754811
0.0754809
0.0754806
0.0754803
0.0754797
0.0754789
0.0754778
0.0754762
0.0754739
0.0754705
0.0754655
0.075458
0.075447
0.0754309
0.0754073
0.0753733
0.0753252
0.0752586
0.0751693
0.0750529
0.0925462
0.0926728
0.0927693
0.0928411
0.0928931
0.0929298
0.0929554
0.0929729
0.0929849
0.092993
0.0929985
0.0930023
0.0930049
0.0930066
0.0930078
0.0930087
0.0930093
0.0930097
0.0930101
0.0930103
0.0930105
0.0930106
0.0930107
0.0930108
0.0930108
0.0930109
0.0930109
0.0930109
0.0930109
0.0930109
0.0930109
0.0930109
0.0930109
0.0930109
0.0930109
0.0930108
0.0930108
0.0930107
0.0930106
0.0930105
0.0930103
0.0930101
0.0930097
0.0930093
0.0930087
0.0930078
0.0930066
0.0930049
0.0930023
0.0929985
0.092993
0.0929849
0.0929729
0.0929554
0.0929298
0.0928931
0.0928411
0.0927693
0.0926728
0.0925462
0.110027
0.110164
0.110267
0.110344
0.1104
0.110439
0.110467
0.110486
0.110499
0.110507
0.110513
0.110517
0.11052
0.110522
0.110524
0.110524
0.110525
0.110526
0.110526
0.110526
0.110526
0.110527
0.110527
0.110527
0.110527
0.110527
0.110527
0.110527
0.110527
0.110527
0.110527
0.110527
0.110527
0.110527
0.110527
0.110527
0.110527
0.110527
0.110527
0.110526
0.110526
0.110526
0.110526
0.110525
0.110524
0.110524
0.110522
0.11052
0.110517
0.110513
0.110507
0.110499
0.110486
0.110467
0.110439
0.1104
0.110344
0.110267
0.110164
0.110027
0.127489
0.127634
0.127744
0.127826
0.127886
0.127928
0.127958
0.127978
0.127992
0.128002
0.128008
0.128013
0.128016
0.128018
0.128019
0.12802
0.128021
0.128022
0.128022
0.128022
0.128023
0.128023
0.128023
0.128023
0.128023
0.128023
0.128023
0.128023
0.128023
0.128023
0.128023
0.128023
0.128023
0.128023
0.128023
0.128023
0.128023
0.128023
0.128023
0.128023
0.128022
0.128022
0.128022
0.128021
0.12802
0.128019
0.128018
0.128016
0.128013
0.128008
0.128002
0.127992
0.127978
0.127958
0.127928
0.127886
0.127826
0.127744
0.127634
0.127489
0.144958
0.145113
0.14523
0.145318
0.145381
0.145426
0.145458
0.14548
0.145495
0.145505
0.145512
0.145517
0.14552
0.145523
0.145524
0.145526
0.145526
0.145527
0.145527
0.145528
0.145528
0.145528
0.145528
0.145528
0.145528
0.145528
0.145528
0.145528
0.145528
0.145528
0.145528
0.145528
0.145528
0.145528
0.145528
0.145528
0.145528
0.145528
0.145528
0.145528
0.145528
0.145527
0.145527
0.145526
0.145526
0.145524
0.145523
0.14552
0.145517
0.145512
0.145505
0.145495
0.14548
0.145458
0.145426
0.145381
0.145318
0.14523
0.145113
0.144958
0.162456
0.16262
0.162744
0.162837
0.162904
0.162952
0.162986
0.16301
0.163026
0.163037
0.163045
0.16305
0.163054
0.163056
0.163058
0.163059
0.16306
0.163061
0.163061
0.163061
0.163062
0.163062
0.163062
0.163062
0.163062
0.163062
0.163062
0.163062
0.163062
0.163062
0.163062
0.163062
0.163062
0.163062
0.163062
0.163062
0.163062
0.163062
0.163062
0.163062
0.163061
0.163061
0.163061
0.16306
0.163059
0.163058
0.163056
0.163054
0.16305
0.163045
0.163037
0.163026
0.16301
0.162986
0.162952
0.162904
0.162837
0.162744
0.16262
0.162456
0.179987
0.18016
0.180291
0.180389
0.18046
0.180512
0.180548
0.180573
0.18059
0.180602
0.18061
0.180616
0.18062
0.180623
0.180625
0.180626
0.180627
0.180628
0.180628
0.180628
0.180629
0.180629
0.180629
0.180629
0.180629
0.180629
0.180629
0.180629
0.180629
0.180629
0.180629
0.180629
0.180629
0.180629
0.180629
0.180629
0.180629
0.180629
0.180629
0.180629
0.180628
0.180628
0.180628
0.180627
0.180626
0.180625
0.180623
0.18062
0.180616
0.18061
0.180602
0.18059
0.180573
0.180548
0.180512
0.18046
0.180389
0.180291
0.18016
0.179987
0.197547
0.197728
0.197866
0.197969
0.198045
0.198099
0.198137
0.198164
0.198182
0.198195
0.198204
0.19821
0.198215
0.198218
0.19822
0.198221
0.198222
0.198223
0.198223
0.198224
0.198224
0.198224
0.198225
0.198225
0.198225
0.198225
0.198225
0.198225
0.198225
0.198225
0.198225
0.198225
0.198225
0.198225
0.198225
0.198225
0.198225
0.198225
0.198224
0.198224
0.198224
0.198223
0.198223
0.198222
0.198221
0.19822
0.198218
0.198215
0.19821
0.198204
0.198195
0.198182
0.198164
0.198137
0.198099
0.198045
0.197969
0.197866
0.197728
0.197547
0.215125
0.215315
0.215459
0.215567
0.215647
0.215704
0.215745
0.215773
0.215793
0.215807
0.215816
0.215823
0.215827
0.215831
0.215833
0.215835
0.215836
0.215837
0.215837
0.215838
0.215838
0.215838
0.215838
0.215838
0.215839
0.215839
0.215839
0.215839
0.215839
0.215839
0.215839
0.215839
0.215839
0.215839
0.215839
0.215839
0.215838
0.215838
0.215838
0.215838
0.215838
0.215837
0.215837
0.215836
0.215835
0.215833
0.215831
0.215827
0.215823
0.215816
0.215807
0.215793
0.215773
0.215745
0.215704
0.215647
0.215567
0.215459
0.215315
0.215125
0.232709
0.232906
0.233057
0.233171
0.233254
0.233315
0.233357
0.233388
0.233409
0.233423
0.233434
0.233441
0.233446
0.233449
0.233452
0.233454
0.233455
0.233456
0.233456
0.233457
0.233457
0.233457
0.233458
0.233458
0.233458
0.233458
0.233458
0.233458
0.233458
0.233458
0.233458
0.233458
0.233458
0.233458
0.233458
0.233458
0.233458
0.233458
0.233457
0.233457
0.233457
0.233456
0.233456
0.233455
0.233454
0.233452
0.233449
0.233446
0.233441
0.233434
0.233423
0.233409
0.233388
0.233357
0.233315
0.233254
0.233171
0.233057
0.232906
0.232709
0.250284
0.25049
0.250647
0.250766