/*--------------------------------*- C++ -*----------------------------------*\
| =========                 |                                                 |
| \\      /  F ield         | foam-extend: Open Source CFD                    |
|  \\    /   O peration     | Version:     4.0                                |
|   \\  /    A nd           | Web:         http://www.foam-extend.org         |
|    \\/     M anipulation  |                                                 |
\*---------------------------------------------------------------------------*/
FoamFile
{
    version     2.0;
    format      ascii;
    class       volVectorField;
    location    "4";
    object      U;
}
// * * * * * * * * * * * * * * * * * * * * * * * * * * * * * * * * * * * * * //

dimensions      [0 1 -1 0 0 0 0];

internalField   nonuniform List<vector> 
6960
(
(6.6165e-15 3.17629e-12 0)
(3.45873e-15 2.00427e-13 0)
(-1.6023e-15 4.64322e-13 0)
(1.82161e-15 4.22199e-13 0)
(1.5234e-15 2.55217e-13 0)
(2.34554e-15 5.22947e-14 0)
(2.43926e-15 -1.74543e-13 0)
(2.6096e-15 -3.46568e-13 0)
(2.57515e-15 -4.33593e-13 0)
(2.54946e-15 -4.22542e-13 0)
(2.47828e-15 -3.34703e-13 0)
(2.42402e-15 -1.9834e-13 0)
(2.36861e-15 -5.39709e-14 0)
(2.32765e-15 6.64249e-14 0)
(2.27561e-15 1.39905e-13 0)
(2.21278e-15 1.59789e-13 0)
(2.12095e-15 1.31874e-13 0)
(2.00747e-15 7.18427e-14 0)
(1.86588e-15 -1.07e-15 0)
(1.71305e-15 -6.88643e-14 0)
(1.54867e-15 -1.18572e-13 0)
(1.39168e-15 -1.43981e-13 0)
(1.23928e-15 -1.45273e-13 0)
(1.1033e-15 -1.27569e-13 0)
(9.76841e-16 -9.84902e-14 0)
(8.63875e-16 -6.60378e-14 0)
(7.56333e-16 -3.66797e-14 0)
(6.54104e-16 -1.44465e-14 0)
(5.50096e-16 -5.6653e-16 0)
(4.43758e-16 5.99834e-15 0)
(3.30985e-16 7.79479e-15 0)
(2.11893e-16 7.68942e-15 0)
(8.5839e-17 7.97064e-15 0)
(-4.65485e-17 9.54762e-15 0)
(-1.83705e-16 1.17644e-14 0)
(-3.26529e-16 1.27462e-14 0)
(-4.70219e-16 1.00027e-14 0)
(-6.23573e-16 1.91691e-15 0)
(-7.73242e-16 -1.20589e-14 0)
(-9.432e-16 -2.94275e-14 0)
(-1.09974e-15 -4.69247e-14 0)
(-1.29542e-15 -5.80893e-14 0)
(-1.45131e-15 -5.95983e-14 0)
(-1.67368e-15 -4.62547e-14 0)
(-1.80272e-15 -2.16198e-14 0)
(-2.03652e-15 1.35536e-14 0)
(-2.09819e-15 4.66131e-14 0)
(-2.31805e-15 7.38279e-14 0)
(-2.28142e-15 8.10774e-14 0)
(-2.46139e-15 7.11303e-14 0)
(-2.31616e-15 4.04548e-14 0)
(-2.46718e-15 2.06988e-15 0)
(-2.13321e-15 -3.28572e-14 0)
(-2.43469e-15 -5.4534e-14 0)
(-1.55036e-15 -4.83123e-14 0)
(-2.43417e-15 -2.86456e-14 0)
(-6.60841e-16 6.4709e-15 0)
(-1.59806e-15 2.25255e-14 0)
(-1.3843e-15 3.85697e-14 0)
(2.46352e-15 -2.82555e-14 0)
(-7.15783e-14 5.43958e-12 0)
(-7.262e-14 3.58445e-13 0)
(2.23297e-15 9.67037e-13 0)
(-9.69315e-16 9.0501e-13 0)
(-6.68289e-15 5.86195e-13 0)
(-6.07973e-15 1.8134e-13 0)
(-4.83276e-15 -2.91182e-13 0)
(-4.81319e-17 -6.631e-13 0)
(5.45338e-15 -8.66736e-13 0)
(1.07234e-14 -8.68353e-13 0)
(1.43433e-14 -7.07126e-13 0)
(1.59081e-14 -4.3701e-13 0)
(1.52534e-14 -1.41145e-13 0)
(1.29613e-14 1.13621e-13 0)
(9.73047e-15 2.76605e-13 0)
(6.4398e-15 3.30728e-13 0)
(3.71911e-15 2.84466e-13 0)
(2.00074e-15 1.68151e-13 0)
(1.33661e-15 2.04369e-14 0)
(1.58498e-15 -1.21085e-13 0)
(2.38551e-15 -2.28516e-13 0)
(3.39173e-15 -2.87329e-13 0)
(4.24992e-15 -2.96324e-13 0)
(4.76741e-15 -2.64751e-13 0)
(4.83601e-15 -2.07589e-13 0)
(4.50255e-15 -1.41119e-13 0)
(3.86464e-15 -7.89804e-14 0)
(3.08172e-15 -3.01516e-14 0)
(2.28789e-15 1.91378e-15 0)
(1.59657e-15 1.83576e-14 0)
(1.05151e-15 2.35278e-14 0)
(6.45016e-16 2.27095e-14 0)
(3.15354e-16 2.04703e-14 0)
(-2.56275e-17 1.90969e-14 0)
(-4.58411e-16 1.8275e-14 0)
(-1.04169e-15 1.55854e-14 0)
(-1.75352e-15 7.54008e-15 0)
(-2.56021e-15 -7.9107e-15 0)
(-3.29706e-15 -3.12678e-14 0)
(-3.91751e-15 -5.79389e-14 0)
(-4.20218e-15 -8.28329e-14 0)
(-4.30225e-15 -9.52725e-14 0)
(-4.02625e-15 -9.13891e-14 0)
(-3.89391e-15 -6.28703e-14 0)
(-3.62096e-15 -1.85148e-14 0)
(-4.06126e-15 4.12611e-14 0)
(-4.49917e-15 9.21931e-14 0)
(-5.94051e-15 1.32116e-13 0)
(-6.97846e-15 1.34435e-13 0)
(-8.66637e-15 1.11859e-13 0)
(-9.11354e-15 5.40458e-14 0)
(-9.6784e-15 -6.85159e-15 0)
(-8.18759e-15 -6.1487e-14 0)
(-7.79118e-15 -8.33809e-14 0)
(-3.93463e-15 -6.55755e-14 0)
(-5.59855e-15 -2.05059e-14 0)
(-5.06443e-16 3.11384e-14 0)
(-3.79814e-15 5.48476e-14 0)
(-5.63854e-15 7.41269e-14 0)
(5.13639e-15 -7.50862e-14 0)
(-1.21654e-13 1.73479e-12 0)
(-1.17693e-13 1.31413e-13 0)
(9.62022e-15 6.06888e-13 0)
(-2.52457e-15 6.11352e-13 0)
(-1.42444e-14 4.54902e-13 0)
(-1.49696e-14 2.27159e-13 0)
(-1.34827e-14 -7.12046e-14 0)
(-4.43516e-15 -3.27301e-13 0)
(6.73493e-15 -4.91358e-13 0)
(1.77826e-14 -5.31383e-13 0)
(2.5772e-14 -4.64107e-13 0)
(2.96507e-14 -3.1568e-13 0)
(2.89331e-14 -1.36637e-13 0)
(2.46788e-14 3.05192e-14 0)
(1.82837e-14 1.49199e-13 0)
(1.15568e-14 2.03635e-13 0)
(5.86274e-15 1.93457e-13 0)
(2.16445e-15 1.34088e-13 0)
(6.58043e-16 4.76451e-14 0)
(1.10073e-15 -4.20259e-14 0)
(2.78971e-15 -1.1594e-13 0)
(5.00108e-15 -1.62439e-13 0)
(6.99531e-15 -1.78253e-13 0)
(8.33321e-15 -1.66967e-13 0)
(8.76439e-15 -1.36593e-13 0)
(8.34726e-15 -9.67686e-14 0)
(7.26407e-15 -5.63324e-14 0)
(5.82369e-15 -2.18343e-14 0)
(4.30088e-15 3.18555e-15 0)
(2.93061e-15 1.78987e-14 0)
(1.82013e-15 2.36057e-14 0)
(9.77976e-16 2.26052e-14 0)
(3.10608e-16 1.74692e-14 0)
(-3.25605e-16 1.0188e-14 0)
(-1.06539e-15 2.07059e-15 0)
(-2.00887e-15 -6.29615e-15 0)
(-3.12198e-15 -1.46849e-14 0)
(-4.35725e-15 -2.25295e-14 0)
(-5.45125e-15 -2.92275e-14 0)
(-6.35142e-15 -3.27536e-14 0)
(-6.71491e-15 -3.22885e-14 0)
(-6.83158e-15 -2.49991e-14 0)
(-6.39673e-15 -1.27292e-14 0)
(-6.30048e-15 6.30568e-15 0)
(-6.04018e-15 2.45553e-14 0)
(-7.02393e-15 4.35464e-14 0)
(-7.9769e-15 5.06202e-14 0)
(-1.05397e-14 5.26548e-14 0)
(-1.22777e-14 3.60922e-14 0)
(-1.49554e-14 1.95583e-14 0)
(-1.54012e-14 -9.12395e-15 0)
(-1.59866e-14 -2.06911e-14 0)
(-1.31711e-14 -3.14115e-14 0)
(-1.23638e-14 -1.23032e-14 0)
(-6.08253e-15 3.4525e-15 0)
(-9.22444e-15 3.91286e-14 0)
(-1.34005e-15 3.95577e-14 0)
(-6.71904e-15 4.40085e-14 0)
(-1.07831e-14 3.60915e-14 0)
(7.16359e-15 -7.24659e-14 0)
(-9.17443e-14 -1.41098e-12 0)
(-8.92033e-14 -1.06134e-13 0)
(1.18981e-14 -3.71158e-14 0)
(1.87714e-15 1.26926e-14 0)
(-1.16527e-14 6.20514e-14 0)
(-1.22694e-14 9.90479e-14 0)
(-1.1509e-14 1.11891e-13 0)
(-2.04247e-15 1.02022e-13 0)
(9.87225e-15 7.34696e-14 0)
(2.2063e-14 3.61856e-14 0)
(3.11609e-14 -1.37989e-15 0)
(3.59559e-14 -3.00052e-14 0)
(3.57085e-14 -4.55786e-14 0)
(3.14642e-14 -4.64783e-14 0)
(2.46261e-14 -3.56846e-14 0)
(1.7165e-14 -1.74903e-14 0)
(1.05917e-14 2.38425e-15 0)
(6.0546e-15 1.94741e-14 0)
(3.84792e-15 3.04673e-14 0)
(3.80764e-15 3.43482e-14 0)
(5.2121e-15 3.161e-14 0)
(7.31436e-15 2.41964e-14 0)
(9.29033e-15 1.44818e-14 0)
(1.06479e-14 4.90264e-15 0)
(1.10655e-14 -2.70266e-15 0)
(1.0576e-14 -7.22244e-15 0)
(9.33591e-15 -8.43846e-15 0)
(7.66028e-15 -6.86886e-15 0)
(5.82832e-15 -3.61599e-15 0)
(4.0962e-15 -6.3471e-17 0)
(2.58749e-15 2.42771e-15 0)
(1.33638e-15 2.82538e-15 0)
(2.71606e-16 7.28205e-16 0)
(-7.25592e-16 -3.5297e-15 0)
(-1.76887e-15 -8.78847e-15 0)
(-2.95064e-15 -1.34132e-14 0)
(-4.23285e-15 -1.54954e-14 0)
(-5.60558e-15 -1.36621e-14 0)
(-6.81798e-15 -7.23617e-15 0)
(-7.91211e-15 2.95038e-15 0)
(-8.52877e-15 1.50418e-14 0)
(-9.09474e-15 2.59334e-14 0)
(-9.16125e-15 3.2516e-14 0)
(-9.80062e-15 3.22457e-14 0)
(-1.0139e-14 2.39446e-14 0)
(-1.18917e-14 9.25284e-15 0)
(-1.31548e-14 -9.70046e-15 0)
(-1.61588e-14 -2.63325e-14 0)
(-1.76215e-14 -3.90063e-14 0)
(-2.02956e-14 -3.90297e-14 0)
(-1.99992e-14 -3.30487e-14 0)
(-2.05081e-14 -1.19995e-14 0)
(-1.68181e-14 2.90029e-15 0)
(-1.66784e-14 2.70005e-14 0)
(-9.06819e-15 2.46991e-14 0)
(-1.43653e-14 3.09516e-14 0)
(-3.60839e-15 2.92774e-15 0)
(-1.04278e-14 6.48852e-16 0)
(-1.45734e-14 -1.23044e-14 0)
(1.08036e-14 -2.10577e-14 0)
(-5.13197e-14 -1.00985e-12 0)
(-5.60919e-14 -1.30948e-13 0)
(8.29324e-15 -2.67533e-13 0)
(8.29647e-15 -2.29801e-13 0)
(-4.12554e-15 -1.40462e-13 0)
(-2.74054e-15 -2.93722e-14 0)
(-2.26375e-15 9.44631e-14 0)
(5.91783e-15 1.87843e-13 0)
(1.5809e-14 2.33476e-13 0)
(2.61686e-14 2.25615e-13 0)
(3.39383e-14 1.75882e-13 0)
(3.81949e-14 1.0027e-13 0)
(3.81597e-14 2.10075e-14 0)
(3.46885e-14 -4.43954e-14 0)
(2.88507e-14 -8.35301e-14 0)
(2.23129e-14 -9.30014e-14 0)
(1.63273e-14 -7.62207e-14 0)
(1.19345e-14 -4.20556e-14 0)
(9.41739e-15 -1.20011e-15 0)
(8.72763e-15 3.63577e-14 0)
(9.2824e-15 6.3517e-14 0)
(1.05136e-14 7.69233e-14 0)
(1.17117e-14 7.67998e-14 0)
(1.24774e-14 6.60776e-14 0)
(1.24984e-14 4.90584e-14 0)
(1.17934e-14 3.0221e-14 0)
(1.04554e-14 1.31858e-14 0)
(8.73899e-15 2.37448e-16 0)
(6.85581e-15 -7.85063e-15 0)
(5.02115e-15 -1.15074e-14 0)
(3.33432e-15 -1.19611e-14 0)
(1.83564e-15 -1.0643e-14 0)
(4.73594e-16 -8.76568e-15 0)
(-8.37163e-16 -6.9816e-15 0)
(-2.17987e-15 -5.31454e-15 0)
(-3.63078e-15 -3.36317e-15 0)
(-5.14824e-15 -4.84745e-16 0)
(-6.75676e-15 3.52008e-15 0)
(-8.22361e-15 8.61119e-15 0)
(-9.66702e-15 1.3543e-14 0)
(-1.07041e-14 1.73237e-14 0)
(-1.1847e-14 1.76983e-14 0)
(-1.24924e-14 1.44685e-14 0)
(-1.38289e-14 6.23463e-15 0)
(-1.46447e-14 -4.21912e-15 0)
(-1.692e-14 -1.65717e-14 0)
(-1.82424e-14 -2.53286e-14 0)
(-2.14223e-14 -3.04611e-14 0)
(-2.25065e-14 -2.73917e-14 0)
(-2.5201e-14 -1.93584e-14 0)
(-2.44322e-14 -6.80315e-15 0)
(-2.52333e-14 5.09333e-15 0)
(-2.11233e-14 1.03097e-14 0)
(-2.1875e-14 1.00747e-14 0)
(-1.2983e-14 -2.96956e-15 0)
(-1.98952e-14 -1.35111e-14 0)
(-5.75259e-15 -2.64311e-14 0)
(-1.37482e-14 -2.35295e-14 0)
(-1.66405e-14 -1.83166e-14 0)
(1.56915e-14 1.48984e-14 0)
(-3.66943e-14 1.18843e-13 0)
(-4.89488e-14 -7.82639e-14 0)
(4.01585e-15 -1.8555e-13 0)
(1.36449e-14 -1.6745e-13 0)
(2.36868e-15 -1.19775e-13 0)
(6.14421e-15 -5.167e-14 0)
(6.89122e-15 3.26667e-14 0)
(1.43096e-14 1.02139e-13 0)
(2.25705e-14 1.43346e-13 0)
(3.12779e-14 1.49164e-13 0)
(3.76813e-14 1.25268e-13 0)
(4.1181e-14 8.01937e-14 0)
(4.10442e-14 2.85638e-14 0)
(3.8021e-14 -1.77091e-14 0)
(3.29258e-14 -4.88184e-14 0)
(2.71626e-14 -6.10727e-14 0)
(2.17377e-14 -5.51087e-14 0)
(1.75617e-14 -3.59032e-14 0)
(1.48695e-14 -1.00429e-14 0)
(1.3684e-14 1.56408e-14 0)
(1.35232e-14 3.59349e-14 0)
(1.39714e-14 4.78339e-14 0)
(1.44246e-14 5.07654e-14 0)
(1.45788e-14 4.60656e-14 0)
(1.41446e-14 3.6239e-14 0)
(1.31456e-14 2.41417e-14 0)
(1.16312e-14 1.22935e-14 0)
(9.8114e-15 2.49246e-15 0)
(7.84317e-15 -4.35851e-15 0)
(5.90591e-15 -8.11931e-15 0)
(4.07139e-15 -9.2213e-15 0)
(2.37523e-15 -8.33751e-15 0)
(7.68021e-16 -6.1884e-15 0)
(-8.22293e-16 -3.33697e-15 0)
(-2.46627e-15 -1.8499e-16 0)
(-4.23558e-15 2.9896e-15 0)
(-6.08281e-15 5.96946e-15 0)
(-8.0508e-15 8.37357e-15 0)
(-9.89689e-15 9.89421e-15 0)
(-1.17787e-14 9.86962e-15 0)
(-1.326e-14 8.23498e-15 0)
(-1.49163e-14 4.45682e-15 0)
(-1.59999e-14 -4.20386e-16 0)
(-1.78336e-14 -6.44961e-15 0)
(-1.8934e-14 -1.10677e-14 0)
(-2.15813e-14 -1.46028e-14 0)
(-2.29398e-14 -1.37989e-14 0)
(-2.63789e-14 -1.10783e-14 0)
(-2.73253e-14 -3.86211e-15 0)
(-3.03046e-14 2.28017e-15 0)
(-2.93766e-14 9.10328e-15 0)
(-3.06025e-14 9.76164e-15 0)
(-2.6138e-14 7.19489e-15 0)
(-2.75167e-14 -2.62815e-15 0)
(-1.71205e-14 -1.22449e-14 0)
(-2.51722e-14 -2.2729e-14 0)
(-7.58691e-15 -2.11841e-14 0)
(-1.67445e-14 -1.84297e-14 0)
(-1.84222e-14 -4.18556e-15 0)
(2.03706e-14 1.59806e-14 0)
(-3.28071e-14 3.8611e-13 0)
(-5.08162e-14 -4.65575e-14 0)
(1.22563e-15 -8.50255e-14 0)
(1.81081e-14 -7.33286e-14 0)
(7.34628e-15 -5.71098e-14 0)
(1.31815e-14 -3.01045e-14 0)
(1.43241e-14 5.42069e-15 0)
(2.16133e-14 3.61837e-14 0)
(2.90939e-14 5.62351e-14 0)
(3.6954e-14 6.17766e-14 0)
(4.25758e-14 5.44973e-14 0)
(4.55861e-14 3.73824e-14 0)
(4.52816e-14 1.6404e-14 0)
(4.23826e-14 -3.45091e-15 0)
(3.75649e-14 -1.76958e-14 0)
(3.2104e-14 -2.4412e-14 0)
(2.68616e-14 -2.33933e-14 0)
(2.26848e-14 -1.64339e-14 0)
(1.97725e-14 -6.09541e-15 0)
(1.81894e-14 4.74953e-15 0)
(1.7503e-14 1.38094e-14 0)
(1.73874e-14 1.96217e-14 0)
(1.72919e-14 2.1741e-14 0)
(1.6972e-14 2.05419e-14 0)
(1.61488e-14 1.69528e-14 0)
(1.4854e-14 1.21158e-14 0)
(1.31103e-14 7.09864e-15 0)
(1.11068e-14 2.71916e-15 0)
(8.96836e-15 -5.46096e-16 0)
(6.85392e-15 -2.52084e-15 0)
(4.8178e-15 -3.27398e-15 0)
(2.89048e-15 -2.99527e-15 0)
(1.02149e-15 -1.94296e-15 0)
(-8.57339e-16 -3.62993e-16 0)
(-2.81082e-15 1.49172e-15 0)
(-4.91084e-15 3.3682e-15 0)
(-7.10319e-15 4.99918e-15 0)
(-9.44427e-15 6.06708e-15 0)
(-1.16743e-14 6.33843e-15 0)
(-1.39836e-14 5.54432e-15 0)
(-1.58797e-14 3.79486e-15 0)
(-1.80056e-14 1.11073e-15 0)
(-1.94824e-14 -1.7373e-15 0)
(-2.17804e-14 -4.51228e-15 0)
(-2.3164e-14 -5.89817e-15 0)
(-2.62173e-14 -6.14785e-15 0)
(-2.76897e-14 -3.97844e-15 0)
(-3.14788e-14 -1.07212e-15 0)
(-3.2389e-14 3.47282e-15 0)
(-3.56995e-14 6.36985e-15 0)
(-3.46272e-14 8.78729e-15 0)
(-3.61839e-14 6.94969e-15 0)
(-3.12735e-14 3.96414e-15 0)
(-3.31017e-14 -3.25473e-15 0)
(-2.11821e-14 -7.63202e-15 0)
(-3.03107e-14 -1.34419e-14 0)
(-9.49368e-15 -9.33254e-15 0)
(-1.98239e-14 -8.01041e-15 0)
(-2.0562e-14 3.39664e-15 0)
(2.45053e-14 7.53444e-15 0)
(-2.68688e-14 2.49682e-13 0)
(-4.94228e-14 -3.42156e-14 0)
(-4.22896e-16 -3.45957e-14 0)
(2.22399e-14 -2.27412e-14 0)
(1.16155e-14 -1.9666e-14 0)
(1.92355e-14 -1.22456e-14 0)
(2.07821e-14 -1.79142e-15 0)
(2.82503e-14 7.78919e-15 0)
(3.54118e-14 1.46867e-14 0)
(4.28926e-14 1.76126e-14 0)
(4.80992e-14 1.66585e-14 0)
(5.082e-14 1.25153e-14 0)
(5.03571e-14 6.79206e-15 0)
(4.74335e-14 9.32697e-16 0)
(4.26479e-14 -3.63143e-15 0)
(3.72197e-14 -6.19351e-15 0)
(3.19289e-14 -6.49812e-15 0)
(2.76013e-14 -4.93502e-15 0)
(2.44149e-14 -2.15427e-15 0)
(2.24654e-14 1.01808e-15 0)
(2.13437e-14 3.87611e-15 0)
(2.07797e-14 5.91429e-15 0)
(2.02456e-14 6.91387e-15 0)
(1.95357e-14 6.90273e-15 0)
(1.83687e-14 6.09092e-15 0)
(1.67857e-14 4.77909e-15 0)
(1.47889e-14 3.27349e-15 0)
(1.25585e-14 1.83309e-15 0)
(1.01998e-14 6.35965e-16 0)
(7.85979e-15 -2.07521e-16 0)
(5.58221e-15 -6.51825e-16 0)
(3.39445e-15 -6.84515e-16 0)
(1.24305e-15 -3.30374e-16 0)
(-9.36464e-16 3.59392e-16 0)
(-3.20796e-15 1.28373e-15 0)
(-5.64453e-15 2.28964e-15 0)
(-8.18576e-15 3.17995e-15 0)
(-1.09003e-14 3.72013e-15 0)
(-1.351e-14 3.72835e-15 0)
(-1.62378e-14 3.06518e-15 0)
(-1.85367e-14 1.81723e-15 0)
(-2.11201e-14 1.2316e-16 0)
(-2.29845e-14 -1.5383e-15 0)
(-2.57518e-14 -2.87062e-15 0)
(-2.74412e-14 -3.23976e-15 0)
(-3.09347e-14 -2.68487e-15 0)
(-3.25711e-14 -8.65871e-16 0)
(-3.6752e-14 1.38925e-15 0)
(-3.76638e-14 4.00471e-15 0)
(-4.13051e-14 5.5471e-15 0)
(-4.00699e-14 6.09347e-15 0)
(-4.18884e-14 4.37939e-15 0)
(-3.64792e-14 1.77221e-15 0)
(-3.86686e-14 -2.66998e-15 0)
(-2.52487e-14 -4.99008e-15 0)
(-3.54293e-14 -7.77326e-15 0)
(-1.15233e-14 -4.75942e-15 0)
(-2.30148e-14 -2.97817e-15 0)
(-2.29227e-14 3.74396e-15 0)
(2.83158e-14 2.25746e-15 0)
(-1.85288e-14 1.39358e-13 0)
(-4.48847e-14 -3.12139e-14 0)
(-1.33905e-15 -1.49531e-14 0)
(2.63215e-14 -1.13735e-15 0)
(1.56777e-14 -1.94177e-15 0)
(2.49178e-14 -2.01479e-15 0)
(2.6857e-14 -1.85369e-15 0)
(3.46196e-14 -1.60825e-15 0)
(4.1665e-14 -1.11573e-15 0)
(4.89786e-14 -3.45869e-16 0)
(5.39476e-14 3.71733e-16 0)
(5.64862e-14 9.91528e-16 0)
(5.58876e-14 1.37411e-15 0)
(5.28863e-14 1.48825e-15 0)
(4.80287e-14 1.37419e-15 0)
(4.25117e-14 1.09759e-15 0)
(3.7062e-14 7.7496e-16 0)
(3.2503e-14 4.93502e-16 0)
(2.90046e-14 3.30468e-16 0)
(2.66894e-14 3.10095e-16 0)
(2.51628e-14 4.21173e-16 0)
(2.41943e-14 6.23289e-16 0)
(2.32681e-14 8.61712e-16 0)
(2.2204e-14 1.0829e-15 0)
(2.07144e-14 1.23796e-15 0)
(1.88457e-14 1.29443e-15 0)
(1.65851e-14 1.23567e-15 0)
(1.41064e-14 1.06431e-15 0)
(1.15007e-14 8.01716e-16 0)
(8.90845e-15 4.95914e-16 0)
(6.36487e-15 2.13274e-16 0)
(3.89626e-15 3.59848e-17 0)
(1.44809e-15 4.01648e-17 0)
(-1.04283e-15 2.74696e-16 0)
(-3.63904e-15 7.35555e-16 0)
(-6.41626e-15 1.34512e-15 0)
(-9.30853e-15 1.96782e-15 0)
(-1.23973e-14 2.409e-15 0)
(-1.53878e-14 2.50034e-15 0)
(-1.8535e-14 2.10645e-15 0)
(-2.12405e-14 1.25552e-15 0)
(-2.42873e-14 5.71492e-17 0)
(-2.65518e-14 -1.16125e-15 0)
(-2.98024e-14 -2.11399e-15 0)
(-3.18204e-14 -2.40167e-15 0)
(-3.5773e-14 -1.91811e-15 0)
(-3.75972e-14 -6.14589e-16 0)
(-4.21785e-14 1.16031e-15 0)
(-4.31021e-14 2.93158e-15 0)
(-4.70587e-14 4.17728e-15 0)
(-4.56492e-14 4.25928e-15 0)
(-4.76913e-14 3.15609e-15 0)
(-4.17718e-14 9.35163e-16 0)
(-4.42776e-14 -2.03663e-15 0)
(-2.94002e-14 -3.83471e-15 0)
(-4.0589e-14 -5.47549e-15 0)
(-1.36897e-14 -3.81796e-15 0)
(-2.62926e-14 -1.37896e-15 0)
(-2.53647e-14 2.03766e-15 0)
(3.19229e-14 -2.36553e-16 0)
(-9.27234e-15 9.15179e-14 0)
(-3.89403e-14 -3.19234e-14 0)
(-1.76201e-15 -9.39743e-15 0)
(3.04627e-14 6.5482e-15 0)
(1.97647e-14 5.52222e-15 0)
(3.05339e-14 3.11703e-15 0)
(3.28611e-14 -2.5666e-16 0)
(4.09514e-14 -3.66828e-15 0)
(4.79554e-14 -6.00055e-15 0)
(5.51838e-14 -6.62713e-15 0)
(5.99874e-14 -5.85878e-15 0)
(6.23949e-14 -3.88896e-15 0)
(6.16773e-14 -1.43764e-15 0)
(5.85859e-14 9.28064e-16 0)
(5.36206e-14 2.67895e-15 0)
(4.79656e-14 3.56797e-15 0)
(4.23098e-14 3.56841e-15 0)
(3.74806e-14 2.87431e-15 0)
(3.36468e-14 1.78546e-15 0)
(3.09568e-14 6.29626e-16 0)
(2.90277e-14 -3.34135e-16 0)
(2.76651e-14 -9.39678e-16 0)
(2.63586e-14 -1.14276e-15 0)
(2.49501e-14 -9.89598e-16 0)
(2.31429e-14 -5.98306e-16 0)
(2.09878e-14 -1.1112e-16 0)
(1.8456e-14 3.37053e-16 0)
(1.57176e-14 6.43891e-16 0)
(1.28508e-14 7.58143e-16 0)
(9.9909e-15 6.87296e-16 0)
(7.16654e-15 4.91644e-16 0)
(4.40446e-15 2.72114e-16 0)
(1.64801e-15 1.42624e-16 0)
(-1.16373e-15 1.96734e-16 0)
(-4.09184e-15 4.8025e-16 0)
(-7.21524e-15 9.5387e-16 0)
(-1.04635e-14 1.51557e-15 0)
(-1.39314e-14 1.98059e-15 0)
(-1.73082e-14 2.18048e-15 0)
(-2.0882e-14 1.95275e-15 0)
(-2.40042e-14 1.2924e-15 0)
(-2.75243e-14 2.64073e-16 0)
(-3.02043e-14 -8.4995e-16 0)
(-3.39499e-14 -1.78287e-15 0)
(-3.63136e-14 -2.17124e-15 0)
(-4.0733e-14 -1.8462e-15 0)
(-4.2759e-14 -8.05527e-16 0)
(-4.774e-14 7.91093e-16 0)
(-4.86817e-14 2.32356e-15 0)
(-5.29416e-14 3.61605e-15 0)
(-5.1358e-14 3.65271e-15 0)
(-5.36019e-14 2.91723e-15 0)
(-4.71803e-14 8.17182e-16 0)
(-4.99679e-14 -1.70993e-15 0)
(-3.36765e-14 -3.53175e-15 0)
(-4.58056e-14 -5.01432e-15 0)
(-1.59837e-14 -4.19611e-15 0)
(-2.96293e-14 -1.08755e-15 0)
(-2.78172e-14 2.2048e-16 0)
(3.53694e-14 -1.17713e-15 0)
(4.81733e-17 7.47412e-14 0)
(-3.25496e-14 -3.36929e-14 0)
(-1.79563e-15 -9.04073e-15 0)
(3.47029e-14 8.8552e-15 0)
(2.39623e-14 8.81938e-15 0)
(3.62e-14 5.85591e-15 0)
(3.8921e-14 1.44852e-15 0)
(4.73416e-14 -3.44984e-15 0)
(5.43326e-14 -7.14088e-15 0)
(6.1506e-14 -8.71906e-15 0)
(6.61776e-14 -8.34534e-15 0)
(6.8476e-14 -6.17813e-15 0)
(6.76545e-14 -3.09841e-15 0)
(6.44714e-14 1.35922e-16 0)
(5.93867e-14 2.74556e-15 0)
(5.35738e-14 4.31144e-15 0)
(4.76903e-14 4.68523e-15 0)
(4.257e-14 4.04781e-15 0)
(3.83829e-14 2.74685e-15 0)
(3.5306e-14 1.21281e-15 0)
(3.29685e-14 -1.85276e-16 0)
(3.12083e-14 -1.17995e-15 0)
(2.95205e-14 -1.66154e-15 0)
(2.77669e-14 -1.64629e-15 0)
(2.56403e-14 -1.25752e-15 0)
(2.31941e-14 -6.68099e-16 0)
(2.03854e-14 -5.61234e-17 0)
(1.7379e-14 4.30768e-16 0)
(1.42415e-14 7.03902e-16 0)
(1.1104e-14 7.44628e-16 0)
(7.98834e-15 6.02201e-16 0)
(4.9223e-15 3.8095e-16 0)
(1.84834e-15 2.10196e-16 0)
(-1.2925e-15 2.05935e-16 0)
(-4.56028e-15 4.40813e-16 0)
(-8.03682e-15 8.93657e-16 0)
(-1.16483e-14 1.47789e-15 0)
(-1.55026e-14 2.00252e-15 0)
(-1.92751e-14 2.29226e-15 0)
(-2.32849e-14 2.14955e-15 0)
(-2.68359e-14 1.55547e-15 0)
(-3.08408e-14 5.36585e-16 0)
(-3.39505e-14 -6.17939e-16 0)
(-3.82002e-14 -1.65329e-15 0)
(-4.09221e-14 -2.16453e-15 0)
(-4.58119e-14 -1.9591e-15 0)
(-4.80489e-14 -1.00079e-15 0)
(-5.34261e-14 6.02864e-16 0)
(-5.43942e-14 2.17277e-15 0)
(-5.89491e-14 3.63224e-15 0)
(-5.71996e-14 3.74437e-15 0)
(-5.96321e-14 3.17979e-15 0)
(-5.27248e-14 1.03292e-15 0)
(-5.57592e-14 -1.56127e-15 0)
(-3.80952e-14 -3.58714e-15 0)
(-5.10826e-14 -5.34172e-15 0)
(-1.83969e-14 -5.03433e-15 0)
(-3.30108e-14 -1.22624e-15 0)
(-3.0251e-14 -1.53433e-15 0)
(3.86707e-14 -1.43076e-15 0)
(9.10017e-15 6.91647e-14 0)
(-2.60879e-14 -3.56338e-14 0)
(-1.48097e-15 -1.04343e-14 0)
(3.90573e-14 9.24009e-15 0)
(2.82985e-14 1.061e-14 0)
(4.19568e-14 7.63363e-15 0)
(4.50806e-14 3.04504e-15 0)
(5.38262e-14 -2.59469e-15 0)
(6.08178e-14 -7.11517e-15 0)
(6.79488e-14 -9.45385e-15 0)
(7.25047e-14 -9.58361e-15 0)
(7.47108e-14 -7.57557e-15 0)
(7.37945e-14 -4.33422e-15 0)
(7.05234e-14 -6.93172e-16 0)
(6.53158e-14 2.42934e-15 0)
(5.93349e-14 4.49206e-15 0)
(5.32093e-14 5.23843e-15 0)
(4.77827e-14 4.79999e-15 0)
(4.32286e-14 3.5155e-15 0)
(3.97524e-14 1.85439e-15 0)
(3.69959e-14 2.39834e-16 0)
(3.48315e-14 -9.95663e-16 0)
(3.27564e-14 -1.68984e-15 0)
(3.06533e-14 -1.82429e-15 0)
(2.82026e-14 -1.50808e-15 0)
(2.54604e-14 -9.1895e-16 0)
(2.23686e-14 -2.54598e-16 0)
(1.90872e-14 3.13186e-16 0)
(1.56705e-14 6.69779e-16 0)
(1.22461e-14 7.76403e-16 0)
(8.83014e-15 6.71507e-16 0)
(5.45151e-15 4.58086e-16 0)
(2.05097e-15 2.75577e-16 0)
(-1.42711e-15 2.54783e-16 0)
(-5.0419e-15 4.88144e-16 0)
(-8.8789e-15 9.65694e-16 0)
(-1.2862e-14 1.6088e-15 0)
(-1.71111e-14 2.21327e-15 0)
(-2.12902e-14 2.59163e-15 0)
(-2.5747e-14 2.5078e-15 0)
(-2.97408e-14 1.93292e-15 0)
(-3.42417e-14 8.5757e-16 0)
(-3.77955e-14 -4.019e-16 0)
(-4.25565e-14 -1.5986e-15 0)
(-4.56478e-14 -2.25405e-15 0)
(-5.10082e-14 -2.16336e-15 0)
(-5.34644e-14 -1.22277e-15 0)
(-5.92326e-14 4.62657e-16 0)
(-6.02359e-14 2.18709e-15 0)
(-6.50792e-14 3.87674e-15 0)
(-6.31765e-14 4.1312e-15 0)
(-6.57871e-14 3.67836e-15 0)
(-5.8414e-14 1.43826e-15 0)
(-6.16617e-14 -1.42783e-15 0)
(-4.26644e-14 -3.71885e-15 0)
(-5.64236e-14 -5.95033e-15 0)
(-2.09256e-14 -6.05165e-15 0)
(-3.64325e-14 -1.51792e-15 0)
(-3.26552e-14 -3.3662e-15 0)
(4.18354e-14 -1.40634e-15 0)
(1.77709e-14 6.70623e-14 0)
(-1.96839e-14 -3.75273e-14 0)
(-8.31766e-16 -1.24892e-14 0)
(4.35361e-14 8.84488e-15 0)
(3.27848e-14 1.18302e-14 0)
(4.7819e-14 9.02346e-15 0)
(5.13559e-14 4.58471e-15 0)
(6.04172e-14 -1.52559e-15 0)
(6.74169e-14 -6.6797e-15 0)
(7.4512e-14 -9.71202e-15 0)
(7.89667e-14 -1.03852e-14 0)
(8.10915e-14 -8.66576e-15 0)
(8.00914e-14 -5.42993e-15 0)
(7.67369e-14 -1.54594e-15 0)
(7.14055e-14 1.96848e-15 0)
(6.52503e-14 4.46811e-15 0)
(5.88721e-14 5.59017e-15 0)
(5.31268e-14 5.40453e-15 0)
(4.81905e-14 4.21929e-15 0)
(4.43017e-14 2.52097e-15 0)
(4.11155e-14 7.67104e-16 0)
(3.85373e-14 -6.57098e-16 0)
(3.60678e-14 -1.54128e-15 0)
(3.3609e-14 -1.82914e-15 0)
(3.0829e-14 -1.60928e-15 0)
(2.77853e-14 -1.05532e-15 0)
(2.44046e-14 -3.75939e-16 0)
(2.08413e-14 2.39203e-16 0)
(1.71374e-14 6.5358e-16 0)
(1.3418e-14 8.09762e-16 0)
(9.69221e-15 7.34735e-16 0)
(5.99165e-15 5.29431e-16 0)
(2.25681e-15 3.41317e-16 0)
(-1.56673e-15 3.14768e-16 0)
(-5.53636e-15 5.61287e-16 0)
(-9.74139e-15 1.08065e-15 0)
(-1.41043e-14 1.80116e-15 0)
(-1.87572e-14 2.50217e-15 0)
(-2.33542e-14 2.98097e-15 0)
(-2.827e-14 2.96002e-15 0)
(-3.27211e-14 2.39589e-15 0)
(-3.77305e-14 1.2416e-15 0)
(-4.17422e-14 -1.5396e-16 0)
(-4.70223e-14 -1.55184e-15 0)
(-5.04933e-14 -2.38387e-15 0)
(-5.63241e-14 -2.43349e-15 0)
(-5.90063e-14 -1.50756e-15 0)
(-6.51592e-14 2.76437e-16 0)
(-6.62053e-14 2.20506e-15 0)
(-7.13304e-14 4.17082e-15 0)
(-6.92882e-14 4.62693e-15 0)
(-7.20678e-14 4.30017e-15 0)
(-6.42519e-14 1.98244e-15 0)
(-6.76793e-14 -1.22809e-15 0)
(-4.73897e-14 -3.80776e-15 0)
(-6.18327e-14 -6.64187e-15 0)
(-2.35688e-14 -7.16548e-15 0)
(-3.9896e-14 -1.8879e-15 0)
(-3.50256e-14 -5.38164e-15 0)
(4.48712e-14 -1.26294e-15 0)
(2.60225e-14 6.60527e-14 0)
(-1.33888e-14 -3.93467e-14 0)
(1.42444e-16 -1.49228e-14 0)
(4.81481e-14 7.98893e-15 0)
(3.74334e-14 1.27598e-14 0)
(5.37946e-14 1.02183e-14 0)
(5.77549e-14 6.12319e-15 0)
(6.71201e-14 -3.20826e-16 0)
(7.41338e-14 -6.0153e-15 0)
(8.11972e-14 -9.72284e-15 0)
(8.55632e-14 -1.09748e-14 0)
(8.76173e-14 -9.62217e-15 0)
(8.65442e-14 -6.48287e-15 0)
(8.31114e-14 -2.43835e-15 0)
(7.76579e-14 1.41281e-15 0)
(7.13219e-14 4.32897e-15 0)
(6.46819e-14 5.83867e-15 0)
(5.86047e-14 5.94194e-15 0)
(5.32719e-14 4.90404e-15 0)
(4.89575e-14 3.21559e-15 0)
(4.53304e-14 1.35972e-15 0)
(4.23281e-14 -2.3024e-16 0)
(3.94569e-14 -1.29813e-15 0)
(3.66354e-14 -1.74538e-15 0)
(3.35203e-14 -1.63628e-15 0)
(3.01695e-14 -1.13646e-15 0)
(2.64931e-14 -4.59534e-16 0)
(2.26412e-14 1.88075e-16 0)
(1.8643e-14 6.49983e-16 0)
(1.46192e-14 8.49817e-16 0)
(1.05746e-14 8.01541e-16 0)
(6.5432e-15 6.03412e-16 0)
(2.46566e-15 4.0916e-16 0)
(-1.71101e-15 3.77679e-16 0)
(-6.04356e-15 6.40348e-16 0)
(-1.06238e-14 1.20768e-15 0)
(-1.53746e-14 2.01629e-15 0)
(-2.04408e-14 2.82807e-15 0)
(-2.54672e-14 3.42387e-15 0)
(-3.08547e-14 3.4807e-15 0)
(-3.5778e-14 2.93561e-15 0)
(-4.13096e-14 1.69899e-15 0)
(-4.57944e-14 1.51741e-16 0)
(-5.16014e-14 -1.47792e-15 0)
(-5.54622e-14 -2.5223e-15 0)
(-6.17625e-14 -2.7514e-15 0)
(-6.46759e-14 -1.86245e-15 0)
(-7.12066e-14 1.00897e-17 0)
(-7.23019e-14 2.16415e-15 0)
(-7.77019e-14 4.44261e-15 0)
(-7.55339e-14 5.15692e-15 0)
(-7.84751e-14 4.99893e-15 0)
(-7.02404e-14 2.64464e-15 0)
(-7.38151e-14 -9.31363e-16 0)
(-5.22746e-14 -3.8094e-15 0)
(-6.73153e-14 -7.34359e-15 0)
(-2.6327e-14 -8.35311e-15 0)
(-4.34049e-14 -2.31784e-15 0)
(-3.73595e-14 -7.63928e-15 0)
(4.77869e-14 -1.058e-15 0)
(3.38365e-14 6.55438e-14 0)
(-7.2319e-15 -4.11066e-14 0)
(1.43352e-15 -1.76891e-14 0)
(5.29045e-14 6.73588e-15 0)
(4.22506e-14 1.34623e-14 0)
(5.98922e-14 1.12672e-14 0)
(6.4286e-14 7.68724e-15 0)
(7.39377e-14 1.0178e-15 0)
(8.09688e-14 -5.14649e-15 0)
(8.80037e-14 -9.52555e-15 0)
(9.22907e-14 -1.13964e-14 0)
(9.42855e-14 -1.04838e-14 0)
(9.31506e-14 -7.5201e-15 0)
(8.96474e-14 -3.38214e-15 0)
(8.40746e-14 7.64661e-16 0)
(7.75546e-14 4.08681e-15 0)
(7.06434e-14 6.00119e-15 0)
(6.4222e-14 6.42931e-15 0)
(5.84783e-14 5.58162e-15 0)
(5.3724e-14 3.94328e-15 0)
(4.96429e-14 2.01459e-15 0)
(4.6206e-14 2.74352e-16 0)
(4.29245e-14 -9.75054e-16 0)
(3.97328e-14 -1.59037e-15 0)
(3.62768e-14 -1.60674e-15 0)
(3.26131e-14 -1.17779e-15 0)
(2.86355e-14 -5.17526e-16 0)
(2.44872e-14 1.51976e-16 0)
(2.01865e-14 6.55575e-16 0)
(1.58498e-14 8.96527e-16 0)
(1.14779e-14 8.75107e-16 0)
(7.10645e-15 6.83477e-16 0)
(2.67725e-15 4.81906e-16 0)
(-1.86031e-15 4.43709e-16 0)
(-6.56345e-15 7.20781e-16 0)
(-1.1526e-14 1.33726e-15 0)
(-1.6673e-14 2.2399e-15 0)
(-2.2162e-14 3.17452e-15 0)
(-2.76298e-14 3.9048e-15 0)
(-3.35012e-14 4.05756e-15 0)
(-3.8913e-14 3.54878e-15 0)
(-4.49805e-14 2.23581e-15 0)
(-4.99551e-14 5.30578e-16 0)
(-5.62971e-14 -1.35567e-15 0)
(-6.05582e-14 -2.6466e-15 0)
(-6.73264e-14 -3.09991e-15 0)
(-7.04762e-14 -2.28261e-15 0)
(-7.73755e-14 -3.45263e-16 0)
(-7.85261e-14 2.04137e-15 0)
(-8.41926e-14 4.66006e-15 0)
(-8.19119e-14 5.68681e-15 0)
(-8.50074e-14 5.75028e-15 0)
(-7.63796e-14 3.41336e-15 0)
(-8.00719e-14 -5.25757e-16 0)
(-5.73225e-14 -3.70369e-15 0)
(-7.28776e-14 -8.02304e-15 0)
(-2.92011e-14 -9.60538e-15 0)
(-4.69644e-14 -2.8026e-15 0)
(-3.96554e-14 -1.01743e-14 0)
(5.05929e-14 -8.13424e-16 0)
(4.1198e-14 6.54384e-14 0)
(-1.24305e-15 -4.28231e-14 0)
(3.03554e-15 -2.08064e-14 0)
(5.78179e-14 5.07654e-15 0)
(4.72453e-14 1.39295e-14 0)
(6.61194e-14 1.21648e-14 0)
(7.09539e-14 9.27874e-15 0)
(8.08747e-14 2.49702e-15 0)
(8.7921e-14 -4.06293e-15 0)
(9.49309e-14 -9.10917e-15 0)
(9.91477e-14 -1.16406e-14 0)
(1.01095e-13 -1.12455e-14 0)
(9.99116e-14 -8.54083e-15 0)
(9.6347e-14 -4.38052e-15 0)
(9.06574e-14 1.80904e-17 0)
(8.39497e-14 3.73512e-15 0)
(7.67597e-14 6.0725e-15 0)
(6.9982e-14 6.86283e-15 0)
(6.3812e-14 6.25029e-15 0)
(5.86034e-14 4.70448e-15 0)
(5.40554e-14 2.73368e-15 0)
(5.01723e-14 8.59791e-16 0)
(4.64715e-14 -5.69168e-16 0)
(4.29021e-14 -1.36216e-15 0)
(3.90994e-14 -1.52055e-15 0)
(3.51169e-14 -1.17981e-15 0)
(3.0832e-14 -5.52031e-16 0)
(2.63803e-14 1.29128e-16 0)
(2.17688e-14 6.68956e-16 0)
(1.71113e-14 9.4995e-16 0)
(1.2402e-14 9.56454e-16 0)
(7.68124e-15 7.71919e-16 0)
(2.89187e-15 5.62643e-16 0)
(-2.01502e-15 5.15095e-16 0)
(-7.09655e-15 8.02757e-16 0)
(-1.24486e-14 1.4663e-15 0)
(-1.80002e-14 2.4655e-15 0)
(-2.39206e-14 3.53232e-15 0)
(-2.98414e-14 4.41445e-15 0)
(-3.62099e-14 4.68362e-15 0)
(-4.21266e-14 4.23313e-15 0)
(-4.87456e-14 2.85658e-15 0)
(-5.42262e-14 9.94273e-16 0)
(-6.11127e-14 -1.16808e-15 0)
(-6.57852e-14 -2.73768e-15 0)
(-7.30201e-14 -3.46273e-15 0)
(-7.64098e-14 -2.75952e-15 0)
(-8.3667e-14 -7.91344e-16 0)
(-8.48767e-14 1.82387e-15 0)
(-9.08015e-14 4.80168e-15 0)
(-8.84197e-14 6.19233e-15 0)
(-9.1664e-14 6.53538e-15 0)
(-8.26697e-14 4.27922e-15 0)
(-8.64504e-14 -5.17283e-18 0)
(-6.25373e-14 -3.47566e-15 0)
(-7.85268e-14 -8.65743e-15 0)
(-3.21924e-14 -1.09131e-14 0)
(-5.0581e-14 -3.33751e-15 0)
(-4.1912e-14 -1.30122e-14 0)
(5.3301e-14 -5.4017e-16 0)
(4.80922e-14 6.57365e-14 0)
(4.54907e-15 -4.45041e-14 0)
(4.93804e-15 -2.4306e-14 0)
(6.29016e-14 2.98188e-15 0)
(5.24301e-14 1.41267e-14 0)
(7.24822e-14 1.28804e-14 0)
(7.77666e-14 1.08819e-14 0)
(8.79347e-14 4.11578e-15 0)
(9.49934e-14 -2.75004e-15 0)
(1.01975e-13 -8.45043e-15 0)
(1.0613e-13 -1.16813e-14 0)
(1.08044e-13 -1.18838e-14 0)
(1.06824e-13 -9.53008e-15 0)
(1.03209e-13 -5.42861e-15 0)
(9.74078e-14 -8.29952e-16 0)
(9.05108e-14 3.26481e-15 0)
(8.30356e-14 6.04011e-15 0)
(7.58889e-14 7.23149e-15 0)
(6.92772e-14 6.90224e-15 0)
(6.35989e-14 5.49522e-15 0)
(5.85694e-14 3.51834e-15 0)
(5.42279e-14 1.53034e-15 0)
(5.00991e-14 -7.40287e-17 0)
(4.61436e-14 -1.05385e-15 0)
(4.19878e-14 -1.37136e-15 0)
(3.76811e-14 -1.13805e-15 0)
(3.30822e-14 -5.60277e-16 0)
(2.83216e-14 1.20511e-16 0)
(2.33906e-14 6.90341e-16 0)
(1.84029e-14 1.01039e-15 0)
(1.33474e-14 1.04663e-15 0)
(8.26794e-15 8.71585e-16 0)
(3.10902e-15 6.54636e-16 0)
(-2.17641e-15 5.94623e-16 0)
(-7.64346e-15 8.87666e-16 0)
(-1.33918e-14 1.59346e-15 0)
(-1.93557e-14 2.68863e-15 0)
(-2.57159e-14 3.8945e-15 0)
(-3.21018e-14 4.94447e-15 0)
(-3.89803e-14 5.35289e-15 0)
(-4.54195e-14 4.98592e-15 0)
(-5.2606e-14 3.56515e-15 0)
(-5.86099e-14 1.55349e-15 0)
(-6.60517e-14 -8.9828e-16 0)
(-7.11474e-14 -2.77728e-15 0)
(-7.8847e-14 -3.82318e-15 0)
(-8.24793e-14 -3.28294e-15 0)
(-9.00846e-14 -1.32837e-15 0)
(-9.13543e-14 1.49983e-15 0)
(-9.75264e-14 4.8478e-15 0)
(-9.50553e-14 6.64992e-15 0)
(-9.84416e-14 7.33495e-15 0)
(-8.91091e-14 5.23273e-15 0)
(-9.29525e-14 6.3471e-16 0)
(-6.79216e-14 -3.11017e-15 0)