/*--------------------------------*- C++ -*----------------------------------*\
| =========                 |                                                 |
| \\      /  F ield         | foam-extend: Open Source CFD                    |
|  \\    /   O peration     | Version:     4.0                                |
|   \\  /    A nd           | Web:         http://www.foam-extend.org         |
|    \\/     M anipulation  |                                                 |
\*---------------------------------------------------------------------------*/
FoamFile
{
    version     2.0;
    format      ascii;
    class       surfaceScalarField;
    location    "6";
    object      phi;
}
// * * * * * * * * * * * * * * * * * * * * * * * * * * * * * * * * * * * * * //

dimensions      [0 3 -1 0 0 0 0];

internalField   nonuniform List<scalar> 
13744
(
-9.64769e-09
9.64735e-09
3.83054e-09
-1.34782e-08
1.29779e-10
3.70076e-09
4.39694e-11
8.58106e-11
1.52494e-11
2.87205e-11
8.58376e-12
6.66772e-12
4.8775e-12
3.70776e-12
3.20876e-12
1.66805e-12
2.16097e-12
1.04738e-12
1.54586e-12
6.16507e-13
1.13137e-12
4.15556e-13
8.52383e-13
2.81386e-13
6.54628e-13
1.96287e-13
5.0925e-13
1.46327e-13
4.02304e-13
1.06082e-13
3.20261e-13
8.05467e-14
2.56468e-13
6.38378e-14
2.06673e-13
4.81282e-14
1.67441e-13
4.10783e-14
1.34831e-13
3.06977e-14
1.09301e-13
2.65898e-14
8.83303e-14
1.94289e-14
7.02266e-14
1.74305e-14
5.58665e-14
1.37668e-14
4.38196e-14
1.2601e-14
3.25845e-14
1.16018e-14
2.35944e-14
1.04916e-14
1.55676e-14
1.00475e-14
7.16544e-15
9.54792e-15
-1.03548e-15
7.71605e-15
-4.41756e-15
2.27596e-15
-1.81732e-14
1.33227e-14
-2.35797e-14
4.10783e-15
-2.98739e-14
5.21805e-15
-4.65496e-14
1.88183e-14
-5.58738e-14
9.49241e-15
-6.75088e-14
9.82547e-15
-9.10458e-14
2.30926e-14
-1.09295e-13
1.85407e-14
-1.32083e-13
1.9762e-14
-1.70136e-13
3.63598e-14
-2.06637e-13
3.78031e-14
-2.53729e-13
4.7351e-14
-3.22994e-13
6.80567e-14
-4.02323e-13
7.94365e-14
-5.06548e-13
1.0375e-13
-6.57377e-13
1.50324e-13
-8.52391e-13
1.95066e-13
-1.12864e-12
2.76057e-13
-1.54858e-12
4.19331e-13
-2.16097e-12
6.14175e-13
-3.20605e-12
1.04494e-12
-4.88022e-12
1.67505e-12
-8.58377e-12
3.70165e-12
-1.52467e-11
6.66467e-12
-4.39721e-11
2.87261e-11
-1.29779e-10
8.5806e-11
-3.83054e-09
3.70076e-09
9.64769e-09
-1.34782e-08
9.64769e-09
3.90089e-08
-2.93615e-08
6.12389e-09
1.94067e-08
3.90121e-10
9.43453e-09
1.36175e-10
3.39753e-10
4.72904e-11
1.17605e-10
2.68878e-11
2.70693e-11
1.51359e-11
1.54578e-11
1.00578e-11
6.74871e-12
6.71163e-12
4.39687e-12
4.84078e-12
2.4864e-12
3.51861e-12
1.73705e-12
2.66842e-12
1.12554e-12
2.03519e-12
8.32501e-13
1.59499e-12
5.82201e-13
1.25289e-12
4.51084e-13
9.99892e-13
3.38229e-13
8.01041e-13
2.62845e-13
6.46177e-13
2.08888e-13
5.2059e-13
1.64091e-13
4.23237e-13
1.34115e-13
3.41179e-13
1.06359e-13
2.74534e-13
8.90954e-14
2.21049e-13
6.92779e-14
1.74746e-13
6.00631e-14
1.35258e-13
5.20139e-14
1.03627e-13
4.10227e-14
7.37618e-14
3.7581e-14
4.69401e-14
3.24185e-14
2.47864e-14
3.11973e-14
5.87046e-16
3.01981e-14
-3.00001e-14
3.14748e-14
-4.00674e-14
2.30926e-14
-7.37254e-14
4.02456e-14
-1.10324e-13
4.64628e-14
-1.286e-13
3.33067e-14
-1.74766e-13
5.50671e-14
-2.27726e-13
6.65579e-14
-2.67838e-13
6.69464e-14
-3.41161e-13
9.02056e-14
-4.29859e-13
1.14186e-13
-5.13855e-13
1.23568e-13
-6.46108e-13
1.6781e-13
-8.0768e-13
2.09055e-13
-9.93239e-13
2.55906e-13
-1.25294e-12
3.41505e-13
-1.60171e-12
4.52638e-13
-2.02856e-12
5.77982e-13
-2.66844e-12
8.34666e-13
-3.52528e-12
1.12932e-12
-4.8341e-12
1.72751e-12
-6.71165e-12
2.48884e-12
-1.00645e-11
4.39843e-12
-1.51293e-11
6.7365e-12
-2.68878e-11
1.54641e-11
-4.72971e-11
2.70699e-11
-1.36169e-10
1.17599e-10
-3.90121e-10
3.39759e-10
-6.1239e-09
9.43454e-09
-3.90089e-08
1.94067e-08
-2.93612e-08
2.90125e-08
-5.8374e-08
1.12296e-08
3.71896e-08
6.49022e-10
2.00151e-08
2.33687e-10
7.55093e-10
8.20799e-11
2.69214e-10
4.68054e-11
6.23414e-11
2.62886e-11
3.59739e-11
1.75257e-11
1.55092e-11
1.166e-11
1.02615e-11
8.43714e-12
5.70878e-12
6.11426e-12
4.05747e-12
4.64991e-12
2.59281e-12
3.53949e-12
1.94401e-12
2.77823e-12
1.35141e-12
2.1794e-12
1.04917e-12
1.74306e-12
7.71896e-13
1.39314e-12
6.09589e-13
1.12593e-12
4.71012e-13
9.07287e-13
3.82361e-13
7.3672e-13
3.00517e-13
5.9432e-13
2.51174e-13
4.79493e-13
2.04628e-13
3.84361e-13
1.69163e-13
3.04741e-13
1.43933e-13
2.36713e-13
1.17809e-13
1.79869e-13
1.00045e-13
1.28636e-13
8.72427e-14
8.2797e-14
8.21912e-14
4.18449e-14
7.23449e-14
-6.63237e-16
7.94712e-14
-4.39302e-14
7.8354e-14
-7.88166e-14
6.06945e-14
-1.28578e-13
8.90676e-14
-1.83531e-13
9.584e-14
-2.3311e-13
8.65766e-14
-3.04765e-13
1.27891e-13
-3.87984e-13
1.50061e-13
-4.75838e-13
1.49075e-13
-5.94285e-13
2.09686e-13
-7.40293e-13
2.60618e-13
-9.0358e-13
2.88554e-13
-1.12586e-12
3.89959e-13
-1.39672e-12
4.74815e-13
-1.73946e-12
5.98778e-13
-2.17946e-12
7.77552e-13
-2.78192e-12
1.05937e-12
-3.53592e-12
1.33608e-12
-4.64994e-12
1.94865e-12
-6.11788e-12
2.60429e-12
-8.43351e-12
4.04454e-12
-1.16601e-11
5.71267e-12
-1.75293e-11
1.0265e-11
-2.6285e-11
1.54934e-11
-4.68055e-11
3.59823e-11
-8.20836e-11
6.23498e-11
-2.33683e-10
2.69192e-10
-6.49022e-10
7.55099e-10
-1.12296e-08
2.00151e-08
-2.90125e-08
3.71896e-08
-5.83736e-08
1.24515e-08
-7.08255e-08
1.06388e-08
3.90024e-08
9.01427e-10
2.97524e-08
3.35476e-10
1.32104e-09
1.19857e-10
4.84829e-10
6.83584e-11
1.13838e-10
3.84225e-11
6.59111e-11
2.56337e-11
2.83006e-11
1.70446e-11
1.88485e-11
1.23459e-11
1.04055e-11
8.939e-12
7.46672e-12
6.80469e-12
4.72897e-12
5.17679e-12
3.56949e-12
4.06551e-12
2.45923e-12
3.18805e-12
1.92494e-12
2.55188e-12
1.40803e-12
2.03791e-12
1.12619e-12
1.64832e-12
8.64829e-13
1.32853e-12
7.00818e-13
1.07825e-12
5.49075e-13
8.70217e-13
4.61693e-13
7.02895e-13
3.70183e-13
5.62457e-13
3.05339e-13
4.46508e-13
2.54206e-13
3.47392e-13
2.18107e-13
2.63065e-13
1.84026e-13
1.88525e-13
1.67484e-13
1.21832e-13
1.46359e-13
6.01668e-14
1.31645e-13
-1.18535e-15
1.32654e-13
-5.95726e-14
1.37002e-13
-1.21089e-13
1.19647e-13
-1.88448e-13
1.59369e-13
-2.63503e-13
1.74288e-13
-3.47013e-13
1.65798e-13
-4.46544e-13
2.24001e-13
-5.62861e-13
2.65423e-13
-7.02444e-13
2.91142e-13
-8.7017e-13
3.76713e-13
-1.07859e-12
4.61135e-13
-1.32804e-12
5.34073e-13
-1.64825e-12
7.14564e-13
-2.03827e-12
8.72042e-13
-2.55152e-12
1.11131e-12
-3.18811e-12
1.41813e-12
-4.06598e-12
1.933e-12
-5.17645e-12
2.43744e-12
-6.80472e-12
3.57861e-12
-8.93941e-12
4.73433e-12
-1.23454e-11
7.45367e-12
-1.70446e-11
1.04179e-11
-2.56342e-11
1.88613e-11
-3.84221e-11
2.82821e-11
-6.83585e-11
6.5917e-11
-1.19857e-10
1.1385e-10
-3.35476e-10
4.84815e-10
-9.01427e-10
1.32105e-09
-1.06388e-08
2.97524e-08
-1.24515e-08
3.90023e-08
-7.08251e-08
1.21886e-08
-8.3014e-08
8.79658e-09
4.23944e-08
1.15307e-09
3.73959e-08
4.41005e-10
2.0331e-09
1.60714e-10
7.65121e-10
9.16223e-11
1.82935e-10
5.15947e-11
1.05939e-10
3.44213e-11
4.54731e-11
2.28934e-11
3.03733e-11
1.65867e-11
1.67173e-11
1.20084e-11
1.20437e-11
9.14425e-12
7.59085e-12
6.9556e-12
5.75472e-12
5.46421e-12
3.94952e-12
4.28436e-12
3.10621e-12
3.43036e-12
2.2656e-12
2.73933e-12
1.81934e-12
2.21617e-12
1.38354e-12
1.78622e-12
1.13537e-12
1.4501e-12
8.89221e-13
1.17037e-12
7.40462e-13
9.45533e-13
5.9242e-13
7.56724e-13
4.96162e-13
6.00829e-13
4.1564e-13
4.6747e-13
3.57533e-13
3.54086e-13
2.97965e-13
2.5374e-13
2.66481e-13
1.63902e-13
2.3862e-13
8.07379e-14
2.12334e-13
-8.21895e-16
2.17033e-13
-8.06929e-14
2.16865e-13
-1.62877e-13
1.99753e-13
-2.53651e-13
2.44162e-13
-3.54859e-13
2.74827e-13
-4.66761e-13
2.78092e-13
-6.00863e-13
3.60614e-13
-7.57454e-13
4.19194e-13
-9.44735e-13
4.78475e-13
-1.17033e-12
6.03191e-13
-1.45076e-12
7.50355e-13
-1.7854e-12
8.70972e-13
-2.21613e-12
1.13992e-12
-2.74004e-12
1.39733e-12
-3.42967e-12
1.80031e-12
-4.28444e-12
2.26863e-12
-5.46502e-12
3.11014e-12
-6.95491e-12
3.93061e-12
-9.14428e-12
5.76442e-12
-1.20092e-11
7.59638e-12
-1.6586e-11
1.20291e-11
-2.28934e-11
1.67233e-11
-3.44221e-11
3.03832e-11
-5.1594e-11
4.54534e-11
-9.16224e-11
1.05949e-10
-1.60715e-10
1.82939e-10
-4.41004e-10
7.65104e-10
-1.15307e-09
2.03311e-09
-8.79659e-09
3.73959e-08
-1.21886e-08
4.23943e-08
-8.30137e-08
1.53351e-08
-9.83492e-08
8.53374e-09
4.91957e-08
1.40664e-09
4.4523e-08
5.50186e-10
2.88956e-09
2.04735e-10
1.11058e-09
1.16672e-10
2.70997e-10
6.58647e-11
1.56747e-10
4.39283e-11
6.74124e-11
2.92357e-11
4.50723e-11
2.11813e-11
2.47658e-11
1.53382e-11
1.78905e-11
1.16807e-11
1.12462e-11
8.88575e-12
8.55832e-12
6.98139e-12
5.85548e-12
5.47426e-12
4.6114e-12
4.38355e-12
3.35119e-12
3.50085e-12
2.70227e-12
2.8326e-12
2.05272e-12
2.28322e-12
1.68282e-12
1.85393e-12
1.31759e-12
1.49643e-12
1.0911e-12
1.2091e-12
8.89162e-13
9.6788e-13
7.35232e-13
7.68545e-13
6.10377e-13
5.97959e-13
5.21888e-13
4.53074e-13
4.44153e-13
3.24656e-13
3.92283e-13
2.0963e-13
3.54477e-13
1.03275e-13
3.26859e-13
-5.98912e-16
3.21325e-13
-1.03925e-13
3.22855e-13
-2.07919e-13
3.0763e-13
-3.24547e-13
3.65379e-13
-4.54556e-13
4.03507e-13
-5.96554e-13
4.22221e-13
-7.68587e-13
5.31492e-13
-9.69297e-13
6.23381e-13
-1.20757e-12
7.15782e-13
-1.49639e-12
8.90706e-13
-1.8553e-12
1.10461e-12
-2.2817e-12
1.29667e-12
-2.83256e-12
1.69336e-12
-3.50228e-12
2.06098e-12
-4.38217e-12
2.68028e-12
-5.47433e-12
3.36075e-12
-6.9829e-12
4.62118e-12
-8.88435e-12
5.83462e-12
-1.16808e-11
8.5635e-12
-1.53397e-11
1.1265e-11
-2.11799e-11
1.78646e-11
-2.92357e-11
2.47811e-11
-4.39298e-11
4.50802e-11
-6.58633e-11
6.7388e-11
-1.16672e-10
1.5676e-10
-2.04736e-10
2.7101e-10
-5.50185e-10
1.11056e-09
-1.40664e-09
2.88957e-09
-8.53374e-09
4.4523e-08
-1.53351e-08
4.91957e-08
-9.83488e-08
1.55129e-08
-1.13862e-07
8.81488e-09
5.58937e-08
1.6593e-09
5.16786e-08
6.63007e-10
3.88585e-09
2.5199e-10
1.52159e-09
1.43578e-10
3.79403e-10
8.12923e-11
2.19035e-10
5.41961e-11
9.45028e-11
3.6102e-11
6.3163e-11
2.6152e-11
3.47216e-11
1.89451e-11
2.50933e-11
1.4427e-11
1.57686e-11
1.09773e-11
1.19993e-11
8.62477e-12
8.2067e-12
6.76399e-12
6.47821e-12
5.41661e-12
4.69961e-12
4.3264e-12
3.78624e-12
3.50087e-12
2.87974e-12
2.82232e-12
2.3594e-12
2.29182e-12
1.85067e-12
1.85021e-12
1.54122e-12
1.49513e-12
1.23572e-12
1.19696e-12
1.03475e-12
9.50578e-13
8.56269e-13
7.3972e-13
7.3216e-13
5.6046e-13
6.24234e-13
4.01673e-13
5.5197e-13
2.59394e-13
4.91596e-13
1.27641e-13
4.54586e-13
-5.89917e-16
4.50195e-13
-1.2832e-13
4.40206e-13
-2.57686e-13
4.32645e-13
-4.01543e-13
5.11222e-13
-5.61933e-13
5.64451e-13
-7.38328e-13
5.96585e-13
-9.50623e-13
7.4271e-13
-1.19836e-12
8.71357e-13
-1.49361e-12
1.01059e-12
-1.85014e-12
1.25061e-12
-2.29318e-12
1.54886e-12
-2.82082e-12
1.82648e-12
-3.50085e-12
2.37247e-12
-4.32785e-12
2.8917e-12
-5.41524e-12
3.76562e-12
-6.76407e-12
4.71807e-12
-8.62626e-12
6.48787e-12
-1.09759e-11
8.18119e-12
-1.4427e-11
1.20129e-11
-1.89465e-11
1.57766e-11
-2.61506e-11
2.50706e-11
-3.6102e-11
3.473e-11
-5.41977e-11
6.31787e-11
-8.12909e-11
9.44835e-11
-1.43578e-10
2.19042e-10
-2.51991e-10
3.79415e-10
-6.63006e-10
1.52157e-09
-1.6593e-09
3.88586e-09
-8.81488e-09
5.16786e-08
-1.55129e-08
5.58937e-08
-1.13862e-07
1.4349e-08
-1.28211e-07
8.83341e-09
6.14094e-08
1.90825e-09
5.86038e-08
7.79204e-10
5.0149e-09
3.02531e-10
1.99826e-09
1.72411e-10
5.09526e-10
9.79378e-11
2.93506e-10
6.52676e-11
1.27175e-10
4.35239e-11
8.49078e-11
3.15218e-11
4.67222e-11
2.28467e-11
3.37707e-11
1.73964e-11
2.12163e-11
1.32409e-11
1.61592e-11
1.04027e-11
1.10441e-11
8.16018e-12
8.71171e-12
6.53476e-12
6.32722e-12
5.22037e-12
5.10397e-12
4.22447e-12
3.87247e-12
3.40631e-12
3.18239e-12
2.76613e-12
2.4878e-12
2.23353e-12
2.07316e-12
1.80513e-12
1.66406e-12
1.44525e-12
1.39395e-12
1.14791e-12
1.15516e-12
8.93464e-13
9.91508e-13
6.76885e-13
8.32796e-13
4.85199e-13
7.42321e-13
3.13393e-13
6.66092e-13
1.5403e-13
6.14957e-13
-6.02861e-16
6.03516e-13
-1.54558e-13
6.02516e-13
-3.11903e-13
5.96276e-13
-4.8506e-13
6.80785e-13
-6.78135e-13
7.57311e-13
-8.92295e-13
8.13037e-13
-1.14796e-12
1.00318e-12
-1.44642e-12
1.16864e-12
-1.80381e-12
1.37149e-12
-2.23347e-12
1.68014e-12
-2.76727e-12
2.08599e-12
-3.40504e-12
2.45784e-12
-4.22447e-12
3.19465e-12
-5.2216e-12
3.89039e-12
-6.53362e-12
5.08424e-12
-8.16027e-12
6.33613e-12
-1.0404e-11
8.72578e-12
-1.32397e-11
1.1016e-11
-1.73964e-11
1.61685e-11
-2.28479e-11
2.12353e-11
-3.15206e-11
3.37474e-11
-4.3524e-11
4.67338e-11
-6.52689e-11
8.49202e-11
-9.79366e-11
1.27148e-10
-1.72412e-10
2.93516e-10
-3.02533e-10
5.09541e-10
-7.79202e-10
1.99824e-09
-1.90825e-09
5.01491e-09
-8.83342e-09
5.86038e-08
-1.4349e-08
6.14093e-08
-1.28211e-07
1.33466e-08
-1.41558e-07
8.65078e-09
6.61051e-08
2.15232e-09
6.51022e-08
8.98376e-10
6.26884e-09
3.56395e-10
2.54024e-09
2.03236e-10
6.6269e-10
1.15862e-10
3.80877e-10
7.71862e-11
1.65854e-10
5.15344e-11
1.10559e-10
3.7315e-11
6.09381e-11
2.70616e-11
4.40245e-11
2.06031e-11
2.76788e-11
1.56874e-11
2.10699e-11
1.23239e-11
1.44116e-11
9.66984e-12
1.13727e-11
7.74361e-12
8.25288e-12
6.1873e-12
6.66459e-12
5.0071e-12
5.05813e-12
4.03818e-12
4.14662e-12
3.27937e-12
3.24586e-12
2.64843e-12
2.70137e-12
2.14068e-12
2.17337e-12
1.7141e-12
1.82386e-12
1.36161e-12
1.50797e-12
1.05996e-12
1.29227e-12
8.03018e-13
1.09805e-12
5.75695e-13
9.69735e-13
3.71884e-13
8.70181e-13
1.82627e-13
8.03476e-13
-5.58605e-16
7.86263e-13
-1.83089e-13
7.81369e-13
-3.70559e-13
7.79147e-13
-5.75538e-13
8.84551e-13
-8.04108e-13
9.92321e-13
-1.05896e-12
1.06922e-12
-1.36165e-12
1.30404e-12
-1.7151e-12
1.51963e-12
-2.13949e-12
1.79381e-12
-2.64837e-12
2.18138e-12
-3.28035e-12
2.71531e-12
-4.03706e-12
3.21633e-12
-5.00712e-12
4.1592e-12
-6.1884e-12
5.06666e-12
-7.74265e-12
6.63193e-12
-9.66993e-12
8.26774e-12
-1.2325e-11
1.13812e-11
-1.56864e-11
1.43791e-11
-2.06031e-11
2.10896e-11
-2.70627e-11
2.76849e-11
-3.7314e-11
4.39939e-11
-5.15345e-11
6.09538e-11
-7.71873e-11
1.10573e-10
-1.15861e-10
1.65828e-10
-2.03236e-10
3.80892e-10
-3.56397e-10
6.62698e-10
-8.98375e-10
2.54022e-09
-2.15232e-09
6.26885e-09
-8.65078e-09
6.51022e-08
-1.33466e-08
6.61051e-08
-1.41557e-07
1.25601e-08
-1.54118e-07
8.43296e-09
7.02322e-08
2.39068e-09
7.11445e-08
1.02012e-09
7.63939e-09
4.13597e-10
3.14677e-09
2.36111e-10
8.40174e-10
1.35124e-10
4.81869e-10
8.99964e-11
2.10978e-10
6.01672e-11
1.4039e-10
4.35568e-11
7.75542e-11
3.16091e-11
5.59679e-11
2.40621e-11
3.52242e-11
1.83287e-11
2.68072e-11
1.43977e-11
1.83399e-11
1.13003e-11
1.44692e-11
9.0491e-12
1.05024e-11
7.23204e-12
8.47687e-12
5.85267e-12
6.43718e-12
4.72111e-12
5.28033e-12
3.83411e-12
4.13435e-12
3.09704e-12
3.43863e-12
2.50352e-12
2.77414e-12
2.0049e-12
2.3175e-12
1.59276e-12
1.9221e-12
1.24011e-12
1.64112e-12
9.39502e-13
1.39873e-12
6.73634e-13
1.24087e-12
4.35178e-13
1.10521e-12
2.13599e-13
1.02574e-12
-5.08087e-16
1.00331e-12
-2.14042e-13
1.00032e-12
-4.33965e-13
9.99142e-13
-6.73446e-13
1.12979e-12
-9.40499e-13
1.24904e-12
-1.23921e-12
1.36403e-12
-1.59282e-12
1.65992e-12
-2.00579e-12
1.93627e-12
-2.50241e-12
2.28879e-12
-3.09697e-12
2.78644e-12
-3.83499e-12
3.45506e-12
-4.72012e-12
4.10979e-12
-5.85272e-12
5.2974e-12
-7.23306e-12
6.45253e-12
-9.04824e-12
8.45325e-12
-1.13004e-11
1.05147e-11
-1.43987e-11
1.4482e-11
-1.83277e-11
1.83048e-11
-2.40621e-11
2.68184e-11
-3.161e-11
3.52392e-11
-4.35558e-11
5.59426e-11
-6.01673e-11
7.75679e-11
-8.99975e-11
1.40405e-10
-1.35123e-10
2.10946e-10
-2.36111e-10
4.81882e-10
-4.13598e-10
8.40184e-10
-1.02012e-09
3.14675e-09
-2.39068e-09
7.63941e-09
-8.43296e-09
7.11445e-08
-1.25601e-08
7.02322e-08
-1.54117e-07
1.17811e-08
-1.65899e-07
8.21378e-09
7.37996e-08
2.62216e-09
7.67361e-08
1.14404e-09
9.11751e-09
4.74128e-10
3.81668e-09
2.71089e-10
1.04321e-09
1.55785e-10
5.97169e-10
1.03743e-10
2.63017e-10
6.94573e-11
1.74672e-10
5.02731e-11
9.67304e-11
3.65093e-11
6.97254e-11
2.77887e-11
4.39418e-11
2.11769e-11
3.34195e-11
1.66337e-11
2.28831e-11
1.30595e-11
1.80356e-11
1.04575e-11
1.31034e-11
8.35968e-12
1.05735e-11
6.76532e-12
8.02431e-12
5.45851e-12
6.58563e-12
4.43313e-12
5.15738e-12
3.58164e-12
4.29039e-12
2.89545e-12
3.45613e-12
2.31915e-12
2.8976e-12
1.84256e-12
2.3951e-12
1.43486e-12
2.05465e-12
1.08707e-12
1.74126e-12
7.79518e-13
1.54366e-12
5.03626e-13
1.38561e-12
2.47107e-13
1.28383e-12
-4.50663e-16
1.24372e-12
-2.47526e-13
1.24011e-12
-5.025e-13
1.25373e-12
-7.79335e-13
1.40043e-12
-1.08795e-12
1.56175e-12
-1.43405e-12
1.71532e-12
-1.84263e-12
2.06495e-12
-2.31993e-12
2.40964e-12
-2.89444e-12
2.86346e-12
-3.58156e-12
3.46783e-12
-4.4339e-12
4.30224e-12
-5.45765e-12
5.1254e-12
-6.76541e-12
6.60322e-12
-8.3606e-12
8.04483e-12
-1.04567e-11
1.05456e-11
-1.30596e-11
1.31286e-11
-1.66346e-11
1.80544e-11
-2.1176e-11
2.28483e-11
-2.77888e-11
3.34312e-11
-3.65102e-11
4.39575e-11
-5.02723e-11
6.96995e-11
-6.94574e-11
9.67537e-11
-1.03744e-10
1.74689e-10
-1.55784e-10
2.62986e-10
-2.71089e-10
5.97185e-10
-4.74129e-10
1.04323e-09
-1.14404e-09
3.81665e-09
-2.62216e-09
9.11753e-09
-8.21378e-09
7.67361e-08
-1.17811e-08
7.37996e-08
-1.65898e-07
1.09626e-08
-1.76861e-07
7.98088e-09
7.67813e-08
2.84545e-09
8.18716e-08
1.26967e-09
1.06933e-08
5.37955e-10
4.5484e-09
3.08216e-10
1.27295e-09
1.77901e-10
7.2749e-10
1.18472e-10
3.22452e-10
7.94403e-11
2.13712e-10
5.7491e-11
1.18684e-10
4.17833e-11
8.5445e-11
3.17994e-11
5.39268e-11
2.42449e-11
4.09783e-11
1.90421e-11
2.80846e-11
1.49555e-11
2.21346e-11
1.19754e-11
1.60873e-11
9.57557e-12
1.29827e-11
7.74945e-12
9.85732e-12
6.25397e-12
8.08354e-12
5.07936e-12
6.3354e-12
4.10459e-12
5.25974e-12
3.31848e-12
4.2416e-12
2.6584e-12
3.55785e-12
2.11228e-12
2.94474e-12
1.64516e-12
2.51806e-12
1.24643e-12
2.14085e-12
8.93909e-13
1.89806e-12
5.77567e-13
1.69968e-12
2.83302e-13
1.5728e-12
-4.0209e-16
1.53023e-12
-2.83699e-13
1.52464e-12
-5.7655e-13
1.5448e-12
-8.93707e-13
1.71945e-12
-1.2472e-12
1.91436e-12
-1.64448e-12
2.1088e-12
-2.11237e-12
2.53575e-12
-2.65906e-12
2.95829e-12
-3.31755e-12
3.52273e-12
-4.1045e-12
4.25683e-12
-5.08001e-12
5.2799e-12
-6.25322e-12
6.29494e-12
-7.74955e-12
8.09832e-12
-9.5764e-12
9.867e-12
-1.19747e-11
1.2943e-11
-1.49556e-11
1.60971e-11
-1.90429e-11
2.21442e-11
-2.42441e-11
2.80512e-11
-3.17994e-11
4.09892e-11
-4.17841e-11
5.39433e-11
-5.74903e-11
8.54086e-11
-7.94405e-11
1.18701e-10
-1.18473e-10
2.13724e-10
-1.77901e-10
3.22416e-10
-3.08216e-10
7.27502e-10
-5.37956e-10
1.27297e-09
-1.26967e-09
4.54837e-09
-2.84545e-09
1.06933e-08
-7.98089e-09
8.18716e-08
-1.09626e-08
7.67813e-08
-1.76861e-07
1.01243e-08
-1.86986e-07
7.72857e-09
7.91771e-08
3.05921e-09
8.65409e-08
1.39651e-09
1.2356e-08
6.05016e-10
5.33989e-09
3.47527e-10
1.53044e-09
2.0153e-10
8.73482e-10
1.34229e-10
3.89751e-10
9.01529e-11
2.57783e-10
6.52385e-11
1.43599e-10
4.74529e-11
1.03227e-10
3.6111e-11
6.52705e-11
2.75462e-11
4.95383e-11
2.16336e-11
3.4003e-11
1.69969e-11
2.67639e-11
1.36097e-11
1.94702e-11
1.08854e-11
1.57004e-11
8.80966e-12
1.19327e-11
7.11125e-12
9.78246e-12
5.77585e-12
7.66825e-12
4.66843e-12
6.37505e-12
3.77463e-12
5.1374e-12
3.02433e-12
4.30439e-12
2.40325e-12
3.56436e-12
1.87209e-12
3.04744e-12
1.41843e-12
2.59722e-12
1.01737e-12
2.30018e-12
6.5737e-13
2.06324e-12
3.22385e-13
1.90637e-12
-3.53689e-16
1.85439e-12
-3.22749e-13
1.84798e-12
-6.56458e-13
1.88647e-12
-1.01716e-12
2.08064e-12
-1.41906e-12
2.31822e-12
-1.8715e-12
2.56007e-12
-2.40334e-12
3.06263e-12
-3.02487e-12
3.58364e-12
-3.77379e-12
4.27688e-12
-4.66833e-12
5.15437e-12
-5.77642e-12
6.38952e-12
-7.11063e-12
7.63452e-12
-8.80979e-12
9.80067e-12
-1.08861e-11
1.19546e-11
-1.36092e-11
1.56699e-11
-1.6997e-11
1.94918e-11
-2.16342e-11
2.6784e-11
-2.75455e-11
3.39581e-11
-3.6111e-11
4.95556e-11
-4.74535e-11
6.52852e-11
-6.52379e-11
1.03192e-10
-9.01531e-11
1.43621e-10
-1.3423e-10
2.57798e-10
-2.01529e-10
3.89717e-10
-3.47527e-10
8.735e-10
-6.05017e-10
1.53046e-09
-1.39651e-09
5.33986e-09
-3.05921e-09
1.2356e-08
-7.72857e-09
8.65409e-08
-1.01243e-08
7.9177e-08
-1.86985e-07
9.27912e-09
-1.96265e-07
7.45775e-09
8.09984e-08
3.26214e-09
9.07365e-08
1.524e-09
1.40941e-08
6.75219e-10
6.18867e-09
3.89046e-10
1.81661e-09
2.26722e-10
1.03581e-09
1.51058e-10
4.65417e-10
1.01632e-10
3.07207e-10
7.3544e-11
1.71689e-10
5.35406e-11
1.23224e-10
4.07412e-11
7.80678e-11
3.10949e-11
5.9187e-11
2.44194e-11
4.06746e-11
1.91928e-11
3.19912e-11
1.53679e-11
2.33008e-11
1.22951e-11
1.87735e-11
9.95081e-12
1.42779e-11
8.03436e-12
1.17032e-11
6.52593e-12
9.17927e-12
5.27584e-12
7.62668e-12
4.26609e-12
6.14616e-12
3.41871e-12
5.15236e-12
2.71687e-12
4.2676e-12
2.11675e-12
3.65032e-12
1.60386e-12
3.10895e-12
1.15052e-12
2.75213e-12
7.43435e-13
2.46161e-12
3.64549e-13
2.29065e-12
-3.16401e-16
2.21862e-12
-3.64887e-13
2.21786e-12
-7.42655e-13
2.25345e-12
-1.15028e-12
2.49149e-12
-1.60438e-12
2.77263e-12
-2.11626e-12
3.07517e-12
-2.71695e-12
3.66589e-12
-3.41912e-12
4.2841e-12
-4.26534e-12
5.1152e-12
-5.27574e-12
6.15773e-12
-6.5264e-12
7.64223e-12
-8.03387e-12
9.14158e-12
-9.95097e-12
1.17151e-11
-1.22958e-11
1.42901e-11
-1.53675e-11
1.87407e-11
-1.9193e-11
2.33202e-11
-2.44199e-11
3.20088e-11
-3.10942e-11
4.0638e-11
-4.07412e-11
5.91977e-11
-5.35412e-11
7.80907e-11
-7.35435e-11
1.23195e-10
-1.01632e-10
1.71704e-10
-1.51058e-10
3.07229e-10
-2.26722e-10
4.65376e-10
-3.89046e-10
1.03583e-09
-6.7522e-10
1.81662e-09
-1.524e-09
6.18864e-09
-3.26214e-09
1.40942e-08
-7.45775e-09
9.07365e-08
-9.27912e-09
8.09984e-08
-1.96265e-07
8.43005e-09
-2.04695e-07
7.16982e-09
8.22587e-08
3.45292e-09
9.44534e-08
1.65154e-09
1.58955e-08
7.4844e-10
7.09177e-09
4.32786e-10
2.13227e-09
2.53529e-10
1.21506e-09
1.69003e-10
5.49943e-10
1.13916e-10
3.62293e-10
8.2437e-11
2.03167e-10
6.00699e-11
1.456e-10
4.57083e-11
9.24363e-11
3.49056e-11
6.99877e-11
2.74112e-11
4.81711e-11
2.15528e-11
3.78513e-11
1.72575e-11
2.75914e-11
1.38111e-11
2.22153e-11
1.11781e-11
1.6905e-11
9.02752e-12
1.38429e-11
7.33303e-12
1.08713e-11
5.92963e-12
9.02114e-12
4.79517e-12
7.2768e-12
3.84341e-12
6.10708e-12
3.05465e-12
5.05069e-12
2.38031e-12
4.32599e-12
1.80365e-12
3.68633e-12
1.29399e-12
3.26305e-12
8.36209e-13
2.93286e-12
4.09993e-13
2.71253e-12
-2.55835e-16
2.63363e-12
-4.10335e-13
2.62344e-12
-8.35498e-13
2.68619e-12
-1.29374e-12
2.94163e-12
-1.80406e-12
3.28809e-12
-2.37992e-12
3.64962e-12
-3.05473e-12
4.34386e-12
-3.84372e-12
5.07302e-12
-4.7945e-12
6.07222e-12
-5.92952e-12
7.29767e-12
-7.3334e-12
9.03789e-12
-9.02715e-12
1.08336e-11
-1.11783e-11
1.38668e-11
-1.38116e-11
1.69289e-11
-1.72572e-11
2.21873e-11
-2.15529e-11
2.76139e-11
-2.74117e-11
3.78687e-11
-3.4905e-11
4.81262e-11
-4.57083e-11
7.00044e-11
-6.00704e-11
9.24485e-11
-8.24367e-11
1.45565e-10
-1.13916e-10
2.03183e-10
-1.69004e-10
3.6231e-10
-2.53528e-10
5.49904e-10
-4.32786e-10
1.21508e-09
-7.4844e-10
2.13228e-09
-1.65154e-09
7.09173e-09
-3.45293e-09
1.58955e-08
-7.16982e-09
9.44534e-08
-8.43006e-09
8.22586e-08
-2.04695e-07
7.57886e-09
-2.12274e-07
6.86553e-09
8.2972e-08
3.63027e-09
9.76887e-08
1.77848e-09
1.77473e-08
8.24515e-10
8.04573e-09
4.78745e-10
2.47803e-09
2.81993e-10
1.41182e-09
1.88108e-10
6.43822e-10
1.27041e-10
4.23364e-10
9.19474e-11
2.38259e-10
6.70648e-11
1.70477e-10
5.10314e-11
1.08459e-10
3.89936e-11
8.20265e-11
3.06214e-11
5.65436e-11
2.40867e-11
4.43911e-11
1.92866e-11
3.23922e-11
1.54398e-11
2.60671e-11
1.24968e-11
1.98535e-11
1.00952e-11
1.62516e-11
8.20078e-12
1.27676e-11
6.63283e-12
1.05996e-11
5.36432e-12
8.55169e-12
4.30039e-12
7.17413e-12
3.41818e-12
5.93827e-12
2.66402e-12
5.07502e-12
2.01874e-12
4.33135e-12
1.4485e-12
3.82926e-12
9.36091e-13
3.43873e-12
4.58959e-13
3.19715e-12
-2.20743e-16
3.08885e-12
-4.59266e-13
3.07962e-12
-9.35504e-13
3.1645e-12
-1.44819e-12
3.46244e-12
-2.01905e-12
3.84779e-12
-2.66372e-12
4.29325e-12
-3.41825e-12
5.09228e-12
-4.30059e-12
5.95344e-12
-5.36373e-12
7.12923e-12
-6.63272e-12
8.5627e-12
-8.20105e-12
1.06162e-11
-1.00949e-11
1.27291e-11
-1.2497e-11
1.62702e-11
-1.54403e-11
1.98699e-11
-1.92865e-11
2.60285e-11
-2.40869e-11
3.24114e-11
-3.06217e-11
4.43989e-11
-3.89931e-11
5.64993e-11
-5.10314e-11
8.20408e-11
-6.70651e-11
1.0848e-10
-9.19472e-11
1.70435e-10
-1.27041e-10
2.38284e-10
-1.88109e-10
4.23383e-10
-2.81992e-10
6.43785e-10
-4.78745e-10
1.41183e-09
-8.24516e-10
2.47806e-09
-1.77848e-09
8.0457e-09
-3.63027e-09
1.77473e-08
-6.86553e-09
9.76887e-08
-7.57886e-09
8.2972e-08
-2.12273e-07
6.72801e-09
-2.19002e-07
6.54542e-09
8.31546e-08
3.79291e-09
1.00441e-07
1.90413e-09
1.96361e-08
9.03248e-10
9.04662e-09
5.26904e-10
2.85438e-09
3.12152e-10
1.62657e-09
2.08414e-10
7.47568e-10
1.41046e-10
4.90735e-10
1.02106e-10
2.77201e-10
7.455e-11
1.98038e-10
5.67302e-11
1.26289e-10
4.33749e-11
9.53862e-11
3.40626e-11
6.58557e-11
2.6805e-11
5.16352e-11
2.14638e-11
3.77326e-11
1.71883e-11
3.03455e-11
1.39127e-11
2.31295e-11
1.1242e-11
1.89176e-11
9.13303e-12
1.48758e-11
7.38855e-12
1.23355e-11
5.97608e-12
9.95908e-12
4.79174e-12
8.35163e-12
3.8091e-12
6.91675e-12
2.96921e-12
5.91875e-12
2.25014e-12
5.04976e-12
1.61474e-12
4.46642e-12
1.04359e-12
4.01352e-12
5.11634e-13
3.72018e-12
-1.96378e-16
3.60027e-12
-5.11929e-13
3.59357e-12
-1.0431e-12
3.68579e-12
-1.61442e-12
4.03092e-12
-2.25033e-12
4.48886e-12
-2.96899e-12
5.01586e-12
-3.80917e-12
5.9403e-12
-4.79184e-12
6.9375e-12
-5.97557e-12
8.31117e-12
-7.38842e-12
9.98322e-12
-9.13321e-12
1.23564e-11
-1.12419e-11
1.48373e-11
-1.3913e-11
1.89397e-11
-1.71887e-11
2.31452e-11
-2.14638e-11
3.03028e-11
-2.68052e-11
3.77537e-11
-3.40628e-11
5.16613e-11
-4.33745e-11
6.58096e-11
-5.67302e-11
9.53961e-11
-7.45503e-11
1.26301e-10
-1.02105e-10
1.98005e-10
-1.41046e-10
2.77222e-10
-2.08415e-10
4.90751e-10
-3.12152e-10
7.47524e-10
-5.26904e-10
1.62658e-09
-9.03248e-10
2.8544e-09
-1.90413e-09
9.04658e-09
-3.79292e-09
1.96361e-08
-6.54542e-09
1.00441e-07
-6.72801e-09
8.31546e-08
-2.19001e-07
5.88037e-09
-2.24882e-07
6.21008e-09
8.28249e-08
3.93961e-09
1.02712e-07
2.02775e-09
2.1548e-08
9.84396e-10
1.009e-08
5.77227e-10
3.26155e-09
3.44039e-10
1.85975e-09
2.2996e-10
8.61649e-10
1.55967e-10
5.64724e-10
1.12942e-10
3.20225e-10
8.25508e-11
2.28424e-10
6.28249e-11
1.46011e-10
4.80659e-11
1.10144e-10
3.77482e-11
7.61737e-11
2.97186e-11
5.96738e-11
2.37979e-11
4.36529e-11
1.90638e-11
3.50732e-11
1.54318e-11
2.6757e-11
1.24729e-11
2.18747e-11
1.01338e-11
1.72184e-11
8.20014e-12
1.42686e-11
6.63317e-12
1.15284e-11
5.31969e-12
9.66762e-12
4.22921e-12
8.00932e-12
3.29725e-12
6.85292e-12
2.4989e-12
5.84539e-12
1.79349e-12
5.17203e-12
1.15916e-12
4.64166e-12
5.68303e-13
4.31394e-12
-1.66307e-16
4.16228e-12
-5.68587e-13
4.16517e-12
-1.15876e-12
4.28044e-12
-1.79314e-12
4.66087e-12
-2.49897e-12
5.19685e-12
-3.29712e-12
5.80815e-12
-4.22928e-12
6.86774e-12
-5.31969e-12
8.02546e-12
-6.63272e-12
9.63161e-12
-8.2e-12
1.15431e-11
-1.01339e-11
1.42837e-11
-1.24729e-11
1.71775e-11
-1.54321e-11
2.19021e-11
-1.90642e-11
2.6781e-11
-2.37979e-11
3.50426e-11
-2.97187e-11
4.36729e-11
-3.77483e-11
5.96892e-11
-4.80656e-11
7.61284e-11
-6.28249e-11
1.10159e-10
-8.2551e-11
1.46029e-10
-1.12942e-10
2.28387e-10
-1.55967e-10
3.20238e-10
-2.2996e-10
5.6474e-10
-3.44039e-10
8.6161e-10
-5.77227e-10
1.85978e-09
-9.84397e-10
3.26157e-09
-2.02775e-09
1.00899e-08
-3.93961e-09
2.1548e-08
-6.21009e-09
1.02712e-07
-5.88038e-09
8.28249e-08
-2.24882e-07
5.03891e-09
-2.29921e-07
5.86026e-09
8.20035e-08
4.06918e-09
1.04503e-07
2.14857e-09
2.34686e-08
1.06768e-09
1.11709e-08
6.29658e-10
3.69958e-09
3.77674e-10
2.11174e-09
2.52781e-10
9.86533e-10
1.71841e-10
6.45659e-10
1.24488e-10
3.67577e-10
9.1093e-11
2.61818e-10
6.93364e-11
1.67769e-10
5.30837e-11
1.26392e-10
4.1692e-11
8.7565e-11
3.28387e-11
6.85248e-11
2.62981e-11
5.01953e-11
2.10739e-11
4.03041e-11
1.70603e-11
3.07678e-11
1.37931e-11
2.51479e-11
1.12074e-11
1.9795e-11
9.0711e-12
1.64141e-11
7.33848e-12
1.32583e-11
5.88654e-12
1.11242e-11
4.68037e-12
9.21357e-12
3.6496e-12
7.87863e-12
2.76616e-12
6.72943e-12
1.98554e-12
5.94904e-12
1.28336e-12
5.34686e-12
6.29182e-13
4.97101e-12
-1.03284e-16
4.80413e-12
-6.29475e-13
4.78763e-12
-1.28305e-12
4.94021e-12
-1.98516e-12
5.3624e-12
-2.76613e-12
5.9752e-12
-3.64957e-12
6.69964e-12
-4.68042e-12
7.8992e-12
-5.88643e-12
9.23344e-12
-7.33811e-12
1.10812e-11
-9.07096e-12
1.32815e-11
-1.12074e-11
1.64317e-11
-1.37932e-11
1.97551e-11
-1.70606e-11
2.51649e-11
-2.10743e-11
3.07856e-11
-2.62983e-11
4.02612e-11
-3.28389e-11
5.02145e-11
-4.16921e-11
6.85376e-11
-5.30835e-11
8.75176e-11
-6.93364e-11
1.26407e-10
-9.1093e-11
1.67784e-10
-1.24488e-10
2.61785e-10
-1.71842e-10
3.67598e-10
-2.52782e-10
6.45687e-10
-3.77674e-10
9.86488e-10
-6.29658e-10
2.11176e-09
-1.06768e-09
3.69959e-09
-2.14857e-09
1.11708e-08
-4.06918e-09
2.34686e-08
-5.86026e-09
1.04503e-07
-5.03891e-09
8.20035e-08
-2.29921e-07
4.20658e-09
-2.34128e-07
5.49679e-09
8.07133e-08
4.18049e-09
1.05819e-07
2.26577e-09
2.53833e-08
1.15277e-09
1.22839e-08
6.84119e-10
4.16823e-09
4.13072e-10
2.38278e-09
2.7691e-10
1.1227e-09
1.88704e-10
7.33873e-10
1.36774e-10
4.1951e-10
1.00203e-10
2.98393e-10
7.6286e-11
1.91684e-10
5.84458e-11
1.44235e-10
4.59085e-11
1.001e-10
3.61772e-11
7.82572e-11
2.89741e-11
5.74e-11
2.32267e-11
4.60448e-11
1.88049e-11
3.51986e-11
1.52079e-11
2.87416e-11
1.23582e-11
2.26584e-11
1.0005e-11
1.87649e-11
8.09502e-12
1.51727e-11
6.49474e-12
1.27158e-11
5.16452e-12
1.05525e-11
4.02786e-12
9.0124e-12
3.05308e-12
7.71067e-12
2.19179e-12
6.81841e-12
1.41675e-12
6.12759e-12
6.9461e-13
5.69056e-12
-7.01927e-17
5.49013e-12
-6.94833e-13
5.48783e-12
-1.41656e-12
5.65426e-12
-2.19138e-12
6.14726e-12
-3.05293e-12
6.84244e-12
-4.02791e-12
7.67093e-12
-5.16457e-12
9.04237e-12
-6.49456e-12
1.056e-11
-8.0947e-12
1.26822e-11
-1.00049e-11
1.51885e-11
-1.23582e-11
1.87808e-11
-1.52081e-11
2.26097e-11
-1.88052e-11
2.87655e-11
-2.3227e-11
3.52164e-11
-2.89744e-11
4.60126e-11
-3.61774e-11
5.74192e-11
-4.59084e-11
7.82821e-11
-5.84457e-11
1.00058e-10
-7.6286e-11
1.4425e-10
-1.00203e-10
1.91705e-10
-1.36774e-10
2.9836e-10
-1.88704e-10
4.1953e-10
-2.7691e-10
7.33886e-10
-4.13072e-10
1.12266e-09
-6.84119e-10
2.3828e-09
-1.15277e-09
4.16825e-09
-2.26578e-09
1.22838e-08
-4.18049e-09
2.53833e-08
-5.49679e-09
1.05819e-07
-4.20658e-09
8.07133e-08
-2.34127e-07
3.38632e-09
-2.37514e-07
5.1206e-09
7.8979e-08
4.27249e-09
1.06667e-07
2.37852e-09
2.72773e-08
1.23931e-09
1.34231e-08
7.40508e-10
4.66703e-09
4.50234e-10
2.67306e-09
3.02373e-10
1.27056e-09