/*--------------------------------*- C++ -*----------------------------------*\
| =========                 |                                                 |
| \\      /  F ield         | foam-extend: Open Source CFD                    |
|  \\    /   O peration     | Version:     4.0                                |
|   \\  /    A nd           | Web:         http://www.foam-extend.org         |
|    \\/     M anipulation  |                                                 |
\*---------------------------------------------------------------------------*/
FoamFile
{
    version     2.0;
    format      ascii;
    class       volScalarField;
    location    "1660";
    object      cPlus;
}
// * * * * * * * * * * * * * * * * * * * * * * * * * * * * * * * * * * * * * //

dimensions      [0 0 0 0 0 0 0];

internalField   nonuniform List<scalar> 
6960
(
0.350363
0.350362
0.350359
0.350356
0.350354
0.350351
0.350349
0.350346
0.350344
0.350342
0.35034
0.350338
0.350337
0.350335
0.350333
0.350332
0.350331
0.35033
0.350329
0.350328
0.350327
0.350326
0.350325
0.350325
0.350324
0.350324
0.350324
0.350323
0.350323
0.350323
0.350323
0.350323
0.350323
0.350324
0.350324
0.350324
0.350325
0.350325
0.350326
0.350327
0.350328
0.350329
0.35033
0.350331
0.350332
0.350333
0.350335
0.350337
0.350338
0.35034
0.350342
0.350344
0.350346
0.350349
0.350351
0.350354
0.350356
0.350359
0.350362
0.350363
0.1264
0.126399
0.126397
0.126394
0.126392
0.12639
0.126388
0.126386
0.126384
0.126382
0.126381
0.126379
0.126378
0.126377
0.126375
0.126374
0.126373
0.126372
0.126371
0.126371
0.12637
0.126369
0.126369
0.126368
0.126368
0.126368
0.126367
0.126367
0.126367
0.126367
0.126367
0.126367
0.126367
0.126367
0.126368
0.126368
0.126368
0.126369
0.126369
0.12637
0.126371
0.126371
0.126372
0.126373
0.126374
0.126375
0.126377
0.126378
0.126379
0.126381
0.126382
0.126384
0.126386
0.126388
0.12639
0.126392
0.126394
0.126397
0.126399
0.1264
0.0539626
0.0539615
0.0539602
0.0539587
0.0539572
0.0539557
0.0539543
0.053953
0.0539517
0.0539505
0.0539494
0.0539484
0.0539474
0.0539465
0.0539457
0.0539449
0.0539442
0.0539436
0.053943
0.0539425
0.053942
0.0539416
0.0539412
0.0539409
0.0539406
0.0539404
0.0539402
0.05394
0.05394
0.0539399
0.0539399
0.05394
0.05394
0.0539402
0.0539404
0.0539406
0.0539409
0.0539412
0.0539416
0.053942
0.0539425
0.053943
0.0539436
0.0539442
0.0539449
0.0539457
0.0539465
0.0539474
0.0539484
0.0539494
0.0539505
0.0539517
0.053953
0.0539543
0.0539557
0.0539572
0.0539587
0.0539602
0.0539615
0.0539626
0.0253124
0.0253118
0.025311
0.0253101
0.0253092
0.0253083
0.0253075
0.0253067
0.0253059
0.0253052
0.0253046
0.025304
0.0253034
0.0253028
0.0253023
0.0253019
0.0253015
0.0253011
0.0253007
0.0253004
0.0253001
0.0252999
0.0252997
0.0252995
0.0252993
0.0252992
0.0252991
0.025299
0.0252989
0.0252989
0.0252989
0.0252989
0.025299
0.0252991
0.0252992
0.0252993
0.0252995
0.0252997
0.0252999
0.0253001
0.0253004
0.0253007
0.0253011
0.0253015
0.0253019
0.0253023
0.0253028
0.0253034
0.025304
0.0253046
0.0253052
0.0253059
0.0253067
0.0253075
0.0253083
0.0253092
0.0253101
0.025311
0.0253118
0.0253124
0.0130909
0.0130906
0.0130902
0.0130898
0.0130893
0.0130889
0.0130884
0.013088
0.0130876
0.0130873
0.0130869
0.0130866
0.0130863
0.0130861
0.0130858
0.0130856
0.0130854
0.0130852
0.013085
0.0130848
0.0130847
0.0130845
0.0130844
0.0130843
0.0130843
0.0130842
0.0130841
0.0130841
0.0130841
0.013084
0.013084
0.0130841
0.0130841
0.0130841
0.0130842
0.0130843
0.0130843
0.0130844
0.0130845
0.0130847
0.0130848
0.013085
0.0130852
0.0130854
0.0130856
0.0130858
0.0130861
0.0130863
0.0130866
0.0130869
0.0130873
0.0130876
0.013088
0.0130884
0.0130889
0.0130893
0.0130898
0.0130902
0.0130906
0.0130909
0.00776123
0.00776118
0.00776105
0.00776088
0.00776071
0.00776055
0.00776039
0.00776023
0.00776009
0.00775995
0.00775982
0.0077597
0.00775959
0.00775949
0.00775939
0.0077593
0.00775922
0.00775915
0.00775908
0.00775902
0.00775897
0.00775892
0.00775887
0.00775884
0.00775881
0.00775878
0.00775876
0.00775874
0.00775873
0.00775873
0.00775873
0.00775873
0.00775874
0.00775876
0.00775878
0.00775881
0.00775884
0.00775887
0.00775892
0.00775897
0.00775902
0.00775908
0.00775915
0.00775922
0.0077593
0.00775939
0.00775949
0.00775959
0.0077597
0.00775982
0.00775995
0.00776009
0.00776023
0.00776039
0.00776055
0.00776071
0.00776088
0.00776105
0.00776118
0.00776123
0.0054473
0.00544738
0.0054474
0.00544741
0.00544741
0.00544741
0.00544741
0.0054474
0.0054474
0.0054474
0.0054474
0.00544739
0.00544739
0.00544739
0.00544739
0.00544739
0.00544739
0.00544738
0.00544738
0.00544738
0.00544738
0.00544738
0.00544738
0.00544738
0.00544738
0.00544738
0.00544738
0.00544738
0.00544738
0.00544738
0.00544738
0.00544738
0.00544738
0.00544738
0.00544738
0.00544738
0.00544738
0.00544738
0.00544738
0.00544738
0.00544738
0.00544738
0.00544738
0.00544739
0.00544739
0.00544739
0.00544739
0.00544739
0.00544739
0.0054474
0.0054474
0.0054474
0.0054474
0.00544741
0.00544741
0.00544741
0.00544741
0.0054474
0.00544738
0.0054473
0.0044641
0.00446424
0.00446436
0.00446446
0.00446455
0.00446464
0.00446473
0.00446481
0.00446489
0.00446496
0.00446503
0.00446509
0.00446515
0.0044652
0.00446525
0.0044653
0.00446534
0.00446538
0.00446542
0.00446545
0.00446548
0.00446551
0.00446553
0.00446555
0.00446557
0.00446558
0.00446559
0.0044656
0.00446561
0.00446561
0.00446561
0.00446561
0.0044656
0.00446559
0.00446558
0.00446557
0.00446555
0.00446553
0.00446551
0.00446548
0.00446545
0.00446542
0.00446538
0.00446534
0.0044653
0.00446525
0.0044652
0.00446515
0.00446509
0.00446503
0.00446496
0.00446489
0.00446481
0.00446473
0.00446464
0.00446455
0.00446446
0.00446436
0.00446424
0.0044641
0.0040636
0.00406378
0.00406394
0.0040641
0.00406424
0.00406438
0.00406451
0.00406464
0.00406476
0.00406487
0.00406497
0.00406507
0.00406516
0.00406525
0.00406533
0.0040654
0.00406547
0.00406553
0.00406558
0.00406563
0.00406568
0.00406572
0.00406575
0.00406578
0.00406581
0.00406583
0.00406585
0.00406586
0.00406587
0.00406587
0.00406587
0.00406587
0.00406586
0.00406585
0.00406583
0.00406581
0.00406578
0.00406575
0.00406572
0.00406568
0.00406563
0.00406558
0.00406553
0.00406547
0.0040654
0.00406533
0.00406525
0.00406516
0.00406507
0.00406497
0.00406487
0.00406476
0.00406464
0.00406451
0.00406438
0.00406424
0.0040641
0.00406394
0.00406378
0.0040636
0.00391461
0.00391481
0.003915
0.00391518
0.00391535
0.00391551
0.00391567
0.00391582
0.00391596
0.00391609
0.00391621
0.00391633
0.00391644
0.00391654
0.00391663
0.00391672
0.0039168
0.00391687
0.00391693
0.00391699
0.00391705
0.00391709
0.00391714
0.00391717
0.0039172
0.00391723
0.00391725
0.00391726
0.00391727
0.00391728
0.00391728
0.00391727
0.00391726
0.00391725
0.00391723
0.0039172
0.00391717
0.00391714
0.00391709
0.00391705
0.00391699
0.00391693
0.00391687
0.0039168
0.00391672
0.00391663
0.00391654
0.00391644
0.00391633
0.00391621
0.00391609
0.00391596
0.00391582
0.00391567
0.00391551
0.00391535
0.00391518
0.003915
0.00391481
0.00391461
0.00387256
0.00387278
0.00387297
0.00387317
0.00387335
0.00387353
0.0038737
0.00387386
0.00387401
0.00387415
0.00387429
0.00387441
0.00387453
0.00387464
0.00387474
0.00387483
0.00387492
0.00387499
0.00387507
0.00387513
0.00387519
0.00387524
0.00387528
0.00387532
0.00387536
0.00387538
0.00387541
0.00387542
0.00387543
0.00387544
0.00387544
0.00387543
0.00387542
0.00387541
0.00387538
0.00387536
0.00387532
0.00387528
0.00387524
0.00387519
0.00387513
0.00387507
0.00387499
0.00387492
0.00387483
0.00387474
0.00387464
0.00387453
0.00387441
0.00387429
0.00387415
0.00387401
0.00387386
0.0038737
0.00387353
0.00387335
0.00387317
0.00387297
0.00387278
0.00387256
0.00387563
0.00387584
0.00387605
0.00387625
0.00387644
0.00387663
0.00387681
0.00387697
0.00387713
0.00387728
0.00387742
0.00387755
0.00387767
0.00387778
0.00387789
0.00387798
0.00387807
0.00387815
0.00387823
0.00387829
0.00387835
0.00387841
0.00387845
0.0038785
0.00387853
0.00387856
0.00387858
0.0038786
0.00387861
0.00387862
0.00387862
0.00387861
0.0038786
0.00387858
0.00387856
0.00387853
0.0038785
0.00387845
0.00387841
0.00387835
0.00387829
0.00387823
0.00387815
0.00387807
0.00387798
0.00387789
0.00387778
0.00387767
0.00387755
0.00387742
0.00387728
0.00387713
0.00387697
0.00387681
0.00387663
0.00387644
0.00387625
0.00387605
0.00387584
0.00387563
0.00389798
0.0038982
0.00389841
0.00389862
0.00389882
0.00389901
0.00389919
0.00389936
0.00389952
0.00389967
0.00389981
0.00389995
0.00390007
0.00390019
0.0039003
0.00390039
0.00390049
0.00390057
0.00390064
0.00390071
0.00390077
0.00390083
0.00390088
0.00390092
0.00390095
0.00390098
0.00390101
0.00390102
0.00390104
0.00390104
0.00390104
0.00390104
0.00390102
0.00390101
0.00390098
0.00390095
0.00390092
0.00390088
0.00390083
0.00390077
0.00390071
0.00390064
0.00390057
0.00390049
0.00390039
0.0039003
0.00390019
0.00390007
0.00389995
0.00389981
0.00389967
0.00389952
0.00389936
0.00389919
0.00389901
0.00389882
0.00389862
0.00389841
0.0038982
0.00389798
0.00392916
0.00392938
0.0039296
0.00392981
0.00393001
0.0039302
0.00393039
0.00393056
0.00393072
0.00393088
0.00393102
0.00393116
0.00393129
0.0039314
0.00393151
0.00393161
0.00393171
0.00393179
0.00393187
0.00393194
0.003932
0.00393206
0.00393211
0.00393215
0.00393219
0.00393222
0.00393224
0.00393226
0.00393227
0.00393227
0.00393227
0.00393227
0.00393226
0.00393224
0.00393222
0.00393219
0.00393215
0.00393211
0.00393206
0.003932
0.00393194
0.00393187
0.00393179
0.00393171
0.00393161
0.00393151
0.0039314
0.00393129
0.00393116
0.00393102
0.00393088
0.00393072
0.00393056
0.00393039
0.0039302
0.00393001
0.00392981
0.0039296
0.00392938
0.00392916
0.00396508
0.00396531
0.00396553
0.00396574
0.00396594
0.00396614
0.00396633
0.0039665
0.00396667
0.00396683
0.00396698
0.00396711
0.00396724
0.00396736
0.00396747
0.00396758
0.00396767
0.00396776
0.00396784
0.00396791
0.00396797
0.00396803
0.00396808
0.00396812
0.00396816
0.00396819
0.00396821
0.00396823
0.00396824
0.00396825
0.00396825
0.00396824
0.00396823
0.00396821
0.00396819
0.00396816
0.00396812
0.00396808
0.00396803
0.00396797
0.00396791
0.00396784
0.00396776
0.00396767
0.00396758
0.00396747
0.00396736
0.00396724
0.00396711
0.00396698
0.00396683
0.00396667
0.0039665
0.00396633
0.00396614
0.00396594
0.00396574
0.00396553
0.00396531
0.00396508
0.00400427
0.00400451
0.00400473
0.00400495
0.00400515
0.00400535
0.00400554
0.00400572
0.00400589
0.00400605
0.0040062
0.00400634
0.00400647
0.00400659
0.00400671
0.00400681
0.00400691
0.004007
0.00400707
0.00400715
0.00400721
0.00400727
0.00400732
0.00400736
0.0040074
0.00400743
0.00400746
0.00400747
0.00400749
0.00400749
0.00400749
0.00400749
0.00400747
0.00400746
0.00400743
0.0040074
0.00400736
0.00400732
0.00400727
0.00400721
0.00400715
0.00400707
0.004007
0.00400691
0.00400681
0.00400671
0.00400659
0.00400647
0.00400634
0.0040062
0.00400605
0.00400589
0.00400572
0.00400554
0.00400535
0.00400515
0.00400495
0.00400473
0.00400451
0.00400427
0.00404632
0.00404656
0.00404678
0.004047
0.00404721
0.00404741
0.00404761
0.00404779
0.00404796
0.00404812
0.00404828
0.00404842
0.00404855
0.00404868
0.00404879
0.0040489
0.00404899
0.00404908
0.00404916
0.00404924
0.0040493
0.00404936
0.00404941
0.00404946
0.00404949
0.00404953
0.00404955
0.00404957
0.00404958
0.00404959
0.00404959
0.00404958
0.00404957
0.00404955
0.00404953
0.00404949
0.00404946
0.00404941
0.00404936
0.0040493
0.00404924
0.00404916
0.00404908
0.00404899
0.0040489
0.00404879
0.00404868
0.00404855
0.00404842
0.00404828
0.00404812
0.00404796
0.00404779
0.00404761
0.00404741
0.00404721
0.004047
0.00404678
0.00404656
0.00404632
0.0040912
0.00409144
0.00409167
0.00409189
0.00409211
0.00409231
0.00409251
0.00409269
0.00409287
0.00409304
0.00409319
0.00409334
0.00409347
0.0040936
0.00409371
0.00409382
0.00409392
0.00409401
0.00409409
0.00409417
0.00409423
0.00409429
0.00409435
0.00409439
0.00409443
0.00409446
0.00409449
0.00409451
0.00409452
0.00409452
0.00409452
0.00409452
0.00409451
0.00409449
0.00409446
0.00409443
0.00409439
0.00409435
0.00409429
0.00409423
0.00409417
0.00409409
0.00409401
0.00409392
0.00409382
0.00409371
0.0040936
0.00409347
0.00409334
0.00409319
0.00409304
0.00409287
0.00409269
0.00409251
0.00409231
0.00409211
0.00409189
0.00409167
0.00409144
0.0040912
0.00413908
0.00413933
0.00413957
0.00413979
0.00414001
0.00414022
0.00414042
0.00414061
0.00414079
0.00414095
0.00414111
0.00414126
0.0041414
0.00414153
0.00414164
0.00414175
0.00414186
0.00414195
0.00414203
0.00414211
0.00414218
0.00414224
0.00414229
0.00414234
0.00414237
0.00414241
0.00414243
0.00414245
0.00414246
0.00414247
0.00414247
0.00414246
0.00414245
0.00414243
0.00414241
0.00414237
0.00414234
0.00414229
0.00414224
0.00414218
0.00414211
0.00414203
0.00414195
0.00414186
0.00414175
0.00414164
0.00414153
0.0041414
0.00414126
0.00414111
0.00414095
0.00414079
0.00414061
0.00414042
0.00414022
0.00414001
0.00413979
0.00413957
0.00413933
0.00413908
0.00419023
0.00419048
0.00419072
0.00419095
0.00419117
0.00419139
0.00419159
0.00419178
0.00419197
0.00419214
0.0041923
0.00419245
0.00419259
0.00419272
0.00419284
0.00419295
0.00419305
0.00419315
0.00419323
0.00419331
0.00419338
0.00419344
0.0041935
0.00419354
0.00419358
0.00419362
0.00419364
0.00419366
0.00419368
0.00419368
0.00419368
0.00419368
0.00419366
0.00419364
0.00419362
0.00419358
0.00419354
0.0041935
0.00419344
0.00419338
0.00419331
0.00419323
0.00419315
0.00419305
0.00419295
0.00419284
0.00419272
0.00419259
0.00419245
0.0041923
0.00419214
0.00419197
0.00419178
0.00419159
0.00419139
0.00419117
0.00419095
0.00419072
0.00419048
0.00419023
0.00424495
0.00424521
0.00424545
0.00424569
0.00424591
0.00424613
0.00424634
0.00424653
0.00424672
0.00424689
0.00424706
0.00424721
0.00424736
0.00424749
0.00424761
0.00424773
0.00424783
0.00424793
0.00424801
0.00424809
0.00424816
0.00424823
0.00424828
0.00424833
0.00424837
0.00424841
0.00424843
0.00424845
0.00424847
0.00424847
0.00424847
0.00424847
0.00424845
0.00424843
0.00424841
0.00424837
0.00424833
0.00424828
0.00424823
0.00424816
0.00424809
0.00424801
0.00424793
0.00424783
0.00424773
0.00424761
0.00424749
0.00424736
0.00424721
0.00424706
0.00424689
0.00424672
0.00424653
0.00424634
0.00424613
0.00424591
0.00424569
0.00424545
0.00424521
0.00424495
0.0043036
0.00430387
0.00430412
0.00430436
0.00430459
0.00430481
0.00430502
0.00430522
0.00430541
0.00430559
0.00430576
0.00430592
0.00430606
0.0043062
0.00430633
0.00430644
0.00430655
0.00430665
0.00430674
0.00430682
0.00430689
0.00430696
0.00430701
0.00430706
0.0043071
0.00430714
0.00430716
0.00430719
0.0043072
0.00430721
0.00430721
0.0043072
0.00430719
0.00430716
0.00430714
0.0043071
0.00430706
0.00430701
0.00430696
0.00430689
0.00430682
0.00430674
0.00430665
0.00430655
0.00430644
0.00430633
0.0043062
0.00430606
0.00430592
0.00430576
0.00430559
0.00430541
0.00430522
0.00430502
0.00430481
0.00430459
0.00430436
0.00430412
0.00430387
0.0043036
0.00436661
0.00436689
0.00436714
0.00436739
0.00436763
0.00436785
0.00436807
0.00436828
0.00436847
0.00436865
0.00436882
0.00436899
0.00436914
0.00436927
0.0043694
0.00436952
0.00436963
0.00436973
0.00436982
0.00436991
0.00436998
0.00437005
0.00437011
0.00437016
0.0043702
0.00437023
0.00437026
0.00437028
0.0043703
0.0043703
0.0043703
0.0043703
0.00437028
0.00437026
0.00437023
0.0043702
0.00437016
0.00437011
0.00437005
0.00436998
0.00436991
0.00436982
0.00436973
0.00436963
0.00436952
0.0043694
0.00436927
0.00436914
0.00436899
0.00436882
0.00436865
0.00436847
0.00436828
0.00436807
0.00436785
0.00436763
0.00436739
0.00436714
0.00436689
0.00436661
0.00443447
0.00443475
0.00443501
0.00443526
0.00443551
0.00443574
0.00443596
0.00443618
0.00443637
0.00443656
0.00443674
0.0044369
0.00443706
0.0044372
0.00443733
0.00443745
0.00443757
0.00443767
0.00443776
0.00443785
0.00443792
0.00443799
0.00443805
0.0044381
0.00443815
0.00443818
0.00443821
0.00443823
0.00443825
0.00443825
0.00443825
0.00443825
0.00443823
0.00443821
0.00443818
0.00443815
0.0044381
0.00443805
0.00443799
0.00443792
0.00443785
0.00443776
0.00443767
0.00443757
0.00443745
0.00443733
0.0044372
0.00443706
0.0044369
0.00443674
0.00443656
0.00443637
0.00443618
0.00443596
0.00443574
0.00443551
0.00443526
0.00443501
0.00443475
0.00443447
0.00450773
0.00450802
0.00450829
0.00450855
0.0045088
0.00450904
0.00450927
0.00450949
0.00450969
0.00450988
0.00451006
0.00451023
0.00451039
0.00451054
0.00451067
0.0045108
0.00451092
0.00451102
0.00451112
0.0045112
0.00451128
0.00451135
0.00451141
0.00451147
0.00451151
0.00451155
0.00451158
0.0045116
0.00451162
0.00451162
0.00451162
0.00451162
0.0045116
0.00451158
0.00451155
0.00451151
0.00451147
0.00451141
0.00451135
0.00451128
0.0045112
0.00451112
0.00451102
0.00451092
0.0045108
0.00451067
0.00451054
0.00451039
0.00451023
0.00451006
0.00450988
0.00450969
0.00450949
0.00450927
0.00450904
0.0045088
0.00450855
0.00450829
0.00450802
0.00450773
0.00458706
0.00458736
0.00458764
0.00458791
0.00458816
0.00458841
0.00458865
0.00458887
0.00458908
0.00458928
0.00458946
0.00458964
0.0045898
0.00458995
0.00459009
0.00459022
0.00459034
0.00459045
0.00459055
0.00459064
0.00459072
0.00459079
0.00459085
0.00459091
0.00459095
0.00459099
0.00459102
0.00459104
0.00459106
0.00459107
0.00459107
0.00459106
0.00459104
0.00459102
0.00459099
0.00459095
0.00459091
0.00459085
0.00459079
0.00459072
0.00459064
0.00459055
0.00459045
0.00459034
0.00459022
0.00459009
0.00458995
0.0045898
0.00458964
0.00458946
0.00458928
0.00458908
0.00458887
0.00458865
0.00458841
0.00458816
0.00458791
0.00458764
0.00458736
0.00458706
0.00467323
0.00467354
0.00467382
0.0046741
0.00467437
0.00467462
0.00467486
0.00467509
0.00467531
0.00467552
0.00467571
0.00467589
0.00467605
0.00467621
0.00467635
0.00467649
0.00467661
0.00467672
0.00467683
0.00467692
0.004677
0.00467708
0.00467714
0.0046772
0.00467724
0.00467728
0.00467732
0.00467734
0.00467735
0.00467736
0.00467736
0.00467735
0.00467734
0.00467732
0.00467728
0.00467724
0.0046772
0.00467714
0.00467708
0.004677
0.00467692
0.00467683
0.00467672
0.00467661
0.00467649
0.00467635
0.00467621
0.00467605
0.00467589
0.00467571
0.00467552
0.00467531
0.00467509
0.00467486
0.00467462
0.00467437
0.0046741
0.00467382
0.00467354
0.00467323
0.00476715
0.00476747
0.00476776
0.00476805
0.00476832
0.00476859
0.00476884
0.00476908
0.0047693
0.00476951
0.00476971
0.0047699
0.00477007
0.00477023
0.00477038
0.00477052
0.00477065
0.00477076
0.00477087
0.00477096
0.00477105
0.00477113
0.00477119
0.00477125
0.0047713
0.00477134
0.00477138
0.0047714
0.00477142
0.00477142
0.00477142
0.00477142
0.0047714
0.00477138
0.00477134
0.0047713
0.00477125
0.00477119
0.00477113
0.00477105
0.00477096
0.00477087
0.00477076
0.00477065
0.00477052
0.00477038
0.00477023
0.00477007
0.0047699
0.00476971
0.00476951
0.0047693
0.00476908
0.00476884
0.00476859
0.00476832
0.00476805
0.00476776
0.00476747
0.00476715
0.00486991
0.00487024
0.00487055
0.00487084
0.00487113
0.0048714
0.00487166
0.00487191
0.00487214
0.00487236
0.00487257
0.00487276
0.00487294
0.00487311
0.00487326
0.00487341
0.00487354
0.00487366
0.00487377
0.00487387
0.00487396
0.00487404
0.00487411
0.00487417
0.00487422
0.00487426
0.00487429
0.00487432
0.00487434
0.00487434
0.00487434
0.00487434
0.00487432
0.00487429
0.00487426
0.00487422
0.00487417
0.00487411
0.00487404
0.00487396
0.00487387
0.00487377
0.00487366
0.00487354
0.00487341
0.00487326
0.00487311
0.00487294
0.00487276
0.00487257
0.00487236
0.00487214
0.00487191
0.00487166
0.0048714
0.00487113
0.00487084
0.00487055
0.00487024
0.00486991
0.00498282
0.00498317
0.00498349
0.00498379
0.00498409
0.00498438
0.00498465
0.0049849
0.00498515
0.00498537
0.00498559
0.00498579
0.00498598
0.00498615
0.00498631
0.00498646
0.0049866
0.00498672
0.00498684
0.00498694
0.00498703
0.00498712
0.00498719
0.00498725
0.0049873
0.00498735
0.00498738
0.00498741
0.00498743
0.00498744
0.00498744
0.00498743
0.00498741
0.00498738
0.00498735
0.0049873
0.00498725
0.00498719
0.00498712
0.00498703
0.00498694
0.00498684
0.00498672
0.0049866
0.00498646
0.00498631
0.00498615
0.00498598
0.00498579
0.00498559
0.00498537
0.00498515
0.0049849
0.00498465
0.00498438
0.00498409
0.00498379
0.00498349
0.00498317
0.00498282
0.00510748
0.00510784
0.00510817
0.00510849
0.0051088
0.0051091
0.00510938
0.00510965
0.0051099
0.00511014
0.00511037
0.00511058
0.00511077
0.00511095
0.00511112
0.00511128
0.00511142
0.00511155
0.00511167
0.00511178
0.00511188
0.00511196
0.00511204
0.0051121
0.00511216
0.00511221
0.00511224
0.00511227
0.00511229
0.0051123
0.0051123
0.00511229
0.00511227
0.00511224
0.00511221
0.00511216
0.0051121
0.00511204
0.00511196
0.00511188
0.00511178
0.00511167
0.00511155
0.00511142
0.00511128
0.00511112
0.00511095
0.00511077
0.00511058
0.00511037
0.00511014
0.0051099
0.00510965
0.00510938
0.0051091
0.0051088
0.00510849
0.00510817
0.00510784
0.00510748
0.00524583
0.00524621
0.00524656
0.0052469
0.00524722
0.00524753
0.00524783
0.00524811
0.00524838
0.00524863
0.00524886
0.00524908
0.00524928
0.00524948
0.00524965
0.00524982
0.00524997
0.0052501
0.00525023
0.00525034
0.00525044
0.00525053
0.00525061
0.00525068
0.00525074
0.00525079
0.00525083
0.00525086
0.00525088
0.00525089
0.00525089
0.00525088
0.00525086
0.00525083
0.00525079
0.00525074
0.00525068
0.00525061
0.00525053
0.00525044
0.00525034
0.00525023
0.0052501
0.00524997
0.00524982
0.00524965
0.00524948
0.00524928
0.00524908
0.00524886
0.00524863
0.00524838
0.00524811
0.00524783
0.00524753
0.00524722
0.0052469
0.00524656
0.00524621
0.00524583
0.00540031
0.0054007
0.00540107
0.00540143
0.00540177
0.0054021
0.00540241
0.00540271
0.00540299
0.00540325
0.0054035
0.00540373
0.00540395
0.00540415
0.00540434
0.00540451
0.00540467
0.00540481
0.00540494
0.00540506
0.00540517
0.00540526
0.00540535
0.00540542
0.00540548
0.00540553
0.00540557
0.0054056
0.00540562
0.00540563
0.00540563
0.00540562
0.0054056
0.00540557
0.00540553
0.00540548
0.00540542
0.00540535
0.00540526
0.00540517
0.00540506
0.00540494
0.00540481
0.00540467
0.00540451
0.00540434
0.00540415
0.00540395
0.00540373
0.0054035
0.00540325
0.00540299
0.00540271
0.00540241
0.0054021
0.00540177
0.00540143
0.00540107
0.0054007
0.00540031
0.00557396
0.00557438
0.00557478
0.00557515
0.00557552
0.00557586
0.00557619
0.00557651
0.0055768
0.00557708
0.00557735
0.00557759
0.00557782
0.00557803
0.00557823
0.00557841
0.00557858
0.00557874
0.00557888
0.005579
0.00557912
0.00557922
0.00557931
0.00557938
0.00557945
0.0055795
0.00557955
0.00557958
0.0055796
0.00557961
0.00557961
0.0055796
0.00557958
0.00557955
0.0055795
0.00557945
0.00557938
0.00557931
0.00557922
0.00557912
0.005579
0.00557888
0.00557874
0.00557858
0.00557841
0.00557823
0.00557803
0.00557782
0.00557759
0.00557735
0.00557708
0.0055768
0.00557651
0.00557619
0.00557586
0.00557552
0.00557515
0.00557478
0.00557438
0.00557396
0.0057707
0.00577115
0.00577157
0.00577197
0.00577236
0.00577273
0.00577308
0.00577342
0.00577373
0.00577403
0.00577431
0.00577457
0.00577482
0.00577504
0.00577525
0.00577545
0.00577563
0.00577579
0.00577594
0.00577608
0.0057762
0.00577631
0.0057764
0.00577648
0.00577655
0.00577661
0.00577666
0.00577669
0.00577671
0.00577672
0.00577672
0.00577671
0.00577669
0.00577666
0.00577661
0.00577655
0.00577648
0.0057764
0.00577631
0.0057762
0.00577608
0.00577594
0.00577579
0.00577563
0.00577545
0.00577525
0.00577504
0.00577482
0.00577457
0.00577431
0.00577403
0.00577373
0.00577342
0.00577308
0.00577273
0.00577236
0.00577197
0.00577157
0.00577115
0.0057707
0.00599559
0.00599608
0.00599652
0.00599696
0.00599737
0.00599777
0.00599815
0.00599851
0.00599885
0.00599917
0.00599947
0.00599975
0.00600002
0.00600026
0.00600049
0.0060007
0.00600089
0.00600107
0.00600123
0.00600137
0.0060015
0.00600162
0.00600172
0.00600181
0.00600188
0.00600195
0.00600199
0.00600203
0.00600206
0.00600207
0.00600207
0.00600206
0.00600203
0.00600199
0.00600195
0.00600188
0.00600181
0.00600172
0.00600162
0.0060015
0.00600137
0.00600123
0.00600107
0.00600089
0.0060007
0.00600049
0.00600026
0.00600002
0.00599975
0.00599947
0.00599917
0.00599885
0.00599851
0.00599815
0.00599777
0.00599737
0.00599696
0.00599652
0.00599608
0.00599559
0.00625536
0.00625588
0.00625637
0.00625683
0.00625729
0.00625772
0.00625813
0.00625852
0.00625889
0.00625924
0.00625956
0.00625987
0.00626015
0.00626042
0.00626066
0.00626089
0.0062611
0.00626129
0.00626147
0.00626162
0.00626177
0.00626189
0.006262
0.0062621
0.00626218
0.00626225
0.0062623
0.00626234
0.00626237
0.00626238
0.00626238
0.00626237
0.00626234
0.0062623
0.00626225
0.00626218
0.0062621
0.006262
0.00626189
0.00626177
0.00626162
0.00626147
0.00626129
0.0062611
0.00626089
0.00626066
0.00626042
0.00626015
0.00625987
0.00625956
0.00625924
0.00625889
0.00625852
0.00625813
0.00625772
0.00625729
0.00625683
0.00625637
0.00625588
0.00625536
0.00655907
0.00655964
0.00656018
0.00656069
0.00656119
0.00656166
0.00656211
0.00656254
0.00656294
0.00656333
0.00656368
0.00656402
0.00656433
0.00656462
0.00656489
0.00656514
0.00656537
0.00656558
0.00656577
0.00656595
0.0065661
0.00656624
0.00656636
0.00656647
0.00656656
0.00656663
0.00656669
0.00656673
0.00656676
0.00656678
0.00656678
0.00656676
0.00656673
0.00656669
0.00656663
0.00656656
0.00656647
0.00656636
0.00656624
0.0065661
0.00656595
0.00656577
0.00656558
0.00656537
0.00656514
0.00656489
0.00656462
0.00656433
0.00656402
0.00656368
0.00656333
0.00656294
0.00656254
0.00656211
0.00656166
0.00656119
0.00656069
0.00656018
0.00655964
0.00655907
0.0069193
0.00691993
0.00692053
0.0069211
0.00692165
0.00692217
0.00692268
0.00692315
0.0069236
0.00692403
0.00692443
0.0069248
0.00692515
0.00692547
0.00692577
0.00692605
0.0069263
0.00692654
0.00692675
0.00692694
0.00692711
0.00692727
0.0069274
0.00692752
0.00692762
0.0069277
0.00692777
0.00692782
0.00692785
0.00692787
0.00692787
0.00692785
0.00692782
0.00692777
0.0069277
0.00692762
0.00692752
0.0069274
0.00692727
0.00692711
0.00692694
0.00692675
0.00692654
0.0069263
0.00692605
0.00692577
0.00692547
0.00692515
0.0069248
0.00692443
0.00692403
0.0069236
0.00692315
0.00692268
0.00692217
0.00692165
0.0069211
0.00692053
0.00691993
0.0069193
0.00735381
0.00735453
0.00735519
0.00735584
0.00735646
0.00735706
0.00735762
0.00735816
0.00735867
0.00735915
0.0073596
0.00736002
0.00736042
0.00736078
0.00736112
0.00736144
0.00736172
0.00736199
0.00736223
0.00736245
0.00736264
0.00736282
0.00736297
0.0073631
0.00736321
0.00736331
0.00736338
0.00736344
0.00736347
0.00736349
0.00736349
0.00736347
0.00736344
0.00736338
0.00736331
0.00736321
0.0073631
0.00736297
0.00736282
0.00736264
0.00736245
0.00736223
0.00736199
0.00736172
0.00736144
0.00736112
0.00736078
0.00736042
0.00736002
0.0073596
0.00735915
0.00735867
0.00735816
0.00735762
0.00735706
0.00735646
0.00735584
0.00735519
0.00735453
0.00735381
0.00788821
0.00788903
0.0078898
0.00789054
0.00789126
0.00789195
0.0078926
0.00789322
0.00789381
0.00789436
0.00789488
0.00789537
0.00789582
0.00789624
0.00789663
0.007897
0.00789733
0.00789763
0.00789791
0.00789816
0.00789839
0.00789859
0.00789877
0.00789892
0.00789905
0.00789916
0.00789924
0.00789931
0.00789935
0.00789937
0.00789937
0.00789935
0.00789931
0.00789924
0.00789916
0.00789905
0.00789892
0.00789877
0.00789859
0.00789839
0.00789816
0.00789791
0.00789763
0.00789733
0.007897
0.00789663
0.00789624
0.00789582
0.00789537
0.00789488
0.00789436
0.00789381
0.00789322
0.0078926
0.00789195
0.00789126
0.00789054
0.0078898
0.00788903
0.00788821
0.00855971
0.00856067
0.00856157
0.00856244
0.00856329
0.0085641
0.00856487
0.00856561
0.0085663
0.00856695
0.00856756
0.00856814
0.00856867
0.00856917
0.00856963
0.00857006
0.00857045
0.00857081
0.00857114
0.00857144
0.00857171
0.00857194
0.00857215
0.00857233
0.00857248
0.00857261
0.00857271
0.00857279
0.00857284
0.00857286
0.00857286
0.00857284
0.00857279
0.00857271
0.00857261
0.00857248
0.00857233
0.00857215
0.00857194
0.00857171
0.00857144
0.00857114
0.00857081
0.00857045
0.00857006
0.00856963
0.00856917
0.00856867
0.00856814
0.00856756
0.00856695
0.0085663
0.00856561
0.00856487
0.0085641
0.00856329
0.00856244
0.00856157
0.00856067
0.00855971
0.00942179
0.00942294
0.00942403
0.00942508
0.00942611
0.00942709
0.00942802
0.00942891
0.00942974
0.00943053
0.00943127
0.00943197
0.00943262
0.00943322
0.00943378
0.0094343
0.00943477
0.00943521
0.0094356
0.00943596
0.00943628
0.00943657
0.00943682
0.00943704
0.00943723
0.00943738
0.0094375
0.00943759
0.00943765
0.00943768
0.00943768
0.00943765
0.00943759
0.0094375
0.00943738
0.00943723
0.00943704
0.00943682
0.00943657
0.00943628
0.00943596
0.0094356
0.00943521
0.00943477
0.0094343
0.00943378
0.00943322
0.00943262
0.00943197
0.00943127
0.00943053
0.00942974
0.00942891
0.00942802
0.00942709
0.00942611
0.00942508
0.00942403
0.00942294
0.00942179
0.0105484
0.0105498
0.0105511
0.0105524
0.0105537
0.0105549
0.0105561
0.0105572
0.0105582
0.0105592
0.0105601
0.010561
0.0105618
0.0105625
0.0105632
0.0105638
0.0105644
0.010565
0.0105655
0.0105659
0.0105663
0.0105666
0.010567
0.0105672
0.0105675
0.0105677
0.0105678
0.0105679
0.010568
0.010568
0.010568
0.010568
0.0105679
0.0105678
0.0105677
0.0105675
0.0105672
0.010567
0.0105666
0.0105663
0.0105659
0.0105655
0.010565
0.0105644
0.0105638
0.0105632
0.0105625
0.0105618
0.010561
0.0105601
0.0105592
0.0105582
0.0105572
0.0105561
0.0105549
0.0105537
0.0105524
0.0105511
0.0105498
0.0105484
0.0120339
0.0120357
0.0120373
0.012039
0.0120406
0.0120421
0.0120435
0.0120449
0.0120462
0.0120474
0.0120486
0.0120497
0.0120507
0.0120516
0.0120525
0.0120533
0.012054
0.0120547
0.0120553
0.0120559
0.0120564
0.0120568
0.0120572
0.0120575
0.0120578
0.0120581
0.0120583
0.0120584
0.0120585
0.0120585
0.0120585
0.0120585
0.0120584
0.0120583
0.0120581
0.0120578
0.0120575
0.0120572
0.0120568
0.0120564
0.0120559
0.0120553
0.0120547
0.012054
0.0120533
0.0120525
0.0120516
0.0120507
0.0120497
0.0120486
0.0120474
0.0120462
0.0120449
0.0120435
0.0120421
0.0120406
0.012039
0.0120373
0.0120357
0.0120339
0.0139839
0.0139861
0.0139882
0.0139902
0.0139922
0.0139942
0.013996
0.0139977
0.0139994
0.0140009
0.0140024
0.0140037
0.014005
0.0140062
0.0140073
0.0140083
0.0140092
0.01401
0.0140108
0.0140115
0.0140122
0.0140127
0.0140132
0.0140136
0.014014
0.0140143
0.0140145