/*--------------------------------*- C++ -*----------------------------------*\
| =========                 |                                                 |
| \\      /  F ield         | foam-extend: Open Source CFD                    |
|  \\    /   O peration     | Version:     4.0                                |
|   \\  /    A nd           | Web:         http://www.foam-extend.org         |
|    \\/     M anipulation  |                                                 |
\*---------------------------------------------------------------------------*/
FoamFile
{
    version     2.0;
    format      ascii;
    class       volVectorField;
    location    "16";
    object      bodyForce;
}
// * * * * * * * * * * * * * * * * * * * * * * * * * * * * * * * * * * * * * //

dimensions      [1 -2 -2 0 0 0 0];

internalField   nonuniform List<vector> 
6960
(
(-0 -6.62711e-15 -0)
(-1.29094e-31 -6.62711e-15 -0)
(-1.29094e-31 -6.62711e-15 -0)
(-0 -6.62711e-15 -0)
(4.97935e-31 -6.62711e-15 -0)
(1.01431e-30 -6.62711e-15 -0)
(6.08587e-31 -6.62711e-15 -0)
(1.65978e-31 -6.62711e-15 -0)
(-8.48333e-31 -6.62711e-15 -0)
(-1.25406e-30 -6.62711e-15 -0)
(-5.16377e-31 -6.62711e-15 -0)
(3.13515e-31 -6.62711e-15 -0)
(5.16377e-31 -6.62711e-15 -0)
(-0 -6.62711e-15 -0)
(1.47536e-31 -6.62711e-15 -0)
(3.50399e-31 -6.62711e-15 -0)
(7.93007e-31 -6.62711e-15 -0)
(6.08587e-31 -6.62711e-15 -0)
(-4.97935e-31 -6.62711e-15 -0)
(-7.19239e-31 -6.62711e-15 -0)
(-3.87283e-31 -6.62711e-15 -0)
(-3.68841e-32 -6.62711e-15 -0)
(3.50399e-31 -6.62711e-15 -0)
(1.8442e-31 -6.62711e-15 -0)
(2.58188e-31 -6.62711e-15 -0)
(-9.22102e-32 -6.62711e-15 -0)
(-4.42609e-31 -6.62711e-15 -0)
(4.97935e-31 -6.62711e-15 -0)
(4.42609e-31 -6.62711e-15 -0)
(2.02862e-31 -6.62711e-15 -0)
(1.8442e-32 -6.62711e-15 -0)
(-7.56123e-31 -6.62711e-15 -0)
(-0 -6.62711e-15 -0)
(2.58188e-31 -6.62711e-15 -0)
(-3.13515e-31 -6.62711e-15 -0)
(-3.68841e-32 -6.62711e-15 -0)
(-2.95072e-31 -6.62711e-15 -0)
(-4.97935e-31 -6.62711e-15 -0)
(-2.21304e-31 -6.62711e-15 -0)
(1.47536e-31 -6.62711e-15 -0)
(2.95072e-31 -6.62711e-15 -0)
(-9.22102e-32 -6.62711e-15 -0)
(4.05725e-31 -6.62711e-15 -0)
(4.42609e-31 -6.62711e-15 -0)
(-5.53261e-32 -6.62711e-15 -0)
(1.8442e-31 -6.62711e-15 -0)
(3.13515e-31 -6.62711e-15 -0)
(2.58188e-31 -6.62711e-15 -0)
(-0 -6.62711e-15 -0)
(1.10652e-31 -6.62711e-15 -0)
(5.90145e-31 -6.62711e-15 -0)
(6.27029e-31 -6.62711e-15 -0)
(-1.29094e-31 -6.62711e-15 -0)
(-7.74565e-31 -6.62711e-15 -0)
(-1.8442e-31 -6.62711e-15 -0)
(3.50399e-31 -6.62711e-15 -0)
(-8.48333e-31 -6.62711e-15 -0)
(-9.58986e-31 -6.62711e-15 -0)
(-2.58188e-31 -6.62711e-15 -0)
(-3.31957e-31 -6.62711e-15 -0)
(2.50664e-31 -6.62711e-15 -0)
(-4.2971e-31 -6.62711e-15 -0)
(-7.87802e-31 -6.62711e-15 -0)
(-1.43237e-31 -6.62711e-15 -0)
(1.75465e-30 -6.62711e-15 -0)
(3.15121e-30 -6.62711e-15 -0)
(1.75465e-30 -6.62711e-15 -0)
(5.72947e-31 -6.62711e-15 -0)
(-2.43502e-30 -6.62711e-15 -0)
(-3.86739e-30 -6.62711e-15 -0)
(-1.53979e-30 -6.62711e-15 -0)
(9.66847e-31 -6.62711e-15 -0)
(1.61141e-30 -6.62711e-15 -0)
(-1.43237e-31 -6.62711e-15 -0)
(4.65519e-31 -6.62711e-15 -0)
(1.1817e-30 -6.62711e-15 -0)
(2.39921e-30 -6.62711e-15 -0)
(1.93369e-30 -6.62711e-15 -0)
(-1.71884e-30 -6.62711e-15 -0)
(-2.43502e-30 -6.62711e-15 -0)
(-1.03847e-30 -6.62711e-15 -0)
(3.58092e-32 -6.62711e-15 -0)
(1.03847e-30 -6.62711e-15 -0)
(6.44565e-31 -6.62711e-15 -0)
(1.03847e-30 -6.62711e-15 -0)
(-2.50664e-31 -6.62711e-15 -0)
(-1.46818e-30 -6.62711e-15 -0)
(1.5756e-30 -6.62711e-15 -0)
(1.32494e-30 -6.62711e-15 -0)
(6.80374e-31 -6.62711e-15 -0)
(-2.14855e-31 -6.62711e-15 -0)
(-2.54245e-30 -6.62711e-15 -0)
(7.16183e-32 -6.62711e-15 -0)
(7.51992e-31 -6.62711e-15 -0)
(-1.14589e-30 -6.62711e-15 -0)
(7.16183e-32 -6.62711e-15 -0)
(-8.95229e-31 -6.62711e-15 -0)
(-1.28913e-30 -6.62711e-15 -0)
(-4.65519e-31 -6.62711e-15 -0)
(3.58092e-31 -6.62711e-15 -0)
(9.31038e-31 -6.62711e-15 -0)
(-2.14855e-31 -6.62711e-15 -0)
(9.31038e-31 -6.62711e-15 -0)
(1.25332e-30 -6.62711e-15 -0)
(7.16183e-32 -6.62711e-15 -0)
(5.01328e-31 -6.62711e-15 -0)
(9.66847e-31 -6.62711e-15 -0)
(8.5942e-31 -6.62711e-15 -0)
(7.16183e-32 -6.62711e-15 -0)
(1.07427e-31 -6.62711e-15 -0)
(1.71884e-30 -6.62711e-15 -0)
(1.86208e-30 -6.62711e-15 -0)
(-3.58092e-31 -6.62711e-15 -0)
(-2.25598e-30 -6.62711e-15 -0)
(-6.08756e-31 -6.62711e-15 -0)
(1.07427e-30 -6.62711e-15 -0)
(-2.43502e-30 -6.62711e-15 -0)
(-2.97216e-30 -6.62711e-15 -0)
(-8.95229e-31 -6.62711e-15 -0)
(-8.23611e-31 -6.62711e-15 -0)
(6.95312e-32 -6.62711e-15 -0)
(-9.03905e-31 -6.62711e-15 -0)
(-9.73437e-31 -6.62711e-15 -0)
(2.08594e-31 -6.62711e-15 -0)
(2.92031e-30 -6.62711e-15 -0)
(5.3539e-30 -6.62711e-15 -0)
(2.71172e-30 -6.62711e-15 -0)
(8.34374e-31 -6.62711e-15 -0)
(-4.17187e-30 -6.62711e-15 -0)
(-6.81406e-30 -6.62711e-15 -0)
(-2.57265e-30 -6.62711e-15 -0)
(2.15547e-30 -6.62711e-15 -0)
(2.85078e-30 -6.62711e-15 -0)
(-3.47656e-31 -6.62711e-15 -0)
(9.73437e-31 -6.62711e-15 -0)
(1.46015e-30 -6.62711e-15 -0)
(3.96328e-30 -6.62711e-15 -0)
(3.54609e-30 -6.62711e-15 -0)
(-2.71172e-30 -6.62711e-15 -0)
(-4.10234e-30 -6.62711e-15 -0)
(-1.66875e-30 -6.62711e-15 -0)
(-2.78125e-31 -6.62711e-15 -0)
(1.46015e-30 -6.62711e-15 -0)
(1.32109e-30 -6.62711e-15 -0)
(1.59922e-30 -6.62711e-15 -0)
(-6.25781e-31 -6.62711e-15 -0)
(-2.225e-30 -6.62711e-15 -0)
(2.50312e-30 -6.62711e-15 -0)
(2.225e-30 -6.62711e-15 -0)
(1.25156e-30 -6.62711e-15 -0)
(4.17187e-31 -6.62711e-15 -0)
(-3.96328e-30 -6.62711e-15 -0)
(-2.08594e-31 -6.62711e-15 -0)
(1.1125e-30 -6.62711e-15 -0)
(-2.08594e-30 -6.62711e-15 -0)
(-0 -6.62711e-15 -0)
(-1.32109e-30 -6.62711e-15 -0)
(-2.50312e-30 -6.62711e-15 -0)
(-1.04297e-30 -6.62711e-15 -0)
(6.95312e-31 -6.62711e-15 -0)
(1.80781e-30 -6.62711e-15 -0)
(-2.08594e-31 -6.62711e-15 -0)
(1.46015e-30 -6.62711e-15 -0)
(1.94687e-30 -6.62711e-15 -0)
(3.47656e-31 -6.62711e-15 -0)
(1.04297e-30 -6.62711e-15 -0)
(1.46015e-30 -6.62711e-15 -0)
(1.25156e-30 -6.62711e-15 -0)
(-0 -6.62711e-15 -0)
(6.95312e-32 -6.62711e-15 -0)
(2.78125e-30 -6.62711e-15 -0)
(3.47656e-30 -6.62711e-15 -0)
(-5.5625e-31 -6.62711e-15 -0)
(-3.96328e-30 -6.62711e-15 -0)
(-9.73437e-31 -6.62711e-15 -0)
(1.52969e-30 -6.62711e-15 -0)
(-4.2414e-30 -6.62711e-15 -0)
(-4.51953e-30 -6.62711e-15 -0)
(-1.25156e-30 -6.62711e-15 -0)
(-1.66875e-30 -6.62711e-15 -0)
(4.05029e-31 -6.62711e-15 -0)
(-1.08008e-30 -6.62711e-15 -0)
(-1.75513e-30 -6.62711e-15 -0)
(-5.40039e-31 -6.62711e-15 -0)
(4.1853e-30 -6.62711e-15 -0)
(7.56055e-30 -6.62711e-15 -0)
(4.1853e-30 -6.62711e-15 -0)
(1.21509e-30 -6.62711e-15 -0)
(-6.21045e-30 -6.62711e-15 -0)
(-9.58569e-30 -6.62711e-15 -0)
(-3.78027e-30 -6.62711e-15 -0)
(2.70019e-30 -6.62711e-15 -0)
(3.78027e-30 -6.62711e-15 -0)
(-0 -6.62711e-15 -0)
(1.08008e-30 -6.62711e-15 -0)
(2.43018e-30 -6.62711e-15 -0)
(5.67041e-30 -6.62711e-15 -0)
(4.99536e-30 -6.62711e-15 -0)
(-4.05029e-30 -6.62711e-15 -0)
(-5.5354e-30 -6.62711e-15 -0)
(-2.56519e-30 -6.62711e-15 -0)
(1.3501e-31 -6.62711e-15 -0)
(2.16016e-30 -6.62711e-15 -0)
(1.48511e-30 -6.62711e-15 -0)
(2.29517e-30 -6.62711e-15 -0)
(-6.75049e-31 -6.62711e-15 -0)
(-2.97021e-30 -6.62711e-15 -0)
(3.24023e-30 -6.62711e-15 -0)
(3.10522e-30 -6.62711e-15 -0)
(1.62012e-30 -6.62711e-15 -0)
(2.70019e-31 -6.62711e-15 -0)
(-5.67041e-30 -6.62711e-15 -0)
(2.70019e-31 -6.62711e-15 -0)
(1.89014e-30 -6.62711e-15 -0)
(-2.97021e-30 -6.62711e-15 -0)
(-2.70019e-31 -6.62711e-15 -0)
(-1.75513e-30 -6.62711e-15 -0)
(-3.64526e-30 -6.62711e-15 -0)
(-1.08008e-30 -6.62711e-15 -0)
(1.08008e-30 -6.62711e-15 -0)
(2.02515e-30 -6.62711e-15 -0)
(-5.40039e-31 -6.62711e-15 -0)
(2.29517e-30 -6.62711e-15 -0)
(2.56519e-30 -6.62711e-15 -0)
(1.3501e-31 -6.62711e-15 -0)
(1.75513e-30 -6.62711e-15 -0)
(1.89014e-30 -6.62711e-15 -0)
(1.89014e-30 -6.62711e-15 -0)
(4.05029e-31 -6.62711e-15 -0)
(5.40039e-31 -6.62711e-15 -0)
(4.32031e-30 -6.62711e-15 -0)
(4.86035e-30 -6.62711e-15 -0)
(-9.45068e-31 -6.62711e-15 -0)
(-5.40039e-30 -6.62711e-15 -0)
(-1.48511e-30 -6.62711e-15 -0)
(2.29517e-30 -6.62711e-15 -0)
(-6.21045e-30 -6.62711e-15 -0)
(-6.75049e-30 -6.62711e-15 -0)
(-1.89014e-30 -6.62711e-15 -0)
(-2.43018e-30 -6.62711e-15 -0)
(3.93226e-31 -6.62711e-15 -0)
(-1.44183e-30 -6.62711e-15 -0)
(-2.0972e-30 -6.62711e-15 -0)
(-0 -6.62711e-15 -0)
(4.98086e-30 -6.62711e-15 -0)
(9.83064e-30 -6.62711e-15 -0)
(6.29161e-30 -6.62711e-15 -0)
(1.44183e-30 -6.62711e-15 -0)
(-8.78204e-30 -6.62711e-15 -0)
(-1.20589e-29 -6.62711e-15 -0)
(-4.19441e-30 -6.62711e-15 -0)
(3.93226e-30 -6.62711e-15 -0)
(4.84978e-30 -6.62711e-15 -0)
(-2.6215e-31 -6.62711e-15 -0)
(1.70398e-30 -6.62711e-15 -0)
(2.49043e-30 -6.62711e-15 -0)
(7.07806e-30 -6.62711e-15 -0)
(6.68484e-30 -6.62711e-15 -0)
(-4.98086e-30 -6.62711e-15 -0)
(-7.60236e-30 -6.62711e-15 -0)
(-3.01473e-30 -6.62711e-15 -0)
(-0 -6.62711e-15 -0)
(2.88365e-30 -6.62711e-15 -0)
(1.70398e-30 -6.62711e-15 -0)
(2.6215e-30 -6.62711e-15 -0)
(-6.55376e-31 -6.62711e-15 -0)
(-4.06333e-30 -6.62711e-15 -0)
(4.98086e-30 -6.62711e-15 -0)
(4.58763e-30 -6.62711e-15 -0)
(2.0972e-30 -6.62711e-15 -0)
(1.31075e-31 -6.62711e-15 -0)
(-7.20914e-30 -6.62711e-15 -0)
(1.31075e-31 -6.62711e-15 -0)
(2.35935e-30 -6.62711e-15 -0)
(-4.19441e-30 -6.62711e-15 -0)
(-2.6215e-31 -6.62711e-15 -0)
(-2.22828e-30 -6.62711e-15 -0)
(-5.63623e-30 -6.62711e-15 -0)
(-1.70398e-30 -6.62711e-15 -0)
(2.35935e-30 -6.62711e-15 -0)
(2.49043e-30 -6.62711e-15 -0)
(-1.31075e-30 -6.62711e-15 -0)
(2.88365e-30 -6.62711e-15 -0)
(4.19441e-30 -6.62711e-15 -0)
(-0 -6.62711e-15 -0)
(1.96613e-30 -6.62711e-15 -0)
(3.01473e-30 -6.62711e-15 -0)
(3.01473e-30 -6.62711e-15 -0)
(-0 -6.62711e-15 -0)
(-0 -6.62711e-15 -0)
(4.98086e-30 -6.62711e-15 -0)
(6.02946e-30 -6.62711e-15 -0)
(-7.86451e-31 -6.62711e-15 -0)
(-6.68484e-30 -6.62711e-15 -0)
(-1.70398e-30 -6.62711e-15 -0)
(2.88365e-30 -6.62711e-15 -0)
(-7.86451e-30 -6.62711e-15 -0)
(-8.78204e-30 -6.62711e-15 -0)
(-2.75258e-30 -6.62711e-15 -0)
(-3.27688e-30 -6.62711e-15 -0)
(1.01804e-30 -6.62711e-15 -0)
(-1.52706e-30 -6.62711e-15 -0)
(-2.54511e-30 -6.62711e-15 -0)
(-0 -6.62711e-15 -0)
(6.36277e-30 -6.62711e-15 -0)
(1.17075e-29 -6.62711e-15 -0)
(7.1263e-30 -6.62711e-15 -0)
(2.03609e-30 -6.62711e-15 -0)
(-1.04349e-29 -6.62711e-15 -0)
(-1.47616e-29 -6.62711e-15 -0)
(-5.34472e-30 -6.62711e-15 -0)
(3.30864e-30 -6.62711e-15 -0)
(5.85375e-30 -6.62711e-15 -0)
(7.63532e-31 -6.62711e-15 -0)
(2.2906e-30 -6.62711e-15 -0)
(3.81766e-30 -6.62711e-15 -0)
(8.14434e-30 -6.62711e-15 -0)
(7.38081e-30 -6.62711e-15 -0)
(-5.09021e-30 -6.62711e-15 -0)
(-9.16239e-30 -6.62711e-15 -0)
(-4.07217e-30 -6.62711e-15 -0)
(7.63532e-31 -6.62711e-15 -0)
(3.56315e-30 -6.62711e-15 -0)
(2.03609e-30 -6.62711e-15 -0)
(3.56315e-30 -6.62711e-15 -0)
(-2.54511e-31 -6.62711e-15 -0)
(-5.09021e-30 -6.62711e-15 -0)
(5.34472e-30 -6.62711e-15 -0)
(5.34472e-30 -6.62711e-15 -0)
(2.2906e-30 -6.62711e-15 -0)
(-0 -6.62711e-15 -0)
(-9.67141e-30 -6.62711e-15 -0)
(-5.09021e-31 -6.62711e-15 -0)
(3.56315e-30 -6.62711e-15 -0)
(-3.56315e-30 -6.62711e-15 -0)
(-2.54511e-31 -6.62711e-15 -0)
(-4.07217e-30 -6.62711e-15 -0)
(-7.1263e-30 -6.62711e-15 -0)
(-1.01804e-30 -6.62711e-15 -0)
(3.05413e-30 -6.62711e-15 -0)
(3.30864e-30 -6.62711e-15 -0)
(-1.52706e-30 -6.62711e-15 -0)
(3.30864e-30 -6.62711e-15 -0)
(5.59924e-30 -6.62711e-15 -0)
(-0 -6.62711e-15 -0)
(2.2906e-30 -6.62711e-15 -0)
(3.56315e-30 -6.62711e-15 -0)
(3.30864e-30 -6.62711e-15 -0)
(-0 -6.62711e-15 -0)
(1.01804e-30 -6.62711e-15 -0)
(6.61728e-30 -6.62711e-15 -0)
(7.1263e-30 -6.62711e-15 -0)
(-1.01804e-30 -6.62711e-15 -0)
(-8.65336e-30 -6.62711e-15 -0)
(-2.54511e-30 -6.62711e-15 -0)
(3.30864e-30 -6.62711e-15 -0)
(-9.4169e-30 -6.62711e-15 -0)
(-1.1453e-29 -6.62711e-15 -0)
(-3.81766e-30 -6.62711e-15 -0)
(-4.07217e-30 -6.62711e-15 -0)
(2.22384e-30 -6.62711e-15 -0)
(-9.88374e-31 -6.62711e-15 -0)
(-3.45931e-30 -6.62711e-15 -0)
(-9.88374e-31 -6.62711e-15 -0)
(7.6599e-30 -6.62711e-15 -0)
(1.40843e-29 -6.62711e-15 -0)
(8.89537e-30 -6.62711e-15 -0)
(2.22384e-30 -6.62711e-15 -0)
(-1.28489e-29 -6.62711e-15 -0)
(-1.82849e-29 -6.62711e-15 -0)
(-6.42443e-30 -6.62711e-15 -0)
(4.20059e-30 -6.62711e-15 -0)
(6.67153e-30 -6.62711e-15 -0)
(4.94187e-31 -6.62711e-15 -0)
(3.7064e-30 -6.62711e-15 -0)
(4.44768e-30 -6.62711e-15 -0)
(1.01308e-29 -6.62711e-15 -0)
(8.89537e-30 -6.62711e-15 -0)
(-7.16571e-30 -6.62711e-15 -0)
(-1.01308e-29 -6.62711e-15 -0)
(-4.69478e-30 -6.62711e-15 -0)
(4.94187e-31 -6.62711e-15 -0)
(4.44768e-30 -6.62711e-15 -0)
(1.97675e-30 -6.62711e-15 -0)
(5.18897e-30 -6.62711e-15 -0)
(-4.94187e-31 -6.62711e-15 -0)
(-6.67153e-30 -6.62711e-15 -0)
(6.42443e-30 -6.62711e-15 -0)
(6.17734e-30 -6.62711e-15 -0)
(2.96512e-30 -6.62711e-15 -0)
(-4.94187e-31 -6.62711e-15 -0)
(-1.08721e-29 -6.62711e-15 -0)
(9.88374e-31 -6.62711e-15 -0)
(4.20059e-30 -6.62711e-15 -0)
(-5.93025e-30 -6.62711e-15 -0)
(-7.41281e-31 -6.62711e-15 -0)
(-3.7064e-30 -6.62711e-15 -0)
(-7.907e-30 -6.62711e-15 -0)
(-1.72966e-30 -6.62711e-15 -0)
(3.21222e-30 -6.62711e-15 -0)
(3.21222e-30 -6.62711e-15 -0)
(-1.23547e-30 -6.62711e-15 -0)
(4.44769e-30 -6.62711e-15 -0)
(5.43606e-30 -6.62711e-15 -0)
(-0 -6.62711e-15 -0)
(3.21222e-30 -6.62711e-15 -0)
(3.7064e-30 -6.62711e-15 -0)
(3.9535e-30 -6.62711e-15 -0)
(7.41281e-31 -6.62711e-15 -0)
(1.72966e-30 -6.62711e-15 -0)
(8.15409e-30 -6.62711e-15 -0)
(8.40118e-30 -6.62711e-15 -0)
(-1.97675e-30 -6.62711e-15 -0)
(-9.88374e-30 -6.62711e-15 -0)
(-2.22384e-30 -6.62711e-15 -0)
(3.7064e-30 -6.62711e-15 -0)
(-1.13663e-29 -6.62711e-15 -0)
(-1.38372e-29 -6.62711e-15 -0)
(-4.69478e-30 -6.62711e-15 -0)
(-4.44769e-30 -6.62711e-15 -0)
(1.19946e-30 -6.62711e-15 -0)
(-1.91914e-30 -6.62711e-15 -0)
(-2.15903e-30 -6.62711e-15 -0)
(-2.39893e-31 -6.62711e-15 -0)
(8.15635e-30 -6.62711e-15 -0)
(1.67925e-29 -6.62711e-15 -0)
(9.35581e-30 -6.62711e-15 -0)
(2.15903e-30 -6.62711e-15 -0)
(-1.46335e-29 -6.62711e-15 -0)
(-2.03909e-29 -6.62711e-15 -0)
(-8.15635e-30 -6.62711e-15 -0)
(4.07818e-30 -6.62711e-15 -0)
(7.91646e-30 -6.62711e-15 -0)
(1.19946e-30 -6.62711e-15 -0)
(4.31807e-30 -6.62711e-15 -0)
(6.23721e-30 -6.62711e-15 -0)
(1.1275e-29 -6.62711e-15 -0)
(8.87603e-30 -6.62711e-15 -0)
(-7.67657e-30 -6.62711e-15 -0)
(-1.29542e-29 -6.62711e-15 -0)
(-5.27764e-30 -6.62711e-15 -0)
(2.63882e-30 -6.62711e-15 -0)
(4.79785e-30 -6.62711e-15 -0)
(1.19946e-30 -6.62711e-15 -0)
(5.51753e-30 -6.62711e-15 -0)
(2.39893e-31 -6.62711e-15 -0)
(-8.87603e-30 -6.62711e-15 -0)
(6.4771e-30 -6.62711e-15 -0)
(8.39624e-30 -6.62711e-15 -0)
(4.55796e-30 -6.62711e-15 -0)
(4.79785e-31 -6.62711e-15 -0)
(-1.31941e-29 -6.62711e-15 -0)
(2.39893e-31 -6.62711e-15 -0)
(5.99732e-30 -6.62711e-15 -0)
(-6.71699e-30 -6.62711e-15 -0)
(-1.67925e-30 -6.62711e-15 -0)
(-5.03775e-30 -6.62711e-15 -0)
(-9.8356e-30 -6.62711e-15 -0)
(-1.43936e-30 -6.62711e-15 -0)
(4.31807e-30 -6.62711e-15 -0)
(2.87871e-30 -6.62711e-15 -0)
(-2.15903e-30 -6.62711e-15 -0)
(5.99732e-30 -6.62711e-15 -0)
(6.4771e-30 -6.62711e-15 -0)
(-0 -6.62711e-15 -0)
(4.31807e-30 -6.62711e-15 -0)
(3.1186e-30 -6.62711e-15 -0)
(4.79785e-30 -6.62711e-15 -0)
(7.19678e-31 -6.62711e-15 -0)
(1.67925e-30 -6.62711e-15 -0)
(9.11592e-30 -6.62711e-15 -0)
(1.03154e-29 -6.62711e-15 -0)
(-1.43936e-30 -6.62711e-15 -0)
(-1.19946e-29 -6.62711e-15 -0)
(-2.15903e-30 -6.62711e-15 -0)
(4.07818e-30 -6.62711e-15 -0)
(-1.3434e-29 -6.62711e-15 -0)
(-1.5593e-29 -6.62711e-15 -0)
(-7.19678e-30 -6.62711e-15 -0)
(-5.75742e-30 -6.62711e-15 -0)
(6.98705e-31 -6.62711e-15 -0)
(-1.63031e-30 -6.62711e-15 -0)
(-3.26062e-30 -6.62711e-15 -0)
(-4.65803e-31 -6.62711e-15 -0)
(9.54897e-30 -6.62711e-15 -0)
(2.00295e-29 -6.62711e-15 -0)
(1.32754e-29 -6.62711e-15 -0)
(1.39741e-30 -6.62711e-15 -0)
(-1.8865e-29 -6.62711e-15 -0)
(-2.28244e-29 -6.62711e-15 -0)
(-7.21995e-30 -6.62711e-15 -0)
(5.58964e-30 -6.62711e-15 -0)
(9.08316e-30 -6.62711e-15 -0)
(9.31606e-31 -6.62711e-15 -0)
(4.19223e-30 -6.62711e-15 -0)
(6.05544e-30 -6.62711e-15 -0)
(1.25767e-29 -6.62711e-15 -0)
(1.09464e-29 -6.62711e-15 -0)
(-7.91865e-30 -6.62711e-15 -0)
(-1.4207e-29 -6.62711e-15 -0)
(-7.45285e-30 -6.62711e-15 -0)
(1.16451e-30 -6.62711e-15 -0)
(4.89093e-30 -6.62711e-15 -0)
(1.39741e-30 -6.62711e-15 -0)
(7.91865e-30 -6.62711e-15 -0)
(4.65803e-31 -6.62711e-15 -0)
(-9.78187e-30 -6.62711e-15 -0)
(9.78187e-30 -6.62711e-15 -0)
(1.02477e-29 -6.62711e-15 -0)
(4.19223e-30 -6.62711e-15 -0)
(9.31606e-31 -6.62711e-15 -0)
(-1.53715e-29 -6.62711e-15 -0)
(-9.31606e-31 -6.62711e-15 -0)
(6.28834e-30 -6.62711e-15 -0)
(-7.91865e-30 -6.62711e-15 -0)
(-1.39741e-30 -6.62711e-15 -0)
(-6.05544e-30 -6.62711e-15 -0)
(-1.1878e-29 -6.62711e-15 -0)
(-1.16451e-30 -6.62711e-15 -0)
(5.82254e-30 -6.62711e-15 -0)
(3.72643e-30 -6.62711e-15 -0)
(-2.79482e-30 -6.62711e-15 -0)
(5.82254e-30 -6.62711e-15 -0)
(6.28834e-30 -6.62711e-15 -0)
(1.16451e-30 -6.62711e-15 -0)
(5.12383e-30 -6.62711e-15 -0)
(4.42513e-30 -6.62711e-15 -0)
(6.75415e-30 -6.62711e-15 -0)
(-4.65803e-31 -6.62711e-15 -0)
(-0 -6.62711e-15 -0)
(1.09464e-29 -6.62711e-15 -0)
(1.23438e-29 -6.62711e-15 -0)
(-1.63031e-30 -6.62711e-15 -0)
(-1.37412e-29 -6.62711e-15 -0)
(-2.56192e-30 -6.62711e-15 -0)
(5.12383e-30 -6.62711e-15 -0)
(-1.63031e-29 -6.62711e-15 -0)
(-1.74676e-29 -6.62711e-15 -0)
(-7.45285e-30 -6.62711e-15 -0)
(-6.28834e-30 -6.62711e-15 -0)
(2.26114e-30 -6.62711e-15 -0)
(-2.71337e-30 -6.62711e-15 -0)
(-4.07006e-30 -6.62711e-15 -0)
(-0 -6.62711e-15 -0)
(1.22102e-29 -6.62711e-15 -0)
(2.1707e-29 -6.62711e-15 -0)
(1.26624e-29 -6.62711e-15 -0)
(1.80891e-30 -6.62711e-15 -0)
(-1.94458e-29 -6.62711e-15 -0)
(-2.66815e-29 -6.62711e-15 -0)
(-9.04457e-30 -6.62711e-15 -0)
(5.87897e-30 -6.62711e-15 -0)
(9.4968e-30 -6.62711e-15 -0)
(2.26114e-30 -6.62711e-15 -0)
(4.97451e-30 -6.62711e-15 -0)
(9.04457e-30 -6.62711e-15 -0)
(1.44713e-29 -6.62711e-15 -0)
(9.4968e-30 -6.62711e-15 -0)
(-8.59234e-30 -6.62711e-15 -0)
(-1.5828e-29 -6.62711e-15 -0)
(-7.23566e-30 -6.62711e-15 -0)
(2.26114e-30 -6.62711e-15 -0)
(4.97451e-30 -6.62711e-15 -0)
(2.26114e-30 -6.62711e-15 -0)
(8.59234e-30 -6.62711e-15 -0)
(-0 -6.62711e-15 -0)
(-1.17579e-29 -6.62711e-15 -0)
(1.08535e-29 -6.62711e-15 -0)
(1.08535e-29 -6.62711e-15 -0)
(4.52228e-30 -6.62711e-15 -0)
(4.52228e-31 -6.62711e-15 -0)
(-1.67325e-29 -6.62711e-15 -0)
(-1.35669e-30 -6.62711e-15 -0)
(7.23566e-30 -6.62711e-15 -0)
(-8.14011e-30 -6.62711e-15 -0)
(-1.80891e-30 -6.62711e-15 -0)
(-7.68788e-30 -6.62711e-15 -0)
(-1.31146e-29 -6.62711e-15 -0)
(4.52228e-31 -6.62711e-15 -0)
(6.78343e-30 -6.62711e-15 -0)
(4.07006e-30 -6.62711e-15 -0)
(-1.80891e-30 -6.62711e-15 -0)
(5.42674e-30 -6.62711e-15 -0)
(5.87897e-30 -6.62711e-15 -0)
(3.1656e-30 -6.62711e-15 -0)
(5.42674e-30 -6.62711e-15 -0)
(4.52228e-30 -6.62711e-15 -0)
(7.68788e-30 -6.62711e-15 -0)
(-0 -6.62711e-15 -0)
(-0 -6.62711e-15 -0)
(1.22102e-29 -6.62711e-15 -0)
(1.44713e-29 -6.62711e-15 -0)
(-2.71337e-30 -6.62711e-15 -0)
(-1.53758e-29 -6.62711e-15 -0)
(-2.71337e-30 -6.62711e-15 -0)
(4.97451e-30 -6.62711e-15 -0)
(-1.71847e-29 -6.62711e-15 -0)
(-2.12547e-29 -6.62711e-15 -0)
(-9.94903e-30 -6.62711e-15 -0)
(-6.3312e-30 -6.62711e-15 -0)
(1.31715e-30 -6.62711e-15 -0)
(-2.6343e-30 -6.62711e-15 -0)
(-3.07335e-30 -6.62711e-15 -0)
(-0 -6.62711e-15 -0)
(1.18543e-29 -6.62711e-15 -0)
(2.50258e-29 -6.62711e-15 -0)
(1.53667e-29 -6.62711e-15 -0)
(1.7562e-30 -6.62711e-15 -0)
(-2.23915e-29 -6.62711e-15 -0)
(-2.89773e-29 -6.62711e-15 -0)
(-1.00981e-29 -6.62711e-15 -0)
(5.26859e-30 -6.62711e-15 -0)
(1.09762e-29 -6.62711e-15 -0)
(2.19525e-30 -6.62711e-15 -0)
(6.14669e-30 -6.62711e-15 -0)
(1.05372e-29 -6.62711e-15 -0)
(1.62448e-29 -6.62711e-15 -0)
(1.00981e-29 -6.62711e-15 -0)
(-1.05372e-29 -6.62711e-15 -0)
(-1.66839e-29 -6.62711e-15 -0)
(-7.90289e-30 -6.62711e-15 -0)
(3.07335e-30 -6.62711e-15 -0)
(6.14669e-30 -6.62711e-15 -0)
(8.78099e-31 -6.62711e-15 -0)
(1.00981e-29 -6.62711e-15 -0)
(1.31715e-30 -6.62711e-15 -0)
(-1.40496e-29 -6.62711e-15 -0)
(1.09762e-29 -6.62711e-15 -0)
(1.44886e-29 -6.62711e-15 -0)
(5.70764e-30 -6.62711e-15 -0)
(-2.6343e-30 -6.62711e-15 -0)
(-2.01963e-29 -6.62711e-15 -0)
(4.39049e-31 -6.62711e-15 -0)
(8.78099e-30 -6.62711e-15 -0)
(-9.22004e-30 -6.62711e-15 -0)
(-3.5124e-30 -6.62711e-15 -0)
(-8.34194e-30 -6.62711e-15 -0)
(-1.31715e-29 -6.62711e-15 -0)
(1.7562e-30 -6.62711e-15 -0)
(7.02479e-30 -6.62711e-15 -0)
(2.19525e-30 -6.62711e-15 -0)
(-3.5124e-30 -6.62711e-15 -0)
(7.90289e-30 -6.62711e-15 -0)
(7.90289e-30 -6.62711e-15 -0)
(2.6343e-30 -6.62711e-15 -0)
(7.46384e-30 -6.62711e-15 -0)
(3.5124e-30 -6.62711e-15 -0)
(7.46384e-30 -6.62711e-15 -0)
(1.31715e-30 -6.62711e-15 -0)
(8.78099e-31 -6.62711e-15 -0)
(1.31715e-29 -6.62711e-15 -0)
(1.49277e-29 -6.62711e-15 -0)
(-1.7562e-30 -6.62711e-15 -0)
(-1.71229e-29 -6.62711e-15 -0)
(-3.07335e-30 -6.62711e-15 -0)
(7.02479e-30 -6.62711e-15 -0)
(-1.93182e-29 -6.62711e-15 -0)
(-2.32696e-29 -6.62711e-15 -0)
(-1.18543e-29 -6.62711e-15 -0)
(-8.78099e-30 -6.62711e-15 -0)
(1.70502e-30 -6.62711e-15 -0)
(-2.55753e-30 -6.62711e-15 -0)
(-2.98378e-30 -6.62711e-15 -0)
(-8.52509e-31 -6.62711e-15 -0)
(1.44926e-29 -6.62711e-15 -0)
(2.94116e-29 -6.62711e-15 -0)
(1.66239e-29 -6.62711e-15 -0)
(-4.26254e-31 -6.62711e-15 -0)
(-2.55753e-29 -6.62711e-15 -0)
(-3.11166e-29 -6.62711e-15 -0)
(-9.3776e-30 -6.62711e-15 -0)
(4.26254e-30 -6.62711e-15 -0)
(8.52509e-30 -6.62711e-15 -0)
(3.83629e-30 -6.62711e-15 -0)
(5.54131e-30 -6.62711e-15 -0)
(1.06564e-29 -6.62711e-15 -0)
(1.91814e-29 -6.62711e-15 -0)
(1.19351e-29 -6.62711e-15 -0)
(-1.02301e-29 -6.62711e-15 -0)
(-1.91814e-29 -6.62711e-15 -0)
(-8.09883e-30 -6.62711e-15 -0)
(4.26254e-30 -6.62711e-15 -0)
(6.39382e-30 -6.62711e-15 -0)
(1.27876e-30 -6.62711e-15 -0)
(1.10826e-29 -6.62711e-15 -0)
(-8.52509e-31 -6.62711e-15 -0)
(-1.53452e-29 -6.62711e-15 -0)
(1.53452e-29 -6.62711e-15 -0)
(1.49189e-29 -6.62711e-15 -0)
(4.6888e-30 -6.62711e-15 -0)
(-1.27876e-30 -6.62711e-15 -0)
(-2.13127e-29 -6.62711e-15 -0)
(-1.27876e-30 -6.62711e-15 -0)
(1.06564e-29 -6.62711e-15 -0)
(-1.06564e-29 -6.62711e-15 -0)
(-3.83629e-30 -6.62711e-15 -0)
(-8.52509e-30 -6.62711e-15 -0)
(-1.44926e-29 -6.62711e-15 -0)
(8.52509e-31 -6.62711e-15 -0)
(7.67258e-30 -6.62711e-15 -0)
(3.41003e-30 -6.62711e-15 -0)
(-3.83629e-30 -6.62711e-15 -0)
(8.09883e-30 -6.62711e-15 -0)
(9.3776e-30 -6.62711e-15 -0)
(2.98378e-30 -6.62711e-15 -0)
(7.67258e-30 -6.62711e-15 -0)
(5.96756e-30 -6.62711e-15 -0)
(6.39382e-30 -6.62711e-15 -0)
(-4.26254e-31 -6.62711e-15 -0)
(2.13127e-30 -6.62711e-15 -0)
(1.70502e-29 -6.62711e-15 -0)
(1.70502e-29 -6.62711e-15 -0)
(-3.83629e-30 -6.62711e-15 -0)
(-1.83289e-29 -6.62711e-15 -0)
(-2.55753e-30 -6.62711e-15 -0)
(5.96756e-30 -6.62711e-15 -0)
(-2.13127e-29 -6.62711e-15 -0)
(-2.55753e-29 -6.62711e-15 -0)
(-1.15089e-29 -6.62711e-15 -0)
(-8.95134e-30 -6.62711e-15 -0)
(2.48299e-30 -6.62711e-15 -0)
(-2.48299e-30 -6.62711e-15 -0)
(-3.72449e-30 -6.62711e-15 -0)
(-1.2415e-30 -6.62711e-15 -0)
(1.44841e-29 -6.62711e-15 -0)
(3.22789e-29 -6.62711e-15 -0)
(1.98639e-29 -6.62711e-15 -0)
(-4.13832e-31 -6.62711e-15 -0)
(-2.93821e-29 -6.62711e-15 -0)
(-3.43481e-29 -6.62711e-15 -0)
(-1.03458e-29 -6.62711e-15 -0)
(5.37982e-30 -6.62711e-15 -0)
(1.03458e-29 -6.62711e-15 -0)
(4.13832e-30 -6.62711e-15 -0)
(4.96599e-30 -6.62711e-15 -0)
(1.15873e-29 -6.62711e-15 -0)
(2.11054e-29 -6.62711e-15 -0)
(1.36565e-29 -6.62711e-15 -0)
(-1.03458e-29 -6.62711e-15 -0)
(-2.15193e-29 -6.62711e-15 -0)
(-1.03458e-29 -6.62711e-15 -0)
(4.13832e-30 -6.62711e-15 -0)
(7.03515e-30 -6.62711e-15 -0)
(2.06916e-30 -6.62711e-15 -0)
(1.2415e-29 -6.62711e-15 -0)
(8.27664e-31 -6.62711e-15 -0)
(-1.77948e-29 -6.62711e-15 -0)
(1.4898e-29 -6.62711e-15 -0)
(1.65533e-29 -6.62711e-15 -0)
(5.37982e-30 -6.62711e-15 -0)
(-2.48299e-30 -6.62711e-15 -0)
(-2.44161e-29 -6.62711e-15 -0)
(-0 -6.62711e-15 -0)
(1.32426e-29 -6.62711e-15 -0)
(-1.15873e-29 -6.62711e-15 -0)
(-4.96599e-30 -6.62711e-15 -0)
(-9.10431e-30 -6.62711e-15 -0)
(-1.77948e-29 -6.62711e-15 -0)
(8.27664e-31 -6.62711e-15 -0)
(9.93197e-30 -6.62711e-15 -0)
(4.55215e-30 -6.62711e-15 -0)
(-3.72449e-30 -6.62711e-15 -0)
(7.03515e-30 -6.62711e-15 -0)
(9.51814e-30 -6.62711e-15 -0)
(5.79365e-30 -6.62711e-15 -0)
(9.10431e-30 -6.62711e-15 -0)
(4.55215e-30 -6.62711e-15 -0)
(5.37982e-30 -6.62711e-15 -0)
(8.27664e-31 -6.62711e-15 -0)
(1.65533e-30 -6.62711e-15 -0)
(1.69671e-29 -6.62711e-15 -0)
(2.02778e-29 -6.62711e-15 -0)
(-4.13832e-30 -6.62711e-15 -0)
(-2.02778e-29 -6.62711e-15 -0)
(-1.65533e-30 -6.62711e-15 -0)
(7.86281e-30 -6.62711e-15 -0)
(-2.44161e-29 -6.62711e-15 -0)
(-2.85544e-29 -6.62711e-15 -0)
(-1.36565e-29 -6.62711e-15 -0)
(-1.15873e-29 -6.62711e-15 -0)
(3.21418e-30 -6.62711e-15 -0)
(-1.20532e-30 -6.62711e-15 -0)
(-2.41063e-30 -6.62711e-15 -0)
(-8.03544e-31 -6.62711e-15 -0)
(1.52673e-29 -6.62711e-15 -0)
(3.41506e-29 -6.62711e-15 -0)
(2.12939e-29 -6.62711e-15 -0)
(-0 -6.62711e-15 -0)
(-3.29453e-29 -6.62711e-15 -0)
(-3.85701e-29 -6.62711e-15 -0)
(-9.64253e-30 -6.62711e-15 -0)
(4.41949e-30 -6.62711e-15 -0)
(9.24076e-30 -6.62711e-15 -0)
(6.83013e-30 -6.62711e-15 -0)
(6.83013e-30 -6.62711e-15 -0)
(1.08478e-29 -6.62711e-15 -0)
(2.24992e-29 -6.62711e-15 -0)
(1.60709e-29 -6.62711e-15 -0)
(-1.00443e-29 -6.62711e-15 -0)
(-2.2901e-29 -6.62711e-15 -0)
(-1.24549e-29 -6.62711e-15 -0)
(4.01772e-30 -6.62711e-15 -0)
(8.03544e-30 -6.62711e-15 -0)
(4.41949e-30 -6.62711e-15 -0)
(1.12496e-29 -6.62711e-15 -0)
(-8.03544e-31 -6.62711e-15 -0)
(-1.84815e-29 -6.62711e-15 -0)
(1.52673e-29 -6.62711e-15 -0)
(1.92851e-29 -6.62711e-15 -0)
(6.42835e-30 -6.62711e-15 -0)
(-3.61595e-30 -6.62711e-15 -0)
(-2.53116e-29 -6.62711e-15 -0)
(2.00886e-30 -6.62711e-15 -0)
(1.44638e-29 -6.62711e-15 -0)
(-1.32585e-29 -6.62711e-15 -0)
(-5.62481e-30 -6.62711e-15 -0)
(-1.16514e-29 -6.62711e-15 -0)
(-1.88833e-29 -6.62711e-15 -0)
(2.00886e-30 -6.62711e-15 -0)
(1.04461e-29 -6.62711e-15 -0)
(5.62481e-30 -6.62711e-15 -0)
(-5.62481e-30 -6.62711e-15 -0)
(6.83013e-30 -6.62711e-15 -0)
(1.36603e-29 -6.62711e-15 -0)
(5.62481e-30 -6.62711e-15 -0)
(8.43721e-30 -6.62711e-15 -0)
(6.02658e-30 -6.62711e-15 -0)
(6.02658e-30 -6.62711e-15 -0)
(-1.60709e-30 -6.62711e-15 -0)
(2.00886e-30 -6.62711e-15 -0)
(2.08921e-29 -6.62711e-15 -0)
(1.92851e-29 -6.62711e-15 -0)
(-4.82127e-30 -6.62711e-15 -0)
(-1.92851e-29 -6.62711e-15 -0)
(-2.8124e-30 -6.62711e-15 -0)
(8.03544e-30 -6.62711e-15 -0)
(-2.37046e-29 -6.62711e-15 -0)
(-3.33471e-29 -6.62711e-15 -0)
(-1.52673e-29 -6.62711e-15 -0)
(-9.24076e-30 -6.62711e-15 -0)
(3.90063e-30 -6.62711e-15 -0)
(-7.80127e-31 -6.62711e-15 -0)
(-3.90063e-30 -6.62711e-15 -0)
(7.80127e-31 -6.62711e-15 -0)
(1.8723e-29 -6.62711e-15 -0)
(3.51057e-29 -6.62711e-15 -0)
(2.34038e-29 -6.62711e-15 -0)
(-1.56025e-30 -6.62711e-15 -0)
(-3.6666e-29 -6.62711e-15 -0)
(-3.97865e-29 -6.62711e-15 -0)
(-1.01416e-29 -6.62711e-15 -0)
(4.68076e-30 -6.62711e-15 -0)
(9.36152e-30 -6.62711e-15 -0)
(6.24101e-30 -6.62711e-15 -0)
(6.24101e-30 -6.62711e-15 -0)
(1.17019e-29 -6.62711e-15 -0)
(2.65243e-29 -6.62711e-15 -0)
(1.71628e-29 -6.62711e-15 -0)
(-1.2482e-29 -6.62711e-15 -0)
(-2.57442e-29 -6.62711e-15 -0)
(-1.01416e-29 -6.62711e-15 -0)
(5.46089e-30 -6.62711e-15 -0)
(8.5814e-30 -6.62711e-15 -0)
(4.68076e-30 -6.62711e-15 -0)
(1.32622e-29 -6.62711e-15 -0)
(-2.34038e-30 -6.62711e-15 -0)
(-2.26237e-29 -6.62711e-15 -0)
(1.71628e-29 -6.62711e-15 -0)
(2.02833e-29 -6.62711e-15 -0)
(5.46089e-30 -6.62711e-15 -0)
(-0 -6.62711e-15 -0)
(-2.73044e-29 -6.62711e-15 -0)
(-0 -6.62711e-15 -0)
(1.79429e-29 -6.62711e-15 -0)
(-1.40423e-29 -6.62711e-15 -0)
(-9.36152e-30 -6.62711e-15 -0)
(-1.01416e-29 -6.62711e-15 -0)
(-1.8723e-29 -6.62711e-15 -0)
(1.56025e-30 -6.62711e-15 -0)
(1.17019e-29 -6.62711e-15 -0)
(3.90063e-30 -6.62711e-15 -0)
(-7.02114e-30 -6.62711e-15 -0)
(7.02114e-30 -6.62711e-15 -0)
(1.63827e-29 -6.62711e-15 -0)
(7.02114e-30 -6.62711e-15 -0)
(1.01416e-29 -6.62711e-15 -0)
(6.24101e-30 -6.62711e-15 -0)
(5.46089e-30 -6.62711e-15 -0)
(-2.34038e-30 -6.62711e-15 -0)
(1.56025e-30 -6.62711e-15 -0)
(2.02833e-29 -6.62711e-15 -0)
(2.18436e-29 -6.62711e-15 -0)
(-3.90063e-30 -6.62711e-15 -0)
(-1.95032e-29 -6.62711e-15 -0)
(-3.12051e-30 -6.62711e-15 -0)
(8.5814e-30 -6.62711e-15 -0)
(-2.57442e-29 -6.62711e-15 -0)
(-3.58858e-29 -6.62711e-15 -0)
(-1.63827e-29 -6.62711e-15 -0)
(-1.09218e-29 -6.62711e-15 -0)
(5.30174e-30 -6.62711e-15 -0)
(-1.51478e-30 -6.62711e-15 -0)
(-5.30174e-30 -6.62711e-15 -0)
(4.54435e-30 -6.62711e-15 -0)
(1.96922e-29 -6.62711e-15 -0)
(3.8627e-29 -6.62711e-15 -0)
(2.87809e-29 -6.62711e-15 -0)
(-2.27218e-30 -6.62711e-15 -0)
(-4.16566e-29 -6.62711e-15 -0)
(-4.2414e-29 -6.62711e-15 -0)
(-7.57392e-30 -6.62711e-15 -0)
(6.05914e-30 -6.62711e-15 -0)
(9.0887e-30 -6.62711e-15 -0)
(9.0887e-30 -6.62711e-15 -0)
(4.54435e-30 -6.62711e-15 -0)
(7.57392e-30 -6.62711e-15 -0)
(2.80235e-29 -6.62711e-15 -0)
(2.1207e-29 -6.62711e-15 -0)
(-1.28757e-29 -6.62711e-15 -0)
(-2.95383e-29 -6.62711e-15 -0)
(-1.36331e-29 -6.62711e-15 -0)
(4.54435e-30 -6.62711e-15 -0)
(9.8461e-30 -6.62711e-15 -0)
(7.57392e-30 -6.62711e-15 -0)
(1.28757e-29 -6.62711e-15 -0)
(-3.02957e-30 -6.62711e-15 -0)
(-2.04496e-29 -6.62711e-15 -0)
(1.89348e-29 -6.62711e-15 -0)
(2.57513e-29 -6.62711e-15 -0)
(6.81653e-30 -6.62711e-15 -0)
(-3.02957e-30 -6.62711e-15 -0)
(-3.25679e-29 -6.62711e-15 -0)
(2.27218e-30 -6.62711e-15 -0)
(1.59052e-29 -6.62711e-15 -0)
(-1.81774e-29 -6.62711e-15 -0)
(-6.05914e-30 -6.62711e-15 -0)
(-1.13609e-29 -6.62711e-15 -0)
(-2.19644e-29 -6.62711e-15 -0)
(3.78696e-30 -6.62711e-15 -0)
(1.51478e-29 -6.62711e-15 -0)
(6.81653e-30 -6.62711e-15 -0)
(-9.0887e-30 -6.62711e-15 -0)
(3.02957e-30 -6.62711e-15 -0)
(1.89348e-29 -6.62711e-15 -0)
(9.8461e-30 -6.62711e-15 -0)
(7.57392e-30 -6.62711e-15 -0)
(7.57392e-30 -6.62711e-15 -0)
(9.0887e-30 -6.62711e-15 -0)
(-5.30174e-30 -6.62711e-15 -0)
(-7.57392e-31 -6.62711e-15 -0)
(2.19644e-29 -6.62711e-15 -0)
(2.42365e-29 -6.62711e-15 -0)
(-4.54435e-30 -6.62711e-15 -0)
(-2.04496e-29 -6.62711e-15 -0)
(-3.02957e-30 -6.62711e-15 -0)
(7.57392e-30 -6.62711e-15 -0)
(-2.65087e-29 -6.62711e-15 -0)
(-3.40826e-29 -6.62711e-15 -0)
(-1.66626e-29 -6.62711e-15 -0)
(-1.21183e-29 -6.62711e-15 -0)
(7.3532e-30 -6.62711e-15 -0)
(-0 -6.62711e-15 -0)
(-5.14724e-30 -6.62711e-15 -0)
(4.41192e-30 -6.62711e-15 -0)
(2.27949e-29 -6.62711e-15 -0)
(4.19132e-29 -6.62711e-15 -0)
(2.86775e-29 -6.62711e-15 -0)
(-5.14724e-30 -6.62711e-15 -0)
(-4.63251e-29 -6.62711e-15 -0)