/*--------------------------------*- C++ -*----------------------------------*\
| =========                 |                                                 |
| \\      /  F ield         | foam-extend: Open Source CFD                    |
|  \\    /   O peration     | Version:     4.0                                |
|   \\  /    A nd           | Web:         http://www.foam-extend.org         |
|    \\/     M anipulation  |                                                 |
\*---------------------------------------------------------------------------*/
FoamFile
{
    version     2.0;
    format      ascii;
    class       volScalarField;
    location    "16";
    object      cMinus;
}
// * * * * * * * * * * * * * * * * * * * * * * * * * * * * * * * * * * * * * //

dimensions      [0 -3 0 0 0 0 0];

internalField   nonuniform List<scalar> 
6960
(
1.01377e-07
1.01377e-07
1.01376e-07
1.01375e-07
1.01375e-07
1.01374e-07
1.01374e-07
1.01373e-07
1.01373e-07
1.01372e-07
1.01372e-07
1.01371e-07
1.01371e-07
1.0137e-07
1.0137e-07
1.0137e-07
1.0137e-07
1.01369e-07
1.01369e-07
1.01369e-07
1.01369e-07
1.01368e-07
1.01368e-07
1.01368e-07
1.01368e-07
1.01368e-07
1.01368e-07
1.01368e-07
1.01368e-07
1.01368e-07
1.01368e-07
1.01368e-07
1.01368e-07
1.01368e-07
1.01368e-07
1.01368e-07
1.01368e-07
1.01368e-07
1.01369e-07
1.01369e-07
1.01369e-07
1.01369e-07
1.0137e-07
1.0137e-07
1.0137e-07
1.01371e-07
1.01371e-07
1.01372e-07
1.01372e-07
1.01373e-07
1.01373e-07
1.01374e-07
1.01374e-07
1.01375e-07
1.01375e-07
1.01376e-07
1.01376e-07
1.01377e-07
1.01378e-07
1.01379e-07
1.03044e-07
1.03043e-07
1.03042e-07
1.03041e-07
1.03041e-07
1.0304e-07
1.0304e-07
1.03039e-07
1.03039e-07
1.03038e-07
1.03038e-07
1.03037e-07
1.03037e-07
1.03037e-07
1.03036e-07
1.03036e-07
1.03036e-07
1.03035e-07
1.03035e-07
1.03035e-07
1.03035e-07
1.03034e-07
1.03034e-07
1.03034e-07
1.03034e-07
1.03034e-07
1.03034e-07
1.03034e-07
1.03034e-07
1.03034e-07
1.03034e-07
1.03034e-07
1.03034e-07
1.03034e-07
1.03034e-07
1.03034e-07
1.03034e-07
1.03035e-07
1.03035e-07
1.03035e-07
1.03035e-07
1.03036e-07
1.03036e-07
1.03036e-07
1.03037e-07
1.03037e-07
1.03037e-07
1.03038e-07
1.03038e-07
1.03039e-07
1.03039e-07
1.0304e-07
1.0304e-07
1.03041e-07
1.03041e-07
1.03042e-07
1.03043e-07
1.03043e-07
1.03044e-07
1.03045e-07
1.04789e-07
1.04788e-07
1.04787e-07
1.04786e-07
1.04786e-07
1.04785e-07
1.04784e-07
1.04784e-07
1.04783e-07
1.04783e-07
1.04783e-07
1.04782e-07
1.04782e-07
1.04781e-07
1.04781e-07
1.04781e-07
1.0478e-07
1.0478e-07
1.0478e-07
1.04779e-07
1.04779e-07
1.04779e-07
1.04779e-07
1.04779e-07
1.04779e-07
1.04779e-07
1.04778e-07
1.04778e-07
1.04778e-07
1.04778e-07
1.04778e-07
1.04778e-07
1.04778e-07
1.04779e-07
1.04779e-07
1.04779e-07
1.04779e-07
1.04779e-07
1.04779e-07
1.0478e-07
1.0478e-07
1.0478e-07
1.04781e-07
1.04781e-07
1.04781e-07
1.04782e-07
1.04782e-07
1.04783e-07
1.04783e-07
1.04783e-07
1.04784e-07
1.04784e-07
1.04785e-07
1.04786e-07
1.04786e-07
1.04787e-07
1.04787e-07
1.04788e-07
1.04789e-07
1.0479e-07
1.06617e-07
1.06616e-07
1.06615e-07
1.06614e-07
1.06614e-07
1.06613e-07
1.06613e-07
1.06612e-07
1.06611e-07
1.06611e-07
1.06611e-07
1.0661e-07
1.0661e-07
1.06609e-07
1.06609e-07
1.06609e-07
1.06608e-07
1.06608e-07
1.06608e-07
1.06607e-07
1.06607e-07
1.06607e-07
1.06607e-07
1.06607e-07
1.06607e-07
1.06606e-07
1.06606e-07
1.06606e-07
1.06606e-07
1.06606e-07
1.06606e-07
1.06606e-07
1.06606e-07
1.06607e-07
1.06607e-07
1.06607e-07
1.06607e-07
1.06607e-07
1.06607e-07
1.06608e-07
1.06608e-07
1.06608e-07
1.06609e-07
1.06609e-07
1.06609e-07
1.0661e-07
1.0661e-07
1.06611e-07
1.06611e-07
1.06611e-07
1.06612e-07
1.06613e-07
1.06613e-07
1.06614e-07
1.06614e-07
1.06615e-07
1.06616e-07
1.06616e-07
1.06617e-07
1.06618e-07
1.08533e-07
1.08532e-07
1.08531e-07
1.08531e-07
1.0853e-07
1.08529e-07
1.08529e-07
1.08528e-07
1.08528e-07
1.08527e-07
1.08527e-07
1.08526e-07
1.08526e-07
1.08525e-07
1.08525e-07
1.08525e-07
1.08524e-07
1.08524e-07
1.08524e-07
1.08524e-07
1.08523e-07
1.08523e-07
1.08523e-07
1.08523e-07
1.08523e-07
1.08523e-07
1.08523e-07
1.08522e-07
1.08522e-07
1.08522e-07
1.08522e-07
1.08523e-07
1.08523e-07
1.08523e-07
1.08523e-07
1.08523e-07
1.08523e-07
1.08523e-07
1.08524e-07
1.08524e-07
1.08524e-07
1.08524e-07
1.08525e-07
1.08525e-07
1.08525e-07
1.08526e-07
1.08526e-07
1.08527e-07
1.08527e-07
1.08528e-07
1.08528e-07
1.08529e-07
1.08529e-07
1.0853e-07
1.08531e-07
1.08531e-07
1.08532e-07
1.08533e-07
1.08533e-07
1.08534e-07
1.10543e-07
1.10542e-07
1.10541e-07
1.1054e-07
1.1054e-07
1.10539e-07
1.10539e-07
1.10538e-07
1.10537e-07
1.10537e-07
1.10537e-07
1.10536e-07
1.10536e-07
1.10535e-07
1.10535e-07
1.10535e-07
1.10534e-07
1.10534e-07
1.10534e-07
1.10533e-07
1.10533e-07
1.10533e-07
1.10533e-07
1.10533e-07
1.10532e-07
1.10532e-07
1.10532e-07
1.10532e-07
1.10532e-07
1.10532e-07
1.10532e-07
1.10532e-07
1.10532e-07
1.10532e-07
1.10533e-07
1.10533e-07
1.10533e-07
1.10533e-07
1.10533e-07
1.10534e-07
1.10534e-07
1.10534e-07
1.10534e-07
1.10535e-07
1.10535e-07
1.10536e-07
1.10536e-07
1.10537e-07
1.10537e-07
1.10538e-07
1.10538e-07
1.10539e-07
1.10539e-07
1.1054e-07
1.1054e-07
1.10541e-07
1.10542e-07
1.10542e-07
1.10543e-07
1.10544e-07
1.12652e-07
1.12651e-07
1.1265e-07
1.1265e-07
1.12649e-07
1.12648e-07
1.12648e-07
1.12647e-07
1.12647e-07
1.12646e-07
1.12646e-07
1.12645e-07
1.12645e-07
1.12644e-07
1.12644e-07
1.12643e-07
1.12643e-07
1.12643e-07
1.12643e-07
1.12642e-07
1.12642e-07
1.12642e-07
1.12642e-07
1.12641e-07
1.12641e-07
1.12641e-07
1.12641e-07
1.12641e-07
1.12641e-07
1.12641e-07
1.12641e-07
1.12641e-07
1.12641e-07
1.12641e-07
1.12641e-07
1.12642e-07
1.12642e-07
1.12642e-07
1.12642e-07
1.12643e-07
1.12643e-07
1.12643e-07
1.12643e-07
1.12644e-07
1.12644e-07
1.12645e-07
1.12645e-07
1.12646e-07
1.12646e-07
1.12647e-07
1.12647e-07
1.12648e-07
1.12648e-07
1.12649e-07
1.12649e-07
1.1265e-07
1.12651e-07
1.12652e-07
1.12652e-07
1.12653e-07
1.14866e-07
1.14866e-07
1.14865e-07
1.14864e-07
1.14863e-07
1.14863e-07
1.14862e-07
1.14861e-07
1.14861e-07
1.1486e-07
1.1486e-07
1.14859e-07
1.14859e-07
1.14859e-07
1.14858e-07
1.14858e-07
1.14857e-07
1.14857e-07
1.14857e-07
1.14857e-07
1.14856e-07
1.14856e-07
1.14856e-07
1.14856e-07
1.14856e-07
1.14856e-07
1.14855e-07
1.14855e-07
1.14855e-07
1.14855e-07
1.14855e-07
1.14855e-07
1.14856e-07
1.14856e-07
1.14856e-07
1.14856e-07
1.14856e-07
1.14856e-07
1.14857e-07
1.14857e-07
1.14857e-07
1.14857e-07
1.14858e-07
1.14858e-07
1.14859e-07
1.14859e-07
1.14859e-07
1.1486e-07
1.1486e-07
1.14861e-07
1.14861e-07
1.14862e-07
1.14863e-07
1.14863e-07
1.14864e-07
1.14865e-07
1.14865e-07
1.14866e-07
1.14867e-07
1.14868e-07
1.17193e-07
1.17192e-07
1.17191e-07
1.1719e-07
1.1719e-07
1.17189e-07
1.17188e-07
1.17188e-07
1.17187e-07
1.17187e-07
1.17186e-07
1.17186e-07
1.17185e-07
1.17185e-07
1.17185e-07
1.17184e-07
1.17184e-07
1.17183e-07
1.17183e-07
1.17183e-07
1.17183e-07
1.17182e-07
1.17182e-07
1.17182e-07
1.17182e-07
1.17182e-07
1.17182e-07
1.17182e-07
1.17182e-07
1.17182e-07
1.17182e-07
1.17182e-07
1.17182e-07
1.17182e-07
1.17182e-07
1.17182e-07
1.17182e-07
1.17183e-07
1.17183e-07
1.17183e-07
1.17183e-07
1.17184e-07
1.17184e-07
1.17185e-07
1.17185e-07
1.17185e-07
1.17186e-07
1.17186e-07
1.17187e-07
1.17187e-07
1.17188e-07
1.17188e-07
1.17189e-07
1.1719e-07
1.1719e-07
1.17191e-07
1.17192e-07
1.17193e-07
1.17193e-07
1.17194e-07
1.19639e-07
1.19638e-07
1.19637e-07
1.19636e-07
1.19635e-07
1.19635e-07
1.19634e-07
1.19633e-07
1.19633e-07
1.19632e-07
1.19632e-07
1.19631e-07
1.19631e-07
1.1963e-07
1.1963e-07
1.1963e-07
1.19629e-07
1.19629e-07
1.19629e-07
1.19628e-07
1.19628e-07
1.19628e-07
1.19628e-07
1.19627e-07
1.19627e-07
1.19627e-07
1.19627e-07
1.19627e-07
1.19627e-07
1.19627e-07
1.19627e-07
1.19627e-07
1.19627e-07
1.19627e-07
1.19627e-07
1.19628e-07
1.19628e-07
1.19628e-07
1.19628e-07
1.19629e-07
1.19629e-07
1.19629e-07
1.1963e-07
1.1963e-07
1.1963e-07
1.19631e-07
1.19631e-07
1.19632e-07
1.19632e-07
1.19633e-07
1.19633e-07
1.19634e-07
1.19635e-07
1.19635e-07
1.19636e-07
1.19637e-07
1.19637e-07
1.19638e-07
1.19639e-07
1.1964e-07
1.22211e-07
1.2221e-07
1.22209e-07
1.22208e-07
1.22208e-07
1.22207e-07
1.22206e-07
1.22206e-07
1.22205e-07
1.22205e-07
1.22204e-07
1.22204e-07
1.22203e-07
1.22203e-07
1.22202e-07
1.22202e-07
1.22201e-07
1.22201e-07
1.22201e-07
1.22201e-07
1.222e-07
1.222e-07
1.222e-07
1.222e-07
1.22199e-07
1.22199e-07
1.22199e-07
1.22199e-07
1.22199e-07
1.22199e-07
1.22199e-07
1.22199e-07
1.22199e-07
1.22199e-07
1.222e-07
1.222e-07
1.222e-07
1.222e-07
1.222e-07
1.22201e-07
1.22201e-07
1.22201e-07
1.22202e-07
1.22202e-07
1.22203e-07
1.22203e-07
1.22204e-07
1.22204e-07
1.22205e-07
1.22205e-07
1.22206e-07
1.22206e-07
1.22207e-07
1.22208e-07
1.22208e-07
1.22209e-07
1.2221e-07
1.22211e-07
1.22211e-07
1.22212e-07
1.24918e-07
1.24917e-07
1.24917e-07
1.24916e-07
1.24915e-07
1.24914e-07
1.24914e-07
1.24913e-07
1.24912e-07
1.24912e-07
1.24911e-07
1.24911e-07
1.2491e-07
1.2491e-07
1.24909e-07
1.24909e-07
1.24909e-07
1.24908e-07
1.24908e-07
1.24908e-07
1.24907e-07
1.24907e-07
1.24907e-07
1.24907e-07
1.24907e-07
1.24907e-07
1.24906e-07
1.24906e-07
1.24906e-07
1.24906e-07
1.24906e-07
1.24906e-07
1.24907e-07
1.24907e-07
1.24907e-07
1.24907e-07
1.24907e-07
1.24907e-07
1.24908e-07
1.24908e-07
1.24908e-07
1.24909e-07
1.24909e-07
1.24909e-07
1.2491e-07
1.2491e-07
1.24911e-07
1.24911e-07
1.24912e-07
1.24912e-07
1.24913e-07
1.24914e-07
1.24914e-07
1.24915e-07
1.24916e-07
1.24916e-07
1.24917e-07
1.24918e-07
1.24919e-07
1.2492e-07
1.2777e-07
1.27769e-07
1.27768e-07
1.27767e-07
1.27766e-07
1.27766e-07
1.27765e-07
1.27764e-07
1.27764e-07
1.27763e-07
1.27763e-07
1.27762e-07
1.27762e-07
1.27761e-07
1.27761e-07
1.2776e-07
1.2776e-07
1.2776e-07
1.27759e-07
1.27759e-07
1.27759e-07
1.27758e-07
1.27758e-07
1.27758e-07
1.27758e-07
1.27758e-07
1.27758e-07
1.27758e-07
1.27758e-07
1.27758e-07
1.27758e-07
1.27758e-07
1.27758e-07
1.27758e-07
1.27758e-07
1.27758e-07
1.27758e-07
1.27759e-07
1.27759e-07
1.27759e-07
1.27759e-07
1.2776e-07
1.2776e-07
1.27761e-07
1.27761e-07
1.27762e-07
1.27762e-07
1.27763e-07
1.27763e-07
1.27764e-07
1.27764e-07
1.27765e-07
1.27766e-07
1.27766e-07
1.27767e-07
1.27768e-07
1.27769e-07
1.27769e-07
1.2777e-07
1.27771e-07
1.30775e-07
1.30774e-07
1.30773e-07
1.30772e-07
1.30771e-07
1.30771e-07
1.3077e-07
1.30769e-07
1.30769e-07
1.30768e-07
1.30767e-07
1.30767e-07
1.30766e-07
1.30766e-07
1.30766e-07
1.30765e-07
1.30765e-07
1.30764e-07
1.30764e-07
1.30764e-07
1.30763e-07
1.30763e-07
1.30763e-07
1.30763e-07
1.30763e-07
1.30763e-07
1.30762e-07
1.30762e-07
1.30762e-07
1.30762e-07
1.30762e-07
1.30762e-07
1.30763e-07
1.30763e-07
1.30763e-07
1.30763e-07
1.30763e-07
1.30763e-07
1.30764e-07
1.30764e-07
1.30764e-07
1.30765e-07
1.30765e-07
1.30766e-07
1.30766e-07
1.30766e-07
1.30767e-07
1.30767e-07
1.30768e-07
1.30769e-07
1.30769e-07
1.3077e-07
1.30771e-07
1.30771e-07
1.30772e-07
1.30773e-07
1.30774e-07
1.30774e-07
1.30775e-07
1.30776e-07
1.33944e-07
1.33943e-07
1.33942e-07
1.33941e-07
1.3394e-07
1.3394e-07
1.33939e-07
1.33938e-07
1.33938e-07
1.33937e-07
1.33936e-07
1.33936e-07
1.33935e-07
1.33935e-07
1.33935e-07
1.33934e-07
1.33934e-07
1.33933e-07
1.33933e-07
1.33933e-07
1.33932e-07
1.33932e-07
1.33932e-07
1.33932e-07
1.33932e-07
1.33931e-07
1.33931e-07
1.33931e-07
1.33931e-07
1.33931e-07
1.33931e-07
1.33931e-07
1.33931e-07
1.33932e-07
1.33932e-07
1.33932e-07
1.33932e-07
1.33932e-07
1.33933e-07
1.33933e-07
1.33933e-07
1.33934e-07
1.33934e-07
1.33935e-07
1.33935e-07
1.33935e-07
1.33936e-07
1.33937e-07
1.33937e-07
1.33938e-07
1.33938e-07
1.33939e-07
1.3394e-07
1.3394e-07
1.33941e-07
1.33942e-07
1.33943e-07
1.33944e-07
1.33944e-07
1.33945e-07
1.37289e-07
1.37288e-07
1.37287e-07
1.37286e-07
1.37285e-07
1.37284e-07
1.37283e-07
1.37283e-07
1.37282e-07
1.37282e-07
1.37281e-07
1.3728e-07
1.3728e-07
1.37279e-07
1.37279e-07
1.37278e-07
1.37278e-07
1.37278e-07
1.37277e-07
1.37277e-07
1.37277e-07
1.37277e-07
1.37276e-07
1.37276e-07
1.37276e-07
1.37276e-07
1.37276e-07
1.37276e-07
1.37276e-07
1.37276e-07
1.37276e-07
1.37276e-07
1.37276e-07
1.37276e-07
1.37276e-07
1.37276e-07
1.37276e-07
1.37277e-07
1.37277e-07
1.37277e-07
1.37278e-07
1.37278e-07
1.37278e-07
1.37279e-07
1.37279e-07
1.3728e-07
1.3728e-07
1.37281e-07
1.37282e-07
1.37282e-07
1.37283e-07
1.37283e-07
1.37284e-07
1.37285e-07
1.37286e-07
1.37286e-07
1.37287e-07
1.37288e-07
1.37289e-07
1.3729e-07
1.40821e-07
1.4082e-07
1.40819e-07
1.40818e-07
1.40817e-07
1.40816e-07
1.40816e-07
1.40815e-07
1.40814e-07
1.40814e-07
1.40813e-07
1.40813e-07
1.40812e-07
1.40812e-07
1.40811e-07
1.40811e-07
1.4081e-07
1.4081e-07
1.40809e-07
1.40809e-07
1.40809e-07
1.40809e-07
1.40808e-07
1.40808e-07
1.40808e-07
1.40808e-07
1.40808e-07
1.40808e-07
1.40808e-07
1.40808e-07
1.40808e-07
1.40808e-07
1.40808e-07
1.40808e-07
1.40808e-07
1.40808e-07
1.40809e-07
1.40809e-07
1.40809e-07
1.40809e-07
1.4081e-07
1.4081e-07
1.40811e-07
1.40811e-07
1.40812e-07
1.40812e-07
1.40813e-07
1.40813e-07
1.40814e-07
1.40814e-07
1.40815e-07
1.40816e-07
1.40816e-07
1.40817e-07
1.40818e-07
1.40819e-07
1.4082e-07
1.40821e-07
1.40821e-07
1.40822e-07
1.44554e-07
1.44553e-07
1.44552e-07
1.44551e-07
1.44551e-07
1.4455e-07
1.44549e-07
1.44548e-07
1.44548e-07
1.44547e-07
1.44546e-07
1.44546e-07
1.44545e-07
1.44545e-07
1.44544e-07
1.44544e-07
1.44543e-07
1.44543e-07
1.44543e-07
1.44542e-07
1.44542e-07
1.44542e-07
1.44541e-07
1.44541e-07
1.44541e-07
1.44541e-07
1.44541e-07
1.44541e-07
1.44541e-07
1.44541e-07
1.44541e-07
1.44541e-07
1.44541e-07
1.44541e-07
1.44541e-07
1.44541e-07
1.44542e-07
1.44542e-07
1.44542e-07
1.44543e-07
1.44543e-07
1.44543e-07
1.44544e-07
1.44544e-07
1.44545e-07
1.44545e-07
1.44546e-07
1.44546e-07
1.44547e-07
1.44548e-07
1.44548e-07
1.44549e-07
1.4455e-07
1.4455e-07
1.44551e-07
1.44552e-07
1.44553e-07
1.44554e-07
1.44555e-07
1.44556e-07
1.48503e-07
1.48502e-07
1.48501e-07
1.485e-07
1.48499e-07
1.48499e-07
1.48498e-07
1.48497e-07
1.48496e-07
1.48496e-07
1.48495e-07
1.48495e-07
1.48494e-07
1.48493e-07
1.48493e-07
1.48493e-07
1.48492e-07
1.48492e-07
1.48491e-07
1.48491e-07
1.48491e-07
1.4849e-07
1.4849e-07
1.4849e-07
1.4849e-07
1.4849e-07
1.4849e-07
1.48489e-07
1.48489e-07
1.48489e-07
1.48489e-07
1.4849e-07
1.4849e-07
1.4849e-07
1.4849e-07
1.4849e-07
1.4849e-07
1.48491e-07
1.48491e-07
1.48491e-07
1.48492e-07
1.48492e-07
1.48492e-07
1.48493e-07
1.48493e-07
1.48494e-07
1.48495e-07
1.48495e-07
1.48496e-07
1.48496e-07
1.48497e-07
1.48498e-07
1.48499e-07
1.48499e-07
1.485e-07
1.48501e-07
1.48502e-07
1.48503e-07
1.48504e-07
1.48505e-07
1.52684e-07
1.52683e-07
1.52682e-07
1.52681e-07
1.5268e-07
1.52679e-07
1.52678e-07
1.52677e-07
1.52677e-07
1.52676e-07
1.52675e-07
1.52675e-07
1.52674e-07
1.52674e-07
1.52673e-07
1.52673e-07
1.52672e-07
1.52672e-07
1.52671e-07
1.52671e-07
1.52671e-07
1.5267e-07
1.5267e-07
1.5267e-07
1.5267e-07
1.5267e-07
1.5267e-07
1.52669e-07
1.52669e-07
1.52669e-07
1.52669e-07
1.5267e-07
1.5267e-07
1.5267e-07
1.5267e-07
1.5267e-07
1.5267e-07
1.52671e-07
1.52671e-07
1.52671e-07
1.52672e-07
1.52672e-07
1.52673e-07
1.52673e-07
1.52674e-07
1.52674e-07
1.52675e-07
1.52675e-07
1.52676e-07
1.52677e-07
1.52677e-07
1.52678e-07
1.52679e-07
1.5268e-07
1.5268e-07
1.52681e-07
1.52682e-07
1.52683e-07
1.52684e-07
1.52685e-07
1.57113e-07
1.57111e-07
1.5711e-07
1.57109e-07
1.57108e-07
1.57108e-07
1.57107e-07
1.57106e-07
1.57105e-07
1.57105e-07
1.57104e-07
1.57103e-07
1.57103e-07
1.57102e-07
1.57102e-07
1.57101e-07
1.57101e-07
1.571e-07
1.571e-07
1.571e-07
1.57099e-07
1.57099e-07
1.57099e-07
1.57098e-07
1.57098e-07
1.57098e-07
1.57098e-07
1.57098e-07
1.57098e-07
1.57098e-07
1.57098e-07
1.57098e-07
1.57098e-07
1.57098e-07
1.57098e-07
1.57099e-07
1.57099e-07
1.57099e-07
1.571e-07
1.571e-07
1.571e-07
1.57101e-07
1.57101e-07
1.57102e-07
1.57102e-07
1.57103e-07
1.57103e-07
1.57104e-07
1.57105e-07
1.57105e-07
1.57106e-07
1.57107e-07
1.57108e-07
1.57108e-07
1.57109e-07
1.5711e-07
1.57111e-07
1.57112e-07
1.57113e-07
1.57114e-07
1.61809e-07
1.61808e-07
1.61806e-07
1.61805e-07
1.61804e-07
1.61804e-07
1.61803e-07
1.61802e-07
1.61801e-07
1.61801e-07
1.618e-07
1.61799e-07
1.61799e-07
1.61798e-07
1.61798e-07
1.61797e-07
1.61797e-07
1.61796e-07
1.61796e-07
1.61795e-07
1.61795e-07
1.61795e-07
1.61795e-07
1.61794e-07
1.61794e-07
1.61794e-07
1.61794e-07
1.61794e-07
1.61794e-07
1.61794e-07
1.61794e-07
1.61794e-07
1.61794e-07
1.61794e-07
1.61794e-07
1.61794e-07
1.61795e-07
1.61795e-07
1.61795e-07
1.61796e-07
1.61796e-07
1.61797e-07
1.61797e-07
1.61798e-07
1.61798e-07
1.61799e-07
1.61799e-07
1.618e-07
1.61801e-07
1.61801e-07
1.61802e-07
1.61803e-07
1.61804e-07
1.61804e-07
1.61805e-07
1.61806e-07
1.61807e-07
1.61808e-07
1.61809e-07
1.6181e-07
1.66793e-07
1.66791e-07
1.6679e-07
1.66789e-07
1.66788e-07
1.66787e-07
1.66787e-07
1.66786e-07
1.66785e-07
1.66784e-07
1.66784e-07
1.66783e-07
1.66782e-07
1.66782e-07
1.66781e-07
1.66781e-07
1.6678e-07
1.6678e-07
1.66779e-07
1.66779e-07
1.66779e-07
1.66778e-07
1.66778e-07
1.66778e-07
1.66778e-07
1.66777e-07
1.66777e-07
1.66777e-07
1.66777e-07
1.66777e-07
1.66777e-07
1.66777e-07
1.66777e-07
1.66778e-07
1.66778e-07
1.66778e-07
1.66778e-07
1.66779e-07
1.66779e-07
1.66779e-07
1.6678e-07
1.6678e-07
1.66781e-07
1.66781e-07
1.66782e-07
1.66782e-07
1.66783e-07
1.66784e-07
1.66784e-07
1.66785e-07
1.66786e-07
1.66787e-07
1.66787e-07
1.66788e-07
1.66789e-07
1.6679e-07
1.66791e-07
1.66792e-07
1.66793e-07
1.66794e-07
1.72087e-07
1.72085e-07
1.72084e-07
1.72083e-07
1.72082e-07
1.72081e-07
1.7208e-07
1.7208e-07
1.72079e-07
1.72078e-07
1.72077e-07
1.72077e-07
1.72076e-07
1.72076e-07
1.72075e-07
1.72074e-07
1.72074e-07
1.72073e-07
1.72073e-07
1.72073e-07
1.72072e-07
1.72072e-07
1.72072e-07
1.72072e-07
1.72071e-07
1.72071e-07
1.72071e-07
1.72071e-07
1.72071e-07
1.72071e-07
1.72071e-07
1.72071e-07
1.72071e-07
1.72071e-07
1.72071e-07
1.72072e-07
1.72072e-07
1.72072e-07
1.72073e-07
1.72073e-07
1.72073e-07
1.72074e-07
1.72074e-07
1.72075e-07
1.72075e-07
1.72076e-07
1.72077e-07
1.72077e-07
1.72078e-07
1.72079e-07
1.7208e-07
1.7208e-07
1.72081e-07
1.72082e-07
1.72083e-07
1.72084e-07
1.72085e-07
1.72086e-07
1.72087e-07
1.72088e-07
1.77715e-07
1.77714e-07
1.77713e-07
1.77712e-07
1.77711e-07
1.7771e-07
1.77709e-07
1.77708e-07
1.77707e-07
1.77707e-07
1.77706e-07
1.77705e-07
1.77705e-07
1.77704e-07
1.77703e-07
1.77703e-07
1.77702e-07
1.77702e-07
1.77701e-07
1.77701e-07
1.77701e-07
1.777e-07
1.777e-07
1.777e-07
1.777e-07
1.77699e-07
1.77699e-07
1.77699e-07
1.77699e-07
1.77699e-07
1.77699e-07
1.77699e-07
1.77699e-07
1.777e-07
1.777e-07
1.777e-07
1.777e-07
1.77701e-07
1.77701e-07
1.77701e-07
1.77702e-07
1.77702e-07
1.77703e-07
1.77703e-07
1.77704e-07
1.77705e-07
1.77705e-07
1.77706e-07
1.77707e-07
1.77707e-07
1.77708e-07
1.77709e-07
1.7771e-07
1.77711e-07
1.77712e-07
1.77713e-07
1.77714e-07
1.77715e-07
1.77716e-07
1.77717e-07
1.83706e-07
1.83704e-07
1.83703e-07
1.83702e-07
1.83701e-07
1.837e-07
1.83699e-07
1.83698e-07
1.83697e-07
1.83697e-07
1.83696e-07
1.83695e-07
1.83694e-07
1.83694e-07
1.83693e-07
1.83693e-07
1.83692e-07
1.83692e-07
1.83691e-07
1.83691e-07
1.8369e-07
1.8369e-07
1.8369e-07
1.8369e-07
1.83689e-07
1.83689e-07
1.83689e-07
1.83689e-07
1.83689e-07
1.83689e-07
1.83689e-07
1.83689e-07
1.83689e-07
1.83689e-07
1.8369e-07
1.8369e-07
1.8369e-07
1.8369e-07
1.83691e-07
1.83691e-07
1.83692e-07
1.83692e-07
1.83693e-07
1.83693e-07
1.83694e-07
1.83694e-07
1.83695e-07
1.83696e-07
1.83697e-07
1.83697e-07
1.83698e-07
1.83699e-07
1.837e-07
1.83701e-07
1.83702e-07
1.83703e-07
1.83704e-07
1.83705e-07
1.83706e-07
1.83707e-07
1.90087e-07
1.90085e-07
1.90084e-07
1.90083e-07
1.90082e-07
1.90081e-07
1.9008e-07
1.90079e-07
1.90078e-07
1.90077e-07
1.90077e-07
1.90076e-07
1.90075e-07
1.90075e-07
1.90074e-07
1.90073e-07
1.90073e-07
1.90072e-07
1.90072e-07
1.90072e-07
1.90071e-07
1.90071e-07
1.90071e-07
1.9007e-07
1.9007e-07
1.9007e-07
1.9007e-07
1.9007e-07
1.9007e-07
1.9007e-07
1.9007e-07
1.9007e-07
1.9007e-07
1.9007e-07
1.9007e-07
1.9007e-07
1.90071e-07
1.90071e-07
1.90071e-07
1.90072e-07
1.90072e-07
1.90073e-07
1.90073e-07
1.90074e-07
1.90075e-07
1.90075e-07
1.90076e-07
1.90077e-07
1.90077e-07
1.90078e-07
1.90079e-07
1.9008e-07
1.90081e-07
1.90082e-07
1.90083e-07
1.90084e-07
1.90085e-07
1.90086e-07
1.90087e-07
1.90089e-07
1.96891e-07
1.9689e-07
1.96889e-07
1.96887e-07
1.96886e-07
1.96885e-07
1.96884e-07
1.96883e-07
1.96882e-07
1.96882e-07
1.96881e-07
1.9688e-07
1.96879e-07
1.96879e-07
1.96878e-07
1.96878e-07
1.96877e-07
1.96877e-07
1.96876e-07
1.96876e-07
1.96875e-07
1.96875e-07
1.96875e-07
1.96874e-07
1.96874e-07
1.96874e-07
1.96874e-07
1.96874e-07
1.96874e-07
1.96874e-07
1.96874e-07
1.96874e-07
1.96874e-07
1.96874e-07
1.96874e-07
1.96875e-07
1.96875e-07
1.96875e-07
1.96876e-07
1.96876e-07
1.96876e-07
1.96877e-07
1.96878e-07
1.96878e-07
1.96879e-07
1.96879e-07
1.9688e-07
1.96881e-07
1.96882e-07
1.96883e-07
1.96883e-07
1.96884e-07
1.96885e-07
1.96886e-07
1.96887e-07
1.96888e-07
1.96889e-07
1.96891e-07
1.96892e-07
1.96893e-07
2.04155e-07
2.04153e-07
2.04152e-07
2.04151e-07
2.0415e-07
2.04149e-07
2.04148e-07
2.04147e-07
2.04146e-07
2.04145e-07
2.04144e-07
2.04143e-07
2.04143e-07
2.04142e-07
2.04141e-07
2.04141e-07
2.0414e-07
2.0414e-07
2.04139e-07
2.04139e-07
2.04138e-07
2.04138e-07
2.04138e-07
2.04137e-07
2.04137e-07
2.04137e-07
2.04137e-07
2.04137e-07
2.04137e-07
2.04137e-07
2.04137e-07
2.04137e-07
2.04137e-07
2.04137e-07
2.04137e-07
2.04138e-07
2.04138e-07
2.04138e-07
2.04139e-07
2.04139e-07
2.0414e-07
2.0414e-07
2.04141e-07
2.04141e-07
2.04142e-07
2.04143e-07
2.04143e-07
2.04144e-07
2.04145e-07
2.04146e-07
2.04147e-07
2.04148e-07
2.04149e-07
2.0415e-07
2.04151e-07
2.04152e-07
2.04153e-07
2.04154e-07
2.04155e-07
2.04157e-07
2.11917e-07
2.11915e-07
2.11914e-07
2.11912e-07
2.11911e-07
2.1191e-07
2.11909e-07
2.11908e-07
2.11907e-07
2.11906e-07
2.11906e-07
2.11905e-07
2.11904e-07
2.11903e-07
2.11903e-07
2.11902e-07
2.11901e-07
2.11901e-07
2.119e-07
2.119e-07
2.119e-07
2.11899e-07
2.11899e-07
2.11899e-07
2.11898e-07
2.11898e-07
2.11898e-07
2.11898e-07
2.11898e-07
2.11898e-07
2.11898e-07
2.11898e-07
2.11898e-07
2.11898e-07
2.11899e-07
2.11899e-07
2.11899e-07
2.119e-07
2.119e-07
2.119e-07
2.11901e-07
2.11901e-07
2.11902e-07
2.11903e-07
2.11903e-07
2.11904e-07
2.11905e-07
2.11906e-07
2.11906e-07
2.11907e-07
2.11908e-07
2.11909e-07
2.1191e-07
2.11911e-07
2.11912e-07
2.11913e-07
2.11915e-07
2.11916e-07
2.11917e-07
2.11919e-07
2.2022e-07
2.20218e-07
2.20217e-07
2.20216e-07
2.20215e-07
2.20213e-07
2.20212e-07
2.20211e-07
2.2021e-07
2.20209e-07
2.20209e-07
2.20208e-07
2.20207e-07
2.20206e-07
2.20206e-07
2.20205e-07
2.20204e-07
2.20204e-07
2.20203e-07
2.20203e-07
2.20202e-07
2.20202e-07
2.20202e-07
2.20201e-07
2.20201e-07
2.20201e-07
2.20201e-07
2.20201e-07
2.20201e-07
2.20201e-07
2.20201e-07
2.20201e-07
2.20201e-07
2.20201e-07
2.20201e-07
2.20202e-07
2.20202e-07
2.20202e-07
2.20203e-07
2.20203e-07
2.20204e-07
2.20204e-07
2.20205e-07
2.20206e-07
2.20206e-07
2.20207e-07
2.20208e-07
2.20209e-07
2.2021e-07
2.2021e-07
2.20211e-07
2.20212e-07
2.20213e-07
2.20214e-07
2.20216e-07
2.20217e-07
2.20218e-07
2.20219e-07
2.20221e-07
2.20222e-07
2.29113e-07
2.29111e-07
2.2911e-07
2.29109e-07
2.29107e-07
2.29106e-07
2.29105e-07
2.29104e-07
2.29103e-07
2.29102e-07
2.29101e-07
2.291e-07
2.291e-07
2.29099e-07
2.29098e-07
2.29097e-07
2.29097e-07
2.29096e-07
2.29096e-07
2.29095e-07
2.29095e-07
2.29094e-07
2.29094e-07
2.29094e-07
2.29094e-07
2.29093e-07
2.29093e-07
2.29093e-07
2.29093e-07
2.29093e-07
2.29093e-07
2.29093e-07
2.29093e-07
2.29094e-07
2.29094e-07
2.29094e-07
2.29094e-07
2.29095e-07
2.29095e-07
2.29096e-07
2.29096e-07
2.29097e-07
2.29097e-07
2.29098e-07
2.29099e-07
2.291e-07
2.291e-07
2.29101e-07
2.29102e-07
2.29103e-07
2.29104e-07
2.29105e-07
2.29106e-07
2.29107e-07
2.29108e-07
2.2911e-07
2.29111e-07
2.29112e-07
2.29114e-07
2.29115e-07
2.38648e-07
2.38647e-07
2.38645e-07
2.38644e-07
2.38643e-07
2.38641e-07
2.3864e-07
2.38639e-07
2.38638e-07
2.38637e-07
2.38636e-07
2.38635e-07
2.38635e-07
2.38634e-07
2.38633e-07
2.38632e-07
2.38632e-07
2.38631e-07
2.38631e-07
2.3863e-07
2.3863e-07
2.38629e-07
2.38629e-07
2.38629e-07
2.38628e-07
2.38628e-07
2.38628e-07
2.38628e-07
2.38628e-07
2.38628e-07
2.38628e-07
2.38628e-07
2.38628e-07
2.38628e-07
2.38629e-07
2.38629e-07
2.38629e-07
2.3863e-07
2.3863e-07
2.38631e-07
2.38631e-07
2.38632e-07
2.38632e-07
2.38633e-07
2.38634e-07
2.38635e-07
2.38635e-07
2.38636e-07
2.38637e-07
2.38638e-07
2.38639e-07
2.3864e-07
2.38641e-07
2.38643e-07
2.38644e-07
2.38645e-07
2.38646e-07
2.38648e-07
2.38649e-07
2.38651e-07
2.48885e-07
2.48883e-07
2.48882e-07
2.4888e-07
2.48879e-07
2.48878e-07
2.48877e-07
2.48876e-07
2.48875e-07
2.48874e-07
2.48873e-07
2.48872e-07
2.48871e-07
2.4887e-07
2.48869e-07
2.48869e-07
2.48868e-07
2.48867e-07
2.48867e-07
2.48866e-07
2.48866e-07
2.48866e-07
2.48865e-07
2.48865e-07
2.48865e-07
2.48864e-07
2.48864e-07
2.48864e-07
2.48864e-07
2.48864e-07
2.48864e-07
2.48864e-07
2.48864e-07
2.48865e-07
2.48865e-07
2.48865e-07
2.48865e-07
2.48866e-07
2.48866e-07
2.48867e-07
2.48867e-07
2.48868e-07
2.48869e-07
2.48869e-07
2.4887e-07
2.48871e-07
2.48872e-07
2.48873e-07
2.48874e-07
2.48875e-07
2.48876e-07
2.48877e-07
2.48878e-07
2.48879e-07
2.4888e-07
2.48882e-07
2.48883e-07
2.48884e-07
2.48886e-07
2.48887e-07
2.59888e-07
2.59887e-07
2.59885e-07
2.59884e-07
2.59882e-07
2.59881e-07
2.5988e-07
2.59879e-07
2.59878e-07
2.59877e-07
2.59876e-07
2.59875e-07
2.59874e-07
2.59873e-07
2.59872e-07
2.59872e-07
2.59871e-07
2.5987e-07
2.5987e-07
2.59869e-07
2.59869e-07
2.59868e-07
2.59868e-07
2.59868e-07
2.59867e-07
2.59867e-07
2.59867e-07
2.59867e-07
2.59867e-07
2.59867e-07
2.59867e-07
2.59867e-07
2.59867e-07
2.59867e-07
2.59867e-07
2.59868e-07
2.59868e-07
2.59869e-07
2.59869e-07
2.5987e-07
2.5987e-07
2.59871e-07
2.59871e-07
2.59872e-07
2.59873e-07
2.59874e-07
2.59875e-07
2.59876e-07
2.59877e-07
2.59878e-07
2.59879e-07
2.5988e-07
2.59881e-07
2.59882e-07
2.59884e-07
2.59885e-07
2.59886e-07
2.59888e-07
2.59889e-07
2.59891e-07
2.71731e-07
2.71729e-07
2.71727e-07
2.71726e-07
2.71724e-07
2.71723e-07
2.71722e-07
2.71721e-07
2.7172e-07
2.71719e-07
2.71718e-07
2.71717e-07
2.71716e-07
2.71715e-07
2.71714e-07
2.71713e-07
2.71713e-07
2.71712e-07
2.71711e-07
2.71711e-07
2.7171e-07
2.7171e-07
2.7171e-07
2.71709e-07
2.71709e-07
2.71709e-07
2.71709e-07
2.71708e-07
2.71708e-07
2.71708e-07
2.71708e-07
2.71709e-07
2.71709e-07
2.71709e-07
2.71709e-07
2.71709e-07
2.7171e-07
2.7171e-07
2.71711e-07
2.71711e-07
2.71712e-07
2.71713e-07
2.71713e-07
2.71714e-07
2.71715e-07
2.71716e-07
2.71717e-07
2.71718e-07
2.71719e-07
2.7172e-07
2.71721e-07
2.71722e-07
2.71723e-07
2.71724e-07
2.71726e-07
2.71727e-07
2.71729e-07
2.7173e-07
2.71732e-07
2.71733e-07
2.84493e-07
2.84491e-07
2.8449e-07
2.84488e-07
2.84487e-07
2.84485e-07
2.84484e-07
2.84483e-07
2.84482e-07
2.84481e-07
2.84479e-07
2.84479e-07
2.84478e-07
2.84477e-07
2.84476e-07
2.84475e-07
2.84474e-07
2.84474e-07
2.84473e-07
2.84473e-07
2.84472e-07
2.84472e-07
2.84471e-07
2.84471e-07
2.84471e-07
2.8447e-07
2.8447e-07
2.8447e-07
2.8447e-07
2.8447e-07
2.8447e-07
2.8447e-07
2.8447e-07
2.84471e-07
2.84471e-07
2.84471e-07
2.84472e-07
2.84472e-07
2.84472e-07
2.84473e-07
2.84474e-07
2.84474e-07
2.84475e-07
2.84476e-07
2.84477e-07
2.84478e-07
2.84479e-07
2.8448e-07
2.84481e-07
2.84482e-07
2.84483e-07
2.84484e-07
2.84485e-07
2.84487e-07
2.84488e-07
2.84489e-07
2.84491e-07
2.84492e-07
2.84494e-07
2.84496e-07
2.98265e-07
2.98264e-07
2.98262e-07
2.9826e-07
2.98259e-07
2.98257e-07
2.98256e-07
2.98255e-07
2.98254e-07
2.98252e-07
2.98251e-07
2.9825e-07
2.98249e-07
2.98249e-07
2.98248e-07
2.98247e-07
2.98246e-07
2.98245e-07
2.98245e-07
2.98244e-07
2.98244e-07
2.98243e-07
2.98243e-07
2.98242e-07
2.98242e-07
2.98242e-07
2.98242e-07
2.98242e-07
2.98242e-07
2.98242e-07
2.98242e-07
2.98242e-07
2.98242e-07
2.98242e-07
2.98242e-07
2.98243e-07
2.98243e-07
2.98244e-07
2.98244e-07
2.98245e-07
2.98245e-07
2.98246e-07
2.98247e-07
2.98248e-07
2.98249e-07
2.98249e-07
2.9825e-07
2.98251e-07
2.98253e-07
2.98254e-07
2.98255e-07
2.98256e-07
2.98257e-07
2.98259e-07
2.9826e-07
2.98262e-07
2.98263e-07
2.98265e-07
2.98266e-07
2.98268e-07
3.13149e-07
3.13147e-07
3.13145e-07
3.13143e-07
3.13142e-07
3.1314e-07
3.13139e-07
3.13138e-07
3.13136e-07
3.13135e-07
3.13134e-07
3.13133e-07
3.13132e-07
3.13131e-07
3.1313e-07
3.13129e-07
3.13129e-07
3.13128e-07
3.13127e-07
3.13127e-07
3.13126e-07
3.13126e-07
3.13125e-07
3.13125e-07
3.13125e-07
3.13124e-07
3.13124e-07
3.13124e-07
3.13124e-07
3.13124e-07
3.13124e-07
3.13124e-07
3.13124e-07
3.13125e-07
3.13125e-07
3.13125e-07
3.13126e-07
3.13126e-07
3.13127e-07
3.13127e-07
3.13128e-07
3.13129e-07
3.13129e-07
3.1313e-07
3.13131e-07
3.13132e-07
3.13133e-07
3.13134e-07
3.13135e-07
3.13136e-07
3.13138e-07
3.13139e-07
3.1314e-07
3.13142e-07
3.13143e-07
3.13145e-07
3.13146e-07
3.13148e-07
3.1315e-07
3.13152e-07
3.29255e-07
3.29253e-07
3.29252e-07
3.2925e-07
3.29248e-07
3.29247e-07
3.29245e-07
3.29244e-07
3.29243e-07
3.29242e-07
3.2924e-07
3.29239e-07
3.29238e-07
3.29237e-07
3.29236e-07
3.29236e-07
3.29235e-07
3.29234e-07
3.29233e-07
3.29233e-07
3.29232e-07
3.29232e-07
3.29231e-07
3.29231e-07
3.29231e-07
3.2923e-07
3.2923e-07
3.2923e-07
3.2923e-07
3.2923e-07
3.2923e-07
3.2923e-07
3.2923e-07
3.2923e-07
3.29231e-07
3.29231e-07
3.29232e-07
3.29232e-07
3.29233e-07
3.29233e-07
3.29234e-07
3.29235e-07
3.29236e-07
3.29236e-07
3.29237e-07
3.29238e-07
3.29239e-07
3.2924e-07
3.29242e-07
3.29243e-07
3.29244e-07
3.29245e-07
3.29247e-07
3.29248e-07
3.2925e-07
3.29251e-07
3.29253e-07
3.29255e-07
3.29257e-07
3.29258e-07
3.46712e-07
3.4671e-07
3.46708e-07
3.46707e-07
3.46705e-07
3.46703e-07
3.46702e-07
3.46701e-07
3.46699e-07
3.46698e-07
3.46697e-07
3.46696e-07
3.46695e-07
3.46694e-07
3.46693e-07
3.46692e-07
3.46691e-07
3.4669e-07
3.46689e-07
3.46689e-07
3.46688e-07
3.46688e-07
3.46687e-07
3.46687e-07
3.46687e-07
3.46686e-07
3.46686e-07
3.46686e-07
3.46686e-07
3.46686e-07
3.46686e-07
3.46686e-07
3.46686e-07
3.46686e-07
3.46687e-07
3.46687e-07
3.46688e-07
3.46688e-07
3.46689e-07
3.46689e-07
3.4669e-07
3.46691e-07
3.46692e-07
3.46693e-07
3.46694e-07
3.46695e-07
3.46696e-07
3.46697e-07
3.46698e-07
3.46699e-07
3.46701e-07
3.46702e-07
3.46703e-07