/*--------------------------------*- C++ -*----------------------------------*\
| =========                 |                                                 |
| \\      /  F ield         | foam-extend: Open Source CFD                    |
|  \\    /   O peration     | Version:     4.0                                |
|   \\  /    A nd           | Web:         http://www.foam-extend.org         |
|    \\/     M anipulation  |                                                 |
\*---------------------------------------------------------------------------*/
FoamFile
{
    version     2.0;
    format      ascii;
    class       volVectorField;
    location    "16";
    object      U;
}
// * * * * * * * * * * * * * * * * * * * * * * * * * * * * * * * * * * * * * //

dimensions      [0 1 -1 0 0 0 0];

internalField   nonuniform List<vector> 
6960
(
(6.78873e-16 1.79431e-14 0)
(5.61667e-16 7.26293e-18 0)
(-3.05549e-17 -2.76127e-18 0)
(5.20449e-17 -2.92374e-18 0)
(-1.34096e-17 -1.2024e-18 0)
(6.34695e-20 3.40052e-19 0)
(-2.78086e-17 1.58158e-18 0)
(-1.8593e-17 2.26723e-18 0)
(-2.38672e-17 2.20363e-18 0)
(-1.1449e-17 1.58962e-18 0)
(-3.33514e-18 6.29754e-19 0)
(1.11894e-17 -4.28752e-19 0)
(1.76088e-17 -1.34778e-18 0)
(2.31593e-17 -1.86983e-18 0)
(2.62854e-17 -1.92325e-18 0)
(2.90163e-17 -1.62881e-18 0)
(2.55294e-17 -1.16355e-18 0)
(1.88987e-17 -6.14791e-19 0)
(1.40009e-17 -6.67297e-20 0)
(1.23053e-17 3.34484e-19 0)
(7.82144e-18 4.80977e-19 0)
(-8.01365e-19 4.34624e-19 0)
(-8.04914e-18 3.33572e-19 0)
(-1.04041e-17 2.21799e-19 0)
(-1.2649e-17 6.15098e-20 0)
(-1.80125e-17 -1.13755e-19 0)
(-2.05067e-17 -1.98981e-19 0)
(-1.3141e-17 -1.75063e-19 0)
(1.0231e-18 -1.44601e-19 0)
(1.4519e-17 -1.67219e-19 0)
(2.7131e-17 -1.74496e-19 0)
(4.286e-17 -1.07656e-19 0)
(5.74743e-17 -3.28867e-20 0)
(6.00232e-17 -2.90996e-20 0)
(4.67405e-17 -4.91887e-20 0)
(2.47077e-17 -7.36469e-21 0)
(-1.64829e-19 6.59713e-20 0)
(-2.83903e-17 7.34791e-20 0)
(-5.71925e-17 2.59835e-20 0)
(-7.44827e-17 1.63984e-20 0)
(-6.92837e-17 6.38845e-20 0)
(-4.32596e-17 7.95364e-20 0)
(-4.29094e-18 4.47612e-20 0)
(4.12391e-17 2.82801e-20 0)
(8.97341e-17 7.68381e-20 0)
(1.26414e-16 1.1488e-19 0)
(1.38519e-16 9.8274e-20 0)
(1.14468e-16 7.11569e-20 0)
(6.58303e-17 7.55251e-20 0)
(-6.27444e-18 9.49943e-20 0)
(-7.9824e-17 2.48328e-20 0)
(-1.53534e-16 -3.98549e-20 0)
(-1.89327e-16 -1.89584e-19 0)
(-1.95413e-16 -2.21715e-19 0)
(-1.44578e-16 -3.93573e-19 0)
(-8.436e-17 -2.72097e-19 0)
(5.73915e-18 -2.24762e-19 0)
(4.4629e-17 3.42491e-19 0)
(7.53033e-17 3.87279e-19 0)
(3.57683e-17 1.29204e-18 0)
(1.4494e-15 3.72993e-14 0)
(1.12086e-15 2.51067e-17 0)
(-7.24394e-17 -7.69998e-19 0)
(1.6114e-16 -7.32561e-18 0)
(-3.07296e-17 -2.84061e-18 0)
(6.41654e-18 1.34035e-19 0)
(-7.6349e-17 3.06331e-18 0)
(-5.13717e-17 4.66884e-18 0)
(-6.98569e-17 4.87293e-18 0)
(-3.66406e-17 3.83117e-18 0)
(-1.34521e-17 1.98606e-18 0)
(3.00591e-17 -3.06764e-19 0)
(4.8955e-17 -2.43802e-18 0)
(6.46632e-17 -3.76524e-18 0)
(7.54668e-17 -4.08259e-18 0)
(8.69272e-17 -3.69019e-18 0)
(7.83594e-17 -2.87863e-18 0)
(5.78085e-17 -1.70148e-18 0)
(4.30478e-17 -3.46511e-19 0)
(3.99501e-17 7.01918e-19 0)
(2.75891e-17 1.13701e-18 0)
(-3.42571e-19 1.17265e-18 0)
(-2.44071e-17 1.12331e-18 0)
(-3.07866e-17 9.27699e-19 0)
(-3.57554e-17 4.13178e-19 0)
(-5.26205e-17 -2.08676e-19 0)
(-6.21568e-17 -5.47964e-19 0)
(-3.94439e-17 -6.06556e-19 0)
(5.84814e-18 -7.04137e-19 0)
(4.69881e-17 -8.7087e-19 0)
(8.25237e-17 -7.76387e-19 0)
(1.28287e-16 -3.22401e-19 0)
(1.7308e-16 1.42973e-19 0)
(1.8059e-16 3.68068e-19 0)
(1.37394e-16 5.36407e-19 0)
(6.79369e-17 8.11607e-19 0)
(-6.79221e-18 9.26413e-19 0)
(-9.00215e-17 5.63722e-19 0)
(-1.76384e-16 -1.04706e-19 0)
(-2.28163e-16 -6.81751e-19 0)
(-2.09304e-16 -1.08122e-18 0)
(-1.2537e-16 -1.47712e-18 0)
(-3.83481e-18 -1.72923e-18 0)
(1.35501e-16 -1.49686e-18 0)
(2.83554e-16 -6.89398e-19 0)
(3.96846e-16 2.96751e-19 0)
(4.3392e-16 1.19971e-18 0)
(3.59644e-16 1.95264e-18 0)
(2.09777e-16 2.50105e-18 0)
(-9.37428e-18 2.50534e-18 0)
(-2.3329e-16 1.72135e-18 0)
(-4.57834e-16 4.28505e-19 0)
(-5.68497e-16 -1.16477e-18 0)
(-5.88607e-16 -2.39668e-18 0)
(-4.3658e-16 -3.36154e-18 0)
(-2.57232e-16 -2.87771e-18 0)
(1.32847e-17 -1.75753e-18 0)
(1.30459e-16 1.21371e-18 0)
(2.25438e-16 1.7322e-18 0)
(1.04942e-16 5.08667e-18 0)
(2.15516e-15 3.61457e-14 0)
(1.63445e-15 5.46535e-17 0)
(-9.63782e-17 1.66466e-17 0)
(2.75654e-16 -8.08487e-18 0)
(-3.98065e-17 -1.86986e-18 0)
(1.8409e-17 -1.03822e-18 0)
(-1.19033e-16 1.71847e-18 0)
(-8.05751e-17 2.80035e-18 0)
(-1.14486e-16 3.63133e-18 0)
(-6.35474e-17 3.40821e-18 0)
(-2.62879e-17 2.67624e-18 0)
(4.60756e-17 1.02693e-18 0)
(7.72797e-17 -8.34631e-19 0)
(1.02698e-16 -2.2358e-18 0)
(1.22369e-16 -2.83525e-18 0)
(1.44977e-16 -3.06346e-18 0)
(1.32807e-16 -2.95314e-18 0)
(9.80675e-17 -2.13716e-18 0)
(7.35071e-17 -6.5714e-19 0)
(7.03772e-17 6.55481e-19 0)
(5.08702e-17 1.28038e-18 0)
(2.23921e-18 1.59363e-18 0)
(-4.02238e-17 1.98001e-18 0)
(-5.02429e-17 1.989e-18 0)
(-5.6877e-17 1.13397e-18 0)
(-8.59241e-17 -1.02061e-19 0)
(-1.04078e-16 -8.77999e-19 0)
(-6.58484e-17 -1.21862e-18 0)
(1.21979e-17 -1.69234e-18 0)
(8.12409e-17 -2.14037e-18 0)
(1.38122e-16 -1.76155e-18 0)
(2.13093e-16 -4.61836e-19 0)
(2.88992e-16 8.84754e-19 0)
(3.01798e-16 1.72013e-18 0)
(2.26945e-16 2.37424e-18 0)
(1.08258e-16 3.00052e-18 0)
(-1.61542e-17 2.86836e-18 0)
(-1.53466e-16 1.36848e-18 0)
(-2.9773e-16 -9.63592e-19 0)
(-3.84584e-16 -3.14655e-18 0)
(-3.50695e-16 -4.86985e-18 0)
(-2.05715e-16 -6.23395e-18 0)
(9.37586e-19 -6.68602e-18 0)
(2.35818e-16 -5.42372e-18 0)
(4.85585e-16 -2.39077e-18 0)
(6.78627e-16 1.34393e-18 0)
(7.42478e-16 4.97159e-18 0)
(6.17963e-16 7.88584e-18 0)
(3.65345e-16 9.68234e-18 0)
(-2.17331e-18 9.21712e-18 0)
(-3.78925e-16 6.33254e-18 0)
(-7.57678e-16 1.45628e-18 0)
(-9.47264e-16 -3.84351e-18 0)
(-9.84693e-16 -8.43604e-18 0)
(-7.33771e-16 -1.08223e-17 0)
(-4.37135e-16 -9.63213e-18 0)
(1.39329e-17 -5.30144e-18 0)
(2.11225e-16 2.45514e-18 0)
(3.7446e-16 4.36635e-18 0)
(1.72621e-16 1.13656e-17 0)
(2.89186e-15 3.33782e-14 0)
(2.19783e-15 9.94541e-17 0)
(-1.02947e-16 4.31471e-17 0)
(3.9458e-16 -8.44973e-18 0)
(-4.14248e-17 1.05382e-18 0)
(3.55079e-17 -1.81268e-18 0)
(-1.56217e-16 5.1446e-19 0)
(-1.06437e-16 4.46468e-20 0)
(-1.57438e-16 1.33624e-18 0)
(-9.13113e-17 1.83196e-18 0)
(-4.10639e-17 2.62026e-18 0)
(5.95648e-17 1.98363e-18 0)
(1.02898e-16 8.50433e-19 0)
(1.3786e-16 -2.86294e-19 0)
(1.67282e-16 -9.38879e-19 0)
(2.02615e-16 -1.83179e-18 0)
(1.88039e-16 -2.61412e-18 0)
(1.39364e-16 -2.33863e-18 0)
(1.05322e-16 -8.00115e-19 0)
(1.03036e-16 7.24088e-19 0)
(7.69225e-17 1.47666e-18 0)
(7.03678e-18 2.08057e-18 0)
(-5.45512e-17 3.00875e-18 0)
(-6.80305e-17 3.24463e-18 0)
(-7.58521e-17 1.86129e-18 0)
(-1.17553e-16 -2.73952e-19 0)
(-1.45424e-16 -1.6857e-18 0)
(-9.21095e-17 -2.41779e-18 0)
(1.88921e-17 -3.35006e-18 0)
(1.15392e-16 -4.02544e-18 0)
(1.92365e-16 -2.99033e-18 0)
(2.95866e-16 -2.05714e-19 0)
(4.03425e-16 2.65525e-18 0)
(4.22247e-16 4.54175e-18 0)
(3.15796e-16 5.91284e-18 0)
(1.4805e-16 6.83907e-18 0)
(-2.49738e-17 5.92706e-18 0)
(-2.1521e-16 2.23183e-18 0)
(-4.17359e-16 -3.08164e-18 0)
(-5.40092e-16 -8.07802e-18 0)
(-4.91693e-16 -1.20022e-17 0)
(-2.85701e-16 -1.47187e-17 0)
(5.71409e-18 -1.5037e-17 0)
(3.35793e-16 -1.15536e-17 0)
(6.87838e-16 -4.42027e-18 0)
(9.62788e-16 4.15337e-18 0)
(1.05594e-15 1.23911e-17 0)
(8.83788e-16 1.87197e-17 0)
(5.30421e-16 2.21491e-17 0)
(1.65046e-17 2.03425e-17 0)
(-5.1292e-16 1.35197e-17 0)
(-1.04734e-15 2.3951e-18 0)
(-1.31974e-15 -9.02418e-18 0)
(-1.37901e-15 -1.90463e-17 0)
(-1.03452e-15 -2.32836e-17 0)
(-6.24551e-16 -2.07351e-17 0)
(4.75907e-18 -1.07733e-17 0)
(2.84191e-16 4.30389e-18 0)
(5.1974e-16 8.87196e-18 0)
(2.38596e-16 2.07904e-17 0)
(3.60983e-15 3.29655e-14 0)
(2.76102e-15 1.55938e-16 0)
(-9.25384e-17 7.11383e-17 0)
(5.17615e-16 -1.32818e-17 0)
(-3.56867e-17 3.55501e-18 0)
(5.77174e-17 -1.83635e-18 0)
(-1.87813e-16 2.23017e-18 0)
(-1.2888e-16 6.38965e-19 0)
(-1.98464e-16 2.31504e-18 0)
(-1.19532e-16 2.34086e-18 0)
(-5.74852e-17 3.24387e-18 0)
(7.05711e-17 1.9798e-18 0)
(1.2583e-16 3.4357e-19 0)
(1.70295e-16 -1.20478e-18 0)
(2.10234e-16 -1.89168e-18 0)
(2.59527e-16 -3.0185e-18 0)
(2.43648e-16 -3.98753e-18 0)
(1.81557e-16 -3.40327e-18 0)
(1.38489e-16 -9.61501e-19 0)
(1.37723e-16 1.34269e-18 0)
(1.0548e-16 2.42211e-18 0)
(1.41747e-17 3.27873e-18 0)
(-6.68712e-17 4.61354e-18 0)
(-8.37162e-17 4.79818e-18 0)
(-9.25068e-17 2.43342e-18 0)
(-1.47255e-16 -1.0592e-18 0)
(-1.85768e-16 -3.36019e-18 0)
(-1.18126e-16 -4.53513e-18 0)
(2.53363e-17 -5.87984e-18 0)
(1.48476e-16 -6.58049e-18 0)
(2.44391e-16 -4.38007e-18 0)
(3.75797e-16 6.42827e-19 0)
(5.15435e-16 5.72712e-18 0)
(5.41243e-16 9.12401e-18 0)
(4.04165e-16 1.14053e-17 0)
(1.88527e-16 1.25059e-17 0)
(-3.15369e-17 1.01856e-17 0)
(-2.73377e-16 3.12514e-18 0)
(-5.33252e-16 -6.59002e-18 0)
(-6.92865e-16 -1.56616e-17 0)
(-6.31488e-16 -2.26456e-17 0)
(-3.66148e-16 -2.70253e-17 0)
(8.16905e-18 -2.67657e-17 0)
(4.32014e-16 -1.97387e-17 0)
(8.86132e-16 -6.5044e-18 0)
(1.24479e-15 9.07402e-18 0)
(1.37031e-15 2.37957e-17 0)
(1.1546e-15 3.47312e-17 0)
(7.04427e-16 4.00659e-17 0)
(4.78879e-17 3.59711e-17 0)
(-6.32655e-16 2.32506e-17 0)
(-1.32329e-15 3.2281e-18 0)
(-1.68248e-15 -1.67949e-17 0)
(-1.76896e-15 -3.41707e-17 0)
(-1.33802e-15 -4.07918e-17 0)
(-8.19984e-16 -3.602e-17 0)
(-1.60852e-17 -1.81087e-17 0)
(3.47583e-16 7.18604e-18 0)
(6.59723e-16 1.59957e-17 0)
(3.02627e-16 3.44547e-17 0)
(4.28254e-15 3.3228e-14 0)
(3.29717e-15 2.23899e-16 0)
(-6.55153e-17 1.02812e-16 0)
(6.4464e-16 -2.13077e-17 0)
(-2.25057e-17 5.7668e-18 0)
(8.52091e-17 -1.69081e-18 0)
(-2.13579e-16 5.84727e-18 0)
(-1.47695e-16 3.57964e-18 0)
(-2.37304e-16 5.86271e-18 0)
(-1.47928e-16 4.75073e-18 0)
(-7.53935e-17 4.90172e-18 0)
(7.90572e-17 1.81321e-18 0)
(1.45999e-16 -1.31961e-18 0)
(1.99992e-16 -3.9285e-18 0)
(2.51156e-16 -4.78412e-18 0)
(3.15462e-16 -5.97498e-18 0)
(2.99359e-16 -6.71611e-18 0)
(2.24548e-16 -5.22092e-18 0)
(1.73011e-16 -1.19011e-18 0)
(1.74347e-16 2.3961e-18 0)
(1.36431e-16 4.00814e-18 0)
(2.37873e-17 5.13347e-18 0)
(-7.68081e-17 6.81412e-18 0)
(-9.69692e-17 6.73361e-18 0)
(-1.06663e-16 2.96788e-18 0)
(-1.7482e-16 -2.33682e-18 0)
(-2.24823e-16 -5.79439e-18 0)
(-1.43838e-16 -7.4888e-18 0)
(3.11358e-17 -9.23611e-18 0)
(1.7984e-16 -9.7996e-18 0)
(2.93575e-16 -5.95225e-18 0)
(4.5228e-16 2.05574e-18 0)
(6.24358e-16 1.00825e-17 0)
(6.58323e-16 1.54724e-17 0)
(4.92202e-16 1.88973e-17 0)
(2.30513e-16 2.01022e-17 0)
(-3.46486e-17 1.57963e-17 0)
(-3.26631e-16 4.2201e-18 0)
(-6.43994e-16 -1.13465e-17 0)
(-8.41674e-16 -2.5831e-17 0)
(-7.69581e-16 -3.68496e-17 0)
(-4.47674e-16 -4.33431e-17 0)
(6.6343e-18 -4.21959e-17 0)
(5.22049e-16 -3.03806e-17 0)
(1.07753e-15 -9.02499e-18 0)
(1.52154e-15 1.58537e-17 0)
(1.68295e-15 3.91518e-17 0)
(1.4289e-15 5.6152e-17 0)
(8.87259e-16 6.39243e-17 0)
(9.32023e-17 5.6771e-17 0)
(-7.35904e-16 3.62328e-17 0)
(-1.5827e-15 4.53099e-18 0)
(-2.03278e-15 -2.68406e-17 0)
(-2.1526e-15 -5.38168e-17 0)
(-1.64364e-15 -6.36479e-17 0)
(-1.0239e-15 -5.59297e-17 0)
(-5.0065e-17 -2.77484e-17 0)
(3.99945e-16 1.0925e-17 0)
(7.93176e-16 2.57385e-17 0)
(3.64434e-16 5.25503e-17 0)
(4.91224e-15 3.31983e-14 0)
(3.80826e-15 3.05489e-16 0)
(-2.22576e-17 1.43222e-16 0)
(7.75499e-16 -2.89395e-17 0)
(-1.82425e-18 9.44998e-18 0)
(1.18128e-16 -1.39416e-18 0)
(-2.33273e-16 9.72819e-18 0)
(-1.62638e-16 6.21659e-18 0)
(-2.73668e-16 9.19064e-18 0)
(-1.76208e-16 6.91836e-18 0)
(-9.46109e-17 6.59353e-18 0)
(8.50266e-17 1.77447e-18 0)
(1.63339e-16 -2.74738e-18 0)
(2.26897e-16 -6.37596e-18 0)
(2.89929e-16 -7.34566e-18 0)
(3.70169e-16 -8.691e-18 0)
(3.5491e-16 -9.34539e-18 0)
(2.68219e-16 -6.99154e-18 0)
(2.08866e-16 -1.26929e-18 0)
(2.12841e-16 3.692e-18 0)
(1.69726e-16 5.84573e-18 0)
(3.60125e-17 7.25397e-18 0)
(-8.40449e-17 9.35173e-18 0)
(-1.07497e-16 8.9716e-18 0)
(-1.18134e-16 3.53853e-18 0)
(-2.00044e-16 -3.94238e-18 0)
(-2.62355e-16 -8.79967e-18 0)
(-1.69202e-16 -1.11247e-17 0)
(3.59892e-17 -1.33423e-17 0)
(2.08972e-16 -1.36971e-17 0)
(3.39402e-16 -7.79098e-18 0)
(5.24802e-16 3.91763e-18 0)
(7.29652e-16 1.56105e-17 0)
(7.73119e-16 2.35097e-17 0)
(5.80022e-16 2.83699e-17 0)
(2.7465e-16 2.96809e-17 0)
(-3.33544e-17 2.28701e-17 0)
(-3.73885e-16 5.64616e-18 0)
(-7.48445e-16 -1.72557e-17 0)
(-9.85553e-16 -3.8574e-17 0)
(-9.05596e-16 -5.4727e-17 0)
(-5.30793e-16 -6.39302e-17 0)
(-2.5319e-19 -6.1716e-17 0)
(6.03908e-16 -4.39366e-17 0)
(1.25964e-15 -1.24156e-17 0)
(1.79056e-15 2.41804e-17 0)
(1.9918e-15 5.83532e-17 0)
(1.70556e-15 8.31118e-17 0)
(1.07899e-15 9.40851e-17 0)
(1.53642e-16 8.32225e-17 0)
(-8.20636e-16 5.29795e-17 0)
(-1.82306e-15 6.64381e-18 0)
(-2.3683e-15 -3.9009e-17 0)
(-2.52818e-15 -7.81974e-17 0)
(-1.95082e-15 -9.22244e-17 0)
(-1.23669e-15 -8.11192e-17 0)
(-9.84439e-17 -4.02465e-17 0)
(4.39954e-16 1.48996e-17 0)
(9.1898e-16 3.75982e-17 0)
(4.237e-16 7.47196e-17 0)
(5.50409e-15 3.29622e-14 0)
(4.29913e-15 4.00801e-16 0)
(3.67975e-17 1.92908e-16 0)
(9.10017e-16 -3.55088e-17 0)
(2.63931e-17 1.51595e-17 0)
(1.56597e-16 -5.7272e-19 0)
(-2.4667e-16 1.39835e-17 0)
(-1.73456e-16 8.33128e-18 0)
(-3.07254e-16 1.18619e-17 0)
(-2.04069e-16 8.30688e-18 0)
(-1.1494e-16 7.83002e-18 0)
(8.85177e-17 1.52035e-18 0)
(1.77806e-16 -4.08118e-18 0)
(2.50941e-16 -8.49297e-18 0)
(3.26414e-16 -9.37656e-18 0)
(4.23401e-16 -1.09017e-17 0)
(4.10047e-16 -1.16232e-17 0)
(3.12434e-16 -8.52871e-18 0)
(2.46003e-16 -1.09987e-18 0)
(2.53147e-16 5.24458e-18 0)
(2.05334e-16 7.88434e-18 0)
(5.09828e-17 9.55943e-18 0)
(-8.83011e-17 1.21509e-17 0)
(-1.15032e-16 1.14612e-17 0)
(-1.26729e-16 4.11727e-18 0)
(-2.22732e-16 -5.89125e-18 0)
(-2.98158e-16 -1.23875e-17 0)
(-1.94175e-16 -1.54605e-17 0)
(3.96543e-17 -1.82332e-17 0)
(2.35446e-16 -1.83261e-17 0)
(3.81421e-16 -9.95269e-18 0)
(5.92903e-16 6.19034e-18 0)
(8.3084e-16 2.23053e-17 0)
(8.85313e-16 3.32671e-17 0)
(6.67709e-16 3.98923e-17 0)
(3.21468e-16 4.13412e-17 0)
(-2.68418e-17 3.15135e-17 0)
(-4.14191e-16 7.48447e-18 0)
(-8.45608e-16 -2.42895e-17 0)
(-1.12367e-15 -5.39314e-17 0)
(-1.03921e-15 -7.63923e-17 0)
(-6.15947e-16 -8.89668e-17 0)
(-1.3672e-17 -8.55486e-17 0)
(6.75854e-16 -6.06336e-17 0)
(1.43037e-15 -1.68679e-17 0)
(2.04969e-15 3.39307e-17 0)
(2.29511e-15 8.13648e-17 0)
(1.98367e-15 1.15666e-16 0)
(1.27975e-15 1.30684e-16 0)
(2.30342e-16 1.15504e-16 0)
(-8.84946e-16 7.3679e-17 0)
(-2.04201e-15 9.70129e-18 0)
(-2.68679e-15 -5.32307e-17 0)
(-2.89409e-15 -1.07383e-16 0)
(-2.25895e-15 -1.26676e-16 0)
(-1.45868e-15 -1.11911e-16 0)
(-1.62348e-16 -5.59155e-17 0)
(4.66356e-16 1.87133e-17 0)
(1.03606e-15 5.14005e-17 0)
(4.80063e-16 1.01011e-16 0)
(6.05782e-15 3.27282e-14 0)
(4.76908e-15 5.08778e-16 0)
(1.11126e-16 2.50205e-16 0)
(1.04803e-15 -4.19524e-17 0)
(6.21956e-17 2.2426e-17 0)
(2.00757e-16 8.87982e-19 0)
(-2.53523e-16 1.92739e-17 0)
(-1.79872e-16 1.08945e-17 0)
(-3.37749e-16 1.48596e-17 0)
(-2.31219e-16 9.64275e-18 0)
(-1.3619e-16 8.92541e-18 0)
(8.95691e-17 9.11023e-19 0)
(1.89351e-16 -5.83637e-18 0)
(2.72042e-16 -1.10189e-17 0)
(3.60463e-16 -1.16638e-17 0)
(4.74918e-16 -1.32941e-17 0)
(4.64531e-16 -1.40439e-17 0)
(3.57054e-16 -1.0102e-17 0)
(2.84363e-16 -7.49493e-19 0)
(2.95206e-16 7.12598e-18 0)
(2.43236e-16 1.026e-17 0)
(6.88204e-17 1.21873e-17 0)
(-8.93268e-17 1.53137e-17 0)
(-1.19326e-16 1.42532e-17 0)
(-1.32258e-16 4.70214e-18 0)
(-2.42689e-16 -8.22572e-18 0)
(-3.32035e-16 -1.66194e-17 0)
(-2.18704e-16 -2.05591e-17 0)
(4.19359e-17 -2.39659e-17 0)
(2.58903e-16 -2.3734e-17 0)
(4.19235e-16 -1.24663e-17 0)
(6.56165e-16 8.87405e-18 0)
(9.27489e-16 3.0201e-17 0)
(9.9461e-16 4.48128e-17 0)
(7.55318e-16 5.35666e-17 0)
(3.71416e-16 5.52149e-17 0)
(-1.43975e-17 4.18727e-17 0)
(-4.46696e-16 9.8695e-18 0)
(-9.34579e-16 -3.23511e-17 0)
(-1.25525e-15 -7.18628e-17 0)
(-1.17012e-15 -1.01873e-16 0)
(-7.03503e-16 -1.18551e-16 0)
(-3.46659e-17 -1.13851e-16 0)
(7.36314e-16 -8.06609e-17 0)
(1.58781e-15 -2.2566e-17 0)
(2.29696e-15 4.49645e-17 0)
(2.59123e-15 1.0812e-16 0)
(2.26235e-15 1.53851e-16 0)
(1.48962e-15 1.73861e-16 0)
(3.24355e-16 1.53858e-16 0)
(-9.27036e-16 9.86242e-17 0)
(-2.23734e-15 1.40164e-17 0)
(-2.98609e-15 -6.92656e-17 0)
(-3.24867e-15 -1.41226e-16 0)
(-2.56733e-15 -1.67035e-16 0)
(-1.69007e-15 -1.48455e-16 0)
(-2.42781e-16 -7.50047e-17 0)
(4.77953e-16 2.21874e-17 0)
(1.14335e-15 6.72441e-17 0)
(5.33117e-16 1.31814e-16 0)
(6.57157e-15 3.25157e-14 0)
(5.21578e-15 6.28768e-16 0)
(2.00107e-16 3.14432e-16 0)
(1.18935e-15 -4.85791e-17 0)
(1.05622e-16 3.09496e-17 0)
(2.50754e-16 2.90635e-18 0)
(-2.53572e-16 2.57787e-17 0)
(-1.81593e-16 1.42998e-17 0)
(-3.64828e-16 1.86625e-17 0)
(-2.57356e-16 1.13647e-17 0)
(-1.58167e-16 1.01785e-17 0)
(8.82287e-17 5.29003e-20 0)
(1.97929e-16 -8.09798e-18 0)
(2.90112e-16 -1.41829e-17 0)
(3.91921e-16 -1.45095e-17 0)
(5.24485e-16 -1.61727e-17 0)
(5.18126e-16 -1.68601e-17 0)
(4.01935e-16 -1.18803e-17 0)
(3.23875e-16 -2.95072e-19 0)
(3.3896e-16 9.33565e-18 0)
(2.83414e-16 1.30194e-17 0)
(8.96346e-17 1.52043e-17 0)
(-8.6897e-17 1.89082e-17 0)
(-1.2015e-16 1.74046e-17 0)
(-1.34536e-16 5.33053e-18 0)
(-2.59721e-16 -1.09303e-17 0)
(-3.63793e-16 -2.14971e-17 0)
(-2.42726e-16 -2.64352e-17 0)
(4.26785e-17 -3.05689e-17 0)
(2.79033e-16 -2.99631e-17 0)
(4.52486e-16 -1.53794e-17 0)
(7.14201e-16 1.19299e-17 0)
(1.01919e-15 3.92812e-17 0)
(1.10072e-15 5.81645e-17 0)
(8.42873e-16 6.94565e-17 0)
(4.24874e-16 7.14186e-17 0)
(4.61216e-18 5.41077e-17 0)
(-4.7062e-16 1.29782e-17 0)
(-1.01451e-15 -4.12821e-17 0)
(-1.37958e-15 -9.2264e-17 0)
(-1.29799e-15 -1.31151e-16 0)
(-7.93762e-16 -1.52773e-16 0)
(-6.4165e-17 -1.46823e-16 0)
(7.83848e-16 -1.04295e-16 0)
(1.73017e-15 -2.98122e-17 0)
(2.5305e-15 5.70194e-17 0)
(2.87861e-15 1.38456e-16 0)
(2.54072e-15 1.97661e-16 0)
(1.70864e-15 2.23783e-16 0)
(4.36633e-16 1.98615e-16 0)
(-9.45211e-16 1.28241e-16 0)
(-2.40686e-15 2.00384e-17 0)
(-3.26408e-15 -8.67633e-17 0)
(-3.59026e-15 -1.7953e-16 0)
(-2.87517e-15 -2.13347e-16 0)
(-1.93094e-15 -1.90973e-16 0)
(-3.40627e-16 -9.78698e-17 0)
(4.73594e-16 2.5053e-17 0)
(1.23977e-15 8.51052e-17 0)
(5.82411e-16 1.67415e-16 0)
(7.04454e-15 3.22849e-14 0)
(5.63788e-15 7.60424e-16 0)
(3.03028e-16 3.85662e-16 0)
(1.33375e-15 -5.51304e-17 0)
(1.56675e-16 4.07399e-17 0)
(3.0671e-16 5.43254e-18 0)
(-2.4657e-16 3.34285e-17 0)
(-1.78313e-16 1.84956e-17 0)
(-3.88149e-16 2.32529e-17 0)
(-2.82158e-16 1.34993e-17 0)
(-1.80653e-16 1.16555e-17 0)
(8.45699e-17 -9.6167e-19 0)
(2.03513e-16 -1.07676e-17 0)
(3.05066e-16 -1.78976e-17 0)
(4.20629e-16 -1.785e-17 0)
(5.71865e-16 -1.95057e-17 0)
(5.70593e-16 -2.00732e-17 0)
(4.4692e-16 -1.38907e-17 0)
(3.64453e-16 2.2365e-19 0)
(3.84337e-16 1.18338e-17 0)
(3.2584e-16 1.61314e-17 0)
(1.1352e-16 1.85952e-17 0)
(-8.08095e-17 2.29408e-17 0)
(-1.17292e-16 2.09425e-17 0)
(-1.33382e-16 6.04087e-18 0)
(-2.73637e-16 -1.39668e-17 0)
(-3.93239e-16 -2.69927e-17 0)
(-2.66161e-16 -3.30797e-17 0)
(4.17639e-17 -3.80606e-17 0)
(2.95573e-16 -3.70626e-17 0)
(4.80859e-16 -1.87637e-17 0)
(7.66648e-16 1.52821e-17 0)
(1.10555e-15 4.94867e-17 0)
(1.20336e-15 7.33e-17 0)
(9.30363e-16 8.75951e-17 0)
(4.82159e-16 9.0051e-17 0)
(3.07494e-17 6.83764e-17 0)
(-4.85243e-16 1.70002e-17 0)
(-1.08461e-15 -5.09019e-17 0)
(-1.49595e-15 -1.15008e-16 0)
(-1.42249e-15 -1.64194e-16 0)
(-8.86948e-16 -1.91725e-16 0)
(-1.02992e-16 -1.84685e-16 0)
(8.17127e-16 -1.31859e-16 0)
(1.85577e-15 -3.89746e-17 0)
(2.74851e-15 6.97578e-17 0)
(3.15568e-15 1.72142e-16 0)
(2.81788e-15 2.4703e-16 0)
(1.93675e-15 2.80582e-16 0)
(5.68004e-16 2.50093e-16 0)
(-9.3789e-16 1.62967e-16 0)
(-2.54851e-15 2.82344e-17 0)
(-3.51862e-15 -1.05344e-16 0)
(-3.91712e-15 -2.22096e-16 0)
(-3.18152e-15 -2.6566e-16 0)
(-2.18124e-15 -2.39749e-16 0)
(-4.5664e-16 -1.24935e-16 0)
(4.52176e-16 2.69025e-17 0)
(1.32423e-15 1.04809e-16 0)
(6.2745e-16 2.07958e-16 0)
(7.47655e-15 3.20237e-14 0)
(6.03455e-15 9.03401e-16 0)
(4.1908e-16 4.63949e-16 0)
(1.48095e-15 -6.13024e-17 0)
(2.15307e-16 5.18585e-17 0)
(3.68715e-16 8.46129e-18 0)
(-2.32286e-16 4.21756e-17 0)
(-1.69726e-16 2.34214e-17 0)
(-4.07355e-16 2.85792e-17 0)
(-3.05282e-16 1.60231e-17 0)
(-2.034e-16 1.33706e-17 0)
(7.8698e-17 -2.08318e-18 0)
(2.06099e-16 -1.37722e-17 0)
(3.16828e-16 -2.20819e-17 0)
(4.46431e-16 -2.16123e-17 0)
(6.16819e-16 -2.32418e-17 0)
(6.21686e-16 -2.36623e-17 0)
(4.91835e-16 -1.6142e-17 0)
(4.05987e-16 7.7723e-19 0)
(4.3125e-16 1.45819e-17 0)
(3.70478e-16 1.95599e-17 0)
(1.40553e-16 2.23365e-17 0)
(-7.0884e-17 2.74091e-17 0)
(-1.10555e-16 2.48878e-17 0)
(-1.28619e-16 6.87054e-18 0)
(-2.84242e-16 -1.72937e-17 0)
(-4.20172e-16 -3.30723e-17 0)
(-2.88913e-16 -4.04785e-17 0)
(3.91108e-17 -4.64574e-17 0)
(3.08307e-16 -4.50841e-17 0)
(5.04073e-16 -2.26991e-17 0)
(8.13176e-16 1.88407e-17 0)
(1.1862e-15 6.07415e-17 0)
(1.30224e-15 9.01813e-17 0)
(1.01774e-15 1.08004e-16 0)
(5.43526e-16 1.11208e-16 0)
(6.45067e-17 8.48441e-17 0)
(-4.89906e-16 2.21446e-17 0)
(-1.1441e-15 -6.10002e-17 0)
(-1.60366e-15 -1.39933e-16 0)
(-1.54324e-15 -2.00939e-16 0)
(-9.83204e-16 -2.35477e-16 0)
(-1.51857e-16 -2.2765e-16 0)
(8.34937e-16 -1.63686e-16 0)
(1.96301e-15 -5.04517e-17 0)
(2.94923e-15 8.2794e-17 0)
(3.4209e-15 2.08886e-16 0)
(3.09282e-15 3.01837e-16 0)
(2.17374e-15 3.44344e-16 0)
(7.19148e-16 3.08585e-16 0)
(-9.03622e-16 2.03247e-16 0)
(-2.6603e-15 3.91049e-17 0)
(-3.74759e-15 -1.24571e-16 0)
(-4.22744e-15 -2.68667e-16 0)
(-3.48532e-15 -3.23972e-16 0)
(-2.44074e-15 -2.95051e-16 0)
(-5.91434e-16 -1.56642e-16 0)
(4.1265e-16 2.72653e-17 0)
(1.39563e-15 1.26137e-16 0)
(6.67688e-16 2.5355e-16 0)
(7.86749e-15 3.17352e-14 0)
(6.40502e-15 1.05727e-15 0)
(5.47356e-16 5.49208e-16 0)
(1.63063e-15 -6.68499e-17 0)
(2.81422e-16 6.43352e-17 0)
(4.36822e-16 1.19931e-17 0)
(-2.10518e-16 5.20088e-17 0)
(-1.55533e-16 2.90753e-17 0)
(-4.22083e-16 3.46505e-17 0)
(-3.26361e-16 1.89598e-17 0)
(-2.2613e-16 1.53599e-17 0)
(7.07521e-17 -3.26725e-18 0)
(2.05712e-16 -1.70668e-17 0)
(3.25342e-16 -2.66971e-17 0)
(4.69178e-16 -2.57692e-17 0)
(6.59111e-16 -2.73698e-17 0)
(6.71154e-16 -2.76348e-17 0)
(5.36491e-16 -1.86579e-17 0)
(4.48349e-16 1.33207e-18 0)
(4.79594e-16 1.75452e-17 0)
(4.17269e-16 2.32762e-17 0)
(1.70788e-16 2.6413e-17 0)
(-5.69647e-17 3.23176e-17 0)
(-9.97614e-17 2.92662e-17 0)
(-1.20079e-16 7.86139e-18 0)
(-2.91344e-16 -2.08638e-17 0)
(-4.4439e-16 -3.96965e-17 0)
(-3.10864e-16 -4.86127e-17 0)
(3.4676e-17 -5.57721e-17 0)
(3.17064e-16 -5.40785e-17 0)
(5.21891e-16 -2.72698e-17 0)
(8.53478e-16 2.25057e-17 0)
(1.26078e-15 7.29553e-17 0)
(1.39704e-15 1.08756e-16 0)
(1.10492e-15 1.30697e-16 0)
(6.09163e-16 1.34984e-16 0)
(1.06305e-16 1.03687e-16 0)
(-4.84008e-16 2.86455e-17 0)
(-1.19228e-15 -7.13285e-17 0)
(-1.70201e-15 -1.66833e-16 0)
(-1.6598e-15 -2.41275e-16 0)
(-1.08258e-15 -2.84059e-16 0)
(-2.11353e-16 -2.75914e-16 0)
(8.3618e-16 -2.00116e-16 0)
(2.05039e-15 -6.46738e-17 0)
(3.13096e-15 9.56906e-17 0)
(3.67267e-15 2.48335e-16 0)
(3.36445e-15 3.61902e-16 0)
(2.41929e-15 4.15116e-16 0)
(8.90576e-16 3.74375e-16 0)
(-8.41102e-16 2.49548e-16 0)
(-2.7403e-15 5.3207e-17 0)
(-3.94888e-15 -1.43936e-16 0)
(-4.51934e-15 -3.18907e-16 0)
(-3.78532e-15 -3.88222e-16 0)
(-2.70906e-15 -3.57125e-16 0)
(-7.45468e-16 -1.93444e-16 0)
(3.54033e-16 2.56313e-17 0)
(1.45284e-15 1.48842e-16 0)
(7.02538e-16 3.0428e-16 0)
(8.21731e-15 3.14222e-14 0)
(6.74849e-15 1.22153e-15 0)
(6.86853e-16 6.41274e-16 0)
(1.7824e-15 -7.15552e-17 0)
(3.54866e-16 7.81767e-17 0)
(5.11039e-16 1.6023e-17 0)
(-1.81092e-16 6.29254e-17 0)
(-1.35442e-16 3.54786e-17 0)
(-4.31959e-16 4.15044e-17 0)
(-3.45009e-16 2.23593e-17 0)
(-2.48538e-16 1.76766e-17 0)
(6.09068e-17 -4.46376e-18 0)
(2.02406e-16 -2.06119e-17 0)
(3.3057e-16 -3.17178e-17 0)
(4.8873e-16 -3.0312e-17 0)
(6.98506e-16 -3.18968e-17 0)
(7.18739e-16 -3.20124e-17 0)
(5.80682e-16 -2.14718e-17 0)
(4.91386e-16 1.84889e-18 0)
(5.29242e-16 2.06864e-17 0)
(4.6614e-16 2.72521e-17 0)
(2.04259e-16 3.08114e-17 0)
(-3.89217e-17 3.76725e-17 0)
(-8.47528e-17 3.41059e-17 0)
(-1.07604e-16 9.05962e-18 0)
(-2.94752e-16 -2.46236e-17 0)
(-4.65678e-16 -4.6819e-17 0)
(-3.31872e-16 -5.74572e-17 0)
(2.84561e-17 -6.60139e-17 0)
(3.21721e-16 -6.40971e-17 0)
(5.34117e-16 -3.25666e-17 0)
(8.87281e-16 2.61629e-17 0)
(1.32893e-15 8.6019e-17 0)
(1.48747e-15 1.28954e-16 0)
(1.19178e-15 1.55671e-16 0)
(6.79189e-16 1.61466e-16 0)
(1.5649e-16 1.25088e-16 0)
(-4.67012e-16 3.67607e-17 0)
(-1.22844e-15 -8.16006e-17 0)
(-1.7903e-15 -1.95453e-16 0)
(-1.77171e-15 -2.85048e-16 0)
(-1.18503e-15 -3.37471e-16 0)
(-2.81942e-16 -3.29653e-16 0)
(8.19885e-16 -2.41497e-16 0)
(2.1165e-15 -8.21076e-17 0)
(3.29201e-15 1.07952e-16 0)
(3.90938e-15 2.90069e-16 0)
(3.63158e-15 4.2698e-16 0)
(2.67288e-15 4.92894e-16 0)
(1.0826e-15 4.47727e-16 0)
(-7.49199e-16 3.02356e-16 0)
(-2.78674e-15 7.11521e-17 0)
(-4.12038e-15 -1.62851e-16 0)
(-4.79083e-15 -3.72397e-16 0)
(-4.0801e-15 -4.58288e-16 0)
(-2.98559e-15 -4.26183e-16 0)
(-9.19025e-16 -2.35812e-16 0)
(2.75418e-16 2.1445e-17 0)
(1.49473e-15 1.7263e-16 0)
(7.31364e-16 3.60205e-16 0)
(8.52607e-15 3.10858e-14 0)
(7.06421e-15 1.39558e-15 0)
(8.36475e-16 7.3993e-16 0)
(1.9358e-15 -7.52043e-17 0)
(4.3542e-16 9.3379e-17 0)
(5.91326e-16 2.05405e-17 0)
(-1.43871e-16 7.49179e-17 0)
(-1.09175e-16 4.26549e-17 0)
(-4.36606e-16 4.91843e-17 0)
(-3.60819e-16 2.628e-17 0)
(-2.70284e-16 2.03819e-17 0)
(4.93743e-17 -5.61585e-18 0)
(1.96272e-16 -2.43633e-17 0)
(3.32496e-16 -3.71174e-17 0)
(5.0496e-16 -3.52333e-17 0)
(7.34779e-16 -3.68325e-17 0)
(7.64182e-16 -3.68201e-17 0)
(6.24189e-16 -2.46207e-17 0)
(5.34926e-16 2.28394e-18 0)
(5.80045e-16 2.39634e-17 0)
(5.1699e-16 3.14557e-17 0)
(2.40969e-16 3.55161e-17 0)
(-1.66535e-17 4.34789e-17 0)
(-6.53936e-17 3.94358e-17 0)
(-9.10457e-17 1.05154e-17 0)
(-2.94276e-16 -2.85124e-17 0)
(-4.83817e-16 -5.43848e-17 0)
(-3.51776e-16 -6.69801e-17 0)
(2.04891e-17 -7.71879e-17 0)
(3.22205e-16 -7.51917e-17 0)
(5.406e-16 -3.86881e-17 0)
(9.14342e-16 2.96825e-17 0)
(1.39034e-15 9.9802e-17 0)
(1.57319e-15 1.50681e-16 0)
(1.27812e-15 1.82905e-16 0)
(7.53652e-16 1.90735e-16 0)
(2.15325e-16 1.49234e-16 0)
(-4.38446e-16 4.67694e-17 0)
(-1.25194e-15 -9.14928e-17 0)
(-1.86782e-15 -2.25495e-16 0)
(-1.87841e-15 -3.32056e-16 0)
(-1.29038e-15 -3.95671e-16 0)
(-3.63946e-16 -3.89028e-16 0)
(7.85219e-16 -2.88184e-16 0)
(2.16002e-15 -1.03257e-16 0)
(3.43077e-15 1.19021e-16 0)
(4.12938e-15 3.33591e-16 0)
(3.89288e-15 4.96752e-16 0)
(2.93381e-15 5.77622e-16 0)
(1.29533e-15 5.28884e-16 0)
(-6.26973e-16 3.62172e-16 0)
(-2.79794e-15 9.36035e-17 0)
(-4.26001e-15 -1.80655e-16 0)
(-5.03985e-15 -4.28639e-16 0)
(-4.36806e-15 -5.33981e-16 0)
(-3.26952e-15 -5.0241e-16 0)
(-1.1122e-15 -2.84234e-16 0)
(1.75994e-16 1.41005e-17 0)
(1.52016e-15 1.97158e-16 0)
(7.53489e-16 4.21332e-16 0)
(8.79395e-15 3.07263e-14 0)
(7.35153e-15 1.57879e-15 0)
(9.95034e-16 8.44923e-16 0)
(2.09034e-15 -7.75801e-17 0)
(5.22804e-16 1.09933e-16 0)
(6.77586e-16 2.55311e-17 0)
(-9.87604e-17 8.79713e-17 0)
(-7.64777e-17 5.06233e-17 0)
(-4.35651e-16 5.77317e-17 0)
(-3.73369e-16 3.07818e-17 0)
(-2.90998e-16 2.35404e-17 0)
(3.64061e-17 -6.66119e-18 0)
(1.87434e-16 -2.82708e-17 0)
(3.31136e-16 -4.28634e-17 0)
(5.1776e-16 -4.05215e-17 0)
(7.67708e-16 -4.21841e-17 0)
(8.0722e-16 -4.20815e-17 0)
(6.66777e-16 -2.81425e-17 0)
(5.78775e-16 2.59025e-18 0)
(6.3183e-16 2.73297e-17 0)
(5.69696e-16 3.58507e-17 0)
(2.80895e-16 4.05076e-17 0)
(9.91003e-18 4.97395e-17 0)
(-4.15735e-17 4.52845e-17 0)
(-7.02723e-17 1.22825e-17 0)
(-2.89732e-16 -3.24621e-17 0)
(-4.9858e-16 -6.23302e-17 0)
(-3.70385e-16 -7.71412e-17 0)
(1.08568e-17 -8.92937e-17 0)
(3.18496e-16 -8.74134e-17 0)
(5.41237e-16 -4.57399e-17 0)
(9.34452e-16 3.29188e-17 0)
(1.44466e-15 1.14151e-16 0)
(1.65386e-15 1.73819e-16 0)
(1.36374e-15 2.12358e-16 0)
(8.3252e-16 2.22857e-16 0)
(2.8299e-16 1.76318e-16 0)
(-3.97912e-16 5.89714e-17 0)
(-1.26216e-15 -1.00643e-16 0)
(-1.93386e-15 -2.56608e-16 0)
(-1.9793e-15 -3.82046e-16 0)
(-1.39835e-15 -4.58575e-16 0)
(-4.57531e-16 -4.54173e-16 0)
(7.31502e-16 -3.40538e-16 0)
(2.17977e-15 -1.2866e-16 0)
(3.54565e-15 1.28279e-16 0)
(4.33097e-15 3.78327e-16 0)
(4.14689e-15 5.70823e-16 0)
(3.20116e-15 6.69179e-16 0)
(1.5286e-15 6.18057e-16 0)
(-4.73706e-16 4.29505e-16 0)
(-2.77239e-15 1.21274e-16 0)
(-4.36572e-15 -1.96608e-16 0)
(-5.26425e-15 -4.87042e-16 0)
(-4.64743e-15 -6.15041e-16 0)
(-3.55981e-15 -5.8595e-16 0)
(-1.32486e-15 -3.39207e-16 0)
(5.50576e-17 2.94169e-18 0)
(1.528e-15 2.22022e-16 0)
(7.68198e-16 4.8761e-16 0)
(9.02127e-15 3.03442e-14 0)
(7.60986e-15 1.77045e-15 0)
(1.16126e-15 9.55965e-16 0)
(2.24543e-15 -7.84615e-17 0)
(6.16663e-16 1.27824e-16 0)
(7.69664e-16 3.09765e-17 0)
(-4.57164e-17 1.02062e-16 0)
(-3.71208e-17 5.93966e-17 0)
(-4.28725e-16 6.71838e-17 0)
(-3.82221e-16 3.59236e-17 0)
(-3.10282e-16 2.72183e-17 0)
(2.22939e-17 -7.53297e-18 0)
(1.76059e-16 -3.22779e-17 0)
(3.26532e-16 -4.89169e-17 0)
(5.27043e-16 -4.61598e-17 0)
(7.97088e-16 -4.7955e-17 0)
(8.47591e-16 -4.7818e-17 0)
(7.082e-16 -3.20748e-17 0)
(6.22715e-16 2.71828e-18 0)
(6.844e-16 3.07343e-17 0)
(6.24106e-16 4.0396e-17 0)
(3.2398e-16 4.57628e-17 0)
(4.08056e-17 5.64539e-17 0)
(-1.321e-17 5.16801e-17 0)
(-4.51683e-17 1.44181e-17 0)
(-2.80941e-16 -3.63971e-17 0)
(-5.09731e-16 -7.05821e-17 0)
(-3.87486e-16 -8.78914e-17 0)
(-3.14307e-19 -1.02324e-16 0)
(3.1063e-16 -1.00812e-16 0)
(5.3598e-16 -5.38337e-17 0)
(9.47444e-16 3.57105e-17 0)
(1.49161e-15 1.28891e-16 0)
(1.72912e-15 1.98225e-16 0)
(1.44834e-15 2.43965e-16 0)
(9.15677e-16 2.57884e-16 0)
(3.59571e-16 2.06527e-16 0)
(-3.45093e-16 7.36855e-17 0)
(-1.25855e-15 -1.08652e-16 0)
(-1.98769e-15 -2.88392e-16 0)
(-2.07371e-15 -4.34708e-16 0)
(-1.50852e-15 -5.26052e-16 0)
(-5.62694e-16 -5.25193e-16 0)
(6.58226e-16 -3.98916e-16 0)
(2.1747e-15 -1.58886e-16 0)
(3.63513e-15 1.35047e-16 0)
(4.5124e-15 4.23625e-16 0)
(4.39199e-15 6.48714e-16 0)
(3.4738e-15 7.67377e-16 0)
(1.78202e-15 7.15418e-16 0)
(-2.88924e-16 5.04867e-16 0)
(-2.70874e-15 1.5492e-16 0)
(-4.43553e-15 -2.09893e-16 0)
(-5.46181e-15 -5.46927e-16 0)
(-4.9162e-15 -7.01125e-16 0)
(-3.85518e-15 -6.769e-16 0)
(-1.55664e-15 -4.01229e-16 0)