/*--------------------------------*- C++ -*----------------------------------*\
| =========                 |                                                 |
| \\      /  F ield         | foam-extend: Open Source CFD                    |
|  \\    /   O peration     | Version:     4.0                                |
|   \\  /    A nd           | Web:         http://www.foam-extend.org         |
|    \\/     M anipulation  |                                                 |
\*---------------------------------------------------------------------------*/
FoamFile
{
    version     2.0;
    format      ascii;
    class       volScalarField;
    location    "1830";
    object      psiE;
}
// * * * * * * * * * * * * * * * * * * * * * * * * * * * * * * * * * * * * * //

dimensions      [0 0 0 0 0 0 0];

internalField   nonuniform List<scalar> 
6960
(
0.335826
0.335831
0.335837
0.335844
0.33585
0.335856
0.335862
0.335867
0.335871
0.335875
0.335879
0.335882
0.335885
0.335887
0.335889
0.335891
0.335893
0.335895
0.335896
0.335897
0.335898
0.335899
0.3359
0.3359
0.335901
0.335901
0.335901
0.335902
0.335902
0.335902
0.335902
0.335902
0.335902
0.335901
0.335901
0.335901
0.3359
0.3359
0.335899
0.335898
0.335897
0.335896
0.335895
0.335893
0.335891
0.335889
0.335887
0.335885
0.335882
0.335879
0.335875
0.335871
0.335867
0.335862
0.335856
0.33585
0.335844
0.335837
0.335831
0.335826
0.839534
0.839555
0.839582
0.839609
0.839635
0.839659
0.83968
0.8397
0.839718
0.839735
0.839749
0.839762
0.839774
0.839784
0.839793
0.839801
0.839808
0.839814
0.839819
0.839824
0.839828
0.839831
0.839834
0.839836
0.839838
0.83984
0.839841
0.839842
0.839843
0.839843
0.839843
0.839843
0.839842
0.839841
0.83984
0.839838
0.839836
0.839834
0.839831
0.839828
0.839824
0.839819
0.839814
0.839808
0.839801
0.839793
0.839784
0.839774
0.839762
0.839749
0.839735
0.839718
0.8397
0.83968
0.839659
0.839635
0.839609
0.839582
0.839555
0.839534
1.29511
1.29515
1.2952
1.29526
1.29531
1.29535
1.2954
1.29544
1.29547
1.2955
1.29553
1.29556
1.29558
1.2956
1.29562
1.29564
1.29565
1.29566
1.29567
1.29568
1.29569
1.2957
1.2957
1.29571
1.29571
1.29571
1.29571
1.29572
1.29572
1.29572
1.29572
1.29572
1.29572
1.29571
1.29571
1.29571
1.29571
1.2957
1.2957
1.29569
1.29568
1.29567
1.29566
1.29565
1.29564
1.29562
1.2956
1.29558
1.29556
1.29553
1.2955
1.29547
1.29544
1.2954
1.29535
1.29531
1.29526
1.2952
1.29515
1.29511
1.73769
1.73776
1.73784
1.73792
1.738
1.73808
1.73815
1.73821
1.73827
1.73832
1.73836
1.7384
1.73844
1.73847
1.7385
1.73852
1.73854
1.73856
1.73858
1.73859
1.7386
1.73861
1.73862
1.73863
1.73864
1.73864
1.73865
1.73865
1.73865
1.73865
1.73865
1.73865
1.73865
1.73865
1.73864
1.73864
1.73863
1.73862
1.73861
1.7386
1.73859
1.73858
1.73856
1.73854
1.73852
1.7385
1.73847
1.73844
1.7384
1.73836
1.73832
1.73827
1.73821
1.73815
1.73808
1.738
1.73792
1.73784
1.73776
1.73769
2.18076
2.18085
2.18097
2.18109
2.1812
2.1813
2.1814
2.18148
2.18156
2.18163
2.1817
2.18175
2.1818
2.18185
2.18188
2.18192
2.18195
2.18198
2.182
2.18202
2.18204
2.18205
2.18206
2.18207
2.18208
2.18209
2.18209
2.1821
2.1821
2.1821
2.1821
2.1821
2.1821
2.18209
2.18209
2.18208
2.18207
2.18206
2.18205
2.18204
2.18202
2.182
2.18198
2.18195
2.18192
2.18188
2.18185
2.1818
2.18175
2.1817
2.18163
2.18156
2.18148
2.1814
2.1813
2.1812
2.18109
2.18097
2.18085
2.18076
2.6298
2.62992
2.63007
2.63022
2.63036
2.6305
2.63062
2.63074
2.63084
2.63093
2.63101
2.63108
2.63115
2.63121
2.63126
2.6313
2.63134
2.63137
2.6314
2.63143
2.63145
2.63147
2.63149
2.6315
2.63151
2.63152
2.63153
2.63153
2.63154
2.63154
2.63154
2.63154
2.63153
2.63153
2.63152
2.63151
2.6315
2.63149
2.63147
2.63145
2.63143
2.6314
2.63137
2.63134
2.6313
2.63126
2.63121
2.63115
2.63108
2.63101
2.63093
2.63084
2.63074
2.63062
2.6305
2.63036
2.63022
2.63007
2.62992
2.6298
3.08706
3.08721
3.08739
3.08758
3.08776
3.08793
3.08808
3.08822
3.08834
3.08846
3.08856
3.08865
3.08873
3.0888
3.08886
3.08892
3.08897
3.08901
3.08904
3.08908
3.0891
3.08913
3.08915
3.08916
3.08918
3.08919
3.0892
3.0892
3.08921
3.08921
3.08921
3.08921
3.0892
3.0892
3.08919
3.08918
3.08916
3.08915
3.08913
3.0891
3.08908
3.08904
3.08901
3.08897
3.08892
3.08886
3.0888
3.08873
3.08865
3.08856
3.08846
3.08834
3.08822
3.08808
3.08793
3.08776
3.08758
3.08739
3.08721
3.08706
3.55347
3.55365
3.55387
3.55409
3.5543
3.5545
3.55469
3.55485
3.555
3.55514
3.55526
3.55537
3.55546
3.55555
3.55562
3.55569
3.55574
3.55579
3.55584
3.55588
3.55591
3.55594
3.55596
3.55598
3.556
3.55601
3.55602
3.55603
3.55603
3.55604
3.55604
3.55603
3.55603
3.55602
3.55601
3.556
3.55598
3.55596
3.55594
3.55591
3.55588
3.55584
3.55579
3.55574
3.55569
3.55562
3.55555
3.55546
3.55537
3.55526
3.55514
3.555
3.55485
3.55469
3.5545
3.5543
3.55409
3.55387
3.55365
3.55347
4.02939
4.0296
4.02985
4.03011
4.03036
4.03059
4.03081
4.031
4.03118
4.03133
4.03147
4.0316
4.03171
4.03181
4.0319
4.03197
4.03204
4.0321
4.03215
4.03219
4.03223
4.03226
4.03229
4.03232
4.03233
4.03235
4.03236
4.03237
4.03238
4.03238
4.03238
4.03238
4.03237
4.03236
4.03235
4.03233
4.03232
4.03229
4.03226
4.03223
4.03219
4.03215
4.0321
4.03204
4.03197
4.0319
4.03181
4.03171
4.0316
4.03147
4.03133
4.03118
4.031
4.03081
4.03059
4.03036
4.03011
4.02985
4.0296
4.02939
4.51496
4.51519
4.51548
4.51578
4.51606
4.51633
4.51657
4.51679
4.51699
4.51717
4.51733
4.51748
4.51761
4.51772
4.51782
4.51791
4.51798
4.51805
4.51811
4.51816
4.5182
4.51824
4.51827
4.5183
4.51832
4.51834
4.51835
4.51836
4.51837
4.51837
4.51837
4.51837
4.51836
4.51835
4.51834
4.51832
4.5183
4.51827
4.51824
4.5182
4.51816
4.51811
4.51805
4.51798
4.51791
4.51782
4.51772
4.51761
4.51748
4.51733
4.51717
4.51699
4.51679
4.51657
4.51633
4.51606
4.51578
4.51548
4.51519
4.51496
5.01018
5.01045
5.01077
5.01111
5.01143
5.01173
5.012
5.01225
5.01248
5.01268
5.01286
5.01302
5.01317
5.01329
5.01341
5.0135
5.01359
5.01367
5.01373
5.01379
5.01384
5.01388
5.01391
5.01394
5.01397
5.01399
5.014
5.01402
5.01402
5.01403
5.01403
5.01402
5.01402
5.014
5.01399
5.01397
5.01394
5.01391
5.01388
5.01384
5.01379
5.01373
5.01367
5.01359
5.0135
5.01341
5.01329
5.01317
5.01302
5.01286
5.01268
5.01248
5.01225
5.012
5.01173
5.01143
5.01111
5.01077
5.01045
5.01018
5.51504
5.51533
5.51569
5.51607
5.51643
5.51676
5.51706
5.51734
5.51759
5.51781
5.51802
5.5182
5.51836
5.5185
5.51862
5.51873
5.51883
5.51891
5.51899
5.51905
5.5191
5.51915
5.51919
5.51922
5.51925
5.51927
5.51929
5.5193
5.51931
5.51931
5.51931
5.51931
5.5193
5.51929
5.51927
5.51925
5.51922
5.51919
5.51915
5.5191
5.51905
5.51899
5.51891
5.51883
5.51873
5.51862
5.5185
5.51836
5.5182
5.51802
5.51781
5.51759
5.51734
5.51706
5.51676
5.51643
5.51607
5.51569
5.51533
5.51504
6.02945
6.02976
6.03017
6.03058
6.03097
6.03134
6.03167
6.03198
6.03225
6.0325
6.03272
6.03292
6.0331
6.03325
6.03339
6.03351
6.03362
6.03371
6.03379
6.03386
6.03392
6.03397
6.03402
6.03405
6.03408
6.03411
6.03413
6.03414
6.03415
6.03415
6.03415
6.03415
6.03414
6.03413
6.03411
6.03408
6.03405
6.03402
6.03397
6.03392
6.03386
6.03379
6.03371
6.03362
6.03351
6.03339
6.03325
6.0331
6.03292
6.03272
6.0325
6.03225
6.03198
6.03167
6.03134
6.03097
6.03058
6.03017
6.02976
6.02945
6.55329
6.55364
6.55408
6.55452
6.55495
6.55535
6.55572
6.55605
6.55635
6.55663
6.55687
6.55708
6.55728
6.55745
6.5576
6.55773
6.55785
6.55795
6.55803
6.55811
6.55818
6.55823
6.55828
6.55832
6.55835
6.55838
6.5584
6.55842
6.55843
6.55843
6.55843
6.55843
6.55842
6.5584
6.55838
6.55835
6.55832
6.55828
6.55823
6.55818
6.55811
6.55803
6.55795
6.55785
6.55773
6.5576
6.55745
6.55728
6.55708
6.55687
6.55663
6.55635
6.55605
6.55572
6.55535
6.55495
6.55452
6.55408
6.55364
6.55329
7.08642
7.08679
7.08727
7.08776
7.08822
7.08866
7.08905
7.08942
7.08974
7.09004
7.0903
7.09053
7.09074
7.09093
7.09109
7.09123
7.09136
7.09147
7.09156
7.09165
7.09172
7.09178
7.09183
7.09187
7.09191
7.09194
7.09196
7.09198
7.09199
7.09199
7.09199
7.09199
7.09198
7.09196
7.09194
7.09191
7.09187
7.09183
7.09178
7.09172
7.09165
7.09156
7.09147
7.09136
7.09123
7.09109
7.09093
7.09074
7.09053
7.0903
7.09004
7.08974
7.08942
7.08905
7.08866
7.08822
7.08776
7.08727
7.08679
7.08642
7.62864
7.62905
7.62956
7.63008
7.63059
7.63105
7.63148
7.63187
7.63222
7.63254
7.63282
7.63308
7.6333
7.6335
7.63367
7.63383
7.63396
7.63408
7.63419
7.63427
7.63435
7.63442
7.63447
7.63452
7.63456
7.63459
7.63461
7.63463
7.63464
7.63465
7.63465
7.63464
7.63463
7.63461
7.63459
7.63456
7.63452
7.63447
7.63442
7.63435
7.63427
7.63419
7.63408
7.63396
7.63383
7.63367
7.6335
7.6333
7.63308
7.63282
7.63254
7.63222
7.63187
7.63148
7.63105
7.63059
7.63008
7.62956
7.62905
7.62864
8.17972
8.18016
8.18071
8.18127
8.18181
8.18231
8.18276
8.18318
8.18356
8.1839
8.1842
8.18447
8.18471
8.18493
8.18511
8.18528
8.18543
8.18555
8.18566
8.18576
8.18584
8.18591
8.18597
8.18602
8.18606
8.18609
8.18612
8.18614
8.18615
8.18616
8.18616
8.18615
8.18614
8.18612
8.18609
8.18606
8.18602
8.18597
8.18591
8.18584
8.18576
8.18566
8.18555
8.18543
8.18528
8.18511
8.18493
8.18471
8.18447
8.1842
8.1839
8.18356
8.18318
8.18276
8.18231
8.18181
8.18127
8.18071
8.18016
8.17972
8.73937
8.73983
8.74042
8.74102
8.74159
8.74213
8.74261
8.74306
8.74346
8.74382
8.74415
8.74444
8.74469
8.74492
8.74512
8.7453
8.74545
8.74559
8.7457
8.74581
8.74589
8.74597
8.74603
8.74609
8.74613
8.74617
8.74619
8.74621
8.74623
8.74623
8.74623
8.74623
8.74621
8.74619
8.74617
8.74613
8.74609
8.74603
8.74597
8.74589
8.74581
8.7457
8.74559
8.74545
8.7453
8.74512
8.74492
8.74469
8.74444
8.74415
8.74382
8.74346
8.74306
8.74261
8.74213
8.74159
8.74102
8.74042
8.73983
8.73937
9.30725
9.30774
9.30836
9.30899
9.3096
9.31017
9.31069
9.31116
9.31159
9.31197
9.31231
9.31262
9.31289
9.31313
9.31335
9.31353
9.3137
9.31384
9.31397
9.31407
9.31417
9.31425
9.31431
9.31437
9.31442
9.31446
9.31448
9.31451
9.31452
9.31453
9.31453
9.31452
9.31451
9.31448
9.31446
9.31442
9.31437
9.31431
9.31425
9.31417
9.31407
9.31397
9.31384
9.3137
9.31353
9.31335
9.31313
9.31289
9.31262
9.31231
9.31197
9.31159
9.31116
9.31069
9.31017
9.3096
9.30899
9.30836
9.30774
9.30725
9.88294
9.88346
9.88411
9.88479
9.88543
9.88603
9.88658
9.88707
9.88753
9.88793
9.88829
9.88862
9.88891
9.88916
9.88939
9.88958
9.88976
9.88991
9.89004
9.89015
9.89025
9.89034
9.89041
9.89047
9.89052
9.89056
9.89059
9.89061
9.89063
9.89063
9.89063
9.89063
9.89061
9.89059
9.89056
9.89052
9.89047
9.89041
9.89034
9.89025
9.89015
9.89004
9.88991
9.88976
9.88958
9.88939
9.88916
9.88891
9.88862
9.88829
9.88793
9.88753
9.88707
9.88658
9.88603
9.88543
9.88479
9.88411
9.88346
9.88294
10.466
10.4665
10.4672
10.4679
10.4686
10.4692
10.4698
10.4703
10.4708
10.4712
10.4716
10.4719
10.4723
10.4725
10.4728
10.473
10.4731
10.4733
10.4734
10.4736
10.4737
10.4738
10.4738
10.4739
10.4739
10.474
10.474
10.474
10.4741
10.4741
10.4741
10.4741
10.474
10.474
10.474
10.4739
10.4739
10.4738
10.4738
10.4737
10.4736
10.4734
10.4733
10.4731
10.473
10.4728
10.4725
10.4723
10.4719
10.4716
10.4712
10.4708
10.4703
10.4698
10.4692
10.4686
10.4679
10.4672
10.4665
10.466
11.0558
11.0564
11.0571
11.0578
11.0585
11.0592
11.0598
11.0603
11.0608
11.0613
11.0617
11.062
11.0624
11.0626
11.0629
11.0631
11.0633
11.0635
11.0636
11.0637
11.0639
11.0639
11.064
11.0641
11.0641
11.0642
11.0642
11.0642
11.0643
11.0643
11.0643
11.0643
11.0642
11.0642
11.0642
11.0641
11.0641
11.064
11.0639
11.0639
11.0637
11.0636
11.0635
11.0633
11.0631
11.0629
11.0626
11.0624
11.062
11.0617
11.0613
11.0608
11.0603
11.0598
11.0592
11.0585
11.0578
11.0571
11.0564
11.0558
11.6517
11.6523
11.6531
11.6539
11.6546
11.6553
11.6559
11.6565
11.657
11.6575
11.6579
11.6583
11.6586
11.6589
11.6592
11.6594
11.6596
11.6598
11.6599
11.66
11.6602
11.6603
11.6603
11.6604
11.6605
11.6605
11.6605
11.6606
11.6606
11.6606
11.6606
11.6606
11.6606
11.6605
11.6605
11.6605
11.6604
11.6603
11.6603
11.6602
11.66
11.6599
11.6598
11.6596
11.6594
11.6592
11.6589
11.6586
11.6583
11.6579
11.6575
11.657
11.6565
11.6559
11.6553
11.6546
11.6539
11.6531
11.6523
11.6517
12.2531
12.2537
12.2545
12.2553
12.256
12.2568
12.2574
12.258
12.2586
12.259
12.2595
12.2599
12.2602
12.2605
12.2608
12.261
12.2612
12.2614
12.2616
12.2617
12.2618
12.2619
12.262
12.2621
12.2621
12.2622
12.2622
12.2623
12.2623
12.2623
12.2623
12.2623
12.2623
12.2622
12.2622
12.2621
12.2621
12.262
12.2619
12.2618
12.2617
12.2616
12.2614
12.2612
12.261
12.2608
12.2605
12.2602
12.2599
12.2595
12.259
12.2586
12.258
12.2574
12.2568
12.256
12.2553
12.2545
12.2537
12.2531
12.8589
12.8595
12.8604
12.8612
12.862
12.8627
12.8634
12.864
12.8646
12.8651
12.8656
12.866
12.8663
12.8666
12.8669
12.8672
12.8674
12.8676
12.8677
12.8679
12.868
12.8681
12.8682
12.8683
12.8683
12.8684
12.8684
12.8684
12.8685
12.8685
12.8685
12.8685
12.8684
12.8684
12.8684
12.8683
12.8683
12.8682
12.8681
12.868
12.8679
12.8677
12.8676
12.8674
12.8672
12.8669
12.8666
12.8663
12.866
12.8656
12.8651
12.8646
12.864
12.8634
12.8627
12.862
12.8612
12.8604
12.8595
12.8589
13.4683
13.4689
13.4698
13.4706
13.4715
13.4722
13.4729
13.4736
13.4741
13.4747
13.4751
13.4755
13.4759
13.4762
13.4765
13.4768
13.477
13.4772
13.4774
13.4775
13.4776
13.4778
13.4778
13.4779
13.478
13.478
13.4781
13.4781
13.4781
13.4781
13.4781
13.4781
13.4781
13.4781
13.478
13.478
13.4779
13.4778
13.4778
13.4776
13.4775
13.4774
13.4772
13.477
13.4768
13.4765
13.4762
13.4759
13.4755
13.4751
13.4747
13.4741
13.4736
13.4729
13.4722
13.4715
13.4706
13.4698
13.4689
13.4683
14.08
14.0807
14.0815
14.0824
14.0833
14.0841
14.0848
14.0854
14.086
14.0866
14.0871
14.0875
14.0879
14.0882
14.0885
14.0888
14.089
14.0892
14.0894
14.0895
14.0896
14.0898
14.0898
14.0899
14.09
14.09
14.0901
14.0901
14.0901
14.0901
14.0901
14.0901
14.0901
14.0901
14.09
14.09
14.0899
14.0898
14.0898
14.0896
14.0895
14.0894
14.0892
14.089
14.0888
14.0885
14.0882
14.0879
14.0875
14.0871
14.0866
14.086
14.0854
14.0848
14.0841
14.0833
14.0824
14.0815
14.0807
14.08
14.6927
14.6934
14.6943
14.6952
14.6961
14.6969
14.6977
14.6983
14.699
14.6995
14.7
14.7004
14.7008
14.7012
14.7015
14.7017
14.702
14.7022
14.7024
14.7025
14.7026
14.7028
14.7029
14.7029
14.703
14.7031
14.7031
14.7031
14.7032
14.7032
14.7032
14.7032
14.7031
14.7031
14.7031
14.703
14.7029
14.7029
14.7028
14.7026
14.7025
14.7024
14.7022
14.702
14.7017
14.7015
14.7012
14.7008
14.7004
14.7
14.6995
14.699
14.6983
14.6977
14.6969
14.6961
14.6952
14.6943
14.6934
14.6927
15.305
15.3057
15.3067
15.3076
15.3085
15.3093
15.3101
15.3107
15.3114
15.3119
15.3124
15.3129
15.3133
15.3136
15.3139
15.3142
15.3145
15.3147
15.3148
15.315
15.3151
15.3153
15.3154
15.3154
15.3155
15.3156
15.3156
15.3156
15.3157
15.3157
15.3157
15.3157
15.3156
15.3156
15.3156
15.3155
15.3154
15.3154
15.3153
15.3151
15.315
15.3148
15.3147
15.3145
15.3142
15.3139
15.3136
15.3133
15.3129
15.3124
15.3119
15.3114
15.3107
15.3101
15.3093
15.3085
15.3076
15.3067
15.3057
15.305
15.9151
15.9158
15.9167
15.9177
15.9186
15.9194
15.9202
15.9209
15.9215
15.9221
15.9226
15.9231
15.9235
15.9238
15.9241
15.9244
15.9247
15.9249
15.9251
15.9252
15.9254
15.9255
15.9256
15.9257
15.9257
15.9258
15.9258
15.9259
15.9259
15.9259
15.9259
15.9259
15.9259
15.9258
15.9258
15.9257
15.9257
15.9256
15.9255
15.9254
15.9252
15.9251
15.9249
15.9247
15.9244
15.9241
15.9238
15.9235
15.9231
15.9226
15.9221
15.9215
15.9209
15.9202
15.9194
15.9186
15.9177
15.9167
15.9158
15.9151
16.5208
16.5216
16.5225
16.5235
16.5244
16.5253
16.526
16.5267
16.5274
16.528
16.5285
16.5289
16.5293
16.5297
16.53
16.5303
16.5305
16.5308
16.5309
16.5311
16.5312
16.5314
16.5315
16.5316
16.5316
16.5317
16.5317
16.5318
16.5318
16.5318
16.5318
16.5318
16.5318
16.5317
16.5317
16.5316
16.5316
16.5315
16.5314
16.5312
16.5311
16.5309
16.5308
16.5305
16.5303
16.53
16.5297
16.5293
16.5289
16.5285
16.528
16.5274
16.5267
16.526
16.5253
16.5244
16.5235
16.5225
16.5216
16.5208
17.12
17.1208
17.1217
17.1227
17.1236
17.1244
17.1252
17.1259
17.1266
17.1272
17.1277
17.1281
17.1285
17.1289
17.1292
17.1295
17.1298
17.13
17.1302
17.1303
17.1305
17.1306
17.1307
17.1308
17.1308
17.1309
17.1309
17.131
17.131
17.131
17.131
17.131
17.131
17.1309
17.1309
17.1308
17.1308
17.1307
17.1306
17.1305
17.1303
17.1302
17.13
17.1298
17.1295
17.1292
17.1289
17.1285
17.1281
17.1277
17.1272
17.1266
17.1259
17.1252
17.1244
17.1236
17.1227
17.1217
17.1208
17.12
17.7098
17.7106
17.7115
17.7125
17.7134
17.7142
17.715
17.7157
17.7164
17.7169
17.7174
17.7179
17.7183
17.7187
17.719
17.7193
17.7195
17.7197
17.7199
17.7201
17.7202
17.7203
17.7205
17.7205
17.7206
17.7207
17.7207
17.7207
17.7208
17.7208
17.7208
17.7208
17.7207
17.7207
17.7207
17.7206
17.7205
17.7205
17.7203
17.7202
17.7201
17.7199
17.7197
17.7195
17.7193
17.719
17.7187
17.7183
17.7179
17.7174
17.7169
17.7164
17.7157
17.715
17.7142
17.7134
17.7125
17.7115
17.7106
17.7098
18.287
18.2878
18.2887
18.2896
18.2906
18.2914
18.2922
18.2929
18.2935
18.2941
18.2946
18.295
18.2954
18.2958
18.2961
18.2964
18.2966
18.2968
18.297
18.2972
18.2973
18.2975
18.2976
18.2976
18.2977
18.2978
18.2978
18.2978
18.2979
18.2979
18.2979
18.2979
18.2978
18.2978
18.2978
18.2977
18.2976
18.2976
18.2975
18.2973
18.2972
18.297
18.2968
18.2966
18.2964
18.2961
18.2958
18.2954
18.295
18.2946
18.2941
18.2935
18.2929
18.2922
18.2914
18.2906
18.2896
18.2887
18.2878
18.287
18.8478
18.8486
18.8495
18.8504
18.8513
18.8521
18.8529
18.8536
18.8542
18.8548
18.8553
18.8557
18.8561
18.8565
18.8568
18.857
18.8573
18.8575
18.8577
18.8578
18.858
18.8581
18.8582
18.8583
18.8583
18.8584
18.8584
18.8585
18.8585
18.8585
18.8585
18.8585
18.8585
18.8584
18.8584
18.8583
18.8583
18.8582
18.8581
18.858
18.8578
18.8577
18.8575
18.8573
18.857
18.8568
18.8565
18.8561
18.8557
18.8553
18.8548
18.8542
18.8536
18.8529
18.8521
18.8513
18.8504
18.8495
18.8486
18.8478
19.3878
19.3885
19.3894
19.3903
19.3912
19.392
19.3927
19.3934
19.394
19.3945
19.395
19.3954
19.3958
19.3961
19.3964
19.3967
19.3969
19.3971
19.3973
19.3975
19.3976
19.3977
19.3978
19.3979
19.3979
19.398
19.398
19.3981
19.3981
19.3981
19.3981
19.3981
19.3981
19.398
19.398
19.3979
19.3979
19.3978
19.3977
19.3976
19.3975
19.3973
19.3971
19.3969
19.3967
19.3964
19.3961
19.3958
19.3954
19.395
19.3945
19.394
19.3934
19.3927
19.392
19.3912
19.3903
19.3894
19.3885
19.3878
19.9015
19.9022
19.9031
19.9039
19.9047
19.9055
19.9062
19.9068
19.9074
19.9079
19.9084
19.9088
19.9092
19.9095
19.9098
19.91
19.9102
19.9104
19.9106
19.9107
19.9109
19.911
19.9111
19.9111
19.9112
19.9112
19.9113
19.9113
19.9113
19.9113
19.9113
19.9113
19.9113
19.9113
19.9112
19.9112
19.9111
19.9111
19.911
19.9109
19.9107
19.9106
19.9104
19.9102
19.91
19.9098
19.9095
19.9092
19.9088
19.9084
19.9079
19.9074
19.9068
19.9062
19.9055
19.9047
19.9039
19.9031
19.9022
19.9015
20.3828
20.3834
20.3842
20.385
20.3858
20.3865
20.3871
20.3877
20.3883
20.3887
20.3892
20.3896
20.3899
20.3902
20.3905
20.3907
20.3909
20.3911
20.3912
20.3914
20.3915
20.3916
20.3917
20.3917
20.3918
20.3918
20.3919
20.3919
20.3919
20.3919
20.3919
20.3919
20.3919
20.3919
20.3918
20.3918
20.3917
20.3917
20.3916
20.3915
20.3914
20.3912
20.3911
20.3909
20.3907
20.3905
20.3902
20.3899
20.3896
20.3892
20.3887
20.3883
20.3877
20.3871
20.3865
20.3858
20.385
20.3842
20.3834
20.3828
20.8245
20.8251
20.8258
20.8266
20.8272
20.8279
20.8285
20.829
20.8295
20.8299
20.8303
20.8307
20.831
20.8312
20.8315
20.8317
20.8319
20.832
20.8322
20.8323
20.8324
20.8325
20.8326
20.8326
20.8327
20.8327
20.8327
20.8328
20.8328
20.8328
20.8328
20.8328
20.8328
20.8327
20.8327
20.8327
20.8326
20.8326
20.8325
20.8324
20.8323
20.8322
20.832
20.8319
20.8317
20.8315
20.8312
20.831
20.8307
20.8303
20.8299
20.8295
20.829
20.8285
20.8279
20.8272
20.8266
20.8258
20.8251
20.8245
21.2195
21.22
21.2207
21.2213
21.2219
21.2225
21.223
21.2234
21.2239
21.2242
21.2246
21.2249
21.2251
21.2254
21.2256
21.2258
21.2259
21.2261
21.2262
21.2263
21.2264
21.2265
21.2265
21.2266
21.2266
21.2267
21.2267
21.2267
21.2267
21.2267
21.2267
21.2267
21.2267
21.2267
21.2267
21.2266
21.2266
21.2265
21.2265
21.2264
21.2263
21.2262
21.2261
21.2259
21.2258
21.2256
21.2254
21.2251
21.2249
21.2246
21.2242
21.2239
21.2234
21.223
21.2225
21.2219
21.2213
21.2207
21.22
21.2195
21.5618
21.5622
21.5628
21.5633
21.5638
21.5643
21.5647
21.5651
21.5654
21.5657
21.566
21.5663
21.5665
21.5667
21.5669
21.567
21.5671
21.5673
21.5674
21.5674
21.5675
21.5676
21.5676
21.5677
21.5677
21.5678
21.5678
21.5678
21.5678
21.5678
21.5678
21.5678
21.5678
21.5678
21.5678
21.5677
21.5677
21.5676
21.5676
21.5675
21.5674
21.5674
21.5673
21.5671
21.567
21.5669
21.5667
21.5665
21.5663
21.566
21.5657
21.5654
21.5651
21.5647
21.5643
21.5638
21.5633
21.5628
21.5622
21.5618
21.8486
21.8489
21.8493
21.8498
21.8501
21.8505
21.8509
21.8512
21.8514
21.8517
21.8519
21.8521
21.8523
21.8524
21.8526
21.8527
21.8528
21.8529
21.853
21.853
21.8531
21.8532
21.8532
21.8532
21.8533
21.8533
21.8533
21.8533
21.8533
21.8533
21.8533
21.8533
21.8533
21.8533
21.8533
21.8533
21.8532
21.8532
21.8532
21.8531
21.853
21.853
21.8529
21.8528
21.8527
21.8526
21.8524
21.8523
21.8521
21.8519
21.8517
21.8514
21.8512
21.8509
21.8505
21.8501
21.8498
21.8493
21.8489
21.8486
22.0818
22.082
22.0823
22.0826
22.0829
22.0832
22.0835
22.0837
22.0839
22.0841
22.0843
22.0844
22.0845
22.0847
22.0848
22.0848
22.0849
22.085
22.0851
22.0851
22.0852
22.0852
22.0852
22.0853
22.0853
22.0853
22.0853
22.0853
22.0853
22.0853
22.0853
22.0853
22.0853
22.0853
22.0853
22.0853
22.0853
22.0852
22.0852
22.0852
22.0851
22.0851
22.085
22.0849
22.0848
22.0848
22.0847
22.0845
22.0844
22.0843
22.0841
22.0839
22.0837
22.0835
22.0832
22.0829
22.0826
22.0823
22.082
22.0818
22.2679
22.2681
22.2683
22.2685
22.2687
22.2689
22.2691
22.2693
22.2694
22.2696
22.2697
22.2698
22.2699
22.27
22.2701
22.2701
22.2702
22.2702
22.2703
22.2703
22.2703
22.2704
22.2704
22.2704
22.2704
22.2704
22.2704
22.2705
22.2705
22.2705
22.2705
22.2705
22.2705
22.2704
22.2704
22.2704
22.2704
22.2704
22.2704
22.2703
22.2703
22.2703
22.2702
22.2702
22.2701
22.2701
22.27
22.2699
22.2698
22.2697
22.2696
22.2694
22.2693
22.2691
22.2689
22.2687
22.2685
22.2683
22.2681
22.2679
22.4163
22.4164
22.4166
22.4167
22.4169
22.417
22.4172
22.4173
22.4174
22.4175
22.4176
22.4176
22.4177
22.4178
22.4178
22.4179
22.4179
22.4179
22.418
22.418
22.418
22.418
22.418
22.4181
22.4181
22.4181
22.4181
22.4181
22.4181
22.4181
22.4181
22.4181
22.4181
22.4181
22.4181
22.4181
22.4181
22.418
22.418
22.418
22.418
22.418
22.4179
22.4179
22.4179
22.4178
22.4178
22.4177
22.4176
22.4176
22.4175
22.4174
22.4173
22.4172
22.417
22.4169
22.4167
22.4166
22.4164
22.4163
22.5365
22.5366
22.5367
22.5368
22.5369
22.537
22.5371
22.5372
22.5372
22.5373
22.5374
22.5374
22.5375
22.5375
22.5375
22.5376
22.5376
22.5376
22.5376
22.5377
22.5377
22.5377
22.5377
22.5377
22.5377
22.5377
22.5377
22.5377
22.5377
22.5377
22.5377
22.5377
22.5377
22.5377
22.5377
22.5377
22.5377
22.5377
22.5377
22.5377
22.5377
22.5376
22.5376
22.5376
22.5376
22.5375
22.5375
22.5375
22.5374
22.5374
22.5373
22.5372
22.5372
22.5371
22.537
22.5369
22.5368
22.5367
22.5366
22.5365
22.6365
22.6365
22.6366
22.6367
22.6368
22.6368
22.6369
22.6369
22.637
22.637
22.6371
22.6371
22.6371
22.6372
22.6372
22.6372
22.6372
22.6372
22.6373
22.6373
22.6373
22.6373
22.6373
22.6373
22.6373
22.6373
22.6373
22.6373
22.6373
22.6373
22.6373
22.6373
22.6373
22.6373
22.6373
22.6373
22.6373
22.6373
22.6373
22.6373
22.6373
22.6373
22.6372
22.6372
22.6372
22.6372
22.6372
22.6371
22.6371
22.6371
22.637
22.637
22.6369
22.6369
22.6368
22.6368
22.6367
22.6366
22.6365
22.6365
22.7221
22.7222
22.7222
22.7223
22.7223
22.7224
22.7224
22.7224
22.7225
22.7225
22.7225
22.7226
22.7226
22.7226
22.7226
22.7226
22.7226
22.7226
22.7227
22.7227
22.7227
22.7227
22.7227
22.7227
22.7227
22.7227
22.7227
22.7227
22.7227
22.7227
22.7227
22.7227
22.7227
22.7227
22.7227
22.7227
22.7227
22.7227
22.7227
22.7227
22.7227
22.7227
22.7226
22.7226
22.7226
22.7226
22.7226
22.7226
22.7226
22.7225
22.7225
22.7225
22.7224
22.7224
22.7224
22.7223
22.7223
22.7222
22.7222
22.7221
22.7974
22.7974
22.7975
22.7975
22.7975
22.7976
22.7976
22.7976
22.7976
22.7977
22.7977
22.7977
22.7977
22.7977
22.7977
22.7977
22.7977
22.7978
22.7978
22.7978
22.7978
22.7978
22.7978
22.7978
22.7978
22.7978
22.7978
22.7978
22.7978
22.7978
22.7978
22.7978
22.7978
22.7978
22.7978
22.7978
22.7978
22.7978
22.7978
22.7978
22.7978
22.7978
22.7978
22.7977
22.7977
22.7977
22.7977
22.7977
22.7977
22.7977
22.7977
22.7976
22.7976
22.7976
22.7976
22.7975
22.7975
22.7975
22.7974
22.7974
22.865
22.865
22.865
22.865
22.8651
22.8651
22.8651
22.8651
22.8651
22.8651
22.8651
22.8652
22.8652
22.8652
22.8652
22.8652
22.8652
22.8652
22.8652
22.8652
22.8652
22.8652
22.8652
22.8652
22.8652
22.8652
22.8652
22.8652
22.8652
22.8652
22.8652
22.8652
22.8652
22.8652
22.8652
22.8652
22.8652
22.8652
22.8652
22.8652
22.8652
22.8652
22.8652
22.8652
22.8652
22.8652
22.8652
22.8652
22.8652
22.8651
22.8651
22.8651
22.8651
22.8651
22.8651
22.8651
22.865
22.865
22.865
22.865
22.9266
22.9266
22.9266
22.9266
22.9266
22.9266
22.9266
22.9267
22.9267
22.9267
22.9267
22.9267
22.9267
22.9267
22.9267
22.9267
22.9267
22.9267
22.9267
22.9267
22.9267
22.9267
22.9267
22.9267
22.9267
22.9267
22.9267
22.9267
22.9267
22.9267
22.9267
22.9267
22.9267
22.9267
22.9267
22.9267
22.9267
22.9267
22.9267
22.9267
22.9267
22.9267
22.9267
22.9267
22.9267
22.9267
22.9267
22.9267
22.9267
22.9267
22.9267
22.9267
22.9267
22.9266
22.9266
22.9266
22.9266
22.9266
22.9266
22.9266
22.9834
22.9834
22.9834
22.9834
22.9834
22.9834
22.9834
22.9834
22.9835
22.9835
22.9835
22.9835
22.9834
22.9834
22.9834
22.9834
22.9834
22.9834
22.9834
22.9834
22.9834
22.9834
22.9834
22.9834
22.9834
22.9834
22.9834
22.9834
22.9834
22.9834
22.9834
22.9834
22.9834
22.9834
22.9834
22.9834
22.9834
22.9834
22.9834
22.9834
22.9834
22.9834
22.9834
22.9834
22.9834
22.9834
22.9834
22.9834
22.9835
22.9835
22.9835
22.9835
22.9834
22.9834
22.9834
22.9834
22.9834
22.9834
22.9834
22.9834
23.0364
23.0364
23.0364
23.0364
23.0364
23.0364
23.0364
23.0364
23.0364
23.0364
23.0364
23.0364
23.0364
23.0364
23.0363
23.0363
23.0363
23.0363
23.0363
23.0363
23.0363
23.0363
23.0363
23.0363
23.0363
23.0363
23.0363
23.0363
23.0363
23.0363
23.0363
23.0363
23.0363
23.0363
23.0363
23.0363
23.0363
23.0363
23.0363
23.0363
23.0363
23.0363
23.0363
23.0363
23.0363
23.0363
23.0364
23.0364
23.0364
23.0364
23.0364
23.0364
23.0364
23.0364
23.0364
23.0364
23.0364
23.0364
23.0364
23.0364
23.0861
23.0861
23.0861
23.0861
23.0861
23.0861
23.0861
23.0861
23.0861
23.0861
23.0861
23.086
23.086
23.086
23.086
23.086
23.086
23.086
23.086
23.086
23.086
23.086
23.086
23.086
23.086
23.086
23.086
23.086
23.086
23.086
23.086
23.086
23.086
23.086
23.086
23.086
23.086
23.086
23.086
23.086
23.086
23.086
23.086
23.086
23.086
23.086
23.086
23.086
23.086
23.0861
23.0861
23.0861
23.0861
23.0861
23.0861
23.0861
23.0861
23.0861
23.0861
23.0861
23.1331
23.1331
23.1331
23.1331
23.1331
23.1331
23.1331
23.1331
23.133
23.133
23.133
23.133
23.133
23.133
23.133
23.133
23.133
23.133
23.133
23.133
23.133
23.133
23.133
23.133
23.133
23.133
23.133
23.133
23.133
23.133
23.133
23.133
23.133
23.133
23.133
23.133
23.133
23.133
23.133
23.133
23.133
23.133
23.133
23.133
23.133
23.133
23.133
23.133
23.133
23.133
23.133
23.133
23.1331
23.1331
23.1331
23.1331
23.1331
23.1331
23.1331
23.1331
23.1778
23.1778
23.1778
23.1778
23.1777
23.1777
23.1777
23.1777
23.1777
23.1777
23.1777
23.1777
23.1777
23.1776
23.1776
23.1776
23.1776
23.1776
23.1776
23.1776
23.1776
23.1776
23.1776
23.1776
23.1776
23.1776
23.1776
23.1776
23.1776
23.1776
23.1776
23.1776
23.1776
23.1776
23.1776
23.1776
23.1776
23.1776
23.1776
23.1776
23.1776
23.1776
23.1776
23.1776
23.1776
23.1776
23.1776
23.1777
23.1777
23.1777
23.1777
23.1777
23.1777
23.1777
23.1777
23.1777
23.1778
23.1778
23.1778
23.1778
23.2205
23.2205
23.2204
23.2204
23.2204
23.2204
23.2204
23.2204
23.2203
23.2203
23.2203
23.2203
23.2203
23.2203
23.2203
23.2203
23.2203
23.2202
23.2202
23.2202
23.2202
23.2202
23.2202
23.2202
23.2202
23.2202
23.2202
23.2202
23.2202
23.2202
23.2202
23.2202
23.2202
23.2202
23.2202
23.2202
23.2202
23.2202
23.2202
23.2202
23.2202
23.2202
23.2202
23.2203
23.2203
23.2203
23.2203
23.2203
23.2203
23.2203
23.2203
23.2203
23.2204
23.2204
23.2204
23.2204
23.2204
23.2204
23.2205
23.2205
23.2614
23.2614
23.2613
23.2613
23.2613
23.2613
23.2613
23.2613
23.2612
23.2612
23.2612
23.2612
23.2612
23.2612
23.2612
23.2611
23.2611
23.2611
23.2611
23.2611
23.2611
23.2611
23.2611
23.2611
23.2611
23.2611
23.2611
23.2611
23.2611
23.2611
23.2611
23.2611
23.2611
23.2611
23.2611
23.2611
23.2611
23.2611
23.2611
23.2611
23.2611
23.2611
23.2611
23.2611
23.2611
23.2612
23.2612
23.2612
23.2612
23.2612
23.2612
23.2612
23.2613
23.2613
23.2613
23.2613
23.2613
23.2613
23.2614
23.2614
23.3007
23.3007
23.3007
23.3007
23.3007
23.3007
23.3006
23.3006
23.3006
23.3006
23.3006
23.3006
23.3005
23.3005
23.3005
23.3005
23.3005
23.3005
23.3005
23.3005
23.3005
23.3005
23.3005
23.3005
23.3005
23.3005
23.3005
23.3005
23.3005
23.3005
23.3005
23.3005
23.3005
23.3005
23.3005
23.3005
23.3005
23.3005
23.3005
23.3005
23.3005
23.3005
23.3005
23.3005
23.3005
23.3005
23.3005
23.3005
23.3006
23.3006
23.3006
23.3006
23.3006
23.3006
23.3007
23.3007
23.3007
23.3007
23.3007
23.3007
23.3388
23.3388
23.3387
23.3387
23.3387
23.3387
23.3387
23.3386
23.3386
23.3386
23.3386
23.3386
23.3386
23.3385
23.3385
23.3385
23.3385
23.3385
23.3385
23.3385
23.3385
23.3385
23.3385
23.3385
23.3385
23.3385
23.3385
23.3385
23.3385
23.3385
23.3385
23.3385
23.3385
23.3385
23.3385
23.3385
23.3385
23.3385
23.3385
23.3385
23.3385
23.3385
23.3385
23.3385
23.3385
23.3385
23.3385
23.3386
23.3386
23.3386
23.3386
23.3386
23.3386
23.3387
23.3387
23.3387
23.3387
23.3387
23.3388
23.3388
23.3756
23.3756
23.3756
23.3755
23.3755
23.3755
23.3755
23.3755
23.3754
23.3754
23.3754
23.3754
23.3754
23.3754
23.3753
23.3753
23.3753
23.3753
23.3753
23.3753
23.3753
23.3753
23.3753
23.3753
23.3753
23.3753
23.3753
23.3753
23.3753
23.3753
23.3753
23.3753
23.3753
23.3753
23.3753
23.3753
23.3753
23.3753
23.3753
23.3753
23.3753
23.3753
23.3753
23.3753
23.3753
23.3753
23.3754
23.3754
23.3754
23.3754
23.3754
23.3754
23.3755
23.3755
23.3755
23.3755
23.3755
23.3756
23.3756
23.3756
23.4114
23.4114
23.4113
23.4113
23.4113
23.4113
23.4112
23.4112
23.4112
23.4112
23.4112
23.4111
23.4111
23.4111
23.4111
23.4111
23.4111
23.4111
23.4111