/*--------------------------------*- C++ -*----------------------------------*\
| =========                 |                                                 |
| \\      /  F ield         | foam-extend: Open Source CFD                    |
|  \\    /   O peration     | Version:     4.0                                |
|   \\  /    A nd           | Web:         http://www.foam-extend.org         |
|    \\/     M anipulation  |                                                 |
\*---------------------------------------------------------------------------*/
FoamFile
{
    version     2.0;
    format      ascii;
    class       volScalarField;
    location    "1420";
    object      cMinus;
}
// * * * * * * * * * * * * * * * * * * * * * * * * * * * * * * * * * * * * * //

dimensions      [0 0 0 0 0 0 0];

internalField   nonuniform List<scalar> 
6960
(
1.85109e-23
1.85205e-23
1.85182e-23
1.8514e-23
1.85096e-23
1.85054e-23
1.85017e-23
1.84984e-23
1.84955e-23
1.8493e-23
1.84908e-23
1.84889e-23
1.84872e-23
1.84858e-23
1.84846e-23
1.84836e-23
1.84827e-23
1.84819e-23
1.84813e-23
1.84808e-23
1.84803e-23
1.84799e-23
1.84796e-23
1.84794e-23
1.84792e-23
1.8479e-23
1.84789e-23
1.84788e-23
1.84788e-23
1.84787e-23
1.84787e-23
1.84788e-23
1.84788e-23
1.84789e-23
1.8479e-23
1.84792e-23
1.84794e-23
1.84796e-23
1.84799e-23
1.84803e-23
1.84808e-23
1.84813e-23
1.84819e-23
1.84827e-23
1.84836e-23
1.84846e-23
1.84858e-23
1.84872e-23
1.84889e-23
1.84908e-23
1.8493e-23
1.84955e-23
1.84984e-23
1.85017e-23
1.85054e-23
1.85096e-23
1.8514e-23
1.85182e-23
1.85205e-23
1.85109e-23
7.91999e-23
7.9247e-23
7.9244e-23
7.92324e-23
7.92196e-23
7.92074e-23
7.91962e-23
7.91862e-23
7.91774e-23
7.91696e-23
7.91629e-23
7.9157e-23
7.91518e-23
7.91474e-23
7.91436e-23
7.91403e-23
7.91375e-23
7.91351e-23
7.9133e-23
7.91313e-23
7.91298e-23
7.91286e-23
7.91276e-23
7.91268e-23
7.91261e-23
7.91256e-23
7.91252e-23
7.91249e-23
7.91247e-23
7.91246e-23
7.91246e-23
7.91247e-23
7.91249e-23
7.91252e-23
7.91256e-23
7.91261e-23
7.91268e-23
7.91276e-23
7.91286e-23
7.91298e-23
7.91313e-23
7.9133e-23
7.91351e-23
7.91375e-23
7.91403e-23
7.91436e-23
7.91474e-23
7.91518e-23
7.9157e-23
7.91629e-23
7.91696e-23
7.91774e-23
7.91862e-23
7.91962e-23
7.92074e-23
7.92196e-23
7.92324e-23
7.9244e-23
7.9247e-23
7.91999e-23
2.48392e-22
2.4856e-22
2.48575e-22
2.48563e-22
2.48545e-22
2.48526e-22
2.48508e-22
2.48491e-22
2.48476e-22
2.48463e-22
2.48451e-22
2.4844e-22
2.48431e-22
2.48423e-22
2.48416e-22
2.48409e-22
2.48404e-22
2.48399e-22
2.48395e-22
2.48392e-22
2.48389e-22
2.48386e-22
2.48384e-22
2.48382e-22
2.48381e-22
2.4838e-22
2.48379e-22
2.48378e-22
2.48378e-22
2.48378e-22
2.48378e-22
2.48378e-22
2.48378e-22
2.48379e-22
2.4838e-22
2.48381e-22
2.48382e-22
2.48384e-22
2.48386e-22
2.48389e-22
2.48392e-22
2.48395e-22
2.48399e-22
2.48404e-22
2.48409e-22
2.48416e-22
2.48423e-22
2.48431e-22
2.4844e-22
2.48451e-22
2.48463e-22
2.48476e-22
2.48491e-22
2.48508e-22
2.48526e-22
2.48545e-22
2.48563e-22
2.48575e-22
2.4856e-22
2.48392e-22
7.25477e-22
7.26039e-22
7.26165e-22
7.26209e-22
7.26229e-22
7.26239e-22
7.26244e-22
7.26246e-22
7.26245e-22
7.26244e-22
7.26241e-22
7.26237e-22
7.26232e-22
7.26227e-22
7.26223e-22
7.26218e-22
7.26213e-22
7.26209e-22
7.26205e-22
7.26201e-22
7.26198e-22
7.26195e-22
7.26193e-22
7.26191e-22
7.26189e-22
7.26188e-22
7.26187e-22
7.26186e-22
7.26185e-22
7.26185e-22
7.26185e-22
7.26185e-22
7.26186e-22
7.26187e-22
7.26188e-22
7.26189e-22
7.26191e-22
7.26193e-22
7.26195e-22
7.26198e-22
7.26201e-22
7.26205e-22
7.26209e-22
7.26213e-22
7.26218e-22
7.26223e-22
7.26227e-22
7.26232e-22
7.26237e-22
7.26241e-22
7.26244e-22
7.26245e-22
7.26246e-22
7.26244e-22
7.26239e-22
7.26229e-22
7.26209e-22
7.26165e-22
7.26039e-22
7.25477e-22
2.10273e-21
2.10458e-21
2.1052e-21
2.10558e-21
2.10588e-21
2.10611e-21
2.10631e-21
2.10648e-21
2.10661e-21
2.10672e-21
2.10682e-21
2.10689e-21
2.10695e-21
2.107e-21
2.10704e-21
2.10706e-21
2.10709e-21
2.1071e-21
2.10712e-21
2.10713e-21
2.10714e-21
2.10714e-21
2.10715e-21
2.10715e-21
2.10715e-21
2.10716e-21
2.10716e-21
2.10716e-21
2.10716e-21
2.10716e-21
2.10716e-21
2.10716e-21
2.10716e-21
2.10716e-21
2.10716e-21
2.10715e-21
2.10715e-21
2.10715e-21
2.10714e-21
2.10714e-21
2.10713e-21
2.10712e-21
2.1071e-21
2.10709e-21
2.10706e-21
2.10704e-21
2.107e-21
2.10695e-21
2.10689e-21
2.10682e-21
2.10672e-21
2.10661e-21
2.10648e-21
2.10631e-21
2.10611e-21
2.10588e-21
2.10558e-21
2.1052e-21
2.10458e-21
2.10273e-21
6.18119e-21
6.18729e-21
6.18994e-21
6.19186e-21
6.19345e-21
6.1948e-21
6.19595e-21
6.19693e-21
6.19776e-21
6.19846e-21
6.19904e-21
6.19953e-21
6.19993e-21
6.20026e-21
6.20053e-21
6.20075e-21
6.20093e-21
6.20107e-21
6.20119e-21
6.20129e-21
6.20136e-21
6.20143e-21
6.20148e-21
6.20152e-21
6.20155e-21
6.20158e-21
6.20159e-21
6.20161e-21
6.20162e-21
6.20162e-21
6.20162e-21
6.20162e-21
6.20161e-21
6.20159e-21
6.20158e-21
6.20155e-21
6.20152e-21
6.20148e-21
6.20143e-21
6.20136e-21
6.20129e-21
6.20119e-21
6.20107e-21
6.20093e-21
6.20075e-21
6.20053e-21
6.20026e-21
6.19993e-21
6.19953e-21
6.19904e-21
6.19846e-21
6.19776e-21
6.19693e-21
6.19595e-21
6.1948e-21
6.19345e-21
6.19186e-21
6.18994e-21
6.18729e-21
6.18119e-21
1.85772e-20
1.85977e-20
1.86081e-20
1.86164e-20
1.86234e-20
1.86295e-20
1.86348e-20
1.86393e-20
1.86431e-20
1.86463e-20
1.86491e-20
1.86514e-20
1.86533e-20
1.86549e-20
1.86562e-20
1.86573e-20
1.86582e-20
1.86589e-20
1.86595e-20
1.866e-20
1.86604e-20
1.86607e-20
1.8661e-20
1.86612e-20
1.86614e-20
1.86615e-20
1.86616e-20
1.86617e-20
1.86617e-20
1.86618e-20
1.86618e-20
1.86617e-20
1.86617e-20
1.86616e-20
1.86615e-20
1.86614e-20
1.86612e-20
1.8661e-20
1.86607e-20
1.86604e-20
1.866e-20
1.86595e-20
1.86589e-20
1.86582e-20
1.86573e-20
1.86562e-20
1.86549e-20
1.86533e-20
1.86514e-20
1.86491e-20
1.86463e-20
1.86431e-20
1.86393e-20
1.86348e-20
1.86295e-20
1.86234e-20
1.86164e-20
1.86081e-20
1.85977e-20
1.85772e-20
5.72591e-20
5.73288e-20
5.73691e-20
5.74024e-20
5.74313e-20
5.74565e-20
5.74783e-20
5.74971e-20
5.75132e-20
5.75269e-20
5.75384e-20
5.75482e-20
5.75563e-20
5.75631e-20
5.75688e-20
5.75735e-20
5.75773e-20
5.75805e-20
5.75832e-20
5.75853e-20
5.75871e-20
5.75886e-20
5.75897e-20
5.75907e-20
5.75915e-20
5.75921e-20
5.75925e-20
5.75928e-20
5.75931e-20
5.75932e-20
5.75932e-20
5.75931e-20
5.75928e-20
5.75925e-20
5.75921e-20
5.75915e-20
5.75907e-20
5.75897e-20
5.75886e-20
5.75871e-20
5.75853e-20
5.75832e-20
5.75805e-20
5.75773e-20
5.75735e-20
5.75688e-20
5.75631e-20
5.75563e-20
5.75482e-20
5.75384e-20
5.75269e-20
5.75132e-20
5.74971e-20
5.74783e-20
5.74565e-20
5.74313e-20
5.74024e-20
5.73691e-20
5.73288e-20
5.72591e-20
1.81217e-19
1.81459e-19
1.81613e-19
1.81744e-19
1.81858e-19
1.81959e-19
1.82046e-19
1.82122e-19
1.82187e-19
1.82242e-19
1.82289e-19
1.82328e-19
1.82361e-19
1.82389e-19
1.82412e-19
1.82431e-19
1.82447e-19
1.8246e-19
1.82471e-19
1.8248e-19
1.82487e-19
1.82493e-19
1.82498e-19
1.82502e-19
1.82505e-19
1.82508e-19
1.8251e-19
1.82511e-19
1.82512e-19
1.82513e-19
1.82513e-19
1.82512e-19
1.82511e-19
1.8251e-19
1.82508e-19
1.82505e-19
1.82502e-19
1.82498e-19
1.82493e-19
1.82487e-19
1.8248e-19
1.82471e-19
1.8246e-19
1.82447e-19
1.82431e-19
1.82412e-19
1.82389e-19
1.82361e-19
1.82328e-19
1.82289e-19
1.82242e-19
1.82187e-19
1.82122e-19
1.82046e-19
1.81959e-19
1.81858e-19
1.81744e-19
1.81613e-19
1.81459e-19
1.81217e-19
5.89212e-19
5.90068e-19
5.90654e-19
5.91164e-19
5.91615e-19
5.92011e-19
5.92356e-19
5.92655e-19
5.92912e-19
5.9313e-19
5.93316e-19
5.93473e-19
5.93605e-19
5.93716e-19
5.93808e-19
5.93885e-19
5.93949e-19
5.94002e-19
5.94046e-19
5.94082e-19
5.94112e-19
5.94136e-19
5.94156e-19
5.94172e-19
5.94185e-19
5.94195e-19
5.94203e-19
5.94209e-19
5.94212e-19
5.94214e-19
5.94214e-19
5.94212e-19
5.94209e-19
5.94203e-19
5.94195e-19
5.94185e-19
5.94172e-19
5.94156e-19
5.94136e-19
5.94112e-19
5.94082e-19
5.94046e-19
5.94002e-19
5.93949e-19
5.93885e-19
5.93808e-19
5.93716e-19
5.93605e-19
5.93473e-19
5.93316e-19
5.9313e-19
5.92912e-19
5.92655e-19
5.92356e-19
5.92011e-19
5.91615e-19
5.91164e-19
5.90654e-19
5.90068e-19
5.89212e-19
1.96858e-18
1.97168e-18
1.97393e-18
1.97592e-18
1.97769e-18
1.97925e-18
1.98061e-18
1.98179e-18
1.9828e-18
1.98367e-18
1.9844e-18
1.98503e-18
1.98555e-18
1.98599e-18
1.98636e-18
1.98666e-18
1.98692e-18
1.98713e-18
1.98731e-18
1.98745e-18
1.98757e-18
1.98767e-18
1.98775e-18
1.98781e-18
1.98787e-18
1.98791e-18
1.98794e-18
1.98796e-18
1.98797e-18
1.98798e-18
1.98798e-18
1.98797e-18
1.98796e-18
1.98794e-18
1.98791e-18
1.98787e-18
1.98781e-18
1.98775e-18
1.98767e-18
1.98757e-18
1.98745e-18
1.98731e-18
1.98713e-18
1.98692e-18
1.98666e-18
1.98636e-18
1.98599e-18
1.98555e-18
1.98503e-18
1.9844e-18
1.98367e-18
1.9828e-18
1.98179e-18
1.98061e-18
1.97925e-18
1.97769e-18
1.97592e-18
1.97393e-18
1.97168e-18
1.96858e-18
6.75862e-18
6.7701e-18
6.77884e-18
6.78668e-18
6.79368e-18
6.79986e-18
6.80526e-18
6.80994e-18
6.81397e-18
6.81742e-18
6.82035e-18
6.82282e-18
6.82491e-18
6.82667e-18
6.82813e-18
6.82936e-18
6.83038e-18
6.83123e-18
6.83193e-18
6.83251e-18
6.83299e-18
6.83338e-18
6.83371e-18
6.83397e-18
6.83418e-18
6.83434e-18
6.83447e-18
6.83456e-18
6.83462e-18
6.83464e-18
6.83464e-18
6.83462e-18
6.83456e-18
6.83447e-18
6.83434e-18
6.83418e-18
6.83397e-18
6.83371e-18
6.83338e-18
6.83299e-18
6.83251e-18
6.83193e-18
6.83123e-18
6.83038e-18
6.82936e-18
6.82813e-18
6.82667e-18
6.82491e-18
6.82282e-18
6.82035e-18
6.81742e-18
6.81397e-18
6.80994e-18
6.80526e-18
6.79986e-18
6.79368e-18
6.78668e-18
6.77884e-18
6.7701e-18
6.75862e-18
2.3842e-17
2.38854e-17
2.39199e-17
2.39511e-17
2.39791e-17
2.40039e-17
2.40256e-17
2.40443e-17
2.40605e-17
2.40743e-17
2.40861e-17
2.40961e-17
2.41045e-17
2.41116e-17
2.41175e-17
2.41224e-17
2.41265e-17
2.413e-17
2.41328e-17
2.41352e-17
2.41371e-17
2.41387e-17
2.414e-17
2.41411e-17
2.41419e-17
2.41426e-17
2.41431e-17
2.41435e-17
2.41437e-17
2.41438e-17
2.41438e-17
2.41437e-17
2.41435e-17
2.41431e-17
2.41426e-17
2.41419e-17
2.41411e-17
2.414e-17
2.41387e-17
2.41371e-17
2.41352e-17
2.41328e-17
2.413e-17
2.41265e-17
2.41224e-17
2.41175e-17
2.41116e-17
2.41045e-17
2.40961e-17
2.40861e-17
2.40743e-17
2.40605e-17
2.40443e-17
2.40256e-17
2.40039e-17
2.39791e-17
2.39511e-17
2.39199e-17
2.38854e-17
2.3842e-17
8.63959e-17
8.65641e-17
8.67024e-17
8.68288e-17
8.69424e-17
8.7043e-17
8.7131e-17
8.72074e-17
8.72732e-17
8.73295e-17
8.73775e-17
8.74181e-17
8.74524e-17
8.74813e-17
8.75054e-17
8.75256e-17
8.75425e-17
8.75565e-17
8.75681e-17
8.75777e-17
8.75857e-17
8.75922e-17
8.75976e-17
8.76019e-17
8.76054e-17
8.76081e-17
8.76102e-17
8.76117e-17
8.76127e-17
8.76132e-17
8.76132e-17
8.76127e-17
8.76117e-17
8.76102e-17
8.76081e-17
8.76054e-17
8.76019e-17
8.75976e-17
8.75922e-17
8.75857e-17
8.75777e-17
8.75681e-17
8.75565e-17
8.75425e-17
8.75256e-17
8.75054e-17
8.74813e-17
8.74524e-17
8.74181e-17
8.73775e-17
8.73295e-17
8.72732e-17
8.72074e-17
8.7131e-17
8.7043e-17
8.69424e-17
8.68288e-17
8.67024e-17
8.65641e-17
8.63959e-17
3.2146e-16
3.22126e-16
3.22691e-16
3.2321e-16
3.23679e-16
3.24094e-16
3.24457e-16
3.24773e-16
3.25045e-16
3.25277e-16
3.25476e-16
3.25644e-16
3.25786e-16
3.25905e-16
3.26005e-16
3.26089e-16
3.26159e-16
3.26217e-16
3.26265e-16
3.26306e-16
3.26339e-16
3.26366e-16
3.26388e-16
3.26406e-16
3.26421e-16
3.26432e-16
3.26441e-16
3.26447e-16
3.26451e-16
3.26453e-16
3.26453e-16
3.26451e-16
3.26447e-16
3.26441e-16
3.26432e-16
3.26421e-16
3.26406e-16
3.26388e-16
3.26366e-16
3.26339e-16
3.26306e-16
3.26265e-16
3.26217e-16
3.26159e-16
3.26089e-16
3.26005e-16
3.25905e-16
3.25786e-16
3.25644e-16
3.25476e-16
3.25277e-16
3.25045e-16
3.24773e-16
3.24457e-16
3.24094e-16
3.23679e-16
3.2321e-16
3.22691e-16
3.22126e-16
3.2146e-16
1.22736e-15
1.23006e-15
1.23241e-15
1.23458e-15
1.23655e-15
1.23829e-15
1.23981e-15
1.24114e-15
1.24228e-15
1.24326e-15
1.24409e-15
1.2448e-15
1.2454e-15
1.2459e-15
1.24632e-15
1.24667e-15
1.24697e-15
1.24721e-15
1.24742e-15
1.24759e-15
1.24773e-15
1.24784e-15
1.24794e-15
1.24801e-15
1.24807e-15
1.24812e-15
1.24816e-15
1.24818e-15
1.2482e-15
1.24821e-15
1.24821e-15
1.2482e-15
1.24818e-15
1.24816e-15
1.24812e-15
1.24807e-15
1.24801e-15
1.24794e-15
1.24784e-15
1.24773e-15
1.24759e-15
1.24742e-15
1.24721e-15
1.24697e-15
1.24667e-15
1.24632e-15
1.2459e-15
1.2454e-15
1.2448e-15
1.24409e-15
1.24326e-15
1.24228e-15
1.24114e-15
1.23981e-15
1.23829e-15
1.23655e-15
1.23458e-15
1.23241e-15
1.23006e-15
1.22736e-15
4.80466e-15
4.81583e-15
4.82578e-15
4.83504e-15
4.84341e-15
4.85083e-15
4.85735e-15
4.863e-15
4.86788e-15
4.87207e-15
4.87563e-15
4.87866e-15
4.88121e-15
4.88336e-15
4.88517e-15
4.88668e-15
4.88794e-15
4.88899e-15
4.88986e-15
4.89059e-15
4.89119e-15
4.89168e-15
4.89208e-15
4.89241e-15
4.89267e-15
4.89288e-15
4.89304e-15
4.89315e-15
4.89322e-15
4.89326e-15
4.89326e-15
4.89322e-15
4.89315e-15
4.89304e-15
4.89288e-15
4.89267e-15
4.89241e-15
4.89208e-15
4.89168e-15
4.89119e-15
4.89059e-15
4.88986e-15
4.88899e-15
4.88794e-15
4.88668e-15
4.88517e-15
4.88336e-15
4.88121e-15
4.87866e-15
4.87563e-15
4.87207e-15
4.86788e-15
4.863e-15
4.85735e-15
4.85083e-15
4.84341e-15
4.83504e-15
4.82578e-15
4.81583e-15
4.80466e-15
1.92624e-14
1.93096e-14
1.93525e-14
1.93926e-14
1.94289e-14
1.94611e-14
1.94894e-14
1.9514e-14
1.95352e-14
1.95533e-14
1.95688e-14
1.9582e-14
1.95931e-14
1.96025e-14
1.96103e-14
1.96169e-14
1.96224e-14
1.96269e-14
1.96308e-14
1.96339e-14
1.96365e-14
1.96387e-14
1.96404e-14
1.96418e-14
1.9643e-14
1.96439e-14
1.96446e-14
1.96451e-14
1.96454e-14
1.96456e-14
1.96456e-14
1.96454e-14
1.96451e-14
1.96446e-14
1.96439e-14
1.9643e-14
1.96418e-14
1.96404e-14
1.96387e-14
1.96365e-14
1.96339e-14
1.96308e-14
1.96269e-14
1.96224e-14
1.96169e-14
1.96103e-14
1.96025e-14
1.95931e-14
1.9582e-14
1.95688e-14
1.95533e-14
1.95352e-14
1.9514e-14
1.94894e-14
1.94611e-14
1.94289e-14
1.93926e-14
1.93525e-14
1.93096e-14
1.92624e-14
7.89762e-14
7.91794e-14
7.93677e-14
7.95442e-14
7.97041e-14
7.98462e-14
7.99709e-14
8.00793e-14
8.01728e-14
8.0253e-14
8.03214e-14
8.03795e-14
8.04286e-14
8.04699e-14
8.05047e-14
8.05337e-14
8.0558e-14
8.05782e-14
8.05951e-14
8.0609e-14
8.06206e-14
8.06301e-14
8.06379e-14
8.06442e-14
8.06492e-14
8.06532e-14
8.06563e-14
8.06585e-14
8.06599e-14
8.06606e-14
8.06606e-14
8.06599e-14
8.06585e-14
8.06563e-14
8.06532e-14
8.06492e-14
8.06442e-14
8.06379e-14
8.06301e-14
8.06206e-14
8.0609e-14
8.05951e-14
8.05782e-14
8.0558e-14
8.05337e-14
8.05047e-14
8.04699e-14
8.04286e-14
8.03795e-14
8.03214e-14
8.0253e-14
8.01728e-14
8.00793e-14
7.99709e-14
7.98462e-14
7.97041e-14
7.95442e-14
7.93677e-14
7.91794e-14
7.89762e-14
3.30555e-13
3.31446e-13
3.32284e-13
3.33073e-13
3.33788e-13
3.34424e-13
3.34982e-13
3.35467e-13
3.35886e-13
3.36245e-13
3.36551e-13
3.36811e-13
3.37031e-13
3.37217e-13
3.37372e-13
3.37503e-13
3.37611e-13
3.37702e-13
3.37778e-13
3.3784e-13
3.37892e-13
3.37935e-13
3.3797e-13
3.37998e-13
3.38021e-13
3.38039e-13
3.38053e-13
3.38062e-13
3.38069e-13
3.38072e-13
3.38072e-13
3.38069e-13
3.38062e-13
3.38053e-13
3.38039e-13
3.38021e-13
3.37998e-13
3.3797e-13
3.37935e-13
3.37892e-13
3.3784e-13
3.37778e-13
3.37702e-13
3.37611e-13
3.37503e-13
3.37372e-13
3.37217e-13
3.37031e-13
3.36811e-13
3.36551e-13
3.36245e-13
3.35886e-13
3.35467e-13
3.34982e-13
3.34424e-13
3.33788e-13
3.33073e-13
3.32284e-13
3.31446e-13
3.30555e-13
1.40928e-12
1.41325e-12
1.41703e-12
1.4206e-12
1.42384e-12
1.42672e-12
1.42925e-12
1.43145e-12
1.43335e-12
1.43497e-12
1.43636e-12
1.43754e-12
1.43854e-12
1.43938e-12
1.44009e-12
1.44068e-12
1.44118e-12
1.44159e-12
1.44193e-12
1.44222e-12
1.44245e-12
1.44265e-12
1.4428e-12
1.44293e-12
1.44304e-12
1.44312e-12
1.44318e-12
1.44322e-12
1.44325e-12
1.44327e-12
1.44327e-12
1.44325e-12
1.44322e-12
1.44318e-12
1.44312e-12
1.44304e-12
1.44293e-12
1.4428e-12
1.44265e-12
1.44245e-12
1.44222e-12
1.44193e-12
1.44159e-12
1.44118e-12
1.44068e-12
1.44009e-12
1.43938e-12
1.43854e-12
1.43754e-12
1.43636e-12
1.43497e-12
1.43335e-12
1.43145e-12
1.42925e-12
1.42672e-12
1.42384e-12
1.4206e-12
1.41703e-12
1.41325e-12
1.40928e-12
6.10379e-12
6.12167e-12
6.13894e-12
6.15526e-12
6.17008e-12
6.18326e-12
6.19483e-12
6.2049e-12
6.2136e-12
6.22106e-12
6.22743e-12
6.23284e-12
6.23741e-12
6.24126e-12
6.2445e-12
6.24722e-12
6.24948e-12
6.25137e-12
6.25295e-12
6.25425e-12
6.25533e-12
6.25622e-12
6.25695e-12
6.25754e-12
6.25802e-12
6.25839e-12
6.25868e-12
6.25888e-12
6.25902e-12
6.25908e-12
6.25908e-12
6.25902e-12
6.25888e-12
6.25868e-12
6.25839e-12
6.25802e-12
6.25754e-12
6.25695e-12
6.25622e-12
6.25533e-12
6.25425e-12
6.25295e-12
6.25137e-12
6.24948e-12
6.24722e-12
6.2445e-12
6.24126e-12
6.23741e-12
6.23284e-12
6.22743e-12
6.22106e-12
6.2136e-12
6.2049e-12
6.19483e-12
6.18326e-12
6.17008e-12
6.15526e-12
6.13894e-12
6.12167e-12
6.10379e-12
2.67707e-11
2.68521e-11
2.69315e-11
2.70067e-11
2.7075e-11
2.71357e-11
2.71891e-11
2.72355e-11
2.72756e-11
2.731e-11
2.73394e-11
2.73643e-11
2.73854e-11
2.74032e-11
2.74182e-11
2.74307e-11
2.74412e-11
2.74499e-11
2.74572e-11
2.74632e-11
2.74682e-11
2.74723e-11
2.74757e-11
2.74784e-11
2.74806e-11
2.74823e-11
2.74836e-11
2.74846e-11
2.74852e-11
2.74855e-11
2.74855e-11
2.74852e-11
2.74846e-11
2.74836e-11
2.74823e-11
2.74806e-11
2.74784e-11
2.74757e-11
2.74723e-11
2.74682e-11
2.74632e-11
2.74572e-11
2.74499e-11
2.74412e-11
2.74307e-11
2.74182e-11
2.74032e-11
2.73854e-11
2.73643e-11
2.73394e-11
2.731e-11
2.72756e-11
2.72355e-11
2.71891e-11
2.71357e-11
2.7075e-11
2.70067e-11
2.69315e-11
2.68521e-11
2.67707e-11
1.1845e-10
1.18822e-10
1.19188e-10
1.19536e-10
1.19851e-10
1.20132e-10
1.20379e-10
1.20594e-10
1.20779e-10
1.20938e-10
1.21074e-10
1.2119e-10
1.21287e-10
1.2137e-10
1.21439e-10
1.21497e-10
1.21545e-10
1.21586e-10
1.21619e-10
1.21647e-10
1.2167e-10
1.2169e-10
1.21705e-10
1.21718e-10
1.21728e-10
1.21736e-10
1.21742e-10
1.21746e-10
1.21749e-10
1.21751e-10
1.21751e-10
1.21749e-10
1.21746e-10
1.21742e-10
1.21736e-10
1.21728e-10
1.21718e-10
1.21705e-10
1.2169e-10
1.2167e-10
1.21647e-10
1.21619e-10
1.21586e-10
1.21545e-10
1.21497e-10
1.21439e-10
1.2137e-10
1.21287e-10
1.2119e-10
1.21074e-10
1.20938e-10
1.20779e-10
1.20594e-10
1.20379e-10
1.20132e-10
1.19851e-10
1.19536e-10
1.19188e-10
1.18822e-10
1.1845e-10
5.26364e-10
5.28067e-10
5.29758e-10
5.3136e-10
5.32818e-10
5.34115e-10
5.35254e-10
5.36246e-10
5.37102e-10
5.37837e-10
5.38465e-10
5.38998e-10
5.3945e-10
5.3983e-10
5.4015e-10
5.40418e-10
5.40642e-10
5.40829e-10
5.40984e-10
5.41113e-10
5.4122e-10
5.41308e-10
5.4138e-10
5.41439e-10
5.41486e-10
5.41523e-10
5.41551e-10
5.41571e-10
5.41585e-10
5.41591e-10
5.41591e-10
5.41585e-10
5.41571e-10
5.41551e-10
5.41523e-10
5.41486e-10
5.41439e-10
5.4138e-10
5.41308e-10
5.4122e-10
5.41113e-10
5.40984e-10
5.40829e-10
5.40642e-10
5.40418e-10
5.4015e-10
5.3983e-10
5.3945e-10
5.38998e-10
5.38465e-10
5.37837e-10
5.37102e-10
5.36246e-10
5.35254e-10
5.34115e-10
5.32818e-10
5.3136e-10
5.29758e-10
5.28067e-10
5.26364e-10
2.33706e-09
2.34482e-09
2.35256e-09
2.35991e-09
2.36659e-09
2.37254e-09
2.37776e-09
2.38231e-09
2.38624e-09
2.38961e-09
2.39249e-09
2.39493e-09
2.397e-09
2.39875e-09
2.40022e-09
2.40145e-09
2.40247e-09
2.40333e-09
2.40405e-09
2.40464e-09
2.40513e-09
2.40553e-09
2.40586e-09
2.40613e-09
2.40635e-09
2.40652e-09
2.40665e-09
2.40674e-09
2.4068e-09
2.40683e-09
2.40683e-09
2.4068e-09
2.40674e-09
2.40665e-09
2.40652e-09
2.40635e-09
2.40613e-09
2.40586e-09
2.40553e-09
2.40513e-09
2.40464e-09
2.40405e-09
2.40333e-09
2.40247e-09
2.40145e-09
2.40022e-09
2.39875e-09
2.397e-09
2.39493e-09
2.39249e-09
2.38961e-09
2.38624e-09
2.38231e-09
2.37776e-09
2.37254e-09
2.36659e-09
2.35991e-09
2.35256e-09
2.34482e-09
2.33706e-09
1.03061e-08
1.0341e-08
1.03761e-08
1.04093e-08
1.04395e-08
1.04664e-08
1.04901e-08
1.05107e-08
1.05284e-08
1.05437e-08
1.05567e-08
1.05678e-08
1.05772e-08
1.05851e-08
1.05917e-08
1.05973e-08
1.06019e-08
1.06058e-08
1.0609e-08
1.06117e-08
1.0614e-08
1.06158e-08
1.06173e-08
1.06185e-08
1.06195e-08
1.06202e-08
1.06208e-08
1.06213e-08
1.06215e-08
1.06217e-08
1.06217e-08
1.06215e-08
1.06213e-08
1.06208e-08
1.06202e-08
1.06195e-08
1.06185e-08
1.06173e-08
1.06158e-08
1.0614e-08
1.06117e-08
1.0609e-08
1.06058e-08
1.06019e-08
1.05973e-08
1.05917e-08
1.05851e-08
1.05772e-08
1.05678e-08
1.05567e-08
1.05437e-08
1.05284e-08
1.05107e-08
1.04901e-08
1.04664e-08
1.04395e-08
1.04093e-08
1.03761e-08
1.0341e-08
1.03061e-08
4.48335e-08
4.49878e-08
4.51433e-08
4.52906e-08
4.54245e-08
4.55438e-08
4.56485e-08
4.57397e-08
4.58185e-08
4.58861e-08
4.59439e-08
4.5993e-08
4.60345e-08
4.60696e-08
4.6099e-08
4.61237e-08
4.61443e-08
4.61616e-08
4.61759e-08
4.61878e-08
4.61977e-08
4.62058e-08
4.62124e-08
4.62178e-08
4.62222e-08
4.62256e-08
4.62282e-08
4.62301e-08
4.62313e-08
4.62319e-08
4.62319e-08
4.62313e-08
4.62301e-08
4.62282e-08
4.62256e-08
4.62222e-08
4.62178e-08
4.62124e-08
4.62058e-08
4.61977e-08
4.61878e-08
4.61759e-08
4.61616e-08
4.61443e-08
4.61237e-08
4.6099e-08
4.60696e-08
4.60345e-08
4.5993e-08
4.59439e-08
4.58861e-08
4.58185e-08
4.57397e-08
4.56485e-08
4.55438e-08
4.54245e-08
4.52906e-08
4.51433e-08
4.49878e-08
4.48335e-08
1.90916e-07
1.9158e-07
1.92249e-07
1.92884e-07
1.93461e-07
1.93974e-07
1.94425e-07
1.94818e-07
1.95157e-07
1.95448e-07
1.95697e-07
1.95908e-07
1.96087e-07
1.96238e-07
1.96365e-07
1.96471e-07
1.9656e-07
1.96634e-07
1.96696e-07
1.96747e-07
1.9679e-07
1.96825e-07
1.96853e-07
1.96877e-07
1.96895e-07
1.9691e-07
1.96921e-07
1.96929e-07
1.96935e-07
1.96937e-07
1.96937e-07
1.96935e-07
1.96929e-07
1.96921e-07
1.9691e-07
1.96895e-07
1.96877e-07
1.96853e-07
1.96825e-07
1.9679e-07
1.96747e-07
1.96696e-07
1.96634e-07
1.9656e-07
1.96471e-07
1.96365e-07
1.96238e-07
1.96087e-07
1.95908e-07
1.95697e-07
1.95448e-07
1.95157e-07
1.94818e-07
1.94425e-07
1.93974e-07
1.93461e-07
1.92884e-07
1.92249e-07
1.9158e-07
1.90916e-07
7.88937e-07
7.91689e-07
7.94467e-07
7.97097e-07
7.99487e-07
8.01613e-07
8.03482e-07
8.05108e-07
8.06513e-07
8.0772e-07
8.0875e-07
8.09626e-07
8.10367e-07
8.10992e-07
8.11517e-07
8.11958e-07
8.12326e-07
8.12634e-07
8.1289e-07
8.13102e-07
8.13278e-07
8.13423e-07
8.13542e-07
8.13639e-07
8.13716e-07
8.13777e-07
8.13824e-07
8.13857e-07
8.13879e-07
8.1389e-07
8.1389e-07
8.13879e-07
8.13857e-07
8.13824e-07
8.13777e-07
8.13716e-07
8.13639e-07
8.13542e-07
8.13423e-07
8.13278e-07
8.13102e-07
8.1289e-07
8.12634e-07
8.12326e-07
8.11958e-07
8.11517e-07
8.10992e-07
8.10367e-07
8.09626e-07
8.0875e-07
8.0772e-07
8.06513e-07
8.05108e-07
8.03482e-07
8.01613e-07
7.99487e-07
7.97097e-07
7.94467e-07
7.91689e-07
7.88937e-07
3.1332e-06
3.14408e-06
3.15506e-06
3.16543e-06
3.17486e-06
3.18325e-06
3.19061e-06
3.19703e-06
3.20257e-06
3.20732e-06
3.21139e-06
3.21484e-06
3.21776e-06
3.22022e-06
3.2223e-06
3.22403e-06
3.22549e-06
3.2267e-06
3.22771e-06
3.22855e-06
3.22924e-06
3.22981e-06
3.23028e-06
3.23066e-06
3.23097e-06
3.23121e-06
3.23139e-06
3.23153e-06
3.23161e-06
3.23165e-06
3.23165e-06
3.23161e-06
3.23153e-06
3.23139e-06
3.23121e-06
3.23097e-06
3.23066e-06
3.23028e-06
3.22981e-06
3.22924e-06
3.22855e-06
3.22771e-06
3.2267e-06
3.22549e-06
3.22403e-06
3.2223e-06
3.22022e-06
3.21776e-06
3.21484e-06
3.21139e-06
3.20732e-06
3.20257e-06
3.19703e-06
3.19061e-06
3.18325e-06
3.17486e-06
3.16543e-06
3.15506e-06
3.14408e-06
3.1332e-06
1.18301e-05
1.18706e-05
1.19114e-05
1.19499e-05
1.19848e-05
1.20159e-05
1.20433e-05
1.2067e-05
1.20876e-05
1.21052e-05
1.21203e-05
1.21331e-05
1.21439e-05
1.2153e-05
1.21607e-05
1.21671e-05
1.21725e-05
1.2177e-05
1.21808e-05
1.21839e-05
1.21865e-05
1.21886e-05
1.21903e-05
1.21917e-05
1.21929e-05
1.21938e-05
1.21944e-05
1.21949e-05
1.21952e-05
1.21954e-05
1.21954e-05
1.21952e-05
1.21949e-05
1.21944e-05
1.21938e-05
1.21929e-05
1.21917e-05
1.21903e-05
1.21886e-05
1.21865e-05
1.21839e-05
1.21808e-05
1.2177e-05
1.21725e-05
1.21671e-05
1.21607e-05
1.2153e-05
1.21439e-05
1.21331e-05
1.21203e-05
1.21052e-05
1.20876e-05
1.2067e-05
1.20433e-05
1.20159e-05
1.19848e-05
1.19499e-05
1.19114e-05
1.18706e-05
1.18301e-05
4.19597e-05
4.20998e-05
4.22405e-05
4.23731e-05
4.24933e-05
4.26002e-05
4.26941e-05
4.27758e-05
4.28464e-05
4.2907e-05
4.29588e-05
4.30028e-05
4.304e-05
4.30714e-05
4.30978e-05
4.31199e-05
4.31385e-05
4.31539e-05
4.31668e-05
4.31775e-05
4.31863e-05
4.31936e-05
4.31996e-05
4.32045e-05
4.32084e-05
4.32114e-05
4.32138e-05
4.32155e-05
4.32166e-05
4.32171e-05
4.32171e-05
4.32166e-05
4.32155e-05
4.32138e-05
4.32114e-05
4.32084e-05
4.32045e-05
4.31996e-05
4.31936e-05
4.31863e-05
4.31775e-05
4.31668e-05
4.31539e-05
4.31385e-05
4.31199e-05
4.30978e-05
4.30714e-05
4.304e-05
4.30028e-05
4.29588e-05
4.2907e-05
4.28464e-05
4.27758e-05
4.26941e-05
4.26002e-05
4.24933e-05
4.23731e-05
4.22405e-05
4.20998e-05
4.19597e-05
0.000137968
0.000138412
0.000138855
0.000139271
0.000139648
0.000139984
0.000140278
0.000140535
0.000140756
0.000140946
0.000141108
0.000141246
0.000141363
0.000141462
0.000141544
0.000141614
0.000141672
0.00014172
0.000141761
0.000141794
0.000141822
0.000141845
0.000141864
0.000141879
0.000141891
0.000141901
0.000141908
0.000141913
0.000141917
0.000141919
0.000141919
0.000141917
0.000141913
0.000141908
0.000141901
0.000141891
0.000141879
0.000141864
0.000141845
0.000141822
0.000141794
0.000141761
0.00014172
0.000141672
0.000141614
0.000141544
0.000141462
0.000141363
0.000141246
0.000141108
0.000140946
0.000140756
0.000140535
0.000140278
0.000139984
0.000139648
0.000139271
0.000138855
0.000138412
0.000137968
0.000414559
0.000415817
0.000417068
0.000418241
0.000419303
0.000420247
0.000421075
0.000421795
0.000422418
0.000422952
0.000423408
0.000423796
0.000424124
0.000424401
0.000424634
0.000424829
0.000424992
0.000425129
0.000425242
0.000425336
0.000425414
0.000425479
0.000425532
0.000425574
0.000425609
0.000425636
0.000425657
0.000425672
0.000425681
0.000425686
0.000425686
0.000425681
0.000425672
0.000425657
0.000425636
0.000425609
0.000425574
0.000425532
0.000425479
0.000425414
0.000425336
0.000425242
0.000425129
0.000424992
0.000424829
0.000424634
0.000424401
0.000424124
0.000423796
0.000423408
0.000422952
0.000422418
0.000421795
0.000421075
0.000420247
0.000419303
0.000418241
0.000417068
0.000415817
0.000414559
0.0011214
0.00112455
0.00112766
0.00113057
0.00113319
0.00113553
0.00113758
0.00113936
0.0011409
0.00114222
0.00114334
0.0011443
0.00114511
0.0011458
0.00114637
0.00114686
0.00114726
0.0011476
0.00114788
0.00114811
0.0011483
0.00114846
0.00114859
0.0011487
0.00114878
0.00114885
0.0011489
0.00114894
0.00114896
0.00114897
0.00114897
0.00114896
0.00114894
0.0011489
0.00114885
0.00114878
0.0011487
0.00114859
0.00114846
0.0011483
0.00114811
0.00114788
0.0011476
0.00114726
0.00114686
0.00114637
0.0011458
0.00114511
0.0011443
0.00114334
0.00114222
0.0011409
0.00113936
0.00113758
0.00113553
0.00113319
0.00113057
0.00112766
0.00112455
0.0011214
0.0026931
0.00269992
0.00270659
0.00271281
0.00271842
0.00272341
0.00272778
0.00273158
0.00273487
0.00273769
0.00274009
0.00274214
0.00274387
0.00274533
0.00274656
0.00274759
0.00274845
0.00274917
0.00274977
0.00275027
0.00275068
0.00275102
0.0027513
0.00275153
0.00275171
0.00275185
0.00275196
0.00275204
0.00275209
0.00275212
0.00275212
0.00275209
0.00275204
0.00275196
0.00275185
0.00275171
0.00275153
0.0027513
0.00275102
0.00275068
0.00275027
0.00274977
0.00274917
0.00274845
0.00274759
0.00274656
0.00274533
0.00274387
0.00274214
0.00274009
0.00273769
0.00273487
0.00273158
0.00272778
0.00272341
0.00271842
0.00271281
0.00270659
0.00269992
0.0026931
0.0056848
0.00569741
0.00570963
0.00572099
0.00573123
0.00574031
0.00574828
0.0057552
0.00576118
0.00576632
0.0057707
0.00577442
0.00577757
0.00578023
0.00578247
0.00578435
0.00578592
0.00578723
0.00578832
0.00578923
0.00578998
0.0057906
0.00579111
0.00579152
0.00579186
0.00579212
0.00579232
0.00579246
0.00579255
0.0057926
0.0057926
0.00579255
0.00579246
0.00579232
0.00579212
0.00579186
0.00579152
0.00579111
0.0057906
0.00578998
0.00578923
0.00578832
0.00578723
0.00578592
0.00578435
0.00578247
0.00578023
0.00577757
0.00577442
0.0057707
0.00576632
0.00576118
0.0057552
0.00574828
0.00574031
0.00573123
0.00572099
0.00570963
0.00569741
0.0056848
0.010523
0.0105429
0.0105621
0.0105798
0.0105957
0.0106098
0.0106222
0.010633
0.0106423
0.0106502
0.010657
0.0106628
0.0106677
0.0106719
0.0106753
0.0106783
0.0106807
0.0106827
0.0106844
0.0106859
0.010687
0.010688
0.0106888
0.0106894
0.0106899
0.0106904
0.0106907
0.0106909
0.010691
0.0106911
0.0106911
0.010691
0.0106909
0.0106907
0.0106904
0.0106899
0.0106894
0.0106888
0.010688
0.010687
0.0106859
0.0106844
0.0106827
0.0106807
0.0106783
0.0106753
0.0106719
0.0106677
0.0106628
0.010657
0.0106502
0.0106423
0.010633
0.0106222
0.0106098
0.0105957
0.0105798
0.0105621
0.0105429
0.010523
0.0172169
0.0172443
0.0172703
0.0172942
0.0173158
0.0173348
0.0173515
0.0173661
0.0173786
0.0173894
0.0173986
0.0174064
0.017413
0.0174186
0.0174233
0.0174272
0.0174305
0.0174333
0.0174356
0.0174375
0.0174391
0.0174404
0.0174415
0.0174423
0.017443
0.0174436
0.017444
0.0174443
0.0174445
0.0174446
0.0174446
0.0174445
0.0174443
0.017444
0.0174436
0.017443
0.0174423
0.0174415
0.0174404
0.0174391
0.0174375
0.0174356
0.0174333
0.0174305
0.0174272
0.0174233
0.0174186
0.017413
0.0174064
0.0173986
0.0173894
0.0173786
0.0173661
0.0173515
0.0173348
0.0173158
0.0172942
0.0172703
0.0172443
0.0172169
0.0253312
0.025365
0.0253967
0.0254258
0.0254519
0.025475
0.0254952
0.0255128
0.025528
0.025541
0.0255522
0.0255617
0.0255697
0.0255765
0.0255822
0.0255869
0.025591
0.0255943
0.0255971
0.0255994
0.0256014
0.0256029
0.0256042
0.0256053
0.0256062
0.0256068
0.0256073
0.0256077
0.0256079
0.0256081
0.0256081
0.0256079
0.0256077
0.0256073
0.0256068
0.0256062
0.0256053
0.0256042
0.0256029
0.0256014
0.0255994
0.0255971
0.0255943
0.025591
0.0255869
0.0255822
0.0255765
0.0255697
0.0255617
0.0255522
0.025541
0.025528
0.0255128
0.0254952
0.025475
0.0254519
0.0254258
0.0253967
0.025365
0.0253312
0.0342703
0.0343092
0.0343452
0.0343781
0.0344076
0.0344337
0.0344566
0.0344765
0.0344937
0.0345084
0.034521
0.0345317
0.0345408
0.0345485
0.034555
0.0345604
0.0345649
0.0345687
0.0345719
0.0345746
0.0345767
0.0345785
0.03458
0.0345812
0.0345822
0.034583
0.0345836
0.034584
0.0345842
0.0345844
0.0345844
0.0345842
0.034584
0.0345836
0.034583
0.0345822
0.0345812
0.03458
0.0345785
0.0345767
0.0345746