/*--------------------------------*- C++ -*----------------------------------*\
| =========                 |                                                 |
| \\      /  F ield         | foam-extend: Open Source CFD                    |
|  \\    /   O peration     | Version:     4.0                                |
|   \\  /    A nd           | Web:         http://www.foam-extend.org         |
|    \\/     M anipulation  |                                                 |
\*---------------------------------------------------------------------------*/
FoamFile
{
    version     2.0;
    format      ascii;
    class       volScalarField;
    location    "1270";
    object      psiE;
}
// * * * * * * * * * * * * * * * * * * * * * * * * * * * * * * * * * * * * * //

dimensions      [0 0 0 0 0 0 0];

internalField   nonuniform List<scalar> 
6960
(
0.331609
0.331614
0.331613
0.331611
0.331609
0.331608
0.331607
0.331606
0.331605
0.331604
0.331604
0.331603
0.331603
0.331602
0.331602
0.331602
0.331602
0.331601
0.331601
0.331601
0.331601
0.331601
0.331601
0.331601
0.331601
0.331601
0.331601
0.3316
0.3316
0.3316
0.3316
0.3316
0.3316
0.331601
0.331601
0.331601
0.331601
0.331601
0.331601
0.331601
0.331601
0.331601
0.331601
0.331602
0.331602
0.331602
0.331602
0.331603
0.331603
0.331604
0.331604
0.331605
0.331606
0.331607
0.331608
0.331609
0.331611
0.331613
0.331614
0.331609
0.802105
0.802118
0.802111
0.802103
0.802096
0.802091
0.802086
0.802082
0.802079
0.802076
0.802074
0.802072
0.80207
0.802069
0.802068
0.802067
0.802066
0.802065
0.802064
0.802064
0.802063
0.802063
0.802062
0.802062
0.802062
0.802062
0.802061
0.802061
0.802061
0.802061
0.802061
0.802061
0.802061
0.802061
0.802062
0.802062
0.802062
0.802062
0.802063
0.802063
0.802064
0.802064
0.802065
0.802066
0.802067
0.802068
0.802069
0.80207
0.802072
0.802074
0.802076
0.802079
0.802082
0.802086
0.802091
0.802096
0.802103
0.802111
0.802118
0.802105
1.18225
1.18226
1.18225
1.18223
1.18222
1.18221
1.1822
1.18219
1.18219
1.18218
1.18218
1.18217
1.18217
1.18217
1.18216
1.18216
1.18216
1.18216
1.18216
1.18216
1.18216
1.18215
1.18215
1.18215
1.18215
1.18215
1.18215
1.18215
1.18215
1.18215
1.18215
1.18215
1.18215
1.18215
1.18215
1.18215
1.18215
1.18215
1.18215
1.18216
1.18216
1.18216
1.18216
1.18216
1.18216
1.18216
1.18217
1.18217
1.18217
1.18218
1.18218
1.18219
1.18219
1.1822
1.18221
1.18222
1.18223
1.18225
1.18226
1.18225
1.49825
1.49825
1.49822
1.4982
1.49818
1.49816
1.49814
1.49813
1.49812
1.49812
1.49811
1.4981
1.4981
1.4981
1.49809
1.49809
1.49809
1.49808
1.49808
1.49808
1.49808
1.49808
1.49808
1.49808
1.49808
1.49807
1.49807
1.49807
1.49807
1.49807
1.49807
1.49807
1.49807
1.49807
1.49807
1.49808
1.49808
1.49808
1.49808
1.49808
1.49808
1.49808
1.49808
1.49809
1.49809
1.49809
1.4981
1.4981
1.4981
1.49811
1.49812
1.49812
1.49813
1.49814
1.49816
1.49818
1.4982
1.49822
1.49825
1.49825
1.76087
1.76084
1.7608
1.76077
1.76074
1.76072
1.7607
1.76068
1.76067
1.76066
1.76065
1.76065
1.76064
1.76063
1.76063
1.76063
1.76062
1.76062
1.76062
1.76061
1.76061
1.76061
1.76061
1.76061
1.76061
1.76061
1.76061
1.76061
1.76061
1.7606
1.7606
1.76061
1.76061
1.76061
1.76061
1.76061
1.76061
1.76061
1.76061
1.76061
1.76061
1.76062
1.76062
1.76062
1.76063
1.76063
1.76063
1.76064
1.76065
1.76065
1.76066
1.76067
1.76068
1.7607
1.76072
1.76074
1.76077
1.7608
1.76084
1.76087
1.97785
1.97778
1.97773
1.97769
1.97765
1.97763
1.9776
1.97759
1.97757
1.97756
1.97755
1.97754
1.97753
1.97752
1.97752
1.97751
1.97751
1.97751
1.9775
1.9775
1.9775
1.9775
1.97749
1.97749
1.97749
1.97749
1.97749
1.97749
1.97749
1.97749
1.97749
1.97749
1.97749
1.97749
1.97749
1.97749
1.97749
1.97749
1.9775
1.9775
1.9775
1.9775
1.97751
1.97751
1.97751
1.97752
1.97752
1.97753
1.97754
1.97755
1.97756
1.97757
1.97759
1.9776
1.97763
1.97765
1.97769
1.97773
1.97778
1.97785
2.15702
2.15693
2.15687
2.15682
2.15678
2.15675
2.15672
2.1567
2.15668
2.15667
2.15665
2.15664
2.15664
2.15663
2.15662
2.15662
2.15661
2.15661
2.1566
2.1566
2.1566
2.1566
2.15659
2.15659
2.15659
2.15659
2.15659
2.15659
2.15659
2.15659
2.15659
2.15659
2.15659
2.15659
2.15659
2.15659
2.15659
2.15659
2.1566
2.1566
2.1566
2.1566
2.15661
2.15661
2.15662
2.15662
2.15663
2.15664
2.15664
2.15665
2.15667
2.15668
2.1567
2.15672
2.15675
2.15678
2.15682
2.15687
2.15693
2.15702
2.30641
2.3063
2.30622
2.30617
2.30612
2.30609
2.30606
2.30604
2.30602
2.306
2.30599
2.30598
2.30597
2.30596
2.30595
2.30594
2.30594
2.30593
2.30593
2.30593
2.30592
2.30592
2.30592
2.30592
2.30592
2.30591
2.30591
2.30591
2.30591
2.30591
2.30591
2.30591
2.30591
2.30591
2.30591
2.30592
2.30592
2.30592
2.30592
2.30592
2.30593
2.30593
2.30593
2.30594
2.30594
2.30595
2.30596
2.30597
2.30598
2.30599
2.306
2.30602
2.30604
2.30606
2.30609
2.30612
2.30617
2.30622
2.3063
2.30641
2.43333
2.4332
2.43311
2.43305
2.43301
2.43297
2.43294
2.43291
2.43289
2.43288
2.43286
2.43285
2.43284
2.43283
2.43282
2.43282
2.43281
2.43281
2.4328
2.4328
2.43279
2.43279
2.43279
2.43279
2.43279
2.43278
2.43278
2.43278
2.43278
2.43278
2.43278
2.43278
2.43278
2.43278
2.43278
2.43279
2.43279
2.43279
2.43279
2.43279
2.4328
2.4328
2.43281
2.43281
2.43282
2.43282
2.43283
2.43284
2.43285
2.43286
2.43288
2.43289
2.43291
2.43294
2.43297
2.43301
2.43305
2.43311
2.4332
2.43333
2.54377
2.54362
2.54354
2.54347
2.54342
2.54338
2.54335
2.54333
2.5433
2.54329
2.54327
2.54326
2.54325
2.54324
2.54323
2.54322
2.54322
2.54321
2.54321
2.5432
2.5432
2.5432
2.54319
2.54319
2.54319
2.54319
2.54319
2.54319
2.54319
2.54319
2.54319
2.54319
2.54319
2.54319
2.54319
2.54319
2.54319
2.54319
2.5432
2.5432
2.5432
2.54321
2.54321
2.54322
2.54322
2.54323
2.54324
2.54325
2.54326
2.54327
2.54329
2.5433
2.54333
2.54335
2.54338
2.54342
2.54347
2.54354
2.54362
2.54377
2.64224
2.64208
2.64199
2.64193
2.64187
2.64183
2.6418
2.64177
2.64175
2.64173
2.64172
2.6417
2.64169
2.64168
2.64167
2.64167
2.64166
2.64165
2.64165
2.64165
2.64164
2.64164
2.64164
2.64163
2.64163
2.64163
2.64163
2.64163
2.64163
2.64163
2.64163
2.64163
2.64163
2.64163
2.64163
2.64163
2.64163
2.64164
2.64164
2.64164
2.64165
2.64165
2.64165
2.64166
2.64167
2.64167
2.64168
2.64169
2.6417
2.64172
2.64173
2.64175
2.64177
2.6418
2.64183
2.64187
2.64193
2.64199
2.64208
2.64224
2.73195
2.73179
2.73169
2.73162
2.73157
2.73153
2.7315
2.73147
2.73144
2.73143
2.73141
2.7314
2.73138
2.73137
2.73137
2.73136
2.73135
2.73135
2.73134
2.73134
2.73133
2.73133
2.73133
2.73133
2.73132
2.73132
2.73132
2.73132
2.73132
2.73132
2.73132
2.73132
2.73132
2.73132
2.73132
2.73132
2.73133
2.73133
2.73133
2.73133
2.73134
2.73134
2.73135
2.73135
2.73136
2.73137
2.73137
2.73138
2.7314
2.73141
2.73143
2.73144
2.73147
2.7315
2.73153
2.73157
2.73162
2.73169
2.73179
2.73195
2.81514
2.81497
2.81488
2.81481
2.81475
2.81471
2.81468
2.81465
2.81462
2.8146
2.81459
2.81457
2.81456
2.81455
2.81454
2.81454
2.81453
2.81452
2.81452
2.81451
2.81451
2.81451
2.8145
2.8145
2.8145
2.8145
2.8145
2.8145
2.8145
2.8145
2.8145
2.8145
2.8145
2.8145
2.8145
2.8145
2.8145
2.8145
2.81451
2.81451
2.81451
2.81452
2.81452
2.81453
2.81454
2.81454
2.81455
2.81456
2.81457
2.81459
2.8146
2.81462
2.81465
2.81468
2.81471
2.81475
2.81481
2.81488
2.81497
2.81514
2.89338
2.89321
2.89311
2.89304
2.89299
2.89294
2.89291
2.89288
2.89285
2.89283
2.89282
2.8928
2.89279
2.89278
2.89277
2.89276
2.89276
2.89275
2.89275
2.89274
2.89274
2.89273
2.89273
2.89273
2.89273
2.89273
2.89272
2.89272
2.89272
2.89272
2.89272
2.89272
2.89272
2.89272
2.89273
2.89273
2.89273
2.89273
2.89273
2.89274
2.89274
2.89275
2.89275
2.89276
2.89276
2.89277
2.89278
2.89279
2.8928
2.89282
2.89283
2.89285
2.89288
2.89291
2.89294
2.89299
2.89304
2.89311
2.89321
2.89338
2.96779
2.96762
2.96752
2.96744
2.96739
2.96735
2.96731
2.96728
2.96726
2.96724
2.96722
2.9672
2.96719
2.96718
2.96717
2.96716
2.96716
2.96715
2.96715
2.96714
2.96714
2.96713
2.96713
2.96713
2.96713
2.96713
2.96712
2.96712
2.96712
2.96712
2.96712
2.96712
2.96712
2.96712
2.96713
2.96713
2.96713
2.96713
2.96713
2.96714
2.96714
2.96715
2.96715
2.96716
2.96716
2.96717
2.96718
2.96719
2.9672
2.96722
2.96724
2.96726
2.96728
2.96731
2.96735
2.96739
2.96744
2.96752
2.96762
2.96779
3.03919
3.03902
3.03892
3.03885
3.03879
3.03875
3.03871
3.03868
3.03866
3.03864
3.03862
3.0386
3.03859
3.03858
3.03857
3.03856
3.03856
3.03855
3.03855
3.03854
3.03854
3.03853
3.03853
3.03853
3.03853
3.03852
3.03852
3.03852
3.03852
3.03852
3.03852
3.03852
3.03852
3.03852
3.03852
3.03853
3.03853
3.03853
3.03853
3.03854
3.03854
3.03855
3.03855
3.03856
3.03856
3.03857
3.03858
3.03859
3.0386
3.03862
3.03864
3.03866
3.03868
3.03871
3.03875
3.03879
3.03885
3.03892
3.03902
3.03919
3.10823
3.10806
3.10796
3.10788
3.10783
3.10778
3.10775
3.10772
3.10769
3.10767
3.10765
3.10764
3.10763
3.10761
3.1076
3.1076
3.10759
3.10758
3.10758
3.10757
3.10757
3.10757
3.10756
3.10756
3.10756
3.10756
3.10756
3.10755
3.10755
3.10755
3.10755
3.10755
3.10755
3.10756
3.10756
3.10756
3.10756
3.10756
3.10757
3.10757
3.10757
3.10758
3.10758
3.10759
3.1076
3.1076
3.10761
3.10763
3.10764
3.10765
3.10767
3.10769
3.10772
3.10775
3.10778
3.10783
3.10788
3.10796
3.10806
3.10823
3.17539
3.17523
3.17512
3.17505
3.17499
3.17495
3.17491
3.17488
3.17486
3.17483
3.17482
3.1748
3.17479
3.17478
3.17477
3.17476
3.17475
3.17475
3.17474
3.17474
3.17473
3.17473
3.17473
3.17472
3.17472
3.17472
3.17472
3.17472
3.17472
3.17472
3.17472
3.17472
3.17472
3.17472
3.17472
3.17472
3.17472
3.17473
3.17473
3.17473
3.17474
3.17474
3.17475
3.17475
3.17476
3.17477
3.17478
3.17479
3.1748
3.17482
3.17483
3.17486
3.17488
3.17491
3.17495
3.17499
3.17505
3.17512
3.17523
3.17539
3.24109
3.24093
3.24082
3.24075
3.24069
3.24065
3.24061
3.24058
3.24055
3.24053
3.24051
3.2405
3.24049
3.24047
3.24046
3.24046
3.24045
3.24044
3.24044
3.24043
3.24043
3.24043
3.24042
3.24042
3.24042
3.24042
3.24041
3.24041
3.24041
3.24041
3.24041
3.24041
3.24041
3.24041
3.24042
3.24042
3.24042
3.24042
3.24043
3.24043
3.24043
3.24044
3.24044
3.24045
3.24046
3.24046
3.24047
3.24049
3.2405
3.24051
3.24053
3.24055
3.24058
3.24061
3.24065
3.24069
3.24075
3.24082
3.24093
3.24109
3.30565
3.30549
3.30539
3.30531
3.30526
3.30521
3.30517
3.30514
3.30512
3.30509
3.30508
3.30506
3.30505
3.30504
3.30503
3.30502
3.30501
3.30501
3.305
3.30499
3.30499
3.30499
3.30498
3.30498
3.30498
3.30498
3.30498
3.30498
3.30497
3.30497
3.30497
3.30497
3.30498
3.30498
3.30498
3.30498
3.30498
3.30498
3.30499
3.30499
3.30499
3.305
3.30501
3.30501
3.30502
3.30503
3.30504
3.30505
3.30506
3.30508
3.30509
3.30512
3.30514
3.30517
3.30521
3.30526
3.30531
3.30539
3.30549
3.30565
3.36936
3.3692
3.3691
3.36902
3.36897
3.36892
3.36888
3.36885
3.36883
3.3688
3.36879
3.36877
3.36876
3.36875
3.36874
3.36873
3.36872
3.36871
3.36871
3.3687
3.3687
3.36869
3.36869
3.36869
3.36869
3.36869
3.36868
3.36868
3.36868
3.36868
3.36868
3.36868
3.36868
3.36868
3.36869
3.36869
3.36869
3.36869
3.36869
3.3687
3.3687
3.36871
3.36871
3.36872
3.36873
3.36874
3.36875
3.36876
3.36877
3.36879
3.3688
3.36883
3.36885
3.36888
3.36892
3.36897
3.36902
3.3691
3.3692
3.36936
3.43245
3.4323
3.43219
3.43212
3.43206
3.43202
3.43198
3.43195
3.43192
3.4319
3.43188
3.43186
3.43185
3.43184
3.43183
3.43182
3.43181
3.43181
3.4318
3.4318
3.43179
3.43179
3.43179
3.43178
3.43178
3.43178
3.43178
3.43178
3.43178
3.43178
3.43178
3.43178
3.43178
3.43178
3.43178
3.43178
3.43178
3.43179
3.43179
3.43179
3.4318
3.4318
3.43181
3.43181
3.43182
3.43183
3.43184
3.43185
3.43186
3.43188
3.4319
3.43192
3.43195
3.43198
3.43202
3.43206
3.43212
3.43219
3.4323
3.43245
3.49514
3.49499
3.49488
3.49481
3.49475
3.49471
3.49467
3.49464
3.49461
3.49459
3.49457
3.49455
3.49454
3.49453
3.49452
3.49451
3.4945
3.4945
3.49449
3.49448
3.49448
3.49448
3.49447
3.49447
3.49447
3.49447
3.49447
3.49446
3.49446
3.49446
3.49446
3.49446
3.49446
3.49447
3.49447
3.49447
3.49447
3.49447
3.49448
3.49448
3.49448
3.49449
3.4945
3.4945
3.49451
3.49452
3.49453
3.49454
3.49455
3.49457
3.49459
3.49461
3.49464
3.49467
3.49471
3.49475
3.49481
3.49488
3.49499
3.49514
3.55761
3.55746
3.55735
3.55728
3.55722
3.55717
3.55714
3.5571
3.55708
3.55706
3.55704
3.55702
3.55701
3.557
3.55699
3.55698
3.55697
3.55696
3.55696
3.55695
3.55695
3.55694
3.55694
3.55694
3.55694
3.55693
3.55693
3.55693
3.55693
3.55693
3.55693
3.55693
3.55693
3.55693
3.55693
3.55694
3.55694
3.55694
3.55694
3.55695
3.55695
3.55696
3.55696
3.55697
3.55698
3.55699
3.557
3.55701
3.55702
3.55704
3.55706
3.55708
3.5571
3.55714
3.55717
3.55722
3.55728
3.55735
3.55746
3.55761
3.62002
3.61987
3.61977
3.61969
3.61963
3.61959
3.61955
3.61952
3.61949
3.61947
3.61945
3.61943
3.61942
3.61941
3.6194
3.61939
3.61938
3.61938
3.61937
3.61936
3.61936
3.61936
3.61935
3.61935
3.61935
3.61935
3.61934
3.61934
3.61934
3.61934
3.61934
3.61934
3.61934
3.61934
3.61935
3.61935
3.61935
3.61935
3.61936
3.61936
3.61936
3.61937
3.61938
3.61938
3.61939
3.6194
3.61941
3.61942
3.61943
3.61945
3.61947
3.61949
3.61952
3.61955
3.61959
3.61963
3.61969
3.61977
3.61987
3.62002
3.68252
3.68238
3.68227
3.6822
3.68214
3.68209
3.68206
3.68202
3.682
3.68197
3.68196
3.68194
3.68193
3.68191
3.6819
3.6819
3.68189
3.68188
3.68187
3.68187
3.68187
3.68186
3.68186
3.68186
3.68185
3.68185
3.68185
3.68185
3.68185
3.68185
3.68185
3.68185
3.68185
3.68185
3.68185
3.68185
3.68186
3.68186
3.68186
3.68187
3.68187
3.68187
3.68188
3.68189
3.6819
3.6819
3.68191
3.68193
3.68194
3.68196
3.68197
3.682
3.68202
3.68206
3.68209
3.68214
3.6822
3.68227
3.68238
3.68252
3.74525
3.74512
3.74501
3.74494
3.74488
3.74483
3.74479
3.74476
3.74473
3.74471
3.74469
3.74468
3.74466
3.74465
3.74464
3.74463
3.74462
3.74462
3.74461
3.74461
3.7446
3.7446
3.74459
3.74459
3.74459
3.74459
3.74459
3.74458
3.74458
3.74458
3.74458
3.74458
3.74458
3.74459
3.74459
3.74459
3.74459
3.74459
3.7446
3.7446
3.74461
3.74461
3.74462
3.74462
3.74463
3.74464
3.74465
3.74466
3.74468
3.74469
3.74471
3.74473
3.74476
3.74479
3.74483
3.74488
3.74494
3.74501
3.74512
3.74525
3.80834
3.80821
3.80811
3.80803
3.80797
3.80792
3.80789
3.80785
3.80783
3.8078
3.80779
3.80777
3.80776
3.80774
3.80773
3.80772
3.80772
3.80771
3.8077
3.8077
3.80769
3.80769
3.80769
3.80768
3.80768
3.80768
3.80768
3.80768
3.80768
3.80768
3.80768
3.80768
3.80768
3.80768
3.80768
3.80768
3.80768
3.80769
3.80769
3.80769
3.8077
3.8077
3.80771
3.80772
3.80772
3.80773
3.80774
3.80776
3.80777
3.80779
3.8078
3.80783
3.80785
3.80789
3.80792
3.80797
3.80803
3.80811
3.80821
3.80834
3.87191
3.87178
3.87167
3.8716
3.87154
3.87149
3.87145
3.87142
3.8714
3.87137
3.87135
3.87134
3.87132
3.87131
3.8713
3.87129
3.87128
3.87128
3.87127
3.87127
3.87126
3.87126
3.87125
3.87125
3.87125
3.87125
3.87125
3.87124
3.87124
3.87124
3.87124
3.87124
3.87124
3.87125
3.87125
3.87125
3.87125
3.87125
3.87126
3.87126
3.87127
3.87127
3.87128
3.87128
3.87129
3.8713
3.87131
3.87132
3.87134
3.87135
3.87137
3.8714
3.87142
3.87145
3.87149
3.87154
3.8716
3.87167
3.87178
3.87191
3.93606
3.93593
3.93583
3.93575
3.9357
3.93565
3.93561
3.93558
3.93555
3.93553
3.93551
3.93549
3.93548
3.93547
3.93545
3.93545
3.93544
3.93543
3.93542
3.93542
3.93541
3.93541
3.93541
3.9354
3.9354
3.9354
3.9354
3.9354
3.9354
3.9354
3.9354
3.9354
3.9354
3.9354
3.9354
3.9354
3.9354
3.93541
3.93541
3.93541
3.93542
3.93542
3.93543
3.93544
3.93545
3.93545
3.93547
3.93548
3.93549
3.93551
3.93553
3.93555
3.93558
3.93561
3.93565
3.9357
3.93575
3.93583
3.93593
3.93606
4.0009
4.00078
4.00068
4.0006
4.00054
4.0005
4.00046
4.00042
4.0004
4.00037
4.00036
4.00034
4.00032
4.00031
4.0003
4.00029
4.00028
4.00028
4.00027
4.00027
4.00026
4.00026
4.00025
4.00025
4.00025
4.00025
4.00025
4.00024
4.00024
4.00024
4.00024
4.00024
4.00024
4.00025
4.00025
4.00025
4.00025
4.00025
4.00026
4.00026
4.00027
4.00027
4.00028
4.00028
4.00029
4.0003
4.00031
4.00032
4.00034
4.00036
4.00037
4.0004
4.00042
4.00046
4.0005
4.00054
4.0006
4.00068
4.00078
4.0009
4.06654
4.06642
4.06632
4.06624
4.06618
4.06614
4.0661
4.06607
4.06604
4.06602
4.066
4.06598
4.06596
4.06595
4.06594
4.06593
4.06592
4.06592
4.06591
4.06591
4.0659
4.0659
4.06589
4.06589
4.06589
4.06589
4.06589
4.06588
4.06588
4.06588
4.06588
4.06588
4.06588
4.06589
4.06589
4.06589
4.06589
4.06589
4.0659
4.0659
4.06591
4.06591
4.06592
4.06592
4.06593
4.06594
4.06595
4.06596
4.06598
4.066
4.06602
4.06604
4.06607
4.0661
4.06614
4.06618
4.06624
4.06632
4.06642
4.06654
4.13306
4.13295
4.13285
4.13278
4.13272
4.13267
4.13263
4.1326
4.13257
4.13255
4.13253
4.13251
4.1325
4.13248
4.13247
4.13246
4.13246
4.13245
4.13244
4.13244
4.13243
4.13243
4.13243
4.13242
4.13242
4.13242
4.13242
4.13242
4.13242
4.13242
4.13242
4.13242
4.13242
4.13242
4.13242
4.13242
4.13242
4.13243
4.13243
4.13243
4.13244
4.13244
4.13245
4.13246
4.13246
4.13247
4.13248
4.1325
4.13251
4.13253
4.13255
4.13257
4.1326
4.13263
4.13267
4.13272
4.13278
4.13285
4.13295
4.13306
4.20058
4.20047
4.20037
4.2003
4.20024
4.20019
4.20015
4.20012
4.20009
4.20007
4.20005
4.20003
4.20002
4.2
4.19999
4.19998
4.19998
4.19997
4.19996
4.19996
4.19995
4.19995
4.19994
4.19994
4.19994
4.19994
4.19994
4.19993
4.19993
4.19993
4.19993
4.19993
4.19993
4.19994
4.19994
4.19994
4.19994
4.19994
4.19995
4.19995
4.19996
4.19996
4.19997
4.19998
4.19998
4.19999
4.2
4.20002
4.20003
4.20005
4.20007
4.20009
4.20012
4.20015
4.20019
4.20024
4.2003
4.20037
4.20047
4.20058
4.26917
4.26906
4.26897
4.26889
4.26884
4.26879
4.26875
4.26872
4.26869
4.26867
4.26865
4.26863
4.26862
4.2686
4.26859
4.26858
4.26857
4.26857
4.26856
4.26856
4.26855
4.26855
4.26854
4.26854
4.26854
4.26854
4.26853
4.26853
4.26853
4.26853
4.26853
4.26853
4.26853
4.26853
4.26854
4.26854
4.26854
4.26854
4.26855
4.26855
4.26856
4.26856
4.26857
4.26857
4.26858
4.26859
4.2686
4.26862
4.26863
4.26865
4.26867
4.26869
4.26872
4.26875
4.26879
4.26884
4.26889
4.26897
4.26906
4.26917
4.33894
4.33883
4.33874
4.33866
4.33861
4.33856
4.33852
4.33849
4.33846
4.33844
4.33842
4.3384
4.33838
4.33837
4.33836
4.33835
4.33834
4.33834
4.33833
4.33832
4.33832
4.33832
4.33831
4.33831
4.33831
4.3383
4.3383
4.3383
4.3383
4.3383
4.3383
4.3383
4.3383
4.3383
4.3383
4.33831
4.33831
4.33831
4.33832
4.33832
4.33832
4.33833
4.33834
4.33834
4.33835
4.33836
4.33837
4.33838
4.3384
4.33842
4.33844
4.33846
4.33849
4.33852
4.33856
4.33861
4.33866
4.33874
4.33883
4.33894
4.40996
4.40986
4.40977
4.40969
4.40964
4.40959
4.40955
4.40952
4.40949
4.40947
4.40945
4.40943
4.40941
4.4094
4.40939
4.40938
4.40937
4.40936
4.40936
4.40935
4.40935
4.40934
4.40934
4.40934
4.40933
4.40933
4.40933
4.40933
4.40933
4.40933
4.40933
4.40933
4.40933
4.40933
4.40933
4.40933
4.40934
4.40934
4.40934
4.40935
4.40935
4.40936
4.40936
4.40937
4.40938
4.40939
4.4094
4.40941
4.40943
4.40945
4.40947
4.40949
4.40952
4.40955
4.40959
4.40964
4.40969
4.40977
4.40986
4.40996
4.48233
4.48223
4.48214
4.48207
4.48201
4.48197
4.48193
4.48189
4.48187
4.48184
4.48182
4.48181
4.48179
4.48178
4.48177
4.48176
4.48175
4.48174
4.48174
4.48173
4.48173
4.48172
4.48172
4.48171
4.48171
4.48171
4.48171
4.48171
4.48171
4.48171
4.48171
4.48171
4.48171
4.48171
4.48171
4.48171
4.48171
4.48172
4.48172
4.48173
4.48173
4.48174
4.48174
4.48175
4.48176
4.48177
4.48178
4.48179
4.48181
4.48182
4.48184
4.48187
4.48189
4.48193
4.48197
4.48201
4.48207
4.48214
4.48223
4.48233
4.55614
4.55605
4.55596
4.55589
4.55583
4.55578
4.55574
4.55571
4.55568
4.55566
4.55564
4.55562
4.55561
4.55559
4.55558
4.55557
4.55556
4.55556
4.55555
4.55554
4.55554
4.55554
4.55553
4.55553
4.55553
4.55552
4.55552
4.55552
4.55552
4.55552
4.55552
4.55552
4.55552
4.55552
4.55552
4.55553
4.55553
4.55553
4.55554
4.55554
4.55554
4.55555
4.55556
4.55556
4.55557
4.55558
4.55559
4.55561
4.55562
4.55564
4.55566
4.55568
4.55571
4.55574
4.55578
4.55583
4.55589
4.55596
4.55605
4.55614
4.63148
4.63138
4.6313
4.63122
4.63117
4.63112
4.63108
4.63105
4.63102
4.631
4.63098
4.63096
4.63095
4.63093
4.63092
4.63091
4.6309
4.6309
4.63089
4.63088
4.63088
4.63087
4.63087
4.63087
4.63087
4.63086
4.63086
4.63086
4.63086
4.63086
4.63086
4.63086
4.63086
4.63086
4.63086
4.63087
4.63087
4.63087
4.63087
4.63088
4.63088
4.63089
4.6309
4.6309
4.63091
4.63092
4.63093
4.63095
4.63096
4.63098
4.631
4.63102
4.63105
4.63108
4.63112
4.63117
4.63122
4.6313
4.63138
4.63148
4.70842
4.70833
4.70825
4.70818
4.70812
4.70807
4.70803
4.708
4.70797
4.70795
4.70793
4.70791
4.7079
4.70788
4.70787
4.70786
4.70785
4.70785
4.70784
4.70784
4.70783
4.70783
4.70782
4.70782
4.70782
4.70781
4.70781
4.70781
4.70781
4.70781
4.70781
4.70781
4.70781
4.70781
4.70781
4.70782
4.70782
4.70782
4.70783
4.70783
4.70784
4.70784
4.70785
4.70785
4.70786
4.70787
4.70788
4.7079
4.70791
4.70793
4.70795
4.70797
4.708
4.70803
4.70807
4.70812
4.70818
4.70825
4.70833
4.70842
4.78707
4.78698
4.7869
4.78683
4.78677
4.78673
4.78669
4.78665
4.78663
4.7866
4.78658
4.78657
4.78655
4.78654
4.78653
4.78652
4.78651
4.7865
4.78649
4.78649
4.78648
4.78648
4.78647
4.78647
4.78647
4.78647
4.78647
4.78646
4.78646
4.78646
4.78646
4.78646
4.78646
4.78647
4.78647
4.78647
4.78647
4.78647
4.78648
4.78648
4.78649
4.78649
4.7865
4.78651
4.78652
4.78653
4.78654
4.78655
4.78657
4.78658
4.7866
4.78663
4.78665
4.78669
4.78673
4.78677
4.78683
4.7869
4.78698
4.78707
4.8675
4.86742
4.86734
4.86727
4.86721
4.86717
4.86713
4.8671
4.86707
4.86704
4.86702
4.86701
4.86699
4.86698
4.86697
4.86696
4.86695
4.86694
4.86693
4.86693
4.86692
4.86692
4.86692
4.86691
4.86691
4.86691
4.86691
4.8669
4.8669
4.8669
4.8669
4.8669
4.8669
4.86691
4.86691
4.86691
4.86691
4.86692
4.86692
4.86692
4.86693
4.86693
4.86694
4.86695
4.86696
4.86697
4.86698
4.86699
4.86701
4.86702
4.86704
4.86707
4.8671
4.86713
4.86717
4.86721
4.86727
4.86734
4.86742
4.8675
4.94982
4.94974
4.94966
4.94959
4.94953
4.94949
4.94945
4.94941
4.94939
4.94936
4.94934
4.94933
4.94931
4.9493
4.94929
4.94928
4.94927
4.94926
4.94925
4.94925
4.94924
4.94924
4.94923
4.94923
4.94923
4.94923
4.94922
4.94922
4.94922
4.94922
4.94922
4.94922
4.94922
4.94922
4.94923
4.94923
4.94923
4.94923
4.94924
4.94924
4.94925
4.94925
4.94926
4.94927
4.94928
4.94929
4.9493
4.94931
4.94933
4.94934
4.94936
4.94939
4.94941
4.94945
4.94949
4.94953
4.94959
4.94966
4.94974
4.94982
5.0341
5.03402
5.03394
5.03387
5.03382
5.03377
5.03373
5.0337
5.03367
5.03365
5.03363
5.03361
5.0336
5.03358
5.03357
5.03356
5.03355
5.03355
5.03354
5.03353
5.03353
5.03352
5.03352
5.03352
5.03351
5.03351
5.03351
5.03351
5.03351
5.03351
5.03351
5.03351
5.03351
5.03351
5.03351
5.03351
5.03352
5.03352
5.03352
5.03353
5.03353
5.03354
5.03355
5.03355
5.03356
5.03357
5.03358
5.0336
5.03361
5.03363
5.03365
5.03367
5.0337
5.03373
5.03377
5.03382
5.03387
5.03394
5.03402
5.0341
5.12043
5.12036
5.12028
5.12022
5.12016
5.12012
5.12008
5.12005
5.12002
5.12
5.11997
5.11996
5.11994
5.11993
5.11992
5.11991
5.1199
5.11989
5.11988
5.11988
5.11987
5.11987
5.11986
5.11986
5.11986
5.11986
5.11985
5.11985
5.11985
5.11985
5.11985
5.11985
5.11985
5.11985
5.11986
5.11986
5.11986
5.11986
5.11987
5.11987
5.11988
5.11988
5.11989
5.1199
5.11991
5.11992
5.11993
5.11994
5.11996
5.11997
5.12
5.12002
5.12005
5.12008
5.12012
5.12016
5.12022
5.12028
5.12036
5.12043
5.20892
5.20885
5.20878
5.20871
5.20866
5.20861
5.20857
5.20854
5.20851
5.20849
5.20847
5.20845
5.20844
5.20842
5.20841
5.2084
5.20839
5.20838
5.20838
5.20837
5.20837
5.20836
5.20836
5.20835
5.20835
5.20835
5.20835
5.20835
5.20835
5.20835
5.20835
5.20835
5.20835
5.20835
5.20835
5.20835
5.20835
5.20836
5.20836
5.20837
5.20837
5.20838
5.20838
5.20839
5.2084
5.20841
5.20842
5.20844
5.20845
5.20847
5.20849
5.20851
5.20854
5.20857
5.20861
5.20866
5.20871
5.20878
5.20885
5.20892
5.29965
5.29958
5.29951
5.29945
5.29939
5.29935
5.29931
5.29928
5.29925
5.29923
5.29921
5.29919
5.29917
5.29916
5.29915
5.29914
5.29913
5.29912
5.29911
5.29911
5.2991
5.2991
5.29909
5.29909
5.29909
5.29909
5.29908
5.29908
5.29908
5.29908
5.29908
5.29908
5.29908
5.29908
5.29909
5.29909
5.29909
5.29909
5.2991
5.2991
5.29911
5.29911
5.29912
5.29913
5.29914
5.29915
5.29916
5.29917
5.29919
5.29921
5.29923
5.29925
5.29928
5.29931
5.29935
5.29939
5.29945
5.29951
5.29958
5.29965
5.39272
5.39265
5.39258
5.39252
5.39246
5.39242
5.39238
5.39235
5.39232
5.3923
5.39228
5.39226
5.39225
5.39223
5.39222
5.39221
5.3922
5.39219
5.39219
5.39218
5.39218
5.39217
5.39217
5.39216
5.39216
5.39216
5.39216
5.39216
5.39216
5.39215
5.39215
5.39216
5.39216
5.39216
5.39216
5.39216
5.39216
5.39217
5.39217
5.39218
5.39218
5.39219
5.39219
5.3922
5.39221
5.39222
5.39223
5.39225
5.39226
5.39228
5.3923
5.39232
5.39235
5.39238
5.39242
5.39246
5.39252
5.39258
5.39265
5.39272
5.48821
5.48815
5.48808
5.48802
5.48797
5.48793
5.48789
5.48786
5.48783
5.4878
5.48778
5.48777
5.48775
5.48774
5.48773
5.48772
5.48771
5.4877
5.48769
5.48769
5.48768
5.48768
5.48767
5.48767
5.48767
5.48766
5.48766
5.48766
5.48766
5.48766
5.48766
5.48766
5.48766
5.48766
5.48766
5.48767
5.48767
5.48767
5.48768
5.48768
5.48769
5.48769
5.4877
5.48771
5.48772
5.48773
5.48774
5.48775
5.48777
5.48778
5.4878
5.48783
5.48786
5.48789
5.48793
5.48797
5.48802
5.48808
5.48815
5.48821
5.58624
5.58618
5.58611
5.58605
5.586
5.58596
5.58592
5.58589
5.58586
5.58584
5.58582
5.5858
5.58579
5.58577
5.58576
5.58575
5.58574
5.58573
5.58573
5.58572
5.58571
5.58571
5.58571
5.5857
5.5857
5.5857
5.5857
5.58569
5.58569
5.58569
5.58569
5.58569
5.58569
5.5857
5.5857
5.5857
5.5857
5.58571
5.58571
5.58571
5.58572
5.58573
5.58573
5.58574
5.58575
5.58576
5.58577
5.58579
5.5858
5.58582
5.58584
5.58586
5.58589
5.58592
5.58596
5.586
5.58605
5.58611
5.58618
5.58624
5.68689
5.68684
5.68677
5.68671
5.68666
5.68662
5.68658
5.68655
5.68652
5.6865
5.68648
5.68646
5.68645
5.68643
5.68642
5.68641
5.6864
5.68639
5.68639
5.68638
5.68638
5.68637
5.68637
5.68636
5.68636
5.68636
5.68636
5.68636
5.68635
5.68635
5.68635
5.68635
5.68636
5.68636
5.68636
5.68636
5.68636
5.68637
5.68637
5.68638
5.68638
5.68639
5.68639
5.6864
5.68641
5.68642
5.68643
5.68645
5.68646
5.68648
5.6865
5.68652
5.68655
5.68658
5.68662
5.68666
5.68671
5.68677
5.68684
5.68689
5.79028
5.79022
5.79016
5.7901
5.79005
5.79001
5.78997
5.78994
5.78991
5.78989
5.78987
5.78985
5.78984
5.78982
5.78981
5.7898
5.78979
5.78978
5.78978
5.78977
5.78977
5.78976
5.78976
5.78975
5.78975
5.78975
5.78975
5.78975
5.78974
5.78974
5.78974
5.78974
5.78975
5.78975
5.78975
5.78975
5.78975
5.78976
5.78976
5.78977
5.78977
5.78978
5.78978
5.78979
5.7898
5.78981
5.78982
5.78984
5.78985
5.78987
5.78989
5.78991
5.78994
5.78997
5.79001
5.79005
5.7901
5.79016
5.79022
5.79028
5.89649
5.89644
5.89638
5.89632
5.89627
5.89623
5.89619
5.89616
5.89613
5.89611
5.89609
5.89607
5.89606
5.89604
5.89603
5.89602
5.89601
5.896
5.896
5.89599
5.89598
5.89598
5.89598
5.89597
5.89597
5.89597
5.89597
5.89596
5.89596
5.89596
5.89596
5.89596
5.89596
5.89597
5.89597
5.89597
5.89597
5.89598
5.89598
5.89598
5.89599
5.896
5.896
5.89601
5.89602
5.89603
5.89604
5.89606
5.89607
5.89609
5.89611
5.89613
5.89616
5.89619
5.89623
5.89627
5.89632
5.89638
5.89644
5.89649
6.00563
6.00559
6.00553
6.00547
6.00542
6.00538
6.00535
6.00532
6.00529
6.00526
6.00524
6.00523
6.00521
6.0052
6.00519
6.00518
6.00517
6.00516
6.00515
6.00514
6.00514
6.00513
6.00513
6.00513
6.00512
6.00512
6.00512
6.00512
6.00512
6.00512
6.00512
6.00512
6.00512
6.00512
6.00512
6.00512
6.00513
6.00513
6.00513
6.00514
6.00514
6.00515
6.00516
6.00517
6.00518
6.00519
6.0052
6.00521
6.00523
6.00524
6.00526
6.00529
6.00532
6.00535
6.00538
6.00542
6.00547
6.00553
6.00559
6.00563
6.11782
6.11777
6.11772
6.11766
6.11762
6.11758
6.11754
6.11751
6.11748
6.11746
6.11744
6.11742
6.11741
6.11739
6.11738
6.11737
6.11736
6.11735
6.11735
6.11734
6.11733
6.11733
6.11733
6.11732
6.11732
6.11732
6.11732
6.11731
6.11731
6.11731
6.11731
6.11731
6.11731
6.11732
6.11732
6.11732
6.11732
6.11733
6.11733
6.11733
6.11734
6.11735
6.11735
6.11736
6.11737
6.11738
6.11739
6.11741
6.11742
6.11744
6.11746
6.11748
6.11751
6.11754
6.11758
6.11762
6.11766
6.11772
6.11777
6.11782
6.23316
6.23311
6.23306
6.23301
6.23296
6.23292
6.23288
6.23285
6.23283
6.2328
6.23278
6.23277
6.23275
6.23274
6.23273
6.23272
6.23271
6.2327
6.23269
6.23268
6.23268
6.23267
6.23267
6.23267
6.23266
6.23266
6.23266
6.23266
6.23266
6.23266
6.23266
6.23266
6.23266
6.23266
6.23266
6.23266
6.23267
6.23267
6.23267
6.23268
6.23268
6.23269
6.2327
6.23271
6.23272
6.23273
6.23274
6.23275
6.23277
6.23278
6.2328
6.23283
6.23285
6.23288
6.23292
6.23296
6.23301
6.23306
6.23311
6.23316
6.35175
6.35171
6.35166
6.35161
6.35156
6.35152
6.35149
6.35146
6.35143
6.35141
6.35139
6.35137
6.35136
6.35134
6.35133
6.35132
6.35131
6.3513
6.35129
6.35129
6.35128
6.35128
6.35127
6.35127
6.35127
6.35127
6.35126
6.35126
6.35126
6.35126
6.35126
6.35126
6.35126
6.35126
6.35127
6.35127
6.35127
6.35127
6.35128
6.35128
6.35129
6.35129
6.3513
6.35131
6.35132
6.35133
6.35134
6.35136
6.35137
6.35139
6.35141
6.35143
6.35146
6.35149
6.35152
6.35156
6.35161
6.35166
6.35171
6.35175
6.47372
6.47368
6.47363
6.47358
6.47354
6.4735
6.47347
6.47344
6.47341
6.47339
6.47337
6.47335
6.47333
6.47332
6.47331
6.4733
6.47329
6.47328
6.47327
6.47327
6.47326
6.47326
6.47325
6.47325
6.47325
6.47324
6.47324
6.47324
6.47324
6.47324
6.47324
6.47324
6.47324
6.47324
6.47324
6.47325
6.47325
6.47325
6.47326
6.47326
6.47327
6.47327
6.47328
6.47329
6.4733
6.47331
6.47332
6.47333
6.47335
6.47337
6.47339
6.47341
6.47344
6.47347
6.4735
6.47354
6.47358
6.47363
6.47368
6.47372
6.59918
6.59914
6.59909
6.59905
6.599
6.59896
6.59893
6.5989
6.59888
6.59885
6.59883
6.59881
6.5988
6.59879
6.59877
6.59876
6.59875
6.59875
6.59874
6.59873
6.59873
6.59872
6.59872
6.59871
6.59871
6.59871
6.59871
6.59871
6.5987
6.5987
6.5987
6.5987
6.59871
6.59871
6.59871
6.59871
6.59871
6.59872
6.59872
6.59873
6.59873
6.59874
6.59875
6.59875
6.59876
6.59877
6.59879
6.5988
6.59881
6.59883
6.59885
6.59888
6.5989
6.59893
6.59896
6.599
6.59905
6.59909
6.59914
6.59918
6.72824
6.72821
6.72816
6.72811
6.72807
6.72804
6.728
6.72797
6.72795
6.72793
6.72791
6.72789
6.72787
6.72786
6.72785
6.72784
6.72783
6.72782
6.72781
6.72781
6.7278
6.72779
6.72779
6.72779
6.72778
6.72778
6.72778
6.72778
6.72778
6.72778
6.72778
6.72778
6.72778
6.72778
6.72778
6.72778
6.72779
6.72779
6.72779
6.7278
6.72781
6.72781
6.72782
6.72783
6.72784
6.72785
6.72786
6.72787
6.72789
6.72791
6.72793
6.72795
6.72797
6.728
6.72804
6.72807
6.72811
6.72816
6.72821
6.72824
6.86103
6.861
6.86096
6.86091
6.86087
6.86083
6.8608
6.86077
6.86075
6.86073
6.86071
6.86069