/*--------------------------------*- C++ -*----------------------------------*\
| =========                 |                                                 |
| \\      /  F ield         | foam-extend: Open Source CFD                    |
|  \\    /   O peration     | Version:     4.0                                |
|   \\  /    A nd           | Web:         http://www.foam-extend.org         |
|    \\/     M anipulation  |                                                 |
\*---------------------------------------------------------------------------*/
FoamFile
{
    version     2.0;
    format      ascii;
    class       volScalarField;
    location    "1070";
    object      cPlus;
}
// * * * * * * * * * * * * * * * * * * * * * * * * * * * * * * * * * * * * * //

dimensions      [0 0 0 0 0 0 0];

internalField   nonuniform List<scalar> 
6960
(
0.276632
0.276599
0.276564
0.276535
0.27651
0.276491
0.276476
0.276465
0.276456
0.27645
0.276445
0.276441
0.276438
0.276436
0.276434
0.276433
0.276432
0.276431
0.276431
0.27643
0.27643
0.27643
0.27643
0.276429
0.276429
0.276429
0.276429
0.276429
0.276429
0.276429
0.276429
0.276429
0.276429
0.276429
0.276429
0.276429
0.276429
0.27643
0.27643
0.27643
0.27643
0.276431
0.276431
0.276432
0.276433
0.276434
0.276436
0.276438
0.276441
0.276445
0.27645
0.276456
0.276465
0.276476
0.276491
0.27651
0.276535
0.276564
0.276599
0.276632
0.0765459
0.0765287
0.0765104
0.0764945
0.0764815
0.0764712
0.0764631
0.076457
0.0764523
0.0764487
0.076446
0.076444
0.0764424
0.0764413
0.0764404
0.0764397
0.0764392
0.0764388
0.0764385
0.0764383
0.0764381
0.0764379
0.0764378
0.0764377
0.0764377
0.0764376
0.0764376
0.0764376
0.0764376
0.0764375
0.0764375
0.0764376
0.0764376
0.0764376
0.0764376
0.0764377
0.0764377
0.0764378
0.0764379
0.0764381
0.0764383
0.0764385
0.0764388
0.0764392
0.0764397
0.0764404
0.0764413
0.0764424
0.076444
0.076446
0.0764487
0.0764523
0.076457
0.0764631
0.0764712
0.0764815
0.0764945
0.0765104
0.0765287
0.0765459
0.0277202
0.0277145
0.027708
0.0277022
0.0276974
0.0276936
0.0276907
0.0276884
0.0276866
0.0276853
0.0276843
0.0276835
0.027683
0.0276825
0.0276822
0.0276819
0.0276817
0.0276816
0.0276815
0.0276814
0.0276813
0.0276813
0.0276812
0.0276812
0.0276812
0.0276811
0.0276811
0.0276811
0.0276811
0.0276811
0.0276811
0.0276811
0.0276811
0.0276811
0.0276811
0.0276812
0.0276812
0.0276812
0.0276813
0.0276813
0.0276814
0.0276815
0.0276816
0.0276817
0.0276819
0.0276822
0.0276825
0.027683
0.0276835
0.0276843
0.0276853
0.0276866
0.0276884
0.0276907
0.0276936
0.0276974
0.0277022
0.027708
0.0277145
0.0277202
0.0144976
0.0144977
0.014497
0.0144963
0.0144956
0.0144951
0.0144947
0.0144944
0.0144941
0.0144939
0.0144937
0.0144936
0.0144935
0.0144934
0.0144934
0.0144933
0.0144933
0.0144933
0.0144932
0.0144932
0.0144932
0.0144932
0.0144932
0.0144932
0.0144932
0.0144932
0.0144932
0.0144932
0.0144932
0.0144932
0.0144932
0.0144932
0.0144932
0.0144932
0.0144932
0.0144932
0.0144932
0.0144932
0.0144932
0.0144932
0.0144932
0.0144932
0.0144933
0.0144933
0.0144933
0.0144934
0.0144934
0.0144935
0.0144936
0.0144937
0.0144939
0.0144941
0.0144944
0.0144947
0.0144951
0.0144956
0.0144963
0.014497
0.0144977
0.0144976
0.010942
0.0109445
0.0109462
0.0109476
0.0109487
0.0109495
0.0109502
0.0109506
0.010951
0.0109513
0.0109515
0.0109516
0.0109517
0.0109518
0.0109518
0.0109519
0.0109519
0.0109519
0.010952
0.010952
0.010952
0.010952
0.010952
0.010952
0.010952
0.010952
0.010952
0.010952
0.010952
0.010952
0.010952
0.010952
0.010952
0.010952
0.010952
0.010952
0.010952
0.010952
0.010952
0.010952
0.010952
0.010952
0.0109519
0.0109519
0.0109519
0.0109518
0.0109518
0.0109517
0.0109516
0.0109515
0.0109513
0.010951
0.0109506
0.0109502
0.0109495
0.0109487
0.0109476
0.0109462
0.0109445
0.010942
0.0100626
0.010066
0.0100687
0.0100709
0.0100726
0.0100739
0.010075
0.0100758
0.0100763
0.0100768
0.0100771
0.0100774
0.0100775
0.0100777
0.0100778
0.0100779
0.0100779
0.010078
0.010078
0.010078
0.010078
0.010078
0.0100781
0.0100781
0.0100781
0.0100781
0.0100781
0.0100781
0.0100781
0.0100781
0.0100781
0.0100781
0.0100781
0.0100781
0.0100781
0.0100781
0.0100781
0.0100781
0.010078
0.010078
0.010078
0.010078
0.010078
0.0100779
0.0100779
0.0100778
0.0100777
0.0100775
0.0100774
0.0100771
0.0100768
0.0100763
0.0100758
0.010075
0.0100739
0.0100726
0.0100709
0.0100687
0.010066
0.0100626
0.00991442
0.00991816
0.00992121
0.00992369
0.00992566
0.0099272
0.00992838
0.00992928
0.00992995
0.00993046
0.00993083
0.00993112
0.00993133
0.00993148
0.0099316
0.00993169
0.00993175
0.0099318
0.00993184
0.00993187
0.00993189
0.00993191
0.00993192
0.00993193
0.00993194
0.00993195
0.00993195
0.00993195
0.00993196
0.00993196
0.00993196
0.00993196
0.00993195
0.00993195
0.00993195
0.00993194
0.00993193
0.00993192
0.00993191
0.00993189
0.00993187
0.00993184
0.0099318
0.00993175
0.00993169
0.0099316
0.00993148
0.00993133
0.00993112
0.00993083
0.00993046
0.00992995
0.00992928
0.00992838
0.0099272
0.00992566
0.00992369
0.00992121
0.00991816
0.00991442
0.00996461
0.00996852
0.00997172
0.00997433
0.0099764
0.00997802
0.00997926
0.0099802
0.00998092
0.00998145
0.00998185
0.00998215
0.00998237
0.00998254
0.00998266
0.00998275
0.00998282
0.00998288
0.00998292
0.00998295
0.00998297
0.00998299
0.009983
0.00998301
0.00998302
0.00998303
0.00998303
0.00998304
0.00998304
0.00998304
0.00998304
0.00998304
0.00998304
0.00998303
0.00998303
0.00998302
0.00998301
0.009983
0.00998299
0.00998297
0.00998295
0.00998292
0.00998288
0.00998282
0.00998275
0.00998266
0.00998254
0.00998237
0.00998215
0.00998185
0.00998145
0.00998092
0.0099802
0.00997926
0.00997802
0.0099764
0.00997433
0.00997172
0.00996852
0.00996461
0.0100718
0.0100758
0.0100791
0.0100818
0.0100839
0.0100856
0.0100868
0.0100878
0.0100885
0.0100891
0.0100895
0.0100898
0.01009
0.0100902
0.0100903
0.0100904
0.0100905
0.0100906
0.0100906
0.0100906
0.0100907
0.0100907
0.0100907
0.0100907
0.0100907
0.0100907
0.0100907
0.0100907
0.0100907
0.0100907
0.0100907
0.0100907
0.0100907
0.0100907
0.0100907
0.0100907
0.0100907
0.0100907
0.0100907
0.0100907
0.0100906
0.0100906
0.0100906
0.0100905
0.0100904
0.0100903
0.0100902
0.01009
0.0100898
0.0100895
0.0100891
0.0100885
0.0100878
0.0100868
0.0100856
0.0100839
0.0100818
0.0100791
0.0100758
0.0100718
0.0102001
0.0102042
0.0102076
0.0102103
0.0102125
0.0102142
0.0102155
0.0102165
0.0102173
0.0102178
0.0102182
0.0102186
0.0102188
0.010219
0.0102191
0.0102192
0.0102193
0.0102193
0.0102194
0.0102194
0.0102194
0.0102195
0.0102195
0.0102195
0.0102195
0.0102195
0.0102195
0.0102195
0.0102195
0.0102195
0.0102195
0.0102195
0.0102195
0.0102195
0.0102195
0.0102195
0.0102195
0.0102195
0.0102195
0.0102194
0.0102194
0.0102194
0.0102193
0.0102193
0.0102192
0.0102191
0.010219
0.0102188
0.0102186
0.0102182
0.0102178
0.0102173
0.0102165
0.0102155
0.0102142
0.0102125
0.0102103
0.0102076
0.0102042
0.0102001
0.0103414
0.0103456
0.010349
0.0103518
0.0103541
0.0103558
0.0103572
0.0103582
0.010359
0.0103595
0.01036
0.0103603
0.0103605
0.0103607
0.0103609
0.010361
0.010361
0.0103611
0.0103611
0.0103612
0.0103612
0.0103612
0.0103612
0.0103612
0.0103612
0.0103613
0.0103613
0.0103613
0.0103613
0.0103613
0.0103613
0.0103613
0.0103613
0.0103613
0.0103613
0.0103612
0.0103612
0.0103612
0.0103612
0.0103612
0.0103612
0.0103611
0.0103611
0.010361
0.010361
0.0103609
0.0103607
0.0103605
0.0103603
0.01036
0.0103595
0.010359
0.0103582
0.0103572
0.0103558
0.0103541
0.0103518
0.010349
0.0103456
0.0103414
0.0104945
0.0104989
0.0105024
0.0105053
0.0105076
0.0105094
0.0105107
0.0105118
0.0105126
0.0105132
0.0105136
0.0105139
0.0105142
0.0105144
0.0105145
0.0105146
0.0105147
0.0105148
0.0105148
0.0105148
0.0105149
0.0105149
0.0105149
0.0105149
0.0105149
0.0105149
0.0105149
0.0105149
0.0105149
0.0105149
0.0105149
0.0105149
0.0105149
0.0105149
0.0105149
0.0105149
0.0105149
0.0105149
0.0105149
0.0105149
0.0105148
0.0105148
0.0105148
0.0105147
0.0105146
0.0105145
0.0105144
0.0105142
0.0105139
0.0105136
0.0105132
0.0105126
0.0105118
0.0105107
0.0105094
0.0105076
0.0105053
0.0105024
0.0104989
0.0104945
0.0106604
0.0106648
0.0106684
0.0106714
0.0106738
0.0106756
0.010677
0.0106781
0.0106789
0.0106795
0.01068
0.0106803
0.0106806
0.0106808
0.0106809
0.010681
0.0106811
0.0106812
0.0106812
0.0106812
0.0106813
0.0106813
0.0106813
0.0106813
0.0106813
0.0106813
0.0106813
0.0106813
0.0106813
0.0106813
0.0106813
0.0106813
0.0106813
0.0106813
0.0106813
0.0106813
0.0106813
0.0106813
0.0106813
0.0106813
0.0106812
0.0106812
0.0106812
0.0106811
0.010681
0.0106809
0.0106808
0.0106806
0.0106803
0.01068
0.0106795
0.0106789
0.0106781
0.010677
0.0106756
0.0106738
0.0106714
0.0106684
0.0106648
0.0106604
0.0108403
0.0108448
0.0108486
0.0108516
0.010854
0.0108559
0.0108574
0.0108585
0.0108593
0.01086
0.0108604
0.0108608
0.010861
0.0108612
0.0108614
0.0108615
0.0108616
0.0108616
0.0108617
0.0108617
0.0108618
0.0108618
0.0108618
0.0108618
0.0108618
0.0108618
0.0108618
0.0108618
0.0108618
0.0108618
0.0108618
0.0108618
0.0108618
0.0108618
0.0108618
0.0108618
0.0108618
0.0108618
0.0108618
0.0108618
0.0108617
0.0108617
0.0108616
0.0108616
0.0108615
0.0108614
0.0108612
0.010861
0.0108608
0.0108604
0.01086
0.0108593
0.0108585
0.0108574
0.0108559
0.010854
0.0108516
0.0108486
0.0108448
0.0108403
0.0110359
0.0110406
0.0110445
0.0110476
0.0110501
0.0110521
0.0110536
0.0110547
0.0110556
0.0110562
0.0110567
0.0110571
0.0110574
0.0110576
0.0110577
0.0110578
0.0110579
0.011058
0.011058
0.0110581
0.0110581
0.0110581
0.0110581
0.0110581
0.0110582
0.0110582
0.0110582
0.0110582
0.0110582
0.0110582
0.0110582
0.0110582
0.0110582
0.0110582
0.0110582
0.0110582
0.0110581
0.0110581
0.0110581
0.0110581
0.0110581
0.011058
0.011058
0.0110579
0.0110578
0.0110577
0.0110576
0.0110574
0.0110571
0.0110567
0.0110562
0.0110556
0.0110547
0.0110536
0.0110521
0.0110501
0.0110476
0.0110445
0.0110406
0.0110359
0.0112495
0.0112543
0.0112583
0.0112616
0.0112641
0.0112662
0.0112677
0.0112689
0.0112698
0.0112705
0.011271
0.0112713
0.0112716
0.0112718
0.011272
0.0112721
0.0112722
0.0112723
0.0112723
0.0112723
0.0112724
0.0112724
0.0112724
0.0112724
0.0112724
0.0112725
0.0112725
0.0112725
0.0112725
0.0112725
0.0112725
0.0112725
0.0112725
0.0112725
0.0112725
0.0112724
0.0112724
0.0112724
0.0112724
0.0112724
0.0112723
0.0112723
0.0112723
0.0112722
0.0112721
0.011272
0.0112718
0.0112716
0.0112713
0.011271
0.0112705
0.0112698
0.0112689
0.0112677
0.0112662
0.0112641
0.0112616
0.0112583
0.0112543
0.0112495
0.0114833
0.0114884
0.0114925
0.0114959
0.0114985
0.0115006
0.0115022
0.0115035
0.0115044
0.0115051
0.0115056
0.011506
0.0115063
0.0115065
0.0115067
0.0115068
0.0115069
0.011507
0.011507
0.0115071
0.0115071
0.0115071
0.0115071
0.0115071
0.0115072
0.0115072
0.0115072
0.0115072
0.0115072
0.0115072
0.0115072
0.0115072
0.0115072
0.0115072
0.0115072
0.0115072
0.0115071
0.0115071
0.0115071
0.0115071
0.0115071
0.011507
0.011507
0.0115069
0.0115068
0.0115067
0.0115065
0.0115063
0.011506
0.0115056
0.0115051
0.0115044
0.0115035
0.0115022
0.0115006
0.0114985
0.0114959
0.0114925
0.0114884
0.0114833
0.0117405
0.0117458
0.0117501
0.0117536
0.0117564
0.0117585
0.0117602
0.0117615
0.0117624
0.0117632
0.0117637
0.0117641
0.0117644
0.0117646
0.0117648
0.0117649
0.011765
0.0117651
0.0117652
0.0117652
0.0117652
0.0117653
0.0117653
0.0117653
0.0117653
0.0117653
0.0117653
0.0117653
0.0117653
0.0117653
0.0117653
0.0117653
0.0117653
0.0117653
0.0117653
0.0117653
0.0117653
0.0117653
0.0117653
0.0117652
0.0117652
0.0117652
0.0117651
0.011765
0.0117649
0.0117648
0.0117646
0.0117644
0.0117641
0.0117637
0.0117632
0.0117624
0.0117615
0.0117602
0.0117585
0.0117564
0.0117536
0.0117501
0.0117458
0.0117405
0.0120247
0.0120302
0.0120347
0.0120383
0.0120412
0.0120435
0.0120452
0.0120465
0.0120475
0.0120483
0.0120489
0.0120493
0.0120496
0.0120498
0.01205
0.0120502
0.0120503
0.0120503
0.0120504
0.0120504
0.0120505
0.0120505
0.0120505
0.0120505
0.0120505
0.0120506
0.0120506
0.0120506
0.0120506
0.0120506
0.0120506
0.0120506
0.0120506
0.0120506
0.0120506
0.0120505
0.0120505
0.0120505
0.0120505
0.0120505
0.0120504
0.0120504
0.0120503
0.0120503
0.0120502
0.01205
0.0120498
0.0120496
0.0120493
0.0120489
0.0120483
0.0120475
0.0120465
0.0120452
0.0120435
0.0120412
0.0120383
0.0120347
0.0120302
0.0120247
0.0123403
0.012346
0.0123507
0.0123545
0.0123575
0.0123599
0.0123617
0.0123631
0.0123642
0.012365
0.0123656
0.012366
0.0123664
0.0123666
0.0123668
0.0123669
0.012367
0.0123671
0.0123672
0.0123672
0.0123673
0.0123673
0.0123673
0.0123673
0.0123673
0.0123673
0.0123674
0.0123674
0.0123674
0.0123674
0.0123674
0.0123674
0.0123674
0.0123674
0.0123673
0.0123673
0.0123673
0.0123673
0.0123673
0.0123673
0.0123672
0.0123672
0.0123671
0.012367
0.0123669
0.0123668
0.0123666
0.0123664
0.012366
0.0123656
0.012365
0.0123642
0.0123631
0.0123617
0.0123599
0.0123575
0.0123545
0.0123507
0.012346
0.0123403
0.0126927
0.0126988
0.0127037
0.0127077
0.0127109
0.0127134
0.0127153
0.0127168
0.0127179
0.0127188
0.0127194
0.0127199
0.0127202
0.0127205
0.0127207
0.0127208
0.0127209
0.012721
0.0127211
0.0127211
0.0127212
0.0127212
0.0127212
0.0127212
0.0127212
0.0127212
0.0127212
0.0127213
0.0127213
0.0127213
0.0127213
0.0127213
0.0127213
0.0127212
0.0127212
0.0127212
0.0127212
0.0127212
0.0127212
0.0127212
0.0127211
0.0127211
0.012721
0.0127209
0.0127208
0.0127207
0.0127205
0.0127202
0.0127199
0.0127194
0.0127188
0.0127179
0.0127168
0.0127153
0.0127134
0.0127109
0.0127077
0.0127037
0.0126988
0.0126927
0.0130891
0.0130955
0.0131007
0.0131049
0.0131083
0.013111
0.013113
0.0131146
0.0131157
0.0131166
0.0131173
0.0131178
0.0131181
0.0131184
0.0131186
0.0131188
0.0131189
0.013119
0.0131191
0.0131191
0.0131191
0.0131192
0.0131192
0.0131192
0.0131192
0.0131192
0.0131192
0.0131193
0.0131193
0.0131193
0.0131193
0.0131193
0.0131193
0.0131192
0.0131192
0.0131192
0.0131192
0.0131192
0.0131192
0.0131191
0.0131191
0.0131191
0.013119
0.0131189
0.0131188
0.0131186
0.0131184
0.0131181
0.0131178
0.0131173
0.0131166
0.0131157
0.0131146
0.013113
0.013111
0.0131083
0.0131049
0.0131007
0.0130955
0.0130891
0.0135382
0.013545
0.0135506
0.0135551
0.0135586
0.0135615
0.0135636
0.0135653
0.0135665
0.0135675
0.0135682
0.0135687
0.0135691
0.0135694
0.0135696
0.0135698
0.0135699
0.01357
0.0135701
0.0135701
0.0135702
0.0135702
0.0135702
0.0135702
0.0135703
0.0135703
0.0135703
0.0135703
0.0135703
0.0135703
0.0135703
0.0135703
0.0135703
0.0135703
0.0135703
0.0135703
0.0135702
0.0135702
0.0135702
0.0135702
0.0135701
0.0135701
0.01357
0.0135699
0.0135698
0.0135696
0.0135694
0.0135691
0.0135687
0.0135682
0.0135675
0.0135665
0.0135653
0.0135636
0.0135615
0.0135586
0.0135551
0.0135506
0.013545
0.0135382
0.0140516
0.0140589
0.0140648
0.0140696
0.0140735
0.0140765
0.0140788
0.0140806
0.0140819
0.0140829
0.0140837
0.0140843
0.0140847
0.014085
0.0140852
0.0140854
0.0140856
0.0140857
0.0140857
0.0140858
0.0140858
0.0140859
0.0140859
0.0140859
0.0140859
0.0140859
0.014086
0.014086
0.014086
0.014086
0.014086
0.014086
0.014086
0.014086
0.0140859
0.0140859
0.0140859
0.0140859
0.0140859
0.0140858
0.0140858
0.0140857
0.0140857
0.0140856
0.0140854
0.0140852
0.014085
0.0140847
0.0140843
0.0140837
0.0140829
0.0140819
0.0140806
0.0140788
0.0140765
0.0140735
0.0140696
0.0140648
0.0140589
0.0140516
0.0146445
0.0146524
0.0146588
0.014664
0.0146682
0.0146714
0.0146739
0.0146758
0.0146773
0.0146784
0.0146792
0.0146798
0.0146803
0.0146806
0.0146809
0.0146811
0.0146812
0.0146813
0.0146814
0.0146815
0.0146815
0.0146816
0.0146816
0.0146816
0.0146816
0.0146816
0.0146817
0.0146817
0.0146817
0.0146817
0.0146817
0.0146817
0.0146817
0.0146817
0.0146816
0.0146816
0.0146816
0.0146816
0.0146816
0.0146815
0.0146815
0.0146814
0.0146813
0.0146812
0.0146811
0.0146809
0.0146806
0.0146803
0.0146798
0.0146792
0.0146784
0.0146773
0.0146758
0.0146739
0.0146714
0.0146682
0.014664
0.0146588
0.0146524
0.0146445
0.0153376
0.0153462
0.0153532
0.0153589
0.0153634
0.015367
0.0153698
0.0153719
0.0153734
0.0153746
0.0153755
0.0153762
0.0153767
0.0153771
0.0153774
0.0153776
0.0153777
0.0153779
0.0153779
0.015378
0.0153781
0.0153781
0.0153781
0.0153782
0.0153782
0.0153782
0.0153782
0.0153782
0.0153782
0.0153782
0.0153782
0.0153782
0.0153782
0.0153782
0.0153782
0.0153782
0.0153782
0.0153781
0.0153781
0.0153781
0.015378
0.0153779
0.0153779
0.0153777
0.0153776
0.0153774
0.0153771
0.0153767
0.0153762
0.0153755
0.0153746
0.0153734
0.0153719
0.0153698
0.015367
0.0153634
0.0153589
0.0153532
0.0153462
0.0153376
0.0161596
0.0161691
0.0161769
0.0161832
0.0161882
0.0161922
0.0161952
0.0161975
0.0161993
0.0162006
0.0162016
0.0162024
0.0162029
0.0162033
0.0162036
0.0162039
0.0162041
0.0162042
0.0162043
0.0162044
0.0162044
0.0162045
0.0162045
0.0162045
0.0162046
0.0162046
0.0162046
0.0162046
0.0162046
0.0162046
0.0162046
0.0162046
0.0162046
0.0162046
0.0162046
0.0162046
0.0162045
0.0162045
0.0162045
0.0162044
0.0162044
0.0162043
0.0162042
0.0162041
0.0162039
0.0162036
0.0162033
0.0162029
0.0162024
0.0162016
0.0162006
0.0161993
0.0161975
0.0161952
0.0161922
0.0161882
0.0161832
0.0161769
0.0161691
0.0161596
0.0171515
0.0171622
0.0171709
0.017178
0.0171837
0.0171882
0.0171916
0.0171942
0.0171962
0.0171977
0.0171988
0.0171996
0.0172003
0.0172007
0.0172011
0.0172013
0.0172015
0.0172017
0.0172018
0.0172019
0.017202
0.017202
0.0172021
0.0172021
0.0172021
0.0172021
0.0172021
0.0172021
0.0172021
0.0172021
0.0172021
0.0172021
0.0172021
0.0172021
0.0172021
0.0172021
0.0172021
0.0172021
0.017202
0.017202
0.0172019
0.0172018
0.0172017
0.0172015
0.0172013
0.0172011
0.0172007
0.0172003
0.0171996
0.0171988
0.0171977
0.0171962
0.0171942
0.0171916
0.0171882
0.0171837
0.017178
0.0171709
0.0171622
0.0171515
0.0183735
0.0183857
0.0183957
0.0184039
0.0184104
0.0184155
0.0184195
0.0184225
0.0184248
0.0184265
0.0184278
0.0184287
0.0184295
0.01843
0.0184304
0.0184307
0.0184309
0.0184311
0.0184312
0.0184313
0.0184314
0.0184315
0.0184315
0.0184316
0.0184316
0.0184316
0.0184316
0.0184316
0.0184316
0.0184316
0.0184316
0.0184316
0.0184316
0.0184316
0.0184316
0.0184316
0.0184316
0.0184315
0.0184315
0.0184314
0.0184313
0.0184312
0.0184311
0.0184309
0.0184307
0.0184304
0.01843
0.0184295
0.0184287
0.0184278
0.0184265
0.0184248
0.0184225
0.0184195
0.0184155
0.0184104
0.0184039
0.0183957
0.0183857
0.0183735
0.0199157
0.0199301
0.0199419
0.0199515
0.0199592
0.0199652
0.0199699
0.0199734
0.0199761
0.0199781
0.0199796
0.0199808
0.0199816
0.0199823
0.0199827
0.0199831
0.0199834
0.0199836
0.0199837
0.0199839
0.0199839
0.019984
0.0199841
0.0199841
0.0199841
0.0199842
0.0199842
0.0199842
0.0199842
0.0199842
0.0199842
0.0199842
0.0199842
0.0199842
0.0199842
0.0199841
0.0199841
0.0199841
0.019984
0.0199839
0.0199839
0.0199837
0.0199836
0.0199834
0.0199831
0.0199827
0.0199823
0.0199816
0.0199808
0.0199796
0.0199781
0.0199761
0.0199734
0.0199699
0.0199652
0.0199592
0.0199515
0.0199419
0.0199301
0.0199157
0.0219142
0.0219315
0.0219457
0.0219574
0.0219667
0.021974
0.0219797
0.021984
0.0219872
0.0219897
0.0219915
0.0219929
0.021994
0.0219947
0.0219953
0.0219957
0.0219961
0.0219963
0.0219965
0.0219966
0.0219968
0.0219968
0.0219969
0.0219969
0.021997
0.021997
0.021997
0.021997
0.0219971
0.0219971
0.0219971
0.0219971
0.021997
0.021997
0.021997
0.021997
0.0219969
0.0219969
0.0219968
0.0219968
0.0219966
0.0219965
0.0219963
0.0219961
0.0219957
0.0219953
0.0219947
0.021994
0.0219929
0.0219915
0.0219897
0.0219872
0.021984
0.0219797
0.021974
0.0219667
0.0219574
0.0219457
0.0219315
0.0219142
0.0245677
0.0245892
0.0246069
0.0246215
0.0246331
0.0246423
0.0246493
0.0246547
0.0246588
0.0246619
0.0246642
0.0246659
0.0246672
0.0246681
0.0246689
0.0246694
0.0246698
0.0246701
0.0246704
0.0246705
0.0246707
0.0246708
0.0246709
0.0246709
0.024671
0.024671
0.024671
0.024671
0.0246711
0.0246711
0.0246711
0.0246711
0.024671
0.024671
0.024671
0.024671
0.0246709
0.0246709
0.0246708
0.0246707
0.0246705
0.0246704
0.0246701
0.0246698
0.0246694
0.0246689
0.0246681
0.0246672
0.0246659
0.0246642
0.0246619
0.0246588
0.0246547
0.0246493
0.0246423
0.0246331
0.0246215
0.0246069
0.0245892
0.0245677
0.0281461
0.0281735
0.0281961
0.0282147
0.0282296
0.0282413
0.0282503
0.0282572
0.0282624
0.0282664
0.0282693
0.0282715
0.0282732
0.0282744
0.0282753
0.028276
0.0282765
0.0282769
0.0282772
0.0282775
0.0282776
0.0282778
0.0282779
0.028278
0.028278
0.0282781
0.0282781
0.0282781
0.0282781
0.0282781
0.0282781
0.0282781
0.0282781
0.0282781
0.0282781
0.028278
0.028278
0.0282779
0.0282778
0.0282776
0.0282775
0.0282772
0.0282769
0.0282765
0.028276
0.0282753
0.0282744
0.0282732
0.0282715
0.0282693
0.0282664
0.0282624
0.0282572
0.0282503
0.0282413
0.0282296
0.0282147
0.0281961
0.0281735
0.0281461
0.0329668
0.0330018
0.033031
0.033055
0.0330741
0.0330892
0.0331008
0.0331097
0.0331164
0.0331215
0.0331253
0.0331282
0.0331303
0.0331319
0.0331331
0.033134
0.0331347
0.0331352
0.0331356
0.0331359
0.0331361
0.0331363
0.0331364
0.0331365
0.0331366
0.0331366
0.0331367
0.0331367
0.0331367
0.0331367
0.0331367
0.0331367
0.0331367
0.0331367
0.0331366
0.0331366
0.0331365
0.0331364
0.0331363
0.0331361
0.0331359
0.0331356
0.0331352
0.0331347
0.033134
0.0331331
0.0331319
0.0331303
0.0331282
0.0331253
0.0331215
0.0331164
0.0331097
0.0331008
0.0330892
0.0330741
0.033055
0.033031
0.0330018
0.0329668
0.0393197
0.0393643
0.0394015
0.039432
0.0394564
0.0394756
0.0394904
0.0395018
0.0395104
0.0395168
0.0395217
0.0395253
0.0395281
0.0395301
0.0395316
0.0395328
0.0395337
0.0395343
0.0395348
0.0395352
0.0395355
0.0395357
0.0395359
0.039536
0.0395361
0.0395362
0.0395362
0.0395363
0.0395363
0.0395363
0.0395363
0.0395363
0.0395363
0.0395362
0.0395362
0.0395361
0.039536
0.0395359
0.0395357
0.0395355
0.0395352
0.0395348
0.0395343
0.0395337
0.0395328
0.0395316
0.0395301
0.0395281
0.0395253
0.0395217
0.0395168
0.0395104
0.0395018
0.0394904
0.0394756
0.0394564
0.039432
0.0394015
0.0393643
0.0393197
0.0473605
0.0474158
0.0474619
0.0474997
0.0475299
0.0475537
0.0475721
0.0475862
0.0475968
0.0476049
0.047611
0.0476155
0.0476189
0.0476214
0.0476233
0.0476248
0.0476259
0.0476267
0.0476273
0.0476278
0.0476282
0.0476284
0.0476287
0.0476288
0.0476289
0.047629
0.0476291
0.0476291
0.0476292
0.0476292
0.0476292
0.0476292
0.0476291
0.0476291
0.047629
0.0476289
0.0476288
0.0476287
0.0476284
0.0476282
0.0476278
0.0476273
0.0476267
0.0476259
0.0476248
0.0476233
0.0476214
0.0476189
0.0476155
0.047611
0.0476049
0.0475968
0.0475862
0.0475721
0.0475537
0.0475299
0.0474997
0.0474619
0.0474158
0.0473605
0.0570336
0.0571
0.0571551
0.0572003
0.0572364
0.0572648
0.0572868
0.0573037
0.0573165
0.0573261
0.0573334
0.0573389
0.057343
0.057346
0.0573483
0.0573501
0.0573514
0.0573524
0.0573531
0.0573537
0.0573542
0.0573545
0.0573548
0.0573549
0.0573551
0.0573552
0.0573553
0.0573554
0.0573554
0.0573554
0.0573554
0.0573554
0.0573554
0.0573553
0.0573552
0.0573551
0.0573549
0.0573548
0.0573545
0.0573542
0.0573537
0.0573531
0.0573524
0.0573514
0.0573501
0.0573483
0.057346
0.057343
0.0573389
0.0573334
0.0573261
0.0573165
0.0573037
0.0572868
0.0572648
0.0572364
0.0572003
0.0571551
0.0571
0.0570336
0.0680916
0.0681684
0.0682321
0.0682842
0.0683259
0.0683587
0.0683841
0.0684036
0.0684184
0.0684296
0.068438
0.0684444
0.0684491
0.0684527
0.0684554
0.0684574
0.068459
0.0684601
0.068461
0.0684617
0.0684622
0.0684626
0.0684629
0.0684632
0.0684633
0.0684635
0.0684636
0.0684636
0.0684637
0.0684637
0.0684637
0.0684637
0.0684636
0.0684636
0.0684635
0.0684633
0.0684632
0.0684629
0.0684626
0.0684622
0.0684617
0.068461
0.0684601
0.068459
0.0684574
0.0684554
0.0684527
0.0684491
0.0684444
0.068438
0.0684296
0.0684184
0.0684036
0.0683841
0.0683587
0.0683259
0.0682842
0.0682321
0.0681684
0.0680916
0.0801972
0.0802837
0.0803551
0.0804135
0.0804602
0.080497
0.0805255
0.0805474
0.0805641
0.0805767
0.0805862
0.0805934
0.0805988
0.0806028
0.0806059
0.0806082
0.08061
0.0806113
0.0806123
0.0806131
0.0806137
0.0806141
0.0806145
0.0806148
0.080615
0.0806151
0.0806152
0.0806153
0.0806153
0.0806154
0.0806154
0.0806153
0.0806153
0.0806152
0.0806151
0.080615
0.0806148
0.0806145
0.0806141
0.0806137
0.0806131
0.0806123
0.0806113
0.08061
0.0806082
0.0806059
0.0806028
0.0805988
0.0805934
0.0805862
0.0805767
0.0805641
0.0805474
0.0805255
0.080497
0.0804602
0.0804135
0.0803551
0.0802837
0.0801972
0.0930344
0.0931296
0.093208
0.093272
0.0933233
0.0933637
0.0933951
0.0934192
0.0934376
0.0934516
0.0934621
0.0934701
0.0934761
0.0934806
0.093484
0.0934866
0.0934885
0.09349
0.0934911
0.093492
0.0934927
0.0934932
0.0934936
0.0934939
0.0934941
0.0934943
0.0934944
0.0934945
0.0934946
0.0934946
0.0934946
0.0934946
0.0934945
0.0934944
0.0934943
0.0934941
0.0934939
0.0934936
0.0934932
0.0934927
0.093492
0.0934911
0.09349
0.0934885
0.0934866
0.093484
0.0934806
0.0934761
0.0934701
0.0934621
0.0934516
0.0934376
0.0934192
0.0933951
0.0933637
0.0933233
0.093272
0.093208
0.0931296
0.0930344
0.106366
0.10647
0.106554
0.106624
0.106679
0.106723
0.106757
0.106783
0.106803
0.106818
0.10683
0.106839
0.106845
0.10685
0.106854
0.106857
0.106859
0.106861
0.106862
0.106863
0.106864
0.106864
0.106865
0.106865
0.106865
0.106865
0.106865
0.106866
0.106866
0.106866
0.106866
0.106866
0.106866
0.106865
0.106865
0.106865
0.106865
0.106865
0.106864
0.106864
0.106863
0.106862
0.106861
0.106859
0.106857
0.106854
0.10685
0.106845
0.106839
0.10683
0.106818
0.106803
0.106783
0.106757
0.106723
0.106679
0.106624
0.106554
0.10647
0.106366
0.120039
0.12015
0.120241
0.120315
0.120375
0.120422
0.120458
0.120486
0.120508
0.120525
0.120537
0.120546
0.120554
0.120559
0.120563
0.120566
0.120569
0.12057
0.120572
0.120573
0.120574
0.120574
0.120575
0.120575
0.120575
0.120576
0.120576
0.120576
0.120576
0.120576
0.120576
0.120576
0.120576
0.120576
0.120576
0.120575
0.120575
0.120575
0.120574
0.120574
0.120573
0.120572
0.12057
0.120569
0.120566
0.120563
0.120559
0.120554
0.120546
0.120537
0.120525
0.120508
0.120486
0.120458
0.120422
0.120375
0.120315
0.120241
0.12015
0.120039
0.133959
0.134077
0.134174
0.134253
0.134317
0.134367
0.134406
0.134436
0.13446
0.134477
0.134491
0.134501
0.134509
0.134514
0.134519
0.134522
0.134525
0.134527
0.134528
0.134529
0.13453
0.134531
0.134532
0.134532
0.134532
0.134533
0.134533
0.134533
0.134533
0.134533
0.134533
0.134533
0.134533
0.134533
0.134533
0.134532
0.134532
0.134532
0.134531
0.13453
0.134529
0.134528
0.134527
0.134525
0.134522
0.134519
0.134514
0.134509
0.134501
0.134491
0.134477
0.13446
0.134436
0.134406
0.134367
0.134317
0.134253
0.134174
0.134077
0.133959
0.148071
0.148196
0.148298
0.148382
0.148449
0.148503
0.148544
0.148577
0.148601
0.14862
0.148635
0.148646
0.148654
0.14866
0.148665
0.148669
0.148672
0.148674
0.148675
0.148677
0.148678
0.148678
0.148679
0.148679
0.14868
0.14868
0.14868
0.14868
0.14868
0.14868
0.14868
0.14868
0.14868
0.14868
0.14868
0.14868
0.148679
0.148679
0.148678
0.148678
0.148677
0.148675
0.148674
0.148672
0.148669
0.148665
0.14866
0.148654
0.148646
0.148635
0.14862
0.148601
0.148577
0.148544
0.148503
0.148449
0.148382
0.148298
0.148196
0.148071
0.162336
0.162468
0.162576
0.162665
0.162736
0.162792
0.162836
0.162871
0.162897
0.162917
0.162933
0.162944
0.162953
0.16296
0.162965
0.162969
0.162972
0.162975
0.162977
0.162978
0.162979
0.16298
0.16298
0.162981
0.162981
0.162982
0.162982
0.162982
0.162982
0.162982
0.162982
0.162982
0.162982
0.162982
0.162982
0.162981
0.162981
0.16298
0.16298
0.162979
0.162978
0.162977
0.162975
0.162972
0.162969
0.162965
0.16296
0.162953
0.162944
0.162933
0.162917
0.162897
0.162871
0.162836
0.162792
0.162736
0.162665
0.162576
0.162468
0.162336
0.17673
0.176868
0.176982
0.177075
0.17715
0.17721
0.177256
0.177293
0.177321
0.177342
0.177359
0.177371
0.177381
0.177388
0.177394
0.177398
0.177401
0.177404
0.177406
0.177407
0.177408
0.177409
0.17741
0.177411
0.177411
0.177411
0.177411
0.177412
0.177412
0.177412
0.177412
0.177412
0.177412
0.177411
0.177411
0.177411
0.177411
0.17741
0.177409
0.177408
0.177407
0.177406
0.177404
0.177401
0.177398
0.177394
0.177388
0.177381
0.177371
0.177359
0.177342
0.177321
0.177293
0.177256
0.17721
0.17715
0.177075
0.176982
0.176868
0.17673
0.191232
0.191376
0.191496
0.191593
0.191672
0.191735
0.191784
0.191822
0.191852
0.191875
0.191892
0.191906
0.191916
0.191924
0.19193
0.191935
0.191938
0.191941
0.191943
0.191944
0.191946
0.191947
0.191947
0.191948
0.191948
0.191949
0.191949
0.191949
0.191949
0.191949
0.191949
0.191949
0.191949
0.191949
0.191949
0.191948
0.191948
0.191947
0.191947
0.191946
0.191944
0.191943
0.191941
0.191938
0.191935
0.19193
0.191924
0.191916
0.191906
0.191892
0.191875
0.191852
0.191822
0.191784
0.191735
0.191672
0.191593
0.191496
0.191376
0.191232
0.205825
0.205975
0.2061
0.206202
0.206284
0.20635
0.206402
0.206443
0.206474
0.206498
0.206517
0.206531
0.206542
0.20655
0.206557
0.206562
0.206566
0.206569
0.206571
0.206573
0.206574
0.206575
0.206576
0.206576
0.206577
0.206577
0.206578
0.206578
0.206578
0.206578
0.206578
0.206578
0.206578
0.206578
0.206577
0.206577
0.206576
0.206576
0.206575
0.206574
0.206573
0.206571
0.206569
0.206566
0.206562
0.206557
0.20655
0.206542
0.206531
0.206517
0.206498
0.206474
0.206443
0.206402
0.20635
0.206284
0.206202
0.2061
0.205975
0.205825
0.220494
0.22065
0.22078
0.220886
0.220972
0.221041
0.221096
0.221138
0.221172
0.221197
0.221217
0.221232
0.221244
0.221253
0.22126
0.221265
0.221269
0.221272
0.221275
0.221276
0.221278
0.221279
0.22128
0.221281
0.221281
0.221282
0.221282
0.221282
0.221282
0.221282
0.221282
0.221282
0.221282
0.221282
0.221282
0.221281
0.221281
0.22128
0.221279
0.221278
0.221276
0.221275
0.221272
0.221269
0.221265
0.22126
0.221253
0.221244
0.221232
0.221217
0.221197
0.221172
0.221138
0.221096
0.221041
0.220972
0.220886
0.22078
0.22065
0.220494
0.235225
0.235387
0.235522
0.235632
0.235722
0.235794
0.235851
0.235896
0.235931
0.235958
0.235979
0.235995
0.236007
0.236017
0.236024
0.23603
0.236034
0.236038
0.23604
0.236042
0.236044
0.236045
0.236046
0.236047
0.236047
0.236048
0.236048
0.236048
0.236049
0.236049
0.236049
0.236049
0.236048
0.236048
0.236048
0.236047
0.236047
0.236046
0.236045
0.236044
0.236042
0.23604
0.236038
0.236034
0.23603
0.236024
0.236017
0.236007
0.235995
0.235979
0.235958
0.235931
0.235896
0.235851
0.235794
0.235722
0.235632
0.235522
0.235387
0.235225
0.250005