/*--------------------------------*- C++ -*----------------------------------*\
| =========                 |                                                 |
| \\      /  F ield         | foam-extend: Open Source CFD                    |
|  \\    /   O peration     | Version:     4.0                                |
|   \\  /    A nd           | Web:         http://www.foam-extend.org         |
|    \\/     M anipulation  |                                                 |
\*---------------------------------------------------------------------------*/
FoamFile
{
    version     2.0;
    format      ascii;
    class       volScalarField;
    location    "1350";
    object      psiE;
}
// * * * * * * * * * * * * * * * * * * * * * * * * * * * * * * * * * * * * * //

dimensions      [0 0 0 0 0 0 0];

internalField   nonuniform List<scalar> 
6960
(
0.342842
0.342852
0.342852
0.342851
0.342849
0.342848
0.342846
0.342845
0.342845
0.342844
0.342843
0.342843
0.342842
0.342842
0.342842
0.342841
0.342841
0.342841
0.342841
0.34284
0.34284
0.34284
0.34284
0.34284
0.34284
0.34284
0.34284
0.34284
0.34284
0.34284
0.34284
0.34284
0.34284
0.34284
0.34284
0.34284
0.34284
0.34284
0.34284
0.34284
0.34284
0.342841
0.342841
0.342841
0.342841
0.342842
0.342842
0.342842
0.342843
0.342843
0.342844
0.342845
0.342845
0.342846
0.342848
0.342849
0.342851
0.342852
0.342852
0.342842
0.847249
0.847279
0.847278
0.847271
0.847265
0.847259
0.847255
0.847251
0.847247
0.847244
0.847242
0.84724
0.847238
0.847236
0.847235
0.847234
0.847233
0.847232
0.847231
0.84723
0.84723
0.847229
0.847229
0.847228
0.847228
0.847228
0.847228
0.847228
0.847227
0.847227
0.847227
0.847227
0.847228
0.847228
0.847228
0.847228
0.847228
0.847229
0.847229
0.84723
0.84723
0.847231
0.847232
0.847233
0.847234
0.847235
0.847236
0.847238
0.84724
0.847242
0.847244
0.847247
0.847251
0.847255
0.847259
0.847265
0.847271
0.847278
0.847279
0.847249
1.27088
1.27092
1.27091
1.2709
1.27089
1.27088
1.27087
1.27086
1.27085
1.27085
1.27084
1.27084
1.27084
1.27083
1.27083
1.27083
1.27083
1.27082
1.27082
1.27082
1.27082
1.27082
1.27082
1.27082
1.27082
1.27082
1.27082
1.27082
1.27082
1.27082
1.27082
1.27082
1.27082
1.27082
1.27082
1.27082
1.27082
1.27082
1.27082
1.27082
1.27082
1.27082
1.27082
1.27083
1.27083
1.27083
1.27083
1.27084
1.27084
1.27084
1.27085
1.27085
1.27086
1.27087
1.27088
1.27089
1.2709
1.27091
1.27092
1.27088
1.636
1.63603
1.63602
1.636
1.63598
1.63596
1.63594
1.63593
1.63592
1.63591
1.63591
1.6359
1.63589
1.63589
1.63589
1.63588
1.63588
1.63588
1.63587
1.63587
1.63587
1.63587
1.63587
1.63587
1.63587
1.63586
1.63586
1.63586
1.63586
1.63586
1.63586
1.63586
1.63586
1.63586
1.63586
1.63587
1.63587
1.63587
1.63587
1.63587
1.63587
1.63587
1.63588
1.63588
1.63588
1.63589
1.63589
1.63589
1.6359
1.63591
1.63591
1.63592
1.63593
1.63594
1.63596
1.63598
1.636
1.63602
1.63603
1.636
1.94888
1.94889
1.94887
1.94884
1.94881
1.94879
1.94877
1.94875
1.94874
1.94872
1.94871
1.94871
1.9487
1.94869
1.94869
1.94868
1.94868
1.94867
1.94867
1.94867
1.94867
1.94866
1.94866
1.94866
1.94866
1.94866
1.94866
1.94866
1.94866
1.94866
1.94866
1.94866
1.94866
1.94866
1.94866
1.94866
1.94866
1.94866
1.94866
1.94867
1.94867
1.94867
1.94867
1.94868
1.94868
1.94869
1.94869
1.9487
1.94871
1.94871
1.94872
1.94874
1.94875
1.94877
1.94879
1.94881
1.94884
1.94887
1.94889
1.94888
2.21295
2.21293
2.21289
2.21285
2.21281
2.21279
2.21276
2.21274
2.21272
2.21271
2.2127
2.21269
2.21268
2.21267
2.21266
2.21266
2.21265
2.21265
2.21264
2.21264
2.21264
2.21263
2.21263
2.21263
2.21263
2.21263
2.21263
2.21262
2.21262
2.21262
2.21262
2.21262
2.21262
2.21263
2.21263
2.21263
2.21263
2.21263
2.21263
2.21264
2.21264
2.21264
2.21265
2.21265
2.21266
2.21266
2.21267
2.21268
2.21269
2.2127
2.21271
2.21272
2.21274
2.21276
2.21279
2.21281
2.21285
2.21289
2.21293
2.21295
2.43287
2.43282
2.43276
2.43271
2.43267
2.43264
2.43261
2.43259
2.43257
2.43255
2.43254
2.43252
2.43251
2.4325
2.43249
2.43249
2.43248
2.43248
2.43247
2.43247
2.43246
2.43246
2.43246
2.43246
2.43245
2.43245
2.43245
2.43245
2.43245
2.43245
2.43245
2.43245
2.43245
2.43245
2.43245
2.43245
2.43246
2.43246
2.43246
2.43246
2.43247
2.43247
2.43248
2.43248
2.43249
2.43249
2.4325
2.43251
2.43252
2.43254
2.43255
2.43257
2.43259
2.43261
2.43264
2.43267
2.43271
2.43276
2.43282
2.43287
2.61524
2.61515
2.61508
2.61502
2.61498
2.61494
2.61491
2.61488
2.61486
2.61484
2.61482
2.61481
2.61479
2.61478
2.61478
2.61477
2.61476
2.61475
2.61475
2.61474
2.61474
2.61474
2.61473
2.61473
2.61473
2.61473
2.61473
2.61473
2.61473
2.61472
2.61472
2.61473
2.61473
2.61473
2.61473
2.61473
2.61473
2.61473
2.61474
2.61474
2.61474
2.61475
2.61475
2.61476
2.61477
2.61478
2.61478
2.61479
2.61481
2.61482
2.61484
2.61486
2.61488
2.61491
2.61494
2.61498
2.61502
2.61508
2.61515
2.61524
2.76758
2.76746
2.76738
2.76732
2.76727
2.76723
2.7672
2.76717
2.76714
2.76712
2.7671
2.76709
2.76708
2.76706
2.76705
2.76705
2.76704
2.76703
2.76703
2.76702
2.76702
2.76701
2.76701
2.76701
2.767
2.767
2.767
2.767
2.767
2.767
2.767
2.767
2.767
2.767
2.767
2.767
2.76701
2.76701
2.76701
2.76702
2.76702
2.76703
2.76703
2.76704
2.76705
2.76705
2.76706
2.76708
2.76709
2.7671
2.76712
2.76714
2.76717
2.7672
2.76723
2.76727
2.76732
2.76738
2.76746
2.76758
2.89713
2.89699
2.8969
2.89683
2.89678
2.89674
2.8967
2.89667
2.89664
2.89662
2.8966
2.89659
2.89657
2.89656
2.89655
2.89654
2.89653
2.89653
2.89652
2.89651
2.89651
2.89651
2.8965
2.8965
2.8965
2.8965
2.89649
2.89649
2.89649
2.89649
2.89649
2.89649
2.89649
2.89649
2.8965
2.8965
2.8965
2.8965
2.89651
2.89651
2.89651
2.89652
2.89653
2.89653
2.89654
2.89655
2.89656
2.89657
2.89659
2.8966
2.89662
2.89664
2.89667
2.8967
2.89674
2.89678
2.89683
2.8969
2.89699
2.89713
3.0099
3.00974
3.00965
3.00958
3.00952
3.00947
3.00944
3.0094
3.00938
3.00935
3.00933
3.00932
3.0093
3.00929
3.00928
3.00927
3.00926
3.00926
3.00925
3.00924
3.00924
3.00923
3.00923
3.00923
3.00923
3.00922
3.00922
3.00922
3.00922
3.00922
3.00922
3.00922
3.00922
3.00922
3.00922
3.00923
3.00923
3.00923
3.00923
3.00924
3.00924
3.00925
3.00926
3.00926
3.00927
3.00928
3.00929
3.0093
3.00932
3.00933
3.00935
3.00938
3.0094
3.00944
3.00947
3.00952
3.00958
3.00965
3.00974
3.0099
3.11045
3.11029
3.11019
3.11012
3.11006
3.11001
3.10997
3.10994
3.10991
3.10989
3.10987
3.10985
3.10983
3.10982
3.10981
3.1098
3.10979
3.10978
3.10978
3.10977
3.10977
3.10976
3.10976
3.10976
3.10975
3.10975
3.10975
3.10975
3.10975
3.10975
3.10975
3.10975
3.10975
3.10975
3.10975
3.10975
3.10976
3.10976
3.10976
3.10977
3.10977
3.10978
3.10978
3.10979
3.1098
3.10981
3.10982
3.10983
3.10985
3.10987
3.10989
3.10991
3.10994
3.10997
3.11001
3.11006
3.11012
3.11019
3.11029
3.11045
3.20206
3.20189
3.20179
3.20172
3.20166
3.20161
3.20157
3.20153
3.20151
3.20148
3.20146
3.20144
3.20143
3.20142
3.2014
3.20139
3.20139
3.20138
3.20137
3.20137
3.20136
3.20136
3.20135
3.20135
3.20135
3.20135
3.20134
3.20134
3.20134
3.20134
3.20134
3.20134
3.20134
3.20134
3.20135
3.20135
3.20135
3.20135
3.20136
3.20136
3.20137
3.20137
3.20138
3.20139
3.20139
3.2014
3.20142
3.20143
3.20144
3.20146
3.20148
3.20151
3.20153
3.20157
3.20161
3.20166
3.20172
3.20179
3.20189
3.20206
3.28701
3.28684
3.28673
3.28666
3.2866
3.28655
3.28651
3.28647
3.28644
3.28642
3.2864
3.28638
3.28636
3.28635
3.28634
3.28633
3.28632
3.28631
3.28631
3.2863
3.2863
3.28629
3.28629
3.28628
3.28628
3.28628
3.28628
3.28628
3.28628
3.28628
3.28628
3.28628
3.28628
3.28628
3.28628
3.28628
3.28628
3.28629
3.28629
3.2863
3.2863
3.28631
3.28631
3.28632
3.28633
3.28634
3.28635
3.28636
3.28638
3.2864
3.28642
3.28644
3.28647
3.28651
3.28655
3.2866
3.28666
3.28673
3.28684
3.28701
3.3669
3.36672
3.36661
3.36654
3.36647
3.36642
3.36638
3.36635
3.36632
3.36629
3.36627
3.36625
3.36624
3.36623
3.36621
3.3662
3.36619
3.36619
3.36618
3.36617
3.36617
3.36616
3.36616
3.36616
3.36615
3.36615
3.36615
3.36615
3.36615
3.36615
3.36615
3.36615
3.36615
3.36615
3.36615
3.36615
3.36616
3.36616
3.36616
3.36617
3.36617
3.36618
3.36619
3.36619
3.3662
3.36621
3.36623
3.36624
3.36625
3.36627
3.36629
3.36632
3.36635
3.36638
3.36642
3.36647
3.36654
3.36661
3.36672
3.3669
3.44286
3.44268
3.44257
3.44249
3.44243
3.44238
3.44234
3.4423
3.44227
3.44225
3.44223
3.44221
3.44219
3.44218
3.44217
3.44216
3.44215
3.44214
3.44213
3.44213
3.44212
3.44212
3.44211
3.44211
3.44211
3.44211
3.4421
3.4421
3.4421
3.4421
3.4421
3.4421
3.4421
3.4421
3.44211
3.44211
3.44211
3.44211
3.44212
3.44212
3.44213
3.44213
3.44214
3.44215
3.44216
3.44217
3.44218
3.44219
3.44221
3.44223
3.44225
3.44227
3.4423
3.44234
3.44238
3.44243
3.44249
3.44257
3.44268
3.44286
3.51574
3.51556
3.51546
3.51538
3.51531
3.51526
3.51522
3.51519
3.51516
3.51513
3.51511
3.51509
3.51507
3.51506
3.51505
3.51504
3.51503
3.51502
3.51501
3.51501
3.515
3.515
3.51499
3.51499
3.51499
3.51499
3.51498
3.51498
3.51498
3.51498
3.51498
3.51498
3.51498
3.51498
3.51499
3.51499
3.51499
3.51499
3.515
3.515
3.51501
3.51501
3.51502
3.51503
3.51504
3.51505
3.51506
3.51507
3.51509
3.51511
3.51513
3.51516
3.51519
3.51522
3.51526
3.51531
3.51538
3.51546
3.51556
3.51574
3.5862
3.58602
3.58591
3.58583
3.58577
3.58572
3.58568
3.58564
3.58561
3.58559
3.58556
3.58554
3.58553
3.58551
3.5855
3.58549
3.58548
3.58547
3.58547
3.58546
3.58546
3.58545
3.58545
3.58544
3.58544
3.58544
3.58544
3.58543
3.58543
3.58543
3.58543
3.58543
3.58543
3.58544
3.58544
3.58544
3.58544
3.58545
3.58545
3.58546
3.58546
3.58547
3.58547
3.58548
3.58549
3.5855
3.58551
3.58553
3.58554
3.58556
3.58559
3.58561
3.58564
3.58568
3.58572
3.58577
3.58583
3.58591
3.58602
3.5862
3.65473
3.65456
3.65445
3.65437
3.65431
3.65426
3.65421
3.65418
3.65415
3.65412
3.6541
3.65408
3.65406
3.65405
3.65404
3.65403
3.65402
3.65401
3.654
3.65399
3.65399
3.65398
3.65398
3.65398
3.65397
3.65397
3.65397
3.65397
3.65397
3.65397
3.65397
3.65397
3.65397
3.65397
3.65397
3.65397
3.65398
3.65398
3.65398
3.65399
3.65399
3.654
3.65401
3.65402
3.65403
3.65404
3.65405
3.65406
3.65408
3.6541
3.65412
3.65415
3.65418
3.65421
3.65426
3.65431
3.65437
3.65445
3.65456
3.65473
3.72176
3.72159
3.72148
3.7214
3.72133
3.72128
3.72124
3.7212
3.72117
3.72115
3.72112
3.72111
3.72109
3.72107
3.72106
3.72105
3.72104
3.72103
3.72103
3.72102
3.72101
3.72101
3.72101
3.721
3.721
3.721
3.72099
3.72099
3.72099
3.72099
3.72099
3.72099
3.72099
3.72099
3.721
3.721
3.721
3.72101
3.72101
3.72101
3.72102
3.72103
3.72103
3.72104
3.72105
3.72106
3.72107
3.72109
3.72111
3.72112
3.72115
3.72117
3.7212
3.72124
3.72128
3.72133
3.7214
3.72148
3.72159
3.72176
3.78761
3.78745
3.78734
3.78726
3.78719
3.78714
3.7871
3.78706
3.78703
3.787
3.78698
3.78696
3.78695
3.78693
3.78692
3.78691
3.7869
3.78689
3.78688
3.78688
3.78687
3.78687
3.78686
3.78686
3.78685
3.78685
3.78685
3.78685
3.78685
3.78685
3.78685
3.78685
3.78685
3.78685
3.78685
3.78685
3.78686
3.78686
3.78687
3.78687
3.78688
3.78688
3.78689
3.7869
3.78691
3.78692
3.78693
3.78695
3.78696
3.78698
3.787
3.78703
3.78706
3.7871
3.78714
3.78719
3.78726
3.78734
3.78745
3.78761
3.85259
3.85242
3.85231
3.85223
3.85217
3.85211
3.85207
3.85203
3.852
3.85198
3.85195
3.85193
3.85192
3.8519
3.85189
3.85188
3.85187
3.85186
3.85185
3.85185
3.85184
3.85184
3.85183
3.85183
3.85183
3.85182
3.85182
3.85182
3.85182
3.85182
3.85182
3.85182
3.85182
3.85182
3.85182
3.85183
3.85183
3.85183
3.85184
3.85184
3.85185
3.85185
3.85186
3.85187
3.85188
3.85189
3.8519
3.85192
3.85193
3.85195
3.85198
3.852
3.85203
3.85207
3.85211
3.85217
3.85223
3.85231
3.85242
3.85259
3.91692
3.91675
3.91664
3.91656
3.9165
3.91645
3.9164
3.91637
3.91634
3.91631
3.91629
3.91627
3.91625
3.91624
3.91622
3.91621
3.9162
3.91619
3.91619
3.91618
3.91617
3.91617
3.91616
3.91616
3.91616
3.91616
3.91615
3.91615
3.91615
3.91615
3.91615
3.91615
3.91615
3.91615
3.91616
3.91616
3.91616
3.91616
3.91617
3.91617
3.91618
3.91619
3.91619
3.9162
3.91621
3.91622
3.91624
3.91625
3.91627
3.91629
3.91631
3.91634
3.91637
3.9164
3.91645
3.9165
3.91656
3.91664
3.91675
3.91692
3.98082
3.98066
3.98055
3.98047
3.98041
3.98035
3.98031
3.98027
3.98024
3.98021
3.98019
3.98017
3.98016
3.98014
3.98013
3.98012
3.98011
3.9801
3.98009
3.98008
3.98008
3.98007
3.98007
3.98007
3.98006
3.98006
3.98006
3.98006
3.98006
3.98006
3.98006
3.98006
3.98006
3.98006
3.98006
3.98006
3.98007
3.98007
3.98007
3.98008
3.98008
3.98009
3.9801
3.98011
3.98012
3.98013
3.98014
3.98016
3.98017
3.98019
3.98021
3.98024
3.98027
3.98031
3.98035
3.98041
3.98047
3.98055
3.98066
3.98082
4.04448
4.04433
4.04422
4.04414
4.04407
4.04402
4.04397
4.04394
4.04391
4.04388
4.04386
4.04384
4.04382
4.04381
4.04379
4.04378
4.04377
4.04376
4.04376
4.04375
4.04374
4.04374
4.04373
4.04373
4.04373
4.04372
4.04372
4.04372
4.04372
4.04372
4.04372
4.04372
4.04372
4.04372
4.04372
4.04373
4.04373
4.04373
4.04374
4.04374
4.04375
4.04376
4.04376
4.04377
4.04378
4.04379
4.04381
4.04382
4.04384
4.04386
4.04388
4.04391
4.04394
4.04397
4.04402
4.04407
4.04414
4.04422
4.04433
4.04448
4.10807
4.10792
4.10781
4.10773
4.10766
4.10761
4.10757
4.10753
4.1075
4.10747
4.10745
4.10743
4.10741
4.1074
4.10738
4.10737
4.10736
4.10735
4.10735
4.10734
4.10733
4.10733
4.10733
4.10732
4.10732
4.10732
4.10731
4.10731
4.10731
4.10731
4.10731
4.10731
4.10731
4.10731
4.10732
4.10732
4.10732
4.10733
4.10733
4.10733
4.10734
4.10735
4.10735
4.10736
4.10737
4.10738
4.1074
4.10741
4.10743
4.10745
4.10747
4.1075
4.10753
4.10757
4.10761
4.10766
4.10773
4.10781
4.10792
4.10807
4.17174
4.17159
4.17148
4.1714
4.17134
4.17128
4.17124
4.1712
4.17117
4.17114
4.17112
4.1711
4.17108
4.17107
4.17106
4.17104
4.17103
4.17103
4.17102
4.17101
4.17101
4.171
4.171
4.17099
4.17099
4.17099
4.17098
4.17098
4.17098
4.17098
4.17098
4.17098
4.17098
4.17098
4.17099
4.17099
4.17099
4.171
4.171
4.17101
4.17101
4.17102
4.17103
4.17103
4.17104
4.17106
4.17107
4.17108
4.1711
4.17112
4.17114
4.17117
4.1712
4.17124
4.17128
4.17134
4.1714
4.17148
4.17159
4.17174
4.23562
4.23548
4.23537
4.23529
4.23522
4.23517
4.23513
4.23509
4.23506
4.23503
4.23501
4.23499
4.23497
4.23496
4.23494
4.23493
4.23492
4.23491
4.23491
4.2349
4.23489
4.23489
4.23488
4.23488
4.23488
4.23487
4.23487
4.23487
4.23487
4.23487
4.23487
4.23487
4.23487
4.23487
4.23487
4.23488
4.23488
4.23488
4.23489
4.23489
4.2349
4.23491
4.23491
4.23492
4.23493
4.23494
4.23496
4.23497
4.23499
4.23501
4.23503
4.23506
4.23509
4.23513
4.23517
4.23522
4.23529
4.23537
4.23548
4.23562
4.29985
4.29971
4.2996
4.29952
4.29946
4.29941
4.29936
4.29932
4.29929
4.29927
4.29924
4.29922
4.2992
4.29919
4.29918
4.29916
4.29915
4.29915
4.29914
4.29913
4.29913
4.29912
4.29912
4.29911
4.29911
4.29911
4.2991
4.2991
4.2991
4.2991
4.2991
4.2991
4.2991
4.2991
4.29911
4.29911
4.29911
4.29912
4.29912
4.29913
4.29913
4.29914
4.29915
4.29915
4.29916
4.29918
4.29919
4.2992
4.29922
4.29924
4.29927
4.29929
4.29932
4.29936
4.29941
4.29946
4.29952
4.2996
4.29971
4.29985
4.36454
4.36441
4.3643
4.36422
4.36416
4.3641
4.36406
4.36402
4.36399
4.36396
4.36394
4.36392
4.3639
4.36389
4.36387
4.36386
4.36385
4.36384
4.36384
4.36383
4.36382
4.36382
4.36381
4.36381
4.36381
4.3638
4.3638
4.3638
4.3638
4.3638
4.3638
4.3638
4.3638
4.3638
4.3638
4.36381
4.36381
4.36381
4.36382
4.36382
4.36383
4.36384
4.36384
4.36385
4.36386
4.36387
4.36389
4.3639
4.36392
4.36394
4.36396
4.36399
4.36402
4.36406
4.3641
4.36416
4.36422
4.3643
4.36441
4.36454
4.42981
4.42968
4.42958
4.4295
4.42943
4.42938
4.42933
4.4293
4.42927
4.42924
4.42921
4.42919
4.42918
4.42916
4.42915
4.42914
4.42913
4.42912
4.42911
4.4291
4.4291
4.42909
4.42909
4.42908
4.42908
4.42908
4.42908
4.42907
4.42907
4.42907
4.42907
4.42907
4.42907
4.42908
4.42908
4.42908
4.42908
4.42909
4.42909
4.4291
4.4291
4.42911
4.42912
4.42913
4.42914
4.42915
4.42916
4.42918
4.42919
4.42921
4.42924
4.42927
4.4293
4.42933
4.42938
4.42943
4.4295
4.42958
4.42968
4.42981
4.49577
4.49564
4.49553
4.49545
4.49539
4.49534
4.49529
4.49526
4.49522
4.4952
4.49517
4.49515
4.49514
4.49512
4.49511
4.4951
4.49509
4.49508
4.49507
4.49506
4.49506
4.49505
4.49505
4.49504
4.49504
4.49504
4.49503
4.49503
4.49503
4.49503
4.49503
4.49503
4.49503
4.49503
4.49504
4.49504
4.49504
4.49505
4.49505
4.49506
4.49506
4.49507
4.49508
4.49509
4.4951
4.49511
4.49512
4.49514
4.49515
4.49517
4.4952
4.49522
4.49526
4.49529
4.49534
4.49539
4.49545
4.49553
4.49564
4.49577
4.56251
4.56238
4.56228
4.5622
4.56214
4.56208
4.56204
4.562
4.56197
4.56194
4.56192
4.5619
4.56188
4.56187
4.56185
4.56184
4.56183
4.56182
4.56181
4.56181
4.5618
4.5618
4.56179
4.56179
4.56178
4.56178
4.56178
4.56178
4.56178
4.56178
4.56178
4.56178
4.56178
4.56178
4.56178
4.56178
4.56179
4.56179
4.5618
4.5618
4.56181
4.56181
4.56182
4.56183
4.56184
4.56185
4.56187
4.56188
4.5619
4.56192
4.56194
4.56197
4.562
4.56204
4.56208
4.56214
4.5622
4.56228
4.56238
4.56251
4.63013
4.63001
4.62991
4.62983
4.62977
4.62971
4.62967
4.62963
4.6296
4.62957
4.62955
4.62953
4.62951
4.6295
4.62948
4.62947
4.62946
4.62945
4.62944
4.62944
4.62943
4.62942
4.62942
4.62942
4.62941
4.62941
4.62941
4.62941
4.62941
4.62941
4.62941
4.62941
4.62941
4.62941
4.62941
4.62941
4.62942
4.62942
4.62942
4.62943
4.62944
4.62944
4.62945
4.62946
4.62947
4.62948
4.6295
4.62951
4.62953
4.62955
4.62957
4.6296
4.62963
4.62967
4.62971
4.62977
4.62983
4.62991
4.63001
4.63013
4.69874
4.69862
4.69852
4.69844
4.69838
4.69833
4.69828
4.69824
4.69821
4.69818
4.69816
4.69814
4.69812
4.69811
4.69809
4.69808
4.69807
4.69806
4.69805
4.69805
4.69804
4.69804
4.69803
4.69803
4.69802
4.69802
4.69802
4.69802
4.69802
4.69802
4.69802
4.69802
4.69802
4.69802
4.69802
4.69802
4.69803
4.69803
4.69804
4.69804
4.69805
4.69805
4.69806
4.69807
4.69808
4.69809
4.69811
4.69812
4.69814
4.69816
4.69818
4.69821
4.69824
4.69828
4.69833
4.69838
4.69844
4.69852
4.69862
4.69874
4.76842
4.76831
4.7682
4.76813
4.76806
4.76801
4.76797
4.76793
4.7679
4.76787
4.76785
4.76782
4.76781
4.76779
4.76778
4.76777
4.76776
4.76775
4.76774
4.76773
4.76772
4.76772
4.76772
4.76771
4.76771
4.76771
4.7677
4.7677
4.7677
4.7677
4.7677
4.7677
4.7677
4.7677
4.76771
4.76771
4.76771
4.76772
4.76772
4.76772
4.76773
4.76774
4.76775
4.76776
4.76777
4.76778
4.76779
4.76781
4.76782
4.76785
4.76787
4.7679
4.76793
4.76797
4.76801
4.76806
4.76813
4.7682
4.76831
4.76842
4.83926
4.83915
4.83905
4.83898
4.83891
4.83886
4.83882
4.83878
4.83875
4.83872
4.8387
4.83868
4.83866
4.83864
4.83863
4.83862
4.83861
4.8386
4.83859
4.83858
4.83857
4.83857
4.83856
4.83856
4.83856
4.83856
4.83855
4.83855
4.83855
4.83855
4.83855
4.83855
4.83855
4.83855
4.83856
4.83856
4.83856
4.83856
4.83857
4.83857
4.83858
4.83859
4.8386
4.83861
4.83862
4.83863
4.83864
4.83866
4.83868
4.8387
4.83872
4.83875
4.83878
4.83882
4.83886
4.83891
4.83898
4.83905
4.83915
4.83926
4.91136
4.91126
4.91116
4.91108
4.91102
4.91097
4.91092
4.91089
4.91085
4.91083
4.9108
4.91078
4.91076
4.91075
4.91073
4.91072
4.91071
4.9107
4.91069
4.91069
4.91068
4.91067
4.91067
4.91067
4.91066
4.91066
4.91066
4.91066
4.91066
4.91066
4.91066
4.91066
4.91066
4.91066
4.91066
4.91066
4.91067
4.91067
4.91067
4.91068
4.91069
4.91069
4.9107
4.91071
4.91072
4.91073
4.91075
4.91076
4.91078
4.9108
4.91083
4.91085
4.91089
4.91092
4.91097
4.91102
4.91108
4.91116
4.91126
4.91136
4.98481
4.98471
4.98461
4.98453
4.98447
4.98442
4.98437
4.98434
4.9843
4.98428
4.98425
4.98423
4.98421
4.9842
4.98418
4.98417
4.98416
4.98415
4.98414
4.98414
4.98413
4.98413
4.98412
4.98412
4.98411
4.98411
4.98411
4.98411
4.98411
4.98411
4.98411
4.98411
4.98411
4.98411
4.98411
4.98411
4.98412
4.98412
4.98413
4.98413
4.98414
4.98414
4.98415
4.98416
4.98417
4.98418
4.9842
4.98421
4.98423
4.98425
4.98428
4.9843
4.98434
4.98437
4.98442
4.98447
4.98453
4.98461
4.98471
4.98481
5.05969
5.05959
5.05949
5.05942
5.05935
5.0593
5.05926
5.05922
5.05919
5.05916
5.05914
5.05912
5.0591
5.05908
5.05907
5.05906
5.05905
5.05904
5.05903
5.05902
5.05901
5.05901
5.059
5.059
5.059
5.05899
5.05899
5.05899
5.05899
5.05899
5.05899
5.05899
5.05899
5.05899
5.05899
5.059
5.059
5.059
5.05901
5.05901
5.05902
5.05903
5.05904
5.05905
5.05906
5.05907
5.05908
5.0591
5.05912
5.05914
5.05916
5.05919
5.05922
5.05926
5.0593
5.05935
5.05942
5.05949
5.05959
5.05969
5.13608
5.13599
5.1359
5.13582
5.13576
5.13571
5.13567
5.13563
5.1356
5.13557
5.13554
5.13552
5.1355
5.13549
5.13547
5.13546
5.13545
5.13544
5.13543
5.13543
5.13542
5.13542
5.13541
5.13541
5.1354
5.1354
5.1354
5.1354
5.1354
5.1354
5.1354
5.1354
5.1354
5.1354
5.1354
5.1354
5.13541
5.13541
5.13542
5.13542
5.13543
5.13543
5.13544
5.13545
5.13546
5.13547
5.13549
5.1355
5.13552
5.13554
5.13557
5.1356
5.13563
5.13567
5.13571
5.13576
5.13582
5.1359
5.13599
5.13608
5.21409
5.214
5.21391
5.21384
5.21378
5.21373
5.21368
5.21364
5.21361
5.21358
5.21356
5.21354
5.21352
5.21351
5.21349
5.21348
5.21347
5.21346
5.21345
5.21344
5.21344
5.21343
5.21343
5.21342
5.21342
5.21342
5.21341
5.21341
5.21341
5.21341
5.21341
5.21341
5.21341
5.21341
5.21342
5.21342
5.21342
5.21343
5.21343
5.21344
5.21344
5.21345
5.21346
5.21347
5.21348
5.21349
5.21351
5.21352
5.21354
5.21356
5.21358
5.21361
5.21364
5.21368
5.21373
5.21378
5.21384
5.21391
5.214
5.21409
5.2938
5.29372
5.29363
5.29355
5.29349
5.29344
5.2934
5.29336
5.29333
5.2933
5.29328
5.29325
5.29324
5.29322
5.29321
5.29319
5.29318
5.29317
5.29317
5.29316
5.29315
5.29315
5.29314
5.29314
5.29313
5.29313
5.29313
5.29313
5.29313
5.29313
5.29313
5.29313
5.29313
5.29313
5.29313
5.29313
5.29314
5.29314
5.29315
5.29315
5.29316
5.29317
5.29317
5.29318
5.29319
5.29321
5.29322
5.29324
5.29325
5.29328
5.2933
5.29333
5.29336
5.2934
5.29344
5.29349
5.29355
5.29363
5.29372
5.2938
5.3753
5.37521
5.37513
5.37505
5.37499
5.37494
5.3749
5.37486
5.37483
5.3748
5.37478
5.37476
5.37474
5.37472
5.37471
5.3747
5.37469
5.37468
5.37467
5.37466
5.37465
5.37465
5.37464
5.37464
5.37464
5.37463
5.37463
5.37463
5.37463
5.37463
5.37463
5.37463
5.37463
5.37463
5.37463
5.37464
5.37464
5.37464
5.37465
5.37465
5.37466
5.37467
5.37468
5.37469
5.3747
5.37471
5.37472
5.37474
5.37476
5.37478
5.3748
5.37483
5.37486
5.3749
5.37494
5.37499
5.37505
5.37513
5.37521
5.3753
5.45867
5.45859
5.4585
5.45843
5.45837
5.45832
5.45828
5.45824
5.45821
5.45818
5.45816
5.45814
5.45812
5.4581
5.45809
5.45808
5.45806
5.45806
5.45805
5.45804
5.45803
5.45803
5.45802
5.45802
5.45801
5.45801
5.45801
5.45801
5.45801
5.45801
5.45801
5.45801
5.45801
5.45801
5.45801
5.45801
5.45802
5.45802
5.45803
5.45803
5.45804
5.45805
5.45806
5.45806
5.45808
5.45809
5.4581
5.45812
5.45814
5.45816
5.45818
5.45821
5.45824
5.45828
5.45832
5.45837
5.45843
5.4585
5.45859
5.45867
5.54401
5.54393
5.54385
5.54378
5.54372
5.54367
5.54362
5.54359
5.54356
5.54353
5.5435
5.54348
5.54346
5.54345
5.54343
5.54342
5.54341
5.5434
5.54339
5.54339
5.54338
5.54337
5.54337
5.54336
5.54336
5.54336
5.54336
5.54335
5.54335
5.54335
5.54335
5.54335
5.54335
5.54336
5.54336
5.54336
5.54336
5.54337
5.54337
5.54338
5.54339
5.54339
5.5434
5.54341
5.54342
5.54343
5.54345
5.54346
5.54348
5.5435
5.54353
5.54356
5.54359
5.54362
5.54367
5.54372
5.54378
5.54385
5.54393
5.54401
5.63141
5.63133
5.63125
5.63118
5.63112
5.63107
5.63103
5.63099
5.63096
5.63093
5.63091
5.63089
5.63087
5.63085
5.63084
5.63083
5.63082
5.63081
5.6308
5.63079
5.63078
5.63078
5.63077
5.63077
5.63077
5.63076
5.63076
5.63076
5.63076
5.63076
5.63076
5.63076
5.63076
5.63076
5.63076
5.63077
5.63077
5.63077
5.63078
5.63078
5.63079
5.6308
5.63081
5.63082
5.63083
5.63084
5.63085
5.63087
5.63089
5.63091
5.63093
5.63096
5.63099
5.63103
5.63107
5.63112
5.63118
5.63125
5.63133
5.63141
5.72095
5.72088
5.7208
5.72073
5.72068
5.72063
5.72058
5.72055
5.72052
5.72049
5.72046
5.72044
5.72043
5.72041
5.72039
5.72038
5.72037
5.72036
5.72035
5.72035
5.72034
5.72033
5.72033
5.72032
5.72032
5.72032
5.72032
5.72031
5.72031
5.72031
5.72031
5.72031
5.72031
5.72032
5.72032
5.72032
5.72032
5.72033
5.72033
5.72034
5.72035
5.72035
5.72036
5.72037
5.72038
5.72039
5.72041
5.72043
5.72044
5.72046
5.72049
5.72052
5.72055
5.72058
5.72063
5.72068
5.72073
5.7208
5.72088
5.72095
5.81275
5.81268
5.8126
5.81253
5.81248
5.81243
5.81238
5.81235
5.81232
5.81229
5.81226
5.81224
5.81222
5.81221
5.81219
5.81218
5.81217
5.81216
5.81215
5.81214
5.81214
5.81213
5.81213
5.81212
5.81212
5.81212
5.81211
5.81211
5.81211
5.81211
5.81211
5.81211
5.81211
5.81211
5.81212
5.81212
5.81212
5.81213
5.81213
5.81214
5.81214
5.81215
5.81216
5.81217
5.81218
5.81219
5.81221
5.81222
5.81224
5.81226
5.81229
5.81232
5.81235
5.81238
5.81243
5.81248
5.81253
5.8126
5.81268
5.81275
5.90688
5.90681
5.90674
5.90667
5.90661
5.90656
5.90652
5.90649
5.90645
5.90643
5.9064
5.90638
5.90636
5.90635
5.90633
5.90632
5.90631
5.9063
5.90629
5.90628
5.90628
5.90627
5.90627
5.90626
5.90626
5.90626
5.90625
5.90625
5.90625
5.90625
5.90625
5.90625
5.90625
5.90625
5.90626
5.90626
5.90626
5.90627
5.90627
5.90628
5.90628
5.90629
5.9063
5.90631
5.90632
5.90633
5.90635
5.90636
5.90638
5.9064
5.90643
5.90645
5.90649
5.90652
5.90656
5.90661
5.90667
5.90674
5.90681
5.90688
6.00344
6.00338
6.00331
6.00324
6.00318
6.00314
6.00309
6.00306
6.00303
6.003
6.00298
6.00295
6.00294
6.00292
6.00291
6.00289
6.00288
6.00287
6.00286
6.00286
6.00285
6.00284
6.00284
6.00283
6.00283
6.00283
6.00283
6.00282
6.00282
6.00282
6.00282
6.00282
6.00282
6.00283
6.00283
6.00283
6.00283
6.00284
6.00284
6.00285
6.00286
6.00286
6.00287
6.00288
6.00289
6.00291
6.00292
6.00294
6.00295
6.00298
6.003
6.00303
6.00306
6.00309
6.00314
6.00318
6.00324
6.00331
6.00338
6.00344
6.10254
6.10248
6.10241
6.10234
6.10229
6.10224
6.1022
6.10216
6.10213
6.10211
6.10208
6.10206
6.10204
6.10203
6.10201
6.102
6.10199
6.10198
6.10197
6.10196
6.10195
6.10195
6.10194
6.10194
6.10194
6.10193
6.10193
6.10193
6.10193
6.10193
6.10193
6.10193
6.10193
6.10193
6.10193
6.10194
6.10194
6.10194
6.10195
6.10195
6.10196
6.10197
6.10198
6.10199
6.102
6.10201
6.10203
6.10204
6.10206
6.10208
6.10211
6.10213
6.10216
6.1022
6.10224
6.10229
6.10234
6.10241
6.10248
6.10254
6.20427
6.20421
6.20414
6.20408
6.20403
6.20398
6.20394
6.2039
6.20387
6.20384
6.20382
6.2038
6.20378
6.20376
6.20375
6.20374
6.20373
6.20372
6.20371
6.2037
6.20369
6.20369
6.20368
6.20368
6.20367
6.20367
6.20367
6.20367
6.20367
6.20367
6.20367
6.20367
6.20367
6.20367
6.20367
6.20367
6.20368
6.20368
6.20369
6.20369
6.2037
6.20371
6.20372
6.20373
6.20374
6.20375
6.20376
6.20378
6.2038
6.20382
6.20384
6.20387
6.2039
6.20394
6.20398
6.20403
6.20408
6.20414
6.20421
6.20427
6.30873
6.30868
6.30861
6.30855
6.3085
6.30845
6.30841
6.30837
6.30834
6.30832
6.30829
6.30827
6.30825
6.30824
6.30822
6.30821
6.3082
6.30819
6.30818
6.30817
6.30816
6.30816
6.30815
6.30815
6.30815
6.30814
6.30814
6.30814
6.30814
6.30814
6.30814
6.30814
6.30814
6.30814
6.30814
6.30815
6.30815
6.30815
6.30816
6.30816
6.30817
6.30818
6.30819
6.3082
6.30821
6.30822
6.30824
6.30825
6.30827
6.30829
6.30832
6.30834
6.30837
6.30841
6.30845
6.3085
6.30855
6.30861
6.30868
6.30873
6.41603
6.41598
6.41591
6.41585
6.4158
6.41576
6.41572
6.41568
6.41565
6.41562
6.4156
6.41558
6.41556
6.41554
6.41553
6.41552
6.41551
6.4155
6.41549
6.41548
6.41547
6.41547
6.41546
6.41546
6.41545
6.41545
6.41545
6.41545
6.41545
6.41544
6.41544
6.41545
6.41545
6.41545
6.41545
6.41545
6.41546
6.41546
6.41547
6.41547
6.41548
6.41549
6.4155
6.41551
6.41552
6.41553
6.41554
6.41556
6.41558
6.4156
6.41562
6.41565
6.41568
6.41572
6.41576
6.4158
6.41585
6.41591
6.41598
6.41603
6.52627
6.52622
6.52616
6.5261
6.52605
6.526
6.52597
6.52593
6.5259
6.52587
6.52585
6.52583
6.52581
6.52579
6.52578
6.52577
6.52576
6.52575
6.52574
6.52573
6.52572
6.52572
6.52571
6.52571
6.5257
6.5257
6.5257
6.5257
6.5257
6.52569
6.52569
6.5257
6.5257
6.5257
6.5257
6.5257
6.52571
6.52571
6.52572
6.52572
6.52573
6.52574
6.52575
6.52576
6.52577
6.52578
6.52579
6.52581
6.52583
6.52585
6.52587
6.5259
6.52593
6.52597
6.526
6.52605
6.5261
6.52616
6.52622
6.52627
6.63956
6.63951
6.63945
6.6394
6.63935
6.6393
6.63926
6.63923
6.6392
6.63917
6.63915
6.63913
6.63911
6.63909
6.63908
6.63907
6.63905
6.63904
6.63904
6.63903
6.63902
6.63901
6.63901
6.63901
6.639
6.639
6.639
6.63899
6.63899
6.63899
6.63899
6.63899
6.63899
6.639
6.639
6.639
6.63901
6.63901
6.63901
6.63902
6.63903
6.63904
6.63904
6.63905
6.63907
6.63908
6.63909
6.63911
6.63913
6.63915
6.63917
6.6392
6.63923
6.63926
6.6393
6.63935
6.6394
6.63945
6.63951
6.63956
6.75601
6.75596
6.75591
6.75585
6.7558
6.75576
6.75572
6.75569
6.75566
6.75563
6.75561
6.75558
6.75557
6.75555
6.75554
6.75552
6.75551
6.7555
6.75549
6.75549
6.75548
6.75547
6.75547
6.75546
6.75546
6.75546
6.75545
6.75545
6.75545
6.75545
6.75545
6.75545
6.75545
6.75545
6.75546
6.75546
6.75546
6.75547
6.75547
6.75548
6.75549
6.75549
6.7555
6.75551
6.75552
6.75554
6.75555
6.75557
6.75558
6.75561
6.75563
6.75566
6.75569
6.75572
6.75576
6.7558
6.75585
6.75591
6.75596
6.75601
6.87573
6.87568
6.87563
6.87558
6.87553
6.87548
6.87545
6.87541
6.87538
6.87536
6.87533
6.87531
6.87529
6.87528
6.87526
6.87525
6.87524
6.87523
6.87522
6.87521
6.87521
6.8752
6.8752
6.87519
6.87519
6.87518
6.87518
6.87518
6.87518
6.87518
6.87518
6.87518
6.87518
6.87518
6.87518
6.87519
6.87519
6.8752
6.8752
6.87521
6.87521
6.87522
6.87523
6.87524
6.87525
6.87526
6.87528
6.87529
6.87531
6.87533
6.87536
6.87538
6.87541
6.87545
6.87548
6.87553
6.87558
6.87563
6.87568
6.87573
6.99883
6.99879
6.99874
6.99869
6.99864
6.9986
6.99856
6.99852
6.99849
6.99847
6.99845
6.99843
6.99841
6.99839
6.99838
6.99836
6.99835
6.99834
6.99833
6.99833
6.99832
6.99831
6.99831
6.9983
6.9983
6.9983
6.99829
6.99829
6.99829
6.99829
6.99829
6.99829
6.99829
6.99829
6.9983
6.9983
6.9983
6.99831
6.99831
6.99832
6.99833
6.99833
6.99834
6.99835
6.99836
6.99838
6.99839
6.99841
6.99843
6.99845
6.99847
6.99849
6.99852
6.99856
6.9986
6.99864
6.99869
6.99874
6.99879
6.99883
7.12543
7.1254
7.12535
7.1253
7.12525
7.12521
7.12517
7.12514
7.12511
7.12508
7.12506
7.12504
7.12502
7.125
7.12499
7.12498
7.12497
7.12496
7.12495
7.12494
7.12493
7.12493
7.12492
7.12492
7.12491
7.12491
7.12491
7.12491
7.1249
7.1249
7.1249
7.1249
7.12491
7.12491
7.12491
7.12491
7.12492
7.12492
7.12493
7.12493
7.12494
7.12495
7.12496
7.12497
7.12498
7.12499
7.125
7.12502
7.12504
7.12506
7.12508
7.12511
7.12514
7.12517
7.12521
7.12525
7.1253
7.12535
7.1254
7.12543
7.25566
7.25562
7.25557
7.25553
7.25548
7.25544
7.2554
7.25537
7.25534
7.25532
7.25529
7.25527
7.25525
7.25524
7.25522
7.25521
7.2552
7.25519
7.25518
7.25517
7.25517
7.25516