/*--------------------------------*- C++ -*----------------------------------*\
| =========                 |                                                 |
| \\      /  F ield         | foam-extend: Open Source CFD                    |
|  \\    /   O peration     | Version:     4.0                                |
|   \\  /    A nd           | Web:         http://www.foam-extend.org         |
|    \\/     M anipulation  |                                                 |
\*---------------------------------------------------------------------------*/
FoamFile
{
    version     2.0;
    format      ascii;
    class       volScalarField;
    location    "890";
    object      cPlus;
}
// * * * * * * * * * * * * * * * * * * * * * * * * * * * * * * * * * * * * * //

dimensions      [0 0 0 0 0 0 0];

internalField   nonuniform List<scalar> 
6960
(
0.205559
0.205488
0.205466
0.205459
0.205457
0.205457
0.205458
0.205458
0.205459
0.205459
0.20546
0.20546
0.205461
0.205461
0.205462
0.205462
0.205462
0.205463
0.205463
0.205463
0.205464
0.205464
0.205464
0.205464
0.205464
0.205465
0.205465
0.205465
0.205465
0.205465
0.205465
0.205465
0.205465
0.205465
0.205465
0.205464
0.205464
0.205464
0.205464
0.205464
0.205463
0.205463
0.205463
0.205462
0.205462
0.205462
0.205461
0.205461
0.20546
0.20546
0.205459
0.205459
0.205458
0.205458
0.205457
0.205457
0.205459
0.205466
0.205488
0.205559
0.066733
0.066728
0.0667257
0.0667252
0.0667253
0.0667256
0.0667259
0.0667262
0.0667266
0.0667268
0.0667271
0.0667274
0.0667276
0.0667278
0.0667281
0.0667282
0.0667284
0.0667286
0.0667287
0.0667289
0.066729
0.0667291
0.0667292
0.0667293
0.0667294
0.0667294
0.0667295
0.0667295
0.0667295
0.0667295
0.0667295
0.0667295
0.0667295
0.0667295
0.0667294
0.0667294
0.0667293
0.0667292
0.0667291
0.066729
0.0667289
0.0667287
0.0667286
0.0667284
0.0667282
0.0667281
0.0667278
0.0667276
0.0667274
0.0667271
0.0667268
0.0667266
0.0667262
0.0667259
0.0667256
0.0667253
0.0667252
0.0667257
0.066728
0.066733
0.047449
0.0474668
0.0474717
0.0474734
0.0474741
0.0474745
0.0474748
0.047475
0.0474752
0.0474754
0.0474756
0.0474758
0.0474759
0.0474761
0.0474762
0.0474763
0.0474764
0.0474765
0.0474766
0.0474767
0.0474767
0.0474768
0.0474769
0.0474769
0.047477
0.047477
0.047477
0.047477
0.0474771
0.0474771
0.0474771
0.0474771
0.047477
0.047477
0.047477
0.047477
0.0474769
0.0474769
0.0474768
0.0474767
0.0474767
0.0474766
0.0474765
0.0474764
0.0474763
0.0474762
0.0474761
0.0474759
0.0474758
0.0474756
0.0474754
0.0474752
0.047475
0.0474748
0.0474745
0.0474741
0.0474734
0.0474717
0.0474668
0.047449
0.045665
0.0456896
0.0456966
0.0456989
0.0456998
0.0457003
0.0457006
0.0457008
0.045701
0.0457012
0.0457014
0.0457015
0.0457016
0.0457018
0.0457019
0.045702
0.0457021
0.0457022
0.0457022
0.0457023
0.0457024
0.0457024
0.0457025
0.0457025
0.0457025
0.0457026
0.0457026
0.0457026
0.0457026
0.0457026
0.0457026
0.0457026
0.0457026
0.0457026
0.0457026
0.0457025
0.0457025
0.0457025
0.0457024
0.0457024
0.0457023
0.0457022
0.0457022
0.0457021
0.045702
0.0457019
0.0457018
0.0457016
0.0457015
0.0457014
0.0457012
0.045701
0.0457008
0.0457006
0.0457003
0.0456998
0.0456989
0.0456966
0.0456896
0.045665
0.0468287
0.0468563
0.0468641
0.0468667
0.0468677
0.0468682
0.0468686
0.0468688
0.046869
0.0468692
0.0468694
0.0468695
0.0468697
0.0468698
0.0468699
0.04687
0.0468701
0.0468702
0.0468703
0.0468703
0.0468704
0.0468705
0.0468705
0.0468706
0.0468706
0.0468706
0.0468707
0.0468707
0.0468707
0.0468707
0.0468707
0.0468707
0.0468707
0.0468707
0.0468706
0.0468706
0.0468706
0.0468705
0.0468705
0.0468704
0.0468703
0.0468703
0.0468702
0.0468701
0.04687
0.0468699
0.0468698
0.0468697
0.0468695
0.0468694
0.0468692
0.046869
0.0468688
0.0468686
0.0468682
0.0468677
0.0468667
0.0468641
0.0468563
0.0468287
0.0487044
0.0487343
0.0487428
0.0487457
0.0487468
0.0487473
0.0487477
0.0487479
0.0487482
0.0487484
0.0487485
0.0487487
0.0487489
0.048749
0.0487491
0.0487492
0.0487493
0.0487494
0.0487495
0.0487496
0.0487497
0.0487497
0.0487498
0.0487498
0.0487499
0.0487499
0.0487499
0.04875
0.04875
0.04875
0.04875
0.04875
0.04875
0.0487499
0.0487499
0.0487499
0.0487498
0.0487498
0.0487497
0.0487497
0.0487496
0.0487495
0.0487494
0.0487493
0.0487492
0.0487491
0.048749
0.0487489
0.0487487
0.0487485
0.0487484
0.0487482
0.0487479
0.0487477
0.0487473
0.0487468
0.0487457
0.0487428
0.0487343
0.0487044
0.0509948
0.0510272
0.0510365
0.0510396
0.0510408
0.0510414
0.0510418
0.0510421
0.0510424
0.0510426
0.0510428
0.051043
0.0510432
0.0510433
0.0510435
0.0510436
0.0510437
0.0510438
0.0510439
0.051044
0.0510441
0.0510442
0.0510442
0.0510443
0.0510443
0.0510444
0.0510444
0.0510444
0.0510444
0.0510444
0.0510444
0.0510444
0.0510444
0.0510444
0.0510444
0.0510443
0.0510443
0.0510442
0.0510442
0.0510441
0.051044
0.0510439
0.0510438
0.0510437
0.0510436
0.0510435
0.0510433
0.0510432
0.051043
0.0510428
0.0510426
0.0510424
0.0510421
0.0510418
0.0510414
0.0510408
0.0510396
0.0510365
0.0510272
0.0509948
0.0537387
0.0537744
0.0537846
0.053788
0.0537894
0.05379
0.0537905
0.0537908
0.0537911
0.0537913
0.0537916
0.0537918
0.053792
0.0537921
0.0537923
0.0537925
0.0537926
0.0537927
0.0537928
0.0537929
0.053793
0.0537931
0.0537932
0.0537932
0.0537933
0.0537933
0.0537934
0.0537934
0.0537934
0.0537934
0.0537934
0.0537934
0.0537934
0.0537934
0.0537933
0.0537933
0.0537932
0.0537932
0.0537931
0.053793
0.0537929
0.0537928
0.0537927
0.0537926
0.0537925
0.0537923
0.0537921
0.053792
0.0537918
0.0537916
0.0537913
0.0537911
0.0537908
0.0537905
0.05379
0.0537894
0.053788
0.0537846
0.0537744
0.0537387
0.0570689
0.0571088
0.0571202
0.0571241
0.0571256
0.0571263
0.0571268
0.0571272
0.0571275
0.0571278
0.0571281
0.0571284
0.0571286
0.0571288
0.057129
0.0571291
0.0571293
0.0571294
0.0571296
0.0571297
0.0571298
0.0571299
0.05713
0.05713
0.0571301
0.0571301
0.0571302
0.0571302
0.0571302
0.0571302
0.0571302
0.0571302
0.0571302
0.0571302
0.0571301
0.0571301
0.05713
0.05713
0.0571299
0.0571298
0.0571297
0.0571296
0.0571294
0.0571293
0.0571291
0.057129
0.0571288
0.0571286
0.0571284
0.0571281
0.0571278
0.0571275
0.0571272
0.0571268
0.0571263
0.0571256
0.0571241
0.0571202
0.0571088
0.0570689
0.0611945
0.0612398
0.0612529
0.0612573
0.061259
0.0612599
0.0612605
0.0612609
0.0612613
0.0612617
0.061262
0.0612623
0.0612625
0.0612628
0.061263
0.0612632
0.0612634
0.0612636
0.0612637
0.0612639
0.061264
0.0612641
0.0612642
0.0612643
0.0612644
0.0612644
0.0612645
0.0612645
0.0612645
0.0612645
0.0612645
0.0612645
0.0612645
0.0612645
0.0612644
0.0612644
0.0612643
0.0612642
0.0612641
0.061264
0.0612639
0.0612637
0.0612636
0.0612634
0.0612632
0.061263
0.0612628
0.0612625
0.0612623
0.061262
0.0612617
0.0612613
0.0612609
0.0612605
0.0612599
0.061259
0.0612573
0.0612529
0.0612398
0.0611945
0.0664293
0.0664822
0.0664975
0.0665027
0.0665047
0.0665058
0.0665065
0.066507
0.0665075
0.0665079
0.0665083
0.0665087
0.066509
0.0665093
0.0665095
0.0665098
0.06651
0.0665102
0.0665104
0.0665106
0.0665107
0.0665109
0.066511
0.0665111
0.0665112
0.0665113
0.0665113
0.0665114
0.0665114
0.0665114
0.0665114
0.0665114
0.0665114
0.0665113
0.0665113
0.0665112
0.0665111
0.066511
0.0665109
0.0665107
0.0665106
0.0665104
0.0665102
0.06651
0.0665098
0.0665095
0.0665093
0.066509
0.0665087
0.0665083
0.0665079
0.0665075
0.066507
0.0665065
0.0665058
0.0665047
0.0665027
0.0664975
0.0664822
0.0664293
0.073237
0.0733004
0.0733188
0.073325
0.0733275
0.0733288
0.0733297
0.0733304
0.073331
0.0733315
0.073332
0.0733324
0.0733328
0.0733332
0.0733335
0.0733339
0.0733341
0.0733344
0.0733346
0.0733348
0.073335
0.0733352
0.0733354
0.0733355
0.0733356
0.0733357
0.0733358
0.0733358
0.0733359
0.0733359
0.0733359
0.0733359
0.0733358
0.0733358
0.0733357
0.0733356
0.0733355
0.0733354
0.0733352
0.073335
0.0733348
0.0733346
0.0733344
0.0733341
0.0733339
0.0733335
0.0733332
0.0733328
0.0733324
0.073332
0.0733315
0.073331
0.0733304
0.0733297
0.0733288
0.0733275
0.073325
0.0733188
0.0733004
0.073237
0.0822646
0.0823426
0.0823654
0.0823732
0.0823763
0.0823779
0.082379
0.0823799
0.0823806
0.0823813
0.0823819
0.0823825
0.082383
0.0823835
0.0823839
0.0823843
0.0823846
0.082385
0.0823853
0.0823856
0.0823858
0.082386
0.0823862
0.0823864
0.0823865
0.0823866
0.0823867
0.0823868
0.0823869
0.0823869
0.0823869
0.0823869
0.0823868
0.0823867
0.0823866
0.0823865
0.0823864
0.0823862
0.082386
0.0823858
0.0823856
0.0823853
0.082385
0.0823846
0.0823843
0.0823839
0.0823835
0.082383
0.0823825
0.0823819
0.0823813
0.0823806
0.0823799
0.082379
0.0823779
0.0823763
0.0823732
0.0823654
0.0823426
0.0822646
0.0943151
0.094413
0.0944418
0.0944516
0.0944556
0.0944576
0.094459
0.0944601
0.0944611
0.094462
0.0944628
0.0944635
0.0944641
0.0944647
0.0944653
0.0944658
0.0944662
0.0944667
0.0944671
0.0944674
0.0944677
0.094468
0.0944682
0.0944685
0.0944686
0.0944688
0.0944689
0.094469
0.0944691
0.0944691
0.0944691
0.0944691
0.094469
0.0944689
0.0944688
0.0944686
0.0944685
0.0944682
0.094468
0.0944677
0.0944674
0.0944671
0.0944667
0.0944662
0.0944658
0.0944653
0.0944647
0.0944641
0.0944635
0.0944628
0.094462
0.0944611
0.0944601
0.094459
0.0944576
0.0944556
0.0944516
0.0944418
0.094413
0.0943151
0.110193
0.110317
0.110353
0.110366
0.110371
0.110373
0.110375
0.110376
0.110378
0.110379
0.11038
0.110381
0.110381
0.110382
0.110383
0.110383
0.110384
0.110385
0.110385
0.110385
0.110386
0.110386
0.110387
0.110387
0.110387
0.110387
0.110387
0.110388
0.110388
0.110388
0.110388
0.110388
0.110388
0.110387
0.110387
0.110387
0.110387
0.110387
0.110386
0.110386
0.110385
0.110385
0.110385
0.110384
0.110383
0.110383
0.110382
0.110381
0.110381
0.11038
0.110379
0.110378
0.110376
0.110375
0.110373
0.110371
0.110366
0.110353
0.110317
0.110193
0.13042
0.130573
0.130618
0.130634
0.13064
0.130644
0.130646
0.130647
0.130649
0.13065
0.130651
0.130653
0.130653
0.130654
0.130655
0.130656
0.130657
0.130657
0.130658
0.130658
0.130659
0.130659
0.13066
0.13066
0.13066
0.130661
0.130661
0.130661
0.130661
0.130661
0.130661
0.130661
0.130661
0.130661
0.130661
0.13066
0.13066
0.13066
0.130659
0.130659
0.130658
0.130658
0.130657
0.130657
0.130656
0.130655
0.130654
0.130653
0.130653
0.130651
0.13065
0.130649
0.130647
0.130646
0.130644
0.13064
0.130634
0.130618
0.130573
0.13042
0.154949
0.155133
0.155189
0.155208
0.155215
0.155219
0.155222
0.155224
0.155225
0.155227
0.155228
0.15523
0.155231
0.155232
0.155233
0.155234
0.155234
0.155235
0.155236
0.155236
0.155237
0.155237
0.155238
0.155238
0.155239
0.155239
0.155239
0.155239
0.155239
0.155239
0.155239
0.155239
0.155239
0.155239
0.155239
0.155239
0.155238
0.155238
0.155237
0.155237
0.155236
0.155236
0.155235
0.155234
0.155234
0.155233
0.155232
0.155231
0.15523
0.155228
0.155227
0.155225
0.155224
0.155222
0.155219
0.155215
0.155208
0.155189
0.155133
0.154949
0.183101
0.183315
0.18338
0.183403
0.183412
0.183416
0.183419
0.183421
0.183423
0.183425
0.183426
0.183427
0.183429
0.18343
0.183431
0.183432
0.183433
0.183434
0.183434
0.183435
0.183436
0.183436
0.183437
0.183437
0.183437
0.183438
0.183438
0.183438
0.183438
0.183438
0.183438
0.183438
0.183438
0.183438
0.183438
0.183437
0.183437
0.183437
0.183436
0.183436
0.183435
0.183434
0.183434
0.183433
0.183432
0.183431
0.18343
0.183429
0.183427
0.183426
0.183425
0.183423
0.183421
0.183419
0.183416
0.183412
0.183403
0.18338
0.183315
0.183101
0.213786
0.214027
0.214101
0.214126
0.214136
0.214141
0.214144
0.214147
0.214149
0.21415
0.214152
0.214154
0.214155
0.214156
0.214157
0.214158
0.214159
0.21416
0.214161
0.214161
0.214162
0.214163
0.214163
0.214164
0.214164
0.214164
0.214165
0.214165
0.214165
0.214165
0.214165
0.214165
0.214165
0.214165
0.214164
0.214164
0.214164
0.214163
0.214163
0.214162
0.214161
0.214161
0.21416
0.214159
0.214158
0.214157
0.214156
0.214155
0.214154
0.214152
0.21415
0.214149
0.214147
0.214144
0.214141
0.214136
0.214126
0.214101
0.214027
0.213786
0.24586
0.246123
0.246206
0.246234
0.246245
0.24625
0.246254
0.246256
0.246258
0.24626
0.246262
0.246263
0.246264
0.246266
0.246267
0.246268
0.246269
0.24627
0.24627
0.246271
0.246272
0.246272
0.246273
0.246273
0.246274
0.246274
0.246274
0.246274
0.246274
0.246275
0.246275
0.246274
0.246274
0.246274
0.246274
0.246274
0.246273
0.246273
0.246272
0.246272
0.246271
0.24627
0.24627
0.246269
0.246268
0.246267
0.246266
0.246264
0.246263
0.246262
0.24626
0.246258
0.246256
0.246254
0.24625
0.246245
0.246234
0.246206
0.246123
0.24586
0.27839
0.278672
0.278762
0.278793
0.278805
0.278811
0.278814
0.278816
0.278818
0.27882
0.278822
0.278823
0.278825
0.278826
0.278827
0.278828
0.278829
0.27883
0.278831
0.278831
0.278832
0.278832
0.278833
0.278833
0.278834
0.278834
0.278834
0.278834
0.278835
0.278835
0.278835
0.278835
0.278834
0.278834
0.278834
0.278834
0.278833
0.278833
0.278832
0.278832
0.278831
0.278831
0.27883
0.278829
0.278828
0.278827
0.278826
0.278825
0.278823
0.278822
0.27882
0.278818
0.278816
0.278814
0.278811
0.278805
0.278793
0.278762
0.278672
0.27839
0.310737
0.311035
0.311131
0.311165
0.311177
0.311183
0.311187
0.311189
0.311191
0.311193
0.311194
0.311196
0.311197
0.311198
0.311199
0.3112
0.311201
0.311202
0.311203
0.311204
0.311204
0.311205
0.311205
0.311206
0.311206
0.311206
0.311207
0.311207
0.311207
0.311207
0.311207
0.311207
0.311207
0.311207
0.311206
0.311206
0.311206
0.311205
0.311205
0.311204
0.311204
0.311203
0.311202
0.311201
0.3112
0.311199
0.311198
0.311197
0.311196
0.311194
0.311193
0.311191
0.311189
0.311187
0.311183
0.311177
0.311165
0.311131
0.311035
0.310737
0.342513
0.342824
0.342926
0.342962
0.342975
0.342981
0.342985
0.342987
0.342989
0.342991
0.342993
0.342994
0.342995
0.342996
0.342997
0.342998
0.342999
0.343
0.343001
0.343001
0.343002
0.343003
0.343003
0.343003
0.343004
0.343004
0.343004
0.343004
0.343005
0.343005
0.343005
0.343005
0.343004
0.343004
0.343004
0.343004
0.343003
0.343003
0.343003
0.343002
0.343001
0.343001
0.343
0.342999
0.342998
0.342997
0.342996
0.342995
0.342994
0.342993
0.342991
0.342989
0.342987
0.342985
0.342981
0.342975
0.342962
0.342926
0.342824
0.342513
0.373499
0.373821
0.373929
0.373967
0.373981
0.373988
0.373991
0.373994
0.373996
0.373997
0.373999
0.374
0.374001
0.374002
0.374003
0.374004
0.374005
0.374006
0.374007
0.374007
0.374008
0.374008
0.374009
0.374009
0.374009
0.37401
0.37401
0.37401
0.37401
0.37401
0.37401
0.37401
0.37401
0.37401
0.37401
0.374009
0.374009
0.374009
0.374008
0.374008
0.374007
0.374007
0.374006
0.374005
0.374004
0.374003
0.374002
0.374001
0.374
0.373999
0.373997
0.373996
0.373994
0.373991
0.373988
0.373981
0.373967
0.373929
0.373821
0.373499
0.40358
0.40391
0.404023
0.404064
0.404079
0.404086
0.404089
0.404092
0.404094
0.404095
0.404097
0.404098
0.404099
0.4041
0.404101
0.404102
0.404103
0.404103
0.404104
0.404105
0.404105
0.404106
0.404106
0.404107
0.404107
0.404107
0.404107
0.404107
0.404108
0.404108
0.404108
0.404108
0.404107
0.404107
0.404107
0.404107
0.404107
0.404106
0.404106
0.404105
0.404105
0.404104
0.404103
0.404103
0.404102
0.404101
0.4041
0.404099
0.404098
0.404097
0.404095
0.404094
0.404092
0.404089
0.404086
0.404079
0.404064
0.404023
0.40391
0.40358
0.432694
0.433032
0.43315
0.433193
0.433209
0.433216
0.433219
0.433222
0.433223
0.433225
0.433226
0.433228
0.433229
0.43323
0.433231
0.433231
0.433232
0.433233
0.433234
0.433234
0.433235
0.433235
0.433236
0.433236
0.433236
0.433236
0.433237
0.433237
0.433237
0.433237
0.433237
0.433237
0.433237
0.433237
0.433236
0.433236
0.433236
0.433236
0.433235
0.433235
0.433234
0.433234
0.433233
0.433232
0.433231
0.433231
0.43323
0.433229
0.433228
0.433226
0.433225
0.433223
0.433222
0.433219
0.433216
0.433209
0.433193
0.43315
0.433032
0.432694
0.460813
0.461157
0.46128
0.461325
0.461342
0.461349
0.461353
0.461355
0.461357
0.461359
0.46136
0.461361
0.461362
0.461363
0.461364
0.461365
0.461365
0.461366
0.461367
0.461367
0.461368
0.461368
0.461369
0.461369
0.461369
0.461369
0.46137
0.46137
0.46137
0.46137
0.46137
0.46137
0.46137
0.46137
0.461369
0.461369
0.461369
0.461369
0.461368
0.461368
0.461367
0.461367
0.461366
0.461365
0.461365
0.461364
0.461363
0.461362
0.461361
0.46136
0.461359
0.461357
0.461355
0.461353
0.461349
0.461342
0.461325
0.46128
0.461157
0.460813
0.487928
0.488277
0.488404
0.488451
0.488469
0.488477
0.48848
0.488483
0.488484
0.488486
0.488487
0.488488
0.488489
0.48849
0.488491
0.488492
0.488492
0.488493
0.488494
0.488494
0.488495
0.488495
0.488495
0.488496
0.488496
0.488496
0.488496
0.488496
0.488497
0.488497
0.488497
0.488497
0.488496
0.488496
0.488496
0.488496
0.488496
0.488495
0.488495
0.488495
0.488494
0.488494
0.488493
0.488492
0.488492
0.488491
0.48849
0.488489
0.488488
0.488487
0.488486
0.488484
0.488483
0.48848
0.488477
0.488469
0.488451
0.488404
0.488277
0.487928
0.51404
0.514392
0.514523
0.514572
0.514591
0.514599
0.514603
0.514605
0.514607
0.514608
0.514609
0.51461
0.514611
0.514612
0.514613
0.514614
0.514614
0.514615
0.514616
0.514616
0.514616
0.514617
0.514617
0.514618
0.514618
0.514618
0.514618
0.514618
0.514618
0.514618
0.514618
0.514618
0.514618
0.514618
0.514618
0.514618
0.514618
0.514617
0.514617
0.514616
0.514616
0.514616
0.514615
0.514614
0.514614
0.514613
0.514612
0.514611
0.51461
0.514609
0.514608
0.514607
0.514605
0.514603
0.514599
0.514591
0.514572
0.514523
0.514392
0.51404
0.539156
0.539511
0.539646
0.539697
0.539717
0.539725
0.539729
0.539731
0.539733
0.539734
0.539735
0.539736
0.539737
0.539738
0.539739
0.539739
0.53974
0.539741
0.539741
0.539742
0.539742
0.539742
0.539743
0.539743
0.539743
0.539743
0.539744
0.539744
0.539744
0.539744
0.539744
0.539744
0.539744
0.539744
0.539743
0.539743
0.539743
0.539743
0.539742
0.539742
0.539742
0.539741
0.539741
0.53974
0.539739
0.539739
0.539738
0.539737
0.539736
0.539735
0.539734
0.539733
0.539731
0.539729
0.539725
0.539717
0.539697
0.539646
0.539511
0.539156
0.563291
0.563647
0.563785
0.563839
0.563859
0.563868
0.563872
0.563874
0.563876
0.563877
0.563878
0.563879
0.56388
0.56388
0.563881
0.563882
0.563882
0.563883
0.563883
0.563884
0.563884
0.563884
0.563885
0.563885
0.563885
0.563885
0.563886
0.563886
0.563886
0.563886
0.563886
0.563886
0.563886
0.563886
0.563885
0.563885
0.563885
0.563885
0.563884
0.563884
0.563884
0.563883
0.563883
0.563882
0.563882
0.563881
0.56388
0.56388
0.563879
0.563878
0.563877
0.563876
0.563874
0.563872
0.563868
0.563859
0.563839
0.563785
0.563647
0.563291
0.58646
0.586816
0.586958
0.587013
0.587035
0.587044
0.587048
0.58705
0.587052
0.587053
0.587054
0.587055
0.587055
0.587056
0.587057
0.587057
0.587058
0.587058
0.587059
0.587059
0.58706
0.58706
0.58706
0.587061
0.587061
0.587061
0.587061
0.587061
0.587061
0.587061
0.587061
0.587061
0.587061
0.587061
0.587061
0.587061
0.587061
0.58706
0.58706
0.58706
0.587059
0.587059
0.587058
0.587058
0.587057
0.587057
0.587056
0.587055
0.587055
0.587054
0.587053
0.587052
0.58705
0.587048
0.587044
0.587035
0.587013
0.586958
0.586816
0.58646
0.608683
0.609038
0.609183
0.60924
0.609262
0.609272
0.609276
0.609278
0.60928
0.609281
0.609282
0.609283
0.609283
0.609284
0.609285
0.609285
0.609286
0.609286
0.609287
0.609287
0.609287
0.609288
0.609288
0.609288
0.609288
0.609289
0.609289
0.609289
0.609289
0.609289
0.609289
0.609289
0.609289
0.609289
0.609289
0.609288
0.609288
0.609288
0.609288
0.609287
0.609287
0.609287
0.609286
0.609286
0.609285
0.609285
0.609284
0.609283
0.609283
0.609282
0.609281
0.60928
0.609278
0.609276
0.609272
0.609262
0.60924
0.609183
0.609038
0.608683
0.62998
0.630333
0.63048
0.630539
0.630563
0.630572
0.630577
0.630579
0.630581
0.630582
0.630583
0.630583
0.630584
0.630585
0.630585
0.630586
0.630586
0.630587
0.630587
0.630588
0.630588
0.630588
0.630588
0.630589
0.630589
0.630589
0.630589
0.630589
0.630589
0.630589
0.630589
0.630589
0.630589
0.630589
0.630589
0.630589
0.630589
0.630588
0.630588
0.630588
0.630588
0.630587
0.630587
0.630586
0.630586
0.630585
0.630585
0.630584
0.630583
0.630583
0.630582
0.630581
0.630579
0.630577
0.630572
0.630563
0.630539
0.63048
0.630333
0.62998
0.650372
0.650723
0.650872
0.650933
0.650958
0.650968
0.650972
0.650975
0.650976
0.650977
0.650978
0.650979
0.65098
0.65098
0.650981
0.650981
0.650982
0.650982
0.650982
0.650983
0.650983
0.650983
0.650984
0.650984
0.650984
0.650984
0.650984
0.650984
0.650984
0.650984
0.650984
0.650984
0.650984
0.650984
0.650984
0.650984
0.650984
0.650984
0.650983
0.650983
0.650983
0.650982
0.650982
0.650982
0.650981
0.650981
0.65098
0.65098
0.650979
0.650978
0.650977
0.650976
0.650975
0.650972
0.650968
0.650958
0.650933
0.650872
0.650723
0.650372
0.669883
0.670231
0.670382
0.670444
0.67047
0.670481
0.670485
0.670488
0.670489
0.67049
0.670491
0.670492
0.670492
0.670493
0.670493
0.670494
0.670494
0.670495
0.670495
0.670495
0.670496
0.670496
0.670496
0.670496
0.670496
0.670497
0.670497
0.670497
0.670497
0.670497
0.670497
0.670497
0.670497
0.670497
0.670497
0.670496
0.670496
0.670496
0.670496
0.670496
0.670495
0.670495
0.670495
0.670494
0.670494
0.670493
0.670493
0.670492
0.670492
0.670491
0.67049
0.670489
0.670488
0.670485
0.670481
0.67047
0.670444
0.670382
0.670231
0.669883
0.688536
0.688879
0.689032
0.689096
0.689123
0.689134
0.689139
0.689141
0.689143
0.689144
0.689144
0.689145
0.689146
0.689146
0.689147
0.689147
0.689147
0.689148
0.689148
0.689148
0.689149
0.689149
0.689149
0.689149
0.689149
0.68915
0.68915
0.68915
0.68915
0.68915
0.68915
0.68915
0.68915
0.68915
0.68915
0.689149
0.689149
0.689149
0.689149
0.689149
0.689148
0.689148
0.689148
0.689147
0.689147
0.689147
0.689146
0.689146
0.689145
0.689144
0.689144
0.689143
0.689141
0.689139
0.689134
0.689123
0.689096
0.689032
0.688879
0.688536
0.706354
0.706693
0.706847
0.706913
0.70694
0.706952
0.706957
0.706959
0.706961
0.706962
0.706962
0.706963
0.706963
0.706964
0.706964
0.706965
0.706965
0.706965
0.706966
0.706966
0.706966
0.706967
0.706967
0.706967
0.706967
0.706967
0.706967
0.706967
0.706967
0.706967
0.706967
0.706967
0.706967
0.706967
0.706967
0.706967
0.706967
0.706967
0.706967
0.706966
0.706966
0.706966
0.706965
0.706965
0.706965
0.706964
0.706964
0.706963
0.706963
0.706962
0.706962
0.706961
0.706959
0.706957
0.706952
0.70694
0.706913
0.706847
0.706693
0.706354
0.723361
0.723695
0.72385
0.723917
0.723946
0.723958
0.723963
0.723966
0.723967
0.723968
0.723969
0.723969
0.72397
0.72397
0.723971
0.723971
0.723971
0.723972
0.723972
0.723972
0.723972
0.723973
0.723973
0.723973
0.723973
0.723973
0.723973
0.723973
0.723973
0.723973
0.723973
0.723973
0.723973
0.723973
0.723973
0.723973
0.723973
0.723973
0.723973
0.723972
0.723972
0.723972
0.723972
0.723971
0.723971
0.723971
0.72397
0.72397
0.723969
0.723969
0.723968
0.723967
0.723966
0.723963
0.723958
0.723946
0.723917
0.72385
0.723695
0.723361
0.739582
0.739911
0.740066
0.740134
0.740164
0.740176
0.740182
0.740184
0.740186
0.740187
0.740188
0.740188
0.740189
0.740189
0.740189
0.74019
0.74019
0.74019
0.740191
0.740191
0.740191
0.740191
0.740191
0.740191
0.740192
0.740192
0.740192
0.740192
0.740192
0.740192
0.740192
0.740192
0.740192
0.740192
0.740192
0.740192
0.740191
0.740191
0.740191
0.740191
0.740191
0.740191
0.74019
0.74019
0.74019
0.740189
0.740189
0.740189
0.740188
0.740188
0.740187
0.740186
0.740184
0.740182
0.740176
0.740164
0.740134
0.740066
0.739911
0.739582
0.755041
0.755363
0.755518
0.755588
0.755619
0.755632
0.755637
0.75564
0.755642
0.755643
0.755643
0.755644
0.755644
0.755645
0.755645
0.755645
0.755646
0.755646
0.755646
0.755646
0.755646
0.755647
0.755647
0.755647
0.755647
0.755647
0.755647
0.755647
0.755647
0.755647
0.755647
0.755647
0.755647
0.755647
0.755647
0.755647
0.755647
0.755647
0.755647
0.755646
0.755646
0.755646
0.755646
0.755646
0.755645
0.755645
0.755645
0.755644
0.755644
0.755643
0.755643
0.755642
0.75564
0.755637
0.755632
0.755619
0.755588
0.755518
0.755363
0.755041
0.769762
0.770077
0.770232
0.770303
0.770334
0.770348
0.770354
0.770357
0.770359
0.770359
0.77036
0.770361
0.770361
0.770361
0.770362
0.770362
0.770362
0.770362
0.770363
0.770363
0.770363
0.770363
0.770363
0.770363
0.770364
0.770364
0.770364
0.770364
0.770364
0.770364
0.770364
0.770364
0.770364
0.770364
0.770364
0.770364
0.770363
0.770363
0.770363
0.770363
0.770363
0.770363
0.770362
0.770362
0.770362
0.770362
0.770361
0.770361
0.770361
0.77036
0.770359
0.770359
0.770357
0.770354
0.770348
0.770334
0.770303
0.770232
0.770077
0.769762
0.783768
0.784077
0.784231
0.784303
0.784335
0.78435
0.784356
0.784359
0.78436
0.784361
0.784362
0.784362
0.784363
0.784363
0.784363
0.784364
0.784364
0.784364
0.784364
0.784365
0.784365
0.784365
0.784365
0.784365
0.784365
0.784365
0.784365
0.784365
0.784365
0.784365
0.784365
0.784365
0.784365
0.784365
0.784365
0.784365
0.784365
0.784365
0.784365
0.784365
0.784365
0.784364
0.784364
0.784364
0.784364
0.784363
0.784363
0.784363
0.784362
0.784362
0.784361
0.78436
0.784359
0.784356
0.78435
0.784335
0.784303
0.784231
0.784077
0.783768
0.797085
0.797386
0.79754
0.797612
0.797645
0.79766
0.797667
0.79767
0.797671
0.797672
0.797673
0.797673
0.797674
0.797674
0.797674
0.797675
0.797675
0.797675
0.797675
0.797675
0.797675
0.797676
0.797676
0.797676
0.797676
0.797676
0.797676
0.797676
0.797676
0.797676
0.797676
0.797676
0.797676
0.797676
0.797676
0.797676
0.797676
0.797676
0.797676
0.797675
0.797675
0.797675
0.797675
0.797675
0.797675
0.797674
0.797674
0.797674
0.797673
0.797673
0.797672
0.797671
0.79767
0.797667
0.79766
0.797645
0.797612
0.79754
0.797386
0.797085
0.809735
0.810028
0.810181
0.810254
0.810288
0.810304
0.810311
0.810314
0.810315
0.810316
0.810317
0.810317
0.810318
0.810318
0.810318
0.810318
0.810319
0.810319
0.810319
0.810319
0.810319
0.810319
0.810319
0.81032
0.81032
0.81032
0.81032
0.81032
0.81032
0.81032
0.81032
0.81032
0.81032
0.81032
0.81032
0.81032
0.81032
0.810319
0.810319
0.810319
0.810319
0.810319
0.810319
0.810319
0.810318
0.810318
0.810318
0.810318
0.810317
0.810317
0.810316
0.810315
0.810314
0.810311
0.810304
0.810288
0.810254
0.810181
0.810028
0.809735
0.821742
0.822028
0.822179
0.822253
0.822288
0.822303
0.822311
0.822314
0.822316
0.822317
0.822317
0.822318
0.822318
0.822318
0.822318
0.822319
0.822319
0.822319
0.822319
0.822319
0.822319
0.822319
0.82232
0.82232
0.82232
0.82232
0.82232
0.82232
0.82232
0.82232
0.82232
0.82232
0.82232
0.82232
0.82232
0.82232
0.82232
0.82232
0.822319
0.822319
0.822319
0.822319
0.822319
0.822319
0.822319
0.822318
0.822318
0.822318
0.822318
0.822317
0.822317
0.822316
0.822314
0.822311
0.822303
0.822288
0.822253
0.822179
0.822028
0.821742
0.833129
0.833407
0.833557
0.833631
0.833667
0.833683
0.83369
0.833694
0.833696
0.833697
0.833697
0.833698
0.833698
0.833698
0.833698
0.833699
0.833699
0.833699
0.833699
0.833699
0.833699
0.833699
0.833699
0.8337
0.8337
0.8337
0.8337
0.8337
0.8337
0.8337
0.8337
0.8337
0.8337
0.8337
0.8337
0.8337
0.8337
0.833699
0.833699
0.833699
0.833699
0.833699
0.833699
0.833699
0.833699
0.833698
0.833698
0.833698
0.833698
0.833697
0.833697
0.833696
0.833694
0.83369
0.833683
0.833667
0.833631
0.833557
0.833407
0.833129
0.84392
0.84419
0.844337
0.844412
0.844448
0.844465
0.844473
0.844477
0.844479
0.84448
0.84448
0.84448
0.844481
0.844481
0.844481
0.844481
0.844481
0.844482
0.844482
0.844482
0.844482
0.844482
0.844482
0.844482
0.844482
0.844482
0.844482
0.844482
0.844482
0.844482
0.844482
0.844482
0.844482
0.844482
0.844482
0.844482
0.844482
0.844482
0.844482
0.844482
0.844482
0.844482
0.844482
0.844481
0.844481
0.844481
0.844481
0.844481
0.84448
0.84448
0.84448
0.844479
0.844477
0.844473
0.844465
0.844448
0.844412
0.844337
0.84419
0.84392
0.854137
0.854398
0.854543
0.854618
0.854655
0.854673
0.854681
0.854685
0.854687
0.854688
0.854688
0.854689
0.854689
0.854689
0.854689
0.854689
0.854689
0.85469
0.85469
0.85469
0.85469
0.85469
0.85469
0.85469
0.85469
0.85469
0.85469
0.85469
0.85469
0.85469
0.85469
0.85469
0.85469
0.85469
0.85469
0.85469
0.85469
0.85469
0.85469
0.85469
0.85469
0.85469
0.85469
0.854689
0.854689
0.854689
0.854689
0.854689
0.854689
0.854688
0.854688
0.854687
0.854685
0.854681
0.854673
0.854655
0.854618
0.854543
0.854398
0.854137
0.863802
0.864055
0.864198
0.864272
0.86431
0.864328
0.864336
0.86434
0.864342
0.864343
0.864344
0.864344
0.864345
0.864345
0.864345
0.864345
0.864345
0.864345
0.864345
0.864345
0.864345
0.864345
0.864346
0.864346
0.864346
0.864346
0.864346
0.864346
0.864346
0.864346
0.864346
0.864346
0.864346
0.864346
0.864346
0.864346
0.864346
0.864346
0.864345
0.864345
0.864345
0.864345
0.864345
0.864345
0.864345
0.864345
0.864345
0.864345
0.864344
0.864344
0.864343
0.864342
0.86434
0.864336
0.864328
0.86431
0.864272
0.864198
0.864055
0.863802
0.872937
0.873181
0.873321
0.873396
0.873434
0.873452
0.873461
0.873466
0.873468
0.873469
0.873469
0.87347
0.87347
0.87347
0.87347
0.87347
0.87347
0.87347
0.873471
0.873471
0.873471
0.873471
0.873471
0.873471
0.873471
0.873471
0.873471
0.873471
0.873471
0.873471
0.873471
0.873471
0.873471
0.873471
0.873471
0.873471
0.873471
0.873471
0.873471
0.873471
0.873471
0.873471
0.87347
0.87347
0.87347
0.87347
0.87347
0.87347
0.87347
0.873469
0.873469
0.873468
0.873466
0.873461
0.873452
0.873434
0.873396
0.873321
0.873181
0.872937
0.881564
0.881799
0.881937
0.882011
0.882049
0.882068
0.882077
0.882082
0.882084
0.882085
0.882086
0.882086
0.882086
0.882087
0.882087
0.882087
0.882087
0.882087
0.882087
0.882087
0.882087
0.882087
0.882087
0.882087
0.882087
0.882087
0.882087
0.882087
0.882087
0.882087
0.882087
0.882087
0.882087
0.882087
0.882087
0.882087
0.882087
0.882087
0.882087
0.882087
0.882087
0.882087
0.882087
0.882087
0.882087
0.882087
0.882087
0.882086
0.882086
0.882086
0.882085
0.882084
0.882082
0.882077
0.882068
0.882049
0.882011
0.881937
0.881799
0.881564
0.889703
0.88993
0.890064
0.890138
0.890177
0.890196
0.890206
0.890211
0.890213
0.890214
0.890215
0.890215
0.890215
0.890215
0.890215
0.890215
0.890216
0.890216
0.890216
0.890216
0.890216
0.890216
0.890216
0.890216
0.890216
0.890216
0.890216
0.890216
0.890216
0.890216
0.890216
0.890216
0.890216
0.890216
0.890216
0.890216
0.890216
0.890216
0.890216
0.890216
0.890216
0.890216
0.890216
0.890216
0.890215
0.890215
0.890215
0.890215
0.890215
0.890215
0.890214
0.890213
0.890211
0.890206
0.890196
0.890177
0.890138
0.890064
0.88993
0.889703
0.897376
0.897594
0.897725
0.897799
0.897838
0.897857
0.897867
0.897872
0.897875
0.897876
0.897876
0.897877
0.897877
0.897877
0.897877
0.897877