/*--------------------------------*- C++ -*----------------------------------*\
| =========                 |                                                 |
| \\      /  F ield         | foam-extend: Open Source CFD                    |
|  \\    /   O peration     | Version:     4.0                                |
|   \\  /    A nd           | Web:         http://www.foam-extend.org         |
|    \\/     M anipulation  |                                                 |
\*---------------------------------------------------------------------------*/
FoamFile
{
    version     2.0;
    format      ascii;
    class       volScalarField;
    location    "370";
    object      psiE;
}
// * * * * * * * * * * * * * * * * * * * * * * * * * * * * * * * * * * * * * //

dimensions      [0 0 0 0 0 0 0];

internalField   nonuniform List<scalar> 
6960
(
0.332771
0.332777
0.332776
0.332775
0.332773
0.332772
0.332771
0.332771
0.33277
0.33277
0.33277
0.33277
0.33277
0.33277
0.33277
0.33277
0.332771
0.332771
0.332771
0.332771
0.332771
0.332772
0.332772
0.332772
0.332772
0.332772
0.332772
0.332772
0.332772
0.332772
0.332772
0.332772
0.332772
0.332772
0.332772
0.332772
0.332772
0.332772
0.332772
0.332771
0.332771
0.332771
0.332771
0.332771
0.33277
0.33277
0.33277
0.33277
0.33277
0.33277
0.33277
0.33277
0.332771
0.332771
0.332772
0.332773
0.332775
0.332776
0.332777
0.332771
0.807541
0.807557
0.807552
0.807545
0.807539
0.807534
0.80753
0.807527
0.807525
0.807524
0.807522
0.807522
0.807521
0.807521
0.807521
0.807521
0.807521
0.807521
0.807521
0.807521
0.807521
0.807521
0.807522
0.807522
0.807522
0.807522
0.807522
0.807522
0.807522
0.807522
0.807522
0.807522
0.807522
0.807522
0.807522
0.807522
0.807522
0.807522
0.807521
0.807521
0.807521
0.807521
0.807521
0.807521
0.807521
0.807521
0.807521
0.807521
0.807522
0.807522
0.807524
0.807525
0.807527
0.80753
0.807534
0.807539
0.807545
0.807552
0.807557
0.807541
1.19361
1.19363
1.19361
1.1936
1.19359
1.19358
1.19357
1.19356
1.19356
1.19355
1.19355
1.19355
1.19355
1.19355
1.19355
1.19355
1.19355
1.19355
1.19354
1.19354
1.19354
1.19354
1.19354
1.19354
1.19354
1.19354
1.19354
1.19354
1.19354
1.19354
1.19354
1.19354
1.19354
1.19354
1.19354
1.19354
1.19354
1.19354
1.19354
1.19354
1.19354
1.19354
1.19355
1.19355
1.19355
1.19355
1.19355
1.19355
1.19355
1.19355
1.19355
1.19356
1.19356
1.19357
1.19358
1.19359
1.1936
1.19361
1.19363
1.19361
1.51642
1.51642
1.5164
1.51637
1.51635
1.51634
1.51633
1.51632
1.51631
1.5163
1.5163
1.5163
1.51629
1.51629
1.51629
1.51629
1.51629
1.51629
1.51629
1.51628
1.51628
1.51628
1.51628
1.51628
1.51628
1.51628
1.51628
1.51628
1.51628
1.51628
1.51628
1.51628
1.51628
1.51628
1.51628
1.51628
1.51628
1.51628
1.51628
1.51628
1.51628
1.51629
1.51629
1.51629
1.51629
1.51629
1.51629
1.51629
1.5163
1.5163
1.5163
1.51631
1.51632
1.51633
1.51634
1.51635
1.51637
1.5164
1.51642
1.51642
1.78588
1.78585
1.78582
1.78579
1.78576
1.78574
1.78572
1.78571
1.7857
1.78569
1.78568
1.78568
1.78567
1.78567
1.78567
1.78567
1.78567
1.78566
1.78566
1.78566
1.78566
1.78566
1.78566
1.78566
1.78566
1.78566
1.78566
1.78566
1.78566
1.78566
1.78566
1.78566
1.78566
1.78566
1.78566
1.78566
1.78566
1.78566
1.78566
1.78566
1.78566
1.78566
1.78566
1.78567
1.78567
1.78567
1.78567
1.78567
1.78568
1.78568
1.78569
1.7857
1.78571
1.78572
1.78574
1.78576
1.78579
1.78582
1.78585
1.78588
2.00895
2.00889
2.00884
2.0088
2.00877
2.00875
2.00873
2.00871
2.0087
2.00869
2.00868
2.00867
2.00867
2.00866
2.00866
2.00866
2.00866
2.00866
2.00865
2.00865
2.00865
2.00865
2.00865
2.00865
2.00865
2.00865
2.00865
2.00865
2.00865
2.00865
2.00865
2.00865
2.00865
2.00865
2.00865
2.00865
2.00865
2.00865
2.00865
2.00865
2.00865
2.00865
2.00866
2.00866
2.00866
2.00866
2.00866
2.00867
2.00867
2.00868
2.00869
2.0087
2.00871
2.00873
2.00875
2.00877
2.0088
2.00884
2.00889
2.00895
2.19298
2.1929
2.19284
2.19279
2.19275
2.19272
2.1927
2.19268
2.19267
2.19265
2.19265
2.19264
2.19263
2.19263
2.19263
2.19262
2.19262
2.19262
2.19262
2.19262
2.19262
2.19262
2.19262
2.19262
2.19262
2.19262
2.19262
2.19262
2.19262
2.19262
2.19262
2.19262
2.19262
2.19262
2.19262
2.19262
2.19262
2.19262
2.19262
2.19262
2.19262
2.19262
2.19262
2.19262
2.19262
2.19263
2.19263
2.19263
2.19264
2.19265
2.19265
2.19267
2.19268
2.1927
2.19272
2.19275
2.19279
2.19284
2.1929
2.19298
2.3458
2.34569
2.34562
2.34557
2.34552
2.34549
2.34547
2.34545
2.34543
2.34542
2.34541
2.3454
2.3454
2.3454
2.34539
2.34539
2.34539
2.34539
2.34539
2.34539
2.34539
2.34539
2.34539
2.34539
2.34539
2.34539
2.34539
2.34539
2.34539
2.34539
2.34539
2.34539
2.34539
2.34539
2.34539
2.34539
2.34539
2.34539
2.34539
2.34539
2.34539
2.34539
2.34539
2.34539
2.34539
2.34539
2.3454
2.3454
2.3454
2.34541
2.34542
2.34543
2.34545
2.34547
2.34549
2.34552
2.34557
2.34562
2.34569
2.3458
2.47481
2.47467
2.4746
2.47454
2.4745
2.47446
2.47444
2.47442
2.4744
2.47439
2.47438
2.47437
2.47437
2.47437
2.47436
2.47436
2.47436
2.47436
2.47436
2.47436
2.47436
2.47436
2.47436
2.47436
2.47437
2.47437
2.47437
2.47437
2.47437
2.47437
2.47437
2.47437
2.47437
2.47437
2.47437
2.47437
2.47436
2.47436
2.47436
2.47436
2.47436
2.47436
2.47436
2.47436
2.47436
2.47436
2.47437
2.47437
2.47437
2.47438
2.47439
2.4744
2.47442
2.47444
2.47446
2.4745
2.47454
2.4746
2.47467
2.47481
2.58621
2.58607
2.58598
2.58592
2.58588
2.58584
2.58582
2.5858
2.58578
2.58577
2.58576
2.58576
2.58575
2.58575
2.58575
2.58575
2.58575
2.58575
2.58575
2.58576
2.58576
2.58576
2.58576
2.58576
2.58576
2.58576
2.58576
2.58576
2.58576
2.58576
2.58576
2.58576
2.58576
2.58576
2.58576
2.58576
2.58576
2.58576
2.58576
2.58576
2.58576
2.58575
2.58575
2.58575
2.58575
2.58575
2.58575
2.58575
2.58576
2.58576
2.58577
2.58578
2.5858
2.58582
2.58584
2.58588
2.58592
2.58598
2.58607
2.58621
2.68478
2.68462
2.68454
2.68447
2.68443
2.68439
2.68437
2.68435
2.68433
2.68432
2.68432
2.68431
2.68431
2.68431
2.68431
2.68431
2.68431
2.68432
2.68432
2.68432
2.68432
2.68432
2.68433
2.68433
2.68433
2.68433
2.68433
2.68433
2.68433
2.68433
2.68433
2.68433
2.68433
2.68433
2.68433
2.68433
2.68433
2.68433
2.68432
2.68432
2.68432
2.68432
2.68432
2.68431
2.68431
2.68431
2.68431
2.68431
2.68431
2.68432
2.68432
2.68433
2.68435
2.68437
2.68439
2.68443
2.68447
2.68454
2.68462
2.68478
2.77393
2.77377
2.77368
2.77362
2.77357
2.77353
2.77351
2.77349
2.77348
2.77347
2.77346
2.77346
2.77346
2.77346
2.77346
2.77347
2.77347
2.77347
2.77348
2.77348
2.77348
2.77349
2.77349
2.77349
2.77349
2.7735
2.7735
2.7735
2.7735
2.7735
2.7735
2.7735
2.7735
2.7735
2.7735
2.77349
2.77349
2.77349
2.77349
2.77348
2.77348
2.77348
2.77347
2.77347
2.77347
2.77346
2.77346
2.77346
2.77346
2.77346
2.77347
2.77348
2.77349
2.77351
2.77353
2.77357
2.77362
2.77368
2.77377
2.77393
2.85607
2.8559
2.85581
2.85575
2.8557
2.85567
2.85564
2.85562
2.85561
2.8556
2.8556
2.8556
2.8556
2.8556
2.85561
2.85561
2.85562
2.85562
2.85563
2.85563
2.85564
2.85564
2.85565
2.85565
2.85565
2.85566
2.85566
2.85566
2.85566
2.85566
2.85566
2.85566
2.85566
2.85566
2.85566
2.85565
2.85565
2.85565
2.85564
2.85564
2.85563
2.85563
2.85562
2.85562
2.85561
2.85561
2.8556
2.8556
2.8556
2.8556
2.8556
2.85561
2.85562
2.85564
2.85567
2.8557
2.85575
2.85581
2.8559
2.85607
2.93287
2.9327
2.93261
2.93254
2.9325
2.93246
2.93244
2.93242
2.93241
2.93241
2.93241
2.93241
2.93241
2.93242
2.93242
2.93243
2.93243
2.93244
2.93245
2.93245
2.93246
2.93247
2.93247
2.93248
2.93248
2.93248
2.93249
2.93249
2.93249
2.93249
2.93249
2.93249
2.93249
2.93249
2.93248
2.93248
2.93248
2.93247
2.93247
2.93246
2.93245
2.93245
2.93244
2.93243
2.93243
2.93242
2.93242
2.93241
2.93241
2.93241
2.93241
2.93241
2.93242
2.93244
2.93246
2.9325
2.93254
2.93261
2.9327
2.93287
3.00553
3.00536
3.00527
3.0052
3.00516
3.00512
3.0051
3.00509
3.00508
3.00507
3.00507
3.00508
3.00508
3.00509
3.0051
3.00511
3.00511
3.00512
3.00513
3.00514
3.00515
3.00515
3.00516
3.00517
3.00517
3.00518
3.00518
3.00518
3.00518
3.00518
3.00518
3.00518
3.00518
3.00518
3.00518
3.00517
3.00517
3.00516
3.00515
3.00515
3.00514
3.00513
3.00512
3.00511
3.00511
3.0051
3.00509
3.00508
3.00508
3.00507
3.00507
3.00508
3.00509
3.0051
3.00512
3.00516
3.0052
3.00527
3.00536
3.00553
3.07493
3.07476
3.07466
3.0746
3.07455
3.07452
3.0745
3.07449
3.07448
3.07448
3.07448
3.07449
3.07449
3.0745
3.07451
3.07452
3.07453
3.07454
3.07455
3.07456
3.07457
3.07458
3.07459
3.0746
3.0746
3.07461
3.07461
3.07461
3.07462
3.07462
3.07462
3.07462
3.07461
3.07461
3.07461
3.0746
3.0746
3.07459
3.07458
3.07457
3.07456
3.07455
3.07454
3.07453
3.07452
3.07451
3.0745
3.07449
3.07449
3.07448
3.07448
3.07448
3.07449
3.0745
3.07452
3.07455
3.0746
3.07466
3.07476
3.07493
3.14172
3.14156
3.14146
3.1414
3.14136
3.14133
3.1413
3.14129
3.14129
3.14129
3.14129
3.1413
3.14131
3.14132
3.14133
3.14135
3.14136
3.14137
3.14138
3.1414
3.14141
3.14142
3.14142
3.14143
3.14144
3.14145
3.14145
3.14145
3.14146
3.14146
3.14146
3.14146
3.14145
3.14145
3.14145
3.14144
3.14143
3.14142
3.14142
3.14141
3.1414
3.14138
3.14137
3.14136
3.14135
3.14133
3.14132
3.14131
3.1413
3.14129
3.14129
3.14129
3.14129
3.1413
3.14133
3.14136
3.1414
3.14146
3.14156
3.14172
3.20645
3.20628
3.20619
3.20613
3.20608
3.20605
3.20603
3.20602
3.20602
3.20602
3.20603
3.20604
3.20605
3.20607
3.20608
3.20609
3.20611
3.20612
3.20614
3.20615
3.20616
3.20618
3.20619
3.2062
3.2062
3.20621
3.20621
3.20622
3.20622
3.20622
3.20622
3.20622
3.20622
3.20621
3.20621
3.2062
3.2062
3.20619
3.20618
3.20616
3.20615
3.20614
3.20612
3.20611
3.20609
3.20608
3.20607
3.20605
3.20604
3.20603
3.20602
3.20602
3.20602
3.20603
3.20605
3.20608
3.20613
3.20619
3.20628
3.20645
3.26951
3.26935
3.26926
3.26919
3.26915
3.26912
3.26911
3.2691
3.2691
3.2691
3.26911
3.26912
3.26914
3.26915
3.26917
3.26919
3.2692
3.26922
3.26924
3.26925
3.26927
3.26928
3.26929
3.2693
3.26931
3.26932
3.26932
3.26933
3.26933
3.26933
3.26933
3.26933
3.26933
3.26932
3.26932
3.26931
3.2693
3.26929
3.26928
3.26927
3.26925
3.26924
3.26922
3.2692
3.26919
3.26917
3.26915
3.26914
3.26912
3.26911
3.2691
3.2691
3.2691
3.26911
3.26912
3.26915
3.26919
3.26926
3.26935
3.26951
3.33126
3.3311
3.33101
3.33095
3.3309
3.33088
3.33086
3.33086
3.33086
3.33087
3.33088
3.33089
3.33091
3.33093
3.33095
3.33097
3.33099
3.33101
3.33102
3.33104
3.33106
3.33107
3.33108
3.3311
3.33111
3.33111
3.33112
3.33113
3.33113
3.33113
3.33113
3.33113
3.33113
3.33112
3.33111
3.33111
3.3311
3.33108
3.33107
3.33106
3.33104
3.33102
3.33101
3.33099
3.33097
3.33095
3.33093
3.33091
3.33089
3.33088
3.33087
3.33086
3.33086
3.33086
3.33088
3.3309
3.33095
3.33101
3.3311
3.33126
3.39198
3.39183
3.39173
3.39167
3.39163
3.39161
3.3916
3.39159
3.3916
3.3916
3.39162
3.39164
3.39166
3.39168
3.3917
3.39172
3.39174
3.39177
3.39179
3.3918
3.39182
3.39184
3.39185
3.39187
3.39188
3.39189
3.39189
3.3919
3.3919
3.39191
3.39191
3.3919
3.3919
3.39189
3.39189
3.39188
3.39187
3.39185
3.39184
3.39182
3.3918
3.39179
3.39177
3.39174
3.39172
3.3917
3.39168
3.39166
3.39164
3.39162
3.3916
3.3916
3.39159
3.3916
3.39161
3.39163
3.39167
3.39173
3.39183
3.39198
3.45192
3.45177
3.45168
3.45162
3.45158
3.45156
3.45155
3.45154
3.45155
3.45156
3.45158
3.4516
3.45162
3.45165
3.45167
3.4517
3.45172
3.45175
3.45177
3.45179
3.45181
3.45183
3.45184
3.45186
3.45187
3.45188
3.45189
3.45189
3.4519
3.4519
3.4519
3.4519
3.45189
3.45189
3.45188
3.45187
3.45186
3.45184
3.45183
3.45181
3.45179
3.45177
3.45175
3.45172
3.4517
3.45167
3.45165
3.45162
3.4516
3.45158
3.45156
3.45155
3.45154
3.45155
3.45156
3.45158
3.45162
3.45168
3.45177
3.45192
3.5113
3.51115
3.51106
3.511
3.51096
3.51094
3.51093
3.51093
3.51094
3.51095
3.51097
3.511
3.51102
3.51105
3.51108
3.5111
3.51113
3.51116
3.51118
3.51121
3.51123
3.51125
3.51127
3.51128
3.51129
3.51131
3.51131
3.51132
3.51133
3.51133
3.51133
3.51133
3.51132
3.51131
3.51131
3.51129
3.51128
3.51127
3.51125
3.51123
3.51121
3.51118
3.51116
3.51113
3.5111
3.51108
3.51105
3.51102
3.511
3.51097
3.51095
3.51094
3.51093
3.51093
3.51094
3.51096
3.511
3.51106
3.51115
3.5113
3.57029
3.57014
3.57005
3.56999
3.56996
3.56994
3.56993
3.56993
3.56994
3.56996
3.56998
3.57001
3.57004
3.57007
3.5701
3.57013
3.57016
3.57019
3.57022
3.57024
3.57027
3.57029
3.57031
3.57032
3.57034
3.57035
3.57036
3.57037
3.57037
3.57037
3.57037
3.57037
3.57037
3.57036
3.57035
3.57034
3.57032
3.57031
3.57029
3.57027
3.57024
3.57022
3.57019
3.57016
3.57013
3.5701
3.57007
3.57004
3.57001
3.56998
3.56996
3.56994
3.56993
3.56993
3.56994
3.56996
3.56999
3.57005
3.57014
3.57029
3.62906
3.62892
3.62883
3.62877
3.62874
3.62872
3.62871
3.62872
3.62873
3.62875
3.62878
3.62881
3.62884
3.62887
3.62891
3.62894
3.62897
3.629
3.62903
3.62906
3.62909
3.62911
3.62913
3.62915
3.62917
3.62918
3.62919
3.6292
3.6292
3.62921
3.62921
3.6292
3.6292
3.62919
3.62918
3.62917
3.62915
3.62913
3.62911
3.62909
3.62906
3.62903
3.629
3.62897
3.62894
3.62891
3.62887
3.62884
3.62881
3.62878
3.62875
3.62873
3.62872
3.62871
3.62872
3.62874
3.62877
3.62883
3.62892
3.62906
3.68776
3.68763
3.68754
3.68748
3.68745
3.68743
3.68743
3.68744
3.68745
3.68748
3.68751
3.68754
3.68757
3.68761
3.68765
3.68768
3.68772
3.68775
3.68779
3.68782
3.68784
3.68787
3.68789
3.68791
3.68793
3.68794
3.68796
3.68797
3.68797
3.68797
3.68797
3.68797
3.68797
3.68796
3.68794
3.68793
3.68791
3.68789
3.68787
3.68784
3.68782
3.68779
3.68775
3.68772
3.68768
3.68765
3.68761
3.68757
3.68754
3.68751
3.68748
3.68745
3.68744
3.68743
3.68743
3.68745
3.68748
3.68754
3.68763
3.68776
3.74653
3.7464
3.74631
3.74626
3.74623
3.74621
3.74621
3.74623
3.74625
3.74627
3.7463
3.74634
3.74638
3.74642
3.74646
3.7465
3.74654
3.74657
3.74661
3.74664
3.74667
3.7467
3.74672
3.74675
3.74676
3.74678
3.74679
3.7468
3.74681
3.74681
3.74681
3.74681
3.7468
3.74679
3.74678
3.74676
3.74675
3.74672
3.7467
3.74667
3.74664
3.74661
3.74657
3.74654
3.7465
3.74646
3.74642
3.74638
3.74634
3.7463
3.74627
3.74625
3.74623
3.74621
3.74621
3.74623
3.74626
3.74631
3.7464
3.74653
3.8055
3.80537
3.80528
3.80523
3.8052
3.80519
3.80519
3.80521
3.80523
3.80526
3.8053
3.80533
3.80538
3.80542
3.80546
3.8055
3.80555
3.80559
3.80562
3.80566
3.80569
3.80572
3.80575
3.80577
3.80579
3.80581
3.80582
3.80583
3.80584
3.80584
3.80584
3.80584
3.80583
3.80582
3.80581
3.80579
3.80577
3.80575
3.80572
3.80569
3.80566
3.80562
3.80559
3.80555
3.8055
3.80546
3.80542
3.80538
3.80533
3.8053
3.80526
3.80523
3.80521
3.80519
3.80519
3.8052
3.80523
3.80528
3.80537
3.8055
3.86477
3.86465
3.86456
3.86451
3.86449
3.86448
3.86448
3.8645
3.86452
3.86456
3.8646
3.86464
3.86468
3.86473
3.86478
3.86482
3.86487
3.86491
3.86495
3.86499
3.86503
3.86506
3.86509
3.86511
3.86513
3.86515
3.86517
3.86518
3.86518
3.86519
3.86519
3.86518
3.86518
3.86517
3.86515
3.86513
3.86511
3.86509
3.86506
3.86503
3.86499
3.86495
3.86491
3.86487
3.86482
3.86478
3.86473
3.86468
3.86464
3.8646
3.86456
3.86452
3.8645
3.86448
3.86448
3.86449
3.86451
3.86456
3.86465
3.86477
3.92447
3.92435
3.92426
3.92421
3.92419
3.92418
3.92419
3.92421
3.92424
3.92427
3.92432
3.92436
3.92441
3.92446
3.92451
3.92456
3.92461
3.92466
3.9247
3.92474
3.92478
3.92481
3.92484
3.92487
3.92489
3.92491
3.92493
3.92494
3.92495
3.92495
3.92495
3.92495
3.92494
3.92493
3.92491
3.92489
3.92487
3.92484
3.92481
3.92478
3.92474
3.9247
3.92466
3.92461
3.92456
3.92451
3.92446
3.92441
3.92436
3.92432
3.92427
3.92424
3.92421
3.92419
3.92418
3.92419
3.92421
3.92426
3.92435
3.92447
3.98468
3.98456
3.98448
3.98444
3.98441
3.98441
3.98442
3.98444
3.98447
3.98451
3.98456
3.98461
3.98466
3.98472
3.98477
3.98482
3.98487
3.98492
3.98497
3.98501
3.98505
3.98509
3.98512
3.98515
3.98518
3.9852
3.98521
3.98523
3.98524
3.98524
3.98524
3.98524
3.98523
3.98521
3.9852
3.98518
3.98515
3.98512
3.98509
3.98505
3.98501
3.98497
3.98492
3.98487
3.98482
3.98477
3.98472
3.98466
3.98461
3.98456
3.98451
3.98447
3.98444
3.98442
3.98441
3.98441
3.98444
3.98448
3.98456
3.98468
4.04551
4.0454
4.04532
4.04528
4.04526
4.04525
4.04527
4.04529
4.04533
4.04537
4.04542
4.04548
4.04553
4.04559
4.04565
4.04571
4.04576
4.04581
4.04586
4.04591
4.04595
4.04599
4.04603
4.04606
4.04608
4.04611
4.04612
4.04614
4.04614
4.04615
4.04615
4.04614
4.04614
4.04612
4.04611
4.04608
4.04606
4.04603
4.04599
4.04595
4.04591
4.04586
4.04581
4.04576
4.04571
4.04565
4.04559
4.04553
4.04548
4.04542
4.04537
4.04533
4.04529
4.04527
4.04525
4.04526
4.04528
4.04532
4.0454
4.04551
4.10706
4.10695
4.10688
4.10683
4.10681
4.10681
4.10683
4.10686
4.1069
4.10695
4.107
4.10706
4.10712
4.10718
4.10724
4.1073
4.10736
4.10742
4.10747
4.10752
4.10757
4.10761
4.10764
4.10768
4.10771
4.10773
4.10775
4.10776
4.10777
4.10778
4.10778
4.10777
4.10776
4.10775
4.10773
4.10771
4.10768
4.10764
4.10761
4.10757
4.10752
4.10747
4.10742
4.10736
4.1073
4.10724
4.10718
4.10712
4.10706
4.107
4.10695
4.1069
4.10686
4.10683
4.10681
4.10681
4.10683
4.10688
4.10695
4.10706
4.16941
4.16931
4.16923
4.16919
4.16918
4.16918
4.1692
4.16923
4.16928
4.16933
4.16939
4.16945
4.16951
4.16958
4.16964
4.16971
4.16977
4.16983
4.16989
4.16994
4.16999
4.17003
4.17007
4.17011
4.17013
4.17016
4.17018
4.17019
4.1702
4.17021
4.17021
4.1702
4.17019
4.17018
4.17016
4.17013
4.17011
4.17007
4.17003
4.16999
4.16994
4.16989
4.16983
4.16977
4.16971
4.16964
4.16958
4.16951
4.16945
4.16939
4.16933
4.16928
4.16923
4.1692
4.16918
4.16918
4.16919
4.16923
4.16931
4.16941
4.23266
4.23256
4.23249
4.23245
4.23243
4.23244
4.23246
4.2325
4.23255
4.2326
4.23266
4.23273
4.2328
4.23287
4.23294
4.23301
4.23307
4.23314
4.2332
4.23325
4.2333
4.23335
4.23339
4.23343
4.23346
4.23349
4.23351
4.23352
4.23353
4.23354
4.23354
4.23353
4.23352
4.23351
4.23349
4.23346
4.23343
4.23339
4.23335
4.2333
4.23325
4.2332
4.23314
4.23307
4.23301
4.23294
4.23287
4.2328
4.23273
4.23266
4.2326
4.23255
4.2325
4.23246
4.23244
4.23243
4.23245
4.23249
4.23256
4.23266
4.29688
4.29679
4.29672
4.29668
4.29667
4.29668
4.29671
4.29675
4.2968
4.29686
4.29692
4.29699
4.29707
4.29714
4.29722
4.29729
4.29736
4.29743
4.29749
4.29755
4.2976
4.29765
4.2977
4.29774
4.29777
4.2978
4.29782
4.29783
4.29785
4.29785
4.29785
4.29785
4.29783
4.29782
4.2978
4.29777
4.29774
4.2977
4.29765
4.2976
4.29755
4.29749
4.29743
4.29736
4.29729
4.29722
4.29714
4.29707
4.29699
4.29692
4.29686
4.2968
4.29675
4.29671
4.29668
4.29667
4.29668
4.29672
4.29679
4.29688
4.36217
4.36208
4.36201
4.36198
4.36197
4.36198
4.36201
4.36206
4.36211
4.36218
4.36225
4.36232
4.3624
4.36248
4.36256
4.36264
4.36271
4.36278
4.36285
4.36291
4.36297
4.36302
4.36307
4.36311
4.36314
4.36317
4.3632
4.36321
4.36323
4.36323
4.36323
4.36323
4.36321
4.3632
4.36317
4.36314
4.36311
4.36307
4.36302
4.36297
4.36291
4.36285
4.36278
4.36271
4.36264
4.36256
4.36248
4.3624
4.36232
4.36225
4.36218
4.36211
4.36206
4.36201
4.36198
4.36197
4.36198
4.36201
4.36208
4.36217
4.42861
4.42853
4.42846
4.42843
4.42842
4.42844
4.42847
4.42852
4.42858
4.42865
4.42872
4.4288
4.42889
4.42897
4.42905
4.42914
4.42921
4.42929
4.42936
4.42943
4.42949
4.42954
4.42959
4.42963
4.42967
4.4297
4.42973
4.42975
4.42976
4.42976
4.42976
4.42976
4.42975
4.42973
4.4297
4.42967
4.42963
4.42959
4.42954
4.42949
4.42943
4.42936
4.42929
4.42921
4.42914
4.42905
4.42897
4.42889
4.4288
4.42872
4.42865
4.42858
4.42852
4.42847
4.42844
4.42842
4.42843
4.42846
4.42853
4.42861
4.49628
4.4962
4.49614
4.49611
4.49611
4.49612
4.49616
4.49621
4.49628
4.49635
4.49643
4.49652
4.49661
4.49669
4.49678
4.49687
4.49695
4.49703
4.4971
4.49717
4.49724
4.4973
4.49735
4.49739
4.49743
4.49746
4.49749
4.49751
4.49752
4.49753
4.49753
4.49752
4.49751
4.49749
4.49746
4.49743
4.49739
4.49735
4.4973
4.49724
4.49717
4.4971
4.49703
4.49695
4.49687
4.49678
4.49669
4.49661
4.49652
4.49643
4.49635
4.49628
4.49621
4.49616
4.49612
4.49611
4.49611
4.49614
4.4962
4.49628
4.56527
4.56519
4.56513
4.5651
4.5651
4.56513
4.56517
4.56522
4.56529
4.56537
4.56546
4.56555
4.56564
4.56573
4.56583
4.56592
4.566
4.56609
4.56617
4.56624
4.56631
4.56637
4.56642
4.56647
4.56651
4.56655
4.56657
4.56659
4.56661
4.56661
4.56661
4.56661
4.56659
4.56657
4.56655
4.56651
4.56647
4.56642
4.56637
4.56631
4.56624
4.56617
4.56609
4.566
4.56592
4.56583
4.56573
4.56564
4.56555
4.56546
4.56537
4.56529
4.56522
4.56517
4.56513
4.5651
4.5651
4.56513
4.56519
4.56527
4.63565
4.63557
4.63552
4.63549
4.6355
4.63552
4.63557
4.63563
4.6357
4.63579
4.63588
4.63597
4.63607
4.63617
4.63627
4.63636
4.63645
4.63654
4.63663
4.6367
4.63677
4.63684
4.6369
4.63695
4.63699
4.63702
4.63705
4.63708
4.63709
4.6371
4.6371
4.63709
4.63708
4.63705
4.63702
4.63699
4.63695
4.6369
4.63684
4.63677
4.6367
4.63663
4.63654
4.63645
4.63636
4.63627
4.63617
4.63607
4.63597
4.63588
4.63579
4.6357
4.63563
4.63557
4.63552
4.6355
4.63549
4.63552
4.63557
4.63565
4.70751
4.70744
4.70738
4.70736
4.70737
4.7074
4.70745
4.70751
4.70759
4.70768
4.70778
4.70788
4.70798
4.70809
4.70819
4.70829
4.70839
4.70848
4.70857
4.70865
4.70872
4.70879
4.70885
4.7089
4.70895
4.70899
4.70902
4.70904
4.70905
4.70906
4.70906
4.70905
4.70904
4.70902
4.70899
4.70895
4.7089
4.70885
4.70879
4.70872
4.70865
4.70857
4.70848
4.70839
4.70829
4.70819
4.70809
4.70798
4.70788
4.70778
4.70768
4.70759
4.70751
4.70745
4.7074
4.70737
4.70736
4.70738
4.70744
4.70751
4.78093
4.78086
4.78081
4.78079
4.7808
4.78084
4.78089
4.78096
4.78105
4.78114
4.78124
4.78135
4.78146
4.78157
4.78167
4.78178
4.78188
4.78198
4.78207
4.78216
4.78223
4.78231
4.78237
4.78242
4.78247
4.78251
4.78254
4.78257
4.78258
4.78259
4.78259
4.78258
4.78257
4.78254
4.78251
4.78247
4.78242
4.78237
4.78231
4.78223
4.78216
4.78207
4.78198
4.78188
4.78178
4.78167
4.78157
4.78146
4.78135
4.78124
4.78114
4.78105
4.78096
4.78089
4.78084
4.7808
4.78079
4.78081
4.78086
4.78093
4.85599
4.85593
4.85588
4.85587
4.85588
4.85592
4.85598
4.85605
4.85614
4.85624
4.85635
4.85646
4.85658
4.85669
4.8568
4.85692
4.85702
4.85713
4.85722
4.85731
4.85739
4.85747
4.85753
4.85759
4.85764
4.85768
4.85772
4.85774
4.85776
4.85777
4.85777
4.85776
4.85774
4.85772
4.85768
4.85764
4.85759
4.85753
4.85747
4.85739
4.85731
4.85722
4.85713
4.85702
4.85692
4.8568
4.85669
4.85658
4.85646
4.85635
4.85624
4.85614
4.85605
4.85598
4.85592
4.85588
4.85587
4.85588
4.85593
4.85599
4.93278
4.93272
4.93268
4.93267
4.93268
4.93273
4.93279
4.93287
4.93297
4.93307
4.93318
4.9333
4.93342
4.93354
4.93366
4.93378
4.93389
4.934
4.9341
4.9342
4.93428
4.93436
4.93443
4.93449
4.93454
4.93459
4.93462
4.93465
4.93466
4.93467
4.93467
4.93466
4.93465
4.93462
4.93459
4.93454
4.93449
4.93443
4.93436
4.93428
4.9342
4.9341
4.934
4.93389
4.93378
4.93366
4.93354
4.93342
4.9333
4.93318
4.93307
4.93297
4.93287
4.93279
4.93273
4.93268
4.93267
4.93268
4.93272
4.93278
5.01138
5.01132
5.01128
5.01128
5.0113
5.01135
5.01141
5.0115
5.0116
5.01171
5.01183
5.01196
5.01208
5.01221
5.01234
5.01246
5.01258
5.01269
5.0128
5.01289
5.01298
5.01306
5.01314
5.0132
5.01326
5.0133
5.01334
5.01337
5.01338
5.01339
5.01339
5.01338
5.01337
5.01334
5.0133
5.01326
5.0132
5.01314
5.01306
5.01298
5.01289
5.0128
5.01269
5.01258
5.01246
5.01234
5.01221
5.01208
5.01196
5.01183
5.01171
5.0116
5.0115
5.01141
5.01135
5.0113
5.01128
5.01128
5.01132
5.01138
5.09187
5.09182
5.09179
5.09178
5.09181
5.09186
5.09193
5.09203
5.09213
5.09225
5.09238
5.09251
5.09264
5.09277
5.09291
5.09303
5.09316
5.09328
5.09339
5.09349
5.09358
5.09367
5.09375
5.09381
5.09387
5.09392
5.09396
5.09398
5.094
5.09401
5.09401
5.094
5.09398
5.09396
5.09392
5.09387
5.09381
5.09375
5.09367
5.09358
5.09349
5.09339
5.09328
5.09316
5.09303
5.09291
5.09277
5.09264
5.09251
5.09238
5.09225
5.09213
5.09203
5.09193
5.09186
5.09181
5.09178
5.09179
5.09182
5.09187
5.17435
5.1743
5.17427
5.17427
5.1743
5.17436
5.17444
5.17453
5.17465
5.17477
5.1749
5.17504
5.17518
5.17532
5.17546
5.17559
5.17572
5.17585
5.17596
5.17607
5.17617
5.17626
5.17634
5.17641
5.17647
5.17652
5.17656
5.17659
5.17661
5.17662
5.17662
5.17661
5.17659
5.17656
5.17652
5.17647
5.17641
5.17634
5.17626
5.17617
5.17607
5.17596
5.17585
5.17572
5.17559
5.17546
5.17532
5.17518
5.17504
5.1749
5.17477
5.17465
5.17453
5.17444
5.17436
5.1743
5.17427
5.17427
5.1743
5.17435
5.25889
5.25885
5.25882
5.25883
5.25886
5.25892
5.25901
5.25911
5.25923
5.25936
5.2595
5.25964
5.25979
5.25994
5.26008
5.26022
5.26036
5.26049
5.26061
5.26072
5.26083
5.26092
5.261
5.26108
5.26114
5.26119
5.26123
5.26126
5.26128
5.26129
5.26129
5.26128
5.26126
5.26123
5.26119
5.26114
5.26108
5.261
5.26092
5.26083
5.26072
5.26061
5.26049
5.26036
5.26022
5.26008
5.25994
5.25979
5.25964
5.2595
5.25936
5.25923
5.25911
5.25901
5.25892
5.25886
5.25883
5.25882
5.25885
5.25889
5.34559
5.34555
5.34553
5.34554
5.34558
5.34564
5.34573
5.34584
5.34597
5.34611
5.34625
5.3464
5.34656
5.34671
5.34686
5.34701
5.34715
5.34729
5.34742
5.34753
5.34764
5.34774
5.34783
5.3479
5.34797
5.34802
5.34807
5.3481
5.34812
5.34813
5.34813
5.34812
5.3481
5.34807
5.34802
5.34797
5.3479
5.34783
5.34774
5.34764
5.34753
5.34742
5.34729
5.34715
5.34701
5.34686
5.34671
5.34656
5.3464
5.34625
5.34611
5.34597
5.34584
5.34573
5.34564
5.34558
5.34554
5.34553
5.34555
5.34559
5.43453
5.4345
5.43448
5.43449
5.43454
5.43461
5.4347
5.43482
5.43495
5.4351
5.43525
5.43541
5.43557
5.43573
5.43589
5.43605
5.4362
5.43634
5.43647
5.43659
5.4367
5.43681
5.4369
5.43698
5.43705
5.4371
5.43715
5.43718
5.43721
5.43722
5.43722
5.43721
5.43718
5.43715
5.4371
5.43705
5.43698
5.4369
5.43681
5.4367
5.43659
5.43647
5.43634
5.4362
5.43605
5.43589
5.43573
5.43557
5.43541
5.43525
5.4351
5.43495
5.43482
5.4347
5.43461
5.43454
5.43449
5.43448
5.4345
5.43453
5.52581
5.52578
5.52576
5.52578
5.52583
5.52591
5.52601
5.52613
5.52627
5.52643
5.52659
5.52675
5.52692
5.52709
5.52726
5.52742
5.52758
5.52772
5.52786
5.52799
5.52811
5.52821
5.52831
5.52839
5.52846
5.52852
5.52857
5.52861
5.52863
5.52864
5.52864
5.52863
5.52861
5.52857
5.52852
5.52846
5.52839
5.52831
5.52821
5.52811
5.52799
5.52786
5.52772
5.52758
5.52742
5.52726
5.52709
5.52692
5.52675
5.52659
5.52643
5.52627
5.52613
5.52601
5.52591
5.52583
5.52578
5.52576
5.52578
5.52581
5.61951
5.61949
5.61948
5.6195
5.61955
5.61964
5.61975
5.61988
5.62002
5.62018
5.62035
5.62053
5.62071
5.62088
5.62106
5.62123
5.62139
5.62154
5.62169
5.62182
5.62194
5.62205
5.62215
5.62224
5.62231
5.62238
5.62242
5.62246
5.62249
5.6225
5.6225
5.62249
5.62246
5.62242
5.62238
5.62231
5.62224
5.62215
5.62205
5.62194
5.62182
5.62169
5.62154
5.62139
5.62123
5.62106
5.62088
5.62071
5.62053
5.62035
5.62018
5.62002
5.61988
5.61975
5.61964
5.61955
5.6195
5.61948
5.61949
5.61951
5.71574
5.71571
5.71571
5.71574
5.7158
5.71589
5.716
5.71614
5.7163
5.71646
5.71664
5.71682
5.71701
5.7172
5.71738
5.71755
5.71772
5.71788
5.71803
5.71817
5.7183
5.71842
5.71852
5.71861
5.71869
5.71875
5.71881
5.71884
5.71887
5.71888
5.71888
5.71887
5.71884
5.71881
5.71875
5.71869
5.71861
5.71852
5.71842
5.7183
5.71817
5.71803
5.71788
5.71772
5.71755
5.71738
5.7172
5.71701
5.71682
5.71664
5.71646
5.7163
5.71614
5.716
5.71589
5.7158
5.71574
5.71571
5.71571
5.71574
5.81458
5.81456
5.81456
5.81459
5.81466
5.81475
5.81488
5.81502
5.81519
5.81536
5.81555
5.81574
5.81593
5.81613
5.81632
5.8165
5.81668
5.81685
5.817
5.81715
5.81728
5.8174
5.81751
5.81761
5.81769
5.81775
5.81781
5.81785
5.81787
5.81789
5.81789
5.81787
5.81785
5.81781
5.81775
5.81769
5.81761
5.81751
5.8174
5.81728
5.81715
5.817
5.81685
5.81668
5.8165
5.81632
5.81613
5.81593
5.81574
5.81555
5.81536
5.81519
5.81502
5.81488
5.81475
5.81466
5.81459
5.81456
5.81456
5.81458
5.91613
5.91612
5.91612
5.91616
5.91623
5.91633
5.91647
5.91662
5.91679
5.91698
5.91717
5.91737
5.91757
5.91778
5.91798
5.91817
5.91835
5.91853
5.91869
5.91884
5.91898
5.91911
5.91922
5.91932
5.9194
5.91947
5.91953
5.91957
5.9196
5.91961
5.91961
5.9196
5.91957
5.91953
5.91947
5.9194
5.91932
5.91922
5.91911
5.91898
5.91884
5.91869
5.91853
5.91835
5.91817
5.91798
5.91778
5.91757
5.91737
5.91717
5.91698
5.91679
5.91662
5.91647
5.91633
5.91623
5.91616
5.91612
5.91612
5.91613
6.0205
6.02049
6.0205
6.02054
6.02062
6.02073
6.02087
6.02103
6.02121
6.0214
6.02161
6.02182
6.02203
6.02224
6.02245
6.02265
6.02284
6.02302
6.0232
6.02335
6.0235
6.02363
6.02375
6.02385
6.02394
6.02401
6.02407
6.02411
6.02414
6.02415
6.02415
6.02414
6.02411
6.02407
6.02401
6.02394
6.02385
6.02375
6.02363
6.0235
6.02335
6.0232
6.02302
6.02284
6.02265
6.02245
6.02224
6.02203
6.02182
6.02161
6.0214
6.02121
6.02103
6.02087
6.02073
6.02062
6.02054
6.0205
6.02049
6.0205
6.12778
6.12777
6.12778
6.12783
6.12792
6.12804
6.12818
6.12835
6.12854
6.12875
6.12896
6.12918
6.1294
6.12962
6.12984
6.13005
6.13025
6.13044
6.13062
6.13078
6.13093
6.13107
6.13119
6.1313
6.13139
6.13146
6.13152
6.13157
6.1316
6.13162
6.13162
6.1316
6.13157
6.13152
6.13146
6.13139
6.1313
6.13119
6.13107
6.13093
6.13078
6.13062
6.13044
6.13025
6.13005
6.12984
6.12962
6.1294
6.12918
6.12896
6.12875
6.12854
6.12835
6.12818
6.12804
6.12792
6.12783
6.12778
6.12777
6.12778
6.23807
6.23807
6.23809
6.23814
6.23823
6.23836
6.23851
6.23869
6.23889
6.23911
6.23933
6.23956
6.23979
6.24002
6.24025
6.24047
6.24068
6.24088
6.24106
6.24123
6.24139
6.24153
6.24166
6.24177
6.24186
6.24194
6.24201
6.24205
6.24208
6.2421
6.2421
6.24208
6.24205
6.24201
6.24194
6.24186
6.24177
6.24166
6.24153
6.24139
6.24123
6.24106
6.24088
6.24068
6.24047
6.24025
6.24002
6.23979
6.23956
6.23933
6.23911
6.23889
6.23869
6.23851
6.23836
6.23823
6.23814
6.23809
6.23807
6.23807
6.35149
6.35149
6.35151
6.35157
6.35167
6.35181
6.35197
6.35216
6.35237
6.35259
6.35283
6.35307
6.35331
6.35355
6.35379
6.35402
6.35423
6.35444
6.35463
6.35481
6.35497
6.35512
6.35525
6.35537
6.35547
6.35555
6.35561
6.35566
6.3557
6.35571
6.35571
6.3557
6.35566
6.35561
6.35555
6.35547
6.35537
6.35525
6.35512
6.35497
6.35481
6.35463
6.35444
6.35423
6.35402
6.35379
6.35355
6.35331
6.35307
6.35283
6.35259
6.35237
6.35216
6.35197
6.35181
6.35167
6.35157
6.35151
6.35149
6.35149
6.46813
6.46813
6.46817
6.46823
6.46834
6.46848
6.46866
6.46885
6.46907
6.46931
6.46955
6.46981
6.47006
6.47031
6.47056
6.4708
6.47102
6.47124
6.47144
6.47162
6.47179
6.47195
6.47208
6.4722
6.47231
6.47239
6.47246
6.47251
6.47254
6.47256
6.47256
6.47254
6.47251
6.47246
6.47239
6.47231
6.4722
6.47208
6.47195
6.47179
6.47162
6.47144
6.47124
6.47102
6.4708
6.47056
6.47031
6.47006
6.46981
6.46955
6.46931
6.46907
6.46885
6.46866
6.46848
6.46834
6.46823
6.46817
6.46813
6.46813
6.58811
6.58812
6.58816
6.58823
6.58835
6.5885
6.58868
6.58889
6.58912
6.58937
6.58962
6.58989
6.59015
6.59041
6.59067