/*--------------------------------*- C++ -*----------------------------------*\
| =========                 |                                                 |
| \\      /  F ield         | foam-extend: Open Source CFD                    |
|  \\    /   O peration     | Version:     4.0                                |
|   \\  /    A nd           | Web:         http://www.foam-extend.org         |
|    \\/     M anipulation  |                                                 |
\*---------------------------------------------------------------------------*/
FoamFile
{
    version     2.0;
    format      ascii;
    class       surfaceScalarField;
    location    "20";
    object      phi;
}
// * * * * * * * * * * * * * * * * * * * * * * * * * * * * * * * * * * * * * //

dimensions      [0 3 -1 0 0 0 0];

internalField   nonuniform List<scalar> 
13744
(
-6.87211e-09
6.872e-09
3.9427e-09
-1.08148e-08
2.81162e-10
3.66154e-09
1.30819e-10
1.5034e-10
6.55354e-11
6.5281e-11
3.54813e-11
3.00534e-11
1.8987e-11
1.64938e-11
9.43353e-12
9.55325e-12
3.49595e-12
5.93731e-12
-3.6264e-13
3.85875e-12
-2.97348e-12
2.61102e-12
-4.77842e-12
1.80406e-12
-6.03313e-12
1.25594e-12
-6.89088e-12
8.56815e-13
-7.44394e-12
5.52891e-13
-7.75555e-12
3.11973e-13
-7.86822e-12
1.13076e-13
-7.81173e-12
-5.66769e-14
-7.61e-12
-2.03171e-13
-7.28301e-12
-3.27127e-13
-6.84543e-12
-4.35929e-13
-6.31225e-12
-5.34683e-13
-5.69697e-12
-6.15563e-13
-5.01014e-12
-6.85008e-13
-4.2637e-12
-7.44793e-13
-3.46902e-12
-7.95308e-13
-2.63499e-12
-8.33666e-13
-1.77224e-12
-8.64531e-13
-8.91205e-13
-8.82627e-13
-9.04967e-16
-8.9001e-13
8.93424e-13
-8.93008e-13
1.77007e-12
-8.76799e-13
2.63495e-12
-8.65252e-13
3.47115e-12
-8.37275e-13
4.26141e-12
-7.88147e-13
5.01002e-12
-7.47902e-13
5.69902e-12
-6.88005e-13
6.30996e-12
-6.10789e-13
6.84537e-12
-5.36682e-13
7.28517e-12
-4.40037e-13
7.60778e-12
-3.22242e-13
7.81178e-12
-2.03892e-13
7.87061e-12
-5.88418e-14
7.75376e-12
1.17517e-13
7.4444e-12
3.07365e-13
6.89356e-12
5.5228e-13
6.03152e-12
8.61533e-13
4.77899e-12
1.25228e-12
2.97623e-12
1.80267e-12
3.61067e-13
2.61469e-12
-3.49525e-12
3.85403e-12
-9.43058e-12
5.93725e-12
-1.89883e-11
9.55769e-12
-3.54804e-11
1.64929e-11
-6.55323e-11
3.00526e-11
-1.3082e-10
6.52884e-11
-2.81161e-10
1.5034e-10
-3.9427e-09
3.66154e-09
6.87211e-09
-1.08148e-08
6.87211e-09
3.56453e-08
-2.87733e-08
5.9535e-09
1.8877e-08
8.49343e-10
8.7657e-09
3.98869e-10
6.00819e-10
2.00448e-10
2.63707e-10
1.08972e-10
1.2153e-10
5.84839e-11
6.69818e-11
2.93186e-11
3.87215e-11
1.11003e-11
2.41566e-11
-7.00715e-13
1.56592e-11
-8.71654e-12
1.06234e-11
-1.42432e-11
7.3358e-12
-1.8102e-11
5.11385e-12
-2.07301e-11
3.48538e-12
-2.24383e-11
2.26164e-12
-2.34034e-11
1.27626e-12
-2.37606e-11
4.68126e-13
-2.36036e-11
-2.10165e-13
-2.30056e-11
-7.98084e-13
-2.20208e-11
-1.3145e-12
-2.07044e-11
-1.75643e-12
-1.90965e-11
-2.13995e-12
-1.72351e-11
-2.47596e-12
-1.51602e-11
-2.76473e-12
-1.29042e-11
-3.00487e-12
-1.04972e-11
-3.2005e-12
-7.97496e-12
-3.35598e-12
-5.36546e-12
-3.47e-12
-2.69552e-12
-3.54938e-12
5.83345e-16
-3.58991e-12
2.69063e-12
-3.58452e-12
5.37137e-12
-3.55799e-12
7.97481e-12
-3.46723e-12
1.0491e-11
-3.34832e-12
1.29099e-11
-3.21104e-12
1.51598e-11
-2.99788e-12
1.72287e-11
-2.75646e-12
1.91023e-11
-2.48512e-12
2.07042e-11
-2.13463e-12
2.20147e-11
-1.74966e-12
2.30115e-11
-1.32022e-12
2.36037e-11
-7.9492e-13
2.37552e-11
-2.11553e-13
2.34106e-11
4.62019e-13
2.24397e-11
1.28236e-12
2.07255e-11
2.26308e-12
1.81098e-11
3.47922e-12
1.42449e-11
5.11585e-12
8.71223e-12
7.33602e-12
7.08618e-13
1.06194e-11
-1.10982e-11
1.56676e-11
-2.93223e-11
2.41553e-11
-5.84751e-11
3.87143e-11
-1.08969e-10
6.69842e-11
-2.00451e-10
1.21531e-10
-3.9886e-10
2.63696e-10
-8.4934e-10
6.00819e-10
-5.9535e-09
8.7657e-09
-3.56453e-08
1.8877e-08
-2.87732e-08
2.48476e-08
-5.36209e-08
1.01609e-08
3.35637e-08
1.41458e-09
1.7512e-08
6.73181e-10
1.34221e-09
3.40259e-10
5.96631e-10
1.85798e-10
2.75992e-10
1.00192e-10
1.52589e-10
5.07193e-11
8.81897e-11
1.97302e-11
5.51458e-11
-3.30883e-13
3.57196e-11
-1.39882e-11
2.42878e-11
-2.33948e-11
1.67348e-11
-2.99772e-11
1.16953e-11
-3.44631e-11
7.97454e-12
-3.73903e-11
5.18643e-12
-3.90537e-11
2.94223e-12
-3.96924e-11
1.10864e-12
-3.94571e-11
-4.52416e-13
-3.84777e-11
-1.77788e-12
-3.68467e-11
-2.93934e-12
-3.46542e-11
-3.94493e-12
-3.19699e-11
-4.82467e-12
-2.88609e-11
-5.58623e-12
-2.53893e-11
-6.23437e-12
-2.16129e-11
-6.78005e-12
-1.75845e-11
-7.22827e-12
-1.33597e-11
-7.58002e-12
-8.98782e-12
-7.84373e-12
-4.51712e-12
-8.02028e-12
-4.81338e-16
-8.10224e-12
4.51509e-12
-8.09902e-12
8.99064e-12
-8.03044e-12
1.33594e-11
-7.83487e-12
1.75812e-11
-7.57713e-12
2.16154e-11
-7.24279e-12
2.53887e-11
-6.7725e-12
2.88572e-11
-6.22688e-12
3.19724e-11
-5.59916e-12
3.4654e-11
-4.82112e-12
3.68436e-11
-3.9394e-12
3.84806e-11
-2.95813e-12
3.94574e-11
-1.772e-12
3.96905e-11
-4.4259e-13
3.90587e-11
1.09371e-12
3.73926e-11
2.94895e-12
3.44626e-11
5.19651e-12
2.99831e-11
7.95766e-12
2.33977e-11
1.17031e-11
1.39881e-11
1.67456e-11
3.37048e-13
2.42708e-11
-1.97267e-11
3.57265e-11
-5.07184e-11
5.51539e-11
-1.00184e-10
8.81729e-11
-1.85793e-10
1.52593e-10
-3.40258e-10
2.76001e-10
-6.73173e-10
5.96615e-10
-1.41457e-09
1.34222e-09
-1.01609e-08
1.75121e-08
-2.48476e-08
3.35637e-08
-5.36208e-08
8.22447e-09
-6.18454e-08
9.59064e-09
3.21975e-08
1.96301e-09
2.51397e-08
9.49287e-10
2.35594e-09
4.83335e-10
1.06258e-09
2.65268e-10
4.94056e-10
1.43893e-10
2.73963e-10
7.36337e-11
1.5845e-10
2.95201e-11
9.92551e-11
9.49223e-13
6.42904e-11
-1.85304e-11
4.37617e-11
-3.19483e-11
3.01586e-11
-4.13522e-11
2.11016e-11
-4.77705e-11
1.4387e-11
-5.19749e-11
9.39385e-12
-5.43836e-11
5.34899e-12
-5.53426e-11
2.06644e-12
-5.50618e-11
-7.27085e-13
-5.37296e-11
-3.10867e-12
-5.14781e-11
-5.19321e-12
-4.84329e-11
-6.99183e-12
-4.46939e-11
-8.56507e-12
-4.03578e-11
-9.9218e-12
-3.55093e-11
-1.10807e-11
-3.02314e-11
-1.20546e-11
-2.46003e-11
-1.28632e-11
-1.86909e-11
-1.34889e-11
-1.25747e-11
-1.39616e-11
-6.32129e-12
-1.42756e-11
-9.61597e-16
-1.44223e-11
6.32182e-12
-1.44287e-11
1.25741e-11
-1.42862e-11
1.86905e-11
-1.39553e-11
2.46001e-11
-1.34799e-11
3.02305e-11
-1.28747e-11
3.55085e-11
-1.20499e-11
4.03571e-11
-1.10754e-11
4.46929e-11
-9.93817e-12
4.84325e-11
-8.55416e-12
5.14781e-11
-6.98805e-12
5.37292e-11
-5.20738e-12
5.50621e-11
-3.10527e-12
5.53442e-11
-7.267e-13
5.43861e-11
2.05095e-12
5.19782e-11
5.35545e-12
4.77742e-11
9.39816e-12
4.1356e-11
1.43747e-11
3.19523e-11
2.11057e-11
1.85347e-11
3.01617e-11
-9.45009e-13
4.37471e-11
-2.95152e-11
6.42972e-11
-7.36279e-11
9.92633e-11
-1.43887e-10
1.58433e-10
-2.65262e-10
2.73972e-10
-4.83328e-10
4.94063e-10
-9.49281e-10
1.06256e-09
-1.96301e-09
2.35594e-09
-9.59063e-09
2.51397e-08
-8.22447e-09
3.21975e-08
-6.18452e-08
7.37819e-09
-6.92236e-08
7.92603e-09
3.16497e-08
2.4953e-09
3.05704e-08
1.22487e-09
3.62637e-09
6.28777e-10
1.65867e-09
3.47059e-10
7.75778e-10
1.89501e-10
4.31524e-10
9.80976e-11
2.49854e-10
4.05678e-11
1.56792e-10
3.27392e-12
1.01589e-10
-2.21861e-11
6.92234e-11
-3.97326e-11
4.76988e-11
-5.2048e-11
3.34153e-11
-6.04678e-11
2.28128e-11
-6.60068e-11
1.4935e-11
-6.92091e-11
8.55268e-12
-7.05299e-11
3.38806e-12
-7.02427e-11
-1.0174e-12
-6.85945e-11
-4.7601e-12
-6.57569e-11
-8.03533e-12
-6.1894e-11
-1.08536e-11
-5.71351e-11
-1.33259e-11
-5.16056e-11
-1.54539e-11
-4.54153e-11
-1.72721e-11
-3.86714e-11
-1.88005e-11
-3.1472e-11
-2.00614e-11
-2.39142e-11
-2.10487e-11
-1.60899e-11
-2.17858e-11
-8.08882e-12
-2.22771e-11
-6.29716e-16
-2.25117e-11
8.08881e-12
-2.25069e-11
1.60893e-11
-2.22865e-11
2.39137e-11
-2.17769e-11
3.14715e-11
-2.10416e-11
3.86705e-11
-2.00745e-11
4.54142e-11
-1.87935e-11
5.16045e-11
-1.72665e-11
5.71341e-11
-1.54631e-11
6.18935e-11
-1.33192e-11
6.57566e-11
-1.08474e-11
6.85942e-11
-8.04332e-12
7.02431e-11
-4.75501e-12
7.05318e-11
-1.01104e-12
6.92125e-11
3.36878e-12
6.6011e-11
8.55446e-12
6.04723e-11
1.49417e-11
5.2053e-11
2.27952e-11
3.97377e-11
3.34212e-11
2.21913e-11
4.77096e-11
-3.26826e-12
6.92093e-11
-4.05615e-11
1.01588e-10
-9.80905e-11
1.56794e-10
-1.89493e-10
2.49838e-10
-3.4705e-10
4.3153e-10
-6.28769e-10
7.75785e-10
-1.22486e-09
1.65865e-09
-2.49529e-09
3.62638e-09
-7.92602e-09
3.05704e-08
-7.37819e-09
3.16496e-08
-6.92234e-08
1.09077e-08
-8.01313e-08
7.91523e-09
3.46421e-08
3.01055e-09
3.54751e-08
1.49824e-09
5.13868e-09
7.75839e-10
2.38107e-09
4.30903e-10
1.12071e-09
2.36957e-10
6.2547e-10
1.24149e-10
3.62662e-10
5.29623e-11
2.27976e-10
6.7614e-12
1.47783e-10
-2.48205e-11
1.00805e-10
-4.66024e-11
6.94852e-11
-6.19127e-11
4.8724e-11
-7.24006e-11
3.3296e-11
-7.93305e-11
2.18625e-11
-8.33759e-11
1.25937e-11
-8.51042e-11
5.12034e-12
-8.48543e-11
-1.26547e-12
-8.29333e-11
-6.68094e-12
-7.95527e-11
-1.14118e-11
-7.49161e-11
-1.54914e-11
-6.91823e-11
-1.90556e-11
-6.25054e-11
-2.2129e-11
-5.50206e-11
-2.4754e-11
-4.68591e-11
-2.6962e-11
-3.81406e-11
-2.87768e-11
-2.89844e-11
-3.02048e-11
-1.95027e-11
-3.12635e-11
-9.80487e-12
-3.19744e-11
-4.1057e-16
-3.23179e-11
9.80401e-12
-3.23166e-11
1.95027e-11
-3.19842e-11
2.89838e-11
-3.12579e-11
3.81392e-11
-3.02025e-11
4.68586e-11
-2.87922e-11
5.50193e-11
-2.69569e-11
6.25033e-11
-2.47478e-11
6.91818e-11
-2.21476e-11
7.49155e-11
-1.90509e-11
7.95516e-11
-1.54857e-11
8.29337e-11
-1.1426e-11
8.48548e-11
-6.67823e-12
8.51057e-11
-1.26616e-12
8.33807e-11
5.0983e-12
7.93356e-11
1.2599e-11
7.24053e-11
2.1866e-11
6.19195e-11
3.32802e-11
4.66086e-11
4.87286e-11
2.48261e-11
6.94909e-11
-6.75377e-12
1.0079e-10
-5.29546e-11
1.47794e-10
-1.24141e-10
2.27981e-10
-2.36946e-10
3.62642e-10
-4.30892e-10
6.2547e-10
-7.75829e-10
1.12072e-09
-1.49823e-09
2.38105e-09
-3.01054e-09
5.13869e-09
-7.91522e-09
3.54751e-08
-1.09077e-08
3.46421e-08
-8.01311e-08
1.1987e-08
-9.21183e-08
8.67057e-09
3.79586e-08
3.50263e-09
4.0643e-08
1.7678e-09
6.8735e-09
9.23768e-10
3.2251e-09
5.16528e-10
1.52795e-09
2.86194e-10
8.55797e-10
1.51822e-10
4.97034e-10
6.67888e-11
3.13013e-10
1.15253e-11
2.03046e-10
-2.63035e-11
1.38635e-10
-5.24172e-11
9.55998e-11
-7.07997e-11
6.71083e-11
-8.34196e-11
4.59165e-11
-9.17961e-11
3.02362e-11
-9.67355e-11
1.75355e-11
-9.89204e-11
7.30204e-12
-9.87564e-11
-1.4313e-12
-9.66121e-11
-8.82469e-12
-9.27397e-11
-1.52836e-11
-8.73823e-11
-2.0845e-11
-8.07286e-11
-2.5708e-11
-7.29617e-11
-2.98952e-11
-6.42417e-11
-3.34776e-11
-5.47236e-11
-3.64819e-11
-4.45488e-11
-3.89579e-11
-3.38582e-11
-4.08946e-11
-2.2784e-11
-4.23377e-11
-1.1455e-11
-4.33014e-11
-4.44486e-16
-4.37723e-11
1.1454e-11
-4.37694e-11
2.27838e-11
-4.33172e-11
3.38575e-11
-4.23337e-11
4.45472e-11
-4.08853e-11
5.4723e-11
-3.89674e-11
6.42401e-11
-3.64733e-11
7.29594e-11
-3.34654e-11
8.0728e-11
-2.99114e-11
8.73816e-11
-2.57049e-11
9.27384e-11
-2.08403e-11
9.66125e-11
-1.53024e-11
9.8757e-11
-8.81818e-12
9.89222e-11
-1.42931e-12
9.67411e-11
7.27503e-12
9.18019e-11
1.75396e-11
8.34251e-11
3.02479e-11
7.08076e-11
4.58964e-11
5.24244e-11
6.71183e-11
2.63101e-11
9.56112e-11
-1.15164e-11
1.38614e-10
-6.67798e-11
2.03051e-10
-1.51812e-10
3.1301e-10
-2.86182e-10
4.97012e-10
-5.16515e-10
8.5581e-10
-9.23757e-10
1.52796e-09
-1.76779e-09
3.22509e-09
-3.50261e-09
6.87352e-09
-8.67056e-09
4.0643e-08
-1.1987e-08
3.79586e-08
-9.21182e-08
1.16116e-08
-1.0373e-07
9.23291e-09
4.03373e-08
3.96522e-09
4.59107e-08
2.03174e-09
8.80699e-09
1.07181e-09
4.18504e-09
6.03654e-10
1.99611e-09
3.37144e-10
1.12231e-09
1.81144e-10
6.53038e-10
8.21264e-11
4.1202e-10
1.76725e-11
2.67504e-10
-2.6512e-11
1.82818e-10
-5.70442e-11
1.2613e-10
-7.85707e-11
8.86389e-11
-9.33839e-11
6.07341e-11
-1.03262e-10
4.01156e-11
-1.09148e-10
2.34224e-11
-1.11842e-10
9.99619e-12
-1.11817e-10
-1.453e-12
-1.09505e-10
-1.1135e-11
-1.05199e-10
-1.95894e-11
-9.91828e-11
-2.68636e-11
-9.16739e-11
-3.32187e-11
-8.28849e-11
-3.86841e-11
-7.30001e-11
-4.33594e-11
-6.21985e-11
-4.72795e-11
-5.06428e-11
-5.05118e-11
-3.84947e-11
-5.30424e-11
-2.59063e-11
-5.49327e-11
-1.30256e-11
-5.6182e-11
-5.15685e-16
-5.67937e-11
1.30246e-11
-5.67994e-11
2.59058e-11
-5.61911e-11
3.84939e-11
-5.49215e-11
5.06412e-11
-5.30324e-11
6.21975e-11
-5.05206e-11
7.29984e-11
-4.72706e-11
8.28825e-11
-4.3355e-11
9.16729e-11
-3.87086e-11
9.91819e-11
-3.3216e-11
1.05198e-10
-2.68564e-11
1.09505e-10
-1.96103e-11
1.11818e-10
-1.11352e-11
1.11844e-10
-1.4569e-12
1.09154e-10
9.97065e-12
1.03269e-10
2.34299e-11
9.33903e-11
4.0123e-11
7.85794e-11
6.07085e-11
5.70524e-11
8.86409e-11
2.65198e-11
1.26138e-10
-1.76626e-11
1.82799e-10
-8.21161e-11
2.67507e-10
-1.81133e-10
4.12029e-10
-3.3713e-10
6.5301e-10
-6.03641e-10
1.12232e-09
-1.07179e-09
1.99612e-09
-2.03172e-09
4.18502e-09
-3.96521e-09
8.807e-09
-9.2329e-09
4.59107e-08
-1.16115e-08
4.03373e-08
-1.0373e-07
1.13008e-08
-1.15031e-07
9.53548e-09
4.21025e-08
4.39391e-09
5.10523e-08
2.2881e-09
1.09128e-08
1.2192e-09
5.25394e-09
6.91997e-10
2.5233e-09
3.8973e-10
1.42458e-09
2.12139e-10
8.30625e-10
9.90467e-11
5.25121e-10
2.53016e-11
3.41248e-10
-2.53318e-11
2.33452e-10
-6.03603e-11
1.61159e-10
-8.50976e-11
1.13371e-10
-1.02163e-10
7.77964e-11
-1.13598e-10
5.15521e-11
-1.20484e-10
3.03064e-11
-1.23742e-10
1.32498e-11
-1.23914e-10
-1.28398e-12
-1.21496e-10
-1.35515e-11
-1.16822e-10
-2.42639e-11
-1.10216e-10
-3.34712e-11
-1.01926e-10
-4.1509e-11
-9.21919e-11
-4.84176e-11
-8.12235e-11
-5.43279e-11
-6.92227e-11
-5.92832e-11
-5.63729e-11
-6.33568e-11
-4.28564e-11
-6.65583e-11
-2.88444e-11
-6.89375e-11
-1.45039e-11
-7.05266e-11
-5.67149e-16
-7.12989e-11
1.45028e-11
-7.12988e-11
2.88438e-11
-7.05361e-11
4.28555e-11
-6.89341e-11
5.63713e-11
-6.65514e-11
6.92214e-11
-6.33751e-11
8.12216e-11
-5.92717e-11
9.21894e-11
-5.432e-11
1.01924e-10
-4.84343e-11
1.10215e-10
-4.15048e-11
1.16821e-10
-3.34621e-11
1.21496e-10
-2.42834e-11
1.23915e-10
-1.35532e-11
1.23745e-10
-1.28597e-12
1.20491e-10
1.32191e-11
1.13605e-10
3.03038e-11
1.0217e-10
5.15585e-11
8.51069e-11
7.77699e-11
6.03695e-11
1.13381e-10
2.53407e-11
1.61169e-10
-2.52907e-11
2.33427e-10
-9.90352e-11
3.41258e-10
-2.12126e-10
5.25121e-10
-3.89714e-10
8.30597e-10
-6.91982e-10
1.42459e-09
-1.21918e-09
2.52332e-09
-2.28809e-09
5.25392e-09
-4.39389e-09
1.09128e-08
-9.53547e-09
5.10523e-08
-1.13008e-08
4.21025e-08
-1.1503e-07
1.11882e-08
-1.26219e-07
9.73749e-09
4.35532e-08
4.78513e-09
5.60046e-08
2.535e-09
1.31629e-08
1.36517e-09
6.42377e-09
7.81263e-10
3.10721e-09
4.43867e-10
1.76198e-09
2.44817e-10
1.02968e-09
1.17612e-10
6.52326e-10
3.45004e-11
4.24363e-10
-2.26601e-11
2.90613e-10
-6.22542e-11
2.00751e-10
-9.0264e-11
1.41384e-10
-1.09638e-10
9.71708e-11
-1.22685e-10
6.46004e-11
-1.30627e-10
3.82474e-11
-1.34507e-10
1.7135e-11
-1.34938e-10
-8.52839e-13
-1.3248e-10
-1.60169e-11
-1.2751e-10
-2.92346e-11
-1.2039e-10
-4.05931e-11
-1.114e-10
-5.05e-11
-1.00808e-10
-5.90084e-11
-8.88467e-11
-6.62957e-11
-7.57408e-11
-7.23896e-11
-6.16944e-11
-7.74082e-11
-4.69094e-11
-8.13433e-11
-3.15757e-11
-8.42734e-11
-1.58783e-11
-8.62193e-11
-6.08106e-16
-8.71771e-11
1.58771e-11
-8.71746e-11
3.15749e-11
-8.62357e-11
4.69084e-11
-8.42619e-11
6.16926e-11
-8.13351e-11
7.57393e-11
-7.74196e-11
8.88445e-11
-7.23768e-11
1.00806e-10
-6.62819e-11
1.11399e-10
-5.90353e-11
1.20389e-10
-5.0492e-11
1.27508e-10
-4.05841e-11
1.32479e-10
-2.92541e-11
1.34939e-10
-1.60123e-11
1.3451e-10
-8.56426e-13
1.30634e-10
1.70962e-11
1.22693e-10
3.82569e-11
1.09646e-10
6.46103e-11
9.02741e-11
9.71433e-11
6.22642e-11
1.41383e-10
2.26699e-11
2.00767e-10
-3.44885e-11
2.90585e-10
-1.17599e-10
4.2436e-10
-2.44804e-10
6.52324e-10
-4.4385e-10
1.02964e-09
-7.81246e-10
1.76198e-09
-1.36516e-09
3.10723e-09
-2.53498e-09
6.42375e-09
-4.78512e-09
1.31629e-08
-9.73748e-09
5.60047e-08
-1.11882e-08
4.35532e-08
-1.26219e-07
1.10241e-08
-1.37243e-07
9.88094e-09
4.46964e-08
5.13553e-09
6.075e-08
2.77064e-09
1.55278e-08
1.50899e-09
7.68541e-09
8.71152e-10
3.74505e-09
4.99463e-10
2.13366e-09
2.79181e-10
1.24996e-09
1.3787e-10
7.93634e-10
4.53433e-11
5.16887e-10
-1.84087e-11
3.54368e-10
-6.26298e-11
2.44974e-10
-9.39699e-11
1.72721e-10
-1.15707e-10
1.18906e-10
-1.3042e-10
7.9315e-11
-1.39475e-10
4.73047e-11
-1.44038e-10
2.16919e-11
-1.44793e-10
-9.36716e-14
-1.42366e-10
-1.84372e-11
-1.37177e-10
-3.44212e-11
-1.29628e-10
-4.81372e-11
-1.20026e-10
-6.01073e-11
-1.0867e-10
-7.03712e-11
-9.58138e-11
-7.91483e-11
-8.17058e-11
-8.64981e-11
-6.6569e-11
-9.25405e-11
-5.06248e-11
-9.72912e-11
-3.40807e-11
-1.00816e-10
-1.71393e-11
-1.03159e-10
-6.54027e-16
-1.0432e-10
1.7138e-11
-1.04316e-10
3.40798e-11
-1.03171e-10
5.06236e-11
-1.00812e-10
6.65672e-11
-9.72769e-11
8.1704e-11
-9.25548e-11
9.58115e-11
-8.64844e-11
1.08667e-10
-7.91361e-11
1.20024e-10
-7.03853e-11
1.29626e-10
-6.01027e-11
1.37176e-10
-4.81323e-11
1.42366e-10
-3.44458e-11
1.44794e-10
-1.84437e-11
1.44041e-10
-1.04746e-13
1.39483e-10
2.16598e-11
1.30429e-10
4.73053e-11
1.15716e-10
7.93163e-11
9.39807e-11
1.18872e-10
6.26406e-11
1.72729e-10
1.84193e-11
2.44982e-10
-4.53305e-11
3.54333e-10
-1.37856e-10
5.1689e-10
-2.79166e-10
7.93632e-10
-4.99445e-10
1.24992e-09
-8.71134e-10
2.13367e-09
-1.50897e-09
3.74507e-09
-2.77062e-09
7.68539e-09
-5.13551e-09
1.55278e-08
-9.88093e-09
6.07501e-08
-1.10241e-08
4.46964e-08
-1.37243e-07
1.07272e-08
-1.4797e-07
9.94348e-09
4.54801e-08
5.44217e-09
6.52514e-08
2.99336e-09
1.79766e-08
1.64994e-09
9.02884e-09
9.61368e-10
4.43362e-09
5.56415e-10
2.53861e-09
3.15218e-10
1.49115e-09
1.59856e-10
9.48998e-10
5.78864e-11
6.1885e-10
-1.25089e-11
4.24755e-10
-6.14121e-11
2.9388e-10
-9.61368e-11
2.07445e-10
-1.20291e-10
1.43063e-10
-1.36726e-10
9.57448e-11
-1.46951e-10
5.75279e-11
-1.52259e-10
2.70055e-11
-1.53407e-10
1.05486e-12
-1.51086e-10
-2.0759e-11
-1.45759e-10
-3.97471e-11
-1.37867e-10
-5.60318e-11
-1.27748e-10
-7.02174e-11
-1.15727e-10
-8.23849e-11
-1.02082e-10
-9.27943e-11
-8.70812e-11
-1.01497e-10
-7.09674e-11
-1.08659e-10
-5.39802e-11
-1.14271e-10
-3.63445e-11
-1.18456e-10
-1.82793e-11
-1.21231e-10
-7.1049e-16
-1.22595e-10
1.82778e-11
-1.22594e-10
3.63434e-11
-1.21238e-10
5.3979e-11
-1.18448e-10
7.09654e-11
-1.14262e-10
8.70791e-11
-1.08673e-10
1.02079e-10
-1.01488e-10
1.15724e-10
-9.27789e-11
1.27746e-10
-8.24123e-11
1.37866e-10
-7.02125e-11
1.45757e-10
-5.60259e-11
1.51086e-10
-3.97747e-11
1.53408e-10
-2.07618e-11
1.52262e-10
1.04171e-12
1.46959e-10
2.69593e-11
1.36735e-10
5.75295e-11
1.203e-10
9.57585e-11
9.61481e-11
1.43031e-10
6.14237e-11
2.07458e-10
1.25203e-11
2.93888e-10
-5.78728e-11
4.24736e-10
-1.59841e-10
6.1886e-10
-3.15203e-10
9.48999e-10
-5.56396e-10
1.49112e-09
-9.61348e-10
2.53862e-09
-1.64992e-09
4.43363e-09
-2.99334e-09
9.02881e-09
-5.44215e-09
1.79766e-08
-9.94347e-09
6.52514e-08
-1.07271e-08
4.54801e-08
-1.4797e-07
1.03252e-08
-1.58295e-07
9.91319e-09
4.58921e-08
5.70298e-09
6.94616e-08
3.20172e-09
2.04779e-08
1.78735e-09
1.04432e-08
1.05162e-09
5.16936e-09
6.14617e-10
2.97562e-09
3.52903e-10
1.75287e-09
1.83582e-10
1.11832e-09
7.21631e-11
7.30274e-10
-4.91739e-12
5.01839e-10
-5.85529e-11
3.47513e-10
-9.67141e-11
2.45608e-10
-1.23338e-10
1.69684e-10
-1.41549e-10
1.13959e-10
-1.53004e-10
6.89889e-11
-1.59122e-10
3.31205e-11
-1.60733e-10
2.66204e-12
-1.58595e-10
-2.2895e-11
-1.53214e-10
-4.51362e-11
-1.45071e-10
-6.41734e-11
-1.34532e-10
-8.07585e-11
-1.2195e-10
-9.49699e-11
-1.07624e-10
-1.07119e-10
-9.18447e-11
-1.17281e-10
-7.48714e-11
-1.25631e-10
-5.69621e-11
-1.32185e-10
-3.83579e-11
-1.37059e-10
-1.92936e-11
-1.40295e-10
-7.77495e-16
-1.4189e-10
1.92921e-11
-1.4189e-10
3.83567e-11
-1.40301e-10
5.69608e-11
-1.37044e-10
7.48693e-11
-1.32173e-10
9.18424e-11
-1.2564e-10
1.07622e-10
-1.17267e-10
1.21947e-10
-1.0711e-10
1.3453e-10
-9.49969e-11
1.4507e-10
-8.07558e-11
1.53213e-10
-6.41643e-11
1.58595e-10
-4.51524e-11
1.60734e-10
-2.29002e-11
1.59126e-10
2.6542e-12
1.53012e-10
3.30757e-11
1.41559e-10
6.89826e-11
1.23348e-10
1.13967e-10
9.67259e-11
1.69649e-10
5.8565e-11
2.45613e-10
4.92957e-12
3.47521e-10
-7.21486e-11
5.01804e-10
-1.83566e-10
7.30277e-10
-3.52886e-10
1.11831e-09
-6.14597e-10
1.75283e-09
-1.0516e-09
2.97563e-09
-1.78733e-09
5.16937e-09
-3.2017e-09
1.04432e-08
-5.70296e-09
2.04779e-08
-9.91318e-09
6.94616e-08
-1.03252e-08
4.58921e-08
-1.58295e-07
9.84864e-09
-1.68144e-07
9.7958e-09
4.59449e-08
5.91697e-09
7.33404e-08
3.39451e-09
2.30003e-08
1.92067e-09
1.19171e-08
1.14164e-09
5.94838e-09
6.73955e-10
3.4433e-09
3.9219e-10
2.03463e-09
2.09039e-10
1.30147e-09
8.81786e-11
8.51135e-10
4.37819e-12
5.8564e-10
-5.40369e-11
4.05933e-10
-9.5686e-11
2.87253e-10
-1.24833e-10
1.98835e-10
-1.44877e-10
1.34001e-10
-1.57621e-10
8.17272e-11
-1.64614e-10
4.01133e-11
-1.6676e-10
4.80838e-12
-1.64883e-10
-2.47757e-11
-1.59533e-10
-5.04814e-11
-1.51231e-10
-7.24691e-11
-1.40371e-10
-9.16151e-11
-1.27332e-10
-1.08008e-10
-1.12436e-10
-1.22013e-10
-9.59913e-11
-1.33718e-10
-7.82772e-11
-1.43343e-10
-5.95675e-11
-1.50892e-10
-4.0119e-11
-1.56506e-10
-2.01814e-11
-1.60232e-10
-8.52222e-16
-1.62066e-10
2.01798e-11
-1.62064e-10
4.01176e-11
-1.60243e-10
5.95661e-11
-1.56499e-10
7.8275e-11
-1.50883e-10
9.59888e-11
-1.43356e-10
1.12433e-10
-1.3371e-10
1.27329e-10
-1.21997e-10
1.40369e-10
-1.08029e-10
1.51229e-10
-9.16169e-11
1.59532e-10
-7.24712e-11
1.64883e-10
-5.0512e-11
1.66761e-10
-2.47808e-11
1.64618e-10
4.7914e-12
1.5763e-10
4.00622e-11
1.44886e-10
8.1726e-11
1.24843e-10
1.34004e-10
9.56981e-11
1.98795e-10
5.40496e-11
2.87263e-10
-4.36535e-12
4.0594e-10
-8.81634e-11
5.85606e-10
-2.09023e-10
8.51129e-10
-3.92172e-10
1.30147e-09
-6.73934e-10
2.03458e-09
-1.14162e-09
3.44331e-09
-1.92065e-09
5.9484e-09
-3.39449e-09
1.1917e-08
-5.91695e-09
2.30004e-08
-9.79579e-09
7.33405e-08
-9.84863e-09
4.5945e-08
-1.68144e-07
9.3171e-09
-1.77461e-07
9.60253e-09
4.56595e-08
6.08439e-09
7.68585e-08
3.5709e-09
2.55138e-08
2.04942e-09
1.34385e-08
1.23118e-09
6.76662e-09
7.34315e-10
3.94017e-09
4.33019e-10
2.33593e-09
2.36192e-10
1.49829e-09
1.05907e-10
9.8142e-10
1.53547e-11
6.76196e-10
-4.78876e-11
4.69176e-10
-9.30767e-11
3.32449e-10
-1.24801e-10
2.30554e-10
-1.46734e-10
1.55937e-10
-1.60829e-10
9.58244e-11
-1.68762e-10
4.80497e-11
-1.71514e-10
7.56433e-12
-1.69977e-10
-2.63141e-11
-1.64742e-10
-5.57179e-11
-1.56372e-10
-8.08464e-11
-1.45287e-10
-1.0271e-10
-1.31894e-10
-1.21405e-10
-1.16534e-10
-1.37378e-10
-9.95368e-11
-1.5072e-10
-8.11975e-11
-1.61685e-10
-6.18061e-11
-1.70285e-10
-4.16342e-11
-1.7668e-10
-2.09459e-11
-1.80917e-10
-9.35806e-16
-1.83011e-10
2.09441e-11
-1.83012e-10
4.16327e-11
-1.80934e-10
6.18045e-11
-1.76662e-10
8.11951e-11
-1.70273e-10
9.9534e-11
-1.61699e-10
1.16531e-10
-1.50703e-10
1.31891e-10
-1.37363e-10
1.45284e-10
-1.21428e-10
1.5637e-10
-1.02704e-10
1.64741e-10
-8.08426e-11
1.69977e-10
-5.57436e-11
1.71516e-10
-2.63255e-11
1.68766e-10
7.54177e-12
1.60838e-10
4.7994e-11
1.46744e-10
9.58202e-11
1.24812e-10
1.55949e-10
9.30891e-11
2.3052e-10
4.79006e-11
3.32448e-10
-1.53413e-11
4.69179e-10
-1.05891e-10
6.76155e-10
-2.36174e-10
9.81425e-10
-4.33001e-10
1.49829e-09
-7.34294e-10
2.33588e-09
-1.23116e-09
3.94018e-09
-2.0494e-09
6.76664e-09
-3.57087e-09
1.34385e-08
-6.08437e-09
2.55139e-08
-9.60251e-09
7.68586e-08
-9.31709e-09
4.56595e-08
-1.77461e-07
8.75082e-09
-1.86212e-07
9.34382e-09
4.50665e-08
6.20675e-09
7.99956e-08
3.73044e-09
2.79901e-08
2.17329e-09
1.49957e-08
1.32006e-09
7.61985e-09
7.95587e-10
4.46464e-09
4.75314e-10
2.6562e-09
2.64978e-10
1.70864e-09
1.25288e-10
1.12111e-09
2.79515e-11
7.73528e-10
-4.01686e-11
5.37291e-10
-8.89535e-11
3.81227e-10
-1.23313e-10
2.64915e-10
-1.47194e-10
1.7982e-10
-1.62701e-10
1.11328e-10
-1.7164e-10
5.698e-11
-1.75068e-10
1.09844e-11
-1.73945e-10
-2.74305e-11
-1.68906e-10
-6.0749e-11
-1.60553e-10
-8.92019e-11
-1.49335e-10
-1.1392e-10
-1.35685e-10
-1.35048e-10
-1.19963e-10
-1.53097e-10
-1.02518e-10
-1.68165e-10
-8.36626e-11
-1.80535e-10
-6.37009e-11
-1.90243e-10
-4.2919e-11
-1.97461e-10
-2.15949e-11
-2.02244e-10
-1.0241e-15
-2.04609e-10
2.1593e-11
-2.04604e-10
4.29175e-11
-2.02249e-10
6.36992e-11
-1.97459e-10
8.36601e-11
-1.90233e-10
1.02515e-10
-1.80549e-10
1.1996e-10
-1.68152e-10
1.35682e-10
-1.53084e-10
1.49333e-10
-1.3507e-10
1.60551e-10
-1.13922e-10
1.68905e-10
-8.91925e-11
1.73944e-10
-6.07826e-11
1.75069e-10
-2.744e-11
1.71644e-10
1.0973e-11
1.62709e-10
5.69212e-11
1.47204e-10
1.11323e-10
1.23323e-10
1.79821e-10
8.89661e-11
2.64876e-10
4.01821e-11
3.81241e-10
-2.79376e-11
5.37301e-10
-1.25272e-10
7.73487e-10
-2.6496e-10
1.12111e-09
-4.75295e-10
1.70863e-09
-7.95565e-10
2.65616e-09
-1.32003e-09
4.46466e-09
-2.17327e-09
7.61987e-09
-3.73042e-09
1.49957e-08
-6.20673e-09
2.79902e-08
-9.3438e-09
7.99957e-08
-8.75081e-09
4.50665e-08
-1.86212e-07
8.16523e-09
-1.94377e-07
9.02676e-09
4.4205e-08
6.28685e-09
8.27355e-08
3.87314e-09
3.04039e-08
2.29212e-09
1.65767e-08
1.40811e-09
8.50387e-09
8.5767e-10
5.01508e-09
5.18988e-10
2.99488e-09
2.95313e-10
1.93231e-09
1.46235e-10
1.27018e-09
4.20737e-11
8.77693e-10
-3.09818e-11
6.10352e-10
-8.34235e-11
4.33674e-10
-1.20479e-10
3.0197e-10
-1.4637e-10
2.05709e-10
-1.63351e-10
1.28316e-10
-1.73359e-10
6.69936e-11
-1.77531e-10
1.51641e-11
-1.76893e-10
-2.80748e-11
-1.72127e-10
-6.55181e-11
-1.63871e-10
-9.74573e-11
-1.52604e-10
-1.25192e-10
-1.38784e-10
-1.48874e-10
-1.22791e-10
-1.69091e-10
-1.04995e-10
-1.85961e-10
-8.57201e-11
-1.99822e-10
-6.52881e-11
-2.10677e-10
-4.39979e-11
-2.18744e-10
-2.21406e-11
-2.24096e-10
-1.10725e-15
-2.26752e-10
2.21385e-11
-2.26742e-10
4.39962e-11
-2.24118e-10
6.52863e-11
-2.18737e-10
8.57175e-11
-2.10664e-10
1.04992e-10
-1.99825e-10
1.22788e-10
-1.85945e-10
1.38781e-10
-1.69073e-10
1.52601e-10
-1.48901e-10
1.63869e-10
-1.2519e-10
1.72125e-10
-9.74508e-11
1.76893e-10
-6.55525e-11
1.77532e-10
-2.80852e-11
1.73363e-10
1.51312e-11
1.63359e-10
6.6933e-11
1.4638e-10
1.28302e-10
1.2049e-10
2.05718e-10
8.34363e-11
3.01928e-10
3.09955e-11
4.33669e-10
-4.20593e-11
6.10358e-10
-1.46218e-10
8.77641e-10
-2.95295e-10
1.27018e-09
-5.18969e-10
1.9323e-09
-8.57648e-10
2.99483e-09
-1.40808e-09
5.01508e-09
-2.2921e-09
8.50388e-09
-3.87312e-09
1.65767e-08
-6.28683e-09
3.04039e-08
-9.02675e-09
8.27356e-08
-8.16522e-09
4.4205e-08
-1.94377e-07
7.55483e-09
-2.01932e-07
8.65312e-09
4.31067e-08
6.32852e-09
8.50601e-08
3.99943e-09
3.27329e-08
2.40591e-09
1.81702e-08
1.49525e-09
9.41453e-09
9.20481e-10
5.58984e-09
5.63953e-10
3.35141e-09
3.27101e-10
2.16916e-09
1.68638e-10
1.42865e-09
5.76017e-11
9.88726e-10
-2.04567e-11
6.88408e-10
-7.66244e-11
4.8984e-10
-1.16443e-10
3.41789e-10
-1.44408e-10
2.33672e-10
-1.62926e-10
1.46824e-10
-1.74068e-10
7.81338e-11
-1.79047e-10
2.01433e-11
-1.7896e-10
-2.81561e-11
-1.74534e-10
-6.99452e-11
-1.66446e-10
-1.05544e-10
-1.55205e-10
-1.36429e-10
-1.41292e-10
-1.62782e-10
-1.25108e-10
-1.85267e-10
-1.07041e-10
-2.04028e-10
-8.74311e-11
-2.19417e-10
-6.66139e-11
-2.31491e-10
-4.49018e-11
-2.40461e-10
-2.25986e-11
-2.46402e-10
-1.17323e-15
-2.49345e-10
2.25964e-11
-2.49342e-10
4.49e-11
-2.46411e-10
6.66119e-11
-2.40456e-10
8.74283e-11
-2.31478e-10
1.07038e-10
-2.19433e-10
1.25105e-10
-2.04016e-10
1.41288e-10
-1.85262e-10
1.55202e-10
-1.62809e-10
1.66444e-10
-1.36428e-10
1.74532e-10
-1.05541e-10
1.7896e-10
-6.99801e-11
1.79048e-10
-2.81697e-11
1.74072e-10
2.01159e-11
1.62934e-10
7.80678e-11
1.44418e-10
1.46819e-10
1.16454e-10
2.33676e-10
7.66373e-11
3.41746e-10
2.04707e-11
4.89843e-10
-5.75869e-11
6.88407e-10
-1.68621e-10
9.88683e-10
-3.27082e-10
1.42864e-09
-5.63932e-10
2.16915e-09
-9.20458e-10
3.35135e-09
-1.49522e-09
5.58985e-09
-2.40588e-09
9.41455e-09
-3.99941e-09
1.81702e-08
-6.3285e-09
3.2733e-08
-8.65311e-09
8.50602e-08
-7.55483e-09
4.31067e-08
-2.01932e-07
6.88606e-09
-2.08818e-07
8.21988e-09
4.17729e-08
6.33623e-09
8.69438e-08
4.11007e-09
3.49591e-08
2.51477e-09
1.97655e-08
1.58144e-09
1.03479e-08
9.83963e-10
6.18732e-09
6.10128e-10
3.72525e-09
3.60248e-10
2.41904e-09
1.92385e-10
1.59651e-09
7.44077e-11
1.1067e-09
-8.73396e-12
7.7155e-10
-6.87069e-11
5.49812e-10
-1.11363e-10
3.84446e-10
-1.4147e-10
2.63775e-10
-1.6159e-10
1.66952e-10
-1.73927e-10
9.04725e-11
-1.79774e-10
2.59926e-11
-1.80299e-10
-2.76314e-11
-1.76274e-10
-7.39693e-11
-1.68416e-10
-1.13408e-10
-1.57262e-10
-1.47584e-10
-1.43321e-10
-1.76724e-10
-1.27012e-10
-2.01586e-10
-1.08741e-10
-2.22305e-10
-8.88635e-11
-2.39302e-10
-6.773e-11
-2.52626e-10
-4.56654e-11
-2.62528e-10
-2.29863e-11
-2.69087e-10
-1.25795e-15
-2.72325e-10
2.2984e-11
-2.72334e-10
4.56635e-11
-2.69106e-10
6.77279e-11
-2.62518e-10
8.88605e-11
-2.52622e-10
1.08737e-10
-2.39319e-10
1.27009e-10
-2.22286e-10
1.43318e-10
-2.01565e-10
1.5726e-10
-1.76756e-10
1.68414e-10
-1.47575e-10
1.76272e-10
-1.134e-10
1.80299e-10
-7.40061e-11
1.79775e-10
-2.76412e-11
1.73931e-10
2.59577e-11
1.61599e-10
9.03982e-11
1.41481e-10
1.66936e-10
1.11374e-10
2.63779e-10
6.87198e-11
3.84393e-10
8.74818e-12
5.49811e-10
-7.43925e-11
7.7156e-10
-1.92367e-10
1.10666e-09
-3.60228e-10
1.59651e-09
-6.10108e-10
2.41904e-09
-9.8394e-10
3.72519e-09
-1.58142e-09
6.18733e-09
-2.51475e-09
1.03479e-08
-4.11005e-09
1.97655e-08
-6.33621e-09
3.49591e-08
-8.21987e-09
8.69439e-08
-6.88606e-09
4.17729e-08
-2.08818e-07
6.11416e-09
-2.14932e-07
7.72408e-09
4.01629e-08
6.31457e-09
8.83533e-08
4.206e-09
3.70677e-08
2.61893e-09
2.13526e-08
1.66671e-09
1.13001e-08
1.04809e-09
6.80594e-09
6.57459e-10
4.11588e-09
3.94674e-10
2.68183e-09
2.17378e-10
1.77381e-09
9.23759e-11
1.23171e-09
4.05567e-12
8.59867e-10
-5.98128e-11
6.1368e-10
-1.05389e-10
4.30029e-10
-1.37712e-10
2.9611e-10
-1.59502e-10
1.88745e-10
-1.73094e-10
1.04059e-10
-1.79867e-10
3.27548e-11
-1.8106e-10
-2.64341e-11
-1.77488e-10
-7.75428e-11
-1.69913e-10
-1.20983e-10
-1.589e-10
-1.58599e-10
-1.44981e-10
-1.90648e-10
-1.28599e-10
-2.17968e-10
-1.10176e-10
-2.40719e-10
-9.0084e-11
-2.59397e-10
-6.86869e-11
-2.74023e-10
-4.63228e-11
-2.84881e-10
-2.33209e-11
-2.92079e-10
-1.38252e-15
-2.95661e-10
2.33185e-11
-2.95645e-10
4.63209e-11
-2.92086e-10
6.86846e-11
-2.84877e-10
9.00808e-11
-2.73995e-10
1.10172e-10
-2.59395e-10
1.28596e-10
-2.40712e-10
1.44978e-10
-2.17958e-10
1.58897e-10
-1.90666e-10
1.69911e-10
-1.58608e-10
1.77487e-10
-1.20976e-10
1.81059e-10
-7.75761e-11
1.79869e-10
-2.64518e-11
1.73099e-10
3.27305e-11
1.5951e-10
1.03991e-10
1.37723e-10
1.88723e-10
1.054e-10
2.96111e-10
5.98259e-11
4.29982e-10