/*--------------------------------*- C++ -*----------------------------------*\
| =========                 |                                                 |
| \\      /  F ield         | foam-extend: Open Source CFD                    |
|  \\    /   O peration     | Version:     4.0                                |
|   \\  /    A nd           | Web:         http://www.foam-extend.org         |
|    \\/     M anipulation  |                                                 |
\*---------------------------------------------------------------------------*/
FoamFile
{
    version     2.0;
    format      ascii;
    class       volScalarField;
    location    "380";
    object      psiE;
}
// * * * * * * * * * * * * * * * * * * * * * * * * * * * * * * * * * * * * * //

dimensions      [0 0 0 0 0 0 0];

internalField   nonuniform List<scalar> 
6960
(
0.399097
0.399138
0.399167
0.399184
0.399194
0.399199
0.399202
0.399204
0.399206
0.399207
0.399207
0.399208
0.399209
0.399209
0.39921
0.39921
0.399211
0.399211
0.399212
0.399212
0.399212
0.399213
0.399213
0.399213
0.399213
0.399213
0.399214
0.399214
0.399214
0.399214
0.399214
0.399214
0.399214
0.399214
0.399213
0.399213
0.399213
0.399213
0.399213
0.399212
0.399212
0.399212
0.399211
0.399211
0.39921
0.39921
0.399209
0.399209
0.399208
0.399207
0.399207
0.399206
0.399204
0.399202
0.399199
0.399194
0.399184
0.399167
0.399138
0.399097
1.0971
1.09726
1.09738
1.09745
1.09749
1.09751
1.09752
1.09753
1.09753
1.09754
1.09754
1.09754
1.09754
1.09754
1.09755
1.09755
1.09755
1.09755
1.09755
1.09755
1.09755
1.09755
1.09756
1.09756
1.09756
1.09756
1.09756
1.09756
1.09756
1.09756
1.09756
1.09756
1.09756
1.09756
1.09756
1.09756
1.09756
1.09756
1.09755
1.09755
1.09755
1.09755
1.09755
1.09755
1.09755
1.09755
1.09754
1.09754
1.09754
1.09754
1.09754
1.09753
1.09753
1.09752
1.09751
1.09749
1.09745
1.09738
1.09726
1.0971
1.78754
1.78784
1.78805
1.78818
1.78825
1.78829
1.78831
1.78832
1.78833
1.78834
1.78834
1.78835
1.78835
1.78835
1.78836
1.78836
1.78836
1.78836
1.78837
1.78837
1.78837
1.78837
1.78837
1.78837
1.78838
1.78838
1.78838
1.78838
1.78838
1.78838
1.78838
1.78838
1.78838
1.78838
1.78838
1.78838
1.78837
1.78837
1.78837
1.78837
1.78837
1.78837
1.78836
1.78836
1.78836
1.78836
1.78835
1.78835
1.78835
1.78834
1.78834
1.78833
1.78832
1.78831
1.78829
1.78825
1.78818
1.78805
1.78784
1.78754
2.4842
2.48464
2.48495
2.48514
2.48524
2.4853
2.48533
2.48535
2.48537
2.48538
2.48538
2.48539
2.48539
2.4854
2.4854
2.48541
2.48541
2.48541
2.48542
2.48542
2.48542
2.48542
2.48542
2.48543
2.48543
2.48543
2.48543
2.48543
2.48543
2.48543
2.48543
2.48543
2.48543
2.48543
2.48543
2.48543
2.48543
2.48542
2.48542
2.48542
2.48542
2.48542
2.48541
2.48541
2.48541
2.4854
2.4854
2.48539
2.48539
2.48538
2.48538
2.48537
2.48535
2.48533
2.4853
2.48524
2.48514
2.48495
2.48464
2.4842
3.18912
3.18971
3.19012
3.19037
3.1905
3.19058
3.19063
3.19065
3.19067
3.19068
3.19069
3.1907
3.1907
3.19071
3.19072
3.19072
3.19072
3.19073
3.19073
3.19074
3.19074
3.19074
3.19075
3.19075
3.19075
3.19075
3.19075
3.19075
3.19075
3.19075
3.19075
3.19075
3.19075
3.19075
3.19075
3.19075
3.19075
3.19075
3.19074
3.19074
3.19074
3.19073
3.19073
3.19072
3.19072
3.19072
3.19071
3.1907
3.1907
3.19069
3.19068
3.19067
3.19065
3.19063
3.19058
3.1905
3.19037
3.19012
3.18971
3.18912
3.90212
3.90285
3.90336
3.90366
3.90383
3.90393
3.90399
3.90402
3.90404
3.90405
3.90406
3.90407
3.90408
3.90409
3.9041
3.9041
3.90411
3.90411
3.90412
3.90412
3.90413
3.90413
3.90413
3.90414
3.90414
3.90414
3.90414
3.90414
3.90414
3.90414
3.90414
3.90414
3.90414
3.90414
3.90414
3.90414
3.90414
3.90413
3.90413
3.90413
3.90412
3.90412
3.90411
3.90411
3.9041
3.9041
3.90409
3.90408
3.90407
3.90406
3.90405
3.90404
3.90402
3.90399
3.90393
3.90383
3.90366
3.90336
3.90285
3.90212
4.6225
4.62336
4.62397
4.62433
4.62453
4.62465
4.62472
4.62475
4.62478
4.6248
4.62481
4.62482
4.62483
4.62484
4.62485
4.62485
4.62486
4.62487
4.62487
4.62488
4.62488
4.62489
4.62489
4.62489
4.6249
4.6249
4.6249
4.6249
4.6249
4.6249
4.6249
4.6249
4.6249
4.6249
4.6249
4.6249
4.62489
4.62489
4.62489
4.62488
4.62488
4.62487
4.62487
4.62486
4.62485
4.62485
4.62484
4.62483
4.62482
4.62481
4.6248
4.62478
4.62475
4.62472
4.62465
4.62453
4.62433
4.62397
4.62336
4.6225
5.34937
5.35036
5.35107
5.35148
5.35172
5.35185
5.35193
5.35198
5.35201
5.35203
5.35204
5.35205
5.35206
5.35207
5.35208
5.35209
5.3521
5.35211
5.35211
5.35212
5.35212
5.35213
5.35213
5.35214
5.35214
5.35214
5.35215
5.35215
5.35215
5.35215
5.35215
5.35215
5.35215
5.35215
5.35214
5.35214
5.35214
5.35213
5.35213
5.35212
5.35212
5.35211
5.35211
5.3521
5.35209
5.35208
5.35207
5.35206
5.35205
5.35204
5.35203
5.35201
5.35198
5.35193
5.35185
5.35172
5.35148
5.35107
5.35036
5.34937
6.0817
6.08282
6.08362
6.08409
6.08436
6.08451
6.0846
6.08465
6.08468
6.08471
6.08472
6.08474
6.08475
6.08476
6.08477
6.08478
6.08479
6.0848
6.08481
6.08481
6.08482
6.08483
6.08483
6.08484
6.08484
6.08484
6.08484
6.08485
6.08485
6.08485
6.08485
6.08485
6.08485
6.08484
6.08484
6.08484
6.08484
6.08483
6.08483
6.08482
6.08481
6.08481
6.0848
6.08479
6.08478
6.08477
6.08476
6.08475
6.08474
6.08472
6.08471
6.08468
6.08465
6.0846
6.08451
6.08436
6.08409
6.08362
6.08282
6.0817
6.8183
6.81955
6.82044
6.82097
6.82127
6.82143
6.82153
6.82159
6.82162
6.82165
6.82167
6.82168
6.8217
6.82171
6.82172
6.82173
6.82174
6.82175
6.82176
6.82177
6.82178
6.82178
6.82179
6.82179
6.8218
6.8218
6.8218
6.82181
6.82181
6.82181
6.82181
6.82181
6.82181
6.8218
6.8218
6.8218
6.82179
6.82179
6.82178
6.82178
6.82177
6.82176
6.82175
6.82174
6.82173
6.82172
6.82171
6.8217
6.82168
6.82167
6.82165
6.82162
6.82159
6.82153
6.82143
6.82127
6.82097
6.82044
6.81955
6.8183
7.55781
7.55918
7.56015
7.56073
7.56106
7.56125
7.56135
7.56141
7.56145
7.56148
7.5615
7.56152
7.56154
7.56155
7.56156
7.56158
7.56159
7.5616
7.56161
7.56162
7.56162
7.56163
7.56164
7.56164
7.56165
7.56165
7.56165
7.56166
7.56166
7.56166
7.56166
7.56166
7.56166
7.56165
7.56165
7.56165
7.56164
7.56164
7.56163
7.56162
7.56162
7.56161
7.5616
7.56159
7.56158
7.56156
7.56155
7.56154
7.56152
7.5615
7.56148
7.56145
7.56141
7.56135
7.56125
7.56106
7.56073
7.56015
7.55918
7.55781
8.29866
8.30014
8.30119
8.30182
8.30217
8.30237
8.30249
8.30256
8.3026
8.30263
8.30265
8.30267
8.30269
8.3027
8.30272
8.30273
8.30274
8.30275
8.30277
8.30277
8.30278
8.30279
8.3028
8.3028
8.30281
8.30281
8.30282
8.30282
8.30282
8.30282
8.30282
8.30282
8.30282
8.30282
8.30281
8.30281
8.3028
8.3028
8.30279
8.30278
8.30277
8.30277
8.30275
8.30274
8.30273
8.30272
8.3027
8.30269
8.30267
8.30265
8.30263
8.3026
8.30256
8.30249
8.30237
8.30217
8.30182
8.30119
8.30014
8.29866
9.03902
9.0406
9.04173
9.0424
9.04279
9.043
9.04312
9.0432
9.04325
9.04328
9.0433
9.04332
9.04334
9.04336
9.04337
9.04339
9.0434
9.04341
9.04343
9.04344
9.04345
9.04345
9.04346
9.04347
9.04347
9.04348
9.04348
9.04348
9.04349
9.04349
9.04349
9.04349
9.04348
9.04348
9.04348
9.04347
9.04347
9.04346
9.04345
9.04345
9.04344
9.04343
9.04341
9.0434
9.04339
9.04337
9.04336
9.04334
9.04332
9.0433
9.04328
9.04325
9.0432
9.04312
9.043
9.04279
9.0424
9.04173
9.0406
9.03902
9.77682
9.7785
9.7797
9.78041
9.78081
9.78104
9.78117
9.78125
9.7813
9.78134
9.78136
9.78139
9.78141
9.78142
9.78144
9.78146
9.78147
9.78148
9.7815
9.78151
9.78152
9.78153
9.78154
9.78154
9.78155
9.78155
9.78156
9.78156
9.78156
9.78156
9.78156
9.78156
9.78156
9.78156
9.78155
9.78155
9.78154
9.78154
9.78153
9.78152
9.78151
9.7815
9.78148
9.78147
9.78146
9.78144
9.78142
9.78141
9.78139
9.78136
9.78134
9.7813
9.78125
9.78117
9.78104
9.78081
9.78041
9.7797
9.7785
9.77682
10.5096
10.5114
10.5127
10.5134
10.5138
10.5141
10.5142
10.5143
10.5144
10.5144
10.5144
10.5144
10.5145
10.5145
10.5145
10.5145
10.5145
10.5146
10.5146
10.5146
10.5146
10.5146
10.5146
10.5146
10.5146
10.5146
10.5146
10.5146
10.5146
10.5146
10.5146
10.5146
10.5146
10.5146
10.5146
10.5146
10.5146
10.5146
10.5146
10.5146
10.5146
10.5146
10.5146
10.5145
10.5145
10.5145
10.5145
10.5145
10.5144
10.5144
10.5144
10.5144
10.5143
10.5142
10.5141
10.5138
10.5134
10.5127
10.5114
10.5096
11.2347
11.2366
11.2379
11.2386
11.2391
11.2393
11.2395
11.2396
11.2396
11.2397
11.2397
11.2397
11.2397
11.2398
11.2398
11.2398
11.2398
11.2398
11.2398
11.2399
11.2399
11.2399
11.2399
11.2399
11.2399
11.2399
11.2399
11.2399
11.2399
11.2399
11.2399
11.2399
11.2399
11.2399
11.2399
11.2399
11.2399
11.2399
11.2399
11.2399
11.2399
11.2398
11.2398
11.2398
11.2398
11.2398
11.2398
11.2397
11.2397
11.2397
11.2397
11.2396
11.2396
11.2395
11.2393
11.2391
11.2386
11.2379
11.2366
11.2347
11.9488
11.9507
11.952
11.9528
11.9533
11.9535
11.9537
11.9538
11.9538
11.9539
11.9539
11.9539
11.954
11.954
11.954
11.954
11.954
11.954
11.9541
11.9541
11.9541
11.9541
11.9541
11.9541
11.9541
11.9541
11.9541
11.9541
11.9541
11.9541
11.9541
11.9541
11.9541
11.9541
11.9541
11.9541
11.9541
11.9541
11.9541
11.9541
11.9541
11.9541
11.954
11.954
11.954
11.954
11.954
11.954
11.9539
11.9539
11.9539
11.9538
11.9538
11.9537
11.9535
11.9533
11.9528
11.952
11.9507
11.9488
12.648
12.6499
12.6513
12.6521
12.6526
12.6529
12.653
12.6531
12.6532
12.6532
12.6533
12.6533
12.6533
12.6533
12.6533
12.6534
12.6534
12.6534
12.6534
12.6534
12.6534
12.6535
12.6535
12.6535
12.6535
12.6535
12.6535
12.6535
12.6535
12.6535
12.6535
12.6535
12.6535
12.6535
12.6535
12.6535
12.6535
12.6535
12.6535
12.6534
12.6534
12.6534
12.6534
12.6534
12.6534
12.6533
12.6533
12.6533
12.6533
12.6533
12.6532
12.6532
12.6531
12.653
12.6529
12.6526
12.6521
12.6513
12.6499
12.648
13.328
13.3299
13.3313
13.3321
13.3326
13.3329
13.333
13.3331
13.3332
13.3332
13.3332
13.3333
13.3333
13.3333
13.3333
13.3334
13.3334
13.3334
13.3334
13.3334
13.3334
13.3335
13.3335
13.3335
13.3335
13.3335
13.3335
13.3335
13.3335
13.3335
13.3335
13.3335
13.3335
13.3335
13.3335
13.3335
13.3335
13.3335
13.3335
13.3334
13.3334
13.3334
13.3334
13.3334
13.3334
13.3333
13.3333
13.3333
13.3333
13.3332
13.3332
13.3332
13.3331
13.333
13.3329
13.3326
13.3321
13.3313
13.3299
13.328
13.9833
13.9852
13.9866
13.9874
13.9879
13.9881
13.9883
13.9884
13.9884
13.9885
13.9885
13.9885
13.9886
13.9886
13.9886
13.9886
13.9887
13.9887
13.9887
13.9887
13.9887
13.9887
13.9887
13.9888
13.9888
13.9888
13.9888
13.9888
13.9888
13.9888
13.9888
13.9888
13.9888
13.9888
13.9888
13.9888
13.9888
13.9887
13.9887
13.9887
13.9887
13.9887
13.9887
13.9887
13.9886
13.9886
13.9886
13.9886
13.9885
13.9885
13.9885
13.9884
13.9884
13.9883
13.9881
13.9879
13.9874
13.9866
13.9852
13.9833
14.6075
14.6094
14.6107
14.6115
14.612
14.6122
14.6124
14.6125
14.6126
14.6126
14.6126
14.6127
14.6127
14.6127
14.6127
14.6128
14.6128
14.6128
14.6128
14.6128
14.6128
14.6129
14.6129
14.6129
14.6129
14.6129
14.6129
14.6129
14.6129
14.6129
14.6129
14.6129
14.6129
14.6129
14.6129
14.6129
14.6129
14.6129
14.6129
14.6128
14.6128
14.6128
14.6128
14.6128
14.6128
14.6127
14.6127
14.6127
14.6127
14.6126
14.6126
14.6126
14.6125
14.6124
14.6122
14.612
14.6115
14.6107
14.6094
14.6075
15.1929
15.1947
15.196
15.1968
15.1972
15.1974
15.1976
15.1977
15.1977
15.1978
15.1978
15.1979
15.1979
15.1979
15.1979
15.198
15.198
15.198
15.198
15.198
15.198
15.1981
15.1981
15.1981
15.1981
15.1981
15.1981
15.1981
15.1981
15.1981
15.1981
15.1981
15.1981
15.1981
15.1981
15.1981
15.1981
15.1981
15.1981
15.198
15.198
15.198
15.198
15.198
15.198
15.1979
15.1979
15.1979
15.1979
15.1978
15.1978
15.1977
15.1977
15.1976
15.1974
15.1972
15.1968
15.196
15.1947
15.1929
15.7304
15.732
15.7332
15.7339
15.7343
15.7345
15.7347
15.7347
15.7348
15.7348
15.7349
15.7349
15.7349
15.735
15.735
15.735
15.735
15.7351
15.7351
15.7351
15.7351
15.7351
15.7351
15.7351
15.7351
15.7352
15.7352
15.7352
15.7352
15.7352
15.7352
15.7352
15.7352
15.7352
15.7352
15.7351
15.7351
15.7351
15.7351
15.7351
15.7351
15.7351
15.7351
15.735
15.735
15.735
15.735
15.7349
15.7349
15.7349
15.7348
15.7348
15.7347
15.7347
15.7345
15.7343
15.7339
15.7332
15.732
15.7304
16.2096
16.2111
16.2121
16.2127
16.2131
16.2133
16.2134
16.2135
16.2136
16.2136
16.2136
16.2137
16.2137
16.2137
16.2137
16.2138
16.2138
16.2138
16.2138
16.2138
16.2138
16.2139
16.2139
16.2139
16.2139
16.2139
16.2139
16.2139
16.2139
16.2139
16.2139
16.2139
16.2139
16.2139
16.2139
16.2139
16.2139
16.2139
16.2139
16.2138
16.2138
16.2138
16.2138
16.2138
16.2138
16.2137
16.2137
16.2137
16.2137
16.2136
16.2136
16.2136
16.2135
16.2134
16.2133
16.2131
16.2127
16.2121
16.2111
16.2096
16.6213
16.6225
16.6234
16.6239
16.6242
16.6244
16.6245
16.6246
16.6246
16.6246
16.6247
16.6247
16.6247
16.6248
16.6248
16.6248
16.6248
16.6248
16.6249
16.6249
16.6249
16.6249
16.6249
16.6249
16.6249
16.625
16.625
16.625
16.625
16.625
16.625
16.625
16.625
16.625
16.625
16.6249
16.6249
16.6249
16.6249
16.6249
16.6249
16.6249
16.6248
16.6248
16.6248
16.6248
16.6248
16.6247
16.6247
16.6247
16.6246
16.6246
16.6246
16.6245
16.6244
16.6242
16.6239
16.6234
16.6225
16.6213
16.9601
16.961
16.9617
16.9621
16.9623
16.9625
16.9626
16.9626
16.9627
16.9627
16.9627
16.9628
16.9628
16.9628
16.9629
16.9629
16.9629
16.9629
16.9629
16.9629
16.963
16.963
16.963
16.963
16.963
16.963
16.963
16.963
16.963
16.963
16.963
16.963
16.963
16.963
16.963
16.963
16.963
16.963
16.963
16.963
16.9629
16.9629
16.9629
16.9629
16.9629
16.9629
16.9628
16.9628
16.9628
16.9627
16.9627
16.9627
16.9626
16.9626
16.9625
16.9623
16.9621
16.9617
16.961
16.9601
17.2278
17.2285
17.229
17.2293
17.2295
17.2296
17.2296
17.2297
17.2297
17.2298
17.2298
17.2298
17.2299
17.2299
17.2299
17.2299
17.2299
17.23
17.23
17.23
17.23
17.23
17.23
17.2301
17.2301
17.2301
17.2301
17.2301
17.2301
17.2301
17.2301
17.2301
17.2301
17.2301
17.2301
17.2301
17.2301
17.23
17.23
17.23
17.23
17.23
17.23
17.2299
17.2299
17.2299
17.2299
17.2299
17.2298
17.2298
17.2298
17.2297
17.2297
17.2296
17.2296
17.2295
17.2293
17.229
17.2285
17.2278
17.434
17.4344
17.4347
17.4349
17.435
17.4351
17.4352
17.4352
17.4353
17.4353
17.4353
17.4354
17.4354
17.4354
17.4354
17.4355
17.4355
17.4355
17.4355
17.4355
17.4356
17.4356
17.4356
17.4356
17.4356
17.4356
17.4356
17.4356
17.4356
17.4356
17.4356
17.4356
17.4356
17.4356
17.4356
17.4356
17.4356
17.4356
17.4356
17.4356
17.4355
17.4355
17.4355
17.4355
17.4355
17.4354
17.4354
17.4354
17.4354
17.4353
17.4353
17.4353
17.4352
17.4352
17.4351
17.435
17.4349
17.4347
17.4344
17.434
17.5921
17.5924
17.5926
17.5927
17.5928
17.5929
17.5929
17.593
17.593
17.593
17.5931
17.5931
17.5931
17.5932
17.5932
17.5932
17.5932
17.5933
17.5933
17.5933
17.5933
17.5933
17.5933
17.5933
17.5934
17.5934
17.5934
17.5934
17.5934
17.5934
17.5934
17.5934
17.5934
17.5934
17.5934
17.5934
17.5933
17.5933
17.5933
17.5933
17.5933
17.5933
17.5933
17.5932
17.5932
17.5932
17.5932
17.5931
17.5931
17.5931
17.593
17.593
17.593
17.5929
17.5929
17.5928
17.5927
17.5926
17.5924
17.5921
17.7159
17.716
17.7161
17.7162
17.7163
17.7163
17.7164
17.7164
17.7164
17.7165
17.7165
17.7165
17.7166
17.7166
17.7166
17.7166
17.7167
17.7167
17.7167
17.7167
17.7168
17.7168
17.7168
17.7168
17.7168
17.7168
17.7168
17.7168
17.7168
17.7168
17.7168
17.7168
17.7168
17.7168
17.7168
17.7168
17.7168
17.7168
17.7168
17.7168
17.7167
17.7167
17.7167
17.7167
17.7166
17.7166
17.7166
17.7166
17.7165
17.7165
17.7165
17.7164
17.7164
17.7164
17.7163
17.7163
17.7162
17.7161
17.716
17.7159
17.8158
17.8159
17.816
17.816
17.8161
17.8161
17.8162
17.8162
17.8162
17.8163
17.8163
17.8163
17.8164
17.8164
17.8164
17.8164
17.8165
17.8165
17.8165
17.8165
17.8166
17.8166
17.8166
17.8166
17.8166
17.8166
17.8166
17.8166
17.8166
17.8166
17.8166
17.8166
17.8166
17.8166
17.8166
17.8166
17.8166
17.8166
17.8166
17.8166
17.8165
17.8165
17.8165
17.8165
17.8164
17.8164
17.8164
17.8164
17.8163
17.8163
17.8163
17.8162
17.8162
17.8162
17.8161
17.8161
17.816
17.816
17.8159
17.8158
17.8994
17.8994
17.8995
17.8995
17.8996
17.8996
17.8996
17.8997
17.8997
17.8997
17.8998
17.8998
17.8998
17.8999
17.8999
17.8999
17.8999
17.9
17.9
17.9
17.9
17.9001
17.9001
17.9001
17.9001
17.9001
17.9001
17.9001
17.9001
17.9001
17.9001
17.9001
17.9001
17.9001
17.9001
17.9001
17.9001
17.9001
17.9001
17.9
17.9
17.9
17.9
17.8999
17.8999
17.8999
17.8999
17.8998
17.8998
17.8998
17.8997
17.8997
17.8997
17.8996
17.8996
17.8996
17.8995
17.8995
17.8994
17.8994
17.9714
17.9713
17.9713
17.9714
17.9714
17.9714
17.9715
17.9715
17.9715
17.9716
17.9716
17.9716
17.9717
17.9717
17.9717
17.9718
17.9718
17.9718
17.9719
17.9719
17.9719
17.9719
17.9719
17.9719
17.972
17.972
17.972
17.972
17.972
17.972
17.972
17.972
17.972
17.972
17.972
17.972
17.9719
17.9719
17.9719
17.9719
17.9719
17.9719
17.9718
17.9718
17.9718
17.9717
17.9717
17.9717
17.9716
17.9716
17.9716
17.9715
17.9715
17.9715
17.9714
17.9714
17.9714
17.9713
17.9713
17.9714
18.0346
18.0346
18.0346
18.0346
18.0346
18.0347
18.0347
18.0347
18.0348
18.0348
18.0348
18.0349
18.0349
18.0349
18.035
18.035
18.035
18.0351
18.0351
18.0351
18.0351
18.0352
18.0352
18.0352
18.0352
18.0352
18.0352
18.0352
18.0352
18.0352
18.0352
18.0352
18.0352
18.0352
18.0352
18.0352
18.0352
18.0352
18.0352
18.0351
18.0351
18.0351
18.0351
18.035
18.035
18.035
18.0349
18.0349
18.0349
18.0348
18.0348
18.0348
18.0347
18.0347
18.0347
18.0346
18.0346
18.0346
18.0346
18.0346
18.0912
18.0912
18.0912
18.0912
18.0912
18.0912
18.0912
18.0913
18.0913
18.0913
18.0914
18.0914
18.0915
18.0915
18.0915
18.0916
18.0916
18.0916
18.0917
18.0917
18.0917
18.0917
18.0918
18.0918
18.0918
18.0918
18.0918
18.0918
18.0918
18.0918
18.0918
18.0918
18.0918
18.0918
18.0918
18.0918
18.0918
18.0918
18.0917
18.0917
18.0917
18.0917
18.0916
18.0916
18.0916
18.0915
18.0915
18.0915
18.0914
18.0914
18.0913
18.0913
18.0913
18.0912
18.0912
18.0912
18.0912
18.0912
18.0912
18.0912
18.1425
18.1424
18.1424
18.1424
18.1424
18.1424
18.1425
18.1425
18.1425
18.1426
18.1426
18.1427
18.1427
18.1427
18.1428
18.1428
18.1429
18.1429
18.1429
18.1429
18.143
18.143
18.143
18.143
18.1431
18.1431
18.1431
18.1431
18.1431
18.1431
18.1431
18.1431
18.1431
18.1431
18.1431
18.1431
18.143
18.143
18.143
18.143
18.1429
18.1429
18.1429
18.1429
18.1428
18.1428
18.1427
18.1427
18.1427
18.1426
18.1426
18.1425
18.1425
18.1425
18.1424
18.1424
18.1424
18.1424
18.1424
18.1425
18.1894
18.1893
18.1893
18.1893
18.1893
18.1893
18.1893
18.1894
18.1894
18.1894
18.1895
18.1895
18.1896
18.1896
18.1897
18.1897
18.1897
18.1898
18.1898
18.1898
18.1899
18.1899
18.1899
18.1899
18.1899
18.19
18.19
18.19
18.19
18.19
18.19
18.19
18.19
18.19
18.19
18.1899
18.1899
18.1899
18.1899
18.1899
18.1898
18.1898
18.1898
18.1897
18.1897
18.1897
18.1896
18.1896
18.1895
18.1895
18.1894
18.1894
18.1894
18.1893
18.1893
18.1893
18.1893
18.1893
18.1893
18.1894
18.2326
18.2325
18.2325
18.2325
18.2325
18.2325
18.2325
18.2326
18.2326
18.2326
18.2327
18.2327
18.2328
18.2328
18.2329
18.2329
18.233
18.233
18.233
18.2331
18.2331
18.2331
18.2331
18.2332
18.2332
18.2332
18.2332
18.2332
18.2332
18.2332
18.2332
18.2332
18.2332
18.2332
18.2332
18.2332
18.2332
18.2331
18.2331
18.2331
18.2331
18.233
18.233
18.233
18.2329
18.2329
18.2328
18.2328
18.2327
18.2327
18.2326
18.2326
18.2326
18.2325
18.2325
18.2325
18.2325
18.2325
18.2325
18.2326
18.2727
18.2726
18.2726
18.2726
18.2726
18.2726
18.2726
18.2727
18.2727
18.2727
18.2728
18.2728
18.2729
18.2729
18.273
18.273
18.2731
18.2731
18.2732
18.2732
18.2732
18.2732
18.2733
18.2733
18.2733
18.2733
18.2733
18.2733
18.2734
18.2734
18.2734
18.2734
18.2733
18.2733
18.2733
18.2733
18.2733
18.2733
18.2732
18.2732
18.2732
18.2732
18.2731
18.2731
18.273
18.273
18.2729
18.2729
18.2728
18.2728
18.2727
18.2727
18.2727
18.2726
18.2726
18.2726
18.2726
18.2726
18.2726
18.2727
18.3101
18.3101
18.31
18.31
18.31
18.31
18.31
18.3101
18.3101
18.3102
18.3102
18.3103
18.3103
18.3104
18.3104
18.3105
18.3105
18.3106
18.3106
18.3106
18.3107
18.3107
18.3107
18.3108
18.3108
18.3108
18.3108
18.3108
18.3108
18.3108
18.3108
18.3108
18.3108
18.3108
18.3108
18.3108
18.3108
18.3107
18.3107
18.3107
18.3106
18.3106
18.3106
18.3105
18.3105
18.3104
18.3104
18.3103
18.3103
18.3102
18.3102
18.3101
18.3101
18.31
18.31
18.31
18.31
18.31
18.3101
18.3101
18.3452
18.3452
18.3451
18.3451
18.3451
18.3451
18.3451
18.3452
18.3452
18.3453
18.3453
18.3454
18.3454
18.3455
18.3455
18.3456
18.3456
18.3457
18.3457
18.3458
18.3458
18.3458
18.3459
18.3459
18.3459
18.3459
18.3459
18.3459
18.3459
18.3459
18.3459
18.3459
18.3459
18.3459
18.3459
18.3459
18.3459
18.3459
18.3458
18.3458
18.3458
18.3457
18.3457
18.3456
18.3456
18.3455
18.3455
18.3454
18.3454
18.3453
18.3453
18.3452
18.3452
18.3451
18.3451
18.3451
18.3451
18.3451
18.3452
18.3452
18.3783
18.3782
18.3781
18.3781
18.3781
18.3781
18.3782
18.3782
18.3782
18.3783
18.3784
18.3784
18.3785
18.3785
18.3786
18.3786
18.3787
18.3787
18.3788
18.3788
18.3789
18.3789
18.3789
18.3789
18.379
18.379
18.379
18.379
18.379
18.379
18.379
18.379
18.379
18.379
18.379
18.379
18.3789
18.3789
18.3789
18.3789
18.3788
18.3788
18.3787
18.3787
18.3786
18.3786
18.3785
18.3785
18.3784
18.3784
18.3783
18.3782
18.3782
18.3782
18.3781
18.3781
18.3781
18.3781
18.3782
18.3783
18.4095
18.4094
18.4093
18.4093
18.4093
18.4093
18.4094
18.4094
18.4095
18.4095
18.4096
18.4096
18.4097
18.4098
18.4098
18.4099
18.4099
18.41
18.41
18.4101
18.4101
18.4101
18.4102
18.4102
18.4102
18.4102
18.4103
18.4103
18.4103
18.4103
18.4103
18.4103
18.4103
18.4103
18.4102
18.4102
18.4102
18.4102
18.4101
18.4101
18.4101
18.41
18.41
18.4099
18.4099
18.4098
18.4098
18.4097
18.4096
18.4096
18.4095
18.4095
18.4094
18.4094
18.4093
18.4093
18.4093
18.4093
18.4094
18.4095
18.4391
18.439
18.4389
18.4389
18.4389
18.4389
18.4389
18.439
18.439
18.4391
18.4392
18.4392
18.4393
18.4394
18.4394
18.4395
18.4395
18.4396
18.4396
18.4397
18.4397
18.4398
18.4398
18.4398
18.4398
18.4399
18.4399
18.4399
18.4399
18.4399
18.4399
18.4399
18.4399
18.4399
18.4399
18.4398
18.4398
18.4398
18.4398
18.4397
18.4397
18.4396
18.4396
18.4395
18.4395
18.4394
18.4394
18.4393
18.4392
18.4392
18.4391
18.439
18.439
18.4389
18.4389
18.4389
18.4389
18.4389
18.439
18.4391
18.4672
18.4671
18.467
18.467
18.467
18.467
18.467
18.4671
18.4672
18.4672
18.4673
18.4673
18.4674
18.4675
18.4675
18.4676
18.4677
18.4677
18.4678
18.4678
18.4679
18.4679
18.4679
18.468
18.468
18.468
18.468
18.4681
18.4681
18.4681
18.4681
18.4681
18.4681
18.468
18.468
18.468
18.468
18.4679
18.4679
18.4679
18.4678
18.4678
18.4677
18.4677
18.4676
18.4675
18.4675
18.4674
18.4673
18.4673
18.4672
18.4672
18.4671
18.467
18.467
18.467
18.467
18.467
18.4671
18.4672
18.4939
18.4939
18.4938
18.4938
18.4938
18.4938
18.4938
18.4939
18.4939
18.494
18.4941
18.4941
18.4942
18.4943
18.4943
18.4944
18.4945
18.4945
18.4946
18.4946
18.4947
18.4947
18.4948
18.4948
18.4948
18.4948
18.4949
18.4949
18.4949
18.4949
18.4949
18.4949
18.4949
18.4949
18.4948
18.4948
18.4948
18.4948
18.4947
18.4947
18.4946
18.4946
18.4945
18.4945
18.4944
18.4943
18.4943
18.4942
18.4941
18.4941
18.494
18.4939
18.4939
18.4938
18.4938
18.4938
18.4938
18.4938
18.4939
18.4939
18.5195
18.5194
18.5193
18.5193
18.5193
18.5193
18.5194
18.5194
18.5195
18.5196
18.5196
18.5197
18.5198
18.5199
18.5199
18.52
18.5201
18.5201
18.5202
18.5202
18.5203
18.5203
18.5204
18.5204
18.5204
18.5204
18.5205
18.5205
18.5205
18.5205
18.5205
18.5205
18.5205
18.5205
18.5204
18.5204
18.5204
18.5204
18.5203
18.5203
18.5202
18.5202
18.5201
18.5201
18.52
18.5199
18.5199
18.5198
18.5197
18.5196
18.5196
18.5195
18.5194
18.5194
18.5193
18.5193
18.5193
18.5193
18.5194
18.5195
18.5439
18.5438
18.5438
18.5437
18.5437
18.5438
18.5438
18.5439
18.5439
18.544
18.5441
18.5442
18.5442
18.5443
18.5444
18.5445
18.5445
18.5446
18.5447
18.5447
18.5448
18.5448
18.5448
18.5449
18.5449
18.5449
18.545
18.545
18.545
18.545
18.545
18.545
18.545
18.545
18.5449
18.5449
18.5449
18.5448
18.5448
18.5448
18.5447
18.5447
18.5446
18.5445
18.5445
18.5444
18.5443
18.5442
18.5442
18.5441
18.544
18.5439
18.5439
18.5438
18.5438
18.5437
18.5437
18.5438
18.5438
18.5439
18.5673
18.5672
18.5672
18.5671
18.5671
18.5672
18.5672
18.5673
18.5673
18.5674
18.5675
18.5676
18.5677
18.5677
18.5678
18.5679
18.568
18.568
18.5681
18.5682
18.5682
18.5683
18.5683
18.5683
18.5684
18.5684
18.5684
18.5684
18.5684
18.5684
18.5684
18.5684
18.5684
18.5684
18.5684
18.5684
18.5683
18.5683
18.5683
18.5682
18.5682
18.5681
18.568
18.568
18.5679
18.5678
18.5677
18.5677
18.5676
18.5675
18.5674
18.5673
18.5673
18.5672
18.5672
18.5671
18.5671
18.5672
18.5672
18.5673
18.5898
18.5897
18.5896
18.5896
18.5896
18.5896
18.5897
18.5897
18.5898
18.5899
18.59
18.59
18.5901
18.5902
18.5903
18.5904
18.5904
18.5905
18.5906
18.5907
18.5907
18.5908
18.5908
18.5908
18.5909
18.5909
18.5909
18.5909
18.591
18.591
18.591
18.591
18.5909
18.5909
18.5909
18.5909
18.5908
18.5908
18.5908
18.5907
18.5907
18.5906
18.5905
18.5904
18.5904
18.5903
18.5902
18.5901
18.59
18.59
18.5899
18.5898
18.5897
18.5897
18.5896
18.5896
18.5896
18.5896
18.5897
18.5898
18.6113
18.6112
18.6112
18.6111
18.6111
18.6112
18.6112
18.6113
18.6114
18.6114
18.6115
18.6116
18.6117
18.6118
18.6119
18.612
18.612
18.6121
18.6122
18.6123
18.6123
18.6124
18.6124
18.6125
18.6125
18.6125
18.6125
18.6126
18.6126
18.6126
18.6126
18.6126
18.6126
18.6125
18.6125
18.6125
18.6125
18.6124
18.6124
18.6123
18.6123
18.6122
18.6121
18.612
18.612
18.6119
18.6118
18.6117
18.6116
18.6115
18.6114
18.6114
18.6113
18.6112
18.6112
18.6111
18.6111
18.6112
18.6112
18.6113
18.632
18.6319
18.6319
18.6319
18.6319
18.6319
18.6319
18.632
18.6321
18.6322
18.6322
18.6323
18.6324
18.6325
18.6326
18.6327
18.6328
18.6329
18.6329
18.633
18.6331
18.6331
18.6332
18.6332
18.6333
18.6333
18.6333
18.6333
18.6333
18.6334
18.6334
18.6333
18.6333
18.6333
18.6333
18.6333
18.6332
18.6332
18.6331
18.6331
18.633
18.6329
18.6329
18.6328
18.6327
18.6326
18.6325
18.6324
18.6323
18.6322
18.6322
18.6321
18.632
18.6319
18.6319
18.6319
18.6319
18.6319
18.6319
18.632
18.6519
18.6519
18.6518
18.6518
18.6518
18.6518
18.6519
18.6519
18.652
18.6521
18.6522
18.6523
18.6524
18.6525
18.6526
18.6527
18.6528
18.6528
18.6529
18.653
18.6531
18.6531
18.6532
18.6532
18.6533
18.6533
18.6533
18.6533
18.6533
18.6533
18.6533
18.6533
18.6533
18.6533
18.6533
18.6533
18.6532
18.6532
18.6531
18.6531
18.653
18.6529
18.6528
18.6528
18.6527
18.6526
18.6525
18.6524
18.6523
18.6522
18.6521
18.652
18.6519
18.6519
18.6518
18.6518
18.6518
18.6518
18.6519
18.6519
18.6711
18.671
18.671
18.671
18.671
18.671
18.671
18.6711
18.6712
18.6713
18.6714
18.6715
18.6716
18.6717
18.6718
18.6719
18.672
18.6721
18.6722
18.6722
18.6723
18.6724
18.6724
18.6725
18.6725
18.6725
18.6726
18.6726
18.6726
18.6726
18.6726
18.6726
18.6726
18.6726
18.6725
18.6725
18.6725
18.6724
18.6724
18.6723
18.6722
18.6722
18.6721
18.672
18.6719
18.6718
18.6717
18.6716
18.6715
18.6714
18.6713
18.6712
18.6711
18.671
18.671
18.671
18.671
18.671
18.671
18.6711
18.6896
18.6895
18.6895
18.6894
18.6894
18.6895
18.6895
18.6896
18.6897
18.6898
18.6899
18.69
18.6901
18.6902
18.6903
18.6904
18.6905
18.6906
18.6907
18.6908
18.6908
18.6909
18.691
18.691
18.691
18.6911
18.6911
18.6911
18.6911
18.6911
18.6911
18.6911
18.6911
18.6911
18.6911
18.691
18.691
18.691
18.6909
18.6908
18.6908
18.6907
18.6906
18.6905
18.6904
18.6903
18.6902
18.6901
18.69
18.6899
18.6898
18.6897
18.6896
18.6895
18.6895
18.6894
18.6894
18.6895
18.6895
18.6896
18.7074
18.7073
18.7072
18.7072
18.7072
18.7073
18.7073
18.7074
18.7075
18.7076
18.7077
18.7078
18.7079
18.708
18.7081
18.7083
18.7084
18.7084
18.7085
18.7086
18.7087
18.7088
18.7088
18.7089
18.7089
18.7089
18.709
18.709
18.709
18.709
18.709
18.709
18.709
18.709
18.7089
18.7089
18.7089
18.7088
18.7088
18.7087
18.7086
18.7085
18.7084
18.7084
18.7083
18.7081
18.708
18.7079
18.7078
18.7077
18.7076
18.7075
18.7074
18.7073
18.7073
18.7072
18.7072
18.7072
18.7073
18.7074
18.7245
18.7244
18.7244
18.7244
18.7244
18.7244
18.7245
18.7245
18.7246
18.7248
18.7249
18.725
18.7251
18.7252
18.7253
18.7254
18.7256
18.7256
18.7257
18.7258
18.7259
18.726
18.726
18.7261
18.7261
18.7262
18.7262
18.7262
18.7262
18.7262
18.7262
18.7262
18.7262
18.7262
18.7262
18.7261
18.7261
18.726
18.726
18.7259
18.7258
18.7257
18.7256
18.7256
18.7254
18.7253
18.7252
18.7251
18.725
18.7249
18.7248
18.7246
18.7245
18.7245
18.7244
18.7244
18.7244
18.7244
18.7244
18.7245
18.741
18.7409
18.7409
18.7409
18.7409
18.7409
18.741
18.7411
18.7412
18.7413
18.7414
18.7415
18.7417
18.7418
18.7419
18.742
18.7421
18.7422
18.7423
18.7424
18.7425
18.7426
18.7426
18.7427
18.7427
18.7428
18.7428
18.7428
18.7428
18.7428
18.7428
18.7428
18.7428
18.7428
18.7428
18.7427
18.7427
18.7426
18.7426
18.7425
18.7424
18.7423
18.7422
18.7421
18.742
18.7419
18.7418
18.7417
18.7415
18.7414
18.7413
18.7412
18.7411
18.741
18.7409
18.7409
18.7409
18.7409
18.7409
18.741
18.7569
18.7569
18.7568
18.7568
18.7568
18.7568
18.7569
18.757
18.7571
18.7572
18.7573
18.7575
18.7576
18.7577
18.7579
18.758
18.7581
18.7582
18.7583
18.7584
18.7585
18.7585
18.7586
18.7587
18.7587
18.7588
18.7588
18.7588
18.7588
18.7588
18.7588
18.7588
18.7588
18.7588
18.7588
18.7587
18.7587
18.7586
18.7585
18.7585
18.7584
18.7583
18.7582
18.7581
18.758
18.7579
18.7577
18.7576
18.7575
18.7573
18.7572
18.7571
18.757
18.7569
18.7568
18.7568
18.7568
18.7568
18.7569
18.7569
18.7722
18.7722
18.7721
18.7721
18.7721
18.7722
18.7722
18.7723
18.7724
18.7726
18.7727
18.7728
18.773
18.7731
18.7732
18.7733
18.7735
18.7736
18.7737
18.7738
18.7739
18.7739
18.774
18.7741
18.7741
18.7742
18.7742
18.7742
18.7743
18.7743
18.7743
18.7743
18.7742
18.7742
18.7742
18.7741
18.7741
18.774
18.7739
18.7739
18.7738
18.7737
18.7736
18.7735
18.7733
18.7732
18.7731
18.773
18.7728
18.7727
18.7726
18.7724
18.7723
18.7722
18.7722
18.7721
18.7721
18.7721
18.7722
18.7722
18.787
18.7869
18.7868
18.7868
18.7868
18.7869
18.787
18.7871
18.7872
18.7873
18.7874
18.7876
18.7877
18.7879
18.788
18.7881
18.7883
18.7884
18.7885
18.7886
18.7887
18.7888
18.7888
18.7889
18.789
18.789
18.789
18.7891
18.7891
18.7891
18.7891
18.7891
18.7891
18.789
18.789
18.789
18.7889
18.7888
18.7888
18.7887
18.7886
18.7885
18.7884
18.7883
18.7881
18.788
18.7879
18.7877
18.7876
18.7874
18.7873
18.7872
18.7871
18.787
18.7869
18.7868
18.7868
18.7868
18.7869
18.787
18.8011
18.8011
18.801
18.801
18.801
18.8011
18.8011
18.8013
18.8014
18.8015
18.8016
18.8018
18.8019
18.8021
18.8022
18.8024
18.8025
18.8026
18.8027
18.8028
18.8029
18.803
18.8031
18.8032
18.8032
18.8033
18.8033
18.8033
18.8034
18.8034
18.8034
18.8034
18.8033
18.8033