/*--------------------------------*- C++ -*----------------------------------*\
| =========                 |                                                 |
| \\      /  F ield         | foam-extend: Open Source CFD                    |
|  \\    /   O peration     | Version:     4.0                                |
|   \\  /    A nd           | Web:         http://www.foam-extend.org         |
|    \\/     M anipulation  |                                                 |
\*---------------------------------------------------------------------------*/
FoamFile
{
    version     2.0;
    format      ascii;
    class       volScalarField;
    location    "580";
    object      psiE;
}
// * * * * * * * * * * * * * * * * * * * * * * * * * * * * * * * * * * * * * //

dimensions      [0 0 0 0 0 0 0];

internalField   nonuniform List<scalar> 
6960
(
0.328639
0.328642
0.328646
0.32865
0.328654
0.328657
0.328661
0.328664
0.328667
0.32867
0.328672
0.328674
0.328677
0.328679
0.32868
0.328682
0.328684
0.328685
0.328686
0.328687
0.328688
0.328689
0.32869
0.32869
0.328691
0.328691
0.328692
0.328692
0.328692
0.328692
0.328692
0.328692
0.328692
0.328692
0.328691
0.328691
0.32869
0.32869
0.328689
0.328688
0.328687
0.328686
0.328685
0.328684
0.328682
0.32868
0.328679
0.328677
0.328674
0.328672
0.32867
0.328667
0.328664
0.328661
0.328657
0.328654
0.32865
0.328646
0.328642
0.328639
0.812134
0.812145
0.812161
0.812176
0.812192
0.812207
0.81222
0.812233
0.812245
0.812256
0.812267
0.812276
0.812285
0.812292
0.8123
0.812306
0.812312
0.812317
0.812322
0.812327
0.81233
0.812334
0.812336
0.812339
0.812341
0.812343
0.812344
0.812345
0.812346
0.812346
0.812346
0.812346
0.812345
0.812344
0.812343
0.812341
0.812339
0.812336
0.812334
0.81233
0.812327
0.812322
0.812317
0.812312
0.812306
0.8123
0.812292
0.812285
0.812276
0.812267
0.812256
0.812245
0.812233
0.81222
0.812207
0.812192
0.812176
0.812161
0.812145
0.812134
1.24231
1.24233
1.24236
1.2424
1.24243
1.24246
1.24248
1.24251
1.24253
1.24255
1.24257
1.24259
1.24261
1.24263
1.24264
1.24265
1.24266
1.24268
1.24268
1.24269
1.2427
1.24271
1.24271
1.24272
1.24272
1.24272
1.24273
1.24273
1.24273
1.24273
1.24273
1.24273
1.24273
1.24273
1.24272
1.24272
1.24272
1.24271
1.24271
1.2427
1.24269
1.24268
1.24268
1.24266
1.24265
1.24264
1.24263
1.24261
1.24259
1.24257
1.24255
1.24253
1.24251
1.24248
1.24246
1.24243
1.2424
1.24236
1.24233
1.24231
1.65576
1.6558
1.65585
1.6559
1.65594
1.65599
1.65603
1.65608
1.65611
1.65615
1.65618
1.65621
1.65624
1.65626
1.65628
1.6563
1.65632
1.65634
1.65635
1.65637
1.65638
1.65639
1.6564
1.6564
1.65641
1.65642
1.65642
1.65642
1.65642
1.65643
1.65643
1.65642
1.65642
1.65642
1.65642
1.65641
1.6564
1.6564
1.65639
1.65638
1.65637
1.65635
1.65634
1.65632
1.6563
1.65628
1.65626
1.65624
1.65621
1.65618
1.65615
1.65611
1.65608
1.65603
1.65599
1.65594
1.6559
1.65585
1.6558
1.65576
2.0672
2.06725
2.06732
2.06739
2.06746
2.06752
2.06759
2.06764
2.0677
2.06774
2.06779
2.06783
2.06787
2.0679
2.06793
2.06796
2.06799
2.06801
2.06803
2.06805
2.06807
2.06808
2.06809
2.0681
2.06811
2.06812
2.06813
2.06813
2.06813
2.06813
2.06813
2.06813
2.06813
2.06813
2.06812
2.06811
2.0681
2.06809
2.06808
2.06807
2.06805
2.06803
2.06801
2.06799
2.06796
2.06793
2.0679
2.06787
2.06783
2.06779
2.06774
2.0677
2.06764
2.06759
2.06752
2.06746
2.06739
2.06732
2.06725
2.0672
2.48299
2.48306
2.48314
2.48323
2.48332
2.48341
2.48349
2.48356
2.48363
2.4837
2.48376
2.48381
2.48386
2.4839
2.48395
2.48398
2.48402
2.48405
2.48407
2.4841
2.48412
2.48414
2.48415
2.48417
2.48418
2.48419
2.48419
2.4842
2.4842
2.48421
2.48421
2.4842
2.4842
2.48419
2.48419
2.48418
2.48417
2.48415
2.48414
2.48412
2.4841
2.48407
2.48405
2.48402
2.48398
2.48395
2.4839
2.48386
2.48381
2.48376
2.4837
2.48363
2.48356
2.48349
2.48341
2.48332
2.48323
2.48314
2.48306
2.48299
2.90593
2.90602
2.90612
2.90624
2.90635
2.90646
2.90656
2.90665
2.90673
2.90681
2.90689
2.90695
2.90701
2.90707
2.90712
2.90717
2.90721
2.90725
2.90728
2.90731
2.90734
2.90736
2.90738
2.9074
2.90741
2.90742
2.90743
2.90744
2.90744
2.90744
2.90744
2.90744
2.90744
2.90743
2.90742
2.90741
2.9074
2.90738
2.90736
2.90734
2.90731
2.90728
2.90725
2.90721
2.90717
2.90712
2.90707
2.90701
2.90695
2.90689
2.90681
2.90673
2.90665
2.90656
2.90646
2.90635
2.90624
2.90612
2.90602
2.90593
3.33728
3.33738
3.33751
3.33765
3.33778
3.33791
3.33803
3.33814
3.33824
3.33834
3.33843
3.33851
3.33858
3.33865
3.33871
3.33876
3.33881
3.33886
3.3389
3.33893
3.33896
3.33899
3.33902
3.33904
3.33905
3.33907
3.33908
3.33909
3.33909
3.33909
3.33909
3.33909
3.33909
3.33908
3.33907
3.33905
3.33904
3.33902
3.33899
3.33896
3.33893
3.3389
3.33886
3.33881
3.33876
3.33871
3.33865
3.33858
3.33851
3.33843
3.33834
3.33824
3.33814
3.33803
3.33791
3.33778
3.33765
3.33751
3.33738
3.33728
3.77759
3.7777
3.77786
3.77802
3.77817
3.77832
3.77846
3.77859
3.77871
3.77882
3.77893
3.77902
3.77911
3.77918
3.77926
3.77932
3.77938
3.77943
3.77948
3.77952
3.77956
3.77959
3.77962
3.77964
3.77966
3.77968
3.77969
3.7797
3.7797
3.77971
3.77971
3.7797
3.7797
3.77969
3.77968
3.77966
3.77964
3.77962
3.77959
3.77956
3.77952
3.77948
3.77943
3.77938
3.77932
3.77926
3.77918
3.77911
3.77902
3.77893
3.77882
3.77871
3.77859
3.77846
3.77832
3.77817
3.77802
3.77786
3.7777
3.77759
4.22709
4.22722
4.2274
4.22758
4.22776
4.22793
4.22809
4.22824
4.22838
4.22851
4.22863
4.22873
4.22883
4.22892
4.229
4.22908
4.22915
4.22921
4.22926
4.22931
4.22935
4.22938
4.22942
4.22944
4.22947
4.22949
4.2295
4.22951
4.22952
4.22952
4.22952
4.22952
4.22951
4.2295
4.22949
4.22947
4.22944
4.22942
4.22938
4.22935
4.22931
4.22926
4.22921
4.22915
4.22908
4.229
4.22892
4.22883
4.22873
4.22863
4.22851
4.22838
4.22824
4.22809
4.22793
4.22776
4.22758
4.2274
4.22722
4.22709
4.68589
4.68604
4.68624
4.68645
4.68665
4.68684
4.68702
4.68719
4.68735
4.68749
4.68762
4.68775
4.68786
4.68796
4.68805
4.68813
4.68821
4.68828
4.68834
4.68839
4.68844
4.68848
4.68852
4.68855
4.68857
4.68859
4.68861
4.68862
4.68863
4.68864
4.68864
4.68863
4.68862
4.68861
4.68859
4.68857
4.68855
4.68852
4.68848
4.68844
4.68839
4.68834
4.68828
4.68821
4.68813
4.68805
4.68796
4.68786
4.68775
4.68762
4.68749
4.68735
4.68719
4.68702
4.68684
4.68665
4.68645
4.68624
4.68604
4.68589
5.15401
5.15418
5.1544
5.15463
5.15486
5.15507
5.15527
5.15546
5.15564
5.1558
5.15595
5.15608
5.15621
5.15632
5.15642
5.15651
5.1566
5.15667
5.15674
5.1568
5.15685
5.1569
5.15694
5.15697
5.157
5.15703
5.15705
5.15706
5.15707
5.15707
5.15707
5.15707
5.15706
5.15705
5.15703
5.157
5.15697
5.15694
5.1569
5.15685
5.1568
5.15674
5.15667
5.1566
5.15651
5.15642
5.15632
5.15621
5.15608
5.15595
5.1558
5.15564
5.15546
5.15527
5.15507
5.15486
5.15463
5.1544
5.15418
5.15401
5.63143
5.63162
5.63187
5.63212
5.63237
5.63261
5.63283
5.63304
5.63323
5.63341
5.63357
5.63372
5.63386
5.63398
5.6341
5.6342
5.63429
5.63438
5.63445
5.63452
5.63457
5.63463
5.63467
5.63471
5.63474
5.63477
5.63479
5.6348
5.63481
5.63482
5.63482
5.63481
5.6348
5.63479
5.63477
5.63474
5.63471
5.63467
5.63463
5.63457
5.63452
5.63445
5.63438
5.63429
5.6342
5.6341
5.63398
5.63386
5.63372
5.63357
5.63341
5.63323
5.63304
5.63283
5.63261
5.63237
5.63212
5.63187
5.63162
5.63143
6.11811
6.11831
6.11858
6.11886
6.11913
6.11939
6.11964
6.11986
6.12008
6.12027
6.12045
6.12061
6.12076
6.1209
6.12102
6.12114
6.12124
6.12133
6.12141
6.12148
6.12155
6.1216
6.12165
6.12169
6.12173
6.12176
6.12178
6.1218
6.12181
6.12181
6.12181
6.12181
6.1218
6.12178
6.12176
6.12173
6.12169
6.12165
6.1216
6.12155
6.12148
6.12141
6.12133
6.12124
6.12114
6.12102
6.1209
6.12076
6.12061
6.12045
6.12027
6.12008
6.11986
6.11964
6.11939
6.11913
6.11886
6.11858
6.11831
6.11811
6.61396
6.61418
6.61447
6.61477
6.61507
6.61535
6.61561
6.61586
6.61609
6.6163
6.6165
6.61667
6.61684
6.61699
6.61712
6.61724
6.61735
6.61745
6.61754
6.61762
6.61769
6.61775
6.6178
6.61785
6.61789
6.61792
6.61794
6.61796
6.61797
6.61798
6.61798
6.61797
6.61796
6.61794
6.61792
6.61789
6.61785
6.6178
6.61775
6.61769
6.61762
6.61754
6.61745
6.61735
6.61724
6.61712
6.61699
6.61684
6.61667
6.6165
6.6163
6.61609
6.61586
6.61561
6.61535
6.61507
6.61477
6.61447
6.61418
6.61396
7.11885
7.11909
7.1194
7.11973
7.12005
7.12036
7.12064
7.12091
7.12116
7.12139
7.1216
7.12179
7.12196
7.12213
7.12227
7.1224
7.12252
7.12263
7.12273
7.12281
7.12289
7.12295
7.12301
7.12306
7.1231
7.12313
7.12316
7.12318
7.12319
7.1232
7.1232
7.12319
7.12318
7.12316
7.12313
7.1231
7.12306
7.12301
7.12295
7.12289
7.12281
7.12273
7.12263
7.12252
7.1224
7.12227
7.12213
7.12196
7.12179
7.1216
7.12139
7.12116
7.12091
7.12064
7.12036
7.12005
7.11973
7.1194
7.11909
7.11885
7.63265
7.63291
7.63324
7.6336
7.63394
7.63427
7.63457
7.63486
7.63513
7.63537
7.6356
7.6358
7.63599
7.63617
7.63632
7.63646
7.63659
7.63671
7.63681
7.6369
7.63698
7.63705
7.63711
7.63717
7.63721
7.63725
7.63727
7.6373
7.63731
7.63732
7.63732
7.63731
7.6373
7.63727
7.63725
7.63721
7.63717
7.63711
7.63705
7.63698
7.6369
7.63681
7.63671
7.63659
7.63646
7.63632
7.63617
7.63599
7.6358
7.6356
7.63537
7.63513
7.63486
7.63457
7.63427
7.63394
7.6336
7.63324
7.63291
7.63265
8.15516
8.15544
8.15579
8.15617
8.15654
8.15689
8.15722
8.15752
8.1578
8.15807
8.15831
8.15853
8.15873
8.15892
8.15908
8.15923
8.15937
8.15949
8.1596
8.1597
8.15979
8.15986
8.15993
8.15998
8.16003
8.16007
8.1601
8.16012
8.16014
8.16015
8.16015
8.16014
8.16012
8.1601
8.16007
8.16003
8.15998
8.15993
8.15986
8.15979
8.1597
8.1596
8.15949
8.15937
8.15923
8.15908
8.15892
8.15873
8.15853
8.15831
8.15807
8.1578
8.15752
8.15722
8.15689
8.15654
8.15617
8.15579
8.15544
8.15516
8.68615
8.68644
8.68682
8.68722
8.68761
8.68798
8.68833
8.68866
8.68896
8.68924
8.68949
8.68973
8.68994
8.69014
8.69032
8.69048
8.69062
8.69075
8.69087
8.69098
8.69107
8.69115
8.69122
8.69128
8.69133
8.69137
8.6914
8.69142
8.69144
8.69145
8.69145
8.69144
8.69142
8.6914
8.69137
8.69133
8.69128
8.69122
8.69115
8.69107
8.69098
8.69087
8.69075
8.69062
8.69048
8.69032
8.69014
8.68994
8.68973
8.68949
8.68924
8.68896
8.68866
8.68833
8.68798
8.68761
8.68722
8.68682
8.68644
8.68615
9.22532
9.22563
9.22603
9.22646
9.22687
9.22726
9.22763
9.22798
9.2283
9.22859
9.22886
9.22911
9.22934
9.22955
9.22974
9.22991
9.23006
9.2302
9.23033
9.23044
9.23053
9.23062
9.23069
9.23076
9.23081
9.23085
9.23089
9.23091
9.23093
9.23094
9.23094
9.23093
9.23091
9.23089
9.23085
9.23081
9.23076
9.23069
9.23062
9.23053
9.23044
9.23033
9.2302
9.23006
9.22991
9.22974
9.22955
9.22934
9.22911
9.22886
9.22859
9.2283
9.22798
9.22763
9.22726
9.22687
9.22646
9.22603
9.22563
9.22532
9.77235
9.77267
9.7731
9.77355
9.77398
9.7744
9.77479
9.77515
9.77549
9.7758
9.77609
9.77635
9.77659
9.77681
9.77701
9.77719
9.77735
9.7775
9.77763
9.77774
9.77785
9.77794
9.77802
9.77808
9.77814
9.77818
9.77822
9.77825
9.77826
9.77827
9.77827
9.77826
9.77825
9.77822
9.77818
9.77814
9.77808
9.77802
9.77794
9.77785
9.77774
9.77763
9.7775
9.77735
9.77719
9.77701
9.77681
9.77659
9.77635
9.77609
9.7758
9.77549
9.77515
9.77479
9.7744
9.77398
9.77355
9.7731
9.77267
9.77235
10.3268
10.3272
10.3276
10.3281
10.3285
10.329
10.3294
10.3298
10.3301
10.3305
10.3308
10.331
10.3313
10.3315
10.3317
10.3319
10.3321
10.3322
10.3324
10.3325
10.3326
10.3327
10.3328
10.3329
10.3329
10.333
10.333
10.333
10.333
10.3331
10.3331
10.333
10.333
10.333
10.333
10.3329
10.3329
10.3328
10.3327
10.3326
10.3325
10.3324
10.3322
10.3321
10.3319
10.3317
10.3315
10.3313
10.331
10.3308
10.3305
10.3301
10.3298
10.3294
10.329
10.3285
10.3281
10.3276
10.3272
10.3268
10.8883
10.8886
10.8891
10.8896
10.8901
10.8905
10.891
10.8914
10.8917
10.8921
10.8924
10.8927
10.893
10.8932
10.8934
10.8936
10.8938
10.894
10.8941
10.8942
10.8943
10.8944
10.8945
10.8946
10.8947
10.8947
10.8947
10.8948
10.8948
10.8948
10.8948
10.8948
10.8948
10.8947
10.8947
10.8947
10.8946
10.8945
10.8944
10.8943
10.8942
10.8941
10.894
10.8938
10.8936
10.8934
10.8932
10.893
10.8927
10.8924
10.8921
10.8917
10.8914
10.891
10.8905
10.8901
10.8896
10.8891
10.8886
10.8883
11.4562
11.4565
11.457
11.4575
11.458
11.4585
11.459
11.4594
11.4598
11.4601
11.4605
11.4608
11.461
11.4613
11.4615
11.4617
11.4619
11.4621
11.4622
11.4624
11.4625
11.4626
11.4627
11.4628
11.4628
11.4629
11.4629
11.463
11.463
11.463
11.463
11.463
11.463
11.4629
11.4629
11.4628
11.4628
11.4627
11.4626
11.4625
11.4624
11.4622
11.4621
11.4619
11.4617
11.4615
11.4613
11.461
11.4608
11.4605
11.4601
11.4598
11.4594
11.459
11.4585
11.458
11.4575
11.457
11.4565
11.4562
12.0299
12.0302
12.0308
12.0313
12.0318
12.0323
12.0328
12.0332
12.0336
12.034
12.0343
12.0346
12.0349
12.0352
12.0354
12.0356
12.0358
12.036
12.0362
12.0363
12.0364
12.0365
12.0366
12.0367
12.0368
12.0368
12.0369
12.0369
12.0369
12.0369
12.0369
12.0369
12.0369
12.0369
12.0368
12.0368
12.0367
12.0366
12.0365
12.0364
12.0363
12.0362
12.036
12.0358
12.0356
12.0354
12.0352
12.0349
12.0346
12.0343
12.034
12.0336
12.0332
12.0328
12.0323
12.0318
12.0313
12.0308
12.0302
12.0299
12.6086
12.609
12.6095
12.6101
12.6106
12.6111
12.6116
12.6121
12.6125
12.6129
12.6132
12.6136
12.6139
12.6141
12.6144
12.6146
12.6148
12.615
12.6151
12.6153
12.6154
12.6155
12.6156
12.6157
12.6158
12.6158
12.6159
12.6159
12.6159
12.6159
12.6159
12.6159
12.6159
12.6159
12.6158
12.6158
12.6157
12.6156
12.6155
12.6154
12.6153
12.6151
12.615
12.6148
12.6146
12.6144
12.6141
12.6139
12.6136
12.6132
12.6129
12.6125
12.6121
12.6116
12.6111
12.6106
12.6101
12.6095
12.609
12.6086
13.1915
13.192
13.1925
13.1931
13.1936
13.1942
13.1947
13.1951
13.1956
13.196
13.1963
13.1967
13.197
13.1973
13.1975
13.1977
13.198
13.1981
13.1983
13.1985
13.1986
13.1987
13.1988
13.1989
13.199
13.199
13.1991
13.1991
13.1991
13.1991
13.1991
13.1991
13.1991
13.1991
13.199
13.199
13.1989
13.1988
13.1987
13.1986
13.1985
13.1983
13.1981
13.198
13.1977
13.1975
13.1973
13.197
13.1967
13.1963
13.196
13.1956
13.1951
13.1947
13.1942
13.1936
13.1931
13.1925
13.192
13.1915
13.7777
13.7782
13.7787
13.7793
13.7799
13.7804
13.7809
13.7814
13.7819
13.7823
13.7827
13.783
13.7833
13.7836
13.7839
13.7841
13.7843
13.7845
13.7847
13.7849
13.785
13.7851
13.7852
13.7853
13.7854
13.7854
13.7855
13.7855
13.7855
13.7856
13.7856
13.7855
13.7855
13.7855
13.7854
13.7854
13.7853
13.7852
13.7851
13.785
13.7849
13.7847
13.7845
13.7843
13.7841
13.7839
13.7836
13.7833
13.783
13.7827
13.7823
13.7819
13.7814
13.7809
13.7804
13.7799
13.7793
13.7787
13.7782
13.7777
14.366
14.3665
14.367
14.3676
14.3682
14.3688
14.3693
14.3698
14.3703
14.3707
14.3711
14.3714
14.3718
14.3721
14.3723
14.3726
14.3728
14.373
14.3732
14.3733
14.3735
14.3736
14.3737
14.3738
14.3739
14.3739
14.374
14.374
14.374
14.3741
14.3741
14.374
14.374
14.374
14.3739
14.3739
14.3738
14.3737
14.3736
14.3735
14.3733
14.3732
14.373
14.3728
14.3726
14.3723
14.3721
14.3718
14.3714
14.3711
14.3707
14.3703
14.3698
14.3693
14.3688
14.3682
14.3676
14.367
14.3665
14.366
14.9551
14.9556
14.9562
14.9568
14.9574
14.958
14.9585
14.959
14.9595
14.9599
14.9603
14.9607
14.961
14.9613
14.9616
14.9618
14.9621
14.9623
14.9624
14.9626
14.9627
14.9629
14.963
14.9631
14.9632
14.9632
14.9633
14.9633
14.9633
14.9633
14.9633
14.9633
14.9633
14.9633
14.9632
14.9632
14.9631
14.963
14.9629
14.9627
14.9626
14.9624
14.9623
14.9621
14.9618
14.9616
14.9613
14.961
14.9607
14.9603
14.9599
14.9595
14.959
14.9585
14.958
14.9574
14.9568
14.9562
14.9556
14.9551
15.5435
15.544
15.5446
15.5452
15.5458
15.5464
15.547
15.5475
15.548
15.5484
15.5488
15.5492
15.5495
15.5498
15.5501
15.5504
15.5506
15.5508
15.551
15.5512
15.5513
15.5514
15.5516
15.5516
15.5517
15.5518
15.5518
15.5519
15.5519
15.5519
15.5519
15.5519
15.5519
15.5518
15.5518
15.5517
15.5516
15.5516
15.5514
15.5513
15.5512
15.551
15.5508
15.5506
15.5504
15.5501
15.5498
15.5495
15.5492
15.5488
15.5484
15.548
15.5475
15.547
15.5464
15.5458
15.5452
15.5446
15.544
15.5435
16.1296
16.13
16.1307
16.1313
16.1319
16.1325
16.1331
16.1336
16.1341
16.1345
16.1349
16.1353
16.1356
16.136
16.1362
16.1365
16.1367
16.137
16.1371
16.1373
16.1375
16.1376
16.1377
16.1378
16.1379
16.1379
16.138
16.138
16.1381
16.1381
16.1381
16.1381
16.138
16.138
16.1379
16.1379
16.1378
16.1377
16.1376
16.1375
16.1373
16.1371
16.137
16.1367
16.1365
16.1362
16.136
16.1356
16.1353
16.1349
16.1345
16.1341
16.1336
16.1331
16.1325
16.1319
16.1313
16.1307
16.13
16.1296
16.7112
16.7117
16.7123
16.713
16.7136
16.7142
16.7148
16.7153
16.7158
16.7162
16.7166
16.717
16.7174
16.7177
16.718
16.7182
16.7185
16.7187
16.7189
16.719
16.7192
16.7193
16.7194
16.7195
16.7196
16.7197
16.7197
16.7198
16.7198
16.7198
16.7198
16.7198
16.7198
16.7197
16.7197
16.7196
16.7195
16.7194
16.7193
16.7192
16.719
16.7189
16.7187
16.7185
16.7182
16.718
16.7177
16.7174
16.717
16.7166
16.7162
16.7158
16.7153
16.7148
16.7142
16.7136
16.713
16.7123
16.7117
16.7112
17.2862
17.2867
17.2873
17.288
17.2886
17.2892
17.2898
17.2903
17.2908
17.2912
17.2916
17.292
17.2924
17.2927
17.293
17.2932
17.2935
17.2937
17.2939
17.294
17.2942
17.2943
17.2944
17.2945
17.2946
17.2947
17.2947
17.2948
17.2948
17.2948
17.2948
17.2948
17.2948
17.2947
17.2947
17.2946
17.2945
17.2944
17.2943
17.2942
17.294
17.2939
17.2937
17.2935
17.2932
17.293
17.2927
17.2924
17.292
17.2916
17.2912
17.2908
17.2903
17.2898
17.2892
17.2886
17.288
17.2873
17.2867
17.2862
17.8518
17.8523
17.8529
17.8536
17.8542
17.8548
17.8554
17.8559
17.8564
17.8568
17.8572
17.8576
17.858
17.8583
17.8586
17.8588
17.8591
17.8593
17.8595
17.8597
17.8598
17.8599
17.8601
17.8602
17.8602
17.8603
17.8604
17.8604
17.8604
17.8604
17.8604
17.8604
17.8604
17.8604
17.8603
17.8602
17.8602
17.8601
17.8599
17.8598
17.8597
17.8595
17.8593
17.8591
17.8588
17.8586
17.8583
17.858
17.8576
17.8572
17.8568
17.8564
17.8559
17.8554
17.8548
17.8542
17.8536
17.8529
17.8523
17.8518
18.405
18.4055
18.4061
18.4067
18.4073
18.4079
18.4085
18.409
18.4095
18.4099
18.4103
18.4107
18.411
18.4114
18.4116
18.4119
18.4121
18.4124
18.4125
18.4127
18.4129
18.413
18.4131
18.4132
18.4133
18.4134
18.4134
18.4134
18.4135
18.4135
18.4135
18.4135
18.4134
18.4134
18.4134
18.4133
18.4132
18.4131
18.413
18.4129
18.4127
18.4125
18.4124
18.4121
18.4119
18.4116
18.4114
18.411
18.4107
18.4103
18.4099
18.4095
18.409
18.4085
18.4079
18.4073
18.4067
18.4061
18.4055
18.405
18.9419
18.9424
18.943
18.9436
18.9442
18.9448
18.9454
18.9459
18.9463
18.9468
18.9472
18.9475
18.9479
18.9482
18.9485
18.9487
18.9489
18.9492
18.9493
18.9495
18.9497
18.9498
18.9499
18.95
18.9501
18.9501
18.9502
18.9502
18.9503
18.9503
18.9503
18.9503
18.9502
18.9502
18.9501
18.9501
18.95
18.9499
18.9498
18.9497
18.9495
18.9493
18.9492
18.9489
18.9487
18.9485
18.9482
18.9479
18.9475
18.9472
18.9468
18.9463
18.9459
18.9454
18.9448
18.9442
18.9436
18.943
18.9424
18.9419
19.4583
19.4588
19.4594
19.46
19.4606
19.4611
19.4616
19.4621
19.4626
19.463
19.4634
19.4637
19.4641
19.4644
19.4646
19.4649
19.4651
19.4653
19.4655
19.4657
19.4658
19.4659
19.466
19.4661
19.4662
19.4663
19.4663
19.4664
19.4664
19.4664
19.4664
19.4664
19.4664
19.4663
19.4663
19.4662
19.4661
19.466
19.4659
19.4658
19.4657
19.4655
19.4653
19.4651
19.4649
19.4646
19.4644
19.4641
19.4637
19.4634
19.463
19.4626
19.4621
19.4616
19.4611
19.4606
19.46
19.4594
19.4588
19.4583
19.949
19.9494
19.95
19.9506
19.9511
19.9516
19.9521
19.9526
19.953
19.9534
19.9538
19.9541
19.9544
19.9547
19.955
19.9552
19.9554
19.9556
19.9558
19.956
19.9561
19.9562
19.9563
19.9564
19.9565
19.9566
19.9566
19.9566
19.9567
19.9567
19.9567
19.9567
19.9566
19.9566
19.9566
19.9565
19.9564
19.9563
19.9562
19.9561
19.956
19.9558
19.9556
19.9554
19.9552
19.955
19.9547
19.9544
19.9541
19.9538
19.9534
19.953
19.9526
19.9521
19.9516
19.9511
19.9506
19.95
19.9494
19.949
20.4078
20.4082
20.4088
20.4093
20.4098
20.4103
20.4108
20.4112
20.4116
20.412
20.4123
20.4126
20.4129
20.4132
20.4134
20.4136
20.4138
20.414
20.4142
20.4143
20.4145
20.4146
20.4147
20.4148
20.4148
20.4149
20.4149
20.415
20.415
20.415
20.415
20.415
20.415
20.4149
20.4149
20.4148
20.4148
20.4147
20.4146
20.4145
20.4143
20.4142
20.414
20.4138
20.4136
20.4134
20.4132
20.4129
20.4126
20.4123
20.412
20.4116
20.4112
20.4108
20.4103
20.4098
20.4093
20.4088
20.4082
20.4078
20.8281
20.8284
20.8289
20.8294
20.8299
20.8303
20.8307
20.8311
20.8315
20.8318
20.8321
20.8324
20.8327
20.8329
20.8331
20.8333
20.8335
20.8337
20.8338
20.834
20.8341
20.8342
20.8343
20.8344
20.8344
20.8345
20.8345
20.8345
20.8346
20.8346
20.8346
20.8346
20.8345
20.8345
20.8345
20.8344
20.8344
20.8343
20.8342
20.8341
20.834
20.8338
20.8337
20.8335
20.8333
20.8331
20.8329
20.8327
20.8324
20.8321
20.8318
20.8315
20.8311
20.8307
20.8303
20.8299
20.8294
20.8289
20.8284
20.8281
21.2028
21.2031
21.2035
21.2039
21.2043
21.2047
21.2051
21.2054
21.2057
21.206
21.2063
21.2065
21.2068
21.207
21.2072
21.2074
21.2075
21.2077
21.2078
21.2079
21.208
21.2081
21.2082
21.2083
21.2083
21.2084
21.2084
21.2085
21.2085
21.2085
21.2085
21.2085
21.2085
21.2084
21.2084
21.2083
21.2083
21.2082
21.2081
21.208
21.2079
21.2078
21.2077
21.2075
21.2074
21.2072
21.207
21.2068
21.2065
21.2063
21.206
21.2057
21.2054
21.2051
21.2047
21.2043
21.2039
21.2035
21.2031
21.2028
21.5262
21.5265
21.5268
21.5272
21.5275
21.5278
21.5281
21.5284
21.5287
21.5289
21.5292
21.5294
21.5296
21.5297
21.5299
21.5301
21.5302
21.5303
21.5304
21.5305
21.5306
21.5307
21.5308
21.5309
21.5309
21.5309
21.531
21.531
21.531
21.531
21.531
21.531
21.531
21.531
21.5309
21.5309
21.5309
21.5308
21.5307
21.5306
21.5305
21.5304
21.5303
21.5302
21.5301
21.5299
21.5297
21.5296
21.5294
21.5292
21.5289
21.5287
21.5284
21.5281
21.5278
21.5275
21.5272
21.5268
21.5265
21.5262
21.7957
21.7959
21.7962
21.7965
21.7967
21.797
21.7972
21.7974
21.7976
21.7978
21.798
21.7982
21.7983
21.7985
21.7986
21.7988
21.7989
21.799
21.7991
21.7992
21.7992
21.7993
21.7994
21.7994
21.7994
21.7995
21.7995
21.7995
21.7995
21.7996
21.7996
21.7995
21.7995
21.7995
21.7995
21.7994
21.7994
21.7994
21.7993
21.7992
21.7992
21.7991
21.799
21.7989
21.7988
21.7986
21.7985
21.7983
21.7982
21.798
21.7978
21.7976
21.7974
21.7972
21.797
21.7967
21.7965
21.7962
21.7959
21.7957
22.0129
22.0131
22.0133
22.0135
22.0137
22.0139
22.014
22.0142
22.0144
22.0145
22.0147
22.0148
22.0149
22.015
22.0151
22.0152
22.0153
22.0154
22.0155
22.0156
22.0156
22.0157
22.0157
22.0158
22.0158
22.0158
22.0159
22.0159
22.0159
22.0159
22.0159
22.0159
22.0159
22.0159
22.0158
22.0158
22.0158
22.0157
22.0157
22.0156
22.0156
22.0155
22.0154
22.0153
22.0152
22.0151
22.015
22.0149
22.0148
22.0147
22.0145
22.0144
22.0142
22.014
22.0139
22.0137
22.0135
22.0133
22.0131
22.0129
22.184
22.1841
22.1843
22.1844
22.1846
22.1847
22.1848
22.1849
22.185
22.1852
22.1853
22.1854
22.1855
22.1855
22.1856
22.1857
22.1858
22.1858
22.1859
22.186
22.186
22.1861
22.1861
22.1861
22.1862
22.1862
22.1862
22.1862
22.1862
22.1862
22.1862
22.1862
22.1862
22.1862
22.1862
22.1862
22.1861
22.1861
22.1861
22.186
22.186
22.1859
22.1858
22.1858
22.1857
22.1856
22.1855
22.1855
22.1854
22.1853
22.1852
22.185
22.1849
22.1848
22.1847
22.1846
22.1844
22.1843
22.1841
22.184
22.3178
22.3179
22.3179
22.318
22.3181
22.3182
22.3183
22.3184
22.3185
22.3186
22.3186
22.3187
22.3188
22.3188
22.3189
22.319
22.319
22.3191
22.3191
22.3192
22.3192
22.3193
22.3193
22.3193
22.3193
22.3194
22.3194
22.3194
22.3194
22.3194
22.3194
22.3194
22.3194
22.3194
22.3194
22.3193
22.3193
22.3193
22.3193
22.3192
22.3192
22.3191
22.3191
22.319
22.319
22.3189
22.3188
22.3188
22.3187
22.3186
22.3186
22.3185
22.3184
22.3183
22.3182
22.3181
22.318
22.3179
22.3179
22.3178
22.4233
22.4234
22.4234
22.4235
22.4235
22.4236
22.4237
22.4237
22.4238
22.4238
22.4239
22.4239
22.424
22.424
22.4241
22.4241
22.4242
22.4242
22.4243
22.4243
22.4244
22.4244
22.4244
22.4244
22.4245
22.4245
22.4245
22.4245
22.4245
22.4245
22.4245
22.4245
22.4245
22.4245
22.4245
22.4245
22.4244
22.4244
22.4244
22.4244
22.4243
22.4243
22.4242
22.4242
22.4241
22.4241
22.424
22.424
22.4239
22.4239
22.4238
22.4238
22.4237
22.4237
22.4236
22.4235
22.4235
22.4234
22.4234
22.4233
22.5084
22.5084
22.5084
22.5085
22.5085
22.5085
22.5086
22.5086
22.5086
22.5087
22.5087
22.5088
22.5088
22.5089
22.5089
22.5089
22.509
22.509
22.5091
22.5091
22.5091
22.5091
22.5092
22.5092
22.5092
22.5092
22.5092
22.5093
22.5093
22.5093
22.5093
22.5093
22.5093
22.5092
22.5092
22.5092
22.5092
22.5092
22.5091
22.5091
22.5091
22.5091
22.509
22.509
22.5089
22.5089
22.5089
22.5088
22.5088
22.5087
22.5087
22.5086
22.5086
22.5086
22.5085
22.5085
22.5085
22.5084
22.5084
22.5084
22.5787
22.5787
22.5787
22.5787
22.5787
22.5787
22.5788
22.5788
22.5788
22.5788
22.5789
22.5789
22.579
22.579
22.579
22.5791
22.5791
22.5791
22.5792
22.5792
22.5792
22.5792
22.5793
22.5793
22.5793
22.5793
22.5793
22.5793
22.5794
22.5794
22.5794
22.5794
22.5793
22.5793
22.5793
22.5793
22.5793
22.5793
22.5792
22.5792
22.5792
22.5792
22.5791
22.5791
22.5791
22.579
22.579
22.579
22.5789
22.5789
22.5788
22.5788
22.5788
22.5788
22.5787
22.5787
22.5787
22.5787
22.5787
22.5787
22.6381
22.6381
22.6381
22.6382
22.6382
22.6382
22.6382
22.6382
22.6382
22.6382
22.6383
22.6383
22.6383
22.6384
22.6384
22.6384
22.6385
22.6385
22.6385
22.6385
22.6386
22.6386
22.6386
22.6386
22.6387
22.6387
22.6387
22.6387
22.6387
22.6387
22.6387
22.6387
22.6387
22.6387
22.6387
22.6387
22.6386
22.6386
22.6386
22.6386
22.6385
22.6385
22.6385
22.6385
22.6384
22.6384
22.6384
22.6383
22.6383
22.6383
22.6382
22.6382
22.6382
22.6382
22.6382
22.6382
22.6382
22.6381
22.6381
22.6381
22.6894
22.6894
22.6894
22.6894
22.6894
22.6894
22.6894
22.6894
22.6894
22.6894
22.6895
22.6895
22.6895
22.6895
22.6896
22.6896
22.6896
22.6897
22.6897
22.6897
22.6898
22.6898
22.6898
22.6898
22.6898
22.6898
22.6899
22.6899
22.6899
22.6899
22.6899
22.6899
22.6899
22.6899
22.6898
22.6898
22.6898
22.6898
22.6898
22.6898
22.6897
22.6897
22.6897
22.6896
22.6896
22.6896
22.6895
22.6895
22.6895
22.6895
22.6894
22.6894
22.6894
22.6894
22.6894
22.6894
22.6894
22.6894
22.6894
22.6894
22.7342
22.7342
22.7342
22.7342
22.7342
22.7342
22.7342
22.7342
22.7342
22.7342
22.7342
22.7342
22.7343
22.7343
22.7343
22.7344
22.7344
22.7344
22.7344
22.7345
22.7345
22.7345
22.7345
22.7346
22.7346
22.7346
22.7346
22.7346
22.7346
22.7346
22.7346
22.7346
22.7346
22.7346
22.7346
22.7346
22.7346
22.7345
22.7345
22.7345
22.7345
22.7344
22.7344
22.7344
22.7344
22.7343
22.7343
22.7343
22.7342
22.7342
22.7342
22.7342
22.7342
22.7342
22.7342
22.7342
22.7342
22.7342
22.7342
22.7342
22.7738
22.7738
22.7738
22.7737
22.7737
22.7737
22.7737
22.7737
22.7737
22.7737
22.7737
22.7737
22.7738
22.7738
22.7738
22.7739
22.7739
22.7739
22.7739
22.774
22.774
22.774
22.774
22.7741
22.7741
22.7741
22.7741
22.7741
22.7741
22.7741
22.7741
22.7741
22.7741
22.7741
22.7741
22.7741
22.7741
22.774
22.774
22.774
22.774
22.7739
22.7739
22.7739
22.7739
22.7738
22.7738
22.7738
22.7737
22.7737
22.7737
22.7737
22.7737
22.7737
22.7737
22.7737
22.7737
22.7738
22.7738
22.7738
22.8089
22.8089
22.8089
22.8089
22.8088
22.8088
22.8088
22.8088
22.8088
22.8088
22.8088
22.8088
22.8089
22.8089
22.8089
22.809
22.809
22.809
22.809
22.8091
22.8091
22.8091
22.8091
22.8092
22.8092
22.8092
22.8092
22.8092
22.8092
22.8092
22.8092
22.8092
22.8092
22.8092
22.8092
22.8092
22.8092
22.8091
22.8091
22.8091
22.8091
22.809
22.809
22.809
22.809
22.8089
22.8089
22.8089
22.8088
22.8088
22.8088
22.8088
22.8088
22.8088
22.8088
22.8088
22.8089
22.8089
22.8089
22.8089
22.8403
22.8403
22.8402
22.8402
22.8402
22.8402
22.8402
22.8401
22.8401
22.8402
22.8402
22.8402
22.8402
22.8402
22.8403
22.8403
22.8403
22.8403
22.8404
22.8404
22.8404
22.8405
22.8405
22.8405
22.8405
22.8405
22.8405
22.8406
22.8406
22.8406
22.8406
22.8406
22.8406
22.8405
22.8405
22.8405
22.8405
22.8405
22.8405
22.8404
22.8404
22.8404
22.8403
22.8403
22.8403
22.8403
22.8402
22.8402
22.8402
22.8402
22.8402
22.8401
22.8401
22.8402
22.8402
22.8402
22.8402
22.8402
22.8403
22.8403
22.8684
22.8683
22.8683
22.8683
22.8682
22.8682
22.8682
22.8682
22.8682
22.8682
22.8682
22.8682
22.8682
22.8683
22.8683
22.8683
22.8684
22.8684
22.8684
22.8685
22.8685
22.8685
22.8685
22.8686
22.8686
22.8686
22.8686
22.8686
22.8686
22.8686
22.8686
22.8686
22.8686
22.8686
22.8686
22.8686
22.8686
22.8685
22.8685
22.8685
22.8685
22.8684
22.8684
22.8684
22.8683
22.8683
22.8683
22.8682
22.8682
22.8682
22.8682
22.8682
22.8682
22.8682
22.8682
22.8682
22.8683
22.8683
22.8683
22.8684
22.8935
22.8935
22.8935
22.8934
22.8934
22.8934
22.8933
22.8933
22.8933
22.8933
22.8933
22.8934
22.8934
22.8934
22.8934
22.8935
22.8935
22.8935
22.8936
22.8936
22.8936
22.8937
22.8937
22.8937
22.8937
22.8937
22.8937
22.8938
22.8938
22.8938
22.8938
22.8938
22.8938
22.8937
22.8937
22.8937
22.8937
22.8937
22.8937
22.8936
22.8936
22.8936
22.8935
22.8935
22.8935
22.8934
22.8934
22.8934
22.8934
22.8933
22.8933
22.8933
22.8933
22.8933
22.8934
22.8934
22.8934
22.8935
22.8935
22.8935
22.9161
22.916
22.916
22.916
22.9159
22.9159
22.9159
22.9159
22.9159
22.9159
22.9159
22.9159
22.9159
22.9159
22.916
22.916
22.916
22.9161
22.9161
22.9161
22.9162
22.9162
22.9162
22.9162
22.9163
22.9163
22.9163
22.9163
22.9163
22.9163
22.9163
22.9163
22.9163
22.9163
22.9163
22.9163
22.9162
22.9162
22.9162
22.9162
22.9161
22.9161
22.9161
22.916
22.916
22.916
22.9159
22.9159
22.9159
22.9159
22.9159
22.9159
22.9159
22.9159
22.9159
22.9159
22.916
22.916
22.916
22.9161
22.9362
22.9362
22.9362
22.9361
22.9361
22.9361
22.936
22.936
22.936
22.936
22.936
22.9361
22.9361
22.9361
22.9361
22.9362
22.9362
22.9362
22.9363
22.9363
22.9363
22.9364
22.9364
22.9364
22.9364
22.9364
22.9365
22.9365
22.9365
22.9365
22.9365
22.9365
22.9365
22.9365
22.9364
22.9364
22.9364
22.9364
22.9364
22.9363
22.9363
22.9363
22.9362
22.9362
22.9362
22.9361
22.9361
22.9361
22.9361
22.936
22.936
22.936
22.936
22.936
22.9361
22.9361
22.9361
22.9362
22.9362
22.9362
22.9542
22.9542
22.9542
22.9541
22.9541
22.954
22.954
22.954
22.954
22.954
22.954
22.954
22.9541
22.9541
22.9541
22.9542
22.9542
22.9542
22.9543
22.9543
22.9543
22.9544
22.9544
22.9544
22.9544
22.9545
22.9545
22.9545
22.9545
22.9545
22.9545
22.9545
22.9545
22.9545
22.9545
22.9544
22.9544
22.9544
22.9544
22.9543
22.9543
22.9543
22.9542
22.9542
22.9542
22.9541
22.9541
22.9541
22.954
22.954
22.954
22.954
22.954
22.954
22.954
22.9541
22.9541
22.9542
22.9542
22.9542
22.9702
22.9702
22.9701
22.9701
22.9701
22.97
22.97
22.97
22.97
22.97
22.97
22.97
22.97
22.9701
22.9701
22.9701
22.9702
22.9702
22.9703
22.9703