/*--------------------------------*- C++ -*----------------------------------*\
| =========                 |                                                 |
| \\      /  F ield         | foam-extend: Open Source CFD                    |
|  \\    /   O peration     | Version:     4.0                                |
|   \\  /    A nd           | Web:         http://www.foam-extend.org         |
|    \\/     M anipulation  |                                                 |
\*---------------------------------------------------------------------------*/
FoamFile
{
    version     2.0;
    format      ascii;
    class       volScalarField;
    location    "16";
    object      dC1;
}
// * * * * * * * * * * * * * * * * * * * * * * * * * * * * * * * * * * * * * //

dimensions      [0 -1 0 0 0 0 0];

internalField   nonuniform List<scalar> 
6960
(
2.24106e-13
2.23429e-13
2.2433e-13
2.24631e-13
2.2418e-13
2.23654e-13
2.23731e-13
2.23955e-13
2.24105e-13
2.2388e-13
2.24105e-13
2.2403e-13
2.23205e-13
2.24331e-13
2.24105e-13
2.23655e-13
2.23354e-13
2.23355e-13
2.24556e-13
2.24556e-13
2.23805e-13
2.2418e-13
2.24105e-13
2.2448e-13
2.24106e-13
2.24255e-13
2.24179e-13
2.2403e-13
2.24631e-13
2.23955e-13
2.2403e-13
2.24105e-13
2.24106e-13
2.23804e-13
2.23281e-13
2.2388e-13
2.24556e-13
2.23956e-13
2.24103e-13
2.24406e-13
2.2493e-13
2.2433e-13
2.25005e-13
2.23805e-13
2.24632e-13
2.23429e-13
2.24706e-13
2.2403e-13
2.2313e-13
2.24706e-13
2.24031e-13
2.24554e-13
2.23806e-13
2.23654e-13
2.24857e-13
2.23504e-13
2.23506e-13
2.2418e-13
2.22906e-13
2.23655e-13
8.51086e-14
8.49576e-14
8.47712e-14
8.47517e-14
8.49208e-14
8.47326e-14
8.524e-14
8.50891e-14
8.46957e-14
8.50513e-14
8.50713e-14
8.49776e-14
8.5276e-14
8.51281e-14
8.4939e-14
8.49958e-14
8.52209e-14
8.49204e-14
8.51272e-14
8.49962e-14
8.47694e-14
8.5109e-14
8.49199e-14
8.49399e-14
8.51277e-14
8.4939e-14
8.48644e-14
8.50522e-14
8.52022e-14
8.48635e-14
8.53532e-14
8.50882e-14
8.49026e-14
8.52205e-14
8.47707e-14
8.4864e-14
8.47889e-14
8.541e-14
8.49199e-14
8.48831e-14
8.49971e-14
8.49949e-14
8.46948e-14
8.51645e-14
8.51272e-14
8.50322e-14
8.52031e-14
8.46762e-14
8.50704e-14
8.45825e-14
8.4828e-14
8.44875e-14
8.51845e-14
8.49954e-14
8.48267e-14
8.52582e-14
8.51086e-14
8.45829e-14
8.48644e-14
8.51086e-14
4.28546e-14
4.28156e-14
4.30892e-14
4.29006e-14
4.30701e-14
4.31166e-14
4.30146e-14
4.26933e-14
4.33421e-14
4.27601e-14
4.29856e-14
4.29292e-14
4.26e-14
4.30333e-14
4.30983e-14
4.30693e-14
4.29387e-14
4.29288e-14
4.29201e-14
4.29856e-14
4.31725e-14
4.32584e-14
4.32003e-14
4.33798e-14
4.31174e-14
4.30216e-14
4.28919e-14
4.30697e-14
4.30884e-14
4.30229e-14
4.29387e-14
4.27219e-14
4.29956e-14
4.27696e-14
4.29864e-14
4.29847e-14
4.27501e-14
4.31643e-14
4.30415e-14
4.29379e-14
4.30806e-14
4.28065e-14
4.28733e-14
4.28828e-14
4.28351e-14
4.28628e-14
4.28655e-14
4.28533e-14
4.25914e-14
4.2976e-14
4.32215e-14
4.28156e-14
4.2986e-14
4.30697e-14
4.3032e-14
4.28546e-14
4.2976e-14
4.33234e-14
4.26668e-14
4.29283e-14
1.044e-14
1.04621e-14
1.05293e-14
1.0453e-14
1.03923e-14
1.04443e-14
1.05757e-14
1.03728e-14
1.028e-14
1.04396e-14
1.05476e-14
1.04769e-14
1.04057e-14
1.02613e-14
1.04539e-14
1.04292e-14
1.044e-14
1.03775e-14
1.0623e-14
1.03168e-14
1.03875e-14
1.0355e-14
1.05467e-14
1.04209e-14
1.03793e-14
1.02787e-14
1.02947e-14
1.02427e-14
1.03927e-14
1.04391e-14
1.043e-14
1.0378e-14
1.04721e-14
1.05003e-14
1.05848e-14
1.04721e-14
1.0626e-14
1.04964e-14
1.03732e-14
1.03125e-14
1.0492e-14
1.02978e-14
1.06217e-14
1.04118e-14
1.0453e-14
1.05744e-14
1.05397e-14
1.03962e-14
1.04391e-14
1.05376e-14
1.06221e-14
1.06829e-14
1.03502e-14
1.03741e-14
1.02644e-14
1.06091e-14
1.04955e-14
1.05189e-14
1.06508e-14
1.03168e-14
-1.9631e-14
-1.98396e-14
-1.97715e-14
-1.97394e-14
-1.96878e-14
-1.97394e-14
-1.97958e-14
-1.99419e-14
-1.98097e-14
-1.95603e-14
-1.97303e-14
-1.96921e-14
-1.97221e-14
-1.96501e-14
-1.97255e-14
-1.98249e-14
-1.97949e-14
-1.95898e-14
-1.98335e-14
-1.96596e-14
-1.97403e-14
-1.97013e-14
-1.9909e-14
-1.96644e-14
-1.96449e-14
-1.98396e-14
-1.95421e-14
-1.97164e-14
-1.9824e-14
-1.97724e-14
-1.98053e-14
-1.96783e-14
-1.98426e-14
-1.96735e-14
-1.98144e-14
-1.9909e-14
-1.97537e-14
-1.96926e-14
-1.96267e-14
-1.97212e-14
-1.9654e-14
-1.96557e-14
-1.97299e-14
-1.97342e-14
-1.98058e-14
-1.9778e-14
-1.96349e-14
-1.98014e-14
-1.95989e-14
-1.98053e-14
-1.98899e-14
-1.97065e-14
-1.97442e-14
-1.97294e-14
-1.96982e-14
-1.96405e-14
-1.97954e-14
-1.97212e-14
-1.97013e-14
-1.96835e-14
-4.73328e-14
-4.74564e-14
-4.73762e-14
-4.74087e-14
-4.72959e-14
-4.72153e-14
-4.7446e-14
-4.7322e-14
-4.73827e-14
-4.75058e-14
-4.73757e-14
-4.73211e-14
-4.74811e-14
-4.74148e-14
-4.73653e-14
-4.74278e-14
-4.73228e-14
-4.74746e-14
-4.73679e-14
-4.73653e-14
-4.741e-14
-4.74304e-14
-4.7364e-14
-4.73983e-14
-4.73939e-14
-4.73341e-14
-4.74759e-14
-4.72881e-14
-4.74269e-14
-4.74174e-14
-4.7361e-14
-4.74508e-14
-4.73536e-14
-4.73302e-14
-4.7371e-14
-4.73874e-14
-4.74226e-14
-4.73519e-14
-4.73658e-14
-4.7371e-14
-4.73181e-14
-4.73055e-14
-4.7387e-14
-4.74035e-14
-4.73874e-14
-4.74369e-14
-4.73055e-14
-4.74252e-14
-4.72933e-14
-4.73827e-14
-4.73545e-14
-4.7384e-14
-4.73406e-14
-4.74477e-14
-4.75336e-14
-4.73224e-14
-4.73918e-14
-4.74395e-14
-4.73185e-14
-4.7364e-14
-7.13505e-14
-7.13657e-14
-7.1252e-14
-7.13453e-14
-7.1383e-14
-7.1419e-14
-7.1367e-14
-7.14663e-14
-7.14576e-14
-7.12789e-14
-7.14702e-14
-7.14047e-14
-7.12364e-14
-7.14064e-14
-7.14233e-14
-7.13808e-14
-7.12967e-14
-7.13665e-14
-7.12442e-14
-7.13123e-14
-7.13652e-14
-7.13761e-14
-7.14433e-14
-7.12802e-14
-7.13557e-14
-7.14073e-14
-7.13587e-14
-7.14858e-14
-7.1367e-14
-7.13579e-14
-7.14919e-14
-7.13709e-14
-7.14212e-14
-7.13964e-14
-7.14407e-14
-7.14745e-14
-7.14112e-14
-7.13969e-14
-7.13214e-14
-7.13869e-14
-7.14337e-14
-7.14186e-14
-7.14424e-14
-7.14455e-14
-7.14723e-14
-7.13605e-14
-7.13162e-14
-7.13375e-14
-7.14004e-14
-7.136e-14
-7.13683e-14
-7.13379e-14
-7.1458e-14
-7.13761e-14
-7.1314e-14
-7.14494e-14
-7.12781e-14
-7.13232e-14
-7.13639e-14
-7.13882e-14
-9.07859e-14
-9.08561e-14
-9.08874e-14
-9.08765e-14
-9.09056e-14
-9.08262e-14
-9.08566e-14
-9.08626e-14
-9.08397e-14
-9.08427e-14
-9.07872e-14
-9.08379e-14
-9.09325e-14
-9.07473e-14
-9.08423e-14
-9.09034e-14
-9.088e-14
-9.08136e-14
-9.09286e-14
-9.08605e-14
-9.08809e-14
-9.08509e-14
-9.08522e-14
-9.08865e-14
-9.08102e-14
-9.08219e-14
-9.07863e-14
-9.07815e-14
-9.07651e-14
-9.08336e-14
-9.08262e-14
-9.08583e-14
-9.07985e-14
-9.0854e-14
-9.08115e-14
-9.08327e-14
-9.08774e-14
-9.09277e-14
-9.08934e-14
-9.08414e-14
-9.08063e-14
-9.08171e-14
-9.08297e-14
-9.08336e-14
-9.08037e-14
-9.08566e-14
-9.087e-14
-9.08561e-14
-9.08431e-14
-9.07911e-14
-9.08453e-14
-9.08306e-14
-9.08175e-14
-9.07985e-14
-9.08613e-14
-9.08128e-14
-9.08167e-14
-9.08015e-14
-9.08557e-14
-9.08496e-14
-1.05709e-13
-1.05706e-13
-1.05726e-13
-1.05656e-13
-1.05636e-13
-1.05699e-13
-1.05693e-13
-1.0571e-13
-1.0557e-13
-1.05604e-13
-1.05656e-13
-1.05645e-13
-1.05659e-13
-1.05656e-13
-1.05646e-13
-1.05598e-13
-1.05655e-13
-1.05661e-13
-1.05642e-13
-1.0569e-13
-1.05656e-13
-1.05629e-13
-1.05708e-13
-1.05669e-13
-1.05668e-13
-1.05702e-13
-1.0568e-13
-1.05642e-13
-1.05749e-13
-1.05685e-13
-1.0562e-13
-1.05662e-13
-1.05635e-13
-1.0567e-13
-1.05701e-13
-1.0569e-13
-1.05691e-13
-1.05636e-13
-1.05642e-13
-1.05624e-13
-1.05617e-13
-1.05692e-13
-1.05662e-13
-1.05614e-13
-1.05648e-13
-1.05657e-13
-1.05664e-13
-1.057e-13
-1.05642e-13
-1.05698e-13
-1.0567e-13
-1.05672e-13
-1.0565e-13
-1.05642e-13
-1.05686e-13
-1.05703e-13
-1.05664e-13
-1.05705e-13
-1.05627e-13
-1.05678e-13
-1.16636e-13
-1.16704e-13
-1.16602e-13
-1.16649e-13
-1.16627e-13
-1.16645e-13
-1.16727e-13
-1.1663e-13
-1.1672e-13
-1.16651e-13
-1.16632e-13
-1.16664e-13
-1.16661e-13
-1.16625e-13
-1.16687e-13
-1.16663e-13
-1.16647e-13
-1.16641e-13
-1.16697e-13
-1.16663e-13
-1.16694e-13
-1.16681e-13
-1.16627e-13
-1.16671e-13
-1.16673e-13
-1.16653e-13
-1.16671e-13
-1.16636e-13
-1.16649e-13
-1.16693e-13
-1.16657e-13
-1.16636e-13
-1.16684e-13
-1.16667e-13
-1.16678e-13
-1.16645e-13
-1.16661e-13
-1.16689e-13
-1.16654e-13
-1.16697e-13
-1.16696e-13
-1.16687e-13
-1.16651e-13
-1.16685e-13
-1.1669e-13
-1.16674e-13
-1.16674e-13
-1.16651e-13
-1.16703e-13
-1.16662e-13
-1.16656e-13
-1.1668e-13
-1.16699e-13
-1.16671e-13
-1.16666e-13
-1.16633e-13
-1.16691e-13
-1.16626e-13
-1.16658e-13
-1.16645e-13
-1.25485e-13
-1.25446e-13
-1.25515e-13
-1.25495e-13
-1.25538e-13
-1.25492e-13
-1.25477e-13
-1.25471e-13
-1.25448e-13
-1.25505e-13
-1.25494e-13
-1.25461e-13
-1.255e-13
-1.25477e-13
-1.2546e-13
-1.25542e-13
-1.25463e-13
-1.25507e-13
-1.25427e-13
-1.25463e-13
-1.25491e-13
-1.2547e-13
-1.25503e-13
-1.25471e-13
-1.25481e-13
-1.25492e-13
-1.25479e-13
-1.25491e-13
-1.25469e-13
-1.25479e-13
-1.2551e-13
-1.25506e-13
-1.25531e-13
-1.25499e-13
-1.25422e-13
-1.25454e-13
-1.25472e-13
-1.25476e-13
-1.25531e-13
-1.25478e-13
-1.25453e-13
-1.25447e-13
-1.25517e-13
-1.2541e-13
-1.25463e-13
-1.25504e-13
-1.2546e-13
-1.25485e-13
-1.25446e-13
-1.25473e-13
-1.25471e-13
-1.25439e-13
-1.25496e-13
-1.25444e-13
-1.25495e-13
-1.255e-13
-1.25467e-13
-1.25523e-13
-1.25484e-13
-1.25454e-13
-1.34193e-13
-1.34258e-13
-1.34189e-13
-1.34212e-13
-1.34187e-13
-1.34202e-13
-1.34229e-13
-1.34245e-13
-1.34227e-13
-1.34247e-13
-1.34234e-13
-1.34233e-13
-1.34235e-13
-1.34239e-13
-1.34257e-13
-1.34167e-13
-1.34251e-13
-1.34201e-13
-1.34253e-13
-1.34237e-13
-1.34261e-13
-1.34216e-13
-1.34256e-13
-1.34252e-13
-1.34223e-13
-1.34229e-13
-1.34196e-13
-1.34233e-13
-1.34244e-13
-1.34239e-13
-1.34196e-13
-1.34215e-13
-1.34189e-13
-1.34231e-13
-1.34295e-13
-1.34235e-13
-1.34191e-13
-1.34207e-13
-1.34214e-13
-1.34199e-13
-1.34226e-13
-1.34235e-13
-1.34228e-13
-1.34259e-13
-1.34215e-13
-1.34172e-13
-1.34243e-13
-1.34209e-13
-1.34258e-13
-1.34248e-13
-1.3421e-13
-1.34254e-13
-1.34183e-13
-1.34253e-13
-1.34237e-13
-1.3419e-13
-1.34233e-13
-1.34181e-13
-1.34188e-13
-1.34275e-13
-1.45103e-13
-1.45067e-13
-1.45112e-13
-1.45078e-13
-1.45101e-13
-1.45129e-13
-1.45074e-13
-1.45066e-13
-1.45102e-13
-1.45082e-13
-1.45084e-13
-1.45088e-13
-1.45067e-13
-1.45107e-13
-1.45066e-13
-1.45125e-13
-1.45068e-13
-1.45116e-13
-1.45081e-13
-1.45122e-13
-1.4509e-13
-1.45122e-13
-1.45072e-13
-1.45101e-13
-1.45077e-13
-1.45079e-13
-1.45052e-13
-1.4506e-13
-1.45092e-13
-1.45099e-13
-1.45143e-13
-1.45114e-13
-1.45104e-13
-1.45084e-13
-1.45043e-13
-1.4509e-13
-1.45118e-13
-1.45087e-13
-1.45055e-13
-1.45101e-13
-1.45094e-13
-1.45081e-13
-1.45084e-13
-1.45095e-13
-1.45085e-13
-1.45109e-13
-1.45082e-13
-1.45116e-13
-1.45101e-13
-1.45116e-13
-1.45063e-13
-1.45078e-13
-1.45116e-13
-1.4507e-13
-1.45098e-13
-1.45138e-13
-1.45112e-13
-1.4511e-13
-1.45144e-13
-1.45085e-13
-1.59543e-13
-1.59536e-13
-1.59533e-13
-1.59569e-13
-1.59538e-13
-1.59573e-13
-1.59564e-13
-1.59536e-13
-1.59555e-13
-1.59525e-13
-1.5952e-13
-1.59559e-13
-1.59549e-13
-1.59522e-13
-1.59539e-13
-1.59512e-13
-1.59511e-13
-1.59539e-13
-1.59533e-13
-1.59506e-13
-1.59525e-13
-1.59552e-13
-1.59529e-13
-1.59537e-13
-1.59538e-13
-1.59545e-13
-1.59558e-13
-1.5957e-13
-1.59559e-13
-1.59552e-13
-1.59548e-13
-1.59547e-13
-1.59514e-13
-1.59537e-13
-1.59538e-13
-1.59571e-13
-1.59561e-13
-1.5955e-13
-1.59565e-13
-1.5952e-13
-1.59509e-13
-1.59544e-13
-1.59576e-13
-1.59548e-13
-1.59534e-13
-1.59566e-13
-1.5955e-13
-1.59566e-13
-1.59539e-13
-1.59524e-13
-1.59608e-13
-1.59556e-13
-1.59543e-13
-1.59587e-13
-1.59543e-13
-1.5951e-13
-1.59546e-13
-1.59549e-13
-1.59477e-13
-1.59566e-13
-1.77587e-13
-1.77593e-13
-1.77608e-13
-1.77558e-13
-1.77588e-13
-1.77606e-13
-1.7762e-13
-1.77591e-13
-1.77597e-13
-1.77606e-13
-1.77602e-13
-1.7761e-13
-1.77626e-13
-1.77612e-13
-1.77579e-13
-1.77636e-13
-1.77613e-13
-1.77612e-13
-1.7758e-13
-1.77624e-13
-1.77642e-13
-1.77564e-13
-1.77623e-13
-1.77591e-13
-1.77561e-13
-1.77594e-13
-1.77583e-13
-1.77605e-13
-1.77614e-13
-1.77592e-13
-1.77524e-13
-1.7756e-13
-1.77599e-13
-1.77595e-13
-1.77603e-13
-1.77582e-13
-1.77594e-13
-1.77603e-13
-1.77591e-13
-1.77603e-13
-1.77601e-13
-1.77608e-13
-1.77551e-13
-1.77633e-13
-1.77609e-13
-1.77612e-13
-1.77547e-13
-1.77581e-13
-1.77616e-13
-1.77598e-13
-1.77592e-13
-1.77578e-13
-1.77589e-13
-1.77608e-13
-1.77585e-13
-1.77609e-13
-1.7759e-13
-1.77585e-13
-1.77632e-13
-1.77592e-13
-1.9671e-13
-1.96753e-13
-1.96755e-13
-1.96749e-13
-1.96766e-13
-1.96741e-13
-1.96677e-13
-1.96758e-13
-1.96709e-13
-1.96703e-13
-1.96745e-13
-1.96699e-13
-1.96734e-13
-1.96725e-13
-1.96723e-13
-1.96742e-13
-1.96686e-13
-1.96707e-13
-1.96712e-13
-1.96703e-13
-1.9672e-13
-1.96698e-13
-1.96712e-13
-1.96766e-13
-1.96765e-13
-1.96768e-13
-1.96721e-13
-1.96744e-13
-1.96737e-13
-1.96707e-13
-1.96743e-13
-1.96784e-13
-1.96738e-13
-1.96777e-13
-1.96679e-13
-1.96717e-13
-1.96738e-13
-1.96753e-13
-1.96692e-13
-1.96703e-13
-1.96742e-13
-1.9672e-13
-1.96738e-13
-1.96703e-13
-1.96738e-13
-1.96687e-13
-1.96723e-13
-1.96714e-13
-1.96708e-13
-1.96725e-13
-1.96705e-13
-1.96751e-13
-1.96753e-13
-1.96671e-13
-1.96788e-13
-1.96734e-13
-1.96774e-13
-1.96777e-13
-1.96688e-13
-1.9673e-13
-2.10931e-13
-2.10914e-13
-2.10912e-13
-2.10824e-13
-2.10876e-13
-2.10873e-13
-2.10925e-13
-2.10862e-13
-2.10892e-13
-2.10894e-13
-2.10883e-13
-2.10937e-13
-2.10857e-13
-2.10872e-13
-2.10911e-13
-2.10865e-13
-2.10915e-13
-2.10937e-13
-2.10909e-13
-2.10897e-13
-2.10876e-13
-2.10875e-13
-2.10925e-13
-2.10846e-13
-2.10908e-13
-2.10885e-13
-2.10908e-13
-2.10882e-13
-2.10853e-13
-2.1087e-13
-2.10881e-13
-2.10834e-13
-2.10898e-13
-2.10841e-13
-2.10967e-13
-2.1091e-13
-2.10914e-13
-2.10883e-13
-2.10985e-13
-2.10946e-13
-2.10897e-13
-2.1091e-13
-2.10889e-13
-2.1089e-13
-2.10837e-13
-2.10905e-13
-2.10889e-13
-2.1089e-13
-2.10892e-13
-2.10894e-13
-2.10932e-13
-2.10891e-13
-2.10863e-13
-2.10925e-13
-2.10883e-13
-2.10874e-13
-2.10857e-13
-2.10847e-13
-2.10918e-13
-2.109e-13
-2.09612e-13
-2.09577e-13
-2.09581e-13
-2.09628e-13
-2.09665e-13
-2.09629e-13
-2.09631e-13
-2.09614e-13
-2.09614e-13
-2.09651e-13
-2.09614e-13
-2.09644e-13
-2.09635e-13
-2.09632e-13
-2.0961e-13
-2.09644e-13
-2.09606e-13
-2.09619e-13
-2.0957e-13
-2.09639e-13
-2.09624e-13
-2.09608e-13
-2.09597e-13
-2.09612e-13
-2.09603e-13
-2.09648e-13
-2.0957e-13
-2.09616e-13
-2.09672e-13
-2.09629e-13
-2.09595e-13
-2.09625e-13
-2.09606e-13
-2.09609e-13
-2.09572e-13
-2.09581e-13
-2.09642e-13
-2.09636e-13
-2.09552e-13
-2.09605e-13
-2.09634e-13
-2.09646e-13
-2.09612e-13
-2.09653e-13
-2.09628e-13
-2.09635e-13
-2.09619e-13
-2.09599e-13
-2.09626e-13
-2.0964e-13
-2.0961e-13
-2.09625e-13
-2.09653e-13
-2.09634e-13
-2.09669e-13
-2.09642e-13
-2.09673e-13
-2.09666e-13
-2.09587e-13
-2.09641e-13
-1.78553e-13
-1.78537e-13
-1.78572e-13
-1.78567e-13
-1.78478e-13
-1.78472e-13
-1.7853e-13
-1.78506e-13
-1.78534e-13
-1.78508e-13
-1.78558e-13
-1.78487e-13
-1.7855e-13
-1.78522e-13
-1.78485e-13
-1.78502e-13
-1.78519e-13
-1.7849e-13
-1.7855e-13
-1.78508e-13
-1.78568e-13
-1.78513e-13
-1.78529e-13
-1.78538e-13
-1.78556e-13
-1.78478e-13
-1.78554e-13
-1.78522e-13
-1.78476e-13
-1.78548e-13
-1.78508e-13
-1.78484e-13
-1.78562e-13
-1.78525e-13
-1.78533e-13
-1.78594e-13
-1.78511e-13
-1.78476e-13
-1.7851e-13
-1.78535e-13
-1.78527e-13
-1.78503e-13
-1.78533e-13
-1.78548e-13
-1.78538e-13
-1.78508e-13
-1.7852e-13
-1.7856e-13
-1.78554e-13
-1.78516e-13
-1.78539e-13
-1.78501e-13
-1.78509e-13
-1.78532e-13
-1.78515e-13
-1.78519e-13
-1.78477e-13
-1.78465e-13
-1.78526e-13
-1.78513e-13
-1.02307e-13
-1.02262e-13
-1.02278e-13
-1.02341e-13
-1.0237e-13
-1.02341e-13
-1.02307e-13
-1.02313e-13
-1.02288e-13
-1.02301e-13
-1.02348e-13
-1.02362e-13
-1.02248e-13
-1.0233e-13
-1.02385e-13
-1.02283e-13
-1.02287e-13
-1.02301e-13
-1.02297e-13
-1.02366e-13
-1.02242e-13
-1.02333e-13
-1.0228e-13
-1.02293e-13
-1.02286e-13
-1.02302e-13
-1.02305e-13
-1.02314e-13
-1.02336e-13
-1.02283e-13
-1.02323e-13
-1.02341e-13
-1.02286e-13
-1.02294e-13
-1.02358e-13
-1.02286e-13
-1.02275e-13
-1.0235e-13
-1.02313e-13
-1.02288e-13
-1.02296e-13
-1.02279e-13
-1.02292e-13
-1.02245e-13
-1.02357e-13
-1.02298e-13
-1.02328e-13
-1.02232e-13
-1.02279e-13
-1.02314e-13
-1.02307e-13
-1.02342e-13
-1.02314e-13
-1.02285e-13
-1.02316e-13
-1.0226e-13
-1.02313e-13
-1.02325e-13
-1.02317e-13
-1.02317e-13
2.78744e-14
2.7828e-14
2.78796e-14
2.79256e-14
2.78831e-14
2.79043e-14
2.78826e-14
2.78935e-14
2.78909e-14
2.78731e-14
2.79039e-14
2.79091e-14
2.78323e-14
2.79689e-14
2.79264e-14
2.78891e-14
2.78054e-14
2.78597e-14
2.7864e-14
2.79087e-14
2.78115e-14
2.78779e-14
2.78649e-14
2.78479e-14
2.788e-14
2.7867e-14
2.79208e-14
2.78761e-14
2.79017e-14
2.78891e-14
2.79533e-14
2.7939e-14
2.79343e-14
2.79165e-14
2.78887e-14
2.79343e-14
2.78605e-14
2.78831e-14
2.7913e-14
2.78527e-14
2.79134e-14
2.78701e-14
2.78527e-14
2.78597e-14
2.79447e-14
2.78154e-14
2.78983e-14
2.78597e-14
2.78692e-14
2.79139e-14
2.78766e-14
2.789e-14
2.7936e-14
2.78805e-14
2.78931e-14
2.78137e-14
2.78839e-14
2.7897e-14
2.79009e-14
2.78818e-14
2.02689e-13
2.0271e-13
2.0268e-13
2.02635e-13
2.02716e-13
2.02696e-13
2.027e-13
2.02696e-13
2.02708e-13
2.02644e-13
2.02642e-13
2.02688e-13
2.02702e-13
2.02619e-13
2.02658e-13
2.02627e-13
2.02731e-13
2.02699e-13
2.02627e-13
2.02682e-13
2.02702e-13
2.02734e-13
2.02672e-13
2.02694e-13
2.02657e-13
2.02674e-13
2.02679e-13
2.02688e-13
2.0264e-13
2.02715e-13
2.02634e-13
2.02629e-13
2.02666e-13
2.02682e-13
2.02686e-13
2.02692e-13
2.02699e-13
2.0266e-13
2.02666e-13
2.02687e-13
2.02648e-13
2.02665e-13
2.02721e-13
2.02694e-13
2.02624e-13
2.02696e-13
2.02654e-13
2.02703e-13
2.02632e-13
2.02664e-13
2.02687e-13
2.02717e-13
2.02589e-13
2.02744e-13
2.02701e-13
2.02686e-13
2.02686e-13
2.02742e-13
2.02714e-13
2.02723e-13
3.82474e-13
3.82516e-13
3.82517e-13
3.82527e-13
3.82486e-13
3.82442e-13
3.82515e-13
3.82489e-13
3.82493e-13
3.82578e-13
3.8253e-13
3.82457e-13
3.82441e-13
3.82547e-13
3.82541e-13
3.82562e-13
3.82499e-13
3.82499e-13
3.82562e-13
3.82472e-13
3.82504e-13
3.8248e-13
3.82521e-13
3.82486e-13
3.82541e-13
3.82435e-13
3.82464e-13
3.82511e-13
3.8246e-13
3.82456e-13
3.82563e-13
3.82479e-13
3.82513e-13
3.82526e-13
3.8248e-13
3.82506e-13
3.82492e-13
3.8248e-13
3.82555e-13
3.82513e-13
3.82524e-13
3.82457e-13
3.82466e-13
3.82532e-13
3.82496e-13
3.82493e-13
3.82562e-13
3.8249e-13
3.82521e-13
3.82444e-13
3.82548e-13
3.82508e-13
3.82577e-13
3.82452e-13
3.82489e-13
3.8252e-13
3.82503e-13
3.82478e-13
3.8241e-13
3.82475e-13
4.95064e-13
4.94965e-13
4.95022e-13
4.95047e-13
4.94983e-13
4.9506e-13
4.94984e-13
4.95044e-13
4.95004e-13
4.94991e-13
4.95002e-13
4.95101e-13
4.95132e-13
4.95006e-13
4.95012e-13
4.94978e-13
4.94995e-13
4.9505e-13
4.94959e-13
4.95035e-13
4.94969e-13
4.94955e-13
4.95065e-13
4.95077e-13
4.9502e-13
4.9509e-13
4.9508e-13
4.9507e-13
4.95145e-13
4.9507e-13
4.94954e-13
4.95015e-13
4.95046e-13
4.95034e-13
4.95067e-13
4.95053e-13
4.95088e-13
4.95021e-13
4.94946e-13
4.95019e-13
4.95046e-13
4.94993e-13
4.95061e-13
4.9507e-13
4.95016e-13
4.94989e-13
4.94993e-13
4.95048e-13
4.95005e-13
4.95123e-13
4.95008e-13
4.95007e-13
4.95041e-13
4.95072e-13
4.95053e-13
4.94984e-13
4.95022e-13
4.94996e-13
4.95107e-13
4.95001e-13
4.54474e-13
4.54575e-13
4.54495e-13
4.54543e-13
4.54516e-13
4.5449e-13
4.54488e-13
4.54428e-13
4.54537e-13
4.54451e-13
4.5449e-13
4.54449e-13
4.54372e-13
4.54525e-13
4.54433e-13
4.54479e-13
4.54466e-13
4.54533e-13
4.54558e-13
4.54558e-13
4.54583e-13
4.54519e-13
4.54418e-13
4.54406e-13
4.54468e-13
4.54497e-13
4.54434e-13
4.54442e-13
4.5437e-13
4.54555e-13
4.54506e-13
4.54458e-13
4.54465e-13
4.54361e-13
4.54485e-13
4.54488e-13
4.54383e-13
4.5447e-13
4.54596e-13
4.54543e-13
4.54476e-13
4.54631e-13
4.54496e-13
4.54506e-13
4.54481e-13
4.54555e-13
4.54474e-13
4.54567e-13
4.5452e-13
4.54518e-13
4.54468e-13
4.54555e-13
4.54464e-13
4.54439e-13
4.54448e-13
4.54544e-13
4.5453e-13
4.54479e-13
4.54497e-13
4.54573e-13
2.06606e-13
2.06717e-13
2.06707e-13
2.06652e-13
2.06668e-13
2.06727e-13
2.06715e-13
2.0677e-13
2.06599e-13
2.06814e-13
2.0674e-13
2.06693e-13
2.06769e-13
2.06647e-13
2.06736e-13
2.06722e-13
2.06757e-13
2.06569e-13
2.06711e-13
2.06612e-13
2.06602e-13
2.06742e-13
2.06745e-13
2.06818e-13
2.06777e-13
2.06687e-13
2.06774e-13
2.06706e-13
2.06753e-13
2.06624e-13
2.06744e-13
2.06782e-13
2.06689e-13
2.06894e-13
2.06732e-13
2.06707e-13
2.06756e-13
2.06751e-13
2.06603e-13
2.06618e-13
2.06691e-13
2.06536e-13
2.0672e-13
2.0665e-13
2.06684e-13
2.06669e-13
2.06735e-13
2.06632e-13
2.06841e-13
2.06653e-13
2.06819e-13
2.06606e-13
2.06731e-13
2.06684e-13
2.06737e-13
2.06685e-13
2.0668e-13
2.06783e-13
2.06643e-13
2.06611e-13
-2.18451e-13
-2.18594e-13
-2.18523e-13
-2.1851e-13
-2.18398e-13
-2.18487e-13
-2.1856e-13
-2.18518e-13
-2.18412e-13
-2.18543e-13
-2.18476e-13
-2.18377e-13
-2.18455e-13
-2.18394e-13
-2.18539e-13
-2.18452e-13
-2.18504e-13
-2.18346e-13
-2.1856e-13
-2.18524e-13
-2.18424e-13
-2.18453e-13
-2.18443e-13
-2.18593e-13
-2.18586e-13
-2.18456e-13
-2.18554e-13
-2.18487e-13
-2.18408e-13
-2.18422e-13
-2.18445e-13
-2.18492e-13
-2.18387e-13
-2.18558e-13
-2.1857e-13
-2.18488e-13
-2.18491e-13
-2.18557e-13
-2.18523e-13
-2.18445e-13
-2.18475e-13
-2.18401e-13
-2.18506e-13
-2.18463e-13
-2.18462e-13
-2.18478e-13
-2.18493e-13
-2.18423e-13
-2.18667e-13
-2.18458e-13
-2.1861e-13
-2.18446e-13
-2.18457e-13
-2.18449e-13
-2.18508e-13
-2.1849e-13
-2.18473e-13
-2.18571e-13
-2.18487e-13
-2.18537e-13
-6.87196e-13
-6.8713e-13
-6.87147e-13
-6.87198e-13
-6.87273e-13
-6.87223e-13
-6.87094e-13
-6.87222e-13
-6.87232e-13
-6.87186e-13
-6.87189e-13
-6.87233e-13
-6.8718e-13
-6.87289e-13
-6.87137e-13
-6.87238e-13
-6.87204e-13
-6.87247e-13
-6.87149e-13
-6.87098e-13
-6.87261e-13
-6.87273e-13
-6.87285e-13
-6.87154e-13
-6.87128e-13
-6.87186e-13
-6.87067e-13
-6.87174e-13
-6.87268e-13
-6.87185e-13
-6.873e-13
-6.87278e-13
-6.87294e-13
-6.87197e-13
-6.87095e-13
-6.87228e-13
-6.87209e-13
-6.87137e-13
-6.87136e-13
-6.8721e-13
-6.87171e-13
-6.87221e-13
-6.87168e-13
-6.87168e-13
-6.87233e-13
-6.87165e-13
-6.87167e-13
-6.87327e-13
-6.87083e-13
-6.87221e-13
-6.87055e-13
-6.87202e-13
-6.87194e-13
-6.87171e-13
-6.87093e-13
-6.87169e-13
-6.87188e-13
-6.87143e-13
-6.87163e-13
-6.87044e-13
-1.00769e-12
-1.00757e-12
-1.00762e-12
-1.00759e-12
-1.00758e-12
-1.00759e-12
-1.00772e-12
-1.00771e-12
-1.00765e-12
-1.00769e-12
-1.00772e-12
-1.00768e-12
-1.00771e-12
-1.00765e-12
-1.00773e-12
-1.00765e-12
-1.00763e-12
-1.00761e-12
-1.00766e-12
-1.00769e-12
-1.00758e-12
-1.00763e-12
-1.00755e-12
-1.0077e-12
-1.00775e-12
-1.00767e-12
-1.00776e-12
-1.00782e-12
-1.00764e-12
-1.00771e-12
-1.00753e-12
-1.00755e-12
-1.00754e-12
-1.00753e-12
-1.00772e-12
-1.00765e-12
-1.00765e-12
-1.00769e-12
-1.0077e-12
-1.00768e-12
-1.00775e-12
-1.00762e-12
-1.00763e-12
-1.00766e-12
-1.00761e-12
-1.00765e-12
-1.00765e-12
-1.00752e-12
-1.00763e-12
-1.00767e-12
-1.00772e-12
-1.00761e-12
-1.00764e-12
-1.00762e-12
-1.00772e-12
-1.00768e-12
-1.00763e-12
-1.00766e-12
-1.0076e-12
-1.00767e-12
-1.0309e-12
-1.03102e-12
-1.03098e-12
-1.03104e-12
-1.03108e-12
-1.03104e-12
-1.03087e-12
-1.03082e-12
-1.031e-12
-1.03093e-12
-1.03099e-12
-1.03101e-12
-1.03099e-12
-1.03085e-12
-1.03097e-12
-1.03094e-12
-1.03098e-12
-1.03108e-12
-1.03101e-12
-1.03092e-12
-1.03103e-12
-1.03099e-12
-1.03105e-12
-1.03087e-12
-1.0308e-12
-1.0309e-12
-1.03088e-12
-1.03084e-12
-1.03101e-12
-1.03086e-12
-1.03099e-12
-1.03103e-12
-1.03101e-12
-1.03107e-12
-1.03087e-12
-1.03098e-12
-1.03099e-12
-1.03095e-12
-1.03096e-12
-1.03096e-12
-1.03091e-12
-1.03106e-12
-1.03101e-12
-1.03097e-12
-1.03094e-12
-1.03104e-12
-1.03101e-12
-1.03102e-12
-1.03097e-12
-1.03102e-12
-1.03101e-12
-1.03108e-12
-1.031e-12
-1.03104e-12
-1.03094e-12
-1.03098e-12
-1.03096e-12
-1.03089e-12
-1.03103e-12
-1.03099e-12
-7.40008e-13
-7.40019e-13
-7.39952e-13
-7.39934e-13
-7.39825e-13
-7.3994e-13
-7.40132e-13
-7.40049e-13
-7.39866e-13
-7.39916e-13
-7.39792e-13
-7.39929e-13
-7.39912e-13
-7.40053e-13
-7.39875e-13
-7.39925e-13
-7.39984e-13
-7.39931e-13
-7.3995e-13
-7.40021e-13
-7.39922e-13
-7.39941e-13
-7.39897e-13
-7.39992e-13
-7.40024e-13
-7.39982e-13
-7.40076e-13
-7.40003e-13
-7.39857e-13
-7.39994e-13
-7.40105e-13
-7.40003e-13
-7.40031e-13
-7.39963e-13
-7.4e-13
-7.39932e-13
-7.39947e-13
-7.39911e-13
-7.39982e-13
-7.39969e-13
-7.39995e-13
-7.39922e-13
-7.39885e-13
-7.40028e-13
-7.3993e-13
-7.39973e-13
-7.39942e-13
-7.39908e-13
-7.39964e-13
-7.39824e-13
-7.39906e-13
-7.39832e-13
-7.39841e-13
-7.3984e-13
-7.39998e-13
-7.39977e-13
-7.40029e-13
-7.39995e-13
-7.39979e-13
-7.40008e-13
-2.58195e-13
-2.58205e-13
-2.58172e-13
-2.58175e-13
-2.58201e-13
-2.58152e-13
-2.5804e-13
-2.5833e-13
-2.58384e-13
-2.58228e-13
-2.58382e-13
-2.58218e-13
-2.58216e-13
-2.58317e-13
-2.58312e-13
-2.58347e-13
-2.58305e-13
-2.58222e-13
-2.58309e-13
-2.58268e-13
-2.58155e-13
-2.58319e-13
-2.58176e-13
-2.58312e-13
-2.58282e-13
-2.58238e-13
-2.58081e-13
-2.58278e-13
-2.58292e-13
-2.58217e-13
-2.58064e-13
-2.58153e-13
-2.58161e-13
-2.58256e-13
-2.5823e-13
-2.58257e-13
-2.58271e-13
-2.58247e-13
-2.58234e-13
-2.58237e-13
-2.58225e-13
-2.58306e-13
-2.5836e-13
-2.58103e-13
-2.58316e-13
-2.58311e-13
-2.58308e-13
-2.58309e-13
-2.58357e-13
-2.58265e-13
-2.58368e-13
-2.58242e-13
-2.58379e-13
-2.58341e-13
-2.5816e-13
-2.58165e-13
-2.58321e-13
-2.58211e-13
-2.58196e-13
-2.58202e-13
2.26949e-13
2.27018e-13
2.26993e-13
2.27006e-13
2.26991e-13
2.2692e-13
2.26813e-13
2.27138e-13
2.27098e-13
2.2707e-13
2.26945e-13
2.26946e-13
2.26905e-13
2.27103e-13
2.26987e-13
2.27133e-13
2.27025e-13
2.26882e-13
2.27006e-13
2.27038e-13
2.2685e-13
2.27224e-13
2.26953e-13
2.27158e-13
2.27079e-13
2.2698e-13
2.26992e-13
2.27107e-13
2.27039e-13
2.26846e-13
2.26924e-13
2.2688e-13
2.26953e-13
2.27059e-13
2.27006e-13
2.26976e-13
2.27113e-13
2.26911e-13
2.2693e-13
2.27053e-13
2.27087e-13
2.27152e-13
2.27008e-13
2.26875e-13
2.27047e-13
2.27064e-13
2.27027e-13
2.27002e-13
2.27014e-13
2.2687e-13
2.27038e-13
2.26896e-13
2.2701e-13
2.27129e-13
2.2678e-13
2.26904e-13
2.27113e-13
2.26835e-13
2.26905e-13
2.27002e-13
5.6732e-13
5.67303e-13
5.67376e-13
5.67337e-13
5.67304e-13
5.67389e-13
5.6747e-13
5.67171e-13
5.67249e-13
5.67328e-13
5.67323e-13
5.67273e-13
5.67304e-13
5.67278e-13
5.67376e-13
5.67167e-13
5.67373e-13
5.67455e-13
5.67339e-13
5.67264e-13
5.67312e-13
5.67296e-13
5.67334e-13
5.67206e-13
5.67201e-13
5.67329e-13
5.67371e-13
5.67365e-13
5.67207e-13
5.67416e-13
5.67277e-13
5.67375e-13
5.67434e-13
5.67399e-13
5.67349e-13
5.67346e-13
5.67156e-13
5.67505e-13
5.67509e-13
5.67416e-13
5.67197e-13
5.67265e-13
5.67378e-13
5.67428e-13
5.67439e-13
5.67256e-13
5.67307e-13
5.67432e-13
5.67265e-13
5.67435e-13
5.67389e-13
5.67471e-13
5.67351e-13
5.6726e-13
5.67393e-13
5.67409e-13
5.67257e-13
5.67503e-13
5.67391e-13
5.67251e-13
7.10253e-13
7.09979e-13
7.10104e-13
7.10064e-13
7.09952e-13
7.09994e-13
7.10069e-13
7.10242e-13
7.10092e-13
7.10073e-13
7.09993e-13
7.10023e-13
7.10155e-13
7.10132e-13
7.10168e-13
7.10165e-13
7.10019e-13
7.1e-13
7.10112e-13
7.10144e-13
7.10146e-13
7.09982e-13
7.10085e-13
7.10263e-13
7.10215e-13
7.10024e-13
7.10025e-13
7.10018e-13
7.10327e-13
7.10155e-13
7.10143e-13
7.10121e-13
7.09994e-13
7.10022e-13
7.09987e-13
7.10018e-13
7.1018e-13
7.0994e-13
7.09929e-13
7.10072e-13
7.10035e-13
7.09898e-13
7.10085e-13
7.10124e-13
7.09946e-13
7.10142e-13
7.10087e-13
7.10021e-13
7.10319e-13
7.10054e-13
7.09996e-13
7.10005e-13
7.10181e-13
7.10085e-13
7.1011e-13
7.101e-13
7.1009e-13
7.09885e-13
7.10043e-13
7.1027e-13
6.8767e-13
6.87791e-13
6.87801e-13
6.87802e-13
6.87945e-13
6.87724e-13
6.87809e-13
6.87686e-13
6.87924e-13
6.87829e-13
6.88021e-13
6.87827e-13
6.87647e-13
6.87768e-13
6.87726e-13
6.8785e-13
6.87852e-13
6.87764e-13
6.87738e-13
6.8779e-13
6.87695e-13
6.87784e-13
6.87829e-13
6.87779e-13
6.87697e-13
6.87909e-13
6.87793e-13
6.87659e-13
6.87614e-13
6.87637e-13
6.87814e-13
6.87661e-13
6.87836e-13
6.87727e-13
6.87738e-13
6.87765e-13
6.87752e-13
6.87885e-13
6.87875e-13
6.87636e-13
6.87978e-13
6.87966e-13
6.87636e-13
6.87799e-13
6.8786e-13
6.87686e-13
6.87885e-13
6.87852e-13
6.87655e-13
6.87846e-13
6.8783e-13
6.87944e-13
6.87605e-13
6.87852e-13
6.87843e-13
6.87764e-13
6.87668e-13
6.87794e-13
6.87759e-13
6.87756e-13
5.71646e-13
5.71616e-13
5.71604e-13
5.71656e-13
5.71512e-13
5.71612e-13
5.71535e-13
5.71483e-13
5.71617e-13
5.71466e-13
5.71471e-13
5.7159e-13
5.71639e-13
5.71524e-13
5.71533e-13
5.7148e-13
5.71565e-13
5.71634e-13
5.71485e-13
5.71536e-13
5.7155e-13
5.71657e-13
5.71537e-13
5.71449e-13
5.71558e-13
5.71451e-13
5.71612e-13
5.71709e-13
5.71664e-13
5.71795e-13
5.71607e-13
5.71659e-13
5.71609e-13
5.71654e-13
5.71556e-13
5.71585e-13
5.71544e-13
5.71551e-13
5.71751e-13
5.71725e-13
5.7138e-13
5.71498e-13
5.71716e-13
5.71509e-13
5.71485e-13
5.71622e-13
5.71479e-13
5.71583e-13
5.71478e-13
5.71542e-13
5.7152e-13
5.71454e-13
5.71761e-13
5.7144e-13
5.71475e-13
5.71466e-13
5.71618e-13
5.71538e-13
5.71612e-13
5.7163e-13
4.27353e-13
4.27565e-13
4.27427e-13
4.27494e-13
4.27486e-13
4.27708e-13
4.27635e-13
4.27669e-13
4.27314e-13
4.274e-13
4.27405e-13
4.27492e-13
4.27477e-13
4.27582e-13
4.27508e-13
4.27546e-13
4.2748e-13
4.27462e-13
4.27737e-13
4.27501e-13
4.27545e-13
4.27431e-13
4.27664e-13
4.27436e-13
4.27441e-13
4.27469e-13
4.27442e-13
4.27517e-13
4.27583e-13
4.27414e-13
4.27445e-13
4.275e-13
4.27698e-13
4.27501e-13
4.27504e-13
4.27495e-13
4.27667e-13
4.27601e-13
4.27217e-13
4.27331e-13
4.27621e-13
4.27649e-13
4.27417e-13
4.27559e-13
4.27559e-13
4.27484e-13
4.27534e-13
4.27469e-13
4.27582e-13
4.2752e-13
4.27482e-13
4.2758e-13
4.27519e-13
4.27651e-13
4.27577e-13
4.27716e-13
4.27466e-13
4.27677e-13
4.27648e-13
4.27434e-13
2.96464e-13
2.9627e-13
2.96376e-13
2.96273e-13
2.96526e-13
2.96314e-13
2.96439e-13
2.96047e-13
2.96495e-13
2.9642e-13
2.96578e-13
2.96519e-13
2.96352e-13
2.96275e-13
2.96531e-13
2.9639e-13
2.96419e-13
2.96335e-13
2.96286e-13
2.96506e-13
2.96329e-13
2.96271e-13
2.96149e-13
2.96615e-13
2.96393e-13
2.96437e-13
2.96526e-13
2.96172e-13
2.96253e-13
2.96377e-13
2.9634e-13
2.96409e-13
2.95959e-13
2.96379e-13
2.96443e-13
2.96229e-13
2.96101e-13
2.96337e-13
2.96642e-13
2.96478e-13
2.96512e-13
2.96128e-13
2.96331e-13
2.96441e-13
2.96207e-13
2.96516e-13
2.96502e-13
2.9642e-13
2.96592e-13
2.96305e-13
2.96286e-13
2.96355e-13
2.96289e-13
2.96264e-13
2.96435e-13
2.96298e-13
2.96473e-13
2.96203e-13
2.96237e-13
2.96334e-13
1.94285e-13