/*--------------------------------*- C++ -*----------------------------------*\
| =========                 |                                                 |
| \\      /  F ield         | foam-extend: Open Source CFD                    |
|  \\    /   O peration     | Version:     4.0                                |
|   \\  /    A nd           | Web:         http://www.foam-extend.org         |
|    \\/     M anipulation  |                                                 |
\*---------------------------------------------------------------------------*/
FoamFile
{
    version     2.0;
    format      ascii;
    class       volScalarField;
    location    "16";
    object      dC2;
}
// * * * * * * * * * * * * * * * * * * * * * * * * * * * * * * * * * * * * * //

dimensions      [0 -1 0 0 0 0 0];

internalField   nonuniform List<scalar> 
6960
(
8.68843e-15
8.68842e-15
8.68844e-15
8.68843e-15
8.68842e-15
8.68844e-15
8.68843e-15
8.68842e-15
8.68843e-15
8.68843e-15
8.68843e-15
8.68843e-15
8.68844e-15
8.68843e-15
8.68843e-15
8.68843e-15
8.68843e-15
8.68843e-15
8.68843e-15
8.68844e-15
8.68843e-15
8.68843e-15
8.68843e-15
8.68843e-15
8.68842e-15
8.68843e-15
8.68842e-15
8.68843e-15
8.68843e-15
8.68843e-15
8.68843e-15
8.68844e-15
8.68844e-15
8.68843e-15
8.68843e-15
8.68842e-15
8.68843e-15
8.68843e-15
8.68844e-15
8.68843e-15
8.68842e-15
8.68843e-15
8.68843e-15
8.68843e-15
8.68844e-15
8.68843e-15
8.68843e-15
8.68843e-15
8.68843e-15
8.68843e-15
8.68842e-15
8.68844e-15
8.68843e-15
8.68843e-15
8.68842e-15
8.68843e-15
8.68844e-15
8.68842e-15
8.68843e-15
8.68843e-15
1.12749e-14
1.1275e-14
1.12749e-14
1.12749e-14
1.1275e-14
1.12749e-14
1.12749e-14
1.1275e-14
1.1275e-14
1.12749e-14
1.12749e-14
1.12749e-14
1.12749e-14
1.12749e-14
1.1275e-14
1.1275e-14
1.1275e-14
1.12749e-14
1.1275e-14
1.1275e-14
1.12749e-14
1.12749e-14
1.12749e-14
1.1275e-14
1.1275e-14
1.12749e-14
1.1275e-14
1.12749e-14
1.1275e-14
1.12749e-14
1.1275e-14
1.12749e-14
1.12749e-14
1.12749e-14
1.1275e-14
1.12749e-14
1.12749e-14
1.1275e-14
1.12749e-14
1.1275e-14
1.12749e-14
1.12749e-14
1.12749e-14
1.12749e-14
1.12749e-14
1.12749e-14
1.1275e-14
1.12749e-14
1.12749e-14
1.12749e-14
1.12749e-14
1.12749e-14
1.1275e-14
1.1275e-14
1.1275e-14
1.12749e-14
1.12749e-14
1.1275e-14
1.1275e-14
1.1275e-14
1.96299e-14
1.96299e-14
1.96299e-14
1.96299e-14
1.96299e-14
1.96299e-14
1.963e-14
1.96299e-14
1.96299e-14
1.96299e-14
1.96299e-14
1.96299e-14
1.96299e-14
1.96299e-14
1.96299e-14
1.96299e-14
1.96299e-14
1.96299e-14
1.96299e-14
1.96299e-14
1.96299e-14
1.96299e-14
1.96299e-14
1.96299e-14
1.96299e-14
1.96299e-14
1.96299e-14
1.96299e-14
1.96299e-14
1.96299e-14
1.96299e-14
1.96299e-14
1.96299e-14
1.96299e-14
1.96299e-14
1.96299e-14
1.96299e-14
1.96299e-14
1.96299e-14
1.96299e-14
1.96299e-14
1.96299e-14
1.96299e-14
1.96299e-14
1.96299e-14
1.96299e-14
1.96299e-14
1.96299e-14
1.96299e-14
1.96299e-14
1.96299e-14
1.96299e-14
1.96299e-14
1.96299e-14
1.96299e-14
1.96299e-14
1.96299e-14
1.96299e-14
1.96299e-14
1.96299e-14
3.11926e-14
3.11926e-14
3.11926e-14
3.11925e-14
3.11925e-14
3.11926e-14
3.11925e-14
3.11925e-14
3.11926e-14
3.11925e-14
3.11926e-14
3.11926e-14
3.11925e-14
3.11925e-14
3.11926e-14
3.11925e-14
3.11926e-14
3.11926e-14
3.11926e-14
3.11926e-14
3.11925e-14
3.11926e-14
3.11926e-14
3.11926e-14
3.11926e-14
3.11926e-14
3.11926e-14
3.11927e-14
3.11926e-14
3.11926e-14
3.11926e-14
3.11926e-14
3.11926e-14
3.11926e-14
3.11925e-14
3.11925e-14
3.11926e-14
3.11925e-14
3.11925e-14
3.11926e-14
3.11926e-14
3.11926e-14
3.11926e-14
3.11926e-14
3.11926e-14
3.11926e-14
3.11925e-14
3.11925e-14
3.11926e-14
3.11926e-14
3.11926e-14
3.11926e-14
3.11924e-14
3.11925e-14
3.11926e-14
3.11926e-14
3.11926e-14
3.11926e-14
3.11926e-14
3.11926e-14
4.66285e-14
4.66286e-14
4.66284e-14
4.66286e-14
4.66286e-14
4.66285e-14
4.66286e-14
4.66285e-14
4.66285e-14
4.66286e-14
4.66285e-14
4.66285e-14
4.66284e-14
4.66286e-14
4.66285e-14
4.66287e-14
4.66285e-14
4.66286e-14
4.66286e-14
4.66286e-14
4.66286e-14
4.66285e-14
4.66285e-14
4.66285e-14
4.66285e-14
4.66285e-14
4.66286e-14
4.66285e-14
4.66286e-14
4.66285e-14
4.66286e-14
4.66285e-14
4.66285e-14
4.66286e-14
4.66286e-14
4.66286e-14
4.66286e-14
4.66286e-14
4.66287e-14
4.66286e-14
4.66286e-14
4.66284e-14
4.66285e-14
4.66285e-14
4.66285e-14
4.66285e-14
4.66286e-14
4.66285e-14
4.66286e-14
4.66285e-14
4.66285e-14
4.66286e-14
4.66287e-14
4.66285e-14
4.66285e-14
4.66285e-14
4.66286e-14
4.66285e-14
4.66285e-14
4.66286e-14
6.6695e-14
6.66949e-14
6.66951e-14
6.66949e-14
6.66949e-14
6.6695e-14
6.66948e-14
6.6695e-14
6.66949e-14
6.66949e-14
6.6695e-14
6.6695e-14
6.66951e-14
6.6695e-14
6.66948e-14
6.66948e-14
6.66951e-14
6.66949e-14
6.66949e-14
6.66948e-14
6.66948e-14
6.6695e-14
6.6695e-14
6.6695e-14
6.66949e-14
6.66949e-14
6.6695e-14
6.66949e-14
6.66948e-14
6.6695e-14
6.66948e-14
6.66948e-14
6.6695e-14
6.66948e-14
6.66949e-14
6.6695e-14
6.6695e-14
6.66948e-14
6.66948e-14
6.66948e-14
6.66948e-14
6.66951e-14
6.6695e-14
6.6695e-14
6.66951e-14
6.6695e-14
6.66949e-14
6.6695e-14
6.66948e-14
6.6695e-14
6.66949e-14
6.66949e-14
6.66949e-14
6.66951e-14
6.6695e-14
6.66949e-14
6.66949e-14
6.6695e-14
6.6695e-14
6.66949e-14
9.22592e-14
9.22593e-14
9.22593e-14
9.22595e-14
9.22594e-14
9.22595e-14
9.22596e-14
9.22594e-14
9.22595e-14
9.22593e-14
9.22594e-14
9.22595e-14
9.22593e-14
9.22593e-14
9.22595e-14
9.22593e-14
9.22593e-14
9.22594e-14
9.22595e-14
9.22595e-14
9.22594e-14
9.22594e-14
9.22595e-14
9.22592e-14
9.22594e-14
9.22595e-14
9.22595e-14
9.22595e-14
9.22596e-14
9.22594e-14
9.22597e-14
9.22596e-14
9.22594e-14
9.22594e-14
9.22595e-14
9.22594e-14
9.22595e-14
9.22595e-14
9.22595e-14
9.22595e-14
9.22595e-14
9.22593e-14
9.22594e-14
9.22594e-14
9.22592e-14
9.22593e-14
9.22594e-14
9.22594e-14
9.22594e-14
9.22594e-14
9.22594e-14
9.22595e-14
9.22593e-14
9.22593e-14
9.22595e-14
9.22593e-14
9.22594e-14
9.22593e-14
9.22594e-14
9.22594e-14
1.24351e-13
1.24351e-13
1.24351e-13
1.24351e-13
1.24351e-13
1.2435e-13
1.24351e-13
1.24351e-13
1.24351e-13
1.24351e-13
1.24351e-13
1.24351e-13
1.24351e-13
1.24351e-13
1.24351e-13
1.24351e-13
1.24351e-13
1.24351e-13
1.24351e-13
1.24351e-13
1.24351e-13
1.24351e-13
1.24351e-13
1.24351e-13
1.24351e-13
1.2435e-13
1.2435e-13
1.24351e-13
1.24351e-13
1.24351e-13
1.2435e-13
1.24351e-13
1.24351e-13
1.24351e-13
1.2435e-13
1.24351e-13
1.2435e-13
1.24351e-13
1.24351e-13
1.24351e-13
1.24351e-13
1.24351e-13
1.2435e-13
1.24351e-13
1.24351e-13
1.24351e-13
1.2435e-13
1.24351e-13
1.24351e-13
1.2435e-13
1.24351e-13
1.24351e-13
1.24351e-13
1.24351e-13
1.24351e-13
1.24351e-13
1.24351e-13
1.24351e-13
1.24351e-13
1.24351e-13
1.6424e-13
1.6424e-13
1.6424e-13
1.6424e-13
1.6424e-13
1.6424e-13
1.6424e-13
1.6424e-13
1.6424e-13
1.6424e-13
1.64241e-13
1.6424e-13
1.6424e-13
1.6424e-13
1.6424e-13
1.6424e-13
1.6424e-13
1.6424e-13
1.6424e-13
1.6424e-13
1.6424e-13
1.6424e-13
1.6424e-13
1.6424e-13
1.6424e-13
1.6424e-13
1.6424e-13
1.6424e-13
1.6424e-13
1.6424e-13
1.6424e-13
1.6424e-13
1.6424e-13
1.6424e-13
1.6424e-13
1.6424e-13
1.6424e-13
1.6424e-13
1.6424e-13
1.6424e-13
1.6424e-13
1.6424e-13
1.6424e-13
1.6424e-13
1.6424e-13
1.6424e-13
1.64241e-13
1.6424e-13
1.6424e-13
1.64241e-13
1.6424e-13
1.6424e-13
1.6424e-13
1.6424e-13
1.6424e-13
1.6424e-13
1.6424e-13
1.6424e-13
1.6424e-13
1.6424e-13
2.13505e-13
2.13505e-13
2.13505e-13
2.13505e-13
2.13505e-13
2.13505e-13
2.13505e-13
2.13504e-13
2.13505e-13
2.13505e-13
2.13504e-13
2.13504e-13
2.13505e-13
2.13504e-13
2.13505e-13
2.13504e-13
2.13505e-13
2.13505e-13
2.13504e-13
2.13505e-13
2.13505e-13
2.13505e-13
2.13505e-13
2.13505e-13
2.13505e-13
2.13505e-13
2.13505e-13
2.13505e-13
2.13505e-13
2.13505e-13
2.13505e-13
2.13505e-13
2.13504e-13
2.13505e-13
2.13505e-13
2.13504e-13
2.13504e-13
2.13505e-13
2.13505e-13
2.13505e-13
2.13505e-13
2.13505e-13
2.13505e-13
2.13504e-13
2.13504e-13
2.13505e-13
2.13505e-13
2.13505e-13
2.13505e-13
2.13504e-13
2.13504e-13
2.13505e-13
2.13505e-13
2.13505e-13
2.13505e-13
2.13505e-13
2.13505e-13
2.13505e-13
2.13505e-13
2.13505e-13
2.73912e-13
2.73912e-13
2.73913e-13
2.73913e-13
2.73913e-13
2.73913e-13
2.73913e-13
2.73913e-13
2.73912e-13
2.73912e-13
2.73913e-13
2.73913e-13
2.73913e-13
2.73914e-13
2.73912e-13
2.73913e-13
2.73912e-13
2.73912e-13
2.73913e-13
2.73912e-13
2.73912e-13
2.73913e-13
2.73913e-13
2.73912e-13
2.73913e-13
2.73912e-13
2.73913e-13
2.73912e-13
2.73912e-13
2.73912e-13
2.73913e-13
2.73913e-13
2.73913e-13
2.73913e-13
2.73913e-13
2.73913e-13
2.73912e-13
2.73913e-13
2.73913e-13
2.73912e-13
2.73913e-13
2.73912e-13
2.73913e-13
2.73913e-13
2.73913e-13
2.73912e-13
2.73913e-13
2.73912e-13
2.73912e-13
2.73913e-13
2.73913e-13
2.73912e-13
2.73913e-13
2.73912e-13
2.73913e-13
2.73912e-13
2.73913e-13
2.73913e-13
2.73913e-13
2.73912e-13
3.46773e-13
3.46773e-13
3.46772e-13
3.46772e-13
3.46771e-13
3.46771e-13
3.46772e-13
3.46772e-13
3.46771e-13
3.46772e-13
3.46772e-13
3.46772e-13
3.46772e-13
3.4677e-13
3.46772e-13
3.46772e-13
3.46773e-13
3.46772e-13
3.46772e-13
3.46772e-13
3.46772e-13
3.46772e-13
3.46772e-13
3.46773e-13
3.46772e-13
3.46772e-13
3.46772e-13
3.46772e-13
3.46773e-13
3.46772e-13
3.46772e-13
3.46772e-13
3.46772e-13
3.46772e-13
3.46772e-13
3.46771e-13
3.46772e-13
3.46772e-13
3.46772e-13
3.46772e-13
3.46772e-13
3.46772e-13
3.46772e-13
3.46771e-13
3.46772e-13
3.46772e-13
3.46771e-13
3.46772e-13
3.46772e-13
3.46772e-13
3.46772e-13
3.46772e-13
3.46771e-13
3.46773e-13
3.46772e-13
3.46772e-13
3.46772e-13
3.46772e-13
3.46771e-13
3.46773e-13
4.31137e-13
4.31136e-13
4.31137e-13
4.31138e-13
4.31138e-13
4.31138e-13
4.31137e-13
4.31137e-13
4.31138e-13
4.31137e-13
4.31138e-13
4.31137e-13
4.31137e-13
4.31138e-13
4.31137e-13
4.31138e-13
4.31137e-13
4.31138e-13
4.31136e-13
4.31139e-13
4.31138e-13
4.31138e-13
4.31138e-13
4.31137e-13
4.31138e-13
4.31137e-13
4.31138e-13
4.31137e-13
4.31137e-13
4.31137e-13
4.31139e-13
4.31137e-13
4.31138e-13
4.31137e-13
4.31139e-13
4.31137e-13
4.31138e-13
4.31138e-13
4.31137e-13
4.31138e-13
4.31138e-13
4.31137e-13
4.31137e-13
4.31138e-13
4.31137e-13
4.31138e-13
4.31139e-13
4.31138e-13
4.31138e-13
4.31137e-13
4.31138e-13
4.31137e-13
4.31138e-13
4.31137e-13
4.31138e-13
4.31138e-13
4.31137e-13
4.31138e-13
4.31139e-13
4.31137e-13
5.20084e-13
5.20085e-13
5.20084e-13
5.20083e-13
5.20084e-13
5.20085e-13
5.20085e-13
5.20083e-13
5.20083e-13
5.20084e-13
5.20083e-13
5.20083e-13
5.20085e-13
5.20083e-13
5.20084e-13
5.20084e-13
5.20082e-13
5.20084e-13
5.20085e-13
5.20083e-13
5.20082e-13
5.20084e-13
5.20084e-13
5.20084e-13
5.20085e-13
5.20084e-13
5.20083e-13
5.20084e-13
5.20084e-13
5.20084e-13
5.20083e-13
5.20086e-13
5.20083e-13
5.20084e-13
5.20083e-13
5.20085e-13
5.20083e-13
5.20082e-13
5.20085e-13
5.20083e-13
5.20084e-13
5.20084e-13
5.20085e-13
5.20083e-13
5.20084e-13
5.20083e-13
5.20083e-13
5.20084e-13
5.20083e-13
5.20084e-13
5.20084e-13
5.20084e-13
5.20084e-13
5.20084e-13
5.20083e-13
5.20083e-13
5.20083e-13
5.20084e-13
5.20083e-13
5.20084e-13
5.94586e-13
5.94587e-13
5.94586e-13
5.94587e-13
5.94585e-13
5.94586e-13
5.94586e-13
5.94588e-13
5.94589e-13
5.94587e-13
5.94586e-13
5.94589e-13
5.94587e-13
5.94588e-13
5.94587e-13
5.94587e-13
5.94589e-13
5.94586e-13
5.94587e-13
5.94586e-13
5.94588e-13
5.94587e-13
5.94587e-13
5.94587e-13
5.94585e-13
5.94588e-13
5.94588e-13
5.94586e-13
5.94587e-13
5.94587e-13
5.94586e-13
5.94585e-13
5.94587e-13
5.94588e-13
5.94589e-13
5.94586e-13
5.94588e-13
5.94588e-13
5.94586e-13
5.94586e-13
5.94587e-13
5.94586e-13
5.94586e-13
5.94587e-13
5.94587e-13
5.94587e-13
5.94588e-13
5.94587e-13
5.94586e-13
5.94585e-13
5.94587e-13
5.94587e-13
5.94587e-13
5.94587e-13
5.94587e-13
5.94587e-13
5.94586e-13
5.94587e-13
5.94587e-13
5.94587e-13
6.16104e-13
6.161e-13
6.16101e-13
6.16104e-13
6.16106e-13
6.16102e-13
6.161e-13
6.16101e-13
6.161e-13
6.16101e-13
6.16103e-13
6.16098e-13
6.16101e-13
6.16103e-13
6.16101e-13
6.16102e-13
6.16102e-13
6.16103e-13
6.161e-13
6.16104e-13
6.161e-13
6.16102e-13
6.16103e-13
6.16103e-13
6.16104e-13
6.161e-13
6.161e-13
6.16103e-13
6.16101e-13
6.16103e-13
6.16105e-13
6.16104e-13
6.16101e-13
6.161e-13
6.16099e-13
6.16103e-13
6.16099e-13
6.16105e-13
6.16099e-13
6.16101e-13
6.16102e-13
6.16102e-13
6.16103e-13
6.16101e-13
6.16103e-13
6.16102e-13
6.161e-13
6.16103e-13
6.16104e-13
6.16106e-13
6.16102e-13
6.16103e-13
6.16102e-13
6.16102e-13
6.16104e-13
6.16102e-13
6.16105e-13
6.16102e-13
6.16104e-13
6.161e-13
5.22504e-13
5.22508e-13
5.22509e-13
5.225e-13
5.22505e-13
5.22505e-13
5.22506e-13
5.22505e-13
5.22506e-13
5.22503e-13
5.22505e-13
5.22509e-13
5.22505e-13
5.22505e-13
5.22506e-13
5.22506e-13
5.22504e-13
5.22507e-13
5.22509e-13
5.22503e-13
5.22508e-13
5.22505e-13
5.22505e-13
5.22502e-13
5.22509e-13
5.22508e-13
5.22511e-13
5.22507e-13
5.22506e-13
5.22505e-13
5.22502e-13
5.22501e-13
5.22507e-13
5.22505e-13
5.22505e-13
5.22504e-13
5.2251e-13
5.22501e-13
5.22507e-13
5.22505e-13
5.22506e-13
5.22506e-13
5.22507e-13
5.22507e-13
5.22505e-13
5.22505e-13
5.22507e-13
5.22504e-13
5.225e-13
5.22504e-13
5.22503e-13
5.22506e-13
5.22508e-13
5.22502e-13
5.22504e-13
5.22503e-13
5.22504e-13
5.22504e-13
5.22504e-13
5.22507e-13
2.37326e-13
2.37322e-13
2.37318e-13
2.37325e-13
2.37322e-13
2.37325e-13
2.37326e-13
2.37321e-13
2.3732e-13
2.37326e-13
2.37318e-13
2.3732e-13
2.37321e-13
2.37321e-13
2.37324e-13
2.37322e-13
2.37321e-13
2.37321e-13
2.37321e-13
2.37324e-13
2.37319e-13
2.37323e-13
2.37324e-13
2.37325e-13
2.37319e-13
2.37323e-13
2.37317e-13
2.37321e-13
2.37325e-13
2.37323e-13
2.37323e-13
2.37328e-13
2.37319e-13
2.37325e-13
2.37324e-13
2.3732e-13
2.37322e-13
2.37329e-13
2.37324e-13
2.37323e-13
2.37324e-13
2.37322e-13
2.37321e-13
2.37323e-13
2.37322e-13
2.37325e-13
2.37321e-13
2.37323e-13
2.37325e-13
2.3732e-13
2.37322e-13
2.37321e-13
2.37322e-13
2.3733e-13
2.37326e-13
2.37327e-13
2.37322e-13
2.37324e-13
2.37321e-13
2.37324e-13
-2.94502e-13
-2.94502e-13
-2.94497e-13
-2.94495e-13
-2.94508e-13
-2.94507e-13
-2.94501e-13
-2.94498e-13
-2.94498e-13
-2.94502e-13
-2.94494e-13
-2.94505e-13
-2.94497e-13
-2.945e-13
-2.94509e-13
-2.94502e-13
-2.94496e-13
-2.94501e-13
-2.945e-13
-2.94502e-13
-2.94494e-13
-2.94508e-13
-2.94499e-13
-2.94499e-13
-2.94497e-13
-2.94504e-13
-2.94501e-13
-2.94503e-13
-2.94504e-13
-2.94501e-13
-2.94499e-13
-2.94505e-13
-2.94494e-13
-2.94504e-13
-2.945e-13
-2.94496e-13
-2.94502e-13
-2.94508e-13
-2.94504e-13
-2.94499e-13
-2.94501e-13
-2.94501e-13
-2.94508e-13
-2.94502e-13
-2.94497e-13
-2.94498e-13
-2.94505e-13
-2.94498e-13
-2.94499e-13
-2.94496e-13
-2.94496e-13
-2.94502e-13
-2.94507e-13
-2.94503e-13
-2.94502e-13
-2.94498e-13
-2.94501e-13
-2.94499e-13
-2.94501e-13
-2.94504e-13
-1.03885e-12
-1.03886e-12
-1.03885e-12
-1.03885e-12
-1.03884e-12
-1.03885e-12
-1.03885e-12
-1.03885e-12
-1.03886e-12
-1.03885e-12
-1.03885e-12
-1.03884e-12
-1.03886e-12
-1.03885e-12
-1.03884e-12
-1.03885e-12
-1.03886e-12
-1.03886e-12
-1.03885e-12
-1.03884e-12
-1.03886e-12
-1.03884e-12
-1.03885e-12
-1.03886e-12
-1.03885e-12
-1.03885e-12
-1.03885e-12
-1.03885e-12
-1.03885e-12
-1.03886e-12
-1.03885e-12
-1.03885e-12
-1.03885e-12
-1.03885e-12
-1.03885e-12
-1.03885e-12
-1.03885e-12
-1.03884e-12
-1.03884e-12
-1.03886e-12
-1.03885e-12
-1.03885e-12
-1.03884e-12
-1.03885e-12
-1.03885e-12
-1.03886e-12
-1.03885e-12
-1.03886e-12
-1.03885e-12
-1.03886e-12
-1.03886e-12
-1.03885e-12
-1.03884e-12
-1.03886e-12
-1.03885e-12
-1.03886e-12
-1.03885e-12
-1.03885e-12
-1.03885e-12
-1.03885e-12
-1.79625e-12
-1.79624e-12
-1.79625e-12
-1.79626e-12
-1.79625e-12
-1.79626e-12
-1.79625e-12
-1.79626e-12
-1.79624e-12
-1.79625e-12
-1.79625e-12
-1.79627e-12
-1.79625e-12
-1.79626e-12
-1.79625e-12
-1.79625e-12
-1.79624e-12
-1.79624e-12
-1.79625e-12
-1.79626e-12
-1.79625e-12
-1.79625e-12
-1.79624e-12
-1.79624e-12
-1.79625e-12
-1.79625e-12
-1.79626e-12
-1.79625e-12
-1.79625e-12
-1.79625e-12
-1.79626e-12
-1.79626e-12
-1.79626e-12
-1.79626e-12
-1.79626e-12
-1.79626e-12
-1.79625e-12
-1.79626e-12
-1.79626e-12
-1.79624e-12
-1.79625e-12
-1.79625e-12
-1.79626e-12
-1.79625e-12
-1.79626e-12
-1.79624e-12
-1.79625e-12
-1.79624e-12
-1.79625e-12
-1.79626e-12
-1.79625e-12
-1.79625e-12
-1.79626e-12
-1.79625e-12
-1.79625e-12
-1.79625e-12
-1.79626e-12
-1.79625e-12
-1.79626e-12
-1.79625e-12
-2.18684e-12
-2.18685e-12
-2.18683e-12
-2.18682e-12
-2.18684e-12
-2.18683e-12
-2.18683e-12
-2.18683e-12
-2.18682e-12
-2.18683e-12
-2.18683e-12
-2.18682e-12
-2.18685e-12
-2.18683e-12
-2.18684e-12
-2.18683e-12
-2.18683e-12
-2.18684e-12
-2.18683e-12
-2.18684e-12
-2.18682e-12
-2.18684e-12
-2.18683e-12
-2.18683e-12
-2.18684e-12
-2.18684e-12
-2.18682e-12
-2.18683e-12
-2.18682e-12
-2.18684e-12
-2.18683e-12
-2.18682e-12
-2.18682e-12
-2.18682e-12
-2.18683e-12
-2.18683e-12
-2.18683e-12
-2.18683e-12
-2.18683e-12
-2.18683e-12
-2.18683e-12
-2.18682e-12
-2.18684e-12
-2.18683e-12
-2.18681e-12
-2.18684e-12
-2.18682e-12
-2.18684e-12
-2.18683e-12
-2.18683e-12
-2.18684e-12
-2.18683e-12
-2.18681e-12
-2.18684e-12
-2.18683e-12
-2.18684e-12
-2.18682e-12
-2.18683e-12
-2.18683e-12
-2.18683e-12
-1.78682e-12
-1.78682e-12
-1.78684e-12
-1.78684e-12
-1.78683e-12
-1.78683e-12
-1.78684e-12
-1.78683e-12
-1.78684e-12
-1.78685e-12
-1.78684e-12
-1.78684e-12
-1.78681e-12
-1.78682e-12
-1.78684e-12
-1.78684e-12
-1.78685e-12
-1.78683e-12
-1.78684e-12
-1.78684e-12
-1.78684e-12
-1.78683e-12
-1.78685e-12
-1.78684e-12
-1.78683e-12
-1.78681e-12
-1.78683e-12
-1.78685e-12
-1.78683e-12
-1.78682e-12
-1.78684e-12
-1.78683e-12
-1.78684e-12
-1.78686e-12
-1.78684e-12
-1.78684e-12
-1.78684e-12
-1.78683e-12
-1.78685e-12
-1.78684e-12
-1.78683e-12
-1.78685e-12
-1.78684e-12
-1.78683e-12
-1.78685e-12
-1.78685e-12
-1.78685e-12
-1.78683e-12
-1.78683e-12
-1.78682e-12
-1.78685e-12
-1.78684e-12
-1.78685e-12
-1.78683e-12
-1.78683e-12
-1.78684e-12
-1.78685e-12
-1.78684e-12
-1.78681e-12
-1.78684e-12
-4.30847e-13
-4.30821e-13
-4.30827e-13
-4.30839e-13
-4.30819e-13
-4.30847e-13
-4.30817e-13
-4.30839e-13
-4.30822e-13
-4.30834e-13
-4.30831e-13
-4.30848e-13
-4.30857e-13
-4.3085e-13
-4.30846e-13
-4.30834e-13
-4.30822e-13
-4.30845e-13
-4.30805e-13
-4.30837e-13
-4.30816e-13
-4.30812e-13
-4.30816e-13
-4.30847e-13
-4.30831e-13
-4.30842e-13
-4.30835e-13
-4.30846e-13
-4.30861e-13
-4.30851e-13
-4.3082e-13
-4.30835e-13
-4.3084e-13
-4.30815e-13
-4.3083e-13
-4.30832e-13
-4.30859e-13
-4.30841e-13
-4.30814e-13
-4.30814e-13
-4.30844e-13
-4.30818e-13
-4.30837e-13
-4.30844e-13
-4.30835e-13
-4.30802e-13
-4.30828e-13
-4.30838e-13
-4.30827e-13
-4.30855e-13
-4.30833e-13
-4.3083e-13
-4.30837e-13
-4.3085e-13
-4.30853e-13
-4.30806e-13
-4.30828e-13
-4.30819e-13
-4.30853e-13
-4.30822e-13
1.49518e-12
1.49515e-12
1.4952e-12
1.49516e-12
1.49517e-12
1.4952e-12
1.49518e-12
1.4952e-12
1.49517e-12
1.49519e-12
1.49519e-12
1.49521e-12
1.49524e-12
1.49517e-12
1.49522e-12
1.49518e-12
1.49519e-12
1.49516e-12
1.49516e-12
1.49517e-12
1.49515e-12
1.4952e-12
1.4952e-12
1.49521e-12
1.49518e-12
1.49516e-12
1.49519e-12
1.49521e-12
1.49523e-12
1.49516e-12
1.49518e-12
1.4952e-12
1.49518e-12
1.49521e-12
1.49519e-12
1.49518e-12
1.49523e-12
1.49519e-12
1.49515e-12
1.49515e-12
1.49517e-12
1.49513e-12
1.49517e-12
1.49518e-12
1.49518e-12
1.49514e-12
1.4952e-12
1.49517e-12
1.49518e-12
1.49517e-12
1.49523e-12
1.49513e-12
1.4952e-12
1.49518e-12
1.49519e-12
1.49515e-12
1.49517e-12
1.49518e-12
1.49517e-12
1.49515e-12
3.08912e-12
3.08906e-12
3.08908e-12
3.08908e-12
3.08907e-12
3.0891e-12
3.08907e-12
3.08907e-12
3.0891e-12
3.08903e-12
3.08908e-12
3.08907e-12
3.08902e-12
3.0891e-12
3.08905e-12
3.08906e-12
3.08905e-12
3.08916e-12
3.08904e-12
3.08906e-12
3.08914e-12
3.08904e-12
3.08907e-12
3.08901e-12
3.08906e-12
3.08906e-12
3.08906e-12
3.08908e-12
3.08908e-12
3.08913e-12
3.08909e-12
3.08903e-12
3.08908e-12
3.08901e-12
3.08907e-12
3.08904e-12
3.08904e-12
3.08906e-12
3.08913e-12
3.08912e-12
3.08908e-12
3.08914e-12
3.08912e-12
3.08909e-12
3.08908e-12
3.08907e-12
3.08909e-12
3.0891e-12
3.089e-12
3.08911e-12
3.08901e-12
3.08913e-12
3.08906e-12
3.0891e-12
3.08907e-12
3.0891e-12
3.08912e-12
3.08905e-12
3.08909e-12
3.08912e-12
3.45171e-12
3.4518e-12
3.45177e-12
3.45176e-12
3.4517e-12
3.4517e-12
3.45178e-12
3.45172e-12
3.4517e-12
3.45176e-12
3.45172e-12
3.4517e-12
3.45173e-12
3.45168e-12
3.45175e-12
3.45172e-12
3.45175e-12
3.45165e-12
3.45178e-12
3.45177e-12
3.45169e-12
3.45174e-12
3.4517e-12
3.45181e-12
3.45179e-12
3.45177e-12
3.45178e-12
3.4517e-12
3.45167e-12
3.45172e-12
3.4517e-12
3.45174e-12
3.45169e-12
3.45177e-12
3.45178e-12
3.45175e-12
3.45176e-12
3.45175e-12
3.45174e-12
3.45171e-12
3.45174e-12
3.45167e-12
3.45173e-12
3.45174e-12
3.45172e-12
3.45174e-12
3.45173e-12
3.45169e-12
3.45184e-12
3.45169e-12
3.45182e-12
3.45174e-12
3.45171e-12
3.45172e-12
3.45176e-12
3.45172e-12
3.45173e-12
3.45178e-12
3.45177e-12
3.45176e-12
2.36503e-12
2.36503e-12
2.36497e-12
2.36503e-12
2.36508e-12
2.36506e-12
2.36497e-12
2.36509e-12
2.36507e-12
2.36504e-12
2.36503e-12
2.36506e-12
2.36499e-12
2.36512e-12
2.36499e-12
2.36508e-12
2.36505e-12
2.36507e-12
2.36498e-12
2.36496e-12
2.36505e-12
2.36507e-12
2.36509e-12
2.36503e-12
2.36497e-12
2.36503e-12
2.36497e-12
2.36505e-12
2.36506e-12
2.36505e-12
2.3651e-12
2.36508e-12
2.36513e-12
2.36506e-12
2.36499e-12
2.36506e-12
2.36502e-12
2.36501e-12
2.36496e-12
2.36505e-12
2.36497e-12
2.36508e-12
2.36502e-12
2.36501e-12
2.36505e-12
2.36503e-12
2.36501e-12
2.36517e-12
2.36497e-12
2.36509e-12
2.36495e-12
2.36503e-12
2.36506e-12
2.36505e-12
2.36497e-12
2.36506e-12
2.36506e-12
2.36502e-12
2.36497e-12
2.36496e-12
5.00714e-13
5.00629e-13
5.0071e-13
5.00687e-13
5.00659e-13
5.00619e-13
5.00731e-13
5.00732e-13
5.0068e-13
5.00719e-13
5.00751e-13
5.00673e-13
5.00757e-13
5.00687e-13
5.00768e-13
5.00675e-13
5.00653e-13
5.00625e-13
5.0071e-13
5.00716e-13
5.0064e-13
5.006e-13
5.00626e-13
5.00733e-13
5.00801e-13
5.00662e-13
5.00759e-13
5.00771e-13
5.00717e-13
5.00724e-13
5.00642e-13
5.00593e-13
5.00571e-13
5.0065e-13
5.00729e-13
5.0069e-13
5.00672e-13
5.00701e-13
5.0072e-13
5.00715e-13
5.00768e-13
5.00665e-13
5.00628e-13
5.00658e-13
5.00656e-13
5.00629e-13
5.00659e-13
5.00601e-13
5.00651e-13
5.00666e-13
5.00739e-13
5.00636e-13
5.00706e-13
5.00697e-13
5.00736e-13
5.00671e-13
5.00665e-13
5.00687e-13
5.00643e-13
5.00704e-13
-1.09707e-12
-1.09697e-12
-1.09695e-12
-1.09692e-12
-1.09688e-12
-1.09695e-12
-1.09702e-12
-1.09712e-12
-1.09699e-12
-1.09703e-12
-1.09699e-12
-1.09698e-12
-1.09702e-12
-1.09711e-12
-1.09699e-12
-1.09702e-12
-1.09702e-12
-1.09695e-12
-1.097e-12
-1.09706e-12
-1.09693e-12
-1.09695e-12
-1.09698e-12
-1.09708e-12
-1.09717e-12
-1.09704e-12
-1.09708e-12
-1.09712e-12
-1.097e-12
-1.09706e-12
-1.09702e-12
-1.09694e-12
-1.09694e-12
-1.097e-12
-1.09707e-12
-1.09693e-12
-1.09695e-12
-1.09697e-12
-1.09702e-12
-1.09705e-12
-1.09708e-12
-1.0969e-12
-1.097e-12
-1.09705e-12
-1.097e-12
-1.09697e-12
-1.09695e-12
-1.09694e-12
-1.09702e-12
-1.09695e-12
-1.09701e-12
-1.09689e-12
-1.09694e-12
-1.09692e-12
-1.097e-12
-1.09702e-12
-1.097e-12
-1.09704e-12
-1.09696e-12
-1.09702e-12
-1.77653e-12
-1.77652e-12
-1.77655e-12
-1.77664e-12
-1.77665e-12
-1.77663e-12
-1.77648e-12
-1.7765e-12
-1.7767e-12
-1.77661e-12
-1.77672e-12
-1.77666e-12
-1.77665e-12
-1.77653e-12
-1.77668e-12
-1.77662e-12
-1.77661e-12
-1.77658e-12
-1.77664e-12
-1.77653e-12
-1.77658e-12
-1.77665e-12
-1.77658e-12
-1.77661e-12
-1.77652e-12
-1.77652e-12
-1.77648e-12
-1.77652e-12
-1.77661e-12
-1.77658e-12
-1.77645e-12
-1.77654e-12
-1.7765e-12
-1.77658e-12
-1.77655e-12
-1.77662e-12
-1.77666e-12
-1.7766e-12
-1.77657e-12
-1.77654e-12
-1.77649e-12
-1.77664e-12
-1.77668e-12
-1.77652e-12
-1.77661e-12
-1.7766e-12
-1.77665e-12
-1.77662e-12
-1.77663e-12
-1.77672e-12
-1.77668e-12
-1.77667e-12
-1.77667e-12
-1.77674e-12
-1.77663e-12
-1.77655e-12
-1.77656e-12
-1.77653e-12
-1.77655e-12
-1.77653e-12
-1.59649e-12
-1.59656e-12
-1.59654e-12
-1.59644e-12
-1.59659e-12
-1.59656e-12
-1.59668e-12
-1.59638e-12
-1.59634e-12
-1.59636e-12
-1.59634e-12
-1.59652e-12
-1.59649e-12
-1.59641e-12
-1.5964e-12
-1.59632e-12
-1.59639e-12
-1.59654e-12
-1.59636e-12
-1.59642e-12
-1.5965e-12
-1.59633e-12
-1.59652e-12
-1.59638e-12
-1.59641e-12
-1.59644e-12
-1.5966e-12
-1.59635e-12
-1.59645e-12
-1.5965e-12
-1.59669e-12
-1.59655e-12
-1.59654e-12
-1.59645e-12
-1.59645e-12
-1.59644e-12
-1.59638e-12
-1.5965e-12
-1.59644e-12
-1.59642e-12
-1.59649e-12
-1.59634e-12
-1.59635e-12
-1.59659e-12
-1.59639e-12
-1.59646e-12
-1.59646e-12
-1.59639e-12
-1.59639e-12
-1.59651e-12
-1.59639e-12
-1.59647e-12
-1.59633e-12
-1.59627e-12
-1.59652e-12
-1.59652e-12
-1.59643e-12
-1.59659e-12
-1.59656e-12
-1.59654e-12
-1.03885e-12
-1.0389e-12
-1.03892e-12
-1.03893e-12
-1.03888e-12
-1.03879e-12
-1.03867e-12
-1.03897e-12
-1.03904e-12
-1.03892e-12
-1.03889e-12
-1.03883e-12
-1.03881e-12
-1.03906e-12
-1.03891e-12
-1.03906e-12
-1.03892e-12
-1.03885e-12
-1.03887e-12
-1.03903e-12
-1.03869e-12
-1.03912e-12
-1.03884e-12
-1.03908e-12
-1.03898e-12
-1.03898e-12
-1.03884e-12
-1.03892e-12
-1.03887e-12
-1.03872e-12
-1.03875e-12
-1.0388e-12
-1.03881e-12
-1.03893e-12
-1.03893e-12
-1.03888e-12
-1.03904e-12
-1.03877e-12
-1.03885e-12
-1.03889e-12
-1.03899e-12
-1.03908e-12
-1.03888e-12
-1.03873e-12
-1.03896e-12
-1.03892e-12
-1.03892e-12
-1.03897e-12
-1.03896e-12
-1.03872e-12
-1.03901e-12
-1.03886e-12
-1.03895e-12
-1.03913e-12
-1.03865e-12
-1.03877e-12
-1.03896e-12
-1.03872e-12
-1.0387e-12
-1.03895e-12
-5.44505e-13
-5.4461e-13
-5.44532e-13
-5.44549e-13
-5.44526e-13
-5.44668e-13
-5.44747e-13
-5.44372e-13
-5.44499e-13
-5.44529e-13
-5.44578e-13
-5.44613e-13
-5.44563e-13
-5.44493e-13
-5.44541e-13
-5.44386e-13
-5.4467e-13
-5.44724e-13
-5.44582e-13
-5.44431e-13
-5.44644e-13
-5.44613e-13
-5.44595e-13
-5.44462e-13
-5.44439e-13
-5.44683e-13
-5.44623e-13
-5.44594e-13
-5.44364e-13
-5.44647e-13
-5.44503e-13
-5.4457e-13
-5.44663e-13
-5.44627e-13
-5.44563e-13
-5.44655e-13
-5.44367e-13
-5.44842e-13
-5.4473e-13
-5.44649e-13
-5.44456e-13
-5.44538e-13
-5.44725e-13
-5.44642e-13
-5.44704e-13
-5.44481e-13
-5.44537e-13
-5.44712e-13
-5.44375e-13
-5.44661e-13
-5.4465e-13
-5.44745e-13
-5.44544e-13
-5.44403e-13
-5.44758e-13
-5.44749e-13
-5.44484e-13
-5.44814e-13
-5.44684e-13
-5.44522e-13
-2.85e-13
-2.84589e-13
-2.84656e-13
-2.8461e-13
-2.84563e-13
-2.84628e-13
-2.84646e-13
-2.84888e-13
-2.84664e-13
-2.84504e-13
-2.84622e-13
-2.84644e-13
-2.84806e-13
-2.84742e-13
-2.8468e-13
-2.8475e-13
-2.84594e-13
-2.84674e-13
-2.84637e-13
-2.84772e-13
-2.84845e-13
-2.84595e-13
-2.84589e-13
-2.84826e-13
-2.84824e-13
-2.84621e-13
-2.84552e-13
-2.84601e-13
-2.84929e-13
-2.84782e-13
-2.84717e-13
-2.84796e-13
-2.84594e-13
-2.84572e-13
-2.8462e-13
-2.84622e-13
-2.8472e-13
-2.84556e-13
-2.84443e-13
-2.84752e-13
-2.84615e-13
-2.84466e-13
-2.84598e-13
-2.84637e-13
-2.84561e-13
-2.8478e-13
-2.84661e-13
-2.84529e-13
-2.85002e-13
-2.84686e-13
-2.84562e-13
-2.84515e-13
-2.84843e-13
-2.84673e-13
-2.84737e-13
-2.84553e-13
-2.84701e-13
-2.84383e-13
-2.84591e-13
-2.84828e-13
-2.14466e-13
-2.14585e-13
-2.14697e-13
-2.14649e-13
-2.14805e-13
-2.14544e-13
-2.14573e-13
-2.14519e-13
-2.14822e-13
-2.1475e-13
-2.14957e-13
-2.14732e-13
-2.14413e-13
-2.1456e-13
-2.14574e-13
-2.14648e-13
-2.14712e-13
-2.14608e-13
-2.14592e-13
-2.14636e-13
-2.14595e-13
-2.14619e-13
-2.14722e-13
-2.14585e-13
-2.14522e-13
-2.14732e-13
-2.14711e-13
-2.14545e-13
-2.14308e-13
-2.1444e-13
-2.14639e-13
-2.14543e-13
-2.14696e-13
-2.14609e-13
-2.14598e-13
-2.14627e-13
-2.14626e-13
-2.1482e-13
-2.147e-13
-2.14499e-13
-2.14882e-13
-2.14883e-13
-2.14477e-13
-2.14663e-13
-2.14682e-13
-2.14587e-13
-2.14773e-13
-2.14732e-13
-2.14555e-13
-2.1471e-13
-2.14788e-13
-2.14795e-13
-2.14351e-13
-2.14677e-13
-2.14717e-13
-2.1454e-13
-2.14584e-13
-2.14729e-13
-2.1461e-13
-2.14564e-13
-2.24716e-13
-2.24733e-13
-2.24633e-13
-2.24699e-13
-2.24718e-13
-2.24656e-13
-2.24692e-13
-2.24561e-13
-2.24687e-13
-2.24587e-13
-2.24517e-13
-2.24753e-13
-2.24901e-13
-2.24613e-13
-2.24548e-13
-2.24592e-13
-2.24566e-13
-2.24705e-13
-2.24521e-13
-2.24666e-13
-2.24539e-13
-2.24861e-13
-2.24643e-13
-2.24479e-13
-2.24648e-13
-2.24515e-13
-2.24724e-13
-2.24967e-13
-2.24801e-13
-2.24947e-13
-2.2477e-13
-2.24802e-13
-2.2465e-13
-2.24681e-13
-2.24653e-13
-2.2468e-13
-2.24712e-13
-2.24623e-13
-2.24802e-13
-2.24854e-13
-2.244e-13
-2.24498e-13
-2.24885e-13
-2.24489e-13
-2.24542e-13
-2.24676e-13
-2.24519e-13
-2.24699e-13
-2.24611e-13
-2.24574e-13
-2.24616e-13
-2.24493e-13
-2.24805e-13
-2.24502e-13
-2.24565e-13
-2.24514e-13
-2.24651e-13
-2.24677e-13
-2.24712e-13
-2.24694e-13
-2.36086e-13
-2.36268e-13
-2.36158e-13
-2.36177e-13
-2.36272e-13
-2.3641e-13
-2.3637e-13
-2.36598e-13
-2.3603e-13
-2.36132e-13
-2.35961e-13
-2.36195e-13
-2.36238e-13
-2.36303e-13
-2.36298e-13
-2.36251e-13
-2.36336e-13
-2.36177e-13
-2.3666e-13
-2.36256e-13
-2.36201e-13
-2.36137e-13
-2.36338e-13
-2.36272e-13
-2.36225e-13
-2.36126e-13
-2.36128e-13
-2.36304e-13
-2.3628e-13
-2.35967e-13
-2.36049e-13
-2.3616e-13
-2.36518e-13
-2.36238e-13
-2.36336e-13
-2.36339e-13
-2.36506e-13
-2.36295e-13
-2.35866e-13
-2.35946e-13
-2.3634e-13
-2.36483e-13
-2.36182e-13
-2.36399e-13
-2.36385e-13
-2.36269e-13
-2.36262e-13
-2.36204e-13
-2.36357e-13
-2.36376e-13
-2.36194e-13
-2.3628e-13
-2.36338e-13
-2.36301e-13
-2.36356e-13
-2.36617e-13
-2.36222e-13
-2.36363e-13
-2.36464e-13
-2.36152e-13
-2.21657e-13
-2.21406e-13
-2.21483e-13
-2.21572e-13
-2.21737e-13
-2.2138e-13
-2.21608e-13
-2.21113e-13
-2.21681e-13
-2.21749e-13
-2.21852e-13
-2.21667e-13
-2.2146e-13
-2.21468e-13
-2.21755e-13
-2.21504e-13
-2.21684e-13
-2.21503e-13
-2.21414e-13
-2.217e-13
-2.21579e-13
-2.21417e-13
-2.21219e-13
-2.21865e-13
-2.21741e-13
-2.21744e-13
-2.21711e-13
-2.21332e-13
-2.21333e-13
-2.21642e-13
-2.21479e-13
-2.21571e-13
-2.20978e-13
-2.21524e-13
-2.21627e-13
-2.21319e-13
-2.21067e-13
-2.21422e-13
-2.21765e-13
-2.21481e-13
-2.21734e-13
-2.21183e-13
-2.21585e-13
-2.21525e-13
-2.21393e-13
-2.21634e-13
-2.21678e-13
-2.21633e-13
-2.21885e-13
-2.2141e-13
-2.21519e-13
-2.2158e-13
-2.21369e-13
-2.21425e-13
-2.21621e-13
-2.21412e-13
-2.21789e-13
-2.21286e-13
-2.21341e-13
-2.21465e-13
-1.84354e-13
-1.84278e-13
-1.84564e-13
-1.84562e-13
-1.84012e-13
-1.8437e-13
-1.84225e-13
-1.84523e-13
-1.84307e-13
-1.84431e-13
-1.84306e-13
-1.84019e-13
-1.84663e-13
-1.84327e-13
-1.84136e-13
-1.84422e-13
-1.84101e-13
-1.84363e-13
-1.84221e-13
-1.84184e-13
-1.84386e-13
-1.84316e-13
-1.84702e-13
-1.84235e-13
-1.84286e-13
-1.84491e-13
-1.84244e-13
-1.84541e-13