/*--------------------------------*- C++ -*----------------------------------*\
| =========                 |                                                 |
| \\      /  F ield         | foam-extend: Open Source CFD                    |
|  \\    /   O peration     | Version:     4.0                                |
|   \\  /    A nd           | Web:         http://www.foam-extend.org         |
|    \\/     M anipulation  |                                                 |
\*---------------------------------------------------------------------------*/
FoamFile
{
    version     2.0;
    format      ascii;
    class       volScalarField;
    location    "850";
    object      cMinus;
}
// * * * * * * * * * * * * * * * * * * * * * * * * * * * * * * * * * * * * * //

dimensions      [0 0 0 0 0 0 0];

internalField   nonuniform List<scalar> 
6960
(
3.83317e-09
3.83719e-09
3.83773e-09
3.83834e-09
3.83899e-09
3.83962e-09
3.84023e-09
3.84079e-09
3.84132e-09
3.84181e-09
3.84226e-09
3.84269e-09
3.84308e-09
3.84344e-09
3.84378e-09
3.84409e-09
3.84437e-09
3.84463e-09
3.84487e-09
3.84509e-09
3.84528e-09
3.84546e-09
3.84561e-09
3.84574e-09
3.84586e-09
3.84595e-09
3.84603e-09
3.84608e-09
3.84612e-09
3.84614e-09
3.84614e-09
3.84612e-09
3.84608e-09
3.84603e-09
3.84595e-09
3.84586e-09
3.84574e-09
3.84561e-09
3.84546e-09
3.84528e-09
3.84509e-09
3.84487e-09
3.84463e-09
3.84437e-09
3.84409e-09
3.84378e-09
3.84344e-09
3.84308e-09
3.84269e-09
3.84226e-09
3.84181e-09
3.84132e-09
3.84079e-09
3.84023e-09
3.83962e-09
3.83899e-09
3.83834e-09
3.83773e-09
3.83719e-09
3.83317e-09
2.28729e-08
2.29082e-08
2.2915e-08
2.29196e-08
2.29237e-08
2.29275e-08
2.2931e-08
2.29343e-08
2.29373e-08
2.29401e-08
2.29428e-08
2.29452e-08
2.29474e-08
2.29495e-08
2.29515e-08
2.29532e-08
2.29549e-08
2.29564e-08
2.29577e-08
2.2959e-08
2.29601e-08
2.29611e-08
2.2962e-08
2.29627e-08
2.29634e-08
2.29639e-08
2.29644e-08
2.29647e-08
2.29649e-08
2.2965e-08
2.2965e-08
2.29649e-08
2.29647e-08
2.29644e-08
2.29639e-08
2.29634e-08
2.29627e-08
2.2962e-08
2.29611e-08
2.29601e-08
2.2959e-08
2.29577e-08
2.29564e-08
2.29549e-08
2.29532e-08
2.29515e-08
2.29495e-08
2.29474e-08
2.29452e-08
2.29428e-08
2.29401e-08
2.29373e-08
2.29343e-08
2.2931e-08
2.29275e-08
2.29237e-08
2.29196e-08
2.2915e-08
2.29082e-08
2.28729e-08
1.20488e-07
1.20733e-07
1.20787e-07
1.20816e-07
1.20838e-07
1.20858e-07
1.20876e-07
1.20893e-07
1.20908e-07
1.20922e-07
1.20935e-07
1.20948e-07
1.20959e-07
1.2097e-07
1.20979e-07
1.20988e-07
1.20996e-07
1.21004e-07
1.21011e-07
1.21017e-07
1.21023e-07
1.21028e-07
1.21032e-07
1.21036e-07
1.21039e-07
1.21042e-07
1.21044e-07
1.21046e-07
1.21047e-07
1.21047e-07
1.21047e-07
1.21047e-07
1.21046e-07
1.21044e-07
1.21042e-07
1.21039e-07
1.21036e-07
1.21032e-07
1.21028e-07
1.21023e-07
1.21017e-07
1.21011e-07
1.21004e-07
1.20996e-07
1.20988e-07
1.20979e-07
1.2097e-07
1.20959e-07
1.20948e-07
1.20935e-07
1.20922e-07
1.20908e-07
1.20893e-07
1.20876e-07
1.20858e-07
1.20838e-07
1.20816e-07
1.20787e-07
1.20733e-07
1.20488e-07
6.02729e-07
6.04215e-07
6.04571e-07
6.0474e-07
6.04856e-07
6.04952e-07
6.05039e-07
6.05118e-07
6.05191e-07
6.05259e-07
6.05322e-07
6.0538e-07
6.05434e-07
6.05483e-07
6.05529e-07
6.05571e-07
6.0561e-07
6.05646e-07
6.05678e-07
6.05708e-07
6.05734e-07
6.05758e-07
6.05779e-07
6.05797e-07
6.05812e-07
6.05825e-07
6.05835e-07
6.05843e-07
6.05848e-07
6.05851e-07
6.05851e-07
6.05848e-07
6.05843e-07
6.05835e-07
6.05825e-07
6.05812e-07
6.05797e-07
6.05779e-07
6.05758e-07
6.05734e-07
6.05708e-07
6.05678e-07
6.05646e-07
6.0561e-07
6.05571e-07
6.05529e-07
6.05483e-07
6.05434e-07
6.0538e-07
6.05322e-07
6.05259e-07
6.05191e-07
6.05118e-07
6.05039e-07
6.04952e-07
6.04856e-07
6.0474e-07
6.04571e-07
6.04215e-07
6.02729e-07
2.87469e-06
2.88286e-06
2.88492e-06
2.88581e-06
2.88637e-06
2.88682e-06
2.88721e-06
2.88757e-06
2.8879e-06
2.88821e-06
2.88849e-06
2.88875e-06
2.88899e-06
2.88922e-06
2.88942e-06
2.88961e-06
2.88978e-06
2.88994e-06
2.89009e-06
2.89022e-06
2.89034e-06
2.89045e-06
2.89054e-06
2.89062e-06
2.89069e-06
2.89075e-06
2.89079e-06
2.89083e-06
2.89085e-06
2.89086e-06
2.89086e-06
2.89085e-06
2.89083e-06
2.89079e-06
2.89075e-06
2.89069e-06
2.89062e-06
2.89054e-06
2.89045e-06
2.89034e-06
2.89022e-06
2.89009e-06
2.88994e-06
2.88978e-06
2.88961e-06
2.88942e-06
2.88922e-06
2.88899e-06
2.88875e-06
2.88849e-06
2.88821e-06
2.8879e-06
2.88757e-06
2.88721e-06
2.88682e-06
2.88637e-06
2.88581e-06
2.88492e-06
2.88286e-06
2.87469e-06
1.29548e-05
1.29955e-05
1.30061e-05
1.30104e-05
1.30129e-05
1.30149e-05
1.30166e-05
1.30181e-05
1.30195e-05
1.30208e-05
1.3022e-05
1.30231e-05
1.30241e-05
1.3025e-05
1.30259e-05
1.30267e-05
1.30274e-05
1.30281e-05
1.30287e-05
1.30292e-05
1.30297e-05
1.30302e-05
1.30306e-05
1.30309e-05
1.30312e-05
1.30314e-05
1.30316e-05
1.30318e-05
1.30319e-05
1.30319e-05
1.30319e-05
1.30319e-05
1.30318e-05
1.30316e-05
1.30314e-05
1.30312e-05
1.30309e-05
1.30306e-05
1.30302e-05
1.30297e-05
1.30292e-05
1.30287e-05
1.30281e-05
1.30274e-05
1.30267e-05
1.30259e-05
1.3025e-05
1.30241e-05
1.30231e-05
1.3022e-05
1.30208e-05
1.30195e-05
1.30181e-05
1.30166e-05
1.30149e-05
1.30129e-05
1.30104e-05
1.30061e-05
1.29955e-05
1.29548e-05
5.44869e-05
5.46698e-05
5.47184e-05
5.47375e-05
5.47481e-05
5.47559e-05
5.47626e-05
5.47685e-05
5.4774e-05
5.4779e-05
5.47836e-05
5.47878e-05
5.47918e-05
5.47954e-05
5.47987e-05
5.48018e-05
5.48046e-05
5.48072e-05
5.48096e-05
5.48117e-05
5.48136e-05
5.48154e-05
5.48169e-05
5.48182e-05
5.48193e-05
5.48202e-05
5.4821e-05
5.48215e-05
5.48219e-05
5.48221e-05
5.48221e-05
5.48219e-05
5.48215e-05
5.4821e-05
5.48202e-05
5.48193e-05
5.48182e-05
5.48169e-05
5.48154e-05
5.48136e-05
5.48117e-05
5.48096e-05
5.48072e-05
5.48046e-05
5.48018e-05
5.47987e-05
5.47954e-05
5.47918e-05
5.47878e-05
5.47836e-05
5.4779e-05
5.4774e-05
5.47685e-05
5.47626e-05
5.47559e-05
5.47481e-05
5.47375e-05
5.47184e-05
5.46698e-05
5.44869e-05
0.000210973
0.000211708
0.000211906
0.000211981
0.000212021
0.00021205
0.000212074
0.000212095
0.000212114
0.000212132
0.000212148
0.000212163
0.000212177
0.00021219
0.000212202
0.000212213
0.000212222
0.000212232
0.00021224
0.000212247
0.000212254
0.00021226
0.000212266
0.00021227
0.000212274
0.000212277
0.00021228
0.000212282
0.000212283
0.000212284
0.000212284
0.000212283
0.000212282
0.00021228
0.000212277
0.000212274
0.00021227
0.000212266
0.00021226
0.000212254
0.000212247
0.00021224
0.000212232
0.000212222
0.000212213
0.000212202
0.00021219
0.000212177
0.000212163
0.000212148
0.000212132
0.000212114
0.000212095
0.000212074
0.00021205
0.000212021
0.000211981
0.000211906
0.000211708
0.000210973
0.000741069
0.000743667
0.000744377
0.000744641
0.000744775
0.000744868
0.000744944
0.000745012
0.000745073
0.000745129
0.00074518
0.000745227
0.000745271
0.000745311
0.000745348
0.000745382
0.000745413
0.000745442
0.000745468
0.000745492
0.000745513
0.000745532
0.000745549
0.000745563
0.000745576
0.000745586
0.000745594
0.0007456
0.000745604
0.000745606
0.000745606
0.000745604
0.0007456
0.000745594
0.000745586
0.000745576
0.000745563
0.000745549
0.000745532
0.000745513
0.000745492
0.000745468
0.000745442
0.000745413
0.000745382
0.000745348
0.000745311
0.000745271
0.000745227
0.00074518
0.000745129
0.000745073
0.000745012
0.000744944
0.000744868
0.000744775
0.000744641
0.000744377
0.000743667
0.000741069
0.00232549
0.00233346
0.00233566
0.00233646
0.00233686
0.00233712
0.00233733
0.00233752
0.00233769
0.00233784
0.00233799
0.00233812
0.00233824
0.00233835
0.00233845
0.00233854
0.00233863
0.00233871
0.00233878
0.00233884
0.0023389
0.00233896
0.002339
0.00233904
0.00233908
0.0023391
0.00233913
0.00233914
0.00233915
0.00233916
0.00233916
0.00233915
0.00233914
0.00233913
0.0023391
0.00233908
0.00233904
0.002339
0.00233896
0.0023389
0.00233884
0.00233878
0.00233871
0.00233863
0.00233854
0.00233845
0.00233835
0.00233824
0.00233812
0.00233799
0.00233784
0.00233769
0.00233752
0.00233733
0.00233712
0.00233686
0.00233646
0.00233566
0.00233346
0.00232549
0.00642157
0.0064424
0.00644819
0.00645027
0.00645126
0.0064519
0.00645241
0.00645286
0.00645326
0.00645362
0.00645396
0.00645427
0.00645455
0.00645481
0.00645505
0.00645527
0.00645548
0.00645566
0.00645583
0.00645598
0.00645612
0.00645624
0.00645635
0.00645645
0.00645653
0.00645659
0.00645665
0.00645669
0.00645671
0.00645672
0.00645672
0.00645671
0.00645669
0.00645665
0.00645659
0.00645653
0.00645645
0.00645635
0.00645624
0.00645612
0.00645598
0.00645583
0.00645566
0.00645548
0.00645527
0.00645505
0.00645481
0.00645455
0.00645427
0.00645396
0.00645362
0.00645326
0.00645286
0.00645241
0.0064519
0.00645126
0.00645027
0.00644819
0.0064424
0.00642157
0.0154084
0.0154541
0.0154669
0.0154714
0.0154735
0.0154748
0.0154759
0.0154768
0.0154776
0.0154783
0.015479
0.0154796
0.0154802
0.0154807
0.0154812
0.0154816
0.015482
0.0154824
0.0154827
0.015483
0.0154833
0.0154835
0.0154837
0.0154839
0.0154841
0.0154842
0.0154843
0.0154844
0.0154844
0.0154845
0.0154845
0.0154844
0.0154844
0.0154843
0.0154842
0.0154841
0.0154839
0.0154837
0.0154835
0.0154833
0.015483
0.0154827
0.0154824
0.015482
0.0154816
0.0154812
0.0154807
0.0154802
0.0154796
0.015479
0.0154783
0.0154776
0.0154768
0.0154759
0.0154748
0.0154735
0.0154714
0.0154669
0.0154541
0.0154084
0.0319187
0.0320025
0.032026
0.0320342
0.0320379
0.0320402
0.032042
0.0320435
0.0320448
0.032046
0.0320471
0.0320481
0.0320491
0.0320499
0.0320507
0.0320515
0.0320521
0.0320527
0.0320533
0.0320538
0.0320542
0.0320546
0.032055
0.0320553
0.0320556
0.0320558
0.032056
0.0320561
0.0320562
0.0320562
0.0320562
0.0320562
0.0320561
0.032056
0.0320558
0.0320556
0.0320553
0.032055
0.0320546
0.0320542
0.0320538
0.0320533
0.0320527
0.0320521
0.0320515
0.0320507
0.0320499
0.0320491
0.0320481
0.0320471
0.032046
0.0320448
0.0320435
0.032042
0.0320402
0.0320379
0.0320342
0.032026
0.0320025
0.0319187
0.0572756
0.0574049
0.0574415
0.0574541
0.0574596
0.0574629
0.0574654
0.0574675
0.0574694
0.0574711
0.0574726
0.0574741
0.0574754
0.0574766
0.0574777
0.0574787
0.0574796
0.0574804
0.0574812
0.0574819
0.0574825
0.0574831
0.0574836
0.057484
0.0574844
0.0574847
0.0574849
0.0574851
0.0574852
0.0574853
0.0574853
0.0574852
0.0574851
0.0574849
0.0574847
0.0574844
0.057484
0.0574836
0.0574831
0.0574825
0.0574819
0.0574812
0.0574804
0.0574796
0.0574787
0.0574777
0.0574766
0.0574754
0.0574741
0.0574726
0.0574711
0.0574694
0.0574675
0.0574654
0.0574629
0.0574596
0.0574541
0.0574415
0.0574049
0.0572756
0.0903278
0.0905005
0.0905497
0.0905664
0.0905736
0.0905777
0.0905808
0.0905834
0.0905856
0.0905877
0.0905895
0.0905912
0.0905928
0.0905942
0.0905955
0.0905967
0.0905978
0.0905989
0.0905998
0.0906006
0.0906014
0.090602
0.0906026
0.0906031
0.0906036
0.0906039
0.0906042
0.0906044
0.0906046
0.0906046
0.0906046
0.0906046
0.0906044
0.0906042
0.0906039
0.0906036
0.0906031
0.0906026
0.090602
0.0906014
0.0906006
0.0905998
0.0905989
0.0905978
0.0905967
0.0905955
0.0905942
0.0905928
0.0905912
0.0905895
0.0905877
0.0905856
0.0905834
0.0905808
0.0905777
0.0905736
0.0905664
0.0905497
0.0905005
0.0903278
0.128069
0.128276
0.128336
0.128356
0.128364
0.128369
0.128372
0.128375
0.128378
0.12838
0.128382
0.128384
0.128385
0.128387
0.128388
0.128389
0.128391
0.128392
0.128393
0.128394
0.128394
0.128395
0.128396
0.128396
0.128397
0.128397
0.128397
0.128398
0.128398
0.128398
0.128398
0.128398
0.128398
0.128397
0.128397
0.128397
0.128396
0.128396
0.128395
0.128394
0.128394
0.128393
0.128392
0.128391
0.128389
0.128388
0.128387
0.128385
0.128384
0.128382
0.12838
0.128378
0.128375
0.128372
0.128369
0.128364
0.128356
0.128336
0.128276
0.128069
0.167404
0.167637
0.167705
0.167728
0.167737
0.167742
0.167745
0.167748
0.167751
0.167753
0.167755
0.167757
0.167758
0.16776
0.167761
0.167763
0.167764
0.167765
0.167766
0.167767
0.167768
0.167768
0.167769
0.167769
0.16777
0.16777
0.167771
0.167771
0.167771
0.167771
0.167771
0.167771
0.167771
0.167771
0.16777
0.16777
0.167769
0.167769
0.167768
0.167768
0.167767
0.167766
0.167765
0.167764
0.167763
0.167761
0.16776
0.167758
0.167757
0.167755
0.167753
0.167751
0.167748
0.167745
0.167742
0.167737
0.167728
0.167705
0.167637
0.167404
0.206333
0.206585
0.206659
0.206684
0.206694
0.206699
0.206703
0.206706
0.206708
0.20671
0.206712
0.206714
0.206715
0.206717
0.206718
0.20672
0.206721
0.206722
0.206723
0.206724
0.206724
0.206725
0.206726
0.206726
0.206727
0.206727
0.206727
0.206727
0.206728
0.206728
0.206728
0.206728
0.206727
0.206727
0.206727
0.206727
0.206726
0.206726
0.206725
0.206724
0.206724
0.206723
0.206722
0.206721
0.20672
0.206718
0.206717
0.206715
0.206714
0.206712
0.20671
0.206708
0.206706
0.206703
0.206699
0.206694
0.206684
0.206659
0.206585
0.206333
0.243987
0.244255
0.244335
0.244362
0.244372
0.244378
0.244381
0.244384
0.244386
0.244388
0.24439
0.244392
0.244393
0.244395
0.244396
0.244397
0.244398
0.244399
0.2444
0.244401
0.244402
0.244402
0.244403
0.244403
0.244404
0.244404
0.244404
0.244405
0.244405
0.244405
0.244405
0.244405
0.244405
0.244404
0.244404
0.244404
0.244403
0.244403
0.244402
0.244402
0.244401
0.2444
0.244399
0.244398
0.244397
0.244396
0.244395
0.244393
0.244392
0.24439
0.244388
0.244386
0.244384
0.244381
0.244378
0.244372
0.244362
0.244335
0.244255
0.243987
0.280158
0.28044
0.280525
0.280554
0.280565
0.28057
0.280574
0.280576
0.280579
0.280581
0.280582
0.280584
0.280586
0.280587
0.280588
0.280589
0.28059
0.280591
0.280592
0.280593
0.280593
0.280594
0.280595
0.280595
0.280596
0.280596
0.280596
0.280596
0.280596
0.280596
0.280596
0.280596
0.280596
0.280596
0.280596
0.280596
0.280595
0.280595
0.280594
0.280593
0.280593
0.280592
0.280591
0.28059
0.280589
0.280588
0.280587
0.280586
0.280584
0.280582
0.280581
0.280579
0.280576
0.280574
0.28057
0.280565
0.280554
0.280525
0.28044
0.280158
0.314885
0.31518
0.315271
0.315301
0.315313
0.315318
0.315322
0.315324
0.315326
0.315328
0.31533
0.315331
0.315333
0.315334
0.315335
0.315336
0.315337
0.315338
0.315339
0.31534
0.31534
0.315341
0.315341
0.315342
0.315342
0.315343
0.315343
0.315343
0.315343
0.315343
0.315343
0.315343
0.315343
0.315343
0.315343
0.315342
0.315342
0.315341
0.315341
0.31534
0.31534
0.315339
0.315338
0.315337
0.315336
0.315335
0.315334
0.315333
0.315331
0.31533
0.315328
0.315326
0.315324
0.315322
0.315318
0.315313
0.315301
0.315271
0.31518
0.314885
0.348257
0.348562
0.348659
0.348691
0.348703
0.348709
0.348712
0.348715
0.348717
0.348719
0.34872
0.348722
0.348723
0.348724
0.348725
0.348726
0.348727
0.348728
0.348729
0.348729
0.34873
0.348731
0.348731
0.348732
0.348732
0.348732
0.348732
0.348733
0.348733
0.348733
0.348733
0.348733
0.348733
0.348732
0.348732
0.348732
0.348732
0.348731
0.348731
0.34873
0.348729
0.348729
0.348728
0.348727
0.348726
0.348725
0.348724
0.348723
0.348722
0.34872
0.348719
0.348717
0.348715
0.348712
0.348709
0.348703
0.348691
0.348659
0.348562
0.348257
0.380347
0.380662
0.380764
0.380798
0.380811
0.380817
0.38082
0.380822
0.380824
0.380826
0.380828
0.380829
0.38083
0.380831
0.380832
0.380833
0.380834
0.380835
0.380836
0.380836
0.380837
0.380838
0.380838
0.380838
0.380839
0.380839
0.380839
0.380839
0.38084
0.38084
0.38084
0.38084
0.380839
0.380839
0.380839
0.380839
0.380838
0.380838
0.380838
0.380837
0.380836
0.380836
0.380835
0.380834
0.380833
0.380832
0.380831
0.38083
0.380829
0.380828
0.380826
0.380824
0.380822
0.38082
0.380817
0.380811
0.380798
0.380764
0.380662
0.380347
0.411211
0.411534
0.41164
0.411677
0.41169
0.411696
0.411699
0.411702
0.411704
0.411705
0.411707
0.411708
0.411709
0.41171
0.411711
0.411712
0.411713
0.411714
0.411714
0.411715
0.411715
0.411716
0.411716
0.411717
0.411717
0.411717
0.411718
0.411718
0.411718
0.411718
0.411718
0.411718
0.411718
0.411718
0.411717
0.411717
0.411717
0.411716
0.411716
0.411715
0.411715
0.411714
0.411714
0.411713
0.411712
0.411711
0.41171
0.411709
0.411708
0.411707
0.411705
0.411704
0.411702
0.411699
0.411696
0.41169
0.411677
0.41164
0.411534
0.411211
0.440888
0.441218
0.441329
0.441367
0.441382
0.441388
0.441391
0.441393
0.441395
0.441397
0.441398
0.441399
0.4414
0.441401
0.441402
0.441403
0.441404
0.441405
0.441405
0.441406
0.441406
0.441407
0.441407
0.441408
0.441408
0.441408
0.441408
0.441409
0.441409
0.441409
0.441409
0.441409
0.441409
0.441408
0.441408
0.441408
0.441408
0.441407
0.441407
0.441406
0.441406
0.441405
0.441405
0.441404
0.441403
0.441402
0.441401
0.4414
0.441399
0.441398
0.441397
0.441395
0.441393
0.441391
0.441388
0.441382
0.441367
0.441329
0.441218
0.440888
0.469413
0.469749
0.469864
0.469904
0.469919
0.469926
0.469929
0.469931
0.469933
0.469934
0.469936
0.469937
0.469938
0.469939
0.46994
0.469941
0.469941
0.469942
0.469943
0.469943
0.469944
0.469944
0.469944
0.469945
0.469945
0.469945
0.469945
0.469946
0.469946
0.469946
0.469946
0.469946
0.469946
0.469945
0.469945
0.469945
0.469945
0.469944
0.469944
0.469944
0.469943
0.469943
0.469942
0.469941
0.469941
0.46994
0.469939
0.469938
0.469937
0.469936
0.469934
0.469933
0.469931
0.469929
0.469926
0.469919
0.469904
0.469864
0.469749
0.469413
0.496816
0.497157
0.497276
0.497318
0.497334
0.49734
0.497343
0.497346
0.497347
0.497349
0.49735
0.497351
0.497352
0.497353
0.497354
0.497355
0.497355
0.497356
0.497356
0.497357
0.497357
0.497358
0.497358
0.497358
0.497359
0.497359
0.497359
0.497359
0.497359
0.497359
0.497359
0.497359
0.497359
0.497359
0.497359
0.497359
0.497358
0.497358
0.497358
0.497357
0.497357
0.497356
0.497356
0.497355
0.497355
0.497354
0.497353
0.497352
0.497351
0.49735
0.497349
0.497347
0.497346
0.497343
0.49734
0.497334
0.497318
0.497276
0.497157
0.496816
0.523126
0.523469
0.523593
0.523637
0.523653
0.52366
0.523663
0.523665
0.523667
0.523668
0.523669
0.52367
0.523671
0.523672
0.523673
0.523674
0.523674
0.523675
0.523675
0.523676
0.523676
0.523677
0.523677
0.523677
0.523677
0.523678
0.523678
0.523678
0.523678
0.523678
0.523678
0.523678
0.523678
0.523678
0.523678
0.523677
0.523677
0.523677
0.523677
0.523676
0.523676
0.523675
0.523675
0.523674
0.523674
0.523673
0.523672
0.523671
0.52367
0.523669
0.523668
0.523667
0.523665
0.523663
0.52366
0.523653
0.523637
0.523593
0.523469
0.523126
0.54837
0.548715
0.548842
0.548888
0.548905
0.548912
0.548915
0.548917
0.548919
0.54892
0.548921
0.548922
0.548923
0.548924
0.548925
0.548925
0.548926
0.548927
0.548927
0.548927
0.548928
0.548928
0.548929
0.548929
0.548929
0.548929
0.548929
0.54893
0.54893
0.54893
0.54893
0.54893
0.54893
0.548929
0.548929
0.548929
0.548929
0.548929
0.548928
0.548928
0.548927
0.548927
0.548927
0.548926
0.548925
0.548925
0.548924
0.548923
0.548922
0.548921
0.54892
0.548919
0.548917
0.548915
0.548912
0.548905
0.548888
0.548842
0.548715
0.54837
0.572575
0.572921
0.573051
0.573099
0.573117
0.573124
0.573128
0.57313
0.573131
0.573132
0.573134
0.573134
0.573135
0.573136
0.573137
0.573137
0.573138
0.573138
0.573139
0.573139
0.57314
0.57314
0.57314
0.573141
0.573141
0.573141
0.573141
0.573141
0.573141
0.573141
0.573141
0.573141
0.573141
0.573141
0.573141
0.573141
0.573141
0.57314
0.57314
0.57314
0.573139
0.573139
0.573138
0.573138
0.573137
0.573137
0.573136
0.573135
0.573134
0.573134
0.573132
0.573131
0.57313
0.573128
0.573124
0.573117
0.573099
0.573051
0.572921
0.572575
0.595769
0.596115
0.596248
0.596298
0.596316
0.596324
0.596327
0.596329
0.596331
0.596332
0.596333
0.596334
0.596335
0.596335
0.596336
0.596337
0.596337
0.596338
0.596338
0.596338
0.596339
0.596339
0.596339
0.59634
0.59634
0.59634
0.59634
0.59634
0.59634
0.59634
0.59634
0.59634
0.59634
0.59634
0.59634
0.59634
0.59634
0.596339
0.596339
0.596339
0.596338
0.596338
0.596338
0.596337
0.596337
0.596336
0.596335
0.596335
0.596334
0.596333
0.596332
0.596331
0.596329
0.596327
0.596324
0.596316
0.596298
0.596248
0.596115
0.595769
0.617978
0.618324
0.618459
0.61851
0.61853
0.618538
0.618541
0.618543
0.618545
0.618546
0.618547
0.618548
0.618548
0.618549
0.61855
0.61855
0.618551
0.618551
0.618552
0.618552
0.618552
0.618553
0.618553
0.618553
0.618553
0.618553
0.618553
0.618554
0.618554
0.618554
0.618554
0.618554
0.618554
0.618553
0.618553
0.618553
0.618553
0.618553
0.618553
0.618552
0.618552
0.618552
0.618551
0.618551
0.61855
0.61855
0.618549
0.618548
0.618548
0.618547
0.618546
0.618545
0.618543
0.618541
0.618538
0.61853
0.61851
0.618459
0.618324
0.617978
0.639229
0.639573
0.639711
0.639764
0.639785
0.639793
0.639797
0.639799
0.6398
0.639801
0.639802
0.639803
0.639803
0.639804
0.639804
0.639805
0.639805
0.639806
0.639806
0.639807
0.639807
0.639807
0.639807
0.639808
0.639808
0.639808
0.639808
0.639808
0.639808
0.639808
0.639808
0.639808
0.639808
0.639808
0.639808
0.639808
0.639808
0.639807
0.639807
0.639807
0.639807
0.639806
0.639806
0.639805
0.639805
0.639804
0.639804
0.639803
0.639803
0.639802
0.639801
0.6398
0.639799
0.639797
0.639793
0.639785
0.639764
0.639711
0.639573
0.639229
0.65955
0.659891
0.660032
0.660086
0.660107
0.660116
0.66012
0.660122
0.660123
0.660124
0.660125
0.660126
0.660126
0.660127
0.660127
0.660128
0.660128
0.660129
0.660129
0.660129
0.66013
0.66013
0.66013
0.66013
0.66013
0.660131
0.660131
0.660131
0.660131
0.660131
0.660131
0.660131
0.660131
0.660131
0.660131
0.66013
0.66013
0.66013
0.66013
0.66013
0.660129
0.660129
0.660129
0.660128
0.660128
0.660127
0.660127
0.660126
0.660126
0.660125
0.660124
0.660123
0.660122
0.66012
0.660116
0.660107
0.660086
0.660032
0.659891
0.65955
0.678966
0.679305
0.679447
0.679503
0.679525
0.679534
0.679538
0.67954
0.679541
0.679542
0.679543
0.679543
0.679544
0.679544
0.679545
0.679545
0.679546
0.679546
0.679547
0.679547
0.679547
0.679547
0.679548
0.679548
0.679548
0.679548
0.679548
0.679548
0.679548
0.679548
0.679548
0.679548
0.679548
0.679548
0.679548
0.679548
0.679548
0.679548
0.679547
0.679547
0.679547
0.679547
0.679546
0.679546
0.679545
0.679545
0.679544
0.679544
0.679543
0.679543
0.679542
0.679541
0.67954
0.679538
0.679534
0.679525
0.679503
0.679447
0.679305
0.678966
0.697505
0.69784
0.697983
0.698041
0.698064
0.698073
0.698077
0.698079
0.69808
0.698081
0.698082
0.698083
0.698083
0.698084
0.698084
0.698084
0.698085
0.698085
0.698085
0.698086
0.698086
0.698086
0.698086
0.698087
0.698087
0.698087
0.698087
0.698087
0.698087
0.698087
0.698087
0.698087
0.698087
0.698087
0.698087
0.698087
0.698087
0.698086
0.698086
0.698086
0.698086
0.698085
0.698085
0.698085
0.698084
0.698084
0.698084
0.698083
0.698083
0.698082
0.698081
0.69808
0.698079
0.698077
0.698073
0.698064
0.698041
0.697983
0.69784
0.697505
0.715192
0.715523
0.715667
0.715727
0.71575
0.71576
0.715764
0.715766
0.715767
0.715768
0.715769
0.71577
0.71577
0.71577
0.715771
0.715771
0.715772
0.715772
0.715772
0.715772
0.715773
0.715773
0.715773
0.715773
0.715773
0.715774
0.715774
0.715774
0.715774
0.715774
0.715774
0.715774
0.715774
0.715774
0.715774
0.715773
0.715773
0.715773
0.715773
0.715773
0.715772
0.715772
0.715772
0.715772
0.715771
0.715771
0.71577
0.71577
0.71577
0.715769
0.715768
0.715767
0.715766
0.715764
0.71576
0.71575
0.715727
0.715667
0.715523
0.715192
0.732055
0.73238
0.732526
0.732586
0.732611
0.732621
0.732625
0.732627
0.732629
0.732629
0.73263
0.732631
0.732631
0.732631
0.732632
0.732632
0.732632
0.732633
0.732633
0.732633
0.732634
0.732634
0.732634
0.732634
0.732634
0.732634
0.732634
0.732634
0.732634
0.732634
0.732634
0.732634
0.732634
0.732634
0.732634
0.732634
0.732634
0.732634
0.732634
0.732634
0.732633
0.732633
0.732633
0.732632
0.732632
0.732632
0.732631
0.732631
0.732631
0.73263
0.732629
0.732629
0.732627
0.732625
0.732621
0.732611
0.732586
0.732526
0.73238
0.732055
0.748118
0.748438
0.748584
0.748646
0.748671
0.748682
0.748686
0.748689
0.74869
0.748691
0.748691
0.748692
0.748692
0.748693
0.748693
0.748693
0.748693
0.748694
0.748694
0.748694
0.748694
0.748695
0.748695
0.748695
0.748695
0.748695
0.748695
0.748695
0.748695
0.748695
0.748695
0.748695
0.748695
0.748695
0.748695
0.748695
0.748695
0.748695
0.748695
0.748694
0.748694
0.748694
0.748694
0.748693
0.748693
0.748693
0.748693
0.748692
0.748692
0.748691
0.748691
0.74869
0.748689
0.748686
0.748682
0.748671
0.748646
0.748584
0.748438
0.748118
0.763409
0.763723
0.763869
0.763932
0.763958
0.763969
0.763974
0.763976
0.763977
0.763978
0.763978
0.763979
0.763979
0.76398
0.76398
0.76398
0.76398
0.763981
0.763981
0.763981
0.763981
0.763982
0.763982
0.763982
0.763982
0.763982
0.763982
0.763982
0.763982
0.763982
0.763982
0.763982
0.763982
0.763982
0.763982
0.763982
0.763982
0.763982
0.763982
0.763981
0.763981
0.763981
0.763981
0.76398
0.76398
0.76398
0.76398
0.763979
0.763979
0.763978
0.763978
0.763977
0.763976
0.763974
0.763969
0.763958
0.763932
0.763869
0.763723
0.763409
0.777951
0.778259
0.778405
0.778469
0.778496
0.778507
0.778512
0.778515
0.778516
0.778517
0.778517
0.778518
0.778518
0.778518
0.778519
0.778519
0.778519
0.778519
0.778519
0.77852
0.77852
0.77852
0.77852
0.77852
0.77852
0.77852
0.778521
0.778521
0.778521
0.778521
0.778521
0.778521
0.778521
0.778521
0.77852
0.77852
0.77852
0.77852
0.77852
0.77852
0.77852
0.778519
0.778519
0.778519
0.778519
0.778519
0.778518
0.778518
0.778518
0.778517
0.778517
0.778516
0.778515
0.778512
0.778507
0.778496
0.778469
0.778405
0.778259
0.777951
0.791772
0.792072
0.792218
0.792283
0.792311
0.792323
0.792328
0.79233
0.792331
0.792332
0.792333
0.792333
0.792333
0.792334
0.792334
0.792334
0.792335
0.792335
0.792335
0.792335
0.792335
0.792335
0.792336
0.792336
0.792336
0.792336
0.792336
0.792336
0.792336
0.792336
0.792336
0.792336
0.792336
0.792336
0.792336
0.792336
0.792336
0.792336
0.792335
0.792335
0.792335
0.792335
0.792335
0.792335
0.792334
0.792334
0.792334
0.792333
0.792333
0.792333
0.792332
0.792331
0.79233
0.792328
0.792323
0.792311
0.792283
0.792218
0.792072
0.791772
0.804895
0.805188
0.805333
0.805399
0.805428
0.80544
0.805445
0.805448
0.805449
0.80545
0.80545
0.805451
0.805451
0.805451
0.805452
0.805452
0.805452
0.805452
0.805452
0.805453
0.805453
0.805453
0.805453
0.805453
0.805453
0.805453
0.805453
0.805453
0.805453
0.805453
0.805453
0.805453
0.805453
0.805453
0.805453
0.805453
0.805453
0.805453
0.805453
0.805453
0.805453
0.805452
0.805452
0.805452
0.805452
0.805452
0.805451
0.805451
0.805451
0.80545
0.80545
0.805449
0.805448
0.805445
0.80544
0.805428
0.805399
0.805333
0.805188
0.804895
0.817345
0.817631
0.817775
0.817842
0.817871
0.817884
0.81789
0.817892
0.817893
0.817894
0.817895
0.817895
0.817895
0.817896
0.817896
0.817896
0.817896
0.817896
0.817897
0.817897
0.817897
0.817897
0.817897
0.817897
0.817897
0.817897
0.817897
0.817897
0.817897
0.817897
0.817897
0.817897
0.817897
0.817897
0.817897
0.817897
0.817897
0.817897
0.817897
0.817897
0.817897
0.817897
0.817896
0.817896
0.817896
0.817896
0.817896
0.817895
0.817895
0.817895
0.817894
0.817893
0.817892
0.81789
0.817884
0.817871
0.817842
0.817775
0.817631
0.817345
0.829148
0.829426
0.829569
0.829636
0.829666
0.829679
0.829685
0.829688
0.829689
0.82969
0.82969
0.82969
0.829691
0.829691
0.829691
0.829691
0.829692
0.829692
0.829692
0.829692
0.829692
0.829692
0.829692
0.829692
0.829692
0.829693
0.829693
0.829693
0.829693
0.829693
0.829693
0.829693
0.829693
0.829693
0.829693
0.829692
0.829692
0.829692
0.829692
0.829692
0.829692
0.829692
0.829692
0.829692
0.829691
0.829691
0.829691
0.829691
0.82969
0.82969
0.82969
0.829689
0.829688
0.829685
0.829679
0.829666
0.829636
0.829569
0.829426
0.829148
0.840326
0.840596
0.840737
0.840805
0.840836
0.84085
0.840856
0.840858
0.84086
0.84086
0.840861
0.840861
0.840861
0.840862
0.840862
0.840862
0.840862
0.840862
0.840862
0.840863
0.840863
0.840863
0.840863
0.840863
0.840863
0.840863
0.840863
0.840863
0.840863
0.840863
0.840863
0.840863
0.840863
0.840863
0.840863
0.840863
0.840863
0.840863
0.840863
0.840863
0.840863
0.840862
0.840862
0.840862
0.840862
0.840862
0.840862
0.840861
0.840861
0.840861
0.84086
0.84086
0.840858
0.840856
0.84085
0.840836
0.840805
0.840737
0.840596
0.840326
0.850904
0.851166
0.851305
0.851373
0.851405
0.851419
0.851425
0.851428
0.85143
0.85143
0.851431
0.851431
0.851431
0.851431
0.851432
0.851432
0.851432
0.851432
0.851432
0.851432
0.851432
0.851432
0.851432
0.851433
0.851433
0.851433
0.851433
0.851433
0.851433
0.851433
0.851433
0.851433
0.851433
0.851433
0.851433
0.851433
0.851433
0.851432
0.851432
0.851432
0.851432
0.851432
0.851432
0.851432
0.851432
0.851432
0.851431
0.851431
0.851431
0.851431
0.85143
0.85143
0.851428
0.851425
0.851419
0.851405
0.851373
0.851305
0.851166
0.850904
0.860905
0.861159
0.861296
0.861364
0.861396
0.861411
0.861417
0.86142
0.861422
0.861423
0.861423
0.861423
0.861423
0.861424
0.861424
0.861424
0.861424
0.861424
0.861424
0.861424
0.861424
0.861424
0.861425
0.861425
0.861425
0.861425
0.861425
0.861425
0.861425
0.861425
0.861425
0.861425
0.861425
0.861425
0.861425
0.861425
0.861425
0.861425
0.861424
0.861424
0.861424
0.861424
0.861424
0.861424
0.861424
0.861424
0.861424
0.861423
0.861423
0.861423
0.861423
0.861422
0.86142
0.861417
0.861411
0.861396
0.861364
0.861296
0.861159
0.860905
0.870351
0.870597
0.870732
0.8708
0.870833
0.870848
0.870855
0.870858
0.870859
0.87086
0.870861
0.870861
0.870861
0.870861
0.870861
0.870861
0.870862
0.870862
0.870862
0.870862
0.870862
0.870862
0.870862
0.870862
0.870862
0.870862
0.870862
0.870862
0.870862
0.870862
0.870862
0.870862
0.870862
0.870862
0.870862
0.870862
0.870862
0.870862
0.870862
0.870862
0.870862
0.870862
0.870862
0.870862
0.870861
0.870861
0.870861
0.870861
0.870861
0.870861
0.87086
0.870859
0.870858
0.870855
0.870848
0.870833
0.8708
0.870732
0.870597
0.870351
0.879267
0.879504
0.879636
0.879704
0.879737
0.879753
0.87976
0.879763
0.879765
0.879766
0.879766
0.879767
0.879767
0.879767
0.879767
0.879767
0.879767
0.879767
0.879767
0.879767
0.879767
0.879767
0.879767
0.879768
0.879768
0.879768
0.879768
0.879768
0.879768
0.879768
0.879768
0.879768
0.879768
0.879768
0.879768
0.879768
0.879768
0.879767
0.879767
0.879767
0.879767
0.879767
0.879767
0.879767
0.879767
0.879767
0.879767
0.879767
0.879767
0.879766
0.879766
0.879765
0.879763
0.87976
0.879753
0.879737
0.879704
0.879636
0.879504
0.879267
0.887673
0.887901
0.888031
0.888099
0.888132
0.888148
0.888156
0.888159
0.888161
0.888162
0.888162
0.888162
0.888163
0.888163
0.888163
0.888163
0.888163
0.888163
0.888163
0.888163
0.888163
0.888163
0.888163
0.888163
0.888163
0.888163
0.888163
0.888163
0.888163
0.888163
0.888163
0.888163
0.888163
0.888163
0.888163