/*--------------------------------*- C++ -*----------------------------------*\
| =========                 |                                                 |
| \\      /  F ield         | foam-extend: Open Source CFD                    |
|  \\    /   O peration     | Version:     4.0                                |
|   \\  /    A nd           | Web:         http://www.foam-extend.org         |
|    \\/     M anipulation  |                                                 |
\*---------------------------------------------------------------------------*/
FoamFile
{
    version     2.0;
    format      ascii;
    class       volScalarField;
    location    "10";
    object      p;
}
// * * * * * * * * * * * * * * * * * * * * * * * * * * * * * * * * * * * * * //

dimensions      [0 2 -2 0 0 0 0];

internalField   nonuniform List<scalar> 
6960
(
-3.27388
-4.8888
-4.76123
-4.71274
-4.59941
-4.49508
-4.35354
-4.20735
-4.03811
-3.86153
-3.66976
-3.47079
-3.26186
-3.04771
-2.82791
-2.60518
-2.37964
-2.15304
-1.92585
-1.6991
-1.47296
-1.24772
-1.02326
-0.799619
-0.576672
-0.35433
-0.132517
0.0887644
0.30957
0.529993
0.75015
0.970117
1.19002
1.41007
1.63061
1.85189
2.07413
2.29748
2.522
2.74767
2.97421
3.20119
3.42801
3.65392
3.87814
4.09983
4.318
4.53146
4.73879
4.93838
5.12851
5.30731
5.47291
5.62343
5.757
5.87172
5.96575
6.03759
6.08609
6.11042
-4.67787
-4.88192
-4.75547
-4.70757
-4.59444
-4.49044
-4.34922
-4.20338
-4.03448
-3.85822
-3.66671
-3.46797
-3.25928
-3.04545
-2.82597
-2.60356
-2.37833
-2.15201
-1.92504
-1.69845
-1.47243
-1.24726
-1.02287
-0.799285
-0.576393
-0.354129
-0.132392
0.0888254
0.309583
0.529984
0.75012
0.970042
1.18988
1.40988
1.63037
1.85161
2.07381
2.29709
2.52156
2.74712
2.97352
3.20031
3.4269
3.65259
3.87657
4.09798
4.31585
4.529
4.73598
4.9352
5.12495
5.30341
5.46871
5.61899
5.75234
5.86685
5.9607
6.03241
6.08079
6.10507
-4.90635
-4.87415
-4.74951
-4.70216
-4.58923
-4.48556
-4.34462
-4.19911
-4.03054
-3.85462
-3.66342
-3.46497
-3.25661
-3.04312
-2.82396
-2.60187
-2.37693
-2.15086
-1.92411
-1.69769
-1.47178
-1.2467
-1.02238
-0.79887
-0.576046
-0.353852
-0.132185
0.0889597
0.309654
0.530011
0.750104
0.969973
1.18975
1.40972
1.63016
1.85135
2.07349
2.29668
2.52104
2.74648
2.97272
3.19931
3.42567
3.65113
3.87487
4.096
4.31357
4.5264
4.73305
4.93191
5.12131
5.29943
5.46439
5.61435
5.7474
5.86165
5.95526
6.02678
6.07503
6.09925
-4.78618
-4.86666
-4.74395
-4.69709
-4.58434
-4.48097
-4.34032
-4.19513
-4.02684
-3.85118
-3.66028
-3.46215
-3.2541
-3.04091
-2.82208
-2.6003
-2.37565
-2.14981
-1.92326
-1.697
-1.47121
-1.24622
-1.02197
-0.798508
-0.575742
-0.353595
-0.13198
0.0891042
0.309734
0.530015
0.750032
0.969847
1.18959
1.40951
1.62991
1.85108
2.07318
2.29632
2.52058
2.74589
2.97197
3.19838
3.42454
3.64976
3.87326
4.09416
4.31147
4.52399
4.73031
4.92886
5.11793
5.29572
5.46037
5.61001
5.74276
5.85673
5.9501
6.02142
6.06954
6.09371
-4.73417
-4.85926
-4.73836
-4.69198
-4.57944
-4.4764
-4.33603
-4.19114
-4.02311
-3.84773
-3.65711
-3.4593
-3.25156
-3.03868
-2.82018
-2.59873
-2.37437
-2.14879
-1.92243
-1.69632
-1.47065
-1.24575
-1.02154
-0.798126
-0.575406
-0.353313
-0.131759
0.0892662
0.309822
0.530006
0.749936
0.969691
1.1894
1.40928
1.62965
1.85079
2.07286
2.29597
2.52013
2.7453
2.97122
3.19743
3.42339
3.64839
3.87164
4.0923
4.30935
4.52157
4.72757
4.92579
5.11454
5.29202
5.45635
5.60568
5.73811
5.85179
5.9449
6.01601
6.06399
6.08811
-4.73364
-4.85169
-4.73255
-4.68666
-4.5744
-4.4717
-4.33161
-4.187
-4.01924
-3.84416
-3.65381
-3.45629
-3.24887
-3.03635
-2.8182
-2.59708
-2.37305
-2.14774
-1.92159
-1.69561
-1.47003
-1.24518
-1.02103
-0.797656
-0.574977
-0.352952
-0.13148
0.0894565
0.309917
0.530009
0.749855
0.969534
1.18918
1.40903
1.6294
1.85052
2.07255
2.29559
2.51968
2.74471
2.97043
3.19643
3.42216
3.64693
3.86995
4.09034
4.3071
4.51904
4.72473
4.92262
5.11104
5.28819
5.45221
5.60121
5.73333
5.8467
5.93954
6.01044
6.05827
6.08231
-4.73564
-4.84392
-4.72655
-4.68118
-4.56922
-4.46687
-4.32706
-4.18274
-4.01527
-3.84048
-3.65041
-3.45318
-3.24609
-3.03393
-2.81615
-2.5954
-2.37169
-2.14666
-1.92073
-1.69489
-1.46939
-1.24459
-1.02048
-0.797145
-0.574516
-0.352554
-0.131171
0.0896505
0.310001
0.530001
0.74976
0.969351
1.18893
1.40876
1.62912
1.85023
2.07223
2.29521
2.51921
2.74411
2.96964
3.19541
3.42089
3.64542
3.86819
4.08831
4.30479
4.51643
4.72181
4.91937
5.10745
5.28427
5.44795
5.59663
5.72842
5.84148
5.93404
6.00471
6.05238
6.07636
-4.73242
-4.836
-4.72044
-4.67556
-4.56392
-4.46192
-4.3224
-4.1784
-4.01123
-3.83671
-3.64693
-3.45001
-3.24326
-3.03147
-2.81407
-2.59369
-2.37032
-2.14558
-1.91987
-1.69419
-1.46877
-1.24402
-1.01993
-0.79664
-0.574068
-0.352172
-0.130877
0.0898335
0.310068
0.529959
0.749614
0.96912
1.18865
1.40845
1.6288
1.84992
2.07191
2.29484
2.51873
2.7435
2.96885
3.19439
3.41961
3.64387
3.86638
4.08625
4.30245
4.51377
4.71881
4.91604
5.10379
5.28027
5.44361
5.59194
5.72339
5.83613
5.9284
5.99883
6.04635
6.07027
-4.72776
-4.82792
-4.71421
-4.66979
-4.55847
-4.45683
-4.31765
-4.17397
-4.00708
-3.83285
-3.64336
-3.44677
-3.24037
-3.02895
-2.81195
-2.59195
-2.36894
-2.14448
-1.91899
-1.69347
-1.46816
-1.24346
-1.0194
-0.796134
-0.573617
-0.351804
-0.130604
0.0900075
0.310125
0.529885
0.749426
0.968858
1.18834
1.40812
1.62846
1.84959
2.07158
2.29447
2.51827
2.74289
2.96805
3.19336
3.41831
3.64229
3.86453
4.08413
4.30005
4.51105
4.71575
4.91264
5.10005
5.27618
5.43917
5.58715
5.71825
5.83065
5.92263
5.99282
6.04018
6.06403
-4.72325
-4.81968
-4.70782
-4.66385
-4.55287
-4.4516
-4.31276
-4.16942
-4.00282
-3.82889
-3.63971
-3.44345
-3.23741
-3.02638
-2.80977
-2.59016
-2.3675
-2.14336
-1.91811
-1.69274
-1.46752
-1.24288
-1.01886
-0.795626
-0.573161
-0.351434
-0.130338
0.0901652
0.310162
0.529792
0.749223
0.968579
1.18801
1.40777
1.62812
1.84925
2.07124
2.2941
2.51782
2.74228
2.96723
3.1923
3.41698
3.64068
3.86264
4.08195
4.29757
4.50826
4.71262
4.90915
5.0962
5.27199
5.43463
5.58224
5.71297
5.82503
5.91672
5.98669
6.03388
6.05765
-4.71876
-4.8113
-4.70127
-4.65772
-4.54713
-4.44624
-4.30772
-4.16471
-3.99844
-3.82484
-3.63596
-3.44004
-3.23437
-3.02374
-2.80753
-2.58832
-2.36602
-2.1422
-1.91719
-1.69199
-1.46687
-1.24229
-1.01831
-0.795127
-0.572719
-0.351068
-0.130076
0.0902987
0.310168
0.529687
0.749019
0.968289
1.18767
1.40742
1.62778
1.84892
2.07089
2.29371
2.51735
2.74167
2.9664
3.1912
3.41561
3.63903
3.8607
4.07971
4.29502
4.50538
4.70941
4.90558
5.09227
5.26769
5.42996
5.5772
5.70756
5.81927
5.91066
5.9804
6.02744
6.05115
-4.7141
-4.80279
-4.69457
-4.65141
-4.54123
-4.44071
-4.30253
-4.15987
-3.99394
-3.82067
-3.63213
-3.43654
-3.23125
-3.02103
-2.80523
-2.58642
-2.36449
-2.14099
-1.91624
-1.69122
-1.46621
-1.2417
-1.01777
-0.794643
-0.5723
-0.350724
-0.129834
0.0904131
0.310159
0.529575
0.748811
0.967999
1.18734
1.40707
1.62745
1.8486
2.07055
2.29332
2.51686
2.74103
2.96556
3.19009
3.4142
3.63733
3.8587
4.07741
4.2924
4.50243
4.70611
4.90192
5.08824
5.26328
5.42516
5.57201
5.702
5.81337
5.90446
5.97397
6.02086
6.04451
-4.70924
-4.79412
-4.68776
-4.64496
-4.53516
-4.435
-4.29719
-4.15489
-3.98931
-3.81638
-3.62818
-3.43297
-3.22806
-3.01825
-2.80287
-2.58446
-2.36291
-2.13973
-1.91524
-1.69042
-1.46554
-1.2411
-1.01723
-0.79417
-0.571899
-0.350412
-0.129624
0.090517
0.310152
0.529457
0.748598
0.967721
1.18702
1.40675
1.62712
1.84827
2.07021
2.29292
2.51634
2.74036
2.96468
3.18896
3.41277
3.63558
3.85664
4.07506
4.28972
4.4994
4.70272
4.89816
5.08411
5.25875
5.42023
5.56668
5.69629
5.80731
5.89811
5.9674
6.01414
6.03773
-4.70421
-4.78532
-4.68082
-4.63834
-4.52891
-4.4291
-4.29169
-4.14977
-3.98455
-3.81196
-3.62412
-3.4293
-3.2248
-3.0154
-2.80043
-2.58243
-2.36125
-2.13841
-1.91419
-1.68958
-1.46485
-1.24051
-1.01671
-0.793705
-0.571513
-0.350127
-0.129439
0.0906125
0.310149
0.529343
0.748395
0.967465
1.18674
1.40645
1.62681
1.84795
2.06986
2.2925
2.51581
2.73965
2.96377
3.18778
3.41129
3.63378
3.85453
4.07263
4.28697
4.4963
4.69924
4.8943
5.07985
5.2541
5.41517
5.5612
5.69042
5.80108
5.8916
5.96068
6.00727
6.0308
-4.69903
-4.77642
-4.67374
-4.63152
-4.5225
-4.42305
-4.28601
-4.14448
-3.97964
-3.80742
-3.61996
-3.42554
-3.22146
-3.01249
-2.79794
-2.58032
-2.35953
-2.13702
-1.91309
-1.6887
-1.46413
-1.2399
-1.01619
-0.793254
-0.571148
-0.349855
-0.129261
0.0906971
0.31014
0.529247
0.748224
0.967239
1.18648
1.40617
1.62652
1.84763
2.06949
2.29205
2.51524
2.73891
2.9628
3.18655
3.40976
3.63194
3.85236
4.07012
4.28413
4.49311
4.69568
4.89034
5.07548
5.24931
5.40996
5.55557
5.68438
5.79469
5.88492
5.9538
6.00025
6.02372
-4.69366
-4.7674
-4.66652
-4.62453
-4.51592
-4.41682
-4.28016
-4.13901
-3.97458
-3.80276
-3.6157
-3.42168
-3.21804
-3.00951
-2.79537
-2.57815
-2.35772
-2.13557
-1.91193
-1.68777
-1.46336
-1.23926
-1.01566
-0.792821
-0.5708
-0.349587
-0.129082
0.0907749
0.310131
0.529173
0.748091
0.967051
1.18626
1.40593
1.62625
1.84731
2.0691
2.29156
2.51462
2.73812
2.96178
3.18525
3.40818
3.63004
3.85013
4.06756
4.28121
4.48983
4.69201
4.88627
5.07099
5.24439
5.4046
5.54978
5.67818
5.78813
5.87808
5.94675
5.99308
6.0165
-4.68812
-4.75825
-4.65918
-4.61737
-4.50918
-4.4104
-4.27414
-4.13339
-3.96937
-3.79796
-3.61133
-3.41775
-3.21454
-3.00645
-2.79274
-2.57592
-2.35586
-2.13403
-1.9107
-1.68678
-1.46256
-1.2386
-1.01511
-0.792387
-0.570456
-0.349324
-0.128908
0.0908604
0.310142
0.529123
0.747988
0.966902
1.18607
1.40571
1.62599
1.84699
2.06869
2.29103
2.51395
2.73727
2.9607
3.1839
3.40653
3.62807
3.84784
4.06493
4.27822
4.48646
4.68825
4.8821
5.06639
5.23933
5.39908
5.54383
5.67182
5.78141
5.87107
5.93954
5.98575
6.00912
-4.68243
-4.74897
-4.65171
-4.61005
-4.50226
-4.4038
-4.26794
-4.12762
-3.96402
-3.79304
-3.60685
-3.41373
-3.21099
-3.00333
-2.79004
-2.57362
-2.35392
-2.13243
-1.90939
-1.68572
-1.46171
-1.2379
-1.01455
-0.791933
-0.570105
-0.349072
-0.12874
0.0909648
0.310183
0.529098
0.74791
0.966786
1.18592
1.40551
1.62574
1.84666
2.06825
2.29046
2.51321
2.73633
2.95954
3.1825
3.40482
3.62604
3.84549
4.06223
4.27516
4.48301
4.68439
4.87782
5.06166
5.23415
5.39343
5.53772
5.66529
5.77452
5.8639
5.93217
5.97826
6.00158
-4.67655
-4.73958
-4.64411
-4.60255
-4.49517
-4.39702
-4.26159
-4.12169
-3.95855
-3.78801
-3.60228
-3.40963
-3.20738
-3.00017
-2.78729
-2.57125
-2.35191
-2.13075
-1.908
-1.68459
-1.4608
-1.23717
-1.01395
-0.791454
-0.569744
-0.348818
-0.128563
0.0910848
0.310247
0.529101
0.74786
0.966698
1.18579
1.40533
1.62548
1.84631
2.06778
2.28983
2.51241
2.73533
2.95832
3.18103
3.40306
3.62397
3.84307
4.05946
4.27202
4.47948
4.68044
4.87342
5.05681
5.22883
5.38764
5.53145
5.6586
5.76747
5.85658
5.92465
5.9706
5.99387
-4.67048
-4.73007
-4.63639
-4.59487
-4.48792
-4.39009
-4.25507
-4.11561
-3.95294
-3.78287
-3.59762
-3.40546
-3.2037
-2.99696
-2.7845
-2.56881
-2.34982
-2.12899
-1.90655
-1.6834
-1.45982
-1.23638
-1.01332
-0.79096
-0.569371
-0.348544
-0.128368
0.0912127
0.310321
0.529132
0.747844
0.966633
1.18568
1.40516
1.62523
1.84593
2.06725
2.28915
2.51154
2.73426
2.95703
3.17948
3.40124
3.62184
3.8406
4.05663
4.26882
4.47587
4.67639
4.86893
5.05184
5.22337
5.38169
5.52504
5.65176
5.76027
5.84909
5.91696
5.96279
5.98602
-4.66424
-4.72043
-4.62852
-4.58703
-4.48052
-4.38299
-4.24842
-4.1094
-3.94722
-3.77763
-3.59289
-3.40124
-3.19998
-2.9937
-2.78166
-2.56633
-2.34767
-2.12715
-1.90501
-1.68213
-1.45878
-1.23554
-1.01265
-0.79045
-0.56898
-0.348245
-0.128155
0.0913503
0.310406
0.529179
0.747852
0.966591
1.18558
1.40499
1.62495
1.84552
2.06669
2.28841
2.51061
2.73313
2.95567
3.17787
3.39937
3.61966
3.83809
4.05375
4.26554
4.47217
4.67226
4.86433
5.04676
5.21778
5.37561
5.51849
5.64478
5.75291
5.84144
5.90911
5.95482
5.97799
-4.65782
-4.71066
-4.62052
-4.57903
-4.47298
-4.37573
-4.24161
-4.10305
-3.94138
-3.7723
-3.58809
-3.39697
-3.19621
-2.99039
-2.77875
-2.56379
-2.34545
-2.12524
-1.9034
-1.68079
-1.45768
-1.23464
-1.01195
-0.789909
-0.568566
-0.347934
-0.127932
0.0915043
0.310505
0.529234
0.747869
0.966564
1.18549
1.40481
1.62466
1.84508
2.06608
2.28761
2.50962
2.73193
2.95425
3.17622
3.39744
3.61744
3.83554
4.05083
4.2622
4.46839
4.66803
4.85962
5.04155
5.21206
5.36938
5.51179
5.63764
5.74541
5.83365
5.90111
5.94668
5.96978
-4.65121
-4.70077
-4.61239
-4.57086
-4.46529
-4.36834
-4.23468
-4.09659
-3.93544
-3.76688
-3.58322
-3.39263
-3.1924
-2.98704
-2.7758
-2.56119
-2.34318
-2.12326
-1.9017
-1.67937
-1.45651
-1.23371
-1.01121
-0.789329
-0.56813
-0.347619
-0.127702
0.0916722
0.310619
0.529296
0.747886
0.966535
1.18539
1.40461
1.62434
1.84461
2.06543
2.28677
2.50857
2.73068
2.95278
3.17452
3.39547
3.61517
3.83293
4.04784
4.2588
4.46454
4.6637
4.85479
5.03621
5.20622
5.36303
5.50494
5.63037
5.73777
5.82571
5.89295
5.93838
5.96141
-4.64441
-4.69076
-4.60415
-4.56253
-4.45746
-4.3608
-4.22763
-4.09001
-3.9294
-3.76137
-3.57827
-3.38824
-3.18853
-2.98364
-2.7728
-2.55852
-2.34082
-2.12122
-1.89994
-1.67788
-1.45529
-1.23273
-1.01043
-0.788725
-0.567681
-0.347296
-0.127468
0.0918426
0.310737
0.529364
0.747901
0.966495
1.18528
1.40441
1.62399
1.8441
2.06474
2.28589
2.50748
2.72937
2.95126
3.17277
3.39347
3.61287
3.83028
4.0448
4.25534
4.46061
4.65927
4.84985
5.03076
5.20024
5.35654
5.49797
5.62296
5.72999
5.81763
5.88464
5.92992
5.95288
-4.63742
-4.68064
-4.59577
-4.55405
-4.4495
-4.35313
-4.22046
-4.08332
-3.92326
-3.75577
-3.57325
-3.38378
-3.1846
-2.98018
-2.76974
-2.5558
-2.3384
-2.11909
-1.89811
-1.67634
-1.45402
-1.2317
-1.00962
-0.788112
-0.567223
-0.346959
-0.127229
0.0920074
0.310849
0.52943
0.747914
0.966444
1.18516
1.40418
1.62363
1.84356
2.06401
2.28496
2.50635
2.72803
2.9497
3.17098
3.39144
3.61054
3.8276
4.04172
4.2518
4.4566
4.65475
4.84481
5.02518
5.19412
5.34991
5.49086
5.61541
5.72206
5.80939
5.87617
5.9213
5.94417
-4.63026
-4.6704
-4.58727
-4.54543
-4.44142
-4.34534
-4.21316
-4.07651
-3.91702
-3.75009
-3.56815
-3.37924
-3.18061
-2.97665
-2.7666
-2.553
-2.33591
-2.11689
-1.89621
-1.67474
-1.45269
-1.23063
-1.00879
-0.787491
-0.566759
-0.346615
-0.126986
0.092168
0.310949
0.529482
0.747918
0.966385
1.18501
1.40393
1.62324
1.843
2.06325
2.284
2.50519
2.72666
2.94811
3.16916
3.38936
3.60817
3.82488
4.03858
4.24819
4.45249
4.65013
4.83965
5.01946
5.18787
5.34314
5.48361
5.60772
5.71399
5.801
5.86754
5.9125
5.93527
-4.62289
-4.66005
-4.57864
-4.53665
-4.43321
-4.33741
-4.20575
-4.06959
-3.91068
-3.74431
-3.56296
-3.37462
-3.17653
-2.97304
-2.76339
-2.55013
-2.33335
-2.11463
-1.89426
-1.67309
-1.45133
-1.22954
-1.00795
-0.786853
-0.566288
-0.346274
-0.126747
0.0923266
0.311039
0.529518
0.747905
0.966311
1.18485
1.40365
1.62281
1.84241
2.06248
2.28302
2.504
2.72525
2.94649
3.1673
3.38724
3.60575
3.8221
4.03538
4.24451
4.44829
4.64539
4.83436
5.01362
5.18149
5.33624
5.47622
5.59989
5.70578
5.79247
5.85875
5.90353
5.9262
-4.61532
-4.64958
-4.5699
-4.52773
-4.42487
-4.32935
-4.19822
-4.06255
-3.90421
-3.73841
-3.55767
-3.36991
-3.17235
-2.96933
-2.76009
-2.54719
-2.33073
-2.11232
-1.89225
-1.67138
-1.44994
-1.22844
-1.00709
-0.786202
-0.565812
-0.345939
-0.126514
0.0924796
0.311124
0.529541
0.74787
0.966215
1.18467
1.40335
1.62237
1.8418
2.06168
2.28203
2.50279
2.72382
2.94483
3.16542
3.38509
3.60329
3.81926
4.03211
4.24075
4.444
4.64054
4.82895
5.00766
5.17497
5.32919
5.46868
5.59192
5.69742
5.78377
5.84979
5.89438
5.91694
-4.60756
-4.639
-4.56102
-4.51865
-4.4164
-4.32115
-4.19056
-4.05538
-3.89763
-3.7324
-3.55227
-3.36508
-3.16807
-2.96553
-2.7567
-2.54416
-2.32804
-2.10995
-1.8902
-1.66965
-1.44852
-1.22732
-1.00623
-0.785548
-0.565332
-0.345599
-0.126286
0.0926245
0.311202
0.529555
0.747818
0.966094
1.18447
1.40303
1.6219
1.84117
2.06087
2.28101
2.50156
2.72237
2.94315
3.16349
3.3829
3.60078
3.81636
4.02876
4.2369
4.43961
4.63558
4.82342
5.00155
5.16831
5.322
5.461
5.58379
5.6889
5.77491
5.84065
5.88505
5.9075
-4.5996
-4.62829
-4.55199
-4.5094
-4.40778
-4.31281
-4.18277
-4.04807
-3.89092
-3.72627
-3.54675
-3.36014
-3.16367
-2.96161
-2.75322
-2.54105
-2.32528
-2.10752
-1.88811
-1.66789
-1.44708
-1.22617
-1.00535
-0.784895
-0.564849
-0.345252
-0.126052
0.0927664
0.311271
0.529559
0.747754
0.965952
1.18423
1.40269
1.62143
1.84052
2.06003
2.27998
2.50032
2.72089
2.94143
3.16152
3.38065
3.5982
3.81339
4.02533
4.23295
4.4351
4.63051
4.81775
4.9953
5.1615
5.31466
5.45318
5.57552
5.68022
5.76588
5.83134
5.87555
5.89787
-4.59142
-4.61745
-4.54282
-4.49997
-4.39901
-4.30431
-4.17483
-4.04062
-3.88407
-3.71999
-3.54109
-3.35506
-3.15915
-2.95758
-2.74963
-2.53786
-2.32245
-2.10505
-1.88599
-1.66612
-1.44563
-1.22501
-1.00446
-0.784229
-0.564359
-0.344896
-0.125807
0.0929139
0.311335
0.529552
0.747677
0.965792
1.18398
1.40232
1.62092
1.83986
2.05919
2.27894
2.49906
2.7194
2.93968
3.1595
3.37834
3.59555
3.81034
4.0218
4.22889
4.43049
4.62531
4.81196
4.98892
5.15455
5.30717
5.4452
5.56708
5.67137
5.75668
5.82185
5.86586
5.88806
-4.58301
-4.60647
-4.53348
-4.49037
-4.39008
-4.29564
-4.16674
-4.03302
-3.87708
-3.71358
-3.53529
-3.34984
-3.15449
-2.95343
-2.74594
-2.53458
-2.31956
-2.10254
-1.88384
-1.66431
-1.44415
-1.22384
-1.00355
-0.783541
-0.563852
-0.344529
-0.125551
0.0930726
0.311403
0.529537
0.747583
0.965615
1.1837
1.40193
1.62039
1.83918
2.05833
2.27788
2.49777
2.71787
2.93789
3.15743
3.37596
3.59282
3.80719
4.01817
4.22473
4.42575
4.61998
4.80604
4.98241
5.14745
5.29954
5.43706
5.55848
5.66236
5.74731
5.81219
5.85597
5.87805
-4.57438
-4.59534
-4.52397
-4.48057
-4.38098
-4.2868
-4.15849
-4.02526
-3.86994
-3.70701
-3.52935
-3.34448
-3.1497
-2.94915
-2.74214
-2.53122
-2.31662
-2.09999
-1.88165
-1.66247
-1.44266
-1.22266
-1.00263
-0.782829
-0.563317
-0.344139
-0.125279
0.0932439
0.31148
0.52952
0.747475
0.96542
1.18341
1.40152
1.61984
1.83847
2.05746
2.27681
2.49647
2.71631
2.93606
3.15531
3.37352
3.59
3.80395
4.01444
4.22046
4.4209
4.61452
4.79998
4.97575
5.14022
5.29175
5.42875
5.54972
5.65318
5.73777
5.80234
5.84591
5.86785
-4.5655
-4.58405
-4.51427
-4.47057
-4.37171
-4.27778
-4.15008
-4.01733
-3.86264
-3.70029
-3.52326
-3.33898
-3.14477
-2.94474
-2.73823
-2.52778
-2.31362
-2.09739
-1.87944
-1.66062
-1.44114
-1.22145
-1.00168
-0.782095
-0.562751
-0.343718
-0.124985
0.0934294
0.311566
0.529506
0.747361
0.965206
1.18309
1.40108
1.61927
1.83775
2.05656
2.27572
2.49515
2.71473
2.93419
3.15314
3.37101
3.5871
3.8006
4.01058
4.21606
4.41592
4.60895
4.79379
4.96895
5.13284
5.28381
5.4203
5.54079
5.64384
5.72805
5.79231
5.83566
5.85748
-4.55638
-4.57259
-4.50438
-4.46036
-4.36225
-4.26858
-4.1415
-4.00925
-3.85519
-3.69342
-3.51703
-3.33333
-3.1397
-2.94021
-2.73422
-2.52426
-2.31056
-2.09475
-1.8772
-1.65875
-1.4396
-1.2202
-1.0007
-0.781329
-0.562155
-0.343264
-0.12466
0.0936334
0.31166
0.529497
0.747244
0.964974
1.18274
1.40062
1.61868
1.837
2.05565
2.2746
2.49381
2.71312
2.93228
3.1509
3.36841
3.5841
3.79715
4.00662
4.21153
4.41082
4.60324
4.78747
4.96202
5.12531
5.27572
5.4117
5.53171
5.63432
5.71815
5.78211
5.82524
5.84693
-4.54703
-4.56097
-4.49428
-4.44993
-4.3526
-4.25919
-4.13275
-4.001
-3.84758
-3.6864
-3.51064
-3.32753
-3.1345
-2.93557
-2.73012
-2.52066
-2.30744
-2.09208
-1.87493
-1.65685
-1.43804
-1.21893
-0.999674
-0.780521
-0.561526
-0.34278
-0.124306
0.093861
0.311766
0.529487
0.747119
0.964728
1.18238
1.40013
1.61806
1.83624
2.05471
2.27346
2.49243
2.71148
2.93033
3.1486
3.36574
3.58101
3.79358
4.00254
4.20689
4.40559
4.59741
4.78102
4.95495
5.11764
5.26749
5.40294
5.52247
5.62464
5.70809
5.77173
5.81465
5.83621
-4.53742
-4.54919
-4.48399
-4.43929
-4.34275
-4.24962
-4.12383
-3.99258
-3.83982
-3.67922
-3.5041
-3.32159
-3.12917
-2.93081
-2.72592
-2.51699
-2.30427
-2.08937
-1.87263
-1.65492
-1.43643
-1.21761
-0.99861
-0.779667
-0.560855
-0.342265
-0.123927
0.0941116
0.311886
0.529476
0.746981
0.964468
1.18199
1.39961
1.6174
1.83544
2.05375
2.2723
2.49103
2.70979
2.92833
3.14624
3.36299
3.57783
3.78991
3.99834
4.20213
4.40023
4.59144
4.77444
4.94775
5.10983
5.25911
5.39403
5.51307
5.6148
5.69786
5.76119
5.80389
5.82533
-4.52757
-4.53724
-4.4735
-4.42845
-4.33272
-4.23985
-4.11475
-3.984
-3.83191
-3.6719
-3.49743
-3.31553
-3.12372
-2.92594
-2.72163
-2.51324
-2.30105
-2.08661
-1.87029
-1.65294
-1.43479
-1.21626
-0.997504
-0.77877
-0.560139
-0.341715
-0.123526
0.0943775
0.312017
0.529466
0.746832
0.964188
1.18158
1.39907
1.61672
1.83462
2.05276
2.27112
2.4896
2.70807
2.92628
3.14383
3.36016
3.57455
3.78614
3.99403
4.19726
4.39476
4.58535
4.76773
4.94042
5.1019
5.2506
5.38497
5.50352
5.6048
5.68748
5.75049
5.79296
5.81428
-4.51747
-4.52513
-4.46283
-4.41741
-4.32252
-4.22991
-4.1055
-3.97527
-3.82385
-3.66444
-3.49063
-3.30933
-3.11815
-2.92096
-2.71725
-2.50943
-2.29777
-2.0838
-1.8679
-1.65093
-1.43309
-1.21485
-0.996348
-0.777831
-0.559385
-0.341128
-0.1231
0.0946525
0.312149
0.529456
0.746676
0.963887
1.18114
1.3985
1.61602
1.83376
2.05174
2.2699
2.48814
2.70631
2.92418
3.14135
3.35726
3.57118
3.78227
3.98961
4.19226
4.38917
4.57915
4.7609
4.93297
5.09384
5.24195
5.37577
5.49381
5.59465
5.67694
5.73964
5.78189
5.80307
-4.50717
-4.51287
-4.45196
-4.40618
-4.31215
-4.2198
-4.0961
-3.96638
-3.81565
-3.65685
-3.48371
-3.30302
-3.11246
-2.91588
-2.71278
-2.50554
-2.29442
-2.08094
-1.86547
-1.64886
-1.43135
-1.21339
-0.99514
-0.776846
-0.558596
-0.340513
-0.122651
0.0949372
0.312279
0.529439
0.74651
0.963568
1.18068
1.3979
1.61529
1.83288
2.05068
2.26864
2.48664
2.70452
2.92203
3.13881
3.35428
3.56772
3.77829
3.98509
4.18716
4.38347
4.57284
4.75396
4.92539
5.08564
5.23317
5.36644
5.48397
5.58435
5.66625
5.72864
5.77066
5.79173
-4.49665
-4.50049
-4.44093
-4.39478
-4.30162
-4.20953
-4.08655
-3.95734
-3.80732
-3.64912
-3.47665
-3.29659
-3.10668
-2.91071
-2.70823
-2.50158
-2.29101
-2.07802
-1.86297
-1.64673
-1.42955
-1.21188
-0.993879
-0.775811
-0.557768
-0.339873
-0.122186
0.095233
0.31241
0.52941
0.746326
0.963234
1.1802
1.39728
1.61452
1.83197
2.0496
2.26734
2.48509
2.70267
2.91983
3.1362
3.35122
3.56418
3.77422
3.98046
4.18195
4.37766
4.56642
4.74691
4.91771
5.07733
5.22425
5.35697
5.47398
5.57391
5.65541
5.71749
5.75929
5.78025
-4.48593
-4.488
-4.42975
-4.38322
-4.29094
-4.19911
-4.07687
-3.94818
-3.79886
-3.64127
-3.46948
-3.29005
-3.10079
-2.90545
-2.7036
-2.49754
-2.28753
-2.07503
-1.86042
-1.64455
-1.42769
-1.2103
-0.992564
-0.774728
-0.556901
-0.33921
-0.12171
0.0955358
0.312541
0.52937
0.746125
0.962882
1.1797
1.39663
1.61373
1.83102
2.04848
2.26601
2.4835
2.70078
2.91758
3.13353
3.34809
3.56054
3.77006
3.97574
4.17665
4.37176
4.55989
4.73975
4.90991
5.0689
5.21522
5.34737
5.46387
5.56332
5.64443
5.7062
5.74779
5.76864
-4.47503
-4.47542
-4.41844
-4.37153
-4.28013
-4.18855
-4.06707
-3.93889
-3.79028
-3.6333
-3.4622
-3.2834
-3.09481
-2.90009
-2.69888
-2.49342
-2.28397
-2.07197
-1.8578
-1.6423
-1.42577
-1.20867
-0.991193
-0.773599
-0.555998
-0.338519
-0.12122
0.0958407
0.31267
0.529325
0.745912
0.962508
1.17917
1.39596
1.61291
1.83004
2.04732
2.26464
2.48187
2.69882
2.91526
3.13079
3.34489
3.55683
3.76581
3.97093
4.17126
4.36576
4.55327
4.73249
4.902
5.06036
5.20607
5.33764
5.45361
5.5526
5.63332
5.69478
5.73616
5.7569
-4.46396
-4.46276
-4.40702
-4.35972
-4.26921
-4.17788
-4.05715
-3.92948
-3.78159
-3.62522
-3.45481
-3.27665
-3.08872
-2.89465
-2.69407
-2.48922
-2.28034
-2.06883
-1.8551
-1.63998
-1.42378
-1.20697
-0.989767
-0.772425
-0.55506
-0.337802
-0.120713
0.0961482
0.312794
0.529277
0.74569
0.962118
1.17863
1.39527
1.61206
1.82903
2.04612
2.26322
2.48018
2.69682
2.91288
3.12799
3.34161
3.55304
3.76147
3.96603
4.16578
4.35968
4.54656
4.72513
4.894
5.05173
5.19681
5.3278
5.44323
5.54176
5.62209
5.68325
5.72441
5.74505
-4.45275
-4.45003
-4.39549
-4.34782
-4.2582
-4.1671
-4.04712
-3.91996
-3.7728
-3.61704
-3.44733
-3.26979
-3.08254
-2.88911
-2.68919
-2.48494
-2.27662
-2.06562
-1.85232
-1.63758
-1.42172
-1.20521
-0.988286
-0.771205
-0.554087
-0.33706
-0.120189
0.0964645
0.312918
0.529221
0.745461
0.96172
1.17807
1.39455
1.61119
1.82798
2.04488
2.26175
2.47844
2.69476
2.91044
3.12511
3.33826
3.54918
3.75706
3.96105
4.16021
4.3535
4.53976
4.71769
4.88591
5.04298
5.18744
5.31784
5.43274
5.53079
5.61074
5.67159
5.71255
5.73309
-4.4414
-4.43727
-4.38389
-4.33584
-4.24711
-4.15623
-4.037
-3.91033
-3.7639
-3.60875
-3.43974
-3.26284
-3.07627
-2.88348
-2.68421
-2.48056
-2.27282
-2.06232
-1.84946
-1.63511
-1.41959
-1.20339
-0.986753
-0.76994
-0.553077
-0.336293
-0.11965
0.0967935
0.313047
0.529162
0.745226
0.961318
1.1775
1.39382
1.6103
1.82691
2.0436
2.26024
2.47665
2.69264
2.90793
3.12217
3.33483
3.54524
3.75258
3.956
4.15457
4.34725
4.53288
4.71016
4.87772
5.03414
5.17797
5.30778
5.42214
5.51972
5.59927
5.65983
5.70059
5.72103
-4.42994
-4.42448
-4.37222
-4.32379
-4.23595
-4.14528
-4.02681
-3.90062
-3.7549
-3.60036
-3.43206
-3.25581
-3.06991
-2.87777
-2.67914
-2.4761
-2.26893
-2.05893
-1.84653
-1.63256
-1.41739
-1.20151
-0.985168
-0.768632
-0.552032
-0.335501
-0.119094
0.0971344
0.313185
0.529106
0.74499
0.960911
1.17693
1.39307
1.60938
1.82581
2.04229
2.25868
2.47481
2.69046
2.90536
3.11917
3.33134
3.54123
3.74803
3.95088
4.14885
4.34092
4.52592
4.70254
4.86944
5.0252
5.1684
5.29761
5.41143
5.50854
5.58771
5.64798
5.68853
5.70889
-4.41837
-4.41169
-4.3605
-4.3117
-4.22474
-4.13426
-4.01654
-3.89082
-3.74582
-3.59187
-3.42428
-3.24868
-3.06347
-2.87197
-2.67398
-2.47155
-2.26494
-2.05545
-1.8435
-1.62994
-1.41512
-1.19957
-0.98353
-0.767283
-0.550957
-0.334682
-0.118517
0.0974862
0.313331
0.529062
0.74476
0.960502
1.17635
1.39233
1.60844
1.82467
2.04093
2.25708
2.47291
2.68822
2.90273
3.1161
3.32779
3.53715
3.7434
3.94568
4.14307
4.33452
4.51887
4.69484
4.86107
5.01618
5.15874
5.28735
5.40063
5.49728
5.57606
5.63603
5.67639
5.69667
-4.40672
-4.39889
-4.34875
-4.29957
-4.21347
-4.12318
-4.0062
-3.88094
-3.73665
-3.5833
-3.41641
-3.24146
-3.05693
-2.86608
-2.66874
-2.4669
-2.26086
-2.05189
-1.8404
-1.62724
-1.41279
-1.19757
-0.981844
-0.765895
-0.54985
-0.333838
-0.117919
0.0978528
0.313489
0.529028
0.74454
0.960101
1.17577
1.39157
1.60749
1.82352
2.03955
2.25543
2.47096
2.68592
2.90004
3.11296
3.32417
3.53301
3.7387
3.94041
4.13721
4.32805
4.51175
4.68705
4.85262
5.00707
5.149
5.27701
5.38975
5.48592
5.56433
5.62401
5.66418
5.68438
-4.39499
-4.38611
-4.33696
-4.28742
-4.20218
-4.11204
-3.99579
-3.87099
-3.72742
-3.57465
-3.40846
-3.23415
-3.05031
-2.86011
-2.66341
-2.46217
-2.2567
-2.04824
-1.83722
-1.62447
-1.4104
-1.19552
-0.980117
-0.764469
-0.548712
-0.332972
-0.117304
0.0982385
0.313662
0.529003
0.744331
0.95971
1.17519
1.3908
1.60653
1.82234
2.03813
2.25373
2.46896
2.68357
2.89729
3.10976
3.32048
3.5288
3.73395
3.93509
4.13128
4.32149
4.50455
4.6792
4.8441
4.99788
5.13917
5.2666
5.37879
5.47449
5.55253
5.61193
5.65192
5.67203
-4.3832
-4.37335
-4.32517
-4.27526
-4.19086
-4.10087
-3.98534
-3.86098
-3.71811
-3.56593
-3.40044
-3.22676
-3.04361
-2.85405
-2.65799
-2.45735
-2.25245
-2.0445
-1.83395
-1.62163
-1.40794
-1.19342
-0.978349
-0.763011
-0.547546
-0.332082
-0.11667
0.0986418
0.313851
0.528992
0.744132
0.959327
1.17462
1.39003
1.60556
1.82114
2.03667
2.25199
2.4669
2.68116
2.89448
3.10651
3.31674
3.52453
3.72914
3.92969
4.12528
4.31486
4.49728
4.67126
4.8355
4.98862
5.12928
5.25611
5.36777
5.46301
5.54068
5.59981
5.63961
5.65963
-4.37135
-4.36063
-4.31336
-4.2631
-4.17951
-4.08967
-3.97485
-3.85091
-3.70874
-3.55713
-3.39234
-3.2193
-3.03683
-2.8479
-2.65249
-2.45245
-2.24812
-2.04069
-1.83061
-1.61872
-1.40542
-1.19127
-0.97654
-0.761522
-0.546356
-0.33117
-0.116015
0.0990601
0.314055
0.528996
0.743944
0.958951
1.17406
1.38927
1.60458
1.81992
2.03519
2.25022
2.4648
2.67869
2.89161
3.10319
3.31293
3.5202
3.72425
3.92423
4.11921
4.30817
4.48994
4.66326
4.82683
4.9793
5.11933
5.24557
5.3567
5.4515
5.5288
5.58765
5.62726
5.64722
-4.35948
-4.34794
-4.30156
-4.25096
-4.16816
-4.07845
-3.96433
-3.8408
-3.69931
-3.54828
-3.38419
-3.21178
-3.02999
-2.84169
-2.64692
-2.44747
-2.2437
-2.03679
-1.8272
-1.61575
-1.40286
-1.18908
-0.974693
-0.760004
-0.545144
-0.330237
-0.115341
0.0994947
0.314273
0.529015
0.743768
0.958584
1.17349
1.3885
1.60358
1.81867
2.03367
2.2484
2.46264
2.67617
2.88868
3.09981
3.30907
3.51581
3.7193
3.91869
4.11308
4.30141
4.48253
4.65519
4.8181
4.96993
5.10933
5.23499
5.34561
5.43996
5.5169
5.57547
5.6149
5.6348
-4.3476
-4.33532
-4.28976
-4.23883
-4.15682
-4.06722
-3.95379
-3.83066
-3.68986
-3.53938
-3.37598
-3.2042
-3.02309
-2.83542
-2.64127
-2.44241
-2.23921
-2.03283
-1.82373
-1.61272
-1.40024
-1.18684
-0.972813
-0.758455
-0.543905
-0.329284
-0.11465
0.0999474
0.314506
0.529044
0.743605
0.958226
1.17293
1.38772
1.60256
1.8174
2.03211
2.24653
2.46044
2.67359
2.88569
3.09637
3.30513
3.51135
3.71428
3.9131
4.10688
4.29458
4.47506
4.64707
4.80933
4.96051
5.09931
5.2244
5.33451
5.42841
5.50499
5.5633
5.60257
5.62239
-4.33572
-4.32276
-4.27799
-4.22674
-4.14549
-4.05601
-3.94325
-3.82051
-3.68038
-3.53045
-3.36773
-3.19657
-3.01613
-2.82909
-2.63557
-2.43728
-2.23466
-2.0288
-1.82019
-1.60964
-1.39758
-1.18456
-0.970902
-0.756879
-0.542639
-0.328309
-0.11394
0.100417
0.314754
0.529086
0.743451
0.957872
1.17236
1.38693
1.60153
1.8161
2.03052
2.24461
2.45818
2.67095
2.88264
3.09286
3.30113
3.50683
3.70921
3.90745
4.10062
4.2877
4.46754
4.6389
4.80051
4.95107
5.08927
5.21381
5.32341
5.41687
5.49311
5.55117
5.59027
5.61
-4.32386
-4.31029
-4.26627
-4.21472
-4.1342
-4.04483
-3.93273
-3.81038
-3.67091
-3.52151
-3.35946
-3.18891
-3.00913
-2.82271
-2.62981
-2.43211
-2.23004
-2.02471
-1.8166
-1.6065
-1.39487
-1.18225
-0.968957
-0.755274
-0.541349
-0.327309
-0.113208
0.100905
0.315019
0.529142
0.743302
0.957516
1.17179
1.38612
1.60047
1.81476
2.02888
2.24265
2.45586
2.66825
2.87952
3.08929
3.29707
3.50225
3.70408
3.90174
4.09431
4.28077
4.45998
4.6307
4.79168
4.94163
5.07924
5.20323
5.31233
5.40538
5.48129
5.5391
5.57803
5.59769
-4.31205
-4.29793
-4.25461
-4.20277
-4.12297
-4.0337
-3.92225
-3.80027
-3.66145
-3.51258
-3.35118
-3.18123
-3.0021
-2.81628
-2.624
-2.42688
-2.22538
-2.02057
-1.81296
-1.60332
-1.39213
-1.17991
-0.966979
-0.753639
-0.540033
-0.326283
-0.11245
0.101414
0.315301
0.52921
0.743157
0.957157
1.17121
1.3853
1.59938
1.81339
2.0272
2.24063
2.45348
2.66549
2.87634
3.08566
3.29296
3.49761
3.69889
3.89597
4.08795
4.27379
4.45237
4.62248
4.78285
4.93219
5.06923
5.19268
5.30132
5.39397
5.46955
5.5271
5.56587
5.58548
-4.30032
-4.2857
-4.24304
-4.19094
-4.11182
-4.02265
-3.91184