/*--------------------------------*- C++ -*----------------------------------*\
| =========                 |                                                 |
| \\      /  F ield         | foam-extend: Open Source CFD                    |
|  \\    /   O peration     | Version:     4.0                                |
|   \\  /    A nd           | Web:         http://www.foam-extend.org         |
|    \\/     M anipulation  |                                                 |
\*---------------------------------------------------------------------------*/
FoamFile
{
    version     2.0;
    format      ascii;
    class       surfaceScalarField;
    location    "10";
    object      phi;
}
// * * * * * * * * * * * * * * * * * * * * * * * * * * * * * * * * * * * * * //

dimensions      [0 3 -1 0 0 0 0];

internalField   nonuniform List<scalar> 
13744
(
-5.30456e-09
4.66063e-06
-1.65479e-08
1.145e-08
-2.52857e-08
9.01735e-09
-3.32441e-08
8.24977e-09
-4.092e-08
7.9529e-09
-4.81789e-08
7.46042e-09
-5.49876e-08
6.87698e-09
-6.13073e-08
6.24711e-09
-6.71137e-08
5.64045e-09
-7.23975e-08
5.11472e-09
-7.71558e-08
4.68249e-09
-8.13992e-08
4.31276e-09
-8.51461e-08
3.94037e-09
-8.84242e-08
3.52056e-09
-9.12651e-08
3.04731e-09
-9.37041e-08
2.55177e-09
-9.57772e-08
2.07529e-09
-9.75216e-08
1.64934e-09
-9.89749e-08
1.2861e-09
-1.00174e-07
9.86871e-10
-1.01153e-07
7.50161e-10
-1.01944e-07
5.72696e-10
-1.02574e-07
4.42305e-10
-1.03069e-07
3.36314e-10
-1.03451e-07
2.32306e-10
-1.03739e-07
1.24359e-10
-1.03947e-07
2.66746e-11
-1.04088e-07
-4.12729e-11
-1.04168e-07
-7.41033e-11
-1.04194e-07
-8.71614e-11
-1.04167e-07
-1.08014e-10
-1.04085e-07
-1.59738e-10
-1.03945e-07
-2.46002e-10
-1.03738e-07
-3.48936e-10
-1.03451e-07
-4.43249e-10
-1.03071e-07
-5.13988e-10
-1.02577e-07
-5.64961e-10
-1.01948e-07
-6.1628e-10
-1.01158e-07
-6.95963e-10
-1.00179e-07
-8.29372e-10
-9.89791e-08
-1.02875e-09
-9.75243e-08
-1.29034e-09
-9.57786e-08
-1.60203e-09
-9.37047e-08
-1.95406e-09
-9.12652e-08
-2.34361e-09
-8.84232e-08
-2.77402e-09
-8.5144e-08
-3.25414e-09
-8.13961e-08
-3.79508e-09
-7.71535e-08
-4.3984e-09
-7.23974e-08
-5.04094e-09
-6.71176e-08
-5.67487e-09
-6.13134e-08
-6.24781e-09
-5.49956e-08
-6.72689e-09
-4.81877e-08
-7.10956e-09
-4.09266e-08
-7.41411e-09
-3.3263e-08
-7.66212e-09
-2.526e-08
-7.86856e-09
-1.69919e-08
-8.03095e-09
-8.5421e-09
-8.16253e-09
-8.22126e-09
-2.12883e-08
4.68208e-06
-5.13315e-08
4.19903e-08
-7.87045e-08
3.70257e-08
-1.03425e-07
3.35932e-08
-1.2736e-07
3.24473e-08
-1.49929e-07
3.04073e-08
-1.71144e-07
2.81789e-08
-1.90808e-07
2.57087e-08
-2.08897e-07
2.33509e-08
-2.25346e-07
2.1216e-08
-2.40168e-07
1.94006e-08
-2.53384e-07
1.77697e-08
-2.65059e-07
1.61387e-08
-2.75273e-07
1.43515e-08
-2.84129e-07
1.24087e-08
-2.91733e-07
1.04141e-08
-2.98199e-07
8.51762e-09
-3.03642e-07
6.82715e-09
-3.08178e-07
5.38987e-09
-3.11923e-07
4.20793e-09
-3.14981e-07
3.27192e-09
-3.17451e-07
2.56103e-09
-3.19421e-07
2.02681e-09
-3.20968e-07
1.58789e-09
-3.22163e-07
1.16634e-09
-3.23062e-07
7.38178e-10
-3.23714e-07
3.4605e-10
-3.24154e-07
5.12715e-11
-3.24406e-07
-1.29085e-10
-3.24488e-07
-2.44268e-10
-3.24403e-07
-3.81754e-10
-3.24149e-07
-6.14128e-10
-3.23711e-07
-9.52477e-10
-3.23062e-07
-1.34139e-09
-3.22166e-07
-1.7043e-09
-3.20975e-07
-2.00023e-09
-3.19431e-07
-2.24962e-09
-3.17464e-07
-2.525e-09
-3.14996e-07
-2.92336e-09
-3.11938e-07
-3.53025e-09
-3.08191e-07
-4.3859e-09
-3.03652e-07
-5.47552e-09
-2.98206e-07
-6.75516e-09
-2.91739e-07
-8.18912e-09
-2.84134e-07
-9.76764e-09
-2.75276e-07
-1.15049e-08
-2.65056e-07
-1.34333e-08
-2.53379e-07
-1.55883e-08
-2.40162e-07
-1.79688e-08
-2.25349e-07
-2.04904e-08
-2.08906e-07
-2.29894e-08
-1.90833e-07
-2.52895e-08
-1.71163e-07
-2.72791e-08
-1.49969e-07
-2.89446e-08
-1.27367e-07
-3.03359e-08
-1.03514e-07
-3.15098e-08
-7.86077e-08
-3.24984e-08
-5.28775e-08
-3.32793e-08
-2.65824e-08
-3.38797e-08
-3.41492e-08
-3.84917e-08
4.72075e-06
-8.94143e-08
9.34715e-08
-1.36669e-07
8.49769e-08
-1.79592e-07
7.71791e-08
-2.21195e-07
7.46338e-08
-2.60383e-07
6.998e-08
-2.97247e-07
6.51182e-08
-3.31403e-07
5.96295e-08
-3.62837e-07
5.43619e-08
-3.91415e-07
4.94043e-08
-4.17176e-07
4.50336e-08
-4.40142e-07
4.09799e-08
-4.60439e-07
3.69785e-08
-4.78198e-07
3.275e-08
-4.93599e-07
2.83281e-08
-5.06824e-07
2.38939e-08
-5.18074e-07
1.97249e-08
-5.27546e-07
1.60072e-08
-5.35444e-07
1.28259e-08
-5.41964e-07
1.01766e-08
-5.47291e-07
8.037e-09
-5.51595e-07
6.36083e-09
-5.55027e-07
5.0566e-09
-5.57724e-07
3.97518e-09
-5.59807e-07
2.97429e-09
-5.61375e-07
2.00375e-09
-5.62512e-07
1.12889e-09
-5.6328e-07
4.47532e-10
-5.63722e-07
-1.87229e-11
-5.63864e-07
-3.63013e-10
-5.63718e-07
-7.43467e-10
-5.63275e-07
-1.29131e-09
-5.62511e-07
-2.03069e-09
-5.6138e-07
-2.87168e-09
-5.59817e-07
-3.68946e-09
-5.57739e-07
-4.42305e-09
-5.55046e-07
-5.11913e-09
-5.51617e-07
-5.91475e-09
-5.47317e-07
-6.98846e-09
-5.41989e-07
-8.49632e-09
-5.35466e-07
-1.0513e-08
-5.27564e-07
-1.30155e-08
-5.18089e-07
-1.59289e-08
-5.0684e-07
-1.91926e-08
-4.93612e-07
-2.2792e-08
-4.78208e-07
-2.67535e-08
-4.6044e-07
-3.1133e-08
-4.4014e-07
-3.59854e-08
-4.17168e-07
-4.12953e-08
-3.91424e-07
-4.68974e-08
-3.62852e-07
-5.24843e-08
-3.31449e-07
-5.77248e-08
-2.97276e-07
-6.23982e-08
-2.60459e-07
-6.64528e-08
-2.21199e-07
-6.99465e-08
-1.79771e-07
-7.29474e-08
-1.36514e-07
-7.548e-08
-9.18289e-08
-7.74773e-08
-4.61638e-08
-7.89594e-08
-7.96485e-08
-5.67116e-08
4.77763e-06
-1.30727e-07
1.68056e-07
-1.99454e-07
1.54391e-07
-2.62143e-07
1.40497e-07
-3.229e-07
1.35929e-07
-3.80109e-07
1.27537e-07
-4.33942e-07
1.19003e-07
-4.83816e-07
1.09256e-07
-5.29724e-07
9.98384e-08
-5.7146e-07
9.07337e-08
-6.0909e-07
8.25004e-08
-6.42641e-07
7.47179e-08
-6.72299e-07
6.71043e-08
-6.98252e-07
5.92602e-08
-7.20765e-07
5.12833e-08
-7.40099e-07
4.34293e-08
-7.56549e-07
3.61097e-08
-7.70404e-07
2.95791e-08
-7.8196e-07
2.39558e-08
-7.91502e-07
1.92188e-08
-7.99301e-07
1.53269e-08
-8.05603e-07
1.2203e-08
-8.10631e-07
9.71094e-09
-8.14582e-07
7.63215e-09
-8.17634e-07
5.75741e-09
-8.19934e-07
4.00294e-09
-8.21602e-07
2.44577e-09
-8.22727e-07
1.20707e-09
-8.23376e-07
3.01363e-10
-8.23587e-07
-4.17315e-10
-8.23373e-07
-1.18409e-09
-8.22725e-07
-2.1942e-09
-8.21604e-07
-3.49116e-09
-8.19945e-07
-4.95895e-09
-8.17653e-07
-6.43484e-09
-8.14606e-07
-7.84861e-09
-8.10659e-07
-9.28278e-09
-8.05636e-07
-1.09468e-08
-7.99337e-07
-1.31064e-08
-7.91538e-07
-1.59927e-08
-7.81992e-07
-1.9719e-08
-7.70432e-07
-2.42593e-08
-7.56575e-07
-2.9514e-08
-7.40125e-07
-3.54043e-08
-7.20788e-07
-4.19146e-08
-6.98273e-07
-4.90846e-08
-6.72308e-07
-5.6989e-08
-6.42646e-07
-6.56926e-08
-6.09086e-07
-7.51519e-08
-5.7148e-07
-8.51043e-08
-5.29748e-07
-9.50796e-08
-4.83886e-07
-1.04568e-07
-4.33982e-07
-1.1321e-07
-3.80223e-07
-1.20884e-07
-3.22903e-07
-1.27619e-07
-2.62422e-07
-1.33462e-07
-1.99275e-07
-1.38396e-07
-1.34045e-07
-1.42281e-07
-6.73862e-08
-1.45103e-07
-1.46449e-07
-7.66032e-08
4.85438e-06
-1.7539e-07
2.67413e-07
-2.67369e-07
2.47031e-07
-3.5149e-07
2.2519e-07
-4.32979e-07
2.17888e-07
-5.09705e-07
2.04556e-07
-5.81912e-07
1.91229e-07
-6.48809e-07
1.75894e-07
-7.10395e-07
1.60987e-07
-7.66386e-07
1.463e-07
-8.16877e-07
1.3278e-07
-8.61901e-07
1.19846e-07
-9.01709e-07
1.07268e-07
-9.3655e-07
9.45344e-08
-9.66777e-07
8.18421e-08
-9.92742e-07
6.95172e-08
-1.01484e-06
5.81093e-08
-1.03345e-06
4.79278e-08
-1.04898e-06
3.91162e-08
-1.06181e-06
3.16238e-08
-1.0723e-06
2.53847e-08
-1.08078e-06
2.02856e-08
-1.08754e-06
1.61461e-08
-1.09286e-06
1.26786e-08
-1.09697e-06
9.60587e-09
-1.10007e-06
6.80311e-09
-1.10231e-06
4.3464e-09
-1.10383e-06
2.3647e-09
-1.10471e-06
8.51643e-10
-1.10499e-06
-4.01297e-10
-1.1047e-06
-1.71231e-09
-1.10383e-06
-3.3455e-09
-1.10232e-06
-5.37039e-09
-1.10009e-06
-7.65469e-09
-1.097e-06
-1.00103e-08
-1.09289e-06
-1.23702e-08
-1.08758e-06
-1.48636e-08
-1.08082e-06
-1.77798e-08
-1.07235e-06
-2.1476e-08
-1.06186e-06
-2.62614e-08
-1.04903e-06
-3.22917e-08
-1.03349e-06
-3.95437e-08
-1.01487e-06
-4.79017e-08
-9.9278e-07
-5.72762e-08
-9.66812e-07
-6.76568e-08
-9.36583e-07
-7.9097e-08
-9.01728e-07
-9.16847e-08
-8.61917e-07
-1.05483e-07
-8.1688e-07
-1.20406e-07
-7.6642e-07
-1.36077e-07
-7.10429e-07
-1.51844e-07
-6.48905e-07
-1.66994e-07
-5.81964e-07
-1.80998e-07
-5.0986e-07
-1.93627e-07
-4.32987e-07
-2.04843e-07
-3.51879e-07
-2.14631e-07
-2.67202e-07
-2.22899e-07
-1.79736e-07
-2.29403e-07
-9.03552e-08
-2.34062e-07
-2.36326e-07
-9.83776e-08
4.95288e-06
-2.23674e-07
3.93269e-07
-3.40739e-07
3.64712e-07
-4.48065e-07
3.33005e-07
-5.51968e-07
3.22168e-07
-6.49802e-07
3.02609e-07
-7.41878e-07
2.83283e-07
-8.27189e-07
2.60934e-07
-9.05732e-07
2.39092e-07
-9.77147e-07
2.17275e-07
-1.04156e-06
1.96924e-07
-1.099e-06
1.77293e-07
-1.1498e-06
1.5828e-07
-1.19427e-06
1.39279e-07
-1.23285e-06
1.20619e-07
-1.266e-06
1.02694e-07
-1.29422e-06
8.6192e-08
-1.318e-06
7.14619e-08
-1.33784e-06
5.86606e-08
-1.35424e-06
4.76935e-08
-1.36765e-06
3.84629e-08
-1.37849e-06
3.0815e-08
-1.38714e-06
2.45264e-08
-1.39395e-06
1.92422e-08
-1.39921e-06
1.46167e-08
-1.40318e-06
1.04771e-08
-1.40606e-06
6.88438e-09
-1.408e-06
3.95754e-09
-1.40912e-06
1.65377e-09
-1.40949e-06
-3.08553e-10
-1.40912e-06
-2.33643e-09
-1.40801e-06
-4.76736e-09
-1.40607e-06
-7.70399e-09
-1.40321e-06
-1.10094e-08
-1.39925e-06
-1.44848e-08
-1.394e-06
-1.80814e-08
-1.38719e-06
-2.19865e-08
-1.37854e-06
-2.65761e-08
-1.36771e-06
-3.23024e-08
-1.3543e-06
-3.95539e-08
-1.3379e-06
-4.85323e-08
-1.31805e-06
-5.92247e-08
-1.29427e-06
-7.15084e-08
-1.26606e-06
-8.52931e-08
-1.2329e-06
-1.0058e-07
-1.19431e-06
-1.17437e-07
-1.14983e-06
-1.35959e-07
-1.09903e-06
-1.56193e-07
-1.04157e-06
-1.77995e-07
-9.77199e-07
-2.00856e-07
-9.05781e-07
-2.23925e-07
-8.27312e-07
-2.46261e-07
-7.41944e-07
-2.67134e-07
-6.50001e-07
-2.86163e-07
-5.51986e-07
-3.03203e-07
-4.48578e-07
-3.18131e-07
-3.40626e-07
-3.30744e-07
-2.29124e-07
-3.40657e-07
-1.15182e-07
-3.47693e-07
-3.51157e-07
-1.22108e-07
5.07506e-06
-2.75833e-07
5.47523e-07
-4.19909e-07
5.09335e-07
-5.52326e-07
4.65801e-07
-6.80431e-07
4.50531e-07
-8.01067e-07
4.23372e-07
-9.14601e-07
3.96749e-07
-1.0198e-06
3.65857e-07
-1.11667e-06
3.35524e-07
-1.20475e-06
3.04906e-07
-1.2842e-06
2.76054e-07
-1.35508e-06
2.48055e-07
-1.41776e-06
2.2102e-07
-1.47264e-06
1.9426e-07
-1.52028e-06
1.6828e-07
-1.56121e-06
1.43537e-07
-1.59605e-06
1.20861e-07
-1.62543e-06
1.00615e-07
-1.64995e-06
8.29608e-08
-1.67021e-06
6.77421e-08
-1.68679e-06
5.48233e-08
-1.70019e-06
4.40053e-08
-1.7109e-06
3.50232e-08
-1.71933e-06
2.74571e-08
-1.72584e-06
2.08931e-08
-1.73076e-06
1.51028e-08
-1.73432e-06
1.01169e-08
-1.73673e-06
6.025e-09
-1.73812e-06
2.73074e-09
-1.73857e-06
-1.31626e-10
-1.73812e-06
-3.06344e-09
-1.73674e-06
-6.48016e-09
-1.73434e-06
-1.05255e-08
-1.73079e-06
-1.50715e-08
-1.72589e-06
-1.9926e-08
-1.71939e-06
-2.50752e-08
-1.71096e-06
-3.07772e-08
-1.70026e-06
-3.75016e-08
-1.68686e-06
-4.57965e-08
-1.67029e-06
-5.61308e-08
-1.65002e-06
-6.8756e-08
-1.62549e-06
-8.36773e-08
-1.59612e-06
-1.00776e-07
-1.56127e-06
-1.19973e-07
-1.52034e-06
-1.41288e-07
-1.47271e-06
-1.64802e-07
-1.41781e-06
-1.90607e-07
-1.35513e-06
-2.18723e-07
-1.28424e-06
-2.48927e-07
-1.20483e-06
-2.80561e-07
-1.11674e-06
-3.12556e-07
-1.01996e-06
-3.43718e-07
-9.14684e-07
-3.73081e-07
-8.01313e-07
-4.00071e-07
-6.80464e-07
-4.24383e-07
-5.52978e-07
-4.45741e-07
-4.19896e-07
-4.63789e-07
-2.82441e-07
-4.77965e-07
-1.41985e-07
-4.87958e-07
-4.92926e-07
-1.47905e-07
5.223e-06
-3.32112e-07
7.3221e-07
-5.05244e-07
6.82922e-07
-6.64756e-07
6.25558e-07
-8.18963e-07
6.04855e-07
-9.64201e-07
5.68631e-07
-1.10089e-06
5.3331e-07
-1.22756e-06
4.92238e-07
-1.34419e-06
4.51739e-07
-1.45027e-06
4.10525e-07
-1.54596e-06
3.71373e-07
-1.63133e-06
3.33205e-07
-1.70686e-06
2.96429e-07
-1.773e-06
2.60303e-07
-1.83041e-06
2.25546e-07
-1.87975e-06
1.92673e-07
-1.92177e-06
1.62654e-07
-1.95719e-06
1.3585e-07
-1.98677e-06
1.12408e-07
-2.01123e-06
9.20972e-08
-2.03124e-06
7.47371e-08
-2.04743e-06
6.0078e-08
-2.06037e-06
4.78149e-08
-2.07055e-06
3.74643e-08
-2.07842e-06
2.85447e-08
-2.08437e-06
2.07636e-08
-2.08868e-06
1.41054e-08
-2.09159e-06
8.60922e-09
-2.09328e-06
4.10736e-09
-2.09383e-06
1.38521e-10
-2.09328e-06
-3.89857e-09
-2.09161e-06
-8.50217e-09
-2.08871e-06
-1.38662e-08
-2.08442e-06
-1.98873e-08
-2.07849e-06
-2.63997e-08
-2.07062e-06
-3.34443e-08
-2.06044e-06
-4.13634e-08
-2.04751e-06
-5.07257e-08
-2.03133e-06
-6.21757e-08
-2.01132e-06
-7.62627e-08
-1.98686e-06
-9.32918e-08
-1.95727e-06
-1.13296e-07
-1.92185e-06
-1.36175e-07
-1.87983e-06
-1.6187e-07
-1.83049e-06
-1.90427e-07
-1.77308e-06
-2.2194e-07
-1.70693e-06
-2.56489e-07
-1.63141e-06
-2.94045e-07
-1.54601e-06
-3.34287e-07
-1.45037e-06
-3.76395e-07
-1.34428e-06
-4.19059e-07
-1.22774e-06
-4.6081e-07
-1.10099e-06
-5.00406e-07
-9.64499e-07
-5.37033e-07
-8.1902e-07
-5.70174e-07
-6.65562e-07
-5.99352e-07
-5.05377e-07
-6.24004e-07
-3.39937e-07
-6.4336e-07
-1.70887e-07
-6.56933e-07
-6.63733e-07
-1.7591e-07
5.39887e-06
-3.9277e-07
9.49477e-07
-5.97126e-07
8.87616e-07
-7.85863e-07
8.14382e-07
-9.68193e-07
7.87143e-07
-1.13995e-06
7.40288e-07
-1.30158e-06
6.9476e-07
-1.45139e-06
6.4175e-07
-1.58934e-06
5.89285e-07
-1.71481e-06
5.35548e-07
-1.82802e-06
4.8416e-07
-1.92904e-06
4.33886e-07
-2.01842e-06
3.85524e-07
-2.09671e-06
3.383e-07
-2.16468e-06
2.93193e-07
-2.22311e-06
2.50775e-07
-2.27287e-06
2.1215e-07
-2.31484e-06
1.77655e-07
-2.34989e-06
1.47413e-07
-2.37888e-06
1.21101e-07
-2.40261e-06
9.84853e-08
-2.42182e-06
7.92622e-08
-2.43717e-06
6.30865e-08
-2.44926e-06
4.9412e-08
-2.45861e-06
3.76879e-08
-2.46567e-06
2.7549e-08
-2.4708e-06
1.89158e-08
-2.47426e-06
1.17557e-08
-2.47626e-06
5.81086e-09
-2.47692e-06
5.12822e-10
-2.47627e-06
-4.84526e-09
-2.47428e-06
-1.08499e-08
-2.47084e-06
-1.77558e-08
-2.46573e-06
-2.5502e-08
-2.45869e-06
-3.39722e-08
-2.44934e-06
-4.32832e-08
-2.43726e-06
-5.38757e-08
-2.42192e-06
-6.64226e-08
-2.40272e-06
-8.16644e-08
-2.37899e-06
-1.0023e-07
-2.35e-06
-1.22484e-07
-2.31494e-06
-1.48497e-07
-2.27296e-06
-1.78202e-07
-2.2232e-06
-2.11574e-07
-2.16477e-06
-2.4869e-07
-2.09681e-06
-2.89656e-07
-2.01851e-06
-3.34524e-07
-1.92914e-06
-3.83198e-07
-1.8281e-06
-4.35242e-07
-1.71495e-06
-4.89648e-07
-1.58945e-06
-5.44851e-07
-1.45161e-06
-5.99079e-07
-1.30171e-06
-6.50778e-07
-1.1403e-06
-6.98841e-07
-9.68283e-07
-7.42483e-07
-7.86842e-07
-7.80968e-07
-5.97459e-07
-8.13481e-07
-4.01871e-07
-8.38998e-07
-2.0202e-07
-8.56819e-07
-8.65799e-07
-2.06273e-07
5.60504e-06
-4.5808e-07
1.2016e-06
-6.95961e-07
1.1257e-06
-9.16185e-07
1.03452e-06
-1.12878e-06
9.99526e-07
-1.32909e-06
9.40368e-07
-1.51758e-06
8.83006e-07
-1.6923e-06
8.16174e-07
-1.85321e-06
7.49806e-07
-1.99958e-06
6.8148e-07
-2.13166e-06
6.1578e-07
-2.24954e-06
5.51323e-07
-2.35386e-06
4.89391e-07
-2.44524e-06
4.29209e-07
-2.5246e-06
3.72058e-07
-2.59283e-06
3.18565e-07
-2.65096e-06
2.69965e-07
-2.69999e-06
2.26553e-07
-2.74096e-06
1.8841e-07
-2.77485e-06
1.55109e-07
-2.8026e-06
1.2636e-07
-2.82507e-06
1.01796e-07
-2.84304e-06
8.10313e-08
-2.85719e-06
6.3456e-08
-2.86815e-06
4.84468e-08
-2.87642e-06
3.55551e-08
-2.88243e-06
2.46197e-08
-2.88649e-06
1.5514e-08
-2.88884e-06
7.87114e-09
-2.88961e-06
1.00405e-09
-2.88885e-06
-5.90571e-09
-2.88652e-06
-1.3539e-08
-2.88248e-06
-2.22237e-08
-2.87649e-06
-3.19621e-08
-2.86824e-06
-4.27124e-08
-2.85729e-06
-5.46904e-08
-2.84314e-06
-6.84502e-08
-2.82519e-06
-8.47738e-08
-2.80273e-06
-1.04496e-07
-2.77498e-06
-1.28326e-07
-2.74109e-06
-1.56692e-07
-2.70011e-06
-1.89718e-07
-2.65107e-06
-2.27383e-07
-2.59295e-06
-2.6971e-07
-2.52471e-06
-3.16815e-07
-2.44537e-06
-3.68806e-07
-2.35397e-06
-4.25695e-07
-2.24967e-06
-4.87298e-07
-2.13176e-06
-5.53036e-07
-1.99975e-06
-6.21699e-07
-1.85335e-06
-6.91445e-07
-1.69257e-06
-7.60173e-07
-1.51773e-06
-8.25977e-07
-1.3295e-06
-8.87402e-07
-1.12892e-06
-9.43336e-07
-9.17357e-07
-9.92722e-07
-6.9655e-07
-1.03444e-06
-4.68517e-07
-1.06716e-06
-2.35522e-07
-1.08995e-06
-1.10148e-06
-2.39149e-07
5.84402e-06
-5.28333e-07
1.49098e-06
-8.02176e-07
1.39959e-06
-1.05629e-06
1.28836e-06
-1.30143e-06
1.24428e-06
-1.53244e-06
1.17103e-06
-1.74982e-06
1.10008e-06
-1.95135e-06
1.0174e-06
-2.13695e-06
9.35047e-07
-2.30582e-06
8.49917e-07
-2.4582e-06
7.67681e-07
-2.59424e-06
6.86818e-07
-2.71464e-06
6.09191e-07
-2.82014e-06
5.34055e-07
-2.91177e-06
4.63038e-07
-2.99057e-06
3.96818e-07
-3.05771e-06
3.36762e-07
-3.11437e-06
2.83097e-07
-3.16172e-06
2.35856e-07
-3.20091e-06
1.94498e-07
-3.23301e-06
1.58665e-07
-3.259e-06
1.27927e-07
-3.27979e-06
1.01852e-07
-3.29619e-06
7.9761e-08
-3.30888e-06
6.09535e-08
-3.31846e-06
4.48853e-08
-3.32543e-06
3.12943e-08
-3.33014e-06
1.99376e-08
-3.33286e-06
1.03208e-08
-3.33375e-06
1.62639e-09
-3.33288e-06
-7.0817e-09
-3.33018e-06
-1.65858e-08
-3.32549e-06
-2.73015e-08
-3.31855e-06
-3.93176e-08
-3.30898e-06
-5.26947e-08
-3.2963e-06
-6.77719e-08
-3.27991e-06
-8.52319e-08
-3.25913e-06
-1.0597e-07
-3.23315e-06
-1.30916e-07
-3.20106e-06
-1.60858e-07
-3.16187e-06
-1.96295e-07
-3.11451e-06
-2.3742e-07
-3.05785e-06
-2.84275e-07
-2.9907e-06
-3.36945e-07
-2.9119e-06
-3.95585e-07
-2.82029e-06
-4.60301e-07
-2.71478e-06
-5.31049e-07
-2.5944e-06
-6.07527e-07
-2.45834e-06
-6.88995e-07
-2.30602e-06
-7.74015e-07
-2.13712e-06
-8.60453e-07
-1.95166e-06
-9.45847e-07
-1.75001e-06
-1.0279e-06
-1.53293e-06
-1.10474e-06
-1.30162e-06
-1.17489e-06
-1.05767e-06
-1.23688e-06
-8.0308e-07
-1.28923e-06
-5.40166e-07
-1.33029e-06
-2.71538e-07
-1.3588e-06
-1.37327e-06
-2.74702e-07
6.11846e-06
-6.03835e-07
1.82019e-06
-9.1622e-07
1.71187e-06
-1.20677e-06
1.57846e-06
-1.48687e-06
1.52383e-06
-1.75089e-06
1.43458e-06
-1.99931e-06
1.34813e-06
-2.22965e-06
1.24743e-06
-2.44179e-06
1.14686e-06
-2.63484e-06
1.04255e-06
-2.80907e-06
9.41402e-07
-2.96463e-06
8.41757e-07
-3.10234e-06
7.46163e-07
-3.22303e-06
6.53934e-07
-3.32787e-06
5.67093e-07
-3.41805e-06
4.86363e-07
-3.49491e-06
4.13243e-07
-3.55978e-06
3.47875e-07
-3.61402e-06
2.90237e-07
-3.65892e-06
2.39661e-07
-3.69571e-06
1.95723e-07
-3.72551e-06
1.57917e-07
-3.74936e-06
1.25762e-07
-3.76817e-06
9.85018e-08
-3.78275e-06
7.53493e-08
-3.79375e-06
5.56505e-08
-3.80175e-06
3.90228e-08
-3.80716e-06
2.50843e-08
-3.81029e-06
1.31946e-08
-3.81132e-06
2.39467e-09
-3.81032e-06
-8.37571e-09
-3.80721e-06
-2.00091e-08
-3.80183e-06
-3.30253e-08
-3.79385e-06
-4.76255e-08
-3.78286e-06
-6.40024e-08
-3.7683e-06
-8.26443e-08
-3.7495e-06
-1.04378e-07
-3.72566e-06
-1.30217e-07
-3.69587e-06
-1.61183e-07
-3.65909e-06
-1.98147e-07
-3.61419e-06
-2.41691e-07
-3.55995e-06
-2.92089e-07
-3.49506e-06
-3.49466e-07
-3.4182e-06
-4.13981e-07
-3.32802e-06
-4.85829e-07
-3.22321e-06
-5.65108e-07
-3.10251e-06
-6.51691e-07
-2.96483e-06
-7.45141e-07
-2.80924e-06
-8.44526e-07
-2.63508e-06
-9.48158e-07
-2.442e-06
-1.05359e-06
-2.23001e-06
-1.15796e-06
-1.99953e-06
-1.25855e-06
-1.75145e-06
-1.35303e-06
-1.48713e-06
-1.43942e-06
-1.20839e-06
-1.51584e-06
-9.17504e-07
-1.58037e-06
-6.17123e-07
-1.63095e-06
-3.10221e-07
-1.666e-06
-1.68384e-06
-3.13103e-07
6.43124e-06
-6.8491e-07
2.19193e-06
-1.03857e-06
2.06526e-06
-1.36825e-06
1.90752e-06
-1.68588e-06
1.84074e-06
-1.98533e-06
1.73345e-06
-2.26708e-06
1.62946e-06
-2.52836e-06
1.5084e-06
-2.76901e-06
1.38721e-06
-2.98803e-06
1.26119e-06
-3.18573e-06
1.13857e-06
-3.36228e-06
1.01761e-06
-3.5186e-06
9.01624e-07
-3.65562e-06
7.90013e-07
-3.77467e-06
6.85243e-07
-3.87709e-06
5.88082e-07
-3.96442e-06
5.00158e-07
-4.03814e-06
4.21513e-07
-4.0998e-06
3.52066e-07
-4.15085e-06
2.91016e-07
-4.1927e-06
2.37871e-07
-4.22662e-06
1.92042e-07
-4.25377e-06
1.52988e-07
-4.2752e-06
1.19864e-07
-4.2918e-06
9.17851e-08
-4.30435e-06
6.79699e-08
-4.31347e-06
4.78944e-08
-4.31964e-06
3.10156e-08
-4.32321e-06
1.65291e-08
-4.32439e-06
3.32355e-09
-4.32324e-06
-9.79226e-09
-4.3197e-06
-2.38315e-08
-4.31355e-06
-3.94376e-08
-4.30446e-06
-5.69521e-08
-4.29193e-06
-7.67312e-08
-4.27534e-06
-9.94387e-08
-4.25393e-06
-1.2606e-07
-4.22679e-06
-1.57733e-07
-4.19289e-06
-1.95573e-07
-4.15105e-06
-2.40537e-07
-4.09999e-06
-2.933e-07
-4.03833e-06
-3.5424e-07
-3.9646e-06
-4.2358e-07
-3.87728e-06
-5.01562e-07
-3.77485e-06
-5.88426e-07
-3.65582e-06
-6.84245e-07
-3.5188e-06
-7.88793e-07
-3.36252e-06
-9.01467e-07
-3.18594e-06
-1.02112e-06
-2.98832e-06
-1.14578e-06
-2.76926e-06
-1.27266e-06
-2.52877e-06
-1.39851e-06
-2.26734e-06
-1.52008e-06
-1.98598e-06
-1.63453e-06
-1.68622e-06
-1.73937e-06
-1.37014e-06
-1.83216e-06
-1.0403e-06
-1.9105e-06
-6.99708e-07
-1.97188e-06
-3.51733e-07
-2.01435e-06
-2.03599e-06
-3.54534e-07
6.78538e-06
-7.71896e-07
2.6091e-06
-1.16972e-06
2.46268e-06
-1.5414e-06
2.27843e-06
-1.89927e-06
2.19778e-06
-2.23674e-06
2.07025e-06
-2.55424e-06
1.9465e-06
-2.84872e-06
1.80258e-06
-3.11997e-06
1.65817e-06
-3.36687e-06
1.50772e-06
-3.58976e-06
1.36093e-06
-3.78885e-06
1.21595e-06
-3.96515e-06
1.07697e-06
-4.11972e-06
9.43534e-07
-4.25404e-06
8.18578e-07
-4.36964e-06
7.02914e-07
-4.46821e-06
5.98304e-07
-4.55146e-06
5.04676e-07
-4.6211e-06
4.21889e-07
-4.67879e-06
3.49008e-07
-4.72609e-06
2.8547e-07
-4.76445e-06
2.30597e-07
-4.79516e-06
1.83772e-07
-4.81941e-06
1.44047e-07
-4.83821e-06
1.10422e-07
-4.85242e-06
8.19705e-08
-4.86275e-06
5.80038e-08
-4.86975e-06
3.77957e-08
-4.8738e-06
2.03614e-08
-4.87513e-06
4.42658e-09
-4.87383e-06
-1.13391e-08
-4.86982e-06
-2.80818e-08
-4.86285e-06
-4.65899e-08
-4.85255e-06
-6.73758e-08
-4.83835e-06
-9.09918e-08
-4.81957e-06
-1.18303e-07
-4.79533e-06
-1.50471e-07
-4.76464e-06
-1.8876e-07
-4.7263e-06
-2.34384e-07
-4.67901e-06
-2.88392e-07
-4.62132e-06
-3.51572e-07
-4.55167e-06
-4.24419e-07
-4.46842e-06
-5.07276e-07
-4.36984e-06
-6.00476e-07
-4.25425e-06
-7.04302e-07
-4.11995e-06
-8.18788e-07
-3.96538e-06
-9.43589e-07
-3.78913e-06
-1.07791e-06
-3.59002e-06
-1.22034e-06
-3.36721e-06
-1.36863e-06
-3.12026e-06
-1.51961e-06
-2.84919e-06
-1.66957e-06
-2.55455e-06
-1.81474e-06
-2.23749e-06
-1.9517e-06
-1.89972e-06
-2.07731e-06
-1.54359e-06
-2.18856e-06
-1.17197e-06
-2.28246e-06
-7.88261e-07
-2.356e-06
-3.96245e-07
-2.4068e-06
-2.43272e-06
-3.99183e-07
7.18411e-06
-8.65152e-07
3.07476e-06
-1.3102e-06
2.90719e-06
-1.72691e-06
2.69424e-06
-2.12791e-06
2.59783e-06
-2.50613e-06
2.44775e-06
-2.86195e-06
2.30184e-06
-3.19202e-06
2.13235e-06
-3.49607e-06
1.96196e-06
-3.77288e-06
1.78417e-06
-4.0228e-06
1.6103e-06
-4.24607e-06
1.43842e-06
-4.44381e-06
1.2737e-06
-4.61722e-06
1.11582e-06
-4.76795e-06
9.68255e-07
-4.8977e-06
8.31859e-07
-5.00837e-06
7.08528e-07
-5.10185e-06
5.9807e-07
-5.18009e-06
5.00287e-07
-5.24492e-06
4.1411e-07
-5.29809e-06
3.38908e-07
-5.34123e-06
2.73897e-07
-5.37579e-06
2.18372e-07
-5.40308e-06
1.71263e-07
-5.42424e-06
1.31433e-07
-5.44025e-06
9.77876e-08
-5.4519e-06
6.94509e-08
-5.45978e-06
4.5492e-08
-5.46435e-06
2.47294e-08
-5.46585e-06
5.71552e-09
-5.46439e-06
-1.30282e-08
-5.45986e-06
-3.27954e-08
-5.45201e-06
-5.45439e-08
-5.4404e-06
-7.89888e-08
-5.4244e-06
-1.06911e-07
-5.40325e-06
-1.39405e-07
-5.37598e-06
-1.7782e-07
-5.34144e-06
-2.23559e-07
-5.29833e-06
-2.77936e-07
-5.24517e-06
-3.42106e-07
-5.18034e-06
-4.16983e-07
-5.1021e-06
-5.03206e-07
-5.0086e-06
-6.01253e-07
-4.89793e-06
-7.11556e-07
-4.76819e-06
-8.34433e-07
-4.6175e-06
-9.69871e-07
-4.44409e-06
-1.11738e-06
-4.24639e-06
-1.27593e-06
-4.0231e-06
-1.44385e-06
-3.77327e-06
-1.61854e-06
-3.49641e-06
-1.79645e-06
-3.19256e-06
-1.97337e-06
-2.86232e-06
-2.14495e-06
-2.50698e-06
-2.30709e-06
-2.12848e-06
-2.45598e-06
-1.72942e-06
-2.58791e-06
-1.31305e-06
-2.69923e-06
-8.83138e-07
-2.78638e-06
-4.43934e-07
-2.84652e-06
-2.87721e-06
-4.47249e-07
7.63086e-06
-9.65055e-07
3.59214e-06
-1.46057e-06
3.40206e-06
-1.92551e-06
3.1582e-06
-2.37269e-06
3.044e-06
-2.79457e-06
2.86886e-06
-3.19143e-06
2.69822e-06
-3.55964e-06
2.50027e-06
-3.89883e-06
2.30092e-06
-4.20768e-06
2.0927e-06
-4.48658e-06
1.88865e-06
-4.73577e-06
1.6868e-06
-4.95652e-06
1.49338e-06
-5.15015e-06
1.30827e-06
-5.31848e-06
1.1355e-06
-5.46341e-06
9.75977e-07
-5.58707e-06
8.31731e-07
-5.69156e-06
7.02449e-07
-5.77903e-06
5.87883e-07
-5.85154e-06
4.86833e-07
-5.91104e-06
3.98599e-07
-5.95932e-06
3.22282e-07
-5.99801e-06
2.57069e-07
-6.02859e-06
2.01741e-07
-6.05231e-06
1.55002e-07
-6.07026e-06
1.15564e-07
-6.08332e-06
8.23405e-08
-6.09217e-06
5.4174e-08
-6.09729e-06
2.9671e-08
-6.09898e-06
7.20019e-09
-6.09734e-06
-1.48759e-08
-6.09226e-06
-3.80155e-08
-6.08345e-06
-6.33722e-08
-6.07042e-06
-9.18978e-08
-6.05249e-06
-1.24635e-07
-6.02878e-06
-1.62932e-07
-5.99823e-06
-2.08343e-07
-5.95955e-06
-2.62417e-07
-5.9113e-06
-3.26578e-07
-5.85182e-06
-4.02101e-07
-5.77931e-06
-4.90047e-07
-5.69183e-06
-5.91222e-07
-5.58733e-06
-7.06254e-07
-5.46368e-06
-8.35682e-07
-5.31875e-06
-9.79854e-07
-5.15045e-06
-1.13869e-06
-4.95684e-06
-1.31153e-06
-4.73615e-06
-1.49709e-06
-4.48693e-06
-1.69339e-06
-4.20814e-06
-1.89747e-06
-3.89923e-06
-2.10534e-06
-3.56024e-06
-2.31226e-06
-3.19187e-06
-2.51324e-06
-2.79554e-06
-2.70344e-06
-2.37341e-06
-2.87827e-06
-1.92839e-06
-3.03325e-06
-1.46409e-06
-3.16399e-06
-9.84712e-07
-3.26631e-06
-4.9499e-07
-3.33682e-06
-3.37282e-06
-4.98943e-07
8.12926e-06
-1.072e-06
4.16469e-06
-1.6214e-06
3.95075e-06
-2.13798e-06
3.67375e-06
-2.63457e-06
3.53956e-06
-3.10317e-06
3.33669e-06
-3.54396e-06
3.13854e-06
-3.95299e-06
2.90903e-06
-4.32982e-06
2.67753e-06
-4.67299e-06
2.43556e-06
-4.98291e-06
2.19803e-06
-5.25989e-06
1.96295e-06
-5.50529e-06
1.7377e-06
-5.72059e-06
1.52237e-06
-5.9078e-06
1.32162e-06
-6.06902e-06
1.13639e-06
-6.20662e-06
9.68871e-07
-6.32292e-06
8.18614e-07
-6.42032e-06
6.8534e-07
-6.50108e-06
5.67723e-07
-6.56738e-06
4.64993e-07
-6.62119e-06
3.76122e-07
-6.66435e-06
3.00165e-07
-6.69846e-06
2.35727e-07
-6.72494e-06
1.81326e-07
-6.74499e-06
1.35451e-07
-6.75957e-06
9.67826e-08
-6.76946e-06
6.3914e-08
-6.77519e-06
3.5225e-08
-6.77708e-06
8.88887e-09
-6.77524e-06
-1.69028e-08
-6.76956e-06
-4.37923e-08
-6.75972e-06
-7.31585e-08
-6.74516e-06
-1.06224e-07
-6.72514e-06
-1.44327e-07
-6.69867e-06
-1.89092e-07
-6.66458e-06
-2.42297e-07
-6.62146e-06
-3.05645e-07
-6.56767e-06
-3.80686e-07
-6.50139e-06
-4.68831e-07
-6.42063e-06
-5.71315e-07
-6.32323e-06
-6.8913e-07
-6.20691e-06
-8.23073e-07
-6.06932e-06
-9.73792e-07
-5.9081e-06
-1.14166e-06
-5.72093e-06
-1.32651e-06
-5.50565e-06
-1.52749e-06
-5.26032e-06
-1.74304e-06
-4.98332e-06
-1.97082e-06
-4.67351e-06
-2.20748e-06
-4.33028e-06
-2.44855e-06
-3.95367e-06
-2.68872e-06
-3.54448e-06
-2.92229e-06
-3.10427e-06
-3.14362e-06
-2.63545e-06
-3.34724e-06
-2.14126e-06
-3.5278e-06
-1.62567e-06
-3.6801e-06
-1.09338e-06
-3.79924e-06
-5.4961e-07
-3.88127e-06
-3.92314e-06
-5.54483e-07
8.6832e-06
-1.18641e-06
4.79605e-06
-1.79332e-06
4.55691e-06
-2.36512e-06
4.24451e-06
-2.91454e-06
4.08796e-06
-3.43312e-06
3.85452e-06
-3.92089e-06
3.62587e-06
-4.3736e-06
3.36149e-06
-4.79069e-06
3.09443e-06
-5.17059e-06
2.81517e-06
-5.51373e-06
2.54064e-06
-5.82045e-06
2.26884e-06
-6.09225e-06
2.00843e-06
-6.33076e-06
1.7597e-06
-6.5382e-06
1.528e-06
-6.71689e-06
1.31431e-06
-6.86944e-06
1.12097e-06
-6.99842e-06
9.47424e-07
-7.10647e-06
7.93372e-07
-7.1961e-06
6.5737e-07
-7.2697e-06
5.38575e-07
-7.32947e-06
4.35814e-07
-7.37742e-06
3.47985e-07
-7.41534e-06
2.73485e-07
-7.44479e-06
2.10613e-07
-7.46709e-06
1.5761e-07
-7.48333e-06
1.12893e-07
-7.49434e-06
7.47879e-08
-7.50071e-06
4.14313e-08
-7.50282e-06
1.07893e-08
-7.50077e-06
-1.91325e-08
-7.49445e-06
-5.01831e-08
-7.48349e-06
-8.3997e-08
-7.46728e-06
-1.22103e-07
-7.445e-06
-1.66167e-07
-7.41557e-06
-2.18116e-07
-7.37768e-06
-2.79964e-07
-7.32976e-06
-3.53586e-07
-7.27002e-06
-4.40671e-07
-7.19644e-06
-5.42791e-07
-7.10682e-06
-6.61379e-07
-6.99877e-06
-7.97641e-07
-6.86977e-06
-9.52554e-07
-6.71723e-06
-1.12688e-06
-6.53854e-06
-1.321e-06
-6.33115e-06
-1.53465e-06
-6.09266e-06
-1.76677e-06
-5.82093e-06
-2.01549e-06
-5.51419e-06
-2.27807e-06
-5.17118e-06
-2.55073e-06
-4.79121e-06
-2.82848e-06
-4.37437e-06
-3.10537e-06
-3.9215e-06
-3.37495e-06
-3.43437e-06
-3.63068e-06
-2.91562e-06
-3.86613e-06
-2.36884e-06
-4.07498e-06
-1.79842e-06
-4.2511e-06
-1.20955e-06
-4.38883e-06
-6.08001e-07
-4.48358e-06
-4.53194e-06
-6.14097e-07
9.29674e-06
-1.30872e-06
5.49008e-06
-1.97696e-06
5.22441e-06
-2.60779e-06
4.87433e-06
-3.21366e-06
4.69286e-06
-3.78565e-06
4.42582e-06
-4.32365e-06
4.16346e-06
-4.82305e-06
3.86067e-06
-5.28318e-06
3.55439e-06
-5.70236e-06
3.23408e-06
-6.08103e-06
2.91881e-06
-6.41958e-06
2.6066e-06
-6.71963e-06
2.30744e-06
-6.98299e-06
2.02193e-06
-7.2121e-06
1.7561e-06
-7.40951e-06
1.51098e-06
-7.57807e-06
1.2891e-06
-7.72065e-06
1.08979e-06
-7.84013e-06
9.12744e-07
-7.93928e-06
7.56408e-07
-8.02072e-06
6.19871e-07
-8.08689e-06
5.01792e-07
-8.14e-06
4.00884e-07
-8.18201e-06
3.15301e-07
-8.21466e-06
2.4309e-07
-8.2394e-06
1.82212e-07
-8.25741e-06
1.30795e-07
-8.26963e-06
8.68761e-08
-8.2767e-06
4.8333e-08
-8.27904e-06
1.29101e-08
-8.27677e-06
-2.15907e-08
-8.26975e-06
-5.72503e-08
-8.25758e-06
-9.59913e-08
-8.2396e-06
-1.39685e-07
-8.2149e-06
-1.90354e-07
-8.18227e-06
-2.50253e-07
-8.14028e-06
-3.21651e-07
-8.08721e-06
-4.06608e-07
-8.02107e-06
-5.06975e-07
-7.93965e-06
-6.24512e-07
-7.84052e-06
-7.60877e-07
-7.72104e-06
-9.17516e-07
-7.57845e-06
-1.0956e-06
-7.40988e-06
-1.296e-06
-7.21248e-06
-1.51911e-06
-6.98343e-06
-1.76454e-06
-6.72009e-06
-2.031e-06
-6.42012e-06
-2.31627e-06
-6.08156e-06
-2.61721e-06
-5.70302e-06
-2.92952e-06
-5.28378e-06
-3.24766e-06
-4.82391e-06
-3.565e-06
-4.32436e-06
-3.87423e-06
-3.78706e-06
-4.16785e-06
-3.21496e-06
-4.43837e-06
-2.61198e-06
-4.67838e-06
-1.98298e-06
-4.88075e-06
-1.33366e-06
-5.03897e-06
-6.70383e-07
-5.14771e-06
-5.2032e-06
-6.78028e-07
9.97424e-06
-1.43938e-06
6.25084e-06
-2.17301e-06
5.95732e-06
-2.86687e-06
5.56726e-06
-3.53302e-06
5.35812e-06
-4.16207e-06
5.05426e-06
-4.75371e-06
4.75475e-06
-5.30299e-06
4.40977e-06
-5.80913e-06
4.06037e-06
-6.27029e-06
3.69499e-06
-6.68694e-06
3.33499e-06
-7.05951e-06
2.97843e-06
-7.38979e-06
2.63675e-06
-7.67973e-06
2.31084e-06
-7.93202e-06
2.00748e-06
-8.14947e-06
1.72776e-06
-8.3352e-06
1.47442e-06
-8.49234e-06
1.24669e-06
-8.62408e-06
1.04427e-06
-8.73343e-06
8.65523e-07
-8.8233e-06
7.0945e-07
-8.89634e-06
5.74525e-07
-8.95499e-06
4.59244e-07