/*--------------------------------*- C++ -*----------------------------------*\
| =========                 |                                                 |
| \\      /  F ield         | foam-extend: Open Source CFD                    |
|  \\    /   O peration     | Version:     4.0                                |
|   \\  /    A nd           | Web:         http://www.foam-extend.org         |
|    \\/     M anipulation  |                                                 |
\*---------------------------------------------------------------------------*/
FoamFile
{
    version     2.0;
    format      ascii;
    class       volScalarField;
    location    "6";
    object      dC2;
}
// * * * * * * * * * * * * * * * * * * * * * * * * * * * * * * * * * * * * * //

dimensions      [0 -1 0 0 0 0 0];

internalField   nonuniform List<scalar> 
6960
(
-1.31971e-11
-1.31971e-11
-1.3197e-11
-1.31971e-11
-1.3197e-11
-1.3197e-11
-1.3197e-11
-1.31971e-11
-1.3197e-11
-1.31971e-11
-1.3197e-11
-1.3197e-11
-1.31971e-11
-1.31971e-11
-1.3197e-11
-1.3197e-11
-1.31971e-11
-1.3197e-11
-1.3197e-11
-1.3197e-11
-1.31971e-11
-1.3197e-11
-1.31971e-11
-1.3197e-11
-1.31971e-11
-1.3197e-11
-1.3197e-11
-1.31971e-11
-1.3197e-11
-1.3197e-11
-1.31969e-11
-1.31971e-11
-1.31971e-11
-1.31971e-11
-1.31971e-11
-1.31971e-11
-1.31971e-11
-1.31971e-11
-1.3197e-11
-1.3197e-11
-1.31971e-11
-1.3197e-11
-1.31971e-11
-1.3197e-11
-1.3197e-11
-1.31971e-11
-1.3197e-11
-1.31971e-11
-1.31971e-11
-1.3197e-11
-1.31972e-11
-1.31971e-11
-1.3197e-11
-1.31971e-11
-1.31971e-11
-1.31971e-11
-1.31971e-11
-1.3197e-11
-1.31971e-11
-1.3197e-11
-1.3195e-11
-1.31952e-11
-1.31954e-11
-1.31952e-11
-1.31952e-11
-1.31952e-11
-1.31954e-11
-1.31951e-11
-1.31952e-11
-1.31951e-11
-1.31953e-11
-1.31952e-11
-1.31953e-11
-1.31951e-11
-1.31954e-11
-1.31952e-11
-1.31951e-11
-1.31954e-11
-1.31951e-11
-1.31953e-11
-1.31953e-11
-1.31952e-11
-1.31952e-11
-1.31951e-11
-1.31951e-11
-1.31952e-11
-1.31953e-11
-1.31951e-11
-1.31954e-11
-1.31953e-11
-1.31953e-11
-1.31951e-11
-1.31951e-11
-1.31951e-11
-1.31951e-11
-1.31952e-11
-1.31952e-11
-1.31951e-11
-1.31952e-11
-1.31952e-11
-1.31951e-11
-1.31954e-11
-1.31952e-11
-1.31951e-11
-1.31953e-11
-1.31951e-11
-1.31953e-11
-1.31951e-11
-1.31952e-11
-1.31952e-11
-1.3195e-11
-1.31952e-11
-1.31952e-11
-1.31951e-11
-1.31952e-11
-1.31952e-11
-1.31951e-11
-1.31953e-11
-1.31952e-11
-1.31954e-11
2.27886e-11
2.27887e-11
2.2789e-11
2.27888e-11
2.27888e-11
2.27888e-11
2.27889e-11
2.27887e-11
2.27888e-11
2.27887e-11
2.27888e-11
2.27888e-11
2.2789e-11
2.27887e-11
2.27888e-11
2.27887e-11
2.27888e-11
2.27888e-11
2.27885e-11
2.27887e-11
2.27889e-11
2.27886e-11
2.27888e-11
2.27887e-11
2.27886e-11
2.27887e-11
2.27888e-11
2.27888e-11
2.2789e-11
2.27889e-11
2.27887e-11
2.27886e-11
2.27886e-11
2.27887e-11
2.27886e-11
2.27888e-11
2.27891e-11
2.27889e-11
2.27887e-11
2.27888e-11
2.27888e-11
2.27889e-11
2.27888e-11
2.27887e-11
2.27889e-11
2.27887e-11
2.27889e-11
2.27888e-11
2.2789e-11
2.27886e-11
2.27887e-11
2.27888e-11
2.27887e-11
2.27887e-11
2.27888e-11
2.27887e-11
2.27888e-11
2.27888e-11
2.27888e-11
2.27891e-11
2.48857e-11
2.48854e-11
2.48856e-11
2.48856e-11
2.48855e-11
2.48855e-11
2.48857e-11
2.48857e-11
2.48855e-11
2.48855e-11
2.48856e-11
2.48855e-11
2.48856e-11
2.48855e-11
2.48858e-11
2.48856e-11
2.48855e-11
2.48856e-11
2.48856e-11
2.48855e-11
2.48855e-11
2.48858e-11
2.48855e-11
2.48858e-11
2.48858e-11
2.48856e-11
2.48857e-11
2.48854e-11
2.48854e-11
2.48857e-11
2.48856e-11
2.48856e-11
2.48855e-11
2.48855e-11
2.48856e-11
2.48854e-11
2.48853e-11
2.48854e-11
2.48854e-11
2.48855e-11
2.48854e-11
2.48853e-11
2.48853e-11
2.48857e-11
2.48857e-11
2.48855e-11
2.48854e-11
2.48857e-11
2.48853e-11
2.48858e-11
2.48856e-11
2.48856e-11
2.48856e-11
2.48856e-11
2.48855e-11
2.48857e-11
2.48854e-11
2.48856e-11
2.48856e-11
2.48853e-11
6.19137e-12
6.19163e-12
6.19142e-12
6.19143e-12
6.19146e-12
6.19136e-12
6.19134e-12
6.19117e-12
6.19143e-12
6.19141e-12
6.19131e-12
6.19167e-12
6.1915e-12
6.19157e-12
6.19116e-12
6.19143e-12
6.19131e-12
6.19135e-12
6.19156e-12
6.19154e-12
6.19142e-12
6.19138e-12
6.19151e-12
6.19129e-12
6.19115e-12
6.1914e-12
6.19147e-12
6.19165e-12
6.19171e-12
6.19138e-12
6.19144e-12
6.19142e-12
6.19152e-12
6.19144e-12
6.19144e-12
6.19153e-12
6.19152e-12
6.19162e-12
6.19164e-12
6.19142e-12
6.19163e-12
6.19151e-12
6.1916e-12
6.1912e-12
6.19134e-12
6.19132e-12
6.19148e-12
6.1911e-12
6.19151e-12
6.19111e-12
6.19157e-12
6.19148e-12
6.19129e-12
6.19127e-12
6.19138e-12
6.19128e-12
6.19165e-12
6.19151e-12
6.19158e-12
6.19148e-12
-2.78154e-12
-2.78155e-12
-2.78141e-12
-2.78142e-12
-2.78146e-12
-2.78127e-12
-2.78139e-12
-2.78139e-12
-2.78134e-12
-2.78137e-12
-2.78145e-12
-2.78187e-12
-2.78167e-12
-2.78137e-12
-2.78143e-12
-2.78152e-12
-2.78133e-12
-2.78138e-12
-2.78172e-12
-2.78148e-12
-2.78152e-12
-2.78158e-12
-2.78169e-12
-2.78154e-12
-2.78145e-12
-2.78146e-12
-2.7816e-12
-2.78157e-12
-2.78167e-12
-2.78168e-12
-2.78157e-12
-2.78144e-12
-2.78156e-12
-2.78138e-12
-2.78144e-12
-2.78163e-12
-2.78152e-12
-2.78136e-12
-2.78167e-12
-2.78136e-12
-2.7816e-12
-2.78157e-12
-2.78149e-12
-2.78125e-12
-2.78129e-12
-2.78139e-12
-2.78138e-12
-2.78118e-12
-2.78137e-12
-2.78143e-12
-2.78167e-12
-2.78153e-12
-2.78124e-12
-2.78135e-12
-2.78138e-12
-2.78144e-12
-2.78172e-12
-2.78155e-12
-2.78172e-12
-2.78158e-12
-4.99712e-12
-4.99695e-12
-4.99725e-12
-4.9971e-12
-4.99711e-12
-4.99726e-12
-4.99713e-12
-4.99694e-12
-4.99709e-12
-4.99712e-12
-4.99674e-12
-4.99668e-12
-4.99683e-12
-4.99712e-12
-4.99695e-12
-4.99697e-12
-4.99718e-12
-4.99725e-12
-4.99679e-12
-4.99693e-12
-4.99717e-12
-4.99707e-12
-4.99695e-12
-4.99694e-12
-4.99687e-12
-4.99698e-12
-4.99694e-12
-4.99732e-12
-4.99689e-12
-4.99676e-12
-4.99684e-12
-4.99698e-12
-4.99685e-12
-4.99728e-12
-4.997e-12
-4.99702e-12
-4.99694e-12
-4.99716e-12
-4.99669e-12
-4.99715e-12
-4.99696e-12
-4.99692e-12
-4.99694e-12
-4.99729e-12
-4.99706e-12
-4.99693e-12
-4.99718e-12
-4.9972e-12
-4.99725e-12
-4.99692e-12
-4.99697e-12
-4.99697e-12
-4.99719e-12
-4.99696e-12
-4.9972e-12
-4.99709e-12
-4.99691e-12
-4.99701e-12
-4.99697e-12
-4.99697e-12
-5.04365e-12
-5.04388e-12
-5.04378e-12
-5.04391e-12
-5.04393e-12
-5.04356e-12
-5.04393e-12
-5.04392e-12
-5.04396e-12
-5.04383e-12
-5.04419e-12
-5.04416e-12
-5.04406e-12
-5.04391e-12
-5.04408e-12
-5.04417e-12
-5.04395e-12
-5.04373e-12
-5.04414e-12
-5.04411e-12
-5.0437e-12
-5.04379e-12
-5.04383e-12
-5.04383e-12
-5.04395e-12
-5.04408e-12
-5.04406e-12
-5.04359e-12
-5.04413e-12
-5.04405e-12
-5.04411e-12
-5.04406e-12
-5.04398e-12
-5.04385e-12
-5.04412e-12
-5.04394e-12
-5.0441e-12
-5.04389e-12
-5.04413e-12
-5.04396e-12
-5.04371e-12
-5.04394e-12
-5.04415e-12
-5.04379e-12
-5.04409e-12
-5.04417e-12
-5.04397e-12
-5.04384e-12
-5.04367e-12
-5.0442e-12
-5.04401e-12
-5.04403e-12
-5.0439e-12
-5.04387e-12
-5.04381e-12
-5.04362e-12
-5.04386e-12
-5.04383e-12
-5.04388e-12
-5.04406e-12
-4.26117e-12
-4.26116e-12
-4.26078e-12
-4.26084e-12
-4.26101e-12
-4.26113e-12
-4.26079e-12
-4.26091e-12
-4.26084e-12
-4.26087e-12
-4.26087e-12
-4.26074e-12
-4.26086e-12
-4.26094e-12
-4.26073e-12
-4.26064e-12
-4.26071e-12
-4.26088e-12
-4.26091e-12
-4.26075e-12
-4.26104e-12
-4.26084e-12
-4.26105e-12
-4.26099e-12
-4.26088e-12
-4.26087e-12
-4.26078e-12
-4.26099e-12
-4.26072e-12
-4.26091e-12
-4.26091e-12
-4.26073e-12
-4.26099e-12
-4.26084e-12
-4.26069e-12
-4.26069e-12
-4.26073e-12
-4.26066e-12
-4.26072e-12
-4.26075e-12
-4.26098e-12
-4.261e-12
-4.26069e-12
-4.26098e-12
-4.2608e-12
-4.2607e-12
-4.26078e-12
-4.26089e-12
-4.26116e-12
-4.26073e-12
-4.26078e-12
-4.2608e-12
-4.26083e-12
-4.2611e-12
-4.26094e-12
-4.26122e-12
-4.26106e-12
-4.26105e-12
-4.26087e-12
-4.26073e-12
-3.1883e-12
-3.18796e-12
-3.1886e-12
-3.1885e-12
-3.18823e-12
-3.18835e-12
-3.18837e-12
-3.18834e-12
-3.18852e-12
-3.18826e-12
-3.18834e-12
-3.1884e-12
-3.1883e-12
-3.18842e-12
-3.18849e-12
-3.18841e-12
-3.18861e-12
-3.18834e-12
-3.18842e-12
-3.18852e-12
-3.18819e-12
-3.18848e-12
-3.18812e-12
-3.18827e-12
-3.18841e-12
-3.18822e-12
-3.18843e-12
-3.18838e-12
-3.18842e-12
-3.18822e-12
-3.18831e-12
-3.18853e-12
-3.1884e-12
-3.18822e-12
-3.18836e-12
-3.18847e-12
-3.18847e-12
-3.18871e-12
-3.18849e-12
-3.18861e-12
-3.18837e-12
-3.18823e-12
-3.18844e-12
-3.18825e-12
-3.18821e-12
-3.18828e-12
-3.18835e-12
-3.18826e-12
-3.18817e-12
-3.18838e-12
-3.18842e-12
-3.18837e-12
-3.1884e-12
-3.18823e-12
-3.18823e-12
-3.18826e-12
-3.18828e-12
-3.18821e-12
-3.18846e-12
-3.18858e-12
-2.19747e-12
-2.19766e-12
-2.1973e-12
-2.19735e-12
-2.19759e-12
-2.19752e-12
-2.1976e-12
-2.19748e-12
-2.19754e-12
-2.19782e-12
-2.19756e-12
-2.19746e-12
-2.19757e-12
-2.1974e-12
-2.19738e-12
-2.19764e-12
-2.19743e-12
-2.19762e-12
-2.19748e-12
-2.19749e-12
-2.19771e-12
-2.19744e-12
-2.19757e-12
-2.19759e-12
-2.19758e-12
-2.19769e-12
-2.19743e-12
-2.19748e-12
-2.19766e-12
-2.19762e-12
-2.19755e-12
-2.19731e-12
-2.19758e-12
-2.19774e-12
-2.19769e-12
-2.19739e-12
-2.19745e-12
-2.19735e-12
-2.19735e-12
-2.19747e-12
-2.19751e-12
-2.19763e-12
-2.19745e-12
-2.19746e-12
-2.19774e-12
-2.19753e-12
-2.19747e-12
-2.19758e-12
-2.19764e-12
-2.19774e-12
-2.1975e-12
-2.19752e-12
-2.19763e-12
-2.19756e-12
-2.19768e-12
-2.19739e-12
-2.19753e-12
-2.19756e-12
-2.19741e-12
-2.19738e-12
-1.46032e-12
-1.4601e-12
-1.4603e-12
-1.46027e-12
-1.46021e-12
-1.46018e-12
-1.46002e-12
-1.4603e-12
-1.46016e-12
-1.4599e-12
-1.46008e-12
-1.46025e-12
-1.46016e-12
-1.46021e-12
-1.46033e-12
-1.46e-12
-1.46013e-12
-1.45997e-12
-1.46016e-12
-1.46004e-12
-1.45999e-12
-1.46018e-12
-1.46018e-12
-1.46005e-12
-1.46e-12
-1.46008e-12
-1.46016e-12
-1.46021e-12
-1.46e-12
-1.46005e-12
-1.46017e-12
-1.46031e-12
-1.46007e-12
-1.45996e-12
-1.45993e-12
-1.46025e-12
-1.46018e-12
-1.46023e-12
-1.46025e-12
-1.46008e-12
-1.46008e-12
-1.46013e-12
-1.46018e-12
-1.46032e-12
-1.45997e-12
-1.46012e-12
-1.46019e-12
-1.46011e-12
-1.45999e-12
-1.4598e-12
-1.46017e-12
-1.46007e-12
-1.46004e-12
-1.46018e-12
-1.46011e-12
-1.46031e-12
-1.46022e-12
-1.46005e-12
-1.46021e-12
-1.46001e-12
-9.81566e-13
-9.81744e-13
-9.81587e-13
-9.81647e-13
-9.81658e-13
-9.81705e-13
-9.81787e-13
-9.8148e-13
-9.81589e-13
-9.8183e-13
-9.81749e-13
-9.81793e-13
-9.81582e-13
-9.81658e-13
-9.81598e-13
-9.81606e-13
-9.81821e-13
-9.81767e-13
-9.81601e-13
-9.81691e-13
-9.8188e-13
-9.81727e-13
-9.81712e-13
-9.81654e-13
-9.81802e-13
-9.81606e-13
-9.81877e-13
-9.81723e-13
-9.81705e-13
-9.81857e-13
-9.81461e-13
-9.81673e-13
-9.81588e-13
-9.81659e-13
-9.81782e-13
-9.8182e-13
-9.81583e-13
-9.81791e-13
-9.81611e-13
-9.81837e-13
-9.81713e-13
-9.81701e-13
-9.81805e-13
-9.81617e-13
-9.81759e-13
-9.81788e-13
-9.81711e-13
-9.81735e-13
-9.81837e-13
-9.8187e-13
-9.81729e-13
-9.81719e-13
-9.81861e-13
-9.8162e-13
-9.81883e-13
-9.81441e-13
-9.8156e-13
-9.81606e-13
-9.81656e-13
-9.81796e-13
-6.94428e-13
-6.94155e-13
-6.94369e-13
-6.94468e-13
-6.94355e-13
-6.94414e-13
-6.9433e-13
-6.94479e-13
-6.94498e-13
-6.94288e-13
-6.94305e-13
-6.94194e-13
-6.94482e-13
-6.94521e-13
-6.94338e-13
-6.94717e-13
-6.94288e-13
-6.94401e-13
-6.94427e-13
-6.94397e-13
-6.9441e-13
-6.94347e-13
-6.94575e-13
-6.94448e-13
-6.94357e-13
-6.94574e-13
-6.94259e-13
-6.94351e-13
-6.94356e-13
-6.94277e-13
-6.94521e-13
-6.94367e-13
-6.94505e-13
-6.94528e-13
-6.9445e-13
-6.94359e-13
-6.94464e-13
-6.94106e-13
-6.94347e-13
-6.94382e-13
-6.94546e-13
-6.94271e-13
-6.94203e-13
-6.9428e-13
-6.94282e-13
-6.94274e-13
-6.94472e-13
-6.94422e-13
-6.94263e-13
-6.94314e-13
-6.94212e-13
-6.94363e-13
-6.94284e-13
-6.94403e-13
-6.94205e-13
-6.94539e-13
-6.94273e-13
-6.94591e-13
-6.94388e-13
-6.94517e-13
-5.248e-13
-5.24902e-13
-5.24765e-13
-5.24704e-13
-5.24889e-13
-5.24699e-13
-5.24729e-13
-5.24732e-13
-5.24748e-13
-5.24935e-13
-5.24906e-13
-5.24894e-13
-5.24733e-13
-5.24609e-13
-5.24783e-13
-5.24592e-13
-5.24788e-13
-5.24857e-13
-5.24724e-13
-5.24604e-13
-5.24618e-13
-5.24909e-13
-5.2464e-13
-5.24733e-13
-5.24864e-13
-5.24734e-13
-5.24638e-13
-5.24812e-13
-5.24875e-13
-5.24696e-13
-5.24812e-13
-5.24737e-13
-5.24768e-13
-5.24723e-13
-5.24891e-13
-5.24598e-13
-5.247e-13
-5.25133e-13
-5.24911e-13
-5.24637e-13
-5.24689e-13
-5.24849e-13
-5.2486e-13
-5.24923e-13
-5.24846e-13
-5.24836e-13
-5.24596e-13
-5.2483e-13
-5.24971e-13
-5.24939e-13
-5.25063e-13
-5.24731e-13
-5.24862e-13
-5.24817e-13
-5.24708e-13
-5.24851e-13
-5.24932e-13
-5.24777e-13
-5.24839e-13
-5.24841e-13
-4.19897e-13
-4.20044e-13
-4.19891e-13
-4.20001e-13
-4.19797e-13
-4.19893e-13
-4.20118e-13
-4.19875e-13
-4.19857e-13
-4.19824e-13
-4.19833e-13
-4.19779e-13
-4.1995e-13
-4.1994e-13
-4.20127e-13
-4.2e-13
-4.20067e-13
-4.19939e-13
-4.19899e-13
-4.20116e-13
-4.19906e-13
-4.19766e-13
-4.20021e-13
-4.19997e-13
-4.19871e-13
-4.1971e-13
-4.20066e-13
-4.19801e-13
-4.1988e-13
-4.20016e-13
-4.20003e-13
-4.19989e-13
-4.19678e-13
-4.1995e-13
-4.19768e-13
-4.20139e-13
-4.199e-13
-4.19603e-13
-4.19889e-13
-4.201e-13
-4.19931e-13
-4.19913e-13
-4.20035e-13
-4.19876e-13
-4.19912e-13
-4.20034e-13
-4.20072e-13
-4.19924e-13
-4.19874e-13
-4.19835e-13
-4.19752e-13
-4.199e-13
-4.19784e-13
-4.19971e-13
-4.20034e-13
-4.19924e-13
-4.19782e-13
-4.19862e-13
-4.20112e-13
-4.19822e-13
-3.4842e-13
-3.48263e-13
-3.48586e-13
-3.48531e-13
-3.48659e-13
-3.48313e-13
-3.48451e-13
-3.48495e-13
-3.48551e-13
-3.48698e-13
-3.48496e-13
-3.4855e-13
-3.4857e-13
-3.48387e-13
-3.48293e-13
-3.4847e-13
-3.48311e-13
-3.48572e-13
-3.48526e-13
-3.48422e-13
-3.48641e-13
-3.48471e-13
-3.48551e-13
-3.48422e-13
-3.48466e-13
-3.48661e-13
-3.48307e-13
-3.48628e-13
-3.48586e-13
-3.48643e-13
-3.48379e-13
-3.48645e-13
-3.4877e-13
-3.48428e-13
-3.48757e-13
-3.48323e-13
-3.48425e-13
-3.48621e-13
-3.48445e-13
-3.48492e-13
-3.48414e-13
-3.48438e-13
-3.48489e-13
-3.48521e-13
-3.48324e-13
-3.48384e-13
-3.4838e-13
-3.4841e-13
-3.48476e-13
-3.48434e-13
-3.48432e-13
-3.48531e-13
-3.4853e-13
-3.48409e-13
-3.48474e-13
-3.48495e-13
-3.48648e-13
-3.48373e-13
-3.48111e-13
-3.48358e-13
-2.94436e-13
-2.9453e-13
-2.94299e-13
-2.94379e-13
-2.94211e-13
-2.94556e-13
-2.94229e-13
-2.94477e-13
-2.94207e-13
-2.94123e-13
-2.94501e-13
-2.94475e-13
-2.94212e-13
-2.94609e-13
-2.94349e-13
-2.94501e-13
-2.9446e-13
-2.94233e-13
-2.9423e-13
-2.94272e-13
-2.94337e-13
-2.94632e-13
-2.94155e-13
-2.94481e-13
-2.94282e-13
-2.94289e-13
-2.94602e-13
-2.94101e-13
-2.94349e-13
-2.94155e-13
-2.94273e-13
-2.94071e-13
-2.94106e-13
-2.94341e-13
-2.94359e-13
-2.94354e-13
-2.94612e-13
-2.94156e-13
-2.94366e-13
-2.94354e-13
-2.94499e-13
-2.94418e-13
-2.94236e-13
-2.94358e-13
-2.94513e-13
-2.9438e-13
-2.9457e-13
-2.94407e-13
-2.94267e-13
-2.9442e-13
-2.94403e-13
-2.94152e-13
-2.94368e-13
-2.94495e-13
-2.94278e-13
-2.94305e-13
-2.94283e-13
-2.94508e-13
-2.9463e-13
-2.9454e-13
-2.49736e-13
-2.49843e-13
-2.49805e-13
-2.49806e-13
-2.49972e-13
-2.49825e-13
-2.49872e-13
-2.49734e-13
-2.49842e-13
-2.49784e-13
-2.49613e-13
-2.49736e-13
-2.49921e-13
-2.49775e-13
-2.50054e-13
-2.49735e-13
-2.4975e-13
-2.49986e-13
-2.49928e-13
-2.49999e-13
-2.49928e-13
-2.49503e-13
-2.49953e-13
-2.49572e-13
-2.49961e-13
-2.49881e-13
-2.496e-13
-2.50032e-13
-2.49431e-13
-2.49841e-13
-2.49938e-13
-2.49901e-13
-2.4993e-13
-2.49851e-13
-2.49741e-13
-2.49877e-13
-2.49675e-13
-2.50074e-13
-2.49811e-13
-2.49886e-13
-2.49682e-13
-2.49775e-13
-2.49885e-13
-2.49759e-13
-2.49683e-13
-2.49876e-13
-2.49698e-13
-2.49735e-13
-2.50023e-13
-2.49868e-13
-2.49906e-13
-2.50103e-13
-2.49836e-13
-2.49692e-13
-2.49957e-13
-2.50012e-13
-2.4986e-13
-2.49806e-13
-2.49649e-13
-2.49503e-13
-2.11579e-13
-2.11221e-13
-2.1142e-13
-2.11299e-13
-2.11266e-13
-2.1134e-13
-2.11442e-13
-2.11248e-13
-2.11298e-13
-2.11501e-13
-2.11374e-13
-2.11482e-13
-2.11216e-13
-2.10942e-13
-2.11181e-13
-2.11316e-13
-2.11326e-13
-2.11227e-13
-2.11288e-13
-2.11253e-13
-2.11105e-13
-2.11492e-13
-2.11452e-13
-2.11532e-13
-2.11169e-13
-2.11304e-13
-2.11471e-13
-2.11361e-13
-2.11865e-13
-2.11278e-13
-2.11167e-13
-2.11379e-13
-2.11305e-13
-2.11378e-13
-2.11271e-13
-2.11275e-13
-2.11195e-13
-2.11138e-13
-2.11359e-13
-2.11243e-13
-2.11508e-13
-2.11411e-13
-2.11162e-13
-2.11351e-13
-2.11379e-13
-2.114e-13
-2.11225e-13
-2.11445e-13
-2.11327e-13
-2.11238e-13
-2.11093e-13
-2.11078e-13
-2.11406e-13
-2.11406e-13
-2.11219e-13
-2.11202e-13
-2.11155e-13
-2.11225e-13
-2.11387e-13
-2.11613e-13
-1.77308e-13
-1.77436e-13
-1.77565e-13
-1.77395e-13
-1.7759e-13
-1.77527e-13
-1.77338e-13
-1.77652e-13
-1.77412e-13
-1.77392e-13
-1.77481e-13
-1.77443e-13
-1.77337e-13
-1.78023e-13
-1.77403e-13
-1.77579e-13
-1.77577e-13
-1.77675e-13
-1.77626e-13
-1.77592e-13
-1.77755e-13
-1.77411e-13
-1.77464e-13
-1.77407e-13
-1.7758e-13
-1.77407e-13
-1.77394e-13
-1.77333e-13
-1.77373e-13
-1.7773e-13
-1.77554e-13
-1.77502e-13
-1.77465e-13
-1.77448e-13
-1.77489e-13
-1.77567e-13
-1.77663e-13
-1.77623e-13
-1.77428e-13
-1.77608e-13
-1.77384e-13
-1.77445e-13
-1.77711e-13
-1.77576e-13
-1.77556e-13
-1.77564e-13
-1.77544e-13
-1.77394e-13
-1.77324e-13
-1.77526e-13
-1.77637e-13
-1.7767e-13
-1.77345e-13
-1.77522e-13
-1.77715e-13
-1.77278e-13
-1.77899e-13
-1.77491e-13
-1.77462e-13
-1.77527e-13
-1.47693e-13
-1.47655e-13
-1.47483e-13
-1.47847e-13
-1.47602e-13
-1.47341e-13
-1.47839e-13
-1.47583e-13
-1.47741e-13
-1.47578e-13
-1.47638e-13
-1.47475e-13
-1.48058e-13
-1.47461e-13
-1.47762e-13
-1.47526e-13
-1.47546e-13
-1.47273e-13
-1.47649e-13
-1.4769e-13
-1.47523e-13
-1.47603e-13
-1.47488e-13
-1.47714e-13
-1.47555e-13
-1.47554e-13
-1.47682e-13
-1.47754e-13
-1.47706e-13
-1.47455e-13
-1.47634e-13
-1.47653e-13
-1.47713e-13
-1.47817e-13
-1.4756e-13
-1.4745e-13
-1.47436e-13
-1.47611e-13
-1.47704e-13
-1.47717e-13
-1.47627e-13
-1.47679e-13
-1.47544e-13
-1.47502e-13
-1.47477e-13
-1.47404e-13
-1.47535e-13
-1.47698e-13
-1.4804e-13
-1.47697e-13
-1.47444e-13
-1.47641e-13
-1.47914e-13
-1.47482e-13
-1.47348e-13
-1.47821e-13
-1.4737e-13
-1.47669e-13
-1.47773e-13
-1.4746e-13
-1.21153e-13
-1.20927e-13
-1.21076e-13
-1.20898e-13
-1.2118e-13
-1.21331e-13
-1.20794e-13
-1.20856e-13
-1.20887e-13
-1.21245e-13
-1.21043e-13
-1.2112e-13
-1.20694e-13
-1.21061e-13
-1.20914e-13
-1.21056e-13
-1.20986e-13
-1.21125e-13
-1.20832e-13
-1.21095e-13
-1.20925e-13
-1.20992e-13
-1.21201e-13
-1.20816e-13
-1.21312e-13
-1.21126e-13
-1.21202e-13
-1.21085e-13
-1.21162e-13
-1.20958e-13
-1.21025e-13
-1.20929e-13
-1.21129e-13
-1.20841e-13
-1.21105e-13
-1.21375e-13
-1.21109e-13
-1.21031e-13
-1.21e-13
-1.21052e-13
-1.20863e-13
-1.20963e-13
-1.21075e-13
-1.21162e-13
-1.21078e-13
-1.21254e-13
-1.21073e-13
-1.20926e-13
-1.20675e-13
-1.21022e-13
-1.2115e-13
-1.20742e-13
-1.20802e-13
-1.21113e-13
-1.21101e-13
-1.20633e-13
-1.21011e-13
-1.21063e-13
-1.20949e-13
-1.21101e-13
-9.75058e-14
-9.78045e-14
-9.74522e-14
-9.76352e-14
-9.74122e-14
-9.74013e-14
-9.74825e-14
-9.76122e-14
-9.75548e-14
-9.73807e-14
-9.73933e-14
-9.73883e-14
-9.75779e-14
-9.73889e-14
-9.76541e-14
-9.74866e-14
-9.77849e-14
-9.77114e-14
-9.77003e-14
-9.73023e-14
-9.76809e-14
-9.76433e-14
-9.75222e-14
-9.7779e-14
-9.72843e-14
-9.76243e-14
-9.73627e-14
-9.72767e-14
-9.73186e-14
-9.76392e-14
-9.7594e-14
-9.74193e-14
-9.7344e-14
-9.7683e-14
-9.75842e-14
-9.73941e-14
-9.75375e-14
-9.76951e-14
-9.76395e-14
-9.74586e-14
-9.75583e-14
-9.7571e-14
-9.73508e-14
-9.75161e-14
-9.7378e-14
-9.7576e-14
-9.76439e-14
-9.7696e-14
-9.76945e-14
-9.75774e-14
-9.74542e-14
-9.77708e-14
-9.76238e-14
-9.75822e-14
-9.7368e-14
-9.79595e-14
-9.77702e-14
-9.75452e-14
-9.75038e-14
-9.76934e-14
-7.68273e-14
-7.68489e-14
-7.70221e-14
-7.66608e-14
-7.70395e-14
-7.68528e-14
-7.70875e-14
-7.70846e-14
-7.68261e-14
-7.7026e-14
-7.68792e-14
-7.69001e-14
-7.70845e-14
-7.7172e-14
-7.68305e-14
-7.70864e-14
-7.65806e-14
-7.681e-14
-7.68801e-14
-7.70497e-14
-7.69185e-14
-7.68444e-14
-7.69203e-14
-7.69527e-14
-7.69745e-14
-7.6731e-14
-7.67956e-14
-7.7283e-14
-7.71197e-14
-7.68189e-14
-7.65477e-14
-7.70263e-14
-7.69282e-14
-7.6821e-14
-7.67392e-14
-7.67734e-14
-7.67291e-14
-7.6705e-14
-7.69209e-14
-7.69176e-14
-7.68537e-14
-7.68671e-14
-7.70699e-14
-7.68087e-14
-7.68587e-14
-7.69344e-14
-7.66448e-14
-7.67779e-14
-7.69769e-14
-7.67285e-14
-7.70736e-14
-7.68125e-14
-7.68186e-14
-7.68706e-14
-7.69706e-14
-7.66704e-14
-7.66667e-14
-7.68432e-14
-7.68831e-14
-7.67588e-14
-5.89758e-14
-5.87867e-14
-5.87954e-14
-5.90619e-14
-5.85602e-14
-5.9039e-14
-5.85699e-14
-5.84943e-14
-5.88797e-14
-5.88806e-14
-5.8853e-14
-5.87957e-14
-5.87471e-14
-5.85866e-14
-5.87005e-14
-5.8608e-14
-5.89658e-14
-5.85896e-14
-5.87297e-14
-5.87871e-14
-5.86514e-14
-5.87938e-14
-5.88387e-14
-5.85983e-14
-5.88507e-14
-5.88109e-14
-5.87962e-14
-5.84061e-14
-5.86865e-14
-5.88778e-14
-5.9057e-14
-5.87169e-14
-5.89174e-14
-5.86382e-14
-5.86757e-14
-5.90765e-14
-5.87897e-14
-5.8768e-14
-5.87501e-14
-5.87185e-14
-5.88988e-14
-5.88016e-14
-5.87273e-14
-5.88368e-14
-5.871e-14
-5.86389e-14
-5.89543e-14
-5.89438e-14
-5.85839e-14
-5.88507e-14
-5.85318e-14
-5.89453e-14
-5.88227e-14
-5.88503e-14
-5.87037e-14
-5.87752e-14
-5.89844e-14
-5.87384e-14
-5.89087e-14
-5.89142e-14
-4.26678e-14
-4.29699e-14
-4.28022e-14
-4.30427e-14
-4.31458e-14
-4.29029e-14
-4.32911e-14
-4.30108e-14
-4.29532e-14
-4.28238e-14
-4.29367e-14
-4.2981e-14
-4.28862e-14
-4.31931e-14
-4.28831e-14
-4.29843e-14
-4.28404e-14
-4.3101e-14
-4.28484e-14
-4.29264e-14
-4.29116e-14
-4.27697e-14
-4.29109e-14
-4.30804e-14
-4.26627e-14
-4.29864e-14
-4.3011e-14
-4.31371e-14
-4.30281e-14
-4.29478e-14
-4.29715e-14
-4.30134e-14
-4.28684e-14
-4.29878e-14
-4.30818e-14
-4.28202e-14
-4.32425e-14
-4.28498e-14
-4.28876e-14
-4.28837e-14
-4.26507e-14
-4.27579e-14
-4.27009e-14
-4.28637e-14
-4.30433e-14
-4.31363e-14
-4.27887e-14
-4.28702e-14
-4.28398e-14
-4.29739e-14
-4.31789e-14
-4.28805e-14
-4.3044e-14
-4.27394e-14
-4.31094e-14
-4.29505e-14
-4.26743e-14
-4.30178e-14
-4.30143e-14
-4.28248e-14
-2.95307e-14
-2.91267e-14
-2.92603e-14
-2.91789e-14
-2.90648e-14
-2.92391e-14
-2.90638e-14
-2.9345e-14
-2.93066e-14
-2.91076e-14
-2.91675e-14
-2.91389e-14
-2.92773e-14
-2.91333e-14
-2.93555e-14
-2.92916e-14
-2.90576e-14
-2.91384e-14
-2.92315e-14
-2.9112e-14
-2.92472e-14
-2.94409e-14
-2.92506e-14
-2.90773e-14
-2.94956e-14
-2.91599e-14
-2.92462e-14
-2.93056e-14
-2.92283e-14
-2.91657e-14
-2.90954e-14
-2.9128e-14
-2.92864e-14
-2.92649e-14
-2.94049e-14
-2.91494e-14
-2.89671e-14
-2.92247e-14
-2.9327e-14
-2.94323e-14
-2.94101e-14
-2.93905e-14
-2.94278e-14
-2.932e-14
-2.92337e-14
-2.90403e-14
-2.93446e-14
-2.94149e-14
-2.93845e-14
-2.92464e-14
-2.90403e-14
-2.92048e-14
-2.9232e-14
-2.93695e-14
-2.89724e-14
-2.92379e-14
-2.92169e-14
-2.91413e-14
-2.91132e-14
-2.91373e-14
-1.72188e-14
-1.72259e-14
-1.73396e-14
-1.71125e-14
-1.74546e-14
-1.7307e-14
-1.72982e-14
-1.74874e-14
-1.74467e-14
-1.75821e-14
-1.73958e-14
-1.71863e-14
-1.73841e-14
-1.73508e-14
-1.7244e-14
-1.71277e-14
-1.75311e-14
-1.72508e-14
-1.71958e-14
-1.7393e-14
-1.72898e-14
-1.73767e-14
-1.74943e-14
-1.75504e-14
-1.73258e-14
-1.7382e-14
-1.72867e-14
-1.70634e-14
-1.72128e-14
-1.73173e-14
-1.75831e-14
-1.74822e-14
-1.74227e-14
-1.7367e-14
-1.72609e-14
-1.74667e-14
-1.73126e-14
-1.76214e-14
-1.74547e-14
-1.70135e-14
-1.7244e-14
-1.70937e-14
-1.74407e-14
-1.71988e-14
-1.72458e-14
-1.73899e-14
-1.71835e-14
-1.7186e-14
-1.73829e-14
-1.72881e-14
-1.75413e-14
-1.728e-14
-1.71654e-14
-1.72368e-14
-1.76422e-14
-1.73541e-14
-1.74932e-14
-1.73991e-14
-1.74417e-14
-1.74393e-14
-7.10531e-15
-7.51426e-15
-7.12476e-15
-7.45642e-15
-7.01194e-15
-7.20331e-15
-7.30203e-15
-6.87865e-15
-6.93562e-15
-7.1748e-15
-7.1308e-15
-7.49401e-15
-7.04518e-15
-7.22447e-15
-7.35939e-15
-7.36972e-15
-7.13582e-15
-7.435e-15
-7.35373e-15
-7.1993e-15
-7.19121e-15
-7.08174e-15
-7.03318e-15
-7.41599e-15
-7.07446e-15
-7.01316e-15
-7.23818e-15
-7.44517e-15
-7.25826e-15
-7.32013e-15
-6.99439e-15
-7.0786e-15
-7.00755e-15
-7.28107e-15
-7.3228e-15
-7.222e-15
-7.29878e-15
-6.93652e-15
-7.00197e-15
-7.47647e-15
-7.15839e-15
-7.38741e-15
-6.84658e-15
-7.24406e-15
-7.22831e-15
-7.31396e-15
-7.3215e-15
-7.19434e-15
-7.04167e-15
-7.25018e-15
-7.23653e-15
-7.15337e-15
-7.55177e-15
-7.10872e-15
-6.93455e-15
-7.27628e-15
-7.07052e-15
-7.04173e-15
-7.09926e-15
-7.16335e-15
1.36431e-15
1.61924e-15
1.35346e-15
1.53254e-15
1.40052e-15
1.37796e-15
1.5201e-15
1.22418e-15
1.23822e-15
1.58868e-15
1.45098e-15
1.75607e-15
1.23546e-15
1.56213e-15
1.57009e-15
1.45572e-15
1.16798e-15
1.52675e-15
1.28699e-15
1.5233e-15
1.49155e-15
1.29374e-15
1.5148e-15
1.80899e-15
1.40633e-15
1.25224e-15
1.46777e-15
1.66352e-15
1.64479e-15
1.55881e-15
1.44733e-15
1.46921e-15
1.26482e-15
1.46461e-15
1.65772e-15
1.61573e-15
1.30966e-15
1.27224e-15
1.39383e-15
1.6577e-15
1.54393e-15
1.5766e-15
1.14758e-15
1.4923e-15
1.35872e-15
1.46054e-15
1.58987e-15
1.24755e-15
1.29049e-15
1.53708e-15
1.57795e-15
1.53575e-15
1.851e-15
1.31929e-15
1.22644e-15
1.50881e-15
1.50102e-15
1.3805e-15
1.43358e-15
1.34835e-15
8.9412e-15
8.77751e-15
8.71692e-15
8.76165e-15
8.604e-15
8.80567e-15
8.99288e-15
8.90977e-15
8.98293e-15
8.78647e-15
8.86002e-15
8.59998e-15
8.81444e-15
8.4813e-15
8.7313e-15
8.85929e-15
9.01933e-15
8.73335e-15
9.10294e-15
8.63322e-15
8.76968e-15
8.82153e-15
8.71452e-15
8.68293e-15
8.62908e-15
8.76952e-15
8.81187e-15
8.66854e-15
8.30271e-15
8.80195e-15
8.69873e-15
8.63856e-15
8.8907e-15
8.91932e-15
8.76577e-15
8.60519e-15
9.14617e-15
8.7061e-15
8.65502e-15
8.51227e-15
8.73699e-15
8.61229e-15
8.75801e-15
8.75273e-15
8.95592e-15
8.82302e-15
8.55421e-15
9.0165e-15
8.97281e-15
8.64559e-15
8.62928e-15
8.57325e-15
8.65268e-15
8.74405e-15
9.01539e-15
8.82796e-15
8.78022e-15
8.67411e-15
8.88295e-15
8.82467e-15
1.45476e-14
1.48554e-14
1.49186e-14
1.49068e-14
1.50171e-14
1.49337e-14
1.45082e-14
1.4725e-14
1.47047e-14
1.46203e-14
1.4842e-14
1.48386e-14
1.47082e-14
1.51453e-14
1.49135e-14
1.46843e-14
1.47167e-14
1.49597e-14
1.45448e-14
1.4873e-14
1.4681e-14
1.4929e-14
1.47153e-14
1.47967e-14
1.48938e-14
1.48259e-14
1.49008e-14
1.47867e-14
1.53455e-14
1.46854e-14
1.50172e-14
1.49777e-14
1.47594e-14
1.47016e-14
1.46491e-14
1.50394e-14
1.45497e-14
1.50145e-14
1.50065e-14
1.47894e-14
1.47124e-14
1.48763e-14
1.48452e-14
1.4753e-14
1.47026e-14
1.46543e-14
1.49881e-14
1.47643e-14
1.47471e-14
1.49653e-14
1.48174e-14
1.51279e-14
1.47551e-14
1.4796e-14
1.44853e-14
1.46969e-14
1.47291e-14
1.50044e-14
1.44957e-14
1.47106e-14
2.01644e-14
1.97678e-14
1.97661e-14
1.97477e-14
1.97431e-14
1.97711e-14
2.01189e-14
1.99972e-14
1.99484e-14
1.99678e-14
1.97237e-14
1.98195e-14
1.98865e-14
1.96148e-14
1.98457e-14
1.99296e-14
1.99784e-14
1.97114e-14
2.01166e-14
2.00469e-14
1.99057e-14
1.97154e-14
1.98044e-14
1.9822e-14
2.0036e-14
1.97843e-14
1.97773e-14
2.00331e-14
1.94812e-14
1.99304e-14
1.97826e-14
1.99712e-14
2.00379e-14
1.98246e-14
1.99746e-14
1.96776e-14
1.97879e-14
1.97992e-14
1.95328e-14
2.00437e-14
2.00062e-14
1.99421e-14
1.98616e-14
1.99304e-14
2.01019e-14
2.00688e-14
1.98334e-14
1.97692e-14
1.98042e-14
1.98062e-14
2.00566e-14
1.96043e-14
2.00106e-14
1.9867e-14
2.00859e-14
1.99304e-14
2.00412e-14
1.98228e-14
1.9969e-14
1.99978e-14
2.36888e-14
2.40183e-14
2.40884e-14
2.40753e-14
2.40131e-14
2.38234e-14
2.35615e-14
2.37616e-14
2.38758e-14
2.3934e-14
2.41875e-14
2.39727e-14
2.4258e-14
2.41469e-14
2.38912e-14
2.39601e-14
2.38747e-14
2.39881e-14
2.39249e-14
2.382e-14
2.40627e-14
2.40213e-14
2.41465e-14
2.40915e-14
2.39024e-14
2.39577e-14
2.38093e-14
2.38828e-14
2.3902e-14
2.40954e-14
2.39471e-14
2.37228e-14
2.36871e-14
2.39105e-14
2.3768e-14
2.40965e-14
2.40849e-14
2.39926e-14
2.42882e-14
2.38889e-14
2.38703e-14
2.38173e-14
2.38189e-14
2.38418e-14
2.35989e-14
2.37955e-14
2.37958e-14
2.41291e-14
2.39773e-14
2.38912e-14
2.37725e-14
2.39272e-14
2.4055e-14
2.40423e-14
2.366e-14
2.38234e-14
2.36813e-14
2.39791e-14
2.40971e-14
2.39427e-14
2.72124e-14
2.72801e-14
2.70675e-14
2.71846e-14
2.71208e-14
2.73263e-14
2.72506e-14
2.71701e-14
2.71551e-14
2.71742e-14
2.68685e-14
2.71322e-14
2.67327e-14
2.70141e-14
2.70265e-14
2.70933e-14
2.71064e-14
2.72811e-14
2.6972e-14
2.72168e-14
2.71223e-14
2.72448e-14
2.67338e-14
2.7037e-14
2.70435e-14
2.72449e-14
2.73767e-14
2.70912e-14
2.73318e-14
2.68218e-14
2.71415e-14
2.73352e-14
2.71583e-14
2.71535e-14
2.73749e-14
2.71028e-14
2.71858e-14
2.71261e-14
2.69496e-14
2.69357e-14
2.73295e-14
2.7147e-14
2.71892e-14
2.72661e-14
2.74688e-14
2.72085e-14
2.7392e-14
2.70182e-14
2.71091e-14
2.72417e-14
2.73027e-14
2.73335e-14
2.68727e-14
2.70339e-14
2.73233e-14
2.71962e-14
2.73131e-14
2.69857e-14
2.69727e-14
2.73756e-14
2.96953e-14
2.9515e-14
2.95109e-14
2.96155e-14
2.95234e-14
2.961e-14
2.9764e-14
2.95996e-14
2.96751e-14
2.98373e-14
2.97606e-14
2.97292e-14
2.96887e-14
2.99349e-14
2.9795e-14
2.97312e-14
2.98535e-14
2.94167e-14
2.97242e-14
2.95083e-14
2.95806e-14
2.93303e-14
2.99804e-14
2.95615e-14
2.96997e-14
2.94674e-14
2.96744e-14
2.98398e-14
2.95925e-14
2.97799e-14
2.96376e-14
2.9647e-14
2.98254e-14
2.98279e-14
2.94734e-14
2.94023e-14
2.98278e-14
2.97738e-14
2.97159e-14
2.98709e-14
2.95026e-14
2.96947e-14
2.97002e-14
2.96552e-14
2.96093e-14
2.97825e-14
2.9459e-14
2.99274e-14
2.96225e-14
2.9712e-14
2.95923e-14
2.9673e-14
2.98483e-14
2.98632e-14
2.95316e-14
2.97492e-14
2.95045e-14
2.98461e-14
2.9746e-14
2.94844e-14
3.15815e-14
3.16047e-14
3.17874e-14
3.15754e-14
3.19123e-14
3.16405e-14
3.14868e-14
3.15804e-14
3.1569e-14
3.14746e-14
3.17631e-14
3.14064e-14
3.16177e-14
3.12896e-14
3.14388e-14
3.15018e-14
3.15159e-14
3.16579e-14
3.16932e-14
3.16417e-14
3.15028e-14
3.18918e-14
3.15968e-14
3.16812e-14
3.16394e-14
3.16692e-14
3.13853e-14
3.13147e-14
3.15297e-14
3.1516e-14
3.15038e-14
3.16321e-14
3.15806e-14
3.14342e-14
3.1642e-14
3.18085e-14
3.1188e-14
3.15705e-14
3.16665e-14
3.15329e-14
3.17344e-14
3.13642e-14
3.15304e-14
3.13499e-14
3.14386e-14
3.1512e-14
3.16682e-14
3.13615e-14
3.1754e-14
3.15173e-14
3.18407e-14
3.1364e-14
3.13153e-14
3.13423e-14
3.15515e-14
3.1298e-14
3.14388e-14
3.14958e-14
3.16754e-14
3.15866e-14
3.27186e-14
3.28674e-14
3.26941e-14
3.28336e-14
3.26564e-14
3.28314e-14
3.2802e-14
3.30166e-14
3.29943e-14
3.27251e-14
3.27153e-14
3.29004e-14
3.27995e-14
3.29476e-14
3.30119e-14
3.28794e-14
3.27223e-14
3.28077e-14
3.27341e-14
3.27601e-14
3.32132e-14
3.27125e-14
3.25813e-14
3.29339e-14
3.28781e-14
3.30049e-14
3.28697e-14
3.2908e-14
3.27288e-14
3.28838e-14
3.28209e-14
3.27586e-14
3.27537e-14
3.29455e-14
3.28496e-14
3.27016e-14