/*--------------------------------*- C++ -*----------------------------------*\
| =========                 |                                                 |
| \\      /  F ield         | foam-extend: Open Source CFD                    |
|  \\    /   O peration     | Version:     4.0                                |
|   \\  /    A nd           | Web:         http://www.foam-extend.org         |
|    \\/     M anipulation  |                                                 |
\*---------------------------------------------------------------------------*/
FoamFile
{
    version     2.0;
    format      ascii;
    class       volScalarField;
    location    "520";
    object      cMinus;
}
// * * * * * * * * * * * * * * * * * * * * * * * * * * * * * * * * * * * * * //

dimensions      [0 0 0 0 0 0 0];

internalField   nonuniform List<scalar> 
6960
(
1.54577e-17
1.54115e-17
1.54507e-17
1.54671e-17
1.54712e-17
1.54687e-17
1.54626e-17
1.54546e-17
1.54452e-17
1.54351e-17
1.54244e-17
1.54134e-17
1.54024e-17
1.53914e-17
1.53806e-17
1.53701e-17
1.53601e-17
1.53505e-17
1.53416e-17
1.53333e-17
1.53257e-17
1.53188e-17
1.53126e-17
1.53072e-17
1.53026e-17
1.52987e-17
1.52956e-17
1.52933e-17
1.52917e-17
1.5291e-17
1.5291e-17
1.52917e-17
1.52933e-17
1.52956e-17
1.52987e-17
1.53026e-17
1.53072e-17
1.53126e-17
1.53188e-17
1.53257e-17
1.53333e-17
1.53416e-17
1.53505e-17
1.53601e-17
1.53701e-17
1.53806e-17
1.53914e-17
1.54024e-17
1.54134e-17
1.54244e-17
1.54351e-17
1.54452e-17
1.54546e-17
1.54626e-17
1.54687e-17
1.54712e-17
1.54671e-17
1.54507e-17
1.54115e-17
1.54577e-17
2.51395e-17
2.50779e-17
2.51384e-17
2.51637e-17
2.51698e-17
2.51659e-17
2.51564e-17
2.51438e-17
2.51293e-17
2.51135e-17
2.50969e-17
2.50798e-17
2.50626e-17
2.50455e-17
2.50287e-17
2.50124e-17
2.49968e-17
2.49819e-17
2.4968e-17
2.49551e-17
2.49433e-17
2.49325e-17
2.49229e-17
2.49145e-17
2.49073e-17
2.49013e-17
2.48965e-17
2.48929e-17
2.48905e-17
2.48893e-17
2.48893e-17
2.48905e-17
2.48929e-17
2.48965e-17
2.49013e-17
2.49073e-17
2.49145e-17
2.49229e-17
2.49325e-17
2.49433e-17
2.49551e-17
2.4968e-17
2.49819e-17
2.49968e-17
2.50124e-17
2.50287e-17
2.50455e-17
2.50626e-17
2.50798e-17
2.50969e-17
2.51135e-17
2.51293e-17
2.51438e-17
2.51564e-17
2.51659e-17
2.51698e-17
2.51637e-17
2.51384e-17
2.50779e-17
2.51395e-17
8.38352e-17
8.36655e-17
8.38556e-17
8.39347e-17
8.39534e-17
8.39404e-17
8.39103e-17
8.38702e-17
8.38239e-17
8.37737e-17
8.37209e-17
8.36668e-17
8.36121e-17
8.35577e-17
8.35044e-17
8.34526e-17
8.3403e-17
8.33559e-17
8.33117e-17
8.32707e-17
8.32331e-17
8.3199e-17
8.31686e-17
8.31419e-17
8.3119e-17
8.30998e-17
8.30846e-17
8.30731e-17
8.30654e-17
8.30616e-17
8.30616e-17
8.30654e-17
8.30731e-17
8.30846e-17
8.30998e-17
8.3119e-17
8.31419e-17
8.31686e-17
8.3199e-17
8.32331e-17
8.32707e-17
8.33117e-17
8.33559e-17
8.3403e-17
8.34526e-17
8.35044e-17
8.35577e-17
8.36121e-17
8.36668e-17
8.37209e-17
8.37737e-17
8.38239e-17
8.38702e-17
8.39103e-17
8.39404e-17
8.39534e-17
8.39347e-17
8.38556e-17
8.36655e-17
8.38352e-17
3.13103e-16
3.12603e-16
3.13262e-16
3.13534e-16
3.13598e-16
3.13552e-16
3.13447e-16
3.13308e-16
3.13148e-16
3.12973e-16
3.12791e-16
3.12603e-16
3.12413e-16
3.12225e-16
3.1204e-16
3.11861e-16
3.11689e-16
3.11525e-16
3.11372e-16
3.1123e-16
3.111e-16
3.10982e-16
3.10876e-16
3.10784e-16
3.10704e-16
3.10638e-16
3.10585e-16
3.10545e-16
3.10519e-16
3.10506e-16
3.10506e-16
3.10519e-16
3.10545e-16
3.10585e-16
3.10638e-16
3.10704e-16
3.10784e-16
3.10876e-16
3.10982e-16
3.111e-16
3.1123e-16
3.11372e-16
3.11525e-16
3.11689e-16
3.11861e-16
3.1204e-16
3.12225e-16
3.12413e-16
3.12603e-16
3.12791e-16
3.12973e-16
3.13148e-16
3.13308e-16
3.13447e-16
3.13552e-16
3.13598e-16
3.13534e-16
3.13262e-16
3.12603e-16
3.13103e-16
1.2404e-15
1.23912e-15
1.24147e-15
1.24244e-15
1.24267e-15
1.24251e-15
1.24215e-15
1.24167e-15
1.24111e-15
1.24051e-15
1.23987e-15
1.23922e-15
1.23856e-15
1.23791e-15
1.23726e-15
1.23664e-15
1.23604e-15
1.23548e-15
1.23495e-15
1.23445e-15
1.234e-15
1.23359e-15
1.23322e-15
1.2329e-15
1.23263e-15
1.2324e-15
1.23221e-15
1.23208e-15
1.23198e-15
1.23194e-15
1.23194e-15
1.23198e-15
1.23208e-15
1.23221e-15
1.2324e-15
1.23263e-15
1.2329e-15
1.23322e-15
1.23359e-15
1.234e-15
1.23445e-15
1.23495e-15
1.23548e-15
1.23604e-15
1.23664e-15
1.23726e-15
1.23791e-15
1.23856e-15
1.23922e-15
1.23987e-15
1.24051e-15
1.24111e-15
1.24167e-15
1.24215e-15
1.24251e-15
1.24267e-15
1.24244e-15
1.24147e-15
1.23912e-15
1.2404e-15
5.35755e-15
5.35614e-15
5.36507e-15
5.3688e-15
5.36978e-15
5.36934e-15
5.36813e-15
5.36648e-15
5.36458e-15
5.3625e-15
5.36032e-15
5.35808e-15
5.35582e-15
5.35357e-15
5.35137e-15
5.34923e-15
5.34718e-15
5.34523e-15
5.3434e-15
5.34171e-15
5.34015e-15
5.33874e-15
5.33748e-15
5.33638e-15
5.33544e-15
5.33465e-15
5.33401e-15
5.33354e-15
5.33323e-15
5.33307e-15
5.33307e-15
5.33323e-15
5.33354e-15
5.33401e-15
5.33465e-15
5.33544e-15
5.33638e-15
5.33748e-15
5.33874e-15
5.34015e-15
5.34171e-15
5.3434e-15
5.34523e-15
5.34718e-15
5.34923e-15
5.35137e-15
5.35357e-15
5.35582e-15
5.35808e-15
5.36032e-15
5.3625e-15
5.36458e-15
5.36648e-15
5.36813e-15
5.36934e-15
5.36978e-15
5.3688e-15
5.36507e-15
5.35614e-15
5.35755e-15
2.6073e-14
2.60914e-14
2.61306e-14
2.61478e-14
2.61533e-14
2.61528e-14
2.61492e-14
2.61439e-14
2.61377e-14
2.61307e-14
2.61235e-14
2.61159e-14
2.61084e-14
2.61008e-14
2.60934e-14
2.60862e-14
2.60793e-14
2.60728e-14
2.60667e-14
2.6061e-14
2.60557e-14
2.6051e-14
2.60468e-14
2.60431e-14
2.60399e-14
2.60373e-14
2.60352e-14
2.60336e-14
2.60325e-14
2.6032e-14
2.6032e-14
2.60325e-14
2.60336e-14
2.60352e-14
2.60373e-14
2.60399e-14
2.60431e-14
2.60468e-14
2.6051e-14
2.60557e-14
2.6061e-14
2.60667e-14
2.60728e-14
2.60793e-14
2.60862e-14
2.60934e-14
2.61008e-14
2.61084e-14
2.61159e-14
2.61235e-14
2.61307e-14
2.61377e-14
2.61439e-14
2.61492e-14
2.61528e-14
2.61533e-14
2.61478e-14
2.61306e-14
2.60914e-14
2.6073e-14
1.4508e-13
1.45336e-13
1.45555e-13
1.45657e-13
1.45697e-13
1.45707e-13
1.45701e-13
1.45686e-13
1.45668e-13
1.45646e-13
1.45624e-13
1.456e-13
1.45576e-13
1.45552e-13
1.45529e-13
1.45506e-13
1.45484e-13
1.45463e-13
1.45444e-13
1.45425e-13
1.45409e-13
1.45394e-13
1.45381e-13
1.45369e-13
1.45359e-13
1.4535e-13
1.45344e-13
1.45339e-13
1.45335e-13
1.45334e-13
1.45334e-13
1.45335e-13
1.45339e-13
1.45344e-13
1.4535e-13
1.45359e-13
1.45369e-13
1.45381e-13
1.45394e-13
1.45409e-13
1.45425e-13
1.45444e-13
1.45463e-13
1.45484e-13
1.45506e-13
1.45529e-13
1.45552e-13
1.45576e-13
1.456e-13
1.45624e-13
1.45646e-13
1.45668e-13
1.45686e-13
1.45701e-13
1.45707e-13
1.45697e-13
1.45657e-13
1.45555e-13
1.45336e-13
1.4508e-13
9.08674e-13
9.11202e-13
9.12735e-13
9.13489e-13
9.13834e-13
9.13973e-13
9.1401e-13
9.13997e-13
9.13959e-13
9.13907e-13
9.13849e-13
9.13787e-13
9.13722e-13
9.13658e-13
9.13594e-13
9.13532e-13
9.13472e-13
9.13416e-13
9.13363e-13
9.13313e-13
9.13268e-13
9.13228e-13
9.13191e-13
9.13159e-13
9.13132e-13
9.1311e-13
9.13092e-13
9.13078e-13
9.13069e-13
9.13065e-13
9.13065e-13
9.13069e-13
9.13078e-13
9.13092e-13
9.1311e-13
9.13132e-13
9.13159e-13
9.13191e-13
9.13228e-13
9.13268e-13
9.13313e-13
9.13363e-13
9.13416e-13
9.13472e-13
9.13532e-13
9.13594e-13
9.13658e-13
9.13722e-13
9.13787e-13
9.13849e-13
9.13907e-13
9.13959e-13
9.13997e-13
9.1401e-13
9.13973e-13
9.13834e-13
9.13489e-13
9.12735e-13
9.11202e-13
9.08674e-13
6.17998e-12
6.20263e-12
6.21492e-12
6.22117e-12
6.22422e-12
6.22565e-12
6.22629e-12
6.22656e-12
6.22665e-12
6.22666e-12
6.22662e-12
6.22656e-12
6.22648e-12
6.2264e-12
6.22632e-12
6.22624e-12
6.22615e-12
6.22608e-12
6.226e-12
6.22594e-12
6.22587e-12
6.22582e-12
6.22577e-12
6.22573e-12
6.22569e-12
6.22567e-12
6.22564e-12
6.22563e-12
6.22561e-12
6.22561e-12
6.22561e-12
6.22561e-12
6.22563e-12
6.22564e-12
6.22567e-12
6.22569e-12
6.22573e-12
6.22577e-12
6.22582e-12
6.22587e-12
6.22594e-12
6.226e-12
6.22608e-12
6.22615e-12
6.22624e-12
6.22632e-12
6.2264e-12
6.22648e-12
6.22656e-12
6.22662e-12
6.22666e-12
6.22665e-12
6.22656e-12
6.22629e-12
6.22565e-12
6.22422e-12
6.22117e-12
6.21492e-12
6.20263e-12
6.17998e-12
4.39497e-11
4.41435e-11
4.42463e-11
4.42994e-11
4.43259e-11
4.4339e-11
4.43456e-11
4.43492e-11
4.43513e-11
4.43528e-11
4.43539e-11
4.43549e-11
4.43557e-11
4.43565e-11
4.43572e-11
4.43579e-11
4.43586e-11
4.43592e-11
4.43598e-11
4.43603e-11
4.43608e-11
4.43613e-11
4.43617e-11
4.43621e-11
4.43624e-11
4.43626e-11
4.43629e-11
4.4363e-11
4.43631e-11
4.43632e-11
4.43632e-11
4.43631e-11
4.4363e-11
4.43629e-11
4.43626e-11
4.43624e-11
4.43621e-11
4.43617e-11
4.43613e-11
4.43608e-11
4.43603e-11
4.43598e-11
4.43592e-11
4.43586e-11
4.43579e-11
4.43572e-11
4.43565e-11
4.43557e-11
4.43549e-11
4.43539e-11
4.43528e-11
4.43513e-11
4.43492e-11
4.43456e-11
4.4339e-11
4.43259e-11
4.42994e-11
4.42463e-11
4.41435e-11
4.39497e-11
3.17025e-10
3.18622e-10
3.19473e-10
3.19916e-10
3.20139e-10
3.20252e-10
3.2031e-10
3.20343e-10
3.20365e-10
3.20381e-10
3.20394e-10
3.20406e-10
3.20417e-10
3.20428e-10
3.20438e-10
3.20448e-10
3.20457e-10
3.20465e-10
3.20473e-10
3.20481e-10
3.20487e-10
3.20494e-10
3.20499e-10
3.20504e-10
3.20508e-10
3.20512e-10
3.20515e-10
3.20517e-10
3.20518e-10
3.20519e-10
3.20519e-10
3.20518e-10
3.20517e-10
3.20515e-10
3.20512e-10
3.20508e-10
3.20504e-10
3.20499e-10
3.20494e-10
3.20487e-10
3.20481e-10
3.20473e-10
3.20465e-10
3.20457e-10
3.20448e-10
3.20438e-10
3.20428e-10
3.20417e-10
3.20406e-10
3.20394e-10
3.20381e-10
3.20365e-10
3.20343e-10
3.2031e-10
3.20252e-10
3.20139e-10
3.19916e-10
3.19473e-10
3.18622e-10
3.17025e-10
2.26616e-09
2.27876e-09
2.28556e-09
2.28911e-09
2.2909e-09
2.29181e-09
2.29229e-09
2.29256e-09
2.29274e-09
2.29287e-09
2.29299e-09
2.29309e-09
2.29318e-09
2.29328e-09
2.29336e-09
2.29345e-09
2.29352e-09
2.2936e-09
2.29367e-09
2.29373e-09
2.29379e-09
2.29384e-09
2.29389e-09
2.29393e-09
2.29397e-09
2.294e-09
2.29403e-09
2.29404e-09
2.29406e-09
2.29406e-09
2.29406e-09
2.29406e-09
2.29404e-09
2.29403e-09
2.294e-09
2.29397e-09
2.29393e-09
2.29389e-09
2.29384e-09
2.29379e-09
2.29373e-09
2.29367e-09
2.2936e-09
2.29352e-09
2.29345e-09
2.29336e-09
2.29328e-09
2.29318e-09
2.29309e-09
2.29299e-09
2.29287e-09
2.29274e-09
2.29256e-09
2.29229e-09
2.29181e-09
2.2909e-09
2.28911e-09
2.28556e-09
2.27876e-09
2.26616e-09
1.57505e-08
1.58447e-08
1.58962e-08
1.59231e-08
1.59367e-08
1.59436e-08
1.59472e-08
1.59493e-08
1.59506e-08
1.59516e-08
1.59525e-08
1.59532e-08
1.59539e-08
1.59546e-08
1.59553e-08
1.59559e-08
1.59565e-08
1.5957e-08
1.59575e-08
1.5958e-08
1.59584e-08
1.59588e-08
1.59592e-08
1.59595e-08
1.59597e-08
1.596e-08
1.59601e-08
1.59603e-08
1.59604e-08
1.59604e-08
1.59604e-08
1.59604e-08
1.59603e-08
1.59601e-08
1.596e-08
1.59597e-08
1.59595e-08
1.59592e-08
1.59588e-08
1.59584e-08
1.5958e-08
1.59575e-08
1.5957e-08
1.59565e-08
1.59559e-08
1.59553e-08
1.59546e-08
1.59539e-08
1.59532e-08
1.59525e-08
1.59516e-08
1.59506e-08
1.59493e-08
1.59472e-08
1.59436e-08
1.59367e-08
1.59231e-08
1.58962e-08
1.58447e-08
1.57505e-08
1.0464e-07
1.053e-07
1.05664e-07
1.05854e-07
1.05951e-07
1.05999e-07
1.06025e-07
1.06039e-07
1.06048e-07
1.06055e-07
1.06061e-07
1.06066e-07
1.06071e-07
1.06075e-07
1.0608e-07
1.06084e-07
1.06088e-07
1.06091e-07
1.06095e-07
1.06098e-07
1.06101e-07
1.06103e-07
1.06106e-07
1.06108e-07
1.06109e-07
1.06111e-07
1.06112e-07
1.06113e-07
1.06114e-07
1.06114e-07
1.06114e-07
1.06114e-07
1.06113e-07
1.06112e-07
1.06111e-07
1.06109e-07
1.06108e-07
1.06106e-07
1.06103e-07
1.06101e-07
1.06098e-07
1.06095e-07
1.06091e-07
1.06088e-07
1.06084e-07
1.0608e-07
1.06075e-07
1.06071e-07
1.06066e-07
1.06061e-07
1.06055e-07
1.06048e-07
1.06039e-07
1.06025e-07
1.05999e-07
1.05951e-07
1.05854e-07
1.05664e-07
1.053e-07
1.0464e-07
6.53724e-07
6.57993e-07
6.60359e-07
6.61597e-07
6.62223e-07
6.62538e-07
6.62702e-07
6.62794e-07
6.62853e-07
6.62896e-07
6.62931e-07
6.62963e-07
6.62992e-07
6.6302e-07
6.63046e-07
6.63071e-07
6.63094e-07
6.63116e-07
6.63137e-07
6.63156e-07
6.63173e-07
6.63189e-07
6.63203e-07
6.63216e-07
6.63227e-07
6.63236e-07
6.63243e-07
6.63248e-07
6.63252e-07
6.63254e-07
6.63254e-07
6.63252e-07
6.63248e-07
6.63243e-07
6.63236e-07
6.63227e-07
6.63216e-07
6.63203e-07
6.63189e-07
6.63173e-07
6.63156e-07
6.63137e-07
6.63116e-07
6.63094e-07
6.63071e-07
6.63046e-07
6.6302e-07
6.62992e-07
6.62963e-07
6.62931e-07
6.62896e-07
6.62853e-07
6.62794e-07
6.62702e-07
6.62538e-07
6.62223e-07
6.61597e-07
6.60359e-07
6.57993e-07
6.53724e-07
3.77855e-06
3.80363e-06
3.81758e-06
3.82487e-06
3.82856e-06
3.83041e-06
3.83137e-06
3.83191e-06
3.83224e-06
3.83249e-06
3.83269e-06
3.83286e-06
3.83303e-06
3.83318e-06
3.83332e-06
3.83346e-06
3.83359e-06
3.83371e-06
3.83382e-06
3.83393e-06
3.83402e-06
3.83411e-06
3.83419e-06
3.83426e-06
3.83432e-06
3.83437e-06
3.83441e-06
3.83444e-06
3.83446e-06
3.83447e-06
3.83447e-06
3.83446e-06
3.83444e-06
3.83441e-06
3.83437e-06
3.83432e-06
3.83426e-06
3.83419e-06
3.83411e-06
3.83402e-06
3.83393e-06
3.83382e-06
3.83371e-06
3.83359e-06
3.83346e-06
3.83332e-06
3.83318e-06
3.83303e-06
3.83286e-06
3.83269e-06
3.83249e-06
3.83224e-06
3.83191e-06
3.83137e-06
3.83041e-06
3.82856e-06
3.82487e-06
3.81758e-06
3.80363e-06
3.77855e-06
1.98783e-05
2.001e-05
2.00833e-05
2.01216e-05
2.01409e-05
2.01506e-05
2.01556e-05
2.01584e-05
2.01601e-05
2.01614e-05
2.01624e-05
2.01633e-05
2.01641e-05
2.01648e-05
2.01655e-05
2.01662e-05
2.01668e-05
2.01674e-05
2.0168e-05
2.01685e-05
2.0169e-05
2.01694e-05
2.01698e-05
2.01701e-05
2.01704e-05
2.01707e-05
2.01709e-05
2.0171e-05
2.01711e-05
2.01712e-05
2.01712e-05
2.01711e-05
2.0171e-05
2.01709e-05
2.01707e-05
2.01704e-05
2.01701e-05
2.01698e-05
2.01694e-05
2.0169e-05
2.01685e-05
2.0168e-05
2.01674e-05
2.01668e-05
2.01662e-05
2.01655e-05
2.01648e-05
2.01641e-05
2.01633e-05
2.01624e-05
2.01614e-05
2.01601e-05
2.01584e-05
2.01556e-05
2.01506e-05
2.01409e-05
2.01216e-05
2.00833e-05
2.001e-05
1.98783e-05
9.36096e-05
9.42159e-05
9.45534e-05
9.47297e-05
9.48185e-05
9.48631e-05
9.4886e-05
9.48987e-05
9.49066e-05
9.49121e-05
9.49166e-05
9.49204e-05
9.4924e-05
9.49272e-05
9.49303e-05
9.49333e-05
9.4936e-05
9.49386e-05
9.4941e-05
9.49433e-05
9.49453e-05
9.49472e-05
9.49489e-05
9.49503e-05
9.49516e-05
9.49526e-05
9.49535e-05
9.49541e-05
9.49545e-05
9.49547e-05
9.49547e-05
9.49545e-05
9.49541e-05
9.49535e-05
9.49526e-05
9.49516e-05
9.49503e-05
9.49489e-05
9.49472e-05
9.49453e-05
9.49433e-05
9.4941e-05
9.49386e-05
9.4936e-05
9.49333e-05
9.49303e-05
9.49272e-05
9.4924e-05
9.49204e-05
9.49166e-05
9.49121e-05
9.49066e-05
9.48987e-05
9.4886e-05
9.48631e-05
9.48185e-05
9.47297e-05
9.45534e-05
9.42159e-05
9.36096e-05
0.00038791
0.000390314
0.00039165
0.000392346
0.000392697
0.000392873
0.000392964
0.000393013
0.000393044
0.000393065
0.000393082
0.000393097
0.00039311
0.000393122
0.000393134
0.000393145
0.000393155
0.000393165
0.000393174
0.000393182
0.00039319
0.000393197
0.000393203
0.000393209
0.000393213
0.000393217
0.00039322
0.000393223
0.000393224
0.000393225
0.000393225
0.000393224
0.000393223
0.00039322
0.000393217
0.000393213
0.000393209
0.000393203
0.000393197
0.00039319
0.000393182
0.000393174
0.000393165
0.000393155
0.000393145
0.000393134
0.000393122
0.00039311
0.000393097
0.000393082
0.000393065
0.000393044
0.000393013
0.000392964
0.000392873
0.000392697
0.000392346
0.00039165
0.000390314
0.00038791
0.0013902
0.00139823
0.00140268
0.001405
0.00140617
0.00140675
0.00140705
0.00140721
0.00140731
0.00140738
0.00140744
0.00140749
0.00140753
0.00140757
0.0014076
0.00140764
0.00140767
0.0014077
0.00140773
0.00140776
0.00140778
0.0014078
0.00140782
0.00140784
0.00140785
0.00140787
0.00140788
0.00140788
0.00140789
0.00140789
0.00140789
0.00140789
0.00140788
0.00140788
0.00140787
0.00140785
0.00140784
0.00140782
0.0014078
0.00140778
0.00140776
0.00140773
0.0014077
0.00140767
0.00140764
0.0014076
0.00140757
0.00140753
0.00140749
0.00140744
0.00140738
0.00140731
0.00140721
0.00140705
0.00140675
0.00140617
0.001405
0.00140268
0.00139823
0.0013902
0.00423834
0.00426046
0.00427267
0.00427902
0.00428222
0.00428382
0.00428464
0.00428509
0.00428536
0.00428554
0.00428569
0.00428581
0.00428592
0.00428602
0.00428612
0.00428621
0.0042863
0.00428637
0.00428645
0.00428652
0.00428658
0.00428664
0.00428669
0.00428673
0.00428677
0.0042868
0.00428683
0.00428685
0.00428686
0.00428687
0.00428687
0.00428686
0.00428685
0.00428683
0.0042868
0.00428677
0.00428673
0.00428669
0.00428664
0.00428658
0.00428652
0.00428645
0.00428637
0.0042863
0.00428621
0.00428612
0.00428602
0.00428592
0.00428581
0.00428569
0.00428554
0.00428536
0.00428509
0.00428464
0.00428382
0.00428222
0.00427902
0.00427267
0.00426046
0.00423834
0.010855
0.0109045
0.0109316
0.0109457
0.0109528
0.0109564
0.0109582
0.0109592
0.0109598
0.0109602
0.0109605
0.0109608
0.010961
0.0109612
0.0109614
0.0109616
0.0109618
0.010962
0.0109621
0.0109623
0.0109624
0.0109625
0.0109626
0.0109627
0.0109628
0.0109629
0.0109629
0.010963
0.010963
0.010963
0.010963
0.010963
0.010963
0.0109629
0.0109629
0.0109628
0.0109627
0.0109626
0.0109625
0.0109624
0.0109623
0.0109621
0.010962
0.0109618
0.0109616
0.0109614
0.0109612
0.010961
0.0109608
0.0109605
0.0109602
0.0109598
0.0109592
0.0109582
0.0109564
0.0109528
0.0109457
0.0109316
0.0109045
0.010855
0.0232748
0.0233642
0.023413
0.0234384
0.0234512
0.0234576
0.0234609
0.0234626
0.0234637
0.0234644
0.023465
0.0234654
0.0234658
0.0234662
0.0234665
0.0234669
0.0234672
0.0234674
0.0234677
0.023468
0.0234682
0.0234684
0.0234686
0.0234687
0.0234689
0.023469
0.0234691
0.0234691
0.0234692
0.0234692
0.0234692
0.0234692
0.0234691
0.0234691
0.023469
0.0234689
0.0234687
0.0234686
0.0234684
0.0234682
0.023468
0.0234677
0.0234674
0.0234672
0.0234669
0.0234665
0.0234662
0.0234658
0.0234654
0.023465
0.0234644
0.0234637
0.0234626
0.0234609
0.0234576
0.0234512
0.0234384
0.023413
0.0233642
0.0232748
0.0422147
0.042348
0.0424204
0.0424581
0.0424771
0.0424866
0.0424914
0.042494
0.0424956
0.0424966
0.0424974
0.042498
0.0424986
0.0424991
0.0424996
0.0425001
0.0425005
0.0425009
0.0425013
0.0425016
0.0425019
0.0425022
0.0425025
0.0425027
0.0425029
0.042503
0.0425032
0.0425033
0.0425033
0.0425034
0.0425034
0.0425033
0.0425033
0.0425032
0.042503
0.0425029
0.0425027
0.0425025
0.0425022
0.0425019
0.0425016
0.0425013
0.0425009
0.0425005
0.0425001
0.0424996
0.0424991
0.0424986
0.042498
0.0424974
0.0424966
0.0424956
0.042494
0.0424914
0.0424866
0.0424771
0.0424581
0.0424204
0.042348
0.0422147
0.066353
0.0665241
0.0666165
0.0666646
0.0666888
0.066701
0.0667072
0.0667105
0.0667125
0.0667138
0.0667147
0.0667155
0.0667162
0.0667168
0.0667174
0.066718
0.0667185
0.066719
0.0667194
0.0667198
0.0667202
0.0667205
0.0667208
0.0667211
0.0667213
0.0667215
0.0667217
0.0667218
0.0667219
0.0667219
0.0667219
0.0667219
0.0667218
0.0667217
0.0667215
0.0667213
0.0667211
0.0667208
0.0667205
0.0667202
0.0667198
0.0667194
0.066719
0.0667185
0.066718
0.0667174
0.0667168
0.0667162
0.0667155
0.0667147
0.0667138
0.0667125
0.0667105
0.0667072
0.066701
0.0666888
0.0666646
0.0666165
0.0665241
0.066353
0.0933106
0.0935096
0.0936167
0.0936724
0.0937006
0.0937147
0.0937219
0.0937258
0.093728
0.0937295
0.0937306
0.0937315
0.0937322
0.0937329
0.0937335
0.0937341
0.0937347
0.0937352
0.0937357
0.0937361
0.0937365
0.0937369
0.0937372
0.0937375
0.0937377
0.093738
0.0937381
0.0937382
0.0937383
0.0937384
0.0937384
0.0937383
0.0937382
0.0937381
0.093738
0.0937377
0.0937375
0.0937372
0.0937369
0.0937365
0.0937361
0.0937357
0.0937352
0.0937347
0.0937341
0.0937335
0.0937329
0.0937322
0.0937315
0.0937306
0.0937295
0.093728
0.0937258
0.0937219
0.0937147
0.0937006
0.0936724
0.0936167
0.0935096
0.0933106
0.12113
0.12135
0.121467
0.121529
0.12156
0.121576
0.121584
0.121588
0.12159
0.121592
0.121593
0.121594
0.121595
0.121596
0.121596
0.121597
0.121597
0.121598
0.121598
0.121599
0.121599
0.1216
0.1216
0.1216
0.121601
0.121601
0.121601
0.121601
0.121601
0.121601
0.121601
0.121601
0.121601
0.121601
0.121601
0.121601
0.1216
0.1216
0.1216
0.121599
0.121599
0.121598
0.121598
0.121597
0.121597
0.121596
0.121596
0.121595
0.121594
0.121593
0.121592
0.12159
0.121588
0.121584
0.121576
0.12156
0.121529
0.121467
0.12135
0.12113
0.148824
0.14906
0.149187
0.149254
0.149287
0.149305
0.149313
0.149318
0.149321
0.149322
0.149323
0.149324
0.149325
0.149326
0.149327
0.149327
0.149328
0.149328
0.149329
0.149329
0.14933
0.14933
0.14933
0.149331
0.149331
0.149331
0.149331
0.149331
0.149332
0.149332
0.149332
0.149332
0.149331
0.149331
0.149331
0.149331
0.149331
0.14933
0.14933
0.14933
0.149329
0.149329
0.149328
0.149328
0.149327
0.149327
0.149326
0.149325
0.149324
0.149323
0.149322
0.149321
0.149318
0.149313
0.149305
0.149287
0.149254
0.149187
0.14906
0.148824
0.176095
0.176347
0.176482
0.176553
0.17659
0.176608
0.176618
0.176623
0.176625
0.176627
0.176628
0.176629
0.17663
0.176631
0.176632
0.176632
0.176633
0.176633
0.176634
0.176634
0.176635
0.176635
0.176635
0.176636
0.176636
0.176636
0.176636
0.176637
0.176637
0.176637
0.176637
0.176637
0.176637
0.176636
0.176636
0.176636
0.176636
0.176635
0.176635
0.176635
0.176634
0.176634
0.176633
0.176633
0.176632
0.176632
0.176631
0.17663
0.176629
0.176628
0.176627
0.176625
0.176623
0.176618
0.176608
0.17659
0.176553
0.176482
0.176347
0.176095
0.202925
0.203192
0.203336
0.203412
0.203451
0.203471
0.203481
0.203487
0.20349
0.203492
0.203493
0.203494
0.203495
0.203496
0.203496
0.203497
0.203497
0.203498
0.203498
0.203499
0.203499
0.2035
0.2035
0.2035
0.2035
0.203501
0.203501
0.203501
0.203501
0.203501
0.203501
0.203501
0.203501
0.203501
0.203501
0.2035
0.2035
0.2035
0.2035
0.203499
0.203499
0.203498
0.203498
0.203497
0.203497
0.203496
0.203496
0.203495
0.203494
0.203493
0.203492
0.20349
0.203487
0.203481
0.203471
0.203451
0.203412
0.203336
0.203192
0.202925
0.229355
0.229635
0.229788
0.229869
0.22991
0.229932
0.229943
0.229949
0.229952
0.229954
0.229955
0.229956
0.229957
0.229958
0.229959
0.229959
0.22996
0.22996
0.229961
0.229961
0.229962
0.229962
0.229962
0.229963
0.229963
0.229963
0.229963
0.229963
0.229963
0.229963
0.229963
0.229963
0.229963
0.229963
0.229963
0.229963
0.229963
0.229962
0.229962
0.229962
0.229961
0.229961
0.22996
0.22996
0.229959
0.229959
0.229958
0.229957
0.229956
0.229955
0.229954
0.229952
0.229949
0.229943
0.229932
0.22991
0.229869
0.229788
0.229635
0.229355
0.255406
0.2557
0.25586
0.255946
0.25599
0.256013
0.256025
0.256031
0.256035
0.256037
0.256038
0.256039
0.25604
0.256041
0.256042
0.256042
0.256043
0.256043
0.256044
0.256044
0.256045
0.256045
0.256045
0.256046
0.256046
0.256046
0.256046
0.256047
0.256047
0.256047
0.256047
0.256047
0.256047
0.256046
0.256046
0.256046
0.256046
0.256045
0.256045
0.256045
0.256044
0.256044
0.256043
0.256043
0.256042
0.256042
0.256041
0.25604
0.256039
0.256038
0.256037
0.256035
0.256031
0.256025
0.256013
0.25599
0.255946
0.25586
0.2557
0.255406
0.281081
0.281387
0.281556
0.281646
0.281693
0.281718
0.28173
0.281737
0.281741
0.281743
0.281745
0.281746
0.281747
0.281747
0.281748
0.281749
0.281749
0.28175
0.28175
0.281751
0.281751
0.281751
0.281752
0.281752
0.281752
0.281752
0.281753
0.281753
0.281753
0.281753
0.281753
0.281753
0.281753
0.281753
0.281752
0.281752
0.281752
0.281752
0.281751
0.281751
0.281751
0.28175
0.28175
0.281749
0.281749
0.281748
0.281747
0.281747
0.281746
0.281745
0.281743
0.281741
0.281737
0.28173
0.281718
0.281693
0.281646
0.281556
0.281387
0.281081
0.306369
0.306687
0.306863
0.306958
0.307008
0.307034
0.307048
0.307055
0.307059
0.307062
0.307063
0.307064
0.307065
0.307066
0.307067
0.307067
0.307068
0.307068
0.307069
0.307069
0.30707
0.30707
0.30707
0.307071
0.307071
0.307071
0.307071
0.307071
0.307071
0.307071
0.307071
0.307071
0.307071
0.307071
0.307071
0.307071
0.307071
0.30707
0.30707
0.30707
0.307069
0.307069
0.307068
0.307068
0.307067
0.307067
0.307066
0.307065
0.307064
0.307063
0.307062
0.307059
0.307055
0.307048
0.307034
0.307008
0.306958
0.306863
0.306687
0.306369
0.331255
0.331582
0.331766
0.331866
0.331919
0.331947
0.331961
0.331969
0.331973
0.331976
0.331977
0.331979
0.331979
0.33198
0.331981
0.331982
0.331982
0.331983
0.331983
0.331983
0.331984
0.331984
0.331984
0.331985
0.331985
0.331985
0.331985
0.331985
0.331986
0.331986
0.331986
0.331986
0.331985
0.331985
0.331985
0.331985
0.331985
0.331984
0.331984
0.331984
0.331983
0.331983
0.331983
0.331982
0.331982
0.331981
0.33198
0.331979
0.331979
0.331977
0.331976
0.331973
0.331969
0.331961
0.331947
0.331919
0.331866
0.331766
0.331582
0.331255
0.355719
0.356056
0.356246
0.356351
0.356407
0.356436
0.356451
0.35646
0.356464
0.356467
0.356469
0.35647
0.356471
0.356472
0.356472
0.356473
0.356474
0.356474
0.356474
0.356475
0.356475
0.356476
0.356476
0.356476
0.356476
0.356477
0.356477
0.356477
0.356477
0.356477
0.356477
0.356477
0.356477
0.356477
0.356477
0.356476
0.356476
0.356476
0.356476
0.356475
0.356475
0.356474
0.356474
0.356474
0.356473
0.356472
0.356472
0.356471
0.35647
0.356469
0.356467
0.356464
0.35646
0.356451
0.356436
0.356407
0.356351
0.356246
0.356056
0.355719
0.379743
0.380088
0.380285
0.380394
0.380453
0.380484
0.3805
0.380509
0.380514
0.380517
0.380519
0.38052
0.380521
0.380522
0.380522
0.380523
0.380523
0.380524
0.380524
0.380525
0.380525
0.380525
0.380526
0.380526
0.380526
0.380526
0.380527
0.380527
0.380527
0.380527
0.380527
0.380527
0.380527
0.380527
0.380526
0.380526
0.380526
0.380526
0.380525
0.380525
0.380525
0.380524
0.380524
0.380523
0.380523
0.380522
0.380522
0.380521
0.38052
0.380519
0.380517
0.380514
0.380509
0.3805
0.380484
0.380453
0.380394
0.380285
0.380088
0.379743
0.403309
0.403661
0.403864
0.403978
0.404039
0.404072
0.404089
0.404099
0.404104
0.404107
0.404109
0.40411
0.404111
0.404112
0.404113
0.404113
0.404114
0.404114
0.404115
0.404115
0.404115
0.404116
0.404116
0.404116
0.404117
0.404117
0.404117
0.404117
0.404117
0.404117
0.404117
0.404117
0.404117
0.404117
0.404117
0.404117
0.404116
0.404116
0.404116
0.404115
0.404115
0.404115
0.404114
0.404114
0.404113
0.404113
0.404112
0.404111
0.40411
0.404109
0.404107
0.404104
0.404099
0.404089
0.404072
0.404039
0.403978
0.403864
0.403661
0.403309
0.426401
0.426758
0.426967
0.427085
0.427149
0.427184
0.427202
0.427213
0.427218
0.427221
0.427223
0.427225
0.427226
0.427227
0.427227
0.427228
0.427228
0.427229
0.427229
0.427229
0.42723
0.42723
0.42723
0.427231
0.427231
0.427231
0.427231
0.427231
0.427231
0.427231
0.427231
0.427231
0.427231
0.427231
0.427231
0.427231
0.427231
0.42723
0.42723
0.42723
0.427229
0.427229
0.427229
0.427228
0.427228
0.427227
0.427227
0.427226
0.427225
0.427223
0.427221
0.427218
0.427213
0.427202
0.427184
0.427149
0.427085
0.426967
0.426758
0.426401
0.449002
0.449365
0.449579
0.449701
0.449768
0.449805
0.449824
0.449835
0.449841
0.449844
0.449847
0.449848
0.449849
0.44985
0.44985
0.449851
0.449851
0.449852
0.449852
0.449853
0.449853
0.449853
0.449853
0.449854
0.449854
0.449854
0.449854
0.449854
0.449854
0.449854
0.449854
0.449854
0.449854
0.449854
0.449854
0.449854
0.449854
0.449853
0.449853
0.449853
0.449853
0.449852
0.449852
0.449851
0.449851
0.44985
0.44985
0.449849
0.449848
0.449847
0.449844
0.449841
0.449835
0.449824
0.449805
0.449768
0.449701
0.449579
0.449365
0.449002
0.471101
0.471468
0.471687
0.471813
0.471882
0.471921
0.471942
0.471953
0.471959
0.471963
0.471965
0.471967
0.471968
0.471968
0.471969
0.47197
0.47197
0.47197
0.471971
0.471971
0.471971
0.471972
0.471972
0.471972
0.471972
0.471973
0.471973
0.471973
0.471973
0.471973
0.471973
0.471973
0.471973
0.471973
0.471973
0.471972
0.471972
0.471972
0.471972
0.471971
0.471971
0.471971
0.47197
0.47197
0.47197
0.471969
0.471968
0.471968
0.471967
0.471965
0.471963
0.471959
0.471953
0.471942
0.471921
0.471882
0.471813
0.471687
0.471468
0.471101
0.492685
0.493055
0.493278
0.493408
0.49348
0.49352
0.493542
0.493554
0.493561
0.493565
0.493567
0.493569
0.49357
0.493571
0.493571
0.493572
0.493572
0.493573
0.493573
0.493573
0.493574
0.493574
0.493574
0.493574
0.493575
0.493575
0.493575
0.493575
0.493575
0.493575
0.493575
0.493575
0.493575
0.493575
0.493575
0.493575
0.493574
0.493574
0.493574
0.493574
0.493573
0.493573
0.493573
0.493572
0.493572
0.493571
0.493571
0.49357
0.493569
0.493567
0.493565
0.493561
0.493554
0.493542
0.49352
0.49348
0.493408
0.493278
0.493055
0.492685
0.513744
0.514116
0.514343
0.514476
0.514552
0.514593
0.514617
0.514629
0.514637
0.514641
0.514643
0.514645
0.514646
0.514647
0.514647
0.514648
0.514648
0.514649
0.514649
0.514649
0.51465
0.51465
0.51465
0.51465
0.51465
0.514651
0.514651
0.514651
0.514651
0.514651
0.514651
0.514651
0.514651
0.514651
0.514651
0.51465
0.51465
0.51465
0.51465
0.51465
0.514649
0.514649
0.514649
0.514648
0.514648
0.514647
0.514647
0.514646
0.514645
0.514643
0.514641
0.514637
0.514629
0.514617
0.514593
0.514552
0.514476
0.514343
0.514116
0.513744
0.53427
0.534643
0.534874
0.53501
0.535088
0.535132
0.535156
0.53517
0.535177
0.535182
0.535184
0.535186
0.535187
0.535188
0.535189
0.535189
0.535189
0.53519
0.53519
0.53519
0.535191
0.535191
0.535191
0.535191
0.535191
0.535192
0.535192
0.535192
0.535192
0.535192
0.535192
0.535192
0.535192
0.535192
0.535192
0.535191
0.535191
0.535191
0.535191
0.535191
0.53519
0.53519
0.53519
0.535189
0.535189
0.535189
0.535188
0.535187
0.535186
0.535184
0.535182
0.535177
0.53517
0.535156
0.535132
0.535088
0.53501
0.534874
0.534643
0.53427
0.554255
0.554629
0.554863
0.555002
0.555083
0.555129
0.555154
0.555168
0.555177
0.555181
0.555184
0.555186
0.555187
0.555188
0.555188
0.555189
0.555189
0.55519
0.55519
0.55519
0.55519
0.555191
0.555191
0.555191
0.555191
0.555191
0.555191
0.555191
0.555191
0.555191
0.555191
0.555191
0.555191
0.555191
0.555191
0.555191
0.555191
0.555191
0.555191
0.55519
0.55519
0.55519
0.55519
0.555189
0.555189
0.555188
0.555188
0.555187
0.555186
0.555184
0.555181
0.555177
0.555168
0.555154
0.555129
0.555083
0.555002
0.554863
0.554629
0.554255
0.573696
0.574069
0.574306
0.574448
0.574531
0.574578
0.574605
0.574621
0.574629
0.574634
0.574637
0.574639
0.57464
0.574641
0.574641
0.574642
0.574642
0.574643
0.574643
0.574643
0.574643
0.574644
0.574644
0.574644
0.574644
0.574644
0.574644
0.574644
0.574644
0.574644
0.574644
0.574644
0.574644
0.574644
0.574644
0.574644
0.574644
0.574644
0.574644
0.574643
0.574643
0.574643
0.574643
0.574642
0.574642
0.574641
0.574641
0.57464
0.574639
0.574637
0.574634
0.574629
0.574621