/*--------------------------------*- C++ -*----------------------------------*\
| =========                 |                                                 |
| \\      /  F ield         | foam-extend: Open Source CFD                    |
|  \\    /   O peration     | Version:     4.0                                |
|   \\  /    A nd           | Web:         http://www.foam-extend.org         |
|    \\/     M anipulation  |                                                 |
\*---------------------------------------------------------------------------*/
FoamFile
{
    version     2.0;
    format      ascii;
    class       volScalarField;
    location    "520";
    object      cPlus;
}
// * * * * * * * * * * * * * * * * * * * * * * * * * * * * * * * * * * * * * //

dimensions      [0 0 0 0 0 0 0];

internalField   nonuniform List<scalar> 
6960
(
0.197049
0.196968
0.196917
0.19689
0.196876
0.19687
0.196866
0.196865
0.196864
0.196863
0.196863
0.196863
0.196863
0.196863
0.196863
0.196863
0.196863
0.196863
0.196863
0.196863
0.196863
0.196863
0.196863
0.196863
0.196863
0.196863
0.196863
0.196863
0.196863
0.196863
0.196863
0.196863
0.196863
0.196863
0.196863
0.196863
0.196863
0.196863
0.196863
0.196863
0.196863
0.196863
0.196863
0.196863
0.196863
0.196863
0.196863
0.196863
0.196863
0.196863
0.196863
0.196864
0.196865
0.196866
0.19687
0.196876
0.19689
0.196917
0.196968
0.197049
0.0477839
0.0477655
0.0477527
0.0477458
0.0477423
0.0477405
0.0477397
0.0477392
0.047739
0.0477389
0.0477389
0.0477389
0.0477389
0.0477389
0.0477389
0.0477389
0.0477389
0.0477389
0.047739
0.047739
0.047739
0.047739
0.047739
0.047739
0.047739
0.047739
0.047739
0.047739
0.0477391
0.0477391
0.0477391
0.0477391
0.047739
0.047739
0.047739
0.047739
0.047739
0.047739
0.047739
0.047739
0.047739
0.047739
0.0477389
0.0477389
0.0477389
0.0477389
0.0477389
0.0477389
0.0477389
0.0477389
0.0477389
0.047739
0.0477392
0.0477397
0.0477405
0.0477423
0.0477458
0.0477527
0.0477655
0.0477839
0.0253332
0.0253379
0.0253395
0.0253402
0.0253405
0.0253407
0.0253407
0.0253408
0.0253408
0.0253409
0.0253409
0.0253409
0.0253409
0.025341
0.025341
0.025341
0.025341
0.0253411
0.0253411
0.0253411
0.0253411
0.0253411
0.0253411
0.0253412
0.0253412
0.0253412
0.0253412
0.0253412
0.0253412
0.0253412
0.0253412
0.0253412
0.0253412
0.0253412
0.0253412
0.0253412
0.0253412
0.0253411
0.0253411
0.0253411
0.0253411
0.0253411
0.0253411
0.025341
0.025341
0.025341
0.025341
0.0253409
0.0253409
0.0253409
0.0253409
0.0253408
0.0253408
0.0253407
0.0253407
0.0253405
0.0253402
0.0253395
0.0253379
0.0253332
0.022089
0.0220999
0.0221054
0.0221081
0.0221095
0.0221101
0.0221105
0.0221106
0.0221107
0.0221108
0.0221109
0.0221109
0.0221109
0.022111
0.022111
0.022111
0.0221111
0.0221111
0.0221111
0.0221111
0.0221111
0.0221112
0.0221112
0.0221112
0.0221112
0.0221112
0.0221112
0.0221112
0.0221112
0.0221112
0.0221112
0.0221112
0.0221112
0.0221112
0.0221112
0.0221112
0.0221112
0.0221112
0.0221112
0.0221111
0.0221111
0.0221111
0.0221111
0.0221111
0.022111
0.022111
0.022111
0.0221109
0.0221109
0.0221109
0.0221108
0.0221107
0.0221106
0.0221105
0.0221101
0.0221095
0.0221081
0.0221054
0.0220999
0.022089
0.0219091
0.0219216
0.0219281
0.0219314
0.021933
0.0219338
0.0219342
0.0219344
0.0219345
0.0219346
0.0219347
0.0219347
0.0219348
0.0219348
0.0219348
0.0219348
0.0219349
0.0219349
0.0219349
0.0219349
0.021935
0.021935
0.021935
0.021935
0.021935
0.021935
0.021935
0.021935
0.021935
0.021935
0.021935
0.021935
0.021935
0.021935
0.021935
0.021935
0.021935
0.021935
0.021935
0.021935
0.0219349
0.0219349
0.0219349
0.0219349
0.0219348
0.0219348
0.0219348
0.0219348
0.0219347
0.0219347
0.0219346
0.0219345
0.0219344
0.0219342
0.0219338
0.021933
0.0219314
0.0219281
0.0219216
0.0219091
0.022232
0.0222452
0.022252
0.0222555
0.0222572
0.0222581
0.0222585
0.0222587
0.0222588
0.0222589
0.022259
0.022259
0.0222591
0.0222591
0.0222591
0.0222592
0.0222592
0.0222592
0.0222592
0.0222593
0.0222593
0.0222593
0.0222593
0.0222593
0.0222593
0.0222593
0.0222594
0.0222594
0.0222594
0.0222594
0.0222594
0.0222594
0.0222594
0.0222594
0.0222593
0.0222593
0.0222593
0.0222593
0.0222593
0.0222593
0.0222593
0.0222592
0.0222592
0.0222592
0.0222592
0.0222591
0.0222591
0.0222591
0.022259
0.022259
0.0222589
0.0222588
0.0222587
0.0222585
0.0222581
0.0222572
0.0222555
0.022252
0.0222452
0.022232
0.0226638
0.0226775
0.0226846
0.0226882
0.0226899
0.0226908
0.0226913
0.0226915
0.0226916
0.0226917
0.0226918
0.0226918
0.0226919
0.0226919
0.0226919
0.022692
0.022692
0.022692
0.022692
0.0226921
0.0226921
0.0226921
0.0226921
0.0226921
0.0226922
0.0226922
0.0226922
0.0226922
0.0226922
0.0226922
0.0226922
0.0226922
0.0226922
0.0226922
0.0226922
0.0226922
0.0226921
0.0226921
0.0226921
0.0226921
0.0226921
0.022692
0.022692
0.022692
0.022692
0.0226919
0.0226919
0.0226919
0.0226918
0.0226918
0.0226917
0.0226916
0.0226915
0.0226913
0.0226908
0.0226899
0.0226882
0.0226846
0.0226775
0.0226638
0.0231501
0.0231644
0.0231717
0.0231755
0.0231773
0.0231782
0.0231787
0.0231789
0.0231791
0.0231792
0.0231792
0.0231793
0.0231793
0.0231794
0.0231794
0.0231794
0.0231795
0.0231795
0.0231795
0.0231795
0.0231796
0.0231796
0.0231796
0.0231796
0.0231796
0.0231796
0.0231796
0.0231797
0.0231797
0.0231797
0.0231797
0.0231797
0.0231797
0.0231796
0.0231796
0.0231796
0.0231796
0.0231796
0.0231796
0.0231796
0.0231795
0.0231795
0.0231795
0.0231795
0.0231794
0.0231794
0.0231794
0.0231793
0.0231793
0.0231792
0.0231792
0.0231791
0.0231789
0.0231787
0.0231782
0.0231773
0.0231755
0.0231717
0.0231644
0.0231501
0.0236893
0.0237041
0.0237117
0.0237156
0.0237176
0.0237185
0.023719
0.0237193
0.0237194
0.0237195
0.0237196
0.0237196
0.0237197
0.0237197
0.0237197
0.0237198
0.0237198
0.0237198
0.0237199
0.0237199
0.0237199
0.0237199
0.0237199
0.02372
0.02372
0.02372
0.02372
0.02372
0.02372
0.02372
0.02372
0.02372
0.02372
0.02372
0.02372
0.02372
0.02372
0.0237199
0.0237199
0.0237199
0.0237199
0.0237199
0.0237198
0.0237198
0.0237198
0.0237197
0.0237197
0.0237197
0.0237196
0.0237196
0.0237195
0.0237194
0.0237193
0.023719
0.0237185
0.0237176
0.0237156
0.0237117
0.0237041
0.0236893
0.0242883
0.0243037
0.0243117
0.0243158
0.0243178
0.0243188
0.0243193
0.0243196
0.0243197
0.0243198
0.0243199
0.02432
0.02432
0.02432
0.0243201
0.0243201
0.0243202
0.0243202
0.0243202
0.0243202
0.0243203
0.0243203
0.0243203
0.0243203
0.0243203
0.0243203
0.0243204
0.0243204
0.0243204
0.0243204
0.0243204
0.0243204
0.0243204
0.0243204
0.0243203
0.0243203
0.0243203
0.0243203
0.0243203
0.0243203
0.0243202
0.0243202
0.0243202
0.0243202
0.0243201
0.0243201
0.02432
0.02432
0.02432
0.0243199
0.0243198
0.0243197
0.0243196
0.0243193
0.0243188
0.0243178
0.0243158
0.0243117
0.0243037
0.0242883
0.0249573
0.0249735
0.0249819
0.0249862
0.0249883
0.0249893
0.0249899
0.0249901
0.0249903
0.0249904
0.0249905
0.0249905
0.0249906
0.0249906
0.0249907
0.0249907
0.0249907
0.0249908
0.0249908
0.0249908
0.0249909
0.0249909
0.0249909
0.0249909
0.0249909
0.0249909
0.024991
0.024991
0.024991
0.024991
0.024991
0.024991
0.024991
0.024991
0.0249909
0.0249909
0.0249909
0.0249909
0.0249909
0.0249909
0.0249908
0.0249908
0.0249908
0.0249907
0.0249907
0.0249907
0.0249906
0.0249906
0.0249905
0.0249905
0.0249904
0.0249903
0.0249901
0.0249899
0.0249893
0.0249883
0.0249862
0.0249819
0.0249735
0.0249573
0.0257093
0.0257264
0.0257352
0.0257397
0.025742
0.0257431
0.0257436
0.0257439
0.0257441
0.0257442
0.0257443
0.0257443
0.0257444
0.0257444
0.0257445
0.0257445
0.0257446
0.0257446
0.0257446
0.0257447
0.0257447
0.0257447
0.0257447
0.0257448
0.0257448
0.0257448
0.0257448
0.0257448
0.0257448
0.0257448
0.0257448
0.0257448
0.0257448
0.0257448
0.0257448
0.0257448
0.0257448
0.0257447
0.0257447
0.0257447
0.0257447
0.0257446
0.0257446
0.0257446
0.0257445
0.0257445
0.0257444
0.0257444
0.0257443
0.0257443
0.0257442
0.0257441
0.0257439
0.0257436
0.0257431
0.025742
0.0257397
0.0257352
0.0257264
0.0257093
0.0265609
0.026579
0.0265883
0.0265931
0.0265955
0.0265966
0.0265972
0.0265975
0.0265977
0.0265978
0.0265979
0.026598
0.026598
0.0265981
0.0265981
0.0265982
0.0265982
0.0265983
0.0265983
0.0265983
0.0265984
0.0265984
0.0265984
0.0265984
0.0265984
0.0265985
0.0265985
0.0265985
0.0265985
0.0265985
0.0265985
0.0265985
0.0265985
0.0265985
0.0265985
0.0265984
0.0265984
0.0265984
0.0265984
0.0265984
0.0265983
0.0265983
0.0265983
0.0265982
0.0265982
0.0265981
0.0265981
0.026598
0.026598
0.0265979
0.0265978
0.0265977
0.0265975
0.0265972
0.0265966
0.0265955
0.0265931
0.0265883
0.026579
0.0265609
0.0275333
0.0275527
0.0275626
0.0275677
0.0275703
0.0275715
0.0275722
0.0275725
0.0275727
0.0275728
0.0275729
0.027573
0.027573
0.0275731
0.0275731
0.0275732
0.0275732
0.0275733
0.0275733
0.0275733
0.0275734
0.0275734
0.0275734
0.0275734
0.0275735
0.0275735
0.0275735
0.0275735
0.0275735
0.0275735
0.0275735
0.0275735
0.0275735
0.0275735
0.0275735
0.0275735
0.0275734
0.0275734
0.0275734
0.0275734
0.0275733
0.0275733
0.0275733
0.0275732
0.0275732
0.0275731
0.0275731
0.027573
0.027573
0.0275729
0.0275728
0.0275727
0.0275725
0.0275722
0.0275715
0.0275703
0.0275677
0.0275626
0.0275527
0.0275333
0.0286551
0.0286758
0.0286866
0.028692
0.0286948
0.0286961
0.0286968
0.0286972
0.0286974
0.0286975
0.0286976
0.0286977
0.0286978
0.0286978
0.0286979
0.0286979
0.028698
0.028698
0.0286981
0.0286981
0.0286981
0.0286982
0.0286982
0.0286982
0.0286982
0.0286983
0.0286983
0.0286983
0.0286983
0.0286983
0.0286983
0.0286983
0.0286983
0.0286983
0.0286983
0.0286982
0.0286982
0.0286982
0.0286982
0.0286981
0.0286981
0.0286981
0.028698
0.028698
0.0286979
0.0286979
0.0286978
0.0286978
0.0286977
0.0286976
0.0286975
0.0286974
0.0286972
0.0286968
0.0286961
0.0286948
0.028692
0.0286866
0.0286758
0.0286551
0.0299642
0.0299868
0.0299984
0.0300044
0.0300074
0.0300089
0.0300096
0.03001
0.0300102
0.0300104
0.0300105
0.0300106
0.0300106
0.0300107
0.0300108
0.0300108
0.0300109
0.0300109
0.030011
0.030011
0.030011
0.0300111
0.0300111
0.0300111
0.0300112
0.0300112
0.0300112
0.0300112
0.0300112
0.0300112
0.0300112
0.0300112
0.0300112
0.0300112
0.0300112
0.0300112
0.0300111
0.0300111
0.0300111
0.030011
0.030011
0.030011
0.0300109
0.0300109
0.0300108
0.0300108
0.0300107
0.0300106
0.0300106
0.0300105
0.0300104
0.0300102
0.03001
0.0300096
0.0300089
0.0300074
0.0300044
0.0299984
0.0299868
0.0299642
0.0315137
0.0315386
0.0315514
0.0315579
0.0315612
0.0315628
0.0315637
0.0315641
0.0315643
0.0315645
0.0315646
0.0315647
0.0315648
0.0315649
0.0315649
0.031565
0.0315651
0.0315651
0.0315652
0.0315652
0.0315653
0.0315653
0.0315653
0.0315654
0.0315654
0.0315654
0.0315654
0.0315654
0.0315654
0.0315654
0.0315654
0.0315654
0.0315654
0.0315654
0.0315654
0.0315654
0.0315654
0.0315653
0.0315653
0.0315653
0.0315652
0.0315652
0.0315651
0.0315651
0.031565
0.0315649
0.0315649
0.0315648
0.0315647
0.0315646
0.0315645
0.0315643
0.0315641
0.0315637
0.0315628
0.0315612
0.0315579
0.0315514
0.0315386
0.0315137
0.0333791
0.0334068
0.0334211
0.0334284
0.0334321
0.0334339
0.0334348
0.0334353
0.0334356
0.0334358
0.0334359
0.033436
0.0334361
0.0334362
0.0334363
0.0334363
0.0334364
0.0334365
0.0334365
0.0334366
0.0334366
0.0334367
0.0334367
0.0334367
0.0334368
0.0334368
0.0334368
0.0334368
0.0334368
0.0334368
0.0334368
0.0334368
0.0334368
0.0334368
0.0334368
0.0334368
0.0334367
0.0334367
0.0334367
0.0334366
0.0334366
0.0334365
0.0334365
0.0334364
0.0334363
0.0334363
0.0334362
0.0334361
0.033436
0.0334359
0.0334358
0.0334356
0.0334353
0.0334348
0.0334339
0.0334321
0.0334284
0.0334211
0.0334068
0.0333791
0.0356713
0.0357028
0.0357191
0.0357274
0.0357316
0.0357337
0.0357348
0.0357353
0.0357356
0.0357359
0.035736
0.0357361
0.0357362
0.0357363
0.0357364
0.0357365
0.0357366
0.0357367
0.0357367
0.0357368
0.0357368
0.0357369
0.0357369
0.035737
0.035737
0.035737
0.0357371
0.0357371
0.0357371
0.0357371
0.0357371
0.0357371
0.0357371
0.0357371
0.035737
0.035737
0.035737
0.0357369
0.0357369
0.0357368
0.0357368
0.0357367
0.0357367
0.0357366
0.0357365
0.0357364
0.0357363
0.0357362
0.0357361
0.035736
0.0357359
0.0357356
0.0357353
0.0357348
0.0357337
0.0357316
0.0357274
0.0357191
0.0357028
0.0356713
0.0385589
0.0385955
0.0386145
0.0386243
0.0386292
0.0386317
0.0386329
0.0386336
0.0386339
0.0386342
0.0386344
0.0386345
0.0386346
0.0386348
0.0386349
0.038635
0.0386351
0.0386351
0.0386352
0.0386353
0.0386354
0.0386354
0.0386355
0.0386355
0.0386356
0.0386356
0.0386356
0.0386356
0.0386357
0.0386357
0.0386357
0.0386357
0.0386356
0.0386356
0.0386356
0.0386356
0.0386355
0.0386355
0.0386354
0.0386354
0.0386353
0.0386352
0.0386351
0.0386351
0.038635
0.0386349
0.0386348
0.0386346
0.0386345
0.0386344
0.0386342
0.0386339
0.0386336
0.0386329
0.0386317
0.0386292
0.0386243
0.0386145
0.0385955
0.0385589
0.0423014
0.0423454
0.0423683
0.0423801
0.042386
0.0423889
0.0423904
0.0423912
0.0423917
0.042392
0.0423922
0.0423924
0.0423926
0.0423927
0.0423928
0.0423929
0.0423931
0.0423932
0.0423933
0.0423934
0.0423934
0.0423935
0.0423936
0.0423936
0.0423937
0.0423937
0.0423938
0.0423938
0.0423938
0.0423938
0.0423938
0.0423938
0.0423938
0.0423938
0.0423937
0.0423937
0.0423936
0.0423936
0.0423935
0.0423934
0.0423934
0.0423933
0.0423932
0.0423931
0.0423929
0.0423928
0.0423927
0.0423926
0.0423924
0.0423922
0.042392
0.0423917
0.0423912
0.0423904
0.0423889
0.042386
0.0423801
0.0423683
0.0423454
0.0423014
0.0472933
0.0473478
0.0473763
0.047391
0.0473983
0.047402
0.0474039
0.0474049
0.0474055
0.0474058
0.0474061
0.0474063
0.0474065
0.0474067
0.0474069
0.047407
0.0474072
0.0474073
0.0474074
0.0474076
0.0474077
0.0474078
0.0474079
0.0474079
0.047408
0.047408
0.0474081
0.0474081
0.0474081
0.0474082
0.0474082
0.0474081
0.0474081
0.0474081
0.047408
0.047408
0.0474079
0.0474079
0.0474078
0.0474077
0.0474076
0.0474074
0.0474073
0.0474072
0.047407
0.0474069
0.0474067
0.0474065
0.0474063
0.0474061
0.0474058
0.0474055
0.0474049
0.0474039
0.047402
0.0473983
0.047391
0.0473763
0.0473478
0.0472933
0.0540936
0.0541631
0.0541996
0.0542184
0.0542279
0.0542326
0.054235
0.0542363
0.054237
0.0542375
0.0542379
0.0542382
0.0542384
0.0542387
0.0542389
0.0542391
0.0542393
0.0542395
0.0542396
0.0542398
0.0542399
0.05424
0.0542401
0.0542402
0.0542403
0.0542404
0.0542404
0.0542405
0.0542405
0.0542405
0.0542405
0.0542405
0.0542405
0.0542404
0.0542404
0.0542403
0.0542402
0.0542401
0.05424
0.0542399
0.0542398
0.0542396
0.0542395
0.0542393
0.0542391
0.0542389
0.0542387
0.0542384
0.0542382
0.0542379
0.0542375
0.054237
0.0542363
0.054235
0.0542326
0.0542279
0.0542184
0.0541996
0.0541631
0.0540936
0.0633881
0.0634779
0.0635254
0.0635499
0.0635622
0.0635684
0.0635715
0.0635732
0.0635742
0.0635748
0.0635753
0.0635757
0.063576
0.0635763
0.0635766
0.0635769
0.0635771
0.0635773
0.0635775
0.0635777
0.0635779
0.0635781
0.0635782
0.0635784
0.0635785
0.0635786
0.0635786
0.0635787
0.0635787
0.0635787
0.0635787
0.0635787
0.0635787
0.0635786
0.0635786
0.0635785
0.0635784
0.0635782
0.0635781
0.0635779
0.0635777
0.0635775
0.0635773
0.0635771
0.0635769
0.0635766
0.0635763
0.063576
0.0635757
0.0635753
0.0635748
0.0635742
0.0635732
0.0635715
0.0635684
0.0635622
0.0635499
0.0635254
0.0634779
0.0633881
0.0758224
0.075938
0.0759991
0.0760308
0.0760467
0.0760547
0.0760588
0.076061
0.0760623
0.0760631
0.0760637
0.0760642
0.0760646
0.076065
0.0760654
0.0760657
0.076066
0.0760663
0.0760666
0.0760668
0.076067
0.0760672
0.0760674
0.0760676
0.0760677
0.0760678
0.0760679
0.076068
0.0760681
0.0760681
0.0760681
0.0760681
0.076068
0.0760679
0.0760678
0.0760677
0.0760676
0.0760674
0.0760672
0.076067
0.0760668
0.0760666
0.0760663
0.076066
0.0760657
0.0760654
0.076065
0.0760646
0.0760642
0.0760637
0.0760631
0.0760623
0.076061
0.0760588
0.0760547
0.0760467
0.0760308
0.0759991
0.075938
0.0758224
0.0917342
0.0918787
0.0919554
0.0919951
0.0920152
0.0920253
0.0920304
0.0920331
0.0920347
0.0920358
0.0920365
0.0920371
0.0920377
0.0920381
0.0920386
0.092039
0.0920394
0.0920397
0.09204
0.0920404
0.0920406
0.0920409
0.0920411
0.0920413
0.0920415
0.0920416
0.0920417
0.0920418
0.0920419
0.0920419
0.0920419
0.0920419
0.0920418
0.0920417
0.0920416
0.0920415
0.0920413
0.0920411
0.0920409
0.0920406
0.0920404
0.09204
0.0920397
0.0920394
0.092039
0.0920386
0.0920381
0.0920377
0.0920371
0.0920365
0.0920358
0.0920347
0.0920331
0.0920304
0.0920253
0.0920152
0.0919951
0.0919554
0.0918787
0.0917342
0.110951
0.111125
0.111218
0.111266
0.11129
0.111302
0.111308
0.111312
0.111314
0.111315
0.111316
0.111317
0.111317
0.111318
0.111318
0.111319
0.111319
0.11132
0.11132
0.11132
0.111321
0.111321
0.111321
0.111321
0.111322
0.111322
0.111322
0.111322
0.111322
0.111322
0.111322
0.111322
0.111322
0.111322
0.111322
0.111322
0.111321
0.111321
0.111321
0.111321
0.11132
0.11132
0.11132
0.111319
0.111319
0.111318
0.111318
0.111317
0.111317
0.111316
0.111315
0.111314
0.111312
0.111308
0.111302
0.11129
0.111266
0.111218
0.111125
0.110951
0.132838
0.133039
0.133146
0.133201
0.13323
0.133244
0.133251
0.133255
0.133257
0.133259
0.13326
0.133261
0.133261
0.133262
0.133262
0.133263
0.133264
0.133264
0.133264
0.133265
0.133265
0.133265
0.133266
0.133266
0.133266
0.133266
0.133267
0.133267
0.133267
0.133267
0.133267
0.133267
0.133267
0.133267
0.133266
0.133266
0.133266
0.133266
0.133265
0.133265
0.133265
0.133264
0.133264
0.133264
0.133263
0.133262
0.133262
0.133261
0.133261
0.13326
0.133259
0.133257
0.133255
0.133251
0.133244
0.13323
0.133201
0.133146
0.133039
0.132838
0.156556
0.15678
0.1569
0.156963
0.156995
0.157011
0.157019
0.157023
0.157026
0.157028
0.157029
0.15703
0.15703
0.157031
0.157032
0.157032
0.157033
0.157033
0.157034
0.157034
0.157034
0.157035
0.157035
0.157035
0.157036
0.157036
0.157036
0.157036
0.157036
0.157036
0.157036
0.157036
0.157036
0.157036
0.157036
0.157036
0.157035
0.157035
0.157035
0.157034
0.157034
0.157034
0.157033
0.157033
0.157032
0.157032
0.157031
0.15703
0.15703
0.157029
0.157028
0.157026
0.157023
0.157019
0.157011
0.156995
0.156963
0.1569
0.15678
0.156556
0.181342
0.181587
0.181718
0.181787
0.181822
0.18184
0.181849
0.181854
0.181857
0.181858
0.18186
0.181861
0.181861
0.181862
0.181863
0.181863
0.181864
0.181864
0.181865
0.181865
0.181866
0.181866
0.181866
0.181867
0.181867
0.181867
0.181867
0.181867
0.181867
0.181867
0.181867
0.181867
0.181867
0.181867
0.181867
0.181867
0.181867
0.181866
0.181866
0.181866
0.181865
0.181865
0.181864
0.181864
0.181863
0.181863
0.181862
0.181861
0.181861
0.18186
0.181858
0.181857
0.181854
0.181849
0.18184
0.181822
0.181787
0.181718
0.181587
0.181342
0.20664
0.206903
0.207044
0.207119
0.207157
0.207177
0.207187
0.207192
0.207195
0.207197
0.207198
0.207199
0.2072
0.207201
0.207201
0.207202
0.207202
0.207203
0.207203
0.207204
0.207204
0.207204
0.207205
0.207205
0.207205
0.207206
0.207206
0.207206
0.207206
0.207206
0.207206
0.207206
0.207206
0.207206
0.207206
0.207205
0.207205
0.207205
0.207204
0.207204
0.207204
0.207203
0.207203
0.207202
0.207202
0.207201
0.207201
0.2072
0.207199
0.207198
0.207197
0.207195
0.207192
0.207187
0.207177
0.207157
0.207119
0.207044
0.206903
0.20664
0.232098
0.232376
0.232527
0.232607
0.232648
0.232669
0.23268
0.232686
0.232689
0.232691
0.232692
0.232693
0.232694
0.232695
0.232695
0.232696
0.232697
0.232697
0.232698
0.232698
0.232698
0.232699
0.232699
0.232699
0.2327
0.2327
0.2327
0.2327
0.2327
0.2327
0.2327
0.2327
0.2327
0.2327
0.2327
0.2327
0.232699
0.232699
0.232699
0.232698
0.232698
0.232698
0.232697
0.232697
0.232696
0.232695
0.232695
0.232694
0.232693
0.232692
0.232691
0.232689
0.232686
0.23268
0.232669
0.232648
0.232607
0.232527
0.232376
0.232098
0.257503
0.257795
0.257955
0.25804
0.258084
0.258107
0.258118
0.258125
0.258128
0.25813
0.258132
0.258133
0.258134
0.258134
0.258135
0.258136
0.258136
0.258137
0.258137
0.258138
0.258138
0.258138
0.258139
0.258139
0.258139
0.258139
0.258139
0.25814
0.25814
0.25814
0.25814
0.25814
0.25814
0.258139
0.258139
0.258139
0.258139
0.258139
0.258138
0.258138
0.258138
0.258137
0.258137
0.258136
0.258136
0.258135
0.258134
0.258134
0.258133
0.258132
0.25813
0.258128
0.258125
0.258118
0.258107
0.258084
0.25804
0.257955
0.257795
0.257503
0.282728
0.283033
0.283201
0.283291
0.283338
0.283362
0.283375
0.283381
0.283385
0.283387
0.283389
0.28339
0.283391
0.283392
0.283392
0.283393
0.283394
0.283394
0.283395
0.283395
0.283395
0.283396
0.283396
0.283396
0.283397
0.283397
0.283397
0.283397
0.283397
0.283397
0.283397
0.283397
0.283397
0.283397
0.283397
0.283397
0.283396
0.283396
0.283396
0.283395
0.283395
0.283395
0.283394
0.283394
0.283393
0.283392
0.283392
0.283391
0.28339
0.283389
0.283387
0.283385
0.283381
0.283375
0.283362
0.283338
0.283291
0.283201
0.283033
0.282728
0.30769
0.308007
0.308182
0.308277
0.308327
0.308353
0.308367
0.308374
0.308378
0.30838
0.308382
0.308383
0.308384
0.308385
0.308385
0.308386
0.308386
0.308387
0.308387
0.308388
0.308388
0.308389
0.308389
0.308389
0.308389
0.30839
0.30839
0.30839
0.30839
0.30839
0.30839
0.30839
0.30839
0.30839
0.30839
0.308389
0.308389
0.308389
0.308389
0.308388
0.308388
0.308387
0.308387
0.308386
0.308386
0.308385
0.308385
0.308384
0.308383
0.308382
0.30838
0.308378
0.308374
0.308367
0.308353
0.308327
0.308277
0.308182
0.308007
0.30769
0.332332
0.332658
0.332842
0.332941
0.332994
0.333022
0.333036
0.333044
0.333048
0.333051
0.333053
0.333054
0.333055
0.333055
0.333056
0.333057
0.333057
0.333058
0.333058
0.333059
0.333059
0.333059
0.33306
0.33306
0.33306
0.33306
0.33306
0.333061
0.333061
0.333061
0.333061
0.333061
0.333061
0.33306
0.33306
0.33306
0.33306
0.33306
0.333059
0.333059
0.333059
0.333058
0.333058
0.333057
0.333057
0.333056
0.333055
0.333055
0.333054
0.333053
0.333051
0.333048
0.333044
0.333036
0.333022
0.332994
0.332941
0.332842
0.332658
0.332332
0.356609
0.356945
0.357135
0.357239
0.357295
0.357324
0.35734
0.357348
0.357353
0.357355
0.357357
0.357358
0.357359
0.35736
0.357361
0.357361
0.357362
0.357362
0.357363
0.357363
0.357363
0.357364
0.357364
0.357364
0.357365
0.357365
0.357365
0.357365
0.357365
0.357365
0.357365
0.357365
0.357365
0.357365
0.357365
0.357365
0.357364
0.357364
0.357364
0.357363
0.357363
0.357363
0.357362
0.357362
0.357361
0.357361
0.35736
0.357359
0.357358
0.357357
0.357355
0.357353
0.357348
0.35734
0.357324
0.357295
0.357239
0.357135
0.356945
0.356609
0.380486
0.38083
0.381027
0.381136
0.381195
0.381226
0.381242
0.381251
0.381256
0.381259
0.381261
0.381262
0.381263
0.381264
0.381264
0.381265
0.381266
0.381266
0.381266
0.381267
0.381267
0.381268
0.381268
0.381268
0.381268
0.381268
0.381269
0.381269
0.381269
0.381269
0.381269
0.381269
0.381269
0.381269
0.381268
0.381268
0.381268
0.381268
0.381268
0.381267
0.381267
0.381266
0.381266
0.381266
0.381265
0.381264
0.381264
0.381263
0.381262
0.381261
0.381259
0.381256
0.381251
0.381242
0.381226
0.381195
0.381136
0.381027
0.38083
0.380486
0.403936
0.404287
0.40449
0.404604
0.404665
0.404698
0.404715
0.404725
0.40473
0.404733
0.404735
0.404736
0.404737
0.404738
0.404739
0.404739
0.40474
0.40474
0.404741
0.404741
0.404741
0.404742
0.404742
0.404742
0.404742
0.404743
0.404743
0.404743
0.404743
0.404743
0.404743
0.404743
0.404743
0.404743
0.404743
0.404742
0.404742
0.404742
0.404742
0.404741
0.404741
0.404741
0.40474
0.40474
0.404739
0.404739
0.404738
0.404737
0.404736
0.404735
0.404733
0.40473
0.404725
0.404715
0.404698
0.404665
0.404604
0.40449
0.404287
0.403936
0.426934
0.427291
0.4275
0.427617
0.427682
0.427716
0.427735
0.427745
0.42775
0.427754
0.427756
0.427757
0.427758
0.427759
0.427759
0.42776
0.42776
0.427761
0.427761
0.427762
0.427762
0.427762
0.427763
0.427763
0.427763
0.427763
0.427763
0.427764
0.427764
0.427764
0.427764
0.427764
0.427764
0.427763
0.427763
0.427763
0.427763
0.427763
0.427762
0.427762
0.427762
0.427761
0.427761
0.42776
0.42776
0.427759
0.427759
0.427758
0.427757
0.427756
0.427754
0.42775
0.427745
0.427735
0.427716
0.427682
0.427617
0.4275
0.427291
0.426934
0.449459
0.449821
0.450035
0.450157
0.450224
0.450261
0.45028
0.450291
0.450297
0.4503
0.450303
0.450304
0.450305
0.450306
0.450306
0.450307
0.450307
0.450308
0.450308
0.450308
0.450309
0.450309
0.450309
0.45031
0.45031
0.45031
0.45031
0.45031
0.45031
0.45031
0.45031
0.45031
0.45031
0.45031
0.45031
0.45031
0.45031
0.450309
0.450309
0.450309
0.450308
0.450308
0.450308
0.450307
0.450307
0.450306
0.450306
0.450305
0.450304
0.450303
0.4503
0.450297
0.450291
0.45028
0.450261
0.450224
0.450157
0.450035
0.449821
0.449459
0.471494
0.471861
0.47208
0.472206
0.472275
0.472314
0.472334
0.472346
0.472352
0.472356
0.472358
0.47236
0.472361
0.472361
0.472362
0.472363
0.472363
0.472363
0.472364
0.472364
0.472364
0.472365
0.472365
0.472365
0.472365
0.472366
0.472366
0.472366
0.472366
0.472366
0.472366
0.472366
0.472366
0.472366
0.472366
0.472365
0.472365
0.472365
0.472365
0.472364
0.472364
0.472364
0.472363
0.472363
0.472363
0.472362
0.472361
0.472361
0.47236
0.472358
0.472356
0.472352
0.472346
0.472334
0.472314
0.472275
0.472206
0.47208
0.471861
0.471494
0.493026
0.493395
0.493619
0.493748
0.493821
0.493861
0.493883
0.493895
0.493902
0.493906
0.493908
0.49391
0.493911
0.493911
0.493912
0.493912
0.493913
0.493913
0.493914
0.493914
0.493914
0.493915
0.493915
0.493915
0.493915
0.493915
0.493915
0.493916
0.493916
0.493916
0.493916
0.493916
0.493916
0.493915
0.493915
0.493915
0.493915
0.493915
0.493915
0.493914
0.493914
0.493914
0.493913
0.493913
0.493912
0.493912
0.493911
0.493911
0.49391
0.493908
0.493906
0.493902
0.493895
0.493883
0.493861
0.493821
0.493748
0.493619
0.493395
0.493026
0.514041
0.514413
0.51464
0.514773
0.514848
0.51489
0.514913
0.514926
0.514933
0.514937
0.51494
0.514942
0.514943
0.514943
0.514944
0.514944
0.514945
0.514945
0.514946
0.514946
0.514946
0.514946
0.514947
0.514947
0.514947
0.514947
0.514947
0.514947
0.514947
0.514947
0.514947
0.514947
0.514947
0.514947
0.514947
0.514947
0.514947
0.514947
0.514946
0.514946
0.514946
0.514946
0.514945
0.514945
0.514944
0.514944
0.514943
0.514943
0.514942
0.51494
0.514937
0.514933
0.514926
0.514913
0.51489
0.514848
0.514773
0.51464
0.514413
0.514041
0.534529
0.534902
0.535133
0.535269
0.535347
0.535391
0.535416
0.535429
0.535437
0.535441
0.535444
0.535446
0.535447
0.535447
0.535448
0.535449
0.535449
0.535449
0.53545
0.53545
0.53545
0.53545
0.535451
0.535451
0.535451
0.535451
0.535451
0.535451
0.535451
0.535451
0.535451
0.535451
0.535451
0.535451
0.535451
0.535451
0.535451
0.535451
0.53545
0.53545
0.53545
0.53545
0.535449
0.535449
0.535449
0.535448
0.535447
0.535447
0.535446
0.535444
0.535441
0.535437
0.535429
0.535416
0.535391
0.535347
0.535269
0.535133
0.534902
0.534529
0.554483
0.554857
0.555091
0.55523
0.555311
0.555356
0.555382
0.555396
0.555405
0.555409
0.555412
0.555414
0.555415
0.555416
0.555416
0.555417
0.555417
0.555417
0.555418
0.555418
0.555418
0.555418
0.555419
0.555419
0.555419
0.555419
0.555419
0.555419
0.555419
0.555419
0.555419
0.555419
0.555419
0.555419
0.555419
0.555419
0.555419
0.555419
0.555418
0.555418
0.555418
0.555418
0.555417
0.555417
0.555417
0.555416
0.555416
0.555415
0.555414
0.555412
0.555409
0.555405
0.555396
0.555382
0.555356
0.555311
0.55523
0.555091
0.554857
0.554483
0.573897
0.57427
0.574507
0.574649
0.574732
0.574779
0.574806
0.574821
0.57483
0.574835
0.574838
0.57484
0.574841
0.574842
0.574842
0.574843
0.574843
0.574843
0.574844
0.574844
0.574844
0.574844
0.574845
0.574845
0.574845
0.574845
0.574845
0.574845
0.574845
0.574845
0.574845
0.574845
0.574845
0.574845
0.574845
0.574845
0.574845
0.574845
0.574844
0.574844
0.574844
0.574844
0.574843
0.574843
0.574843
0.574842
0.574842
0.574841
0.57484
0.574838
0.574835
0.57483
0.574821
0.574806
0.574779
0.574732
0.574649
0.574507
0.57427
0.573897
0.592766
0.593138
0.593376
0.593521
0.593606
0.593656
0.593684
0.5937
0.593709
0.593714
0.593717
0.593719
0.593721
0.593721
0.593722
0.593722
0.593723
0.593723
0.593723
0.593724
0.593724
0.593724
0.593724
0.593724
0.593724
0.593724
0.593724
0.593725
0.593725
0.593725
0.593725
0.593725
0.593725
0.593724
0.593724
0.593724
0.593724
0.593724
0.593724
0.593724
0.593724
0.593723
0.593723
0.593723
0.593722
0.593722
0.593721
0.593721
0.593719
0.593717
0.593714
0.593709
0.5937
0.593684
0.593656
0.593606
0.593521
0.593376
0.593138
0.592766
0.611086
0.611457
0.611696
0.611844
0.611932
0.611983
0.612012
0.612029
0.612039
0.612044
0.612048
0.61205
0.612051
0.612052
0.612052
0.612053
0.612053
0.612053
0.612054
0.612054
0.612054
0.612054
0.612054
0.612054
0.612054
0.612055
0.612055
0.612055
0.612055
0.612055
0.612055
0.612055
0.612055
0.612055
0.612055
0.612054
0.612054
0.612054
0.612054
0.612054
0.612054
0.612054
0.612053
0.612053
0.612053
0.612052
0.612052
0.612051
0.61205
0.612048
0.612044
0.612039
0.612029
0.612012
0.611983
0.611932
0.611844
0.611696
0.611457
0.611086
0.628858
0.629226
0.629467
0.629616
0.629706
0.629759
0.62979
0.629807
0.629818
0.629824
0.629827
0.629829
0.629831
0.629831
0.629832
0.629832
0.629833
0.629833
0.629833
0.629833
0.629834
0.629834
0.629834
0.629834
0.629834
0.629834
0.629834
0.629834
0.629834
0.629834
0.629834
0.629834
0.629834
0.629834
0.629834
0.629834
0.629834
0.629834
0.629834
0.629834
0.629833
0.629833
0.629833
0.629833
0.629832
0.629832
0.629831
0.629831
0.629829
0.629827
0.629824
0.629818
0.629807
0.62979
0.629759
0.629706
0.629616
0.629467
0.629226
0.628858
0.64608
0.646446
0.646687
0.646838
0.64693
0.646985
0.647017
0.647035
0.647046
0.647053
0.647056
0.647059
0.64706
0.647061
0.647061
0.647062
0.647062
0.647062
0.647062
0.647063
0.647063
0.647063
0.647063
0.647063
0.647063
0.647063
0.647063
0.647063
0.647063
0.647063
0.647063
0.647063
0.647063
0.647063
0.647063
0.647063
0.647063
0.647063
0.647063
0.647063
0.647063
0.647062
0.647062
0.647062
0.647062
0.647061
0.647061
0.64706
0.647059
0.647056
0.647053
0.647046
0.647035
0.647017
0.646985
0.64693
0.646838
0.646687
0.646446
0.64608
0.662755
0.663117
0.663358
0.663511
0.663605
0.663661
0.663695
0.663714
0.663726
0.663732
0.663736
0.663739
0.66374
0.663741
0.663742
0.663742
0.663742
0.663742
0.663743
0.663743
0.663743
0.663743
0.663743
0.663743
0.663743
0.663743
0.663743
0.663743
0.663743
0.663743
0.663743
0.663743
0.663743
0.663743
0.663743
0.663743
0.663743
0.663743
0.663743
0.663743
0.663743
0.663743
0.663742
0.663742
0.663742
0.663742
0.663741
0.66374
0.663739
0.663736
0.663732
0.663726
0.663714
0.663695
0.663661