/*--------------------------------*- C++ -*----------------------------------*\
| =========                 |                                                 |
| \\      /  F ield         | foam-extend: Open Source CFD                    |
|  \\    /   O peration     | Version:     4.0                                |
|   \\  /    A nd           | Web:         http://www.foam-extend.org         |
|    \\/     M anipulation  |                                                 |
\*---------------------------------------------------------------------------*/
FoamFile
{
    version     2.0;
    format      ascii;
    class       volScalarField;
    location    "1910";
    object      cMinus;
}
// * * * * * * * * * * * * * * * * * * * * * * * * * * * * * * * * * * * * * //

dimensions      [0 0 0 0 0 0 0];

internalField   nonuniform List<scalar> 
6960
(
1.54317e-23
1.54401e-23
1.54414e-23
1.54413e-23
1.54408e-23
1.54403e-23
1.54398e-23
1.54394e-23
1.54391e-23
1.54389e-23
1.54387e-23
1.54386e-23
1.54385e-23
1.54385e-23
1.54385e-23
1.54385e-23
1.54386e-23
1.54386e-23
1.54387e-23
1.54388e-23
1.54388e-23
1.54389e-23
1.5439e-23
1.5439e-23
1.54391e-23
1.54391e-23
1.54392e-23
1.54392e-23
1.54392e-23
1.54392e-23
1.54392e-23
1.54392e-23
1.54392e-23
1.54392e-23
1.54391e-23
1.54391e-23
1.5439e-23
1.5439e-23
1.54389e-23
1.54388e-23
1.54388e-23
1.54387e-23
1.54386e-23
1.54386e-23
1.54385e-23
1.54385e-23
1.54385e-23
1.54385e-23
1.54386e-23
1.54387e-23
1.54389e-23
1.54391e-23
1.54394e-23
1.54398e-23
1.54403e-23
1.54408e-23
1.54413e-23
1.54414e-23
1.54401e-23
1.54317e-23
4.57453e-23
4.57719e-23
4.57778e-23
4.57795e-23
4.57802e-23
4.57806e-23
4.5781e-23
4.57815e-23
4.57821e-23
4.57828e-23
4.57835e-23
4.57843e-23
4.57851e-23
4.57859e-23
4.57867e-23
4.57874e-23
4.57882e-23
4.57889e-23
4.57895e-23
4.57901e-23
4.57907e-23
4.57912e-23
4.57917e-23
4.57921e-23
4.57924e-23
4.57927e-23
4.57929e-23
4.57931e-23
4.57932e-23
4.57933e-23
4.57933e-23
4.57932e-23
4.57931e-23
4.57929e-23
4.57927e-23
4.57924e-23
4.57921e-23
4.57917e-23
4.57912e-23
4.57907e-23
4.57901e-23
4.57895e-23
4.57889e-23
4.57882e-23
4.57874e-23
4.57867e-23
4.57859e-23
4.57851e-23
4.57843e-23
4.57835e-23
4.57828e-23
4.57821e-23
4.57815e-23
4.5781e-23
4.57806e-23
4.57802e-23
4.57795e-23
4.57778e-23
4.57719e-23
4.57453e-23
1.19528e-22
1.19603e-22
1.19626e-22
1.19637e-22
1.19645e-22
1.19653e-22
1.1966e-22
1.19666e-22
1.19673e-22
1.19679e-22
1.19685e-22
1.1969e-22
1.19696e-22
1.197e-22
1.19705e-22
1.19709e-22
1.19713e-22
1.19717e-22
1.1972e-22
1.19723e-22
1.19725e-22
1.19728e-22
1.1973e-22
1.19732e-22
1.19733e-22
1.19734e-22
1.19735e-22
1.19736e-22
1.19736e-22
1.19737e-22
1.19737e-22
1.19736e-22
1.19736e-22
1.19735e-22
1.19734e-22
1.19733e-22
1.19732e-22
1.1973e-22
1.19728e-22
1.19725e-22
1.19723e-22
1.1972e-22
1.19717e-22
1.19713e-22
1.19709e-22
1.19705e-22
1.197e-22
1.19696e-22
1.1969e-22
1.19685e-22
1.19679e-22
1.19673e-22
1.19666e-22
1.1966e-22
1.19653e-22
1.19645e-22
1.19637e-22
1.19626e-22
1.19603e-22
1.19528e-22
3.01744e-22
3.01949e-22
3.02025e-22
3.02074e-22
3.02115e-22
3.02152e-22
3.02186e-22
3.02218e-22
3.02248e-22
3.02276e-22
3.02303e-22
3.02327e-22
3.02349e-22
3.0237e-22
3.02389e-22
3.02406e-22
3.02422e-22
3.02436e-22
3.02448e-22
3.02459e-22
3.02469e-22
3.02478e-22
3.02486e-22
3.02492e-22
3.02498e-22
3.02502e-22
3.02506e-22
3.02508e-22
3.0251e-22
3.02511e-22
3.02511e-22
3.0251e-22
3.02508e-22
3.02506e-22
3.02502e-22
3.02498e-22
3.02492e-22
3.02486e-22
3.02478e-22
3.02469e-22
3.02459e-22
3.02448e-22
3.02436e-22
3.02422e-22
3.02406e-22
3.02389e-22
3.0237e-22
3.02349e-22
3.02327e-22
3.02303e-22
3.02276e-22
3.02248e-22
3.02218e-22
3.02186e-22
3.02152e-22
3.02115e-22
3.02074e-22
3.02025e-22
3.01949e-22
3.01744e-22
7.61371e-22
7.61932e-22
7.62177e-22
7.62357e-22
7.62514e-22
7.62657e-22
7.6279e-22
7.62914e-22
7.63029e-22
7.63135e-22
7.63233e-22
7.63323e-22
7.63405e-22
7.6348e-22
7.63548e-22
7.63609e-22
7.63664e-22
7.63713e-22
7.63757e-22
7.63795e-22
7.6383e-22
7.63859e-22
7.63885e-22
7.63907e-22
7.63926e-22
7.63941e-22
7.63953e-22
7.63961e-22
7.63967e-22
7.6397e-22
7.6397e-22
7.63967e-22
7.63961e-22
7.63953e-22
7.63941e-22
7.63926e-22
7.63907e-22
7.63885e-22
7.63859e-22
7.6383e-22
7.63795e-22
7.63757e-22
7.63713e-22
7.63664e-22
7.63609e-22
7.63548e-22
7.6348e-22
7.63405e-22
7.63323e-22
7.63233e-22
7.63135e-22
7.63029e-22
7.62914e-22
7.6279e-22
7.62657e-22
7.62514e-22
7.62357e-22
7.62177e-22
7.61932e-22
7.61371e-22
1.94725e-21
1.9488e-21
1.94958e-21
1.95019e-21
1.95074e-21
1.95124e-21
1.9517e-21
1.95214e-21
1.95253e-21
1.9529e-21
1.95324e-21
1.95354e-21
1.95382e-21
1.95408e-21
1.9543e-21
1.95451e-21
1.95469e-21
1.95486e-21
1.955e-21
1.95513e-21
1.95524e-21
1.95534e-21
1.95542e-21
1.95549e-21
1.95555e-21
1.9556e-21
1.95564e-21
1.95567e-21
1.95569e-21
1.9557e-21
1.9557e-21
1.95569e-21
1.95567e-21
1.95564e-21
1.9556e-21
1.95555e-21
1.95549e-21
1.95542e-21
1.95534e-21
1.95524e-21
1.95513e-21
1.955e-21
1.95486e-21
1.95469e-21
1.95451e-21
1.9543e-21
1.95408e-21
1.95382e-21
1.95354e-21
1.95324e-21
1.9529e-21
1.95253e-21
1.95214e-21
1.9517e-21
1.95124e-21
1.95074e-21
1.95019e-21
1.94958e-21
1.9488e-21
1.94725e-21
5.0785e-21
5.08286e-21
5.08527e-21
5.08727e-21
5.08909e-21
5.09077e-21
5.09233e-21
5.09377e-21
5.0951e-21
5.09631e-21
5.09742e-21
5.09843e-21
5.09934e-21
5.10017e-21
5.10091e-21
5.10158e-21
5.10217e-21
5.1027e-21
5.10317e-21
5.10358e-21
5.10394e-21
5.10425e-21
5.10452e-21
5.10475e-21
5.10494e-21
5.1051e-21
5.10522e-21
5.10531e-21
5.10537e-21
5.1054e-21
5.1054e-21
5.10537e-21
5.10531e-21
5.10522e-21
5.1051e-21
5.10494e-21
5.10475e-21
5.10452e-21
5.10425e-21
5.10394e-21
5.10358e-21
5.10317e-21
5.1027e-21
5.10217e-21
5.10158e-21
5.10091e-21
5.10017e-21
5.09934e-21
5.09843e-21
5.09742e-21
5.09631e-21
5.0951e-21
5.09377e-21
5.09233e-21
5.09077e-21
5.08909e-21
5.08727e-21
5.08527e-21
5.08286e-21
5.0785e-21
1.35427e-20
1.35552e-20
1.35627e-20
1.35692e-20
1.35751e-20
1.35806e-20
1.35857e-20
1.35904e-20
1.35947e-20
1.35987e-20
1.36023e-20
1.36055e-20
1.36085e-20
1.36112e-20
1.36135e-20
1.36157e-20
1.36176e-20
1.36193e-20
1.36208e-20
1.36221e-20
1.36232e-20
1.36242e-20
1.36251e-20
1.36258e-20
1.36264e-20
1.36269e-20
1.36273e-20
1.36276e-20
1.36277e-20
1.36278e-20
1.36278e-20
1.36277e-20
1.36276e-20
1.36273e-20
1.36269e-20
1.36264e-20
1.36258e-20
1.36251e-20
1.36242e-20
1.36232e-20
1.36221e-20
1.36208e-20
1.36193e-20
1.36176e-20
1.36157e-20
1.36135e-20
1.36112e-20
1.36085e-20
1.36055e-20
1.36023e-20
1.35987e-20
1.35947e-20
1.35904e-20
1.35857e-20
1.35806e-20
1.35751e-20
1.35692e-20
1.35627e-20
1.35552e-20
1.35427e-20
3.69735e-20
3.70099e-20
3.70335e-20
3.70543e-20
3.70735e-20
3.70914e-20
3.71079e-20
3.71232e-20
3.71372e-20
3.71499e-20
3.71615e-20
3.71721e-20
3.71816e-20
3.71901e-20
3.71978e-20
3.72047e-20
3.72108e-20
3.72162e-20
3.72209e-20
3.72251e-20
3.72288e-20
3.72319e-20
3.72346e-20
3.72369e-20
3.72388e-20
3.72404e-20
3.72416e-20
3.72425e-20
3.72431e-20
3.72434e-20
3.72434e-20
3.72431e-20
3.72425e-20
3.72416e-20
3.72404e-20
3.72388e-20
3.72369e-20
3.72346e-20
3.72319e-20
3.72288e-20
3.72251e-20
3.72209e-20
3.72162e-20
3.72108e-20
3.72047e-20
3.71978e-20
3.71901e-20
3.71816e-20
3.71721e-20
3.71615e-20
3.71499e-20
3.71372e-20
3.71232e-20
3.71079e-20
3.70914e-20
3.70735e-20
3.70543e-20
3.70335e-20
3.70099e-20
3.69735e-20
1.03415e-19
1.03524e-19
1.03598e-19
1.03665e-19
1.03728e-19
1.03786e-19
1.0384e-19
1.03889e-19
1.03935e-19
1.03976e-19
1.04014e-19
1.04048e-19
1.04079e-19
1.04106e-19
1.04131e-19
1.04153e-19
1.04173e-19
1.0419e-19
1.04205e-19
1.04219e-19
1.0423e-19
1.04241e-19
1.04249e-19
1.04257e-19
1.04263e-19
1.04268e-19
1.04272e-19
1.04274e-19
1.04276e-19
1.04277e-19
1.04277e-19
1.04276e-19
1.04274e-19
1.04272e-19
1.04268e-19
1.04263e-19
1.04257e-19
1.04249e-19
1.04241e-19
1.0423e-19
1.04219e-19
1.04205e-19
1.0419e-19
1.04173e-19
1.04153e-19
1.04131e-19
1.04106e-19
1.04079e-19
1.04048e-19
1.04014e-19
1.03976e-19
1.03935e-19
1.03889e-19
1.0384e-19
1.03786e-19
1.03728e-19
1.03665e-19
1.03598e-19
1.03524e-19
1.03415e-19
2.96456e-19
2.96787e-19
2.97026e-19
2.97245e-19
2.97449e-19
2.9764e-19
2.97816e-19
2.97978e-19
2.98127e-19
2.98262e-19
2.98385e-19
2.98496e-19
2.98596e-19
2.98686e-19
2.98767e-19
2.98839e-19
2.98902e-19
2.98959e-19
2.99008e-19
2.99052e-19
2.9909e-19
2.99123e-19
2.99151e-19
2.99175e-19
2.99194e-19
2.9921e-19
2.99223e-19
2.99232e-19
2.99238e-19
2.99241e-19
2.99241e-19
2.99238e-19
2.99232e-19
2.99223e-19
2.9921e-19
2.99194e-19
2.99175e-19
2.99151e-19
2.99123e-19
2.9909e-19
2.99052e-19
2.99008e-19
2.98959e-19
2.98902e-19
2.98839e-19
2.98767e-19
2.98686e-19
2.98596e-19
2.98496e-19
2.98385e-19
2.98262e-19
2.98127e-19
2.97978e-19
2.97816e-19
2.9764e-19
2.97449e-19
2.97245e-19
2.97026e-19
2.96787e-19
2.96456e-19
8.7123e-19
8.72261e-19
8.73039e-19
8.73761e-19
8.74439e-19
8.7507e-19
8.75654e-19
8.76191e-19
8.76682e-19
8.7713e-19
8.77537e-19
8.77904e-19
8.78235e-19
8.78531e-19
8.78797e-19
8.79033e-19
8.79243e-19
8.79428e-19
8.79592e-19
8.79735e-19
8.79859e-19
8.79967e-19
8.80059e-19
8.80137e-19
8.80202e-19
8.80254e-19
8.80296e-19
8.80326e-19
8.80346e-19
8.80356e-19
8.80356e-19
8.80346e-19
8.80326e-19
8.80296e-19
8.80254e-19
8.80202e-19
8.80137e-19
8.80059e-19
8.79967e-19
8.79859e-19
8.79735e-19
8.79592e-19
8.79428e-19
8.79243e-19
8.79033e-19
8.78797e-19
8.78531e-19
8.78235e-19
8.77904e-19
8.77537e-19
8.7713e-19
8.76682e-19
8.76191e-19
8.75654e-19
8.7507e-19
8.74439e-19
8.73761e-19
8.73039e-19
8.72261e-19
8.7123e-19
2.62527e-18
2.62855e-18
2.63113e-18
2.63354e-18
2.63582e-18
2.63794e-18
2.6399e-18
2.64171e-18
2.64335e-18
2.64486e-18
2.64622e-18
2.64745e-18
2.64856e-18
2.64955e-18
2.65044e-18
2.65123e-18
2.65193e-18
2.65255e-18
2.6531e-18
2.65357e-18
2.65399e-18
2.65435e-18
2.65466e-18
2.65492e-18
2.65513e-18
2.65531e-18
2.65544e-18
2.65555e-18
2.65561e-18
2.65565e-18
2.65565e-18
2.65561e-18
2.65555e-18
2.65544e-18
2.65531e-18
2.65513e-18
2.65492e-18
2.65466e-18
2.65435e-18
2.65399e-18
2.65357e-18
2.6531e-18
2.65255e-18
2.65193e-18
2.65123e-18
2.65044e-18
2.64955e-18
2.64856e-18
2.64745e-18
2.64622e-18
2.64486e-18
2.64335e-18
2.64171e-18
2.6399e-18
2.63794e-18
2.63582e-18
2.63354e-18
2.63113e-18
2.62855e-18
2.62526e-18
8.11175e-18
8.12245e-18
8.13114e-18
8.13937e-18
8.14713e-18
8.15437e-18
8.16107e-18
8.16723e-18
8.17285e-18
8.17798e-18
8.18262e-18
8.18682e-18
8.19059e-18
8.19397e-18
8.19699e-18
8.19968e-18
8.20207e-18
8.20417e-18
8.20602e-18
8.20764e-18
8.20905e-18
8.21027e-18
8.21131e-18
8.21219e-18
8.21293e-18
8.21352e-18
8.21399e-18
8.21433e-18
8.21456e-18
8.21467e-18
8.21467e-18
8.21456e-18
8.21433e-18
8.21399e-18
8.21352e-18
8.21293e-18
8.21219e-18
8.21131e-18
8.21027e-18
8.20905e-18
8.20764e-18
8.20602e-18
8.20417e-18
8.20207e-18
8.19968e-18
8.19699e-18
8.19397e-18
8.19059e-18
8.18682e-18
8.18262e-18
8.17798e-18
8.17285e-18
8.16723e-18
8.16107e-18
8.15437e-18
8.14713e-18
8.13937e-18
8.13114e-18
8.12245e-18
8.11175e-18
2.57011e-17
2.57367e-17
2.57666e-17
2.57951e-17
2.5822e-17
2.58472e-17
2.58704e-17
2.58918e-17
2.59114e-17
2.59291e-17
2.59452e-17
2.59598e-17
2.59729e-17
2.59846e-17
2.59951e-17
2.60044e-17
2.60126e-17
2.60199e-17
2.60263e-17
2.60319e-17
2.60368e-17
2.6041e-17
2.60446e-17
2.60476e-17
2.60502e-17
2.60522e-17
2.60538e-17
2.6055e-17
2.60558e-17
2.60562e-17
2.60562e-17
2.60558e-17
2.6055e-17
2.60538e-17
2.60522e-17
2.60502e-17
2.60476e-17
2.60446e-17
2.6041e-17
2.60368e-17
2.60319e-17
2.60263e-17
2.60199e-17
2.60126e-17
2.60044e-17
2.59951e-17
2.59846e-17
2.59729e-17
2.59598e-17
2.59452e-17
2.59291e-17
2.59114e-17
2.58918e-17
2.58704e-17
2.58472e-17
2.5822e-17
2.57951e-17
2.57666e-17
2.57367e-17
2.57011e-17
8.34892e-17
8.36108e-17
8.37155e-17
8.38161e-17
8.39113e-17
8.40003e-17
8.40825e-17
8.41581e-17
8.42272e-17
8.429e-17
8.4347e-17
8.43983e-17
8.44445e-17
8.44859e-17
8.45228e-17
8.45557e-17
8.45848e-17
8.46105e-17
8.46331e-17
8.46528e-17
8.467e-17
8.46848e-17
8.46975e-17
8.47082e-17
8.47171e-17
8.47243e-17
8.47299e-17
8.47341e-17
8.47368e-17
8.47382e-17
8.47382e-17
8.47368e-17
8.47341e-17
8.47299e-17
8.47243e-17
8.47171e-17
8.47082e-17
8.46975e-17
8.46848e-17
8.467e-17
8.46528e-17
8.46331e-17
8.46105e-17
8.45848e-17
8.45557e-17
8.45228e-17
8.44859e-17
8.44445e-17
8.43983e-17
8.4347e-17
8.429e-17
8.42272e-17
8.41581e-17
8.40825e-17
8.40003e-17
8.39113e-17
8.38161e-17
8.37155e-17
8.36108e-17
8.34892e-17
2.78002e-16
2.78426e-16
2.788e-16
2.79162e-16
2.79505e-16
2.79826e-16
2.80122e-16
2.80395e-16
2.80643e-16
2.8087e-16
2.81075e-16
2.8126e-16
2.81426e-16
2.81575e-16
2.81708e-16
2.81826e-16
2.8193e-16
2.82023e-16
2.82104e-16
2.82175e-16
2.82236e-16
2.8229e-16
2.82335e-16
2.82374e-16
2.82406e-16
2.82431e-16
2.82452e-16
2.82467e-16
2.82476e-16
2.82481e-16
2.82481e-16
2.82476e-16
2.82467e-16
2.82452e-16
2.82431e-16
2.82406e-16
2.82374e-16
2.82335e-16
2.8229e-16
2.82236e-16
2.82175e-16
2.82104e-16
2.82023e-16
2.8193e-16
2.81826e-16
2.81708e-16
2.81575e-16
2.81426e-16
2.8126e-16
2.81075e-16
2.8087e-16
2.80643e-16
2.80395e-16
2.80122e-16
2.79826e-16
2.79505e-16
2.79162e-16
2.788e-16
2.78426e-16
2.78002e-16
9.48496e-16
9.50011e-16
9.51376e-16
9.52703e-16
9.53963e-16
9.5514e-16
9.56229e-16
9.57229e-16
9.58143e-16
9.58974e-16
9.59726e-16
9.60405e-16
9.61015e-16
9.61561e-16
9.62048e-16
9.62481e-16
9.62865e-16
9.63203e-16
9.635e-16
9.6376e-16
9.63986e-16
9.64181e-16
9.64347e-16
9.64488e-16
9.64605e-16
9.647e-16
9.64774e-16
9.64828e-16
9.64864e-16
9.64882e-16
9.64882e-16
9.64864e-16
9.64828e-16
9.64774e-16
9.647e-16
9.64605e-16
9.64488e-16
9.64347e-16
9.64181e-16
9.63986e-16
9.6376e-16
9.635e-16
9.63203e-16
9.62865e-16
9.62481e-16
9.62048e-16
9.61561e-16
9.61015e-16
9.60405e-16
9.59726e-16
9.58974e-16
9.58143e-16
9.57229e-16
9.56229e-16
9.5514e-16
9.53963e-16
9.52703e-16
9.51376e-16
9.50011e-16
9.48496e-16
3.31403e-15
3.31955e-15
3.32464e-15
3.32959e-15
3.33431e-15
3.33871e-15
3.34279e-15
3.34653e-15
3.34995e-15
3.35306e-15
3.35588e-15
3.35842e-15
3.3607e-15
3.36274e-15
3.36456e-15
3.36618e-15
3.36761e-15
3.36887e-15
3.36998e-15
3.37095e-15
3.3718e-15
3.37252e-15
3.37315e-15
3.37367e-15
3.37411e-15
3.37446e-15
3.37474e-15
3.37494e-15
3.37508e-15
3.37514e-15
3.37514e-15
3.37508e-15
3.37494e-15
3.37474e-15
3.37446e-15
3.37411e-15
3.37367e-15
3.37315e-15
3.37252e-15
3.3718e-15
3.37095e-15
3.36998e-15
3.36887e-15
3.36761e-15
3.36618e-15
3.36456e-15
3.36274e-15
3.3607e-15
3.35842e-15
3.35588e-15
3.35306e-15
3.34995e-15
3.34653e-15
3.34279e-15
3.33871e-15
3.33431e-15
3.32959e-15
3.32464e-15
3.31955e-15
3.31403e-15
1.18492e-14
1.18697e-14
1.1889e-14
1.19079e-14
1.19258e-14
1.19427e-14
1.19582e-14
1.19725e-14
1.19855e-14
1.19974e-14
1.20081e-14
1.20177e-14
1.20264e-14
1.20342e-14
1.20411e-14
1.20473e-14
1.20528e-14
1.20576e-14
1.20618e-14
1.20655e-14
1.20687e-14
1.20715e-14
1.20738e-14
1.20758e-14
1.20775e-14
1.20788e-14
1.20799e-14
1.20807e-14
1.20812e-14
1.20814e-14
1.20814e-14
1.20812e-14
1.20807e-14
1.20799e-14
1.20788e-14
1.20775e-14
1.20758e-14
1.20738e-14
1.20715e-14
1.20687e-14
1.20655e-14
1.20618e-14
1.20576e-14
1.20528e-14
1.20473e-14
1.20411e-14
1.20342e-14
1.20264e-14
1.20177e-14
1.20081e-14
1.19974e-14
1.19855e-14
1.19725e-14
1.19582e-14
1.19427e-14
1.19258e-14
1.19079e-14
1.1889e-14
1.18697e-14
1.18492e-14
4.33118e-14
4.339e-14
4.34645e-14
4.35377e-14
4.36075e-14
4.36727e-14
4.3733e-14
4.37884e-14
4.3839e-14
4.3885e-14
4.39266e-14
4.39641e-14
4.39978e-14
4.40279e-14
4.40548e-14
4.40787e-14
4.40999e-14
4.41185e-14
4.41349e-14
4.41492e-14
4.41616e-14
4.41723e-14
4.41815e-14
4.41892e-14
4.41957e-14
4.42009e-14
4.42049e-14
4.42079e-14
4.42099e-14
4.42109e-14
4.42109e-14
4.42099e-14
4.42079e-14
4.42049e-14
4.42009e-14
4.41957e-14
4.41892e-14
4.41815e-14
4.41723e-14
4.41616e-14
4.41492e-14
4.41349e-14
4.41185e-14
4.40999e-14
4.40787e-14
4.40548e-14
4.40279e-14
4.39978e-14
4.39641e-14
4.39266e-14
4.3885e-14
4.3839e-14
4.37884e-14
4.3733e-14
4.36727e-14
4.36075e-14
4.35377e-14
4.34645e-14
4.339e-14
4.33118e-14
1.61652e-13
1.61955e-13
1.62248e-13
1.62537e-13
1.62812e-13
1.63069e-13
1.63307e-13
1.63526e-13
1.63726e-13
1.63907e-13
1.64071e-13
1.64219e-13
1.64352e-13
1.64471e-13
1.64577e-13
1.64671e-13
1.64755e-13
1.64828e-13
1.64893e-13
1.64949e-13
1.64998e-13
1.6504e-13
1.65076e-13
1.65107e-13
1.65132e-13
1.65153e-13
1.65169e-13
1.6518e-13
1.65188e-13
1.65192e-13
1.65192e-13
1.65188e-13
1.6518e-13
1.65169e-13
1.65153e-13
1.65132e-13
1.65107e-13
1.65076e-13
1.6504e-13
1.64998e-13
1.64949e-13
1.64893e-13
1.64828e-13
1.64755e-13
1.64671e-13
1.64577e-13
1.64471e-13
1.64352e-13
1.64219e-13
1.64071e-13
1.63907e-13
1.63726e-13
1.63526e-13
1.63307e-13
1.63069e-13
1.62812e-13
1.62537e-13
1.62248e-13
1.61955e-13
1.61652e-13
6.15105e-13
6.16299e-13
6.17469e-13
6.18625e-13
6.19727e-13
6.20759e-13
6.21713e-13
6.22589e-13
6.23389e-13
6.24116e-13
6.24774e-13
6.25367e-13
6.25899e-13
6.26375e-13
6.268e-13
6.27177e-13
6.27511e-13
6.27805e-13
6.28064e-13
6.28289e-13
6.28485e-13
6.28654e-13
6.28798e-13
6.2892e-13
6.29021e-13
6.29103e-13
6.29167e-13
6.29215e-13
6.29246e-13
6.29261e-13
6.29261e-13
6.29246e-13
6.29215e-13
6.29167e-13
6.29103e-13
6.29021e-13
6.2892e-13
6.28798e-13
6.28654e-13
6.28485e-13
6.28289e-13
6.28064e-13
6.27805e-13
6.27511e-13
6.27177e-13
6.268e-13
6.26375e-13
6.25899e-13
6.25367e-13
6.24774e-13
6.24116e-13
6.23389e-13
6.22589e-13
6.21713e-13
6.20759e-13
6.19727e-13
6.18625e-13
6.17469e-13
6.16299e-13
6.15105e-13
2.38176e-12
2.38653e-12
2.39127e-12
2.39597e-12
2.40044e-12
2.40464e-12
2.40851e-12
2.41207e-12
2.41532e-12
2.41827e-12
2.42094e-12
2.42335e-12
2.42551e-12
2.42744e-12
2.42917e-12
2.4307e-12
2.43205e-12
2.43325e-12
2.43429e-12
2.43521e-12
2.436e-12
2.43669e-12
2.43727e-12
2.43777e-12
2.43818e-12
2.43851e-12
2.43877e-12
2.43896e-12
2.43909e-12
2.43915e-12
2.43915e-12
2.43909e-12
2.43896e-12
2.43877e-12
2.43851e-12
2.43818e-12
2.43777e-12
2.43727e-12
2.43669e-12
2.436e-12
2.43521e-12
2.43429e-12
2.43325e-12
2.43205e-12
2.4307e-12
2.42917e-12
2.42744e-12
2.42551e-12
2.42335e-12
2.42094e-12
2.41827e-12
2.41532e-12
2.41207e-12
2.40851e-12
2.40464e-12
2.40044e-12
2.39597e-12
2.39127e-12
2.38653e-12
2.38176e-12
9.36363e-12
9.38301e-12
9.40244e-12
9.4217e-12
9.4401e-12
9.45731e-12
9.47323e-12
9.48785e-12
9.50119e-12
9.51331e-12
9.52428e-12
9.53416e-12
9.54304e-12
9.55097e-12
9.55805e-12
9.56433e-12
9.56989e-12
9.57479e-12
9.57909e-12
9.58284e-12
9.5861e-12
9.58891e-12
9.59132e-12
9.59334e-12
9.59502e-12
9.59639e-12
9.59745e-12
9.59824e-12
9.59875e-12
9.59901e-12
9.59901e-12
9.59875e-12
9.59824e-12
9.59745e-12
9.59639e-12
9.59502e-12
9.59334e-12
9.59132e-12
9.58891e-12
9.5861e-12
9.58284e-12
9.57909e-12
9.57479e-12
9.56989e-12
9.56433e-12
9.55805e-12
9.55097e-12
9.54304e-12
9.53416e-12
9.52428e-12
9.51331e-12
9.50119e-12
9.48785e-12
9.47323e-12
9.45731e-12
9.4401e-12
9.4217e-12
9.40244e-12
9.38301e-12
9.36363e-12
3.7275e-11
3.73544e-11
3.74347e-11
3.75145e-11
3.75907e-11
3.7662e-11
3.77279e-11
3.77884e-11
3.78437e-11
3.78939e-11
3.79393e-11
3.79802e-11
3.8017e-11
3.80498e-11
3.80791e-11
3.81051e-11
3.81281e-11
3.81484e-11
3.81662e-11
3.81817e-11
3.81952e-11
3.82068e-11
3.82168e-11
3.82251e-11
3.82321e-11
3.82377e-11
3.82421e-11
3.82454e-11
3.82475e-11
3.82486e-11
3.82486e-11
3.82475e-11
3.82454e-11
3.82421e-11
3.82377e-11
3.82321e-11
3.82251e-11
3.82168e-11
3.82068e-11
3.81952e-11
3.81817e-11
3.81662e-11
3.81484e-11
3.81281e-11
3.81051e-11
3.80791e-11
3.80498e-11
3.8017e-11
3.79802e-11
3.79393e-11
3.78939e-11
3.78437e-11
3.77884e-11
3.77279e-11
3.7662e-11
3.75907e-11
3.75145e-11
3.74347e-11
3.73544e-11
3.7275e-11
1.49771e-10
1.50098e-10
1.50432e-10
1.50764e-10
1.51082e-10
1.51378e-10
1.51653e-10
1.51905e-10
1.52135e-10
1.52344e-10
1.52533e-10
1.52703e-10
1.52856e-10
1.52993e-10
1.53114e-10
1.53222e-10
1.53318e-10
1.53402e-10
1.53476e-10
1.53541e-10
1.53597e-10
1.53645e-10
1.53687e-10
1.53722e-10
1.53751e-10
1.53774e-10
1.53792e-10
1.53806e-10
1.53815e-10
1.53819e-10
1.53819e-10
1.53815e-10
1.53806e-10
1.53792e-10
1.53774e-10
1.53751e-10
1.53722e-10
1.53687e-10
1.53645e-10
1.53597e-10
1.53541e-10
1.53476e-10
1.53402e-10
1.53318e-10
1.53222e-10
1.53114e-10
1.52993e-10
1.52856e-10
1.52703e-10
1.52533e-10
1.52344e-10
1.52135e-10
1.51905e-10
1.51653e-10
1.51378e-10
1.51082e-10
1.50764e-10
1.50432e-10
1.50098e-10
1.49771e-10
6.05125e-10
6.06478e-10
6.07869e-10
6.09253e-10
6.10574e-10
6.11811e-10
6.12954e-10
6.14004e-10
6.14962e-10
6.15833e-10
6.1662e-10
6.17329e-10
6.17966e-10
6.18535e-10
6.19042e-10
6.19492e-10
6.19891e-10
6.20242e-10
6.2055e-10
6.20819e-10
6.21052e-10
6.21253e-10
6.21425e-10
6.2157e-10
6.2169e-10
6.21788e-10
6.21864e-10
6.2192e-10
6.21957e-10
6.21975e-10
6.21975e-10
6.21957e-10
6.2192e-10
6.21864e-10
6.21788e-10
6.2169e-10
6.2157e-10
6.21425e-10
6.21253e-10
6.21052e-10
6.20819e-10
6.2055e-10
6.20242e-10
6.19891e-10
6.19492e-10
6.19042e-10
6.18535e-10
6.17966e-10
6.17329e-10
6.1662e-10
6.15833e-10
6.14962e-10
6.14004e-10
6.12954e-10
6.11811e-10
6.10574e-10
6.09253e-10
6.07869e-10
6.06478e-10
6.05125e-10
2.44777e-09
2.45335e-09
2.45913e-09
2.46487e-09
2.47036e-09
2.47549e-09
2.48024e-09
2.4846e-09
2.48858e-09
2.49219e-09
2.49546e-09
2.4984e-09
2.50104e-09
2.5034e-09
2.5055e-09
2.50737e-09
2.50903e-09
2.51048e-09
2.51176e-09
2.51287e-09
2.51384e-09
2.51468e-09
2.51539e-09
2.51599e-09
2.51649e-09
2.51689e-09
2.51721e-09
2.51744e-09
2.51759e-09
2.51767e-09
2.51767e-09
2.51759e-09
2.51744e-09
2.51721e-09
2.51689e-09
2.51649e-09
2.51599e-09
2.51539e-09
2.51468e-09
2.51384e-09
2.51287e-09
2.51176e-09
2.51048e-09
2.50903e-09
2.50737e-09
2.5055e-09
2.5034e-09
2.50104e-09
2.4984e-09
2.49546e-09
2.49219e-09
2.48858e-09
2.4846e-09
2.48024e-09
2.47549e-09
2.47036e-09
2.46487e-09
2.45913e-09
2.45335e-09
2.44777e-09
9.86309e-09
9.88596e-09
9.90972e-09
9.93336e-09
9.95593e-09
9.97705e-09
9.99658e-09
1.00145e-08
1.00309e-08
1.00457e-08
1.00591e-08
1.00712e-08
1.00821e-08
1.00918e-08
1.01005e-08
1.01081e-08
1.01149e-08
1.01209e-08
1.01262e-08
1.01307e-08
1.01347e-08
1.01381e-08
1.01411e-08
1.01435e-08
1.01456e-08
1.01472e-08
1.01485e-08
1.01495e-08
1.01501e-08
1.01504e-08
1.01504e-08
1.01501e-08
1.01495e-08
1.01485e-08
1.01472e-08
1.01456e-08
1.01435e-08
1.01411e-08
1.01381e-08
1.01347e-08
1.01307e-08
1.01262e-08
1.01209e-08
1.01149e-08
1.01081e-08
1.01005e-08
1.00918e-08
1.00821e-08
1.00712e-08
1.00591e-08
1.00457e-08
1.00309e-08
1.00145e-08
9.99658e-09
9.97705e-09
9.95593e-09
9.93336e-09
9.90972e-09
9.88596e-09
9.86309e-09
3.93601e-08
3.94525e-08
3.95488e-08
3.96446e-08
3.97361e-08
3.98216e-08
3.99007e-08
3.99733e-08
4.00395e-08
4.00996e-08
4.0154e-08
4.0203e-08
4.02469e-08
4.02862e-08
4.03212e-08
4.03523e-08
4.03798e-08
4.0404e-08
4.04253e-08
4.04438e-08
4.04599e-08
4.04737e-08
4.04856e-08
4.04956e-08
4.05038e-08
4.05106e-08
4.05158e-08
4.05197e-08
4.05222e-08
4.05235e-08
4.05235e-08
4.05222e-08
4.05197e-08
4.05158e-08
4.05106e-08
4.05038e-08
4.04956e-08
4.04856e-08
4.04737e-08
4.04599e-08
4.04438e-08
4.04253e-08
4.0404e-08
4.03798e-08
4.03523e-08
4.03212e-08
4.02862e-08
4.02469e-08
4.0203e-08
4.0154e-08
4.00996e-08
4.00395e-08
3.99733e-08
3.99007e-08
3.98216e-08
3.97361e-08
3.96446e-08
3.95488e-08
3.94525e-08
3.93601e-08
1.54538e-07
1.54903e-07
1.55285e-07
1.55665e-07
1.56027e-07
1.56366e-07
1.56679e-07
1.56966e-07
1.57228e-07
1.57466e-07
1.57681e-07
1.57875e-07
1.58049e-07
1.58205e-07
1.58343e-07
1.58466e-07
1.58575e-07
1.58671e-07
1.58755e-07
1.58828e-07
1.58891e-07
1.58946e-07
1.58993e-07
1.59033e-07
1.59065e-07
1.59092e-07
1.59113e-07
1.59128e-07
1.59138e-07
1.59143e-07
1.59143e-07
1.59138e-07
1.59128e-07
1.59113e-07
1.59092e-07
1.59065e-07
1.59033e-07
1.58993e-07
1.58946e-07
1.58891e-07
1.58828e-07
1.58755e-07
1.58671e-07
1.58575e-07
1.58466e-07
1.58343e-07
1.58205e-07
1.58049e-07
1.57875e-07
1.57681e-07
1.57466e-07
1.57228e-07
1.56966e-07
1.56679e-07
1.56366e-07
1.56027e-07
1.55665e-07
1.55285e-07
1.54903e-07
1.54538e-07
5.9252e-07
5.93923e-07
5.95393e-07
5.96851e-07
5.98241e-07
5.99541e-07
6.00743e-07
6.01845e-07
6.02851e-07
6.03764e-07
6.0459e-07
6.05334e-07
6.06001e-07
6.06597e-07
6.07128e-07
6.076e-07
6.08017e-07
6.08384e-07
6.08706e-07
6.08987e-07
6.09231e-07
6.09441e-07
6.0962e-07
6.09772e-07
6.09897e-07
6.09999e-07
6.10078e-07
6.10137e-07
6.10175e-07
6.10194e-07
6.10194e-07
6.10175e-07
6.10137e-07
6.10078e-07
6.09999e-07
6.09897e-07
6.09772e-07
6.0962e-07
6.09441e-07
6.09231e-07
6.08987e-07
6.08706e-07
6.08384e-07
6.08017e-07
6.076e-07
6.07128e-07
6.06597e-07
6.06001e-07
6.05334e-07
6.0459e-07
6.03764e-07
6.02851e-07
6.01845e-07
6.00743e-07
5.99541e-07
5.98241e-07
5.96851e-07
5.95393e-07
5.93923e-07
5.9252e-07
2.19989e-06
2.20507e-06
2.2105e-06
2.21588e-06
2.22101e-06
2.2258e-06
2.23023e-06
2.23429e-06
2.238e-06
2.24137e-06
2.24441e-06
2.24715e-06
2.2496e-06
2.2518e-06
2.25376e-06
2.25549e-06
2.25703e-06
2.25838e-06
2.25957e-06
2.2606e-06
2.2615e-06
2.26227e-06
2.26293e-06
2.26349e-06
2.26395e-06
2.26433e-06
2.26462e-06
2.26483e-06
2.26498e-06
2.26505e-06
2.26505e-06
2.26498e-06
2.26483e-06
2.26462e-06
2.26433e-06
2.26395e-06
2.26349e-06
2.26293e-06
2.26227e-06
2.2615e-06
2.2606e-06
2.25957e-06
2.25838e-06
2.25703e-06
2.25549e-06
2.25376e-06
2.2518e-06
2.2496e-06
2.24715e-06
2.24441e-06
2.24137e-06
2.238e-06
2.23429e-06
2.23023e-06
2.2258e-06
2.22101e-06
2.21588e-06
2.2105e-06
2.20507e-06
2.19989e-06
7.8346e-06
7.85284e-06
7.87191e-06
7.89078e-06
7.90875e-06
7.92553e-06
7.94104e-06
7.95527e-06
7.96824e-06
7.98002e-06
7.99066e-06
8.00025e-06
8.00885e-06
8.01653e-06
8.02338e-06
8.02945e-06
8.03482e-06
8.03955e-06
8.0437e-06
8.04732e-06
8.05046e-06
8.05316e-06
8.05547e-06
8.05742e-06
8.05904e-06
8.06034e-06
8.06137e-06
8.06212e-06
8.06262e-06
8.06286e-06
8.06286e-06
8.06262e-06
8.06212e-06
8.06137e-06
8.06034e-06
8.05904e-06
8.05742e-06
8.05547e-06
8.05316e-06
8.05046e-06
8.04732e-06
8.0437e-06
8.03955e-06
8.03482e-06
8.02945e-06
8.02338e-06
8.01653e-06
8.00885e-06
8.00025e-06
7.99066e-06
7.98002e-06
7.96824e-06
7.95527e-06
7.94104e-06
7.92553e-06
7.90875e-06
7.89078e-06
7.87191e-06
7.85284e-06
7.8346e-06
2.6482e-05
2.65423e-05
2.66052e-05
2.66673e-05
2.67264e-05
2.67816e-05
2.68325e-05
2.68792e-05
2.69219e-05
2.69605e-05
2.69955e-05
2.7027e-05
2.70552e-05
2.70804e-05
2.71029e-05
2.71228e-05
2.71405e-05
2.7156e-05
2.71696e-05
2.71815e-05
2.71918e-05
2.72007e-05
2.72082e-05
2.72146e-05
2.72199e-05
2.72242e-05
2.72276e-05
2.723e-05
2.72317e-05
2.72325e-05
2.72325e-05
2.72317e-05
2.723e-05
2.72276e-05
2.72242e-05
2.72199e-05
2.72146e-05
2.72082e-05
2.72007e-05
2.71918e-05
2.71815e-05
2.71696e-05
2.7156e-05
2.71405e-05
2.71228e-05
2.71029e-05
2.70804e-05
2.70552e-05
2.7027e-05
2.69955e-05
2.69605e-05
2.69219e-05
2.68792e-05
2.68325e-05
2.67816e-05
2.67264e-05
2.66673e-05
2.66052e-05
2.65423e-05
2.6482e-05
8.39599e-05
8.41448e-05
8.43368e-05
8.45259e-05
8.47056e-05
8.48734e-05
8.50283e-05
8.51703e-05
8.52998e-05
8.54173e-05
8.55235e-05
8.56191e-05
8.57049e-05
8.57815e-05
8.58497e-05
8.59102e-05
8.59637e-05
8.60109e-05
8.60522e-05
8.60882e-05
8.61195e-05
8.61465e-05
8.61695e-05
8.61888e-05
8.62049e-05
8.6218e-05
8.62281e-05
8.62356e-05
8.62406e-05
8.6243e-05
8.6243e-05
8.62406e-05
8.62356e-05
8.62281e-05
8.6218e-05
8.62049e-05
8.61888e-05
8.61695e-05
8.61465e-05
8.61195e-05
8.60882e-05
8.60522e-05
8.60109e-05
8.59637e-05
8.59102e-05
8.58497e-05
8.57815e-05
8.57049e-05
8.56191e-05
8.55235e-05
8.54173e-05
8.52998e-05
8.51703e-05
8.50283e-05
8.48734e-05
8.47056e-05
8.45259e-05
8.43368e-05
8.41448e-05
8.39599e-05
0.00024645
0.000246967
0.0002475
0.000248025
0.000248523
0.000248987
0.000249416
0.000249809
0.000250167
0.000250492
0.000250786
0.00025105
0.000251287
0.000251499
0.000251687
0.000251854
0.000252002
0.000252133
0.000252247
0.000252346
0.000252433
0.000252507
0.000252571
0.000252624
0.000252669
0.000252705
0.000252733
0.000252754
0.000252767
0.000252774
0.000252774
0.000252767
0.000252754
0.000252733
0.000252705
0.000252669
0.000252624
0.000252571
0.000252507
0.000252433
0.000252346
0.000252247
0.000252133
0.000252002
0.000251854
0.000251687
0.000251499
0.000251287
0.00025105
0.000250786
0.000250492
0.000250167
0.000249809
0.000249416
0.000248987
0.000248523
0.000248025
0.0002475
0.000246967
0.00024645
0.000660532
0.000661826
0.000663154
0.000664454
0.000665688
0.000666837
0.000667898
0.00066887
0.000669756
0.00067056
0.000671286
0.00067194
0.000672526
0.000673049
0.000673515
0.000673929
0.000674294
0.000674616
0.000674898
0.000675144
0.000675358
0.000675542
0.000675698
0.000675831
0.000675941
0.00067603
0.000676099
0.00067615
0.000676184
0.0006762
0.0006762
0.000676184
0.00067615
0.000676099
0.00067603
0.000675941
0.000675831
0.000675698
0.000675542
0.000675358
0.000675144
0.000674898
0.000674616
0.000674294
0.000673929
0.000673515
0.000673049
0.000672526
0.00067194
0.000671286
0.00067056
0.000669756
0.00066887
0.000667898
0.000666837
0.000665688
0.000664454
0.000663154
0.000661826
0.000660532
0.00159449
0.00159734
0.00160025
0.00160308
0.00160577
0.00160827
0.00161057
0.00161269
0.00161461
0.00161636
0.00161794
0.00161936
0.00162063
0.00162176
0.00162278
0.00162367
0.00162447
0.00162517
0.00162578
0.00162631
0.00162678
0.00162717
0.00162751
0.0016278
0.00162804
0.00162823
0.00162838
0.00162849
0.00162857
0.0016286
0.0016286
0.00162857
0.00162849
0.00162838
0.00162823
0.00162804
0.0016278
0.00162751
0.00162717
0.00162678
0.00162631
0.00162578
0.00162517
0.00162447
0.00162367
0.00162278
0.00162176
0.00162063
0.00161936
0.00161794
0.00161636
0.00161461
0.00161269
0.00161057
0.00160827
0.00160577
0.00160308
0.00160025
0.00159734
0.00159449
0.00342766
0.00343312
0.00343863
0.00344398
0.00344904
0.00345375
0.00345809
0.00346207
0.00346569
0.00346898
0.00347195
0.00347462
0.00347701
0.00347915
0.00348105
0.00348274
0.00348423
0.00348554
0.00348669
0.00348769
0.00348856
0.00348931
0.00348995
0.00349049
0.00349094
0.0034913
0.00349159
0.0034918
0.00349193
0.003492
0.003492
0.00349193
0.0034918
0.00349159
0.0034913
0.00349094
0.00349049
0.00348995
0.00348931
0.00348856
0.00348769
0.00348669
0.00348554
0.00348423
0.00348274
0.00348105
0.00347915
0.00347701
0.00347462
0.00347195
0.00346898
0.00346569
0.00346207
0.00345809
0.00345375
0.00344904
0.00344398
0.00343863
0.00343312
0.00342766