/*--------------------------------*- C++ -*----------------------------------*\
| =========                 |                                                 |
| \\      /  F ield         | foam-extend: Open Source CFD                    |
|  \\    /   O peration     | Version:     4.0                                |
|   \\  /    A nd           | Web:         http://www.foam-extend.org         |
|    \\/     M anipulation  |                                                 |
\*---------------------------------------------------------------------------*/
FoamFile
{
    version     2.0;
    format      ascii;
    class       volScalarField;
    location    "270";
    object      cPlus;
}
// * * * * * * * * * * * * * * * * * * * * * * * * * * * * * * * * * * * * * //

dimensions      [0 0 0 0 0 0 0];

internalField   nonuniform List<scalar> 
6960
(
0.184339
0.184253
0.184216
0.184201
0.184195
0.184193
0.184193
0.184193
0.184193
0.184193
0.184193
0.184194
0.184194
0.184194
0.184195
0.184195
0.184195
0.184195
0.184196
0.184196
0.184196
0.184196
0.184197
0.184197
0.184197
0.184197
0.184197
0.184197
0.184197
0.184197
0.184197
0.184197
0.184197
0.184197
0.184197
0.184197
0.184197
0.184197
0.184196
0.184196
0.184196
0.184196
0.184195
0.184195
0.184195
0.184195
0.184194
0.184194
0.184194
0.184193
0.184193
0.184193
0.184193
0.184193
0.184193
0.184195
0.184201
0.184216
0.184253
0.184339
0.0515877
0.0515767
0.051571
0.0515687
0.0515679
0.0515677
0.0515677
0.0515678
0.051568
0.0515682
0.0515683
0.0515685
0.0515687
0.0515689
0.0515691
0.0515692
0.0515694
0.0515695
0.0515697
0.0515698
0.0515699
0.05157
0.0515701
0.0515702
0.0515703
0.0515704
0.0515704
0.0515704
0.0515705
0.0515705
0.0515705
0.0515705
0.0515704
0.0515704
0.0515704
0.0515703
0.0515702
0.0515701
0.05157
0.0515699
0.0515698
0.0515697
0.0515695
0.0515694
0.0515692
0.0515691
0.0515689
0.0515687
0.0515685
0.0515683
0.0515682
0.051568
0.0515678
0.0515677
0.0515677
0.0515679
0.0515687
0.051571
0.0515767
0.0515877
0.0345678
0.0345804
0.0345847
0.0345863
0.034587
0.0345874
0.0345876
0.0345878
0.034588
0.0345881
0.0345883
0.0345884
0.0345885
0.0345887
0.0345888
0.0345889
0.034589
0.0345891
0.0345892
0.0345893
0.0345894
0.0345895
0.0345896
0.0345896
0.0345897
0.0345897
0.0345898
0.0345898
0.0345898
0.0345898
0.0345898
0.0345898
0.0345898
0.0345898
0.0345897
0.0345897
0.0345896
0.0345896
0.0345895
0.0345894
0.0345893
0.0345892
0.0345891
0.034589
0.0345889
0.0345888
0.0345887
0.0345885
0.0345884
0.0345883
0.0345881
0.034588
0.0345878
0.0345876
0.0345874
0.034587
0.0345863
0.0345847
0.0345804
0.0345678
0.0328754
0.0328939
0.0329006
0.0329032
0.0329043
0.0329048
0.0329051
0.0329053
0.0329055
0.0329056
0.0329058
0.0329059
0.032906
0.0329062
0.0329063
0.0329064
0.0329065
0.0329066
0.0329067
0.0329068
0.0329069
0.0329069
0.032907
0.032907
0.0329071
0.0329071
0.0329072
0.0329072
0.0329072
0.0329072
0.0329072
0.0329072
0.0329072
0.0329072
0.0329071
0.0329071
0.032907
0.032907
0.0329069
0.0329069
0.0329068
0.0329067
0.0329066
0.0329065
0.0329064
0.0329063
0.0329062
0.032906
0.0329059
0.0329058
0.0329056
0.0329055
0.0329053
0.0329051
0.0329048
0.0329043
0.0329032
0.0329006
0.0328939
0.0328754
0.0333718
0.0333921
0.0333995
0.0334024
0.0334036
0.0334042
0.0334045
0.0334047
0.0334049
0.0334051
0.0334052
0.0334054
0.0334055
0.0334056
0.0334058
0.0334059
0.033406
0.0334061
0.0334062
0.0334063
0.0334063
0.0334064
0.0334065
0.0334065
0.0334066
0.0334066
0.0334067
0.0334067
0.0334067
0.0334067
0.0334067
0.0334067
0.0334067
0.0334067
0.0334066
0.0334066
0.0334065
0.0334065
0.0334064
0.0334063
0.0334063
0.0334062
0.0334061
0.033406
0.0334059
0.0334058
0.0334056
0.0334055
0.0334054
0.0334052
0.0334051
0.0334049
0.0334047
0.0334045
0.0334042
0.0334036
0.0334024
0.0333995
0.0333921
0.0333718
0.034255
0.0342764
0.0342843
0.0342873
0.0342886
0.0342892
0.0342895
0.0342898
0.03429
0.0342901
0.0342903
0.0342904
0.0342906
0.0342907
0.0342908
0.034291
0.0342911
0.0342912
0.0342913
0.0342914
0.0342915
0.0342916
0.0342916
0.0342917
0.0342917
0.0342918
0.0342918
0.0342918
0.0342919
0.0342919
0.0342919
0.0342919
0.0342918
0.0342918
0.0342918
0.0342917
0.0342917
0.0342916
0.0342916
0.0342915
0.0342914
0.0342913
0.0342912
0.0342911
0.034291
0.0342908
0.0342907
0.0342906
0.0342904
0.0342903
0.0342901
0.03429
0.0342898
0.0342895
0.0342892
0.0342886
0.0342873
0.0342843
0.0342764
0.034255
0.0352946
0.0353172
0.0353255
0.0353287
0.0353301
0.0353307
0.0353311
0.0353313
0.0353315
0.0353317
0.0353319
0.035332
0.0353322
0.0353323
0.0353325
0.0353326
0.0353327
0.0353329
0.035333
0.0353331
0.0353332
0.0353332
0.0353333
0.0353334
0.0353334
0.0353335
0.0353335
0.0353335
0.0353336
0.0353336
0.0353336
0.0353336
0.0353335
0.0353335
0.0353335
0.0353334
0.0353334
0.0353333
0.0353332
0.0353332
0.0353331
0.035333
0.0353329
0.0353327
0.0353326
0.0353325
0.0353323
0.0353322
0.035332
0.0353319
0.0353317
0.0353315
0.0353313
0.0353311
0.0353307
0.0353301
0.0353287
0.0353255
0.0353172
0.0352946
0.036481
0.036505
0.0365137
0.0365171
0.0365186
0.0365193
0.0365196
0.0365199
0.0365201
0.0365203
0.0365205
0.0365207
0.0365208
0.036521
0.0365211
0.0365213
0.0365214
0.0365215
0.0365217
0.0365218
0.0365219
0.036522
0.036522
0.0365221
0.0365222
0.0365222
0.0365223
0.0365223
0.0365223
0.0365223
0.0365223
0.0365223
0.0365223
0.0365223
0.0365222
0.0365222
0.0365221
0.036522
0.036522
0.0365219
0.0365218
0.0365217
0.0365215
0.0365214
0.0365213
0.0365211
0.036521
0.0365208
0.0365207
0.0365205
0.0365203
0.0365201
0.0365199
0.0365196
0.0365193
0.0365186
0.0365171
0.0365137
0.036505
0.036481
0.0378406
0.0378662
0.0378755
0.0378792
0.0378808
0.0378815
0.0378819
0.0378822
0.0378824
0.0378826
0.0378828
0.037883
0.0378832
0.0378834
0.0378835
0.0378837
0.0378838
0.037884
0.0378841
0.0378842
0.0378843
0.0378844
0.0378845
0.0378846
0.0378846
0.0378847
0.0378847
0.0378848
0.0378848
0.0378848
0.0378848
0.0378848
0.0378848
0.0378847
0.0378847
0.0378846
0.0378846
0.0378845
0.0378844
0.0378843
0.0378842
0.0378841
0.037884
0.0378838
0.0378837
0.0378835
0.0378834
0.0378832
0.037883
0.0378828
0.0378826
0.0378824
0.0378822
0.0378819
0.0378815
0.0378808
0.0378792
0.0378755
0.0378662
0.0378406
0.0394142
0.0394417
0.0394518
0.0394557
0.0394574
0.0394582
0.0394586
0.0394589
0.0394592
0.0394594
0.0394597
0.0394599
0.0394601
0.0394602
0.0394604
0.0394606
0.0394608
0.0394609
0.0394611
0.0394612
0.0394613
0.0394614
0.0394615
0.0394616
0.0394617
0.0394617
0.0394618
0.0394618
0.0394618
0.0394618
0.0394618
0.0394618
0.0394618
0.0394618
0.0394617
0.0394617
0.0394616
0.0394615
0.0394614
0.0394613
0.0394612
0.0394611
0.0394609
0.0394608
0.0394606
0.0394604
0.0394602
0.0394601
0.0394599
0.0394597
0.0394594
0.0394592
0.0394589
0.0394586
0.0394582
0.0394574
0.0394557
0.0394518
0.0394417
0.0394142
0.0412578
0.0412877
0.0412986
0.0413029
0.0413047
0.0413056
0.0413061
0.0413064
0.0413067
0.0413069
0.0413072
0.0413074
0.0413076
0.0413078
0.041308
0.0413082
0.0413084
0.0413086
0.0413087
0.0413089
0.041309
0.0413091
0.0413092
0.0413093
0.0413094
0.0413095
0.0413095
0.0413096
0.0413096
0.0413096
0.0413096
0.0413096
0.0413096
0.0413095
0.0413095
0.0413094
0.0413093
0.0413092
0.0413091
0.041309
0.0413089
0.0413087
0.0413086
0.0413084
0.0413082
0.041308
0.0413078
0.0413076
0.0413074
0.0413072
0.0413069
0.0413067
0.0413064
0.0413061
0.0413056
0.0413047
0.0413029
0.0412986
0.0412877
0.0412578
0.0434495
0.0434824
0.0434944
0.0434991
0.0435011
0.0435021
0.0435026
0.043503
0.0435034
0.0435036
0.0435039
0.0435042
0.0435044
0.0435047
0.0435049
0.0435051
0.0435053
0.0435055
0.0435057
0.0435058
0.043506
0.0435061
0.0435062
0.0435063
0.0435064
0.0435065
0.0435066
0.0435066
0.0435066
0.0435067
0.0435067
0.0435066
0.0435066
0.0435066
0.0435065
0.0435064
0.0435063
0.0435062
0.0435061
0.043506
0.0435058
0.0435057
0.0435055
0.0435053
0.0435051
0.0435049
0.0435047
0.0435044
0.0435042
0.0435039
0.0435036
0.0435034
0.043503
0.0435026
0.0435021
0.0435011
0.0434991
0.0434944
0.0434824
0.0434495
0.0461018
0.0461386
0.046152
0.0461574
0.0461596
0.0461607
0.0461613
0.0461618
0.0461621
0.0461625
0.0461628
0.0461631
0.0461634
0.0461636
0.0461639
0.0461641
0.0461644
0.0461646
0.0461648
0.046165
0.0461651
0.0461653
0.0461654
0.0461656
0.0461657
0.0461658
0.0461658
0.0461659
0.0461659
0.0461659
0.0461659
0.0461659
0.0461659
0.0461658
0.0461658
0.0461657
0.0461656
0.0461654
0.0461653
0.0461651
0.046165
0.0461648
0.0461646
0.0461644
0.0461641
0.0461639
0.0461636
0.0461634
0.0461631
0.0461628
0.0461625
0.0461621
0.0461618
0.0461613
0.0461607
0.0461596
0.0461574
0.046152
0.0461386
0.0461018
0.0493817
0.0494236
0.049439
0.0494451
0.0494476
0.0494489
0.0494496
0.0494501
0.0494506
0.0494509
0.0494513
0.0494517
0.049452
0.0494523
0.0494526
0.0494529
0.0494532
0.0494534
0.0494537
0.0494539
0.0494541
0.0494543
0.0494545
0.0494546
0.0494547
0.0494548
0.0494549
0.049455
0.049455
0.049455
0.049455
0.049455
0.049455
0.0494549
0.0494548
0.0494547
0.0494546
0.0494545
0.0494543
0.0494541
0.0494539
0.0494537
0.0494534
0.0494532
0.0494529
0.0494526
0.0494523
0.049452
0.0494517
0.0494513
0.0494509
0.0494506
0.0494501
0.0494496
0.0494489
0.0494476
0.0494451
0.049439
0.0494236
0.0493817
0.0535429
0.0535919
0.0536099
0.053617
0.0536201
0.0536215
0.0536224
0.053623
0.0536235
0.053624
0.0536244
0.0536249
0.0536253
0.0536256
0.053626
0.0536264
0.0536267
0.053627
0.0536273
0.0536276
0.0536278
0.053628
0.0536282
0.0536284
0.0536286
0.0536287
0.0536288
0.0536289
0.0536289
0.0536289
0.0536289
0.0536289
0.0536289
0.0536288
0.0536287
0.0536286
0.0536284
0.0536282
0.053628
0.0536278
0.0536276
0.0536273
0.053627
0.0536267
0.0536264
0.053626
0.0536256
0.0536253
0.0536249
0.0536244
0.053624
0.0536235
0.053623
0.0536224
0.0536215
0.0536201
0.053617
0.0536099
0.0535919
0.0535429
0.0589728
0.0590317
0.0590535
0.0590621
0.0590658
0.0590676
0.0590687
0.0590694
0.0590701
0.0590707
0.0590712
0.0590717
0.0590722
0.0590727
0.0590732
0.0590736
0.059074
0.0590744
0.0590748
0.0590751
0.0590754
0.0590757
0.059076
0.0590762
0.0590764
0.0590765
0.0590767
0.0590767
0.0590768
0.0590768
0.0590768
0.0590768
0.0590767
0.0590767
0.0590765
0.0590764
0.0590762
0.059076
0.0590757
0.0590754
0.0590751
0.0590748
0.0590744
0.059074
0.0590736
0.0590732
0.0590727
0.0590722
0.0590717
0.0590712
0.0590707
0.0590701
0.0590694
0.0590687
0.0590676
0.0590658
0.0590621
0.0590535
0.0590317
0.0589728
0.0662401
0.0663133
0.0663404
0.0663512
0.0663559
0.0663581
0.0663595
0.0663604
0.0663613
0.066362
0.0663627
0.0663634
0.066364
0.0663646
0.0663652
0.0663658
0.0663663
0.0663668
0.0663673
0.0663677
0.0663681
0.0663685
0.0663688
0.0663691
0.0663693
0.0663695
0.0663697
0.0663698
0.0663699
0.0663699
0.0663699
0.0663699
0.0663698
0.0663697
0.0663695
0.0663693
0.0663691
0.0663688
0.0663685
0.0663681
0.0663677
0.0663673
0.0663668
0.0663663
0.0663658
0.0663652
0.0663646
0.066364
0.0663634
0.0663627
0.066362
0.0663613
0.0663604
0.0663595
0.0663581
0.0663559
0.0663512
0.0663404
0.0663133
0.0662401
0.076098
0.0761911
0.0762257
0.0762396
0.0762456
0.0762485
0.0762502
0.0762514
0.0762525
0.0762535
0.0762544
0.0762552
0.0762561
0.0762569
0.0762576
0.0762584
0.0762591
0.0762597
0.0762603
0.0762609
0.0762614
0.0762618
0.0762623
0.0762626
0.0762629
0.0762632
0.0762634
0.0762636
0.0762637
0.0762637
0.0762637
0.0762637
0.0762636
0.0762634
0.0762632
0.0762629
0.0762626
0.0762623
0.0762618
0.0762614
0.0762609
0.0762603
0.0762597
0.0762591
0.0762584
0.0762576
0.0762569
0.0762561
0.0762552
0.0762544
0.0762535
0.0762525
0.0762514
0.0762502
0.0762485
0.0762456
0.0762396
0.0762257
0.0761911
0.076098
0.0893672
0.0894863
0.0895309
0.0895488
0.0895565
0.0895603
0.0895625
0.0895641
0.0895654
0.0895667
0.0895678
0.089569
0.08957
0.0895711
0.0895721
0.089573
0.0895739
0.0895747
0.0895755
0.0895762
0.0895768
0.0895774
0.089578
0.0895784
0.0895788
0.0895792
0.0895794
0.0895796
0.0895798
0.0895798
0.0895798
0.0895798
0.0895796
0.0895794
0.0895792
0.0895788
0.0895784
0.089578
0.0895774
0.0895768
0.0895762
0.0895755
0.0895747
0.0895739
0.089573
0.0895721
0.0895711
0.08957
0.089569
0.0895678
0.0895667
0.0895654
0.0895641
0.0895625
0.0895603
0.0895565
0.0895488
0.0895309
0.0894863
0.0893672
0.106666
0.106817
0.106873
0.106896
0.106906
0.10691
0.106913
0.106915
0.106917
0.106918
0.10692
0.106921
0.106923
0.106924
0.106925
0.106926
0.106927
0.106928
0.106929
0.10693
0.106931
0.106932
0.106932
0.106933
0.106934
0.106934
0.106934
0.106935
0.106935
0.106935
0.106935
0.106935
0.106935
0.106934
0.106934
0.106934
0.106933
0.106932
0.106932
0.106931
0.10693
0.106929
0.106928
0.106927
0.106926
0.106925
0.106924
0.106923
0.106921
0.10692
0.106918
0.106917
0.106915
0.106913
0.10691
0.106906
0.106896
0.106873
0.106817
0.106666
0.128103
0.128286
0.128356
0.128384
0.128396
0.128402
0.128405
0.128407
0.128409
0.128411
0.128413
0.128415
0.128416
0.128418
0.128419
0.128421
0.128422
0.128423
0.128424
0.128425
0.128426
0.128427
0.128428
0.128429
0.128429
0.12843
0.12843
0.12843
0.128431
0.128431
0.128431
0.128431
0.12843
0.12843
0.12843
0.128429
0.128429
0.128428
0.128427
0.128426
0.128425
0.128424
0.128423
0.128422
0.128421
0.128419
0.128418
0.128416
0.128415
0.128413
0.128411
0.128409
0.128407
0.128405
0.128402
0.128396
0.128384
0.128356
0.128286
0.128103
0.153151
0.153367
0.15345
0.153483
0.153497
0.153504
0.153508
0.153511
0.153513
0.153515
0.153517
0.153519
0.153521
0.153522
0.153524
0.153526
0.153527
0.153528
0.15353
0.153531
0.153532
0.153533
0.153534
0.153534
0.153535
0.153536
0.153536
0.153536
0.153537
0.153537
0.153537
0.153537
0.153536
0.153536
0.153536
0.153535
0.153534
0.153534
0.153533
0.153532
0.153531
0.15353
0.153528
0.153527
0.153526
0.153524
0.153522
0.153521
0.153519
0.153517
0.153515
0.153513
0.153511
0.153508
0.153504
0.153497
0.153483
0.15345
0.153367
0.153151
0.180842
0.181087
0.181181
0.181219
0.181235
0.181243
0.181247
0.181251
0.181253
0.181255
0.181257
0.181259
0.181261
0.181263
0.181265
0.181266
0.181268
0.181269
0.181271
0.181272
0.181273
0.181274
0.181275
0.181276
0.181277
0.181277
0.181278
0.181278
0.181278
0.181278
0.181278
0.181278
0.181278
0.181278
0.181277
0.181277
0.181276
0.181275
0.181274
0.181273
0.181272
0.181271
0.181269
0.181268
0.181266
0.181265
0.181263
0.181261
0.181259
0.181257
0.181255
0.181253
0.181251
0.181247
0.181243
0.181235
0.181219
0.181181
0.181087
0.180842
0.21011
0.210378
0.210483
0.210525
0.210543
0.210552
0.210557
0.21056
0.210563
0.210565
0.210567
0.210569
0.210571
0.210573
0.210575
0.210577
0.210578
0.21058
0.210581
0.210582
0.210584
0.210585
0.210586
0.210586
0.210587
0.210588
0.210588
0.210589
0.210589
0.210589
0.210589
0.210589
0.210589
0.210588
0.210588
0.210587
0.210586
0.210586
0.210585
0.210584
0.210582
0.210581
0.21058
0.210578
0.210577
0.210575
0.210573
0.210571
0.210569
0.210567
0.210565
0.210563
0.21056
0.210557
0.210552
0.210543
0.210525
0.210483
0.210378
0.21011
0.240069
0.240358
0.240471
0.240518
0.240538
0.240547
0.240552
0.240556
0.240558
0.240561
0.240563
0.240565
0.240567
0.240569
0.240571
0.240572
0.240574
0.240576
0.240577
0.240578
0.240579
0.240581
0.240581
0.240582
0.240583
0.240584
0.240584
0.240585
0.240585
0.240585
0.240585
0.240585
0.240585
0.240584
0.240584
0.240583
0.240582
0.240581
0.240581
0.240579
0.240578
0.240577
0.240576
0.240574
0.240572
0.240571
0.240569
0.240567
0.240565
0.240563
0.240561
0.240558
0.240556
0.240552
0.240547
0.240538
0.240518
0.240471
0.240358
0.240069
0.27011
0.270415
0.270537
0.270587
0.270609
0.270619
0.270624
0.270628
0.270631
0.270633
0.270635
0.270637
0.270639
0.270641
0.270643
0.270645
0.270646
0.270648
0.270649
0.270651
0.270652
0.270653
0.270654
0.270655
0.270655
0.270656
0.270656
0.270657
0.270657
0.270657
0.270657
0.270657
0.270657
0.270656
0.270656
0.270655
0.270655
0.270654
0.270653
0.270652
0.270651
0.270649
0.270648
0.270646
0.270645
0.270643
0.270641
0.270639
0.270637
0.270635
0.270633
0.270631
0.270628
0.270624
0.270619
0.270609
0.270587
0.270537
0.270415
0.27011
0.299858
0.300178
0.300307
0.300361
0.300384
0.300395
0.3004
0.300404
0.300407
0.300409
0.300412
0.300414
0.300415
0.300417
0.300419
0.300421
0.300422
0.300424
0.300425
0.300426
0.300428
0.300429
0.30043
0.30043
0.300431
0.300432
0.300432
0.300433
0.300433
0.300433
0.300433
0.300433
0.300433
0.300432
0.300432
0.300431
0.30043
0.30043
0.300429
0.300428
0.300426
0.300425
0.300424
0.300422
0.300421
0.300419
0.300417
0.300415
0.300414
0.300412
0.300409
0.300407
0.300404
0.3004
0.300395
0.300384
0.300361
0.300307
0.300178
0.299858
0.329097
0.329429
0.329565
0.329622
0.329647
0.329658
0.329665
0.329668
0.329671
0.329673
0.329676
0.329678
0.32968
0.329681
0.329683
0.329685
0.329686
0.329688
0.329689
0.32969
0.329691
0.329692
0.329693
0.329694
0.329695
0.329695
0.329696
0.329696
0.329696
0.329697
0.329697
0.329696
0.329696
0.329696
0.329695
0.329695
0.329694
0.329693
0.329692
0.329691
0.32969
0.329689
0.329688
0.329686
0.329685
0.329683
0.329681
0.32968
0.329678
0.329676
0.329673
0.329671
0.329668
0.329665
0.329658
0.329647
0.329622
0.329565
0.329429
0.329097
0.357702
0.358045
0.358188
0.358248
0.358275
0.358287
0.358293
0.358297
0.3583
0.358302
0.358304
0.358306
0.358308
0.35831
0.358312
0.358313
0.358315
0.358316
0.358317
0.358318
0.35832
0.358321
0.358321
0.358322
0.358323
0.358323
0.358324
0.358324
0.358324
0.358325
0.358325
0.358324
0.358324
0.358324
0.358323
0.358323
0.358322
0.358321
0.358321
0.35832
0.358318
0.358317
0.358316
0.358315
0.358313
0.358312
0.35831
0.358308
0.358306
0.358304
0.358302
0.3583
0.358297
0.358293
0.358287
0.358275
0.358248
0.358188
0.358045
0.357702
0.385602
0.385954
0.386103
0.386166
0.386194
0.386207
0.386214
0.386218
0.386221
0.386223
0.386225
0.386227
0.386229
0.38623
0.386232
0.386233
0.386235
0.386236
0.386238
0.386239
0.38624
0.386241
0.386242
0.386242
0.386243
0.386244
0.386244
0.386244
0.386244
0.386245
0.386245
0.386244
0.386244
0.386244
0.386244
0.386243
0.386242
0.386242
0.386241
0.38624
0.386239
0.386238
0.386236
0.386235
0.386233
0.386232
0.38623
0.386229
0.386227
0.386225
0.386223
0.386221
0.386218
0.386214
0.386207
0.386194
0.386166
0.386103
0.385954
0.385602
0.412752
0.413111
0.413266
0.413333
0.413362
0.413376
0.413383
0.413387
0.413389
0.413392
0.413394
0.413396
0.413397
0.413399
0.413401
0.413402
0.413403
0.413405
0.413406
0.413407
0.413408
0.413409
0.41341
0.413411
0.413411
0.413412
0.413412
0.413412
0.413413
0.413413
0.413413
0.413413
0.413412
0.413412
0.413412
0.413411
0.413411
0.41341
0.413409
0.413408
0.413407
0.413406
0.413405
0.413403
0.413402
0.413401
0.413399
0.413397
0.413396
0.413394
0.413392
0.413389
0.413387
0.413383
0.413376
0.413362
0.413333
0.413266
0.413111
0.412752
0.439124
0.43949
0.43965
0.43972
0.439751
0.439765
0.439773
0.439777
0.43978
0.439782
0.439784
0.439786
0.439787
0.439789
0.43979
0.439792
0.439793
0.439794
0.439796
0.439797
0.439798
0.439798
0.439799
0.4398
0.439801
0.439801
0.439801
0.439802
0.439802
0.439802
0.439802
0.439802
0.439802
0.439801
0.439801
0.439801
0.4398
0.439799
0.439798
0.439798
0.439797
0.439796
0.439794
0.439793
0.439792
0.43979
0.439789
0.439787
0.439786
0.439784
0.439782
0.43978
0.439777
0.439773
0.439765
0.439751
0.43972
0.43965
0.43949
0.439124
0.464704
0.465074
0.465239
0.465312
0.465345
0.46536
0.465368
0.465372
0.465375
0.465377
0.465379
0.465381
0.465382
0.465384
0.465385
0.465387
0.465388
0.465389
0.46539
0.465391
0.465392
0.465393
0.465394
0.465394
0.465395
0.465396
0.465396
0.465396
0.465396
0.465396
0.465396
0.465396
0.465396
0.465396
0.465396
0.465395
0.465394
0.465394
0.465393
0.465392
0.465391
0.46539
0.465389
0.465388
0.465387
0.465385
0.465384
0.465382
0.465381
0.465379
0.465377
0.465375
0.465372
0.465368
0.46536
0.465345
0.465312
0.465239
0.465074
0.464704
0.489482
0.489855
0.490025
0.490101
0.490135
0.490151
0.490159
0.490164
0.490167
0.490169
0.490171
0.490172
0.490174
0.490175
0.490177
0.490178
0.490179
0.49018
0.490181
0.490182
0.490183
0.490184
0.490185
0.490185
0.490186
0.490186
0.490187
0.490187
0.490187
0.490187
0.490187
0.490187
0.490187
0.490187
0.490186
0.490186
0.490185
0.490185
0.490184
0.490183
0.490182
0.490181
0.49018
0.490179
0.490178
0.490177
0.490175
0.490174
0.490172
0.490171
0.490169
0.490167
0.490164
0.490159
0.490151
0.490135
0.490101
0.490025
0.489855
0.489482
0.513454
0.51383
0.514004
0.514083
0.514119
0.514136
0.514144
0.514149
0.514151
0.514154
0.514155
0.514157
0.514159
0.51416
0.514161
0.514162
0.514164
0.514165
0.514166
0.514167
0.514167
0.514168
0.514169
0.514169
0.51417
0.51417
0.514171
0.514171
0.514171
0.514171
0.514171
0.514171
0.514171
0.514171
0.51417
0.51417
0.514169
0.514169
0.514168
0.514167
0.514167
0.514166
0.514165
0.514164
0.514162
0.514161
0.51416
0.514159
0.514157
0.514155
0.514154
0.514151
0.514149
0.514144
0.514136
0.514119
0.514083
0.514004
0.51383
0.513454
0.536622
0.537
0.537177
0.537259
0.537296
0.537314
0.537323
0.537327
0.53733
0.537333
0.537334
0.537336
0.537337
0.537339
0.53734
0.537341
0.537342
0.537343
0.537344
0.537345
0.537346
0.537346
0.537347
0.537348
0.537348
0.537349
0.537349
0.537349
0.537349
0.537349
0.537349
0.537349
0.537349
0.537349
0.537349
0.537348
0.537348
0.537347
0.537346
0.537346
0.537345
0.537344
0.537343
0.537342
0.537341
0.53734
0.537339
0.537337
0.537336
0.537334
0.537333
0.53733
0.537327
0.537323
0.537314
0.537296
0.537259
0.537177
0.537
0.536622
0.55899
0.559368
0.559549
0.559633
0.559672
0.55969
0.5597
0.559704
0.559707
0.55971
0.559711
0.559713
0.559714
0.559715
0.559716
0.559718
0.559719
0.55972
0.55972
0.559721
0.559722
0.559723
0.559723
0.559724
0.559724
0.559725
0.559725
0.559725
0.559725
0.559726
0.559726
0.559725
0.559725
0.559725
0.559725
0.559724
0.559724
0.559723
0.559723
0.559722
0.559721
0.55972
0.55972
0.559719
0.559718
0.559716
0.559715
0.559714
0.559713
0.559711
0.55971
0.559707
0.559704
0.5597
0.55969
0.559672
0.559633
0.559549
0.559368
0.55899
0.580565
0.580941
0.581125
0.581212
0.581253
0.581272
0.581281
0.581287
0.58129
0.581292
0.581293
0.581295
0.581296
0.581297
0.581298
0.581299
0.5813
0.581301
0.581302
0.581303
0.581303
0.581304
0.581305
0.581305
0.581306
0.581306
0.581306
0.581307
0.581307
0.581307
0.581307
0.581307
0.581307
0.581306
0.581306
0.581306
0.581305
0.581305
0.581304
0.581303
0.581303
0.581302
0.581301
0.5813
0.581299
0.581298
0.581297
0.581296
0.581295
0.581293
0.581292
0.58129
0.581287
0.581281
0.581272
0.581253
0.581212
0.581125
0.580941
0.580565
0.601354
0.601729
0.601916
0.602005
0.602047
0.602067
0.602077
0.602082
0.602086
0.602088
0.602089
0.602091
0.602092
0.602093
0.602094
0.602095
0.602096
0.602097
0.602097
0.602098
0.602099
0.602099
0.6021
0.6021
0.602101
0.602101
0.602102
0.602102
0.602102
0.602102
0.602102
0.602102
0.602102
0.602102
0.602101
0.602101
0.6021
0.6021
0.602099
0.602099
0.602098
0.602097
0.602097
0.602096
0.602095
0.602094
0.602093
0.602092
0.602091
0.602089
0.602088
0.602086
0.602082
0.602077
0.602067
0.602047
0.602005
0.601916
0.601729
0.601354
0.62137
0.621742
0.621931
0.622023
0.622066
0.622087
0.622098
0.622103
0.622106
0.622108
0.62211
0.622111
0.622112
0.622113
0.622114
0.622115
0.622116
0.622117
0.622118
0.622118
0.622119
0.62212
0.62212
0.622121
0.622121
0.622121
0.622122
0.622122
0.622122
0.622122
0.622122
0.622122
0.622122
0.622122
0.622121
0.622121
0.622121
0.62212
0.62212
0.622119
0.622118
0.622118
0.622117
0.622116
0.622115
0.622114
0.622113
0.622112
0.622111
0.62211
0.622108
0.622106
0.622103
0.622098
0.622087
0.622066
0.622023
0.621931
0.621742
0.62137
0.640624
0.640993
0.641184
0.641277
0.641323
0.641345
0.641355
0.641361
0.641364
0.641366
0.641368
0.641369
0.64137
0.641371
0.641372
0.641373
0.641374
0.641374
0.641375
0.641376
0.641376
0.641377
0.641377
0.641378
0.641378
0.641378
0.641379
0.641379
0.641379
0.641379
0.641379
0.641379
0.641379
0.641379
0.641378
0.641378
0.641378
0.641377
0.641377
0.641376
0.641376
0.641375
0.641374
0.641374
0.641373
0.641372
0.641371
0.64137
0.641369
0.641368
0.641366
0.641364
0.641361
0.641355
0.641345
0.641323
0.641277
0.641184
0.640993
0.640624
0.659131
0.659496
0.659687
0.659783
0.65983
0.659853
0.659864
0.65987
0.659873
0.659875
0.659877
0.659878
0.659879
0.65988
0.659881
0.659881
0.659882
0.659883
0.659883
0.659884
0.659885
0.659885
0.659885
0.659886
0.659886
0.659886
0.659887
0.659887
0.659887
0.659887
0.659887
0.659887
0.659887
0.659887
0.659886
0.659886
0.659886
0.659885
0.659885
0.659885
0.659884
0.659883
0.659883
0.659882
0.659881
0.659881
0.65988
0.659879
0.659878
0.659877
0.659875
0.659873
0.65987
0.659864
0.659853
0.65983
0.659783
0.659687
0.659496
0.659131
0.676904
0.677264
0.677456
0.677554
0.677602
0.677626
0.677638
0.677644
0.677648
0.67765
0.677651
0.677652
0.677653
0.677654
0.677655
0.677655
0.677656
0.677657
0.677657
0.677658
0.677658
0.677659
0.677659
0.677659
0.67766
0.67766
0.67766
0.67766
0.677661
0.677661
0.677661
0.677661
0.67766
0.67766
0.67766
0.67766
0.677659
0.677659
0.677659
0.677658
0.677658
0.677657
0.677657
0.677656
0.677655
0.677655
0.677654
0.677653
0.677652
0.677651
0.67765
0.677648
0.677644
0.677638
0.677626
0.677602
0.677554
0.677456
0.677264
0.676904
0.693959
0.694314
0.694507
0.694606
0.694656
0.694681
0.694693
0.6947
0.694703
0.694705
0.694707
0.694708
0.694709
0.694709
0.69471
0.694711
0.694711
0.694712
0.694712
0.694713
0.694713
0.694714
0.694714
0.694714
0.694715
0.694715
0.694715
0.694715
0.694715
0.694715
0.694715
0.694715
0.694715
0.694715
0.694715
0.694715
0.694714
0.694714
0.694714
0.694713
0.694713
0.694712
0.694712
0.694711
0.694711
0.69471
0.694709
0.694709
0.694708
0.694707
0.694705
0.694703
0.6947
0.694693
0.694681
0.694656
0.694606
0.694507
0.694314
0.693959
0.710314
0.710663
0.710856
0.710956
0.711007
0.711033
0.711046
0.711053
0.711056
0.711059
0.71106
0.711061
0.711062
0.711062
0.711063
0.711064
0.711064
0.711065
0.711065
0.711066
0.711066
0.711066
0.711067
0.711067
0.711067
0.711068
0.711068
0.711068
0.711068
0.711068
0.711068
0.711068
0.711068
0.711068
0.711068
0.711067
0.711067
0.711067
0.711066
0.711066
0.711066
0.711065
0.711065
0.711064
0.711064
0.711063
0.711062
0.711062
0.711061
0.71106
0.711059
0.711056
0.711053
0.711046
0.711033
0.711007
0.710956
0.710856
0.710663
0.710314
0.725984
0.726327
0.726519
0.726621
0.726674
0.7267
0.726714
0.726721
0.726725
0.726727
0.726728
0.726729
0.72673
0.72673
0.726731
0.726731
0.726732
0.726732
0.726733
0.726733
0.726734
0.726734
0.726734
0.726735
0.726735
0.726735
0.726735
0.726735
0.726735
0.726735
0.726735
0.726735
0.726735
0.726735
0.726735
0.726735
0.726735
0.726734
0.726734
0.726734
0.726733
0.726733
0.726732
0.726732
0.726731
0.726731
0.72673
0.72673
0.726729
0.726728
0.726727
0.726725
0.726721
0.726714
0.7267
0.726674
0.726621
0.726519
0.726327
0.725984
0.740988
0.741324
0.741516
0.741619
0.741672
0.7417
0.741714
0.741721
0.741725
0.741727
0.741729
0.741729
0.74173
0.741731
0.741731
0.741732
0.741732
0.741733
0.741733
0.741733
0.741734
0.741734
0.741734
0.741734
0.741735
0.741735
0.741735
0.741735
0.741735
0.741735
0.741735
0.741735
0.741735
0.741735
0.741735
0.741735
0.741734
0.741734
0.741734
0.741734
0.741733
0.741733
0.741733
0.741732
0.741732
0.741731
0.741731
0.74173
0.741729
0.741729
0.741727
0.741725
0.741721
0.741714
0.7417
0.741672
0.741619
0.741516
0.741324
0.740988
0.755343
0.755672
0.755862
0.755966
0.756021
0.75605
0.756064
0.756072
0.756076
0.756078
0.756079
0.75608
0.756081
0.756081
0.756082
0.756082
0.756083
0.756083
0.756083
0.756084
0.756084
0.756084
0.756084
0.756085
0.756085
0.756085
0.756085
0.756085
0.756085
0.756085
0.756085
0.756085
0.756085
0.756085
0.756085
0.756085
0.756085
0.756084
0.756084
0.756084
0.756084
0.756083
0.756083
0.756083
0.756082
0.756082
0.756081
0.756081
0.75608
0.756079
0.756078
0.756076
0.756072
0.756064
0.75605
0.756021
0.755966
0.755862
0.755672
0.755343
0.769068
0.76939
0.769578
0.769683
0.769739
0.769768
0.769783
0.769791
0.769796
0.769798
0.769799
0.7698
0.7698
0.769801
0.769801
0.769802
0.769802
0.769802
0.769803
0.769803
0.769803
0.769803
0.769803
0.769804
0.769804
0.769804
0.769804
0.769804
0.769804
0.769804
0.769804
0.769804
0.769804
0.769804
0.769804
0.769804
0.769804
0.769803
0.769803
0.769803
0.769803
0.769803
0.769802
0.769802
0.769802
0.769801
0.769801
0.7698
0.7698
0.769799
0.769798
0.769796
0.769791
0.769783
0.769768
0.769739
0.769683
0.769578
0.76939
0.769068
0.782181
0.782495
0.782682
0.782787
0.782844
0.782874
0.78289
0.782898
0.782902
0.782905
0.782906
0.782907
0.782907
0.782908
0.782908
0.782908
0.782908
0.782909
0.782909
0.782909
0.782909
0.78291
0.78291
0.78291
0.78291
0.78291
0.78291
0.78291
0.78291
0.78291
0.78291
0.78291
0.78291
0.78291
0.78291
0.78291
0.78291
0.78291
0.78291
0.782909
0.782909
0.782909
0.782909
0.782908
0.782908
0.782908
0.782908
0.782907
0.782907
0.782906
0.782905
0.782902
0.782898
0.78289
0.782874
0.782844
0.782787
0.782682
0.782495
0.782181
0.794701
0.795007
0.795191
0.795297
0.795355
0.795386
0.795402
0.795411
0.795415
0.795418
0.795419
0.79542
0.79542
0.79542
0.795421
0.795421
0.795421
0.795421
0.795421
0.795422
0.795422
0.795422
0.795422
0.795422
0.795422
0.795422
0.795422
0.795423
0.795423
0.795423
0.795423
0.795423
0.795423
0.795422
0.795422
0.795422
0.795422
0.795422
0.795422
0.795422
0.795422
0.795421
0.795421
0.795421
0.795421
0.795421
0.79542
0.79542
0.79542
0.795419
0.795418
0.795415
0.795411
0.795402
0.795386
0.795355
0.795297
0.795191
0.795007
0.794701
0.806647
0.806944
0.807126
0.807232
0.80729
0.807322
0.807339
0.807348
0.807353
0.807355
0.807356
0.807357
0.807358
0.807358
0.807358
0.807358
0.807358
0.807358
0.807359
0.807359
0.807359
0.807359
0.807359
0.807359
0.807359
0.807359
0.807359
0.807359
0.807359
0.807359
0.807359
0.807359
0.807359
0.807359
0.807359
0.807359
0.807359
0.807359
0.807359
0.807359
0.807359
0.807359
0.807358
0.807358
0.807358
0.807358
0.807358
0.807358
0.807357
0.807356
0.807355
0.807353
0.807348
0.807339
0.807322
0.80729
0.807232
0.807126
0.806944
0.806647
0.818037
0.818325
0.818505
0.81861
0.81867
0.818702
0.81872
0.818729
0.818734
0.818736
0.818738
0.818738
0.818739
0.818739
0.818739
0.818739
0.818739
0.818739
0.818739
0.818739
0.818739
0.81874
0.81874
0.81874
0.81874
0.81874
0.81874
0.81874
0.81874
0.81874
0.81874
0.81874
0.81874
0.81874