/*--------------------------------*- C++ -*----------------------------------*\
| =========                 |                                                 |
| \\      /  F ield         | foam-extend: Open Source CFD                    |
|  \\    /   O peration     | Version:     4.0                                |
|   \\  /    A nd           | Web:         http://www.foam-extend.org         |
|    \\/     M anipulation  |                                                 |
\*---------------------------------------------------------------------------*/
FoamFile
{
    version     2.0;
    format      ascii;
    class       volScalarField;
    location    "1400";
    object      cMinus;
}
// * * * * * * * * * * * * * * * * * * * * * * * * * * * * * * * * * * * * * //

dimensions      [0 0 0 0 0 0 0];

internalField   nonuniform List<scalar> 
6960
(
-2.51795e-21
-2.45597e-21
-2.45202e-21
-2.45198e-21
-2.45218e-21
-2.45242e-21
-2.45267e-21
-2.45292e-21
-2.45316e-21
-2.45338e-21
-2.45358e-21
-2.45376e-21
-2.45391e-21
-2.45404e-21
-2.45414e-21
-2.45423e-21
-2.45429e-21
-2.45434e-21
-2.45437e-21
-2.4544e-21
-2.45441e-21
-2.45442e-21
-2.45443e-21
-2.45443e-21
-2.45442e-21
-2.45442e-21
-2.45442e-21
-2.45441e-21
-2.45441e-21
-2.45441e-21
-2.45441e-21
-2.45441e-21
-2.45441e-21
-2.45442e-21
-2.45442e-21
-2.45442e-21
-2.45443e-21
-2.45443e-21
-2.45442e-21
-2.45441e-21
-2.4544e-21
-2.45437e-21
-2.45434e-21
-2.45429e-21
-2.45423e-21
-2.45414e-21
-2.45404e-21
-2.45391e-21
-2.45376e-21
-2.45358e-21
-2.45338e-21
-2.45316e-21
-2.45292e-21
-2.45267e-21
-2.45242e-21
-2.45218e-21
-2.45198e-21
-2.45202e-21
-2.45597e-21
-2.51795e-21
-3.17332e-21
-3.09531e-21
-3.09037e-21
-3.09033e-21
-3.09058e-21
-3.09089e-21
-3.09121e-21
-3.09153e-21
-3.09184e-21
-3.09214e-21
-3.0924e-21
-3.09263e-21
-3.09283e-21
-3.093e-21
-3.09314e-21
-3.09326e-21
-3.09335e-21
-3.09342e-21
-3.09347e-21
-3.09351e-21
-3.09353e-21
-3.09355e-21
-3.09356e-21
-3.09356e-21
-3.09357e-21
-3.09357e-21
-3.09356e-21
-3.09356e-21
-3.09356e-21
-3.09356e-21
-3.09356e-21
-3.09356e-21
-3.09356e-21
-3.09356e-21
-3.09357e-21
-3.09357e-21
-3.09356e-21
-3.09356e-21
-3.09355e-21
-3.09353e-21
-3.09351e-21
-3.09347e-21
-3.09342e-21
-3.09335e-21
-3.09326e-21
-3.09314e-21
-3.093e-21
-3.09283e-21
-3.09263e-21
-3.0924e-21
-3.09214e-21
-3.09184e-21
-3.09153e-21
-3.09121e-21
-3.09089e-21
-3.09058e-21
-3.09033e-21
-3.09037e-21
-3.09531e-21
-3.17332e-21
-5.79106e-21
-5.64928e-21
-5.64036e-21
-5.6403e-21
-5.64077e-21
-5.64132e-21
-5.64192e-21
-5.64251e-21
-5.64309e-21
-5.64362e-21
-5.64411e-21
-5.64454e-21
-5.64491e-21
-5.64522e-21
-5.64548e-21
-5.6457e-21
-5.64586e-21
-5.646e-21
-5.64609e-21
-5.64617e-21
-5.64622e-21
-5.64625e-21
-5.64627e-21
-5.64629e-21
-5.64629e-21
-5.64629e-21
-5.64629e-21
-5.64629e-21
-5.64628e-21
-5.64628e-21
-5.64628e-21
-5.64628e-21
-5.64629e-21
-5.64629e-21
-5.64629e-21
-5.64629e-21
-5.64629e-21
-5.64627e-21
-5.64625e-21
-5.64622e-21
-5.64617e-21
-5.64609e-21
-5.646e-21
-5.64586e-21
-5.6457e-21
-5.64548e-21
-5.64522e-21
-5.64491e-21
-5.64454e-21
-5.64411e-21
-5.64362e-21
-5.64309e-21
-5.64251e-21
-5.64192e-21
-5.64132e-21
-5.64077e-21
-5.6403e-21
-5.64036e-21
-5.64928e-21
-5.79106e-21
-1.15367e-20
-1.12556e-20
-1.1238e-20
-1.12378e-20
-1.12388e-20
-1.12399e-20
-1.12411e-20
-1.12422e-20
-1.12434e-20
-1.12445e-20
-1.12454e-20
-1.12463e-20
-1.1247e-20
-1.12476e-20
-1.12482e-20
-1.12486e-20
-1.12489e-20
-1.12492e-20
-1.12494e-20
-1.12495e-20
-1.12496e-20
-1.12497e-20
-1.12497e-20
-1.12497e-20
-1.12497e-20
-1.12497e-20
-1.12497e-20
-1.12497e-20
-1.12497e-20
-1.12497e-20
-1.12497e-20
-1.12497e-20
-1.12497e-20
-1.12497e-20
-1.12497e-20
-1.12497e-20
-1.12497e-20
-1.12497e-20
-1.12497e-20
-1.12496e-20
-1.12495e-20
-1.12494e-20
-1.12492e-20
-1.12489e-20
-1.12486e-20
-1.12482e-20
-1.12476e-20
-1.1247e-20
-1.12463e-20
-1.12454e-20
-1.12445e-20
-1.12434e-20
-1.12422e-20
-1.12411e-20
-1.12399e-20
-1.12388e-20
-1.12378e-20
-1.1238e-20
-1.12556e-20
-1.15367e-20
-2.31061e-20
-2.25455e-20
-2.25105e-20
-2.25103e-20
-2.25122e-20
-2.25144e-20
-2.25168e-20
-2.25191e-20
-2.25214e-20
-2.25235e-20
-2.25255e-20
-2.25272e-20
-2.25286e-20
-2.25299e-20
-2.25309e-20
-2.25317e-20
-2.25324e-20
-2.25329e-20
-2.25333e-20
-2.25336e-20
-2.25338e-20
-2.25339e-20
-2.2534e-20
-2.2534e-20
-2.2534e-20
-2.2534e-20
-2.2534e-20
-2.2534e-20
-2.2534e-20
-2.2534e-20
-2.2534e-20
-2.2534e-20
-2.2534e-20
-2.2534e-20
-2.2534e-20
-2.2534e-20
-2.2534e-20
-2.2534e-20
-2.25339e-20
-2.25338e-20
-2.25336e-20
-2.25333e-20
-2.25329e-20
-2.25324e-20
-2.25317e-20
-2.25309e-20
-2.25299e-20
-2.25286e-20
-2.25272e-20
-2.25255e-20
-2.25235e-20
-2.25214e-20
-2.25191e-20
-2.25168e-20
-2.25144e-20
-2.25122e-20
-2.25103e-20
-2.25105e-20
-2.25455e-20
-2.31061e-20
-4.59436e-20
-4.48339e-20
-4.47651e-20
-4.47647e-20
-4.47685e-20
-4.47729e-20
-4.47776e-20
-4.47823e-20
-4.47868e-20
-4.4791e-20
-4.47948e-20
-4.47982e-20
-4.48011e-20
-4.48036e-20
-4.48056e-20
-4.48072e-20
-4.48085e-20
-4.48095e-20
-4.48103e-20
-4.48108e-20
-4.48112e-20
-4.48114e-20
-4.48115e-20
-4.48116e-20
-4.48116e-20
-4.48116e-20
-4.48116e-20
-4.48115e-20
-4.48115e-20
-4.48115e-20
-4.48115e-20
-4.48115e-20
-4.48115e-20
-4.48116e-20
-4.48116e-20
-4.48116e-20
-4.48116e-20
-4.48115e-20
-4.48114e-20
-4.48112e-20
-4.48108e-20
-4.48103e-20
-4.48095e-20
-4.48085e-20
-4.48072e-20
-4.48056e-20
-4.48036e-20
-4.48011e-20
-4.47982e-20
-4.47948e-20
-4.4791e-20
-4.47868e-20
-4.47823e-20
-4.47776e-20
-4.47729e-20
-4.47685e-20
-4.47647e-20
-4.47651e-20
-4.48339e-20
-4.59436e-20
-9.07938e-20
-8.86111e-20
-8.84765e-20
-8.84759e-20
-8.84832e-20
-8.8492e-20
-8.85012e-20
-8.85105e-20
-8.85194e-20
-8.85277e-20
-8.85353e-20
-8.85419e-20
-8.85476e-20
-8.85524e-20
-8.85564e-20
-8.85596e-20
-8.85622e-20
-8.85641e-20
-8.85656e-20
-8.85666e-20
-8.85673e-20
-8.85678e-20
-8.8568e-20
-8.85681e-20
-8.85681e-20
-8.85681e-20
-8.8568e-20
-8.85679e-20
-8.85679e-20
-8.85678e-20
-8.85678e-20
-8.85679e-20
-8.85679e-20
-8.8568e-20
-8.85681e-20
-8.85681e-20
-8.85681e-20
-8.8568e-20
-8.85678e-20
-8.85673e-20
-8.85666e-20
-8.85656e-20
-8.85641e-20
-8.85622e-20
-8.85596e-20
-8.85564e-20
-8.85524e-20
-8.85476e-20
-8.85419e-20
-8.85353e-20
-8.85277e-20
-8.85194e-20
-8.85105e-20
-8.85012e-20
-8.8492e-20
-8.84832e-20
-8.84759e-20
-8.84765e-20
-8.86111e-20
-9.07938e-20
-1.78743e-19
-1.74465e-19
-1.74203e-19
-1.74202e-19
-1.74217e-19
-1.74234e-19
-1.74252e-19
-1.7427e-19
-1.74288e-19
-1.74304e-19
-1.74319e-19
-1.74332e-19
-1.74343e-19
-1.74353e-19
-1.74361e-19
-1.74367e-19
-1.74372e-19
-1.74376e-19
-1.74378e-19
-1.7438e-19
-1.74382e-19
-1.74383e-19
-1.74383e-19
-1.74383e-19
-1.74383e-19
-1.74383e-19
-1.74383e-19
-1.74383e-19
-1.74383e-19
-1.74383e-19
-1.74383e-19
-1.74383e-19
-1.74383e-19
-1.74383e-19
-1.74383e-19
-1.74383e-19
-1.74383e-19
-1.74383e-19
-1.74383e-19
-1.74382e-19
-1.7438e-19
-1.74378e-19
-1.74376e-19
-1.74372e-19
-1.74367e-19
-1.74361e-19
-1.74353e-19
-1.74343e-19
-1.74332e-19
-1.74319e-19
-1.74304e-19
-1.74288e-19
-1.7427e-19
-1.74252e-19
-1.74234e-19
-1.74217e-19
-1.74202e-19
-1.74203e-19
-1.74465e-19
-1.78743e-19
-3.51077e-19
-3.42714e-19
-3.42205e-19
-3.42203e-19
-3.42231e-19
-3.42265e-19
-3.42301e-19
-3.42337e-19
-3.42371e-19
-3.42404e-19
-3.42433e-19
-3.42458e-19
-3.4248e-19
-3.42499e-19
-3.42514e-19
-3.42526e-19
-3.42536e-19
-3.42543e-19
-3.42549e-19
-3.42552e-19
-3.42555e-19
-3.42557e-19
-3.42557e-19
-3.42558e-19
-3.42558e-19
-3.42557e-19
-3.42557e-19
-3.42557e-19
-3.42557e-19
-3.42556e-19
-3.42556e-19
-3.42557e-19
-3.42557e-19
-3.42557e-19
-3.42557e-19
-3.42558e-19
-3.42558e-19
-3.42557e-19
-3.42557e-19
-3.42555e-19
-3.42552e-19
-3.42549e-19
-3.42543e-19
-3.42536e-19
-3.42526e-19
-3.42514e-19
-3.42499e-19
-3.4248e-19
-3.42458e-19
-3.42433e-19
-3.42404e-19
-3.42371e-19
-3.42337e-19
-3.42301e-19
-3.42265e-19
-3.42231e-19
-3.42203e-19
-3.42205e-19
-3.42714e-19
-3.51077e-19
-6.88491e-19
-6.72157e-19
-6.71169e-19
-6.71167e-19
-6.71223e-19
-6.71289e-19
-6.7136e-19
-6.7143e-19
-6.71498e-19
-6.71561e-19
-6.71618e-19
-6.71668e-19
-6.71711e-19
-6.71748e-19
-6.71778e-19
-6.71801e-19
-6.7182e-19
-6.71835e-19
-6.71845e-19
-6.71853e-19
-6.71858e-19
-6.71861e-19
-6.71862e-19
-6.71863e-19
-6.71862e-19
-6.71862e-19
-6.71861e-19
-6.7186e-19
-6.7186e-19
-6.7186e-19
-6.7186e-19
-6.7186e-19
-6.7186e-19
-6.71861e-19
-6.71862e-19
-6.71862e-19
-6.71863e-19
-6.71862e-19
-6.71861e-19
-6.71858e-19
-6.71853e-19
-6.71845e-19
-6.71835e-19
-6.7182e-19
-6.71801e-19
-6.71778e-19
-6.71748e-19
-6.71711e-19
-6.71668e-19
-6.71618e-19
-6.71561e-19
-6.71498e-19
-6.7143e-19
-6.7136e-19
-6.71289e-19
-6.71223e-19
-6.71167e-19
-6.71169e-19
-6.72157e-19
-6.88491e-19
-1.34831e-18
-1.31643e-18
-1.31452e-18
-1.31452e-18
-1.31463e-18
-1.31476e-18
-1.3149e-18
-1.31504e-18
-1.31517e-18
-1.31529e-18
-1.3154e-18
-1.3155e-18
-1.31559e-18
-1.31566e-18
-1.31572e-18
-1.31576e-18
-1.3158e-18
-1.31583e-18
-1.31585e-18
-1.31586e-18
-1.31587e-18
-1.31588e-18
-1.31588e-18
-1.31588e-18
-1.31588e-18
-1.31588e-18
-1.31588e-18
-1.31588e-18
-1.31588e-18
-1.31588e-18
-1.31588e-18
-1.31588e-18
-1.31588e-18
-1.31588e-18
-1.31588e-18
-1.31588e-18
-1.31588e-18
-1.31588e-18
-1.31588e-18
-1.31587e-18
-1.31586e-18
-1.31585e-18
-1.31583e-18
-1.3158e-18
-1.31576e-18
-1.31572e-18
-1.31566e-18
-1.31559e-18
-1.3155e-18
-1.3154e-18
-1.31529e-18
-1.31517e-18
-1.31504e-18
-1.3149e-18
-1.31476e-18
-1.31463e-18
-1.31452e-18
-1.31452e-18
-1.31643e-18
-1.34831e-18
-2.63617e-18
-2.57399e-18
-2.57029e-18
-2.57029e-18
-2.5705e-18
-2.57076e-18
-2.57103e-18
-2.5713e-18
-2.57157e-18
-2.57181e-18
-2.57203e-18
-2.57222e-18
-2.57239e-18
-2.57253e-18
-2.57264e-18
-2.57273e-18
-2.5728e-18
-2.57286e-18
-2.5729e-18
-2.57293e-18
-2.57294e-18
-2.57296e-18
-2.57296e-18
-2.57296e-18
-2.57296e-18
-2.57296e-18
-2.57296e-18
-2.57295e-18
-2.57295e-18
-2.57295e-18
-2.57295e-18
-2.57295e-18
-2.57295e-18
-2.57296e-18
-2.57296e-18
-2.57296e-18
-2.57296e-18
-2.57296e-18
-2.57296e-18
-2.57294e-18
-2.57293e-18
-2.5729e-18
-2.57286e-18
-2.5728e-18
-2.57273e-18
-2.57264e-18
-2.57253e-18
-2.57239e-18
-2.57222e-18
-2.57203e-18
-2.57181e-18
-2.57157e-18
-2.5713e-18
-2.57103e-18
-2.57076e-18
-2.5705e-18
-2.57029e-18
-2.57029e-18
-2.57399e-18
-2.63617e-18
-5.14248e-18
-5.02124e-18
-5.01408e-18
-5.01408e-18
-5.01451e-18
-5.01501e-18
-5.01555e-18
-5.01608e-18
-5.0166e-18
-5.01707e-18
-5.01751e-18
-5.01788e-18
-5.01821e-18
-5.01848e-18
-5.01871e-18
-5.01889e-18
-5.01903e-18
-5.01913e-18
-5.01921e-18
-5.01926e-18
-5.0193e-18
-5.01932e-18
-5.01933e-18
-5.01933e-18
-5.01933e-18
-5.01932e-18
-5.01932e-18
-5.01931e-18
-5.01931e-18
-5.0193e-18
-5.0193e-18
-5.01931e-18
-5.01931e-18
-5.01932e-18
-5.01932e-18
-5.01933e-18
-5.01933e-18
-5.01933e-18
-5.01932e-18
-5.0193e-18
-5.01926e-18
-5.01921e-18
-5.01913e-18
-5.01903e-18
-5.01889e-18
-5.01871e-18
-5.01848e-18
-5.01821e-18
-5.01788e-18
-5.01751e-18
-5.01707e-18
-5.0166e-18
-5.01608e-18
-5.01555e-18
-5.01501e-18
-5.01451e-18
-5.01408e-18
-5.01408e-18
-5.02124e-18
-5.14248e-18
-9.99756e-18
-9.76125e-18
-9.74742e-18
-9.74744e-18
-9.74828e-18
-9.74927e-18
-9.75032e-18
-9.75138e-18
-9.75239e-18
-9.75332e-18
-9.75417e-18
-9.75492e-18
-9.75555e-18
-9.75609e-18
-9.75653e-18
-9.75688e-18
-9.75716e-18
-9.75736e-18
-9.75751e-18
-9.75762e-18
-9.75769e-18
-9.75773e-18
-9.75775e-18
-9.75775e-18
-9.75774e-18
-9.75773e-18
-9.75772e-18
-9.7577e-18
-9.75769e-18
-9.75769e-18
-9.75769e-18
-9.75769e-18
-9.7577e-18
-9.75772e-18
-9.75773e-18
-9.75774e-18
-9.75775e-18
-9.75775e-18
-9.75773e-18
-9.75769e-18
-9.75762e-18
-9.75751e-18
-9.75736e-18
-9.75716e-18
-9.75688e-18
-9.75653e-18
-9.75609e-18
-9.75555e-18
-9.75492e-18
-9.75417e-18
-9.75332e-18
-9.75239e-18
-9.75138e-18
-9.75032e-18
-9.74927e-18
-9.74828e-18
-9.74744e-18
-9.74742e-18
-9.76125e-18
-9.99756e-18
-1.93337e-17
-1.88733e-17
-1.88466e-17
-1.88467e-17
-1.88483e-17
-1.88503e-17
-1.88523e-17
-1.88544e-17
-1.88564e-17
-1.88582e-17
-1.88599e-17
-1.88614e-17
-1.88626e-17
-1.88637e-17
-1.88645e-17
-1.88652e-17
-1.88658e-17
-1.88662e-17
-1.88665e-17
-1.88667e-17
-1.88668e-17
-1.88669e-17
-1.88669e-17
-1.88669e-17
-1.88669e-17
-1.88669e-17
-1.88668e-17
-1.88668e-17
-1.88668e-17
-1.88668e-17
-1.88668e-17
-1.88668e-17
-1.88668e-17
-1.88668e-17
-1.88669e-17
-1.88669e-17
-1.88669e-17
-1.88669e-17
-1.88669e-17
-1.88668e-17
-1.88667e-17
-1.88665e-17
-1.88662e-17
-1.88658e-17
-1.88652e-17
-1.88645e-17
-1.88637e-17
-1.88626e-17
-1.88614e-17
-1.88599e-17
-1.88582e-17
-1.88564e-17
-1.88544e-17
-1.88523e-17
-1.88503e-17
-1.88483e-17
-1.88467e-17
-1.88466e-17
-1.88733e-17
-1.93337e-17
-3.70726e-17
-3.61758e-17
-3.61243e-17
-3.61245e-17
-3.61278e-17
-3.61316e-17
-3.61357e-17
-3.61398e-17
-3.61437e-17
-3.61473e-17
-3.61506e-17
-3.61535e-17
-3.61559e-17
-3.6158e-17
-3.61597e-17
-3.6161e-17
-3.61621e-17
-3.61629e-17
-3.61634e-17
-3.61638e-17
-3.61641e-17
-3.61642e-17
-3.61643e-17
-3.61643e-17
-3.61643e-17
-3.61642e-17
-3.61642e-17
-3.61641e-17
-3.61641e-17
-3.61641e-17
-3.61641e-17
-3.61641e-17
-3.61641e-17
-3.61642e-17
-3.61642e-17
-3.61643e-17
-3.61643e-17
-3.61643e-17
-3.61642e-17
-3.61641e-17
-3.61638e-17
-3.61634e-17
-3.61629e-17
-3.61621e-17
-3.6161e-17
-3.61597e-17
-3.6158e-17
-3.61559e-17
-3.61535e-17
-3.61506e-17
-3.61473e-17
-3.61437e-17
-3.61398e-17
-3.61357e-17
-3.61316e-17
-3.61278e-17
-3.61245e-17
-3.61243e-17
-3.61758e-17
-3.70726e-17
-7.00979e-17
-6.83518e-17
-6.82527e-17
-6.82533e-17
-6.82597e-17
-6.82672e-17
-6.82752e-17
-6.82832e-17
-6.82909e-17
-6.82981e-17
-6.83045e-17
-6.83101e-17
-6.8315e-17
-6.8319e-17
-6.83223e-17
-6.8325e-17
-6.8327e-17
-6.83286e-17
-6.83297e-17
-6.83305e-17
-6.8331e-17
-6.83312e-17
-6.83314e-17
-6.83314e-17
-6.83313e-17
-6.83312e-17
-6.83311e-17
-6.8331e-17
-6.83309e-17
-6.83308e-17
-6.83308e-17
-6.83309e-17
-6.8331e-17
-6.83311e-17
-6.83312e-17
-6.83313e-17
-6.83314e-17
-6.83314e-17
-6.83312e-17
-6.8331e-17
-6.83305e-17
-6.83297e-17
-6.83286e-17
-6.8327e-17
-6.8325e-17
-6.83223e-17
-6.8319e-17
-6.8315e-17
-6.83101e-17
-6.83045e-17
-6.82981e-17
-6.82909e-17
-6.82832e-17
-6.82752e-17
-6.82672e-17
-6.82597e-17
-6.82533e-17
-6.82527e-17
-6.83518e-17
-7.00979e-17
-1.29377e-16
-1.25979e-16
-1.25788e-16
-1.2579e-16
-1.25802e-16
-1.25817e-16
-1.25833e-16
-1.25848e-16
-1.25864e-16
-1.25878e-16
-1.2589e-16
-1.25901e-16
-1.25911e-16
-1.25919e-16
-1.25925e-16
-1.2593e-16
-1.25934e-16
-1.25938e-16
-1.2594e-16
-1.25941e-16
-1.25942e-16
-1.25943e-16
-1.25943e-16
-1.25943e-16
-1.25943e-16
-1.25942e-16
-1.25942e-16
-1.25942e-16
-1.25942e-16
-1.25942e-16
-1.25942e-16
-1.25942e-16
-1.25942e-16
-1.25942e-16
-1.25942e-16
-1.25943e-16
-1.25943e-16
-1.25943e-16
-1.25943e-16
-1.25942e-16
-1.25941e-16
-1.2594e-16
-1.25938e-16
-1.25934e-16
-1.2593e-16
-1.25925e-16
-1.25919e-16
-1.25911e-16
-1.25901e-16
-1.2589e-16
-1.25878e-16
-1.25864e-16
-1.25848e-16
-1.25833e-16
-1.25817e-16
-1.25802e-16
-1.2579e-16
-1.25788e-16
-1.25979e-16
-1.29377e-16
-2.28374e-16
-2.21764e-16
-2.21398e-16
-2.21401e-16
-2.21426e-16
-2.21455e-16
-2.21486e-16
-2.21517e-16
-2.21547e-16
-2.21574e-16
-2.21599e-16
-2.21621e-16
-2.21639e-16
-2.21655e-16
-2.21668e-16
-2.21678e-16
-2.21686e-16
-2.21692e-16
-2.21696e-16
-2.21699e-16
-2.217e-16
-2.21701e-16
-2.21702e-16
-2.21702e-16
-2.21701e-16
-2.21701e-16
-2.217e-16
-2.217e-16
-2.217e-16
-2.21699e-16
-2.21699e-16
-2.217e-16
-2.217e-16
-2.217e-16
-2.21701e-16
-2.21701e-16
-2.21702e-16
-2.21702e-16
-2.21701e-16
-2.217e-16
-2.21699e-16
-2.21696e-16
-2.21692e-16
-2.21686e-16
-2.21678e-16
-2.21668e-16
-2.21655e-16
-2.21639e-16
-2.21621e-16
-2.21599e-16
-2.21574e-16
-2.21547e-16
-2.21517e-16
-2.21486e-16
-2.21455e-16
-2.21426e-16
-2.21401e-16
-2.21398e-16
-2.21764e-16
-2.28374e-16
-3.67586e-16
-3.54735e-16
-3.54032e-16
-3.54039e-16
-3.54088e-16
-3.54145e-16
-3.54205e-16
-3.54266e-16
-3.54324e-16
-3.54378e-16
-3.54427e-16
-3.5447e-16
-3.54506e-16
-3.54536e-16
-3.54561e-16
-3.54581e-16
-3.54596e-16
-3.54608e-16
-3.54616e-16
-3.54621e-16
-3.54625e-16
-3.54627e-16
-3.54627e-16
-3.54627e-16
-3.54626e-16
-3.54625e-16
-3.54624e-16
-3.54623e-16
-3.54622e-16
-3.54622e-16
-3.54622e-16
-3.54622e-16
-3.54623e-16
-3.54624e-16
-3.54625e-16
-3.54626e-16
-3.54627e-16
-3.54627e-16
-3.54627e-16
-3.54625e-16
-3.54621e-16
-3.54616e-16
-3.54608e-16
-3.54596e-16
-3.54581e-16
-3.54561e-16
-3.54536e-16
-3.54506e-16
-3.5447e-16
-3.54427e-16
-3.54378e-16
-3.54324e-16
-3.54266e-16
-3.54205e-16
-3.54145e-16
-3.54088e-16
-3.54039e-16
-3.54032e-16
-3.54735e-16
-3.67586e-16
-4.63271e-16
-4.38301e-16
-4.36955e-16
-4.36969e-16
-4.37064e-16
-4.37175e-16
-4.37293e-16
-4.37411e-16
-4.37525e-16
-4.3763e-16
-4.37725e-16
-4.37808e-16
-4.37879e-16
-4.37939e-16
-4.37987e-16
-4.38025e-16
-4.38055e-16
-4.38076e-16
-4.38092e-16
-4.38102e-16
-4.38108e-16
-4.38111e-16
-4.38112e-16
-4.38111e-16
-4.38109e-16
-4.38107e-16
-4.38105e-16
-4.38103e-16
-4.38101e-16
-4.38101e-16
-4.38101e-16
-4.38101e-16
-4.38103e-16
-4.38105e-16
-4.38107e-16
-4.38109e-16
-4.38111e-16
-4.38112e-16
-4.38111e-16
-4.38108e-16
-4.38102e-16
-4.38092e-16
-4.38076e-16
-4.38055e-16
-4.38025e-16
-4.37987e-16
-4.37939e-16
-4.37879e-16
-4.37808e-16
-4.37725e-16
-4.3763e-16
-4.37525e-16
-4.37411e-16
-4.37293e-16
-4.37175e-16
-4.37064e-16
-4.36969e-16
-4.36955e-16
-4.38301e-16
-4.63271e-16
-6.98644e-17
-2.13758e-17
-1.87977e-17
-1.88261e-17
-1.90077e-17
-1.92221e-17
-1.94505e-17
-1.96798e-17
-1.99003e-17
-2.01047e-17
-2.02886e-17
-2.04495e-17
-2.05867e-17
-2.07008e-17
-2.07934e-17
-2.08663e-17
-2.09221e-17
-2.0963e-17
-2.09916e-17
-2.10101e-17
-2.10206e-17
-2.10251e-17
-2.10252e-17
-2.10224e-17
-2.10178e-17
-2.10125e-17
-2.10074e-17
-2.1003e-17
-2.09998e-17
-2.09982e-17
-2.09982e-17
-2.09998e-17
-2.1003e-17
-2.10074e-17
-2.10125e-17
-2.10178e-17
-2.10224e-17
-2.10252e-17
-2.10251e-17
-2.10206e-17
-2.10101e-17
-2.09916e-17
-2.0963e-17
-2.09221e-17
-2.08664e-17
-2.07934e-17
-2.07008e-17
-2.05867e-17
-2.04495e-17
-2.02886e-17
-2.01047e-17
-1.99003e-17
-1.96798e-17
-1.94505e-17
-1.92221e-17
-1.90077e-17
-1.88261e-17
-1.87977e-17
-2.13758e-17
-6.98644e-17
2.63568e-15
2.72977e-15
2.73471e-15
2.73466e-15
2.73432e-15
2.73392e-15
2.73348e-15
2.73304e-15
2.73262e-15
2.73223e-15
2.73188e-15
2.73157e-15
2.73131e-15
2.7311e-15
2.73092e-15
2.73079e-15
2.73069e-15
2.73061e-15
2.73056e-15
2.73053e-15
2.73052e-15
2.73051e-15
2.73052e-15
2.73053e-15
2.73054e-15
2.73055e-15
2.73056e-15
2.73057e-15
2.73058e-15
2.73059e-15
2.73059e-15
2.73058e-15
2.73057e-15
2.73056e-15
2.73055e-15
2.73054e-15
2.73053e-15
2.73052e-15
2.73051e-15
2.73052e-15
2.73053e-15
2.73056e-15
2.73061e-15
2.73069e-15
2.73079e-15
2.73092e-15
2.7311e-15
2.73131e-15
2.73157e-15
2.73188e-15
2.73223e-15
2.73262e-15
2.73304e-15
2.73348e-15
2.73392e-15
2.73432e-15
2.73466e-15
2.73471e-15
2.72977e-15
2.63568e-15
1.44818e-14
1.46643e-14
1.46738e-14
1.46737e-14
1.46731e-14
1.46724e-14
1.46716e-14
1.46708e-14
1.467e-14
1.46693e-14
1.46686e-14
1.4668e-14
1.46676e-14
1.46672e-14
1.46669e-14
1.46666e-14
1.46665e-14
1.46663e-14
1.46663e-14
1.46662e-14
1.46662e-14
1.46662e-14
1.46662e-14
1.46663e-14
1.46663e-14
1.46663e-14
1.46664e-14
1.46664e-14
1.46664e-14
1.46664e-14
1.46664e-14
1.46664e-14
1.46664e-14
1.46664e-14
1.46663e-14
1.46663e-14
1.46663e-14
1.46662e-14
1.46662e-14
1.46662e-14
1.46662e-14
1.46663e-14
1.46663e-14
1.46665e-14
1.46666e-14
1.46669e-14
1.46672e-14
1.46676e-14
1.4668e-14
1.46686e-14
1.46693e-14
1.467e-14
1.46708e-14
1.46716e-14
1.46724e-14
1.46731e-14
1.46737e-14
1.46738e-14
1.46643e-14
1.44818e-14
6.01801e-14
6.05337e-14
6.0552e-14
6.05521e-14
6.05511e-14
6.05498e-14
6.05484e-14
6.0547e-14
6.05457e-14
6.05444e-14
6.05433e-14
6.05423e-14
6.05415e-14
6.05408e-14
6.05403e-14
6.054e-14
6.05397e-14
6.05396e-14
6.05395e-14
6.05395e-14
6.05396e-14
6.05396e-14
6.05397e-14
6.05398e-14
6.05399e-14
6.054e-14
6.05401e-14
6.05402e-14
6.05403e-14
6.05403e-14
6.05403e-14
6.05403e-14
6.05402e-14
6.05401e-14
6.054e-14
6.05399e-14
6.05398e-14
6.05397e-14
6.05396e-14
6.05396e-14
6.05395e-14
6.05395e-14
6.05396e-14
6.05397e-14
6.054e-14
6.05403e-14
6.05408e-14
6.05415e-14
6.05423e-14
6.05433e-14
6.05444e-14
6.05457e-14
6.0547e-14
6.05484e-14
6.05498e-14
6.05511e-14
6.05521e-14
6.0552e-14
6.05337e-14
6.01801e-14
2.28146e-13
2.28831e-13
2.28867e-13
2.28868e-13
2.28867e-13
2.28865e-13
2.28863e-13
2.28861e-13
2.28859e-13
2.28857e-13
2.28855e-13
2.28854e-13
2.28853e-13
2.28852e-13
2.28851e-13
2.28851e-13
2.28851e-13
2.28851e-13
2.28851e-13
2.28851e-13
2.28852e-13
2.28852e-13
2.28852e-13
2.28853e-13
2.28853e-13
2.28853e-13
2.28854e-13
2.28854e-13
2.28854e-13
2.28854e-13
2.28854e-13
2.28854e-13
2.28854e-13
2.28854e-13
2.28853e-13
2.28853e-13
2.28853e-13
2.28852e-13
2.28852e-13
2.28852e-13
2.28851e-13
2.28851e-13
2.28851e-13
2.28851e-13
2.28851e-13
2.28851e-13
2.28852e-13
2.28853e-13
2.28854e-13
2.28855e-13
2.28857e-13
2.28859e-13
2.28861e-13
2.28863e-13
2.28865e-13
2.28867e-13
2.28868e-13
2.28867e-13
2.28831e-13
2.28146e-13
8.34633e-13
8.35959e-13
8.36029e-13
8.36034e-13
8.36035e-13
8.36035e-13
8.36034e-13
8.36032e-13
8.3603e-13
8.36029e-13
8.36028e-13
8.36027e-13
8.36026e-13
8.36026e-13
8.36027e-13
8.36027e-13
8.36028e-13
8.3603e-13
8.36031e-13
8.36033e-13
8.36034e-13
8.36035e-13
8.36037e-13
8.36038e-13
8.36039e-13
8.36041e-13
8.36041e-13
8.36042e-13
8.36042e-13
8.36043e-13
8.36043e-13
8.36042e-13
8.36042e-13
8.36041e-13
8.36041e-13
8.36039e-13
8.36038e-13
8.36037e-13
8.36035e-13
8.36034e-13
8.36033e-13
8.36031e-13
8.3603e-13
8.36028e-13
8.36027e-13
8.36027e-13
8.36026e-13
8.36026e-13
8.36027e-13
8.36028e-13
8.36029e-13
8.3603e-13
8.36032e-13
8.36034e-13
8.36035e-13
8.36035e-13
8.36034e-13
8.36029e-13
8.35959e-13
8.34633e-13
3.01644e-12
3.01901e-12
3.01916e-12
3.01918e-12
3.01919e-12
3.0192e-12
3.01921e-12
3.01922e-12
3.01922e-12
3.01923e-12
3.01923e-12
3.01924e-12
3.01924e-12
3.01925e-12
3.01926e-12
3.01926e-12
3.01927e-12
3.01928e-12
3.01928e-12
3.01929e-12
3.0193e-12
3.0193e-12
3.01931e-12
3.01931e-12
3.01932e-12
3.01932e-12
3.01932e-12
3.01932e-12
3.01933e-12
3.01933e-12
3.01933e-12
3.01933e-12
3.01932e-12
3.01932e-12
3.01932e-12
3.01932e-12
3.01931e-12
3.01931e-12
3.0193e-12
3.0193e-12
3.01929e-12
3.01928e-12
3.01928e-12
3.01927e-12
3.01926e-12
3.01926e-12
3.01925e-12
3.01924e-12
3.01924e-12
3.01923e-12
3.01923e-12
3.01922e-12
3.01922e-12
3.01921e-12
3.0192e-12
3.01919e-12
3.01918e-12
3.01916e-12
3.01901e-12
3.01644e-12
1.08883e-11
1.08933e-11
1.08936e-11
1.08937e-11
1.08937e-11
1.08938e-11
1.08938e-11
1.08939e-11
1.08939e-11
1.0894e-11
1.0894e-11
1.08941e-11
1.08941e-11
1.08941e-11
1.08942e-11
1.08942e-11
1.08942e-11
1.08943e-11
1.08943e-11
1.08943e-11
1.08943e-11
1.08944e-11
1.08944e-11
1.08944e-11
1.08944e-11
1.08944e-11
1.08944e-11
1.08944e-11
1.08944e-11
1.08944e-11
1.08944e-11
1.08944e-11
1.08944e-11
1.08944e-11
1.08944e-11
1.08944e-11
1.08944e-11
1.08944e-11
1.08944e-11
1.08943e-11
1.08943e-11
1.08943e-11
1.08943e-11
1.08942e-11
1.08942e-11
1.08942e-11
1.08941e-11
1.08941e-11
1.08941e-11
1.0894e-11
1.0894e-11
1.08939e-11
1.08939e-11
1.08938e-11
1.08938e-11
1.08937e-11
1.08937e-11
1.08936e-11
1.08933e-11
1.08883e-11
3.94449e-11
3.94547e-11
3.94554e-11
3.94558e-11
3.9456e-11
3.94563e-11
3.94566e-11
3.94568e-11
3.9457e-11
3.94572e-11
3.94574e-11
3.94576e-11
3.94577e-11
3.94579e-11
3.9458e-11
3.94582e-11
3.94583e-11
3.94584e-11
3.94585e-11
3.94586e-11
3.94587e-11
3.94588e-11
3.94589e-11
3.94589e-11
3.9459e-11
3.9459e-11
3.94591e-11
3.94591e-11
3.94591e-11
3.94591e-11
3.94591e-11
3.94591e-11
3.94591e-11
3.94591e-11
3.9459e-11
3.9459e-11
3.94589e-11
3.94589e-11
3.94588e-11
3.94587e-11
3.94586e-11
3.94585e-11
3.94584e-11
3.94583e-11
3.94582e-11
3.9458e-11
3.94579e-11
3.94577e-11
3.94576e-11
3.94574e-11
3.94572e-11
3.9457e-11
3.94568e-11
3.94566e-11
3.94563e-11
3.9456e-11
3.94558e-11
3.94554e-11
3.94547e-11
3.94449e-11
1.43618e-10
1.43638e-10
1.4364e-10
1.43641e-10
1.43642e-10
1.43643e-10
1.43644e-10
1.43645e-10
1.43646e-10
1.43647e-10
1.43648e-10
1.43648e-10
1.43649e-10
1.4365e-10
1.4365e-10
1.43651e-10
1.43651e-10
1.43652e-10
1.43652e-10
1.43653e-10
1.43653e-10
1.43653e-10
1.43654e-10
1.43654e-10
1.43654e-10
1.43654e-10
1.43654e-10
1.43654e-10
1.43655e-10
1.43655e-10
1.43655e-10
1.43655e-10
1.43654e-10
1.43654e-10
1.43654e-10
1.43654e-10
1.43654e-10
1.43654e-10
1.43653e-10
1.43653e-10
1.43653e-10
1.43652e-10
1.43652e-10
1.43651e-10
1.43651e-10
1.4365e-10
1.4365e-10
1.43649e-10
1.43648e-10
1.43648e-10
1.43647e-10
1.43646e-10
1.43645e-10
1.43644e-10
1.43643e-10
1.43642e-10
1.43641e-10
1.4364e-10
1.43638e-10
1.43618e-10
5.25175e-10
5.25214e-10
5.2522e-10
5.25225e-10
5.2523e-10
5.25234e-10
5.25238e-10
5.25242e-10
5.25246e-10
5.25249e-10
5.25252e-10
5.25255e-10
5.25257e-10
5.2526e-10
5.25262e-10
5.25264e-10
5.25266e-10
5.25268e-10
5.2527e-10
5.25271e-10
5.25272e-10
5.25274e-10
5.25275e-10
5.25276e-10
5.25276e-10
5.25277e-10
5.25277e-10
5.25278e-10
5.25278e-10
5.25278e-10
5.25278e-10
5.25278e-10
5.25278e-10
5.25277e-10
5.25277e-10
5.25276e-10
5.25276e-10
5.25275e-10
5.25274e-10
5.25272e-10
5.25271e-10
5.2527e-10
5.25268e-10
5.25266e-10
5.25264e-10
5.25262e-10
5.2526e-10
5.25257e-10
5.25255e-10
5.25252e-10
5.25249e-10
5.25246e-10
5.25242e-10
5.25238e-10
5.25234e-10
5.2523e-10
5.25225e-10
5.2522e-10
5.25214e-10
5.25175e-10
1.92451e-09
1.92459e-09
1.92462e-09
1.92463e-09
1.92465e-09
1.92467e-09
1.92468e-09
1.9247e-09
1.92471e-09
1.92473e-09
1.92474e-09
1.92475e-09
1.92476e-09
1.92477e-09
1.92478e-09
1.92478e-09
1.92479e-09
1.9248e-09
1.9248e-09
1.92481e-09
1.92481e-09
1.92482e-09
1.92482e-09
1.92483e-09
1.92483e-09
1.92483e-09
1.92483e-09
1.92484e-09
1.92484e-09
1.92484e-09
1.92484e-09
1.92484e-09
1.92484e-09
1.92483e-09
1.92483e-09
1.92483e-09
1.92483e-09
1.92482e-09
1.92482e-09
1.92481e-09
1.92481e-09
1.9248e-09
1.9248e-09
1.92479e-09
1.92478e-09
1.92478e-09
1.92477e-09
1.92476e-09
1.92475e-09
1.92474e-09
1.92473e-09
1.92471e-09
1.9247e-09
1.92468e-09
1.92467e-09
1.92465e-09
1.92463e-09
1.92462e-09
1.92459e-09
1.92451e-09
7.04401e-09
7.0442e-09
7.04428e-09
7.04435e-09
7.04441e-09
7.04448e-09
7.04454e-09
7.04459e-09
7.04464e-09
7.04469e-09
7.04474e-09
7.04478e-09
7.04482e-09
7.04485e-09
7.04488e-09
7.04491e-09
7.04494e-09
7.04497e-09
7.04499e-09
7.04501e-09
7.04503e-09
7.04504e-09
7.04506e-09
7.04507e-09
7.04508e-09
7.04509e-09
7.0451e-09
7.0451e-09
7.04511e-09
7.04511e-09
7.04511e-09
7.04511e-09
7.0451e-09
7.0451e-09
7.04509e-09
7.04508e-09
7.04507e-09
7.04506e-09
7.04504e-09
7.04503e-09
7.04501e-09
7.04499e-09
7.04497e-09
7.04494e-09
7.04491e-09
7.04488e-09
7.04485e-09
7.04482e-09
7.04478e-09
7.04474e-09
7.04469e-09
7.04464e-09
7.04459e-09
7.04454e-09
7.04448e-09
7.04441e-09
7.04435e-09
7.04428e-09
7.0442e-09
7.04401e-09
2.56422e-08
2.56427e-08
2.56429e-08
2.56432e-08
2.56434e-08
2.56437e-08
2.56439e-08
2.56441e-08
2.56443e-08
2.56445e-08
2.56446e-08
2.56448e-08
2.56449e-08
2.56451e-08
2.56452e-08
2.56453e-08
2.56454e-08
2.56455e-08
2.56456e-08
2.56456e-08
2.56457e-08
2.56458e-08
2.56458e-08
2.56459e-08
2.56459e-08
2.56459e-08
2.5646e-08
2.5646e-08
2.5646e-08
2.5646e-08
2.5646e-08
2.5646e-08
2.5646e-08
2.5646e-08
2.56459e-08
2.56459e-08
2.56459e-08
2.56458e-08
2.56458e-08
2.56457e-08
2.56456e-08
2.56456e-08
2.56455e-08
2.56454e-08
2.56453e-08
2.56452e-08
2.56451e-08
2.56449e-08
2.56448e-08
2.56446e-08
2.56445e-08
2.56443e-08
2.56441e-08
2.56439e-08
2.56437e-08
2.56434e-08
2.56432e-08
2.56429e-08
2.56427e-08
2.56422e-08
9.23634e-08
9.23648e-08
9.23657e-08
9.23666e-08
9.23675e-08
9.23684e-08
9.23692e-08
9.237e-08
9.23707e-08
9.23713e-08
9.23719e-08
9.23725e-08
9.2373e-08
9.23735e-08
9.23739e-08
9.23744e-08
9.23747e-08
9.23751e-08
9.23754e-08
9.23756e-08
9.23759e-08
9.23761e-08
9.23763e-08
9.23765e-08
9.23766e-08
9.23767e-08
9.23768e-08
9.23769e-08
9.2377e-08
9.2377e-08
9.2377e-08
9.2377e-08
9.23769e-08
9.23768e-08
9.23767e-08
9.23766e-08
9.23765e-08
9.23763e-08
9.23761e-08
9.23759e-08
9.23756e-08
9.23754e-08
9.23751e-08
9.23747e-08
9.23744e-08
9.23739e-08
9.23735e-08
9.2373e-08
9.23725e-08
9.23719e-08
9.23713e-08
9.23707e-08
9.237e-08
9.23692e-08
9.23684e-08
9.23675e-08
9.23666e-08
9.23657e-08
9.23648e-08
9.23634e-08
3.27235e-07
3.27239e-07
3.27242e-07
3.27245e-07
3.27249e-07
3.27252e-07
3.27255e-07
3.27257e-07
3.2726e-07
3.27262e-07
3.27264e-07
3.27266e-07
3.27268e-07
3.2727e-07
3.27271e-07
3.27273e-07
3.27274e-07
3.27275e-07
3.27276e-07
3.27277e-07
3.27278e-07
3.27279e-07
3.2728e-07
3.2728e-07
3.27281e-07
3.27281e-07
3.27282e-07
3.27282e-07
3.27282e-07
3.27282e-07
3.27282e-07
3.27282e-07
3.27282e-07
3.27282e-07
3.27281e-07
3.27281e-07
3.2728e-07
3.2728e-07
3.27279e-07
3.27278e-07
3.27277e-07
3.27276e-07
3.27275e-07
3.27274e-07
3.27273e-07
3.27271e-07
3.2727e-07
3.27268e-07
3.27266e-07
3.27264e-07
3.27262e-07
3.2726e-07
3.27257e-07
3.27255e-07
3.27252e-07
3.27249e-07
3.27245e-07
3.27242e-07
3.27239e-07
3.27235e-07
1.13253e-06
1.13254e-06
1.13255e-06
1.13257e-06
1.13258e-06
1.13259e-06
1.1326e-06
1.13261e-06
1.13262e-06
1.13262e-06
1.13263e-06
1.13264e-06
1.13264e-06
1.13265e-06
1.13266e-06
1.13266e-06
1.13267e-06
1.13267e-06
1.13267e-06
1.13268e-06
1.13268e-06
1.13268e-06
1.13268e-06
1.13269e-06
1.13269e-06
1.13269e-06
1.13269e-06
1.13269e-06
1.13269e-06
1.13269e-06
1.13269e-06
1.13269e-06
1.13269e-06
1.13269e-06
1.13269e-06
1.13269e-06
1.13269e-06
1.13268e-06
1.13268e-06
1.13268e-06
1.13268e-06
1.13267e-06
1.13267e-06
1.13267e-06
1.13266e-06
1.13266e-06
1.13265e-06
1.13264e-06
1.13264e-06
1.13263e-06
1.13262e-06
1.13262e-06
1.13261e-06
1.1326e-06
1.13259e-06
1.13258e-06
1.13257e-06
1.13255e-06
1.13254e-06
1.13253e-06
3.79904e-06
3.79908e-06
3.79912e-06
3.79916e-06
3.79919e-06
3.79923e-06
3.79926e-06
3.79929e-06
3.79932e-06
3.79935e-06
3.79937e-06
3.7994e-06
3.79942e-06
3.79944e-06
3.79946e-06
3.79947e-06
3.79949e-06
3.7995e-06
3.79951e-06
3.79953e-06
3.79954e-06
3.79954e-06
3.79955e-06
3.79956e-06
3.79957e-06
3.79957e-06
3.79957e-06
3.79958e-06
3.79958e-06
3.79958e-06
3.79958e-06
3.79958e-06
3.79958e-06
3.79957e-06
3.79957e-06
3.79957e-06
3.79956e-06
3.79955e-06
3.79954e-06
3.79954e-06
3.79953e-06
3.79951e-06
3.7995e-06
3.79949e-06
3.79947e-06
3.79946e-06
3.79944e-06
3.79942e-06
3.7994e-06
3.79937e-06
3.79935e-06
3.79932e-06
3.79929e-06
3.79926e-06
3.79923e-06
3.79919e-06
3.79916e-06
3.79912e-06