/*--------------------------------*- C++ -*----------------------------------*\
| =========                 |                                                 |
| \\      /  F ield         | foam-extend: Open Source CFD                    |
|  \\    /   O peration     | Version:     4.0                                |
|   \\  /    A nd           | Web:         http://www.foam-extend.org         |
|    \\/     M anipulation  |                                                 |
\*---------------------------------------------------------------------------*/
FoamFile
{
    version     2.0;
    format      ascii;
    class       volScalarField;
    location    "1710";
    object      cPlus;
}
// * * * * * * * * * * * * * * * * * * * * * * * * * * * * * * * * * * * * * //

dimensions      [0 0 0 0 0 0 0];

internalField   nonuniform List<scalar> 
6960
(
0.328117
0.328106
0.328093
0.328079
0.328066
0.328054
0.328043
0.328033
0.328024
0.328016
0.328009
0.328003
0.327997
0.327993
0.327988
0.327984
0.327981
0.327978
0.327976
0.327974
0.327972
0.327971
0.327969
0.327968
0.327967
0.327967
0.327966
0.327966
0.327965
0.327965
0.327965
0.327965
0.327966
0.327966
0.327967
0.327967
0.327968
0.327969
0.327971
0.327972
0.327974
0.327976
0.327978
0.327981
0.327984
0.327988
0.327993
0.327997
0.328003
0.328009
0.328016
0.328024
0.328033
0.328043
0.328054
0.328066
0.328079
0.328093
0.328106
0.328117
0.109012
0.109004
0.108994
0.108984
0.108974
0.108965
0.108957
0.10895
0.108944
0.108938
0.108932
0.108928
0.108924
0.10892
0.108917
0.108914
0.108912
0.10891
0.108908
0.108906
0.108905
0.108904
0.108903
0.108902
0.108902
0.108901
0.108901
0.1089
0.1089
0.1089
0.1089
0.1089
0.1089
0.108901
0.108901
0.108902
0.108902
0.108903
0.108904
0.108905
0.108906
0.108908
0.10891
0.108912
0.108914
0.108917
0.10892
0.108924
0.108928
0.108932
0.108938
0.108944
0.10895
0.108957
0.108965
0.108974
0.108984
0.108994
0.109004
0.109012
0.043017
0.0430126
0.0430069
0.0430011
0.0429956
0.0429905
0.0429858
0.0429816
0.0429778
0.0429744
0.0429714
0.0429687
0.0429663
0.0429642
0.0429624
0.0429608
0.0429594
0.0429582
0.0429571
0.0429562
0.0429555
0.0429548
0.0429543
0.0429538
0.0429534
0.0429531
0.0429529
0.0429527
0.0429526
0.0429525
0.0429525
0.0429526
0.0429527
0.0429529
0.0429531
0.0429534
0.0429538
0.0429543
0.0429548
0.0429555
0.0429562
0.0429571
0.0429582
0.0429594
0.0429608
0.0429624
0.0429642
0.0429663
0.0429687
0.0429714
0.0429744
0.0429778
0.0429816
0.0429858
0.0429905
0.0429956
0.0430011
0.0430069
0.0430126
0.043017
0.0194386
0.0194367
0.0194341
0.0194313
0.0194287
0.0194263
0.019424
0.019422
0.0194202
0.0194186
0.0194171
0.0194159
0.0194147
0.0194137
0.0194129
0.0194121
0.0194114
0.0194109
0.0194104
0.0194099
0.0194096
0.0194093
0.019409
0.0194088
0.0194086
0.0194084
0.0194083
0.0194082
0.0194082
0.0194082
0.0194082
0.0194082
0.0194082
0.0194083
0.0194084
0.0194086
0.0194088
0.019409
0.0194093
0.0194096
0.0194099
0.0194104
0.0194109
0.0194114
0.0194121
0.0194129
0.0194137
0.0194147
0.0194159
0.0194171
0.0194186
0.0194202
0.019422
0.019424
0.0194263
0.0194287
0.0194313
0.0194341
0.0194367
0.0194386
0.0105912
0.0105909
0.0105901
0.0105892
0.0105884
0.0105876
0.0105868
0.0105862
0.0105856
0.010585
0.0105846
0.0105841
0.0105838
0.0105834
0.0105831
0.0105829
0.0105827
0.0105825
0.0105823
0.0105822
0.010582
0.0105819
0.0105818
0.0105818
0.0105817
0.0105817
0.0105816
0.0105816
0.0105816
0.0105816
0.0105816
0.0105816
0.0105816
0.0105816
0.0105817
0.0105817
0.0105818
0.0105818
0.0105819
0.010582
0.0105822
0.0105823
0.0105825
0.0105827
0.0105829
0.0105831
0.0105834
0.0105838
0.0105841
0.0105846
0.010585
0.0105856
0.0105862
0.0105868
0.0105876
0.0105884
0.0105892
0.0105901
0.0105909
0.0105912
0.00727047
0.00727093
0.00727115
0.00727128
0.00727139
0.00727148
0.00727156
0.00727162
0.00727168
0.00727173
0.00727178
0.00727182
0.00727185
0.00727188
0.00727191
0.00727193
0.00727195
0.00727197
0.00727198
0.00727199
0.007272
0.00727201
0.00727202
0.00727203
0.00727203
0.00727203
0.00727204
0.00727204
0.00727204
0.00727204
0.00727204
0.00727204
0.00727204
0.00727204
0.00727203
0.00727203
0.00727203
0.00727202
0.00727201
0.007272
0.00727199
0.00727198
0.00727197
0.00727195
0.00727193
0.00727191
0.00727188
0.00727185
0.00727182
0.00727178
0.00727173
0.00727168
0.00727162
0.00727156
0.00727148
0.00727139
0.00727128
0.00727115
0.00727093
0.00727047
0.00605798
0.00605886
0.00605958
0.00606023
0.00606081
0.00606134
0.00606182
0.00606226
0.00606264
0.00606299
0.0060633
0.00606357
0.00606381
0.00606402
0.0060642
0.00606436
0.0060645
0.00606462
0.00606472
0.00606481
0.00606489
0.00606495
0.00606501
0.00606506
0.00606509
0.00606512
0.00606515
0.00606516
0.00606517
0.00606518
0.00606518
0.00606517
0.00606516
0.00606515
0.00606512
0.00606509
0.00606506
0.00606501
0.00606495
0.00606489
0.00606481
0.00606472
0.00606462
0.0060645
0.00606436
0.0060642
0.00606402
0.00606381
0.00606357
0.0060633
0.00606299
0.00606264
0.00606226
0.00606182
0.00606134
0.00606081
0.00606023
0.00605958
0.00605886
0.00605798
0.0056435
0.00564458
0.00564554
0.00564642
0.00564723
0.00564797
0.00564864
0.00564925
0.00564979
0.00565027
0.0056507
0.00565109
0.00565142
0.00565172
0.00565197
0.0056522
0.0056524
0.00565257
0.00565271
0.00565284
0.00565295
0.00565304
0.00565312
0.00565318
0.00565323
0.00565328
0.00565331
0.00565333
0.00565335
0.00565336
0.00565336
0.00565335
0.00565333
0.00565331
0.00565328
0.00565323
0.00565318
0.00565312
0.00565304
0.00565295
0.00565284
0.00565271
0.00565257
0.0056524
0.0056522
0.00565197
0.00565172
0.00565142
0.00565109
0.0056507
0.00565027
0.00564979
0.00564925
0.00564864
0.00564797
0.00564723
0.00564642
0.00564554
0.00564458
0.0056435
0.00552631
0.00552748
0.00552855
0.00552954
0.00553046
0.0055313
0.00553206
0.00553274
0.00553336
0.0055339
0.00553439
0.00553482
0.0055352
0.00553554
0.00553583
0.00553609
0.00553631
0.0055365
0.00553667
0.00553681
0.00553693
0.00553704
0.00553713
0.0055372
0.00553726
0.00553731
0.00553735
0.00553737
0.00553739
0.0055374
0.0055374
0.00553739
0.00553737
0.00553735
0.00553731
0.00553726
0.0055372
0.00553713
0.00553704
0.00553693
0.00553681
0.00553667
0.0055365
0.00553631
0.00553609
0.00553583
0.00553554
0.0055352
0.00553482
0.00553439
0.0055339
0.00553336
0.00553274
0.00553206
0.0055313
0.00553046
0.00552954
0.00552855
0.00552748
0.00552631
0.00551848
0.0055197
0.00552082
0.00552187
0.00552284
0.00552373
0.00552453
0.00552525
0.0055259
0.00552648
0.005527
0.00552746
0.00552786
0.00552821
0.00552852
0.00552879
0.00552903
0.00552923
0.00552941
0.00552956
0.00552969
0.0055298
0.00552989
0.00552997
0.00553003
0.00553009
0.00553013
0.00553016
0.00553017
0.00553018
0.00553018
0.00553017
0.00553016
0.00553013
0.00553009
0.00553003
0.00552997
0.00552989
0.0055298
0.00552969
0.00552956
0.00552941
0.00552923
0.00552903
0.00552879
0.00552852
0.00552821
0.00552786
0.00552746
0.005527
0.00552648
0.0055259
0.00552525
0.00552453
0.00552373
0.00552284
0.00552187
0.00552082
0.0055197
0.00551848
0.00555124
0.00555249
0.00555365
0.00555473
0.00555573
0.00555664
0.00555747
0.00555822
0.00555889
0.00555949
0.00556002
0.00556049
0.0055609
0.00556127
0.00556159
0.00556187
0.00556211
0.00556232
0.0055625
0.00556266
0.00556279
0.00556291
0.005563
0.00556308
0.00556315
0.0055632
0.00556324
0.00556327
0.00556329
0.0055633
0.0055633
0.00556329
0.00556327
0.00556324
0.0055632
0.00556315
0.00556308
0.005563
0.00556291
0.00556279
0.00556266
0.0055625
0.00556232
0.00556211
0.00556187
0.00556159
0.00556127
0.0055609
0.00556049
0.00556002
0.00555949
0.00555889
0.00555822
0.00555747
0.00555664
0.00555573
0.00555473
0.00555365
0.00555249
0.00555124
0.0056002
0.00560148
0.00560266
0.00560376
0.00560478
0.00560571
0.00560656
0.00560732
0.00560801
0.00560862
0.00560916
0.00560964
0.00561007
0.00561044
0.00561077
0.00561105
0.0056113
0.00561152
0.0056117
0.00561186
0.005612
0.00561212
0.00561221
0.0056123
0.00561236
0.00561242
0.00561246
0.00561249
0.00561251
0.00561252
0.00561252
0.00561251
0.00561249
0.00561246
0.00561242
0.00561236
0.0056123
0.00561221
0.00561212
0.005612
0.00561186
0.0056117
0.00561152
0.0056113
0.00561105
0.00561077
0.00561044
0.00561007
0.00560964
0.00560916
0.00560862
0.00560801
0.00560732
0.00560656
0.00560571
0.00560478
0.00560376
0.00560266
0.00560148
0.0056002
0.00565706
0.00565837
0.00565957
0.00566069
0.00566173
0.00566268
0.00566354
0.00566432
0.00566502
0.00566564
0.0056662
0.00566669
0.00566712
0.0056675
0.00566783
0.00566812
0.00566838
0.0056686
0.00566879
0.00566895
0.00566909
0.00566921
0.00566931
0.00566939
0.00566946
0.00566952
0.00566956
0.00566959
0.00566961
0.00566962
0.00566962
0.00566961
0.00566959
0.00566956
0.00566952
0.00566946
0.00566939
0.00566931
0.00566921
0.00566909
0.00566895
0.00566879
0.0056686
0.00566838
0.00566812
0.00566783
0.0056675
0.00566712
0.00566669
0.0056662
0.00566564
0.00566502
0.00566432
0.00566354
0.00566268
0.00566173
0.00566069
0.00565957
0.00565837
0.00565706
0.00571926
0.00572059
0.00572182
0.00572296
0.00572402
0.00572499
0.00572587
0.00572666
0.00572737
0.00572801
0.00572857
0.00572907
0.00572951
0.0057299
0.00573024
0.00573053
0.00573079
0.00573102
0.00573121
0.00573138
0.00573152
0.00573164
0.00573174
0.00573183
0.0057319
0.00573195
0.005732
0.00573203
0.00573205
0.00573206
0.00573206
0.00573205
0.00573203
0.005732
0.00573195
0.0057319
0.00573183
0.00573174
0.00573164
0.00573152
0.00573138
0.00573121
0.00573102
0.00573079
0.00573053
0.00573024
0.0057299
0.00572951
0.00572907
0.00572857
0.00572801
0.00572737
0.00572666
0.00572587
0.00572499
0.00572402
0.00572296
0.00572182
0.00572059
0.00571926
0.00578621
0.00578757
0.00578882
0.00578999
0.00579107
0.00579205
0.00579295
0.00579376
0.00579448
0.00579513
0.0057957
0.00579621
0.00579666
0.00579706
0.0057974
0.00579771
0.00579797
0.0057982
0.0057984
0.00579857
0.00579871
0.00579883
0.00579894
0.00579903
0.0057991
0.00579916
0.0057992
0.00579923
0.00579925
0.00579927
0.00579927
0.00579925
0.00579923
0.0057992
0.00579916
0.0057991
0.00579903
0.00579894
0.00579883
0.00579871
0.00579857
0.0057984
0.0057982
0.00579797
0.00579771
0.0057974
0.00579706
0.00579666
0.00579621
0.0057957
0.00579513
0.00579448
0.00579376
0.00579295
0.00579205
0.00579107
0.00578999
0.00578882
0.00578757
0.00578621
0.00585803
0.00585942
0.00586069
0.00586188
0.00586298
0.00586399
0.0058649
0.00586573
0.00586647
0.00586713
0.00586771
0.00586823
0.00586869
0.0058691
0.00586945
0.00586976
0.00587003
0.00587026
0.00587046
0.00587064
0.00587078
0.00587091
0.00587102
0.00587111
0.00587118
0.00587124
0.00587128
0.00587132
0.00587134
0.00587135
0.00587135
0.00587134
0.00587132
0.00587128
0.00587124
0.00587118
0.00587111
0.00587102
0.00587091
0.00587078
0.00587064
0.00587046
0.00587026
0.00587003
0.00586976
0.00586945
0.0058691
0.00586869
0.00586823
0.00586771
0.00586713
0.00586647
0.00586573
0.0058649
0.00586399
0.00586298
0.00586188
0.00586069
0.00585942
0.00585803
0.00593509
0.00593651
0.00593781
0.00593903
0.00594015
0.00594118
0.00594211
0.00594295
0.00594371
0.00594438
0.00594498
0.00594552
0.00594599
0.0059464
0.00594676
0.00594708
0.00594735
0.00594759
0.00594779
0.00594797
0.00594812
0.00594825
0.00594836
0.00594845
0.00594853
0.00594859
0.00594864
0.00594867
0.00594869
0.0059487
0.0059487
0.00594869
0.00594867
0.00594864
0.00594859
0.00594853
0.00594845
0.00594836
0.00594825
0.00594812
0.00594797
0.00594779
0.00594759
0.00594735
0.00594708
0.00594676
0.0059464
0.00594599
0.00594552
0.00594498
0.00594438
0.00594371
0.00594295
0.00594211
0.00594118
0.00594015
0.00593903
0.00593781
0.00593651
0.00593509
0.00601791
0.00601936
0.0060207
0.00602194
0.00602309
0.00602414
0.00602509
0.00602596
0.00602673
0.00602742
0.00602803
0.00602858
0.00602906
0.00602948
0.00602985
0.00603017
0.00603046
0.0060307
0.00603091
0.00603109
0.00603125
0.00603138
0.00603149
0.00603159
0.00603166
0.00603172
0.00603177
0.00603181
0.00603183
0.00603184
0.00603184
0.00603183
0.00603181
0.00603177
0.00603172
0.00603166
0.00603159
0.00603149
0.00603138
0.00603125
0.00603109
0.00603091
0.0060307
0.00603046
0.00603017
0.00602985
0.00602948
0.00602906
0.00602858
0.00602803
0.00602742
0.00602673
0.00602596
0.00602509
0.00602414
0.00602309
0.00602194
0.0060207
0.00601936
0.00601791
0.0061071
0.00610859
0.00610996
0.00611124
0.00611241
0.00611349
0.00611447
0.00611535
0.00611614
0.00611685
0.00611748
0.00611804
0.00611853
0.00611896
0.00611934
0.00611968
0.00611996
0.00612021
0.00612043
0.00612062
0.00612078
0.00612091
0.00612103
0.00612112
0.0061212
0.00612127
0.00612131
0.00612135
0.00612137
0.00612139
0.00612139
0.00612137
0.00612135
0.00612131
0.00612127
0.0061212
0.00612112
0.00612103
0.00612091
0.00612078
0.00612062
0.00612043
0.00612021
0.00611996
0.00611968
0.00611934
0.00611896
0.00611853
0.00611804
0.00611748
0.00611685
0.00611614
0.00611535
0.00611447
0.00611349
0.00611241
0.00611124
0.00610996
0.00610859
0.0061071
0.00620339
0.00620493
0.00620633
0.00620764
0.00620885
0.00620995
0.00621096
0.00621187
0.00621268
0.0062134
0.00621405
0.00621462
0.00621513
0.00621557
0.00621596
0.0062163
0.0062166
0.00621686
0.00621708
0.00621727
0.00621744
0.00621758
0.00621769
0.00621779
0.00621787
0.00621794
0.00621799
0.00621803
0.00621805
0.00621806
0.00621806
0.00621805
0.00621803
0.00621799
0.00621794
0.00621787
0.00621779
0.00621769
0.00621758
0.00621744
0.00621727
0.00621708
0.00621686
0.0062166
0.0062163
0.00621596
0.00621557
0.00621513
0.00621462
0.00621405
0.0062134
0.00621268
0.00621187
0.00621096
0.00620995
0.00620885
0.00620764
0.00620633
0.00620493
0.00620339
0.00630763
0.0063092
0.00631065
0.00631199
0.00631324
0.00631437
0.00631541
0.00631634
0.00631718
0.00631792
0.00631859
0.00631918
0.0063197
0.00632015
0.00632056
0.00632091
0.00632121
0.00632148
0.0063217
0.0063219
0.00632207
0.00632221
0.00632234
0.00632244
0.00632252
0.00632259
0.00632264
0.00632268
0.0063227
0.00632271
0.00632271
0.0063227
0.00632268
0.00632264
0.00632259
0.00632252
0.00632244
0.00632234
0.00632221
0.00632207
0.0063219
0.0063217
0.00632148
0.00632121
0.00632091
0.00632056
0.00632015
0.0063197
0.00631918
0.00631859
0.00631792
0.00631718
0.00631634
0.00631541
0.00631437
0.00631324
0.00631199
0.00631065
0.0063092
0.00630763
0.00642078
0.00642241
0.0064239
0.00642528
0.00642657
0.00642774
0.0064288
0.00642976
0.00643062
0.0064314
0.00643208
0.00643269
0.00643322
0.0064337
0.00643411
0.00643447
0.00643479
0.00643506
0.00643529
0.0064355
0.00643567
0.00643582
0.00643595
0.00643605
0.00643614
0.00643621
0.00643626
0.0064363
0.00643632
0.00643634
0.00643634
0.00643632
0.0064363
0.00643626
0.00643621
0.00643614
0.00643605
0.00643595
0.00643582
0.00643567
0.0064355
0.00643529
0.00643506
0.00643479
0.00643447
0.00643411
0.0064337
0.00643322
0.00643269
0.00643208
0.0064314
0.00643062
0.00642976
0.0064288
0.00642774
0.00642657
0.00642528
0.0064239
0.00642241
0.00642078
0.00654402
0.00654571
0.00654724
0.00654868
0.00655
0.00655121
0.00655231
0.0065533
0.00655419
0.00655499
0.0065557
0.00655633
0.00655688
0.00655737
0.00655779
0.00655817
0.00655849
0.00655878
0.00655902
0.00655923
0.00655941
0.00655956
0.00655969
0.0065598
0.00655989
0.00655996
0.00656002
0.00656006
0.00656008
0.0065601
0.0065601
0.00656008
0.00656006
0.00656002
0.00655996
0.00655989
0.0065598
0.00655969
0.00655956
0.00655941
0.00655923
0.00655902
0.00655878
0.00655849
0.00655817
0.00655779
0.00655737
0.00655688
0.00655633
0.0065557
0.00655499
0.00655419
0.0065533
0.00655231
0.00655121
0.00655
0.00654868
0.00654724
0.00654571
0.00654402
0.00667873
0.00668048
0.00668207
0.00668355
0.00668492
0.00668618
0.00668732
0.00668835
0.00668927
0.00669009
0.00669083
0.00669148
0.00669205
0.00669256
0.006693
0.00669339
0.00669372
0.00669402
0.00669427
0.00669449
0.00669467
0.00669483
0.00669497
0.00669508
0.00669517
0.00669525
0.0066953
0.00669535
0.00669537
0.00669539
0.00669539
0.00669537
0.00669535
0.0066953
0.00669525
0.00669517
0.00669508
0.00669497
0.00669483
0.00669467
0.00669449
0.00669427
0.00669402
0.00669372
0.00669339
0.006693
0.00669256
0.00669205
0.00669148
0.00669083
0.00669009
0.00668927
0.00668835
0.00668732
0.00668618
0.00668492
0.00668355
0.00668207
0.00668048
0.00667873
0.00682656
0.00682838
0.00683003
0.00683157
0.006833
0.0068343
0.00683548
0.00683655
0.00683751
0.00683837
0.00683913
0.00683981
0.0068404
0.00684093
0.00684139
0.00684179
0.00684214
0.00684245
0.00684271
0.00684294
0.00684313
0.0068433
0.00684344
0.00684355
0.00684365
0.00684372
0.00684378
0.00684383
0.00684386
0.00684387
0.00684387
0.00684386
0.00684383
0.00684378
0.00684372
0.00684365
0.00684355
0.00684344
0.0068433
0.00684313
0.00684294
0.00684271
0.00684245
0.00684214
0.00684179
0.00684139
0.00684093
0.0068404
0.00683981
0.00683913
0.00683837
0.00683751
0.00683655
0.00683548
0.0068343
0.006833
0.00683157
0.00683003
0.00682838
0.00682656
0.00698951
0.00699141
0.00699313
0.00699474
0.00699623
0.00699758
0.00699882
0.00699993
0.00700093
0.00700182
0.00700262
0.00700332
0.00700395
0.00700449
0.00700497
0.00700539
0.00700576
0.00700608
0.00700635
0.00700659
0.00700679
0.00700696
0.00700711
0.00700723
0.00700733
0.00700741
0.00700748
0.00700752
0.00700755
0.00700757
0.00700757
0.00700755
0.00700752
0.00700748
0.00700741
0.00700733
0.00700723
0.00700711
0.00700696
0.00700679
0.00700659
0.00700635
0.00700608
0.00700576
0.00700539
0.00700497
0.00700449
0.00700395
0.00700332
0.00700262
0.00700182
0.00700093
0.00699993
0.00699882
0.00699758
0.00699623
0.00699474
0.00699313
0.00699141
0.00698951
0.00717003
0.00717202
0.00717383
0.00717551
0.00717706
0.00717848
0.00717977
0.00718094
0.00718199
0.00718292
0.00718375
0.00718449
0.00718514
0.00718572
0.00718622
0.00718666
0.00718704
0.00718737
0.00718766
0.00718791
0.00718812
0.0071883
0.00718846
0.00718858
0.00718869
0.00718877
0.00718884
0.00718889
0.00718892
0.00718893
0.00718893
0.00718892
0.00718889
0.00718884
0.00718877
0.00718869
0.00718858
0.00718846
0.0071883
0.00718812
0.00718791
0.00718766
0.00718737
0.00718704
0.00718666
0.00718622
0.00718572
0.00718514
0.00718449
0.00718375
0.00718292
0.00718199
0.00718094
0.00717977
0.00717848
0.00717706
0.00717551
0.00717383
0.00717202
0.00717003
0.00737114
0.00737324
0.00737513
0.0073769
0.00737854
0.00738003
0.00738139
0.00738261
0.00738371
0.0073847
0.00738557
0.00738635
0.00738703
0.00738763
0.00738816
0.00738863
0.00738903
0.00738938
0.00738968
0.00738994
0.00739017
0.00739036
0.00739052
0.00739065
0.00739076
0.00739085
0.00739092
0.00739097
0.007391
0.00739102
0.00739102
0.007391
0.00739097
0.00739092
0.00739085
0.00739076
0.00739065
0.00739052
0.00739036
0.00739017
0.00738994
0.00738968
0.00738938
0.00738903
0.00738863
0.00738816
0.00738763
0.00738703
0.00738635
0.00738557
0.0073847
0.00738371
0.00738261
0.00738139
0.00738003
0.00737854
0.0073769
0.00737513
0.00737324
0.00737114
0.00759663
0.00759884
0.00760085
0.00760271
0.00760444
0.00760602
0.00760745
0.00760875
0.00760991
0.00761095
0.00761187
0.00761269
0.00761342
0.00761406
0.00761462
0.0076151
0.00761553
0.0076159
0.00761622
0.0076165
0.00761673
0.00761693
0.0076171
0.00761725
0.00761736
0.00761746
0.00761753
0.00761758
0.00761762
0.00761764
0.00761764
0.00761762
0.00761758
0.00761753
0.00761746
0.00761736
0.00761725
0.0076171
0.00761693
0.00761673
0.0076165
0.00761622
0.0076159
0.00761553
0.0076151
0.00761462
0.00761406
0.00761342
0.00761269
0.00761187
0.00761095
0.00760991
0.00760875
0.00760745
0.00760602
0.00760444
0.00760271
0.00760085
0.00759884
0.00759663
0.00785129
0.00785364
0.00785577
0.00785776
0.00785959
0.00786127
0.00786279
0.00786417
0.0078654
0.00786651
0.00786749
0.00786837
0.00786914
0.00786981
0.00787041
0.00787093
0.00787138
0.00787178
0.00787212
0.00787241
0.00787266
0.00787288
0.00787306
0.00787321
0.00787333
0.00787343
0.00787351
0.00787357
0.0078736
0.00787362
0.00787362
0.0078736
0.00787357
0.00787351
0.00787343
0.00787333
0.00787321
0.00787306
0.00787288
0.00787266
0.00787241
0.00787212
0.00787178
0.00787138
0.00787093
0.00787041
0.00786981
0.00786914
0.00786837
0.00786749
0.00786651
0.0078654
0.00786417
0.00786279
0.00786127
0.00785959
0.00785776
0.00785577
0.00785364
0.00785129
0.00814131
0.00814383
0.00814611
0.00814824
0.0081502
0.00815199
0.00815363
0.0081551
0.00815642
0.00815761
0.00815866
0.00815959
0.00816042
0.00816115
0.00816178
0.00816234
0.00816283
0.00816325
0.00816361
0.00816393
0.0081642
0.00816443
0.00816462
0.00816478
0.00816492
0.00816502
0.00816511
0.00816517
0.00816521
0.00816523
0.00816523
0.00816521
0.00816517
0.00816511
0.00816502
0.00816492
0.00816478
0.00816462
0.00816443
0.0081642
0.00816393
0.00816361
0.00816325
0.00816283
0.00816234
0.00816178
0.00816115
0.00816042
0.00815959
0.00815866
0.00815761
0.00815642
0.0081551
0.00815363
0.00815199
0.0081502
0.00814824
0.00814611
0.00814383
0.00814131
0.00847484
0.00847755
0.00848002
0.00848231
0.00848443
0.00848637
0.00848813
0.00848972
0.00849115
0.00849243
0.00849357
0.00849457
0.00849547
0.00849625
0.00849694
0.00849754
0.00849807
0.00849852
0.00849892
0.00849926
0.00849955
0.0084998
0.00850001
0.00850018
0.00850033
0.00850044
0.00850053
0.0085006
0.00850064
0.00850066
0.00850066
0.00850064
0.0085006
0.00850053
0.00850044
0.00850033
0.00850018
0.00850001
0.0084998
0.00849955
0.00849926
0.00849892
0.00849852
0.00849807
0.00849754
0.00849694
0.00849625
0.00849547
0.00849457
0.00849357
0.00849243
0.00849115
0.00848972
0.00848813
0.00848637
0.00848443
0.00848231
0.00848002
0.00847755
0.00847484
0.00886277
0.00886573
0.00886842
0.00887092
0.00887323
0.00887534
0.00887726
0.008879
0.00888056
0.00888195
0.00888319
0.0088843
0.00888527
0.00888612
0.00888688
0.00888753
0.00888811
0.0088886
0.00888904
0.00888941
0.00888973
0.00889
0.00889022
0.00889042
0.00889057
0.0088907
0.0088908
0.00889087
0.00889092
0.00889094
0.00889094
0.00889092
0.00889087
0.0088908
0.0088907
0.00889057
0.00889042
0.00889022
0.00889
0.00888973
0.00888941
0.00888904
0.0088886
0.00888811
0.00888753
0.00888688
0.00888612
0.00888527
0.0088843
0.00888319
0.00888195
0.00888056
0.008879
0.00887726
0.00887534
0.00887323
0.00887092
0.00886842
0.00886573
0.00886277
0.00932009
0.00932335
0.00932631
0.00932907
0.00933162
0.00933395
0.00933608
0.00933799
0.00933971
0.00934125
0.00934263
0.00934384
0.00934492
0.00934586
0.00934669
0.00934742
0.00934805
0.0093486
0.00934908
0.00934949
0.00934984
0.00935014
0.0093504
0.00935061
0.00935078
0.00935092
0.00935103
0.00935111
0.00935116
0.00935119
0.00935119
0.00935116
0.00935111
0.00935103
0.00935092
0.00935078
0.00935061
0.0093504
0.00935014
0.00934984
0.00934949
0.00934908
0.0093486
0.00934805
0.00934742
0.00934669
0.00934586
0.00934492
0.00934384
0.00934263
0.00934125
0.00933971
0.00933799
0.00933608
0.00933395
0.00933162
0.00932907
0.00932631
0.00932335
0.00932009
0.00986782
0.00987146
0.00987477
0.00987786
0.00988072
0.00988334
0.00988572
0.00988787
0.0098898
0.00989153
0.00989307
0.00989443
0.00989564
0.0098967
0.00989763
0.00989845
0.00989916
0.00989978
0.00990031
0.00990077
0.00990117
0.0099015
0.00990179
0.00990203
0.00990222
0.00990238
0.0099025
0.00990259
0.00990265
0.00990268
0.00990268
0.00990265
0.00990259
0.0099025
0.00990238
0.00990222
0.00990203
0.00990179
0.0099015
0.00990117
0.00990077
0.00990031
0.00989978
0.00989916
0.00989845
0.00989763
0.0098967
0.00989564
0.00989443
0.00989307
0.00989153
0.0098898
0.00988787
0.00988572
0.00988334
0.00988072
0.00987786
0.00987477
0.00987146
0.00986782
0.0105362
0.0105404
0.0105442
0.0105477
0.010551
0.0105539
0.0105567
0.0105591
0.0105613
0.0105633
0.0105651
0.0105666
0.010568
0.0105692
0.0105703
0.0105712
0.010572
0.0105727
0.0105733
0.0105739
0.0105743
0.0105747
0.010575
0.0105753
0.0105755
0.0105757
0.0105758
0.0105759
0.010576
0.010576
0.010576
0.010576
0.0105759
0.0105758
0.0105757
0.0105755
0.0105753
0.010575
0.0105747
0.0105743
0.0105739
0.0105733
0.0105727
0.010572
0.0105712
0.0105703
0.0105692
0.010568
0.0105666
0.0105651
0.0105633
0.0105613
0.0105591
0.0105567
0.0105539
0.010551
0.0105477
0.0105442
0.0105404
0.0105362
0.0113697
0.0113745
0.0113789
0.011383
0.0113868
0.0113903
0.0113935
0.0113964
0.011399
0.0114013
0.0114033
0.0114051
0.0114068
0.0114082
0.0114094
0.0114105
0.0114115
0.0114123
0.011413
0.0114136
0.0114141
0.0114146
0.011415
0.0114153
0.0114156
0.0114158
0.0114159
0.011416
0.0114161
0.0114162
0.0114162
0.0114161
0.011416
0.0114159
0.0114158
0.0114156
0.0114153
0.011415
0.0114146
0.0114141
0.0114136
0.011413
0.0114123
0.0114115
0.0114105
0.0114094
0.0114082
0.0114068
0.0114051
0.0114033
0.0114013
0.011399
0.0113964
0.0113935
0.0113903
0.0113868
0.011383
0.0113789
0.0113745
0.0113697
0.0124333
0.012439
0.0124443
0.0124492
0.0124538
0.0124579
0.0124617
0.0124652
0.0124683
0.012471
0.0124735
0.0124757
0.0124776
0.0124793
0.0124808
0.0124821
0.0124833
0.0124842
0.0124851
0.0124858
0.0124865
0.012487
0.0124875
0.0124879
0.0124882
0.0124884
0.0124886
0.0124888
0.0124889
0.0124889
0.0124889
0.0124889
0.0124888
0.0124886
0.0124884
0.0124882
0.0124879
0.0124875
0.012487
0.0124865
0.0124858
0.0124851
0.0124842
0.0124833
0.0124821
0.0124808
0.0124793
0.0124776
0.0124757
0.0124735
0.012471
0.0124683
0.0124652
0.0124617
0.0124579
0.0124538
0.0124492
0.0124443
0.012439
0.0124333
0.0138204
0.0138273
0.0138338
0.0138398
0.0138454
0.0138506
0.0138553
0.0138595
0.0138633
0.0138667
0.0138697
0.0138724
0.0138748
0.0138769
0.0138787
0.0138803
0.0138817
0.013883
0.013884
0.0138849
0.0138857
0.0138864
0.0138869
0.0138874
0.0138878
0.0138881
0.0138883
0.0138885
0.0138886
0.0138887
0.0138887
0.0138886
0.0138885
0.0138883
0.0138881
0.0138878
0.0138874
0.0138869
0.0138864
0.0138857
0.0138849
0.013884
0.013883
0.0138817
0.0138803
0.0138787
0.0138769
0.0138748
0.0138724
0.0138697
0.0138667
0.0138633
0.0138595
0.0138553
0.0138506
0.0138454
0.0138398
0.0138338
0.0138273
0.0138204
0.015657
0.0156657
0.0156738
0.0156814
0.0156885
0.0156949
0.0157008
0.0157061
0.0157109
0.0157151
0.0157189
0.0157223
0.0157253
0.0157279
0.0157303
0.0157323
0.015734
0.0157356
0.0157369
0.015738
0.015739
0.0157399
0.0157406
0.0157412
0.0157417
0.015742
0.0157423
0.0157426
0.0157427
0.0157428
0.0157428
0.0157427
0.0157426
0.0157423
0.015742
0.0157417
0.0157412
0.0157406
0.0157399
0.015739
0.015738
0.0157369
0.0157356
0.015734
0.0157323
0.0157303
0.0157279
0.0157253
0.0157223
0.0157189
0.0157151
0.0157109
0.0157061
0.0157008
0.0156949
0.0156885
0.0156814
0.0156738
0.0156657
0.015657
0.0180955
0.0181065
0.0181168
0.0181264
0.0181353
0.0181435
0.018151
0.0181577
0.0181638
0.0181692
0.018174
0.0181783
0.0181821
0.0181854
0.0181884
0.0181909
0.0181932
0.0181951
0.0181968
0.0181983
0.0181995
0.0182006
0.0182015
0.0182022
0.0182028
0.0182033
0.0182037
0.018204
0.0182042
0.0182043
0.0182043
0.0182042
0.018204
0.0182037
0.0182033
0.0182028
0.0182022
0.0182015
0.0182006
0.0181995
0.0181983
0.0181968
0.0181951
0.0181932
0.0181909
0.0181884
0.0181854
0.0181821
0.0181783
0.018174
0.0181692
0.0181638
0.0181577
0.018151
0.0181435
0.0181353
0.0181264
0.0181168
0.0181065
0.0180955
0.0212884
0.0213022
0.0213151
0.0213273
0.0213386
0.0213489
0.0213583
0.0213668
0.0213744
0.0213813
0.0213874
0.0213928
0.0213976
0.0214018
0.0214055
0.0214087
0.0214116
0.021414
0.0214162
0.021418
0.0214196
0.0214209
0.0214221
0.021423
0.0214238
0.0214244
0.0214249
0.0214253
0.0214255
0.0214256
0.0214256
0.0214255
0.0214253
0.0214249
0.0214244
0.0214238
0.021423
0.0214221
0.0214209
0.0214196
0.021418
0.0214162
0.021414
0.0214116
0.0214087
0.0214055
0.0214018
0.0213976
0.0213928
0.0213874
0.0213813
0.0213744
0.0213668
0.0213583
0.0213489
0.0213386
0.0213273
0.0213151
0.0213022
0.0212884
0.0253444
0.0253615
0.0253775
0.0253926
0.0254065
0.0254193
0.0254309
0.0254415
0.0254509
0.0254594
0.0254669
0.0254736
0.0254795
0.0254848
0.0254893
0.0254934
0.0254969
0.0254999
0.0255025
0.0255048
0.0255068
0.0255084
0.0255098
0.025511
0.025512
0.0255128
0.0255134
0.0255138
0.0255141
0.0255142
0.0255142
0.0255141
0.0255138
0.0255134
0.0255128
0.025512
0.025511
0.0255098
0.0255084
0.0255068
0.0255048
0.0255025
0.0254999
0.0254969
0.0254934
0.0254893
0.0254848
0.0254795
0.0254736
0.0254669
0.0254594
0.0254509
0.0254415
0.0254309
0.0254193
0.0254065
0.0253926
0.0253775
0.0253615
0.0253444
0.0302872
0.0303079
0.0303272
0.0303453
0.030362
0.0303774
0.0303913
0.0304039
0.0304153
0.0304255
0.0304345
0.0304425
0.0304497
0.0304559
0.0304614
0.0304663
0.0304705
0.0304741
0.0304773
0.03048
0.0304824
0.0304844
0.0304861
0.0304875
0.0304887
0.0304896
0.0304903
0.0304909
0.0304912
0.0304914
0.0304914
0.0304912
0.0304909
0.0304903
0.0304896
0.0304887
0.0304875
0.0304861
0.0304844
0.0304824
0.03048
0.0304773
0.0304741
0.0304705
0.0304663
0.0304614
0.0304559
0.0304497
0.0304425
0.0304345
0.0304255
0.0304153
0.0304039
0.0303913
0.0303774
0.030362
0.0303453
0.0303272
0.0303079
0.0302872
0.0360444
0.0360685
0.036091
0.0361121
0.0361315
0.0361494
0.0361656
0.0361802
0.0361934
0.0362052
0.0362157
0.0362251
0.0362334
0.0362406
0.0362471
0.0362527
0.0362576
0.0362618
0.0362655
0.0362687
0.0362714
0.0362738
0.0362757
0.0362774
0.0362787
0.0362798
0.0362807
0.0362813
0.0362817
0.0362819
0.0362819
0.0362817
0.0362813
0.0362807
0.0362798
0.0362787
0.0362774
0.0362757
0.0362738
0.0362714
0.0362687
0.0362655
0.0362618
0.0362576
0.0362527
0.0362471
0.0362406
0.0362334
0.0362251
0.0362157
0.0362052
0.0361934
0.0361802
0.0361656
0.0361494
0.0361315
0.0361121
0.036091
0.0360685
0.0360444
0.0424767
0.0425042
0.0425297
0.0425535
0.0425754
0.0425956
0.0426139
0.0426304
0.0426453
0.0426586
0.0426705
0.042681
0.0426904
0.0426986
0.0427059
0.0427122
0.0427178
0.0427226
0.0427267
0.0427303
0.0427334
0.0427361
0.0427383
0.0427402
0.0427417
0.0427429
0.0427439
0.0427446
0.0427451
0.0427453
0.0427453
0.0427451
0.0427446
0.0427439
0.0427429
0.0427417
0.0427402
0.0427383
0.0427361
0.0427334
0.0427303
0.0427267
0.0427226
0.0427178
0.0427122
0.0427059
0.0426986
0.0426904
0.042681
0.0426705
0.0426586
0.0426453
0.0426304
0.0426139
0.0425956
0.0425754
0.0425535
0.0425297
0.0425042
0.0424767
0.0494292
0.0494597
0.049488
0.0495142
0.0495385
0.0495607
0.0495809
0.0495991
0.0496156
0.0496303
0.0496434
0.049655
0.0496654
0.0496745
0.0496825
0.0496895
0.0496956
0.0497009