/*--------------------------------*- C++ -*----------------------------------*\
| =========                 |                                                 |
| \\      /  F ield         | foam-extend: Open Source CFD                    |
|  \\    /   O peration     | Version:     4.0                                |
|   \\  /    A nd           | Web:         http://www.foam-extend.org         |
|    \\/     M anipulation  |                                                 |
\*---------------------------------------------------------------------------*/
FoamFile
{
    version     2.0;
    format      ascii;
    class       volScalarField;
    location    "10";
    object      psiE;
}
// * * * * * * * * * * * * * * * * * * * * * * * * * * * * * * * * * * * * * //

dimensions      [0 0 0 0 0 0 0];

internalField   nonuniform List<scalar> 
6960
(
0.178739
0.17871
0.178708
0.178707
0.178707
0.178707
0.178707
0.178707
0.178707
0.178708
0.178708
0.178708
0.178708
0.178708
0.178708
0.178708
0.178709
0.178709
0.178709
0.178709
0.178709
0.178709
0.178709
0.178709
0.17871
0.17871
0.17871
0.17871
0.17871
0.17871
0.17871
0.17871
0.17871
0.17871
0.17871
0.17871
0.178709
0.178709
0.178709
0.178709
0.178709
0.178709
0.178709
0.178709
0.178708
0.178708
0.178708
0.178708
0.178708
0.178708
0.178708
0.178707
0.178707
0.178707
0.178707
0.178707
0.178707
0.178708
0.17871
0.178739
0.313612
0.313549
0.313544
0.313542
0.313542
0.313542
0.313543
0.313543
0.313543
0.313544
0.313544
0.313545
0.313545
0.313546
0.313546
0.313547
0.313547
0.313548
0.313548
0.313549
0.313549
0.313549
0.31355
0.31355
0.31355
0.31355
0.31355
0.31355
0.313551
0.313551
0.313551
0.313551
0.31355
0.31355
0.31355
0.31355
0.31355
0.31355
0.313549
0.313549
0.313549
0.313548
0.313548
0.313547
0.313547
0.313546
0.313546
0.313545
0.313545
0.313544
0.313544
0.313543
0.313543
0.313543
0.313542
0.313542
0.313542
0.313544
0.313549
0.313612
0.364902
0.364823
0.364815
0.364814
0.364813
0.364814
0.364814
0.364815
0.364815
0.364816
0.364817
0.364818
0.364819
0.36482
0.36482
0.364821
0.364822
0.364823
0.364824
0.364824
0.364825
0.364825
0.364826
0.364826
0.364827
0.364827
0.364827
0.364827
0.364828
0.364828
0.364828
0.364828
0.364827
0.364827
0.364827
0.364827
0.364826
0.364826
0.364825
0.364825
0.364824
0.364824
0.364823
0.364822
0.364821
0.36482
0.36482
0.364819
0.364818
0.364817
0.364816
0.364815
0.364815
0.364814
0.364814
0.364813
0.364814
0.364815
0.364823
0.364902
0.385951
0.385866
0.385857
0.385855
0.385855
0.385855
0.385856
0.385856
0.385857
0.385859
0.38586
0.385861
0.385862
0.385864
0.385865
0.385866
0.385867
0.385868
0.385869
0.38587
0.385871
0.385872
0.385872
0.385873
0.385874
0.385874
0.385874
0.385875
0.385875
0.385875
0.385875
0.385875
0.385875
0.385874
0.385874
0.385874
0.385873
0.385872
0.385872
0.385871
0.38587
0.385869
0.385868
0.385867
0.385866
0.385865
0.385864
0.385862
0.385861
0.38586
0.385859
0.385857
0.385856
0.385856
0.385855
0.385855
0.385855
0.385857
0.385866
0.385951
0.39614
0.396053
0.396042
0.39604
0.39604
0.396041
0.396042
0.396043
0.396044
0.396046
0.396047
0.396049
0.39605
0.396052
0.396054
0.396055
0.396057
0.396058
0.396059
0.396061
0.396062
0.396063
0.396064
0.396064
0.396065
0.396066
0.396066
0.396067
0.396067
0.396067
0.396067
0.396067
0.396067
0.396066
0.396066
0.396065
0.396064
0.396064
0.396063
0.396062
0.396061
0.396059
0.396058
0.396057
0.396055
0.396054
0.396052
0.39605
0.396049
0.396047
0.396046
0.396044
0.396043
0.396042
0.396041
0.39604
0.39604
0.396042
0.396053
0.39614
0.402052
0.401965
0.401954
0.401951
0.401951
0.401952
0.401953
0.401955
0.401956
0.401958
0.40196
0.401962
0.401964
0.401966
0.401968
0.40197
0.401972
0.401974
0.401975
0.401977
0.401978
0.401979
0.401981
0.401982
0.401982
0.401983
0.401984
0.401984
0.401984
0.401985
0.401985
0.401984
0.401984
0.401984
0.401983
0.401982
0.401982
0.401981
0.401979
0.401978
0.401977
0.401975
0.401974
0.401972
0.40197
0.401968
0.401966
0.401964
0.401962
0.40196
0.401958
0.401956
0.401955
0.401953
0.401952
0.401951
0.401951
0.401954
0.401965
0.402052
0.40595
0.405864
0.405852
0.405849
0.405849
0.40585
0.405852
0.405854
0.405856
0.405858
0.40586
0.405862
0.405865
0.405867
0.40587
0.405872
0.405874
0.405876
0.405878
0.40588
0.405882
0.405883
0.405885
0.405886
0.405887
0.405888
0.405888
0.405889
0.405889
0.405889
0.405889
0.405889
0.405889
0.405888
0.405888
0.405887
0.405886
0.405885
0.405883
0.405882
0.40588
0.405878
0.405876
0.405874
0.405872
0.40587
0.405867
0.405865
0.405862
0.40586
0.405858
0.405856
0.405854
0.405852
0.40585
0.405849
0.405849
0.405852
0.405864
0.40595
0.408713
0.408629
0.408616
0.408613
0.408613
0.408614
0.408616
0.408618
0.408621
0.408623
0.408626
0.408629
0.408632
0.408634
0.408637
0.40864
0.408642
0.408645
0.408647
0.408649
0.408651
0.408653
0.408655
0.408656
0.408657
0.408658
0.408659
0.40866
0.40866
0.40866
0.40866
0.40866
0.40866
0.408659
0.408658
0.408657
0.408656
0.408655
0.408653
0.408651
0.408649
0.408647
0.408645
0.408642
0.40864
0.408637
0.408634
0.408632
0.408629
0.408626
0.408623
0.408621
0.408618
0.408616
0.408614
0.408613
0.408613
0.408616
0.408629
0.408713
0.410763
0.410681
0.410668
0.410665
0.410666
0.410667
0.410669
0.410671
0.410674
0.410677
0.41068
0.410683
0.410687
0.41069
0.410693
0.410696
0.410699
0.410702
0.410705
0.410707
0.410709
0.410711
0.410713
0.410715
0.410716
0.410717
0.410718
0.410719
0.410719
0.41072
0.41072
0.410719
0.410719
0.410718
0.410717
0.410716
0.410715
0.410713
0.410711
0.410709
0.410707
0.410705
0.410702
0.410699
0.410696
0.410693
0.41069
0.410687
0.410683
0.41068
0.410677
0.410674
0.410671
0.410669
0.410667
0.410666
0.410665
0.410668
0.410681
0.410763
0.412348
0.412269
0.412255
0.412252
0.412252
0.412254
0.412256
0.412259
0.412262
0.412266
0.412269
0.412273
0.412276
0.41228
0.412284
0.412287
0.412291
0.412294
0.412297
0.4123
0.412302
0.412304
0.412307
0.412308
0.41231
0.412311
0.412312
0.412313
0.412314
0.412314
0.412314
0.412314
0.412313
0.412312
0.412311
0.41231
0.412308
0.412307
0.412304
0.412302
0.4123
0.412297
0.412294
0.412291
0.412287
0.412284
0.41228
0.412276
0.412273
0.412269
0.412266
0.412262
0.412259
0.412256
0.412254
0.412252
0.412252
0.412255
0.412269
0.412348
0.413628
0.413551
0.413537
0.413534
0.413535
0.413536
0.413539
0.413542
0.413546
0.413549
0.413553
0.413558
0.413562
0.413566
0.41357
0.413574
0.413578
0.413581
0.413585
0.413588
0.413591
0.413593
0.413596
0.413598
0.413599
0.413601
0.413602
0.413603
0.413603
0.413604
0.413604
0.413603
0.413603
0.413602
0.413601
0.413599
0.413598
0.413596
0.413593
0.413591
0.413588
0.413585
0.413581
0.413578
0.413574
0.41357
0.413566
0.413562
0.413558
0.413553
0.413549
0.413546
0.413542
0.413539
0.413536
0.413535
0.413534
0.413537
0.413551
0.413628
0.414711
0.414639
0.414624
0.414621
0.414621
0.414623
0.414626
0.41463
0.414634
0.414638
0.414643
0.414647
0.414652
0.414656
0.414661
0.414665
0.414669
0.414673
0.414677
0.414681
0.414684
0.414687
0.414689
0.414692
0.414694
0.414695
0.414696
0.414697
0.414698
0.414698
0.414698
0.414698
0.414697
0.414696
0.414695
0.414694
0.414692
0.414689
0.414687
0.414684
0.414681
0.414677
0.414673
0.414669
0.414665
0.414661
0.414656
0.414652
0.414647
0.414643
0.414638
0.414634
0.41463
0.414626
0.414623
0.414621
0.414621
0.414624
0.414639
0.414711
0.415674
0.415605
0.41559
0.415587
0.415587
0.41559
0.415593
0.415597
0.415601
0.415606
0.415611
0.415616
0.415621
0.415626
0.415631
0.415636
0.41564
0.415645
0.415649
0.415653
0.415656
0.41566
0.415662
0.415665
0.415667
0.415669
0.41567
0.415671
0.415672
0.415672
0.415672
0.415672
0.415671
0.41567
0.415669
0.415667
0.415665
0.415662
0.41566
0.415656
0.415653
0.415649
0.415645
0.41564
0.415636
0.415631
0.415626
0.415621
0.415616
0.415611
0.415606
0.415601
0.415597
0.415593
0.41559
0.415587
0.415587
0.41559
0.415605
0.415674
0.416567
0.4165
0.416485
0.416482
0.416483
0.416486
0.416489
0.416493
0.416498
0.416503
0.416509
0.416514
0.41652
0.416525
0.416531
0.416536
0.416541
0.416546
0.416551
0.416555
0.416559
0.416562
0.416565
0.416568
0.416571
0.416573
0.416574
0.416575
0.416576
0.416576
0.416576
0.416576
0.416575
0.416574
0.416573
0.416571
0.416568
0.416565
0.416562
0.416559
0.416555
0.416551
0.416546
0.416541
0.416536
0.416531
0.416525
0.41652
0.416514
0.416509
0.416503
0.416498
0.416493
0.416489
0.416486
0.416483
0.416482
0.416485
0.4165
0.416567
0.417422
0.41736
0.417344
0.417341
0.417342
0.417345
0.417349
0.417354
0.417359
0.417365
0.41737
0.417376
0.417383
0.417389
0.417395
0.4174
0.417406
0.417411
0.417416
0.417421
0.417425
0.417429
0.417432
0.417435
0.417438
0.41744
0.417442
0.417443
0.417444
0.417444
0.417444
0.417444
0.417443
0.417442
0.41744
0.417438
0.417435
0.417432
0.417429
0.417425
0.417421
0.417416
0.417411
0.417406
0.4174
0.417395
0.417389
0.417383
0.417376
0.41737
0.417365
0.417359
0.417354
0.417349
0.417345
0.417342
0.417341
0.417344
0.41736
0.417422
0.418264
0.418205
0.41819
0.418187
0.418188
0.418191
0.418195
0.4182
0.418206
0.418212
0.418218
0.418225
0.418231
0.418238
0.418245
0.418251
0.418257
0.418263
0.418268
0.418273
0.418278
0.418282
0.418285
0.418289
0.418292
0.418294
0.418296
0.418297
0.418298
0.418299
0.418299
0.418298
0.418297
0.418296
0.418294
0.418292
0.418289
0.418285
0.418282
0.418278
0.418273
0.418268
0.418263
0.418257
0.418251
0.418245
0.418238
0.418231
0.418225
0.418218
0.418212
0.418206
0.4182
0.418195
0.418191
0.418188
0.418187
0.41819
0.418205
0.418264
0.419107
0.419051
0.419035
0.419032
0.419034
0.419037
0.419042
0.419047
0.419053
0.41906
0.419067
0.419074
0.419081
0.419088
0.419095
0.419102
0.419109
0.419115
0.419121
0.419126
0.419131
0.419136
0.41914
0.419143
0.419146
0.419149
0.419151
0.419152
0.419153
0.419154
0.419154
0.419153
0.419152
0.419151
0.419149
0.419146
0.419143
0.41914
0.419136
0.419131
0.419126
0.419121
0.419115
0.419109
0.419102
0.419095
0.419088
0.419081
0.419074
0.419067
0.41906
0.419053
0.419047
0.419042
0.419037
0.419034
0.419032
0.419035
0.419051
0.419107
0.419959
0.419907
0.419892
0.419889
0.41989
0.419894
0.419899
0.419905
0.419911
0.419919
0.419926
0.419934
0.419941
0.419949
0.419957
0.419964
0.419971
0.419978
0.419984
0.41999
0.419995
0.42
0.420004
0.420008
0.420011
0.420014
0.420016
0.420018
0.420019
0.42002
0.42002
0.420019
0.420018
0.420016
0.420014
0.420011
0.420008
0.420004
0.42
0.419995
0.41999
0.419984
0.419978
0.419971
0.419964
0.419957
0.419949
0.419941
0.419934
0.419926
0.419919
0.419911
0.419905
0.419899
0.419894
0.41989
0.419889
0.419892
0.419907
0.419959
0.420829
0.42078
0.420765
0.420762
0.420763
0.420767
0.420773
0.420779
0.420786
0.420794
0.420802
0.42081
0.420818
0.420827
0.420835
0.420843
0.42085
0.420857
0.420864
0.42087
0.420876
0.420881
0.420886
0.42089
0.420894
0.420897
0.420899
0.420901
0.420902
0.420902
0.420902
0.420902
0.420901
0.420899
0.420897
0.420894
0.42089
0.420886
0.420881
0.420876
0.42087
0.420864
0.420857
0.42085
0.420843
0.420835
0.420827
0.420818
0.42081
0.420802
0.420794
0.420786
0.420779
0.420773
0.420767
0.420763
0.420762
0.420765
0.42078
0.420829
0.421719
0.421673
0.421658
0.421655
0.421657
0.421662
0.421667
0.421674
0.421682
0.42169
0.421699
0.421707
0.421716
0.421725
0.421734
0.421742
0.42175
0.421758
0.421765
0.421772
0.421778
0.421784
0.421789
0.421793
0.421797
0.4218
0.421803
0.421805
0.421806
0.421806
0.421806
0.421806
0.421805
0.421803
0.4218
0.421797
0.421793
0.421789
0.421784
0.421778
0.421772
0.421765
0.421758
0.42175
0.421742
0.421734
0.421725
0.421716
0.421707
0.421699
0.42169
0.421682
0.421674
0.421667
0.421662
0.421657
0.421655
0.421658
0.421673
0.421719
0.422633
0.42259
0.422576
0.422573
0.422575
0.422579
0.422586
0.422593
0.422601
0.42261
0.422619
0.422629
0.422638
0.422648
0.422657
0.422666
0.422675
0.422683
0.42269
0.422698
0.422704
0.42271
0.422716
0.42272
0.422724
0.422728
0.42273
0.422732
0.422734
0.422734
0.422734
0.422734
0.422732
0.42273
0.422728
0.422724
0.42272
0.422716
0.42271
0.422704
0.422698
0.42269
0.422683
0.422675
0.422666
0.422657
0.422648
0.422638
0.422629
0.422619
0.42261
0.422601
0.422593
0.422586
0.422579
0.422575
0.422573
0.422576
0.42259
0.422633
0.423573
0.423533
0.423518
0.423516
0.423518
0.423523
0.42353
0.423538
0.423546
0.423556
0.423565
0.423575
0.423586
0.423596
0.423606
0.423615
0.423624
0.423633
0.423641
0.423649
0.423656
0.423663
0.423668
0.423673
0.423677
0.423681
0.423684
0.423686
0.423688
0.423688
0.423688
0.423688
0.423686
0.423684
0.423681
0.423677
0.423673
0.423668
0.423663
0.423656
0.423649
0.423641
0.423633
0.423624
0.423615
0.423606
0.423596
0.423586
0.423575
0.423565
0.423556
0.423546
0.423538
0.42353
0.423523
0.423518
0.423516
0.423518
0.423533
0.423573
0.42454
0.424503
0.424489
0.424486
0.424489
0.424494
0.424501
0.424509
0.424519
0.424529
0.424539
0.42455
0.424561
0.424571
0.424582
0.424592
0.424602
0.424611
0.42462
0.424628
0.424636
0.424642
0.424648
0.424654
0.424658
0.424662
0.424665
0.424667
0.424669
0.42467
0.42467
0.424669
0.424667
0.424665
0.424662
0.424658
0.424654
0.424648
0.424642
0.424636
0.424628
0.42462
0.424611
0.424602
0.424592
0.424582
0.424571
0.424561
0.42455
0.424539
0.424529
0.424519
0.424509
0.424501
0.424494
0.424489
0.424486
0.424489
0.424503
0.42454
0.425535
0.425501
0.425487
0.425485
0.425488
0.425493
0.425501
0.42551
0.42552
0.42553
0.425541
0.425553
0.425564
0.425576
0.425587
0.425598
0.425608
0.425618
0.425627
0.425636
0.425644
0.425651
0.425657
0.425663
0.425668
0.425672
0.425675
0.425678
0.425679
0.42568
0.42568
0.425679
0.425678
0.425675
0.425672
0.425668
0.425663
0.425657
0.425651
0.425644
0.425636
0.425627
0.425618
0.425608
0.425598
0.425587
0.425576
0.425564
0.425553
0.425541
0.42553
0.42552
0.42551
0.425501
0.425493
0.425488
0.425485
0.425487
0.425501
0.425535
0.426561
0.426529
0.426515
0.426513
0.426516
0.426522
0.42653
0.42654
0.42655
0.426562
0.426573
0.426585
0.426598
0.42661
0.426622
0.426633
0.426644
0.426655
0.426664
0.426674
0.426682
0.42669
0.426696
0.426702
0.426708
0.426712
0.426715
0.426718
0.42672
0.42672
0.42672
0.42672
0.426718
0.426715
0.426712
0.426708
0.426702
0.426696
0.42669
0.426682
0.426674
0.426664
0.426655
0.426644
0.426633
0.426622
0.42661
0.426598
0.426585
0.426573
0.426562
0.42655
0.42654
0.42653
0.426522
0.426516
0.426513
0.426515
0.426529
0.426561
0.427617
0.427587
0.427574
0.427572
0.427576
0.427582
0.427591
0.427601
0.427612
0.427624
0.427636
0.427649
0.427662
0.427675
0.427687
0.427699
0.427711
0.427722
0.427733
0.427742
0.427751
0.427759
0.427766
0.427773
0.427778
0.427783
0.427786
0.427789
0.427791
0.427792
0.427792
0.427791
0.427789
0.427786
0.427783
0.427778
0.427773
0.427766
0.427759
0.427751
0.427742
0.427733
0.427722
0.427711
0.427699
0.427687
0.427675
0.427662
0.427649
0.427636
0.427624
0.427612
0.427601
0.427591
0.427582
0.427576
0.427572
0.427574
0.427587
0.427617
0.428704
0.428677
0.428665
0.428663
0.428667
0.428674
0.428683
0.428693
0.428705
0.428718
0.428731
0.428744
0.428758
0.428771
0.428785
0.428798
0.42881
0.428822
0.428833
0.428843
0.428852
0.428861
0.428868
0.428875
0.428881
0.428886
0.428889
0.428892
0.428894
0.428895
0.428895
0.428894
0.428892
0.428889
0.428886
0.428881
0.428875
0.428868
0.428861
0.428852
0.428843
0.428833
0.428822
0.42881
0.428798
0.428785
0.428771
0.428758
0.428744
0.428731
0.428718
0.428705
0.428693
0.428683
0.428674
0.428667
0.428663
0.428665
0.428677
0.428704
0.429824
0.429799
0.429788
0.429786
0.42979
0.429798
0.429807
0.429818
0.429831
0.429844
0.429858
0.429872
0.429887
0.429901
0.429915
0.429929
0.429942
0.429954
0.429966
0.429976
0.429986
0.429995
0.430003
0.43001
0.430017
0.430022
0.430026
0.430029
0.430031
0.430032
0.430032
0.430031
0.430029
0.430026
0.430022
0.430017
0.43001
0.430003
0.429995
0.429986
0.429976
0.429966
0.429954
0.429942
0.429929
0.429915
0.429901
0.429887
0.429872
0.429858
0.429844
0.429831
0.429818
0.429807
0.429798
0.42979
0.429786
0.429788
0.429799
0.429824
0.430978
0.430955
0.430945
0.430943
0.430948
0.430956
0.430966
0.430977
0.430991
0.431005
0.431019
0.431034
0.431049
0.431065
0.431079
0.431094
0.431107
0.43112
0.431133
0.431144
0.431155
0.431164
0.431173
0.43118
0.431186
0.431192
0.431196
0.431199
0.431201
0.431202
0.431202
0.431201
0.431199
0.431196
0.431192
0.431186
0.43118
0.431173
0.431164
0.431155
0.431144
0.431133
0.43112
0.431107
0.431094
0.431079
0.431065
0.431049
0.431034
0.431019
0.431005
0.430991
0.430977
0.430966
0.430956
0.430948
0.430943
0.430945
0.430955
0.430978
0.432167
0.432146
0.432136
0.432135
0.43214
0.432148
0.432159
0.432171
0.432185
0.4322
0.432215
0.432231
0.432247
0.432263
0.432279
0.432294
0.432308
0.432322
0.432335
0.432347
0.432358
0.432368
0.432377
0.432384
0.432391
0.432397
0.432401
0.432405
0.432407
0.432408
0.432408
0.432407
0.432405
0.432401
0.432397
0.432391
0.432384
0.432377
0.432368
0.432358
0.432347
0.432335
0.432322
0.432308
0.432294
0.432279
0.432263
0.432247
0.432231
0.432215
0.4322
0.432185
0.432171
0.432159
0.432148
0.43214
0.432135
0.432136
0.432146
0.432167
0.433392
0.433372
0.433363
0.433363
0.433368
0.433376
0.433388
0.433401
0.433415
0.433431
0.433447
0.433464
0.433481
0.433497
0.433514
0.43353
0.433545
0.433559
0.433573
0.433585
0.433597
0.433608
0.433617
0.433625
0.433632
0.433638
0.433643
0.433646
0.433649
0.43365
0.43365
0.433649
0.433646
0.433643
0.433638
0.433632
0.433625
0.433617
0.433608
0.433597
0.433585
0.433573
0.433559
0.433545
0.43353
0.433514
0.433497
0.433481
0.433464
0.433447
0.433431
0.433415
0.433401
0.433388
0.433376
0.433368
0.433363
0.433363
0.433372
0.433392
0.434653
0.434636
0.434627
0.434627
0.434632
0.434642
0.434654
0.434667
0.434683
0.434699
0.434716
0.434734
0.434751
0.434769
0.434786
0.434803
0.434819
0.434834
0.434848
0.434861
0.434874
0.434885
0.434894
0.434903
0.434911
0.434917
0.434922
0.434925
0.434928
0.434929
0.434929
0.434928
0.434925
0.434922
0.434917
0.434911
0.434903
0.434894
0.434885
0.434874
0.434861
0.434848
0.434834
0.434819
0.434803
0.434786
0.434769
0.434751
0.434734
0.434716
0.434699
0.434683
0.434667
0.434654
0.434642
0.434632
0.434627
0.434627
0.434636
0.434653
0.435952
0.435937
0.435929
0.435929
0.435935
0.435945
0.435957
0.435972
0.435988
0.436005
0.436023
0.436041
0.43606
0.436078
0.436096
0.436114
0.436131
0.436147
0.436162
0.436176
0.436188
0.4362
0.43621
0.436219
0.436227
0.436234
0.436239
0.436243
0.436245
0.436247
0.436247
0.436245
0.436243
0.436239
0.436234
0.436227
0.436219
0.43621
0.4362
0.436188
0.436176
0.436162
0.436147
0.436131
0.436114
0.436096
0.436078
0.43606
0.436041
0.436023
0.436005
0.435988
0.435972
0.435957
0.435945
0.435935
0.435929
0.435929
0.435937
0.435952
0.437291
0.437277
0.437269
0.43727
0.437277
0.437287
0.4373
0.437315
0.437332
0.43735
0.437369
0.437389
0.437408
0.437427
0.437446
0.437465
0.437482
0.437499
0.437515
0.437529
0.437543
0.437555
0.437566
0.437575
0.437583
0.43759
0.437596
0.4376
0.437603
0.437604
0.437604
0.437603
0.4376
0.437596
0.43759
0.437583
0.437575
0.437566
0.437555
0.437543
0.437529
0.437515
0.437499
0.437482
0.437465
0.437446
0.437427
0.437408
0.437389
0.437369
0.43735
0.437332
0.437315
0.4373
0.437287
0.437277
0.43727
0.437269
0.437277
0.437291
0.43867
0.438657
0.43865
0.438652
0.438659
0.43867
0.438683
0.438699
0.438717
0.438736
0.438756
0.438776
0.438796
0.438817
0.438837
0.438856
0.438874
0.438892
0.438908
0.438924
0.438938
0.43895
0.438962
0.438972
0.43898
0.438987
0.438993
0.438997
0.439
0.439002
0.439002
0.439
0.438997
0.438993
0.438987
0.43898
0.438972
0.438962
0.43895
0.438938
0.438924
0.438908
0.438892
0.438874
0.438856
0.438837
0.438817
0.438796
0.438776
0.438756
0.438736
0.438717
0.438699
0.438683
0.43867
0.438659
0.438652
0.43865
0.438657
0.43867
0.44009
0.440078
0.440073
0.440075
0.440082
0.440094
0.440108
0.440125
0.440144
0.440163
0.440184
0.440205
0.440227
0.440248
0.440269
0.440289
0.440308
0.440327
0.440344
0.44036
0.440375
0.440388
0.4404
0.44041
0.440419
0.440427
0.440433
0.440437
0.44044
0.440442
0.440442
0.44044
0.440437
0.440433
0.440427
0.440419
0.44041
0.4404
0.440388
0.440375
0.44036
0.440344
0.440327
0.440308
0.440289
0.440269
0.440248
0.440227
0.440205
0.440184
0.440163
0.440144
0.440125
0.440108
0.440094
0.440082
0.440075
0.440073
0.440078
0.44009
0.441553
0.441543
0.441538
0.44154
0.441548
0.44156
0.441576
0.441593
0.441613
0.441633
0.441655
0.441677
0.4417
0.441722
0.441744
0.441765
0.441785
0.441804
0.441822
0.441839
0.441855
0.441868
0.441881
0.441892
0.441901
0.441909
0.441915
0.44192
0.441923
0.441925
0.441925
0.441923
0.44192
0.441915
0.441909
0.441901
0.441892
0.441881
0.441868
0.441855
0.441839
0.441822
0.441804
0.441785
0.441765
0.441744
0.441722
0.4417
0.441677
0.441655
0.441633
0.441613
0.441593
0.441576
0.44156
0.441548
0.44154
0.441538
0.441543
0.441553
0.44306
0.443051
0.443047
0.44305
0.443058
0.443071
0.443087
0.443106
0.443126
0.443148
0.44317
0.443194
0.443217
0.44324
0.443263
0.443285
0.443306
0.443326
0.443345
0.443363
0.443379
0.443394
0.443407
0.443418
0.443428
0.443436
0.443443
0.443447
0.443451
0.443452
0.443452
0.443451
0.443447
0.443443
0.443436
0.443428
0.443418
0.443407
0.443394
0.443379
0.443363
0.443345
0.443326
0.443306
0.443285
0.443263
0.44324
0.443217
0.443194
0.44317
0.443148
0.443126
0.443106
0.443087
0.443071
0.443058
0.44305
0.443047
0.443051
0.44306
0.444612
0.444604
0.444601
0.444605
0.444614
0.444627
0.444644
0.444663
0.444685
0.444707
0.444731
0.444755
0.44478
0.444804
0.444828
0.444851
0.444873
0.444894
0.444914
0.444932
0.444949
0.444964
0.444978
0.44499
0.445
0.445009
0.445016
0.445021
0.445024
0.445026
0.445026
0.445024
0.445021
0.445016
0.445009
0.445
0.44499
0.444978
0.444964
0.444949
0.444932
0.444914
0.444894
0.444873
0.444851
0.444828
0.444804
0.44478
0.444755
0.444731
0.444707
0.444685
0.444663
0.444644
0.444627
0.444614
0.444605
0.444601
0.444604
0.444612
0.446211
0.446204
0.446202
0.446206
0.446216
0.44623
0.446248
0.446268
0.44629
0.446314
0.446339
0.446364
0.44639
0.446415
0.44644
0.446464
0.446487
0.446509
0.44653
0.446549
0.446567
0.446582
0.446597
0.446609
0.44662
0.446629
0.446636
0.446641
0.446645
0.446647
0.446647
0.446645
0.446641
0.446636
0.446629
0.44662
0.446609
0.446597
0.446582
0.446567
0.446549
0.44653
0.446509
0.446487
0.446464
0.44644
0.446415
0.44639
0.446364
0.446339
0.446314
0.44629
0.446268
0.446248
0.44623
0.446216
0.446206
0.446202
0.446204
0.446211
0.447857
0.447852
0.447851
0.447855
0.447866
0.447881
0.447899
0.44792
0.447944
0.447969
0.447994
0.448021
0.448048
0.448074
0.4481
0.448126
0.44815
0.448173
0.448194
0.448214
0.448232
0.448249
0.448264
0.448277
0.448288
0.448297
0.448305
0.44831
0.448314
0.448316
0.448316
0.448314
0.44831
0.448305
0.448297
0.448288
0.448277
0.448264
0.448249
0.448232
0.448214
0.448194
0.448173
0.44815
0.448126
0.4481
0.448074
0.448048
0.448021
0.447994
0.447969
0.447944
0.44792
0.447899
0.447881
0.447866
0.447855
0.447851
0.447852
0.447857
0.449554
0.449549
0.449549
0.449554
0.449565
0.449581
0.4496
0.449623
0.449647
0.449673
0.4497
0.449728
0.449756
0.449783
0.44981
0.449837
0.449862
0.449886
0.449908
0.449929
0.449948
0.449966
0.449981
0.449995
0.450006
0.450016
0.450024
0.45003
0.450034
0.450036
0.450036
0.450034
0.45003
0.450024
0.450016
0.450006
0.449995
0.449981
0.449966
0.449948
0.449929
0.449908
0.449886
0.449862
0.449837
0.44981
0.449783
0.449756
0.449728
0.4497
0.449673
0.449647
0.449623
0.4496
0.449581
0.449565
0.449554
0.449549
0.449549
0.449554
0.451301
0.451298
0.451298
0.451304
0.451316
0.451332
0.451353
0.451376
0.451401
0.451428
0.451457
0.451486
0.451515
0.451544
0.451572
0.451599
0.451626
0.451651
0.451674
0.451696
0.451716
0.451734
0.45175
0.451764
0.451776
0.451786
0.451795
0.451801
0.451805
0.451807
0.451807
0.451805
0.451801
0.451795
0.451786
0.451776
0.451764
0.45175
0.451734
0.451716
0.451696
0.451674
0.451651
0.451626
0.451599
0.451572
0.451544
0.451515
0.451486
0.451457
0.451428
0.451401
0.451376
0.451353
0.451332
0.451316
0.451304
0.451298
0.451298
0.451301
0.453101
0.453098
0.453099
0.453106
0.453119
0.453136
0.453157
0.453182
0.453208
0.453237
0.453266
0.453296
0.453327
0.453357
0.453386
0.453415
0.453442
0.453469
0.453493
0.453516
0.453536
0.453555
0.453572
0.453587
0.453599
0.45361
0.453618
0.453625
0.453629
0.453631
0.453631
0.453629
0.453625
0.453618
0.45361
0.453599
0.453587
0.453572
0.453555
0.453536
0.453516
0.453493
0.453469
0.453442
0.453415
0.453386
0.453357
0.453327
0.453296
0.453266
0.453237
0.453208
0.453182
0.453157
0.453136
0.453119
0.453106
0.453099
0.453098
0.453101
0.454955
0.454953
0.454955
0.454963
0.454976
0.454994
0.455016
0.455042
0.455069
0.455099
0.45513
0.455161
0.455193
0.455224
0.455255
0.455285
0.455314
0.455341
0.455366
0.45539
0.455412
0.455431
0.455449
0.455464
0.455477
0.455488
0.455497
0.455504
0.455508
0.45551
0.45551
0.455508
0.455504
0.455497
0.455488
0.455477
0.455464
0.455449
0.455431
0.455412
0.45539
0.455366
0.455341
0.455314
0.455285
0.455255
0.455224
0.455193
0.455161
0.45513
0.455099
0.455069
0.455042
0.455016
0.454994
0.454976
0.454963
0.454955
0.454953
0.454955
0.456865
0.456863
0.456866
0.456875
0.456889
0.456908
0.456931
0.456958
0.456987
0.457017
0.457049
0.457082
0.457115
0.457148
0.45718
0.457211
0.457241
0.457269
0.457296
0.457321
0.457343
0.457364
0.457382
0.457398
0.457411
0.457423
0.457432
0.457439
0.457444
0.457446
0.457446
0.457444
0.457439
0.457432
0.457423
0.457411
0.457398
0.457382
0.457364
0.457343
0.457321
0.457296
0.457269
0.457241
0.457211
0.45718
0.457148
0.457115
0.457082
0.457049
0.457017
0.456987
0.456958
0.456931
0.456908
0.456889
0.456875
0.456866
0.456863
0.456865
0.458831
0.458831
0.458835
0.458844
0.458859
0.458879
0.458903
0.458931
0.458961
0.458993
0.459027
0.459061
0.459095
0.45913
0.459163
0.459195
0.459227
0.459256
0.459284
0.459309
0.459333
0.459354
0.459373
0.45939
0.459404
0.459416
0.459425
0.459432
0.459437
0.45944
0.45944
0.459437
0.459432
0.459425
0.459416
0.459404
0.45939
0.459373
0.459354
0.459333
0.459309
0.459284
0.459256
0.459227
0.459195
0.459163
0.45913
0.459095
0.459061
0.459027
0.458993
0.458961
0.458931
0.458903
0.458879
0.458859
0.458844
0.458835
0.458831
0.458831
0.460857
0.460858
0.460862
0.460872
0.460888
0.460909
0.460935
0.460963
0.460995
0.461028
0.461063
0.461099
0.461135
0.461171
0.461205
0.461239
0.461271
0.461302
0.461331
0.461357
0.461382
0.461404
0.461424
0.461441
0.461456
0.461468
0.461478
0.461486
0.461491
0.461493
0.461493
0.461491
0.461486
0.461478
0.461468
0.461456
0.461441
0.461424
0.461404
0.461382
0.461357
0.461331
0.461302
0.461271
0.461239
0.461205
0.461171
0.461135
0.461099
0.461063
0.461028
0.460995
0.460963
0.460935
0.460909
0.460888
0.460872
0.460862
0.460858
0.460857
0.462944
0.462945
0.46295
0.462961
0.462978
0.463
0.463027
0.463057
0.46309
0.463125
0.463161
0.463198
0.463236
0.463273
0.463309
0.463344
0.463378
0.46341
0.46344
0.463467
0.463493
0.463516
0.463536
0.463554
0.46357
0.463583
0.463593
0.463601
0.463606
0.463608
0.463608
0.463606
0.463601
0.463593
0.463583
0.46357
0.463554
0.463536
0.463516
0.463493
0.463467
0.46344
0.46341
0.463378
0.463344
0.463309
0.463273
0.463236
0.463198
0.463161
0.463125
0.46309
0.463057
0.463027
0.463
0.462978
0.462961
0.46295
0.462945
0.462944
0.465094
0.465095
0.465101
0.465113
0.465131
0.465154
0.465182
0.465213
0.465247
0.465284
0.465322
0.465361
0.465399
0.465438
0.465476
0.465512
0.465547
0.465581
0.465612
0.465641
0.465667
0.465691
0.465712
0.465731
0.465747
0.46576
0.465771
0.465779
0.465785
0.465787
0.465787
0.465785
0.465779
0.465771
0.46576
0.465747
0.465731
0.465712
0.465691
0.465667
0.465641
0.465612
0.465581
0.465547
0.465512
0.465476
0.465438
0.465399
0.465361
0.465322
0.465284
0.465247
0.465213
0.465182
0.465154
0.465131
0.465113
0.465101
0.465095
0.465094
0.467307
0.46731
0.467317
0.467329
0.467348
0.467372
0.467401
0.467434
0.46747
0.467508
0.467547
0.467588
0.467628
0.467668
0.467708
0.467746
0.467782
0.467817
0.467849
0.467879
0.467906
0.467931
0.467954
0.467973
0.46799
0.468004
0.468015
0.468023
0.468029
0.468032
0.468032
0.468029
0.468023
0.468015
0.468004
0.46799
0.467973
0.467954
0.467931
0.467906
0.467879
0.467849
0.467817
0.467782
0.467746
0.467708
0.467668
0.467628
0.467588
0.467547
0.467508
0.46747
0.467434
0.467401
0.467372
0.467348
0.467329
0.467317
0.46731
0.467307
0.469588
0.469591
0.469598
0.469612
0.469632
0.469657
0.469688
0.469722
0.469759
0.469799
0.46984
0.469882
0.469924
0.469966
0.470007
0.470046
0.470084
0.47012
0.470154
0.470185
0.470213
0.470239
0.470262
0.470282
0.4703
0.470314
0.470326
0.470335
0.47034
0.470343
0.470343
0.47034
0.470335
0.470326
0.470314
0.4703
0.470282
0.470262
0.470239
0.470213
0.470185
0.470154
0.47012
0.470084
0.470046
0.470007
0.469966
0.469924
0.469882
0.46984
0.469799
0.469759
0.469722
0.469688
0.469657
0.469632
0.469612
0.469598
0.469591
0.469588
0.471936
0.47194
0.471948
0.471963
0.471984
0.472011
0.472042
0.472078
0.472117
0.472158
0.472201
0.472245
0.472288
0.472332
0.472374
0.472416
0.472455
0.472492
0.472527
0.47256
0.472589
0.472616
0.47264
0.472661
0.472679
0.472694
0.472706
0.472715
0.472721
0.472724
0.472724
0.472721
0.472715
0.472706
0.472694
0.472679
0.472661
0.47264
0.472616
0.472589
0.47256
0.472527
0.472492
0.472455
0.472416
0.472374
0.472332
0.472288
0.472245
0.472201
0.472158
0.472117
0.472078
0.472042
0.472011
0.471984
0.471963
0.471948
0.47194
0.471936
0.474355
0.474359
0.474369
0.474385
0.474407
0.474435
0.474468
0.474505
0.474545
0.474588
0.474633
0.474678
0.474724
0.474769
0.474814
0.474856
0.474897
0.474936
0.474972
0.475006
0.475037
0.475065
0.47509
0.475111
0.47513
0.475146
0.475158
0.475168
0.475174
0.475177
0.475177
0.475174
0.475168
0.475158
0.475146
0.47513
0.475111
0.47509
0.475065
0.475037
0.475006
0.474972
0.474936
0.474897
0.474856
0.474814
0.474769
0.474724
0.474678
0.474633
0.474588
0.474545
0.474505
0.474468
0.474435
0.474407
0.474385
0.474369
0.474359
0.474355
0.476847
0.476852
0.476862
0.476879
0.476902
0.476931
0.476966
0.477004
0.477047
0.477091
0.477138
0.477185
0.477233
0.47728
0.477326
0.47737
0.477413
0.477453
0.477491
0.477526
0.477558
0.477587
0.477613
0.477635
0.477655
0.477671
0.477684
0.477694
0.4777
0.477703
0.477703
0.4777
0.477694
0.477684
0.477671
0.477655
0.477635
0.477613
0.477587
0.477558
0.477526
0.477491