/*--------------------------------*- C++ -*----------------------------------*\
| =========                 |                                                 |
| \\      /  F ield         | foam-extend: Open Source CFD                    |
|  \\    /   O peration     | Version:     4.0                                |
|   \\  /    A nd           | Web:         http://www.foam-extend.org         |
|    \\/     M anipulation  |                                                 |
\*---------------------------------------------------------------------------*/
FoamFile
{
    version     2.0;
    format      ascii;
    class       surfaceScalarField;
    location    "5";
    object      phi;
}
// * * * * * * * * * * * * * * * * * * * * * * * * * * * * * * * * * * * * * //

dimensions      [0 3 -1 0 0 0 0];

internalField   nonuniform List<scalar> 
13744
(
-8.54016e-09
8.54016e-09
-1.69878e-08
8.44767e-09
-2.52538e-08
8.26594e-09
-3.32551e-08
8.00129e-09
-4.09177e-08
7.66267e-09
-4.81788e-08
7.2611e-09
-5.49878e-08
6.80901e-09
-6.13074e-08
6.31957e-09
-6.71134e-08
5.80601e-09
-7.23944e-08
5.28102e-09
-7.71507e-08
4.75628e-09
-8.13928e-08
4.24207e-09
-8.51398e-08
3.74707e-09
-8.84181e-08
3.27822e-09
-9.12588e-08
2.84074e-09
-9.3697e-08
2.43819e-09
-9.57696e-08
2.07262e-09
-9.75144e-08
1.74476e-09
-9.89686e-08
1.45422e-09
-1.00168e-07
1.19971e-09
-1.01148e-07
9.79211e-10
-1.01938e-07
7.90167e-10
-1.02567e-07
6.2965e-10
-1.03062e-07
4.94478e-10
-1.03443e-07
3.81319e-10
-1.0373e-07
2.86767e-10
-1.03937e-07
2.07395e-10
-1.04077e-07
1.39787e-10
-1.04158e-07
8.05529e-11
-1.04184e-07
2.63288e-11
-1.04158e-07
-2.62276e-11
-1.04077e-07
-8.04515e-11
-1.03938e-07
-1.39686e-10
-1.0373e-07
-2.07293e-10
-1.03444e-07
-2.86664e-10
-1.03062e-07
-3.81215e-10
-1.02568e-07
-4.94374e-10
-1.01939e-07
-6.29547e-10
-1.01148e-07
-7.90065e-10
-1.00169e-07
-9.79111e-10
-9.89697e-08
-1.19962e-09
-9.75156e-08
-1.45413e-09
-9.57709e-08
-1.74467e-09
-9.36984e-08
-2.07254e-09
-9.12602e-08
-2.43812e-09
-8.84196e-08
-2.84069e-09
-8.51414e-08
-3.27819e-09
-8.13943e-08
-3.74705e-09
-7.71522e-08
-4.24207e-09
-7.23959e-08
-4.7563e-09
-6.71149e-08
-5.28107e-09
-6.13088e-08
-5.80608e-09
-5.49891e-08
-6.31967e-09
-4.818e-08
-6.80913e-09
-4.09187e-08
-7.26125e-09
-3.32559e-08
-7.66284e-09
-2.52544e-08
-8.00148e-09
-1.69883e-08
-8.26614e-09
-8.54038e-09
-8.44788e-09
-8.54038e-09
-2.65765e-08
3.51167e-08
-5.28656e-08
3.47368e-08
-7.859e-08
3.39903e-08
-1.03492e-07
3.29032e-08
-1.27341e-07
3.15122e-08
-1.49943e-07
2.98626e-08
-1.71139e-07
2.80052e-08
-1.90814e-07
2.59943e-08
-2.08892e-07
2.38841e-08
-2.25338e-07
2.17268e-08
-2.40152e-07
1.95702e-08
-2.53366e-07
1.74567e-08
-2.65041e-07
1.54219e-08
-2.75257e-07
1.34944e-08
-2.84112e-07
1.16956e-08
-2.91714e-07
1.00401e-08
-2.98178e-07
8.53647e-09
-3.03621e-07
7.18772e-09
-3.08159e-07
5.9923e-09
-3.11904e-07
4.94488e-09
-3.14962e-07
4.0372e-09
-3.17431e-07
3.2588e-09
-3.19399e-07
2.59766e-09
-3.20945e-07
2.04071e-09
-3.22138e-07
1.57426e-09
-3.23036e-07
1.18431e-09
-3.23685e-07
8.5679e-10
-3.24123e-07
5.77644e-10
-3.24375e-07
3.32934e-10
-3.24458e-07
1.0883e-10
-3.24376e-07
-1.08415e-10
-3.24123e-07
-3.32518e-10
-3.23686e-07
-5.77226e-10
-3.23037e-07
-8.56369e-10
-3.2214e-07
-1.18389e-09
-3.20947e-07
-1.57383e-09
-3.19401e-07
-2.04028e-09
-3.17433e-07
-2.59724e-09
-3.14965e-07
-3.25838e-09
-3.11907e-07
-4.03679e-09
-3.08163e-07
-4.94448e-09
-3.03625e-07
-5.99192e-09
-2.98182e-07
-7.18737e-09
-2.91718e-07
-8.53615e-09
-2.84117e-07
-1.00398e-08
-2.75262e-07
-1.16953e-08
-2.65046e-07
-1.34942e-08
-2.53371e-07
-1.54219e-08
-2.40157e-07
-1.74567e-08
-2.25343e-07
-1.95703e-08
-2.08897e-07
-2.1727e-08
-1.90818e-07
-2.38845e-08
-1.71143e-07
-2.59947e-08
-1.49947e-07
-2.80058e-08
-1.27345e-07
-2.98632e-08
-1.03494e-07
-3.15129e-08
-7.8592e-08
-3.2904e-08
-5.2867e-08
-3.39911e-08
-2.65772e-08
-3.47376e-08
-3.51176e-08
-4.6154e-08
8.12707e-08
-9.18094e-08
8.03922e-08
-1.36485e-07
7.86661e-08
-1.79734e-07
7.61524e-08
-2.21158e-07
7.29358e-08
-2.60416e-07
6.91208e-08
-2.97236e-07
6.48255e-08
-3.31417e-07
6.01746e-08
-3.62826e-07
5.52938e-08
-3.91403e-07
5.03036e-08
-4.17148e-07
4.53148e-08
-4.40116e-07
4.04252e-08
-4.60411e-07
3.57172e-08
-4.78174e-07
3.12569e-08
-4.93572e-07
2.7094e-08
-5.06795e-07
2.32624e-08
-5.1804e-07
1.97818e-08
-5.27511e-07
1.66593e-08
-5.35411e-07
1.38913e-08
-5.41931e-07
1.14656e-08
-5.47257e-07
9.36315e-09
-5.51558e-07
7.55976e-09
-5.54988e-07
6.02765e-09
-5.57684e-07
4.7366e-09
-5.59765e-07
3.65496e-09
-5.61331e-07
2.75038e-09
-5.62464e-07
1.99026e-09
-5.63229e-07
1.34212e-09
-5.63669e-07
7.7367e-10
-5.63814e-07
2.52919e-10
-5.6367e-07
-2.51956e-10
-5.6323e-07
-7.72705e-10
-5.62466e-07
-1.34115e-09
-5.61333e-07
-1.98929e-09
-5.59767e-07
-2.7494e-09
-5.57687e-07
-3.65398e-09
-5.54992e-07
-4.73561e-09
-5.51563e-07
-6.02667e-09
-5.47262e-07
-7.5588e-09
-5.41937e-07
-9.36221e-09
-5.35417e-07
-1.14647e-08
-5.27518e-07
-1.38904e-08
-5.18047e-07
-1.66585e-08
-5.06802e-07
-1.97811e-08
-4.9358e-07
-2.32618e-08
-4.78182e-07
-2.70935e-08
-4.6042e-07
-3.12565e-08
-4.40125e-07
-3.5717e-08
-4.17156e-07
-4.04252e-08
-3.91411e-07
-4.5315e-08
-3.62834e-07
-5.03041e-08
-3.31424e-07
-5.52946e-08
-2.97243e-07
-6.01756e-08
-2.60422e-07
-6.48267e-08
-2.21163e-07
-6.91222e-08
-1.79739e-07
-7.29374e-08
-1.36489e-07
-7.61542e-08
-9.18118e-08
-7.86681e-08
-4.61552e-08
-8.03942e-08
-8.12728e-08
-6.73725e-08
1.48643e-07
-1.34018e-07
1.47038e-07
-1.99235e-07
1.43883e-07
-2.62372e-07
1.39289e-07
-3.22847e-07
1.33411e-07
-3.80165e-07
1.26438e-07
-4.33926e-07
1.18587e-07
-4.83838e-07
1.10086e-07
-5.29708e-07
1.01164e-07
-5.71446e-07
9.20415e-08
-6.09052e-07
8.29207e-08
-6.42608e-07
7.39806e-08
-6.72262e-07
6.53717e-08
-6.9822e-07
5.7215e-08
-7.20728e-07
4.96013e-08
-7.40058e-07
4.25928e-08
-7.56502e-07
3.62256e-08
-7.70355e-07
3.05126e-08
-7.81912e-07
2.54476e-08
-7.91454e-07
2.10082e-08
-7.99251e-07
1.71597e-08
-8.05549e-07
1.38579e-08
-8.10573e-07
1.10521e-08
-8.14524e-07
8.68719e-09
-8.17574e-07
6.7052e-09
-8.19871e-07
5.04702e-09
-8.21534e-07
3.65306e-09
-8.22655e-07
2.46391e-09
-8.23302e-07
1.42054e-09
-8.23514e-07
4.6442e-10
-8.23303e-07
-4.62661e-10
-8.22657e-07
-1.41878e-09
-8.21536e-07
-2.46214e-09
-8.19874e-07
-3.65129e-09
-8.17578e-07
-5.04523e-09
-8.14529e-07
-6.70341e-09
-8.10579e-07
-8.68539e-09
-8.05555e-07
-1.10504e-08
-7.99258e-07
-1.38561e-08
-7.91462e-07
-1.71579e-08
-7.8192e-07
-2.10065e-08
-7.70365e-07
-2.5446e-08
-7.56512e-07
-3.05111e-08
-7.40069e-07
-3.62242e-08
-7.20739e-07
-4.25917e-08
-6.98232e-07
-4.96004e-08
-6.72274e-07
-5.72144e-08
-6.4262e-07
-6.53714e-08
-6.09064e-07
-7.39806e-08
-5.71458e-07
-8.29212e-08
-5.2972e-07
-9.20424e-08
-4.83849e-07
-1.01166e-07
-4.33937e-07
-1.10088e-07
-3.80174e-07
-1.18589e-07
-3.22855e-07
-1.26441e-07
-2.62379e-07
-1.33414e-07
-1.9924e-07
-1.39293e-07
-1.34021e-07
-1.43887e-07
-6.73742e-08
-1.47041e-07
-1.48647e-07
-9.03375e-08
2.38981e-07
-1.79701e-07
2.36402e-07
-2.67152e-07
2.31334e-07
-3.51817e-07
2.23954e-07
-4.32916e-07
2.1451e-07
-5.09786e-07
2.03308e-07
-5.81892e-07
1.90694e-07
-6.48841e-07
1.77035e-07
-7.10375e-07
1.62698e-07
-7.66371e-07
1.48038e-07
-8.16831e-07
1.3338e-07
-8.61861e-07
1.19011e-07
-9.01663e-07
1.05174e-07
-9.3651e-07
9.20614e-08
-9.66729e-07
7.98209e-08
-9.92689e-07
6.85521e-08
-1.01478e-06
5.83132e-08
-1.03339e-06
4.91252e-08
-1.04892e-06
4.09781e-08
-1.06175e-06
3.38362e-08
-1.07223e-06
2.76437e-08
-1.0807e-06
2.23299e-08
-1.08746e-06
1.78133e-08
-1.09278e-06
1.40052e-08
-1.09689e-06
1.08128e-08
-1.09998e-06
8.14089e-09
-1.10222e-06
5.89383e-09
-1.10374e-06
3.97605e-09
-1.10461e-06
2.29269e-09
-1.10489e-06
7.49606e-10
-1.10461e-06
-7.46778e-10
-1.10374e-06
-2.28985e-09
-1.10223e-06
-3.9732e-09
-1.09999e-06
-5.89097e-09
-1.0969e-06
-8.13801e-09
-1.09279e-06
-1.08099e-08
-1.08747e-06
-1.40023e-08
-1.08071e-06
-1.78104e-08
-1.07224e-06
-2.2327e-08
-1.06176e-06
-2.76409e-08
-1.04893e-06
-3.38335e-08
-1.0334e-06
-4.09755e-08
-1.01479e-06
-4.91228e-08
-9.92703e-07
-5.83111e-08
-9.66744e-07
-6.85503e-08
-9.36525e-07
-7.98195e-08
-9.01679e-07
-9.20604e-08
-8.61878e-07
-1.05173e-07
-8.16847e-07
-1.19011e-07
-7.66387e-07
-1.33381e-07
-7.1039e-07
-1.4804e-07
-6.48855e-07
-1.627e-07
-5.81906e-07
-1.77037e-07
-5.09798e-07
-1.90697e-07
-4.32927e-07
-2.03312e-07
-3.51826e-07
-2.14515e-07
-2.67159e-07
-2.2396e-07
-1.79706e-07
-2.3134e-07
-9.03398e-08
-2.36408e-07
-2.38987e-07
-1.1516e-07
3.54141e-07
-2.29081e-07
3.50322e-07
-3.40566e-07
3.42819e-07
-4.48504e-07
3.31891e-07
-5.519e-07
3.17907e-07
-6.49911e-07
3.01318e-07
-7.41856e-07
2.82639e-07
-8.27231e-07
2.62409e-07
-9.05709e-07
2.41176e-07
-9.77133e-07
2.19462e-07
-1.0415e-06
1.9775e-07
-1.09896e-06
1.76464e-07
-1.14974e-06
1.55963e-07
-1.19422e-06
1.36535e-07
-1.23279e-06
1.18396e-07
-1.26594e-06
1.01696e-07
-1.29414e-06
8.65202e-08
-1.31792e-06
7.29002e-08
-1.33776e-06
6.08215e-08
-1.35416e-06
5.02312e-08
-1.36756e-06
4.10472e-08
-1.3784e-06
3.31648e-08
-1.38705e-06
2.64632e-08
-1.39385e-06
2.08114e-08
-1.39911e-06
1.60718e-08
-1.40307e-06
1.21036e-08
-1.40595e-06
8.76482e-09
-1.40788e-06
5.91404e-09
-1.409e-06
3.41068e-09
-1.40937e-06
1.11522e-09
-1.409e-06
-1.11103e-09
-1.40789e-06
-3.40648e-09
-1.40595e-06
-5.90983e-09
-1.40308e-06
-8.76058e-09
-1.39912e-06
-1.20993e-08
-1.39386e-06
-1.60675e-08
-1.38706e-06
-2.08072e-08
-1.37841e-06
-2.6459e-08
-1.36757e-06
-3.31605e-08
-1.35417e-06
-4.10431e-08
-1.33778e-06
-5.02272e-08
-1.31794e-06
-6.08177e-08
-1.29416e-06
-7.28967e-08
-1.26596e-06
-8.65171e-08
-1.23281e-06
-1.01693e-07
-1.19424e-06
-1.18394e-07
-1.14976e-06
-1.36533e-07
-1.09898e-06
-1.55962e-07
-1.04152e-06
-1.76464e-07
-9.77153e-07
-1.97751e-07
-9.05728e-07
-2.19465e-07
-8.27249e-07
-2.41179e-07
-7.41873e-07
-2.62414e-07
-6.49927e-07
-2.82644e-07
-5.51914e-07
-3.01325e-07
-4.48515e-07
-3.17914e-07
-3.40575e-07
-3.31899e-07
-2.29087e-07
-3.42828e-07
-1.15163e-07
-3.50331e-07
-3.5415e-07
-1.41959e-07
4.961e-07
-2.82392e-07
4.90755e-07
-4.19825e-07
4.80253e-07
-5.52891e-07
4.64957e-07
-6.80365e-07
4.45381e-07
-8.01207e-07
4.2216e-07
-9.14578e-07
3.9601e-07
-1.01986e-06
3.6769e-07
-1.11664e-06
3.37962e-07
-1.20474e-06
3.07559e-07
-1.28415e-06
2.77155e-07
-1.35503e-06
2.47346e-07
-1.4177e-06
2.18634e-07
-1.47259e-06
1.91422e-07
-1.52021e-06
1.66014e-07
-1.56113e-06
1.42618e-07
-1.59596e-06
1.21354e-07
-1.62533e-06
1.02268e-07
-1.64985e-06
8.53395e-08
-1.67011e-06
7.04947e-08
-1.68668e-06
5.76186e-08
-1.70008e-06
4.6565e-08
-1.71078e-06
3.71652e-08
-1.71921e-06
2.92355e-08
-1.72572e-06
2.25835e-08
-1.73063e-06
1.70119e-08
-1.73418e-06
1.23222e-08
-1.73659e-06
8.31605e-09
-1.73797e-06
4.79664e-09
-1.73843e-06
1.56852e-09
-1.73797e-06
-1.56265e-09
-1.73659e-06
-4.79076e-09
-1.73419e-06
-8.31015e-09
-1.73063e-06
-1.23162e-08
-1.72573e-06
-1.70059e-08
-1.71922e-06
-2.25775e-08
-1.7108e-06
-2.92295e-08
-1.7001e-06
-3.71592e-08
-1.6867e-06
-4.65591e-08
-1.67013e-06
-5.76128e-08
-1.64987e-06
-7.04891e-08
-1.62535e-06
-8.53343e-08
-1.59598e-06
-1.02263e-07
-1.56115e-06
-1.2135e-07
-1.52023e-06
-1.42614e-07
-1.47261e-06
-1.66011e-07
-1.41772e-06
-1.9142e-07
-1.35505e-06
-2.18633e-07
-1.28417e-06
-2.47346e-07
-1.20477e-06
-2.77157e-07
-1.11667e-06
-3.07562e-07
-1.01988e-06
-3.37966e-07
-9.14599e-07
-3.67696e-07
-8.01226e-07
-3.96017e-07
-6.80382e-07
-4.22169e-07
-5.52904e-07
-4.45391e-07
-4.19836e-07
-4.64968e-07
-2.82399e-07
-4.80265e-07
-1.41963e-07
-4.90768e-07
-4.96113e-07
-1.70857e-07
6.66957e-07
-3.39879e-07
6.59778e-07
-5.05297e-07
6.4567e-07
-6.65462e-07
6.25122e-07
-8.18906e-07
5.98825e-07
-9.64376e-07
5.6763e-07
-1.10086e-06
5.32498e-07
-1.22762e-06
4.94448e-07
-1.34417e-06
4.54505e-07
-1.45026e-06
4.13651e-07
-1.5459e-06
3.72794e-07
-1.63128e-06
3.32732e-07
-1.70679e-06
2.94141e-07
-1.77293e-06
2.57563e-07
-1.83032e-06
2.23405e-07
-1.87965e-06
1.91949e-07
-1.92166e-06
1.63357e-07
-1.95708e-06
1.37689e-07
-1.98666e-06
1.14919e-07
-2.01111e-06
9.49483e-08
-2.03111e-06
7.76232e-08
-2.0473e-06
6.27472e-08
-2.06022e-06
5.00936e-08
-2.0704e-06
3.94161e-08
-2.07828e-06
3.0456e-08
-2.08421e-06
2.29483e-08
-2.08852e-06
1.66261e-08
-2.09142e-06
1.12231e-08
-2.0931e-06
6.47435e-09
-2.09365e-06
2.11729e-09
-2.0931e-06
-2.1094e-09
-2.09143e-06
-6.46645e-09
-2.08852e-06
-1.12151e-08
-2.08422e-06
-1.66182e-08
-2.07829e-06
-2.29403e-08
-2.07042e-06
-3.04479e-08
-2.06024e-06
-3.94081e-08
-2.04731e-06
-5.00856e-08
-2.03113e-06
-6.27392e-08
-2.01113e-06
-7.76155e-08
-1.98668e-06
-9.49409e-08
-1.9571e-06
-1.14912e-07
-1.92168e-06
-1.37682e-07
-1.87968e-06
-1.63351e-07
-1.83035e-06
-1.91944e-07
-1.77296e-06
-2.23401e-07
-1.70682e-06
-2.5756e-07
-1.63131e-06
-2.9414e-07
-1.54593e-06
-3.32732e-07
-1.45029e-06
-3.72796e-07
-1.34419e-06
-4.13655e-07
-1.22765e-06
-4.54511e-07
-1.10089e-06
-4.94456e-07
-9.64399e-07
-5.32508e-07
-8.18926e-07
-5.67642e-07
-6.65479e-07
-5.98839e-07
-5.05309e-07
-6.25137e-07
-3.39888e-07
-6.45686e-07
-1.70861e-07
-6.59794e-07
-6.66974e-07
-2.01986e-07
8.68943e-07
-4.01805e-07
8.59597e-07
-5.97368e-07
8.41233e-07
-7.86729e-07
8.14484e-07
-9.68154e-07
7.8025e-07
-1.14016e-06
7.39638e-07
-1.30156e-06
6.93898e-07
-1.45147e-06
6.44357e-07
-1.58931e-06
5.92347e-07
-1.71481e-06
5.39149e-07
-1.82796e-06
4.8594e-07
-1.92899e-06
4.33764e-07
-2.01835e-06
3.83498e-07
-2.09663e-06
3.3585e-07
-2.16458e-06
2.9135e-07
-2.22299e-06
2.50363e-07
-2.27274e-06
2.13105e-07
-2.3147e-06
1.79652e-07
-2.34976e-06
1.49972e-07
-2.37874e-06
1.23936e-07
-2.40247e-06
1.01345e-07
-2.42166e-06
8.19429e-08
-2.437e-06
6.54356e-08
-2.44909e-06
5.1502e-08
-2.45844e-06
3.98055e-08
-2.46549e-06
3.00012e-08
-2.47061e-06
2.17414e-08
-2.47406e-06
1.46791e-08
-2.47606e-06
8.46935e-09
-2.47671e-06
2.76991e-09
-2.47606e-06
-2.75965e-09
-2.47407e-06
-8.45906e-09
-2.47061e-06
-1.46687e-08
-2.4655e-06
-2.1731e-08
-2.45845e-06
-2.99908e-08
-2.4491e-06
-3.97951e-08
-2.43702e-06
-5.14916e-08
-2.42168e-06
-6.54252e-08
-2.40249e-06
-8.19326e-08
-2.37877e-06
-1.01335e-07
-2.34978e-06
-1.23926e-07
-2.31473e-06
-1.49962e-07
-2.27277e-06
-1.79644e-07
-2.22302e-06
-2.13097e-07
-2.16461e-06
-2.50357e-07
-2.09667e-06
-2.91344e-07
-2.01838e-06
-3.35846e-07
-1.92903e-06
-3.83497e-07
-1.82799e-06
-4.33764e-07
-1.71485e-06
-4.85943e-07
-1.58935e-06
-5.39154e-07
-1.4515e-06
-5.92355e-07
-1.30159e-06
-6.44368e-07
-1.14019e-06
-6.93911e-07
-9.68178e-07
-7.39653e-07
-7.86749e-07
-7.80267e-07
-5.97383e-07
-8.14503e-07
-4.01815e-07
-8.41253e-07
-2.01991e-07
-8.59619e-07
-8.68965e-07
-2.35483e-07
1.10443e-06
-4.68443e-07
1.09256e-06
-6.96447e-07
1.06924e-06
-9.17231e-07
1.03527e-06
-1.12877e-06
9.91791e-07
-1.32935e-06
9.40212e-07
-1.51757e-06
8.82119e-07
-1.6924e-06
8.19194e-07
-1.85318e-06
7.53128e-07
-1.99958e-06
6.85548e-07
-2.13159e-06
6.1795e-07
-2.24949e-06
5.51657e-07
-2.35377e-06
4.87786e-07
-2.44516e-06
4.27234e-07
-2.52448e-06
3.70677e-07
-2.5927e-06
3.18579e-07
-2.65081e-06
2.71214e-07
-2.69984e-06
2.28681e-07
-2.7408e-06
1.90938e-07
-2.77469e-06
1.57825e-07
-2.80243e-06
1.29087e-07
-2.82489e-06
1.044e-07
-2.84285e-06
8.3391e-08
-2.857e-06
6.56524e-08
-2.86795e-06
5.07566e-08
-2.87621e-06
3.82655e-08
-2.88221e-06
2.77374e-08
-2.88626e-06
1.87314e-08
-2.8886e-06
1.0809e-08
-2.88937e-06
3.53539e-09
-2.8886e-06
-3.52234e-09
-2.88627e-06
-1.0796e-08
-2.88222e-06
-1.87182e-08
-2.87622e-06
-2.77242e-08
-2.86796e-06
-3.82522e-08
-2.85701e-06
-5.07433e-08
-2.84287e-06
-6.56391e-08
-2.82491e-06
-8.33777e-08
-2.80246e-06
-1.04387e-07
-2.77472e-06
-1.29074e-07
-2.74083e-06
-1.57812e-07
-2.69987e-06
-1.90927e-07
-2.65084e-06
-2.2867e-07
-2.59274e-06
-2.71204e-07
-2.52452e-06
-3.18571e-07
-2.4452e-06
-3.7067e-07
-2.35381e-06
-4.27229e-07
-2.24953e-06
-4.87784e-07
-2.13163e-06
-5.51657e-07
-1.99962e-06
-6.17953e-07
-1.85322e-06
-6.85554e-07
-1.69244e-06
-7.53138e-07
-1.5176e-06
-8.19207e-07
-1.32938e-06
-8.82135e-07
-1.1288e-06
-9.40231e-07
-9.17253e-07
-9.91813e-07
-6.96465e-07
-1.03529e-06
-4.68455e-07
-1.06926e-06
-2.35489e-07
-1.09259e-06
-1.10445e-06
-2.71494e-07
1.37592e-06
-5.40084e-07
1.36115e-06
-8.02966e-07
1.33212e-06
-1.05753e-06
1.28984e-06
-1.30146e-06
1.23572e-06
-1.53275e-06
1.17151e-06
-1.74982e-06
1.09919e-06
-1.95147e-06
1.02085e-06
-2.13693e-06
9.38589e-07
-2.30583e-06
8.5444e-07
-2.45814e-06
7.70263e-07
-2.59418e-06
6.87703e-07
-2.71455e-06
6.08152e-07
-2.82004e-06
5.32727e-07
-2.91164e-06
4.6227e-07
-2.99042e-06
3.97361e-07
-3.05754e-06
3.38339e-07
-3.1142e-06
2.85333e-07
-3.16155e-06
2.38288e-07
-3.20073e-06
1.97006e-07
-3.23281e-06
1.61172e-07
-3.2588e-06
1.30383e-07
-3.27958e-06
1.04174e-07
-3.29596e-06
8.20375e-08
-3.30865e-06
6.34423e-08
-3.31823e-06
4.78427e-08
-3.32518e-06
3.46885e-08
-3.32988e-06
2.34306e-08
-3.33259e-06
1.35229e-08
-3.33348e-06
4.42336e-09
-3.33259e-06
-4.40712e-09
-3.32988e-06
-1.35066e-08
-3.32519e-06
-2.34143e-08
-3.31824e-06
-3.46721e-08
-3.30867e-06
-4.78262e-08
-3.29598e-06
-6.34258e-08
-3.2796e-06
-8.20209e-08
-3.25882e-06
-1.04157e-07
-3.23284e-06
-1.30367e-07
-3.20076e-06
-1.61156e-07
-3.16158e-06
-1.96991e-07
-3.11423e-06
-2.38274e-07
-3.05758e-06
-2.85319e-07
-2.99046e-06
-3.38327e-07
-2.91168e-06
-3.97351e-07
-2.82009e-06
-4.62262e-07
-2.7146e-06
-5.32721e-07
-2.59423e-06
-6.08149e-07
-2.45819e-06
-6.87704e-07
-2.30587e-06
-7.70267e-07
-2.13698e-06
-8.54448e-07
-1.95152e-06
-9.38601e-07
-1.74986e-06
-1.02086e-06
-1.53279e-06
-1.09921e-06
-1.30149e-06
-1.17153e-06
-1.05756e-06
-1.23574e-06
-8.02986e-07
-1.28987e-06
-5.40097e-07
-1.33215e-06
-2.71501e-07
-1.36118e-06
-1.37595e-06
-3.10173e-07
1.68609e-06
-6.17031e-07
1.66801e-06
-9.17378e-07
1.63247e-06
-1.20824e-06
1.5807e-06
-1.48695e-06
1.51443e-06
-1.75126e-06
1.43581e-06
-1.99932e-06
1.34725e-06
-2.22979e-06
1.25132e-06
-2.44178e-06
1.15058e-06
-2.63486e-06
1.04752e-06
-2.809e-06
9.44409e-07
-2.96458e-06
8.43276e-07
-3.10224e-06
7.45818e-07
-3.22292e-06
6.53405e-07
-3.32772e-06
5.67069e-07
-3.41788e-06
4.87522e-07
-3.49472e-06
4.1518e-07
-3.55959e-06
3.50201e-07
-3.61382e-06
2.92522e-07
-3.65872e-06
2.41899e-07
-3.69549e-06
1.97947e-07
-3.72528e-06
1.60174e-07
-3.74912e-06
1.28012e-07
-3.76792e-06
1.0084e-07
-3.78249e-06
7.80055e-08
-3.79348e-06
5.88417e-08
-3.80147e-06
4.26746e-08
-3.80687e-06
2.88312e-08
-3.80999e-06
1.66425e-08
-3.81101e-06
5.44421e-09
-3.80999e-06
-5.42431e-09
-3.80688e-06
-1.66225e-08
-3.80148e-06
-2.88112e-08
-3.7935e-06
-4.26545e-08
-3.7825e-06
-5.88215e-08
-3.76794e-06
-7.79852e-08
-3.74915e-06
-1.00819e-07
-3.72531e-06
-1.27992e-07
-3.69552e-06
-1.60155e-07
-3.65875e-06
-1.97928e-07
-3.61386e-06
-2.4188e-07
-3.55963e-06
-2.92504e-07
-3.49477e-06
-3.50185e-07
-3.41793e-06
-4.15166e-07
-3.32777e-06
-4.87509e-07
-3.22297e-06
-5.67059e-07
-3.1023e-06
-6.53398e-07
-2.96463e-06
-7.45814e-07
-2.80906e-06
-8.43276e-07
-2.63491e-06
-9.44415e-07
-2.44183e-06
-1.04753e-06
-2.22984e-06
-1.15059e-06
-1.99937e-06
-1.25134e-06
-1.7513e-06
-1.34728e-06
-1.48699e-06
-1.43584e-06
-1.20827e-06
-1.51446e-06
-9.17401e-07
-1.58073e-06
-6.17047e-07
-1.63251e-06
-3.1018e-07
-1.66805e-06
-1.68614e-06
-3.5168e-07
2.03777e-06
-6.99608e-07
2.01593e-06
-1.04016e-06
1.97302e-06
-1.36997e-06
1.91051e-06
-1.68603e-06
1.83049e-06
-1.98577e-06
1.73555e-06
-2.26711e-06
1.6286e-06
-2.52853e-06
1.51273e-06
-2.76901e-06
1.39106e-06
-2.98806e-06
1.26657e-06
-3.18567e-06
1.14202e-06
-3.36223e-06
1.01983e-06
-3.51849e-06
9.02081e-07
-3.6555e-06
7.90412e-07
-3.7745e-06
6.86074e-07
-3.87691e-06
5.89928e-07
-3.96421e-06
5.0248e-07
-4.03793e-06
4.23919e-07
-4.09958e-06
3.54173e-07
-4.15063e-06
2.92948e-07
-4.19246e-06
2.3978e-07
-4.22636e-06
1.94077e-07
-4.2535e-06
1.55151e-07
-4.27492e-06
1.22254e-07
-4.29151e-06
9.45987e-08
-4.30405e-06
7.13791e-08
-4.31315e-06
5.17811e-08
-4.31931e-06
3.49914e-08
-4.32287e-06
2.02016e-08
-4.32404e-06
6.60905e-09
-4.32288e-06
-6.58501e-09
-4.31932e-06
-2.01776e-08
-4.31317e-06
-3.49672e-08
-4.30406e-06
-5.17568e-08
-4.29153e-06
-7.13547e-08
-4.27494e-06
-9.45742e-08
-4.25353e-06
-1.22229e-07
-4.2264e-06
-1.55126e-07
-4.1925e-06
-1.94053e-07
-4.15067e-06
-2.39757e-07
-4.09962e-06
-2.92925e-07
-4.03798e-06
-3.54151e-07
-3.96426e-06
-4.23899e-07
-3.87697e-06
-5.02462e-07
-3.77456e-06
-5.89913e-07
-3.65556e-06
-6.86062e-07
-3.51855e-06
-7.90403e-07
-3.36229e-06
-9.02077e-07
-3.18573e-06
-1.01983e-06
-2.98813e-06
-1.14202e-06
-2.76907e-06
-1.26658e-06
-2.52858e-06
-1.39108e-06
-2.26716e-06
-1.51276e-06
-1.98581e-06
-1.62863e-06
-1.68607e-06
-1.73558e-06
-1.37001e-06
-1.83053e-06
-1.04019e-06
-1.91055e-06
-6.99625e-07
-1.97307e-06
-3.51689e-07
-2.01598e-06
-2.03782e-06
-3.96186e-07
2.43396e-06
-7.88151e-07
2.4079e-06
-1.17182e-06
2.35669e-06
-1.5434e-06
2.28209e-06
-1.89951e-06
2.1866e-06
-2.23725e-06
2.07329e-06
-2.5543e-06
1.94565e-06
-2.84892e-06
1.80735e-06
-3.11997e-06
1.66212e-06
-3.36691e-06
1.51351e-06
-3.5897e-06
1.36481e-06
-3.7888e-06
1.21893e-06
-3.96504e-06
1.07832e-06
-4.11959e-06
9.44964e-07
-4.25386e-06
8.20348e-07
-4.36943e-06
7.05501e-07
-4.46798e-06
6.01028e-07
-4.55122e-06
5.0716e-07
-4.62086e-06
4.23809e-07
-4.67854e-06
3.50628e-07
-4.72583e-06
2.87065e-07
-4.76416e-06
2.32412e-07
-4.79486e-06
1.8585e-07
-4.81909e-06
1.46488e-07
-4.83788e-06
1.13385e-07
-4.85208e-06
8.55799e-08
-4.8624e-06
6.20996e-08
-4.86938e-06
4.19737e-08
-4.87342e-06
2.42368e-08
-4.87474e-06
7.9298e-09
-4.87342e-06
-7.9011e-09
-4.86939e-06
-2.4208e-08
-4.86241e-06
-4.19449e-08
-4.8521e-06
-6.20706e-08
-4.8379e-06
-8.55507e-08
-4.81912e-06
-1.13356e-07
-4.79489e-06
-1.46459e-07
-4.7642e-06
-1.85821e-07
-4.72587e-06
-2.32383e-07
-4.67859e-06
-2.87037e-07
-4.62091e-06
-3.50601e-07
-4.55128e-06
-4.23783e-07
-4.46804e-06
-5.07136e-07
-4.3695e-06
-6.01007e-07
-4.25393e-06
-7.05483e-07
-4.11966e-06
-8.20333e-07
-3.96511e-06
-9.44954e-07
-3.78887e-06
-1.07832e-06
-3.58977e-06
-1.21893e-06
-3.36698e-06
-1.36482e-06
-3.12004e-06
-1.51352e-06
-2.84898e-06
-1.66214e-06
-2.55436e-06
-1.80738e-06
-2.2373e-06
-1.94568e-06
-1.89955e-06
-2.07333e-06
-1.54344e-06
-2.18664e-06
-1.17185e-06
-2.28214e-06
-7.8817e-07
-2.35675e-06
-3.96196e-07
-2.40796e-06
-2.43402e-06
-4.4387e-07
2.87783e-06
-8.83016e-07
2.84704e-06
-1.31288e-06
2.78655e-06
-1.72922e-06
2.69843e-06
-2.12825e-06
2.58562e-06
-2.50672e-06
2.45176e-06
-2.86204e-06
2.30096e-06
-3.19225e-06
2.13757e-06
-3.4961e-06
1.96596e-06
-3.77294e-06
1.79035e-06
-4.02274e-06
1.61462e-06
-4.24602e-06
1.4422e-06
-4.4437e-06
1.276e-06
-4.61709e-06
1.11835e-06
-4.76776e-06
9.7102e-07
-4.89748e-06
8.35219e-07
-5.00812e-06
7.11668e-07
-5.1016e-06
6.00641e-07
-5.17983e-06
5.02036e-07
-5.24464e-06
4.15446e-07
-5.2978e-06
3.4022e-07
-5.34091e-06
2.75524e-07
-5.37545e-06
2.2039e-07
-5.40273e-06
1.73765e-07
-5.42388e-06
1.3454e-07
-5.43988e-06
1.01577e-07
-5.45151e-06
7.37283e-08
-5.45938e-06
4.98452e-08
-5.46393e-06
2.87868e-08
-5.46542e-06
9.41925e-09
-5.46394e-06
-9.38533e-09
-5.45939e-06
-2.87528e-08
-5.45152e-06
-4.98111e-08
-5.4399e-06
-7.3694e-08
-5.42391e-06
-1.01543e-07
-5.40276e-06
-1.34506e-07
-5.37549e-06
-1.73731e-07
-5.34095e-06
-2.20356e-07
-5.29785e-06
-2.7549e-07
-5.2447e-06
-3.40187e-07
-5.17988e-06
-4.15414e-07
-5.10166e-06
-5.02006e-07
-5.00818e-06
-6.00613e-07
-4.89755e-06
-7.11643e-07
-4.76783e-06
-8.35198e-07
-4.61716e-06
-9.71003e-07
-4.44378e-06
-1.11834e-06
-4.2461e-06
-1.276e-06
-4.02282e-06
-1.4422e-06
-3.77301e-06
-1.61463e-06
-3.49617e-06
-1.79036e-06
-3.19232e-06
-1.96598e-06
-2.8621e-06
-2.1376e-06
-2.50678e-06
-2.301e-06
-2.1283e-06
-2.45181e-06
-1.72926e-06
-2.58568e-06
-1.31291e-06
-2.69849e-06
-8.83039e-07
-2.78662e-06
-4.43881e-07
-2.84712e-06
-2.8779e-06
-4.94919e-07
3.37275e-06
-9.8458e-07
3.33671e-06
-1.4639e-06
3.26588e-06
-1.92817e-06
3.1627e-06
-2.37316e-06
3.03061e-06
-2.79525e-06
2.87386e-06
-3.19156e-06
2.69727e-06
-3.5599e-06
2.50591e-06
-3.89887e-06
2.30492e-06
-4.20776e-06
2.09923e-06
-4.48653e-06
1.89339e-06
-4.73573e-06
1.6914e-06
-4.9564e-06
1.49668e-06
-5.15e-06
1.31195e-06
-5.31827e-06
1.13929e-06
-5.46317e-06
9.80124e-07
-5.5868e-06
8.35294e-07
-5.69128e-06
7.05124e-07
-5.77874e-06
5.89498e-07
-5.85124e-06
4.87942e-07
-5.91071e-06
3.99694e-07
-5.95897e-06
3.23779e-07
-5.99765e-06
2.59067e-07
-6.0282e-06
2.04323e-07
-6.05191e-06
1.5825e-07
-6.06985e-06
1.19515e-07
-6.08289e-06
8.6772e-08
-6.09173e-06
5.86774e-08
-6.09683e-06
3.38933e-08
-6.09851e-06
1.10911e-08
-6.09684e-06
-1.10514e-08
-6.09174e-06
-3.38535e-08
-6.08291e-06
-5.86375e-08
-6.06987e-06
-8.67319e-08
-6.05194e-06
-1.19474e-07
-6.02824e-06
-1.5821e-07
-5.99769e-06
-2.04283e-07
-5.95902e-06
-2.59027e-07
-5.91077e-06
-3.23739e-07
-5.8513e-06
-3.99655e-07
-5.77881e-06
-4.87905e-07
-5.69135e-06
-5.89463e-07
-5.58687e-06
-7.05091e-07
-5.46325e-06
-8.35264e-07
-5.31835e-06
-9.80099e-07
-5.15008e-06
-1.13927e-06
-4.95649e-06
-1.31194e-06
-4.73581e-06
-1.49667e-06
-4.48662e-06
-1.6914e-06
-4.20784e-06
-1.8934e-06
-3.89895e-06
-2.09925e-06
-3.55998e-06
-2.30495e-06
-3.19163e-06
-2.50595e-06
-2.79532e-06
-2.69732e-06
-2.37321e-06
-2.87392e-06
-1.92822e-06
-3.03067e-06
-1.46394e-06
-3.16277e-06
-9.84604e-07
-3.26596e-06
-4.94932e-07
-3.33679e-06
-3.37283e-06
-5.49532e-07
3.92228e-06
-1.09323e-06
3.88041e-06
-1.62548e-06
3.79812e-06
-2.14102e-06
3.67824e-06
-2.63518e-06
3.52477e-06
-3.10396e-06
3.34264e-06
-3.54414e-06
3.13744e-06
-3.9533e-06
2.91508e-06
-4.32988e-06
2.6815e-06
-4.67309e-06
2.44244e-06
-4.98288e-06
2.20317e-06
-5.25985e-06
1.96838e-06
-5.50517e-06
1.74199e-06
-5.72043e-06
1.52721e-06
-5.90757e-06
1.32643e-06
-6.06877e-06
1.14132e-06
-6.20633e-06
9.72856e-07
-6.32263e-06
8.2142e-07
-6.42001e-06
6.86881e-07
-6.50076e-06
5.68689e-07
-6.56702e-06
4.65962e-07
-6.62082e-06
3.77569e-07
-6.66395e-06
3.02198e-07
-6.69804e-06
2.38416e-07
-6.7245e-06
1.84714e-07
-6.74453e-06
1.39545e-07
-6.75911e-06
1.01343e-07
-6.76897e-06
6.85472e-08
-6.77468e-06
3.96012e-08
-6.77655e-06
1.296e-08
-6.77469e-06
-1.29138e-08
-6.76899e-06
-3.95549e-08
-6.75912e-06
-6.85008e-08
-6.74456e-06
-1.01297e-07
-6.72454e-06
-1.39498e-07
-6.69808e-06
-1.84667e-07
-6.66399e-06
-2.38369e-07
-6.62087e-06
-3.02152e-07
-6.56708e-06
-3.77523e-07
-6.50082e-06
-4.65917e-07
-6.42008e-06
-5.68645e-07
-6.3227e-06
-6.8684e-07
-6.20641e-06
-8.21382e-07
-6.06885e-06
-9.72822e-07
-5.90766e-06
-1.14129e-06
-5.72052e-06
-1.32641e-06
-5.50526e-06
-1.5272e-06
-5.25995e-06
-1.74199e-06
-4.98297e-06
-1.96838e-06
-4.67318e-06
-2.20319e-06
-4.32997e-06
-2.44246e-06
-3.95339e-06
-2.68154e-06
-3.54422e-06
-2.91512e-06
-3.10403e-06
-3.1375e-06
-2.63524e-06
-3.34271e-06
-2.14107e-06
-3.52485e-06
-1.62552e-06
-3.67833e-06
-1.09326e-06
-3.79821e-06
-5.49546e-07
-3.8805e-06
-3.92238e-06
-6.07917e-07
4.5302e-06
-1.20939e-06
4.48188e-06
-1.79821e-06
4.38694e-06
-2.36858e-06
4.24861e-06
-2.91533e-06
4.07152e-06
-3.43403e-06
3.86135e-06
-3.92113e-06
3.62454e-06
-4.37396e-06
3.36791e-06
-4.79078e-06
3.09832e-06
-5.17071e-06
2.82237e-06
-5.5137e-06
2.54617e-06
-5.82041e-06
2.27509e-06
-6.09212e-06
2.0137e-06
-6.33059e-06
1.76568e-06
-6.53796e-06
1.5338e-06
-6.71662e-06
1.31998e-06
-6.86913e-06
1.12537e-06
-6.99811e-06
9.50392e-07
-7.10614e-06
7.94913e-07
-7.19575e-06
6.58298e-07
-7.26932e-06
5.39532e-07
-7.32906e-06
4.37311e-07
-7.37698e-06
3.50123e-07
-7.41488e-06
2.76315e-07
-7.44431e-06
2.14146e-07
-7.4666e-06
1.6183e-07
-7.48282e-06
1.17562e-07
-7.49381e-06
7.95367e-08
-7.50016e-06
4.59581e-08
-7.50225e-06
1.50417e-08
-7.50017e-06
-1.49884e-08
-7.49382e-06
-4.59047e-08
-7.48284e-06
-7.94831e-08
-7.46663e-06
-1.17508e-07
-7.44435e-06
-1.61776e-07
-7.41492e-06
-2.14092e-07
-7.37703e-06
-2.76261e-07
-7.32912e-06
-3.50069e-07
-7.26938e-06
-4.37258e-07
-7.19582e-06
-5.3948e-07
-7.10622e-06
-6.58248e-07
-6.99819e-06
-7.94866e-07
-6.86922e-06
-9.50348e-07
-6.71672e-06
-1.12533e-06
-6.53806e-06
-1.31995e-06
-6.3307e-06
-1.53377e-06
-6.09223e-06
-1.76566e-06
-5.82052e-06
-2.0137e-06
-5.51381e-06
-2.27509e-06
-5.17081e-06
-2.54618e-06
-4.79088e-06
-2.8224e-06
-4.37406e-06
-3.09836e-06
-3.92122e-06
-3.36796e-06
-3.43411e-06
-3.62461e-06
-2.9154e-06
-3.86143e-06
-2.36864e-06
-4.07161e-06
-1.79825e-06
-4.24871e-06
-1.20942e-06
-4.38704e-06
-6.07932e-07
-4.48199e-06
-4.53031e-06
-6.70292e-07
5.20049e-06
-1.33349e-06
5.14508e-06
-1.98275e-06
5.0362e-06
-2.6117e-06
4.87756e-06
-3.21464e-06
4.67446e-06
-3.7867e-06
4.43341e-06
-4.32395e-06
4.16179e-06
-4.82346e-06
3.86742e-06
-5.2833e-06
3.55815e-06
-5.70251e-06
3.24158e-06
-6.08102e-06
2.92468e-06
-6.41955e-06
2.61362e-06
-6.71951e-06
2.31366e-06
-6.98282e-06
2.029e-06
-7.21185e-06
1.76283e-06
-7.40922e-06
1.51736e-06
-7.57775e-06
1.2939e-06
-7.72032e-06
1.09296e-06
-7.83977e-06
9.1437e-07
-7.93889e-06
7.5742e-07
-8.02031e-06
6.20944e-07
-8.08644e-06
5.03449e-07
-8.13952e-06
4.03202e-07
-8.18152e-06
3.18309e-07
-8.21414e-06
2.46774e-07
-8.23886e-06
1.86547e-07
-8.25685e-06
1.35557e-07
-8.26905e-06
9.17338e-08
-8.27611e-06
5.30153e-08
-8.27842e-06
1.7353e-08
-8.27612e-06
-1.72918e-08
-8.26907e-06
-5.2954e-08
-8.25688e-06
-9.16724e-08
-8.23889e-06
-1.35495e-07
-8.21418e-06
-1.86485e-07
-8.18156e-06
-2.46711e-07
-8.13958e-06
-3.18247e-07
-8.08651e-06
-4.0314e-07
-8.02038e-06
-5.03388e-07
-7.93897e-06
-6.20884e-07
-7.83986e-06
-7.57362e-07
-7.72041e-06
-9.14316e-07
-7.57785e-06
-1.09291e-06
-7.40933e-06
-1.29385e-06
-7.21196e-06
-1.51732e-06
-6.98293e-06
-1.7628e-06
-6.71962e-06
-2.02898e-06
-6.41967e-06
-2.31365e-06
-6.08113e-06
-2.61363e-06
-5.70262e-06
-2.92469e-06
-5.28341e-06
-3.24161e-06
-4.82357e-06
-3.5582e-06
-4.32405e-06
-3.86748e-06
-3.78679e-06
-4.16187e-06
-3.21472e-06
-4.4335e-06
-2.61177e-06
-4.67456e-06
-1.9828e-06
-4.87767e-06
-1.33352e-06
-5.03632e-06
-6.70308e-07
-5.14521e-06
-5.20062e-06
-7.36886e-07
5.93737e-06
-1.46599e-06
5.87418e-06
-2.17979e-06
5.75e-06
-2.87129e-06
5.56906e-06
-3.53423e-06
5.3374e-06
-4.16327e-06
5.06245e-06
-4.75409e-06
4.75261e-06
-5.30347e-06
4.41679e-06
-5.80928e-06
4.06396e-06
-6.27046e-06
3.70276e-06
-6.68694e-06
3.34115e-06
-7.05949e-06
2.98618e-06
-7.38966e-06
2.64382e-06
-7.67956e-06
2.31889e-06
-7.93176e-06
2.01503e-06
-8.14917e-06
1.73476e-06
-8.33486e-06
1.47958e-06
-8.49199e-06
1.25008e-06
-8.6237e-06
1.04608e-06
-8.73302e-06
8.66746e-07
-8.82285e-06
7.10772e-07
-8.89586e-06
5.76455e-07
-8.95447e-06