/*--------------------------------*- C++ -*----------------------------------*\
| =========                 |                                                 |
| \\      /  F ield         | foam-extend: Open Source CFD                    |
|  \\    /   O peration     | Version:     4.0                                |
|   \\  /    A nd           | Web:         http://www.foam-extend.org         |
|    \\/     M anipulation  |                                                 |
\*---------------------------------------------------------------------------*/
FoamFile
{
    version     2.0;
    format      ascii;
    class       volScalarField;
    location    "1860";
    object      psiE;
}
// * * * * * * * * * * * * * * * * * * * * * * * * * * * * * * * * * * * * * //

dimensions      [0 0 0 0 0 0 0];

internalField   nonuniform List<scalar> 
6960
(
0.324329
0.324329
0.32433
0.324331
0.324332
0.324332
0.324333
0.324334
0.324335
0.324335
0.324336
0.324337
0.324337
0.324338
0.324339
0.324339
0.32434
0.32434
0.32434
0.324341
0.324341
0.324341
0.324342
0.324342
0.324342
0.324342
0.324342
0.324343
0.324343
0.324343
0.324343
0.324343
0.324343
0.324342
0.324342
0.324342
0.324342
0.324342
0.324341
0.324341
0.324341
0.32434
0.32434
0.32434
0.324339
0.324339
0.324338
0.324337
0.324337
0.324336
0.324335
0.324335
0.324334
0.324333
0.324332
0.324332
0.324331
0.32433
0.324329
0.324329
0.79279
0.792793
0.792796
0.792799
0.792802
0.792805
0.792808
0.792811
0.792814
0.792817
0.79282
0.792823
0.792825
0.792827
0.792829
0.792831
0.792833
0.792835
0.792837
0.792838
0.792839
0.792841
0.792842
0.792842
0.792843
0.792844
0.792844
0.792845
0.792845
0.792845
0.792845
0.792845
0.792845
0.792844
0.792844
0.792843
0.792842
0.792842
0.792841
0.792839
0.792838
0.792837
0.792835
0.792833
0.792831
0.792829
0.792827
0.792825
0.792823
0.79282
0.792817
0.792814
0.792811
0.792808
0.792805
0.792802
0.792799
0.792796
0.792793
0.79279
1.20207
1.20208
1.20208
1.20209
1.20209
1.2021
1.20211
1.20211
1.20212
1.20213
1.20213
1.20214
1.20214
1.20214
1.20215
1.20215
1.20216
1.20216
1.20216
1.20217
1.20217
1.20217
1.20217
1.20217
1.20218
1.20218
1.20218
1.20218
1.20218
1.20218
1.20218
1.20218
1.20218
1.20218
1.20218
1.20218
1.20217
1.20217
1.20217
1.20217
1.20217
1.20216
1.20216
1.20216
1.20215
1.20215
1.20214
1.20214
1.20214
1.20213
1.20213
1.20212
1.20211
1.20211
1.2021
1.20209
1.20209
1.20208
1.20208
1.20207
1.5902
1.59021
1.59022
1.59023
1.59024
1.59025
1.59026
1.59027
1.59028
1.59029
1.5903
1.5903
1.59031
1.59032
1.59032
1.59033
1.59034
1.59034
1.59035
1.59035
1.59036
1.59036
1.59036
1.59036
1.59037
1.59037
1.59037
1.59037
1.59037
1.59037
1.59037
1.59037
1.59037
1.59037
1.59037
1.59037
1.59036
1.59036
1.59036
1.59036
1.59035
1.59035
1.59034
1.59034
1.59033
1.59032
1.59032
1.59031
1.5903
1.5903
1.59029
1.59028
1.59027
1.59026
1.59025
1.59024
1.59023
1.59022
1.59021
1.5902
1.97325
1.97326
1.97327
1.97328
1.9733
1.97331
1.97333
1.97334
1.97335
1.97337
1.97338
1.97339
1.9734
1.97341
1.97342
1.97343
1.97344
1.97344
1.97345
1.97346
1.97346
1.97347
1.97347
1.97347
1.97348
1.97348
1.97348
1.97348
1.97349
1.97349
1.97349
1.97349
1.97348
1.97348
1.97348
1.97348
1.97347
1.97347
1.97347
1.97346
1.97346
1.97345
1.97344
1.97344
1.97343
1.97342
1.97341
1.9734
1.97339
1.97338
1.97337
1.97335
1.97334
1.97333
1.97331
1.9733
1.97328
1.97327
1.97326
1.97325
2.3586
2.35862
2.35863
2.35865
2.35867
2.35869
2.35871
2.35873
2.35875
2.35876
2.35878
2.35879
2.35881
2.35882
2.35883
2.35884
2.35885
2.35886
2.35887
2.35888
2.35889
2.35889
2.3589
2.3589
2.35891
2.35891
2.35892
2.35892
2.35892
2.35892
2.35892
2.35892
2.35892
2.35892
2.35891
2.35891
2.3589
2.3589
2.35889
2.35889
2.35888
2.35887
2.35886
2.35885
2.35884
2.35883
2.35882
2.35881
2.35879
2.35878
2.35876
2.35875
2.35873
2.35871
2.35869
2.35867
2.35865
2.35863
2.35862
2.3586
2.74981
2.74982
2.74985
2.74987
2.74989
2.74992
2.74994
2.74996
2.74998
2.75
2.75002
2.75004
2.75006
2.75008
2.75009
2.7501
2.75012
2.75013
2.75014
2.75015
2.75016
2.75017
2.75018
2.75018
2.75019
2.75019
2.7502
2.7502
2.7502
2.7502
2.7502
2.7502
2.7502
2.7502
2.75019
2.75019
2.75018
2.75018
2.75017
2.75016
2.75015
2.75014
2.75013
2.75012
2.7501
2.75009
2.75008
2.75006
2.75004
2.75002
2.75
2.74998
2.74996
2.74994
2.74992
2.74989
2.74987
2.74985
2.74982
2.74981
3.14856
3.14858
3.14861
3.14864
3.14867
3.1487
3.14872
3.14875
3.14878
3.1488
3.14882
3.14885
3.14887
3.14889
3.1489
3.14892
3.14894
3.14895
3.14897
3.14898
3.14899
3.149
3.14901
3.14902
3.14902
3.14903
3.14903
3.14903
3.14904
3.14904
3.14904
3.14904
3.14903
3.14903
3.14903
3.14902
3.14902
3.14901
3.149
3.14899
3.14898
3.14897
3.14895
3.14894
3.14892
3.1489
3.14889
3.14887
3.14885
3.14882
3.1488
3.14878
3.14875
3.14872
3.1487
3.14867
3.14864
3.14861
3.14858
3.14856
3.5557
3.55573
3.55576
3.55579
3.55583
3.55586
3.55589
3.55592
3.55595
3.55598
3.55601
3.55604
3.55606
3.55608
3.55611
3.55613
3.55614
3.55616
3.55618
3.55619
3.5562
3.55622
3.55623
3.55623
3.55624
3.55625
3.55625
3.55626
3.55626
3.55626
3.55626
3.55626
3.55626
3.55625
3.55625
3.55624
3.55623
3.55623
3.55622
3.5562
3.55619
3.55618
3.55616
3.55614
3.55613
3.55611
3.55608
3.55606
3.55604
3.55601
3.55598
3.55595
3.55592
3.55589
3.55586
3.55583
3.55579
3.55576
3.55573
3.5557
3.97165
3.97167
3.97171
3.97175
3.97179
3.97182
3.97186
3.9719
3.97193
3.97197
3.972
3.97203
3.97206
3.97208
3.97211
3.97213
3.97215
3.97217
3.97219
3.97221
3.97222
3.97223
3.97225
3.97226
3.97226
3.97227
3.97228
3.97228
3.97228
3.97229
3.97229
3.97228
3.97228
3.97228
3.97227
3.97226
3.97226
3.97225
3.97223
3.97222
3.97221
3.97219
3.97217
3.97215
3.97213
3.97211
3.97208
3.97206
3.97203
3.972
3.97197
3.97193
3.9719
3.97186
3.97182
3.97179
3.97175
3.97171
3.97167
3.97165
4.3966
4.39663
4.39667
4.39671
4.39676
4.3968
4.39684
4.39688
4.39692
4.39696
4.397
4.39703
4.39706
4.39709
4.39712
4.39715
4.39717
4.39719
4.39721
4.39723
4.39725
4.39726
4.39728
4.39729
4.3973
4.39731
4.39731
4.39732
4.39732
4.39732
4.39732
4.39732
4.39732
4.39731
4.39731
4.3973
4.39729
4.39728
4.39726
4.39725
4.39723
4.39721
4.39719
4.39717
4.39715
4.39712
4.39709
4.39706
4.39703
4.397
4.39696
4.39692
4.39688
4.39684
4.3968
4.39676
4.39671
4.39667
4.39663
4.3966
4.83067
4.8307
4.83075
4.8308
4.83085
4.8309
4.83095
4.83099
4.83104
4.83108
4.83112
4.83116
4.83119
4.83122
4.83126
4.83129
4.83131
4.83134
4.83136
4.83138
4.8314
4.83142
4.83143
4.83145
4.83146
4.83147
4.83147
4.83148
4.83148
4.83148
4.83148
4.83148
4.83148
4.83147
4.83147
4.83146
4.83145
4.83143
4.83142
4.8314
4.83138
4.83136
4.83134
4.83131
4.83129
4.83126
4.83122
4.83119
4.83116
4.83112
4.83108
4.83104
4.83099
4.83095
4.8309
4.83085
4.8308
4.83075
4.8307
4.83067
5.27392
5.27396
5.27401
5.27406
5.27412
5.27417
5.27423
5.27428
5.27433
5.27437
5.27442
5.27446
5.2745
5.27453
5.27457
5.2746
5.27463
5.27466
5.27469
5.27471
5.27473
5.27475
5.27476
5.27478
5.27479
5.2748
5.27481
5.27482
5.27482
5.27482
5.27482
5.27482
5.27482
5.27481
5.2748
5.27479
5.27478
5.27476
5.27475
5.27473
5.27471
5.27469
5.27466
5.27463
5.2746
5.27457
5.27453
5.2745
5.27446
5.27442
5.27437
5.27433
5.27428
5.27423
5.27417
5.27412
5.27406
5.27401
5.27396
5.27392
5.72637
5.72641
5.72646
5.72652
5.72659
5.72665
5.7267
5.72676
5.72681
5.72686
5.72691
5.72696
5.727
5.72704
5.72708
5.72712
5.72715
5.72718
5.72721
5.72723
5.72726
5.72728
5.72729
5.72731
5.72732
5.72734
5.72734
5.72735
5.72736
5.72736
5.72736
5.72736
5.72735
5.72734
5.72734
5.72732
5.72731
5.72729
5.72728
5.72726
5.72723
5.72721
5.72718
5.72715
5.72712
5.72708
5.72704
5.727
5.72696
5.72691
5.72686
5.72681
5.72676
5.7267
5.72665
5.72659
5.72652
5.72646
5.72641
5.72637
6.18801
6.18805
6.18811
6.18818
6.18824
6.18831
6.18837
6.18843
6.18849
6.18855
6.1886
6.18865
6.1887
6.18874
6.18878
6.18882
6.18886
6.18889
6.18892
6.18895
6.18897
6.18899
6.18901
6.18903
6.18905
6.18906
6.18907
6.18908
6.18908
6.18908
6.18908
6.18908
6.18908
6.18907
6.18906
6.18905
6.18903
6.18901
6.18899
6.18897
6.18895
6.18892
6.18889
6.18886
6.18882
6.18878
6.18874
6.1887
6.18865
6.1886
6.18855
6.18849
6.18843
6.18837
6.18831
6.18824
6.18818
6.18811
6.18805
6.18801
6.6588
6.65885
6.65891
6.65898
6.65906
6.65913
6.65919
6.65926
6.65932
6.65938
6.65944
6.6595
6.65955
6.65959
6.65964
6.65968
6.65972
6.65976
6.65979
6.65982
6.65985
6.65987
6.65989
6.65991
6.65993
6.65994
6.65995
6.65996
6.65996
6.65997
6.65997
6.65996
6.65996
6.65995
6.65994
6.65993
6.65991
6.65989
6.65987
6.65985
6.65982
6.65979
6.65976
6.65972
6.65968
6.65964
6.65959
6.65955
6.6595
6.65944
6.65938
6.65932
6.65926
6.65919
6.65913
6.65906
6.65898
6.65891
6.65885
6.6588
7.13869
7.13874
7.13881
7.13889
7.13897
7.13904
7.13912
7.13919
7.13925
7.13932
7.13938
7.13944
7.13949
7.13955
7.13959
7.13964
7.13968
7.13972
7.13976
7.13979
7.13982
7.13984
7.13987
7.13989
7.1399
7.13992
7.13993
7.13994
7.13994
7.13995
7.13995
7.13994
7.13994
7.13993
7.13992
7.1399
7.13989
7.13987
7.13984
7.13982
7.13979
7.13976
7.13972
7.13968
7.13964
7.13959
7.13955
7.13949
7.13944
7.13938
7.13932
7.13925
7.13919
7.13912
7.13904
7.13897
7.13889
7.13881
7.13874
7.13869
7.62759
7.62765
7.62772
7.6278
7.62788
7.62797
7.62804
7.62812
7.62819
7.62826
7.62833
7.62839
7.62845
7.62851
7.62856
7.62861
7.62865
7.62869
7.62873
7.62877
7.6288
7.62883
7.62885
7.62887
7.62889
7.62891
7.62892
7.62893
7.62893
7.62894
7.62894
7.62893
7.62893
7.62892
7.62891
7.62889
7.62887
7.62885
7.62883
7.6288
7.62877
7.62873
7.62869
7.62865
7.62861
7.62856
7.62851
7.62845
7.62839
7.62833
7.62826
7.62819
7.62812
7.62804
7.62797
7.62788
7.6278
7.62772
7.62765
7.62759
8.12538
8.12544
8.12552
8.1256
8.12569
8.12578
8.12586
8.12594
8.12602
8.12609
8.12617
8.12623
8.1263
8.12635
8.12641
8.12646
8.12651
8.12655
8.12659
8.12663
8.12666
8.12669
8.12672
8.12674
8.12676
8.12678
8.12679
8.1268
8.12681
8.12681
8.12681
8.12681
8.1268
8.12679
8.12678
8.12676
8.12674
8.12672
8.12669
8.12666
8.12663
8.12659
8.12655
8.12651
8.12646
8.12641
8.12635
8.1263
8.12623
8.12617
8.12609
8.12602
8.12594
8.12586
8.12578
8.12569
8.1256
8.12552
8.12544
8.12538
8.6319
8.63196
8.63204
8.63213
8.63223
8.63232
8.63241
8.6325
8.63258
8.63266
8.63273
8.6328
8.63287
8.63293
8.63299
8.63305
8.6331
8.63315
8.63319
8.63323
8.63326
8.6333
8.63332
8.63335
8.63337
8.63339
8.6334
8.63341
8.63342
8.63342
8.63342
8.63342
8.63341
8.6334
8.63339
8.63337
8.63335
8.63332
8.6333
8.63326
8.63323
8.63319
8.63315
8.6331
8.63305
8.63299
8.63293
8.63287
8.6328
8.63273
8.63266
8.63258
8.6325
8.63241
8.63232
8.63223
8.63213
8.63204
8.63196
8.6319
9.14695
9.14701
9.1471
9.1472
9.1473
9.1474
9.14749
9.14758
9.14767
9.14776
9.14784
9.14791
9.14798
9.14805
9.14811
9.14817
9.14822
9.14827
9.14832
9.14836
9.1484
9.14843
9.14846
9.14849
9.14851
9.14853
9.14854
9.14855
9.14856
9.14856
9.14856
9.14856
9.14855
9.14854
9.14853
9.14851
9.14849
9.14846
9.14843
9.1484
9.14836
9.14832
9.14827
9.14822
9.14817
9.14811
9.14805
9.14798
9.14791
9.14784
9.14776
9.14767
9.14758
9.14749
9.1474
9.1473
9.1472
9.1471
9.14701
9.14695
9.6703
9.67037
9.67046
9.67056
9.67067
9.67077
9.67087
9.67097
9.67106
9.67115
9.67123
9.67131
9.67139
9.67146
9.67152
9.67158
9.67164
9.67169
9.67174
9.67179
9.67183
9.67186
9.67189
9.67192
9.67194
9.67196
9.67198
9.67199
9.672
9.672
9.672
9.672
9.67199
9.67198
9.67196
9.67194
9.67192
9.67189
9.67186
9.67183
9.67179
9.67174
9.67169
9.67164
9.67158
9.67152
9.67146
9.67139
9.67131
9.67123
9.67115
9.67106
9.67097
9.67087
9.67077
9.67067
9.67056
9.67046
9.67037
9.6703
10.2017
10.2017
10.2018
10.2019
10.202
10.2021
10.2023
10.2024
10.2025
10.2025
10.2026
10.2027
10.2028
10.2029
10.2029
10.203
10.2031
10.2031
10.2032
10.2032
10.2033
10.2033
10.2033
10.2034
10.2034
10.2034
10.2034
10.2034
10.2034
10.2034
10.2034
10.2034
10.2034
10.2034
10.2034
10.2034
10.2034
10.2033
10.2033
10.2033
10.2032
10.2032
10.2031
10.2031
10.203
10.2029
10.2029
10.2028
10.2027
10.2026
10.2025
10.2025
10.2024
10.2023
10.2021
10.202
10.2019
10.2018
10.2017
10.2017
10.7407
10.7407
10.7408
10.741
10.7411
10.7412
10.7413
10.7414
10.7415
10.7416
10.7417
10.7418
10.7419
10.7419
10.742
10.7421
10.7421
10.7422
10.7423
10.7423
10.7423
10.7424
10.7424
10.7425
10.7425
10.7425
10.7425
10.7425
10.7425
10.7425
10.7425
10.7425
10.7425
10.7425
10.7425
10.7425
10.7425
10.7424
10.7424
10.7423
10.7423
10.7423
10.7422
10.7421
10.7421
10.742
10.7419
10.7419
10.7418
10.7417
10.7416
10.7415
10.7414
10.7413
10.7412
10.7411
10.741
10.7408
10.7407
10.7407
11.2869
11.287
11.2871
11.2872
11.2874
11.2875
11.2876
11.2877
11.2878
11.2879
11.288
11.2881
11.2882
11.2883
11.2883
11.2884
11.2885
11.2885
11.2886
11.2886
11.2887
11.2887
11.2888
11.2888
11.2888
11.2888
11.2889
11.2889
11.2889
11.2889
11.2889
11.2889
11.2889
11.2889
11.2888
11.2888
11.2888
11.2888
11.2887
11.2887
11.2886
11.2886
11.2885
11.2885
11.2884
11.2883
11.2883
11.2882
11.2881
11.288
11.2879
11.2878
11.2877
11.2876
11.2875
11.2874
11.2872
11.2871
11.287
11.2869
11.84
11.84
11.8402
11.8403
11.8404
11.8405
11.8406
11.8408
11.8409
11.841
11.8411
11.8412
11.8413
11.8414
11.8414
11.8415
11.8416
11.8416
11.8417
11.8417
11.8418
11.8418
11.8419
11.8419
11.8419
11.842
11.842
11.842
11.842
11.842
11.842
11.842
11.842
11.842
11.842
11.8419
11.8419
11.8419
11.8418
11.8418
11.8417
11.8417
11.8416
11.8416
11.8415
11.8414
11.8414
11.8413
11.8412
11.8411
11.841
11.8409
11.8408
11.8406
11.8405
11.8404
11.8403
11.8402
11.84
11.84
12.3992
12.3993
12.3994
12.3995
12.3997
12.3998
12.3999
12.4
12.4002
12.4003
12.4004
12.4005
12.4006
12.4007
12.4007
12.4008
12.4009
12.4009
12.401
12.4011
12.4011
12.4012
12.4012
12.4012
12.4013
12.4013
12.4013
12.4013
12.4013
12.4013
12.4013
12.4013
12.4013
12.4013
12.4013
12.4013
12.4012
12.4012
12.4012
12.4011
12.4011
12.401
12.4009
12.4009
12.4008
12.4007
12.4007
12.4006
12.4005
12.4004
12.4003
12.4002
12.4
12.3999
12.3998
12.3997
12.3995
12.3994
12.3993
12.3992
12.964
12.9641
12.9642
12.9644
12.9645
12.9646
12.9648
12.9649
12.965
12.9651
12.9652
12.9653
12.9654
12.9655
12.9656
12.9657
12.9658
12.9658
12.9659
12.9659
12.966
12.966
12.9661
12.9661
12.9662
12.9662
12.9662
12.9662
12.9662
12.9662
12.9662
12.9662
12.9662
12.9662
12.9662
12.9662
12.9661
12.9661
12.966
12.966
12.9659
12.9659
12.9658
12.9658
12.9657
12.9656
12.9655
12.9654
12.9653
12.9652
12.9651
12.965
12.9649
12.9648
12.9646
12.9645
12.9644
12.9642
12.9641
12.964
13.5337
13.5337
13.5339
13.534
13.5342
13.5343
13.5344
13.5345
13.5347
13.5348
13.5349
13.535
13.5351
13.5352
13.5353
13.5354
13.5354
13.5355
13.5356
13.5356
13.5357
13.5357
13.5358
13.5358
13.5359
13.5359
13.5359
13.5359
13.5359
13.5359
13.5359
13.5359
13.5359
13.5359
13.5359
13.5359
13.5358
13.5358
13.5357
13.5357
13.5356
13.5356
13.5355
13.5354
13.5354
13.5353
13.5352
13.5351
13.535
13.5349
13.5348
13.5347
13.5345
13.5344
13.5343
13.5342
13.534
13.5339
13.5337
13.5337
14.1072
14.1073
14.1075
14.1076
14.1078
14.1079
14.108
14.1082
14.1083
14.1084
14.1085
14.1086
14.1087
14.1088
14.1089
14.109
14.1091
14.1092
14.1092
14.1093
14.1093
14.1094
14.1094
14.1095
14.1095
14.1095
14.1096
14.1096
14.1096
14.1096
14.1096
14.1096
14.1096
14.1096
14.1095
14.1095
14.1095
14.1094
14.1094
14.1093
14.1093
14.1092
14.1092
14.1091
14.109
14.1089
14.1088
14.1087
14.1086
14.1085
14.1084
14.1083
14.1082
14.108
14.1079
14.1078
14.1076
14.1075
14.1073
14.1072
14.6838
14.6839
14.684
14.6842
14.6843
14.6845
14.6846
14.6847
14.6849
14.685
14.6851
14.6852
14.6853
14.6854
14.6855
14.6856
14.6857
14.6858
14.6858
14.6859
14.6859
14.686
14.686
14.6861
14.6861
14.6861
14.6862
14.6862
14.6862
14.6862
14.6862
14.6862
14.6862
14.6862
14.6861
14.6861
14.6861
14.686
14.686
14.6859
14.6859
14.6858
14.6858
14.6857
14.6856
14.6855
14.6854
14.6853
14.6852
14.6851
14.685
14.6849
14.6847
14.6846
14.6845
14.6843
14.6842
14.684
14.6839
14.6838
15.2621
15.2622
15.2624
15.2625
15.2627
15.2628
15.263
15.2631
15.2632
15.2634
15.2635
15.2636
15.2637
15.2638
15.2639
15.264
15.2641
15.2642
15.2642
15.2643
15.2644
15.2644
15.2645
15.2645
15.2645
15.2646
15.2646
15.2646
15.2646
15.2646
15.2646
15.2646
15.2646
15.2646
15.2646
15.2645
15.2645
15.2645
15.2644
15.2644
15.2643
15.2642
15.2642
15.2641
15.264
15.2639
15.2638
15.2637
15.2636
15.2635
15.2634
15.2632
15.2631
15.263
15.2628
15.2627
15.2625
15.2624
15.2622
15.2621
15.841
15.8411
15.8412
15.8414
15.8416
15.8417
15.8418
15.842
15.8421
15.8423
15.8424
15.8425
15.8426
15.8427
15.8428
15.8429
15.843
15.8431
15.8431
15.8432
15.8433
15.8433
15.8434
15.8434
15.8434
15.8435
15.8435
15.8435
15.8435
15.8435
15.8435
15.8435
15.8435
15.8435
15.8435
15.8434
15.8434
15.8434
15.8433
15.8433
15.8432
15.8431
15.8431
15.843
15.8429
15.8428
15.8427
15.8426
15.8425
15.8424
15.8423
15.8421
15.842
15.8418
15.8417
15.8416
15.8414
15.8412
15.8411
15.841
16.4188
16.4189
16.4191
16.4192
16.4194
16.4195
16.4197
16.4198
16.42
16.4201
16.4202
16.4204
16.4205
16.4206
16.4207
16.4208
16.4209
16.4209
16.421
16.4211
16.4211
16.4212
16.4212
16.4213
16.4213
16.4213
16.4214
16.4214
16.4214
16.4214
16.4214
16.4214
16.4214
16.4214
16.4213
16.4213
16.4213
16.4212
16.4212
16.4211
16.4211
16.421
16.4209
16.4209
16.4208
16.4207
16.4206
16.4205
16.4204
16.4202
16.4201
16.42
16.4198
16.4197
16.4195
16.4194
16.4192
16.4191
16.4189
16.4188
16.9939
16.994
16.9941
16.9943
16.9945
16.9946
16.9948
16.9949
16.995
16.9952
16.9953
16.9954
16.9955
16.9957
16.9958
16.9958
16.9959
16.996
16.9961
16.9962
16.9962
16.9963
16.9963
16.9964
16.9964
16.9964
16.9965
16.9965
16.9965
16.9965
16.9965
16.9965
16.9965
16.9965
16.9964
16.9964
16.9964
16.9963
16.9963
16.9962
16.9962
16.9961
16.996
16.9959
16.9958
16.9958
16.9957
16.9955
16.9954
16.9953
16.9952
16.995
16.9949
16.9948
16.9946
16.9945
16.9943
16.9941
16.994
16.9939
17.5641
17.5642
17.5644
17.5645
17.5647
17.5649
17.565
17.5652
17.5653
17.5654
17.5656
17.5657
17.5658
17.5659
17.566
17.5661
17.5662
17.5663
17.5664
17.5664
17.5665
17.5665
17.5666
17.5666
17.5667
17.5667
17.5667
17.5667
17.5667
17.5668
17.5668
17.5667
17.5667
17.5667
17.5667
17.5667
17.5666
17.5666
17.5665
17.5665
17.5664
17.5664
17.5663
17.5662
17.5661
17.566
17.5659
17.5658
17.5657
17.5656
17.5654
17.5653
17.5652
17.565
17.5649
17.5647
17.5645
17.5644
17.5642
17.5641
18.1272
18.1273
18.1275
18.1276
18.1278
18.128
18.1281
18.1282
18.1284
18.1285
18.1287
18.1288
18.1289
18.129
18.1291
18.1292
18.1293
18.1294
18.1294
18.1295
18.1296
18.1296
18.1297
18.1297
18.1298
18.1298
18.1298
18.1298
18.1298
18.1298
18.1298
18.1298
18.1298
18.1298
18.1298
18.1298
18.1297
18.1297
18.1296
18.1296
18.1295
18.1294
18.1294
18.1293
18.1292
18.1291
18.129
18.1289
18.1288
18.1287
18.1285
18.1284
18.1282
18.1281
18.128
18.1278
18.1276
18.1275
18.1273
18.1272
18.6804
18.6805
18.6806
18.6808
18.681
18.6811
18.6813
18.6814
18.6816
18.6817
18.6818
18.6819
18.6821
18.6822
18.6823
18.6824
18.6824
18.6825
18.6826
18.6827
18.6827
18.6828
18.6828
18.6829
18.6829
18.6829
18.683
18.683
18.683
18.683
18.683
18.683
18.683
18.683
18.6829
18.6829
18.6829
18.6828
18.6828
18.6827
18.6827
18.6826
18.6825
18.6824
18.6824
18.6823
18.6822
18.6821
18.6819
18.6818
18.6817
18.6816
18.6814
18.6813
18.6811
18.681
18.6808
18.6806
18.6805
18.6804
19.2204
19.2205
19.2207
19.2208
19.221
19.2211
19.2213
19.2214
19.2216
19.2217
19.2218
19.2219
19.222
19.2222
19.2223
19.2224
19.2224
19.2225
19.2226
19.2227
19.2227
19.2228
19.2228
19.2229
19.2229
19.2229
19.223
19.223
19.223
19.223
19.223
19.223
19.223
19.223
19.2229
19.2229
19.2229
19.2228
19.2228
19.2227
19.2227
19.2226
19.2225
19.2224
19.2224
19.2223
19.2222
19.222
19.2219
19.2218
19.2217
19.2216
19.2214
19.2213
19.2211
19.221
19.2208
19.2207
19.2205
19.2204
19.7435
19.7436
19.7437
19.7439
19.744
19.7442
19.7443
19.7445
19.7446
19.7447
19.7448
19.745
19.7451
19.7452
19.7453
19.7454
19.7455
19.7455
19.7456
19.7457
19.7457
19.7458
19.7458
19.7459
19.7459
19.7459
19.746
19.746
19.746
19.746
19.746
19.746
19.746
19.746
19.7459
19.7459
19.7459
19.7458
19.7458
19.7457
19.7457
19.7456
19.7455
19.7455
19.7454
19.7453
19.7452
19.7451
19.745
19.7448
19.7447
19.7446
19.7445
19.7443
19.7442
19.744
19.7439
19.7437
19.7436
19.7435
20.2451
20.2452
20.2453
20.2454
20.2456
20.2457
20.2459
20.246
20.2461
20.2463
20.2464
20.2465
20.2466
20.2467
20.2468
20.2469
20.247
20.247
20.2471
20.2472
20.2472
20.2473
20.2473
20.2474
20.2474
20.2474
20.2475
20.2475
20.2475
20.2475
20.2475
20.2475
20.2475
20.2475
20.2474
20.2474
20.2474
20.2473
20.2473
20.2472
20.2472
20.2471
20.247
20.247
20.2469
20.2468
20.2467
20.2466
20.2465
20.2464
20.2463
20.2461
20.246
20.2459
20.2457
20.2456
20.2454
20.2453
20.2452
20.2451
20.7198
20.7199
20.7201
20.7202
20.7203
20.7205
20.7206
20.7207
20.7209
20.721
20.7211
20.7212
20.7213
20.7214
20.7215
20.7216
20.7217
20.7217
20.7218
20.7219
20.7219
20.722
20.722
20.7221
20.7221
20.7221
20.7221
20.7222
20.7222
20.7222
20.7222
20.7222
20.7222
20.7221
20.7221
20.7221
20.7221
20.722
20.722
20.7219
20.7219
20.7218
20.7217
20.7217
20.7216
20.7215
20.7214
20.7213
20.7212
20.7211
20.721
20.7209
20.7207
20.7206
20.7205
20.7203
20.7202
20.7201
20.7199
20.7198
21.1617
21.1618
21.1619
21.1621
21.1622
21.1623
21.1624
21.1626
21.1627
21.1628
21.1629
21.163
21.1631
21.1632
21.1633
21.1634
21.1634
21.1635
21.1636
21.1636
21.1637
21.1637
21.1638
21.1638
21.1638
21.1639
21.1639
21.1639
21.1639
21.1639
21.1639
21.1639
21.1639
21.1639
21.1639
21.1638
21.1638
21.1638
21.1637
21.1637
21.1636
21.1636
21.1635
21.1634
21.1634
21.1633
21.1632
21.1631
21.163
21.1629
21.1628
21.1627
21.1626
21.1624
21.1623
21.1622
21.1621
21.1619
21.1618
21.1617
21.5641
21.5642
21.5643
21.5644
21.5645
21.5646
21.5648
21.5649
21.565
21.5651
21.5652
21.5653
21.5654
21.5654
21.5655
21.5656
21.5657
21.5657
21.5658
21.5658
21.5659
21.5659
21.566
21.566
21.566
21.5661
21.5661
21.5661
21.5661
21.5661
21.5661
21.5661
21.5661
21.5661
21.5661
21.566
21.566
21.566
21.5659
21.5659
21.5658
21.5658
21.5657
21.5657
21.5656
21.5655
21.5654
21.5654
21.5653
21.5652
21.5651
21.565
21.5649
21.5648
21.5646
21.5645
21.5644
21.5643
21.5642
21.5641
21.9207
21.9208
21.9209
21.921
21.9211
21.9212
21.9213
21.9214
21.9214
21.9215
21.9216
21.9217
21.9218
21.9219
21.9219
21.922
21.9221
21.9221
21.9222
21.9222
21.9223
21.9223
21.9223
21.9224
21.9224
21.9224
21.9224
21.9224
21.9225
21.9225
21.9225
21.9225
21.9224
21.9224
21.9224
21.9224
21.9224
21.9223
21.9223
21.9223
21.9222
21.9222
21.9221
21.9221
21.922
21.9219
21.9219
21.9218
21.9217
21.9216
21.9215
21.9214
21.9214
21.9213
21.9212
21.9211
21.921
21.9209
21.9208
21.9207
22.2269
22.227
22.2271
22.2272
22.2272
22.2273
22.2274
22.2275
22.2276
22.2276
22.2277
22.2278
22.2279
22.2279
22.228
22.228
22.2281
22.2282
22.2282
22.2282
22.2283
22.2283
22.2283
22.2284
22.2284
22.2284
22.2284
22.2284
22.2285
22.2285
22.2285
22.2285
22.2284
22.2284
22.2284
22.2284
22.2284
22.2283
22.2283
22.2283
22.2282
22.2282
22.2282
22.2281
22.228
22.228
22.2279
22.2279
22.2278
22.2277
22.2276
22.2276
22.2275
22.2274
22.2273
22.2272
22.2272
22.2271
22.227
22.2269
22.4817
22.4818
22.4818
22.4819
22.482
22.482
22.4821
22.4822
22.4822
22.4823
22.4824
22.4824
22.4825
22.4826
22.4826
22.4827
22.4827
22.4827
22.4828
22.4828
22.4829
22.4829
22.4829
22.4829
22.483
22.483
22.483
22.483
22.483
22.483
22.483
22.483
22.483
22.483
22.483
22.483
22.4829
22.4829
22.4829
22.4829
22.4828
22.4828
22.4827
22.4827
22.4827
22.4826
22.4826
22.4825
22.4824
22.4824
22.4823
22.4822
22.4822
22.4821
22.482
22.482
22.4819
22.4818
22.4818
22.4817
22.6883
22.6884
22.6884
22.6884
22.6885
22.6886
22.6886
22.6887
22.6887
22.6888
22.6888
22.6889
22.6889
22.689
22.689
22.6891
22.6891
22.6891
22.6892
22.6892
22.6892
22.6893
22.6893
22.6893
22.6893
22.6893
22.6894
22.6894
22.6894
22.6894
22.6894
22.6894
22.6894
22.6894
22.6893
22.6893
22.6893
22.6893
22.6893
22.6892
22.6892
22.6892
22.6891
22.6891
22.6891
22.689
22.689
22.6889
22.6889
22.6888
22.6888
22.6887
22.6887
22.6886
22.6886
22.6885
22.6884
22.6884
22.6884
22.6883
22.8536
22.8536
22.8537
22.8537
22.8537
22.8538
22.8538
22.8539
22.8539
22.854
22.854
22.854
22.8541
22.8541
22.8542
22.8542
22.8542
22.8543
22.8543
22.8543
22.8544
22.8544
22.8544
22.8544
22.8544
22.8544
22.8545
22.8545
22.8545
22.8545
22.8545
22.8545
22.8545
22.8545
22.8544
22.8544
22.8544
22.8544
22.8544
22.8544
22.8543
22.8543
22.8543
22.8542
22.8542
22.8542
22.8541
22.8541
22.854
22.854
22.854
22.8539
22.8539
22.8538
22.8538
22.8537
22.8537
22.8537
22.8536
22.8536
22.9862
22.9863
22.9863
22.9863
22.9863
22.9864
22.9864
22.9865
22.9865
22.9865
22.9866
22.9866
22.9866
22.9867
22.9867
22.9867
22.9868
22.9868
22.9868
22.9869
22.9869
22.9869
22.9869
22.9869
22.9869
22.987
22.987
22.987
22.987
22.987
22.987
22.987
22.987
22.987
22.987
22.9869
22.9869
22.9869
22.9869
22.9869
22.9869
22.9868
22.9868
22.9868
22.9867
22.9867
22.9867
22.9866
22.9866
22.9866
22.9865
22.9865
22.9865
22.9864
22.9864
22.9863
22.9863
22.9863
22.9863
22.9862
23.0946
23.0946
23.0946
23.0947
23.0947
23.0947
23.0948
23.0948
23.0948
23.0949
23.0949
23.0949
23.095
23.095
23.095
23.095
23.0951
23.0951
23.0951
23.0951
23.0952
23.0952
23.0952
23.0952
23.0952
23.0952
23.0953
23.0953
23.0953
23.0953
23.0953
23.0953
23.0953
23.0953
23.0952
23.0952
23.0952
23.0952
23.0952
23.0952
23.0951
23.0951
23.0951
23.0951
23.095
23.095
23.095
23.095
23.0949
23.0949
23.0949
23.0948
23.0948
23.0948
23.0947
23.0947
23.0947
23.0946
23.0946
23.0946
23.1855
23.1855
23.1855
23.1855
23.1856
23.1856
23.1856
23.1856
23.1857
23.1857
23.1857
23.1858
23.1858
23.1858
23.1859
23.1859
23.1859
23.1859
23.186
23.186
23.186
23.186
23.186
23.186
23.1861
23.1861
23.1861
23.1861
23.1861
23.1861
23.1861
23.1861
23.1861
23.1861
23.1861
23.1861
23.186
23.186
23.186
23.186
23.186
23.186
23.1859
23.1859
23.1859
23.1859
23.1858
23.1858
23.1858
23.1857
23.1857
23.1857
23.1856
23.1856
23.1856
23.1856
23.1855
23.1855
23.1855
23.1855
23.2638
23.2638
23.2638
23.2638
23.2639
23.2639
23.2639
23.2639
23.264
23.264
23.264
23.2641
23.2641
23.2641
23.2641
23.2642
23.2642
23.2642
23.2642
23.2643
23.2643
23.2643
23.2643
23.2643
23.2643
23.2643
23.2644
23.2644
23.2644
23.2644
23.2644
23.2644
23.2644
23.2644
23.2643
23.2643
23.2643
23.2643
23.2643
23.2643
23.2643
23.2642
23.2642
23.2642
23.2642
23.2641
23.2641
23.2641
23.2641
23.264
23.264
23.264
23.2639
23.2639
23.2639
23.2639
23.2638
23.2638
23.2638
23.2638
23.3329
23.3329
23.3329
23.3329
23.3329
23.3329
23.333
23.333
23.333
23.3331
23.3331
23.3331
23.3331
23.3332
23.3332
23.3332
23.3333
23.3333
23.3333
23.3333
23.3333
23.3334
23.3334
23.3334
23.3334
23.3334
23.3334
23.3334
23.3334
23.3334
23.3334
23.3334
23.3334
23.3334
23.3334
23.3334
23.3334
23.3334
23.3334
23.3333
23.3333
23.3333
23.3333
23.3333
23.3332
23.3332
23.3332
23.3331
23.3331
23.3331
23.3331
23.333
23.333
23.333
23.3329
23.3329
23.3329
23.3329
23.3329
23.3329
23.395
23.395
23.395
23.395
23.395
23.395
23.395
23.3951
23.3951
23.3951
23.3951
23.3952
23.3952
23.3952
23.3953
23.3953
23.3953
23.3953
23.3954
23.3954
23.3954
23.3954
23.3954
23.3955
23.3955
23.3955
23.3955
23.3955
23.3955
23.3955
23.3955
23.3955
23.3955
23.3955
23.3955
23.3955
23.3955
23.3954
23.3954
23.3954
23.3954
23.3954
23.3953
23.3953
23.3953
23.3953
23.3952
23.3952
23.3952
23.3951
23.3951
23.3951
23.3951
23.395
23.395
23.395
23.395
23.395
23.395
23.395
23.4515
23.4515
23.4515
23.4515
23.4516
23.4516
23.4516
23.4516
23.4517
23.4517
23.4517
23.4517
23.4518
23.4518
23.4518
23.4519
23.4519
23.4519
23.4519
23.452
23.452
23.452
23.452
23.452
23.452
23.452
23.452
23.4521
23.4521
23.4521
23.4521
23.4521
23.4521
23.452
23.452
23.452
23.452
23.452
23.452
23.452
23.452
23.4519
23.4519
23.4519
23.4519
23.4518
23.4518
23.4518
23.4517
23.4517
23.4517
23.4517
23.4516
23.4516
23.4516
23.4516
23.4515
23.4515
23.4515
23.4515
23.5036
23.5036
23.5036
23.5037
23.5037
23.5037
23.5037
23.5037
23.5038
23.5038
23.5038
23.5039
23.5039
23.5039
23.5039
23.504
23.504
23.504
23.5041
23.5041
23.5041
23.5041
23.5041
23.5041
23.5042
23.5042
23.5042
23.5042
23.5042
23.5042
23.5042
23.5042
23.5042
23.5042
23.5042
23.5042
23.5041
23.5041
23.5041
23.5041
23.5041
23.5041
23.504
23.504
23.504
23.5039
23.5039
23.5039
23.5039
23.5038
23.5038
23.5038
23.5037
23.5037
23.5037
23.5037
23.5037
23.5036
23.5036
23.5036
23.5521
23.5521
23.5521
23.5521
23.5521
23.5521
23.5522
23.5522
23.5522
23.5522
23.5523
23.5523
23.5523
23.5524
23.5524
23.5524
23.5524
23.5525
23.5525
23.5525
23.5525
23.5526
23.5526
23.5526
23.5526
23.5526
23.5526
23.5526
23.5526
23.5526
23.5526
23.5526
23.5526
23.5526
23.5526
23.5526
23.5526
23.5526
23.5526
23.5525
23.5525
23.5525
23.5525
23.5524
23.5524
23.5524
23.5524
23.5523
23.5523
23.5523
23.5522
23.5522
23.5522
23.5522
23.5521
23.5521
23.5521
23.5521
23.5521
23.5521
23.5974
23.5974
23.5974
23.5974
23.5974
23.5975
23.5975
23.5975
23.5975
23.5976
23.5976
23.5976
23.5977
23.5977
23.5977
23.5978
23.5978
23.5978
23.5978
23.5979
23.5979
23.5979
23.5979
23.5979
23.598
23.598
23.598
23.598
23.598
23.598
23.598
23.598
23.598
23.598
23.598
23.598
23.5979
23.5979
23.5979
23.5979
23.5979
23.5978
23.5978
23.5978
23.5978
23.5977
23.5977
23.5977
23.5976
23.5976
23.5976
23.5975
23.5975
23.5975
23.5975
23.5974
23.5974
23.5974
23.5974
23.5974
23.6401
23.6401
23.6401
23.6401
23.6401
23.6402
23.6402
23.6402
23.6402
23.6403
23.6403
23.6403
23.6404
23.6404
23.6404
23.6405
23.6405
23.6405
23.6405
23.6406
23.6406
23.6406
23.6406
23.6406
23.6406
23.6407
23.6407
23.6407
23.6407
23.6407
23.6407
23.6407
23.6407
23.6407
23.6407
23.6406
23.6406
23.6406
23.6406
23.6406
23.6406
23.6405
23.6405
23.6405
23.6405
23.6404
23.6404
23.6404
23.6403
23.6403
23.6403
23.6402
23.6402
23.6402
23.6402
23.6401
23.6401
23.6401
23.6401
23.6401
23.6805
23.6805
23.6805
23.6805
23.6805
23.6805
23.6806
23.6806
23.6806
23.6807
23.6807
23.6807
23.6808
23.6808
23.6808
23.6809
23.6809
23.6809
23.6809
23.681
23.681
23.681
23.681
23.681
23.6811
23.6811
23.6811
23.6811
23.6811
23.6811
23.6811
23.6811
23.6811
23.6811
23.6811
23.6811
23.681
23.681
23.681
23.681
23.681
23.6809
23.6809
23.6809
23.6809
23.6808
23.6808
23.6808
23.6807
23.6807
23.6807
23.6806
23.6806
23.6806
23.6805
23.6805
23.6805
23.6805
23.6805
23.6805
23.7189
23.7189
23.7189
23.7189
23.7189
23.7189
23.7189
23.719
23.719
23.719
23.7191
23.7191
23.7191
23.7192
23.7192
23.7192
23.7193
23.7193
23.7193
23.7194
23.7194
23.7194