/*--------------------------------*- C++ -*----------------------------------*\
| =========                 |                                                 |
| \\      /  F ield         | foam-extend: Open Source CFD                    |
|  \\    /   O peration     | Version:     4.0                                |
|   \\  /    A nd           | Web:         http://www.foam-extend.org         |
|    \\/     M anipulation  |                                                 |
\*---------------------------------------------------------------------------*/
FoamFile
{
    version     2.0;
    format      ascii;
    class       volScalarField;
    location    "700";
    object      psiE;
}
// * * * * * * * * * * * * * * * * * * * * * * * * * * * * * * * * * * * * * //

dimensions      [0 0 0 0 0 0 0];

internalField   nonuniform List<scalar> 
6960
(
0.39532
0.395357
0.395385
0.395403
0.395414
0.395421
0.395425
0.395428
0.39543
0.395431
0.395432
0.395433
0.395433
0.395434
0.395435
0.395435
0.395436
0.395436
0.395437
0.395437
0.395438
0.395438
0.395438
0.395439
0.395439
0.395439
0.395439
0.395439
0.395439
0.395439
0.395439
0.395439
0.395439
0.395439
0.395439
0.395439
0.395439
0.395438
0.395438
0.395438
0.395437
0.395437
0.395436
0.395436
0.395435
0.395435
0.395434
0.395433
0.395433
0.395432
0.395431
0.39543
0.395428
0.395425
0.395421
0.395414
0.395403
0.395385
0.395357
0.39532
1.07992
1.08007
1.08018
1.08026
1.0803
1.08033
1.08034
1.08035
1.08036
1.08037
1.08037
1.08037
1.08037
1.08038
1.08038
1.08038
1.08038
1.08038
1.08038
1.08039
1.08039
1.08039
1.08039
1.08039
1.08039
1.08039
1.08039
1.08039
1.08039
1.08039
1.08039
1.08039
1.08039
1.08039
1.08039
1.08039
1.08039
1.08039
1.08039
1.08039
1.08039
1.08038
1.08038
1.08038
1.08038
1.08038
1.08038
1.08037
1.08037
1.08037
1.08037
1.08036
1.08035
1.08034
1.08033
1.0803
1.08026
1.08018
1.08007
1.07992
1.755
1.75528
1.75549
1.75562
1.75571
1.75575
1.75578
1.7558
1.75582
1.75582
1.75583
1.75584
1.75584
1.75584
1.75585
1.75585
1.75585
1.75586
1.75586
1.75586
1.75586
1.75586
1.75587
1.75587
1.75587
1.75587
1.75587
1.75587
1.75587
1.75587
1.75587
1.75587
1.75587
1.75587
1.75587
1.75587
1.75587
1.75587
1.75586
1.75586
1.75586
1.75586
1.75586
1.75585
1.75585
1.75585
1.75584
1.75584
1.75584
1.75583
1.75582
1.75582
1.7558
1.75578
1.75575
1.75571
1.75562
1.75549
1.75528
1.755
2.43625
2.43665
2.43696
2.43716
2.43729
2.43736
2.4374
2.43743
2.43745
2.43746
2.43747
2.43748
2.43748
2.43749
2.43749
2.4375
2.4375
2.43751
2.43751
2.43751
2.43752
2.43752
2.43752
2.43752
2.43753
2.43753
2.43753
2.43753
2.43753
2.43753
2.43753
2.43753
2.43753
2.43753
2.43753
2.43753
2.43752
2.43752
2.43752
2.43752
2.43751
2.43751
2.43751
2.4375
2.4375
2.43749
2.43749
2.43748
2.43748
2.43747
2.43746
2.43745
2.43743
2.4374
2.43736
2.43729
2.43716
2.43696
2.43665
2.43625
3.12639
3.12693
3.12734
3.12761
3.12777
3.12787
3.12793
3.12796
3.12799
3.128
3.12801
3.12802
3.12803
3.12804
3.12805
3.12805
3.12806
3.12806
3.12807
3.12807
3.12808
3.12808
3.12808
3.12808
3.12809
3.12809
3.12809
3.12809
3.12809
3.12809
3.12809
3.12809
3.12809
3.12809
3.12809
3.12809
3.12808
3.12808
3.12808
3.12808
3.12807
3.12807
3.12806
3.12806
3.12805
3.12805
3.12804
3.12803
3.12802
3.12801
3.128
3.12799
3.12796
3.12793
3.12787
3.12777
3.12761
3.12734
3.12693
3.12639
3.82553
3.8262
3.82671
3.82704
3.82724
3.82736
3.82744
3.82748
3.82751
3.82753
3.82755
3.82756
3.82757
3.82758
3.82759
3.82759
3.8276
3.82761
3.82761
3.82762
3.82762
3.82763
3.82763
3.82763
3.82764
3.82764
3.82764
3.82764
3.82764
3.82764
3.82764
3.82764
3.82764
3.82764
3.82764
3.82764
3.82763
3.82763
3.82763
3.82762
3.82762
3.82761
3.82761
3.8276
3.82759
3.82759
3.82758
3.82757
3.82756
3.82755
3.82753
3.82751
3.82748
3.82744
3.82736
3.82724
3.82704
3.82671
3.8262
3.82553
4.53316
4.53395
4.53457
4.53496
4.5352
4.53535
4.53543
4.53549
4.53552
4.53555
4.53557
4.53558
4.53559
4.5356
4.53561
4.53562
4.53563
4.53564
4.53564
4.53565
4.53566
4.53566
4.53567
4.53567
4.53567
4.53568
4.53568
4.53568
4.53568
4.53568
4.53568
4.53568
4.53568
4.53568
4.53568
4.53567
4.53567
4.53567
4.53566
4.53566
4.53565
4.53564
4.53564
4.53563
4.53562
4.53561
4.5356
4.53559
4.53558
4.53557
4.53555
4.53552
4.53549
4.53543
4.53535
4.5352
4.53496
4.53457
4.53395
4.53316
5.24858
5.2495
5.25021
5.25067
5.25095
5.25111
5.25122
5.25128
5.25132
5.25135
5.25137
5.25139
5.2514
5.25141
5.25142
5.25143
5.25144
5.25145
5.25146
5.25147
5.25147
5.25148
5.25149
5.25149
5.25149
5.2515
5.2515
5.2515
5.2515
5.2515
5.2515
5.2515
5.2515
5.2515
5.2515
5.25149
5.25149
5.25149
5.25148
5.25147
5.25147
5.25146
5.25145
5.25144
5.25143
5.25142
5.25141
5.2514
5.25139
5.25137
5.25135
5.25132
5.25128
5.25122
5.25111
5.25095
5.25067
5.25021
5.2495
5.24858
5.97096
5.972
5.97281
5.97333
5.97364
5.97383
5.97395
5.97402
5.97407
5.9741
5.97413
5.97415
5.97416
5.97418
5.97419
5.9742
5.97421
5.97422
5.97423
5.97424
5.97425
5.97425
5.97426
5.97426
5.97427
5.97427
5.97428
5.97428
5.97428
5.97428
5.97428
5.97428
5.97428
5.97428
5.97427
5.97427
5.97426
5.97426
5.97425
5.97425
5.97424
5.97423
5.97422
5.97421
5.9742
5.97419
5.97418
5.97416
5.97415
5.97413
5.9741
5.97407
5.97402
5.97395
5.97383
5.97364
5.97333
5.97281
5.972
5.97096
6.69934
6.7005
6.7014
6.70198
6.70233
6.70254
6.70267
6.70276
6.70281
6.70284
6.70287
6.70289
6.70291
6.70293
6.70294
6.70295
6.70297
6.70298
6.70299
6.703
6.70301
6.70301
6.70302
6.70303
6.70303
6.70304
6.70304
6.70304
6.70304
6.70304
6.70304
6.70304
6.70304
6.70304
6.70304
6.70303
6.70303
6.70302
6.70301
6.70301
6.703
6.70299
6.70298
6.70297
6.70295
6.70294
6.70293
6.70291
6.70289
6.70287
6.70284
6.70281
6.70276
6.70267
6.70254
6.70233
6.70198
6.7014
6.7005
6.69934
7.4326
7.43388
7.43487
7.43551
7.4359
7.43613
7.43628
7.43636
7.43642
7.43646
7.43649
7.43652
7.43654
7.43656
7.43657
7.43659
7.4366
7.43661
7.43662
7.43663
7.43664
7.43665
7.43666
7.43667
7.43667
7.43668
7.43668
7.43668
7.43669
7.43669
7.43669
7.43669
7.43668
7.43668
7.43668
7.43667
7.43667
7.43666
7.43665
7.43664
7.43663
7.43662
7.43661
7.4366
7.43659
7.43657
7.43656
7.43654
7.43652
7.43649
7.43646
7.43642
7.43636
7.43628
7.43613
7.4359
7.43551
7.43487
7.43388
7.4326
8.16948
8.17087
8.17194
8.17264
8.17306
8.17332
8.17347
8.17357
8.17363
8.17368
8.17371
8.17374
8.17376
8.17378
8.1738
8.17381
8.17383
8.17384
8.17386
8.17387
8.17388
8.17389
8.1739
8.1739
8.17391
8.17391
8.17392
8.17392
8.17392
8.17392
8.17392
8.17392
8.17392
8.17392
8.17391
8.17391
8.1739
8.1739
8.17389
8.17388
8.17387
8.17386
8.17384
8.17383
8.17381
8.1738
8.17378
8.17376
8.17374
8.17371
8.17368
8.17363
8.17357
8.17347
8.17332
8.17306
8.17264
8.17194
8.17087
8.16948
8.9085
8.90999
8.91115
8.91189
8.91235
8.91263
8.9128
8.9129
8.91297
8.91302
8.91305
8.91308
8.91311
8.91313
8.91315
8.91317
8.91318
8.9132
8.91321
8.91322
8.91324
8.91325
8.91326
8.91326
8.91327
8.91328
8.91328
8.91328
8.91329
8.91329
8.91329
8.91329
8.91328
8.91328
8.91328
8.91327
8.91326
8.91326
8.91325
8.91324
8.91322
8.91321
8.9132
8.91318
8.91317
8.91315
8.91313
8.91311
8.91308
8.91305
8.91302
8.91297
8.9129
8.9128
8.91263
8.91235
8.91189
8.91115
8.90999
8.9085
9.64797
9.64956
9.65079
9.65159
9.65207
9.65237
9.65255
9.65266
9.65274
9.65279
9.65283
9.65286
9.65288
9.65291
9.65293
9.65295
9.65297
9.65298
9.653
9.65301
9.65302
9.65304
9.65305
9.65305
9.65306
9.65307
9.65307
9.65308
9.65308
9.65308
9.65308
9.65308
9.65308
9.65307
9.65307
9.65306
9.65305
9.65305
9.65304
9.65302
9.65301
9.653
9.65298
9.65297
9.65295
9.65293
9.65291
9.65288
9.65286
9.65283
9.65279
9.65274
9.65266
9.65255
9.65237
9.65207
9.65159
9.65079
9.64956
9.64797
10.3859
10.3876
10.3889
10.3898
10.3903
10.3906
10.3908
10.3909
10.391
10.391
10.3911
10.3911
10.3911
10.3912
10.3912
10.3912
10.3912
10.3912
10.3913
10.3913
10.3913
10.3913
10.3913
10.3913
10.3913
10.3913
10.3913
10.3913
10.3914
10.3914
10.3914
10.3914
10.3913
10.3913
10.3913
10.3913
10.3913
10.3913
10.3913
10.3913
10.3913
10.3913
10.3912
10.3912
10.3912
10.3912
10.3912
10.3911
10.3911
10.3911
10.391
10.391
10.3909
10.3908
10.3906
10.3903
10.3898
10.3889
10.3876
10.3859
11.1202
11.1219
11.1233
11.1242
11.1247
11.125
11.1252
11.1254
11.1255
11.1255
11.1256
11.1256
11.1256
11.1256
11.1257
11.1257
11.1257
11.1257
11.1258
11.1258
11.1258
11.1258
11.1258
11.1258
11.1258
11.1258
11.1258
11.1258
11.1258
11.1258
11.1258
11.1258
11.1258
11.1258
11.1258
11.1258
11.1258
11.1258
11.1258
11.1258
11.1258
11.1258
11.1257
11.1257
11.1257
11.1257
11.1256
11.1256
11.1256
11.1256
11.1255
11.1255
11.1254
11.1252
11.125
11.1247
11.1242
11.1233
11.1219
11.1202
11.848
11.8499
11.8513
11.8522
11.8528
11.8531
11.8533
11.8535
11.8535
11.8536
11.8536
11.8537
11.8537
11.8537
11.8538
11.8538
11.8538
11.8538
11.8539
11.8539
11.8539
11.8539
11.8539
11.8539
11.8539
11.8539
11.854
11.854
11.854
11.854
11.854
11.854
11.854
11.854
11.8539
11.8539
11.8539
11.8539
11.8539
11.8539
11.8539
11.8539
11.8538
11.8538
11.8538
11.8538
11.8537
11.8537
11.8537
11.8536
11.8536
11.8535
11.8535
11.8533
11.8531
11.8528
11.8522
11.8513
11.8499
11.848
12.5666
12.5684
12.5699
12.5708
12.5714
12.5718
12.572
12.5721
12.5722
12.5723
12.5723
12.5724
12.5724
12.5724
12.5725
12.5725
12.5725
12.5725
12.5726
12.5726
12.5726
12.5726
12.5726
12.5726
12.5726
12.5727
12.5727
12.5727
12.5727
12.5727
12.5727
12.5727
12.5727
12.5727
12.5727
12.5726
12.5726
12.5726
12.5726
12.5726
12.5726
12.5726
12.5725
12.5725
12.5725
12.5725
12.5724
12.5724
12.5724
12.5723
12.5723
12.5722
12.5721
12.572
12.5718
12.5714
12.5708
12.5699
12.5684
12.5666
13.2722
13.2741
13.2756
13.2765
13.2771
13.2775
13.2777
13.2779
13.2779
13.278
13.2781
13.2781
13.2781
13.2782
13.2782
13.2782
13.2783
13.2783
13.2783
13.2783
13.2783
13.2784
13.2784
13.2784
13.2784
13.2784
13.2784
13.2784
13.2784
13.2784
13.2784
13.2784
13.2784
13.2784
13.2784
13.2784
13.2784
13.2784
13.2784
13.2783
13.2783
13.2783
13.2783
13.2783
13.2782
13.2782
13.2782
13.2781
13.2781
13.2781
13.278
13.2779
13.2779
13.2777
13.2775
13.2771
13.2765
13.2756
13.2741
13.2722
13.9607
13.9627
13.9642
13.9651
13.9657
13.9661
13.9663
13.9665
13.9666
13.9666
13.9667
13.9667
13.9668
13.9668
13.9668
13.9669
13.9669
13.9669
13.9669
13.9669
13.967
13.967
13.967
13.967
13.967
13.967
13.967
13.967
13.9671
13.9671
13.9671
13.9671
13.967
13.967
13.967
13.967
13.967
13.967
13.967
13.967
13.9669
13.9669
13.9669
13.9669
13.9669
13.9668
13.9668
13.9668
13.9667
13.9667
13.9666
13.9666
13.9665
13.9663
13.9661
13.9657
13.9651
13.9642
13.9627
13.9607
14.6273
14.6292
14.6307
14.6317
14.6323
14.6326
14.6329
14.633
14.6331
14.6332
14.6332
14.6333
14.6333
14.6334
14.6334
14.6334
14.6334
14.6335
14.6335
14.6335
14.6335
14.6336
14.6336
14.6336
14.6336
14.6336
14.6336
14.6336
14.6336
14.6336
14.6336
14.6336
14.6336
14.6336
14.6336
14.6336
14.6336
14.6336
14.6336
14.6335
14.6335
14.6335
14.6335
14.6334
14.6334
14.6334
14.6334
14.6333
14.6333
14.6332
14.6332
14.6331
14.633
14.6329
14.6326
14.6323
14.6317
14.6307
14.6292
14.6273
15.266
15.2679
15.2693
15.2703
15.2709
15.2712
15.2714
15.2716
15.2717
15.2717
15.2718
15.2718
15.2719
15.2719
15.272
15.272
15.272
15.2721
15.2721
15.2721
15.2721
15.2721
15.2722
15.2722
15.2722
15.2722
15.2722
15.2722
15.2722
15.2722
15.2722
15.2722
15.2722
15.2722
15.2722
15.2722
15.2722
15.2722
15.2721
15.2721
15.2721
15.2721
15.2721
15.272
15.272
15.272
15.2719
15.2719
15.2718
15.2718
15.2717
15.2717
15.2716
15.2714
15.2712
15.2709
15.2703
15.2693
15.2679
15.266
15.8696
15.8715
15.8729
15.8738
15.8743
15.8747
15.8749
15.875
15.8751
15.8752
15.8753
15.8753
15.8753
15.8754
15.8754
15.8755
15.8755
15.8755
15.8755
15.8756
15.8756
15.8756
15.8756
15.8756
15.8757
15.8757
15.8757
15.8757
15.8757
15.8757
15.8757
15.8757
15.8757
15.8757
15.8757
15.8757
15.8756
15.8756
15.8756
15.8756
15.8756
15.8755
15.8755
15.8755
15.8755
15.8754
15.8754
15.8753
15.8753
15.8753
15.8752
15.8751
15.875
15.8749
15.8747
15.8743
15.8738
15.8729
15.8715
15.8696
16.4298
16.4315
16.4328
16.4336
16.4342
16.4345
16.4347
16.4348
16.4349
16.435
16.4351
16.4351
16.4351
16.4352
16.4352
16.4353
16.4353
16.4353
16.4353
16.4354
16.4354
16.4354
16.4354
16.4354
16.4355
16.4355
16.4355
16.4355
16.4355
16.4355
16.4355
16.4355
16.4355
16.4355
16.4355
16.4355
16.4354
16.4354
16.4354
16.4354
16.4354
16.4353
16.4353
16.4353
16.4353
16.4352
16.4352
16.4351
16.4351
16.4351
16.435
16.4349
16.4348
16.4347
16.4345
16.4342
16.4336
16.4328
16.4315
16.4298
16.9367
16.9382
16.9394
16.9401
16.9406
16.9409
16.9411
16.9412
16.9413
16.9414
16.9414
16.9415
16.9415
16.9416
16.9416
16.9416
16.9417
16.9417
16.9417
16.9418
16.9418
16.9418
16.9418
16.9418
16.9419
16.9419
16.9419
16.9419
16.9419
16.9419
16.9419
16.9419
16.9419
16.9419
16.9419
16.9419
16.9418
16.9418
16.9418
16.9418
16.9418
16.9417
16.9417
16.9417
16.9416
16.9416
16.9416
16.9415
16.9415
16.9414
16.9414
16.9413
16.9412
16.9411
16.9409
16.9406
16.9401
16.9394
16.9382
16.9367
17.3805
17.3817
17.3828
17.3834
17.3838
17.3841
17.3843
17.3844
17.3845
17.3845
17.3846
17.3846
17.3847
17.3847
17.3848
17.3848
17.3848
17.3849
17.3849
17.3849
17.3849
17.385
17.385
17.385
17.385
17.385
17.385
17.3851
17.3851
17.3851
17.3851
17.3851
17.3851
17.385
17.385
17.385
17.385
17.385
17.385
17.3849
17.3849
17.3849
17.3849
17.3848
17.3848
17.3848
17.3847
17.3847
17.3846
17.3846
17.3845
17.3845
17.3844
17.3843
17.3841
17.3838
17.3834
17.3828
17.3817
17.3805
17.7539
17.7549
17.7557
17.7563
17.7566
17.7568
17.757
17.7571
17.7572
17.7572
17.7573
17.7573
17.7574
17.7574
17.7575
17.7575
17.7575
17.7576
17.7576
17.7576
17.7576
17.7577
17.7577
17.7577
17.7577
17.7577
17.7577
17.7578
17.7578
17.7578
17.7578
17.7578
17.7578
17.7577
17.7577
17.7577
17.7577
17.7577
17.7577
17.7576
17.7576
17.7576
17.7576
17.7575
17.7575
17.7575
17.7574
17.7574
17.7573
17.7573
17.7572
17.7572
17.7571
17.757
17.7568
17.7566
17.7563
17.7557
17.7549
17.7539
18.0557
18.0564
18.0571
18.0575
18.0577
18.0579
18.058
18.0581
18.0582
18.0583
18.0583
18.0584
18.0584
18.0585
18.0585
18.0585
18.0586
18.0586
18.0586
18.0587
18.0587
18.0587
18.0587
18.0588
18.0588
18.0588
18.0588
18.0588
18.0588
18.0588
18.0588
18.0588
18.0588
18.0588
18.0588
18.0588
18.0588
18.0587
18.0587
18.0587
18.0587
18.0586
18.0586
18.0586
18.0585
18.0585
18.0585
18.0584
18.0584
18.0583
18.0583
18.0582
18.0581
18.058
18.0579
18.0577
18.0575
18.0571
18.0564
18.0557
18.2923
18.2928
18.2932
18.2935
18.2937
18.2939
18.294
18.2941
18.2941
18.2942
18.2942
18.2943
18.2943
18.2944
18.2944
18.2945
18.2945
18.2945
18.2946
18.2946
18.2946
18.2947
18.2947
18.2947
18.2947
18.2947
18.2947
18.2947
18.2948
18.2948
18.2948
18.2948
18.2947
18.2947
18.2947
18.2947
18.2947
18.2947
18.2947
18.2946
18.2946
18.2946
18.2945
18.2945
18.2945
18.2944
18.2944
18.2943
18.2943
18.2942
18.2942
18.2941
18.2941
18.294
18.2939
18.2937
18.2935
18.2932
18.2928
18.2923
18.476
18.4763
18.4766
18.4768
18.477
18.4771
18.4772
18.4772
18.4773
18.4774
18.4774
18.4775
18.4775
18.4776
18.4776
18.4776
18.4777
18.4777
18.4778
18.4778
18.4778
18.4778
18.4779
18.4779
18.4779
18.4779
18.4779
18.4779
18.4779
18.4779
18.4779
18.4779
18.4779
18.4779
18.4779
18.4779
18.4779
18.4779
18.4778
18.4778
18.4778
18.4778
18.4777
18.4777
18.4776
18.4776
18.4776
18.4775
18.4775
18.4774
18.4774
18.4773
18.4772
18.4772
18.4771
18.477
18.4768
18.4766
18.4763
18.476
18.6206
18.6208
18.621
18.6212
18.6213
18.6214
18.6214
18.6215
18.6216
18.6216
18.6217
18.6217
18.6218
18.6218
18.6219
18.6219
18.6219
18.622
18.622
18.6221
18.6221
18.6221
18.6221
18.6222
18.6222
18.6222
18.6222
18.6222
18.6222
18.6222
18.6222
18.6222
18.6222
18.6222
18.6222
18.6222
18.6222
18.6221
18.6221
18.6221
18.6221
18.622
18.622
18.6219
18.6219
18.6219
18.6218
18.6218
18.6217
18.6217
18.6216
18.6216
18.6215
18.6214
18.6214
18.6213
18.6212
18.621
18.6208
18.6206
18.7381
18.7382
18.7383
18.7384
18.7385
18.7386
18.7387
18.7387
18.7388
18.7388
18.7389
18.7389
18.739
18.739
18.7391
18.7391
18.7392
18.7392
18.7392
18.7393
18.7393
18.7393
18.7394
18.7394
18.7394
18.7394
18.7394
18.7394
18.7395
18.7395
18.7395
18.7395
18.7394
18.7394
18.7394
18.7394
18.7394
18.7394
18.7393
18.7393
18.7393
18.7392
18.7392
18.7392
18.7391
18.7391
18.739
18.739
18.7389
18.7389
18.7388
18.7388
18.7387
18.7387
18.7386
18.7385
18.7384
18.7383
18.7382
18.7381
18.837
18.837
18.8371
18.8372
18.8373
18.8373
18.8374
18.8374
18.8375
18.8376
18.8376
18.8377
18.8377
18.8378
18.8378
18.8379
18.8379
18.838
18.838
18.838
18.8381
18.8381
18.8381
18.8381
18.8382
18.8382
18.8382
18.8382
18.8382
18.8382
18.8382
18.8382
18.8382
18.8382
18.8382
18.8382
18.8381
18.8381
18.8381
18.8381
18.838
18.838
18.838
18.8379
18.8379
18.8378
18.8378
18.8377
18.8377
18.8376
18.8376
18.8375
18.8374
18.8374
18.8373
18.8373
18.8372
18.8371
18.837
18.837
18.923
18.923
18.923
18.9231
18.9231
18.9232
18.9232
18.9233
18.9234
18.9234
18.9235
18.9235
18.9236
18.9236
18.9237
18.9237
18.9238
18.9238
18.9239
18.9239
18.924
18.924
18.924
18.924
18.9241
18.9241
18.9241
18.9241
18.9241
18.9241
18.9241
18.9241
18.9241
18.9241
18.9241
18.9241
18.924
18.924
18.924
18.924
18.9239
18.9239
18.9238
18.9238
18.9237
18.9237
18.9236
18.9236
18.9235
18.9235
18.9234
18.9234
18.9233
18.9232
18.9232
18.9231
18.9231
18.923
18.923
18.923
18.9996
18.9996
18.9996
18.9997
18.9997
18.9998
18.9998
18.9999
18.9999
19
19.0001
19.0001
19.0002
19.0002
19.0003
19.0003
19.0004
19.0004
19.0005
19.0005
19.0006
19.0006
19.0006
19.0006
19.0007
19.0007
19.0007
19.0007
19.0007
19.0007
19.0007
19.0007
19.0007
19.0007
19.0007
19.0007
19.0006
19.0006
19.0006
19.0006
19.0005
19.0005
19.0004
19.0004
19.0003
19.0003
19.0002
19.0002
19.0001
19.0001
19
18.9999
18.9999
18.9998
18.9998
18.9997
18.9997
18.9996
18.9996
18.9996
19.0693
19.0692
19.0692
19.0693
19.0693
19.0693
19.0694
19.0695
19.0695
19.0696
19.0696
19.0697
19.0698
19.0698
19.0699
19.0699
19.07
19.07
19.0701
19.0701
19.0702
19.0702
19.0702
19.0703
19.0703
19.0703
19.0703
19.0703
19.0703
19.0703
19.0703
19.0703
19.0703
19.0703
19.0703
19.0703
19.0703
19.0702
19.0702
19.0702
19.0701
19.0701
19.07
19.07
19.0699
19.0699
19.0698
19.0698
19.0697
19.0696
19.0696
19.0695
19.0695
19.0694
19.0693
19.0693
19.0693
19.0692
19.0692
19.0693
19.1334
19.1334
19.1334
19.1334
19.1335
19.1335
19.1336
19.1336
19.1337
19.1337
19.1338
19.1339
19.1339
19.134
19.1341
19.1341
19.1342
19.1342
19.1343
19.1343
19.1344
19.1344
19.1344
19.1345
19.1345
19.1345
19.1345
19.1345
19.1345
19.1345
19.1345
19.1345
19.1345
19.1345
19.1345
19.1345
19.1345
19.1344
19.1344
19.1344
19.1343
19.1343
19.1342
19.1342
19.1341
19.1341
19.134
19.1339
19.1339
19.1338
19.1337
19.1337
19.1336
19.1336
19.1335
19.1335
19.1334
19.1334
19.1334
19.1334
19.1933
19.1932
19.1932
19.1932
19.1933
19.1933
19.1934
19.1934
19.1935
19.1936
19.1936
19.1937
19.1938
19.1938
19.1939
19.1939
19.194
19.1941
19.1941
19.1942
19.1942
19.1942
19.1943
19.1943
19.1943
19.1944
19.1944
19.1944
19.1944
19.1944
19.1944
19.1944
19.1944
19.1944
19.1944
19.1943
19.1943
19.1943
19.1942
19.1942
19.1942
19.1941
19.1941
19.194
19.1939
19.1939
19.1938
19.1938
19.1937
19.1936
19.1936
19.1935
19.1934
19.1934
19.1933
19.1933
19.1932
19.1932
19.1932
19.1933
19.2496
19.2495
19.2495
19.2495
19.2495
19.2496
19.2496
19.2497
19.2498
19.2498
19.2499
19.25
19.25
19.2501
19.2502
19.2502
19.2503
19.2504
19.2504
19.2505
19.2505
19.2506
19.2506
19.2506
19.2506
19.2507
19.2507
19.2507
19.2507
19.2507
19.2507
19.2507
19.2507
19.2507
19.2507
19.2506
19.2506
19.2506
19.2506
19.2505
19.2505
19.2504
19.2504
19.2503
19.2502
19.2502
19.2501
19.25
19.25
19.2499
19.2498
19.2498
19.2497
19.2496
19.2496
19.2495
19.2495
19.2495
19.2495
19.2496
19.3029
19.3029
19.3029
19.3029
19.3029
19.3029
19.303
19.3031
19.3031
19.3032
19.3033
19.3033
19.3034
19.3035
19.3036
19.3036
19.3037
19.3037
19.3038
19.3038
19.3039
19.3039
19.304
19.304
19.304
19.3041
19.3041
19.3041
19.3041
19.3041
19.3041
19.3041
19.3041
19.3041
19.3041
19.304
19.304
19.304
19.3039
19.3039
19.3038
19.3038
19.3037
19.3037
19.3036
19.3036
19.3035
19.3034
19.3033
19.3033
19.3032
19.3031
19.3031
19.303
19.3029
19.3029
19.3029
19.3029
19.3029
19.3029
19.3539
19.3538
19.3538
19.3538
19.3538
19.3538
19.3539
19.354
19.354
19.3541
19.3542
19.3543
19.3543
19.3544
19.3545
19.3545
19.3546
19.3547
19.3547
19.3548
19.3548
19.3549
19.3549
19.355
19.355
19.355
19.355
19.355
19.3551
19.3551
19.3551
19.3551
19.355
19.355
19.355
19.355
19.355
19.3549
19.3549
19.3548
19.3548
19.3547
19.3547
19.3546
19.3545
19.3545
19.3544
19.3543
19.3543
19.3542
19.3541
19.354
19.354
19.3539
19.3538
19.3538
19.3538
19.3538
19.3538
19.3539
19.4027
19.4026
19.4026
19.4026
19.4026
19.4027
19.4027
19.4028
19.4029
19.403
19.403
19.4031
19.4032
19.4033
19.4033
19.4034
19.4035
19.4036
19.4036
19.4037
19.4037
19.4038
19.4038
19.4039
19.4039
19.4039
19.4039
19.4039
19.404
19.404
19.404
19.404
19.4039
19.4039
19.4039
19.4039
19.4039
19.4038
19.4038
19.4037
19.4037
19.4036
19.4036
19.4035
19.4034
19.4033
19.4033
19.4032
19.4031
19.403
19.403
19.4029
19.4028
19.4027
19.4027
19.4026
19.4026
19.4026
19.4026
19.4027
19.4498
19.4497
19.4497
19.4497
19.4497
19.4498
19.4498
19.4499
19.45
19.4501
19.4501
19.4502
19.4503
19.4504
19.4505
19.4505
19.4506
19.4507
19.4508
19.4508
19.4509
19.4509
19.451
19.451
19.451
19.4511
19.4511
19.4511
19.4511
19.4511
19.4511
19.4511
19.4511
19.4511
19.4511
19.451
19.451
19.451
19.4509
19.4509
19.4508
19.4508
19.4507
19.4506
19.4505
19.4505
19.4504
19.4503
19.4502
19.4501
19.4501
19.45
19.4499
19.4498
19.4498
19.4497
19.4497
19.4497
19.4497
19.4498
19.4954
19.4954
19.4953
19.4953
19.4953
19.4954
19.4955
19.4955
19.4956
19.4957
19.4958
19.4959
19.4959
19.496
19.4961
19.4962
19.4963
19.4963
19.4964
19.4965
19.4965
19.4966
19.4966
19.4967
19.4967
19.4967
19.4967
19.4968
19.4968
19.4968
19.4968
19.4968
19.4968
19.4967
19.4967
19.4967
19.4967
19.4966
19.4966
19.4965
19.4965
19.4964
19.4963
19.4963
19.4962
19.4961
19.496
19.4959
19.4959
19.4958
19.4957
19.4956
19.4955
19.4955
19.4954
19.4953
19.4953
19.4953
19.4954
19.4954
19.5398
19.5397
19.5397
19.5397
19.5397
19.5397
19.5398
19.5399
19.54
19.54
19.5401
19.5402
19.5403
19.5404
19.5405
19.5406
19.5407
19.5407
19.5408
19.5409
19.5409
19.541
19.541
19.5411
19.5411
19.5411
19.5412
19.5412
19.5412
19.5412
19.5412
19.5412
19.5412
19.5412
19.5411
19.5411
19.5411
19.541
19.541
19.5409
19.5409
19.5408
19.5407
19.5407
19.5406
19.5405
19.5404
19.5403
19.5402
19.5401
19.54
19.54
19.5399
19.5398
19.5397
19.5397
19.5397
19.5397
19.5397
19.5398
19.583
19.583
19.5829
19.5829
19.583
19.583
19.5831
19.5831
19.5832
19.5833
19.5834
19.5835
19.5836
19.5837
19.5838
19.5839
19.584
19.584
19.5841
19.5842
19.5842
19.5843
19.5843
19.5844
19.5844
19.5845
19.5845
19.5845
19.5845
19.5845
19.5845
19.5845
19.5845
19.5845
19.5845
19.5844
19.5844
19.5843
19.5843
19.5842
19.5842
19.5841
19.584
19.584
19.5839
19.5838
19.5837
19.5836
19.5835
19.5834
19.5833
19.5832
19.5831
19.5831
19.583
19.583
19.5829
19.5829
19.583
19.583
19.6254
19.6253
19.6253
19.6253
19.6253
19.6254
19.6254
19.6255
19.6256
19.6257
19.6258
19.6259
19.626
19.6261
19.6262
19.6263
19.6263
19.6264
19.6265
19.6266
19.6266
19.6267
19.6267
19.6268
19.6268
19.6269
19.6269
19.6269
19.6269
19.6269
19.6269
19.6269
19.6269
19.6269
19.6269
19.6268
19.6268
19.6267
19.6267
19.6266
19.6266
19.6265
19.6264
19.6263
19.6263
19.6262
19.6261
19.626
19.6259
19.6258
19.6257
19.6256
19.6255
19.6254
19.6254
19.6253
19.6253
19.6253
19.6253
19.6254
19.6669
19.6669
19.6668
19.6668
19.6669
19.6669
19.667
19.6671
19.6672
19.6672
19.6673
19.6675
19.6676
19.6677
19.6678
19.6678
19.6679
19.668
19.6681
19.6682
19.6682
19.6683
19.6684
19.6684
19.6684
19.6685
19.6685
19.6685
19.6685
19.6685
19.6685
19.6685
19.6685
19.6685
19.6685
19.6684
19.6684
19.6684
19.6683
19.6682
19.6682
19.6681
19.668
19.6679
19.6678
19.6678
19.6677
19.6676
19.6675
19.6673
19.6672
19.6672
19.6671
19.667
19.6669
19.6669
19.6668
19.6668
19.6669
19.6669
19.7078
19.7078
19.7077
19.7077
19.7078
19.7078
19.7079
19.708
19.7081
19.7082
19.7083
19.7084
19.7085
19.7086
19.7087
19.7088
19.7089
19.709
19.7091
19.7091
19.7092
19.7093
19.7093
19.7094
19.7094
19.7094
19.7095
19.7095
19.7095
19.7095
19.7095
19.7095
19.7095
19.7095
19.7094
19.7094
19.7094
19.7093
19.7093
19.7092
19.7091
19.7091
19.709
19.7089
19.7088
19.7087
19.7086
19.7085
19.7084
19.7083
19.7082
19.7081
19.708
19.7079
19.7078
19.7078
19.7077
19.7077
19.7078
19.7078
19.7482
19.7481
19.7481
19.7481
19.7481
19.7482
19.7482
19.7483
19.7484
19.7485
19.7486
19.7487
19.7489
19.749
19.7491
19.7492
19.7493
19.7494
19.7494
19.7495
19.7496
19.7497
19.7497
19.7498
19.7498
19.7499
19.7499
19.7499
19.7499
19.7499
19.7499
19.7499
19.7499
19.7499
19.7499
19.7498
19.7498
19.7497
19.7497
19.7496
19.7495
19.7494
19.7494
19.7493
19.7492
19.7491
19.749
19.7489
19.7487
19.7486
19.7485
19.7484
19.7483
19.7482
19.7482
19.7481
19.7481
19.7481
19.7481
19.7482
19.788
19.788
19.788
19.788
19.788
19.7881
19.7881
19.7882
19.7883
19.7884
19.7885
19.7887
19.7888
19.7889
19.789
19.7891
19.7892
19.7893
19.7894
19.7895
19.7896
19.7896
19.7897
19.7897
19.7898
19.7898
19.7899
19.7899
19.7899
19.7899
19.7899
19.7899
19.7899
19.7899
19.7898
19.7898
19.7897
19.7897
19.7896
19.7896
19.7895
19.7894
19.7893
19.7892
19.7891
19.789
19.7889
19.7888
19.7887
19.7885
19.7884
19.7883
19.7882
19.7881
19.7881
19.788
19.788
19.788
19.788
19.788
19.8276
19.8275
19.8275
19.8275
19.8275
19.8276
19.8277
19.8277
19.8279
19.828
19.8281
19.8282
19.8283
19.8284
19.8286
19.8287
19.8288
19.8289
19.829
19.8291
19.8291
19.8292
19.8293
19.8293
19.8294
19.8294
19.8294
19.8295
19.8295
19.8295
19.8295
19.8295
19.8295
19.8294
19.8294
19.8294
19.8293
19.8293
19.8292
19.8291
19.8291
19.829
19.8289
19.8288
19.8287
19.8286
19.8284
19.8283
19.8282
19.8281
19.828
19.8279
19.8277
19.8277
19.8276
19.8275
19.8275
19.8275
19.8275
19.8276
19.8668
19.8667
19.8667
19.8667
19.8667
19.8668
19.8669
19.867
19.8671
19.8672
19.8673
19.8675
19.8676
19.8677
19.8678
19.8679
19.8681
19.8682
19.8683
19.8684
19.8684
19.8685
19.8686
19.8686
19.8687
19.8687
19.8688
19.8688
19.8688
19.8688
19.8688
19.8688
19.8688
19.8688
19.8687
19.8687
19.8686
19.8686
19.8685
19.8684
19.8684
19.8683
19.8682
19.8681
19.8679
19.8678
19.8677
19.8676
19.8675
19.8673
19.8672
19.8671
19.867
19.8669
19.8668
19.8667
19.8667
19.8667
19.8667
19.8668
19.9058
19.9057
19.9057
19.9057
19.9058
19.9058
19.9059
19.906
19.9061
19.9062
19.9064
19.9065
19.9066
19.9068
19.9069
19.907
19.9071
19.9072
19.9073
19.9074
19.9075
19.9076
19.9077
19.9077
19.9078
19.9078
19.9079
19.9079
19.9079
19.9079
19.9079
19.9079
19.9079
19.9079
19.9078
19.9078
19.9077
19.9077
19.9076
19.9075
19.9074
19.9073
19.9072
19.9071
19.907
19.9069
19.9068
19.9066
19.9065
19.9064
19.9062
19.9061
19.906
19.9059
19.9058
19.9058
19.9057
19.9057
19.9057
19.9058
19.9446
19.9446
19.9446
19.9446
19.9446
19.9447
19.9448
19.9449
19.945
19.9451
19.9453
19.9454
19.9455
19.9457
19.9458
19.9459
19.946
19.9462
19.9463
19.9464
19.9464
19.9465
19.9466
19.9467
19.9467
19.9468
19.9468
19.9468
19.9468
19.9469
19.9469
19.9468
19.9468
19.9468
19.9468
19.9467
19.9467
19.9466
19.9465
19.9464
19.9464
19.9463
19.9462
19.946
19.9459
19.9458
19.9457
19.9455
19.9454
19.9453
19.9451
19.945
19.9449
19.9448
19.9447
19.9446
19.9446
19.9446
19.9446
19.9446
19.9834
19.9834
19.9833
19.9834
19.9834
19.9835
19.9836
19.9837
19.9838
19.9839
19.9841
19.9842
19.9843
19.9845
19.9846
19.9847
19.9849
19.985
19.9851
19.9852
19.9853
19.9854
19.9855
19.9855
19.9856
19.9856
19.9857
19.9857
19.9857
19.9857
19.9857
19.9857
19.9857
19.9857
19.9856
19.9856
19.9855
19.9855
19.9854
19.9853
19.9852
19.9851
19.985
19.9849
19.9847
19.9846
19.9845
19.9843
19.9842
19.9841
19.9839
19.9838
19.9837
19.9836
19.9835
19.9834
19.9834
19.9833
19.9834
19.9834
20.0221
20.0221
20.0221
20.0221
20.0221
20.0222
20.0223
20.0224
20.0225
20.0227
20.0228
20.023
20.0231
20.0233
20.0234
20.0235
20.0237
20.0238
20.0239
20.024
20.0241
20.0242
20.0243
20.0244
20.0244
20.0245
20.0245
20.0245
20.0245
20.0246
20.0246
20.0245
20.0245
20.0245
20.0245
20.0244
20.0244
20.0243
20.0242
20.0241
20.024
20.0239
20.0238
20.0237
20.0235
20.0234
20.0233
20.0231
20.023
20.0228
20.0227
20.0225
20.0224
20.0223
20.0222
20.0221
20.0221
20.0221
20.0221
20.0221
20.0609
20.0609
20.0608
20.0609
20.0609
20.061
20.0611
20.0612
20.0613
20.0615
20.0616
20.0618
20.0619
20.0621
20.0622
20.0624
20.0625
20.0626
20.0628
20.0629
20.063
20.0631
20.0631
20.0632
20.0633
20.0633
20.0634
20.0634
20.0634
20.0634
20.0634
20.0634
20.0634
20.0634
20.0633
20.0633
20.0632
20.0631
20.0631
20.063
20.0629
20.0628
20.0626
20.0625
20.0624
20.0622
20.0621
20.0619
20.0618
20.0616
20.0615
20.0613
20.0612
20.0611
20.061
20.0609
20.0609
20.0608
20.0609
20.0609
20.0997
20.0997
20.0997
20.0997
20.0997
20.0998
20.0999
20.1
20.1002
20.1003
20.1005
20.1006
20.1008
20.101
20.1011
20.1013
20.1014
20.1015
20.1017
20.1018
20.1019
20.102
20.1021
20.1021
20.1022
20.1023
20.1023
20.1023
20.1024
20.1024
20.1024
20.1024
20.1023
20.1023
20.1023
20.1022
20.1021
20.1021
20.102
20.1019
20.1018
20.1017
20.1015
20.1014
20.1013
20.1011
20.101
20.1008
20.1006
20.1005
20.1003
20.1002
20.1
20.0999
20.0998
20.0997
20.0997
20.0997
20.0997
20.0997
20.1387
20.1386
20.1386
20.1387
20.1387
20.1388
20.1389
20.139
20.1392
20.1393
20.1395
20.1397
20.1398
20.14
20.1401
20.1403
20.1404
20.1406
20.1407
20.1408
20.1409
20.141
20.1411
20.1412
20.1413
20.1413
20.1414
20.1414
20.1414
20.1414
20.1414
20.1414
20.1414
20.1414
20.1413
20.1413
20.1412
20.1411
20.141
20.1409
20.1408
20.1407
20.1406
20.1404
20.1403
20.1401
20.14
20.1398
20.1397
20.1395
20.1393
20.1392
20.139
20.1389
20.1388
20.1387
20.1387
20.1386
20.1386
20.1387
20.1778
20.1778
20.1778
20.1778
20.1778
20.1779
20.178
20.1782
20.1783
20.1785
20.1787
20.1788
20.179
20.1792
20.1793
20.1795
20.1796
20.1798
20.1799
20.1801
20.1802
20.1803
20.1804
20.1804
20.1805
20.1806
20.1806
20.1806
20.1807
20.1807
20.1807
20.1807
20.1806
20.1806
20.1806
20.1805
20.1804
20.1804
20.1803
20.1802
20.1801
20.1799
20.1798
20.1796
20.1795
20.1793
20.1792
20.179
20.1788
20.1787
20.1785
20.1783
20.1782
20.178
20.1779
20.1778
20.1778
20.1778
20.1778
20.1778
20.2171
20.2171
20.2171
20.2171
20.2172
20.2173
20.2174
20.2175
20.2177
20.2179
20.218
20.2182
20.2184
20.2186
20.2187
20.2189
20.2191
20.2192
20.2194
20.2195