/*--------------------------------*- C++ -*----------------------------------*\
| =========                 |                                                 |
| \\      /  F ield         | foam-extend: Open Source CFD                    |
|  \\    /   O peration     | Version:     4.0                                |
|   \\  /    A nd           | Web:         http://www.foam-extend.org         |
|    \\/     M anipulation  |                                                 |
\*---------------------------------------------------------------------------*/
FoamFile
{
    version     2.0;
    format      ascii;
    class       volScalarField;
    location    "1380";
    object      cMinus;
}
// * * * * * * * * * * * * * * * * * * * * * * * * * * * * * * * * * * * * * //

dimensions      [0 0 0 0 0 0 0];

internalField   nonuniform List<scalar> 
6960
(
3.49801e-22
3.49682e-22
3.49278e-22
3.48924e-22
3.48646e-22
3.48437e-22
3.48281e-22
3.48165e-22
3.4808e-22
3.48016e-22
3.47967e-22
3.47931e-22
3.47903e-22
3.47881e-22
3.47864e-22
3.47851e-22
3.47841e-22
3.47832e-22
3.47826e-22
3.47821e-22
3.47817e-22
3.47814e-22
3.47811e-22
3.47809e-22
3.47808e-22
3.47807e-22
3.47806e-22
3.47805e-22
3.47805e-22
3.47805e-22
3.47805e-22
3.47805e-22
3.47805e-22
3.47806e-22
3.47807e-22
3.47808e-22
3.47809e-22
3.47811e-22
3.47814e-22
3.47817e-22
3.47821e-22
3.47826e-22
3.47832e-22
3.47841e-22
3.47851e-22
3.47864e-22
3.47881e-22
3.47903e-22
3.47931e-22
3.47967e-22
3.48016e-22
3.4808e-22
3.48165e-22
3.48281e-22
3.48437e-22
3.48646e-22
3.48924e-22
3.49278e-22
3.49682e-22
3.49801e-22
1.51573e-21
1.51557e-21
1.51417e-21
1.5129e-21
1.51189e-21
1.51113e-21
1.51055e-21
1.51011e-21
1.50979e-21
1.50954e-21
1.50936e-21
1.50921e-21
1.5091e-21
1.50902e-21
1.50895e-21
1.5089e-21
1.50885e-21
1.50882e-21
1.50879e-21
1.50877e-21
1.50876e-21
1.50874e-21
1.50873e-21
1.50873e-21
1.50872e-21
1.50871e-21
1.50871e-21
1.50871e-21
1.50871e-21
1.50871e-21
1.50871e-21
1.50871e-21
1.50871e-21
1.50871e-21
1.50871e-21
1.50872e-21
1.50873e-21
1.50873e-21
1.50874e-21
1.50876e-21
1.50877e-21
1.50879e-21
1.50882e-21
1.50885e-21
1.5089e-21
1.50895e-21
1.50902e-21
1.5091e-21
1.50921e-21
1.50936e-21
1.50954e-21
1.50979e-21
1.51011e-21
1.51055e-21
1.51113e-21
1.51189e-21
1.5129e-21
1.51417e-21
1.51557e-21
1.51573e-21
6.18173e-21
6.18282e-21
6.1787e-21
6.17478e-21
6.1716e-21
6.16912e-21
6.16721e-21
6.16576e-21
6.16465e-21
6.1638e-21
6.16314e-21
6.16263e-21
6.16223e-21
6.16191e-21
6.16166e-21
6.16147e-21
6.16131e-21
6.16118e-21
6.16108e-21
6.16101e-21
6.16094e-21
6.16089e-21
6.16086e-21
6.16083e-21
6.1608e-21
6.16079e-21
6.16078e-21
6.16077e-21
6.16076e-21
6.16076e-21
6.16076e-21
6.16076e-21
6.16077e-21
6.16078e-21
6.16079e-21
6.1608e-21
6.16083e-21
6.16086e-21
6.16089e-21
6.16094e-21
6.16101e-21
6.16108e-21
6.16118e-21
6.16131e-21
6.16147e-21
6.16166e-21
6.16191e-21
6.16223e-21
6.16263e-21
6.16314e-21
6.1638e-21
6.16465e-21
6.16576e-21
6.16721e-21
6.16912e-21
6.1716e-21
6.17478e-21
6.1787e-21
6.18282e-21
6.18173e-21
2.54816e-20
2.54936e-20
2.54838e-20
2.54732e-20
2.54642e-20
2.54569e-20
2.54511e-20
2.54465e-20
2.54429e-20
2.544e-20
2.54378e-20
2.5436e-20
2.54346e-20
2.54334e-20
2.54325e-20
2.54318e-20
2.54312e-20
2.54307e-20
2.54303e-20
2.543e-20
2.54298e-20
2.54296e-20
2.54295e-20
2.54294e-20
2.54293e-20
2.54292e-20
2.54292e-20
2.54292e-20
2.54291e-20
2.54291e-20
2.54291e-20
2.54291e-20
2.54292e-20
2.54292e-20
2.54292e-20
2.54293e-20
2.54294e-20
2.54295e-20
2.54296e-20
2.54298e-20
2.543e-20
2.54303e-20
2.54307e-20
2.54312e-20
2.54318e-20
2.54325e-20
2.54334e-20
2.54346e-20
2.5436e-20
2.54378e-20
2.544e-20
2.54429e-20
2.54465e-20
2.54511e-20
2.54569e-20
2.54642e-20
2.54732e-20
2.54838e-20
2.54936e-20
2.54816e-20
1.08027e-19
1.08111e-19
1.08101e-19
1.08081e-19
1.08061e-19
1.08043e-19
1.08027e-19
1.08014e-19
1.08003e-19
1.07994e-19
1.07986e-19
1.0798e-19
1.07975e-19
1.07971e-19
1.07967e-19
1.07965e-19
1.07962e-19
1.07961e-19
1.07959e-19
1.07958e-19
1.07957e-19
1.07957e-19
1.07956e-19
1.07956e-19
1.07955e-19
1.07955e-19
1.07955e-19
1.07955e-19
1.07955e-19
1.07955e-19
1.07955e-19
1.07955e-19
1.07955e-19
1.07955e-19
1.07955e-19
1.07955e-19
1.07956e-19
1.07956e-19
1.07957e-19
1.07957e-19
1.07958e-19
1.07959e-19
1.07961e-19
1.07962e-19
1.07965e-19
1.07967e-19
1.07971e-19
1.07975e-19
1.0798e-19
1.07986e-19
1.07994e-19
1.08003e-19
1.08014e-19
1.08027e-19
1.08043e-19
1.08061e-19
1.08081e-19
1.08101e-19
1.08111e-19
1.08027e-19
4.7303e-19
4.73548e-19
4.73646e-19
4.7367e-19
4.73663e-19
4.73642e-19
4.73614e-19
4.73584e-19
4.73555e-19
4.73528e-19
4.73505e-19
4.73484e-19
4.73467e-19
4.73452e-19
4.73439e-19
4.73429e-19
4.73421e-19
4.73414e-19
4.73408e-19
4.73404e-19
4.73401e-19
4.73398e-19
4.73396e-19
4.73394e-19
4.73393e-19
4.73392e-19
4.73391e-19
4.73391e-19
4.73391e-19
4.73391e-19
4.73391e-19
4.73391e-19
4.73391e-19
4.73391e-19
4.73392e-19
4.73393e-19
4.73394e-19
4.73396e-19
4.73398e-19
4.73401e-19
4.73404e-19
4.73408e-19
4.73414e-19
4.73421e-19
4.73429e-19
4.73439e-19
4.73452e-19
4.73467e-19
4.73484e-19
4.73505e-19
4.73528e-19
4.73555e-19
4.73584e-19
4.73614e-19
4.73642e-19
4.73663e-19
4.7367e-19
4.73646e-19
4.73548e-19
4.7303e-19
2.14121e-18
2.14424e-18
2.14534e-18
2.14596e-18
2.14631e-18
2.14649e-18
2.14655e-18
2.14654e-18
2.1465e-18
2.14644e-18
2.14638e-18
2.14632e-18
2.14626e-18
2.14621e-18
2.14616e-18
2.14612e-18
2.14609e-18
2.14606e-18
2.14604e-18
2.14603e-18
2.14601e-18
2.146e-18
2.14599e-18
2.14599e-18
2.14598e-18
2.14598e-18
2.14598e-18
2.14597e-18
2.14597e-18
2.14597e-18
2.14597e-18
2.14597e-18
2.14597e-18
2.14598e-18
2.14598e-18
2.14598e-18
2.14599e-18
2.14599e-18
2.146e-18
2.14601e-18
2.14603e-18
2.14604e-18
2.14606e-18
2.14609e-18
2.14612e-18
2.14616e-18
2.14621e-18
2.14626e-18
2.14632e-18
2.14638e-18
2.14644e-18
2.1465e-18
2.14654e-18
2.14655e-18
2.14649e-18
2.14631e-18
2.14596e-18
2.14534e-18
2.14424e-18
2.14121e-18
1.00173e-17
1.00347e-17
1.0043e-17
1.00484e-17
1.00518e-17
1.00539e-17
1.00551e-17
1.00557e-17
1.0056e-17
1.0056e-17
1.00559e-17
1.00558e-17
1.00556e-17
1.00554e-17
1.00553e-17
1.00551e-17
1.0055e-17
1.00549e-17
1.00548e-17
1.00547e-17
1.00547e-17
1.00546e-17
1.00546e-17
1.00546e-17
1.00546e-17
1.00546e-17
1.00545e-17
1.00545e-17
1.00545e-17
1.00545e-17
1.00545e-17
1.00545e-17
1.00545e-17
1.00545e-17
1.00546e-17
1.00546e-17
1.00546e-17
1.00546e-17
1.00546e-17
1.00547e-17
1.00547e-17
1.00548e-17
1.00549e-17
1.0055e-17
1.00551e-17
1.00553e-17
1.00554e-17
1.00556e-17
1.00558e-17
1.00559e-17
1.0056e-17
1.0056e-17
1.00557e-17
1.00551e-17
1.00539e-17
1.00518e-17
1.00484e-17
1.0043e-17
1.00347e-17
1.00173e-17
4.84027e-17
4.85025e-17
4.8558e-17
4.8596e-17
4.86216e-17
4.86381e-17
4.86483e-17
4.86543e-17
4.86576e-17
4.86591e-17
4.86597e-17
4.86596e-17
4.86593e-17
4.86588e-17
4.86583e-17
4.86578e-17
4.86574e-17
4.8657e-17
4.86567e-17
4.86564e-17
4.86562e-17
4.86561e-17
4.86559e-17
4.86558e-17
4.86558e-17
4.86557e-17
4.86557e-17
4.86557e-17
4.86557e-17
4.86557e-17
4.86557e-17
4.86557e-17
4.86557e-17
4.86557e-17
4.86557e-17
4.86558e-17
4.86558e-17
4.86559e-17
4.86561e-17
4.86562e-17
4.86564e-17
4.86567e-17
4.8657e-17
4.86574e-17
4.86578e-17
4.86583e-17
4.86588e-17
4.86593e-17
4.86596e-17
4.86597e-17
4.86591e-17
4.86576e-17
4.86543e-17
4.86483e-17
4.86381e-17
4.86216e-17
4.8596e-17
4.8558e-17
4.85025e-17
4.84027e-17
2.41295e-16
2.41872e-16
2.42226e-16
2.42477e-16
2.42649e-16
2.42763e-16
2.42837e-16
2.42882e-16
2.42909e-16
2.42924e-16
2.42932e-16
2.42936e-16
2.42937e-16
2.42936e-16
2.42935e-16
2.42933e-16
2.42932e-16
2.42931e-16
2.42929e-16
2.42928e-16
2.42928e-16
2.42927e-16
2.42927e-16
2.42926e-16
2.42926e-16
2.42926e-16
2.42926e-16
2.42926e-16
2.42926e-16
2.42926e-16
2.42926e-16
2.42926e-16
2.42926e-16
2.42926e-16
2.42926e-16
2.42926e-16
2.42926e-16
2.42927e-16
2.42927e-16
2.42928e-16
2.42928e-16
2.42929e-16
2.42931e-16
2.42932e-16
2.42933e-16
2.42935e-16
2.42936e-16
2.42937e-16
2.42936e-16
2.42932e-16
2.42924e-16
2.42909e-16
2.42882e-16
2.42837e-16
2.42763e-16
2.42649e-16
2.42477e-16
2.42226e-16
2.41872e-16
2.41295e-16
1.23922e-15
1.24259e-15
1.24481e-15
1.24642e-15
1.24753e-15
1.24829e-15
1.24878e-15
1.24909e-15
1.24929e-15
1.2494e-15
1.24947e-15
1.24951e-15
1.24952e-15
1.24953e-15
1.24953e-15
1.24953e-15
1.24953e-15
1.24952e-15
1.24952e-15
1.24951e-15
1.24951e-15
1.24951e-15
1.24951e-15
1.24951e-15
1.24951e-15
1.24951e-15
1.24951e-15
1.24951e-15
1.24951e-15
1.24951e-15
1.24951e-15
1.24951e-15
1.24951e-15
1.24951e-15
1.24951e-15
1.24951e-15
1.24951e-15
1.24951e-15
1.24951e-15
1.24951e-15
1.24951e-15
1.24952e-15
1.24952e-15
1.24953e-15
1.24953e-15
1.24953e-15
1.24953e-15
1.24952e-15
1.24951e-15
1.24947e-15
1.2494e-15
1.24929e-15
1.24909e-15
1.24878e-15
1.24829e-15
1.24753e-15
1.24642e-15
1.24481e-15
1.24259e-15
1.23922e-15
6.54374e-15
6.56369e-15
6.57752e-15
6.58765e-15
6.59478e-15
6.59963e-15
6.60285e-15
6.60494e-15
6.60626e-15
6.60708e-15
6.60757e-15
6.60787e-15
6.60803e-15
6.60812e-15
6.60816e-15
6.60817e-15
6.60817e-15
6.60816e-15
6.60815e-15
6.60815e-15
6.60814e-15
6.60813e-15
6.60813e-15
6.60813e-15
6.60813e-15
6.60813e-15
6.60813e-15
6.60813e-15
6.60813e-15
6.60813e-15
6.60813e-15
6.60813e-15
6.60813e-15
6.60813e-15
6.60813e-15
6.60813e-15
6.60813e-15
6.60813e-15
6.60813e-15
6.60814e-15
6.60815e-15
6.60815e-15
6.60816e-15
6.60817e-15
6.60817e-15
6.60816e-15
6.60812e-15
6.60803e-15
6.60787e-15
6.60757e-15
6.60708e-15
6.60626e-15
6.60494e-15
6.60285e-15
6.59963e-15
6.59478e-15
6.58765e-15
6.57752e-15
6.56369e-15
6.54374e-15
3.544e-14
3.55596e-14
3.56459e-14
3.57097e-14
3.57549e-14
3.5786e-14
3.58067e-14
3.58203e-14
3.58291e-14
3.58346e-14
3.58381e-14
3.58402e-14
3.58414e-14
3.58422e-14
3.58426e-14
3.58428e-14
3.58429e-14
3.5843e-14
3.5843e-14
3.5843e-14
3.5843e-14
3.5843e-14
3.5843e-14
3.5843e-14
3.5843e-14
3.5843e-14
3.5843e-14
3.58431e-14
3.58431e-14
3.58431e-14
3.58431e-14
3.58431e-14
3.58431e-14
3.5843e-14
3.5843e-14
3.5843e-14
3.5843e-14
3.5843e-14
3.5843e-14
3.5843e-14
3.5843e-14
3.5843e-14
3.5843e-14
3.58429e-14
3.58428e-14
3.58426e-14
3.58422e-14
3.58414e-14
3.58402e-14
3.58381e-14
3.58346e-14
3.58291e-14
3.58203e-14
3.58067e-14
3.5786e-14
3.57549e-14
3.57097e-14
3.56459e-14
3.55596e-14
3.544e-14
1.96242e-13
1.96968e-13
1.97508e-13
1.9791e-13
1.98196e-13
1.98394e-13
1.98527e-13
1.98615e-13
1.98672e-13
1.98709e-13
1.98732e-13
1.98747e-13
1.98756e-13
1.98761e-13
1.98765e-13
1.98767e-13
1.98768e-13
1.98769e-13
1.98769e-13
1.98769e-13
1.9877e-13
1.9877e-13
1.9877e-13
1.9877e-13
1.9877e-13
1.9877e-13
1.9877e-13
1.98771e-13
1.98771e-13
1.98771e-13
1.98771e-13
1.98771e-13
1.98771e-13
1.9877e-13
1.9877e-13
1.9877e-13
1.9877e-13
1.9877e-13
1.9877e-13
1.9877e-13
1.98769e-13
1.98769e-13
1.98769e-13
1.98768e-13
1.98767e-13
1.98765e-13
1.98761e-13
1.98756e-13
1.98747e-13
1.98732e-13
1.98709e-13
1.98672e-13
1.98615e-13
1.98527e-13
1.98394e-13
1.98196e-13
1.9791e-13
1.97508e-13
1.96968e-13
1.96242e-13
1.10675e-12
1.11118e-12
1.11457e-12
1.11711e-12
1.11892e-12
1.12018e-12
1.12103e-12
1.12159e-12
1.12196e-12
1.1222e-12
1.12236e-12
1.12245e-12
1.12252e-12
1.12256e-12
1.12258e-12
1.1226e-12
1.12261e-12
1.12262e-12
1.12262e-12
1.12262e-12
1.12263e-12
1.12263e-12
1.12263e-12
1.12263e-12
1.12263e-12
1.12263e-12
1.12263e-12
1.12263e-12
1.12264e-12
1.12264e-12
1.12264e-12
1.12264e-12
1.12263e-12
1.12263e-12
1.12263e-12
1.12263e-12
1.12263e-12
1.12263e-12
1.12263e-12
1.12263e-12
1.12262e-12
1.12262e-12
1.12262e-12
1.12261e-12
1.1226e-12
1.12258e-12
1.12256e-12
1.12252e-12
1.12245e-12
1.12236e-12
1.1222e-12
1.12196e-12
1.12159e-12
1.12103e-12
1.12018e-12
1.11892e-12
1.11711e-12
1.11457e-12
1.11118e-12
1.10675e-12
6.32754e-12
6.35479e-12
6.37602e-12
6.39199e-12
6.40344e-12
6.4114e-12
6.4168e-12
6.42041e-12
6.42279e-12
6.42435e-12
6.42536e-12
6.42602e-12
6.42644e-12
6.42672e-12
6.42689e-12
6.42701e-12
6.42709e-12
6.42714e-12
6.42718e-12
6.4272e-12
6.42723e-12
6.42724e-12
6.42726e-12
6.42727e-12
6.42728e-12
6.42729e-12
6.42729e-12
6.4273e-12
6.4273e-12
6.4273e-12
6.4273e-12
6.4273e-12
6.4273e-12
6.42729e-12
6.42729e-12
6.42728e-12
6.42727e-12
6.42726e-12
6.42724e-12
6.42723e-12
6.4272e-12
6.42718e-12
6.42714e-12
6.42709e-12
6.42701e-12
6.42689e-12
6.42672e-12
6.42644e-12
6.42602e-12
6.42536e-12
6.42435e-12
6.42279e-12
6.42041e-12
6.4168e-12
6.4114e-12
6.40344e-12
6.39199e-12
6.37602e-12
6.35479e-12
6.32754e-12
3.64696e-11
3.66371e-11
3.67696e-11
3.68696e-11
3.69415e-11
3.69915e-11
3.70257e-11
3.70485e-11
3.70637e-11
3.70737e-11
3.70802e-11
3.70845e-11
3.70873e-11
3.70891e-11
3.70903e-11
3.70911e-11
3.70917e-11
3.70921e-11
3.70923e-11
3.70925e-11
3.70927e-11
3.70928e-11
3.70929e-11
3.7093e-11
3.70931e-11
3.70932e-11
3.70932e-11
3.70932e-11
3.70933e-11
3.70933e-11
3.70933e-11
3.70933e-11
3.70932e-11
3.70932e-11
3.70932e-11
3.70931e-11
3.7093e-11
3.70929e-11
3.70928e-11
3.70927e-11
3.70925e-11
3.70923e-11
3.70921e-11
3.70917e-11
3.70911e-11
3.70903e-11
3.70891e-11
3.70873e-11
3.70845e-11
3.70802e-11
3.70737e-11
3.70637e-11
3.70485e-11
3.70257e-11
3.69915e-11
3.69415e-11
3.68696e-11
3.67696e-11
3.66371e-11
3.64696e-11
2.10522e-10
2.11544e-10
2.12362e-10
2.12982e-10
2.13428e-10
2.1374e-10
2.13952e-10
2.14095e-10
2.14191e-10
2.14254e-10
2.14295e-10
2.14322e-10
2.1434e-10
2.14352e-10
2.1436e-10
2.14366e-10
2.1437e-10
2.14372e-10
2.14374e-10
2.14376e-10
2.14377e-10
2.14378e-10
2.14378e-10
2.14379e-10
2.14379e-10
2.1438e-10
2.1438e-10
2.1438e-10
2.14381e-10
2.14381e-10
2.14381e-10
2.14381e-10
2.1438e-10
2.1438e-10
2.1438e-10
2.14379e-10
2.14379e-10
2.14378e-10
2.14378e-10
2.14377e-10
2.14376e-10
2.14374e-10
2.14372e-10
2.1437e-10
2.14366e-10
2.1436e-10
2.14352e-10
2.1434e-10
2.14322e-10
2.14295e-10
2.14254e-10
2.14191e-10
2.14095e-10
2.13952e-10
2.1374e-10
2.13428e-10
2.12982e-10
2.12362e-10
2.11544e-10
2.10522e-10
1.20793e-09
1.21407e-09
1.21905e-09
1.22282e-09
1.22554e-09
1.22744e-09
1.22874e-09
1.22962e-09
1.23021e-09
1.23059e-09
1.23085e-09
1.23102e-09
1.23114e-09
1.23121e-09
1.23126e-09
1.2313e-09
1.23132e-09
1.23134e-09
1.23135e-09
1.23136e-09
1.23137e-09
1.23138e-09
1.23138e-09
1.23139e-09
1.23139e-09
1.23139e-09
1.23139e-09
1.23139e-09
1.2314e-09
1.2314e-09
1.2314e-09
1.2314e-09
1.23139e-09
1.23139e-09
1.23139e-09
1.23139e-09
1.23139e-09
1.23138e-09
1.23138e-09
1.23137e-09
1.23136e-09
1.23135e-09
1.23134e-09
1.23132e-09
1.2313e-09
1.23126e-09
1.23121e-09
1.23114e-09
1.23102e-09
1.23085e-09
1.23059e-09
1.23021e-09
1.22962e-09
1.22874e-09
1.22744e-09
1.22554e-09
1.22282e-09
1.21905e-09
1.21407e-09
1.20793e-09
6.82979e-09
6.86589e-09
6.89534e-09
6.9177e-09
6.93384e-09
6.94514e-09
6.95289e-09
6.95812e-09
6.96163e-09
6.96396e-09
6.96551e-09
6.96655e-09
6.96724e-09
6.9677e-09
6.96802e-09
6.96824e-09
6.9684e-09
6.96851e-09
6.96859e-09
6.96865e-09
6.9687e-09
6.96874e-09
6.96877e-09
6.96879e-09
6.96881e-09
6.96883e-09
6.96884e-09
6.96885e-09
6.96886e-09
6.96886e-09
6.96886e-09
6.96886e-09
6.96885e-09
6.96884e-09
6.96883e-09
6.96881e-09
6.96879e-09
6.96877e-09
6.96874e-09
6.9687e-09
6.96865e-09
6.96859e-09
6.96851e-09
6.9684e-09
6.96824e-09
6.96802e-09
6.9677e-09
6.96724e-09
6.96655e-09
6.96551e-09
6.96396e-09
6.96163e-09
6.95812e-09
6.95289e-09
6.94514e-09
6.93384e-09
6.9177e-09
6.89534e-09
6.86589e-09
6.82979e-09
3.76846e-08
3.78897e-08
3.8058e-08
3.81859e-08
3.82783e-08
3.8343e-08
3.83875e-08
3.84176e-08
3.84378e-08
3.84513e-08
3.84603e-08
3.84663e-08
3.84703e-08
3.84731e-08
3.84749e-08
3.84762e-08
3.84772e-08
3.84778e-08
3.84783e-08
3.84787e-08
3.8479e-08
3.84792e-08
3.84794e-08
3.84796e-08
3.84797e-08
3.84798e-08
3.84799e-08
3.84799e-08
3.848e-08
3.848e-08
3.848e-08
3.848e-08
3.84799e-08
3.84799e-08
3.84798e-08
3.84797e-08
3.84796e-08
3.84794e-08
3.84792e-08
3.8479e-08
3.84787e-08
3.84783e-08
3.84778e-08
3.84772e-08
3.84762e-08
3.84749e-08
3.84731e-08
3.84703e-08
3.84663e-08
3.84603e-08
3.84513e-08
3.84378e-08
3.84176e-08
3.83875e-08
3.8343e-08
3.82783e-08
3.81859e-08
3.8058e-08
3.78897e-08
3.76846e-08
2.00729e-07
2.01844e-07
2.02762e-07
2.0346e-07
2.03964e-07
2.04318e-07
2.04561e-07
2.04726e-07
2.04837e-07
2.04911e-07
2.04961e-07
2.04994e-07
2.05017e-07
2.05032e-07
2.05042e-07
2.0505e-07
2.05055e-07
2.05059e-07
2.05062e-07
2.05064e-07
2.05065e-07
2.05067e-07
2.05068e-07
2.05069e-07
2.05069e-07
2.0507e-07
2.0507e-07
2.05071e-07
2.05071e-07
2.05071e-07
2.05071e-07
2.05071e-07
2.05071e-07
2.0507e-07
2.0507e-07
2.05069e-07
2.05069e-07
2.05068e-07
2.05067e-07
2.05065e-07
2.05064e-07
2.05062e-07
2.05059e-07
2.05055e-07
2.0505e-07
2.05042e-07
2.05032e-07
2.05017e-07
2.04994e-07
2.04961e-07
2.04911e-07
2.04837e-07
2.04726e-07
2.04561e-07
2.04318e-07
2.03964e-07
2.0346e-07
2.02762e-07
2.01844e-07
2.00729e-07
1.01998e-06
1.0257e-06
1.03042e-06
1.034e-06
1.0366e-06
1.03842e-06
1.03967e-06
1.04052e-06
1.04109e-06
1.04148e-06
1.04174e-06
1.04191e-06
1.04203e-06
1.04211e-06
1.04216e-06
1.0422e-06
1.04223e-06
1.04225e-06
1.04226e-06
1.04228e-06
1.04228e-06
1.04229e-06
1.0423e-06
1.0423e-06
1.04231e-06
1.04231e-06
1.04231e-06
1.04231e-06
1.04231e-06
1.04231e-06
1.04231e-06
1.04231e-06
1.04231e-06
1.04231e-06
1.04231e-06
1.04231e-06
1.0423e-06
1.0423e-06
1.04229e-06
1.04228e-06
1.04228e-06
1.04226e-06
1.04225e-06
1.04223e-06
1.0422e-06
1.04216e-06
1.04211e-06
1.04203e-06
1.04191e-06
1.04174e-06
1.04148e-06
1.04109e-06
1.04052e-06
1.03967e-06
1.03842e-06
1.0366e-06
1.034e-06
1.03042e-06
1.0257e-06
1.01998e-06
4.88082e-06
4.90815e-06
4.93069e-06
4.94782e-06
4.96021e-06
4.96891e-06
4.97491e-06
4.97898e-06
4.98173e-06
4.98357e-06
4.98481e-06
4.98565e-06
4.98622e-06
4.98661e-06
4.98688e-06
4.98707e-06
4.98721e-06
4.98731e-06
4.98738e-06
4.98744e-06
4.98748e-06
4.98752e-06
4.98755e-06
4.98757e-06
4.98759e-06
4.9876e-06
4.98761e-06
4.98762e-06
4.98763e-06
4.98763e-06
4.98763e-06
4.98763e-06
4.98762e-06
4.98761e-06
4.9876e-06
4.98759e-06
4.98757e-06
4.98755e-06
4.98752e-06
4.98748e-06
4.98744e-06
4.98738e-06
4.98731e-06
4.98721e-06
4.98707e-06
4.98688e-06
4.98661e-06
4.98622e-06
4.98565e-06
4.98481e-06
4.98357e-06
4.98173e-06
4.97898e-06
4.97491e-06
4.96891e-06
4.96021e-06
4.94782e-06
4.93069e-06
4.90815e-06
4.88082e-06
2.16896e-05
2.18093e-05
2.19078e-05
2.19827e-05
2.20368e-05
2.20749e-05
2.21011e-05
2.2119e-05
2.2131e-05
2.21391e-05
2.21446e-05
2.21483e-05
2.21508e-05
2.21525e-05
2.21537e-05
2.21546e-05
2.21552e-05
2.21556e-05
2.21559e-05
2.21562e-05
2.21564e-05
2.21566e-05
2.21567e-05
2.21568e-05
2.21569e-05
2.21569e-05
2.2157e-05
2.2157e-05
2.21571e-05
2.21571e-05
2.21571e-05
2.21571e-05
2.2157e-05
2.2157e-05
2.21569e-05
2.21569e-05
2.21568e-05
2.21567e-05
2.21566e-05
2.21564e-05
2.21562e-05
2.21559e-05
2.21556e-05
2.21552e-05
2.21546e-05
2.21537e-05
2.21525e-05
2.21508e-05
2.21483e-05
2.21446e-05
2.21391e-05
2.2131e-05
2.2119e-05
2.21011e-05
2.20749e-05
2.20368e-05
2.19827e-05
2.19078e-05
2.18093e-05
2.16896e-05
8.81718e-05
8.86441e-05
8.90319e-05
8.9326e-05
8.95388e-05
8.96884e-05
8.97916e-05
8.98619e-05
8.99093e-05
8.99413e-05
8.99629e-05
8.99775e-05
8.99875e-05
8.99944e-05
8.99992e-05
9.00026e-05
9.0005e-05
9.00068e-05
9.00082e-05
9.00092e-05
9.001e-05
9.00106e-05
9.00111e-05
9.00116e-05
9.00119e-05
9.00122e-05
9.00124e-05
9.00125e-05
9.00126e-05
9.00127e-05
9.00127e-05
9.00126e-05
9.00125e-05
9.00124e-05
9.00122e-05
9.00119e-05
9.00116e-05
9.00111e-05
9.00106e-05
9.001e-05
9.00092e-05
9.00082e-05
9.00068e-05
9.0005e-05
9.00026e-05
8.99992e-05
8.99944e-05
8.99875e-05
8.99775e-05
8.99629e-05
8.99413e-05
8.99093e-05
8.98619e-05
8.97916e-05
8.96884e-05
8.95388e-05
8.9326e-05
8.90319e-05
8.86441e-05
8.81718e-05
0.00032264
0.000324286
0.000325632
0.000326652
0.00032739
0.000327908
0.000328266
0.00032851
0.000328675
0.000328787
0.000328862
0.000328913
0.000328948
0.000328972
0.000328989
0.000329001
0.000329009
0.000329016
0.000329021
0.000329024
0.000329027
0.000329029
0.000329031
0.000329033
0.000329034
0.000329035
0.000329036
0.000329036
0.000329036
0.000329037
0.000329037
0.000329036
0.000329036
0.000329036
0.000329035
0.000329034
0.000329033
0.000329031
0.000329029
0.000329027
0.000329024
0.000329021
0.000329016
0.000329009
0.000329001
0.000328989
0.000328972
0.000328948
0.000328913
0.000328862
0.000328787
0.000328675
0.00032851
0.000328266
0.000327908
0.00032739
0.000326652
0.000325632
0.000324286
0.00032264
0.00104484
0.0010498
0.00105384
0.00105689
0.0010591
0.00106066
0.00106173
0.00106246
0.00106296
0.00106329
0.00106352
0.00106367
0.00106378
0.00106385
0.0010639
0.00106394
0.00106396
0.00106398
0.001064
0.00106401
0.00106402
0.00106402
0.00106403
0.00106403
0.00106404
0.00106404
0.00106404
0.00106404
0.00106404
0.00106405
0.00106405
0.00106404
0.00106404
0.00106404
0.00106404
0.00106404
0.00106403
0.00106403
0.00106402
0.00106402
0.00106401
0.001064
0.00106398
0.00106396
0.00106394
0.0010639
0.00106385
0.00106378
0.00106367
0.00106352
0.00106329
0.00106296
0.00106246
0.00106173
0.00106066
0.0010591
0.00105689
0.00105384
0.0010498
0.00104484
0.0029452
0.00295787
0.00296811
0.00297584
0.00298143
0.00298536
0.00298808
0.00298993
0.00299119
0.00299204
0.00299261
0.002993
0.00299327
0.00299346
0.00299359
0.00299368
0.00299375
0.0029938
0.00299384
0.00299387
0.00299389
0.00299391
0.00299392
0.00299394
0.00299394
0.00299395
0.00299396
0.00299396
0.00299396
0.00299397
0.00299397
0.00299396
0.00299396
0.00299396
0.00299395
0.00299394
0.00299394
0.00299392
0.00299391
0.00299389
0.00299387
0.00299384
0.0029938
0.00299375
0.00299368
0.00299359
0.00299346
0.00299327
0.002993
0.00299261
0.00299204
0.00299119
0.00298993
0.00298808
0.00298536
0.00298143
0.00297584
0.00296811
0.00295787
0.0029452
0.00713029
0.0071572
0.00717879
0.00719505
0.0072068
0.00721507
0.00722078
0.00722469
0.00722734
0.00722913
0.00723035
0.00723118
0.00723175
0.00723214
0.00723242
0.00723262
0.00723277
0.00723287
0.00723295
0.00723302
0.00723307
0.0072331
0.00723313
0.00723316
0.00723318
0.00723319
0.00723321
0.00723321
0.00723322
0.00723322
0.00723322
0.00723322
0.00723321
0.00723321
0.00723319
0.00723318
0.00723316
0.00723313
0.0072331
0.00723307
0.00723302
0.00723295
0.00723287
0.00723277
0.00723262
0.00723242
0.00723214
0.00723175
0.00723118
0.00723035
0.00722913
0.00722734
0.00722469
0.00722078
0.00721507
0.0072068
0.00719505
0.00717879
0.0071572
0.00713029
0.0147447
0.014792
0.0148296
0.0148578
0.0148783
0.0148926
0.0149026
0.0149094
0.014914
0.0149171
0.0149193
0.0149207
0.0149217
0.0149224
0.0149229
0.0149232
0.0149235
0.0149237
0.0149238
0.0149239
0.014924
0.0149241
0.0149242
0.0149242
0.0149242
0.0149243
0.0149243
0.0149243
0.0149243
0.0149243
0.0149243
0.0149243
0.0149243
0.0149243
0.0149243
0.0149242
0.0149242
0.0149242
0.0149241
0.014924
0.0149239
0.0149238
0.0149237
0.0149235
0.0149232
0.0149229
0.0149224
0.0149217
0.0149207
0.0149193
0.0149171
0.014914
0.0149094
0.0149026
0.0148926
0.0148783
0.0148578
0.0148296
0.014792
0.0147447
0.0262179
0.0262878
0.0263428
0.026384
0.0264138
0.0264347
0.0264492
0.0264592
0.0264659
0.0264705
0.0264737
0.0264758
0.0264773
0.0264783
0.026479
0.0264796
0.0264799
0.0264802
0.0264804
0.0264806
0.0264807
0.0264808
0.0264809
0.026481
0.026481
0.0264811
0.0264811
0.0264811
0.0264811
0.0264811
0.0264811
0.0264811
0.0264811
0.0264811
0.0264811
0.026481
0.026481
0.0264809
0.0264808
0.0264807
0.0264806
0.0264804
0.0264802
0.0264799
0.0264796
0.026479
0.0264783
0.0264773
0.0264758
0.0264737
0.0264705
0.0264659
0.0264592
0.0264492
0.0264347
0.0264138
0.026384
0.0263428
0.0262878
0.0262179
0.0408717
0.0409614
0.0410313
0.0410836
0.0411214
0.041148
0.0411664
0.0411791
0.0411877
0.0411936
0.0411976
0.0412003
0.0412022
0.0412036
0.0412045
0.0412052
0.0412057
0.041206
0.0412063
0.0412065
0.0412067
0.0412068
0.0412069
0.041207
0.0412071
0.0412071
0.0412071
0.0412072
0.0412072
0.0412072
0.0412072
0.0412072
0.0412072
0.0412071
0.0412071
0.0412071
0.041207
0.0412069
0.0412068
0.0412067
0.0412065
0.0412063
0.041206
0.0412057
0.0412052
0.0412045
0.0412036
0.0412022
0.0412003
0.0411976
0.0411936
0.0411877
0.0411791
0.0411664
0.041148
0.0411214
0.0410836
0.0410313
0.0409614
0.0408717
0.0574077
0.0575126
0.0575937
0.0576542
0.0576979
0.0577288
0.0577502
0.0577649
0.0577749
0.0577817
0.0577864
0.0577896
0.0577919
0.0577934
0.0577946
0.0577953
0.0577959
0.0577964
0.0577967
0.0577969
0.0577971
0.0577973
0.0577974
0.0577975
0.0577976
0.0577976
0.0577977
0.0577977
0.0577977
0.0577978
0.0577978
0.0577977
0.0577977
0.0577977
0.0577976
0.0577976
0.0577975
0.0577974
0.0577973
0.0577971
0.0577969
0.0577967
0.0577964
0.0577959
0.0577953
0.0577946
0.0577934
0.0577919
0.0577896
0.0577864
0.0577817
0.0577749
0.0577649
0.0577502
0.0577288
0.0576979
0.0576542
0.0575937
0.0575126
0.0574077
0.0747086
0.0748254
0.0749148
0.0749815
0.0750297
0.0750637
0.0750874
0.0751037
0.0751148
0.0751224
0.0751277
0.0751313
0.0751338
0.0751355
0.0751368
0.0751377
0.0751383
0.0751388
0.0751392
0.0751395
0.0751397
0.0751398
0.07514
0.0751401
0.0751402
0.0751403
0.0751403
0.0751403
0.0751404
0.0751404
0.0751404
0.0751404
0.0751403
0.0751403
0.0751403
0.0751402
0.0751401
0.07514
0.0751398
0.0751397
0.0751395
0.0751392
0.0751388
0.0751383
0.0751377
0.0751368
0.0751355
0.0751338
0.0751313
0.0751277
0.0751224
0.0751148
0.0751037
0.0750874
0.0750637
0.0750297
0.0749815
0.0749148
0.0748254
0.0747086
0.0921841
0.092311
0.0924076
0.0924795
0.0925316
0.0925684
0.092594
0.0926117
0.0926239
0.0926322
0.0926379
0.0926419
0.0926446
0.0926466
0.0926479
0.0926489
0.0926497
0.0926502
0.0926506
0.0926509
0.0926512
0.0926514
0.0926515
0.0926516
0.0926517
0.0926518
0.0926519
0.0926519
0.0926519
0.0926519
0.0926519
0.0926519
0.0926519
0.0926519
0.0926518
0.0926517
0.0926516
0.0926515
0.0926514
0.0926512
0.0926509
0.0926506
0.0926502
0.0926497
0.0926489
0.0926479
0.0926466
0.0926446
0.0926419
0.0926379
0.0926322
0.0926239
0.0926117
0.092594
0.0925684
0.0925316
0.0924795
0.0924076
0.092311
0.0921841
0.109648
0.109784
0.109888
0.109965
0.110021
0.11006
0.110088
0.110107
0.11012
0.110129
0.110135
0.11014
0.110143
0.110145
0.110146
0.110147
0.110148
0.110149
0.110149
0.11015
0.11015
0.11015
0.11015
0.11015
0.11015
0.110151
0.110151
0.110151
0.110151
0.110151
0.110151
0.110151
0.110151
0.110151
0.110151
0.11015
0.11015
0.11015
0.11015
0.11015
0.11015
0.110149
0.110149
0.110148
0.110147
0.110146
0.110145
0.110143
0.11014
0.110135
0.110129
0.11012
0.110107
0.110088
0.11006
0.110021
0.109965
0.109888
0.109784
0.109648
0.12709
0.127236
0.127346
0.127429
0.127488
0.12753
0.12756
0.127581
0.127595
0.127605
0.127611
0.127616
0.127619
0.127622
0.127623
0.127624
0.127625
0.127626
0.127627
0.127627
0.127627
0.127627
0.127628
0.127628
0.127628
0.127628
0.127628
0.127628
0.127628
0.127628
0.127628
0.127628
0.127628
0.127628
0.127628
0.127628
0.127628
0.127628
0.127627
0.127627
0.127627
0.127627
0.127626
0.127625
0.127624
0.127623
0.127622
0.127619
0.127616
0.127611
0.127605
0.127595
0.127581
0.12756
0.12753
0.127488
0.127429
0.127346
0.127236
0.12709
0.144539
0.144694
0.144811
0.144899
0.144962
0.145008
0.145039
0.145061
0.145077
0.145087
0.145094
0.1451
0.145103
0.145106
0.145107
0.145109
0.14511
0.14511
0.145111
0.145111
0.145112
0.145112
0.145112
0.145112
0.145112
0.145113
0.145113
0.145113
0.145113
0.145113
0.145113
0.145113
0.145113
0.145113
0.145113
0.145112
0.145112
0.145112
0.145112
0.145112
0.145111
0.145111
0.14511
0.14511
0.145109
0.145107
0.145106
0.145103
0.1451
0.145094
0.145087
0.145077
0.145061
0.145039
0.145008
0.144962
0.144899
0.144811
0.144694
0.144539
0.162014
0.162178
0.162302
0.162395
0.162463
0.162511
0.162545
0.162568
0.162585
0.162596
0.162604
0.162609
0.162613
0.162616
0.162618
0.162619
0.162621
0.162621
0.162622
0.162622
0.162623
0.162623
0.162623
0.162623
0.162623
0.162624
0.162624
0.162624
0.162624
0.162624
0.162624
0.162624
0.162624
0.162624
0.162624
0.162623
0.162623
0.162623
0.162623
0.162623
0.162622
0.162622
0.162621
0.162621
0.162619
0.162618
0.162616
0.162613
0.162609
0.162604
0.162596
0.162585
0.162568
0.162545
0.162511
0.162463
0.162395
0.162302
0.162178
0.162014
0.17952
0.179693
0.179824
0.179922
0.179994
0.180045
0.180081
0.180106
0.180124
0.180136
0.180145
0.180151
0.180155
0.180158
0.18016
0.180161
0.180163
0.180163
0.180164
0.180165
0.180165
0.180165
0.180165
0.180166
0.180166
0.180166
0.180166
0.180166
0.180166
0.180166
0.180166
0.180166
0.180166
0.180166
0.180166
0.180166
0.180166
0.180165
0.180165
0.180165
0.180165
0.180164
0.180163
0.180163
0.180161
0.18016
0.180158
0.180155
0.180151
0.180145
0.180136
0.180124
0.180106
0.180081
0.180045
0.179994
0.179922
0.179824
0.179693
0.17952
0.197052
0.197234
0.197372
0.197475
0.197551
0.197605
0.197643
0.19767
0.197689
0.197702
0.197711
0.197718
0.197722
0.197726
0.197728
0.19773
0.197731
0.197732
0.197732
0.197733
0.197733
0.197734
0.197734
0.197734
0.197734
0.197734
0.197735
0.197735
0.197735
0.197735
0.197735
0.197735
0.197735
0.197735
0.197734
0.197734
0.197734
0.197734
0.197734
0.197733
0.197733
0.197732
0.197732
0.197731
0.19773
0.197728
0.197726
0.197722
0.197718
0.197711
0.197702
0.197689
0.19767
0.197643
0.197605
0.197551
0.197475
0.197372
0.197234
0.197052
0.214601
0.214791
0.214936
0.215044
0.215124
0.215181
0.215222
0.21525
0.21527
0.215284
0.215294
0.215301
0.215306
0.215309
0.215312
0.215314
0.215315
0.215316
0.215317
0.215318
0.215318
0.215318
0.215319
0.215319
0.215319
0.215319
0.215319
0.215319
0.215319
0.215319
0.215319
0.215319
0.215319
0.215319
0.215319
0.215319
0.215319
0.215319
0.215318
0.215318
0.215318
0.215317
0.215316
0.215315
0.215314
0.215312
0.215309
0.215306
0.215301
0.215294
0.215284
0.21527
0.21525
0.215222
0.215181
0.215124
0.215044
0.214936
0.214791
0.214601
0.232153
0.232351
0.232503
0.232616
0.2327
0.23276
0.232803
0.232833
0.232855
0.23287
0.23288
0.232888
0.232893
0.232897
0.232899
0.232901
0.232903
0.232904
0.232905
0.232905
0.232906
0.232906
0.232906
0.232907
0.232907
0.232907
0.232907
0.232907
0.232907
0.232907
0.232907
0.232907
0.232907
0.232907
0.232907
0.232907
0.232907
0.232906
0.232906
0.232906
0.232905
0.232905
0.232904
0.232903
0.232901
0.232899
0.232897
0.232893
0.232888
0.23288
0.23287
0.232855
0.232833
0.232803
0.23276
0.2327
0.232616
0.232503
0.232351
0.232153
0.249695
0.249901
0.250058
0.250177
0.250264
0.250328
0.250373
0.250405
0.250428
0.250444
0.250455
0.250463