/*--------------------------------*- C++ -*----------------------------------*\
| =========                 |                                                 |
| \\      /  F ield         | foam-extend: Open Source CFD                    |
|  \\    /   O peration     | Version:     4.0                                |
|   \\  /    A nd           | Web:         http://www.foam-extend.org         |
|    \\/     M anipulation  |                                                 |
\*---------------------------------------------------------------------------*/
FoamFile
{
    version     2.0;
    format      ascii;
    class       volScalarField;
    location    "580";
    object      cPlus;
}
// * * * * * * * * * * * * * * * * * * * * * * * * * * * * * * * * * * * * * //

dimensions      [0 0 0 0 0 0 0];

internalField   nonuniform List<scalar> 
6960
(
0.208721
0.208649
0.208597
0.208566
0.208549
0.208539
0.208534
0.208531
0.20853
0.208529
0.208529
0.208528
0.208528
0.208528
0.208528
0.208528
0.208528
0.208528
0.208528
0.208528
0.208528
0.208528
0.208528
0.208528
0.208528
0.208527
0.208527
0.208527
0.208527
0.208527
0.208527
0.208527
0.208527
0.208527
0.208527
0.208528
0.208528
0.208528
0.208528
0.208528
0.208528
0.208528
0.208528
0.208528
0.208528
0.208528
0.208528
0.208528
0.208528
0.208529
0.208529
0.20853
0.208531
0.208534
0.208539
0.208549
0.208566
0.208597
0.208649
0.208721
0.0499521
0.0499321
0.0499169
0.0499077
0.0499024
0.0498996
0.049898
0.0498972
0.0498967
0.0498965
0.0498963
0.0498962
0.0498962
0.0498961
0.0498961
0.0498961
0.0498961
0.0498961
0.0498961
0.0498961
0.0498961
0.0498961
0.0498961
0.0498961
0.0498961
0.0498961
0.0498961
0.0498961
0.0498961
0.0498961
0.0498961
0.0498961
0.0498961
0.0498961
0.0498961
0.0498961
0.0498961
0.0498961
0.0498961
0.0498961
0.0498961
0.0498961
0.0498961
0.0498961
0.0498961
0.0498961
0.0498961
0.0498962
0.0498962
0.0498963
0.0498965
0.0498967
0.0498972
0.049898
0.0498996
0.0499024
0.0499077
0.0499169
0.0499321
0.0499521
0.0237987
0.0238006
0.0238007
0.0238005
0.0238004
0.0238003
0.0238003
0.0238003
0.0238002
0.0238002
0.0238002
0.0238002
0.0238003
0.0238003
0.0238003
0.0238003
0.0238003
0.0238003
0.0238003
0.0238003
0.0238003
0.0238004
0.0238004
0.0238004
0.0238004
0.0238004
0.0238004
0.0238004
0.0238004
0.0238004
0.0238004
0.0238004
0.0238004
0.0238004
0.0238004
0.0238004
0.0238004
0.0238004
0.0238004
0.0238003
0.0238003
0.0238003
0.0238003
0.0238003
0.0238003
0.0238003
0.0238003
0.0238003
0.0238002
0.0238002
0.0238002
0.0238002
0.0238003
0.0238003
0.0238003
0.0238004
0.0238005
0.0238007
0.0238006
0.0237987
0.0194925
0.0195009
0.0195056
0.0195081
0.0195095
0.0195103
0.0195107
0.0195109
0.019511
0.0195111
0.0195112
0.0195112
0.0195112
0.0195112
0.0195113
0.0195113
0.0195113
0.0195113
0.0195113
0.0195113
0.0195114
0.0195114
0.0195114
0.0195114
0.0195114
0.0195114
0.0195114
0.0195114
0.0195114
0.0195114
0.0195114
0.0195114
0.0195114
0.0195114
0.0195114
0.0195114
0.0195114
0.0195114
0.0195114
0.0195114
0.0195113
0.0195113
0.0195113
0.0195113
0.0195113
0.0195113
0.0195112
0.0195112
0.0195112
0.0195112
0.0195111
0.019511
0.0195109
0.0195107
0.0195103
0.0195095
0.0195081
0.0195056
0.0195009
0.0194925
0.0190063
0.0190165
0.0190223
0.0190256
0.0190274
0.0190284
0.0190289
0.0190292
0.0190294
0.0190295
0.0190295
0.0190296
0.0190296
0.0190296
0.0190296
0.0190297
0.0190297
0.0190297
0.0190297
0.0190297
0.0190297
0.0190298
0.0190298
0.0190298
0.0190298
0.0190298
0.0190298
0.0190298
0.0190298
0.0190298
0.0190298
0.0190298
0.0190298
0.0190298
0.0190298
0.0190298
0.0190298
0.0190298
0.0190298
0.0190297
0.0190297
0.0190297
0.0190297
0.0190297
0.0190297
0.0190296
0.0190296
0.0190296
0.0190296
0.0190295
0.0190295
0.0190294
0.0190292
0.0190289
0.0190284
0.0190274
0.0190256
0.0190223
0.0190165
0.0190063
0.0191911
0.0192019
0.0192082
0.0192117
0.0192136
0.0192147
0.0192152
0.0192155
0.0192157
0.0192158
0.0192159
0.0192159
0.019216
0.019216
0.019216
0.019216
0.019216
0.0192161
0.0192161
0.0192161
0.0192161
0.0192161
0.0192161
0.0192161
0.0192162
0.0192162
0.0192162
0.0192162
0.0192162
0.0192162
0.0192162
0.0192162
0.0192162
0.0192162
0.0192162
0.0192162
0.0192161
0.0192161
0.0192161
0.0192161
0.0192161
0.0192161
0.0192161
0.019216
0.019216
0.019216
0.019216
0.019216
0.0192159
0.0192159
0.0192158
0.0192157
0.0192155
0.0192152
0.0192147
0.0192136
0.0192117
0.0192082
0.0192019
0.0191911
0.0195099
0.0195211
0.0195276
0.0195313
0.0195333
0.0195343
0.0195349
0.0195352
0.0195354
0.0195355
0.0195356
0.0195356
0.0195357
0.0195357
0.0195357
0.0195358
0.0195358
0.0195358
0.0195358
0.0195358
0.0195358
0.0195359
0.0195359
0.0195359
0.0195359
0.0195359
0.0195359
0.0195359
0.0195359
0.0195359
0.0195359
0.0195359
0.0195359
0.0195359
0.0195359
0.0195359
0.0195359
0.0195359
0.0195359
0.0195358
0.0195358
0.0195358
0.0195358
0.0195358
0.0195358
0.0195357
0.0195357
0.0195357
0.0195356
0.0195356
0.0195355
0.0195354
0.0195352
0.0195349
0.0195343
0.0195333
0.0195313
0.0195276
0.0195211
0.0195099
0.0198769
0.0198885
0.0198952
0.019899
0.0199011
0.0199022
0.0199028
0.0199031
0.0199033
0.0199034
0.0199035
0.0199036
0.0199036
0.0199036
0.0199037
0.0199037
0.0199037
0.0199037
0.0199037
0.0199038
0.0199038
0.0199038
0.0199038
0.0199038
0.0199038
0.0199038
0.0199038
0.0199038
0.0199038
0.0199038
0.0199038
0.0199038
0.0199038
0.0199038
0.0199038
0.0199038
0.0199038
0.0199038
0.0199038
0.0199038
0.0199038
0.0199037
0.0199037
0.0199037
0.0199037
0.0199037
0.0199036
0.0199036
0.0199036
0.0199035
0.0199034
0.0199033
0.0199031
0.0199028
0.0199022
0.0199011
0.019899
0.0198952
0.0198885
0.0198769
0.0202823
0.0202943
0.0203013
0.0203052
0.0203074
0.0203085
0.0203091
0.0203095
0.0203097
0.0203098
0.0203099
0.0203099
0.02031
0.02031
0.02031
0.02031
0.0203101
0.0203101
0.0203101
0.0203101
0.0203101
0.0203101
0.0203102
0.0203102
0.0203102
0.0203102
0.0203102
0.0203102
0.0203102
0.0203102
0.0203102
0.0203102
0.0203102
0.0203102
0.0203102
0.0203102
0.0203102
0.0203102
0.0203101
0.0203101
0.0203101
0.0203101
0.0203101
0.0203101
0.02031
0.02031
0.02031
0.02031
0.0203099
0.0203099
0.0203098
0.0203097
0.0203095
0.0203091
0.0203085
0.0203074
0.0203052
0.0203013
0.0202943
0.0202823
0.0207291
0.0207416
0.0207488
0.0207529
0.0207551
0.0207563
0.020757
0.0207573
0.0207575
0.0207577
0.0207577
0.0207578
0.0207578
0.0207579
0.0207579
0.0207579
0.0207579
0.020758
0.020758
0.020758
0.020758
0.020758
0.020758
0.0207581
0.0207581
0.0207581
0.0207581
0.0207581
0.0207581
0.0207581
0.0207581
0.0207581
0.0207581
0.0207581
0.0207581
0.0207581
0.0207581
0.020758
0.020758
0.020758
0.020758
0.020758
0.020758
0.0207579
0.0207579
0.0207579
0.0207579
0.0207578
0.0207578
0.0207577
0.0207577
0.0207575
0.0207573
0.020757
0.0207563
0.0207551
0.0207529
0.0207488
0.0207416
0.0207291
0.0212234
0.0212364
0.0212439
0.0212482
0.0212505
0.0212517
0.0212524
0.0212528
0.021253
0.0212531
0.0212532
0.0212533
0.0212533
0.0212533
0.0212534
0.0212534
0.0212534
0.0212534
0.0212535
0.0212535
0.0212535
0.0212535
0.0212535
0.0212535
0.0212535
0.0212536
0.0212536
0.0212536
0.0212536
0.0212536
0.0212536
0.0212536
0.0212536
0.0212536
0.0212536
0.0212535
0.0212535
0.0212535
0.0212535
0.0212535
0.0212535
0.0212535
0.0212534
0.0212534
0.0212534
0.0212534
0.0212533
0.0212533
0.0212533
0.0212532
0.0212531
0.021253
0.0212528
0.0212524
0.0212517
0.0212505
0.0212482
0.0212439
0.0212364
0.0212234
0.0217729
0.0217865
0.0217943
0.0217988
0.0218012
0.0218025
0.0218032
0.0218036
0.0218038
0.021804
0.0218041
0.0218041
0.0218042
0.0218042
0.0218042
0.0218043
0.0218043
0.0218043
0.0218043
0.0218043
0.0218044
0.0218044
0.0218044
0.0218044
0.0218044
0.0218044
0.0218044
0.0218044
0.0218044
0.0218044
0.0218044
0.0218044
0.0218044
0.0218044
0.0218044
0.0218044
0.0218044
0.0218044
0.0218044
0.0218044
0.0218043
0.0218043
0.0218043
0.0218043
0.0218043
0.0218042
0.0218042
0.0218042
0.0218041
0.0218041
0.021804
0.0218038
0.0218036
0.0218032
0.0218025
0.0218012
0.0217988
0.0217943
0.0217865
0.0217729
0.0223873
0.0224016
0.0224098
0.0224145
0.0224171
0.0224184
0.0224192
0.0224196
0.0224198
0.02242
0.02242
0.0224201
0.0224202
0.0224202
0.0224202
0.0224203
0.0224203
0.0224203
0.0224203
0.0224204
0.0224204
0.0224204
0.0224204
0.0224204
0.0224204
0.0224204
0.0224204
0.0224205
0.0224205
0.0224205
0.0224205
0.0224205
0.0224205
0.0224204
0.0224204
0.0224204
0.0224204
0.0224204
0.0224204
0.0224204
0.0224204
0.0224203
0.0224203
0.0224203
0.0224203
0.0224202
0.0224202
0.0224202
0.0224201
0.02242
0.02242
0.0224198
0.0224196
0.0224192
0.0224184
0.0224171
0.0224145
0.0224098
0.0224016
0.0223873
0.0230789
0.023094
0.0231027
0.0231076
0.0231103
0.0231118
0.0231126
0.023113
0.0231132
0.0231134
0.0231135
0.0231135
0.0231136
0.0231136
0.0231137
0.0231137
0.0231137
0.0231137
0.0231138
0.0231138
0.0231138
0.0231138
0.0231139
0.0231139
0.0231139
0.0231139
0.0231139
0.0231139
0.0231139
0.0231139
0.0231139
0.0231139
0.0231139
0.0231139
0.0231139
0.0231139
0.0231139
0.0231139
0.0231138
0.0231138
0.0231138
0.0231138
0.0231137
0.0231137
0.0231137
0.0231137
0.0231136
0.0231136
0.0231135
0.0231135
0.0231134
0.0231132
0.023113
0.0231126
0.0231118
0.0231103
0.0231076
0.0231027
0.023094
0.0230789
0.0238633
0.0238793
0.0238886
0.0238938
0.0238967
0.0238982
0.0238991
0.0238995
0.0238998
0.0238999
0.0239
0.0239001
0.0239002
0.0239002
0.0239002
0.0239003
0.0239003
0.0239003
0.0239004
0.0239004
0.0239004
0.0239004
0.0239004
0.0239005
0.0239005
0.0239005
0.0239005
0.0239005
0.0239005
0.0239005
0.0239005
0.0239005
0.0239005
0.0239005
0.0239005
0.0239005
0.0239005
0.0239004
0.0239004
0.0239004
0.0239004
0.0239004
0.0239003
0.0239003
0.0239003
0.0239002
0.0239002
0.0239002
0.0239001
0.0239
0.0238999
0.0238998
0.0238995
0.0238991
0.0238982
0.0238967
0.0238938
0.0238886
0.0238793
0.0238633
0.0247609
0.0247781
0.0247879
0.0247935
0.0247966
0.0247983
0.0247992
0.0247997
0.0247999
0.0248001
0.0248002
0.0248003
0.0248003
0.0248004
0.0248004
0.0248005
0.0248005
0.0248005
0.0248006
0.0248006
0.0248006
0.0248006
0.0248006
0.0248007
0.0248007
0.0248007
0.0248007
0.0248007
0.0248007
0.0248007
0.0248007
0.0248007
0.0248007
0.0248007
0.0248007
0.0248007
0.0248007
0.0248006
0.0248006
0.0248006
0.0248006
0.0248006
0.0248005
0.0248005
0.0248005
0.0248004
0.0248004
0.0248003
0.0248003
0.0248002
0.0248001
0.0247999
0.0247997
0.0247992
0.0247983
0.0247966
0.0247935
0.0247879
0.0247781
0.0247609
0.0257987
0.0258172
0.0258279
0.0258339
0.0258372
0.025839
0.02584
0.0258405
0.0258408
0.025841
0.0258411
0.0258412
0.0258413
0.0258413
0.0258414
0.0258414
0.0258414
0.0258415
0.0258415
0.0258415
0.0258416
0.0258416
0.0258416
0.0258416
0.0258416
0.0258416
0.0258417
0.0258417
0.0258417
0.0258417
0.0258417
0.0258417
0.0258417
0.0258417
0.0258416
0.0258416
0.0258416
0.0258416
0.0258416
0.0258416
0.0258415
0.0258415
0.0258415
0.0258414
0.0258414
0.0258414
0.0258413
0.0258413
0.0258412
0.0258411
0.025841
0.0258408
0.0258405
0.02584
0.025839
0.0258372
0.0258339
0.0258279
0.0258172
0.0257987
0.0270134
0.0270336
0.0270452
0.0270517
0.0270554
0.0270573
0.0270584
0.027059
0.0270593
0.0270595
0.0270596
0.0270597
0.0270598
0.0270599
0.0270599
0.0270599
0.02706
0.02706
0.0270601
0.0270601
0.0270601
0.0270601
0.0270602
0.0270602
0.0270602
0.0270602
0.0270602
0.0270602
0.0270602
0.0270602
0.0270602
0.0270602
0.0270602
0.0270602
0.0270602
0.0270602
0.0270602
0.0270602
0.0270601
0.0270601
0.0270601
0.0270601
0.02706
0.02706
0.0270599
0.0270599
0.0270599
0.0270598
0.0270597
0.0270596
0.0270595
0.0270593
0.027059
0.0270584
0.0270573
0.0270554
0.0270517
0.0270452
0.0270336
0.0270134
0.0284561
0.0284783
0.0284911
0.0284984
0.0285024
0.0285046
0.0285058
0.0285064
0.0285068
0.028507
0.0285071
0.0285072
0.0285073
0.0285074
0.0285074
0.0285075
0.0285075
0.0285076
0.0285076
0.0285076
0.0285077
0.0285077
0.0285077
0.0285077
0.0285078
0.0285078
0.0285078
0.0285078
0.0285078
0.0285078
0.0285078
0.0285078
0.0285078
0.0285078
0.0285078
0.0285078
0.0285077
0.0285077
0.0285077
0.0285077
0.0285076
0.0285076
0.0285076
0.0285075
0.0285075
0.0285074
0.0285074
0.0285073
0.0285072
0.0285071
0.028507
0.0285068
0.0285064
0.0285058
0.0285046
0.0285024
0.0284984
0.0284911
0.0284783
0.0284561
0.0302002
0.0302251
0.0302394
0.0302476
0.0302521
0.0302546
0.0302559
0.0302566
0.030257
0.0302573
0.0302574
0.0302576
0.0302576
0.0302577
0.0302578
0.0302578
0.0302579
0.0302579
0.030258
0.030258
0.030258
0.0302581
0.0302581
0.0302581
0.0302582
0.0302582
0.0302582
0.0302582
0.0302582
0.0302582
0.0302582
0.0302582
0.0302582
0.0302582
0.0302582
0.0302582
0.0302581
0.0302581
0.0302581
0.030258
0.030258
0.030258
0.0302579
0.0302579
0.0302578
0.0302578
0.0302577
0.0302576
0.0302576
0.0302574
0.0302573
0.030257
0.0302566
0.0302559
0.0302546
0.0302521
0.0302476
0.0302394
0.0302251
0.0302002
0.0323543
0.0323828
0.0323993
0.0324087
0.0324139
0.0324167
0.0324182
0.032419
0.0324195
0.0324198
0.03242
0.0324201
0.0324202
0.0324203
0.0324204
0.0324204
0.0324205
0.0324205
0.0324206
0.0324206
0.0324207
0.0324207
0.0324207
0.0324208
0.0324208
0.0324208
0.0324208
0.0324208
0.0324209
0.0324209
0.0324209
0.0324209
0.0324208
0.0324208
0.0324208
0.0324208
0.0324208
0.0324207
0.0324207
0.0324207
0.0324206
0.0324206
0.0324205
0.0324205
0.0324204
0.0324204
0.0324203
0.0324202
0.0324201
0.03242
0.0324198
0.0324195
0.032419
0.0324182
0.0324167
0.0324139
0.0324087
0.0323993
0.0323828
0.0323543
0.0350843
0.0351178
0.0351371
0.0351482
0.0351543
0.0351576
0.0351594
0.0351604
0.0351609
0.0351613
0.0351615
0.0351616
0.0351618
0.0351619
0.0351619
0.035162
0.0351621
0.0351622
0.0351622
0.0351623
0.0351623
0.0351624
0.0351624
0.0351624
0.0351625
0.0351625
0.0351625
0.0351625
0.0351625
0.0351626
0.0351626
0.0351625
0.0351625
0.0351625
0.0351625
0.0351625
0.0351624
0.0351624
0.0351624
0.0351623
0.0351623
0.0351622
0.0351622
0.0351621
0.035162
0.0351619
0.0351619
0.0351618
0.0351616
0.0351615
0.0351613
0.0351609
0.0351604
0.0351594
0.0351576
0.0351543
0.0351482
0.0351371
0.0351178
0.0350843
0.0386454
0.0386858
0.0387093
0.0387227
0.0387301
0.0387341
0.0387363
0.0387375
0.0387382
0.0387386
0.0387389
0.0387391
0.0387392
0.0387393
0.0387394
0.0387395
0.0387396
0.0387397
0.0387398
0.0387399
0.0387399
0.03874
0.03874
0.0387401
0.0387401
0.0387401
0.0387402
0.0387402
0.0387402
0.0387402
0.0387402
0.0387402
0.0387402
0.0387402
0.0387401
0.0387401
0.0387401
0.03874
0.03874
0.0387399
0.0387399
0.0387398
0.0387397
0.0387396
0.0387395
0.0387394
0.0387393
0.0387392
0.0387391
0.0387389
0.0387386
0.0387382
0.0387375
0.0387363
0.0387341
0.0387301
0.0387227
0.0387093
0.0386858
0.0386454
0.043421
0.0434714
0.0435009
0.0435177
0.0435271
0.0435321
0.0435349
0.0435364
0.0435373
0.0435378
0.0435381
0.0435384
0.0435385
0.0435387
0.0435388
0.0435389
0.0435391
0.0435392
0.0435393
0.0435393
0.0435394
0.0435395
0.0435396
0.0435396
0.0435397
0.0435397
0.0435397
0.0435398
0.0435398
0.0435398
0.0435398
0.0435398
0.0435398
0.0435397
0.0435397
0.0435397
0.0435396
0.0435396
0.0435395
0.0435394
0.0435393
0.0435393
0.0435392
0.0435391
0.0435389
0.0435388
0.0435387
0.0435385
0.0435384
0.0435381
0.0435378
0.0435373
0.0435364
0.0435349
0.0435321
0.0435271
0.0435177
0.0435009
0.0434714
0.043421
0.0499426
0.0500072
0.0500451
0.0500669
0.0500789
0.0500855
0.050089
0.050091
0.0500921
0.0500927
0.0500932
0.0500935
0.0500937
0.0500939
0.0500941
0.0500943
0.0500944
0.0500945
0.0500947
0.0500948
0.0500949
0.050095
0.0500951
0.0500951
0.0500952
0.0500953
0.0500953
0.0500953
0.0500953
0.0500954
0.0500954
0.0500953
0.0500953
0.0500953
0.0500953
0.0500952
0.0500951
0.0500951
0.050095
0.0500949
0.0500948
0.0500947
0.0500945
0.0500944
0.0500943
0.0500941
0.0500939
0.0500937
0.0500935
0.0500932
0.0500927
0.0500921
0.050091
0.050089
0.0500855
0.0500789
0.0500669
0.0500451
0.0500072
0.0499426
0.0588359
0.0589196
0.058969
0.0589973
0.059013
0.0590215
0.0590261
0.0590287
0.0590301
0.059031
0.0590316
0.059032
0.0590323
0.0590326
0.0590328
0.059033
0.0590332
0.0590334
0.0590335
0.0590337
0.0590338
0.0590339
0.059034
0.0590341
0.0590342
0.0590343
0.0590344
0.0590344
0.0590344
0.0590344
0.0590344
0.0590344
0.0590344
0.0590344
0.0590343
0.0590342
0.0590341
0.059034
0.0590339
0.0590338
0.0590337
0.0590335
0.0590334
0.0590332
0.059033
0.0590328
0.0590326
0.0590323
0.059032
0.0590316
0.059031
0.0590301
0.0590287
0.0590261
0.0590215
0.059013
0.0589973
0.058969
0.0589196
0.0588359
0.0706499
0.0707572
0.0708206
0.070857
0.0708772
0.0708882
0.0708942
0.0708975
0.0708994
0.0709005
0.0709012
0.0709017
0.0709021
0.0709025
0.0709028
0.070903
0.0709033
0.0709035
0.0709037
0.0709039
0.0709041
0.0709042
0.0709043
0.0709045
0.0709046
0.0709047
0.0709047
0.0709048
0.0709048
0.0709048
0.0709048
0.0709048
0.0709048
0.0709047
0.0709047
0.0709046
0.0709045
0.0709043
0.0709042
0.0709041
0.0709039
0.0709037
0.0709035
0.0709033
0.070903
0.0709028
0.0709025
0.0709021
0.0709017
0.0709012
0.0709005
0.0708994
0.0708975
0.0708942
0.0708882
0.0708772
0.070857
0.0708206
0.0707572
0.0706499
0.0856156
0.0857489
0.0858278
0.0858731
0.0858983
0.0859121
0.0859196
0.0859237
0.085926
0.0859275
0.0859284
0.085929
0.0859295
0.0859299
0.0859303
0.0859306
0.0859309
0.0859311
0.0859314
0.0859316
0.0859318
0.085932
0.0859322
0.0859323
0.0859325
0.0859326
0.0859327
0.0859327
0.0859328
0.0859328
0.0859328
0.0859328
0.0859327
0.0859327
0.0859326
0.0859325
0.0859323
0.0859322
0.085932
0.0859318
0.0859316
0.0859314
0.0859311
0.0859309
0.0859306
0.0859303
0.0859299
0.0859295
0.085929
0.0859284
0.0859275
0.085926
0.0859237
0.0859196
0.0859121
0.0858983
0.0858731
0.0858278
0.0857489
0.0856156
0.103501
0.10366
0.103754
0.103808
0.103838
0.103855
0.103864
0.103869
0.103872
0.103874
0.103875
0.103875
0.103876
0.103876
0.103877
0.103877
0.103878
0.103878
0.103878
0.103878
0.103879
0.103879
0.103879
0.103879
0.103879
0.10388
0.10388
0.10388
0.10388
0.10388
0.10388
0.10388
0.10388
0.10388
0.10388
0.103879
0.103879
0.103879
0.103879
0.103879
0.103878
0.103878
0.103878
0.103878
0.103877
0.103877
0.103876
0.103876
0.103875
0.103875
0.103874
0.103872
0.103869
0.103864
0.103855
0.103838
0.103808
0.103754
0.10366
0.103501
0.123695
0.123878
0.123986
0.124048
0.124083
0.124102
0.124113
0.124119
0.124122
0.124124
0.124125
0.124126
0.124127
0.124127
0.124128
0.124128
0.124128
0.124129
0.124129
0.124129
0.12413
0.12413
0.12413
0.12413
0.12413
0.124131
0.124131
0.124131
0.124131
0.124131
0.124131
0.124131
0.124131
0.124131
0.124131
0.12413
0.12413
0.12413
0.12413
0.12413
0.124129
0.124129
0.124129
0.124128
0.124128
0.124128
0.124127
0.124127
0.124126
0.124125
0.124124
0.124122
0.124119
0.124113
0.124102
0.124083
0.124048
0.123986
0.123878
0.123695
0.14546
0.145663
0.145784
0.145854
0.145893
0.145915
0.145926
0.145933
0.145937
0.145939
0.14594
0.145941
0.145942
0.145943
0.145943
0.145944
0.145944
0.145944
0.145945
0.145945
0.145945
0.145946
0.145946
0.145946
0.145946
0.145946
0.145946
0.145947
0.145947
0.145947
0.145947
0.145947
0.145947
0.145946
0.145946
0.145946
0.145946
0.145946
0.145946
0.145945
0.145945
0.145945
0.145944
0.145944
0.145944
0.145943
0.145943
0.145942
0.145941
0.14594
0.145939
0.145937
0.145933
0.145926
0.145915
0.145893
0.145854
0.145784
0.145663
0.14546
0.168156
0.168377
0.168509
0.168586
0.168629
0.168652
0.168665
0.168673
0.168677
0.168679
0.168681
0.168682
0.168683
0.168683
0.168684
0.168684
0.168685
0.168685
0.168685
0.168686
0.168686
0.168686
0.168687
0.168687
0.168687
0.168687
0.168687
0.168687
0.168687
0.168687
0.168687
0.168687
0.168687
0.168687
0.168687
0.168687
0.168687
0.168687
0.168686
0.168686
0.168686
0.168685
0.168685
0.168685
0.168684
0.168684
0.168683
0.168683
0.168682
0.168681
0.168679
0.168677
0.168673
0.168665
0.168652
0.168629
0.168586
0.168509
0.168377
0.168156
0.19133
0.191568
0.19171
0.191792
0.191839
0.191865
0.191879
0.191887
0.191891
0.191894
0.191896
0.191897
0.191898
0.191899
0.191899
0.1919
0.1919
0.1919
0.191901
0.191901
0.191901
0.191902
0.191902
0.191902
0.191902
0.191902
0.191903
0.191903
0.191903
0.191903
0.191903
0.191903
0.191903
0.191903
0.191902
0.191902
0.191902
0.191902
0.191902
0.191901
0.191901
0.191901
0.1919
0.1919
0.1919
0.191899
0.191899
0.191898
0.191897
0.191896
0.191894
0.191891
0.191887
0.191879
0.191865
0.191839
0.191792
0.19171
0.191568
0.19133
0.214701
0.214953
0.215104
0.215192
0.215242
0.21527
0.215286
0.215294
0.215299
0.215302
0.215304
0.215305
0.215306
0.215307
0.215307
0.215308
0.215308
0.215309
0.215309
0.215309
0.21531
0.21531
0.21531
0.21531
0.215311
0.215311
0.215311
0.215311
0.215311
0.215311
0.215311
0.215311
0.215311
0.215311
0.215311
0.215311
0.21531
0.21531
0.21531
0.21531
0.215309
0.215309
0.215309
0.215308
0.215308
0.215307
0.215307
0.215306
0.215305
0.215304
0.215302
0.215299
0.215294
0.215286
0.21527
0.215242
0.215192
0.215104
0.214953
0.214701
0.238097
0.238363
0.238522
0.238616
0.23867
0.2387
0.238716
0.238726
0.238731
0.238734
0.238736
0.238737
0.238738
0.238739
0.23874
0.23874
0.238741
0.238741
0.238741
0.238742
0.238742
0.238742
0.238743
0.238743
0.238743
0.238743
0.238743
0.238743
0.238743
0.238743
0.238743
0.238743
0.238743
0.238743
0.238743
0.238743
0.238743
0.238743
0.238742
0.238742
0.238742
0.238741
0.238741
0.238741
0.23874
0.23874
0.238739
0.238738
0.238737
0.238736
0.238734
0.238731
0.238726
0.238716
0.2387
0.23867
0.238616
0.238522
0.238363
0.238097
0.261415
0.261692
0.261861
0.26196
0.262017
0.262049
0.262067
0.262077
0.262082
0.262086
0.262088
0.262089
0.26209
0.262091
0.262092
0.262092
0.262093
0.262093
0.262093
0.262094
0.262094
0.262094
0.262095
0.262095
0.262095
0.262095
0.262095
0.262095
0.262095
0.262095
0.262095
0.262095
0.262095
0.262095
0.262095
0.262095
0.262095
0.262095
0.262094
0.262094
0.262094
0.262093
0.262093
0.262093
0.262092
0.262092
0.262091
0.26209
0.262089
0.262088
0.262086
0.262082
0.262077
0.262067
0.262049
0.262017
0.26196
0.261861
0.261692
0.261415
0.284584
0.284873
0.285049
0.285153
0.285213
0.285248
0.285267
0.285278
0.285284
0.285287
0.28529
0.285291
0.285292
0.285293
0.285294
0.285294
0.285295
0.285295
0.285295
0.285296
0.285296
0.285296
0.285297
0.285297
0.285297
0.285297
0.285297
0.285297
0.285297
0.285297
0.285297
0.285297
0.285297
0.285297
0.285297
0.285297
0.285297
0.285297
0.285296
0.285296
0.285296
0.285295
0.285295
0.285295
0.285294
0.285294
0.285293
0.285292
0.285291
0.28529
0.285287
0.285284
0.285278
0.285267
0.285248
0.285213
0.285153
0.285049
0.284873
0.284584
0.307553
0.307852
0.308036
0.308146
0.308209
0.308245
0.308266
0.308277
0.308284
0.308288
0.30829
0.308292
0.308293
0.308294
0.308295
0.308295
0.308296
0.308296
0.308296
0.308297
0.308297
0.308297
0.308297
0.308298
0.308298
0.308298
0.308298
0.308298
0.308298
0.308298
0.308298
0.308298
0.308298
0.308298
0.308298
0.308298
0.308298
0.308297
0.308297
0.308297
0.308297
0.308296
0.308296
0.308296
0.308295
0.308295
0.308294
0.308293
0.308292
0.30829
0.308288
0.308284
0.308277
0.308266
0.308245
0.308209
0.308146
0.308036
0.307852
0.307553
0.330283
0.330591
0.330782
0.330897
0.330963
0.331002
0.331024
0.331036
0.331043
0.331047
0.33105
0.331052
0.331053
0.331054
0.331054
0.331055
0.331055
0.331056
0.331056
0.331056
0.331057
0.331057
0.331057
0.331057
0.331058
0.331058
0.331058
0.331058
0.331058
0.331058
0.331058
0.331058
0.331058
0.331058
0.331058
0.331058
0.331057
0.331057
0.331057
0.331057
0.331056
0.331056
0.331056
0.331055
0.331055
0.331054
0.331054
0.331053
0.331052
0.33105
0.331047
0.331043
0.331036
0.331024
0.331002
0.330963
0.330897
0.330782
0.330591
0.330283
0.352739
0.353056
0.353253
0.353373
0.353443
0.353484
0.353507
0.35352
0.353528
0.353532
0.353535
0.353537
0.353538
0.353539
0.35354
0.35354
0.353541
0.353541
0.353541
0.353542
0.353542
0.353542
0.353543
0.353543
0.353543
0.353543
0.353543
0.353543
0.353543
0.353543
0.353543
0.353543
0.353543
0.353543
0.353543
0.353543
0.353543
0.353543
0.353542
0.353542
0.353542
0.353541
0.353541
0.353541
0.35354
0.35354
0.353539
0.353538
0.353537
0.353535
0.353532
0.353528
0.35352
0.353507
0.353484
0.353443
0.353373
0.353253
0.353056
0.352739
0.374894
0.375218
0.375422
0.375547
0.37562
0.375663
0.375687
0.375701
0.37571
0.375715
0.375718
0.375719
0.375721
0.375722
0.375722
0.375723
0.375723
0.375724
0.375724
0.375724
0.375725
0.375725
0.375725
0.375725
0.375725
0.375726
0.375726
0.375726
0.375726
0.375726
0.375726
0.375726
0.375726
0.375726
0.375726
0.375725
0.375725
0.375725
0.375725
0.375725
0.375724
0.375724
0.375724
0.375723
0.375723
0.375722
0.375722
0.375721
0.375719
0.375718
0.375715
0.37571
0.375701
0.375687
0.375663
0.37562
0.375547
0.375422
0.375218
0.374894
0.396722
0.397053
0.397264
0.397392
0.397469
0.397514
0.39754
0.397555
0.397564
0.397569
0.397572
0.397574
0.397576
0.397577
0.397577
0.397578
0.397578
0.397579
0.397579
0.397579
0.39758
0.39758
0.39758
0.39758
0.397581
0.397581
0.397581
0.397581
0.397581
0.397581
0.397581
0.397581
0.397581
0.397581
0.397581
0.397581
0.39758
0.39758
0.39758
0.39758
0.397579
0.397579
0.397579
0.397578
0.397578
0.397577
0.397577
0.397576
0.397574
0.397572
0.397569
0.397564
0.397555
0.39754
0.397514
0.397469
0.397392
0.397264
0.397053
0.396722
0.418203
0.41854
0.418755
0.418889
0.418969
0.419016
0.419043
0.419059
0.419069
0.419074
0.419078
0.41908
0.419081
0.419082
0.419083
0.419084
0.419084
0.419085
0.419085
0.419085
0.419085
0.419086
0.419086
0.419086
0.419086
0.419086
0.419086
0.419086
0.419086
0.419087
0.419087
0.419086
0.419086
0.419086
0.419086
0.419086
0.419086
0.419086
0.419086
0.419085
0.419085
0.419085
0.419085
0.419084
0.419084
0.419083
0.419082
0.419081
0.41908
0.419078
0.419074
0.419069
0.419059
0.419043
0.419016
0.418969
0.418889
0.418755
0.41854
0.418203
0.439316
0.439658
0.439879
0.440016
0.440099
0.440149
0.440178
0.440195
0.440205
0.440211
0.440214
0.440217
0.440218
0.440219
0.44022
0.440221
0.440221
0.440221
0.440222
0.440222
0.440222
0.440222
0.440223
0.440223
0.440223
0.440223
0.440223
0.440223
0.440223
0.440223
0.440223
0.440223
0.440223
0.440223
0.440223
0.440223
0.440223
0.440223
0.440222
0.440222
0.440222
0.440222
0.440221
0.440221
0.440221
0.44022
0.440219
0.440218
0.440217
0.440214
0.440211
0.440205
0.440195
0.440178
0.440149
0.440099
0.440016
0.439879
0.439658
0.439316
0.460044
0.46039
0.460616
0.460757
0.460844
0.460895
0.460926
0.460944
0.460955
0.460961
0.460965
0.460967
0.460969
0.46097
0.460971
0.460971
0.460972
0.460972
0.460972
0.460973
0.460973
0.460973
0.460973
0.460973
0.460974
0.460974
0.460974
0.460974
0.460974
0.460974
0.460974
0.460974
0.460974
0.460974
0.460974
0.460974
0.460973
0.460973
0.460973
0.460973
0.460973
0.460972
0.460972
0.460972
0.460971
0.460971
0.46097
0.460969
0.460967
0.460965
0.460961
0.460955
0.460944
0.460926
0.460895
0.460844
0.460757
0.460616
0.46039
0.460044
0.480372
0.480722
0.480952
0.481097
0.481187
0.48124
0.481273
0.481292
0.481303
0.48131
0.481314
0.481316
0.481318
0.481319
0.48132
0.481321
0.481321
0.481321
0.481322
0.481322
0.481322
0.481322
0.481323
0.481323
0.481323
0.481323
0.481323
0.481323
0.481323
0.481323
0.481323
0.481323
0.481323
0.481323
0.481323
0.481323
0.481323
0.481323
0.481322
0.481322
0.481322
0.481322
0.481321
0.481321
0.481321
0.48132
0.481319
0.481318
0.481316
0.481314
0.48131
0.481303
0.481292
0.481273
0.48124
0.481187
0.481097
0.480952
0.480722
0.480372
0.500287
0.500639
0.500873
0.501022
0.501114
0.501171
0.501204
0.501224
0.501236
0.501244
0.501248
0.501251
0.501253
0.501254
0.501255
0.501255
0.501256
0.501256
0.501256
0.501256
0.501257
0.501257
0.501257
0.501257
0.501257
0.501257
0.501257
0.501257
0.501257
0.501258
0.501258
0.501257
0.501257
0.501257
0.501257
0.501257
0.501257
0.501257
0.501257
0.501257
0.501256
0.501256
0.501256
0.501256
0.501255
0.501255
0.501254
0.501253
0.501251
0.501248
0.501244
0.501236
0.501224
0.501204
0.501171
0.501114
0.501022
0.500873
0.500639
0.500287
0.519777
0.52013
0.520367
0.52052
0.520615
0.520674
0.520709
0.52073
0.520743
0.520751
0.520755
0.520758
0.52076
0.520761
0.520762
0.520763
0.520763
0.520764
0.520764
0.520764
0.520764
0.520765
0.520765
0.520765
0.520765
0.520765
0.520765
0.520765
0.520765
0.520765
0.520765
0.520765
0.520765
0.520765
0.520765
0.520765
0.520765
0.520765
0.520765
0.520764
0.520764
0.520764
0.520764
0.520763
0.520763
0.520762
0.520761
0.52076
0.520758
0.520755
0.520751
0.520743
0.52073
0.520709
0.520674
0.520615
0.52052
0.520367
0.52013
0.519777
0.53883
0.539185
0.539425
0.539581
0.539679
0.53974
0.539777
0.539799
0.539813
0.539821
0.539826
0.539829
0.539831
0.539832
0.539833
0.539834
0.539834
0.539835
0.539835
0.539835
0.539835
0.539835
0.539836
0.539836
0.539836
0.539836
0.539836
0.539836
0.539836
0.539836
0.539836
0.539836
0.539836
0.539836
0.539836
0.539836
0.539836
0.539836
0.539835
0.539835
0.539835
0.539835
0.539835
0.539834
0.539834
0.539833
0.539832
0.539831
0.539829
0.539826
0.539821
0.539813
0.539799
0.539777
0.53974
0.539679
0.539581
0.539425
0.539185
0.53883
0.55744
0.557796
0.558038
0.558197
0.558298
0.55836
0.558399
0.558422
0.558437
0.558445
0.558451
0.558454
0.558456
0.558458
0.558458
0.558459
0.55846
0.55846
0.55846
0.55846
0.55846
0.558461
0.558461
0.558461
0.558461
0.558461
0.558461
0.558461
0.558461
0.558461
0.558461
0.558461
0.558461
0.558461
0.558461
0.558461
0.558461
0.558461
0.558461
0.55846
0.55846
0.55846
0.55846
0.55846
0.558459
0.558458
0.558458
0.558456
0.558454
0.558451
0.558445
0.558437
0.558422
0.558399
0.55836
0.558298
0.558197
0.558038
0.557796
0.55744
0.575599
0.575954
0.576198
0.57636
0.576463
0.576528
0.576568
0.576593
0.576608
0.576617
0.576623
0.576626
0.576629
0.57663
0.576631
0.576632
0.576632
0.576632
0.576633
0.576633
0.576633
0.576633
0.576633
0.576633
0.576633
0.576633
0.576633
0.576633
0.576633
0.576634
0.576634
0.576633
0.576633
0.576633
0.576633
0.576633
0.576633
0.576633
0.576633
0.576633
0.576633
0.576633
0.576632
0.576632
0.576632
0.576631
0.57663
0.576629
0.576626
0.576623
0.576617
0.576608
0.576593
0.576568
0.576528
0.576463
0.57636
0.576198
0.575954
0.575599
0.5933
0.593654
0.5939
0.594064
0.59417
0.594237
0.594278
0.594304
0.59432
0.59433
0.594336
0.59434
0.594342
0.594344
0.594345
0.594345
0.594346
0.594346
0.594346
0.594347
0.594347
0.594347
0.594347
0.594347
0.594347
0.594347
0.594347
0.594347
0.594347
0.594347