/*--------------------------------*- C++ -*----------------------------------*\
| =========                 |                                                 |
| \\      /  F ield         | foam-extend: Open Source CFD                    |
|  \\    /   O peration     | Version:     4.0                                |
|   \\  /    A nd           | Web:         http://www.foam-extend.org         |
|    \\/     M anipulation  |                                                 |
\*---------------------------------------------------------------------------*/
FoamFile
{
    version     2.0;
    format      ascii;
    class       volScalarField;
    location    "15";
    object      dC2;
}
// * * * * * * * * * * * * * * * * * * * * * * * * * * * * * * * * * * * * * //

dimensions      [0 -1 0 0 0 0 0];

internalField   nonuniform List<scalar> 
6960
(
2.02934e-13
2.02934e-13
2.02934e-13
2.02934e-13
2.02934e-13
2.02934e-13
2.02934e-13
2.02934e-13
2.02934e-13
2.02934e-13
2.02934e-13
2.02934e-13
2.02934e-13
2.02934e-13
2.02934e-13
2.02934e-13
2.02934e-13
2.02934e-13
2.02934e-13
2.02934e-13
2.02934e-13
2.02934e-13
2.02934e-13
2.02934e-13
2.02934e-13
2.02934e-13
2.02934e-13
2.02934e-13
2.02934e-13
2.02934e-13
2.02934e-13
2.02934e-13
2.02934e-13
2.02934e-13
2.02934e-13
2.02934e-13
2.02934e-13
2.02934e-13
2.02934e-13
2.02934e-13
2.02934e-13
2.02934e-13
2.02934e-13
2.02934e-13
2.02934e-13
2.02934e-13
2.02934e-13
2.02934e-13
2.02934e-13
2.02934e-13
2.02934e-13
2.02934e-13
2.02934e-13
2.02934e-13
2.02934e-13
2.02934e-13
2.02934e-13
2.02934e-13
2.02934e-13
2.02934e-13
5.4131e-13
5.4131e-13
5.4131e-13
5.4131e-13
5.4131e-13
5.4131e-13
5.4131e-13
5.4131e-13
5.4131e-13
5.4131e-13
5.4131e-13
5.4131e-13
5.4131e-13
5.4131e-13
5.4131e-13
5.4131e-13
5.4131e-13
5.4131e-13
5.4131e-13
5.4131e-13
5.4131e-13
5.4131e-13
5.4131e-13
5.4131e-13
5.4131e-13
5.4131e-13
5.4131e-13
5.4131e-13
5.4131e-13
5.4131e-13
5.4131e-13
5.4131e-13
5.4131e-13
5.4131e-13
5.4131e-13
5.4131e-13
5.4131e-13
5.4131e-13
5.4131e-13
5.4131e-13
5.4131e-13
5.4131e-13
5.4131e-13
5.4131e-13
5.4131e-13
5.4131e-13
5.4131e-13
5.4131e-13
5.4131e-13
5.4131e-13
5.4131e-13
5.4131e-13
5.4131e-13
5.4131e-13
5.4131e-13
5.4131e-13
5.4131e-13
5.4131e-13
5.4131e-13
5.4131e-13
1.11638e-12
1.11638e-12
1.11638e-12
1.11638e-12
1.11638e-12
1.11638e-12
1.11638e-12
1.11638e-12
1.11638e-12
1.11638e-12
1.11638e-12
1.11638e-12
1.11638e-12
1.11638e-12
1.11638e-12
1.11638e-12
1.11638e-12
1.11638e-12
1.11638e-12
1.11638e-12
1.11638e-12
1.11638e-12
1.11638e-12
1.11638e-12
1.11638e-12
1.11638e-12
1.11638e-12
1.11638e-12
1.11638e-12
1.11638e-12
1.11638e-12
1.11638e-12
1.11638e-12
1.11638e-12
1.11638e-12
1.11638e-12
1.11638e-12
1.11638e-12
1.11638e-12
1.11638e-12
1.11638e-12
1.11638e-12
1.11638e-12
1.11638e-12
1.11638e-12
1.11638e-12
1.11638e-12
1.11638e-12
1.11638e-12
1.11638e-12
1.11638e-12
1.11638e-12
1.11638e-12
1.11638e-12
1.11638e-12
1.11638e-12
1.11638e-12
1.11638e-12
1.11638e-12
1.11638e-12
1.94057e-12
1.94057e-12
1.94057e-12
1.94057e-12
1.94057e-12
1.94057e-12
1.94057e-12
1.94057e-12
1.94057e-12
1.94057e-12
1.94057e-12
1.94057e-12
1.94057e-12
1.94057e-12
1.94057e-12
1.94057e-12
1.94057e-12
1.94057e-12
1.94057e-12
1.94057e-12
1.94057e-12
1.94057e-12
1.94057e-12
1.94057e-12
1.94057e-12
1.94057e-12
1.94057e-12
1.94057e-12
1.94057e-12
1.94057e-12
1.94057e-12
1.94057e-12
1.94057e-12
1.94057e-12
1.94057e-12
1.94057e-12
1.94057e-12
1.94057e-12
1.94057e-12
1.94057e-12
1.94057e-12
1.94057e-12
1.94057e-12
1.94057e-12
1.94057e-12
1.94057e-12
1.94057e-12
1.94057e-12
1.94057e-12
1.94057e-12
1.94057e-12
1.94057e-12
1.94057e-12
1.94057e-12
1.94057e-12
1.94057e-12
1.94057e-12
1.94057e-12
1.94057e-12
1.94057e-12
2.96082e-12
2.96082e-12
2.96082e-12
2.96082e-12
2.96082e-12
2.96082e-12
2.96082e-12
2.96082e-12
2.96082e-12
2.96082e-12
2.96082e-12
2.96082e-12
2.96082e-12
2.96082e-12
2.96082e-12
2.96082e-12
2.96082e-12
2.96082e-12
2.96082e-12
2.96082e-12
2.96082e-12
2.96082e-12
2.96082e-12
2.96082e-12
2.96082e-12
2.96082e-12
2.96082e-12
2.96082e-12
2.96082e-12
2.96082e-12
2.96082e-12
2.96082e-12
2.96082e-12
2.96082e-12
2.96082e-12
2.96082e-12
2.96082e-12
2.96082e-12
2.96082e-12
2.96082e-12
2.96082e-12
2.96082e-12
2.96082e-12
2.96082e-12
2.96082e-12
2.96082e-12
2.96082e-12
2.96082e-12
2.96082e-12
2.96082e-12
2.96082e-12
2.96082e-12
2.96082e-12
2.96082e-12
2.96082e-12
2.96082e-12
2.96082e-12
2.96082e-12
2.96082e-12
2.96082e-12
3.85132e-12
3.85132e-12
3.85132e-12
3.85132e-12
3.85132e-12
3.85132e-12
3.85132e-12
3.85132e-12
3.85132e-12
3.85132e-12
3.85132e-12
3.85132e-12
3.85132e-12
3.85132e-12
3.85132e-12
3.85132e-12
3.85132e-12
3.85132e-12
3.85132e-12
3.85132e-12
3.85132e-12
3.85132e-12
3.85131e-12
3.85132e-12
3.85132e-12
3.85132e-12
3.85132e-12
3.85132e-12
3.85132e-12
3.85132e-12
3.85132e-12
3.85131e-12
3.85132e-12
3.85132e-12
3.85132e-12
3.85131e-12
3.85132e-12
3.85132e-12
3.85132e-12
3.85132e-12
3.85132e-12
3.85132e-12
3.85132e-12
3.85132e-12
3.85132e-12
3.85132e-12
3.85132e-12
3.85132e-12
3.85132e-12
3.85132e-12
3.85132e-12
3.85131e-12
3.85132e-12
3.85132e-12
3.85132e-12
3.85132e-12
3.85132e-12
3.85132e-12
3.85131e-12
3.85132e-12
3.70359e-12
3.70359e-12
3.7036e-12
3.7036e-12
3.7036e-12
3.7036e-12
3.7036e-12
3.7036e-12
3.7036e-12
3.7036e-12
3.7036e-12
3.7036e-12
3.7036e-12
3.7036e-12
3.7036e-12
3.7036e-12
3.7036e-12
3.7036e-12
3.7036e-12
3.7036e-12
3.7036e-12
3.7036e-12
3.7036e-12
3.7036e-12
3.7036e-12
3.7036e-12
3.7036e-12
3.7036e-12
3.7036e-12
3.7036e-12
3.7036e-12
3.7036e-12
3.70359e-12
3.7036e-12
3.7036e-12
3.7036e-12
3.7036e-12
3.7036e-12
3.7036e-12
3.7036e-12
3.7036e-12
3.7036e-12
3.7036e-12
3.7036e-12
3.7036e-12
3.7036e-12
3.7036e-12
3.7036e-12
3.7036e-12
3.7036e-12
3.7036e-12
3.7036e-12
3.7036e-12
3.7036e-12
3.7036e-12
3.7036e-12
3.7036e-12
3.7036e-12
3.7036e-12
3.7036e-12
1.07951e-12
1.07952e-12
1.07952e-12
1.07952e-12
1.07952e-12
1.07952e-12
1.07952e-12
1.07952e-12
1.07952e-12
1.07952e-12
1.07952e-12
1.07952e-12
1.07952e-12
1.07952e-12
1.07952e-12
1.07952e-12
1.07952e-12
1.07952e-12
1.07952e-12
1.07952e-12
1.07952e-12
1.07952e-12
1.07952e-12
1.07952e-12
1.07952e-12
1.07952e-12
1.07952e-12
1.07952e-12
1.07952e-12
1.07952e-12
1.07952e-12
1.07952e-12
1.07952e-12
1.07952e-12
1.07952e-12
1.07952e-12
1.07952e-12
1.07952e-12
1.07952e-12
1.07952e-12
1.07952e-12
1.07952e-12
1.07952e-12
1.07952e-12
1.07952e-12
1.07952e-12
1.07952e-12
1.07952e-12
1.07952e-12
1.07952e-12
1.07952e-12
1.07952e-12
1.07952e-12
1.07952e-12
1.07952e-12
1.07952e-12
1.07952e-12
1.07952e-12
1.07952e-12
1.07951e-12
-4.55053e-12
-4.55053e-12
-4.55053e-12
-4.55052e-12
-4.55054e-12
-4.55053e-12
-4.55052e-12
-4.55053e-12
-4.55052e-12
-4.55053e-12
-4.55053e-12
-4.55053e-12
-4.55053e-12
-4.55053e-12
-4.55053e-12
-4.55053e-12
-4.55052e-12
-4.55053e-12
-4.55053e-12
-4.55053e-12
-4.55053e-12
-4.55052e-12
-4.55053e-12
-4.55053e-12
-4.55053e-12
-4.55052e-12
-4.55054e-12
-4.55053e-12
-4.55053e-12
-4.55053e-12
-4.55053e-12
-4.55052e-12
-4.55053e-12
-4.55053e-12
-4.55052e-12
-4.55052e-12
-4.55053e-12
-4.55053e-12
-4.55053e-12
-4.55054e-12
-4.55053e-12
-4.55053e-12
-4.55053e-12
-4.55052e-12
-4.55053e-12
-4.55052e-12
-4.55052e-12
-4.55053e-12
-4.55053e-12
-4.55052e-12
-4.55052e-12
-4.55053e-12
-4.55053e-12
-4.55053e-12
-4.55053e-12
-4.55053e-12
-4.55053e-12
-4.55053e-12
-4.55054e-12
-4.55054e-12
-1.01722e-11
-1.01721e-11
-1.01722e-11
-1.01722e-11
-1.01721e-11
-1.01722e-11
-1.01722e-11
-1.01722e-11
-1.01722e-11
-1.01722e-11
-1.01721e-11
-1.01721e-11
-1.01721e-11
-1.01721e-11
-1.01722e-11
-1.01721e-11
-1.01722e-11
-1.01721e-11
-1.01721e-11
-1.01722e-11
-1.01721e-11
-1.01722e-11
-1.01721e-11
-1.01722e-11
-1.01722e-11
-1.01722e-11
-1.01721e-11
-1.01722e-11
-1.01721e-11
-1.01721e-11
-1.01722e-11
-1.01722e-11
-1.01722e-11
-1.01721e-11
-1.01722e-11
-1.01722e-11
-1.01722e-11
-1.01721e-11
-1.01722e-11
-1.01721e-11
-1.01721e-11
-1.01722e-11
-1.01722e-11
-1.01722e-11
-1.01721e-11
-1.01722e-11
-1.01722e-11
-1.01721e-11
-1.01722e-11
-1.01722e-11
-1.01722e-11
-1.01722e-11
-1.01721e-11
-1.01721e-11
-1.01722e-11
-1.01722e-11
-1.01721e-11
-1.01721e-11
-1.01721e-11
-1.01722e-11
-9.42536e-12
-9.42538e-12
-9.42537e-12
-9.42537e-12
-9.42539e-12
-9.42537e-12
-9.42538e-12
-9.42538e-12
-9.42539e-12
-9.42537e-12
-9.42538e-12
-9.42539e-12
-9.42537e-12
-9.42538e-12
-9.42539e-12
-9.42539e-12
-9.42538e-12
-9.42538e-12
-9.42539e-12
-9.42536e-12
-9.42538e-12
-9.42538e-12
-9.42539e-12
-9.42537e-12
-9.42538e-12
-9.42537e-12
-9.42538e-12
-9.42537e-12
-9.42537e-12
-9.42538e-12
-9.42539e-12
-9.42538e-12
-9.42538e-12
-9.42538e-12
-9.42537e-12
-9.42538e-12
-9.42537e-12
-9.42539e-12
-9.42537e-12
-9.42537e-12
-9.42537e-12
-9.42538e-12
-9.42538e-12
-9.42538e-12
-9.42538e-12
-9.42538e-12
-9.42538e-12
-9.42539e-12
-9.42537e-12
-9.42538e-12
-9.42539e-12
-9.42538e-12
-9.42538e-12
-9.42539e-12
-9.42537e-12
-9.42537e-12
-9.42539e-12
-9.42538e-12
-9.42538e-12
-9.42537e-12
3.47999e-13
3.48002e-13
3.47981e-13
3.4798e-13
3.47984e-13
3.47961e-13
3.47981e-13
3.4799e-13
3.47998e-13
3.47997e-13
3.47984e-13
3.48008e-13
3.4798e-13
3.47992e-13
3.47994e-13
3.47996e-13
3.4798e-13
3.47995e-13
3.47986e-13
3.47985e-13
3.47993e-13
3.47986e-13
3.47997e-13
3.47993e-13
3.47986e-13
3.47967e-13
3.47984e-13
3.47989e-13
3.47977e-13
3.47981e-13
3.48e-13
3.47993e-13
3.47988e-13
3.47988e-13
3.47991e-13
3.47988e-13
3.47971e-13
3.4799e-13
3.47973e-13
3.47981e-13
3.47977e-13
3.48007e-13
3.47996e-13
3.48012e-13
3.47997e-13
3.47986e-13
3.47996e-13
3.47997e-13
3.47984e-13
3.48001e-13
3.47993e-13
3.4798e-13
3.47988e-13
3.47997e-13
3.47985e-13
3.47972e-13
3.47991e-13
3.47981e-13
3.48001e-13
3.4801e-13
1.14381e-11
1.14381e-11
1.14381e-11
1.14381e-11
1.14381e-11
1.14381e-11
1.14381e-11
1.14381e-11
1.14381e-11
1.14381e-11
1.14381e-11
1.14381e-11
1.14381e-11
1.14381e-11
1.14381e-11
1.14381e-11
1.14381e-11
1.14381e-11
1.14381e-11
1.14381e-11
1.14381e-11
1.14381e-11
1.14381e-11
1.14381e-11
1.14381e-11
1.14381e-11
1.14381e-11
1.14381e-11
1.14381e-11
1.14381e-11
1.14381e-11
1.14381e-11
1.14381e-11
1.14381e-11
1.14381e-11
1.14381e-11
1.14381e-11
1.14381e-11
1.14381e-11
1.14381e-11
1.14381e-11
1.14381e-11
1.14381e-11
1.1438e-11
1.14381e-11
1.14381e-11
1.14381e-11
1.14381e-11
1.14381e-11
1.14381e-11
1.14381e-11
1.14381e-11
1.14381e-11
1.14381e-11
1.14381e-11
1.14381e-11
1.14381e-11
1.14381e-11
1.14381e-11
1.14381e-11
1.2921e-11
1.2921e-11
1.29211e-11
1.2921e-11
1.2921e-11
1.29211e-11
1.2921e-11
1.29211e-11
1.29211e-11
1.29211e-11
1.2921e-11
1.29211e-11
1.29211e-11
1.29211e-11
1.29211e-11
1.29211e-11
1.29211e-11
1.29211e-11
1.29211e-11
1.29211e-11
1.2921e-11
1.29211e-11
1.2921e-11
1.29211e-11
1.2921e-11
1.29211e-11
1.2921e-11
1.29211e-11
1.29211e-11
1.2921e-11
1.29211e-11
1.29211e-11
1.29211e-11
1.29211e-11
1.29211e-11
1.2921e-11
1.29211e-11
1.29211e-11
1.29211e-11
1.29211e-11
1.29211e-11
1.29211e-11
1.29211e-11
1.29211e-11
1.29211e-11
1.2921e-11
1.29211e-11
1.29211e-11
1.29211e-11
1.29211e-11
1.29211e-11
1.29211e-11
1.2921e-11
1.29211e-11
1.29211e-11
1.29211e-11
1.29211e-11
1.29211e-11
1.29211e-11
1.2921e-11
4.68337e-12
4.68339e-12
4.68339e-12
4.68349e-12
4.68344e-12
4.68336e-12
4.68337e-12
4.68336e-12
4.68335e-12
4.6834e-12
4.68342e-12
4.68336e-12
4.68336e-12
4.6834e-12
4.68336e-12
4.68335e-12
4.68337e-12
4.68341e-12
4.68338e-12
4.68334e-12
4.68343e-12
4.68337e-12
4.68337e-12
4.68339e-12
4.68343e-12
4.6834e-12
4.68342e-12
4.68341e-12
4.68337e-12
4.68341e-12
4.68335e-12
4.68341e-12
4.68338e-12
4.68337e-12
4.6834e-12
4.68343e-12
4.68336e-12
4.68333e-12
4.68335e-12
4.68334e-12
4.68332e-12
4.68338e-12
4.68343e-12
4.68335e-12
4.68339e-12
4.68341e-12
4.68333e-12
4.68339e-12
4.68339e-12
4.68339e-12
4.68342e-12
4.68336e-12
4.6834e-12
4.68335e-12
4.68336e-12
4.68335e-12
4.68336e-12
4.68343e-12
4.68341e-12
4.68342e-12
-3.63237e-12
-3.6324e-12
-3.6323e-12
-3.63243e-12
-3.63243e-12
-3.63235e-12
-3.63229e-12
-3.63232e-12
-3.63236e-12
-3.63239e-12
-3.63241e-12
-3.63237e-12
-3.63237e-12
-3.63234e-12
-3.63237e-12
-3.63234e-12
-3.63236e-12
-3.63238e-12
-3.63238e-12
-3.63229e-12
-3.6324e-12
-3.63226e-12
-3.63234e-12
-3.63236e-12
-3.63239e-12
-3.63238e-12
-3.63242e-12
-3.63244e-12
-3.63236e-12
-3.63238e-12
-3.63234e-12
-3.63241e-12
-3.63235e-12
-3.63242e-12
-3.63235e-12
-3.6324e-12
-3.63236e-12
-3.63223e-12
-3.63234e-12
-3.63235e-12
-3.63236e-12
-3.63231e-12
-3.63239e-12
-3.63236e-12
-3.63241e-12
-3.63238e-12
-3.6323e-12
-3.63234e-12
-3.63234e-12
-3.63233e-12
-3.63237e-12
-3.63239e-12
-3.6323e-12
-3.63233e-12
-3.63236e-12
-3.63231e-12
-3.63235e-12
-3.63246e-12
-3.63241e-12
-3.63239e-12
-5.93965e-12
-5.9397e-12
-5.93977e-12
-5.93963e-12
-5.93959e-12
-5.93968e-12
-5.93972e-12
-5.93971e-12
-5.9396e-12
-5.93965e-12
-5.93958e-12
-5.93961e-12
-5.93964e-12
-5.93971e-12
-5.93972e-12
-5.93971e-12
-5.93959e-12
-5.93974e-12
-5.93963e-12
-5.93973e-12
-5.93971e-12
-5.93979e-12
-5.93972e-12
-5.93969e-12
-5.93972e-12
-5.93971e-12
-5.93966e-12
-5.93964e-12
-5.93974e-12
-5.93961e-12
-5.93974e-12
-5.9396e-12
-5.93965e-12
-5.93963e-12
-5.93966e-12
-5.93968e-12
-5.93968e-12
-5.93978e-12
-5.93971e-12
-5.93966e-12
-5.93966e-12
-5.93975e-12
-5.93971e-12
-5.93967e-12
-5.93968e-12
-5.93973e-12
-5.93971e-12
-5.93976e-12
-5.93972e-12
-5.93978e-12
-5.93975e-12
-5.93965e-12
-5.93979e-12
-5.93969e-12
-5.93969e-12
-5.93969e-12
-5.93964e-12
-5.93963e-12
-5.93963e-12
-5.93966e-12
-4.15633e-12
-4.15627e-12
-4.15621e-12
-4.15633e-12
-4.15638e-12
-4.1563e-12
-4.15631e-12
-4.15634e-12
-4.15641e-12
-4.15632e-12
-4.15641e-12
-4.15628e-12
-4.15639e-12
-4.15641e-12
-4.15629e-12
-4.15636e-12
-4.15641e-12
-4.15617e-12
-4.15637e-12
-4.15632e-12
-4.15635e-12
-4.15629e-12
-4.15637e-12
-4.15642e-12
-4.15624e-12
-4.15623e-12
-4.15631e-12
-4.15633e-12
-4.15625e-12
-4.15637e-12
-4.15622e-12
-4.15623e-12
-4.1564e-12
-4.15635e-12
-4.15638e-12
-4.15634e-12
-4.15626e-12
-4.15628e-12
-4.1563e-12
-4.15629e-12
-4.15629e-12
-4.15628e-12
-4.15625e-12
-4.15632e-12
-4.15623e-12
-4.15629e-12
-4.15632e-12
-4.1563e-12
-4.15635e-12
-4.15632e-12
-4.15619e-12
-4.15633e-12
-4.15634e-12
-4.15627e-12
-4.15637e-12
-4.15638e-12
-4.15641e-12
-4.15634e-12
-4.15627e-12
-4.15636e-12
-2.11565e-12
-2.11585e-12
-2.11581e-12
-2.11567e-12
-2.11579e-12
-2.11568e-12
-2.11559e-12
-2.11565e-12
-2.11572e-12
-2.11581e-12
-2.11562e-12
-2.11586e-12
-2.11577e-12
-2.11557e-12
-2.1157e-12
-2.11556e-12
-2.11578e-12
-2.11591e-12
-2.11565e-12
-2.11574e-12
-2.11574e-12
-2.11567e-12
-2.11572e-12
-2.11561e-12
-2.11584e-12
-2.11581e-12
-2.11576e-12
-2.11565e-12
-2.11575e-12
-2.11564e-12
-2.11578e-12
-2.11593e-12
-2.11568e-12
-2.11569e-12
-2.1157e-12
-2.11573e-12
-2.11584e-12
-2.11577e-12
-2.11573e-12
-2.11572e-12
-2.11573e-12
-2.11577e-12
-2.11582e-12
-2.11581e-12
-2.11574e-12
-2.11571e-12
-2.11579e-12
-2.11566e-12
-2.11572e-12
-2.11568e-12
-2.11581e-12
-2.11563e-12
-2.11563e-12
-2.11584e-12
-2.11563e-12
-2.11568e-12
-2.11562e-12
-2.11572e-12
-2.11583e-12
-2.11567e-12
-1.20434e-12
-1.2041e-12
-1.20404e-12
-1.20439e-12
-1.20435e-12
-1.20442e-12
-1.20449e-12
-1.20429e-12
-1.20427e-12
-1.20411e-12
-1.20432e-12
-1.20417e-12
-1.20408e-12
-1.20439e-12
-1.20421e-12
-1.20442e-12
-1.20427e-12
-1.20411e-12
-1.20436e-12
-1.20421e-12
-1.20412e-12
-1.20425e-12
-1.20426e-12
-1.20434e-12
-1.20425e-12
-1.2042e-12
-1.20427e-12
-1.20437e-12
-1.20421e-12
-1.20439e-12
-1.20426e-12
-1.20417e-12
-1.20435e-12
-1.20423e-12
-1.20429e-12
-1.20424e-12
-1.20413e-12
-1.20419e-12
-1.20422e-12
-1.2044e-12
-1.20428e-12
-1.20417e-12
-1.20418e-12
-1.20413e-12
-1.20418e-12
-1.20411e-12
-1.20424e-12
-1.20434e-12
-1.20425e-12
-1.20423e-12
-1.20413e-12
-1.2043e-12
-1.20443e-12
-1.20416e-12
-1.20447e-12
-1.20422e-12
-1.20431e-12
-1.20428e-12
-1.20437e-12
-1.20431e-12
-9.98092e-13
-9.9827e-13
-9.98364e-13
-9.98092e-13
-9.981e-13
-9.98058e-13
-9.98139e-13
-9.98105e-13
-9.98046e-13
-9.98263e-13
-9.98075e-13
-9.98317e-13
-9.98222e-13
-9.9815e-13
-9.98274e-13
-9.97959e-13
-9.98133e-13
-9.98208e-13
-9.98204e-13
-9.98244e-13
-9.98209e-13
-9.98242e-13
-9.98111e-13
-9.98245e-13
-9.9816e-13
-9.98258e-13
-9.9811e-13
-9.98178e-13
-9.9814e-13
-9.98112e-13
-9.98156e-13
-9.98136e-13
-9.98054e-13
-9.98324e-13
-9.98112e-13
-9.98171e-13
-9.98395e-13
-9.98223e-13
-9.98349e-13
-9.98115e-13
-9.98203e-13
-9.98247e-13
-9.98228e-13
-9.98269e-13
-9.98331e-13
-9.98475e-13
-9.98263e-13
-9.9809e-13
-9.98213e-13
-9.98201e-13
-9.98289e-13
-9.98115e-13
-9.98163e-13
-9.98194e-13
-9.98062e-13
-9.98263e-13
-9.98033e-13
-9.98035e-13
-9.98158e-13
-9.98076e-13
-9.13144e-13
-9.13133e-13
-9.1314e-13
-9.13011e-13
-9.13137e-13
-9.13265e-13
-9.129e-13
-9.13212e-13
-9.13169e-13
-9.13132e-13
-9.13184e-13
-9.12943e-13
-9.13273e-13
-9.13157e-13
-9.13134e-13
-9.13321e-13
-9.13026e-13
-9.13205e-13
-9.13033e-13
-9.12932e-13
-9.13199e-13
-9.13057e-13
-9.13274e-13
-9.12976e-13
-9.13185e-13
-9.12932e-13
-9.13223e-13
-9.13083e-13
-9.13268e-13
-9.13198e-13
-9.13064e-13
-9.13137e-13
-9.13246e-13
-9.12896e-13
-9.13075e-13
-9.12958e-13
-9.12897e-13
-9.13087e-13
-9.13054e-13
-9.13068e-13
-9.12976e-13
-9.12926e-13
-9.12952e-13
-9.13065e-13
-9.12889e-13
-9.12847e-13
-9.12893e-13
-9.13358e-13
-9.13221e-13
-9.13057e-13
-9.13165e-13
-9.13283e-13
-9.12848e-13
-9.13216e-13
-9.12983e-13
-9.13103e-13
-9.13337e-13
-9.13256e-13
-9.13057e-13
-9.13123e-13
-7.46464e-13
-7.46132e-13
-7.46358e-13
-7.465e-13
-7.46266e-13
-7.46374e-13
-7.4657e-13
-7.46334e-13
-7.46366e-13
-7.46351e-13
-7.46314e-13
-7.46495e-13
-7.46133e-13
-7.46221e-13
-7.46342e-13
-7.46358e-13
-7.46554e-13
-7.46209e-13
-7.46356e-13
-7.46515e-13
-7.46279e-13
-7.46373e-13
-7.46118e-13
-7.46416e-13
-7.46361e-13
-7.46513e-13
-7.46256e-13
-7.4638e-13
-7.46356e-13
-7.4642e-13
-7.4637e-13
-7.46479e-13
-7.46202e-13
-7.46561e-13
-7.4642e-13
-7.46454e-13
-7.46574e-13
-7.46478e-13
-7.4624e-13
-7.46392e-13
-7.46567e-13
-7.46659e-13
-7.46529e-13
-7.46481e-13
-7.46504e-13
-7.46435e-13
-7.46596e-13
-7.46288e-13
-7.46278e-13
-7.46343e-13
-7.46274e-13
-7.461e-13
-7.46608e-13
-7.46347e-13
-7.46523e-13
-7.46206e-13
-7.46142e-13
-7.46186e-13
-7.46559e-13
-7.46349e-13
-5.29062e-13
-5.29511e-13
-5.29065e-13
-5.29151e-13
-5.29214e-13
-5.29055e-13
-5.29109e-13
-5.29336e-13
-5.29163e-13
-5.2896e-13
-5.28887e-13
-5.29129e-13
-5.29205e-13
-5.29322e-13
-5.28978e-13
-5.29138e-13
-5.29103e-13
-5.29185e-13
-5.29298e-13
-5.29225e-13
-5.29197e-13
-5.29133e-13
-5.29226e-13
-5.29106e-13
-5.29236e-13
-5.28902e-13
-5.29289e-13
-5.28981e-13
-5.28895e-13
-5.28956e-13
-5.29196e-13
-5.28937e-13
-5.2925e-13
-5.29181e-13
-5.29171e-13
-5.29096e-13
-5.28921e-13
-5.2905e-13
-5.29444e-13
-5.29056e-13
-5.29026e-13
-5.28828e-13
-5.29069e-13
-5.28943e-13
-5.29063e-13
-5.29154e-13
-5.29075e-13
-5.29031e-13
-5.2911e-13
-5.29231e-13
-5.29059e-13
-5.29326e-13
-5.29071e-13
-5.29152e-13
-5.29132e-13
-5.29351e-13
-5.29205e-13
-5.29227e-13
-5.2907e-13
-5.29379e-13
-3.30191e-13
-3.29907e-13
-3.30243e-13
-3.30214e-13
-3.3013e-13
-3.30492e-13
-3.30159e-13
-3.30019e-13
-3.30236e-13
-3.30444e-13
-3.30472e-13
-3.2999e-13
-3.30228e-13
-3.30364e-13
-3.30539e-13
-3.30088e-13
-3.30278e-13
-3.30091e-13
-3.30193e-13
-3.30147e-13
-3.30138e-13
-3.30096e-13
-3.30285e-13
-3.30092e-13
-3.3005e-13
-3.30367e-13
-3.30234e-13
-3.30416e-13
-3.30475e-13
-3.30492e-13
-3.30113e-13
-3.30442e-13
-3.30348e-13
-3.30157e-13
-3.30298e-13
-3.30344e-13
-3.30559e-13
-3.30235e-13
-3.29912e-13
-3.30223e-13
-3.30476e-13
-3.30344e-13
-3.30265e-13
-3.30505e-13
-3.30359e-13
-3.30257e-13
-3.30188e-13
-3.30325e-13
-3.30123e-13
-3.30131e-13
-3.30441e-13
-3.30315e-13
-3.30181e-13
-3.30034e-13
-3.30213e-13
-3.30241e-13
-3.30263e-13
-3.30148e-13
-3.30156e-13
-3.30101e-13
-1.83726e-13
-1.83544e-13
-1.83524e-13
-1.83341e-13
-1.83431e-13
-1.83001e-13
-1.8331e-13
-1.8368e-13
-1.83303e-13
-1.83229e-13
-1.83486e-13
-1.83737e-13
-1.8352e-13
-1.8298e-13
-1.83263e-13
-1.83471e-13
-1.83463e-13
-1.83634e-13
-1.8355e-13
-1.83346e-13
-1.83358e-13
-1.83648e-13
-1.83393e-13
-1.83625e-13
-1.83454e-13
-1.83395e-13
-1.83479e-13
-1.83504e-13
-1.83115e-13
-1.83327e-13
-1.83522e-13
-1.83292e-13
-1.8315e-13
-1.83498e-13
-1.83488e-13
-1.83317e-13
-1.83065e-13
-1.83419e-13
-1.83719e-13
-1.83455e-13
-1.83058e-13
-1.8355e-13
-1.83459e-13
-1.83133e-13
-1.83314e-13
-1.83352e-13
-1.83372e-13
-1.8327e-13
-1.83492e-13
-1.83353e-13
-1.83225e-13
-1.8335e-13
-1.83253e-13
-1.83569e-13
-1.83357e-13
-1.83214e-13
-1.83406e-13
-1.83426e-13
-1.83342e-13
-1.83394e-13
-8.9127e-14
-8.91563e-14
-8.90961e-14
-8.9357e-14
-8.94736e-14
-8.96422e-14
-8.96625e-14
-8.90303e-14
-8.96808e-14
-8.94162e-14
-8.92738e-14
-8.92216e-14
-8.92987e-14
-8.95984e-14
-8.94099e-14
-8.9549e-14
-8.9455e-14
-8.90319e-14
-8.94459e-14
-8.95142e-14
-8.93099e-14
-8.90014e-14
-8.94021e-14
-8.92473e-14
-8.94383e-14
-8.94231e-14
-8.94354e-14
-8.95418e-14
-8.96216e-14
-8.91501e-14
-8.93428e-14
-8.94443e-14
-8.96587e-14
-8.92819e-14
-8.93901e-14
-8.931e-14
-8.95819e-14
-8.95102e-14
-8.93495e-14
-8.9378e-14
-8.95343e-14
-8.92914e-14
-8.93449e-14
-8.96107e-14
-8.93858e-14
-8.94117e-14
-8.96276e-14
-8.96452e-14
-8.93483e-14
-8.93721e-14
-8.95361e-14
-8.94047e-14
-8.96397e-14
-8.92102e-14
-8.95641e-14
-8.95055e-14
-8.94271e-14
-8.94362e-14
-8.97585e-14
-8.93653e-14
-3.51403e-14
-3.54358e-14
-3.52785e-14
-3.49758e-14
-3.47885e-14
-3.50526e-14
-3.47039e-14
-3.52305e-14
-3.46337e-14
-3.51077e-14
-3.50509e-14
-3.50641e-14
-3.48577e-14
-3.51602e-14
-3.50012e-14
-3.48287e-14
-3.50709e-14
-3.52927e-14
-3.48538e-14
-3.49583e-14
-3.52668e-14
-3.52482e-14
-3.51253e-14
-3.49856e-14
-3.51412e-14
-3.48744e-14
-3.49375e-14
-3.46967e-14
-3.47645e-14
-3.54248e-14
-3.51257e-14
-3.53522e-14
-3.50233e-14
-3.4882e-14
-3.51277e-14
-3.53027e-14
-3.52665e-14
-3.47733e-14
-3.49427e-14
-3.5173e-14
-3.50465e-14
-3.48295e-14
-3.48947e-14
-3.49295e-14
-3.47996e-14
-3.49239e-14
-3.49045e-14
-3.51294e-14
-3.51166e-14
-3.53173e-14
-3.5211e-14
-3.50184e-14
-3.50146e-14
-3.52597e-14
-3.50616e-14
-3.51916e-14
-3.51152e-14
-3.49606e-14
-3.46854e-14
-3.52029e-14
-6.09287e-15
-5.57138e-15
-5.75161e-15
-6.34839e-15
-5.96319e-15
-5.77036e-15
-6.24824e-15
-6.04442e-15
-6.34522e-15
-6.12532e-15
-6.14306e-15
-6.15847e-15
-5.95027e-15
-5.83036e-15
-6.11537e-15
-5.9658e-15
-5.68813e-15
-5.80469e-15
-6.25668e-15
-6.04158e-15
-6.00159e-15
-6.3189e-15
-5.95732e-15
-6.04244e-15
-5.80995e-15
-6.3165e-15
-5.98965e-15
-6.49003e-15
-6.3197e-15
-5.98579e-15
-5.96888e-15
-5.67941e-15
-5.97208e-15
-5.80473e-15
-5.92058e-15
-5.66109e-15
-5.87808e-15
-6.47774e-15
-5.92863e-15
-5.89395e-15
-5.96549e-15
-6.21689e-15
-6.2374e-15
-6.02071e-15
-6.46612e-15
-6.34919e-15
-5.9723e-15
-6.02786e-15
-5.78941e-15
-5.987e-15
-6.07089e-15
-6.0258e-15
-6.03618e-15
-6.02239e-15
-6.33276e-15
-5.66838e-15
-5.94241e-15
-6.05206e-15
-6.07635e-15
-6.03599e-15
8.34653e-15
8.29313e-15
8.61805e-15
8.78203e-15
8.22048e-15
8.16238e-15
8.4889e-15
8.49324e-15
8.08703e-15
8.60293e-15
8.46859e-15
8.3527e-15
8.16333e-15
8.50906e-15
8.22571e-15
8.53766e-15
7.91982e-15
8.16416e-15
8.44975e-15
8.34807e-15
8.5412e-15
8.88287e-15
8.5086e-15
8.55823e-15
8.2786e-15
8.47492e-15
8.43687e-15
8.70531e-15
8.47491e-15
8.55272e-15
8.13086e-15
8.1892e-15
8.27443e-15
8.10659e-15
8.03378e-15
8.16325e-15
8.28729e-15
8.67039e-15
8.14163e-15
8.04113e-15
8.17101e-15
8.56827e-15
8.4104e-15
8.23082e-15
8.85705e-15
8.58379e-15
8.13044e-15
8.28941e-15
8.34687e-15
8.63179e-15
8.66606e-15
8.49243e-15
8.55689e-15
8.6886e-15
8.50156e-15
8.17746e-15
8.36477e-15
8.36262e-15
8.38422e-15
8.51128e-15
1.50908e-14
1.50133e-14
1.45818e-14
1.44216e-14
1.50833e-14
1.51305e-14
1.49668e-14
1.46053e-14
1.5487e-14
1.49123e-14
1.48926e-14
1.51362e-14
1.49913e-14
1.47257e-14
1.50747e-14
1.46467e-14
1.52551e-14
1.50824e-14
1.48629e-14
1.50737e-14
1.49312e-14
1.47487e-14
1.48201e-14
1.51814e-14
1.51844e-14
1.50141e-14
1.4623e-14
1.49515e-14
1.48981e-14
1.48913e-14
1.50038e-14
1.51449e-14
1.50293e-14
1.49463e-14
1.52094e-14
1.52473e-14
1.47808e-14
1.48705e-14
1.49804e-14
1.51603e-14
1.50301e-14
1.48221e-14
1.49387e-14
1.5016e-14
1.47485e-14
1.46878e-14
1.49504e-14
1.52349e-14
1.4962e-14
1.49014e-14
1.48378e-14
1.46897e-14
1.49998e-14
1.46626e-14
1.50299e-14
1.49446e-14
1.50098e-14
1.48526e-14
1.51672e-14
1.46595e-14
1.74149e-14
1.73917e-14
1.73542e-14
1.74431e-14
1.72761e-14
1.7379e-14
1.73257e-14
1.76355e-14
1.68732e-14
1.72194e-14
1.73512e-14
1.74063e-14
1.76027e-14
1.73459e-14
1.75368e-14
1.76123e-14
1.73372e-14
1.73202e-14
1.76468e-14
1.73178e-14
1.73644e-14
1.72844e-14
1.77639e-14
1.70418e-14
1.73261e-14
1.70199e-14
1.77621e-14
1.72626e-14
1.76529e-14
1.75021e-14
1.736e-14
1.7226e-14
1.71897e-14
1.75098e-14
1.73569e-14
1.71822e-14
1.76122e-14
1.72212e-14
1.78096e-14
1.76595e-14
1.72938e-14
1.73682e-14
1.76891e-14
1.73434e-14
1.74172e-14
1.77407e-14
1.77868e-14
1.72754e-14
1.75544e-14
1.7041e-14
1.72067e-14
1.75103e-14
1.71827e-14
1.75147e-14
1.72943e-14
1.72115e-14
1.76213e-14
1.75437e-14
1.71789e-14
1.76622e-14
1.7798e-14
1.77982e-14
1.78185e-14
1.79947e-14
1.79039e-14
1.757e-14
1.78401e-14
1.75468e-14
1.80687e-14
1.77438e-14
1.78662e-14
1.79551e-14
1.74257e-14
1.77193e-14
1.75344e-14
1.78104e-14
1.77753e-14
1.77571e-14
1.75323e-14
1.76021e-14
1.79291e-14
1.79576e-14
1.72493e-14
1.78815e-14
1.76562e-14
1.81247e-14
1.78233e-14
1.80775e-14
1.76559e-14
1.77696e-14
1.75848e-14
1.77358e-14
1.79245e-14
1.74539e-14
1.75902e-14
1.77643e-14
1.75079e-14
1.80983e-14
1.7605e-14
1.79058e-14
1.79829e-14
1.75546e-14
1.75361e-14
1.7531e-14
1.75084e-14
1.76989e-14
1.75585e-14
1.76247e-14
1.78229e-14
1.79099e-14
1.78238e-14
1.79845e-14
1.80801e-14
1.75335e-14
1.75256e-14
1.78508e-14
1.75194e-14
1.75374e-14
1.79495e-14
1.77281e-14
1.68065e-14
1.6925e-14
1.69751e-14
1.73359e-14
1.67623e-14
1.71524e-14
1.68769e-14
1.72536e-14
1.69974e-14
1.71749e-14
1.71312e-14
1.66185e-14
1.72578e-14
1.71794e-14
1.70786e-14
1.6836e-14
1.71674e-14
1.69089e-14
1.66692e-14
1.71945e-14
1.70354e-14
1.69365e-14
1.74075e-14
1.70947e-14
1.71016e-14
1.70531e-14
1.70588e-14
1.64508e-14
1.68704e-14
1.71559e-14
1.73356e-14
1.71498e-14
1.70356e-14
1.74114e-14
1.72332e-14
1.75074e-14
1.73068e-14
1.679e-14
1.70053e-14
1.68735e-14
1.70707e-14
1.73011e-14
1.70081e-14
1.72713e-14
1.76531e-14
1.67853e-14
1.67259e-14
1.69983e-14
1.68386e-14
1.69623e-14
1.70803e-14
1.69618e-14
1.66118e-14
1.7285e-14
1.742e-14
1.72189e-14
1.7081e-14
1.71367e-14
1.68658e-14
1.74596e-14
1.58748e-14
1.63069e-14
1.60554e-14
1.52732e-14
1.61025e-14
1.57715e-14
1.61221e-14
1.60018e-14
1.57814e-14
1.58043e-14
1.57346e-14
1.62657e-14
1.60345e-14
1.55649e-14
1.61095e-14
1.61347e-14
1.60772e-14
1.63796e-14
1.62291e-14
1.57796e-14
1.56801e-14
1.55817e-14
1.59932e-14
1.6199e-14
1.59222e-14
1.5759e-14
1.56125e-14
1.62662e-14
1.60689e-14
1.58624e-14
1.58668e-14
1.61172e-14
1.62019e-14
1.58732e-14
1.57589e-14
1.57024e-14
1.57616e-14
1.61367e-14
1.61531e-14
1.58788e-14
1.58077e-14
1.56695e-14
1.60807e-14
1.59514e-14
1.56655e-14
1.63413e-14
1.63762e-14
1.57726e-14
1.62962e-14
1.60981e-14
1.55738e-14
1.58248e-14
1.63332e-14
1.60124e-14
1.57456e-14
1.60204e-14
1.5831e-14
1.60099e-14
1.59325e-14
1.57686e-14
1.51306e-14
1.43664e-14
1.45923e-14
1.51845e-14
1.43816e-14
1.49383e-14
1.46863e-14
1.48978e-14
1.47593e-14
1.4732e-14
1.4546e-14
1.48237e-14
1.45785e-14
1.52032e-14
1.44629e-14
1.46434e-14
1.42439e-14
1.42873e-14
1.44994e-14
1.44735e-14
1.50008e-14
1.52286e-14
1.43887e-14
1.40529e-14
1.46368e-14
1.47516e-14
1.49439e-14
1.45927e-14
1.47523e-14
1.48536e-14
1.46631e-14
1.42818e-14
1.40748e-14
1.46757e-14
1.47602e-14
1.45169e-14
1.45183e-14
1.44388e-14
1.4529e-14
1.46476e-14
1.42806e-14
1.50005e-14
1.43557e-14
1.43987e-14
1.4592e-14
1.42045e-14
1.449e-14
1.46466e-14
1.39741e-14
1.45458e-14
1.51621e-14
1.48755e-14
1.42593e-14
1.42294e-14
1.48373e-14
1.44209e-14
1.47489e-14
1.4487e-14
1.4437e-14
1.43855e-14
1.26682e-14
1.34496e-14
1.30674e-14
1.31217e-14
1.3763e-14
1.35637e-14
1.30856e-14
1.2747e-14
1.30431e-14
1.34263e-14
1.35359e-14
1.30261e-14
1.3228e-14
1.29394e-14
1.36245e-14
1.30412e-14
1.35872e-14
1.35151e-14
1.32822e-14
1.3368e-14
1.32122e-14
1.27056e-14
1.35388e-14
1.37378e-14
1.33982e-14
1.31118e-14
1.31346e-14
1.33908e-14
1.30965e-14
1.32526e-14
1.33393e-14
1.35679e-14
1.38387e-14
1.28142e-14
1.36667e-14
1.34835e-14
1.35147e-14
1.33501e-14
1.34905e-14
1.31581e-14
1.37837e-14
1.30945e-14
1.32776e-14
1.36825e-14
1.32837e-14
1.3515e-14
1.34477e-14
1.32123e-14
1.36277e-14
1.31881e-14
1.27589e-14
1.30408e-14
1.33234e-14
1.32831e-14
1.30004e-14
1.3052e-14
1.33663e-14
1.33762e-14
1.37233e-14
1.34926e-14
1.22819e-14
1.2049e-14
1.18513e-14
1.19666e-14
1.14259e-14
1.11647e-14
1.23142e-14
1.22239e-14
1.19616e-14
1.18082e-14
1.16867e-14
1.21469e-14
1.22392e-14
1.21302e-14
1.16406e-14
1.22565e-14
1.17665e-14
1.16935e-14
1.18082e-14
1.16906e-14
1.16248e-14
1.18821e-14
1.16564e-14
1.16963e-14
1.16873e-14
1.19323e-14
1.21329e-14
1.187e-14
1.18178e-14
1.21288e-14
1.18585e-14
1.20406e-14
1.178e-14
1.27546e-14
1.12835e-14
1.16414e-14
1.18104e-14
1.15912e-14
1.16636e-14
1.24086e-14
1.15752e-14
1.21675e-14
1.18424e-14
1.16683e-14
1.21155e-14
1.18154e-14
1.18619e-14
1.20957e-14
1.2153e-14
1.20555e-14
1.23803e-14
1.19779e-14
1.19243e-14
1.19654e-14
1.23559e-14
1.23338e-14
1.14054e-14
1.21208e-14
1.15434e-14
1.20245e-14
1.05624e-14
1.06762e-14
1.12733e-14
1.06857e-14
1.09744e-14
1.10095e-14
1.03065e-14
1.07402e-14
1.05962e-14
1.07018e-14
1.11126e-14
1.05274e-14
1.04889e-14
1.06796e-14
1.04687e-14
1.10413e-14
1.09214e-14
1.09377e-14
1.12326e-14
1.10292e-14
1.09465e-14
1.09935e-14
1.06106e-14
1.0586e-14
1.07308e-14
1.11027e-14
1.07648e-14
1.08247e-14
1.08876e-14
1.07728e-14
1.06949e-14
1.0543e-14
1.05863e-14
1.0148e-14
1.09982e-14
1.10725e-14
1.08795e-14
1.10805e-14
1.06343e-14
1.01741e-14
1.13195e-14
1.06222e-14
1.10209e-14
1.08843e-14
1.09404e-14
1.08575e-14
1.0317e-14
1.06945e-14
1.05631e-14
1.06409e-14
1.05709e-14
1.08319e-14
1.08294e-14
1.06115e-14
1.05296e-14
1.06135e-14
1.12704e-14
1.05622e-14
1.0923e-14
1.06659e-14
9.84441e-15
9.59437e-15
9.35831e-15
9.42787e-15
9.63858e-15
9.54793e-15
1.01218e-14
9.60645e-15
1.03009e-14
9.74566e-15
9.56316e-15
9.63369e-15
9.56788e-15
9.49972e-15
1.01282e-14
9.1299e-15
9.66806e-15
1.01444e-14
9.23398e-15
9.3866e-15
9.87034e-15
9.47249e-15
9.90757e-15
9.79547e-15
9.85612e-15
9.71927e-15
9.3524e-15