/*--------------------------------*- C++ -*----------------------------------*\
| =========                 |                                                 |
| \\      /  F ield         | foam-extend: Open Source CFD                    |
|  \\    /   O peration     | Version:     4.0                                |
|   \\  /    A nd           | Web:         http://www.foam-extend.org         |
|    \\/     M anipulation  |                                                 |
\*---------------------------------------------------------------------------*/
FoamFile
{
    version     2.0;
    format      ascii;
    class       volScalarField;
    location    "15";
    object      dPhi;
}
// * * * * * * * * * * * * * * * * * * * * * * * * * * * * * * * * * * * * * //

dimensions      [0 -1 0 0 0 0 0];

internalField   nonuniform List<scalar> 
6960
(
1.99544e-15
-3.24119e-15
-2.07391e-15
-1.39449e-15
-8.80779e-16
-1.07132e-15
-9.41867e-17
1.3805e-15
1.46193e-15
1.38391e-15
1.55844e-16
1.35872e-15
6.14177e-16
1.43018e-15
3.95646e-16
-1.78051e-15
1.6509e-15
1.39542e-15
9.79516e-16
-1.79781e-15
1.78451e-15
-2.11559e-15
2.6096e-15
6.55512e-16
-1.8114e-15
-2.05579e-15
-2.06402e-15
-1.05279e-15
-7.51799e-16
-2.30739e-15
6.69495e-17
7.14892e-16
-1.39422e-17
3.01086e-16
-1.04419e-15
2.32424e-15
-9.41867e-17
-3.04998e-15
-3.31344e-15
1.47235e-15
5.33685e-16
6.66971e-16
-2.46588e-15
-2.22928e-15
5.78866e-16
9.29974e-17
6.68387e-16
-3.23445e-15
-7.10972e-16
-1.48805e-15
-6.85195e-16
1.16511e-15
-1.59862e-15
-8.31343e-16
-3.58373e-15
2.35505e-15
-8.06179e-16
2.47716e-15
2.25498e-15
-1.05371e-15
-4.46285e-17
3.85622e-15
3.84179e-15
6.59385e-16
-1.56776e-16
2.68835e-15
9.29703e-17
1.54309e-16
-3.93538e-16
-1.12136e-15
-1.27845e-15
-2.17088e-15
-1.62205e-15
-2.20836e-15
-7.92525e-16
-2.42341e-15
2.81561e-15
-2.03091e-15
4.22791e-15
-2.1743e-15
-1.52321e-15
-6.78467e-16
1.55933e-15
-2.56839e-15
-9.01921e-17
3.13802e-15
-4.68917e-18
3.04516e-15
-2.9787e-15
1.27837e-15
1.09929e-15
3.72518e-16
1.90738e-16
1.56076e-15
1.34034e-17
-8.75209e-16
9.75362e-16
9.57188e-16
3.85118e-15
2.33231e-15
3.23404e-16
2.75467e-15
3.05887e-15
1.44669e-15
-1.87522e-15
3.75997e-15
6.72504e-16
-1.04288e-15
-2.47258e-15
-8.17421e-16
1.35643e-15
-1.36998e-15
-7.27622e-16
1.90501e-15
1.72758e-15
5.09968e-16
6.73303e-16
-6.41888e-16
-1.18639e-16
-1.31622e-16
-2.49919e-15
-5.88432e-15
1.23767e-15
-3.85163e-17
-4.38484e-15
-1.18043e-15
2.68847e-15
6.81296e-15
1.80574e-16
1.69111e-15
2.62331e-15
3.96552e-15
1.54461e-15
-1.1901e-15
-4.17697e-15
-2.35968e-15
-2.69432e-15
-1.83826e-16
-1.73315e-15
2.14442e-15
2.75116e-15
-4.55961e-16
2.20703e-15
-3.11982e-15
2.25425e-15
1.13337e-15
2.0885e-15
-2.15035e-15
1.15196e-16
-5.25459e-16
-1.39694e-15
-1.56152e-16
4.77897e-15
-4.67833e-16
-3.11264e-15
-3.73876e-15
-2.39953e-15
1.09971e-15
6.16396e-16
-4.96524e-15
-3.25477e-15
5.8204e-15
-4.97635e-15
-1.55331e-15
7.55011e-16
7.35143e-16
-3.24838e-15
1.45871e-15
1.12559e-15
-2.65413e-16
-1.37124e-16
2.65413e-15
4.23861e-15
-6.88252e-16
-1.16492e-15
-2.58498e-15
-1.80352e-15
1.19287e-15
-2.56224e-16
-2.07104e-15
5.79392e-15
3.09106e-15
-1.13342e-15
2.93927e-16
4.47017e-16
5.81463e-15
1.65574e-15
-1.51582e-15
1.01481e-16
-2.71679e-15
2.53362e-15
-1.75576e-15
2.41463e-15
-2.9396e-15
3.48257e-15
1.85892e-15
4.07833e-15
-9.55887e-16
-3.44831e-16
-4.15114e-15
-2.66844e-15
-4.91317e-15
3.3117e-15
2.97749e-15
-1.58906e-15
-1.69504e-15
-7.4031e-15
-3.50739e-16
2.72259e-15
2.44975e-15
1.7775e-15
-1.2728e-15
-1.02631e-15
6.7748e-15
-1.887e-15
3.25955e-15
-1.22558e-15
-3.6118e-15
1.76671e-16
6.46564e-15
-8.70885e-16
2.72688e-15
-1.00652e-15
1.15901e-15
3.21932e-15
-2.74504e-15
2.93754e-15
7.27592e-15
2.39847e-15
-1.44887e-15
-9.66458e-16
1.7022e-17
-6.77366e-15
3.7869e-15
2.85357e-15
-2.30306e-15
-5.92842e-15
1.11651e-15
1.38263e-15
2.35299e-15
-1.03435e-14
-2.63678e-16
1.25887e-15
6.17247e-15
4.04006e-15
7.6781e-15
-5.5316e-16
3.4186e-15
-3.30335e-15
-5.39716e-16
1.63259e-15
-1.82341e-15
-2.30089e-15
4.48979e-15
-6.30138e-16
-6.70395e-15
-2.48911e-15
-1.84195e-15
-4.07942e-15
2.39446e-15
5.22911e-15
2.83606e-15
2.83345e-15
-5.10659e-17
2.53714e-15
-6.11848e-15
8.9798e-15
3.5345e-15
-5.00901e-17
7.90492e-16
1.1048e-16
8.73216e-16
1.51138e-16
-5.58462e-15
-1.6378e-15
1.75066e-15
6.70666e-15
-1.18612e-16
-6.93044e-15
-2.0743e-15
-5.07342e-15
-2.48087e-15
2.20798e-15
-3.58828e-15
1.10578e-15
2.28008e-15
-7.05642e-15
-2.20603e-15
-3.19308e-15
7.58183e-16
-3.40439e-17
3.38098e-15
2.71853e-15
-8.627e-16
2.12612e-16
-8.22042e-16
9.5425e-15
-2.13046e-16
3.74267e-16
-4.6277e-15
5.89286e-15
4.03605e-15
-1.01742e-15
-2.13978e-15
-4.57295e-15
-9.52905e-15
5.53008e-15
4.45022e-15
7.1991e-15
5.66929e-15
-5.70507e-15
5.00901e-17
5.78313e-15
-5.75538e-15
6.22506e-15
3.46945e-16
6.38508e-15
-1.90321e-15
1.32533e-15
-5.62939e-15
-5.56846e-16
-1.41206e-15
-6.07869e-15
7.87976e-15
1.54043e-15
-2.40368e-15
-2.58517e-15
-5.10594e-15
3.66243e-15
-6.21248e-16
-6.53037e-15
2.12157e-15
-2.97288e-15
3.92394e-15
-3.92525e-15
-7.65945e-15
-1.41775e-14
-7.61609e-15
9.60451e-15
-2.704e-15
7.31186e-16
5.93492e-15
-5.9076e-15
-4.44371e-15
-8.16621e-16
-2.40368e-15
5.56521e-15
7.25548e-15
2.8083e-15
-4.26091e-16
5.69987e-15
-1.37412e-15
5.3501e-15
4.37953e-15
5.02593e-15
3.61256e-15
-5.43923e-15
3.43107e-15
6.75458e-16
7.13405e-16
-3.3285e-15
-6.46618e-15
-9.4382e-15
-3.88578e-16
3.81249e-15
2.14759e-15
1.91297e-15
-2.62897e-15
-4.75358e-15
-3.61039e-15
7.05122e-15
2.85275e-15
-2.62681e-15
7.26329e-15
-4.56623e-15
1.4589e-15
-6.91287e-15
-8.45678e-17
4.24574e-15
2.71918e-15
7.4502e-15
6.30919e-15
9.89963e-15
-5.34512e-15
-4.8607e-15
-1.85182e-16
6.07153e-18
6.69603e-16
2.32887e-15
1.65666e-16
3.5332e-15
-1.81669e-15
-3.40613e-15
-3.16023e-15
-1.08333e-15
5.36333e-15
7.78804e-15
4.79825e-15
-7.27586e-15
-6.13138e-15
2.59558e-15
-6.72639e-16
6.26409e-15
6.02253e-15
1.78893e-15
8.46719e-15
-6.38378e-15
-7.41291e-15
5.24754e-17
8.65931e-15
-7.47449e-15
-1.44242e-15
-1.01438e-15
-2.98633e-15
-5.13131e-15
-5.79094e-15
7.51786e-15
-3.88925e-15
3.47552e-15
2.14715e-15
2.08254e-15
9.28511e-15
1.24943e-14
4.17028e-15
9.97639e-15
2.05218e-15
-9.94864e-15
-5.56066e-15
1.64105e-15
-5.43142e-15
3.63078e-15
-3.78864e-15
-1.44589e-15
-3.67848e-15
-5.1582e-15
3.56312e-15
-7.6588e-16
-7.73687e-15
-7.38992e-16
2.65673e-15
3.99854e-16
-1.27997e-14
-3.37144e-15
8.78117e-15
9.17755e-15
-3.0774e-15
4.81993e-15
-2.2031e-16
-5.72112e-15
-1.98886e-15
-4.97345e-15
-7.90253e-15
5.52076e-15
-1.84835e-15
3.63338e-15
-6.32914e-15
-2.72785e-15
-1.24119e-15
7.91728e-15
7.87044e-15
-5.0307e-15
1.11283e-15
1.28803e-15
-4.99253e-15
8.41341e-17
-6.99441e-15
-5.68816e-15
6.59108e-15
-3.19189e-15
-3.832e-15
5.2779e-15
7.50788e-15
3.17628e-15
9.66414e-15
6.50521e-15
1.70003e-15
1.24466e-15
4.8685e-15
2.8224e-15
-3.21791e-16
1.74166e-15
-6.22419e-15
-5.4904e-15
3.29597e-16
-1.86379e-14
-7.46105e-15
2.36807e-14
1.37165e-14
9.57741e-15
1.04552e-14
-5.55285e-15
-5.12437e-15
-8.18443e-15
-4.16681e-15
6.53123e-15
-9.74915e-16
-5.1608e-15
-2.53096e-15
-5.21458e-15
-4.19803e-15
-1.24206e-15
1.40669e-14
-3.89792e-15
-7.59288e-15
1.38084e-15
-2.70964e-15
-6.56246e-15
-1.80932e-15
-2.24473e-15
-4.71498e-15
3.832e-15
9.62945e-15
1.0842e-15
-1.75554e-15
9.57394e-15
7.32053e-16
-1.35482e-15
9.99895e-15
-9.35016e-16
-8.04218e-15
-2.27769e-15
8.80719e-15
-1.05471e-15
1.94376e-14
9.19403e-16
2.1181e-15
1.36349e-15
9.87058e-16
6.49827e-15
3.63772e-15
7.11237e-15
-1.34979e-14
-1.11161e-14
-2.18922e-15
2.498e-15
8.79158e-15
2.35402e-15
-3.56659e-15
-4.35936e-15
-2.45116e-15
-5.07233e-15
-6.07153e-17
-3.81813e-15
-5.86857e-15
2.49575e-14
9.1975e-15
-1.69326e-14
-1.12046e-14
-3.11209e-15
-1.02071e-14
-3.01495e-15
1.07848e-14
1.76404e-14
1.75762e-14
4.22579e-15
1.0339e-14
1.35707e-14
1.34961e-14
7.1939e-15
1.7486e-15
1.45977e-14
-7.47319e-15
1.60184e-14
-1.39645e-15
-5.11743e-15
-3.27689e-15
5.25274e-15
-5.68295e-15
5.38111e-15
1.17354e-14
4.32293e-15
-1.18048e-14
2.60209e-17
3.86843e-16
-2.03483e-14
3.76955e-15
-7.03257e-15
5.96745e-16
-9.34842e-15
1.14075e-14
9.55833e-16
-9.46118e-15
-1.48492e-15
-2.06467e-14
1.66533e-15
8.03177e-15
4.99774e-15
1.27311e-14
-3.81119e-15
-4.66641e-15
3.3671e-15
1.73472e-18
4.45997e-15
1.06738e-14
-1.44659e-14
-1.56351e-14
-2.95076e-15
1.21604e-14
9.96425e-15
1.72432e-15
1.3916e-14
5.18335e-15
6.54338e-15
4.38538e-15
-1.93907e-14
9.07954e-15
2.36894e-14
-7.65013e-15
-8.93036e-15
7.12277e-15
1.44711e-14
-1.83777e-14
-1.6688e-15
-3.16414e-15
-7.63625e-15
-7.13665e-15
-1.79405e-14
6.04725e-15
-2.29677e-15
7.49401e-15
1.30104e-15
1.02418e-14
-2.10075e-14
-7.33441e-15
2.64025e-15
1.38604e-14
4.17374e-15
6.01602e-15
7.5738e-15
-6.28664e-15
-1.01134e-14
-2.48759e-15
5.39499e-15
-3.02536e-15
2.1292e-14
4.58661e-15
1.33921e-14
-2.02546e-14
3.39659e-15
-3.15026e-15
-1.05471e-15
-4.97866e-15
1.37043e-15
4.49293e-15
-6.74114e-15
4.51028e-15
-9.20097e-15
-7.23727e-15
4.36456e-15
-9.57567e-15
-1.00787e-14
6.245e-16
6.35256e-15
-6.27623e-15
7.05686e-15
1.87662e-14
-6.15133e-15
-1.00094e-14
-6.075e-15
-9.7318e-15
-6.25194e-15
-4.21191e-15
-1.11716e-15
6.07847e-15
-2.40086e-15
-1.48909e-14
-1.4877e-14
2.81025e-15
1.03112e-14
-4.84335e-15
-1.62301e-14
2.12885e-14
-9.29812e-16
3.28904e-15
1.70697e-15
4.01762e-15
1.97758e-15
6.51562e-15
3.15026e-15
-2.23432e-15
-3.95517e-16
-1.1123e-14
7.86871e-15
-2.04003e-15
-7.50094e-15
-1.32047e-14
-1.21986e-14
8.23647e-15
-7.48707e-15
4.09395e-16
7.14012e-15
4.44089e-16
-1.20459e-14
1.38362e-14
-1.12549e-14
-9.73527e-15
-1.6466e-14
1.36002e-15
-1.67227e-15
1.41831e-14
5.98133e-15
5.48173e-16
6.14092e-15
1.23304e-14
1.90126e-15
-6.17562e-15
3.08087e-15
4.14252e-15
1.18655e-15
9.72139e-15
7.42462e-15
-7.34829e-15
-1.25108e-14
1.01238e-14
-6.2797e-15
-1.1241e-14
8.87485e-15
7.28584e-16
-2.22045e-15
1.15949e-14
6.62664e-15
6.17562e-16
-3.67761e-15
-5.81479e-15
1.50505e-14
6.53644e-15
4.68375e-15
-3.92741e-15
-6.66134e-16
-1.14075e-14
2.58474e-14
-7.99361e-15
5.7801e-15
6.84869e-15
-2.81025e-15
-1.62301e-14
1.21708e-14
2.10942e-15
-5.51642e-15
-9.24955e-15
-1.76942e-15
1.00198e-14
3.71925e-15
-8.38218e-15
1.57235e-14
1.01516e-14
7.94503e-15
-1.07206e-14
-2.69229e-15
2.84495e-15
-5.73153e-15
-2.5327e-15
2.56739e-16
-7.84095e-16
5.34989e-15
4.94743e-15
7.23727e-15
2.26208e-15
-1.22125e-15
-1.9082e-15
-1.06443e-14
-8.29198e-15
-1.85546e-14
-2.45845e-14
-7.14706e-15
-7.34135e-15
1.01724e-14
-7.66054e-15
2.20657e-15
-1.92069e-14
-5.35683e-15
2.88658e-15
-4.34375e-15
-1.12271e-14
2.98372e-15
1.33921e-14
4.43395e-15
4.62824e-15
-4.35069e-15
8.74301e-16
-1.55431e-15
-1.10467e-14
2.95597e-15
-1.72917e-14
-2.12746e-14
-1.63758e-15
-1.09635e-14
6.92502e-15
5.35683e-15
1.30868e-14
-1.68893e-14
5.23193e-15
2.55351e-15
1.11022e-16
6.91114e-15
2.7367e-14
-1.45717e-14
-1.34059e-14
8.77076e-15
3.96905e-15
1.65146e-15
-7.92422e-15
-7.31359e-15
5.75928e-15
-2.42167e-14
1.34615e-15
-1.65146e-14
1.51545e-14
5.41234e-15
-1.01169e-14
1.36141e-14
6.55032e-15
4.56579e-15
1.46549e-14
-1.0672e-14
-5.77316e-15
7.09155e-15
1.54599e-14
-1.59595e-15
1.45717e-15
3.01564e-14
-1.249e-16
9.33975e-15
2.92821e-14
5.96745e-16
2.58127e-15
-5.63438e-15
-2.3731e-15
-8.20177e-15
5.77316e-15
-7.14706e-15
6.99441e-15
-4.30211e-16
2.25653e-14
-7.88258e-15
-1.9984e-15
3.89966e-15
-3.9968e-15
1.30451e-15
-5.9952e-15
8.50708e-15
1.58207e-15
-3.76088e-15
3.50275e-14
2.81442e-14
-2.17326e-14
2.05391e-15
-5.77316e-15
-1.30868e-14
-2.58127e-15
2.22045e-14
-2.02616e-15
-8.16014e-15
-2.2482e-15
-8.27116e-15
-2.13024e-14
4.41314e-15
6.27276e-15
-1.20598e-14
-2.25653e-14
2.20796e-14
7.68829e-15
-1.38778e-17
-5.55112e-16
1.01447e-14
-3.88578e-16
1.31978e-14
-8.02136e-15
-2.41474e-15
8.42382e-15
-1.13104e-14
4.03844e-15
3.2474e-15
-8.6875e-15
4.1217e-15
2.55351e-14
-1.93456e-14
-2.86576e-14
-1.1019e-14
-7.06379e-15
-2.8158e-14
-1.55431e-15
5.57887e-15
-8.5626e-15
4.996e-16
1.12965e-14
-7.64666e-15
2.77556e-15
5.63438e-15
2.498e-15
1.05194e-14
-8.24341e-15
9.71445e-16
-2.00812e-14
-9.64506e-15
-8.34055e-15
-3.46945e-15
2.0664e-14
-4.44089e-16
1.82909e-14
-9.07607e-15
8.04912e-16
1.54876e-14
-2.45914e-14
-3.1336e-14
1.58207e-15
1.4766e-14
3.63598e-15
4.08007e-15
-9.13158e-15
-1.45717e-14
-4.13558e-15
5.55112e-17
5.68989e-15
7.21645e-16
6.52256e-15
-5.55112e-15
-3.16414e-15
-7.02216e-15
2.11775e-14
-1.34615e-14
2.35645e-14
1.19627e-14
-5.7454e-15
-1.13798e-14
-8.6875e-15
-1.40721e-14
-1.68476e-14
-7.60503e-15
-1.78746e-14
5.32907e-15
-2.226e-14
-3.13638e-15
-1.59317e-14
7.77156e-16
-2.03171e-14
6.10623e-15
3.78031e-14
-5.63438e-15
7.66054e-15
4.44089e-16
1.24345e-14
-1.15741e-14
3.13638e-15
-6.35603e-15
-2.16493e-15
1.98175e-14
1.85962e-15
2.00118e-14
7.74381e-15
1.4988e-15
-7.07767e-15
2.56739e-14
1.54599e-14
8.43769e-15
9.90874e-15
8.85403e-15
-3.46667e-14
-1.69864e-14
-1.40166e-14
1.6348e-14
2.77556e-15
-1.6348e-14
1.51823e-14
2.96707e-14
5.91194e-15
-1.97065e-15
7.54952e-15
1.5099e-14
1.29619e-14
2.42029e-14
9.52016e-15
1.71252e-14
-4.10783e-15
1.06581e-14
-1.36002e-15
1.54321e-14
-6.85563e-15
1.32672e-14
-8.10463e-15
-5.05151e-15
-1.53488e-14
-3.38618e-15
1.47105e-15
5.32907e-15
2.27596e-15
1.65146e-14
5.19029e-15
-7.99361e-15
1.73195e-14
7.82707e-15
2.86993e-14
1.28231e-14
1.61815e-14
1.04083e-14
6.38378e-15
7.13318e-15
-1.80411e-14
2.83107e-15
1.22125e-15
4.10783e-15
-1.69587e-14
3.05311e-15
4.02456e-15
4.57967e-15
-3.10862e-15
-5.41234e-15
-3.9968e-15
-9.24261e-15
-5.52336e-15
-1.20737e-14
1.4877e-14
-1.66811e-14
7.10543e-15
4.41314e-15
5.82867e-15
1.79301e-14
2.02061e-14
1.32949e-14
4.63518e-15
-2.77556e-15
3.2474e-15
1.6126e-14
-8.04912e-16
-1.6015e-14
-5.55112e-15
-6.66134e-16
-8.13238e-15
-1.89293e-14
-5.44009e-15
-2.64233e-14
-3.05311e-15
-1.04361e-14
-2.39531e-14
1.11022e-16
-1.87905e-14
-1.39888e-14
2.78666e-14
-1.69031e-14
5.52336e-15
-2.66454e-15
2.498e-15
-3.58047e-15
-2.08167e-14
1.67921e-14
8.71525e-15
-7.71605e-15
4.32987e-15
1.34337e-14
-1.76525e-14
1.84575e-14
3.13638e-15
-1.70142e-14
-6.21725e-15
-2.2371e-14
-5.93969e-15
9.52016e-15
3.19189e-15
9.07607e-15
-6.41154e-15
-6.55032e-15
1.57097e-14
9.79772e-15
-4.4964e-15
1.37945e-14
2.77556e-16
-1.38778e-15
-1.16573e-15
-1.8513e-14
-2.7478e-15
2.35367e-14
-1.68754e-14
-1.13243e-14
9.29812e-15
-1.16018e-14
-1.90681e-14
-2.71172e-14
-9.21485e-15
4.44089e-15
-1.20737e-14
1.57652e-14
-1.9762e-14
-1.56541e-14
8.82627e-15
-1.15463e-14
9.27036e-15
2.48135e-14
5.44009e-15
1.44329e-15
-1.03251e-14
1.57652e-14
-1.88183e-14
-6.27276e-15
3.08642e-14
7.54952e-15
1.82632e-14
6.10623e-16
-3.90243e-14
1.40998e-14
1.94289e-15
2.22045e-15
1.14908e-14
-1.66533e-15
2.90878e-14
-1.70974e-14
-2.42584e-14
-5.93969e-15
1.07137e-14
-5.55112e-16
2.03171e-14
-1.60982e-14
-3.08087e-14
3.83027e-15
4.55191e-15
2.60902e-15
3.16414e-15
-1.58762e-14
-5.44009e-15
-5.77316e-15
-6.66134e-16
-3.88578e-16
-4.44089e-16
-9.65894e-15
-1.42664e-14
-1.18239e-14
6.32827e-15
-5.88418e-15
4.88498e-15
8.49321e-15
7.88258e-15
-1.54321e-14
1.47105e-14
1.91513e-14
-1.97065e-14
1.08247e-14
1.38778e-14
2.25375e-14
4.27436e-15
-1.90958e-14
7.27196e-15
-1.30451e-14
1.39888e-14
2.65343e-14
-1.2268e-14
-9.4369e-15
-1.19349e-14
-3.23075e-14
1.60982e-15
-2.498e-15
2.26485e-14
-1.86517e-14
1.29341e-14
1.68754e-14
-1.02696e-14
-5.44009e-15
-2.33702e-14
6.10623e-16
2.72005e-14
-4.32987e-15
6.38378e-15
2.07612e-14
7.38298e-15
2.72005e-15
-1.68754e-14
8.54872e-15
7.49401e-15
2.38698e-15
-1.09357e-14
4.10783e-15
-7.77156e-15
-4.27436e-15
1.64868e-14
-1.32672e-14
1.02141e-14
-4.05231e-15
1.60982e-15
1.24345e-14
1.96509e-14
2.44249e-15
-1.11577e-14
-5.55112e-15
9.4369e-15
1.72085e-15
2.56462e-14
6.10623e-15
1.69309e-14
8.82627e-15
-9.15934e-15
1.11577e-14
-2.9976e-15
4.16334e-15
-8.43769e-15
-2.01505e-14
1.54876e-14
-3.08087e-14
2.55351e-15
-1.30451e-14
-4.77396e-15
-1.37668e-14
-3.05311e-15
8.99281e-15
-1.62648e-14
-1.79301e-14
1.55431e-15
1.23235e-14
2.56462e-14
1.44329e-15
1.12133e-14
1.73195e-14
-5.88418e-15
6.27276e-15
-9.4369e-15
-8.88178e-16
-3.94129e-15
-1.23235e-14
3.28626e-14
3.27516e-15
-6.77236e-15
3.33067e-16
-8.04912e-15
-8.88178e-15
1.66533e-16
1.02696e-14
4.71845e-15
-2.77556e-15
-5.16254e-15
1.27676e-14
8.88178e-16
-2.55351e-15
7.32747e-15
-2.05391e-15
8.99281e-15
1.18239e-14
-1.60427e-14
7.38298e-15
7.66054e-15
-1.54876e-14
0
-1.34892e-14
1.11577e-14
-4.55191e-15
-1.07692e-14
-6.77236e-15
-9.82547e-15
-1.44884e-14
-2.65898e-14
-1.4766e-14
1.00475e-14
-5.27356e-15
6.4948e-15
-9.54792e-15
1.26565e-14
6.66134e-16
2.498e-15
1.33782e-14
-1.19349e-14
1.01585e-14
1.15463e-14
7.77156e-15
6.71685e-15
-7.66054e-15
-3.88578e-15
-6.66134e-16
1.4877e-14
-2.66454e-15
-1.83187e-14
2.4758e-14
-1.34337e-14
-4.77396e-15
-1.22125e-15
-6.77236e-15
1.95399e-14
-1.21014e-14
-1.77636e-15
3.44169e-15
-2.19824e-14
9.76996e-15
-2.16493e-14
-6.66134e-16
1.64313e-14
-6.88338e-15
-1.19904e-14
-1.63203e-14
1.38778e-14
-1.38778e-14
6.55032e-15
-4.996e-15
-3.9968e-15
-1.36557e-14
-6.66134e-15
2.33147e-15
-1.37668e-14
-5.9952e-15
1.68754e-14
5.10703e-15
1.25455e-14
2.44249e-14
3.66374e-15
1.04361e-14
-3.66374e-15
1.06581e-14
2.09832e-14
1.84297e-14
2.55351e-15
9.10383e-15
1.78746e-14
2.17604e-14
-2.26485e-14
-1.38778e-14
1.06581e-14
1.55431e-15
-2.06501e-14
2.20934e-14
-1.07692e-14
1.35447e-14
-3.21965e-15
-3.18634e-14
-2.34257e-14
3.9968e-15
-4.77396e-15
-8.77076e-15
1.75415e-14
-3.66374e-15
-1.15463e-14
1.52101e-14
6.10623e-15
-1.4766e-14
3.9968e-15
-2.77556e-15
-2.33147e-15
5.55112e-16
-8.32667e-15
1.92069e-14
8.65974e-15
-1.33227e-15
7.21645e-15
-2.09832e-14
1.69864e-14
4.32987e-15
-1.82077e-14
1.32117e-14
-1.11022e-15
1.90958e-14
-3.33067e-15
-1.66533e-15
-1.45439e-14
1.07692e-14
6.66134e-16
-3.33067e-15
-6.10623e-15
7.77156e-16
-8.32667e-15
2.07612e-14
-1.36557e-14
-1.55431e-15
-4.66294e-15
-3.05311e-14
-1.4766e-14
1.86517e-14
-4.10783e-15
-2.498e-14
-2.498e-14
-9.54792e-15
-3.9968e-15
-1.24345e-14
-1.05471e-14
-2.04281e-14
1.24345e-14
1.04361e-14
7.77156e-16
6.88338e-15
2.87548e-14
-1.73195e-14
-2.33147e-15
-1.96509e-14
1.84297e-14
1.74305e-14
1.09912e-14
-5.10703e-15
7.99361e-15
8.43769e-15
-3.14193e-14
1.11022e-16
-2.10942e-15
-1.44329e-14
1.06581e-14
-3.21965e-15
-1.19904e-14
-1.55431e-15
1.25455e-14
2.28706e-14
-4.10783e-15
-1.14353e-14
-2.02061e-14
1.42109e-14
8.10463e-15
5.10703e-15
-1.32117e-14
-4.10783e-15
-1.07692e-14
-9.88098e-15
3.33067e-16
2.22045e-16
2.66454e-15
-7.77156e-16
1.82077e-14
-1.4988e-14
1.45439e-14
2.26485e-14
2.14273e-14
-4.77396e-15
2.17604e-14
-1.18794e-14
-5.55112e-16
3.44169e-15
1.22125e-14
1.90958e-14
7.99361e-15
-2.06501e-14
9.65894e-15
1.35447e-14
2.59792e-14
9.54792e-15
1.92069e-14
6.43929e-15
-4.77396e-15
5.88418e-15
1.86517e-14
-3.44169e-15
-9.65894e-15
1.57652e-14
-2.26485e-14
-1.11022e-15
-3.33067e-15
7.43849e-15
-1.9873e-14
-2.55351e-15
-7.32747e-15
5.88418e-15
-1.87628e-14
1.22125e-15
1.73195e-14
1.15463e-14
-3.21965e-15
-7.77156e-16
-1.80966e-14
8.77076e-15
1.72085e-14
3.33067e-16
-1.94289e-14
-1.92069e-14
2.03171e-14
-3.33067e-16
-1.06581e-14
-2.10942e-14
1.44329e-14
9.99201e-16
1.07692e-14
1.32117e-14
5.55112e-15
7.88258e-15
7.77156e-16
-5.88418e-15
5.66214e-15
1.62093e-14
-4.77396e-15
9.32587e-15
-1.68754e-14
-2.5091e-14
-2.13163e-14
2.10942e-15
-1.14353e-14
-6.77236e-15
2.22045e-16
-2.88658e-15
-5.9952e-15
-2.38698e-14
1.9984e-15
1.84297e-14
2.22045e-15
-2.30926e-14
-1.44329e-15
-7.32747e-15
-1.55431e-14
-1.23235e-14
5.77316e-15
4.66294e-15
-1.06581e-14
1.13243e-14
1.22125e-14
-6.43929e-15
-3.33067e-16
-9.99201e-16
2.52021e-14
2.44249e-15
-7.43849e-15
1.88738e-15
9.54792e-15
6.99441e-15
9.4369e-15
-1.73195e-14
-1.69864e-14
-1.03251e-14
5.21805e-15
1.66533e-15
3.43059e-14
7.77156e-16
-1.18794e-14
1.05471e-14
1.62093e-14
-9.54792e-15
-2.08722e-14
-1.68754e-14
2.18714e-14
6.77236e-15
-7.21645e-15
5.55112e-16
-2.05391e-14
-1.12133e-14
4.21885e-15
3.44169e-15
-2.27596e-14
5.9952e-15
-2.05391e-14
-7.77156e-16
7.77156e-16
-2.66454e-15
0
1.05471e-14
-1.11022e-15
-1.23235e-14
9.65894e-15
1.28786e-14
-5.10703e-15
-4.10783e-15
-2.44249e-15
2.38698e-14
6.66134e-16
-2.16493e-14
-1.66533e-15
1.89848e-14
-1.28786e-14
-3.10862e-15
2.30926e-14
7.99361e-15
1.11022e-16
1.33227e-15
9.32587e-15
-1.18794e-14
4.21885e-15
2.25375e-14
7.66054e-15
1.29896e-14
-1.63203e-14
6.21725e-15
9.10383e-15
2.77556e-15
-1.44329e-15
6.66134e-16
7.21645e-15
2.0095e-14
1.46549e-14
1.93179e-14
2.66454e-15
-6.55032e-15
-1.33227e-14
-1.33227e-14
1.89848e-14
-1.56541e-14
-2.77556e-15
4.66294e-15
1.94289e-14
6.32827e-15
-1.40998e-14
-5.55112e-16
-8.54872e-15
8.77076e-15
2.19824e-14
-1.44329e-15
-1.92069e-14
6.32827e-15
2.60902e-14
-1.11022e-16
4.21885e-15
-5.55112e-15
6.66134e-16
1.44329e-15
-3.10862e-15
-1.45439e-14
1.0103e-14
6.32827e-15
-9.65894e-15
-9.4369e-15
4.77396e-15
-1.9984e-15
5.55112e-15
-6.32827e-15
-6.77236e-15
3.33067e-16
-6.66134e-16
-7.77156e-15
8.88178e-16
5.44009e-15
-1.53211e-14
1.22125e-15
2.66454e-15
-1.27676e-14
-1.26565e-14
5.32907e-15
-2.66454e-15
-1.26565e-14
-4.10783e-15
-1.34337e-14
1.33227e-14
1.33227e-15
-9.99201e-16
3.21965e-15
1.11022e-16
-1.70974e-14
-4.21885e-15
-5.10703e-15
-1.88738e-14
-1.9762e-14
5.77316e-15
1.04361e-14
2.66454e-15
1.5099e-14
-1.15463e-14
2.44249e-14
-3.10862e-15
6.43929e-15
1.9984e-15
6.66134e-15
4.66294e-15
1.19904e-14
7.99361e-15
-4.66294e-15
-1.28786e-14
1.19904e-14
5.32907e-15
-1.02141e-14
-1.04361e-14
-1.55431e-15
2.22045e-16
-4.21885e-15
1.11022e-14
7.54952e-15
2.42029e-14
2.04281e-14
-2.28706e-14
-5.32907e-15
-1.06581e-14
7.32747e-15
3.55271e-15
-3.9968e-15
-1.77636e-14
-8.88178e-15
1.90958e-14
1.06581e-14
-3.9968e-15
-2.66454e-15
1.31006e-14
1.02141e-14
7.77156e-15
1.17684e-14
7.10543e-15
1.28786e-14
1.33227e-15
-9.32587e-15
-3.33067e-15
-4.88498e-15
6.66134e-15
6.88338e-15
-9.76996e-15
0
-8.43769e-15
-7.99361e-15
8.21565e-15
1.55431e-14
-6.88338e-15
2.66454e-15
2.35367e-14
1.62093e-14
-1.11022e-14
3.55271e-15
1.24345e-14
-1.35447e-14
1.77636e-15
-1.19904e-14
-2.66454e-15
-1.9984e-15
-7.99361e-15
-4.66294e-15
7.77156e-15
-5.10703e-15
-3.77476e-15
1.44329e-14
1.08802e-14
-1.24345e-14
0
-4.21885e-15
-1.44329e-14
8.21565e-15
-5.9952e-15
1.15463e-14
-1.46549e-14
2.22045e-16
-2.55351e-14
-1.39888e-14
1.04361e-14
1.33227e-14
2.4647e-14
7.99361e-15
6.43929e-15
7.54952e-15
2.08722e-14
7.77156e-15
-2.08722e-14
6.88338e-15
9.32587e-15
3.55271e-15
-7.54952e-15
-5.9952e-15
2.66454e-15
-2.64233e-14
-1.46549e-14
2.66454e-15
3.55271e-15
1.9984e-15
7.77156e-15
8.88178e-16
-4.66294e-15
6.43929e-15
1.11022e-15
-1.08802e-14
2.17604e-14
4.66294e-15
-5.10703e-15
-7.10543e-15
4.66294e-15
3.55271e-15
-1.33227e-14
9.10383e-15
1.86517e-14
-1.26565e-14
-1.11022e-14
6.66134e-15
2.44249e-15
-1.70974e-14
1.35447e-14
4.44089e-16
4.44089e-16
-3.9968e-15
2.44249e-15
-7.99361e-15
8.21565e-15
-2.57572e-14
-1.4877e-14
6.21725e-15
-5.55112e-15
7.32747e-15
1.88738e-14
3.33067e-15
5.9952e-15
-7.54952e-15
8.88178e-16
1.11022e-15
1.19904e-14
2.44249e-15
5.55112e-15
-7.10543e-15
-1.35447e-14
-3.33067e-15
-1.55431e-14
-1.35447e-14
-1.55431e-14
-3.10862e-15
1.46549e-14
-1.82077e-14
-1.5099e-14
-6.88338e-15
4.21885e-15
-5.10703e-15
-5.10703e-15
2.64233e-14
1.04361e-14
-1.4877e-14
-7.99361e-15
-6.66134e-16
8.43769e-15
1.15463e-14
2.44249e-15
4.44089e-16
1.37668e-14
5.55112e-15
-1.35447e-14
-6.21725e-15
-4.44089e-16
-2.22045e-16
4.44089e-15
3.33067e-15
5.32907e-15
-1.62093e-14
-1.93179e-14
2.88658e-15
7.54952e-15
1.77636e-15
-1.19904e-14
2.95319e-14
-1.77636e-15
-2.66454e-15
8.88178e-16
7.54952e-15
-1.13243e-14
2.22045e-15
-1.26565e-14
1.66533e-14
8.43769e-15
-6.21725e-15
-1.9984e-15
2.22045e-16
-1.15463e-14
-1.5099e-14
1.15463e-14
8.65974e-15
6.43929e-15
-1.19904e-14
2.22045e-15
-2.88658e-15
-7.32747e-15
3.10862e-15
2.44249e-15
3.9968e-15
4.44089e-16
1.28786e-14
1.13243e-14
-9.32587e-15
-6.21725e-15
-1.77636e-15
7.10543e-15
-4.44089e-16
-3.55271e-15
3.33067e-15
4.21885e-15
-3.33067e-15
-1.53211e-14
4.21885e-15
8.43769e-15
-1.02141e-14
1.33227e-15
-5.10703e-15
-1.33227e-14
4.44089e-15
-1.28786e-14
1.35447e-14
-6.66134e-16
5.55112e-15
6.43929e-15
8.21565e-15
-1.11022e-14
-4.44089e-15
0
3.10862e-15
-2.22045e-16
-1.77636e-15
1.11022e-15
-4.88498e-15
1.42109e-14
-2.84217e-14
-3.9968e-15
-1.33227e-15
-2.22045e-16
8.21565e-15
1.33227e-15
9.10383e-15
1.59872e-14
-2.44249e-15
8.88178e-16
1.5099e-14
3.10862e-15
-2.22045e-16
1.9984e-15
1.73195e-14
-1.90958e-14
-7.10543e-15
-1.66533e-14
1.37668e-14
-5.77316e-15
7.99361e-15
7.77156e-15
-2.88658e-15
-8.65974e-15
-1.24345e-14
1.22125e-14
3.77476e-15
-6.43929e-15
1.22125e-14
-6.66134e-16
1.64313e-14
9.99201e-15
-6.88338e-15
-2.22045e-16
9.32587e-15
-6.66134e-16
1.11022e-15
1.44329e-14
1.22125e-14
-3.9968e-15
6.43929e-15
-1.13243e-14
-3.9968e-15
2.66454e-15
-9.99201e-15
8.21565e-15
-6.21725e-15
-9.76996e-15
4.88498e-15
7.54952e-15
-9.10383e-15
1.11022e-14
-2.22045e-16
-1.33227e-15
3.77476e-15
7.77156e-15
7.32747e-15
-1.06581e-14
9.99201e-15
-1.02141e-14
1.4877e-14
3.55271e-15
-1.77636e-15
9.54792e-15
-9.99201e-15
-3.77476e-15
-9.54792e-15
3.10862e-15
8.88178e-16
-8.88178e-16
2.22045e-16
-1.33227e-15
3.9968e-15
7.77156e-15
-1.84297e-14
8.43769e-15
-4.44089e-15
1.19904e-14
-4.44089e-16
6.66134e-15
-1.9984e-15
4.44089e-16
-2.22045e-15
2.66454e-15
-1.9984e-15
-1.66533e-14
-9.54792e-15
-3.77476e-15
-7.54952e-15
1.70974e-14
-5.55112e-15
0
1.24345e-14
-8.65974e-15
-3.55271e-15
-2.66454e-15
-1.4877e-14
-5.77316e-15
-4.44089e-15
-2.66454e-15
3.9968e-15
8.88178e-15
3.9968e-15
1.19904e-14
6.21725e-15
-6.66134e-15
-6.21725e-15
1.02141e-14
-9.32587e-15
-8.88178e-15
6.43929e-15
-6.66134e-16
-5.77316e-15
-9.32587e-15
-5.32907e-15
1.28786e-14
-7.10543e-15
3.9968e-15
-1.24345e-14
9.76996e-15
-2.22045e-15
7.54952e-15
4.44089e-16
-1.95399e-14
4.44089e-15
8.88178e-15
-8.88178e-16
-9.76996e-15
-4.44089e-16
-1.15463e-14
-1.33227e-14
3.55271e-15
8.88178e-16
4.88498e-15
1.55431e-14
-2.22045e-15
-1.77636e-15
-8.88178e-16
-3.9968e-15
-2.39808e-14
-7.54952e-15
3.10862e-15
1.46549e-14
4.44089e-16
4.88498e-15
1.46549e-14
7.10543e-15
4.88498e-15
7.10543e-15
-7.99361e-15
-8.43769e-15
-5.32907e-15
-1.33227e-15
3.9968e-15
1.77636e-15
1.77636e-15
1.9984e-14
-1.42109e-14
-1.24345e-14
1.33227e-15
-7.99361e-15
-9.76996e-15
-2.66454e-15
-8.43769e-15
-1.59872e-14
6.21725e-15
1.11022e-14
1.77636e-15
4.44089e-16
8.43769e-15
-5.32907e-15
7.54952e-15
-4.44089e-16
5.77316e-15
3.55271e-15
-2.08722e-14
1.77636e-15
-9.32587e-15
5.32907e-15
4.44089e-15
-4.88498e-15
-1.02141e-14
8.88178e-16
6.66134e-15
4.88498e-15
-1.06581e-14
6.66134e-15
7.54952e-15
3.9968e-15
9.76996e-15
1.19904e-14
-2.66454e-15
-7.54952e-15
-1.46549e-14
-4.88498e-15
1.19904e-14
8.88178e-16
-7.99361e-15
-1.06581e-14
1.06581e-14
7.99361e-15
-8.43769e-15
-2.66454e-15
1.33227e-15
1.02141e-14
-5.32907e-15
-1.77636e-15
-5.32907e-15
-7.10543e-15
7.99361e-15
1.02141e-14
3.10862e-15
-8.88178e-15
-9.76996e-15
2.66454e-15
-1.77636e-15
-8.43769e-15
1.82077e-14
1.46549e-14
-1.77636e-15
1.5099e-14
7.54952e-15
-7.10543e-15
-8.43769e-15
1.73195e-14
2.22045e-15
-9.76996e-15
4.88498e-15
-4.44089e-15
7.10543e-15
3.55271e-15
-2.66454e-15
1.55431e-14
-1.11022e-14
-1.77636e-15
1.37668e-14
-4.88498e-15
1.06581e-14
-3.9968e-15
1.11022e-14
6.66134e-15
-8.88178e-16
-1.77636e-15
7.54952e-15
-1.33227e-15
1.86517e-14
-1.33227e-14
-4.44089e-16
-1.11022e-14
-1.11022e-14
-7.54952e-15
-4.44089e-15
5.77316e-15
2.26485e-14
-7.99361e-15
-1.82077e-14
-2.22045e-15
1.19904e-14
1.15463e-14
-4.44089e-16
2.66454e-15
4.44089e-15
-5.32907e-15
-1.11022e-14
-1.9984e-14
1.33227e-15
8.88178e-16
-4.44089e-15
-5.32907e-15
-8.88178e-16
-7.99361e-15
4.44089e-15
-1.15463e-14
1.02141e-14
-7.10543e-15
-6.66134e-15
-8.88178e-16
-2.13163e-14
-1.15463e-14
0
-1.82077e-14
-4.88498e-15
1.82077e-14
1.59872e-14
-9.32587e-15
-6.21725e-15
5.32907e-15
-8.88178e-15
1.11022e-14
-7.54952e-15
-7.99361e-15
-1.11022e-14
-1.73195e-14
5.32907e-15
-5.32907e-15
-8.43769e-15
1.33227e-14
1.06581e-14
8.88178e-16
-1.82077e-14
-1.02141e-14
3.9968e-15
3.55271e-15
-1.02141e-14
-4.44089e-16
-7.54952e-15
1.19904e-14
-3.10862e-15
1.37668e-14
9.32587e-15
0
5.32907e-15
-3.10862e-15
-1.68754e-14
8.88178e-15
1.82077e-14
6.21725e-15
-3.10862e-15
4.44089e-16
4.44089e-15
-6.66134e-15
-2.22045e-15
7.54952e-15
1.28786e-14
1.95399e-14
-1.37668e-14
1.28786e-14
1.42109e-14
6.66134e-15
1.77636e-15
9.76996e-15
-3.55271e-15
1.55431e-14
-5.32907e-15
5.32907e-15
1.55431e-14
-1.33227e-15
1.19904e-14
1.06581e-14
-2.66454e-15
6.66134e-15
-4.44089e-16
-2.30926e-14
-6.66134e-15
4.88498e-15
3.10862e-15
-4.88498e-15
-8.43769e-15
3.10862e-15
6.21725e-15
1.42109e-14
9.32587e-15
1.64313e-14
4.88498e-15
-4.44089e-15
-3.10862e-15
-1.06581e-14
-2.22045e-14
5.77316e-15
6.66134e-15
-8.88178e-16
-3.9968e-15
-3.55271e-15
6.21725e-15
5.32907e-15
-2.66454e-15
-1.19904e-14
4.44089e-15
-6.66134e-15
-1.11022e-14
-1.77636e-15
-6.21725e-15
-1.28786e-14
7.10543e-15
-3.55271e-15
-7.10543e-15
-4.44089e-15
-3.55271e-15
4.88498e-15
-6.21725e-15
4.44089e-16
1.33227e-15
-4.44089e-15
4.88498e-15
-7.99361e-15
2.39808e-14
-2.04281e-14
-1.37668e-14
-9.32587e-15
-9.76996e-15
-1.33227e-14
1.19904e-14
-1.24345e-14
2.22045e-15
-3.55271e-15
-8.43769e-15
3.55271e-15
-2.22045e-15
-3.10862e-15
5.77316e-15
2.66454e-15
-3.10862e-15
1.15463e-14
-1.33227e-15
-1.77636e-15
8.88178e-16
1.15463e-14
1.02141e-14
-1.55431e-14
5.32907e-15
-1.02141e-14
-8.88178e-16
-4.44089e-15
-3.10862e-15
1.24345e-14
3.10862e-15
7.54952e-15
7.99361e-15
-1.19904e-14
8.88178e-16
-4.88498e-15
-2.22045e-15
1.15463e-14
-4.44089e-15
-2.66454e-15
-7.99361e-15
-3.55271e-15
3.55271e-15
8.88178e-16
-4.44089e-16
1.24345e-14
5.32907e-15
5.77316e-15
8.43769e-15
-6.21725e-15
-3.55271e-15
5.32907e-15
7.99361e-15
-3.9968e-15
2.22045e-15
9.76996e-15
-3.9968e-15
-4.44089e-16
-4.44089e-16
-8.43769e-15
-2.17604e-14
1.02141e-14
1.15463e-14
-8.88178e-16
7.99361e-15
1.77636e-15
-1.73195e-14
1.37668e-14
-7.10543e-15
7.99361e-15
1.77636e-15
4.44089e-15
-4.44089e-16
-1.37668e-14
-4.44089e-15
-4.88498e-15
5.32907e-15
-6.66134e-15
1.77636e-15
4.44089e-16
-8.43769e-15
-8.43769e-15
-1.06581e-14
1.59872e-14
0
4.88498e-15
-3.55271e-15
4.44089e-16
2.66454e-15
-1.24345e-14
-5.32907e-15
-5.32907e-15
-3.55271e-15
1.46549e-14
-8.88178e-16
1.59872e-14
1.77636e-15
-3.55271e-15
1.33227e-15
3.9968e-15
-4.44089e-15
1.42109e-14
-1.19904e-14