/*--------------------------------*- C++ -*----------------------------------*\
| =========                 |                                                 |
| \\      /  F ield         | foam-extend: Open Source CFD                    |
|  \\    /   O peration     | Version:     4.0                                |
|   \\  /    A nd           | Web:         http://www.foam-extend.org         |
|    \\/     M anipulation  |                                                 |
\*---------------------------------------------------------------------------*/
FoamFile
{
    version     2.0;
    format      ascii;
    class       volScalarField;
    location    "1750";
    object      cPlus;
}
// * * * * * * * * * * * * * * * * * * * * * * * * * * * * * * * * * * * * * //

dimensions      [0 0 0 0 0 0 0];

internalField   nonuniform List<scalar> 
6960
(
0.254049
0.254007
0.253997
0.253996
0.253996
0.253998
0.253999
0.254
0.254001
0.254002
0.254003
0.254004
0.254005
0.254006
0.254006
0.254007
0.254008
0.254008
0.254009
0.254009
0.254009
0.25401
0.25401
0.25401
0.25401
0.25401
0.254011
0.254011
0.254011
0.254011
0.254011
0.254011
0.254011
0.254011
0.25401
0.25401
0.25401
0.25401
0.25401
0.254009
0.254009
0.254009
0.254008
0.254008
0.254007
0.254006
0.254006
0.254005
0.254004
0.254003
0.254002
0.254001
0.254
0.253999
0.253998
0.253996
0.253996
0.253997
0.254007
0.254049
0.0955528
0.095555
0.0955557
0.0955566
0.0955576
0.0955585
0.0955593
0.09556
0.0955607
0.0955613
0.0955618
0.0955623
0.0955627
0.0955631
0.0955635
0.0955638
0.0955641
0.0955643
0.0955646
0.0955648
0.0955649
0.0955651
0.0955652
0.0955654
0.0955655
0.0955655
0.0955656
0.0955657
0.0955657
0.0955657
0.0955657
0.0955657
0.0955657
0.0955656
0.0955655
0.0955655
0.0955654
0.0955652
0.0955651
0.0955649
0.0955648
0.0955646
0.0955643
0.0955641
0.0955638
0.0955635
0.0955631
0.0955627
0.0955623
0.0955618
0.0955613
0.0955607
0.09556
0.0955593
0.0955585
0.0955576
0.0955566
0.0955557
0.095555
0.0955528
0.0679749
0.0679977
0.0680032
0.0680052
0.0680062
0.0680069
0.0680074
0.0680079
0.0680084
0.0680087
0.0680091
0.0680093
0.0680096
0.0680098
0.06801
0.0680102
0.0680104
0.0680105
0.0680107
0.0680108
0.0680109
0.068011
0.068011
0.0680111
0.0680112
0.0680112
0.0680112
0.0680113
0.0680113
0.0680113
0.0680113
0.0680113
0.0680113
0.0680112
0.0680112
0.0680112
0.0680111
0.068011
0.068011
0.0680109
0.0680108
0.0680107
0.0680105
0.0680104
0.0680102
0.06801
0.0680098
0.0680096
0.0680093
0.0680091
0.0680087
0.0680084
0.0680079
0.0680074
0.0680069
0.0680062
0.0680052
0.0680032
0.0679977
0.0679749
0.0646581
0.0646899
0.0646976
0.0647
0.0647011
0.0647018
0.0647023
0.0647027
0.0647031
0.0647034
0.0647037
0.0647039
0.0647041
0.0647043
0.0647045
0.0647046
0.0647047
0.0647049
0.064705
0.064705
0.0647051
0.0647052
0.0647052
0.0647053
0.0647053
0.0647054
0.0647054
0.0647054
0.0647054
0.0647054
0.0647054
0.0647054
0.0647054
0.0647054
0.0647054
0.0647053
0.0647053
0.0647052
0.0647052
0.0647051
0.064705
0.064705
0.0647049
0.0647047
0.0647046
0.0647045
0.0647043
0.0647041
0.0647039
0.0647037
0.0647034
0.0647031
0.0647027
0.0647023
0.0647018
0.0647011
0.0647
0.0646976
0.0646899
0.0646581
0.0669841
0.0670215
0.0670305
0.0670333
0.0670345
0.0670353
0.0670358
0.0670363
0.0670366
0.067037
0.0670373
0.0670375
0.0670377
0.0670379
0.0670381
0.0670382
0.0670383
0.0670385
0.0670386
0.0670387
0.0670387
0.0670388
0.0670389
0.0670389
0.0670389
0.067039
0.067039
0.067039
0.067039
0.067039
0.067039
0.067039
0.067039
0.067039
0.067039
0.0670389
0.0670389
0.0670389
0.0670388
0.0670387
0.0670387
0.0670386
0.0670385
0.0670383
0.0670382
0.0670381
0.0670379
0.0670377
0.0670375
0.0670373
0.067037
0.0670366
0.0670363
0.0670358
0.0670353
0.0670345
0.0670333
0.0670305
0.0670215
0.0669841
0.0713155
0.0713583
0.0713687
0.0713719
0.0713733
0.0713742
0.0713748
0.0713753
0.0713758
0.0713761
0.0713765
0.0713767
0.071377
0.0713772
0.0713774
0.0713776
0.0713777
0.0713779
0.071378
0.0713781
0.0713782
0.0713782
0.0713783
0.0713784
0.0713784
0.0713785
0.0713785
0.0713785
0.0713785
0.0713785
0.0713785
0.0713785
0.0713785
0.0713785
0.0713785
0.0713784
0.0713784
0.0713783
0.0713782
0.0713782
0.0713781
0.071378
0.0713779
0.0713777
0.0713776
0.0713774
0.0713772
0.071377
0.0713767
0.0713765
0.0713761
0.0713758
0.0713753
0.0713748
0.0713742
0.0713733
0.0713719
0.0713687
0.0713583
0.0713155
0.0771296
0.0771792
0.0771912
0.0771951
0.0771967
0.0771977
0.0771985
0.0771991
0.0771996
0.0772001
0.0772005
0.0772008
0.0772011
0.0772014
0.0772016
0.0772018
0.077202
0.0772022
0.0772023
0.0772025
0.0772026
0.0772027
0.0772028
0.0772028
0.0772029
0.0772029
0.077203
0.077203
0.077203
0.077203
0.077203
0.077203
0.077203
0.077203
0.0772029
0.0772029
0.0772028
0.0772028
0.0772027
0.0772026
0.0772025
0.0772023
0.0772022
0.077202
0.0772018
0.0772016
0.0772014
0.0772011
0.0772008
0.0772005
0.0772001
0.0771996
0.0771991
0.0771985
0.0771977
0.0771967
0.0771951
0.0771912
0.0771792
0.0771296
0.0846966
0.0847554
0.0847697
0.0847743
0.0847763
0.0847775
0.0847785
0.0847793
0.0847799
0.0847805
0.084781
0.0847814
0.0847818
0.0847821
0.0847824
0.0847827
0.0847829
0.0847831
0.0847833
0.0847834
0.0847836
0.0847837
0.0847838
0.0847839
0.084784
0.084784
0.0847841
0.0847841
0.0847841
0.0847841
0.0847841
0.0847841
0.0847841
0.0847841
0.084784
0.084784
0.0847839
0.0847838
0.0847837
0.0847836
0.0847834
0.0847833
0.0847831
0.0847829
0.0847827
0.0847824
0.0847821
0.0847818
0.0847814
0.084781
0.0847805
0.0847799
0.0847793
0.0847785
0.0847775
0.0847763
0.0847743
0.0847697
0.0847554
0.0846966
0.0945953
0.0946665
0.094684
0.0946896
0.0946921
0.0946936
0.0946948
0.0946958
0.0946966
0.0946973
0.0946979
0.0946985
0.094699
0.0946994
0.0946998
0.0947001
0.0947004
0.0947006
0.0947009
0.0947011
0.0947013
0.0947014
0.0947015
0.0947017
0.0947018
0.0947018
0.0947019
0.0947019
0.094702
0.094702
0.094702
0.094702
0.0947019
0.0947019
0.0947018
0.0947018
0.0947017
0.0947015
0.0947014
0.0947013
0.0947011
0.0947009
0.0947006
0.0947004
0.0947001
0.0946998
0.0946994
0.094699
0.0946985
0.0946979
0.0946973
0.0946966
0.0946958
0.0946948
0.0946936
0.0946921
0.0946896
0.094684
0.0946665
0.0945953
0.10756
0.107648
0.10767
0.107677
0.10768
0.107682
0.107683
0.107684
0.107685
0.107686
0.107687
0.107688
0.107688
0.107689
0.107689
0.10769
0.10769
0.107691
0.107691
0.107691
0.107691
0.107692
0.107692
0.107692
0.107692
0.107692
0.107692
0.107692
0.107692
0.107692
0.107692
0.107692
0.107692
0.107692
0.107692
0.107692
0.107692
0.107692
0.107692
0.107691
0.107691
0.107691
0.107691
0.10769
0.10769
0.107689
0.107689
0.107688
0.107688
0.107687
0.107686
0.107685
0.107684
0.107683
0.107682
0.10768
0.107677
0.10767
0.107648
0.10756
0.124311
0.12442
0.124447
0.124456
0.12446
0.124462
0.124464
0.124465
0.124467
0.124468
0.124469
0.12447
0.12447
0.124471
0.124472
0.124472
0.124473
0.124473
0.124473
0.124474
0.124474
0.124474
0.124474
0.124475
0.124475
0.124475
0.124475
0.124475
0.124475
0.124475
0.124475
0.124475
0.124475
0.124475
0.124475
0.124475
0.124475
0.124474
0.124474
0.124474
0.124474
0.124473
0.124473
0.124473
0.124472
0.124472
0.124471
0.12447
0.12447
0.124469
0.124468
0.124467
0.124465
0.124464
0.124462
0.12446
0.124456
0.124447
0.12442
0.124311
0.145304
0.145437
0.145471
0.145482
0.145486
0.145489
0.145491
0.145493
0.145495
0.145496
0.145497
0.145498
0.145499
0.1455
0.145501
0.145501
0.145502
0.145502
0.145503
0.145503
0.145503
0.145504
0.145504
0.145504
0.145504
0.145504
0.145504
0.145505
0.145505
0.145505
0.145505
0.145505
0.145505
0.145504
0.145504
0.145504
0.145504
0.145504
0.145504
0.145503
0.145503
0.145503
0.145502
0.145502
0.145501
0.145501
0.1455
0.145499
0.145498
0.145497
0.145496
0.145495
0.145493
0.145491
0.145489
0.145486
0.145482
0.145471
0.145437
0.145304
0.170493
0.170652
0.170693
0.170706
0.170711
0.170715
0.170717
0.170719
0.170721
0.170723
0.170724
0.170725
0.170726
0.170727
0.170728
0.170728
0.170729
0.170729
0.17073
0.17073
0.170731
0.170731
0.170731
0.170732
0.170732
0.170732
0.170732
0.170732
0.170732
0.170732
0.170732
0.170732
0.170732
0.170732
0.170732
0.170732
0.170732
0.170731
0.170731
0.170731
0.17073
0.17073
0.170729
0.170729
0.170728
0.170728
0.170727
0.170726
0.170725
0.170724
0.170723
0.170721
0.170719
0.170717
0.170715
0.170711
0.170706
0.170693
0.170652
0.170493
0.199264
0.199449
0.199497
0.199512
0.199518
0.199522
0.199525
0.199527
0.199529
0.199531
0.199532
0.199533
0.199534
0.199535
0.199536
0.199537
0.199537
0.199538
0.199539
0.199539
0.199539
0.19954
0.19954
0.19954
0.199541
0.199541
0.199541
0.199541
0.199541
0.199541
0.199541
0.199541
0.199541
0.199541
0.199541
0.199541
0.19954
0.19954
0.19954
0.199539
0.199539
0.199539
0.199538
0.199537
0.199537
0.199536
0.199535
0.199534
0.199533
0.199532
0.199531
0.199529
0.199527
0.199525
0.199522
0.199518
0.199512
0.199497
0.199449
0.199264
0.230607
0.230816
0.230871
0.230888
0.230895
0.230899
0.230902
0.230904
0.230906
0.230908
0.230909
0.23091
0.230911
0.230912
0.230913
0.230914
0.230915
0.230915
0.230916
0.230916
0.230917
0.230917
0.230917
0.230918
0.230918
0.230918
0.230918
0.230918
0.230918
0.230918
0.230918
0.230918
0.230918
0.230918
0.230918
0.230918
0.230918
0.230917
0.230917
0.230917
0.230916
0.230916
0.230915
0.230915
0.230914
0.230913
0.230912
0.230911
0.23091
0.230909
0.230908
0.230906
0.230904
0.230902
0.230899
0.230895
0.230888
0.230871
0.230816
0.230607
0.263418
0.263648
0.263708
0.263727
0.263735
0.263739
0.263742
0.263744
0.263746
0.263748
0.263749
0.263751
0.263752
0.263753
0.263753
0.263754
0.263755
0.263756
0.263756
0.263756
0.263757
0.263757
0.263758
0.263758
0.263758
0.263758
0.263758
0.263758
0.263759
0.263759
0.263759
0.263759
0.263758
0.263758
0.263758
0.263758
0.263758
0.263758
0.263757
0.263757
0.263756
0.263756
0.263756
0.263755
0.263754
0.263753
0.263753
0.263752
0.263751
0.263749
0.263748
0.263746
0.263744
0.263742
0.263739
0.263735
0.263727
0.263708
0.263648
0.263418
0.296749
0.296996
0.297063
0.297083
0.297091
0.297095
0.297098
0.297101
0.297103
0.297104
0.297106
0.297107
0.297108
0.297109
0.29711
0.29711
0.297111
0.297112
0.297112
0.297113
0.297113
0.297113
0.297114
0.297114
0.297114
0.297114
0.297114
0.297114
0.297114
0.297115
0.297115
0.297114
0.297114
0.297114
0.297114
0.297114
0.297114
0.297114
0.297113
0.297113
0.297113
0.297112
0.297112
0.297111
0.29711
0.29711
0.297109
0.297108
0.297107
0.297106
0.297104
0.297103
0.297101
0.297098
0.297095
0.297091
0.297083
0.297063
0.296996
0.296749
0.329918
0.33018
0.330252
0.330274
0.330282
0.330286
0.330289
0.330291
0.330293
0.330295
0.330296
0.330297
0.330298
0.330299
0.3303
0.330301
0.330301
0.330302
0.330302
0.330303
0.330303
0.330303
0.330304
0.330304
0.330304
0.330304
0.330304
0.330305
0.330305
0.330305
0.330305
0.330305
0.330305
0.330304
0.330304
0.330304
0.330304
0.330304
0.330303
0.330303
0.330303
0.330302
0.330302
0.330301
0.330301
0.3303
0.330299
0.330298
0.330297
0.330296
0.330295
0.330293
0.330291
0.330289
0.330286
0.330282
0.330274
0.330252
0.33018
0.329918
0.362492
0.362767
0.362843
0.362867
0.362876
0.36288
0.362883
0.362885
0.362887
0.362888
0.362889
0.362891
0.362892
0.362892
0.362893
0.362894
0.362894
0.362895
0.362895
0.362896
0.362896
0.362896
0.362897
0.362897
0.362897
0.362897
0.362897
0.362897
0.362897
0.362897
0.362897
0.362897
0.362897
0.362897
0.362897
0.362897
0.362897
0.362897
0.362896
0.362896
0.362896
0.362895
0.362895
0.362894
0.362894
0.362893
0.362892
0.362892
0.362891
0.362889
0.362888
0.362887
0.362885
0.362883
0.36288
0.362876
0.362867
0.362843
0.362767
0.362492
0.394223
0.394508
0.394589
0.394614
0.394623
0.394627
0.39463
0.394632
0.394634
0.394635
0.394636
0.394637
0.394638
0.394639
0.39464
0.39464
0.394641
0.394641
0.394642
0.394642
0.394642
0.394643
0.394643
0.394643
0.394643
0.394643
0.394644
0.394644
0.394644
0.394644
0.394644
0.394644
0.394644
0.394644
0.394643
0.394643
0.394643
0.394643
0.394643
0.394642
0.394642
0.394642
0.394641
0.394641
0.39464
0.39464
0.394639
0.394638
0.394637
0.394636
0.394635
0.394634
0.394632
0.39463
0.394627
0.394623
0.394614
0.394589
0.394508
0.394223
0.424975
0.425269
0.425355
0.425381
0.42539
0.425395
0.425397
0.425399
0.425401
0.425402
0.425403
0.425404
0.425405
0.425406
0.425407
0.425407
0.425408
0.425408
0.425408
0.425409
0.425409
0.425409
0.425409
0.42541
0.42541
0.42541
0.42541
0.42541
0.42541
0.42541
0.42541
0.42541
0.42541
0.42541
0.42541
0.42541
0.42541
0.425409
0.425409
0.425409
0.425409
0.425408
0.425408
0.425408
0.425407
0.425407
0.425406
0.425405
0.425404
0.425403
0.425402
0.425401
0.425399
0.425397
0.425395
0.42539
0.425381
0.425355
0.425269
0.424975
0.454682
0.454984
0.455074
0.455101
0.455111
0.455115
0.455118
0.45512
0.455121
0.455123
0.455124
0.455125
0.455125
0.455126
0.455127
0.455127
0.455128
0.455128
0.455128
0.455129
0.455129
0.455129
0.455129
0.455129
0.45513
0.45513
0.45513
0.45513
0.45513
0.45513
0.45513
0.45513
0.45513
0.45513
0.45513
0.45513
0.455129
0.455129
0.455129
0.455129
0.455129
0.455128
0.455128
0.455128
0.455127
0.455127
0.455126
0.455125
0.455125
0.455124
0.455123
0.455121
0.45512
0.455118
0.455115
0.455111
0.455101
0.455074
0.454984
0.454682
0.483315
0.483623
0.483717
0.483746
0.483756
0.48376
0.483763
0.483765
0.483766
0.483767
0.483768
0.483769
0.48377
0.48377
0.483771
0.483771
0.483772
0.483772
0.483773
0.483773
0.483773
0.483773
0.483773
0.483774
0.483774
0.483774
0.483774
0.483774
0.483774
0.483774
0.483774
0.483774
0.483774
0.483774
0.483774
0.483774
0.483774
0.483773
0.483773
0.483773
0.483773
0.483773
0.483772
0.483772
0.483771
0.483771
0.48377
0.48377
0.483769
0.483768
0.483767
0.483766
0.483765
0.483763
0.48376
0.483756
0.483746
0.483717
0.483623
0.483315
0.510866
0.511179
0.511277
0.511307
0.511318
0.511322
0.511325
0.511326
0.511328
0.511329
0.51133
0.51133
0.511331
0.511332
0.511332
0.511333
0.511333
0.511333
0.511334
0.511334
0.511334
0.511334
0.511334
0.511334
0.511335
0.511335
0.511335
0.511335
0.511335
0.511335
0.511335
0.511335
0.511335
0.511335
0.511335
0.511335
0.511334
0.511334
0.511334
0.511334
0.511334
0.511334
0.511333
0.511333
0.511333
0.511332
0.511332
0.511331
0.51133
0.51133
0.511329
0.511328
0.511326
0.511325
0.511322
0.511318
0.511307
0.511277
0.511179
0.510866
0.537341
0.537657
0.537758
0.53779
0.537801
0.537805
0.537808
0.537809
0.537811
0.537812
0.537813
0.537813
0.537814
0.537814
0.537815
0.537815
0.537816
0.537816
0.537816
0.537816
0.537817
0.537817
0.537817
0.537817
0.537817
0.537817
0.537817
0.537817
0.537817
0.537817
0.537817
0.537817
0.537817
0.537817
0.537817
0.537817
0.537817
0.537817
0.537817
0.537817
0.537816
0.537816
0.537816
0.537816
0.537815
0.537815
0.537814
0.537814
0.537813
0.537813
0.537812
0.537811
0.537809
0.537808
0.537805
0.537801
0.53779
0.537758
0.537657
0.537341
0.56275
0.563069
0.563173
0.563207
0.563218
0.563223
0.563225
0.563227
0.563228
0.563229
0.563229
0.56323
0.563231
0.563231
0.563231
0.563232
0.563232
0.563232
0.563233
0.563233
0.563233
0.563233
0.563233
0.563233
0.563234
0.563234
0.563234
0.563234
0.563234
0.563234
0.563234
0.563234
0.563234
0.563234
0.563234
0.563234
0.563233
0.563233
0.563233
0.563233
0.563233
0.563233
0.563232
0.563232
0.563232
0.563231
0.563231
0.563231
0.56323
0.563229
0.563229
0.563228
0.563227
0.563225
0.563223
0.563218
0.563207
0.563173
0.563069
0.56275
0.587111
0.587433
0.58754
0.587575
0.587586
0.587591
0.587593
0.587595
0.587596
0.587597
0.587597
0.587598
0.587598
0.587599
0.587599
0.5876
0.5876
0.5876
0.5876
0.587601
0.587601
0.587601
0.587601
0.587601
0.587601
0.587601
0.587601
0.587601
0.587601
0.587601
0.587601
0.587601
0.587601
0.587601
0.587601
0.587601
0.587601
0.587601
0.587601
0.587601
0.587601
0.5876
0.5876
0.5876
0.5876
0.587599
0.587599
0.587598
0.587598
0.587597
0.587597
0.587596
0.587595
0.587593
0.587591
0.587586
0.587575
0.58754
0.587433
0.587111
0.610445
0.610768
0.610877
0.610914
0.610926
0.610931
0.610933
0.610934
0.610935
0.610936
0.610937
0.610937
0.610938
0.610938
0.610938
0.610939
0.610939
0.610939
0.610939
0.61094
0.61094
0.61094
0.61094
0.61094
0.61094
0.61094
0.61094
0.61094
0.61094
0.61094
0.61094
0.61094
0.61094
0.61094
0.61094
0.61094
0.61094
0.61094
0.61094
0.61094
0.61094
0.610939
0.610939
0.610939
0.610939
0.610938
0.610938
0.610938
0.610937
0.610937
0.610936
0.610935
0.610934
0.610933
0.610931
0.610926
0.610914
0.610877
0.610768
0.610445
0.632774
0.633096
0.633209
0.633246
0.633259
0.633264
0.633266
0.633267
0.633268
0.633269
0.63327
0.63327
0.633271
0.633271
0.633271
0.633271
0.633272
0.633272
0.633272
0.633272
0.633272
0.633272
0.633273
0.633273
0.633273
0.633273
0.633273
0.633273
0.633273
0.633273
0.633273
0.633273
0.633273
0.633273
0.633273
0.633273
0.633273
0.633273
0.633272
0.633272
0.633272
0.633272
0.633272
0.633272
0.633271
0.633271
0.633271
0.633271
0.63327
0.63327
0.633269
0.633268
0.633267
0.633266
0.633264
0.633259
0.633246
0.633209
0.633096
0.632774
0.654121
0.654442
0.654557
0.654596
0.654609
0.654614
0.654616
0.654617
0.654618
0.654619
0.65462
0.65462
0.65462
0.654621
0.654621
0.654621
0.654622
0.654622
0.654622
0.654622
0.654622
0.654622
0.654622
0.654622
0.654622
0.654623
0.654623
0.654623
0.654623
0.654623
0.654623
0.654623
0.654623
0.654623
0.654623
0.654622
0.654622
0.654622
0.654622
0.654622
0.654622
0.654622
0.654622
0.654622
0.654621
0.654621
0.654621
0.65462
0.65462
0.65462
0.654619
0.654618
0.654617
0.654616
0.654614
0.654609
0.654596
0.654557
0.654442
0.654121
0.67451
0.67483
0.674947
0.674987
0.675001
0.675006
0.675008
0.675009
0.67501
0.675011
0.675011
0.675012
0.675012
0.675012
0.675013
0.675013
0.675013
0.675013
0.675013
0.675013
0.675014
0.675014
0.675014
0.675014
0.675014
0.675014
0.675014
0.675014
0.675014
0.675014
0.675014
0.675014
0.675014
0.675014
0.675014
0.675014
0.675014
0.675014
0.675014
0.675014
0.675013
0.675013
0.675013
0.675013
0.675013
0.675013
0.675012
0.675012
0.675012
0.675011
0.675011
0.67501
0.675009
0.675008
0.675006
0.675001
0.674987
0.674947
0.67483
0.67451
0.693968
0.694285
0.694403
0.694445
0.694459
0.694464
0.694466
0.694468
0.694468
0.694469
0.69447
0.69447
0.69447
0.694471
0.694471
0.694471
0.694471
0.694471
0.694471
0.694472
0.694472
0.694472
0.694472
0.694472
0.694472
0.694472
0.694472
0.694472
0.694472
0.694472
0.694472
0.694472
0.694472
0.694472
0.694472
0.694472
0.694472
0.694472
0.694472
0.694472
0.694472
0.694471
0.694471
0.694471
0.694471
0.694471
0.694471
0.69447
0.69447
0.69447
0.694469
0.694468
0.694468
0.694466
0.694464
0.694459
0.694445
0.694403
0.694285
0.693968
0.712518
0.712832
0.712952
0.712995
0.71301
0.713015
0.713017
0.713019
0.713019
0.71302
0.71302
0.713021
0.713021
0.713021
0.713021
0.713022
0.713022
0.713022
0.713022
0.713022
0.713022
0.713022
0.713022
0.713022
0.713022
0.713023
0.713023
0.713023
0.713023
0.713023
0.713023
0.713023
0.713023
0.713023
0.713023
0.713022
0.713022
0.713022
0.713022
0.713022
0.713022
0.713022
0.713022
0.713022
0.713022
0.713021
0.713021
0.713021
0.713021
0.71302
0.71302
0.713019
0.713019
0.713017
0.713015
0.71301
0.712995
0.712952
0.712832
0.712518
0.730188
0.730498
0.730619
0.730663
0.730678
0.730684
0.730686
0.730688
0.730688
0.730689
0.730689
0.73069
0.73069
0.73069
0.73069
0.73069
0.730691
0.730691
0.730691
0.730691
0.730691
0.730691
0.730691
0.730691
0.730691
0.730691
0.730691
0.730691
0.730691
0.730691
0.730691
0.730691
0.730691
0.730691
0.730691
0.730691
0.730691
0.730691
0.730691
0.730691
0.730691
0.730691
0.730691
0.730691
0.73069
0.73069
0.73069
0.73069
0.73069
0.730689
0.730689
0.730688
0.730688
0.730686
0.730684
0.730678
0.730663
0.730619
0.730498
0.730188
0.747002
0.747309
0.747431
0.747476
0.747492
0.747497
0.7475
0.747501
0.747502
0.747502
0.747503
0.747503
0.747503
0.747503
0.747503
0.747504
0.747504
0.747504
0.747504
0.747504
0.747504
0.747504
0.747504
0.747504
0.747504
0.747504
0.747504
0.747504
0.747504
0.747504
0.747504
0.747504
0.747504
0.747504
0.747504
0.747504
0.747504
0.747504
0.747504
0.747504
0.747504
0.747504
0.747504
0.747504
0.747504
0.747503
0.747503
0.747503
0.747503
0.747503
0.747502
0.747502
0.747501
0.7475
0.747497
0.747492
0.747476
0.747431
0.747309
0.747002
0.762989
0.76329
0.763413
0.763459
0.763475
0.763481
0.763484
0.763485
0.763485
0.763486
0.763486
0.763487
0.763487
0.763487
0.763487
0.763487
0.763487
0.763488
0.763488
0.763488
0.763488
0.763488
0.763488
0.763488
0.763488
0.763488
0.763488
0.763488
0.763488
0.763488
0.763488
0.763488
0.763488
0.763488
0.763488
0.763488
0.763488
0.763488
0.763488
0.763488
0.763488
0.763488
0.763488
0.763487
0.763487
0.763487
0.763487
0.763487
0.763487
0.763486
0.763486
0.763485
0.763485
0.763484
0.763481
0.763475
0.763459
0.763413
0.76329
0.762989
0.778172
0.778468
0.778591
0.778638
0.778655
0.778662
0.778664
0.778665
0.778666
0.778666
0.778667
0.778667
0.778667
0.778667
0.778668
0.778668
0.778668
0.778668
0.778668
0.778668
0.778668
0.778668
0.778668
0.778668
0.778668
0.778668
0.778668
0.778668
0.778668
0.778668
0.778668
0.778668
0.778668
0.778668
0.778668
0.778668
0.778668
0.778668
0.778668
0.778668
0.778668
0.778668
0.778668
0.778668
0.778668
0.778668
0.778667
0.778667
0.778667
0.778667
0.778666
0.778666
0.778665
0.778664
0.778662
0.778655
0.778638
0.778591
0.778468
0.778172
0.79258
0.79287
0.792993
0.793041
0.793059
0.793065
0.793068
0.793069
0.79307
0.79307
0.79307
0.793071
0.793071
0.793071
0.793071
0.793071
0.793071
0.793071
0.793071
0.793071
0.793071
0.793072
0.793072
0.793072
0.793072
0.793072
0.793072
0.793072
0.793072
0.793072
0.793072
0.793072
0.793072
0.793072
0.793072
0.793072
0.793072
0.793072
0.793072
0.793071
0.793071
0.793071
0.793071
0.793071
0.793071
0.793071
0.793071
0.793071
0.793071
0.79307
0.79307
0.79307
0.793069
0.793068
0.793065
0.793059
0.793041
0.792993
0.79287
0.79258
0.806237
0.806521
0.806644
0.806693
0.806711
0.806718
0.80672
0.806722
0.806722
0.806723
0.806723
0.806723
0.806723
0.806723
0.806724
0.806724
0.806724
0.806724
0.806724
0.806724
0.806724
0.806724
0.806724
0.806724
0.806724
0.806724
0.806724
0.806724
0.806724
0.806724
0.806724
0.806724
0.806724
0.806724
0.806724
0.806724
0.806724
0.806724
0.806724
0.806724
0.806724
0.806724
0.806724
0.806724
0.806724
0.806724
0.806723
0.806723
0.806723
0.806723
0.806723
0.806722
0.806722
0.80672
0.806718
0.806711
0.806693
0.806644
0.806521
0.806237
0.81917
0.819447
0.81957
0.81962
0.819638
0.819646
0.819648
0.81965
0.81965
0.819651
0.819651
0.819651
0.819651
0.819651
0.819651
0.819652
0.819652
0.819652
0.819652
0.819652
0.819652
0.819652
0.819652
0.819652
0.819652
0.819652
0.819652
0.819652
0.819652
0.819652
0.819652
0.819652
0.819652
0.819652
0.819652
0.819652
0.819652
0.819652
0.819652
0.819652
0.819652
0.819652
0.819652
0.819652
0.819652
0.819651
0.819651
0.819651
0.819651
0.819651
0.819651
0.81965
0.81965
0.819648
0.819646
0.819638
0.81962
0.81957
0.819447
0.81917
0.831405
0.831675
0.831798
0.831848
0.831867
0.831875
0.831878
0.831879
0.831879
0.83188
0.83188
0.83188
0.83188
0.83188
0.831881
0.831881
0.831881
0.831881
0.831881
0.831881
0.831881
0.831881
0.831881
0.831881
0.831881
0.831881
0.831881
0.831881
0.831881
0.831881
0.831881
0.831881
0.831881
0.831881
0.831881
0.831881
0.831881
0.831881
0.831881
0.831881
0.831881
0.831881
0.831881
0.831881
0.831881
0.831881
0.83188
0.83188
0.83188
0.83188
0.83188
0.831879
0.831879
0.831878
0.831875
0.831867
0.831848
0.831798
0.831675
0.831405
0.842968
0.843231
0.843352
0.843403
0.843423
0.843431
0.843434
0.843435
0.843436
0.843436
0.843436
0.843436
0.843436
0.843437
0.843437
0.843437
0.843437
0.843437
0.843437
0.843437
0.843437
0.843437
0.843437
0.843437
0.843437
0.843437
0.843437
0.843437
0.843437
0.843437
0.843437
0.843437
0.843437
0.843437
0.843437
0.843437
0.843437
0.843437
0.843437
0.843437
0.843437
0.843437
0.843437
0.843437
0.843437
0.843437
0.843437
0.843436
0.843436
0.843436
0.843436
0.843436
0.843435
0.843434
0.843431
0.843423
0.843403
0.843352
0.843231
0.842968
0.853884
0.85414
0.85426
0.854311
0.854331
0.854339
0.854342
0.854344
0.854344
0.854345
0.854345
0.854345
0.854345
0.854345
0.854345
0.854346
0.854346
0.854346
0.854346
0.854346
0.854346
0.854346
0.854346
0.854346
0.854346
0.854346
0.854346
0.854346
0.854346
0.854346
0.854346
0.854346
0.854346
0.854346
0.854346
0.854346
0.854346
0.854346
0.854346
0.854346
0.854346
0.854346
0.854346
0.854346
0.854346
0.854345
0.854345
0.854345
0.854345
0.854345
0.854345
0.854344
0.854344
0.854342
0.854339
0.854331
0.854311
0.85426
0.85414
0.853884
0.864179
0.864426
0.864545
0.864597
0.864618
0.864626
0.864629
0.864631
0.864631
0.864632
0.864632
0.864632
0.864632
0.864632
0.864632
0.864632
0.864632
0.864632
0.864632
0.864632
0.864633
0.864633
0.864633
0.864633
0.864633
0.864633
0.864633
0.864633
0.864633
0.864633
0.864633
0.864633
0.864633
0.864633
0.864633
0.864633
0.864633
0.864633
0.864633
0.864633
0.864632
0.864632
0.864632
0.864632
0.864632
0.864632
0.864632
0.864632
0.864632
0.864632
0.864632
0.864631
0.864631
0.864629
0.864626
0.864618
0.864597
0.864545
0.864426
0.864179
0.873877
0.874117
0.874234
0.874285
0.874307
0.874316
0.874319
0.87432
0.874321
0.874321
0.874322
0.874322
0.874322
0.874322
0.874322
0.874322
0.874322
0.874322
0.874322
0.874322
0.874322
0.874322
0.874322
0.874322
0.874322
0.874322
0.874322
0.874322
0.874322
0.874322
0.874322
0.874322
0.874322
0.874322
0.874322
0.874322
0.874322
0.874322
0.874322
0.874322
0.874322
0.874322
0.874322
0.874322
0.874322
0.874322
0.874322
0.874322
0.874322
0.874322
0.874321
0.874321
0.87432
0.874319
0.874316
0.874307
0.874285
0.874234
0.874117
0.873877
0.883003
0.883235
0.88335
0.883402
0.883424
0.883433
0.883437
0.883438
0.883439
0.883439
0.883439
0.883439
0.88344
0.88344
0.88344
0.88344
0.88344
0.88344
0.88344
0.88344
0.88344
0.88344
0.88344
0.88344
0.88344
0.88344
0.88344
0.88344
0.88344
0.88344
0.88344
0.88344
0.88344
0.88344
0.88344
0.88344
0.88344
0.88344
0.88344
0.88344
0.88344
0.88344
0.88344
0.88344
0.88344
0.88344
0.88344
0.88344
0.883439
0.883439
0.883439
0.883439
0.883438
0.883437
0.883433
0.883424
0.883402
0.88335
0.883235
0.883003
0.891582
0.891806
0.891919
0.891971
0.891993
0.892003
0.892006
0.892008
0.892009
0.892009
0.892009
0.892009
0.892009
0.892009
0.89201
0.89201
0.89201
0.89201
0.89201
0.89201
0.89201
0.89201
0.89201
0.89201
0.89201
0.89201
0.89201
0.89201
0.89201
0.89201
0.89201
0.89201
0.89201
0.89201
0.89201
0.89201
0.89201
0.89201
0.89201
0.89201
0.89201
0.89201
0.89201
0.89201
0.89201
0.89201
0.892009
0.892009
0.892009
0.892009
0.892009
0.892009
0.892008
0.892006
0.892003
0.891993
0.891971
0.891919
0.891806
0.891582
0.899638
0.899853
0.899964
0.900016
0.900039
0.900048
0.900052
0.900054
0.900055
0.900055
0.900055
0.900055
0.900055
0.900056
0.900056
0.900056
0.900056
0.900056
0.900056
0.900056
0.900056
0.900056
0.900056
0.900056
0.900056
0.900056
0.900056
0.900056
0.900056
0.900056
0.900056
0.900056
0.900056
0.900056
0.900056
0.900056
0.900056
0.900056
0.900056
0.900056
0.900056
0.900056
0.900056
0.900056
0.900056
0.900056
0.900056
0.900055
0.900055
0.900055
0.900055
0.900055
0.900054
0.900052
0.900048
0.900039
0.900016
0.899964
0.899853
0.899638
0.907194
0.907401
0.907509
0.907561
0.907584
0.907594
0.907598
0.9076
0.907601
0.907601
0.907601
0.907601
0.907601
0.907601
0.907601
0.907601
0.907601
0.907601
0.907601
0.907601
0.907602
0.907602
0.907602
0.907602
0.907602
0.907602
0.907602
0.907602
0.907602
0.907602
0.907602
0.907602
0.907602
0.907602
0.907602
0.907602
0.907602
0.907602
0.907602
0.907602
0.907601
0.907601
0.907601
0.907601
0.907601
0.907601
0.907601
0.907601
0.907601
0.907601
0.907601
0.907601
0.9076
0.907598
0.907594
0.907584
0.907561
0.907509
0.907401
0.907194
0.914273
0.914471
0.914577
0.914629
0.914652
0.914662
0.914667
0.914668
0.914669
0.91467
0.91467
0.91467
0.91467
0.91467
0.91467
0.91467
0.91467
0.91467
0.91467
0.91467
0.91467
0.91467
0.91467
0.91467
0.91467
0.91467
0.91467
0.91467
0.91467
0.91467
0.91467
0.91467
0.91467
0.91467
0.91467
0.91467
0.91467
0.91467
0.91467
0.91467
0.91467
0.91467
0.91467
0.91467
0.91467
0.91467
0.91467
0.91467
0.91467
0.91467
0.91467
0.914669
0.914668
0.914667
0.914662
0.914652
0.914629
0.914577
0.914471
0.914273
0.920898
0.921088
0.921191
0.921242
0.921266
0.921276
0.921281
0.921282
0.921283
0.921284
0.921284
0.921284
0.921284
0.921284
0.921284
0.921284
0.921284
0.921284
0.921284
0.921284
0.921284
0.921284
0.921284
0.921284
0.921284
0.921284
0.921284
0.921284
0.921284
0.921284
0.921284
0.921284
0.921284
0.921284
0.921284
0.921284
0.921284
0.921284
0.921284
0.921284
0.921284
0.921284
0.921284
0.921284
0.921284
0.921284
0.921284
0.921284
0.921284
0.921284
0.921284
0.921283
0.921282
0.921281
0.921276
0.921266
0.921242
0.921191
0.921088
0.920898
0.92709
0.927272
0.927373
0.927423
0.927447
0.927458
0.927462
0.927464
0.927465
0.927466
0.927466
0.927466
0.927466
0.927466
0.927466
0.927466
0.927466
0.927466
0.927466
0.927466
0.927466
0.927466
0.927466
0.927466
0.927466
0.927466
0.927466
0.927466
0.927466
0.927466
0.927466
0.927466
0.927466
0.927466
0.927466
0.927466
0.927466
0.927466
0.927466
0.927466
0.927466
0.927466
0.927466
0.927466
0.927466
0.927466
0.927466
0.927466
0.927466
0.927466
0.927466
0.927465
0.927464
0.927462
0.927458
0.927447
0.927423
0.927373
0.927272
0.92709
0.932873
0.933046
0.933144
0.933194
0.933217
0.933228
0.933233
0.933235
0.933236
0.933237
0.933237
0.933237
0.933237
0.933237
0.933237
0.933237
0.933237
0.933237
0.933237
0.933237
0.933237
0.933237
0.933237
0.933237
0.933237
0.933237
0.933237
0.933237
0.933237
0.933237
0.933237
0.933237
0.933237
0.933237
0.933237
0.933237
0.933237
0.933237
0.933237
0.933237
0.933237
0.933237
0.933237
0.933237
0.933237
0.933237
0.933237
0.933237
0.933237
0.933237
0.933237
0.933236
0.933235
0.933233
0.933228
0.933217
0.933194
0.933144
0.933046
0.932873
0.938265
0.938431
0.938525
0.938574
0.938598
0.938609
0.938614
0.938616
0.938617
0.938618
0.938618
0.938618
0.938618
0.938618
0.938618
0.938618
0.938618
0.938618
0.938618
0.938618
0.938618
0.938618
0.938618
0.938618
0.938618
0.938618
0.938618
0.938618
0.938618
0.938618
0.938618
0.938618
0.938618
0.938618
0.938618
0.938618
0.938618
0.938618
0.938618
0.938618
0.938618
0.938618
0.938618
0.938618
0.938618
0.938618
0.938618
0.938618
0.938618
0.938618
0.938618