/*--------------------------------*- C++ -*----------------------------------*\
| =========                 |                                                 |
| \\      /  F ield         | foam-extend: Open Source CFD                    |
|  \\    /   O peration     | Version:     4.0                                |
|   \\  /    A nd           | Web:         http://www.foam-extend.org         |
|    \\/     M anipulation  |                                                 |
\*---------------------------------------------------------------------------*/
FoamFile
{
    version     2.0;
    format      ascii;
    class       volScalarField;
    location    "430";
    object      cPlus;
}
// * * * * * * * * * * * * * * * * * * * * * * * * * * * * * * * * * * * * * //

dimensions      [0 0 0 0 0 0 0];

internalField   nonuniform List<scalar> 
6960
(
0.18422
0.184132
0.184088
0.184069
0.184061
0.184058
0.184057
0.184057
0.184057
0.184057
0.184057
0.184057
0.184057
0.184057
0.184057
0.184057
0.184057
0.184058
0.184058
0.184058
0.184058
0.184058
0.184058
0.184058
0.184058
0.184058
0.184058
0.184058
0.184058
0.184058
0.184058
0.184058
0.184058
0.184058
0.184058
0.184058
0.184058
0.184058
0.184058
0.184058
0.184058
0.184058
0.184058
0.184057
0.184057
0.184057
0.184057
0.184057
0.184057
0.184057
0.184057
0.184057
0.184057
0.184057
0.184058
0.184061
0.184069
0.184088
0.184132
0.18422
0.0482135
0.0481996
0.0481915
0.048188
0.0481865
0.0481859
0.0481858
0.0481857
0.0481858
0.0481858
0.0481859
0.048186
0.0481861
0.0481861
0.0481862
0.0481863
0.0481864
0.0481864
0.0481865
0.0481865
0.0481866
0.0481866
0.0481867
0.0481867
0.0481867
0.0481868
0.0481868
0.0481868
0.0481868
0.0481868
0.0481868
0.0481868
0.0481868
0.0481868
0.0481868
0.0481867
0.0481867
0.0481867
0.0481866
0.0481866
0.0481865
0.0481865
0.0481864
0.0481864
0.0481863
0.0481862
0.0481861
0.0481861
0.048186
0.0481859
0.0481858
0.0481858
0.0481857
0.0481858
0.0481859
0.0481865
0.048188
0.0481915
0.0481996
0.0482135
0.0302457
0.0302555
0.0302591
0.0302605
0.0302612
0.0302614
0.0302616
0.0302617
0.0302618
0.0302618
0.0302619
0.030262
0.030262
0.0302621
0.0302621
0.0302622
0.0302622
0.0302623
0.0302623
0.0302624
0.0302624
0.0302624
0.0302625
0.0302625
0.0302625
0.0302625
0.0302625
0.0302626
0.0302626
0.0302626
0.0302626
0.0302626
0.0302626
0.0302625
0.0302625
0.0302625
0.0302625
0.0302625
0.0302624
0.0302624
0.0302624
0.0302623
0.0302623
0.0302622
0.0302622
0.0302621
0.0302621
0.030262
0.030262
0.0302619
0.0302618
0.0302618
0.0302617
0.0302616
0.0302614
0.0302612
0.0302605
0.0302591
0.0302555
0.0302457
0.0282181
0.0282337
0.0282401
0.0282428
0.0282439
0.0282444
0.0282446
0.0282448
0.0282449
0.0282449
0.028245
0.0282451
0.0282451
0.0282452
0.0282452
0.0282453
0.0282453
0.0282454
0.0282454
0.0282454
0.0282455
0.0282455
0.0282455
0.0282456
0.0282456
0.0282456
0.0282456
0.0282456
0.0282456
0.0282456
0.0282456
0.0282456
0.0282456
0.0282456
0.0282456
0.0282456
0.0282456
0.0282455
0.0282455
0.0282455
0.0282454
0.0282454
0.0282454
0.0282453
0.0282453
0.0282452
0.0282452
0.0282451
0.0282451
0.028245
0.0282449
0.0282449
0.0282448
0.0282446
0.0282444
0.0282439
0.0282428
0.0282401
0.0282337
0.0282181
0.028471
0.0284882
0.0284954
0.0284984
0.0284996
0.0285002
0.0285004
0.0285006
0.0285007
0.0285007
0.0285008
0.0285009
0.0285009
0.028501
0.0285011
0.0285011
0.0285011
0.0285012
0.0285012
0.0285013
0.0285013
0.0285013
0.0285014
0.0285014
0.0285014
0.0285014
0.0285014
0.0285014
0.0285014
0.0285015
0.0285015
0.0285014
0.0285014
0.0285014
0.0285014
0.0285014
0.0285014
0.0285014
0.0285013
0.0285013
0.0285013
0.0285012
0.0285012
0.0285011
0.0285011
0.0285011
0.028501
0.0285009
0.0285009
0.0285008
0.0285007
0.0285007
0.0285006
0.0285004
0.0285002
0.0284996
0.0284984
0.0284954
0.0284882
0.028471
0.0290944
0.0291125
0.02912
0.0291232
0.0291245
0.0291251
0.0291253
0.0291255
0.0291256
0.0291257
0.0291257
0.0291258
0.0291259
0.0291259
0.029126
0.029126
0.0291261
0.0291261
0.0291262
0.0291262
0.0291263
0.0291263
0.0291263
0.0291263
0.0291264
0.0291264
0.0291264
0.0291264
0.0291264
0.0291264
0.0291264
0.0291264
0.0291264
0.0291264
0.0291264
0.0291264
0.0291263
0.0291263
0.0291263
0.0291263
0.0291262
0.0291262
0.0291261
0.0291261
0.029126
0.029126
0.0291259
0.0291259
0.0291258
0.0291257
0.0291257
0.0291256
0.0291255
0.0291253
0.0291251
0.0291245
0.0291232
0.02912
0.0291125
0.0290944
0.0298344
0.0298533
0.0298612
0.0298645
0.0298659
0.0298665
0.0298668
0.0298669
0.029867
0.0298671
0.0298672
0.0298673
0.0298673
0.0298674
0.0298675
0.0298675
0.0298676
0.0298676
0.0298677
0.0298677
0.0298677
0.0298678
0.0298678
0.0298678
0.0298679
0.0298679
0.0298679
0.0298679
0.0298679
0.0298679
0.0298679
0.0298679
0.0298679
0.0298679
0.0298679
0.0298679
0.0298678
0.0298678
0.0298678
0.0298677
0.0298677
0.0298677
0.0298676
0.0298676
0.0298675
0.0298675
0.0298674
0.0298673
0.0298673
0.0298672
0.0298671
0.029867
0.0298669
0.0298668
0.0298665
0.0298659
0.0298645
0.0298612
0.0298533
0.0298344
0.0306687
0.0306885
0.0306968
0.0307003
0.0307017
0.0307024
0.0307027
0.0307028
0.030703
0.030703
0.0307031
0.0307032
0.0307033
0.0307033
0.0307034
0.0307035
0.0307035
0.0307036
0.0307036
0.0307037
0.0307037
0.0307037
0.0307038
0.0307038
0.0307038
0.0307038
0.0307039
0.0307039
0.0307039
0.0307039
0.0307039
0.0307039
0.0307039
0.0307039
0.0307038
0.0307038
0.0307038
0.0307038
0.0307037
0.0307037
0.0307037
0.0307036
0.0307036
0.0307035
0.0307035
0.0307034
0.0307033
0.0307033
0.0307032
0.0307031
0.030703
0.030703
0.0307028
0.0307027
0.0307024
0.0307017
0.0307003
0.0306968
0.0306885
0.0306687
0.0316093
0.0316303
0.031639
0.0316426
0.0316442
0.0316448
0.0316451
0.0316453
0.0316455
0.0316456
0.0316456
0.0316457
0.0316458
0.0316459
0.0316459
0.031646
0.0316461
0.0316461
0.0316462
0.0316462
0.0316463
0.0316463
0.0316463
0.0316464
0.0316464
0.0316464
0.0316464
0.0316464
0.0316464
0.0316464
0.0316464
0.0316464
0.0316464
0.0316464
0.0316464
0.0316464
0.0316464
0.0316463
0.0316463
0.0316463
0.0316462
0.0316462
0.0316461
0.0316461
0.031646
0.0316459
0.0316459
0.0316458
0.0316457
0.0316456
0.0316456
0.0316455
0.0316453
0.0316451
0.0316448
0.0316442
0.0316426
0.031639
0.0316303
0.0316093
0.0326771
0.0326993
0.0327086
0.0327125
0.0327141
0.0327148
0.0327152
0.0327153
0.0327155
0.0327156
0.0327157
0.0327158
0.0327159
0.0327159
0.032716
0.0327161
0.0327161
0.0327162
0.0327162
0.0327163
0.0327163
0.0327164
0.0327164
0.0327165
0.0327165
0.0327165
0.0327165
0.0327165
0.0327165
0.0327165
0.0327165
0.0327165
0.0327165
0.0327165
0.0327165
0.0327165
0.0327165
0.0327164
0.0327164
0.0327163
0.0327163
0.0327162
0.0327162
0.0327161
0.0327161
0.032716
0.0327159
0.0327159
0.0327158
0.0327157
0.0327156
0.0327155
0.0327153
0.0327152
0.0327148
0.0327141
0.0327125
0.0327086
0.0326993
0.0326771
0.0339
0.0339237
0.0339336
0.0339377
0.0339395
0.0339402
0.0339406
0.0339408
0.033941
0.0339411
0.0339412
0.0339413
0.0339414
0.0339415
0.0339415
0.0339416
0.0339417
0.0339417
0.0339418
0.0339419
0.0339419
0.0339419
0.033942
0.033942
0.033942
0.0339421
0.0339421
0.0339421
0.0339421
0.0339421
0.0339421
0.0339421
0.0339421
0.0339421
0.0339421
0.033942
0.033942
0.033942
0.0339419
0.0339419
0.0339419
0.0339418
0.0339417
0.0339417
0.0339416
0.0339415
0.0339415
0.0339414
0.0339413
0.0339412
0.0339411
0.033941
0.0339408
0.0339406
0.0339402
0.0339395
0.0339377
0.0339336
0.0339237
0.0339
0.035315
0.0353405
0.0353511
0.0353556
0.0353575
0.0353583
0.0353587
0.035359
0.0353591
0.0353592
0.0353594
0.0353595
0.0353596
0.0353596
0.0353597
0.0353598
0.0353599
0.03536
0.03536
0.0353601
0.0353601
0.0353602
0.0353602
0.0353603
0.0353603
0.0353603
0.0353604
0.0353604
0.0353604
0.0353604
0.0353604
0.0353604
0.0353604
0.0353604
0.0353603
0.0353603
0.0353603
0.0353602
0.0353602
0.0353601
0.0353601
0.03536
0.03536
0.0353599
0.0353598
0.0353597
0.0353596
0.0353596
0.0353595
0.0353594
0.0353592
0.0353591
0.035359
0.0353587
0.0353583
0.0353575
0.0353556
0.0353511
0.0353405
0.035315
0.0369725
0.0370002
0.0370118
0.0370167
0.0370187
0.0370196
0.0370201
0.0370203
0.0370205
0.0370207
0.0370208
0.0370209
0.037021
0.0370211
0.0370212
0.0370213
0.0370214
0.0370215
0.0370215
0.0370216
0.0370216
0.0370217
0.0370218
0.0370218
0.0370218
0.0370219
0.0370219
0.0370219
0.0370219
0.0370219
0.0370219
0.0370219
0.0370219
0.0370219
0.0370219
0.0370218
0.0370218
0.0370218
0.0370217
0.0370216
0.0370216
0.0370215
0.0370215
0.0370214
0.0370213
0.0370212
0.0370211
0.037021
0.0370209
0.0370208
0.0370207
0.0370205
0.0370203
0.0370201
0.0370196
0.0370187
0.0370167
0.0370118
0.0370002
0.0369725
0.0389428
0.0389734
0.0389861
0.0389915
0.0389938
0.0389948
0.0389953
0.0389955
0.0389957
0.0389959
0.038996
0.0389962
0.0389963
0.0389964
0.0389965
0.0389966
0.0389967
0.0389968
0.0389969
0.038997
0.038997
0.0389971
0.0389971
0.0389972
0.0389972
0.0389973
0.0389973
0.0389973
0.0389973
0.0389973
0.0389973
0.0389973
0.0389973
0.0389973
0.0389973
0.0389972
0.0389972
0.0389971
0.0389971
0.038997
0.038997
0.0389969
0.0389968
0.0389967
0.0389966
0.0389965
0.0389964
0.0389963
0.0389962
0.038996
0.0389959
0.0389957
0.0389955
0.0389953
0.0389948
0.0389938
0.0389915
0.0389861
0.0389734
0.0389428
0.041327
0.0413612
0.0413755
0.0413815
0.0413841
0.0413852
0.0413858
0.0413861
0.0413863
0.0413865
0.0413867
0.0413868
0.041387
0.0413871
0.0413872
0.0413873
0.0413874
0.0413875
0.0413876
0.0413877
0.0413878
0.0413879
0.0413879
0.041388
0.041388
0.0413881
0.0413881
0.0413881
0.0413882
0.0413882
0.0413882
0.0413882
0.0413881
0.0413881
0.0413881
0.041388
0.041388
0.0413879
0.0413879
0.0413878
0.0413877
0.0413876
0.0413875
0.0413874
0.0413873
0.0413872
0.0413871
0.041387
0.0413868
0.0413867
0.0413865
0.0413863
0.0413861
0.0413858
0.0413852
0.0413841
0.0413815
0.0413755
0.0413612
0.041327
0.0442751
0.0443142
0.0443305
0.0443374
0.0443404
0.0443417
0.0443423
0.0443427
0.0443429
0.0443431
0.0443433
0.0443435
0.0443437
0.0443438
0.044344
0.0443441
0.0443443
0.0443444
0.0443445
0.0443446
0.0443447
0.0443448
0.0443448
0.0443449
0.044345
0.044345
0.044345
0.0443451
0.0443451
0.0443451
0.0443451
0.0443451
0.0443451
0.044345
0.044345
0.044345
0.0443449
0.0443448
0.0443448
0.0443447
0.0443446
0.0443445
0.0443444
0.0443443
0.0443441
0.044344
0.0443438
0.0443437
0.0443435
0.0443433
0.0443431
0.0443429
0.0443427
0.0443423
0.0443417
0.0443404
0.0443374
0.0443305
0.0443142
0.0442751
0.0480157
0.0480614
0.0480805
0.0480887
0.0480921
0.0480937
0.0480944
0.0480949
0.0480952
0.0480954
0.0480957
0.0480959
0.0480961
0.0480963
0.0480964
0.0480966
0.0480968
0.0480969
0.0480971
0.0480972
0.0480973
0.0480974
0.0480975
0.0480976
0.0480976
0.0480977
0.0480977
0.0480978
0.0480978
0.0480978
0.0480978
0.0480978
0.0480978
0.0480977
0.0480977
0.0480976
0.0480976
0.0480975
0.0480974
0.0480973
0.0480972
0.0480971
0.0480969
0.0480968
0.0480966
0.0480964
0.0480963
0.0480961
0.0480959
0.0480957
0.0480954
0.0480952
0.0480949
0.0480944
0.0480937
0.0480921
0.0480887
0.0480805
0.0480614
0.0480157
0.0528994
0.0529546
0.0529778
0.0529876
0.0529918
0.0529937
0.0529946
0.0529952
0.0529956
0.0529959
0.0529962
0.0529964
0.0529967
0.0529969
0.0529972
0.0529974
0.0529976
0.0529977
0.0529979
0.0529981
0.0529982
0.0529983
0.0529984
0.0529985
0.0529986
0.0529987
0.0529988
0.0529988
0.0529988
0.0529988
0.0529988
0.0529988
0.0529988
0.0529988
0.0529987
0.0529986
0.0529985
0.0529984
0.0529983
0.0529982
0.0529981
0.0529979
0.0529977
0.0529976
0.0529974
0.0529972
0.0529969
0.0529967
0.0529964
0.0529962
0.0529959
0.0529956
0.0529952
0.0529946
0.0529937
0.0529918
0.0529876
0.0529778
0.0529546
0.0528994
0.0594483
0.059517
0.059546
0.0595584
0.0595636
0.059566
0.0595672
0.0595679
0.0595684
0.0595688
0.0595691
0.0595695
0.0595698
0.0595701
0.0595704
0.0595707
0.0595709
0.0595711
0.0595714
0.0595716
0.0595717
0.0595719
0.059572
0.0595722
0.0595723
0.0595724
0.0595724
0.0595725
0.0595725
0.0595726
0.0595726
0.0595725
0.0595725
0.0595724
0.0595724
0.0595723
0.0595722
0.059572
0.0595719
0.0595717
0.0595716
0.0595714
0.0595711
0.0595709
0.0595707
0.0595704
0.0595701
0.0595698
0.0595695
0.0595691
0.0595688
0.0595684
0.0595679
0.0595672
0.059566
0.0595636
0.0595584
0.059546
0.059517
0.0594483
0.0683699
0.0684577
0.0684949
0.0685108
0.0685176
0.0685206
0.0685222
0.0685231
0.0685237
0.0685242
0.0685247
0.0685252
0.0685256
0.068526
0.0685264
0.0685267
0.068527
0.0685273
0.0685276
0.0685279
0.0685281
0.0685283
0.0685285
0.0685287
0.0685288
0.0685289
0.068529
0.0685291
0.0685292
0.0685292
0.0685292
0.0685292
0.0685291
0.068529
0.0685289
0.0685288
0.0685287
0.0685285
0.0685283
0.0685281
0.0685279
0.0685276
0.0685273
0.068527
0.0685267
0.0685264
0.068526
0.0685256
0.0685252
0.0685247
0.0685242
0.0685237
0.0685231
0.0685222
0.0685206
0.0685176
0.0685108
0.0684949
0.0684577
0.0683699
0.0804653
0.0805784
0.0806266
0.0806472
0.0806561
0.08066
0.080662
0.0806631
0.080664
0.0806647
0.0806653
0.0806659
0.0806664
0.0806669
0.0806674
0.0806679
0.0806683
0.0806687
0.080669
0.0806694
0.0806697
0.08067
0.0806702
0.0806704
0.0806706
0.0806708
0.0806709
0.080671
0.080671
0.0806711
0.0806711
0.080671
0.080671
0.0806709
0.0806708
0.0806706
0.0806704
0.0806702
0.08067
0.0806697
0.0806694
0.080669
0.0806687
0.0806683
0.0806679
0.0806674
0.0806669
0.0806664
0.0806659
0.0806653
0.0806647
0.080664
0.0806631
0.080662
0.08066
0.0806561
0.0806472
0.0806266
0.0805784
0.0804653
0.0963819
0.0965256
0.0965872
0.0966136
0.0966249
0.09663
0.0966325
0.096634
0.096635
0.0966359
0.0966367
0.0966374
0.0966381
0.0966387
0.0966393
0.0966399
0.0966404
0.0966409
0.0966414
0.0966418
0.0966422
0.0966425
0.0966428
0.0966431
0.0966433
0.0966435
0.0966437
0.0966438
0.0966439
0.0966439
0.0966439
0.0966439
0.0966438
0.0966437
0.0966435
0.0966433
0.0966431
0.0966428
0.0966425
0.0966422
0.0966418
0.0966414
0.0966409
0.0966404
0.0966399
0.0966393
0.0966387
0.0966381
0.0966374
0.0966367
0.0966359
0.096635
0.096634
0.0966325
0.09663
0.0966249
0.0966136
0.0965872
0.0965256
0.0963819
0.116301
0.116478
0.116554
0.116587
0.116601
0.116607
0.11661
0.116612
0.116614
0.116615
0.116616
0.116616
0.116617
0.116618
0.116619
0.116619
0.11662
0.116621
0.116621
0.116622
0.116622
0.116623
0.116623
0.116623
0.116624
0.116624
0.116624
0.116624
0.116624
0.116624
0.116624
0.116624
0.116624
0.116624
0.116624
0.116624
0.116623
0.116623
0.116623
0.116622
0.116622
0.116621
0.116621
0.11662
0.116619
0.116619
0.116618
0.116617
0.116616
0.116616
0.116615
0.116614
0.116612
0.11661
0.116607
0.116601
0.116587
0.116554
0.116478
0.116301
0.139789
0.139998
0.140089
0.140128
0.140145
0.140152
0.140156
0.140158
0.140159
0.140161
0.140162
0.140163
0.140164
0.140164
0.140165
0.140166
0.140167
0.140167
0.140168
0.140169
0.140169
0.14017
0.14017
0.14017
0.140171
0.140171
0.140171
0.140171
0.140171
0.140171
0.140171
0.140171
0.140171
0.140171
0.140171
0.140171
0.14017
0.14017
0.14017
0.140169
0.140169
0.140168
0.140167
0.140167
0.140166
0.140165
0.140164
0.140164
0.140163
0.140162
0.140161
0.140159
0.140158
0.140156
0.140152
0.140145
0.140128
0.140089
0.139998
0.139789
0.165951
0.16619
0.166294
0.166338
0.166358
0.166366
0.166371
0.166373
0.166375
0.166376
0.166377
0.166378
0.166379
0.16638
0.166381
0.166382
0.166383
0.166383
0.166384
0.166385
0.166385
0.166386
0.166386
0.166386
0.166387
0.166387
0.166387
0.166387
0.166388
0.166388
0.166388
0.166388
0.166387
0.166387
0.166387
0.166387
0.166386
0.166386
0.166386
0.166385
0.166385
0.166384
0.166383
0.166383
0.166382
0.166381
0.16638
0.166379
0.166378
0.166377
0.166376
0.166375
0.166373
0.166371
0.166366
0.166358
0.166338
0.166294
0.16619
0.165951
0.193779
0.194042
0.194157
0.194208
0.194229
0.194239
0.194244
0.194246
0.194248
0.194249
0.194251
0.194252
0.194253
0.194254
0.194255
0.194255
0.194256
0.194257
0.194258
0.194258
0.194259
0.194259
0.19426
0.19426
0.194261
0.194261
0.194261
0.194261
0.194261
0.194262
0.194262
0.194261
0.194261
0.194261
0.194261
0.194261
0.19426
0.19426
0.194259
0.194259
0.194258
0.194258
0.194257
0.194256
0.194255
0.194255
0.194254
0.194253
0.194252
0.194251
0.194249
0.194248
0.194246
0.194244
0.194239
0.194229
0.194208
0.194157
0.194042
0.193779
0.222425
0.222709
0.222834
0.222889
0.222913
0.222923
0.222929
0.222931
0.222933
0.222935
0.222936
0.222937
0.222938
0.222939
0.22294
0.222941
0.222942
0.222943
0.222943
0.222944
0.222944
0.222945
0.222945
0.222946
0.222946
0.222946
0.222947
0.222947
0.222947
0.222947
0.222947
0.222947
0.222947
0.222947
0.222946
0.222946
0.222946
0.222945
0.222945
0.222944
0.222944
0.222943
0.222943
0.222942
0.222941
0.22294
0.222939
0.222938
0.222937
0.222936
0.222935
0.222933
0.222931
0.222929
0.222923
0.222913
0.222889
0.222834
0.222709
0.222425
0.251303
0.251605
0.251739
0.251798
0.251824
0.251836
0.251841
0.251844
0.251846
0.251848
0.251849
0.25185
0.251851
0.251852
0.251853
0.251854
0.251855
0.251855
0.251856
0.251857
0.251857
0.251858
0.251858
0.251859
0.251859
0.251859
0.25186
0.25186
0.25186
0.25186
0.25186
0.25186
0.25186
0.25186
0.251859
0.251859
0.251859
0.251858
0.251858
0.251857
0.251857
0.251856
0.251855
0.251855
0.251854
0.251853
0.251852
0.251851
0.25185
0.251849
0.251848
0.251846
0.251844
0.251841
0.251836
0.251824
0.251798
0.251739
0.251605
0.251303
0.280052
0.28037
0.280512
0.280576
0.280604
0.280616
0.280622
0.280625
0.280627
0.280629
0.28063
0.280631
0.280632
0.280633
0.280634
0.280635
0.280636
0.280637
0.280637
0.280638
0.280638
0.280639
0.280639
0.28064
0.28064
0.280641
0.280641
0.280641
0.280641
0.280641
0.280641
0.280641
0.280641
0.280641
0.280641
0.28064
0.28064
0.280639
0.280639
0.280638
0.280638
0.280637
0.280637
0.280636
0.280635
0.280634
0.280633
0.280632
0.280631
0.28063
0.280629
0.280627
0.280625
0.280622
0.280616
0.280604
0.280576
0.280512
0.28037
0.280052
0.308462
0.308793
0.308943
0.309011
0.309041
0.309054
0.30906
0.309064
0.309066
0.309067
0.309069
0.30907
0.309071
0.309072
0.309073
0.309074
0.309074
0.309075
0.309076
0.309076
0.309077
0.309077
0.309078
0.309078
0.309079
0.309079
0.309079
0.309079
0.309079
0.30908
0.30908
0.309079
0.309079
0.309079
0.309079
0.309079
0.309078
0.309078
0.309077
0.309077
0.309076
0.309076
0.309075
0.309074
0.309074
0.309073
0.309072
0.309071
0.30907
0.309069
0.309067
0.309066
0.309064
0.30906
0.309054
0.309041
0.309011
0.308943
0.308793
0.308462
0.336406
0.336749
0.336907
0.336978
0.33701
0.337024
0.337031
0.337035
0.337037
0.337038
0.33704
0.337041
0.337042
0.337043
0.337044
0.337044
0.337045
0.337046
0.337046
0.337047
0.337048
0.337048
0.337049
0.337049
0.337049
0.33705
0.33705
0.33705
0.33705
0.33705
0.33705
0.33705
0.33705
0.33705
0.33705
0.337049
0.337049
0.337049
0.337048
0.337048
0.337047
0.337046
0.337046
0.337045
0.337044
0.337044
0.337043
0.337042
0.337041
0.33704
0.337038
0.337037
0.337035
0.337031
0.337024
0.33701
0.336978
0.336907
0.336749
0.336406
0.363805
0.364159
0.364324
0.364399
0.364433
0.364448
0.364455
0.364459
0.364461
0.364463
0.364464
0.364465
0.364466
0.364467
0.364468
0.364469
0.36447
0.36447
0.364471
0.364472
0.364472
0.364473
0.364473
0.364473
0.364474
0.364474
0.364474
0.364474
0.364474
0.364474
0.364474
0.364474
0.364474
0.364474
0.364474
0.364474
0.364473
0.364473
0.364473
0.364472
0.364472
0.364471
0.36447
0.36447
0.364469
0.364468
0.364467
0.364466
0.364465
0.364464
0.364463
0.364461
0.364459
0.364455
0.364448
0.364433
0.364399
0.364324
0.364159
0.363805
0.390608
0.390971
0.391142
0.391221
0.391257
0.391273
0.391281
0.391285
0.391287
0.391289
0.39129
0.391291
0.391292
0.391293
0.391294
0.391295
0.391295
0.391296
0.391297
0.391297
0.391298
0.391298
0.391299
0.391299
0.391299
0.3913
0.3913
0.3913
0.3913
0.3913
0.3913
0.3913
0.3913
0.3913
0.3913
0.391299
0.391299
0.391299
0.391298
0.391298
0.391297
0.391297
0.391296
0.391295
0.391295
0.391294
0.391293
0.391292
0.391291
0.39129
0.391289
0.391287
0.391285
0.391281
0.391273
0.391257
0.391221
0.391142
0.390971
0.390608
0.416778
0.417147
0.417325
0.417408
0.417446
0.417463
0.417471
0.417476
0.417478
0.41748
0.417481
0.417482
0.417483
0.417484
0.417484
0.417485
0.417486
0.417487
0.417487
0.417488
0.417488
0.417489
0.417489
0.417489
0.41749
0.41749
0.41749
0.41749
0.41749
0.41749
0.41749
0.41749
0.41749
0.41749
0.41749
0.41749
0.417489
0.417489
0.417489
0.417488
0.417488
0.417487
0.417487
0.417486
0.417485
0.417484
0.417484
0.417483
0.417482
0.417481
0.41748
0.417478
0.417476
0.417471
0.417463
0.417446
0.417408
0.417325
0.417147
0.416778
0.442287
0.442663
0.442846
0.442933
0.442973
0.442991
0.443
0.443004
0.443006
0.443008
0.443009
0.44301
0.443011
0.443012
0.443013
0.443014
0.443014
0.443015
0.443015
0.443016
0.443016
0.443017
0.443017
0.443018
0.443018
0.443018
0.443018
0.443018
0.443019
0.443019
0.443019
0.443019
0.443018
0.443018
0.443018
0.443018
0.443018
0.443017
0.443017
0.443016
0.443016
0.443015
0.443015
0.443014
0.443014
0.443013
0.443012
0.443011
0.44301
0.443009
0.443008
0.443006
0.443004
0.443
0.442991
0.442973
0.442933
0.442846
0.442663
0.442287
0.467115
0.467497
0.467686
0.467775
0.467817
0.467837
0.467846
0.467851
0.467853
0.467855
0.467856
0.467857
0.467858
0.467859
0.467859
0.46786
0.467861
0.467861
0.467862
0.467862
0.467863
0.467863
0.467864
0.467864
0.467864
0.467865
0.467865
0.467865
0.467865
0.467865
0.467865
0.467865
0.467865
0.467865
0.467865
0.467864
0.467864
0.467864
0.467863
0.467863
0.467862
0.467862
0.467861
0.467861
0.46786
0.467859
0.467859
0.467858
0.467857
0.467856
0.467855
0.467853
0.467851
0.467846
0.467837
0.467817
0.467775
0.467686
0.467497
0.467115
0.49125
0.491635
0.491829
0.491922
0.491966
0.491986
0.491996
0.492001
0.492004
0.492006
0.492007
0.492008
0.492009
0.492009
0.49201
0.492011
0.492011
0.492012
0.492012
0.492013
0.492013
0.492014
0.492014
0.492014
0.492015
0.492015
0.492015
0.492015
0.492015
0.492015
0.492015
0.492015
0.492015
0.492015
0.492015
0.492015
0.492014
0.492014
0.492014
0.492013
0.492013
0.492012
0.492012
0.492011
0.492011
0.49201
0.492009
0.492009
0.492008
0.492007
0.492006
0.492004
0.492001
0.491996
0.491986
0.491966
0.491922
0.491829
0.491635
0.49125
0.51468
0.515068
0.515266
0.515363
0.515408
0.51543
0.51544
0.515446
0.515448
0.51545
0.515451
0.515452
0.515453
0.515454
0.515455
0.515455
0.515456
0.515456
0.515457
0.515457
0.515458
0.515458
0.515458
0.515459
0.515459
0.515459
0.515459
0.515459
0.51546
0.51546
0.51546
0.51546
0.515459
0.515459
0.515459
0.515459
0.515459
0.515458
0.515458
0.515458
0.515457
0.515457
0.515456
0.515456
0.515455
0.515455
0.515454
0.515453
0.515452
0.515451
0.51545
0.515448
0.515446
0.51544
0.51543
0.515408
0.515363
0.515266
0.515068
0.51468
0.537399
0.537789
0.537991
0.53809
0.538138
0.538161
0.538172
0.538178
0.53818
0.538182
0.538183
0.538184
0.538185
0.538186
0.538187
0.538187
0.538188
0.538188
0.538189
0.538189
0.538189
0.53819
0.53819
0.53819
0.538191
0.538191
0.538191
0.538191
0.538191
0.538191
0.538191
0.538191
0.538191
0.538191
0.538191
0.538191
0.53819
0.53819
0.53819
0.538189
0.538189
0.538189
0.538188
0.538188
0.538187
0.538187
0.538186
0.538185
0.538184
0.538183
0.538182
0.53818
0.538178
0.538172
0.538161
0.538138
0.53809
0.537991
0.537789
0.537399
0.559404
0.559794
0.559999
0.560102
0.560152
0.560176
0.560188
0.560193
0.560196
0.560198
0.5602
0.5602
0.560201
0.560202
0.560202
0.560203
0.560204
0.560204
0.560204
0.560205
0.560205
0.560206
0.560206
0.560206
0.560206
0.560207
0.560207
0.560207
0.560207
0.560207
0.560207
0.560207
0.560207
0.560207
0.560207
0.560206
0.560206
0.560206
0.560206
0.560205
0.560205
0.560204
0.560204
0.560204
0.560203
0.560202
0.560202
0.560201
0.5602
0.5602
0.560198
0.560196
0.560193
0.560188
0.560176
0.560152
0.560102
0.559999
0.559794
0.559404
0.580693
0.581083
0.581291
0.581397
0.581449
0.581474
0.581486
0.581492
0.581496
0.581497
0.581499
0.5815
0.5815
0.581501
0.581501
0.581502
0.581502
0.581503
0.581503
0.581504
0.581504
0.581504
0.581505
0.581505
0.581505
0.581505
0.581505
0.581506
0.581506
0.581506
0.581506
0.581506
0.581506
0.581505
0.581505
0.581505
0.581505
0.581505
0.581504
0.581504
0.581504
0.581503
0.581503
0.581502
0.581502
0.581501
0.581501
0.5815
0.5815
0.581499
0.581497
0.581496
0.581492
0.581486
0.581474
0.581449
0.581397
0.581291
0.581083
0.580693
0.601268
0.601657
0.601868
0.601976
0.60203
0.602056
0.602069
0.602076
0.602079
0.602081
0.602082
0.602083
0.602084
0.602084
0.602085
0.602085
0.602086
0.602086
0.602087
0.602087
0.602087
0.602088
0.602088
0.602088
0.602088
0.602088
0.602089
0.602089
0.602089
0.602089
0.602089
0.602089
0.602089
0.602089
0.602088
0.602088
0.602088
0.602088
0.602088
0.602087
0.602087
0.602087
0.602086
0.602086
0.602085
0.602085
0.602084
0.602084
0.602083
0.602082
0.602081
0.602079
0.602076
0.602069
0.602056
0.60203
0.601976
0.601868
0.601657
0.601268
0.621133
0.621519
0.621732
0.621843
0.621899
0.621926
0.62194
0.621947
0.62195
0.621952
0.621953
0.621954
0.621955
0.621956
0.621956
0.621957
0.621957
0.621957
0.621958
0.621958
0.621958
0.621959
0.621959
0.621959
0.621959
0.621959
0.62196
0.62196
0.62196
0.62196
0.62196
0.62196
0.62196
0.62196
0.621959
0.621959
0.621959
0.621959
0.621959
0.621958
0.621958
0.621958
0.621957
0.621957
0.621957
0.621956
0.621956
0.621955
0.621954
0.621953
0.621952
0.62195
0.621947
0.62194
0.621926
0.621899
0.621843
0.621732
0.621519
0.621133
0.640292
0.640675
0.64089
0.641003
0.64106
0.641089
0.641103
0.641111
0.641114
0.641117
0.641118
0.641119
0.641119
0.64112
0.64112
0.641121
0.641121
0.641121
0.641122
0.641122
0.641122
0.641123
0.641123
0.641123
0.641123
0.641123
0.641123
0.641124
0.641124
0.641124
0.641124
0.641124
0.641124
0.641123
0.641123
0.641123
0.641123
0.641123
0.641123
0.641122
0.641122
0.641122
0.641121
0.641121
0.641121
0.64112
0.64112
0.641119
0.641119
0.641118
0.641117
0.641114
0.641111
0.641103
0.641089
0.64106
0.641003
0.64089
0.640675
0.640292
0.658752
0.659132
0.659347
0.659463
0.659522
0.659552
0.659567
0.659575
0.659579
0.659581
0.659582
0.659583
0.659583
0.659584
0.659584
0.659585
0.659585
0.659585
0.659586
0.659586
0.659586
0.659586
0.659587
0.659587
0.659587
0.659587
0.659587
0.659587
0.659587
0.659587
0.659587
0.659587
0.659587
0.659587
0.659587
0.659587
0.659587
0.659587
0.659586
0.659586
0.659586
0.659586
0.659585
0.659585
0.659585
0.659584
0.659584
0.659583
0.659583
0.659582
0.659581
0.659579
0.659575
0.659567
0.659552
0.659522
0.659463
0.659347
0.659132
0.658752
0.676522
0.676897
0.677113
0.67723
0.677292
0.677323
0.677338
0.677346
0.677351
0.677353
0.677354
0.677355
0.677356
0.677356
0.677357
0.677357
0.677357
0.677358
0.677358
0.677358
0.677358
0.677358
0.677359
0.677359
0.677359
0.677359
0.677359
0.677359
0.677359
0.677359
0.677359
0.677359
0.677359
0.677359
0.677359
0.677359
0.677359
0.677359
0.677358
0.677358
0.677358
0.677358
0.677358
0.677357
0.677357
0.677357
0.677356
0.677356
0.677355
0.677354
0.677353
0.677351
0.677346
0.677338
0.677323
0.677292
0.67723
0.677113
0.676897
0.676522
0.693611
0.693981
0.694197
0.694316
0.694379
0.694411
0.694428
0.694436
0.69444
0.694443
0.694444
0.694445
0.694446
0.694446
0.694446
0.694447
0.694447
0.694447
0.694448
0.694448
0.694448
0.694448
0.694448
0.694448
0.694449
0.694449
0.694449
0.694449
0.694449
0.694449
0.694449
0.694449
0.694449
0.694449
0.694449
0.694449
0.694448
0.694448
0.694448
0.694448
0.694448
0.694448
0.694447
0.694447
0.694447
0.694446
0.694446
0.694446
0.694445
0.694444
0.694443
0.69444
0.694436
0.694428
0.694411
0.694379
0.694316
0.694197
0.693981
0.693611
0.710029
0.710394
0.71061
0.71073
0.710794
0.710828
0.710845
0.710854
0.710859
0.710861
0.710863
0.710863
0.710864
0.710864
0.710865
0.710865
0.710865
0.710865
0.710866
0.710866
0.710866
0.710866
0.710866
0.710866
0.710867
0.710867
0.710867
0.710867
0.710867
0.710867
0.710867
0.710867
0.710867
0.710867
0.710867
0.710867
0.710866
0.710866
0.710866
0.710866
0.710866
0.710866
0.710865
0.710865
0.710865
0.710865
0.710864
0.710864
0.710863
0.710863
0.710861
0.710859
0.710854
0.710845
0.710828
0.710794
0.71073
0.71061
0.710394
0.710029
0.725789
0.726147
0.726363
0.726484
0.72655
0.726585
0.726603
0.726612
0.726617
0.72662
0.726621
0.726622
0.726622
0.726623
0.726623
0.726623
0.726623
0.726624
0.726624
0.726624
0.726624
0.726624
0.726624
0.726625
0.726625
0.726625
0.726625
0.726625
0.726625
0.726625
0.726625
0.726625
0.726625
0.726625
0.726625
0.726625
0.726625
0.726624
0.726624
0.726624
0.726624
0.726624
0.726624
0.726623
0.726623
0.726623
0.726623
0.726622
0.726622
0.726621
0.72662
0.726617
0.726612
0.726603
0.726585
0.72655
0.726484
0.726363
0.726147
0.725789
0.740903
0.741255
0.741469
0.741591
0.741658
0.741694
0.741713
0.741723
0.741728
0.741731
0.741732
0.741733
0.741734
0.741734
0.741734
0.741734
0.741735
0.741735
0.741735
0.741735
0.741735
0.741735
0.741735
0.741736
0.741736
0.741736
0.741736
0.741736
0.741736
0.741736
0.741736
0.741736
0.741736
0.741736
0.741736
0.741736
0.741736
0.741735
0.741735
0.741735
0.741735
0.741735
0.741735
0.741735
0.741734
0.741734
0.741734
0.741734
0.741733
0.741732
0.741731
0.741728
0.741723
0.741713
0.741694
0.741658
0.741591
0.741469
0.741255
0.740903
0.755385
0.755729
0.755941
0.756064
0.756133
0.75617
0.756189
0.7562
0.756205
0.756208
0.75621
0.756211
0.756211
0.756211
0.756212
0.756212
0.756212
0.756212
0.756212
0.756212
0.756212
0.756213
0.756213
0.756213
0.756213
0.756213
0.756213
0.756213
0.756213
0.756213
0.756213
0.756213
0.756213
0.756213
0.756213
0.756213
0.756213
0.756213
0.756213
0.756212
0.756212
0.756212
0.756212
0.756212
0.756212
0.756212
0.756211
0.756211
0.756211
0.75621
0.756208
0.756205
0.7562
0.756189
0.75617
0.756133
0.756064
0.755941
0.755729
0.755385
0.769247
0.769584
0.769795
0.769918
0.769988
0.770026
0.770046
0.770057
0.770063
0.770066
0.770068
0.770068
0.770069
0.770069
0.770069
0.77007
0.77007
0.77007
0.77007
0.77007
0.77007
0.77007
0.77007
0.77007
0.77007
0.77007
0.77007
0.77007
0.77007
0.77007
0.77007
0.77007
0.77007
0.77007
0.77007
0.77007
0.77007
0.77007
0.77007
0.77007
0.77007
0.77007
0.77007
0.77007
0.77007
0.770069
0.770069
0.770069
0.770068
0.770068
0.770066
0.770063
0.770057
0.770046
0.770026
0.769988
0.769918
0.769795
0.769584
0.769247
0.782507
0.782835
0.783043
0.783167
0.783238
0.783277
0.783298
0.78331
0.783316
0.783319
0.783321
0.783321
0.783322
0.783322
0.783322
0.783322