/*--------------------------------*- C++ -*----------------------------------*\
| =========                 |                                                 |
| \\      /  F ield         | foam-extend: Open Source CFD                    |
|  \\    /   O peration     | Version:     4.0                                |
|   \\  /    A nd           | Web:         http://www.foam-extend.org         |
|    \\/     M anipulation  |                                                 |
\*---------------------------------------------------------------------------*/
FoamFile
{
    version     2.0;
    format      ascii;
    class       volScalarField;
    location    "11";
    object      dC1;
}
// * * * * * * * * * * * * * * * * * * * * * * * * * * * * * * * * * * * * * //

dimensions      [0 -1 0 0 0 0 0];

internalField   nonuniform List<scalar> 
6960
(
2.02882e-09
2.02884e-09
2.02883e-09
2.02883e-09
2.02884e-09
2.02884e-09
2.02883e-09
2.02885e-09
2.02885e-09
2.02883e-09
2.02885e-09
2.02883e-09
2.02885e-09
2.02884e-09
2.02885e-09
2.02883e-09
2.02884e-09
2.02883e-09
2.02884e-09
2.02884e-09
2.02883e-09
2.02884e-09
2.02884e-09
2.02884e-09
2.02885e-09
2.02884e-09
2.02884e-09
2.02884e-09
2.02884e-09
2.02884e-09
2.02884e-09
2.02884e-09
2.02885e-09
2.02884e-09
2.02885e-09
2.02883e-09
2.02884e-09
2.02883e-09
2.02885e-09
2.02884e-09
2.02884e-09
2.02885e-09
2.02884e-09
2.02884e-09
2.02884e-09
2.02884e-09
2.02884e-09
2.02884e-09
2.02883e-09
2.02884e-09
2.02885e-09
2.02884e-09
2.02884e-09
2.02884e-09
2.02885e-09
2.02883e-09
2.02884e-09
2.02884e-09
2.02884e-09
2.02883e-09
4.73688e-10
4.73688e-10
4.73688e-10
4.73689e-10
4.73688e-10
4.73687e-10
4.7369e-10
4.73689e-10
4.73689e-10
4.73689e-10
4.73691e-10
4.73689e-10
4.7369e-10
4.73688e-10
4.73688e-10
4.73689e-10
4.73689e-10
4.73689e-10
4.73689e-10
4.73689e-10
4.73689e-10
4.73688e-10
4.73689e-10
4.73689e-10
4.73689e-10
4.7369e-10
4.73689e-10
4.73688e-10
4.73689e-10
4.73689e-10
4.73689e-10
4.73689e-10
4.73689e-10
4.7369e-10
4.7369e-10
4.73688e-10
4.73689e-10
4.73689e-10
4.73689e-10
4.7369e-10
4.73689e-10
4.73689e-10
4.73689e-10
4.7369e-10
4.73688e-10
4.73689e-10
4.73688e-10
4.73689e-10
4.7369e-10
4.7369e-10
4.73689e-10
4.73689e-10
4.7369e-10
4.73689e-10
4.73688e-10
4.73689e-10
4.73689e-10
4.73689e-10
4.73689e-10
4.73686e-10
-5.16497e-10
-5.16498e-10
-5.16498e-10
-5.16499e-10
-5.16498e-10
-5.16498e-10
-5.16499e-10
-5.16499e-10
-5.16499e-10
-5.16499e-10
-5.16499e-10
-5.16499e-10
-5.16499e-10
-5.16499e-10
-5.16499e-10
-5.16498e-10
-5.16498e-10
-5.16499e-10
-5.16499e-10
-5.16498e-10
-5.16498e-10
-5.16499e-10
-5.16499e-10
-5.16499e-10
-5.16498e-10
-5.16499e-10
-5.16498e-10
-5.16498e-10
-5.16498e-10
-5.16498e-10
-5.16499e-10
-5.16499e-10
-5.16498e-10
-5.16499e-10
-5.16499e-10
-5.16499e-10
-5.16499e-10
-5.16499e-10
-5.16499e-10
-5.16498e-10
-5.16499e-10
-5.16498e-10
-5.16499e-10
-5.16499e-10
-5.165e-10
-5.16499e-10
-5.16498e-10
-5.16499e-10
-5.16498e-10
-5.16498e-10
-5.16498e-10
-5.16499e-10
-5.16499e-10
-5.16499e-10
-5.16499e-10
-5.16499e-10
-5.16499e-10
-5.16498e-10
-5.16498e-10
-5.16498e-10
-1.32652e-09
-1.32652e-09
-1.32652e-09
-1.32653e-09
-1.32653e-09
-1.32653e-09
-1.32653e-09
-1.32653e-09
-1.32653e-09
-1.32653e-09
-1.32653e-09
-1.32653e-09
-1.32653e-09
-1.32653e-09
-1.32653e-09
-1.32653e-09
-1.32653e-09
-1.32653e-09
-1.32653e-09
-1.32653e-09
-1.32653e-09
-1.32653e-09
-1.32653e-09
-1.32653e-09
-1.32653e-09
-1.32653e-09
-1.32653e-09
-1.32653e-09
-1.32653e-09
-1.32653e-09
-1.32653e-09
-1.32653e-09
-1.32653e-09
-1.32653e-09
-1.32653e-09
-1.32653e-09
-1.32653e-09
-1.32653e-09
-1.32653e-09
-1.32653e-09
-1.32653e-09
-1.32653e-09
-1.32653e-09
-1.32653e-09
-1.32653e-09
-1.32653e-09
-1.32653e-09
-1.32653e-09
-1.32653e-09
-1.32653e-09
-1.32653e-09
-1.32653e-09
-1.32653e-09
-1.32653e-09
-1.32653e-09
-1.32653e-09
-1.32653e-09
-1.32653e-09
-1.32652e-09
-1.32652e-09
-1.15112e-09
-1.15112e-09
-1.15112e-09
-1.15112e-09
-1.15112e-09
-1.15112e-09
-1.15112e-09
-1.15112e-09
-1.15112e-09
-1.15112e-09
-1.15112e-09
-1.15112e-09
-1.15112e-09
-1.15112e-09
-1.15112e-09
-1.15112e-09
-1.15112e-09
-1.15112e-09
-1.15112e-09
-1.15112e-09
-1.15112e-09
-1.15112e-09
-1.15112e-09
-1.15112e-09
-1.15112e-09
-1.15112e-09
-1.15112e-09
-1.15112e-09
-1.15112e-09
-1.15112e-09
-1.15112e-09
-1.15112e-09
-1.15112e-09
-1.15112e-09
-1.15112e-09
-1.15112e-09
-1.15112e-09
-1.15112e-09
-1.15112e-09
-1.15112e-09
-1.15112e-09
-1.15112e-09
-1.15112e-09
-1.15112e-09
-1.15112e-09
-1.15112e-09
-1.15112e-09
-1.15112e-09
-1.15112e-09
-1.15112e-09
-1.15112e-09
-1.15112e-09
-1.15112e-09
-1.15112e-09
-1.15112e-09
-1.15112e-09
-1.15112e-09
-1.15112e-09
-1.15112e-09
-1.15112e-09
-8.69937e-11
-8.69946e-11
-8.69958e-11
-8.69959e-11
-8.6996e-11
-8.6996e-11
-8.69956e-11
-8.6996e-11
-8.69956e-11
-8.69959e-11
-8.69958e-11
-8.69962e-11
-8.69956e-11
-8.6996e-11
-8.69952e-11
-8.69951e-11
-8.69954e-11
-8.69955e-11
-8.69955e-11
-8.69957e-11
-8.69953e-11
-8.69954e-11
-8.69961e-11
-8.69957e-11
-8.69953e-11
-8.6996e-11
-8.69957e-11
-8.69954e-11
-8.69957e-11
-8.69957e-11
-8.69957e-11
-8.69959e-11
-8.69953e-11
-8.6996e-11
-8.69957e-11
-8.69962e-11
-8.69961e-11
-8.69956e-11
-8.69957e-11
-8.69956e-11
-8.69954e-11
-8.69961e-11
-8.69957e-11
-8.69955e-11
-8.69958e-11
-8.69963e-11
-8.69955e-11
-8.69958e-11
-8.69958e-11
-8.69957e-11
-8.69959e-11
-8.6996e-11
-8.69958e-11
-8.69959e-11
-8.69959e-11
-8.69961e-11
-8.69956e-11
-8.6995e-11
-8.6995e-11
-8.69933e-11
5.97126e-10
5.97127e-10
5.97128e-10
5.97128e-10
5.97129e-10
5.97129e-10
5.97129e-10
5.97129e-10
5.97129e-10
5.97129e-10
5.97129e-10
5.97129e-10
5.97129e-10
5.97129e-10
5.97129e-10
5.97129e-10
5.97128e-10
5.97129e-10
5.97129e-10
5.97129e-10
5.97129e-10
5.97129e-10
5.97129e-10
5.97129e-10
5.97128e-10
5.97129e-10
5.97129e-10
5.97129e-10
5.97129e-10
5.97129e-10
5.97129e-10
5.97129e-10
5.97129e-10
5.97129e-10
5.97129e-10
5.97129e-10
5.97129e-10
5.97129e-10
5.97129e-10
5.97129e-10
5.97129e-10
5.97129e-10
5.97128e-10
5.97129e-10
5.97129e-10
5.97129e-10
5.97129e-10
5.97129e-10
5.97129e-10
5.97129e-10
5.97129e-10
5.97129e-10
5.97129e-10
5.97129e-10
5.97129e-10
5.97129e-10
5.97128e-10
5.97128e-10
5.97127e-10
5.97126e-10
-1.76432e-10
-1.76429e-10
-1.76427e-10
-1.76427e-10
-1.76426e-10
-1.76427e-10
-1.76426e-10
-1.76426e-10
-1.76426e-10
-1.76426e-10
-1.76426e-10
-1.76426e-10
-1.76426e-10
-1.76426e-10
-1.76426e-10
-1.76426e-10
-1.76426e-10
-1.76426e-10
-1.76426e-10
-1.76426e-10
-1.76426e-10
-1.76426e-10
-1.76426e-10
-1.76426e-10
-1.76426e-10
-1.76426e-10
-1.76427e-10
-1.76426e-10
-1.76427e-10
-1.76426e-10
-1.76426e-10
-1.76426e-10
-1.76426e-10
-1.76426e-10
-1.76427e-10
-1.76427e-10
-1.76427e-10
-1.76426e-10
-1.76427e-10
-1.76427e-10
-1.76426e-10
-1.76426e-10
-1.76426e-10
-1.76426e-10
-1.76426e-10
-1.76426e-10
-1.76427e-10
-1.76427e-10
-1.76426e-10
-1.76426e-10
-1.76426e-10
-1.76426e-10
-1.76426e-10
-1.76426e-10
-1.76426e-10
-1.76427e-10
-1.76426e-10
-1.76427e-10
-1.76429e-10
-1.76432e-10
-1.94941e-09
-1.94941e-09
-1.94941e-09
-1.94941e-09
-1.94941e-09
-1.94941e-09
-1.94941e-09
-1.94941e-09
-1.94941e-09
-1.94941e-09
-1.94941e-09
-1.94941e-09
-1.94941e-09
-1.94941e-09
-1.94941e-09
-1.94941e-09
-1.94941e-09
-1.94941e-09
-1.94941e-09
-1.94941e-09
-1.94941e-09
-1.94941e-09
-1.94941e-09
-1.94941e-09
-1.94941e-09
-1.94941e-09
-1.94941e-09
-1.94941e-09
-1.94941e-09
-1.94941e-09
-1.94941e-09
-1.94941e-09
-1.94941e-09
-1.94941e-09
-1.94941e-09
-1.94941e-09
-1.94941e-09
-1.94941e-09
-1.94941e-09
-1.94941e-09
-1.94941e-09
-1.94941e-09
-1.94941e-09
-1.94941e-09
-1.94941e-09
-1.94941e-09
-1.94941e-09
-1.94941e-09
-1.94941e-09
-1.94941e-09
-1.94941e-09
-1.94941e-09
-1.94941e-09
-1.94941e-09
-1.94941e-09
-1.94941e-09
-1.94941e-09
-1.94941e-09
-1.94941e-09
-1.94941e-09
-3.18512e-09
-3.18512e-09
-3.18512e-09
-3.18512e-09
-3.18512e-09
-3.18512e-09
-3.18513e-09
-3.18513e-09
-3.18513e-09
-3.18513e-09
-3.18513e-09
-3.18513e-09
-3.18513e-09
-3.18513e-09
-3.18513e-09
-3.18513e-09
-3.18513e-09
-3.18513e-09
-3.18512e-09
-3.18512e-09
-3.18513e-09
-3.18513e-09
-3.18513e-09
-3.18513e-09
-3.18513e-09
-3.18513e-09
-3.18513e-09
-3.18513e-09
-3.18512e-09
-3.18513e-09
-3.18513e-09
-3.18513e-09
-3.18513e-09
-3.18513e-09
-3.18513e-09
-3.18512e-09
-3.18512e-09
-3.18513e-09
-3.18513e-09
-3.18513e-09
-3.18513e-09
-3.18513e-09
-3.18513e-09
-3.18513e-09
-3.18513e-09
-3.18513e-09
-3.18513e-09
-3.18513e-09
-3.18513e-09
-3.18513e-09
-3.18513e-09
-3.18512e-09
-3.18513e-09
-3.18513e-09
-3.18513e-09
-3.18513e-09
-3.18512e-09
-3.18512e-09
-3.18512e-09
-3.18512e-09
-2.86073e-09
-2.86073e-09
-2.86074e-09
-2.86074e-09
-2.86074e-09
-2.86074e-09
-2.86074e-09
-2.86074e-09
-2.86074e-09
-2.86074e-09
-2.86074e-09
-2.86074e-09
-2.86074e-09
-2.86074e-09
-2.86074e-09
-2.86074e-09
-2.86074e-09
-2.86074e-09
-2.86074e-09
-2.86074e-09
-2.86074e-09
-2.86074e-09
-2.86074e-09
-2.86074e-09
-2.86074e-09
-2.86074e-09
-2.86074e-09
-2.86074e-09
-2.86074e-09
-2.86074e-09
-2.86074e-09
-2.86074e-09
-2.86074e-09
-2.86074e-09
-2.86074e-09
-2.86074e-09
-2.86074e-09
-2.86074e-09
-2.86074e-09
-2.86074e-09
-2.86074e-09
-2.86074e-09
-2.86074e-09
-2.86074e-09
-2.86074e-09
-2.86074e-09
-2.86074e-09
-2.86074e-09
-2.86074e-09
-2.86074e-09
-2.86074e-09
-2.86074e-09
-2.86074e-09
-2.86074e-09
-2.86074e-09
-2.86074e-09
-2.86074e-09
-2.86074e-09
-2.86073e-09
-2.86073e-09
-1.26912e-09
-1.26913e-09
-1.26913e-09
-1.26913e-09
-1.26913e-09
-1.26913e-09
-1.26913e-09
-1.26913e-09
-1.26913e-09
-1.26913e-09
-1.26913e-09
-1.26913e-09
-1.26913e-09
-1.26913e-09
-1.26913e-09
-1.26913e-09
-1.26913e-09
-1.26913e-09
-1.26913e-09
-1.26913e-09
-1.26913e-09
-1.26913e-09
-1.26913e-09
-1.26913e-09
-1.26913e-09
-1.26913e-09
-1.26913e-09
-1.26913e-09
-1.26913e-09
-1.26913e-09
-1.26913e-09
-1.26913e-09
-1.26913e-09
-1.26913e-09
-1.26913e-09
-1.26913e-09
-1.26913e-09
-1.26913e-09
-1.26913e-09
-1.26913e-09
-1.26913e-09
-1.26913e-09
-1.26913e-09
-1.26913e-09
-1.26913e-09
-1.26913e-09
-1.26913e-09
-1.26913e-09
-1.26913e-09
-1.26913e-09
-1.26913e-09
-1.26913e-09
-1.26913e-09
-1.26913e-09
-1.26913e-09
-1.26913e-09
-1.26913e-09
-1.26913e-09
-1.26912e-09
-1.26912e-09
5.44581e-10
5.44578e-10
5.44576e-10
5.44575e-10
5.44575e-10
5.44575e-10
5.44575e-10
5.44576e-10
5.44576e-10
5.44575e-10
5.44575e-10
5.44575e-10
5.44576e-10
5.44576e-10
5.44576e-10
5.44576e-10
5.44575e-10
5.44575e-10
5.44575e-10
5.44576e-10
5.44575e-10
5.44575e-10
5.44576e-10
5.44576e-10
5.44575e-10
5.44576e-10
5.44576e-10
5.44575e-10
5.44575e-10
5.44576e-10
5.44575e-10
5.44576e-10
5.44575e-10
5.44575e-10
5.44575e-10
5.44575e-10
5.44576e-10
5.44576e-10
5.44575e-10
5.44576e-10
5.44575e-10
5.44575e-10
5.44575e-10
5.44576e-10
5.44576e-10
5.44575e-10
5.44576e-10
5.44575e-10
5.44575e-10
5.44575e-10
5.44575e-10
5.44575e-10
5.44576e-10
5.44575e-10
5.44576e-10
5.44576e-10
5.44576e-10
5.44576e-10
5.44577e-10
5.44582e-10
1.74201e-09
1.74201e-09
1.74201e-09
1.74201e-09
1.74201e-09
1.74201e-09
1.74201e-09
1.74201e-09
1.74201e-09
1.74201e-09
1.74201e-09
1.74201e-09
1.74201e-09
1.74201e-09
1.74201e-09
1.74201e-09
1.74201e-09
1.74201e-09
1.74201e-09
1.74201e-09
1.74201e-09
1.74201e-09
1.74201e-09
1.74201e-09
1.74201e-09
1.74201e-09
1.74201e-09
1.74201e-09
1.74201e-09
1.74201e-09
1.74201e-09
1.74201e-09
1.74201e-09
1.74201e-09
1.74201e-09
1.74201e-09
1.74201e-09
1.74201e-09
1.74201e-09
1.74201e-09
1.74201e-09
1.74201e-09
1.74201e-09
1.74201e-09
1.74201e-09
1.74201e-09
1.74201e-09
1.74201e-09
1.74201e-09
1.74201e-09
1.74201e-09
1.74201e-09
1.74201e-09
1.74201e-09
1.74201e-09
1.74201e-09
1.74201e-09
1.74201e-09
1.74201e-09
1.74201e-09
2.1119e-09
2.1119e-09
2.1119e-09
2.1119e-09
2.1119e-09
2.1119e-09
2.1119e-09
2.1119e-09
2.1119e-09
2.1119e-09
2.1119e-09
2.1119e-09
2.1119e-09
2.1119e-09
2.1119e-09
2.1119e-09
2.1119e-09
2.1119e-09
2.1119e-09
2.1119e-09
2.1119e-09
2.1119e-09
2.1119e-09
2.1119e-09
2.1119e-09
2.1119e-09
2.1119e-09
2.1119e-09
2.1119e-09
2.1119e-09
2.1119e-09
2.1119e-09
2.1119e-09
2.1119e-09
2.1119e-09
2.1119e-09
2.1119e-09
2.1119e-09
2.1119e-09
2.1119e-09
2.1119e-09
2.1119e-09
2.1119e-09
2.1119e-09
2.1119e-09
2.1119e-09
2.1119e-09
2.1119e-09
2.1119e-09
2.1119e-09
2.1119e-09
2.1119e-09
2.1119e-09
2.1119e-09
2.1119e-09
2.1119e-09
2.1119e-09
2.1119e-09
2.1119e-09
2.1119e-09
1.89414e-09
1.89414e-09
1.89415e-09
1.89415e-09
1.89415e-09
1.89415e-09
1.89415e-09
1.89415e-09
1.89415e-09
1.89415e-09
1.89415e-09
1.89415e-09
1.89415e-09
1.89415e-09
1.89415e-09
1.89415e-09
1.89415e-09
1.89415e-09
1.89415e-09
1.89415e-09
1.89415e-09
1.89415e-09
1.89415e-09
1.89415e-09
1.89415e-09
1.89415e-09
1.89415e-09
1.89415e-09
1.89415e-09
1.89415e-09
1.89415e-09
1.89415e-09
1.89415e-09
1.89415e-09
1.89415e-09
1.89415e-09
1.89415e-09
1.89415e-09
1.89415e-09
1.89415e-09
1.89415e-09
1.89415e-09
1.89415e-09
1.89415e-09
1.89415e-09
1.89415e-09
1.89415e-09
1.89415e-09
1.89415e-09
1.89415e-09
1.89415e-09
1.89415e-09
1.89415e-09
1.89415e-09
1.89415e-09
1.89415e-09
1.89415e-09
1.89415e-09
1.89414e-09
1.89414e-09
1.43268e-09
1.43268e-09
1.43268e-09
1.43268e-09
1.43268e-09
1.43268e-09
1.43268e-09
1.43268e-09
1.43268e-09
1.43268e-09
1.43268e-09
1.43268e-09
1.43268e-09
1.43268e-09
1.43268e-09
1.43268e-09
1.43268e-09
1.43268e-09
1.43268e-09
1.43268e-09
1.43268e-09
1.43268e-09
1.43268e-09
1.43268e-09
1.43268e-09
1.43268e-09
1.43268e-09
1.43268e-09
1.43268e-09
1.43268e-09
1.43268e-09
1.43268e-09
1.43268e-09
1.43268e-09
1.43268e-09
1.43268e-09
1.43268e-09
1.43268e-09
1.43268e-09
1.43268e-09
1.43268e-09
1.43268e-09
1.43268e-09
1.43268e-09
1.43268e-09
1.43268e-09
1.43268e-09
1.43268e-09
1.43268e-09
1.43268e-09
1.43268e-09
1.43268e-09
1.43268e-09
1.43268e-09
1.43268e-09
1.43268e-09
1.43268e-09
1.43268e-09
1.43268e-09
1.43268e-09
9.67242e-10
9.67245e-10
9.67246e-10
9.67247e-10
9.67248e-10
9.67247e-10
9.67247e-10
9.67247e-10
9.67246e-10
9.67248e-10
9.67246e-10
9.67247e-10
9.67247e-10
9.67247e-10
9.67247e-10
9.67247e-10
9.67247e-10
9.67246e-10
9.67247e-10
9.67247e-10
9.67248e-10
9.67246e-10
9.67248e-10
9.67247e-10
9.67248e-10
9.67247e-10
9.67247e-10
9.67247e-10
9.67247e-10
9.67248e-10
9.67248e-10
9.67248e-10
9.67247e-10
9.67246e-10
9.67247e-10
9.67247e-10
9.67246e-10
9.67247e-10
9.67247e-10
9.67247e-10
9.67247e-10
9.67247e-10
9.67248e-10
9.67247e-10
9.67247e-10
9.67248e-10
9.67247e-10
9.67247e-10
9.67247e-10
9.67247e-10
9.67248e-10
9.67249e-10
9.67247e-10
9.67247e-10
9.67248e-10
9.67246e-10
9.67247e-10
9.67247e-10
9.67245e-10
9.67242e-10
6.00235e-10
6.00235e-10
6.00237e-10
6.00238e-10
6.00237e-10
6.00238e-10
6.00238e-10
6.00239e-10
6.00237e-10
6.00237e-10
6.00238e-10
6.00237e-10
6.00237e-10
6.00237e-10
6.00238e-10
6.00237e-10
6.00237e-10
6.0024e-10
6.00239e-10
6.00238e-10
6.00238e-10
6.00239e-10
6.00238e-10
6.00237e-10
6.00237e-10
6.00238e-10
6.00239e-10
6.00238e-10
6.00238e-10
6.00237e-10
6.00237e-10
6.00237e-10
6.00237e-10
6.00239e-10
6.00238e-10
6.00239e-10
6.00237e-10
6.00238e-10
6.00237e-10
6.00238e-10
6.00238e-10
6.00237e-10
6.00237e-10
6.00238e-10
6.00238e-10
6.00239e-10
6.00239e-10
6.00237e-10
6.00238e-10
6.00239e-10
6.00237e-10
6.00238e-10
6.00238e-10
6.00238e-10
6.00238e-10
6.00238e-10
6.00238e-10
6.00236e-10
6.00236e-10
6.00235e-10
3.45744e-10
3.45746e-10
3.45746e-10
3.45745e-10
3.45745e-10
3.45745e-10
3.45746e-10
3.45746e-10
3.45746e-10
3.45746e-10
3.45746e-10
3.45747e-10
3.45746e-10
3.45746e-10
3.45746e-10
3.45746e-10
3.45747e-10
3.45744e-10
3.45745e-10
3.45745e-10
3.45746e-10
3.45745e-10
3.45746e-10
3.45746e-10
3.45746e-10
3.45746e-10
3.45745e-10
3.45745e-10
3.45746e-10
3.45746e-10
3.45746e-10
3.45745e-10
3.45746e-10
3.45746e-10
3.45746e-10
3.45745e-10
3.45747e-10
3.45746e-10
3.45745e-10
3.45746e-10
3.45746e-10
3.45747e-10
3.45746e-10
3.45745e-10
3.45745e-10
3.45745e-10
3.45743e-10
3.45746e-10
3.45745e-10
3.45746e-10
3.45746e-10
3.45745e-10
3.45746e-10
3.45746e-10
3.45745e-10
3.45747e-10
3.45745e-10
3.45746e-10
3.45745e-10
3.45744e-10
1.82266e-10
1.82266e-10
1.82268e-10
1.82267e-10
1.82269e-10
1.82268e-10
1.82267e-10
1.82268e-10
1.82267e-10
1.82267e-10
1.82267e-10
1.82268e-10
1.82267e-10
1.82268e-10
1.82267e-10
1.82267e-10
1.82267e-10
1.82268e-10
1.82268e-10
1.82269e-10
1.82267e-10
1.82268e-10
1.82268e-10
1.82267e-10
1.82268e-10
1.82268e-10
1.82267e-10
1.82268e-10
1.82268e-10
1.82268e-10
1.82267e-10
1.82268e-10
1.82266e-10
1.82267e-10
1.82267e-10
1.82268e-10
1.82267e-10
1.82268e-10
1.82267e-10
1.82268e-10
1.82268e-10
1.82266e-10
1.82268e-10
1.82268e-10
1.82268e-10
1.82268e-10
1.82268e-10
1.82268e-10
1.82268e-10
1.82267e-10
1.82267e-10
1.82268e-10
1.82267e-10
1.82268e-10
1.82268e-10
1.82267e-10
1.82267e-10
1.82267e-10
1.82267e-10
1.82265e-10
8.25275e-11
8.25275e-11
8.2527e-11
8.25284e-11
8.25265e-11
8.25269e-11
8.25279e-11
8.25268e-11
8.25277e-11
8.25274e-11
8.25283e-11
8.2528e-11
8.25288e-11
8.25277e-11
8.25272e-11
8.25279e-11
8.25278e-11
8.2527e-11
8.25283e-11
8.25273e-11
8.25269e-11
8.2527e-11
8.2527e-11
8.25276e-11
8.25279e-11
8.25276e-11
8.25274e-11
8.25285e-11
8.25272e-11
8.25278e-11
8.25279e-11
8.25267e-11
8.25281e-11
8.25289e-11
8.25275e-11
8.25274e-11
8.25277e-11
8.25272e-11
8.25283e-11
8.25278e-11
8.25275e-11
8.25284e-11
8.25269e-11
8.25269e-11
8.25275e-11
8.25263e-11
8.25274e-11
8.25273e-11
8.25269e-11
8.25274e-11
8.25274e-11
8.25275e-11
8.25274e-11
8.2527e-11
8.25271e-11
8.25285e-11
8.25273e-11
8.25293e-11
8.25273e-11
8.25281e-11
2.42512e-11
2.42522e-11
2.42509e-11
2.42501e-11
2.42503e-11
2.42522e-11
2.42511e-11
2.42518e-11
2.42513e-11
2.42511e-11
2.42507e-11
2.42511e-11
2.42509e-11
2.42509e-11
2.42518e-11
2.42512e-11
2.42523e-11
2.42511e-11
2.42504e-11
2.42509e-11
2.42519e-11
2.42503e-11
2.42514e-11
2.42506e-11
2.42522e-11
2.42512e-11
2.42526e-11
2.42498e-11
2.42517e-11
2.42518e-11
2.42507e-11
2.42519e-11
2.42506e-11
2.42505e-11
2.42513e-11
2.42509e-11
2.42506e-11
2.42521e-11
2.42497e-11
2.42496e-11
2.42502e-11
2.42516e-11
2.42516e-11
2.42518e-11
2.42505e-11
2.42525e-11
2.42512e-11
2.42519e-11
2.42515e-11
2.42527e-11
2.42529e-11
2.42517e-11
2.42503e-11
2.42521e-11
2.42509e-11
2.42512e-11
2.42508e-11
2.42502e-11
2.42503e-11
2.42503e-11
-8.22421e-12
-8.22239e-12
-8.22175e-12
-8.22225e-12
-8.2209e-12
-8.223e-12
-8.22312e-12
-8.22158e-12
-8.22227e-12
-8.22145e-12
-8.2209e-12
-8.22255e-12
-8.22234e-12
-8.22241e-12
-8.22213e-12
-8.22195e-12
-8.2219e-12
-8.22108e-12
-8.2215e-12
-8.2216e-12
-8.22277e-12
-8.22022e-12
-8.22193e-12
-8.22067e-12
-8.222e-12
-8.22131e-12
-8.22393e-12
-8.22044e-12
-8.22246e-12
-8.22332e-12
-8.22119e-12
-8.22254e-12
-8.22171e-12
-8.22153e-12
-8.22118e-12
-8.22195e-12
-8.22138e-12
-8.22211e-12
-8.22175e-12
-8.22058e-12
-8.2223e-12
-8.2234e-12
-8.22288e-12
-8.22256e-12
-8.22145e-12
-8.22207e-12
-8.22144e-12
-8.22326e-12
-8.22192e-12
-8.2238e-12
-8.22369e-12
-8.22273e-12
-8.22004e-12
-8.22157e-12
-8.2221e-12
-8.22299e-12
-8.22197e-12
-8.22101e-12
-8.22093e-12
-8.22252e-12
-2.51668e-11
-2.5168e-11
-2.51672e-11
-2.51684e-11
-2.51688e-11
-2.51674e-11
-2.51664e-11
-2.51681e-11
-2.51673e-11
-2.51683e-11
-2.51687e-11
-2.51672e-11
-2.51661e-11
-2.51677e-11
-2.51672e-11
-2.5168e-11
-2.51684e-11
-2.51687e-11
-2.51685e-11
-2.51668e-11
-2.5168e-11
-2.51697e-11
-2.51687e-11
-2.51686e-11
-2.51696e-11
-2.51685e-11
-2.51675e-11
-2.51681e-11
-2.51672e-11
-2.51664e-11
-2.51673e-11
-2.51671e-11
-2.51676e-11
-2.51691e-11
-2.51696e-11
-2.51674e-11
-2.51674e-11
-2.51689e-11
-2.51677e-11
-2.51691e-11
-2.5167e-11
-2.51662e-11
-2.51657e-11
-2.51673e-11
-2.51686e-11
-2.51688e-11
-2.51688e-11
-2.51662e-11
-2.51661e-11
-2.51661e-11
-2.51675e-11
-2.51674e-11
-2.51701e-11
-2.51678e-11
-2.51673e-11
-2.51654e-11
-2.5168e-11
-2.51681e-11
-2.51701e-11
-2.51675e-11
-3.30507e-11
-3.30501e-11
-3.30496e-11
-3.30485e-11
-3.30488e-11
-3.30493e-11
-3.30497e-11
-3.30494e-11
-3.30502e-11
-3.30487e-11
-3.30487e-11
-3.30484e-11
-3.30503e-11
-3.30493e-11
-3.30491e-11
-3.30484e-11
-3.30497e-11
-3.30487e-11
-3.30484e-11
-3.305e-11
-3.30493e-11
-3.30487e-11
-3.30486e-11
-3.30482e-11
-3.30485e-11
-3.30486e-11
-3.30475e-11
-3.30484e-11
-3.30495e-11
-3.30491e-11
-3.3049e-11
-3.30492e-11
-3.30494e-11
-3.3047e-11
-3.30469e-11
-3.30492e-11
-3.30484e-11
-3.3048e-11
-3.30486e-11
-3.30482e-11
-3.30482e-11
-3.30504e-11
-3.30502e-11
-3.30501e-11
-3.30495e-11
-3.30468e-11
-3.30482e-11
-3.30505e-11
-3.30506e-11
-3.30497e-11
-3.30493e-11
-3.30493e-11
-3.30465e-11
-3.30496e-11
-3.30481e-11
-3.30503e-11
-3.30477e-11
-3.30489e-11
-3.30484e-11
-3.30496e-11
-3.57946e-11
-3.57951e-11
-3.57944e-11
-3.57963e-11
-3.57957e-11
-3.5796e-11
-3.57952e-11
-3.5795e-11
-3.57957e-11
-3.57955e-11
-3.57949e-11
-3.57982e-11
-3.57957e-11
-3.57958e-11
-3.57969e-11
-3.57958e-11
-3.57946e-11
-3.57964e-11
-3.57952e-11
-3.57961e-11
-3.57945e-11
-3.57958e-11
-3.57964e-11
-3.57973e-11
-3.57948e-11
-3.57957e-11
-3.57969e-11
-3.5797e-11
-3.57941e-11
-3.57967e-11
-3.57959e-11
-3.57958e-11
-3.57954e-11
-3.57967e-11
-3.57965e-11
-3.57976e-11
-3.57967e-11
-3.57956e-11
-3.57964e-11
-3.57964e-11
-3.57969e-11
-3.57957e-11
-3.57969e-11
-3.57958e-11
-3.5796e-11
-3.5797e-11
-3.57961e-11
-3.57944e-11
-3.57952e-11
-3.57967e-11
-3.57954e-11
-3.57965e-11
-3.5797e-11
-3.57944e-11
-3.57969e-11
-3.57962e-11
-3.57976e-11
-3.5796e-11
-3.57951e-11
-3.57952e-11
-3.57286e-11
-3.57283e-11
-3.57302e-11
-3.57283e-11
-3.57287e-11
-3.57268e-11
-3.57301e-11
-3.57297e-11
-3.5728e-11
-3.57313e-11
-3.57315e-11
-3.57273e-11
-3.57282e-11
-3.57307e-11
-3.5728e-11
-3.57282e-11
-3.57287e-11
-3.57283e-11
-3.57303e-11
-3.57281e-11
-3.573e-11
-3.57283e-11
-3.57286e-11
-3.57301e-11
-3.57301e-11
-3.57293e-11
-3.57279e-11
-3.57268e-11
-3.57306e-11
-3.57291e-11
-3.57293e-11
-3.57296e-11
-3.5729e-11
-3.57306e-11
-3.5728e-11
-3.57276e-11
-3.57298e-11
-3.573e-11
-3.57278e-11
-3.57279e-11
-3.57296e-11
-3.57279e-11
-3.57283e-11
-3.57282e-11
-3.57291e-11
-3.57289e-11
-3.57295e-11
-3.57285e-11
-3.57287e-11
-3.57277e-11
-3.57296e-11
-3.5727e-11
-3.57285e-11
-3.57289e-11
-3.57276e-11
-3.57278e-11
-3.57293e-11
-3.57284e-11
-3.57298e-11
-3.5729e-11
-3.41864e-11
-3.41875e-11
-3.41844e-11
-3.41862e-11
-3.41865e-11
-3.41873e-11
-3.4185e-11
-3.41869e-11
-3.41853e-11
-3.41838e-11
-3.41845e-11
-3.41862e-11
-3.41864e-11
-3.4183e-11
-3.41877e-11
-3.41873e-11
-3.41867e-11
-3.41858e-11
-3.41845e-11
-3.4187e-11
-3.41841e-11
-3.41868e-11
-3.41855e-11
-3.41827e-11
-3.41844e-11
-3.41848e-11
-3.41851e-11
-3.4188e-11
-3.41853e-11
-3.41847e-11
-3.41856e-11
-3.41853e-11
-3.4186e-11
-3.41834e-11
-3.41875e-11
-3.41872e-11
-3.41845e-11
-3.41862e-11
-3.41865e-11
-3.41874e-11
-3.41842e-11
-3.41862e-11
-3.41866e-11
-3.4186e-11
-3.41851e-11
-3.41853e-11
-3.41847e-11
-3.41878e-11
-3.41848e-11
-3.41855e-11
-3.41856e-11
-3.41866e-11
-3.41846e-11
-3.41863e-11
-3.41872e-11
-3.4187e-11
-3.41837e-11
-3.41858e-11
-3.41845e-11
-3.41864e-11
-3.19265e-11
-3.19256e-11
-3.1928e-11
-3.19256e-11
-3.19262e-11
-3.1927e-11
-3.19265e-11
-3.19268e-11
-3.19286e-11
-3.19268e-11
-3.19263e-11
-3.19248e-11
-3.19264e-11
-3.19276e-11
-3.19255e-11
-3.19265e-11
-3.19263e-11
-3.1927e-11
-3.19266e-11
-3.1925e-11
-3.19288e-11
-3.19262e-11
-3.19256e-11
-3.19283e-11
-3.19287e-11
-3.19278e-11
-3.19283e-11
-3.19254e-11
-3.19251e-11
-3.19279e-11
-3.19271e-11
-3.1925e-11
-3.19274e-11
-3.19253e-11
-3.19254e-11
-3.1926e-11
-3.19269e-11
-3.19264e-11
-3.19272e-11
-3.19262e-11
-3.19278e-11
-3.19265e-11
-3.19263e-11
-3.19259e-11
-3.19265e-11
-3.19288e-11
-3.1928e-11
-3.19261e-11
-3.19289e-11
-3.19277e-11
-3.19255e-11
-3.19278e-11
-3.19281e-11
-3.19262e-11
-3.19258e-11
-3.1927e-11
-3.19272e-11
-3.1926e-11
-3.19282e-11
-3.19249e-11
-2.93798e-11
-2.93784e-11
-2.9378e-11
-2.93796e-11
-2.93805e-11
-2.93775e-11
-2.93807e-11
-2.93768e-11
-2.93787e-11
-2.93813e-11
-2.93795e-11
-2.93805e-11
-2.93799e-11
-2.93782e-11
-2.93796e-11
-2.93787e-11
-2.93793e-11
-2.93795e-11
-2.93795e-11
-2.938e-11
-2.93789e-11
-2.93816e-11
-2.93812e-11
-2.93808e-11
-2.9378e-11
-2.93803e-11
-2.9379e-11
-2.93796e-11
-2.93815e-11
-2.93786e-11
-2.93775e-11
-2.93808e-11
-2.93784e-11
-2.93821e-11
-2.93788e-11
-2.93799e-11
-2.93804e-11
-2.93788e-11
-2.93789e-11
-2.93785e-11
-2.93799e-11
-2.93793e-11
-2.93797e-11
-2.93798e-11
-2.93801e-11
-2.93769e-11
-2.93785e-11
-2.93767e-11
-2.93791e-11
-2.93784e-11
-2.93808e-11
-2.93781e-11
-2.93774e-11
-2.9378e-11
-2.9381e-11
-2.93781e-11
-2.93797e-11
-2.93805e-11
-2.93773e-11
-2.93805e-11
-2.67811e-11
-2.67834e-11
-2.67824e-11
-2.67822e-11
-2.67818e-11
-2.67835e-11
-2.67807e-11
-2.67825e-11
-2.67807e-11
-2.67808e-11
-2.67821e-11
-2.67819e-11
-2.67822e-11
-2.67828e-11
-2.67813e-11
-2.6783e-11
-2.67815e-11
-2.67826e-11
-2.67818e-11
-2.67809e-11
-2.67799e-11
-2.67792e-11
-2.6781e-11
-2.6781e-11
-2.67822e-11
-2.67799e-11
-2.67822e-11
-2.67817e-11
-2.67822e-11
-2.67817e-11
-2.67851e-11
-2.67813e-11
-2.67833e-11
-2.67803e-11
-2.67838e-11
-2.6781e-11
-2.67831e-11
-2.67824e-11
-2.67821e-11
-2.67822e-11
-2.678e-11
-2.67826e-11
-2.67802e-11
-2.6783e-11
-2.67811e-11
-2.67831e-11
-2.67813e-11
-2.67841e-11
-2.67787e-11
-2.67844e-11
-2.67811e-11
-2.67821e-11
-2.67832e-11
-2.67826e-11
-2.67784e-11
-2.67838e-11
-2.67802e-11
-2.67809e-11
-2.67836e-11
-2.67809e-11
-2.42618e-11
-2.42634e-11
-2.42627e-11
-2.4262e-11
-2.42636e-11
-2.42637e-11
-2.42645e-11
-2.42651e-11
-2.42659e-11
-2.42643e-11
-2.42645e-11
-2.42637e-11
-2.42627e-11
-2.42644e-11
-2.42623e-11
-2.42616e-11
-2.42644e-11
-2.4266e-11
-2.42636e-11
-2.42654e-11
-2.42655e-11
-2.4266e-11
-2.4265e-11
-2.42632e-11
-2.42641e-11
-2.42663e-11
-2.42605e-11
-2.42629e-11
-2.42615e-11
-2.42623e-11
-2.42605e-11
-2.42644e-11
-2.42633e-11
-2.42652e-11
-2.42596e-11
-2.42646e-11
-2.42604e-11
-2.42637e-11
-2.4265e-11
-2.42642e-11
-2.42642e-11
-2.42634e-11
-2.42636e-11
-2.42631e-11
-2.42629e-11
-2.42637e-11
-2.42634e-11
-2.42617e-11
-2.42641e-11
-2.42618e-11
-2.42627e-11
-2.42645e-11
-2.42618e-11
-2.42632e-11
-2.4267e-11
-2.42627e-11
-2.42655e-11
-2.42644e-11
-2.42626e-11
-2.42644e-11
-2.18946e-11
-2.18928e-11
-2.18948e-11
-2.18943e-11
-2.18932e-11
-2.18926e-11
-2.18927e-11
-2.1892e-11
-2.18931e-11
-2.1893e-11
-2.18922e-11
-2.18944e-11
-2.18905e-11
-2.18906e-11
-2.1892e-11
-2.18933e-11
-2.18931e-11
-2.18913e-11
-2.18931e-11
-2.18918e-11
-2.1892e-11
-2.1892e-11
-2.18922e-11
-2.18912e-11
-2.18932e-11
-2.18919e-11
-2.18945e-11
-2.1892e-11
-2.18929e-11
-2.18954e-11
-2.18944e-11
-2.18924e-11
-2.18915e-11
-2.18896e-11
-2.18961e-11
-2.18932e-11
-2.1896e-11
-2.18933e-11
-2.18903e-11
-2.18931e-11
-2.18918e-11
-2.18934e-11
-2.18941e-11
-2.18931e-11
-2.18938e-11
-2.18938e-11
-2.18927e-11
-2.18941e-11
-2.18943e-11
-2.1893e-11
-2.18918e-11
-2.18904e-11
-2.1895e-11
-2.1892e-11
-2.18921e-11
-2.18932e-11
-2.18897e-11
-2.18918e-11
-2.18945e-11
-2.18925e-11
-1.97014e-11
-1.97017e-11
-1.96997e-11
-1.96992e-11
-1.96985e-11
-1.97018e-11
-1.97024e-11
-1.96999e-11
-1.96996e-11
-1.9702e-11
-1.97018e-11
-1.96992e-11
-1.9703e-11
-1.97043e-11
-1.97056e-11
-1.97011e-11
-1.97035e-11
-1.97011e-11
-1.97001e-11
-1.97005e-11
-1.97011e-11
-1.96992e-11
-1.97011e-11
-1.97024e-11
-1.97001e-11
-1.97031e-11
-1.96995e-11
-1.97022e-11
-1.97011e-11
-1.96995e-11
-1.97015e-11
-1.97016e-11
-1.97037e-11
-1.97047e-11
-1.96987e-11
-1.96997e-11
-1.96999e-11
-1.97017e-11
-1.97032e-11
-1.97007e-11
-1.97029e-11
-1.96981e-11
-1.97021e-11
-1.97008e-11
-1.97009e-11
-1.97001e-11
-1.96996e-11
-1.97006e-11
-1.96983e-11
-1.97024e-11
-1.97039e-11
-1.97019e-11
-1.97015e-11
-1.97014e-11
-1.9701e-11
-1.97e-11
-1.97035e-11
-1.96984e-11
-1.97005e-11
-1.97019e-11
-1.76973e-11
-1.76997e-11
-1.76995e-11
-1.77008e-11
-1.77018e-11
-1.76982e-11
-1.77005e-11
-1.77002e-11
-1.77003e-11
-1.76965e-11
-1.7698e-11
-1.76981e-11
-1.76994e-11
-1.76983e-11
-1.76953e-11
-1.76988e-11
-1.76962e-11
-1.76994e-11
-1.76981e-11
-1.76993e-11
-1.76996e-11
-1.77023e-11
-1.76994e-11
-1.76997e-11
-1.77e-11
-1.7697e-11
-1.76984e-11
-1.76969e-11
-1.76999e-11
-1.7699e-11
-1.76984e-11
-1.76988e-11
-1.7696e-11
-1.76964e-11
-1.7698e-11
-1.77e-11
-1.7699e-11
-1.76967e-11
-1.76965e-11
-1.7699e-11
-1.76995e-11
-1.77001e-11
-1.76957e-11
-1.76978e-11
-1.76997e-11
-1.77004e-11
-1.76999e-11
-1.76977e-11
-1.76993e-11
-1.76958e-11
-1.76974e-11
-1.76987e-11
-1.76976e-11
-1.77001e-11
-1.77e-11
-1.76981e-11
-1.76973e-11
-1.77043e-11
-1.76986e-11
-1.76984e-11
-1.58839e-11
-1.58832e-11
-1.58821e-11
-1.58811e-11
-1.5882e-11
-1.58867e-11
-1.58799e-11
-1.58842e-11
-1.58828e-11
-1.58837e-11
-1.58815e-11
-1.5882e-11
-1.5883e-11
-1.58805e-11
-1.58842e-11
-1.58818e-11
-1.58819e-11
-1.58846e-11
-1.58838e-11
-1.5882e-11
-1.5883e-11
-1.588e-11
-1.58837e-11
-1.58794e-11
-1.58836e-11
-1.58839e-11
-1.58839e-11
-1.58873e-11
-1.5883e-11
-1.58837e-11
-1.58826e-11
-1.58813e-11
-1.58839e-11
-1.58838e-11
-1.58839e-11
-1.58839e-11
-1.58823e-11
-1.58833e-11
-1.58848e-11
-1.58814e-11
-1.58824e-11
-1.58855e-11
-1.58858e-11
-1.58815e-11
-1.58833e-11
-1.58826e-11
-1.58811e-11
-1.58827e-11
-1.58837e-11
-1.5884e-11
-1.58843e-11
-1.58846e-11
-1.58847e-11
-1.58826e-11
-1.58815e-11
-1.58824e-11
-1.58844e-11
-1.58781e-11
-1.58848e-11
-1.5883e-11
-1.42451e-11
-1.4248e-11
-1.42467e-11
-1.42481e-11
-1.42456e-11
-1.42425e-11
-1.42483e-11
-1.4246e-11
-1.42485e-11
-1.42481e-11
-1.42504e-11
-1.42497e-11
-1.42465e-11
-1.42497e-11
-1.42498e-11
-1.42476e-11
-1.42489e-11
-1.42444e-11
-1.42475e-11
-1.42463e-11
-1.42476e-11
-1.42505e-11
-1.42486e-11
-1.42507e-11
-1.42456e-11
-1.42483e-11
-1.42492e-11
-1.4244e-11
-1.42473e-11
-1.42487e-11
-1.42492e-11
-1.425e-11
-1.42458e-11
-1.42485e-11
-1.4248e-11
-1.4246e-11
-1.42486e-11
-1.42482e-11
-1.42481e-11
-1.42491e-11
-1.4248e-11
-1.42463e-11
-1.42455e-11
-1.4252e-11
-1.42469e-11
-1.42481e-11
-1.42495e-11
-1.42501e-11
-1.42466e-11
-1.42467e-11
-1.4246e-11
-1.42461e-11
-1.4246e-11
-1.42468e-11
-1.42467e-11
-1.4249e-11
-1.42472e-11
-1.42485e-11
-1.42468e-11
-1.42478e-11
-1.27781e-11
-1.2777e-11
-1.27768e-11
-1.27771e-11
-1.27789e-11
-1.27794e-11
-1.27788e-11
-1.27786e-11
-1.27757e-11
-1.27768e-11
-1.27773e-11
-1.27777e-11
-1.27778e-11
-1.27761e-11
-1.27775e-11
-1.27779e-11
-1.27781e-11
-1.27796e-11
-1.27775e-11
-1.2782e-11
-1.27766e-11
-1.27771e-11
-1.27748e-11
-1.27754e-11
-1.27793e-11
-1.27778e-11
-1.27741e-11
-1.27786e-11
-1.27781e-11
-1.27753e-11
-1.2777e-11
-1.27755e-11
-1.27793e-11
-1.2775e-11
-1.27784e-11
-1.27768e-11
-1.27773e-11
-1.2775e-11
-1.27771e-11
-1.27789e-11
-1.27776e-11
-1.27783e-11
-1.27793e-11