/*--------------------------------*- C++ -*----------------------------------*\
| =========                 |                                                 |
| \\      /  F ield         | foam-extend: Open Source CFD                    |
|  \\    /   O peration     | Version:     4.0                                |
|   \\  /    A nd           | Web:         http://www.foam-extend.org         |
|    \\/     M anipulation  |                                                 |
\*---------------------------------------------------------------------------*/
FoamFile
{
    version     2.0;
    format      ascii;
    class       surfaceScalarField;
    location    "11";
    object      phi;
}
// * * * * * * * * * * * * * * * * * * * * * * * * * * * * * * * * * * * * * //

dimensions      [0 3 -1 0 0 0 0];

internalField   nonuniform List<scalar> 
13744
(
-1.53582e-08
1.5358e-08
7.63215e-09
-2.29904e-08
2.31589e-10
7.40056e-09
8.17799e-11
1.49807e-10
3.08504e-11
5.09286e-11
1.647e-11
1.43827e-11
9.1701e-12
7.29994e-12
5.5957e-12
3.57625e-12
3.42663e-12
2.17226e-12
2.10147e-12
1.32139e-12
1.2109e-12
8.87068e-13
6.03246e-13
6.06182e-13
1.73245e-13
4.2677e-13
-1.3623e-13
3.09974e-13
-3.56173e-13
2.20712e-13
-5.11489e-13
1.56319e-13
-6.17507e-13
1.03695e-13
-6.82322e-13
6.12843e-14
-7.1433e-13
3.08642e-14
-7.21147e-13
5.55112e-15
-7.03767e-13
-2.10942e-14
-6.67546e-13
-4.01901e-14
-6.16903e-13
-5.08482e-14
-5.5149e-13
-6.10623e-14
-4.7507e-13
-7.54952e-14
-3.9131e-13
-8.28226e-14
-2.99034e-13
-9.10383e-14
-2.01563e-13
-9.72555e-14
-1.02397e-13
-1.03695e-13
-1.98263e-15
-1.00364e-13
1.07101e-13
-1.08802e-13
1.9706e-13
-9.14824e-14
2.98992e-13
-1.02585e-13
3.95863e-13
-9.50351e-14
4.70312e-13
-7.41629e-14
5.5142e-13
-8.39329e-14
6.21513e-13
-6.55032e-14
6.62855e-13
-4.15223e-14
7.03685e-13
-3.79696e-14
7.25731e-13
-1.73195e-14
7.09653e-13
1.64313e-14
6.82307e-13
3.24185e-14
6.22169e-13
5.86198e-14
5.06925e-13
1.13909e-13
3.56274e-13
1.50324e-13
1.41e-13
2.16493e-13
-1.77814e-13
3.19966e-13
-6.03174e-13
4.2899e-13
-1.20621e-12
6.04627e-13
-2.1061e-12
9.00391e-13
-3.42665e-12
1.31783e-12
-5.59111e-12
2.16338e-12
-9.1747e-12
3.58136e-12
-1.64699e-11
7.29505e-12
-3.08456e-11
1.43743e-11
-8.17845e-11
5.09393e-11
-2.31589e-10
1.4981e-10
-7.63214e-09
7.40055e-09
1.53582e-08
-2.29904e-08
1.53582e-08
7.19575e-08
-5.65995e-08
9.92242e-09
3.90447e-08
6.88195e-10
1.66348e-08
2.49337e-10
5.88672e-10
9.46524e-11
2.05611e-10
5.10156e-11
5.80125e-11
2.83804e-11
2.99321e-11
1.75082e-11
1.44418e-11
1.07623e-11
8.91553e-12
6.72786e-12
5.36282e-12
3.96773e-12
3.65841e-12
2.11635e-12
2.46181e-12
7.79228e-13
1.76792e-12
-1.5849e-13
1.24523e-12
-8.45783e-13
9.0683e-13
-1.32665e-12
6.37046e-13
-1.65571e-12
4.32987e-13
-1.86471e-12
2.75335e-13
-1.97808e-12
1.49436e-13
-2.00504e-12
3.4861e-14
-1.97e-12
-5.30687e-14
-1.87789e-12
-1.2701e-13
-1.73485e-12
-1.89404e-13
-1.5564e-12
-2.5091e-13
-1.34572e-12
-2.86882e-13
-1.10439e-12
-3.25517e-13
-8.46862e-13
-3.52163e-13
-5.74141e-13
-3.70148e-13
-2.86306e-13
-3.7903e-13
1.11491e-15
-3.92575e-13
2.76026e-13
-3.78142e-13
5.86813e-13
-3.99458e-13
8.46712e-13
-3.57492e-13
1.09152e-12
-3.4861e-13
1.35797e-12
-3.37508e-13
1.55618e-12
-2.8022e-13
1.72216e-12
-2.41585e-13
1.89033e-12
-2.07168e-13
1.96977e-12
-1.26343e-13
1.99225e-12
-4.4853e-14
1.99057e-12
1.5099e-14
1.86464e-12
1.53655e-13
1.6432e-12
2.86438e-13
1.33948e-12
4.20552e-13
8.46102e-13
6.51035e-13
1.46267e-13
9.14824e-13
-7.66369e-13
1.23501e-12
-2.11614e-12
1.77169e-12
-3.98018e-12
2.4678e-12
-6.71517e-12
3.63487e-12
-1.07624e-11
5.36904e-12
-1.75209e-11
8.92775e-12
-2.83677e-11
1.44358e-11
-5.10153e-11
2.99438e-11
-9.46646e-11
5.80294e-11
-2.49324e-10
2.05594e-10
-6.88194e-10
5.8867e-10
-9.92243e-09
1.66348e-08
-7.19575e-08
3.90447e-08
-5.65993e-08
4.67452e-08
-1.03345e-07
1.717e-08
6.862e-08
1.12559e-09
3.26792e-08
4.20911e-10
1.29335e-09
1.62134e-10
4.64394e-10
8.79505e-11
1.32207e-10
4.9072e-11
6.88147e-11
3.04957e-11
3.30185e-11
1.88791e-11
2.0528e-11
1.19889e-11
1.22468e-11
7.23416e-12
8.41016e-12
4.07473e-12
5.62395e-12
1.77563e-12
4.06614e-12
1.68144e-13
2.85361e-12
-1.01694e-12
2.09671e-12
-1.84495e-12
1.46549e-12
-2.42575e-12
1.01769e-12
-2.79621e-12
6.44873e-13
-3.0084e-12
3.60545e-13
-3.07979e-12
1.04028e-13
-3.04405e-12
-8.31557e-14
-2.91292e-12
-2.53075e-13
-2.70301e-12
-4.12614e-13
-2.42938e-12
-5.17808e-13
-2.10292e-12
-6.07681e-13
-1.73084e-12
-6.98053e-13
-1.32737e-12
-7.54341e-13
-8.98937e-13
-7.98472e-13
-4.51615e-13
-8.37885e-13
-1.2109e-15
-8.38773e-13
4.47479e-13
-8.2756e-13
9.05131e-13
-8.58313e-13
1.3271e-12
-7.91422e-13
1.72433e-12
-7.35245e-13
2.10839e-12
-7.22367e-13
2.42899e-12
-5.96578e-13
2.69679e-12
-5.01876e-13
2.9187e-12
-4.30989e-13
3.04366e-12
-2.43527e-13
3.07342e-12
-7.58837e-14
3.01427e-12
7.51066e-14
2.79609e-12
3.65319e-13
2.41985e-12
6.54476e-13
1.85137e-12
9.84934e-13
1.01748e-12
1.46644e-12
-1.73555e-13
2.10548e-12
-1.76912e-12
2.81847e-12
-4.07434e-12
4.08062e-12
-7.23992e-12
5.62922e-12
-1.19826e-11
8.37214e-12
-1.88792e-11
1.2267e-11
-3.05018e-11
2.05472e-11
-4.90657e-11
3.29931e-11
-8.79499e-11
6.88214e-11
-1.6214e-10
1.3221e-10
-4.20904e-10
4.64368e-10
-1.12559e-09
1.29336e-09
-1.717e-08
3.26792e-08
-4.67452e-08
6.86199e-08
-1.03345e-07
9.65962e-09
-1.13004e-07
1.44858e-08
6.37938e-08
1.53504e-09
4.56299e-08
5.94701e-10
2.23368e-09
2.33396e-10
8.25691e-10
1.27299e-10
2.383e-10
7.13417e-11
1.24776e-10
4.4603e-11
5.9761e-11
2.78303e-11
3.72972e-11
1.791e-11
2.21687e-11
1.10436e-11
1.52708e-11
6.49731e-12
1.016e-11
3.17919e-12
7.3803e-12
8.59624e-13
5.17911e-12
-8.56658e-13
3.81083e-12
-2.05922e-12
2.66194e-12
-2.91591e-12
1.87362e-12
-3.4696e-12
1.20083e-12
-3.80133e-12
6.88533e-13
-3.93746e-12
2.42396e-13
-3.92117e-12
-1.10537e-13
-3.77138e-12
-4.11116e-13
-3.51538e-12
-6.53359e-13
-3.16771e-12
-8.57515e-13
-2.74707e-12
-1.03314e-12
-2.26632e-12
-1.1754e-12
-1.7393e-12
-1.28197e-12
-1.17795e-12
-1.36077e-12
-5.94505e-13
-1.41619e-12
-2.28606e-15
-1.42236e-12
5.95806e-13
-1.43584e-12
1.17695e-12
-1.43618e-12
1.73891e-12
-1.35266e-12
2.26657e-12
-1.2609e-12
2.74535e-12
-1.20753e-12
3.16716e-12
-1.02659e-12
3.51601e-12
-8.49029e-13
3.77009e-12
-6.86909e-13
3.92061e-12
-3.87926e-13
3.93789e-12
-9.38624e-14
3.80016e-12
2.25098e-13
3.46944e-12
7.09835e-13
2.91699e-12
1.20639e-12
2.05886e-12
1.84684e-12
8.57443e-13
2.68653e-12
-8.5783e-13
3.82513e-12
-3.17938e-12
5.16519e-12
-6.49673e-12
7.40055e-12
-1.10422e-11
1.01812e-11
-1.79105e-11
1.52455e-11
-2.78304e-11
2.21812e-11
-4.46022e-11
3.73177e-11
-7.13422e-11
5.97289e-11
-1.27298e-10
1.24789e-10
-2.33394e-10
2.38315e-10
-5.94701e-10
8.25666e-10
-1.53504e-09
2.2337e-09
-1.44858e-08
4.563e-08
-9.65962e-09
6.37938e-08
-1.13004e-07
6.8222e-09
-1.19827e-07
9.66771e-09
6.09483e-08
1.9307e-09
5.3367e-08
7.70404e-10
3.39398e-09
3.08499e-10
1.28761e-09
1.6915e-10
3.77649e-10
9.52651e-11
1.98655e-10
5.98871e-11
9.51367e-11
3.76568e-11
5.95395e-11
2.452e-11
3.53069e-11
1.54185e-11
2.43713e-11
9.39994e-12
1.61928e-11
5.00055e-12
1.17863e-11
1.92509e-12
8.24201e-12
-3.59114e-13
6.08569e-12
-1.96636e-12
4.28183e-12
-3.12276e-12
3.03284e-12
-3.88343e-12
1.95943e-12
-4.35707e-12
1.16476e-12
-4.57715e-12
4.65447e-13
-4.60171e-12
-6.71199e-14
-4.45472e-12
-5.63036e-13
-4.17194e-12
-9.44043e-13
-3.77227e-12
-1.27428e-12
-3.27983e-12
-1.53386e-12
-2.71075e-12
-1.74761e-12
-2.08325e-12
-1.90754e-12
-1.41234e-12
-2.02557e-12
-7.13422e-13
-2.12632e-12
-1.63291e-15
-2.1576e-12
7.13552e-13
-2.14459e-12
1.41145e-12
-2.14483e-12
2.08273e-12
-2.00778e-12
2.71036e-12
-1.8995e-12
3.2783e-12
-1.76287e-12
3.77155e-12
-1.50883e-12
4.17203e-12
-1.25844e-12
4.45376e-12
-9.68212e-13
4.60098e-12
-5.50768e-13
4.57701e-12
-6.78763e-14
4.35624e-12
4.35117e-13
3.8832e-12
1.16777e-12
3.12348e-12
1.97158e-12
1.9666e-12
3.00197e-12
3.6013e-13
4.28544e-12
-1.92343e-12
6.1071e-12
-5.00007e-12
8.21765e-12
-9.39914e-12
1.17865e-11
-1.54174e-11
1.61957e-11
-2.452e-11
2.43546e-11
-3.76567e-11
3.53247e-11
-5.98867e-11
5.95466e-11
-9.52651e-11
9.51142e-11
-1.69149e-10
1.98665e-10
-3.08498e-10
3.77652e-10
-7.70403e-10
1.28757e-09
-1.9307e-09
3.39399e-09
-9.66771e-09
5.3367e-08
-6.8222e-09
6.09483e-08
-1.19826e-07
1.37592e-08
-1.33586e-07
8.64616e-09
6.60614e-08
2.32152e-09
5.96916e-08
9.48492e-10
4.767e-09
3.87541e-10
1.84855e-09
2.136e-10
5.51595e-10
1.20922e-10
2.91332e-10
7.6401e-11
1.39666e-10
4.83948e-11
8.75353e-11
3.18429e-11
5.18664e-11
2.03722e-11
3.58528e-11
1.27899e-11
2.37633e-11
7.24272e-12
1.73274e-11
3.36251e-12
1.2131e-11
4.71678e-13
8.99809e-12
-1.57172e-12
6.32299e-12
-3.05437e-12
4.50273e-12
-4.04591e-12
2.95491e-12
-4.68364e-12
1.79791e-12
-5.00834e-12
7.8422e-13
-5.09441e-12
1.57513e-15
-4.97057e-12
-6.75848e-13
-4.68104e-12
-1.2392e-12
-4.24993e-12
-1.69489e-12
-3.70649e-12
-2.06367e-12
-3.06969e-12
-2.38635e-12
-2.36297e-12
-2.61717e-12
-1.60392e-12
-2.79766e-12
-8.10438e-13
-2.8951e-12
-1.21522e-15
-2.93889e-12
8.08718e-13
-2.95226e-12
1.60443e-12
-2.93441e-12
2.36228e-12
-2.77921e-12
3.06748e-12
-2.59593e-12
3.70636e-12
-2.41328e-12
4.249e-12
-2.05937e-12
4.67937e-12
-1.68014e-12
4.97111e-12
-1.2605e-12
5.09349e-12
-6.58133e-13
5.00641e-12
1.46133e-14
4.68435e-12
7.58955e-13
4.04565e-12
1.81465e-12
3.0535e-12
2.96323e-12
1.57375e-12
4.48463e-12
-4.70392e-13
6.32711e-12
-3.36223e-12
8.99276e-12
-7.24035e-12
1.21027e-11
-1.27888e-11
1.73516e-11
-2.03725e-11
2.37894e-11
-3.1841e-11
3.58167e-11
-4.83946e-11
5.18761e-11
-7.6402e-11
8.75551e-11
-1.2092e-10
1.39636e-10
-2.13599e-10
2.9135e-10
-3.87541e-10
5.51596e-10
-9.48489e-10
1.84853e-09
-2.32152e-09
4.76703e-09
-8.64616e-09
5.96916e-08
-1.37592e-08
6.60613e-08
-1.33586e-07
1.57133e-08
-1.49299e-07
9.49694e-09
7.22778e-08
2.70486e-09
6.64837e-08
1.12963e-09
6.34224e-09
4.7064e-10
2.50755e-09
2.60757e-10
7.61469e-10
1.484e-10
4.03694e-10
9.42011e-11
1.93857e-10
6.00813e-11
1.21657e-10
3.99006e-11
7.20389e-11
2.59156e-11
4.9834e-11
1.66703e-11
3.30092e-11
9.90338e-12
2.40959e-11
5.16469e-12
1.68668e-11
1.62567e-12
1.25158e-11
-8.87183e-13
8.82906e-12
-2.72461e-12
6.36345e-12
-3.97152e-12
4.19885e-12
-4.79553e-12
2.63515e-12
-5.24602e-12
1.23905e-12
-5.41334e-12
1.77549e-13
-5.332e-12
-7.60156e-13
-5.05519e-12
-1.51066e-12
-4.61161e-12
-2.14463e-12
-4.03616e-12
-2.64742e-12
-3.35115e-12
-3.06566e-12
-2.58437e-12
-3.38256e-12
-1.75632e-12
-3.60977e-12
-8.88106e-13
-3.77435e-12
-1.3631e-15
-3.84057e-12
8.85936e-13
-3.84652e-12
1.7569e-12
-3.80619e-12
2.5835e-12
-3.60444e-12
3.34847e-12
-3.3635e-12
4.03603e-12
-3.10067e-12
4.61049e-12
-2.6275e-12
5.05313e-12
-2.12581e-12
5.33263e-12
-1.54097e-12
5.41223e-12
-7.50455e-13
5.24367e-12
1.93109e-13
4.79638e-12
1.19945e-12
3.9712e-12
2.63587e-12
2.72356e-12
4.2038e-12
8.89612e-13
6.32076e-12
-1.62414e-12
8.84174e-12
-5.16435e-12
1.25369e-11
-9.90048e-12
1.68462e-11
-1.66689e-11
2.41144e-11
-2.5916e-11
3.30302e-11
-3.98982e-11
4.98044e-11
-6.00809e-11
7.2057e-11
-9.42023e-11
1.21679e-10
-1.48398e-10
1.93821e-10
-2.60755e-10
4.03703e-10
-4.7064e-10
7.61489e-10
-1.12963e-09
2.50751e-09
-2.70486e-09
6.34225e-09
-9.49694e-09
6.64837e-08
-1.57133e-08
7.22777e-08
-1.49299e-07
1.4807e-08
-1.64106e-07
1.01257e-08
7.6959e-08
3.0773e-09
7.3532e-08
1.31397e-09
8.10557e-09
5.57918e-10
3.26359e-09
3.10732e-10
1.00865e-09
1.7779e-10
5.36645e-10
1.13347e-10
2.58299e-10
7.27547e-11
1.62255e-10
4.87149e-11
9.6078e-11
3.2059e-11
6.64844e-11
2.10426e-11
4.40382e-11
1.29777e-11
3.21668e-11
7.32225e-12
2.25256e-11
3.09011e-12
1.67613e-11
7.20447e-14
1.18448e-11
-2.15012e-12
8.56846e-12
-3.67775e-12
5.72969e-12
-4.71062e-12
3.65792e-12
-5.3076e-12
1.82255e-12
-5.57544e-12
4.46112e-13
-5.55493e-12
-7.7803e-13
-5.30887e-12
-1.7584e-12
-4.87025e-12
-2.57646e-12
-4.28003e-12
-3.23761e-12
-3.56415e-12
-3.78064e-12
-2.75437e-12
-4.18511e-12
-1.87447e-12
-4.50187e-12
-9.48758e-13
-4.70278e-12
-1.5907e-15
-4.78935e-12
9.46576e-13
-4.79031e-12
1.87452e-12
-4.73915e-12
2.75332e-12
-4.48384e-12
3.56152e-12
-4.16101e-12
4.27937e-12
-3.81653e-12
4.86893e-12
-3.22373e-12
5.30693e-12
-2.56169e-12
5.55512e-12
-1.78623e-12
5.57415e-12
-7.62671e-13
5.30534e-12
4.53033e-13
4.71107e-12
1.80425e-12
3.67739e-12
3.67259e-12
2.14939e-12
5.73817e-12
-6.97227e-14
8.53863e-12
-3.08831e-12
1.18635e-11
-7.32133e-12
1.67798e-11
-1.29748e-11
2.24941e-11
-2.1041e-11
3.21795e-11
-3.20588e-11
4.40424e-11
-4.87125e-11
6.64573e-11
-7.27541e-11
9.6109e-11
-1.13348e-10
1.62274e-10
-1.77787e-10
2.58274e-10
-3.1073e-10
5.36649e-10
-5.57917e-10
1.00867e-09
-1.31397e-09
3.26356e-09
-3.0773e-09
8.10559e-09
-1.01257e-08
7.35321e-08
-1.4807e-08
7.6959e-08
-1.64106e-07
1.42741e-08
-1.7838e-07
1.03705e-08
8.08627e-08
3.43872e-09
8.04638e-08
1.5013e-09
1.0043e-08
6.49488e-10
4.1154e-09
3.6364e-10
1.29451e-09
2.09186e-10
6.91084e-10
1.33903e-10
3.33577e-10
8.64559e-11
2.09696e-10
5.83093e-11
1.24224e-10
3.88141e-11
8.59838e-11
2.59093e-11
5.69332e-11
1.64613e-11
4.16207e-11
9.82619e-12
2.91563e-11
4.85236e-12
2.1724e-11
1.29073e-12
1.54067e-11
-1.34747e-12
1.12099e-11
-3.18226e-12
7.55277e-12
-4.44692e-12
4.917e-12
-5.21075e-12
2.6025e-12
-5.59781e-12
8.25e-13
-5.65556e-12
-7.29148e-13
-5.45671e-12
-1.95316e-12
-5.03899e-12
-3.00075e-12
-4.44946e-12
-3.82168e-12
-3.71783e-12
-4.51469e-12
-2.88009e-12
-5.03457e-12
-1.96315e-12
-5.41365e-12
-9.94685e-13
-5.66452e-12
-1.72422e-15
-5.77321e-12
9.92285e-13
-5.78728e-12
1.96281e-12
-5.71111e-12
2.87882e-12
-5.39428e-12
3.71509e-12
-5.02127e-12
4.44843e-12
-4.55299e-12
5.03746e-12
-3.80798e-12
5.45473e-12
-2.98139e-12
5.65544e-12
-1.98919e-12
5.59631e-12
-7.07e-13
5.20846e-12
8.43541e-13
4.44709e-12
2.56003e-12
3.18185e-12
4.93363e-12
1.34693e-12
7.57668e-12
-1.28836e-12
1.11754e-11
-4.8503e-12
1.54338e-11
-9.82488e-12
2.1734e-11
-1.64583e-11
2.91262e-11
-2.59075e-11
4.16203e-11
-3.88134e-11
5.69474e-11
-5.83068e-11
8.59381e-11
-8.64551e-11
1.24244e-10
-1.33903e-10
2.09713e-10
-2.09184e-10
3.33542e-10
-3.63637e-10
6.91107e-10
-6.49486e-10
1.29452e-09
-1.50129e-09
4.11537e-09
-3.43872e-09
1.0043e-08
-1.03705e-08
8.04638e-08
-1.42741e-08
8.08626e-08
-1.7838e-07
1.43282e-08
-1.92708e-07
1.05586e-08
8.46323e-08
3.78979e-09
8.72326e-08
1.69132e-09
1.21415e-08
7.45444e-10
5.06129e-09
4.19587e-10
1.62037e-09
2.42686e-10
8.67991e-10
1.55933e-10
4.20338e-10
1.01229e-10
2.64401e-10
6.87107e-11
1.56754e-10
4.61954e-11
1.08506e-10
3.12758e-11
7.18572e-11
2.03529e-11
5.25231e-11
1.26699e-11
3.6839e-11
6.90223e-12
2.74951e-11
2.75605e-12
1.9544e-11
-3.31279e-13
1.42913e-11
-2.50064e-12
9.73774e-12
-4.02042e-12
6.45141e-12
-4.97149e-12
3.54674e-12
-5.49591e-12
1.35916e-12
-5.64846e-12
-5.69029e-13
-5.51218e-12
-2.09966e-12
-5.12979e-12
-3.37854e-12
-4.5548e-12
-4.41196e-12
-3.8207e-12
-5.25321e-12
-2.96796e-12
-5.886e-12
-2.02674e-12
-6.36368e-12
-1.02807e-12
-6.67022e-12
-1.85533e-15
-6.80838e-12
1.02532e-12
-6.82341e-12
2.02613e-12
-6.7025e-12
2.96641e-12
-6.34487e-12
3.81773e-12
-5.85482e-12
4.55351e-12
-5.26843e-12
5.12804e-12
-4.36824e-12
5.50999e-12
-3.37097e-12
5.64817e-12
-2.12405e-12
5.4942e-12
-5.50501e-13
4.96899e-12
1.37623e-12
4.02049e-12
3.51352e-12
2.50021e-12
6.45554e-12
3.30784e-13
9.74231e-12
-2.7535e-12
1.4256e-11
-6.89993e-12
1.95587e-11
-1.26683e-11
2.75218e-11
-2.03496e-11
3.68023e-11
-3.12736e-11
5.25537e-11
-4.61944e-11
7.18834e-11
-6.87079e-11
1.08467e-10
-1.01228e-10
1.56768e-10
-1.55933e-10
2.64425e-10
-2.42684e-10
4.20289e-10
-4.19585e-10
8.68008e-10
-7.45442e-10
1.62038e-09
-1.69132e-09
5.06125e-09
-3.78979e-09
1.21415e-08
-1.05586e-08
8.72326e-08
-1.43282e-08
8.46323e-08
-1.92708e-07
1.4361e-08
-2.07069e-07
1.07592e-08
8.82342e-08
4.13016e-09
9.38616e-08
1.88375e-09
1.43879e-08
8.4585e-10
6.09918e-09
4.78678e-10
1.98754e-09
2.78388e-10
1.06828e-09
1.79507e-10
5.19212e-10
1.17123e-10
3.2679e-10
7.99501e-11
1.9391e-10
5.42216e-11
1.34223e-10
3.71512e-11
8.89292e-11
2.46549e-11
6.50357e-11
1.58508e-11
4.56415e-11
9.23324e-12
3.41272e-11
4.45884e-12
2.4329e-11
8.87423e-13
1.7869e-11
-1.64516e-12
1.22624e-11
-3.44405e-12
8.23832e-12
-4.60278e-12
4.70354e-12
-5.28249e-12
2.03181e-12
-5.54577e-12
-3.06116e-13
-5.48644e-12
-2.15376e-12
-5.15273e-12
-3.70583e-12
-4.60464e-12
-4.93622e-12
-3.87987e-12
-5.98255e-12
-3.02344e-12
-6.72792e-12
-2.06892e-12
-7.30465e-12
-1.05079e-12
-7.69048e-12
-2.00061e-15
-7.85738e-12
1.04774e-12
-7.8573e-12
2.06797e-12
-7.72907e-12
3.02164e-12
-7.29516e-12
3.87666e-12
-6.72295e-12
4.60308e-12
-6.01479e-12
5.15068e-12
-4.93082e-12
5.48408e-12
-3.69822e-12
5.54527e-12
-2.18267e-12
5.28056e-12
-2.82377e-13
4.60008e-12
2.03958e-12
3.44395e-12
4.65215e-12
1.64468e-12
8.25541e-12
-8.87838e-13
1.22697e-11
-4.45613e-12
1.78238e-11
-9.23066e-12
2.43401e-11
-1.58489e-11
3.41338e-11
-2.46513e-11
4.56012e-11
-3.71487e-11
6.50541e-11
-5.42204e-11
8.89437e-11
-7.99471e-11
1.34187e-10
-1.17122e-10
1.93948e-10
-1.79507e-10
3.26816e-10
-2.78385e-10
5.19186e-10
-4.78675e-10
1.06829e-09
-8.45847e-10
1.98755e-09
-1.88374e-09
6.09914e-09
-4.13016e-09
1.43879e-08
-1.07592e-08
9.38616e-08
-1.4361e-08
8.82341e-08
-2.07069e-07
1.41548e-08
-2.21224e-07
1.09039e-08
9.1485e-08
4.45866e-09
1.00307e-07
2.07817e-09
1.67684e-08
9.50731e-10
7.22662e-09
5.41004e-10
2.39725e-09
3.16387e-10
1.2929e-09
2.04697e-10
6.30905e-10
1.3419e-10
3.973e-10
9.2063e-11
2.36052e-10
6.29162e-11
1.63374e-10
4.35495e-11
1.08296e-10
2.93744e-11
7.92075e-11
1.93706e-11
5.56438e-11
1.18434e-11
4.16362e-11
6.3942e-12
2.97723e-11
2.3017e-12
2.19605e-11
-6.24079e-13
1.5184e-11
-2.72682e-12
1.03514e-11
-4.1141e-12
6.08092e-12
-4.96694e-12
2.8774e-12
-5.35653e-12
8.33769e-14
-5.38801e-12
-2.12657e-12
-5.1154e-12
-3.99307e-12
-4.60572e-12
-5.45359e-12
-3.90083e-12
-6.67404e-12
-3.05078e-12
-7.58466e-12
-2.09259e-12
-8.27662e-12
-1.06431e-12
-8.71108e-12
-2.13166e-15
-8.90898e-12
1.06093e-12
-8.9293e-12
2.0912e-12
-8.75881e-12
3.04867e-12
-8.25435e-12
3.89743e-12
-7.55665e-12
4.6038e-12
-6.7126e-12
5.11311e-12
-5.4433e-12
5.38549e-12
-3.96857e-12
5.35578e-12
-2.15592e-12
4.96476e-12
1.00613e-13
4.11123e-12
2.90731e-12
2.72657e-12
6.05379e-12
6.23558e-13
1.03656e-11
-2.30201e-12
1.52034e-11
-6.39137e-12
2.19233e-11
-1.18406e-11
2.97941e-11
-1.93684e-11
4.16579e-11
-2.93705e-11
5.56099e-11
-4.35467e-11
7.92319e-11
-6.29146e-11
1.08312e-10
-9.20596e-11
1.63336e-10
-1.34188e-10
2.36074e-10
-2.04697e-10
3.97313e-10
-3.16384e-10
6.30861e-10
-5.41e-10
1.29291e-09
-9.50728e-10
2.39727e-09
-2.07816e-09
7.22659e-09
-4.45866e-09
1.67684e-08
-1.09039e-08
1.00307e-07
-1.41548e-08
9.1485e-08
-2.21224e-07
1.37456e-08
-2.3497e-07
1.09514e-08
9.42792e-08
4.77378e-09
1.06485e-07
2.27404e-09
1.92681e-08
1.06006e-09
8.44059e-09
6.0664e-10
2.85071e-09
3.56779e-10
1.54276e-09
2.31576e-10
7.56125e-10
1.52485e-10
4.76385e-10
1.05089e-10
2.83441e-10
7.23068e-11
1.96147e-10
5.04892e-11
1.30124e-10
3.4523e-11
9.51843e-11
2.32357e-11
6.69365e-11
1.47351e-11
5.01454e-11
8.56161e-12
3.59445e-11
3.90888e-12
2.66176e-11
5.58394e-13
1.85449e-11
-1.87403e-12
1.27791e-11
-3.51129e-12
7.73258e-12
-4.55538e-12
3.93652e-12
-5.08684e-12
6.21649e-13
-5.22268e-12
-1.99043e-12
-5.02313e-12
-4.19493e-12
-4.56259e-12
-5.92246e-12
-3.8875e-12
-7.3529e-12
-3.05297e-12
-8.41512e-12
-2.0997e-12
-9.22594e-12
-1.06966e-12
-9.74447e-12
-2.29473e-15
-9.98754e-12
1.06595e-12
-9.9883e-12
2.09788e-12
-9.78988e-12
3.05054e-12
-9.20454e-12
3.88387e-12
-8.39402e-12
4.56031e-12
-7.3852e-12
5.02062e-12
-5.88466e-12
5.22e-12
-4.16402e-12
5.08578e-12
-2.02852e-12
4.55298e-12
6.3816e-13
3.50827e-12
3.95117e-12
1.87354e-12
7.68439e-12
-5.58951e-13
1.27882e-11
-3.90904e-12
1.85538e-11
-8.55866e-12
2.65652e-11
-1.4732e-11
3.59663e-11
-2.32331e-11
5.01571e-11
-3.45189e-11
6.6906e-11
-5.04861e-11
9.51936e-11
-7.23048e-11
1.30131e-10
-1.05085e-10
1.96115e-10
-1.52483e-10
2.83475e-10
-2.31575e-10
4.76421e-10
-3.56776e-10
7.56044e-10
-6.06636e-10
1.54278e-09
-1.06006e-09
2.8507e-09
-2.27404e-09
8.44056e-09
-4.77378e-09
1.92681e-08
-1.09514e-08
1.06485e-07
-1.37456e-08
9.42791e-08
-2.3497e-07
1.31784e-08
-2.48148e-07
1.08996e-08
9.6558e-08
5.07385e-09
1.1231e-07
2.4707e-09
2.18713e-08
1.17376e-09
9.73753e-09
6.75642e-10
3.3488e-09
3.99651e-10
1.81876e-09
2.60218e-10
8.95546e-10
1.72067e-10
5.64542e-10
1.19071e-10
3.36446e-10
8.24252e-11
2.32802e-10
5.79928e-11
1.54541e-10
4.01164e-11
1.13036e-10
2.74564e-11
7.95971e-11
1.79149e-11
5.96847e-11
1.09644e-11
4.29e-11
5.71009e-12
3.18685e-11
1.90161e-12
2.2347e-11
-8.87433e-13
1.55665e-11
-2.79697e-12
9.6504e-12
-4.05093e-12
5.1823e-12
-4.74005e-12
1.31496e-12
-4.99379e-12
-1.72817e-12
-4.87912e-12
-4.2995e-12
-4.47816e-12
-6.31405e-12
-3.84228e-12
-7.98103e-12
-3.03189e-12
-9.23238e-12
-2.0916e-12
-1.01601e-11
-1.06751e-12
-1.07613e-11
-2.41038e-15
-1.10515e-11
1.06343e-12
-1.10678e-11
2.0893e-12
-1.08142e-11
3.0291e-12
-1.01344e-11
3.83843e-12
-9.20188e-12
4.47553e-12
-8.0329e-12
4.87632e-12
-6.30243e-12
4.99091e-12
-4.2784e-12
4.73866e-12
-1.77224e-12
4.04829e-12
1.33336e-12
2.79379e-12
5.20406e-12
8.86699e-13
9.58301e-12
-1.90221e-12
1.55839e-11
-5.71009e-12
2.23772e-11
-1.09614e-11
3.18205e-11
-1.79115e-11
4.29107e-11
-2.74535e-11
5.97081e-11
-4.01121e-11
7.95652e-11
-5.79894e-11
1.13069e-10
-8.24228e-11
1.54575e-10
-1.19067e-10
2.32759e-10
-1.72064e-10
3.36468e-10
-2.60217e-10
5.64574e-10
-3.99648e-10
8.95505e-10
-6.75638e-10
1.81877e-09
-1.17376e-09
3.34883e-09
-2.4707e-09
9.73749e-09
-5.07385e-09
2.18713e-08
-1.08996e-08
1.1231e-07
-1.31784e-08
9.6558e-08
-2.48148e-07
1.24713e-08
-2.6062e-07
1.07574e-08
9.82719e-08
5.35702e-09
1.17711e-07
2.66735e-09
2.45609e-08
1.29169e-09
1.11132e-08
7.48046e-10
3.89247e-09
4.45086e-10
2.12172e-09
2.90695e-10
1.04993e-09
1.92996e-10
6.62243e-10
1.34055e-10
3.9538e-10
9.33062e-11
2.73549e-10
6.60864e-11
1.81771e-10
4.6174e-11
1.32964e-10
3.20468e-11
9.37206e-11
2.13925e-11
7.03229e-11
1.36094e-11
5.06714e-11
7.70958e-12
3.77802e-11
3.40806e-12
2.66426e-11
2.34059e-13
1.87452e-11
-1.9711e-12
1.18464e-11
-3.4542e-12
6.66391e-12
-4.31724e-12
2.17301e-12
-4.70268e-12
-1.34868e-12
-4.68479e-12
-4.31785e-12
-4.35379e-12
-6.65502e-12
-3.76639e-12
-8.57164e-12
-2.98851e-12
-1.002e-11
-2.06899e-12
-1.10862e-11
-1.05821e-12
-1.17788e-11
-2.5683e-15
-1.21004e-11
1.05376e-12
-1.21217e-11
2.06617e-12
-1.18314e-11
2.98533e-12
-1.10612e-11
3.76228e-12
-9.99747e-12
4.35079e-12
-8.60379e-12
4.68172e-12
-6.62624e-12
4.6996e-12
-4.29797e-12
4.31549e-12
-1.38773e-12
3.45131e-12
2.19831e-12
1.96775e-12
6.68631e-12
-2.34993e-13
1.1801e-11
-3.40867e-12
1.87548e-11
-7.70945e-12
2.66531e-11
-1.36062e-11
3.77244e-11
-2.13889e-11
5.07101e-11
-3.20435e-11
7.03659e-11
-4.61694e-11
9.3682e-11
-6.60826e-11
1.32987e-10
-9.33034e-11
1.81767e-10
-1.3405e-10
2.73502e-10
-1.92993e-10
3.95406e-10
-2.90693e-10
6.62268e-10
-4.45082e-10
1.04989e-09
-7.48042e-10
2.12172e-09
-1.29169e-09
3.89248e-09
-2.66735e-09
1.11131e-08
-5.35701e-09
2.4561e-08
-1.07574e-08
1.17711e-07
-1.24713e-08
9.82719e-08
-2.60619e-07
1.16419e-08
-2.72261e-07
1.0534e-08
9.93799e-08
5.6213e-09
1.22623e-07
2.8631e-09
2.73191e-08
1.41364e-09
1.25626e-08
8.23858e-10
4.48224e-09
4.93153e-10
2.45241e-09
3.23077e-10
1.22001e-09
2.15332e-10
7.69987e-10
1.50088e-10
4.60624e-10
1.04988e-10
3.18652e-10
7.47986e-11
2.11955e-10
5.27177e-11
1.55047e-10
3.70235e-11
1.09408e-10
2.51807e-11
8.21948e-11
1.65059e-11
5.93712e-11
9.91419e-12
4.43649e-11
5.08261e-12
3.14932e-11
1.49372e-12
2.23307e-11
-1.03148e-12
1.43752e-11
-2.76389e-12
8.40437e-12
-3.81771e-12
3.21549e-12
-4.3491e-12
-8.18999e-13
-4.44018e-12
-4.2304e-12
-4.18972e-12
-6.91134e-12
-3.66014e-12
-9.09034e-12
-2.92312e-12
-1.07477e-11
-2.03206e-12
-1.1966e-11
-1.04185e-12
-1.27715e-11
-2.74599e-15
-1.31472e-11
1.03702e-12
-1.31661e-11
2.02869e-12
-1.28188e-11
2.91952e-12
-1.19449e-11
3.65583e-12
-1.0718e-11
4.18629e-12
-9.15036e-12
4.43681e-12
-6.88635e-12
4.34583e-12
-4.20506e-12
3.8156e-12
-8.55021e-13
2.76075e-12
3.2451e-12
1.02796e-12
8.41765e-12
-1.49494e-12
1.43142e-11
-5.08326e-12
2.23362e-11
-9.91387e-12
3.14885e-11
-1.65026e-11
4.42955e-11
-2.51767e-11
5.93797e-11
-3.70198e-11
8.21887e-11
-5.2713e-11
1.09373e-10
-7.47945e-11
1.5508e-10
-1.04984e-10
2.11987e-10
-1.50084e-10
3.18612e-10
-2.15329e-10
4.60661e-10
-3.23075e-10
7.70009e-10
-4.93149e-10
1.21995e-09
-8.23853e-10
2.45244e-09
-1.41364e-09
4.48224e-09
-2.86309e-09
1.25626e-08
-5.6213e-09
2.73192e-08
-1.0534e-08
1.22623e-07
-1.16419e-08
9.93798e-08
-2.72261e-07
1.07143e-08
-2.82976e-07
1.02382e-08
9.98559e-08
5.86468e-09
1.26997e-07
3.05694e-09
3.01269e-08
1.53933e-09
1.40803e-08
9.03056e-10
5.11851e-09
5.43915e-10
2.81156e-09
3.57433e-10
1.4065e-09
2.39138e-10
8.88285e-10
1.67222e-10
5.32539e-10
1.17509e-10
3.68367e-10
8.41607e-11
2.45297e-10
5.97721e-11
1.79431e-10
4.24056e-11
1.26775e-10
2.92942e-11
9.52914e-11
1.96652e-11
6.89741e-11
1.23329e-11
5.16952e-11
6.93194e-12
3.68776e-11
2.89671e-12
2.63586e-11
2.57199e-14
1.72553e-11
-1.97726e-12
1.04132e-11
-3.23945e-12
4.48354e-12
-3.93164e-12
-1.30088e-13
-4.14435e-12
-4.00084e-12
-3.98525e-12
-7.05311e-12
-3.52308e-12
-9.57038e-12
-2.83545e-12
-1.14306e-11
-1.98071e-12
-1.28349e-11
-1.01839e-12
-1.37328e-11
-2.92189e-15
-1.41518e-11
1.01319e-12
-1.41684e-11
1.97675e-12
-1.37841e-11
2.83144e-12
-1.28105e-11
3.51848e-12
-1.14084e-11
3.98143e-12
-9.61621e-12
4.14069e-12
-7.02814e-12
3.92818e-12
-3.997e-12
3.23694e-12
-1.65396e-13
1.97381e-12
4.51118e-12
-2.94066e-14
1.04219e-11
-2.89822e-12
1.71945e-11
-6.93267e-12
2.63833e-11
-1.23323e-11
3.69008e-11
-1.96618e-11
5.16348e-11
-2.929e-11
6.89964e-11
-4.24015e-11
9.53215e-11
-5.97671e-11
1.26752e-10
-8.41562e-11
1.79452e-10
-1.17505e-10
2.45315e-10
-1.67217e-10
3.68303e-10
-2.39134e-10
5.32572e-10
-3.5743e-10
8.8832e-10
-5.43911e-10
1.40644e-09
-9.03051e-10
2.81157e-09
-1.53932e-09
5.11852e-09
-3.05694e-09
1.40802e-08
-5.86468e-09
3.01269e-08
-1.02382e-08
1.26997e-07
-1.07143e-08
9.98559e-08
-2.82976e-07
9.71324e-09
-2.92689e-07
9.87978e-09
9.96894e-08
6.08518e-09
1.30791e-07
3.24779e-09
3.29642e-08
1.6684e-09
1.56596e-08
9.85587e-10
5.80133e-09
5.97418e-10
3.19972e-09
3.93824e-10
1.61008e-09
2.64472e-10
1.01763e-09
1.85504e-10
6.11526e-10
1.30911e-10
4.22952e-10
9.42053e-11
2.82016e-10
6.73634e-11
2.06266e-10
4.8214e-11
1.45947e-10
3.37496e-11
1.0975e-10
2.31007e-11
7.96306e-11
1.49759e-11
5.98344e-11
8.96433e-12
4.29005e-11
4.44954e-12
3.08926e-11
1.20553e-12
2.04852e-11
-1.09031e-12
1.26978e-11
-2.57948e-12
5.98297e-12
-3.44795e-12
7.44291e-13
-3.79553e-12
-3.67465e-12
-3.73922e-12
-7.11315e-12
-3.35428e-12
-9.9678e-12
-2.72494e-12
-1.20638e-11
-1.91448e-12
-1.36204e-11
-9.87622e-13
-1.46517e-11
-3.11108e-15
-1.51577e-11
9.82e-13
-1.51612e-11
1.90992e-12
-1.47174e-11
2.72045e-12
-1.36161e-11
3.34942e-12
-1.20353e-11
3.73496e-12
-9.98291e-12
3.79149e-12
-7.09329e-12
3.44432e-12
-3.64077e-12
2.57653e-12
7.1507e-13
1.08655e-12
6.00855e-12
-1.20936e-12
1.27192e-11
-4.45128e-12
2.0441e-11
-8.96511e-12
3.08933e-11
-1.49752e-11
4.29043e-11
-2.30972e-11
5.97557e-11
-3.37451e-11
7.96575e-11
-4.82093e-11
1.09766e-10
-6.73582e-11
1.45882e-10
-9.42005e-11
2.06291e-10
-1.30907e-10
2.82032e-10
-1.85499e-10
4.22914e-10
-2.64468e-10
6.11531e-10
-3.9382e-10
1.01766e-09
-5.97414e-10
1.61002e-09
-9.85581e-10
3.19974e-09
-1.6684e-09
5.80134e-09
-3.24778e-09
1.56596e-08
-6.08517e-09
3.29643e-08
-9.87977e-09
1.30791e-07
-9.71324e-09
9.96893e-08
-2.92689e-07
8.66061e-09
-3.0135e-07
9.46775e-09
9.88822e-08
6.28085e-09
1.33978e-07
3.43447e-09
3.58106e-08
1.80045e-09
1.72937e-08
1.07136e-09
6.53041e-09
6.53695e-10
3.6174e-09
4.32306e-10
1.8315e-09
2.91394e-10
1.15854e-09
2.04987e-10
6.9793e-10
1.45237e-10
4.82708e-10
1.04967e-10
3.2228e-10
7.55194e-11
2.35727e-10
5.44708e-11
1.66972e-10
3.8565e-11
1.25655e-10
2.68268e-11
9.1369e-11
1.7855e-11
6.87874e-11
1.11892e-11
4.95475e-11
6.15958e-12
3.59085e-11
2.51396e-12
2.41336e-11
-9.82097e-14
1.5325e-11
-1.83397e-12
7.71189e-12
-2.89513e-12
1.81219e-12
-3.39136e-12
-3.17468e-12
-3.44981e-12
-7.06897e-12
-3.1524e-12
-1.02416e-11
-2.59053e-12
-1.26192e-11
-1.83287e-12
-1.44056e-11
-9.49349e-13
-1.55394e-11
-3.26062e-15
-1.609e-11
9.43209e-13
-1.61011e-11
1.82767e-12
-1.5592e-11
2.58561e-12
-1.43803e-11
3.14733e-12
-1.26054e-11
3.44501e-12
-1.03027e-11
3.38703e-12
-7.03323e-12
2.89128e-12
-3.15587e-12
1.83055e-12
1.75047e-12
9.41682e-14
7.7374e-12
-2.51796e-12
1.53229e-11
-6.16169e-12
2.40747e-11
-1.119e-11
3.59222e-11
-1.78541e-11
4.95559e-11
-2.68231e-11
6.87303e-11
-3.85602e-11
9.14036e-11
-5.44657e-11
1.25686e-10
-7.55139e-11
1.66945e-10
-1.04962e-10
2.35749e-10
-1.45233e-10
3.22311e-10
-2.04981e-10
4.82655e-10
-2.91389e-10
6.97953e-10
-4.32302e-10
1.15858e-09
-6.5369e-10
1.83142e-09
-1.07135e-09
3.61741e-09
-1.80044e-09
6.53041e-09
-3.43447e-09
1.72936e-08
-6.28084e-09
3.58107e-08
-9.46775e-09
1.33978e-07
-8.66061e-09
9.88822e-08
-3.01349e-07
7.57452e-09
-3.08924e-07
9.0102e-09
9.74465e-08
6.44989e-09
1.36539e-07
3.61576e-09
3.86448e-08
1.93497e-09
1.89745e-08
1.16025e-09
7.30516e-09
7.1276e-10
4.06488e-09
4.7293e-10
2.0713e-09
3.19959e-10
1.31151e-09
2.2572e-10
7.92158e-10
1.60529e-10
5.47908e-10
1.16481e-10
3.66318e-10
8.4269e-11
2.67929e-10
6.11998e-11
1.90057e-10
4.37596e-11
1.43105e-10
3.0859e-11
1.04278e-10
2.09829e-11
7.8672e-11
1.36168e-11
5.69196e-11
8.0354e-12
4.15017e-11
3.95788e-12
2.82207e-11
1.00446e-12
1.82638e-11
-9.98489e-13
9.69894e-12
-2.26962e-12
3.07491e-12
-2.92915e-12
-2.50783e-12
-3.11473e-12
-6.88174e-12
-2.91591e-12
-1.04342e-11
-2.43123e-12
-1.31154e-11
-1.73502e-12
-1.50829e-11
-9.03082e-13
-1.63662e-11
-3.44681e-15
-1.69897e-11
8.9646e-13
-1.70207e-11
1.72917e-12
-1.64302e-11
2.42575e-12
-1.50857e-11
2.91056e-12
-1.30769e-11
3.10954e-12
-1.04884e-11
2.92444e-12
-6.86254e-12
2.26546e-12
-2.48147e-12
9.94647e-13
3.05662e-12
-1.00885e-12
9.74813e-12
-3.96199e-12
1.82846e-11
-8.0378e-12
2.81467e-11
-1.36176e-11
4.14988e-11
-2.09817e-11
5.69296e-11
-3.08551e-11
7.85973e-11
-4.37545e-11
1.04263e-10
-6.11942e-11
1.43122e-10
-8.42633e-11
1.90004e-10
-1.16475e-10
2.67959e-10
-1.60524e-10
3.66342e-10
-2.25714e-10
5.47834e-10
-3.19954e-10
7.92175e-10
-4.72926e-10
1.31154e-09
-7.12754e-10
2.07125e-09
-1.16024e-09
4.06488e-09
-1.93497e-09
7.30516e-09