/*--------------------------------*- C++ -*----------------------------------*\
| =========                 |                                                 |
| \\      /  F ield         | foam-extend: Open Source CFD                    |
|  \\    /   O peration     | Version:     4.0                                |
|   \\  /    A nd           | Web:         http://www.foam-extend.org         |
|    \\/     M anipulation  |                                                 |
\*---------------------------------------------------------------------------*/
FoamFile
{
    version     2.0;
    format      ascii;
    class       volVectorField;
    location    "11";
    object      U;
}
// * * * * * * * * * * * * * * * * * * * * * * * * * * * * * * * * * * * * * //

dimensions      [0 1 -1 0 0 0 0];

internalField   nonuniform List<vector> 
6960
(
(-6.53524e-06 -461.93 0)
(-4.28481e-06 -461.915 0)
(3.29702e-06 -461.915 0)
(1.27662e-06 -461.915 0)
(3.87986e-07 -461.915 0)
(2.19167e-07 -461.915 0)
(1.09955e-07 -461.915 0)
(7.11223e-08 -461.915 0)
(4.09676e-08 -461.915 0)
(2.71455e-08 -461.915 0)
(1.53944e-08 -461.915 0)
(9.14613e-09 -461.915 0)
(3.64947e-09 -461.915 0)
(4.58419e-10 -461.915 0)
(-2.32535e-09 -461.915 0)
(-3.98662e-09 -461.915 0)
(-5.36002e-09 -461.915 0)
(-6.11828e-09 -461.915 0)
(-6.64944e-09 -461.915 0)
(-6.81024e-09 -461.915 0)
(-6.78996e-09 -461.915 0)
(-6.52959e-09 -461.915 0)
(-6.12858e-09 -461.915 0)
(-5.5684e-09 -461.915 0)
(-4.90347e-09 -461.915 0)
(-4.13448e-09 -461.915 0)
(-3.29493e-09 -461.915 0)
(-2.39246e-09 -461.915 0)
(-1.45323e-09 -461.915 0)
(-4.87564e-10 -461.915 0)
(4.86966e-10 -461.915 0)
(1.45236e-09 -461.915 0)
(2.39036e-09 -461.915 0)
(3.29609e-09 -461.915 0)
(4.13328e-09 -461.915 0)
(4.90068e-09 -461.915 0)
(5.56975e-09 -461.915 0)
(6.12831e-09 -461.915 0)
(6.52713e-09 -461.915 0)
(6.79091e-09 -461.915 0)
(6.80987e-09 -461.915 0)
(6.64742e-09 -461.915 0)
(6.11991e-09 -461.915 0)
(5.36066e-09 -461.915 0)
(3.9857e-09 -461.915 0)
(2.32841e-09 -461.915 0)
(-4.57418e-10 -461.915 0)
(-3.65055e-09 -461.915 0)
(-9.14381e-09 -461.915 0)
(-1.5394e-08 -461.915 0)
(-2.71472e-08 -461.915 0)
(-4.09666e-08 -461.915 0)
(-7.11223e-08 -461.915 0)
(-1.09956e-07 -461.915 0)
(-2.19164e-07 -461.915 0)
(-3.87985e-07 -461.915 0)
(-1.27663e-06 -461.915 0)
(-3.29701e-06 -461.915 0)
(4.28481e-06 -461.915 0)
(6.53524e-06 -461.93 0)
(0.000435506 31.4122 0)
(0.00044205 31.4262 0)
(9.57323e-06 31.4262 0)
(3.71971e-06 31.4262 0)
(1.16185e-06 31.4262 0)
(6.56534e-07 31.4262 0)
(3.31546e-07 31.4262 0)
(2.14796e-07 31.4262 0)
(1.24814e-07 31.4262 0)
(8.32354e-08 31.4262 0)
(4.81716e-08 31.4262 0)
(2.94201e-08 31.4262 0)
(1.29931e-08 31.4262 0)
(3.42125e-09 31.4262 0)
(-4.89671e-09 31.4262 0)
(-9.93087e-09 31.4262 0)
(-1.40679e-08 31.4262 0)
(-1.6395e-08 31.4262 0)
(-1.80805e-08 31.4262 0)
(-1.86503e-08 31.4262 0)
(-1.86899e-08 31.4262 0)
(-1.806e-08 31.4262 0)
(-1.69902e-08 31.4262 0)
(-1.54581e-08 31.4262 0)
(-1.36533e-08 31.4262 0)
(-1.15164e-08 31.4262 0)
(-9.17568e-09 31.4262 0)
(-6.68392e-09 31.4262 0)
(-4.04945e-09 31.4262 0)
(-1.32621e-09 31.4262 0)
(1.28151e-09 31.4262 0)
(4.05914e-09 31.4262 0)
(6.76975e-09 31.4262 0)
(9.08694e-09 31.4262 0)
(1.15129e-08 31.4262 0)
(1.37371e-08 31.4262 0)
(1.53699e-08 31.4262 0)
(1.69894e-08 31.4262 0)
(1.81448e-08 31.4262 0)
(1.86006e-08 31.4262 0)
(1.86492e-08 31.4262 0)
(1.81665e-08 31.4262 0)
(1.63077e-08 31.4262 0)
(1.40698e-08 31.4262 0)
(1.00202e-08 31.4262 0)
(4.81365e-09 31.4262 0)
(-3.41816e-09 31.4262 0)
(-1.2904e-08 31.4262 0)
(-2.95052e-08 31.4262 0)
(-4.81703e-08 31.4262 0)
(-8.3148e-08 31.4262 0)
(-1.24903e-07 31.4262 0)
(-2.14796e-07 31.4262 0)
(-3.31457e-07 31.4262 0)
(-6.56616e-07 31.4262 0)
(-1.16185e-06 31.4262 0)
(-3.71962e-06 31.4262 0)
(-9.57332e-06 31.4262 0)
(-0.00044205 31.4262 0)
(-0.000435506 31.4122 0)
(0.00036597 83.1955 0)
(0.00037603 83.1881 0)
(1.49513e-05 83.1881 0)
(6.04124e-06 83.1881 0)
(1.9353e-06 83.1881 0)
(1.09646e-06 83.1881 0)
(5.57033e-07 83.1881 0)
(3.61831e-07 83.1881 0)
(2.1199e-07 83.1881 0)
(1.4244e-07 83.1881 0)
(8.40442e-08 83.1881 0)
(5.2692e-08 83.1881 0)
(2.53561e-08 83.1881 0)
(9.34269e-09 83.1881 0)
(-4.54798e-09 83.1881 0)
(-1.29959e-08 83.1881 0)
(-1.99766e-08 83.1881 0)
(-2.39837e-08 83.1881 0)
(-2.69157e-08 83.1881 0)
(-2.80478e-08 83.1881 0)
(-2.83191e-08 83.1881 0)
(-2.74794e-08 83.1881 0)
(-2.59525e-08 83.1881 0)
(-2.36781e-08 83.1881 0)
(-2.09429e-08 83.1881 0)
(-1.76954e-08 83.1881 0)
(-1.41211e-08 83.1881 0)
(-1.02817e-08 83.1881 0)
(-6.24087e-09 83.1881 0)
(-2.06622e-09 83.1881 0)
(2.02588e-09 83.1881 0)
(6.2472e-09 83.1881 0)
(1.03519e-08 83.1881 0)
(1.40459e-08 83.1881 0)
(1.76897e-08 83.1881 0)
(2.101e-08 83.1881 0)
(2.36038e-08 83.1881 0)
(2.59511e-08 83.1881 0)
(2.75481e-08 83.1881 0)
(2.8243e-08 83.1881 0)
(2.80459e-08 83.1881 0)
(2.69863e-08 83.1881 0)
(2.39109e-08 83.1881 0)
(1.99797e-08 83.1881 0)
(1.30721e-08 83.1881 0)
(4.48217e-09 83.1881 0)
(-9.33748e-09 83.1881 0)
(-2.52802e-08 83.1881 0)
(-5.2761e-08 83.1881 0)
(-8.40417e-08 83.1881 0)
(-1.42367e-07 83.1881 0)
(-2.12065e-07 83.1881 0)
(-3.6183e-07 83.1881 0)
(-5.56956e-07 83.1881 0)
(-1.09652e-06 83.1881 0)
(-1.93529e-06 83.1881 0)
(-6.04116e-06 83.1881 0)
(-1.49513e-05 83.1881 0)
(-0.00037603 83.1881 0)
(-0.00036597 83.1955 0)
(0.000156082 17.6087 0)
(0.000169103 17.6013 0)
(1.96187e-05 17.6013 0)
(8.20469e-06 17.6013 0)
(2.70451e-06 17.6013 0)
(1.53765e-06 17.6013 0)
(7.85997e-07 17.6013 0)
(5.12073e-07 17.6013 0)
(3.02479e-07 17.6013 0)
(2.04785e-07 17.6013 0)
(1.23082e-07 17.6013 0)
(7.90597e-08 17.6013 0)
(4.08339e-08 17.6013 0)
(1.83343e-08 17.6013 0)
(-1.15411e-09 17.6013 0)
(-1.30715e-08 17.6013 0)
(-2.29674e-08 17.6013 0)
(-2.87594e-08 17.6013 0)
(-3.30502e-08 17.6013 0)
(-3.4895e-08 17.6013 0)
(-3.55678e-08 17.6013 0)
(-3.47027e-08 17.6013 0)
(-3.29306e-08 17.6013 0)
(-3.01448e-08 17.6013 0)
(-2.67157e-08 17.6013 0)
(-2.26175e-08 17.6013 0)
(-1.80802e-08 17.6013 0)
(-1.31636e-08 17.6013 0)
(-8.00395e-09 17.6013 0)
(-2.67304e-09 17.6013 0)
(2.65041e-09 17.6013 0)
(8.00305e-09 17.6013 0)
(1.31898e-08 17.6013 0)
(1.80468e-08 17.6013 0)
(2.26097e-08 17.6013 0)
(2.67378e-08 17.6013 0)
(3.01126e-08 17.6013 0)
(3.29285e-08 17.6013 0)
(3.4727e-08 17.6013 0)
(3.55333e-08 17.6013 0)
(3.48922e-08 17.6013 0)
(3.30771e-08 17.6013 0)
(2.87295e-08 17.6013 0)
(2.29716e-08 17.6013 0)
(1.31062e-08 17.6013 0)
(1.13377e-09 17.6013 0)
(-1.83269e-08 17.6013 0)
(-4.07992e-08 17.6013 0)
(-7.9084e-08 17.6013 0)
(-1.23078e-07 17.6013 0)
(-2.04753e-07 17.6013 0)
(-3.02511e-07 17.6013 0)
(-5.12072e-07 17.6013 0)
(-7.85963e-07 17.6013 0)
(-1.53767e-06 17.6013 0)
(-2.7045e-06 17.6013 0)
(-8.20466e-06 17.6013 0)
(-1.96188e-05 17.6013 0)
(-0.000169103 17.6013 0)
(-0.000156082 17.6087 0)
(9.22834e-05 -6.32115 0)
(0.000107998 -6.3216 0)
(2.38788e-05 -6.32161 0)
(1.02223e-05 -6.32162 0)
(3.46797e-06 -6.32162 0)
(1.97944e-06 -6.32162 0)
(1.01824e-06 -6.32162 0)
(6.65364e-07 -6.32162 0)
(3.96167e-07 -6.32162 0)
(2.70129e-07 -6.32162 0)
(1.65147e-07 -6.32162 0)
(1.0838e-07 -6.32162 0)
(5.92639e-08 -6.32162 0)
(3.02327e-08 -6.32162 0)
(5.1245e-09 -6.32162 0)
(-1.0333e-08 -6.32162 0)
(-2.32086e-08 -6.32162 0)
(-3.08813e-08 -6.32162 0)
(-3.66511e-08 -6.32162 0)
(-3.93457e-08 -6.32162 0)
(-4.05747e-08 -6.32162 0)
(-3.98706e-08 -6.32162 0)
(-3.80469e-08 -6.32162 0)
(-3.49608e-08 -6.32162 0)
(-3.10723e-08 -6.32162 0)
(-2.63611e-08 -6.32162 0)
(-2.11087e-08 -6.32162 0)
(-1.53808e-08 -6.32162 0)
(-9.36184e-09 -6.32162 0)
(-3.13383e-09 -6.32162 0)
(3.11519e-09 -6.32162 0)
(9.35759e-09 -6.32162 0)
(1.53924e-08 -6.32162 0)
(2.10875e-08 -6.32162 0)
(2.63514e-08 -6.32162 0)
(3.10793e-08 -6.32162 0)
(3.4941e-08 -6.32162 0)
(3.80441e-08 -6.32162 0)
(3.98803e-08 -6.32162 0)
(4.0552e-08 -6.32162 0)
(3.93419e-08 -6.32162 0)
(3.66641e-08 -6.32162 0)
(3.08647e-08 -6.32162 0)
(2.32138e-08 -6.32162 0)
(1.03559e-08 -6.32162 0)
(-5.12911e-09 -6.32162 0)
(-3.02232e-08 -6.32162 0)
(-5.92407e-08 -6.32162 0)
(-1.0839e-07 -6.32162 0)
(-1.65142e-07 -6.32162 0)
(-2.7011e-07 -6.32162 0)
(-3.96185e-07 -6.32162 0)
(-6.65362e-07 -6.32162 0)
(-1.01821e-06 -6.32162 0)
(-1.97944e-06 -6.32162 0)
(-3.46796e-06 -6.32162 0)
(-1.02223e-05 -6.32162 0)
(-2.38788e-05 -6.32161 0)
(-0.000107998 -6.3216 0)
(-9.22834e-05 -6.32115 0)
(0.000106693 -5.19592 0)
(0.00012482 -5.19421 0)
(2.77458e-05 -5.19421 0)
(1.21254e-05 -5.19422 0)
(4.225e-06 -5.19422 0)
(2.42139e-06 -5.19422 0)
(1.25368e-06 -5.19422 0)
(8.21581e-07 -5.19422 0)
(4.92925e-07 -5.19422 0)
(3.38304e-07 -5.19422 0)
(2.10044e-07 -5.19422 0)
(1.40428e-07 -5.19422 0)
(8.04054e-08 -5.19422 0)
(4.47806e-08 -5.19422 0)
(1.40206e-08 -5.19422 0)
(-5.04961e-09 -5.19422 0)
(-2.09708e-08 -5.19422 0)
(-3.06183e-08 -5.19422 0)
(-3.79767e-08 -5.19422 0)
(-4.16487e-08 -5.19422 0)
(-4.3576e-08 -5.19422 0)
(-4.31996e-08 -5.19422 0)
(-4.14999e-08 -5.19422 0)
(-3.83042e-08 -5.19422 0)
(-3.41642e-08 -5.19422 0)
(-2.90538e-08 -5.19422 0)
(-2.33086e-08 -5.19422 0)
(-1.70042e-08 -5.19422 0)
(-1.03593e-08 -5.19422 0)
(-3.46848e-09 -5.19422 0)
(3.44649e-09 -5.19422 0)
(1.03538e-08 -5.19422 0)
(1.70172e-08 -5.19422 0)
(2.32836e-08 -5.19422 0)
(2.90422e-08 -5.19422 0)
(3.41719e-08 -5.19422 0)
(3.82808e-08 -5.19422 0)
(4.14962e-08 -5.19422 0)
(4.32106e-08 -5.19422 0)
(4.35493e-08 -5.19422 0)
(4.1644e-08 -5.19422 0)
(3.79916e-08 -5.19422 0)
(3.05989e-08 -5.19422 0)
(2.09769e-08 -5.19422 0)
(5.07657e-09 -5.19422 0)
(-1.40255e-08 -5.19422 0)
(-4.47691e-08 -5.19422 0)
(-8.03778e-08 -5.19422 0)
(-1.40438e-07 -5.19422 0)
(-2.10037e-07 -5.19422 0)
(-3.38281e-07 -5.19422 0)
(-4.92945e-07 -5.19422 0)
(-8.21578e-07 -5.19422 0)
(-1.25365e-06 -5.19422 0)
(-2.42139e-06 -5.19422 0)
(-4.22498e-06 -5.19422 0)
(-1.21253e-05 -5.19422 0)
(-2.77458e-05 -5.19421 0)
(-0.00012482 -5.19421 0)
(-0.000106693 -5.19592 0)
(0.000114843 -2.79223 0)
(0.000135038 -2.79114 0)
(3.11721e-05 -2.79114 0)
(1.39266e-05 -2.79116 0)
(4.97522e-06 -2.79116 0)
(2.86324e-06 -2.79116 0)
(1.49233e-06 -2.79116 0)
(9.80635e-07 -2.79116 0)
(5.92634e-07 -2.79116 0)
(4.09133e-07 -2.79116 0)
(2.57559e-07 -2.79116 0)
(1.74952e-07 -2.79116 0)
(1.03989e-07 -2.79116 0)
(6.16879e-08 -2.79116 0)
(2.52307e-08 -2.79116 0)
(2.47236e-09 -2.79116 0)
(-1.6563e-08 -2.79116 0)
(-2.82775e-08 -2.79116 0)
(-3.73223e-08 -2.79116 0)
(-4.20894e-08 -2.79116 0)
(-4.48429e-08 -2.79116 0)
(-4.49379e-08 -2.79116 0)
(-4.35173e-08 -2.79116 0)
(-4.03798e-08 -2.79116 0)
(-3.6165e-08 -2.79116 0)
(-3.08418e-08 -2.79116 0)
(-2.47972e-08 -2.79116 0)
(-1.81155e-08 -2.79116 0)
(-1.10479e-08 -2.79116 0)
(-3.7003e-09 -2.79116 0)
(3.67564e-09 -2.79116 0)
(1.10408e-08 -2.79116 0)
(1.81284e-08 -2.79116 0)
(2.47697e-08 -2.79116 0)
(3.08284e-08 -2.79116 0)
(3.61723e-08 -2.79116 0)
(4.03539e-08 -2.79116 0)
(4.35127e-08 -2.79116 0)
(4.4949e-08 -2.79116 0)
(4.48135e-08 -2.79116 0)
(4.20837e-08 -2.79116 0)
(3.73379e-08 -2.79116 0)
(2.82568e-08 -2.79116 0)
(1.657e-08 -2.79116 0)
(-2.44261e-09 -2.79116 0)
(-2.52348e-08 -2.79116 0)
(-6.16744e-08 -2.79116 0)
(-1.03958e-07 -2.79116 0)
(-1.74962e-07 -2.79116 0)
(-2.5755e-07 -2.79116 0)
(-4.09107e-07 -2.79116 0)
(-5.92654e-07 -2.79116 0)
(-9.80631e-07 -2.79116 0)
(-1.4923e-06 -2.79116 0)
(-2.86324e-06 -2.79116 0)
(-4.9752e-06 -2.79116 0)
(-1.39266e-05 -2.79116 0)
(-3.11721e-05 -2.79114 0)
(-0.000135038 -2.79114 0)
(-0.000114843 -2.79223 0)
(0.000109087 -2.50812 0)
(0.000131031 -2.5075 0)
(3.41806e-05 -2.5075 0)
(1.56244e-05 -2.50752 0)
(5.71827e-06 -2.50752 0)
(3.30472e-06 -2.50753 0)
(1.73421e-06 -2.50753 0)
(1.14245e-06 -2.50753 0)
(6.95183e-07 -2.50753 0)
(4.82445e-07 -2.50753 0)
(3.07482e-07 -2.50753 0)
(2.11707e-07 -2.50753 0)
(1.29744e-07 -2.50753 0)
(8.06637e-08 -2.50753 0)
(3.84521e-08 -2.50753 0)
(1.19236e-08 -2.50753 0)
(-1.02959e-08 -2.50753 0)
(-2.41666e-08 -2.50753 0)
(-3.49868e-08 -2.50753 0)
(-4.09547e-08 -2.50753 0)
(-4.46466e-08 -2.50753 0)
(-4.53371e-08 -2.50753 0)
(-4.43283e-08 -2.50753 0)
(-4.1392e-08 -2.50753 0)
(-3.72513e-08 -2.50753 0)
(-3.18725e-08 -2.50753 0)
(-2.56911e-08 -2.50753 0)
(-1.87983e-08 -2.50753 0)
(-1.14785e-08 -2.50753 0)
(-3.84685e-09 -2.50753 0)
(3.8209e-09 -2.50753 0)
(1.14693e-08 -2.50753 0)
(1.88083e-08 -2.50753 0)
(2.56638e-08 -2.50753 0)
(3.18574e-08 -2.50753 0)
(3.72555e-08 -2.50753 0)
(4.13662e-08 -2.50753 0)
(4.43227e-08 -2.50753 0)
(4.53456e-08 -2.50753 0)
(4.46172e-08 -2.50753 0)
(4.0948e-08 -2.50753 0)
(3.50005e-08 -2.50753 0)
(2.41472e-08 -2.50753 0)
(1.03036e-08 -2.50753 0)
(-1.18938e-08 -2.50753 0)
(-3.84528e-08 -2.50753 0)
(-8.06485e-08 -2.50753 0)
(-1.29713e-07 -2.50753 0)
(-2.11713e-07 -2.50753 0)
(-3.07472e-07 -2.50753 0)
(-4.82418e-07 -2.50753 0)
(-6.952e-07 -2.50753 0)
(-1.14244e-06 -2.50753 0)
(-1.73418e-06 -2.50753 0)
(-3.30472e-06 -2.50753 0)
(-5.71825e-06 -2.50752 0)
(-1.56244e-05 -2.50752 0)
(-3.41806e-05 -2.5075 0)
(-0.000131031 -2.5075 0)
(-0.000109087 -2.50812 0)
(0.000102146 -2.5227 0)
(0.000125569 -2.5221 0)
(3.68191e-05 -2.5221 0)
(1.72167e-05 -2.52212 0)
(6.45369e-06 -2.52213 0)
(3.74555e-06 -2.52213 0)
(1.97929e-06 -2.52213 0)
(1.30694e-06 -2.52213 0)
(8.00472e-07 -2.52213 0)
(5.58081e-07 -2.52213 0)
(3.59621e-07 -2.52213 0)
(2.50464e-07 -2.52213 0)
(1.5742e-07 -2.52213 0)
(1.01439e-07 -2.52213 0)
(5.34042e-08 -2.52213 0)
(2.30161e-08 -2.52213 0)
(-2.45826e-09 -2.52213 0)
(-1.85709e-08 -2.52213 0)
(-3.12489e-08 -2.52213 0)
(-3.85116e-08 -2.52213 0)
(-4.32391e-08 -2.52213 0)
(-4.46318e-08 -2.52213 0)
(-4.41465e-08 -2.52213 0)
(-4.15304e-08 -2.52213 0)
(-3.75878e-08 -2.52213 0)
(-3.22829e-08 -2.52213 0)
(-2.60981e-08 -2.52213 0)
(-1.91311e-08 -2.52213 0)
(-1.16979e-08 -2.52213 0)
(-3.92294e-09 -2.52213 0)
(3.89586e-09 -2.52213 0)
(1.16867e-08 -2.52213 0)
(1.91378e-08 -2.52213 0)
(2.60711e-08 -2.52213 0)
(3.22663e-08 -2.52213 0)
(3.75888e-08 -2.52213 0)
(4.1505e-08 -2.52213 0)
(4.41398e-08 -2.52213 0)
(4.46375e-08 -2.52213 0)
(4.32099e-08 -2.52213 0)
(3.85039e-08 -2.52213 0)
(3.12604e-08 -2.52213 0)
(1.85532e-08 -2.52213 0)
(2.46671e-09 -2.52213 0)
(-2.29864e-08 -2.52213 0)
(-5.34014e-08 -2.52213 0)
(-1.01422e-07 -2.52213 0)
(-1.57388e-07 -2.52213 0)
(-2.50467e-07 -2.52213 0)
(-3.59609e-07 -2.52213 0)
(-5.58054e-07 -2.52213 0)
(-8.00485e-07 -2.52213 0)
(-1.30693e-06 -2.52213 0)
(-1.97926e-06 -2.52213 0)
(-3.74555e-06 -2.52213 0)
(-6.45367e-06 -2.52213 0)
(-1.72167e-05 -2.52212 0)
(-3.68191e-05 -2.5221 0)
(-0.000125569 -2.5221 0)
(-0.000102146 -2.5227 0)
(9.74643e-05 -2.22425 0)
(0.000122127 -2.22362 0)
(3.91185e-05 -2.22362 0)
(1.87041e-05 -2.22364 0)
(7.18078e-06 -2.22364 0)
(4.18536e-06 -2.22364 0)
(2.22755e-06 -2.22364 0)
(1.47403e-06 -2.22364 0)
(9.08409e-07 -2.22364 0)
(6.35903e-07 -2.22364 0)
(4.13807e-07 -2.22364 0)
(2.91026e-07 -2.22364 0)
(1.86797e-07 -2.22364 0)
(1.23777e-07 -2.22364 0)
(6.98413e-08 -2.22364 0)
(3.54977e-08 -2.22364 0)
(6.6966e-09 -2.22364 0)
(-1.17412e-08 -2.22364 0)
(-2.63529e-08 -2.22364 0)
(-3.49949e-08 -2.22364 0)
(-4.08418e-08 -2.22364 0)
(-4.30277e-08 -2.22364 0)
(-4.31593e-08 -2.22364 0)
(-4.0962e-08 -2.22364 0)
(-3.73191e-08 -2.22364 0)
(-3.21936e-08 -2.22364 0)
(-2.61133e-08 -2.22364 0)
(-1.91826e-08 -2.22364 0)
(-1.17477e-08 -2.22364 0)
(-3.94222e-09 -2.22364 0)
(3.91379e-09 -2.22364 0)
(1.17345e-08 -2.22364 0)
(1.91865e-08 -2.22364 0)
(2.60859e-08 -2.22364 0)
(3.21755e-08 -2.22364 0)
(3.73175e-08 -2.22364 0)
(4.09365e-08 -2.22364 0)
(4.31515e-08 -2.22364 0)
(4.30312e-08 -2.22364 0)
(4.08124e-08 -2.22364 0)
(3.4986e-08 -2.22364 0)
(2.63629e-08 -2.22364 0)
(1.17246e-08 -2.22364 0)
(-6.68755e-09 -2.22364 0)
(-3.54679e-08 -2.22364 0)
(-6.98357e-08 -2.22364 0)
(-1.23758e-07 -2.22364 0)
(-1.86764e-07 -2.22364 0)
(-2.91026e-07 -2.22364 0)
(-4.13793e-07 -2.22364 0)
(-6.35875e-07 -2.22364 0)
(-9.0842e-07 -2.22364 0)
(-1.47402e-06 -2.22364 0)
(-2.22752e-06 -2.22364 0)
(-4.18536e-06 -2.22364 0)
(-7.18075e-06 -2.22364 0)
(-1.87041e-05 -2.22364 0)
(-3.91185e-05 -2.22362 0)
(-0.000122127 -2.22362 0)
(-9.74643e-05 -2.22425 0)
(9.31664e-05 -1.79158 0)
(0.000118845 -1.79101 0)
(4.10943e-05 -1.79101 0)
(2.00871e-05 -1.79103 0)
(7.89854e-06 -1.79103 0)
(4.62371e-06 -1.79103 0)
(2.4789e-06 -1.79103 0)
(1.64365e-06 -1.79103 0)
(1.01892e-06 -1.79103 0)
(7.15798e-07 -1.79103 0)
(4.69903e-07 -1.79103 0)
(3.3323e-07 -1.79103 0)
(2.17694e-07 -1.79103 0)
(1.47484e-07 -1.79103 0)
(8.75595e-08 -1.79103 0)
(4.91594e-08 -1.79103 0)
(1.69581e-08 -1.79103 0)
(-3.88623e-09 -1.79103 0)
(-2.05021e-08 -1.79103 0)
(-3.05998e-08 -1.79103 0)
(-3.76396e-08 -1.79103 0)
(-4.06965e-08 -1.79103 0)
(-4.1523e-08 -1.79103 0)
(-3.9826e-08 -1.79103 0)
(-3.65658e-08 -1.79103 0)
(-3.1705e-08 -1.79103 0)
(-2.58159e-08 -1.79103 0)
(-1.90101e-08 -1.79103 0)
(-1.16625e-08 -1.79103 0)
(-3.91639e-09 -1.79103 0)
(3.88662e-09 -1.79103 0)
(1.16473e-08 -1.79103 0)
(1.9011e-08 -1.79103 0)
(2.57881e-08 -1.79103 0)
(3.16855e-08 -1.79103 0)
(3.65617e-08 -1.79103 0)
(3.98003e-08 -1.79103 0)
(4.15139e-08 -1.79103 0)
(4.06978e-08 -1.79103 0)
(3.76098e-08 -1.79103 0)
(3.05898e-08 -1.79103 0)
(2.05108e-08 -1.79103 0)
(3.87067e-09 -1.79103 0)
(-1.69485e-08 -1.79103 0)
(-4.91293e-08 -1.79103 0)
(-8.75513e-08 -1.79103 0)
(-1.47464e-07 -1.79103 0)
(-2.17661e-07 -1.79103 0)
(-3.33227e-07 -1.79103 0)
(-4.69887e-07 -1.79103 0)
(-7.15768e-07 -1.79103 0)
(-1.01892e-06 -1.79103 0)
(-1.64363e-06 -1.79103 0)
(-2.47887e-06 -1.79103 0)
(-4.6237e-06 -1.79103 0)
(-7.89851e-06 -1.79103 0)
(-2.00871e-05 -1.79103 0)
(-4.10943e-05 -1.79101 0)
(-0.000118845 -1.79101 0)
(-9.31664e-05 -1.79158 0)
(8.8004e-05 -1.38581 0)
(0.000114484 -1.38532 0)
(4.27576e-05 -1.38531 0)
(2.13649e-05 -1.38534 0)
(8.60563e-06 -1.38534 0)
(5.06002e-06 -1.38534 0)
(2.73321e-06 -1.38534 0)
(1.81568e-06 -1.38534 0)
(1.13192e-06 -1.38534 0)
(7.97673e-07 -1.38534 0)
(5.27801e-07 -1.38534 0)
(3.76948e-07 -1.38534 0)
(2.49972e-07 -1.38534 0)
(1.72407e-07 -1.38534 0)
(1.06398e-07 -1.38534 0)
(6.38361e-08 -1.38534 0)
(2.81599e-08 -1.38534 0)
(4.82881e-09 -1.38534 0)
(-1.3858e-08 -1.38534 0)
(-2.54813e-08 -1.38534 0)
(-3.37788e-08 -1.38534 0)
(-3.77744e-08 -1.38534 0)
(-3.93618e-08 -1.38534 0)
(-3.82332e-08 -1.38534 0)
(-3.54235e-08 -1.38534 0)
(-3.08969e-08 -1.38534 0)
(-2.5269e-08 -1.38534 0)
(-1.8659e-08 -1.38534 0)
(-1.14698e-08 -1.38534 0)
(-3.85472e-09 -1.38534 0)
(3.82376e-09 -1.38534 0)
(1.14524e-08 -1.38534 0)
(1.86567e-08 -1.38534 0)
(2.52408e-08 -1.38534 0)
(3.0876e-08 -1.38534 0)
(3.54167e-08 -1.38534 0)
(3.82074e-08 -1.38534 0)
(3.93515e-08 -1.38534 0)
(3.77733e-08 -1.38534 0)
(3.37489e-08 -1.38534 0)
(2.54703e-08 -1.38534 0)
(1.3865e-08 -1.38534 0)
(-4.8432e-09 -1.38534 0)
(-2.81497e-08 -1.38534 0)
(-6.38059e-08 -1.38534 0)
(-1.06388e-07 -1.38534 0)
(-1.72385e-07 -1.38534 0)
(-2.49938e-07 -1.38534 0)
(-3.76942e-07 -1.38534 0)
(-5.27784e-07 -1.38534 0)
(-7.97642e-07 -1.38534 0)
(-1.13193e-06 -1.38534 0)
(-1.81567e-06 -1.38534 0)
(-2.73317e-06 -1.38534 0)
(-5.06e-06 -1.38534 0)
(-8.6056e-06 -1.38534 0)
(-2.13649e-05 -1.38534 0)
(-4.27576e-05 -1.38531 0)
(-0.000114484 -1.38532 0)
(-8.8004e-05 -1.38581 0)
(8.19209e-05 -1.04765 0)
(0.000108998 -1.04723 0)
(4.41174e-05 -1.04723 0)
(2.25356e-05 -1.04725 0)
(9.30031e-06 -1.04726 0)
(5.49358e-06 -1.04726 0)
(2.99024e-06 -1.04726 0)
(1.99004e-06 -1.04726 0)
(1.24736e-06 -1.04726 0)
(8.81456e-07 -1.04726 0)
(5.87419e-07 -1.04726 0)
(4.22085e-07 -1.04726 0)
(2.83524e-07 -1.04726 0)
(1.98431e-07 -1.04726 0)
(1.26238e-07 -1.04726 0)
(7.94035e-08 -1.04726 0)
(4.01765e-08 -1.04726 0)
(1.42792e-08 -1.04726 0)
(-6.54221e-09 -1.04726 0)
(-1.97568e-08 -1.04726 0)
(-2.93705e-08 -1.04726 0)
(-3.43645e-08 -1.04726 0)
(-3.67698e-08 -1.04726 0)
(-3.62673e-08 -1.04726 0)
(-3.39648e-08 -1.04726 0)
(-2.98299e-08 -1.04726 0)
(-2.45204e-08 -1.04726 0)
(-1.81636e-08 -1.04726 0)
(-1.11905e-08 -1.04726 0)
(-3.7642e-09 -1.04726 0)
(3.73219e-09 -1.04726 0)
(1.11709e-08 -1.04726 0)
(1.8158e-08 -1.04726 0)
(2.44919e-08 -1.04726 0)
(2.98077e-08 -1.04726 0)
(3.39554e-08 -1.04726 0)
(3.62415e-08 -1.04726 0)
(3.67582e-08 -1.04726 0)
(3.43611e-08 -1.04726 0)
(2.93407e-08 -1.04726 0)
(1.97447e-08 -1.04726 0)
(6.54757e-09 -1.04726 0)
(-1.42923e-08 -1.04726 0)
(-4.01657e-08 -1.04726 0)
(-7.93734e-08 -1.04726 0)
(-1.26224e-07 -1.04726 0)
(-1.98408e-07 -1.04726 0)
(-2.8349e-07 -1.04726 0)
(-4.22076e-07 -1.04726 0)
(-5.874e-07 -1.04726 0)
(-8.81424e-07 -1.04726 0)
(-1.24736e-06 -1.04726 0)
(-1.99002e-06 -1.04726 0)
(-2.99021e-06 -1.04726 0)
(-5.49356e-06 -1.04726 0)
(-9.30028e-06 -1.04726 0)
(-2.25355e-05 -1.04725 0)
(-4.41174e-05 -1.04723 0)
(-0.000108998 -1.04723 0)
(-8.19209e-05 -1.04765 0)
(7.51532e-05 -0.777476 0)
(0.000102632 -0.777121 0)
(4.51808e-05 -0.777117 0)
(2.35968e-05 -0.777144 0)
(9.98045e-06 -0.777147 0)
(5.92352e-06 -0.777149 0)
(3.24973e-06 -0.777149 0)
(2.16656e-06 -0.77715 0)
(1.36516e-06 -0.77715 0)
(9.67083e-07 -0.77715 0)
(6.48694e-07 -0.77715 0)
(4.68572e-07 -0.77715 0)
(3.18274e-07 -0.77715 0)
(2.25474e-07 -0.77715 0)
(1.46991e-07 -0.77715 0)
(9.57722e-08 -0.77715 0)
(5.29173e-08 -0.77715 0)
(2.43748e-08 -0.77715 0)
(1.35674e-09 -0.77715 0)
(-1.35114e-08 -0.77715 0)
(-2.44955e-08 -0.77715 0)
(-3.0542e-08 -0.77715 0)
(-3.38156e-08 -0.77715 0)
(-3.39896e-08 -0.77715 0)
(-3.22428e-08 -0.77715 0)
(-2.85482e-08 -0.77715 0)
(-2.3605e-08 -0.77715 0)
(-1.75493e-08 -0.77715 0)
(-1.08398e-08 -0.77715 0)
(-3.64995e-09 -0.77715 0)
(3.61694e-09 -0.77715 0)
(1.08179e-08 -0.77715 0)
(1.75401e-08 -0.77715 0)
(2.35762e-08 -0.77715 0)
(2.85247e-08 -0.77715 0)
(3.22306e-08 -0.77715 0)
(3.39637e-08 -0.77715 0)
(3.38025e-08 -0.77715 0)
(3.05361e-08 -0.77715 0)
(2.44658e-08 -0.77715 0)
(1.34982e-08 -0.77715 0)
(-1.35313e-09 -0.77715 0)
(-2.43864e-08 -0.77715 0)
(-5.29059e-08 -0.77715 0)
(-9.57423e-08 -0.77715 0)
(-1.46975e-07 -0.77715 0)
(-2.2545e-07 -0.77715 0)
(-3.1824e-07 -0.77715 0)
(-4.6856e-07 -0.77715 0)
(-6.48674e-07 -0.77715 0)
(-9.6705e-07 -0.77715 0)
(-1.36516e-06 -0.77715 0)
(-2.16655e-06 -0.77715 0)
(-3.24969e-06 -0.777149 0)
(-5.9235e-06 -0.777149 0)
(-9.98042e-06 -0.777147 0)
(-2.35968e-05 -0.777144 0)
(-4.51807e-05 -0.777117 0)
(-0.000102632 -0.777121 0)
(-7.51532e-05 -0.777476 0)
(6.78932e-05 -0.569483 0)
(9.5584e-05 -0.569179 0)
(4.59535e-05 -0.569173 0)
(2.45461e-05 -0.569201 0)
(1.06436e-05 -0.569205 0)
(6.34882e-06 -0.569207 0)
(3.51128e-06 -0.569207 0)
(2.34509e-06 -0.569208 0)
(1.48524e-06 -0.569208 0)
(1.0545e-06 -0.569208 0)
(7.11579e-07 -0.569208 0)
(5.16359e-07 -0.569208 0)
(3.5417e-07 -0.569208 0)
(2.5348e-07 -0.569208 0)
(1.68597e-07 -0.569208 0)
(1.1288e-07 -0.569208 0)
(6.6319e-08 -0.569208 0)
(3.50523e-08 -0.569208 0)
(9.7769e-09 -0.569208 0)
(-6.80504e-09 -0.569208 0)
(-1.92105e-08 -0.569208 0)
(-2.63599e-08 -0.569208 0)
(-3.05474e-08 -0.569208 0)
(-3.1443e-08 -0.569208 0)
(-3.02947e-08 -0.569208 0)
(-2.7083e-08 -0.569208 0)
(-2.25473e-08 -0.569208 0)
(-1.68338e-08 -0.569208 0)
(-1.04283e-08 -0.569208 0)
(-3.51557e-09 -0.569208 0)
(3.48158e-09 -0.569208 0)
(1.04041e-08 -0.569208 0)
(1.6821e-08 -0.569208 0)
(2.25182e-08 -0.569208 0)
(2.70582e-08 -0.569208 0)
(3.02799e-08 -0.569208 0)
(3.14173e-08 -0.569208 0)
(3.0533e-08 -0.569208 0)
(2.63513e-08 -0.569208 0)
(1.91811e-08 -0.569208 0)
(6.79066e-09 -0.569208 0)
(-9.77514e-09 -0.569208 0)
(-3.50623e-08 -0.569208 0)
(-6.63069e-08 -0.569208 0)
(-1.12851e-07 -0.569208 0)
(-1.68579e-07 -0.569208 0)
(-2.53454e-07 -0.569208 0)
(-3.54135e-07 -0.569208 0)
(-5.16344e-07 -0.569208 0)
(-7.11557e-07 -0.569208 0)
(-1.05446e-06 -0.569208 0)
(-1.48524e-06 -0.569208 0)
(-2.34508e-06 -0.569208 0)
(-3.51125e-06 -0.569207 0)
(-6.34879e-06 -0.569207 0)
(-1.06436e-05 -0.569205 0)
(-2.45461e-05 -0.569201 0)
(-4.59535e-05 -0.569173 0)
(-9.5584e-05 -0.569179 0)
(-6.78932e-05 -0.569483 0)
(6.03136e-05 -0.414928 0)
(8.80331e-05 -0.414664 0)
(4.64413e-05 -0.414657 0)
(2.53808e-05 -0.414686 0)
(1.1287e-05 -0.41469 0)
(6.76829e-06 -0.414692 0)
(3.77443e-06 -0.414693 0)
(2.52542e-06 -0.414693 0)
(1.60751e-06 -0.414693 0)
(1.14364e-06 -0.414693 0)
(7.76033e-07 -0.414693 0)
(5.65409e-07 -0.414694 0)
(3.91173e-07 -0.414694 0)
(2.82409e-07 -0.414694 0)
(1.91017e-07 -0.414694 0)
(1.30685e-07 -0.414694 0)
(8.03387e-08 -0.414694 0)
(4.62688e-08 -0.414694 0)
(1.86758e-08 -0.414694 0)
(3.21401e-10 -0.414694 0)
(-1.35546e-08 -0.414694 0)
(-2.18546e-08 -0.414694 0)
(-2.69986e-08 -0.414694 0)
(-2.86575e-08 -0.414694 0)
(-2.81465e-08 -0.414694 0)
(-2.54557e-08 -0.414694 0)
(-2.13644e-08 -0.414694 0)
(-1.60295e-08 -0.414694 0)
(-9.96364e-09 -0.414694 0)
(-3.36357e-09 -0.414694 0)
(3.32856e-09 -0.414694 0)
(9.93719e-09 -0.414694 0)
(1.60129e-08 -0.414694 0)
(2.13351e-08 -0.414694 0)
(2.54297e-08 -0.414694 0)
(2.81289e-08 -0.414694 0)
(2.86319e-08 -0.414694 0)
(2.69827e-08 -0.414694 0)
(2.18433e-08 -0.414694 0)
(1.35254e-08 -0.414694 0)
(-3.36927e-10 -0.414694 0)
(-1.8676e-08 -0.414694 0)
(-4.62771e-08 -0.414694 0)
(-8.03259e-08 -0.414694 0)
(-1.30656e-07 -0.414694 0)
(-1.90996e-07 -0.414694 0)
(-2.82382e-07 -0.414694 0)
(-3.91139e-07 -0.414694 0)
(-5.65391e-07 -0.414694 0)
(-7.7601e-07 -0.414693 0)
(-1.14361e-06 -0.414693 0)
(-1.6075e-06 -0.414693 0)
(-2.5254e-06 -0.414693 0)
(-3.7744e-06 -0.414693 0)
(-6.76826e-06 -0.414692 0)
(-1.12869e-05 -0.41469 0)
(-2.53807e-05 -0.414686 0)
(-4.64413e-05 -0.414657 0)
(-8.80331e-05 -0.414664 0)
(-6.03136e-05 -0.414928 0)
(5.2593e-05 -0.303017 0)
(8.01651e-05 -0.302784 0)
(4.66506e-05 -0.302776 0)
(2.60983e-05 -0.302805 0)
(1.19075e-05 -0.30281 0)
(7.18062e-06 -0.302813 0)
(4.03864e-06 -0.302813 0)
(2.70729e-06 -0.302814 0)
(1.73185e-06 -0.302814 0)
(1.23446e-06 -0.302814 0)
(8.42018e-07 -0.302814 0)
(6.15691e-07 -0.302814 0)
(4.29258e-07 -0.302814 0)
(3.12234e-07 -0.302814 0)
(2.14223e-07 -0.302814 0)
(1.49159e-07 -0.302814 0)
(9.49474e-08 -0.302814 0)
(5.79952e-08 -0.302814 0)
(2.8025e-08 -0.302814 0)
(7.84012e-09 -0.302814 0)
(-7.55421e-09 -0.302814 0)
(-1.70508e-08 -0.302814 0)
(-2.3192e-08 -0.302814 0)
(-2.56533e-08 -0.302814 0)
(-2.58159e-08 -0.302814 0)
(-2.36813e-08 -0.302814 0)
(-2.00679e-08 -0.302814 0)
(-1.51447e-08 -0.302814 0)
(-9.45082e-09 -0.302814 0)
(-3.19569e-09 -0.302814 0)
(3.15958e-09 -0.302814 0)
(9.42212e-09 -0.302814 0)
(1.51244e-08 -0.302814 0)
(2.00384e-08 -0.302814 0)
(2.3654e-08 -0.302814 0)
(2.57955e-08 -0.302814 0)
(2.56279e-08 -0.302814 0)
(2.31747e-08 -0.302814 0)
(1.70369e-08 -0.302814 0)
(7.5254e-09 -0.302814 0)
(-7.85672e-09 -0.302814 0)
(-2.80271e-08 -0.302814 0)
(-5.80019e-08 -0.302814 0)
(-9.49339e-08 -0.302814 0)
(-1.4913e-07 -0.302814 0)
(-2.14199e-07 -0.302814 0)
(-3.12206e-07 -0.302814 0)
(-4.29224e-07 -0.302814 0)
(-6.15671e-07 -0.302814 0)
(-8.41992e-07 -0.302814 0)
(-1.23443e-06 -0.302814 0)
(-1.73183e-06 -0.302814 0)
(-2.70727e-06 -0.302814 0)
(-4.03861e-06 -0.302813 0)
(-7.18058e-06 -0.302813 0)
(-1.19075e-05 -0.30281 0)
(-2.60982e-05 -0.302805 0)
(-4.66505e-05 -0.302776 0)
(-8.01651e-05 -0.302784 0)
(-5.2593e-05 -0.303017 0)
(4.48986e-05 -0.223176 0)
(7.21551e-05 -0.222965 0)
(4.65892e-05 -0.222956 0)
(2.66963e-05 -0.222986 0)
(1.2502e-05 -0.222991 0)
(7.58432e-06 -0.222994 0)
(4.30326e-06 -0.222994 0)
(2.8904e-06 -0.222995 0)
(1.85812e-06 -0.222995 0)
(1.32688e-06 -0.222995 0)
(9.09492e-07 -0.222995 0)
(6.6718e-07 -0.222995 0)
(4.68402e-07 -0.222995 0)
(3.42937e-07 -0.222995 0)
(2.38194e-07 -0.222995 0)
(1.68281e-07 -0.222995 0)
(1.10126e-07 -0.222995 0)
(7.0212e-08 -0.222995 0)
(3.78049e-08 -0.222995 0)
(1.57322e-08 -0.222995 0)
(-1.22749e-09 -0.222995 0)
(-1.19657e-08 -0.222995 0)
(-1.91431e-08 -0.222995 0)
(-2.24444e-08 -0.222995 0)
(-2.3315e-08 -0.222995 0)
(-2.17698e-08 -0.222995 0)
(-1.86659e-08 -0.222995 0)
(-1.41852e-08 -0.222995 0)
(-8.89344e-09 -0.222995 0)
(-3.01305e-09 -0.222995 0)
(2.97581e-09 -0.222995 0)
(8.86248e-09 -0.222995 0)
(1.41613e-08 -0.222995 0)
(1.86362e-08 -0.222995 0)
(2.17414e-08 -0.222995 0)
(2.32919e-08 -0.222995 0)
(2.24192e-08 -0.222995 0)
(1.91244e-08 -0.222995 0)
(1.19491e-08 -0.222995 0)
(1.19899e-09 -0.222995 0)
(-1.57499e-08 -0.222995 0)
(-3.78089e-08 -0.222995 0)
(-7.02171e-08 -0.222995 0)
(-1.10111e-07 -0.222995 0)
(-1.68253e-07 -0.222995 0)
(-2.38168e-07 -0.222995 0)
(-3.42907e-07 -0.222995 0)
(-4.68368e-07 -0.222995 0)
(-6.67156e-07 -0.222995 0)
(-9.09465e-07 -0.222995 0)
(-1.32684e-06 -0.222995 0)
(-1.8581e-06 -0.222995 0)
(-2.89038e-06 -0.222995 0)
(-4.30323e-06 -0.222994 0)
(-7.58429e-06 -0.222994 0)
(-1.25019e-05 -0.222991 0)
(-2.66963e-05 -0.222986 0)
(-4.65892e-05 -0.222956 0)
(-7.21551e-05 -0.222965 0)
(-4.48986e-05 -0.223176 0)
(3.73697e-05 -0.166532 0)
(6.41514e-05 -0.166339 0)
(4.62667e-05 -0.166329 0)
(2.7173e-05 -0.166358 0)
(1.3067e-05 -0.166364 0)
(7.97782e-06 -0.166367 0)
(4.56757e-06 -0.166367 0)
(3.07443e-06 -0.166368 0)
(1.98617e-06 -0.166368 0)
(1.42081e-06 -0.166368 0)
(9.78411e-07 -0.166368 0)
(7.19846e-07 -0.166368 0)
(5.08586e-07 -0.166368 0)
(3.745e-07 -0.166368 0)
(2.62918e-07 -0.166368 0)
(1.8804e-07 -0.166368 0)
(1.2586e-07 -0.166368 0)
(8.29058e-08 -0.166368 0)
(4.80024e-08 -0.166368 0)
(2.39848e-08 -0.166368 0)
(5.41319e-09 -0.166368 0)
(-6.61082e-09 -0.166369 0)
(-1.48627e-08 -0.166369 0)
(-1.90405e-08 -0.166369 0)
(-2.06522e-08 -0.166369 0)
(-1.97285e-08 -0.166369 0)
(-1.71642e-08 -0.166369 0)
(-1.31552e-08 -0.166369 0)
(-8.29393e-09 -0.166369 0)
(-2.81647e-09 -0.166369 0)
(2.77805e-09 -0.166369 0)
(8.26078e-09 -0.166369 0)
(1.31278e-08 -0.166369 0)
(1.71341e-08 -0.166369 0)
(1.96988e-08 -0.166369 0)
(2.06265e-08 -0.166369 0)
(1.90154e-08 -0.166369 0)
(1.48426e-08 -0.166369 0)
(6.59156e-09 -0.166369 0)
(-5.44141e-09 -0.166368 0)
(-2.40034e-08 -0.166368 0)
(-4.80082e-08 -0.166368 0)
(-8.29093e-08 -0.166368 0)
(-1.25845e-07 -0.166368 0)
(-1.88012e-07 -0.166368 0)
(-2.6289e-07 -0.166368 0)
(-3.7447e-07 -0.166368 0)
(-5.08552e-07 -0.166368 0)
(-7.19819e-07 -0.166368 0)
(-9.78383e-07 -0.166368 0)
(-1.42077e-06 -0.166368 0)
(-1.98615e-06 -0.166368 0)
(-3.07441e-06 -0.166368 0)
(-4.56753e-06 -0.166367 0)
(-7.97779e-06 -0.166367 0)
(-1.30669e-05 -0.166364 0)
(-2.7173e-05 -0.166358 0)
(-4.62667e-05 -0.166329 0)
(-6.41514e-05 -0.166339 0)
(-3.73697e-05 -0.166532 0)
(3.01137e-05 -0.12627 0)
(5.62716e-05 -0.126089 0)
(4.56941e-05 -0.126078 0)