/*--------------------------------*- C++ -*----------------------------------*\
| =========                 |                                                 |
| \\      /  F ield         | foam-extend: Open Source CFD                    |
|  \\    /   O peration     | Version:     4.0                                |
|   \\  /    A nd           | Web:         http://www.foam-extend.org         |
|    \\/     M anipulation  |                                                 |
\*---------------------------------------------------------------------------*/
FoamFile
{
    version     2.0;
    format      ascii;
    class       volScalarField;
    location    "1370";
    object      cPlus;
}
// * * * * * * * * * * * * * * * * * * * * * * * * * * * * * * * * * * * * * //

dimensions      [0 0 0 0 0 0 0];

internalField   nonuniform List<scalar> 
6960
(
0.309627
0.309609
0.309588
0.309567
0.309548
0.309532
0.309518
0.309505
0.309495
0.309486
0.309478
0.309472
0.309466
0.309462
0.309458
0.309455
0.309452
0.30945
0.309449
0.309447
0.309446
0.309445
0.309444
0.309443
0.309443
0.309443
0.309442
0.309442
0.309442
0.309442
0.309442
0.309442
0.309442
0.309442
0.309443
0.309443
0.309443
0.309444
0.309445
0.309446
0.309447
0.309449
0.30945
0.309452
0.309455
0.309458
0.309462
0.309466
0.309472
0.309478
0.309486
0.309495
0.309505
0.309518
0.309532
0.309548
0.309567
0.309588
0.309609
0.309627
0.0961367
0.096125
0.0961109
0.0960973
0.096085
0.0960741
0.0960646
0.0960564
0.0960494
0.0960435
0.0960384
0.0960342
0.0960306
0.0960277
0.0960252
0.0960231
0.0960214
0.09602
0.0960189
0.0960179
0.0960171
0.0960165
0.0960159
0.0960155
0.0960152
0.0960149
0.0960147
0.0960146
0.0960145
0.0960144
0.0960144
0.0960145
0.0960146
0.0960147
0.0960149
0.0960152
0.0960155
0.0960159
0.0960165
0.0960171
0.0960179
0.0960189
0.09602
0.0960214
0.0960231
0.0960252
0.0960277
0.0960306
0.0960342
0.0960384
0.0960435
0.0960494
0.0960564
0.0960646
0.0960741
0.096085
0.0960973
0.0961109
0.096125
0.0961367
0.0360851
0.0360794
0.0360725
0.0360657
0.0360595
0.036054
0.0360492
0.0360451
0.0360416
0.0360386
0.0360361
0.0360339
0.0360321
0.0360306
0.0360294
0.0360284
0.0360275
0.0360268
0.0360262
0.0360257
0.0360253
0.036025
0.0360247
0.0360245
0.0360243
0.0360242
0.0360241
0.036024
0.036024
0.036024
0.036024
0.036024
0.036024
0.0360241
0.0360242
0.0360243
0.0360245
0.0360247
0.036025
0.0360253
0.0360257
0.0360262
0.0360268
0.0360275
0.0360284
0.0360294
0.0360306
0.0360321
0.0360339
0.0360361
0.0360386
0.0360416
0.0360451
0.0360492
0.036054
0.0360595
0.0360657
0.0360725
0.0360794
0.0360851
0.0165351
0.0165334
0.0165309
0.0165284
0.0165261
0.0165241
0.0165223
0.0165208
0.0165194
0.0165183
0.0165174
0.0165166
0.0165159
0.0165153
0.0165149
0.0165145
0.0165142
0.0165139
0.0165137
0.0165135
0.0165133
0.0165132
0.0165131
0.016513
0.016513
0.0165129
0.0165129
0.0165128
0.0165128
0.0165128
0.0165128
0.0165128
0.0165128
0.0165129
0.0165129
0.016513
0.016513
0.0165131
0.0165132
0.0165133
0.0165135
0.0165137
0.0165139
0.0165142
0.0165145
0.0165149
0.0165153
0.0165159
0.0165166
0.0165174
0.0165183
0.0165194
0.0165208
0.0165223
0.0165241
0.0165261
0.0165284
0.0165309
0.0165334
0.0165351
0.00998226
0.00998261
0.00998251
0.0099823
0.00998208
0.00998187
0.00998168
0.00998151
0.00998137
0.00998124
0.00998113
0.00998104
0.00998096
0.00998089
0.00998083
0.00998078
0.00998074
0.00998071
0.00998068
0.00998066
0.00998064
0.00998062
0.00998061
0.00998059
0.00998059
0.00998058
0.00998057
0.00998057
0.00998057
0.00998056
0.00998056
0.00998057
0.00998057
0.00998057
0.00998058
0.00998059
0.00998059
0.00998061
0.00998062
0.00998064
0.00998066
0.00998068
0.00998071
0.00998074
0.00998078
0.00998083
0.00998089
0.00998096
0.00998104
0.00998113
0.00998124
0.00998137
0.00998151
0.00998168
0.00998187
0.00998208
0.0099823
0.00998251
0.00998261
0.00998226
0.00782642
0.00782775
0.00782877
0.00782964
0.0078304
0.00783105
0.00783162
0.0078321
0.0078325
0.00783285
0.00783314
0.00783338
0.00783358
0.00783374
0.00783388
0.00783399
0.00783408
0.00783416
0.00783422
0.00783428
0.00783432
0.00783435
0.00783438
0.0078344
0.00783442
0.00783443
0.00783444
0.00783445
0.00783446
0.00783446
0.00783446
0.00783446
0.00783445
0.00783444
0.00783443
0.00783442
0.0078344
0.00783438
0.00783435
0.00783432
0.00783428
0.00783422
0.00783416
0.00783408
0.00783399
0.00783388
0.00783374
0.00783358
0.00783338
0.00783314
0.00783285
0.0078325
0.0078321
0.00783162
0.00783105
0.0078304
0.00782964
0.00782877
0.00782775
0.00782642
0.00716066
0.00716242
0.00716394
0.00716528
0.00716647
0.0071675
0.00716839
0.00716916
0.00716981
0.00717035
0.00717082
0.0071712
0.00717153
0.00717179
0.00717202
0.0071722
0.00717235
0.00717248
0.00717258
0.00717267
0.00717274
0.00717279
0.00717284
0.00717288
0.00717291
0.00717293
0.00717295
0.00717296
0.00717297
0.00717297
0.00717297
0.00717297
0.00717296
0.00717295
0.00717293
0.00717291
0.00717288
0.00717284
0.00717279
0.00717274
0.00717267
0.00717258
0.00717248
0.00717235
0.0071722
0.00717202
0.00717179
0.00717153
0.0071712
0.00717082
0.00717035
0.00716981
0.00716916
0.00716839
0.0071675
0.00716647
0.00716528
0.00716394
0.00716242
0.00716066
0.0069924
0.00699436
0.00699608
0.00699763
0.006999
0.00700019
0.00700123
0.00700211
0.00700287
0.0070035
0.00700404
0.00700449
0.00700486
0.00700518
0.00700543
0.00700565
0.00700583
0.00700597
0.00700609
0.00700619
0.00700627
0.00700634
0.00700639
0.00700644
0.00700647
0.0070065
0.00700652
0.00700653
0.00700654
0.00700655
0.00700655
0.00700654
0.00700653
0.00700652
0.0070065
0.00700647
0.00700644
0.00700639
0.00700634
0.00700627
0.00700619
0.00700609
0.00700597
0.00700583
0.00700565
0.00700543
0.00700518
0.00700486
0.00700449
0.00700404
0.0070035
0.00700287
0.00700211
0.00700123
0.00700019
0.006999
0.00699763
0.00699608
0.00699436
0.0069924
0.00698808
0.00699013
0.00699195
0.00699359
0.00699504
0.00699631
0.00699741
0.00699835
0.00699915
0.00699983
0.0070004
0.00700087
0.00700127
0.00700161
0.00700188
0.00700211
0.0070023
0.00700246
0.00700258
0.00700269
0.00700278
0.00700285
0.0070029
0.00700295
0.00700299
0.00700302
0.00700304
0.00700305
0.00700306
0.00700307
0.00700307
0.00700306
0.00700305
0.00700304
0.00700302
0.00700299
0.00700295
0.0070029
0.00700285
0.00700278
0.00700269
0.00700258
0.00700246
0.0070023
0.00700211
0.00700188
0.00700161
0.00700127
0.00700087
0.0070004
0.00699983
0.00699915
0.00699835
0.00699741
0.00699631
0.00699504
0.00699359
0.00699195
0.00699013
0.00698808
0.00703852
0.00704063
0.00704251
0.0070442
0.0070457
0.00704701
0.00704814
0.00704911
0.00704994
0.00705064
0.00705123
0.00705172
0.00705213
0.00705248
0.00705276
0.007053
0.00705319
0.00705335
0.00705349
0.0070536
0.00705369
0.00705376
0.00705382
0.00705387
0.00705391
0.00705394
0.00705396
0.00705397
0.00705399
0.00705399
0.00705399
0.00705399
0.00705397
0.00705396
0.00705394
0.00705391
0.00705387
0.00705382
0.00705376
0.00705369
0.0070536
0.00705349
0.00705335
0.00705319
0.007053
0.00705276
0.00705248
0.00705213
0.00705172
0.00705123
0.00705064
0.00704994
0.00704911
0.00704814
0.00704701
0.0070457
0.0070442
0.00704251
0.00704063
0.00703852
0.00710922
0.00711137
0.0071133
0.00711503
0.00711656
0.0071179
0.00711905
0.00712005
0.00712089
0.00712161
0.00712221
0.00712272
0.00712314
0.00712349
0.00712378
0.00712403
0.00712423
0.00712439
0.00712453
0.00712464
0.00712473
0.00712481
0.00712487
0.00712492
0.00712496
0.00712499
0.00712501
0.00712503
0.00712504
0.00712504
0.00712504
0.00712504
0.00712503
0.00712501
0.00712499
0.00712496
0.00712492
0.00712487
0.00712481
0.00712473
0.00712464
0.00712453
0.00712439
0.00712423
0.00712403
0.00712378
0.00712349
0.00712314
0.00712272
0.00712221
0.00712161
0.00712089
0.00712005
0.00711905
0.0071179
0.00711656
0.00711503
0.0071133
0.00711137
0.00710922
0.00718981
0.00719201
0.00719397
0.00719574
0.0071973
0.00719867
0.00719985
0.00720086
0.00720173
0.00720246
0.00720307
0.00720359
0.00720402
0.00720438
0.00720468
0.00720493
0.00720513
0.0072053
0.00720544
0.00720555
0.00720565
0.00720573
0.00720579
0.00720584
0.00720588
0.00720591
0.00720593
0.00720595
0.00720596
0.00720597
0.00720597
0.00720596
0.00720595
0.00720593
0.00720591
0.00720588
0.00720584
0.00720579
0.00720573
0.00720565
0.00720555
0.00720544
0.0072053
0.00720513
0.00720493
0.00720468
0.00720438
0.00720402
0.00720359
0.00720307
0.00720246
0.00720173
0.00720086
0.00719985
0.00719867
0.0071973
0.00719574
0.00719397
0.00719201
0.00718981
0.00727757
0.00727981
0.00728182
0.00728362
0.00728522
0.00728661
0.00728782
0.00728885
0.00728973
0.00729048
0.00729111
0.00729164
0.00729208
0.00729245
0.00729275
0.007293
0.00729321
0.00729339
0.00729353
0.00729364
0.00729374
0.00729382
0.00729388
0.00729393
0.00729398
0.00729401
0.00729403
0.00729405
0.00729406
0.00729407
0.00729407
0.00729406
0.00729405
0.00729403
0.00729401
0.00729398
0.00729393
0.00729388
0.00729382
0.00729374
0.00729364
0.00729353
0.00729339
0.00729321
0.007293
0.00729275
0.00729245
0.00729208
0.00729164
0.00729111
0.00729048
0.00728973
0.00728885
0.00728782
0.00728661
0.00728522
0.00728362
0.00728182
0.00727981
0.00727757
0.00737213
0.00737443
0.00737648
0.00737832
0.00737995
0.00738137
0.00738261
0.00738366
0.00738456
0.00738533
0.00738597
0.00738651
0.00738696
0.00738734
0.00738765
0.00738791
0.00738812
0.0073883
0.00738845
0.00738857
0.00738866
0.00738874
0.00738881
0.00738886
0.0073889
0.00738894
0.00738896
0.00738898
0.00738899
0.007389
0.007389
0.00738899
0.00738898
0.00738896
0.00738894
0.0073889
0.00738886
0.00738881
0.00738874
0.00738866
0.00738857
0.00738845
0.0073883
0.00738812
0.00738791
0.00738765
0.00738734
0.00738696
0.00738651
0.00738597
0.00738533
0.00738456
0.00738366
0.00738261
0.00738137
0.00737995
0.00737832
0.00737648
0.00737443
0.00737213
0.00747391
0.00747626
0.00747836
0.00748024
0.00748191
0.00748336
0.00748462
0.00748571
0.00748663
0.00748741
0.00748807
0.00748862
0.00748908
0.00748947
0.00748979
0.00749005
0.00749027
0.00749045
0.0074906
0.00749073
0.00749083
0.00749091
0.00749098
0.00749103
0.00749107
0.00749111
0.00749113
0.00749115
0.00749116
0.00749117
0.00749117
0.00749116
0.00749115
0.00749113
0.00749111
0.00749107
0.00749103
0.00749098
0.00749091
0.00749083
0.00749073
0.0074906
0.00749045
0.00749027
0.00749005
0.00748979
0.00748947
0.00748908
0.00748862
0.00748807
0.00748741
0.00748663
0.00748571
0.00748462
0.00748336
0.00748191
0.00748024
0.00747836
0.00747626
0.00747391
0.00758359
0.007586
0.00758815
0.00759008
0.00759179
0.00759328
0.00759457
0.00759568
0.00759663
0.00759743
0.0075981
0.00759867
0.00759914
0.00759954
0.00759987
0.00760014
0.00760036
0.00760055
0.0076007
0.00760083
0.00760093
0.00760102
0.00760109
0.00760114
0.00760119
0.00760122
0.00760125
0.00760126
0.00760128
0.00760128
0.00760128
0.00760128
0.00760126
0.00760125
0.00760122
0.00760119
0.00760114
0.00760109
0.00760102
0.00760093
0.00760083
0.0076007
0.00760055
0.00760036
0.00760014
0.00759987
0.00759954
0.00759914
0.00759867
0.0075981
0.00759743
0.00759663
0.00759568
0.00759457
0.00759328
0.00759179
0.00759008
0.00758815
0.007586
0.00758359
0.00770205
0.00770453
0.00770674
0.00770872
0.00771047
0.007712
0.00771333
0.00771447
0.00771544
0.00771626
0.00771695
0.00771753
0.00771802
0.00771843
0.00771876
0.00771904
0.00771927
0.00771947
0.00771962
0.00771975
0.00771986
0.00771995
0.00772002
0.00772007
0.00772012
0.00772015
0.00772018
0.0077202
0.00772021
0.00772022
0.00772022
0.00772021
0.0077202
0.00772018
0.00772015
0.00772012
0.00772007
0.00772002
0.00771995
0.00771986
0.00771975
0.00771962
0.00771947
0.00771927
0.00771904
0.00771876
0.00771843
0.00771802
0.00771753
0.00771695
0.00771626
0.00771544
0.00771447
0.00771333
0.007712
0.00771047
0.00770872
0.00770674
0.00770453
0.00770205
0.00783033
0.00783288
0.00783515
0.00783718
0.00783898
0.00784056
0.00784193
0.0078431
0.00784409
0.00784494
0.00784565
0.00784625
0.00784675
0.00784717
0.00784752
0.00784781
0.00784804
0.00784824
0.0078484
0.00784854
0.00784865
0.00784874
0.00784881
0.00784887
0.00784891
0.00784895
0.00784898
0.007849
0.00784901
0.00784902
0.00784902
0.00784901
0.007849
0.00784898
0.00784895
0.00784891
0.00784887
0.00784881
0.00784874
0.00784865
0.00784854
0.0078484
0.00784824
0.00784804
0.00784781
0.00784752
0.00784717
0.00784675
0.00784625
0.00784565
0.00784494
0.00784409
0.0078431
0.00784193
0.00784056
0.00783898
0.00783718
0.00783515
0.00783288
0.00783033
0.00796963
0.00797226
0.0079746
0.0079767
0.00797855
0.00798018
0.00798158
0.00798279
0.00798382
0.00798469
0.00798543
0.00798604
0.00798656
0.00798699
0.00798735
0.00798765
0.00798789
0.00798809
0.00798826
0.0079884
0.00798851
0.00798861
0.00798868
0.00798874
0.00798879
0.00798883
0.00798886
0.00798888
0.00798889
0.0079889
0.0079889
0.00798889
0.00798888
0.00798886
0.00798883
0.00798879
0.00798874
0.00798868
0.00798861
0.00798851
0.0079884
0.00798826
0.00798809
0.00798789
0.00798765
0.00798735
0.00798699
0.00798656
0.00798604
0.00798543
0.00798469
0.00798382
0.00798279
0.00798158
0.00798018
0.00797855
0.0079767
0.0079746
0.00797226
0.00796963
0.00812139
0.00812411
0.00812653
0.00812869
0.00813061
0.00813229
0.00813374
0.00813499
0.00813605
0.00813695
0.00813771
0.00813835
0.00813888
0.00813933
0.0081397
0.00814001
0.00814026
0.00814047
0.00814064
0.00814078
0.0081409
0.008141
0.00814108
0.00814114
0.00814119
0.00814123
0.00814126
0.00814128
0.00814129
0.0081413
0.0081413
0.00814129
0.00814128
0.00814126
0.00814123
0.00814119
0.00814114
0.00814108
0.008141
0.0081409
0.00814078
0.00814064
0.00814047
0.00814026
0.00814001
0.0081397
0.00813933
0.00813888
0.00813835
0.00813771
0.00813695
0.00813605
0.00813499
0.00813374
0.00813229
0.00813061
0.00812869
0.00812653
0.00812411
0.00812139
0.00828731
0.00829014
0.00829264
0.00829488
0.00829686
0.0082986
0.00830011
0.0083014
0.0083025
0.00830343
0.00830422
0.00830488
0.00830543
0.00830589
0.00830628
0.0083066
0.00830686
0.00830708
0.00830726
0.0083074
0.00830753
0.00830763
0.00830771
0.00830777
0.00830782
0.00830786
0.0083079
0.00830792
0.00830793
0.00830794
0.00830794
0.00830793
0.00830792
0.0083079
0.00830786
0.00830782
0.00830777
0.00830771
0.00830763
0.00830753
0.0083074
0.00830726
0.00830708
0.00830686
0.0083066
0.00830628
0.00830589
0.00830543
0.00830488
0.00830422
0.00830343
0.0083025
0.0083014
0.00830011
0.0082986
0.00829686
0.00829488
0.00829264
0.00829014
0.00828731
0.00846943
0.00847237
0.00847497
0.0084773
0.00847936
0.00848116
0.00848273
0.00848407
0.00848521
0.00848618
0.008487
0.00848769
0.00848826
0.00848874
0.00848914
0.00848947
0.00848975
0.00848997
0.00849016
0.00849031
0.00849044
0.00849054
0.00849063
0.00849069
0.00849075
0.00849079
0.00849082
0.00849085
0.00849086
0.00849087
0.00849087
0.00849086
0.00849085
0.00849082
0.00849079
0.00849075
0.00849069
0.00849063
0.00849054
0.00849044
0.00849031
0.00849016
0.00848997
0.00848975
0.00848947
0.00848914
0.00848874
0.00848826
0.00848769
0.008487
0.00848618
0.00848521
0.00848407
0.00848273
0.00848116
0.00847936
0.0084773
0.00847497
0.00847237
0.00846943
0.00867023
0.00867329
0.008676
0.00867842
0.00868057
0.00868245
0.00868408
0.00868548
0.00868667
0.00868768
0.00868854
0.00868925
0.00868985
0.00869035
0.00869077
0.00869111
0.0086914
0.00869164
0.00869183
0.00869199
0.00869212
0.00869223
0.00869232
0.00869239
0.00869245
0.00869249
0.00869252
0.00869255
0.00869256
0.00869257
0.00869257
0.00869256
0.00869255
0.00869252
0.00869249
0.00869245
0.00869239
0.00869232
0.00869223
0.00869212
0.00869199
0.00869183
0.00869164
0.0086914
0.00869111
0.00869077
0.00869035
0.00868985
0.00868925
0.00868854
0.00868768
0.00868667
0.00868548
0.00868408
0.00868245
0.00868057
0.00867842
0.008676
0.00867329
0.00867023
0.0088927
0.00889591
0.00889874
0.00890128
0.00890353
0.0089055
0.0089072
0.00890866
0.00890991
0.00891097
0.00891186
0.00891261
0.00891324
0.00891376
0.0089142
0.00891456
0.00891486
0.00891511
0.00891531
0.00891548
0.00891562
0.00891573
0.00891582
0.0089159
0.00891596
0.008916
0.00891604
0.00891606
0.00891608
0.00891609
0.00891609
0.00891608
0.00891606
0.00891604
0.008916
0.00891596
0.0089159
0.00891582
0.00891573
0.00891562
0.00891548
0.00891531
0.00891511
0.00891486
0.00891456
0.0089142
0.00891376
0.00891324
0.00891261
0.00891186
0.00891097
0.00890991
0.00890866
0.0089072
0.0089055
0.00890353
0.00890128
0.00889874
0.00889591
0.0088927
0.00914058
0.00914396
0.00914693
0.0091496
0.00915196
0.00915403
0.00915582
0.00915736
0.00915867
0.00915978
0.00916072
0.00916151
0.00916217
0.00916272
0.00916318
0.00916356
0.00916387
0.00916413
0.00916435
0.00916453
0.00916467
0.00916479
0.00916489
0.00916496
0.00916503
0.00916508
0.00916511
0.00916514
0.00916516
0.00916516
0.00916516
0.00916516
0.00916514
0.00916511
0.00916508
0.00916503
0.00916496
0.00916489
0.00916479
0.00916467
0.00916453
0.00916435
0.00916413
0.00916387
0.00916356
0.00916318
0.00916272
0.00916217
0.00916151
0.00916072
0.00915978
0.00915867
0.00915736
0.00915582
0.00915403
0.00915196
0.0091496
0.00914693
0.00914396
0.00914058
0.00941854
0.0094221
0.00942524
0.00942806
0.00943056
0.00943274
0.00943463
0.00943625
0.00943764
0.00943881
0.00943981
0.00944064
0.00944134
0.00944192
0.0094424
0.0094428
0.00944314
0.00944341
0.00944364
0.00944383
0.00944398
0.00944411
0.00944421
0.00944429
0.00944436
0.00944441
0.00944445
0.00944448
0.0094445
0.0094445
0.0094445
0.0094445
0.00944448
0.00944445
0.00944441
0.00944436
0.00944429
0.00944421
0.00944411
0.00944398
0.00944383
0.00944364
0.00944341
0.00944314
0.0094428
0.0094424
0.00944192
0.00944134
0.00944064
0.00943981
0.00943881
0.00943764
0.00943625
0.00943463
0.00943274
0.00943056
0.00942806
0.00942524
0.0094221
0.00941854
0.00973248
0.00973626
0.0097396
0.00974259
0.00974525
0.00974756
0.00974957
0.0097513
0.00975277
0.00975402
0.00975508
0.00975596
0.0097567
0.00975732
0.00975784
0.00975826
0.00975862
0.00975891
0.00975915
0.00975935
0.00975952
0.00975965
0.00975976
0.00975985
0.00975992
0.00975997
0.00976001
0.00976004
0.00976006
0.00976007
0.00976007
0.00976006
0.00976004
0.00976001
0.00975997
0.00975992
0.00975985
0.00975976
0.00975965
0.00975952
0.00975935
0.00975915
0.00975891
0.00975862
0.00975826
0.00975784
0.00975732
0.0097567
0.00975596
0.00975508
0.00975402
0.00975277
0.0097513
0.00974957
0.00974756
0.00974525
0.00974259
0.0097396
0.00973626
0.00973248
0.01009
0.0100941
0.0100977
0.0101009
0.0101037
0.0101062
0.0101083
0.0101102
0.0101118
0.0101131
0.0101142
0.0101152
0.010116
0.0101166
0.0101172
0.0101176
0.010118
0.0101183
0.0101186
0.0101188
0.010119
0.0101191
0.0101192
0.0101193
0.0101194
0.0101195
0.0101195
0.0101195
0.0101196
0.0101196
0.0101196
0.0101196
0.0101195
0.0101195
0.0101195
0.0101194
0.0101193
0.0101192
0.0101191
0.010119
0.0101188
0.0101186
0.0101183
0.010118
0.0101176
0.0101172
0.0101166
0.010116
0.0101152
0.0101142
0.0101131
0.0101118
0.0101102
0.0101083
0.0101062
0.0101037
0.0101009
0.0100977
0.0100941
0.01009
0.0105013
0.0105056
0.0105095
0.0105129
0.010516
0.0105187
0.010521
0.010523
0.0105247
0.0105261
0.0105273
0.0105284
0.0105292
0.0105299
0.0105305
0.010531
0.0105314
0.0105318
0.0105321
0.0105323
0.0105325
0.0105326
0.0105328
0.0105329
0.0105329
0.010533
0.010533
0.0105331
0.0105331
0.0105331
0.0105331
0.0105331
0.0105331
0.010533
0.010533
0.0105329
0.0105329
0.0105328
0.0105326
0.0105325
0.0105323
0.0105321
0.0105318
0.0105314
0.010531
0.0105305
0.0105299
0.0105292
0.0105284
0.0105273
0.0105261
0.0105247
0.010523
0.010521
0.0105187
0.010516
0.0105129
0.0105095
0.0105056
0.0105013
0.0109796
0.0109843
0.0109885
0.0109923
0.0109956
0.0109985
0.0110011
0.0110032
0.0110051
0.0110067
0.011008
0.0110091
0.01101
0.0110108
0.0110115
0.011012
0.0110125
0.0110128
0.0110131
0.0110134
0.0110136
0.0110138
0.0110139
0.011014
0.0110141
0.0110142
0.0110142
0.0110143
0.0110143
0.0110143
0.0110143
0.0110143
0.0110143
0.0110142
0.0110142
0.0110141
0.011014
0.0110139
0.0110138
0.0110136
0.0110134
0.0110131
0.0110128
0.0110125
0.011012
0.0110115
0.0110108
0.01101
0.0110091
0.011008
0.0110067
0.0110051
0.0110032
0.0110011
0.0109985
0.0109956
0.0109923
0.0109885
0.0109843
0.0109796
0.0115435
0.0115487
0.0115534
0.0115575
0.0115612
0.0115644
0.0115672
0.0115696
0.0115716
0.0115734
0.0115748
0.0115761
0.0115771
0.011578
0.0115787
0.0115793
0.0115798
0.0115802
0.0115805
0.0115808
0.011581
0.0115812
0.0115814
0.0115815
0.0115816
0.0115817
0.0115817
0.0115818
0.0115818
0.0115818
0.0115818
0.0115818
0.0115818
0.0115817
0.0115817
0.0115816
0.0115815
0.0115814
0.0115812
0.011581
0.0115808
0.0115805
0.0115802
0.0115798
0.0115793
0.0115787
0.011578
0.0115771
0.0115761
0.0115748
0.0115734
0.0115716
0.0115696
0.0115672
0.0115644
0.0115612
0.0115575
0.0115534
0.0115487
0.0115435
0.012219
0.0122249
0.01223
0.0122347
0.0122388
0.0122424
0.0122455
0.0122482
0.0122505
0.0122525
0.0122541
0.0122555
0.0122567
0.0122576
0.0122584
0.0122591
0.0122596
0.0122601
0.0122605
0.0122608
0.0122611
0.0122613
0.0122614
0.0122616
0.0122617
0.0122618
0.0122618
0.0122619
0.0122619
0.0122619
0.0122619
0.0122619
0.0122619
0.0122618
0.0122618
0.0122617
0.0122616
0.0122614
0.0122613
0.0122611
0.0122608
0.0122605
0.0122601
0.0122596
0.0122591
0.0122584
0.0122576
0.0122567
0.0122555
0.0122541
0.0122525
0.0122505
0.0122482
0.0122455
0.0122424
0.0122388
0.0122347
0.01223
0.0122249
0.012219
0.0130438
0.0130505
0.0130563
0.0130616
0.0130663
0.0130705
0.013074
0.0130771
0.0130797
0.0130819
0.0130838
0.0130854
0.0130867
0.0130878
0.0130887
0.0130895
0.0130901
0.0130907
0.0130911
0.0130914
0.0130917
0.013092
0.0130922
0.0130923
0.0130925
0.0130926
0.0130926
0.0130927
0.0130927
0.0130927
0.0130927
0.0130927
0.0130927
0.0130926
0.0130926
0.0130925
0.0130923
0.0130922
0.013092
0.0130917
0.0130914
0.0130911
0.0130907
0.0130901
0.0130895
0.0130887
0.0130878
0.0130867
0.0130854
0.0130838
0.0130819
0.0130797
0.0130771
0.013074
0.0130705
0.0130663
0.0130616
0.0130563
0.0130505
0.0130438
0.0140733
0.014081
0.0140879
0.0140941
0.0140995
0.0141043
0.0141085
0.0141121
0.0141152
0.0141178
0.0141199
0.0141218
0.0141233
0.0141246
0.0141257
0.0141266
0.0141273
0.0141279
0.0141285
0.0141289
0.0141292
0.0141295
0.0141297
0.0141299
0.0141301
0.0141302
0.0141303
0.0141303
0.0141304
0.0141304
0.0141304
0.0141304
0.0141303
0.0141303
0.0141302
0.0141301
0.0141299
0.0141297
0.0141295
0.0141292
0.0141289
0.0141285
0.0141279
0.0141273
0.0141266
0.0141257
0.0141246
0.0141233
0.0141218
0.0141199
0.0141178
0.0141152
0.0141121
0.0141085
0.0141043
0.0140995
0.0140941
0.0140879
0.014081
0.0140733
0.0153898
0.015399
0.0154072
0.0154146
0.0154212
0.0154269
0.0154319
0.0154362
0.0154399
0.015443
0.0154456
0.0154479
0.0154497
0.0154513
0.0154526
0.0154536
0.0154545
0.0154553
0.0154559
0.0154564
0.0154568
0.0154571
0.0154574
0.0154576
0.0154578
0.0154579
0.015458
0.0154581
0.0154581
0.0154582
0.0154582
0.0154581
0.0154581
0.015458
0.0154579
0.0154578
0.0154576
0.0154574
0.0154571
0.0154568
0.0154564
0.0154559
0.0154553
0.0154545
0.0154536
0.0154526
0.0154513
0.0154497
0.0154479
0.0154456
0.015443
0.0154399
0.0154362
0.0154319
0.0154269
0.0154212
0.0154146
0.0154072
0.015399
0.0153898
0.0171131
0.0171243
0.0171344
0.0171436
0.0171517
0.0171588
0.0171649
0.0171702
0.0171747
0.0171786
0.0171818
0.0171845
0.0171868
0.0171887
0.0171903
0.0171917
0.0171928
0.0171937
0.0171944
0.017195
0.0171955
0.0171959
0.0171963
0.0171966
0.0171968
0.017197
0.0171971
0.0171972
0.0171972
0.0171973
0.0171973
0.0171972
0.0171972
0.0171971
0.017197
0.0171968
0.0171966
0.0171963
0.0171959
0.0171955
0.017195
0.0171944
0.0171937
0.0171928
0.0171917
0.0171903
0.0171887
0.0171868
0.0171845
0.0171818
0.0171786
0.0171747
0.0171702
0.0171649
0.0171588
0.0171517
0.0171436
0.0171344
0.0171243
0.0171131
0.0194075
0.0194216
0.0194343
0.0194458
0.019456
0.0194649
0.0194727
0.0194794
0.0194851
0.0194899
0.019494
0.0194975
0.0195004
0.0195028
0.0195048
0.0195064
0.0195078
0.019509
0.0195099
0.0195107
0.0195113
0.0195119
0.0195123
0.0195126
0.0195129
0.0195131
0.0195133
0.0195134
0.0195135
0.0195135
0.0195135
0.0195135
0.0195134
0.0195133
0.0195131
0.0195129
0.0195126
0.0195123
0.0195119
0.0195113
0.0195107
0.0195099
0.019509
0.0195078
0.0195064
0.0195048
0.0195028
0.0195004
0.0194975
0.019494
0.0194899
0.0194851
0.0194794
0.0194727
0.0194649
0.019456
0.0194458
0.0194343
0.0194216
0.0194075
0.0224742
0.0224921
0.0225083
0.0225229
0.0225359
0.0225473
0.0225572
0.0225658
0.0225731
0.0225792
0.0225845
0.0225889
0.0225926
0.0225956
0.0225982
0.0226003
0.0226021
0.0226036
0.0226048
0.0226058
0.0226066
0.0226073
0.0226078
0.0226083
0.0226086
0.0226089
0.0226091
0.0226093
0.0226094
0.0226094
0.0226094
0.0226094
0.0226093
0.0226091
0.0226089
0.0226086
0.0226083
0.0226078
0.0226073
0.0226066
0.0226058
0.0226048
0.0226036
0.0226021
0.0226003
0.0225982
0.0225956
0.0225926
0.0225889
0.0225845
0.0225792
0.0225731
0.0225658
0.0225572
0.0225473
0.0225359
0.0225229
0.0225083
0.0224921
0.0224742
0.0265164
0.026539
0.0265596
0.0265782
0.0265947
0.0266092
0.0266218
0.0266326
0.0266419
0.0266497
0.0266564
0.026662
0.0266667
0.0266706
0.0266739
0.0266766
0.0266788
0.0266807
0.0266822
0.0266835
0.0266846
0.0266854
0.0266861
0.0266867
0.0266871
0.0266875
0.0266877
0.0266879
0.0266881
0.0266881
0.0266881
0.0266881
0.0266879
0.0266877
0.0266875
0.0266871
0.0266867
0.0266861
0.0266854
0.0266846
0.0266835
0.0266822
0.0266807
0.0266788
0.0266766
0.0266739
0.0266706
0.0266667
0.026662
0.0266564
0.0266497
0.0266419
0.0266326
0.0266218
0.0266092
0.0265947
0.0265782
0.0265596
0.026539
0.0265164
0.0316781
0.0317064
0.031732
0.0317552
0.0317757
0.0317937
0.0318094
0.0318228
0.0318344
0.0318441
0.0318524
0.0318594
0.0318652
0.0318701
0.0318742
0.0318776
0.0318804
0.0318827
0.0318846
0.0318862
0.0318875
0.0318886
0.0318895
0.0318902
0.0318907
0.0318912
0.0318915
0.0318917
0.0318919
0.031892
0.031892
0.0318919
0.0318917
0.0318915
0.0318912
0.0318907
0.0318902
0.0318895
0.0318886
0.0318875
0.0318862
0.0318846
0.0318827
0.0318804
0.0318776
0.0318742
0.0318701
0.0318652
0.0318594
0.0318524
0.0318441
0.0318344
0.0318228
0.0318094
0.0317937
0.0317757
0.0317552
0.031732
0.0317064
0.0316781
0.037986
0.0380202
0.0380511
0.038079
0.0381038
0.0381255
0.0381444
0.0381606
0.0381745
0.0381863
0.0381963
0.0382047
0.0382117
0.0382176
0.0382226
0.0382266
0.03823
0.0382329
0.0382352
0.0382371
0.0382387
0.03824
0.038241
0.0382419
0.0382426
0.0382431
0.0382435
0.0382438
0.038244
0.0382441
0.0382441
0.038244
0.0382438
0.0382435
0.0382431
0.0382426
0.0382419
0.038241
0.03824
0.0382387
0.0382371
0.0382352
0.0382329
0.03823
0.0382266
0.0382226
0.0382176
0.0382117
0.0382047
0.0381963
0.0381863
0.0381745
0.0381606
0.0381444
0.0381255
0.0381038
0.038079
0.0380511
0.0380202
0.037986
0.0453341
0.0453742
0.0454103
0.0454428
0.0454716
0.0454969
0.0455189
0.0455378
0.045554
0.0455678
0.0455794
0.0455892
0.0455975
0.0456044
0.0456101
0.0456149
0.0456189
0.0456222
0.0456249
0.0456272
0.045629
0.0456305
0.0456318
0.0456328
0.0456336
0.0456342
0.0456347
0.045635
0.0456352
0.0456353
0.0456353
0.0456352
0.045635
0.0456347
0.0456342
0.0456336
0.0456328
0.0456318
0.0456305
0.045629
0.0456272
0.0456249
0.0456222
0.0456189
0.0456149
0.0456101
0.0456044
0.0455975
0.0455892
0.0455794
0.0455678
0.045554
0.0455378
0.0455189
0.0454969
0.0454716
0.0454428
0.0454103
0.0453742
0.0453341
0.0535283
0.0535738
0.0536148
0.0536516
0.0536842
0.0537128
0.0537376
0.053759
0.0537773
0.0537929
0.0538061
0.0538172
0.0538265
0.0538344
0.0538409
0.0538463
0.0538508
0.0538546
0.0538577
0.0538602
0.0538624
0.0538641
0.0538655
0.0538666
0.0538676
0.0538683
0.0538688
0.0538692
0.0538695
0.0538696
0.0538696
0.0538695
0.0538692
0.0538688
0.0538683
0.0538676
0.0538666
0.0538655
0.0538641
0.0538624
0.0538602
0.0538577
0.0538546
0.0538508
0.0538463
0.0538409
0.0538344
0.0538265
0.0538172
0.0538061
0.0537929
0.0537773
0.053759
0.0537376
0.0537128
0.0536842
0.0536516
0.0536148
0.0535738
0.0535283
0.0623566
0.0624072
0.0624526
0.0624932
0.0625292
0.0625608
0.0625882
0.0626119
0.0626321
0.0626494
0.062664
0.0626763
0.0626867
0.0626953
0.0627026
0.0627086
0.0627136
0.0627178
0.0627212
0.0627241
0.0627265
0.0627284
0.06273
0.0627312
0.0627322
0.062733
0.0627337
0.0627341
0.0627344
0.0627345
0.0627345
0.0627344
0.0627341
0.0627337
0.062733
0.0627322
0.0627312
0.06273
0.0627284
0.0627265
0.0627241
0.0627212
0.0627178
0.0627136
0.0627086
0.0627026
0.0626953
0.0626867
0.0626763
0.062664
0.0626494
0.0626321
0.0626119
0.0625882
0.0625608
0.0625292
0.0624932
0.0624526
0.0624072
0.0623566
0.0716425
0.0716978
0.0717472
0.0717914
0.0718306
0.0718649
0.0718947
0.0719204
0.0719425
0.0719613
0.0719772
0.0719906
0.072002
0.0720114
0.0720193
0.072026
0.0720314
0.072036
0.0720398
0.0720429
0.0720455
0.0720476
0.0720493
0.0720508
0.0720519
0.0720528
0.0720534
0.0720539
0.0720542
0.0720544
0.0720544
0.0720542
0.0720539
0.0720534
0.0720528
0.0720519
0.0720508
0.0720493
0.0720476
0.0720455
0.0720429
0.0720398
0.072036
0.0720314
0.072026
0.0720193
0.0720114
0.072002
0.0719906
0.0719772
0.0719613
0.0719425
0.0719204
0.0718947
0.0718649
0.0718306
0.0717914
0.0717472
0.0716978
0.0716425
0.0812629
0.0813227
0.0813759
0.0814235
0.0814656
0.0815025
0.0815346
0.0815623
0.0815861
0.0816063
0.0816235
0.081638
0.0816502
0.0816605
0.0816691
0.0816762
0.0816822
0.0816871
0.0816912
0.0816946
0.0816974
0.0816997
0.0817016
0.0817031
0.0817044
0.0817053
0.0817061
0.0817066
0.0817069
0.0817071
0.0817071
0.0817069
0.0817066
0.0817061
0.0817053
0.0817044
0.0817031
0.0817016
0.0816997
0.0816974
0.0816946
0.0816912
0.0816871
0.0816822
0.0816762
0.0816691
0.0816605
0.0816502
0.081638
0.0816235
0.0816063
0.0815861
0.0815623
0.0815346
0.0815025
0.0814656
0.0814235
0.0813759
0.0813227
0.0812629
0.0911412
0.0912051
0.0912621
0.0913129
0.0913578
0.0913973
0.0914316
0.0914612
0.0914866
0.0915083
0.0915267
0.0915423
0.0915554
0.0915664
0.0915756
0.0915833
0.0915898
0.0915951
0.0915995
0.0916032
0.0916062
0.0916087
0.0916108
0.0916124
0.0916137
0.0916148
0.0916156
0.0916162
0.0916165
0.0916167
0.0916167
0.0916165
0.0916162
0.0916156
0.0916148
0.0916137
0.0916124
0.0916108
0.0916087
0.0916062
0.0916032
0.0915995
0.0915951
0.0915898
0.0915833
0.0915756
0.0915664
0.0915554
0.0915423
0.0915267
0.0915083