/*--------------------------------*- C++ -*----------------------------------*\
| =========                 |                                                 |
| \\      /  F ield         | foam-extend: Open Source CFD                    |
|  \\    /   O peration     | Version:     4.0                                |
|   \\  /    A nd           | Web:         http://www.foam-extend.org         |
|    \\/     M anipulation  |                                                 |
\*---------------------------------------------------------------------------*/
FoamFile
{
    version     2.0;
    format      ascii;
    class       volScalarField;
    location    "1680";
    object      cPlus;
}
// * * * * * * * * * * * * * * * * * * * * * * * * * * * * * * * * * * * * * //

dimensions      [0 0 0 0 0 0 0];

internalField   nonuniform List<scalar> 
6960
(
0.269372
0.269337
0.26933
0.269329
0.269331
0.269332
0.269334
0.269335
0.269336
0.269338
0.269339
0.26934
0.269341
0.269341
0.269342
0.269343
0.269343
0.269344
0.269344
0.269345
0.269345
0.269345
0.269346
0.269346
0.269346
0.269346
0.269346
0.269347
0.269347
0.269347
0.269347
0.269347
0.269347
0.269346
0.269346
0.269346
0.269346
0.269346
0.269345
0.269345
0.269345
0.269344
0.269344
0.269343
0.269343
0.269342
0.269341
0.269341
0.26934
0.269339
0.269338
0.269336
0.269335
0.269334
0.269332
0.269331
0.269329
0.26933
0.269337
0.269372
0.105332
0.105337
0.105339
0.10534
0.105341
0.105342
0.105343
0.105344
0.105345
0.105345
0.105346
0.105347
0.105347
0.105348
0.105348
0.105348
0.105349
0.105349
0.105349
0.105349
0.10535
0.10535
0.10535
0.10535
0.10535
0.10535
0.10535
0.10535
0.10535
0.105351
0.105351
0.10535
0.10535
0.10535
0.10535
0.10535
0.10535
0.10535
0.10535
0.10535
0.105349
0.105349
0.105349
0.105349
0.105348
0.105348
0.105348
0.105347
0.105347
0.105346
0.105345
0.105345
0.105344
0.105343
0.105342
0.105341
0.10534
0.105339
0.105337
0.105332
0.0749844
0.075009
0.0750149
0.075017
0.0750182
0.075019
0.0750197
0.0750203
0.0750208
0.0750213
0.0750216
0.075022
0.0750223
0.0750226
0.0750228
0.075023
0.0750232
0.0750234
0.0750235
0.0750237
0.0750238
0.0750239
0.075024
0.075024
0.0750241
0.0750242
0.0750242
0.0750242
0.0750242
0.0750243
0.0750243
0.0750242
0.0750242
0.0750242
0.0750242
0.0750241
0.075024
0.075024
0.0750239
0.0750238
0.0750237
0.0750235
0.0750234
0.0750232
0.075023
0.0750228
0.0750226
0.0750223
0.075022
0.0750216
0.0750213
0.0750208
0.0750203
0.0750197
0.075019
0.0750182
0.075017
0.0750149
0.075009
0.0749844
0.0710597
0.0710939
0.0711019
0.0711045
0.0711058
0.0711066
0.0711072
0.0711077
0.0711081
0.0711085
0.0711089
0.0711091
0.0711094
0.0711096
0.0711098
0.07111
0.0711101
0.0711103
0.0711104
0.0711105
0.0711106
0.0711106
0.0711107
0.0711108
0.0711108
0.0711108
0.0711109
0.0711109
0.0711109
0.0711109
0.0711109
0.0711109
0.0711109
0.0711109
0.0711108
0.0711108
0.0711108
0.0711107
0.0711106
0.0711106
0.0711105
0.0711104
0.0711103
0.0711101
0.07111
0.0711098
0.0711096
0.0711094
0.0711091
0.0711089
0.0711085
0.0711081
0.0711077
0.0711072
0.0711066
0.0711058
0.0711045
0.0711019
0.0710939
0.0710597
0.0738568
0.0738976
0.0739072
0.0739102
0.0739116
0.0739125
0.0739131
0.0739137
0.0739141
0.0739145
0.0739149
0.0739152
0.0739154
0.0739157
0.0739159
0.073916
0.0739162
0.0739163
0.0739164
0.0739166
0.0739166
0.0739167
0.0739168
0.0739168
0.0739169
0.0739169
0.073917
0.073917
0.073917
0.073917
0.073917
0.073917
0.073917
0.073917
0.0739169
0.0739169
0.0739168
0.0739168
0.0739167
0.0739166
0.0739166
0.0739164
0.0739163
0.0739162
0.073916
0.0739159
0.0739157
0.0739154
0.0739152
0.0739149
0.0739145
0.0739141
0.0739137
0.0739131
0.0739125
0.0739116
0.0739102
0.0739072
0.0738976
0.0738568
0.0792951
0.0793428
0.079354
0.0793576
0.0793592
0.0793602
0.079361
0.0793616
0.0793622
0.0793626
0.079363
0.0793634
0.0793637
0.079364
0.0793642
0.0793644
0.0793646
0.0793647
0.0793649
0.079365
0.0793651
0.0793652
0.0793653
0.0793653
0.0793654
0.0793654
0.0793655
0.0793655
0.0793655
0.0793655
0.0793655
0.0793655
0.0793655
0.0793655
0.0793654
0.0793654
0.0793653
0.0793653
0.0793652
0.0793651
0.079365
0.0793649
0.0793647
0.0793646
0.0793644
0.0793642
0.079364
0.0793637
0.0793634
0.079363
0.0793626
0.0793622
0.0793616
0.079361
0.0793602
0.0793592
0.0793576
0.079354
0.0793428
0.0792951
0.0867772
0.0868336
0.0868469
0.0868512
0.0868531
0.0868544
0.0868554
0.0868561
0.0868568
0.0868574
0.0868579
0.0868583
0.0868587
0.086859
0.0868593
0.0868595
0.0868598
0.08686
0.0868601
0.0868603
0.0868604
0.0868605
0.0868606
0.0868607
0.0868608
0.0868608
0.0868609
0.0868609
0.0868609
0.086861
0.086861
0.0868609
0.0868609
0.0868609
0.0868608
0.0868608
0.0868607
0.0868606
0.0868605
0.0868604
0.0868603
0.0868601
0.08686
0.0868598
0.0868595
0.0868593
0.086859
0.0868587
0.0868583
0.0868579
0.0868574
0.0868568
0.0868561
0.0868554
0.0868544
0.0868531
0.0868512
0.0868469
0.0868336
0.0867772
0.0966427
0.0967109
0.096727
0.0967322
0.0967346
0.0967362
0.0967374
0.0967384
0.0967392
0.0967399
0.0967405
0.0967411
0.0967415
0.0967419
0.0967423
0.0967426
0.0967429
0.0967432
0.0967434
0.0967436
0.0967437
0.0967439
0.096744
0.0967441
0.0967442
0.0967443
0.0967443
0.0967444
0.0967444
0.0967444
0.0967444
0.0967444
0.0967444
0.0967443
0.0967443
0.0967442
0.0967441
0.096744
0.0967439
0.0967437
0.0967436
0.0967434
0.0967432
0.0967429
0.0967426
0.0967423
0.0967419
0.0967415
0.0967411
0.0967405
0.0967399
0.0967392
0.0967384
0.0967374
0.0967362
0.0967346
0.0967322
0.096727
0.0967109
0.0966427
0.109542
0.109626
0.109646
0.109652
0.109655
0.109657
0.109658
0.10966
0.109661
0.109662
0.109662
0.109663
0.109664
0.109664
0.109665
0.109665
0.109665
0.109666
0.109666
0.109666
0.109666
0.109667
0.109667
0.109667
0.109667
0.109667
0.109667
0.109667
0.109667
0.109667
0.109667
0.109667
0.109667
0.109667
0.109667
0.109667
0.109667
0.109667
0.109667
0.109666
0.109666
0.109666
0.109666
0.109665
0.109665
0.109665
0.109664
0.109664
0.109663
0.109662
0.109662
0.109661
0.10966
0.109658
0.109657
0.109655
0.109652
0.109646
0.109626
0.109542
0.126159
0.126262
0.126287
0.126295
0.126298
0.126301
0.126303
0.126304
0.126305
0.126306
0.126307
0.126308
0.126309
0.12631
0.12631
0.126311
0.126311
0.126312
0.126312
0.126312
0.126312
0.126313
0.126313
0.126313
0.126313
0.126313
0.126313
0.126313
0.126313
0.126313
0.126313
0.126313
0.126313
0.126313
0.126313
0.126313
0.126313
0.126313
0.126313
0.126312
0.126312
0.126312
0.126312
0.126311
0.126311
0.12631
0.12631
0.126309
0.126308
0.126307
0.126306
0.126305
0.126304
0.126303
0.126301
0.126298
0.126295
0.126287
0.126262
0.126159
0.146947
0.147073
0.147104
0.147114
0.147118
0.147121
0.147123
0.147125
0.147126
0.147128
0.147129
0.14713
0.147131
0.147131
0.147132
0.147133
0.147133
0.147134
0.147134
0.147134
0.147135
0.147135
0.147135
0.147135
0.147136
0.147136
0.147136
0.147136
0.147136
0.147136
0.147136
0.147136
0.147136
0.147136
0.147136
0.147136
0.147135
0.147135
0.147135
0.147135
0.147134
0.147134
0.147134
0.147133
0.147133
0.147132
0.147131
0.147131
0.14713
0.147129
0.147128
0.147126
0.147125
0.147123
0.147121
0.147118
0.147114
0.147104
0.147073
0.146947
0.171894
0.172045
0.172082
0.172094
0.172099
0.172103
0.172105
0.172107
0.172109
0.17211
0.172112
0.172113
0.172114
0.172115
0.172115
0.172116
0.172117
0.172117
0.172118
0.172118
0.172118
0.172119
0.172119
0.172119
0.172119
0.17212
0.17212
0.17212
0.17212
0.17212
0.17212
0.17212
0.17212
0.17212
0.17212
0.172119
0.172119
0.172119
0.172119
0.172118
0.172118
0.172118
0.172117
0.172117
0.172116
0.172115
0.172115
0.172114
0.172113
0.172112
0.17211
0.172109
0.172107
0.172105
0.172103
0.172099
0.172094
0.172082
0.172045
0.171894
0.200442
0.200618
0.200662
0.200675
0.200681
0.200685
0.200688
0.20069
0.200692
0.200694
0.200695
0.200696
0.200697
0.200698
0.200699
0.2007
0.2007
0.200701
0.200701
0.200702
0.200702
0.200702
0.200703
0.200703
0.200703
0.200703
0.200703
0.200704
0.200704
0.200704
0.200704
0.200704
0.200704
0.200703
0.200703
0.200703
0.200703
0.200703
0.200702
0.200702
0.200702
0.200701
0.200701
0.2007
0.2007
0.200699
0.200698
0.200697
0.200696
0.200695
0.200694
0.200692
0.20069
0.200688
0.200685
0.200681
0.200675
0.200662
0.200618
0.200442
0.231631
0.23183
0.23188
0.231895
0.231902
0.231906
0.231908
0.231911
0.231913
0.231914
0.231916
0.231917
0.231918
0.231919
0.23192
0.231921
0.231921
0.231922
0.231922
0.231923
0.231923
0.231924
0.231924
0.231924
0.231924
0.231924
0.231925
0.231925
0.231925
0.231925
0.231925
0.231925
0.231925
0.231925
0.231924
0.231924
0.231924
0.231924
0.231924
0.231923
0.231923
0.231922
0.231922
0.231921
0.231921
0.23192
0.231919
0.231918
0.231917
0.231916
0.231914
0.231913
0.231911
0.231908
0.231906
0.231902
0.231895
0.23188
0.23183
0.231631
0.264378
0.264598
0.264653
0.264671
0.264678
0.264682
0.264685
0.264687
0.264689
0.264691
0.264692
0.264693
0.264694
0.264695
0.264696
0.264697
0.264697
0.264698
0.264698
0.264699
0.264699
0.2647
0.2647
0.2647
0.2647
0.264701
0.264701
0.264701
0.264701
0.264701
0.264701
0.264701
0.264701
0.264701
0.264701
0.2647
0.2647
0.2647
0.2647
0.264699
0.264699
0.264698
0.264698
0.264697
0.264697
0.264696
0.264695
0.264694
0.264693
0.264692
0.264691
0.264689
0.264687
0.264685
0.264682
0.264678
0.264671
0.264653
0.264598
0.264378
0.297734
0.29797
0.298031
0.29805
0.298057
0.298061
0.298064
0.298067
0.298069
0.29807
0.298072
0.298073
0.298074
0.298075
0.298076
0.298076
0.298077
0.298077
0.298078
0.298078
0.298079
0.298079
0.298079
0.29808
0.29808
0.29808
0.29808
0.29808
0.29808
0.29808
0.29808
0.29808
0.29808
0.29808
0.29808
0.29808
0.29808
0.298079
0.298079
0.298079
0.298078
0.298078
0.298077
0.298077
0.298076
0.298076
0.298075
0.298074
0.298073
0.298072
0.29807
0.298069
0.298067
0.298064
0.298061
0.298057
0.29805
0.298031
0.29797
0.297734
0.330994
0.331245
0.331311
0.331331
0.331339
0.331343
0.331346
0.331348
0.33135
0.331351
0.331353
0.331354
0.331355
0.331356
0.331357
0.331357
0.331358
0.331358
0.331359
0.331359
0.331359
0.33136
0.33136
0.33136
0.33136
0.331361
0.331361
0.331361
0.331361
0.331361
0.331361
0.331361
0.331361
0.331361
0.331361
0.33136
0.33136
0.33136
0.33136
0.331359
0.331359
0.331359
0.331358
0.331358
0.331357
0.331357
0.331356
0.331355
0.331354
0.331353
0.331351
0.33135
0.331348
0.331346
0.331343
0.331339
0.331331
0.331311
0.331245
0.330994
0.363703
0.363967
0.364038
0.364059
0.364067
0.364071
0.364074
0.364076
0.364078
0.364079
0.364081
0.364082
0.364083
0.364084
0.364084
0.364085
0.364085
0.364086
0.364086
0.364087
0.364087
0.364087
0.364087
0.364088
0.364088
0.364088
0.364088
0.364088
0.364088
0.364088
0.364088
0.364088
0.364088
0.364088
0.364088
0.364088
0.364088
0.364087
0.364087
0.364087
0.364087
0.364086
0.364086
0.364085
0.364085
0.364084
0.364084
0.364083
0.364082
0.364081
0.364079
0.364078
0.364076
0.364074
0.364071
0.364067
0.364059
0.364038
0.363967
0.363703
0.395594
0.395869
0.395944
0.395967
0.395975
0.395979
0.395982
0.395984
0.395986
0.395987
0.395988
0.395989
0.39599
0.395991
0.395991
0.395992
0.395992
0.395993
0.395993
0.395994
0.395994
0.395994
0.395994
0.395995
0.395995
0.395995
0.395995
0.395995
0.395995
0.395995
0.395995
0.395995
0.395995
0.395995
0.395995
0.395995
0.395995
0.395994
0.395994
0.395994
0.395994
0.395993
0.395993
0.395992
0.395992
0.395991
0.395991
0.39599
0.395989
0.395988
0.395987
0.395986
0.395984
0.395982
0.395979
0.395975
0.395967
0.395944
0.395869
0.395594
0.426521
0.426805
0.426884
0.426908
0.426916
0.42692
0.426923
0.426925
0.426926
0.426928
0.426929
0.42693
0.42693
0.426931
0.426932
0.426932
0.426933
0.426933
0.426933
0.426934
0.426934
0.426934
0.426934
0.426935
0.426935
0.426935
0.426935
0.426935
0.426935
0.426935
0.426935
0.426935
0.426935
0.426935
0.426935
0.426935
0.426935
0.426934
0.426934
0.426934
0.426934
0.426933
0.426933
0.426933
0.426932
0.426932
0.426931
0.42693
0.42693
0.426929
0.426928
0.426926
0.426925
0.426923
0.42692
0.426916
0.426908
0.426884
0.426805
0.426521
0.456407
0.456699
0.456782
0.456807
0.456816
0.45682
0.456822
0.456824
0.456825
0.456827
0.456828
0.456828
0.456829
0.45683
0.45683
0.456831
0.456831
0.456832
0.456832
0.456832
0.456832
0.456833
0.456833
0.456833
0.456833
0.456833
0.456833
0.456833
0.456833
0.456833
0.456833
0.456833
0.456833
0.456833
0.456833
0.456833
0.456833
0.456833
0.456833
0.456832
0.456832
0.456832
0.456832
0.456831
0.456831
0.45683
0.45683
0.456829
0.456828
0.456828
0.456827
0.456825
0.456824
0.456822
0.45682
0.456816
0.456807
0.456782
0.456699
0.456407
0.485219
0.485517
0.485604
0.48563
0.485639
0.485643
0.485646
0.485647
0.485649
0.48565
0.485651
0.485652
0.485652
0.485653
0.485653
0.485654
0.485654
0.485655
0.485655
0.485655
0.485655
0.485656
0.485656
0.485656
0.485656
0.485656
0.485656
0.485656
0.485656
0.485656
0.485656
0.485656
0.485656
0.485656
0.485656
0.485656
0.485656
0.485656
0.485656
0.485655
0.485655
0.485655
0.485655
0.485654
0.485654
0.485653
0.485653
0.485652
0.485652
0.485651
0.48565
0.485649
0.485647
0.485646
0.485643
0.485639
0.48563
0.485604
0.485517
0.485219
0.512946
0.513249
0.51334
0.513367
0.513377
0.513381
0.513383
0.513385
0.513386
0.513387
0.513388
0.513388
0.513389
0.51339
0.51339
0.513391
0.513391
0.513391
0.513391
0.513392
0.513392
0.513392
0.513392
0.513392
0.513392
0.513393
0.513393
0.513393
0.513393
0.513393
0.513393
0.513393
0.513393
0.513393
0.513393
0.513392
0.513392
0.513392
0.513392
0.513392
0.513392
0.513391
0.513391
0.513391
0.513391
0.51339
0.51339
0.513389
0.513388
0.513388
0.513387
0.513386
0.513385
0.513383
0.513381
0.513377
0.513367
0.51334
0.513249
0.512946
0.53959
0.539898
0.539992
0.54002
0.54003
0.540034
0.540036
0.540038
0.540039
0.54004
0.540041
0.540041
0.540042
0.540042
0.540043
0.540043
0.540043
0.540044
0.540044
0.540044
0.540044
0.540045
0.540045
0.540045
0.540045
0.540045
0.540045
0.540045
0.540045
0.540045
0.540045
0.540045
0.540045
0.540045
0.540045
0.540045
0.540045
0.540045
0.540045
0.540044
0.540044
0.540044
0.540044
0.540043
0.540043
0.540043
0.540042
0.540042
0.540041
0.540041
0.54004
0.540039
0.540038
0.540036
0.540034
0.54003
0.54002
0.539992
0.539898
0.53959
0.565162
0.565473
0.56557
0.5656
0.56561
0.565614
0.565616
0.565618
0.565619
0.56562
0.56562
0.565621
0.565621
0.565622
0.565622
0.565623
0.565623
0.565623
0.565623
0.565624
0.565624
0.565624
0.565624
0.565624
0.565624
0.565624
0.565624
0.565624
0.565624
0.565624
0.565624
0.565624
0.565624
0.565624
0.565624
0.565624
0.565624
0.565624
0.565624
0.565624
0.565624
0.565623
0.565623
0.565623
0.565623
0.565622
0.565622
0.565621
0.565621
0.56562
0.56562
0.565619
0.565618
0.565616
0.565614
0.56561
0.5656
0.56557
0.565473
0.565162
0.589678
0.589991
0.590091
0.590122
0.590132
0.590136
0.590139
0.59014
0.590141
0.590142
0.590142
0.590143
0.590143
0.590144
0.590144
0.590145
0.590145
0.590145
0.590145
0.590145
0.590146
0.590146
0.590146
0.590146
0.590146
0.590146
0.590146
0.590146
0.590146
0.590146
0.590146
0.590146
0.590146
0.590146
0.590146
0.590146
0.590146
0.590146
0.590146
0.590146
0.590145
0.590145
0.590145
0.590145
0.590145
0.590144
0.590144
0.590143
0.590143
0.590142
0.590142
0.590141
0.59014
0.590139
0.590136
0.590132
0.590122
0.590091
0.589991
0.589678
0.613157
0.613471
0.613573
0.613606
0.613616
0.613621
0.613623
0.613624
0.613625
0.613626
0.613626
0.613627
0.613627
0.613628
0.613628
0.613628
0.613628
0.613629
0.613629
0.613629
0.613629
0.613629
0.613629
0.613629
0.613629
0.61363
0.61363
0.61363
0.61363
0.61363
0.61363
0.61363
0.61363
0.61363
0.61363
0.613629
0.613629
0.613629
0.613629
0.613629
0.613629
0.613629
0.613629
0.613628
0.613628
0.613628
0.613628
0.613627
0.613627
0.613626
0.613626
0.613625
0.613624
0.613623
0.613621
0.613616
0.613606
0.613573
0.613471
0.613157
0.635619
0.635934
0.636039
0.636072
0.636083
0.636088
0.63609
0.636091
0.636092
0.636092
0.636093
0.636093
0.636094
0.636094
0.636095
0.636095
0.636095
0.636095
0.636095
0.636095
0.636096
0.636096
0.636096
0.636096
0.636096
0.636096
0.636096
0.636096
0.636096
0.636096
0.636096
0.636096
0.636096
0.636096
0.636096
0.636096
0.636096
0.636096
0.636096
0.636096
0.636095
0.636095
0.636095
0.636095
0.636095
0.636095
0.636094
0.636094
0.636093
0.636093
0.636092
0.636092
0.636091
0.63609
0.636088
0.636083
0.636072
0.636039
0.635934
0.635619
0.657088
0.657402
0.65751
0.657545
0.657556
0.65756
0.657562
0.657563
0.657564
0.657565
0.657566
0.657566
0.657566
0.657567
0.657567
0.657567
0.657567
0.657567
0.657568
0.657568
0.657568
0.657568
0.657568
0.657568
0.657568
0.657568
0.657568
0.657568
0.657568
0.657568
0.657568
0.657568
0.657568
0.657568
0.657568
0.657568
0.657568
0.657568
0.657568
0.657568
0.657568
0.657568
0.657567
0.657567
0.657567
0.657567
0.657567
0.657566
0.657566
0.657566
0.657565
0.657564
0.657563
0.657562
0.65756
0.657556
0.657545
0.65751
0.657402
0.657088
0.677589
0.677901
0.67801
0.678046
0.678058
0.678063
0.678065
0.678066
0.678067
0.678067
0.678068
0.678068
0.678068
0.678069
0.678069
0.678069
0.678069
0.67807
0.67807
0.67807
0.67807
0.67807
0.67807
0.67807
0.67807
0.67807
0.67807
0.67807
0.67807
0.67807
0.67807
0.67807
0.67807
0.67807
0.67807
0.67807
0.67807
0.67807
0.67807
0.67807
0.67807
0.67807
0.67807
0.678069
0.678069
0.678069
0.678069
0.678068
0.678068
0.678068
0.678067
0.678067
0.678066
0.678065
0.678063
0.678058
0.678046
0.67801
0.677901
0.677589
0.697144
0.697454
0.697566
0.697603
0.697615
0.697619
0.697621
0.697623
0.697623
0.697624
0.697624
0.697625
0.697625
0.697625
0.697625
0.697626
0.697626
0.697626
0.697626
0.697626
0.697626
0.697626
0.697626
0.697626
0.697626
0.697627
0.697627
0.697627
0.697627
0.697627
0.697627
0.697627
0.697627
0.697627
0.697627
0.697626
0.697626
0.697626
0.697626
0.697626
0.697626
0.697626
0.697626
0.697626
0.697626
0.697625
0.697625
0.697625
0.697625
0.697624
0.697624
0.697623
0.697623
0.697621
0.697619
0.697615
0.697603
0.697566
0.697454
0.697144
0.71578
0.716088
0.7162
0.716238
0.716251
0.716256
0.716258
0.716259
0.71626
0.71626
0.71626
0.716261
0.716261
0.716261
0.716261
0.716262
0.716262
0.716262
0.716262
0.716262
0.716262
0.716262
0.716262
0.716262
0.716262
0.716262
0.716263
0.716263
0.716263
0.716263
0.716263
0.716263
0.716263
0.716263
0.716262
0.716262
0.716262
0.716262
0.716262
0.716262
0.716262
0.716262
0.716262
0.716262
0.716262
0.716261
0.716261
0.716261
0.716261
0.71626
0.71626
0.71626
0.716259
0.716258
0.716256
0.716251
0.716238
0.7162
0.716088
0.71578
0.733522
0.733826
0.73394
0.733979
0.733993
0.733997
0.733999
0.734
0.734001
0.734002
0.734002
0.734002
0.734002
0.734003
0.734003
0.734003
0.734003
0.734003
0.734003
0.734003
0.734004
0.734004
0.734004
0.734004
0.734004
0.734004
0.734004
0.734004
0.734004
0.734004
0.734004
0.734004
0.734004
0.734004
0.734004
0.734004
0.734004
0.734004
0.734004
0.734004
0.734003
0.734003
0.734003
0.734003
0.734003
0.734003
0.734003
0.734002
0.734002
0.734002
0.734002
0.734001
0.734
0.733999
0.733997
0.733993
0.733979
0.73394
0.733826
0.733522
0.750396
0.750696
0.750811
0.750852
0.750865
0.75087
0.750872
0.750873
0.750874
0.750874
0.750875
0.750875
0.750875
0.750875
0.750876
0.750876
0.750876
0.750876
0.750876
0.750876
0.750876
0.750876
0.750876
0.750876
0.750876
0.750876
0.750876
0.750876
0.750876
0.750876
0.750876
0.750876
0.750876
0.750876
0.750876
0.750876
0.750876
0.750876
0.750876
0.750876
0.750876
0.750876
0.750876
0.750876
0.750876
0.750876
0.750875
0.750875
0.750875
0.750875
0.750874
0.750874
0.750873
0.750872
0.75087
0.750865
0.750852
0.750811
0.750696
0.750396
0.766429
0.766724
0.76684
0.766881
0.766896
0.766901
0.766903
0.766904
0.766904
0.766905
0.766905
0.766905
0.766905
0.766906
0.766906
0.766906
0.766906
0.766906
0.766906
0.766906
0.766906
0.766906
0.766906
0.766906
0.766907
0.766907
0.766907
0.766907
0.766907
0.766907
0.766907
0.766907
0.766907
0.766907
0.766907
0.766907
0.766906
0.766906
0.766906
0.766906
0.766906
0.766906
0.766906
0.766906
0.766906
0.766906
0.766906
0.766905
0.766905
0.766905
0.766905
0.766904
0.766904
0.766903
0.766901
0.766896
0.766881
0.76684
0.766724
0.766429
0.781646
0.781937
0.782053
0.782095
0.78211
0.782115
0.782117
0.782118
0.782119
0.782119
0.782119
0.782119
0.78212
0.78212
0.78212
0.78212
0.78212
0.78212
0.78212
0.78212
0.78212
0.782121
0.782121
0.782121
0.782121
0.782121
0.782121
0.782121
0.782121
0.782121
0.782121
0.782121
0.782121
0.782121
0.782121
0.782121
0.782121
0.782121
0.782121
0.78212
0.78212
0.78212
0.78212
0.78212
0.78212
0.78212
0.78212
0.78212
0.782119
0.782119
0.782119
0.782119
0.782118
0.782117
0.782115
0.78211
0.782095
0.782053
0.781937
0.781646
0.796075
0.796359
0.796476
0.796519
0.796534
0.79654
0.796542
0.796543
0.796543
0.796544
0.796544
0.796544
0.796544
0.796544
0.796545
0.796545
0.796545
0.796545
0.796545
0.796545
0.796545
0.796545
0.796545
0.796545
0.796545
0.796545
0.796545
0.796545
0.796545
0.796545
0.796545
0.796545
0.796545
0.796545
0.796545
0.796545
0.796545
0.796545
0.796545
0.796545
0.796545
0.796545
0.796545
0.796545
0.796545
0.796545
0.796544
0.796544
0.796544
0.796544
0.796544
0.796543
0.796543
0.796542
0.79654
0.796534
0.796519
0.796476
0.796359
0.796075
0.809741
0.81002
0.810136
0.81018
0.810195
0.810201
0.810203
0.810204
0.810205
0.810205
0.810205
0.810206
0.810206
0.810206
0.810206
0.810206
0.810206
0.810206
0.810206
0.810206
0.810206
0.810207
0.810207
0.810207
0.810207
0.810207
0.810207
0.810207
0.810207
0.810207
0.810207
0.810207
0.810207
0.810207
0.810207
0.810207
0.810207
0.810207
0.810207
0.810206
0.810206
0.810206
0.810206
0.810206
0.810206
0.810206
0.810206
0.810206
0.810206
0.810205
0.810205
0.810205
0.810204
0.810203
0.810201
0.810195
0.81018
0.810136
0.81002
0.809741
0.822671
0.822943
0.823059
0.823104
0.82312
0.823126
0.823128
0.823129
0.82313
0.82313
0.823131
0.823131
0.823131
0.823131
0.823131
0.823131
0.823131
0.823131
0.823131
0.823131
0.823131
0.823131
0.823131
0.823132
0.823132
0.823132
0.823132
0.823132
0.823132
0.823132
0.823132
0.823132
0.823132
0.823132
0.823132
0.823132
0.823132
0.823131
0.823131
0.823131
0.823131
0.823131
0.823131
0.823131
0.823131
0.823131
0.823131
0.823131
0.823131
0.823131
0.82313
0.82313
0.823129
0.823128
0.823126
0.82312
0.823104
0.823059
0.822943
0.822671
0.834892
0.835157
0.835273
0.835318
0.835335
0.835341
0.835343
0.835344
0.835345
0.835345
0.835345
0.835346
0.835346
0.835346
0.835346
0.835346
0.835346
0.835346
0.835346
0.835346
0.835346
0.835346
0.835346
0.835346
0.835346
0.835346
0.835346
0.835346
0.835346
0.835346
0.835346
0.835346
0.835346
0.835346
0.835346
0.835346
0.835346
0.835346
0.835346
0.835346
0.835346
0.835346
0.835346
0.835346
0.835346
0.835346
0.835346
0.835346
0.835346
0.835345
0.835345
0.835345
0.835344
0.835343
0.835341
0.835335
0.835318
0.835273
0.835157
0.834892
0.84643
0.846688
0.846803
0.846849
0.846866
0.846872
0.846875
0.846876
0.846876
0.846877
0.846877
0.846877
0.846877
0.846877
0.846877
0.846877
0.846877
0.846877
0.846877
0.846877
0.846877
0.846878
0.846878
0.846878
0.846878
0.846878
0.846878
0.846878
0.846878
0.846878
0.846878
0.846878
0.846878
0.846878
0.846878
0.846878
0.846878
0.846878
0.846878
0.846877
0.846877
0.846877
0.846877
0.846877
0.846877
0.846877
0.846877
0.846877
0.846877
0.846877
0.846877
0.846876
0.846876
0.846875
0.846872
0.846866
0.846849
0.846803
0.846688
0.84643
0.857311
0.857562
0.857675
0.857722
0.857739
0.857746
0.857748
0.85775
0.85775
0.85775
0.85775
0.857751
0.857751
0.857751
0.857751
0.857751
0.857751
0.857751
0.857751
0.857751
0.857751
0.857751
0.857751
0.857751
0.857751
0.857751
0.857751
0.857751
0.857751
0.857751
0.857751
0.857751
0.857751
0.857751
0.857751
0.857751
0.857751
0.857751
0.857751
0.857751
0.857751
0.857751
0.857751
0.857751
0.857751
0.857751
0.857751
0.857751
0.857751
0.85775
0.85775
0.85775
0.85775
0.857748
0.857746
0.857739
0.857722
0.857675
0.857562
0.857311
0.867561
0.867804
0.867916
0.867963
0.867981
0.867988
0.867991
0.867992
0.867992
0.867993
0.867993
0.867993
0.867993
0.867993
0.867993
0.867993
0.867993
0.867993
0.867993
0.867993
0.867993
0.867993
0.867993
0.867993
0.867993
0.867993
0.867993
0.867993
0.867993
0.867993
0.867993
0.867993
0.867993
0.867993
0.867993
0.867993
0.867993
0.867993
0.867993
0.867993
0.867993
0.867993
0.867993
0.867993
0.867993
0.867993
0.867993
0.867993
0.867993
0.867993
0.867993
0.867992
0.867992
0.867991
0.867988
0.867981
0.867963
0.867916
0.867804
0.867561
0.877205
0.877441
0.877552
0.877599
0.877617
0.877624
0.877627
0.877628
0.877629
0.877629
0.877629
0.877629
0.877629
0.877629
0.87763
0.87763
0.87763
0.87763
0.87763
0.87763
0.87763
0.87763
0.87763
0.87763
0.87763
0.87763
0.87763
0.87763
0.87763
0.87763
0.87763
0.87763
0.87763
0.87763
0.87763
0.87763
0.87763
0.87763
0.87763
0.87763
0.87763
0.87763
0.87763
0.87763
0.87763
0.87763
0.877629
0.877629
0.877629
0.877629
0.877629
0.877629
0.877628
0.877627
0.877624
0.877617
0.877599
0.877552
0.877441
0.877205
0.88627
0.886498
0.886607
0.886654
0.886673
0.88668
0.886683
0.886684
0.886685
0.886685
0.886685
0.886686
0.886686
0.886686
0.886686
0.886686
0.886686
0.886686
0.886686
0.886686
0.886686
0.886686
0.886686
0.886686
0.886686
0.886686
0.886686
0.886686
0.886686
0.886686
0.886686
0.886686
0.886686
0.886686
0.886686
0.886686
0.886686
0.886686
0.886686
0.886686
0.886686
0.886686
0.886686
0.886686
0.886686
0.886686
0.886686
0.886686
0.886686
0.886685
0.886685
0.886685
0.886684
0.886683
0.88668
0.886673
0.886654
0.886607
0.886498
0.88627
0.89478
0.895
0.895107
0.895154
0.895174
0.895181
0.895184
0.895185
0.895186
0.895186
0.895186
0.895187
0.895187
0.895187
0.895187
0.895187
0.895187
0.895187
0.895187
0.895187
0.895187
0.895187
0.895187
0.895187
0.895187
0.895187
0.895187
0.895187
0.895187
0.895187
0.895187
0.895187
0.895187
0.895187
0.895187
0.895187
0.895187
0.895187
0.895187
0.895187
0.895187
0.895187
0.895187
0.895187
0.895187
0.895187
0.895187
0.895187
0.895187
0.895186
0.895186
0.895186
0.895185
0.895184
0.895181
0.895174
0.895154
0.895107
0.895
0.89478
0.90276
0.902971
0.903077
0.903124
0.903144
0.903152
0.903155
0.903156
0.903157
0.903157
0.903157
0.903157
0.903157
0.903157
0.903157
0.903157
0.903157
0.903157
0.903157
0.903157
0.903157
0.903157
0.903157
0.903157
0.903157
0.903157
0.903157
0.903157
0.903157
0.903158
0.903158
0.903157
0.903157
0.903157
0.903157
0.903157
0.903157
0.903157
0.903157
0.903157
0.903157
0.903157
0.903157
0.903157
0.903157
0.903157
0.903157
0.903157
0.903157
0.903157
0.903157
0.903157
0.903156
0.903155
0.903152
0.903144
0.903124
0.903077
0.902971
0.90276
0.910235
0.910438
0.910541
0.910588
0.910608
0.910616
0.910619
0.91062
0.910621
0.910621
0.910621
0.910622
0.910622
0.910622
0.910622
0.910622
0.910622
0.910622
0.910622
0.910622
0.910622
0.910622
0.910622
0.910622
0.910622
0.910622
0.910622
0.910622
0.910622
0.910622
0.910622
0.910622
0.910622
0.910622
0.910622
0.910622
0.910622
0.910622
0.910622
0.910622
0.910622
0.910622
0.910622
0.910622
0.910622
0.910622
0.910622
0.910622
0.910622
0.910621
0.910621
0.910621
0.91062
0.910619
0.910616
0.910608
0.910588
0.910541
0.910438
0.910235
0.917227
0.917422
0.917522
0.917569
0.917589
0.917598
0.917601
0.917603
0.917603
0.917604
0.917604
0.917604
0.917604
0.917604
0.917604
0.917604
0.917604
0.917604
0.917604
0.917604
0.917604
0.917604
0.917604
0.917604
0.917604
0.917604
0.917604
0.917604
0.917604
0.917604
0.917604
0.917604
0.917604
0.917604
0.917604
0.917604
0.917604
0.917604
0.917604
0.917604
0.917604
0.917604
0.917604
0.917604
0.917604
0.917604
0.917604
0.917604
0.917604
0.917604
0.917604
0.917603
0.917603
0.917601
0.917598
0.917589
0.917569
0.917522
0.917422
0.917227
0.923761
0.923947
0.924045
0.924092
0.924112
0.924121
0.924124
0.924126
0.924126
0.924127
0.924127
0.924127
0.924127
0.924127
0.924127
0.924127
0.924127
0.924127
0.924127
0.924127
0.924127
0.924127
0.924127
0.924127
0.924127
0.924127
0.924127
0.924127
0.924127
0.924127
0.924127
0.924127
0.924127
0.924127
0.924127
0.924127
0.924127
0.924127
0.924127
0.924127
0.924127
0.924127
0.924127
0.924127
0.924127
0.924127
0.924127
0.924127
0.924127
0.924127
0.924127
0.924126
0.924126
0.924124
0.924121
0.924112
0.924092
0.924045
0.923947
0.923761
0.929859
0.930037
0.930132
0.930178
0.930199
0.930208
0.930211
0.930213
0.930214
0.930214
0.930214
0.930214
0.930214
0.930214
0.930214
0.930214
0.930214
0.930214
0.930214
0.930214
0.930214
0.930214
0.930214
0.930214
0.930214
0.930214
0.930214
0.930214
0.930214
0.930214
0.930214
0.930214
0.930214
0.930214
0.930214
0.930214
0.930214
0.930214
0.930214
0.930214
0.930214
0.930214
0.930214
0.930214
0.930214
0.930214
0.930214
0.930214
0.930214
0.930214
0.930214
0.930214
0.930213
0.930211
0.930208
0.930199
0.930178
0.930132
0.930037
0.929859
0.935543
0.935713
0.935805
0.935851
0.935872
0.935881
0.935885
0.935886
0.935887
0.935887
0.935887
0.935888
0.935888
0.935888
0.935888
0.935888
0.935888
0.935888
0.935888
0.935888
0.935888
0.935888
0.935888
0.935888
0.935888
0.935888
0.935888
0.935888
0.935888
0.935888
0.935888
0.935888
0.935888
0.935888
0.935888
0.935888
0.935888
0.935888
0.935888
0.935888
0.935888
0.935888
0.935888
0.935888
0.935888
0.935888
0.935888
0.935888
0.935888
0.935887
0.935887
0.935887
0.935886
0.935885
0.935881
0.935872
0.935851
0.935805
0.935713
0.935543
0.940835
0.940997
0.941087
0.941131
0.941152
0.941162
0.941166
0.941167
0.941168
0.941168
0.941169
0.941169
0.941169
0.941169
0.941169
0.941169
0.941169
0.941169
0.941169
0.941169
0.941169
0.941169
0.941169
0.941169
0.941169
0.941169
0.941169
0.941169
0.941169
0.941169
0.941169
0.941169
0.941169
0.941169
0.941169
0.941169
0.941169
0.941169
0.941169
0.941169
0.941169
0.941169
0.941169
0.941169
0.941169
0.941169
0.941169
0.941169
0.941169
0.941169
0.941168
0.941168
0.941167
0.941166
0.941162
0.941152
0.941131
0.941087
0.940997
0.940835
0.945756
0.94591
0.945997
0.946041
0.946062
0.946071
0.946076
0.946077
0.946078
0.946078
0.946079
0.946079
0.946079
0.946079
0.946079
0.946079
0.946079
0.946079
0.946079
0.946079
0.946079
0.946079
0.946079
0.946079
0.946079
0.946079
0.946079
0.946079
0.946079
0.946079
0.946079
0.946079
0.946079
0.946079
0.946079
0.946079
0.946079
0.946079
0.946079
0.946079
0.946079
0.946079
0.946079
0.946079
0.946079
0.946079
0.946079
0.946079
0.946079
0.946079
0.946078
0.946078
0.946077
0.946076
0.946071
0.946062
0.946041
0.945997