/*--------------------------------*- C++ -*----------------------------------*\
| =========                 |                                                 |
| \\      /  F ield         | foam-extend: Open Source CFD                    |
|  \\    /   O peration     | Version:     4.0                                |
|   \\  /    A nd           | Web:         http://www.foam-extend.org         |
|    \\/     M anipulation  |                                                 |
\*---------------------------------------------------------------------------*/
FoamFile
{
    version     2.0;
    format      ascii;
    class       volScalarField;
    location    "960";
    object      psiE;
}
// * * * * * * * * * * * * * * * * * * * * * * * * * * * * * * * * * * * * * //

dimensions      [0 0 0 0 0 0 0];

internalField   nonuniform List<scalar> 
6960
(
0.339847
0.339854
0.339863
0.339872
0.33988
0.339887
0.339894
0.3399
0.339905
0.33991
0.339914
0.339918
0.339921
0.339924
0.339927
0.339929
0.339931
0.339933
0.339934
0.339935
0.339936
0.339937
0.339938
0.339939
0.339939
0.33994
0.33994
0.33994
0.339941
0.339941
0.339941
0.339941
0.33994
0.33994
0.33994
0.339939
0.339939
0.339938
0.339937
0.339936
0.339935
0.339934
0.339933
0.339931
0.339929
0.339927
0.339924
0.339921
0.339918
0.339914
0.33991
0.339905
0.3399
0.339894
0.339887
0.33988
0.339872
0.339863
0.339854
0.339847
0.856453
0.856482
0.856516
0.856551
0.856584
0.856614
0.856641
0.856665
0.856687
0.856706
0.856723
0.856738
0.856751
0.856762
0.856772
0.856781
0.856788
0.856795
0.856801
0.856805
0.85681
0.856813
0.856816
0.856819
0.856821
0.856822
0.856823
0.856824
0.856825
0.856825
0.856825
0.856825
0.856824
0.856823
0.856822
0.856821
0.856819
0.856816
0.856813
0.85681
0.856805
0.856801
0.856795
0.856788
0.856781
0.856772
0.856762
0.856751
0.856738
0.856723
0.856706
0.856687
0.856665
0.856641
0.856614
0.856584
0.856551
0.856516
0.856482
0.856453
1.32895
1.329
1.32907
1.32914
1.32921
1.32926
1.32932
1.32936
1.32941
1.32944
1.32948
1.32951
1.32953
1.32955
1.32957
1.32959
1.3296
1.32962
1.32963
1.32964
1.32964
1.32965
1.32966
1.32966
1.32967
1.32967
1.32967
1.32967
1.32967
1.32967
1.32967
1.32967
1.32967
1.32967
1.32967
1.32967
1.32966
1.32966
1.32965
1.32964
1.32964
1.32963
1.32962
1.3296
1.32959
1.32957
1.32955
1.32953
1.32951
1.32948
1.32944
1.32941
1.32936
1.32932
1.32926
1.32921
1.32914
1.32907
1.329
1.32895
1.79115
1.79124
1.79135
1.79145
1.79155
1.79164
1.79173
1.7918
1.79187
1.79193
1.79198
1.79202
1.79206
1.7921
1.79213
1.79215
1.79217
1.79219
1.79221
1.79222
1.79224
1.79225
1.79226
1.79226
1.79227
1.79227
1.79228
1.79228
1.79228
1.79228
1.79228
1.79228
1.79228
1.79228
1.79227
1.79227
1.79226
1.79226
1.79225
1.79224
1.79222
1.79221
1.79219
1.79217
1.79215
1.79213
1.7921
1.79206
1.79202
1.79198
1.79193
1.79187
1.7918
1.79173
1.79164
1.79155
1.79145
1.79135
1.79124
1.79115
2.25549
2.25562
2.25576
2.25591
2.25605
2.25618
2.25629
2.2564
2.25649
2.25657
2.25664
2.2567
2.25676
2.2568
2.25685
2.25688
2.25691
2.25694
2.25696
2.25698
2.257
2.25701
2.25702
2.25704
2.25704
2.25705
2.25705
2.25706
2.25706
2.25706
2.25706
2.25706
2.25706
2.25705
2.25705
2.25704
2.25704
2.25702
2.25701
2.257
2.25698
2.25696
2.25694
2.25691
2.25688
2.25685
2.2568
2.25676
2.2567
2.25664
2.25657
2.25649
2.2564
2.25629
2.25618
2.25605
2.25591
2.25576
2.25562
2.25549
2.72677
2.72693
2.72712
2.72731
2.72749
2.72766
2.7278
2.72794
2.72805
2.72816
2.72825
2.72833
2.7284
2.72846
2.72852
2.72856
2.7286
2.72864
2.72867
2.72869
2.72871
2.72873
2.72875
2.72876
2.72877
2.72878
2.72878
2.72879
2.72879
2.72879
2.72879
2.72879
2.72879
2.72878
2.72878
2.72877
2.72876
2.72875
2.72873
2.72871
2.72869
2.72867
2.72864
2.7286
2.72856
2.72852
2.72846
2.7284
2.72833
2.72825
2.72816
2.72805
2.72794
2.7278
2.72766
2.72749
2.72731
2.72712
2.72693
2.72677
3.20684
3.20703
3.20727
3.2075
3.20772
3.20793
3.20811
3.20827
3.20842
3.20854
3.20866
3.20876
3.20884
3.20892
3.20898
3.20904
3.20909
3.20913
3.20917
3.2092
3.20923
3.20925
3.20927
3.20928
3.2093
3.20931
3.20931
3.20932
3.20932
3.20933
3.20933
3.20932
3.20932
3.20931
3.20931
3.2093
3.20928
3.20927
3.20925
3.20923
3.2092
3.20917
3.20913
3.20909
3.20904
3.20898
3.20892
3.20884
3.20876
3.20866
3.20854
3.20842
3.20827
3.20811
3.20793
3.20772
3.2075
3.20727
3.20703
3.20684
3.69639
3.69662
3.6969
3.69718
3.69744
3.69768
3.6979
3.69809
3.69827
3.69842
3.69855
3.69867
3.69877
3.69886
3.69894
3.69901
3.69907
3.69912
3.69916
3.6992
3.69923
3.69926
3.69928
3.6993
3.69931
3.69933
3.69933
3.69934
3.69935
3.69935
3.69935
3.69935
3.69934
3.69933
3.69933
3.69931
3.6993
3.69928
3.69926
3.69923
3.6992
3.69916
3.69912
3.69907
3.69901
3.69894
3.69886
3.69877
3.69867
3.69855
3.69842
3.69827
3.69809
3.6979
3.69768
3.69744
3.69718
3.6969
3.69662
3.69639
4.19567
4.19593
4.19626
4.19658
4.19689
4.19717
4.19742
4.19764
4.19784
4.19802
4.19818
4.19831
4.19843
4.19854
4.19863
4.19871
4.19877
4.19883
4.19888
4.19892
4.19896
4.19899
4.19902
4.19904
4.19906
4.19907
4.19908
4.19909
4.1991
4.1991
4.1991
4.1991
4.19909
4.19908
4.19907
4.19906
4.19904
4.19902
4.19899
4.19896
4.19892
4.19888
4.19883
4.19877
4.19871
4.19863
4.19854
4.19843
4.19831
4.19818
4.19802
4.19784
4.19764
4.19742
4.19717
4.19689
4.19658
4.19626
4.19593
4.19567
4.70471
4.70501
4.70538
4.70576
4.7061
4.70642
4.70671
4.70697
4.70719
4.7074
4.70757
4.70773
4.70787
4.70798
4.70809
4.70818
4.70825
4.70832
4.70838
4.70843
4.70847
4.7085
4.70853
4.70856
4.70858
4.7086
4.70861
4.70862
4.70862
4.70863
4.70863
4.70862
4.70862
4.70861
4.7086
4.70858
4.70856
4.70853
4.7085
4.70847
4.70843
4.70838
4.70832
4.70825
4.70818
4.70809
4.70798
4.70787
4.70773
4.70757
4.7074
4.70719
4.70697
4.70671
4.70642
4.7061
4.70576
4.70538
4.70501
4.70471
5.22349
5.22383
5.22425
5.22466
5.22505
5.22541
5.22573
5.22602
5.22628
5.22651
5.2267
5.22688
5.22703
5.22717
5.22728
5.22738
5.22747
5.22754
5.22761
5.22766
5.22771
5.22775
5.22778
5.22781
5.22783
5.22785
5.22787
5.22788
5.22788
5.22789
5.22789
5.22788
5.22788
5.22787
5.22785
5.22783
5.22781
5.22778
5.22775
5.22771
5.22766
5.22761
5.22754
5.22747
5.22738
5.22728
5.22717
5.22703
5.22688
5.2267
5.22651
5.22628
5.22602
5.22573
5.22541
5.22505
5.22466
5.22425
5.22383
5.22349
5.75191
5.75228
5.75275
5.75321
5.75364
5.75404
5.7544
5.75472
5.755
5.75526
5.75548
5.75567
5.75584
5.75599
5.75612
5.75623
5.75633
5.75641
5.75648
5.75654
5.75659
5.75664
5.75668
5.75671
5.75673
5.75675
5.75677
5.75678
5.75679
5.75679
5.75679
5.75679
5.75678
5.75677
5.75675
5.75673
5.75671
5.75668
5.75664
5.75659
5.75654
5.75648
5.75641
5.75633
5.75623
5.75612
5.75599
5.75584
5.75567
5.75548
5.75526
5.755
5.75472
5.7544
5.75404
5.75364
5.75321
5.75275
5.75228
5.75191
6.28983
6.29025
6.29075
6.29126
6.29174
6.29218
6.29257
6.29292
6.29324
6.29351
6.29376
6.29397
6.29416
6.29432
6.29446
6.29458
6.29469
6.29478
6.29486
6.29493
6.29499
6.29503
6.29508
6.29511
6.29514
6.29516
6.29518
6.29519
6.2952
6.2952
6.2952
6.2952
6.29519
6.29518
6.29516
6.29514
6.29511
6.29508
6.29503
6.29499
6.29493
6.29486
6.29478
6.29469
6.29458
6.29446
6.29432
6.29416
6.29397
6.29376
6.29351
6.29324
6.29292
6.29257
6.29218
6.29174
6.29126
6.29075
6.29025
6.28983
6.83709
6.83754
6.83809
6.83865
6.83917
6.83964
6.84007
6.84046
6.8408
6.8411
6.84137
6.8416
6.8418
6.84198
6.84214
6.84227
6.84239
6.84248
6.84257
6.84264
6.84271
6.84276
6.8428
6.84284
6.84287
6.8429
6.84292
6.84293
6.84294
6.84294
6.84294
6.84294
6.84293
6.84292
6.8429
6.84287
6.84284
6.8428
6.84276
6.84271
6.84264
6.84257
6.84248
6.84239
6.84227
6.84214
6.84198
6.8418
6.8416
6.84137
6.8411
6.8408
6.84046
6.84007
6.83964
6.83917
6.83865
6.83809
6.83754
6.83709
7.39346
7.39394
7.39454
7.39514
7.3957
7.39622
7.39668
7.3971
7.39747
7.3978
7.39809
7.39834
7.39856
7.39875
7.39892
7.39906
7.39919
7.3993
7.39939
7.39947
7.39954
7.39959
7.39964
7.39968
7.39972
7.39974
7.39976
7.39978
7.39979
7.39979
7.39979
7.39979
7.39978
7.39976
7.39974
7.39972
7.39968
7.39964
7.39959
7.39954
7.39947
7.39939
7.3993
7.39919
7.39906
7.39892
7.39875
7.39856
7.39834
7.39809
7.3978
7.39747
7.3971
7.39668
7.39622
7.3957
7.39514
7.39454
7.39394
7.39346
7.95866
7.95918
7.95983
7.96047
7.96108
7.96164
7.96214
7.96258
7.96298
7.96333
7.96364
7.96391
7.96415
7.96436
7.96454
7.9647
7.96483
7.96495
7.96505
7.96513
7.96521
7.96527
7.96532
7.96536
7.9654
7.96543
7.96545
7.96547
7.96548
7.96548
7.96548
7.96548
7.96547
7.96545
7.96543
7.9654
7.96536
7.96532
7.96527
7.96521
7.96513
7.96505
7.96495
7.96483
7.9647
7.96454
7.96436
7.96415
7.96391
7.96364
7.96333
7.96298
7.96258
7.96214
7.96164
7.96108
7.96047
7.95983
7.95918
7.95866
8.53239
8.53294
8.53363
8.53432
8.53497
8.53557
8.5361
8.53658
8.53701
8.53738
8.53772
8.53801
8.53826
8.53848
8.53867
8.53884
8.53899
8.53911
8.53922
8.53931
8.53939
8.53946
8.53951
8.53956
8.5396
8.53963
8.53965
8.53967
8.53968
8.53969
8.53969
8.53968
8.53967
8.53965
8.53963
8.5396
8.53956
8.53951
8.53946
8.53939
8.53931
8.53922
8.53911
8.53899
8.53884
8.53867
8.53848
8.53826
8.53801
8.53772
8.53738
8.53701
8.53658
8.5361
8.53557
8.53497
8.53432
8.53363
8.53294
8.53239
9.11425
9.11484
9.11557
9.11631
9.117
9.11763
9.1182
9.11871
9.11916
9.11956
9.11992
9.12023
9.1205
9.12073
9.12094
9.12112
9.12127
9.1214
9.12152
9.12162
9.1217
9.12177
9.12183
9.12188
9.12192
9.12195
9.12198
9.122
9.12201
9.12201
9.12201
9.12201
9.122
9.12198
9.12195
9.12192
9.12188
9.12183
9.12177
9.1217
9.12162
9.12152
9.1214
9.12127
9.12112
9.12094
9.12073
9.1205
9.12023
9.11992
9.11956
9.11916
9.11871
9.1182
9.11763
9.117
9.11631
9.11557
9.11484
9.11425
9.70378
9.70441
9.70519
9.70597
9.7067
9.70737
9.70797
9.70851
9.70899
9.70942
9.70979
9.71012
9.71041
9.71066
9.71087
9.71106
9.71123
9.71137
9.71149
9.71159
9.71168
9.71176
9.71182
9.71187
9.71192
9.71195
9.71198
9.712
9.71201
9.71202
9.71202
9.71201
9.712
9.71198
9.71195
9.71192
9.71187
9.71182
9.71176
9.71168
9.71159
9.71149
9.71137
9.71123
9.71106
9.71087
9.71066
9.71041
9.71012
9.70979
9.70942
9.70899
9.70851
9.70797
9.70737
9.7067
9.70597
9.70519
9.70441
9.70378
10.3005
10.3011
10.302
10.3028
10.3035
10.3042
10.3049
10.3055
10.306
10.3064
10.3068
10.3072
10.3075
10.3077
10.308
10.3081
10.3083
10.3085
10.3086
10.3087
10.3088
10.3089
10.3089
10.309
10.3091
10.3091
10.3091
10.3091
10.3092
10.3092
10.3092
10.3092
10.3091
10.3091
10.3091
10.3091
10.309
10.3089
10.3089
10.3088
10.3087
10.3086
10.3085
10.3083
10.3081
10.308
10.3077
10.3075
10.3072
10.3068
10.3064
10.306
10.3055
10.3049
10.3042
10.3035
10.3028
10.302
10.3011
10.3005
10.9037
10.9044
10.9052
10.9061
10.9069
10.9077
10.9083
10.9089
10.9095
10.9099
10.9103
10.9107
10.911
10.9113
10.9115
10.9118
10.9119
10.9121
10.9122
10.9123
10.9124
10.9125
10.9126
10.9127
10.9127
10.9127
10.9128
10.9128
10.9128
10.9128
10.9128
10.9128
10.9128
10.9128
10.9127
10.9127
10.9127
10.9126
10.9125
10.9124
10.9123
10.9122
10.9121
10.9119
10.9118
10.9115
10.9113
10.911
10.9107
10.9103
10.9099
10.9095
10.9089
10.9083
10.9077
10.9069
10.9061
10.9052
10.9044
10.9037
11.5127
11.5135
11.5144
11.5153
11.5161
11.5169
11.5176
11.5182
11.5188
11.5193
11.5197
11.5201
11.5204
11.5207
11.5209
11.5212
11.5214
11.5215
11.5217
11.5218
11.5219
11.522
11.5221
11.5221
11.5222
11.5222
11.5222
11.5223
11.5223
11.5223
11.5223
11.5223
11.5223
11.5222
11.5222
11.5222
11.5221
11.5221
11.522
11.5219
11.5218
11.5217
11.5215
11.5214
11.5212
11.5209
11.5207
11.5204
11.5201
11.5197
11.5193
11.5188
11.5182
11.5176
11.5169
11.5161
11.5153
11.5144
11.5135
11.5127
12.1268
12.1275
12.1284
12.1294
12.1303
12.1311
12.1318
12.1325
12.133
12.1336
12.134
12.1344
12.1348
12.1351
12.1353
12.1356
12.1358
12.1359
12.1361
12.1362
12.1363
12.1364
12.1365
12.1365
12.1366
12.1366
12.1367
12.1367
12.1367
12.1367
12.1367
12.1367
12.1367
12.1367
12.1366
12.1366
12.1365
12.1365
12.1364
12.1363
12.1362
12.1361
12.1359
12.1358
12.1356
12.1353
12.1351
12.1348
12.1344
12.134
12.1336
12.133
12.1325
12.1318
12.1311
12.1303
12.1294
12.1284
12.1275
12.1268
12.7448
12.7456
12.7466
12.7476
12.7485
12.7493
12.7501
12.7507
12.7513
12.7519
12.7524
12.7528
12.7531
12.7534
12.7537
12.754
12.7542
12.7543
12.7545
12.7546
12.7547
12.7548
12.7549
12.755
12.755
12.7551
12.7551
12.7551
12.7552
12.7552
12.7552
12.7552
12.7551
12.7551
12.7551
12.755
12.755
12.7549
12.7548
12.7547
12.7546
12.7545
12.7543
12.7542
12.754
12.7537
12.7534
12.7531
12.7528
12.7524
12.7519
12.7513
12.7507
12.7501
12.7493
12.7485
12.7476
12.7466
12.7456
12.7448
13.3658
13.3666
13.3676
13.3687
13.3696
13.3705
13.3713
13.372
13.3726
13.3731
13.3736
13.374
13.3744
13.3747
13.375
13.3753
13.3755
13.3757
13.3758
13.376
13.3761
13.3762
13.3763
13.3763
13.3764
13.3764
13.3765
13.3765
13.3765
13.3765
13.3765
13.3765
13.3765
13.3765
13.3764
13.3764
13.3763
13.3763
13.3762
13.3761
13.376
13.3758
13.3757
13.3755
13.3753
13.375
13.3747
13.3744
13.374
13.3736
13.3731
13.3726
13.372
13.3713
13.3705
13.3696
13.3687
13.3676
13.3666
13.3658
13.9885
13.9893
13.9904
13.9914
13.9924
13.9933
13.9941
13.9948
13.9955
13.996
13.9965
13.997
13.9974
13.9977
13.998
13.9983
13.9985
13.9987
13.9988
13.999
13.9991
13.9992
13.9993
13.9994
13.9994
13.9995
13.9995
13.9995
13.9995
13.9995
13.9995
13.9995
13.9995
13.9995
13.9995
13.9994
13.9994
13.9993
13.9992
13.9991
13.999
13.9988
13.9987
13.9985
13.9983
13.998
13.9977
13.9974
13.997
13.9965
13.996
13.9955
13.9948
13.9941
13.9933
13.9924
13.9914
13.9904
13.9893
13.9885
14.6114
14.6123
14.6133
14.6144
14.6154
14.6163
14.6172
14.6179
14.6186
14.6191
14.6197
14.6201
14.6205
14.6209
14.6212
14.6214
14.6216
14.6218
14.622
14.6222
14.6223
14.6224
14.6225
14.6226
14.6226
14.6227
14.6227
14.6227
14.6227
14.6228
14.6228
14.6227
14.6227
14.6227
14.6227
14.6226
14.6226
14.6225
14.6224
14.6223
14.6222
14.622
14.6218
14.6216
14.6214
14.6212
14.6209
14.6205
14.6201
14.6197
14.6191
14.6186
14.6179
14.6172
14.6163
14.6154
14.6144
14.6133
14.6123
14.6114
15.2329
15.2338
15.2349
15.2359
15.237
15.2379
15.2388
15.2395
15.2402
15.2408
15.2413
15.2418
15.2422
15.2425
15.2428
15.2431
15.2433
15.2435
15.2437
15.2439
15.244
15.2441
15.2442
15.2443
15.2443
15.2444
15.2444
15.2444
15.2445
15.2445
15.2445
15.2445
15.2444
15.2444
15.2444
15.2443
15.2443
15.2442
15.2441
15.244
15.2439
15.2437
15.2435
15.2433
15.2431
15.2428
15.2425
15.2422
15.2418
15.2413
15.2408
15.2402
15.2395
15.2388
15.2379
15.237
15.2359
15.2349
15.2338
15.2329
15.851
15.8519
15.853
15.8541
15.8551
15.8561
15.8569
15.8577
15.8584
15.859
15.8595
15.86
15.8604
15.8608
15.8611
15.8614
15.8616
15.8618
15.862
15.8621
15.8623
15.8624
15.8625
15.8626
15.8626
15.8627
15.8627
15.8627
15.8628
15.8628
15.8628
15.8628
15.8627
15.8627
15.8627
15.8626
15.8626
15.8625
15.8624
15.8623
15.8621
15.862
15.8618
15.8616
15.8614
15.8611
15.8608
15.8604
15.86
15.8595
15.859
15.8584
15.8577
15.8569
15.8561
15.8551
15.8541
15.853
15.8519
15.851
16.4635
16.4644
16.4655
16.4666
16.4677
16.4686
16.4695
16.4703
16.471
16.4716
16.4721
16.4726
16.473
16.4734
16.4737
16.474
16.4742
16.4744
16.4746
16.4748
16.4749
16.475
16.4751
16.4752
16.4752
16.4753
16.4753
16.4754
16.4754
16.4754
16.4754
16.4754
16.4754
16.4753
16.4753
16.4752
16.4752
16.4751
16.475
16.4749
16.4748
16.4746
16.4744
16.4742
16.474
16.4737
16.4734
16.473
16.4726
16.4721
16.4716
16.471
16.4703
16.4695
16.4686
16.4677
16.4666
16.4655
16.4644
16.4635
17.0677
17.0686
17.0698
17.0709
17.0719
17.0729
17.0738
17.0746
17.0753
17.0759
17.0764
17.0769
17.0773
17.0777
17.078
17.0783
17.0785
17.0787
17.0789
17.0791
17.0792
17.0793
17.0794
17.0795
17.0796
17.0796
17.0797
17.0797
17.0797
17.0797
17.0797
17.0797
17.0797
17.0797
17.0796
17.0796
17.0795
17.0794
17.0793
17.0792
17.0791
17.0789
17.0787
17.0785
17.0783
17.078
17.0777
17.0773
17.0769
17.0764
17.0759
17.0753
17.0746
17.0738
17.0729
17.0719
17.0709
17.0698
17.0686
17.0677
17.6607
17.6617
17.6628
17.6639
17.665
17.6659
17.6668
17.6676
17.6683
17.6689
17.6694
17.6699
17.6703
17.6707
17.671
17.6713
17.6715
17.6717
17.6719
17.6721
17.6722
17.6723
17.6724
17.6725
17.6726
17.6726
17.6727
17.6727
17.6727
17.6727
17.6727
17.6727
17.6727
17.6727
17.6726
17.6726
17.6725
17.6724
17.6723
17.6722
17.6721
17.6719
17.6717
17.6715
17.6713
17.671
17.6707
17.6703
17.6699
17.6694
17.6689
17.6683
17.6676
17.6668
17.6659
17.665
17.6639
17.6628
17.6617
17.6607
18.2389
18.2399
18.241
18.2421
18.2431
18.2441
18.2449
18.2457
18.2464
18.247
18.2475
18.248
18.2484
18.2488
18.2491
18.2494
18.2496
18.2498
18.25
18.2502
18.2503
18.2504
18.2505
18.2506
18.2507
18.2507
18.2508
18.2508
18.2508
18.2508
18.2508
18.2508
18.2508
18.2508
18.2507
18.2507
18.2506
18.2505
18.2504
18.2503
18.2502
18.25
18.2498
18.2496
18.2494
18.2491
18.2488
18.2484
18.248
18.2475
18.247
18.2464
18.2457
18.2449
18.2441
18.2431
18.2421
18.241
18.2399
18.2389
18.7981
18.799
18.8001
18.8012
18.8022
18.8031
18.804
18.8047
18.8054
18.806
18.8065
18.807
18.8074
18.8077
18.808
18.8083
18.8086
18.8088
18.8089
18.8091
18.8092
18.8094
18.8094
18.8095
18.8096
18.8096
18.8097
18.8097
18.8097
18.8097
18.8097
18.8097
18.8097
18.8097
18.8096
18.8096
18.8095
18.8094
18.8094
18.8092
18.8091
18.8089
18.8088
18.8086
18.8083
18.808
18.8077
18.8074
18.807
18.8065
18.806
18.8054
18.8047
18.804
18.8031
18.8022
18.8012
18.8001
18.799
18.7981
19.3332
19.3341
19.3351
19.3362
19.3371
19.338
19.3388
19.3396
19.3402
19.3408
19.3413
19.3417
19.3421
19.3425
19.3428
19.3431
19.3433
19.3435
19.3437
19.3438
19.344
19.3441
19.3442
19.3442
19.3443
19.3444
19.3444
19.3444
19.3444
19.3445
19.3445
19.3444
19.3444
19.3444
19.3444
19.3443
19.3442
19.3442
19.3441
19.344
19.3438
19.3437
19.3435
19.3433
19.3431
19.3428
19.3425
19.3421
19.3417
19.3413
19.3408
19.3402
19.3396
19.3388
19.338
19.3371
19.3362
19.3351
19.3341
19.3332
19.8382
19.8391
19.8401
19.8411
19.842
19.8428
19.8436
19.8443
19.8449
19.8454
19.8459
19.8464
19.8467
19.8471
19.8474
19.8476
19.8478
19.848
19.8482
19.8483
19.8485
19.8486
19.8487
19.8487
19.8488
19.8489
19.8489
19.8489
19.8489
19.849
19.849
19.8489
19.8489
19.8489
19.8489
19.8488
19.8487
19.8487
19.8486
19.8485
19.8483
19.8482
19.848
19.8478
19.8476
19.8474
19.8471
19.8467
19.8464
19.8459
19.8454
19.8449
19.8443
19.8436
19.8428
19.842
19.8411
19.8401
19.8391
19.8382
20.3064
20.3071
20.308
20.309
20.3098
20.3106
20.3113
20.3119
20.3125
20.313
20.3135
20.3139
20.3142
20.3145
20.3148
20.315
20.3153
20.3154
20.3156
20.3157
20.3159
20.316
20.316
20.3161
20.3162
20.3162
20.3163
20.3163
20.3163
20.3163
20.3163
20.3163
20.3163
20.3163
20.3162
20.3162
20.3161
20.316
20.316
20.3159
20.3157
20.3156
20.3154
20.3153
20.315
20.3148
20.3145
20.3142
20.3139
20.3135
20.313
20.3125
20.3119
20.3113
20.3106
20.3098
20.309
20.308
20.3071
20.3064
20.73
20.7307
20.7315
20.7324
20.7331
20.7338
20.7345
20.735
20.7355
20.736
20.7364
20.7368
20.7371
20.7374
20.7376
20.7378
20.738
20.7382
20.7384
20.7385
20.7386
20.7387
20.7388
20.7388
20.7389
20.7389
20.739
20.739
20.739
20.739
20.739
20.739
20.739
20.739
20.7389
20.7389
20.7388
20.7388
20.7387
20.7386
20.7385
20.7384
20.7382
20.738
20.7378
20.7376
20.7374
20.7371
20.7368
20.7364
20.736
20.7355
20.735
20.7345
20.7338
20.7331
20.7324
20.7315
20.7307
20.73
21.1022
21.1028
21.1035
21.1042
21.1048
21.1054
21.106
21.1065
21.1069
21.1073
21.1077
21.108
21.1083
21.1085
21.1088
21.109
21.1091
21.1093
21.1094
21.1095
21.1096
21.1097
21.1098
21.1099
21.1099
21.11
21.11
21.11
21.11
21.11
21.11
21.11
21.11
21.11
21.11
21.1099
21.1099
21.1098
21.1097
21.1096
21.1095
21.1094
21.1093
21.1091
21.109
21.1088
21.1085
21.1083
21.108
21.1077
21.1073
21.1069
21.1065
21.106
21.1054
21.1048
21.1042
21.1035
21.1028
21.1022
21.4181
21.4185
21.4191
21.4197
21.4202
21.4207
21.4211
21.4216
21.4219
21.4223
21.4226
21.4228
21.4231
21.4233
21.4235
21.4237
21.4238
21.4239
21.4241
21.4242
21.4242
21.4243
21.4244
21.4245
21.4245
21.4245
21.4246
21.4246
21.4246
21.4246
21.4246
21.4246
21.4246
21.4246
21.4245
21.4245
21.4245
21.4244
21.4243
21.4242
21.4242
21.4241
21.4239
21.4238
21.4237
21.4235
21.4233
21.4231
21.4228
21.4226
21.4223
21.4219
21.4216
21.4211
21.4207
21.4202
21.4197
21.4191
21.4185
21.4181
21.6771
21.6774
21.6779
21.6783
21.6787
21.6791
21.6795
21.6798
21.6801
21.6804
21.6806
21.6809
21.6811
21.6812
21.6814
21.6816
21.6817
21.6818
21.6819
21.682
21.6821
21.6821
21.6822
21.6822
21.6823
21.6823
21.6824
21.6824
21.6824
21.6824
21.6824
21.6824
21.6824
21.6824
21.6823
21.6823
21.6822
21.6822
21.6821
21.6821
21.682
21.6819
21.6818
21.6817
21.6816
21.6814
21.6812
21.6811
21.6809
21.6806
21.6804
21.6801
21.6798
21.6795
21.6791
21.6787
21.6783
21.6779
21.6774
21.6771
21.884
21.8842
21.8846
21.8849
21.8852
21.8855
21.8858
21.8861
21.8863
21.8865
21.8867
21.8869
21.887
21.8872
21.8873
21.8875
21.8876
21.8877
21.8878
21.8878
21.8879
21.888
21.888
21.8881
21.8881
21.8881
21.8882
21.8882
21.8882
21.8882
21.8882
21.8882
21.8882
21.8882
21.8881
21.8881
21.8881
21.888
21.888
21.8879
21.8878
21.8878
21.8877
21.8876
21.8875
21.8873
21.8872
21.887
21.8869
21.8867
21.8865
21.8863
21.8861
21.8858
21.8855
21.8852
21.8849
21.8846
21.8842
21.884
22.0475
22.0476
22.0479
22.0481
22.0483
22.0486
22.0488
22.049
22.0492
22.0493
22.0495
22.0496
22.0498
22.0499
22.05
22.0501
22.0502
22.0503
22.0504
22.0504
22.0505
22.0506
22.0506
22.0507
22.0507
22.0507
22.0507
22.0508
22.0508
22.0508
22.0508
22.0508
22.0508
22.0507
22.0507
22.0507
22.0507
22.0506
22.0506
22.0505
22.0504
22.0504
22.0503
22.0502
22.0501
22.05
22.0499
22.0498
22.0496
22.0495
22.0493
22.0492
22.049
22.0488
22.0486
22.0483
22.0481
22.0479
22.0476
22.0475
22.1776
22.1777
22.1778
22.178
22.1782
22.1784
22.1785
22.1787
22.1788
22.179
22.1791
22.1792
22.1793
22.1794
22.1795
22.1796
22.1797
22.1798
22.1799
22.1799
22.18
22.18
22.1801
22.1801
22.1802
22.1802
22.1802
22.1802
22.1802
22.1802
22.1802
22.1802
22.1802
22.1802
22.1802
22.1802
22.1801
22.1801
22.18
22.18
22.1799
22.1799
22.1798
22.1797
22.1796
22.1795
22.1794
22.1793
22.1792
22.1791
22.179
22.1788
22.1787
22.1785
22.1784
22.1782
22.178
22.1778
22.1777
22.1776
22.2835
22.2835
22.2837
22.2838
22.2839
22.284
22.2842
22.2843
22.2844
22.2845
22.2846
22.2848
22.2849
22.285
22.285
22.2851
22.2852
22.2853
22.2853
22.2854
22.2855
22.2855
22.2855
22.2856
22.2856
22.2856
22.2857
22.2857
22.2857
22.2857
22.2857
22.2857
22.2857
22.2857
22.2856
22.2856
22.2856
22.2855
22.2855
22.2855
22.2854
22.2853
22.2853
22.2852
22.2851
22.285
22.285
22.2849
22.2848
22.2846
22.2845
22.2844
22.2843
22.2842
22.284
22.2839
22.2838
22.2837
22.2835
22.2835
22.3722
22.3723
22.3723
22.3724
22.3725
22.3726
22.3727
22.3729
22.373
22.3731
22.3732
22.3733
22.3733
22.3734
22.3735
22.3736
22.3737
22.3737
22.3738
22.3739
22.3739
22.374
22.374
22.374
22.3741
22.3741
22.3741
22.3741
22.3741
22.3741
22.3741
22.3741
22.3741
22.3741
22.3741
22.3741
22.374
22.374
22.374
22.3739
22.3739
22.3738
22.3737
22.3737
22.3736
22.3735
22.3734
22.3733
22.3733
22.3732
22.3731
22.373
22.3729
22.3727
22.3726
22.3725
22.3724
22.3723
22.3723
22.3722
22.4487
22.4487
22.4488
22.4489
22.4489
22.449
22.4491
22.4492
22.4493
22.4494
22.4495
22.4496
22.4497
22.4497
22.4498
22.4499
22.45
22.45
22.4501
22.4502
22.4502
22.4503
22.4503
22.4503
22.4504
22.4504
22.4504
22.4504
22.4504
22.4504
22.4504
22.4504
22.4504
22.4504
22.4504
22.4504
22.4503
22.4503
22.4503
22.4502
22.4502
22.4501
22.45
22.45
22.4499
22.4498
22.4497
22.4497
22.4496
22.4495
22.4494
22.4493
22.4492
22.4491
22.449
22.4489
22.4489
22.4488
22.4487
22.4487
22.5162
22.5162
22.5162
22.5163
22.5164
22.5164
22.5165
22.5166
22.5167
22.5168
22.5168
22.5169
22.517
22.5171
22.5172
22.5172
22.5173
22.5174
22.5174
22.5175
22.5176
22.5176
22.5176
22.5177
22.5177
22.5177
22.5178
22.5178
22.5178
22.5178
22.5178
22.5178
22.5178
22.5178
22.5177
22.5177
22.5177
22.5176
22.5176
22.5176
22.5175
22.5174
22.5174
22.5173
22.5172
22.5172
22.5171
22.517
22.5169
22.5168
22.5168
22.5167
22.5166
22.5165
22.5164
22.5164
22.5163
22.5162
22.5162
22.5162
22.5768
22.5768
22.5768
22.5769
22.5769
22.577
22.5771
22.5771
22.5772
22.5773
22.5774
22.5774
22.5775
22.5776
22.5777
22.5778
22.5778
22.5779
22.578
22.578
22.5781
22.5781
22.5782
22.5782
22.5782
22.5783
22.5783
22.5783
22.5783
22.5783
22.5783
22.5783
22.5783
22.5783
22.5783
22.5782
22.5782
22.5782
22.5781
22.5781
22.578
22.578
22.5779
22.5778
22.5778
22.5777
22.5776
22.5775
22.5774
22.5774
22.5773
22.5772
22.5771
22.5771
22.577
22.5769
22.5769
22.5768
22.5768
22.5768
22.632
22.632
22.632
22.632
22.6321
22.6321
22.6322
22.6323
22.6323
22.6324
22.6325
22.6326
22.6326
22.6327
22.6328
22.6329
22.6329
22.633
22.6331
22.6331
22.6332
22.6332
22.6333
22.6333
22.6333
22.6334
22.6334
22.6334
22.6334
22.6334
22.6334
22.6334
22.6334
22.6334
22.6334
22.6333
22.6333
22.6333
22.6332
22.6332
22.6331
22.6331
22.633
22.6329
22.6329
22.6328
22.6327
22.6326
22.6326
22.6325
22.6324
22.6323
22.6323
22.6322
22.6321
22.6321
22.632
22.632
22.632
22.632
22.6827
22.6827
22.6827
22.6828
22.6828
22.6829
22.6829
22.683
22.6831
22.6831
22.6832
22.6833
22.6834
22.6834
22.6835
22.6836
22.6837
22.6837
22.6838
22.6839
22.6839
22.684
22.684
22.684
22.6841
22.6841
22.6841
22.6842
22.6842
22.6842
22.6842
22.6842
22.6842
22.6841
22.6841
22.6841
22.684
22.684
22.684
22.6839
22.6839
22.6838
22.6837
22.6837
22.6836
22.6835
22.6834
22.6834
22.6833
22.6832
22.6831
22.6831
22.683
22.6829
22.6829
22.6828
22.6828
22.6827
22.6827
22.6827
22.7298
22.7298
22.7298
22.7299
22.7299
22.7299
22.73
22.7301
22.7301
22.7302
22.7303
22.7304
22.7304
22.7305
22.7306
22.7307
22.7308
22.7308
22.7309
22.7309
22.731
22.7311
22.7311
22.7311
22.7312
22.7312
22.7312
22.7312
22.7313
22.7313
22.7313
22.7313
22.7312
22.7312
22.7312
22.7312
22.7311
22.7311
22.7311
22.731
22.7309
22.7309
22.7308
22.7308
22.7307
22.7306
22.7305
22.7304
22.7304
22.7303
22.7302
22.7301
22.7301
22.73
22.7299
22.7299
22.7299
22.7298
22.7298
22.7298
22.7738
22.7738
22.7738
22.7739
22.7739
22.7739
22.774
22.7741
22.7741
22.7742
22.7743
22.7744
22.7744
22.7745
22.7746
22.7747
22.7748
22.7748
22.7749
22.775
22.775
22.7751
22.7751
22.7752
22.7752
22.7752
22.7752
22.7753
22.7753
22.7753
22.7753
22.7753
22.7753
22.7752
22.7752
22.7752
22.7752
22.7751
22.7751
22.775
22.775
22.7749
22.7748
22.7748
22.7747
22.7746
22.7745
22.7744
22.7744
22.7743
22.7742
22.7741
22.7741
22.774
22.7739
22.7739
22.7739
22.7738
22.7738
22.7738
22.8152
22.8152
22.8152
22.8152
22.8153
22.8153
22.8153
22.8154
22.8155
22.8156
22.8156
22.8157
22.8158
22.8159
22.816
22.816
22.8161
22.8162
22.8163
22.8163
22.8164
22.8164
22.8165
22.8165
22.8166
22.8166
22.8166
22.8166
22.8166
22.8167
22.8167
22.8166
22.8166
22.8166
22.8166
22.8166
22.8165
22.8165
22.8164
22.8164
22.8163
22.8163
22.8162
22.8161
22.816
22.816
22.8159
22.8158
22.8157
22.8156
22.8156
22.8155
22.8154
22.8153
22.8153
22.8153
22.8152
22.8152
22.8152
22.8152
22.8543
22.8543
22.8543
22.8543
22.8543
22.8543
22.8544
22.8545
22.8545
22.8546
22.8547
22.8548
22.8549
22.8549
22.855
22.8551
22.8552
22.8553
22.8553
22.8554
22.8555
22.8555
22.8556
22.8556
22.8556
22.8557
22.8557
22.8557
22.8557
22.8557
22.8557
22.8557
22.8557
22.8557
22.8557
22.8556
22.8556
22.8556
22.8555
22.8555
22.8554
22.8553
22.8553
22.8552
22.8551
22.855
22.8549
22.8549
22.8548
22.8547
22.8546
22.8545
22.8545
22.8544
22.8543
22.8543
22.8543
22.8543
22.8543
22.8543
22.8913
22.8913
22.8913
22.8913
22.8914
22.8914
22.8914
22.8915
22.8916
22.8917
22.8917
22.8918
22.8919
22.892
22.8921
22.8922
22.8922
22.8923
22.8924
22.8925
22.8925
22.8926
22.8926
22.8927
22.8927
22.8928
22.8928
22.8928
22.8928
22.8928
22.8928
22.8928
22.8928
22.8928
22.8928
22.8927
22.8927
22.8926
22.8926
22.8925
22.8925
22.8924
22.8923
22.8922
22.8922
22.8921
22.892
22.8919
22.8918
22.8917
22.8917
22.8916
22.8915
22.8914
22.8914
22.8914
22.8913
22.8913
22.8913
22.8913
22.9266
22.9266
22.9266
22.9266
22.9266
22.9267
22.9267
22.9268
22.9268
22.9269
22.927
22.9271
22.9272
22.9273
22.9274
22.9275
22.9275
22.9276
22.9277
22.9278
22.9278
22.9279
22.9279
22.928
22.928
22.9281
22.9281
22.9281
22.9281
22.9281
22.9281
22.9281
22.9281
22.9281
22.9281
22.928
22.928
22.9279
22.9279
22.9278
22.9278
22.9277
22.9276
22.9275
22.9275
22.9274
22.9273
22.9272
22.9271
22.927
22.9269
22.9268
22.9268
22.9267
22.9267
22.9266
22.9266
22.9266
22.9266
22.9266
22.9603
22.9603
22.9603
22.9603
22.9603
22.9603
22.9604
22.9605
22.9605
22.9606
22.9607
22.9608
22.9609
22.961
22.9611
22.9612
22.9612
22.9613
22.9614
22.9615
22.9615
22.9616
22.9617
22.9617
22.9618
22.9618
22.9618
22.9618
22.9619
22.9619
22.9619
22.9619
22.9618
22.9618
22.9618
22.9618
22.9617
22.9617
22.9616
22.9615
22.9615
22.9614
22.9613
22.9612
22.9612
22.9611
22.961
22.9609
22.9608
22.9607
22.9606
22.9605
22.9605
22.9604
22.9603
22.9603
22.9603
22.9603
22.9603
22.9603
22.9925
22.9925
22.9925
22.9925
22.9926
22.9926
22.9927
22.9927
22.9928
22.9929
22.993
22.9931
22.9932
22.9933
22.9934
22.9935
22.9935
22.9936
22.9937
22.9938
22.9939
22.9939
22.994
22.994
22.9941
22.9941
22.9941
22.9942
22.9942
22.9942
22.9942
22.9942
22.9942
22.9941
22.9941
22.9941
22.994
22.994
22.9939
22.9939
22.9938
22.9937
22.9936
22.9935
22.9935
22.9934
22.9933
22.9932
22.9931
22.993
22.9929
22.9928
22.9927
22.9927
22.9926
22.9926
22.9925
22.9925
22.9925
22.9925
23.0235
23.0235
23.0235
23.0235
23.0235
23.0236
23.0237
23.0237
23.0238
23.0239
23.024
23.0241
23.0242
23.0243
23.0244
23.0245
23.0246
23.0247
23.0247
23.0248
23.0249
23.025
23.025
23.0251
23.0251
23.0251
23.0252
23.0252
23.0252
23.0252
23.0252
23.0252
23.0252
23.0252
23.0251
23.0251
23.0251
23.025
23.025
23.0249
23.0248
23.0247
23.0247
23.0246
23.0245
23.0244
23.0243
23.0242
23.0241
23.024
23.0239
23.0238
23.0237
23.0237
23.0236
23.0235
23.0235
23.0235
23.0235
23.0235
23.0533
23.0533
23.0533
23.0533
23.0534
23.0534
23.0535
23.0535
23.0536
23.0537
23.0538
23.0539
23.054
23.0541
23.0542
23.0543
23.0544
23.0545
23.0546
23.0547
23.0548
23.0548
23.0549
23.0549
23.055
23.055
23.0551
23.0551
23.0551
23.0551
23.0551
23.0551
23.0551
23.0551
23.055
23.055
23.0549
23.0549
23.0548
23.0548
23.0547
23.0546
23.0545
23.0544
23.0543
23.0542
23.0541
23.054
23.0539
23.0538
23.0537
23.0536
23.0535
23.0535
23.0534
23.0534
23.0533
23.0533
23.0533
23.0533
23.0821
23.0821
23.0821
23.0821
23.0821
23.0822
23.0822
23.0823
23.0824
23.0825
23.0826
23.0827
23.0828
23.0829
23.083
23.0831
23.0832
23.0833
23.0834