/*--------------------------------*- C++ -*----------------------------------*\
| =========                 |                                                 |
| \\      /  F ield         | foam-extend: Open Source CFD                    |
|  \\    /   O peration     | Version:     4.0                                |
|   \\  /    A nd           | Web:         http://www.foam-extend.org         |
|    \\/     M anipulation  |                                                 |
\*---------------------------------------------------------------------------*/
FoamFile
{
    version     2.0;
    format      ascii;
    class       volScalarField;
    location    "880";
    object      cMinus;
}
// * * * * * * * * * * * * * * * * * * * * * * * * * * * * * * * * * * * * * //

dimensions      [0 0 0 0 0 0 0];

internalField   nonuniform List<scalar> 
6960
(
1.34431e-18
1.3421e-18
1.33986e-18
1.33865e-18
1.33805e-18
1.33776e-18
1.33763e-18
1.33758e-18
1.33756e-18
1.33757e-18
1.33759e-18
1.33761e-18
1.33763e-18
1.33765e-18
1.33767e-18
1.33769e-18
1.33771e-18
1.33773e-18
1.33775e-18
1.33777e-18
1.33778e-18
1.3378e-18
1.33781e-18
1.33782e-18
1.33783e-18
1.33784e-18
1.33784e-18
1.33785e-18
1.33785e-18
1.33785e-18
1.33785e-18
1.33785e-18
1.33785e-18
1.33784e-18
1.33784e-18
1.33783e-18
1.33782e-18
1.33781e-18
1.3378e-18
1.33778e-18
1.33777e-18
1.33775e-18
1.33773e-18
1.33771e-18
1.33769e-18
1.33767e-18
1.33765e-18
1.33763e-18
1.33761e-18
1.33759e-18
1.33757e-18
1.33756e-18
1.33758e-18
1.33763e-18
1.33776e-18
1.33805e-18
1.33865e-18
1.33986e-18
1.3421e-18
1.34431e-18
8.65147e-18
8.64257e-18
8.63114e-18
8.6249e-18
8.62184e-18
8.62043e-18
8.61988e-18
8.61975e-18
8.61984e-18
8.62004e-18
8.62029e-18
8.62057e-18
8.62086e-18
8.62114e-18
8.62142e-18
8.62169e-18
8.62195e-18
8.6222e-18
8.62242e-18
8.62264e-18
8.62283e-18
8.62301e-18
8.62317e-18
8.62331e-18
8.62343e-18
8.62353e-18
8.62361e-18
8.62367e-18
8.62371e-18
8.62373e-18
8.62373e-18
8.62371e-18
8.62367e-18
8.62361e-18
8.62353e-18
8.62343e-18
8.62331e-18
8.62317e-18
8.62301e-18
8.62283e-18
8.62264e-18
8.62242e-18
8.6222e-18
8.62195e-18
8.62169e-18
8.62142e-18
8.62114e-18
8.62086e-18
8.62057e-18
8.62029e-18
8.62004e-18
8.61984e-18
8.61975e-18
8.61988e-18
8.62043e-18
8.62184e-18
8.6249e-18
8.63114e-18
8.64257e-18
8.65147e-18
5.39752e-17
5.39555e-17
5.39057e-17
5.38779e-17
5.38642e-17
5.38582e-17
5.38562e-17
5.38562e-17
5.38573e-17
5.38589e-17
5.38608e-17
5.38628e-17
5.38648e-17
5.38669e-17
5.38688e-17
5.38707e-17
5.38725e-17
5.38742e-17
5.38758e-17
5.38773e-17
5.38787e-17
5.38799e-17
5.3881e-17
5.3882e-17
5.38828e-17
5.38835e-17
5.38841e-17
5.38845e-17
5.38848e-17
5.3885e-17
5.3885e-17
5.38848e-17
5.38845e-17
5.38841e-17
5.38835e-17
5.38828e-17
5.3882e-17
5.3881e-17
5.38799e-17
5.38787e-17
5.38773e-17
5.38758e-17
5.38742e-17
5.38725e-17
5.38707e-17
5.38688e-17
5.38669e-17
5.38648e-17
5.38628e-17
5.38608e-17
5.38589e-17
5.38573e-17
5.38562e-17
5.38562e-17
5.38582e-17
5.38642e-17
5.38779e-17
5.39057e-17
5.39555e-17
5.39752e-17
3.45012e-16
3.45123e-16
3.44949e-16
3.44844e-16
3.44794e-16
3.44773e-16
3.4477e-16
3.44775e-16
3.44785e-16
3.44798e-16
3.44811e-16
3.44826e-16
3.4484e-16
3.44854e-16
3.44868e-16
3.44881e-16
3.44893e-16
3.44905e-16
3.44916e-16
3.44926e-16
3.44936e-16
3.44944e-16
3.44952e-16
3.44958e-16
3.44964e-16
3.44969e-16
3.44973e-16
3.44976e-16
3.44978e-16
3.44979e-16
3.44979e-16
3.44978e-16
3.44976e-16
3.44973e-16
3.44969e-16
3.44964e-16
3.44958e-16
3.44952e-16
3.44944e-16
3.44936e-16
3.44926e-16
3.44916e-16
3.44905e-16
3.44893e-16
3.44881e-16
3.44868e-16
3.44854e-16
3.4484e-16
3.44826e-16
3.44811e-16
3.44798e-16
3.44785e-16
3.44775e-16
3.4477e-16
3.44773e-16
3.44794e-16
3.44844e-16
3.44949e-16
3.45123e-16
3.45012e-16
2.27537e-15
2.27768e-15
2.2775e-15
2.2773e-15
2.27721e-15
2.2772e-15
2.27724e-15
2.27731e-15
2.27739e-15
2.27749e-15
2.27759e-15
2.27769e-15
2.27779e-15
2.27789e-15
2.27799e-15
2.27808e-15
2.27817e-15
2.27825e-15
2.27832e-15
2.27839e-15
2.27846e-15
2.27852e-15
2.27857e-15
2.27862e-15
2.27866e-15
2.27869e-15
2.27872e-15
2.27874e-15
2.27875e-15
2.27876e-15
2.27876e-15
2.27875e-15
2.27874e-15
2.27872e-15
2.27869e-15
2.27866e-15
2.27862e-15
2.27857e-15
2.27852e-15
2.27846e-15
2.27839e-15
2.27832e-15
2.27825e-15
2.27817e-15
2.27808e-15
2.27799e-15
2.27789e-15
2.27779e-15
2.27769e-15
2.27759e-15
2.27749e-15
2.27739e-15
2.27731e-15
2.27724e-15
2.2772e-15
2.27721e-15
2.2773e-15
2.2775e-15
2.27768e-15
2.27537e-15
1.54501e-14
1.54765e-14
1.54819e-14
1.5484e-14
1.5485e-14
1.54858e-14
1.54865e-14
1.54871e-14
1.54879e-14
1.54886e-14
1.54893e-14
1.54901e-14
1.54908e-14
1.54915e-14
1.54922e-14
1.54928e-14
1.54934e-14
1.5494e-14
1.54945e-14
1.5495e-14
1.54955e-14
1.54959e-14
1.54963e-14
1.54966e-14
1.54969e-14
1.54971e-14
1.54973e-14
1.54975e-14
1.54976e-14
1.54976e-14
1.54976e-14
1.54976e-14
1.54975e-14
1.54973e-14
1.54971e-14
1.54969e-14
1.54966e-14
1.54963e-14
1.54959e-14
1.54955e-14
1.5495e-14
1.54945e-14
1.5494e-14
1.54934e-14
1.54928e-14
1.54922e-14
1.54915e-14
1.54908e-14
1.54901e-14
1.54893e-14
1.54886e-14
1.54879e-14
1.54871e-14
1.54865e-14
1.54858e-14
1.5485e-14
1.5484e-14
1.54819e-14
1.54765e-14
1.54501e-14
1.0753e-13
1.07788e-13
1.07871e-13
1.07909e-13
1.07928e-13
1.07939e-13
1.07946e-13
1.07952e-13
1.07958e-13
1.07964e-13
1.07969e-13
1.07974e-13
1.0798e-13
1.07985e-13
1.0799e-13
1.07994e-13
1.07999e-13
1.08003e-13
1.08007e-13
1.0801e-13
1.08013e-13
1.08016e-13
1.08019e-13
1.08021e-13
1.08023e-13
1.08025e-13
1.08026e-13
1.08027e-13
1.08028e-13
1.08028e-13
1.08028e-13
1.08028e-13
1.08027e-13
1.08026e-13
1.08025e-13
1.08023e-13
1.08021e-13
1.08019e-13
1.08016e-13
1.08013e-13
1.0801e-13
1.08007e-13
1.08003e-13
1.07999e-13
1.07994e-13
1.0799e-13
1.07985e-13
1.0798e-13
1.07974e-13
1.07969e-13
1.07964e-13
1.07958e-13
1.07952e-13
1.07946e-13
1.07939e-13
1.07928e-13
1.07909e-13
1.07871e-13
1.07788e-13
1.0753e-13
7.62626e-13
7.64966e-13
7.65875e-13
7.66308e-13
7.66523e-13
7.66639e-13
7.66712e-13
7.66766e-13
7.66813e-13
7.66855e-13
7.66896e-13
7.66935e-13
7.66973e-13
7.6701e-13
7.67045e-13
7.67078e-13
7.6711e-13
7.67139e-13
7.67167e-13
7.67193e-13
7.67216e-13
7.67237e-13
7.67256e-13
7.67273e-13
7.67287e-13
7.67299e-13
7.67309e-13
7.67316e-13
7.67321e-13
7.67324e-13
7.67324e-13
7.67321e-13
7.67316e-13
7.67309e-13
7.67299e-13
7.67287e-13
7.67273e-13
7.67256e-13
7.67237e-13
7.67216e-13
7.67193e-13
7.67167e-13
7.67139e-13
7.6711e-13
7.67078e-13
7.67045e-13
7.6701e-13
7.66973e-13
7.66935e-13
7.66896e-13
7.66855e-13
7.66813e-13
7.66766e-13
7.66712e-13
7.66639e-13
7.66523e-13
7.66308e-13
7.65875e-13
7.64966e-13
7.62626e-13
5.47261e-12
5.49293e-12
5.50167e-12
5.5059e-12
5.508e-12
5.50911e-12
5.50976e-12
5.51022e-12
5.51059e-12
5.51091e-12
5.51122e-12
5.51151e-12
5.51178e-12
5.51205e-12
5.5123e-12
5.51254e-12
5.51277e-12
5.51299e-12
5.51319e-12
5.51337e-12
5.51354e-12
5.51369e-12
5.51383e-12
5.51395e-12
5.51405e-12
5.51414e-12
5.51421e-12
5.51426e-12
5.5143e-12
5.51431e-12
5.51431e-12
5.5143e-12
5.51426e-12
5.51421e-12
5.51414e-12
5.51405e-12
5.51395e-12
5.51383e-12
5.51369e-12
5.51354e-12
5.51337e-12
5.51319e-12
5.51299e-12
5.51277e-12
5.51254e-12
5.5123e-12
5.51205e-12
5.51178e-12
5.51151e-12
5.51122e-12
5.51091e-12
5.51059e-12
5.51022e-12
5.50976e-12
5.50911e-12
5.508e-12
5.5059e-12
5.50167e-12
5.49293e-12
5.47261e-12
3.94018e-11
3.95721e-11
3.96501e-11
3.96884e-11
3.97072e-11
3.9717e-11
3.97227e-11
3.97264e-11
3.97293e-11
3.97318e-11
3.9734e-11
3.97361e-11
3.97381e-11
3.974e-11
3.97419e-11
3.97436e-11
3.97453e-11
3.97468e-11
3.97482e-11
3.97496e-11
3.97508e-11
3.97519e-11
3.97528e-11
3.97537e-11
3.97544e-11
3.97551e-11
3.97556e-11
3.97559e-11
3.97562e-11
3.97563e-11
3.97563e-11
3.97562e-11
3.97559e-11
3.97556e-11
3.97551e-11
3.97544e-11
3.97537e-11
3.97528e-11
3.97519e-11
3.97508e-11
3.97496e-11
3.97482e-11
3.97468e-11
3.97453e-11
3.97436e-11
3.97419e-11
3.974e-11
3.97381e-11
3.97361e-11
3.9734e-11
3.97318e-11
3.97293e-11
3.97264e-11
3.97227e-11
3.9717e-11
3.97072e-11
3.96884e-11
3.96501e-11
3.95721e-11
3.94018e-11
2.81859e-10
2.83235e-10
2.83893e-10
2.84217e-10
2.84377e-10
2.8446e-10
2.84506e-10
2.84535e-10
2.84557e-10
2.84576e-10
2.84592e-10
2.84607e-10
2.84622e-10
2.84635e-10
2.84649e-10
2.84661e-10
2.84672e-10
2.84683e-10
2.84694e-10
2.84703e-10
2.84711e-10
2.84719e-10
2.84726e-10
2.84732e-10
2.84737e-10
2.84742e-10
2.84745e-10
2.84748e-10
2.8475e-10
2.84751e-10
2.84751e-10
2.8475e-10
2.84748e-10
2.84745e-10
2.84742e-10
2.84737e-10
2.84732e-10
2.84726e-10
2.84719e-10
2.84711e-10
2.84703e-10
2.84694e-10
2.84683e-10
2.84672e-10
2.84661e-10
2.84649e-10
2.84635e-10
2.84622e-10
2.84607e-10
2.84592e-10
2.84576e-10
2.84557e-10
2.84535e-10
2.84506e-10
2.8446e-10
2.84377e-10
2.84217e-10
2.83893e-10
2.83235e-10
2.81859e-10
1.98116e-09
1.99183e-09
1.99708e-09
1.99968e-09
2.00096e-09
2.00162e-09
2.00198e-09
2.0022e-09
2.00237e-09
2.0025e-09
2.00262e-09
2.00272e-09
2.00282e-09
2.00292e-09
2.00301e-09
2.00309e-09
2.00318e-09
2.00325e-09
2.00332e-09
2.00339e-09
2.00344e-09
2.0035e-09
2.00355e-09
2.00359e-09
2.00362e-09
2.00365e-09
2.00368e-09
2.0037e-09
2.00371e-09
2.00371e-09
2.00371e-09
2.00371e-09
2.0037e-09
2.00368e-09
2.00365e-09
2.00362e-09
2.00359e-09
2.00355e-09
2.0035e-09
2.00344e-09
2.00339e-09
2.00332e-09
2.00325e-09
2.00318e-09
2.00309e-09
2.00301e-09
2.00292e-09
2.00282e-09
2.00272e-09
2.00262e-09
2.0025e-09
2.00237e-09
2.0022e-09
2.00198e-09
2.00162e-09
2.00096e-09
1.99968e-09
1.99708e-09
1.99183e-09
1.98116e-09
1.35154e-08
1.3594e-08
1.36335e-08
1.36531e-08
1.36628e-08
1.36677e-08
1.36703e-08
1.3672e-08
1.36731e-08
1.3674e-08
1.36748e-08
1.36756e-08
1.36762e-08
1.36769e-08
1.36775e-08
1.3678e-08
1.36786e-08
1.36791e-08
1.36795e-08
1.368e-08
1.36804e-08
1.36807e-08
1.3681e-08
1.36813e-08
1.36816e-08
1.36818e-08
1.36819e-08
1.3682e-08
1.36821e-08
1.36822e-08
1.36822e-08
1.36821e-08
1.3682e-08
1.36819e-08
1.36818e-08
1.36816e-08
1.36813e-08
1.3681e-08
1.36807e-08
1.36804e-08
1.368e-08
1.36795e-08
1.36791e-08
1.36786e-08
1.3678e-08
1.36775e-08
1.36769e-08
1.36762e-08
1.36756e-08
1.36748e-08
1.3674e-08
1.36731e-08
1.3672e-08
1.36703e-08
1.36677e-08
1.36628e-08
1.36531e-08
1.36335e-08
1.3594e-08
1.35154e-08
8.82954e-08
8.88392e-08
8.91164e-08
8.92544e-08
8.93222e-08
8.93565e-08
8.9375e-08
8.93862e-08
8.93939e-08
8.93999e-08
8.94051e-08
8.94097e-08
8.94141e-08
8.94181e-08
8.9422e-08
8.94256e-08
8.94289e-08
8.94321e-08
8.94351e-08
8.94378e-08
8.94403e-08
8.94425e-08
8.94445e-08
8.94462e-08
8.94478e-08
8.9449e-08
8.945e-08
8.94508e-08
8.94513e-08
8.94516e-08
8.94516e-08
8.94513e-08
8.94508e-08
8.945e-08
8.9449e-08
8.94478e-08
8.94462e-08
8.94445e-08
8.94425e-08
8.94403e-08
8.94378e-08
8.94351e-08
8.94321e-08
8.94289e-08
8.94256e-08
8.9422e-08
8.94181e-08
8.94141e-08
8.94097e-08
8.94051e-08
8.93999e-08
8.93939e-08
8.93862e-08
8.9375e-08
8.93565e-08
8.93222e-08
8.92544e-08
8.91164e-08
8.88392e-08
8.82954e-08
5.44545e-07
5.48032e-07
5.49829e-07
5.50724e-07
5.51164e-07
5.51385e-07
5.51504e-07
5.51575e-07
5.51623e-07
5.5166e-07
5.51691e-07
5.51719e-07
5.51744e-07
5.51769e-07
5.51791e-07
5.51813e-07
5.51833e-07
5.51851e-07
5.51869e-07
5.51885e-07
5.519e-07
5.51913e-07
5.51925e-07
5.51935e-07
5.51944e-07
5.51951e-07
5.51957e-07
5.51962e-07
5.51965e-07
5.51966e-07
5.51966e-07
5.51965e-07
5.51962e-07
5.51957e-07
5.51951e-07
5.51944e-07
5.51935e-07
5.51925e-07
5.51913e-07
5.519e-07
5.51885e-07
5.51869e-07
5.51851e-07
5.51833e-07
5.51813e-07
5.51791e-07
5.51769e-07
5.51744e-07
5.51719e-07
5.51691e-07
5.5166e-07
5.51623e-07
5.51575e-07
5.51504e-07
5.51385e-07
5.51164e-07
5.50724e-07
5.49829e-07
5.48032e-07
5.44545e-07
3.1231e-06
3.14353e-06
3.15413e-06
3.15942e-06
3.16201e-06
3.16331e-06
3.16401e-06
3.16442e-06
3.16469e-06
3.1649e-06
3.16507e-06
3.16523e-06
3.16537e-06
3.1655e-06
3.16562e-06
3.16574e-06
3.16585e-06
3.16595e-06
3.16605e-06
3.16613e-06
3.16621e-06
3.16628e-06
3.16635e-06
3.16641e-06
3.16645e-06
3.16649e-06
3.16653e-06
3.16655e-06
3.16657e-06
3.16658e-06
3.16658e-06
3.16657e-06
3.16655e-06
3.16653e-06
3.16649e-06
3.16645e-06
3.16641e-06
3.16635e-06
3.16628e-06
3.16621e-06
3.16613e-06
3.16605e-06
3.16595e-06
3.16585e-06
3.16574e-06
3.16562e-06
3.1655e-06
3.16537e-06
3.16523e-06
3.16507e-06
3.1649e-06
3.16469e-06
3.16442e-06
3.16401e-06
3.16331e-06
3.16201e-06
3.15942e-06
3.15413e-06
3.14353e-06
3.1231e-06
1.63983e-05
1.65059e-05
1.6562e-05
1.65899e-05
1.66037e-05
1.66105e-05
1.66142e-05
1.66163e-05
1.66177e-05
1.66188e-05
1.66196e-05
1.66204e-05
1.66211e-05
1.66218e-05
1.66224e-05
1.6623e-05
1.66235e-05
1.6624e-05
1.66245e-05
1.66249e-05
1.66253e-05
1.66256e-05
1.6626e-05
1.66262e-05
1.66265e-05
1.66267e-05
1.66268e-05
1.66269e-05
1.6627e-05
1.66271e-05
1.66271e-05
1.6627e-05
1.66269e-05
1.66268e-05
1.66267e-05
1.66265e-05
1.66262e-05
1.6626e-05
1.66256e-05
1.66253e-05
1.66249e-05
1.66245e-05
1.6624e-05
1.66235e-05
1.6623e-05
1.66224e-05
1.66218e-05
1.66211e-05
1.66204e-05
1.66196e-05
1.66188e-05
1.66177e-05
1.66163e-05
1.66142e-05
1.66105e-05
1.66037e-05
1.65899e-05
1.6562e-05
1.65059e-05
1.63983e-05
7.75566e-05
7.80575e-05
7.83189e-05
7.84493e-05
7.85132e-05
7.85452e-05
7.85621e-05
7.85719e-05
7.85783e-05
7.8583e-05
7.85869e-05
7.85903e-05
7.85934e-05
7.85962e-05
7.85989e-05
7.86015e-05
7.86038e-05
7.8606e-05
7.8608e-05
7.86099e-05
7.86116e-05
7.86132e-05
7.86145e-05
7.86158e-05
7.86168e-05
7.86177e-05
7.86184e-05
7.86189e-05
7.86192e-05
7.86194e-05
7.86194e-05
7.86192e-05
7.86189e-05
7.86184e-05
7.86177e-05
7.86168e-05
7.86158e-05
7.86145e-05
7.86132e-05
7.86116e-05
7.86099e-05
7.8608e-05
7.8606e-05
7.86038e-05
7.86015e-05
7.85989e-05
7.85962e-05
7.85934e-05
7.85903e-05
7.85869e-05
7.8583e-05
7.85783e-05
7.85719e-05
7.85621e-05
7.85452e-05
7.85132e-05
7.84493e-05
7.83189e-05
7.80575e-05
7.75566e-05
0.000324876
0.000326897
0.000327951
0.000328477
0.000328734
0.000328863
0.000328931
0.00032897
0.000328995
0.000329014
0.000329029
0.000329042
0.000329054
0.000329065
0.000329075
0.000329084
0.000329093
0.000329102
0.00032911
0.000329117
0.000329123
0.000329129
0.000329134
0.000329139
0.000329143
0.000329146
0.000329149
0.000329151
0.000329152
0.000329153
0.000329153
0.000329152
0.000329151
0.000329149
0.000329146
0.000329143
0.000329139
0.000329134
0.000329129
0.000329123
0.000329117
0.00032911
0.000329102
0.000329093
0.000329084
0.000329075
0.000329065
0.000329054
0.000329042
0.000329029
0.000329014
0.000328995
0.00032897
0.000328931
0.000328863
0.000328734
0.000328477
0.000327951
0.000326897
0.000324876
0.00118451
0.00119143
0.00119503
0.00119683
0.00119771
0.00119815
0.00119838
0.00119851
0.0011986
0.00119866
0.00119871
0.00119875
0.00119879
0.00119882
0.00119886
0.00119889
0.00119892
0.00119894
0.00119897
0.00119899
0.00119901
0.00119903
0.00119905
0.00119906
0.00119908
0.00119909
0.0011991
0.0011991
0.00119911
0.00119911
0.00119911
0.00119911
0.0011991
0.0011991
0.00119909
0.00119908
0.00119906
0.00119905
0.00119903
0.00119901
0.00119899
0.00119897
0.00119894
0.00119892
0.00119889
0.00119886
0.00119882
0.00119879
0.00119875
0.00119871
0.00119866
0.0011986
0.00119851
0.00119838
0.00119815
0.00119771
0.00119683
0.00119503
0.00119143
0.00118451
0.00369563
0.00371529
0.00372551
0.0037306
0.0037331
0.00373434
0.00373499
0.00373536
0.00373559
0.00373576
0.0037359
0.00373602
0.00373612
0.00373622
0.00373631
0.00373639
0.00373647
0.00373654
0.00373661
0.00373667
0.00373673
0.00373678
0.00373683
0.00373687
0.0037369
0.00373693
0.00373695
0.00373697
0.00373698
0.00373699
0.00373699
0.00373698
0.00373697
0.00373695
0.00373693
0.0037369
0.00373687
0.00373683
0.00373678
0.00373673
0.00373667
0.00373661
0.00373654
0.00373647
0.00373639
0.00373631
0.00373622
0.00373612
0.00373602
0.0037359
0.00373576
0.00373559
0.00373536
0.00373499
0.00373434
0.0037331
0.0037306
0.00372551
0.00371529
0.00369563
0.00972943
0.00977501
0.0097986
0.00981034
0.00981611
0.00981898
0.00982047
0.00982132
0.00982185
0.00982224
0.00982254
0.0098228
0.00982303
0.00982325
0.00982344
0.00982363
0.0098238
0.00982396
0.00982411
0.00982424
0.00982437
0.00982448
0.00982458
0.00982467
0.00982474
0.0098248
0.00982485
0.00982489
0.00982492
0.00982493
0.00982493
0.00982492
0.00982489
0.00982485
0.0098248
0.00982474
0.00982467
0.00982458
0.00982448
0.00982437
0.00982424
0.00982411
0.00982396
0.0098238
0.00982363
0.00982344
0.00982325
0.00982303
0.0098228
0.00982254
0.00982224
0.00982185
0.00982132
0.00982047
0.00981898
0.00981611
0.00981034
0.0097986
0.00977501
0.00972943
0.0214828
0.0215683
0.0216124
0.0216344
0.0216451
0.0216505
0.0216533
0.0216549
0.0216558
0.0216565
0.0216571
0.0216575
0.021658
0.0216583
0.0216587
0.021659
0.0216593
0.0216596
0.0216599
0.0216601
0.0216603
0.0216605
0.0216607
0.0216609
0.021661
0.0216611
0.0216612
0.0216613
0.0216613
0.0216613
0.0216613
0.0216613
0.0216613
0.0216612
0.0216611
0.021661
0.0216609
0.0216607
0.0216605
0.0216603
0.0216601
0.0216599
0.0216596
0.0216593
0.021659
0.0216587
0.0216583
0.021658
0.0216575
0.0216571
0.0216565
0.0216558
0.0216549
0.0216533
0.0216505
0.0216451
0.0216344
0.0216124
0.0215683
0.0214828
0.0400606
0.0401925
0.0402601
0.0402937
0.0403103
0.0403185
0.0403228
0.0403252
0.0403267
0.0403277
0.0403285
0.0403292
0.0403298
0.0403304
0.0403309
0.0403314
0.0403318
0.0403322
0.0403326
0.040333
0.0403333
0.0403336
0.0403338
0.040334
0.0403342
0.0403344
0.0403345
0.0403346
0.0403347
0.0403347
0.0403347
0.0403347
0.0403346
0.0403345
0.0403344
0.0403342
0.040334
0.0403338
0.0403336
0.0403333
0.040333
0.0403326
0.0403322
0.0403318
0.0403314
0.0403309
0.0403304
0.0403298
0.0403292
0.0403285
0.0403277
0.0403267
0.0403252
0.0403228
0.0403185
0.0403103
0.0402937
0.0402601
0.0401925
0.0400606
0.0644467
0.06462
0.0647085
0.0647525
0.0647742
0.064785
0.0647906
0.0647937
0.0647956
0.064797
0.064798
0.0647989
0.0647996
0.0648003
0.064801
0.0648015
0.0648021
0.0648026
0.0648031
0.0648035
0.0648039
0.0648042
0.0648046
0.0648048
0.0648051
0.0648053
0.0648054
0.0648055
0.0648056
0.0648057
0.0648057
0.0648056
0.0648055
0.0648054
0.0648053
0.0648051
0.0648048
0.0648046
0.0648042
0.0648039
0.0648035
0.0648031
0.0648026
0.0648021
0.0648015
0.064801
0.0648003
0.0647996
0.0647989
0.064798
0.064797
0.0647956
0.0647937
0.0647906
0.064785
0.0647742
0.0647525
0.0647085
0.06462
0.0644467
0.0922224
0.0924268
0.0925308
0.0925826
0.0926081
0.0926209
0.0926275
0.0926311
0.0926334
0.0926349
0.0926361
0.092637
0.0926379
0.0926387
0.0926394
0.09264
0.0926406
0.0926412
0.0926417
0.0926422
0.0926426
0.092643
0.0926433
0.0926436
0.0926439
0.0926441
0.0926443
0.0926444
0.0926445
0.0926446
0.0926446
0.0926445
0.0926444
0.0926443
0.0926441
0.0926439
0.0926436
0.0926433
0.092643
0.0926426
0.0926422
0.0926417
0.0926412
0.0926406
0.09264
0.0926394
0.0926387
0.0926379
0.092637
0.0926361
0.0926349
0.0926334
0.0926311
0.0926275
0.0926209
0.0926081
0.0925826
0.0925308
0.0924268
0.0922224
0.121164
0.121391
0.121506
0.121564
0.121592
0.121606
0.121614
0.121618
0.12162
0.121622
0.121623
0.121624
0.121625
0.121626
0.121626
0.121627
0.121628
0.121628
0.121629
0.121629
0.12163
0.12163
0.121631
0.121631
0.121631
0.121631
0.121632
0.121632
0.121632
0.121632
0.121632
0.121632
0.121632
0.121632
0.121631
0.121631
0.121631
0.121631
0.12163
0.12163
0.121629
0.121629
0.121628
0.121628
0.121627
0.121626
0.121626
0.121625
0.121624
0.121623
0.121622
0.12162
0.121618
0.121614
0.121606
0.121592
0.121564
0.121506
0.121391
0.121164
0.150042
0.150287
0.150412
0.150474
0.150505
0.150521
0.150529
0.150533
0.150536
0.150537
0.150539
0.15054
0.150541
0.150542
0.150542
0.150543
0.150544
0.150544
0.150545
0.150545
0.150546
0.150546
0.150546
0.150547
0.150547
0.150547
0.150547
0.150548
0.150548
0.150548
0.150548
0.150548
0.150548
0.150547
0.150547
0.150547
0.150547
0.150546
0.150546
0.150546
0.150545
0.150545
0.150544
0.150544
0.150543
0.150542
0.150542
0.150541
0.15054
0.150539
0.150537
0.150536
0.150533
0.150529
0.150521
0.150505
0.150474
0.150412
0.150287
0.150042
0.17844
0.178701
0.178834
0.178901
0.178934
0.178951
0.178959
0.178964
0.178967
0.178969
0.17897
0.178971
0.178972
0.178973
0.178974
0.178975
0.178975
0.178976
0.178976
0.178977
0.178977
0.178978
0.178978
0.178978
0.178979
0.178979
0.178979
0.178979
0.178979
0.178979
0.178979
0.178979
0.178979
0.178979
0.178979
0.178979
0.178978
0.178978
0.178978
0.178977
0.178977
0.178976
0.178976
0.178975
0.178975
0.178974
0.178973
0.178972
0.178971
0.17897
0.178969
0.178967
0.178964
0.178959
0.178951
0.178934
0.178901
0.178834
0.178701
0.17844
0.206304
0.20658
0.206721
0.206793
0.206829
0.206847
0.206856
0.206861
0.206864
0.206866
0.206867
0.206869
0.206869
0.20687
0.206871
0.206872
0.206872
0.206873
0.206874
0.206874
0.206875
0.206875
0.206875
0.206876
0.206876
0.206876
0.206876
0.206876
0.206877
0.206877
0.206877
0.206877
0.206876
0.206876
0.206876
0.206876
0.206876
0.206875
0.206875
0.206875
0.206874
0.206874
0.206873
0.206872
0.206872
0.206871
0.20687
0.206869
0.206869
0.206867
0.206866
0.206864
0.206861
0.206856
0.206847
0.206829
0.206793
0.206721
0.20658
0.206304
0.233672
0.233962
0.234112
0.234188
0.234226
0.234245
0.234255
0.234261
0.234264
0.234266
0.234268
0.234269
0.23427
0.234271
0.234272
0.234272
0.234273
0.234273
0.234274
0.234275
0.234275
0.234275
0.234276
0.234276
0.234276
0.234277
0.234277
0.234277
0.234277
0.234277
0.234277
0.234277
0.234277
0.234277
0.234277
0.234276
0.234276
0.234276
0.234275
0.234275
0.234275
0.234274
0.234273
0.234273
0.234272
0.234272
0.234271
0.23427
0.234269
0.234268
0.234266
0.234264
0.234261
0.234255
0.234245
0.234226
0.234188
0.234112
0.233962
0.233672
0.260573
0.260877
0.261035
0.261115
0.261156
0.261176
0.261187
0.261193
0.261197
0.261199
0.2612
0.261202
0.261203
0.261203
0.261204
0.261205
0.261206
0.261206
0.261207
0.261207
0.261208
0.261208
0.261208
0.261209
0.261209
0.261209
0.261209
0.26121
0.26121
0.26121
0.26121
0.26121
0.26121
0.261209
0.261209
0.261209
0.261209
0.261208
0.261208
0.261208
0.261207
0.261207
0.261206
0.261206
0.261205
0.261204
0.261203
0.261203
0.261202
0.2612
0.261199
0.261197
0.261193
0.261187
0.261176
0.261156
0.261115
0.261035
0.260877
0.260573
0.287015
0.287331
0.287496
0.287581
0.287625
0.287647
0.287658
0.287665
0.287668
0.287671
0.287672
0.287674
0.287675
0.287675
0.287676
0.287677
0.287678
0.287678
0.287679
0.287679
0.28768
0.28768
0.28768
0.287681
0.287681
0.287681
0.287681
0.287682
0.287682
0.287682
0.287682
0.287682
0.287682
0.287681
0.287681
0.287681
0.287681
0.28768
0.28768
0.28768
0.287679
0.287679
0.287678
0.287678
0.287677
0.287676
0.287675
0.287675
0.287674
0.287672
0.287671
0.287668
0.287665
0.287658
0.287647
0.287625
0.287581
0.287496
0.287331
0.287015
0.312991
0.313317
0.31349
0.31358
0.313626
0.313649
0.313662
0.313668
0.313672
0.313675
0.313676
0.313678
0.313679
0.31368
0.31368
0.313681
0.313682
0.313682
0.313683
0.313683
0.313684
0.313684
0.313685
0.313685
0.313685
0.313685
0.313686
0.313686
0.313686
0.313686
0.313686
0.313686
0.313686
0.313686
0.313685
0.313685
0.313685
0.313685
0.313684
0.313684
0.313683
0.313683
0.313682
0.313682
0.313681
0.31368
0.31368
0.313679
0.313678
0.313676
0.313675
0.313672
0.313668
0.313662
0.313649
0.313626
0.31358
0.31349
0.313317
0.312991
0.338486
0.338822
0.339002
0.339096
0.339145
0.33917
0.339183
0.33919
0.339194
0.339197
0.339199
0.3392
0.339201
0.339202
0.339203
0.339203
0.339204
0.339205
0.339205
0.339206
0.339206
0.339207
0.339207
0.339207
0.339208
0.339208
0.339208
0.339208
0.339208
0.339208
0.339208
0.339208
0.339208
0.339208
0.339208
0.339208
0.339207
0.339207
0.339207
0.339206
0.339206
0.339205
0.339205
0.339204
0.339203
0.339203
0.339202
0.339201
0.3392
0.339199
0.339197
0.339194
0.33919
0.339183
0.33917
0.339145
0.339096
0.339002
0.338822
0.338486
0.363484
0.363829
0.364016
0.364114
0.364165
0.364192
0.364206
0.364214
0.364218
0.364221
0.364223
0.364224
0.364225
0.364226
0.364227
0.364227
0.364228
0.364229
0.364229
0.36423
0.36423
0.36423
0.364231
0.364231
0.364231
0.364232
0.364232
0.364232
0.364232
0.364232
0.364232
0.364232
0.364232
0.364232
0.364232
0.364231
0.364231
0.364231
0.36423
0.36423
0.36423
0.364229
0.364229
0.364228
0.364227
0.364227
0.364226
0.364225
0.364224
0.364223
0.364221
0.364218
0.364214
0.364206
0.364192
0.364165
0.364114
0.364016
0.363829
0.363484
0.387968
0.388321
0.388514
0.388617
0.388671
0.388699
0.388714
0.388722
0.388727
0.38873
0.388732
0.388733
0.388734
0.388735
0.388736
0.388737
0.388737
0.388738
0.388738
0.388739
0.388739
0.38874
0.38874
0.38874
0.38874
0.388741
0.388741
0.388741
0.388741
0.388741
0.388741
0.388741
0.388741
0.388741
0.388741
0.38874
0.38874
0.38874
0.38874
0.388739
0.388739
0.388738
0.388738
0.388737
0.388737
0.388736
0.388735
0.388734
0.388733
0.388732
0.38873
0.388727
0.388722
0.388714
0.388699
0.388671
0.388617
0.388514
0.388321
0.387968
0.411924
0.412284
0.412483
0.41259
0.412646
0.412676
0.412692
0.4127
0.412705
0.412708
0.41271
0.412712
0.412713
0.412714
0.412715
0.412715
0.412716
0.412716
0.412717
0.412717
0.412718
0.412718
0.412719
0.412719
0.412719
0.412719
0.41272
0.41272
0.41272
0.41272
0.41272
0.41272
0.41272
0.41272
0.412719
0.412719
0.412719
0.412719
0.412718
0.412718
0.412717
0.412717
0.412716
0.412716
0.412715
0.412715
0.412714
0.412713
0.412712
0.41271
0.412708
0.412705
0.4127
0.412692
0.412676
0.412646
0.41259
0.412483
0.412284
0.411924
0.435337
0.435702
0.435907
0.436018
0.436077
0.436108
0.436125
0.436134
0.436139
0.436143
0.436145
0.436146
0.436147
0.436148
0.436149
0.43615
0.43615
0.436151
0.436151
0.436152
0.436152
0.436153
0.436153
0.436153
0.436153
0.436154
0.436154
0.436154
0.436154
0.436154
0.436154
0.436154
0.436154
0.436154
0.436154
0.436153
0.436153
0.436153
0.436153
0.436152
0.436152
0.436151
0.436151
0.43615
0.43615
0.436149
0.436148
0.436147
0.436146
0.436145
0.436143
0.436139
0.436134
0.436125
0.436108
0.436077
0.436018
0.435907
0.435702
0.435337
0.458195
0.458565
0.458774
0.458889
0.45895
0.458983
0.459001
0.459011
0.459017
0.45902
0.459022
0.459024
0.459025
0.459026
0.459027
0.459027
0.459028
0.459028
0.459029
0.459029
0.45903
0.45903
0.45903
0.459031
0.459031
0.459031
0.459031
0.459031
0.459032
0.459032
0.459032
0.459032
0.459031
0.459031
0.459031
0.459031
0.459031
0.45903
0.45903
0.45903
0.459029
0.459029
0.459028
0.459028
0.459027
0.459027
0.459026
0.459025
0.459024
0.459022
0.45902
0.459017
0.459011
0.459001
0.458983
0.45895
0.458889
0.458774
0.458565
0.458195
0.480487
0.48086
0.481074
0.481192
0.481257
0.481291
0.48131
0.481321
0.481327
0.48133
0.481332
0.481334
0.481335
0.481336
0.481337
0.481338
0.481338
0.481339
0.481339
0.48134
0.48134
0.48134
0.481341
0.481341
0.481341
0.481341
0.481342
0.481342
0.481342
0.481342
0.481342
0.481342
0.481342
0.481342
0.481341
0.481341
0.481341
0.481341
0.48134
0.48134
0.48134
0.481339
0.481339
0.481338
0.481338
0.481337
0.481336
0.481335
0.481334
0.481332
0.48133
0.481327
0.481321
0.48131
0.481291
0.481257
0.481192
0.481074
0.48086
0.480487
0.502205
0.50258
0.502798
0.50292
0.502987
0.503023
0.503043
0.503054
0.503061
0.503064
0.503067
0.503069
0.50307
0.503071
0.503071
0.503072
0.503073
0.503073
0.503074
0.503074
0.503074
0.503075
0.503075
0.503075
0.503076
0.503076
0.503076
0.503076
0.503076
0.503076
0.503076
0.503076
0.503076
0.503076
0.503076
0.503076
0.503075
0.503075
0.503075
0.503075
0.503074
0.503074
0.503073
0.503073
0.503072
0.503071
0.503071
0.50307
0.503069
0.503067
0.503064
0.503061
0.503054
0.503043
0.503023
0.502987
0.50292
0.502798
0.50258
0.502205
0.523342
0.523718
0.52394
0.524065
0.524135
0.524173
0.524193
0.524205
0.524212
0.524216
0.524219
0.52422
0.524222
0.524222
0.524223
0.524224
0.524224
0.524225
0.524225
0.524226
0.524226
0.524227
0.524227
0.524227
0.524227
0.524227
0.524228
0.524228
0.524228
0.524228
0.524228
0.524228
0.524228
0.524228
0.524227
0.524227
0.524227
0.524227
0.524227
0.524226
0.524226
0.524225
0.524225
0.524224
0.524224
0.524223
0.524222
0.524222
0.52422
0.524219
0.524216
0.524212
0.524205
0.524193
0.524173
0.524135
0.524065
0.52394
0.523718
0.523342
0.543892
0.544269
0.544494
0.544623
0.544694
0.544734
0.544756
0.544768
0.544775
0.54478
0.544782
0.544784
0.544785
0.544786
0.544787
0.544788
0.544788
0.544789
0.544789
0.54479
0.54479
0.54479
0.544791
0.544791
0.544791
0.544791
0.544791
0.544792
0.544792
0.544792
0.544792
0.544792
0.544792
0.544791
0.544791
0.544791
0.544791
0.544791
0.54479
0.54479
0.54479
0.544789
0.544789
0.544788
0.544788
0.544787
0.544786
0.544785
0.544784
0.544782
0.54478
0.544775
0.544768
0.544756
0.544734
0.544694
0.544623
0.544494
0.544269
0.543892
0.563853
0.56423
0.564457
0.564589
0.564663
0.564704
0.564727
0.56474
0.564748
0.564752
0.564755
0.564757
0.564758
0.564759
0.56476
0.564761
0.564761
0.564762
0.564762
0.564763
0.564763
0.564763
0.564763
0.564764
0.564764
0.564764
0.564764
0.564764
0.564764
0.564764
0.564764
0.564764
0.564764
0.564764
0.564764
0.564764
0.564764
0.564763
0.564763
0.564763
0.564763
0.564762
0.564762
0.564761
0.564761
0.56476
0.564759
0.564758
0.564757
0.564755
0.564752
0.564748
0.56474
0.564727
0.564704
0.564663
0.564589
0.564457
0.56423
0.563853
0.583222
0.583598
0.583828
0.583962
0.584038
0.584081
0.584106
0.584119
0.584127
0.584132
0.584135
0.584137
0.584138
0.584139
0.58414
0.584141
0.584141
0.584142
0.584142
0.584143
0.584143
0.584143
0.584143
0.584144
0.584144
0.584144
0.584144
0.584144
0.584144
0.584144
0.584144
0.584144
0.584144
0.584144
0.584144
0.584144
0.584144
0.584143
0.584143
0.584143
0.584143
0.584142
0.584142
0.584141
0.584141
0.58414
0.584139
0.584138
0.584137
0.584135
0.584132
0.584127
0.584119
0.584106
0.584081
0.584038
0.583962
0.583828
0.583598
0.583222
0.602
0.602374
0.602605
0.602742
0.602821
0.602865
0.602891
0.602905
0.602914
0.602919
0.602922
0.602924
0.602925
0.602926
0.602927
0.602928
0.602928
0.602929
0.602929
0.60293
0.60293
0.60293
0.60293
0.602931
0.602931
0.602931
0.602931
0.602931
0.602931
0.602931
0.602931
0.602931
0.602931
0.602931
0.602931
0.602931
0.602931
0.60293
0.60293
0.60293
0.60293
0.602929
0.602929
0.602928
0.602928
0.602927
0.602926
0.602925
0.602924
0.602922
0.602919
0.602914
0.602905
0.602891
0.602865
0.602821
0.602742
0.602605
0.602374
0.602
0.620187
0.620559
0.620791
0.62093
0.621011
0.621058
0.621084
0.6211