/*--------------------------------*- C++ -*----------------------------------*\
| =========                 |                                                 |
| \\      /  F ield         | foam-extend: Open Source CFD                    |
|  \\    /   O peration     | Version:     4.0                                |
|   \\  /    A nd           | Web:         http://www.foam-extend.org         |
|    \\/     M anipulation  |                                                 |
\*---------------------------------------------------------------------------*/
FoamFile
{
    version     2.0;
    format      ascii;
    class       volScalarField;
    location    "30";
    object      psiE;
}
// * * * * * * * * * * * * * * * * * * * * * * * * * * * * * * * * * * * * * //

dimensions      [0 0 0 0 0 0 0];

internalField   nonuniform List<scalar> 
6960
(
0.139688
0.139664
0.13966
0.139659
0.139659
0.139659
0.139659
0.139659
0.139659
0.139659
0.139659
0.13966
0.13966
0.13966
0.139661
0.139661
0.139661
0.139661
0.139662
0.139662
0.139662
0.139662
0.139662
0.139662
0.139663
0.139663
0.139663
0.139663
0.139663
0.139663
0.139663
0.139663
0.139663
0.139663
0.139663
0.139663
0.139662
0.139662
0.139662
0.139662
0.139662
0.139662
0.139661
0.139661
0.139661
0.139661
0.13966
0.13966
0.13966
0.139659
0.139659
0.139659
0.139659
0.139659
0.139659
0.139659
0.139659
0.13966
0.139664
0.139688
0.247653
0.247606
0.247598
0.247596
0.247595
0.247595
0.247596
0.247596
0.247597
0.247598
0.247598
0.247599
0.2476
0.247601
0.247602
0.247603
0.247603
0.247604
0.247605
0.247606
0.247606
0.247607
0.247607
0.247608
0.247608
0.247608
0.247608
0.247609
0.247609
0.247609
0.247609
0.247609
0.247609
0.247608
0.247608
0.247608
0.247608
0.247607
0.247607
0.247606
0.247606
0.247605
0.247604
0.247603
0.247603
0.247602
0.247601
0.2476
0.247599
0.247598
0.247598
0.247597
0.247596
0.247596
0.247595
0.247595
0.247596
0.247598
0.247606
0.247653
0.294617
0.29456
0.29455
0.294547
0.294546
0.294546
0.294547
0.294548
0.294549
0.29455
0.294552
0.294553
0.294555
0.294556
0.294557
0.294559
0.29456
0.294561
0.294563
0.294564
0.294565
0.294566
0.294566
0.294567
0.294568
0.294568
0.294569
0.294569
0.294569
0.294569
0.294569
0.294569
0.294569
0.294569
0.294568
0.294568
0.294567
0.294566
0.294566
0.294565
0.294564
0.294563
0.294561
0.29456
0.294559
0.294557
0.294556
0.294555
0.294553
0.294552
0.29455
0.294549
0.294548
0.294547
0.294546
0.294546
0.294547
0.29455
0.29456
0.294617
0.319546
0.319485
0.319473
0.319469
0.319468
0.319469
0.31947
0.319471
0.319473
0.319475
0.319477
0.319479
0.319481
0.319483
0.319485
0.319487
0.319489
0.31949
0.319492
0.319494
0.319495
0.319496
0.319497
0.319498
0.319499
0.3195
0.319501
0.319501
0.319501
0.319502
0.319502
0.319501
0.319501
0.319501
0.3195
0.319499
0.319498
0.319497
0.319496
0.319495
0.319494
0.319492
0.31949
0.319489
0.319487
0.319485
0.319483
0.319481
0.319479
0.319477
0.319475
0.319473
0.319471
0.31947
0.319469
0.319468
0.319469
0.319473
0.319485
0.319546
0.336273
0.336211
0.336197
0.336194
0.336193
0.336194
0.336195
0.336197
0.336199
0.336202
0.336204
0.336207
0.336209
0.336212
0.336215
0.336217
0.33622
0.336222
0.336224
0.336226
0.336228
0.33623
0.336231
0.336233
0.336234
0.336235
0.336236
0.336236
0.336236
0.336237
0.336237
0.336236
0.336236
0.336236
0.336235
0.336234
0.336233
0.336231
0.33623
0.336228
0.336226
0.336224
0.336222
0.33622
0.336217
0.336215
0.336212
0.336209
0.336207
0.336204
0.336202
0.336199
0.336197
0.336195
0.336194
0.336193
0.336194
0.336197
0.336211
0.336273
0.349517
0.349454
0.34944
0.349436
0.349435
0.349436
0.349438
0.34944
0.349443
0.349446
0.349449
0.349453
0.349456
0.349459
0.349462
0.349466
0.349469
0.349472
0.349474
0.349477
0.349479
0.349481
0.349483
0.349485
0.349486
0.349487
0.349488
0.349489
0.349489
0.34949
0.34949
0.349489
0.349489
0.349488
0.349487
0.349486
0.349485
0.349483
0.349481
0.349479
0.349477
0.349474
0.349472
0.349469
0.349466
0.349462
0.349459
0.349456
0.349453
0.349449
0.349446
0.349443
0.34944
0.349438
0.349436
0.349435
0.349436
0.34944
0.349454
0.349517
0.360875
0.360812
0.360797
0.360792
0.360792
0.360793
0.360795
0.360798
0.360802
0.360805
0.360809
0.360813
0.360817
0.360821
0.360825
0.360829
0.360832
0.360836
0.360839
0.360842
0.360845
0.360847
0.360849
0.360851
0.360853
0.360855
0.360856
0.360857
0.360857
0.360857
0.360857
0.360857
0.360857
0.360856
0.360855
0.360853
0.360851
0.360849
0.360847
0.360845
0.360842
0.360839
0.360836
0.360832
0.360829
0.360825
0.360821
0.360817
0.360813
0.360809
0.360805
0.360802
0.360798
0.360795
0.360793
0.360792
0.360792
0.360797
0.360812
0.360875
0.370932
0.370869
0.370853
0.370848
0.370848
0.37085
0.370852
0.370856
0.37086
0.370864
0.370868
0.370873
0.370878
0.370882
0.370887
0.370891
0.370896
0.3709
0.370903
0.370907
0.37091
0.370913
0.370916
0.370918
0.37092
0.370922
0.370923
0.370924
0.370925
0.370925
0.370925
0.370925
0.370924
0.370923
0.370922
0.37092
0.370918
0.370916
0.370913
0.37091
0.370907
0.370903
0.3709
0.370896
0.370891
0.370887
0.370882
0.370878
0.370873
0.370868
0.370864
0.37086
0.370856
0.370852
0.37085
0.370848
0.370848
0.370853
0.370869
0.370932
0.379954
0.379891
0.379874
0.37987
0.37987
0.379872
0.379875
0.379879
0.379883
0.379888
0.379893
0.379899
0.379904
0.379909
0.379915
0.37992
0.379925
0.379929
0.379934
0.379938
0.379942
0.379945
0.379948
0.379951
0.379953
0.379955
0.379956
0.379957
0.379958
0.379959
0.379959
0.379958
0.379957
0.379956
0.379955
0.379953
0.379951
0.379948
0.379945
0.379942
0.379938
0.379934
0.379929
0.379925
0.37992
0.379915
0.379909
0.379904
0.379899
0.379893
0.379888
0.379883
0.379879
0.379875
0.379872
0.37987
0.37987
0.379874
0.379891
0.379954
0.388103
0.38804
0.388023
0.388018
0.388018
0.38802
0.388024
0.388029
0.388034
0.388039
0.388045
0.388051
0.388057
0.388063
0.388069
0.388075
0.388081
0.388086
0.388091
0.388095
0.3881
0.388103
0.388107
0.38811
0.388113
0.388115
0.388116
0.388118
0.388119
0.388119
0.388119
0.388119
0.388118
0.388116
0.388115
0.388113
0.38811
0.388107
0.388103
0.3881
0.388095
0.388091
0.388086
0.388081
0.388075
0.388069
0.388063
0.388057
0.388051
0.388045
0.388039
0.388034
0.388029
0.388024
0.38802
0.388018
0.388018
0.388023
0.38804
0.388103
0.395498
0.395436
0.395418
0.395413
0.395413
0.395416
0.39542
0.395425
0.395431
0.395437
0.395444
0.395451
0.395457
0.395464
0.395471
0.395477
0.395484
0.39549
0.395495
0.3955
0.395505
0.395509
0.395513
0.395517
0.395519
0.395522
0.395524
0.395525
0.395526
0.395527
0.395527
0.395526
0.395525
0.395524
0.395522
0.395519
0.395517
0.395513
0.395509
0.395505
0.3955
0.395495
0.39549
0.395484
0.395477
0.395471
0.395464
0.395457
0.395451
0.395444
0.395437
0.395431
0.395425
0.39542
0.395416
0.395413
0.395413
0.395418
0.395436
0.395498
0.40224
0.402178
0.402159
0.402155
0.402155
0.402158
0.402163
0.402168
0.402175
0.402182
0.402189
0.402197
0.402204
0.402212
0.402219
0.402226
0.402233
0.40224
0.402246
0.402252
0.402257
0.402262
0.402266
0.40227
0.402273
0.402276
0.402278
0.40228
0.402281
0.402281
0.402281
0.402281
0.40228
0.402278
0.402276
0.402273
0.40227
0.402266
0.402262
0.402257
0.402252
0.402246
0.40224
0.402233
0.402226
0.402219
0.402212
0.402204
0.402197
0.402189
0.402182
0.402175
0.402168
0.402163
0.402158
0.402155
0.402155
0.402159
0.402178
0.40224
0.408413
0.408351
0.408333
0.408328
0.408329
0.408332
0.408337
0.408343
0.408351
0.408358
0.408366
0.408375
0.408383
0.408391
0.4084
0.408408
0.408415
0.408423
0.408429
0.408436
0.408442
0.408447
0.408452
0.408456
0.408459
0.408462
0.408465
0.408466
0.408468
0.408468
0.408468
0.408468
0.408466
0.408465
0.408462
0.408459
0.408456
0.408452
0.408447
0.408442
0.408436
0.408429
0.408423
0.408415
0.408408
0.4084
0.408391
0.408383
0.408375
0.408366
0.408358
0.408351
0.408343
0.408337
0.408332
0.408329
0.408328
0.408333
0.408351
0.408413
0.414092
0.414032
0.414013
0.414008
0.414009
0.414013
0.414018
0.414025
0.414033
0.414042
0.41405
0.41406
0.414069
0.414078
0.414087
0.414096
0.414104
0.414112
0.41412
0.414127
0.414133
0.414139
0.414144
0.414148
0.414152
0.414156
0.414158
0.41416
0.414162
0.414162
0.414162
0.414162
0.41416
0.414158
0.414156
0.414152
0.414148
0.414144
0.414139
0.414133
0.414127
0.41412
0.414112
0.414104
0.414096
0.414087
0.414078
0.414069
0.41406
0.41405
0.414042
0.414033
0.414025
0.414018
0.414013
0.414009
0.414008
0.414013
0.414032
0.414092
0.419344
0.419284
0.419265
0.41926
0.419262
0.419266
0.419272
0.41928
0.419288
0.419298
0.419307
0.419317
0.419327
0.419337
0.419347
0.419357
0.419366
0.419375
0.419383
0.41939
0.419397
0.419404
0.419409
0.419414
0.419419
0.419422
0.419425
0.419427
0.419428
0.419429
0.419429
0.419428
0.419427
0.419425
0.419422
0.419419
0.419414
0.419409
0.419404
0.419397
0.41939
0.419383
0.419375
0.419366
0.419357
0.419347
0.419337
0.419327
0.419317
0.419307
0.419298
0.419288
0.41928
0.419272
0.419266
0.419262
0.41926
0.419265
0.419284
0.419344
0.424227
0.424168
0.424149
0.424144
0.424146
0.42415
0.424157
0.424166
0.424175
0.424185
0.424195
0.424206
0.424217
0.424228
0.424239
0.424249
0.424259
0.424268
0.424277
0.424286
0.424293
0.4243
0.424306
0.424312
0.424316
0.42432
0.424323
0.424325
0.424327
0.424328
0.424328
0.424327
0.424325
0.424323
0.42432
0.424316
0.424312
0.424306
0.4243
0.424293
0.424286
0.424277
0.424268
0.424259
0.424249
0.424239
0.424228
0.424217
0.424206
0.424195
0.424185
0.424175
0.424166
0.424157
0.42415
0.424146
0.424144
0.424149
0.424168
0.424227
0.428793
0.428735
0.428716
0.428711
0.428713
0.428718
0.428726
0.428735
0.428745
0.428756
0.428767
0.428779
0.428791
0.428802
0.428814
0.428825
0.428836
0.428846
0.428856
0.428865
0.428873
0.42888
0.428887
0.428893
0.428898
0.428902
0.428905
0.428908
0.428909
0.42891
0.42891
0.428909
0.428908
0.428905
0.428902
0.428898
0.428893
0.428887
0.42888
0.428873
0.428865
0.428856
0.428846
0.428836
0.428825
0.428814
0.428802
0.428791
0.428779
0.428767
0.428756
0.428745
0.428735
0.428726
0.428718
0.428713
0.428711
0.428716
0.428735
0.428793
0.433089
0.433033
0.433013
0.433009
0.433011
0.433016
0.433025
0.433034
0.433045
0.433057
0.433069
0.433082
0.433094
0.433107
0.43312
0.433132
0.433143
0.433154
0.433165
0.433174
0.433183
0.433191
0.433198
0.433205
0.43321
0.433214
0.433218
0.433221
0.433223
0.433223
0.433223
0.433223
0.433221
0.433218
0.433214
0.43321
0.433205
0.433198
0.433191
0.433183
0.433174
0.433165
0.433154
0.433143
0.433132
0.43312
0.433107
0.433094
0.433082
0.433069
0.433057
0.433045
0.433034
0.433025
0.433016
0.433011
0.433009
0.433013
0.433033
0.433089
0.437157
0.437102
0.437083
0.437078
0.437081
0.437087
0.437096
0.437106
0.437118
0.43713
0.437144
0.437157
0.437171
0.437185
0.437198
0.437211
0.437223
0.437235
0.437246
0.437257
0.437266
0.437275
0.437283
0.437289
0.437295
0.4373
0.437304
0.437307
0.437309
0.43731
0.43731
0.437309
0.437307
0.437304
0.4373
0.437295
0.437289
0.437283
0.437275
0.437266
0.437257
0.437246
0.437235
0.437223
0.437211
0.437198
0.437185
0.437171
0.437157
0.437144
0.43713
0.437118
0.437106
0.437096
0.437087
0.437081
0.437078
0.437083
0.437102
0.437157
0.441036
0.440982
0.440963
0.440958
0.440961
0.440968
0.440977
0.440989
0.441001
0.441015
0.441029
0.441043
0.441058
0.441073
0.441087
0.441101
0.441114
0.441127
0.441139
0.44115
0.44116
0.441169
0.441178
0.441185
0.441191
0.441196
0.4412
0.441203
0.441206
0.441207
0.441207
0.441206
0.441203
0.4412
0.441196
0.441191
0.441185
0.441178
0.441169
0.44116
0.44115
0.441139
0.441127
0.441114
0.441101
0.441087
0.441073
0.441058
0.441043
0.441029
0.441015
0.441001
0.440989
0.440977
0.440968
0.440961
0.440958
0.440963
0.440982
0.441036
0.444758
0.444706
0.444687
0.444683
0.444686
0.444694
0.444704
0.444716
0.444729
0.444744
0.444759
0.444774
0.44479
0.444806
0.444821
0.444836
0.44485
0.444864
0.444876
0.444888
0.444899
0.444909
0.444918
0.444926
0.444932
0.444938
0.444942
0.444945
0.444948
0.444949
0.444949
0.444948
0.444945
0.444942
0.444938
0.444932
0.444926
0.444918
0.444909
0.444899
0.444888
0.444876
0.444864
0.44485
0.444836
0.444821
0.444806
0.44479
0.444774
0.444759
0.444744
0.444729
0.444716
0.444704
0.444694
0.444686
0.444683
0.444687
0.444706
0.444758
0.448356
0.448306
0.448287
0.448284
0.448287
0.448295
0.448306
0.448319
0.448333
0.448349
0.448365
0.448381
0.448398
0.448415
0.448431
0.448447
0.448462
0.448477
0.44849
0.448503
0.448514
0.448525
0.448534
0.448542
0.448549
0.448555
0.44856
0.448564
0.448566
0.448567
0.448567
0.448566
0.448564
0.44856
0.448555
0.448549
0.448542
0.448534
0.448525
0.448514
0.448503
0.44849
0.448477
0.448462
0.448447
0.448431
0.448415
0.448398
0.448381
0.448365
0.448349
0.448333
0.448319
0.448306
0.448295
0.448287
0.448284
0.448287
0.448306
0.448356
0.451858
0.45181
0.451791
0.451788
0.451792
0.4518
0.451812
0.451826
0.451841
0.451857
0.451874
0.451892
0.45191
0.451928
0.451945
0.451962
0.451978
0.451993
0.452008
0.452021
0.452034
0.452045
0.452055
0.452064
0.452071
0.452077
0.452082
0.452086
0.452089
0.45209
0.45209
0.452089
0.452086
0.452082
0.452077
0.452071
0.452064
0.452055
0.452045
0.452034
0.452021
0.452008
0.451993
0.451978
0.451962
0.451945
0.451928
0.45191
0.451892
0.451874
0.451857
0.451841
0.451826
0.451812
0.4518
0.451792
0.451788
0.451791
0.45181
0.451858
0.455289
0.455242
0.455224
0.455221
0.455225
0.455235
0.455247
0.455261
0.455278
0.455295
0.455313
0.455332
0.455351
0.45537
0.455388
0.455406
0.455423
0.45544
0.455455
0.455469
0.455482
0.455494
0.455505
0.455514
0.455522
0.455529
0.455534
0.455538
0.455541
0.455542
0.455542
0.455541
0.455538
0.455534
0.455529
0.455522
0.455514
0.455505
0.455494
0.455482
0.455469
0.455455
0.45544
0.455423
0.455406
0.455388
0.45537
0.455351
0.455332
0.455313
0.455295
0.455278
0.455261
0.455247
0.455235
0.455225
0.455221
0.455224
0.455242
0.455289
0.458671
0.458626
0.458609
0.458606
0.458611
0.458621
0.458634
0.458649
0.458666
0.458685
0.458704
0.458724
0.458744
0.458764
0.458784
0.458803
0.458821
0.458838
0.458855
0.45887
0.458884
0.458896
0.458907
0.458917
0.458926
0.458933
0.458939
0.458943
0.458946
0.458947
0.458947
0.458946
0.458943
0.458939
0.458933
0.458926
0.458917
0.458907
0.458896
0.458884
0.45887
0.458855
0.458838
0.458821
0.458803
0.458784
0.458764
0.458744
0.458724
0.458704
0.458685
0.458666
0.458649
0.458634
0.458621
0.458611
0.458606
0.458609
0.458626
0.458671
0.462025
0.461983
0.461966
0.461963
0.461969
0.461979
0.461993
0.46201
0.462028
0.462048
0.462068
0.462089
0.46211
0.462132
0.462152
0.462172
0.462192
0.46221
0.462227
0.462243
0.462258
0.462271
0.462283
0.462294
0.462302
0.46231
0.462316
0.46232
0.462323
0.462325
0.462325
0.462323
0.46232
0.462316
0.46231
0.462302
0.462294
0.462283
0.462271
0.462258
0.462243
0.462227
0.46221
0.462192
0.462172
0.462152
0.462132
0.46211
0.462089
0.462068
0.462048
0.462028
0.46201
0.461993
0.461979
0.461969
0.461963
0.461966
0.461983
0.462025
0.46537
0.465331
0.465314
0.465312
0.465318
0.465329
0.465344
0.465361
0.465381
0.465401
0.465423
0.465445
0.465468
0.46549
0.465512
0.465533
0.465554
0.465573
0.465591
0.465608
0.465624
0.465638
0.46565
0.465661
0.465671
0.465679
0.465685
0.46569
0.465693
0.465695
0.465695
0.465693
0.46569
0.465685
0.465679
0.465671
0.465661
0.46565
0.465638
0.465624
0.465608
0.465591
0.465573
0.465554
0.465533
0.465512
0.46549
0.465468
0.465445
0.465423
0.465401
0.465381
0.465361
0.465344
0.465329
0.465318
0.465312
0.465314
0.465331
0.46537
0.468723
0.468686
0.46867
0.468668
0.468675
0.468687
0.468703
0.468721
0.468741
0.468763
0.468786
0.46881
0.468833
0.468857
0.46888
0.468903
0.468924
0.468945
0.468964
0.468982
0.468998
0.469013
0.469026
0.469038
0.469048
0.469056
0.469063
0.469068
0.469071
0.469073
0.469073
0.469071
0.469068
0.469063
0.469056
0.469048
0.469038
0.469026
0.469013
0.468998
0.468982
0.468964
0.468945
0.468924
0.468903
0.46888
0.468857
0.468833
0.46881
0.468786
0.468763
0.468741
0.468721
0.468703
0.468687
0.468675
0.468668
0.46867
0.468686
0.468723
0.472099
0.472064
0.472049
0.472048
0.472055
0.472068
0.472084
0.472104
0.472125
0.472148
0.472172
0.472197
0.472222
0.472247
0.472271
0.472295
0.472318
0.472339
0.47236
0.472378
0.472396
0.472411
0.472425
0.472438
0.472448
0.472457
0.472464
0.472469
0.472473
0.472475
0.472475
0.472473
0.472469
0.472464
0.472457
0.472448
0.472438
0.472425
0.472411
0.472396
0.472378
0.47236
0.472339
0.472318
0.472295
0.472271
0.472247
0.472222
0.472197
0.472172
0.472148
0.472125
0.472104
0.472084
0.472068
0.472055
0.472048
0.472049
0.472064
0.472099
0.475511
0.475478
0.475464
0.475463
0.475471
0.475485
0.475502
0.475522
0.475545
0.47557
0.475595
0.475621
0.475647
0.475674
0.475699
0.475724
0.475748
0.475771
0.475792
0.475812
0.47583
0.475847
0.475861
0.475874
0.475885
0.475895
0.475902
0.475908
0.475911
0.475913
0.475913
0.475911
0.475908
0.475902
0.475895
0.475885
0.475874
0.475861
0.475847
0.47583
0.475812
0.475792
0.475771
0.475748
0.475724
0.475699
0.475674
0.475647
0.475621
0.475595
0.47557
0.475545
0.475522
0.475502
0.475485
0.475471
0.475463
0.475464
0.475478
0.475511
0.478971
0.47894
0.478927
0.478927
0.478936
0.47895
0.478968
0.47899
0.479014
0.47904
0.479066
0.479094
0.479122
0.479149
0.479176
0.479202
0.479228
0.479251
0.479274
0.479295
0.479314
0.479331
0.479347
0.47936
0.479372
0.479382
0.479389
0.479395
0.479399
0.479401
0.479401
0.479399
0.479395
0.479389
0.479382
0.479372
0.47936
0.479347
0.479331
0.479314
0.479295
0.479274
0.479251
0.479228
0.479202
0.479176
0.479149
0.479122
0.479094
0.479066
0.47904
0.479014
0.47899
0.478968
0.47895
0.478936
0.478927
0.478927
0.47894
0.478971
0.48249
0.482462
0.48245
0.48245
0.482459
0.482475
0.482494
0.482517
0.482542
0.482569
0.482597
0.482626
0.482655
0.482684
0.482713
0.48274
0.482767
0.482792
0.482815
0.482837
0.482857
0.482875
0.482892
0.482906
0.482918
0.482928
0.482937
0.482943
0.482947
0.482949
0.482949
0.482947
0.482943
0.482937
0.482928
0.482918
0.482906
0.482892
0.482875
0.482857
0.482837
0.482815
0.482792
0.482767
0.48274
0.482713
0.482684
0.482655
0.482626
0.482597
0.482569
0.482542
0.482517
0.482494
0.482475
0.482459
0.48245
0.48245
0.482462
0.48249
0.486078
0.486052
0.486041
0.486042
0.486052
0.486068
0.486089
0.486113
0.486139
0.486168
0.486197
0.486228
0.486258
0.486289
0.486318
0.486347
0.486375
0.486402
0.486426
0.486449
0.48647
0.486489
0.486507
0.486522
0.486534
0.486545
0.486554
0.48656
0.486564
0.486567
0.486567
0.486564
0.48656
0.486554
0.486545
0.486534
0.486522
0.486507
0.486489
0.48647
0.486449
0.486426
0.486402
0.486375
0.486347
0.486318
0.486289
0.486258
0.486228
0.486197
0.486168
0.486139
0.486113
0.486089
0.486068
0.486052
0.486042
0.486041
0.486052
0.486078
0.489744
0.489721
0.48971
0.489712
0.489723
0.48974
0.489762
0.489787
0.489815
0.489844
0.489875
0.489907
0.489939
0.489971
0.490003
0.490033
0.490062
0.49009
0.490116
0.49014
0.490162
0.490182
0.4902
0.490216
0.490229
0.49024
0.490249
0.490256
0.490261
0.490263
0.490263
0.490261
0.490256
0.490249
0.49024
0.490229
0.490216
0.4902
0.490182
0.490162
0.49014
0.490116
0.49009
0.490062
0.490033
0.490003
0.489971
0.489939
0.489907
0.489875
0.489844
0.489815
0.489787
0.489762
0.48974
0.489723
0.489712
0.48971
0.489721
0.489744
0.493496
0.493474
0.493465
0.493468
0.49348
0.493497
0.49352
0.493547
0.493576
0.493607
0.49364
0.493673
0.493707
0.49374
0.493773
0.493805
0.493835
0.493864
0.493892
0.493917
0.49394
0.493961
0.49398
0.493996
0.49401
0.494022
0.494032
0.494039
0.494044
0.494046
0.494046
0.494044
0.494039
0.494032
0.494022
0.49401
0.493996
0.49398
0.493961
0.49394
0.493917
0.493892
0.493864
0.493835
0.493805
0.493773
0.49374
0.493707
0.493673
0.49364
0.493607
0.493576
0.493547
0.49352
0.493497
0.49348
0.493468
0.493465
0.493474
0.493496
0.497341
0.497321
0.497313
0.497317
0.497329
0.497348
0.497372
0.4974
0.49743
0.497463
0.497497
0.497532
0.497568
0.497603
0.497637
0.49767
0.497702
0.497733
0.497761
0.497788
0.497812
0.497834
0.497854
0.497871
0.497886
0.497898
0.497908
0.497915
0.49792
0.497923
0.497923
0.49792
0.497915
0.497908
0.497898
0.497886
0.497871
0.497854
0.497834
0.497812
0.497788
0.497761
0.497733
0.497702
0.49767
0.497637
0.497603
0.497568
0.497532
0.497497
0.497463
0.49743
0.4974
0.497372
0.497348
0.497329
0.497317
0.497313
0.497321
0.497341
0.501285
0.501268
0.501261
0.501265
0.501278
0.501298
0.501324
0.501353
0.501385
0.501419
0.501455
0.501491
0.501528
0.501565
0.501601
0.501636
0.50167
0.501701
0.501731
0.501759
0.501784
0.501807
0.501828
0.501846
0.501861
0.501874
0.501885
0.501893
0.501898
0.5019
0.5019
0.501898
0.501893
0.501885
0.501874
0.501861
0.501846
0.501828
0.501807
0.501784
0.501759
0.501731
0.501701
0.50167
0.501636
0.501601
0.501565
0.501528
0.501491
0.501455
0.501419
0.501385
0.501353
0.501324
0.501298
0.501278
0.501265
0.501261
0.501268
0.501285
0.505335
0.50532
0.505314
0.505319
0.505334
0.505355
0.505381
0.505412
0.505445
0.505481
0.505519
0.505557
0.505596
0.505634
0.505672
0.505708
0.505743
0.505777
0.505808
0.505837
0.505863
0.505887
0.505909
0.505928
0.505944
0.505958
0.505968
0.505977
0.505982
0.505985
0.505985
0.505982
0.505977
0.505968
0.505958
0.505944
0.505928
0.505909
0.505887
0.505863
0.505837
0.505808
0.505777
0.505743
0.505708
0.505672
0.505634
0.505596
0.505557
0.505519
0.505481
0.505445
0.505412
0.505381
0.505355
0.505334
0.505319
0.505314
0.50532
0.505335
0.509497
0.509484
0.509479
0.509485
0.509501
0.509523
0.509551
0.509583
0.509618
0.509655
0.509695
0.509735
0.509775
0.509815
0.509855
0.509893
0.50993
0.509964
0.509997
0.510027
0.510055
0.51008
0.510103
0.510122
0.510139
0.510153
0.510165
0.510173
0.510179
0.510182
0.510182
0.510179
0.510173
0.510165
0.510153
0.510139
0.510122
0.510103
0.51008
0.510055
0.510027
0.509997
0.509964
0.50993
0.509893
0.509855
0.509815
0.509775
0.509735
0.509695
0.509655
0.509618
0.509583
0.509551
0.509523
0.509501
0.509485
0.509479
0.509484
0.509497
0.513776
0.513765
0.513761
0.513769
0.513785
0.513808
0.513837
0.513871
0.513908
0.513947
0.513988
0.51403
0.514072
0.514114
0.514155
0.514195
0.514234
0.51427
0.514304
0.514335
0.514365
0.514391
0.514414
0.514435
0.514453
0.514467
0.514479
0.514488
0.514494
0.514497
0.514497
0.514494
0.514488
0.514479
0.514467
0.514453
0.514435
0.514414
0.514391
0.514365
0.514335
0.514304
0.51427
0.514234
0.514195
0.514155
0.514114
0.514072
0.51403
0.513988
0.513947
0.513908
0.513871
0.513837
0.513808
0.513785
0.513769
0.513761
0.513765
0.513776
0.518178
0.518168
0.518166
0.518174
0.518191
0.518216
0.518246
0.518281
0.51832
0.518361
0.518404
0.518448
0.518492
0.518536
0.518579
0.518621
0.518661
0.518698
0.518734
0.518767
0.518797
0.518825
0.518849
0.518871
0.518889
0.518905
0.518917
0.518926
0.518932
0.518935
0.518935
0.518932
0.518926
0.518917
0.518905
0.518889
0.518871
0.518849
0.518825
0.518797
0.518767
0.518734
0.518698
0.518661
0.518621
0.518579
0.518536
0.518492
0.518448
0.518404
0.518361
0.51832
0.518281
0.518246
0.518216
0.518191
0.518174
0.518166
0.518168
0.518178
0.522706
0.522698
0.522697
0.522707
0.522725
0.522751
0.522783
0.52282
0.52286
0.522903
0.522948
0.522994
0.52304
0.523085
0.52313
0.523174
0.523216
0.523255
0.523292
0.523327
0.523358
0.523387
0.523413
0.523435
0.523454
0.52347
0.523483
0.523493
0.523499
0.523502
0.523502
0.523499
0.523493
0.523483
0.52347
0.523454
0.523435
0.523413
0.523387
0.523358
0.523327
0.523292
0.523255
0.523216
0.523174
0.52313
0.523085
0.52304
0.522994
0.522948
0.522903
0.52286
0.52282
0.522783
0.522751
0.522725
0.522707
0.522697
0.522698
0.522706
0.527367
0.527361
0.527361
0.527372
0.527392
0.527419
0.527452
0.52749
0.527533
0.527577
0.527624
0.527672
0.52772
0.527768
0.527815
0.52786
0.527904
0.527945
0.527984
0.52802
0.528053
0.528082
0.528109
0.528133
0.528153
0.528169
0.528183
0.528193
0.5282
0.528203
0.528203
0.5282
0.528193
0.528183
0.528169
0.528153
0.528133
0.528109
0.528082
0.528053
0.52802
0.527984
0.527945
0.527904
0.52786
0.527815
0.527768
0.52772
0.527672
0.527624
0.527577
0.527533
0.52749
0.527452
0.527419
0.527392
0.527372
0.527361
0.527361
0.527367
0.532165
0.53216
0.532162
0.532174
0.532195
0.532224
0.532258
0.532298
0.532342
0.532389
0.532438
0.532488
0.532538
0.532588
0.532637
0.532684
0.53273
0.532773
0.532813
0.532851
0.532885
0.532916
0.532944
0.532968
0.532989
0.533007
0.533021
0.533031
0.533038
0.533042
0.533042
0.533038
0.533031
0.533021
0.533007
0.532989
0.532968
0.532944
0.532916
0.532885
0.532851
0.532813
0.532773
0.53273
0.532684
0.532637
0.532588
0.532538
0.532488
0.532438
0.532389
0.532342
0.532298
0.532258
0.532224
0.532195
0.532174
0.532162
0.53216
0.532165
0.537105
0.537101
0.537105
0.537118
0.53714
0.53717
0.537207
0.537249
0.537294
0.537343
0.537394
0.537446
0.537499
0.537551
0.537602
0.537651
0.537698
0.537743
0.537785
0.537824
0.53786
0.537893
0.537922
0.537947
0.537969
0.537987
0.538002
0.538012
0.53802
0.538023
0.538023
0.53802
0.538012
0.538002
0.537987
0.537969
0.537947
0.537922
0.537893
0.53786
0.537824
0.537785
0.537743
0.537698
0.537651
0.537602
0.537551
0.537499
0.537446
0.537394
0.537343
0.537294
0.537249
0.537207
0.53717
0.53714
0.537118
0.537105
0.537101
0.537105
0.542192
0.542189
0.542194
0.542208
0.542232
0.542264
0.542302
0.542345
0.542393
0.542444
0.542498
0.542552
0.542606
0.542661
0.542714
0.542765
0.542815
0.542861
0.542905
0.542946
0.542983
0.543017
0.543047
0.543073
0.543096
0.543115
0.54313
0.543142
0.543149
0.543153
0.543153
0.543149
0.543142
0.54313
0.543115
0.543096
0.543073
0.543047
0.543017
0.542983
0.542946
0.542905
0.542861
0.542815
0.542765
0.542714
0.542661
0.542606
0.542552
0.542498
0.542444
0.542393
0.542345
0.542302
0.542264
0.542232
0.542208
0.542194
0.542189
0.542192
0.54743
0.547429
0.547435
0.54745
0.547475
0.547508
0.547548
0.547594
0.547644
0.547697
0.547753
0.547809
0.547866
0.547923
0.547978
0.548032
0.548083
0.548132
0.548177
0.54822
0.548259
0.548294
0.548325
0.548353
0.548376
0.548396
0.548412
0.548424
0.548431
0.548435
0.548435
0.548431
0.548424
0.548412
0.548396
0.548376
0.548353
0.548325
0.548294
0.548259
0.54822
0.548177
0.548132
0.548083
0.548032
0.547978
0.547923
0.547866
0.547809
0.547753
0.547697
0.547644
0.547594
0.547548
0.547508
0.547475
0.54745
0.547435
0.547429
0.54743
0.552824
0.552824
0.552831
0.552848
0.552875
0.55291
0.552952
0.552999
0.553051
0.553107
0.553165
0.553224
0.553283
0.553342
0.553399
0.553455
0.553509
0.553559
0.553607
0.553651
0.553691
0.553728
0.553761
0.553789
0.553814
0.553834
0.553851
0.553863
0.553871
0.553875
0.553875
0.553871
0.553863
0.553851
0.553834
0.553814
0.553789
0.553761
0.553728
0.553691
0.553651
0.553607
0.553559
0.553509
0.553455
0.553399
0.553342
0.553283
0.553224
0.553165
0.553107
0.553051
0.552999
0.552952
0.55291
0.552875
0.552848
0.552831
0.552824
0.552824
0.558379
0.558381
0.558389
0.558408
0.558436
0.558472
0.558516
0.558566
0.55862
0.558678
0.558738
0.5588
0.558861
0.558923
0.558983
0.559041
0.559097
0.559149
0.559199
0.559245
0.559287
0.559325
0.559359
0.559389
0.559414
0.559435
0.559452
0.559465
0.559474
0.559478
0.559478
0.559474
0.559465
0.559452
0.559435
0.559414
0.559389
0.559359
0.559325
0.559287
0.559245
0.559199
0.559149
0.559097
0.559041
0.558983
0.558923
0.558861
0.5588
0.558738
0.558678
0.55862
0.558566
0.558516
0.558472
0.558436
0.558408
0.558389
0.558381
0.558379
0.564101
0.564103
0.564113
0.564133
0.564163
0.564201
0.564247
0.564299
0.564355
0.564416
0.564478
0.564543
0.564607
0.564671
0.564733
0.564794
0.564852
0.564907
0.564958
0.565006
0.565049
0.565089
0.565124
0.565155
0.565182
0.565204
0.565222
0.565235
0.565244
0.565248
0.565248
0.565244
0.565235
0.565222
0.565204
0.565182
0.565155
0.565124
0.565089
0.565049
0.565006
0.564958
0.564907
0.564852
0.564794
0.564733
0.564671
0.564607
0.564543
0.564478
0.564416
0.564355
0.564299
0.564247
0.564201
0.564163
0.564133
0.564113
0.564103
0.564101
0.569994
0.569997
0.570008
0.57003
0.570061
0.570101
0.570149
0.570203
0.570262
0.570325
0.570391
0.570457
0.570524
0.570591
0.570656
0.570719
0.570779
0.570836
0.57089
0.570939
0.570985
0.571026
0.571063
0.571095
0.571123
0.571146
0.571164
0.571178
0.571187
0.571192
0.571192
0.571187
0.571178
0.571164
0.571146
0.571123
0.571095
0.571063
0.571026
0.570985
0.570939
0.57089
0.570836
0.570779
0.570719
0.570656
0.570591
0.570524
0.570457
0.570391
0.570325
0.570262
0.570203
0.570149
0.570101
0.570061
0.57003
0.570008
0.569997
0.569994
0.576063
0.576067
0.57608
0.576103
0.576136
0.576178
0.576228
0.576285
0.576346
0.576412
0.57648
0.57655
0.576619
0.576688
0.576756
0.576822
0.576884
0.576944
0.576999
0.577051
0.577098
0.577141
0.577179
0.577213
0.577241
0.577265
0.577284
0.577299
0.577308
0.577313
0.577313
0.577308
0.577299
0.577284
0.577265
0.577241
0.577213
0.577179
0.577141
0.577098
0.577051
0.576999
0.576944
0.576884
0.576822
0.576756
0.576688
0.576619
0.57655
0.57648
0.576412
0.576346
0.576285
0.576228
0.576178
0.576136
0.576103
0.57608
0.576067
0.576063
0.582314
0.58232
0.582334
0.582358
0.582393
0.582437
0.582489
0.582548
0.582613
0.582681
0.582752
0.582824
0.582897
0.582969
0.583039
0.583107
0.583173
0.583234
0.583292
0.583346
0.583395
0.583439
0.583479
0.583514
0.583543
0.583568
0.583588
0.583603
0.583613
0.583618
0.583618
0.583613
0.583603
0.583588
0.583568
0.583543
0.583514
0.583479
0.583439
0.583395
0.583346
0.583292
0.583234
0.583173
0.583107
0.583039
0.582969
0.582897
0.582824
0.582752
0.582681
0.582613
0.582548
0.582489
0.582437
0.582393
0.582358
0.582334
0.58232
0.582314
0.588753
0.588759
0.588775
0.588801
0.588837
0.588884
0.588938
0.589
0.589067
0.589138
0.589212
0.589287
0.589363
0.589438
0.589511
0.589582
0.58965
0.589714
0.589774
0.589829
0.58988
0.589927
0.589968
0.590004
0.590035
0.590061
0.590081
0.590097
0.590107
0.590112
0.590112
0.590107
0.590097
0.590081
0.590061
0.590035
0.590004
0.589968
0.589927
0.58988
0.589829
0.589774
0.589714
0.58965
0.589582
0.589511
0.589438
0.589363
0.589287
0.589212
0.589138
0.589067
0.589
0.588938
0.588884
0.588837
0.588801
0.588775
0.588759
0.588753
0.595384
0.595392
0.595409
0.595436
0.595475
0.595523
0.59558
0.595645
0.595715
0.595789
0.595866
0.595944
0.596023
0.596101
0.596177
0.59625
0.596321
0.596387
0.59645
0.596508
0.596561
0.596609
0.596651
0.596689
0.596721
0.596748
0.596769
0.596785
0.596796
0.596801
0.596801
0.596796
0.596785
0.596769
0.596748