/*--------------------------------*- C++ -*----------------------------------*\
| =========                 |                                                 |
| \\      /  F ield         | foam-extend: Open Source CFD                    |
|  \\    /   O peration     | Version:     4.0                                |
|   \\  /    A nd           | Web:         http://www.foam-extend.org         |
|    \\/     M anipulation  |                                                 |
\*---------------------------------------------------------------------------*/
FoamFile
{
    version     2.0;
    format      ascii;
    class       volScalarField;
    location    "1640";
    object      cPlus;
}
// * * * * * * * * * * * * * * * * * * * * * * * * * * * * * * * * * * * * * //

dimensions      [0 0 0 0 0 0 0];

internalField   nonuniform List<scalar> 
6960
(
0.324993
0.324981
0.324966
0.324951
0.324937
0.324924
0.324912
0.324902
0.324892
0.324884
0.324877
0.32487
0.324865
0.32486
0.324855
0.324852
0.324848
0.324846
0.324843
0.324841
0.32484
0.324838
0.324837
0.324836
0.324835
0.324834
0.324834
0.324833
0.324833
0.324833
0.324833
0.324833
0.324833
0.324834
0.324834
0.324835
0.324836
0.324837
0.324838
0.32484
0.324841
0.324843
0.324846
0.324848
0.324852
0.324855
0.32486
0.324865
0.32487
0.324877
0.324884
0.324892
0.324902
0.324912
0.324924
0.324937
0.324951
0.324966
0.324981
0.324993
0.106738
0.106729
0.106719
0.106708
0.106698
0.106688
0.10668
0.106672
0.106665
0.106659
0.106654
0.106649
0.106645
0.106642
0.106639
0.106636
0.106634
0.106632
0.10663
0.106628
0.106627
0.106626
0.106625
0.106624
0.106624
0.106623
0.106623
0.106623
0.106623
0.106622
0.106622
0.106623
0.106623
0.106623
0.106623
0.106624
0.106624
0.106625
0.106626
0.106627
0.106628
0.10663
0.106632
0.106634
0.106636
0.106639
0.106642
0.106645
0.106649
0.106654
0.106659
0.106665
0.106672
0.10668
0.106688
0.106698
0.106708
0.106719
0.106729
0.106738
0.0417179
0.0417132
0.0417072
0.0417011
0.0416953
0.04169
0.0416852
0.0416809
0.0416771
0.0416736
0.0416706
0.041668
0.0416657
0.0416636
0.0416619
0.0416603
0.041659
0.0416579
0.0416569
0.0416561
0.0416554
0.0416547
0.0416542
0.0416538
0.0416535
0.0416532
0.041653
0.0416528
0.0416527
0.0416527
0.0416527
0.0416527
0.0416528
0.041653
0.0416532
0.0416535
0.0416538
0.0416542
0.0416547
0.0416554
0.0416561
0.0416569
0.0416579
0.041659
0.0416603
0.0416619
0.0416636
0.0416657
0.041668
0.0416706
0.0416736
0.0416771
0.0416809
0.0416852
0.04169
0.0416953
0.0417011
0.0417072
0.0417132
0.0417179
0.0188381
0.0188362
0.0188335
0.0188307
0.0188281
0.0188256
0.0188234
0.0188214
0.0188197
0.0188181
0.0188167
0.0188155
0.0188144
0.0188135
0.0188127
0.018812
0.0188114
0.0188108
0.0188104
0.01881
0.0188097
0.0188094
0.0188092
0.018809
0.0188088
0.0188087
0.0188086
0.0188085
0.0188085
0.0188085
0.0188085
0.0188085
0.0188085
0.0188086
0.0188087
0.0188088
0.018809
0.0188092
0.0188094
0.0188097
0.01881
0.0188104
0.0188108
0.0188114
0.018812
0.0188127
0.0188135
0.0188144
0.0188155
0.0188167
0.0188181
0.0188197
0.0188214
0.0188234
0.0188256
0.0188281
0.0188307
0.0188335
0.0188362
0.0188381
0.0104116
0.0104113
0.0104106
0.0104098
0.010409
0.0104083
0.0104077
0.0104071
0.0104065
0.0104061
0.0104057
0.0104053
0.010405
0.0104047
0.0104044
0.0104042
0.010404
0.0104039
0.0104037
0.0104036
0.0104035
0.0104034
0.0104034
0.0104033
0.0104033
0.0104032
0.0104032
0.0104032
0.0104032
0.0104031
0.0104031
0.0104032
0.0104032
0.0104032
0.0104032
0.0104033
0.0104033
0.0104034
0.0104034
0.0104035
0.0104036
0.0104037
0.0104039
0.010404
0.0104042
0.0104044
0.0104047
0.010405
0.0104053
0.0104057
0.0104061
0.0104065
0.0104071
0.0104077
0.0104083
0.010409
0.0104098
0.0104106
0.0104113
0.0104116
0.00731655
0.00731714
0.00731748
0.00731773
0.00731794
0.00731812
0.00731828
0.00731843
0.00731855
0.00731866
0.00731876
0.00731884
0.00731891
0.00731898
0.00731903
0.00731908
0.00731912
0.00731915
0.00731918
0.0073192
0.00731922
0.00731924
0.00731926
0.00731927
0.00731928
0.00731929
0.00731929
0.0073193
0.0073193
0.0073193
0.0073193
0.0073193
0.0073193
0.00731929
0.00731929
0.00731928
0.00731927
0.00731926
0.00731924
0.00731922
0.0073192
0.00731918
0.00731915
0.00731912
0.00731908
0.00731903
0.00731898
0.00731891
0.00731884
0.00731876
0.00731866
0.00731855
0.00731843
0.00731828
0.00731812
0.00731794
0.00731773
0.00731748
0.00731714
0.00731655
0.00621546
0.00621647
0.00621732
0.00621808
0.00621877
0.0062194
0.00621996
0.00622046
0.0062209
0.0062213
0.00622164
0.00622195
0.00622221
0.00622244
0.00622264
0.00622281
0.00622296
0.00622309
0.0062232
0.0062233
0.00622338
0.00622344
0.0062235
0.00622355
0.00622358
0.00622361
0.00622364
0.00622366
0.00622367
0.00622367
0.00622367
0.00622367
0.00622366
0.00622364
0.00622361
0.00622358
0.00622355
0.0062235
0.00622344
0.00622338
0.0062233
0.0062232
0.00622309
0.00622296
0.00622281
0.00622264
0.00622244
0.00622221
0.00622195
0.00622164
0.0062213
0.0062209
0.00622046
0.00621996
0.0062194
0.00621877
0.00621808
0.00621732
0.00621647
0.00621546
0.00585311
0.00585433
0.00585541
0.00585641
0.00585732
0.00585815
0.0058589
0.00585956
0.00586016
0.00586068
0.00586114
0.00586155
0.0058619
0.00586221
0.00586248
0.00586271
0.00586291
0.00586308
0.00586323
0.00586336
0.00586346
0.00586355
0.00586363
0.00586369
0.00586374
0.00586378
0.00586382
0.00586384
0.00586385
0.00586386
0.00586386
0.00586385
0.00586384
0.00586382
0.00586378
0.00586374
0.00586369
0.00586363
0.00586355
0.00586346
0.00586336
0.00586323
0.00586308
0.00586291
0.00586271
0.00586248
0.00586221
0.0058619
0.00586155
0.00586114
0.00586068
0.00586016
0.00585956
0.0058589
0.00585815
0.00585732
0.00585641
0.00585541
0.00585433
0.00585311
0.00576007
0.00576139
0.00576258
0.00576369
0.00576471
0.00576563
0.00576646
0.0057672
0.00576786
0.00576844
0.00576896
0.00576941
0.00576981
0.00577015
0.00577045
0.00577071
0.00577093
0.00577113
0.00577129
0.00577143
0.00577155
0.00577165
0.00577174
0.00577181
0.00577186
0.00577191
0.00577195
0.00577197
0.00577199
0.005772
0.005772
0.00577199
0.00577197
0.00577195
0.00577191
0.00577186
0.00577181
0.00577174
0.00577165
0.00577155
0.00577143
0.00577129
0.00577113
0.00577093
0.00577071
0.00577045
0.00577015
0.00576981
0.00576941
0.00576896
0.00576844
0.00576786
0.0057672
0.00576646
0.00576563
0.00576471
0.00576369
0.00576258
0.00576139
0.00576007
0.00576419
0.00576556
0.00576681
0.00576797
0.00576904
0.00577001
0.00577088
0.00577166
0.00577235
0.00577297
0.00577351
0.00577398
0.0057744
0.00577476
0.00577508
0.00577535
0.00577558
0.00577579
0.00577596
0.00577611
0.00577623
0.00577634
0.00577643
0.0057765
0.00577656
0.00577661
0.00577665
0.00577668
0.00577669
0.0057767
0.0057767
0.00577669
0.00577668
0.00577665
0.00577661
0.00577656
0.0057765
0.00577643
0.00577634
0.00577623
0.00577611
0.00577596
0.00577579
0.00577558
0.00577535
0.00577508
0.00577476
0.0057744
0.00577398
0.00577351
0.00577297
0.00577235
0.00577166
0.00577088
0.00577001
0.00576904
0.00576797
0.00576681
0.00576556
0.00576419
0.00580399
0.00580539
0.00580667
0.00580787
0.00580896
0.00580996
0.00581086
0.00581166
0.00581237
0.005813
0.00581356
0.00581405
0.00581448
0.00581485
0.00581518
0.00581546
0.0058157
0.00581591
0.00581609
0.00581624
0.00581637
0.00581648
0.00581657
0.00581665
0.00581671
0.00581676
0.0058168
0.00581682
0.00581684
0.00581685
0.00581685
0.00581684
0.00581682
0.0058168
0.00581676
0.00581671
0.00581665
0.00581657
0.00581648
0.00581637
0.00581624
0.00581609
0.00581591
0.0058157
0.00581546
0.00581518
0.00581485
0.00581448
0.00581405
0.00581356
0.005813
0.00581237
0.00581166
0.00581086
0.00580996
0.00580896
0.00580787
0.00580667
0.00580539
0.00580399
0.00585822
0.00585965
0.00586096
0.00586218
0.0058633
0.00586432
0.00586523
0.00586605
0.00586678
0.00586743
0.005868
0.0058685
0.00586893
0.00586931
0.00586964
0.00586993
0.00587018
0.00587039
0.00587057
0.00587073
0.00587086
0.00587097
0.00587107
0.00587115
0.00587121
0.00587126
0.0058713
0.00587133
0.00587135
0.00587136
0.00587136
0.00587135
0.00587133
0.0058713
0.00587126
0.00587121
0.00587115
0.00587107
0.00587097
0.00587086
0.00587073
0.00587057
0.00587039
0.00587018
0.00586993
0.00586964
0.00586931
0.00586893
0.0058685
0.005868
0.00586743
0.00586678
0.00586605
0.00586523
0.00586432
0.0058633
0.00586218
0.00586096
0.00585965
0.00585822
0.00591991
0.00592137
0.00592271
0.00592395
0.00592509
0.00592612
0.00592706
0.00592789
0.00592864
0.00592929
0.00592987
0.00593038
0.00593083
0.00593122
0.00593156
0.00593185
0.0059321
0.00593232
0.0059325
0.00593266
0.0059328
0.00593291
0.00593301
0.00593309
0.00593315
0.00593321
0.00593325
0.00593328
0.00593329
0.0059333
0.0059333
0.00593329
0.00593328
0.00593325
0.00593321
0.00593315
0.00593309
0.00593301
0.00593291
0.0059328
0.00593266
0.0059325
0.00593232
0.0059321
0.00593185
0.00593156
0.00593122
0.00593083
0.00593038
0.00592987
0.00592929
0.00592864
0.00592789
0.00592706
0.00592612
0.00592509
0.00592395
0.00592271
0.00592137
0.00591991
0.00598702
0.00598851
0.00598987
0.00599114
0.0059923
0.00599335
0.0059943
0.00599515
0.00599591
0.00599658
0.00599717
0.00599769
0.00599815
0.00599854
0.00599889
0.00599919
0.00599944
0.00599967
0.00599986
0.00600002
0.00600016
0.00600027
0.00600037
0.00600045
0.00600052
0.00600057
0.00600061
0.00600064
0.00600066
0.00600067
0.00600067
0.00600066
0.00600064
0.00600061
0.00600057
0.00600052
0.00600045
0.00600037
0.00600027
0.00600016
0.00600002
0.00599986
0.00599967
0.00599944
0.00599919
0.00599889
0.00599854
0.00599815
0.00599769
0.00599717
0.00599658
0.00599591
0.00599515
0.0059943
0.00599335
0.0059923
0.00599114
0.00598987
0.00598851
0.00598702
0.00605918
0.0060607
0.00606209
0.00606338
0.00606457
0.00606564
0.00606661
0.00606748
0.00606825
0.00606894
0.00606954
0.00607007
0.00607054
0.00607094
0.00607129
0.0060716
0.00607186
0.00607208
0.00607228
0.00607244
0.00607258
0.0060727
0.0060728
0.00607289
0.00607295
0.00607301
0.00607305
0.00607308
0.0060731
0.00607311
0.00607311
0.0060731
0.00607308
0.00607305
0.00607301
0.00607295
0.00607289
0.0060728
0.0060727
0.00607258
0.00607244
0.00607228
0.00607208
0.00607186
0.0060716
0.00607129
0.00607094
0.00607054
0.00607007
0.00606954
0.00606894
0.00606825
0.00606748
0.00606661
0.00606564
0.00606457
0.00606338
0.00606209
0.0060607
0.00605918
0.00613663
0.00613818
0.0061396
0.00614092
0.00614212
0.00614322
0.00614421
0.0061451
0.00614589
0.00614659
0.0061472
0.00614775
0.00614822
0.00614863
0.00614899
0.0061493
0.00614957
0.0061498
0.00615
0.00615017
0.00615031
0.00615044
0.00615054
0.00615062
0.00615069
0.00615075
0.00615079
0.00615082
0.00615084
0.00615085
0.00615085
0.00615084
0.00615082
0.00615079
0.00615075
0.00615069
0.00615062
0.00615054
0.00615044
0.00615031
0.00615017
0.00615
0.0061498
0.00614957
0.0061493
0.00614899
0.00614863
0.00614822
0.00614775
0.0061472
0.00614659
0.00614589
0.0061451
0.00614421
0.00614322
0.00614212
0.00614092
0.0061396
0.00613818
0.00613663
0.00621981
0.0062214
0.00622285
0.00622419
0.00622543
0.00622655
0.00622757
0.00622847
0.00622928
0.00622999
0.00623062
0.00623118
0.00623166
0.00623209
0.00623245
0.00623277
0.00623305
0.00623328
0.00623349
0.00623366
0.00623381
0.00623393
0.00623404
0.00623412
0.00623419
0.00623425
0.00623429
0.00623433
0.00623435
0.00623436
0.00623436
0.00623435
0.00623433
0.00623429
0.00623425
0.00623419
0.00623412
0.00623404
0.00623393
0.00623381
0.00623366
0.00623349
0.00623328
0.00623305
0.00623277
0.00623245
0.00623209
0.00623166
0.00623118
0.00623062
0.00622999
0.00622928
0.00622847
0.00622757
0.00622655
0.00622543
0.00622419
0.00622285
0.0062214
0.00621981
0.00630931
0.00631094
0.00631243
0.00631381
0.00631507
0.00631622
0.00631726
0.00631819
0.00631902
0.00631975
0.00632039
0.00632096
0.00632146
0.00632189
0.00632227
0.00632259
0.00632287
0.00632312
0.00632332
0.0063235
0.00632365
0.00632378
0.00632389
0.00632398
0.00632405
0.00632411
0.00632415
0.00632419
0.00632421
0.00632422
0.00632422
0.00632421
0.00632419
0.00632415
0.00632411
0.00632405
0.00632398
0.00632389
0.00632378
0.00632365
0.0063235
0.00632332
0.00632312
0.00632287
0.00632259
0.00632227
0.00632189
0.00632146
0.00632096
0.00632039
0.00631975
0.00631902
0.00631819
0.00631726
0.00631622
0.00631507
0.00631381
0.00631243
0.00631094
0.00630931
0.00640584
0.00640752
0.00640904
0.00641046
0.00641175
0.00641293
0.006414
0.00641495
0.0064158
0.00641655
0.00641721
0.00641779
0.0064183
0.00641875
0.00641913
0.00641947
0.00641976
0.00642001
0.00642022
0.0064204
0.00642056
0.00642069
0.0064208
0.00642089
0.00642096
0.00642102
0.00642107
0.0064211
0.00642113
0.00642114
0.00642114
0.00642113
0.0064211
0.00642107
0.00642102
0.00642096
0.00642089
0.0064208
0.00642069
0.00642056
0.0064204
0.00642022
0.00642001
0.00641976
0.00641947
0.00641913
0.00641875
0.0064183
0.00641779
0.00641721
0.00641655
0.0064158
0.00641495
0.006414
0.00641293
0.00641175
0.00641046
0.00640904
0.00640752
0.00640584
0.00651021
0.00651193
0.0065135
0.00651495
0.00651629
0.0065175
0.00651859
0.00651957
0.00652044
0.00652121
0.00652189
0.00652249
0.00652302
0.00652347
0.00652387
0.00652421
0.00652451
0.00652477
0.00652499
0.00652517
0.00652533
0.00652547
0.00652558
0.00652568
0.00652575
0.00652582
0.00652586
0.0065259
0.00652592
0.00652593
0.00652593
0.00652592
0.0065259
0.00652586
0.00652582
0.00652575
0.00652568
0.00652558
0.00652547
0.00652533
0.00652517
0.00652499
0.00652477
0.00652451
0.00652421
0.00652387
0.00652347
0.00652302
0.00652249
0.00652189
0.00652121
0.00652044
0.00651957
0.00651859
0.0065175
0.00651629
0.00651495
0.0065135
0.00651193
0.00651021
0.00662337
0.00662514
0.00662676
0.00662825
0.00662963
0.00663087
0.006632
0.00663301
0.0066339
0.0066347
0.0066354
0.00663602
0.00663656
0.00663703
0.00663743
0.00663779
0.0066381
0.00663836
0.00663859
0.00663878
0.00663894
0.00663908
0.0066392
0.0066393
0.00663938
0.00663944
0.00663949
0.00663952
0.00663955
0.00663956
0.00663956
0.00663955
0.00663952
0.00663949
0.00663944
0.00663938
0.0066393
0.0066392
0.00663908
0.00663894
0.00663878
0.00663859
0.00663836
0.0066381
0.00663779
0.00663743
0.00663703
0.00663656
0.00663602
0.0066354
0.0066347
0.0066339
0.00663301
0.006632
0.00663087
0.00662963
0.00662825
0.00662676
0.00662514
0.00662337
0.00674643
0.00674827
0.00674993
0.00675148
0.00675289
0.00675418
0.00675534
0.00675638
0.00675731
0.00675813
0.00675885
0.00675949
0.00676004
0.00676053
0.00676095
0.00676132
0.00676164
0.00676191
0.00676214
0.00676234
0.00676251
0.00676265
0.00676278
0.00676288
0.00676296
0.00676302
0.00676307
0.00676311
0.00676314
0.00676315
0.00676315
0.00676314
0.00676311
0.00676307
0.00676302
0.00676296
0.00676288
0.00676278
0.00676265
0.00676251
0.00676234
0.00676214
0.00676191
0.00676164
0.00676132
0.00676095
0.00676053
0.00676004
0.00675949
0.00675885
0.00675813
0.00675731
0.00675638
0.00675534
0.00675418
0.00675289
0.00675148
0.00674993
0.00674827
0.00674643
0.00688073
0.00688263
0.00688436
0.00688595
0.00688742
0.00688875
0.00688995
0.00689103
0.00689198
0.00689283
0.00689358
0.00689424
0.00689482
0.00689532
0.00689576
0.00689614
0.00689646
0.00689675
0.00689699
0.00689719
0.00689737
0.00689752
0.00689764
0.00689775
0.00689783
0.0068979
0.00689795
0.00689799
0.00689802
0.00689803
0.00689803
0.00689802
0.00689799
0.00689795
0.0068979
0.00689783
0.00689775
0.00689764
0.00689752
0.00689737
0.00689719
0.00689699
0.00689675
0.00689646
0.00689614
0.00689576
0.00689532
0.00689482
0.00689424
0.00689358
0.00689283
0.00689198
0.00689103
0.00688995
0.00688875
0.00688742
0.00688595
0.00688436
0.00688263
0.00688073
0.00702785
0.00702982
0.00703161
0.00703326
0.00703479
0.00703617
0.00703741
0.00703853
0.00703952
0.0070404
0.00704118
0.00704186
0.00704246
0.00704298
0.00704344
0.00704383
0.00704417
0.00704446
0.00704472
0.00704493
0.00704511
0.00704527
0.0070454
0.00704551
0.00704559
0.00704566
0.00704572
0.00704576
0.00704578
0.0070458
0.0070458
0.00704578
0.00704576
0.00704572
0.00704566
0.00704559
0.00704551
0.0070454
0.00704527
0.00704511
0.00704493
0.00704472
0.00704446
0.00704417
0.00704383
0.00704344
0.00704298
0.00704246
0.00704186
0.00704118
0.0070404
0.00703952
0.00703853
0.00703741
0.00703617
0.00703479
0.00703326
0.00703161
0.00702982
0.00702785
0.00718968
0.00719174
0.0071936
0.00719532
0.00719691
0.00719834
0.00719964
0.0072008
0.00720184
0.00720275
0.00720356
0.00720427
0.0072049
0.00720544
0.00720591
0.00720632
0.00720668
0.00720698
0.00720724
0.00720747
0.00720766
0.00720782
0.00720795
0.00720807
0.00720816
0.00720823
0.00720829
0.00720833
0.00720836
0.00720837
0.00720837
0.00720836
0.00720833
0.00720829
0.00720823
0.00720816
0.00720807
0.00720795
0.00720782
0.00720766
0.00720747
0.00720724
0.00720698
0.00720668
0.00720632
0.00720591
0.00720544
0.0072049
0.00720427
0.00720356
0.00720275
0.00720184
0.0072008
0.00719964
0.00719834
0.00719691
0.00719532
0.0071936
0.00719174
0.00718968
0.00736855
0.0073707
0.00737265
0.00737445
0.0073761
0.0073776
0.00737896
0.00738017
0.00738125
0.00738221
0.00738306
0.0073838
0.00738445
0.00738502
0.00738551
0.00738594
0.00738631
0.00738663
0.0073869
0.00738714
0.00738734
0.00738751
0.00738765
0.00738776
0.00738786
0.00738794
0.007388
0.00738804
0.00738807
0.00738808
0.00738808
0.00738807
0.00738804
0.007388
0.00738794
0.00738786
0.00738776
0.00738765
0.00738751
0.00738734
0.00738714
0.0073869
0.00738663
0.00738631
0.00738594
0.00738551
0.00738502
0.00738445
0.0073838
0.00738306
0.00738221
0.00738125
0.00738017
0.00737896
0.0073776
0.0073761
0.00737445
0.00737265
0.0073707
0.00736855
0.00756731
0.00756957
0.00757161
0.0075735
0.00757523
0.00757681
0.00757823
0.0075795
0.00758063
0.00758164
0.00758252
0.0075833
0.00758399
0.00758458
0.0075851
0.00758555
0.00758594
0.00758628
0.00758656
0.00758681
0.00758702
0.0075872
0.00758734
0.00758747
0.00758757
0.00758765
0.00758771
0.00758776
0.00758779
0.0075878
0.0075878
0.00758779
0.00758776
0.00758771
0.00758765
0.00758757
0.00758747
0.00758734
0.0075872
0.00758702
0.00758681
0.00758656
0.00758628
0.00758594
0.00758555
0.0075851
0.00758458
0.00758399
0.0075833
0.00758252
0.00758164
0.00758063
0.0075795
0.00757823
0.00757681
0.00757523
0.0075735
0.00757161
0.00756957
0.00756731
0.00778949
0.00779187
0.00779403
0.00779602
0.00779784
0.0077995
0.007801
0.00780234
0.00780354
0.0078046
0.00780553
0.00780635
0.00780708
0.0078077
0.00780825
0.00780873
0.00780914
0.00780949
0.00780979
0.00781005
0.00781027
0.00781046
0.00781062
0.00781075
0.00781085
0.00781094
0.007811
0.00781105
0.00781108
0.0078111
0.0078111
0.00781108
0.00781105
0.007811
0.00781094
0.00781085
0.00781075
0.00781062
0.00781046
0.00781027
0.00781005
0.00780979
0.00780949
0.00780914
0.00780873
0.00780825
0.0078077
0.00780708
0.00780635
0.00780553
0.0078046
0.00780354
0.00780234
0.007801
0.0077995
0.00779784
0.00779602
0.00779403
0.00779187
0.00778949
0.00803957
0.0080421
0.00804438
0.00804649
0.00804842
0.00805018
0.00805177
0.00805319
0.00805446
0.00805558
0.00805657
0.00805745
0.00805821
0.00805888
0.00805946
0.00805996
0.00806039
0.00806077
0.00806109
0.00806137
0.0080616
0.0080618
0.00806196
0.0080621
0.00806222
0.00806231
0.00806238
0.00806243
0.00806246
0.00806248
0.00806248
0.00806246
0.00806243
0.00806238
0.00806231
0.00806222
0.0080621
0.00806196
0.0080618
0.0080616
0.00806137
0.00806109
0.00806077
0.00806039
0.00805996
0.00805946
0.00805888
0.00805821
0.00805745
0.00805657
0.00805558
0.00805446
0.00805319
0.00805177
0.00805018
0.00804842
0.00804649
0.00804438
0.0080421
0.00803957
0.00832327
0.00832596
0.00832839
0.00833064
0.00833271
0.00833458
0.00833628
0.0083378
0.00833915
0.00834035
0.0083414
0.00834234
0.00834315
0.00834386
0.00834448
0.00834502
0.00834548
0.00834588
0.00834623
0.00834652
0.00834677
0.00834698
0.00834716
0.00834731
0.00834743
0.00834753
0.0083476
0.00834766
0.00834769
0.00834771
0.00834771
0.00834769
0.00834766
0.0083476
0.00834753
0.00834743
0.00834731
0.00834716
0.00834698
0.00834677
0.00834652
0.00834623
0.00834588
0.00834548
0.00834502
0.00834448
0.00834386
0.00834315
0.00834234
0.0083414
0.00834035
0.00833915
0.0083378
0.00833628
0.00833458
0.00833271
0.00833064
0.00832839
0.00832596
0.00832327
0.00864803
0.00865092
0.00865353
0.00865595
0.00865817
0.00866019
0.00866201
0.00866364
0.0086651
0.00866639
0.00866753
0.00866853
0.0086694
0.00867017
0.00867084
0.00867141
0.00867191
0.00867235
0.00867271
0.00867303
0.0086733
0.00867353
0.00867372
0.00867388
0.00867401
0.00867411
0.00867419
0.00867425
0.00867429
0.00867431
0.00867431
0.00867429
0.00867425
0.00867419
0.00867411
0.00867401
0.00867388
0.00867372
0.00867353
0.0086733
0.00867303
0.00867271
0.00867235
0.00867191
0.00867141
0.00867084
0.00867017
0.0086694
0.00866853
0.00866753
0.00866639
0.0086651
0.00866364
0.00866201
0.00866019
0.00865817
0.00865595
0.00865353
0.00865092
0.00864803
0.00902375
0.00902688
0.00902972
0.00903234
0.00903475
0.00903694
0.00903892
0.00904069
0.00904227
0.00904367
0.0090449
0.00904599
0.00904694
0.00904777
0.0090485
0.00904913
0.00904967
0.00905014
0.00905054
0.00905088
0.00905118
0.00905142
0.00905163
0.0090518
0.00905194
0.00905206
0.00905215
0.00905221
0.00905225
0.00905227
0.00905227
0.00905225
0.00905221
0.00905215
0.00905206
0.00905194
0.0090518
0.00905163
0.00905142
0.00905118
0.00905088
0.00905054
0.00905014
0.00904967
0.00904913
0.0090485
0.00904777
0.00904694
0.00904599
0.0090449
0.00904367
0.00904227
0.00904069
0.00903892
0.00903694
0.00903475
0.00903234
0.00902972
0.00902688
0.00902375
0.00946386
0.00946729
0.0094704
0.00947328
0.00947593
0.00947833
0.0094805
0.00948244
0.00948418
0.00948571
0.00948707
0.00948827
0.00948931
0.00949023
0.00949102
0.00949171
0.00949231
0.00949282
0.00949326
0.00949364
0.00949396
0.00949423
0.00949446
0.00949465
0.00949481
0.00949493
0.00949503
0.0094951
0.00949515
0.00949517
0.00949517
0.00949515
0.0094951
0.00949503
0.00949493
0.00949481
0.00949465
0.00949446
0.00949423
0.00949396
0.00949364
0.00949326
0.00949282
0.00949231
0.00949171
0.00949102
0.00949023
0.00948931
0.00948827
0.00948707
0.00948571
0.00948418
0.00948244
0.0094805
0.00947833
0.00947593
0.00947328
0.0094704
0.00946729
0.00946386
0.00998705
0.00999086
0.00999432
0.00999752
0.0100005
0.0100031
0.0100055
0.0100077
0.0100096
0.0100114
0.0100129
0.0100142
0.0100154
0.0100164
0.0100173
0.010018
0.0100187
0.0100193
0.0100198
0.0100202
0.0100205
0.0100208
0.0100211
0.0100213
0.0100215
0.0100216
0.0100217
0.0100218
0.0100219
0.0100219
0.0100219
0.0100219
0.0100218
0.0100217
0.0100216
0.0100215
0.0100213
0.0100211
0.0100208
0.0100205
0.0100202
0.0100198
0.0100193
0.0100187
0.010018
0.0100173
0.0100164
0.0100154
0.0100142
0.0100129
0.0100114
0.0100096
0.0100077
0.0100055
0.0100031
0.0100005
0.00999752
0.00999432
0.00999086
0.00998705
0.0106199
0.0106242
0.0106281
0.0106318
0.0106351
0.0106381
0.0106409
0.0106433
0.0106455
0.0106474
0.0106491
0.0106506
0.010652
0.0106531
0.0106541
0.010655
0.0106557
0.0106564
0.010657
0.0106574
0.0106578
0.0106582
0.0106585
0.0106587
0.0106589
0.0106591
0.0106592
0.0106593
0.0106593
0.0106594
0.0106594
0.0106593
0.0106593
0.0106592
0.0106591
0.0106589
0.0106587
0.0106585
0.0106582
0.0106578
0.0106574
0.010657
0.0106564
0.0106557
0.010655
0.0106541
0.0106531
0.010652
0.0106506
0.0106491
0.0106474
0.0106455
0.0106433
0.0106409
0.0106381
0.0106351
0.0106318
0.0106281
0.0106242
0.0106199
0.0114013
0.0114063
0.0114108
0.0114149
0.0114188
0.0114223
0.0114254
0.0114283
0.0114308
0.011433
0.011435
0.0114368
0.0114383
0.0114396
0.0114408
0.0114418
0.0114427
0.0114434
0.0114441
0.0114446
0.0114451
0.0114455
0.0114458
0.0114461
0.0114463
0.0114465
0.0114466
0.0114467
0.0114468
0.0114468
0.0114468
0.0114468
0.0114467
0.0114466
0.0114465
0.0114463
0.0114461
0.0114458
0.0114455
0.0114451
0.0114446
0.0114441
0.0114434
0.0114427
0.0114418
0.0114408
0.0114396
0.0114383
0.0114368
0.011435
0.011433
0.0114308
0.0114283
0.0114254
0.0114223
0.0114188
0.0114149
0.0114108
0.0114063
0.0114013
0.0123882
0.012394
0.0123994
0.0124043
0.0124089
0.012413
0.0124167
0.0124201
0.0124231
0.0124257
0.0124281
0.0124302
0.012432
0.0124335
0.0124349
0.0124361
0.0124371
0.012438
0.0124388
0.0124395
0.01244
0.0124405
0.0124409
0.0124412
0.0124415
0.0124417
0.0124419
0.012442
0.0124421
0.0124421
0.0124421
0.0124421
0.012442
0.0124419
0.0124417
0.0124415
0.0124412
0.0124409
0.0124405
0.01244
0.0124395
0.0124388
0.012438
0.0124371
0.0124361
0.0124349
0.0124335
0.012432
0.0124302
0.0124281
0.0124257
0.0124231
0.0124201
0.0124167
0.012413
0.0124089
0.0124043
0.0123994
0.012394
0.0123882
0.013664
0.013671
0.0136774
0.0136835
0.013689
0.013694
0.0136986
0.0137026
0.0137063
0.0137095
0.0137124
0.0137149
0.0137171
0.013719
0.0137207
0.0137221
0.0137234
0.0137245
0.0137254
0.0137262
0.0137269
0.0137274
0.0137279
0.0137283
0.0137287
0.0137289
0.0137291
0.0137293
0.0137294
0.0137294
0.0137294
0.0137294
0.0137293
0.0137291
0.0137289
0.0137287
0.0137283
0.0137279
0.0137274
0.0137269
0.0137262
0.0137254
0.0137245
0.0137234
0.0137221
0.0137207
0.013719
0.0137171
0.0137149
0.0137124
0.0137095
0.0137063
0.0137026
0.0136986
0.013694
0.013689
0.0136835
0.0136774
0.013671
0.013664
0.015345
0.0153537
0.0153617
0.0153692
0.0153761
0.0153824
0.015388
0.0153931
0.0153976
0.0154017
0.0154052
0.0154084
0.0154111
0.0154135
0.0154156
0.0154174
0.015419
0.0154203
0.0154215
0.0154225
0.0154233
0.015424
0.0154246
0.0154251
0.0154256
0.0154259
0.0154261
0.0154263
0.0154264
0.0154265
0.0154265
0.0154264
0.0154263
0.0154261
0.0154259
0.0154256
0.0154251
0.0154246
0.015424
0.0154233
0.0154225
0.0154215
0.0154203
0.015419
0.0154174
0.0154156
0.0154135
0.0154111
0.0154084
0.0154052
0.0154017
0.0153976
0.0153931
0.015388
0.0153824
0.0153761
0.0153692
0.0153617
0.0153537
0.015345
0.0175809
0.0175918
0.0176019
0.0176114
0.0176201
0.017628
0.0176352
0.0176416
0.0176474
0.0176525
0.017657
0.0176609
0.0176644
0.0176675
0.0176701
0.0176724
0.0176744
0.0176761
0.0176776
0.0176788
0.0176799
0.0176808
0.0176816
0.0176822
0.0176827
0.0176832
0.0176835
0.0176837
0.0176839
0.017684
0.017684
0.0176839
0.0176837
0.0176835
0.0176832
0.0176827
0.0176822
0.0176816
0.0176808
0.0176799
0.0176788
0.0176776
0.0176761
0.0176744
0.0176724
0.0176701
0.0176675
0.0176644
0.0176609
0.017657
0.0176525
0.0176474
0.0176416
0.0176352
0.017628
0.0176201
0.0176114
0.0176019
0.0175918
0.0175809
0.0205366
0.0205504
0.0205632
0.0205753
0.0205863
0.0205964
0.0206055
0.0206137
0.0206209
0.0206274
0.0206331
0.0206382
0.0206426
0.0206464
0.0206498
0.0206527
0.0206552
0.0206574
0.0206593
0.0206609
0.0206622
0.0206634
0.0206644
0.0206652
0.0206658
0.0206664
0.0206668
0.0206671
0.0206673
0.0206674
0.0206674
0.0206673
0.0206671
0.0206668
0.0206664
0.0206658
0.0206652
0.0206644
0.0206634
0.0206622
0.0206609
0.0206593
0.0206574
0.0206552
0.0206527
0.0206498
0.0206464
0.0206426
0.0206382
0.0206331
0.0206274
0.0206209
0.0206137
0.0206055
0.0205964
0.0205863
0.0205753
0.0205632
0.0205504
0.0205366
0.0243538
0.0243711
0.0243872
0.0244022
0.0244161
0.0244287
0.0244401
0.0244503
0.0244594
0.0244675
0.0244747
0.024481
0.0244865
0.0244913
0.0244955
0.0244992
0.0245023
0.0245051
0.0245074
0.0245094
0.0245111
0.0245126
0.0245138
0.0245148
0.0245157
0.0245163
0.0245168
0.0245172
0.0245175
0.0245176
0.0245176
0.0245175
0.0245172
0.0245168
0.0245163
0.0245157
0.0245148
0.0245138
0.0245126
0.0245111
0.0245094
0.0245074
0.0245051
0.0245023
0.0244992
0.0244955
0.0244913
0.0244865
0.024481
0.0244747
0.0244675
0.0244594
0.0244503
0.0244401
0.0244287
0.0244161
0.0244022
0.0243872
0.0243711
0.0243538
0.0291015
0.0291227
0.0291424
0.0291607
0.0291776
0.0291929
0.0292068
0.0292192
0.0292304
0.0292402
0.0292489
0.0292566
0.0292634
0.0292693
0.0292744
0.0292789
0.0292827
0.029286
0.0292889
0.0292914
0.0292935
0.0292952
0.0292967
0.0292979
0.029299
0.0292998
0.0293004
0.0293009
0.0293012
0.0293013
0.0293013
0.0293012
0.0293009
0.0293004
0.0292998
0.029299
0.0292979
0.0292967
0.0292952
0.0292935
0.0292914
0.0292889
0.029286
0.0292827
0.0292789
0.0292744
0.0292693
0.0292634
0.0292566
0.0292489
0.0292402
0.0292304
0.0292192
0.0292068
0.0291929
0.0291776
0.0291607
0.0291424
0.0291227
0.0291015
0.0347466
0.0347716
0.0347949
0.0348166
0.0348365
0.0348546
0.034871
0.0348856
0.0348988
0.0349104
0.0349207
0.0349298
0.0349377
0.0349447
0.0349507
0.034956
0.0349606
0.0349645
0.0349679
0.0349708
0.0349733
0.0349753
0.0349771
0.0349786
0.0349798
0.0349807
0.0349815
0.034982
0.0349824
0.0349826
0.0349826
0.0349824
0.034982
0.0349815
0.0349807
0.0349798
0.0349786
0.0349771
0.0349753
0.0349733
0.0349708
0.0349679
0.0349645
0.0349606
0.034956
0.0349507
0.0349447
0.0349377
0.0349298
0.0349207
0.0349104
0.0348988
0.0348856
0.034871
0.0348546
0.0348365
0.0348166
0.0347949
0.0347716
0.0347466
0.0411666
0.0411955
0.0412222
0.041247
0.0412698
0.0412905
0.0413092
0.041326
0.0413409
0.0413543
0.041366
0.0413764
0.0413855
0.0413935
0.0414004
0.0414065
0.0414117
0.0414162
0.0414201
0.0414234
0.0414262
0.0414286
0.0414306
0.0414323
0.0414337
0.0414348
0.0414357
0.0414363
0.0414367
0.0414369
0.0414369
0.0414367
0.0414363
0.0414357
0.0414348
0.0414337
0.0414323
0.0414306
0.0414286
0.0414262
0.0414234
0.0414201
0.0414162
0.0414117
0.0414065
0.0414004
0.0413935
0.0413855
0.0413764
0.041366
0.0413543
0.0413409
0.041326
0.0413092
0.0412905
0.0412698
0.041247
0.0412222
0.0411955
0.0411666
0.0481985
0.0482309
0.0482608
0.0482884
0.0483138
0.0483369
0.0483577
0.0483764
0.0483931
0.048408
0.0484211
0.0484327
0.0484428
0.0484517
0.0484594
0.0484662
0.048472
0.0484771
0.0484814
0.0484851
0.0484883
0.048491
0.0484932
0.0484951
0.0484966
0.0484979
0.0484988
0.0484995
0.0485
0.0485002
0.0485002
0.0485
0.0484995
0.0484988
0.0484979
0.0484966
0.0484951
0.0484932
0.048491
0.0484883
0.0484851
0.0484814
0.0484771
0.048472
0.0484662
0.0484594
0.0484517
0.0484428
0.0484327
0.0484211
0.048408
0.0483931
0.0483764
0.0483577
0.0483369
0.0483138
0.0482884
0.0482608
0.0482309
0.0481985
0.0556884
0.055724
0.0557568
0.055787
0.0558148
0.05584
0.0558628
0.0558832
0.0559015
0.0559177
0.0559321
0.0559448
0.0559559
0.0559656
0.0559741
0.0559815
0.0559879
0.0559934
0.0559982
0.0560023
0.0560058
0.0560087
0.0560112
0.0560133
0.0560149
0.0560163
0.0560174
0.0560181
0.0560186
0.0560189
0.0560189