/*--------------------------------*- C++ -*----------------------------------*\
| =========                 |                                                 |
| \\      /  F ield         | foam-extend: Open Source CFD                    |
|  \\    /   O peration     | Version:     4.0                                |
|   \\  /    A nd           | Web:         http://www.foam-extend.org         |
|    \\/     M anipulation  |                                                 |
\*---------------------------------------------------------------------------*/
FoamFile
{
    version     2.0;
    format      ascii;
    class       volScalarField;
    location    "1800";
    object      cPlus;
}
// * * * * * * * * * * * * * * * * * * * * * * * * * * * * * * * * * * * * * //

dimensions      [0 0 0 0 0 0 0];

internalField   nonuniform List<scalar> 
6960
(
0.286441
0.286413
0.286383
0.286355
0.286332
0.286313
0.286298
0.286285
0.286276
0.286268
0.286262
0.286257
0.286254
0.286251
0.286249
0.286247
0.286246
0.286245
0.286244
0.286243
0.286243
0.286242
0.286242
0.286242
0.286241
0.286241
0.286241
0.286241
0.286241
0.286241
0.286241
0.286241
0.286241
0.286241
0.286241
0.286241
0.286242
0.286242
0.286242
0.286243
0.286243
0.286244
0.286245
0.286246
0.286247
0.286249
0.286251
0.286254
0.286257
0.286262
0.286268
0.286276
0.286285
0.286298
0.286313
0.286332
0.286355
0.286383
0.286413
0.286441
0.0819166
0.0819009
0.0818834
0.0818677
0.0818544
0.0818435
0.0818347
0.0818276
0.0818221
0.0818177
0.0818142
0.0818116
0.0818095
0.0818078
0.0818066
0.0818056
0.0818048
0.0818042
0.0818037
0.0818033
0.081803
0.0818028
0.0818026
0.0818025
0.0818024
0.0818023
0.0818022
0.0818022
0.0818021
0.0818021
0.0818021
0.0818021
0.0818022
0.0818022
0.0818023
0.0818024
0.0818025
0.0818026
0.0818028
0.081803
0.0818033
0.0818037
0.0818042
0.0818048
0.0818056
0.0818066
0.0818078
0.0818095
0.0818116
0.0818142
0.0818177
0.0818221
0.0818276
0.0818347
0.0818435
0.0818544
0.0818677
0.0818834
0.0819009
0.0819166
0.0297147
0.0297088
0.0297019
0.0296955
0.0296901
0.0296856
0.029682
0.0296792
0.0296769
0.0296751
0.0296737
0.0296726
0.0296717
0.029671
0.0296705
0.0296701
0.0296698
0.0296695
0.0296693
0.0296692
0.029669
0.0296689
0.0296689
0.0296688
0.0296688
0.0296687
0.0296687
0.0296687
0.0296687
0.0296687
0.0296687
0.0296687
0.0296687
0.0296687
0.0296687
0.0296688
0.0296688
0.0296689
0.0296689
0.029669
0.0296692
0.0296693
0.0296695
0.0296698
0.0296701
0.0296705
0.029671
0.0296717
0.0296726
0.0296737
0.0296751
0.0296769
0.0296792
0.029682
0.0296856
0.0296901
0.0296955
0.0297019
0.0297088
0.0297147
0.0147472
0.0147466
0.0147452
0.0147439
0.0147427
0.0147417
0.0147409
0.0147403
0.0147398
0.0147394
0.014739
0.0147388
0.0147386
0.0147384
0.0147383
0.0147382
0.0147381
0.0147381
0.014738
0.014738
0.0147379
0.0147379
0.0147379
0.0147379
0.0147379
0.0147379
0.0147379
0.0147378
0.0147378
0.0147378
0.0147378
0.0147378
0.0147378
0.0147379
0.0147379
0.0147379
0.0147379
0.0147379
0.0147379
0.0147379
0.014738
0.014738
0.0147381
0.0147381
0.0147382
0.0147383
0.0147384
0.0147386
0.0147388
0.014739
0.0147394
0.0147398
0.0147403
0.0147409
0.0147417
0.0147427
0.0147439
0.0147452
0.0147466
0.0147472
0.0104369
0.0104386
0.0104398
0.0104407
0.0104415
0.0104421
0.0104425
0.0104429
0.0104431
0.0104434
0.0104435
0.0104436
0.0104437
0.0104438
0.0104439
0.0104439
0.0104439
0.0104439
0.010444
0.010444
0.010444
0.010444
0.010444
0.010444
0.010444
0.010444
0.010444
0.010444
0.010444
0.010444
0.010444
0.010444
0.010444
0.010444
0.010444
0.010444
0.010444
0.010444
0.010444
0.010444
0.010444
0.010444
0.0104439
0.0104439
0.0104439
0.0104439
0.0104438
0.0104437
0.0104436
0.0104435
0.0104434
0.0104431
0.0104429
0.0104425
0.0104421
0.0104415
0.0104407
0.0104398
0.0104386
0.0104369
0.0092632
0.00926591
0.0092681
0.00926992
0.00927142
0.00927262
0.00927359
0.00927434
0.00927494
0.0092754
0.00927576
0.00927603
0.00927624
0.00927641
0.00927653
0.00927663
0.00927671
0.00927676
0.00927681
0.00927684
0.00927687
0.00927689
0.00927691
0.00927692
0.00927693
0.00927694
0.00927695
0.00927695
0.00927695
0.00927695
0.00927695
0.00927695
0.00927695
0.00927695
0.00927694
0.00927693
0.00927692
0.00927691
0.00927689
0.00927687
0.00927684
0.00927681
0.00927676
0.00927671
0.00927663
0.00927653
0.00927641
0.00927624
0.00927603
0.00927576
0.0092754
0.00927494
0.00927434
0.00927359
0.00927262
0.00927142
0.00926992
0.0092681
0.00926591
0.0092632
0.00900291
0.009006
0.00900859
0.00901075
0.00901254
0.00901399
0.00901514
0.00901606
0.00901677
0.00901733
0.00901776
0.0090181
0.00901835
0.00901855
0.00901871
0.00901883
0.00901892
0.00901899
0.00901905
0.00901909
0.00901912
0.00901915
0.00901917
0.00901919
0.0090192
0.00901921
0.00901922
0.00901922
0.00901922
0.00901923
0.00901923
0.00901922
0.00901922
0.00901922
0.00901921
0.0090192
0.00901919
0.00901917
0.00901915
0.00901912
0.00901909
0.00901905
0.00901899
0.00901892
0.00901883
0.00901871
0.00901855
0.00901835
0.0090181
0.00901776
0.00901733
0.00901677
0.00901606
0.00901514
0.00901399
0.00901254
0.00901075
0.00900859
0.009006
0.00900291
0.00900495
0.00900821
0.00901096
0.00901327
0.00901518
0.00901672
0.00901796
0.00901894
0.0090197
0.0090203
0.00902076
0.00902112
0.0090214
0.00902161
0.00902178
0.00902191
0.00902201
0.00902208
0.00902214
0.00902219
0.00902223
0.00902226
0.00902228
0.0090223
0.00902231
0.00902232
0.00902233
0.00902233
0.00902234
0.00902234
0.00902234
0.00902234
0.00902233
0.00902233
0.00902232
0.00902231
0.0090223
0.00902228
0.00902226
0.00902223
0.00902219
0.00902214
0.00902208
0.00902201
0.00902191
0.00902178
0.00902161
0.0090214
0.00902112
0.00902076
0.0090203
0.0090197
0.00901894
0.00901796
0.00901672
0.00901518
0.00901327
0.00901096
0.00900821
0.00900495
0.00908384
0.0090872
0.00909004
0.00909243
0.0090944
0.009096
0.00909727
0.00909829
0.00909908
0.0090997
0.00910018
0.00910055
0.00910084
0.00910106
0.00910123
0.00910136
0.00910147
0.00910155
0.00910161
0.00910166
0.00910169
0.00910172
0.00910175
0.00910177
0.00910178
0.00910179
0.0091018
0.0091018
0.00910181
0.00910181
0.00910181
0.00910181
0.0091018
0.0091018
0.00910179
0.00910178
0.00910177
0.00910175
0.00910172
0.00910169
0.00910166
0.00910161
0.00910155
0.00910147
0.00910136
0.00910123
0.00910106
0.00910084
0.00910055
0.00910018
0.0090997
0.00909908
0.00909829
0.00909727
0.009096
0.0090944
0.00909243
0.00909004
0.0090872
0.00908384
0.00918874
0.00919218
0.00919509
0.00919753
0.00919955
0.00920119
0.0092025
0.00920354
0.00920435
0.00920499
0.00920548
0.00920586
0.00920615
0.00920638
0.00920656
0.00920669
0.0092068
0.00920688
0.00920695
0.009207
0.00920704
0.00920707
0.00920709
0.00920711
0.00920712
0.00920713
0.00920714
0.00920715
0.00920715
0.00920715
0.00920715
0.00920715
0.00920715
0.00920714
0.00920713
0.00920712
0.00920711
0.00920709
0.00920707
0.00920704
0.009207
0.00920695
0.00920688
0.0092068
0.00920669
0.00920656
0.00920638
0.00920615
0.00920586
0.00920548
0.00920499
0.00920435
0.00920354
0.0092025
0.00920119
0.00919955
0.00919753
0.00919509
0.00919218
0.00918874
0.00930661
0.00931013
0.0093131
0.0093156
0.00931767
0.00931934
0.00932068
0.00932174
0.00932257
0.00932322
0.00932373
0.00932412
0.00932442
0.00932465
0.00932483
0.00932497
0.00932508
0.00932517
0.00932523
0.00932528
0.00932532
0.00932536
0.00932538
0.0093254
0.00932541
0.00932543
0.00932543
0.00932544
0.00932544
0.00932545
0.00932545
0.00932544
0.00932544
0.00932543
0.00932543
0.00932541
0.0093254
0.00932538
0.00932536
0.00932532
0.00932528
0.00932523
0.00932517
0.00932508
0.00932497
0.00932483
0.00932465
0.00932442
0.00932412
0.00932373
0.00932322
0.00932257
0.00932174
0.00932068
0.00931934
0.00931767
0.0093156
0.0093131
0.00931013
0.00930661
0.00943472
0.00943832
0.00944136
0.00944393
0.00944604
0.00944775
0.00944913
0.00945021
0.00945106
0.00945173
0.00945225
0.00945265
0.00945296
0.0094532
0.00945338
0.00945352
0.00945364
0.00945372
0.00945379
0.00945384
0.00945388
0.00945392
0.00945394
0.00945396
0.00945398
0.00945399
0.009454
0.009454
0.00945401
0.00945401
0.00945401
0.00945401
0.009454
0.009454
0.00945399
0.00945398
0.00945396
0.00945394
0.00945392
0.00945388
0.00945384
0.00945379
0.00945372
0.00945364
0.00945352
0.00945338
0.0094532
0.00945296
0.00945265
0.00945225
0.00945173
0.00945106
0.00945021
0.00944913
0.00944775
0.00944604
0.00944393
0.00944136
0.00943832
0.00943472
0.00957317
0.00957687
0.00957999
0.00958261
0.00958478
0.00958653
0.00958794
0.00958905
0.00958993
0.00959061
0.00959114
0.00959155
0.00959187
0.00959211
0.0095923
0.00959245
0.00959257
0.00959265
0.00959272
0.00959278
0.00959282
0.00959285
0.00959288
0.0095929
0.00959291
0.00959293
0.00959294
0.00959294
0.00959295
0.00959295
0.00959295
0.00959295
0.00959294
0.00959294
0.00959293
0.00959291
0.0095929
0.00959288
0.00959285
0.00959282
0.00959278
0.00959272
0.00959265
0.00959257
0.00959245
0.0095923
0.00959211
0.00959187
0.00959155
0.00959114
0.00959061
0.00958993
0.00958905
0.00958794
0.00958653
0.00958478
0.00958261
0.00957999
0.00957687
0.00957317
0.00972289
0.00972669
0.00972989
0.00973258
0.0097348
0.00973661
0.00973805
0.0097392
0.00974009
0.0097408
0.00974134
0.00974176
0.00974209
0.00974234
0.00974254
0.00974269
0.00974281
0.0097429
0.00974297
0.00974302
0.00974307
0.0097431
0.00974313
0.00974315
0.00974317
0.00974318
0.00974319
0.00974319
0.0097432
0.0097432
0.0097432
0.0097432
0.00974319
0.00974319
0.00974318
0.00974317
0.00974315
0.00974313
0.0097431
0.00974307
0.00974302
0.00974297
0.0097429
0.00974281
0.00974269
0.00974254
0.00974234
0.00974209
0.00974176
0.00974134
0.0097408
0.00974009
0.0097392
0.00973805
0.00973661
0.0097348
0.00973258
0.00972989
0.00972669
0.00972289
0.00988516
0.00988907
0.00989235
0.00989512
0.00989741
0.00989927
0.00990075
0.00990193
0.00990285
0.00990357
0.00990413
0.00990457
0.00990491
0.00990517
0.00990537
0.00990552
0.00990564
0.00990574
0.00990581
0.00990587
0.00990591
0.00990595
0.00990598
0.009906
0.00990601
0.00990603
0.00990604
0.00990604
0.00990605
0.00990605
0.00990605
0.00990605
0.00990604
0.00990604
0.00990603
0.00990601
0.009906
0.00990598
0.00990595
0.00990591
0.00990587
0.00990581
0.00990574
0.00990564
0.00990552
0.00990537
0.00990517
0.00990491
0.00990457
0.00990413
0.00990357
0.00990285
0.00990193
0.00990075
0.00989927
0.00989741
0.00989512
0.00989235
0.00988907
0.00988516
0.0100615
0.0100655
0.0100689
0.0100718
0.0100741
0.0100761
0.0100776
0.0100788
0.0100798
0.0100805
0.0100811
0.0100815
0.0100819
0.0100821
0.0100824
0.0100825
0.0100826
0.0100827
0.0100828
0.0100829
0.0100829
0.010083
0.010083
0.010083
0.010083
0.010083
0.010083
0.010083
0.0100831
0.0100831
0.0100831
0.0100831
0.010083
0.010083
0.010083
0.010083
0.010083
0.010083
0.010083
0.0100829
0.0100829
0.0100828
0.0100827
0.0100826
0.0100825
0.0100824
0.0100821
0.0100819
0.0100815
0.0100811
0.0100805
0.0100798
0.0100788
0.0100776
0.0100761
0.0100741
0.0100718
0.0100689
0.0100655
0.0100615
0.0102538
0.010258
0.0102615
0.0102644
0.0102669
0.0102688
0.0102704
0.0102717
0.0102727
0.0102734
0.010274
0.0102745
0.0102748
0.0102751
0.0102753
0.0102755
0.0102756
0.0102757
0.0102758
0.0102759
0.0102759
0.010276
0.010276
0.010276
0.010276
0.010276
0.0102761
0.0102761
0.0102761
0.0102761
0.0102761
0.0102761
0.0102761
0.0102761
0.010276
0.010276
0.010276
0.010276
0.010276
0.0102759
0.0102759
0.0102758
0.0102757
0.0102756
0.0102755
0.0102753
0.0102751
0.0102748
0.0102745
0.010274
0.0102734
0.0102727
0.0102717
0.0102704
0.0102688
0.0102669
0.0102644
0.0102615
0.010258
0.0102538
0.0104642
0.0104685
0.0104722
0.0104752
0.0104777
0.0104798
0.0104814
0.0104827
0.0104837
0.0104845
0.0104852
0.0104856
0.010486
0.0104863
0.0104865
0.0104867
0.0104868
0.0104869
0.010487
0.0104871
0.0104871
0.0104872
0.0104872
0.0104872
0.0104872
0.0104873
0.0104873
0.0104873
0.0104873
0.0104873
0.0104873
0.0104873
0.0104873
0.0104873
0.0104873
0.0104872
0.0104872
0.0104872
0.0104872
0.0104871
0.0104871
0.010487
0.0104869
0.0104868
0.0104867
0.0104865
0.0104863
0.010486
0.0104856
0.0104852
0.0104845
0.0104837
0.0104827
0.0104814
0.0104798
0.0104777
0.0104752
0.0104722
0.0104685
0.0104642
0.0106954
0.0106999
0.0107037
0.0107068
0.0107094
0.0107116
0.0107133
0.0107146
0.0107157
0.0107165
0.0107172
0.0107177
0.010718
0.0107183
0.0107186
0.0107188
0.0107189
0.010719
0.0107191
0.0107192
0.0107192
0.0107192
0.0107193
0.0107193
0.0107193
0.0107193
0.0107193
0.0107194
0.0107194
0.0107194
0.0107194
0.0107194
0.0107194
0.0107193
0.0107193
0.0107193
0.0107193
0.0107193
0.0107192
0.0107192
0.0107192
0.0107191
0.010719
0.0107189
0.0107188
0.0107186
0.0107183
0.010718
0.0107177
0.0107172
0.0107165
0.0107157
0.0107146
0.0107133
0.0107116
0.0107094
0.0107068
0.0107037
0.0106999
0.0106954
0.0109505
0.0109552
0.0109591
0.0109624
0.0109651
0.0109674
0.0109691
0.0109705
0.0109717
0.0109725
0.0109732
0.0109737
0.0109741
0.0109744
0.0109747
0.0109749
0.010975
0.0109751
0.0109752
0.0109753
0.0109753
0.0109754
0.0109754
0.0109754
0.0109754
0.0109755
0.0109755
0.0109755
0.0109755
0.0109755
0.0109755
0.0109755
0.0109755
0.0109755
0.0109755
0.0109754
0.0109754
0.0109754
0.0109754
0.0109753
0.0109753
0.0109752
0.0109751
0.010975
0.0109749
0.0109747
0.0109744
0.0109741
0.0109737
0.0109732
0.0109725
0.0109717
0.0109705
0.0109691
0.0109674
0.0109651
0.0109624
0.0109591
0.0109552
0.0109505
0.0112334
0.0112384
0.0112425
0.0112459
0.0112488
0.0112511
0.0112529
0.0112544
0.0112556
0.0112565
0.0112572
0.0112577
0.0112582
0.0112585
0.0112587
0.0112589
0.0112591
0.0112592
0.0112593
0.0112594
0.0112594
0.0112595
0.0112595
0.0112595
0.0112596
0.0112596
0.0112596
0.0112596
0.0112596
0.0112596
0.0112596
0.0112596
0.0112596
0.0112596
0.0112596
0.0112596
0.0112595
0.0112595
0.0112595
0.0112594
0.0112594
0.0112593
0.0112592
0.0112591
0.0112589
0.0112587
0.0112585
0.0112582
0.0112577
0.0112572
0.0112565
0.0112556
0.0112544
0.0112529
0.0112511
0.0112488
0.0112459
0.0112425
0.0112384
0.0112334
0.0115491
0.0115542
0.0115585
0.0115622
0.0115652
0.0115676
0.0115696
0.0115711
0.0115723
0.0115733
0.011574
0.0115746
0.011575
0.0115754
0.0115756
0.0115759
0.011576
0.0115761
0.0115762
0.0115763
0.0115764
0.0115764
0.0115765
0.0115765
0.0115765
0.0115765
0.0115765
0.0115765
0.0115766
0.0115766
0.0115766
0.0115766
0.0115765
0.0115765
0.0115765
0.0115765
0.0115765
0.0115765
0.0115764
0.0115764
0.0115763
0.0115762
0.0115761
0.011576
0.0115759
0.0115756
0.0115754
0.011575
0.0115746
0.011574
0.0115733
0.0115723
0.0115711
0.0115696
0.0115676
0.0115652
0.0115622
0.0115585
0.0115542
0.0115491
0.0119034
0.0119088
0.0119134
0.0119172
0.0119204
0.011923
0.011925
0.0119267
0.011928
0.011929
0.0119298
0.0119304
0.0119308
0.0119312
0.0119315
0.0119317
0.0119319
0.011932
0.0119321
0.0119322
0.0119323
0.0119323
0.0119323
0.0119324
0.0119324
0.0119324
0.0119324
0.0119324
0.0119324
0.0119324
0.0119324
0.0119324
0.0119324
0.0119324
0.0119324
0.0119324
0.0119324
0.0119323
0.0119323
0.0119323
0.0119322
0.0119321
0.011932
0.0119319
0.0119317
0.0119315
0.0119312
0.0119308
0.0119304
0.0119298
0.011929
0.011928
0.0119267
0.011925
0.011923
0.0119204
0.0119172
0.0119134
0.0119088
0.0119034
0.0123041
0.0123099
0.0123148
0.0123189
0.0123222
0.012325
0.0123272
0.0123289
0.0123303
0.0123313
0.0123322
0.0123328
0.0123333
0.0123337
0.012334
0.0123342
0.0123344
0.0123346
0.0123347
0.0123348
0.0123348
0.0123349
0.0123349
0.0123349
0.012335
0.012335
0.012335
0.012335
0.012335
0.012335
0.012335
0.012335
0.012335
0.012335
0.012335
0.012335
0.0123349
0.0123349
0.0123349
0.0123348
0.0123348
0.0123347
0.0123346
0.0123344
0.0123342
0.012334
0.0123337
0.0123333
0.0123328
0.0123322
0.0123313
0.0123303
0.0123289
0.0123272
0.012325
0.0123222
0.0123189
0.0123148
0.0123099
0.0123041
0.0127613
0.0127675
0.0127727
0.012777
0.0127806
0.0127836
0.0127859
0.0127878
0.0127893
0.0127904
0.0127913
0.012792
0.0127925
0.0127929
0.0127933
0.0127935
0.0127937
0.0127939
0.012794
0.0127941
0.0127941
0.0127942
0.0127942
0.0127943
0.0127943
0.0127943
0.0127943
0.0127943
0.0127944
0.0127944
0.0127944
0.0127944
0.0127943
0.0127943
0.0127943
0.0127943
0.0127943
0.0127942
0.0127942
0.0127941
0.0127941
0.012794
0.0127939
0.0127937
0.0127935
0.0127933
0.0127929
0.0127925
0.012792
0.0127913
0.0127904
0.0127893
0.0127878
0.0127859
0.0127836
0.0127806
0.012777
0.0127727
0.0127675
0.0127613
0.013288
0.0132947
0.0133003
0.013305
0.0133089
0.013312
0.0133146
0.0133166
0.0133182
0.0133194
0.0133204
0.0133211
0.0133217
0.0133221
0.0133225
0.0133228
0.013323
0.0133231
0.0133233
0.0133234
0.0133234
0.0133235
0.0133236
0.0133236
0.0133236
0.0133236
0.0133237
0.0133237
0.0133237
0.0133237
0.0133237
0.0133237
0.0133237
0.0133237
0.0133236
0.0133236
0.0133236
0.0133236
0.0133235
0.0133234
0.0133234
0.0133233
0.0133231
0.013323
0.0133228
0.0133225
0.0133221
0.0133217
0.0133211
0.0133204
0.0133194
0.0133182
0.0133166
0.0133146
0.013312
0.0133089
0.013305
0.0133003
0.0132947
0.013288
0.0139019
0.0139092
0.0139153
0.0139205
0.0139247
0.0139281
0.0139309
0.0139331
0.0139348
0.0139362
0.0139372
0.0139381
0.0139387
0.0139392
0.0139396
0.0139399
0.0139401
0.0139403
0.0139404
0.0139405
0.0139406
0.0139407
0.0139407
0.0139408
0.0139408
0.0139408
0.0139408
0.0139408
0.0139409
0.0139409
0.0139409
0.0139409
0.0139408
0.0139408
0.0139408
0.0139408
0.0139408
0.0139407
0.0139407
0.0139406
0.0139405
0.0139404
0.0139403
0.0139401
0.0139399
0.0139396
0.0139392
0.0139387
0.0139381
0.0139372
0.0139362
0.0139348
0.0139331
0.0139309
0.0139281
0.0139247
0.0139205
0.0139153
0.0139092
0.0139019
0.0146276
0.0146356
0.0146423
0.014648
0.0146527
0.0146565
0.0146596
0.014662
0.0146639
0.0146654
0.0146666
0.0146675
0.0146682
0.0146687
0.0146691
0.0146695
0.0146697
0.0146699
0.0146701
0.0146702
0.0146703
0.0146703
0.0146704
0.0146704
0.0146705
0.0146705
0.0146705
0.0146705
0.0146705
0.0146706
0.0146706
0.0146705
0.0146705
0.0146705
0.0146705
0.0146705
0.0146704
0.0146704
0.0146703
0.0146703
0.0146702
0.0146701
0.0146699
0.0146697
0.0146695
0.0146691
0.0146687
0.0146682
0.0146675
0.0146666
0.0146654
0.0146639
0.014662
0.0146596
0.0146565
0.0146527
0.014648
0.0146423
0.0146356
0.0146276
0.0154995
0.0155085
0.0155161
0.0155224
0.0155277
0.015532
0.0155354
0.0155381
0.0155403
0.015542
0.0155433
0.0155443
0.0155451
0.0155457
0.0155461
0.0155465
0.0155468
0.015547
0.0155472
0.0155473
0.0155474
0.0155475
0.0155476
0.0155476
0.0155477
0.0155477
0.0155477
0.0155477
0.0155477
0.0155478
0.0155478
0.0155477
0.0155477
0.0155477
0.0155477
0.0155477
0.0155476
0.0155476
0.0155475
0.0155474
0.0155473
0.0155472
0.015547
0.0155468
0.0155465
0.0155461
0.0155457
0.0155451
0.0155443
0.0155433
0.015542
0.0155403
0.0155381
0.0155354
0.015532
0.0155277
0.0155224
0.0155161
0.0155085
0.0154995
0.0165683
0.0165786
0.0165872
0.0165945
0.0166005
0.0166054
0.0166093
0.0166124
0.0166149
0.0166168
0.0166183
0.0166195
0.0166204
0.0166211
0.0166216
0.016622
0.0166224
0.0166226
0.0166228
0.016623
0.0166231
0.0166232
0.0166233
0.0166233
0.0166234
0.0166234
0.0166234
0.0166234
0.0166234
0.0166235
0.0166235
0.0166234
0.0166234
0.0166234
0.0166234
0.0166234
0.0166233
0.0166233
0.0166232
0.0166231
0.016623
0.0166228
0.0166226
0.0166224
0.016622
0.0166216
0.0166211
0.0166204
0.0166195
0.0166183
0.0166168
0.0166149
0.0166124
0.0166093
0.0166054
0.0166005
0.0165945
0.0165872
0.0165786
0.0165683
0.0179091
0.0179211
0.0179312
0.0179397
0.0179467
0.0179525
0.0179571
0.0179607
0.0179636
0.0179659
0.0179676
0.017969
0.0179701
0.0179709
0.0179715
0.017972
0.0179724
0.0179727
0.0179729
0.0179731
0.0179732
0.0179733
0.0179734
0.0179735
0.0179735
0.0179736
0.0179736
0.0179736
0.0179737
0.0179737
0.0179737
0.0179737
0.0179736
0.0179736
0.0179736
0.0179735
0.0179735
0.0179734
0.0179733
0.0179732
0.0179731
0.0179729
0.0179727
0.0179724
0.017972
0.0179715
0.0179709
0.0179701
0.017969
0.0179676
0.0179659
0.0179636
0.0179607
0.0179571
0.0179525
0.0179467
0.0179397
0.0179312
0.0179211
0.0179091
0.0196348
0.0196491
0.0196612
0.0196715
0.01968
0.0196869
0.0196924
0.0196968
0.0197003
0.019703
0.0197051
0.0197068
0.0197081
0.019709
0.0197098
0.0197104
0.0197109
0.0197112
0.0197115
0.0197117
0.0197119
0.019712
0.0197121
0.0197122
0.0197123
0.0197123
0.0197124
0.0197124
0.0197124
0.0197124
0.0197124
0.0197124
0.0197124
0.0197124
0.0197123
0.0197123
0.0197122
0.0197121
0.019712
0.0197119
0.0197117
0.0197115
0.0197112
0.0197109
0.0197104
0.0197098
0.019709
0.0197081
0.0197068
0.0197051
0.019703
0.0197003
0.0196968
0.0196924
0.0196869
0.01968
0.0196715
0.0196612
0.0196491
0.0196348
0.021911
0.0219286
0.0219437
0.0219564
0.0219669
0.0219755
0.0219824
0.0219878
0.0219921
0.0219955
0.0219981
0.0220002
0.0220018
0.022003
0.0220039
0.0220047
0.0220053
0.0220057
0.022006
0.0220063
0.0220065
0.0220067
0.0220068
0.0220069
0.022007
0.0220071
0.0220071
0.0220071
0.0220072
0.0220072
0.0220072
0.0220072
0.0220071
0.0220071
0.0220071
0.022007
0.0220069
0.0220068
0.0220067
0.0220065
0.0220063
0.022006
0.0220057
0.0220053
0.0220047
0.0220039
0.022003
0.0220018
0.0220002
0.0219981
0.0219955
0.0219921
0.0219878
0.0219824
0.0219755
0.0219669
0.0219564
0.0219437
0.0219286
0.021911
0.0249662
0.0249884
0.0250075
0.0250236
0.025037
0.0250479
0.0250566
0.0250636
0.0250691
0.0250734
0.0250767
0.0250793
0.0250813
0.0250829
0.0250841
0.025085
0.0250858
0.0250863
0.0250868
0.0250871
0.0250874
0.0250876
0.0250878
0.0250879
0.025088
0.0250881
0.0250881
0.0250882
0.0250882
0.0250882
0.0250882
0.0250882
0.0250882
0.0250881
0.0250881
0.025088
0.0250879
0.0250878
0.0250876
0.0250874
0.0250871
0.0250868
0.0250863
0.0250858
0.025085
0.0250841
0.0250829
0.0250813
0.0250793
0.0250767
0.0250734
0.0250691
0.0250636
0.0250566
0.0250479
0.025037
0.0250236
0.0250075
0.0249884
0.0249662
0.0290776
0.0291061
0.0291306
0.0291513
0.0291685
0.0291825
0.0291937
0.0292027
0.0292097
0.0292153
0.0292196
0.0292229
0.0292255
0.0292275
0.0292291
0.0292303
0.0292312
0.0292319
0.0292325
0.029233
0.0292333
0.0292336
0.0292338
0.029234
0.0292341
0.0292342
0.0292343
0.0292343
0.0292343
0.0292343
0.0292343
0.0292343
0.0292343
0.0292343
0.0292342
0.0292341
0.029234
0.0292338
0.0292336
0.0292333
0.029233
0.0292325
0.0292319
0.0292312
0.0292303
0.0292291
0.0292275
0.0292255
0.0292229
0.0292196
0.0292153
0.0292097
0.0292027
0.0291937
0.0291825
0.0291685
0.0291513
0.0291306
0.0291061
0.0290776
0.0345167
0.034553
0.0345842
0.0346106
0.0346325
0.0346504
0.0346647
0.0346762
0.0346852
0.0346922
0.0346977
0.034702
0.0347053
0.0347079
0.0347099
0.0347115
0.0347127
0.0347136
0.0347143
0.0347149
0.0347153
0.0347157
0.034716
0.0347162
0.0347163
0.0347165
0.0347166
0.0347166
0.0347167
0.0347167
0.0347167
0.0347167
0.0347166
0.0347166
0.0347165
0.0347163
0.0347162
0.034716
0.0347157
0.0347153
0.0347149
0.0347143
0.0347136
0.0347127
0.0347115
0.0347099
0.0347079
0.0347053
0.034702
0.0346977
0.0346922
0.0346852
0.0346762
0.0346647
0.0346504
0.0346325
0.0346106
0.0345842
0.034553
0.0345167
0.0414574
0.0415027
0.0415415
0.0415745
0.0416018
0.041624
0.0416419
0.0416562
0.0416674
0.0416762
0.0416831
0.0416884
0.0416926
0.0416958
0.0416983
0.0417002
0.0417017
0.0417029
0.0417038
0.0417045
0.0417051
0.0417055
0.0417059
0.0417062
0.0417064
0.0417065
0.0417066
0.0417067
0.0417068
0.0417068
0.0417068
0.0417068
0.0417067
0.0417066
0.0417065
0.0417064
0.0417062
0.0417059
0.0417055
0.0417051
0.0417045
0.0417038
0.0417029
0.0417017
0.0417002
0.0416983
0.0416958
0.0416926
0.0416884
0.0416831
0.0416762
0.0416674
0.0416562
0.0416419
0.041624
0.0416018
0.0415745
0.0415415
0.0415027
0.0414574
0.0498981
0.0499528
0.0499996
0.0500392
0.0500721
0.0500989
0.0501204
0.0501376
0.0501512
0.0501618
0.0501701
0.0501765
0.0501816
0.0501855
0.0501885
0.0501908
0.0501927
0.0501941
0.0501952
0.0501961
0.0501968
0.0501973
0.0501977
0.050198
0.0501983
0.0501985
0.0501986
0.0501987
0.0501988
0.0501988
0.0501988
0.0501988
0.0501987
0.0501986
0.0501985
0.0501983
0.050198
0.0501977
0.0501973
0.0501968
0.0501961
0.0501952
0.0501941
0.0501927
0.0501908
0.0501885
0.0501855
0.0501816
0.0501765
0.0501701
0.0501618
0.0501512
0.0501376
0.0501204
0.0500989
0.0500721
0.0500392
0.0499996
0.0499528
0.0498981
0.0596561
0.0597199
0.0597744
0.0598204
0.0598586
0.0598897
0.0599147
0.0599347
0.0599505
0.0599629
0.0599726
0.0599801
0.059986
0.0599905
0.0599941
0.0599968
0.059999
0.0600006
0.060002
0.060003
0.0600038
0.0600044
0.0600049
0.0600053
0.0600056
0.0600058
0.060006
0.0600061
0.0600062
0.0600062
0.0600062
0.0600062
0.0600061
0.060006
0.0600058
0.0600056
0.0600053
0.0600049
0.0600044
0.0600038
0.060003
0.060002
0.0600006
0.059999
0.0599968
0.0599941
0.0599905
0.059986
0.0599801
0.0599726
0.0599629
0.0599505
0.0599347
0.0599147
0.0598897
0.0598586
0.0598204
0.0597744
0.0597199
0.0596561
0.0704443
0.0705166
0.070578
0.0706299
0.0706729
0.0707079
0.0707362
0.0707588
0.0707766
0.0707906
0.0708016
0.0708101
0.0708168
0.070822
0.070826
0.0708291
0.0708316
0.0708335
0.070835
0.0708362
0.0708371
0.0708378
0.0708384
0.0708388
0.0708391
0.0708394
0.0708396
0.0708397
0.0708398
0.0708399
0.0708399
0.0708398
0.0708397
0.0708396
0.0708394
0.0708391
0.0708388
0.0708384
0.0708378
0.0708371
0.0708362
0.070835
0.0708335
0.0708316
0.0708291
0.070826
0.070822
0.0708168
0.0708101
0.0708016
0.0707906
0.0707766
0.0707588
0.0707362
0.0707079
0.0706729
0.0706299
0.070578
0.0705166
0.0704443
0.0819725
0.0820524
0.0821202
0.0821773
0.0822247
0.0822633
0.0822945
0.0823194
0.0823391
0.0823546
0.0823668
0.0823763
0.0823837
0.0823895
0.0823939
0.0823974
0.0824002
0.0824023
0.082404
0.0824053
0.0824063
0.0824072
0.0824078
0.0824083
0.0824087
0.082409
0.0824092
0.0824093
0.0824094
0.0824095
0.0824095
0.0824094
0.0824093
0.0824092
0.082409
0.0824087
0.0824083
0.0824078
0.0824072
0.0824063
0.0824053
0.082404
0.0824023
0.0824002
0.0823974
0.0823939
0.0823895
0.0823837
0.0823763
0.0823668
0.0823546
0.0823391
0.0823194
0.0822945
0.0822633
0.0822247
0.0821773
0.0821202
0.0820524
0.0819725
0.0940119
0.0940989
0.0941725
0.0942345
0.0942858
0.0943278
0.0943617
0.0943888
0.0944103
0.0944272
0.0944405
0.0944509
0.094459
0.0944653
0.0944703
0.0944741
0.0944771
0.0944795
0.0944813
0.0944828
0.0944839
0.0944848
0.0944855
0.0944861
0.0944865
0.0944869
0.0944871
0.0944873
0.0944874
0.0944874
0.0944874
0.0944874
0.0944873
0.0944871
0.0944869
0.0944865
0.0944861
0.0944855
0.0944848
0.0944839
0.0944828
0.0944813
0.0944795
0.0944771
0.0944741
0.0944703
0.0944653
0.094459
0.0944509
0.0944405
0.0944272
0.0944103
0.0943888
0.0943617
0.0943278
0.0942858
0.0942345
0.0941725
0.0940989
0.0940119
0.106409
0.106503
0.106582
0.106649
0.106704
0.106749
0.106785
0.106815
0.106838
0.106856
0.10687
0.106882
0.106891
0.106897
0.106903
0.106907
0.10691
0.106913
0.106915
0.106916
0.106918
0.106919
0.106919
0.10692
0.106921
0.106921
0.106921
0.106921
0.106921
0.106922
0.106922
0.106921
0.106921
0.106921
0.106921
0.106921
0.10692
0.106919
0.106919
0.106918
0.106916
0.106915
0.106913
0.10691
0.106907
0.106903
0.106897
0.106891
0.106882
0.10687
0.106856
0.106838
0.106815
0.106785
0.106749
0.106704
0.106649
0.106582
0.106503
0.106409
0.119071
0.119171
0.119255
0.119326
0.119385
0.119433
0.119472
0.119503
0.119528
0.119548
0.119563
0.119576
0.119585
0.119592
0.119598
0.119603
0.119606
0.119609
0.119611
0.119613
0.119615
0.119616
0.119616
0.119617
0.119618
0.119618
0.119618
0.119619
0.119619
0.119619
0.119619
0.119619
0.119619
0.119618
0.119618
0.119618
0.119617
0.119616
0.119616
0.119615
0.119613
0.119611
0.119609
0.119606
0.119603
0.119598
0.119592
0.119585
0.119576
0.119563
0.119548
0.119528
0.119503
0.119472
0.119433
0.119385
0.119326
0.119255
0.119171
0.119071
0.131939
0.132046
0.132135
0.13221
0.132273
0.132324
0.132366
0.132399
0.132426
0.132447
0.132463
0.132476
0.132487
0.132495
0.132501
0.132506
0.13251
0.132513
0.132515
0.132517
0.132518
0.13252
0.132521
0.132521
0.132522
0.132522
0.132523
0.132523
0.132523
0.132523
0.132523
0.132523
0.132523
0.132523
0.132522
0.132522
0.132521
0.132521
0.13252
0.132518
0.132517
0.132515
0.132513
0.13251
0.132506
0.132501
0.132495
0.132487
0.132476
0.132463
0.132447
0.132426
0.132399
0.132366
0.132324
0.132273
0.13221
0.132135
0.132046
0.131939
0.14498
0.145092
0.145187
0.145267
0.145333
0.145387
0.145431
0.145467
0.145495
0.145517
0.145535
0.145549
0.14556
0.145568
0.145575
0.14558
0.145585
0.145588
0.14559
0.145592
0.145594
0.145595
0.145596
0.145597
0.145598
0.145598
0.145599
0.145599
0.145599
0.145599
0.145599
0.145599
0.145599
0.145599
0.145598
0.145598
0.145597
0.145596
0.145595
0.145594
0.145592
0.14559
0.145588
0.145585
0.14558
0.145575
0.145568
0.14556
0.145549
0.145535
0.145517
0.145495
0.145467
0.145431
0.145387
0.145333
0.145267
0.145187
0.145092
0.14498
0.158169
0.158287
0.158386
0.15847
0.15854
0.158597
0.158644
0.158681
0.158711
0.158735
0.158754
0.158769
0.15878
0.15879
0.158797
0.158803
0.158807
0.158811
0.158813
0.158816
0.158817
0.158819
0.15882
0.158821
0.158821
0.158822
0.158822
0.158822
0.158823
0.158823
0.158823
0.158823
0.158822
0.158822
0.158822
0.158821
0.158821
0.15882
0.158819
0.158817
0.158816
0.158813
0.158811
0.158807
0.158803
0.158797
0.15879
0.15878
0.158769
0.158754
0.158735
0.158711
0.158681
0.158644
0.158597
0.15854
0.15847
0.158386
0.158287
0.158169
0.171487
0.17161
0.171715
0.171803
0.171876
0.171936
0.171985
0.172025
0.172057
0.172082
0.172102
0.172118
0.17213
0.17214
0.172148
0.172154
0.172159
0.172163
0.172166
0.172168
0.17217
0.172171
0.172172
0.172173
0.172174
0.172175
0.172175
0.172175
0.172176
0.172176
0.172176
0.172176
0.172175
0.172175
0.172175
0.172174
0.172173
0.172172
0.172171
0.17217
0.172168
0.172166
0.172163
0.172159
0.172154
0.172148
0.17214
0.17213
0.172118
0.172102
0.172082
0.172057
0.172025
0.171985
0.171936
0.171876
0.171803
0.171715
0.17161
0.171487
0.184919
0.185048
0.185157
0.185249
0.185326
0.185389
0.185441
0.185483
0.185516
0.185543
0.185564
0.185581
0.185594
0.185605
0.185613
0.18562
0.185625
0.185629
0.185632
0.185635
0.185637
0.185638
0.185639
0.18564
0.185641
0.185642
0.185642
0.185643
0.185643
0.185643
0.185643
0.185643
0.185643
0.185642
0.185642
0.185641
0.18564
0.185639
0.185638
0.185637
0.185635
0.185632
0.185629
0.185625
0.18562
0.185613
0.185605
0.185594
0.185581
0.185564
0.185543
0.185516
0.185483
0.185441