/*--------------------------------*- C++ -*----------------------------------*\
| =========                 |                                                 |
| \\      /  F ield         | foam-extend: Open Source CFD                    |
|  \\    /   O peration     | Version:     4.0                                |
|   \\  /    A nd           | Web:         http://www.foam-extend.org         |
|    \\/     M anipulation  |                                                 |
\*---------------------------------------------------------------------------*/
FoamFile
{
    version     2.0;
    format      ascii;
    class       volVectorField;
    location    "5";
    object      bodyForce;
}
// * * * * * * * * * * * * * * * * * * * * * * * * * * * * * * * * * * * * * //

dimensions      [0 -1 0 0 0 0 0];

internalField   nonuniform List<vector> 
6960
(
(0.000159374 -3.90718e+08 -0)
(0.000235993 -3.90718e+08 -0)
(8.127e-05 -3.90718e+08 -0)
(8.35492e-06 -3.90718e+08 -0)
(4.53511e-06 -3.90718e+08 -0)
(1.34011e-06 -3.90718e+08 -0)
(5.34333e-07 -3.90718e+08 -0)
(-1.71182e-08 -3.90718e+08 -0)
(-2.05419e-07 -3.90718e+08 -0)
(-3.35028e-07 -3.90718e+08 -0)
(-3.63151e-07 -3.90718e+08 -0)
(-3.64374e-07 -3.90718e+08 -0)
(-3.5826e-07 -3.90718e+08 -0)
(-3.59483e-07 -3.90718e+08 -0)
(-3.36251e-07 -3.90718e+08 -0)
(-3.03237e-07 -3.90718e+08 -0)
(-2.98346e-07 -3.90718e+08 -0)
(-3.0446e-07 -3.90718e+08 -0)
(-2.73892e-07 -3.90718e+08 -0)
(-2.57996e-07 -3.90718e+08 -0)
(-2.5066e-07 -3.90718e+08 -0)
(-2.28651e-07 -3.90718e+08 -0)
(-2.11532e-07 -3.90718e+08 -0)
(-1.87078e-07 -3.90718e+08 -0)
(-1.67514e-07 -3.90718e+08 -0)
(-1.49173e-07 -3.90718e+08 -0)
(-1.19828e-07 -3.90718e+08 -0)
(-8.68139e-08 -3.90718e+08 -0)
(-4.76865e-08 -3.90718e+08 -0)
(-3.42365e-08 -3.90718e+08 -0)
(-1.345e-08 -3.90718e+08 -0)
(4.15729e-08 -3.90718e+08 -0)
(8.43684e-08 -3.90718e+08 -0)
(1.24719e-07 -3.90718e+08 -0)
(1.4795e-07 -3.90718e+08 -0)
(1.74851e-07 -3.90718e+08 -0)
(2.06642e-07 -3.90718e+08 -0)
(2.06642e-07 -3.90718e+08 -0)
(2.33542e-07 -3.90718e+08 -0)
(2.57996e-07 -3.90718e+08 -0)
(2.61664e-07 -3.90718e+08 -0)
(2.67778e-07 -3.90718e+08 -0)
(2.95901e-07 -3.90718e+08 -0)
(3.1791e-07 -3.90718e+08 -0)
(3.20356e-07 -3.90718e+08 -0)
(3.38696e-07 -3.90718e+08 -0)
(3.57037e-07 -3.90718e+08 -0)
(3.65597e-07 -3.90718e+08 -0)
(3.74156e-07 -3.90718e+08 -0)
(3.66819e-07 -3.90718e+08 -0)
(3.25246e-07 -3.90718e+08 -0)
(2.00528e-07 -3.90718e+08 -0)
(2.32319e-08 -3.90718e+08 -0)
(-5.39224e-07 -3.90718e+08 -0)
(-1.334e-06 -3.90718e+08 -0)
(-4.51921e-06 -3.90718e+08 -0)
(-8.3537e-06 -3.90718e+08 -0)
(-8.12615e-05 -3.90718e+08 -0)
(-0.000235985 -3.90718e+08 -0)
(-0.000159384 -3.90718e+08 -0)
(0.000267785 -1.35544e+08 -0)
(0.00039726 -1.35544e+08 -0)
(0.000137674 -1.35544e+08 -0)
(1.45533e-05 -1.35544e+08 -0)
(7.81728e-06 -1.35544e+08 -0)
(2.36013e-06 -1.35544e+08 -0)
(9.57828e-07 -1.35544e+08 -0)
(5.19852e-09 -1.35544e+08 -0)
(-3.22309e-07 -1.35544e+08 -0)
(-5.54943e-07 -1.35544e+08 -0)
(-6.03029e-07 -1.35544e+08 -0)
(-6.08227e-07 -1.35544e+08 -0)
(-6.04328e-07 -1.35544e+08 -0)
(-6.03029e-07 -1.35544e+08 -0)
(-5.6404e-07 -1.35544e+08 -0)
(-5.14654e-07 -1.35544e+08 -0)
(-5.01658e-07 -1.35544e+08 -0)
(-5.09455e-07 -1.35544e+08 -0)
(-4.63968e-07 -1.35544e+08 -0)
(-4.36676e-07 -1.35544e+08 -0)
(-4.2238e-07 -1.35544e+08 -0)
(-3.8599e-07 -1.35544e+08 -0)
(-3.57399e-07 -1.35544e+08 -0)
(-3.1841e-07 -1.35544e+08 -0)
(-2.87218e-07 -1.35544e+08 -0)
(-2.49529e-07 -1.35544e+08 -0)
(-1.98844e-07 -1.35544e+08 -0)
(-1.44259e-07 -1.35544e+08 -0)
(-7.66782e-08 -1.35544e+08 -0)
(-6.10827e-08 -1.35544e+08 -0)
(-2.4693e-08 -1.35544e+08 -0)
(6.49816e-08 -1.35544e+08 -0)
(1.4166e-07 -1.35544e+08 -0)
(2.18338e-07 -1.35544e+08 -0)
(2.53428e-07 -1.35544e+08 -0)
(2.98915e-07 -1.35544e+08 -0)
(3.41803e-07 -1.35544e+08 -0)
(3.509e-07 -1.35544e+08 -0)
(3.95088e-07 -1.35544e+08 -0)
(4.31478e-07 -1.35544e+08 -0)
(4.41875e-07 -1.35544e+08 -0)
(4.5877e-07 -1.35544e+08 -0)
(4.91261e-07 -1.35544e+08 -0)
(5.31549e-07 -1.35544e+08 -0)
(5.48444e-07 -1.35544e+08 -0)
(5.74437e-07 -1.35544e+08 -0)
(5.91332e-07 -1.35544e+08 -0)
(6.05628e-07 -1.35544e+08 -0)
(6.31621e-07 -1.35544e+08 -0)
(6.09527e-07 -1.35544e+08 -0)
(5.36748e-07 -1.35544e+08 -0)
(3.1841e-07 -1.35544e+08 -0)
(5.19852e-09 -1.35544e+08 -0)
(-9.63027e-07 -1.35544e+08 -0)
(-2.34843e-06 -1.35544e+08 -0)
(-7.79519e-06 -1.35544e+08 -0)
(-1.4552e-05 -1.35544e+08 -0)
(-0.000137658 -1.35544e+08 -0)
(-0.000397243 -1.35544e+08 -0)
(-0.00026779 -1.35544e+08 -0)
(0.00027872 -5.47937e+07 -0)
(0.00041301 -5.47937e+07 -0)
(0.000143099 -5.47937e+07 -0)
(1.55101e-05 -5.47937e+07 -0)
(8.2835e-06 -5.47937e+07 -0)
(2.5433e-06 -5.47937e+07 -0)
(1.04451e-06 -5.47937e+07 -0)
(3.39931e-08 -5.47937e+07 -0)
(-3.16754e-07 -5.47937e+07 -0)
(-5.62431e-07 -5.47937e+07 -0)
(-6.19601e-07 -5.47937e+07 -0)
(-6.27327e-07 -5.47937e+07 -0)
(-6.24237e-07 -5.47937e+07 -0)
(-6.24237e-07 -5.47937e+07 -0)
(-5.85608e-07 -5.47937e+07 -0)
(-5.34619e-07 -5.47937e+07 -0)
(-5.22257e-07 -5.47937e+07 -0)
(-5.26893e-07 -5.47937e+07 -0)
(-4.80539e-07 -5.47937e+07 -0)
(-4.57362e-07 -5.47937e+07 -0)
(-4.3882e-07 -5.47937e+07 -0)
(-3.98646e-07 -5.47937e+07 -0)
(-3.72379e-07 -5.47937e+07 -0)
(-3.32205e-07 -5.47937e+07 -0)
(-2.99757e-07 -5.47937e+07 -0)
(-2.59584e-07 -5.47937e+07 -0)
(-2.07049e-07 -5.47937e+07 -0)
(-1.51424e-07 -5.47937e+07 -0)
(-8.18924e-08 -5.47937e+07 -0)
(-6.02605e-08 -5.47937e+07 -0)
(-2.78125e-08 -5.47937e+07 -0)
(6.6441e-08 -5.47937e+07 -0)
(1.48333e-07 -5.47937e+07 -0)
(2.27136e-07 -5.47937e+07 -0)
(2.62674e-07 -5.47937e+07 -0)
(3.10573e-07 -5.47937e+07 -0)
(3.58473e-07 -5.47937e+07 -0)
(3.64653e-07 -5.47937e+07 -0)
(4.09462e-07 -5.47937e+07 -0)
(4.46546e-07 -5.47937e+07 -0)
(4.63542e-07 -5.47937e+07 -0)
(4.75903e-07 -5.47937e+07 -0)
(5.12987e-07 -5.47937e+07 -0)
(5.5316e-07 -5.47937e+07 -0)
(5.73247e-07 -5.47937e+07 -0)
(5.91789e-07 -5.47937e+07 -0)
(6.1033e-07 -5.47937e+07 -0)
(6.28872e-07 -5.47937e+07 -0)
(6.48959e-07 -5.47937e+07 -0)
(6.22692e-07 -5.47937e+07 -0)
(5.48525e-07 -5.47937e+07 -0)
(3.15209e-07 -5.47937e+07 -0)
(-2.47222e-08 -5.47937e+07 -0)
(-1.04606e-06 -5.47937e+07 -0)
(-2.53712e-06 -5.47937e+07 -0)
(-8.26496e-06 -5.47937e+07 -0)
(-1.5507e-05 -5.47937e+07 -0)
(-0.000143078 -5.47937e+07 -0)
(-0.000412996 -5.47937e+07 -0)
(-0.000278728 -5.47937e+07 -0)
(0.000249197 -2.35209e+07 -0)
(0.000369144 -2.35209e+07 -0)
(0.000128185 -2.35209e+07 -0)
(1.43475e-05 -2.35209e+07 -0)
(7.59548e-06 -2.35209e+07 -0)
(2.37569e-06 -2.35209e+07 -0)
(9.8875e-07 -2.35209e+07 -0)
(6.54037e-08 -2.35209e+07 -0)
(-2.61615e-07 -2.35209e+07 -0)
(-4.90528e-07 -2.35209e+07 -0)
(-5.46313e-07 -2.35209e+07 -0)
(-5.55931e-07 -2.35209e+07 -0)
(-5.53046e-07 -2.35209e+07 -0)
(-5.55931e-07 -2.35209e+07 -0)
(-5.2323e-07 -2.35209e+07 -0)
(-4.77062e-07 -2.35209e+07 -0)
(-4.66482e-07 -2.35209e+07 -0)
(-4.73215e-07 -2.35209e+07 -0)
(-4.30895e-07 -2.35209e+07 -0)
(-4.08773e-07 -2.35209e+07 -0)
(-3.9146e-07 -2.35209e+07 -0)
(-3.56835e-07 -2.35209e+07 -0)
(-3.33751e-07 -2.35209e+07 -0)
(-2.99126e-07 -2.35209e+07 -0)
(-2.66424e-07 -2.35209e+07 -0)
(-2.34684e-07 -2.35209e+07 -0)
(-1.85631e-07 -2.35209e+07 -0)
(-1.33693e-07 -2.35209e+07 -0)
(-7.30982e-08 -2.35209e+07 -0)
(-5.57855e-08 -2.35209e+07 -0)
(-2.40455e-08 -2.35209e+07 -0)
(5.8671e-08 -2.35209e+07 -0)
(1.32731e-07 -2.35209e+07 -0)
(2.01982e-07 -2.35209e+07 -0)
(2.35646e-07 -2.35209e+07 -0)
(2.78928e-07 -2.35209e+07 -0)
(3.23171e-07 -2.35209e+07 -0)
(3.28942e-07 -2.35209e+07 -0)
(3.63568e-07 -2.35209e+07 -0)
(3.99155e-07 -2.35209e+07 -0)
(4.14544e-07 -2.35209e+07 -0)
(4.27048e-07 -2.35209e+07 -0)
(4.59749e-07 -2.35209e+07 -0)
(4.93413e-07 -2.35209e+07 -0)
(5.1265e-07 -2.35209e+07 -0)
(5.29e-07 -2.35209e+07 -0)
(5.43428e-07 -2.35209e+07 -0)
(5.59779e-07 -2.35209e+07 -0)
(5.74206e-07 -2.35209e+07 -0)
(5.43428e-07 -2.35209e+07 -0)
(4.78986e-07 -2.35209e+07 -0)
(2.63538e-07 -2.35209e+07 -0)
(-5.67473e-08 -2.35209e+07 -0)
(-9.92597e-07 -2.35209e+07 -0)
(-2.36896e-06 -2.35209e+07 -0)
(-7.57721e-06 -2.35209e+07 -0)
(-1.43417e-05 -2.35209e+07 -0)
(-0.000128168 -2.35209e+07 -0)
(-0.000369132 -2.35209e+07 -0)
(-0.000249202 -2.35209e+07 -0)
(0.00020261 -1.02889e+07 -0)
(0.000300462 -1.02889e+07 -0)
(0.000105008 -1.02889e+07 -0)
(1.22666e-05 -1.02889e+07 -0)
(6.39316e-06 -1.02889e+07 -0)
(2.04474e-06 -1.02889e+07 -0)
(8.66159e-07 -1.02889e+07 -0)
(8.93511e-08 -1.02889e+07 -0)
(-1.91467e-07 -1.02889e+07 -0)
(-3.84757e-07 -1.02889e+07 -0)
(-4.35815e-07 -1.02889e+07 -0)
(-4.48579e-07 -1.02889e+07 -0)
(-4.48579e-07 -1.02889e+07 -0)
(-4.49795e-07 -1.02889e+07 -0)
(-4.24874e-07 -1.02889e+07 -0)
(-3.87796e-07 -1.02889e+07 -0)
(-3.79894e-07 -1.02889e+07 -0)
(-3.8658e-07 -1.02889e+07 -0)
(-3.51326e-07 -1.02889e+07 -0)
(-3.34307e-07 -1.02889e+07 -0)
(-3.19719e-07 -1.02889e+07 -0)
(-2.91151e-07 -1.02889e+07 -0)
(-2.717e-07 -1.02889e+07 -0)
(-2.45564e-07 -1.02889e+07 -0)
(-2.18211e-07 -1.02889e+07 -0)
(-1.90859e-07 -1.02889e+07 -0)
(-1.51958e-07 -1.02889e+07 -0)
(-1.0941e-07 -1.02889e+07 -0)
(-6.01752e-08 -1.02889e+07 -0)
(-4.49795e-08 -1.02889e+07 -0)
(-2.12741e-08 -1.02889e+07 -0)
(4.74108e-08 -1.02889e+07 -0)
(1.08194e-07 -1.02889e+07 -0)
(1.6533e-07 -1.02889e+07 -0)
(1.92682e-07 -1.02889e+07 -0)
(2.29152e-07 -1.02889e+07 -0)
(2.63799e-07 -1.02889e+07 -0)
(2.68053e-07 -1.02889e+07 -0)
(2.97229e-07 -1.02889e+07 -0)
(3.25797e-07 -1.02889e+07 -0)
(3.37954e-07 -1.02889e+07 -0)
(3.48895e-07 -1.02889e+07 -0)
(3.77463e-07 -1.02889e+07 -0)
(4.036e-07 -1.02889e+07 -0)
(4.16972e-07 -1.02889e+07 -0)
(4.29129e-07 -1.02889e+07 -0)
(4.41285e-07 -1.02889e+07 -0)
(4.52834e-07 -1.02889e+07 -0)
(4.60736e-07 -1.02889e+07 -0)
(4.35207e-07 -1.02889e+07 -0)
(3.75032e-07 -1.02889e+07 -0)
(1.9329e-07 -1.02889e+07 -0)
(-8.2665e-08 -1.02889e+07 -0)
(-8.67982e-07 -1.02889e+07 -0)
(-2.0411e-06 -1.02889e+07 -0)
(-6.37858e-06 -1.02889e+07 -0)
(-1.22593e-05 -1.02889e+07 -0)
(-0.000104997 -1.02889e+07 -0)
(-0.000300453 -1.02889e+07 -0)
(-0.000202612 -1.02889e+07 -0)
(0.000153249 -4.5059e+06 -0)
(0.000227791 -4.5059e+06 -0)
(8.04461e-05 -4.5059e+06 -0)
(9.9156e-06 -4.5059e+06 -0)
(5.05902e-06 -4.5059e+06 -0)
(1.66176e-06 -4.5059e+06 -0)
(7.14486e-07 -4.5059e+06 -0)
(1.041e-07 -4.5059e+06 -0)
(-1.24075e-07 -4.5059e+06 -0)
(-2.78112e-07 -4.5059e+06 -0)
(-3.22287e-07 -4.5059e+06 -0)
(-3.36116e-07 -4.5059e+06 -0)
(-3.3842e-07 -4.5059e+06 -0)
(-3.39957e-07 -4.5059e+06 -0)
(-3.21134e-07 -4.5059e+06 -0)
(-2.94629e-07 -4.5059e+06 -0)
(-2.89251e-07 -4.5059e+06 -0)
(-2.93477e-07 -4.5059e+06 -0)
(-2.68508e-07 -4.5059e+06 -0)
(-2.5468e-07 -4.5059e+06 -0)
(-2.4354e-07 -4.5059e+06 -0)
(-2.21644e-07 -4.5059e+06 -0)
(-2.07047e-07 -4.5059e+06 -0)
(-1.87072e-07 -4.5059e+06 -0)
(-1.66713e-07 -4.5059e+06 -0)
(-1.44818e-07 -4.5059e+06 -0)
(-1.16392e-07 -4.5059e+06 -0)
(-8.41249e-08 -4.5059e+06 -0)
(-4.57117e-08 -4.5059e+06 -0)
(-3.41878e-08 -4.5059e+06 -0)
(-1.65177e-08 -4.5059e+06 -0)
(3.61084e-08 -4.5059e+06 -0)
(8.33567e-08 -4.5059e+06 -0)
(1.25611e-07 -4.5059e+06 -0)
(1.45586e-07 -4.5059e+06 -0)
(1.75932e-07 -4.5059e+06 -0)
(2.01285e-07 -4.5059e+06 -0)
(2.04742e-07 -4.5059e+06 -0)
(2.27022e-07 -4.5059e+06 -0)
(2.47765e-07 -4.5059e+06 -0)
(2.57368e-07 -4.5059e+06 -0)
(2.65819e-07 -4.5059e+06 -0)
(2.87715e-07 -4.5059e+06 -0)
(3.06921e-07 -4.5059e+06 -0)
(3.17677e-07 -4.5059e+06 -0)
(3.24207e-07 -4.5059e+06 -0)
(3.33042e-07 -4.5059e+06 -0)
(3.41878e-07 -4.5059e+06 -0)
(3.44951e-07 -4.5059e+06 -0)
(3.21519e-07 -4.5059e+06 -0)
(2.71581e-07 -4.5059e+06 -0)
(1.25611e-07 -4.5059e+06 -0)
(-9.87219e-08 -4.5059e+06 -0)
(-7.17559e-07 -4.5059e+06 -0)
(-1.65753e-06 -4.5059e+06 -0)
(-5.04788e-06 -4.5059e+06 -0)
(-9.91061e-06 -4.5059e+06 -0)
(-8.04357e-05 -4.5059e+06 -0)
(-0.000227784 -4.5059e+06 -0)
(-0.000153251 -4.5059e+06 -0)
(0.00010932 -1.96478e+06 -0)
(0.000163042 -1.96478e+06 -0)
(5.83923e-05 -1.96478e+06 -0)
(7.66732e-06 -1.96478e+06 -0)
(3.81354e-06 -1.96478e+06 -0)
(1.29038e-06 -1.96478e+06 -0)
(5.64344e-07 -1.96478e+06 -0)
(1.06025e-07 -1.96478e+06 -0)
(-6.98804e-08 -1.96478e+06 -0)
(-1.87472e-07 -1.96478e+06 -0)
(-2.2434e-07 -1.96478e+06 -0)
(-2.36388e-07 -1.96478e+06 -0)
(-2.40003e-07 -1.96478e+06 -0)
(-2.42654e-07 -1.96478e+06 -0)
(-2.29882e-07 -1.96478e+06 -0)
(-2.11087e-07 -1.96478e+06 -0)
(-2.07472e-07 -1.96478e+06 -0)
(-2.10846e-07 -1.96478e+06 -0)
(-1.93496e-07 -1.96478e+06 -0)
(-1.83858e-07 -1.96478e+06 -0)
(-1.75665e-07 -1.96478e+06 -0)
(-1.59761e-07 -1.96478e+06 -0)
(-1.4964e-07 -1.96478e+06 -0)
(-1.35664e-07 -1.96478e+06 -0)
(-1.20001e-07 -1.96478e+06 -0)
(-1.03857e-07 -1.96478e+06 -0)
(-8.43384e-08 -1.96478e+06 -0)
(-6.09646e-08 -1.96478e+06 -0)
(-3.27715e-08 -1.96478e+06 -0)
(-2.43377e-08 -1.96478e+06 -0)
(-1.18074e-08 -1.96478e+06 -0)
(2.57835e-08 -1.96478e+06 -0)
(5.97598e-08 -1.96478e+06 -0)
(9.03626e-08 -1.96478e+06 -0)
(1.05543e-07 -1.96478e+06 -0)
(1.26508e-07 -1.96478e+06 -0)
(1.45544e-07 -1.96478e+06 -0)
(1.47954e-07 -1.96478e+06 -0)
(1.63135e-07 -1.96478e+06 -0)
(1.78556e-07 -1.96478e+06 -0)
(1.85785e-07 -1.96478e+06 -0)
(1.91569e-07 -1.96478e+06 -0)
(2.06509e-07 -1.96478e+06 -0)
(2.21449e-07 -1.96478e+06 -0)
(2.27955e-07 -1.96478e+06 -0)
(2.32292e-07 -1.96478e+06 -0)
(2.37593e-07 -1.96478e+06 -0)
(2.42172e-07 -1.96478e+06 -0)
(2.42895e-07 -1.96478e+06 -0)
(2.23135e-07 -1.96478e+06 -0)
(1.82171e-07 -1.96478e+06 -0)
(7.15672e-08 -1.96478e+06 -0)
(-1.0217e-07 -1.96478e+06 -0)
(-5.66031e-07 -1.96478e+06 -0)
(-1.28652e-06 -1.96478e+06 -0)
(-3.80535e-06 -1.96478e+06 -0)
(-7.66323e-06 -1.96478e+06 -0)
(-5.83858e-05 -1.96478e+06 -0)
(-0.000163036 -1.96478e+06 -0)
(-0.000109321 -1.96478e+06 -0)
(7.42761e-05 -854704 -0)
(0.000111252 -854704 -0)
(4.05366e-05 -854704 -0)
(5.71001e-06 -854704 -0)
(2.76366e-06 -854704 -0)
(9.64374e-07 -854704 -0)
(4.29192e-07 -854704 -0)
(9.85154e-08 -854704 -0)
(-3.15429e-08 -854704 -0)
(-1.18398e-07 -854704 -0)
(-1.4725e-07 -854704 -0)
(-1.58013e-07 -854704 -0)
(-1.62648e-07 -854704 -0)
(-1.65189e-07 -854704 -0)
(-1.56369e-07 -854704 -0)
(-1.4426e-07 -854704 -0)
(-1.42018e-07 -854704 -0)
(-1.44559e-07 -854704 -0)
(-1.33646e-07 -854704 -0)
(-1.27068e-07 -854704 -0)
(-1.20491e-07 -854704 -0)
(-1.09877e-07 -854704 -0)
(-1.03299e-07 -854704 -0)
(-9.32832e-08 -854704 -0)
(-8.28187e-08 -854704 -0)
(-7.17563e-08 -854704 -0)
(-5.78535e-08 -854704 -0)
(-4.23063e-08 -854704 -0)
(-2.30218e-08 -854704 -0)
(-1.62947e-08 -854704 -0)
(-8.22207e-09 -854704 -0)
(1.71916e-08 -854704 -0)
(4.12599e-08 -854704 -0)
(6.26372e-08 -854704 -0)
(7.28027e-08 -854704 -0)
(8.73035e-08 -854704 -0)
(1.00309e-07 -854704 -0)
(1.02402e-07 -854704 -0)
(1.12119e-07 -854704 -0)
(1.22733e-07 -854704 -0)
(1.27965e-07 -854704 -0)
(1.31105e-07 -854704 -0)
(1.42167e-07 -854704 -0)
(1.52183e-07 -854704 -0)
(1.56369e-07 -854704 -0)
(1.58462e-07 -854704 -0)
(1.61153e-07 -854704 -0)
(1.63843e-07 -854704 -0)
(1.62648e-07 -854704 -0)
(1.46502e-07 -854704 -0)
(1.14511e-07 -854704 -0)
(3.31873e-08 -854704 -0)
(-9.5376e-08 -854704 -0)
(-4.30986e-07 -854704 -0)
(-9.61385e-07 -854704 -0)
(-2.75768e-06 -854704 -0)
(-5.70776e-06 -854704 -0)
(-4.05317e-05 -854704 -0)
(-0.000111248 -854704 -0)
(-7.42769e-05 -854704 -0)
(4.84343e-05 -373607 -0)
(7.29184e-05 -373607 -0)
(2.7107e-05 -373607 -0)
(4.11441e-06 -373607 -0)
(1.93791e-06 -373607 -0)
(6.97668e-07 -373607 -0)
(3.16239e-07 -373607 -0)
(8.53315e-08 -373607 -0)
(-8.24017e-09 -373607 -0)
(-6.97668e-08 -373607 -0)
(-9.21068e-08 -373607 -0)
(-1.00896e-07 -373607 -0)
(-1.05474e-07 -373607 -0)
(-1.08221e-07 -373607 -0)
(-1.02544e-07 -373607 -0)
(-9.48535e-08 -373607 -0)
(-9.33886e-08 -373607 -0)
(-9.52198e-08 -373607 -0)
(-8.86276e-08 -373607 -0)
(-8.40497e-08 -373607 -0)
(-7.98381e-08 -373607 -0)
(-7.25135e-08 -373607 -0)
(-6.83019e-08 -373607 -0)
(-6.18928e-08 -373607 -0)
(-5.51176e-08 -373607 -0)
(-4.76099e-08 -373607 -0)
(-3.86372e-08 -373607 -0)
(-2.78335e-08 -373607 -0)
(-1.51985e-08 -373607 -0)
(-1.08038e-08 -373607 -0)
(-5.31033e-09 -373607 -0)
(1.13531e-08 -373607 -0)
(2.7101e-08 -373607 -0)
(4.1384e-08 -373607 -0)
(4.81592e-08 -373607 -0)
(5.78643e-08 -373607 -0)
(6.66538e-08 -373607 -0)
(6.79356e-08 -373607 -0)
(7.41615e-08 -373607 -0)
(8.1303e-08 -373607 -0)
(8.49653e-08 -373607 -0)
(8.67965e-08 -373607 -0)
(9.3938e-08 -373607 -0)
(1.0053e-07 -373607 -0)
(1.02727e-07 -373607 -0)
(1.04009e-07 -373607 -0)
(1.05108e-07 -373607 -0)
(1.06207e-07 -373607 -0)
(1.03643e-07 -373607 -0)
(9.15575e-08 -373607 -0)
(6.75694e-08 -373607 -0)
(9.70509e-09 -373607 -0)
(-8.35004e-08 -373607 -0)
(-3.17338e-07 -373607 -0)
(-6.95654e-07 -373607 -0)
(-1.93388e-06 -373607 -0)
(-4.11258e-06 -373607 -0)
(-2.71041e-05 -373607 -0)
(-7.29162e-05 -373607 -0)
(-4.8435e-05 -373607 -0)
(3.04988e-05 -165908 -0)
(4.61875e-05 -165908 -0)
(1.75603e-05 -165908 -0)
(2.87765e-06 -165908 -0)
(1.32155e-06 -165908 -0)
(4.90672e-07 -165908 -0)
(2.26362e-07 -165908 -0)
(6.95903e-08 -165908 -0)
(4.09355e-09 -165908 -0)
(-3.83908e-08 -165908 -0)
(-5.52076e-08 -165908 -0)
(-6.21777e-08 -165908 -0)
(-6.56074e-08 -165908 -0)
(-6.83733e-08 -165908 -0)
(-6.50542e-08 -165908 -0)
(-6.00756e-08 -165908 -0)
(-5.95224e-08 -165908 -0)
(-6.07394e-08 -165908 -0)
(-5.68671e-08 -165908 -0)
(-5.38799e-08 -165908 -0)
(-5.10034e-08 -165908 -0)
(-4.63567e-08 -165908 -0)
(-4.37014e-08 -165908 -0)
(-3.98291e-08 -165908 -0)
(-3.54037e-08 -165908 -0)
(-3.05356e-08 -165908 -0)
(-2.48932e-08 -165908 -0)
(-1.79231e-08 -165908 -0)
(-9.84664e-09 -165908 -0)
(-6.97009e-09 -165908 -0)
(-3.31909e-09 -165908 -0)
(7.19137e-09 -165908 -0)
(1.72593e-08 -165908 -0)
(2.6774e-08 -165908 -0)
(3.08676e-08 -165908 -0)
(3.70632e-08 -165908 -0)
(4.30376e-08 -165908 -0)
(4.35907e-08 -165908 -0)
(4.73524e-08 -165908 -0)
(5.22204e-08 -165908 -0)
(5.45437e-08 -165908 -0)
(5.53182e-08 -165908 -0)
(6.01862e-08 -165908 -0)
(6.42798e-08 -165908 -0)
(6.53861e-08 -165908 -0)
(6.58287e-08 -165908 -0)
(6.60499e-08 -165908 -0)
(6.61606e-08 -165908 -0)
(6.38372e-08 -165908 -0)
(5.46544e-08 -165908 -0)
(3.71738e-08 -165908 -0)
(-2.87655e-09 -165908 -0)
(-6.83733e-08 -165908 -0)
(-2.26805e-07 -165908 -0)
(-4.89566e-07 -165908 -0)
(-1.31912e-06 -165908 -0)
(-2.87655e-06 -165908 -0)
(-1.75584e-05 -165908 -0)
(-4.61863e-05 -165908 -0)
(-3.04994e-05 -165908 -0)
(1.86424e-05 -75787.9 -0)
(2.84186e-05 -75787.9 -0)
(1.10728e-05 -75787.9 -0)
(1.9592e-06 -75787.9 -0)
(8.80118e-07 -75787.9 -0)
(3.36656e-07 -75787.9 -0)
(1.57546e-07 -75787.9 -0)
(5.38121e-08 -75787.9 -0)
(9.23247e-09 -75787.9 -0)
(-1.9652e-08 -75787.9 -0)
(-3.15882e-08 -75787.9 -0)
(-3.68639e-08 -75787.9 -0)
(-3.96337e-08 -75787.9 -0)
(-4.16121e-08 -75787.9 -0)
(-4.01613e-08 -75787.9 -0)
(-3.71277e-08 -75787.9 -0)
(-3.67321e-08 -75787.9 -0)
(-3.76553e-08 -75787.9 -0)
(-3.54131e-08 -75787.9 -0)
(-3.36985e-08 -75787.9 -0)
(-3.17861e-08 -75787.9 -0)
(-2.86866e-08 -75787.9 -0)
(-2.72358e-08 -75787.9 -0)
(-2.49277e-08 -75787.9 -0)
(-2.21579e-08 -75787.9 -0)
(-1.91904e-08 -75787.9 -0)
(-1.55633e-08 -75787.9 -0)
(-1.1079e-08 -75787.9 -0)
(-6.133e-09 -75787.9 -0)
(-4.35245e-09 -75787.9 -0)
(-2.24217e-09 -75787.9 -0)
(4.35245e-09 -75787.9 -0)
(1.08811e-08 -75787.9 -0)
(1.66844e-08 -75787.9 -0)
(1.91904e-08 -75787.9 -0)
(2.3345e-08 -75787.9 -0)
(2.67742e-08 -75787.9 -0)
(2.71698e-08 -75787.9 -0)
(2.96099e-08 -75787.9 -0)
(3.25774e-08 -75787.9 -0)
(3.38964e-08 -75787.9 -0)
(3.44239e-08 -75787.9 -0)
(3.75894e-08 -75787.9 -0)
(3.98315e-08 -75787.9 -0)
(4.0491e-08 -75787.9 -0)
(4.0491e-08 -75787.9 -0)
(4.02272e-08 -75787.9 -0)
(3.99634e-08 -75787.9 -0)
(3.79191e-08 -75787.9 -0)
(3.11266e-08 -75787.9 -0)
(1.89266e-08 -75787.9 -0)
(-8.30923e-09 -75787.9 -0)
(-5.30867e-08 -75787.9 -0)
(-1.58007e-07 -75787.9 -0)
(-3.35732e-07 -75787.9 -0)
(-8.78536e-07 -75787.9 -0)
(-1.95854e-06 -75787.9 -0)
(-1.10717e-05 -75787.9 -0)
(-2.84178e-05 -75787.9 -0)
(-1.86427e-05 -75787.9 -0)
(1.1115e-05 -35998.6 -0)
(1.70663e-05 -35998.6 -0)
(6.82578e-06 -35998.6 -0)
(1.30216e-06 -35998.6 -0)
(5.74171e-07 -35998.6 -0)
(2.25779e-07 -35998.6 -0)
(1.07281e-07 -35998.6 -0)
(3.99005e-08 -35998.6 -0)
(1.00527e-08 -35998.6 -0)
(-9.00478e-09 -35998.6 -0)
(-1.71557e-08 -35998.6 -0)
(-2.11147e-08 -35998.6 -0)
(-2.33658e-08 -35998.6 -0)
(-2.48408e-08 -35998.6 -0)
(-2.41033e-08 -35998.6 -0)
(-2.23179e-08 -35998.6 -0)
(-2.22014e-08 -35998.6 -0)
(-2.28613e-08 -35998.6 -0)
(-2.1464e-08 -35998.6 -0)
(-2.04936e-08 -35998.6 -0)
(-1.9368e-08 -35998.6 -0)
(-1.74273e-08 -35998.6 -0)
(-1.65734e-08 -35998.6 -0)
(-1.52926e-08 -35998.6 -0)
(-1.3546e-08 -35998.6 -0)
(-1.17217e-08 -35998.6 -0)
(-9.39291e-09 -35998.6 -0)
(-6.67596e-09 -35998.6 -0)
(-3.80374e-09 -35998.6 -0)
(-2.75577e-09 -35998.6 -0)
(-1.28085e-09 -35998.6 -0)
(2.5617e-09 -35998.6 -0)
(6.63714e-09 -35998.6 -0)
(1.01692e-08 -35998.6 -0)
(1.17217e-08 -35998.6 -0)
(1.4167e-08 -35998.6 -0)
(1.62629e-08 -35998.6 -0)
(1.66123e-08 -35998.6 -0)
(1.8126e-08 -35998.6 -0)
(1.98338e-08 -35998.6 -0)
(2.06489e-08 -35998.6 -0)
(2.09206e-08 -35998.6 -0)
(2.27448e-08 -35998.6 -0)
(2.41809e-08 -35998.6 -0)
(2.44526e-08 -35998.6 -0)
(2.43362e-08 -35998.6 -0)
(2.37928e-08 -35998.6 -0)
(2.34823e-08 -35998.6 -0)
(2.17357e-08 -35998.6 -0)
(1.71168e-08 -35998.6 -0)
(8.61664e-09 -35998.6 -0)
(-9.50936e-09 -35998.6 -0)
(-3.94347e-08 -35998.6 -0)
(-1.07514e-07 -35998.6 -0)
(-2.25275e-07 -35998.6 -0)
(-5.73201e-07 -35998.6 -0)
(-1.30173e-06 -35998.6 -0)
(-6.82512e-06 -35998.6 -0)
(-1.70659e-05 -35998.6 -0)
(-1.11152e-05 -35998.6 -0)
(6.49769e-06 -17884.3 -0)
(1.00543e-05 -17884.3 -0)
(4.13305e-06 -17884.3 -0)
(8.48089e-07 -17884.3 -0)
(3.68447e-07 -17884.3 -0)
(1.48654e-07 -17884.3 -0)
(7.16141e-08 -17884.3 -0)
(2.85281e-08 -17884.3 -0)
(8.95177e-09 -17884.3 -0)
(-3.39082e-09 -17884.3 -0)
(-9.06479e-09 -17884.3 -0)
(-1.17775e-08 -17884.3 -0)
(-1.33372e-08 -17884.3 -0)
(-1.44901e-08 -17884.3 -0)
(-1.41962e-08 -17884.3 -0)
(-1.31338e-08 -17884.3 -0)
(-1.3179e-08 -17884.3 -0)
(-1.36085e-08 -17884.3 -0)
(-1.27721e-08 -17884.3 -0)
(-1.22748e-08 -17884.3 -0)
(-1.15966e-08 -17884.3 -0)
(-1.03759e-08 -17884.3 -0)
(-9.9238e-09 -17884.3 -0)
(-9.11001e-09 -17884.3 -0)
(-8.20579e-09 -17884.3 -0)
(-7.0077e-09 -17884.3 -0)
(-5.62876e-09 -17884.3 -0)
(-4.00117e-09 -17884.3 -0)
(-2.32836e-09 -17884.3 -0)
(-1.62759e-09 -17884.3 -0)
(-8.13797e-10 -17884.3 -0)
(1.53717e-09 -17884.3 -0)
(3.97856e-09 -17884.3 -0)
(6.05827e-09 -17884.3 -0)
(7.0303e-09 -17884.3 -0)
(8.49966e-09 -17884.3 -0)
(9.78817e-09 -17884.3 -0)
(9.96901e-09 -17884.3 -0)
(1.07602e-08 -17884.3 -0)
(1.19131e-08 -17884.3 -0)
(1.23426e-08 -17884.3 -0)
(1.2433e-08 -17884.3 -0)
(1.36085e-08 -17884.3 -0)
(1.43997e-08 -17884.3 -0)
(1.44449e-08 -17884.3 -0)
(1.42867e-08 -17884.3 -0)
(1.38798e-08 -17884.3 -0)
(1.34277e-08 -17884.3 -0)
(1.21391e-08 -17884.3 -0)
(8.99698e-09 -17884.3 -0)
(3.20998e-09 -17884.3 -0)
(-8.59008e-09 -17884.3 -0)
(-2.82568e-08 -17884.3 -0)
(-7.17724e-08 -17884.3 -0)
(-1.4836e-07 -17884.3 -0)
(-3.67881e-07 -17884.3 -0)
(-8.4775e-07 -17884.3 -0)
(-4.13266e-06 -17884.3 -0)
(-1.0054e-05 -17884.3 -0)
(-6.49774e-06 -17884.3 -0)
(3.7487e-06 -9297.6 -0)
(5.84852e-06 -9297.6 -0)
(2.47317e-06 -9297.6 -0)
(5.44234e-07 -9297.6 -0)
(2.33843e-07 -9297.6 -0)
(9.65907e-08 -9297.6 -0)
(4.70983e-08 -9297.6 -0)
(1.98729e-08 -9297.6 -0)
(7.19557e-09 -9297.6 -0)
(-7.58805e-10 -9297.6 -0)
(-4.52667e-09 -9297.6 -0)
(-6.39751e-09 -9297.6 -0)
(-7.50956e-09 -9297.6 -0)
(-8.32069e-09 -9297.6 -0)
(-8.2422e-09 -9297.6 -0)
(-7.66655e-09 -9297.6 -0)
(-7.67963e-09 -9297.6 -0)
(-8.01979e-09 -9297.6 -0)
(-7.49647e-09 -9297.6 -0)
(-7.27407e-09 -9297.6 -0)
(-6.82925e-09 -9297.6 -0)
(-6.08353e-09 -9297.6 -0)
(-5.90037e-09 -9297.6 -0)
(-5.4163e-09 -9297.6 -0)
(-4.84066e-09 -9297.6 -0)
(-4.18651e-09 -9297.6 -0)
(-3.33613e-09 -9297.6 -0)
(-2.31566e-09 -9297.6 -0)
(-1.3737e-09 -9297.6 -0)
(-9.81214e-10 -9297.6 -0)
(-4.97148e-10 -9297.6 -0)
(8.89634e-10 -9297.6 -0)
(2.35491e-09 -9297.6 -0)
(3.5847e-09 -9297.6 -0)
(4.16035e-09 -9297.6 -0)
(4.99765e-09 -9297.6 -0)
(5.78262e-09 -9297.6 -0)
(5.92653e-09 -9297.6 -0)
(6.34518e-09 -9297.6 -0)
(7.03857e-09 -9297.6 -0)
(7.31331e-09 -9297.6 -0)
(7.35256e-09 -9297.6 -0)
(8.04595e-09 -9297.6 -0)
(8.39919e-09 -9297.6 -0)
(8.42536e-09 -9297.6 -0)
(8.30761e-09 -9297.6 -0)
(7.92821e-09 -9297.6 -0)
(7.61422e-09 -9297.6 -0)
(6.59376e-09 -9297.6 -0)
(4.46125e-09 -9297.6 -0)
(6.54143e-10 -9297.6 -0)
(-6.96008e-09 -9297.6 -0)
(-1.97289e-08 -9297.6 -0)
(-4.71637e-08 -9297.6 -0)
(-9.64206e-08 -9297.6 -0)
(-2.33503e-07 -9297.6 -0)
(-5.43985e-07 -9297.6 -0)
(-2.47297e-06 -9297.6 -0)
(-5.84839e-06 -9297.6 -0)
(-3.74868e-06 -9297.6 -0)
(2.1544e-06 -5049.51 -0)
(3.39031e-06 -5049.51 -0)
(1.47576e-06 -5049.51 -0)
(3.47039e-07 -5049.51 -0)
(1.48001e-07 -5049.51 -0)
(6.24543e-08 -5049.51 -0)
(3.08102e-08 -5049.51 -0)
(1.36008e-08 -5049.51 -0)
(5.47366e-09 -5049.51 -0)
(3.56319e-10 -5049.51 -0)
(-2.16065e-09 -5049.51 -0)
(-3.38882e-09 -5049.51 -0)
(-4.19243e-09 -5049.51 -0)
(-4.77618e-09 -5049.51 -0)
(-4.74586e-09 -5049.51 -0)
(-4.42745e-09 -5049.51 -0)
(-4.49568e-09 -5049.51 -0)
(-4.67763e-09 -5049.51 -0)
(-4.4047e-09 -5049.51 -0)
(-4.27582e-09 -5049.51 -0)
(-4.02564e-09 -5049.51 -0)
(-3.60109e-09 -5049.51 -0)
(-3.47221e-09 -5049.51 -0)
(-3.20687e-09 -5049.51 -0)
(-2.86571e-09 -5049.51 -0)
(-2.47149e-09 -5049.51 -0)
(-1.94838e-09 -5049.51 -0)
(-1.37221e-09 -5049.51 -0)
(-8.26356e-10 -5049.51 -0)
(-5.68593e-10 -5049.51 -0)
(-2.95669e-10 -5049.51 -0)
(5.07943e-10 -5049.51 -0)
(1.38737e-09 -5049.51 -0)
(2.11517e-09 -5049.51 -0)
(2.44116e-09 -5049.51 -0)
(2.9491e-09 -5049.51 -0)
(3.41914e-09 -5049.51 -0)
(3.49495e-09 -5049.51 -0)
(3.76788e-09 -5049.51 -0)
(4.13936e-09 -5049.51 -0)
(4.31373e-09 -5049.51 -0)
(4.29857e-09 -5049.51 -0)
(4.71553e-09 -5049.51 -0)
(4.93539e-09 -5049.51 -0)
(4.89748e-09 -5049.51 -0)
(4.79893e-09 -5049.51 -0)
(4.526e-09 -5049.51 -0)
(4.23033e-09 -5049.51 -0)
(3.5177e-09 -5049.51 -0)
(2.11517e-09 -5049.51 -0)
(-3.86643e-10 -5049.51 -0)
(-5.29171e-09 -5049.51 -0)
(-1.35553e-08 -5049.51 -0)
(-3.08708e-08 -5049.51 -0)
(-6.23482e-08 -5049.51 -0)
(-1.47796e-07 -5049.51 -0)
(-3.46887e-07 -5049.51 -0)
(-1.47564e-06 -5049.51 -0)
(-3.39023e-06 -5049.51 -0)
(-2.1544e-06 -5049.51 -0)
(1.2507e-06 -2869.08 -0)
(1.98594e-06 -2869.08 -0)
(8.9015e-07 -2869.08 -0)
(2.22929e-07 -2869.08 -0)
(9.46617e-08 -2869.08 -0)
(4.0729e-08 -2869.08 -0)
(2.03044e-08 -2869.08 -0)
(9.31471e-09 -2869.08 -0)
(4.03147e-09 -2869.08 -0)
(7.39475e-10 -2869.08 -0)
(-9.4439e-10 -2869.08 -0)
(-1.80414e-09 -2869.08 -0)
(-2.35206e-09 -2869.08 -0)
(-2.73962e-09 -2869.08 -0)
(-2.77526e-09 -2869.08 -0)
(-2.58816e-09 -2869.08 -0)
(-2.63716e-09 -2869.08 -0)
(-2.75744e-09 -2869.08 -0)
(-2.61489e-09 -2869.08 -0)
(-2.55253e-09 -2869.08 -0)
(-2.39661e-09 -2869.08 -0)
(-2.13379e-09 -2869.08 -0)
(-2.06251e-09 -2869.08 -0)
(-1.92442e-09 -2869.08 -0)
(-1.7195e-09 -2869.08 -0)
(-1.48786e-09 -2869.08 -0)
(-1.15821e-09 -2869.08 -0)
(-8.19659e-10 -2869.08 -0)
(-4.85559e-10 -2869.08 -0)
(-3.47464e-10 -2869.08 -0)
(-1.73732e-10 -2869.08 -0)
(2.94008e-10 -2869.08 -0)
(8.33023e-10 -2869.08 -0)
(1.26513e-09 -2869.08 -0)
(1.45222e-09 -2869.08 -0)
(1.76405e-09 -2869.08 -0)
(2.02687e-09 -2869.08 -0)
(2.1026e-09 -2869.08 -0)
(2.22733e-09 -2869.08 -0)
(2.47234e-09 -2869.08 -0)
(2.57925e-09 -2869.08 -0)
(2.55698e-09 -2869.08 -0)
(2.79753e-09 -2869.08 -0)
(2.90444e-09 -2869.08 -0)
(2.87772e-09 -2869.08 -0)
(2.79308e-09 -2869.08 -0)
(2.59262e-09 -2869.08 -0)
(2.36988e-09 -2869.08 -0)
(1.87096e-09 -2869.08 -0)
(9.26571e-10 -2869.08 -0)
(-7.48384e-10 -2869.08 -0)
(-3.91565e-09 -2869.08 -0)
(-9.29689e-09 -2869.08 -0)
(-2.03311e-08 -2869.08 -0)
(-4.06711e-08 -2869.08 -0)
(-9.45459e-08 -2869.08 -0)
(-2.22836e-07 -2869.08 -0)
(-8.90078e-07 -2869.08 -0)
(-1.98588e-06 -2869.08 -0)
(-1.2507e-06 -2869.08 -0)
(7.48155e-07 -1720.55 -0)
(1.19904e-06 -1720.55 -0)
(5.53512e-07 -1720.55 -0)
(1.47132e-07 -1720.55 -0)
(6.23828e-08 -1720.55 -0)
(2.73058e-08 -1720.55 -0)
(1.37435e-08 -1720.55 -0)
(6.52148e-09 -1720.55 -0)
(2.98078e-09 -1720.55 -0)
(7.95237e-10 -1720.55 -0)
(-3.51635e-10 -1720.55 -0)
(-9.60235e-10 -1720.55 -0)
(-1.34703e-09 -1720.55 -0)
(-1.62023e-09 -1720.55 -0)
(-1.6581e-09 -1720.55 -0)
(-1.5526e-09 -1720.55 -0)
(-1.59859e-09 -1720.55 -0)
(-1.68785e-09 -1720.55 -0)
(-1.59859e-09 -1720.55 -0)
(-1.56342e-09 -1720.55 -0)
(-1.46875e-09 -1720.55 -0)
(-1.30917e-09 -1720.55 -0)
(-1.26859e-09 -1720.55 -0)
(-1.18474e-09 -1720.55 -0)
(-1.06302e-09 -1720.55 -0)
(-9.14252e-10 -1720.55 -0)
(-7.195e-10 -1720.55 -0)
(-5.00404e-10 -1720.55 -0)
(-3.02947e-10 -1720.55 -0)
(-2.13686e-10 -1720.55 -0)
(-1.109e-10 -1720.55 -0)
(1.81227e-10 -1720.55 -0)
(5.05814e-10 -1720.55 -0)
(7.81712e-10 -1720.55 -0)
(9.03432e-10 -1720.55 -0)
(1.07114e-09 -1720.55 -0)
(1.24966e-09 -1720.55 -0)
(1.29564e-09 -1720.55 -0)
(1.37138e-09 -1720.55 -0)
(1.52285e-09 -1720.55 -0)
(1.58777e-09 -1720.55 -0)
(1.56342e-09 -1720.55 -0)
(1.70137e-09 -1720.55 -0)
(1.76088e-09 -1720.55 -0)
(1.74195e-09 -1720.55 -0)
(1.67973e-09 -1720.55 -0)
(1.52826e-09 -1720.55 -0)
(1.36056e-09 -1720.55 -0)
(9.95398e-10 -1720.55 -0)
(3.35406e-10 -1720.55 -0)
(-7.89827e-10 -1720.55 -0)
(-2.90775e-09 -1720.55 -0)
(-6.51066e-09 -1720.55 -0)
(-1.37652e-08 -1720.55 -0)
(-2.72815e-08 -1720.55 -0)
(-6.23152e-08 -1720.55 -0)
(-1.47059e-07 -1720.55 -0)
(-5.53466e-07 -1720.55 -0)
(-1.19901e-06 -1720.55 -0)
(-7.4815e-07 -1720.55 -0)
(4.72536e-07 -1106.49 -0)
(7.64575e-07 -1106.49 -0)
(3.63517e-07 -1106.49 -0)
(1.02223e-07 -1106.49 -0)
(4.33854e-08 -1106.49 -0)
(1.92986e-08 -1106.49 -0)
(9.80572e-09 -1106.49 -0)
(4.7812e-09 -1106.49 -0)
(2.28719e-09 -1106.49 -0)
(7.49072e-10 -1106.49 -0)
(-8.16854e-11 -1106.49 -0)
(-5.19658e-10 -1106.49 -0)
(-8.04688e-10 -1106.49 -0)
(-1.01151e-09 -1106.49 -0)
(-1.04279e-09 -1106.49 -0)
(-9.85439e-10 -1106.49 -0)
(-1.02541e-09 -1106.49 -0)
(-1.08277e-09 -1106.49 -0)
(-1.03236e-09 -1106.49 -0)
(-1.01151e-09 -1106.49 -0)
(-9.48941e-10 -1106.49 -0)
(-8.53352e-10 -1106.49 -0)
(-8.22068e-10 -1106.49 -0)
(-7.71666e-10 -1106.49 -0)
(-6.93457e-10 -1106.49 -0)
(-5.96129e-10 -1106.49 -0)
(-4.64042e-10 -1106.49 -0)
(-3.25004e-10 -1106.49 -0)
(-2.03344e-10 -1106.49 -0)
(-1.37301e-10 -1106.49 -0)
(-7.29954e-11 -1106.49 -0)