/*--------------------------------*- C++ -*----------------------------------*\
| =========                 |                                                 |
| \\      /  F ield         | foam-extend: Open Source CFD                    |
|  \\    /   O peration     | Version:     4.0                                |
|   \\  /    A nd           | Web:         http://www.foam-extend.org         |
|    \\/     M anipulation  |                                                 |
\*---------------------------------------------------------------------------*/
FoamFile
{
    version     2.0;
    format      ascii;
    class       volVectorField;
    location    "1";
    object      U;
}
// * * * * * * * * * * * * * * * * * * * * * * * * * * * * * * * * * * * * * //

dimensions      [0 1 -1 0 0 0 0];

internalField   nonuniform List<vector> 
1740
(
(-7.70873e-09 -3.56059e-08 0)
(-4.20784e-08 -1.28907e-07 0)
(-1.96396e-07 -5.76781e-07 0)
(-7.79639e-07 -2.27633e-06 0)
(-2.84643e-06 -7.5444e-06 0)
(-8.10372e-06 -2.18275e-05 0)
(-2.27572e-05 -4.9193e-05 0)
(-3.91851e-05 -9.68418e-05 0)
(-8.62357e-05 -0.000114234 0)
(-2.56575e-05 -0.000104301 0)
(-5.6252e-05 9.31019e-05 0)
(0.000263826 0.000333903 0)
(0.000358075 0.0001287 0)
(-0.000130839 0.000123245 0)
(-0.000147126 -0.000282001 0)
(-1.80569e-08 -9.68193e-08 0)
(-9.89445e-08 -3.26607e-07 0)
(-4.61866e-07 -1.4451e-06 0)
(-1.82767e-06 -5.64487e-06 0)
(-6.67768e-06 -1.85547e-05 0)
(-1.90964e-05 -5.32861e-05 0)
(-5.42562e-05 -0.00011954 0)
(-9.50076e-05 -0.000234551 0)
(-0.000215866 -0.000277165 0)
(-7.59124e-05 -0.000255849 0)
(-0.000188362 0.000219766 0)
(0.000661882 0.000798146 0)
(0.000872485 0.000323528 0)
(-0.000209918 0.000326641 0)
(-0.000197124 -0.000701656 0)
(-2.90537e-08 -1.71577e-07 0)
(-1.56028e-07 -6.76354e-07 0)
(-7.11568e-07 -2.94834e-06 0)
(-2.75525e-06 -1.13622e-05 0)
(-9.86744e-06 -3.69355e-05 0)
(-2.78266e-05 -0.000105057 0)
(-7.8293e-05 -0.000234141 0)
(-0.000136641 -0.000457355 0)
(-0.00031333 -0.000540488 0)
(-0.000116042 -0.000502766 0)
(-0.000312837 0.000418749 0)
(0.000962124 0.00154154 0)
(0.00122227 0.000646405 0)
(-0.000173111 0.000679528 0)
(-8.69001e-05 -0.00139436 0)
(-4.54249e-08 -2.91127e-07 0)
(-2.35917e-07 -1.17988e-06 0)
(-1.03564e-06 -5.01388e-06 0)
(-3.86916e-06 -1.88563e-05 0)
(-1.33586e-05 -5.99846e-05 0)
(-3.65764e-05 -0.000167118 0)
(-0.000100047 -0.000366143 0)
(-0.000171021 -0.000703787 0)
(-0.000388487 -0.000820386 0)
(-0.000140304 -0.00075007 0)
(-0.000409078 0.000649061 0)
(0.00119443 0.00234474 0)
(0.00144969 0.00097573 0)
(-8.42396e-05 0.00103419 0)
(9.88231e-05 -0.00211094 0)
(-7.1603e-08 -4.82469e-07 0)
(-3.57936e-07 -1.91714e-06 0)
(-1.50357e-06 -7.88392e-06 0)
(-5.38348e-06 -2.87121e-05 0)
(-1.77557e-05 -8.86907e-05 0)
(-4.67331e-05 -0.000240041 0)
(-0.000122636 -0.000512883 0)
(-0.000202475 -0.000961849 0)
(-0.000448514 -0.00109463 0)
(-0.000146808 -0.000966481 0)
(-0.0004684 0.000910361 0)
(0.00138151 0.00316006 0)
(0.00159116 0.00127152 0)
(1.48668e-05 0.00133846 0)
(0.00030253 -0.00277692 0)
(-1.13547e-07 -7.90062e-07 0)
(-5.4587e-07 -3.02143e-06 0)
(-2.19151e-06 -1.19652e-05 0)
(-7.50332e-06 -4.19699e-05 0)
(-2.35537e-05 -0.000125162 0)
(-5.92772e-05 -0.000326995 0)
(-0.00014803 -0.000676941 0)
(-0.00023356 -0.00122982 0)
(-0.000498093 -0.00135384 0)
(-0.000134959 -0.00113464 0)
(-0.000488167 0.00121066 0)
(0.00153934 0.003977 0)
(0.00167434 0.00151237 0)
(9.88254e-05 0.00156272 0)
(0.000488396 -0.00335775 0)
(-1.80139e-07 -1.28377e-06 0)
(-8.33029e-07 -4.68738e-06 0)
(-3.1974e-06 -1.78183e-05 0)
(-1.04649e-05 -5.99786e-05 0)
(-3.12403e-05 -0.000171961 0)
(-7.50016e-05 -0.000431584 0)
(-0.00017749 -0.000861075 0)
(-0.000265567 -0.00150626 0)
(-0.000539798 -0.00158976 0)
(-0.00010439 -0.00124019 0)
(-0.00046876 0.00155701 0)
(0.00167824 0.00478832 0)
(0.00171812 0.00168189 0)
(0.000154274 0.00168599 0)
(0.000637085 -0.00382886 0)
(-2.84861e-07 -2.07261e-06 0)
(-1.26745e-06 -7.1974e-06 0)
(-4.65352e-06 -2.62063e-05 0)
(-1.45609e-05 -8.44465e-05 0)
(-4.13476e-05 -0.000232057 0)
(-9.46144e-05 -0.000557474 0)
(-0.000211811 -0.00106728 0)
(-0.000298846 -0.00178825 0)
(-0.000574519 -0.00179333 0)
(-5.45305e-05 -0.00127002 0)
(-0.000411923 0.00195406 0)
(0.00180401 0.00558498 0)
(0.00173398 0.00176629 0)
(0.000176278 0.00169314 0)
(0.000741097 -0.00417055 0)
(-4.48072e-07 -3.32543e-06 0)
(-1.91832e-06 -1.0959e-05 0)
(-6.73952e-06 -3.81612e-05 0)
(-2.01606e-05 -0.000117515 0)
(-5.44783e-05 -0.000308826 0)
(-0.000118777 -0.000708193 0)
(-0.000251424 -0.00129638 0)
(-0.000333002 -0.00207099 0)
(-0.000601828 -0.00195452 0)
(1.54931e-05 -0.00121229 0)
(-0.000319958 0.00240371 0)
(0.00191897 0.0063552 0)
(0.00172751 0.00175421 0)
(0.000165585 0.00157499 0)
(0.00080096 -0.00436763 0)
(-7.00201e-07 -5.30146e-06 0)
(-2.88422e-06 -1.65548e-05 0)
(-9.69703e-06 -5.50622e-05 0)
(-2.77261e-05 -0.000161831 0)
(-7.13137e-05 -0.000406006 0)
(-0.0001481 -0.000886888 0)
(-0.000296431 -0.00154767 0)
(-0.000367009 -0.00234762 0)
(-0.000620281 -0.00206253 0)
(0.000106797 -0.00105683 0)
(-0.000195414 0.00290477 0)
(0.0020228 0.00708437 0)
(0.00170017 0.00163698 0)
(0.000126626 0.00132892 0)
(0.000822324 -0.00440993 0)
(-1.08615e-06 -8.39459e-06 0)
(-4.30368e-06 -2.48079e-05 0)
(-1.38464e-05 -7.87251e-05 0)
(-3.78255e-05 -0.000220592 0)
(-9.26069e-05 -0.000527596 0)
(-0.000183111 -0.001096 0)
(-0.000346585 -0.00181856 0)
(-0.000399279 -0.00260916 0)
(-0.000627659 -0.00210609 0)
(0.000220602 -0.000795434 0)
(-4.10736e-05 0.00345284 0)
(0.00211328 0.00775496 0)
(0.00165066 0.00140899 0)
(6.61485e-05 0.000959535 0)
(0.000813846 -0.00429294 0)
(-1.67125e-06 -1.31967e-05 0)
(-6.36838e-06 -3.68649e-05 0)
(-1.96046e-05 -0.000111497 0)
(-5.11414e-05 -0.000297571 0)
(-0.00011916 -0.000677655 0)
(-0.000224197 -0.00133685 0)
(-0.00040125 -0.0021043 0)
(-0.000427699 -0.00284473 0)
(-0.000621172 -0.00207395 0)
(0.000358062 -0.000422309 0)
(0.000139908 0.0040402 0)
(0.00218674 0.00834668 0)
(0.00157614 0.00106815 0)
(-7.70811e-06 0.000479115 0)
(0.000785702 -0.00401849 0)
(-2.54913e-06 -2.05861e-05 0)
(-9.33894e-06 -5.42992e-05 0)
(-2.75037e-05 -0.000156349 0)
(-6.84712e-05 -0.000397073 0)
(-0.000151785 -0.000860016 0)
(-0.000271531 -0.00160922 0)
(-0.000459351 -0.00239776 0)
(-0.000449672 -0.00304182 0)
(-0.000597626 -0.00195536 0)
(0.00052008 6.56868e-05 0)
(0.0003438 0.00465566 0)
(0.00223856 0.00883675 0)
(0.00147326 0.000616381 0)
(-8.60388e-05 -9.22086e-05 0)
(0.000748544 -0.00359518 0)
(-3.85167e-06 -3.18488e-05 0)
(-1.35628e-05 -7.92319e-05 0)
(-3.82075e-05 -0.000216948 0)
(-9.07154e-05 -0.000523815 0)
(-0.000191243 -0.00107788 0)
(-0.000324987 -0.00191087 0)
(-0.000519324 -0.00268943 0)
(-0.000462159 -0.00318678 0)
(-0.000553579 -0.00174049 0)
(0.000707126 0.000668779 0)
(0.000566067 0.00528449 0)
(0.00226345 0.00920043 0)
(0.00133895 6.02362e-05 0)
(-0.000159622 -0.000726684 0)
(0.000712734 -0.00303879 0)
(-5.76111e-06 -4.88398e-05 0)
(-1.94929e-05 -0.00011447 0)
(-5.25217e-05 -0.000297697 0)
(-0.00011885 -0.000682703 0)
(-0.00023817 -0.00133332 0)
(-0.000384053 -0.00223713 0)
(-0.000579086 -0.0029675 0)
(-0.000461732 -0.00326542 0)
(-0.00048548 -0.00142085 0)
(0.000919044 0.00138405 0)
(0.000801156 0.0059082 0)
(0.00225586 0.00941176 0)
(0.0011711 -0.000588483 0)
(-0.000219296 -0.00138969 0)
(0.00068775 -0.00237227 0)
(-8.52394e-06 -7.41914e-05 0)
(-2.77049e-05 -0.000163647 0)
(-7.13953e-05 -0.000403706 0)
(-0.000153876 -0.000878476 0)
(-0.000292976 -0.0016267 0)
(-0.000447745 -0.0025806 0)
(-0.000636023 -0.00321833 0)
(-0.000444639 -0.00326359 0)
(-0.000389818 -0.000989484 0)
(0.00115484 0.00220513 0)
(0.00104231 0.0065043 0)
(0.00221036 0.00944481 0)
(0.000969174 -0.00131207 0)
(-0.000256314 -0.00204114 0)
(0.00068167 -0.00162546 0)
(-1.24653e-05 -0.000111572 0)
(-3.89084e-05 -0.000231364 0)
(-9.59045e-05 -0.000540663 0)
(-0.00019675 -0.00111521 0)
(-0.000355742 -0.00195609 0)
(-0.000514547 -0.00293107 0)
(-0.000687006 -0.00342696 0)
(-0.000406873 -0.00316776 0)
(-0.000263265 -0.000441071 0)
(0.00141247 0.00312176 0)
(0.00128145 0.00704607 0)
(0.00212196 0.00927531 0)
(0.000734678 -0.00208637 0)
(-0.000262747 -0.00263758 0)
(0.000700704 -0.000834368 0)
(-1.80023e-05 -0.000165992 0)
(-5.39469e-05 -0.000323286 0)
(-0.000127214 -0.000714585 0)
(-0.000248278 -0.00139571 0)
(-0.000426106 -0.00231672 0)
(-0.000582363 -0.00327573 0)
(-0.000728425 -0.00357788 0)
(-0.000344241 -0.00296535 0)
(-0.00010285 0.000228026 0)
(0.00168857 0.004119 0)
(0.00150912 0.00750242 0)
(0.00198671 0.00888295 0)
(0.000471539 -0.00288057 0)
(-0.000231911 -0.00313511 0)
(0.000748766 -3.98625e-05 0)
(-2.56514e-05 -0.000244141 0)
(-7.37778e-05 -0.000446182 0)
(-0.000166506 -0.000931406 0)
(-0.000309 -0.00172077 0)
(-0.000503165 -0.00270064 0)
(-0.000648521 -0.00359961 0)
(-0.000756234 -0.00365578 0)
(-0.000252421 -0.00264479 0)
(9.38308e-05 0.00101966 0)
(0.00197818 0.00517622 0)
(0.00171457 0.00783813 0)
(0.00180217 0.00825415 0)
(0.000186332 -0.00365745 0)
(-0.000158861 -0.00349292 0)
(0.000827102 0.000714158 0)
(-3.60268e-05 -0.000354725 0)
(-9.94235e-05 -0.000607864 0)
(-0.000214879 -0.00119641 0)
(-0.000379045 -0.00208846 0)
(-0.000585402 -0.00309664 0)
(-0.000709797 -0.00388646 0)
(-0.000765995 -0.00364612 0)
(-0.000127027 -0.00219531 0)
(0.000328327 0.00193351 0)
(0.00227443 0.00626566 0)
(0.00188603 0.00801474 0)
(0.00156802 0.00738538 0)
(-0.000111708 -0.00437442 0)
(-4.08828e-05 -0.00367736 0)
(0.000934029 0.00138315 0)
(-4.98208e-05 -0.000508745 0)
(-0.000131883 -0.000816982 0)
(-0.000273197 -0.0015135 0)
(-0.000457995 -0.00249353 0)
(-0.00067065 -0.0034906 0)
(-0.000762472 -0.00411967 0)
(-0.000752894 -0.0035354 0)
(3.63215e-05 -0.00160651 0)
(0.000600956 0.00296605 0)
(0.00256827 0.00735095 0)
(0.00201118 0.00799244 0)
(0.0012867 0.00628644 0)
(-0.000410927 -0.0049856 0)
(0.000122026 -0.00366617 0)
(0.00106483 0.00192477 0)
(-6.77587e-05 -0.000719631 0)
(-0.000171993 -0.00108263 0)
(-0.000341919 -0.00188443 0)
(-0.00054476 -0.00292705 0)
(-0.000756108 -0.00386621 0)
(-0.000802389 -0.00428331 0)
(-0.00071172 -0.00331087 0)
(0.000241864 -0.000867983 0)
(0.000910296 0.00410888 0)
(0.0028483 0.00838578 0)
(0.00207788 0.0077331 0)
(0.00096395 0.0049835 0)
(-0.000697822 -0.00544497 0)
(0.000326776 -0.00345234 0)
(0.00121185 0.00230198 0)
(-9.05203e-05 -0.0010031 0)
(-0.000220242 -0.0014138 0)
(-0.000420892 -0.00230809 0)
(-0.000637493 -0.00337654 0)
(-0.000838406 -0.00420624 0)
(-0.000824985 -0.00436282 0)
(-0.000636811 -0.00295973 0)
(0.00049347 3.06863e-05 0)
(0.00125256 0.00534603 0)
(0.00310067 0.00931342 0)
(0.00207522 0.00720467 0)
(0.000609167 0.0035211 0)
(-0.000957932 -0.00571068 0)
(0.000566955 -0.00304712 0)
(0.00136489 0.0024861 0)
(-0.000118622 -0.00137663 0)
(-0.000276527 -0.00181857 0)
(-0.000509152 -0.00277997 0)
(-0.000733561 -0.00382666 0)
(-0.000913691 -0.00449393 0)
(-0.000825251 -0.00434509 0)
(-0.00052198 -0.00246778 0)
(0.000794226 0.00109893 0)
(0.00162089 0.00665058 0)
(0.00330943 0.0100676 0)
(0.00199475 0.00638675 0)
(0.000235535 0.00196236 0)
(-0.00117707 -0.0057502 0)
(0.000832848 -0.00248152 0)
(0.00151184 0.00245963 0)
(-0.000152258 -0.00185831 0)
(-0.000339892 -0.00230329 0)
(-0.000604747 -0.00329211 0)
(-0.000829588 -0.00426061 0)
(-0.000977697 -0.00471443 0)
(-0.0007976 -0.00421777 0)
(-0.0003605 -0.00181818 0)
(0.00114578 0.00234285 0)
(0.0020046 0.00798103 0)
(0.00345714 0.0105757 0)
(0.00183193 0.0052767 0)
(-0.000140301 0.000386746 0)
(-0.00134279 -0.00554584 0)
(0.00111176 -0.0018057 0)
(0.00163961 0.00221822 0)
(-0.000191114 -0.00246506 0)
(-0.000408272 -0.00287168 0)
(-0.00070463 -0.00383379 0)
(-0.000921544 -0.0046621 0)
(-0.00102575 -0.00485568 0)
(-0.000735619 -0.00396748 0)
(-0.000145228 -0.000990602 0)
(0.00154741 0.00376118 0)
(0.00238869 0.00927821 0)
(0.00352606 0.0107641 0)
(0.00158752 0.00389546 0)
(-0.000499061 -0.00111498 0)
(-0.00144599 -0.00509982 0)
(0.00138865 -0.00108611 0)
(0.0017353 0.00177167 0)
(-0.000234174 -0.00321009 0)
(-0.000478308 -0.00352413 0)
(-0.000804651 -0.00439291 0)
(-0.00100485 -0.00501763 0)
(-0.00105259 -0.00490838 0)
(-0.000631763 -0.00357741 0)
(0.000130991 3.80175e-05 0)
(0.00199484 0.00533959 0)
(0.00275355 0.010464 0)
(0.00349979 0.0105669 0)
(0.00126873 0.00229168 0)
(-0.000820229 -0.00244889 0)
(-0.00148239 -0.00443806 0)
(0.00164722 -0.000400104 0)
(0.00178744 0.0011437 0)
(-0.000279572 -0.00409966 0)
(-0.000545308 -0.0042573 0)
(-0.000899661 -0.0049582 0)
(-0.00107446 -0.00531855 0)
(-0.00105206 -0.00486453 0)
(-0.00047706 -0.00302468 0)
(0.00047451 0.0012906 0)
(0.00247886 0.00704402 0)
(0.00307536 0.0114433 0)
(0.00336549 0.00993621 0)
(0.000889862 0.00054294 0)
(-0.00108398 -0.00352845 0)
(-0.00145374 -0.00361163 0)
(0.00187117 0.000171493 0)
(0.00178736 0.000370261 0)
(-0.000324543 -0.00512966 0)
(-0.000603441 -0.00506424 0)
(-0.00098373 -0.00552185 0)
(-0.00112469 -0.00556219 0)
(-0.00101648 -0.00471459 0)
(-0.000261012 -0.00227863 0)
(0.000889564 0.00278419 0)
(0.00298406 0.00881438 0)
(0.00332731 0.0121096 0)
(0.00311617 0.00885339 0)
(0.000472107 -0.00124745 0)
(-0.0012735 -0.00428645 0)
(-0.00136845 -0.00269516 0)
(0.00204575 0.000553192 0)
(0.00173023 -0.000503282 0)
(-0.000365543 -0.00628245 0)
(-0.000646223 -0.00593497 0)
(-0.00105044 -0.00608196 0)
(-0.00114894 -0.00575123 0)
(-0.000935929 -0.00444336 0)
(2.80966e-05 -0.00130117 0)
(0.00137644 0.00452135 0)
(0.00348795 0.0105604 0)
(0.0034817 0.012356 0)
(0.0027531 0.00733905 0)
(4.23575e-05 -0.00295869 0)
(-0.00137745 -0.00468652 0)
(-0.00124139 -0.00178169 0)
(0.00215938 0.000684092 0)
(0.00161592 -0.00142599 0)
(-0.000398615 -0.00752488 0)
(-0.000667302 -0.00685748 0)
(-0.00109311 -0.0066436 0)
(-0.00113898 -0.00589058 0)
(-0.000797494 -0.0040256 0)
(0.00040226 -5.07098e-05 0)
(0.00192928 0.00647964 0)
(0.00396085 0.0121613 0)
(0.00351297 0.0120896 0)
(0.0022875 0.0054591 0)
(-0.000369144 -0.00446569 0)
(-0.00139215 -0.00473229 0)
(-0.00109282 -0.000973934 0)
(0.00220506 0.000526304 0)
(0.0014493 -0.00234571 0)
(-0.000420003 -0.00880874 0)
(-0.000661469 -0.00781861 0)
(-0.00110494 -0.00721745 0)
(-0.00108397 -0.00598143 0)
(-0.000584835 -0.00342284 0)
(0.000871978 0.00150952 0)
(0.00253382 0.00860055 0)
(0.00436697 0.0134719 0)
(0.00340145 0.0112481 0)
(0.00174127 0.00332466 0)
(-0.000732142 -0.00565594 0)
(-0.00132313 -0.00447183 0)
(-0.000946344 -0.000372807 0)
(0.00218149 7.1383e-05 0)
(0.00123995 -0.0032135 0)
(-0.000426968 -0.0100744 0)
(-0.000625672 -0.00880416 0)
(-0.00107872 -0.00781437 0)
(-0.000969349 -0.00601293 0)
(-0.000278428 -0.00258341 0)
(0.00144359 0.00339815 0)
(0.00316558 0.0107805 0)
(0.004667 0.0143345 0)
(0.00313727 0.0098159 0)
(0.00114629 0.00108415 0)
(-0.00102035 -0.00644757 0)
(-0.00118558 -0.00399576 0)
(-0.00082612 -6.41816e-05 0)
(0.0020936 -0.000656378 0)
(0.00100121 -0.00398785 0)
(-0.000418626 -0.0112579 0)
(-0.000559663 -0.00979738 0)
(-0.00100625 -0.00843567 0)
(-0.000775916 -0.00595298 0)
(0.000143027 -0.00144811 0)
(0.00211589 0.00559837 0)
(0.00378912 0.0128669 0)
(0.00482217 0.0145974 0)
(0.00272383 0.00783574 0)
(0.00054189 -0.00109253 0)
(-0.00121554 -0.00680512 0)
(-0.00100339 -0.00342801 0)
(-0.000753546 -0.000105888 0)
(0.00195235 -0.00160062 0)
(0.000748528 -0.00463841 0)
(-0.000396452 -0.0123014 0)
(-0.000465833 -0.010775 0)
(-0.00087723 -0.00905945 0)
(-0.000479735 -0.00574144 0)
(0.000699655 3.68152e-05 0)
(0.00287644 0.00803902 0)
(0.00435907 0.0146617 0)
(0.00479974 0.0141381 0)
(0.00218002 0.00541317 0)
(-2.91695e-05 -0.00303593 0)
(-0.00131093 -0.00674958 0)
(-0.000806743 -0.00290981 0)
(-0.00074399 -0.00051702 0)
(0.00177366 -0.00267806 0)
(0.000497389 -0.00514898 0)
(-0.000364087 -0.0131622 0)
(-0.000347809 -0.0117006 0)
(-0.000678103 -0.00962632 0)
(-5.34777e-05 -0.00528957 0)
(0.00140576 0.00189895 0)
(0.00369838 0.0105787 0)
(0.00482349 0.0159363 0)
(0.00457908 0.0128873 0)
(0.00154056 0.00271132 0)
(-0.000526104 -0.00460179 0)
(-0.00131326 -0.00635954 0)
(-0.000628322 -0.00257884 0)
(-0.000804064 -0.00127183 0)
(0.0015766 -0.00378812 0)
(0.000260909 -0.00551973 0)
(-0.000326046 -0.0138195 0)
(-0.000207695 -0.0125164 0)
(-0.000391082 -0.0100294 0)
(0.000530117 -0.00449 0)
(0.00226383 0.00411414 0)
(0.00453894 0.0129995 0)
(0.00512975 0.0164579 0)
(0.00415759 0.0108507 0)
(0.000853719 -6.48202e-05 0)
(-0.000915923 -0.00569413 0)
(-0.00124286 -0.00576227 0)
(-0.000498689 -0.00254693 0)
(-0.000930022 -0.00230003 0)
(0.00138072 -0.00482611 0)
(4.76799e-05 -0.00576777 0)
(-0.000285312 -0.0142729 0)
(-4.22572e-05 -0.0131365 0)
(5.72093e-06 -0.0101149 0)
(0.00129245 -0.00323875 0)
(0.0032582 0.00658268 0)
(0.00534049 0.0150171 0)
(0.00523262 0.0160264 0)
(0.003555 0.00812188 0)
(0.000176625 -0.00269342 0)
(-0.0011788 -0.00628222 0)
(-0.00113142 -0.00511557 0)
(-0.000441514 -0.0028806 0)
(-0.00110774 -0.00349452 0)
(0.00120316 -0.00569845 0)
(-0.000139699 -0.00592548 0)
(-0.000240197 -0.0145344 0)
(0.000161024 -0.0134449 0)
(0.000536482 -0.00969837 0)
(0.00224146 -0.00146631 0)
(0.0043499 0.00911689 0)
(0.00603532 0.0163126 0)
(0.00510346 0.0145173 0)
(0.00281485 0.00488322 0)
(-0.000431842 -0.00496748 0)
(-0.00131185 -0.00640821 0)
(-0.00101765 -0.00458329 0)
(-0.000469506 -0.00358853 0)
(-0.00131443 -0.00472599 0)
(0.00105575 -0.00633735 0)
(-0.000304879 -0.00603578 0)
(-0.000181276 -0.0146168 0)
(0.000426845 -0.013305 0)
(0.00122381 -0.00859696 0)
(0.00336353 0.000829973 0)
(0.00547466 0.0114503 0)
(0.00655388 0.0165851 0)
(0.00473858 0.0119201 0)
(0.00200202 0.00138868 0)
(-0.000919384 -0.00672885 0)
(-0.00133046 -0.00618342 0)
(-0.000941348 -0.0043091 0)
(-0.000581865 -0.00461888 0)
(-0.00152204 -0.00586243 0)
(0.000942765 -0.00671236 0)
(-0.000456446 -0.00614445 0)
(-8.93567e-05 -0.014524 0)
(0.000792729 -0.0125814 0)
(0.00208331 -0.00667422 0)
(0.0046173 0.00356372 0)
(0.00654575 0.013274 0)
(0.00683553 0.0156178 0)
(0.00416449 0.00836207 0)
(0.00119568 -0.00207082 0)
(-0.00124856 -0.00789871 0)
(-0.00126643 -0.00577352 0)
(-0.000936637 -0.00439346 0)
(-0.000763843 -0.00586739 0)
(-0.00170182 -0.00679073 0)
(0.000860003 -0.00683651 0)
(-0.000605003 -0.00629056 0)
(6.48901e-05 -0.0142434 0)
(0.00130657 -0.0111742 0)
(0.00311778 -0.00388815 0)
(0.00593173 0.00655585 0)
(0.00746213 0.0142966 0)
(0.00683958 0.0133418 0)
(0.00343775 0.0041066 0)
(0.000478477 -0.00521589 0)
(-0.00140323 -0.00849781 0)
(-0.00116292 -0.0053743 0)
(-0.00102573 -0.00487799 0)
(-0.000988699 -0.00719561 0)
(-0.00182936 -0.00743692 0)
(0.000795362 -0.00676612 0)
(-0.000758921 -0.00649617 0)
(0.000319243 -0.0137333 0)
(0.00202054 -0.00905679 0)
(0.004313 -0.000332894 0)
(0.00721071 0.00955021 0)
(0.00812158 0.0143123 0)
(0.00655366 0.00987758 0)
(0.00263818 -0.000478182 0)
(-7.6711e-05 -0.0078309 0)
(-0.0013916 -0.00864986 0)
(-0.00106672 -0.00518122 0)
(-0.00121421 -0.00574043 0)
(-0.00122194 -0.00845681 0)
(-0.00188926 -0.00778257 0)
(0.000731387 -0.00659355 0)
(-0.000919255 -0.00675569 0)
(0.000715811 -0.0128891 0)
(0.00298039 -0.00630041 0)
(0.00563613 0.0037353 0)
(0.00834489 0.0122394 0)
(0.00843679 0.0132536 0)
(0.00599712 0.00553879 0)
(0.0018558 -0.00497557 0)
(-0.000419774 -0.00980544 0)
(-0.00124473 -0.00856329 0)
(-0.00101914 -0.00535747 0)
(-0.00148911 -0.00690229 0)
(-0.00142741 -0.00952686 0)
(-0.0018784 -0.00787443 0)
(0.000649856 -0.00643161 0)
(-0.00107445 -0.00702362 0)
(0.00129341 -0.0114839 0)
(0.00420895 -0.00306679 0)
(0.0070365 0.00789782 0)
(0.00922956 0.0142865 0)
(0.0083521 0.0112029 0)
(0.00521854 0.000788466 0)
(0.00117393 -0.00898766 0)
(-0.00053328 -0.0111499 0)
(-0.00101069 -0.00849091 0)
(-0.00104751 -0.00600671 0)
(-0.00182055 -0.00824998 0)
(-0.00157419 -0.0103359 0)
(-0.00180664 -0.00782361 0)
(0.000538536 -0.00638749 0)
(-0.00119547 -0.00719871 0)
(0.00207475 -0.0090982 0)
(0.00568291 0.000442634 0)
(0.00844616 0.0116098 0)
(0.00978457 0.0153366 0)
(0.00785832 0.00835255 0)
(0.00428893 -0.00384799 0)
(0.00065276 -0.0121967 0)
(-0.000436859 -0.0119765 0)
(-0.000745682 -0.00867342 0)
(-0.00115978 -0.00715751 0)
(-0.00216735 -0.00966794 0)
(-0.00164296 -0.0108945 0)
(-0.0016937 -0.00778846 0)
(0.000399989 -0.00652369 0)
(-0.00123257 -0.00710628 0)
(0.00304748 -0.00509443 0)
(0.00730487 0.00407458 0)
(0.00977665 0.0142844 0)
(0.0099707 0.0150275 0)
(0.00700315 0.00492134 0)
(0.00329373 -0.00789638 0)
(0.000318472 -0.014407 0)
(-0.000184736 -0.0124492 0)
(-0.000504852 -0.00928002 0)
(-0.00134449 -0.00876531 0)
(-0.00248587 -0.0110778 0)
(-0.00162938 -0.0113032 0)
(-0.00156097 -0.00793501 0)
(0.000261509 -0.00680875 0)
(-0.0011153 -0.00648772 0)
(0.00414164 0.0012946 0)
(0.00887829 0.00781666 0)
(0.01091 0.015429 0)
(0.00979552 0.0130283 0)
(0.00589419 0.00106374 0)
(0.00232726 -0.0110466 0)
(0.000162248 -0.0155645 0)
(0.000143423 -0.0127213 0)
(-0.000335849 -0.0103647 0)
(-0.00157709 -0.0107333 0)
(-0.00274002 -0.0124707 0)
(-0.00154226 -0.011734 0)
(-0.00141825 -0.00837362 0)
(0.000183763 -0.00707017 0)
(-0.000758574 -0.00501423 0)
(0.0052115 0.0107171 0)
(0.0100996 0.0118439 0)
(0.0116867 0.0148158 0)
(0.00930387 0.00913382 0)
(0.0046907 -0.00317843 0)
(0.00149047 -0.0132331 0)
(0.00015059 -0.0157602 0)
(0.000456754 -0.0128897 0)
(-0.000277047 -0.0118566 0)
(-0.00183172 -0.0129458 0)
(-0.00290907 -0.0139149 0)
(-0.00139446 -0.0123727 0)
(-0.00124733 -0.00908173 0)
(0.000263864 -0.00697313 0)
(-7.72815e-05 -0.00234339 0)
(0.0060346 0.023322 0)
(0.0105846 0.0164713 0)
(0.0118996 0.0126394 0)
(0.00855227 0.00341744 0)
(0.00358024 -0.00784029 0)
(0.000889263 -0.0146524 0)
(0.000244129 -0.0152281 0)
(0.000669947 -0.0129949 0)
(-0.000360007 -0.0135958 0)
(-0.00209405 -0.0153005 0)
(-0.00298913 -0.0155207 0)
(-0.00118701 -0.0133259 0)
(-0.000987632 -0.00983841 0)
(0.000627605 -0.00605391 0)
(0.000989959 0.001774 0)
(0.00634057 0.0383731 0)
(0.00993974 0.021995 0)
(0.011307 0.00958829 0)
(0.00757421 -0.00360046 0)
(0.00273864 -0.0129058 0)
(0.000626483 -0.0156997 0)
(0.000417374 -0.0143407 0)
(0.000719391 -0.0130759 0)
(-0.000612522 -0.0154072 0)
(-0.00236869 -0.0177207 0)
(-0.00298531 -0.0173584 0)
(-0.000890466 -0.0145136 0)
(-0.000531558 -0.0102069 0)
(0.0014068 -0.00382594 0)
(0.00245096 0.00735401 0)
(0.00587402 0.0540523 0)
(0.00787458 0.0284638 0)
(0.00967541 0.00676139 0)
(0.00634942 -0.0108574 0)
(0.0022776 -0.01813 0)
(0.000780699 -0.0168271 0)
(0.00066918 -0.0135894 0)
(0.000575574 -0.0132611 0)
(-0.0010565 -0.0171896 0)
(-0.00267395 -0.0201383 0)
(-0.00289447 -0.0193479 0)
(-0.000431198 -0.0155916 0)
(0.000262486 -0.00959798 0)
(0.00270207 5.05382e-05 0)
(0.00423225 0.0140522 0)
(0.00448034 0.0676226 0)
(0.00432724 0.0354683 0)
(0.00685216 0.00540413 0)
(0.00479383 -0.0168233 0)
(0.00219238 -0.0228971 0)
(0.00136936 -0.0183571 0)
(0.00101496 -0.0135284 0)
(0.000248936 -0.0138422 0)
(-0.00169572 -0.0189783 0)
(-0.00302026 -0.0224465 0)
(-0.00268312 -0.0211637 0)
(0.000307874 -0.0159525 0)
(0.00153562 -0.00742191 0)
(0.00453814 0.00558119 0)
(0.00616502 0.0211104 0)
(0.00218743 0.0760054 0)
(-0.000440578 0.0420609 0)
(0.0028522 0.00651442 0)
(0.0027824 -0.0197956 0)
(0.0023285 -0.0262136 0)
(0.00230364 -0.0203102 0)
(0.00145812 -0.014664 0)
(-0.000212785 -0.0152711 0)
(-0.00249296 -0.0209435 0)
(-0.00337542 -0.0244473 0)
(-0.00226923 -0.0222142 0)
(0.00146547 -0.0148405 0)
(0.00337669 -0.00330031 0)
(0.00682535 0.0123054 0)
(0.0079955 0.0274304 0)
(-0.000751323 0.0766401 0)
(-0.00582609 0.0468839 0)
(-0.0020719 0.0104446 0)
(0.00020522 -0.0183755 0)
(0.00238718 -0.0268943 0)
(0.00335251 -0.0223172 0)
(0.00194837 -0.0172926 0)
(-0.000736127 -0.0180332 0)
(-0.00334361 -0.0233017 0)
(-0.00362872 -0.0258229 0)
(-0.00151841 -0.0217404 0)
(0.00315955 -0.0115743 0)
(0.00576702 0.00273009 0)
(0.00934372 0.0192915 0)
(0.0094245 0.0317853 0)
(-0.00388009 0.0683426 0)
(-0.0109726 0.0485018 0)
(-0.00741148 0.0166578 0)
(-0.00295845 -0.0119858 0)
(0.00198033 -0.0239259 0)
(0.00413936 -0.0236694 0)
(0.00234497 -0.0213262 0)
(-0.00124057 -0.0224093 0)
(-0.0040594 -0.0261575 0)
(-0.0035722 -0.0261617 0)
(-0.000262346 -0.0190358 0)
(0.00543468 -0.00582451 0)
(0.00854247 0.0101026 0)
(0.0117625 0.0252944 0)
(0.0101705 0.0331256 0)
(-0.00663469 0.0518311 0)
(-0.0149528 0.0458458 0)
(-0.0124594 0.0237618 0)
(-0.00657684 -0.00123587 0)
(0.000729522 -0.0168982 0)
(0.00419015 -0.0235145 0)
(0.00240739 -0.0261727 0)
(-0.00165994 -0.0281969 0)
(-0.00437842 -0.0293265 0)
(-0.00291758 -0.0250455 0)
(0.00165945 -0.013734 0)
(0.0082177 0.00214908 0)
(0.011393 0.0177565 0)
(0.0136978 0.0290503 0)
(0.0100399 0.0308868 0)
(-0.00848436 0.0296892 0)
(-0.0169998 0.03861 0)
(-0.0164436 0.0298429 0)
(-0.0103437 0.0120357 0)
(-0.00161541 -0.00633927 0)
(0.00303655 -0.0211469 0)
(0.00183119 -0.0307401 0)
(-0.00196029 -0.0345129 0)
(-0.00401162 -0.0322172 0)
(-0.00135802 -0.0221762 0)
(0.00434245 -0.00605803 0)
(0.0113012 0.0114009 0)
(0.0139103 0.0243349 0)
(0.0147972 0.029619 0)
(0.0089838 0.0251915 0)
(-0.00907642 0.00574713 0)
(-0.0167153 0.0274442 0)
(-0.0187069 0.0330035 0)
(-0.013817 0.0251062 0)
(-0.00507473 0.00620548 0)
(0.000355795 -0.0162927 0)
(0.000331558 -0.0336068 0)
(-0.00214797 -0.039797 0)
(-0.00272288 -0.0338428 0)
(0.00133251 -0.0174934 0)
(0.00776003 0.00308109 0)
(0.0143676 0.0204085 0)
(0.0156781 0.0284939 0)
(0.0148302 0.0266583 0)
(0.00712041 0.0168656 0)
(-0.00833425 -0.0159162 0)
(-0.0141847 0.0138571 0)
(-0.0188811 0.0319191 0)
(-0.016516 0.0350253 0)
(-0.00939006 0.0184296 0)
(-0.00389172 -0.00927682 0)
(-0.0022441 -0.0333417 0)
(-0.00226379 -0.0420815 0)
(-0.000422992 -0.0329965 0)
(0.00518787 -0.0112333 0)
(0.0117248 0.0122111 0)
(0.0170508 0.0273847 0)
(0.016381 0.02923 0)
(0.0137562 0.0205286 0)
(0.00471655 0.00725403 0)
(-0.00647591 -0.0320114 0)
(-0.00996221 -0.000148723 0)
(-0.0169991 0.0262207 0)
(-0.0180472 0.0393844 0)
(-0.0140495 0.0278142 0)
(-0.00937477 -0.000999353 0)
(-0.00581087 -0.0288951 0)
(-0.00236377 -0.0394887 0)
(0.00275423 -0.0285639 0)
(0.00996434 -0.00389662 0)
(0.0158833 0.0196441 0)
(0.0190184 0.0307179 0)
(0.0158987 0.0261239 0)
(0.01175 0.0121897 0)
(0.00213175 -0.00211357 0)
(-0.00394905 -0.0407799 0)
(-0.00492994 -0.0125879 0)
(-0.013506 0.0165793 0)
(-0.0182178 0.0369578 0)
(-0.0183833 0.0323086 0)
(-0.0153931 0.00728667 0)
(-0.00999105 -0.0199448 0)
(-0.00249202 -0.0308221 0)
(0.00642716 -0.0198898 0)
(0.0151184 0.00386567 0)
(0.0197502 0.0239443 0)
(0.0200459 0.0294129 0)
(0.0143521 0.0194334 0)
(0.00917526 0.00292841 0)
(-0.000256977 -0.00989934 0)
(-0.0013078 -0.0422386 0)
(-7.95864e-05 -0.0219757 0)
(-0.00915979 0.00448408 0)
(-0.0170936 0.0280171 0)
(-0.0217042 0.0309229 0)
(-0.0209833 0.0143212 0)
(-0.0141408 -0.00708087 0)
(-0.00265523 -0.0160568 0)
(0.0100135 -0.00708179 0)
(0.0198699 0.0114061 0)
(0.0227782 0.0243651 0)
(0.0200579 0.0233987 0)
(0.0120815 0.0100236 0)
(0.00651078 -0.00598213 0)
(-0.00212806 -0.015264 0)
(0.000926165 -0.0379186 0)
(0.00371663 -0.0276338 0)
(-0.004851 -0.00818159 0)
(-0.0149791 0.0142381 0)
(-0.0234519 0.0240316 0)
(-0.0251105 0.0191852 0)
(-0.0174652 0.00824174 0)
(-0.00280874 0.00345465 0)
(0.0128468 0.00885599 0)
(0.0233462 0.0182137 0)
(0.0244487 0.021099 0)
(0.0191219 0.0136079 0)
(0.00956066 -0.000825171 0)
(0.00424908 -0.0135738 0)
(-0.00326798 -0.0180174 0)
(0.00237663 -0.0302544 0)
(0.00588279 -0.0297372 0)
(-0.00139072 -0.0196075 0)
(-0.012325 -0.00174901 0)
(-0.0233031 0.0132862 0)
(-0.0268985 0.0215285 0)
(-0.019198 0.0239787 0)
(-0.00286084 0.0251544 0)
(0.0143347 0.0261224 0)
(0.0247755 0.0239775 0)
(0.0243667 0.0152489 0)
(0.0174005 0.00180071 0)
(0.00726896 -0.011664 0)
(0.00279075 -0.0193353 0)
(-0.00359514 -0.0185837 0)
(0.0028738 -0.0218583 0)
(0.00622582 -0.0291207 0)
(0.000672271 -0.0284206 0)
(-0.00959643 -0.0170105 0)
(-0.0212214 0.00116841 0)
(-0.025835 0.0216048 0)
(-0.0187945 0.0379262 0)
(-0.00269591 0.0458011 0)
(0.0141121 0.0424395 0)
(0.0236774 0.0285651 0)
(0.0223387 0.0085221 0)
(0.0150836 -0.00981802 0)
(0.00556065 -0.0211096 0)
(0.00235823 -0.0231954 0)
(-0.00315714 -0.0178065 0)
(0.00245826 -0.0148987 0)
(0.00492613 -0.0269376 0)
(0.00115921 -0.0338649 0)
(-0.00714679 -0.0289682 0)
(-0.0174441 -0.00966939 0)
(-0.0218967 0.0201156 0)
(-0.0160817 0.048184 0)
(-0.00220988 0.0621954 0)
(0.012144 0.0555138 0)
(0.019997 0.0319411 0)
(0.0184205 0.00275021 0)
(0.012328 -0.0190852 0)
(0.00456987 -0.0280267 0)
(0.00294653 -0.0253761 0)
(-0.00211065 -0.0166641 0)
(0.00134038 -0.0107133 0)
(0.00245306 -0.024295 0)
(0.000271926 -0.0357957 0)
(-0.00513842 -0.0359004 0)
(-0.0124167 -0.017069 0)
(-0.0155593 0.0179361 0)
(-0.0113187 0.053527 0)
(-0.0013467 0.0718961 0)
(0.0087438 0.0635146 0)
(0.0141413 0.0340727 0)
(0.0129235 -0.000612275 0)
(0.00922895 -0.0243434 0)
(0.00417898 -0.0316466 0)
(0.00431964 -0.0261896 0)
(-0.000693399 -0.0159775 0)
(-0.000164503 -0.0096933 0)
(-0.000561108 -0.0219776 0)
(-0.00148724 -0.0345486 0)
(-0.00353194 -0.0371863 0)
(-0.00670102 -0.0198446 0)
(-0.00769431 0.0158279 0)
(-0.0051486 0.0535976 0)
(-0.000123801 0.0737271 0)
(0.00450168 0.0654432 0)
(0.00690792 0.034872 0)
(0.00637934 -0.000853865 0)
(0.00583012 -0.0247706 0)
(0.00405834 -0.0316307 0)
(0.00605309 -0.0258673 0)
(0.00080518 -0.0161874 0)
(-0.00170605 -0.0113934 0)
(-0.00345493 -0.0203211 0)
(-0.00345678 -0.0307611 0)
(-0.00213964 -0.0332815 0)
(-0.000879168 -0.0179599 0)
(0.0006175 0.0142373 0)
(0.00154245 0.0488887 0)
(0.00136205 0.0679481 0)
(0.000146272 0.061301 0)
(-0.000675762 0.0342027 0)
(-0.000533399 0.00186187 0)
(0.00216495 -0.0205078 0)
(0.00376441 -0.0280883 0)
(0.00761487 -0.0244761 0)
(0.00207409 -0.0172512 0)
(-0.00296111 -0.0147876 0)
(-0.00565414 -0.0192401 0)
(-0.00497793 -0.02521 0)
(-0.00071765 -0.0254757 0)
(0.00452679 -0.0123927 0)
(0.00830308 0.0132312 0)
(0.00781735 0.0405478 0)
(0.00295073 0.0560742 0)
(-0.00362071 0.0520292 0)
(-0.0075607 0.0319451 0)
(-0.00708815 0.00661525 0)
(-0.00169266 -0.0125692 0)
(0.00286733 -0.0215527 0)
(0.00847032 -0.0219403 0)
(0.00281369 -0.0186757 0)
(-0.00368201 -0.0185856 0)
(-0.00675614 -0.0183669 0)
(-0.00553737 -0.018692 0)
(0.000938011 -0.0155253 0)
(0.00911109 -0.00476856 0)
(0.0144919 0.012566 0)
(0.0128779 0.0300758 0)