/*--------------------------------*- C++ -*----------------------------------*\
| =========                 |                                                 |
| \\      /  F ield         | foam-extend: Open Source CFD                    |
|  \\    /   O peration     | Version:     4.0                                |
|   \\  /    A nd           | Web:         http://www.foam-extend.org         |
|    \\/     M anipulation  |                                                 |
\*---------------------------------------------------------------------------*/
FoamFile
{
    version     2.0;
    format      ascii;
    class       volScalarField;
    location    "100";
    object      epsilon;
}
// * * * * * * * * * * * * * * * * * * * * * * * * * * * * * * * * * * * * * //

dimensions      [0 2 -3 0 0 0 0];

internalField   nonuniform List<scalar> 
12225
(
503.754
432.795
374.112
326.68
289.199
260.148
238.068
221.693
209.97
202.046
197.229
194.952
194.747
196.224
199.052
202.956
207.729
214.737
121.809
151.805
156.161
154.779
153.214
153.194
155.268
159.534
165.904
174.215
184.268
195.848
208.733
222.708
237.579
253.22
269.755
287.31
35.5013
51.6261
60.8085
66.1589
69.5352
71.9771
74.0979
76.2583
78.6682
81.4467
84.6579
88.3315
92.4771
97.0955
102.193
107.807
114.053
121.115
19.4437
24.8844
29.4316
33.0031
35.7865
37.9887
39.794
41.3503
42.7689
44.1319
45.4994
46.9159
48.4149
50.0249
51.7741
53.7002
55.8616
58.3246
15.8666
17.5808
19.4037
21.1085
22.6257
23.9479
25.0963
26.1029
27.0004
27.8186
28.5834
29.3172
30.0393
30.7673
31.519
32.3146
33.1793
34.1313
14.9703
15.3932
15.993
16.6638
17.3418
17.992
18.5985
19.1573
19.6709
20.1446
20.5856
21.0012
21.3991
21.7871
22.1734
22.5674
22.9796
23.4133
14.7492
14.7451
14.8388
15.0042
15.2154
15.4513
15.6967
15.942
16.1817
16.4131
16.6354
16.8493
17.0563
17.2587
17.4595
17.6621
17.8706
18.0837
14.704
14.5893
14.5234
14.503
14.5202
14.5661
14.6323
14.712
14.8002
14.8932
14.9889
15.0859
15.1839
15.2831
15.3841
15.4884
15.5973
15.7087
14.6918
14.5418
14.4164
14.3171
14.2428
14.1909
14.158
14.1406
14.1357
14.1406
14.1532
14.1721
14.1963
14.2252
14.2587
14.2969
14.3402
14.3867
14.6883
14.5268
14.3792
14.2465
14.1291
14.0265
13.9379
13.862
13.7977
13.7434
13.6981
13.6608
13.6305
13.6067
13.589
13.5772
13.571
13.5694
14.6874
14.5228
14.3685
14.2245
14.0908
13.9673
13.8536
13.7493
13.654
13.5672
13.4882
13.4167
13.352
13.2938
13.2419
13.196
13.1558
13.1208
14.687
14.5217
14.3658
14.2188
14.0803
13.9501
13.8276
13.7127
13.6049
13.504
13.4097
13.3217
13.2397
13.1634
13.0928
13.0276
12.9676
12.9128
14.6869
14.5213
14.3651
14.2174
14.0779
13.946
13.8212
13.7033
13.5918
13.4864
13.3868
13.2928
13.2042
13.1208
13.0423
12.9686
12.8997
12.8357
14.6867
14.5211
14.3648
14.217
14.0773
13.9451
13.8199
13.7014
13.5891
13.4827
13.3819
13.2864
13.196
13.1105
13.0297
12.9534
12.8814
12.8141
14.6866
14.521
14.3646
14.2168
14.077
13.9448
13.8196
13.7011
13.5888
13.4823
13.3814
13.2858
13.1952
13.1094
13.0281
12.9512
12.8785
12.8104
14.6865
14.5208
14.3644
14.2166
14.0769
13.9447
13.8196
13.7011
13.5889
13.4826
13.3819
13.2864
13.1959
13.1102
13.0289
12.952
12.8792
12.8109
14.6864
14.5207
14.3643
14.2165
14.0768
13.9447
13.8196
13.7013
13.5893
13.4831
13.3825
13.2872
13.1969
13.1113
13.0302
12.9534
12.8807
12.8124
14.6863
14.5206
14.3642
14.2164
14.0767
13.9447
13.8198
13.7016
13.5897
13.4837
13.3833
13.2882
13.198
13.1126
13.0316
12.9549
12.8822
12.8139
14.6863
14.5206
14.3641
14.2164
14.0768
13.9449
13.8201
13.702
13.5903
13.4844
13.3842
13.2892
13.1992
13.1139
13.033
12.9564
12.8837
12.8155
14.6863
14.5206
14.3642
14.2165
14.077
13.9452
13.8205
13.7026
13.591
13.4854
13.3853
13.2905
13.2007
13.1156
13.0349
12.9584
12.8859
12.8179
14.6863
14.5206
14.3643
14.2168
14.0775
13.9459
13.8215
13.704
13.5928
13.4877
13.3882
13.2941
13.205
13.1206
13.0408
12.9652
12.8936
12.8265
14.6864
14.5208
14.3648
14.2178
14.0794
13.949
13.8262
13.7106
13.6019
13.4995
13.4031
13.3124
13.227
13.1465
13.0707
12.9993
12.932
12.8691
14.6866
14.5221
14.3682
14.2249
14.0919
13.9688
13.8551
13.7501
13.6532
13.5638
13.4812
13.4047
13.3338
13.2679
13.2065
13.1494
13.0961
13.0468
14.689
14.532
14.393
14.2721
14.1684
14.0803
14.0059
13.9429
13.8894
13.8436
13.8041
13.7696
13.7391
13.7117
13.6869
13.6639
13.6426
13.623
14.7078
14.6017
14.5439
14.5266
14.5401
14.5747
14.6224
14.677
14.7342
14.791
14.8454
14.8963
14.943
14.9853
15.0233
15.0571
15.087
15.1134
14.8416
15.0095
15.2936
15.6323
15.9849
16.3264
16.6433
16.9297
17.1845
17.4088
17.6051
17.7763
17.9256
18.0557
18.1695
18.2692
18.357
18.4348
15.6831
17.0417
18.4329
19.6817
20.7451
21.6267
22.3483
22.9363
23.4161
23.8094
24.1345
24.4063
24.6366
24.8351
25.0092
25.1649
25.3068
25.4386
20.7649
26.5844
30.682
33.4705
35.3676
36.6577
37.5405
38.1546
38.5951
38.9268
39.1944
39.4288
39.6512
39.8758
40.1118
40.3648
40.6371
40.9297
53.606
70.4643
76.6701
78.6586
78.8274
78.2245
77.3772
76.5572
75.8996
75.4659
75.2784
75.3383
75.6347
76.1507
76.8662
77.7593
78.8054
79.9887
354.893
307.09
269.265
238.804
214.026
193.735
177.032
163.222
151.765
142.231
134.282
127.647
122.11
117.492
113.651
110.468
107.843
105.698
7.18621
10.5334
17.0958
23.9728
31.3895
39.5614
47.7667
56.384
65.4521
74.9719
84.9385
95.3444
106.181
117.44
129.111
141.184
153.65
166.498
179.718
193.3
207.232
221.503
236.101
251.015
266.229
281.731
297.503
313.529
329.791
346.268
362.94
379.782
396.769
413.876
431.072
448.328
465.611
482.889
500.125
517.283
534.324
551.211
567.903
584.36
600.543
616.41
631.925
647.047
661.744
675.982
689.737
702.988
715.726
727.951
739.68
750.948
761.818
772.087
781.201
789.046
795.516
800.505
803.909
805.627
805.567
803.649
799.806
793.994
786.191
776.401
764.663
751.043
735.643
718.594
700.055
680.21
659.261
637.421
614.907
591.938
568.722
545.46
522.331
499.499
477.105
455.267
434.083
413.628
393.959
375.113
357.11
339.96
323.657
308.184
293.523
279.647
266.51
254.089
242.339
231.22
220.739
210.743
201.453
192.867
184.022
175.912
168.302
161.217
154.637
148.525
142.843
137.553
132.619
128.01
123.699
119.661
115.872
112.313
108.966
105.814
102.843
100.04
97.3928
94.891
92.5254
90.2873
88.1687
86.1624
84.2623
82.4627
80.7584
79.1448
77.6181
76.1755
74.8156
73.5383
72.3299
71.0919
67.7332
58.3421
52.4845
48.518
45.6189
43.3511
41.4733
39.8478
38.3937
37.0631
35.8266
34.6657
33.5688
32.5286
31.54
30.5991
29.7029
28.8497
28.038
27.2659
26.532
25.8355
25.1751
24.5496
23.9576
23.3979
22.8697
22.3722
21.9036
21.4627
21.048
20.6579
20.2905
19.9435
19.6144
19.3077
19.0326
18.7822
18.5513
18.3372
18.147
17.9946
25.4582
21.2803
27.6781
35.0345
42.3542
49.5189
56.4614
63.2435
69.8993
76.4524
82.9216
89.3223
95.6673
101.967
108.231
114.465
120.675
126.865
133.036
139.191
145.329
151.448
157.546
163.621
169.667
175.681
181.656
187.588
193.47
199.296
205.06
210.756
216.377
221.919
227.375
232.741
238.014
243.19
248.267
253.244
258.121
262.898
267.579
272.167
276.668
281.087
285.434
289.718
293.953
298.151
302.33
306.509
310.71
314.957
319.279
323.71
328.289
333.049
337.616
341.922
345.922
349.565
352.798
355.56
357.79
359.425
360.401
360.658
360.141
358.804
356.613
353.548
349.605
344.798
339.157
332.733
325.588
317.802
309.46
300.657
291.491
282.058
272.453
262.763
253.069
243.443
233.948
224.634
215.546
206.717
198.169
189.922
181.984
174.357
167.041
160.032
153.315
146.874
140.699
134.751
129.037
123.468
118.053
113.091
108.308
103.867
99.6803
95.7338
92.0173
88.5188
85.2241
82.1189
79.1892
76.4217
73.8041
71.3251
68.9746
66.743
64.622
62.6039
60.6817
58.8491
57.1004
55.4302
53.8337
52.3066
50.8449
49.4451
48.1037
46.8177
45.5844
44.4012
43.2656
42.1752
41.1276
40.1209
39.1489
38.1736
36.9731
35.3315
33.6908
32.185
30.8371
29.634
28.5533
27.5733
26.6758
25.8465
25.0746
24.3519
23.6723
23.0313
22.4253
21.8518
21.3086
20.7942
20.307
19.8462
19.4109
19.0001
18.6132
18.2496
17.9088
17.5903
17.2939
17.0189
16.7653
16.5327
16.3209
16.1301
15.9602
15.8114
15.6843
15.5804
15.5006
15.4483
15.4337
15.4866
15.7142
16.4917
40.9937
30.4327
36.5305
43.9545
51.2161
58.1628
64.7753
71.0844
77.1308
82.9543
88.5903
94.0692
99.4167
104.654
109.798
114.862
119.855
124.786
129.658
134.474
139.236
143.943
148.596
153.191
157.729
162.207
166.624
170.979
175.271
179.501
183.67
187.779
191.832
195.831
199.781
203.689
207.561
211.404
215.228
219.042
222.857
226.684
230.536
234.426
238.368
242.375
246.462
250.644
254.934
259.348
263.898
268.596
273.454
278.477
283.673
289.042
294.582
300.219
305.85
311.425
316.894
322.197
327.269
332.033
336.404
340.293
343.605
346.243
348.117
349.14
349.24
348.359
346.462
343.534
339.584
334.647
328.779
322.058
314.575
306.436
297.751
288.636
279.203
269.559
259.806
250.032
240.318
230.731
221.325
212.146
203.228
194.592
186.257
178.229
170.503
163.081
155.956
149.076
142.48
136.045
129.852
124.01
118.487
113.328
108.478
103.935
99.6538
95.6095
91.7873
88.1741
84.7574
81.5243
78.4626
75.5602
72.806
70.1893
67.7005
65.3306
63.0713
60.9152
58.8555
56.886
55.0009
53.1952
51.4641
49.8033
48.2087
46.6769
45.2046
43.7887
42.4264
41.1152
39.8527
38.6364
37.464
36.3331
35.2391
34.1677
33.0788
31.9421
30.7942
29.6689
28.5869
27.5577
26.5839
25.6641
24.7952
23.9734
23.1951
22.4571
21.7563
21.0903
20.457
19.8546
19.2817
18.7368
18.2189
17.727
17.2603
16.8179
16.3993
16.0037
15.6306
15.2794
14.9499
14.6414
14.3538
14.0866
13.8397
13.6131
13.4068
13.2212
13.057
12.9159
12.8016
12.7191
12.6808
12.7172
12.9099
13.4728
54.1585
37.1355
42.5271
49.7279
56.774
63.4655
69.7965
75.8008
81.5265
87.0223
92.3316
97.4912
102.531
107.476
112.344
117.149
121.9
126.605
131.266
135.886
140.464
144.999
149.49
153.936
158.336
162.688
166.992
171.25
175.462
179.631
183.761
187.857
191.924
195.969
200
204.027
208.058
212.105
216.179
220.292
224.459
228.692
233.006
237.416
241.936
246.583
251.372
256.317
261.433
266.734
272.233
277.941
283.865
290.011
296.38
302.969
309.772
316.73
323.785
330.891
337.993
345.026
351.908
358.547
364.838
370.662
375.892
380.398
384.049
386.72
388.3
388.698
387.847
385.709
382.28
377.587
371.69
364.676
356.654
347.753
338.11
327.87
317.175
306.161
294.956
283.676
272.424
261.285
250.329
239.617
229.194
219.083
209.307
199.89
190.803
182.055
173.685
165.487
157.722
150.369
143.417
136.871
130.715
124.938
119.513
114.412
109.597
105.045
100.737
96.6594
92.7969
89.1363
85.6642
82.3681
79.2359
76.2563
73.4187
70.7133
68.1313
65.6643
63.305
61.0465
58.8825
56.8073
54.8157
52.9029
51.0646
49.2969
47.5963
45.9592
44.3829
42.8644
41.4011
39.9907
38.6308
37.319
36.0521
34.824
33.6247
32.4466
31.2914
30.1648
29.0727
28.0193
27.0069
26.0363
25.1073
24.2188
23.3696
22.5582
21.7831
21.0428
20.336
19.6614
19.0179
18.4042
17.8195
17.2628
16.7331
16.2298
15.752
15.2991
14.8702
14.4649
14.0826
13.7226
13.3846
13.0681
12.7728
12.4985
12.2452
12.0132
11.803
11.6163
11.4566
11.329
11.245
11.2289
11.3332
11.6632
64.4411
41.6631
46.0486
52.8364
59.5909
66.0078
72.0734
77.8276
83.3262
88.6249
93.7725
98.8096
103.769
108.675
113.547
118.399
123.238
128.071
132.899
137.723
142.54
147.348
152.146
156.93
161.698
166.448
171.18
175.894
180.59
185.272
189.943
194.606
199.268
203.935
208.615
213.314
218.043
222.81
227.627
232.503
237.451
242.483
247.611
252.848
258.209
263.709
269.363
275.185
281.193
287.4
293.824
300.477
307.374
314.522
321.927
329.589
337.506
345.648
353.979
362.459
371.033
379.635
388.177
396.553
404.638
412.287
419.342
425.632
430.983
435.223
438.197
439.772
439.844
438.348
435.261
430.601
424.43
416.849
407.989
398.004
387.063
375.342
363.023
350.275
337.254
324.103
310.955
297.918
285.068
272.482
260.236
248.338
236.788
225.703
214.959
204.561
194.763
185.439
176.639
168.339
160.524
153.172
146.258
139.76
133.649
127.891
122.452
117.307
112.434
107.817
103.439
99.2846
95.3396
91.5901
88.0229
84.6259
81.3873
78.2966
75.344
72.5204
69.8175
67.2278
64.7444
62.3609
60.0716
57.8713
55.7552
53.7189
51.7586
49.8706
48.0516
46.2986
44.6087
42.9795
41.4086
39.8937
38.4321
37.0207
35.6557
34.3339
33.0534
31.8141
30.6161
29.4601
28.3465
27.2751
26.2456
25.2574
24.3095
23.4011
22.531
21.6981
20.9013
20.1395
19.4117
18.7167
18.0536
17.4214
16.8192
16.2461
15.7011
15.1834
14.6923
14.227
13.7868
13.3708
12.9787
12.6097
12.2635
11.9396
11.6381
11.3589
11.1027
10.8707
10.6659
10.4927
10.3608
10.2883
10.3074
10.4709
71.5074
44.3576
47.5846
53.8068
60.1912
66.3006
72.093
77.6078
82.9054
88.0464
93.084
98.0619
103.015
107.969
112.945
117.955
123.008
128.108
133.257
138.452
143.692
148.973
154.29
159.639
165.017
170.419
175.844
181.289
186.755
192.24
197.746
203.276
208.832
214.416
220.034
225.689
231.386
237.13
242.927
248.781
254.7
260.691
266.759
272.915
279.167
285.527
292.008
298.623
305.389
312.325
319.449
326.782
334.347
342.162
350.242
358.599
367.24
376.177
385.398
394.878
404.578
414.434
424.362
434.251
443.959
453.321
462.142
470.21
477.299
483.182
487.649
490.512
491.624
490.882
488.235
483.688
477.3
469.185
459.498
448.421
436.156
422.914
408.916
394.374
379.474
364.377
349.251
334.25
319.439
304.868
290.738
277.011
263.515
250.742
238.571
226.99
216.041
205.693
195.935
186.743
178.091
169.95
162.291
155.084
148.297
141.896
135.848
130.124
124.702
119.56
114.681
110.046
105.641
101.45
97.4577
93.6522
90.0205
86.5511
83.2334
80.0575
77.0146
74.0963
71.2953
68.6045
66.0178
63.5296
61.1347
58.8284
56.6065
54.4651
52.4006
50.4099
48.4901
46.6383
44.8523
43.1297
41.4683
39.8656
38.3193
36.8273
35.3877
33.9988
32.6595
31.3689
30.1259
28.93
27.7801
26.6754
25.6148
24.5974
23.622
22.6875
21.7929
20.937
20.1187
19.3368
18.5903
17.8782
17.1993
16.5526
15.9371
15.3519
14.796
14.2684
13.7684
13.2951
12.8477
12.4255
12.0279
11.6545
11.305
10.9794
10.678
10.4019
10.1535
9.93637
9.75789
9.63098
9.57529
9.61781
75.4134
45.5485
47.6008
53.1538
59.0952
64.8575
70.3568
75.6231
80.717
85.7016
90.6329
95.5575
100.512
105.526
110.62
115.808
121.098
126.497
132.005
137.619
143.338
149.155
155.065
161.062
167.141
173.297
179.523
185.817
192.174
198.592
205.069
211.603
218.192
224.836
231.532
238.28
245.077
251.922
258.812
265.744
272.717
279.728
286.774
293.856
300.975
308.133
315.338
322.598
329.928
337.346
344.877
352.548
360.393
368.445
376.739
385.303
394.166
403.386
412.991
422.986
433.354
444.052
455.005
466.106
477.207
488.122
498.624
508.454
517.328
524.954
531.051
535.369
537.702
537.903
535.886
531.631
525.192
516.691
506.306
494.256
480.776
466.11
450.508
434.243
417.55
400.571
383.497
366.612
349.94
333.316
317.394
302.098
287.401
273.415
260.134
247.547
235.647
224.414
213.824
203.847
194.453
185.61
177.286
169.446
162.058
155.086
148.497
142.261
136.352
130.747
125.425
120.367
115.555
110.973
106.605
102.437
98.455
94.6476
91.003
87.5107
84.1612
80.9456
77.8561
74.8852
72.0264
69.2737
66.6216
64.0653
61.6002
59.2223
56.9279
54.7137
52.5766
50.514
48.5233
46.6023
44.7488
42.9606
41.2359
39.5726
37.9691
36.4236
34.9345
33.5003
32.1198
30.7916
29.5147
28.2877
27.1095
25.979
24.8948
23.8559
22.861
21.9088
20.9981
20.1278
19.2965
18.5032
17.7466
17.0255
16.3389
15.6855
15.0644
14.4744
13.9146
13.3839
12.8816
12.4067
11.9585
11.5365
11.1403
10.7696
10.4246
10.1062
9.81609
9.55701
9.33428
9.15679
9.03618
8.9863
76.4721
45.5543
46.5181
51.3507
56.7927
62.1693
67.3493
72.347
77.218
82.0251
86.8261
91.6697
96.5954
101.634
106.809
112.135
117.625
123.283
129.112
135.109
141.272
147.595
154.071
160.693
167.454
174.347
181.364
188.5
195.747
203.1
210.553
218.1
225.736
233.454
241.247
249.106
257.024
264.989
272.99
281.014
289.047
297.076
305.087
313.065
321
328.882
336.707
344.474
352.191
359.871
367.538
375.227
382.981
390.854
398.901
407.182
415.752
424.72
434.174
444.162
454.702
465.782
477.352
489.316
501.528
513.786
525.835
537.366
548.029
557.456
565.285
571.191
574.902
576.218
575.01
571.23
564.924
556.216
545.301
532.433
517.91
501.996
484.923
467.068
448.771
430.074
411.093
392.51
374.337
356.62
339.552
323.181
307.531
292.633
278.492
265.099
252.438
240.487
229.217
218.597
208.595
199.176
190.304
181.946
174.064
166.624
159.593
152.938
146.633
140.651
134.97
129.568
124.427
119.528
114.855
110.392
106.126
102.043
98.1302
94.3777
90.775
87.3128
83.9828
80.7772
77.6892
74.7125
71.8414
69.0708
66.3961
63.8131
61.3182
58.9079
56.5792
54.3294
52.156
50.0568
48.0296
46.0724
44.1836
42.3612
40.6037
38.9094
37.2765
35.7037
34.1895
32.7325
31.3314
29.9849
28.6916
27.4502
26.2595
25.1182
24.0249
22.9784
21.9772
21.0201
20.1058
19.2328
18.4
17.6061
16.8497
16.1296
15.4447
14.7937
14.1755
13.589
13.0333
12.5073
12.0103
11.5414
11.1002
10.6864
10.3
9.94142
9.61191
9.31328
9.04915
8.82541
8.64858
8.52557
75.1208
44.6729
44.701
48.8077
53.715
58.6738
63.5084
68.2124
72.8332
77.4306
82.0623
86.7784
91.6208
96.6227
101.81
107.201
112.808
118.64
124.699
130.985
137.494
144.221
151.16
158.301
165.638
173.16
180.859
188.727
196.754
204.933
213.255
221.71
230.289
238.98
247.772
256.65
265.598
274.597
283.628
292.666
301.686
310.663
319.568
328.374
337.052
345.58
353.936
362.105
370.082
377.871
385.489
392.969
400.363
407.738
415.179
422.776
430.626
438.886
447.72
457.235
467.497
478.536
490.334
502.819
515.851
529.218
542.636
555.749
568.136
579.338
588.907
596.437
601.586
604.096
603.794
600.595
594.551
585.793
574.497
560.95
545.566
528.65
510.232
490.945
471.312
451.477
431.662
412.156
393.105
374.613
356.783
339.681
323.34
307.782
293.011
279.02
265.791
253.301
241.52
230.416
219.955
210.1
200.816
192.065
183.812
176.021
168.657
161.69
155.088
148.827
142.88
137.225
131.841
126.71
121.813
117.135
112.659
108.373
104.262
100.317
96.5261
92.8793
89.3682
85.9848
82.7217
79.5726
76.5315
73.5933
70.7532
68.007
65.3509
62.7817
60.2963
57.892
55.5665
53.3176
51.1432
49.0417
47.0113
45.0504
43.1574
41.3309
39.5694
37.8715
36.2357
34.6607
33.1453
31.6882
30.2879
28.9433
27.6529
26.4156
25.2298
24.0943
23.0076
21.9684
20.9753
20.0268
19.1216
18.2583
17.4356
16.652
15.9063
15.1973
14.5236
13.884
13.2776
12.7031
12.1597
11.6466
11.1631
10.7087
10.2833
9.88711
9.52081
9.18537
8.88305
8.6175
8.39207
8.20991
71.8414
43.1714
42.4531
45.8652
50.2247
54.7445
59.212
63.599
67.9413
72.2936
76.7119
81.2469
85.942
90.8329
95.9478
101.308
106.928
112.819
118.985
125.426
132.141
139.123
146.368
153.864
161.604
169.578
177.775
186.185
194.799
203.605
212.594
221.753
231.07
240.531
250.119
259.816
269.6
279.445
289.323
299.202
309.047
318.819
328.479
337.984
347.291
356.36
365.153
373.638
381.793
389.605
397.08
404.243
411.143
417.859
424.496
431.183
438.059
445.328
453.245
461.982
471.665
482.372
494.125
506.877
520.496
534.761
549.358
563.884
577.845
590.679
601.849
610.879
617.365
620.994
621.546
618.887
613.12
604.404
592.806
578.645
562.579
544.961
526.076
506.376
486.232
465.914
445.661
425.69
406.168
387.219
368.936
351.387
334.613
318.635
303.459
289.079
275.477
262.63
250.51
239.082
228.313
218.165
208.602
199.588
191.084
183.057
175.471
168.294
161.496
155.05
148.93
143.11
137.571
132.291
127.252
122.437
117.829
113.414
109.179
105.112
101.2
97.4354
93.8072
90.3077
86.9292
83.665
80.5089
77.4557
74.5005
71.6391
68.8677
66.183
63.582
61.0621
58.6211
56.2569
53.9678
51.7521
49.6083
47.5351
45.531
43.5948
41.7252
39.9211
38.1812
36.5043
34.8893
33.335
31.8402
30.4037
29.0242
27.7005
26.4311
25.2149
24.0504
22.9361
21.8708
20.8529
19.8811
18.9539
18.0698
17.2275
16.4256
15.6627
14.9376
14.2489
13.5954
12.9761
12.3898
11.8358
11.3131
10.8213
10.3599
9.92893
9.52875
9.15952
8.82244
8.51958
8.25227
8.02167
67.1271
41.2854
40.0228
42.798
46.6171
50.6895
54.7764
58.8287
62.869
66.9447
71.1085
75.4105
79.8948
84.5989
89.5533
94.7818
100.302
106.125
112.258
118.703
125.459
132.521
139.882
147.533
155.465
163.667
172.127
180.836
189.782
198.955
208.341
217.93
227.707
237.656
247.758
257.992
268.332
278.749
289.208
299.671
310.095
320.432
330.632
340.642
350.405
359.867
368.975
377.68
385.941
393.732
401.04
407.877
414.285
420.341
426.167
431.926
437.805
444.052
451.011
458.924
467.976
478.293
489.935
502.875
516.982
532.012
547.615
563.343
578.645
592.816
605.26
615.452
622.954
627.419
628.541
626.21
620.595
611.915
600.397
586.426
570.445
552.859
534.039
514.365
494.185
473.796
453.449
433.356
413.689
394.579
376.125
358.396
341.438
325.273
309.911
295.345
281.561
268.535
256.239
244.642
233.708
223.402
213.686
204.526
195.884
187.725
180.016
172.725
165.821
159.276
153.064
147.161
141.543
136.19
131.083
126.203
121.534
117.06
112.769
108.646
104.68
100.861
97.1786
93.6241
90.1898
86.8684
83.6536
80.5399
77.5222
74.5961
71.7579
69.0041
66.3319
63.7387
61.2224
58.7812
56.4133
54.1173
51.8921
49.7364
47.6491
45.6294
43.6761
41.7883
39.9652
38.2058
36.5092
34.8744
33.3003
31.7861
30.3305
28.9325
27.5908
26.3043
25.0715
23.8912
22.7619
21.6824
20.6512
19.6668
18.7278
17.8328
16.9803
16.169
15.3975
14.6644
13.9686
13.3087
12.6838
12.0927
11.5347
11.009
10.5152
10.0528
9.62206
9.22233
8.85414
8.51843
8.21528
7.94479
62.0822
39.3663
37.6595
39.8427
43.1352
46.7606
50.4617
54.1698
57.8928
61.6689
65.5458
69.5712
73.7893
78.2385
82.9517
87.9544
93.2632
98.8931
104.853
111.146
117.772
124.727
132.004
139.594
147.487
155.672
164.138
172.875
181.871
191.116
200.598
210.305
220.223
230.337
240.628
251.071
261.641
272.305
283.027
293.762
304.464
315.08
325.552
335.818
345.815
355.478
364.741
373.544
381.834
389.569
396.722
403.292
409.309
414.846
420.033
425.06
430.167
435.65
441.926
449.295
457.989
468.171
479.918
493.204
507.876
523.646
540.103
556.752
573.061
588.101
601.28
612.072
620.043
624.869
626.325
624.409
619.211
610.942
599.875
586.363
570.796
553.581
535.107
515.744
495.834
475.676
455.527
435.602
416.073
397.075
378.71
361.05
344.141
328.009
312.665
298.105
284.316
271.275
258.956
247.33
236.361
226.017
216.261
207.059
198.375
190.176
182.429
175.103
168.168
161.596
155.361
149.439
143.807
138.443
133.329
128.444
123.774
119.301
115.011
110.891
106.928
103.112
99.4315
95.8781
92.443
89.1188
85.8986
82.7765
79.7473
76.8063
73.9495
71.1734
68.475
65.8518
63.3017
60.823
58.4141
56.0738
53.8011
51.5951
49.4549
47.3799
45.3695
43.4231
41.54
39.7197
37.9616
36.2649
34.629
33.0531
31.5363
30.0778
28.6765
27.3315
26.0414
24.8053
23.6217
22.4894
21.4071
20.3733
19.3867
18.4459
17.5494
16.6958
15.8837
15.1118
14.3787
13.6833
13.0244
12.4009
11.8118
11.2563
10.7338
10.2438
9.78606
9.35937
8.9639
8.59978
8.26635
7.96312
57.3896
37.6319
35.6006
37.243
40.026
43.2072
46.5207
49.8808
53.2798
56.7445
60.315
64.0349
67.9458
72.0856
76.4866
81.175
86.1709
91.4896
97.1409
103.13
109.456
116.117
123.107
130.416
138.035
145.954
154.164
162.653
171.412
180.432
189.704
199.216
208.956
218.91
229.059
239.381
249.848
260.428
271.082
281.766
292.43
303.019
313.471
323.722
333.704
343.347
352.582
361.342
369.566
377.206
384.229
390.626
396.42
401.685
406.559
411.26
416.072
421.37
427.59
435.062
444.039
454.689
467.073
481.125
496.632
513.234
530.441
547.666
564.263
579.553
592.91
603.809
611.85
616.758
618.375
616.68
611.767
603.839
593.177
580.117
565.03
548.307
530.33
511.459
492.028
472.33
452.616
433.099
413.95
395.301
377.254
359.881
343.229
327.326
312.183
297.798
284.16
271.249
259.041
247.508
236.617
226.337
216.635
207.478
198.832
190.665
182.948
175.649
168.741
162.198
155.992
150.101
144.503
139.175
134.099
129.256
124.628
120.201
115.958
111.886
107.973
104.206
100.574
97.0687
93.68
90.4
87.2215
84.1379
81.1436
78.2335
75.4032
72.649
69.9676
67.3565
64.8134
62.3366
59.9245
57.5762
55.2906
53.0673
50.9055
48.805
46.7655
44.7866
42.8683
41.0101
39.212
37.4735
35.7944
34.1742
32.6124
31.1084
29.6615
28.2708
26.9356
25.6547
24.4271
23.2518
22.1274
21.0528
20.0265
19.0473
18.1138
17.2245
16.3781
15.5733
14.8087
14.083
13.3951
12.7439
12.1283
11.5474
11.0004
10.4868
10.0055
9.55566
9.13688
8.7488
8.39029
8.06058
52.8502
36.0929
33.9123
35.101
37.4188
40.1785
43.1178
46.1392
49.2208
52.377
55.639
59.0437
62.6287
66.4293
70.4765
74.7965
79.4099
84.3324
89.5744
95.1413
101.034
107.251
113.785
120.63
127.777
135.218
142.944
150.948
159.223
167.762
176.559
185.605
194.892
204.407
214.133
224.049
234.129
244.34
254.645
264.999
275.352
285.648
295.828
305.827
315.577
325.01
334.059
342.658
350.75
358.288
365.241
371.607
377.415
382.75
387.771
392.737
397.972
403.927
410.997
419.495
429.648
441.581
455.286
470.612
487.249
504.748
522.549
540.034
556.565
571.527
584.37
594.655
602.063
606.39
607.543
605.532
600.466
592.548
582.045
569.276
554.59
538.353
520.923
502.641
483.821
464.739
445.636
426.712
408.13
390.019
372.475
355.567
339.342
323.827
309.035
294.965
281.607
268.944
256.955
245.612
234.889
224.756
215.181
206.135
197.588
189.51
181.872
174.647
167.808
161.33
155.19
149.364
143.83
138.569
133.562
128.789
124.235
119.883
115.718
111.727
107.895
104.211
100.663
97.2407
93.9349
90.7366
87.6379
84.6316
81.7115
78.8718
76.1076
73.4148
70.7897
68.2294
65.7314
63.2938
60.9149
58.5938
56.3295
54.1215
51.9696
49.8735
47.8333
45.849
43.9207
42.0487
40.2331
38.474
36.7714
35.1253
33.5356
32.002
30.5242
29.1017
27.734
26.4203
25.1598
23.9517
22.795
21.6884
20.6309
19.6212
18.658
17.7399
16.8657
16.034
15.2436
14.4931
13.7814
13.1073
12.4698
11.8679
11.3006
10.7671
10.266
9.7968
9.35882
8.95123
8.57263
8.22207
48.4222
34.7451
32.6305
33.4862
35.41
37.7931
40.3897
43.0976
45.8838
48.7511
51.7202
54.8203
58.0831
61.5396
65.218
69.1427
73.3336
77.8056
82.5691
87.6299
92.9897
98.6468
104.597
110.836
117.357
124.155
131.226
138.567
146.175
154.048
162.186
170.584
179.236
188.134
197.264
206.606
216.135
225.82
235.624
245.504
255.411
265.292
275.091
284.745
294.195
303.379
312.236
320.711
328.758
336.342
343.447
350.082
356.3
362.211
368.018
374.036
380.616
388.235
397.21
407.783
420.101
434.181
449.89
466.936
484.876
503.155
521.156
538.259
553.89
567.55
578.842
587.473
593.257
596.097
595.979
592.962
587.175
578.816
568.131
555.41
540.968
525.133
508.227
490.557
472.408
454.032
435.648
417.438
399.552
382.108
365.196
348.879
333.202
318.191
303.857
290.202
277.216
264.886
253.193
242.113
231.621
221.692
212.297
203.41
195.003
187.05
179.525
172.403
165.659
159.271
153.216
147.474
142.023
136.845
131.922
127.236
122.771
118.51
114.44
110.546
106.815
103.234
99.7909
96.4755
93.2773
90.1869
87.1957
84.2958
81.48
78.7421
76.0763
73.4778
70.9425
68.4667
66.0475
63.6827
61.3704
59.1093
56.8984
54.7372
52.6254
50.563
48.5503
46.5875
44.6751
42.8136
41.0035
39.2454
37.5397
35.8869
34.2871
32.7407
31.2476
29.8078
28.4211
27.0872
25.8056
24.5757
23.3967
22.2677
21.1876
20.1555
19.17
18.2301
17.3345
16.4819
15.6712
14.9012
14.1706
13.4783
12.8233
12.2045
11.6207
11.071
10.5544
10.0702
9.61733
9.19476
8.8009
8.4347
44.1252
33.5621
31.7578
32.4358
34.0689
36.1488
38.4592
40.901
43.4346
46.0524
48.7651
51.5928
54.5599
57.6913
61.0108
64.5395
68.2949
72.2908
76.5368
81.039
85.8001
90.8205
96.0996
101.636
107.43
113.482
119.796
126.376
133.227
140.357
147.77
155.469
163.452
171.715
180.245
189.024
198.028
207.226
216.581
226.051
235.589
245.146
254.669
264.105
273.402
282.51
291.385
299.989
308.293
316.286
323.975
331.401
338.647
345.872
353.344
361.432
370.552
381.024
393.05
406.742
422.092
438.939
456.958
475.676
494.504
512.805
529.962
545.437
558.811
569.787
578.185
583.915
586.957
587.339
585.126
580.418
573.355
564.113
552.907
539.982
525.604
510.052
493.601
476.515
459.04
441.396
423.773
406.332
389.204
372.494
356.282
340.624
325.561
311.116
297.3
284.114
271.553
259.604
248.251
237.473
227.249
217.557
208.371
199.669
191.426
183.618
176.223
169.219
162.583
156.295
150.334
144.683
139.321
134.231
129.396
124.801
120.428
116.264
112.293
108.502
104.878
101.408
98.08
94.8825
91.805
88.8374
85.9704
83.1953
80.5042
77.89
75.3461
72.8669
70.4474
68.0833
65.7709
63.5075
61.2906
59.1185
56.99
54.9043
52.861
50.8601
48.9018
46.9867
45.1153
43.2885
41.5071
39.7719
38.084
36.444
34.8527
33.3107
31.8186
30.3768
28.9855
27.6448
26.3544
25.114
23.9232
22.7811
21.6872
20.6403
19.6396
18.6841
17.773
16.9051
16.0794
15.2947
14.55
13.8441
13.1762
12.5449
11.9494
11.3886
10.8614
10.3668
9.9036
9.4706
9.0661
8.68908
40.0107
32.5207
31.2859
31.9796
33.4665
35.3566
37.474
39.73
42.0822
44.5156
47.0317
49.6412
52.3603
55.2068
58.1989
61.3534
64.6847
68.2049
71.9232
75.8469
79.9816
84.3326
88.9059
93.7092
98.753
104.051
109.619
115.475
121.64
128.129
134.958
142.136
149.667
157.545
165.759
174.288
183.103
192.171
201.449
210.894
220.459
230.097
239.761
249.406
258.995
268.494
277.879
287.138
296.274
305.308
314.286
323.291
332.462
342.031
352.356
363.863
376.788
391.235
407.224
424.658
443.293
462.725
482.404
501.686
519.903
536.442
550.817
562.708
571.962
578.566
582.601
584.194
583.481
580.589
575.634
568.727
559.985
549.546
537.572
524.251
509.789
494.407
478.327
461.764
444.92
427.978
411.099
394.418
378.046
362.072
346.564
331.573
317.132
303.263
289.974
277.269
265.143
253.584
242.58
232.114
222.167
212.719
203.75
195.239
187.165
179.508
172.248
165.364
158.838
152.651
146.785
141.223
135.948
130.943
126.194
121.685
117.401
113.329
109.454
105.763
102.243
98.8826
95.6688
92.5902
89.636
86.7957
84.0593
81.4175
78.8615
76.3834
73.9759
71.6322
69.3465
67.1136
64.9291
62.7892
60.691
58.6321
56.6106
54.6254
52.6757
50.7614
48.8825
47.0395
45.2331
43.4643
41.734
40.0436
38.3941
36.7867
35.2227
33.703
32.2288
30.8008
29.4196
28.0854
26.7984
25.5581
24.3648
23.2182
22.118
21.0635
20.0543
19.0897
18.1693
17.2922
16.4576
15.6644
14.9117
14.1984
13.5234
12.8856
12.2838
11.717
11.1839
10.6834
10.2142
9.77499
9.36405
8.9804
36.0626
31.4108
30.9878
31.9376
33.4891
35.3718
37.4538
39.6609
41.9526
44.3095
46.7261
49.2057
51.757
54.3916
57.1222
59.9617
62.9223
66.0155
69.2522
72.6436
76.2026
79.9449
83.8905
88.0648
92.4991
97.2302
102.298
107.744
113.608
119.923
126.713
133.994
141.766
150.017
158.722
167.847
177.345
187.166
197.255
207.556
218.017
228.586
239.224
249.897
260.583
271.275
281.977
292.717
303.539
314.516
325.752
337.396
349.675
362.931
377.608
393.781
411.345
430.183
450.057
470.589
491.256
511.417
530.372
547.447
562.073
573.866
582.654
588.476
591.532
592.117
590.546
587.105
582.017
575.437
567.466
558.173
547.621
535.881
523.049
509.247
494.617
479.321
463.528
447.406
431.115
414.801
398.594
382.605
366.926
351.63
336.775
322.402