/*--------------------------------*- C++ -*----------------------------------*\
| =========                 |                                                 |
| \\      /  F ield         | foam-extend: Open Source CFD                    |
|  \\    /   O peration     | Version:     4.0                                |
|   \\  /    A nd           | Web:         http://www.foam-extend.org         |
|    \\/     M anipulation  |                                                 |
\*---------------------------------------------------------------------------*/
FoamFile
{
    version     2.0;
    format      ascii;
    class       volScalarField;
    location    "100";
    object      p;
}
// * * * * * * * * * * * * * * * * * * * * * * * * * * * * * * * * * * * * * //

dimensions      [0 2 -2 0 0 0 0];

internalField   nonuniform List<scalar> 
12225
(
-0.24354
-2.70294
-3.62187
-3.88179
-4.02031
-4.1295
-4.20625
-4.25304
-4.27696
-4.28234
-4.27039
-4.24063
-4.19163
-4.12087
-4.02423
-3.89477
-3.71874
-3.45316
-3.55959
-4.06674
-4.29379
-4.27954
-4.26776
-4.28624
-4.30721
-4.31851
-4.31896
-4.30837
-4.28533
-4.24782
-4.1934
-4.11897
-4.02016
-3.89034
-3.72022
-3.50906
-3.86404
-3.76587
-3.94638
-4.03591
-4.09717
-4.16185
-4.21562
-4.25082
-4.26856
-4.27061
-4.2571
-4.22711
-4.17906
-4.11061
-4.01837
-3.89759
-3.74352
-3.56023
-3.77287
-3.6971
-3.915
-4.05651
-4.13363
-4.1962
-4.24518
-4.27615
-4.29038
-4.28972
-4.27449
-4.24389
-4.19655
-4.13054
-4.04333
-3.93205
-3.7952
-3.63856
-3.75763
-3.76236
-3.95298
-4.0853
-4.15525
-4.20906
-4.25236
-4.28084
-4.29438
-4.29412
-4.28021
-4.25196
-4.20825
-4.14771
-4.06882
-3.97051
-3.85361
-3.72472
-3.81622
-3.8484
-3.99196
-4.10471
-4.17052
-4.22081
-4.2618
-4.28982
-4.30404
-4.30519
-4.29347
-4.26847
-4.22947
-4.17577
-4.10689
-4.02323
-3.92722
-3.82576
-3.88441
-3.91706
-4.0243
-4.12183
-4.18625
-4.23525
-4.27479
-4.3026
-4.31776
-4.32077
-4.31193
-4.2911
-4.25804
-4.21267
-4.15543
-4.08779
-4.01307
-3.93789
-3.93933
-3.96818
-4.05477
-4.14121
-4.20342
-4.25108
-4.28935
-4.31701
-4.33323
-4.33832
-4.33263
-4.31625
-4.28931
-4.25219
-4.20591
-4.15252
-4.0956
-4.04119
-3.98631
-4.01237
-4.08474
-4.16164
-4.22096
-4.26719
-4.30447
-4.33219
-4.34964
-4.35697
-4.35458
-4.34274
-4.32187
-4.29271
-4.25666
-4.21605
-4.17446
-4.13715
-4.03661
-4.06002
-4.11976
-4.18691
-4.24252
-4.28715
-4.3236
-4.35167
-4.37077
-4.38097
-4.38268
-4.37638
-4.3627
-4.34271
-4.31806
-4.29119
-4.26545
-4.24524
-4.09025
-4.11072
-4.15962
-4.21747
-4.2689
-4.31184
-4.34773
-4.37653
-4.3978
-4.41158
-4.41829
-4.41855
-4.41323
-4.40356
-4.39132
-4.37885
-4.36911
-4.36565
-4.14685
-4.16431
-4.2043
-4.25384
-4.30095
-4.34223
-4.37791
-4.40794
-4.432
-4.45014
-4.4628
-4.47067
-4.47476
-4.47637
-4.47722
-4.47944
-4.48546
-4.49803
-4.20601
-4.22069
-4.25368
-4.29624
-4.33932
-4.37918
-4.41515
-4.44705
-4.47465
-4.49799
-4.51752
-4.53395
-4.5483
-4.56184
-4.57611
-4.59288
-4.61406
-4.64164
-4.26721
-4.27963
-4.30739
-4.34456
-4.38438
-4.42334
-4.46029
-4.49484
-4.52678
-4.55617
-4.5834
-4.60914
-4.63433
-4.66008
-4.68767
-4.71847
-4.75382
-4.79514
-4.32968
-4.34045
-4.36469
-4.39821
-4.43598
-4.47492
-4.5137
-4.55178
-4.58891
-4.62512
-4.6607
-4.69623
-4.73246
-4.77029
-4.81067
-4.85456
-4.90281
-4.95639
-4.39201
-4.40184
-4.42415
-4.4559
-4.49313
-4.53326
-4.57493
-4.61749
-4.66061
-4.70424
-4.74858
-4.79401
-4.84109
-4.89042
-4.94263
-4.99831
-5.05793
-5.1221
-4.45164
-4.46123
-4.48319
-4.51509
-4.55358
-4.59637
-4.64214
-4.69015
-4.73998
-4.79148
-4.84467
-4.89977
-4.95708
-5.01692
-5.07964
-5.14551
-5.21471
-5.2876
-4.50011
-4.51018
-4.53331
-4.56725
-4.60878
-4.65563
-4.70645
-4.76042
-4.81703
-4.876
-4.93723
-5.00074
-5.06662
-5.135
-5.20599
-5.27964
-5.35593
-5.43508
-4.52993
-4.54093
-4.56629
-4.60362
-4.64938
-4.70106
-4.75714
-4.81677
-4.87937
-4.94459
-5.01224
-5.08219
-5.1544
-5.22887
-5.30557
-5.38442
-5.4653
-5.54831
-4.54231
-4.55444
-4.58267
-4.62431
-4.6751
-4.73191
-4.79309
-4.8578
-4.92549
-4.99577
-5.06835
-5.14308
-5.21983
-5.29852
-5.37903
-5.46124
-5.54494
-5.63019
-4.54085
-4.55409
-4.58574
-4.63277
-4.6894
-4.75155
-4.81758
-4.88688
-4.95897
-5.03341
-5.1099
-5.18825
-5.26834
-5.35004
-5.43321
-5.51767
-5.60318
-5.68975
-4.52865
-4.5425
-4.57807
-4.63197
-4.69538
-4.76296
-4.83352
-4.90695
-4.98284
-5.06071
-5.14029
-5.22144
-5.30405
-5.38796
-5.47301
-5.55899
-5.64564
-5.73292
-4.50855
-4.52168
-4.56185
-4.6246
-4.6956
-4.76846
-4.84331
-4.92056
-4.99977
-5.08047
-5.1625
-5.24583
-5.33036
-5.41592
-5.50234
-5.58939
-5.67679
-5.76448
-4.48276
-4.49263
-4.53967
-4.61389
-4.69216
-4.76939
-4.84815
-4.92898
-5.01108
-5.09408
-5.17805
-5.26303
-5.34896
-5.43569
-5.52302
-5.61072
-5.69849
-5.78616
-4.4526
-4.45153
-4.51352
-4.60478
-4.68918
-4.76893
-4.85068
-4.93446
-5.01889
-5.10375
-5.18931
-5.27566
-5.36275
-5.45042
-5.53851
-5.62676
-5.71486
-5.80256
-4.42685
-4.38405
-4.47299
-4.5914
-4.68385
-4.76631
-4.85045
-4.93585
-5.0212
-5.10673
-5.19293
-5.27991
-5.36759
-5.45582
-5.54442
-5.63312
-5.72151
-5.80894
-4.46153
-4.31113
-4.42002
-4.56447
-4.67047
-4.76399
-4.85634
-4.9464
-5.03407
-5.12075
-5.20746
-5.29457
-5.38215
-5.47016
-5.55851
-5.64701
-5.73525
-5.82267
-4.58715
-4.33399
-4.4077
-4.50799
-4.59602
-4.69278
-4.7938
-4.89225
-4.98751
-5.08106
-5.17383
-5.26616
-5.35819
-5.45001
-5.54166
-5.63313
-5.72411
-5.81343
-4.46376
-4.69628
-4.85849
-4.85909
-4.86011
-4.89904
-4.95727
-5.02239
-5.09197
-5.16589
-5.24355
-5.32409
-5.40684
-5.49132
-5.57718
-5.66418
-5.75213
-5.84062
-1.27005
-3.2062
-4.06656
-4.34959
-4.51068
-4.65402
-4.78111
-4.89263
-4.99469
-5.09211
-5.18714
-5.28078
-5.37355
-5.4658
-5.55782
-5.64982
-5.74225
-5.83653
-2.94633
-2.96562
-3.00465
-3.06396
-3.14632
-3.25263
-3.3829
-3.53686
-3.71411
-3.91397
-4.13562
-4.37807
-4.64026
-4.92105
-5.21928
-5.53379
-5.86341
-6.20702
-6.56353
-6.93189
-7.31112
-7.70026
-8.09843
-8.50475
-8.91838
-9.33848
-9.76422
-10.1948
-10.6293
-11.0668
-11.5065
-11.9473
-12.3881
-12.8278
-13.265
-13.6985
-14.1267
-14.5479
-14.9605
-15.3625
-15.7518
-16.1263
-16.4835
-16.8208
-17.1354
-17.4247
-17.6855
-17.9147
-18.1088
-18.2641
-18.3769
-18.4432
-18.4597
-18.4231
-18.3296
-18.1748
-17.9536
-17.661
-17.2934
-16.848
-16.323
-15.7172
-15.0305
-14.264
-13.4199
-12.5017
-11.5143
-10.4637
-9.35732
-8.20353
-7.01164
-5.79163
-4.55386
-3.3088
-2.06677
-0.837599
0.369546
1.5464
2.68576
3.78157
4.82895
5.82422
6.76484
7.64931
8.47711
9.24855
9.96463
10.6269
11.2376
11.7988
12.3134
12.7841
13.2137
13.6051
13.9612
14.2846
14.5779
14.8437
15.0842
15.3017
15.498
15.6751
15.8344
15.9774
16.1092
16.2304
16.3383
16.4336
16.5176
16.5917
16.6569
16.7142
16.7645
16.8084
16.8466
16.8796
16.908
16.9322
16.9526
16.9696
16.9835
16.9947
17.0034
17.0099
17.0143
17.0169
17.0178
17.0173
17.0154
17.0123
17.0082
17.0031
16.9972
16.9904
16.9829
16.9747
16.9658
16.9564
16.9473
16.9384
16.9292
16.9196
16.9096
16.8993
16.8888
16.8781
16.8673
16.8564
16.8453
16.8342
16.8231
16.8119
16.8006
16.7892
16.7779
16.7664
16.755
16.7436
16.7321
16.7207
16.7094
16.698
16.6867
16.6755
16.6644
16.6534
16.6427
16.6323
16.6223
16.6131
16.6048
16.5979
16.5928
16.5905
16.5921
16.5998
16.6169
16.6491
16.7088
16.825
-2.90215
-2.93411
-2.97744
-3.03461
-3.11396
-3.21791
-3.34656
-3.49952
-3.67621
-3.87583
-4.09743
-4.33992
-4.60215
-4.88293
-5.18103
-5.49527
-5.82448
-6.16751
-6.52329
-6.89079
-7.26904
-7.65712
-8.05418
-8.45937
-8.87188
-9.29091
-9.71567
-10.1454
-10.5791
-11.0162
-11.4556
-11.8963
-12.3374
-12.7776
-13.2157
-13.6505
-14.0803
-14.5036
-14.9188
-15.3239
-15.7168
-16.0956
-16.4576
-16.8005
-17.1215
-17.4179
-17.6866
-17.9246
-18.1285
-18.2946
-18.4192
-18.4985
-18.5292
-18.5081
-18.4317
-18.2952
-18.0929
-17.8197
-17.4721
-17.0475
-16.5437
-15.9595
-15.2944
-14.5492
-13.7258
-12.8273
-11.8582
-10.8243
-9.73248
-8.59101
-7.40892
-6.19603
-4.96264
-3.71923
-2.47616
-1.24344
-0.0303863
1.15451
2.30378
3.41107
4.47124
5.48031
6.43548
7.33501
8.17814
8.96498
9.69638
10.3738
10.9991
11.5747
12.1031
12.5871
13.0294
13.4329
13.8004
14.1346
14.4381
14.7134
14.9629
15.1891
15.3938
15.5798
15.7489
15.9009
16.0373
16.1598
16.2693
16.3667
16.4531
16.5297
16.5976
16.6575
16.7103
16.7567
16.7973
16.8326
16.8632
16.8895
16.9119
16.9309
16.9467
16.9596
16.97
16.978
16.9839
16.988
16.9903
16.991
16.9904
16.9885
16.9855
16.9815
16.9766
16.9709
16.9644
16.9572
16.9494
16.9409
16.9317
16.9224
16.9133
16.9043
16.895
16.8854
16.8757
16.8656
16.8554
16.8451
16.8346
16.824
16.8133
16.8025
16.7917
16.7807
16.7697
16.7587
16.7476
16.7365
16.7254
16.7143
16.7032
16.6922
16.6812
16.6702
16.6593
16.6486
16.6381
16.6279
16.6181
16.609
16.6009
16.5942
16.5893
16.5872
16.5889
16.5966
16.6135
16.6447
16.7003
16.7892
-2.92556
-2.9829
-3.05176
-3.1252
-3.21507
-3.32651
-3.46053
-3.61711
-3.79594
-3.99642
-4.21773
-4.45891
-4.71891
-4.99663
-5.29095
-5.60077
-5.92503
-6.26268
-6.61274
-6.97429
-7.34644
-7.72837
-8.1193
-8.51845
-8.92511
-9.33852
-9.75797
-10.1827
-10.6119
-11.0449
-11.4806
-11.9183
-12.3568
-12.7951
-13.232
-13.6661
-14.0961
-14.5202
-14.9369
-15.3444
-15.7405
-16.1232
-16.4902
-16.8389
-17.1667
-17.4708
-17.7483
-17.9961
-18.2108
-18.3889
-18.5265
-18.6199
-18.6657
-18.6609
-18.6019
-18.4838
-18.3005
-18.0466
-17.7186
-17.3134
-16.8288
-16.2632
-15.616
-14.8876
-14.0796
-13.1948
-12.2375
-11.2132
-10.1287
-8.99214
-7.81249
-6.59967
-5.36408
-4.11635
-2.86707
-1.62646
-0.404112
0.79124
1.95188
3.07123
4.14393
5.16581
6.13392
7.04637
7.90228
8.70169
9.44537
10.1347
10.7715
11.3582
11.8971
12.3911
12.8429
13.2553
13.6312
13.9732
14.284
14.5664
14.8226
15.0557
15.2679
15.4603
15.6346
15.7919
15.9342
16.0629
16.1784
16.2814
16.3732
16.4548
16.5272
16.5913
16.648
16.698
16.7419
16.7803
16.8138
16.8428
16.8677
16.8889
16.9069
16.9219
16.9341
16.944
16.9516
16.9572
16.961
16.9631
16.9638
16.9632
16.9614
16.9585
16.9547
16.95
16.9445
16.9384
16.9317
16.9244
16.9164
16.9081
16.8997
16.8912
16.8824
16.8733
16.864
16.8544
16.8447
16.8348
16.8247
16.8146
16.8043
16.7939
16.7835
16.7729
16.7622
16.7515
16.7408
16.73
16.7192
16.7084
16.6976
16.6868
16.676
16.6653
16.6546
16.6441
16.6337
16.6236
16.614
16.605
16.5969
16.5901
16.5852
16.5828
16.584
16.5907
16.6056
16.6325
16.6772
16.7325
-3.07133
-3.14207
-3.22522
-3.30949
-3.40748
-3.52517
-3.66369
-3.82305
-4.003
-4.20307
-4.42258
-4.66071
-4.91655
-5.18917
-5.47758
-5.78083
-6.09799
-6.42817
-6.77051
-7.12422
-7.48852
-7.86271
-8.2461
-8.63801
-9.03781
-9.44482
-9.8584
-10.2779
-10.7025
-11.1315
-11.564
-11.9992
-12.4361
-12.8736
-13.3104
-13.7455
-14.1772
-14.6041
-15.0244
-15.4364
-15.8381
-16.2273
-16.6017
-16.9589
-17.2961
-17.6107
-17.8995
-18.1596
-18.3876
-18.5799
-18.7326
-18.8419
-18.9043
-18.9167
-18.8755
-18.7757
-18.6108
-18.3749
-18.0642
-17.6753
-17.2058
-16.6537
-16.0181
-15.299
-14.4979
-13.6173
-12.6613
-11.6353
-10.5462
-9.40224
-8.2127
-6.98776
-5.73823
-4.47517
-3.20958
-1.95213
-0.712775
0.499412
1.67646
2.81157
3.89923
4.9352
5.91648
6.84117
7.7084
8.51826
9.27158
9.96973
10.6147
11.2089
11.7546
12.2548
12.7125
13.1302
13.5111
13.8583
14.1739
14.4622
14.7249
14.9634
15.18
15.3765
15.5545
15.7158
15.8619
15.9942
16.1131
16.2196
16.3146
16.3993
16.4747
16.5415
16.6008
16.6531
16.6992
16.7397
16.7751
16.8059
16.8325
16.8554
16.8749
16.8913
16.9049
16.916
16.9249
16.9316
16.9365
16.9397
16.9414
16.9417
16.9408
16.9388
16.9358
16.9319
16.9272
16.9218
16.9158
16.9093
16.9023
16.8948
16.8871
16.8791
16.8708
16.8623
16.8534
16.8443
16.835
16.8255
16.8159
16.8061
16.7962
16.7862
16.7761
16.7658
16.7555
16.7451
16.7346
16.7241
16.7136
16.703
16.6925
16.6819
16.6713
16.6607
16.6502
16.6398
16.6295
16.6195
16.6099
16.6008
16.5926
16.5856
16.5802
16.5771
16.5773
16.582
16.5934
16.6137
16.6445
16.6714
-3.3195
-3.39462
-3.48251
-3.57132
-3.67324
-3.79421
-3.93516
-4.09589
-4.27601
-4.47498
-4.69217
-4.92681
-5.17811
-5.44524
-5.72738
-6.02371
-6.33345
-6.65585
-6.9902
-7.33582
-7.6921
-8.05841
-8.43419
-8.81884
-9.21182
-9.61255
-10.0204
-10.4348
-10.8551
-11.2805
-11.7103
-12.1435
-12.5792
-13.0163
-13.4538
-13.8902
-14.3243
-14.7544
-15.1789
-15.5959
-16.0036
-16.3997
-16.782
-17.148
-17.495
-17.8203
-18.1207
-18.3934
-18.6348
-18.8415
-19.0094
-19.1347
-19.2137
-19.2431
-19.2195
-19.1379
-18.9912
-18.773
-18.479
-18.1056
-17.6498
-17.1094
-16.4831
-15.7705
-14.9727
-14.0919
-13.1322
-12.0988
-10.9989
-9.84079
-8.63431
-7.39011
-6.11954
-4.83424
-3.54582
-2.2655
-1.00377
0.229927
1.42731
2.58137
3.68644
4.73823
5.73379
6.67124
7.54976
8.3696
9.13173
9.83753
10.4892
11.0893
11.6403
12.1453
12.6078
13.0301
13.4164
13.7698
14.0916
14.3847
14.6513
14.8935
15.1134
15.3129
15.4938
15.6577
15.8061
15.9404
16.0613
16.1698
16.2669
16.3536
16.4309
16.4996
16.5607
16.6148
16.6625
16.7046
16.7414
16.7736
16.8016
16.8258
16.8465
16.864
16.8788
16.8909
16.9008
16.9085
16.9143
16.9184
16.9209
16.9221
16.922
16.9207
16.9184
16.9152
16.9112
16.9064
16.9011
16.8952
16.8889
16.8821
16.875
16.8675
16.8597
16.8517
16.8433
16.8346
16.8258
16.8167
16.8074
16.798
16.7885
16.7788
16.769
16.7591
16.7491
16.739
16.7288
16.7185
16.7083
16.6979
16.6876
16.6772
16.6668
16.6564
16.646
16.6357
16.6254
16.6154
16.6057
16.5965
16.5881
16.5806
16.5745
16.5704
16.569
16.5711
16.5781
16.5907
16.6078
16.6125
-3.63582
-3.7101
-3.79763
-3.88734
-3.99007
-4.11137
-4.25207
-4.41183
-4.59013
-4.78638
-4.99991
-5.23
-5.47593
-5.73696
-6.01238
-6.3015
-6.60365
-6.91822
-7.24463
-7.58233
-7.9308
-8.28955
-8.65807
-9.03588
-9.4225
-9.81743
-10.2202
-10.6301
-11.0466
-11.4689
-11.8964
-12.3281
-12.7632
-13.2005
-13.639
-14.0774
-14.5142
-14.948
-15.377
-15.7995
-16.2135
-16.6169
-17.0074
-17.3826
-17.7397
-18.0761
-18.3887
-18.6744
-18.9299
-19.1516
-19.3356
-19.4777
-19.5741
-19.6215
-19.6163
-19.5535
-19.426
-19.2266
-18.9503
-18.5931
-18.1517
-17.6233
-17.0062
-16.2995
-15.5039
-14.6214
-13.6557
-12.612
-11.4978
-10.3216
-9.09384
-7.82577
-6.52944
-5.2172
-3.9014
-2.59395
-1.30596
-0.0473379
1.17336
2.34886
3.47328
4.5423
5.55312
6.5039
7.3938
8.22343
8.99409
9.70708
10.3651
10.9714
11.5281
12.0391
12.5087
12.9382
13.3304
13.6884
14.0143
14.311
14.5809
14.8262
15.049
15.2512
15.4346
15.6009
15.7514
15.8876
16.0103
16.1206
16.2196
16.3081
16.3872
16.4577
16.5205
16.5762
16.6255
16.6691
16.7074
16.741
16.7703
16.7957
16.8177
16.8364
16.8522
16.8654
16.8763
16.885
16.8918
16.8968
16.9002
16.9021
16.9028
16.9024
16.9008
16.8984
16.895
16.891
16.8863
16.8811
16.8753
16.8691
16.8626
16.8556
16.8484
16.8408
16.8329
16.8247
16.8163
16.8076
16.7988
16.7898
16.7807
16.7714
16.7619
16.7523
16.7426
16.7328
16.7229
16.713
16.703
16.6929
16.6828
16.6726
16.6624
16.6521
16.6418
16.6316
16.6213
16.6113
16.6015
16.5921
16.5832
16.5752
16.5682
16.5628
16.5594
16.5585
16.5606
16.5653
16.5697
16.5569
-3.98681
-4.05622
-4.1396
-4.22746
-4.32865
-4.44803
-4.58632
-4.74314
-4.91793
-5.11004
-5.31881
-5.54355
-5.78358
-6.03823
-6.30686
-6.58889
-6.88375
-7.19093
-7.50995
-7.84036
-8.18174
-8.53366
-8.89571
-9.26749
-9.64857
-10.0385
-10.4369
-10.843
-11.2564
-11.6764
-12.1022
-12.533
-12.9679
-13.4059
-13.8457
-14.2863
-14.726
-15.1636
-15.5972
-16.0252
-16.4455
-16.8562
-17.2549
-17.6393
-18.0067
-18.3544
-18.6793
-18.9785
-19.2485
-19.4859
-19.6865
-19.8463
-19.9612
-20.0275
-20.0416
-19.9987
-19.8915
-19.7122
-19.4551
-19.1157
-18.69
-18.175
-17.5681
-16.8682
-16.0752
-15.1908
-14.2185
-13.1634
-12.0331
-10.8367
-9.58509
-8.29036
-6.96537
-5.6233
-4.27727
-2.94005
-1.62348
-0.338019
0.907511
2.10558
3.24996
4.33636
5.36236
6.32629
7.2272
8.06654
8.84626
9.56728
10.2334
10.8487
11.4145
11.9333
12.4088
12.8434
13.2402
13.6022
13.932
14.2322
14.5054
14.7538
14.9796
15.1846
15.3707
15.5394
15.6922
15.8305
15.9553
16.0676
16.1686
16.2592
16.3402
16.4126
16.4772
16.5347
16.5858
16.631
16.6708
16.7059
16.7367
16.7635
16.7867
16.8067
16.8237
16.8381
16.8501
16.8599
16.8676
16.8736
16.878
16.8809
16.8824
16.8828
16.8821
16.8804
16.8779
16.8746
16.8706
16.866
16.8609
16.8554
16.8494
16.8431
16.8363
16.8293
16.8219
16.8142
16.8063
16.7981
16.7897
16.7812
16.7725
16.7636
16.7545
16.7453
16.736
16.7265
16.7169
16.7073
16.6975
16.6877
16.6779
16.6679
16.6579
16.6478
16.6376
16.6274
16.6172
16.6071
16.5971
16.5874
16.5781
16.5693
16.5614
16.5544
16.5488
16.5445
16.5416
16.5385
16.5318
16.5049
-4.33992
-4.40156
-4.47798
-4.5619
-4.65991
-4.77591
-4.91044
-5.06314
-5.23341
-5.42061
-5.62408
-5.84316
-6.07721
-6.32561
-6.58779
-6.86323
-7.15145
-7.45202
-7.76453
-8.08861
-8.42389
-8.77003
-9.12668
-9.49348
-9.87007
-10.256
-10.6509
-11.0542
-11.4654
-11.8837
-12.3085
-12.7389
-13.1741
-13.6129
-14.0544
-14.4972
-14.94
-15.3813
-15.8194
-16.2527
-16.6792
-17.0969
-17.5036
-17.897
-18.2744
-18.6332
-18.9705
-19.2832
-19.5679
-19.8211
-20.0389
-20.2171
-20.3512
-20.4374
-20.4717
-20.4495
-20.3636
-20.2057
-19.9691
-19.649
-19.2408
-18.7407
-18.1458
-17.454
-16.6648
-15.7795
-14.8011
-13.7348
-12.5881
-11.3706
-10.0941
-8.77154
-7.41667
-6.04357
-4.66622
-3.2984
-1.95293
-0.640803
0.629109
1.84909
3.01248
4.11524
5.15601
6.13334
7.04585
7.89688
8.6889
9.42169
10.0979
10.7211
11.2936
11.8185
12.2992
12.7387
13.14
13.5062
13.84
14.1441
14.4209
14.6727
14.9017
15.1099
15.2989
15.4704
15.6259
15.7667
15.8939
16.0086
16.1119
16.2048
16.2881
16.3626
16.4293
16.4888
16.5418
16.5888
16.6305
16.6673
16.6996
16.728
16.7527
16.7741
16.7925
16.8081
16.8213
16.8323
16.8412
16.8483
16.8537
16.8576
16.8602
16.8615
16.8617
16.8609
16.8592
16.8567
16.8535
16.8497
16.8454
16.8405
16.8352
16.8294
16.8233
16.8168
16.81
16.8029
16.7955
16.7879
16.78
16.772
16.7637
16.7553
16.7466
16.7378
16.7289
16.7198
16.7106
16.7013
16.6919
16.6824
16.6728
16.663
16.6532
16.6433
16.6333
16.6232
16.613
16.6028
16.5926
16.5826
16.5727
16.5632
16.554
16.5454
16.5374
16.5297
16.5216
16.5113
16.4947
16.4567
-4.66542
-4.71761
-4.78542
-4.86412
-4.95803
-5.06991
-5.2001
-5.34819
-5.51362
-5.69576
-5.89396
-6.10758
-6.33603
-6.57873
-6.83516
-7.10487
-7.38741
-7.68243
-7.98957
-8.30851
-8.63894
-8.98055
-9.33304
-9.6961
-10.0694
-10.4525
-10.845
-11.2464
-11.6562
-12.0736
-12.498
-12.9286
-13.3644
-13.8045
-14.2477
-14.6928
-15.1385
-15.5833
-16.0257
-16.4639
-16.8961
-17.3203
-17.7344
-18.1362
-18.523
-18.8924
-19.2415
-19.5672
-19.8663
-20.1352
-20.3701
-20.5667
-20.7205
-20.8271
-20.8823
-20.8814
-20.8173
-20.6815
-20.4665
-20.1669
-19.7776
-19.2942
-18.7129
-18.0311
-17.2476
-16.363
-15.38
-14.3034
-13.141
-11.9031
-10.6021
-9.2522
-7.86824
-6.46514
-5.05774
-3.66101
-2.28884
-0.952525
0.339726
1.58021
2.76156
3.8804
4.93758
5.93124
6.8588
7.72258
8.52459
9.26625
9.9504
10.5803
11.159
11.6896
12.1756
12.6201
13.0263
13.397
13.7352
14.0435
14.3243
14.5801
14.8128
15.0246
15.217
15.3918
15.5505
15.6943
15.8244
15.9419
16.048
16.1435
16.2294
16.3065
16.3756
16.4374
16.4925
16.5417
16.5854
16.6241
16.6583
16.6884
16.7148
16.7378
16.7577
16.7749
16.7895
16.8018
16.812
16.8203
16.8269
16.832
16.8356
16.838
16.8392
16.8394
16.8387
16.8371
16.8348
16.8319
16.8283
16.8242
16.8196
16.8146
16.8091
16.8033
16.7971
16.7906
16.7838
16.7768
16.7695
16.762
16.7542
16.7463
16.7381
16.7298
16.7213
16.7126
16.7038
16.6949
16.6858
16.6767
16.6674
16.658
16.6484
16.6387
16.6288
16.6187
16.6086
16.5983
16.5879
16.5775
16.5671
16.5567
16.5463
16.5359
16.5254
16.5142
16.5012
16.4843
16.4591
16.4122
-4.93865
-4.98078
-5.03932
-5.11221
-5.20171
-5.30934
-5.43517
-5.57879
-5.73962
-5.91707
-6.11049
-6.3193
-6.54292
-6.78083
-7.03255
-7.29765
-7.57576
-7.86653
-8.16966
-8.48486
-8.81185
-9.15036
-9.50011
-9.8608
-10.2321
-10.6136
-11.0049
-11.4055
-11.8147
-12.2321
-12.6568
-13.0881
-13.5249
-13.9664
-14.4114
-14.8587
-15.307
-15.7549
-16.2009
-16.6434
-17.0805
-17.5104
-17.9309
-18.3401
-18.7354
-19.1143
-19.4741
-19.8118
-20.1243
-20.4081
-20.6593
-20.8737
-21.0468
-21.1738
-21.25
-21.2704
-21.2281
-21.1144
-20.9213
-20.6429
-20.2736
-19.8081
-19.242
-18.5719
-17.7959
-16.9139
-15.928
-14.8428
-13.6663
-12.4098
-11.0868
-9.71249
-8.30301
-6.87382
-5.44005
-4.01805
-2.62284
-1.26559
0.0474213
1.30879
2.5098
3.6467
4.71876
5.72451
6.6633
7.53675
8.34692
9.09604
9.78705
10.4232
11.0077
11.544
12.0353
12.485
12.8962
13.2719
13.615
13.9279
14.2134
14.4736
14.7107
14.9267
15.1232
15.3019
15.4643
15.6116
15.7452
15.8662
15.9755
16.0742
16.1631
16.2431
16.315
16.3795
16.4372
16.4888
16.5349
16.5758
16.6122
16.6443
16.6726
16.6974
16.7191
16.7379
16.7541
16.768
16.7797
16.7894
16.7974
16.8037
16.8086
16.8121
16.8145
16.8158
16.8161
16.8156
16.8143
16.8122
16.8096
16.8063
16.8026
16.7983
16.7936
16.7885
16.7831
16.7773
16.7711
16.7647
16.758
16.7511
16.744
16.7366
16.729
16.7211
16.7131
16.7049
16.6966
16.6881
16.6794
16.6706
16.6617
16.6526
16.6433
16.6338
16.624
16.6141
16.604
16.5936
16.583
16.5722
16.5612
16.5499
16.5382
16.526
16.513
16.4984
16.4808
16.4578
16.4253
16.3711
-5.14146
-5.17342
-5.22272
-5.28975
-5.37493
-5.4786
-5.60051
-5.74019
-5.89708
-6.07059
-6.26011
-6.46509
-6.68498
-6.91928
-7.16756
-7.42943
-7.70453
-7.99256
-8.29323
-8.60626
-8.9314
-9.26838
-9.61693
-9.97674
-10.3475
-10.7287
-11.12
-11.5208
-11.9306
-12.3487
-12.7743
-13.2067
-13.6448
-14.0878
-14.5344
-14.9836
-15.4341
-15.8846
-16.3335
-16.7792
-17.2202
-17.6545
-18.0803
-18.4954
-18.8977
-19.2846
-19.6535
-20.0016
-20.3259
-20.6228
-20.8887
-21.1195
-21.3105
-21.4568
-21.5534
-21.5945
-21.5729
-21.4802
-21.3084
-21.0509
-20.7015
-20.2543
-19.7041
-19.0467
-18.2794
-17.4016
-16.4151
-15.3239
-14.1364
-12.8653
-11.525
-10.1318
-8.70305
-7.25427
-5.79942
-4.35522
-2.93831
-1.56014
-0.228931
1.04771
2.26287
3.41261
4.49529
5.51004
6.45701
7.33774
8.1544
8.9096
9.6064
10.2481
10.8381
11.3797
11.8765
12.3316
12.7481
13.1292
13.4775
13.7958
14.0865
14.3519
14.594
14.8148
15.016
15.1993
15.366
15.5177
15.6554
15.7803
15.8934
15.9958
16.0883
16.1717
16.2468
16.3145
16.3752
16.4296
16.4784
16.5219
16.5607
16.5951
16.6257
16.6526
16.6763
16.697
16.715
16.7306
16.744
16.7553
16.7648
16.7726
16.7788
16.7837
16.7874
16.7899
16.7914
16.792
16.7918
16.7908
16.7891
16.7868
16.784
16.7806
16.7767
16.7725
16.7678
16.7627
16.7573
16.7516
16.7456
16.7394
16.7329
16.7261
16.7191
16.7118
16.7043
16.6966
16.6888
16.6808
16.6726
16.6642
16.6556
16.6468
16.6379
16.6286
16.6191
16.6093
16.5992
16.5888
16.578
16.5668
16.5551
16.5429
16.5299
16.5159
16.5004
16.4825
16.4607
16.4322
16.3933
16.3332
-5.2625
-5.28455
-5.325
-5.38631
-5.46741
-5.56756
-5.68615
-5.82264
-5.97644
-6.14697
-6.33368
-6.53601
-6.75345
-6.98555
-7.23189
-7.49209
-7.76584
-8.05281
-8.35273
-8.66533
-8.99034
-9.32751
-9.67653
-10.0371
-10.4087
-10.7911
-11.1837
-11.5859
-11.9971
-12.4167
-12.8438
-13.2776
-13.7171
-14.1615
-14.6095
-15.0602
-15.5122
-15.9643
-16.415
-16.8629
-17.3064
-17.7437
-18.1731
-18.5925
-18.9998
-19.3927
-19.7686
-20.1249
-20.4585
-20.7661
-21.0442
-21.2886
-21.495
-21.6583
-21.7732
-21.833
-21.8299
-21.7557
-21.6029
-21.3646
-21.0338
-20.6041
-20.0694
-19.4249
-18.6675
-17.7964
-16.8135
-15.7229
-14.5318
-13.2527
-11.9011
-10.4939
-9.04898
-7.58347
-6.11328
-4.65448
-3.22277
-1.83061
-0.487502
0.798866
2.02248
3.17962
4.26849
5.28856
6.24043
7.12575
7.94683
8.70647
9.40782
10.0542
10.6491
11.1959
11.698
12.1586
12.5809
12.9677
13.3219
13.6461
13.9426
14.2137
14.4615
14.6879
14.8945
15.0831
15.2549
15.4115
15.554
15.6835
15.8011
15.9077
16.0043
16.0916
16.1705
16.2418
16.3059
16.3636
16.4155
16.4619
16.5035
16.5406
16.5737
16.603
16.629
16.6518
16.672
16.6895
16.7047
16.7178
16.729
16.7384
16.7463
16.7526
16.7577
16.7616
16.7644
16.7663
16.7672
16.7674
16.7668
16.7656
16.7637
16.7613
16.7584
16.755
16.7512
16.747
16.7424
16.7375
16.7323
16.7267
16.7209
16.7148
16.7084
16.7018
16.6949
16.6878
16.6805
16.673
16.6653
16.6573
16.6492
16.6408
16.6322
16.6232
16.6139
16.6043
16.5942
16.5838
16.5728
16.5612
16.5489
16.5357
16.5215
16.5057
16.4878
16.4668
16.441
16.4077
16.3633
16.2983
-5.29677
-5.30984
-5.34229
-5.39835
-5.47585
-5.57308
-5.68908
-5.8232
-5.97483
-6.14342
-6.32841
-6.52929
-6.74559
-6.97688
-7.22275
-7.48286
-7.75687
-8.04448
-8.3454
-8.65934
-8.98604
-9.32518
-9.67642
-10.0394
-10.4136
-10.7985
-11.1937
-11.5984
-12.012
-12.4337
-12.8627
-13.2982
-13.7391
-14.1846
-14.6336
-15.0851
-15.5377
-15.9904
-16.4418
-16.8905
-17.3351
-17.7738
-18.205
-18.6268
-19.0371
-19.4338
-19.8143
-20.1762
-20.5165
-20.8321
-21.1194
-21.3744
-21.5929
-21.7701
-21.9003
-21.9762
-21.9886
-21.9301
-21.7943
-21.5736
-21.2608
-20.8484
-20.3298
-19.6994
-18.9534
-18.0908
-17.1131
-16.0253
-14.8346
-13.5526
-12.1951
-10.7797
-9.32512
-7.84962
-6.37065
-4.90468
-3.46676
-2.06941
-0.722471
0.566472
1.79191
2.95041
4.04034
5.06143
6.01453
6.90144
7.72457
8.48681
9.19135
9.84152
10.4407
10.9924
11.4998
11.966
12.3942
12.7872
13.1478
13.4783
13.7813
14.0589
14.313
14.5456
14.7584
14.9529
15.1306
15.2927
15.4406
15.5754
15.698
15.8095
15.9107
16.0025
16.0857
16.161
16.229
16.2904
16.3458
16.3956
16.4403
16.4805
16.5163
16.5484
16.5769
16.6023
16.6247
16.6445
16.6618
16.6769
16.69
16.7012
16.7108
16.7188
16.7255
16.7309
16.7351
16.7384
16.7406
16.7421
16.7427
16.7426
16.7419
16.7406
16.7387
16.7363
16.7334
16.7301
16.7264
16.7223
16.7179
16.7132
16.7081
16.7027
16.6971
16.6911
16.6849
16.6784
16.6717
16.6647
16.6576
16.6502
16.6425
16.6345
16.6262
16.6176
16.6086
16.5991
16.5892
16.5786
16.5675
16.5555
16.5426
16.5286
16.513
16.4955
16.4754
16.4515
16.4221
16.3845
16.3354
16.2663
-5.24547
-5.25066
-5.27596
-5.32713
-5.40128
-5.49593
-5.6098
-5.74212
-5.89226
-6.05968
-6.24385
-6.44431
-6.6606
-6.89233
-7.13913
-7.40064
-7.67654
-7.96651
-8.27024
-8.58742
-8.91772
-9.26076
-9.61614
-9.98334
-10.3618
-10.751
-11.1502
-11.5587
-11.9756
-12.4002
-12.8316
-13.269
-13.7113
-14.1576
-14.607
-15.0585
-15.5109
-15.9631
-16.414
-16.8622
-17.3063
-17.7449
-18.1764
-18.5988
-19.0104
-19.4089
-19.7922
-20.1576
-20.5024
-20.8235
-21.1175
-21.3804
-21.6083
-21.7965
-21.9393
-22.0278
-22.0524
-22.0065
-21.8848
-21.6795
-21.3823
-20.9854
-20.4813
-19.8637
-19.1283
-18.2735
-17.3008
-16.2152
-15.0253
-13.7434
-12.3854
-10.9692
-9.51388
-8.03839
-6.56075
-5.09755
-3.6635
-2.27083
-0.929208
0.354076
1.57393
2.72725
3.81263
4.83001
5.78044
6.66576
7.48845
8.25139
8.9577
9.61066
10.2136
10.7697
11.2822
11.7542
12.1886
12.5882
12.9555
13.293
13.603
13.8875
14.1487
14.3881
14.6076
14.8087
14.9928
15.1612
15.3152
15.4557
15.584
15.7009
15.8073
15.9041
15.9921
16.0719
16.1443
16.2098
16.2691
16.3227
16.371
16.4144
16.4535
16.4886
16.52
16.5481
16.5731
16.5954
16.615
16.6324
16.6476
16.6608
16.6723
16.6822
16.6906
16.6976
16.7035
16.7082
16.712
16.7148
16.7168
16.718
16.7185
16.7183
16.7175
16.7162
16.7143
16.712
16.7093
16.7061
16.7026
16.6987
16.6945
16.6899
16.685
16.6798
16.6743
16.6685
16.6624
16.6561
16.6495
16.6426
16.6355
16.628
16.6201
16.6118
16.6031
16.5939
16.584
16.5735
16.5621
16.5498
16.5364
16.5215
16.5047
16.4856
16.4634
16.4368
16.4041
16.3626
16.3094
16.237
-5.11645
-5.11471
-5.13354
-5.18002
-5.25083
-5.34293
-5.4548
-5.58559
-5.73466
-5.90149
-6.08558
-6.2865
-6.50385
-6.73725
-6.98634
-7.25077
-7.5302
-7.8243
-8.13271
-8.45508
-8.79099
-9.13998
-9.50148
-9.87488
-10.2595
-10.6545
-11.0591
-11.4725
-11.8936
-12.3216
-12.7556
-13.1947
-13.638
-14.0845
-14.5335
-14.984
-15.435
-15.8855
-16.3344
-16.7807
-17.223
-17.6599
-18.0899
-18.5114
-18.9225
-19.3212
-19.7053
-20.0723
-20.4195
-20.7439
-21.0422
-21.3106
-21.5452
-21.7415
-21.8933
-21.9898
-22.0217
-21.9844
-21.8726
-21.6781
-21.392
-21.0056
-20.5112
-19.902
-19.1737
-18.3245
-17.3562
-16.2745
-15.0886
-13.8118
-12.46
-11.0517
-9.60584
-8.14153
-6.67671
-5.22769
-3.80864
-2.43127
-1.10478
0.164012
1.37045
2.51178
3.58682
4.59568
5.53946
6.42004
7.2398
8.00153
8.70822
9.36297
9.96892
10.5292
11.0467
11.5245
11.9652
12.3716
12.746
13.0909
13.4084
13.7004
13.9691
14.216
14.4428
14.651
14.8421
15.0173
15.1778
15.3248
15.4592
15.582
15.6941
15.7964
15.8895
15.9744
16.0516
16.1217
16.1853
16.243
16.2952
16.3424
16.3851
16.4235
16.4581
16.4892
16.5171
16.5421
16.5644
16.5842
16.6017
16.6172
16.6308
16.6427
16.653
16.6619
16.6695
16.6759
16.6812
16.6856
16.689
16.6916
16.6934
16.6945
16.6949
16.6947
16.694
16.6928
16.6911
16.689
16.6864
16.6835
16.6801
16.6764
16.6724
16.6679
16.6632
16.6581
16.6528
16.6471
16.6411
16.6349
16.6283
16.6213
16.6139
16.606
16.5976
16.5886
16.5789
16.5684
16.5569
16.5443
16.5303
16.5146
16.4967
16.4761
16.4519
16.4228
16.3871
16.3422
16.2855
16.2102
-4.923
-4.91516
-4.92788
-4.96953
-5.03654
-5.12556
-5.235
-5.36402
-5.51202
-5.67848
-5.86296
-6.06505
-6.28438
-6.52058
-6.77328
-7.04213
-7.32675
-7.62678
-7.94183
-8.27144
-8.6151
-8.97218
-9.34196
-9.7236
-10.1162
-10.5187
-10.9301
-11.3492
-11.7751
-12.2067
-12.6431
-13.0834
-13.5268
-13.9725
-14.4198
-14.8679
-15.316
-15.7632
-16.2087
-16.6514
-17.0902
-17.5238
-17.9508
-18.3697
-18.7785
-19.1755
-19.5584
-19.9249
-20.2723
-20.5976
-20.8974
-21.1683
-21.4065
-21.6076
-21.7639
-21.8622
-21.8953
-21.8615
-21.7544
-21.5648
-21.2834
-20.9013
-20.4104
-19.8043
-19.0787
-18.2326
-17.2684
-16.1924
-15.0147
-13.7491
-12.4118
-11.0212
-9.59614
-8.15512
-6.71552
-5.29291
-3.90063
-2.5496
-1.24831
-0.00298568
1.1822
2.3048
3.36384
4.3595
5.29285
6.16565
6.98013
7.73885
8.44458
9.10018
9.70854
10.2725
10.7949
11.2784
11.7256
12.139
12.5208
12.8733
13.1987
13.4987
13.7752
14.03
14.2646
14.4805
14.679
14.8615
15.0291
15.1828
15.3238
15.453
15.5713
15.6794
15.7783
15.8686
15.9509
16.026
16.0944
16.1566
16.2131
16.2644
16.3109
16.353
16.3911
16.4256
16.4566
16.4846
16.5097
16.5322
16.5523
16.5702
16.5862
16.6003
16.6127
16.6236
16.6331
16.6413
16.6484
16.6544
16.6594
16.6635
16.6667
16.6692
16.6709
16.672
16.6725
16.6725
16.6719
16.6708
16.6693
16.6674
16.665
16.6623
16.6591
16.6555
16.6516
16.6474
16.6427
16.6378
16.6325
16.6269
16.6209
16.6145
16.6076
16.6001
16.5921
16.5834
16.5739
16.5634
16.5519
16.539
16.5246
16.5081
16.4892
16.4672
16.4412
16.4098
16.3713
16.3235
16.2637
16.186
-4.68344
-4.66995
-4.67624
-4.71204
-4.77377
-4.85815
-4.96376
-5.08995
-5.2362
-5.40203
-5.58702
-5.79077
-6.01287
-6.25292
-6.51052
-6.78529
-7.0768
-7.38467
-7.70841
-8.04749
-8.40122
-8.76879
-9.14921
-9.54133
-9.94389
-10.3555
-10.7749
-11.2006
-11.6314
-12.0662
-12.5042
-12.9446
-13.3867
-13.8299