/*--------------------------------*- C++ -*----------------------------------*\
| =========                 |                                                 |
| \\      /  F ield         | foam-extend: Open Source CFD                    |
|  \\    /   O peration     | Version:     4.0                                |
|   \\  /    A nd           | Web:         http://www.foam-extend.org         |
|    \\/     M anipulation  |                                                 |
\*---------------------------------------------------------------------------*/
FoamFile
{
    version     2.0;
    format      ascii;
    class       volScalarField;
    location    "28";
    object      dPhi;
}
// * * * * * * * * * * * * * * * * * * * * * * * * * * * * * * * * * * * * * //

dimensions      [0 -1 0 0 0 0 0];

internalField   nonuniform List<scalar> 
6960
(
1.06337e-15
-1.85187e-16
-5.27977e-16
1.78602e-15
5.35177e-16
5.99135e-16
1.9779e-15
-3.32003e-15
-1.92529e-16
1.59303e-15
-1.81395e-16
7.03538e-16
-1.07993e-15
-1.53387e-15
-1.10132e-15
1.10639e-15
1.98114e-15
1.96761e-15
-2.66309e-16
-7.23552e-16
1.522e-16
1.47278e-15
2.35015e-15
5.64197e-16
9.99819e-16
9.92573e-16
9.86802e-16
-1.23807e-15
2.75571e-15
-1.68662e-15
-1.24235e-15
-2.12964e-15
1.87074e-15
2.76334e-15
3.65674e-15
-1.22045e-15
-3.23802e-16
-3.14749e-16
-7.47491e-16
1.04056e-15
-2.94436e-15
-2.48658e-15
1.07961e-15
-6.83762e-16
2.18391e-16
-2.12957e-16
-2.01966e-16
-1.91573e-16
-1.8446e-16
7.06419e-16
2.0373e-15
-1.92348e-16
2.32323e-16
-1.13054e-15
5.99319e-16
-3.46199e-15
1.78621e-15
8.04493e-16
7.02595e-16
-2.68694e-16
1.19006e-15
4.20414e-15
-2.46328e-15
-1.71218e-15
-1.45125e-15
4.02837e-16
1.84857e-15
-1.43703e-15
2.10419e-15
2.60204e-15
-3.81895e-15
1.61323e-15
-1.4123e-15
-4.55633e-16
4.26612e-15
-1.8993e-15
1.92298e-15
1.41392e-15
1.6316e-17
1.17333e-15
-8.86286e-16
-3.38662e-15
-2.77407e-15
2.95116e-15
2.02065e-15
1.20726e-15
2.06639e-15
2.93234e-15
5.85709e-16
1.68864e-15
2.91056e-15
2.80482e-15
-1.61891e-15
-2.1518e-15
-1.45862e-15
-2.9747e-15
-4.57863e-17
-1.55417e-15
-2.77335e-16
1.00175e-15
-1.38153e-15
2.45946e-15
-4.72803e-16
1.2555e-15
3.76349e-15
4.79306e-17
4.428e-15
1.69698e-15
2.28003e-15
-4.48642e-15
-3.61454e-15
1.43873e-15
-3.1037e-15
-1.14836e-15
-2.03898e-15
-1.00849e-15
-3.26581e-15
3.13025e-16
-3.01377e-15
1.19081e-15
-1.81926e-15
4.83171e-16
-2.10638e-15
-1.70215e-16
-3.64927e-15
1.45429e-15
-5.83632e-15
-9.96011e-16
-1.33509e-15
-1.79322e-15
1.1908e-15
-2.20317e-15
4.72973e-15
-1.22111e-15
-3.24489e-15
1.00134e-15
9.25869e-16
-1.21217e-15
1.69808e-15
-1.99451e-15
1.23986e-16
1.94977e-15
8.49801e-16
1.24232e-15
-1.14638e-15
4.85972e-16
-5.79179e-15
1.30823e-15
-2.91543e-15
3.0782e-15
-1.83257e-15
4.99096e-15
-1.79844e-15
4.1189e-15
-3.87563e-15
-8.39132e-16
-2.25295e-15
2.45564e-15
3.6568e-17
-2.6774e-15
1.19339e-15
-2.40781e-15
-1.51556e-15
-7.43456e-16
-4.49234e-15
6.98333e-16
-5.99905e-15
-1.4023e-15
-6.74665e-16
3.93464e-15
1.78922e-15
-2.2768e-15
8.0417e-16
6.01731e-15
3.62123e-15
-2.84826e-15
7.47743e-16
5.38985e-15
1.78341e-15
-1.62273e-15
7.85377e-16
3.15236e-15
-1.2937e-15
1.49028e-16
-7.53333e-15
4.28771e-15
3.4796e-16
1.36107e-15
-8.7723e-16
-1.28243e-15
4.16944e-16
4.17652e-16
1.34249e-15
-6.96357e-15
7.11052e-16
2.62123e-16
1.5411e-15
-8.39815e-16
-3.49936e-16
2.61748e-15
2.57792e-15
2.64075e-16
-2.67249e-15
-5.56226e-15
4.88022e-15
2.98916e-15
5.91568e-15
8.08598e-16
6.08749e-15
1.77628e-15
5.97282e-15
-2.01422e-15
-4.36241e-15
2.3406e-15
1.17403e-15
1.19407e-15
2.99179e-15
-6.99035e-16
3.46127e-15
-1.78457e-16
5.80235e-16
-4.45246e-15
-4.04304e-16
-4.72886e-15
1.04459e-15
-2.78082e-15
4.97416e-15
-1.8024e-15
-2.07496e-15
3.32031e-15
-5.14889e-15
-9.55018e-16
6.83192e-15
-7.3903e-15
4.68187e-15
2.96848e-16
8.76316e-16
2.48727e-15
1.12828e-15
-2.76975e-16
-3.60736e-15
5.5207e-15
-4.53863e-16
1.46275e-15
2.75353e-15
5.95954e-15
-7.50725e-15
-3.31802e-15
-2.25335e-15
-3.66133e-15
3.45208e-15
-2.24912e-15
-1.21144e-15
6.96126e-15
9.1762e-15
1.19857e-15
-3.3873e-15
9.1057e-15
-1.02585e-14
6.68485e-15
1.55125e-15
1.08434e-15
-7.40684e-15
2.2379e-15
7.14442e-16
2.0123e-15
2.85157e-16
-4.53272e-16
-1.49433e-15
-3.98023e-15
-4.11805e-15
-3.5226e-15
6.72236e-15
-2.2121e-15
8.25499e-15
1.21087e-14
4.76422e-15
-2.24679e-15
-8.53248e-15
-2.93082e-15
-3.69829e-15
6.90881e-15
3.63141e-16
-6.69783e-16
-1.03526e-15
7.66812e-16
1.44882e-16
-5.72391e-16
-2.80348e-15
-6.33391e-15
4.63853e-15
7.08746e-15
-7.26114e-15
9.79964e-15
-2.74044e-15
-4.964e-15
-6.77905e-15
-1.24272e-14
-4.19798e-15
-2.41062e-15
-3.57755e-15
4.70824e-16
-2.12014e-15
9.52817e-15
-2.61329e-15
5.09308e-15
-5.13853e-15
2.87088e-15
4.53251e-15
4.82269e-15
-1.47657e-15
-1.47439e-14
-3.80036e-15
-3.70268e-15
-4.74662e-15
-2.86224e-15
4.20633e-15
6.02394e-15
7.27969e-15
-9.52285e-15
-3.3992e-15
3.34824e-15
1.5152e-15
6.33669e-16
-1.41413e-15
-2.88145e-15
-2.499e-15
1.18125e-14
-4.67661e-16
-2.97956e-15
4.59648e-15
6.95882e-15
-1.63681e-15
1.05025e-14
-1.58965e-15
-1.22222e-15
-4.40653e-15
-3.42465e-15
1.45309e-14
-5.26172e-15
3.66146e-15
7.26287e-15
-7.13224e-17
6.27462e-15
1.20537e-14
-2.45937e-15
-3.97928e-15
-8.04913e-15
4.43327e-15
4.89508e-15
1.57401e-15
-9.58213e-15
7.17579e-15
-1.21192e-14
-8.25714e-15
2.07799e-16
5.08468e-16
7.91866e-15
7.48951e-15
2.11777e-15
-6.93821e-15
4.03463e-15
5.30127e-15
-1.4058e-14
-3.23758e-15
9.2034e-15
8.8648e-15
1.69628e-15
3.30928e-15
3.92344e-15
6.6242e-15
1.37016e-14
1.11318e-14
-8.58015e-15
-7.63235e-16
-1.56389e-15
3.47736e-15
-3.24716e-15
5.01667e-15
6.66694e-15
5.14511e-15
5.77368e-15
2.2969e-15
-1.16858e-14
1.18088e-14
7.84412e-15
2.97581e-15
-1.45983e-14
3.47668e-15
-8.63834e-15
8.11174e-15
-2.15193e-15
-5.19113e-15
-6.56788e-15
3.10147e-15
-2.191e-15
7.90504e-15
3.61718e-15
-1.45835e-14
-4.69301e-15
-2.73413e-15
-9.62157e-17
-1.69572e-14
-1.77999e-16
1.22037e-15
5.15095e-15
4.57191e-16
4.07162e-15
-9.90593e-16
-6.21532e-16
-8.26179e-15
1.63481e-14
-1.47193e-14
-3.3932e-15
4.75284e-15
1.29909e-14
4.08947e-16
-3.65948e-15
-1.16132e-14
6.71578e-15
1.40371e-14
-1.29561e-14
4.36425e-15
1.47875e-14
1.3625e-14
-1.49948e-14
-8.74855e-15
-1.24381e-14
3.67808e-16
-5.05316e-15
3.17926e-16
-6.89481e-15
-2.17241e-14
5.27574e-15
1.11117e-14
-1.04261e-15
-9.69925e-15
8.13817e-15
-1.90823e-14
7.75632e-15
-2.64234e-14
-5.2786e-15
-2.37062e-15
5.42132e-15
-7.83778e-15
-1.09892e-14
-1.10189e-14
1.17003e-14
-1.98674e-14
9.6891e-15
-1.12389e-14
-3.19889e-15
-5.27742e-15
-5.9541e-15
-7.49075e-15
-1.1555e-14
-8.95576e-15
1.85795e-16
3.46211e-15
7.90712e-15
-6.32261e-16
-1.03637e-14
1.45534e-14
-7.1581e-15
-4.52736e-15
1.32698e-14
-8.86819e-16
3.85702e-15
3.65236e-15
-4.32404e-15
1.4549e-15
-1.6012e-14
8.04937e-15
5.07038e-15
1.11582e-16
-1.84179e-14
3.69907e-15
5.13976e-15
8.73039e-15
1.52736e-15
-1.89539e-14
1.81752e-14
-4.10008e-15
-9.79198e-15
-2.03866e-14
5.06881e-15
1.5842e-14
2.59542e-14
6.30574e-15
1.63446e-14
3.3864e-15
7.88366e-15
2.31746e-14
-2.19553e-16
-1.26154e-14
9.37458e-15
-6.89607e-16
-4.37766e-15
2.56409e-14
-6.23739e-15
2.14782e-14
7.29481e-15
-2.21839e-15
-1.80595e-15
-1.90071e-15
3.0804e-15
-4.68087e-15
-1.60845e-14
1.33779e-14
-7.72888e-15
8.77854e-15
-2.74633e-15
8.65101e-15
1.77029e-15
1.20671e-14
-4.78171e-15
8.83148e-15
-8.9577e-15
-8.47835e-15
-1.44411e-14
-1.61813e-15
2.18056e-14
2.22403e-15
8.97726e-15
-6.10442e-15
-2.03874e-14
-5.71368e-15
-3.80497e-15
1.28798e-14
-1.1284e-14
2.31298e-15
1.24635e-14
6.88979e-15
6.65372e-15
-3.26832e-15
8.31568e-15
-7.8946e-16
-1.05619e-14
-6.55372e-15
-9.44077e-15
1.01891e-14
-2.11536e-14
1.45725e-14
-9.49658e-15
6.09393e-15
-4.22522e-15
-1.56071e-14
-1.31972e-14
-8.56328e-15
7.22794e-15
1.02934e-14
-3.34375e-15
-7.82615e-15
-1.13808e-14
2.474e-14
-3.57934e-15
-1.91189e-14
-1.39668e-14
-1.93237e-14
-2.79599e-15
-1.02054e-14
-1.0746e-15
1.52564e-16
9.06066e-15
-1.65967e-16
1.55079e-15
-5.99869e-15
1.29571e-14
4.06817e-15
1.22883e-14
1.19958e-15
4.07844e-15
-1.19872e-14
9.53383e-16
-2.60009e-15
1.22272e-14
-1.1509e-14
1.20913e-14
1.204e-14
6.30169e-15
-5.22941e-15
-6.92929e-15
-4.24784e-15
-1.22309e-14
-4.08424e-15
1.59509e-14
1.65209e-14
3.42458e-16
-1.32527e-15
6.17171e-15
-2.4619e-15
-1.63593e-14
4.70959e-15
-1.45878e-14
7.11312e-15
2.48386e-15
8.66216e-15
9.16375e-15
1.83755e-15
2.37079e-14
-8.41786e-16
-8.4445e-15
-1.21268e-14
1.79476e-14
-1.54489e-15
1.20835e-14
7.21927e-16
-1.93309e-15
-7.02645e-15
-8.55134e-15
-6.10568e-15
-1.09524e-14
-1.16381e-15
-1.05146e-14
-1.21185e-14
3.32723e-16
1.5116e-14
-6.30917e-15
-5.44859e-15
1.85114e-14
-3.1699e-15
5.60629e-15
-5.76322e-15
4.93019e-15
-4.29341e-15
4.45637e-15
2.47021e-16
-1.14665e-14
3.97881e-15
-8.43826e-15
-1.39512e-14
-2.05331e-15
-4.99381e-15
-1.24726e-14
-1.19528e-14
-1.39943e-15
1.34626e-14
-1.05986e-14
3.83496e-15
3.57059e-15
-3.57332e-15
-1.17679e-14
2.87016e-16
2.70745e-14
-6.64277e-17
3.05669e-15
5.24309e-16
-3.03165e-15
3.75818e-15
-8.17172e-15
2.91411e-16
7.6241e-15
-1.37256e-16
1.75494e-14
-6.03637e-15
8.60786e-16
-4.1474e-15
-1.15886e-14
7.90376e-15
-8.02379e-15
3.13745e-15
2.37409e-14
1.87613e-15
-6.8844e-16
-6.40296e-15
-2.22051e-15
1.96344e-14
-6.83543e-17
8.9491e-15
-2.5829e-15
-1.20742e-14
2.01728e-14
8.32342e-15
1.70204e-14
1.44822e-14
-2.24419e-15
-1.4814e-14
-2.56779e-15
1.56387e-14
-9.52508e-15
1.78885e-14
3.85519e-15
-6.54052e-15
-1.03926e-14
-1.54694e-15
-4.32695e-15
-3.05924e-15
6.51332e-15
-1.97197e-14
2.70324e-14
-7.40958e-15
2.45708e-15
-5.07848e-16
2.09099e-14
-1.24643e-14
-5.16433e-15
5.04212e-15
3.86113e-15
-3.07316e-15
9.73907e-15
7.9282e-15
1.08452e-14
1.30391e-14
-1.52872e-14
1.34244e-15
-5.22115e-15
4.17254e-15
-3.62847e-16
-6.8065e-15
1.28151e-14
1.74233e-14
-5.96758e-15
-5.46077e-15
2.46486e-15
-5.71535e-15
-2.06646e-14
-2.41109e-15
-1.55174e-14
4.689e-15
1.21962e-14
2.60844e-15
-1.3092e-14
2.55873e-15
-2.16091e-14
7.31364e-15
-8.86853e-15
-3.1038e-14
1.88664e-14
1.44621e-14
1.62574e-14
1.69918e-15
-1.46573e-15
-6.47671e-15
-3.52442e-15
-1.10817e-14
-8.44672e-16
-9.41138e-18
1.00084e-14
-1.73502e-14
-1.32867e-14
-1.46998e-14
1.83393e-15
1.11351e-15
1.20851e-15
1.83305e-14
8.51425e-15
1.39038e-15
-9.02442e-16
2.41717e-14
-8.27627e-15
8.69208e-15
-9.63246e-15
7.23542e-15
-2.17552e-14
1.01608e-14
6.61337e-15
-1.53248e-14
1.15283e-14
-1.69709e-14
4.70378e-15
1.85934e-15
-2.4958e-14
-1.70569e-14
1.22586e-14
-8.52032e-15
1.1436e-15
8.74424e-16
6.74371e-15
1.94019e-16
-1.08462e-14
-3.14932e-14
3.69298e-15
7.76478e-16
-2.6012e-14
1.14394e-14
-4.08761e-15
-1.28413e-14
4.97927e-15
-7.88371e-15
-1.63494e-14
-1.85139e-15
1.3722e-14
2.32876e-14
1.57055e-14
-2.58047e-15
8.98902e-15
2.83714e-14
-1.22192e-14
-2.92951e-14
6.95011e-15
4.09356e-15
1.12376e-14
6.82376e-15
-1.92377e-14
1.88927e-15
2.32329e-14
-1.33202e-15
2.12207e-14
-4.98595e-15
2.42806e-14
8.79078e-16
-1.32812e-14
6.18869e-15
-2.29707e-15
-2.59171e-14
-3.71568e-15
-1.44671e-14
8.46765e-15
-8.51652e-15
-1.70033e-14
1.08098e-14
1.06432e-14
1.24819e-14
2.7548e-14
2.6407e-14
-8.88834e-15
9.3721e-15
-1.0663e-14
2.63411e-14
-4.32464e-15
-8.53468e-15
1.3746e-14
4.8892e-15
-1.80714e-14
4.95205e-15
1.37586e-14
-7.63078e-16
6.71995e-15
3.43172e-14
1.4953e-14
3.21062e-14
-1.20707e-14
-1.40464e-15
2.83276e-14
6.6168e-15
1.65374e-14
-2.4559e-15
-1.52361e-14
1.10907e-14
1.86585e-14
1.35391e-14
-1.58566e-14
-2.1254e-14
-1.13122e-14
3.17885e-15
9.82524e-16
-1.08801e-14
2.69212e-15
1.76856e-14
-3.7403e-15
-2.50331e-15
-1.62358e-14
-1.92471e-14
1.81674e-14
1.77754e-14
-9.95204e-15
-1.66495e-14
-6.8921e-15
1.27083e-14
6.28078e-16
-9.24511e-15
1.74221e-14
-3.65463e-15
1.8954e-14
3.31827e-15
-2.67136e-14
-1.11062e-15
-2.19492e-14
1.46674e-14
1.07664e-14
-1.16997e-14
9.69408e-15
-2.05495e-14
8.32721e-16
-1.89371e-14
-1.47248e-15
-4.9256e-16
-3.22296e-15
-1.60939e-14
-1.25027e-14
8.14567e-15
-8.81131e-16
-4.87157e-15
6.31883e-15
-1.02997e-14
-2.88677e-14
6.89383e-16
-2.2875e-15
-2.53017e-14
-9.52041e-15
-1.23431e-14
7.32072e-15
2.81607e-15
9.12158e-15
-9.89898e-15
-1.11638e-14
4.40607e-15
6.97501e-15
-9.35311e-15
-5.4519e-15
-5.78919e-15
4.11359e-15
1.51683e-14
8.92617e-15
2.55276e-14
-1.98675e-14
-1.54571e-14
-1.56402e-14
-1.91387e-14
-1.60047e-14
1.26548e-15
2.06207e-15
1.7864e-14
-1.04801e-14
-2.63778e-14
1.37488e-14
1.94618e-14
-1.76984e-15
1.46925e-14
-1.28946e-14
1.80102e-14
-7.13568e-15
-1.20898e-15
-5.31922e-15
2.10214e-14
3.04094e-14
3.01884e-14
2.37869e-14
-2.19852e-14
-2.98274e-14
-1.79244e-14
-9.20458e-15
6.53611e-16
-1.1645e-14
7.56203e-15
-2.64044e-15
-2.64305e-15
1.56531e-14
-1.18912e-14
1.62906e-14
-6.92634e-15
8.01723e-15
1.27409e-14
-6.6467e-15
1.37732e-14
1.40443e-14
-1.38169e-14
1.38333e-14
2.47208e-14
-9.63552e-15
3.62994e-15
-1.51276e-15
-1.33267e-14
-1.95363e-14
-1.94557e-15
9.51549e-15
1.29854e-14
3.52755e-15
-2.43513e-15
-4.40258e-15
1.2774e-14
-4.80898e-16
-2.59615e-14
-1.42367e-14
-3.08563e-14
1.65847e-14
2.50925e-14
1.23646e-14
-8.94949e-15
3.47122e-14
-1.1208e-14
-5.16389e-15
-1.42427e-14
3.77492e-15
-1.15267e-15
9.57806e-15
6.52527e-15
-3.00319e-15
-3.79315e-14
1.10404e-14
-3.07481e-14
1.40615e-14
1.39843e-14
-1.11499e-15
-1.71593e-14
-1.77578e-14
-4.48019e-15
-2.78366e-14
-7.17872e-15
3.35806e-14
3.59375e-14
-2.79334e-14
9.01726e-15
1.87814e-14
-3.259e-15
2.44377e-14
-1.48357e-15
-3.22158e-14
1.25725e-14
-1.31205e-15
-1.26225e-14
-1.94619e-14
4.82524e-15
-1.13048e-14
5.33427e-16
-1.91091e-16
4.11783e-14
-2.05567e-14
-2.75147e-14
6.41896e-15
5.30234e-15
5.40637e-16
1.84064e-14
1.03893e-14
-1.45011e-14
-1.4153e-14
-3.40921e-14
3.80165e-15
2.83497e-15
7.06206e-15
3.08184e-15
-1.29944e-14
3.33605e-14
-1.87372e-15
1.40205e-14
-9.57383e-15
-3.95899e-14
1.43353e-15
-1.27859e-14
2.09794e-14
5.19192e-15
1.96076e-14
-1.13069e-14
2.81356e-14
2.64582e-14
-7.28606e-15
-1.65612e-15
2.78618e-14
1.28424e-14
-1.10811e-14
1.28799e-14
-1.64583e-14
-1.52128e-14
2.6177e-15
8.74995e-15
7.59961e-15
-6.71913e-15
4.67269e-15
2.04354e-14
-3.44964e-14
-1.36592e-14
-8.08837e-15
-7.4695e-15
1.05642e-14
-7.28584e-17
-2.12282e-14
3.54187e-15
1.77563e-14
-1.12806e-14
1.61673e-14
5.88386e-15
2.54083e-14
-8.95529e-15
1.46003e-14
-2.51938e-14
1.64246e-15
-1.69383e-14
1.28586e-16
6.23882e-15
2.25065e-14
-1.29974e-14
2.22148e-14
-1.46107e-14
-2.68498e-14
7.69068e-15
2.12214e-14
1.52193e-14
-5.54537e-15
7.9884e-15
2.78382e-14
-1.08095e-15
-1.10814e-14
-3.22069e-14
1.73832e-14
-6.79708e-15
-4.12561e-15
2.63949e-14
1.80266e-14
2.4529e-15
-1.00991e-14
5.05173e-15
-1.82914e-14
6.37533e-15
-1.19091e-14
-2.46695e-14
-2.09381e-15
2.06432e-15
-3.6414e-15
-2.33208e-14
4.6612e-15
-1.35287e-15
-5.20634e-15
-1.11766e-14
1.31479e-14
1.14173e-14
-2.04296e-14
1.3376e-14
-7.35588e-15
-1.51073e-15
9.04441e-15
2.81262e-14
8.58254e-16
-5.49452e-15
-9.58999e-15
-9.93997e-15
2.70218e-14
8.60813e-15
-1.46608e-14
-4.1642e-15
-1.18093e-14
3.7032e-15
-2.19781e-14
1.69456e-14
-1.85013e-14
3.49117e-14
1.25633e-14
-1.17031e-14
2.60209e-16
3.96861e-15
-6.64811e-15
2.52526e-14
-7.8184e-15
1.32199e-14
-3.38488e-16
-3.8755e-14
1.25182e-15
2.35055e-15
-1.83176e-14
2.28637e-15
-1.45253e-14
1.3994e-14
-2.55638e-14
3.76435e-15
-5.73465e-14
-7.4411e-15
-1.00744e-14
-2.43668e-14
1.56637e-14
1.10068e-14
2.62811e-15
-9.62078e-15
5.07467e-14
2.825e-15
-9.14286e-15
-1.5596e-14
1.0358e-14
-9.22266e-15
-4.68982e-15
-8.4403e-15
-2.13085e-14
-9.2773e-15
-3.37664e-15
3.28383e-15
-1.50947e-14
-2.38707e-14
2.17491e-14
-7.0239e-15
1.39697e-14
-1.30191e-15
-1.62275e-14
-2.15505e-14
-2.41872e-14
2.90479e-14
1.4563e-15
2.39713e-14
-2.96291e-15
9.30159e-15
-1.69335e-14
1.67505e-14
-1.81218e-14
1.7185e-14
1.34242e-14
2.63114e-14
1.8709e-14
1.72189e-14
-2.08635e-14
8.79505e-15
2.48569e-14
-6.50261e-15
-8.26162e-15
-4.28251e-14
-8.10203e-15
-2.64632e-14
-6.53817e-15
4.49129e-14
-1.72952e-15
-1.23599e-14
-7.33788e-15
2.86229e-15
3.34628e-15
-3.30205e-14
-1.54963e-14
1.77514e-14
8.18443e-15
-1.1784e-14
-8.18616e-15
2.37553e-14
-7.018e-14
4.92835e-15
-2.01228e-14
-2.39912e-15
-5.91298e-14
2.23085e-15
1.98556e-14
2.03917e-14
3.46147e-14
2.20692e-14
1.8284e-14
2.47025e-14
3.1173e-15
-6.88685e-15
1.0672e-14
3.32026e-15
3.48974e-14
3.67848e-14
-2.59428e-14
-2.01488e-14
-3.10845e-14
1.60583e-14
2.06623e-14
2.27231e-14
1.23512e-15
-7.78717e-15
-6.81226e-15
-3.90191e-14
8.85403e-15
-3.41394e-14
-2.73913e-15
-1.08108e-14
3.50414e-16
-3.66408e-14
-5.49907e-15
-3.27013e-14
-4.15258e-14
-7.67442e-15
-2.38871e-15
2.2253e-14
-3.68976e-15
-3.38167e-14
-6.88685e-16
1.181e-14
-2.29677e-15
1.38466e-14
1.56802e-14
-2.13232e-14
-1.28803e-14
1.19817e-14
4.07712e-14
-1.06269e-14
-4.21364e-15
2.27318e-14
2.49627e-14
-2.33147e-15
1.00094e-14
1.34961e-15
-1.79474e-14
1.05471e-14
3.06942e-14
-1.181e-14
1.47451e-14
-1.045e-14
3.57596e-14
-1.92797e-14
1.80758e-14
-3.8726e-14
-7.54952e-15
-3.1853e-14
-1.34649e-14
-2.89768e-14
-1.80654e-14
-1.69378e-14
8.11851e-16
-8.32667e-15
-2.62533e-14
-4.33681e-15
4.54844e-14
1.40513e-15
1.56576e-14
9.17322e-15
1.99493e-14
2.35575e-15
3.2252e-14
-1.97307e-14
1.24692e-14
1.63237e-14
-2.44423e-14
4.21052e-14
4.48842e-14
-1.60739e-14
1.21535e-14
2.67494e-14
1.66117e-14
4.24868e-14
2.28879e-14
-4.68375e-16
7.80626e-16
-4.86139e-14
6.50521e-15
3.39902e-14
-1.89085e-14
3.26753e-14
-5.33601e-15
2.47163e-14
-2.51431e-14
-3.01495e-14
1.69517e-14
-1.03841e-14
-3.34871e-14
6.71511e-14
1.34719e-14
7.91034e-15
-1.20667e-14
-1.96648e-14
1.58762e-14
-8.6528e-15
3.3043e-14
-8.31973e-15
1.05957e-14
1.99771e-14
2.09277e-14
8.93036e-15
2.61319e-14
-1.90126e-15
-1.92693e-14
4.962e-14
-9.56873e-15
4.37012e-14
-5.30131e-15
1.94914e-14
2.25167e-14
3.07254e-14
-2.34188e-14
-3.88578e-15
2.48412e-14
-4.14321e-14
-4.22717e-14
8.6875e-15
-6.45317e-15
-1.50852e-14
1.16851e-14
-3.32373e-15
-4.59494e-14
2.08861e-14
-1.8173e-14
-1.8735e-15
2.19269e-14
-4.53249e-14
-3.88925e-14
1.94358e-14
-1.09149e-14
-3.60059e-14
1.66533e-16
-4.32016e-14
1.07969e-14
1.84575e-15
8.32667e-15
3.43753e-14
1.62509e-14
6.59195e-15
5.25066e-14
-3.12597e-14
1.99979e-14
-2.62984e-15
-1.82562e-14
3.95656e-14
-2.23849e-14
-2.90115e-14
1.06165e-14
-7.96516e-14
-4.62339e-14
-2.76168e-15
2.13024e-14
-2.0775e-14
2.01228e-15
2.47025e-15
-1.50019e-14
-1.14075e-14
-1.62509e-14
1.58207e-14
-1.045e-14
6.8695e-15
-3.48332e-14
-1.4877e-14
1.39888e-14
-3.39451e-14
1.249e-14
-5.14033e-14
1.48354e-14
-2.14828e-14
2.60902e-15
-2.90601e-14
3.2474e-15
-1.70142e-14
-1.88738e-14
5.5525e-14
2.9865e-14
-1.46549e-14
1.19627e-14
-1.19488e-14
-1.54876e-14
6.3699e-15
6.36297e-14
-1.30174e-14
-1.76248e-15
-3.55271e-15
6.16174e-15
-7.31359e-15
2.65898e-14
-1.0672e-14
-6.38378e-16
1.78468e-14
-5.16254e-15
7.53841e-14
8.28504e-15
-2.84772e-14
7.71605e-15
-1.10606e-14
-2.35922e-14
1.12549e-14
7.49401e-15
-3.27516e-15
2.70617e-15
-1.32533e-14
4.5311e-14
-3.51108e-14
3.0656e-14
4.75869e-14
1.93734e-14
3.79141e-14
3.60129e-14
-2.38282e-14
-3.90937e-14
3.05589e-14
5.20417e-15
-2.55351e-15
1.42941e-14
-1.32117e-14
3.70259e-14
-7.38298e-15
-2.40086e-15
-8.57647e-15
2.73115e-14
4.07591e-14
-4.7462e-15
2.99344e-14
-5.03764e-15
3.747e-16
-2.53825e-14
1.90403e-14
-4.34375e-15
-8.54872e-15
5.63716e-14
2.40363e-14
-2.26485e-14
-1.48076e-14
-1.56264e-14
-1.4419e-14
-2.40363e-14
8.99281e-15
3.02119e-14
3.33067e-15
-2.9074e-14
-3.58047e-15
1.20459e-14
4.13558e-15
4.71845e-15
9.35363e-15
-2.94903e-14
1.92069e-14
-1.35447e-14
-2.74919e-14
-1.11022e-16
-4.37844e-14
-2.86854e-14
3.03507e-14
-4.04954e-14
1.14492e-14
-2.47025e-15
-1.2601e-14
8.04912e-15
7.38298e-15
-1.08941e-14
1.78607e-14
-3.03091e-14
1.07414e-14
1.49464e-14
-4.36734e-14
-2.28012e-14
8.18789e-15
-3.14054e-14
3.67206e-14
2.72005e-14
-9.6867e-15
-1.22125e-14
2.12608e-14
1.47105e-15
1.60427e-14
-5.16254e-14
-8.60423e-15
-2.43972e-14
1.33782e-14
-1.91513e-15
-2.70894e-14
-2.96985e-14
-3.33067e-15
-2.74503e-14
1.13243e-14
-5.57887e-15
-3.35287e-14
-3.00038e-14
3.38896e-14
-3.8608e-14
-1.09357e-14
3.90243e-14
-4.79061e-14
-1.94289e-15
2.40086e-14
-2.07057e-14
-9.02056e-15
-1.86517e-14
-3.35842e-14
-3.73035e-14
3.11418e-14
-1.36002e-15
-6.91114e-15
-2.498e-16
-1.37668e-14
1.86795e-14
-3.44169e-14
1.76248e-14
8.13238e-15
1.54876e-14
1.06026e-14
4.48253e-14
-7.18869e-15
3.77476e-14
-3.0087e-14
1.03806e-14
-2.13718e-15
-2.35645e-14
5.27356e-15
-2.69229e-15
-3.31124e-14
1.47937e-14
-8.71525e-15
-3.56937e-14
-1.80411e-14
-9.49241e-15
-1.15741e-14
5.27356e-15
-3.29181e-14
-8.49321e-15
2.62013e-14
3.27516e-14
-2.50355e-14
-1.27676e-14
1.62648e-14
9.27036e-15
5.7454e-14
3.03646e-14
1.65978e-14
9.38138e-15
7.38298e-15
1.24345e-14
-1.2268e-14
1.55986e-14
-1.66533e-14
1.18239e-14
1.60982e-14
4.21885e-14
-2.39808e-14
3.16414e-15
1.7486e-14
-4.9627e-14
9.76996e-15
2.18159e-14
-4.18554e-14
1.25455e-14
1.53211e-14
2.36478e-14
3.23075e-14
6.7002e-14
-3.69149e-14
1.48215e-14
1.85962e-14
-2.498e-15
1.44329e-15
9.04832e-15
2.69784e-14
-2.98095e-14
-3.16414e-15
3.9968e-15
3.68039e-14
-3.06422e-14
-3.33067e-15
-1.34892e-14
-3.77476e-15
-2.44249e-15
-3.32512e-14
1.85407e-14
-2.17049e-14
-1.55431e-15
2.49245e-14
-1.25455e-14
2.60902e-14
3.14748e-14
-9.27036e-15
1.82632e-14
-1.36002e-14
1.53211e-14
4.996e-16
-2.94209e-15
-7.32747e-15
-2.47025e-14
6.60583e-15
1.99285e-14
-1.32117e-14
-9.99201e-15
-2.58682e-14
-1.29896e-14
-6.4948e-15
4.996e-16
1.37113e-14
2.94209e-15
5.82867e-15
1.77636e-14
4.20775e-14
1.2601e-14
-1.79301e-14
-6.21725e-15
3.07532e-14
1.88183e-14
-9.4369e-15
4.39093e-14
2.55351e-14
-1.20459e-14
1.67644e-14
1.60982e-15
-3.09197e-14
-1.57097e-14
-3.9968e-15
-4.38538e-14
-1.18239e-14
1.60982e-15
-1.11022e-14
-6.88338e-15
1.44329e-15
-4.4964e-14
9.10383e-15
3.57492e-14
7.49401e-15
-1.26565e-14
-5.95635e-14
2.45359e-14
1.72085e-15
1.7375e-14
2.39808e-14
-2.15938e-14
-5.32907e-15
-4.55191e-15
1.33227e-15
-6.66134e-15
-1.12688e-14
3.40283e-14
-1.96509e-14
-3.10862e-15
3.26406e-14
-3.13638e-14
6.4948e-15
2.7256e-14
-3.66929e-14
1.24345e-14
6.77236e-15
-6.66134e-15
9.49241e-15
-1.58207e-14
5.38458e-15
1.95399e-14
1.08802e-14
-7.77156e-16
1.2268e-14
-1.01585e-14
-1.39888e-14
-1.42664e-14
-2.32037e-14
-4.10783e-14
-3.08642e-14
-2.06501e-14
1.18794e-14
2.19269e-14
-2.80886e-14
-8.71525e-15
7.54952e-15
-2.55906e-14
-1.54321e-14
-5.88418e-15
-1.22125e-14
-1.07692e-14
1.18794e-14
3.4972e-15
-3.26961e-14
3.89133e-14
2.58127e-14
-1.05471e-15
4.44089e-15
1.39333e-14
6.16174e-15
3.44724e-14
-1.02141e-14
-1.63758e-14
1.55986e-14
-9.99201e-16
6.03406e-14
-1.81521e-14
-1.04916e-14
-1.68754e-14
-9.21485e-15
-3.9968e-15
-4.4964e-15
-9.65894e-15
-3.16969e-14
-3.71925e-15
3.44169e-14
-1.08802e-14
1.31006e-14
-1.07137e-14
-1.53211e-14
4.37428e-14
4.88498e-15
-3.96905e-14
4.21885e-14
-2.07612e-14
-8.32667e-15
2.9754e-14
4.21885e-15
2.15383e-14
-1.33227e-15
-9.99201e-16
-3.10862e-15
-1.12133e-14
-5.55112e-15
-1.87628e-14
2.69784e-14
1.12133e-14
2.32037e-14
1.9873e-14
1.57652e-14
2.10942e-15
7.88258e-15
-2.89768e-14
1.32117e-14
1.11022e-15
1.9984e-15
-9.99201e-16
2.60902e-14
1.54321e-14
4.996e-15
2.79776e-14
1.05471e-14
-2.24265e-14
2.93099e-14
-1.75415e-14
-1.69864e-14
-3.9968e-15
1.25455e-14
-2.53131e-14
-3.24185e-14
1.38778e-14
-3.10862e-15
6.43929e-15
-6.01741e-14
2.73115e-14
-6.43929e-15
1.79856e-14
2.08722e-14
-1.0103e-14
-3.31957e-14
-9.21485e-15
2.74225e-14
3.26406e-14
1.87628e-14
-1.11022e-14
-2.27596e-14
-2.43139e-14
-4.44089e-15
1.25455e-14
-5.55112e-16
-2.68674e-14
1.54321e-14
1.45439e-14
-2.4647e-14
7.99361e-15
-3.88578e-15
-1.43219e-14
-1.15463e-14
-6.88338e-15
-3.66374e-15
1.21014e-14
2.9976e-15
8.10463e-15
8.65974e-15
3.14193e-14
-3.66374e-15
-2.09832e-14
4.21885e-15
-1.66533e-14
7.77156e-16
1.03251e-14
1.78746e-14
1.77636e-15
2.90878e-14
-3.77476e-15
1.0103e-14
7.88258e-15
5.77316e-15
3.77476e-15
-4.996e-15
-1.74305e-14
-1.12133e-14
4.90719e-14
-1.35447e-14
-9.4369e-15
-3.44169e-15
-1.74305e-14
-2.36478e-14
2.36478e-14
1.66533e-14
-1.74305e-14
-6.10623e-15
-5.21805e-15
5.39568e-14
-3.05311e-14
-1.70974e-14
-1.32117e-14
-1.07692e-14
2.60902e-14
3.25295e-14
-8.88178e-16
-3.87468e-14
-1.59872e-14
1.82077e-14
-3.44169e-15
8.10463e-15
-4.21885e-15
-2.77556e-15
1.44329e-15
-2.04281e-14
2.59792e-14
-1.34337e-14
-9.54792e-15
-5.55112e-15
-1.15463e-14
9.32587e-15
-5.32907e-15
-5.55112e-16
-1.88738e-14
7.10543e-15
-1.5099e-14
-9.88098e-15
-9.65894e-15
-1.88738e-15
-3.37508e-14
-1.70974e-14
3.88578e-14
-2.81997e-14
2.20934e-14
1.44329e-15
-9.32587e-15
-2.10942e-15
2.63123e-14
-4.31877e-14
1.27676e-14
1.13243e-14
-6.66134e-15
-3.10862e-15
2.53131e-14
1.69864e-14
1.69864e-14
-1.88738e-15
-5.04041e-14
-3.66374e-15
2.39808e-14
1.90958e-14
2.54241e-14
-5.66214e-15
9.4369e-15
-2.22045e-15
0
1.19904e-14
1.80966e-14
-1.87628e-14
3.01981e-14
2.77556e-14
1.19904e-14
-2.44249e-15
-5.55112e-16
1.11022e-15
-1.34337e-14
2.68674e-14
-3.33067e-15
-3.4639e-14
2.04281e-14
-7.88258e-15
1.08802e-14
1.29896e-14
-7.66054e-15
5.55112e-15
-3.10862e-15
2.9976e-15
2.79776e-14
1.9984e-14
1.59872e-14
-9.76996e-15
1.62093e-14
3.57492e-14
2.70894e-14
-7.77156e-15
2.26485e-14
1.59872e-14
-2.15383e-14
-1.44329e-14
1.24345e-14
-9.99201e-15
-2.84217e-14
2.30926e-14
-7.77156e-15
9.32587e-15
2.66454e-15
-5.9952e-15
1.55431e-14
1.9984e-14
-3.77476e-15
-2.02061e-14
1.22125e-14
9.10383e-15
-1.4877e-14
8.88178e-16
-1.44329e-14
1.24345e-14
5.50671e-14
1.90958e-14
-2.04281e-14
1.33227e-15
-2.22045e-15
-4.88498e-15
-8.43769e-15
-1.31006e-14
-1.06581e-14
5.77316e-15
-1.77636e-14
-2.53131e-14
-3.73035e-14
-1.55431e-14
-9.99201e-15
1.84297e-14
5.55112e-15
6.88338e-15
2.57572e-14
9.99201e-15
1.33227e-14
1.5099e-14
0
-1.11022e-15
8.88178e-16
-3.19744e-14
5.55112e-15
-4.21885e-15
-6.43929e-15
-1.75415e-14
-1.88738e-14
-7.77156e-15
2.66454e-15
1.11022e-14
1.70974e-14
-3.37508e-14
-2.59792e-14
1.84297e-14
-4.21885e-15
-6.21725e-15
1.46549e-14
1.82077e-14
-3.55271e-15
1.42109e-14
4.66294e-15
-1.26565e-14
-1.33227e-14
-2.02061e-14
-1.66533e-14
1.24345e-14
-4.4853e-14
-5.10703e-15
1.55431e-15
1.28786e-14
-2.19824e-14
-2.13163e-14
-2.22045e-15
-3.77476e-15
6.21725e-15
-7.32747e-15
-3.95239e-14
-1.22125e-14
5.77316e-15
-4.72955e-14
-4.44089e-16
6.66134e-15
9.76996e-15
1.06581e-14
4.13003e-14
1.33227e-15
1.75415e-14
3.33067e-14
1.75415e-14
6.88338e-15
-5.10703e-15
-6.66134e-15
2.44249e-15
-9.54792e-15
-1.44329e-14
2.22045e-15
-4.21885e-15
1.9762e-14
-1.9984e-15
1.13243e-14
-2.55351e-14
1.59872e-14
-1.39888e-14
5.10703e-15
6.66134e-16
1.46549e-14
2.19824e-14
1.06581e-14
-8.65974e-15
9.99201e-15
-3.33067e-14
2.10942e-14
-1.77636e-15
-2.35367e-14
-1.77636e-15
-2.33147e-14
-4.21885e-15
-5.32907e-15
-5.10703e-15
-2.42029e-14
2.44249e-15
9.99201e-15
1.04361e-14
3.55271e-15
1.02141e-14
5.9952e-15
3.35287e-14
6.43929e-15
-2.66454e-15
1.02141e-14
2.13163e-14
6.21725e-15
-2.22045e-15
2.17604e-14
5.10703e-15
-1.5099e-14
1.28786e-14
-8.65974e-15
-1.44329e-14
4.17444e-14
-1.9984e-15
-3.77476e-15
9.76996e-15
-1.77636e-15
-2.86438e-14
1.11022e-15
3.10862e-15
-3.10862e-15
1.02141e-14
-1.59872e-14
1.42109e-14
1.42109e-14
6.43929e-15
-8.65974e-15
1.4877e-14
-3.33067e-15
9.99201e-15
-3.37508e-14
-1.06581e-14
-9.32587e-15
1.57652e-14
1.26565e-14
-3.77476e-15
7.77156e-15
1.11022e-14
3.55271e-15
-1.9762e-14
-1.11022e-15
-1.28786e-14
-1.73195e-14
2.73115e-14
1.95399e-14
-1.55431e-15
-1.79856e-14
7.32747e-15
1.44329e-14
-9.76996e-15
8.88178e-16
-2.13163e-14
2.53131e-14
-9.99201e-15
-3.37508e-14
8.43769e-15
-7.99361e-15
-7.99361e-15
8.65974e-15
-1.86517e-14
-8.65974e-15
6.88338e-15
-1.39888e-14
-2.22045e-15
1.24345e-14
2.22045e-16
-2.19824e-14
-4.21885e-15
1.53211e-14
3.55271e-15
1.46549e-14
1.4877e-14
-1.9984e-15
-3.55271e-15
1.08802e-14
8.88178e-16
-9.54792e-15
-7.10543e-15
-7.77156e-15
-1.28786e-14
2.15383e-14
-2.28706e-14
1.70974e-14
-6.88338e-15
-1.93179e-14
-1.11022e-15
-2.66454e-15
-5.9952e-15
2.22045e-16
1.42109e-14
1.9984e-14
2.42029e-14
1.5099e-14
1.84297e-14
-1.19904e-14
1.84297e-14
-4.21885e-15
-5.77316e-15
-1.11022e-15
1.37668e-14
5.9952e-15
7.32747e-15
1.11022e-15
5.32907e-15
-2.57572e-14
2.73115e-14
4.50751e-14
-1.42109e-14
-3.55271e-15
7.77156e-15
1.9984e-15
4.08562e-14
-8.21565e-15
2.5091e-14
2.84217e-14
-6.43929e-15
-2.88658e-15
5.32907e-15
-1.37668e-14
-4.44089e-16
-3.9968e-15
0
2.15383e-14
1.59872e-14
-6.66134e-16
-6.88338e-15
1.77636e-14
1.95399e-14
-2.30926e-14
1.53211e-14
-3.9968e-15
-1.15463e-14
-1.44329e-14
1.44329e-14
-1.53211e-14
-1.02141e-14
1.9762e-14
1.95399e-14
5.55112e-15
1.02141e-14
-7.10543e-15
2.02061e-14
4.66294e-15
-6.21725e-15
1.88738e-14
1.04361e-14
1.13243e-14
-1.70974e-14
8.21565e-15
1.77636e-15
9.99201e-15
-1.59872e-14
-2.13163e-14
-1.5099e-14
4.21885e-15
-1.73195e-14
5.77316e-15
-2.10942e-14
-6.66134e-16
-1.46549e-14
-1.46549e-14
3.10862e-15
9.99201e-15
-9.32587e-15
1.57652e-14
-2.75335e-14
-3.26406e-14
4.44089e-15
-1.42109e-14
-1.11022e-14
2.66454e-15
-1.70974e-14
7.32747e-15
-1.26565e-14
-2.4869e-14
1.28786e-14
5.77316e-15
1.55431e-15
2.44249e-15
-6.66134e-16
5.32907e-15
1.84297e-14
-2.35367e-14
-1.95399e-14
6.88338e-15
2.22045e-16
-2.66454e-15
-1.11022e-14
7.99361e-15
-3.84137e-14
1.22125e-14
8.43769e-15
1.9984e-14
-2.35367e-14
1.19904e-14
1.55431e-14
3.10862e-15
-1.31006e-14
1.4877e-14
-2.22045e-16
-1.22125e-14
9.54792e-15
-2.28706e-14
3.10862e-14
-1.55431e-14
-2.17604e-14
-1.73195e-14
-5.9952e-15
-1.22125e-14
-6.88338e-15
-9.76996e-15
2.81997e-14
-6.66134e-16
6.21725e-15
-6.66134e-15
-3.10862e-15
8.65974e-15
1.86517e-14
8.88178e-16
7.54952e-15
-1.33227e-15
2.22045e-15
1.06581e-14
8.43769e-15
-8.88178e-16
-5.32907e-15
6.21725e-15
-1.86517e-14
2.66454e-14
0
-3.10862e-15
-5.77316e-15
-1.33227e-15
-1.77636e-15
1.33227e-15
-7.99361e-15
-1.77636e-15
3.55271e-15
-5.32907e-15
1.64313e-14
1.42109e-14
-1.37668e-14
2.9754e-14
1.02141e-14
-6.21725e-15
1.55431e-14
-7.10543e-15
-4.88498e-15
-6.21725e-15
6.21725e-15
-1.77636e-15
8.88178e-16
-3.10862e-15
2.75335e-14
-4.88498e-15
-2.44249e-14
4.44089e-15
-6.21725e-15
-1.5099e-14
1.77636e-15
1.68754e-14
-1.77636e-14
4.04121e-14
8.88178e-16
2.53131e-14
1.59872e-14
1.55431e-14
8.88178e-15
1.9984e-14
6.21725e-15
1.24345e-14
-3.06422e-14
1.9984e-14
8.88178e-16
1.06581e-14
-3.9968e-15
1.33227e-15
-9.32587e-15
-7.54952e-15
3.10862e-15
-8.88178e-16
-1.73195e-14
-1.77636e-15
1.37668e-14
-5.77316e-15
1.77636e-15
1.11022e-14
-2.66454e-15
-7.10543e-15
5.77316e-15
1.77636e-15
1.77636e-15
-5.77316e-15
1.82077e-14