/*--------------------------------*- C++ -*----------------------------------*\
| =========                 |                                                 |
| \\      /  F ield         | foam-extend: Open Source CFD                    |
|  \\    /   O peration     | Version:     4.0                                |
|   \\  /    A nd           | Web:         http://www.foam-extend.org         |
|    \\/     M anipulation  |                                                 |
\*---------------------------------------------------------------------------*/
FoamFile
{
    version     2.0;
    format      ascii;
    class       surfaceScalarField;
    location    "10";
    object      phi;
}
// * * * * * * * * * * * * * * * * * * * * * * * * * * * * * * * * * * * * * //

dimensions      [0 3 -1 0 0 0 0];

internalField   nonuniform List<scalar> 
13744
(
-7.82597e-09
7.82666e-09
3.80692e-09
-1.16329e-08
7.30163e-11
3.73391e-09
2.50016e-11
4.80154e-11
7.9439e-12
1.70582e-11
4.42739e-12
3.51752e-12
2.45907e-12
1.96809e-12
1.5886e-12
8.69971e-13
1.04099e-12
5.45453e-13
7.20647e-13
3.21299e-13
5.03956e-13
2.16605e-13
3.58729e-13
1.46771e-13
2.55956e-13
1.00586e-13
1.80795e-13
7.59393e-14
1.26452e-13
5.29576e-14
8.5828e-14
3.93019e-14
5.50136e-14
3.14193e-14
3.25112e-14
2.29816e-14
1.61057e-14
1.62093e-14
3.46621e-15
1.17684e-14
-4.62258e-15
6.77236e-15
-9.85603e-15
6.32827e-15
-1.3459e-14
6.32827e-15
-1.4383e-14
5.55112e-16
-1.37868e-14
-2.9976e-15
-1.28373e-14
7.77156e-16
-1.01943e-14
-7.77156e-16
-6.85424e-15
-1.22125e-15
-3.91876e-15
-3.33067e-15
-9.88962e-16
-2.77556e-15
6.30612e-15
-6.21725e-15
4.55444e-15
7.77156e-16
1.01454e-14
-4.996e-15
1.51435e-14
-5.9952e-15
1.13989e-14
3.44169e-15
1.43305e-14
-2.77556e-15
1.57449e-14
-3.33067e-16
7.46321e-15
7.54952e-15
4.60145e-15
2.9976e-15
-1.14538e-15
6.55032e-15
-1.84762e-14
1.75415e-14
-3.24876e-14
1.28786e-14
-5.26396e-14
2.04281e-14
-8.81562e-14
3.63043e-14
-1.26444e-13
3.86358e-14
-1.78411e-13
5.36238e-14
-2.58249e-13
7.80487e-14
-3.58673e-13
9.92539e-14
-5.01554e-13
1.44107e-13
-7.2296e-13
2.21934e-13
-1.04095e-12
3.17191e-13
-1.58622e-12
5.41678e-13
-2.46136e-12
8.75189e-13
-4.42733e-12
1.96587e-12
-7.94147e-12
3.51252e-12
-2.50038e-11
1.70622e-11
-7.30163e-11
4.80127e-11
-3.80692e-09
3.7339e-09
7.82597e-09
-1.16329e-08
7.82597e-09
3.69154e-08
-2.90887e-08
5.15088e-09
2.01316e-08
2.18836e-10
8.66594e-09
7.69799e-11
1.89872e-10
2.46121e-11
6.94248e-11
1.38665e-11
1.426e-11
7.64141e-12
8.19633e-12
4.99128e-12
3.51985e-12
3.24906e-12
2.29061e-12
2.27201e-12
1.29541e-12
1.58577e-12
9.0028e-13
1.14151e-12
5.87752e-13
8.13466e-13
4.31544e-13
5.86621e-13
3.01537e-13
4.12644e-13
2.30371e-13
2.86172e-13
1.68532e-13
1.91311e-13
1.25455e-13
1.1988e-13
9.40359e-14
6.5721e-14
7.16094e-14
2.87974e-14
5.05151e-14
5.64989e-16
3.88578e-14
-1.83782e-14
2.26485e-14
-2.81403e-14
1.03251e-14
-3.40158e-14
9.32587e-15
-3.54083e-14
2.88658e-15
-3.10694e-14
-8.77076e-15
-2.61813e-14
-1.19904e-14
-1.9218e-14
-1.24345e-14
-8.2459e-15
-1.55431e-14
5.79368e-16
-1.17684e-14
3.02719e-15
-9.76996e-15
2.56448e-14
-1.84297e-14
2.60279e-14
-5.44009e-15
2.44941e-14
-3.44169e-15
4.17384e-14
-1.33227e-14
3.38539e-14
4.32987e-15
2.15009e-14
8.10463e-15
2.46946e-14
7.54952e-15
-6.27146e-16
2.86438e-14
-3.53356e-14
3.90799e-14
-5.93328e-14
4.31877e-14
-1.19826e-13
7.4607e-14
-1.97673e-13
9.69225e-14
-2.79664e-13
1.16462e-13
-4.12613e-13
1.72418e-13
-5.92971e-13
2.3137e-13
-8.06842e-13
2.921e-13
-1.14134e-12
4.33653e-13
-1.59206e-12
5.92637e-13
-2.26545e-12
8.96283e-13
-3.24896e-12
1.3014e-12
-4.99762e-12
2.29694e-12
-7.6348e-12
3.51064e-12
-1.38663e-11
8.20022e-12
-2.46183e-11
1.42661e-11
-7.69731e-11
6.94155e-11
-2.18836e-10
1.89876e-10
-5.15089e-09
8.66595e-09
-3.69153e-08
2.01316e-08
-2.90894e-08
2.47036e-08
-5.37923e-08
8.8594e-09
3.59758e-08
3.58894e-10
1.71665e-08
1.30742e-10
4.1802e-10
4.26309e-11
1.57536e-10
2.41144e-11
3.27796e-11
1.32792e-11
1.90246e-11
8.71157e-12
8.09111e-12
5.66737e-12
5.33584e-12
3.986e-12
2.97506e-12
2.78378e-12
2.10912e-12
2.01959e-12
1.35295e-12
1.44673e-12
1.00481e-12
1.0537e-12
6.97054e-13
7.50134e-13
5.30465e-13
5.32006e-13
3.85497e-13
3.63625e-13
2.92794e-13
2.39813e-13
2.16271e-13
1.4468e-13
1.64813e-13
7.72676e-14
1.17129e-13
2.68448e-14
8.471e-14
-7.31622e-15
6.02296e-14
-2.86211e-14
3.4639e-14
-4.05731e-14
1.68199e-14
-4.50122e-14
6.07847e-15
-4.21713e-14
-6.13398e-15
-3.5888e-14
-9.71445e-15
-2.60485e-14
-1.90403e-14
-1.25051e-14
-2.55906e-14
-5.81514e-16
-2.52576e-14
1.03489e-14
-2.34535e-14
2.92436e-14
-4.26603e-14
3.56275e-14
-1.40998e-14
3.87166e-14
-5.7454e-15
4.80325e-14
-2.55351e-14
4.02969e-14
1.47382e-14
2.50799e-14
2.97262e-14
1.03202e-14
1.58207e-14
-2.696e-14
6.38933e-14
-8.06478e-14
9.40914e-14
-1.41546e-13
1.0128e-13
-2.39734e-13
1.74333e-13
-3.66717e-13
2.26402e-13
-5.28672e-13
2.80415e-13
-7.50078e-13
3.92297e-13
-1.05676e-12
5.39097e-13
-1.44321e-12
6.8287e-13
-2.01931e-12
1.01325e-12
-2.78675e-12
1.36186e-12
-3.98255e-12
2.08805e-12
-5.66719e-12
2.98606e-12
-8.71461e-12
5.34323e-12
-1.32757e-11
8.07357e-12
-2.41141e-11
1.90331e-11
-4.26337e-11
3.2784e-11
-1.30739e-10
1.57522e-10
-3.58894e-10
4.18029e-10
-8.85941e-09
1.71665e-08
-2.47036e-08
3.59757e-08
-5.37929e-08
6.15948e-09
-5.99518e-08
7.47946e-09
3.46558e-08
4.89456e-10
2.41565e-08
1.85454e-10
7.22027e-10
6.20804e-11
2.80918e-10
3.51626e-11
5.96992e-11
1.94053e-11
3.4787e-11
1.27561e-11
1.47359e-11
8.31111e-12
9.78016e-12
5.86557e-12
5.42928e-12
4.10706e-12
3.8656e-12
2.99595e-12
2.46124e-12
2.15877e-12
1.84044e-12
1.5854e-12
1.26638e-12
1.14151e-12
9.75008e-13
8.23476e-13
7.05588e-13
5.74869e-13
5.44082e-13
3.93313e-13
3.98948e-13
2.52695e-13
3.04142e-13
1.50856e-13
2.20837e-13
7.48744e-14
1.62717e-13
2.24832e-14
1.08677e-13
-1.31988e-14
7.13318e-14
-3.37654e-14
3.62974e-14
-4.36461e-14
1.32255e-14
-4.4668e-14
-6.22419e-15
-3.91942e-14
-2.28324e-14
-2.86819e-14
-3.27724e-14
-1.49763e-14
-4.33403e-14
-1.11589e-15
-3.77059e-14
1.55409e-14
-3.51108e-14
2.82465e-14
-5.45397e-14
3.88155e-14
-2.05946e-14
4.45737e-14
-1.08698e-14
4.31074e-14
-1.88426e-14
3.33775e-14
1.96093e-14
1.29889e-14
4.39683e-14
-2.30403e-14
5.73847e-14
-7.50417e-14
1.1709e-13
-1.50837e-13
1.69968e-13
-2.53061e-13
2.04208e-13
-3.93208e-13
3.1565e-13
-5.74446e-13
4.03521e-13
-8.23571e-13
5.29469e-13
-1.14142e-12
7.09301e-13
-1.58494e-12
9.83255e-13
-2.15861e-12
1.2568e-12
-2.99555e-12
1.84561e-12
-4.10646e-12
2.47194e-12
-5.86548e-12
3.85163e-12
-8.31085e-12
5.4323e-12
-1.27556e-11
9.78793e-12
-1.94051e-11
1.47224e-11
-3.51621e-11
3.47958e-11
-6.20796e-11
5.97033e-11
-1.85454e-10
2.80897e-10
-4.89456e-10
7.22031e-10
-7.47946e-09
2.41565e-08
-6.15948e-09
3.46558e-08
-5.99524e-08
4.49683e-09
-6.44486e-08
4.94674e-09
3.42059e-08
6.17409e-10
2.84858e-08
2.4092e-10
1.09851e-09
8.2989e-11
4.38841e-10
4.70374e-11
9.56461e-11
2.60407e-11
5.5783e-11
1.71394e-11
2.36397e-11
1.11896e-11
1.57273e-11
7.91628e-12
8.69901e-12
5.55979e-12
6.21975e-12
4.0727e-12
3.95332e-12
2.95011e-12
2.96443e-12
2.18227e-12
2.03518e-12
1.58624e-12
1.57254e-12
1.15918e-12
1.13088e-12
8.24186e-13
8.74925e-13
5.78882e-13
6.43503e-13
3.87722e-13
5.02574e-13
2.48349e-13
3.58363e-13
1.43005e-13
2.69517e-13
6.90168e-14
1.84328e-13
1.70952e-14
1.2132e-13
-1.49173e-14
7.53529e-14
-3.28912e-14
2.88485e-14
-3.90782e-14
-2.81025e-15
-3.68121e-14
-1.88946e-14
-2.79853e-14
-3.93782e-14
-1.49913e-14
-5.64722e-14
-7.6587e-16
-5.05117e-14
1.49789e-14
-5.11778e-14
2.75304e-14
-6.41154e-14
3.63089e-14
-3.02224e-14
3.86814e-14
-1.76768e-14
3.24265e-14
-1.55154e-14
1.441e-14
4.25736e-14
-1.76183e-14
8.284e-14
-6.94887e-14
1.07858e-13
-1.43235e-13
1.91246e-13
-2.48581e-13
2.75197e-13
-3.87938e-13
3.441e-13
-5.78765e-13
5.01928e-13
-8.23899e-13
6.50448e-13
-1.15905e-12
8.62518e-13
-1.58611e-12
1.13935e-12
-2.18192e-12
1.57845e-12
-2.94967e-12
2.01964e-12
-4.07218e-12
2.96951e-12
-5.55926e-12
3.96115e-12
-7.9159e-12
6.20359e-12
-1.11893e-11
8.70364e-12
-1.71389e-11
1.57364e-11
-2.60402e-11
2.3626e-11
-4.70368e-11
5.57896e-11
-8.29883e-11
9.56544e-11
-2.4092e-10
4.38825e-10
-6.17408e-10
1.09852e-09
-4.94674e-09
2.84858e-08
-4.49683e-09
3.42058e-08
-6.44493e-08
7.57803e-09
-7.20266e-08
4.22909e-09
3.75548e-08
7.46847e-10
3.1968e-08
2.97315e-10
1.54805e-09
1.05393e-10
6.30762e-10
5.97686e-11
1.41269e-10
3.32102e-11
8.23441e-11
2.18767e-11
3.49735e-11
1.43137e-11
2.32957e-11
1.01454e-11
1.28673e-11
7.14612e-12
9.21891e-12
5.25249e-12
5.84729e-12
3.82248e-12
4.39572e-12
2.84439e-12
3.01522e-12
2.08407e-12
2.33406e-12
1.53868e-12
1.67572e-12
1.11013e-12
1.30785e-12
7.95191e-13
9.60503e-13
5.48607e-13
7.40425e-13
3.67855e-13
5.40623e-13
2.29686e-13
4.06071e-13
1.31119e-13
2.86989e-13
6.05372e-14
1.94882e-13
1.46985e-14
1.22548e-13
-1.35079e-14
6.40425e-14
-2.66323e-14
1.18863e-14
-2.94508e-14
-1.78885e-14
-2.4057e-14
-4.70908e-14
-1.31837e-14
-6.29254e-14
-5.51855e-16
-6.42368e-14
1.22679e-14
-6.54858e-14
2.42094e-14
-7.82846e-14
2.88026e-14
-3.63772e-14
2.53409e-14
-7.26155e-15
1.3708e-14
-3.40006e-15
-1.5335e-14
6.71685e-14
-6.19631e-14
1.25608e-13
-1.3092e-13
1.75724e-13
-2.29991e-13
2.90466e-13
-3.68929e-13
4.13041e-13
-5.48091e-13
5.2618e-13
-7.95046e-13
7.51899e-13
-1.11058e-12
9.6859e-13
-1.53773e-12
1.28949e-12
-2.08391e-12
1.6844e-12
-2.84474e-12
2.33957e-12
-3.82117e-12
2.99889e-12
-5.25185e-12
4.40037e-12
-7.14624e-12
5.85191e-12
-1.01441e-11
9.20439e-12
-1.43132e-11
1.28758e-11
-2.18769e-11
2.3296e-11
-3.32088e-11
3.49521e-11
-5.97678e-11
8.23479e-11
-1.05393e-10
1.41275e-10
-2.97314e-10
6.30749e-10
-7.46846e-10
1.54805e-09
-4.22909e-09
3.1968e-08
-7.57803e-09
3.75548e-08
-7.20273e-08
8.10089e-09
-8.01275e-08
4.39671e-09
4.1259e-08
8.76012e-10
3.54887e-08
3.54917e-10
2.06914e-09
1.29329e-10
8.56354e-10
7.33885e-11
1.97213e-10
4.09407e-11
1.14789e-10
2.69856e-11
4.89277e-11
1.76956e-11
3.2581e-11
1.25614e-11
1.79983e-11
8.87157e-12
1.29083e-11
6.53902e-12
8.18018e-12
4.77833e-12
6.15081e-12
3.57287e-12
4.22128e-12
2.63551e-12
3.26914e-12
1.96209e-12
2.35166e-12
1.43211e-12
1.83294e-12
1.04147e-12
1.3514e-12
7.34578e-13
1.05663e-12
5.08187e-13
7.64427e-13
3.33843e-13
5.78497e-13
2.07852e-13
4.06668e-13
1.15939e-13
2.84986e-13
5.41519e-14
1.76834e-13
1.38095e-14
1.01905e-13
-8.17939e-15
3.3756e-14
-1.76359e-14
-7.71605e-15
-1.71173e-14
-4.43152e-14
-1.00162e-14
-7.24802e-14
-6.02758e-16
-7.83696e-14
8.87597e-15
-7.47232e-14
1.71959e-14
-8.6613e-14
1.68453e-14
-3.4011e-14
6.67159e-15
-2.25167e-15
-1.36655e-14
1.96614e-14
-5.49178e-14
1.12096e-13
-1.17573e-13
1.87947e-13
-2.07682e-13
2.6767e-13
-3.34216e-13
4.12356e-13
-5.09402e-13
5.94995e-13
-7.34022e-13
7.44543e-13
-1.04132e-12
1.05842e-12
-1.43261e-12
1.35842e-12
-1.96102e-12
1.82221e-12
-2.63532e-12
2.35646e-12
-3.57323e-12
3.27873e-12
-4.77685e-12
4.20025e-12
-6.53826e-12
6.16456e-12
-8.87164e-12
8.19107e-12
-1.256e-11
1.28932e-11
-1.7695e-11
1.80092e-11
-2.69858e-11
3.25933e-11
-4.09391e-11
4.89125e-11
-7.33876e-11
1.14796e-10
-1.29329e-10
1.97222e-10
-3.54915e-10
8.56329e-10
-8.7601e-10
2.06915e-09
-4.39671e-09
3.54887e-08
-8.10088e-09
4.1259e-08
-8.01282e-08
7.1449e-09
-8.72724e-08
4.43084e-09
4.39731e-08
1.0027e-09
3.89169e-08
4.13768e-10
2.65807e-09
1.54831e-10
1.11529e-09
8.79313e-11
2.64116e-10
4.92613e-11
1.53458e-10
3.24859e-11
6.57024e-11
2.13495e-11
4.37182e-11
1.5174e-11
2.41761e-11
1.0743e-11
1.73423e-11
7.93698e-12
1.09832e-11
5.82084e-12
8.27206e-12
4.36984e-12
5.67136e-12
3.24184e-12
4.39968e-12
2.42998e-12
3.15944e-12
1.79036e-12
2.47808e-12
1.3176e-12
1.82124e-12
9.45189e-13
1.42189e-12
6.68855e-13
1.04459e-12
4.54833e-13
7.95412e-13
2.98504e-13
5.65679e-13
1.82675e-13
4.01014e-13
1.02811e-13
2.59471e-13
4.84584e-14
1.57272e-13
1.58517e-14
6.47277e-14
-1.74373e-15
7.86003e-15
-7.50114e-15
-3.88856e-14
-5.60191e-15
-7.24906e-14
-6.90239e-16
-7.64527e-14
4.44559e-15
-8.50448e-14
7.21576e-15
-8.82905e-14
7.87578e-16
-3.24411e-14
-1.73083e-14
2.17257e-14
-4.86513e-14
4.88255e-14
-1.03707e-13
1.67958e-13
-1.84249e-13
2.68629e-13
-2.98643e-13
3.84928e-13
-4.55276e-13
5.73057e-13
-6.69958e-13
7.98689e-13
-9.44866e-13
1.02183e-12
-1.31743e-12
1.43262e-12
-1.79062e-12
1.82557e-12
-2.42907e-12
2.46106e-12
-3.2416e-12
3.16773e-12
-4.36995e-12
4.40772e-12
-5.81944e-12
5.65017e-12
-7.93611e-12
8.27876e-12
-1.07428e-11
1.09991e-11
-1.51726e-11
1.73228e-11
-2.13488e-11
2.41849e-11
-3.24857e-11
4.37289e-11
-4.92597e-11
6.56853e-11
-8.79302e-11
1.53466e-10
-1.54831e-10
2.6412e-10
-4.13766e-10
1.11527e-09
-1.0027e-09
2.65808e-09
-4.43084e-09
3.89169e-08
-7.14489e-09
4.3973e-08
-8.72731e-08
6.35926e-09
-9.36317e-08
4.26955e-09
4.60628e-08
1.12637e-09
4.20601e-08
4.73743e-10
3.3107e-09
1.8193e-10
1.4071e-09
1.03432e-10
3.42611e-10
5.82028e-11
1.98687e-10
3.83989e-11
8.55021e-11
2.5291e-11
5.68258e-11
1.7994e-11
3.14732e-11
1.27686e-11
2.25573e-11
9.45212e-12
1.42979e-11
6.95408e-12
1.07676e-11
5.23827e-12
7.38988e-12
3.90508e-12
5.73062e-12
2.94369e-12
4.12412e-12
2.18576e-12
3.23213e-12
1.62403e-12
2.38273e-12
1.18062e-12
1.86371e-12
8.49885e-13
1.3711e-12
5.92506e-13
1.05555e-12
4.02792e-13
7.5887e-13
2.60507e-13
5.44794e-13
1.60369e-13
3.60514e-13
9.01022e-14
2.25957e-13
4.52524e-14
1.12571e-13
1.80267e-14
3.60198e-14
4.62362e-15
-2.98303e-14
5.59433e-17
-7.1298e-14
-7.60966e-16
-7.69489e-14
-1.31779e-15
-7.99152e-14
-5.2263e-15
-8.67891e-14
-1.91385e-14
-1.20919e-14
-4.67472e-14
4.27046e-14
-9.05714e-14
9.64446e-14
-1.61407e-13
2.40605e-13
-2.6209e-13
3.70356e-13
-4.03173e-13
5.18401e-13
-5.93044e-13
7.66615e-13
-8.5093e-13
1.06109e-12
-1.18045e-12
1.35038e-12
-1.62386e-12
1.87473e-12
-2.18586e-12
2.39655e-12
-2.94286e-12
3.21971e-12
-3.90479e-12
4.13158e-12
-5.23819e-12
5.73997e-12
-6.95271e-12
7.36422e-12
-9.45112e-12
1.07773e-11
-1.2768e-11
1.43088e-11
-1.79926e-11
2.25451e-11
-2.52901e-11
3.14855e-11
-3.83985e-11
5.68395e-11
-5.82012e-11
8.54866e-11
-1.0343e-10
1.98698e-10
-1.8193e-10
3.42621e-10
-4.73741e-10
1.40708e-09
-1.12637e-09
3.31071e-09
-4.26955e-09
4.20601e-08
-6.35926e-09
4.60627e-08
-9.36323e-08
5.89642e-09
-9.95281e-08
4.09253e-09
4.78667e-08
1.24701e-09
4.49056e-08
5.34707e-10
4.023e-09
2.10648e-10
1.73116e-09
1.19924e-10
4.33334e-10
6.77973e-11
2.50812e-10
4.47474e-11
1.08561e-10
2.95368e-11
7.20389e-11
2.10337e-11
3.9976e-11
1.49571e-11
2.86431e-11
1.10911e-11
1.81657e-11
8.18304e-12
1.36753e-11
6.18184e-12
9.38623e-12
4.62798e-12
7.28546e-12
3.5052e-12
5.24387e-12
2.61977e-12
4.12183e-12
1.96179e-12
3.04355e-12
1.44156e-12
2.39036e-12
1.05176e-12
1.76116e-12
7.47151e-13
1.35169e-12
5.20864e-13
9.81501e-13
3.49489e-13
7.15152e-13
2.26823e-13
4.77797e-13
1.38723e-13
3.0937e-13
7.99553e-14
1.68929e-13
4.16099e-14
7.37474e-14
1.92146e-14
-5.8651e-15
6.94134e-15
-5.86042e-14
-8.15668e-16
-6.98239e-14
-8.38499e-15
-7.41057e-14
-2.00658e-14
-7.20188e-14
-4.29176e-14
1.25833e-14
-8.15658e-14
8.30885e-14
-1.39402e-13
1.48779e-13
-2.28011e-13
3.22455e-13
-3.51162e-13
4.94845e-13
-5.21411e-13
6.93917e-13
-7.47793e-13
9.83445e-13
-1.05281e-12
1.36443e-12
-1.44147e-12
1.73817e-12
-1.96162e-12
2.39638e-12
-2.6198e-12
3.05242e-12
-3.5044e-12
4.09702e-12
-4.62764e-12
5.25302e-12
-6.18163e-12
7.29581e-12
-8.18163e-12
9.36377e-12
-1.10899e-11
1.36804e-11
-1.49564e-11
1.81787e-11
-2.10322e-11
2.86189e-11
-2.95358e-11
3.99876e-11
-4.47467e-11
7.20471e-11
-6.77956e-11
1.08535e-10
-1.19922e-10
2.50827e-10
-2.10647e-10
4.33345e-10
-5.34705e-10
1.73114e-09
-1.247e-09
4.02301e-09
-4.09253e-09
4.49056e-08
-5.89641e-09
4.78666e-08
-9.95287e-08
5.48926e-09
-1.05017e-07
3.94964e-09
4.94063e-08
1.36419e-09
4.7491e-08
5.96536e-10
4.79066e-09
2.40998e-10
2.0867e-09
1.37439e-10
5.36898e-10
7.80771e-11
3.10176e-10
5.15548e-11
1.35076e-10
3.41049e-11
8.94861e-11
2.4306e-11
4.97737e-11
1.73186e-11
3.56277e-11
1.28612e-11
2.26292e-11
9.51338e-12
1.70233e-11
7.20484e-12
1.16995e-11
5.41385e-12
9.07581e-12
4.11708e-12
6.53982e-12
3.09434e-12
5.13843e-12
2.33238e-12
3.79977e-12
1.72914e-12
2.99243e-12
1.27527e-12
2.21739e-12
9.19394e-13
1.71209e-12
6.53186e-13
1.24804e-12
4.49928e-13
9.20321e-13
3.02394e-13
6.31813e-13
1.9447e-13
4.21143e-13
1.20068e-13
2.40632e-13
6.90878e-14
1.25677e-13
3.63152e-14
3.05476e-14
1.50614e-14
-3.12909e-14
-8.83323e-16
-5.34893e-14
-1.66934e-14
-5.6738e-14
-3.74322e-14
-5.76496e-14
-7.05929e-14
3.85503e-14
-1.21817e-13
1.35142e-13
-1.95372e-13
2.25039e-13
-3.03729e-13
4.36724e-13
-4.51703e-13
6.43714e-13
-6.53918e-13
8.98551e-13
-9.20123e-13
1.2596e-12
-1.27634e-12
1.72339e-12
-1.72913e-12
2.19336e-12
-2.3322e-12
2.99837e-12
-3.09431e-12
3.80825e-12
-4.11628e-12
5.12588e-12
-5.41346e-12
6.55214e-12
-7.20452e-12
9.09025e-12
-9.51192e-12
1.16734e-11
-1.28599e-11
1.70358e-11
-1.73177e-11
2.26339e-11
-2.43044e-11
3.56093e-11
-3.41036e-11
4.97834e-11
-5.15539e-11
8.94981e-11
-7.80752e-11
1.35059e-10
-1.37437e-10
3.10182e-10
-2.40997e-10
5.36903e-10
-5.96534e-10
2.08667e-09
-1.36419e-09
4.79066e-09
-3.94963e-09
4.7491e-08
-5.48926e-09
4.94062e-08
-1.05018e-07
5.04773e-09
-1.10065e-07
3.81733e-09
5.06367e-08
1.47725e-09
4.98311e-08
6.59079e-10
5.60882e-09
2.72978e-10
2.47281e-09
1.56006e-10
6.53865e-10
8.9074e-11
3.77109e-10
5.88454e-11
1.65307e-10
3.90137e-11
1.09318e-10
2.78248e-11
6.09664e-11
1.98635e-11
4.35883e-11
1.47705e-11
2.77138e-11
1.09513e-11
2.08461e-11
8.31206e-12
1.43334e-11
6.26644e-12
1.11175e-11
4.78224e-12
8.02061e-12
3.61176e-12
6.31394e-12
2.7376e-12
4.68312e-12
2.04477e-12
3.6833e-12
1.52154e-12
2.73725e-12
1.11008e-12
2.12459e-12
8.00416e-13
1.55882e-12
5.62348e-13
1.15291e-12
3.87475e-13
8.04055e-13
2.57628e-13
5.53778e-13
1.65802e-13
3.35105e-13
1.006e-13
1.88867e-13
5.60247e-14
7.13477e-14
2.44393e-14
-2.89374e-15
-9.64025e-16
-2.4913e-14
-2.62877e-14
-3.12768e-14
-5.7421e-14
-1.86227e-14
-1.02302e-13
8.50205e-14
-1.67679e-13
1.97841e-13
-2.58776e-13
3.1515e-13
-3.88972e-13
5.67522e-13
-5.64208e-13
8.14763e-13
-8.01338e-13
1.13013e-12
-1.11092e-12
1.55952e-12
-1.52263e-12
2.13204e-12
-2.04486e-12
2.71089e-12
-2.73741e-12
3.69075e-12
-3.61164e-12
4.69243e-12
-4.78146e-12
6.29209e-12
-6.26599e-12
8.03675e-12
-8.31161e-12
1.11286e-11
-1.09498e-11
1.43072e-11
-1.47691e-11
2.08525e-11
-1.98624e-11
2.77226e-11
-2.7823e-11
4.35633e-11
-3.90123e-11
6.09767e-11
-5.88442e-11
1.09331e-10
-8.9072e-11
1.65285e-10
-1.56005e-10
3.77124e-10
-2.72976e-10
6.53875e-10
-6.59076e-10
2.47278e-09
-1.47724e-09
5.60883e-09
-3.81732e-09
4.98311e-08
-5.04772e-09
5.06366e-08
-1.10066e-07
4.59462e-09
-1.1466e-07
3.6794e-09
5.15519e-08
1.58548e-09
5.1925e-08
7.22138e-10
6.47216e-09
3.06572e-10
2.88836e-09
1.75649e-10
7.84792e-10
1.00819e-10
4.51937e-10
6.66431e-11
1.99481e-10
4.42825e-11
1.31685e-10
3.16044e-11
7.36444e-11
2.26029e-11
5.25864e-11
1.68275e-11
3.34919e-11
1.25034e-11
2.51633e-11
9.50868e-12
1.73367e-11
7.18984e-12
1.34456e-11
5.50394e-12
9.71216e-12
4.17462e-12
7.64372e-12
3.17946e-12
5.67916e-12
2.3901e-12
4.46909e-12
1.79187e-12
3.33816e-12
1.32025e-12
2.59507e-12
9.63362e-13
1.91845e-12
6.87382e-13
1.43119e-12
4.8257e-13
1.00885e-12
3.28582e-13
7.03397e-13
2.17428e-13
4.51902e-13
1.36338e-13
2.76081e-13
7.84692e-14
1.30947e-13
3.51651e-14
3.59188e-14
-1.05246e-15
9.46812e-15
-3.72221e-14
-1.56667e-15
-8.01693e-14
1.92979e-14
-1.38261e-13
1.42996e-13
-2.19448e-13
2.78992e-13
-3.29988e-13
4.29824e-13
-4.84235e-13
7.26807e-13
-6.89332e-13
1.02444e-12
-9.64501e-13
1.40636e-12
-1.32119e-12
1.92099e-12
-1.79297e-12
2.60279e-12
-2.39028e-12
3.31386e-12
-3.17928e-12
4.47886e-12
-4.17443e-12
5.682e-12
-5.50317e-12
7.62173e-12
-7.18933e-12
9.72017e-12
-9.50809e-12
1.34464e-11
-1.25018e-11
1.73049e-11
-1.6826e-11
2.51753e-11
-2.26015e-11
3.35072e-11
-3.16024e-11
5.25702e-11
-4.42808e-11
7.36514e-11
-6.66416e-11
1.31692e-10
-1.00817e-10
1.99463e-10
-1.75647e-10
4.51948e-10
-3.0657e-10
7.84799e-10
-7.22135e-10
2.88834e-09
-1.58548e-09
6.47218e-09
-3.6794e-09
5.1925e-08
-4.59461e-09
5.15519e-08
-1.1466e-07
4.14851e-09
-1.18808e-07
3.5347e-09
5.21657e-08
1.68822e-09
5.37715e-08
7.85476e-10
7.37491e-09
3.41746e-10
3.3321e-09
1.96385e-10
9.30147e-10
1.13341e-10
5.34978e-10
7.49719e-11
2.37853e-10
4.99304e-11
1.56722e-10
3.56594e-11
8.79105e-11
2.55482e-11
6.27019e-11
1.9041e-11
4.00028e-11
1.41766e-11
3.00294e-11
1.08002e-11
2.07027e-11
8.1884e-12
1.6049e-11
6.28562e-12
1.16081e-11
4.78569e-12
9.14078e-12
3.66022e-12
6.80085e-12
2.76691e-12
5.36546e-12
2.0877e-12
4.01681e-12
1.55106e-12
3.1331e-12
1.14295e-12
2.32157e-12
8.25767e-13
1.75188e-12
5.88234e-13
1.24553e-12
4.07794e-13
8.84506e-13
2.75282e-13
5.79387e-13
1.76539e-13
3.73429e-13
1.03787e-13
2.00531e-13
4.73024e-14
9.32906e-14
-1.16251e-15
5.5432e-14
-4.95742e-14
5.26963e-14
-1.058e-13
7.12444e-14
-1.78702e-13
2.16689e-13
-2.77454e-13
3.79407e-13
-4.09446e-13
5.59861e-13
-5.90094e-13
8.96061e-13
-8.27817e-13
1.26319e-12
-1.14431e-12
1.72427e-12
-1.55212e-12
2.33473e-12
-2.08881e-12
3.14112e-12
-2.7672e-12
3.98831e-12
-3.66005e-12
5.37685e-12
-4.78543e-12
6.81015e-12
-6.28487e-12
9.12035e-12
-8.18785e-12
1.1624e-11
-1.07994e-11
1.60619e-11
-1.4175e-11
2.06783e-11
-1.90393e-11
3.00349e-11
-2.55466e-11
4.00104e-11
-3.56573e-11
6.26845e-11
-4.99285e-11
8.79258e-11
-7.49702e-11
1.56729e-10
-1.13339e-10
2.37829e-10
-1.96383e-10
5.34994e-10
-3.41744e-10
9.30159e-10
-7.85473e-10
3.33207e-09
-1.68822e-09
7.37492e-09
-3.5347e-09
5.37715e-08
-4.14851e-09
5.21657e-08
-1.18809e-07
3.70895e-09
-1.22517e-07
3.38467e-09
5.249e-08
1.78481e-09
5.53714e-08
8.48823e-10
8.3109e-09
3.7845e-10
3.80247e-09
2.18224e-10
1.09038e-09
1.26668e-10
6.26543e-10
8.38552e-11
2.80665e-10
5.5977e-11
1.84599e-10
4.0005e-11
1.03886e-10
2.87114e-11
7.39924e-11
2.14202e-11
4.72901e-11
1.59784e-11
3.54746e-11
1.21923e-11
2.45025e-11
9.26676e-12
1.89756e-11
7.13099e-12
1.37525e-11
5.44796e-12
1.08276e-11
4.18229e-12
8.06557e-12
3.17715e-12
6.3671e-12
2.41059e-12
4.78311e-12
1.80376e-12
3.74104e-12
1.34021e-12
2.79132e-12
9.78282e-13
2.11592e-12
7.05116e-13
1.51834e-12
4.95731e-13
1.09444e-12
3.39743e-13
7.36949e-13
2.21468e-13
4.87279e-13
1.32156e-13
2.97633e-13
6.09327e-14
1.66916e-13
-1.26542e-15
1.18341e-13
-6.34585e-14
1.14014e-13
-1.34482e-13
1.47298e-13
-2.23885e-13
3.03742e-13
-3.42084e-13
5.01139e-13
-4.97666e-13
7.11863e-13
-7.07144e-13
1.11596e-12
-9.80459e-13
1.53354e-12
-1.34176e-12
2.0836e-12
-1.80496e-12
2.78802e-12
-2.41172e-12
3.74687e-12
-3.17752e-12
4.75223e-12
-4.18213e-12
6.38288e-12
-5.44764e-12
8.07722e-12
-7.13025e-12
1.08029e-11
-9.26615e-12
1.37636e-11
-1.21914e-11
1.89872e-11
-1.59767e-11
2.44668e-11
-2.14184e-11
3.54835e-11
-2.87095e-11
4.73042e-11
-4.00028e-11
7.3969e-11
-5.59749e-11
1.03898e-10
-8.38532e-11
1.84614e-10
-1.26666e-10
2.80642e-10
-2.18222e-10
6.26546e-10
-3.78448e-10
1.09038e-09
-8.4882e-10
3.80244e-09
-1.78481e-09
8.31091e-09
-3.38467e-09
5.53714e-08
-3.70895e-09
5.24899e-08
-1.22518e-07
3.27256e-09
-1.2579e-07
3.22915e-09
5.25334e-08
1.87458e-09
5.67259e-08
9.11876e-10
9.2736e-09
4.1661e-10
4.29774e-09
2.41172e-10
1.26582e-09
1.40824e-10
7.26878e-10
9.33158e-11
3.28173e-10
6.24418e-11
2.15484e-10
4.46564e-11
1.2167e-10
3.21045e-11
8.65483e-11
2.39747e-11
5.54286e-11
1.79162e-11
4.15287e-11
1.36911e-11
2.87212e-11
1.04298e-11
2.22386e-11
8.04392e-12
1.61348e-11
6.16455e-12
1.27062e-11
4.74817e-12
9.47984e-12
3.62287e-12
7.49398e-12
2.76221e-12
5.64068e-12
2.07971e-12
4.42026e-12
1.55619e-12
3.30667e-12
1.14581e-12
2.52076e-12
8.33893e-13
1.83621e-12
5.92924e-13
1.33739e-12
4.11193e-13
9.14625e-13
2.71438e-13
6.29924e-13
1.63754e-13
3.97194e-13
7.61383e-14
2.58253e-13
-1.37913e-15
1.97245e-13
-7.89305e-14
1.89071e-13
-1.66428e-13
2.36225e-13
-2.74078e-13
4.14647e-13
-4.13736e-13
6.32443e-13
-5.95126e-13
9.01399e-13
-8.3613e-13
1.34985e-12
-1.14812e-12
1.84633e-12
-1.55797e-12
2.49403e-12
-2.08102e-12
3.31511e-12
-2.76336e-12
4.43078e-12
-3.6233e-12
5.61674e-12
-4.74803e-12
7.50002e-12
-6.16418e-12
9.48612e-12
-8.04318e-12
1.26811e-11
-1.04291e-11
1.61487e-11
-1.36901e-11
2.22551e-11
-1.79144e-11
2.86847e-11
-2.39727e-11
4.15411e-11
-3.21024e-11
5.54344e-11
-4.4654e-11
8.65263e-11
-6.24395e-11
1.21683e-10
-9.33135e-11
2.15481e-10
-1.40821e-10
3.28145e-10
-2.41169e-10
7.26898e-10
-4.16608e-10
1.26583e-09
-9.11873e-10
4.2977e-09
-1.87458e-09
9.27362e-09
-3.22914e-09
5.67259e-08
-3.27255e-09
5.25333e-08
-1.2579e-07
2.83891e-09
-1.28629e-07
3.06748e-09
5.23048e-08
1.95688e-09
5.78365e-08
9.74308e-10
1.02562e-08
4.56135e-10
4.81591e-09
2.65221e-10
1.45673e-09
1.5583e-10
8.36279e-10
1.03375e-10
3.80631e-10
6.93443e-11
2.49503e-10
4.96292e-11
1.41392e-10
3.57402e-11
1.00441e-10
2.67144e-11
6.44461e-11
1.99979e-11
4.82563e-11
1.53029e-11
3.34159e-11
1.16825e-11
2.58641e-11
9.02851e-12
1.87877e-11
6.93879e-12
1.47933e-11
5.36058e-12
1.10595e-11
4.10622e-12
8.75092e-12
3.1443e-12
6.61087e-12
2.38031e-12
5.18889e-12
1.79206e-12
3.89509e-12
1.3293e-12
2.99337e-12
9.75287e-13
2.18508e-12
6.99942e-13
1.6121e-12
4.90085e-13
1.13002e-12
3.26707e-13
7.93531e-13
1.98818e-13
5.29232e-13
9.30182e-14
3.55495e-13
-1.50889e-15
2.91766e-13
-9.60882e-14
2.86817e-13
-2.01814e-13
3.39796e-13
-3.29642e-13
5.40259e-13
-4.92801e-13
7.98204e-13
-7.02466e-13
1.09868e-12
-9.77734e-13
1.62478e-12
-1.33172e-12
2.19671e-12
-1.79405e-12
2.95566e-12
-2.38176e-12
3.90672e-12
-3.14548e-12
5.1899e-12
-4.10676e-12
6.57466e-12
-5.36045e-12
8.75825e-12
-6.93836e-12
1.10698e-11
-9.02777e-12
1.47741e-11
-1.16817e-11
1.88035e-11
-1.53018e-11
2.58673e-11
-1.99961e-11
3.338e-11
-2.67122e-11
4.82601e-11
-3.57378e-11
6.44578e-11
-4.96266e-11
1.00413e-10
-6.93416e-11
1.41395e-10
-1.03373e-10
2.49523e-10
-1.55827e-10
3.80605e-10
-2.65219e-10
8.36293e-10
-4.56132e-10
1.45674e-09
-9.74305e-10
4.81588e-09
-1.95688e-09
1.02562e-08
-3.06747e-09
5.78365e-08
-2.8389e-09
5.23048e-08
-1.28629e-07
2.40912e-09
-1.31038e-07
2.89937e-09
5.18146e-08
2.03107e-09
5.87048e-08
1.03576e-09
1.12515e-08
4.96911e-10
5.35476e-09
2.90359e-10
1.66328e-09
1.71704e-10
9.54936e-10
1.14055e-10
4.38274e-10
7.67036e-11
2.86859e-10
5.4939e-11
1.63144e-10
3.9631e-11
1.15742e-10
2.96493e-11
7.44292e-11
2.22317e-11
5.56646e-11
1.70342e-11
3.86183e-11
1.30301e-11
2.98606e-11
1.0089e-11
2.17313e-11
7.77414e-12
1.71025e-11
6.02232e-12
1.28138e-11
4.62954e-12
1.01418e-11
3.55873e-12
7.68574e-12
2.70709e-12
6.03648e-12
2.04906e-12
4.56114e-12
1.52967e-12
3.50223e-12
1.13009e-12
2.58559e-12
8.17406e-13
1.92363e-12
5.76855e-13
1.36499e-12
3.87648e-13
9.79933e-13
2.37497e-13
6.77172e-13
1.11701e-13
4.8271e-13
-1.64652e-15
3.98062e-13
-1.15057e-13
4.00863e-13
-2.40857e-13
4.68836e-13
-3.90861e-13
6.88023e-13
-5.79791e-13
9.92578e-13
-8.20225e-13
1.34701e-12
-1.13276e-12
1.9378e-12
-1.53225e-12
2.60166e-12
-2.05124e-12
3.48362e-12
-2.70871e-12
4.55624e-12
-3.55995e-12
6.04955e-12
-4.63016e-12
7.64584e-12
-6.0222e-12
1.01469e-11
-7.77366e-12
1.28236e-11
-1.00883e-11
1.70908e-11
-1.30293e-11
2.17403e-11
-1.70329e-11
2.98711e-11
-2.22299e-11
3.85839e-11
-2.9647e-11
5.56646e-11
-3.96284e-11
7.44374e-11
-5.49362e-11
1.1572e-10
-7.67006e-11
1.63164e-10
-1.14052e-10
2.86865e-10
-1.71701e-10
4.38247e-10
-2.90356e-10
9.54942e-10
-4.96908e-10
1.66328e-09
-1.03576e-09
5.35473e-09
-2.03106e-09
1.12515e-08
-2.89936e-09
5.87048e-08
-2.40911e-09
5.18145e-08
-1.31038e-07
1.98443e-09
-1.33022e-07
2.72489e-09
5.10741e-08
2.09654e-09
5.93332e-08
1.09586e-09
1.22522e-08
5.38803e-10
5.91181e-09
3.16561e-10
1.88553e-09
1.88459e-10
1.08304e-09
1.25372e-10
5.01367e-10
8.45385e-11
3.27685e-10
6.06015e-11
1.87093e-10
4.37901e-11
1.32557e-10
3.27901e-11
8.54262e-11
2.46263e-11
6.38301e-11
1.88919e-11
4.43485e-11
1.44784e-11
3.42767e-11
1.12299e-11
2.49825e-11
8.67431e-12
1.9669e-11
6.73637e-12
1.47513e-11
5.19527e-12
1.16815e-11
4.00749e-12
8.86518e-12
3.0617e-12
6.98554e-12
2.32844e-12
5.28998e-12
1.74804e-12
4.08585e-12
1.29913e-12
3.03971e-12
9.45953e-13
2.28166e-12
6.7201e-13
1.64939e-12
4.54594e-13
1.19884e-12
2.80061e-13
8.54465e-13
1.32264e-13
6.29931e-13
-1.77077e-15
5.39538e-13
-1.35933e-13
5.35778e-13
-2.83801e-13
6.12411e-13
-4.58078e-13
8.66708e-13
-6.75177e-13
1.20445e-12
-9.49106e-13
1.62359e-12
-1.30202e-12
2.29636e-12
-1.75074e-12
3.04401e-12
-2.33089e-12
4.05164e-12
-3.06343e-12
5.29508e-12
-4.00878e-12
6.99214e-12
-5.19596e-12
8.83314e-12
-6.73624e-12
1.16957e-11
-8.67375e-12
1.47541e-11
-1.12292e-11
1.96415e-11
-1.44775e-11
2.49896e-11
-1.88904e-11
3.42843e-11
-2.46243e-11
4.43132e-11
-3.27876e-11
6.3834e-11
-4.37872e-11
8.54406e-11
-6.05984e-11
1.32534e-10
-8.45352e-11
1.87096e-10
-1.25369e-10
3.27696e-10
-1.88456e-10
5.01345e-10
-3.16557e-10
1.08305e-09
-5.388e-10
1.88553e-09
-1.09585e-09
5.91178e-09
-2.09653e-09
1.22522e-08
-2.72489e-09
5.93332e-08
-1.98442e-09
5.10741e-08
-1.33023e-07
1.56602e-09
-1.34588e-07
2.54429e-09
5.00959e-08
2.15271e-09
5.97248e-08
1.1542e-09
1.32507e-08
5.81651e-10
6.48437e-09
3.4379e-10
2.12337e-09
2.06105e-10
1.22072e-09
1.37345e-10
5.70125e-10
9.28673e-11
3.72171e-10
6.66324e-11
2.13321e-10
4.82307e-11
1.50958e-10
3.61472e-11
9.7511e-11
2.71901e-11
7.2791e-11
2.0883e-11
5.06538e-11
1.6033e-11
3.91309e-11
1.2456e-11
2.85491e-11
9.64307e-12
2.24819e-11
7.50586e-12
1.68872e-11
5.80592e-12
1.33857e-11
4.4927e-12
1.01757e-11
3.4458e-12
8.03018e-12
2.63163e-12
6.09911e-12
1.98549e-12
4.73073e-12
1.4833e-12
3.53389e-12
1.0863e-12
2.67788e-12
7.76054e-13
1.95481e-12
5.27941e-13
1.44654e-12
3.26735e-13
1.05241e-12
1.54861e-13
8.08268e-13
-1.91974e-15
6.96199e-13
-1.5885e-13
6.84818e-13
-3.30865e-13
7.89716e-13
-5.31733e-13
1.06634e-12
-7.79465e-13
1.45477e-12
-1.08976e-12
1.92708e-12
-1.48645e-12
2.68845e-12
-1.98835e-12
3.55951e-12
-2.63429e-12
4.7096e-12
-3.44767e-12
6.10326e-12
-4.49403e-12
8.03434e-12
-5.8067e-12
1.01445e-11
-7.50579e-12
1.3387e-11
-9.64246e-12
1.68929e-11
-1.24553e-11
2.24527e-11
-1.6032e-11
2.8567e-11
-2.08813e-11
3.91374e-11
-2.71881e-11
5.06197e-11
-3.61445e-11
7.27913e-11
-4.82275e-11
9.75224e-11
-6.66291e-11
1.50936e-10
-9.28637e-11
2.13337e-10
-1.37342e-10
3.72178e-10
-2.06101e-10
5.701e-10
-3.43787e-10
1.22073e-09
-5.81648e-10
2.12339e-09
-1.1542e-09
6.48434e-09
-2.15271e-09
1.32507e-08
-2.54428e-09
5.97247e-08
-1.56601e-09
5.00958e-08
-1.34589e-07
1.15517e-09
-1.35743e-07
2.35791e-09
4.88931e-08
2.19907e-09