/*--------------------------------*- C++ -*----------------------------------*\
| =========                 |                                                 |
| \\      /  F ield         | foam-extend: Open Source CFD                    |
|  \\    /   O peration     | Version:     4.0                                |
|   \\  /    A nd           | Web:         http://www.foam-extend.org         |
|    \\/     M anipulation  |                                                 |
\*---------------------------------------------------------------------------*/
FoamFile
{
    version     2.0;
    format      ascii;
    class       volVectorField;
    location    "10";
    object      U;
}
// * * * * * * * * * * * * * * * * * * * * * * * * * * * * * * * * * * * * * //

dimensions      [0 1 -1 0 0 0 0];

internalField   nonuniform List<vector> 
6960
(
(-1.90493e-06 -234.172 0)
(-1.27951e-06 -234.164 0)
(1.00286e-06 -234.164 0)
(4.23389e-07 -234.164 0)
(9.40609e-08 -234.164 0)
(6.13694e-08 -234.164 0)
(2.80623e-08 -234.164 0)
(2.03212e-08 -234.164 0)
(1.16759e-08 -234.164 0)
(8.85673e-09 -234.164 0)
(5.62529e-09 -234.164 0)
(4.33485e-09 -234.164 0)
(2.8674e-09 -234.164 0)
(2.18867e-09 -234.164 0)
(1.44308e-09 -234.164 0)
(1.05836e-09 -234.164 0)
(6.57479e-10 -234.164 0)
(4.35031e-10 -234.164 0)
(2.17487e-10 -234.164 0)
(9.38589e-11 -234.164 0)
(-1.76324e-11 -234.164 0)
(-7.68301e-11 -234.164 0)
(-1.23952e-10 -234.164 0)
(-1.4033e-10 -234.164 0)
(-1.46049e-10 -234.164 0)
(-1.34544e-10 -234.164 0)
(-1.16067e-10 -234.164 0)
(-8.74052e-11 -234.164 0)
(-5.53625e-11 -234.164 0)
(-1.86822e-11 -234.164 0)
(1.85141e-11 -234.164 0)
(5.47715e-11 -234.164 0)
(8.64578e-11 -234.164 0)
(1.16051e-10 -234.164 0)
(1.34213e-10 -234.164 0)
(1.45127e-10 -234.164 0)
(1.40209e-10 -234.164 0)
(1.23333e-10 -234.164 0)
(7.61052e-11 -234.164 0)
(1.79519e-11 -234.164 0)
(-9.42505e-11 -234.164 0)
(-2.17925e-10 -234.164 0)
(-4.34243e-10 -234.164 0)
(-6.57214e-10 -234.164 0)
(-1.05874e-09 -234.164 0)
(-1.44248e-09 -234.164 0)
(-2.18812e-09 -234.164 0)
(-2.86731e-09 -234.164 0)
(-4.33382e-09 -234.164 0)
(-5.62487e-09 -234.164 0)
(-8.85684e-09 -234.164 0)
(-1.16751e-08 -234.164 0)
(-2.03208e-08 -234.164 0)
(-2.80622e-08 -234.164 0)
(-6.13682e-08 -234.164 0)
(-9.40603e-08 -234.164 0)
(-4.23388e-07 -234.164 0)
(-1.00286e-06 -234.164 0)
(1.27952e-06 -234.164 0)
(1.90494e-06 -234.172 0)
(0.000225382 14.667 0)
(0.000227267 14.6742 0)
(2.97795e-06 14.6742 0)
(1.23634e-06 14.6742 0)
(2.86779e-07 14.6742 0)
(1.84849e-07 14.6742 0)
(8.53695e-08 14.6742 0)
(6.14882e-08 14.6742 0)
(3.55927e-08 14.6742 0)
(2.69248e-08 14.6742 0)
(1.72374e-08 14.6742 0)
(1.32929e-08 14.6742 0)
(8.87646e-09 14.6742 0)
(6.80849e-09 14.6742 0)
(4.5709e-09 14.6742 0)
(3.38492e-09 14.6742 0)
(2.17926e-09 14.6742 0)
(1.50122e-09 14.6742 0)
(8.2786e-10 14.6742 0)
(4.4778e-10 14.6742 0)
(1.0609e-10 14.6742 0)
(-9.66148e-11 14.6742 0)
(-2.46828e-10 14.6742 0)
(-3.06368e-10 14.6742 0)
(-3.4958e-10 14.6742 0)
(-3.26334e-10 14.6742 0)
(-2.82273e-10 14.6742 0)
(-2.23869e-10 14.6742 0)
(-1.36703e-10 14.6742 0)
(-2.96592e-11 14.6742 0)
(7.30548e-12 14.6742 0)
(1.41192e-10 14.6742 0)
(2.67809e-10 14.6742 0)
(2.35462e-10 14.6742 0)
(3.25332e-10 14.6742 0)
(3.93579e-10 14.6742 0)
(2.59274e-10 14.6742 0)
(2.45014e-10 14.6742 0)
(1.41202e-10 14.6742 0)
(-1.51928e-10 14.6742 0)
(-4.48918e-10 14.6742 0)
(-7.82454e-10 14.6742 0)
(-1.54569e-09 14.6742 0)
(-2.17846e-09 14.6742 0)
(-3.33929e-09 14.6742 0)
(-4.61586e-09 14.6742 0)
(-6.80689e-09 14.6742 0)
(-8.82945e-09 14.6742 0)
(-1.33366e-08 14.6742 0)
(-1.72361e-08 14.6742 0)
(-2.68784e-08 14.6742 0)
(-3.56372e-08 14.6742 0)
(-6.14868e-08 14.6742 0)
(-8.53225e-08 14.6742 0)
(-1.84892e-07 14.6742 0)
(-2.86777e-07 14.6742 0)
(-1.23629e-06 14.6742 0)
(-2.97799e-06 14.6742 0)
(-0.000227267 14.6742 0)
(-0.000225382 14.667 0)
(0.000194406 41.9752 0)
(0.000197284 41.9715 0)
(4.64462e-06 41.9715 0)
(2.01179e-06 41.9715 0)
(4.85359e-07 41.9715 0)
(3.10448e-07 41.9715 0)
(1.4459e-07 41.9715 0)
(1.03753e-07 41.9715 0)
(6.04224e-08 41.9715 0)
(4.56528e-08 41.9715 0)
(2.94224e-08 41.9715 0)
(2.27083e-08 41.9715 0)
(1.53127e-08 41.9715 0)
(1.17954e-08 41.9715 0)
(8.03377e-09 41.9715 0)
(6.02571e-09 41.9715 0)
(3.98896e-09 41.9715 0)
(2.82564e-09 41.9715 0)
(1.68921e-09 41.9715 0)
(1.02593e-09 41.9715 0)
(4.29095e-10 41.9715 0)
(7.39971e-11 41.9715 0)
(-2.05054e-10 41.9715 0)
(-3.34583e-10 41.9715 0)
(-4.24845e-10 41.9715 0)
(-4.17411e-10 41.9715 0)
(-3.75434e-10 41.9715 0)
(-2.98051e-10 41.9715 0)
(-1.875e-10 41.9715 0)
(-4.90315e-11 41.9715 0)
(2.88815e-11 41.9715 0)
(1.9006e-10 41.9715 0)
(3.3459e-10 41.9715 0)
(3.34079e-10 41.9715 0)
(4.15698e-10 41.9715 0)
(4.61499e-10 41.9715 0)
(2.92818e-10 41.9715 0)
(2.02097e-10 41.9715 0)
(-3.63739e-11 41.9715 0)
(-4.68872e-10 41.9715 0)
(-1.02778e-09 41.9715 0)
(-1.65024e-09 41.9715 0)
(-2.86318e-09 41.9715 0)
(-3.98767e-09 41.9715 0)
(-5.98631e-09 41.9715 0)
(-8.07202e-09 41.9715 0)
(-1.17929e-08 41.9715 0)
(-1.52711e-08 41.9715 0)
(-2.27445e-08 41.9715 0)
(-2.94203e-08 41.9715 0)
(-4.5612e-08 41.9715 0)
(-6.04599e-08 41.9715 0)
(-1.03751e-07 41.9715 0)
(-1.44548e-07 41.9715 0)
(-3.10483e-07 41.9715 0)
(-4.85356e-07 41.9715 0)
(-2.01175e-06 41.9715 0)
(-4.64466e-06 41.9715 0)
(-0.000197284 41.9715 0)
(-0.000194406 41.9752 0)
(9.01635e-05 10.0723 0)
(9.38802e-05 10.0684 0)
(6.09685e-06 10.0684 0)
(2.73155e-06 10.0684 0)
(6.88851e-07 10.0684 0)
(4.37833e-07 10.0684 0)
(2.05622e-07 10.0684 0)
(1.47056e-07 10.0684 0)
(8.61362e-08 10.0684 0)
(6.50097e-08 10.0684 0)
(4.21594e-08 10.0684 0)
(3.25659e-08 10.0684 0)
(2.21542e-08 10.0684 0)
(1.71322e-08 10.0684 0)
(1.18194e-08 10.0684 0)
(8.96054e-09 10.0684 0)
(6.07114e-09 10.0684 0)
(4.39751e-09 10.0684 0)
(2.78313e-09 10.0684 0)
(1.81479e-09 10.0684 0)
(9.42907e-10 10.0684 0)
(4.19173e-10 10.0684 0)
(-9.21027e-12 10.0684 0)
(-2.30235e-10 10.0684 0)
(-3.84133e-10 10.0684 0)
(-4.14542e-10 10.0684 0)
(-3.96732e-10 10.0684 0)
(-3.17978e-10 10.0684 0)
(-2.07572e-10 10.0684 0)
(-6.34525e-11 10.0684 0)
(5.23801e-11 10.0684 0)
(2.06199e-10 10.0684 0)
(3.32268e-10 10.0684 0)
(3.75638e-10 10.0684 0)
(4.12072e-10 10.0684 0)
(3.98624e-10 10.0684 0)
(2.08658e-10 10.0684 0)
(5.15937e-12 10.0684 0)
(-4.03355e-10 10.0684 0)
(-9.61825e-10 10.0684 0)
(-1.8173e-09 10.0684 0)
(-2.76543e-09 10.0684 0)
(-4.4134e-09 10.0684 0)
(-6.06941e-09 10.0684 0)
(-8.94215e-09 10.0684 0)
(-1.18362e-08 10.0684 0)
(-1.71288e-08 10.0684 0)
(-2.21329e-08 10.0684 0)
(-3.25799e-08 10.0684 0)
(-4.21564e-08 10.0684 0)
(-6.49893e-08 10.0684 0)
(-8.61518e-08 10.0684 0)
(-1.47053e-07 10.0684 0)
(-2.056e-07 10.0684 0)
(-4.37846e-07 10.0684 0)
(-6.88846e-07 10.0684 0)
(-2.73152e-06 10.0684 0)
(-6.09687e-06 10.0684 0)
(-9.38802e-05 10.0684 0)
(-9.01635e-05 10.0723 0)
(5.65202e-05 -1.50129 0)
(6.10583e-05 -1.50183 0)
(7.47591e-06 -1.50184 0)
(3.39985e-06 -1.50184 0)
(8.96647e-07 -1.50184 0)
(5.66754e-07 -1.50184 0)
(2.68392e-07 -1.50184 0)
(1.91342e-07 -1.50184 0)
(1.12699e-07 -1.50184 0)
(8.49537e-08 -1.50184 0)
(5.54121e-08 -1.50184 0)
(4.28314e-08 -1.50184 0)
(2.93605e-08 -1.50184 0)
(2.27809e-08 -1.50184 0)
(1.58933e-08 -1.50184 0)
(1.21484e-08 -1.50184 0)
(8.38874e-09 -1.50184 0)
(6.18394e-09 -1.50184 0)
(4.07169e-09 -1.50184 0)
(2.78134e-09 -1.50184 0)
(1.61981e-09 -1.50184 0)
(9.07119e-10 -1.50184 0)
(3.14811e-10 -1.50184 0)
(-1.30614e-11 -1.50184 0)
(-2.50501e-10 -1.50184 0)
(-3.34213e-10 -1.50184 0)
(-3.55933e-10 -1.50184 0)
(-2.96236e-10 -1.50184 0)
(-2.00623e-10 -1.50184 0)
(-6.3847e-11 -1.50184 0)
(5.51088e-11 -1.50184 0)
(1.97222e-10 -1.50184 0)
(3.02537e-10 -1.50184 0)
(3.40788e-10 -1.50184 0)
(3.30921e-10 -1.50184 0)
(2.57108e-10 -1.50184 0)
(-2.55262e-12 -1.50184 0)
(-3.19903e-10 -1.50184 0)
(-8.98843e-10 -1.50184 0)
(-1.63219e-09 -1.50184 0)
(-2.78445e-09 -1.50184 0)
(-4.06098e-09 -1.50184 0)
(-6.19253e-09 -1.50184 0)
(-8.38661e-09 -1.50184 0)
(-1.21367e-08 -1.50184 0)
(-1.59027e-08 -1.50184 0)
(-2.27768e-08 -1.50184 0)
(-2.93453e-08 -1.50184 0)
(-4.28374e-08 -1.50184 0)
(-5.54083e-08 -1.50184 0)
(-8.49394e-08 -1.50184 0)
(-1.12707e-07 -1.50184 0)
(-1.91337e-07 -1.50184 0)
(-2.68376e-07 -1.50184 0)
(-5.66759e-07 -1.50184 0)
(-8.96641e-07 -1.50184 0)
(-3.39983e-06 -1.50184 0)
(-7.47592e-06 -1.50184 0)
(-6.10583e-05 -1.50183 0)
(-5.65202e-05 -1.50129 0)
(6.06626e-05 -0.827285 0)
(6.59836e-05 -0.826791 0)
(8.77504e-06 -0.826792 0)
(4.03049e-06 -0.826801 0)
(1.10823e-06 -0.826801 0)
(6.96998e-07 -0.826802 0)
(3.32849e-07 -0.826802 0)
(2.36568e-07 -0.826802 0)
(1.40081e-07 -0.826802 0)
(1.05455e-07 -0.826802 0)
(6.91505e-08 -0.826802 0)
(5.3472e-08 -0.826802 0)
(3.68994e-08 -0.826802 0)
(2.87076e-08 -0.826802 0)
(2.02203e-08 -0.826802 0)
(1.55556e-08 -0.826802 0)
(1.09078e-08 -0.826802 0)
(8.15098e-09 -0.826802 0)
(5.5236e-09 -0.826802 0)
(3.89505e-09 -0.826802 0)
(2.43045e-09 -0.826802 0)
(1.51209e-09 -0.826802 0)
(7.4297e-10 -0.826802 0)
(2.94867e-10 -0.826802 0)
(-4.16115e-11 -0.826802 0)
(-1.91744e-10 -0.826802 0)
(-2.65845e-10 -0.826802 0)
(-2.40786e-10 -0.826802 0)
(-1.72361e-10 -0.826802 0)
(-5.44657e-11 -0.826802 0)
(4.44467e-11 -0.826802 0)
(1.67933e-10 -0.826802 0)
(2.4672e-10 -0.826802 0)
(2.48972e-10 -0.826802 0)
(1.87567e-10 -0.826802 0)
(4.79602e-11 -0.826802 0)
(-3.12096e-10 -0.826802 0)
(-7.49041e-10 -0.826802 0)
(-1.50372e-09 -0.826802 0)
(-2.44396e-09 -0.826802 0)
(-3.89871e-09 -0.826802 0)
(-5.51223e-09 -0.826802 0)
(-8.15999e-09 -0.826802 0)
(-1.09053e-08 -0.826802 0)
(-1.5543e-08 -0.826802 0)
(-2.02302e-08 -0.826802 0)
(-2.87027e-08 -0.826802 0)
(-3.68827e-08 -0.826802 0)
(-5.34776e-08 -0.826802 0)
(-6.91458e-08 -0.826802 0)
(-1.05439e-07 -0.826802 0)
(-1.40089e-07 -0.826802 0)
(-2.36563e-07 -0.826802 0)
(-3.32832e-07 -0.826802 0)
(-6.97003e-07 -0.826802 0)
(-1.10822e-06 -0.826801 0)
(-4.03047e-06 -0.826801 0)
(-8.77505e-06 -0.826792 0)
(-6.59836e-05 -0.826791 0)
(-6.06626e-05 -0.827285 0)
(6.11293e-05 0.349822 0)
(6.71501e-05 0.349995 0)
(9.95512e-06 0.349994 0)
(4.62859e-06 0.349984 0)
(1.32307e-06 0.349984 0)
(8.28377e-07 0.349984 0)
(3.9896e-07 0.349984 0)
(2.82709e-07 0.349984 0)
(1.68266e-07 0.349984 0)
(1.26495e-07 0.349984 0)
(8.33545e-08 0.349984 0)
(6.44637e-08 0.349984 0)
(4.4748e-08 0.349984 0)
(3.48866e-08 0.349984 0)
(2.47735e-08 0.349984 0)
(1.91565e-08 0.349984 0)
(1.36019e-08 0.349984 0)
(1.02716e-08 0.349984 0)
(7.11455e-09 0.349984 0)
(5.13178e-09 0.349984 0)
(3.35118e-09 0.349984 0)
(2.21396e-09 0.349984 0)
(1.25614e-09 0.349984 0)
(6.75611e-10 0.349984 0)
(2.28787e-10 0.349984 0)
(6.63481e-13 0.349984 0)
(-1.37024e-10 0.349984 0)
(-1.57656e-10 0.349984 0)
(-1.27553e-10 0.349984 0)
(-3.98766e-11 0.349984 0)
(2.88707e-11 0.349984 0)
(1.21963e-10 0.349984 0)
(1.62445e-10 0.349984 0)
(1.19145e-10 0.349984 0)
(-5.77096e-12 0.349984 0)
(-2.23454e-10 0.349984 0)
(-6.93667e-10 0.349984 0)
(-1.26314e-09 0.349984 0)
(-2.20625e-09 0.349984 0)
(-3.36511e-09 0.349984 0)
(-5.13594e-09 0.349984 0)
(-7.10326e-09 0.349984 0)
(-1.02804e-08 0.349984 0)
(-1.35992e-08 0.349984 0)
(-1.91437e-08 0.349984 0)
(-2.4783e-08 0.349984 0)
(-3.48812e-08 0.349984 0)
(-4.47306e-08 0.349984 0)
(-6.44684e-08 0.349984 0)
(-8.33489e-08 0.349984 0)
(-1.26478e-07 0.349984 0)
(-1.68273e-07 0.349984 0)
(-2.82702e-07 0.349984 0)
(-3.98942e-07 0.349984 0)
(-8.2838e-07 0.349984 0)
(-1.32306e-06 0.349984 0)
(-4.62857e-06 0.349984 0)
(-9.95512e-06 0.349994 0)
(-6.71501e-05 0.349995 0)
(-6.11293e-05 0.349822 0)
(5.44523e-05 0.366617 0)
(6.10874e-05 0.366563 0)
(1.10124e-05 0.366561 0)
(5.19243e-06 0.366551 0)
(1.5406e-06 0.36655 0)
(9.6071e-07 0.36655 0)
(4.66696e-07 0.36655 0)
(3.29746e-07 0.36655 0)
(1.97247e-07 0.36655 0)
(1.48062e-07 0.36655 0)
(9.80128e-08 0.36655 0)
(7.57925e-08 0.36655 0)
(5.28906e-08 0.36655 0)
(4.13007e-08 0.36655 0)
(2.95346e-08 0.36655 0)
(2.29324e-08 0.36655 0)
(1.64521e-08 0.36655 0)
(1.25269e-08 0.36655 0)
(8.82622e-09 0.36655 0)
(6.47384e-09 0.36655 0)
(4.3652e-09 0.36655 0)
(2.99727e-09 0.36655 0)
(1.84017e-09 0.36655 0)
(1.11649e-09 0.36655 0)
(5.49886e-10 0.36655 0)
(2.33946e-10 0.36655 0)
(2.33019e-11 0.36655 0)
(-5.19258e-11 0.36655 0)
(-6.93496e-11 0.36655 0)
(-2.13961e-11 0.36655 0)
(1.00111e-11 0.36655 0)
(6.23828e-11 0.36655 0)
(5.40919e-11 0.36655 0)
(-4.07604e-11 0.36655 0)
(-2.4001e-10 0.36655 0)
(-5.47019e-10 0.36655 0)
(-1.13391e-09 0.36655 0)
(-1.84806e-09 0.36655 0)
(-2.99167e-09 0.36655 0)
(-4.37813e-09 0.36655 0)
(-6.47845e-09 0.36655 0)
(-8.81644e-09 0.36655 0)
(-1.25341e-08 0.36655 0)
(-1.64491e-08 0.36655 0)
(-2.29208e-08 0.36655 0)
(-2.95423e-08 0.36655 0)
(-4.12947e-08 0.36655 0)
(-5.28741e-08 0.36655 0)
(-7.57947e-08 0.36655 0)
(-9.80063e-08 0.36655 0)
(-1.48046e-07 0.36655 0)
(-1.97252e-07 0.36655 0)
(-3.29739e-07 0.36655 0)
(-4.66678e-07 0.36655 0)
(-9.6071e-07 0.36655 0)
(-1.54059e-06 0.36655 0)
(-5.19241e-06 0.366551 0)
(-1.10124e-05 0.366561 0)
(-6.10874e-05 0.366563 0)
(-5.44523e-05 0.366617 0)
(4.72868e-05 0.158522 0)
(5.44623e-05 0.158485 0)
(1.19573e-05 0.158484 0)
(5.72045e-06 0.158473 0)
(1.76023e-06 0.158472 0)
(1.09382e-06 0.158472 0)
(5.36033e-07 0.158472 0)
(3.7767e-07 0.158472 0)
(2.27024e-07 0.158472 0)
(1.70155e-07 0.158472 0)
(1.13121e-07 0.158472 0)
(8.74514e-08 0.158472 0)
(6.13186e-08 0.158472 0)
(4.79398e-08 0.158472 0)
(3.44926e-08 0.158472 0)
(2.68712e-08 0.158472 0)
(1.9446e-08 0.158472 0)
(1.49046e-08 0.158472 0)
(1.06462e-08 0.158472 0)
(7.90932e-09 0.158472 0)
(5.46135e-09 0.158472 0)
(3.8513e-09 0.158472 0)
(2.48538e-09 0.158472 0)
(1.60903e-09 0.158472 0)
(9.14065e-10 0.158472 0)
(5.01856e-10 0.158472 0)
(2.10358e-10 0.158472 0)
(7.27155e-11 0.158472 0)
(1.86564e-13 0.158472 0)
(7.56714e-13 0.158472 0)
(-1.25407e-11 0.158472 0)
(-8.56322e-12 0.158472 0)
(-7.32908e-11 0.158472 0)
(-2.27319e-10 0.158472 0)
(-5.08914e-10 0.158472 0)
(-9.13769e-10 0.158472 0)
(-1.62568e-09 0.158472 0)
(-2.49415e-09 0.158472 0)
(-3.84791e-09 0.158472 0)
(-5.47318e-09 0.158472 0)
(-7.9143e-09 0.158472 0)
(-1.0638e-08 0.158472 0)
(-1.491e-08 0.158472 0)
(-1.94428e-08 0.158472 0)
(-2.68609e-08 0.158472 0)
(-3.44984e-08 0.158472 0)
(-4.79333e-08 0.158472 0)
(-6.1303e-08 0.158472 0)
(-8.74512e-08 0.158472 0)
(-1.13114e-07 0.158472 0)
(-1.7014e-07 0.158472 0)
(-2.27026e-07 0.158472 0)
(-3.77662e-07 0.158472 0)
(-5.36016e-07 0.158472 0)
(-1.09382e-06 0.158472 0)
(-1.76022e-06 0.158472 0)
(-5.72043e-06 0.158473 0)
(-1.19573e-05 0.158484 0)
(-5.44622e-05 0.158485 0)
(-4.72868e-05 0.158522 0)
(4.16535e-05 0.0695553 0)
(4.92991e-05 0.069572 0)
(1.2794e-05 0.069571 0)
(6.21265e-06 0.069559 0)
(1.98131e-06 0.0695584 0)
(1.2275e-06 0.069558 0)
(6.0694e-07 0.069558 0)
(4.26472e-07 0.0695579 0)
(2.57601e-07 0.0695579 0)
(1.92775e-07 0.0695579 0)
(1.28681e-07 0.0695579 0)
(9.94391e-08 0.0695579 0)
(7.00288e-08 0.0695579 0)
(5.4799e-08 0.0695579 0)
(3.96418e-08 0.0695579 0)
(3.0966e-08 0.0695579 0)
(2.25766e-08 0.0695579 0)
(1.73972e-08 0.0695579 0)
(1.25668e-08 0.0695579 0)
(9.43081e-09 0.0695579 0)
(6.63257e-09 0.0695579 0)
(4.76931e-09 0.0695579 0)
(3.18564e-09 0.0695579 0)
(2.14775e-09 0.0695579 0)
(1.3165e-09 0.0695579 0)
(8.0039e-10 0.0695579 0)
(4.21011e-10 0.0695579 0)
(2.13935e-10 0.0695579 0)
(7.96979e-11 0.0695579 0)
(2.62741e-11 0.0695579 0)
(-3.86661e-11 0.0695579 0)
(-8.94531e-11 0.0695579 0)
(-2.16948e-10 0.0695579 0)
(-4.37817e-10 0.0695579 0)
(-8.08479e-10 0.0695579 0)
(-1.31845e-09 0.0695579 0)
(-2.16391e-09 0.0695579 0)
(-3.19525e-09 0.0695579 0)
(-4.76786e-09 0.0695579 0)
(-6.64361e-09 0.0695579 0)
(-9.43609e-09 0.0695579 0)
(-1.256e-08 0.0695579 0)
(-1.74013e-08 0.0695579 0)
(-2.25732e-08 0.0695579 0)
(-3.09567e-08 0.0695579 0)
(-3.9646e-08 0.0695579 0)
(-5.4792e-08 0.0695579 0)
(-7.0014e-08 0.0695579 0)
(-9.94367e-08 0.0695579 0)
(-1.28673e-07 0.0695579 0)
(-1.92759e-07 0.0695579 0)
(-2.57601e-07 0.0695579 0)
(-4.26463e-07 0.0695579 0)
(-6.06923e-07 0.069558 0)
(-1.2275e-06 0.069558 0)
(-1.9813e-06 0.0695584 0)
(-6.21263e-06 0.069559 0)
(-1.2794e-05 0.069571 0)
(-4.92991e-05 0.069572 0)
(-4.16535e-05 0.0695553 0)
(3.68251e-05 0.0467828 0)
(4.48694e-05 0.0468182 0)
(1.3522e-05 0.0468175 0)
(6.66917e-06 0.0468049 0)
(2.2031e-06 0.0468041 0)
(1.36154e-06 0.0468037 0)
(6.79374e-07 0.0468037 0)
(4.76141e-07 0.0468036 0)
(2.88982e-07 0.0468036 0)
(2.15925e-07 0.0468036 0)
(1.44696e-07 0.0468036 0)
(1.11757e-07 0.0468036 0)
(7.90216e-08 0.0468036 0)
(6.18771e-08 0.0468036 0)
(4.49799e-08 0.0468036 0)
(3.52139e-08 0.0468036 0)
(2.58401e-08 0.0468036 0)
(2.00007e-08 0.0468036 0)
(1.45841e-08 0.0468036 0)
(1.1034e-08 0.0468036 0)
(7.87467e-09 0.0468036 0)
(5.74735e-09 0.0468036 0)
(3.93724e-09 0.0468036 0)
(2.72929e-09 0.0468036 0)
(1.75428e-09 0.0468036 0)
(1.1271e-09 0.0468036 0)
(6.53302e-10 0.0468036 0)
(3.70322e-10 0.0468036 0)
(1.6831e-10 0.0468036 0)
(5.4835e-11 0.0468036 0)
(-6.79542e-11 0.0468036 0)
(-1.79444e-10 0.0468036 0)
(-3.75625e-10 0.0468036 0)
(-6.70135e-10 0.0468036 0)
(-1.13625e-09 0.0468036 0)
(-1.75831e-09 0.0468036 0)
(-2.74511e-09 0.0468036 0)
(-3.94767e-09 0.0468036 0)
(-5.74769e-09 0.0468036 0)
(-7.88511e-09 0.0468036 0)
(-1.10396e-08 0.0468036 0)
(-1.45783e-08 0.0468036 0)
(-2.00037e-08 0.0468036 0)
(-2.58365e-08 0.0468036 0)
(-3.52054e-08 0.0468036 0)
(-4.49826e-08 0.0468036 0)
(-6.18697e-08 0.0468036 0)
(-7.90073e-08 0.0468036 0)
(-1.11753e-07 0.0468036 0)
(-1.44686e-07 0.0468036 0)
(-2.1591e-07 0.0468036 0)
(-2.88979e-07 0.0468036 0)
(-4.7613e-07 0.0468036 0)
(-6.79357e-07 0.0468037 0)
(-1.36154e-06 0.0468037 0)
(-2.20309e-06 0.0468041 0)
(-6.66915e-06 0.0468049 0)
(-1.3522e-05 0.0468175 0)
(-4.48694e-05 0.0468182 0)
(-3.68251e-05 0.0467828 0)
(3.22626e-05 0.0337608 0)
(4.06334e-05 0.0337994 0)
(1.41408e-05 0.033799 0)
(7.08963e-06 0.033786 0)
(2.42478e-06 0.0337851 0)
(1.49568e-06 0.0337846 0)
(7.53275e-07 0.0337845 0)
(5.26658e-07 0.0337845 0)
(3.21168e-07 0.0337845 0)
(2.3961e-07 0.0337844 0)
(1.61169e-07 0.0337844 0)
(1.24408e-07 0.0337844 0)
(8.82989e-08 0.0337844 0)
(6.9175e-08 0.0337844 0)
(5.05068e-08 0.0337844 0)
(3.9614e-08 0.0337844 0)
(2.92351e-08 0.0337844 0)
(2.27132e-08 0.0337844 0)
(1.66957e-08 0.0337844 0)
(1.27167e-08 0.0337844 0)
(9.18532e-09 0.0337844 0)
(6.78317e-09 0.0337844 0)
(4.73802e-09 0.0337844 0)
(3.35166e-09 0.0337844 0)
(2.22568e-09 0.0337844 0)
(1.48053e-09 0.0337844 0)
(9.06062e-10 0.0337844 0)
(5.41044e-10 0.0337844 0)
(2.6549e-10 0.0337844 0)
(8.62292e-11 0.0337844 0)
(-1.00129e-10 0.0337844 0)
(-2.78023e-10 0.0337844 0)
(-5.48588e-10 0.0337844 0)
(-9.22977e-10 0.0337844 0)
(-1.49074e-09 0.0337844 0)
(-2.23174e-09 0.0337844 0)
(-3.36718e-09 0.0337844 0)
(-4.74924e-09 0.0337844 0)
(-6.78524e-09 0.0337844 0)
(-9.19524e-09 0.0337844 0)
(-1.27225e-08 0.0337844 0)
(-1.66911e-08 0.0337844 0)
(-2.27153e-08 0.0337844 0)
(-2.92314e-08 0.0337844 0)
(-3.96062e-08 0.0337844 0)
(-5.05081e-08 0.0337844 0)
(-6.91672e-08 0.0337844 0)
(-8.82851e-08 0.0337844 0)
(-1.24402e-07 0.0337844 0)
(-1.61159e-07 0.0337844 0)
(-2.39594e-07 0.0337844 0)
(-3.21163e-07 0.0337845 0)
(-5.26646e-07 0.0337845 0)
(-7.53259e-07 0.0337845 0)
(-1.49567e-06 0.0337846 0)
(-2.42477e-06 0.0337851 0)
(-7.08961e-06 0.033786 0)
(-1.41408e-05 0.033799 0)
(-4.06334e-05 0.0337994 0)
(-3.22625e-05 0.0337608 0)
(2.79281e-05 0.0218125 0)
(3.65542e-05 0.0218543 0)
(1.46512e-05 0.0218543 0)
(7.47333e-06 0.0218408 0)
(2.64545e-06 0.0218398 0)
(1.62962e-06 0.0218392 0)
(8.28563e-07 0.0218391 0)
(5.77996e-07 0.021839 0)
(3.54155e-07 0.021839 0)
(2.6383e-07 0.021839 0)
(1.78106e-07 0.021839 0)
(1.37396e-07 0.021839 0)
(9.78635e-08 0.021839 0)
(7.66943e-08 0.021839 0)
(5.62234e-08 0.021839 0)
(4.41665e-08 0.021839 0)
(3.27613e-08 0.021839 0)
(2.5534e-08 0.021839 0)
(1.89008e-08 0.021839 0)
(1.44777e-08 0.021839 0)
(1.05633e-08 0.021839 0)
(7.87548e-09 0.021839 0)
(5.58673e-09 0.021839 0)
(4.01366e-09 0.021839 0)
(2.72966e-09 0.021839 0)
(1.85977e-09 0.021839 0)
(1.17857e-09 0.021839 0)
(7.25597e-10 0.021839 0)
(3.70915e-10 0.021839 0)
(1.20329e-10 0.021839 0)
(-1.35068e-10 0.021839 0)
(-3.84851e-10 0.021839 0)
(-7.35321e-10 0.021839 0)
(-1.19562e-09 0.021839 0)
(-1.87103e-09 0.021839 0)
(-2.7377e-09 0.021839 0)
(-4.02897e-09 0.021839 0)
(-5.59872e-09 0.021839 0)
(-7.87922e-09 0.021839 0)
(-1.05727e-08 0.021839 0)
(-1.44837e-08 0.021839 0)
(-1.88972e-08 0.021839 0)
(-2.55352e-08 0.021839 0)
(-3.27576e-08 0.021839 0)
(-4.41594e-08 0.021839 0)
(-5.62234e-08 0.021839 0)
(-7.66861e-08 0.021839 0)
(-9.78502e-08 0.021839 0)
(-1.37388e-07 0.021839 0)
(-1.78095e-07 0.021839 0)
(-2.63814e-07 0.021839 0)
(-3.54148e-07 0.021839 0)
(-5.77983e-07 0.021839 0)
(-8.28547e-07 0.0218391 0)
(-1.62961e-06 0.0218392 0)
(-2.64543e-06 0.0218398 0)
(-7.47331e-06 0.0218408 0)
(-1.46512e-05 0.0218543 0)
(-3.65541e-05 0.0218543 0)
(-2.79281e-05 0.0218125 0)
(2.3872e-05 0.013386 0)
(3.26835e-05 0.0134319 0)
(1.50548e-05 0.0134322 0)
(7.81946e-06 0.0134184 0)
(2.86408e-06 0.0134172 0)
(1.76301e-06 0.0134165 0)
(9.05133e-07 0.0134164 0)
(6.30117e-07 0.0134163 0)
(3.87936e-07 0.0134163 0)
(2.88586e-07 0.0134163 0)
(1.95508e-07 0.0134163 0)
(1.50724e-07 0.0134163 0)
(1.07718e-07 0.0134163 0)
(8.44369e-08 0.0134163 0)
(6.2131e-08 0.0134163 0)
(4.88721e-08 0.0134163 0)
(3.64191e-08 0.0134163 0)
(2.84631e-08 0.0134163 0)
(2.1199e-08 0.0134163 0)
(1.63165e-08 0.0134163 0)
(1.20079e-08 0.0134163 0)
(9.02351e-09 0.0134163 0)
(6.48258e-09 0.0134163 0)
(4.71458e-09 0.0134163 0)
(3.26554e-09 0.0134163 0)
(2.26424e-09 0.0134163 0)
(1.47034e-09 0.0134163 0)
(9.2361e-10 0.0134163 0)
(4.84385e-10 0.0134163 0)
(1.57089e-10 0.0134163 0)
(-1.72719e-10 0.0134163 0)
(-4.99709e-10 0.0134163 0)
(-9.35462e-10 0.0134163 0)
(-1.48762e-09 0.0134163 0)
(-2.27656e-09 0.0134163 0)
(-3.27549e-09 0.0134163 0)
(-4.72976e-09 0.0134163 0)
(-6.49535e-09 0.0134163 0)
(-9.02885e-09 0.0134163 0)
(-1.20169e-08 0.0134163 0)
(-1.63226e-08 0.0134163 0)
(-2.11964e-08 0.0134163 0)
(-2.84635e-08 0.0134163 0)
(-3.64154e-08 0.0134163 0)
(-4.88657e-08 0.0134163 0)
(-6.21298e-08 0.0134163 0)
(-8.44283e-08 0.0134163 0)
(-1.07705e-07 0.0134163 0)
(-1.50714e-07 0.0134163 0)
(-1.95496e-07 0.0134163 0)
(-2.88569e-07 0.0134163 0)
(-3.87927e-07 0.0134163 0)
(-6.30103e-07 0.0134163 0)
(-9.05117e-07 0.0134164 0)
(-1.763e-06 0.0134165 0)
(-2.86407e-06 0.0134172 0)
(-7.81944e-06 0.0134184 0)
(-1.50547e-05 0.0134322 0)
(-3.26835e-05 0.0134319 0)
(-2.3872e-05 0.013386 0)
(2.00911e-05 0.00838214 0)
(2.90203e-05 0.00843128 0)
(1.53533e-05 0.00843196 0)
(8.12722e-06 0.00841791 0)
(3.07962e-06 0.00841663 0)
(1.89549e-06 0.00841586 0)
(9.82857e-07 0.00841574 0)
(6.82972e-07 0.00841564 0)
(4.22495e-07 0.00841561 0)
(3.13872e-07 0.00841559 0)
(2.13377e-07 0.00841558 0)
(1.64392e-07 0.00841557 0)
(1.17864e-07 0.00841557 0)
(9.24046e-08 0.00841557 0)
(6.8231e-08 0.00841557 0)
(5.37318e-08 0.00841557 0)
(4.02089e-08 0.00841556 0)
(3.15007e-08 0.00841556 0)
(2.35902e-08 0.00841556 0)
(1.82327e-08 0.00841556 0)
(1.35187e-08 0.00841556 0)
(1.02268e-08 0.00841556 0)
(7.42508e-09 0.00841556 0)
(5.45391e-09 0.00841556 0)
(3.83286e-09 0.00841556 0)
(2.69351e-09 0.00841556 0)
(1.78103e-09 0.00841556 0)
(1.13482e-09 0.00841556 0)
(6.05743e-10 0.00841556 0)
(1.96456e-10 0.00841556 0)
(-2.13018e-10 0.00841556 0)
(-6.22444e-10 0.00841556 0)
(-1.14876e-09 0.00841556 0)
(-1.79861e-09 0.00841556 0)
(-2.70694e-09 0.00841556 0)
(-3.84466e-09 0.00841556 0)
(-5.46901e-09 0.00841556 0)
(-7.43861e-09 0.00841556 0)
(-1.02337e-08 0.00841556 0)
(-1.35273e-08 0.00841556 0)
(-1.8239e-08 0.00841556 0)
(-2.35885e-08 0.00841556 0)
(-3.15003e-08 0.00841556 0)
(-4.02051e-08 0.00841556 0)
(-5.37259e-08 0.00841557 0)
(-6.82286e-08 0.00841557 0)
(-9.23956e-08 0.00841557 0)
(-1.17851e-07 0.00841557 0)
(-1.64381e-07 0.00841557 0)
(-2.13364e-07 0.00841558 0)
(-3.13855e-07 0.00841559 0)
(-4.22484e-07 0.00841561 0)
(-6.82957e-07 0.00841564 0)
(-9.8284e-07 0.00841574 0)
(-1.89547e-06 0.00841586 0)
(-3.0796e-06 0.00841663 0)
(-8.1272e-06 0.00841791 0)
(-1.53532e-05 0.00843196 0)
(-2.90202e-05 0.00843128 0)
(-2.00911e-05 0.00838214 0)
(1.65622e-05 0.00544373 0)
(2.55434e-05 0.00549499 0)
(1.55491e-05 0.00549606 0)
(8.39582e-06 0.00548186 0)
(3.29091e-06 0.00548044 0)
(2.02662e-06 0.00547957 0)
(1.06158e-06 0.00547942 0)
(7.365e-07 0.00547931 0)
(4.57811e-07 0.00547928 0)
(3.3968e-07 0.00547926 0)
(2.31709e-07 0.00547925 0)
(1.78403e-07 0.00547924 0)
(1.28303e-07 0.00547923 0)
(1.00599e-07 0.00547923 0)
(7.45245e-08 0.00547923 0)
(5.87464e-08 0.00547923 0)
(4.41313e-08 0.00547923 0)
(3.46469e-08 0.00547922 0)
(2.60746e-08 0.00547922 0)
(2.02263e-08 0.00547922 0)
(1.50955e-08 0.00547922 0)
(1.14851e-08 0.00547922 0)
(8.4139e-09 0.00547922 0)
(6.23129e-09 0.00547922 0)
(4.43127e-09 0.00547922 0)
(3.1473e-09 0.00547922 0)
(2.11038e-09 0.00547922 0)
(1.35907e-09 0.00547922 0)
(7.34874e-10 0.00547922 0)
(2.3838e-10 0.00547922 0)
(-2.55911e-10 0.00547922 0)
(-7.52941e-10 0.00547922 0)
(-1.375e-09 0.00547922 0)
(-2.12833e-09 0.00547922 0)
(-3.16186e-09 0.00547922 0)
(-4.44485e-09 0.00547922 0)
(-6.24637e-09 0.00547922 0)
(-8.42816e-09 0.00547922 0)
(-1.14934e-08 0.00547922 0)
(-1.51039e-08 0.00547922 0)
(-2.02328e-08 0.00547922 0)
(-2.60737e-08 0.00547922 0)
(-3.4646e-08 0.00547922 0)
(-4.41275e-08 0.00547923 0)
(-5.87409e-08 0.00547923 0)
(-7.4521e-08 0.00547923 0)
(-1.00589e-07 0.00547923 0)
(-1.28291e-07 0.00547923 0)
(-1.7839e-07 0.00547924 0)
(-2.31695e-07 0.00547925 0)
(-3.39663e-07 0.00547926 0)
(-4.57798e-07 0.00547928 0)
(-7.36483e-07 0.00547931 0)
(-1.06156e-06 0.00547942 0)
(-2.0266e-06 0.00547957 0)
(-3.29089e-06 0.00548044 0)
(-8.3958e-06 0.00548186 0)
(-1.55491e-05 0.00549606 0)
(-2.55433e-05 0.00549499 0)
(-1.65621e-05 0.00544373 0)
(1.32697e-05 0.00363121 0)
(2.22402e-05 0.00368392 0)
(1.56451e-05 0.00368539 0)
(8.62455e-06 0.00367111 0)
(3.49675e-06 0.00366955 0)
(2.15595e-06 0.00366859 0)
(1.14113e-06 0.00366841 0)
(7.90625e-07 0.00366829 0)
(4.93854e-07 0.00366825 0)
(3.66e-07 0.00366822 0)
(2.50502e-07 0.00366821 0)
(1.92754e-07 0.0036682 0)
(1.39036e-07 0.00366819 0)
(1.09021e-07 0.00366819 0)
(8.10124e-08 0.00366819 0)
(6.39168e-08 0.00366819 0)
(4.81869e-08 0.00366818 0)
(3.79024e-08 0.00366818 0)
(2.86522e-08 0.00366818 0)
(2.22974e-08 0.00366818 0)
(1.67382e-08 0.00366818 0)
(1.27982e-08 0.00366818 0)
(9.44879e-09 0.00366818 0)
(7.04647e-09 0.00366818 0)
(5.06054e-09 0.00366818 0)
(3.62537e-09 0.00366818 0)
(2.4582e-09 0.00366818 0)
(1.5962e-09 0.00366818 0)
(8.71677e-10 0.00366818 0)
(2.82817e-10 0.00366818 0)
(-3.01374e-10 0.00366818 0)
(-8.91103e-10 0.00366818 0)
(-1.61404e-09 0.00366818 0)
(-2.47658e-09 0.00366818 0)
(-3.64106e-09 0.00366818 0)
(-5.07583e-09 0.00366818 0)
(-7.06158e-09 0.00366818 0)
(-9.46377e-09 0.00366818 0)
(-1.28078e-08 0.00366818 0)
(-1.67464e-08 0.00366818 0)
(-2.2304e-08 0.00366818 0)
(-2.86521e-08 0.00366818 0)
(-3.79009e-08 0.00366818 0)
(-4.8183e-08 0.00366818 0)
(-6.39117e-08 0.00366819 0)
(-8.10079e-08 0.00366819 0)
(-1.09011e-07 0.00366819 0)
(-1.39023e-07 0.00366819 0)
(-1.9274e-07 0.0036682 0)
(-2.50487e-07 0.00366821 0)
(-3.65982e-07 0.00366822 0)
(-4.93839e-07 0.00366825 0)
(-7.90607e-07 0.00366829 0)
(-1.14111e-06 0.00366841 0)
(-2.15593e-06 0.00366859 0)
(-3.49674e-06 0.00366955 0)
(-8.62453e-06 0.00367111 0)
(-1.56451e-05 0.00368539 0)
(-2.22402e-05 0.00368392 0)
(-1.32697e-05 0.00363121 0)
(1.02062e-05 0.00248577 0)
(1.91063e-05 0.0025395 0)
(1.56448e-05 0.00254137 0)
(8.81281e-06 0.00252709 0)
(3.69592e-06 0.00252539 0)
(2.28298e-06 0.00252433 0)
(1.22129e-06 0.00252414 0)
(8.45262e-07 0.00252399 0)
(5.3059e-07 0.00252395 0)
(3.92815e-07 0.00252391 0)
(2.69749e-07 0.0025239 0)
(2.07444e-07 0.00252389 0)
(1.50062e-07 0.00252388 0)
(1.1767e-07 0.00252388 0)
(8.76955e-08 0.00252388 0)
(6.92436e-08 0.00252387 0)
(5.23762e-08 0.00252387 0)
(4.12673e-08 0.00252387 0)
(3.13234e-08 0.00252387 0)
(2.4446e-08 0.00252387 0)
(1.84468e-08 0.00252387 0)
(1.4166e-08 0.00252387 0)
(1.05296e-08 0.00252387 0)
(7.89929e-09 0.00252387 0)
(5.72046e-09 0.00252387 0)
(4.12757e-09 0.00252387 0)
(2.82435e-09 0.00252387 0)
(1.84613e-09 0.00252387 0)
(1.01608e-09 0.00252387 0)
(3.29752e-10 0.00252387 0)
(-3.49373e-10 0.00252387 0)
(-1.03684e-09 0.00252387 0)
(-1.86581e-09 0.00252387 0)
(-2.8432e-09 0.00252387 0)
(-4.14435e-09 0.00252387 0)
(-5.73743e-09 0.00252387 0)
(-7.91449e-09 0.00252387 0)
(-1.05453e-08 0.00252387 0)
(-1.41768e-08 0.00252387 0)
(-1.84549e-08 0.00252387 0)
(-2.44528e-08 0.00252387 0)
(-3.13239e-08 0.00252387 0)
(-4.12654e-08 0.00252387 0)
(-5.23723e-08 0.00252387 0)
(-6.92388e-08 0.00252387 0)
(-8.769e-08 0.00252388 0)
(-1.1766e-07 0.00252388 0)
(-1.5005e-07 0.00252388 0)
(-2.07429e-07 0.00252389 0)
(-2.69733e-07 0.0025239 0)
(-3.92797e-07 0.00252391 0)
(-5.30573e-07 0.00252395 0)
(-8.45243e-07 0.00252399 0)
(-1.22128e-06 0.00252414 0)
(-2.28297e-06 0.00252433 0)
(-3.6959e-06 0.00252539 0)
(-8.81278e-06 0.00252709 0)
(-1.56448e-05 0.00254137 0)
(-1.91062e-05 0.0025395 0)
(-1.02062e-05 0.00248577 0)
(7.36628e-06 0.00175923 0)
(1.61398e-05 0.00181365 0)
(1.55521e-05 0.00181593 0)
(8.96013e-06 0.00180173 0)
(3.88715e-06 0.00179989 0)
(2.40721e-06 0.00179873 0)
(1.30185e-06 0.00179851 0)
(9.00312e-07 0.00179834 0)
(5.67974e-07 0.00179829 0)
(4.20107e-07 0.00179825 0)
(2.89442e-07 0.00179824 0)
(2.2247e-07 0.00179823 0)
(1.6138e-07 0.00179822 0)
(1.26548e-07 0.00179821 0)
(9.45741e-08 0.00179821 0)
(7.47275e-08 0.00179821 0)
(5.66997e-08 0.00179821 0)
(4.47423e-08 0.00179821 0)
(3.40884e-08 0.0017982 0)
(2.66723e-08 0.0017982 0)
(2.02214e-08 0.0017982 0)
(1.55886e-08 0.0017982 0)
(1.16564e-08 0.0017982 0)
(8.78965e-09 0.0017982 0)
(6.41095e-09 0.0017982 0)
(4.6538e-09 0.0017982 0)
(3.20876e-09 0.0017982 0)
(2.10877e-09 0.0017982 0)
(1.16804e-09 0.0017982 0)
(3.79198e-10 0.0017982 0)
(-3.99889e-10 0.0017982 0)
(-1.19016e-09 0.0017982 0)
(-2.13022e-09 0.0017982 0)
(-3.2281e-09 0.0017982 0)
(-4.67166e-09 0.0017982 0)
(-6.42955e-09 0.0017982 0)
(-8.80502e-09 0.0017982 0)
(-1.16727e-08 0.0017982 0)
(-1.56006e-08 0.0017982 0)
(-2.02294e-08 0.0017982 0)
(-2.66793e-08 0.0017982 0)
(-3.40895e-08 0.0017982 0)
(-4.47399e-08 0.00179821 0)
(-5.66958e-08 0.00179821 0)