/*--------------------------------*- C++ -*----------------------------------*\
| =========                 |                                                 |
| \\      /  F ield         | foam-extend: Open Source CFD                    |
|  \\    /   O peration     | Version:     4.0                                |
|   \\  /    A nd           | Web:         http://www.foam-extend.org         |
|    \\/     M anipulation  |                                                 |
\*---------------------------------------------------------------------------*/
FoamFile
{
    version     2.0;
    format      ascii;
    class       volScalarField;
    location    "1030";
    object      cMinus;
}
// * * * * * * * * * * * * * * * * * * * * * * * * * * * * * * * * * * * * * //

dimensions      [0 0 0 0 0 0 0];

internalField   nonuniform List<scalar> 
6960
(
2.04261e-20
2.03992e-20
2.03636e-20
2.03401e-20
2.0326e-20
2.03176e-20
2.03128e-20
2.031e-20
2.03083e-20
2.03074e-20
2.03069e-20
2.03067e-20
2.03066e-20
2.03066e-20
2.03067e-20
2.03068e-20
2.0307e-20
2.03072e-20
2.03074e-20
2.03076e-20
2.03078e-20
2.0308e-20
2.03081e-20
2.03083e-20
2.03084e-20
2.03085e-20
2.03086e-20
2.03087e-20
2.03087e-20
2.03088e-20
2.03088e-20
2.03087e-20
2.03087e-20
2.03086e-20
2.03085e-20
2.03084e-20
2.03083e-20
2.03081e-20
2.0308e-20
2.03078e-20
2.03076e-20
2.03074e-20
2.03072e-20
2.0307e-20
2.03068e-20
2.03067e-20
2.03066e-20
2.03066e-20
2.03067e-20
2.03069e-20
2.03074e-20
2.03083e-20
2.031e-20
2.03128e-20
2.03176e-20
2.0326e-20
2.03401e-20
2.03636e-20
2.03992e-20
2.04261e-20
1.13548e-19
1.1345e-19
1.13289e-19
1.13181e-19
1.13116e-19
1.13077e-19
1.13055e-19
1.13042e-19
1.13034e-19
1.13031e-19
1.13029e-19
1.13028e-19
1.13028e-19
1.13029e-19
1.1303e-19
1.13032e-19
1.13033e-19
1.13035e-19
1.13036e-19
1.13038e-19
1.13039e-19
1.1304e-19
1.13042e-19
1.13043e-19
1.13044e-19
1.13045e-19
1.13045e-19
1.13046e-19
1.13046e-19
1.13046e-19
1.13046e-19
1.13046e-19
1.13046e-19
1.13045e-19
1.13045e-19
1.13044e-19
1.13043e-19
1.13042e-19
1.1304e-19
1.13039e-19
1.13038e-19
1.13036e-19
1.13035e-19
1.13033e-19
1.13032e-19
1.1303e-19
1.13029e-19
1.13028e-19
1.13028e-19
1.13029e-19
1.13031e-19
1.13034e-19
1.13042e-19
1.13055e-19
1.13077e-19
1.13116e-19
1.13181e-19
1.13289e-19
1.1345e-19
1.13548e-19
6.0816e-19
6.07943e-19
6.07304e-19
6.06864e-19
6.06592e-19
6.0643e-19
6.06334e-19
6.06279e-19
6.06249e-19
6.06234e-19
6.06227e-19
6.06227e-19
6.0623e-19
6.06236e-19
6.06243e-19
6.06251e-19
6.0626e-19
6.06269e-19
6.06278e-19
6.06286e-19
6.06295e-19
6.06302e-19
6.06309e-19
6.06315e-19
6.06321e-19
6.06325e-19
6.06329e-19
6.06332e-19
6.06334e-19
6.06335e-19
6.06335e-19
6.06334e-19
6.06332e-19
6.06329e-19
6.06325e-19
6.06321e-19
6.06315e-19
6.06309e-19
6.06302e-19
6.06295e-19
6.06286e-19
6.06278e-19
6.06269e-19
6.0626e-19
6.06251e-19
6.06243e-19
6.06236e-19
6.0623e-19
6.06227e-19
6.06227e-19
6.06234e-19
6.06249e-19
6.06279e-19
6.06334e-19
6.0643e-19
6.06592e-19
6.06864e-19
6.07304e-19
6.07943e-19
6.0816e-19
3.33484e-18
3.33542e-18
3.33321e-18
3.33159e-18
3.33056e-18
3.32992e-18
3.32955e-18
3.32933e-18
3.32921e-18
3.32916e-18
3.32914e-18
3.32915e-18
3.32918e-18
3.32922e-18
3.32927e-18
3.32932e-18
3.32937e-18
3.32942e-18
3.32947e-18
3.32952e-18
3.32957e-18
3.32962e-18
3.32966e-18
3.32969e-18
3.32972e-18
3.32975e-18
3.32977e-18
3.32979e-18
3.3298e-18
3.3298e-18
3.3298e-18
3.3298e-18
3.32979e-18
3.32977e-18
3.32975e-18
3.32972e-18
3.32969e-18
3.32966e-18
3.32962e-18
3.32957e-18
3.32952e-18
3.32947e-18
3.32942e-18
3.32937e-18
3.32932e-18
3.32927e-18
3.32922e-18
3.32918e-18
3.32915e-18
3.32914e-18
3.32916e-18
3.32921e-18
3.32933e-18
3.32955e-18
3.32992e-18
3.33056e-18
3.33159e-18
3.33321e-18
3.33542e-18
3.33484e-18
1.89219e-17
1.89354e-17
1.89305e-17
1.89259e-17
1.89227e-17
1.89206e-17
1.89194e-17
1.89186e-17
1.89182e-17
1.89181e-17
1.89181e-17
1.89183e-17
1.89185e-17
1.89188e-17
1.89191e-17
1.89194e-17
1.89197e-17
1.892e-17
1.89203e-17
1.89206e-17
1.89209e-17
1.89212e-17
1.89214e-17
1.89216e-17
1.89218e-17
1.8922e-17
1.89221e-17
1.89222e-17
1.89223e-17
1.89223e-17
1.89223e-17
1.89223e-17
1.89222e-17
1.89221e-17
1.8922e-17
1.89218e-17
1.89216e-17
1.89214e-17
1.89212e-17
1.89209e-17
1.89206e-17
1.89203e-17
1.892e-17
1.89197e-17
1.89194e-17
1.89191e-17
1.89188e-17
1.89185e-17
1.89183e-17
1.89181e-17
1.89181e-17
1.89182e-17
1.89186e-17
1.89194e-17
1.89206e-17
1.89227e-17
1.89259e-17
1.89305e-17
1.89354e-17
1.89219e-17
1.11174e-16
1.11315e-16
1.11331e-16
1.11332e-16
1.1133e-16
1.11326e-16
1.11324e-16
1.11323e-16
1.11322e-16
1.11322e-16
1.11323e-16
1.11325e-16
1.11326e-16
1.11328e-16
1.1133e-16
1.11332e-16
1.11334e-16
1.11336e-16
1.11338e-16
1.1134e-16
1.11341e-16
1.11343e-16
1.11345e-16
1.11346e-16
1.11347e-16
1.11348e-16
1.11349e-16
1.11349e-16
1.1135e-16
1.1135e-16
1.1135e-16
1.1135e-16
1.11349e-16
1.11349e-16
1.11348e-16
1.11347e-16
1.11346e-16
1.11345e-16
1.11343e-16
1.11341e-16
1.1134e-16
1.11338e-16
1.11336e-16
1.11334e-16
1.11332e-16
1.1133e-16
1.11328e-16
1.11326e-16
1.11325e-16
1.11323e-16
1.11322e-16
1.11322e-16
1.11323e-16
1.11324e-16
1.11326e-16
1.1133e-16
1.11332e-16
1.11331e-16
1.11315e-16
1.11174e-16
6.7529e-16
6.76515e-16
6.76896e-16
6.77073e-16
6.77156e-16
6.77193e-16
6.7721e-16
6.77219e-16
6.77227e-16
6.77235e-16
6.77244e-16
6.77255e-16
6.77266e-16
6.77279e-16
6.77292e-16
6.77305e-16
6.77318e-16
6.77331e-16
6.77344e-16
6.77355e-16
6.77367e-16
6.77377e-16
6.77386e-16
6.77394e-16
6.77402e-16
6.77408e-16
6.77413e-16
6.77416e-16
6.77419e-16
6.7742e-16
6.7742e-16
6.77419e-16
6.77416e-16
6.77413e-16
6.77408e-16
6.77402e-16
6.77394e-16
6.77386e-16
6.77377e-16
6.77367e-16
6.77355e-16
6.77344e-16
6.77331e-16
6.77318e-16
6.77305e-16
6.77292e-16
6.77279e-16
6.77266e-16
6.77255e-16
6.77244e-16
6.77235e-16
6.77227e-16
6.77219e-16
6.7721e-16
6.77193e-16
6.77156e-16
6.77073e-16
6.76896e-16
6.76515e-16
6.7529e-16
4.22941e-15
4.23943e-15
4.24358e-15
4.24576e-15
4.2469e-15
4.24749e-15
4.24779e-15
4.24797e-15
4.24808e-15
4.24817e-15
4.24826e-15
4.24834e-15
4.24842e-15
4.24851e-15
4.2486e-15
4.24869e-15
4.24878e-15
4.24886e-15
4.24894e-15
4.24902e-15
4.24909e-15
4.24916e-15
4.24922e-15
4.24927e-15
4.24932e-15
4.24936e-15
4.24939e-15
4.24941e-15
4.24943e-15
4.24944e-15
4.24944e-15
4.24943e-15
4.24941e-15
4.24939e-15
4.24936e-15
4.24932e-15
4.24927e-15
4.24922e-15
4.24916e-15
4.24909e-15
4.24902e-15
4.24894e-15
4.24886e-15
4.24878e-15
4.24869e-15
4.2486e-15
4.24851e-15
4.24842e-15
4.24834e-15
4.24826e-15
4.24817e-15
4.24808e-15
4.24797e-15
4.24779e-15
4.24749e-15
4.2469e-15
4.24576e-15
4.24358e-15
4.23943e-15
4.22941e-15
2.72185e-14
2.72979e-14
2.73359e-14
2.73569e-14
2.73683e-14
2.73743e-14
2.73776e-14
2.73794e-14
2.73806e-14
2.73814e-14
2.73821e-14
2.73827e-14
2.73834e-14
2.7384e-14
2.73846e-14
2.73852e-14
2.73858e-14
2.73863e-14
2.73869e-14
2.73874e-14
2.73879e-14
2.73883e-14
2.73887e-14
2.73891e-14
2.73894e-14
2.73896e-14
2.73898e-14
2.739e-14
2.73901e-14
2.73902e-14
2.73902e-14
2.73901e-14
2.739e-14
2.73898e-14
2.73896e-14
2.73894e-14
2.73891e-14
2.73887e-14
2.73883e-14
2.73879e-14
2.73874e-14
2.73869e-14
2.73863e-14
2.73858e-14
2.73852e-14
2.73846e-14
2.7384e-14
2.73834e-14
2.73827e-14
2.73821e-14
2.73814e-14
2.73806e-14
2.73794e-14
2.73776e-14
2.73743e-14
2.73683e-14
2.73569e-14
2.73359e-14
2.72979e-14
2.72185e-14
1.79199e-13
1.79818e-13
1.80142e-13
1.80325e-13
1.80426e-13
1.80481e-13
1.8051e-13
1.80527e-13
1.80537e-13
1.80545e-13
1.8055e-13
1.80555e-13
1.8056e-13
1.80564e-13
1.80568e-13
1.80573e-13
1.80577e-13
1.80581e-13
1.80584e-13
1.80588e-13
1.80591e-13
1.80594e-13
1.80596e-13
1.80599e-13
1.80601e-13
1.80603e-13
1.80604e-13
1.80605e-13
1.80606e-13
1.80606e-13
1.80606e-13
1.80606e-13
1.80605e-13
1.80604e-13
1.80603e-13
1.80601e-13
1.80599e-13
1.80596e-13
1.80594e-13
1.80591e-13
1.80588e-13
1.80584e-13
1.80581e-13
1.80577e-13
1.80573e-13
1.80568e-13
1.80564e-13
1.8056e-13
1.80555e-13
1.8055e-13
1.80545e-13
1.80537e-13
1.80527e-13
1.8051e-13
1.80481e-13
1.80426e-13
1.80325e-13
1.80142e-13
1.79818e-13
1.79199e-13
1.20044e-12
1.20521e-12
1.20786e-12
1.20938e-12
1.21023e-12
1.21069e-12
1.21094e-12
1.21109e-12
1.21117e-12
1.21123e-12
1.21128e-12
1.21131e-12
1.21135e-12
1.21138e-12
1.21141e-12
1.21144e-12
1.21147e-12
1.21149e-12
1.21152e-12
1.21154e-12
1.21156e-12
1.21158e-12
1.2116e-12
1.21162e-12
1.21163e-12
1.21164e-12
1.21165e-12
1.21166e-12
1.21167e-12
1.21167e-12
1.21167e-12
1.21167e-12
1.21166e-12
1.21165e-12
1.21164e-12
1.21163e-12
1.21162e-12
1.2116e-12
1.21158e-12
1.21156e-12
1.21154e-12
1.21152e-12
1.21149e-12
1.21147e-12
1.21144e-12
1.21141e-12
1.21138e-12
1.21135e-12
1.21131e-12
1.21128e-12
1.21123e-12
1.21117e-12
1.21109e-12
1.21094e-12
1.21069e-12
1.21023e-12
1.20938e-12
1.20786e-12
1.20521e-12
1.20044e-12
8.12887e-12
8.16532e-12
8.18636e-12
8.19857e-12
8.20539e-12
8.20913e-12
8.2112e-12
8.21237e-12
8.21308e-12
8.21355e-12
8.21389e-12
8.21417e-12
8.21442e-12
8.21464e-12
8.21485e-12
8.21506e-12
8.21525e-12
8.21543e-12
8.21561e-12
8.21577e-12
8.21592e-12
8.21606e-12
8.21618e-12
8.21629e-12
8.21639e-12
8.21647e-12
8.21653e-12
8.21658e-12
8.21662e-12
8.21663e-12
8.21663e-12
8.21662e-12
8.21658e-12
8.21653e-12
8.21647e-12
8.21639e-12
8.21629e-12
8.21618e-12
8.21606e-12
8.21592e-12
8.21577e-12
8.21561e-12
8.21543e-12
8.21525e-12
8.21506e-12
8.21485e-12
8.21464e-12
8.21442e-12
8.21417e-12
8.21389e-12
8.21355e-12
8.21308e-12
8.21237e-12
8.2112e-12
8.20913e-12
8.20539e-12
8.19857e-12
8.18636e-12
8.16532e-12
8.12887e-12
5.52128e-11
5.54864e-11
5.56492e-11
5.57443e-11
5.57976e-11
5.5827e-11
5.58432e-11
5.58525e-11
5.5858e-11
5.58616e-11
5.58642e-11
5.58663e-11
5.58681e-11
5.58697e-11
5.58712e-11
5.58726e-11
5.58739e-11
5.58752e-11
5.58764e-11
5.58775e-11
5.58785e-11
5.58795e-11
5.58803e-11
5.58811e-11
5.58817e-11
5.58823e-11
5.58827e-11
5.5883e-11
5.58833e-11
5.58834e-11
5.58834e-11
5.58833e-11
5.5883e-11
5.58827e-11
5.58823e-11
5.58817e-11
5.58811e-11
5.58803e-11
5.58795e-11
5.58785e-11
5.58775e-11
5.58764e-11
5.58752e-11
5.58739e-11
5.58726e-11
5.58712e-11
5.58697e-11
5.58681e-11
5.58663e-11
5.58642e-11
5.58616e-11
5.5858e-11
5.58525e-11
5.58432e-11
5.5827e-11
5.57976e-11
5.57443e-11
5.56492e-11
5.54864e-11
5.52128e-11
3.72779e-10
3.74787e-10
3.76008e-10
3.76725e-10
3.77128e-10
3.77351e-10
3.77475e-10
3.77545e-10
3.77587e-10
3.77614e-10
3.77633e-10
3.77648e-10
3.77661e-10
3.77672e-10
3.77682e-10
3.77692e-10
3.77701e-10
3.7771e-10
3.77718e-10
3.77726e-10
3.77732e-10
3.77739e-10
3.77745e-10
3.7775e-10
3.77754e-10
3.77758e-10
3.77761e-10
3.77763e-10
3.77764e-10
3.77765e-10
3.77765e-10
3.77764e-10
3.77763e-10
3.77761e-10
3.77758e-10
3.77754e-10
3.7775e-10
3.77745e-10
3.77739e-10
3.77732e-10
3.77726e-10
3.77718e-10
3.7771e-10
3.77701e-10
3.77692e-10
3.77682e-10
3.77672e-10
3.77661e-10
3.77648e-10
3.77633e-10
3.77614e-10
3.77587e-10
3.77545e-10
3.77475e-10
3.77351e-10
3.77128e-10
3.76725e-10
3.76008e-10
3.74787e-10
3.72779e-10
2.47629e-09
2.49056e-09
2.49939e-09
2.50459e-09
2.50752e-09
2.50915e-09
2.51005e-09
2.51056e-09
2.51087e-09
2.51107e-09
2.5112e-09
2.51131e-09
2.51139e-09
2.51147e-09
2.51154e-09
2.51161e-09
2.51167e-09
2.51172e-09
2.51178e-09
2.51183e-09
2.51187e-09
2.51192e-09
2.51195e-09
2.51199e-09
2.51201e-09
2.51204e-09
2.51206e-09
2.51207e-09
2.51208e-09
2.51209e-09
2.51209e-09
2.51208e-09
2.51207e-09
2.51206e-09
2.51204e-09
2.51201e-09
2.51199e-09
2.51195e-09
2.51192e-09
2.51187e-09
2.51183e-09
2.51178e-09
2.51172e-09
2.51167e-09
2.51161e-09
2.51154e-09
2.51147e-09
2.51139e-09
2.51131e-09
2.5112e-09
2.51107e-09
2.51087e-09
2.51056e-09
2.51005e-09
2.50915e-09
2.50752e-09
2.50459e-09
2.49939e-09
2.49056e-09
2.47629e-09
1.59992e-08
1.60965e-08
1.61574e-08
1.61934e-08
1.62137e-08
1.6225e-08
1.62313e-08
1.62348e-08
1.6237e-08
1.62383e-08
1.62392e-08
1.62399e-08
1.62405e-08
1.6241e-08
1.62415e-08
1.62419e-08
1.62423e-08
1.62427e-08
1.6243e-08
1.62433e-08
1.62436e-08
1.62439e-08
1.62441e-08
1.62443e-08
1.62445e-08
1.62447e-08
1.62448e-08
1.62449e-08
1.62449e-08
1.6245e-08
1.6245e-08
1.62449e-08
1.62449e-08
1.62448e-08
1.62447e-08
1.62445e-08
1.62443e-08
1.62441e-08
1.62439e-08
1.62436e-08
1.62433e-08
1.6243e-08
1.62427e-08
1.62423e-08
1.62419e-08
1.62415e-08
1.6241e-08
1.62405e-08
1.62399e-08
1.62392e-08
1.62383e-08
1.6237e-08
1.62348e-08
1.62313e-08
1.6225e-08
1.62137e-08
1.61934e-08
1.61574e-08
1.60965e-08
1.59992e-08
9.92809e-08
9.99094e-08
1.00306e-07
1.00541e-07
1.00673e-07
1.00747e-07
1.00788e-07
1.00812e-07
1.00825e-07
1.00834e-07
1.0084e-07
1.00845e-07
1.00848e-07
1.00851e-07
1.00854e-07
1.00857e-07
1.00859e-07
1.00861e-07
1.00864e-07
1.00865e-07
1.00867e-07
1.00869e-07
1.0087e-07
1.00872e-07
1.00873e-07
1.00874e-07
1.00874e-07
1.00875e-07
1.00875e-07
1.00875e-07
1.00875e-07
1.00875e-07
1.00875e-07
1.00874e-07
1.00874e-07
1.00873e-07
1.00872e-07
1.0087e-07
1.00869e-07
1.00867e-07
1.00865e-07
1.00864e-07
1.00861e-07
1.00859e-07
1.00857e-07
1.00854e-07
1.00851e-07
1.00848e-07
1.00845e-07
1.0084e-07
1.00834e-07
1.00825e-07
1.00812e-07
1.00788e-07
1.00747e-07
1.00673e-07
1.00541e-07
1.00306e-07
9.99094e-08
9.92809e-08
5.83711e-07
5.87501e-07
5.89908e-07
5.91332e-07
5.92138e-07
5.92587e-07
5.92837e-07
5.92978e-07
5.93062e-07
5.93115e-07
5.93151e-07
5.93178e-07
5.932e-07
5.93218e-07
5.93234e-07
5.93249e-07
5.93263e-07
5.93276e-07
5.93288e-07
5.93299e-07
5.93309e-07
5.93318e-07
5.93327e-07
5.93334e-07
5.9334e-07
5.93345e-07
5.9335e-07
5.93353e-07
5.93355e-07
5.93356e-07
5.93356e-07
5.93355e-07
5.93353e-07
5.9335e-07
5.93345e-07
5.9334e-07
5.93334e-07
5.93327e-07
5.93318e-07
5.93309e-07
5.93299e-07
5.93288e-07
5.93276e-07
5.93263e-07
5.93249e-07
5.93234e-07
5.93218e-07
5.932e-07
5.93178e-07
5.93151e-07
5.93115e-07
5.93062e-07
5.92978e-07
5.92837e-07
5.92587e-07
5.92138e-07
5.91332e-07
5.89908e-07
5.87501e-07
5.83711e-07
3.20483e-06
3.22587e-06
3.23927e-06
3.2472e-06
3.2517e-06
3.2542e-06
3.2556e-06
3.25639e-06
3.25686e-06
3.25715e-06
3.25735e-06
3.2575e-06
3.25761e-06
3.25771e-06
3.2578e-06
3.25788e-06
3.25795e-06
3.25802e-06
3.25808e-06
3.25814e-06
3.25819e-06
3.25824e-06
3.25829e-06
3.25832e-06
3.25836e-06
3.25838e-06
3.25841e-06
3.25842e-06
3.25843e-06
3.25844e-06
3.25844e-06
3.25843e-06
3.25842e-06
3.25841e-06
3.25838e-06
3.25836e-06
3.25832e-06
3.25829e-06
3.25824e-06
3.25819e-06
3.25814e-06
3.25808e-06
3.25802e-06
3.25795e-06
3.25788e-06
3.2578e-06
3.25771e-06
3.25761e-06
3.2575e-06
3.25735e-06
3.25715e-06
3.25686e-06
3.25639e-06
3.2556e-06
3.2542e-06
3.2517e-06
3.2472e-06
3.23927e-06
3.22587e-06
3.20483e-06
1.61829e-05
1.62887e-05
1.63561e-05
1.6396e-05
1.64186e-05
1.64312e-05
1.64382e-05
1.64422e-05
1.64446e-05
1.64461e-05
1.6447e-05
1.64478e-05
1.64484e-05
1.64488e-05
1.64493e-05
1.64496e-05
1.645e-05
1.64503e-05
1.64506e-05
1.64509e-05
1.64512e-05
1.64514e-05
1.64516e-05
1.64518e-05
1.64519e-05
1.64521e-05
1.64522e-05
1.64523e-05
1.64523e-05
1.64523e-05
1.64523e-05
1.64523e-05
1.64523e-05
1.64522e-05
1.64521e-05
1.64519e-05
1.64518e-05
1.64516e-05
1.64514e-05
1.64512e-05
1.64509e-05
1.64506e-05
1.64503e-05
1.645e-05
1.64496e-05
1.64493e-05
1.64488e-05
1.64484e-05
1.64478e-05
1.6447e-05
1.64461e-05
1.64446e-05
1.64422e-05
1.64382e-05
1.64312e-05
1.64186e-05
1.6396e-05
1.63561e-05
1.62887e-05
1.61829e-05
7.39575e-05
7.443e-05
7.47311e-05
7.49093e-05
7.50103e-05
7.50667e-05
7.50981e-05
7.51159e-05
7.51265e-05
7.5133e-05
7.51374e-05
7.51406e-05
7.51432e-05
7.51453e-05
7.51471e-05
7.51488e-05
7.51503e-05
7.51517e-05
7.5153e-05
7.51542e-05
7.51553e-05
7.51563e-05
7.51571e-05
7.51579e-05
7.51586e-05
7.51591e-05
7.51596e-05
7.51599e-05
7.51601e-05
7.51603e-05
7.51603e-05
7.51601e-05
7.51599e-05
7.51596e-05
7.51591e-05
7.51586e-05
7.51579e-05
7.51571e-05
7.51563e-05
7.51553e-05
7.51542e-05
7.5153e-05
7.51517e-05
7.51503e-05
7.51488e-05
7.51471e-05
7.51453e-05
7.51432e-05
7.51406e-05
7.51374e-05
7.5133e-05
7.51265e-05
7.51159e-05
7.50981e-05
7.50667e-05
7.50103e-05
7.49093e-05
7.47311e-05
7.443e-05
7.39575e-05
0.000300785
0.000302626
0.000303798
0.00030449
0.000304883
0.000305102
0.000305225
0.000305294
0.000305335
0.000305361
0.000305378
0.00030539
0.0003054
0.000305408
0.000305415
0.000305421
0.000305426
0.000305432
0.000305437
0.000305441
0.000305445
0.000305449
0.000305452
0.000305455
0.000305457
0.000305459
0.000305461
0.000305462
0.000305463
0.000305464
0.000305464
0.000305463
0.000305462
0.000305461
0.000305459
0.000305457
0.000305455
0.000305452
0.000305449
0.000305445
0.000305441
0.000305437
0.000305432
0.000305426
0.000305421
0.000305415
0.000305408
0.0003054
0.00030539
0.000305378
0.000305361
0.000305335
0.000305294
0.000305225
0.000305102
0.000304883
0.00030449
0.000303798
0.000302626
0.000300785
0.00106972
0.00107584
0.00107973
0.00108202
0.00108332
0.00108405
0.00108445
0.00108468
0.00108482
0.0010849
0.00108496
0.001085
0.00108503
0.00108506
0.00108508
0.0010851
0.00108512
0.00108514
0.00108515
0.00108517
0.00108518
0.00108519
0.0010852
0.00108521
0.00108522
0.00108522
0.00108523
0.00108523
0.00108524
0.00108524
0.00108524
0.00108524
0.00108523
0.00108523
0.00108522
0.00108522
0.00108521
0.0010852
0.00108519
0.00108518
0.00108517
0.00108515
0.00108514
0.00108512
0.0010851
0.00108508
0.00108506
0.00108503
0.001085
0.00108496
0.0010849
0.00108482
0.00108468
0.00108445
0.00108405
0.00108332
0.00108202
0.00107973
0.00107584
0.00106972
0.00326992
0.00328694
0.00329768
0.00330401
0.00330761
0.00330962
0.00331074
0.00331138
0.00331175
0.00331199
0.00331214
0.00331225
0.00331234
0.00331241
0.00331247
0.00331252
0.00331257
0.00331262
0.00331266
0.0033127
0.00331273
0.00331276
0.00331279
0.00331281
0.00331283
0.00331285
0.00331287
0.00331288
0.00331288
0.00331289
0.00331289
0.00331288
0.00331288
0.00331287
0.00331285
0.00331283
0.00331281
0.00331279
0.00331276
0.00331273
0.0033127
0.00331266
0.00331262
0.00331257
0.00331252
0.00331247
0.00331241
0.00331234
0.00331225
0.00331214
0.00331199
0.00331175
0.00331138
0.00331074
0.00330962
0.00330761
0.00330401
0.00329768
0.00328694
0.00326992
0.00847025
0.00850897
0.00853327
0.00854759
0.00855572
0.00856026
0.00856281
0.00856425
0.0085651
0.00856563
0.00856598
0.00856623
0.00856642
0.00856657
0.00856671
0.00856683
0.00856693
0.00856703
0.00856712
0.0085672
0.00856728
0.00856734
0.00856741
0.00856746
0.0085675
0.00856754
0.00856757
0.00856759
0.00856761
0.00856762
0.00856762
0.00856761
0.00856759
0.00856757
0.00856754
0.0085675
0.00856746
0.00856741
0.00856734
0.00856728
0.0085672
0.00856712
0.00856703
0.00856693
0.00856683
0.00856671
0.00856657
0.00856642
0.00856623
0.00856598
0.00856563
0.0085651
0.00856425
0.00856281
0.00856026
0.00855572
0.00854759
0.00853327
0.00850897
0.00847025
0.0184757
0.0185474
0.0185921
0.0186184
0.0186334
0.0186418
0.0186464
0.0186491
0.0186507
0.0186516
0.0186523
0.0186527
0.0186531
0.0186534
0.0186536
0.0186538
0.018654
0.0186542
0.0186543
0.0186545
0.0186546
0.0186547
0.0186548
0.0186549
0.018655
0.0186551
0.0186551
0.0186552
0.0186552
0.0186552
0.0186552
0.0186552
0.0186552
0.0186551
0.0186551
0.018655
0.0186549
0.0186548
0.0186547
0.0186546
0.0186545
0.0186543
0.0186542
0.018654
0.0186538
0.0186536
0.0186534
0.0186531
0.0186527
0.0186523
0.0186516
0.0186507
0.0186491
0.0186464
0.0186418
0.0186334
0.0186184
0.0185921
0.0185474
0.0184757
0.0341617
0.0342713
0.0343391
0.034379
0.0344016
0.0344143
0.0344215
0.0344255
0.0344279
0.0344294
0.0344303
0.034431
0.0344315
0.034432
0.0344323
0.0344326
0.0344329
0.0344332
0.0344334
0.0344336
0.0344338
0.034434
0.0344341
0.0344343
0.0344344
0.0344345
0.0344346
0.0344346
0.0344347
0.0344347
0.0344347
0.0344347
0.0344346
0.0344346
0.0344345
0.0344344
0.0344343
0.0344341
0.034434
0.0344338
0.0344336
0.0344334
0.0344332
0.0344329
0.0344326
0.0344323
0.034432
0.0344315
0.034431
0.0344303
0.0344294
0.0344279
0.0344255
0.0344215
0.0344143
0.0344016
0.034379
0.0343391
0.0342713
0.0341617
0.0546686
0.0548119
0.0549
0.0549518
0.0549812
0.0549978
0.055007
0.0550123
0.0550155
0.0550174
0.0550186
0.0550195
0.0550202
0.0550207
0.0550212
0.0550215
0.0550219
0.0550222
0.0550225
0.0550228
0.055023
0.0550232
0.0550234
0.0550236
0.0550237
0.0550238
0.0550239
0.055024
0.0550241
0.0550241
0.0550241
0.0550241
0.055024
0.0550239
0.0550238
0.0550237
0.0550236
0.0550234
0.0550232
0.055023
0.0550228
0.0550225
0.0550222
0.0550219
0.0550215
0.0550212
0.0550207
0.0550202
0.0550195
0.0550186
0.0550174
0.0550155
0.0550123
0.055007
0.0549978
0.0549812
0.0549518
0.0549
0.0548119
0.0546686
0.0780222
0.0781911
0.0782942
0.0783548
0.0783894
0.0784088
0.0784197
0.078426
0.0784296
0.0784319
0.0784334
0.0784344
0.0784352
0.0784358
0.0784363
0.0784367
0.0784371
0.0784375
0.0784378
0.0784381
0.0784384
0.0784386
0.0784388
0.078439
0.0784392
0.0784393
0.0784394
0.0784395
0.0784396
0.0784396
0.0784396
0.0784396
0.0784395
0.0784394
0.0784393
0.0784392
0.078439
0.0784388
0.0784386
0.0784384
0.0784381
0.0784378
0.0784375
0.0784371
0.0784367
0.0784363
0.0784358
0.0784352
0.0784344
0.0784334
0.0784319
0.0784296
0.078426
0.0784197
0.0784088
0.0783894
0.0783548
0.0782942
0.0781911
0.0780222
0.102433
0.102621
0.102735
0.102802
0.10284
0.102862
0.102874
0.102881
0.102885
0.102888
0.102889
0.10289
0.102891
0.102892
0.102893
0.102893
0.102893
0.102894
0.102894
0.102894
0.102895
0.102895
0.102895
0.102895
0.102896
0.102896
0.102896
0.102896
0.102896
0.102896
0.102896
0.102896
0.102896
0.102896
0.102896
0.102896
0.102895
0.102895
0.102895
0.102895
0.102894
0.102894
0.102894
0.102893
0.102893
0.102893
0.102892
0.102891
0.10289
0.102889
0.102888
0.102885
0.102881
0.102874
0.102862
0.10284
0.102802
0.102735
0.102621
0.102433
0.126926
0.127129
0.127252
0.127325
0.127367
0.12739
0.127403
0.127411
0.127415
0.127418
0.12742
0.127421
0.127422
0.127423
0.127423
0.127424
0.127424
0.127425
0.127425
0.127425
0.127426
0.127426
0.127426
0.127426
0.127427
0.127427
0.127427
0.127427
0.127427
0.127427
0.127427
0.127427
0.127427
0.127427
0.127427
0.127427
0.127426
0.127426
0.127426
0.127426
0.127425
0.127425
0.127425
0.127424
0.127424
0.127423
0.127423
0.127422
0.127421
0.12742
0.127418
0.127415
0.127411
0.127403
0.12739
0.127367
0.127325
0.127252
0.127129
0.126926
0.151178
0.151396
0.151528
0.151605
0.15165
0.151675
0.15169
0.151698
0.151703
0.151706
0.151708
0.151709
0.15171
0.151711
0.151711
0.151712
0.151712
0.151713
0.151713
0.151714
0.151714
0.151714
0.151714
0.151715
0.151715
0.151715
0.151715
0.151715
0.151715
0.151715
0.151715
0.151715
0.151715
0.151715
0.151715
0.151715
0.151715
0.151714
0.151714
0.151714
0.151714
0.151713
0.151713
0.151712
0.151712
0.151711
0.151711
0.15171
0.151709
0.151708
0.151706
0.151703
0.151698
0.15169
0.151675
0.15165
0.151605
0.151528
0.151396
0.151178
0.175156
0.175388
0.175528
0.175611
0.175659
0.175686
0.175701
0.17571
0.175716
0.175719
0.175721
0.175722
0.175723
0.175724
0.175725
0.175725
0.175726
0.175726
0.175727
0.175727
0.175727
0.175728
0.175728
0.175728
0.175728
0.175728
0.175728
0.175729
0.175729
0.175729
0.175729
0.175729
0.175729
0.175728
0.175728
0.175728
0.175728
0.175728
0.175728
0.175727
0.175727
0.175727
0.175726
0.175726
0.175725
0.175725
0.175724
0.175723
0.175722
0.175721
0.175719
0.175716
0.17571
0.175701
0.175686
0.175659
0.175611
0.175528
0.175388
0.175156
0.198893
0.199137
0.199286
0.199374
0.199425
0.199455
0.199471
0.199481
0.199487
0.19949
0.199493
0.199494
0.199495
0.199496
0.199497
0.199497
0.199498
0.199498
0.199499
0.199499
0.199499
0.199499
0.1995
0.1995
0.1995
0.1995
0.1995
0.1995
0.199501
0.199501
0.199501
0.199501
0.1995
0.1995
0.1995
0.1995
0.1995
0.1995
0.199499
0.199499
0.199499
0.199499
0.199498
0.199498
0.199497
0.199497
0.199496
0.199495
0.199494
0.199493
0.19949
0.199487
0.199481
0.199471
0.199455
0.199425
0.199374
0.199286
0.199137
0.198893
0.222411
0.222668
0.222825
0.222919
0.222973
0.223005
0.223022
0.223033
0.223039
0.223043
0.223045
0.223047
0.223048
0.223049
0.22305
0.22305
0.223051
0.223051
0.223052
0.223052
0.223052
0.223053
0.223053
0.223053
0.223053
0.223053
0.223053
0.223054
0.223054
0.223054
0.223054
0.223054
0.223054
0.223053
0.223053
0.223053
0.223053
0.223053
0.223053
0.223052
0.223052
0.223052
0.223051
0.223051
0.22305
0.22305
0.223049
0.223048
0.223047
0.223045
0.223043
0.223039
0.223033
0.223022
0.223005
0.222973
0.222919
0.222825
0.222668
0.222411
0.245714
0.245983
0.246148
0.246247
0.246305
0.246338
0.246357
0.246368
0.246375
0.246379
0.246382
0.246384
0.246385
0.246386
0.246386
0.246387
0.246388
0.246388
0.246388
0.246389
0.246389
0.246389
0.24639
0.24639
0.24639
0.24639
0.24639
0.24639
0.24639
0.24639
0.24639
0.24639
0.24639
0.24639
0.24639
0.24639
0.24639
0.24639
0.246389
0.246389
0.246389
0.246388
0.246388
0.246388
0.246387
0.246386
0.246386
0.246385
0.246384
0.246382
0.246379
0.246375
0.246368
0.246357
0.246338
0.246305
0.246247
0.246148
0.245983
0.245714
0.268792
0.269071
0.269244
0.269348
0.269409
0.269445
0.269465
0.269478
0.269485
0.269489
0.269492
0.269494
0.269495
0.269496
0.269497
0.269497
0.269498
0.269498
0.269499
0.269499
0.2695
0.2695
0.2695
0.2695
0.2695
0.269501
0.269501
0.269501
0.269501
0.269501
0.269501
0.269501
0.269501
0.269501
0.269501
0.2695
0.2695
0.2695
0.2695
0.2695
0.269499
0.269499
0.269498
0.269498
0.269497
0.269497
0.269496
0.269495
0.269494
0.269492
0.269489
0.269485
0.269478
0.269465
0.269445
0.269409
0.269348
0.269244
0.269071
0.268792
0.291627
0.291917
0.292097
0.292206
0.292271
0.292309
0.292331
0.292343
0.292351
0.292356
0.292359
0.292361
0.292362
0.292363
0.292364
0.292365
0.292365
0.292366
0.292366
0.292367
0.292367
0.292367
0.292367
0.292368
0.292368
0.292368
0.292368
0.292368
0.292368
0.292368
0.292368
0.292368
0.292368
0.292368
0.292368
0.292368
0.292368
0.292367
0.292367
0.292367
0.292367
0.292366
0.292366
0.292365
0.292365
0.292364
0.292363
0.292362
0.292361
0.292359
0.292356
0.292351
0.292343
0.292331
0.292309
0.292271
0.292206
0.292097
0.291917
0.291627
0.314201
0.3145
0.314688
0.314802
0.31487
0.31491
0.314933
0.314947
0.314955
0.31496
0.314964
0.314966
0.314967
0.314968
0.314969
0.31497
0.31497
0.314971
0.314971
0.314972
0.314972
0.314972
0.314972
0.314973
0.314973
0.314973
0.314973
0.314973
0.314973
0.314973
0.314973
0.314973
0.314973
0.314973
0.314973
0.314973
0.314973
0.314972
0.314972
0.314972
0.314972
0.314971
0.314971
0.31497
0.31497
0.314969
0.314968
0.314967
0.314966
0.314964
0.31496
0.314955
0.314947
0.314933
0.31491
0.31487
0.314802
0.314688
0.3145
0.314201
0.336494
0.336802
0.336996
0.337115
0.337187
0.337229
0.337254
0.337268
0.337277
0.337283
0.337286
0.337288
0.33729
0.337291
0.337292
0.337293
0.337293
0.337294
0.337294
0.337294
0.337295
0.337295
0.337295
0.337295
0.337296
0.337296
0.337296
0.337296
0.337296
0.337296
0.337296
0.337296
0.337296
0.337296
0.337296
0.337296
0.337295
0.337295
0.337295
0.337295
0.337294
0.337294
0.337294
0.337293
0.337293
0.337292
0.337291
0.33729
0.337288
0.337286
0.337283
0.337277
0.337268
0.337254
0.337229
0.337187
0.337115
0.336996
0.336802
0.336494
0.358486
0.358802
0.359003
0.359127
0.359201
0.359246
0.359272
0.359287
0.359297
0.359303
0.359306
0.359309
0.359311
0.359312
0.359313
0.359313
0.359314
0.359314
0.359315
0.359315
0.359316
0.359316
0.359316
0.359316
0.359317
0.359317
0.359317
0.359317
0.359317
0.359317
0.359317
0.359317
0.359317
0.359317
0.359317
0.359317
0.359316
0.359316
0.359316
0.359316
0.359315
0.359315
0.359314
0.359314
0.359313
0.359313
0.359312
0.359311
0.359309
0.359306
0.359303
0.359297
0.359287
0.359272
0.359246
0.359201
0.359127
0.359003
0.358802
0.358486
0.380159
0.380481
0.380688
0.380817
0.380895
0.380941
0.380969
0.380986
0.380996
0.381002
0.381006
0.381009
0.38101
0.381012
0.381013
0.381013
0.381014
0.381014
0.381015
0.381015
0.381016
0.381016
0.381016
0.381016
0.381017
0.381017
0.381017
0.381017
0.381017
0.381017
0.381017
0.381017
0.381017
0.381017
0.381017
0.381017
0.381016
0.381016
0.381016
0.381016
0.381015
0.381015
0.381014
0.381014
0.381013
0.381013
0.381012
0.38101
0.381009
0.381006
0.381002
0.380996
0.380986
0.380969
0.380941
0.380895
0.380817
0.380688
0.380481
0.380159
0.401494
0.401822
0.402035
0.402168
0.402249
0.402298
0.402328
0.402345
0.402356
0.402363
0.402367
0.40237
0.402372
0.402373
0.402374
0.402375
0.402375
0.402376
0.402376
0.402377
0.402377
0.402377
0.402377
0.402378
0.402378
0.402378
0.402378
0.402378
0.402378
0.402378
0.402378
0.402378
0.402378
0.402378
0.402378
0.402378
0.402378
0.402377
0.402377
0.402377
0.402377
0.402376
0.402376
0.402375
0.402375
0.402374
0.402373
0.402372
0.40237
0.402367
0.402363
0.402356
0.402345
0.402328
0.402298
0.402249
0.402168
0.402035
0.401822
0.401494
0.422475
0.422808
0.423026
0.423164
0.423249
0.4233
0.423331
0.423349
0.423361
0.423368
0.423372
0.423375
0.423377
0.423379
0.42338
0.423381
0.423381
0.423382
0.423382
0.423383
0.423383
0.423383
0.423383
0.423384
0.423384
0.423384
0.423384
0.423384
0.423384
0.423384
0.423384
0.423384
0.423384
0.423384
0.423384
0.423384
0.423384
0.423383
0.423383
0.423383
0.423383
0.423382
0.423382
0.423381
0.423381
0.42338
0.423379
0.423377
0.423375
0.423372
0.423368
0.423361
0.423349
0.423331
0.4233
0.423249
0.423164
0.423026
0.422808
0.422475
0.443086
0.443424
0.443647
0.443789
0.443877
0.44393
0.443963
0.443983
0.443995
0.444002
0.444007
0.44401
0.444012
0.444014
0.444015
0.444016
0.444016
0.444017
0.444017
0.444018
0.444018
0.444018
0.444019
0.444019
0.444019
0.444019
0.444019
0.444019
0.444019
0.444019
0.444019
0.444019
0.444019
0.444019
0.444019
0.444019
0.444019
0.444019
0.444018
0.444018
0.444018
0.444017
0.444017
0.444016
0.444016
0.444015
0.444014
0.444012
0.44401
0.444007
0.444002
0.443995
0.443983
0.443963
0.44393
0.443877
0.443789
0.443647
0.443424
0.443086
0.463314
0.463656
0.463884
0.464029
0.46412
0.464176
0.46421
0.464231
0.464244
0.464252
0.464257
0.46426
0.464263
0.464264
0.464265
0.464266
0.464267
0.464267
0.464268
0.464268
0.464269
0.464269
0.464269
0.464269
0.464269
0.46427
0.46427
0.46427
0.46427
0.46427
0.46427
0.46427
0.46427
0.46427
0.46427
0.464269
0.464269
0.464269
0.464269
0.464269
0.464268
0.464268
0.464267
0.464267
0.464266
0.464265
0.464264
0.464263
0.46426
0.464257
0.464252
0.464244
0.464231
0.46421
0.464176
0.46412
0.464029
0.463884
0.463656
0.463314
0.483146
0.483491
0.483722
0.483872
0.483966
0.484024