/*--------------------------------*- C++ -*----------------------------------*\
| =========                 |                                                 |
| \\      /  F ield         | foam-extend: Open Source CFD                    |
|  \\    /   O peration     | Version:     4.0                                |
|   \\  /    A nd           | Web:         http://www.foam-extend.org         |
|    \\/     M anipulation  |                                                 |
\*---------------------------------------------------------------------------*/
FoamFile
{
    version     2.0;
    format      ascii;
    class       volScalarField;
    location    "1310";
    object      psiE;
}
// * * * * * * * * * * * * * * * * * * * * * * * * * * * * * * * * * * * * * //

dimensions      [0 0 0 0 0 0 0];

internalField   nonuniform List<scalar> 
6960
(
0.348819
0.34883
0.348842
0.348854
0.348864
0.348873
0.348881
0.348888
0.348893
0.348898
0.348902
0.348905
0.348908
0.34891
0.348912
0.348914
0.348915
0.348916
0.348917
0.348918
0.348919
0.348919
0.34892
0.34892
0.34892
0.34892
0.348921
0.348921
0.348921
0.348921
0.348921
0.348921
0.348921
0.348921
0.34892
0.34892
0.34892
0.34892
0.348919
0.348919
0.348918
0.348917
0.348916
0.348915
0.348914
0.348912
0.34891
0.348908
0.348905
0.348902
0.348898
0.348893
0.348888
0.348881
0.348873
0.348864
0.348854
0.348842
0.34883
0.348819
0.892342
0.892385
0.892434
0.892481
0.892523
0.89256
0.892591
0.892619
0.892641
0.892661
0.892677
0.89269
0.892702
0.892711
0.892719
0.892725
0.89273
0.892735
0.892738
0.892741
0.892744
0.892746
0.892747
0.892749
0.89275
0.892751
0.892751
0.892752
0.892752
0.892752
0.892752
0.892752
0.892752
0.892751
0.892751
0.89275
0.892749
0.892747
0.892746
0.892744
0.892741
0.892738
0.892735
0.89273
0.892725
0.892719
0.892711
0.892702
0.89269
0.892677
0.892661
0.892641
0.892619
0.892591
0.89256
0.892523
0.892481
0.892434
0.892385
0.892342
1.39879
1.39888
1.39897
1.39906
1.39915
1.39922
1.39928
1.39933
1.39938
1.39941
1.39944
1.39947
1.39949
1.39951
1.39953
1.39954
1.39955
1.39956
1.39956
1.39957
1.39957
1.39958
1.39958
1.39958
1.39959
1.39959
1.39959
1.39959
1.39959
1.39959
1.39959
1.39959
1.39959
1.39959
1.39959
1.39959
1.39958
1.39958
1.39958
1.39957
1.39957
1.39956
1.39956
1.39955
1.39954
1.39953
1.39951
1.39949
1.39947
1.39944
1.39941
1.39938
1.39933
1.39928
1.39922
1.39915
1.39906
1.39897
1.39888
1.39879
1.89937
1.8995
1.89965
1.89979
1.89992
1.90003
1.90013
1.90021
1.90028
1.90034
1.90038
1.90042
1.90046
1.90049
1.90051
1.90053
1.90054
1.90056
1.90057
1.90058
1.90058
1.90059
1.90059
1.9006
1.9006
1.9006
1.90061
1.90061
1.90061
1.90061
1.90061
1.90061
1.90061
1.90061
1.9006
1.9006
1.9006
1.90059
1.90059
1.90058
1.90058
1.90057
1.90056
1.90054
1.90053
1.90051
1.90049
1.90046
1.90042
1.90038
1.90034
1.90028
1.90021
1.90013
1.90003
1.89992
1.89979
1.89965
1.8995
1.89937
2.40464
2.40482
2.40502
2.40522
2.40539
2.40554
2.40567
2.40579
2.40588
2.40596
2.40603
2.40608
2.40613
2.40617
2.4062
2.40623
2.40625
2.40627
2.40628
2.40629
2.4063
2.40631
2.40632
2.40632
2.40633
2.40633
2.40633
2.40633
2.40634
2.40634
2.40634
2.40634
2.40633
2.40633
2.40633
2.40633
2.40632
2.40632
2.40631
2.4063
2.40629
2.40628
2.40627
2.40625
2.40623
2.4062
2.40617
2.40613
2.40608
2.40603
2.40596
2.40588
2.40579
2.40567
2.40554
2.40539
2.40522
2.40502
2.40482
2.40464
2.91826
2.91849
2.91875
2.919
2.91922
2.91942
2.91958
2.91973
2.91985
2.91995
2.92004
2.92011
2.92017
2.92022
2.92026
2.92029
2.92032
2.92034
2.92036
2.92037
2.92039
2.9204
2.92041
2.92041
2.92042
2.92042
2.92043
2.92043
2.92043
2.92043
2.92043
2.92043
2.92043
2.92043
2.92042
2.92042
2.92041
2.92041
2.9204
2.92039
2.92037
2.92036
2.92034
2.92032
2.92029
2.92026
2.92022
2.92017
2.92011
2.92004
2.91995
2.91985
2.91973
2.91958
2.91942
2.91922
2.919
2.91875
2.91849
2.91826
3.44147
3.44175
3.44207
3.44237
3.44265
3.44289
3.44309
3.44327
3.44342
3.44354
3.44364
3.44373
3.4438
3.44386
3.44391
3.44395
3.44399
3.44402
3.44404
3.44406
3.44407
3.44409
3.4441
3.4441
3.44411
3.44412
3.44412
3.44412
3.44413
3.44413
3.44413
3.44413
3.44412
3.44412
3.44412
3.44411
3.4441
3.4441
3.44409
3.44407
3.44406
3.44404
3.44402
3.44399
3.44395
3.44391
3.44386
3.4438
3.44373
3.44364
3.44354
3.44342
3.44327
3.44309
3.44289
3.44265
3.44237
3.44207
3.44175
3.44147
3.97465
3.97498
3.97536
3.97572
3.97604
3.97632
3.97657
3.97678
3.97695
3.9771
3.97722
3.97733
3.97741
3.97748
3.97754
3.97759
3.97763
3.97766
3.97769
3.97771
3.97773
3.97775
3.97776
3.97777
3.97778
3.97778
3.97779
3.97779
3.97779
3.97779
3.97779
3.97779
3.97779
3.97779
3.97778
3.97778
3.97777
3.97776
3.97775
3.97773
3.97771
3.97769
3.97766
3.97763
3.97759
3.97754
3.97748
3.97741
3.97733
3.97722
3.9771
3.97695
3.97678
3.97657
3.97632
3.97604
3.97572
3.97536
3.97498
3.97465
4.51786
4.51823
4.51867
4.51908
4.51946
4.51978
4.52007
4.52031
4.52051
4.52068
4.52082
4.52094
4.52104
4.52113
4.52119
4.52125
4.5213
4.52133
4.52137
4.52139
4.52141
4.52143
4.52144
4.52146
4.52146
4.52147
4.52148
4.52148
4.52148
4.52148
4.52148
4.52148
4.52148
4.52148
4.52147
4.52146
4.52146
4.52144
4.52143
4.52141
4.52139
4.52137
4.52133
4.5213
4.52125
4.52119
4.52113
4.52104
4.52094
4.52082
4.52068
4.52051
4.52031
4.52007
4.51978
4.51946
4.51908
4.51867
4.51823
4.51786
5.071
5.07142
5.07192
5.07239
5.07282
5.07319
5.07351
5.07378
5.07402
5.07421
5.07437
5.07451
5.07462
5.07471
5.07479
5.07485
5.07491
5.07495
5.07499
5.07502
5.07504
5.07506
5.07508
5.07509
5.0751
5.07511
5.07511
5.07512
5.07512
5.07512
5.07512
5.07512
5.07512
5.07511
5.07511
5.0751
5.07509
5.07508
5.07506
5.07504
5.07502
5.07499
5.07495
5.07491
5.07485
5.07479
5.07471
5.07462
5.07451
5.07437
5.07421
5.07402
5.07378
5.07351
5.07319
5.07282
5.07239
5.07192
5.07142
5.071
5.63395
5.63442
5.63497
5.6355
5.63598
5.6364
5.63676
5.63706
5.63732
5.63754
5.63772
5.63787
5.638
5.6381
5.63819
5.63826
5.63832
5.63837
5.63841
5.63844
5.63847
5.63849
5.63851
5.63852
5.63853
5.63854
5.63855
5.63856
5.63856
5.63856
5.63856
5.63856
5.63856
5.63855
5.63854
5.63853
5.63852
5.63851
5.63849
5.63847
5.63844
5.63841
5.63837
5.63832
5.63826
5.63819
5.6381
5.638
5.63787
5.63772
5.63754
5.63732
5.63706
5.63676
5.6364
5.63598
5.6355
5.63497
5.63442
5.63395
6.20649
6.20702
6.20763
6.20822
6.20874
6.2092
6.2096
6.20994
6.21023
6.21047
6.21067
6.21084
6.21098
6.21109
6.21119
6.21127
6.21133
6.21139
6.21143
6.21147
6.2115
6.21152
6.21154
6.21156
6.21157
6.21158
6.21159
6.21159
6.2116
6.2116
6.2116
6.2116
6.21159
6.21159
6.21158
6.21157
6.21156
6.21154
6.21152
6.2115
6.21147
6.21143
6.21139
6.21133
6.21127
6.21119
6.21109
6.21098
6.21084
6.21067
6.21047
6.21023
6.20994
6.2096
6.2092
6.20874
6.20822
6.20763
6.20702
6.20649
6.78839
6.78897
6.78964
6.79028
6.79086
6.79136
6.7918
6.79217
6.79248
6.79275
6.79297
6.79315
6.79331
6.79343
6.79354
6.79363
6.7937
6.79376
6.79381
6.79385
6.79388
6.79391
6.79393
6.79395
6.79396
6.79397
6.79398
6.79399
6.79399
6.79399
6.79399
6.79399
6.79399
6.79398
6.79397
6.79396
6.79395
6.79393
6.79391
6.79388
6.79385
6.79381
6.79376
6.7937
6.79363
6.79354
6.79343
6.79331
6.79315
6.79297
6.79275
6.79248
6.79217
6.7918
6.79136
6.79086
6.79028
6.78964
6.78897
6.78839
7.37935
7.37997
7.3807
7.3814
7.38203
7.38258
7.38305
7.38345
7.38379
7.38408
7.38432
7.38452
7.38469
7.38483
7.38494
7.38504
7.38511
7.38518
7.38523
7.38527
7.38531
7.38534
7.38536
7.38538
7.3854
7.38541
7.38542
7.38543
7.38543
7.38543
7.38543
7.38543
7.38543
7.38542
7.38541
7.3854
7.38538
7.38536
7.38534
7.38531
7.38527
7.38523
7.38518
7.38511
7.38504
7.38494
7.38483
7.38469
7.38452
7.38432
7.38408
7.38379
7.38345
7.38305
7.38258
7.38203
7.3814
7.3807
7.37997
7.37935
7.97899
7.97966
7.98045
7.9812
7.98188
7.98248
7.98299
7.98342
7.98379
7.9841
7.98436
7.98458
7.98476
7.98491
7.98503
7.98513
7.98522
7.98529
7.98534
7.98539
7.98543
7.98546
7.98549
7.98551
7.98552
7.98554
7.98555
7.98555
7.98556
7.98556
7.98556
7.98556
7.98555
7.98555
7.98554
7.98552
7.98551
7.98549
7.98546
7.98543
7.98539
7.98534
7.98529
7.98522
7.98513
7.98503
7.98491
7.98476
7.98458
7.98436
7.9841
7.98379
7.98342
7.98299
7.98248
7.98188
7.9812
7.98045
7.97966
7.97899
8.5869
8.58762
8.58846
8.58927
8.59
8.59063
8.59118
8.59165
8.59205
8.59238
8.59266
8.59289
8.59308
8.59324
8.59337
8.59348
8.59357
8.59365
8.59371
8.59376
8.5938
8.59384
8.59386
8.59389
8.59391
8.59392
8.59393
8.59394
8.59394
8.59395
8.59395
8.59394
8.59394
8.59393
8.59392
8.59391
8.59389
8.59386
8.59384
8.5938
8.59376
8.59371
8.59365
8.59357
8.59348
8.59337
8.59324
8.59308
8.59289
8.59266
8.59238
8.59205
8.59165
8.59118
8.59063
8.59
8.58927
8.58846
8.58762
8.5869
9.20257
9.20333
9.20424
9.2051
9.20587
9.20655
9.20713
9.20763
9.20805
9.20841
9.20871
9.20896
9.20916
9.20933
9.20947
9.20959
9.20969
9.20977
9.20983
9.20989
9.20993
9.20997
9.21
9.21002
9.21004
9.21005
9.21007
9.21007
9.21008
9.21008
9.21008
9.21008
9.21007
9.21007
9.21005
9.21004
9.21002
9.21
9.20997
9.20993
9.20989
9.20983
9.20977
9.20969
9.20959
9.20947
9.20933
9.20916
9.20896
9.20871
9.20841
9.20805
9.20763
9.20713
9.20655
9.20587
9.2051
9.20424
9.20333
9.20257
9.82541
9.82622
9.82718
9.82809
9.82892
9.82963
9.83025
9.83078
9.83123
9.83161
9.83192
9.83219
9.8324
9.83259
9.83274
9.83286
9.83296
9.83305
9.83312
9.83317
9.83322
9.83326
9.83329
9.83332
9.83334
9.83335
9.83337
9.83338
9.83338
9.83338
9.83338
9.83338
9.83338
9.83337
9.83335
9.83334
9.83332
9.83329
9.83326
9.83322
9.83317
9.83312
9.83305
9.83296
9.83286
9.83274
9.83259
9.8324
9.83219
9.83192
9.83161
9.83123
9.83078
9.83025
9.82963
9.82892
9.82809
9.82718
9.82622
9.82541
10.4547
10.4556
10.4566
10.4576
10.4584
10.4592
10.4599
10.4604
10.4609
10.4613
10.4616
10.4619
10.4621
10.4623
10.4625
10.4626
10.4627
10.4628
10.4629
10.4629
10.463
10.463
10.4631
10.4631
10.4631
10.4631
10.4631
10.4632
10.4632
10.4632
10.4632
10.4632
10.4632
10.4631
10.4631
10.4631
10.4631
10.4631
10.463
10.463
10.4629
10.4629
10.4628
10.4627
10.4626
10.4625
10.4623
10.4621
10.4619
10.4616
10.4613
10.4609
10.4604
10.4599
10.4592
10.4584
10.4576
10.4566
10.4556
10.4547
11.0898
11.0907
11.0917
11.0928
11.0937
11.0945
11.0952
11.0957
11.0962
11.0967
11.097
11.0973
11.0975
11.0977
11.0979
11.0981
11.0982
11.0983
11.0983
11.0984
11.0985
11.0985
11.0985
11.0986
11.0986
11.0986
11.0986
11.0986
11.0986
11.0986
11.0986
11.0986
11.0986
11.0986
11.0986
11.0986
11.0986
11.0985
11.0985
11.0985
11.0984
11.0983
11.0983
11.0982
11.0981
11.0979
11.0977
11.0975
11.0973
11.097
11.0967
11.0962
11.0957
11.0952
11.0945
11.0937
11.0928
11.0917
11.0907
11.0898
11.7296
11.7306
11.7317
11.7327
11.7337
11.7345
11.7352
11.7359
11.7364
11.7368
11.7372
11.7375
11.7377
11.7379
11.7381
11.7383
11.7384
11.7385
11.7386
11.7386
11.7387
11.7387
11.7388
11.7388
11.7388
11.7388
11.7389
11.7389
11.7389
11.7389
11.7389
11.7389
11.7389
11.7389
11.7388
11.7388
11.7388
11.7388
11.7387
11.7387
11.7386
11.7386
11.7385
11.7384
11.7383
11.7381
11.7379
11.7377
11.7375
11.7372
11.7368
11.7364
11.7359
11.7352
11.7345
11.7337
11.7327
11.7317
11.7306
11.7296
12.3732
12.3742
12.3753
12.3764
12.3774
12.3783
12.379
12.3797
12.3802
12.3807
12.3811
12.3814
12.3816
12.3819
12.3821
12.3822
12.3823
12.3824
12.3825
12.3826
12.3826
12.3827
12.3827
12.3828
12.3828
12.3828
12.3828
12.3828
12.3828
12.3828
12.3828
12.3828
12.3828
12.3828
12.3828
12.3828
12.3828
12.3827
12.3827
12.3826
12.3826
12.3825
12.3824
12.3823
12.3822
12.3821
12.3819
12.3816
12.3814
12.3811
12.3807
12.3802
12.3797
12.379
12.3783
12.3774
12.3764
12.3753
12.3742
12.3732
13.0193
13.0203
13.0215
13.0227
13.0237
13.0246
13.0254
13.026
13.0266
13.0271
13.0275
13.0278
13.0281
13.0283
13.0285
13.0287
13.0288
13.0289
13.029
13.029
13.0291
13.0292
13.0292
13.0292
13.0293
13.0293
13.0293
13.0293
13.0293
13.0293
13.0293
13.0293
13.0293
13.0293
13.0293
13.0293
13.0292
13.0292
13.0292
13.0291
13.029
13.029
13.0289
13.0288
13.0287
13.0285
13.0283
13.0281
13.0278
13.0275
13.0271
13.0266
13.026
13.0254
13.0246
13.0237
13.0227
13.0215
13.0203
13.0193
13.6666
13.6676
13.6689
13.67
13.6711
13.672
13.6728
13.6735
13.6741
13.6746
13.675
13.6753
13.6756
13.6759
13.6761
13.6762
13.6764
13.6765
13.6766
13.6766
13.6767
13.6767
13.6768
13.6768
13.6768
13.6769
13.6769
13.6769
13.6769
13.6769
13.6769
13.6769
13.6769
13.6769
13.6769
13.6768
13.6768
13.6768
13.6767
13.6767
13.6766
13.6766
13.6765
13.6764
13.6762
13.6761
13.6759
13.6756
13.6753
13.675
13.6746
13.6741
13.6735
13.6728
13.672
13.6711
13.67
13.6689
13.6676
13.6666
14.3134
14.3145
14.3157
14.317
14.318
14.319
14.3198
14.3205
14.3211
14.3216
14.322
14.3224
14.3227
14.3229
14.3231
14.3233
14.3234
14.3236
14.3236
14.3237
14.3238
14.3238
14.3239
14.3239
14.3239
14.324
14.324
14.324
14.324
14.324
14.324
14.324
14.324
14.324
14.324
14.3239
14.3239
14.3239
14.3238
14.3238
14.3237
14.3236
14.3236
14.3234
14.3233
14.3231
14.3229
14.3227
14.3224
14.322
14.3216
14.3211
14.3205
14.3198
14.319
14.318
14.317
14.3157
14.3145
14.3134
14.9579
14.959
14.9603
14.9616
14.9627
14.9636
14.9645
14.9652
14.9658
14.9663
14.9668
14.9671
14.9674
14.9677
14.9679
14.968
14.9682
14.9683
14.9684
14.9685
14.9685
14.9686
14.9686
14.9687
14.9687
14.9687
14.9687
14.9688
14.9688
14.9688
14.9688
14.9688
14.9688
14.9687
14.9687
14.9687
14.9687
14.9686
14.9686
14.9685
14.9685
14.9684
14.9683
14.9682
14.968
14.9679
14.9677
14.9674
14.9671
14.9668
14.9663
14.9658
14.9652
14.9645
14.9636
14.9627
14.9616
14.9603
14.959
14.9579
15.598
15.5991
15.6005
15.6017
15.6028
15.6038
15.6047
15.6054
15.606
15.6066
15.607
15.6074
15.6077
15.6079
15.6081
15.6083
15.6085
15.6086
15.6087
15.6087
15.6088
15.6089
15.6089
15.609
15.609
15.609
15.609
15.609
15.609
15.609
15.609
15.609
15.609
15.609
15.609
15.609
15.609
15.6089
15.6089
15.6088
15.6087
15.6087
15.6086
15.6085
15.6083
15.6081
15.6079
15.6077
15.6074
15.607
15.6066
15.606
15.6054
15.6047
15.6038
15.6028
15.6017
15.6005
15.5991
15.598
16.2312
16.2323
16.2337
16.2349
16.2361
16.2371
16.238
16.2387
16.2393
16.2398
16.2403
16.2407
16.241
16.2412
16.2414
16.2416
16.2418
16.2419
16.242
16.2421
16.2421
16.2422
16.2422
16.2423
16.2423
16.2423
16.2423
16.2423
16.2424
16.2424
16.2424
16.2424
16.2423
16.2423
16.2423
16.2423
16.2423
16.2422
16.2422
16.2421
16.2421
16.242
16.2419
16.2418
16.2416
16.2414
16.2412
16.241
16.2407
16.2403
16.2398
16.2393
16.2387
16.238
16.2371
16.2361
16.2349
16.2337
16.2323
16.2312
16.8546
16.8557
16.8571
16.8584
16.8595
16.8605
16.8614
16.8621
16.8628
16.8633
16.8637
16.8641
16.8644
16.8647
16.8649
16.8651
16.8652
16.8653
16.8654
16.8655
16.8656
16.8656
16.8657
16.8657
16.8658
16.8658
16.8658
16.8658
16.8658
16.8658
16.8658
16.8658
16.8658
16.8658
16.8658
16.8658
16.8657
16.8657
16.8656
16.8656
16.8655
16.8654
16.8653
16.8652
16.8651
16.8649
16.8647
16.8644
16.8641
16.8637
16.8633
16.8628
16.8621
16.8614
16.8605
16.8595
16.8584
16.8571
16.8557
16.8546
17.4648
17.466
17.4673
17.4686
17.4697
17.4707
17.4716
17.4723
17.473
17.4735
17.4739
17.4743
17.4746
17.4749
17.4751
17.4753
17.4754
17.4755
17.4756
17.4757
17.4758
17.4758
17.4759
17.4759
17.476
17.476
17.476
17.476
17.476
17.476
17.476
17.476
17.476
17.476
17.476
17.476
17.4759
17.4759
17.4758
17.4758
17.4757
17.4756
17.4755
17.4754
17.4753
17.4751
17.4749
17.4746
17.4743
17.4739
17.4735
17.473
17.4723
17.4716
17.4707
17.4697
17.4686
17.4673
17.466
17.4648
18.0579
18.0591
18.0604
18.0617
18.0628
18.0638
18.0646
18.0653
18.066
18.0665
18.0669
18.0673
18.0676
18.0678
18.068
18.0682
18.0684
18.0685
18.0686
18.0687
18.0687
18.0688
18.0688
18.0689
18.0689
18.0689
18.069
18.069
18.069
18.069
18.069
18.069
18.069
18.069
18.0689
18.0689
18.0689
18.0688
18.0688
18.0687
18.0687
18.0686
18.0685
18.0684
18.0682
18.068
18.0678
18.0676
18.0673
18.0669
18.0665
18.066
18.0653
18.0646
18.0638
18.0628
18.0617
18.0604
18.0591
18.0579
18.6291
18.6303
18.6316
18.6328
18.6339
18.6348
18.6357
18.6364
18.637
18.6375
18.6379
18.6382
18.6385
18.6388
18.639
18.6392
18.6393
18.6394
18.6395
18.6396
18.6397
18.6397
18.6398
18.6398
18.6398
18.6399
18.6399
18.6399
18.6399
18.6399
18.6399
18.6399
18.6399
18.6399
18.6399
18.6398
18.6398
18.6398
18.6397
18.6397
18.6396
18.6395
18.6394
18.6393
18.6392
18.639
18.6388
18.6385
18.6382
18.6379
18.6375
18.637
18.6364
18.6357
18.6348
18.6339
18.6328
18.6316
18.6303
18.6291
19.1728
19.1739
19.1751
19.1763
19.1774
19.1783
19.1791
19.1797
19.1803
19.1808
19.1812
19.1816
19.1818
19.1821
19.1823
19.1824
19.1826
19.1827
19.1828
19.1829
19.1829
19.183
19.183
19.1831
19.1831
19.1831
19.1831
19.1832
19.1832
19.1832
19.1832
19.1832
19.1832
19.1831
19.1831
19.1831
19.1831
19.183
19.183
19.1829
19.1829
19.1828
19.1827
19.1826
19.1824
19.1823
19.1821
19.1818
19.1816
19.1812
19.1808
19.1803
19.1797
19.1791
19.1783
19.1774
19.1763
19.1751
19.1739
19.1728
19.6823
19.6833
19.6845
19.6856
19.6865
19.6874
19.6881
19.6888
19.6893
19.6898
19.6902
19.6905
19.6907
19.691
19.6912
19.6913
19.6914
19.6916
19.6916
19.6917
19.6918
19.6918
19.6919
19.6919
19.6919
19.692
19.692
19.692
19.692
19.692
19.692
19.692
19.692
19.692
19.692
19.6919
19.6919
19.6919
19.6918
19.6918
19.6917
19.6916
19.6916
19.6914
19.6913
19.6912
19.691
19.6907
19.6905
19.6902
19.6898
19.6893
19.6888
19.6881
19.6874
19.6865
19.6856
19.6845
19.6833
19.6823
20.1499
20.1508
20.1519
20.1529
20.1538
20.1545
20.1552
20.1558
20.1563
20.1567
20.1571
20.1574
20.1576
20.1578
20.158
20.1581
20.1583
20.1584
20.1584
20.1585
20.1586
20.1586
20.1587
20.1587
20.1587
20.1587
20.1588
20.1588
20.1588
20.1588
20.1588
20.1588
20.1588
20.1588
20.1587
20.1587
20.1587
20.1587
20.1586
20.1586
20.1585
20.1584
20.1584
20.1583
20.1581
20.158
20.1578
20.1576
20.1574
20.1571
20.1567
20.1563
20.1558
20.1552
20.1545
20.1538
20.1529
20.1519
20.1508
20.1499
20.5677
20.5685
20.5694
20.5703
20.5711
20.5718
20.5724
20.5729
20.5733
20.5737
20.574
20.5742
20.5745
20.5746
20.5748
20.5749
20.575
20.5751
20.5752
20.5753
20.5753
20.5754
20.5754
20.5754
20.5755
20.5755
20.5755
20.5755
20.5755
20.5755
20.5755
20.5755
20.5755
20.5755
20.5755
20.5755
20.5754
20.5754
20.5754
20.5753
20.5753
20.5752
20.5751
20.575
20.5749
20.5748
20.5746
20.5745
20.5742
20.574
20.5737
20.5733
20.5729
20.5724
20.5718
20.5711
20.5703
20.5694
20.5685
20.5677
20.9289
20.9296
20.9303
20.931
20.9317
20.9323
20.9328
20.9332
20.9336
20.9339
20.9342
20.9344
20.9346
20.9347
20.9349
20.935
20.9351
20.9352
20.9352
20.9353
20.9353
20.9354
20.9354
20.9354
20.9354
20.9355
20.9355
20.9355
20.9355
20.9355
20.9355
20.9355
20.9355
20.9355
20.9355
20.9354
20.9354
20.9354
20.9354
20.9353
20.9353
20.9352
20.9352
20.9351
20.935
20.9349
20.9347
20.9346
20.9344
20.9342
20.9339
20.9336
20.9332
20.9328
20.9323
20.9317
20.931
20.9303
20.9296
20.9289
21.2302
21.2307
21.2313
21.2319
21.2324
21.2328
21.2333
21.2336
21.2339
21.2341
21.2344
21.2345
21.2347
21.2348
21.2349
21.235
21.2351
21.2352
21.2352
21.2353
21.2353
21.2354
21.2354
21.2354
21.2354
21.2355
21.2355
21.2355
21.2355
21.2355
21.2355
21.2355
21.2355
21.2355
21.2355
21.2354
21.2354
21.2354
21.2354
21.2353
21.2353
21.2352
21.2352
21.2351
21.235
21.2349
21.2348
21.2347
21.2345
21.2344
21.2341
21.2339
21.2336
21.2333
21.2328
21.2324
21.2319
21.2313
21.2307
21.2302
21.4736
21.4739
21.4744
21.4748
21.4752
21.4756
21.4759
21.4761
21.4764
21.4766
21.4767
21.4769
21.477
21.4771
21.4772
21.4773
21.4774
21.4774
21.4775
21.4775
21.4775
21.4776
21.4776
21.4776
21.4776
21.4776
21.4777
21.4777
21.4777
21.4777
21.4777
21.4777
21.4777
21.4777
21.4776
21.4776
21.4776
21.4776
21.4776
21.4775
21.4775
21.4775
21.4774
21.4774
21.4773
21.4772
21.4771
21.477
21.4769
21.4767
21.4766
21.4764
21.4761
21.4759
21.4756
21.4752
21.4748
21.4744
21.4739
21.4736
21.6664
21.6667
21.667
21.6673
21.6676
21.6678
21.6681
21.6683
21.6685
21.6686
21.6687
21.6688
21.6689
21.669
21.6691
21.6692
21.6692
21.6693
21.6693
21.6693
21.6694
21.6694
21.6694
21.6694
21.6695
21.6695
21.6695
21.6695
21.6695
21.6695
21.6695
21.6695
21.6695
21.6695
21.6695
21.6695
21.6694
21.6694
21.6694
21.6694
21.6693
21.6693
21.6693
21.6692
21.6692
21.6691
21.669
21.6689
21.6688
21.6687
21.6686
21.6685
21.6683
21.6681
21.6678
21.6676
21.6673
21.667
21.6667
21.6664
21.8191
21.8193
21.8195
21.8197
21.8199
21.8201
21.8203
21.8204
21.8206
21.8207
21.8208
21.8209
21.821
21.821
21.8211
21.8211
21.8212
21.8212
21.8213
21.8213
21.8213
21.8213
21.8214
21.8214
21.8214
21.8214
21.8214
21.8214
21.8214
21.8214
21.8214
21.8214
21.8214
21.8214
21.8214
21.8214
21.8214
21.8214
21.8213
21.8213
21.8213
21.8213
21.8212
21.8212
21.8211
21.8211
21.821
21.821
21.8209
21.8208
21.8207
21.8206
21.8204
21.8203
21.8201
21.8199
21.8197
21.8195
21.8193
21.8191
21.9422
21.9423
21.9425
21.9426
21.9428
21.9429
21.943
21.9432
21.9433
21.9433
21.9434
21.9435
21.9436
21.9436
21.9437
21.9437
21.9438
21.9438
21.9438
21.9438
21.9439
21.9439
21.9439
21.9439
21.9439
21.9439
21.944
21.944
21.944
21.944
21.944
21.944
21.944
21.944
21.9439
21.9439
21.9439
21.9439
21.9439
21.9439
21.9438
21.9438
21.9438
21.9438
21.9437
21.9437
21.9436
21.9436
21.9435
21.9434
21.9433
21.9433
21.9432
21.943
21.9429
21.9428
21.9426
21.9425
21.9423
21.9422
22.0444
22.0444
22.0445
22.0446
22.0448
22.0449
22.045
22.045
22.0451
22.0452
22.0453
22.0453
22.0454
22.0454
22.0455
22.0455
22.0455
22.0456
22.0456
22.0456
22.0456
22.0457
22.0457
22.0457
22.0457
22.0457
22.0457
22.0457
22.0457
22.0457
22.0457
22.0457
22.0457
22.0457
22.0457
22.0457
22.0457
22.0457
22.0457
22.0456
22.0456
22.0456
22.0456
22.0455
22.0455
22.0455
22.0454
22.0454
22.0453
22.0453
22.0452
22.0451
22.045
22.045
22.0449
22.0448
22.0446
22.0445
22.0444
22.0444
22.1318
22.1318
22.1319
22.132
22.1321
22.1322
22.1322
22.1323
22.1324
22.1324
22.1325
22.1325
22.1326
22.1326
22.1327
22.1327
22.1327
22.1328
22.1328
22.1328
22.1328
22.1328
22.1329
22.1329
22.1329
22.1329
22.1329
22.1329
22.1329
22.1329
22.1329
22.1329
22.1329
22.1329
22.1329
22.1329
22.1329
22.1329
22.1328
22.1328
22.1328
22.1328
22.1328
22.1327
22.1327
22.1327
22.1326
22.1326
22.1325
22.1325
22.1324
22.1324
22.1323
22.1322
22.1322
22.1321
22.132
22.1319
22.1318
22.1318
22.2087
22.2087
22.2088
22.2088
22.2089
22.209
22.209
22.2091
22.2091
22.2092
22.2092
22.2093
22.2093
22.2093
22.2094
22.2094
22.2094
22.2095
22.2095
22.2095
22.2095
22.2096
22.2096
22.2096
22.2096
22.2096
22.2096
22.2096
22.2096
22.2096
22.2096
22.2096
22.2096
22.2096
22.2096
22.2096
22.2096
22.2096
22.2096
22.2095
22.2095
22.2095
22.2095
22.2094
22.2094
22.2094
22.2093
22.2093
22.2093
22.2092
22.2092
22.2091
22.2091
22.209
22.209
22.2089
22.2088
22.2088
22.2087
22.2087
22.2778
22.2778
22.2778
22.2778
22.2779
22.2779
22.278
22.278
22.2781
22.2781
22.2782
22.2782
22.2782
22.2783
22.2783
22.2783
22.2784
22.2784
22.2784
22.2784
22.2785
22.2785
22.2785
22.2785
22.2785
22.2785
22.2785
22.2785
22.2786
22.2786
22.2786
22.2786
22.2785
22.2785
22.2785
22.2785
22.2785
22.2785
22.2785
22.2785
22.2784
22.2784
22.2784
22.2784
22.2783
22.2783
22.2783
22.2782
22.2782
22.2782
22.2781
22.2781
22.278
22.278
22.2779
22.2779
22.2778
22.2778
22.2778
22.2778
22.3408
22.3408
22.3408
22.3408
22.3409
22.3409
22.341
22.341
22.341
22.3411
22.3411
22.3411
22.3412
22.3412
22.3412
22.3413
22.3413
22.3413
22.3413
22.3414
22.3414
22.3414
22.3414
22.3414
22.3415
22.3415
22.3415
22.3415
22.3415
22.3415
22.3415
22.3415
22.3415
22.3415
22.3415
22.3415
22.3414
22.3414
22.3414
22.3414
22.3414
22.3413
22.3413
22.3413
22.3413
22.3412
22.3412
22.3412
22.3411
22.3411
22.3411
22.341
22.341
22.341
22.3409
22.3409
22.3408
22.3408
22.3408
22.3408
22.399
22.399
22.399
22.399
22.3991
22.3991
22.3991
22.3992
22.3992
22.3992
22.3993
22.3993
22.3993
22.3994
22.3994
22.3994
22.3995
22.3995
22.3995
22.3995
22.3995
22.3996
22.3996
22.3996
22.3996
22.3996
22.3996
22.3996
22.3996
22.3996
22.3996
22.3996
22.3996
22.3996
22.3996
22.3996
22.3996
22.3996
22.3996
22.3995
22.3995
22.3995
22.3995
22.3995
22.3994
22.3994
22.3994
22.3993
22.3993
22.3993
22.3992
22.3992
22.3992
22.3991
22.3991
22.3991
22.399
22.399
22.399
22.399
22.4534
22.4533
22.4533
22.4534
22.4534
22.4534
22.4534
22.4535
22.4535
22.4535
22.4535
22.4536
22.4536
22.4536
22.4537
22.4537
22.4537
22.4537
22.4538
22.4538
22.4538
22.4538
22.4538
22.4539
22.4539
22.4539
22.4539
22.4539
22.4539
22.4539
22.4539
22.4539
22.4539
22.4539
22.4539
22.4539
22.4539
22.4538
22.4538
22.4538
22.4538
22.4538
22.4537
22.4537
22.4537
22.4537
22.4536
22.4536
22.4536
22.4535
22.4535
22.4535
22.4535
22.4534
22.4534
22.4534
22.4534
22.4533
22.4533
22.4534
22.5044
22.5044
22.5044
22.5044
22.5044
22.5045
22.5045
22.5045
22.5045
22.5046
22.5046
22.5046
22.5047
22.5047
22.5047
22.5047
22.5048
22.5048
22.5048
22.5048
22.5049
22.5049
22.5049
22.5049
22.5049
22.5049
22.5049
22.5049
22.5049
22.5049
22.5049
22.5049
22.5049
22.5049
22.5049
22.5049
22.5049
22.5049
22.5049
22.5049
22.5048
22.5048
22.5048
22.5048
22.5047
22.5047
22.5047
22.5047
22.5046
22.5046
22.5046
22.5045
22.5045
22.5045
22.5045
22.5044
22.5044
22.5044
22.5044
22.5044
22.5528
22.5528
22.5528
22.5528
22.5528
22.5528
22.5528
22.5529
22.5529
22.5529
22.5529
22.553
22.553
22.553
22.553
22.5531
22.5531
22.5531
22.5532
22.5532
22.5532
22.5532
22.5532
22.5532
22.5533
22.5533
22.5533
22.5533
22.5533
22.5533
22.5533
22.5533
22.5533
22.5533
22.5533
22.5533
22.5532
22.5532
22.5532
22.5532
22.5532
22.5532
22.5531
22.5531
22.5531
22.553
22.553
22.553
22.553
22.5529
22.5529
22.5529
22.5529
22.5528
22.5528
22.5528
22.5528
22.5528
22.5528
22.5528
22.5989
22.5989
22.5988
22.5988
22.5988
22.5989
22.5989
22.5989
22.5989
22.5989
22.599
22.599
22.599
22.599
22.5991
22.5991
22.5991
22.5992
22.5992
22.5992
22.5992
22.5992
22.5993
22.5993
22.5993
22.5993
22.5993
22.5993
22.5993
22.5993
22.5993
22.5993
22.5993
22.5993
22.5993
22.5993
22.5993
22.5993
22.5992
22.5992
22.5992
22.5992
22.5992
22.5991
22.5991
22.5991
22.599
22.599
22.599
22.599
22.5989
22.5989
22.5989
22.5989
22.5989
22.5988
22.5988
22.5988
22.5989
22.5989
22.6429
22.6429
22.6429
22.6429
22.6429
22.6429
22.6429
22.6429
22.643
22.643
22.643
22.643
22.6431
22.6431
22.6431
22.6432
22.6432
22.6432
22.6432
22.6433
22.6433
22.6433
22.6433
22.6433
22.6433
22.6433
22.6434
22.6434
22.6434
22.6434
22.6434
22.6434
22.6434
22.6434
22.6433
22.6433
22.6433
22.6433
22.6433
22.6433
22.6433
22.6432
22.6432
22.6432
22.6432
22.6431
22.6431
22.6431
22.643
22.643
22.643
22.643
22.6429
22.6429
22.6429
22.6429
22.6429
22.6429
22.6429
22.6429
22.6853
22.6853
22.6853
22.6853
22.6853
22.6853
22.6853
22.6853
22.6853
22.6853
22.6854
22.6854
22.6854
22.6854
22.6855
22.6855
22.6855
22.6855
22.6856
22.6856
22.6856
22.6856
22.6856
22.6857
22.6857
22.6857
22.6857
22.6857
22.6857
22.6857
22.6857
22.6857
22.6857
22.6857
22.6857
22.6857
22.6857
22.6856
22.6856
22.6856
22.6856
22.6856
22.6855
22.6855
22.6855
22.6855
22.6854
22.6854
22.6854
22.6854
22.6853
22.6853
22.6853
22.6853
22.6853
22.6853
22.6853
22.6853
22.6853
22.6853
22.7262
22.7261
22.7261
22.7261
22.7261
22.7261
22.7261
22.7261
22.7261
22.7262
22.7262
22.7262
22.7262
22.7263
22.7263
22.7263
22.7264
22.7264
22.7264
22.7264
22.7265
22.7265
22.7265
22.7265
22.7265
22.7265
22.7265
22.7266
22.7266
22.7266
22.7266
22.7266
22.7266
22.7265
22.7265
22.7265
22.7265
22.7265
22.7265
22.7265
22.7264
22.7264
22.7264
22.7264
22.7263
22.7263
22.7263
22.7262
22.7262
22.7262
22.7262
22.7261
22.7261
22.7261
22.7261
22.7261
22.7261
22.7261
22.7261
22.7262
22.7657
22.7657
22.7657
22.7657
22.7657
22.7657
22.7657
22.7657
22.7657
22.7657
22.7657
22.7658
22.7658
22.7658
22.7658
22.7659
22.7659
22.7659
22.766
22.766
22.766
22.766
22.766
22.7661
22.7661
22.7661
22.7661
22.7661
22.7661
22.7661
22.7661
22.7661
22.7661
22.7661
22.7661
22.7661
22.7661
22.766
22.766
22.766
22.766
22.766
22.7659
22.7659
22.7659
22.7658
22.7658
22.7658
22.7658
22.7657
22.7657
22.7657
22.7657
22.7657
22.7657
22.7657
22.7657
22.7657
22.7657
22.7657
22.8041
22.8041
22.8041
22.8041
22.8041
22.8041
22.8041
22.8041
22.8041
22.8041
22.8041
22.8042
22.8042
22.8042
22.8042
22.8043
22.8043
22.8043
22.8044
22.8044
22.8044
22.8044
22.8044
22.8045
22.8045
22.8045
22.8045
22.8045
22.8045
22.8045
22.8045
22.8045
22.8045
22.8045
22.8045
22.8045
22.8045
22.8044
22.8044
22.8044
22.8044
22.8044
22.8043
22.8043
22.8043
22.8042
22.8042
22.8042
22.8042
22.8041
22.8041
22.8041
22.8041
22.8041
22.8041
22.8041
22.8041
22.8041
22.8041
22.8041
22.8415
22.8415
22.8415
22.8414
22.8414
22.8414
22.8414
22.8415
22.8415
22.8415
22.8415
22.8415
22.8416
22.8416
22.8416
22.8417
22.8417
22.8417
22.8417
22.8418
22.8418
22.8418
22.8418
22.8419
22.8419
22.8419
22.8419
22.8419
22.8419
22.8419
22.8419
22.8419
22.8419
22.8419
22.8419
22.8419
22.8419
22.8418
22.8418
22.8418
22.8418
22.8417
22.8417
22.8417
22.8417
22.8416
22.8416
22.8416
22.8415
22.8415
22.8415
22.8415
22.8415
22.8414
22.8414
22.8414
22.8414
22.8415
22.8415
22.8415
22.878
22.878
22.878
22.8779
22.8779
22.8779
22.8779
22.878
22.878
22.878
22.878
22.878
22.8781
22.8781
22.8781
22.8782
22.8782
22.8782
22.8782
22.8783
22.8783
22.8783
22.8783
22.8784
22.8784
22.8784
22.8784
22.8784
22.8784
22.8784
22.8784
22.8784
22.8784
22.8784
22.8784
22.8784
22.8784
22.8783
22.8783
22.8783
22.8783
22.8782
22.8782
22.8782
22.8782
22.8781
22.8781
22.8781
22.878
22.878
22.878
22.878
22.878
22.8779
22.8779
22.8779
22.8779
22.878
22.878
22.878
22.9137
22.9137
22.9137
22.9137
22.9137
22.9137
22.9137
22.9137
22.9137
22.9137
22.9137
22.9138
22.9138
22.9138
22.9138
22.9139
22.9139
22.9139
22.914
22.914
22.914
22.914
22.9141
22.9141
22.9141
22.9141
22.9141
22.9141
22.9141
22.9141
22.9141
22.9141
22.9141
22.9141
22.9141
22.9141
22.9141
22.9141
22.914
22.914
22.914
22.914
22.9139
22.9139
22.9139
22.9138
22.9138
22.9138
22.9138
22.9137
22.9137
22.9137
22.9137
22.9137
22.9137
22.9137
22.9137
22.9137
22.9137
22.9137
22.9487
22.9487
22.9487
22.9487
22.9487
22.9487
22.9487
22.9487
22.9487
22.9487
22.9487
22.9488
22.9488
22.9488
22.9489
22.9489
22.9489
22.949
22.949
22.949
22.949
22.9491
22.9491
22.9491
22.9491
22.9491
22.9491
22.9491
22.9492
22.9492
22.9492
22.9492
22.9491
22.9491
22.9491
22.9491
22.9491
22.9491
22.9491
22.949
22.949
22.949
22.949
22.9489
22.9489
22.9489
22.9488
22.9488
22.9488
22.9487
22.9487
22.9487
22.9487
22.9487
22.9487
22.9487
22.9487
22.9487
22.9487
22.9487
22.9831
22.9831
22.9831
22.9831
22.9831
22.9831
22.9831
22.9831
22.9831
22.9831
22.9832