/*--------------------------------*- C++ -*----------------------------------*\
| =========                 |                                                 |
| \\      /  F ield         | foam-extend: Open Source CFD                    |
|  \\    /   O peration     | Version:     4.0                                |
|   \\  /    A nd           | Web:         http://www.foam-extend.org         |
|    \\/     M anipulation  |                                                 |
\*---------------------------------------------------------------------------*/
FoamFile
{
    version     2.0;
    format      ascii;
    class       volVectorField;
    location    "6";
    object      U;
}
// * * * * * * * * * * * * * * * * * * * * * * * * * * * * * * * * * * * * * //

dimensions      [0 1 -1 0 0 0 0];

internalField   nonuniform List<vector> 
6960
(
(-5.57041e-06 -499.538 0)
(-4.9739e-06 -499.522 0)
(1.18376e-06 -499.522 0)
(5.44504e-07 -499.522 0)
(-1.90154e-08 -499.522 0)
(-2.16803e-09 -499.522 0)
(-2.89445e-08 -499.522 0)
(-1.59534e-08 -499.522 0)
(-1.62058e-08 -499.522 0)
(-9.20803e-09 -499.522 0)
(-7.26865e-09 -499.522 0)
(-3.38921e-09 -499.522 0)
(-1.76193e-09 -499.522 0)
(4.52247e-10 -499.522 0)
(1.5535e-09 -499.522 0)
(2.79865e-09 -499.522 0)
(3.44437e-09 -499.522 0)
(4.0718e-09 -499.522 0)
(4.348e-09 -499.522 0)
(4.54882e-09 -499.522 0)
(4.52595e-09 -499.522 0)
(4.41524e-09 -499.522 0)
(4.15344e-09 -499.522 0)
(3.81149e-09 -499.522 0)
(3.36691e-09 -499.522 0)
(2.85852e-09 -499.522 0)
(2.28219e-09 -499.522 0)
(1.66566e-09 -499.522 0)
(1.01062e-09 -499.522 0)
(3.38817e-10 -499.522 0)
(-3.39894e-10 -499.522 0)
(-1.0119e-09 -499.522 0)
(-1.66712e-09 -499.522 0)
(-2.28093e-09 -499.522 0)
(-2.85826e-09 -499.522 0)
(-3.36803e-09 -499.522 0)
(-3.81026e-09 -499.522 0)
(-4.15393e-09 -499.522 0)
(-4.41655e-09 -499.522 0)
(-4.5243e-09 -499.522 0)
(-4.54895e-09 -499.522 0)
(-4.34929e-09 -499.522 0)
(-4.07049e-09 -499.522 0)
(-3.44392e-09 -499.522 0)
(-2.79878e-09 -499.522 0)
(-1.55047e-09 -499.522 0)
(-4.49956e-10 -499.522 0)
(1.7627e-09 -499.522 0)
(3.3919e-09 -499.522 0)
(7.26986e-09 -499.522 0)
(9.20822e-09 -499.522 0)
(1.6209e-08 -499.522 0)
(1.59552e-08 -499.522 0)
(2.89456e-08 -499.522 0)
(2.17265e-09 -499.522 0)
(1.90196e-08 -499.522 0)
(-5.445e-07 -499.522 0)
(-1.18376e-06 -499.522 0)
(4.97391e-06 -499.522 0)
(5.57041e-06 -499.538 0)
(0.000473495 38.1397 0)
(0.000475873 38.1548 0)
(4.17556e-06 38.1548 0)
(1.76249e-06 38.1548 0)
(8.23304e-08 38.1548 0)
(7.42239e-08 38.1548 0)
(-3.1664e-08 38.1548 0)
(-1.14039e-08 38.1548 0)
(-2.30353e-08 38.1548 0)
(-1.01342e-08 38.1548 0)
(-9.61336e-09 38.1548 0)
(-2.0295e-09 38.1548 0)
(-3.21068e-11 38.1548 0)
(4.38695e-09 38.1548 0)
(6.07606e-09 38.1548 0)
(8.52465e-09 38.1548 0)
(9.55557e-09 38.1548 0)
(1.07624e-08 38.1548 0)
(1.1102e-08 38.1548 0)
(1.14086e-08 38.1548 0)
(1.11935e-08 38.1548 0)
(1.07984e-08 38.1548 0)
(1.00886e-08 38.1548 0)
(9.22302e-09 38.1548 0)
(8.09086e-09 38.1548 0)
(6.85964e-09 38.1548 0)
(5.47389e-09 38.1548 0)
(3.97105e-09 38.1548 0)
(2.41933e-09 38.1548 0)
(8.45826e-10 38.1548 0)
(-8.95005e-10 38.1548 0)
(-2.40967e-09 38.1548 0)
(-3.8765e-09 38.1548 0)
(-5.56971e-09 38.1548 0)
(-6.85928e-09 38.1548 0)
(-7.99551e-09 38.1548 0)
(-9.31874e-09 38.1548 0)
(-1.00902e-08 38.1548 0)
(-1.07034e-08 38.1548 0)
(-1.1288e-08 38.1548 0)
(-1.14091e-08 38.1548 0)
(-1.10068e-08 38.1548 0)
(-1.08576e-08 38.1548 0)
(-9.55437e-09 38.1548 0)
(-8.42641e-09 38.1548 0)
(-6.16694e-09 38.1548 0)
(-4.38097e-09 38.1548 0)
(1.32923e-10 38.1548 0)
(1.9379e-09 38.1548 0)
(9.61663e-09 38.1548 0)
(1.02332e-08 38.1548 0)
(2.2945e-08 38.1548 0)
(1.14089e-08 38.1548 0)
(3.17655e-08 38.1548 0)
(-7.43105e-08 38.1548 0)
(-8.23187e-08 38.1548 0)
(-1.76238e-06 38.1548 0)
(-4.17564e-06 38.1548 0)
(-0.000475873 38.1548 0)
(-0.000473495 38.1397 0)
(0.000408058 88.4232 0)
(0.000412219 88.4157 0)
(7.20707e-06 88.4157 0)
(3.11301e-06 88.4157 0)
(3.27008e-07 88.4157 0)
(2.34344e-07 88.4157 0)
(2.20961e-08 88.4157 0)
(3.0528e-08 88.4157 0)
(-3.83374e-09 88.4157 0)
(6.81999e-09 88.4157 0)
(4.54366e-10 88.4157 0)
(7.63133e-09 88.4157 0)
(7.10565e-09 88.4157 0)
(1.14712e-08 88.4157 0)
(1.20874e-08 88.4157 0)
(1.44941e-08 88.4157 0)
(1.49698e-08 88.4157 0)
(1.6054e-08 88.4157 0)
(1.60077e-08 88.4157 0)
(1.60974e-08 88.4157 0)
(1.55146e-08 88.4157 0)
(1.48141e-08 88.4157 0)
(1.37028e-08 88.4157 0)
(1.2445e-08 88.4157 0)
(1.08671e-08 88.4157 0)
(9.1773e-09 88.4157 0)
(7.29504e-09 88.4157 0)
(5.29221e-09 88.4157 0)
(3.21265e-09 88.4157 0)
(1.10691e-09 88.4157 0)
(-1.15233e-09 88.4157 0)
(-3.20661e-09 88.4157 0)
(-5.21211e-09 88.4157 0)
(-7.37822e-09 88.4157 0)
(-9.1773e-09 88.4157 0)
(-1.07859e-08 88.4157 0)
(-1.25279e-08 88.4157 0)
(-1.37056e-08 88.4157 0)
(-1.47334e-08 88.4157 0)
(-1.55955e-08 88.4157 0)
(-1.60984e-08 88.4157 0)
(-1.59263e-08 88.4157 0)
(-1.61354e-08 88.4157 0)
(-1.49681e-08 88.4157 0)
(-1.44082e-08 88.4157 0)
(-1.21628e-08 88.4157 0)
(-1.14626e-08 88.4157 0)
(-7.01574e-09 88.4157 0)
(-7.70744e-09 88.4157 0)
(-4.49525e-10 88.4157 0)
(-6.73305e-09 88.4157 0)
(3.75935e-09 88.4157 0)
(-3.05208e-08 88.4157 0)
(-2.20055e-08 88.4157 0)
(-2.34413e-07 88.4157 0)
(-3.26992e-07 88.4157 0)
(-3.1129e-06 88.4157 0)
(-7.20713e-06 88.4157 0)
(-0.000412219 88.4157 0)
(-0.000408058 88.4232 0)
(0.000196034 19.346 0)
(0.000201992 19.3382 0)
(1.02201e-05 19.3382 0)
(4.49383e-06 19.3382 0)
(6.66901e-07 19.3382 0)
(4.48681e-07 19.3382 0)
(1.12759e-07 19.3382 0)
(9.65998e-08 19.3382 0)
(3.22413e-08 19.3382 0)
(3.52969e-08 19.3382 0)
(1.85681e-08 19.3382 0)
(2.26828e-08 19.3382 0)
(1.77927e-08 19.3382 0)
(2.06605e-08 19.3382 0)
(1.91592e-08 19.3382 0)
(2.07196e-08 19.3382 0)
(2.00503e-08 19.3382 0)
(2.05674e-08 19.3382 0)
(1.98405e-08 19.3382 0)
(1.95082e-08 19.3382 0)
(1.84468e-08 19.3382 0)
(1.7412e-08 19.3382 0)
(1.59261e-08 19.3382 0)
(1.43554e-08 19.3382 0)
(1.24668e-08 19.3382 0)
(1.04801e-08 19.3382 0)
(8.29334e-09 19.3382 0)
(6.01494e-09 19.3382 0)
(3.63674e-09 19.3382 0)
(1.23335e-09 19.3382 0)
(-1.26092e-09 19.3382 0)
(-3.63819e-09 19.3382 0)
(-5.97916e-09 19.3382 0)
(-8.33455e-09 19.3382 0)
(-1.04808e-08 19.3382 0)
(-1.24298e-08 19.3382 0)
(-1.4396e-08 19.3382 0)
(-1.59304e-08 19.3382 0)
(-1.73756e-08 19.3382 0)
(-1.84848e-08 19.3382 0)
(-1.95099e-08 19.3382 0)
(-1.98025e-08 19.3382 0)
(-2.06054e-08 19.3382 0)
(-2.00482e-08 19.3382 0)
(-2.06761e-08 19.3382 0)
(-1.919e-08 19.3382 0)
(-2.06498e-08 19.3382 0)
(-1.77438e-08 19.3382 0)
(-2.27141e-08 19.3382 0)
(-1.8562e-08 19.3382 0)
(-3.52522e-08 19.3382 0)
(-3.22706e-08 19.3382 0)
(-9.65909e-08 19.3382 0)
(-1.1271e-07 19.3382 0)
(-4.48704e-07 19.3382 0)
(-6.66881e-07 19.3382 0)
(-4.49377e-06 19.3382 0)
(-1.02201e-05 19.3382 0)
(-0.000201992 19.3382 0)
(-0.000196034 19.346 0)
(0.000128557 -3.34587 0)
(0.000136429 -3.34699 0)
(1.32925e-05 -3.347 0)
(5.85756e-06 -3.34702 0)
(1.06342e-06 -3.34702 0)
(6.93822e-07 -3.34702 0)
(2.24959e-07 -3.34702 0)
(1.76497e-07 -3.34702 0)
(7.81134e-08 -3.34702 0)
(7.04216e-08 -3.34702 0)
(4.14088e-08 -3.34702 0)
(4.09369e-08 -3.34702 0)
(3.0655e-08 -3.34702 0)
(3.12069e-08 -3.34702 0)
(2.70159e-08 -3.34702 0)
(2.72625e-08 -3.34702 0)
(2.51243e-08 -3.34702 0)
(2.48241e-08 -3.34702 0)
(2.32376e-08 -3.34702 0)
(2.2365e-08 -3.34702 0)
(2.07597e-08 -3.34702 0)
(1.93528e-08 -3.34702 0)
(1.75003e-08 -3.34702 0)
(1.56516e-08 -3.34702 0)
(1.35027e-08 -3.34702 0)
(1.1298e-08 -3.34702 0)
(8.90192e-09 -3.34702 0)
(6.44504e-09 -3.34702 0)
(3.88594e-09 -3.34702 0)
(1.31129e-09 -3.34702 0)
(-1.33459e-09 -3.34702 0)
(-3.89093e-09 -3.34702 0)
(-6.42447e-09 -3.34702 0)
(-8.93059e-09 -3.34702 0)
(-1.12996e-08 -3.34702 0)
(-1.34806e-08 -3.34702 0)
(-1.56794e-08 -3.34702 0)
(-1.7506e-08 -3.34702 0)
(-1.93314e-08 -3.34702 0)
(-2.07842e-08 -3.34702 0)
(-2.23674e-08 -3.34702 0)
(-2.32137e-08 -3.34702 0)
(-2.48481e-08 -3.34702 0)
(-2.51221e-08 -3.34702 0)
(-2.72321e-08 -3.34702 0)
(-2.70316e-08 -3.34702 0)
(-3.11945e-08 -3.34702 0)
(-3.06181e-08 -3.34702 0)
(-4.09528e-08 -3.34702 0)
(-4.14017e-08 -3.34702 0)
(-7.03902e-08 -3.34702 0)
(-7.81272e-08 -3.34702 0)
(-1.76487e-07 -3.34702 0)
(-2.24922e-07 -3.34702 0)
(-6.93828e-07 -3.34702 0)
(-1.0634e-06 -3.34702 0)
(-5.85751e-06 -3.34702 0)
(-1.32925e-05 -3.347 0)
(-0.000136429 -3.34699 0)
(-0.000128557 -3.34587 0)
(0.000133562 -1.56258 0)
(0.000143324 -1.56173 0)
(1.62908e-05 -1.56173 0)
(7.19769e-06 -1.56175 0)
(1.49517e-06 -1.56175 0)
(9.57069e-07 -1.56175 0)
(3.50523e-07 -1.56175 0)
(2.64766e-07 -1.56175 0)
(1.30062e-07 -1.56175 0)
(1.0965e-07 -1.56175 0)
(6.72494e-08 -1.56175 0)
(6.12539e-08 -1.56175 0)
(4.4989e-08 -1.56175 0)
(4.27274e-08 -1.56175 0)
(3.55143e-08 -1.56175 0)
(3.41636e-08 -1.56175 0)
(3.03651e-08 -1.56175 0)
(2.90923e-08 -1.56175 0)
(2.65363e-08 -1.56175 0)
(2.50444e-08 -1.56175 0)
(2.28478e-08 -1.56175 0)
(2.1036e-08 -1.56175 0)
(1.88097e-08 -1.56175 0)
(1.66902e-08 -1.56175 0)
(1.42971e-08 -1.56175 0)
(1.19054e-08 -1.56175 0)
(9.34005e-09 -1.56175 0)
(6.74585e-09 -1.56175 0)
(4.05783e-09 -1.56175 0)
(1.36838e-09 -1.56175 0)
(-1.39423e-09 -1.56175 0)
(-4.06444e-09 -1.56175 0)
(-6.72589e-09 -1.56175 0)
(-9.37095e-09 -1.56175 0)
(-1.19081e-08 -1.56175 0)
(-1.42755e-08 -1.56175 0)
(-1.67199e-08 -1.56175 0)
(-1.8817e-08 -1.56175 0)
(-2.1015e-08 -1.56175 0)
(-2.28738e-08 -1.56175 0)
(-2.50477e-08 -1.56175 0)
(-2.6512e-08 -1.56175 0)
(-2.91168e-08 -1.56175 0)
(-3.03627e-08 -1.56175 0)
(-3.41319e-08 -1.56175 0)
(-3.55297e-08 -1.56175 0)
(-4.27135e-08 -1.56175 0)
(-4.49496e-08 -1.56175 0)
(-6.12692e-08 -1.56175 0)
(-6.72413e-08 -1.56175 0)
(-1.09617e-07 -1.56175 0)
(-1.30075e-07 -1.56175 0)
(-2.64755e-07 -1.56175 0)
(-3.50485e-07 -1.56175 0)
(-9.57075e-07 -1.56175 0)
(-1.49515e-06 -1.56175 0)
(-7.19764e-06 -1.56175 0)
(-1.62908e-05 -1.56173 0)
(-0.000143324 -1.56173 0)
(-0.000133562 -1.56258 0)
(0.000131116 0.536922 0)
(0.000142607 0.537197 0)
(1.90761e-05 0.537193 0)
(8.50276e-06 0.537172 0)
(1.94984e-06 0.537172 0)
(1.23132e-06 0.537171 0)
(4.84955e-07 0.537171 0)
(3.58387e-07 0.537171 0)
(1.86015e-07 0.537171 0)
(1.51547e-07 0.537171 0)
(9.50987e-08 0.537171 0)
(8.29603e-08 0.537171 0)
(6.03607e-08 0.537171 0)
(5.49619e-08 0.537171 0)
(4.45256e-08 0.537171 0)
(4.13976e-08 0.537171 0)
(3.58204e-08 0.537171 0)
(3.34724e-08 0.537171 0)
(2.98792e-08 0.537171 0)
(2.77122e-08 0.537171 0)
(2.48889e-08 0.537171 0)
(2.26468e-08 0.537171 0)
(2.0034e-08 0.537171 0)
(1.76381e-08 0.537171 0)
(1.5004e-08 0.537171 0)
(1.24331e-08 0.537171 0)
(9.71155e-09 0.537171 0)
(6.99671e-09 0.537171 0)
(4.19868e-09 0.537171 0)
(1.4144e-09 0.537171 0)
(-1.4421e-09 0.537171 0)
(-4.20712e-09 0.537171 0)
(-6.9789e-09 0.537171 0)
(-9.74326e-09 0.537171 0)
(-1.24369e-08 0.537171 0)
(-1.49842e-08 0.537171 0)
(-1.76683e-08 0.537171 0)
(-2.00428e-08 0.537171 0)
(-2.26278e-08 0.537171 0)
(-2.49149e-08 0.537171 0)
(-2.77164e-08 0.537171 0)
(-2.98559e-08 0.537171 0)
(-3.3496e-08 0.537171 0)
(-3.58179e-08 0.537171 0)
(-4.13661e-08 0.537171 0)
(-4.45393e-08 0.537171 0)
(-5.49467e-08 0.537171 0)
(-6.03202e-08 0.537171 0)
(-8.29735e-08 0.537171 0)
(-9.50898e-08 0.537171 0)
(-1.51515e-07 0.537171 0)
(-1.86026e-07 0.537171 0)
(-3.58374e-07 0.537171 0)
(-4.84917e-07 0.537171 0)
(-1.23132e-06 0.537171 0)
(-1.94982e-06 0.537172 0)
(-8.50271e-06 0.537172 0)
(-1.90761e-05 0.537193 0)
(-0.000142607 0.537197 0)
(-0.000131116 0.536922 0)
(0.000116765 0.457537 0)
(0.000129798 0.457452 0)
(2.16099e-05 0.457448 0)
(9.75667e-06 0.457426 0)
(2.42005e-06 0.457425 0)
(1.51252e-06 0.457425 0)
(6.25783e-07 0.457425 0)
(4.55696e-07 0.457425 0)
(2.44832e-07 0.457425 0)
(1.95311e-07 0.457425 0)
(1.24395e-07 0.457425 0)
(1.05665e-07 0.457425 0)
(7.65074e-08 0.457425 0)
(6.77432e-08 0.457425 0)
(5.39549e-08 0.457425 0)
(4.89247e-08 0.457425 0)
(4.14917e-08 0.457425 0)
(3.79965e-08 0.457425 0)
(3.33207e-08 0.457425 0)
(3.04378e-08 0.457425 0)
(2.69612e-08 0.457425 0)
(2.42677e-08 0.457425 0)
(2.12549e-08 0.457425 0)
(1.85728e-08 0.457425 0)
(1.56941e-08 0.457425 0)
(1.29422e-08 0.457425 0)
(1.00659e-08 0.457425 0)
(7.23422e-09 0.457425 0)
(4.33079e-09 0.457425 0)
(1.45655e-09 0.457425 0)
(-1.48494e-09 0.457425 0)
(-4.34141e-09 0.457425 0)
(-7.22101e-09 0.457425 0)
(-1.00961e-08 0.457425 0)
(-1.29472e-08 0.457425 0)
(-1.56786e-08 0.457425 0)
(-1.86013e-08 0.457425 0)
(-2.12652e-08 0.457425 0)
(-2.4253e-08 0.457425 0)
(-2.69848e-08 0.457425 0)
(-3.04427e-08 0.457425 0)
(-3.33009e-08 0.457425 0)
(-3.8017e-08 0.457425 0)
(-4.14891e-08 0.457425 0)
(-4.88957e-08 0.457425 0)
(-5.39646e-08 0.457425 0)
(-6.77266e-08 0.457425 0)
(-7.64683e-08 0.457425 0)
(-1.05674e-07 0.457425 0)
(-1.24385e-07 0.457425 0)
(-1.95281e-07 0.457425 0)
(-2.44839e-07 0.457425 0)
(-4.55683e-07 0.457425 0)
(-6.25747e-07 0.457425 0)
(-1.51252e-06 0.457425 0)
(-2.42003e-06 0.457425 0)
(-9.75662e-06 0.457426 0)
(-2.16099e-05 0.457448 0)
(-0.000129798 0.457452 0)
(-0.000116765 0.457537 0)
(0.000102439 0.110811 0)
(0.000116839 0.110784 0)
(2.38958e-05 0.110781 0)
(1.09491e-05 0.110756 0)
(2.9013e-06 0.110755 0)
(1.79849e-06 0.110755 0)
(7.71787e-07 0.110755 0)
(5.55895e-07 0.110755 0)
(3.05977e-07 0.110755 0)
(2.40567e-07 0.110755 0)
(1.54877e-07 0.110755 0)
(1.29188e-07 0.110755 0)
(9.33072e-08 0.110755 0)
(8.0993e-08 0.110755 0)
(6.37578e-08 0.110755 0)
(5.67248e-08 0.110755 0)
(4.73785e-08 0.110755 0)
(4.26783e-08 0.110755 0)
(3.68842e-08 0.110755 0)
(3.32512e-08 0.110755 0)
(2.90993e-08 0.110755 0)
(2.59345e-08 0.110755 0)
(2.25085e-08 0.110755 0)
(1.95292e-08 0.110755 0)
(1.63986e-08 0.110755 0)
(1.34601e-08 0.110755 0)
(1.04255e-08 0.110755 0)
(7.47439e-09 0.110755 0)
(4.46425e-09 0.110755 0)
(1.49906e-09 0.110755 0)
(-1.52813e-09 0.110755 0)
(-4.47709e-09 0.110755 0)
(-7.4658e-09 0.110755 0)
(-1.04541e-08 0.110755 0)
(-1.34662e-08 0.110755 0)
(-1.63874e-08 0.110755 0)
(-1.95559e-08 0.110755 0)
(-2.25205e-08 0.110755 0)
(-2.59241e-08 0.110755 0)
(-2.91207e-08 0.110755 0)
(-3.32571e-08 0.110755 0)
(-3.68679e-08 0.110755 0)
(-4.26957e-08 0.110755 0)
(-4.73757e-08 0.110755 0)
(-5.66983e-08 0.110755 0)
(-6.37634e-08 0.110755 0)
(-8.09751e-08 0.110755 0)
(-9.32694e-08 0.110755 0)
(-1.29193e-07 0.110755 0)
(-1.54866e-07 0.110755 0)
(-2.40539e-07 0.110755 0)
(-3.05979e-07 0.110755 0)
(-5.5588e-07 0.110755 0)
(-7.71753e-07 0.110755 0)
(-1.79848e-06 0.110755 0)
(-2.90127e-06 0.110755 0)
(-1.0949e-05 0.110756 0)
(-2.38958e-05 0.110781 0)
(-0.000116838 0.110784 0)
(-0.000102439 0.110811 0)
(9.09379e-05 0.00533075 0)
(0.00010653 0.0053979 0)
(2.59341e-05 0.00539525 0)
(1.2075e-05 0.00536941 0)
(3.39051e-06 0.00536819 0)
(2.08795e-06 0.00536749 0)
(9.2238e-07 0.00536742 0)
(6.58626e-07 0.00536735 0)
(3.69231e-07 0.00536734 0)
(2.87165e-07 0.00536733 0)
(1.86447e-07 0.00536732 0)
(1.53462e-07 0.00536732 0)
(1.10717e-07 0.00536732 0)
(9.46851e-08 0.00536732 0)
(7.39208e-08 0.00536732 0)
(6.47939e-08 0.00536732 0)
(5.34838e-08 0.00536732 0)
(4.75263e-08 0.00536732 0)
(4.05816e-08 0.00536732 0)
(3.61671e-08 0.00536732 0)
(3.1319e-08 0.00536732 0)
(2.76634e-08 0.00536732 0)
(2.38109e-08 0.00536732 0)
(2.05223e-08 0.00536732 0)
(1.71309e-08 0.00536732 0)
(1.39982e-08 0.00536732 0)
(1.07998e-08 0.00536732 0)
(7.72405e-09 0.00536732 0)
(4.60331e-09 0.00536732 0)
(1.54359e-09 0.00536732 0)
(-1.5736e-09 0.00536732 0)
(-4.61834e-09 0.00536732 0)
(-7.71953e-09 0.00536732 0)
(-1.08275e-08 0.00536732 0)
(-1.40056e-08 0.00536732 0)
(-1.71234e-08 0.00536732 0)
(-2.05478e-08 0.00536732 0)
(-2.38244e-08 0.00536732 0)
(-2.76567e-08 0.00536732 0)
(-3.1339e-08 0.00536732 0)
(-3.61738e-08 0.00536732 0)
(-4.05681e-08 0.00536732 0)
(-4.75412e-08 0.00536732 0)
(-5.34808e-08 0.00536732 0)
(-6.47693e-08 0.00536732 0)
(-7.3923e-08 0.00536732 0)
(-9.4666e-08 0.00536732 0)
(-1.1068e-07 0.00536732 0)
(-1.53463e-07 0.00536732 0)
(-1.86436e-07 0.00536732 0)
(-2.8714e-07 0.00536733 0)
(-3.6923e-07 0.00536734 0)
(-6.58611e-07 0.00536735 0)
(-9.22348e-07 0.00536742 0)
(-2.08794e-06 0.00536749 0)
(-3.39048e-06 0.00536819 0)
(-1.20749e-05 0.00536941 0)
(-2.59341e-05 0.00539525 0)
(-0.00010653 0.0053979 0)
(-9.09378e-05 0.00533075 0)
(8.08158e-05 0.00051587 0)
(9.74263e-05 0.000613118 0)
(2.77214e-05 0.000611154 0)
(1.31308e-05 0.000583989 0)
(3.88511e-06 0.000582507 0)
(2.37998e-06 0.000581656 0)
(1.07722e-06 0.000581561 0)
(7.63714e-07 0.000581477 0)
(4.34502e-07 0.000581461 0)
(3.3505e-07 0.000581444 0)
(2.19071e-07 0.00058144 0)
(1.78466e-07 0.000581436 0)
(1.28725e-07 0.000581434 0)
(1.08814e-07 0.000581433 0)
(8.44428e-08 0.000581432 0)
(7.31339e-08 0.000581432 0)
(5.98118e-08 0.000581431 0)
(5.2546e-08 0.000581431 0)
(4.44197e-08 0.000581431 0)
(3.91926e-08 0.000581431 0)
(3.3628e-08 0.000581431 0)
(2.9462e-08 0.000581431 0)
(2.51692e-08 0.000581431 0)
(2.15587e-08 0.000581431 0)
(1.78971e-08 0.000581431 0)
(1.45616e-08 0.000581431 0)
(1.11929e-08 0.000581431 0)
(7.98621e-09 0.000581431 0)
(4.74976e-09 0.000581431 0)
(1.59063e-09 0.000581431 0)
(-1.62172e-09 0.000581431 0)
(-4.76698e-09 0.000581431 0)
(-7.98548e-09 0.000581431 0)
(-1.122e-08 0.000581431 0)
(-1.45703e-08 0.000581431 0)
(-1.78929e-08 0.000581431 0)
(-2.15834e-08 0.000581431 0)
(-2.51842e-08 0.000581431 0)
(-2.94586e-08 0.000581431 0)
(-3.36468e-08 0.000581431 0)
(-3.92003e-08 0.000581431 0)
(-4.44087e-08 0.000581431 0)
(-5.25587e-08 0.000581431 0)
(-5.98087e-08 0.000581431 0)
(-7.3111e-08 0.000581432 0)
(-8.44418e-08 0.000581432 0)
(-1.08793e-07 0.000581433 0)
(-1.28688e-07 0.000581434 0)
(-1.78463e-07 0.000581436 0)
(-2.19059e-07 0.00058144 0)
(-3.35026e-07 0.000581444 0)
(-4.34497e-07 0.000581461 0)
(-7.63697e-07 0.000581476 0)
(-1.07719e-06 0.000581561 0)
(-2.37997e-06 0.000581656 0)
(-3.88508e-06 0.000582507 0)
(-1.31308e-05 0.000583989 0)
(-2.77213e-05 0.000611154 0)
(-9.74262e-05 0.000613118 0)
(-8.08158e-05 0.00051587 0)
(7.11989e-05 0.00316859 0)
(8.86538e-05 0.00326992 0)
(2.9257e-05 0.00326864 0)
(1.41131e-05 0.00324034 0)
(4.38265e-06 0.00323858 0)
(2.67377e-06 0.00323756 0)
(1.23605e-06 0.00323744 0)
(8.71041e-07 0.00323734 0)
(5.01745e-07 0.00323732 0)
(3.84199e-07 0.0032373 0)
(2.5274e-07 0.00323729 0)
(2.04197e-07 0.00323728 0)
(1.47331e-07 0.00323728 0)
(1.23381e-07 0.00323728 0)
(9.5327e-08 0.00323728 0)
(8.17488e-08 0.00323728 0)
(6.63669e-08 0.00323728 0)
(5.7742e-08 0.00323728 0)
(4.84031e-08 0.00323728 0)
(4.23325e-08 0.00323728 0)
(3.60306e-08 0.00323728 0)
(3.13344e-08 0.00323728 0)
(2.65872e-08 0.00323728 0)
(2.26419e-08 0.00323728 0)
(1.87001e-08 0.00323728 0)
(1.5153e-08 0.00323728 0)
(1.16067e-08 0.00323728 0)
(8.26233e-09 0.00323728 0)
(4.90447e-09 0.00323728 0)
(1.6404e-09 0.00323728 0)
(-1.67257e-09 0.00323728 0)
(-4.92392e-09 0.00323728 0)
(-8.26534e-09 0.00323728 0)
(-1.16333e-08 0.00323728 0)
(-1.51629e-08 0.00323728 0)
(-1.86991e-08 0.00323728 0)
(-2.2666e-08 0.00323728 0)
(-2.66037e-08 0.00323728 0)
(-3.13342e-08 0.00323728 0)
(-3.60484e-08 0.00323728 0)
(-4.23411e-08 0.00323728 0)
(-4.83944e-08 0.00323728 0)
(-5.77527e-08 0.00323728 0)
(-6.63637e-08 0.00323728 0)
(-8.17274e-08 0.00323728 0)
(-9.5323e-08 0.00323728 0)
(-1.23359e-07 0.00323728 0)
(-1.47295e-07 0.00323728 0)
(-2.0419e-07 0.00323728 0)
(-2.52726e-07 0.00323729 0)
(-3.84176e-07 0.0032373 0)
(-5.01736e-07 0.00323732 0)
(-8.71023e-07 0.00323734 0)
(-1.23602e-06 0.00323744 0)
(-2.67375e-06 0.00323756 0)
(-4.38262e-06 0.00323858 0)
(-1.41131e-05 0.00324034 0)
(-2.9257e-05 0.00326864 0)
(-8.86538e-05 0.00326992 0)
(-7.11989e-05 0.00316859 0)
(6.20044e-05 0.00194464 0)
(8.01341e-05 0.00204875 0)
(3.05435e-05 0.00204819 0)
(1.50185e-05 0.00201894 0)
(4.88067e-06 0.00201689 0)
(2.96851e-06 0.0020157 0)
(1.39862e-06 0.00201555 0)
(9.8051e-07 0.00201542 0)
(5.70928e-07 0.00201539 0)
(4.34602e-07 0.00201537 0)
(2.87455e-07 0.00201536 0)
(2.30657e-07 0.00201535 0)
(1.66542e-07 0.00201535 0)
(1.38392e-07 0.00201535 0)
(1.06579e-07 0.00201535 0)
(9.0644e-08 0.00201534 0)
(7.31542e-08 0.00201534 0)
(6.31189e-08 0.00201534 0)
(5.2536e-08 0.00201534 0)
(4.55904e-08 0.00201534 0)
(3.85302e-08 0.00201534 0)
(3.32836e-08 0.00201534 0)
(2.80677e-08 0.00201534 0)
(2.37742e-08 0.00201534 0)
(1.95418e-08 0.00201534 0)
(1.57738e-08 0.00201534 0)
(1.20424e-08 0.00201534 0)
(8.5533e-09 0.00201534 0)
(5.06797e-09 0.00201534 0)
(1.69307e-09 0.00201534 0)
(-1.72635e-09 0.00201534 0)
(-5.08964e-09 0.00201534 0)
(-8.56002e-09 0.00201534 0)
(-1.20687e-08 0.00201534 0)
(-1.5785e-08 0.00201534 0)
(-1.9544e-08 0.00201534 0)
(-2.37977e-08 0.00201534 0)
(-2.80857e-08 0.00201534 0)
(-3.32864e-08 0.00201534 0)
(-3.85472e-08 0.00201534 0)
(-4.55999e-08 0.00201534 0)
(-5.25296e-08 0.00201534 0)
(-6.31277e-08 0.00201534 0)
(-7.31508e-08 0.00201534 0)
(-9.06239e-08 0.00201534 0)
(-1.06572e-07 0.00201535 0)
(-1.38369e-07 0.00201535 0)
(-1.66506e-07 0.00201535 0)
(-2.30648e-07 0.00201535 0)
(-2.87439e-07 0.00201536 0)
(-4.3458e-07 0.00201537 0)
(-5.70916e-07 0.00201539 0)
(-9.80491e-07 0.00201542 0)
(-1.39859e-06 0.00201555 0)
(-2.96848e-06 0.0020157 0)
(-4.88064e-06 0.00201689 0)
(-1.50184e-05 0.00201894 0)
(-3.05434e-05 0.00204819 0)
(-8.0134e-05 0.00204875 0)
(-6.20044e-05 0.00194464 0)
(5.32946e-05 0.000613854 0)
(7.19344e-05 0.000721966 0)
(3.15847e-05 0.00072218 0)
(1.58438e-05 0.000692168 0)
(5.37664e-06 0.000689817 0)
(3.26333e-06 0.000688438 0)
(1.56465e-06 0.000688251 0)
(1.09202e-06 0.000688097 0)
(6.42023e-07 0.000688064 0)
(4.86251e-07 0.000688032 0)
(3.23218e-07 0.000688023 0)
(2.57855e-07 0.000688013 0)
(1.86363e-07 0.00068801 0)
(1.53855e-07 0.000688007 0)
(1.18206e-07 0.000688006 0)
(9.98253e-08 0.000688004 0)
(8.01788e-08 0.000688004 0)
(6.86814e-08 0.000688003 0)
(5.68224e-08 0.000688003 0)
(4.89699e-08 0.000688002 0)
(4.11299e-08 0.000688002 0)
(3.53123e-08 0.000688002 0)
(2.96128e-08 0.000688002 0)
(2.49574e-08 0.000688002 0)
(2.04239e-08 0.000688002 0)
(1.64253e-08 0.000688002 0)
(1.25011e-08 0.000688002 0)
(8.85985e-09 0.000688002 0)
(5.2407e-09 0.000688002 0)
(1.74878e-09 0.000688002 0)
(-1.7832e-09 0.000688002 0)
(-5.26454e-09 0.000688002 0)
(-8.87015e-09 0.000688002 0)
(-1.25271e-08 0.000688002 0)
(-1.64378e-08 0.000688002 0)
(-2.04291e-08 0.000688002 0)
(-2.49805e-08 0.000688002 0)
(-2.96322e-08 0.000688002 0)
(-3.5318e-08 0.000688002 0)
(-4.11462e-08 0.000688002 0)
(-4.89803e-08 0.000688002 0)
(-5.68183e-08 0.000688003 0)
(-6.86885e-08 0.000688003 0)
(-8.01753e-08 0.000688004 0)
(-9.98065e-08 0.000688004 0)
(-1.18196e-07 0.000688006 0)
(-1.53831e-07 0.000688007 0)
(-1.86327e-07 0.00068801 0)
(-2.57842e-07 0.000688013 0)
(-3.23201e-07 0.000688023 0)
(-4.8623e-07 0.000688032 0)
(-6.42008e-07 0.000688064 0)
(-1.092e-06 0.000688097 0)
(-1.56462e-06 0.000688251 0)
(-3.26331e-06 0.000688438 0)
(-5.37661e-06 0.000689817 0)
(-1.58438e-05 0.000692168 0)
(-3.15847e-05 0.00072218 0)
(-7.19344e-05 0.000721966 0)
(-5.32945e-05 0.000613854 0)
(4.50842e-05 9.80332e-05 0)
(6.40756e-05 0.00020974 0)
(3.23859e-05 0.000210762 0)
(1.65864e-05 0.000180172 0)
(5.86793e-06 0.000177512 0)
(3.55735e-06 0.000175938 0)
(1.73384e-06 0.00017571 0)
(1.20545e-06 0.000175528 0)
(7.14994e-07 0.000175488 0)
(5.39139e-07 0.000175449 0)
(3.60032e-07 0.000175438 0)
(2.85796e-07 0.000175426 0)
(2.06804e-07 0.000175422 0)
(1.69777e-07 0.000175418 0)
(1.30214e-07 0.000175416 0)
(1.09299e-07 0.000175414 0)
(8.74463e-08 0.000175414 0)
(7.44342e-08 0.000175413 0)
(6.12665e-08 0.000175413 0)
(5.24745e-08 0.000175412 0)
(4.38327e-08 0.000175412 0)
(3.74231e-08 0.000175412 0)
(3.12248e-08 0.000175412 0)
(2.61933e-08 0.000175412 0)
(2.13478e-08 0.000175412 0)
(1.71087e-08 0.000175412 0)
(1.29835e-08 0.000175412 0)
(9.18259e-09 0.000175412 0)
(5.42305e-09 0.000175412 0)
(1.80767e-09 0.000175412 0)
(-1.8433e-09 0.000175412 0)
(-5.44901e-09 0.000175412 0)
(-9.19636e-09 0.000175412 0)
(-1.30095e-08 0.000175412 0)
(-1.71225e-08 0.000175412 0)
(-2.1356e-08 0.000175412 0)
(-2.62162e-08 0.000175412 0)
(-3.12456e-08 0.000175412 0)
(-3.74316e-08 0.000175412 0)
(-4.38484e-08 0.000175412 0)
(-5.24858e-08 0.000175412 0)
(-6.12645e-08 0.000175413 0)
(-7.44396e-08 0.000175413 0)
(-8.74426e-08 0.000175414 0)
(-1.09281e-07 0.000175414 0)
(-1.30201e-07 0.000175416 0)
(-1.69752e-07 0.000175418 0)
(-2.06768e-07 0.000175422 0)
(-2.85779e-07 0.000175426 0)
(-3.60014e-07 0.000175438 0)
(-5.39118e-07 0.000175449 0)
(-7.14977e-07 0.000175488 0)
(-1.20543e-06 0.000175528 0)
(-1.73382e-06 0.00017571 0)
(-3.55732e-06 0.000175938 0)
(-5.86789e-06 0.000177512 0)
(-1.65864e-05 0.000180172 0)
(-3.23858e-05 0.000210762 0)
(-6.40756e-05 0.00020974 0)
(-4.50842e-05 9.80333e-05 0)
(3.73658e-05 -2.93613e-05 0)
(5.65564e-05 8.51107e-05 0)
(3.29529e-05 8.69694e-05 0)
(1.72439e-05 5.59824e-05 0)
(6.35181e-06 5.30088e-05 0)
(3.84958e-06 5.12301e-05 0)
(1.90586e-06 5.09592e-05 0)
(1.32068e-06 5.07457e-05 0)
(7.89797e-07 5.06963e-05 0)
(5.9325e-07 5.06502e-05 0)
(3.97898e-07 5.06366e-05 0)
(3.14485e-07 5.06226e-05 0)
(2.2787e-07 5.06178e-05 0)
(1.86165e-07 5.06125e-05 0)
(1.4261e-07 5.06105e-05 0)
(1.19071e-07 5.06083e-05 0)
(9.49619e-08 5.06074e-05 0)
(8.0382e-08 5.06063e-05 0)
(6.58722e-08 5.06059e-05 0)
(5.61076e-08 5.06054e-05 0)
(4.66416e-08 5.06052e-05 0)
(3.96185e-08 5.0605e-05 0)
(3.29057e-08 5.06049e-05 0)
(2.74837e-08 5.06048e-05 0)
(2.23149e-08 5.06047e-05 0)
(1.78251e-08 5.06047e-05 0)
(1.34907e-08 5.06047e-05 0)
(9.52211e-09 5.06047e-05 0)
(5.61535e-09 5.06047e-05 0)
(1.86985e-09 5.06047e-05 0)
(-1.90672e-09 5.06047e-05 0)
(-5.64343e-09 5.06046e-05 0)
(-9.53929e-09 5.06047e-05 0)
(-1.35167e-08 5.06047e-05 0)
(-1.78403e-08 5.06047e-05 0)
(-2.23259e-08 5.06047e-05 0)
(-2.75065e-08 5.06048e-05 0)
(-3.29279e-08 5.06049e-05 0)
(-3.96295e-08 5.0605e-05 0)
(-4.66568e-08 5.06052e-05 0)
(-5.612e-08 5.06054e-05 0)
(-6.58723e-08 5.06059e-05 0)
(-8.03858e-08 5.06063e-05 0)
(-9.49581e-08 5.06074e-05 0)
(-1.19054e-07 5.06083e-05 0)
(-1.42595e-07 5.06105e-05 0)
(-1.86139e-07 5.06125e-05 0)
(-2.27834e-07 5.06178e-05 0)
(-3.14465e-07 5.06226e-05 0)
(-3.97878e-07 5.06366e-05 0)
(-5.9323e-07 5.06503e-05 0)
(-7.89777e-07 5.06963e-05 0)
(-1.32066e-06 5.07457e-05 0)
(-1.90583e-06 5.09592e-05 0)
(-3.84955e-06 5.12301e-05 0)
(-6.35177e-06 5.30088e-05 0)
(-1.72438e-05 5.59824e-05 0)
(-3.29529e-05 8.69695e-05 0)
(-5.65564e-05 8.51107e-05 0)
(-3.73658e-05 -2.93612e-05 0)
(3.01325e-05 -5.81375e-05 0)
(4.93772e-05 5.84471e-05 0)
(3.32928e-05 6.11668e-05 0)
(1.78141e-05 2.99598e-05 0)
(6.8255e-06 2.66717e-05 0)
(4.13899e-06 2.46824e-05 0)
(2.0803e-06 2.43632e-05 0)
(1.43754e-06 2.41158e-05 0)
(8.66375e-07 2.40564e-05 0)
(6.48566e-07 2.40023e-05 0)
(4.36812e-07 2.39857e-05 0)
(3.43925e-07 2.3969e-05 0)
(2.49567e-07 2.39632e-05 0)
(2.03026e-07 2.39568e-05 0)
(1.554e-07 2.39544e-05 0)
(1.29147e-07 2.39517e-05 0)
(1.02731e-07 2.39505e-05 0)
(8.65294e-08 2.39493e-05 0)
(7.06436e-08 2.39487e-05 0)
(5.98729e-08 2.39481e-05 0)
(4.95594e-08 2.39478e-05 0)
(4.1901e-08 2.39475e-05 0)
(3.46576e-08 2.39474e-05 0)
(2.88303e-08 2.39472e-05 0)
(2.33267e-08 2.39472e-05 0)
(1.85758e-08 2.39471e-05 0)
(1.40234e-08 2.39471e-05 0)
(9.879e-09 2.39471e-05 0)
(5.81792e-09 2.3947e-05 0)
(1.93543e-09 2.3947e-05 0)
(-1.9736e-09 2.3947e-05 0)
(-5.84818e-09 2.3947e-05 0)
(-9.89953e-09 2.39471e-05 0)
(-1.40495e-08 2.39471e-05 0)
(-1.85923e-08 2.39471e-05 0)
(-2.33404e-08 2.39472e-05 0)
(-2.88532e-08 2.39472e-05 0)
(-3.46811e-08 2.39474e-05 0)
(-4.19143e-08 2.39475e-05 0)
(-4.95744e-08 2.39478e-05 0)
(-5.98862e-08 2.39481e-05 0)
(-7.06456e-08 2.39487e-05 0)
(-8.65318e-08 2.39493e-05 0)
(-1.02727e-07 2.39505e-05 0)
(-1.29132e-07 2.39517e-05 0)
(-1.55383e-07 2.39544e-05 0)
(-2.02998e-07 2.39568e-05 0)
(-2.49531e-07 2.39632e-05 0)
(-3.43902e-07 2.3969e-05 0)
(-4.36791e-07 2.39857e-05 0)
(-6.48545e-07 2.40023e-05 0)
(-8.66352e-07 2.40564e-05 0)
(-1.43752e-06 2.41158e-05 0)
(-2.08027e-06 2.43632e-05 0)
(-4.13896e-06 2.46824e-05 0)
(-6.82546e-06 2.66717e-05 0)
(-1.7814e-05 2.99598e-05 0)
(-3.32928e-05 6.11668e-05 0)
(-4.93771e-05 5.84471e-05 0)
(-3.01325e-05 -5.81374e-05 0)
(2.33804e-05 -6.86142e-05 0)
(4.25417e-05 4.95744e-05 0)
(3.34136e-05 5.31738e-05 0)
(1.82953e-05 2.19188e-05 0)
(7.28614e-06 1.83187e-05 0)
(4.42448e-06 1.61137e-05 0)
(2.25672e-06 1.57418e-05 0)
(1.55586e-06 1.54577e-05 0)
(9.44659e-07 1.53871e-05 0)
(7.05059e-07 1.53241e-05 0)
(4.76766e-07 1.53042e-05 0)
(3.74118e-07 1.52846e-05 0)
(2.719e-07 1.52775e-05 0)
(2.20365e-07 1.52701e-05 0)
(1.68591e-07 1.52671e-05 0)
(1.39533e-07 1.52638e-05 0)
(1.10758e-07 1.52624e-05 0)
(9.28809e-08 1.52609e-05 0)
(7.55844e-08 1.52602e-05 0)
(6.37735e-08 1.52594e-05 0)
(5.25892e-08 1.52591e-05 0)
(4.42731e-08 1.52587e-05 0)
(3.64827e-08 1.52585e-05 0)
(3.0235e-08 1.52583e-05 0)
(2.43846e-08 1.52582e-05 0)
(1.93617e-08 1.52581e-05 0)
(1.45825e-08 1.52581e-05 0)
(1.02539e-08 1.5258e-05 0)
(6.03119e-09 1.5258e-05 0)
(2.00453e-09 1.5258e-05 0)
(-2.04405e-09 1.5258e-05 0)
(-6.06355e-09 1.5258e-05 0)
(-1.02776e-08 1.5258e-05 0)
(-1.46088e-08 1.52581e-05 0)
(-1.93796e-08 1.52581e-05 0)
(-2.4401e-08 1.52582e-05 0)
(-3.0258e-08 1.52583e-05 0)
(-3.65074e-08 1.52585e-05 0)
(-4.42886e-08 1.52587e-05 0)
(-5.2604e-08 1.52591e-05 0)
(-6.37878e-08 1.52594e-05 0)
(-7.55883e-08 1.52602e-05 0)
(-9.2882e-08 1.52609e-05 0)
(-1.10754e-07 1.52624e-05 0)
(-1.39519e-07 1.52638e-05 0)
(-1.68571e-07 1.52671e-05 0)
(-2.20335e-07 1.527e-05 0)
(-2.71864e-07 1.52775e-05 0)
(-3.74093e-07 1.52847e-05 0)
(-4.76743e-07 1.53042e-05 0)
(-7.05039e-07 1.53241e-05 0)
(-9.44633e-07 1.53871e-05 0)
(-1.55583e-06 1.54577e-05 0)
(-2.2567e-06 1.57418e-05 0)
(-4.42444e-06 1.61137e-05 0)
(-7.2861e-06 1.83187e-05 0)
(-1.82953e-05 2.19188e-05 0)
(-3.34135e-05 5.31738e-05 0)
(-4.25416e-05 4.95744e-05 0)
(-2.33805e-05 -6.86141e-05 0)
(1.71058e-05 -7.41148e-05 0)
(3.60542e-05 4.52189e-05 0)
(3.33242e-05 4.97104e-05 0)
(1.86863e-05 1.85742e-05 0)
(7.73083e-06 1.46678e-05 0)
(4.70487e-06 1.22438e-05 0)
(2.43465e-06 1.18147e-05 0)
(1.67543e-06 1.14912e-05 0)
(1.02456e-06 1.14081e-05 0)
(7.62696e-07 1.13354e-05 0)
(5.17749e-07 1.13117e-05 0)
(4.05063e-07 1.12889e-05 0)
(2.94872e-07 1.12804e-05 0)
(2.38186e-07 1.12717e-05 0)
(1.82186e-07 1.12681e-05 0)
(1.50234e-07 1.12642e-05 0)
(1.19048e-07 1.12625e-05 0)
(9.94408e-08 1.12607e-05 0)