/*--------------------------------*- C++ -*----------------------------------*\
| =========                 |                                                 |
| \\      /  F ield         | foam-extend: Open Source CFD                    |
|  \\    /   O peration     | Version:     4.0                                |
|   \\  /    A nd           | Web:         http://www.foam-extend.org         |
|    \\/     M anipulation  |                                                 |
\*---------------------------------------------------------------------------*/
FoamFile
{
    version     2.0;
    format      ascii;
    class       volVectorField;
    location    "10";
    object      U;
}
// * * * * * * * * * * * * * * * * * * * * * * * * * * * * * * * * * * * * * //

dimensions      [0 1 -1 0 0 0 0];

internalField   nonuniform List<vector> 
6960
(
(-7.54324e-06 -467.455 0)
(-5.69524e-06 -467.439 0)
(2.86557e-06 -467.439 0)
(1.19721e-06 -467.439 0)
(3.25955e-07 -467.439 0)
(1.96895e-07 -467.439 0)
(9.70778e-08 -467.439 0)
(6.71431e-08 -467.439 0)
(4.0322e-08 -467.439 0)
(2.96338e-08 -467.439 0)
(1.94048e-08 -467.439 0)
(1.45796e-08 -467.439 0)
(9.8603e-09 -467.439 0)
(7.35454e-09 -467.439 0)
(4.92535e-09 -467.439 0)
(3.52135e-09 -467.439 0)
(2.20061e-09 -467.439 0)
(1.39725e-09 -467.439 0)
(6.77984e-10 -467.439 0)
(2.37397e-10 -467.439 0)
(-1.30109e-10 -467.439 0)
(-3.36761e-10 -467.439 0)
(-4.86965e-10 -467.439 0)
(-5.41258e-10 -467.439 0)
(-5.5128e-10 -467.439 0)
(-5.05724e-10 -467.439 0)
(-4.31448e-10 -467.439 0)
(-3.24103e-10 -467.439 0)
(-2.02954e-10 -467.439 0)
(-6.84395e-11 -467.439 0)
(6.94966e-11 -467.439 0)
(2.02968e-10 -467.439 0)
(3.22453e-10 -467.439 0)
(4.32999e-10 -467.439 0)
(5.05173e-10 -467.439 0)
(5.49515e-10 -467.439 0)
(5.42514e-10 -467.439 0)
(4.86671e-10 -467.439 0)
(3.35617e-10 -467.439 0)
(1.32124e-10 -467.439 0)
(-2.3735e-10 -467.439 0)
(-6.79633e-10 -467.439 0)
(-1.39572e-09 -467.439 0)
(-2.20057e-09 -467.439 0)
(-3.5225e-09 -467.439 0)
(-4.9231e-09 -467.439 0)
(-7.35441e-09 -467.439 0)
(-9.86292e-09 -467.439 0)
(-1.45785e-08 -467.439 0)
(-1.94052e-08 -467.439 0)
(-2.96368e-08 -467.439 0)
(-4.03214e-08 -467.439 0)
(-6.7144e-08 -467.439 0)
(-9.70801e-08 -467.439 0)
(-1.96893e-07 -467.439 0)
(-3.25955e-07 -467.439 0)
(-1.19721e-06 -467.439 0)
(-2.86557e-06 -467.439 0)
(5.69524e-06 -467.439 0)
(7.54324e-06 -467.455 0)
(0.000440514 30.0607 0)
(0.00044596 30.0751 0)
(8.39417e-06 30.0751 0)
(3.49628e-06 30.0751 0)
(9.85683e-07 30.0751 0)
(5.92693e-07 30.0751 0)
(2.94505e-07 30.0751 0)
(2.03219e-07 30.0751 0)
(1.22784e-07 30.0751 0)
(9.01912e-08 30.0751 0)
(5.94796e-08 30.0751 0)
(4.48042e-08 30.0751 0)
(3.05951e-08 30.0751 0)
(2.29837e-08 30.0751 0)
(1.56766e-08 30.0751 0)
(1.13785e-08 30.0751 0)
(7.39244e-09 30.0751 0)
(4.93979e-09 30.0751 0)
(2.71999e-09 30.0751 0)
(1.35682e-09 30.0751 0)
(2.16297e-10 30.0751 0)
(-4.79878e-10 30.0751 0)
(-9.75035e-10 30.0751 0)
(-1.18713e-09 30.0751 0)
(-1.29895e-09 30.0751 0)
(-1.21562e-09 30.0751 0)
(-1.0472e-09 30.0751 0)
(-8.12864e-10 30.0751 0)
(-5.00275e-10 30.0751 0)
(-1.35815e-10 30.0751 0)
(9.51876e-11 30.0751 0)
(5.12791e-10 30.0751 0)
(9.01651e-10 30.0751 0)
(9.5813e-10 30.0751 0)
(1.21407e-09 30.0751 0)
(1.38732e-09 30.0751 0)
(1.09727e-09 30.0751 0)
(9.74194e-10 30.0751 0)
(5.70086e-10 30.0751 0)
(-3.03984e-10 30.0751 0)
(-1.35672e-09 30.0751 0)
(-2.63133e-09 30.0751 0)
(-5.0289e-09 30.0751 0)
(-7.3923e-09 30.0751 0)
(-1.12884e-08 30.0751 0)
(-1.57637e-08 30.0751 0)
(-2.29832e-08 30.0751 0)
(-3.05091e-08 30.0751 0)
(-4.48946e-08 30.0751 0)
(-5.94807e-08 30.0751 0)
(-9.01064e-08 30.0751 0)
(-1.22876e-07 30.0751 0)
(-2.03222e-07 30.0751 0)
(-2.94418e-07 30.0751 0)
(-5.92781e-07 30.0751 0)
(-9.85683e-07 30.0751 0)
(-3.4962e-06 30.0751 0)
(-8.39427e-06 30.0751 0)
(-0.00044596 30.0751 0)
(-0.000440514 30.0607 0)
(0.000374207 81.8927 0)
(0.000382628 81.8856 0)
(1.31912e-05 81.8856 0)
(5.69609e-06 81.8856 0)
(1.65826e-06 81.8856 0)
(9.95127e-07 81.8856 0)
(4.97847e-07 81.8856 0)
(3.43071e-07 81.8856 0)
(2.08332e-07 81.8856 0)
(1.53076e-07 81.8856 0)
(1.01555e-07 81.8856 0)
(7.66761e-08 81.8856 0)
(5.28372e-08 81.8856 0)
(3.99324e-08 81.8856 0)
(2.76346e-08 81.8856 0)
(2.03562e-08 81.8856 0)
(1.36161e-08 81.8856 0)
(9.41986e-09 81.8856 0)
(5.65263e-09 81.8856 0)
(3.2811e-09 81.8856 0)
(1.28612e-09 81.8856 0)
(5.0163e-11 81.8856 0)
(-8.73788e-10 81.8856 0)
(-1.33041e-09 81.8856 0)
(-1.59682e-09 81.8856 0)
(-1.56499e-09 81.8856 0)
(-1.39253e-09 81.8856 0)
(-1.08812e-09 81.8856 0)
(-6.83076e-10 81.8856 0)
(-2.01946e-10 81.8856 0)
(1.68256e-10 81.8856 0)
(6.94102e-10 81.8856 0)
(1.16325e-09 81.8856 0)
(1.31698e-09 81.8856 0)
(1.56263e-09 81.8856 0)
(1.67127e-09 81.8856 0)
(1.25359e-09 81.8856 0)
(8.72463e-10 81.8856 0)
(2.71723e-11 81.8856 0)
(-1.35949e-09 81.8856 0)
(-3.28098e-09 81.8856 0)
(-5.57776e-09 81.8856 0)
(-9.49552e-09 81.8856 0)
(-1.36159e-08 81.8856 0)
(-2.02791e-08 81.8856 0)
(-2.77069e-08 81.8856 0)
(-3.99316e-08 81.8856 0)
(-5.27664e-08 81.8856 0)
(-7.67539e-08 81.8856 0)
(-1.01557e-07 81.8856 0)
(-1.53007e-07 81.8856 0)
(-2.08413e-07 81.8856 0)
(-3.43075e-07 81.8856 0)
(-4.97775e-07 81.8856 0)
(-9.95202e-07 81.8856 0)
(-1.65826e-06 81.8856 0)
(-5.69601e-06 81.8856 0)
(-1.31912e-05 81.8856 0)
(-0.000382628 81.8856 0)
(-0.000374207 81.8927 0)
(0.000166847 15.7419 0)
(0.000177855 15.7348 0)
(1.74568e-05 15.7347 0)
(7.76119e-06 15.7347 0)
(2.34068e-06 15.7347 0)
(1.40304e-06 15.7347 0)
(7.06673e-07 15.7347 0)
(4.86432e-07 15.7347 0)
(2.96806e-07 15.7347 0)
(2.18142e-07 15.7347 0)
(1.45517e-07 15.7347 0)
(1.10099e-07 15.7347 0)
(7.64813e-08 15.7347 0)
(5.81078e-08 15.7347 0)
(4.07188e-08 15.7347 0)
(3.03604e-08 15.7347 0)
(2.07893e-08 15.7347 0)
(1.47669e-08 15.7347 0)
(9.39249e-09 15.7347 0)
(5.93946e-09 15.7347 0)
(3.02186e-09 15.7347 0)
(1.18434e-09 15.7347 0)
(-2.38013e-10 15.7347 0)
(-1.01127e-09 15.7347 0)
(-1.49508e-09 15.7347 0)
(-1.58855e-09 15.7347 0)
(-1.48642e-09 15.7347 0)
(-1.17803e-09 15.7347 0)
(-7.58212e-10 15.7347 0)
(-2.42308e-10 15.7347 0)
(2.28894e-10 15.7347 0)
(7.63893e-10 15.7347 0)
(1.21094e-09 15.7347 0)
(1.45302e-09 15.7347 0)
(1.5856e-09 15.7347 0)
(1.52716e-09 15.7347 0)
(9.76089e-10 15.7347 0)
(2.36262e-10 15.7347 0)
(-1.14856e-09 15.7347 0)
(-3.05243e-09 15.7347 0)
(-5.93935e-09 15.7347 0)
(-9.35996e-09 15.7347 0)
(-1.48006e-08 15.7347 0)
(-2.0789e-08 15.7347 0)
(-3.03248e-08 15.7347 0)
(-4.07481e-08 15.7347 0)
(-5.81067e-08 15.7347 0)
(-7.64542e-08 15.7347 0)
(-1.10135e-07 15.7347 0)
(-1.4552e-07 15.7347 0)
(-2.18117e-07 15.7347 0)
(-2.96846e-07 15.7347 0)
(-4.86438e-07 15.7347 0)
(-7.06645e-07 15.7347 0)
(-1.40307e-06 15.7347 0)
(-2.34068e-06 15.7347 0)
(-7.76116e-06 15.7347 0)
(-1.74568e-05 15.7347 0)
(-0.000177855 15.7348 0)
(-0.000166847 15.7419 0)
(0.000106488 -7.94455 0)
(0.000119973 -7.94478 0)
(2.14813e-05 -7.94478 0)
(9.70173e-06 -7.94479 0)
(3.03042e-06 -7.94479 0)
(1.81523e-06 -7.94479 0)
(9.20443e-07 -7.94479 0)
(6.32933e-07 -7.94479 0)
(3.87954e-07 -7.94479 0)
(2.85168e-07 -7.94479 0)
(1.91186e-07 -7.94479 0)
(1.44914e-07 -7.94479 0)
(1.01371e-07 -7.94479 0)
(7.73681e-08 -7.94479 0)
(5.48024e-08 -7.94479 0)
(4.12573e-08 -7.94479 0)
(2.87915e-08 -7.94479 0)
(2.08731e-08 -7.94479 0)
(1.38256e-08 -7.94479 0)
(9.23151e-09 -7.94479 0)
(5.33724e-09 -7.94479 0)
(2.83155e-09 -7.94479 0)
(8.56313e-10 -7.94479 0)
(-2.90086e-10 -7.94479 0)
(-1.05756e-09 -7.94479 0)
(-1.33378e-09 -7.94479 0)
(-1.35965e-09 -7.94479 0)
(-1.11583e-09 -7.94479 0)
(-7.37911e-10 -7.94479 0)
(-2.40322e-10 -7.94479 0)
(2.33283e-10 -7.94479 0)
(7.42223e-10 -7.94479 0)
(1.13628e-09 -7.94479 0)
(1.33874e-09 -7.94479 0)
(1.33046e-09 -7.94479 0)
(1.07709e-09 -7.94479 0)
(2.66961e-10 -7.94479 0)
(-8.5841e-10 -7.94479 0)
(-2.80774e-09 -7.94479 0)
(-5.35483e-09 -7.94479 0)
(-9.23141e-09 -7.94479 0)
(-1.38057e-08 -7.94479 0)
(-2.08944e-08 -7.94479 0)
(-2.87911e-08 -7.94479 0)
(-4.12337e-08 -7.94479 0)
(-5.48184e-08 -7.94479 0)
(-7.73669e-08 -7.94479 0)
(-1.01358e-07 -7.94479 0)
(-1.44939e-07 -7.94479 0)
(-1.91189e-07 -7.94479 0)
(-2.85158e-07 -7.94479 0)
(-3.87984e-07 -7.94479 0)
(-6.3294e-07 -7.94479 0)
(-9.20428e-07 -7.94479 0)
(-1.81525e-06 -7.94479 0)
(-3.03042e-06 -7.94479 0)
(-9.70171e-06 -7.94479 0)
(-2.14813e-05 -7.94478 0)
(-0.000119973 -7.94478 0)
(-0.000106488 -7.94455 0)
(0.000123862 -6.16674 0)
(0.000139673 -6.16488 0)
(2.52533e-05 -6.16488 0)
(1.1546e-05 -6.1649 0)
(3.72547e-06 -6.1649 0)
(2.23071e-06 -6.1649 0)
(1.13877e-06 -6.1649 0)
(7.82295e-07 -6.1649 0)
(4.81585e-07 -6.1649 0)
(3.53988e-07 -6.1649 0)
(2.38414e-07 -6.1649 0)
(1.80982e-07 -6.1649 0)
(1.27376e-07 -6.1649 0)
(9.75852e-08 -6.1649 0)
(6.976e-08 -6.1649 0)
(5.29286e-08 -6.1649 0)
(3.75072e-08 -6.1649 0)
(2.76263e-08 -6.1649 0)
(1.88487e-08 -6.1649 0)
(1.30586e-08 -6.1649 0)
(8.13911e-09 -6.1649 0)
(4.90937e-09 -6.1649 0)
(2.33351e-09 -6.1649 0)
(7.64761e-10 -6.1649 0)
(-3.40113e-10 -6.1649 0)
(-8.48248e-10 -6.1649 0)
(-1.05113e-09 -6.1649 0)
(-9.26824e-10 -6.1649 0)
(-6.39331e-10 -6.1649 0)
(-2.06728e-10 -6.1649 0)
(1.98675e-10 -6.1649 0)
(6.44383e-10 -6.1649 0)
(9.5061e-10 -6.1649 0)
(1.02712e-09 -6.1649 0)
(8.44817e-10 -6.1649 0)
(3.62878e-10 -6.1649 0)
(-7.91425e-10 -6.1649 0)
(-2.33586e-09 -6.1649 0)
(-4.88196e-09 -6.1649 0)
(-8.15953e-09 -6.1649 0)
(-1.30585e-08 -6.1649 0)
(-1.88257e-08 -6.1649 0)
(-2.76508e-08 -6.1649 0)
(-3.75069e-08 -6.1649 0)
(-5.29013e-08 -6.1649 0)
(-6.97787e-08 -6.1649 0)
(-9.75839e-08 -6.1649 0)
(-1.27361e-07 -6.1649 0)
(-1.81011e-07 -6.1649 0)
(-2.38418e-07 -6.1649 0)
(-3.53977e-07 -6.1649 0)
(-4.8162e-07 -6.1649 0)
(-7.82304e-07 -6.1649 0)
(-1.13875e-06 -6.1649 0)
(-2.23074e-06 -6.1649 0)
(-3.72547e-06 -6.1649 0)
(-1.1546e-05 -6.1649 0)
(-2.52533e-05 -6.16488 0)
(-0.000139673 -6.16488 0)
(-0.000123862 -6.16674 0)
(0.000133464 -3.10213 0)
(0.000151361 -3.10099 0)
(2.86955e-05 -3.101 0)
(1.33038e-05 -3.10101 0)
(4.42409e-06 -3.10101 0)
(2.64876e-06 -3.10102 0)
(1.3614e-06 -3.10102 0)
(9.34349e-07 -3.10102 0)
(5.77583e-07 -3.10102 0)
(4.24497e-07 -3.10102 0)
(2.87101e-07 -3.10102 0)
(2.18197e-07 -3.10102 0)
(1.54397e-07 -3.10102 0)
(1.18657e-07 -3.10102 0)
(8.54879e-08 -3.10102 0)
(6.52751e-08 -3.10102 0)
(4.68376e-08 -3.10102 0)
(3.49282e-08 -3.10102 0)
(2.43713e-08 -3.10102 0)
(1.7333e-08 -3.10102 0)
(1.13435e-08 -3.10102 0)
(7.34412e-09 -3.10102 0)
(4.12516e-09 -3.10102 0)
(2.09072e-09 -3.10102 0)
(6.06977e-10 -3.10102 0)
(-1.7536e-10 -3.10102 0)
(-5.96908e-10 -3.10102 0)
(-6.33648e-10 -3.10102 0)
(-4.78512e-10 -3.10102 0)
(-1.53017e-10 -3.10102 0)
(1.4467e-10 -3.10102 0)
(4.8407e-10 -3.10102 0)
(6.59319e-10 -3.10102 0)
(5.71502e-10 -3.10102 0)
(1.72006e-10 -3.10102 0)
(-5.82454e-10 -3.10102 0)
(-2.11922e-09 -3.10102 0)
(-4.12765e-09 -3.10102 0)
(-7.31482e-09 -3.10102 0)
(-1.13653e-08 -3.10102 0)
(-1.73329e-08 -3.10102 0)
(-2.43467e-08 -3.10102 0)
(-3.49544e-08 -3.10102 0)
(-4.68371e-08 -3.10102 0)
(-6.52457e-08 -3.10102 0)
(-8.55079e-08 -3.10102 0)
(-1.18655e-07 -3.10102 0)
(-1.54381e-07 -3.10102 0)
(-2.18229e-07 -3.10102 0)
(-2.87106e-07 -3.10102 0)
(-4.24486e-07 -3.10102 0)
(-5.77621e-07 -3.10102 0)
(-9.34359e-07 -3.10102 0)
(-1.36138e-06 -3.10102 0)
(-2.64879e-06 -3.10102 0)
(-4.42409e-06 -3.10101 0)
(-1.33038e-05 -3.10101 0)
(-2.86955e-05 -3.101 0)
(-0.000151361 -3.10099 0)
(-0.000133464 -3.10213 0)
(0.000127546 -2.30909 0)
(0.000147287 -2.30852 0)
(3.18006e-05 -2.30852 0)
(1.49706e-05 -2.30854 0)
(5.12469e-06 -2.30854 0)
(3.06877e-06 -2.30854 0)
(1.58819e-06 -2.30854 0)
(1.089e-06 -2.30854 0)
(6.75889e-07 -2.30854 0)
(4.96633e-07 -2.30854 0)
(3.37188e-07 -2.30854 0)
(2.56495e-07 -2.30854 0)
(1.82365e-07 -2.30854 0)
(1.4051e-07 -2.30854 0)
(1.01912e-07 -2.30854 0)
(7.82214e-08 -2.30854 0)
(5.67075e-08 -2.30854 0)
(4.27047e-08 -2.30854 0)
(3.0322e-08 -2.30854 0)
(2.19864e-08 -2.30854 0)
(1.4886e-08 -2.30854 0)
(1.00764e-08 -2.30854 0)
(6.17716e-09 -2.30854 0)
(3.63952e-09 -2.30854 0)
(1.74238e-09 -2.30854 0)
(6.50352e-10 -2.30854 0)
(-2.44161e-11 -2.30854 0)
(-2.55796e-10 -2.30854 0)
(-2.67357e-10 -2.30854 0)
(-8.3701e-11 -2.30854 0)
(7.65576e-11 -2.30854 0)
(2.73005e-10 -2.30854 0)
(2.80286e-10 -2.30854 0)
(8.57113e-13 -2.30854 0)
(-6.53437e-10 -2.30854 0)
(-1.71913e-09 -2.30854 0)
(-3.66662e-09 -2.30854 0)
(-6.17971e-09 -2.30854 0)
(-1.00484e-08 -2.30854 0)
(-1.4906e-08 -2.30854 0)
(-2.19863e-08 -2.30854 0)
(-3.0299e-08 -2.30854 0)
(-4.27294e-08 -2.30854 0)
(-5.67069e-08 -2.30854 0)
(-7.81932e-08 -2.30854 0)
(-1.0193e-07 -2.30854 0)
(-1.40509e-07 -2.30854 0)
(-1.82351e-07 -2.30854 0)
(-2.56526e-07 -2.30854 0)
(-3.37194e-07 -2.30854 0)
(-4.96625e-07 -2.30854 0)
(-6.75928e-07 -2.30854 0)
(-1.08901e-06 -2.30854 0)
(-1.58817e-06 -2.30854 0)
(-3.06879e-06 -2.30854 0)
(-5.12469e-06 -2.30854 0)
(-1.49706e-05 -2.30854 0)
(-3.18006e-05 -2.30852 0)
(-0.000147287 -2.30852 0)
(-0.000127546 -2.30909 0)
(0.000119121 -2.0065 0)
(0.000140487 -2.006 0)
(3.4589e-05 -2.006 0)
(1.65421e-05 -2.00603 0)
(5.82567e-06 -2.00603 0)
(3.49017e-06 -2.00603 0)
(1.81902e-06 -2.00603 0)
(1.24618e-06 -2.00603 0)
(7.76488e-07 -2.00603 0)
(5.70373e-07 -2.00603 0)
(3.88649e-07 -2.00603 0)
(2.95842e-07 -2.00603 0)
(2.11242e-07 -2.00603 0)
(1.63101e-07 -2.00603 0)
(1.18985e-07 -2.00603 0)
(9.17177e-08 -2.00603 0)
(6.70664e-08 -2.00603 0)
(5.09055e-08 -2.00603 0)
(3.66508e-08 -2.00603 0)
(2.69707e-08 -2.00603 0)
(1.87213e-08 -2.00603 0)
(1.30637e-08 -2.00603 0)
(8.45092e-09 -2.00603 0)
(5.37709e-09 -2.00603 0)
(3.03604e-09 -2.00603 0)
(1.60408e-09 -2.00603 0)
(6.47046e-10 -2.00603 0)
(1.92306e-10 -2.00603 0)
(-1.41478e-11 -2.00603 0)
(-6.27817e-13 -2.00603 0)
(-5.06618e-12 -2.00603 0)
(1.99142e-11 -2.00603 0)
(-1.69442e-10 -2.00603 0)
(-6.68211e-10 -2.00603 0)
(-1.60669e-09 -2.00603 0)
(-3.01447e-09 -2.00603 0)
(-5.40223e-09 -2.00603 0)
(-8.45347e-09 -2.00603 0)
(-1.30376e-08 -2.00603 0)
(-1.87391e-08 -2.00603 0)
(-2.69705e-08 -2.00603 0)
(-3.66299e-08 -2.00603 0)
(-5.09282e-08 -2.00603 0)
(-6.70656e-08 -2.00603 0)
(-9.16912e-08 -2.00603 0)
(-1.19001e-07 -2.00603 0)
(-1.631e-07 -2.00603 0)
(-2.11231e-07 -2.00603 0)
(-2.95871e-07 -2.00603 0)
(-3.88656e-07 -2.00603 0)
(-5.70369e-07 -2.00603 0)
(-7.76526e-07 -2.00603 0)
(-1.2462e-06 -2.00603 0)
(-1.819e-06 -2.00603 0)
(-3.49019e-06 -2.00603 0)
(-5.82567e-06 -2.00603 0)
(-1.65421e-05 -2.00603 0)
(-3.4589e-05 -2.006 0)
(-0.000140487 -2.006 0)
(-0.000119121 -2.0065 0)
(0.000112023 -1.57085 0)
(0.000134802 -1.57036 0)
(3.70677e-05 -1.57036 0)
(1.80166e-05 -1.57038 0)
(6.52534e-06 -1.57039 0)
(3.91241e-06 -1.57039 0)
(2.05379e-06 -1.57039 0)
(1.40589e-06 -1.57039 0)
(8.7939e-07 -1.57039 0)
(6.45723e-07 -1.57039 0)
(4.41484e-07 -1.57039 0)
(3.36227e-07 -1.57039 0)
(2.41011e-07 -1.57039 0)
(1.86409e-07 -1.57039 0)
(1.36681e-07 -1.57039 0)
(1.05735e-07 -1.57039 0)
(7.78838e-08 -1.57039 0)
(5.94992e-08 -1.57039 0)
(4.33262e-08 -1.57039 0)
(3.2255e-08 -1.57039 0)
(2.28199e-08 -1.57039 0)
(1.62779e-08 -1.57039 0)
(1.09208e-08 -1.57039 0)
(7.28047e-09 -1.57039 0)
(4.46783e-09 -1.57039 0)
(2.66906e-09 -1.57039 0)
(1.40435e-09 -1.57039 0)
(7.01011e-10 -1.57039 0)
(2.75342e-10 -1.57039 0)
(9.4527e-11 -1.57039 0)
(-9.89197e-11 -1.57039 0)
(-2.69374e-10 -1.57039 0)
(-6.79428e-10 -1.57039 0)
(-1.42332e-09 -1.57039 0)
(-2.67106e-09 -1.57039 0)
(-4.44763e-09 -1.57039 0)
(-7.30384e-09 -1.57039 0)
(-1.09232e-08 -1.57039 0)
(-1.62534e-08 -1.57039 0)
(-2.28358e-08 -1.57039 0)
(-3.22547e-08 -1.57039 0)
(-4.3307e-08 -1.57039 0)
(-5.95201e-08 -1.57039 0)
(-7.78829e-08 -1.57039 0)
(-1.0571e-07 -1.57039 0)
(-1.36696e-07 -1.57039 0)
(-1.86408e-07 -1.57039 0)
(-2.41003e-07 -1.57039 0)
(-3.36256e-07 -1.57039 0)
(-4.41493e-07 -1.57039 0)
(-6.45721e-07 -1.57039 0)
(-8.79428e-07 -1.57039 0)
(-1.4059e-06 -1.57039 0)
(-2.05378e-06 -1.57039 0)
(-3.91243e-06 -1.57039 0)
(-6.52534e-06 -1.57039 0)
(-1.80166e-05 -1.57038 0)
(-3.70678e-05 -1.57036 0)
(-0.000134802 -1.57036 0)
(-0.000112023 -1.57085 0)
(0.000104817 -1.13598 0)
(0.000128794 -1.13556 0)
(3.92341e-05 -1.13556 0)
(1.93929e-05 -1.13558 0)
(7.22181e-06 -1.13559 0)
(4.33489e-06 -1.13559 0)
(2.29239e-06 -1.13559 0)
(1.56809e-06 -1.13559 0)
(9.84614e-07 -1.13559 0)
(7.22698e-07 -1.13559 0)
(4.95708e-07 -1.13559 0)
(3.77659e-07 -1.13559 0)
(2.71674e-07 -1.13559 0)
(2.10427e-07 -1.13559 0)
(1.54992e-07 -1.13559 0)
(1.20261e-07 -1.13559 0)
(8.91439e-08 -1.13559 0)
(6.84681e-08 -1.13559 0)
(5.03298e-08 -1.13559 0)
(3.78207e-08 -1.13559 0)
(2.71636e-08 -1.13559 0)
(1.97017e-08 -1.13559 0)
(1.35706e-08 -1.13559 0)
(9.33508e-09 -1.13559 0)
(6.02511e-09 -1.13559 0)
(3.83463e-09 -1.13559 0)
(2.23895e-09 -1.13559 0)
(1.26418e-09 -1.13559 0)
(5.97362e-10 -1.13559 0)
(2.00397e-10 -1.13559 0)
(-2.0349e-10 -1.13559 0)
(-5.9117e-10 -1.13559 0)
(-1.24383e-09 -1.13559 0)
(-2.2556e-09 -1.13559 0)
(-3.8359e-09 -1.13559 0)
(-6.00621e-09 -1.13559 0)
(-9.35656e-09 -1.13559 0)
(-1.3573e-08 -1.13559 0)
(-1.96791e-08 -1.13559 0)
(-2.71777e-08 -1.13559 0)
(-3.78204e-08 -1.13559 0)
(-5.03123e-08 -1.13559 0)
(-6.84872e-08 -1.13559 0)
(-8.91428e-08 -1.13559 0)
(-1.20237e-07 -1.13559 0)
(-1.55005e-07 -1.13559 0)
(-2.10427e-07 -1.13559 0)
(-2.71668e-07 -1.13559 0)
(-3.77687e-07 -1.13559 0)
(-4.95717e-07 -1.13559 0)
(-7.227e-07 -1.13559 0)
(-9.84653e-07 -1.13559 0)
(-1.5681e-06 -1.13559 0)
(-2.29238e-06 -1.13559 0)
(-4.33491e-06 -1.13559 0)
(-7.22182e-06 -1.13559 0)
(-1.93929e-05 -1.13558 0)
(-3.92341e-05 -1.13556 0)
(-0.000128794 -1.13556 0)
(-0.000104817 -1.13598 0)
(9.66601e-05 -0.807034 0)
(0.000121619 -0.806685 0)
(4.10858e-05 -0.806683 0)
(2.06686e-05 -0.80671 0)
(7.91295e-06 -0.806713 0)
(4.75688e-06 -0.806714 0)
(2.53465e-06 -0.806714 0)
(1.73274e-06 -0.806715 0)
(1.09218e-06 -0.806715 0)
(8.0132e-07 -0.806715 0)
(5.51341e-07 -0.806715 0)
(4.2015e-07 -0.806715 0)
(3.03238e-07 -0.806715 0)
(2.35159e-07 -0.806715 0)
(1.73916e-07 -0.806715 0)
(1.3529e-07 -0.806715 0)
(1.0084e-07 -0.806715 0)
(7.78042e-08 -0.806715 0)
(5.76523e-08 -0.806715 0)
(4.36579e-08 -0.806715 0)
(3.17422e-08 -0.806715 0)
(2.33253e-08 -0.806715 0)
(1.6391e-08 -0.806715 0)
(1.15323e-08 -0.806715 0)
(7.70026e-09 -0.806715 0)
(5.0943e-09 -0.806715 0)
(3.14567e-09 -0.806715 0)
(1.87812e-09 -0.806715 0)
(9.49611e-10 -0.806715 0)
(3.1617e-10 -0.806715 0)
(-3.17867e-10 -0.806715 0)
(-9.43204e-10 -0.806715 0)
(-1.85911e-09 -0.806715 0)
(-3.1598e-09 -0.806715 0)
(-5.09477e-09 -0.806715 0)
(-7.68278e-09 -0.806715 0)
(-1.15516e-08 -0.806715 0)
(-1.63932e-08 -0.806715 0)
(-2.33047e-08 -0.806715 0)
(-3.17544e-08 -0.806715 0)
(-4.36576e-08 -0.806715 0)
(-5.76368e-08 -0.806715 0)
(-7.78213e-08 -0.806715 0)
(-1.00839e-07 -0.806715 0)
(-1.35268e-07 -0.806715 0)
(-1.73927e-07 -0.806715 0)
(-2.35159e-07 -0.806715 0)
(-3.03235e-07 -0.806715 0)
(-4.20178e-07 -0.806715 0)
(-5.51351e-07 -0.806715 0)
(-8.01326e-07 -0.806715 0)
(-1.09221e-06 -0.806715 0)
(-1.73275e-06 -0.806715 0)
(-2.53464e-06 -0.806714 0)
(-4.7569e-06 -0.806714 0)
(-7.91295e-06 -0.806713 0)
(-2.06686e-05 -0.80671 0)
(-4.10858e-05 -0.806683 0)
(-0.000121619 -0.806685 0)
(-9.66601e-05 -0.807034 0)
(8.77926e-05 -0.577553 0)
(0.00011352 -0.577261 0)
(4.26239e-05 -0.577259 0)
(2.18406e-05 -0.577287 0)
(8.5963e-06 -0.57729 0)
(5.17753e-06 -0.577292 0)
(2.78033e-06 -0.577292 0)
(1.89977e-06 -0.577292 0)
(1.20208e-06 -0.577292 0)
(8.81602e-07 -0.577292 0)
(6.084e-07 -0.577292 0)
(4.63716e-07 -0.577292 0)
(3.35716e-07 -0.577292 0)
(2.60613e-07 -0.577292 0)
(1.93457e-07 -0.577292 0)
(1.50824e-07 -0.577292 0)
(1.12972e-07 -0.577292 0)
(8.75047e-08 -0.577292 0)
(6.52898e-08 -0.577292 0)
(4.97619e-08 -0.577292 0)
(3.65507e-08 -0.577292 0)
(2.71434e-08 -0.577292 0)
(1.93767e-08 -0.577292 0)
(1.38671e-08 -0.577292 0)
(9.48886e-09 -0.577292 0)
(6.44427e-09 -0.577292 0)
(4.12146e-09 -0.577292 0)
(2.54059e-09 -0.577292 0)
(1.33074e-09 -0.577292 0)
(4.41434e-10 -0.577292 0)
(-4.4164e-10 -0.577292 0)
(-1.32411e-09 -0.577292 0)
(-2.52302e-09 -0.577292 0)
(-4.13298e-09 -0.577292 0)
(-6.44386e-09 -0.577292 0)
(-9.47288e-09 -0.577292 0)
(-1.38842e-08 -0.577292 0)
(-1.93789e-08 -0.577292 0)
(-2.71249e-08 -0.577292 0)
(-3.65608e-08 -0.577292 0)
(-4.97615e-08 -0.577292 0)
(-6.52763e-08 -0.577292 0)
(-8.75197e-08 -0.577292 0)
(-1.1297e-07 -0.577292 0)
(-1.50805e-07 -0.577292 0)
(-1.93467e-07 -0.577292 0)
(-2.60613e-07 -0.577292 0)
(-3.35715e-07 -0.577292 0)
(-4.63742e-07 -0.577292 0)
(-6.08412e-07 -0.577292 0)
(-8.81611e-07 -0.577292 0)
(-1.20211e-06 -0.577292 0)
(-1.89979e-06 -0.577292 0)
(-2.78033e-06 -0.577292 0)
(-5.17755e-06 -0.577292 0)
(-8.59631e-06 -0.57729 0)
(-2.18406e-05 -0.577287 0)
(-4.26239e-05 -0.577259 0)
(-0.00011352 -0.577261 0)
(-8.77926e-05 -0.577553 0)
(7.86176e-05 -0.417268 0)
(0.000104903 -0.417015 0)
(4.38511e-05 -0.417012 0)
(2.29054e-05 -0.417041 0)
(9.26914e-06 -0.417045 0)
(5.59584e-06 -0.417046 0)
(3.02912e-06 -0.417047 0)
(2.06907e-06 -0.417047 0)
(1.31429e-06 -0.417047 0)
(9.63547e-07 -0.417047 0)
(6.66898e-07 -0.417047 0)
(5.0837e-07 -0.417047 0)
(3.69119e-07 -0.417047 0)
(2.86797e-07 -0.417047 0)
(2.13621e-07 -0.417047 0)
(1.66867e-07 -0.417047 0)
(1.2554e-07 -0.417047 0)
(9.75695e-08 -0.417047 0)
(7.32411e-08 -0.417047 0)
(5.61306e-08 -0.417047 0)
(4.15865e-08 -0.417047 0)
(3.11531e-08 -0.417047 0)
(2.2525e-08 -0.417047 0)
(1.63369e-08 -0.417047 0)
(1.13883e-08 -0.417047 0)
(7.88228e-09 -0.417047 0)
(5.16448e-09 -0.417047 0)
(3.25019e-09 -0.417047 0)
(1.73994e-09 -0.417047 0)
(5.75969e-10 -0.417047 0)
(-5.74642e-10 -0.417047 0)
(-1.73311e-09 -0.417047 0)
(-3.2341e-09 -0.417047 0)
(-5.17334e-09 -0.417047 0)
(-7.8809e-09 -0.417047 0)
(-1.13738e-08 -0.417047 0)
(-1.63516e-08 -0.417047 0)
(-2.2527e-08 -0.417047 0)
(-3.11368e-08 -0.417047 0)
(-4.15945e-08 -0.417047 0)
(-5.61301e-08 -0.417047 0)
(-7.32298e-08 -0.417047 0)
(-9.75823e-08 -0.417047 0)
(-1.25539e-07 -0.417047 0)
(-1.6685e-07 -0.417047 0)
(-2.13629e-07 -0.417047 0)
(-2.86798e-07 -0.417047 0)
(-3.6912e-07 -0.417047 0)
(-5.08395e-07 -0.417047 0)
(-6.66911e-07 -0.417047 0)
(-9.63559e-07 -0.417047 0)
(-1.31433e-06 -0.417047 0)
(-2.06909e-06 -0.417047 0)
(-3.02913e-06 -0.417047 0)
(-5.59586e-06 -0.417046 0)
(-9.26915e-06 -0.417045 0)
(-2.29054e-05 -0.417041 0)
(-4.38511e-05 -0.417012 0)
(-0.000104903 -0.417015 0)
(-7.86175e-05 -0.417268 0)
(6.93886e-05 -0.304789 0)
(9.6029e-05 -0.304563 0)
(4.47718e-05 -0.304559 0)
(2.38599e-05 -0.304589 0)
(9.92848e-06 -0.304593 0)
(6.01068e-06 -0.304595 0)
(3.28062e-06 -0.304595 0)
(2.24049e-06 -0.304596 0)
(1.42877e-06 -0.304596 0)
(1.04714e-06 -0.304596 0)
(7.2684e-07 -0.304596 0)
(5.54119e-07 -0.304596 0)
(4.03454e-07 -0.304596 0)
(3.13718e-07 -0.304596 0)
(2.34414e-07 -0.304596 0)
(1.83423e-07 -0.304596 0)
(1.38548e-07 -0.304596 0)
(1.08e-07 -0.304596 0)
(8.15063e-08 -0.304596 0)
(6.27633e-08 -0.304596 0)
(4.68482e-08 -0.304596 0)
(3.53529e-08 -0.304596 0)
(2.5834e-08 -0.304596 0)
(1.89397e-08 -0.304596 0)
(1.33969e-08 -0.304596 0)
(9.40685e-09 -0.304596 0)
(6.27353e-09 -0.304596 0)
(4.00604e-09 -0.304596 0)
(2.17665e-09 -0.304596 0)
(7.19551e-10 -0.304596 0)
(-7.16689e-10 -0.304596 0)
(-2.16963e-09 -0.304596 0)
(-3.99135e-09 -0.304596 0)
(-6.27967e-09 -0.304596 0)
(-9.40446e-09 -0.304596 0)
(-1.33839e-08 -0.304596 0)
(-1.89521e-08 -0.304596 0)
(-2.58358e-08 -0.304596 0)
(-3.53389e-08 -0.304596 0)
(-4.68544e-08 -0.304596 0)
(-6.27629e-08 -0.304596 0)
(-8.14971e-08 -0.304596 0)
(-1.08011e-07 -0.304596 0)
(-1.38546e-07 -0.304596 0)
(-1.83407e-07 -0.304596 0)
(-2.34421e-07 -0.304596 0)
(-3.13719e-07 -0.304596 0)
(-4.03458e-07 -0.304596 0)
(-5.54142e-07 -0.304596 0)
(-7.26854e-07 -0.304596 0)
(-1.04716e-06 -0.304596 0)
(-1.42881e-06 -0.304596 0)
(-2.24051e-06 -0.304596 0)
(-3.28062e-06 -0.304595 0)
(-6.01069e-06 -0.304595 0)
(-9.92849e-06 -0.304593 0)
(-2.38599e-05 -0.304589 0)
(-4.47719e-05 -0.304559 0)
(-9.6029e-05 -0.304563 0)
(-6.93886e-05 -0.304789 0)
(6.02692e-05 -0.22614 0)
(8.70669e-05 -0.225934 0)
(4.5392e-05 -0.225929 0)
(2.4701e-05 -0.22596 0)
(1.05711e-05 -0.225964 0)
(6.42075e-06 -0.225966 0)
(3.53433e-06 -0.225967 0)
(2.41382e-06 -0.225967 0)
(1.54545e-06 -0.225967 0)
(1.13237e-06 -0.225967 0)
(7.8822e-07 -0.225967 0)
(6.00966e-07 -0.225967 0)
(4.38728e-07 -0.225967 0)
(3.41382e-07 -0.225967 0)
(2.5584e-07 -0.225967 0)
(2.00494e-07 -0.225967 0)
(1.51997e-07 -0.225967 0)
(1.18797e-07 -0.225967 0)
(9.00859e-08 -0.225967 0)
(6.96599e-08 -0.225967 0)
(5.23354e-08 -0.225967 0)
(3.97418e-08 -0.225967 0)
(2.93027e-08 -0.225967 0)
(2.16745e-08 -0.225967 0)
(1.55135e-08 -0.225967 0)
(1.1017e-08 -0.225967 0)
(7.44772e-09 -0.225967 0)
(4.80744e-09 -0.225967 0)
(2.6405e-09 -0.225967 0)
(8.72069e-10 -0.225967 0)
(-8.67696e-10 -0.225967 0)
(-2.63325e-09 -0.225967 0)
(-4.79407e-09 -0.225967 0)
(-7.45114e-09 -0.225967 0)
(-1.10135e-08 -0.225967 0)
(-1.55019e-08 -0.225967 0)
(-2.16847e-08 -0.225967 0)
(-2.93042e-08 -0.225967 0)
(-3.973e-08 -0.225967 0)
(-5.23398e-08 -0.225967 0)
(-6.96596e-08 -0.225967 0)
(-9.00788e-08 -0.225967 0)
(-1.18806e-07 -0.225967 0)
(-1.51995e-07 -0.225967 0)
(-2.0048e-07 -0.225967 0)
(-2.55845e-07 -0.225967 0)
(-3.41384e-07 -0.225967 0)
(-4.38734e-07 -0.225967 0)
(-6.00989e-07 -0.225967 0)
(-7.88235e-07 -0.225967 0)
(-1.13238e-06 -0.225967 0)
(-1.54549e-06 -0.225967 0)
(-2.41384e-06 -0.225967 0)
(-3.53434e-06 -0.225967 0)
(-6.42077e-06 -0.225966 0)
(-1.05711e-05 -0.225964 0)
(-2.4701e-05 -0.22596 0)
(-4.53921e-05 -0.225929 0)
(-8.70669e-05 -0.225934 0)
(-6.02692e-05 -0.22614 0)
(5.1389e-05 -0.171087 0)
(7.81551e-05 -0.170896 0)
(4.57195e-05 -0.170889 0)
(2.54258e-05 -0.170921 0)
(1.11936e-05 -0.170925 0)
(6.82466e-06 -0.170928 0)
(3.7897e-06 -0.170928 0)
(2.58883e-06 -0.170929 0)
(1.66422e-06 -0.170929 0)
(1.21917e-06 -0.170929 0)
(8.51024e-07 -0.170929 0)
(6.48909e-07 -0.170929 0)
(4.74942e-07 -0.170929 0)
(3.69792e-07 -0.170929 0)
(2.77903e-07 -0.170929 0)
(2.18084e-07 -0.170929 0)
(1.6589e-07 -0.170929 0)
(1.29962e-07 -0.170929 0)
(9.89806e-08 -0.170929 0)
(7.68206e-08 -0.170929 0)
(5.80477e-08 -0.170929 0)
(4.43193e-08 -0.170929 0)
(3.29303e-08 -0.170929 0)
(2.45403e-08 -0.170929 0)
(1.77372e-08 -0.170929 0)
(1.27118e-08 -0.170929 0)
(8.68638e-09 -0.170929 0)
(5.65391e-09 -0.170929 0)
(3.13118e-09 -0.170929 0)
(1.0334e-09 -0.170929 0)
(-1.02758e-09 -0.170929 0)
(-3.12362e-09 -0.170929 0)
(-5.64176e-09 -0.170929 0)
(-8.68713e-09 -0.170929 0)
(-1.27073e-08 -0.170929 0)
(-1.7727e-08 -0.170929 0)
(-2.45483e-08 -0.170929 0)
(-3.29315e-08 -0.170929 0)
(-4.43097e-08 -0.170929 0)
(-5.80505e-08 -0.170929 0)
(-7.68204e-08 -0.170929 0)
(-9.89754e-08 -0.170929 0)
(-1.29969e-07 -0.170929 0)
(-1.65887e-07 -0.170929 0)
(-2.18072e-07 -0.170929 0)
(-2.77907e-07 -0.170929 0)
(-3.69794e-07 -0.170929 0)
(-4.74951e-07 -0.170929 0)
(-6.4893e-07 -0.170929 0)
(-8.51041e-07 -0.170929 0)
(-1.21919e-06 -0.170929 0)
(-1.66426e-06 -0.170929 0)
(-2.58885e-06 -0.170929 0)
(-3.78971e-06 -0.170928 0)
(-6.82468e-06 -0.170928 0)
(-1.11936e-05 -0.170925 0)
(-2.54258e-05 -0.170921 0)
(-4.57195e-05 -0.170889 0)
(-7.81551e-05 -0.170896 0)
(-5.1389e-05 -0.171087 0)
(4.28505e-05 -0.132138 0)
(6.94054e-05 -0.131956 0)
(4.57636e-05 -0.131949 0)
(2.60318e-05 -0.131981 0)
(1.17925e-05 -0.131985 0)
(7.22088e-06 -0.131988 0)
(4.04607e-06 -0.131989 0)
(2.76522e-06 -0.131989 0)
(1.78497e-06 -0.13199 0)
(1.30751e-06 -0.13199 0)
(9.15229e-07 -0.13199 0)
(6.97938e-07 -0.13199 0)
(5.12095e-07 -0.13199 0)
(3.98949e-07 -0.13199 0)
(3.00605e-07 -0.13199 0)
(2.36195e-07 -0.13199 0)
(1.80228e-07 -0.13199 0)
(1.41497e-07 -0.13199 0)
(1.08191e-07 -0.13199 0)
(8.42457e-08 -0.13199 0)
(6.3985e-08 -0.13199 0)
(4.90851e-08 -0.13199 0)
(3.67163e-08 -0.13199 0)
(2.75366e-08 -0.13199 0)
(2.00675e-08 -0.13199 0)
(1.44907e-08 -0.13199 0)
(9.98899e-09 -0.13199 0)
(6.54509e-09 -0.13199 0)
(3.64843e-09 -0.13199 0)
(1.20348e-09 -0.13199 0)
(-1.19624e-09 -0.13199 0)
(-3.64049e-09 -0.13199 0)
(-6.53399e-09 -0.13199 0)
(-9.9872e-09 -0.13199 0)
(-1.44851e-08 -0.13199 0)
(-2.00585e-08 -0.13199 0)
(-2.75425e-08 -0.13199 0)
(-3.67171e-08 -0.13199 0)
(-4.90776e-08 -0.13199 0)
(-6.39864e-08 -0.13199 0)
(-8.42456e-08 -0.13199 0)
(-1.08188e-07 -0.13199 0)
(-1.41502e-07 -0.13199 0)
(-1.80225e-07 -0.13199 0)
(-2.36185e-07 -0.13199 0)
(-3.00607e-07 -0.13199 0)
(-3.98952e-07 -0.13199 0)
(-5.12105e-07 -0.13199 0)
(-6.97959e-07 -0.13199 0)
(-9.15248e-07 -0.13199 0)
(-1.30753e-06 -0.13199 0)
(-1.78501e-06 -0.13199 0)
(-2.76525e-06 -0.131989 0)
(-4.04608e-06 -0.131989 0)
(-7.22089e-06 -0.131988 0)
(-1.17926e-05 -0.131985 0)
(-2.60318e-05 -0.131981 0)
(-4.57636e-05 -0.131949 0)
(-6.94054e-05 -0.131956 0)
(-4.28505e-05 -0.132138 0)
(3.47277e-05 -0.104097 0)
(6.09022e-05 -0.103922 0)
(4.55355e-05 -0.103913 0)
(2.65172e-05 -0.103945 0)
(1.23642e-05 -0.103951 0)
(7.60779e-06 -0.103954 0)
(4.30271e-06 -0.103955 0)
(2.94267e-06 -0.103955 0)
(1.90754e-06 -0.103955 0)
(1.3973e-06 -0.103955 0)
(9.80803e-07 -0.103955 0)
(7.48041e-07 -0.103955 0)
(5.50179e-07 -0.103955 0)
(4.28852e-07 -0.103955 0)
(3.23946e-07 -0.103955 0)
(2.54828e-07 -0.103955 0)
(1.95012e-07 -0.103955 0)
(1.53402e-07 -0.103955 0)
(1.17718e-07 -0.103955 0)
(9.19356e-08 -0.103955 0)
(7.01476e-08 -0.103955 0)
(5.40391e-08 -0.103955 0)
(4.06603e-08 -0.103955 0)
(3.06631e-08 -0.103955 0)
(2.25038e-08 -0.103955 0)
(1.63534e-08 -0.103955 0)
(1.13552e-08 -0.103955 0)
(7.48064e-09 -0.103955 0)
(4.19206e-09 -0.103955 0)
(1.3823e-09 -0.103955 0)
(-1.37364e-09 -0.103955 0)
(-4.1837e-09 -0.103955 0)
(-7.47048e-09 -0.103955 0)
(-1.1351e-08 -0.103955 0)
(-1.63467e-08 -0.103955 0)
(-2.2496e-08 -0.103955 0)
(-3.06669e-08 -0.103955 0)
(-4.06608e-08 -0.103955 0)
(-5.40335e-08 -0.103955 0)
(-7.01477e-08 -0.103955 0)
(-9.19357e-08 -0.103955 0)
(-1.17717e-07 -0.103955 0)
(-1.53405e-07 -0.103955 0)
(-1.95009e-07 -0.103955 0)
(-2.5482e-07 -0.103955 0)
(-3.23947e-07 -0.103955 0)
(-4.28855e-07 -0.103955 0)
(-5.50192e-07 -0.103955 0)
(-7.48061e-07 -0.103955 0)
(-9.80823e-07 -0.103955 0)
(-1.39733e-06 -0.103955 0)
(-1.90758e-06 -0.103955 0)
(-2.9427e-06 -0.103955 0)
(-4.30273e-06 -0.103955 0)
(-7.6078e-06 -0.103954 0)
(-1.23643e-05 -0.103951 0)
(-2.65172e-05 -0.103945 0)
(-4.55355e-05 -0.103913 0)
(-6.09022e-05 -0.103922 0)
(-3.47276e-05 -0.104097 0)