/*--------------------------------*- C++ -*----------------------------------*\
| =========                 |                                                 |
| \\      /  F ield         | foam-extend: Open Source CFD                    |
|  \\    /   O peration     | Version:     4.0                                |
|   \\  /    A nd           | Web:         http://www.foam-extend.org         |
|    \\/     M anipulation  |                                                 |
\*---------------------------------------------------------------------------*/
FoamFile
{
    version     2.0;
    format      ascii;
    class       volScalarField;
    location    "1450";
    object      psiE;
}
// * * * * * * * * * * * * * * * * * * * * * * * * * * * * * * * * * * * * * //

dimensions      [0 0 0 0 0 0 0];

internalField   nonuniform List<scalar> 
6960
(
0.343888
0.343897
0.343907
0.343917
0.343926
0.343934
0.343941
0.343947
0.343953
0.343958
0.343962
0.343965
0.343968
0.343971
0.343973
0.343975
0.343976
0.343978
0.343979
0.34398
0.34398
0.343981
0.343982
0.343982
0.343982
0.343983
0.343983
0.343983
0.343983
0.343983
0.343983
0.343983
0.343983
0.343983
0.343983
0.343982
0.343982
0.343982
0.343981
0.34398
0.34398
0.343979
0.343978
0.343976
0.343975
0.343973
0.343971
0.343968
0.343965
0.343962
0.343958
0.343953
0.343947
0.343941
0.343934
0.343926
0.343917
0.343907
0.343897
0.343888
0.872315
0.872349
0.87239
0.87243
0.872467
0.8725
0.872529
0.872555
0.872577
0.872596
0.872613
0.872627
0.872639
0.872649
0.872658
0.872666
0.872672
0.872677
0.872682
0.872685
0.872688
0.872691
0.872693
0.872695
0.872696
0.872697
0.872698
0.872699
0.872699
0.872699
0.872699
0.872699
0.872699
0.872698
0.872697
0.872696
0.872695
0.872693
0.872691
0.872688
0.872685
0.872682
0.872677
0.872672
0.872666
0.872658
0.872649
0.872639
0.872627
0.872613
0.872596
0.872577
0.872555
0.872529
0.8725
0.872467
0.87243
0.87239
0.872349
0.872315
1.35965
1.35972
1.3598
1.35988
1.35995
1.36001
1.36007
1.36012
1.36016
1.3602
1.36023
1.36026
1.36029
1.36031
1.36032
1.36034
1.36035
1.36036
1.36037
1.36038
1.36038
1.36039
1.36039
1.3604
1.3604
1.3604
1.3604
1.3604
1.3604
1.3604
1.3604
1.3604
1.3604
1.3604
1.3604
1.3604
1.3604
1.36039
1.36039
1.36038
1.36038
1.36037
1.36036
1.36035
1.36034
1.36032
1.36031
1.36029
1.36026
1.36023
1.3602
1.36016
1.36012
1.36007
1.36001
1.35995
1.35988
1.3598
1.35972
1.35965
1.83866
1.83876
1.83889
1.83901
1.83912
1.83922
1.83931
1.83939
1.83946
1.83951
1.83956
1.83961
1.83964
1.83968
1.8397
1.83972
1.83974
1.83976
1.83977
1.83978
1.83979
1.8398
1.83981
1.83981
1.83982
1.83982
1.83982
1.83983
1.83983
1.83983
1.83983
1.83983
1.83983
1.83982
1.83982
1.83982
1.83981
1.83981
1.8398
1.83979
1.83978
1.83977
1.83976
1.83974
1.83972
1.8397
1.83968
1.83964
1.83961
1.83956
1.83951
1.83946
1.83939
1.83931
1.83922
1.83912
1.83901
1.83889
1.83876
1.83866
2.32097
2.32112
2.32129
2.32146
2.32161
2.32175
2.32188
2.32198
2.32208
2.32216
2.32223
2.32229
2.32234
2.32238
2.32242
2.32245
2.32247
2.3225
2.32251
2.32253
2.32254
2.32255
2.32256
2.32257
2.32258
2.32258
2.32258
2.32259
2.32259
2.32259
2.32259
2.32259
2.32259
2.32258
2.32258
2.32258
2.32257
2.32256
2.32255
2.32254
2.32253
2.32251
2.3225
2.32247
2.32245
2.32242
2.32238
2.32234
2.32229
2.32223
2.32216
2.32208
2.32198
2.32188
2.32175
2.32161
2.32146
2.32129
2.32112
2.32097
2.8109
2.81109
2.81131
2.81153
2.81173
2.81191
2.81206
2.8122
2.81232
2.81243
2.81252
2.81259
2.81266
2.81271
2.81276
2.8128
2.81283
2.81286
2.81289
2.81291
2.81292
2.81294
2.81295
2.81296
2.81297
2.81297
2.81298
2.81298
2.81298
2.81298
2.81298
2.81298
2.81298
2.81298
2.81297
2.81297
2.81296
2.81295
2.81294
2.81292
2.81291
2.81289
2.81286
2.81283
2.8128
2.81276
2.81271
2.81266
2.81259
2.81252
2.81243
2.81232
2.8122
2.81206
2.81191
2.81173
2.81153
2.81131
2.81109
2.8109
3.31003
3.31026
3.31053
3.31079
3.31104
3.31126
3.31145
3.31162
3.31177
3.3119
3.31201
3.3121
3.31218
3.31225
3.31231
3.31236
3.3124
3.31243
3.31246
3.31249
3.31251
3.31252
3.31254
3.31255
3.31256
3.31257
3.31257
3.31258
3.31258
3.31258
3.31258
3.31258
3.31258
3.31257
3.31257
3.31256
3.31255
3.31254
3.31252
3.31251
3.31249
3.31246
3.31243
3.3124
3.31236
3.31231
3.31225
3.31218
3.3121
3.31201
3.3119
3.31177
3.31162
3.31145
3.31126
3.31104
3.31079
3.31053
3.31026
3.31003
3.8189
3.81917
3.81949
3.81981
3.8201
3.82036
3.82059
3.82079
3.82097
3.82112
3.82125
3.82136
3.82145
3.82154
3.8216
3.82166
3.82171
3.82175
3.82179
3.82182
3.82184
3.82186
3.82188
3.82189
3.8219
3.82191
3.82192
3.82192
3.82193
3.82193
3.82193
3.82193
3.82192
3.82192
3.82191
3.8219
3.82189
3.82188
3.82186
3.82184
3.82182
3.82179
3.82175
3.82171
3.82166
3.8216
3.82154
3.82145
3.82136
3.82125
3.82112
3.82097
3.82079
3.82059
3.82036
3.8201
3.81981
3.81949
3.81917
3.8189
4.33767
4.33798
4.33835
4.33872
4.33906
4.33936
4.33963
4.33986
4.34006
4.34024
4.34039
4.34052
4.34063
4.34072
4.3408
4.34087
4.34093
4.34098
4.34102
4.34105
4.34108
4.3411
4.34112
4.34114
4.34115
4.34116
4.34117
4.34117
4.34118
4.34118
4.34118
4.34118
4.34117
4.34117
4.34116
4.34115
4.34114
4.34112
4.3411
4.34108
4.34105
4.34102
4.34098
4.34093
4.34087
4.3408
4.34072
4.34063
4.34052
4.34039
4.34024
4.34006
4.33986
4.33963
4.33936
4.33906
4.33872
4.33835
4.33798
4.33767
4.86633
4.86668
4.86711
4.86753
4.86791
4.86825
4.86856
4.86883
4.86906
4.86926
4.86943
4.86958
4.8697
4.86981
4.8699
4.86998
4.87004
4.8701
4.87014
4.87018
4.87021
4.87024
4.87026
4.87028
4.87029
4.87031
4.87032
4.87032
4.87033
4.87033
4.87033
4.87033
4.87032
4.87032
4.87031
4.87029
4.87028
4.87026
4.87024
4.87021
4.87018
4.87014
4.8701
4.87004
4.86998
4.8699
4.86981
4.8697
4.86958
4.86943
4.86926
4.86906
4.86883
4.86856
4.86825
4.86791
4.86753
4.86711
4.86668
4.86633
5.40481
5.4052
5.40568
5.40615
5.40658
5.40696
5.40731
5.40761
5.40787
5.40809
5.40828
5.40845
5.40859
5.40871
5.40881
5.4089
5.40897
5.40903
5.40908
5.40913
5.40916
5.40919
5.40922
5.40924
5.40925
5.40927
5.40928
5.40928
5.40929
5.40929
5.40929
5.40929
5.40928
5.40928
5.40927
5.40925
5.40924
5.40922
5.40919
5.40916
5.40913
5.40908
5.40903
5.40897
5.4089
5.40881
5.40871
5.40859
5.40845
5.40828
5.40809
5.40787
5.40761
5.40731
5.40696
5.40658
5.40615
5.40568
5.4052
5.40481
5.95296
5.9534
5.95393
5.95445
5.95493
5.95535
5.95573
5.95606
5.95635
5.9566
5.95682
5.957
5.95716
5.95729
5.9574
5.9575
5.95758
5.95765
5.9577
5.95775
5.95779
5.95783
5.95785
5.95788
5.95789
5.95791
5.95792
5.95793
5.95793
5.95793
5.95793
5.95793
5.95793
5.95792
5.95791
5.95789
5.95788
5.95785
5.95783
5.95779
5.95775
5.9577
5.95765
5.95758
5.9575
5.9574
5.95729
5.95716
5.957
5.95682
5.9566
5.95635
5.95606
5.95573
5.95535
5.95493
5.95445
5.95393
5.9534
5.95296
6.51062
6.5111
6.51168
6.51225
6.51277
6.51324
6.51366
6.51402
6.51434
6.51461
6.51485
6.51505
6.51522
6.51537
6.51549
6.5156
6.51569
6.51576
6.51582
6.51588
6.51592
6.51596
6.51599
6.51601
6.51603
6.51605
6.51606
6.51607
6.51607
6.51608
6.51608
6.51607
6.51607
6.51606
6.51605
6.51603
6.51601
6.51599
6.51596
6.51592
6.51588
6.51582
6.51576
6.51569
6.5156
6.51549
6.51537
6.51522
6.51505
6.51485
6.51461
6.51434
6.51402
6.51366
6.51324
6.51277
6.51225
6.51168
6.5111
6.51062
7.07755
7.07807
7.0787
7.07932
7.0799
7.08041
7.08086
7.08126
7.0816
7.0819
7.08216
7.08238
7.08256
7.08272
7.08286
7.08297
7.08307
7.08315
7.08322
7.08328
7.08332
7.08336
7.0834
7.08342
7.08345
7.08346
7.08348
7.08349
7.08349
7.08349
7.08349
7.08349
7.08349
7.08348
7.08346
7.08345
7.08342
7.0834
7.08336
7.08332
7.08328
7.08322
7.08315
7.08307
7.08297
7.08286
7.08272
7.08256
7.08238
7.08216
7.0819
7.0816
7.08126
7.08086
7.08041
7.0799
7.07932
7.0787
7.07807
7.07755
7.65348
7.65405
7.65473
7.6554
7.65602
7.65657
7.65706
7.65749
7.65786
7.65818
7.65846
7.6587
7.6589
7.65908
7.65922
7.65935
7.65945
7.65954
7.65961
7.65967
7.65973
7.65977
7.6598
7.65983
7.65986
7.65987
7.65989
7.6599
7.65991
7.65991
7.65991
7.65991
7.6599
7.65989
7.65987
7.65986
7.65983
7.6598
7.65977
7.65973
7.65967
7.65961
7.65954
7.65945
7.65935
7.65922
7.65908
7.6589
7.6587
7.65846
7.65818
7.65786
7.65749
7.65706
7.65657
7.65602
7.6554
7.65473
7.65405
7.65348
8.23809
8.23869
8.23942
8.24014
8.24081
8.2414
8.24193
8.24239
8.24279
8.24314
8.24343
8.24369
8.24391
8.24409
8.24425
8.24438
8.2445
8.24459
8.24467
8.24474
8.24479
8.24484
8.24488
8.24491
8.24493
8.24495
8.24497
8.24498
8.24499
8.24499
8.24499
8.24499
8.24498
8.24497
8.24495
8.24493
8.24491
8.24488
8.24484
8.24479
8.24474
8.24467
8.24459
8.2445
8.24438
8.24425
8.24409
8.24391
8.24369
8.24343
8.24314
8.24279
8.24239
8.24193
8.2414
8.24081
8.24014
8.23942
8.23869
8.23809
8.83097
8.83161
8.83239
8.83316
8.83387
8.83451
8.83507
8.83556
8.83599
8.83636
8.83668
8.83695
8.83718
8.83738
8.83755
8.83769
8.83781
8.83791
8.838
8.83807
8.83813
8.83818
8.83822
8.83825
8.83828
8.8383
8.83832
8.83833
8.83834
8.83834
8.83834
8.83834
8.83833
8.83832
8.8383
8.83828
8.83825
8.83822
8.83818
8.83813
8.83807
8.838
8.83791
8.83781
8.83769
8.83755
8.83738
8.83718
8.83695
8.83668
8.83636
8.83599
8.83556
8.83507
8.83451
8.83387
8.83316
8.83239
8.83161
8.83097
9.43166
9.43234
9.43318
9.43399
9.43475
9.43542
9.43602
9.43654
9.437
9.43739
9.43773
9.43802
9.43827
9.43848
9.43866
9.43881
9.43894
9.43904
9.43913
9.43921
9.43927
9.43933
9.43937
9.4394
9.43943
9.43946
9.43947
9.43949
9.43949
9.4395
9.4395
9.43949
9.43949
9.43947
9.43946
9.43943
9.4394
9.43937
9.43933
9.43927
9.43921
9.43913
9.43904
9.43894
9.43881
9.43866
9.43848
9.43827
9.43802
9.43773
9.43739
9.437
9.43654
9.43602
9.43542
9.43475
9.43399
9.43318
9.43234
9.43166
10.0396
10.0403
10.0412
10.0421
10.0429
10.0436
10.0442
10.0448
10.0453
10.0457
10.046
10.0464
10.0466
10.0468
10.047
10.0472
10.0473
10.0474
10.0475
10.0476
10.0477
10.0477
10.0478
10.0478
10.0478
10.0479
10.0479
10.0479
10.0479
10.0479
10.0479
10.0479
10.0479
10.0479
10.0479
10.0478
10.0478
10.0478
10.0477
10.0477
10.0476
10.0475
10.0474
10.0473
10.0472
10.047
10.0468
10.0466
10.0464
10.046
10.0457
10.0453
10.0448
10.0442
10.0436
10.0429
10.0421
10.0412
10.0403
10.0396
10.6542
10.655
10.6559
10.6568
10.6577
10.6584
10.6591
10.6597
10.6602
10.6606
10.661
10.6613
10.6616
10.6618
10.662
10.6622
10.6623
10.6625
10.6626
10.6626
10.6627
10.6628
10.6628
10.6629
10.6629
10.6629
10.6629
10.663
10.663
10.663
10.663
10.663
10.663
10.6629
10.6629
10.6629
10.6629
10.6628
10.6628
10.6627
10.6626
10.6626
10.6625
10.6623
10.6622
10.662
10.6618
10.6616
10.6613
10.661
10.6606
10.6602
10.6597
10.6591
10.6584
10.6577
10.6568
10.6559
10.655
10.6542
11.2747
11.2755
11.2765
11.2775
11.2784
11.2791
11.2798
11.2805
11.281
11.2814
11.2818
11.2822
11.2825
11.2827
11.2829
11.2831
11.2832
11.2834
11.2835
11.2836
11.2836
11.2837
11.2838
11.2838
11.2838
11.2839
11.2839
11.2839
11.2839
11.2839
11.2839
11.2839
11.2839
11.2839
11.2839
11.2838
11.2838
11.2838
11.2837
11.2836
11.2836
11.2835
11.2834
11.2832
11.2831
11.2829
11.2827
11.2825
11.2822
11.2818
11.2814
11.281
11.2805
11.2798
11.2791
11.2784
11.2775
11.2765
11.2755
11.2747
11.9003
11.9012
11.9022
11.9032
11.9041
11.9049
11.9056
11.9063
11.9068
11.9073
11.9077
11.9081
11.9084
11.9086
11.9089
11.9091
11.9092
11.9093
11.9094
11.9095
11.9096
11.9097
11.9097
11.9098
11.9098
11.9098
11.9099
11.9099
11.9099
11.9099
11.9099
11.9099
11.9099
11.9099
11.9098
11.9098
11.9098
11.9097
11.9097
11.9096
11.9095
11.9094
11.9093
11.9092
11.9091
11.9089
11.9086
11.9084
11.9081
11.9077
11.9073
11.9068
11.9063
11.9056
11.9049
11.9041
11.9032
11.9022
11.9012
11.9003
12.53
12.5309
12.5319
12.533
12.5339
12.5348
12.5355
12.5362
12.5368
12.5373
12.5377
12.5381
12.5384
12.5387
12.5389
12.5391
12.5392
12.5394
12.5395
12.5396
12.5397
12.5397
12.5398
12.5398
12.5399
12.5399
12.5399
12.5399
12.5399
12.54
12.54
12.5399
12.5399
12.5399
12.5399
12.5399
12.5398
12.5398
12.5397
12.5397
12.5396
12.5395
12.5394
12.5392
12.5391
12.5389
12.5387
12.5384
12.5381
12.5377
12.5373
12.5368
12.5362
12.5355
12.5348
12.5339
12.533
12.5319
12.5309
12.53
13.1627
13.1636
13.1646
13.1657
13.1667
13.1676
13.1684
13.1691
13.1697
13.1702
13.1706
13.171
13.1713
13.1716
13.1718
13.172
13.1722
13.1724
13.1725
13.1726
13.1727
13.1727
13.1728
13.1728
13.1729
13.1729
13.1729
13.1729
13.173
13.173
13.173
13.173
13.1729
13.1729
13.1729
13.1729
13.1728
13.1728
13.1727
13.1727
13.1726
13.1725
13.1724
13.1722
13.172
13.1718
13.1716
13.1713
13.171
13.1706
13.1702
13.1697
13.1691
13.1684
13.1676
13.1667
13.1657
13.1646
13.1636
13.1627
13.797
13.7979
13.799
13.8001
13.8012
13.8021
13.8029
13.8036
13.8042
13.8047
13.8052
13.8056
13.8059
13.8062
13.8065
13.8067
13.8068
13.807
13.8071
13.8072
13.8073
13.8074
13.8074
13.8075
13.8075
13.8076
13.8076
13.8076
13.8076
13.8076
13.8076
13.8076
13.8076
13.8076
13.8076
13.8075
13.8075
13.8074
13.8074
13.8073
13.8072
13.8071
13.807
13.8068
13.8067
13.8065
13.8062
13.8059
13.8056
13.8052
13.8047
13.8042
13.8036
13.8029
13.8021
13.8012
13.8001
13.799
13.7979
13.797
14.4315
14.4325
14.4336
14.4348
14.4358
14.4367
14.4376
14.4383
14.4389
14.4395
14.44
14.4404
14.4407
14.441
14.4413
14.4415
14.4416
14.4418
14.4419
14.442
14.4421
14.4422
14.4422
14.4423
14.4423
14.4424
14.4424
14.4424
14.4424
14.4424
14.4424
14.4424
14.4424
14.4424
14.4424
14.4423
14.4423
14.4422
14.4422
14.4421
14.442
14.4419
14.4418
14.4416
14.4415
14.4413
14.441
14.4407
14.4404
14.44
14.4395
14.4389
14.4383
14.4376
14.4367
14.4358
14.4348
14.4336
14.4325
14.4315
15.0645
15.0655
15.0667
15.0679
15.0689
15.0699
15.0707
15.0715
15.0721
15.0727
15.0732
15.0736
15.0739
15.0742
15.0745
15.0747
15.0749
15.075
15.0752
15.0753
15.0754
15.0754
15.0755
15.0756
15.0756
15.0756
15.0757
15.0757
15.0757
15.0757
15.0757
15.0757
15.0757
15.0757
15.0756
15.0756
15.0756
15.0755
15.0754
15.0754
15.0753
15.0752
15.075
15.0749
15.0747
15.0745
15.0742
15.0739
15.0736
15.0732
15.0727
15.0721
15.0715
15.0707
15.0699
15.0689
15.0679
15.0667
15.0655
15.0645
15.694
15.6951
15.6963
15.6974
15.6985
15.6995
15.7004
15.7011
15.7018
15.7023
15.7028
15.7033
15.7036
15.7039
15.7042
15.7044
15.7046
15.7047
15.7049
15.705
15.7051
15.7052
15.7052
15.7053
15.7053
15.7053
15.7054
15.7054
15.7054
15.7054
15.7054
15.7054
15.7054
15.7054
15.7053
15.7053
15.7053
15.7052
15.7052
15.7051
15.705
15.7049
15.7047
15.7046
15.7044
15.7042
15.7039
15.7036
15.7033
15.7028
15.7023
15.7018
15.7011
15.7004
15.6995
15.6985
15.6974
15.6963
15.6951
15.694
16.3178
16.3188
16.32
16.3212
16.3223
16.3233
16.3242
16.325
16.3256
16.3262
16.3267
16.3271
16.3275
16.3278
16.328
16.3283
16.3285
16.3286
16.3287
16.3289
16.329
16.329
16.3291
16.3291
16.3292
16.3292
16.3293
16.3293
16.3293
16.3293
16.3293
16.3293
16.3293
16.3293
16.3292
16.3292
16.3291
16.3291
16.329
16.329
16.3289
16.3287
16.3286
16.3285
16.3283
16.328
16.3278
16.3275
16.3271
16.3267
16.3262
16.3256
16.325
16.3242
16.3233
16.3223
16.3212
16.32
16.3188
16.3178
16.9331
16.9341
16.9354
16.9366
16.9377
16.9387
16.9395
16.9403
16.941
16.9415
16.942
16.9425
16.9428
16.9431
16.9434
16.9436
16.9438
16.944
16.9441
16.9442
16.9443
16.9444
16.9445
16.9445
16.9446
16.9446
16.9446
16.9446
16.9447
16.9447
16.9447
16.9447
16.9446
16.9446
16.9446
16.9446
16.9445
16.9445
16.9444
16.9443
16.9442
16.9441
16.944
16.9438
16.9436
16.9434
16.9431
16.9428
16.9425
16.942
16.9415
16.941
16.9403
16.9395
16.9387
16.9377
16.9366
16.9354
16.9341
16.9331
17.5369
17.5379
17.5391
17.5403
17.5414
17.5424
17.5433
17.5441
17.5447
17.5453
17.5458
17.5462
17.5466
17.5469
17.5472
17.5474
17.5476
17.5477
17.5479
17.548
17.5481
17.5481
17.5482
17.5483
17.5483
17.5483
17.5484
17.5484
17.5484
17.5484
17.5484
17.5484
17.5484
17.5484
17.5483
17.5483
17.5483
17.5482
17.5481
17.5481
17.548
17.5479
17.5477
17.5476
17.5474
17.5472
17.5469
17.5466
17.5462
17.5458
17.5453
17.5447
17.5441
17.5433
17.5424
17.5414
17.5403
17.5391
17.5379
17.5369
18.1254
18.1265
18.1277
18.1289
18.1299
18.1309
18.1318
18.1325
18.1332
18.1338
18.1342
18.1347
18.135
18.1353
18.1356
18.1358
18.136
18.1362
18.1363
18.1364
18.1365
18.1366
18.1366
18.1367
18.1367
18.1368
18.1368
18.1368
18.1368
18.1368
18.1368
18.1368
18.1368
18.1368
18.1368
18.1367
18.1367
18.1366
18.1366
18.1365
18.1364
18.1363
18.1362
18.136
18.1358
18.1356
18.1353
18.135
18.1347
18.1342
18.1338
18.1332
18.1325
18.1318
18.1309
18.1299
18.1289
18.1277
18.1265
18.1254
18.6945
18.6955
18.6967
18.6978
18.6989
18.6998
18.7007
18.7014
18.702
18.7026
18.7031
18.7035
18.7038
18.7041
18.7044
18.7046
18.7048
18.7049
18.7051
18.7052
18.7053
18.7053
18.7054
18.7055
18.7055
18.7055
18.7056
18.7056
18.7056
18.7056
18.7056
18.7056
18.7056
18.7056
18.7055
18.7055
18.7055
18.7054
18.7053
18.7053
18.7052
18.7051
18.7049
18.7048
18.7046
18.7044
18.7041
18.7038
18.7035
18.7031
18.7026
18.702
18.7014
18.7007
18.6998
18.6989
18.6978
18.6967
18.6955
18.6945
19.2388
19.2398
19.2409
19.242
19.243
19.2439
19.2447
19.2454
19.2461
19.2466
19.2471
19.2475
19.2478
19.2481
19.2483
19.2485
19.2487
19.2489
19.249
19.2491
19.2492
19.2493
19.2493
19.2494
19.2494
19.2494
19.2495
19.2495
19.2495
19.2495
19.2495
19.2495
19.2495
19.2495
19.2494
19.2494
19.2494
19.2493
19.2493
19.2492
19.2491
19.249
19.2489
19.2487
19.2485
19.2483
19.2481
19.2478
19.2475
19.2471
19.2466
19.2461
19.2454
19.2447
19.2439
19.243
19.242
19.2409
19.2398
19.2388
19.7523
19.7532
19.7543
19.7553
19.7563
19.7571
19.7579
19.7586
19.7592
19.7597
19.7601
19.7605
19.7608
19.7611
19.7613
19.7615
19.7617
19.7618
19.7619
19.762
19.7621
19.7622
19.7622
19.7623
19.7623
19.7624
19.7624
19.7624
19.7624
19.7624
19.7624
19.7624
19.7624
19.7624
19.7624
19.7623
19.7623
19.7622
19.7622
19.7621
19.762
19.7619
19.7618
19.7617
19.7615
19.7613
19.7611
19.7608
19.7605
19.7601
19.7597
19.7592
19.7586
19.7579
19.7571
19.7563
19.7553
19.7543
19.7532
19.7523
20.2278
20.2287
20.2297
20.2306
20.2315
20.2323
20.233
20.2336
20.2342
20.2346
20.235
20.2354
20.2357
20.2359
20.2361
20.2363
20.2365
20.2366
20.2367
20.2368
20.2369
20.237
20.237
20.2371
20.2371
20.2371
20.2372
20.2372
20.2372
20.2372
20.2372
20.2372
20.2372
20.2372
20.2371
20.2371
20.2371
20.237
20.237
20.2369
20.2368
20.2367
20.2366
20.2365
20.2363
20.2361
20.2359
20.2357
20.2354
20.235
20.2346
20.2342
20.2336
20.233
20.2323
20.2315
20.2306
20.2297
20.2287
20.2278
20.6578
20.6585
20.6594
20.6603
20.661
20.6618
20.6624
20.6629
20.6634
20.6638
20.6642
20.6645
20.6648
20.665
20.6652
20.6653
20.6655
20.6656
20.6657
20.6658
20.6659
20.6659
20.666
20.666
20.666
20.6661
20.6661
20.6661
20.6661
20.6661
20.6661
20.6661
20.6661
20.6661
20.6661
20.666
20.666
20.666
20.6659
20.6659
20.6658
20.6657
20.6656
20.6655
20.6653
20.6652
20.665
20.6648
20.6645
20.6642
20.6638
20.6634
20.6629
20.6624
20.6618
20.661
20.6603
20.6594
20.6585
20.6578
21.0349
21.0355
21.0363
21.037
21.0377
21.0383
21.0388
21.0393
21.0397
21.04
21.0403
21.0406
21.0408
21.041
21.0412
21.0413
21.0415
21.0416
21.0417
21.0417
21.0418
21.0418
21.0419
21.0419
21.042
21.042
21.042
21.042
21.042
21.042
21.042
21.042
21.042
21.042
21.042
21.042
21.0419
21.0419
21.0418
21.0418
21.0417
21.0417
21.0416
21.0415
21.0413
21.0412
21.041
21.0408
21.0406
21.0403
21.04
21.0397
21.0393
21.0388
21.0383
21.0377
21.037
21.0363
21.0355
21.0349
21.3544
21.3549
21.3555
21.3561
21.3567
21.3572
21.3576
21.358
21.3583
21.3586
21.3589
21.3591
21.3593
21.3594
21.3596
21.3597
21.3598
21.3599
21.3599
21.36
21.3601
21.3601
21.3601
21.3602
21.3602
21.3602
21.3602
21.3602
21.3602
21.3603
21.3603
21.3602
21.3602
21.3602
21.3602
21.3602
21.3602
21.3601
21.3601
21.3601
21.36
21.3599
21.3599
21.3598
21.3597
21.3596
21.3594
21.3593
21.3591
21.3589
21.3586
21.3583
21.358
21.3576
21.3572
21.3567
21.3561
21.3555
21.3549
21.3544
21.6162
21.6166
21.6171
21.6175
21.6179
21.6183
21.6187
21.619
21.6192
21.6194
21.6196
21.6198
21.62
21.6201
21.6202
21.6203
21.6204
21.6204
21.6205
21.6206
21.6206
21.6206
21.6207
21.6207
21.6207
21.6207
21.6207
21.6207
21.6207
21.6208
21.6208
21.6207
21.6207
21.6207
21.6207
21.6207
21.6207
21.6207
21.6206
21.6206
21.6206
21.6205
21.6204
21.6204
21.6203
21.6202
21.6201
21.62
21.6198
21.6196
21.6194
21.6192
21.619
21.6187
21.6183
21.6179
21.6175
21.6171
21.6166
21.6162
21.8254
21.8257
21.826
21.8264
21.8267
21.827
21.8272
21.8274
21.8276
21.8278
21.8279
21.8281
21.8282
21.8283
21.8284
21.8284
21.8285
21.8286
21.8286
21.8286
21.8287
21.8287
21.8287
21.8288
21.8288
21.8288
21.8288
21.8288
21.8288
21.8288
21.8288
21.8288
21.8288
21.8288
21.8288
21.8288
21.8288
21.8287
21.8287
21.8287
21.8286
21.8286
21.8286
21.8285
21.8284
21.8284
21.8283
21.8282
21.8281
21.8279
21.8278
21.8276
21.8274
21.8272
21.827
21.8267
21.8264
21.826
21.8257
21.8254
21.9912
21.9913
21.9916
21.9918
21.992
21.9923
21.9924
21.9926
21.9927
21.9929
21.993
21.9931
21.9932
21.9932
21.9933
21.9934
21.9934
21.9935
21.9935
21.9935
21.9936
21.9936
21.9936
21.9936
21.9936
21.9936
21.9936
21.9937
21.9937
21.9937
21.9937
21.9937
21.9937
21.9936
21.9936
21.9936
21.9936
21.9936
21.9936
21.9936
21.9935
21.9935
21.9935
21.9934
21.9934
21.9933
21.9932
21.9932
21.9931
21.993
21.9929
21.9927
21.9926
21.9924
21.9923
21.992
21.9918
21.9916
21.9913
21.9912
22.1239
22.124
22.1241
22.1243
22.1245
22.1246
22.1248
22.1249
22.125
22.1251
22.1252
22.1252
22.1253
22.1254
22.1254
22.1255
22.1255
22.1255
22.1256
22.1256
22.1256
22.1256
22.1256
22.1257
22.1257
22.1257
22.1257
22.1257
22.1257
22.1257
22.1257
22.1257
22.1257
22.1257
22.1257
22.1257
22.1257
22.1256
22.1256
22.1256
22.1256
22.1256
22.1255
22.1255
22.1255
22.1254
22.1254
22.1253
22.1252
22.1252
22.1251
22.125
22.1249
22.1248
22.1246
22.1245
22.1243
22.1241
22.124
22.1239
22.2328
22.2329
22.233
22.2331
22.2332
22.2333
22.2334
22.2335
22.2336
22.2336
22.2337
22.2338
22.2338
22.2339
22.2339
22.2339
22.234
22.234
22.234
22.234
22.2341
22.2341
22.2341
22.2341
22.2341
22.2341
22.2341
22.2341
22.2341
22.2341
22.2341
22.2341
22.2341
22.2341
22.2341
22.2341
22.2341
22.2341
22.2341
22.2341
22.234
22.234
22.234
22.234
22.2339
22.2339
22.2339
22.2338
22.2338
22.2337
22.2336
22.2336
22.2335
22.2334
22.2333
22.2332
22.2331
22.233
22.2329
22.2328
22.3249
22.325
22.325
22.3251
22.3252
22.3253
22.3254
22.3254
22.3255
22.3255
22.3256
22.3256
22.3257
22.3257
22.3257
22.3258
22.3258
22.3258
22.3259
22.3259
22.3259
22.3259
22.3259
22.3259
22.3259
22.3259
22.3259
22.326
22.326
22.326
22.326
22.326
22.326
22.3259
22.3259
22.3259
22.3259
22.3259
22.3259
22.3259
22.3259
22.3259
22.3258
22.3258
22.3258
22.3257
22.3257
22.3257
22.3256
22.3256
22.3255
22.3255
22.3254
22.3254
22.3253
22.3252
22.3251
22.325
22.325
22.3249
22.4051
22.4052
22.4052
22.4053
22.4053
22.4054
22.4054
22.4055
22.4055
22.4056
22.4056
22.4057
22.4057
22.4057
22.4058
22.4058
22.4058
22.4058
22.4058
22.4059
22.4059
22.4059
22.4059
22.4059
22.4059
22.4059
22.4059
22.4059
22.4059
22.4059
22.4059
22.4059
22.4059
22.4059
22.4059
22.4059
22.4059
22.4059
22.4059
22.4059
22.4059
22.4058
22.4058
22.4058
22.4058
22.4058
22.4057
22.4057
22.4057
22.4056
22.4056
22.4055
22.4055
22.4054
22.4054
22.4053
22.4053
22.4052
22.4052
22.4051
22.4766
22.4766
22.4767
22.4767
22.4767
22.4768
22.4768
22.4769
22.4769
22.4769
22.477
22.477
22.477
22.4771
22.4771
22.4771
22.4771
22.4771
22.4772
22.4772
22.4772
22.4772
22.4772
22.4772
22.4772
22.4772
22.4772
22.4772
22.4772
22.4773
22.4773
22.4772
22.4772
22.4772
22.4772
22.4772
22.4772
22.4772
22.4772
22.4772
22.4772
22.4772
22.4771
22.4771
22.4771
22.4771
22.4771
22.477
22.477
22.477
22.4769
22.4769
22.4769
22.4768
22.4768
22.4767
22.4767
22.4767
22.4766
22.4766
22.5414
22.5414
22.5415
22.5415
22.5415
22.5416
22.5416
22.5416
22.5416
22.5417
22.5417
22.5417
22.5418
22.5418
22.5418
22.5418
22.5418
22.5419
22.5419
22.5419
22.5419
22.5419
22.5419
22.5419
22.5419
22.5419
22.5419
22.542
22.542
22.542
22.542
22.542
22.542
22.5419
22.5419
22.5419
22.5419
22.5419
22.5419
22.5419
22.5419
22.5419
22.5419
22.5418
22.5418
22.5418
22.5418
22.5418
22.5417
22.5417
22.5417
22.5416
22.5416
22.5416
22.5416
22.5415
22.5415
22.5415
22.5414
22.5414
22.601
22.601
22.6011
22.6011
22.6011
22.6011
22.6011
22.6012
22.6012
22.6012
22.6012
22.6013
22.6013
22.6013
22.6013
22.6013
22.6013
22.6014
22.6014
22.6014
22.6014
22.6014
22.6014
22.6014
22.6014
22.6015
22.6015
22.6015
22.6015
22.6015
22.6015
22.6015
22.6015
22.6015
22.6015
22.6014
22.6014
22.6014
22.6014
22.6014
22.6014
22.6014
22.6014
22.6013
22.6013
22.6013
22.6013
22.6013
22.6013
22.6012
22.6012
22.6012
22.6012
22.6011
22.6011
22.6011
22.6011
22.6011
22.601
22.601
22.6564
22.6564
22.6564
22.6564
22.6564
22.6565
22.6565
22.6565
22.6565
22.6565
22.6566
22.6566
22.6566
22.6566
22.6566
22.6566
22.6567
22.6567
22.6567
22.6567
22.6567
22.6567
22.6567
22.6567
22.6568
22.6568
22.6568
22.6568
22.6568
22.6568
22.6568
22.6568
22.6568
22.6568
22.6568
22.6568
22.6567
22.6567
22.6567
22.6567
22.6567
22.6567
22.6567
22.6567
22.6566
22.6566
22.6566
22.6566
22.6566
22.6566
22.6565
22.6565
22.6565
22.6565
22.6565
22.6564
22.6564
22.6564
22.6564
22.6564
22.7083
22.7083
22.7083
22.7083
22.7083
22.7083
22.7084
22.7084
22.7084
22.7084
22.7084
22.7084
22.7085
22.7085
22.7085
22.7085
22.7085
22.7085
22.7085
22.7086
22.7086
22.7086
22.7086
22.7086
22.7086
22.7086
22.7086
22.7086
22.7086
22.7086
22.7086
22.7086
22.7086
22.7086
22.7086
22.7086
22.7086
22.7086
22.7086
22.7086
22.7086
22.7085
22.7085
22.7085
22.7085
22.7085
22.7085
22.7085
22.7084
22.7084
22.7084
22.7084
22.7084
22.7084
22.7083
22.7083
22.7083
22.7083
22.7083
22.7083
22.7573
22.7573
22.7573
22.7573
22.7573
22.7573
22.7573
22.7573
22.7573
22.7574
22.7574
22.7574
22.7574
22.7574
22.7574
22.7575
22.7575
22.7575
22.7575
22.7575
22.7575
22.7575
22.7575
22.7575
22.7576
22.7576
22.7576
22.7576
22.7576
22.7576
22.7576
22.7576
22.7576
22.7576
22.7576
22.7576
22.7575
22.7575
22.7575
22.7575
22.7575
22.7575
22.7575
22.7575
22.7575
22.7574
22.7574
22.7574
22.7574
22.7574
22.7574
22.7573
22.7573
22.7573
22.7573
22.7573
22.7573
22.7573
22.7573
22.7573
22.8039
22.8038
22.8038
22.8038
22.8038
22.8038
22.8038
22.8038
22.8038
22.8039
22.8039
22.8039
22.8039
22.8039
22.8039
22.8039
22.804
22.804
22.804
22.804
22.804
22.804
22.804
22.804
22.804
22.8041
22.8041
22.8041
22.8041
22.8041
22.8041
22.8041
22.8041
22.8041
22.8041
22.804
22.804
22.804
22.804
22.804
22.804
22.804
22.804
22.804
22.8039
22.8039
22.8039
22.8039
22.8039
22.8039
22.8039
22.8038
22.8038
22.8038
22.8038
22.8038
22.8038
22.8038
22.8038
22.8039
22.8483
22.8483
22.8482
22.8482
22.8482
22.8482
22.8482
22.8482
22.8482
22.8482
22.8483
22.8483
22.8483
22.8483
22.8483
22.8483
22.8483
22.8484
22.8484
22.8484
22.8484
22.8484
22.8484
22.8484
22.8484
22.8484
22.8484
22.8484
22.8484
22.8484
22.8484
22.8484
22.8484
22.8484
22.8484
22.8484
22.8484
22.8484
22.8484
22.8484
22.8484
22.8484
22.8484
22.8483
22.8483
22.8483
22.8483
22.8483
22.8483
22.8483
22.8482
22.8482
22.8482
22.8482
22.8482
22.8482
22.8482
22.8482
22.8483
22.8483
22.8909
22.8908
22.8908
22.8908
22.8908
22.8908
22.8908
22.8908
22.8908
22.8908
22.8908
22.8908
22.8908
22.8909
22.8909
22.8909
22.8909
22.8909
22.8909
22.8909
22.8909
22.891
22.891
22.891
22.891
22.891
22.891
22.891
22.891
22.891
22.891
22.891
22.891
22.891
22.891
22.891
22.891
22.891
22.891
22.8909
22.8909
22.8909
22.8909
22.8909
22.8909
22.8909
22.8909
22.8908
22.8908
22.8908
22.8908
22.8908
22.8908
22.8908
22.8908
22.8908
22.8908
22.8908
22.8908
22.8909
22.9318
22.9318
22.9318
22.9318
22.9318
22.9318
22.9318
22.9318
22.9318
22.9318
22.9318
22.9318
22.9318
22.9318
22.9318
22.9319
22.9319
22.9319
22.9319
22.9319
22.9319
22.9319
22.9319
22.932
22.932
22.932
22.932
22.932
22.932
22.932
22.932
22.932
22.932
22.932
22.932
22.932
22.932
22.9319
22.9319
22.9319
22.9319
22.9319
22.9319
22.9319
22.9319
22.9318
22.9318
22.9318
22.9318
22.9318
22.9318
22.9318
22.9318
22.9318
22.9318
22.9318
22.9318
22.9318
22.9318
22.9318
22.9714
22.9714
22.9714
22.9714
22.9714
22.9714
22.9714
22.9714
22.9714
22.9714
22.9714
22.9714
22.9714
22.9714
22.9714
22.9714
22.9715
22.9715
22.9715
22.9715
22.9715
22.9715
22.9715
22.9715
22.9715
22.9716
22.9716
22.9716
22.9716
22.9716
22.9716
22.9716
22.9716
22.9716
22.9716
22.9715
22.9715
22.9715
22.9715
22.9715
22.9715
22.9715
22.9715
22.9715
22.9714
22.9714
22.9714
22.9714
22.9714
22.9714
22.9714
22.9714
22.9714
22.9714
22.9714
22.9714
22.9714
22.9714
22.9714
22.9714
23.0098
23.0098
23.0098
23.0098
23.0098
23.0097
23.0097
23.0097
23.0097
23.0097
23.0098
23.0098
23.0098
23.0098
23.0098
23.0098
23.0098
23.0098
23.0099
23.0099
23.0099
23.0099
23.0099
23.0099
23.0099
23.0099
23.0099
23.0099
23.0099
23.0099
23.0099
23.0099
23.0099
23.0099
23.0099
23.0099
23.0099
23.0099
23.0099
23.0099
23.0099
23.0099
23.0098
23.0098
23.0098
23.0098
23.0098
23.0098
23.0098
23.0098
23.0097
23.0097
23.0097
23.0097
23.0097
23.0098
23.0098
23.0098
23.0098
23.0098
23.0471
23.0471
23.0471
23.0471
23.047
23.047
23.047
23.047
23.047
23.047
23.047
23.0471
23.0471
23.0471
23.0471
23.0471
23.0471
23.0471
23.0471
23.0472
23.0472
23.0472
23.0472
23.0472
23.0472
23.0472
23.0472
23.0472
23.0472
23.0472
23.0472
23.0472
23.0472
23.0472
23.0472
23.0472
23.0472
23.0472
23.0472
23.0472
23.0472
23.0471
23.0471
23.0471
23.0471
23.0471
23.0471
23.0471
23.0471
23.047
23.047
23.047
23.047
23.047
23.047
23.047
23.0471
23.0471
23.0471
23.0471
23.0835
23.0834
23.0834
23.0834
23.0834
23.0834
23.0834
23.0834
23.0834
23.0834
23.0834
23.0834
23.0834
23.0834
23.0834
23.0834
23.0835
23.0835
23.0835
23.0835
23.0835
23.0835
23.0835
23.0835
23.0835
23.0836
23.0836
23.0836
23.0836
23.0836
23.0836
23.0836
23.0836
23.0836
23.0836
23.0835
23.0835
23.0835
23.0835
23.0835
23.0835
23.0835
23.0835
23.0835
23.0834
23.0834
23.0834
23.0834
23.0834
23.0834
23.0834
23.0834
23.0834
23.0834
23.0834
23.0834
23.0834
23.0834
23.0834
23.0835
23.1189
23.1189
23.1189
23.1189
23.1189
23.1189
23.1189
23.1189
23.1189
23.1189
23.1189
23.1189
23.1189
23.1189
23.1189
23.1189
23.119
23.119
23.119
23.119
23.119
23.119
23.119
23.119
23.119
23.1191
23.1191
23.1191
23.1191
23.1191
23.1191
23.1191
23.1191
23.1191
23.1191
23.119
23.119
23.119
23.119
23.119
23.119
23.119
23.119
23.119
23.1189
23.1189
23.1189
23.1189
23.1189
23.1189
23.1189
23.1189
23.1189
23.1189
23.1189
23.1189
23.1189
23.1189
23.1189
23.1189
23.1537
23.1537
23.1537
23.1536
23.1536
23.1536
23.1536
23.1536
23.1536
23.1536
23.1536
23.1536
23.1536
23.1537
23.1537
23.1537
23.1537