/*--------------------------------*- C++ -*----------------------------------*\
| =========                 |                                                 |
| \\      /  F ield         | foam-extend: Open Source CFD                    |
|  \\    /   O peration     | Version:     4.0                                |
|   \\  /    A nd           | Web:         http://www.foam-extend.org         |
|    \\/     M anipulation  |                                                 |
\*---------------------------------------------------------------------------*/
FoamFile
{
    version     2.0;
    format      ascii;
    class       volScalarField;
    location    "780";
    object      psiE;
}
// * * * * * * * * * * * * * * * * * * * * * * * * * * * * * * * * * * * * * //

dimensions      [0 0 0 0 0 0 0];

internalField   nonuniform List<scalar> 
6960
(
0.323116
0.323118
0.323116
0.323114
0.323112
0.323111
0.323109
0.323108
0.323108
0.323107
0.323106
0.323106
0.323106
0.323105
0.323105
0.323105
0.323104
0.323104
0.323104
0.323104
0.323104
0.323104
0.323104
0.323104
0.323103
0.323103
0.323103
0.323103
0.323103
0.323103
0.323103
0.323103
0.323103
0.323103
0.323103
0.323103
0.323104
0.323104
0.323104
0.323104
0.323104
0.323104
0.323104
0.323104
0.323105
0.323105
0.323105
0.323106
0.323106
0.323106
0.323107
0.323108
0.323108
0.323109
0.323111
0.323112
0.323114
0.323116
0.323118
0.323116
0.768727
0.768728
0.768719
0.76871
0.768703
0.768697
0.768693
0.768689
0.768686
0.768684
0.768681
0.76868
0.768678
0.768677
0.768676
0.768675
0.768674
0.768673
0.768673
0.768672
0.768672
0.768671
0.768671
0.768671
0.76867
0.76867
0.76867
0.76867
0.76867
0.76867
0.76867
0.76867
0.76867
0.76867
0.76867
0.76867
0.768671
0.768671
0.768671
0.768672
0.768672
0.768673
0.768673
0.768674
0.768675
0.768676
0.768677
0.768678
0.76868
0.768681
0.768684
0.768686
0.768689
0.768693
0.768697
0.768703
0.76871
0.768719
0.768728
0.768727
1.11785
1.11784
1.11782
1.11781
1.11779
1.11778
1.11777
1.11777
1.11776
1.11776
1.11775
1.11775
1.11775
1.11774
1.11774
1.11774
1.11774
1.11774
1.11774
1.11774
1.11773
1.11773
1.11773
1.11773
1.11773
1.11773
1.11773
1.11773
1.11773
1.11773
1.11773
1.11773
1.11773
1.11773
1.11773
1.11773
1.11773
1.11773
1.11773
1.11773
1.11774
1.11774
1.11774
1.11774
1.11774
1.11774
1.11774
1.11775
1.11775
1.11775
1.11776
1.11776
1.11777
1.11777
1.11778
1.11779
1.11781
1.11782
1.11784
1.11785
1.40016
1.40013
1.40009
1.40007
1.40005
1.40003
1.40002
1.40001
1.4
1.39999
1.39999
1.39998
1.39998
1.39997
1.39997
1.39997
1.39997
1.39996
1.39996
1.39996
1.39996
1.39996
1.39996
1.39996
1.39996
1.39995
1.39995
1.39995
1.39995
1.39995
1.39995
1.39995
1.39995
1.39995
1.39995
1.39996
1.39996
1.39996
1.39996
1.39996
1.39996
1.39996
1.39996
1.39997
1.39997
1.39997
1.39997
1.39998
1.39998
1.39999
1.39999
1.4
1.40001
1.40002
1.40003
1.40005
1.40007
1.40009
1.40013
1.40016
1.62994
1.62988
1.62984
1.6298
1.62978
1.62976
1.62974
1.62972
1.62971
1.6297
1.6297
1.62969
1.62968
1.62968
1.62968
1.62967
1.62967
1.62967
1.62966
1.62966
1.62966
1.62966
1.62966
1.62966
1.62966
1.62966
1.62965
1.62965
1.62965
1.62965
1.62965
1.62965
1.62965
1.62965
1.62966
1.62966
1.62966
1.62966
1.62966
1.62966
1.62966
1.62966
1.62967
1.62967
1.62967
1.62968
1.62968
1.62968
1.62969
1.6297
1.6297
1.62971
1.62972
1.62974
1.62976
1.62978
1.6298
1.62984
1.62988
1.62994
1.8177
1.81762
1.81756
1.81752
1.81749
1.81746
1.81744
1.81743
1.81741
1.8174
1.81739
1.81738
1.81738
1.81737
1.81737
1.81736
1.81736
1.81736
1.81735
1.81735
1.81735
1.81735
1.81735
1.81734
1.81734
1.81734
1.81734
1.81734
1.81734
1.81734
1.81734
1.81734
1.81734
1.81734
1.81734
1.81734
1.81734
1.81735
1.81735
1.81735
1.81735
1.81735
1.81736
1.81736
1.81736
1.81737
1.81737
1.81738
1.81738
1.81739
1.8174
1.81741
1.81743
1.81744
1.81746
1.81749
1.81752
1.81756
1.81762
1.8177
1.97276
1.97265
1.97259
1.97254
1.9725
1.97247
1.97245
1.97243
1.97242
1.9724
1.97239
1.97238
1.97238
1.97237
1.97236
1.97236
1.97236
1.97235
1.97235
1.97235
1.97234
1.97234
1.97234
1.97234
1.97234
1.97234
1.97234
1.97233
1.97233
1.97233
1.97233
1.97233
1.97233
1.97234
1.97234
1.97234
1.97234
1.97234
1.97234
1.97234
1.97235
1.97235
1.97235
1.97236
1.97236
1.97236
1.97237
1.97238
1.97238
1.97239
1.9724
1.97242
1.97243
1.97245
1.97247
1.9725
1.97254
1.97259
1.97265
1.97276
2.10327
2.10315
2.10307
2.10302
2.10298
2.10295
2.10292
2.1029
2.10289
2.10287
2.10286
2.10285
2.10284
2.10283
2.10283
2.10282
2.10282
2.10281
2.10281
2.10281
2.10281
2.1028
2.1028
2.1028
2.1028
2.1028
2.1028
2.1028
2.1028
2.1028
2.1028
2.1028
2.1028
2.1028
2.1028
2.1028
2.1028
2.1028
2.1028
2.10281
2.10281
2.10281
2.10281
2.10282
2.10282
2.10283
2.10283
2.10284
2.10285
2.10286
2.10287
2.10289
2.1029
2.10292
2.10295
2.10298
2.10302
2.10307
2.10315
2.10327
2.21586
2.21572
2.21564
2.21558
2.21554
2.21551
2.21548
2.21546
2.21544
2.21543
2.21541
2.2154
2.21539
2.21539
2.21538
2.21537
2.21537
2.21537
2.21536
2.21536
2.21536
2.21535
2.21535
2.21535
2.21535
2.21535
2.21535
2.21535
2.21535
2.21535
2.21535
2.21535
2.21535
2.21535
2.21535
2.21535
2.21535
2.21535
2.21535
2.21536
2.21536
2.21536
2.21537
2.21537
2.21537
2.21538
2.21539
2.21539
2.2154
2.21541
2.21543
2.21544
2.21546
2.21548
2.21551
2.21554
2.21558
2.21564
2.21572
2.21586
2.3155
2.31535
2.31527
2.31521
2.31516
2.31513
2.3151
2.31508
2.31506
2.31504
2.31503
2.31502
2.31501
2.315
2.315
2.31499
2.31499
2.31498
2.31498
2.31497
2.31497
2.31497
2.31497
2.31496
2.31496
2.31496
2.31496
2.31496
2.31496
2.31496
2.31496
2.31496
2.31496
2.31496
2.31496
2.31496
2.31496
2.31497
2.31497
2.31497
2.31497
2.31498
2.31498
2.31499
2.31499
2.315
2.315
2.31501
2.31502
2.31503
2.31504
2.31506
2.31508
2.3151
2.31513
2.31516
2.31521
2.31527
2.31535
2.3155
2.40575
2.40559
2.4055
2.40544
2.40539
2.40536
2.40533
2.4053
2.40529
2.40527
2.40526
2.40525
2.40524
2.40523
2.40522
2.40521
2.40521
2.4052
2.4052
2.4052
2.40519
2.40519
2.40519
2.40519
2.40519
2.40518
2.40518
2.40518
2.40518
2.40518
2.40518
2.40518
2.40518
2.40518
2.40518
2.40519
2.40519
2.40519
2.40519
2.40519
2.4052
2.4052
2.4052
2.40521
2.40521
2.40522
2.40523
2.40524
2.40525
2.40526
2.40527
2.40529
2.4053
2.40533
2.40536
2.40539
2.40544
2.4055
2.40559
2.40575
2.48905
2.48889
2.4888
2.48874
2.48869
2.48865
2.48862
2.4886
2.48858
2.48856
2.48855
2.48854
2.48853
2.48852
2.48851
2.4885
2.4885
2.48849
2.48849
2.48849
2.48848
2.48848
2.48848
2.48848
2.48848
2.48847
2.48847
2.48847
2.48847
2.48847
2.48847
2.48847
2.48847
2.48847
2.48847
2.48848
2.48848
2.48848
2.48848
2.48848
2.48849
2.48849
2.48849
2.4885
2.4885
2.48851
2.48852
2.48853
2.48854
2.48855
2.48856
2.48858
2.4886
2.48862
2.48865
2.48869
2.48874
2.4888
2.48889
2.48905
2.56712
2.56696
2.56687
2.5668
2.56676
2.56672
2.56669
2.56666
2.56664
2.56662
2.56661
2.5666
2.56659
2.56658
2.56657
2.56657
2.56656
2.56656
2.56655
2.56655
2.56655
2.56654
2.56654
2.56654
2.56654
2.56654
2.56653
2.56653
2.56653
2.56653
2.56653
2.56653
2.56653
2.56653
2.56654
2.56654
2.56654
2.56654
2.56654
2.56655
2.56655
2.56655
2.56656
2.56656
2.56657
2.56657
2.56658
2.56659
2.5666
2.56661
2.56662
2.56664
2.56666
2.56669
2.56672
2.56676
2.5668
2.56687
2.56696
2.56712
2.64117
2.64101
2.64092
2.64085
2.6408
2.64076
2.64073
2.64071
2.64068
2.64067
2.64065
2.64064
2.64063
2.64062
2.64061
2.64061
2.6406
2.6406
2.64059
2.64059
2.64059
2.64058
2.64058
2.64058
2.64058
2.64058
2.64058
2.64057
2.64057
2.64057
2.64057
2.64057
2.64057
2.64058
2.64058
2.64058
2.64058
2.64058
2.64058
2.64059
2.64059
2.64059
2.6406
2.6406
2.64061
2.64061
2.64062
2.64063
2.64064
2.64065
2.64067
2.64068
2.64071
2.64073
2.64076
2.6408
2.64085
2.64092
2.64101
2.64117
2.71208
2.71192
2.71182
2.71176
2.71171
2.71167
2.71163
2.71161
2.71159
2.71157
2.71156
2.71154
2.71153
2.71153
2.71152
2.71151
2.71151
2.7115
2.7115
2.71149
2.71149
2.71149
2.71148
2.71148
2.71148
2.71148
2.71148
2.71148
2.71148
2.71148
2.71148
2.71148
2.71148
2.71148
2.71148
2.71148
2.71148
2.71148
2.71149
2.71149
2.71149
2.7115
2.7115
2.71151
2.71151
2.71152
2.71153
2.71153
2.71154
2.71156
2.71157
2.71159
2.71161
2.71163
2.71167
2.71171
2.71176
2.71182
2.71192
2.71208
2.78051
2.78036
2.78026
2.78019
2.78014
2.7801
2.78007
2.78004
2.78002
2.78
2.77999
2.77998
2.77997
2.77996
2.77995
2.77994
2.77994
2.77993
2.77993
2.77992
2.77992
2.77992
2.77991
2.77991
2.77991
2.77991
2.77991
2.77991
2.77991
2.77991
2.77991
2.77991
2.77991
2.77991
2.77991
2.77991
2.77991
2.77991
2.77992
2.77992
2.77992
2.77993
2.77993
2.77994
2.77994
2.77995
2.77996
2.77997
2.77998
2.77999
2.78
2.78002
2.78004
2.78007
2.7801
2.78014
2.78019
2.78026
2.78036
2.78051
2.847
2.84684
2.84674
2.84667
2.84662
2.84658
2.84655
2.84652
2.8465
2.84648
2.84647
2.84646
2.84645
2.84644
2.84643
2.84642
2.84642
2.84641
2.84641
2.8464
2.8464
2.8464
2.8464
2.84639
2.84639
2.84639
2.84639
2.84639
2.84639
2.84639
2.84639
2.84639
2.84639
2.84639
2.84639
2.84639
2.84639
2.8464
2.8464
2.8464
2.8464
2.84641
2.84641
2.84642
2.84642
2.84643
2.84644
2.84645
2.84646
2.84647
2.84648
2.8465
2.84652
2.84655
2.84658
2.84662
2.84667
2.84674
2.84684
2.847
2.91195
2.91179
2.91169
2.91163
2.91157
2.91153
2.9115
2.91147
2.91145
2.91143
2.91142
2.91141
2.9114
2.91139
2.91138
2.91137
2.91137
2.91136
2.91136
2.91135
2.91135
2.91135
2.91134
2.91134
2.91134
2.91134
2.91134
2.91134
2.91134
2.91134
2.91134
2.91134
2.91134
2.91134
2.91134
2.91134
2.91134
2.91134
2.91135
2.91135
2.91135
2.91136
2.91136
2.91137
2.91137
2.91138
2.91139
2.9114
2.91141
2.91142
2.91143
2.91145
2.91147
2.9115
2.91153
2.91157
2.91163
2.91169
2.91179
2.91195
2.97571
2.97556
2.97546
2.97539
2.97534
2.97529
2.97526
2.97524
2.97521
2.9752
2.97518
2.97517
2.97516
2.97515
2.97514
2.97513
2.97513
2.97512
2.97512
2.97511
2.97511
2.97511
2.9751
2.9751
2.9751
2.9751
2.9751
2.9751
2.9751
2.9751
2.9751
2.9751
2.9751
2.9751
2.9751
2.9751
2.9751
2.9751
2.97511
2.97511
2.97511
2.97512
2.97512
2.97513
2.97513
2.97514
2.97515
2.97516
2.97517
2.97518
2.9752
2.97521
2.97524
2.97526
2.97529
2.97534
2.97539
2.97546
2.97556
2.97571
3.03857
3.03842
3.03832
3.03825
3.0382
3.03816
3.03812
3.0381
3.03807
3.03806
3.03804
3.03803
3.03802
3.03801
3.038
3.03799
3.03799
3.03798
3.03798
3.03797
3.03797
3.03797
3.03796
3.03796
3.03796
3.03796
3.03796
3.03796
3.03796
3.03796
3.03796
3.03796
3.03796
3.03796
3.03796
3.03796
3.03796
3.03796
3.03797
3.03797
3.03797
3.03798
3.03798
3.03799
3.03799
3.038
3.03801
3.03802
3.03803
3.03804
3.03806
3.03807
3.0381
3.03812
3.03816
3.0382
3.03825
3.03832
3.03842
3.03857
3.10078
3.10063
3.10053
3.10046
3.10041
3.10036
3.10033
3.1003
3.10028
3.10026
3.10025
3.10023
3.10022
3.10021
3.10021
3.1002
3.10019
3.10019
3.10018
3.10018
3.10017
3.10017
3.10017
3.10017
3.10017
3.10016
3.10016
3.10016
3.10016
3.10016
3.10016
3.10016
3.10016
3.10016
3.10016
3.10017
3.10017
3.10017
3.10017
3.10017
3.10018
3.10018
3.10019
3.10019
3.1002
3.10021
3.10021
3.10022
3.10023
3.10025
3.10026
3.10028
3.1003
3.10033
3.10036
3.10041
3.10046
3.10053
3.10063
3.10078
3.16254
3.16239
3.1623
3.16223
3.16217
3.16213
3.1621
3.16207
3.16205
3.16203
3.16201
3.162
3.16199
3.16198
3.16197
3.16196
3.16196
3.16195
3.16195
3.16194
3.16194
3.16194
3.16193
3.16193
3.16193
3.16193
3.16193
3.16193
3.16193
3.16193
3.16193
3.16193
3.16193
3.16193
3.16193
3.16193
3.16193
3.16193
3.16194
3.16194
3.16194
3.16195
3.16195
3.16196
3.16196
3.16197
3.16198
3.16199
3.162
3.16201
3.16203
3.16205
3.16207
3.1621
3.16213
3.16217
3.16223
3.1623
3.16239
3.16254
3.22405
3.22391
3.22381
3.22374
3.22369
3.22364
3.22361
3.22358
3.22356
3.22354
3.22353
3.22351
3.2235
3.22349
3.22348
3.22348
3.22347
3.22346
3.22346
3.22346
3.22345
3.22345
3.22345
3.22344
3.22344
3.22344
3.22344
3.22344
3.22344
3.22344
3.22344
3.22344
3.22344
3.22344
3.22344
3.22344
3.22344
3.22345
3.22345
3.22345
3.22346
3.22346
3.22346
3.22347
3.22348
3.22348
3.22349
3.2235
3.22351
3.22353
3.22354
3.22356
3.22358
3.22361
3.22364
3.22369
3.22374
3.22381
3.22391
3.22405
3.28548
3.28534
3.28524
3.28517
3.28512
3.28507
3.28504
3.28501
3.28499
3.28497
3.28495
3.28494
3.28493
3.28492
3.28491
3.2849
3.2849
3.28489
3.28489
3.28488
3.28488
3.28488
3.28487
3.28487
3.28487
3.28487
3.28487
3.28487
3.28487
3.28487
3.28487
3.28487
3.28487
3.28487
3.28487
3.28487
3.28487
3.28487
3.28488
3.28488
3.28488
3.28489
3.28489
3.2849
3.2849
3.28491
3.28492
3.28493
3.28494
3.28495
3.28497
3.28499
3.28501
3.28504
3.28507
3.28512
3.28517
3.28524
3.28534
3.28548
3.34697
3.34683
3.34674
3.34666
3.34661
3.34657
3.34653
3.34651
3.34648
3.34646
3.34645
3.34643
3.34642
3.34641
3.34641
3.3464
3.34639
3.34639
3.34638
3.34638
3.34637
3.34637
3.34637
3.34637
3.34636
3.34636
3.34636
3.34636
3.34636
3.34636
3.34636
3.34636
3.34636
3.34636
3.34636
3.34636
3.34637
3.34637
3.34637
3.34637
3.34638
3.34638
3.34639
3.34639
3.3464
3.34641
3.34641
3.34642
3.34643
3.34645
3.34646
3.34648
3.34651
3.34653
3.34657
3.34661
3.34666
3.34674
3.34683
3.34697
3.40867
3.40853
3.40843
3.40836
3.40831
3.40827
3.40823
3.40821
3.40818
3.40816
3.40815
3.40813
3.40812
3.40811
3.4081
3.4081
3.40809
3.40808
3.40808
3.40808
3.40807
3.40807
3.40807
3.40806
3.40806
3.40806
3.40806
3.40806
3.40806
3.40806
3.40806
3.40806
3.40806
3.40806
3.40806
3.40806
3.40806
3.40807
3.40807
3.40807
3.40808
3.40808
3.40808
3.40809
3.4081
3.4081
3.40811
3.40812
3.40813
3.40815
3.40816
3.40818
3.40821
3.40823
3.40827
3.40831
3.40836
3.40843
3.40853
3.40867
3.47069
3.47056
3.47047
3.4704
3.47034
3.4703
3.47027
3.47024
3.47021
3.47019
3.47018
3.47016
3.47015
3.47014
3.47013
3.47013
3.47012
3.47012
3.47011
3.47011
3.4701
3.4701
3.4701
3.47009
3.47009
3.47009
3.47009
3.47009
3.47009
3.47009
3.47009
3.47009
3.47009
3.47009
3.47009
3.47009
3.47009
3.4701
3.4701
3.4701
3.47011
3.47011
3.47012
3.47012
3.47013
3.47013
3.47014
3.47015
3.47016
3.47018
3.47019
3.47021
3.47024
3.47027
3.4703
3.47034
3.4704
3.47047
3.47056
3.47069
3.53317
3.53305
3.53295
3.53288
3.53283
3.53278
3.53275
3.53272
3.5327
3.53268
3.53266
3.53265
3.53264
3.53263
3.53262
3.53261
3.5326
3.5326
3.53259
3.53259
3.53258
3.53258
3.53258
3.53258
3.53257
3.53257
3.53257
3.53257
3.53257
3.53257
3.53257
3.53257
3.53257
3.53257
3.53257
3.53257
3.53258
3.53258
3.53258
3.53258
3.53259
3.53259
3.5326
3.5326
3.53261
3.53262
3.53263
3.53264
3.53265
3.53266
3.53268
3.5327
3.53272
3.53275
3.53278
3.53283
3.53288
3.53295
3.53305
3.53317
3.59622
3.59609
3.596
3.59593
3.59587
3.59583
3.59579
3.59577
3.59574
3.59572
3.59571
3.59569
3.59568
3.59567
3.59566
3.59565
3.59565
3.59564
3.59564
3.59563
3.59563
3.59563
3.59562
3.59562
3.59562
3.59562
3.59562
3.59562
3.59562
3.59562
3.59562
3.59562
3.59562
3.59562
3.59562
3.59562
3.59562
3.59562
3.59563
3.59563
3.59563
3.59564
3.59564
3.59565
3.59565
3.59566
3.59567
3.59568
3.59569
3.59571
3.59572
3.59574
3.59577
3.59579
3.59583
3.59587
3.59593
3.596
3.59609
3.59622
3.65993
3.65981
3.65971
3.65964
3.65959
3.65954
3.65951
3.65948
3.65946
3.65944
3.65942
3.65941
3.6594
3.65939
3.65938
3.65937
3.65936
3.65936
3.65935
3.65935
3.65934
3.65934
3.65934
3.65934
3.65933
3.65933
3.65933
3.65933
3.65933
3.65933
3.65933
3.65933
3.65933
3.65933
3.65933
3.65933
3.65934
3.65934
3.65934
3.65934
3.65935
3.65935
3.65936
3.65936
3.65937
3.65938
3.65939
3.6594
3.65941
3.65942
3.65944
3.65946
3.65948
3.65951
3.65954
3.65959
3.65964
3.65971
3.65981
3.65993
3.72441
3.72429
3.7242
3.72413
3.72407
3.72403
3.724
3.72397
3.72394
3.72392
3.72391
3.72389
3.72388
3.72387
3.72386
3.72386
3.72385
3.72384
3.72384
3.72383
3.72383
3.72383
3.72383
3.72382
3.72382
3.72382
3.72382
3.72382
3.72382
3.72382
3.72382
3.72382
3.72382
3.72382
3.72382
3.72382
3.72382
3.72383
3.72383
3.72383
3.72383
3.72384
3.72384
3.72385
3.72386
3.72386
3.72387
3.72388
3.72389
3.72391
3.72392
3.72394
3.72397
3.724
3.72403
3.72407
3.72413
3.7242
3.72429
3.72441
3.78976
3.78965
3.78956
3.78949
3.78943
3.78939
3.78935
3.78932
3.7893
3.78928
3.78926
3.78925
3.78924
3.78923
3.78922
3.78921
3.78921
3.7892
3.78919
3.78919
3.78919
3.78918
3.78918
3.78918
3.78918
3.78918
3.78917
3.78917
3.78917
3.78917
3.78917
3.78917
3.78917
3.78917
3.78918
3.78918
3.78918
3.78918
3.78918
3.78919
3.78919
3.78919
3.7892
3.78921
3.78921
3.78922
3.78923
3.78924
3.78925
3.78926
3.78928
3.7893
3.78932
3.78935
3.78939
3.78943
3.78949
3.78956
3.78965
3.78976
3.85608
3.85597
3.85588
3.85581
3.85575
3.85571
3.85567
3.85565
3.85562
3.8556
3.85559
3.85557
3.85556
3.85555
3.85554
3.85553
3.85553
3.85552
3.85552
3.85551
3.85551
3.8555
3.8555
3.8555
3.8555
3.8555
3.85549
3.85549
3.85549
3.85549
3.85549
3.85549
3.85549
3.85549
3.8555
3.8555
3.8555
3.8555
3.8555
3.85551
3.85551
3.85552
3.85552
3.85553
3.85553
3.85554
3.85555
3.85556
3.85557
3.85559
3.8556
3.85562
3.85565
3.85567
3.85571
3.85575
3.85581
3.85588
3.85597
3.85608
3.92345
3.92335
3.92325
3.92318
3.92313
3.92309
3.92305
3.92302
3.923
3.92298
3.92296
3.92295
3.92294
3.92293
3.92292
3.92291
3.9229
3.9229
3.92289
3.92289
3.92288
3.92288
3.92288
3.92288
3.92287
3.92287
3.92287
3.92287
3.92287
3.92287
3.92287
3.92287
3.92287
3.92287
3.92287
3.92287
3.92288
3.92288
3.92288
3.92288
3.92289
3.92289
3.9229
3.9229
3.92291
3.92292
3.92293
3.92294
3.92295
3.92296
3.92298
3.923
3.92302
3.92305
3.92309
3.92313
3.92318
3.92325
3.92335
3.92345
3.99197
3.99187
3.99178
3.99171
3.99166
3.99161
3.99158
3.99155
3.99153
3.99151
3.99149
3.99147
3.99146
3.99145
3.99144
3.99143
3.99143
3.99142
3.99142
3.99141
3.99141
3.99141
3.9914
3.9914
3.9914
3.9914
3.9914
3.9914
3.99139
3.99139
3.99139
3.99139
3.9914
3.9914
3.9914
3.9914
3.9914
3.9914
3.99141
3.99141
3.99141
3.99142
3.99142
3.99143
3.99143
3.99144
3.99145
3.99146
3.99147
3.99149
3.99151
3.99153
3.99155
3.99158
3.99161
3.99166
3.99171
3.99178
3.99187
3.99197
4.06173
4.06163
4.06154
4.06147
4.06142
4.06138
4.06134
4.06131
4.06129
4.06127
4.06125
4.06124
4.06122
4.06121
4.0612
4.0612
4.06119
4.06118
4.06118
4.06118
4.06117
4.06117
4.06117
4.06116
4.06116
4.06116
4.06116
4.06116
4.06116
4.06116
4.06116
4.06116
4.06116
4.06116
4.06116
4.06116
4.06116
4.06117
4.06117
4.06117
4.06118
4.06118
4.06118
4.06119
4.0612
4.0612
4.06121
4.06122
4.06124
4.06125
4.06127
4.06129
4.06131
4.06134
4.06138
4.06142
4.06147
4.06154
4.06163
4.06173
4.13281
4.13272
4.13263
4.13256
4.13251
4.13246
4.13243
4.1324
4.13238
4.13236
4.13234
4.13232
4.13231
4.1323
4.13229
4.13228
4.13228
4.13227
4.13227
4.13226
4.13226
4.13226
4.13225
4.13225
4.13225
4.13225
4.13225
4.13224
4.13224
4.13224
4.13224
4.13224
4.13224
4.13225
4.13225
4.13225
4.13225
4.13225
4.13226
4.13226
4.13226
4.13227
4.13227
4.13228
4.13228
4.13229
4.1323
4.13231
4.13232
4.13234
4.13236
4.13238
4.1324
4.13243
4.13246
4.13251
4.13256
4.13263
4.13272
4.13281
4.20531
4.20522
4.20513
4.20506
4.20501
4.20496
4.20493
4.2049
4.20488
4.20486
4.20484
4.20483
4.20481
4.2048
4.20479
4.20479
4.20478
4.20477
4.20477
4.20476
4.20476
4.20476
4.20475
4.20475
4.20475
4.20475
4.20475
4.20475
4.20474
4.20474
4.20474
4.20474
4.20475
4.20475
4.20475
4.20475
4.20475
4.20475
4.20476
4.20476
4.20476
4.20477
4.20477
4.20478
4.20479
4.20479
4.2048
4.20481
4.20483
4.20484
4.20486
4.20488
4.2049
4.20493
4.20496
4.20501
4.20506
4.20513
4.20522
4.20531
4.27931
4.27921
4.27913
4.27906
4.27901
4.27897
4.27893
4.2789
4.27888
4.27886
4.27884
4.27883
4.27881
4.2788
4.27879
4.27879
4.27878
4.27877
4.27877
4.27876
4.27876
4.27876
4.27875
4.27875
4.27875
4.27875
4.27875
4.27875
4.27875
4.27875
4.27875
4.27875
4.27875
4.27875
4.27875
4.27875
4.27875
4.27875
4.27876
4.27876
4.27876
4.27877
4.27877
4.27878
4.27879
4.27879
4.2788
4.27881
4.27883
4.27884
4.27886
4.27888
4.2789
4.27893
4.27897
4.27901
4.27906
4.27913
4.27921
4.27931
4.35489
4.3548
4.35472
4.35465
4.3546
4.35456
4.35452
4.35449
4.35447
4.35445
4.35443
4.35442
4.3544
4.35439
4.35438
4.35438
4.35437
4.35436
4.35436
4.35435
4.35435
4.35435
4.35434
4.35434
4.35434
4.35434
4.35434
4.35434
4.35433
4.35433
4.35433
4.35433
4.35434
4.35434
4.35434
4.35434
4.35434
4.35434
4.35435
4.35435
4.35435
4.35436
4.35436
4.35437
4.35438
4.35438
4.35439
4.3544
4.35442
4.35443
4.35445
4.35447
4.35449
4.35452
4.35456
4.3546
4.35465
4.35472
4.3548
4.35489
4.43215
4.43206
4.43198
4.43191
4.43186
4.43182
4.43178
4.43176
4.43173
4.43171
4.43169
4.43168
4.43167
4.43166
4.43165
4.43164
4.43163
4.43163
4.43162
4.43162
4.43161
4.43161
4.43161
4.4316
4.4316
4.4316
4.4316
4.4316
4.4316
4.4316
4.4316
4.4316
4.4316
4.4316
4.4316
4.4316
4.4316
4.43161
4.43161
4.43161
4.43162
4.43162
4.43163
4.43163
4.43164
4.43165
4.43166
4.43167
4.43168
4.43169
4.43171
4.43173
4.43176
4.43178
4.43182
4.43186
4.43191
4.43198
4.43206
4.43215
4.51117
4.51109
4.51101
4.51094
4.51089
4.51085
4.51081
4.51078
4.51076
4.51074
4.51072
4.51071
4.51069
4.51068
4.51067
4.51067
4.51066
4.51065
4.51065
4.51064
4.51064
4.51064
4.51063
4.51063
4.51063
4.51063
4.51063
4.51063
4.51062
4.51062
4.51062
4.51062
4.51063
4.51063
4.51063
4.51063
4.51063
4.51063
4.51064
4.51064
4.51064
4.51065
4.51065
4.51066
4.51067
4.51067
4.51068
4.51069
4.51071
4.51072
4.51074
4.51076
4.51078
4.51081
4.51085
4.51089
4.51094
4.51101
4.51109
4.51117
4.59204
4.59196
4.59188
4.59182
4.59177
4.59172
4.59169
4.59166
4.59164
4.59162
4.5916
4.59158
4.59157
4.59156
4.59155
4.59154
4.59154
4.59153
4.59152
4.59152
4.59152
4.59151
4.59151
4.59151
4.59151
4.5915
4.5915
4.5915
4.5915
4.5915
4.5915
4.5915
4.5915
4.5915
4.5915
4.59151
4.59151
4.59151
4.59151
4.59152
4.59152
4.59152
4.59153
4.59154
4.59154
4.59155
4.59156
4.59157
4.59158
4.5916
4.59162
4.59164
4.59166
4.59169
4.59172
4.59177
4.59182
4.59188
4.59196
4.59204
4.67485
4.67477
4.6747
4.67463
4.67458
4.67454
4.67451
4.67448
4.67445
4.67443
4.67441
4.6744
4.67439
4.67438
4.67437
4.67436
4.67435
4.67435
4.67434
4.67434
4.67433
4.67433
4.67433
4.67432
4.67432
4.67432
4.67432
4.67432
4.67432
4.67432
4.67432
4.67432
4.67432
4.67432
4.67432
4.67432
4.67432
4.67433
4.67433
4.67433
4.67434
4.67434
4.67435
4.67435
4.67436
4.67437
4.67438
4.67439
4.6744
4.67441
4.67443
4.67445
4.67448
4.67451
4.67454
4.67458
4.67463
4.6747
4.67477
4.67485
4.75969
4.75962
4.75954
4.75948
4.75943
4.75939
4.75935
4.75932
4.7593
4.75928
4.75926
4.75925
4.75923
4.75922
4.75921
4.75921
4.7592
4.75919
4.75919
4.75918
4.75918
4.75918
4.75917
4.75917
4.75917
4.75917
4.75917
4.75917
4.75916
4.75916
4.75916
4.75916
4.75917
4.75917
4.75917
4.75917
4.75917
4.75917
4.75918
4.75918
4.75918
4.75919
4.75919
4.7592
4.75921
4.75921
4.75922
4.75923
4.75925
4.75926
4.75928
4.7593
4.75932
4.75935
4.75939
4.75943
4.75948
4.75954
4.75962
4.75969
4.84665
4.84658
4.84651
4.84644
4.84639
4.84635
4.84632
4.84629
4.84626
4.84624
4.84623
4.84621
4.8462
4.84619
4.84618
4.84617
4.84617
4.84616
4.84615
4.84615
4.84615
4.84614
4.84614
4.84614
4.84613
4.84613
4.84613
4.84613
4.84613
4.84613
4.84613
4.84613
4.84613
4.84613
4.84613
4.84613
4.84614
4.84614
4.84614
4.84615
4.84615
4.84615
4.84616
4.84617
4.84617
4.84618
4.84619
4.8462
4.84621
4.84623
4.84624
4.84626
4.84629
4.84632
4.84635
4.84639
4.84644
4.84651
4.84658
4.84665
4.93582
4.93575
4.93568
4.93562
4.93557
4.93553
4.9355
4.93547
4.93544
4.93542
4.93541
4.93539
4.93538
4.93537
4.93536
4.93535
4.93534
4.93534
4.93533
4.93533
4.93532
4.93532
4.93532
4.93531
4.93531
4.93531
4.93531
4.93531
4.93531
4.93531
4.93531
4.93531
4.93531
4.93531
4.93531
4.93531
4.93531
4.93532
4.93532
4.93532
4.93533
4.93533
4.93534
4.93534
4.93535
4.93536
4.93537
4.93538
4.93539
4.93541
4.93542
4.93544
4.93547
4.9355
4.93553
4.93557
4.93562
4.93568
4.93575
4.93582
5.02729
5.02723
5.02716
5.0271
5.02705
5.02701
5.02698
5.02695
5.02693
5.0269
5.02689
5.02687
5.02686
5.02685
5.02684
5.02683
5.02683
5.02682
5.02681
5.02681
5.02681
5.0268
5.0268
5.0268
5.02679
5.02679
5.02679
5.02679
5.02679
5.02679
5.02679
5.02679
5.02679
5.02679
5.02679
5.02679
5.0268
5.0268
5.0268
5.02681
5.02681
5.02681
5.02682
5.02683
5.02683
5.02684
5.02685
5.02686
5.02687
5.02689
5.0269
5.02693
5.02695
5.02698
5.02701
5.02705
5.0271
5.02716
5.02723
5.02729
5.12117
5.12111
5.12104
5.12098
5.12093
5.12089
5.12086
5.12083
5.12081
5.12079
5.12077
5.12075
5.12074
5.12073
5.12072
5.12071
5.12071
5.1207
5.1207
5.12069
5.12069
5.12068
5.12068
5.12068
5.12068
5.12067
5.12067
5.12067
5.12067
5.12067
5.12067
5.12067
5.12067
5.12067
5.12067
5.12068
5.12068
5.12068
5.12068
5.12069
5.12069
5.1207
5.1207
5.12071
5.12071
5.12072
5.12073
5.12074
5.12075
5.12077
5.12079
5.12081
5.12083
5.12086
5.12089
5.12093
5.12098
5.12104
5.12111
5.12117
5.21754
5.21748
5.21741
5.21736
5.21731
5.21727
5.21723
5.21721
5.21718
5.21716
5.21715
5.21713
5.21712
5.21711
5.2171
5.21709
5.21708
5.21708
5.21707
5.21707
5.21706
5.21706
5.21706
5.21705
5.21705
5.21705
5.21705
5.21705
5.21705
5.21705
5.21705
5.21705
5.21705
5.21705
5.21705
5.21705
5.21705
5.21706
5.21706
5.21706
5.21707
5.21707
5.21708
5.21708
5.21709
5.2171
5.21711
5.21712
5.21713
5.21715
5.21716
5.21718
5.21721
5.21723
5.21727
5.21731
5.21736
5.21741
5.21748
5.21754
5.3165
5.31644
5.31638
5.31632
5.31628
5.31624
5.3162
5.31617
5.31615
5.31613
5.31611
5.3161
5.31609
5.31608
5.31607
5.31606
5.31605
5.31604
5.31604
5.31604
5.31603
5.31603
5.31602
5.31602
5.31602
5.31602
5.31602
5.31602
5.31602
5.31602
5.31602
5.31602
5.31602
5.31602
5.31602
5.31602
5.31602
5.31602
5.31603
5.31603
5.31604
5.31604
5.31604
5.31605
5.31606
5.31607
5.31608
5.31609
5.3161
5.31611
5.31613
5.31615
5.31617
5.3162
5.31624
5.31628
5.31632
5.31638
5.31644
5.3165
5.41815
5.4181
5.41804
5.41798
5.41793
5.41789
5.41786
5.41783
5.41781
5.41779
5.41777
5.41776
5.41775
5.41773
5.41773
5.41772
5.41771
5.4177
5.4177
5.41769
5.41769
5.41769
5.41768
5.41768
5.41768
5.41768
5.41768
5.41768
5.41768
5.41768
5.41768
5.41768
5.41768
5.41768
5.41768
5.41768
5.41768
5.41768
5.41769
5.41769
5.41769
5.4177
5.4177
5.41771
5.41772
5.41773
5.41773
5.41775
5.41776
5.41777
5.41779
5.41781
5.41783
5.41786
5.41789
5.41793
5.41798
5.41804
5.4181
5.41815
5.52259
5.52254
5.52248
5.52243
5.52238
5.52234
5.52231
5.52228
5.52226
5.52224
5.52222
5.52221
5.5222
5.52219
5.52218
5.52217
5.52216
5.52216
5.52215
5.52215
5.52214
5.52214
5.52214
5.52213
5.52213
5.52213
5.52213
5.52213
5.52213
5.52213
5.52213
5.52213
5.52213
5.52213
5.52213
5.52213
5.52213
5.52214
5.52214
5.52214
5.52215
5.52215
5.52216
5.52216
5.52217
5.52218
5.52219
5.5222
5.52221
5.52222
5.52224
5.52226
5.52228
5.52231
5.52234
5.52238
5.52243
5.52248
5.52254
5.52259
5.62993
5.62988
5.62983
5.62977
5.62973
5.62969
5.62966
5.62963
5.62961
5.62959
5.62957
5.62956
5.62954
5.62953
5.62952
5.62951
5.62951
5.6295
5.6295
5.62949
5.62949
5.62948
5.62948
5.62948
5.62948
5.62948
5.62947
5.62947
5.62947
5.62947
5.62947
5.62947
5.62947
5.62947
5.62948
5.62948
5.62948
5.62948
5.62948
5.62949
5.62949
5.6295
5.6295
5.62951
5.62951
5.62952
5.62953
5.62954
5.62956
5.62957
5.62959
5.62961
5.62963
5.62966
5.62969
5.62973
5.62977
5.62983
5.62988
5.62993
5.74027
5.74022
5.74017
5.74012
5.74007
5.74003
5.74
5.73998
5.73995
5.73993
5.73992
5.7399
5.73989
5.73988
5.73987
5.73986
5.73985
5.73985
5.73984
5.73984
5.73983
5.73983
5.73983
5.73983
5.73982
5.73982
5.73982
5.73982
5.73982
5.73982
5.73982
5.73982
5.73982
5.73982
5.73982
5.73982
5.73983
5.73983
5.73983
5.73983
5.73984
5.73984
5.73985
5.73985
5.73986
5.73987
5.73988
5.73989
5.7399
5.73992
5.73993
5.73995
5.73998
5.74
5.74003
5.74007
5.74012
5.74017
5.74022
5.74027
5.85371
5.85367
5.85361
5.85357
5.85352
5.85349
5.85345
5.85343
5.8534
5.85338
5.85337
5.85335
5.85334
5.85333
5.85332
5.85331
5.85331
5.8533
5.85329
5.85329
5.85329
5.85328
5.85328
5.85328
5.85328
5.85327
5.85327
5.85327
5.85327
5.85327
5.85327
5.85327
5.85327
5.85327
5.85327
5.85328
5.85328
5.85328
5.85328
5.85329
5.85329
5.85329
5.8533
5.85331
5.85331
5.85332
5.85333
5.85334
5.85335
5.85337
5.85338
5.8534
5.85343
5.85345
5.85349
5.85352
5.85357
5.85361
5.85367
5.85371
5.97037
5.97033
5.97028
5.97023
5.97019
5.97015
5.97012
5.97009
5.97007
5.97005
5.97003
5.97002
5.97001
5.97
5.96999
5.96998
5.96997
5.96997
5.96996
5.96996
5.96995
5.96995
5.96995
5.96994
5.96994
5.96994
5.96994
5.96994
5.96994
5.96994
5.96994
5.96994
5.96994
5.96994
5.96994
5.96994
5.96994
5.96995
5.96995
5.96995
5.96996
5.96996
5.96997
5.96997
5.96998
5.96999
5.97
5.97001
5.97002
5.97003
5.97005
5.97007
5.97009
5.97012
5.97015
5.97019
5.97023
5.97028
5.97033
5.97037
6.09035
6.09031
6.09027
6.09022
6.09018
6.09014
6.09011
6.09009
6.09006
6.09004
6.09003
6.09001
6.09
6.08999
6.08998
6.08997
6.08997
6.08996
6.08996
6.08995
6.08995
6.08994
6.08994
6.08994
6.08994
6.08993
6.08993
6.08993
6.08993
6.08993
6.08993
6.08993
6.08993
6.08993
6.08993
6.08994
6.08994
6.08994
6.08994
6.08995
6.08995
6.08996
6.08996
6.08997
6.08997
6.08998
6.08999
6.09
6.09001
6.09003
6.09004
6.09006
6.09009
6.09011
6.09014
6.09018
6.09022
6.09027
6.09031
6.09035
6.21378
6.21374
6.2137
6.21365
6.21361
6.21358
6.21355
6.21352
6.2135
6.21348
6.21346
6.21345
6.21344
6.21342
6.21342
6.21341
6.2134
6.21339
6.21339
6.21338
6.21338
6.21338
6.21337
6.21337
6.21337
6.21337
6.21337
6.21337
6.21337
6.21337
6.21337
6.21337
6.21337
6.21337
6.21337
6.21337
6.21337
6.21337
6.21338
6.21338
6.21338
6.21339
6.21339
6.2134
6.21341
6.21342
6.21342
6.21344
6.21345
6.21346
6.21348
6.2135
6.21352
6.21355
6.21358
6.21361
6.21365
6.2137
6.21374
6.21378
6.34076
6.34073
6.34068
6.34064
6.3406
6.34056
6.34054
6.34051
6.34049
6.34047
6.34045
6.34044
6.34043
6.34042
6.34041
6.3404
6.34039
6.34039
6.34038
6.34038
6.34037
6.34037
6.34037
6.34036
6.34036
6.34036
6.34036
6.34036
6.34036
6.34036
6.34036
6.34036
6.34036
6.34036
6.34036
6.34036
6.34036
6.34037
6.34037
6.34037
6.34038
6.34038
6.34039
6.34039
6.3404
6.34041
6.34042
6.34043
6.34044
6.34045
6.34047
6.34049
6.34051
6.34054
6.34056
6.3406
6.34064
6.34068
6.34073
6.34076
6.47142
6.47138
6.47134
6.4713
6.47126
6.47123
6.4712
6.47118
6.47115
6.47113
6.47112
6.4711
6.47109
6.47108
6.47107
6.47106
6.47106
6.47105
6.47105
6.47104
6.47104
6.47104
6.47103
6.47103
6.47103
6.47103
6.47103
6.47102
6.47102
6.47102
6.47102
6.47102
6.47102
6.47103
6.47103
6.47103
6.47103
6.47103
6.47104
6.47104
6.47104
6.47105
6.47105
6.47106
6.47106
6.47107
6.47108
6.47109
6.4711
6.47112
6.47113
6.47115
6.47118
6.4712
6.47123
6.47126
6.4713
6.47134
6.47138
6.47142
6.60587
6.60584
6.6058
6.60576
6.60572
6.60569
6.60566
6.60564
6.60562
6.6056
6.60558
6.60557
6.60556
6.60555
6.60554