/*--------------------------------*- C++ -*----------------------------------*\
| =========                 |                                                 |
| \\      /  F ield         | foam-extend: Open Source CFD                    |
|  \\    /   O peration     | Version:     4.0                                |
|   \\  /    A nd           | Web:         http://www.foam-extend.org         |
|    \\/     M anipulation  |                                                 |
\*---------------------------------------------------------------------------*/
FoamFile
{
    version     2.0;
    format      ascii;
    class       volScalarField;
    location    "230";
    object      cMinus;
}
// * * * * * * * * * * * * * * * * * * * * * * * * * * * * * * * * * * * * * //

dimensions      [0 0 0 0 0 0 0];

internalField   nonuniform List<scalar> 
6960
(
3.20341e-06
3.20789e-06
3.20902e-06
3.20978e-06
3.21043e-06
3.21101e-06
3.21154e-06
3.21203e-06
3.21247e-06
3.21289e-06
3.21328e-06
3.21364e-06
3.21398e-06
3.2143e-06
3.21459e-06
3.21487e-06
3.21513e-06
3.21537e-06
3.21559e-06
3.21579e-06
3.21597e-06
3.21613e-06
3.21628e-06
3.21641e-06
3.21651e-06
3.21661e-06
3.21668e-06
3.21673e-06
3.21677e-06
3.21679e-06
3.21679e-06
3.21677e-06
3.21673e-06
3.21668e-06
3.21661e-06
3.21651e-06
3.21641e-06
3.21628e-06
3.21613e-06
3.21597e-06
3.21579e-06
3.21559e-06
3.21537e-06
3.21513e-06
3.21487e-06
3.21459e-06
3.2143e-06
3.21398e-06
3.21364e-06
3.21328e-06
3.21289e-06
3.21247e-06
3.21203e-06
3.21154e-06
3.21101e-06
3.21043e-06
3.20978e-06
3.20902e-06
3.20789e-06
3.20341e-06
2.07748e-05
2.08095e-05
2.08179e-05
2.08229e-05
2.08269e-05
2.08304e-05
2.08336e-05
2.08366e-05
2.08393e-05
2.08419e-05
2.08442e-05
2.08464e-05
2.08485e-05
2.08504e-05
2.08522e-05
2.08539e-05
2.08555e-05
2.0857e-05
2.08583e-05
2.08595e-05
2.08606e-05
2.08616e-05
2.08625e-05
2.08633e-05
2.0864e-05
2.08645e-05
2.0865e-05
2.08653e-05
2.08655e-05
2.08656e-05
2.08656e-05
2.08655e-05
2.08653e-05
2.0865e-05
2.08645e-05
2.0864e-05
2.08633e-05
2.08625e-05
2.08616e-05
2.08606e-05
2.08595e-05
2.08583e-05
2.0857e-05
2.08555e-05
2.08539e-05
2.08522e-05
2.08504e-05
2.08485e-05
2.08464e-05
2.08442e-05
2.08419e-05
2.08393e-05
2.08366e-05
2.08336e-05
2.08304e-05
2.08269e-05
2.08229e-05
2.08179e-05
2.08095e-05
2.07748e-05
8.70113e-05
8.71754e-05
8.72146e-05
8.72349e-05
8.72506e-05
8.72644e-05
8.72768e-05
8.72882e-05
8.72987e-05
8.73084e-05
8.73175e-05
8.7326e-05
8.73339e-05
8.73413e-05
8.73483e-05
8.73548e-05
8.73608e-05
8.73664e-05
8.73716e-05
8.73763e-05
8.73805e-05
8.73844e-05
8.73878e-05
8.73908e-05
8.73933e-05
8.73955e-05
8.73972e-05
8.73985e-05
8.73993e-05
8.73997e-05
8.73997e-05
8.73993e-05
8.73985e-05
8.73972e-05
8.73955e-05
8.73933e-05
8.73908e-05
8.73878e-05
8.73844e-05
8.73805e-05
8.73763e-05
8.73716e-05
8.73664e-05
8.73608e-05
8.73548e-05
8.73483e-05
8.73413e-05
8.73339e-05
8.7326e-05
8.73175e-05
8.73084e-05
8.72987e-05
8.72882e-05
8.72768e-05
8.72644e-05
8.72506e-05
8.72349e-05
8.72146e-05
8.71754e-05
8.70113e-05
0.000313462
0.000314105
0.000314257
0.000314328
0.00031438
0.000314425
0.000314466
0.000314503
0.000314537
0.000314569
0.000314598
0.000314626
0.000314651
0.000314675
0.000314698
0.000314719
0.000314739
0.000314757
0.000314773
0.000314789
0.000314803
0.000314815
0.000314826
0.000314836
0.000314844
0.000314851
0.000314856
0.000314861
0.000314863
0.000314865
0.000314865
0.000314863
0.000314861
0.000314856
0.000314851
0.000314844
0.000314836
0.000314826
0.000314815
0.000314803
0.000314789
0.000314773
0.000314757
0.000314739
0.000314719
0.000314698
0.000314675
0.000314651
0.000314626
0.000314598
0.000314569
0.000314537
0.000314503
0.000314466
0.000314425
0.00031438
0.000314328
0.000314257
0.000314105
0.000313462
0.00101319
0.00101537
0.00101588
0.0010161
0.00101625
0.00101638
0.0010165
0.00101661
0.0010167
0.00101679
0.00101688
0.00101696
0.00101703
0.0010171
0.00101716
0.00101722
0.00101728
0.00101733
0.00101738
0.00101742
0.00101746
0.0010175
0.00101753
0.00101756
0.00101758
0.0010176
0.00101762
0.00101763
0.00101764
0.00101764
0.00101764
0.00101764
0.00101763
0.00101762
0.0010176
0.00101758
0.00101756
0.00101753
0.0010175
0.00101746
0.00101742
0.00101738
0.00101733
0.00101728
0.00101722
0.00101716
0.0010171
0.00101703
0.00101696
0.00101688
0.00101679
0.0010167
0.00101661
0.0010165
0.00101638
0.00101625
0.0010161
0.00101588
0.00101537
0.00101319
0.00294029
0.00294671
0.00294819
0.00294879
0.00294919
0.00294952
0.00294981
0.00295008
0.00295033
0.00295055
0.00295076
0.00295096
0.00295115
0.00295132
0.00295148
0.00295163
0.00295177
0.0029519
0.00295202
0.00295213
0.00295223
0.00295232
0.0029524
0.00295247
0.00295253
0.00295258
0.00295262
0.00295265
0.00295267
0.00295268
0.00295268
0.00295267
0.00295265
0.00295262
0.00295258
0.00295253
0.00295247
0.0029524
0.00295232
0.00295223
0.00295213
0.00295202
0.0029519
0.00295177
0.00295163
0.00295148
0.00295132
0.00295115
0.00295096
0.00295076
0.00295055
0.00295033
0.00295008
0.00294981
0.00294952
0.00294919
0.00294879
0.00294819
0.00294671
0.00294029
0.00759299
0.00760922
0.00761294
0.00761434
0.00761523
0.00761596
0.00761661
0.00761719
0.00761773
0.00761823
0.00761869
0.00761912
0.00761952
0.0076199
0.00762025
0.00762058
0.00762089
0.00762117
0.00762143
0.00762167
0.00762188
0.00762208
0.00762225
0.0076224
0.00762253
0.00762264
0.00762273
0.00762279
0.00762283
0.00762285
0.00762285
0.00762283
0.00762279
0.00762273
0.00762264
0.00762253
0.0076224
0.00762225
0.00762208
0.00762188
0.00762167
0.00762143
0.00762117
0.00762089
0.00762058
0.00762025
0.0076199
0.00761952
0.00761912
0.00761869
0.00761823
0.00761773
0.00761719
0.00761661
0.00761596
0.00761523
0.00761434
0.00761294
0.00760922
0.00759299
0.0172846
0.0173195
0.0173275
0.0173303
0.017332
0.0173334
0.0173346
0.0173357
0.0173367
0.0173377
0.0173385
0.0173393
0.0173401
0.0173408
0.0173414
0.0173421
0.0173426
0.0173431
0.0173436
0.0173441
0.0173445
0.0173448
0.0173452
0.0173454
0.0173457
0.0173459
0.017346
0.0173462
0.0173462
0.0173463
0.0173463
0.0173462
0.0173462
0.017346
0.0173459
0.0173457
0.0173454
0.0173452
0.0173448
0.0173445
0.0173441
0.0173436
0.0173431
0.0173426
0.0173421
0.0173414
0.0173408
0.0173401
0.0173393
0.0173385
0.0173377
0.0173367
0.0173357
0.0173346
0.0173334
0.017332
0.0173303
0.0173275
0.0173195
0.0172846
0.0345067
0.0345703
0.0345848
0.0345897
0.0345925
0.0345947
0.0345966
0.0345984
0.0346
0.0346014
0.0346028
0.0346041
0.0346053
0.0346064
0.0346074
0.0346084
0.0346093
0.0346101
0.0346109
0.0346116
0.0346122
0.0346128
0.0346133
0.0346137
0.0346141
0.0346144
0.0346147
0.0346149
0.034615
0.0346151
0.0346151
0.034615
0.0346149
0.0346147
0.0346144
0.0346141
0.0346137
0.0346133
0.0346128
0.0346122
0.0346116
0.0346109
0.0346101
0.0346093
0.0346084
0.0346074
0.0346064
0.0346053
0.0346041
0.0346028
0.0346014
0.0346
0.0345984
0.0345966
0.0345947
0.0345925
0.0345897
0.0345848
0.0345703
0.0345067
0.0605716
0.060671
0.0606936
0.0607008
0.0607047
0.0607078
0.0607104
0.0607128
0.0607149
0.0607169
0.0607187
0.0607204
0.0607221
0.0607235
0.0607249
0.0607263
0.0607275
0.0607286
0.0607296
0.0607306
0.0607314
0.0607322
0.0607329
0.0607335
0.060734
0.0607344
0.0607348
0.060735
0.0607352
0.0607353
0.0607353
0.0607352
0.060735
0.0607348
0.0607344
0.060734
0.0607335
0.0607329
0.0607322
0.0607314
0.0607306
0.0607296
0.0607286
0.0607275
0.0607263
0.0607249
0.0607235
0.0607221
0.0607204
0.0607187
0.0607169
0.0607149
0.0607128
0.0607104
0.0607078
0.0607047
0.0607008
0.0606936
0.060671
0.0605716
0.0945721
0.0947078
0.0947386
0.094748
0.0947528
0.0947564
0.0947595
0.0947623
0.0947649
0.0947672
0.0947693
0.0947713
0.0947732
0.094775
0.0947766
0.0947781
0.0947795
0.0947809
0.0947821
0.0947832
0.0947842
0.0947851
0.0947859
0.0947866
0.0947872
0.0947877
0.0947881
0.0947884
0.0947886
0.0947887
0.0947887
0.0947886
0.0947884
0.0947881
0.0947877
0.0947872
0.0947866
0.0947859
0.0947851
0.0947842
0.0947832
0.0947821
0.0947809
0.0947795
0.0947781
0.0947766
0.094775
0.0947732
0.0947713
0.0947693
0.0947672
0.0947649
0.0947623
0.0947595
0.0947564
0.0947528
0.094748
0.0947386
0.0947078
0.0945721
0.133786
0.133954
0.133992
0.134003
0.134008
0.134012
0.134015
0.134018
0.134021
0.134023
0.134026
0.134028
0.13403
0.134031
0.134033
0.134035
0.134036
0.134038
0.134039
0.13404
0.134041
0.134042
0.134043
0.134044
0.134044
0.134045
0.134045
0.134045
0.134046
0.134046
0.134046
0.134046
0.134045
0.134045
0.134045
0.134044
0.134044
0.134043
0.134042
0.134041
0.13404
0.134039
0.134038
0.134036
0.134035
0.134033
0.134031
0.13403
0.134028
0.134026
0.134023
0.134021
0.134018
0.134015
0.134012
0.134008
0.134003
0.133992
0.133954
0.133786
0.175165
0.175358
0.175402
0.175414
0.175419
0.175423
0.175427
0.175429
0.175432
0.175434
0.175437
0.175439
0.175441
0.175442
0.175444
0.175446
0.175447
0.175448
0.17545
0.175451
0.175452
0.175453
0.175453
0.175454
0.175455
0.175455
0.175456
0.175456
0.175456
0.175456
0.175456
0.175456
0.175456
0.175456
0.175455
0.175455
0.175454
0.175453
0.175453
0.175452
0.175451
0.17545
0.175448
0.175447
0.175446
0.175444
0.175442
0.175441
0.175439
0.175437
0.175434
0.175432
0.175429
0.175427
0.175423
0.175419
0.175414
0.175402
0.175358
0.175165
0.216517
0.21673
0.216779
0.216792
0.216798
0.216801
0.216804
0.216807
0.21681
0.216812
0.216814
0.216816
0.216818
0.216819
0.216821
0.216822
0.216824
0.216825
0.216826
0.216827
0.216828
0.216829
0.21683
0.21683
0.216831
0.216831
0.216832
0.216832
0.216832
0.216832
0.216832
0.216832
0.216832
0.216832
0.216831
0.216831
0.21683
0.21683
0.216829
0.216828
0.216827
0.216826
0.216825
0.216824
0.216822
0.216821
0.216819
0.216818
0.216816
0.216814
0.216812
0.21681
0.216807
0.216804
0.216801
0.216798
0.216792
0.216779
0.21673
0.216517
0.256742
0.256972
0.257026
0.25704
0.257045
0.257049
0.257052
0.257054
0.257056
0.257058
0.25706
0.257062
0.257064
0.257065
0.257067
0.257068
0.257069
0.25707
0.257071
0.257072
0.257073
0.257074
0.257075
0.257075
0.257076
0.257076
0.257077
0.257077
0.257077
0.257077
0.257077
0.257077
0.257077
0.257077
0.257076
0.257076
0.257075
0.257075
0.257074
0.257073
0.257072
0.257071
0.25707
0.257069
0.257068
0.257067
0.257065
0.257064
0.257062
0.25706
0.257058
0.257056
0.257054
0.257052
0.257049
0.257045
0.25704
0.257026
0.256972
0.256742
0.295481
0.295726
0.295784
0.295799
0.295804
0.295808
0.29581
0.295812
0.295815
0.295816
0.295818
0.29582
0.295821
0.295823
0.295824
0.295825
0.295826
0.295827
0.295828
0.295829
0.29583
0.295831
0.295831
0.295832
0.295832
0.295833
0.295833
0.295833
0.295833
0.295833
0.295833
0.295833
0.295833
0.295833
0.295833
0.295832
0.295832
0.295831
0.295831
0.29583
0.295829
0.295828
0.295827
0.295826
0.295825
0.295824
0.295823
0.295821
0.29582
0.295818
0.295816
0.295815
0.295812
0.29581
0.295808
0.295804
0.295799
0.295784
0.295726
0.295481
0.33271
0.332969
0.33303
0.333046
0.333052
0.333055
0.333057
0.333059
0.333061
0.333063
0.333064
0.333066
0.333067
0.333069
0.33307
0.333071
0.333072
0.333073
0.333074
0.333074
0.333075
0.333076
0.333076
0.333077
0.333077
0.333078
0.333078
0.333078
0.333078
0.333078
0.333078
0.333078
0.333078
0.333078
0.333078
0.333077
0.333077
0.333076
0.333076
0.333075
0.333074
0.333074
0.333073
0.333072
0.333071
0.33307
0.333069
0.333067
0.333066
0.333064
0.333063
0.333061
0.333059
0.333057
0.333055
0.333052
0.333046
0.33303
0.332969
0.33271
0.368502
0.368773
0.368839
0.368856
0.368861
0.368864
0.368867
0.368869
0.36887
0.368872
0.368873
0.368875
0.368876
0.368877
0.368878
0.368879
0.36888
0.368881
0.368882
0.368882
0.368883
0.368883
0.368884
0.368884
0.368885
0.368885
0.368885
0.368886
0.368886
0.368886
0.368886
0.368886
0.368886
0.368885
0.368885
0.368885
0.368884
0.368884
0.368883
0.368883
0.368882
0.368882
0.368881
0.36888
0.368879
0.368878
0.368877
0.368876
0.368875
0.368873
0.368872
0.36887
0.368869
0.368867
0.368864
0.368861
0.368856
0.368839
0.368773
0.368502
0.402934
0.403216
0.403286
0.403303
0.403309
0.403312
0.403314
0.403316
0.403317
0.403319
0.40332
0.403321
0.403322
0.403323
0.403324
0.403325
0.403326
0.403327
0.403327
0.403328
0.403329
0.403329
0.40333
0.40333
0.40333
0.403331
0.403331
0.403331
0.403331
0.403331
0.403331
0.403331
0.403331
0.403331
0.403331
0.40333
0.40333
0.40333
0.403329
0.403329
0.403328
0.403327
0.403327
0.403326
0.403325
0.403324
0.403323
0.403322
0.403321
0.40332
0.403319
0.403317
0.403316
0.403314
0.403312
0.403309
0.403303
0.403286
0.403216
0.402934
0.43606
0.436352
0.436426
0.436444
0.43645
0.436453
0.436454
0.436456
0.436458
0.436459
0.43646
0.436461
0.436462
0.436463
0.436464
0.436465
0.436465
0.436466
0.436467
0.436467
0.436468
0.436468
0.436469
0.436469
0.43647
0.43647
0.43647
0.43647
0.43647
0.43647
0.43647
0.43647
0.43647
0.43647
0.43647
0.43647
0.436469
0.436469
0.436468
0.436468
0.436467
0.436467
0.436466
0.436465
0.436465
0.436464
0.436463
0.436462
0.436461
0.43646
0.436459
0.436458
0.436456
0.436454
0.436453
0.43645
0.436444
0.436426
0.436352
0.43606
0.467919
0.46822
0.468297
0.468317
0.468323
0.468325
0.468327
0.468328
0.46833
0.468331
0.468332
0.468333
0.468334
0.468335
0.468336
0.468336
0.468337
0.468338
0.468338
0.468339
0.468339
0.46834
0.46834
0.46834
0.468341
0.468341
0.468341
0.468341
0.468341
0.468341
0.468341
0.468341
0.468341
0.468341
0.468341
0.468341
0.46834
0.46834
0.46834
0.468339
0.468339
0.468338
0.468338
0.468337
0.468336
0.468336
0.468335
0.468334
0.468333
0.468332
0.468331
0.46833
0.468328
0.468327
0.468325
0.468323
0.468317
0.468297
0.46822
0.467919
0.498539
0.498848
0.498929
0.498949
0.498955
0.498958
0.498959
0.498961
0.498962
0.498963
0.498964
0.498965
0.498966
0.498966
0.498967
0.498968
0.498968
0.498969
0.49897
0.49897
0.49897
0.498971
0.498971
0.498971
0.498972
0.498972
0.498972
0.498972
0.498972
0.498972
0.498972
0.498972
0.498972
0.498972
0.498972
0.498972
0.498971
0.498971
0.498971
0.49897
0.49897
0.49897
0.498969
0.498968
0.498968
0.498967
0.498966
0.498966
0.498965
0.498964
0.498963
0.498962
0.498961
0.498959
0.498958
0.498955
0.498949
0.498929
0.498848
0.498539
0.527943
0.528258
0.528342
0.528364
0.52837
0.528372
0.528374
0.528375
0.528376
0.528377
0.528378
0.528379
0.528379
0.52838
0.528381
0.528381
0.528382
0.528382
0.528383
0.528383
0.528384
0.528384
0.528384
0.528385
0.528385
0.528385
0.528385
0.528385
0.528385
0.528385
0.528385
0.528385
0.528385
0.528385
0.528385
0.528385
0.528385
0.528384
0.528384
0.528384
0.528383
0.528383
0.528382
0.528382
0.528381
0.528381
0.52838
0.528379
0.528379
0.528378
0.528377
0.528376
0.528375
0.528374
0.528372
0.52837
0.528364
0.528342
0.528258
0.527943
0.55615
0.556469
0.556557
0.556579
0.556586
0.556588
0.556589
0.556591
0.556592
0.556592
0.556593
0.556594
0.556595
0.556595
0.556596
0.556596
0.556597
0.556597
0.556598
0.556598
0.556599
0.556599
0.556599
0.556599
0.5566
0.5566
0.5566
0.5566
0.5566
0.5566
0.5566
0.5566
0.5566
0.5566
0.5566
0.5566
0.556599
0.556599
0.556599
0.556599
0.556598
0.556598
0.556597
0.556597
0.556596
0.556596
0.556595
0.556595
0.556594
0.556593
0.556592
0.556592
0.556591
0.556589
0.556588
0.556586
0.556579
0.556557
0.556469
0.55615
0.583177
0.583501
0.583592
0.583615
0.583621
0.583624
0.583625
0.583626
0.583627
0.583628
0.583628
0.583629
0.58363
0.58363
0.583631
0.583631
0.583632
0.583632
0.583633
0.583633
0.583633
0.583634
0.583634
0.583634
0.583634
0.583634
0.583634
0.583635
0.583635
0.583635
0.583635
0.583635
0.583635
0.583634
0.583634
0.583634
0.583634
0.583634
0.583634
0.583633
0.583633
0.583633
0.583632
0.583632
0.583631
0.583631
0.58363
0.58363
0.583629
0.583628
0.583628
0.583627
0.583626
0.583625
0.583624
0.583621
0.583615
0.583592
0.583501
0.583177
0.609044
0.60937
0.609464
0.609489
0.609495
0.609497
0.609499
0.6095
0.6095
0.609501
0.609502
0.609502
0.609503
0.609503
0.609504
0.609504
0.609505
0.609505
0.609506
0.609506
0.609506
0.609506
0.609507
0.609507
0.609507
0.609507
0.609507
0.609507
0.609507
0.609507
0.609507
0.609507
0.609507
0.609507
0.609507
0.609507
0.609507
0.609507
0.609506
0.609506
0.609506
0.609506
0.609505
0.609505
0.609504
0.609504
0.609503
0.609503
0.609502
0.609502
0.609501
0.6095
0.6095
0.609499
0.609497
0.609495
0.609489
0.609464
0.60937
0.609044
0.633769
0.634097
0.634193
0.634219
0.634226
0.634228
0.634229
0.63423
0.634231
0.634231
0.634232
0.634233
0.634233
0.634233
0.634234
0.634234
0.634235
0.634235
0.634235
0.634236
0.634236
0.634236
0.634236
0.634236
0.634237
0.634237
0.634237
0.634237
0.634237
0.634237
0.634237
0.634237
0.634237
0.634237
0.634237
0.634237
0.634236
0.634236
0.634236
0.634236
0.634236
0.634235
0.634235
0.634235
0.634234
0.634234
0.634233
0.634233
0.634233
0.634232
0.634231
0.634231
0.63423
0.634229
0.634228
0.634226
0.634219
0.634193
0.634097
0.633769
0.657371
0.6577
0.657799
0.657825
0.657832
0.657835
0.657836
0.657837
0.657837
0.657838
0.657838
0.657839
0.657839
0.65784
0.65784
0.65784
0.657841
0.657841
0.657841
0.657842
0.657842
0.657842
0.657842
0.657842
0.657842
0.657843
0.657843
0.657843
0.657843
0.657843
0.657843
0.657843
0.657843
0.657843
0.657843
0.657842
0.657842
0.657842
0.657842
0.657842
0.657842
0.657841
0.657841
0.657841
0.65784
0.65784
0.65784
0.657839
0.657839
0.657838
0.657838
0.657837
0.657837
0.657836
0.657835
0.657832
0.657825
0.657799
0.6577
0.657371
0.679871
0.6802
0.680301
0.680328
0.680336
0.680338
0.680339
0.68034
0.68034
0.680341
0.680341
0.680342
0.680342
0.680343
0.680343
0.680343
0.680343
0.680344
0.680344
0.680344
0.680344
0.680345
0.680345
0.680345
0.680345
0.680345
0.680345
0.680345
0.680345
0.680345
0.680345
0.680345
0.680345
0.680345
0.680345
0.680345
0.680345
0.680345
0.680345
0.680344
0.680344
0.680344
0.680344
0.680343
0.680343
0.680343
0.680343
0.680342
0.680342
0.680341
0.680341
0.68034
0.68034
0.680339
0.680338
0.680336
0.680328
0.680301
0.6802
0.679871
0.701291
0.701618
0.701721
0.701749
0.701757
0.701759
0.70176
0.701761
0.701762
0.701762
0.701762
0.701763
0.701763
0.701764
0.701764
0.701764
0.701764
0.701765
0.701765
0.701765
0.701765
0.701765
0.701766
0.701766
0.701766
0.701766
0.701766
0.701766
0.701766
0.701766
0.701766
0.701766
0.701766
0.701766
0.701766
0.701766
0.701766
0.701766
0.701765
0.701765
0.701765
0.701765
0.701765
0.701764
0.701764
0.701764
0.701764
0.701763
0.701763
0.701762
0.701762
0.701762
0.701761
0.70176
0.701759
0.701757
0.701749
0.701721
0.701618
0.701291
0.721652
0.721977
0.722082
0.722111
0.722119
0.722122
0.722123
0.722123
0.722124
0.722124
0.722124
0.722125
0.722125
0.722125
0.722126
0.722126
0.722126
0.722126
0.722127
0.722127
0.722127
0.722127
0.722127
0.722127
0.722127
0.722128
0.722128
0.722128
0.722128
0.722128
0.722128
0.722128
0.722128
0.722128
0.722128
0.722127
0.722127
0.722127
0.722127
0.722127
0.722127
0.722127
0.722126
0.722126
0.722126
0.722126
0.722125
0.722125
0.722125
0.722124
0.722124
0.722124
0.722123
0.722123
0.722122
0.722119
0.722111
0.722082
0.721977
0.721652
0.74098
0.741302
0.741407
0.741438
0.741446
0.741449
0.741449
0.74145
0.741451
0.741451
0.741451
0.741452
0.741452
0.741452
0.741452
0.741453
0.741453
0.741453
0.741453
0.741453
0.741453
0.741454
0.741454
0.741454
0.741454
0.741454
0.741454
0.741454
0.741454
0.741454
0.741454
0.741454
0.741454
0.741454
0.741454
0.741454
0.741454
0.741454
0.741454
0.741453
0.741453
0.741453
0.741453
0.741453
0.741453
0.741452
0.741452
0.741452
0.741452
0.741451
0.741451
0.741451
0.74145
0.741449
0.741449
0.741446
0.741438
0.741407
0.741302
0.74098
0.759298
0.759616
0.759723
0.759754
0.759763
0.759765
0.759766
0.759767
0.759767
0.759768
0.759768
0.759768
0.759768
0.759769
0.759769
0.759769
0.759769
0.759769
0.75977
0.75977
0.75977
0.75977
0.75977
0.75977
0.75977
0.75977
0.75977
0.75977
0.75977
0.75977
0.75977
0.75977
0.75977
0.75977
0.75977
0.75977
0.75977
0.75977
0.75977
0.75977
0.75977
0.75977
0.759769
0.759769
0.759769
0.759769
0.759769
0.759768
0.759768
0.759768
0.759768
0.759767
0.759767
0.759766
0.759765
0.759763
0.759754
0.759723
0.759616
0.759298
0.776634
0.776947
0.777055
0.777087
0.777096
0.777098
0.777099
0.7771
0.7771
0.7771
0.777101
0.777101
0.777101
0.777101
0.777102
0.777102
0.777102
0.777102
0.777102
0.777102
0.777102
0.777103
0.777103
0.777103
0.777103
0.777103
0.777103
0.777103
0.777103
0.777103
0.777103
0.777103
0.777103
0.777103
0.777103
0.777103
0.777103
0.777103
0.777103
0.777102
0.777102
0.777102
0.777102
0.777102
0.777102
0.777102
0.777101
0.777101
0.777101
0.777101
0.7771
0.7771
0.7771
0.777099
0.777098
0.777096
0.777087
0.777055
0.776947
0.776634
0.793014
0.793322
0.79343
0.793463
0.793472
0.793475
0.793476
0.793476
0.793477
0.793477
0.793477
0.793477
0.793478
0.793478
0.793478
0.793478
0.793478
0.793478
0.793478
0.793479
0.793479
0.793479
0.793479
0.793479
0.793479
0.793479
0.793479
0.793479
0.793479
0.793479
0.793479
0.793479
0.793479
0.793479
0.793479
0.793479
0.793479
0.793479
0.793479
0.793479
0.793479
0.793478
0.793478
0.793478
0.793478
0.793478
0.793478
0.793478
0.793477
0.793477
0.793477
0.793477
0.793476
0.793476
0.793475
0.793472
0.793463
0.79343
0.793322
0.793014
0.808467
0.808769
0.808877
0.808911
0.808921
0.808923
0.808924
0.808925
0.808925
0.808925
0.808926
0.808926
0.808926
0.808926
0.808926
0.808926
0.808926
0.808927
0.808927
0.808927
0.808927
0.808927
0.808927
0.808927
0.808927
0.808927
0.808927
0.808927
0.808927
0.808927
0.808927
0.808927
0.808927
0.808927
0.808927
0.808927
0.808927
0.808927
0.808927
0.808927
0.808927
0.808927
0.808927
0.808926
0.808926
0.808926
0.808926
0.808926
0.808926
0.808926
0.808925
0.808925
0.808925
0.808924
0.808923
0.808921
0.808911
0.808877
0.808769
0.808467
0.823023
0.823317
0.823426
0.82346
0.82347
0.823473
0.823474
0.823475
0.823475
0.823475
0.823475
0.823475
0.823476
0.823476
0.823476
0.823476
0.823476
0.823476
0.823476
0.823476
0.823476
0.823477
0.823477
0.823477
0.823477
0.823477
0.823477
0.823477
0.823477
0.823477
0.823477
0.823477
0.823477
0.823477
0.823477
0.823477
0.823477
0.823477
0.823477
0.823476
0.823476
0.823476
0.823476
0.823476
0.823476
0.823476
0.823476
0.823476
0.823475
0.823475
0.823475
0.823475
0.823475
0.823474
0.823473
0.82347
0.82346
0.823426
0.823317
0.823023
0.836711
0.836998
0.837106
0.837141
0.837151
0.837154
0.837155
0.837156
0.837156
0.837156
0.837156
0.837157
0.837157
0.837157
0.837157
0.837157
0.837157
0.837157
0.837157
0.837157
0.837157
0.837158
0.837158
0.837158
0.837158
0.837158
0.837158
0.837158
0.837158
0.837158
0.837158
0.837158
0.837158
0.837158
0.837158
0.837158
0.837158
0.837158
0.837158
0.837157
0.837157
0.837157
0.837157
0.837157
0.837157
0.837157
0.837157
0.837157
0.837157
0.837156
0.837156
0.837156
0.837156
0.837155
0.837154
0.837151
0.837141
0.837106
0.836998
0.836711
0.849561
0.849841
0.849948
0.849984
0.849995
0.849998
0.849999
0.849999
0.849999
0.85
0.85
0.85
0.85
0.85
0.85
0.85
0.85
0.850001
0.850001
0.850001
0.850001
0.850001
0.850001
0.850001
0.850001
0.850001
0.850001
0.850001
0.850001
0.850001
0.850001
0.850001
0.850001
0.850001
0.850001
0.850001
0.850001
0.850001
0.850001
0.850001
0.850001
0.850001
0.850001
0.85
0.85
0.85
0.85
0.85
0.85
0.85
0.85
0.849999
0.849999
0.849999
0.849998
0.849995
0.849984
0.849948
0.849841
0.849561
0.861607
0.861878
0.861985
0.862021
0.862032
0.862035
0.862036
0.862036
0.862037
0.862037
0.862037
0.862037
0.862037
0.862037
0.862037
0.862037
0.862037
0.862038
0.862038
0.862038
0.862038
0.862038
0.862038
0.862038
0.862038
0.862038
0.862038
0.862038
0.862038
0.862038
0.862038
0.862038
0.862038
0.862038
0.862038
0.862038
0.862038
0.862038
0.862038
0.862038
0.862038
0.862038
0.862038
0.862037
0.862037
0.862037
0.862037
0.862037
0.862037
0.862037
0.862037
0.862037
0.862036
0.862036
0.862035
0.862032
0.862021
0.861985
0.861878
0.861607
0.872879
0.873141
0.873246
0.873283
0.873294
0.873298
0.873299
0.873299
0.873299
0.873299
0.8733
0.8733
0.8733
0.8733
0.8733
0.8733
0.8733
0.8733
0.8733
0.8733
0.8733
0.8733
0.8733
0.8733
0.8733
0.8733
0.8733
0.873301
0.873301
0.873301
0.873301
0.873301
0.873301
0.8733
0.8733
0.8733
0.8733
0.8733
0.8733
0.8733
0.8733
0.8733
0.8733
0.8733
0.8733
0.8733
0.8733
0.8733
0.8733
0.8733
0.873299
0.873299
0.873299
0.873299
0.873298
0.873294
0.873283
0.873246
0.873141
0.872879
0.883409
0.883662
0.883766
0.883803
0.883814
0.883818
0.883819
0.883819
0.88382
0.88382
0.88382
0.88382
0.88382
0.88382
0.88382
0.88382
0.88382
0.88382
0.88382
0.883821
0.883821
0.883821
0.883821
0.883821
0.883821
0.883821
0.883821
0.883821
0.883821
0.883821
0.883821
0.883821
0.883821
0.883821
0.883821
0.883821
0.883821
0.883821
0.883821
0.883821
0.883821
0.88382
0.88382
0.88382
0.88382
0.88382
0.88382
0.88382
0.88382
0.88382
0.88382
0.88382
0.883819
0.883819
0.883818
0.883814
0.883803
0.883766
0.883662
0.883409
0.893229
0.893474
0.893576
0.893613
0.893625
0.893628
0.893629
0.89363
0.89363
0.89363
0.89363
0.89363
0.89363
0.89363
0.893631
0.893631
0.893631
0.893631
0.893631
0.893631
0.893631
0.893631
0.893631
0.893631
0.893631
0.893631
0.893631
0.893631
0.893631
0.893631
0.893631
0.893631
0.893631
0.893631
0.893631
0.893631
0.893631
0.893631
0.893631
0.893631
0.893631
0.893631
0.893631
0.893631
0.893631
0.893631
0.89363
0.89363
0.89363
0.89363
0.89363
0.89363
0.89363
0.893629
0.893628
0.893625
0.893613
0.893576
0.893474
0.893229
0.902373
0.902608
0.902708
0.902745
0.902757
0.902761
0.902762
0.902763
0.902763
0.902763
0.902763
0.902763
0.902763
0.902763
0.902763
0.902763
0.902763
0.902763
0.902763
0.902763
0.902763
0.902763
0.902763
0.902764
0.902764
0.902764
0.902764
0.902764
0.902764
0.902764
0.902764
0.902764
0.902764
0.902764
0.902764
0.902764
0.902764
0.902763
0.902763
0.902763
0.902763
0.902763
0.902763
0.902763
0.902763
0.902763
0.902763
0.902763
0.902763
0.902763
0.902763
0.902763
0.902763
0.902762
0.902761
0.902757
0.902745
0.902708
0.902608
0.902373
0.910872
0.911097
0.911195
0.911232
0.911244
0.911248
0.911249
0.91125
0.91125
0.91125
0.91125
0.91125
0.91125
0.91125
0.91125
0.91125
0.911251
0.911251
0.911251
0.911251
0.911251
0.911251
0.911251
0.911251
0.911251
0.911251
0.911251
0.911251
0.911251
0.911251
0.911251
0.911251
0.911251
0.911251
0.911251
0.911251
0.911251
0.911251
0.911251
0.911251
0.911251
0.911251
0.911251
0.911251
0.91125
0.91125
0.91125
0.91125
0.91125
0.91125
0.91125
0.91125
0.91125
0.911249
0.911248
0.911244
0.911232
0.911195
0.911097
0.910872
0.918758
0.918973
0.919068
0.919105
0.919118
0.919122
0.919123
0.919124
0.919124
0.919124
0.919124
0.919124
0.919124
0.919124
0.919124
0.919124
0.919124
0.919124
0.919124
0.919124
0.919125
0.919125
0.919125
0.919125
0.919125
0.919125
0.919125
0.919125
0.919125
0.919125
0.919125
0.919125
0.919125
0.919125
0.919125
0.919125
0.919125
0.919125
0.919125
0.919125
0.919124
0.919124
0.919124
0.919124
0.919124
0.919124
0.919124
0.919124
0.919124
0.919124
0.919124
0.919124
0.919124
0.919123
0.919122
0.919118
0.919105
0.919068
0.918973
0.918758
0.926062
0.926267
0.926361
0.926397
0.92641
0.926414
0.926416
0.926416
0.926416
0.926416
0.926416
0.926416
0.926416
0.926417
0.926417
0.926417
0.926417
0.926417
0.926417
0.926417
0.926417
0.926417
0.926417
0.926417
0.926417
0.926417
0.926417
0.926417
0.926417
0.926417
0.926417
0.926417
0.926417
0.926417
0.926417
0.926417
0.926417
0.926417
0.926417
0.926417
0.926417
0.926417
0.926417
0.926417
0.926417
0.926417
0.926417
0.926416
0.926416
0.926416
0.926416
0.926416
0.926416
0.926416
0.926414
0.92641
0.926397
0.926361
0.926267
0.926062
0.932816
0.933012
0.933102
0.933138
0.933152
0.933156
0.933157
0.933158
0.933158
0.933158
0.933158
0.933158
0.933158
0.933158
0.933158
0.933158
0.933158
0.933158
0.933158
0.933158
0.933158
0.933158
0.933158
0.933158
0.933158
0.933158
0.933158
0.933158
0.933158
0.933158
0.933158
0.933158
0.933158
0.933158
0.933158
0.933158
0.933158
0.933158
0.933158
0.933158
0.933158
0.933158
0.933158
0.933158
0.933158
0.933158
0.933158
0.933158
0.933158
0.933158
0.933158
0.933158
0.933158
0.933157
0.933156
0.933152
0.933138
0.933102
0.933012
0.932816
0.939051
0.939237
0.939324
0.93936
0.939373
0.939378
0.939379
0.93938
0.93938
0.93938
0.93938
0.93938
0.93938
0.93938
0.93938
0.93938
0.93938
0.93938
0.93938
0.93938
0.93938
0.93938
0.93938
0.93938
0.93938
0.93938
0.93938
0.93938
0.93938
0.93938
0.93938
0.93938
0.93938
0.93938
0.93938
0.93938
0.93938
0.93938
0.93938
0.93938
0.93938
0.93938
0.93938
0.93938
0.93938
0.93938
0.93938
0.93938
0.93938
0.93938
0.93938
0.93938
0.93938
0.939379
0.939378
0.939373
0.93936
0.939324
0.939237
0.939051
0.944797
0.944973
0.945057
0.945092
0.945105
0.94511
0.945112
0.945112
0.945112
0.945112
0.945112
0.945112
0.945113
0.945113
0.945113
0.945113
0.945113
0.945113
0.945113
0.945113
0.945113
0.945113
0.945113
0.945113
0.945113
0.945113
0.945113
0.945113
0.945113
0.945113
0.945113
0.945113
0.945113
0.945113
0.945113
0.945113
0.945113
0.945113
0.945113
0.945113
0.945113
0.945113
0.945113
0.945113
0.945113
0.945113
0.945113
0.945113
0.945112
0.945112
0.945112
0.945112
0.945112
0.945112
0.94511
0.945105
0.945092
0.945057
0.944973
0.944797
0.950082
0.950248
0.950329
0.950364
0.950377
0.950382
0.950384
0.950384
0.950384
0.950384
0.950384
0.950384
0.950384
0.950384
0.950384
0.950384
0.950384
0.950384
0.950384
0.950384
0.950384
0.950384
0.950384
0.950384
0.950384
0.950384
0.950384
0.950384
0.950384
0.950384
0.950384
0.950384
0.950384
0.950384
0.950384
0.950384
0.950384
0.950384
0.950384
0.950384
0.950384
0.950384
0.950384
0.950384
0.950384
0.950384
0.950384
0.950384
0.950384
0.950384
0.950384
0.950384
0.950384
0.950384
0.950382
0.950377
0.950364
0.950329
0.950248
0.950082
0.954935
0.955092
0.95517
0.955204
0.955217
0.955222
0.955223
0.955224
0.955224
0.955224
0.955224
0.955224
0.955224
0.955224
0.955224
0.955224
0.955224
0.955224
0.955224
0.955224
0.955224
0.955224
0.955224
0.955224
0.955224
0.955224
0.955224
0.955224
0.955224
0.955224
0.955224
0.955224
0.955224
0.955224
0.955224
0.955224
0.955224
0.955224
0.955224
0.955224
0.955224
0.955224
0.955224
0.955224
0.955224
0.955224
0.955224
0.955224
0.955224
0.955224
0.955224
0.955224
0.955224
0.955223
0.955222
0.955217
0.955204
0.95517
0.955092
0.954935
0.959384
0.959531
0.959606
0.959639
0.959652
0.959657
0.959659
0.959659
0.95966
0.95966
0.95966
0.95966
0.95966
0.95966
0.95966
0.95966
0.95966
0.95966
0.95966
0.95966
0.95966
0.95966
0.95966
0.95966
0.95966
0.95966
0.95966