/*--------------------------------*- C++ -*----------------------------------*\
| =========                 |                                                 |
| \\      /  F ield         | foam-extend: Open Source CFD                    |
|  \\    /   O peration     | Version:     4.0                                |
|   \\  /    A nd           | Web:         http://www.foam-extend.org         |
|    \\/     M anipulation  |                                                 |
\*---------------------------------------------------------------------------*/
FoamFile
{
    version     2.0;
    format      ascii;
    class       volScalarField;
    location    "230";
    object      cPlus;
}
// * * * * * * * * * * * * * * * * * * * * * * * * * * * * * * * * * * * * * //

dimensions      [0 0 0 0 0 0 0];

internalField   nonuniform List<scalar> 
6960
(
0.26945
0.269415
0.269409
0.26941
0.269412
0.269414
0.269416
0.269418
0.269419
0.269421
0.269422
0.269424
0.269425
0.269426
0.269428
0.269429
0.26943
0.269431
0.269431
0.269432
0.269433
0.269434
0.269434
0.269435
0.269435
0.269435
0.269436
0.269436
0.269436
0.269436
0.269436
0.269436
0.269436
0.269436
0.269435
0.269435
0.269435
0.269434
0.269434
0.269433
0.269432
0.269431
0.269431
0.26943
0.269429
0.269428
0.269426
0.269425
0.269424
0.269422
0.269421
0.269419
0.269418
0.269416
0.269414
0.269412
0.26941
0.269409
0.269415
0.26945
0.105439
0.105444
0.105445
0.105446
0.105448
0.105449
0.10545
0.105451
0.105452
0.105453
0.105454
0.105454
0.105455
0.105456
0.105456
0.105457
0.105458
0.105458
0.105459
0.105459
0.105459
0.10546
0.10546
0.10546
0.10546
0.105461
0.105461
0.105461
0.105461
0.105461
0.105461
0.105461
0.105461
0.105461
0.105461
0.10546
0.10546
0.10546
0.10546
0.105459
0.105459
0.105459
0.105458
0.105458
0.105457
0.105456
0.105456
0.105455
0.105454
0.105454
0.105453
0.105452
0.105451
0.10545
0.105449
0.105448
0.105446
0.105445
0.105444
0.105439
0.0752686
0.0752926
0.0752978
0.0752996
0.0753006
0.0753014
0.075302
0.0753026
0.0753032
0.0753037
0.0753042
0.0753046
0.075305
0.0753054
0.0753058
0.0753061
0.0753064
0.0753067
0.075307
0.0753072
0.0753075
0.0753077
0.0753078
0.075308
0.0753081
0.0753082
0.0753083
0.0753084
0.0753084
0.0753085
0.0753085
0.0753084
0.0753084
0.0753083
0.0753082
0.0753081
0.075308
0.0753078
0.0753077
0.0753075
0.0753072
0.075307
0.0753067
0.0753064
0.0753061
0.0753058
0.0753054
0.075305
0.0753046
0.0753042
0.0753037
0.0753032
0.0753026
0.075302
0.0753014
0.0753006
0.0752996
0.0752978
0.0752926
0.0752686
0.0715034
0.0715369
0.0715441
0.0715461
0.071547
0.0715477
0.0715483
0.0715487
0.0715492
0.0715496
0.07155
0.0715503
0.0715506
0.0715509
0.0715512
0.0715515
0.0715517
0.071552
0.0715522
0.0715524
0.0715525
0.0715527
0.0715528
0.0715529
0.071553
0.0715531
0.0715532
0.0715532
0.0715533
0.0715533
0.0715533
0.0715533
0.0715532
0.0715532
0.0715531
0.071553
0.0715529
0.0715528
0.0715527
0.0715525
0.0715524
0.0715522
0.071552
0.0715517
0.0715515
0.0715512
0.0715509
0.0715506
0.0715503
0.07155
0.0715496
0.0715492
0.0715487
0.0715483
0.0715477
0.071547
0.0715461
0.0715441
0.0715369
0.0715034
0.074447
0.0744871
0.0744956
0.074498
0.074499
0.0744997
0.0745003
0.0745008
0.0745012
0.0745017
0.074502
0.0745024
0.0745027
0.074503
0.0745033
0.0745036
0.0745039
0.0745041
0.0745043
0.0745045
0.0745047
0.0745048
0.074505
0.0745051
0.0745052
0.0745053
0.0745053
0.0745054
0.0745054
0.0745054
0.0745054
0.0745054
0.0745054
0.0745053
0.0745053
0.0745052
0.0745051
0.074505
0.0745048
0.0745047
0.0745045
0.0745043
0.0745041
0.0745039
0.0745036
0.0745033
0.074503
0.0745027
0.0745024
0.074502
0.0745017
0.0745012
0.0745008
0.0745003
0.0744997
0.074499
0.074498
0.0744956
0.0744871
0.074447
0.0800528
0.0800997
0.0801098
0.0801125
0.0801137
0.0801146
0.0801153
0.0801159
0.0801164
0.0801169
0.0801173
0.0801178
0.0801182
0.0801185
0.0801189
0.0801192
0.0801195
0.0801197
0.08012
0.0801202
0.0801204
0.0801206
0.0801208
0.0801209
0.080121
0.0801211
0.0801212
0.0801213
0.0801213
0.0801214
0.0801214
0.0801213
0.0801213
0.0801212
0.0801211
0.080121
0.0801209
0.0801208
0.0801206
0.0801204
0.0801202
0.08012
0.0801197
0.0801195
0.0801192
0.0801189
0.0801185
0.0801182
0.0801178
0.0801173
0.0801169
0.0801164
0.0801159
0.0801153
0.0801146
0.0801137
0.0801125
0.0801098
0.0800997
0.0800528
0.0877599
0.0878156
0.0878276
0.0878309
0.0878324
0.0878334
0.0878343
0.087835
0.0878357
0.0878363
0.0878369
0.0878374
0.0878379
0.0878383
0.0878387
0.0878391
0.0878395
0.0878398
0.0878402
0.0878404
0.0878407
0.0878409
0.0878411
0.0878413
0.0878415
0.0878416
0.0878417
0.0878418
0.0878418
0.0878419
0.0878419
0.0878418
0.0878418
0.0878417
0.0878416
0.0878415
0.0878413
0.0878411
0.0878409
0.0878407
0.0878404
0.0878402
0.0878398
0.0878395
0.0878391
0.0878387
0.0878383
0.0878379
0.0878374
0.0878369
0.0878363
0.0878357
0.087835
0.0878343
0.0878334
0.0878324
0.0878309
0.0878276
0.0878156
0.0877599
0.097946
0.0980134
0.0980281
0.0980322
0.098034
0.0980353
0.0980363
0.0980373
0.0980381
0.0980389
0.0980396
0.0980403
0.0980409
0.0980415
0.098042
0.0980425
0.098043
0.0980434
0.0980438
0.0980442
0.0980445
0.0980448
0.0980451
0.0980453
0.0980455
0.0980457
0.0980458
0.0980459
0.098046
0.098046
0.098046
0.098046
0.0980459
0.0980458
0.0980457
0.0980455
0.0980453
0.0980451
0.0980448
0.0980445
0.0980442
0.0980438
0.0980434
0.098043
0.0980425
0.098042
0.0980415
0.0980409
0.0980403
0.0980396
0.0980389
0.0980381
0.0980373
0.0980363
0.0980353
0.098034
0.0980322
0.0980281
0.0980134
0.097946
0.111297
0.11138
0.111398
0.111403
0.111405
0.111407
0.111408
0.111409
0.111411
0.111412
0.111412
0.111413
0.111414
0.111415
0.111415
0.111416
0.111417
0.111417
0.111418
0.111418
0.111419
0.111419
0.111419
0.11142
0.11142
0.11142
0.11142
0.11142
0.11142
0.111421
0.111421
0.11142
0.11142
0.11142
0.11142
0.11142
0.11142
0.111419
0.111419
0.111419
0.111418
0.111418
0.111417
0.111417
0.111416
0.111415
0.111415
0.111414
0.111413
0.111412
0.111412
0.111411
0.111409
0.111408
0.111407
0.111405
0.111403
0.111398
0.11138
0.111297
0.128518
0.12862
0.128643
0.128649
0.128652
0.128654
0.128656
0.128657
0.128659
0.12866
0.128661
0.128662
0.128663
0.128664
0.128665
0.128665
0.128666
0.128667
0.128668
0.128668
0.128669
0.128669
0.128669
0.12867
0.12867
0.12867
0.128671
0.128671
0.128671
0.128671
0.128671
0.128671
0.128671
0.128671
0.12867
0.12867
0.12867
0.128669
0.128669
0.128669
0.128668
0.128668
0.128667
0.128666
0.128665
0.128665
0.128664
0.128663
0.128662
0.128661
0.12866
0.128659
0.128657
0.128656
0.128654
0.128652
0.128649
0.128643
0.12862
0.128518
0.150059
0.150185
0.150213
0.15022
0.150224
0.150226
0.150228
0.15023
0.150231
0.150233
0.150234
0.150235
0.150237
0.150238
0.150239
0.15024
0.15024
0.150241
0.150242
0.150243
0.150243
0.150244
0.150244
0.150245
0.150245
0.150245
0.150246
0.150246
0.150246
0.150246
0.150246
0.150246
0.150246
0.150246
0.150245
0.150245
0.150245
0.150244
0.150244
0.150243
0.150243
0.150242
0.150241
0.15024
0.15024
0.150239
0.150238
0.150237
0.150235
0.150234
0.150233
0.150231
0.15023
0.150228
0.150226
0.150224
0.15022
0.150213
0.150185
0.150059
0.17588
0.176031
0.176065
0.176074
0.176078
0.176081
0.176083
0.176085
0.176087
0.176088
0.17609
0.176091
0.176093
0.176094
0.176095
0.176096
0.176097
0.176098
0.176099
0.176099
0.1761
0.176101
0.176101
0.176102
0.176102
0.176102
0.176103
0.176103
0.176103
0.176103
0.176103
0.176103
0.176103
0.176103
0.176102
0.176102
0.176102
0.176101
0.176101
0.1761
0.176099
0.176099
0.176098
0.176097
0.176096
0.176095
0.176094
0.176093
0.176091
0.17609
0.176088
0.176087
0.176085
0.176083
0.176081
0.176078
0.176074
0.176065
0.176031
0.17588
0.205387
0.205563
0.205603
0.205614
0.205618
0.205621
0.205623
0.205625
0.205627
0.205629
0.205631
0.205632
0.205634
0.205635
0.205636
0.205637
0.205638
0.205639
0.20564
0.205641
0.205642
0.205642
0.205643
0.205643
0.205644
0.205644
0.205644
0.205645
0.205645
0.205645
0.205645
0.205645
0.205645
0.205644
0.205644
0.205644
0.205643
0.205643
0.205642
0.205642
0.205641
0.20564
0.205639
0.205638
0.205637
0.205636
0.205635
0.205634
0.205632
0.205631
0.205629
0.205627
0.205625
0.205623
0.205621
0.205618
0.205614
0.205603
0.205563
0.205387
0.237593
0.237793
0.237838
0.23785
0.237855
0.237858
0.237861
0.237863
0.237865
0.237867
0.237868
0.23787
0.237871
0.237872
0.237874
0.237875
0.237876
0.237877
0.237878
0.237879
0.237879
0.23788
0.237881
0.237881
0.237882
0.237882
0.237882
0.237882
0.237883
0.237883
0.237883
0.237883
0.237882
0.237882
0.237882
0.237882
0.237881
0.237881
0.23788
0.237879
0.237879
0.237878
0.237877
0.237876
0.237875
0.237874
0.237872
0.237871
0.23787
0.237868
0.237867
0.237865
0.237863
0.237861
0.237858
0.237855
0.23785
0.237838
0.237793
0.237593
0.271407
0.271627
0.271679
0.271692
0.271697
0.2717
0.271702
0.271705
0.271706
0.271708
0.27171
0.271711
0.271713
0.271714
0.271715
0.271716
0.271717
0.271718
0.271719
0.27172
0.271721
0.271721
0.271722
0.271723
0.271723
0.271723
0.271724
0.271724
0.271724
0.271724
0.271724
0.271724
0.271724
0.271724
0.271723
0.271723
0.271723
0.271722
0.271721
0.271721
0.27172
0.271719
0.271718
0.271717
0.271716
0.271715
0.271714
0.271713
0.271711
0.27171
0.271708
0.271706
0.271705
0.271702
0.2717
0.271697
0.271692
0.271679
0.271627
0.271407
0.305877
0.306116
0.306172
0.306187
0.306192
0.306195
0.306197
0.306199
0.306201
0.306203
0.306204
0.306206
0.306207
0.306208
0.30621
0.306211
0.306212
0.306213
0.306214
0.306214
0.306215
0.306216
0.306216
0.306217
0.306217
0.306217
0.306218
0.306218
0.306218
0.306218
0.306218
0.306218
0.306218
0.306218
0.306217
0.306217
0.306217
0.306216
0.306216
0.306215
0.306214
0.306214
0.306213
0.306212
0.306211
0.30621
0.306208
0.306207
0.306206
0.306204
0.306203
0.306201
0.306199
0.306197
0.306195
0.306192
0.306187
0.306172
0.306116
0.305877
0.340304
0.340558
0.340619
0.340635
0.34064
0.340643
0.340645
0.340647
0.340649
0.34065
0.340652
0.340653
0.340654
0.340656
0.340657
0.340658
0.340659
0.340659
0.34066
0.340661
0.340662
0.340662
0.340663
0.340663
0.340664
0.340664
0.340664
0.340664
0.340665
0.340665
0.340665
0.340665
0.340664
0.340664
0.340664
0.340664
0.340663
0.340663
0.340662
0.340662
0.340661
0.34066
0.340659
0.340659
0.340658
0.340657
0.340656
0.340654
0.340653
0.340652
0.34065
0.340649
0.340647
0.340645
0.340643
0.34064
0.340635
0.340619
0.340558
0.340304
0.374228
0.374496
0.374562
0.374578
0.374583
0.374586
0.374588
0.37459
0.374592
0.374593
0.374595
0.374596
0.374597
0.374598
0.374599
0.3746
0.374601
0.374602
0.374602
0.374603
0.374604
0.374604
0.374605
0.374605
0.374606
0.374606
0.374606
0.374606
0.374606
0.374606
0.374606
0.374606
0.374606
0.374606
0.374606
0.374606
0.374605
0.374605
0.374604
0.374604
0.374603
0.374602
0.374602
0.374601
0.3746
0.374599
0.374598
0.374597
0.374596
0.374595
0.374593
0.374592
0.37459
0.374588
0.374586
0.374583
0.374578
0.374562
0.374496
0.374228
0.407374
0.407655
0.407724
0.407741
0.407747
0.40775
0.407752
0.407753
0.407755
0.407756
0.407758
0.407759
0.40776
0.407761
0.407762
0.407763
0.407763
0.407764
0.407765
0.407765
0.407766
0.407766
0.407767
0.407767
0.407768
0.407768
0.407768
0.407768
0.407768
0.407768
0.407768
0.407768
0.407768
0.407768
0.407768
0.407768
0.407767
0.407767
0.407766
0.407766
0.407765
0.407765
0.407764
0.407763
0.407763
0.407762
0.407761
0.40776
0.407759
0.407758
0.407756
0.407755
0.407753
0.407752
0.40775
0.407747
0.407741
0.407724
0.407655
0.407374
0.439584
0.439875
0.439948
0.439967
0.439972
0.439975
0.439977
0.439978
0.43998
0.439981
0.439982
0.439983
0.439984
0.439985
0.439986
0.439987
0.439987
0.439988
0.439989
0.439989
0.43999
0.43999
0.439991
0.439991
0.439991
0.439992
0.439992
0.439992
0.439992
0.439992
0.439992
0.439992
0.439992
0.439992
0.439992
0.439991
0.439991
0.439991
0.43999
0.43999
0.439989
0.439989
0.439988
0.439987
0.439987
0.439986
0.439985
0.439984
0.439983
0.439982
0.439981
0.43998
0.439978
0.439977
0.439975
0.439972
0.439967
0.439948
0.439875
0.439584
0.470768
0.471068
0.471145
0.471164
0.47117
0.471172
0.471174
0.471176
0.471177
0.471178
0.471179
0.47118
0.471181
0.471182
0.471183
0.471183
0.471184
0.471185
0.471185
0.471186
0.471186
0.471187
0.471187
0.471187
0.471188
0.471188
0.471188
0.471188
0.471188
0.471188
0.471188
0.471188
0.471188
0.471188
0.471188
0.471188
0.471187
0.471187
0.471187
0.471186
0.471186
0.471185
0.471185
0.471184
0.471183
0.471183
0.471182
0.471181
0.47118
0.471179
0.471178
0.471177
0.471176
0.471174
0.471172
0.47117
0.471164
0.471145
0.471068
0.470768
0.500876
0.501184
0.501265
0.501285
0.501291
0.501293
0.501295
0.501296
0.501297
0.501298
0.501299
0.5013
0.501301
0.501302
0.501303
0.501303
0.501304
0.501304
0.501305
0.501305
0.501306
0.501306
0.501306
0.501307
0.501307
0.501307
0.501307
0.501308
0.501308
0.501308
0.501308
0.501308
0.501308
0.501307
0.501307
0.501307
0.501307
0.501306
0.501306
0.501306
0.501305
0.501305
0.501304
0.501304
0.501303
0.501303
0.501302
0.501301
0.5013
0.501299
0.501298
0.501297
0.501296
0.501295
0.501293
0.501291
0.501285
0.501265
0.501184
0.500876
0.529883
0.530197
0.530281
0.530302
0.530308
0.530311
0.530312
0.530314
0.530315
0.530316
0.530317
0.530317
0.530318
0.530319
0.530319
0.53032
0.530321
0.530321
0.530321
0.530322
0.530322
0.530323
0.530323
0.530323
0.530323
0.530324
0.530324
0.530324
0.530324
0.530324
0.530324
0.530324
0.530324
0.530324
0.530324
0.530323
0.530323
0.530323
0.530323
0.530322
0.530322
0.530321
0.530321
0.530321
0.53032
0.530319
0.530319
0.530318
0.530317
0.530317
0.530316
0.530315
0.530314
0.530312
0.530311
0.530308
0.530302
0.530281
0.530197
0.529883
0.557776
0.558095
0.558183
0.558205
0.558211
0.558213
0.558215
0.558216
0.558217
0.558218
0.558219
0.558219
0.55822
0.558221
0.558221
0.558222
0.558222
0.558223
0.558223
0.558223
0.558224
0.558224
0.558224
0.558225
0.558225
0.558225
0.558225
0.558225
0.558225
0.558225
0.558225
0.558225
0.558225
0.558225
0.558225
0.558225
0.558225
0.558224
0.558224
0.558224
0.558223
0.558223
0.558223
0.558222
0.558222
0.558221
0.558221
0.55822
0.558219
0.558219
0.558218
0.558217
0.558216
0.558215
0.558213
0.558211
0.558205
0.558183
0.558095
0.557776
0.584552
0.584875
0.584966
0.584989
0.584995
0.584998
0.584999
0.585
0.585001
0.585002
0.585003
0.585003
0.585004
0.585004
0.585005
0.585005
0.585006
0.585006
0.585007
0.585007
0.585007
0.585007
0.585008
0.585008
0.585008
0.585008
0.585008
0.585009
0.585009
0.585009
0.585009
0.585009
0.585009
0.585008
0.585008
0.585008
0.585008
0.585008
0.585007
0.585007
0.585007
0.585007
0.585006
0.585006
0.585005
0.585005
0.585004
0.585004
0.585003
0.585003
0.585002
0.585001
0.585
0.584999
0.584998
0.584995
0.584989
0.584966
0.584875
0.584552
0.610214
0.61054
0.610634
0.610658
0.610665
0.610667
0.610669
0.61067
0.61067
0.610671
0.610672
0.610672
0.610673
0.610673
0.610674
0.610674
0.610675
0.610675
0.610675
0.610676
0.610676
0.610676
0.610676
0.610677
0.610677
0.610677
0.610677
0.610677
0.610677
0.610677
0.610677
0.610677
0.610677
0.610677
0.610677
0.610677
0.610677
0.610676
0.610676
0.610676
0.610676
0.610675
0.610675
0.610675
0.610674
0.610674
0.610673
0.610673
0.610672
0.610672
0.610671
0.61067
0.61067
0.610669
0.610667
0.610665
0.610658
0.610634
0.61054
0.610214
0.634772
0.635099
0.635196
0.635221
0.635228
0.63523
0.635231
0.635232
0.635233
0.635234
0.635234
0.635235
0.635235
0.635236
0.635236
0.635236
0.635237
0.635237
0.635237
0.635238
0.635238
0.635238
0.635238
0.635239
0.635239
0.635239
0.635239
0.635239
0.635239
0.635239
0.635239
0.635239
0.635239
0.635239
0.635239
0.635239
0.635239
0.635238
0.635238
0.635238
0.635238
0.635237
0.635237
0.635237
0.635236
0.635236
0.635236
0.635235
0.635235
0.635234
0.635234
0.635233
0.635232
0.635231
0.63523
0.635228
0.635221
0.635196
0.635099
0.634772
0.658235
0.658563
0.658662
0.658688
0.658695
0.658698
0.658699
0.6587
0.6587
0.658701
0.658701
0.658702
0.658702
0.658703
0.658703
0.658703
0.658704
0.658704
0.658704
0.658704
0.658705
0.658705
0.658705
0.658705
0.658705
0.658706
0.658706
0.658706
0.658706
0.658706
0.658706
0.658706
0.658706
0.658706
0.658706
0.658705
0.658705
0.658705
0.658705
0.658705
0.658704
0.658704
0.658704
0.658704
0.658703
0.658703
0.658703
0.658702
0.658702
0.658701
0.658701
0.6587
0.6587
0.658699
0.658698
0.658695
0.658688
0.658662
0.658563
0.658235
0.680618
0.680946
0.681047
0.681075
0.681082
0.681084
0.681086
0.681086
0.681087
0.681087
0.681088
0.681088
0.681089
0.681089
0.681089
0.68109
0.68109
0.68109
0.68109
0.681091
0.681091
0.681091
0.681091
0.681091
0.681092
0.681092
0.681092
0.681092
0.681092
0.681092
0.681092
0.681092
0.681092
0.681092
0.681092
0.681092
0.681091
0.681091
0.681091
0.681091
0.681091
0.68109
0.68109
0.68109
0.68109
0.681089
0.681089
0.681089
0.681088
0.681088
0.681087
0.681087
0.681086
0.681086
0.681084
0.681082
0.681075
0.681047
0.680946
0.680618
0.70194
0.702266
0.702369
0.702398
0.702405
0.702408
0.702409
0.702409
0.70241
0.70241
0.702411
0.702411
0.702412
0.702412
0.702412
0.702412
0.702413
0.702413
0.702413
0.702413
0.702414
0.702414
0.702414
0.702414
0.702414
0.702414
0.702414
0.702414
0.702414
0.702414
0.702414
0.702414
0.702414
0.702414
0.702414
0.702414
0.702414
0.702414
0.702414
0.702414
0.702413
0.702413
0.702413
0.702413
0.702412
0.702412
0.702412
0.702412
0.702411
0.702411
0.70241
0.70241
0.702409
0.702409
0.702408
0.702405
0.702398
0.702369
0.702266
0.70194
0.722218
0.722542
0.722647
0.722676
0.722684
0.722687
0.722688
0.722688
0.722689
0.722689
0.72269
0.72269
0.72269
0.72269
0.722691
0.722691
0.722691
0.722691
0.722692
0.722692
0.722692
0.722692
0.722692
0.722692
0.722692
0.722693
0.722693
0.722693
0.722693
0.722693
0.722693
0.722693
0.722693
0.722693
0.722693
0.722692
0.722692
0.722692
0.722692
0.722692
0.722692
0.722692
0.722691
0.722691
0.722691
0.722691
0.72269
0.72269
0.72269
0.72269
0.722689
0.722689
0.722688
0.722688
0.722687
0.722684
0.722676
0.722647
0.722542
0.722218
0.741474
0.741796
0.741901
0.741932
0.74194
0.741942
0.741943
0.741944
0.741944
0.741945
0.741945
0.741945
0.741946
0.741946
0.741946
0.741946
0.741947
0.741947
0.741947
0.741947
0.741947
0.741948
0.741948
0.741948
0.741948
0.741948
0.741948
0.741948
0.741948
0.741948
0.741948
0.741948
0.741948
0.741948
0.741948
0.741948
0.741948
0.741948
0.741948
0.741947
0.741947
0.741947
0.741947
0.741947
0.741946
0.741946
0.741946
0.741946
0.741945
0.741945
0.741945
0.741944
0.741944
0.741943
0.741942
0.74194
0.741932
0.741901
0.741796
0.741474
0.759731
0.760049
0.760156
0.760187
0.760196
0.760198
0.760199
0.7602
0.7602
0.760201
0.760201
0.760201
0.760201
0.760202
0.760202
0.760202
0.760202
0.760202
0.760203
0.760203
0.760203
0.760203
0.760203
0.760203
0.760203
0.760203
0.760203
0.760203
0.760203
0.760203
0.760203
0.760203
0.760203
0.760203
0.760203
0.760203
0.760203
0.760203
0.760203
0.760203
0.760203
0.760203
0.760202
0.760202
0.760202
0.760202
0.760202
0.760201
0.760201
0.760201
0.760201
0.7602
0.7602
0.760199
0.760198
0.760196
0.760187
0.760156
0.760049
0.759731
0.777014
0.777327
0.777435
0.777467
0.777476
0.777479
0.77748
0.77748
0.77748
0.777481
0.777481
0.777481
0.777482
0.777482
0.777482
0.777482
0.777482
0.777482
0.777483
0.777483
0.777483
0.777483
0.777483
0.777483
0.777483
0.777483
0.777483
0.777483
0.777483
0.777483
0.777483
0.777483
0.777483
0.777483
0.777483
0.777483
0.777483
0.777483
0.777483
0.777483
0.777483
0.777483
0.777482
0.777482
0.777482
0.777482
0.777482
0.777482
0.777481
0.777481
0.777481
0.77748
0.77748
0.77748
0.777479
0.777476
0.777467
0.777435
0.777327
0.777014
0.793349
0.793656
0.793765
0.793798
0.793807
0.79381
0.793811
0.793811
0.793811
0.793812
0.793812
0.793812
0.793812
0.793813
0.793813
0.793813
0.793813
0.793813
0.793813
0.793813
0.793813
0.793814
0.793814
0.793814
0.793814
0.793814
0.793814
0.793814
0.793814
0.793814
0.793814
0.793814
0.793814
0.793814
0.793814
0.793814
0.793814
0.793814
0.793814
0.793813
0.793813
0.793813
0.793813
0.793813
0.793813
0.793813
0.793813
0.793812
0.793812
0.793812
0.793812
0.793811
0.793811
0.793811
0.79381
0.793807
0.793798
0.793765
0.793656
0.793349
0.808763
0.809064
0.809172
0.809206
0.809216
0.809219
0.809219
0.80922
0.80922
0.80922
0.809221
0.809221
0.809221
0.809221
0.809221
0.809222
0.809222
0.809222
0.809222
0.809222
0.809222
0.809222
0.809222
0.809222
0.809222
0.809222
0.809222
0.809222
0.809222
0.809222
0.809222
0.809222
0.809222
0.809222
0.809222
0.809222
0.809222
0.809222
0.809222
0.809222
0.809222
0.809222
0.809222
0.809222
0.809222
0.809221
0.809221
0.809221
0.809221
0.809221
0.80922
0.80922
0.80922
0.809219
0.809219
0.809216
0.809206
0.809172
0.809064
0.808763
0.823284
0.823578
0.823686
0.823721
0.823731
0.823734
0.823735
0.823735
0.823735
0.823736
0.823736
0.823736
0.823736
0.823736
0.823736
0.823737
0.823737
0.823737
0.823737
0.823737
0.823737
0.823737
0.823737
0.823737
0.823737
0.823737
0.823737
0.823737
0.823737
0.823737
0.823737
0.823737
0.823737
0.823737
0.823737
0.823737
0.823737
0.823737
0.823737
0.823737
0.823737
0.823737
0.823737
0.823737
0.823737
0.823736
0.823736
0.823736
0.823736
0.823736
0.823736
0.823735
0.823735
0.823735
0.823734
0.823731
0.823721
0.823686
0.823578
0.823284
0.836941
0.837228
0.837336
0.837371
0.837382
0.837385
0.837386
0.837386
0.837386
0.837387
0.837387
0.837387
0.837387
0.837387
0.837387
0.837387
0.837388
0.837388
0.837388
0.837388
0.837388
0.837388
0.837388
0.837388
0.837388
0.837388
0.837388
0.837388
0.837388
0.837388
0.837388
0.837388
0.837388
0.837388
0.837388
0.837388
0.837388
0.837388
0.837388
0.837388
0.837388
0.837388
0.837388
0.837388
0.837387
0.837387
0.837387
0.837387
0.837387
0.837387
0.837387
0.837386
0.837386
0.837386
0.837385
0.837382
0.837371
0.837336
0.837228
0.836941
0.849766
0.850045
0.850152
0.850188
0.850199
0.850202
0.850203
0.850203
0.850203
0.850204
0.850204
0.850204
0.850204
0.850204
0.850204
0.850204
0.850204
0.850204
0.850205
0.850205
0.850205
0.850205
0.850205
0.850205
0.850205
0.850205
0.850205
0.850205
0.850205
0.850205
0.850205
0.850205
0.850205
0.850205
0.850205
0.850205
0.850205
0.850205
0.850205
0.850205
0.850205
0.850205
0.850204
0.850204
0.850204
0.850204
0.850204
0.850204
0.850204
0.850204
0.850204
0.850203
0.850203
0.850203
0.850202
0.850199
0.850188
0.850152
0.850045
0.849766
0.861788
0.862059
0.862165
0.862201
0.862212
0.862216
0.862217
0.862217
0.862217
0.862217
0.862218
0.862218
0.862218
0.862218
0.862218
0.862218
0.862218
0.862218
0.862218
0.862218
0.862218
0.862218
0.862218
0.862218
0.862219
0.862219
0.862219
0.862219
0.862219
0.862219
0.862219
0.862219
0.862219
0.862219
0.862219
0.862219
0.862218
0.862218
0.862218
0.862218
0.862218
0.862218
0.862218
0.862218
0.862218
0.862218
0.862218
0.862218
0.862218
0.862218
0.862217
0.862217
0.862217
0.862217
0.862216
0.862212
0.862201
0.862165
0.862059
0.861788
0.873039
0.873301
0.873407
0.873443
0.873454
0.873458
0.873459
0.873459
0.873459
0.87346
0.87346
0.87346
0.87346
0.87346
0.87346
0.87346
0.87346
0.87346
0.87346
0.87346
0.87346
0.87346
0.87346
0.873461
0.873461
0.873461
0.873461
0.873461
0.873461
0.873461
0.873461
0.873461
0.873461
0.873461
0.873461
0.873461
0.873461
0.87346
0.87346
0.87346
0.87346
0.87346
0.87346
0.87346
0.87346
0.87346
0.87346
0.87346
0.87346
0.87346
0.87346
0.873459
0.873459
0.873459
0.873458
0.873454
0.873443
0.873407
0.873301
0.873039
0.883551
0.883804
0.883908
0.883945
0.883956
0.88396
0.883961
0.883962
0.883962
0.883962
0.883962
0.883962
0.883962
0.883962
0.883962
0.883962
0.883962
0.883962
0.883962
0.883963
0.883963
0.883963
0.883963
0.883963
0.883963
0.883963
0.883963
0.883963
0.883963
0.883963
0.883963
0.883963
0.883963
0.883963
0.883963
0.883963
0.883963
0.883963
0.883963
0.883963
0.883963
0.883962
0.883962
0.883962
0.883962
0.883962
0.883962
0.883962
0.883962
0.883962
0.883962
0.883962
0.883962
0.883961
0.88396
0.883956
0.883945
0.883908
0.883804
0.883551
0.893356
0.8936
0.893702
0.893739
0.893751
0.893754
0.893755
0.893756
0.893756
0.893756
0.893756
0.893756
0.893756
0.893756
0.893757
0.893757
0.893757
0.893757
0.893757
0.893757
0.893757
0.893757
0.893757
0.893757
0.893757
0.893757
0.893757
0.893757
0.893757
0.893757
0.893757
0.893757
0.893757
0.893757
0.893757
0.893757
0.893757
0.893757
0.893757
0.893757
0.893757
0.893757
0.893757
0.893757
0.893757
0.893757
0.893756
0.893756
0.893756
0.893756
0.893756
0.893756
0.893756
0.893755
0.893754
0.893751
0.893739
0.893702
0.8936
0.893356
0.902485
0.90272
0.90282
0.902857
0.902869
0.902873
0.902874
0.902874
0.902875
0.902875
0.902875
0.902875
0.902875
0.902875
0.902875
0.902875
0.902875
0.902875
0.902875
0.902875
0.902875
0.902875
0.902875
0.902875
0.902875
0.902875
0.902875
0.902875
0.902875
0.902875
0.902875
0.902875
0.902875
0.902875
0.902875
0.902875
0.902875
0.902875
0.902875
0.902875
0.902875
0.902875
0.902875
0.902875
0.902875
0.902875
0.902875
0.902875
0.902875
0.902875
0.902875
0.902875
0.902874
0.902874
0.902873
0.902869
0.902857
0.90282
0.90272
0.902485
0.910971
0.911196
0.911294
0.911331
0.911343
0.911347
0.911349
0.911349
0.911349
0.911349
0.91135
0.91135
0.91135
0.91135
0.91135
0.91135
0.91135
0.91135
0.91135
0.91135
0.91135
0.91135
0.91135
0.91135
0.91135
0.91135
0.91135
0.91135
0.91135
0.91135
0.91135
0.91135
0.91135
0.91135
0.91135
0.91135
0.91135
0.91135
0.91135
0.91135
0.91135
0.91135
0.91135
0.91135
0.91135
0.91135
0.91135
0.91135
0.91135
0.91135
0.911349
0.911349
0.911349
0.911349
0.911347
0.911343
0.911331
0.911294
0.911196
0.910971
0.918846
0.919061
0.919157
0.919193
0.919206
0.91921
0.919212
0.919212
0.919212
0.919212
0.919212
0.919212
0.919212
0.919212
0.919212
0.919212
0.919213
0.919213
0.919213
0.919213
0.919213
0.919213
0.919213
0.919213
0.919213
0.919213
0.919213
0.919213
0.919213
0.919213
0.919213
0.919213
0.919213
0.919213
0.919213
0.919213
0.919213
0.919213
0.919213
0.919213
0.919213
0.919213
0.919213
0.919213
0.919212
0.919212
0.919212
0.919212
0.919212
0.919212
0.919212
0.919212
0.919212
0.919212
0.91921
0.919206
0.919193
0.919157
0.919061
0.918846
0.92614
0.926346
0.926439
0.926475
0.926488
0.926493
0.926494
0.926494
0.926495
0.926495
0.926495
0.926495
0.926495
0.926495
0.926495
0.926495
0.926495
0.926495
0.926495
0.926495
0.926495
0.926495
0.926495
0.926495
0.926495
0.926495
0.926495
0.926495
0.926495
0.926495
0.926495
0.926495
0.926495
0.926495
0.926495
0.926495
0.926495
0.926495
0.926495
0.926495
0.926495
0.926495
0.926495
0.926495
0.926495
0.926495
0.926495
0.926495
0.926495
0.926495
0.926495
0.926495
0.926494
0.926494
0.926493
0.926488
0.926475
0.926439
0.926346
0.92614
0.932886
0.933081
0.933172
0.933208
0.933221
0.933225
0.933227
0.933227
0.933228
0.933228
0.933228
0.933228
0.933228
0.933228
0.933228
0.933228
0.933228
0.933228
0.933228
0.933228
0.933228
0.933228
0.933228
0.933228
0.933228
0.933228
0.933228
0.933228
0.933228
0.933228
0.933228
0.933228
0.933228
0.933228
0.933228
0.933228
0.933228
0.933228
0.933228
0.933228
0.933228
0.933228
0.933228
0.933228
0.933228
0.933228
0.933228
0.933228
0.933228
0.933228
0.933228
0.933228
0.933227
0.933227
0.933225
0.933221
0.933208
0.933172
0.933081
0.932886
0.939113
0.939299
0.939386
0.939422
0.939435
0.93944
0.939441
0.939442
0.939442
0.939442
0.939442
0.939442
0.939442
0.939442
0.939442
0.939442
0.939442
0.939442
0.939442
0.939442
0.939442
0.939442
0.939442
0.939442
0.939442
0.939442
0.939442
0.939442
0.939442
0.939442
0.939442
0.939442
0.939442
0.939442
0.939442
0.939442
0.939442
0.939442
0.939442
0.939442
0.939442
0.939442
0.939442
0.939442
0.939442
0.939442
0.939442
0.939442
0.939442
0.939442
0.939442
0.939442
0.939442
0.939441
0.93944
0.939435
0.939422
0.939386
0.939299
0.939113
0.944851
0.945027
0.945112
0.945147
0.94516
0.945165
0.945166
0.945167
0.945167
0.945167
0.945167
0.945167
0.945167
0.945167
0.945167
0.945167
0.945167
0.945167
0.945167
0.945167
0.945167
0.945167
0.945167
0.945167
0.945167
0.945167
0.945167
0.945167
0.945167
0.945167
0.945167
0.945167
0.945167
0.945167
0.945167
0.945167
0.945167
0.945167
0.945167
0.945167
0.945167
0.945167
0.945167
0.945167
0.945167
0.945167
0.945167
0.945167
0.945167
0.945167
0.945167
0.945167
0.945167
0.945166
0.945165
0.94516
0.945147
0.945112
0.945027
0.944851
0.95013
0.950296
0.950378
0.950412
0.950426
0.95043
0.950432
0.950433
0.950433
0.950433
0.950433
0.950433
0.950433
0.950433
0.950433
0.950433
0.950433
0.950433
0.950433
0.950433
0.950433
0.950433
0.950433
0.950433
0.950433
0.950433
0.950433
0.950433
0.950433
0.950433
0.950433
0.950433
0.950433
0.950433
0.950433
0.950433
0.950433
0.950433
0.950433
0.950433
0.950433
0.950433
0.950433
0.950433
0.950433
0.950433
0.950433
0.950433
0.950433
0.950433
0.950433
0.950433
0.950433
0.950432
0.95043
0.950426
0.950412
0.950378
0.950296
0.95013
0.954978
0.955135
0.955213
0.955247
0.95526
0.955265
0.955266
0.955267
0.955267
0.955267
0.955267
0.955267
0.955267
0.955267
0.955267
0.955267
0.955267
0.955267
0.955267
0.955267
0.955267
0.955267
0.955267
0.955267
0.955267
0.955267
0.955267
0.955267
0.955267
0.955267
0.955267
0.955267
0.955267
0.955267
0.955267
0.955267
0.955267
0.955267
0.955267
0.955267
0.955267
0.955267
0.955267
0.955267
0.955267
0.955267
0.955267
0.955267
0.955267
0.955267
0.955267
0.955267
0.955267
0.955266
0.955265
0.95526
0.955247
0.955213
0.955135
0.954978
0.959422
0.959569
0.959644
0.959677
0.95969
0.959695
0.959697
0.959698
0.959698
0.959698
0.959698
0.959698
0.959698
0.959698
0.959698
0.959698
0.959698
0.959698
0.959698
0.959698
0.959698
0.959698
0.959698
0.959698
0.959698
0.959698
0.959698
0.959698
0.959698
0.959698
0.959698
0.959698
0.959698
0.959698
0.959698
0.959698
0.959698
0.959698
0.959698
0.959698
0.959698
0.959698
0.959698
0.959698
0.959698
0.959698
0.959698
0.959698
0.959698
0.959698
0.959698
0.959698
0.959698
0.959697
0.959695
0.95969
0.959677
0.959644
0.959569
0.959422
0.963489
0.963627
0.963698
0.96373
0.963744
0.963749
0.96375
0.963751
0.963751
0.963751
0.963751
0.963751
0.963751
0.963751
0.963751
0.963751
0.963751
0.963751
0.963751
0.963751
0.963751
0.963751
0.963751
0.963751
0.963751
0.963751
0.963751
0.963751
0.963751
0.963751
0.963751
0.963751
0.963751
0.963751
0.963751
0.963751
0.963751
0.963751
0.963751
0.963751
0.963751
0.963751
0.963751
0.963751
0.963751
0.963751
0.963751
0.963751
0.963751
0.963751
0.963751
0.963751
0.963751