/*--------------------------------*- C++ -*----------------------------------*\
| =========                 |                                                 |
| \\      /  F ield         | foam-extend: Open Source CFD                    |
|  \\    /   O peration     | Version:     4.0                                |
|   \\  /    A nd           | Web:         http://www.foam-extend.org         |
|    \\/     M anipulation  |                                                 |
\*---------------------------------------------------------------------------*/
FoamFile
{
    version     2.0;
    format      ascii;
    class       volVectorField;
    location    "15";
    object      bodyForce;
}
// * * * * * * * * * * * * * * * * * * * * * * * * * * * * * * * * * * * * * //

dimensions      [1 -2 -2 0 0 0 0];

internalField   nonuniform List<vector> 
6960
(
(2.21304e-31 -6.21292e-15 -0)
(5.16377e-31 -6.21292e-15 -0)
(-1.10652e-31 -6.21292e-15 -0)
(-8.11449e-31 -6.21292e-15 -0)
(-1.29094e-31 -6.21292e-15 -0)
(1.12496e-30 -6.21292e-15 -0)
(1.0512e-30 -6.21292e-15 -0)
(9.22101e-32 -6.21292e-15 -0)
(-7.37681e-32 -6.21292e-15 -0)
(-4.61051e-31 -6.21292e-15 -0)
(-6.63913e-31 -6.21292e-15 -0)
(-4.42609e-31 -6.21292e-15 -0)
(-2.21304e-31 -6.21292e-15 -0)
(1.65978e-31 -6.21292e-15 -0)
(-2.7663e-31 -6.21292e-15 -0)
(-4.42609e-31 -6.21292e-15 -0)
(6.63913e-31 -6.21292e-15 -0)
(4.79493e-31 -6.21292e-15 -0)
(-8.48333e-31 -6.21292e-15 -0)
(-6.82355e-31 -6.21292e-15 -0)
(-3.31956e-31 -6.21292e-15 -0)
(-2.39746e-31 -6.21292e-15 -0)
(3.68841e-32 -6.21292e-15 -0)
(-2.7663e-31 -6.21292e-15 -0)
(-3.68841e-31 -6.21292e-15 -0)
(4.05725e-31 -6.21292e-15 -0)
(1.65978e-31 -6.21292e-15 -0)
(2.21304e-31 -6.21292e-15 -0)
(6.63913e-31 -6.21292e-15 -0)
(4.79493e-31 -6.21292e-15 -0)
(-2.21304e-31 -6.21292e-15 -0)
(-8.11449e-31 -6.21292e-15 -0)
(-1.65978e-31 -6.21292e-15 -0)
(3.68841e-31 -6.21292e-15 -0)
(3.31956e-31 -6.21292e-15 -0)
(2.7663e-31 -6.21292e-15 -0)
(3.13514e-31 -6.21292e-15 -0)
(-1.65978e-31 -6.21292e-15 -0)
(-7.37681e-32 -6.21292e-15 -0)
(4.61051e-31 -6.21292e-15 -0)
(-1.8442e-32 -6.21292e-15 -0)
(-3.50399e-31 -6.21292e-15 -0)
(5.53261e-31 -6.21292e-15 -0)
(8.66775e-31 -6.21292e-15 -0)
(4.24167e-31 -6.21292e-15 -0)
(-1.47536e-31 -6.21292e-15 -0)
(-2.58188e-31 -6.21292e-15 -0)
(3.13514e-31 -6.21292e-15 -0)
(-0 -6.21292e-15 -0)
(-5.34819e-31 -6.21292e-15 -0)
(-4.97935e-31 -6.21292e-15 -0)
(9.22101e-32 -6.21292e-15 -0)
(-2.58188e-31 -6.21292e-15 -0)
(-3.50399e-31 -6.21292e-15 -0)
(5.71703e-31 -6.21292e-15 -0)
(-3.50399e-31 -6.21292e-15 -0)
(-9.58985e-31 -6.21292e-15 -0)
(-4.61051e-31 -6.21292e-15 -0)
(-3.13514e-31 -6.21292e-15 -0)
(-5.53261e-32 -6.21292e-15 -0)
(1.11008e-30 -6.21292e-15 -0)
(1.64722e-30 -6.21292e-15 -0)
(-5.72947e-31 -6.21292e-15 -0)
(-2.50664e-30 -6.21292e-15 -0)
(-2.86473e-31 -6.21292e-15 -0)
(3.25863e-30 -6.21292e-15 -0)
(2.86473e-30 -6.21292e-15 -0)
(-3.58092e-32 -6.21292e-15 -0)
(-3.58092e-31 -6.21292e-15 -0)
(-1.46818e-30 -6.21292e-15 -0)
(-1.82627e-30 -6.21292e-15 -0)
(-1.39656e-30 -6.21292e-15 -0)
(-8.95229e-31 -6.21292e-15 -0)
(6.80374e-31 -6.21292e-15 -0)
(-8.95229e-31 -6.21292e-15 -0)
(-1.14589e-30 -6.21292e-15 -0)
(2.11274e-30 -6.21292e-15 -0)
(1.43237e-30 -6.21292e-15 -0)
(-2.79311e-30 -6.21292e-15 -0)
(-2.29179e-30 -6.21292e-15 -0)
(-1.00266e-30 -6.21292e-15 -0)
(-1.14589e-30 -6.21292e-15 -0)
(-2.14855e-31 -6.21292e-15 -0)
(-6.08756e-31 -6.21292e-15 -0)
(-1.03847e-30 -6.21292e-15 -0)
(1.14589e-30 -6.21292e-15 -0)
(6.08756e-31 -6.21292e-15 -0)
(7.16183e-31 -6.21292e-15 -0)
(2.3634e-30 -6.21292e-15 -0)
(1.71884e-30 -6.21292e-15 -0)
(-8.23611e-31 -6.21292e-15 -0)
(-3.15121e-30 -6.21292e-15 -0)
(-7.51992e-31 -6.21292e-15 -0)
(1.21751e-30 -6.21292e-15 -0)
(1.21751e-30 -6.21292e-15 -0)
(7.87801e-31 -6.21292e-15 -0)
(9.31038e-31 -6.21292e-15 -0)
(-2.14855e-31 -6.21292e-15 -0)
(1.07427e-31 -6.21292e-15 -0)
(1.46818e-30 -6.21292e-15 -0)
(-1.79046e-31 -6.21292e-15 -0)
(-8.23611e-31 -6.21292e-15 -0)
(1.89789e-30 -6.21292e-15 -0)
(2.3634e-30 -6.21292e-15 -0)
(1.25332e-30 -6.21292e-15 -0)
(-1.07427e-31 -6.21292e-15 -0)
(-1.07427e-30 -6.21292e-15 -0)
(9.31038e-31 -6.21292e-15 -0)
(3.22282e-31 -6.21292e-15 -0)
(-1.89789e-30 -6.21292e-15 -0)
(-1.50398e-30 -6.21292e-15 -0)
(4.2971e-31 -6.21292e-15 -0)
(-7.16183e-31 -6.21292e-15 -0)
(-1.00266e-30 -6.21292e-15 -0)
(1.86208e-30 -6.21292e-15 -0)
(-5.72947e-31 -6.21292e-15 -0)
(-2.90054e-30 -6.21292e-15 -0)
(-1.50398e-30 -6.21292e-15 -0)
(-6.44565e-31 -6.21292e-15 -0)
(7.16183e-32 -6.21292e-15 -0)
(1.25156e-30 -6.21292e-15 -0)
(2.71172e-30 -6.21292e-15 -0)
(-4.86718e-31 -6.21292e-15 -0)
(-3.89375e-30 -6.21292e-15 -0)
(-6.95312e-31 -6.21292e-15 -0)
(5.28437e-30 -6.21292e-15 -0)
(5.42343e-30 -6.21292e-15 -0)
(-6.25781e-31 -6.21292e-15 -0)
(-1.52969e-30 -6.21292e-15 -0)
(-2.43359e-30 -6.21292e-15 -0)
(-2.15547e-30 -6.21292e-15 -0)
(-2.29453e-30 -6.21292e-15 -0)
(-1.80781e-30 -6.21292e-15 -0)
(1.25156e-30 -6.21292e-15 -0)
(-1.32109e-30 -6.21292e-15 -0)
(-2.50312e-30 -6.21292e-15 -0)
(2.92031e-30 -6.21292e-15 -0)
(3.19843e-30 -6.21292e-15 -0)
(-4.17187e-30 -6.21292e-15 -0)
(-4.17187e-30 -6.21292e-15 -0)
(-1.32109e-30 -6.21292e-15 -0)
(-1.87734e-30 -6.21292e-15 -0)
(-1.04297e-30 -6.21292e-15 -0)
(-1.39062e-30 -6.21292e-15 -0)
(-2.08594e-30 -6.21292e-15 -0)
(2.225e-30 -6.21292e-15 -0)
(9.03905e-31 -6.21292e-15 -0)
(6.25781e-31 -6.21292e-15 -0)
(3.54609e-30 -6.21292e-15 -0)
(3.05937e-30 -6.21292e-15 -0)
(-1.46015e-30 -6.21292e-15 -0)
(-4.31093e-30 -6.21292e-15 -0)
(-4.86718e-31 -6.21292e-15 -0)
(1.46015e-30 -6.21292e-15 -0)
(1.52969e-30 -6.21292e-15 -0)
(1.87734e-30 -6.21292e-15 -0)
(1.80781e-30 -6.21292e-15 -0)
(-4.17187e-31 -6.21292e-15 -0)
(2.78125e-31 -6.21292e-15 -0)
(2.85078e-30 -6.21292e-15 -0)
(2.78125e-31 -6.21292e-15 -0)
(-1.94687e-30 -6.21292e-15 -0)
(2.71172e-30 -6.21292e-15 -0)
(4.58906e-30 -6.21292e-15 -0)
(2.15547e-30 -6.21292e-15 -0)
(-2.78125e-31 -6.21292e-15 -0)
(-1.87734e-30 -6.21292e-15 -0)
(1.32109e-30 -6.21292e-15 -0)
(6.25781e-31 -6.21292e-15 -0)
(-2.92031e-30 -6.21292e-15 -0)
(-2.92031e-30 -6.21292e-15 -0)
(3.47656e-31 -6.21292e-15 -0)
(-6.25781e-31 -6.21292e-15 -0)
(-1.39062e-30 -6.21292e-15 -0)
(3.47656e-30 -6.21292e-15 -0)
(-1.59922e-30 -6.21292e-15 -0)
(-5.00624e-30 -6.21292e-15 -0)
(-2.29453e-30 -6.21292e-15 -0)
(-1.52969e-30 -6.21292e-15 -0)
(-1.39062e-31 -6.21292e-15 -0)
(2.02515e-30 -6.21292e-15 -0)
(4.05029e-30 -6.21292e-15 -0)
(-9.45068e-31 -6.21292e-15 -0)
(-5.26538e-30 -6.21292e-15 -0)
(4.05029e-31 -6.21292e-15 -0)
(7.96557e-30 -6.21292e-15 -0)
(6.34546e-30 -6.21292e-15 -0)
(-0 -6.21292e-15 -0)
(-2.70019e-31 -6.21292e-15 -0)
(-4.05029e-30 -6.21292e-15 -0)
(-4.45532e-30 -6.21292e-15 -0)
(-1.89014e-30 -6.21292e-15 -0)
(-2.70019e-30 -6.21292e-15 -0)
(4.05029e-31 -6.21292e-15 -0)
(-1.3501e-30 -6.21292e-15 -0)
(-2.97021e-30 -6.21292e-15 -0)
(4.86035e-30 -6.21292e-15 -0)
(3.91528e-30 -6.21292e-15 -0)
(-6.8855e-30 -6.21292e-15 -0)
(-5.26538e-30 -6.21292e-15 -0)
(-1.89014e-30 -6.21292e-15 -0)
(-2.29517e-30 -6.21292e-15 -0)
(-9.45068e-31 -6.21292e-15 -0)
(-8.10058e-31 -6.21292e-15 -0)
(-2.16016e-30 -6.21292e-15 -0)
(2.16016e-30 -6.21292e-15 -0)
(1.21509e-30 -6.21292e-15 -0)
(1.08008e-30 -6.21292e-15 -0)
(5.40039e-30 -6.21292e-15 -0)
(4.32031e-30 -6.21292e-15 -0)
(-1.75513e-30 -6.21292e-15 -0)
(-6.8855e-30 -6.21292e-15 -0)
(-1.3501e-30 -6.21292e-15 -0)
(3.24023e-30 -6.21292e-15 -0)
(2.97021e-30 -6.21292e-15 -0)
(1.89014e-30 -6.21292e-15 -0)
(1.75513e-30 -6.21292e-15 -0)
(-6.75049e-31 -6.21292e-15 -0)
(-1.3501e-31 -6.21292e-15 -0)
(3.51025e-30 -6.21292e-15 -0)
(-0 -6.21292e-15 -0)
(-2.56518e-30 -6.21292e-15 -0)
(3.91528e-30 -6.21292e-15 -0)
(5.5354e-30 -6.21292e-15 -0)
(2.97021e-30 -6.21292e-15 -0)
(-4.05029e-31 -6.21292e-15 -0)
(-2.56518e-30 -6.21292e-15 -0)
(2.29517e-30 -6.21292e-15 -0)
(1.3501e-30 -6.21292e-15 -0)
(-4.1853e-30 -6.21292e-15 -0)
(-4.45532e-30 -6.21292e-15 -0)
(4.05029e-31 -6.21292e-15 -0)
(-9.45068e-31 -6.21292e-15 -0)
(-2.02515e-30 -6.21292e-15 -0)
(4.32031e-30 -6.21292e-15 -0)
(-2.70019e-30 -6.21292e-15 -0)
(-7.02051e-30 -6.21292e-15 -0)
(-2.97021e-30 -6.21292e-15 -0)
(-2.02515e-30 -6.21292e-15 -0)
(-4.05029e-31 -6.21292e-15 -0)
(2.75258e-30 -6.21292e-15 -0)
(4.84978e-30 -6.21292e-15 -0)
(-1.5729e-30 -6.21292e-15 -0)
(-6.94699e-30 -6.21292e-15 -0)
(-6.55376e-31 -6.21292e-15 -0)
(1.00928e-29 -6.21292e-15 -0)
(9.17526e-30 -6.21292e-15 -0)
(1.17968e-30 -6.21292e-15 -0)
(-2.6215e-31 -6.21292e-15 -0)
(-5.11193e-30 -6.21292e-15 -0)
(-5.63623e-30 -6.21292e-15 -0)
(-3.1458e-30 -6.21292e-15 -0)
(-2.75258e-30 -6.21292e-15 -0)
(1.44183e-30 -6.21292e-15 -0)
(-1.96613e-30 -6.21292e-15 -0)
(-4.32548e-30 -6.21292e-15 -0)
(5.63623e-30 -6.21292e-15 -0)
(5.11193e-30 -6.21292e-15 -0)
(-8.78204e-30 -6.21292e-15 -0)
(-6.29161e-30 -6.21292e-15 -0)
(-9.17526e-31 -6.21292e-15 -0)
(-1.83505e-30 -6.21292e-15 -0)
(-6.55376e-31 -6.21292e-15 -0)
(-2.0972e-30 -6.21292e-15 -0)
(-3.80118e-30 -6.21292e-15 -0)
(3.67011e-30 -6.21292e-15 -0)
(2.0972e-30 -6.21292e-15 -0)
(1.44183e-30 -6.21292e-15 -0)
(6.68483e-30 -6.21292e-15 -0)
(4.71871e-30 -6.21292e-15 -0)
(-3.1458e-30 -6.21292e-15 -0)
(-8.12666e-30 -6.21292e-15 -0)
(-5.24301e-31 -6.21292e-15 -0)
(2.88365e-30 -6.21292e-15 -0)
(2.75258e-30 -6.21292e-15 -0)
(3.53903e-30 -6.21292e-15 -0)
(3.01473e-30 -6.21292e-15 -0)
(-1.83505e-30 -6.21292e-15 -0)
(-0 -6.21292e-15 -0)
(4.32548e-30 -6.21292e-15 -0)
(-1.31075e-30 -6.21292e-15 -0)
(-3.80118e-30 -6.21292e-15 -0)
(5.11193e-30 -6.21292e-15 -0)
(8.38881e-30 -6.21292e-15 -0)
(3.80118e-30 -6.21292e-15 -0)
(-1.44183e-30 -6.21292e-15 -0)
(-2.22828e-30 -6.21292e-15 -0)
(3.53903e-30 -6.21292e-15 -0)
(9.17526e-31 -6.21292e-15 -0)
(-5.24301e-30 -6.21292e-15 -0)
(-6.16053e-30 -6.21292e-15 -0)
(1.31075e-31 -6.21292e-15 -0)
(-2.6215e-30 -6.21292e-15 -0)
(-3.27688e-30 -6.21292e-15 -0)
(5.24301e-30 -6.21292e-15 -0)
(-2.88365e-30 -6.21292e-15 -0)
(-8.25774e-30 -6.21292e-15 -0)
(-4.45656e-30 -6.21292e-15 -0)
(-2.35935e-30 -6.21292e-15 -0)
(-0 -6.21292e-15 -0)
(3.94492e-30 -6.21292e-15 -0)
(6.23551e-30 -6.21292e-15 -0)
(-1.27255e-30 -6.21292e-15 -0)
(-8.78062e-30 -6.21292e-15 -0)
(-1.1453e-30 -6.21292e-15 -0)
(1.2471e-29 -6.21292e-15 -0)
(1.08167e-29 -6.21292e-15 -0)
(8.90787e-31 -6.21292e-15 -0)
(-1.90883e-30 -6.21292e-15 -0)
(-6.23551e-30 -6.21292e-15 -0)
(-6.74453e-30 -6.21292e-15 -0)
(-5.21747e-30 -6.21292e-15 -0)
(-2.03609e-30 -6.21292e-15 -0)
(2.54511e-30 -6.21292e-15 -0)
(-3.94492e-30 -6.21292e-15 -0)
(-5.72649e-30 -6.21292e-15 -0)
(6.87179e-30 -6.21292e-15 -0)
(6.87179e-30 -6.21292e-15 -0)
(-1.04349e-29 -6.21292e-15 -0)
(-8.2716e-30 -6.21292e-15 -0)
(-3.56315e-30 -6.21292e-15 -0)
(-3.94492e-30 -6.21292e-15 -0)
(-6.36277e-31 -6.21292e-15 -0)
(-2.92687e-30 -6.21292e-15 -0)
(-4.8357e-30 -6.21292e-15 -0)
(4.8357e-30 -6.21292e-15 -0)
(2.67236e-30 -6.21292e-15 -0)
(1.1453e-30 -6.21292e-15 -0)
(8.14434e-30 -6.21292e-15 -0)
(5.981e-30 -6.21292e-15 -0)
(-4.19943e-30 -6.21292e-15 -0)
(-1.04349e-29 -6.21292e-15 -0)
(5.09021e-31 -6.21292e-15 -0)
(4.70845e-30 -6.21292e-15 -0)
(3.18138e-30 -6.21292e-15 -0)
(3.05413e-30 -6.21292e-15 -0)
(3.43589e-30 -6.21292e-15 -0)
(-1.1453e-30 -6.21292e-15 -0)
(5.09021e-31 -6.21292e-15 -0)
(5.981e-30 -6.21292e-15 -0)
(-1.27255e-31 -6.21292e-15 -0)
(-3.43589e-30 -6.21292e-15 -0)
(6.74453e-30 -6.21292e-15 -0)
(8.78062e-30 -6.21292e-15 -0)
(4.96296e-30 -6.21292e-15 -0)
(2.54511e-31 -6.21292e-15 -0)
(-4.07217e-30 -6.21292e-15 -0)
(3.56315e-30 -6.21292e-15 -0)
(1.90883e-30 -6.21292e-15 -0)
(-7.50806e-30 -6.21292e-15 -0)
(-6.61728e-30 -6.21292e-15 -0)
(2.03609e-30 -6.21292e-15 -0)
(-2.54511e-30 -6.21292e-15 -0)
(-3.94492e-30 -6.21292e-15 -0)
(6.74453e-30 -6.21292e-15 -0)
(-3.56315e-30 -6.21292e-15 -0)
(-1.00532e-29 -6.21292e-15 -0)
(-4.70845e-30 -6.21292e-15 -0)
(-2.92687e-30 -6.21292e-15 -0)
(-0 -6.21292e-15 -0)
(4.44768e-30 -6.21292e-15 -0)
(8.89537e-30 -6.21292e-15 -0)
(-7.41281e-31 -6.21292e-15 -0)
(-9.63665e-30 -6.21292e-15 -0)
(2.47094e-31 -6.21292e-15 -0)
(1.45785e-29 -6.21292e-15 -0)
(1.33431e-29 -6.21292e-15 -0)
(7.41281e-31 -6.21292e-15 -0)
(-2.22384e-30 -6.21292e-15 -0)
(-7.16571e-30 -6.21292e-15 -0)
(-7.90699e-30 -6.21292e-15 -0)
(-4.94187e-30 -6.21292e-15 -0)
(-5.18896e-30 -6.21292e-15 -0)
(1.72965e-30 -6.21292e-15 -0)
(-2.71803e-30 -6.21292e-15 -0)
(-5.68315e-30 -6.21292e-15 -0)
(9.14246e-30 -6.21292e-15 -0)
(7.6599e-30 -6.21292e-15 -0)
(-1.3096e-29 -6.21292e-15 -0)
(-1.03779e-29 -6.21292e-15 -0)
(-3.9535e-30 -6.21292e-15 -0)
(-3.9535e-30 -6.21292e-15 -0)
(-2.47094e-31 -6.21292e-15 -0)
(-2.47094e-30 -6.21292e-15 -0)
(-4.69478e-30 -6.21292e-15 -0)
(4.69478e-30 -6.21292e-15 -0)
(2.22384e-30 -6.21292e-15 -0)
(1.23547e-30 -6.21292e-15 -0)
(9.88374e-30 -6.21292e-15 -0)
(7.90699e-30 -6.21292e-15 -0)
(-5.68315e-30 -6.21292e-15 -0)
(-1.26018e-29 -6.21292e-15 -0)
(-2.47094e-31 -6.21292e-15 -0)
(5.68315e-30 -6.21292e-15 -0)
(5.43606e-30 -6.21292e-15 -0)
(4.20059e-30 -6.21292e-15 -0)
(3.7064e-30 -6.21292e-15 -0)
(-1.97675e-30 -6.21292e-15 -0)
(-0 -6.21292e-15 -0)
(6.67153e-30 -6.21292e-15 -0)
(2.47094e-31 -6.21292e-15 -0)
(-4.69478e-30 -6.21292e-15 -0)
(6.67153e-30 -6.21292e-15 -0)
(1.11192e-29 -6.21292e-15 -0)
(6.42443e-30 -6.21292e-15 -0)
(-9.88374e-31 -6.21292e-15 -0)
(-3.45931e-30 -6.21292e-15 -0)
(4.94187e-30 -6.21292e-15 -0)
(1.23547e-30 -6.21292e-15 -0)
(-8.89537e-30 -6.21292e-15 -0)
(-7.41281e-30 -6.21292e-15 -0)
(1.23547e-30 -6.21292e-15 -0)
(-2.22384e-30 -6.21292e-15 -0)
(-3.45931e-30 -6.21292e-15 -0)
(7.6599e-30 -6.21292e-15 -0)
(-4.69478e-30 -6.21292e-15 -0)
(-1.33431e-29 -6.21292e-15 -0)
(-7.41281e-30 -6.21292e-15 -0)
(-3.45931e-30 -6.21292e-15 -0)
(7.41281e-31 -6.21292e-15 -0)
(4.55796e-30 -6.21292e-15 -0)
(8.63613e-30 -6.21292e-15 -0)
(-9.5957e-31 -6.21292e-15 -0)
(-1.22345e-29 -6.21292e-15 -0)
(-2.39893e-30 -6.21292e-15 -0)
(1.87116e-29 -6.21292e-15 -0)
(1.63127e-29 -6.21292e-15 -0)
(1.19946e-30 -6.21292e-15 -0)
(-2.15903e-30 -6.21292e-15 -0)
(-7.91646e-30 -6.21292e-15 -0)
(-9.5957e-30 -6.21292e-15 -0)
(-6.95689e-30 -6.21292e-15 -0)
(-3.83828e-30 -6.21292e-15 -0)
(2.63882e-30 -6.21292e-15 -0)
(-4.79785e-30 -6.21292e-15 -0)
(-6.95689e-30 -6.21292e-15 -0)
(9.8356e-30 -6.21292e-15 -0)
(8.87603e-30 -6.21292e-15 -0)
(-1.41537e-29 -6.21292e-15 -0)
(-1.24744e-29 -6.21292e-15 -0)
(-3.1186e-30 -6.21292e-15 -0)
(-2.87871e-30 -6.21292e-15 -0)
(2.39893e-31 -6.21292e-15 -0)
(-4.55796e-30 -6.21292e-15 -0)
(-7.43667e-30 -6.21292e-15 -0)
(7.67656e-30 -6.21292e-15 -0)
(2.63882e-30 -6.21292e-15 -0)
(7.19678e-31 -6.21292e-15 -0)
(1.3434e-29 -6.21292e-15 -0)
(1.00755e-29 -6.21292e-15 -0)
(-7.19678e-30 -6.21292e-15 -0)
(-1.60728e-29 -6.21292e-15 -0)
(2.39893e-31 -6.21292e-15 -0)
(7.19678e-30 -6.21292e-15 -0)
(4.31807e-30 -6.21292e-15 -0)
(4.55796e-30 -6.21292e-15 -0)
(6.4771e-30 -6.21292e-15 -0)
(-2.15903e-30 -6.21292e-15 -0)
(-1.43936e-30 -6.21292e-15 -0)
(6.23721e-30 -6.21292e-15 -0)
(-2.39893e-31 -6.21292e-15 -0)
(-6.23721e-30 -6.21292e-15 -0)
(7.91646e-30 -6.21292e-15 -0)
(1.48733e-29 -6.21292e-15 -0)
(7.19678e-30 -6.21292e-15 -0)
(-1.91914e-30 -6.21292e-15 -0)
(-4.07817e-30 -6.21292e-15 -0)
(5.99732e-30 -6.21292e-15 -0)
(2.39893e-31 -6.21292e-15 -0)
(-1.00755e-29 -6.21292e-15 -0)
(-9.11592e-30 -6.21292e-15 -0)
(1.43936e-30 -6.21292e-15 -0)
(-1.91914e-30 -6.21292e-15 -0)
(-4.79785e-30 -6.21292e-15 -0)
(7.67656e-30 -6.21292e-15 -0)
(-7.43667e-30 -6.21292e-15 -0)
(-1.5593e-29 -6.21292e-15 -0)
(-7.91646e-30 -6.21292e-15 -0)
(-4.31807e-30 -6.21292e-15 -0)
(7.19678e-31 -6.21292e-15 -0)
(5.35674e-30 -6.21292e-15 -0)
(9.78186e-30 -6.21292e-15 -0)
(-2.56192e-30 -6.21292e-15 -0)
(-1.28096e-29 -6.21292e-15 -0)
(-9.31606e-31 -6.21292e-15 -0)
(1.90979e-29 -6.21292e-15 -0)
(1.77005e-29 -6.21292e-15 -0)
(1.86321e-30 -6.21292e-15 -0)
(-1.39741e-30 -6.21292e-15 -0)
(-1.00148e-29 -6.21292e-15 -0)
(-1.04806e-29 -6.21292e-15 -0)
(-6.75414e-30 -6.21292e-15 -0)
(-4.19223e-30 -6.21292e-15 -0)
(2.79482e-30 -6.21292e-15 -0)
(-5.35674e-30 -6.21292e-15 -0)
(-7.45285e-30 -6.21292e-15 -0)
(1.14122e-29 -6.21292e-15 -0)
(1.00148e-29 -6.21292e-15 -0)
(-1.70018e-29 -6.21292e-15 -0)
(-1.28096e-29 -6.21292e-15 -0)
(-2.56192e-30 -6.21292e-15 -0)
(-3.95933e-30 -6.21292e-15 -0)
(-9.31606e-31 -6.21292e-15 -0)
(-5.35674e-30 -6.21292e-15 -0)
(-6.75414e-30 -6.21292e-15 -0)
(8.15155e-30 -6.21292e-15 -0)
(4.89093e-30 -6.21292e-15 -0)
(2.79482e-30 -6.21292e-15 -0)
(1.39741e-29 -6.21292e-15 -0)
(1.11793e-29 -6.21292e-15 -0)
(-7.21995e-30 -6.21292e-15 -0)
(-1.74676e-29 -6.21292e-15 -0)
(-1.16451e-30 -6.21292e-15 -0)
(4.89093e-30 -6.21292e-15 -0)
(5.58964e-30 -6.21292e-15 -0)
(6.52124e-30 -6.21292e-15 -0)
(5.82254e-30 -6.21292e-15 -0)
(-2.32902e-30 -6.21292e-15 -0)
(2.32902e-31 -6.21292e-15 -0)
(7.91865e-30 -6.21292e-15 -0)
(-1.86321e-30 -6.21292e-15 -0)
(-7.68575e-30 -6.21292e-15 -0)
(9.08316e-30 -6.21292e-15 -0)
(1.53715e-29 -6.21292e-15 -0)
(8.38446e-30 -6.21292e-15 -0)
(-2.09611e-30 -6.21292e-15 -0)
(-4.19223e-30 -6.21292e-15 -0)
(7.21995e-30 -6.21292e-15 -0)
(1.39741e-30 -6.21292e-15 -0)
(-1.11793e-29 -6.21292e-15 -0)
(-1.16451e-29 -6.21292e-15 -0)
(6.98705e-31 -6.21292e-15 -0)
(-3.26062e-30 -6.21292e-15 -0)
(-6.28834e-30 -6.21292e-15 -0)
(9.78186e-30 -6.21292e-15 -0)
(-5.35674e-30 -6.21292e-15 -0)
(-1.79334e-29 -6.21292e-15 -0)
(-1.02477e-29 -6.21292e-15 -0)
(-4.89093e-30 -6.21292e-15 -0)
(9.31606e-31 -6.21292e-15 -0)
(4.97451e-30 -6.21292e-15 -0)
(1.22102e-29 -6.21292e-15 -0)
(-9.04457e-31 -6.21292e-15 -0)
(-1.53758e-29 -6.21292e-15 -0)
(-4.52228e-31 -6.21292e-15 -0)
(2.01242e-29 -6.21292e-15 -0)
(1.89936e-29 -6.21292e-15 -0)
(2.71337e-30 -6.21292e-15 -0)
(-5.20063e-30 -6.21292e-15 -0)
(-1.19841e-29 -6.21292e-15 -0)
(-1.04013e-29 -6.21292e-15 -0)
(-1.04013e-29 -6.21292e-15 -0)
(-5.42674e-30 -6.21292e-15 -0)
(7.00954e-30 -6.21292e-15 -0)
(-7.914e-30 -6.21292e-15 -0)
(-1.04013e-29 -6.21292e-15 -0)
(1.28885e-29 -6.21292e-15 -0)
(1.22102e-29 -6.21292e-15 -0)
(-1.71847e-29 -6.21292e-15 -0)
(-1.74108e-29 -6.21292e-15 -0)
(-8.36623e-30 -6.21292e-15 -0)
(-6.78343e-30 -6.21292e-15 -0)
(-2.03503e-30 -6.21292e-15 -0)
(-5.87897e-30 -6.21292e-15 -0)
(-8.36623e-30 -6.21292e-15 -0)
(8.81845e-30 -6.21292e-15 -0)
(5.42674e-30 -6.21292e-15 -0)
(2.48726e-30 -6.21292e-15 -0)
(1.62802e-29 -6.21292e-15 -0)
(1.28885e-29 -6.21292e-15 -0)
(-8.81845e-30 -6.21292e-15 -0)
(-1.89936e-29 -6.21292e-15 -0)
(-9.04457e-31 -6.21292e-15 -0)
(6.3312e-30 -6.21292e-15 -0)
(6.10508e-30 -6.21292e-15 -0)
(5.87897e-30 -6.21292e-15 -0)
(7.914e-30 -6.21292e-15 -0)
(-9.04457e-31 -6.21292e-15 -0)
(2.48726e-30 -6.21292e-15 -0)
(1.22102e-29 -6.21292e-15 -0)
(-4.52228e-31 -6.21292e-15 -0)
(-6.55731e-30 -6.21292e-15 -0)
(8.14011e-30 -6.21292e-15 -0)
(1.51497e-29 -6.21292e-15 -0)
(9.94902e-30 -6.21292e-15 -0)
(2.03503e-30 -6.21292e-15 -0)
(-6.10508e-30 -6.21292e-15 -0)
(5.65285e-30 -6.21292e-15 -0)
(4.29617e-30 -6.21292e-15 -0)
(-1.28885e-29 -6.21292e-15 -0)
(-1.46974e-29 -6.21292e-15 -0)
(2.93948e-30 -6.21292e-15 -0)
(-0 -6.21292e-15 -0)
(-4.07006e-30 -6.21292e-15 -0)
(1.04013e-29 -6.21292e-15 -0)
(-8.81845e-30 -6.21292e-15 -0)
(-1.9898e-29 -6.21292e-15 -0)
(-1.26624e-29 -6.21292e-15 -0)
(-4.52228e-30 -6.21292e-15 -0)
(2.48726e-30 -6.21292e-15 -0)
(7.46384e-30 -6.21292e-15 -0)
(1.18543e-29 -6.21292e-15 -0)
(-2.6343e-30 -6.21292e-15 -0)
(-1.49277e-29 -6.21292e-15 -0)
(-1.7562e-30 -6.21292e-15 -0)
(2.37087e-29 -6.21292e-15 -0)
(2.15134e-29 -6.21292e-15 -0)
(4.39049e-31 -6.21292e-15 -0)
(-4.82954e-30 -6.21292e-15 -0)
(-1.36105e-29 -6.21292e-15 -0)
(-1.27324e-29 -6.21292e-15 -0)
(-1.14153e-29 -6.21292e-15 -0)
(-4.82954e-30 -6.21292e-15 -0)
(5.70764e-30 -6.21292e-15 -0)
(-8.78099e-30 -6.21292e-15 -0)
(-7.90289e-30 -6.21292e-15 -0)
(1.62448e-29 -6.21292e-15 -0)
(1.18543e-29 -6.21292e-15 -0)
(-2.19525e-29 -6.21292e-15 -0)
(-1.8001e-29 -6.21292e-15 -0)
(-7.46384e-30 -6.21292e-15 -0)
(-8.78099e-30 -6.21292e-15 -0)
(-2.19525e-30 -6.21292e-15 -0)
(-5.26859e-30 -6.21292e-15 -0)
(-8.34194e-30 -6.21292e-15 -0)
(8.78099e-30 -6.21292e-15 -0)
(4.39049e-30 -6.21292e-15 -0)
(5.70764e-30 -6.21292e-15 -0)
(2.10744e-29 -6.21292e-15 -0)
(1.40496e-29 -6.21292e-15 -0)
(-7.02479e-30 -6.21292e-15 -0)
(-2.6343e-29 -6.21292e-15 -0)
(-3.95144e-30 -6.21292e-15 -0)
(9.65908e-30 -6.21292e-15 -0)
(6.58574e-30 -6.21292e-15 -0)
(5.26859e-30 -6.21292e-15 -0)
(7.90289e-30 -6.21292e-15 -0)
(-8.78099e-31 -6.21292e-15 -0)
(4.39049e-31 -6.21292e-15 -0)
(1.09762e-29 -6.21292e-15 -0)
(-1.31715e-30 -6.21292e-15 -0)
(-6.14669e-30 -6.21292e-15 -0)
(1.31715e-29 -6.21292e-15 -0)
(1.66839e-29 -6.21292e-15 -0)
(1.00981e-29 -6.21292e-15 -0)
(3.95144e-30 -6.21292e-15 -0)
(-7.02479e-30 -6.21292e-15 -0)
(6.14669e-30 -6.21292e-15 -0)
(2.19525e-30 -6.21292e-15 -0)
(-1.62448e-29 -6.21292e-15 -0)
(-1.22934e-29 -6.21292e-15 -0)
(3.51239e-30 -6.21292e-15 -0)
(-8.78099e-31 -6.21292e-15 -0)
(-5.70764e-30 -6.21292e-15 -0)
(1.22934e-29 -6.21292e-15 -0)
(-4.82954e-30 -6.21292e-15 -0)
(-2.28306e-29 -6.21292e-15 -0)
(-1.53667e-29 -6.21292e-15 -0)
(-7.02479e-30 -6.21292e-15 -0)
(4.39049e-31 -6.21292e-15 -0)
(6.39381e-30 -6.21292e-15 -0)
(1.23614e-29 -6.21292e-15 -0)
(-1.27876e-30 -6.21292e-15 -0)
(-1.61977e-29 -6.21292e-15 -0)
(-1.27876e-30 -6.21292e-15 -0)
(2.60015e-29 -6.21292e-15 -0)
(2.5149e-29 -6.21292e-15 -0)
(1.70502e-30 -6.21292e-15 -0)
(-5.54131e-30 -6.21292e-15 -0)
(-1.40664e-29 -6.21292e-15 -0)
(-1.61977e-29 -6.21292e-15 -0)
(-1.06564e-29 -6.21292e-15 -0)
(-6.39381e-30 -6.21292e-15 -0)
(5.11505e-30 -6.21292e-15 -0)
(-8.09883e-30 -6.21292e-15 -0)
(-8.95134e-30 -6.21292e-15 -0)
(1.91814e-29 -6.21292e-15 -0)
(1.15089e-29 -6.21292e-15 -0)
(-2.42965e-29 -6.21292e-15 -0)
(-2.08865e-29 -6.21292e-15 -0)
(-8.95134e-30 -6.21292e-15 -0)
(-5.54131e-30 -6.21292e-15 -0)
(-0 -6.21292e-15 -0)
(-7.67258e-30 -6.21292e-15 -0)
(-8.95134e-30 -6.21292e-15 -0)
(1.23614e-29 -6.21292e-15 -0)
(3.83629e-30 -6.21292e-15 -0)
(2.13127e-30 -6.21292e-15 -0)
(2.04602e-29 -6.21292e-15 -0)
(1.57714e-29 -6.21292e-15 -0)
(-1.15089e-29 -6.21292e-15 -0)
(-2.38702e-29 -6.21292e-15 -0)
(2.13127e-30 -6.21292e-15 -0)
(9.37759e-30 -6.21292e-15 -0)
(4.6888e-30 -6.21292e-15 -0)
(5.11505e-30 -6.21292e-15 -0)
(9.80385e-30 -6.21292e-15 -0)
(-1.70502e-30 -6.21292e-15 -0)
(-8.52509e-31 -6.21292e-15 -0)
(1.40664e-29 -6.21292e-15 -0)
(-4.26254e-31 -6.21292e-15 -0)
(-8.52509e-30 -6.21292e-15 -0)
(1.02301e-29 -6.21292e-15 -0)
(1.96077e-29 -6.21292e-15 -0)
(1.40664e-29 -6.21292e-15 -0)
(8.52509e-31 -6.21292e-15 -0)
(-7.67258e-30 -6.21292e-15 -0)
(8.09883e-30 -6.21292e-15 -0)
(3.41003e-30 -6.21292e-15 -0)
(-1.70502e-29 -6.21292e-15 -0)
(-1.49189e-29 -6.21292e-15 -0)
(4.26254e-30 -6.21292e-15 -0)
(-0 -6.21292e-15 -0)
(-6.82007e-30 -6.21292e-15 -0)
(1.23614e-29 -6.21292e-15 -0)
(-8.52509e-30 -6.21292e-15 -0)
(-2.55753e-29 -6.21292e-15 -0)
(-1.44926e-29 -6.21292e-15 -0)
(-7.24632e-30 -6.21292e-15 -0)
(1.70502e-30 -6.21292e-15 -0)
(7.44898e-30 -6.21292e-15 -0)
(1.36565e-29 -6.21292e-15 -0)
(-1.65533e-30 -6.21292e-15 -0)
(-1.4898e-29 -6.21292e-15 -0)
(3.31066e-30 -6.21292e-15 -0)
(3.10374e-29 -6.21292e-15 -0)
(2.64853e-29 -6.21292e-15 -0)
(1.2415e-30 -6.21292e-15 -0)
(-7.03515e-30 -6.21292e-15 -0)
(-1.57256e-29 -6.21292e-15 -0)
(-1.4898e-29 -6.21292e-15 -0)
(-1.36565e-29 -6.21292e-15 -0)
(-8.69047e-30 -6.21292e-15 -0)
(5.79365e-30 -6.21292e-15 -0)
(-9.93197e-30 -6.21292e-15 -0)
(-1.32426e-29 -6.21292e-15 -0)
(2.35884e-29 -6.21292e-15 -0)
(1.61395e-29 -6.21292e-15 -0)
(-2.77268e-29 -6.21292e-15 -0)
(-2.44161e-29 -6.21292e-15 -0)
(-6.62131e-30 -6.21292e-15 -0)
(-4.13832e-30 -6.21292e-15 -0)
(-2.06916e-30 -6.21292e-15 -0)
(-6.20748e-30 -6.21292e-15 -0)
(-9.93197e-30 -6.21292e-15 -0)
(9.10431e-30 -6.21292e-15 -0)
(4.55215e-30 -6.21292e-15 -0)
(4.96599e-30 -6.21292e-15 -0)
(2.27608e-29 -6.21292e-15 -0)
(1.69671e-29 -6.21292e-15 -0)
(-1.15873e-29 -6.21292e-15 -0)
(-2.64853e-29 -6.21292e-15 -0)
(-2.06916e-30 -6.21292e-15 -0)
(8.69047e-30 -6.21292e-15 -0)
(9.93197e-30 -6.21292e-15 -0)
(9.93197e-30 -6.21292e-15 -0)
(8.27664e-30 -6.21292e-15 -0)
(-4.13832e-30 -6.21292e-15 -0)
(-4.13832e-30 -6.21292e-15 -0)
(1.36565e-29 -6.21292e-15 -0)
(2.06916e-30 -6.21292e-15 -0)
(-7.86281e-30 -6.21292e-15 -0)
(1.15873e-29 -6.21292e-15 -0)
(2.11054e-29 -6.21292e-15 -0)
(1.28288e-29 -6.21292e-15 -0)
(-1.2415e-30 -6.21292e-15 -0)
(-4.96599e-30 -6.21292e-15 -0)
(9.93197e-30 -6.21292e-15 -0)
(4.13832e-31 -6.21292e-15 -0)
(-1.73809e-29 -6.21292e-15 -0)
(-1.65533e-29 -6.21292e-15 -0)
(2.48299e-30 -6.21292e-15 -0)
(1.65533e-30 -6.21292e-15 -0)
(-4.96599e-30 -6.21292e-15 -0)
(1.2415e-29 -6.21292e-15 -0)
(-9.10431e-30 -6.21292e-15 -0)
(-2.89682e-29 -6.21292e-15 -0)
(-1.98639e-29 -6.21292e-15 -0)
(-9.93197e-30 -6.21292e-15 -0)
(-0 -6.21292e-15 -0)
(8.03544e-30 -6.21292e-15 -0)
(1.68744e-29 -6.21292e-15 -0)
(-1.20532e-30 -6.21292e-15 -0)
(-2.08921e-29 -6.21292e-15 -0)
(-1.20532e-30 -6.21292e-15 -0)
(3.174e-29 -6.21292e-15 -0)
(3.09364e-29 -6.21292e-15 -0)
(3.21418e-30 -6.21292e-15 -0)
(-5.62481e-30 -6.21292e-15 -0)
(-1.48656e-29 -6.21292e-15 -0)
(-1.84815e-29 -6.21292e-15 -0)
(-1.7678e-29 -6.21292e-15 -0)
(-6.42835e-30 -6.21292e-15 -0)
(8.03544e-30 -6.21292e-15 -0)
(-1.12496e-29 -6.21292e-15 -0)
(-1.20532e-29 -6.21292e-15 -0)
(2.33028e-29 -6.21292e-15 -0)
(1.72762e-29 -6.21292e-15 -0)
(-2.6517e-29 -6.21292e-15 -0)
(-2.85258e-29 -6.21292e-15 -0)
(-9.64253e-30 -6.21292e-15 -0)
(-3.21418e-30 -6.21292e-15 -0)
(2.41063e-30 -6.21292e-15 -0)
(-9.24076e-30 -6.21292e-15 -0)
(-1.16514e-29 -6.21292e-15 -0)
(1.32585e-29 -6.21292e-15 -0)
(3.61595e-30 -6.21292e-15 -0)
(3.21418e-30 -6.21292e-15 -0)
(2.33028e-29 -6.21292e-15 -0)
(1.80797e-29 -6.21292e-15 -0)
(-1.24549e-29 -6.21292e-15 -0)
(-2.77223e-29 -6.21292e-15 -0)
(3.21418e-30 -6.21292e-15 -0)
(9.24076e-30 -6.21292e-15 -0)
(6.42835e-30 -6.21292e-15 -0)
(1.08478e-29 -6.21292e-15 -0)
(9.24076e-30 -6.21292e-15 -0)
(-6.02658e-30 -6.21292e-15 -0)
(-2.00886e-30 -6.21292e-15 -0)
(1.32585e-29 -6.21292e-15 -0)
(2.41063e-30 -6.21292e-15 -0)
(-8.83898e-30 -6.21292e-15 -0)
(1.04461e-29 -6.21292e-15 -0)
(2.61152e-29 -6.21292e-15 -0)
(1.4062e-29 -6.21292e-15 -0)
(-3.61595e-30 -6.21292e-15 -0)
(-3.61595e-30 -6.21292e-15 -0)
(1.20532e-29 -6.21292e-15 -0)
(-2.8124e-30 -6.21292e-15 -0)
(-1.88833e-29 -6.21292e-15 -0)
(-1.48656e-29 -6.21292e-15 -0)
(8.03544e-31 -6.21292e-15 -0)
(-1.60709e-30 -6.21292e-15 -0)
(-6.02658e-30 -6.21292e-15 -0)
(1.12496e-29 -6.21292e-15 -0)
(-1.04461e-29 -6.21292e-15 -0)
(-3.09364e-29 -6.21292e-15 -0)
(-2.20975e-29 -6.21292e-15 -0)
(-9.24076e-30 -6.21292e-15 -0)
(2.00886e-30 -6.21292e-15 -0)
(7.4112e-30 -6.21292e-15 -0)
(1.75529e-29 -6.21292e-15 -0)
(-1.17019e-30 -6.21292e-15 -0)
(-1.91131e-29 -6.21292e-15 -0)
(7.80127e-31 -6.21292e-15 -0)
(3.12051e-29 -6.21292e-15 -0)
(3.12051e-29 -6.21292e-15 -0)
(2.34038e-30 -6.21292e-15 -0)
(-4.2907e-30 -6.21292e-15 -0)
(-1.28721e-29 -6.21292e-15 -0)
(-2.30137e-29 -6.21292e-15 -0)
(-1.8333e-29 -6.21292e-15 -0)
(-4.68076e-30 -6.21292e-15 -0)
(7.02114e-30 -6.21292e-15 -0)
(-1.44323e-29 -6.21292e-15 -0)
(-1.2092e-29 -6.21292e-15 -0)
(2.53541e-29 -6.21292e-15 -0)
(1.95032e-29 -6.21292e-15 -0)
(-3.00349e-29 -6.21292e-15 -0)
(-2.92548e-29 -6.21292e-15 -0)
(-7.4112e-30 -6.21292e-15 -0)
(-1.56025e-30 -6.21292e-15 -0)
(-1.17019e-30 -6.21292e-15 -0)
(-1.2482e-29 -6.21292e-15 -0)
(-9.75158e-30 -6.21292e-15 -0)
(1.32622e-29 -6.21292e-15 -0)
(1.56025e-30 -6.21292e-15 -0)
(5.85095e-30 -6.21292e-15 -0)
(2.80846e-29 -6.21292e-15 -0)
(1.91131e-29 -6.21292e-15 -0)
(-9.75158e-30 -6.21292e-15 -0)
(-3.27653e-29 -6.21292e-15 -0)
(-2.34038e-30 -6.21292e-15 -0)
(1.13118e-29 -6.21292e-15 -0)
(1.05317e-29 -6.21292e-15 -0)
(1.05317e-29 -6.21292e-15 -0)
(9.75158e-30 -6.21292e-15 -0)
(-4.68076e-30 -6.21292e-15 -0)
(-3.90063e-30 -6.21292e-15 -0)
(1.13118e-29 -6.21292e-15 -0)
(2.34038e-30 -6.21292e-15 -0)
(-9.36152e-30 -6.21292e-15 -0)
(1.28721e-29 -6.21292e-15 -0)
(2.69144e-29 -6.21292e-15 -0)
(1.32622e-29 -6.21292e-15 -0)
(-1.56025e-30 -6.21292e-15 -0)
(-4.2907e-30 -6.21292e-15 -0)
(1.28721e-29 -6.21292e-15 -0)
(-1.17019e-30 -6.21292e-15 -0)
(-1.91131e-29 -6.21292e-15 -0)
(-1.8723e-29 -6.21292e-15 -0)
(1.17019e-30 -6.21292e-15 -0)
(-1.17019e-30 -6.21292e-15 -0)
(-1.01416e-29 -6.21292e-15 -0)
(1.2482e-29 -6.21292e-15 -0)
(-8.58139e-30 -6.21292e-15 -0)
(-3.0815e-29 -6.21292e-15 -0)
(-2.34038e-29 -6.21292e-15 -0)
(-9.75158e-30 -6.21292e-15 -0)
(1.17019e-30 -6.21292e-15 -0)
(9.84609e-30 -6.21292e-15 -0)
(1.89348e-29 -6.21292e-15 -0)
(-3.78696e-30 -6.21292e-15 -0)
(-1.96922e-29 -6.21292e-15 -0)
(1.51478e-30 -6.21292e-15 -0)
(3.484e-29 -6.21292e-15 -0)
(3.10531e-29 -6.21292e-15 -0)
(3.02957e-30 -6.21292e-15 -0)
(1.51478e-30 -6.21292e-15 -0)
(-1.66626e-29 -6.21292e-15 -0)
(-2.42365e-29 -6.21292e-15 -0)
(-2.04496e-29 -6.21292e-15 -0)
(-6.81653e-30 -6.21292e-15 -0)
(9.84609e-30 -6.21292e-15 -0)
(-1.51478e-29 -6.21292e-15 -0)
(-1.28757e-29 -6.21292e-15 -0)
(2.57513e-29 -6.21292e-15 -0)
(2.1207e-29 -6.21292e-15 -0)
(-2.87809e-29 -6.21292e-15 -0)
(-3.40826e-29 -6.21292e-15 -0)
(-7.57392e-30 -6.21292e-15 -0)
(-0 -6.21292e-15 -0)
(-7.57392e-31 -6.21292e-15 -0)
(-1.36331e-29 -6.21292e-15 -0)
(-1.51478e-29 -6.21292e-15 -0)
(1.43904e-29 -6.21292e-15 -0)
(2.27218e-30 -6.21292e-15 -0)
(6.81653e-30 -6.21292e-15 -0)
(3.25678e-29 -6.21292e-15 -0)
(2.27218e-29 -6.21292e-15 -0)
(-1.21183e-29 -6.21292e-15 -0)
(-3.484e-29 -6.21292e-15 -0)
(-3.02957e-30 -6.21292e-15 -0)
(8.33131e-30 -6.21292e-15 -0)
(9.0887e-30 -6.21292e-15 -0)
(1.51478e-29 -6.21292e-15 -0)
(7.57392e-30 -6.21292e-15 -0)
(-5.30174e-30 -6.21292e-15 -0)
(1.51478e-30 -6.21292e-15 -0)
(1.21183e-29 -6.21292e-15 -0)
(1.51478e-30 -6.21292e-15 -0)
(-1.06035e-29 -6.21292e-15 -0)
(9.84609e-30 -6.21292e-15 -0)
(2.95383e-29 -6.21292e-15 -0)
(1.66626e-29 -6.21292e-15 -0)
(-4.54435e-30 -6.21292e-15 -0)
(-3.02957e-30 -6.21292e-15 -0)
(1.43904e-29 -6.21292e-15 -0)
(-3.02957e-30 -6.21292e-15 -0)
(-2.27218e-29 -6.21292e-15 -0)
(-1.89348e-29 -6.21292e-15 -0)
(2.27218e-30 -6.21292e-15 -0)
(-3.78696e-30 -6.21292e-15 -0)
(-8.33131e-30 -6.21292e-15 -0)
(1.66626e-29 -6.21292e-15 -0)
(-1.06035e-29 -6.21292e-15 -0)
(-3.484e-29 -6.21292e-15 -0)
(-2.49939e-29 -6.21292e-15 -0)
(-1.21183e-29 -6.21292e-15 -0)
(1.51478e-30 -6.21292e-15 -0)