/*--------------------------------*- C++ -*----------------------------------*\
| =========                 |                                                 |
| \\      /  F ield         | foam-extend: Open Source CFD                    |
|  \\    /   O peration     | Version:     4.0                                |
|   \\  /    A nd           | Web:         http://www.foam-extend.org         |
|    \\/     M anipulation  |                                                 |
\*---------------------------------------------------------------------------*/
FoamFile
{
    version     2.0;
    format      ascii;
    class       volScalarField;
    location    "15";
    object      p;
}
// * * * * * * * * * * * * * * * * * * * * * * * * * * * * * * * * * * * * * //

dimensions      [0 2 -2 0 0 0 0];

internalField   nonuniform List<scalar> 
6960
(
4.32222e-16
6.70716e-13
4.17476e-13
5.01837e-13
4.15363e-13
4.93905e-13
4.43679e-13
4.56021e-13
4.34495e-13
4.46547e-13
4.5527e-13
4.76842e-13
4.96958e-13
5.12128e-13
5.18863e-13
5.11209e-13
4.92636e-13
4.62773e-13
4.29942e-13
3.97591e-13
3.73653e-13
3.61523e-13
3.64848e-13
3.81554e-13
4.06814e-13
4.31702e-13
4.45536e-13
4.36978e-13
3.96472e-13
3.20129e-13
2.10717e-13
8.06613e-14
-5.16926e-14
-1.60816e-13
-2.23707e-13
-2.19658e-13
-1.43433e-13
-8.67762e-16
1.81277e-13
3.66538e-13
5.09886e-13
5.6844e-13
5.20475e-13
3.50345e-13
1.00001e-13
-2.13935e-13
-4.80539e-13
-7.01207e-13
-7.32378e-13
-6.76448e-13
-3.95354e-13
-1.42317e-13
2.26841e-13
3.54625e-13
4.8096e-13
2.51002e-13
1.4819e-13
-2.41752e-13
-1.50086e-13
-2.23601e-13
8.50837e-13
4.96902e-13
2.35853e-13
2.78272e-13
1.63894e-13
2.33537e-13
1.97039e-13
2.34108e-13
2.38473e-13
2.68614e-13
2.83021e-13
2.97333e-13
3.00821e-13
2.95652e-13
2.85425e-13
2.70575e-13
2.58295e-13
2.47858e-13
2.43716e-13
2.42886e-13
2.45338e-13
2.46383e-13
2.44058e-13
2.35441e-13
2.20563e-13
2.00434e-13
1.78266e-13
1.58148e-13
1.43901e-13
1.38333e-13
1.41144e-13
1.50437e-13
1.60212e-13
1.65325e-13
1.57867e-13
1.36055e-13
9.67784e-14
4.74028e-14
-8.00421e-15
-5.51987e-14
-8.85829e-14
-9.85068e-14
-8.54802e-14
-5.71737e-14
-1.64704e-14
5.3762e-15
2.68415e-14
-1.00603e-14
-2.78632e-14
-1.28534e-13
-1.40975e-13
-2.54746e-13
-1.8436e-13
-2.65184e-13
-8.4973e-14
-1.71054e-13
6.26552e-14
-1.69328e-13
4.84117e-14
-2.75347e-13
-8.66397e-12
4.023e-13
1.80653e-13
2.22393e-13
5.1878e-14
8.78538e-14
2.77302e-14
6.41044e-14
7.13991e-14
1.09841e-13
1.26657e-13
1.39389e-13
1.34853e-13
1.19555e-13
9.94698e-14
8.00885e-14
7.08175e-14
7.16533e-14
8.44763e-14
1.0244e-13
1.20262e-13
1.28126e-13
1.2045e-13
9.42646e-14
5.36788e-14
7.30568e-15
-3.17833e-14
-4.93409e-14
-3.35816e-14
2.08431e-14
1.09076e-13
2.17016e-13
3.20744e-13
3.94416e-13
4.11396e-13
3.58587e-13
2.3218e-13
5.33187e-14
-1.50476e-13
-3.30006e-13
-4.50209e-13
-4.70933e-13
-3.90235e-13
-2.14711e-13
1.00072e-14
2.28029e-13
3.87708e-13
4.19767e-13
3.50227e-13
1.19867e-13
-9.93105e-14
-4.0956e-13
-4.83876e-13
-6.06668e-13
-3.42413e-13
-2.90878e-13
1.01834e-13
-9.1184e-14
1.5231e-13
-5.06275e-13
-3.85265e-12
5.32758e-13
2.74339e-13
3.41671e-13
1.60506e-13
1.94922e-13
1.33499e-13
1.75135e-13
1.87688e-13
2.33923e-13
2.56556e-13
2.73912e-13
2.70911e-13
2.55214e-13
2.32043e-13
2.07129e-13
1.89345e-13
1.79287e-13
1.79377e-13
1.8424e-13
1.90869e-13
1.92875e-13
1.87802e-13
1.74303e-13
1.55455e-13
1.35856e-13
1.21263e-13
1.16235e-13
1.22568e-13
1.38654e-13
1.58479e-13
1.74625e-13
1.78004e-13
1.63968e-13
1.29578e-13
8.14117e-14
2.64338e-14
-1.91383e-14
-4.69392e-14
-4.39316e-14
-1.43858e-14
3.86788e-14
9.47241e-14
1.35721e-13
1.43704e-13
9.91431e-14
1.95524e-14
-1.11773e-13
-2.15879e-13
-3.3709e-13
-3.31642e-13
-3.38098e-13
-1.55295e-13
-7.84093e-14
1.63997e-13
1.15061e-13
2.21053e-13
-1.23292e-13
1.62752e-15
-5.1363e-13
1.46042e-11
6.57234e-13
3.19801e-13
3.78725e-13
2.21028e-13
2.75718e-13
2.42424e-13
3.02362e-13
3.34449e-13
3.94407e-13
4.29576e-13
4.54018e-13
4.54813e-13
4.38268e-13
4.11195e-13
3.78759e-13
3.50774e-13
3.28596e-13
3.16547e-13
3.1096e-13
3.11052e-13
3.12718e-13
3.15181e-13
3.16673e-13
3.17177e-13
3.15785e-13
3.10921e-13
2.99256e-13
2.75988e-13
2.37123e-13
1.8007e-13
1.0759e-13
2.60534e-14
-5.06796e-14
-1.08329e-13
-1.29369e-13
-1.05444e-13
-3.24532e-14
7.66832e-14
2.02212e-13
3.12325e-13
3.74386e-13
3.66008e-13
2.66988e-13
1.01732e-13
-1.27399e-13
-3.32985e-13
-5.24177e-13
-5.6955e-13
-5.60171e-13
-3.50296e-13
-1.68485e-13
1.49614e-13
2.591e-13
4.12134e-13
2.31146e-13
1.86678e-13
-1.70421e-13
-7.46262e-14
-2.28155e-13
1.048e-11
6.16675e-13
2.9265e-13
3.13008e-13
1.6097e-13
2.17018e-13
1.92349e-13
2.56848e-13
2.96951e-13
3.62469e-13
4.03813e-13
4.31517e-13
4.34083e-13
4.16563e-13
3.8759e-13
3.5297e-13
3.2428e-13
3.03523e-13
2.95683e-13
2.96531e-13
3.03979e-13
3.1169e-13
3.16702e-13
3.15561e-13
3.07737e-13
2.93322e-13
2.73572e-13
2.49487e-13
2.21147e-13
1.88676e-13
1.5145e-13
1.11055e-13
6.8839e-14
3.04278e-14
-2.24031e-16
-1.51558e-14
-1.27692e-14
1.03908e-14
4.71817e-14
9.11055e-14
1.27478e-13
1.42422e-13
1.28146e-13
7.09218e-14
-8.37066e-15
-1.25123e-13
-2.12876e-13
-3.15129e-13
-3.1516e-13
-3.33426e-13
-2.00115e-13
-1.56262e-13
4.08003e-14
2.75762e-14
1.69089e-13
8.03396e-15
1.07777e-13
-1.56e-13
1.06477e-14
-1.1105e-13
-8.95293e-12
5.67615e-13
2.91347e-13
2.93433e-13
1.2194e-13
1.60349e-13
1.18268e-13
1.72978e-13
2.06313e-13
2.69656e-13
3.10281e-13
3.38945e-13
3.42401e-13
3.25798e-13
2.97477e-13
2.6421e-13
2.38186e-13
2.21861e-13
2.1986e-13
2.2712e-13
2.40016e-13
2.50294e-13
2.53342e-13
2.45271e-13
2.26843e-13
2.01127e-13
1.73748e-13
1.50637e-13
1.36179e-13
1.32419e-13
1.37213e-13
1.466e-13
1.53067e-13
1.51463e-13
1.35449e-13
1.06271e-13
6.41949e-14
1.92795e-14
-2.36232e-14
-5.21904e-14
-6.4917e-14
-5.8399e-14
-3.8294e-14
-1.71712e-14
3.14942e-15
-6.79823e-15
-1.82938e-14
-8.32289e-14
-1.10991e-13
-2.02584e-13
-1.81905e-13
-2.49168e-13
-1.27668e-13
-1.6656e-13
2.99476e-14
-5.94049e-14
1.37887e-13
-1.16593e-13
6.99798e-14
-2.37657e-13
-1.00151e-11
5.98974e-13
3.05125e-13
3.24111e-13
1.37141e-13
1.6366e-13
1.07922e-13
1.55963e-13
1.84335e-13
2.47287e-13
2.88514e-13
3.19503e-13
3.24879e-13
3.09996e-13
2.8226e-13
2.48889e-13
2.2209e-13
2.04821e-13
2.01756e-13
2.0801e-13
2.19962e-13
2.29428e-13
2.31825e-13
2.23502e-13
2.05646e-13
1.81828e-13
1.57986e-13
1.39999e-13
1.31761e-13
1.34303e-13
1.44146e-13
1.55917e-13
1.61201e-13
1.54727e-13
1.31192e-13
9.38915e-14
4.58135e-14
-1.72687e-16
-3.75098e-14
-5.32219e-14
-4.80903e-14
-2.14418e-14
1.46378e-14
4.46272e-14
5.98639e-14
3.40176e-14
-7.76279e-15
-1.03906e-13
-1.65477e-13
-2.72075e-13
-2.55738e-13
-2.95986e-13
-1.40746e-13
-1.2577e-13
1.00517e-13
3.24375e-14
1.95695e-13
-9.72839e-14
5.33734e-14
-3.28468e-13
2.74783e-12
6.34126e-13
3.07107e-13
3.42673e-13
1.51506e-13
1.75352e-13
1.17373e-13
1.6499e-13
1.94601e-13
2.60492e-13
3.05403e-13
3.40027e-13
3.48089e-13
3.34486e-13
3.06415e-13
2.71274e-13
2.41688e-13
2.21234e-13
2.15197e-13
2.19213e-13
2.30033e-13
2.39706e-13
2.43659e-13
2.37973e-13
2.23284e-13
2.0239e-13
1.80277e-13
1.61828e-13
1.50102e-13
1.45774e-13
1.45699e-13
1.45662e-13
1.39166e-13
1.2336e-13
9.54147e-14
6.04508e-14
2.21785e-14
-7.58818e-15
-2.47847e-14
-2.06856e-14
-3.12156e-16
3.24159e-14
6.35476e-14
7.66164e-14
6.67634e-14
1.15634e-14
-5.5742e-14
-1.68604e-13
-2.32174e-13
-3.2551e-13
-2.8393e-13
-2.91066e-13
-1.09389e-13
-7.30307e-14
1.48568e-13
7.36748e-14
2.05043e-13
-9.26118e-14
3.63549e-14
-3.07481e-13
6.19316e-12
6.32084e-13
3.16367e-13
3.47003e-13
1.53057e-13
1.7414e-13
1.14915e-13
1.61968e-13
1.9328e-13
2.62066e-13
3.10989e-13
3.49326e-13
3.60271e-13
3.47954e-13
3.19651e-13
2.82932e-13
2.51075e-13
2.28299e-13
2.20575e-13
2.2391e-13
2.35152e-13
2.46126e-13
2.51837e-13
2.47802e-13
2.34087e-13
2.13053e-13
1.89499e-13
1.684e-13
1.53155e-13
1.44997e-13
1.41438e-13
1.38911e-13
1.31359e-13
1.1611e-13
9.01373e-14
5.80485e-14
2.27801e-14
-4.71756e-15
-2.10605e-14
-1.80207e-14
-4.16158e-16
2.81024e-14
5.49405e-14
6.41126e-14
5.26807e-14
-2.43816e-15
-6.62254e-14
-1.75084e-13
-2.32482e-13
-3.22603e-13
-2.77946e-13
-2.87671e-13
-1.08989e-13
-7.95128e-14
1.38599e-13
6.32497e-14
2.00192e-13
-8.53332e-14
4.28107e-14
-2.7301e-13
1.07341e-12
6.25894e-13
3.33903e-13
3.53484e-13
1.54361e-13
1.70002e-13
1.06418e-13
1.50758e-13
1.81903e-13
2.52495e-13
3.04719e-13
3.46633e-13
3.60626e-13
3.50053e-13
3.22069e-13
2.84398e-13
2.50899e-13
2.26415e-13
2.17524e-13
2.20552e-13
2.32362e-13
2.4448e-13
2.51449e-13
2.4829e-13
2.34712e-13
2.12979e-13
1.88104e-13
1.65533e-13
1.49256e-13
1.41036e-13
1.38676e-13
1.38535e-13
1.34067e-13
1.21806e-13
9.77678e-14
6.57661e-14
2.8265e-14
-3.5948e-15
-2.57362e-14
-2.85645e-14
-1.5517e-14
1.12465e-14
3.97506e-14
5.41264e-14
5.02337e-14
3.32399e-15
-5.38091e-14
-1.59661e-13
-2.18435e-13
-3.15064e-13
-2.79001e-13
-2.99119e-13
-1.25967e-13
-9.94009e-14
1.25513e-13
5.83444e-14
2.07683e-13
-7.19736e-14
5.52558e-14
-2.64014e-13
-1.48574e-12
6.3723e-13
3.47733e-13
3.63819e-13
1.58579e-13
1.6794e-13
9.85328e-14
1.39156e-13
1.69125e-13
2.40971e-13
2.96141e-13
3.41658e-13
3.58897e-13
3.50427e-13
3.23101e-13
2.84749e-13
2.49728e-13
2.23508e-13
2.13272e-13
2.15711e-13
2.27771e-13
2.40751e-13
2.48792e-13
2.46469e-13
2.33178e-13
2.11105e-13
1.85454e-13
1.62079e-13
1.45465e-13
1.37777e-13
1.36977e-13
1.39236e-13
1.37485e-13
1.27502e-13
1.04508e-13
7.17627e-14
3.15452e-14
-4.54878e-15
-3.16147e-14
-3.86759e-14
-2.80812e-14
-8.0552e-16
3.10849e-14
5.15799e-14
5.4573e-14
1.41055e-14
-3.97647e-14
-1.45993e-13
-2.10005e-13
-3.14838e-13
-2.88301e-13
-3.16094e-13
-1.45516e-13
-1.16119e-13
1.18285e-13
6.22035e-14
2.20191e-13
-5.61381e-14
6.54223e-14
-2.64434e-13
-5.22554e-13
6.55338e-13
3.58935e-13
3.75973e-13
1.64672e-13
1.67818e-13
9.22238e-14
1.28727e-13
1.57074e-13
2.29882e-13
2.87864e-13
3.37048e-13
3.57723e-13
3.51607e-13
3.25153e-13
2.86237e-13
2.49677e-13
2.21575e-13
2.0976e-13
2.11356e-13
2.23457e-13
2.37197e-13
2.46335e-13
2.44992e-13
2.32206e-13
2.10006e-13
1.83711e-13
1.59506e-13
1.42329e-13
1.3475e-13
1.34945e-13
1.38996e-13
1.39431e-13
1.31404e-13
1.0944e-13
7.6285e-14
3.40092e-14
-5.45115e-15
-3.65211e-14
-4.70471e-14
-3.84577e-14
-1.0676e-14
2.41207e-14
4.9856e-14
5.86195e-14
2.35072e-14
-2.79902e-14
-1.34983e-13
-2.04241e-13
-3.16632e-13
-2.98982e-13
-3.33356e-13
-1.65071e-13
-1.3216e-13
1.10932e-13
6.62985e-14
2.31595e-13
-4.0044e-14
7.43108e-14
-2.6405e-13
4.16108e-13
6.68559e-13
3.71742e-13
3.89312e-13
1.72194e-13
1.69208e-13
8.71808e-14
1.19162e-13
1.45474e-13
2.18931e-13
2.79594e-13
3.32496e-13
3.56802e-13
3.53301e-13
3.27964e-13
2.88637e-13
2.50565e-13
2.20488e-13
2.0692e-13
2.07478e-13
2.19467e-13
2.33898e-13
2.44167e-13
2.43923e-13
2.31794e-13
2.09596e-13
1.82697e-13
1.57574e-13
1.39613e-13
1.31816e-13
1.32639e-13
1.38155e-13
1.40574e-13
1.34479e-13
1.13718e-13
8.04852e-14
3.65665e-14
-5.86902e-15
-4.0677e-14
-5.46076e-14
-4.81856e-14
-2.02528e-14
1.70099e-14
4.75687e-14
6.18512e-14
3.20641e-14
-1.68349e-14
-1.2421e-13
-1.98293e-13
-3.17966e-13
-3.09223e-13
-3.50518e-13
-1.85215e-13
-1.49487e-13
1.01693e-13
6.86063e-14
2.41766e-13
-2.37766e-14
8.35617e-14
-2.62107e-13
5.02972e-13
6.77447e-13
3.86281e-13
4.0369e-13
1.81052e-13
1.71954e-13
8.31984e-14
1.10186e-13
1.33992e-13
2.07716e-13
2.70879e-13
3.27513e-13
3.55646e-13
3.55037e-13
3.31101e-13
2.91566e-13
2.52068e-13
2.19972e-13
2.04516e-13
2.03861e-13
2.15585e-13
2.30618e-13
2.42016e-13
2.42944e-13
2.31587e-13
2.09494e-13
1.82043e-13
1.55976e-13
1.37123e-13
1.28951e-13
1.30238e-13
1.37103e-13
1.41477e-13
1.37389e-13
1.17989e-13
8.48745e-14
3.94802e-14
-5.8542e-15
-4.44545e-14
-6.1971e-14
-5.79832e-14
-3.01606e-14
9.39988e-15
4.48032e-14
6.48296e-14
4.07908e-14
-5.02513e-15
-1.12345e-13
-1.91078e-13
-3.18189e-13
-3.18926e-13
-3.67998e-13
-2.06634e-13
-1.68868e-13
9.01778e-14
6.89978e-14
2.51119e-13
-7.07821e-15
9.36954e-14
-2.59356e-13
3.65729e-13
6.85782e-13
4.01611e-13
4.19097e-13
1.91276e-13
1.76112e-13
8.03125e-14
1.01814e-13
1.22587e-13
1.9614e-13
2.61554e-13
3.2189e-13
3.54009e-13
3.56566e-13
3.3433e-13
2.94824e-13
2.5402e-13
2.19896e-13
2.02438e-13
2.00403e-13
2.11699e-13
2.27228e-13
2.39729e-13
2.41878e-13
2.31391e-13
2.09508e-13
1.81573e-13
1.5457e-13
1.34769e-13
1.2612e-13
1.27768e-13
1.35917e-13
1.42255e-13
1.4026e-13
1.22369e-13
8.95342e-14
4.27822e-14
-5.42785e-15
-4.79205e-14
-6.92286e-14
-6.79394e-14
-4.04526e-14
1.29126e-15
4.16356e-14
6.76891e-14
4.98775e-14
7.62639e-15
-9.9213e-14
-1.82506e-13
-3.17263e-13
-3.28163e-13
-3.85884e-13
-2.29454e-13
-1.90359e-13
7.63615e-14
6.75249e-14
2.59673e-13
1.00278e-14
1.04634e-13
-2.56263e-13
2.97731e-13
6.94609e-13
4.17343e-13
4.35497e-13
2.02894e-13
1.81777e-13
7.86479e-14
9.41842e-14
1.11366e-13
1.84262e-13
2.5162e-13
3.15573e-13
3.518e-13
3.57781e-13
3.37549e-13
2.9833e-13
2.56371e-13
2.20235e-13
2.00679e-13
1.97101e-13
2.07801e-13
2.23704e-13
2.37264e-13
2.40673e-13
2.31149e-13
2.09585e-13
1.81248e-13
1.53329e-13
1.32534e-13
1.23314e-13
1.25214e-13
1.3457e-13
1.42863e-13
1.43037e-13
1.26801e-13
9.44216e-14
4.64582e-14
-4.565e-15
-5.1009e-14
-7.62836e-14
-7.79469e-14
-5.10368e-14
-7.26747e-15
3.80549e-14
7.03516e-14
5.9199e-14
2.09684e-14
-8.49386e-14
-1.72657e-13
-3.15176e-13
-3.36856e-13
-4.04021e-13
-2.53534e-13
-2.13837e-13
6.02484e-14
6.41115e-14
2.67246e-13
2.7365e-14
1.16227e-13
-2.52972e-13
2.85922e-13
7.03372e-13
4.33376e-13
4.52803e-13
2.15906e-13
1.89025e-13
7.83317e-14
8.74469e-14
1.00465e-13
1.72181e-13
2.41123e-13
3.08556e-13
3.48975e-13
3.58622e-13
3.40703e-13
3.02047e-13
2.59109e-13
2.21004e-13
1.9927e-13
1.93989e-13
2.03918e-13
2.20058e-13
2.3462e-13
2.39315e-13
2.30848e-13
2.09718e-13
1.8107e-13
1.52267e-13
1.30437e-13
1.20541e-13
1.22568e-13
1.3303e-13
1.43245e-13
1.45648e-13
1.31214e-13
9.94851e-14
5.04962e-14
-3.22879e-15
-5.36355e-14
-8.30197e-14
-8.7886e-14
-6.18243e-14
-1.62462e-14
3.4015e-14
7.2699e-14
6.85916e-14
3.48351e-14
-6.96356e-14
-1.61554e-13
-3.11833e-13
-3.44821e-13
-4.22163e-13
-2.78664e-13
-2.39175e-13
4.18055e-14
5.85866e-14
2.73591e-13
4.47128e-14
1.28365e-13
-2.49493e-13
2.87232e-13
7.11518e-13
4.4961e-13
4.70897e-13
2.30288e-13
1.9791e-13
7.94794e-14
8.1748e-14
9.00277e-14
1.6001e-13
2.30122e-13
3.00847e-13
3.45502e-13
3.59035e-13
3.43737e-13
3.05939e-13
2.62226e-13
2.22221e-13
1.98248e-13
1.91112e-13
2.00087e-13
2.16316e-13
2.31805e-13
2.37803e-13
2.30479e-13
2.09903e-13
1.81045e-13
1.51399e-13
1.28496e-13
1.17819e-13
1.19831e-13
1.31275e-13
1.43357e-13
1.48033e-13
1.35547e-13
1.04682e-13
5.4888e-14
-1.38294e-15
-5.57215e-14
-8.93323e-14
-9.76523e-14
-7.27425e-14
-2.56302e-14
2.94589e-14
7.46107e-14
7.79004e-14
4.90827e-14
-5.33854e-14
-1.49179e-13
-3.07097e-13
-3.51825e-13
-4.40032e-13
-3.04613e-13
-2.66251e-13
2.09849e-14
5.07505e-14
2.7845e-13
6.18305e-14
1.40956e-13
-2.45804e-13
2.86489e-13
7.18778e-13
4.65895e-13
4.89641e-13
2.45987e-13
2.08471e-13
8.21976e-14
7.72392e-14
8.02068e-14
1.4787e-13
2.18689e-13
2.92462e-13
3.4135e-13
3.58962e-13
3.4659e-13
3.09961e-13
2.65706e-13
2.23898e-13
1.97648e-13
1.88514e-13
1.96352e-13
2.12506e-13
2.28834e-13
2.36136e-13
2.30037e-13
2.10134e-13
1.81176e-13
1.50739e-13
1.26732e-13
1.15163e-13
1.17008e-13
1.2929e-13
1.43163e-13
1.50139e-13
1.39745e-13
1.09971e-13
5.96247e-14
1.00486e-15
-5.71943e-14
-9.51246e-14
-1.07148e-13
-8.37239e-14
-3.54081e-14
2.43279e-14
7.5967e-14
8.69726e-14
6.35706e-14
-3.62651e-14
-1.35504e-13
-3.00817e-13
-3.57623e-13
-4.57333e-13
-3.31128e-13
-2.94922e-13
-2.24548e-15
4.04064e-14
2.81558e-13
7.84549e-14
1.53901e-13
-2.41884e-13
2.82321e-13
7.25007e-13
4.82047e-13
5.08866e-13
2.62935e-13
2.20721e-13
8.65825e-14
7.40659e-14
7.1159e-14
1.35892e-13
2.06907e-13
2.83427e-13
3.36494e-13
3.58347e-13
3.49197e-13
3.14061e-13
2.69521e-13
2.2604e-13
1.97499e-13
1.86239e-13
1.92755e-13
2.08662e-13
2.25722e-13
2.34314e-13
2.29512e-13
2.10403e-13
1.81462e-13
1.50295e-13
1.25161e-13
1.12592e-13
1.14108e-13
1.27067e-13
1.42632e-13
1.51919e-13
1.43755e-13
1.15312e-13
6.46937e-14
3.96108e-15
-5.79873e-14
-1.00302e-13
-1.16276e-13
-9.46991e-14
-4.55651e-14
1.85673e-14
7.66484e-14
9.56506e-14
7.81492e-14
-1.83616e-14
-1.20512e-13
-2.92846e-13
-3.61962e-13
-4.73749e-13
-3.57927e-13
-3.25013e-13
-2.78883e-14
2.73713e-14
2.82643e-13
9.42987e-14
1.67085e-13
-2.37719e-13
2.75945e-13
7.30078e-13
4.9787e-13
5.28385e-13
2.81037e-13
2.34652e-13
9.2716e-14
7.23684e-14
6.30468e-14
1.24222e-13
1.94874e-13
2.73782e-13
3.30918e-13
3.57136e-13
3.51489e-13
3.18179e-13
2.73638e-13
2.28645e-13
1.97828e-13
1.8433e-13
1.89344e-13
2.0482e-13
2.22489e-13
2.32342e-13
2.28898e-13
2.10702e-13
1.819e-13
1.50076e-13
1.23801e-13
1.10125e-13
1.11142e-13
1.24598e-13
1.41735e-13
1.53326e-13
1.47522e-13
1.20658e-13
7.00753e-14
7.50507e-15
-5.80391e-14
-1.04774e-13
-1.24937e-13
-1.05595e-13
-5.60795e-14
1.21261e-14
7.65361e-14
1.0377e-13
9.2657e-14
2.20736e-16
-1.04203e-13
-2.83049e-13
-3.64586e-13
-4.88948e-13
-3.84698e-13
-3.56309e-13
-5.59135e-14
1.14852e-14
2.81431e-13
1.09051e-13
1.80373e-13
-2.33305e-13
2.68199e-13
7.33858e-13
5.13153e-13
5.47989e-13
3.00174e-13
2.50236e-13
1.00662e-13
7.22822e-14
5.60324e-14
1.13015e-13
1.82702e-13
2.6358e-13
3.24615e-13
3.55278e-13
3.53396e-13
3.22248e-13
2.78013e-13
2.31702e-13
1.98654e-13
1.82826e-13
1.86163e-13
2.0102e-13
2.19159e-13
2.30226e-13
2.28188e-13
2.1102e-13
1.82484e-13
1.50087e-13
1.22667e-13
1.07782e-13
1.08123e-13
1.21882e-13
1.40448e-13
1.54315e-13
1.50991e-13
1.25958e-13
7.57432e-14
1.16488e-14
-5.72946e-14
-1.08451e-13
-1.33031e-13
-1.1633e-13
-6.69224e-14
4.95971e-15
7.55117e-14
1.11162e-13
1.06919e-13
1.93592e-14
-8.65935e-14
-2.71303e-13
-3.65241e-13
-5.02582e-13
-4.11099e-13
-3.88554e-13
-8.62522e-14
-7.38357e-15
2.77646e-13
1.22379e-13
1.93613e-13
-2.2864e-13
2.59438e-13
7.36207e-13
5.2768e-13
5.67454e-13
3.20202e-13
2.67417e-13
1.10465e-13
7.39299e-14
5.02782e-14
1.02433e-13
1.70518e-13
2.52889e-13
3.17593e-13
3.52732e-13
3.5485e-13
3.26202e-13
2.82598e-13
2.35193e-13
1.99992e-13
1.81767e-13
1.8326e-13
1.97303e-13
2.1576e-13
2.27973e-13
2.27378e-13
2.11345e-13
1.83209e-13
1.5033e-13
1.21773e-13
1.05582e-13
1.05068e-13
1.18922e-13
1.38754e-13
1.54844e-13
1.54106e-13
1.3116e-13
8.16641e-14
1.63958e-14
-5.57067e-14
-1.11251e-13
-1.40459e-13
-1.26823e-13
-7.80576e-14
-2.96858e-15
7.3461e-14
1.17654e-13
1.20749e-13
3.89117e-14
-6.77226e-14
-2.57499e-13
-3.63679e-13
-5.14291e-13
-4.36759e-13
-4.21448e-13
-1.18793e-13
-2.93346e-14
2.71028e-13
1.3393e-13
2.06635e-13
-2.23734e-13
2.49823e-13
7.36998e-13
5.41229e-13
5.86544e-13
3.40955e-13
2.86107e-13
1.22146e-13
7.74211e-14
4.59464e-14
9.26471e-14
1.58459e-13
2.41793e-13
3.09873e-13
3.49466e-13
3.55785e-13
3.29965e-13
2.87337e-13
2.39094e-13
2.0185e-13
1.81186e-13
1.80682e-13
1.93714e-13
2.1232e-13
2.25597e-13
2.26462e-13
2.11668e-13
1.84063e-13
1.50808e-13
1.21134e-13
1.03549e-13
1.02e-13
1.15725e-13
1.36638e-13
1.54876e-13
1.56811e-13
1.36204e-13
8.77974e-14
2.17395e-14
-5.32372e-14
-1.13094e-13
-1.4712e-13
-1.36982e-13
-8.94395e-14
-1.16865e-14
7.02764e-14
1.23069e-13
1.33947e-13
5.87145e-14
-4.76541e-14
-2.41554e-13
-3.59661e-13
-5.2371e-13
-4.61277e-13
-4.54649e-13
-1.53373e-13
-5.44265e-14
2.61324e-13
1.43334e-13
2.19252e-13
-2.18602e-13
2.3946e-13
7.36114e-13
5.53577e-13
6.04998e-13
3.62238e-13
3.0619e-13
1.357e-13
8.28465e-14
4.31909e-14
8.38307e-14
1.46679e-13
2.30394e-13
3.0149e-13
3.45455e-13
3.56138e-13
3.33464e-13
2.92166e-13
2.43369e-13
2.04227e-13
1.81112e-13
1.78474e-13
1.90299e-13
2.08877e-13
2.23115e-13
2.25442e-13
2.11977e-13
1.85039e-13
1.51519e-13
1.20762e-13
1.01705e-13
9.89415e-14
1.12305e-13
1.34092e-13
1.54378e-13
1.59054e-13
1.41031e-13
9.40947e-14
2.7663e-14
-4.98585e-14
-1.13911e-13
-1.52917e-13
-1.46715e-13
-1.01012e-13
-2.1209e-14
6.58586e-14
1.27234e-13
1.46306e-13
7.8584e-14
-2.64807e-14
-2.23412e-13
-3.52968e-13
-5.30469e-13
-4.84232e-13
-4.87769e-13
-1.89775e-13
-8.26681e-14
2.48303e-13
1.50213e-13
2.3126e-13
-2.13271e-13
2.28453e-13
7.33459e-13
5.64501e-13
6.22547e-13
3.83837e-13
3.27519e-13
1.51092e-13
9.02735e-14
4.21548e-14
7.61601e-14
1.35342e-13
2.18807e-13
2.92496e-13
3.40691e-13
3.55854e-13
3.36625e-13
2.97018e-13
2.47978e-13
2.07118e-13
1.8157e-13
1.76681e-13
1.87107e-13
2.05467e-13
2.20546e-13
2.24319e-13
2.12262e-13
1.86124e-13
1.52462e-13
1.20669e-13
1.00074e-13
9.59205e-14
1.08683e-13
1.31117e-13
1.53322e-13
1.60783e-13
1.45576e-13
1.005e-13
3.41388e-14
-4.55546e-14
-1.1364e-13
-1.57754e-13
-1.55922e-13
-1.12709e-13
-3.15386e-14
6.01201e-14
1.29978e-13
1.57608e-13
9.83149e-14
-4.32501e-15
-2.0305e-13
-3.43402e-13
-5.34209e-13
-5.05181e-13
-5.20377e-13
-2.27729e-13
-1.14013e-13
2.31763e-13
1.54182e-13
2.42444e-13
-2.0778e-13
2.16904e-13
7.28956e-13
5.73787e-13
6.38919e-13
4.05512e-13
3.49916e-13
1.6826e-13
9.97449e-14
4.29675e-14
6.98092e-14
1.24618e-13
2.07165e-13
2.8296e-13
3.35175e-13
3.54886e-13
3.39372e-13
3.01818e-13
2.52868e-13
2.10505e-13
1.82577e-13
1.75343e-13
1.84185e-13
2.02132e-13
2.17915e-13
2.23097e-13
2.12516e-13
1.87308e-13
1.53631e-13
1.20863e-13
9.86805e-14
9.29682e-14
1.04882e-13
1.27718e-13
1.51689e-13
1.6195e-13
1.49775e-13
1.06951e-13
4.11277e-14
-4.03219e-14
-1.12229e-13
-1.61542e-13
-1.64502e-13
-1.24451e-13
-4.26622e-14
5.29873e-14
1.31135e-13
1.67629e-13
1.17678e-13
1.86573e-14
-1.80484e-13
-3.30798e-13
-5.3458e-13
-5.23669e-13
-5.51998e-13
-2.66904e-13
-1.48351e-13
2.1154e-13
1.54863e-13
2.52575e-13
-2.02179e-13
2.04917e-13
7.22559e-13
5.81232e-13
6.53838e-13
4.27009e-13
3.7317e-13
1.87103e-13
1.11275e-13
4.57403e-14
6.49461e-14
1.14686e-13
1.95616e-13
2.72968e-13
3.2893e-13
3.53194e-13
3.41634e-13
3.06489e-13
2.57982e-13
2.14362e-13
1.84142e-13
1.74497e-13
1.81582e-13
1.98914e-13
2.15248e-13
2.21785e-13
2.1273e-13
1.88576e-13
1.5502e-13
1.21354e-13
9.75478e-14
9.01185e-14
1.00935e-13
1.2391e-13
1.49463e-13
1.62512e-13
1.53563e-13
1.13377e-13
4.85789e-14
-3.41709e-14
-1.0964e-13
-1.64194e-13
-1.7235e-13
-1.36151e-13
-5.45489e-14
4.44037e-14
1.30551e-13
1.76143e-13
1.36426e-13
4.22752e-14
-1.55771e-13
-3.15026e-13
-5.31254e-13
-5.39232e-13
-5.8212e-13
-3.06906e-13
-1.85504e-13
1.87516e-13
1.51885e-13
2.6142e-13
-1.96534e-13
1.92596e-13
7.14251e-13
5.86647e-13
6.67027e-13
4.48053e-13
3.97039e-13
2.0749e-13
1.24848e-13
5.0562e-14
6.17305e-14
1.05727e-13
1.84318e-13
2.62627e-13
3.2199e-13
3.50753e-13
3.43344e-13
3.10953e-13
2.63254e-13
2.18655e-13
1.86268e-13
1.74173e-13
1.79344e-13
1.95861e-13
2.12578e-13
2.20394e-13
2.12898e-13
1.89916e-13
1.5662e-13
1.22147e-13
9.67e-14
8.74083e-14
9.68793e-14
1.19716e-13
1.46642e-13
1.62429e-13
1.56872e-13
1.19703e-13
5.643e-14
-2.71265e-14
-1.05844e-13
-1.65634e-13
-1.79358e-13
-1.47706e-13
-6.71487e-14
3.43327e-14
1.28083e-13
1.82922e-13
1.5429e-13
6.63011e-14
-1.29018e-13
-2.96006e-13
-5.23936e-13
-5.51407e-13
-6.10198e-13
-3.47279e-13
-2.25216e-13
1.59626e-13
1.44903e-13
2.68741e-13
-1.90927e-13
1.80041e-13
7.04052e-13
5.89867e-13
6.7822e-13
4.6836e-13
4.21253e-13
2.29253e-13
1.40409e-13
5.74945e-14
6.03072e-14
9.79251e-14
1.73442e-13
2.52056e-13
3.14409e-13
3.47552e-13
3.44443e-13
3.15127e-13
2.6861e-13
2.23339e-13
1.88945e-13
1.74395e-13
1.77515e-13
1.93017e-13
2.09938e-13
2.18938e-13
2.13018e-13
1.91314e-13
1.58422e-13
1.23246e-13
9.61606e-14
8.48765e-14
9.2758e-14
1.15168e-13
1.43228e-13
1.61671e-13
1.59639e-13
1.25848e-13
6.46066e-14
-1.92292e-14
-1.00831e-13
-1.65792e-13
-1.8542e-13
-1.59003e-13
-8.03919e-14
2.27621e-14
1.23608e-13
1.87741e-13
1.70985e-13
9.04693e-14
-1.00384e-13
-2.73709e-13
-5.12368e-13
-5.59743e-13
-6.35659e-13
-3.87505e-13
-2.6715e-13
1.27871e-13
1.33602e-13
2.74302e-13
-1.85456e-13
1.67352e-13
6.9202e-13
5.90754e-13
6.87164e-13
4.87638e-13
4.45518e-13
2.52187e-13
1.57867e-13
6.65706e-14
6.0803e-14
9.14585e-14
1.63169e-13
2.41395e-13
3.06261e-13
3.43592e-13
3.4488e-13
3.18934e-13
2.73974e-13
2.28359e-13
1.92156e-13
1.75181e-13
1.76135e-13
1.90428e-13
2.07364e-13
2.17435e-13
2.13086e-13
1.92757e-13
1.60412e-13
1.24654e-13
9.59518e-14
8.25644e-14
8.86204e-14
1.10305e-13
1.39235e-13
1.60214e-13
1.61802e-13
1.31725e-13
7.30232e-14
-1.05347e-14
-9.46036e-14
-1.64609e-13
-1.90427e-13
-1.69916e-13
-9.41868e-14
9.70583e-15
1.17021e-13
1.90385e-13
1.86212e-13
1.14477e-13
-7.0085e-14
-2.48169e-13
-4.96346e-13
-5.63807e-13
-6.57909e-13
-4.27005e-13
-3.10885e-13
9.23277e-14
1.17715e-13
2.77877e-13
-1.80239e-13
1.54631e-13
6.78258e-13
5.89201e-13
6.93632e-13
5.05593e-13
4.69514e-13
2.76057e-13
1.7709e-13
7.77888e-14
6.33212e-14
8.64945e-14
1.53682e-13
2.30796e-13
2.97638e-13
3.38894e-13
3.44614e-13
3.22297e-13
2.79262e-13
2.33654e-13
1.95872e-13
1.76538e-13
1.75237e-13
1.88141e-13
2.04897e-13
2.15906e-13
2.13105e-13
1.94234e-13
1.62579e-13
1.26367e-13
9.60941e-14
8.05142e-14
8.45205e-14
1.05177e-13
1.34688e-13
1.58042e-13
1.63305e-13
1.37246e-13
8.15843e-14
-1.11479e-15
-8.71824e-14
-1.62038e-13
-1.94274e-13
-1.80309e-13
-1.08418e-13
-4.79398e-15
1.08247e-13
1.90649e-13
1.99661e-13
1.37987e-13
-3.83944e-14
-2.19487e-13
-4.75724e-13
-5.63199e-13
-6.76347e-13
-4.65147e-13
-3.55913e-13
5.31553e-14
9.70324e-14
2.79255e-13
-1.75411e-13
1.41977e-13
6.62909e-13
5.85138e-13
6.97417e-13
5.21937e-13
4.92906e-13
3.00592e-13
1.97908e-13
9.11083e-14
6.79382e-14
8.31904e-14
1.45168e-13
2.20426e-13
2.8865e-13
3.33498e-13
3.43619e-13
3.25146e-13
2.84391e-13
2.39151e-13
2.00054e-13
1.78463e-13
1.74851e-13
1.86196e-13
2.02575e-13
2.14376e-13
2.13078e-13
1.95732e-13
1.64907e-13
1.28384e-13
9.6606e-14
7.87685e-14
8.05167e-14
9.98411e-14
1.29621e-13
1.55152e-13
1.64096e-13
1.42323e-13
9.0185e-14
8.94365e-15
-7.86048e-14
-1.58045e-13
-1.96858e-13
-1.90036e-13
-1.22947e-13
-2.06632e-14
9.72369e-14
1.88347e-13
2.11017e-13
1.60627e-13
-5.64733e-15
-1.87837e-13
-4.5043e-13
-5.57566e-13
-6.90374e-13
-5.01252e-13
-4.01638e-13
1.0606e-14
7.14172e-14
2.78248e-13
-1.71129e-13
1.29496e-13
6.46161e-13
5.78536e-13
6.9835e-13
5.36392e-13
5.15349e-13
3.25493e-13
2.2011e-13
1.0645e-13
7.46978e-14
8.16853e-14
1.37809e-13
2.10459e-13
2.79424e-13
3.27461e-13
3.41884e-13
3.27418e-13
2.89274e-13
2.44772e-13
2.04653e-13
1.80946e-13
1.74996e-13
1.84634e-13
2.00438e-13
2.1287e-13
2.13011e-13
1.97239e-13
1.67379e-13
1.30699e-13
9.75035e-14
7.73696e-14
7.6671e-14
9.43608e-14
1.2408e-13
1.51549e-13
1.6413e-13
1.46866e-13
9.87125e-14
1.95385e-14
-6.89265e-14
-1.52613e-13
-1.98083e-13
-1.98943e-13
-1.37615e-13
-3.77934e-14
8.39799e-14
1.83318e-13
2.19964e-13
1.81998e-13
2.77622e-14
-1.53473e-13
-4.20473e-13
-5.46611e-13
-6.9941e-13
-5.34601e-13
-4.47382e-13
-3.49724e-14
4.08203e-14
2.74702e-13
-1.67568e-13
1.17289e-13
6.28251e-13
5.69414e-13
6.96304e-13
5.487e-13
5.36491e-13
3.50437e-13
2.43444e-13
1.23691e-13
8.36058e-14
8.20933e-14
1.3178e-13
2.01079e-13
2.70105e-13
3.20859e-13
3.39414e-13
3.2906e-13
2.93831e-13
2.50435e-13
2.09609e-13
1.83962e-13
1.75684e-13
1.83488e-13
1.98525e-13
2.11417e-13
2.12913e-13
1.98748e-13
1.6998e-13
1.33301e-13
9.87993e-14
7.63587e-14
7.30482e-14
8.88087e-14
1.18121e-13
1.4725e-13
1.63372e-13
1.50787e-13
1.07048e-13
3.05536e-14
-5.82217e-14
-1.4574e-13
-1.9786e-13
-2.06868e-13
-1.52236e-13
-5.60419e-14
6.85022e-14
1.75429e-13
2.26195e-13
2.01676e-13
6.13806e-14
-1.16731e-13
-3.85954e-13
-5.3011e-13
-7.02904e-13
-5.6445e-13
-4.92385e-13
-8.31265e-14
5.29278e-15
2.68503e-13
-1.6492e-13
1.0546e-13
6.09457e-13
5.57837e-13
6.91198e-13
5.5863e-13
5.55984e-13
3.75082e-13
2.67623e-13
1.42668e-13
9.46298e-14
8.45017e-14
1.27245e-13
1.92469e-13
2.6085e-13
3.1379e-13
3.36233e-13
3.30031e-13
2.9798e-13
2.56051e-13
2.14852e-13
1.87476e-13
1.76917e-13
1.82786e-13
1.96874e-13
2.10046e-13
2.12795e-13
2.0025e-13
1.72692e-13
1.3618e-13
1.00502e-13
7.57742e-14
6.97139e-14
8.3263e-14
1.1181e-13
1.42285e-13
1.61797e-13
1.54005e-13
1.15069e-13
4.18604e-14
-4.65825e-14
-1.37441e-13
-1.96112e-13
-2.13647e-13
-1.66608e-13
-7.52292e-14
5.08731e-14
1.64586e-13
2.29419e-13
2.19219e-13
9.46998e-14
-7.80319e-14
-3.47076e-13
-5.07926e-13
-7.00357e-13
-5.90043e-13
-5.35819e-13
-1.33296e-13
-3.50002e-14
2.59587e-13
-1.63396e-13
9.41169e-14
5.90094e-13
5.43923e-13
6.83003e-13
5.65984e-13
5.73492e-13
3.99073e-13
2.92327e-13
1.63173e-13
1.07695e-13
8.89647e-14
1.24346e-13
1.84813e-13
2.51828e-13
3.06368e-13
3.32382e-13
3.30307e-13
3.0165e-13
2.61531e-13
2.20308e-13
1.91444e-13
1.78687e-13
1.8255e-13
1.9552e-13
2.08788e-13
2.1267e-13
2.01739e-13
1.75495e-13
1.39319e-13
1.02618e-13
7.56513e-14
6.67337e-14
7.78062e-14
1.05224e-13
1.36696e-13
1.59392e-13
1.56444e-13
1.22651e-13
5.33192e-14
-3.4119e-14
-1.27751e-13
-1.92771e-13
-2.19113e-13
-1.80505e-13
-9.51401e-14
3.12077e-14
1.50737e-13
2.29369e-13
2.34179e-13
1.27164e-13
-3.78812e-14
-3.04145e-13
-4.80022e-13
-6.91338e-13
-6.10632e-13
-5.768e-13
-1.84815e-13
-7.97664e-14
2.4795e-13
-1.63218e-13
8.33625e-14
5.70513e-13
5.27838e-13
6.71749e-13
5.70606e-13
5.887e-13
4.22047e-13
3.17207e-13
1.84959e-13
1.22681e-13
9.54979e-14
1.23203e-13
1.78287e-13
2.43214e-13
2.98724e-13
3.27924e-13
3.29878e-13
3.04778e-13
2.66788e-13
2.2589e-13
1.95808e-13
1.80973e-13
1.82791e-13
1.94492e-13
2.07671e-13
2.12554e-13
2.03211e-13
1.78374e-13
1.42702e-13
1.05145e-13
7.60208e-14
6.41717e-14
7.25245e-14
9.84476e-14
1.30538e-13
1.56157e-13
1.58037e-13
1.2967e-13
6.47809e-14
-2.09585e-14
-1.16727e-13
-1.8779e-13
-2.23104e-13
-1.93689e-13
-1.15524e-13
9.66959e-15
1.3388e-13
2.25809e-13
2.46112e-13
1.58176e-13
3.13587e-15
-2.57582e-13
-4.46472e-13
-6.75501e-13
-6.25494e-13
-6.14401e-13
-2.36911e-13
-1.28577e-13
2.33657e-13
-1.64618e-13
7.33005e-14
5.51095e-13
5.09802e-13
6.57526e-13
5.72391e-13
6.01323e-13
4.43649e-13
3.41894e-13
2.07739e-13
1.39421e-13
1.04077e-13
1.23908e-13
1.73052e-13
2.35187e-13
2.91003e-13
3.2294e-13
3.2875e-13
3.07311e-13
2.71734e-13
2.31512e-13
2.00503e-13
1.83745e-13
1.83512e-13
1.93814e-13
2.06725e-13
2.12463e-13
2.04662e-13
1.81308e-13
1.46308e-13
1.08079e-13
7.69084e-14
6.20892e-14
6.75062e-14
9.15738e-14
1.23879e-13
1.52105e-13
1.58729e-13
1.36005e-13
7.60898e-14
-7.24455e-15
-1.04444e-13
-1.81135e-13
-2.25464e-13
-2.05908e-13
-1.36097e-13
-1.35267e-14
1.14068e-13
2.18549e-13
2.54586e-13
1.87108e-13
4.4357e-14
-2.07922e-13
-4.07476e-13
-6.52608e-13
-6.33956e-13
-6.4767e-13
-2.88715e-13
-1.8086e-13
2.1685e-13
-1.67833e-13
6.40315e-14