/*--------------------------------*- C++ -*----------------------------------*\
| =========                 |                                                 |
| \\      /  F ield         | foam-extend: Open Source CFD                    |
|  \\    /   O peration     | Version:     4.0                                |
|   \\  /    A nd           | Web:         http://www.foam-extend.org         |
|    \\/     M anipulation  |                                                 |
\*---------------------------------------------------------------------------*/
FoamFile
{
    version     2.0;
    format      ascii;
    class       surfaceScalarField;
    location    "15";
    object      phi;
}
// * * * * * * * * * * * * * * * * * * * * * * * * * * * * * * * * * * * * * //

dimensions      [0 3 -1 0 0 0 0];

internalField   nonuniform List<scalar> 
13744
(
9.63308e-30
-1.02477e-29
-2.31876e-29
3.28207e-29
-5.02753e-29
2.70877e-29
-5.32179e-29
2.94261e-30
-4.56443e-29
-7.57364e-30
-3.04328e-29
-1.52115e-29
-1.29797e-29
-1.74531e-29
3.82673e-30
-1.68064e-29
1.56852e-29
-1.18585e-29
2.07087e-29
-5.0235e-30
1.87907e-29
1.918e-30
1.18171e-29
6.97361e-30
2.56438e-30
9.25276e-30
-5.96772e-30
8.5321e-30
-1.1504e-29
5.53624e-30
-1.29599e-29
1.45591e-30
-1.05844e-29
-2.37546e-30
-5.70193e-30
-4.88248e-30
-1.77387e-31
-5.52454e-30
4.1939e-30
-4.37129e-30
6.22574e-30
-2.03184e-30
5.62873e-30
5.9701e-31
3.01482e-30
2.61391e-30
-3.76797e-31
3.39162e-30
-3.12519e-30
2.74839e-30
-4.10921e-30
9.84025e-31
-2.8839e-30
-1.22531e-30
1.73991e-31
-3.0579e-30
3.98e-30
-3.80601e-30
7.10273e-30
-3.12273e-30
8.24064e-30
-1.13791e-30
6.70444e-30
1.5362e-30
2.72162e-30
3.98282e-30
-2.51559e-30
5.23721e-30
-7.1342e-30
4.61861e-30
-9.11964e-30
1.98544e-30
-6.97207e-30
-2.14757e-30
-3.22605e-31
-6.64946e-30
9.78208e-30
-1.01047e-29
2.08798e-29
-1.10977e-29
2.97529e-29
-8.87313e-30
3.31252e-29
-3.37227e-30
2.89809e-29
4.14427e-30
1.70394e-29
1.19415e-29
-2.86439e-31
1.73259e-29
-1.88573e-29
1.85709e-29
-3.28928e-29
1.40355e-29
-3.75944e-29
4.70155e-30
-2.96049e-29
-7.98942e-30
-9.79553e-30
-1.98094e-29
1.76598e-29
-2.74553e-29
4.45979e-29
-2.6938e-29
6.22819e-29
-1.7684e-29
6.30953e-29
-8.13385e-31
4.62101e-29
1.68852e-29
1.5531e-29
3.06791e-29
-1.32905e-29
2.88215e-29
-2.82048e-29
1.49143e-29
-2.58189e-29
-2.3859e-30
-2.58189e-29
-5.86605e-30
-4.38161e-30
-4.70098e-29
7.39644e-29
-7.69179e-29
5.69958e-29
-7.8333e-29
4.35765e-30
-6.41755e-29
-2.17311e-29
-3.90667e-29
-4.03202e-29
-1.14443e-29
-4.50756e-29
1.36967e-29
-4.19474e-29
3.05168e-29
-2.86786e-29
3.65163e-29
-1.10229e-29
3.22252e-29
6.20907e-30
2.08534e-29
1.83454e-29
6.88132e-30
2.32248e-29
-5.22912e-30
2.06425e-29
-1.22557e-29
1.25628e-29
-1.29321e-29
2.13222e-30
-7.98295e-30
-7.32458e-30
3.29504e-31
-1.31949e-29
9.09498e-30
-1.429e-29
1.56775e-29
-1.09538e-29
1.84908e-29
-4.84516e-30
1.73605e-29
1.72728e-30
1.34417e-29
6.5327e-30
8.73775e-30
8.0956e-30
5.38552e-30
6.10063e-30
4.93647e-30
1.43307e-30
7.83175e-30
-4.12059e-30
1.32555e-29
-8.48168e-30
1.93851e-29
-9.93556e-30
2.39959e-29
-7.73354e-30
2.52109e-29
-2.35297e-30
2.2209e-29
4.53815e-30
1.56286e-29
1.05632e-29
7.55057e-30
1.33152e-29
9.81404e-31
1.11878e-29
-1.02946e-30
3.9963e-30
3.59217e-30
-6.7692e-30
1.50573e-29
-1.81146e-29
3.13492e-29
-2.63966e-29
4.8381e-29
-2.81295e-29
6.10554e-29
-2.15475e-29
6.44973e-29
-6.81421e-30
5.59354e-29
1.27062e-29
3.55442e-29
3.23326e-29
7.50569e-30
4.53644e-29
-2.13144e-29
4.73909e-29
-4.20748e-29
3.47959e-29
-4.75774e-29
1.02041e-29
-3.34816e-29
-2.20852e-29
-1.87868e-30
-5.14124e-29
3.99346e-29
-6.92687e-29
7.89795e-29
-6.59829e-29
1.02187e-28
-4.08915e-29
9.85151e-29
2.85842e-30
6.86193e-29
4.6781e-29
1.96237e-29
7.96748e-29
-2.32109e-29
7.16561e-29
-4.29313e-29
3.46347e-29
-3.47994e-29
-1.05179e-29
-6.06183e-29
-6.85787e-30
2.47628e-30
-3.97892e-29
1.06896e-28
-7.7185e-29
9.43915e-29
-7.41654e-29
1.33799e-30
-5.63469e-29
-3.95496e-29
-2.8513e-29
-6.81541e-29
5.11306e-31
-7.40999e-29
2.49696e-29
-6.64058e-29
3.99847e-29
-4.36937e-29
4.36353e-29
-1.46735e-29
3.74115e-29
1.24329e-29
2.50135e-29
3.07435e-29
1.12559e-29
3.69825e-29
4.44461e-31
3.1454e-29
-4.55925e-30
1.75666e-29
-3.03658e-30
6.09554e-31
3.79579e-30
-1.4157e-29
1.33365e-29
-2.27356e-29
2.25849e-29
-2.35385e-29
2.9056e-29
-1.74249e-29
3.14835e-29
-7.27267e-30
3.00732e-29
3.13762e-30
2.62916e-29
1.03142e-29
2.22966e-29
1.20907e-29
2.01723e-29
8.22487e-30
2.12351e-29
3.70294e-31
2.55805e-29
-8.46599e-30
3.20472e-29
-1.49484e-29
3.85775e-29
-1.64658e-29
4.29007e-29
-1.20567e-29
4.33123e-29
-2.76459e-30
3.93394e-29
8.51102e-30
3.20544e-29
1.78483e-29
2.39206e-29
2.1449e-29
1.81552e-29
1.69532e-29
1.77545e-29
4.39694e-30
2.4458e-29
-1.34726e-29
3.79337e-29
-3.15904e-29
5.55299e-29
-4.39928e-29
7.26579e-29
-4.52574e-29
8.39481e-29
-3.28377e-29
8.47166e-29
-7.5827e-30
7.26723e-29
2.47504e-29
4.89118e-29
5.60932e-29
1.83958e-29
7.58804e-29
-1.11601e-29
7.69469e-29
-3.08771e-29
5.45129e-29
-3.37095e-29
1.30365e-29
-1.65503e-29
-3.92444e-29
1.74271e-29
-8.53898e-29
5.93443e-29
-1.11186e-28
9.5597e-29
-1.02236e-28
1.13133e-28
-5.84279e-29
1.02166e-28
1.38257e-29
6.5698e-29
8.32492e-29
1.33146e-29
1.32058e-28
-2.81601e-29
1.13131e-28
-4.32966e-29
4.97712e-29
-2.87021e-29
-2.51124e-29
-8.93204e-29
-1.81646e-29
2.06409e-29
-5.03329e-29
1.39064e-28
-7.77558e-29
1.21814e-28
-6.98422e-29
-6.57563e-30
-4.80141e-29
-6.13778e-29
-1.71808e-29
-9.89875e-29
1.34155e-29
-1.04696e-28
3.72162e-29
-9.02065e-29
5.0347e-29
-5.68245e-29
5.14979e-29
-1.58244e-29
4.31871e-29
2.07437e-29
2.96512e-29
4.42795e-29
1.60753e-29
5.05584e-29
6.61273e-30
4.09166e-29
3.7485e-30
2.04308e-29
7.61989e-30
-3.26184e-30
1.64832e-29
-2.30203e-29
2.73691e-29
-3.36215e-29
3.71738e-29
-3.33432e-29
4.35668e-29
-2.38179e-29
4.56192e-29
-9.32507e-30
4.39398e-29
4.81704e-30
4.03258e-29
1.39282e-29
3.70978e-29
1.53187e-29
3.62814e-29
9.04135e-30
3.89393e-29
-2.28765e-30
4.4797e-29
-1.43237e-29
5.23267e-29
-2.24781e-29
5.92261e-29
-2.33652e-29
6.3188e-29
-1.60187e-29
6.27081e-29
-2.2846e-30
5.77018e-29
1.35172e-29
4.97167e-29
2.58334e-29
4.16273e-29
2.95383e-29
3.68668e-29
2.17137e-29
3.83486e-29
2.9151e-30
4.74258e-29
-2.25498e-29
6.31406e-29
-4.73052e-29
8.21448e-29
-6.2997e-29
9.92768e-29
-6.23894e-29
1.08912e-28
-4.24727e-29
1.06559e-28
-5.23021e-30
9.05488e-29
4.0761e-29
6.2949e-29
8.36931e-29
2.97022e-29
1.09127e-28
-6.44824e-31
1.07294e-28
-1.90407e-29
7.29087e-29
-1.87776e-29
1.27734e-29
1.99939e-30
-6.00214e-29
3.87644e-29
-1.22155e-28
8.09153e-29
-1.53337e-28
1.14182e-28
-1.35502e-28
1.25339e-28
-6.9585e-29
1.06387e-28
3.27781e-29
6.23921e-29
1.27244e-28
6.42339e-30
1.88027e-28
-3.39197e-29
1.53474e-28
-4.35233e-29
5.93748e-29
-2.26325e-29
-4.60032e-29
-1.11953e-28
-3.29238e-29
5.35647e-29
-7.84208e-29
1.84561e-28
-7.85914e-29
1.21985e-28
-6.54341e-29
-1.97329e-29
-3.91872e-29
-8.76247e-29
-5.08572e-30
-1.33089e-28
2.72837e-29
-1.37066e-28
5.04594e-29
-1.13382e-28
6.16465e-29
-6.80116e-29
6.01498e-29
-1.43277e-29
4.96038e-29
3.12897e-29
3.48143e-29
5.9069e-29
2.13875e-29
6.39852e-29
1.33241e-29
4.898e-29
1.27261e-29
2.10288e-29
1.9112e-29
-9.64778e-30
3.01758e-29
-3.40841e-29
4.25438e-29
-4.59896e-29
5.29908e-29
-4.37902e-29
5.93371e-29
-3.01642e-29
6.10046e-29
-1.09926e-29
5.90293e-29
6.7924e-30
5.55669e-29
1.73906e-29
5.31229e-29
1.77627e-29
5.36749e-29
8.48929e-30
5.80297e-29
-6.64242e-30
6.55271e-29
-2.1821e-29
7.42498e-29
-3.12008e-29
8.16258e-29
-3.07413e-29
8.52919e-29
-1.96848e-29
8.39337e-29
-9.26379e-31
7.78596e-29
1.95914e-29
6.91067e-29
3.45862e-29
6.09845e-29
3.76606e-29
5.7167e-29
2.55312e-29
6.05052e-29
-4.23091e-31
7.19762e-29
-3.40208e-29
8.99914e-29
-6.53203e-29
1.10494e-28
-8.34993e-29
1.27717e-28
-7.96129e-29
1.35765e-28
-5.05206e-29
1.30302e-28
2.32404e-31
1.10293e-28
6.07709e-29
7.87463e-29
1.15239e-28
4.2653e-29
1.4522e-28
1.13484e-29
1.38599e-28
-5.83093e-30
9.0088e-29
-2.61685e-30
9.55932e-30
2.17386e-29
-8.43769e-29
6.11616e-29
-1.61578e-28
1.03517e-28
-1.95692e-28
1.33602e-28
-1.65587e-28
1.38297e-28
-7.42797e-29
1.11088e-28
5.99873e-29
5.94875e-29
1.78844e-28
-3.10559e-31
2.47825e-28
-3.95988e-29
1.92762e-28
-4.35109e-29
6.32869e-29
-1.65905e-29
-7.29236e-29
-1.28543e-28
-4.42994e-29
9.78641e-29
-8.23567e-29
2.22619e-28
-7.96087e-29
1.19237e-28
-6.1e-29
-3.83417e-29
-2.99825e-29
-1.18642e-28
7.70527e-30
-1.70777e-28
4.20627e-29
-1.71423e-28
6.46996e-29
-1.36019e-28
7.39013e-29
-7.72134e-29
6.96347e-29
-1.00611e-29
5.67094e-29
4.42151e-29
4.05574e-29
7.52211e-29
2.72446e-29
7.72981e-29
2.06321e-29
5.55925e-29
2.24264e-29
1.92345e-29
3.14959e-29
-1.87173e-29
4.4933e-29
-4.75212e-29
5.89245e-29
-5.99811e-29
7.01024e-29
-5.49681e-29
7.64343e-29
-3.64961e-29
7.77081e-29
-1.22664e-29
7.54125e-29
9.08795e-30
7.2092e-29
2.07111e-29
7.0461e-29
1.93938e-29
7.2461e-29
6.48928e-30
7.86376e-29
-1.2819e-29
8.79258e-29
-3.11092e-29
9.79896e-29
-4.12646e-29
1.05957e-28
-3.87084e-29
1.09384e-28
-2.31118e-29
1.07137e-28
1.32063e-30
9.99242e-29
2.68039e-29
9.02971e-29
4.42134e-29
8.20343e-29
4.59233e-29
7.90862e-29
2.84793e-29
8.42709e-29
-5.60782e-30
9.81969e-29
-4.79468e-29
1.1864e-28
-8.57637e-29
1.40794e-28
-1.05653e-28
1.58259e-28
-9.70781e-29
1.64799e-28
-5.70605e-29
1.56228e-28
8.80359e-30
1.32092e-28
8.4907e-29
9.64075e-29
1.50924e-28
5.7191e-29
1.84437e-28
2.46956e-29
1.71094e-28
8.51896e-30
1.06265e-28
1.46103e-29
3.46791e-30
4.25424e-29
-1.12309e-28
8.4709e-29
-2.03744e-28
1.27381e-28
-2.38364e-28
1.54256e-28
-1.92463e-28
1.52455e-28
-7.24793e-29
1.16572e-28
9.58707e-29
5.71178e-29
2.38299e-28
-7.16067e-30
3.12103e-28
-4.53878e-29
2.30989e-28
-4.4034e-29
6.1933e-29
-1.05058e-29
-1.06452e-28
-1.39049e-28
-6.21489e-29
1.60013e-28
-6.94035e-29
2.29873e-28
-8.09421e-29
1.30776e-28
-5.64887e-29
-6.27951e-29
-2.03933e-29
-1.54738e-28
2.12326e-29
-2.12403e-28
5.77927e-29
-2.07983e-28
8.00025e-29
-1.58229e-28
8.71814e-29
-8.43923e-29
8.00336e-29
-2.91335e-30
6.45788e-29
5.967e-29
4.69502e-29
9.28497e-29
3.3703e-29
9.05453e-29
2.85823e-29
6.07133e-29
3.28828e-29
1.49341e-29
4.47967e-29
-3.06312e-29
6.0775e-29
-6.34996e-29
7.65335e-29
-7.57396e-29
8.85393e-29
-6.6974e-29
9.49066e-29
-4.28634e-29
9.58026e-29
-1.31624e-29
9.31937e-29
1.16968e-29
9.00368e-29
2.38679e-29
8.92722e-29
2.01585e-29
9.28079e-29
2.95353e-30
1.00916e-28
-2.09275e-29
1.12104e-28
-4.22972e-29
1.2359e-28
-5.27502e-29
1.32181e-28
-4.72993e-29
1.35347e-28
-2.62777e-29
1.32147e-28
4.52052e-30
1.23718e-28
3.52324e-29
1.13165e-28
5.4767e-29
1.04771e-28
5.43166e-29
1.02787e-28
3.04638e-29
1.09996e-28
-1.28166e-29
1.26606e-28
-6.4557e-29
1.49707e-28
-1.08865e-28
1.73671e-28
-1.29618e-28
1.91413e-28
-1.1482e-28
1.9631e-28
-6.1957e-29
1.84345e-28
2.07686e-29
1.5567e-28
1.13582e-28
1.15429e-28
1.91166e-28
7.2718e-29
2.27147e-28
3.8866e-29
2.04946e-28
2.36993e-29
1.21431e-28
3.29461e-29
-5.77896e-30
6.47954e-29
-1.44158e-28
1.10128e-28
-2.49077e-28
1.5329e-28
-2.81526e-28
1.76938e-28
-2.1611e-28
1.68184e-28
-6.37253e-29
1.22983e-28
1.41072e-28
5.48519e-29
3.0643e-28
-1.44701e-29
3.81425e-28
-5.17874e-29
2.68307e-28
-4.5106e-29
5.52516e-29
-4.2624e-30
-1.47295e-28
-1.43312e-28
-8.77445e-29
2.47758e-28
-8.18538e-29
2.23983e-28
-8.2726e-29
1.31648e-28
-5.19071e-29
-9.36139e-29
-1.03869e-29
-1.96258e-28
3.55335e-29
-2.58323e-28
7.45388e-29
-2.46989e-28
9.64376e-29
-1.80128e-28
1.01572e-28
-8.95265e-29
9.1429e-29
7.22948e-30
7.32922e-29
7.78069e-29
5.406e-29
1.12082e-28
4.08192e-29
1.03786e-28
3.72204e-29
6.43121e-29
4.41382e-29
8.01632e-30
5.90613e-29
-4.55542e-29
7.77605e-29
-8.21988e-29
9.54445e-29
-9.34236e-29
1.08392e-28
-7.99215e-29
1.14857e-28
-4.93284e-29
1.15397e-28
-1.37022e-29
1.12478e-28
1.46158e-29
1.09495e-28
2.68505e-29
1.09635e-28
2.00191e-29
1.14779e-28
-2.19059e-30
1.2492e-28
-3.10692e-29
1.3812e-28
-5.54964e-29
1.51125e-28
-6.57558e-29
1.60403e-28
-5.65768e-29
1.63325e-28
-2.91997e-29
1.59147e-28
8.69838e-30
1.49453e-28
4.49257e-29
1.3793e-28
6.62906e-29
1.29398e-28
6.28489e-29
1.28426e-28
3.14351e-29
1.3777e-28
-2.21599e-29
1.57221e-28
-8.40087e-29
1.83144e-28
-1.34788e-28
2.09049e-28
-1.55522e-28
2.27108e-28
-1.32879e-28
2.30291e-28
-6.51405e-29
2.14738e-28
3.63226e-29
1.81247e-28
1.47072e-28
1.36126e-28
2.36286e-28
8.96484e-29
2.73625e-28
5.42592e-29
2.40335e-28
4.00783e-29
1.35612e-28
5.25898e-29
-1.82905e-29
8.85565e-29
-1.80125e-28
1.37263e-28
-2.97784e-28
1.80984e-28
-3.25247e-28
2.01332e-28
-2.36458e-28
1.85233e-28
-4.76265e-29
1.30288e-28
1.96017e-28
5.28355e-29
3.83882e-28
-2.18251e-29
4.56086e-28
-5.8555e-29
3.05036e-28
-4.62249e-29
4.29215e-29
1.96044e-30
-1.95481e-28
-1.41351e-28
-9.89747e-29
3.46732e-28
-1.08328e-28
2.33336e-28
-8.48947e-29
1.08214e-28
-4.73611e-29
-1.31148e-28
-1.59805e-32
-2.43603e-28
5.05659e-29
-3.08905e-28
9.22993e-29
-2.88722e-28
1.14028e-28
-2.01857e-28
1.17125e-28
-9.2624e-29
1.03886e-28
2.04687e-29
8.29237e-29
9.87694e-29
6.19575e-29
1.33048e-28
4.86592e-29
1.17085e-28
4.6606e-29
6.63655e-29
5.62514e-29
-1.62906e-30
7.43523e-29
-6.36551e-29
9.59618e-29
-1.03808e-28
1.15742e-28
-1.13204e-28
1.29756e-28
-9.39356e-29
1.36388e-28
-5.59599e-29
1.36593e-28
-1.39074e-29
1.33361e-28
1.78477e-29
1.30553e-28
2.96581e-29
1.31626e-28
1.89462e-29
1.3845e-28
-9.0144e-30
1.50736e-28
-4.33558e-29
1.66083e-28
-7.0843e-29
1.80743e-28
-8.04161e-29
1.90814e-28
-6.66471e-29
1.93548e-28
-3.19342e-29
1.88392e-28
1.38547e-29
1.77386e-28
5.5932e-29
1.64819e-28
7.88572e-29
1.56082e-28
7.15856e-29
1.56097e-28
3.14205e-29
1.67607e-28
-3.367e-29
1.89995e-28
-1.06397e-28
2.18879e-28
-1.63671e-28
2.46871e-28
-1.83515e-28
2.65357e-28
-1.51365e-28
2.66863e-28
-6.66457e-29
2.47643e-28
5.55424e-29
2.09162e-28
1.85554e-28
1.58898e-28
2.8655e-28
1.08377e-28
3.24146e-28
7.11875e-29
2.77525e-28
5.78431e-29
1.48957e-28
7.35521e-29
-3.39996e-29
1.13711e-28
-2.20284e-28
1.65879e-28
-3.49952e-28
2.10263e-28
-3.69631e-28
2.27273e-28
-2.53468e-28
2.03664e-28
-2.40169e-29
1.38613e-28
2.61068e-28
5.13953e-29
4.711e-28
-2.90586e-29
5.3654e-28
-6.55317e-29
3.4151e-28
-4.74711e-29
2.48609e-29
7.93659e-30
-2.50889e-28
-1.33415e-28
-1.02467e-28
4.49199e-28
-1.19263e-28
2.50133e-28
-8.73964e-29
7.6348e-29
-4.29117e-29
-1.75632e-28
1.06643e-29
-2.97179e-28
6.6298e-29
-3.64539e-28
1.11066e-28
-3.33491e-28
1.32801e-28
-2.23592e-28
1.33896e-28
-9.37186e-29
1.17479e-28
3.68849e-29
9.35547e-29
1.22694e-28
7.07239e-29
1.55879e-28
5.7297e-29
1.30512e-28
5.68045e-29
6.68581e-29
6.92803e-29
-1.41048e-29
9.0725e-29
-8.50999e-29
1.15437e-28
-1.2852e-28
1.37491e-28
-1.35258e-28
1.52706e-28
-1.09151e-28
1.59585e-28
-6.28383e-29
1.59488e-28
-1.38109e-29
1.5595e-28
2.13862e-29
1.53326e-28
3.22822e-29
1.55367e-28
1.69044e-29
1.63948e-28
-1.75946e-29
1.78495e-28
-5.79033e-29
1.96128e-28
-8.84756e-29
2.12578e-28
-9.68658e-29
2.23543e-28
-7.76125e-29
2.2614e-28
-3.45309e-29
2.19995e-28
1.99992e-29
2.07619e-28
6.83085e-29
1.93932e-28
9.25442e-29
1.84928e-28
8.05889e-29
1.85916e-28
3.04331e-29
1.99649e-28
-4.74035e-29
2.251e-28
-1.31847e-28
2.57116e-28
-1.95687e-28
2.8737e-28
-2.13769e-28
3.06404e-28
-1.704e-28
3.06251e-28
-6.64932e-29
2.83258e-28
7.85364e-29
2.39552e-28
2.29259e-28
1.83821e-28
3.42282e-28
1.28911e-28
3.79055e-28
8.96235e-29
3.16813e-28
7.69431e-29
1.61637e-28
9.58199e-29
-5.28765e-29
1.40294e-28
-2.64759e-28
1.96101e-28
-4.05759e-28
2.41331e-28
-4.14861e-28
2.55011e-28
-2.67148e-28
2.23735e-28
7.25865e-30
1.48128e-28
3.36675e-28
5.06206e-29
5.68607e-28
-3.62637e-29
6.23424e-28
-7.27885e-29
3.78034e-28
-4.91005e-29
1.17281e-30
1.36932e-29
-3.13682e-28
-1.19721e-28
-1.19717e-28
5.68917e-28
-1.22886e-28
2.53302e-28
-9.03176e-29
4.37795e-29
-3.85678e-29
-2.27382e-28
2.16217e-29
-3.57369e-28
8.27201e-29
-4.25638e-28
1.30848e-28
-3.81618e-28
1.52798e-28
-2.45542e-28
1.51947e-28
-9.28679e-29
1.32293e-28
5.65392e-29
1.05275e-28
1.49712e-28
8.04478e-29
1.80707e-28
6.6811e-29
1.44148e-28
6.78834e-29
6.57857e-29
8.32834e-29
-2.95047e-29
1.08235e-28
-1.10051e-28
1.36244e-28
-1.56529e-28
1.6076e-28
-1.59774e-28
1.77326e-28
-1.25717e-28
1.84545e-28
-7.00583e-29
1.84192e-28
-1.34575e-29
1.80362e-28
2.52162e-29
1.77934e-28
3.47101e-29
1.80981e-28
1.38576e-29
1.91392e-28
-2.80055e-29
2.08313e-28
-7.48247e-29
2.28368e-28
-1.08531e-28
2.46742e-28
-1.15239e-28
2.58708e-28
-8.95782e-29
2.61221e-28
-3.70442e-29
2.54085e-28
2.71347e-29
2.40289e-28
8.2105e-29
2.25411e-28
1.07422e-28
2.16084e-28
8.99155e-29
2.18035e-28
2.84822e-29
2.34051e-28
-6.34199e-29
2.62692e-28
-1.60488e-28
2.98014e-28
-2.3101e-28
3.30704e-28
-2.46459e-28
3.5041e-28
-1.90105e-28
3.48619e-28
-6.47027e-29
3.2174e-28
1.05415e-28
2.72568e-28
2.78431e-28
2.11036e-28
4.03814e-28
1.51374e-28
4.38717e-28
1.09678e-28
3.58509e-28
9.74671e-29
1.73848e-28
1.19476e-28
-7.48851e-29
1.68371e-28
-3.13654e-28
2.28006e-28
-4.65394e-28
2.74249e-28
-4.61105e-28
2.84636e-28
-2.77535e-28
2.45524e-28
4.63707e-29
1.58941e-28
4.23258e-28
5.05849e-29
6.76964e-28
-4.33416e-29
7.17351e-28
-8.02913e-29
4.14984e-28
-5.11154e-29
-2.80031e-29
1.92742e-29
-3.84072e-28
-1.00447e-28
-1.43291e-28
7.12208e-28
-1.3349e-28
2.435e-28
-9.37372e-29
4.02719e-30
-3.43649e-29
-2.86754e-28
3.28128e-29
-4.24546e-28
9.9806e-29
-4.92631e-28
1.51644e-28
-4.33457e-28
1.74052e-28
-2.6795e-28
1.71343e-28
-9.01591e-29
1.48412e-28
7.94703e-29
1.18181e-28
1.79943e-28
9.12234e-29
2.07664e-28
7.72868e-29
1.58085e-28
7.99173e-29
6.31553e-29
9.83258e-29
-4.79132e-29
1.26944e-28
-1.38669e-28
1.58449e-28
-1.88034e-28
1.85624e-28
-1.86949e-28
2.03703e-28
-1.43796e-28
2.11374e-28
-7.77291e-29
2.1082e-28
-1.2904e-29
2.06721e-28
2.93156e-29
2.04503e-28
3.69276e-29
2.08589e-28
9.77251e-30
2.20901e-28
-4.03177e-29
2.40307e-28
-9.4231e-29
2.62924e-28
-1.31147e-28
2.83364e-28
-1.3568e-28
2.96448e-28
-1.02662e-28
2.98948e-28
-3.95439e-29
2.90832e-28
3.52503e-29
2.75575e-28
9.73628e-29
2.59435e-28
1.23562e-28
2.4972e-28
9.96305e-29
2.52609e-28
2.5593e-29
2.70949e-28
-8.17594e-29
3.02891e-28
-1.92431e-28
3.41684e-28
-2.69803e-28
3.76987e-28
-2.81762e-28
3.97502e-28
-2.10619e-28
3.94119e-28
-6.13202e-29
3.63274e-28
1.3626e-28
3.0842e-28
3.33285e-28
2.40765e-28
4.7147e-28
1.7598e-28
5.03501e-28
1.31534e-28
4.02955e-28
1.1955e-28
1.85832e-28
1.44597e-28
-9.99316e-29
1.97966e-28
-3.67024e-28
2.61585e-28
-5.29013e-28
3.09006e-28
-5.08526e-28
3.16166e-28
-2.84695e-28
2.69087e-28
9.34497e-29
1.71177e-28
5.21168e-28
5.14291e-29
7.96712e-28
-5.01376e-29
8.18918e-28
-8.79777e-29
4.52824e-28
-5.34815e-29
-6.24993e-29
2.46101e-29
-4.62163e-28
-7.58372e-29
-1.60358e-28
8.72567e-28
-1.47975e-28
2.31117e-28
-9.76545e-29
-4.62931e-29
-3.03612e-29
-3.54048e-28
4.4183e-29
-4.99091e-28
1.17515e-28
-5.65964e-28
1.73442e-28
-4.89383e-28
1.96585e-28
-2.91094e-28
1.92141e-28
-8.57151e-29
1.65921e-28
1.0569e-28
1.32371e-28
2.13493e-28
1.03153e-28
2.36883e-28
8.88192e-29
1.72419e-28
9.29885e-29
5.89861e-29
1.14479e-28
-6.94037e-29
1.46917e-28
-1.71107e-28
1.8212e-28
-2.23237e-28
2.12162e-28
-2.16991e-28
2.31931e-28
-1.63565e-28
2.40177e-28
-8.59753e-29
2.39493e-28
-1.22204e-29
2.35155e-28
3.36539e-29
2.33165e-28
3.8917e-29
2.38322e-28
4.61622e-30
2.52604e-28
-5.45998e-29
2.74605e-28
-1.16233e-28
2.99925e-28
-1.56467e-28
3.22583e-28
-1.58338e-28
3.36915e-28
-1.16994e-28
3.39485e-28
-4.21133e-29
3.30412e-28
4.43235e-29
3.13658e-28
1.14117e-28
2.96185e-28
1.41035e-28
2.86008e-28
1.09808e-28
2.89796e-28
2.18047e-29
3.10483e-28
-1.02447e-28
3.45827e-28
-2.27774e-28
3.88251e-28
-3.12227e-28
4.26353e-28
-3.19864e-28
4.47833e-28
-2.32098e-28
4.42931e-28
-5.64182e-29
4.08064e-28
1.71127e-28
3.4733e-28
3.94019e-28
2.7323e-28
5.4557e-28
2.02934e-28
5.73796e-28
1.55355e-28
4.50534e-28
1.43306e-28
1.97881e-28
1.7124e-28
-1.27865e-28
2.29098e-28
-4.24882e-28
2.96835e-28
-5.9675e-28
3.45611e-28
-5.57301e-28
3.49649e-28
-2.88733e-28
2.9453e-28
1.48569e-28
1.84983e-28
6.30715e-28
5.33176e-29
9.28377e-28
-5.6524e-29
9.28759e-28
-9.57931e-29
4.92093e-28
-5.62174e-29
-1.02075e-28
2.96205e-29
-5.48001e-28
-4.62168e-29
-1.74183e-28
1.04675e-27
-1.61548e-28
2.18482e-28
-1.0206e-28
-1.05782e-28
-2.661e-29
-4.29497e-28
5.56735e-29
-5.81374e-28
1.35801e-28
-6.46092e-28
1.9622e-28
-5.49802e-28
2.20416e-28
-3.1529e-28
2.14397e-28
-7.96968e-29
1.84908e-28
1.35179e-28
1.47951e-28
2.5045e-28
1.16345e-28
2.68489e-28
1.01511e-28
1.87254e-28
1.07187e-28
5.33097e-29
1.31821e-28
-9.40374e-29
1.68225e-28
-2.07511e-28
2.07328e-28
-2.62339e-28
2.40453e-28
-2.50117e-28
2.62102e-28
-1.85215e-28
2.71065e-28
-9.4938e-29
2.70336e-28
-1.14913e-29
2.65799e-28
3.81905e-29
2.6406e-28
4.06562e-29
2.7032e-28
-1.64383e-30
2.86638e-28
-7.09175e-29
3.11343e-28
-1.40938e-28
3.39511e-28
-1.84635e-28
3.64543e-28
-1.8337e-28
3.80265e-28
-1.32715e-28
3.83001e-28
-4.48493e-29
3.73005e-28
5.43191e-29
3.54728e-28
1.32394e-28
3.35852e-28
1.59911e-28
3.25131e-28
1.20529e-28
3.29765e-28
1.71709e-29
3.52808e-28
-1.25489e-28
3.91638e-28
-2.66604e-28
4.37849e-28
-3.58438e-28
4.78942e-28
-3.60957e-28
5.01562e-28
-2.54718e-28
4.9524e-28
-5.00958e-29
4.56324e-28
2.10043e-28
3.89532e-28
4.60811e-28
3.08669e-28
6.26434e-28
2.32456e-28
6.50009e-28
1.81321e-28
5.01669e-28
1.6886e-28
2.10342e-28
1.99469e-28
-1.58474e-28
2.61783e-28
-4.87196e-28
3.33747e-28
-6.68714e-28
3.84066e-28
-6.07621e-28
3.85122e-28
-2.89789e-28
3.2195e-28
2.11741e-28
2.00507e-28
7.52159e-28
5.64257e-29
1.07246e-27
-6.23585e-29
1.04754e-27
-1.03662e-28
5.33397e-28
-5.93451e-29
-1.46392e-28
3.42478e-29
-6.41594e-28
-1.1969e-29
-1.89551e-28
1.2363e-27
-1.74475e-28
2.03406e-28
-1.06966e-28
-1.73291e-28
-2.31599e-29
-5.13303e-28
6.72201e-29
-6.71754e-28
1.54609e-28
-7.3348e-28
2.19949e-28
-6.15143e-28
2.45554e-28
-3.40894e-28
2.38164e-28
-7.23073e-29
2.05461e-28
1.67883e-28
1.65032e-28
2.90878e-28
1.30918e-28
3.02603e-28
1.15473e-28
2.02699e-28
1.22611e-28
4.61711e-29
1.50435e-28
-1.21861e-28
1.90944e-28
-2.4802e-28
2.34146e-28
-3.05542e-28
2.70578e-28
-2.86548e-28
2.94315e-28
-2.08952e-28
3.04153e-28
-1.04776e-28
3.03479e-28
-1.08179e-29
2.98797e-28
4.2873e-29
2.97335e-28
4.21176e-29
3.04732e-28
-9.04017e-30
3.23148e-28
-8.93339e-29
3.50663e-28
-1.68453e-28
3.81823e-28
-2.15794e-28
4.09394e-28
-2.10941e-28
4.26657e-28
-1.49979e-28
4.29672e-28
-4.7864e-29
4.18804e-28
6.51873e-29
3.98987e-28
1.5221e-28
3.78639e-28
1.80259e-28
3.67286e-28
1.31882e-28
3.72697e-28
1.17597e-29
3.98085e-28
-1.50877e-28
4.40471e-28
-3.0899e-28
4.90616e-28
-4.08583e-28
5.34896e-28
-4.05236e-28
5.58849e-28
-2.78672e-28
5.51234e-28
-4.24805e-29
5.08272e-28
2.53004e-28
4.35271e-28
5.33812e-28
3.47336e-28
7.14369e-28
2.64785e-28
7.3256e-28
2.09631e-28
5.56823e-28
1.96352e-28
2.23622e-28
2.29358e-28
-1.91481e-28
2.96038e-28
-5.53876e-28
3.72305e-28
-7.44981e-28
4.2436e-28
-6.59676e-28
4.22613e-28
-2.88041e-28
3.5144e-28
2.82914e-28
2.17901e-28
8.85698e-28
6.09386e-29
1.22942e-27
-6.74788e-29
1.17596e-27
-1.11497e-28
5.77416e-28
-6.28766e-29
-1.95013e-28
3.8438e-29
-7.42909e-28
2.6469e-29
-2.05949e-28
1.44225e-27
-1.87697e-28
1.85154e-28
-1.12383e-28
-2.48604e-28
-2.00588e-29
-6.05627e-28
7.87537e-29
-7.70567e-28
1.73874e-28
-8.28601e-28
2.44589e-28
-6.85858e-28
2.72002e-28
-3.68307e-28
2.63489e-28
-6.3795e-29
2.27667e-28
2.03705e-28
1.83727e-28
3.34819e-28
1.46997e-28
3.39332e-28
1.30826e-28
2.18871e-28
1.39368e-28
3.76286e-29
1.70413e-28
-1.52906e-28
2.15152e-28
-2.92758e-28
2.62653e-28
-3.53043e-28
3.02623e-28
-3.26518e-28
3.28668e-28
-2.34997e-28
3.39559e-28
-1.15667e-28
3.39061e-28
-1.03193e-29
3.34298e-28
4.76355e-29
3.33149e-28
4.32669e-29
3.41714e-28
-1.76057e-29
3.62289e-28
-1.09908e-28
3.92716e-28
-1.9888e-28
4.27012e-28
-2.50091e-28
4.57291e-28
-2.4122e-28
4.76261e-28
-1.68949e-28
4.79683e-28
-5.12854e-29
4.68008e-28
7.68618e-29
4.46647e-28
1.73571e-28
4.24762e-28
2.02144e-28
4.12682e-28
1.43962e-28
4.18786e-28
5.65527e-30
4.46488e-28
-1.78579e-28
4.92479e-28
-3.54982e-28
5.46695e-28
-4.62799e-28
5.9436e-28
-4.52901e-28
6.19858e-28
-3.0417e-28
6.11108e-28
-3.37302e-29
5.64141e-28
2.99972e-28
4.84807e-28
6.13145e-28
3.89502e-28
8.09674e-28
3.00178e-28
8.21884e-28
2.40503e-28
6.16499e-28
2.25934e-28
2.3819e-28
2.60988e-28
-2.26535e-28
3.31878e-28
-6.24766e-28
4.12484e-28
-8.25587e-28
4.66468e-28
-7.13661e-28
4.62138e-28
-2.83711e-28
3.83082e-28
3.6197e-28
2.37321e-28
1.03146e-27
6.7054e-29
1.39969e-27
-7.17023e-29
1.31472e-27
-1.19193e-28
6.24907e-28
-6.6814e-29
-2.47392e-28
4.21367e-29
-8.5186e-28
6.86057e-29
-2.22144e-28
1.66439e-27
-2.01308e-28
1.64317e-28
-1.18308e-28
-3.31604e-28
-1.73538e-29
-7.06581e-28
9.02012e-29
-8.78122e-28
1.93524e-28
-9.31924e-28
2.7009e-28
-7.62425e-28
2.99753e-28
-3.9797e-28
2.90415e-28
-5.44573e-29
2.51615e-28
2.42505e-28
2.04155e-28
3.82279e-28
1.64714e-28
3.78773e-28
1.477e-28
2.35885e-28
1.57575e-28
2.7754e-29
1.91855e-28
-1.87186e-28
2.40937e-28
-3.4184e-28
2.9293e-28
-4.05036e-28
3.36675e-28
-3.70263e-28
3.65265e-28
-2.63587e-28
3.77407e-28
-1.27809e-28
3.77222e-28
-1.01343e-29
3.7246e-28
5.23974e-29
3.71665e-28
4.40617e-29
3.81433e-28
-2.73744e-29
4.04221e-28
-1.32696e-28
4.37658e-28
-2.32317e-28
4.75235e-28
-2.87667e-28
5.08397e-28
-2.74382e-28
5.29251e-28
-1.89804e-28
5.33225e-28
-5.52588e-29
5.20828e-28
8.92584e-29
4.97932e-28
1.96468e-28
4.74449e-28
2.25626e-28
4.6154e-28
1.56871e-28
4.68237e-28
-1.04177e-30
4.98199e-28
-2.0854e-28
5.47824e-28
-4.04607e-28
6.06233e-28
-5.21207e-28
6.57483e-28
-5.04152e-28
6.84755e-28
-3.31442e-28
6.75061e-28
-2.40357e-29
6.24166e-28
3.50866e-28
5.38412e-28
6.989e-28
4.35459e-28
9.12628e-28
3.38918e-28
9.18424e-28
2.74175e-28
6.81242e-28
2.5778e-28
2.54585e-28
2.94447e-28
-2.63202e-28
3.69317e-28
-6.99635e-28
4.54251e-28
-9.10521e-28
5.10351e-28
-7.69762e-28
5.03697e-28
-2.77056e-28
4.16954e-28
4.48712e-28
2.58927e-28
1.18949e-27
7.49823e-29
1.58363e-27
-7.4827e-29
1.46453e-27
-1.26628e-28
6.76707e-28
-7.11499e-29
-3.0287e-28
4.52906e-29
-9.683e-28
1.13896e-28
-2.37826e-28
1.90222e-27
-2.15127e-28
1.41619e-28
-1.24722e-28
-4.2201e-28
-1.50887e-29
-8.16214e-28
1.01486e-28
-9.94696e-28
2.13479e-28
-1.04392e-27
2.96391e-28
-8.45336e-28
3.2879e-28
-4.30369e-28
3.18977e-28
-4.46443e-29
2.7739e-28
2.84092e-28
2.26438e-28
4.33231e-28
1.84209e-28
4.21002e-28
1.66235e-28
2.5386e-28
1.77357e-28
1.66322e-29
2.14869e-28
-2.24698e-28
2.68391e-28
-3.95363e-28
3.25064e-28
-4.61709e-28
3.72825e-28
-4.18024e-28
4.0421e-28
-2.94972e-28
4.17821e-28
-1.4142e-28
4.1811e-28
-1.04231e-29
4.13446e-28
5.70607e-29
4.13058e-28
4.44503e-29
4.24065e-28
-3.83818e-29
4.49119e-28
-1.5775e-28
4.85659e-28
-2.68857e-28
5.26658e-28
-3.28666e-28
5.62881e-28
-3.10605e-28
5.8581e-28
-2.12732e-28
5.90499e-28
-5.99479e-29
5.77484e-28
1.02273e-28
5.53077e-28
2.20875e-28
5.27944e-28
2.50758e-28
5.141e-28
1.70716e-28
5.21271e-28
-8.21338e-30
5.53414e-28
-2.40683e-28
6.06675e-28
-4.57869e-28
6.69382e-28
-5.83915e-28
7.24416e-28
-5.59185e-28
7.53709e-28
-3.60735e-28
7.43296e-28
-1.36227e-29
6.88598e-28
4.05564e-28
5.96376e-28
7.91122e-28
4.85516e-28
1.02349e-27
3.81309e-28
1.02263e-27
3.1091e-28
7.51641e-28
2.92079e-28
2.73416e-28
3.29837e-28
-3.0096e-28
4.08371e-28
-7.78169e-28
4.97561e-28
-9.99712e-28
5.55954e-28
-8.28154e-28
5.47274e-28
-2.68377e-28
4.5312e-28
5.42867e-28
2.82875e-28
1.35973e-27
8.49455e-29
1.78156e-27
-7.6631e-29
1.6261e-27
-1.33659e-28
7.33735e-28
-7.58659e-29
-3.60663e-28
4.78497e-29
-1.09202e-27
1.61746e-28
-2.52977e-28
2.1552e-27
-2.28994e-28
1.17636e-28
-1.31596e-28
-5.19406e-28
-1.33025e-29
-9.34508e-28
1.12528e-28
-1.12053e-27
2.33648e-28
-1.16504e-27
3.23416e-28
-9.35105e-28
3.59083e-28
-4.66036e-28
3.492e-28
-3.47616e-29
3.05073e-28
3.28219e-28
2.507e-28
4.87603e-28
2.05629e-28
4.66074e-28
1.8658e-28
2.72909e-28
1.98852e-28
4.36024e-30
2.39572e-28
-2.65418e-28
2.97615e-28
-4.53405e-28
3.59145e-28
-5.23239e-28
4.11168e-28
-4.70047e-28
4.45613e-28
-3.29417e-28
4.60933e-28
-1.5674e-28
4.61879e-28
-1.13687e-29
4.5743e-28
6.15091e-29
4.57511e-28
4.43698e-29
4.69795e-28
-5.06661e-29
4.97163e-28
-1.85117e-28
5.36892e-28
-3.08586e-28
5.81452e-28
-3.73226e-28
6.20922e-28
-3.50075e-28
6.46126e-28
-2.37937e-28
6.51713e-28
-6.55353e-29
6.38206e-28
1.15781e-28
6.12331e-28
2.4675e-28
5.85503e-28
2.77586e-28
5.70611e-28
1.85607e-28
5.78121e-28
-1.57237e-29
6.12339e-28
-2.74901e-28
6.6921e-28
-5.1474e-28
7.36301e-28
-6.51006e-28
7.95312e-28
-6.18196e-28
8.2689e-28
-3.92313e-28
8.1602e-28
-2.75298e-30
7.57689e-28
4.63895e-28
6.58998e-28
8.89813e-28
5.40005e-28
1.14248e-27
4.27676e-28
1.13496e-27
3.50995e-28
8.28322e-28
3.2904e-28
2.9537e-28
3.67269e-28
-3.39188e-28
4.49056e-28
-8.59956e-28
5.42364e-28
-1.09302e-27
6.03204e-28
-8.88994e-28
5.92836e-28
-2.58009e-28
4.91631e-28
6.44072e-28
3.09319e-28
1.54204e-27
9.71755e-29
1.99371e-27
-7.68729e-29
1.80015e-27
-1.40124e-28
7.96987e-28
-8.09303e-29
-4.19857e-28
4.97692e-29
-1.22272e-27
2.11515e-28
-2.67532e-28
2.42273e-27
-2.42773e-28
9.28767e-29
-1.38889e-28
-6.2329e-28
-1.20276e-29
-1.06137e-27
1.23248e-28
-1.2558e-27
2.53934e-28
-1.29572e-27
3.51082e-28
-1.03225e-27
3.90591e-28
-5.05546e-28
3.81102e-28
-2.5273e-29
3.34742e-28
3.74578e-28
2.77066e-28
5.4528e-28
2.29127e-28
5.14013e-28
2.08894e-28
2.93142e-28
2.22208e-28
-8.95356e-30
2.66093e-28
-3.09302e-28
3.28716e-28
-5.16029e-28
3.95271e-28
-5.89794e-28
4.51802e-28
-5.26578e-28
4.89586e-28
-3.67202e-28
5.06877e-28
-1.74031e-28
5.08687e-28
-1.31788e-29
5.04591e-28
6.5605e-29
5.05216e-28
4.37443e-29
5.18819e-28
-6.42688e-29
5.48545e-28
-2.14844e-28
5.91545e-28
-3.51586e-28
6.39801e-28
-4.21482e-28
6.82702e-28
-3.92976e-28
7.10396e-28
-2.6563e-28
7.17084e-28
-7.22236e-29
7.03234e-28
1.29631e-28
6.75953e-28
2.74031e-28
6.47396e-28
3.06143e-28
6.31343e-28
2.01661e-28
6.39038e-28
-2.34187e-29
6.75196e-28
-3.11059e-28
7.35619e-28
-5.75164e-28
8.07155e-28
-7.22541e-28
8.70329e-28
-6.8137e-28
9.0447e-28
-4.26454e-28
8.93444e-28
8.27375e-30
8.31704e-28
5.25635e-28
7.26595e-28
9.94922e-28
5.99274e-28
1.2698e-27
4.78374e-28
1.25586e-27
3.94742e-28
9.11955e-28
3.68899e-28
3.21213e-28
4.06871e-28
-3.77161e-28
4.91393e-28
-9.44478e-28
5.88599e-28
-1.19023e-27
6.52014e-28
-9.52409e-28
6.40328e-28
-2.46323e-28
5.32523e-28
7.51876e-28
3.3841e-28
1.73616e-27
1.11912e-28
2.2202e-27
-7.52923e-29
1.98736e-27
-1.45839e-28
8.67533e-28
-8.62956e-29
-4.794e-28
5.1011e-29