/*--------------------------------*- C++ -*----------------------------------*\
| =========                 |                                                 |
| \\      /  F ield         | foam-extend: Open Source CFD                    |
|  \\    /   O peration     | Version:     4.0                                |
|   \\  /    A nd           | Web:         http://www.foam-extend.org         |
|    \\/     M anipulation  |                                                 |
\*---------------------------------------------------------------------------*/
FoamFile
{
    version     2.0;
    format      ascii;
    class       surfaceScalarField;
    location    "4";
    object      phi;
}
// * * * * * * * * * * * * * * * * * * * * * * * * * * * * * * * * * * * * * //

dimensions      [0 3 -1 0 0 0 0];

internalField   nonuniform List<scalar> 
13744
(
-1.30184e-08
1.3019e-08
7.33349e-09
-2.03519e-08
7.80488e-11
7.25544e-09
1.4375e-11
6.36741e-11
-6.06139e-12
2.04374e-11
-6.52689e-12
4.62519e-13
-6.22829e-12
-3.00315e-13
-5.16218e-12
-1.06704e-12
-4.23621e-12
-9.26037e-13
-3.40299e-12
-8.31557e-13
-2.71419e-12
-6.90781e-13
-2.14554e-12
-5.67213e-13
-1.67631e-12
-4.70735e-13
-1.2957e-12
-3.79696e-13
-9.81207e-13
-3.1386e-13
-7.2633e-13
-2.52798e-13
-5.19819e-13
-2.07723e-13
-3.53628e-13
-1.68532e-13
-2.2136e-13
-1.34337e-13
-1.20446e-13
-9.9698e-14
-4.29641e-14
-7.80487e-14
1.25984e-14
-5.57332e-14
4.84009e-14
-3.68594e-14
6.98161e-14
-2.19824e-14
7.80811e-14
-7.88258e-15
7.42624e-14
3.10862e-15
6.33911e-14
1.13243e-14
4.6341e-14
1.66533e-14
2.36416e-14
2.37588e-14
-1.72031e-15
2.75335e-14
-1.90753e-14
1.64313e-14
-5.00303e-14
3.10862e-14
-6.31897e-14
1.5099e-14
-7.00585e-14
8.54872e-15
-8.21344e-14
1.28786e-14
-6.96428e-14
-1.27676e-14
-4.41884e-14
-2.40918e-14
-1.64614e-14
-2.4647e-14
4.32215e-14
-5.9841e-14
1.24837e-13
-7.9825e-14
2.17619e-13
-9.50351e-14
3.54033e-13
-1.37779e-13
5.24317e-13
-1.71752e-13
7.22496e-13
-1.99396e-13
9.81505e-13
-2.57683e-13
1.3002e-12
-3.18856e-13
1.67258e-12
-3.73257e-13
2.14582e-12
-4.71845e-13
2.71853e-12
-5.71876e-13
3.39898e-12
-6.79679e-13
4.23636e-12
-8.38107e-13
5.16651e-12
-9.31255e-13
6.2245e-12
-1.05949e-12
6.52743e-12
-3.02536e-13
6.06617e-12
4.6152e-13
-1.43783e-11
2.04442e-11
-7.80478e-11
6.36727e-11
-7.33349e-09
7.25544e-09
1.30184e-08
-2.03519e-08
1.30184e-08
6.84461e-08
-5.54272e-08
1.02193e-08
3.78749e-08
3.13397e-10
1.71613e-08
8.81769e-11
2.88886e-10
1.07923e-11
9.78202e-11
1.19341e-12
1.00702e-11
-3.81288e-12
4.70357e-12
-4.21801e-12
-6.60028e-13
-4.2207e-12
-9.24261e-13
-3.6302e-12
-1.42208e-12
-3.07902e-12
-1.23168e-12
-2.48958e-12
-1.15985e-12
-1.99039e-12
-9.68114e-13
-1.53385e-12
-8.36997e-13
-1.15911e-12
-6.88782e-13
-8.38128e-13
-5.79758e-13
-5.7344e-13
-4.71956e-13
-3.5904e-13
-3.71592e-13
-1.90732e-13
-3.01759e-13
-5.58472e-14
-2.39697e-13
4.01344e-14
-1.73195e-13
1.0683e-13
-1.22791e-13
1.50935e-13
-7.71605e-14
1.69032e-13
-3.88578e-14
1.67907e-13
-1.13243e-14
1.55286e-13
1.78746e-14
1.26289e-13
4.40759e-14
8.82332e-14
5.50671e-14
4.88984e-14
5.83977e-14
1.12283e-15
7.18314e-14
-5.78537e-14
7.41629e-14
-7.5875e-14
5.00711e-14
-1.26065e-13
6.22835e-14
-1.67034e-13
4.68514e-14
-1.56056e-13
-3.33067e-15
-1.68874e-13
4.21885e-15
-1.62593e-13
-3.33067e-14
-9.47097e-14
-9.9365e-14
-3.97645e-14
-1.13354e-13
4.4445e-14
-1.69864e-13
2.03095e-13
-2.498e-13
3.59665e-13
-2.88991e-13
5.62234e-13
-3.74811e-13
8.50421e-13
-4.86833e-13
1.15963e-12
-5.69544e-13
1.52267e-12
-6.80678e-13
2.00285e-12
-8.471e-13
2.49009e-12
-9.57345e-13
3.06762e-12
-1.15186e-12
3.64227e-12
-1.26099e-12
4.22099e-12
-1.41676e-12
4.20659e-12
-9.16267e-13
3.82526e-12
-6.7546e-13
-1.19253e-12
4.71589e-12
-1.0803e-11
1.00675e-11
-8.81636e-11
9.78039e-11
-3.13395e-10
2.88898e-10
-1.02193e-08
1.71613e-08
-6.84461e-08
3.78749e-08
-5.54277e-08
4.22404e-08
-9.76675e-08
1.60222e-08
6.40931e-08
5.73774e-10
3.26097e-08
1.82073e-10
6.80599e-10
4.0675e-11
2.39221e-10
1.78119e-11
3.29252e-11
4.85268e-12
1.76685e-11
1.38059e-12
2.81548e-12
-7.18721e-13
1.17961e-12
-1.16653e-12
-9.76691e-13
-1.38049e-12
-1.02723e-12
-1.22326e-12
-1.31687e-12
-1.05765e-12
-1.13608e-12
-8.0952e-13
-1.09063e-12
-5.99523e-13
-9.00294e-13
-3.8755e-13
-7.88924e-13
-2.14265e-13
-6.46913e-13
-6.26647e-14
-5.37972e-13
5.31389e-14
-4.14981e-13
1.46659e-13
-3.31291e-13
2.09047e-13
-2.35402e-13
2.49062e-13
-1.56784e-13
2.6747e-13
-1.01322e-13
2.65618e-13
-3.41879e-14
2.46336e-13
1.4086e-14
2.15241e-13
4.40134e-14
1.70872e-13
8.01997e-14
1.18375e-13
1.07789e-13
6.25529e-14
1.22798e-13
-9.50855e-16
1.32304e-13
-6.54202e-14
1.46265e-13
-1.12426e-13
9.47645e-14
-1.7073e-13
1.24754e-13
-2.20614e-13
9.86711e-14
-2.41017e-13
2.04281e-14
-2.65556e-13
2.05114e-14
-2.72705e-13
-2.31759e-14
-2.43445e-13
-1.24956e-13
-2.08702e-13
-1.51622e-13
-1.51581e-13
-2.22065e-13
-4.72169e-14
-3.52413e-13
6.33218e-14
-4.04538e-13
2.09604e-13
-5.15817e-13
3.93467e-13
-6.68528e-13
6.00141e-13
-7.72216e-13
8.04935e-13
-8.85819e-13
1.06376e-12
-1.11774e-12
1.2239e-12
-1.1242e-12
1.37568e-12
-1.29977e-12
1.17228e-12
-1.05076e-12
7.19141e-13
-9.55423e-13
-1.38541e-12
1.18759e-12
-4.84661e-12
2.78561e-12
-1.78108e-11
1.76761e-11
-4.0679e-11
3.29399e-11
-1.82066e-10
2.39194e-10
-5.73772e-10
6.80607e-10
-1.60222e-08
3.26097e-08
-4.22404e-08
6.40931e-08
-9.7668e-08
1.18949e-08
-1.09562e-07
1.27627e-08
6.32253e-08
8.2841e-10
4.4544e-08
2.82811e-10
1.2262e-09
7.59488e-11
4.46081e-10
3.7703e-11
7.11742e-11
1.57028e-11
3.96705e-11
8.51929e-12
9.99355e-12
3.90845e-12
5.78501e-12
2.14089e-12
7.878e-13
9.61176e-13
1.51726e-13
5.38749e-13
-8.9637e-13
2.59266e-13
-8.43162e-13
2.13675e-13
-1.03068e-12
1.91938e-13
-8.79831e-13
2.42106e-13
-8.34298e-13
2.82354e-13
-6.81726e-13
3.37813e-13
-5.87023e-13
3.74535e-13
-4.5159e-13
4.06009e-13
-3.52787e-13
4.18339e-13
-2.46452e-13
4.18922e-13
-1.6924e-13
4.02344e-13
-8.7666e-14
3.73467e-13
-1.06651e-14
3.31016e-13
5.16705e-14
2.78475e-13
1.03955e-13
2.1672e-13
1.48589e-13
1.48605e-13
1.76109e-13
7.58857e-14
1.91184e-13
-1.61996e-15
2.18544e-13
-7.45544e-14
2.13714e-13
-1.48341e-13
1.662e-13
-2.16696e-13
1.94136e-13
-2.78501e-13
1.58467e-13
-3.31293e-13
7.56582e-14
-3.73501e-13
6.95659e-14
-4.02186e-13
1.09635e-15
-4.18847e-13
-1.09638e-13
-4.18052e-13
-1.49873e-13
-4.05502e-13
-2.36876e-13
-3.74114e-13
-3.90851e-13
-3.37145e-13
-4.3951e-13
-2.8153e-13
-5.6925e-13
-2.41603e-13
-7.11421e-13
-1.91247e-13
-8.25909e-13
-2.12714e-13
-8.61818e-13
-2.58523e-13
-1.05747e-12
-5.37979e-13
-8.4251e-13
-9.60397e-13
-8.79068e-13
-2.14045e-12
1.27121e-13
-3.90793e-12
7.95249e-13
-8.51852e-12
5.79681e-12
-1.57021e-11
9.96916e-12
-3.77018e-11
3.96794e-11
-7.59472e-11
7.11825e-11
-2.82809e-10
4.46054e-10
-8.28407e-10
1.22621e-09
-1.27627e-08
4.4544e-08
-1.18949e-08
6.32253e-08
-1.09563e-07
1.05719e-08
-1.20134e-07
9.21912e-09
6.45781e-08
1.08318e-09
5.268e-08
3.87204e-10
1.92216e-09
1.14696e-10
7.18592e-10
5.95174e-11
1.26355e-10
2.7731e-11
7.14547e-11
1.64318e-11
2.12954e-11
9.06498e-12
1.31614e-11
5.82503e-12
4.03534e-12
3.5785e-12
2.40143e-12
2.50581e-12
1.81728e-13
1.73011e-12
-8.30534e-14
1.35554e-12
-6.7381e-13
1.07392e-12
-5.88911e-13
9.40884e-13
-7.0509e-13
8.33388e-13
-5.76489e-13
7.79684e-13
-5.34413e-13
7.27003e-13
-3.98319e-13
6.90198e-13
-3.28775e-13
6.4589e-13
-2.02643e-13
6.01795e-13
-1.22281e-13
5.47957e-13
-1.67765e-14
4.88636e-13
5.58061e-14
4.20259e-13
1.24064e-13
3.4598e-13
1.70561e-13
2.64947e-13
2.27681e-13
1.796e-13
2.59024e-13
9.09306e-14
2.76288e-13
-1.09091e-15
3.04885e-13
-9.05861e-14
3.02527e-13
-1.79118e-13
2.51046e-13
-2.65059e-13
2.70407e-13
-3.46588e-13
2.45977e-13
-4.20188e-13
1.51322e-13
-4.88794e-13
1.34075e-13
-5.48358e-13
6.47642e-14
-6.01334e-13
-5.93397e-14
-6.45686e-13
-1.07052e-13
-6.90212e-13
-1.8725e-13
-7.26143e-13
-3.44006e-13
-7.79027e-13
-3.87074e-13
-8.33021e-13
-5.22903e-13
-9.39865e-13
-6.02955e-13
-1.07314e-12
-6.90873e-13
-1.35497e-12
-5.92628e-13
-1.72883e-12
-6.96334e-13
-2.50491e-12
-6.84279e-14
-3.57806e-12
1.93373e-13
-5.82401e-12
2.37992e-12
-9.06433e-12
4.05036e-12
-1.64313e-11
1.31684e-11
-2.77298e-11
2.12635e-11
-5.95161e-11
7.14725e-11
-1.14694e-10
1.26367e-10
-3.87202e-10
7.18564e-10
-1.08318e-09
1.92218e-09
-9.21911e-09
5.268e-08
-1.05719e-08
6.45781e-08
-1.20135e-07
1.44673e-08
-1.34602e-07
8.43995e-09
7.06054e-08
1.342e-09
5.97779e-08
4.95419e-10
2.76875e-09
1.56911e-10
1.05709e-09
8.32794e-11
1.99979e-10
4.09675e-11
1.13763e-10
2.51424e-11
3.71138e-11
1.47733e-11
2.35222e-11
9.90641e-12
8.90724e-12
6.48889e-12
5.81216e-12
4.69419e-12
1.97738e-12
3.37028e-12
1.24214e-12
2.6289e-12
8.56106e-14
2.05847e-12
-2.34411e-14
1.72028e-12
-3.62622e-13
1.44802e-12
-3.03518e-13
1.27171e-12
-3.5652e-13
1.11892e-12
-2.44523e-13
1.00553e-12
-2.10214e-13
8.97761e-13
-9.92568e-14
8.03551e-13
-2.48831e-14
7.08208e-13
6.45115e-14
6.14933e-13
1.36407e-13
5.17766e-13
2.20782e-13
4.19611e-13
2.67865e-13
3.17379e-13
3.32593e-13
2.13229e-13
3.59218e-13
1.075e-13
3.837e-13
-8.32693e-16
4.14461e-13
-1.08278e-13
4.05578e-13
-2.11978e-13
3.62947e-13
-3.1764e-13
3.86061e-13
-4.21328e-13
3.44549e-13
-5.1688e-13
2.40491e-13
-6.15209e-13
2.29697e-13
-7.09676e-13
1.58173e-13
-8.02194e-13
4.38432e-14
-8.97638e-13
-9.03097e-15
-1.00656e-12
-8.74533e-14
-1.11715e-12
-2.37453e-13
-1.27106e-12
-2.31954e-13
-1.44859e-12
-3.41463e-13
-1.71825e-12
-3.24576e-13
-2.05765e-12
-3.5571e-13
-2.62919e-12
-2.668e-15
-3.36793e-12
4.93496e-14
-4.69317e-12
1.26403e-12
-6.48926e-12
1.99006e-12
-9.90429e-12
5.7865e-12
-1.47725e-11
8.91935e-12
-2.51428e-11
2.35376e-11
-4.09651e-11
3.70877e-11
-8.3278e-11
1.13766e-10
-1.56911e-10
1.99994e-10
-4.95416e-10
1.05706e-09
-1.342e-09
2.76876e-09
-8.43995e-09
5.97779e-08
-1.44673e-08
7.06054e-08
-1.34602e-07
1.4786e-08
-1.49388e-07
8.53845e-09
7.6853e-08
1.60084e-09
6.67155e-08
6.07437e-10
3.76216e-09
2.02512e-10
1.46202e-09
1.08946e-10
2.93548e-10
5.53849e-11
1.6733e-10
3.4625e-11
5.78827e-11
2.1011e-11
3.71336e-11
1.43658e-11
1.55396e-11
9.67611e-12
1.05083e-11
7.09053e-12
4.5574e-12
5.16916e-12
3.16886e-12
4.02494e-12
1.22112e-12
3.13894e-12
8.5109e-13
2.5753e-12
1.94451e-13
2.1223e-12
1.56169e-13
1.81119e-12
-4.44228e-14
1.54866e-12
8.78204e-15
1.35075e-12
-6.32784e-15
1.17344e-12
8.56667e-14
1.02419e-12
1.30826e-13
8.83104e-13
2.11702e-13
7.52699e-13
2.77602e-13
6.24116e-13
3.49784e-13
4.99648e-13
4.00092e-13
3.74394e-13
4.48043e-13
2.49896e-13
4.97949e-13
1.25359e-13
5.16884e-13
-8.9379e-16
5.37113e-13
-1.26396e-13
5.44932e-13
-2.48757e-13
4.83403e-13
-3.74822e-13
5.10883e-13
-5.01562e-13
4.71487e-13
-6.23329e-13
3.65709e-13
-7.53094e-13
3.70051e-13
-8.84747e-13
2.90508e-13
-1.02288e-12
1.69163e-13
-1.1734e-12
1.41642e-13
-1.35189e-12
9.92266e-14
-1.54689e-12
-5.20918e-14
-1.81058e-12
2.5899e-14
-2.12292e-12
-2.43438e-14
-2.57318e-12
1.17725e-13
-3.13801e-12
2.08337e-13
-4.02521e-12
8.73452e-13
-5.16664e-12
1.18549e-12
-7.0894e-12
3.17765e-12
-9.67637e-12
4.57918e-12
-1.43635e-11
1.04747e-11
-2.10101e-11
1.55542e-11
-3.46254e-11
3.71547e-11
-5.53823e-11
5.7845e-11
-1.08944e-10
1.67345e-10
-2.02512e-10
2.93568e-10
-6.07434e-10
1.46199e-09
-1.60084e-09
3.76217e-09
-8.53845e-09
6.67155e-08
-1.4786e-08
7.6853e-08
-1.49388e-07
1.36291e-08
-1.63017e-07
8.47338e-09
8.20087e-08
1.85627e-09
7.33326e-08
7.22961e-10
4.89547e-09
2.51503e-10
1.93348e-09
1.36545e-10
4.08515e-10
7.10114e-11
2.32855e-10
4.48965e-11
8.40011e-11
2.77893e-11
5.4251e-11
1.92097e-11
2.41269e-11
1.31444e-11
1.65689e-11
9.6975e-12
8.0135e-12
7.12847e-12
5.73864e-12
5.54497e-12
2.80745e-12
4.31628e-12
2.09438e-12
3.50674e-12
1.00712e-12
2.85706e-12
7.91141e-13
2.39884e-12
4.02616e-13
2.01688e-12
3.99448e-13
1.72662e-12
2.76785e-13
1.47357e-12
3.3657e-13
1.2643e-12
3.27854e-13
1.07333e-12
3.91895e-13
9.02455e-13
4.43688e-13
7.3974e-13
5.08007e-13
5.86522e-13
5.56112e-13
4.36323e-13
6.03452e-13
2.89721e-13
6.3445e-13
1.44684e-13
6.55143e-13
-9.60463e-16
6.87698e-13
-1.45806e-13
6.74567e-13
-2.88986e-13
6.21174e-13
-4.36917e-13
6.51114e-13
-5.88412e-13
6.19268e-13
-7.39296e-13
5.16784e-13
-9.02996e-13
5.29197e-13
-1.07489e-12
4.6224e-13
-1.26329e-12
3.66597e-13
-1.47362e-12
3.46752e-13
-1.72765e-12
3.49423e-13
-2.01533e-12
2.38381e-13
-2.39823e-12
4.09228e-13
-2.85747e-12
4.17714e-13
-3.50476e-12
7.63404e-13
-4.31527e-12
1.02842e-12
-5.54497e-12
2.10621e-12
-7.12605e-12
2.77934e-12
-9.69621e-12
5.75134e-12
-1.31443e-11
8.02849e-12
-1.92074e-11
1.65359e-11
-2.77882e-11
2.41455e-11
-4.48965e-11
5.42535e-11
-7.10089e-11
8.39598e-11
-1.36544e-10
2.32874e-10
-2.51502e-10
4.08523e-10
-7.22957e-10
1.93344e-09
-1.85627e-09
4.89547e-09
-8.47337e-09
7.33326e-08
-1.3629e-08
8.20086e-08
-1.63017e-07
1.26155e-08
-1.75632e-07
8.2713e-09
8.63529e-08
2.10698e-09
7.9497e-08
8.41614e-10
6.16082e-09
3.03916e-10
2.47118e-09
1.66137e-10
5.46286e-10
8.79021e-11
3.11095e-10
5.59951e-11
1.15891e-10
3.51362e-11
7.50967e-11
2.44583e-11
3.48012e-11
1.69091e-11
2.41209e-11
1.25264e-11
1.23909e-11
9.25695e-12
9.00735e-12
7.19587e-12
4.86316e-12
5.59587e-12
3.68769e-12
4.51876e-12
2.08015e-12
3.65575e-12
1.66123e-12
3.03746e-12
1.03853e-12
2.52575e-12
9.12612e-13
2.13504e-12
6.702e-13
1.79966e-12
6.67562e-13
1.52509e-12
6.05287e-13
1.27993e-12
6.42198e-13
1.06503e-12
6.62504e-13
8.65231e-13
7.16525e-13
6.80785e-13
7.21722e-13
5.03493e-13
7.84057e-13
3.32911e-13
8.02095e-13
1.6566e-13
8.16618e-13
-1.04466e-15
8.47523e-13
-1.66917e-13
8.50463e-13
-3.32529e-13
7.93125e-13
-5.04264e-13
8.29793e-13
-6.82711e-13
8.06326e-13
-8.65083e-13
7.02711e-13
-1.06572e-12
7.24056e-13
-1.28147e-12
6.72881e-13
-1.52434e-12
6.01093e-13
-1.79982e-12
6.17679e-13
-2.13599e-12
6.89286e-13
-2.52441e-12
6.32229e-13
-3.03689e-12
9.27213e-13
-3.656e-12
1.053e-12
-4.51688e-12
1.6316e-12
-5.59479e-12
2.09243e-12
-7.1956e-12
3.7036e-12
-9.25458e-12
4.82006e-12
-1.2525e-11
9.01731e-12
-1.69087e-11
1.24123e-11
-2.4456e-11
2.40947e-11
-3.5135e-11
3.48176e-11
-5.59948e-11
7.51265e-11
-8.78996e-11
1.15865e-10
-1.66135e-10
3.11111e-10
-3.03915e-10
5.463e-10
-8.4161e-10
2.47114e-09
-2.10698e-09
6.16085e-09
-8.2713e-09
7.94969e-08
-1.26155e-08
8.63529e-08
-1.75633e-07
1.17892e-08
-1.87421e-07
8.04795e-09
9.00941e-08
2.352e-09
8.51929e-08
9.63024e-10
7.54982e-09
3.59778e-10
3.07441e-09
1.97784e-10
7.08283e-10
1.06119e-10
4.02766e-10
6.79658e-11
1.54051e-10
4.30857e-11
9.99892e-11
3.01364e-11
4.77505e-11
2.09889e-11
3.32672e-11
1.55916e-11
1.77821e-11
1.15657e-11
1.30283e-11
8.9863e-12
7.44981e-12
6.9846e-12
5.68111e-12
5.61691e-12
3.45167e-12
4.52282e-12
2.75371e-12
3.73055e-12
1.82574e-12
3.07817e-12
1.55438e-12
2.57829e-12
1.16483e-12
2.15359e-12
1.1024e-12
1.80805e-12
9.54909e-13
1.50408e-12
9.52297e-13
1.24136e-12
9.28903e-13
1.00128e-12
9.44576e-13
7.8303e-13
9.55929e-13
5.7629e-13
9.90144e-13
3.79699e-13
1.01267e-12
1.88422e-13
1.01732e-12
-1.09194e-15
1.03776e-12
-1.89864e-13
1.04141e-12
-3.79664e-13
9.76817e-13
-5.7727e-13
1.02672e-12
-7.85015e-13
1.00314e-12
-1.00144e-12
9.17868e-13
-1.2422e-12
9.62892e-13
-1.50565e-12
9.42629e-13
-1.80751e-12
9.12523e-13
-2.15385e-12
9.78344e-13
-2.57922e-12
1.10741e-12
-3.077e-12
1.13324e-12
-3.72999e-12
1.57127e-12
-4.52295e-12
1.83632e-12
-5.61509e-12
2.71264e-12
-6.98345e-12
3.47158e-12
-8.98584e-12
5.70283e-12
-1.15634e-11
7.41257e-12
-1.559e-11
1.30477e-11
-2.09881e-11
1.78107e-11
-3.0134e-11
3.32333e-11
-4.30842e-11
4.7768e-11
-6.79652e-11
9.99979e-11
-1.06117e-10
1.5401e-10
-1.97782e-10
4.02769e-10
-3.59777e-10
7.08298e-10
-9.6302e-10
3.07438e-09
-2.352e-09
7.54983e-09
-8.04794e-09
8.51929e-08
-1.17892e-08
9.00941e-08
-1.87422e-07
1.0985e-08
-1.98406e-07
7.82351e-09
9.32556e-08
2.59016e-09
9.04263e-08
1.0868e-09
9.05317e-09
4.19094e-10
3.74213e-09
2.31548e-10
8.95822e-10
1.25725e-10
5.08573e-10
8.08548e-11
1.98931e-10
5.16728e-11
1.2916e-10
3.627e-11
6.31536e-11
2.54037e-11
4.41275e-11
1.89083e-11
2.429e-11
1.40667e-11
1.78731e-11
1.09255e-11
1.05989e-11
8.48985e-12
8.12843e-12
6.80699e-12
5.12793e-12
5.46292e-12
4.10048e-12
4.48187e-12
2.79797e-12
3.67718e-12
2.3669e-12
3.05883e-12
1.78523e-12
2.53732e-12
1.61106e-12
2.11474e-12
1.3821e-12
1.74705e-12
1.30928e-12
1.43242e-12
1.23635e-12
1.14873e-12
1.24168e-12
8.93761e-13
1.21286e-12
6.55176e-13
1.22624e-12
4.30368e-13
1.21734e-12
2.13051e-13
1.23395e-12
-1.15836e-15
1.26174e-12
-2.14722e-13
1.24766e-12
-4.30669e-13
1.19534e-12
-6.56363e-13
1.25075e-12
-8.95833e-13
1.24976e-12
-1.14919e-12
1.16593e-12
-1.43343e-12
1.25819e-12
-1.74865e-12
1.25231e-12
-2.11443e-12
1.2678e-12
-2.53771e-12
1.39495e-12
-3.0597e-12
1.63364e-12
-3.67618e-12
1.73904e-12
-4.48137e-12
2.38222e-12
-5.46293e-12
2.82567e-12
-6.8052e-12
4.06629e-12
-8.4886e-12
5.1409e-12
-1.09248e-11
8.14405e-12
-1.40643e-11
1.05448e-11
-1.89065e-11
1.78952e-11
-2.54027e-11
2.43053e-11
-3.62675e-11
4.40928e-11
-5.16712e-11
6.31733e-11
-8.08539e-11
1.29179e-10
-1.25723e-10
1.98883e-10
-2.31545e-10
5.08602e-10
-4.19093e-10
8.9584e-10
-1.08679e-09
3.74209e-09
-2.59015e-09
9.05319e-09
-7.82351e-09
9.04263e-08
-1.0985e-08
9.32556e-08
-1.98407e-07
1.01592e-08
-2.08566e-07
7.5893e-09
9.58255e-08
2.8201e-09
9.51954e-08
1.2125e-09
1.06608e-08
4.81844e-10
4.47277e-09
2.67478e-10
1.1102e-09
1.46782e-10
6.2928e-10
9.47089e-11
2.50988e-10
6.0934e-11
1.62951e-10
4.28861e-11
8.1201e-11
3.01743e-11
5.68529e-11
2.24922e-11
3.19619e-11
1.67722e-11
2.36019e-11
1.30232e-11
1.43305e-11
1.01193e-11
1.10252e-11
8.09518e-12
7.16544e-12
6.48098e-12
5.71435e-12
5.29544e-12
3.98903e-12
4.32596e-12
3.33462e-12
3.5792e-12
2.5331e-12
2.95297e-12
2.25161e-12
2.44684e-12
1.87876e-12
2.01016e-12
1.75219e-12
1.63931e-12
1.6048e-12
1.30835e-12
1.56063e-12
1.01361e-12
1.49032e-12
7.40519e-13
1.4979e-12
4.85236e-13
1.49195e-12
2.39744e-13
1.48789e-12
-1.24968e-15
1.49698e-12
-2.41624e-13
1.49391e-12
-4.85884e-13
1.43631e-12
-7.41955e-13
1.5066e-12
-1.01581e-12
1.52439e-12
-1.30909e-12
1.46476e-12
-1.64049e-12
1.58766e-12
-2.01181e-12
1.61879e-12
-2.44676e-12
1.7129e-12
-2.95345e-12
1.89628e-12
-3.58007e-12
2.26869e-12
-4.32513e-12
2.4968e-12
-5.29495e-12
3.35225e-12
-6.48088e-12
4.00464e-12
-8.09347e-12
5.67633e-12
-1.0118e-11
7.18828e-12
-1.30223e-11
1.10562e-11
-1.67698e-11
1.42817e-11
-2.24903e-11
2.3621e-11
-3.0173e-11
3.19946e-11
-4.28835e-11
5.68121e-11
-6.09322e-11
8.12225e-11
-9.47077e-11
1.62957e-10
-1.46779e-10
2.50956e-10
-2.67476e-10
6.29298e-10
-4.81842e-10
1.11022e-09
-1.21249e-09
4.47273e-09
-2.8201e-09
1.06608e-08
-7.58929e-09
9.51954e-08
-1.01592e-08
9.58255e-08
-2.08566e-07
9.31772e-09
-2.17883e-07
7.34e-09
9.78033e-08
3.0405e-09
9.94949e-08
1.33962e-09
1.23617e-08
5.47979e-10
5.26443e-09
3.0562e-10
1.35256e-09
1.69349e-10
7.65547e-10
1.09575e-10
3.10775e-10
7.09066e-11
2.01609e-10
5.00129e-11
1.02095e-10
3.53224e-11
7.15232e-11
2.63602e-11
4.09292e-11
1.96954e-11
3.02515e-11
1.52897e-11
1.87476e-11
1.18812e-11
1.44384e-11
9.48797e-12
9.54451e-12
7.58228e-12
7.60948e-12
6.17542e-12
5.39706e-12
5.02795e-12
4.47962e-12
4.14221e-12
3.42322e-12
3.40266e-12
2.97331e-12
2.80615e-12
2.4756e-12
2.29481e-12
2.25694e-12
1.86311e-12
2.04731e-12
1.48101e-12
1.9433e-12
1.14327e-12
1.84596e-12
8.32872e-13
1.81012e-12
5.44556e-13
1.77382e-12
2.68584e-13
1.73501e-12
-1.32576e-15
1.75956e-12
-2.70723e-13
1.74559e-12
-5.45568e-13
1.71685e-12
-8.34521e-13
1.79665e-12
-1.14557e-12
1.83234e-12
-1.48207e-12
1.80341e-12
-1.86448e-12
1.97304e-12
-2.29651e-12
2.05603e-12
-2.80632e-12
2.21531e-12
-3.40327e-12
2.49896e-12
-4.14304e-12
2.99377e-12
-5.02729e-12
3.36874e-12
-6.17498e-12
4.49897e-12
-7.58206e-12
5.41939e-12
-9.48631e-12
7.57626e-12
-1.18798e-11
9.57566e-12
-1.52887e-11
1.44582e-11
-1.96929e-11
1.87023e-11
-2.63581e-11
3.02715e-11
-3.53208e-11
4.09392e-11
-5.00102e-11
7.14984e-11
-7.09046e-11
1.02115e-10
-1.09574e-10
2.01633e-10
-1.69347e-10
3.10735e-10
-3.05618e-10
7.65563e-10
-5.47977e-10
1.35257e-09
-1.33962e-09
5.26437e-09
-3.0405e-09
1.23617e-08
-7.33999e-09
9.94949e-08
-9.31772e-09
9.78032e-08
-2.17884e-07
8.46803e-09
-2.26351e-07
7.07435e-09
9.91969e-08
3.25001e-09
1.03319e-07
1.46764e-09
1.4144e-08
6.17423e-10
6.11464e-09
3.46007e-10
1.62396e-09
1.93485e-10
9.18081e-10
1.25501e-10
3.78748e-10
8.16286e-11
2.45489e-10
5.76792e-11
1.26046e-10
4.08707e-11
8.83547e-11
3.05296e-11
5.12651e-11
2.285e-11
3.79311e-11
1.77358e-11
2.38601e-11
1.37842e-11
1.8392e-11
1.09923e-11
1.23397e-11
8.77236e-12
9.84544e-12
7.1263e-12
7.03988e-12
5.78676e-12
5.82819e-12
4.75067e-12
4.45651e-12
3.88884e-12
3.84161e-12
3.19455e-12
3.17589e-12
2.60256e-12
2.85566e-12
2.10498e-12
2.53826e-12
1.66768e-12
2.38785e-12
1.28337e-12
2.21793e-12
9.32663e-13
2.16416e-12
6.08625e-13
2.09573e-12
2.99799e-13
2.05556e-12
-1.44147e-15
2.06958e-12
-3.02149e-13
2.05636e-12
-6.10063e-13
2.01301e-12
-9.34562e-13
2.12345e-12
-1.28582e-12
2.1997e-12
-1.66904e-12
2.19244e-12
-2.10658e-12
2.3992e-12
-2.60431e-12
2.55584e-12
-3.19494e-12
2.80679e-12
-3.88957e-12
3.19025e-12
-4.75152e-12
3.86311e-12
-5.78624e-12
4.40176e-12
-7.12589e-12
5.84571e-12
-8.77202e-12
7.05641e-12
-1.09906e-11
9.79749e-12
-1.37826e-11
1.23433e-11
-1.77345e-11
1.84158e-11
-2.28475e-11
2.38126e-11
-3.05273e-11
3.79562e-11
-4.08686e-11
5.12968e-11
-5.76763e-11
8.83029e-11
-8.16264e-11
1.26066e-10
-1.255e-10
2.455e-10
-1.93482e-10
3.78713e-10
-3.46004e-10
9.18098e-10
-6.1742e-10
1.62398e-09
-1.46764e-09
6.11461e-09
-3.25001e-09
1.41441e-08
-7.07435e-09
1.03319e-07
-8.46802e-09
9.91969e-08
-2.26352e-07
7.61432e-09
-2.33966e-07
6.79244e-09
1.00019e-07
3.4473e-09
1.06664e-07
1.59595e-09
1.59954e-08
6.90062e-10
7.02052e-09
3.88659e-10
1.92537e-09
2.19243e-10
1.08748e-09
1.42534e-10
4.55457e-10
9.31388e-11
2.94867e-10
6.59148e-11
1.53269e-10
4.68423e-11
1.07415e-10
3.50185e-11
6.30983e-11
2.62503e-11
4.67083e-11
2.03728e-11
2.97478e-11
1.58372e-11
2.29197e-11
1.26153e-11
1.55585e-11
1.0057e-11
1.24056e-11
8.1528e-12
8.95273e-12
6.60614e-12
7.35774e-12
5.40775e-12
5.65623e-12
4.41396e-12
4.85103e-12
3.614e-12
3.96904e-12
2.93496e-12
3.53276e-12
2.36626e-12
3.11221e-12
1.86927e-12
2.88284e-12
1.43473e-12
2.65958e-12
1.04044e-12
2.56385e-12
6.77838e-13
2.45966e-12
3.33516e-13
2.40724e-12
-1.55136e-15
2.39681e-12
-3.36115e-13
2.39574e-12
-6.79676e-13
2.36819e-12
-1.0426e-12
2.48127e-12
-1.43733e-12
2.56489e-12
-1.87101e-12
2.61901e-12
-2.36804e-12
2.90308e-12
-2.93679e-12
3.12918e-12
-3.61466e-12
3.4878e-12
-4.4148e-12
3.98625e-12
-5.40862e-12
4.85447e-12
-6.60577e-12
5.60504e-12
-8.15244e-12
7.38178e-12
-1.00566e-11
8.96866e-12
-1.26138e-11
1.23576e-11
-1.58355e-11
1.55928e-11
-2.03713e-11
2.29388e-11
-2.62478e-11
2.96844e-11
-3.50159e-11
4.6729e-11
-4.68399e-11
6.31301e-11
-6.59118e-11
1.07383e-10
-9.31363e-11
1.53296e-10
-1.42531e-10
2.94888e-10
-2.1924e-10
4.55417e-10
-3.88656e-10
1.08751e-09
-6.90059e-10
1.92539e-09
-1.59595e-09
7.02047e-09
-3.44729e-09
1.59954e-08
-6.79243e-09
1.06664e-07
-7.61432e-09
1.00019e-07
-2.33966e-07
6.75959e-09
-2.40725e-07
6.49463e-09
1.00284e-07
3.63104e-09
1.09528e-07
1.72393e-09
1.79025e-08
7.65749e-10
7.97871e-09
4.33585e-10
2.25754e-09
2.46673e-10
1.27439e-09
1.60718e-10
5.41421e-10
1.05476e-10
3.50127e-10
7.47502e-11
1.8399e-10
5.32616e-11
1.28907e-10
3.98458e-11
7.65038e-11
2.99114e-11
5.66447e-11
2.32125e-11
3.64356e-11
1.80498e-11
2.80902e-11
1.43647e-11
1.92518e-11
1.14424e-11
1.53074e-11
9.25984e-12
1.11245e-11
7.49022e-12
9.14368e-12
6.11671e-12
7.03149e-12
4.98061e-12
5.97683e-12
4.06668e-12
4.8832e-12
3.29375e-12
4.3032e-12
2.64823e-12
3.75001e-12
2.08688e-12
3.44873e-12
1.59808e-12
3.1475e-12
1.15675e-12
2.99735e-12
7.5257e-13
2.85463e-12
3.6989e-13
2.78864e-12
-1.65467e-15
2.77792e-12
-3.7279e-13
2.77284e-12
-7.54828e-13
2.74477e-12
-1.15924e-12
2.88447e-12
-1.6008e-12
3.01921e-12
-2.08897e-12
3.10507e-12
-2.65023e-12
3.46533e-12
-3.29565e-12
3.76707e-12
-4.06759e-12
4.2524e-12
-4.9816e-12
4.89887e-12
-6.11757e-12
5.99112e-12
-7.49e-12
6.98856e-12
-9.25952e-12
9.14587e-12
-1.14419e-11
1.11581e-11
-1.43632e-11
1.52717e-11
-1.80481e-11
1.92656e-11
-2.32108e-11
2.81058e-11
-2.99087e-11
3.63935e-11
-3.9843e-11
5.66653e-11
-5.32588e-11
7.65206e-11
-7.4747e-11
1.28872e-10
-1.05474e-10
1.84009e-10
-1.60715e-10
3.50151e-10
-2.46669e-10
5.41372e-10
-4.33582e-10
1.27441e-09
-7.65746e-10
2.25755e-09
-1.72392e-09
7.97866e-09
-3.63104e-09
1.79025e-08
-6.49462e-09
1.09528e-07
-6.75959e-09
1.00284e-07
-2.40726e-07
5.90669e-09
-2.46632e-07
6.18143e-09
1.00009e-07
3.79996e-09
1.11909e-07
1.85087e-09
1.98516e-08
8.44299e-10
8.98529e-09
4.80778e-10
2.62105e-09
2.75819e-10
1.47936e-09
1.80099e-10
6.37138e-10
1.1868e-10
4.11545e-10
8.42166e-11
2.18454e-10
6.01534e-11
1.52971e-10
4.50311e-11
9.16371e-11
3.38488e-11
6.78179e-11
2.62675e-11
4.40221e-11
2.0432e-11
3.39241e-11
1.62485e-11
2.34384e-11
1.29352e-11
1.86389e-11
1.04528e-11
1.36191e-11
8.44318e-12
1.11481e-11
6.88097e-12
8.58648e-12
5.59165e-12
7.25822e-12
4.5548e-12
5.93581e-12
3.68068e-12
5.17872e-12
2.95238e-12
4.49108e-12
2.3216e-12
4.07773e-12
1.77426e-12
3.69639e-12
1.28223e-12
3.48075e-12
8.33184e-13
3.3237e-12
4.09155e-13
3.2086e-12
-1.76728e-15
3.18317e-12
-4.12368e-13
3.1747e-12
-8.35867e-13
3.17315e-12
-1.28504e-12
3.33185e-12
-1.77718e-12
3.51417e-12
-2.32403e-12
3.64611e-12
-2.95457e-12
4.10712e-12
-3.68271e-12
4.49667e-12
-4.55597e-12
5.13403e-12
-5.59279e-12
5.94842e-12
-6.88179e-12
7.26765e-12
-8.44319e-12
8.53074e-12
-1.04524e-11
1.11763e-11
-1.29346e-11
1.36147e-11
-1.6247e-11
1.85819e-11
-2.04303e-11
2.3458e-11
-2.62655e-11
3.39343e-11
-3.38461e-11
4.39589e-11
-4.50282e-11
6.78314e-11
-6.01503e-11
9.16654e-11
-8.42132e-11
1.5292e-10
-1.18677e-10
2.18472e-10
-1.80096e-10
4.11534e-10
-2.75816e-10
6.37099e-10
-4.80774e-10
1.47938e-09
-8.44296e-10
2.62108e-09
-1.85087e-09
8.98523e-09
-3.79996e-09
1.98516e-08
-6.18142e-09
1.11909e-07
-5.90668e-09
1.00009e-07
-2.46632e-07
5.05852e-09
-2.5169e-07
5.85345e-09
9.92141e-08
3.95279e-09
1.1381e-07
1.97607e-09
2.18283e-08
9.25486e-10
1.00358e-08
5.30211e-10
3.01634e-09
3.0672e-10
1.70286e-09
2.00719e-10
7.43149e-10
1.3279e-10
4.79463e-10
9.43456e-11
2.56908e-10
6.75435e-11
1.79776e-10
5.05948e-11
1.08574e-10
3.8079e-11
8.03354e-11
2.95506e-11
5.25454e-11
2.29944e-11
4.04815e-11
1.82751e-11
2.81601e-11
1.4542e-11
2.23594e-11
1.1737e-11
1.64155e-11
9.46957e-12
1.3424e-11
7.70417e-12
1.03586e-11
6.2501e-12
8.72133e-12
5.08073e-12
7.0993e-12
4.09774e-12
6.18124e-12
3.28014e-12
5.29663e-12
2.57463e-12
4.77817e-12
1.96416e-12
4.29907e-12
1.41756e-12
4.03489e-12
9.20035e-13
3.79772e-12
4.51499e-13
3.68633e-12
-1.89679e-15
3.63137e-12
-4.55018e-13
3.62663e-12
-9.23229e-13
3.63369e-12
-1.42062e-12
3.85237e-12
-1.96732e-12
4.05875e-12
-2.57737e-12
4.27346e-12
-3.28264e-12
4.79379e-12
-4.09985e-12
5.31559e-12
-5.08218e-12
6.10934e-12
-6.25137e-12
7.09864e-12
-7.70503e-12
8.74964e-12
-9.46969e-12
1.03061e-11
-1.17368e-11
1.34234e-11
-1.45413e-11
1.64403e-11
-1.82737e-11
2.23191e-11
-2.29925e-11
2.81758e-11
-2.95484e-11
4.0514e-11
-3.80761e-11
5.25016e-11
-5.05915e-11
8.03536e-11
-6.754e-11
1.08595e-10
-9.4342e-11
1.79743e-10
-1.32786e-10
2.5693e-10
-2.00715e-10
4.79493e-10
-3.06717e-10
7.43079e-10
-5.30207e-10
1.70287e-09
-9.25482e-10
3.01635e-09
-1.97606e-09
1.00358e-08
-3.95279e-09
2.18283e-08
-5.85344e-09
1.1381e-07
-5.05851e-09
9.9214e-08
-2.51691e-07
4.21808e-09
-2.55909e-07
5.51141e-09
9.79208e-08
4.08833e-09
1.15233e-07
2.09874e-09
2.38179e-08
1.00904e-09
1.11256e-08
5.81842e-10
3.44351e-09
3.39406e-10
1.94529e-09
2.22618e-10
8.5993e-10
1.47844e-10
5.54243e-10
1.05169e-10
2.99578e-10
7.5458e-11
2.09475e-10
5.65577e-11
1.27489e-10
4.26186e-11
9.42846e-11
3.30754e-11
6.20967e-11
2.57478e-11
4.78016e-11
2.04534e-11
3.34337e-11
1.62702e-11
2.65457e-11
1.31185e-11
1.95605e-11
1.05741e-11
1.59526e-11
8.59019e-12
1.23378e-11
6.95896e-12
1.03453e-11
5.64709e-12
8.39091e-12
4.54685e-12
7.24623e-12
3.6332e-12
6.21442e-12
2.84718e-12
5.57424e-12
2.16878e-12
4.97994e-12
1.5633e-12
4.63467e-12
1.01372e-12
4.36339e-12
4.971e-13
4.1919e-12
-2.04077e-15
4.13974e-12
-5.00978e-13
4.12555e-12
-1.01727e-12
4.16134e-12
-1.56678e-12
4.36885e-12
-2.17212e-12
4.6711e-12
-2.85033e-12
4.92174e-12
-3.63591e-12
5.57304e-12
-4.54914e-12
6.22155e-12
-5.64883e-12
7.21152e-12
-6.96029e-12
8.43006e-12
-8.59111e-12
1.03485e-11
-1.05744e-11
1.22738e-11
-1.31183e-11
1.59731e-11
-1.62694e-11
1.95924e-11
-2.0452e-11
2.65054e-11
-2.57458e-11
3.34546e-11
-3.3073e-11
4.78201e-11
-4.26157e-11
6.20301e-11
-5.65542e-11
9.43104e-11
-7.54541e-11
1.27502e-10
-1.05165e-10
2.09441e-10
-1.4784e-10
2.99596e-10
-2.22614e-10
5.54262e-10
-3.39402e-10
8.59898e-10
-5.81838e-10
1.94531e-09
-1.00904e-09
3.44355e-09
-2.09873e-09
1.11255e-08
-4.08833e-09
2.38179e-08
-5.5114e-09
1.15233e-07
-4.21807e-09
9.79207e-08
-2.55909e-07
3.38835e-09
-2.59297e-07
5.15613e-09
9.6153e-08
4.20544e-09
1.16184e-07
2.21808e-09
2.58053e-08
1.09465e-09
1.2249e-08
6.35604e-10
3.90258e-09
3.73898e-10
2.20699e-09
2.45832e-10
9.87994e-10
1.6388e-10
6.36209e-10
1.16719e-10
3.46732e-10
8.39237e-11
2.42284e-10
6.29413e-11
1.48455e-10
4.74853e-11
1.0974e-10
3.68561e-11
7.27106e-11
2.87036e-11
5.59539e-11
2.27927e-11
3.93703e-11
1.81271e-11
3.12238e-11
1.46033e-11
2.31031e-11
1.17618e-11
1.87853e-11
9.54312e-12
1.45599e-11
7.72157e-12
1.21811e-11
6.25646e-12
9.87982e-12
5.0303e-12
8.50303e-12
4.01324e-12
7.22904e-12
3.1406e-12
6.43712e-12
2.38907e-12
5.73385e-12
1.72027e-12
5.31642e-12
1.11449e-12
4.95897e-12
5.46282e-13
4.75999e-12
-2.21037e-15
4.6744e-12
-5.50454e-13
4.6739e-12
-1.11861e-12
4.71954e-12
-1.72403e-12
4.98881e-12
-2.39273e-12
5.32954e-12
-3.14417e-12
5.70121e-12
-4.01617e-12
6.46698e-12
-5.03269e-12
7.24469e-12
-6.25842e-12
8.44686e-12
-7.72313e-12
9.88385e-12
-9.54407e-12
1.21895e-11
-1.17623e-11
1.45109e-11
-1.46031e-11
1.88187e-11
-1.81263e-11
2.31082e-11
-2.27913e-11
3.11632e-11
-2.87015e-11
3.93768e-11
-3.68534e-11
5.59814e-11
-4.74822e-11
7.2676e-11
-6.29376e-11
1.09754e-10
-8.39194e-11
1.48495e-10
-1.16715e-10
2.42229e-10
-1.63876e-10
3.46756e-10
-2.45828e-10
6.36216e-10
-3.73894e-10
9.87927e-10
-6.356e-10
2.20701e-09
-1.09465e-09
3.9026e-09
-2.21808e-09
1.22489e-08
-4.20544e-09
2.58053e-08
-5.15612e-09
1.16184e-07
-3.38834e-09
9.61529e-08
-2.59297e-07
2.57234e-09
-2.61869e-07
4.78856e-09
9.39368e-08