/*--------------------------------*- C++ -*----------------------------------*\
| =========                 |                                                 |
| \\      /  F ield         | foam-extend: Open Source CFD                    |
|  \\    /   O peration     | Version:     4.0                                |
|   \\  /    A nd           | Web:         http://www.foam-extend.org         |
|    \\/     M anipulation  |                                                 |
\*---------------------------------------------------------------------------*/
FoamFile
{
    version     2.0;
    format      ascii;
    class       volVectorField;
    location    "4";
    object      U;
}
// * * * * * * * * * * * * * * * * * * * * * * * * * * * * * * * * * * * * * //

dimensions      [0 1 -1 0 0 0 0];

internalField   nonuniform List<vector> 
6960
(
(-4.35805e-06 -440.814 0)
(-3.62069e-06 -440.8 0)
(1.23562e-06 -440.8 0)
(4.49531e-07 -440.8 0)
(-4.35756e-08 -440.8 0)
(-3.43185e-08 -440.8 0)
(-5.70534e-08 -440.8 0)
(-4.27801e-08 -440.8 0)
(-3.9895e-08 -440.8 0)
(-3.04249e-08 -440.8 0)
(-2.587e-08 -440.8 0)
(-1.98076e-08 -440.8 0)
(-1.61606e-08 -440.8 0)
(-1.22334e-08 -440.8 0)
(-9.59861e-09 -440.8 0)
(-7.03256e-09 -440.8 0)
(-5.20907e-09 -440.8 0)
(-3.54948e-09 -440.8 0)
(-2.34717e-09 -440.8 0)
(-1.32001e-09 -440.8 0)
(-5.91103e-10 -440.8 0)
(-1.63273e-11 -440.8 0)
(3.54028e-10 -440.8 0)
(5.98918e-10 -440.8 0)
(7.04755e-10 -440.8 0)
(7.17213e-10 -440.8 0)
(6.40286e-10 -440.8 0)
(5.04837e-10 -440.8 0)
(3.19996e-10 -440.8 0)
(1.10394e-10 -440.8 0)
(-1.08774e-10 -440.8 0)
(-3.18522e-10 -440.8 0)
(-5.04315e-10 -440.8 0)
(-6.38187e-10 -440.8 0)
(-7.17312e-10 -440.8 0)
(-7.04899e-10 -440.8 0)
(-5.97056e-10 -440.8 0)
(-3.5287e-10 -440.8 0)
(1.76209e-11 -440.8 0)
(5.93812e-10 -440.8 0)
(1.32247e-09 -440.8 0)
(2.34924e-09 -440.8 0)
(3.5538e-09 -440.8 0)
(5.21164e-09 -440.8 0)
(7.0335e-09 -440.8 0)
(9.60226e-09 -440.8 0)
(1.22366e-08 -440.8 0)
(1.61621e-08 -440.8 0)
(1.98105e-08 -440.8 0)
(2.58712e-08 -440.8 0)
(3.04246e-08 -440.8 0)
(3.98974e-08 -440.8 0)
(4.27818e-08 -440.8 0)
(5.70554e-08 -440.8 0)
(3.43241e-08 -440.8 0)
(4.35807e-08 -440.8 0)
(-4.49525e-07 -440.8 0)
(-1.23561e-06 -440.8 0)
(3.62072e-06 -440.8 0)
(4.35807e-06 -440.814 0)
(0.000403563 48.4855 0)
(0.000406447 48.4983 0)
(4.54952e-06 48.4983 0)
(1.68917e-06 48.4983 0)
(1.44502e-07 48.4983 0)
(8.26079e-08 48.4983 0)
(-3.42665e-08 48.4983 0)
(-2.69741e-08 48.4983 0)
(-4.21151e-08 48.4983 0)
(-3.17748e-08 48.4983 0)
(-3.1293e-08 48.4983 0)
(-2.34413e-08 48.4983 0)
(-2.04489e-08 48.4983 0)
(-1.50112e-08 48.4983 0)
(-1.20998e-08 48.4983 0)
(-8.46634e-09 48.4983 0)
(-6.2063e-09 48.4983 0)
(-3.81373e-09 48.4983 0)
(-2.27721e-09 48.4983 0)
(-8.07084e-10 48.4983 0)
(1.42771e-10 48.4983 0)
(9.07426e-10 48.4983 0)
(1.35347e-09 48.4983 0)
(1.641e-09 48.4983 0)
(1.6696e-09 48.4983 0)
(1.59645e-09 48.4983 0)
(1.37589e-09 48.4983 0)
(1.04363e-09 48.4983 0)
(6.62186e-10 48.4983 0)
(2.56903e-10 48.4983 0)
(-2.9349e-10 48.4983 0)
(-6.49037e-10 48.4983 0)
(-9.6018e-10 48.4983 0)
(-1.45562e-09 48.4983 0)
(-1.59717e-09 48.4983 0)
(-1.58738e-09 48.4983 0)
(-1.7211e-09 48.4983 0)
(-1.35171e-09 48.4983 0)
(-8.22484e-10 48.4983 0)
(-2.21171e-10 48.4983 0)
(8.11439e-10 48.4983 0)
(2.36379e-09 48.4983 0)
(3.73853e-09 48.4983 0)
(6.21108e-09 48.4983 0)
(8.55146e-09 48.4983 0)
(1.20238e-08 48.4983 0)
(1.50174e-08 48.4983 0)
(2.05351e-08 48.4983 0)
(2.33642e-08 48.4983 0)
(3.12959e-08 48.4983 0)
(3.1858e-08 48.4983 0)
(4.20371e-08 48.4983 0)
(2.6978e-08 48.4983 0)
(3.43538e-08 48.4983 0)
(-8.268e-08 48.4983 0)
(-1.44491e-07 48.4983 0)
(-1.68907e-06 48.4983 0)
(-4.54959e-06 48.4983 0)
(-0.000406447 48.4983 0)
(-0.000403563 48.4855 0)
(0.000347217 69.9775 0)
(0.000352078 69.9715 0)
(7.74378e-06 69.9715 0)
(3.06646e-06 69.9715 0)
(4.73283e-07 69.9715 0)
(2.9171e-07 69.9715 0)
(5.62027e-08 69.9715 0)
(3.84063e-08 69.9715 0)
(-6.53561e-09 69.9715 0)
(-4.25741e-09 69.9715 0)
(-1.42927e-08 69.9715 0)
(-9.71993e-09 69.9715 0)
(-1.11955e-08 69.9715 0)
(-7.33574e-09 69.9715 0)
(-6.56337e-09 69.9715 0)
(-3.79034e-09 69.9715 0)
(-2.64691e-09 69.9715 0)
(-7.77478e-10 69.9715 0)
(1.32524e-10 69.9715 0)
(1.25809e-09 69.9715 0)
(1.82161e-09 69.9715 0)
(2.34483e-09 69.9715 0)
(2.53121e-09 69.9715 0)
(2.62916e-09 69.9715 0)
(2.46829e-09 69.9715 0)
(2.23693e-09 69.9715 0)
(1.85743e-09 69.9715 0)
(1.38774e-09 69.9715 0)
(8.62518e-10 69.9715 0)
(3.20376e-10 69.9715 0)
(-3.52368e-10 69.9715 0)
(-8.51606e-10 69.9715 0)
(-1.31664e-09 69.9715 0)
(-1.92594e-09 69.9715 0)
(-2.23853e-09 69.9715 0)
(-2.39847e-09 69.9715 0)
(-2.69802e-09 69.9715 0)
(-2.52975e-09 69.9715 0)
(-2.27175e-09 69.9715 0)
(-1.88835e-09 69.9715 0)
(-1.25343e-09 69.9715 0)
(-5.73363e-11 69.9715 0)
(7.14789e-10 69.9715 0)
(2.65242e-09 69.9715 0)
(3.86465e-09 69.9715 0)
(6.50042e-09 69.9715 0)
(7.34323e-09 69.9715 0)
(1.12713e-08 69.9715 0)
(9.65599e-09 69.9715 0)
(1.4297e-08 69.9715 0)
(4.32997e-09 69.9715 0)
(6.47067e-09 69.9715 0)
(-3.8401e-08 69.9715 0)
(-5.61256e-08 69.9715 0)
(-2.91768e-07 69.9715 0)
(-4.7327e-07 69.9715 0)
(-3.06637e-06 69.9715 0)
(-7.74383e-06 69.9715 0)
(-0.000352078 69.9715 0)
(-0.000347217 69.9775 0)
(0.000182662 13.5258 0)
(0.000189307 13.5197 0)
(1.06856e-05 13.5197 0)
(4.4172e-06 13.5197 0)
(8.4946e-07 13.5197 0)
(5.28451e-07 13.5197 0)
(1.67233e-07 13.5197 0)
(1.18116e-07 13.5197 0)
(3.99503e-08 13.5197 0)
(3.1362e-08 13.5197 0)
(8.9901e-09 13.5197 0)
(8.78102e-09 13.5197 0)
(1.78515e-09 13.5197 0)
(3.18576e-09 13.5197 0)
(1.16529e-09 13.5197 0)
(2.54154e-09 13.5197 0)
(2.15339e-09 13.5197 0)
(3.15765e-09 13.5197 0)
(3.18543e-09 13.5197 0)
(3.75441e-09 13.5197 0)
(3.77111e-09 13.5197 0)
(3.93599e-09 13.5197 0)
(3.77367e-09 13.5197 0)
(3.61903e-09 13.5197 0)
(3.23683e-09 13.5197 0)
(2.82617e-09 13.5197 0)
(2.28178e-09 13.5197 0)
(1.68696e-09 13.5197 0)
(1.02981e-09 13.5197 0)
(3.64379e-10 13.5197 0)
(-3.81976e-10 13.5197 0)
(-1.02454e-09 13.5197 0)
(-1.65062e-09 13.5197 0)
(-2.31757e-09 13.5197 0)
(-2.82879e-09 13.5197 0)
(-3.20157e-09 13.5197 0)
(-3.65504e-09 13.5197 0)
(-3.77282e-09 13.5197 0)
(-3.89715e-09 13.5197 0)
(-3.8047e-09 13.5197 0)
(-3.75001e-09 13.5197 0)
(-3.14416e-09 13.5197 0)
(-3.18654e-09 13.5197 0)
(-2.14763e-09 13.5197 0)
(-2.50032e-09 13.5197 0)
(-1.19391e-09 13.5197 0)
(-3.1776e-09 13.5197 0)
(-1.74211e-09 13.5197 0)
(-8.81028e-09 13.5197 0)
(-8.98466e-09 13.5197 0)
(-3.13221e-08 13.5197 0)
(-3.99806e-08 13.5197 0)
(-1.1811e-07 13.5197 0)
(-1.67189e-07 13.5197 0)
(-5.28474e-07 13.5197 0)
(-8.49446e-07 13.5197 0)
(-4.41715e-06 13.5197 0)
(-1.06856e-05 13.5197 0)
(-0.000189306 13.5197 0)
(-0.000182662 13.5258 0)
(0.000125888 -1.80673 0)
(0.00013427 -1.8079 0)
(1.35083e-05 -1.80791 0)
(5.71223e-06 -1.80792 0)
(1.24686e-06 -1.80792 0)
(7.75252e-07 -1.80792 0)
(2.86263e-07 -1.80792 0)
(2.02858e-07 -1.80792 0)
(9.03281e-08 -1.80792 0)
(6.97084e-08 -1.80792 0)
(3.44172e-08 -1.80792 0)
(2.88661e-08 -1.80792 0)
(1.60156e-08 -1.80792 0)
(1.46514e-08 -1.80792 0)
(9.64155e-09 -1.80792 0)
(9.43488e-09 -1.80792 0)
(7.39243e-09 -1.80792 0)
(7.42303e-09 -1.80792 0)
(6.48412e-09 -1.80792 0)
(6.43056e-09 -1.80792 0)
(5.85313e-09 -1.80792 0)
(5.6137e-09 -1.80792 0)
(5.07567e-09 -1.80792 0)
(4.64795e-09 -1.80792 0)
(4.0241e-09 -1.80792 0)
(3.4257e-09 -1.80792 0)
(2.71254e-09 -1.80792 0)
(1.98424e-09 -1.80792 0)
(1.19805e-09 -1.80792 0)
(4.16205e-10 -1.80792 0)
(-4.29758e-10 -1.80792 0)
(-1.19562e-09 -1.80792 0)
(-1.96102e-09 -1.80792 0)
(-2.73763e-09 -1.80792 0)
(-3.42943e-09 -1.80792 0)
(-4.00167e-09 -1.80792 0)
(-4.67303e-09 -1.80792 0)
(-5.07553e-09 -1.80792 0)
(-5.58741e-09 -1.80792 0)
(-5.87552e-09 -1.80792 0)
(-6.42659e-09 -1.80792 0)
(-6.45509e-09 -1.80792 0)
(-7.44011e-09 -1.80792 0)
(-7.38657e-09 -1.80792 0)
(-9.40502e-09 -1.80792 0)
(-9.65786e-09 -1.80792 0)
(-1.46427e-08 -1.80792 0)
(-1.59836e-08 -1.80792 0)
(-2.88826e-08 -1.80792 0)
(-3.44106e-08 -1.80792 0)
(-6.96793e-08 -1.80792 0)
(-9.03456e-08 -1.80792 0)
(-2.02851e-07 -1.80792 0)
(-2.8623e-07 -1.80792 0)
(-7.75262e-07 -1.80792 0)
(-1.24685e-06 -1.80792 0)
(-5.71219e-06 -1.80792 0)
(-1.35083e-05 -1.80791 0)
(-0.00013427 -1.8079 0)
(-0.000125888 -1.80673 0)
(0.000120594 -0.960144 0)
(0.000130616 -0.959768 0)
(1.61744e-05 -0.959771 0)
(6.95951e-06 -0.959788 0)
(1.65931e-06 -0.959788 0)
(1.02842e-06 -0.959788 0)
(4.10875e-07 -0.959788 0)
(2.90887e-07 -0.959788 0)
(1.4332e-07 -0.959788 0)
(1.09824e-07 -0.959788 0)
(6.12656e-08 -0.959788 0)
(4.99851e-08 -0.959788 0)
(3.1082e-08 -0.959788 0)
(2.67485e-08 -0.959788 0)
(1.86319e-08 -0.959788 0)
(1.67212e-08 -0.959788 0)
(1.295e-08 -0.959788 0)
(1.19357e-08 -0.959788 0)
(9.97831e-09 -0.959788 0)
(9.25802e-09 -0.959788 0)
(8.05514e-09 -0.959788 0)
(7.3804e-09 -0.959788 0)
(6.44679e-09 -0.959788 0)
(5.72927e-09 -0.959788 0)
(4.84821e-09 -0.959788 0)
(4.05228e-09 -0.959788 0)
(3.16339e-09 -0.959788 0)
(2.29255e-09 -0.959788 0)
(1.37389e-09 -0.959788 0)
(4.74121e-10 -0.959788 0)
(-4.88569e-10 -0.959788 0)
(-1.37296e-09 -0.959788 0)
(-2.27202e-09 -0.959788 0)
(-3.18824e-09 -0.959788 0)
(-4.05717e-09 -0.959788 0)
(-4.82827e-09 -0.959788 0)
(-5.7539e-09 -0.959788 0)
(-6.44739e-09 -0.959788 0)
(-7.35628e-09 -0.959788 0)
(-8.07683e-09 -0.959788 0)
(-9.25453e-09 -0.959788 0)
(-9.95112e-09 -0.959788 0)
(-1.19515e-08 -0.959788 0)
(-1.29441e-08 -0.959788 0)
(-1.66923e-08 -0.959788 0)
(-1.86464e-08 -0.959788 0)
(-2.67394e-08 -0.959788 0)
(-3.10507e-08 -0.959788 0)
(-4.99992e-08 -0.959788 0)
(-6.12579e-08 -0.959788 0)
(-1.09795e-07 -0.959788 0)
(-1.43335e-07 -0.959788 0)
(-2.90879e-07 -0.959788 0)
(-4.10842e-07 -0.959788 0)
(-1.02843e-06 -0.959788 0)
(-1.65929e-06 -0.959788 0)
(-6.95947e-06 -0.959788 0)
(-1.61744e-05 -0.959771 0)
(-0.000130616 -0.959768 0)
(-0.000120594 -0.960144 0)
(0.00011501 0.119001 0)
(0.000126512 0.119206 0)
(1.86202e-05 0.119202 0)
(8.15823e-06 0.119184 0)
(2.08348e-06 0.119184 0)
(1.28623e-06 0.119183 0)
(5.40037e-07 0.119183 0)
(3.81451e-07 0.119183 0)
(1.98366e-07 0.119183 0)
(1.51277e-07 0.119183 0)
(8.92e-08 0.119183 0)
(7.18716e-08 0.119183 0)
(4.67769e-08 0.119183 0)
(3.93119e-08 0.119183 0)
(2.80056e-08 0.119183 0)
(2.43002e-08 0.119183 0)
(1.87476e-08 0.119183 0)
(1.66346e-08 0.119183 0)
(1.36242e-08 0.119183 0)
(1.22038e-08 0.119183 0)
(1.03526e-08 0.119183 0)
(9.22129e-09 0.119183 0)
(7.87675e-09 0.119183 0)
(6.85572e-09 0.119183 0)
(5.7072e-09 0.119183 0)
(4.70469e-09 0.119183 0)
(3.63299e-09 0.119183 0)
(2.61339e-09 0.119183 0)
(1.55702e-09 0.119183 0)
(5.34346e-10 0.119183 0)
(-5.49685e-10 0.119183 0)
(-1.55765e-09 0.119183 0)
(-2.59559e-09 0.119183 0)
(-3.65759e-09 0.119183 0)
(-4.71076e-09 0.119183 0)
(-5.68978e-09 0.119183 0)
(-6.87988e-09 0.119183 0)
(-7.87812e-09 0.119183 0)
(-9.19937e-09 0.119183 0)
(-1.03735e-08 0.119183 0)
(-1.22009e-08 0.119183 0)
(-1.35989e-08 0.119183 0)
(-1.66491e-08 0.119183 0)
(-1.87417e-08 0.119183 0)
(-2.42723e-08 0.119183 0)
(-2.80181e-08 0.119183 0)
(-3.93024e-08 0.119183 0)
(-4.67464e-08 0.119183 0)
(-7.18833e-08 0.119183 0)
(-8.91911e-08 0.119183 0)
(-1.51249e-07 0.119183 0)
(-1.98379e-07 0.119183 0)
(-3.81442e-07 0.119183 0)
(-5.40005e-07 0.119183 0)
(-1.28623e-06 0.119183 0)
(-2.08346e-06 0.119184 0)
(-8.15818e-06 0.119184 0)
(-1.86202e-05 0.119202 0)
(-0.000126512 0.119206 0)
(-0.00011501 0.119001 0)
(0.000104234 0.162874 0)
(0.000117045 0.162903 0)
(2.08318e-05 0.162899 0)
(9.30241e-06 0.16288 0)
(2.51707e-06 0.162879 0)
(1.54772e-06 0.162878 0)
(6.73281e-07 0.162878 0)
(4.74225e-07 0.162878 0)
(2.55239e-07 0.162878 0)
(1.9389e-07 0.162878 0)
(1.18081e-07 0.162878 0)
(9.44141e-08 0.162878 0)
(6.30119e-08 0.162878 0)
(5.22702e-08 0.162878 0)
(3.77053e-08 0.162878 0)
(3.21265e-08 0.162878 0)
(2.47495e-08 0.162878 0)
(2.14913e-08 0.162878 0)
(1.74003e-08 0.162878 0)
(1.52514e-08 0.162878 0)
(1.2733e-08 0.162878 0)
(1.11275e-08 0.162878 0)
(9.35924e-09 0.162878 0)
(8.02284e-09 0.162878 0)
(6.59838e-09 0.162878 0)
(5.38124e-09 0.162878 0)
(4.12024e-09 0.162878 0)
(2.94632e-09 0.162878 0)
(1.7471e-09 0.162878 0)
(5.96423e-10 0.162878 0)
(-6.12182e-10 0.162878 0)
(-1.74948e-09 0.162878 0)
(-2.93229e-09 0.162878 0)
(-4.14361e-09 0.162878 0)
(-5.38846e-09 0.162878 0)
(-6.58449e-09 0.162878 0)
(-8.04557e-09 0.162878 0)
(-9.36139e-09 0.162878 0)
(-1.11088e-08 0.162878 0)
(-1.27522e-08 0.162878 0)
(-1.5249e-08 0.162878 0)
(-1.7378e-08 0.162878 0)
(-2.15037e-08 0.162878 0)
(-2.47435e-08 0.162878 0)
(-3.21006e-08 0.162878 0)
(-3.7715e-08 0.162878 0)
(-5.22602e-08 0.162878 0)
(-6.29831e-08 0.162878 0)
(-9.44224e-08 0.162878 0)
(-1.18071e-07 0.162878 0)
(-1.93863e-07 0.162878 0)
(-2.55249e-07 0.162878 0)
(-4.74215e-07 0.162878 0)
(-6.7325e-07 0.162878 0)
(-1.54772e-06 0.162878 0)
(-2.51705e-06 0.162879 0)
(-9.30237e-06 0.16288 0)
(-2.08318e-05 0.162899 0)
(-0.000117045 0.162903 0)
(-0.000104234 0.162874 0)
(9.30734e-05 0.0553921 0)
(0.000107031 0.0554222 0)
(2.2814e-05 0.0554197 0)
(1.03873e-05 0.0553983 0)
(2.95819e-06 0.0553973 0)
(1.81225e-06 0.0553968 0)
(8.10395e-07 0.0553967 0)
(5.69091e-07 0.0553966 0)
(3.13873e-07 0.0553966 0)
(2.37614e-07 0.0553966 0)
(1.47876e-07 0.0553966 0)
(1.17586e-07 0.0553966 0)
(7.97662e-08 0.0553966 0)
(6.56069e-08 0.0553966 0)
(4.77184e-08 0.0553966 0)
(4.01897e-08 0.0553966 0)
(3.09476e-08 0.0553966 0)
(2.65001e-08 0.0553966 0)
(2.1302e-08 0.0553966 0)
(1.83976e-08 0.0553966 0)
(1.51942e-08 0.0553966 0)
(1.30973e-08 0.0553966 0)
(1.08933e-08 0.0553966 0)
(9.23019e-09 0.0553966 0)
(7.52134e-09 0.0553966 0)
(6.08183e-09 0.0553966 0)
(4.62533e-09 0.0553966 0)
(3.29129e-09 0.0553966 0)
(1.94427e-09 0.0553966 0)
(6.6076e-10 0.0553966 0)
(-6.76927e-10 0.0553966 0)
(-1.94843e-09 0.0553966 0)
(-3.28109e-09 0.0553966 0)
(-4.64743e-09 0.0553966 0)
(-6.09019e-09 0.0553966 0)
(-7.511e-09 0.0553966 0)
(-9.25148e-09 0.0553966 0)
(-1.08962e-08 0.0553966 0)
(-1.30819e-08 0.0553966 0)
(-1.52117e-08 0.0553966 0)
(-1.83956e-08 0.0553966 0)
(-2.12826e-08 0.0553966 0)
(-2.65102e-08 0.0553966 0)
(-3.09416e-08 0.0553966 0)
(-4.01659e-08 0.0553966 0)
(-4.77254e-08 0.0553966 0)
(-6.55964e-08 0.0553966 0)
(-7.97392e-08 0.0553966 0)
(-1.17591e-07 0.0553966 0)
(-1.47865e-07 0.0553966 0)
(-2.37588e-07 0.0553966 0)
(-3.13879e-07 0.0553966 0)
(-5.69079e-07 0.0553966 0)
(-8.10367e-07 0.0553967 0)
(-1.81225e-06 0.0553968 0)
(-2.95817e-06 0.0553973 0)
(-1.03872e-05 0.0553983 0)
(-2.28139e-05 0.0554197 0)
(-0.000107031 0.0554222 0)
(-9.30733e-05 0.0553921 0)
(8.29732e-05 0.011547 0)
(9.79191e-05 0.0116103 0)
(2.45696e-05 0.0116084 0)
(1.14095e-05 0.0115856 0)
(3.40497e-06 0.0115844 0)
(2.07926e-06 0.0115838 0)
(9.51238e-07 0.0115837 0)
(6.65991e-07 0.0115836 0)
(3.74253e-07 0.0115836 0)
(2.82444e-07 0.0115836 0)
(1.78585e-07 0.0115836 0)
(1.41389e-07 0.0115836 0)
(9.70428e-08 0.0115836 0)
(7.93246e-08 0.0115836 0)
(5.80477e-08 0.0115836 0)
(4.84921e-08 0.0115836 0)
(3.73442e-08 0.0115836 0)
(3.16627e-08 0.0115836 0)
(2.53309e-08 0.0115836 0)
(2.16436e-08 0.0115836 0)
(1.77375e-08 0.0115836 0)
(1.5132e-08 0.0115836 0)
(1.24799e-08 0.0115836 0)
(1.04788e-08 0.0115836 0)
(8.47683e-09 0.0115836 0)
(6.80705e-09 0.0115836 0)
(5.14877e-09 0.0115836 0)
(3.64865e-09 0.0115836 0)
(2.14878e-09 0.0115836 0)
(7.27564e-10 0.0115836 0)
(-7.44238e-10 0.0115836 0)
(-2.15473e-09 0.0115836 0)
(-3.64208e-09 0.0115836 0)
(-5.16987e-09 0.0115836 0)
(-6.81655e-09 0.0115836 0)
(-8.46981e-09 0.0115836 0)
(-1.04988e-08 0.0115836 0)
(-1.24836e-08 0.0115836 0)
(-1.51196e-08 0.0115836 0)
(-1.77535e-08 0.0115836 0)
(-2.16422e-08 0.0115836 0)
(-2.53141e-08 0.0115836 0)
(-3.16707e-08 0.0115836 0)
(-3.73381e-08 0.0115836 0)
(-4.84701e-08 0.0115836 0)
(-5.80521e-08 0.0115836 0)
(-7.93136e-08 0.0115836 0)
(-9.70173e-08 0.0115836 0)
(-1.41391e-07 0.0115836 0)
(-1.78573e-07 0.0115836 0)
(-2.8242e-07 0.0115836 0)
(-3.74256e-07 0.0115836 0)
(-6.65979e-07 0.0115836 0)
(-9.51211e-07 0.0115837 0)
(-2.07926e-06 0.0115838 0)
(-3.40495e-06 0.0115844 0)
(-1.14094e-05 0.0115856 0)
(-2.45696e-05 0.0116084 0)
(-9.7919e-05 0.0116103 0)
(-8.29731e-05 0.011547 0)
(7.36862e-05 0.00206407 0)
(8.94653e-05 0.00214533 0)
(2.60993e-05 0.00214411 0)
(1.2366e-05 0.00212006 0)
(3.85548e-06 0.00211861 0)
(2.34814e-06 0.00211783 0)
(1.09566e-06 0.00211773 0)
(7.64874e-07 0.00211765 0)
(4.36374e-07 0.00211763 0)
(3.28384e-07 0.00211761 0)
(2.10217e-07 0.00211761 0)
(1.65832e-07 0.0021176 0)
(1.14849e-07 0.0021176 0)
(9.343e-08 0.0021176 0)
(6.86989e-08 0.0021176 0)
(5.70386e-08 0.0021176 0)
(4.39435e-08 0.0021176 0)
(3.69826e-08 0.00211759 0)
(2.94899e-08 0.00211759 0)
(2.49923e-08 0.00211759 0)
(2.03653e-08 0.00211759 0)
(1.72333e-08 0.00211759 0)
(1.41205e-08 0.00211759 0)
(1.17698e-08 0.00211759 0)
(9.46588e-09 0.00211759 0)
(7.55773e-09 0.00211759 0)
(5.69116e-09 0.00211759 0)
(4.01881e-09 0.00211759 0)
(2.3609e-09 0.00211759 0)
(7.9691e-10 0.00211759 0)
(-8.14138e-10 0.00211759 0)
(-2.36863e-09 0.00211759 0)
(-4.01574e-09 0.00211759 0)
(-5.71147e-09 0.00211759 0)
(-7.56838e-09 0.00211759 0)
(-9.462e-09 0.00211759 0)
(-1.17888e-08 0.00211759 0)
(-1.41252e-08 0.00211759 0)
(-1.72237e-08 0.00211759 0)
(-2.03799e-08 0.00211759 0)
(-2.49914e-08 0.00211759 0)
(-2.94757e-08 0.00211759 0)
(-3.69888e-08 0.00211759 0)
(-4.39374e-08 0.00211759 0)
(-5.70183e-08 0.0021176 0)
(-6.87009e-08 0.0021176 0)
(-9.34185e-08 0.0021176 0)
(-1.14825e-07 0.0021176 0)
(-1.65831e-07 0.0021176 0)
(-2.10203e-07 0.00211761 0)
(-3.2836e-07 0.00211761 0)
(-4.36374e-07 0.00211763 0)
(-7.64861e-07 0.00211765 0)
(-1.09563e-06 0.00211773 0)
(-2.34813e-06 0.00211783 0)
(-3.85546e-06 0.00211861 0)
(-1.23659e-05 0.00212006 0)
(-2.60993e-05 0.00214411 0)
(-8.94652e-05 0.00214533 0)
(-7.36862e-05 0.00206407 0)
(6.49395e-05 0.000567977 0)
(8.13988e-05 0.000656867 0)
(2.74044e-05 0.000656296 0)
(1.32538e-05 0.000631214 0)
(4.30765e-06 0.000629504 0)
(2.61824e-06 0.000628577 0)
(1.24348e-06 0.00062845 0)
(8.65677e-07 0.000628348 0)
(5.00224e-07 0.000628325 0)
(3.75435e-07 0.000628303 0)
(2.42779e-07 0.000628297 0)
(1.90923e-07 0.00062829 0)
(1.33195e-07 0.000628288 0)
(1.0793e-07 0.000628286 0)
(7.96786e-08 0.000628285 0)
(6.58347e-08 0.000628284 0)
(5.07503e-08 0.000628283 0)
(4.24639e-08 0.000628283 0)
(3.37825e-08 0.000628283 0)
(2.84463e-08 0.000628283 0)
(2.30797e-08 0.000628282 0)
(1.94031e-08 0.000628282 0)
(1.58169e-08 0.000628282 0)
(1.31046e-08 0.000628282 0)
(1.04896e-08 0.000628282 0)
(8.33471e-09 0.000628282 0)
(6.25312e-09 0.000628282 0)
(4.40221e-09 0.000628282 0)
(2.58084e-09 0.000628282 0)
(8.68815e-10 0.000628282 0)
(-8.86673e-10 0.000628282 0)
(-2.59034e-09 0.000628282 0)
(-4.40249e-09 0.000628282 0)
(-6.2728e-09 0.000628282 0)
(-8.34654e-09 0.000628282 0)
(-1.04887e-08 0.000628282 0)
(-1.31226e-08 0.000628282 0)
(-1.58224e-08 0.000628282 0)
(-1.93963e-08 0.000628282 0)
(-2.30931e-08 0.000628282 0)
(-2.84459e-08 0.000628283 0)
(-3.37708e-08 0.000628283 0)
(-4.24685e-08 0.000628283 0)
(-5.07441e-08 0.000628283 0)
(-6.5816e-08 0.000628284 0)
(-7.96782e-08 0.000628285 0)
(-1.07918e-07 0.000628286 0)
(-1.33172e-07 0.000628288 0)
(-1.90919e-07 0.00062829 0)
(-2.42764e-07 0.000628297 0)
(-3.75412e-07 0.000628303 0)
(-5.00221e-07 0.000628325 0)
(-8.65663e-07 0.000628348 0)
(-1.24345e-06 0.00062845 0)
(-2.61823e-06 0.000628577 0)
(-4.30763e-06 0.000629504 0)
(-1.32537e-05 0.000631214 0)
(-2.74043e-05 0.000656296 0)
(-8.13987e-05 0.000656867 0)
(-6.49395e-05 0.000567977 0)
(5.66451e-05 0.00023807 0)
(7.36355e-05 0.00033128 0)
(2.84872e-05 0.000331391 0)
(1.40701e-05 0.000305444 0)
(4.75932e-06 0.000303466 0)
(2.88886e-06 0.000302378 0)
(1.39448e-06 0.000302221 0)
(9.68325e-07 0.000302097 0)
(5.65785e-07 0.000302068 0)
(4.23595e-07 0.000302042 0)
(2.76278e-07 0.000302034 0)
(2.16669e-07 0.000302025 0)
(1.52086e-07 0.000302023 0)
(1.22833e-07 0.00030202 0)
(9.09932e-08 0.000302018 0)
(7.48861e-08 0.000302017 0)
(5.77691e-08 0.000302017 0)
(4.81106e-08 0.000302016 0)
(3.82122e-08 0.000302016 0)
(3.20086e-08 0.000302016 0)
(2.58831e-08 0.000302016 0)
(2.16437e-08 0.000302015 0)
(1.75708e-08 0.000302015 0)
(1.44845e-08 0.000302015 0)
(1.1549e-08 0.000302015 0)
(9.13883e-09 0.000302015 0)
(6.8353e-09 0.000302015 0)
(4.79934e-09 0.000302015 0)
(2.80886e-09 0.000302015 0)
(9.43372e-10 0.000302015 0)
(-9.61917e-10 0.000302015 0)
(-2.82015e-09 0.000302015 0)
(-4.80282e-09 0.000302015 0)
(-6.85451e-09 0.000302015 0)
(-9.15189e-09 0.000302015 0)
(-1.1551e-08 0.000302015 0)
(-1.45018e-08 0.000302015 0)
(-1.75771e-08 0.000302015 0)
(-2.16393e-08 0.000302015 0)
(-2.58955e-08 0.000302016 0)
(-3.20086e-08 0.000302016 0)
(-3.82028e-08 0.000302016 0)
(-4.81138e-08 0.000302016 0)
(-5.77629e-08 0.000302017 0)
(-7.48688e-08 0.000302017 0)
(-9.09907e-08 0.000302018 0)
(-1.22821e-07 0.00030202 0)
(-1.52064e-07 0.000302023 0)
(-2.16662e-07 0.000302025 0)
(-2.76262e-07 0.000302034 0)
(-4.23573e-07 0.000302042 0)
(-5.65779e-07 0.000302068 0)
(-9.68309e-07 0.000302097 0)
(-1.39446e-06 0.000302221 0)
(-2.88885e-06 0.000302378 0)
(-4.7593e-06 0.000303466 0)
(-1.40701e-05 0.000305444 0)
(-2.84872e-05 0.000331391 0)
(-7.36354e-05 0.00033128 0)
(-5.6645e-05 0.00023807 0)
(4.87884e-05 7.4925e-05 0)
(6.61654e-05 0.000171493 0)
(2.93516e-05 0.000172319 0)
(1.48123e-05 0.000145676 0)
(5.20822e-06 0.000143421 0)
(3.15921e-06 0.000142163 0)
(1.54843e-06 0.000141972 0)
(1.07272e-06 0.000141825 0)
(6.33032e-07 0.000141789 0)
(4.7286e-07 0.000141756 0)
(3.10718e-07 0.000141746 0)
(2.43077e-07 0.000141736 0)
(1.71531e-07 0.000141733 0)
(1.38145e-07 0.000141729 0)
(1.02649e-07 0.000141728 0)
(8.41982e-08 0.000141726 0)
(6.50049e-08 0.000141725 0)
(5.39268e-08 0.000141725 0)
(4.27824e-08 0.000141724 0)
(3.56821e-08 0.000141724 0)
(2.87782e-08 0.000141724 0)
(2.39568e-08 0.000141724 0)
(1.93838e-08 0.000141724 0)
(1.5911e-08 0.000141724 0)
(1.26453e-08 0.000141724 0)
(9.97099e-09 0.000141723 0)
(7.43837e-09 0.000141723 0)
(5.21065e-09 0.000141723 0)
(3.0453e-09 0.000141723 0)
(1.0207e-09 0.000141723 0)
(-1.03996e-09 0.000141723 0)
(-3.05838e-09 0.000141723 0)
(-5.21726e-09 0.000141723 0)
(-7.45723e-09 0.000141723 0)
(-9.98528e-09 0.000141723 0)
(-1.265e-08 0.000141724 0)
(-1.59276e-08 0.000141724 0)
(-1.93909e-08 0.000141724 0)
(-2.39549e-08 0.000141724 0)
(-2.87897e-08 0.000141724 0)
(-3.56824e-08 0.000141724 0)
(-4.2775e-08 0.000141724 0)
(-5.39286e-08 0.000141725 0)
(-6.49986e-08 0.000141725 0)
(-8.41822e-08 0.000141726 0)
(-1.02644e-07 0.000141728 0)
(-1.38132e-07 0.000141729 0)
(-1.7151e-07 0.000141733 0)
(-2.43067e-07 0.000141736 0)
(-3.107e-07 0.000141746 0)
(-4.72838e-07 0.000141756 0)
(-6.33023e-07 0.000141789 0)
(-1.07271e-06 0.000141825 0)
(-1.54841e-06 0.000141972 0)
(-3.15919e-06 0.000142163 0)
(-5.2082e-06 0.000143421 0)
(-1.48123e-05 0.000145676 0)
(-2.93516e-05 0.000172319 0)
(-6.61654e-05 0.000171493 0)
(-4.87883e-05 7.49249e-05 0)
(4.13692e-05 -1.19666e-05 0)
(5.89936e-05 8.74412e-05 0)
(3.0002e-05 8.90113e-05 0)
(1.5478e-05 6.1839e-05 0)
(5.65196e-06 5.93015e-05 0)
(3.42846e-06 5.78649e-05 0)
(1.70504e-06 5.76366e-05 0)
(1.17877e-06 5.74621e-05 0)
(7.01929e-07 5.74188e-05 0)
(5.23219e-07 5.738e-05 0)
(3.46099e-07 5.73677e-05 0)
(2.70152e-07 5.73556e-05 0)
(1.91536e-07 5.73513e-05 0)
(1.53873e-07 5.73467e-05 0)
(1.14652e-07 5.73449e-05 0)
(9.37762e-08 5.73429e-05 0)
(7.24621e-08 5.7342e-05 0)
(5.99165e-08 5.73411e-05 0)
(4.74966e-08 5.73407e-05 0)
(3.94696e-08 5.73403e-05 0)
(3.17673e-08 5.73401e-05 0)
(2.63447e-08 5.73398e-05 0)
(2.12576e-08 5.73397e-05 0)
(1.73854e-08 5.73396e-05 0)
(1.37797e-08 5.73396e-05 0)
(1.08321e-08 5.73395e-05 0)
(8.06297e-09 5.73395e-05 0)
(5.63664e-09 5.73395e-05 0)
(3.29047e-09 5.73394e-05 0)
(1.10083e-09 5.73394e-05 0)
(-1.12093e-09 5.73394e-05 0)
(-3.30528e-09 5.73394e-05 0)
(-5.64627e-09 5.73395e-05 0)
(-8.08165e-09 5.73395e-05 0)
(-1.08476e-08 5.73395e-05 0)
(-1.3787e-08 5.73396e-05 0)
(-1.74014e-08 5.73396e-05 0)
(-2.12656e-08 5.73397e-05 0)
(-2.63452e-08 5.73398e-05 0)
(-3.17779e-08 5.73401e-05 0)
(-3.94703e-08 5.73402e-05 0)
(-4.74911e-08 5.73407e-05 0)
(-5.9917e-08 5.73411e-05 0)
(-7.24559e-08 5.7342e-05 0)
(-9.37614e-08 5.73429e-05 0)
(-1.14645e-07 5.73449e-05 0)
(-1.53859e-07 5.73466e-05 0)
(-1.91516e-07 5.73513e-05 0)
(-2.7014e-07 5.73556e-05 0)
(-3.4608e-07 5.73677e-05 0)
(-5.23197e-07 5.738e-05 0)
(-7.01918e-07 5.74188e-05 0)
(-1.17875e-06 5.74621e-05 0)
(-1.70502e-06 5.76366e-05 0)
(-3.42844e-06 5.78649e-05 0)
(-5.65194e-06 5.93014e-05 0)
(-1.5478e-05 6.1839e-05 0)
(-3.0002e-05 8.90113e-05 0)
(-5.89936e-05 8.74412e-05 0)
(-4.13692e-05 -1.19667e-05 0)
(3.43877e-05 -5.11431e-05 0)
(5.2126e-05 5.0639e-05 0)
(3.0444e-05 5.2978e-05 0)
(1.60651e-05 2.54395e-05 0)
(6.0881e-06 2.26171e-05 0)
(3.69572e-06 2.09947e-05 0)
(1.86399e-06 2.07249e-05 0)
(1.28632e-06 2.05213e-05 0)
(7.72431e-07 2.04693e-05 0)
(5.74656e-07 2.04236e-05 0)
(3.8242e-07 2.04087e-05 0)
(2.97898e-07 2.03943e-05 0)
(2.12107e-07 2.0389e-05 0)
(1.70021e-07 2.03834e-05 0)
(1.27007e-07 2.03812e-05 0)
(1.03625e-07 2.03788e-05 0)
(8.01452e-08 2.03778e-05 0)
(6.60836e-08 2.03766e-05 0)
(5.2358e-08 2.03761e-05 0)
(4.33742e-08 2.03755e-05 0)
(3.48529e-08 2.03753e-05 0)
(2.88095e-08 2.0375e-05 0)
(2.3194e-08 2.03748e-05 0)
(1.89093e-08 2.03747e-05 0)
(1.49532e-08 2.03746e-05 0)
(1.17231e-08 2.03745e-05 0)
(8.70982e-09 2.03745e-05 0)
(6.0778e-09 2.03745e-05 0)
(3.54462e-09 2.03744e-05 0)
(1.18388e-09 2.03744e-05 0)
(-1.2049e-09 2.03744e-05 0)
(-3.56111e-09 2.03744e-05 0)
(-6.09031e-09 2.03745e-05 0)
(-8.72849e-09 2.03745e-05 0)
(-1.17399e-08 2.03745e-05 0)
(-1.4963e-08 2.03746e-05 0)
(-1.89247e-08 2.03747e-05 0)
(-2.32029e-08 2.03748e-05 0)
(-2.88122e-08 2.0375e-05 0)
(-3.48627e-08 2.03753e-05 0)
(-4.33753e-08 2.03755e-05 0)
(-5.23543e-08 2.03761e-05 0)
(-6.6083e-08 2.03766e-05 0)
(-8.01391e-08 2.03777e-05 0)
(-1.03612e-07 2.03788e-05 0)
(-1.26999e-07 2.03812e-05 0)
(-1.70007e-07 2.03834e-05 0)
(-2.12087e-07 2.0389e-05 0)
(-2.97883e-07 2.03943e-05 0)
(-3.824e-07 2.04087e-05 0)
(-5.74635e-07 2.04236e-05 0)
(-7.72416e-07 2.04694e-05 0)
(-1.2863e-06 2.05213e-05 0)
(-1.86396e-06 2.07249e-05 0)
(-3.6957e-06 2.09947e-05 0)
(-6.08808e-06 2.26171e-05 0)
(-1.6065e-05 2.54395e-05 0)
(-3.0444e-05 5.2978e-05 0)
(-5.2126e-05 5.06389e-05 0)
(-3.43877e-05 -5.11432e-05 0)
(2.78427e-05 -6.68936e-05 0)
(4.55679e-05 3.68147e-05 0)
(3.0684e-05 3.99426e-05 0)
(1.65717e-05 1.21974e-05 0)
(6.51411e-06 9.09052e-06 0)
(3.96002e-06 7.27644e-06 0)
(2.0249e-06 6.96125e-06 0)
(1.39524e-06 6.72604e-06 0)
(8.4448e-07 6.66437e-06 0)
(6.2715e-07 6.61085e-06 0)
(4.19675e-07 6.59304e-06 0)
(3.26315e-07 6.57611e-06 0)
(2.33246e-07 6.56966e-06 0)
(1.86597e-07 6.56312e-06 0)
(1.3972e-07 6.5604e-06 0)
(1.1375e-07 6.55753e-06 0)
(8.80587e-08 6.55624e-06 0)
(7.2432e-08 6.55488e-06 0)
(5.73701e-08 6.55422e-06 0)
(4.73986e-08 6.55353e-06 0)
(3.80374e-08 6.55318e-06 0)
(3.13533e-08 6.55282e-06 0)
(2.51947e-08 6.55263e-06 0)
(2.0484e-08 6.55244e-06 0)
(1.61671e-08 6.55234e-06 0)
(1.26449e-08 6.55224e-06 0)
(9.37962e-09 6.55219e-06 0)
(6.53461e-09 6.55214e-06 0)
(3.80802e-09 6.55212e-06 0)
(1.26996e-09 6.55211e-06 0)
(-1.29193e-09 6.5521e-06 0)
(-3.82618e-09 6.5521e-06 0)
(-6.54988e-09 6.55215e-06 0)
(-9.39841e-09 6.55219e-06 0)
(-1.2663e-08 6.55222e-06 0)
(-1.61793e-08 6.55234e-06 0)
(-2.04991e-08 6.55245e-06 0)
(-2.52044e-08 6.55261e-06 0)
(-3.13579e-08 6.55283e-06 0)
(-3.80466e-08 6.55319e-06 0)
(-4.74002e-08 6.55352e-06 0)
(-5.7368e-08 6.55423e-06 0)
(-7.24304e-08 6.55488e-06 0)
(-8.80527e-08 6.55623e-06 0)
(-1.13738e-07 6.55754e-06 0)
(-1.3971e-07 6.56041e-06 0)
(-1.86582e-07 6.56311e-06 0)
(-2.33227e-07 6.56967e-06 0)
(-3.26298e-07 6.57612e-06 0)
(-4.19653e-07 6.59302e-06 0)
(-6.27129e-07 6.61086e-06 0)
(-8.44463e-07 6.66437e-06 0)
(-1.39522e-06 6.72602e-06 0)
(-2.02487e-06 6.96125e-06 0)
(-3.96e-06 7.27645e-06 0)
(-6.51409e-06 9.09051e-06 0)
(-1.65717e-05 1.21974e-05 0)
(-3.0684e-05 3.99426e-05 0)
(-4.55679e-05 3.68146e-05 0)
(-2.78426e-05 -6.68937e-05 0)
(2.17319e-05 -7.31508e-05 0)
(3.93239e-05 3.2054e-05 0)
(3.07293e-05 3.59852e-05 0)
(1.69965e-05 8.18876e-06 0)
(6.92743e-06 4.80083e-06 0)
(4.22036e-06 2.79061e-06 0)
(2.18736e-06 2.42599e-06 0)
(1.50535e-06 2.15666e-06 0)
(9.18007e-07 2.08419e-06 0)
(6.80674e-07 2.0222e-06 0)
(4.57855e-07 2.0011e-06 0)
(3.55404e-07 1.98136e-06 0)
(2.54957e-07 1.97366e-06 0)
(2.03603e-07 1.96598e-06 0)
(1.52795e-07 1.96271e-06 0)
(1.24156e-07 1.95932e-06 0)
(9.62066e-08 1.95775e-06 0)
(7.89654e-08 1.95612e-06 0)
(6.2536e-08 1.95532e-06 0)
(5.15458e-08 1.95448e-06 0)
(4.13234e-08 1.95405e-06 0)
(3.3978e-08 1.95361e-06 0)
(2.72616e-08 1.95336e-06 0)
(2.2111e-08 1.95313e-06 0)
(1.74226e-08 1.95299e-06 0)
(1.35985e-08 1.95287e-06 0)
(1.00731e-08 1.9528e-06 0)
(7.00748e-09 1.95274e-06 0)
(4.08095e-09 1.9527e-06 0)
(1.35917e-09 1.95269e-06 0)
(-1.3821e-09 1.95269e-06 0)
(-4.10079e-09 1.95269e-06 0)
(-7.02549e-09 1.95274e-06 0)
(-1.00921e-08 1.9528e-06 0)
(-1.36178e-08 1.95285e-06 0)
(-1.74371e-08 1.953e-06 0)
(-2.21259e-08 1.95313e-06 0)
(-2.72721e-08 1.95335e-06 0)
(-3.39845e-08 1.95361e-06 0)
(-4.1332e-08 1.95405e-06 0)
(-5.15479e-08 1.95447e-06 0)
(-6.25354e-08 1.95532e-06 0)
(-7.89629e-08 1.95613e-06 0)
(-9.62007e-08 1.95774e-06 0)
(-1.24144e-07 1.95932e-06 0)
(-1.52783e-07 1.96272e-06 0)
(-2.03588e-07 1.96597e-06 0)
(-2.54938e-07 1.97367e-06 0)
(-3.55384e-07 1.98136e-06 0)
(-4.57832e-07 2.00109e-06 0)
(-6.80652e-07 2.02221e-06 0)
(-9.17988e-07 2.0842e-06 0)
(-1.50533e-06 2.15665e-06 0)
(-2.18734e-06 2.42599e-06 0)
(-4.22034e-06 2.79062e-06 0)
(-6.9274e-06 4.80081e-06 0)
(-1.69965e-05 8.18877e-06 0)
(-3.07293e-05 3.59852e-05 0)
(-3.93238e-05 3.2054e-05 0)
(-2.17318e-05 -7.31509e-05 0)
(1.60518e-05 -7.59515e-05 0)
(3.33977e-05 3.03363e-05 0)
(3.0588e-05 3.50798e-05 0)
(1.73383e-05 7.38231e-06 0)
(7.32544e-06 3.71971e-06 0)
(4.47566e-06 1.51038e-06 0)
(2.35093e-06 1.09239e-06 0)
(1.61647e-06 7.86466e-07 0)
(9.92931e-07 7.02044e-07 0)
(7.35192e-07 6.30805e-07 0)
(4.96946e-07 6.06037e-07 0)
(3.8516e-07 5.83193e-07 0)
(2.77241e-07 5.74101e-07 0)
(2.21043e-07 5.65162e-07 0)
(1.66236e-07 5.61264e-07 0)
(1.34846e-07 5.57291e-07 0)
(1.04593e-07 5.55416e-07 0)
(8.56875e-08 5.53493e-07 0)