/*--------------------------------*- C++ -*----------------------------------*\
| =========                 |                                                 |
| \\      /  F ield         | foam-extend: Open Source CFD                    |
|  \\    /   O peration     | Version:     4.0                                |
|   \\  /    A nd           | Web:         http://www.foam-extend.org         |
|    \\/     M anipulation  |                                                 |
\*---------------------------------------------------------------------------*/
FoamFile
{
    version     2.0;
    format      ascii;
    class       volScalarField;
    location    "160";
    object      psiE;
}
// * * * * * * * * * * * * * * * * * * * * * * * * * * * * * * * * * * * * * //

dimensions      [0 0 0 0 0 0 0];

internalField   nonuniform List<scalar> 
6960
(
0.337893
0.337904
0.337904
0.337903
0.337902
0.337902
0.337901
0.337902
0.337902
0.337902
0.337903
0.337903
0.337904
0.337905
0.337906
0.337906
0.337907
0.337908
0.337908
0.337909
0.337909
0.33791
0.33791
0.337911
0.337911
0.337911
0.337912
0.337912
0.337912
0.337912
0.337912
0.337912
0.337912
0.337912
0.337911
0.337911
0.337911
0.33791
0.33791
0.337909
0.337909
0.337908
0.337908
0.337907
0.337906
0.337906
0.337905
0.337904
0.337903
0.337903
0.337902
0.337902
0.337902
0.337901
0.337902
0.337902
0.337903
0.337904
0.337904
0.337893
0.831882
0.831915
0.831913
0.831908
0.831904
0.831901
0.8319
0.8319
0.8319
0.8319
0.831901
0.831903
0.831904
0.831906
0.831908
0.831909
0.831911
0.831913
0.831914
0.831916
0.831917
0.831919
0.83192
0.831921
0.831922
0.831922
0.831923
0.831923
0.831924
0.831924
0.831924
0.831924
0.831923
0.831923
0.831922
0.831922
0.831921
0.83192
0.831919
0.831917
0.831916
0.831914
0.831913
0.831911
0.831909
0.831908
0.831906
0.831904
0.831903
0.831901
0.8319
0.8319
0.8319
0.8319
0.831901
0.831904
0.831908
0.831913
0.831915
0.831882
1.24378
1.24382
1.24381
1.2438
1.2438
1.24379
1.24379
1.24379
1.24378
1.24379
1.24379
1.24379
1.24379
1.24379
1.24379
1.2438
1.2438
1.2438
1.2438
1.24381
1.24381
1.24381
1.24381
1.24381
1.24382
1.24382
1.24382
1.24382
1.24382
1.24382
1.24382
1.24382
1.24382
1.24382
1.24382
1.24382
1.24381
1.24381
1.24381
1.24381
1.24381
1.2438
1.2438
1.2438
1.2438
1.24379
1.24379
1.24379
1.24379
1.24379
1.24379
1.24378
1.24379
1.24379
1.24379
1.2438
1.2438
1.24381
1.24382
1.24378
1.59529
1.59533
1.59532
1.5953
1.59529
1.59528
1.59528
1.59527
1.59527
1.59527
1.59527
1.59527
1.59528
1.59528
1.59528
1.59529
1.59529
1.59529
1.5953
1.5953
1.5953
1.5953
1.59531
1.59531
1.59531
1.59531
1.59531
1.59531
1.59531
1.59531
1.59531
1.59531
1.59531
1.59531
1.59531
1.59531
1.59531
1.59531
1.5953
1.5953
1.5953
1.5953
1.59529
1.59529
1.59529
1.59528
1.59528
1.59528
1.59527
1.59527
1.59527
1.59527
1.59527
1.59528
1.59528
1.59529
1.5953
1.59532
1.59533
1.59529
1.89247
1.8925
1.89247
1.89245
1.89243
1.89242
1.89241
1.89241
1.8924
1.8924
1.8924
1.89241
1.89241
1.89241
1.89242
1.89242
1.89242
1.89243
1.89243
1.89244
1.89244
1.89244
1.89244
1.89245
1.89245
1.89245
1.89245
1.89245
1.89245
1.89245
1.89245
1.89245
1.89245
1.89245
1.89245
1.89245
1.89245
1.89244
1.89244
1.89244
1.89244
1.89243
1.89243
1.89242
1.89242
1.89242
1.89241
1.89241
1.89241
1.8924
1.8924
1.8924
1.89241
1.89241
1.89242
1.89243
1.89245
1.89247
1.8925
1.89247
2.13888
2.13887
2.13884
2.13881
2.13879
2.13877
2.13876
2.13876
2.13875
2.13875
2.13875
2.13876
2.13876
2.13876
2.13877
2.13877
2.13878
2.13878
2.13879
2.13879
2.1388
2.1388
2.1388
2.13881
2.13881
2.13881
2.13881
2.13882
2.13882
2.13882
2.13882
2.13882
2.13882
2.13881
2.13881
2.13881
2.13881
2.1388
2.1388
2.1388
2.13879
2.13879
2.13878
2.13878
2.13877
2.13877
2.13876
2.13876
2.13876
2.13875
2.13875
2.13875
2.13876
2.13876
2.13877
2.13879
2.13881
2.13884
2.13887
2.13888
2.33966
2.33963
2.33958
2.33955
2.33952
2.3395
2.33949
2.33949
2.33948
2.33948
2.33948
2.33949
2.33949
2.3395
2.3395
2.33951
2.33952
2.33952
2.33953
2.33953
2.33954
2.33954
2.33955
2.33955
2.33956
2.33956
2.33956
2.33956
2.33956
2.33956
2.33956
2.33956
2.33956
2.33956
2.33956
2.33956
2.33955
2.33955
2.33954
2.33954
2.33953
2.33953
2.33952
2.33952
2.33951
2.3395
2.3395
2.33949
2.33949
2.33948
2.33948
2.33948
2.33949
2.33949
2.3395
2.33952
2.33955
2.33958
2.33963
2.33966
2.50202
2.50195
2.5019
2.50186
2.50183
2.50181
2.5018
2.50179
2.50179
2.50179
2.50179
2.5018
2.5018
2.50181
2.50182
2.50182
2.50183
2.50184
2.50185
2.50185
2.50186
2.50187
2.50187
2.50188
2.50188
2.50188
2.50189
2.50189
2.50189
2.50189
2.50189
2.50189
2.50189
2.50189
2.50188
2.50188
2.50188
2.50187
2.50187
2.50186
2.50185
2.50185
2.50184
2.50183
2.50182
2.50182
2.50181
2.5018
2.5018
2.50179
2.50179
2.50179
2.50179
2.5018
2.50181
2.50183
2.50186
2.5019
2.50195
2.50202
2.63398
2.63389
2.63383
2.63378
2.63375
2.63373
2.63372
2.63371
2.63371
2.63371
2.63372
2.63373
2.63373
2.63374
2.63375
2.63376
2.63377
2.63378
2.63379
2.6338
2.63381
2.63381
2.63382
2.63383
2.63383
2.63384
2.63384
2.63384
2.63384
2.63384
2.63384
2.63384
2.63384
2.63384
2.63384
2.63383
2.63383
2.63382
2.63381
2.63381
2.6338
2.63379
2.63378
2.63377
2.63376
2.63375
2.63374
2.63373
2.63373
2.63372
2.63371
2.63371
2.63371
2.63372
2.63373
2.63375
2.63378
2.63383
2.63389
2.63398
2.74305
2.74294
2.74287
2.74283
2.7428
2.74278
2.74277
2.74276
2.74276
2.74276
2.74277
2.74278
2.74279
2.7428
2.74281
2.74283
2.74284
2.74285
2.74286
2.74287
2.74288
2.74289
2.7429
2.7429
2.74291
2.74292
2.74292
2.74292
2.74292
2.74293
2.74293
2.74292
2.74292
2.74292
2.74292
2.74291
2.7429
2.7429
2.74289
2.74288
2.74287
2.74286
2.74285
2.74284
2.74283
2.74281
2.7428
2.74279
2.74278
2.74277
2.74276
2.74276
2.74276
2.74277
2.74278
2.7428
2.74283
2.74287
2.74294
2.74305
2.83534
2.83522
2.83515
2.8351
2.83507
2.83505
2.83504
2.83503
2.83504
2.83504
2.83505
2.83506
2.83508
2.83509
2.8351
2.83512
2.83513
2.83515
2.83516
2.83517
2.83518
2.83519
2.8352
2.83521
2.83522
2.83523
2.83523
2.83523
2.83524
2.83524
2.83524
2.83524
2.83523
2.83523
2.83523
2.83522
2.83521
2.8352
2.83519
2.83518
2.83517
2.83516
2.83515
2.83513
2.83512
2.8351
2.83509
2.83508
2.83506
2.83505
2.83504
2.83504
2.83503
2.83504
2.83505
2.83507
2.8351
2.83515
2.83522
2.83534
2.91538
2.91524
2.91517
2.91512
2.91509
2.91507
2.91506
2.91506
2.91506
2.91507
2.91508
2.9151
2.91511
2.91513
2.91515
2.91516
2.91518
2.9152
2.91521
2.91523
2.91524
2.91526
2.91527
2.91528
2.91528
2.91529
2.9153
2.9153
2.9153
2.91531
2.91531
2.9153
2.9153
2.9153
2.91529
2.91528
2.91528
2.91527
2.91526
2.91524
2.91523
2.91521
2.9152
2.91518
2.91516
2.91515
2.91513
2.91511
2.9151
2.91508
2.91507
2.91506
2.91506
2.91506
2.91507
2.91509
2.91512
2.91517
2.91524
2.91538
2.98633
2.98619
2.98612
2.98607
2.98604
2.98602
2.98601
2.98601
2.98602
2.98603
2.98605
2.98606
2.98608
2.9861
2.98612
2.98614
2.98616
2.98618
2.9862
2.98622
2.98623
2.98625
2.98626
2.98627
2.98628
2.98629
2.9863
2.9863
2.9863
2.98631
2.98631
2.9863
2.9863
2.9863
2.98629
2.98628
2.98627
2.98626
2.98625
2.98623
2.98622
2.9862
2.98618
2.98616
2.98614
2.98612
2.9861
2.98608
2.98606
2.98605
2.98603
2.98602
2.98601
2.98601
2.98602
2.98604
2.98607
2.98612
2.98619
2.98633
3.05041
3.05026
3.05018
3.05013
3.0501
3.05009
3.05008
3.05009
3.0501
3.05011
3.05013
3.05015
3.05017
3.05019
3.05022
3.05024
3.05026
3.05029
3.05031
3.05033
3.05035
3.05036
3.05038
3.05039
3.0504
3.05041
3.05042
3.05042
3.05043
3.05043
3.05043
3.05043
3.05042
3.05042
3.05041
3.0504
3.05039
3.05038
3.05036
3.05035
3.05033
3.05031
3.05029
3.05026
3.05024
3.05022
3.05019
3.05017
3.05015
3.05013
3.05011
3.0501
3.05009
3.05008
3.05009
3.0501
3.05013
3.05018
3.05026
3.05041
3.10911
3.10897
3.10889
3.10884
3.10881
3.1088
3.10879
3.1088
3.10881
3.10883
3.10885
3.10887
3.1089
3.10893
3.10895
3.10898
3.10901
3.10903
3.10905
3.10908
3.1091
3.10912
3.10913
3.10915
3.10916
3.10917
3.10918
3.10918
3.10919
3.10919
3.10919
3.10919
3.10918
3.10918
3.10917
3.10916
3.10915
3.10913
3.10912
3.1091
3.10908
3.10905
3.10903
3.10901
3.10898
3.10895
3.10893
3.1089
3.10887
3.10885
3.10883
3.10881
3.1088
3.10879
3.1088
3.10881
3.10884
3.10889
3.10897
3.10911
3.16354
3.16339
3.16331
3.16327
3.16324
3.16323
3.16323
3.16323
3.16325
3.16327
3.16329
3.16332
3.16335
3.16338
3.16341
3.16344
3.16347
3.1635
3.16353
3.16355
3.16357
3.16359
3.16361
3.16363
3.16364
3.16365
3.16366
3.16367
3.16368
3.16368
3.16368
3.16368
3.16367
3.16366
3.16365
3.16364
3.16363
3.16361
3.16359
3.16357
3.16355
3.16353
3.1635
3.16347
3.16344
3.16341
3.16338
3.16335
3.16332
3.16329
3.16327
3.16325
3.16323
3.16323
3.16323
3.16324
3.16327
3.16331
3.16339
3.16354
3.21449
3.21434
3.21426
3.21421
3.21419
3.21418
3.21418
3.21419
3.21421
3.21423
3.21426
3.21429
3.21432
3.21436
3.21439
3.21442
3.21446
3.21449
3.21452
3.21455
3.21457
3.21459
3.21461
3.21463
3.21465
3.21466
3.21467
3.21468
3.21468
3.21469
3.21469
3.21468
3.21468
3.21467
3.21466
3.21465
3.21463
3.21461
3.21459
3.21457
3.21455
3.21452
3.21449
3.21446
3.21442
3.21439
3.21436
3.21432
3.21429
3.21426
3.21423
3.21421
3.21419
3.21418
3.21418
3.21419
3.21421
3.21426
3.21434
3.21449
3.26256
3.26241
3.26233
3.26229
3.26226
3.26225
3.26226
3.26227
3.26229
3.26232
3.26235
3.26239
3.26243
3.26246
3.2625
3.26254
3.26257
3.26261
3.26264
3.26267
3.2627
3.26273
3.26275
3.26277
3.26279
3.2628
3.26281
3.26282
3.26283
3.26283
3.26283
3.26283
3.26282
3.26281
3.2628
3.26279
3.26277
3.26275
3.26273
3.2627
3.26267
3.26264
3.26261
3.26257
3.26254
3.2625
3.26246
3.26243
3.26239
3.26235
3.26232
3.26229
3.26227
3.26226
3.26225
3.26226
3.26229
3.26233
3.26241
3.26256
3.30824
3.30809
3.30801
3.30797
3.30794
3.30794
3.30795
3.30796
3.30799
3.30802
3.30806
3.30809
3.30814
3.30818
3.30822
3.30826
3.3083
3.30834
3.30837
3.30841
3.30844
3.30846
3.30849
3.30851
3.30853
3.30855
3.30856
3.30857
3.30857
3.30858
3.30858
3.30857
3.30857
3.30856
3.30855
3.30853
3.30851
3.30849
3.30846
3.30844
3.30841
3.30837
3.30834
3.3083
3.30826
3.30822
3.30818
3.30814
3.30809
3.30806
3.30802
3.30799
3.30796
3.30795
3.30794
3.30794
3.30797
3.30801
3.30809
3.30824
3.35191
3.35176
3.35168
3.35164
3.35162
3.35161
3.35163
3.35165
3.35167
3.35171
3.35175
3.35179
3.35184
3.35188
3.35193
3.35197
3.35202
3.35206
3.3521
3.35213
3.35217
3.3522
3.35222
3.35225
3.35227
3.35229
3.3523
3.35231
3.35232
3.35232
3.35232
3.35232
3.35231
3.3523
3.35229
3.35227
3.35225
3.35222
3.3522
3.35217
3.35213
3.3521
3.35206
3.35202
3.35197
3.35193
3.35188
3.35184
3.35179
3.35175
3.35171
3.35167
3.35165
3.35163
3.35161
3.35162
3.35164
3.35168
3.35176
3.35191
3.39388
3.39374
3.39366
3.39362
3.3936
3.3936
3.39361
3.39363
3.39367
3.39371
3.39375
3.3938
3.39385
3.3939
3.39395
3.39399
3.39404
3.39409
3.39413
3.39417
3.39421
3.39424
3.39427
3.39429
3.39432
3.39434
3.39435
3.39436
3.39437
3.39437
3.39437
3.39437
3.39436
3.39435
3.39434
3.39432
3.39429
3.39427
3.39424
3.39421
3.39417
3.39413
3.39409
3.39404
3.39399
3.39395
3.3939
3.39385
3.3938
3.39375
3.39371
3.39367
3.39363
3.39361
3.3936
3.3936
3.39362
3.39366
3.39374
3.39388
3.43443
3.43429
3.43421
3.43417
3.43415
3.43415
3.43417
3.43419
3.43423
3.43427
3.43432
3.43437
3.43443
3.43448
3.43453
3.43459
3.43464
3.43469
3.43473
3.43478
3.43482
3.43485
3.43488
3.43491
3.43494
3.43496
3.43497
3.43499
3.43499
3.435
3.435
3.43499
3.43499
3.43497
3.43496
3.43494
3.43491
3.43488
3.43485
3.43482
3.43478
3.43473
3.43469
3.43464
3.43459
3.43453
3.43448
3.43443
3.43437
3.43432
3.43427
3.43423
3.43419
3.43417
3.43415
3.43415
3.43417
3.43421
3.43429
3.43443
3.47376
3.47363
3.47355
3.47351
3.47349
3.4735
3.47352
3.47355
3.47359
3.47364
3.47369
3.47374
3.4738
3.47386
3.47392
3.47398
3.47403
3.47409
3.47414
3.47418
3.47422
3.47426
3.4743
3.47433
3.47435
3.47438
3.47439
3.47441
3.47441
3.47442
3.47442
3.47441
3.47441
3.47439
3.47438
3.47435
3.47433
3.4743
3.47426
3.47422
3.47418
3.47414
3.47409
3.47403
3.47398
3.47392
3.47386
3.4738
3.47374
3.47369
3.47364
3.47359
3.47355
3.47352
3.4735
3.47349
3.47351
3.47355
3.47363
3.47376
3.51209
3.51196
3.51188
3.51184
3.51183
3.51183
3.51186
3.51189
3.51194
3.51199
3.51204
3.5121
3.51217
3.51223
3.51229
3.51236
3.51242
3.51247
3.51253
3.51258
3.51262
3.51266
3.5127
3.51273
3.51276
3.51278
3.5128
3.51282
3.51283
3.51283
3.51283
3.51283
3.51282
3.5128
3.51278
3.51276
3.51273
3.5127
3.51266
3.51262
3.51258
3.51253
3.51247
3.51242
3.51236
3.51229
3.51223
3.51217
3.5121
3.51204
3.51199
3.51194
3.51189
3.51186
3.51183
3.51183
3.51184
3.51188
3.51196
3.51209
3.54957
3.54944
3.54936
3.54932
3.54931
3.54933
3.54935
3.54939
3.54944
3.5495
3.54956
3.54962
3.54969
3.54976
3.54983
3.54989
3.54996
3.55002
3.55007
3.55013
3.55018
3.55022
3.55026
3.5503
3.55033
3.55035
3.55037
3.55039
3.5504
3.5504
3.5504
3.5504
3.55039
3.55037
3.55035
3.55033
3.5503
3.55026
3.55022
3.55018
3.55013
3.55007
3.55002
3.54996
3.54989
3.54983
3.54976
3.54969
3.54962
3.54956
3.5495
3.54944
3.54939
3.54935
3.54933
3.54931
3.54932
3.54936
3.54944
3.54957
3.58636
3.58623
3.58615
3.58612
3.58611
3.58612
3.58615
3.58619
3.58625
3.58631
3.58638
3.58645
3.58652
3.58659
3.58666
3.58674
3.5868
3.58687
3.58693
3.58699
3.58704
3.58709
3.58713
3.58717
3.5872
3.58723
3.58725
3.58726
3.58728
3.58728
3.58728
3.58728
3.58726
3.58725
3.58723
3.5872
3.58717
3.58713
3.58709
3.58704
3.58699
3.58693
3.58687
3.5868
3.58674
3.58666
3.58659
3.58652
3.58645
3.58638
3.58631
3.58625
3.58619
3.58615
3.58612
3.58611
3.58612
3.58615
3.58623
3.58636
3.62258
3.62245
3.62238
3.62234
3.62234
3.62236
3.62239
3.62244
3.62249
3.62256
3.62263
3.62271
3.62279
3.62286
3.62294
3.62302
3.62309
3.62316
3.62323
3.62329
3.62334
3.62339
3.62344
3.62348
3.62351
3.62354
3.62357
3.62358
3.62359
3.6236
3.6236
3.62359
3.62358
3.62357
3.62354
3.62351
3.62348
3.62344
3.62339
3.62334
3.62329
3.62323
3.62316
3.62309
3.62302
3.62294
3.62286
3.62279
3.62271
3.62263
3.62256
3.62249
3.62244
3.62239
3.62236
3.62234
3.62234
3.62238
3.62245
3.62258
3.65836
3.65824
3.65816
3.65813
3.65813
3.65815
3.65819
3.65824
3.6583
3.65837
3.65845
3.65853
3.65861
3.6587
3.65878
3.65886
3.65894
3.65901
3.65908
3.65915
3.65921
3.65926
3.65931
3.65935
3.65939
3.65942
3.65944
3.65946
3.65947
3.65948
3.65948
3.65947
3.65946
3.65944
3.65942
3.65939
3.65935
3.65931
3.65926
3.65921
3.65915
3.65908
3.65901
3.65894
3.65886
3.65878
3.6587
3.65861
3.65853
3.65845
3.65837
3.6583
3.65824
3.65819
3.65815
3.65813
3.65813
3.65816
3.65824
3.65836
3.6938
3.69368
3.69361
3.69358
3.69358
3.69361
3.69365
3.69371
3.69377
3.69385
3.69393
3.69402
3.69411
3.69419
3.69428
3.69437
3.69445
3.69453
3.69461
3.69468
3.69474
3.6948
3.69485
3.69489
3.69493
3.69496
3.69499
3.69501
3.69502
3.69503
3.69503
3.69502
3.69501
3.69499
3.69496
3.69493
3.69489
3.69485
3.6948
3.69474
3.69468
3.69461
3.69453
3.69445
3.69437
3.69428
3.69419
3.69411
3.69402
3.69393
3.69385
3.69377
3.69371
3.69365
3.69361
3.69358
3.69358
3.69361
3.69368
3.6938
3.72902
3.7289
3.72883
3.7288
3.72881
3.72883
3.72888
3.72894
3.72901
3.72909
3.72918
3.72927
3.72937
3.72946
3.72956
3.72965
3.72974
3.72982
3.7299
3.72997
3.73004
3.7301
3.73016
3.7302
3.73024
3.73028
3.73031
3.73033
3.73034
3.73035
3.73035
3.73034
3.73033
3.73031
3.73028
3.73024
3.7302
3.73016
3.7301
3.73004
3.72997
3.7299
3.72982
3.72974
3.72965
3.72956
3.72946
3.72937
3.72927
3.72918
3.72909
3.72901
3.72894
3.72888
3.72883
3.72881
3.7288
3.72883
3.7289
3.72902
3.76409
3.76397
3.76391
3.76388
3.76389
3.76392
3.76397
3.76404
3.76411
3.7642
3.76429
3.76439
3.76449
3.76459
3.76469
3.76479
3.76488
3.76497
3.76505
3.76513
3.7652
3.76527
3.76533
3.76538
3.76542
3.76546
3.76549
3.76551
3.76552
3.76553
3.76553
3.76552
3.76551
3.76549
3.76546
3.76542
3.76538
3.76533
3.76527
3.7652
3.76513
3.76505
3.76497
3.76488
3.76479
3.76469
3.76459
3.76449
3.76439
3.76429
3.7642
3.76411
3.76404
3.76397
3.76392
3.76389
3.76388
3.76391
3.76397
3.76409
3.7991
3.799
3.79893
3.79891
3.79892
3.79895
3.79901
3.79908
3.79916
3.79925
3.79935
3.79946
3.79956
3.79967
3.79977
3.79988
3.79998
3.80007
3.80016
3.80024
3.80032
3.80039
3.80045
3.8005
3.80055
3.80058
3.80061
3.80064
3.80065
3.80066
3.80066
3.80065
3.80064
3.80061
3.80058
3.80055
3.8005
3.80045
3.80039
3.80032
3.80024
3.80016
3.80007
3.79998
3.79988
3.79977
3.79967
3.79956
3.79946
3.79935
3.79925
3.79916
3.79908
3.79901
3.79895
3.79892
3.79891
3.79893
3.799
3.7991
3.83415
3.83404
3.83398
3.83396
3.83397
3.83401
3.83407
3.83415
3.83424
3.83433
3.83444
3.83455
3.83466
3.83478
3.83489
3.835
3.8351
3.8352
3.83529
3.83538
3.83546
3.83553
3.8356
3.83565
3.8357
3.83574
3.83577
3.8358
3.83582
3.83582
3.83582
3.83582
3.8358
3.83577
3.83574
3.8357
3.83565
3.8356
3.83553
3.83546
3.83538
3.83529
3.8352
3.8351
3.835
3.83489
3.83478
3.83466
3.83455
3.83444
3.83433
3.83424
3.83415
3.83407
3.83401
3.83397
3.83396
3.83398
3.83404
3.83415
3.8693
3.86919
3.86913
3.86912
3.86913
3.86918
3.86924
3.86932
3.86942
3.86952
3.86963
3.86975
3.86987
3.86999
3.87011
3.87022
3.87033
3.87044
3.87053
3.87063
3.87071
3.87079
3.87085
3.87091
3.87097
3.87101
3.87104
3.87107
3.87109
3.87109
3.87109
3.87109
3.87107
3.87104
3.87101
3.87097
3.87091
3.87085
3.87079
3.87071
3.87063
3.87053
3.87044
3.87033
3.87022
3.87011
3.86999
3.86987
3.86975
3.86963
3.86952
3.86942
3.86932
3.86924
3.86918
3.86913
3.86912
3.86913
3.86919
3.8693
3.90462
3.90452
3.90447
3.90445
3.90447
3.90452
3.90459
3.90467
3.90477
3.90489
3.905
3.90513
3.90525
3.90538
3.9055
3.90562
3.90574
3.90585
3.90596
3.90605
3.90614
3.90622
3.90629
3.90636
3.90641
3.90646
3.90649
3.90652
3.90654
3.90655
3.90655
3.90654
3.90652
3.90649
3.90646
3.90641
3.90636
3.90629
3.90622
3.90614
3.90605
3.90596
3.90585
3.90574
3.90562
3.9055
3.90538
3.90525
3.90513
3.905
3.90489
3.90477
3.90467
3.90459
3.90452
3.90447
3.90445
3.90447
3.90452
3.90462
3.94019
3.9401
3.94004
3.94003
3.94006
3.94011
3.94018
3.94028
3.94038
3.9405
3.94062
3.94076
3.94089
3.94102
3.94115
3.94128
3.9414
3.94152
3.94163
3.94173
3.94182
3.94191
3.94198
3.94205
3.94211
3.94215
3.94219
3.94222
3.94224
3.94225
3.94225
3.94224
3.94222
3.94219
3.94215
3.94211
3.94205
3.94198
3.94191
3.94182
3.94173
3.94163
3.94152
3.9414
3.94128
3.94115
3.94102
3.94089
3.94076
3.94062
3.9405
3.94038
3.94028
3.94018
3.94011
3.94006
3.94003
3.94004
3.9401
3.94019
3.97608
3.97599
3.97594
3.97593
3.97596
3.97601
3.97609
3.97619
3.9763
3.97643
3.97656
3.9767
3.97684
3.97698
3.97712
3.97725
3.97738
3.9775
3.97762
3.97772
3.97782
3.97791
3.97799
3.97806
3.97812
3.97817
3.97821
3.97824
3.97826
3.97827
3.97827
3.97826
3.97824
3.97821
3.97817
3.97812
3.97806
3.97799
3.97791
3.97782
3.97772
3.97762
3.9775
3.97738
3.97725
3.97712
3.97698
3.97684
3.9767
3.97656
3.97643
3.9763
3.97619
3.97609
3.97601
3.97596
3.97593
3.97594
3.97599
3.97608
4.01235
4.01226
4.01221
4.01221
4.01224
4.0123
4.01238
4.01249
4.01261
4.01274
4.01288
4.01302
4.01317
4.01332
4.01346
4.0136
4.01374
4.01387
4.01399
4.0141
4.01421
4.0143
4.01438
4.01446
4.01452
4.01457
4.01461
4.01464
4.01466
4.01468
4.01468
4.01466
4.01464
4.01461
4.01457
4.01452
4.01446
4.01438
4.0143
4.01421
4.0141
4.01399
4.01387
4.01374
4.0136
4.01346
4.01332
4.01317
4.01302
4.01288
4.01274
4.01261
4.01249
4.01238
4.0123
4.01224
4.01221
4.01221
4.01226
4.01235
4.04905
4.04897
4.04893
4.04893
4.04896
4.04903
4.04912
4.04923
4.04936
4.04949
4.04964
4.04979
4.04995
4.0501
4.05026
4.0504
4.05055
4.05068
4.05081
4.05093
4.05104
4.05113
4.05122
4.0513
4.05136
4.05142
4.05146
4.05149
4.05152
4.05153
4.05153
4.05152
4.05149
4.05146
4.05142
4.05136
4.0513
4.05122
4.05113
4.05104
4.05093
4.05081
4.05068
4.05055
4.0504
4.05026
4.0501
4.04995
4.04979
4.04964
4.04949
4.04936
4.04923
4.04912
4.04903
4.04896
4.04893
4.04893
4.04897
4.04905
4.08626
4.08619
4.08615
4.08615
4.08619
4.08626
4.08636
4.08647
4.08661
4.08675
4.08691
4.08707
4.08723
4.08739
4.08755
4.08771
4.08786
4.088
4.08814
4.08826
4.08837
4.08848
4.08857
4.08865
4.08872
4.08877
4.08882
4.08885
4.08888
4.08889
4.08889
4.08888
4.08885
4.08882
4.08877
4.08872
4.08865
4.08857
4.08848
4.08837
4.08826
4.08814
4.088
4.08786
4.08771
4.08755
4.08739
4.08723
4.08707
4.08691
4.08675
4.08661
4.08647
4.08636
4.08626
4.08619
4.08615
4.08615
4.08619
4.08626
4.12404
4.12397
4.12393
4.12394
4.12398
4.12406
4.12416
4.12428
4.12443
4.12458
4.12474
4.12491
4.12508
4.12525
4.12542
4.12558
4.12574
4.12589
4.12603
4.12616
4.12628
4.12638
4.12648
4.12657
4.12664
4.1267
4.12675
4.12678
4.12681
4.12682
4.12682
4.12681
4.12678
4.12675
4.1267
4.12664
4.12657
4.12648
4.12638
4.12628
4.12616
4.12603
4.12589
4.12574
4.12558
4.12542
4.12525
4.12508
4.12491
4.12474
4.12458
4.12443
4.12428
4.12416
4.12406
4.12398
4.12394
4.12393
4.12397
4.12404
4.16244
4.16237
4.16233
4.16234
4.16239
4.16248
4.16259
4.16272
4.16287
4.16303
4.1632
4.16338
4.16356
4.16373
4.16391
4.16408
4.16425
4.1644
4.16455
4.16468
4.16481
4.16492
4.16502
4.16511
4.16519
4.16525
4.1653
4.16534
4.16536
4.16537
4.16537
4.16536
4.16534
4.1653
4.16525
4.16519
4.16511
4.16502
4.16492
4.16481
4.16468
4.16455
4.1644
4.16425
4.16408
4.16391
4.16373
4.16356
4.16338
4.1632
4.16303
4.16287
4.16272
4.16259
4.16248
4.16239
4.16234
4.16233
4.16237
4.16244
4.20151
4.20145
4.20142
4.20143
4.20149
4.20158
4.20169
4.20183
4.20199
4.20216
4.20234
4.20252
4.20271
4.2029
4.20308
4.20326
4.20344
4.2036
4.20375
4.20389
4.20402
4.20414
4.20425
4.20434
4.20442
4.20448
4.20454
4.20458
4.2046
4.20462
4.20462
4.2046
4.20458
4.20454
4.20448
4.20442
4.20434
4.20425
4.20414
4.20402
4.20389
4.20375
4.2036
4.20344
4.20326
4.20308
4.2029
4.20271
4.20252
4.20234
4.20216
4.20199
4.20183
4.20169
4.20158
4.20149
4.20143
4.20142
4.20145
4.20151
4.24132
4.24126
4.24124
4.24126
4.24132
4.24141
4.24154
4.24168
4.24185
4.24203
4.24222
4.24241
4.24261
4.2428
4.243
4.24318
4.24336
4.24354
4.2437
4.24384
4.24398
4.2441
4.24421
4.24431
4.24439
4.24446
4.24452
4.24456
4.24459
4.2446
4.2446
4.24459
4.24456
4.24452
4.24446
4.24439
4.24431
4.24421
4.2441
4.24398
4.24384
4.2437
4.24354
4.24336
4.24318
4.243
4.2428
4.24261
4.24241
4.24222
4.24203
4.24185
4.24168
4.24154
4.24141
4.24132
4.24126
4.24124
4.24126
4.24132
4.28193
4.28187
4.28185
4.28188
4.28194
4.28204
4.28217
4.28233
4.2825
4.28269
4.28289
4.28309
4.2833
4.2835
4.28371
4.2839
4.28409
4.28427
4.28444
4.28459
4.28473
4.28486
4.28498
4.28508
4.28517
4.28524
4.2853
4.28534
4.28537
4.28538
4.28538
4.28537
4.28534
4.2853
4.28524
4.28517
4.28508
4.28498
4.28486
4.28473
4.28459
4.28444
4.28427
4.28409
4.2839
4.28371
4.2835
4.2833
4.28309
4.28289
4.28269
4.2825
4.28233
4.28217
4.28204
4.28194
4.28188
4.28185
4.28187
4.28193
4.32338
4.32333
4.32331
4.32334
4.32342
4.32352
4.32366
4.32382
4.32401
4.3242
4.32441
4.32462
4.32484
4.32506
4.32527
4.32547
4.32567
4.32586
4.32603
4.32619
4.32634
4.32648
4.3266
4.3267
4.32679
4.32687
4.32693
4.32697
4.327
4.32702
4.32702
4.327
4.32697
4.32693
4.32687
4.32679
4.3267
4.3266
4.32648
4.32634
4.32619
4.32603
4.32586
4.32567
4.32547
4.32527
4.32506
4.32484
4.32462
4.32441
4.3242
4.32401
4.32382
4.32366
4.32352
4.32342
4.32334
4.32331
4.32333
4.32338
4.36574
4.36569
4.36568
4.36571
4.36579
4.36591
4.36605
4.36622
4.36641
4.36662
4.36684
4.36706
4.36729
4.36751
4.36773
4.36795
4.36815
4.36835
4.36853
4.3687
4.36886
4.369
4.36912
4.36923
4.36933
4.36941
4.36947
4.36952
4.36955
4.36956
4.36956
4.36955
4.36952
4.36947
4.36941
4.36933
4.36923
4.36912
4.369
4.36886
4.3687
4.36853
4.36835
4.36815
4.36795
4.36773
4.36751
4.36729
4.36706
4.36684
4.36662
4.36641
4.36622
4.36605
4.36591
4.36579
4.36571
4.36568
4.36569
4.36574
4.40905
4.40901
4.409
4.40904
4.40913
4.40925
4.4094
4.40958
4.40978
4.41
4.41023
4.41046
4.4107
4.41093
4.41116
4.41139
4.4116
4.41181
4.412
4.41217
4.41234
4.41248
4.41261
4.41273
4.41283
4.41291
4.41297
4.41302
4.41306
4.41307
4.41307
4.41306
4.41302
4.41297
4.41291
4.41283
4.41273
4.41261
4.41248
4.41234
4.41217
4.412
4.41181
4.4116
4.41139
4.41116
4.41093
4.4107
4.41046
4.41023
4.41
4.40978
4.40958
4.4094
4.40925
4.40913
4.40904
4.409
4.40901
4.40905
4.45337
4.45334
4.45334
4.45338
4.45347
4.4536
4.45377
4.45395
4.45416
4.45439
4.45463
4.45487
4.45512
4.45537
4.45561
4.45584
4.45607
4.45628
4.45648
4.45666
4.45683
4.45699
4.45712
4.45724
4.45734
4.45743
4.4575
4.45755
4.45758
4.4576
4.4576
4.45758
4.45755
4.4575
4.45743
4.45734
4.45724
4.45712
4.45699
4.45683
4.45666
4.45648
4.45628
4.45607
4.45584
4.45561
4.45537
4.45512
4.45487
4.45463
4.45439
4.45416
4.45395
4.45377
4.4536
4.45347
4.45338
4.45334
4.45334
4.45337
4.49876
4.49873
4.49874
4.49879
4.49889
4.49903
4.4992
4.49939
4.49962
4.49985
4.5001
4.50036
4.50062
4.50087
4.50113
4.50137
4.5016
4.50183
4.50203
4.50223
4.5024
4.50256
4.5027
4.50283
4.50294
4.50302
4.5031
4.50315
4.50318
4.5032
4.5032
4.50318
4.50315
4.5031
4.50302
4.50294
4.50283
4.5027
4.50256
4.5024
4.50223
4.50203
4.50183
4.5016
4.50137
4.50113
4.50087
4.50062
4.50036
4.5001
4.49985
4.49962
4.49939
4.4992
4.49903
4.49889
4.49879
4.49874
4.49873
4.49876
4.54528
4.54525
4.54526
4.54532
4.54542
4.54557
4.54575
4.54596
4.54619
4.54644
4.5467
4.54697
4.54724
4.54751
4.54777
4.54802
4.54827
4.5485
4.54871
4.54892
4.5491
4.54927
4.54941
4.54954
4.54965
4.54975
4.54982
4.54988
4.54991
4.54993
4.54993
4.54991
4.54988
4.54982
4.54975
4.54965
4.54954
4.54941
4.54927
4.5491
4.54892
4.54871
4.5485
4.54827
4.54802
4.54777
4.5475
4.54724
4.54697
4.5467
4.54644
4.54619
4.54596
4.54575
4.54557
4.54542
4.54532
4.54526
4.54525
4.54528
4.59296
4.59294
4.59296
4.59302
4.59314
4.59329
4.59348
4.5937
4.59394
4.5942
4.59447
4.59475
4.59504
4.59532
4.59559
4.59586
4.59611
4.59635
4.59658
4.59679
4.59698
4.59715
4.5973
4.59744
4.59756
4.59765
4.59773
4.59779
4.59783
4.59785
4.59785
4.59783
4.59779
4.59773
4.59765
4.59756
4.59744
4.5973
4.59715
4.59698
4.59679
4.59658
4.59635
4.59611
4.59586
4.59559
4.59532
4.59504
4.59475
4.59447
4.5942
4.59394
4.5937
4.59348
4.59329
4.59314
4.59302
4.59296
4.59294
4.59296
4.64188
4.64186
4.64189
4.64196
4.64208
4.64224
4.64244
4.64267
4.64292
4.6432
4.64348
4.64377
4.64407
4.64436
4.64465
4.64492
4.64519
4.64544
4.64568
4.64589
4.64609
4.64627
4.64643
4.64657
4.6467
4.6468
4.64688
4.64694
4.64698
4.647
4.647
4.64698
4.64694
4.64688
4.6468
4.6467
4.64657
4.64643
4.64627
4.64609
4.64589
4.64568
4.64544
4.64519
4.64492
4.64465
4.64436
4.64407
4.64377
4.64348
4.6432
4.64292
4.64267
4.64244
4.64224
4.64208
4.64196
4.64189
4.64186
4.64188
4.69208
4.69207
4.6921
4.69218
4.69231
4.69248
4.69269
4.69293
4.6932
4.69348
4.69378
4.69408
4.69439
4.6947
4.69499
4.69528
4.69556
4.69582
4.69607
4.69629
4.6965
4.69669
4.69686
4.697
4.69713
4.69723
4.69731
4.69738
4.69742
4.69744
4.69744
4.69742
4.69738
4.69731
4.69723
4.69713
4.697
4.69686
4.69669
4.6965
4.69629
4.69607
4.69582
4.69556
4.69528
4.69499
4.6947
4.69439
4.69408
4.69378
4.69348
4.6932
4.69293
4.69269
4.69248
4.69231
4.69218
4.6921
4.69207
4.69208
4.74362
4.74362
4.74365
4.74374
4.74388
4.74406
4.74428
4.74453
4.74481
4.74511
4.74542
4.74574
4.74606
4.74638
4.74669
4.74699
4.74728
4.74755
4.7478
4.74804
4.74826
4.74845
4.74862
4.74878
4.74891
4.74902
4.7491
4.74917
4.74921
4.74923
4.74923
4.74921
4.74917
4.7491
4.74902
4.74891
4.74878
4.74862
4.74845
4.74826
4.74804
4.7478
4.74755
4.74728
4.74699
4.74669
4.74638
4.74606
4.74574
4.74542
4.74511
4.74481
4.74453
4.74428
4.74406
4.74388
4.74374
4.74365
4.74362
4.74362
4.79656
4.79656
4.7966
4.7967
4.79684
4.79703
4.79726
4.79753
4.79782
4.79813
4.79846
4.79879
4.79913
4.79946
4.79978
4.80009
4.80039
4.80068
4.80094
4.80119
4.80141
4.80162
4.8018
4.80196
4.80209
4.8022
4.80229
4.80236
4.80241
4.80243
4.80243
4.80241
4.80236
4.80229
4.8022
4.80209
4.80196
4.8018
4.80162
4.80141
4.80119
4.80094
4.80068
4.80039
4.80009
4.79978
4.79946
4.79913
4.79879
4.79846
4.79813
4.79782
4.79753
4.79726
4.79703
4.79684
4.7967
4.7966
4.79656
4.79656
4.85095
4.85095
4.851
4.8511
4.85126
4.85146
4.85171
4.85198
4.85229
4.85261
4.85295
4.8533
4.85365
4.85399
4.85433
4.85466
4.85497
4.85527
4.85554
4.8558
4.85603
4.85624
4.85643
4.8566
4.85674
4.85685
4.85695
4.85702
4.85707
4.85709
4.85709
4.85707
4.85702
4.85695
4.85685
4.85674
4.8566
4.85643
4.85624
4.85603
4.8558
4.85554
4.85527
4.85497
4.85466
4.85433
4.85399
4.85365
4.8533
4.85295
4.85261
4.85229
4.85198
4.85171
4.85146
4.85126
4.8511
4.851
4.85095
4.85095
4.90684
4.90685
4.90691
4.90702
4.90719
4.9074
4.90766
4.90795
4.90827
4.90861
4.90896
4.90932
4.90969
4.91005
4.9104
4.91074
4.91107
4.91137
4.91166
4.91193
4.91217
4.91239
4.91258
4.91275
4.9129
4.91302
4.91312
4.91319
4.91324
4.91327
4.91327
4.91324
4.91319
4.91312
4.91302
4.9129
4.91275
4.91258
4.91239
4.91217
4.91193
4.91166
4.91137
4.91107
4.91074
4.9104
4.91005
4.90969
4.90932
4.90896
4.90861
4.90827
4.90795
4.90766
4.9074
4.90719
4.90702
4.90691
4.90685
4.90684
4.96431
4.96432
4.96439
4.96451
4.96468
4.96491
4.96517
4.96548
4.96581
4.96617
4.96654
4.96692
4.9673
4.96767
4.96804
4.96839
4.96873
4.96905
4.96935
4.96963
4.96988
4.97011
4.97031
4.97049
4.97064
4.97077
4.97087
4.97094
4.97099
4.97102
4.97102
4.97099
4.97094
4.97087
4.97077
4.97064
4.97049
4.97031
4.97011
4.96988
4.96963
4.96935
4.96905
4.96873
4.96839
4.96804
4.96767
4.9673
4.96692
4.96654
4.96617
4.96581
4.96548
4.96517
4.96491
4.96468
4.96451
4.96439
4.96432
4.96431
5.02339
5.02341
5.02348
5.02361
5.0238
5.02404
5.02432
5.02464
5.02499
5.02536
5.02575
5.02614
5.02654
5.02693
5.02731
5.02768
5.02803
5.02836
5.02867
5.02896
5.02922
5.02946
5.02967
5.02985
5.03001
5.03014
5.03025
5.03033
5.03038
5.03041
5.03041
5.03038
5.03033
5.03025
5.03014
5.03001
5.02985
5.02967
5.02946
5.02922
5.02896
5.02867
5.02836
5.02803
5.02768
5.02731
5.02693
5.02654
5.02614
5.02575
5.02536
5.02499
5.02464
5.02432
5.02404
5.0238
5.02361
5.02348
5.02341
5.02339
5.08416
5.08419
5.08427
5.0844
5.0846
5.08485
5.08515
5.08548
5.08585
5.08624
5.08664
5.08705
5.08746
5.08787
5.08827
5.08865
5.08902
5.08937
5.08969
5.08999
5.09026
5.09051
5.09072
5.09092
5.09108
5.09122
5.09133
5.09141
5.09146
5.09149
5.09149
5.09146
5.09141
5.09133
5.09122
5.09108
5.09092
5.09072
5.09051
5.09026
5.08999
5.08969
5.08937
5.08902
5.08865
5.08827
5.08787
5.08746
5.08705
5.08664
5.08624
5.08585
5.08548
5.08515
5.08485
5.0846
5.0844
5.08427
5.08419
5.08416
5.14667
5.1467
5.14679
5.14694
5.14715
5.14741
5.14772
5.14807
5.14845
5.14886
5.14928
5.14971
5.15014
5.15056
5.15098
5.15138
5.15176
5.15212
5.15246
5.15277