/*--------------------------------*- C++ -*----------------------------------*\
| =========                 |                                                 |
| \\      /  F ield         | foam-extend: Open Source CFD                    |
|  \\    /   O peration     | Version:     4.0                                |
|   \\  /    A nd           | Web:         http://www.foam-extend.org         |
|    \\/     M anipulation  |                                                 |
\*---------------------------------------------------------------------------*/
FoamFile
{
    version     2.0;
    format      ascii;
    class       volScalarField;
    location    "22";
    object      p;
}
// * * * * * * * * * * * * * * * * * * * * * * * * * * * * * * * * * * * * * //

dimensions      [0 2 -2 0 0 0 0];

internalField   nonuniform List<scalar> 
6960
(
5.04696e-23
7.51098e-23
7.39266e-23
7.43223e-23
7.40211e-23
7.41425e-23
7.39944e-23
7.40429e-23
7.39575e-23
7.39599e-23
7.3927e-23
7.39705e-23
7.40032e-23
7.40437e-23
7.40497e-23
7.40517e-23
7.40512e-23
7.40738e-23
7.41158e-23
7.41566e-23
7.41518e-23
7.40882e-23
7.39927e-23
7.39165e-23
7.38948e-23
7.39235e-23
7.39651e-23
7.39888e-23
7.39925e-23
7.39939e-23
7.40018e-23
7.39999e-23
7.39712e-23
7.39311e-23
7.39121e-23
7.39254e-23
7.39632e-23
7.40191e-23
7.40822e-23
7.41253e-23
7.41191e-23
7.40682e-23
7.40164e-23
7.39994e-23
7.40078e-23
7.40094e-23
7.39904e-23
7.39602e-23
7.3932e-23
7.39209e-23
7.39391e-23
7.39754e-23
7.40022e-23
7.40108e-23
7.40125e-23
7.40128e-23
7.40135e-23
7.40247e-23
7.40597e-23
7.41178e-23
7.15792e-23
7.52661e-23
7.41111e-23
7.44814e-23
7.41674e-23
7.4297e-23
7.4152e-23
7.42055e-23
7.41479e-23
7.41928e-23
7.41802e-23
7.42003e-23
7.41857e-23
7.41914e-23
7.41924e-23
7.42121e-23
7.42331e-23
7.42523e-23
7.42468e-23
7.42209e-23
7.41859e-23
7.41577e-23
7.41399e-23
7.41337e-23
7.41338e-23
7.41334e-23
7.41311e-23
7.41365e-23
7.41544e-23
7.41709e-23
7.41685e-23
7.41518e-23
7.41374e-23
7.41275e-23
7.41169e-23
7.41154e-23
7.41354e-23
7.41671e-23
7.41882e-23
7.41923e-23
7.41919e-23
7.41954e-23
7.41971e-23
7.41925e-23
7.41849e-23
7.41776e-23
7.41721e-23
7.41754e-23
7.41909e-23
7.42069e-23
7.42119e-23
7.42153e-23
7.42283e-23
7.42432e-23
7.42457e-23
7.42401e-23
7.42404e-23
7.42404e-23
7.42221e-23
7.42211e-23
7.49314e-23
7.53183e-23
7.41729e-23
7.45295e-23
7.42168e-23
7.43522e-23
7.42043e-23
7.42622e-23
7.42244e-23
7.429e-23
7.42803e-23
7.42844e-23
7.42503e-23
7.42493e-23
7.42595e-23
7.42945e-23
7.43203e-23
7.43185e-23
7.4265e-23
7.41901e-23
7.41452e-23
7.41669e-23
7.42363e-23
7.43002e-23
7.43107e-23
7.42707e-23
7.42257e-23
7.42117e-23
7.42229e-23
7.42301e-23
7.42183e-23
7.4205e-23
7.42135e-23
7.42389e-23
7.42583e-23
7.42635e-23
7.42583e-23
7.42391e-23
7.42043e-23
7.41745e-23
7.41813e-23
7.42273e-23
7.4273e-23
7.42809e-23
7.4258e-23
7.42389e-23
7.42433e-23
7.42681e-23
7.4302e-23
7.43269e-23
7.43266e-23
7.43121e-23
7.43086e-23
7.43229e-23
7.43398e-23
7.43512e-23
7.43576e-23
7.43461e-23
7.42945e-23
7.42537e-23
7.32154e-23
7.49925e-23
7.38419e-23
7.42181e-23
7.39194e-23
7.4058e-23
7.39131e-23
7.39719e-23
7.3916e-23
7.39492e-23
7.39214e-23
7.39414e-23
7.39441e-23
7.39746e-23
7.39967e-23
7.40225e-23
7.40257e-23
7.40091e-23
7.397e-23
7.39317e-23
7.39148e-23
7.39357e-23
7.39806e-23
7.40146e-23
7.40099e-23
7.39808e-23
7.39609e-23
7.39571e-23
7.39506e-23
7.39372e-23
7.39309e-23
7.39355e-23
7.39439e-23
7.39589e-23
7.39835e-23
7.40005e-23
7.39895e-23
7.39568e-23
7.39284e-23
7.39204e-23
7.39308e-23
7.39515e-23
7.3972e-23
7.39777e-23
7.39647e-23
7.39496e-23
7.39482e-23
7.39542e-23
7.3957e-23
7.39609e-23
7.39703e-23
7.39757e-23
7.39705e-23
7.39707e-23
7.39909e-23
7.40163e-23
7.4023e-23
7.40109e-23
7.39941e-23
7.39881e-23
7.24312e-23
7.46776e-23
7.35494e-23
7.39403e-23
7.36416e-23
7.37857e-23
7.36534e-23
7.3713e-23
7.36359e-23
7.36453e-23
7.36136e-23
7.36533e-23
7.36846e-23
7.37346e-23
7.37555e-23
7.37609e-23
7.37401e-23
7.37209e-23
7.37158e-23
7.37314e-23
7.37471e-23
7.37467e-23
7.37264e-23
7.37026e-23
7.36952e-23
7.37097e-23
7.37271e-23
7.3726e-23
7.37061e-23
7.36891e-23
7.36903e-23
7.37e-23
7.37024e-23
7.3702e-23
7.37098e-23
7.3718e-23
7.37131e-23
7.37026e-23
7.37045e-23
7.3718e-23
7.37208e-23
7.37046e-23
7.36899e-23
7.36949e-23
7.37082e-23
7.37086e-23
7.36922e-23
7.36686e-23
7.36485e-23
7.36441e-23
7.366e-23
7.36796e-23
7.36821e-23
7.36753e-23
7.36791e-23
7.36892e-23
7.36895e-23
7.36884e-23
7.37096e-23
7.3743e-23
7.24305e-23
7.45722e-23
7.34963e-23
7.38833e-23
7.35691e-23
7.37123e-23
7.35848e-23
7.36457e-23
7.35719e-23
7.35937e-23
7.35752e-23
7.36186e-23
7.36451e-23
7.3686e-23
7.36938e-23
7.36856e-23
7.36601e-23
7.36489e-23
7.36589e-23
7.36902e-23
7.37143e-23
7.37068e-23
7.36677e-23
7.36351e-23
7.36421e-23
7.36764e-23
7.36954e-23
7.36841e-23
7.36648e-23
7.36549e-23
7.3651e-23
7.36498e-23
7.3654e-23
7.36579e-23
7.36532e-23
7.36466e-23
7.36512e-23
7.36656e-23
7.36752e-23
7.36708e-23
7.36535e-23
7.3631e-23
7.36186e-23
7.36298e-23
7.36556e-23
7.36656e-23
7.36444e-23
7.36128e-23
7.35975e-23
7.36001e-23
7.36094e-23
7.36219e-23
7.36337e-23
7.36338e-23
7.36179e-23
7.36008e-23
7.3602e-23
7.3621e-23
7.36439e-23
7.36673e-23
7.24364e-23
7.44931e-23
7.34608e-23
7.38465e-23
7.35251e-23
7.36609e-23
7.35255e-23
7.35903e-23
7.35356e-23
7.35792e-23
7.35696e-23
7.36057e-23
7.36141e-23
7.3634e-23
7.36266e-23
7.36183e-23
7.36095e-23
7.36188e-23
7.36351e-23
7.36523e-23
7.36548e-23
7.36402e-23
7.36181e-23
7.36092e-23
7.36195e-23
7.36359e-23
7.36436e-23
7.36441e-23
7.36439e-23
7.36394e-23
7.36269e-23
7.3615e-23
7.3612e-23
7.36098e-23
7.35992e-23
7.35915e-23
7.36047e-23
7.36305e-23
7.36391e-23
7.36198e-23
7.35933e-23
7.35815e-23
7.35847e-23
7.35934e-23
7.36024e-23
7.36059e-23
7.35991e-23
7.35893e-23
7.35869e-23
7.35883e-23
7.35868e-23
7.359e-23
7.36006e-23
7.3601e-23
7.35776e-23
7.35525e-23
7.35578e-23
7.35825e-23
7.35883e-23
7.35822e-23
7.23371e-23
7.43439e-23
7.33294e-23
7.37278e-23
7.34183e-23
7.35517e-23
7.34076e-23
7.34764e-23
7.34368e-23
7.34917e-23
7.34817e-23
7.3507e-23
7.34975e-23
7.34996e-23
7.34876e-23
7.34937e-23
7.35093e-23
7.35365e-23
7.355e-23
7.35419e-23
7.35155e-23
7.34965e-23
7.34985e-23
7.351e-23
7.35074e-23
7.34953e-23
7.34988e-23
7.35238e-23
7.35459e-23
7.35482e-23
7.35371e-23
7.35204e-23
7.34975e-23
7.34745e-23
7.34632e-23
7.34669e-23
7.34803e-23
7.34958e-23
7.35043e-23
7.35008e-23
7.34926e-23
7.34914e-23
7.34948e-23
7.34887e-23
7.34715e-23
7.34621e-23
7.3474e-23
7.34947e-23
7.3504e-23
7.34993e-23
7.34918e-23
7.34876e-23
7.34816e-23
7.3471e-23
7.34594e-23
7.34523e-23
7.34517e-23
7.34505e-23
7.34411e-23
7.34302e-23
7.2228e-23
7.41671e-23
7.31618e-23
7.35758e-23
7.32848e-23
7.34279e-23
7.32844e-23
7.33502e-23
7.33066e-23
7.33585e-23
7.33452e-23
7.3364e-23
7.3346e-23
7.33465e-23
7.33463e-23
7.33717e-23
7.33987e-23
7.34196e-23
7.34126e-23
7.33841e-23
7.33527e-23
7.33458e-23
7.33614e-23
7.33731e-23
7.33604e-23
7.33406e-23
7.33432e-23
7.33708e-23
7.34e-23
7.34146e-23
7.34129e-23
7.33928e-23
7.33564e-23
7.33243e-23
7.33167e-23
7.33261e-23
7.333e-23
7.33258e-23
7.33311e-23
7.33519e-23
7.33731e-23
7.33798e-23
7.33712e-23
7.33511e-23
7.33268e-23
7.33161e-23
7.33318e-23
7.33603e-23
7.33767e-23
7.33758e-23
7.33677e-23
7.33534e-23
7.33309e-23
7.33166e-23
7.33243e-23
7.33353e-23
7.33208e-23
7.32881e-23
7.32728e-23
7.3274e-23
7.21264e-23
7.39958e-23
7.3008e-23
7.34243e-23
7.31415e-23
7.33014e-23
7.31695e-23
7.32285e-23
7.31646e-23
7.31993e-23
7.31799e-23
7.32019e-23
7.3196e-23
7.32167e-23
7.32361e-23
7.32678e-23
7.32806e-23
7.32727e-23
7.32414e-23
7.32133e-23
7.32046e-23
7.32154e-23
7.32248e-23
7.32224e-23
7.32139e-23
7.32098e-23
7.3211e-23
7.32193e-23
7.32382e-23
7.32598e-23
7.32645e-23
7.32457e-23
7.32177e-23
7.31979e-23
7.31906e-23
7.31874e-23
7.31789e-23
7.31686e-23
7.31725e-23
7.31984e-23
7.32296e-23
7.32413e-23
7.32292e-23
7.32107e-23
7.32014e-23
7.3201e-23
7.32045e-23
7.32121e-23
7.32241e-23
7.32322e-23
7.32266e-23
7.32082e-23
7.31891e-23
7.31848e-23
7.31947e-23
7.31978e-23
7.31767e-23
7.31449e-23
7.31322e-23
7.31246e-23
7.20122e-23
7.38311e-23
7.28722e-23
7.32781e-23
7.29892e-23
7.31589e-23
7.30389e-23
7.30958e-23
7.30141e-23
7.30277e-23
7.29985e-23
7.30317e-23
7.30553e-23
7.31074e-23
7.31391e-23
7.31554e-23
7.31355e-23
7.3099e-23
7.30627e-23
7.30545e-23
7.30695e-23
7.30845e-23
7.30803e-23
7.30704e-23
7.30731e-23
7.30841e-23
7.30857e-23
7.30792e-23
7.308e-23
7.30886e-23
7.3091e-23
7.3086e-23
7.30835e-23
7.3082e-23
7.30698e-23
7.30482e-23
7.30326e-23
7.30304e-23
7.30356e-23
7.30446e-23
7.30574e-23
7.30688e-23
7.30735e-23
7.3078e-23
7.3088e-23
7.30928e-23
7.30809e-23
7.30633e-23
7.30585e-23
7.30631e-23
7.30621e-23
7.3058e-23
7.30607e-23
7.30643e-23
7.30539e-23
7.30331e-23
7.30202e-23
7.30176e-23
7.301e-23
7.29752e-23
7.18856e-23
7.36619e-23
7.27357e-23
7.3135e-23
7.28353e-23
7.29977e-23
7.28764e-23
7.29369e-23
7.28556e-23
7.28622e-23
7.28285e-23
7.2873e-23
7.29214e-23
7.29927e-23
7.30211e-23
7.30122e-23
7.29653e-23
7.29225e-23
7.2903e-23
7.29135e-23
7.29299e-23
7.29349e-23
7.29287e-23
7.2927e-23
7.29344e-23
7.29446e-23
7.29497e-23
7.29455e-23
7.29312e-23
7.29148e-23
7.29108e-23
7.29244e-23
7.29436e-23
7.29506e-23
7.29374e-23
7.29138e-23
7.28994e-23
7.29e-23
7.29003e-23
7.2889e-23
7.28772e-23
7.28843e-23
7.29128e-23
7.29462e-23
7.2966e-23
7.29643e-23
7.2945e-23
7.29185e-23
7.2896e-23
7.28848e-23
7.28891e-23
7.29079e-23
7.29264e-23
7.29235e-23
7.28948e-23
7.28662e-23
7.2865e-23
7.28799e-23
7.28767e-23
7.28418e-23
7.17642e-23
7.34812e-23
7.2582e-23
7.29865e-23
7.26814e-23
7.28257e-23
7.26895e-23
7.27526e-23
7.26877e-23
7.27121e-23
7.26901e-23
7.27396e-23
7.27851e-23
7.28449e-23
7.28567e-23
7.28358e-23
7.27915e-23
7.2767e-23
7.27655e-23
7.27754e-23
7.27754e-23
7.27716e-23
7.27746e-23
7.27836e-23
7.27878e-23
7.27902e-23
7.27975e-23
7.27997e-23
7.2782e-23
7.27555e-23
7.2748e-23
7.27652e-23
7.27853e-23
7.27921e-23
7.27885e-23
7.27816e-23
7.2773e-23
7.27623e-23
7.27485e-23
7.27301e-23
7.27148e-23
7.27209e-23
7.2755e-23
7.27955e-23
7.28137e-23
7.28069e-23
7.27904e-23
7.277e-23
7.27445e-23
7.27264e-23
7.27319e-23
7.2753e-23
7.2762e-23
7.27487e-23
7.27282e-23
7.27172e-23
7.27166e-23
7.27186e-23
7.27204e-23
7.27279e-23
7.16513e-23
7.32954e-23
7.24142e-23
7.28233e-23
7.25185e-23
7.26508e-23
7.25003e-23
7.25611e-23
7.25143e-23
7.25705e-23
7.25732e-23
7.26202e-23
7.26355e-23
7.26578e-23
7.26507e-23
7.26417e-23
7.26293e-23
7.26305e-23
7.26302e-23
7.26235e-23
7.26109e-23
7.26081e-23
7.26161e-23
7.26244e-23
7.26253e-23
7.26252e-23
7.2628e-23
7.26285e-23
7.26216e-23
7.26116e-23
7.26054e-23
7.2605e-23
7.2608e-23
7.26144e-23
7.26256e-23
7.26351e-23
7.26298e-23
7.26074e-23
7.25834e-23
7.25729e-23
7.25758e-23
7.25862e-23
7.26012e-23
7.26162e-23
7.26242e-23
7.26235e-23
7.26185e-23
7.26111e-23
7.2602e-23
7.2595e-23
7.25915e-23
7.25843e-23
7.25688e-23
7.2558e-23
7.25638e-23
7.25732e-23
7.25662e-23
7.25513e-23
7.25578e-23
7.26016e-23
7.15285e-23
7.31106e-23
7.22455e-23
7.26454e-23
7.23398e-23
7.24751e-23
7.23247e-23
7.23838e-23
7.23445e-23
7.24209e-23
7.24408e-23
7.24811e-23
7.24647e-23
7.24528e-23
7.24364e-23
7.24497e-23
7.247e-23
7.24851e-23
7.24751e-23
7.24561e-23
7.24441e-23
7.24449e-23
7.24466e-23
7.24459e-23
7.24457e-23
7.24455e-23
7.24406e-23
7.24381e-23
7.24479e-23
7.24611e-23
7.24583e-23
7.24394e-23
7.24256e-23
7.24311e-23
7.24478e-23
7.2458e-23
7.2452e-23
7.24338e-23
7.24189e-23
7.2423e-23
7.24421e-23
7.24531e-23
7.24416e-23
7.24208e-23
7.24131e-23
7.2421e-23
7.24327e-23
7.24444e-23
7.24579e-23
7.2462e-23
7.24414e-23
7.24038e-23
7.23765e-23
7.23778e-23
7.23967e-23
7.24088e-23
7.24054e-23
7.23992e-23
7.24049e-23
7.24316e-23
7.13806e-23
7.29179e-23
7.20766e-23
7.2462e-23
7.21529e-23
7.22986e-23
7.21617e-23
7.22257e-23
7.21818e-23
7.22492e-23
7.22601e-23
7.22927e-23
7.22706e-23
7.22579e-23
7.22473e-23
7.2269e-23
7.22922e-23
7.23038e-23
7.2292e-23
7.22785e-23
7.22722e-23
7.22702e-23
7.22631e-23
7.22559e-23
7.22515e-23
7.22461e-23
7.22396e-23
7.22429e-23
7.22604e-23
7.22784e-23
7.2279e-23
7.22631e-23
7.22485e-23
7.22475e-23
7.22522e-23
7.22508e-23
7.22458e-23
7.22469e-23
7.2257e-23
7.22735e-23
7.22888e-23
7.22881e-23
7.22629e-23
7.22271e-23
7.22068e-23
7.2213e-23
7.22381e-23
7.22692e-23
7.22922e-23
7.22902e-23
7.22595e-23
7.22236e-23
7.22083e-23
7.22132e-23
7.22192e-23
7.22225e-23
7.22351e-23
7.22523e-23
7.22503e-23
7.22303e-23
7.12156e-23
7.27016e-23
7.1893e-23
7.22791e-23
7.19719e-23
7.21237e-23
7.19989e-23
7.20698e-23
7.20144e-23
7.20506e-23
7.20306e-23
7.2057e-23
7.20587e-23
7.20798e-23
7.20853e-23
7.20933e-23
7.20886e-23
7.20864e-23
7.2085e-23
7.20878e-23
7.2085e-23
7.2077e-23
7.2067e-23
7.20579e-23
7.20459e-23
7.20355e-23
7.20355e-23
7.20457e-23
7.20547e-23
7.20584e-23
7.20627e-23
7.20686e-23
7.20684e-23
7.20586e-23
7.20436e-23
7.2032e-23
7.20335e-23
7.20535e-23
7.2083e-23
7.21024e-23
7.21003e-23
7.20828e-23
7.20607e-23
7.20382e-23
7.202e-23
7.20187e-23
7.20415e-23
7.20722e-23
7.20842e-23
7.20708e-23
7.20525e-23
7.20481e-23
7.20516e-23
7.20474e-23
7.20359e-23
7.20358e-23
7.2057e-23
7.20779e-23
7.20698e-23
7.2037e-23
7.10516e-23
7.24613e-23
7.16856e-23
7.20906e-23
7.17975e-23
7.19501e-23
7.18243e-23
7.18922e-23
7.18223e-23
7.18297e-23
7.17832e-23
7.18085e-23
7.18396e-23
7.18984e-23
7.19185e-23
7.19085e-23
7.18741e-23
7.18577e-23
7.18622e-23
7.18755e-23
7.18764e-23
7.18688e-23
7.18594e-23
7.18487e-23
7.18357e-23
7.18301e-23
7.18352e-23
7.18385e-23
7.18296e-23
7.18195e-23
7.18273e-23
7.18509e-23
7.18661e-23
7.18572e-23
7.18354e-23
7.18232e-23
7.18314e-23
7.18556e-23
7.18817e-23
7.18913e-23
7.18774e-23
7.18552e-23
7.18446e-23
7.18454e-23
7.18451e-23
7.18426e-23
7.18441e-23
7.18446e-23
7.18364e-23
7.18297e-23
7.1841e-23
7.1864e-23
7.18742e-23
7.18655e-23
7.18562e-23
7.18591e-23
7.18655e-23
7.18639e-23
7.18587e-23
7.18621e-23
7.08919e-23
7.22158e-23
7.14655e-23
7.1886e-23
7.16117e-23
7.17668e-23
7.16302e-23
7.16814e-23
7.15982e-23
7.15995e-23
7.15538e-23
7.15843e-23
7.16233e-23
7.16895e-23
7.17134e-23
7.17034e-23
7.16658e-23
7.16415e-23
7.16353e-23
7.16436e-23
7.165e-23
7.16497e-23
7.16406e-23
7.16306e-23
7.16286e-23
7.16343e-23
7.16342e-23
7.16191e-23
7.1597e-23
7.15854e-23
7.15934e-23
7.16156e-23
7.1636e-23
7.16418e-23
7.16359e-23
7.16319e-23
7.16379e-23
7.16483e-23
7.16524e-23
7.1647e-23
7.1636e-23
7.16274e-23
7.16294e-23
7.16442e-23
7.16612e-23
7.1662e-23
7.16378e-23
7.16027e-23
7.15847e-23
7.15981e-23
7.16298e-23
7.1655e-23
7.16638e-23
7.16672e-23
7.16741e-23
7.16742e-23
7.16567e-23
7.16351e-23
7.16372e-23
7.16744e-23
7.0724e-23
7.19814e-23
7.12508e-23
7.16641e-23
7.13961e-23
7.15553e-23
7.14106e-23
7.14455e-23
7.13581e-23
7.13767e-23
7.13555e-23
7.13926e-23
7.14125e-23
7.14519e-23
7.14678e-23
7.14756e-23
7.14611e-23
7.14405e-23
7.14179e-23
7.14108e-23
7.14154e-23
7.14197e-23
7.14153e-23
7.14146e-23
7.14253e-23
7.14343e-23
7.14237e-23
7.13977e-23
7.13754e-23
7.13676e-23
7.13703e-23
7.1379e-23
7.13956e-23
7.14188e-23
7.14381e-23
7.14448e-23
7.14401e-23
7.14276e-23
7.14103e-23
7.13975e-23
7.13982e-23
7.14087e-23
7.14212e-23
7.14358e-23
7.14502e-23
7.14472e-23
7.14163e-23
7.13789e-23
7.1368e-23
7.13864e-23
7.14092e-23
7.14226e-23
7.14358e-23
7.14555e-23
7.14679e-23
7.14589e-23
7.14366e-23
7.14208e-23
7.1423e-23
7.14497e-23
7.05404e-23
7.17543e-23
7.10435e-23
7.14333e-23
7.11521e-23
7.13069e-23
7.11635e-23
7.12017e-23
7.1128e-23
7.11714e-23
7.11727e-23
7.12101e-23
7.12033e-23
7.12085e-23
7.12102e-23
7.12321e-23
7.12432e-23
7.12384e-23
7.12144e-23
7.11938e-23
7.11838e-23
7.11846e-23
7.11918e-23
7.12054e-23
7.1217e-23
7.12162e-23
7.12019e-23
7.11845e-23
7.11721e-23
7.11646e-23
7.11587e-23
7.1157e-23
7.11684e-23
7.11962e-23
7.12271e-23
7.12395e-23
7.12259e-23
7.11981e-23
7.1175e-23
7.11683e-23
7.11789e-23
7.1198e-23
7.12129e-23
7.12165e-23
7.12093e-23
7.11969e-23
7.11875e-23
7.11862e-23
7.11888e-23
7.11866e-23
7.1181e-23
7.11859e-23
7.12055e-23
7.12251e-23
7.12272e-23
7.12173e-23
7.12143e-23
7.12181e-23
7.12136e-23
7.12078e-23
7.0345e-23
7.15176e-23
7.08282e-23
7.11992e-23
7.08977e-23
7.10365e-23
7.09e-23
7.09629e-23
7.09168e-23
7.09761e-23
7.09792e-23
7.10088e-23
7.09897e-23
7.09809e-23
7.09704e-23
7.09866e-23
7.10044e-23
7.1018e-23
7.10109e-23
7.09896e-23
7.09652e-23
7.09591e-23
7.09738e-23
7.09919e-23
7.09936e-23
7.0983e-23
7.09762e-23
7.09772e-23
7.09763e-23
7.09677e-23
7.09572e-23
7.09537e-23
7.09607e-23
7.09772e-23
7.09963e-23
7.10042e-23
7.09921e-23
7.09699e-23
7.09576e-23
7.09625e-23
7.09758e-23
7.09879e-23
7.09913e-23
7.09784e-23
7.09542e-23
7.09443e-23
7.09665e-23
7.10011e-23
7.10105e-23
7.09878e-23
7.09627e-23
7.096e-23
7.09701e-23
7.09731e-23
7.09687e-23
7.09726e-23
7.0989e-23
7.10015e-23
7.09963e-23
7.09815e-23
7.014e-23
7.12603e-23
7.05912e-23
7.09567e-23
7.06477e-23
7.07738e-23
7.06437e-23
7.0731e-23
7.07073e-23
7.07683e-23
7.07586e-23
7.07799e-23
7.07672e-23
7.07683e-23
7.07538e-23
7.07522e-23
7.07565e-23
7.0775e-23
7.07852e-23
7.07787e-23
7.07602e-23
7.07516e-23
7.0756e-23
7.07602e-23
7.07546e-23
7.07487e-23
7.07531e-23
7.07641e-23
7.07695e-23
7.07654e-23
7.0759e-23
7.07575e-23
7.07586e-23
7.0757e-23
7.07525e-23
7.07484e-23
7.07462e-23
7.07469e-23
7.0753e-23
7.07632e-23
7.07699e-23
7.07657e-23
7.0749e-23
7.07253e-23
7.07094e-23
7.07191e-23
7.07544e-23
7.07892e-23
7.07976e-23
7.07813e-23
7.07591e-23
7.07411e-23
7.07246e-23
7.07133e-23
7.07174e-23
7.07354e-23
7.0752e-23
7.07596e-23
7.07645e-23
7.07646e-23
6.99173e-23
7.09825e-23
7.0333e-23
7.06986e-23
7.04028e-23
7.05368e-23
7.04122e-23
7.05007e-23
7.04746e-23
7.05276e-23
7.05096e-23
7.05314e-23
7.05322e-23
7.05505e-23
7.05422e-23
7.053e-23
7.05149e-23
7.05184e-23
7.05301e-23
7.0545e-23
7.05515e-23
7.05462e-23
7.05289e-23
7.05127e-23
7.05091e-23
7.05183e-23
7.05298e-23
7.05374e-23
7.05419e-23
7.05455e-23
7.05485e-23
7.05488e-23
7.05428e-23
7.05276e-23
7.05066e-23
7.04935e-23
7.05002e-23
7.0522e-23
7.05414e-23
7.05473e-23
7.05394e-23
7.05187e-23
7.04917e-23
7.04766e-23
7.04873e-23
7.05138e-23
7.05338e-23
7.05413e-23
7.05473e-23
7.05535e-23
7.05446e-23
7.05142e-23
7.04798e-23
7.04671e-23
7.04786e-23
7.04942e-23
7.05001e-23
7.05041e-23
7.05157e-23
7.05193e-23
6.96714e-23
7.06868e-23
7.0061e-23
7.04273e-23
7.01559e-23
7.03138e-23
7.01952e-23
7.02639e-23
7.02129e-23
7.02537e-23
7.02389e-23
7.027e-23
7.02805e-23
7.03091e-23
7.03122e-23
7.03047e-23
7.02788e-23
7.02612e-23
7.02615e-23
7.02867e-23
7.03118e-23
7.03121e-23
7.02862e-23
7.02637e-23
7.02651e-23
7.02826e-23
7.02948e-23
7.02957e-23
7.02948e-23
7.03003e-23
7.03085e-23
7.03106e-23
7.03018e-23
7.02837e-23
7.0263e-23
7.02518e-23
7.02601e-23
7.0283e-23
7.03004e-23
7.02969e-23
7.02748e-23
7.0248e-23
7.02338e-23
7.02444e-23
7.02729e-23
7.0293e-23
7.02883e-23
7.02751e-23
7.02774e-23
7.02904e-23
7.02898e-23
7.02694e-23
7.0247e-23
7.02382e-23
7.02378e-23
7.02367e-23
7.02373e-23
7.02423e-23
7.02452e-23
7.02322e-23
6.9411e-23
7.03751e-23
6.97795e-23
7.01504e-23
6.98999e-23
7.00747e-23
6.996e-23
7.0011e-23
6.99364e-23
6.99652e-23
6.99543e-23
6.99938e-23
7.0008e-23
7.00387e-23
7.00499e-23
7.00537e-23
7.00324e-23
7.00091e-23
6.99982e-23
7.00108e-23
7.00274e-23
7.00322e-23
7.00239e-23
7.00171e-23
7.00202e-23
7.00303e-23
7.00378e-23
7.00371e-23
7.00319e-23
7.00303e-23
7.00343e-23
7.00375e-23
7.00334e-23
7.00239e-23
7.00165e-23
7.0015e-23
7.00175e-23
7.00208e-23
7.00199e-23
7.00073e-23
6.99849e-23
6.9971e-23
6.99825e-23
7.00118e-23
7.0033e-23
7.00319e-23
7.00177e-23
7.00053e-23
6.99985e-23
6.99948e-23
6.99963e-23
7.00052e-23
7.00118e-23
7.00037e-23
6.99825e-23
6.9966e-23
6.9964e-23
6.99632e-23
6.99525e-23
6.99332e-23
6.91491e-23
7.00539e-23
6.94898e-23
6.98686e-23
6.96273e-23
6.97973e-23
6.96812e-23
6.97327e-23
6.96573e-23
6.96803e-23
6.96644e-23
6.97013e-23
6.97137e-23
6.97421e-23
6.97538e-23
6.9766e-23
6.97614e-23
6.97527e-23
6.97372e-23
6.97227e-23
6.97129e-23
6.97195e-23
6.97388e-23
6.97562e-23
6.97605e-23
6.97574e-23
6.97561e-23
6.9756e-23
6.97512e-23
6.97425e-23
6.97368e-23
6.97373e-23
6.97408e-23
6.97466e-23
6.97553e-23
6.97608e-23
6.97533e-23
6.97323e-23
6.97086e-23
6.96921e-23
6.96879e-23
6.97006e-23
6.97264e-23
6.97464e-23
6.97459e-23
6.97347e-23
6.97293e-23
6.97251e-23
6.97089e-23
6.96902e-23
6.96933e-23
6.972e-23
6.97415e-23
6.97355e-23
6.97105e-23
6.96885e-23
6.96743e-23
6.9659e-23
6.96495e-23
6.96502e-23
6.88849e-23
6.9733e-23
6.91952e-23
6.95728e-23
6.93295e-23
6.94829e-23
6.93621e-23
6.94257e-23
6.93692e-23
6.93989e-23
6.93754e-23
6.93993e-23
6.94019e-23
6.94235e-23
6.94315e-23
6.94492e-23
6.94628e-23
6.9472e-23
6.94565e-23
6.94243e-23
6.93978e-23
6.94019e-23
6.94308e-23
6.94602e-23
6.947e-23
6.94631e-23
6.94539e-23
6.94508e-23
6.9449e-23
6.94416e-23
6.94307e-23
6.94251e-23
6.94318e-23
6.94488e-23
6.94658e-23
6.94696e-23
6.94527e-23
6.94198e-23
6.93875e-23
6.93769e-23
6.93953e-23
6.94258e-23
6.94418e-23
6.94349e-23
6.94209e-23
6.94175e-23
6.94229e-23
6.94217e-23
6.94093e-23
6.93977e-23
6.93994e-23
6.94118e-23
6.94227e-23
6.94252e-23
6.94177e-23
6.93979e-23
6.93686e-23
6.93461e-23
6.93514e-23
6.93692e-23
6.86052e-23
6.94142e-23
6.8897e-23
6.92569e-23
6.90056e-23
6.91484e-23
6.9026e-23
6.90971e-23
6.9059e-23
6.91049e-23
6.90836e-23
6.9095e-23
6.90813e-23
6.90915e-23
6.90967e-23
6.91192e-23
6.91398e-23
6.91531e-23
6.91409e-23
6.91165e-23
6.90965e-23
6.90945e-23
6.91073e-23
6.91275e-23
6.91425e-23
6.91444e-23
6.91358e-23
6.91284e-23
6.91274e-23
6.91264e-23
6.91193e-23
6.91117e-23
6.91149e-23
6.91292e-23
6.91408e-23
6.91368e-23
6.91175e-23
6.90921e-23
6.90743e-23
6.90775e-23
6.91006e-23
6.91206e-23
6.91159e-23
6.90951e-23
6.90841e-23
6.90887e-23
6.90953e-23
6.90984e-23
6.91047e-23
6.91106e-23
6.91037e-23
6.90863e-23
6.90773e-23
6.90857e-23
6.90943e-23
6.90831e-23
6.90594e-23
6.90476e-23
6.90582e-23
6.90594e-23
6.83023e-23
6.9087e-23
6.8589e-23
6.89261e-23
6.86686e-23
6.88098e-23
6.86908e-23
6.87607e-23
6.87269e-23
6.87844e-23
6.8774e-23
6.87843e-23
6.87598e-23
6.87603e-23
6.87634e-23
6.87845e-23
6.87965e-23
6.88015e-23
6.8798e-23
6.87984e-23
6.87969e-23
6.87893e-23
6.87785e-23
6.87775e-23
6.87881e-23
6.88001e-23
6.88025e-23
6.87976e-23
6.8794e-23
6.87949e-23
6.87961e-23
6.8795e-23
6.87932e-23
6.87913e-23
6.8786e-23
6.87757e-23
6.8765e-23
6.87622e-23
6.87705e-23
6.87825e-23
6.87859e-23
6.87761e-23
6.87611e-23
6.8752e-23
6.8751e-23
6.87522e-23
6.87557e-23
6.87692e-23
6.87908e-23
6.88014e-23
6.87863e-23
6.87571e-23
6.87376e-23
6.87364e-23
6.87427e-23
6.8748e-23
6.87545e-23
6.87597e-23
6.87563e-23
6.87241e-23
6.79835e-23
6.87402e-23
6.82627e-23
6.85889e-23
6.83342e-23
6.84748e-23
6.83598e-23
6.84267e-23
6.83861e-23
6.84392e-23
6.84342e-23
6.84545e-23
6.8437e-23
6.84388e-23
6.84371e-23
6.84451e-23
6.84405e-23
6.84395e-23
6.84474e-23
6.84665e-23
6.84766e-23
6.84685e-23
6.84473e-23
6.843e-23
6.84278e-23
6.84401e-23
6.84542e-23
6.84585e-23
6.84533e-23
6.84502e-23
6.84562e-23
6.84638e-23
6.84597e-23
6.84414e-23
6.84202e-23
6.84095e-23
6.84154e-23
6.84361e-23
6.8459e-23
6.84637e-23
6.84416e-23
6.84123e-23
6.84028e-23
6.84122e-23
6.84187e-23
6.84167e-23
6.84213e-23
6.84383e-23
6.84535e-23
6.84543e-23
6.8444e-23
6.843e-23
6.8412e-23
6.83931e-23
6.83884e-23
6.84094e-23
6.84414e-23
6.84525e-23
6.84364e-23
6.83985e-23
6.76607e-23
6.83757e-23
6.7918e-23
6.82456e-23
6.8004e-23
6.81433e-23
6.80296e-23
6.80948e-23
6.80454e-23
6.80823e-23
6.80699e-23
6.81004e-23
6.81032e-23
6.81172e-23
6.81094e-23
6.81005e-23
6.80854e-23
6.80864e-23
6.80993e-23
6.81177e-23
6.8126e-23
6.8122e-23
6.8107e-23
6.80889e-23
6.80774e-23
6.80805e-23
6.80939e-23
6.81039e-23
6.81026e-23
6.80984e-23
6.8102e-23
6.81092e-23
6.81047e-23
6.80843e-23
6.80626e-23
6.80584e-23
6.80769e-23
6.81044e-23
6.81185e-23
6.81062e-23
6.80772e-23
6.80555e-23
6.80555e-23
6.80685e-23
6.80798e-23
6.80869e-23
6.80937e-23
6.80956e-23
6.80888e-23
6.80828e-23
6.8088e-23
6.80952e-23
6.80858e-23
6.80645e-23
6.80571e-23
6.80757e-23
6.81004e-23
6.81071e-23
6.81026e-23
6.80969e-23
6.73369e-23
6.80028e-23
6.75635e-23
6.78902e-23
6.76656e-23
6.78088e-23
6.76957e-23
6.77556e-23
6.76994e-23
6.77241e-23
6.77014e-23
6.77321e-23
6.7747e-23
6.77715e-23
6.77642e-23
6.77528e-23
6.77409e-23
6.77448e-23
6.77501e-23
6.77539e-23
6.77536e-23
6.77533e-23
6.77502e-23
6.77438e-23
6.77348e-23
6.77281e-23
6.77273e-23
6.7732e-23
6.77375e-23
6.77398e-23
6.77385e-23
6.77349e-23
6.77289e-23
6.77216e-23
6.77177e-23
6.7724e-23
6.77397e-23
6.77504e-23
6.77431e-23
6.77239e-23
6.77113e-23
6.77109e-23
6.77138e-23
6.77185e-23
6.77324e-23
6.77499e-23
6.77523e-23
6.77344e-23
6.77146e-23
6.77122e-23
6.77257e-23
6.77399e-23
6.77449e-23
6.77443e-23
6.77427e-23
6.77381e-23
6.77328e-23
6.77371e-23
6.77584e-23
6.77865e-23
6.70051e-23
6.76235e-23
6.7205e-23
6.75217e-23
6.73092e-23
6.74596e-23
6.73487e-23
6.73997e-23
6.73392e-23
6.7365e-23
6.73417e-23
6.73636e-23
6.73676e-23
6.73886e-23
6.73914e-23
6.73987e-23
6.74005e-23
6.74021e-23
6.73929e-23
6.73817e-23
6.73733e-23
6.73728e-23
6.73773e-23
6.73834e-23
6.73833e-23
6.73727e-23
6.73576e-23
6.73517e-23
6.73594e-23
6.73688e-23
6.73659e-23
6.73535e-23
6.73468e-23
6.73549e-23
6.73721e-23
6.73854e-23
6.73848e-23
6.73694e-23
6.735e-23
6.73426e-23
6.73514e-23
6.7363e-23
6.73652e-23
6.73651e-23
6.73738e-23
6.73836e-23
6.73784e-23
6.73614e-23
6.73507e-23
6.73519e-23
6.73573e-23
6.73668e-23
6.73865e-23
6.74083e-23
6.74098e-23
6.73854e-23
6.73623e-23
6.73675e-23
6.73957e-23
6.74264e-23
6.66563e-23
6.72297e-23
6.68388e-23
6.7146e-23
6.69371e-23
6.70854e-23
6.69756e-23
6.70221e-23
6.69632e-23
6.69981e-23
6.69827e-23
6.6995e-23
6.69761e-23
6.69827e-23
6.69954e-23
6.70264e-23
6.7043e-23
6.70432e-23
6.70255e-23
6.70069e-23
6.69931e-23
6.69895e-23
6.69946e-23
6.7004e-23
6.70074e-23
6.69988e-23
6.69829e-23
6.69729e-23
6.69752e-23
6.69822e-23
6.6982e-23
6.69745e-23
6.69723e-23
6.69854e-23
6.70065e-23
6.70155e-23
6.70008e-23
6.69755e-23
6.69635e-23
6.69725e-23
6.69885e-23
6.69981e-23
6.70017e-23
6.70021e-23
6.69961e-23
6.69849e-23
6.69791e-23
6.69845e-23
6.69923e-23
6.6991e-23
6.69844e-23
6.69891e-23
6.70103e-23
6.70313e-23
6.70324e-23
6.70163e-23
6.70037e-23
6.7003e-23
6.70078e-23
6.70165e-23
6.62853e-23
6.68161e-23
6.64583e-23
6.67643e-23
6.65549e-23
6.66864e-23
6.65726e-23
6.66235e-23
6.65743e-23
6.66157e-23
6.66043e-23
6.66134e-23
6.65838e-23
6.65802e-23
6.65916e-23
6.66278e-23
6.66513e-23
6.66582e-23
6.66458e-23
6.66287e-23
6.66127e-23
6.66054e-23
6.66052e-23
6.66075e-23
6.66064e-23
6.66026e-23
6.65982e-23
6.65935e-23
6.65881e-23
6.65856e-23
6.6589e-23
6.65963e-23
6.66031e-23
6.66087e-23
6.66115e-23
6.66065e-23
6.65939e-23
6.65852e-23
6.65902e-23
6.66024e-23
6.66104e-23
6.66142e-23
6.66182e-23
6.66147e-23
6.65958e-23
6.6576e-23
6.65779e-23
6.65991e-23
6.66149e-23
6.6614e-23
6.66084e-23
6.66094e-23
6.66126e-23
6.66138e-23
6.6619e-23
6.66319e-23
6.66402e-23
6.66277e-23
6.66047e-23
6.65941e-23
6.5893e-23
6.63898e-23
6.60612e-23
6.63662e-23
6.61582e-23
6.62721e-23
6.6153e-23
6.62095e-23
6.61703e-23
6.62111e-23
6.61954e-23
6.62076e-23
6.61896e-23
6.61909e-23
6.61912e-23
6.62103e-23
6.62282e-23
6.62445e-23
6.62462e-23
6.62386e-23
6.62256e-23
6.62151e-23
6.6206e-23
6.61978e-23
6.6192e-23
6.61931e-23
6.6199e-23
6.62005e-23
6.61932e-23
6.61863e-23
6.61919e-23
6.62082e-23
6.62197e-23
6.62137e-23
6.61941e-23
6.61783e-23
6.61806e-23
6.61975e-23
6.62125e-23
6.62156e-23
6.62126e-23
6.62116e-23
6.62092e-23
6.61985e-23
6.6184e-23
6.61778e-23
6.61836e-23
6.61944e-23
6.62039e-23
6.62124e-23
6.62184e-23
6.62135e-23
6.6196e-23
6.61838e-23
6.61962e-23
6.62254e-23
6.62415e-23
6.62278e-23
6.62034e-23
6.61891e-23
6.54864e-23
6.59601e-23
6.56478e-23
6.59386e-23
6.57369e-23
6.58497e-23
6.57329e-23
6.57866e-23
6.57456e-23
6.57806e-23
6.57607e-23
6.57795e-23
6.57812e-23
6.57965e-23
6.57903e-23
6.57889e-23
6.57915e-23
6.58069e-23
6.58191e-23
6.58249e-23
6.58201e-23
6.58082e-23
6.57917e-23
6.57785e-23
6.57741e-23
6.57778e-23
6.57828e-23
6.5784e-23
6.5782e-23
6.57819e-23
6.57882e-23
6.5799e-23
6.58033e-23
6.57908e-23
6.57678e-23
6.57566e-23
6.577e-23
6.57944e-23
6.58067e-23
6.58027e-23
6.57943e-23
6.57863e-23
6.57757e-23
6.57681e-23
6.57729e-23
6.57827e-23
6.57808e-23
6.57692e-23
6.57681e-23
6.5783e-23
6.57949e-23
6.57882e-23
6.57717e-23
6.57654e-23
6.57752e-23
6.57902e-23
6.58e-23
6.58034e-23
6.58026e-23
6.5795e-23
6.50723e-23
6.55238e-23
6.5215e-23
6.54807e-23
6.52889e-23
6.54155e-23
6.53112e-23
6.53563e-23
6.53016e-23
6.53286e-23
6.53115e-23
6.53371e-23
6.53475e-23
6.53716e-23
6.53711e-23
6.53658e-23
6.53548e-23
6.53567e-23
6.53663e-23
6.53799e-23
6.53838e-23
6.53756e-23
6.53608e-23
6.53515e-23
6.53506e-23
6.53515e-23
6.53484e-23
6.53457e-23
6.53501e-23
6.53593e-23
6.53649e-23
6.53621e-23
6.53531e-23
6.53433e-23
6.53389e-23
6.53435e-23
6.53537e-23
6.5362e-23
6.53644e-23
6.53612e-23
6.53521e-23
6.53386e-23
6.53308e-23
6.53385e-23
6.5356e-23
6.53635e-23
6.53508e-23
6.5331e-23
6.53228e-23
6.53276e-23
6.53336e-23
6.53375e-23
6.53441e-23
6.53499e-23
6.53452e-23
6.53345e-23
6.53371e-23
6.53586e-23
6.53792e-23
6.53833e-23
6.46491e-23
6.50659e-23
6.47595e-23
6.5005e-23
6.48239e-23
6.49604e-23
6.48692e-23
6.4911e-23
6.48465e-23
6.48675e-23
6.48555e-23
6.48836e-23
6.48881e-23
6.49088e-23
6.49177e-23
6.49246e-23
6.49138e-23
6.49037e-23
6.49001e-23
6.49076e-23
6.4914e-23
6.49155e-23
6.49134e-23
6.49125e-23
6.49105e-23
6.49043e-23
6.48958e-23
6.48928e-23
6.48989e-23
6.49083e-23
6.49098e-23
6.48988e-23
6.4885e-23
6.48845e-23
6.49001e-23
6.49152e-23
6.49144e-23
6.4903e-23
6.48953e-23
6.48927e-23
6.48866e-23
6.48803e-23
6.48865e-23
6.49031e-23
6.49119e-23
6.49047e-23
6.48917e-23
6.48815e-23
6.48701e-23
6.48574e-23
6.48561e-23
6.48747e-23
6.48998e-23
6.4908e-23
6.48935e-23
6.48751e-23
6.48748e-23
6.48933e-23
6.49139e-23
6.49313e-23
6.42041e-23
6.45755e-23
6.42841e-23
6.45243e-23
6.4352e-23
6.44812e-23
6.43926e-23
6.44399e-23
6.43838e-23
6.44072e-23
6.43949e-23
6.44173e-23
6.44109e-23
6.44211e-23
6.44302e-23
6.44495e-23
6.44531e-23
6.44462e-23
6.44314e-23
6.44231e-23
6.44241e-23
6.44352e-23
6.44478e-23
6.44528e-23
6.4446e-23
6.44342e-23
6.44273e-23
6.44283e-23
6.44315e-23
6.44317e-23
6.44268e-23
6.44187e-23
6.44145e-23
6.44225e-23
6.44394e-23
6.44495e-23
6.44432e-23
6.44273e-23
6.44141e-23
6.44079e-23
6.44099e-23
6.44216e-23
6.44369e-23
6.44418e-23
6.44309e-23
6.4417e-23
6.44135e-23
6.44138e-23
6.44041e-23
6.43891e-23
6.43882e-23
6.44055e-23