/*--------------------------------*- C++ -*----------------------------------*\
| =========                 |                                                 |
| \\      /  F ield         | foam-extend: Open Source CFD                    |
|  \\    /   O peration     | Version:     4.0                                |
|   \\  /    A nd           | Web:         http://www.foam-extend.org         |
|    \\/     M anipulation  |                                                 |
\*---------------------------------------------------------------------------*/
FoamFile
{
    version     2.0;
    format      ascii;
    class       volScalarField;
    location    "1890";
    object      cMinus;
}
// * * * * * * * * * * * * * * * * * * * * * * * * * * * * * * * * * * * * * //

dimensions      [0 0 0 0 0 0 0];

internalField   nonuniform List<scalar> 
6960
(
9.66595e-24
9.6712e-24
9.67221e-24
9.67235e-24
9.6723e-24
9.67221e-24
9.67213e-24
9.67209e-24
9.67208e-24
9.6721e-24
9.67215e-24
9.67222e-24
9.67231e-24
9.6724e-24
9.67251e-24
9.67262e-24
9.67273e-24
9.67283e-24
9.67294e-24
9.67304e-24
9.67313e-24
9.67322e-24
9.6733e-24
9.67337e-24
9.67343e-24
9.67348e-24
9.67352e-24
9.67355e-24
9.67357e-24
9.67358e-24
9.67358e-24
9.67357e-24
9.67355e-24
9.67352e-24
9.67348e-24
9.67343e-24
9.67337e-24
9.6733e-24
9.67322e-24
9.67313e-24
9.67304e-24
9.67294e-24
9.67283e-24
9.67273e-24
9.67262e-24
9.67251e-24
9.6724e-24
9.67231e-24
9.67222e-24
9.67215e-24
9.6721e-24
9.67208e-24
9.67209e-24
9.67213e-24
9.67221e-24
9.6723e-24
9.67235e-24
9.67221e-24
9.6712e-24
9.66595e-24
3.76567e-23
3.76784e-23
3.7684e-23
3.76862e-23
3.76876e-23
3.76887e-23
3.76898e-23
3.76909e-23
3.76921e-23
3.76932e-23
3.76944e-23
3.76955e-23
3.76966e-23
3.76977e-23
3.76988e-23
3.76997e-23
3.77006e-23
3.77015e-23
3.77023e-23
3.7703e-23
3.77037e-23
3.77042e-23
3.77048e-23
3.77052e-23
3.77056e-23
3.77059e-23
3.77062e-23
3.77064e-23
3.77065e-23
3.77066e-23
3.77066e-23
3.77065e-23
3.77064e-23
3.77062e-23
3.77059e-23
3.77056e-23
3.77052e-23
3.77048e-23
3.77042e-23
3.77037e-23
3.7703e-23
3.77023e-23
3.77015e-23
3.77006e-23
3.76997e-23
3.76988e-23
3.76977e-23
3.76966e-23
3.76955e-23
3.76944e-23
3.76932e-23
3.76921e-23
3.76909e-23
3.76898e-23
3.76887e-23
3.76876e-23
3.76862e-23
3.7684e-23
3.76784e-23
3.76567e-23
1.06231e-22
1.06297e-22
1.06318e-22
1.06329e-22
1.06339e-22
1.06347e-22
1.06354e-22
1.06362e-22
1.06369e-22
1.06375e-22
1.06382e-22
1.06388e-22
1.06394e-22
1.06399e-22
1.06404e-22
1.06408e-22
1.06412e-22
1.06416e-22
1.0642e-22
1.06423e-22
1.06426e-22
1.06428e-22
1.0643e-22
1.06432e-22
1.06434e-22
1.06435e-22
1.06436e-22
1.06437e-22
1.06437e-22
1.06438e-22
1.06438e-22
1.06437e-22
1.06437e-22
1.06436e-22
1.06435e-22
1.06434e-22
1.06432e-22
1.0643e-22
1.06428e-22
1.06426e-22
1.06423e-22
1.0642e-22
1.06416e-22
1.06412e-22
1.06408e-22
1.06404e-22
1.06399e-22
1.06394e-22
1.06388e-22
1.06382e-22
1.06375e-22
1.06369e-22
1.06362e-22
1.06354e-22
1.06347e-22
1.06339e-22
1.06329e-22
1.06318e-22
1.06297e-22
1.06231e-22
2.74372e-22
2.74554e-22
2.74624e-22
2.74671e-22
2.7471e-22
2.74746e-22
2.74779e-22
2.74811e-22
2.74841e-22
2.74868e-22
2.74894e-22
2.74919e-22
2.74941e-22
2.74961e-22
2.7498e-22
2.74998e-22
2.75013e-22
2.75027e-22
2.7504e-22
2.75051e-22
2.75061e-22
2.7507e-22
2.75078e-22
2.75084e-22
2.7509e-22
2.75095e-22
2.75098e-22
2.75101e-22
2.75103e-22
2.75103e-22
2.75103e-22
2.75103e-22
2.75101e-22
2.75098e-22
2.75095e-22
2.7509e-22
2.75084e-22
2.75078e-22
2.7507e-22
2.75061e-22
2.75051e-22
2.7504e-22
2.75027e-22
2.75013e-22
2.74998e-22
2.7498e-22
2.74961e-22
2.74941e-22
2.74919e-22
2.74894e-22
2.74868e-22
2.74841e-22
2.74811e-22
2.74779e-22
2.74746e-22
2.7471e-22
2.74671e-22
2.74624e-22
2.74554e-22
2.74372e-22
6.94261e-22
6.94757e-22
6.94978e-22
6.95142e-22
6.95286e-22
6.95419e-22
6.95543e-22
6.95658e-22
6.95766e-22
6.95866e-22
6.95959e-22
6.96044e-22
6.96123e-22
6.96194e-22
6.96259e-22
6.96318e-22
6.96372e-22
6.9642e-22
6.96462e-22
6.965e-22
6.96534e-22
6.96563e-22
6.96588e-22
6.9661e-22
6.96628e-22
6.96643e-22
6.96655e-22
6.96664e-22
6.96669e-22
6.96672e-22
6.96672e-22
6.96669e-22
6.96664e-22
6.96655e-22
6.96643e-22
6.96628e-22
6.9661e-22
6.96588e-22
6.96563e-22
6.96534e-22
6.965e-22
6.96462e-22
6.9642e-22
6.96372e-22
6.96318e-22
6.96259e-22
6.96194e-22
6.96123e-22
6.96044e-22
6.95959e-22
6.95866e-22
6.95766e-22
6.95658e-22
6.95543e-22
6.95419e-22
6.95286e-22
6.95142e-22
6.94978e-22
6.94757e-22
6.94261e-22
1.76597e-21
1.76733e-21
1.76801e-21
1.76855e-21
1.76904e-21
1.7695e-21
1.76992e-21
1.77031e-21
1.77067e-21
1.77101e-21
1.77132e-21
1.7716e-21
1.77186e-21
1.7721e-21
1.77231e-21
1.7725e-21
1.77268e-21
1.77283e-21
1.77297e-21
1.77309e-21
1.7732e-21
1.77329e-21
1.77337e-21
1.77344e-21
1.7735e-21
1.77355e-21
1.77358e-21
1.77361e-21
1.77363e-21
1.77364e-21
1.77364e-21
1.77363e-21
1.77361e-21
1.77358e-21
1.77355e-21
1.7735e-21
1.77344e-21
1.77337e-21
1.77329e-21
1.7732e-21
1.77309e-21
1.77297e-21
1.77283e-21
1.77268e-21
1.7725e-21
1.77231e-21
1.7721e-21
1.77186e-21
1.7716e-21
1.77132e-21
1.77101e-21
1.77067e-21
1.77031e-21
1.76992e-21
1.7695e-21
1.76904e-21
1.76855e-21
1.76801e-21
1.76733e-21
1.76597e-21
4.56433e-21
4.5681e-21
4.5702e-21
4.57195e-21
4.57354e-21
4.57503e-21
4.5764e-21
4.57768e-21
4.57887e-21
4.57996e-21
4.58096e-21
4.58187e-21
4.5827e-21
4.58346e-21
4.58414e-21
4.58475e-21
4.5853e-21
4.58579e-21
4.58622e-21
4.58661e-21
4.58695e-21
4.58724e-21
4.58749e-21
4.58771e-21
4.58789e-21
4.58804e-21
4.58815e-21
4.58824e-21
4.5883e-21
4.58832e-21
4.58832e-21
4.5883e-21
4.58824e-21
4.58815e-21
4.58804e-21
4.58789e-21
4.58771e-21
4.58749e-21
4.58724e-21
4.58695e-21
4.58661e-21
4.58622e-21
4.58579e-21
4.5853e-21
4.58475e-21
4.58414e-21
4.58346e-21
4.5827e-21
4.58187e-21
4.58096e-21
4.57996e-21
4.57887e-21
4.57768e-21
4.5764e-21
4.57503e-21
4.57354e-21
4.57195e-21
4.5702e-21
4.5681e-21
4.56433e-21
1.20428e-20
1.20534e-20
1.20599e-20
1.20654e-20
1.20705e-20
1.20753e-20
1.20797e-20
1.20838e-20
1.20876e-20
1.20911e-20
1.20943e-20
1.20972e-20
1.20998e-20
1.21022e-20
1.21044e-20
1.21063e-20
1.2108e-20
1.21096e-20
1.21109e-20
1.21121e-20
1.21132e-20
1.21141e-20
1.21149e-20
1.21156e-20
1.21161e-20
1.21166e-20
1.21169e-20
1.21172e-20
1.21174e-20
1.21175e-20
1.21175e-20
1.21174e-20
1.21172e-20
1.21169e-20
1.21166e-20
1.21161e-20
1.21156e-20
1.21149e-20
1.21141e-20
1.21132e-20
1.21121e-20
1.21109e-20
1.21096e-20
1.2108e-20
1.21063e-20
1.21044e-20
1.21022e-20
1.20998e-20
1.20972e-20
1.20943e-20
1.20911e-20
1.20876e-20
1.20838e-20
1.20797e-20
1.20753e-20
1.20705e-20
1.20654e-20
1.20599e-20
1.20534e-20
1.20428e-20
3.25046e-20
3.25353e-20
3.25552e-20
3.25728e-20
3.25891e-20
3.26044e-20
3.26185e-20
3.26316e-20
3.26436e-20
3.26547e-20
3.26648e-20
3.2674e-20
3.26824e-20
3.26899e-20
3.26967e-20
3.27028e-20
3.27083e-20
3.27131e-20
3.27174e-20
3.27212e-20
3.27245e-20
3.27274e-20
3.27298e-20
3.27319e-20
3.27337e-20
3.27351e-20
3.27362e-20
3.27371e-20
3.27376e-20
3.27379e-20
3.27379e-20
3.27376e-20
3.27371e-20
3.27362e-20
3.27351e-20
3.27337e-20
3.27319e-20
3.27298e-20
3.27274e-20
3.27245e-20
3.27212e-20
3.27174e-20
3.27131e-20
3.27083e-20
3.27028e-20
3.26967e-20
3.26899e-20
3.26824e-20
3.2674e-20
3.26648e-20
3.26547e-20
3.26436e-20
3.26316e-20
3.26185e-20
3.26044e-20
3.25891e-20
3.25728e-20
3.25552e-20
3.25353e-20
3.25046e-20
8.98414e-20
8.99317e-20
8.99937e-20
9.00496e-20
9.01019e-20
9.01507e-20
9.0196e-20
9.02379e-20
9.02765e-20
9.03118e-20
9.03441e-20
9.03734e-20
9.04e-20
9.0424e-20
9.04455e-20
9.04649e-20
9.04821e-20
9.04974e-20
9.0511e-20
9.05229e-20
9.05333e-20
9.05424e-20
9.05502e-20
9.05568e-20
9.05623e-20
9.05668e-20
9.05703e-20
9.0573e-20
9.05747e-20
9.05755e-20
9.05755e-20
9.05747e-20
9.0573e-20
9.05703e-20
9.05668e-20
9.05623e-20
9.05568e-20
9.05502e-20
9.05424e-20
9.05333e-20
9.05229e-20
9.0511e-20
9.04974e-20
9.04821e-20
9.04649e-20
9.04455e-20
9.0424e-20
9.04e-20
9.03734e-20
9.03441e-20
9.03118e-20
9.02765e-20
9.02379e-20
9.0196e-20
9.01507e-20
9.01019e-20
9.00496e-20
8.99937e-20
8.99317e-20
8.98414e-20
2.54424e-19
2.54696e-19
2.54891e-19
2.55071e-19
2.5524e-19
2.55397e-19
2.55544e-19
2.55679e-19
2.55803e-19
2.55917e-19
2.56021e-19
2.56115e-19
2.562e-19
2.56277e-19
2.56346e-19
2.56408e-19
2.56464e-19
2.56513e-19
2.56556e-19
2.56594e-19
2.56627e-19
2.56656e-19
2.56681e-19
2.56702e-19
2.5672e-19
2.56734e-19
2.56745e-19
2.56753e-19
2.56759e-19
2.56762e-19
2.56762e-19
2.56759e-19
2.56753e-19
2.56745e-19
2.56734e-19
2.5672e-19
2.56702e-19
2.56681e-19
2.56656e-19
2.56627e-19
2.56594e-19
2.56556e-19
2.56513e-19
2.56464e-19
2.56408e-19
2.56346e-19
2.56277e-19
2.562e-19
2.56115e-19
2.56021e-19
2.55917e-19
2.55803e-19
2.55679e-19
2.55544e-19
2.55397e-19
2.5524e-19
2.55071e-19
2.54891e-19
2.54696e-19
2.54424e-19
7.38469e-19
7.39302e-19
7.39931e-19
7.40515e-19
7.41065e-19
7.4158e-19
7.42058e-19
7.42499e-19
7.42904e-19
7.43276e-19
7.43614e-19
7.43921e-19
7.44198e-19
7.44449e-19
7.44673e-19
7.44874e-19
7.45053e-19
7.45212e-19
7.45353e-19
7.45476e-19
7.45584e-19
7.45677e-19
7.45758e-19
7.45826e-19
7.45882e-19
7.45929e-19
7.45965e-19
7.45992e-19
7.46009e-19
7.46018e-19
7.46018e-19
7.46009e-19
7.45992e-19
7.45965e-19
7.45929e-19
7.45882e-19
7.45826e-19
7.45758e-19
7.45677e-19
7.45584e-19
7.45476e-19
7.45353e-19
7.45212e-19
7.45053e-19
7.44874e-19
7.44673e-19
7.44449e-19
7.44198e-19
7.43921e-19
7.43614e-19
7.43276e-19
7.42904e-19
7.42499e-19
7.42058e-19
7.4158e-19
7.41065e-19
7.40515e-19
7.39931e-19
7.39302e-19
7.38469e-19
2.19727e-18
2.19989e-18
2.20194e-18
2.20387e-18
2.2057e-18
2.2074e-18
2.20898e-18
2.21044e-18
2.21179e-18
2.21301e-18
2.21413e-18
2.21514e-18
2.21606e-18
2.21689e-18
2.21763e-18
2.21829e-18
2.21888e-18
2.2194e-18
2.21987e-18
2.22027e-18
2.22063e-18
2.22093e-18
2.2212e-18
2.22142e-18
2.22161e-18
2.22176e-18
2.22188e-18
2.22197e-18
2.22202e-18
2.22205e-18
2.22205e-18
2.22202e-18
2.22197e-18
2.22188e-18
2.22176e-18
2.22161e-18
2.22142e-18
2.2212e-18
2.22093e-18
2.22063e-18
2.22027e-18
2.21987e-18
2.2194e-18
2.21888e-18
2.21829e-18
2.21763e-18
2.21689e-18
2.21606e-18
2.21514e-18
2.21413e-18
2.21301e-18
2.21179e-18
2.21044e-18
2.20898e-18
2.2074e-18
2.2057e-18
2.20387e-18
2.20194e-18
2.19989e-18
2.19727e-18
6.70286e-18
6.71127e-18
6.71809e-18
6.72456e-18
6.73069e-18
6.73643e-18
6.74176e-18
6.74667e-18
6.75119e-18
6.75531e-18
6.75907e-18
6.76248e-18
6.76555e-18
6.76832e-18
6.77081e-18
6.77303e-18
6.77501e-18
6.77676e-18
6.77831e-18
6.77967e-18
6.78085e-18
6.78188e-18
6.78276e-18
6.78351e-18
6.78413e-18
6.78464e-18
6.78504e-18
6.78533e-18
6.78552e-18
6.78562e-18
6.78562e-18
6.78552e-18
6.78533e-18
6.78504e-18
6.78464e-18
6.78413e-18
6.78351e-18
6.78276e-18
6.78188e-18
6.78085e-18
6.77967e-18
6.77831e-18
6.77676e-18
6.77501e-18
6.77303e-18
6.77081e-18
6.76832e-18
6.76555e-18
6.76248e-18
6.75907e-18
6.75531e-18
6.75119e-18
6.74667e-18
6.74176e-18
6.73643e-18
6.73069e-18
6.72456e-18
6.71809e-18
6.71127e-18
6.70286e-18
2.09635e-17
2.09912e-17
2.10143e-17
2.10364e-17
2.10574e-17
2.1077e-17
2.10953e-17
2.11121e-17
2.11276e-17
2.11417e-17
2.11545e-17
2.11662e-17
2.11767e-17
2.11861e-17
2.11946e-17
2.12022e-17
2.1209e-17
2.12149e-17
2.12202e-17
2.12249e-17
2.12289e-17
2.12324e-17
2.12354e-17
2.12379e-17
2.12401e-17
2.12418e-17
2.12431e-17
2.12441e-17
2.12448e-17
2.12451e-17
2.12451e-17
2.12448e-17
2.12441e-17
2.12431e-17
2.12418e-17
2.12401e-17
2.12379e-17
2.12354e-17
2.12324e-17
2.12289e-17
2.12249e-17
2.12202e-17
2.12149e-17
2.1209e-17
2.12022e-17
2.11946e-17
2.11861e-17
2.11767e-17
2.11662e-17
2.11545e-17
2.11417e-17
2.11276e-17
2.11121e-17
2.10953e-17
2.1077e-17
2.10574e-17
2.10364e-17
2.10143e-17
2.09912e-17
2.09635e-17
6.72136e-17
6.73067e-17
6.73866e-17
6.74635e-17
6.75367e-17
6.76052e-17
6.76689e-17
6.77276e-17
6.77814e-17
6.78306e-17
6.78754e-17
6.79159e-17
6.79526e-17
6.79855e-17
6.8015e-17
6.80414e-17
6.80649e-17
6.80857e-17
6.8104e-17
6.81201e-17
6.81341e-17
6.81463e-17
6.81567e-17
6.81656e-17
6.81729e-17
6.81789e-17
6.81836e-17
6.8187e-17
6.81893e-17
6.81905e-17
6.81905e-17
6.81893e-17
6.8187e-17
6.81836e-17
6.81789e-17
6.81729e-17
6.81656e-17
6.81567e-17
6.81463e-17
6.81341e-17
6.81201e-17
6.8104e-17
6.80857e-17
6.80649e-17
6.80414e-17
6.8015e-17
6.79855e-17
6.79526e-17
6.79159e-17
6.78754e-17
6.78306e-17
6.77814e-17
6.77276e-17
6.76689e-17
6.76052e-17
6.75367e-17
6.74635e-17
6.73866e-17
6.73067e-17
6.72136e-17
2.20877e-16
2.21198e-16
2.21479e-16
2.21752e-16
2.22012e-16
2.22256e-16
2.22482e-16
2.22691e-16
2.22882e-16
2.23057e-16
2.23216e-16
2.2336e-16
2.2349e-16
2.23606e-16
2.23711e-16
2.23805e-16
2.23888e-16
2.23962e-16
2.24027e-16
2.24084e-16
2.24133e-16
2.24176e-16
2.24213e-16
2.24245e-16
2.24271e-16
2.24292e-16
2.24308e-16
2.24321e-16
2.24329e-16
2.24333e-16
2.24333e-16
2.24329e-16
2.24321e-16
2.24308e-16
2.24292e-16
2.24271e-16
2.24245e-16
2.24213e-16
2.24176e-16
2.24133e-16
2.24084e-16
2.24027e-16
2.23962e-16
2.23888e-16
2.23805e-16
2.23711e-16
2.23606e-16
2.2349e-16
2.2336e-16
2.23216e-16
2.23057e-16
2.22882e-16
2.22691e-16
2.22482e-16
2.22256e-16
2.22012e-16
2.21752e-16
2.21479e-16
2.21198e-16
2.20877e-16
7.437e-16
7.44826e-16
7.4584e-16
7.46827e-16
7.47768e-16
7.48651e-16
7.4947e-16
7.50226e-16
7.50919e-16
7.51552e-16
7.52127e-16
7.52648e-16
7.53118e-16
7.53541e-16
7.5392e-16
7.54258e-16
7.54559e-16
7.54825e-16
7.5506e-16
7.55266e-16
7.55445e-16
7.55601e-16
7.55734e-16
7.55847e-16
7.55941e-16
7.56017e-16
7.56077e-16
7.56121e-16
7.5615e-16
7.56165e-16
7.56165e-16
7.5615e-16
7.56121e-16
7.56077e-16
7.56017e-16
7.55941e-16
7.55847e-16
7.55734e-16
7.55601e-16
7.55445e-16
7.55266e-16
7.5506e-16
7.54825e-16
7.54559e-16
7.54258e-16
7.5392e-16
7.53541e-16
7.53118e-16
7.52648e-16
7.52127e-16
7.51552e-16
7.50919e-16
7.50226e-16
7.4947e-16
7.48651e-16
7.47768e-16
7.46827e-16
7.4584e-16
7.44826e-16
7.437e-16
2.56437e-15
2.56842e-15
2.57214e-15
2.57578e-15
2.57925e-15
2.58251e-15
2.58554e-15
2.58833e-15
2.59088e-15
2.59322e-15
2.59534e-15
2.59727e-15
2.599e-15
2.60056e-15
2.60196e-15
2.6032e-15
2.60431e-15
2.60529e-15
2.60616e-15
2.60691e-15
2.60758e-15
2.60815e-15
2.60864e-15
2.60905e-15
2.6094e-15
2.60968e-15
2.6099e-15
2.61006e-15
2.61017e-15
2.61022e-15
2.61022e-15
2.61017e-15
2.61006e-15
2.6099e-15
2.60968e-15
2.6094e-15
2.60905e-15
2.60864e-15
2.60815e-15
2.60758e-15
2.60691e-15
2.60616e-15
2.60529e-15
2.60431e-15
2.6032e-15
2.60196e-15
2.60056e-15
2.599e-15
2.59727e-15
2.59534e-15
2.59322e-15
2.59088e-15
2.58833e-15
2.58554e-15
2.58251e-15
2.57925e-15
2.57578e-15
2.57214e-15
2.56842e-15
2.56437e-15
9.04904e-15
9.06393e-15
9.07785e-15
9.09153e-15
9.10459e-15
9.11685e-15
9.12824e-15
9.13873e-15
9.14835e-15
9.15713e-15
9.16511e-15
9.17234e-15
9.17886e-15
9.18472e-15
9.18996e-15
9.19464e-15
9.1988e-15
9.20249e-15
9.20574e-15
9.20858e-15
9.21107e-15
9.21321e-15
9.21505e-15
9.21661e-15
9.21791e-15
9.21896e-15
9.21979e-15
9.2204e-15
9.2208e-15
9.221e-15
9.221e-15
9.2208e-15
9.2204e-15
9.21979e-15
9.21896e-15
9.21791e-15
9.21661e-15
9.21505e-15
9.21321e-15
9.21107e-15
9.20858e-15
9.20574e-15
9.20249e-15
9.1988e-15
9.19464e-15
9.18996e-15
9.18472e-15
9.17886e-15
9.17234e-15
9.16511e-15
9.15713e-15
9.14835e-15
9.13873e-15
9.12824e-15
9.11685e-15
9.10459e-15
9.09153e-15
9.07785e-15
9.06393e-15
9.04904e-15
3.26495e-14
3.27053e-14
3.27584e-14
3.28107e-14
3.28608e-14
3.29077e-14
3.29513e-14
3.29915e-14
3.30284e-14
3.3062e-14
3.30926e-14
3.31202e-14
3.31452e-14
3.31676e-14
3.31877e-14
3.32056e-14
3.32215e-14
3.32356e-14
3.3248e-14
3.32589e-14
3.32684e-14
3.32766e-14
3.32836e-14
3.32895e-14
3.32945e-14
3.32985e-14
3.33017e-14
3.3304e-14
3.33055e-14
3.33063e-14
3.33063e-14
3.33055e-14
3.3304e-14
3.33017e-14
3.32985e-14
3.32945e-14
3.32895e-14
3.32836e-14
3.32766e-14
3.32684e-14
3.32589e-14
3.3248e-14
3.32356e-14
3.32215e-14
3.32056e-14
3.31877e-14
3.31676e-14
3.31452e-14
3.31202e-14
3.30926e-14
3.3062e-14
3.30284e-14
3.29915e-14
3.29513e-14
3.29077e-14
3.28608e-14
3.28107e-14
3.27584e-14
3.27053e-14
3.26495e-14
1.20311e-13
1.20525e-13
1.20731e-13
1.20934e-13
1.21129e-13
1.21312e-13
1.21482e-13
1.21639e-13
1.21782e-13
1.21913e-13
1.22032e-13
1.2214e-13
1.22237e-13
1.22324e-13
1.22403e-13
1.22472e-13
1.22534e-13
1.22589e-13
1.22637e-13
1.2268e-13
1.22717e-13
1.22748e-13
1.22776e-13
1.22799e-13
1.22818e-13
1.22834e-13
1.22846e-13
1.22855e-13
1.22861e-13
1.22864e-13
1.22864e-13
1.22861e-13
1.22855e-13
1.22846e-13
1.22834e-13
1.22818e-13
1.22799e-13
1.22776e-13
1.22748e-13
1.22717e-13
1.2268e-13
1.22637e-13
1.22589e-13
1.22534e-13
1.22472e-13
1.22403e-13
1.22324e-13
1.22237e-13
1.2214e-13
1.22032e-13
1.21913e-13
1.21782e-13
1.21639e-13
1.21482e-13
1.21312e-13
1.21129e-13
1.20934e-13
1.20731e-13
1.20525e-13
1.20311e-13
4.52139e-13
4.5297e-13
4.53783e-13
4.54589e-13
4.5536e-13
4.56084e-13
4.56757e-13
4.57376e-13
4.57944e-13
4.58463e-13
4.58934e-13
4.5936e-13
4.59744e-13
4.60089e-13
4.60398e-13
4.60674e-13
4.60919e-13
4.61135e-13
4.61326e-13
4.61494e-13
4.61639e-13
4.61765e-13
4.61873e-13
4.61965e-13
4.62041e-13
4.62103e-13
4.62151e-13
4.62187e-13
4.6221e-13
4.62222e-13
4.62222e-13
4.6221e-13
4.62187e-13
4.62151e-13
4.62103e-13
4.62041e-13
4.61965e-13
4.61873e-13
4.61765e-13
4.61639e-13
4.61494e-13
4.61326e-13
4.61135e-13
4.60919e-13
4.60674e-13
4.60398e-13
4.60089e-13
4.59744e-13
4.5936e-13
4.58934e-13
4.58463e-13
4.57944e-13
4.57376e-13
4.56757e-13
4.56084e-13
4.5536e-13
4.54589e-13
4.53783e-13
4.5297e-13
4.52139e-13
1.72988e-12
1.73316e-12
1.73641e-12
1.73965e-12
1.74274e-12
1.74565e-12
1.74835e-12
1.75084e-12
1.75312e-12
1.7552e-12
1.75709e-12
1.7588e-12
1.76034e-12
1.76172e-12
1.76296e-12
1.76407e-12
1.76505e-12
1.76592e-12
1.76668e-12
1.76735e-12
1.76794e-12
1.76844e-12
1.76888e-12
1.76924e-12
1.76955e-12
1.76979e-12
1.76999e-12
1.77013e-12
1.77023e-12
1.77027e-12
1.77027e-12
1.77023e-12
1.77013e-12
1.76999e-12
1.76979e-12
1.76955e-12
1.76924e-12
1.76888e-12
1.76844e-12
1.76794e-12
1.76735e-12
1.76668e-12
1.76592e-12
1.76505e-12
1.76407e-12
1.76296e-12
1.76172e-12
1.76034e-12
1.7588e-12
1.75709e-12
1.7552e-12
1.75312e-12
1.75084e-12
1.74835e-12
1.74565e-12
1.74274e-12
1.73965e-12
1.73641e-12
1.73316e-12
1.72988e-12
6.72377e-12
6.73693e-12
6.75012e-12
6.76324e-12
6.77582e-12
6.78763e-12
6.79859e-12
6.8087e-12
6.81795e-12
6.8264e-12
6.83407e-12
6.84101e-12
6.84727e-12
6.85289e-12
6.85792e-12
6.86241e-12
6.86639e-12
6.86992e-12
6.87302e-12
6.87574e-12
6.87811e-12
6.88016e-12
6.88192e-12
6.8834e-12
6.88464e-12
6.88564e-12
6.88643e-12
6.88701e-12
6.88739e-12
6.88758e-12
6.88758e-12
6.88739e-12
6.88701e-12
6.88643e-12
6.88564e-12
6.88464e-12
6.8834e-12
6.88192e-12
6.88016e-12
6.87811e-12
6.87574e-12
6.87302e-12
6.86992e-12
6.86639e-12
6.86241e-12
6.85792e-12
6.85289e-12
6.84727e-12
6.84101e-12
6.83407e-12
6.8264e-12
6.81795e-12
6.8087e-12
6.79859e-12
6.78763e-12
6.77582e-12
6.76324e-12
6.75012e-12
6.73693e-12
6.72377e-12
2.64826e-11
2.65359e-11
2.65899e-11
2.66437e-11
2.66953e-11
2.67437e-11
2.67886e-11
2.683e-11
2.6868e-11
2.69026e-11
2.6934e-11
2.69625e-11
2.69881e-11
2.70111e-11
2.70318e-11
2.70501e-11
2.70664e-11
2.70809e-11
2.70936e-11
2.71047e-11
2.71144e-11
2.71228e-11
2.713e-11
2.71361e-11
2.71412e-11
2.71453e-11
2.71485e-11
2.71509e-11
2.71524e-11
2.71532e-11
2.71532e-11
2.71524e-11
2.71509e-11
2.71485e-11
2.71453e-11
2.71412e-11
2.71361e-11
2.713e-11
2.71228e-11
2.71144e-11
2.71047e-11
2.70936e-11
2.70809e-11
2.70664e-11
2.70501e-11
2.70318e-11
2.70111e-11
2.69881e-11
2.69625e-11
2.6934e-11
2.69026e-11
2.6868e-11
2.683e-11
2.67886e-11
2.67437e-11
2.66953e-11
2.66437e-11
2.65899e-11
2.65359e-11
2.64826e-11
1.05377e-10
1.05595e-10
1.05818e-10
1.06039e-10
1.06252e-10
1.06452e-10
1.06637e-10
1.06808e-10
1.06964e-10
1.07107e-10
1.07237e-10
1.07354e-10
1.0746e-10
1.07555e-10
1.0764e-10
1.07715e-10
1.07783e-10
1.07842e-10
1.07894e-10
1.0794e-10
1.0798e-10
1.08015e-10
1.08045e-10
1.0807e-10
1.0809e-10
1.08107e-10
1.08121e-10
1.0813e-10
1.08137e-10
1.0814e-10
1.0814e-10
1.08137e-10
1.0813e-10
1.08121e-10
1.08107e-10
1.0809e-10
1.0807e-10
1.08045e-10
1.08015e-10
1.0798e-10
1.0794e-10
1.07894e-10
1.07842e-10
1.07783e-10
1.07715e-10
1.0764e-10
1.07555e-10
1.0746e-10
1.07354e-10
1.07237e-10
1.07107e-10
1.06964e-10
1.06808e-10
1.06637e-10
1.06452e-10
1.06252e-10
1.06039e-10
1.05818e-10
1.05595e-10
1.05377e-10
4.22115e-10
4.23009e-10
4.23928e-10
4.24845e-10
4.25724e-10
4.26549e-10
4.27315e-10
4.28021e-10
4.28668e-10
4.29258e-10
4.29794e-10
4.30278e-10
4.30715e-10
4.31107e-10
4.31458e-10
4.31771e-10
4.32049e-10
4.32294e-10
4.32511e-10
4.327e-10
4.32865e-10
4.33008e-10
4.3313e-10
4.33234e-10
4.3332e-10
4.33389e-10
4.33444e-10
4.33484e-10
4.33511e-10
4.33524e-10
4.33524e-10
4.33511e-10
4.33484e-10
4.33444e-10
4.33389e-10
4.3332e-10
4.33234e-10
4.3313e-10
4.33008e-10
4.32865e-10
4.327e-10
4.32511e-10
4.32294e-10
4.32049e-10
4.31771e-10
4.31458e-10
4.31107e-10
4.30715e-10
4.30278e-10
4.29794e-10
4.29258e-10
4.28668e-10
4.28021e-10
4.27315e-10
4.26549e-10
4.25724e-10
4.24845e-10
4.23928e-10
4.23009e-10
4.22115e-10
1.69517e-09
1.69883e-09
1.70262e-09
1.7064e-09
1.71003e-09
1.71344e-09
1.7166e-09
1.71951e-09
1.72218e-09
1.72461e-09
1.72682e-09
1.72881e-09
1.73061e-09
1.73223e-09
1.73368e-09
1.73497e-09
1.73611e-09
1.73712e-09
1.73802e-09
1.7388e-09
1.73948e-09
1.74006e-09
1.74057e-09
1.74099e-09
1.74135e-09
1.74164e-09
1.74186e-09
1.74203e-09
1.74214e-09
1.74219e-09
1.74219e-09
1.74214e-09
1.74203e-09
1.74186e-09
1.74164e-09
1.74135e-09
1.74099e-09
1.74057e-09
1.74006e-09
1.73948e-09
1.7388e-09
1.73802e-09
1.73712e-09
1.73611e-09
1.73497e-09
1.73368e-09
1.73223e-09
1.73061e-09
1.72881e-09
1.72682e-09
1.72461e-09
1.72218e-09
1.71951e-09
1.7166e-09
1.71344e-09
1.71003e-09
1.7064e-09
1.70262e-09
1.69883e-09
1.69517e-09
6.7922e-09
6.80712e-09
6.82264e-09
6.83814e-09
6.85299e-09
6.86693e-09
6.87987e-09
6.8918e-09
6.90272e-09
6.91267e-09
6.92171e-09
6.92989e-09
6.93726e-09
6.94387e-09
6.94979e-09
6.95506e-09
6.95975e-09
6.96389e-09
6.96754e-09
6.97073e-09
6.97351e-09
6.97592e-09
6.97798e-09
6.97972e-09
6.98117e-09
6.98234e-09
6.98326e-09
6.98394e-09
6.98439e-09
6.98461e-09
6.98461e-09
6.98439e-09
6.98394e-09
6.98326e-09
6.98234e-09
6.98117e-09
6.97972e-09
6.97798e-09
6.97592e-09
6.97351e-09
6.97073e-09
6.96754e-09
6.96389e-09
6.95975e-09
6.95506e-09
6.94979e-09
6.94387e-09
6.93726e-09
6.92989e-09
6.92171e-09
6.91267e-09
6.90272e-09
6.8918e-09
6.87987e-09
6.86693e-09
6.85299e-09
6.83814e-09
6.82264e-09
6.80712e-09
6.7922e-09
2.7004e-08
2.70641e-08
2.71269e-08
2.71895e-08
2.72496e-08
2.73059e-08
2.73582e-08
2.74063e-08
2.74504e-08
2.74907e-08
2.75272e-08
2.75602e-08
2.75899e-08
2.76166e-08
2.76405e-08
2.76618e-08
2.76807e-08
2.76975e-08
2.77122e-08
2.77251e-08
2.77363e-08
2.7746e-08
2.77543e-08
2.77613e-08
2.77672e-08
2.77719e-08
2.77756e-08
2.77784e-08
2.77802e-08
2.77811e-08
2.77811e-08
2.77802e-08
2.77784e-08
2.77756e-08
2.77719e-08
2.77672e-08
2.77613e-08
2.77543e-08
2.7746e-08
2.77363e-08
2.77251e-08
2.77122e-08
2.76975e-08
2.76807e-08
2.76618e-08
2.76405e-08
2.76166e-08
2.75899e-08
2.75602e-08
2.75272e-08
2.74907e-08
2.74504e-08
2.74063e-08
2.73582e-08
2.73059e-08
2.72496e-08
2.71895e-08
2.71269e-08
2.70641e-08
2.7004e-08
1.05861e-07
1.06098e-07
1.06347e-07
1.06595e-07
1.06833e-07
1.07056e-07
1.07263e-07
1.07454e-07
1.07628e-07
1.07787e-07
1.07932e-07
1.08062e-07
1.0818e-07
1.08286e-07
1.0838e-07
1.08465e-07
1.08539e-07
1.08605e-07
1.08664e-07
1.08715e-07
1.08759e-07
1.08797e-07
1.0883e-07
1.08858e-07
1.08881e-07
1.089e-07
1.08915e-07
1.08925e-07
1.08933e-07
1.08936e-07
1.08936e-07
1.08933e-07
1.08925e-07
1.08915e-07
1.089e-07
1.08881e-07
1.08858e-07
1.0883e-07
1.08797e-07
1.08759e-07
1.08715e-07
1.08664e-07
1.08605e-07
1.08539e-07
1.08465e-07
1.0838e-07
1.08286e-07
1.0818e-07
1.08062e-07
1.07932e-07
1.07787e-07
1.07628e-07
1.07454e-07
1.07263e-07
1.07056e-07
1.06833e-07
1.06595e-07
1.06347e-07
1.06098e-07
1.05861e-07
4.06278e-07
4.07193e-07
4.08153e-07
4.09109e-07
4.10024e-07
4.10883e-07
4.11679e-07
4.12413e-07
4.13085e-07
4.13697e-07
4.14253e-07
4.14756e-07
4.15209e-07
4.15615e-07
4.15979e-07
4.16303e-07
4.1659e-07
4.16844e-07
4.17068e-07
4.17264e-07
4.17435e-07
4.17583e-07
4.17709e-07
4.17816e-07
4.17904e-07
4.17977e-07
4.18033e-07
4.18075e-07
4.18102e-07
4.18116e-07
4.18116e-07
4.18102e-07
4.18075e-07
4.18033e-07
4.17977e-07
4.17904e-07
4.17816e-07
4.17709e-07
4.17583e-07
4.17435e-07
4.17264e-07
4.17068e-07
4.16844e-07
4.1659e-07
4.16303e-07
4.15979e-07
4.15615e-07
4.15209e-07
4.14756e-07
4.14253e-07
4.13697e-07
4.13085e-07
4.12413e-07
4.11679e-07
4.10883e-07
4.10024e-07
4.09109e-07
4.08153e-07
4.07193e-07
4.06278e-07
1.51423e-06
1.51763e-06
1.5212e-06
1.52475e-06
1.52815e-06
1.53133e-06
1.53429e-06
1.53701e-06
1.5395e-06
1.54177e-06
1.54383e-06
1.54569e-06
1.54737e-06
1.54888e-06
1.55022e-06
1.55142e-06
1.55249e-06
1.55343e-06
1.55426e-06
1.55499e-06
1.55562e-06
1.55617e-06
1.55663e-06
1.55703e-06
1.55736e-06
1.55762e-06
1.55783e-06
1.55799e-06
1.55809e-06
1.55814e-06
1.55814e-06
1.55809e-06
1.55799e-06
1.55783e-06
1.55762e-06
1.55736e-06
1.55703e-06
1.55663e-06
1.55617e-06
1.55562e-06
1.55499e-06
1.55426e-06
1.55343e-06
1.55249e-06
1.55142e-06
1.55022e-06
1.54888e-06
1.54737e-06
1.54569e-06
1.54383e-06
1.54177e-06
1.5395e-06
1.53701e-06
1.53429e-06
1.53133e-06
1.52815e-06
1.52475e-06
1.5212e-06
1.51763e-06
1.51423e-06
5.43126e-06
5.44333e-06
5.45599e-06
5.46856e-06
5.48058e-06
5.49184e-06
5.50229e-06
5.51191e-06
5.52072e-06
5.52875e-06
5.53603e-06
5.54261e-06
5.54854e-06
5.55387e-06
5.55863e-06
5.56287e-06
5.56663e-06
5.56996e-06
5.57289e-06
5.57545e-06
5.57769e-06
5.57962e-06
5.58127e-06
5.58267e-06
5.58383e-06
5.58477e-06
5.58551e-06
5.58605e-06
5.58641e-06
5.58659e-06
5.58659e-06
5.58641e-06
5.58605e-06
5.58551e-06
5.58477e-06
5.58383e-06
5.58267e-06
5.58127e-06
5.57962e-06
5.57769e-06
5.57545e-06
5.57289e-06
5.56996e-06
5.56663e-06
5.56287e-06
5.55863e-06
5.55387e-06
5.54854e-06
5.54261e-06
5.53603e-06
5.52875e-06
5.52072e-06
5.51191e-06
5.50229e-06
5.49184e-06
5.48058e-06
5.46856e-06
5.45599e-06
5.44333e-06
5.43126e-06
1.85579e-05
1.85983e-05
1.86407e-05
1.86826e-05
1.87227e-05
1.87603e-05
1.87951e-05
1.88271e-05
1.88565e-05
1.88832e-05
1.89075e-05
1.89294e-05
1.89492e-05
1.89669e-05
1.89827e-05
1.89969e-05
1.90094e-05
1.90205e-05
1.90302e-05
1.90388e-05
1.90462e-05
1.90526e-05
1.90581e-05
1.90628e-05
1.90666e-05
1.90698e-05
1.90722e-05
1.9074e-05
1.90752e-05
1.90758e-05
1.90758e-05
1.90752e-05
1.9074e-05
1.90722e-05
1.90698e-05
1.90666e-05
1.90628e-05
1.90581e-05
1.90526e-05
1.90462e-05
1.90388e-05
1.90302e-05
1.90205e-05
1.90094e-05
1.89969e-05
1.89827e-05
1.89669e-05
1.89492e-05
1.89294e-05
1.89075e-05
1.88832e-05
1.88565e-05
1.88271e-05
1.87951e-05
1.87603e-05
1.87227e-05
1.86826e-05
1.86407e-05
1.85983e-05
1.85579e-05
5.97222e-05
5.98486e-05
5.99803e-05
6.01106e-05
6.02349e-05
6.03513e-05
6.04592e-05
6.05585e-05
6.06494e-05
6.07322e-05
6.08073e-05
6.08752e-05
6.09364e-05
6.09913e-05
6.10403e-05
6.1084e-05
6.11228e-05
6.11571e-05
6.11873e-05
6.12137e-05
6.12367e-05
6.12566e-05
6.12736e-05
6.12879e-05
6.12999e-05
6.13096e-05
6.13172e-05
6.13228e-05
6.13265e-05
6.13283e-05
6.13283e-05
6.13265e-05
6.13228e-05
6.13172e-05
6.13096e-05
6.12999e-05
6.12879e-05
6.12736e-05
6.12566e-05
6.12367e-05
6.12137e-05
6.11873e-05
6.11571e-05
6.11228e-05
6.1084e-05
6.10403e-05
6.09913e-05
6.09364e-05
6.08752e-05
6.08073e-05
6.07322e-05
6.06494e-05
6.05585e-05
6.04592e-05
6.03513e-05
6.02349e-05
6.01106e-05
5.99803e-05
5.98486e-05
5.97222e-05
0.000178754
0.000179116
0.000179491
0.000179861
0.000180214
0.000180545
0.000180851
0.000181132
0.00018139
0.000181625
0.000181838
0.00018203
0.000182204
0.000182359
0.000182498
0.000182622
0.000182732
0.000182829
0.000182915
0.000182989
0.000183054
0.000183111
0.000183159
0.0001832
0.000183233
0.000183261
0.000183282
0.000183298
0.000183309
0.000183314
0.000183314
0.000183309
0.000183298
0.000183282
0.000183261
0.000183233
0.0001832
0.000183159
0.000183111
0.000183054
0.000182989
0.000182915
0.000182829
0.000182732
0.000182622
0.000182498
0.000182359
0.000182204
0.00018203
0.000181838
0.000181625
0.00018139
0.000181132
0.000180851
0.000180545
0.000180214
0.000179861
0.000179491
0.000179116
0.000178754
0.000490879
0.000491813
0.000492776
0.000493724
0.000494625
0.000495469
0.000496251
0.000496969
0.000497627
0.000498226
0.000498769
0.00049926
0.000499702
0.000500098
0.000500453
0.000500768
0.000501048
0.000501296
0.000501514
0.000501704
0.00050187
0.000502014
0.000502137
0.00050224
0.000502327
0.000502397
0.000502451
0.000502492
0.000502518
0.000502531
0.000502531
0.000502518
0.000502492
0.000502451
0.000502397
0.000502327
0.00050224
0.000502137
0.000502014
0.00050187
0.000501704
0.000501514
0.000501296
0.000501048
0.000500768
0.000500453
0.000500098
0.000499702
0.00049926
0.000498769
0.000498226
0.000497627
0.000496969
0.000496251
0.000495469
0.000494625
0.000493724
0.000492776
0.000491813
0.000490879
0.00121978
0.00122192
0.0012241
0.00122625
0.00122828
0.00123019
0.00123195
0.00123357
0.00123505
0.0012364
0.00123763
0.00123874
0.00123973
0.00124062
0.00124142
0.00124213
0.00124276
0.00124332
0.00124381
0.00124424
0.00124462
0.00124494
0.00124521
0.00124545
0.00124564
0.0012458
0.00124592
0.00124601
0.00124607
0.0012461
0.0012461
0.00124607
0.00124601
0.00124592
0.0012458
0.00124564
0.00124545
0.00124521
0.00124494
0.00124462
0.00124424
0.00124381
0.00124332
0.00124276
0.00124213
0.00124142
0.00124062
0.00123973
0.00123874
0.00123763
0.0012364
0.00123505
0.00123357
0.00123195
0.00123019
0.00122828
0.00122625
0.0012241
0.00122192
0.00121978
0.00270928
0.00271354
0.00271785
0.00272207
0.00272607
0.00272981
0.00273327
0.00273645
0.00273936
0.00274201
0.00274441
0.00274658
0.00274853
0.00275028
0.00275184
0.00275324
0.00275447
0.00275556
0.00275652
0.00275737
0.0027581
0.00275873
0.00275927
0.00275973
0.00276011
0.00276042
0.00276066
0.00276084
0.00276096
0.00276101
0.00276101
0.00276096
0.00276084
0.00276066
0.00276042
0.00276011
0.00275973
0.00275927
0.00275873
0.0027581
0.00275737
0.00275652
0.00275556
0.00275447
0.00275324
0.00275184
0.00275028
0.00274853
0.00274658
0.00274441
0.00274201
0.00273936
0.00273645
0.00273327
0.00272981
0.00272607
0.00272207
0.00271785
0.00271354
0.00270928