/*--------------------------------*- C++ -*----------------------------------*\
| =========                 |                                                 |
| \\      /  F ield         | foam-extend: Open Source CFD                    |
|  \\    /   O peration     | Version:     4.0                                |
|   \\  /    A nd           | Web:         http://www.foam-extend.org         |
|    \\/     M anipulation  |                                                 |
\*---------------------------------------------------------------------------*/
FoamFile
{
    version     2.0;
    format      ascii;
    class       volScalarField;
    location    "1240";
    object      cMinus;
}
// * * * * * * * * * * * * * * * * * * * * * * * * * * * * * * * * * * * * * //

dimensions      [0 0 0 0 0 0 0];

internalField   nonuniform List<scalar> 
6960
(
4.74849e-23
4.74988e-23
4.74787e-23
4.7455e-23
4.74328e-23
4.74132e-23
4.73964e-23
4.73819e-23
4.73697e-23
4.73594e-23
4.73507e-23
4.73433e-23
4.73371e-23
4.73319e-23
4.73275e-23
4.73237e-23
4.73206e-23
4.73179e-23
4.73157e-23
4.73138e-23
4.73123e-23
4.73109e-23
4.73098e-23
4.73089e-23
4.73082e-23
4.73076e-23
4.73072e-23
4.73068e-23
4.73066e-23
4.73065e-23
4.73065e-23
4.73066e-23
4.73068e-23
4.73072e-23
4.73076e-23
4.73082e-23
4.73089e-23
4.73098e-23
4.73109e-23
4.73123e-23
4.73138e-23
4.73157e-23
4.73179e-23
4.73206e-23
4.73237e-23
4.73275e-23
4.73319e-23
4.73371e-23
4.73433e-23
4.73507e-23
4.73594e-23
4.73697e-23
4.73819e-23
4.73964e-23
4.74132e-23
4.74328e-23
4.7455e-23
4.74787e-23
4.74988e-23
4.74849e-23
1.67118e-22
1.67187e-22
1.67137e-22
1.67073e-22
1.67011e-22
1.66957e-22
1.66909e-22
1.66868e-22
1.66833e-22
1.66803e-22
1.66777e-22
1.66756e-22
1.66737e-22
1.66722e-22
1.66708e-22
1.66697e-22
1.66688e-22
1.6668e-22
1.66673e-22
1.66667e-22
1.66662e-22
1.66658e-22
1.66655e-22
1.66652e-22
1.6665e-22
1.66648e-22
1.66647e-22
1.66646e-22
1.66645e-22
1.66645e-22
1.66645e-22
1.66645e-22
1.66646e-22
1.66647e-22
1.66648e-22
1.6665e-22
1.66652e-22
1.66655e-22
1.66658e-22
1.66662e-22
1.66667e-22
1.66673e-22
1.6668e-22
1.66688e-22
1.66697e-22
1.66708e-22
1.66722e-22
1.66737e-22
1.66756e-22
1.66777e-22
1.66803e-22
1.66833e-22
1.66868e-22
1.66909e-22
1.66957e-22
1.67011e-22
1.67073e-22
1.67137e-22
1.67187e-22
1.67118e-22
5.37024e-22
5.37321e-22
5.3724e-22
5.37108e-22
5.36975e-22
5.36853e-22
5.36744e-22
5.36649e-22
5.36566e-22
5.36494e-22
5.36432e-22
5.36378e-22
5.36331e-22
5.36291e-22
5.36256e-22
5.36226e-22
5.36201e-22
5.36179e-22
5.3616e-22
5.36144e-22
5.3613e-22
5.36119e-22
5.36109e-22
5.36101e-22
5.36094e-22
5.36089e-22
5.36085e-22
5.36082e-22
5.3608e-22
5.36079e-22
5.36079e-22
5.3608e-22
5.36082e-22
5.36085e-22
5.36089e-22
5.36094e-22
5.36101e-22
5.36109e-22
5.36119e-22
5.3613e-22
5.36144e-22
5.3616e-22
5.36179e-22
5.36201e-22
5.36226e-22
5.36256e-22
5.36291e-22
5.36331e-22
5.36378e-22
5.36432e-22
5.36494e-22
5.36566e-22
5.36649e-22
5.36744e-22
5.36853e-22
5.36975e-22
5.37108e-22
5.3724e-22
5.37321e-22
5.37024e-22
1.71012e-21
1.71132e-21
1.71135e-21
1.71119e-21
1.711e-21
1.7108e-21
1.71061e-21
1.71044e-21
1.71028e-21
1.71014e-21
1.71001e-21
1.70989e-21
1.70978e-21
1.70969e-21
1.70961e-21
1.70953e-21
1.70947e-21
1.70941e-21
1.70936e-21
1.70932e-21
1.70928e-21
1.70925e-21
1.70923e-21
1.7092e-21
1.70919e-21
1.70917e-21
1.70916e-21
1.70915e-21
1.70915e-21
1.70914e-21
1.70914e-21
1.70915e-21
1.70915e-21
1.70916e-21
1.70917e-21
1.70919e-21
1.7092e-21
1.70923e-21
1.70925e-21
1.70928e-21
1.70932e-21
1.70936e-21
1.70941e-21
1.70947e-21
1.70953e-21
1.70961e-21
1.70969e-21
1.70978e-21
1.70989e-21
1.71001e-21
1.71014e-21
1.71028e-21
1.71044e-21
1.71061e-21
1.7108e-21
1.711e-21
1.71119e-21
1.71135e-21
1.71132e-21
1.71012e-21
5.53584e-21
5.54058e-21
5.54165e-21
5.54204e-21
5.54219e-21
5.54221e-21
5.54215e-21
5.54203e-21
5.54188e-21
5.54171e-21
5.54152e-21
5.54133e-21
5.54114e-21
5.54095e-21
5.54078e-21
5.54062e-21
5.54047e-21
5.54033e-21
5.54021e-21
5.5401e-21
5.54001e-21
5.53992e-21
5.53985e-21
5.53979e-21
5.53974e-21
5.5397e-21
5.53967e-21
5.53965e-21
5.53963e-21
5.53962e-21
5.53962e-21
5.53963e-21
5.53965e-21
5.53967e-21
5.5397e-21
5.53974e-21
5.53979e-21
5.53985e-21
5.53992e-21
5.54001e-21
5.5401e-21
5.54021e-21
5.54033e-21
5.54047e-21
5.54062e-21
5.54078e-21
5.54095e-21
5.54114e-21
5.54133e-21
5.54152e-21
5.54171e-21
5.54188e-21
5.54203e-21
5.54215e-21
5.54221e-21
5.54219e-21
5.54204e-21
5.54165e-21
5.54058e-21
5.53584e-21
1.83715e-20
1.83902e-20
1.83971e-20
1.84015e-20
1.84047e-20
1.8407e-20
1.84087e-20
1.84099e-20
1.84106e-20
1.84111e-20
1.84113e-20
1.84113e-20
1.84111e-20
1.84109e-20
1.84107e-20
1.84104e-20
1.84101e-20
1.84098e-20
1.84096e-20
1.84093e-20
1.84091e-20
1.84089e-20
1.84087e-20
1.84085e-20
1.84084e-20
1.84083e-20
1.84082e-20
1.84081e-20
1.84081e-20
1.84081e-20
1.84081e-20
1.84081e-20
1.84081e-20
1.84082e-20
1.84083e-20
1.84084e-20
1.84085e-20
1.84087e-20
1.84089e-20
1.84091e-20
1.84093e-20
1.84096e-20
1.84098e-20
1.84101e-20
1.84104e-20
1.84107e-20
1.84109e-20
1.84111e-20
1.84113e-20
1.84113e-20
1.84111e-20
1.84106e-20
1.84099e-20
1.84087e-20
1.8407e-20
1.84047e-20
1.84015e-20
1.83971e-20
1.83902e-20
1.83715e-20
6.26864e-20
6.27606e-20
6.2796e-20
6.28219e-20
6.28423e-20
6.28582e-20
6.28706e-20
6.288e-20
6.2887e-20
6.2892e-20
6.28956e-20
6.28979e-20
6.28993e-20
6.29001e-20
6.29004e-20
6.29004e-20
6.29002e-20
6.28998e-20
6.28993e-20
6.28988e-20
6.28983e-20
6.28978e-20
6.28974e-20
6.2897e-20
6.28967e-20
6.28964e-20
6.28961e-20
6.2896e-20
6.28958e-20
6.28958e-20
6.28958e-20
6.28958e-20
6.2896e-20
6.28961e-20
6.28964e-20
6.28967e-20
6.2897e-20
6.28974e-20
6.28978e-20
6.28983e-20
6.28988e-20
6.28993e-20
6.28998e-20
6.29002e-20
6.29004e-20
6.29004e-20
6.29001e-20
6.28993e-20
6.28979e-20
6.28956e-20
6.2892e-20
6.2887e-20
6.288e-20
6.28706e-20
6.28582e-20
6.28423e-20
6.28219e-20
6.2796e-20
6.27606e-20
6.26864e-20
2.2015e-19
2.20448e-19
2.20615e-19
2.20745e-19
2.2085e-19
2.20935e-19
2.21002e-19
2.21055e-19
2.21095e-19
2.21126e-19
2.21149e-19
2.21165e-19
2.21177e-19
2.21185e-19
2.2119e-19
2.21194e-19
2.21195e-19
2.21196e-19
2.21196e-19
2.21196e-19
2.21195e-19
2.21194e-19
2.21193e-19
2.21193e-19
2.21192e-19
2.21191e-19
2.21191e-19
2.2119e-19
2.2119e-19
2.2119e-19
2.2119e-19
2.2119e-19
2.2119e-19
2.21191e-19
2.21191e-19
2.21192e-19
2.21193e-19
2.21193e-19
2.21194e-19
2.21195e-19
2.21196e-19
2.21196e-19
2.21196e-19
2.21195e-19
2.21194e-19
2.2119e-19
2.21185e-19
2.21177e-19
2.21165e-19
2.21149e-19
2.21126e-19
2.21095e-19
2.21055e-19
2.21002e-19
2.20935e-19
2.2085e-19
2.20745e-19
2.20615e-19
2.20448e-19
2.2015e-19
7.96043e-19
7.97258e-19
7.98017e-19
7.98632e-19
7.99139e-19
7.99551e-19
7.99883e-19
8.00146e-19
8.00351e-19
8.00509e-19
8.0063e-19
8.0072e-19
8.00787e-19
8.00836e-19
8.00871e-19
8.00895e-19
8.00911e-19
8.00922e-19
8.00929e-19
8.00933e-19
8.00934e-19
8.00934e-19
8.00934e-19
8.00933e-19
8.00932e-19
8.0093e-19
8.00929e-19
8.00928e-19
8.00928e-19
8.00927e-19
8.00927e-19
8.00928e-19
8.00928e-19
8.00929e-19
8.0093e-19
8.00932e-19
8.00933e-19
8.00934e-19
8.00934e-19
8.00934e-19
8.00933e-19
8.00929e-19
8.00922e-19
8.00911e-19
8.00895e-19
8.00871e-19
8.00836e-19
8.00787e-19
8.0072e-19
8.0063e-19
8.00509e-19
8.00351e-19
8.00146e-19
7.99883e-19
7.99551e-19
7.99139e-19
7.98632e-19
7.98017e-19
7.97258e-19
7.96043e-19
2.96384e-18
2.96888e-18
2.9723e-18
2.97514e-18
2.9775e-18
2.97944e-18
2.98101e-18
2.98227e-18
2.98325e-18
2.98403e-18
2.98462e-18
2.98507e-18
2.98542e-18
2.98567e-18
2.98586e-18
2.986e-18
2.9861e-18
2.98617e-18
2.98622e-18
2.98625e-18
2.98628e-18
2.98629e-18
2.9863e-18
2.9863e-18
2.9863e-18
2.9863e-18
2.9863e-18
2.9863e-18
2.9863e-18
2.9863e-18
2.9863e-18
2.9863e-18
2.9863e-18
2.9863e-18
2.9863e-18
2.9863e-18
2.9863e-18
2.9863e-18
2.98629e-18
2.98628e-18
2.98625e-18
2.98622e-18
2.98617e-18
2.9861e-18
2.986e-18
2.98586e-18
2.98567e-18
2.98542e-18
2.98507e-18
2.98462e-18
2.98403e-18
2.98325e-18
2.98227e-18
2.98101e-18
2.97944e-18
2.9775e-18
2.97514e-18
2.9723e-18
2.96888e-18
2.96384e-18
1.13611e-17
1.13824e-17
1.13978e-17
1.14108e-17
1.14217e-17
1.14308e-17
1.14381e-17
1.1444e-17
1.14486e-17
1.14523e-17
1.14551e-17
1.14573e-17
1.1459e-17
1.14603e-17
1.14613e-17
1.1462e-17
1.14625e-17
1.14629e-17
1.14632e-17
1.14634e-17
1.14635e-17
1.14636e-17
1.14637e-17
1.14637e-17
1.14638e-17
1.14638e-17
1.14638e-17
1.14638e-17
1.14638e-17
1.14638e-17
1.14638e-17
1.14638e-17
1.14638e-17
1.14638e-17
1.14638e-17
1.14638e-17
1.14637e-17
1.14637e-17
1.14636e-17
1.14635e-17
1.14634e-17
1.14632e-17
1.14629e-17
1.14625e-17
1.1462e-17
1.14613e-17
1.14603e-17
1.1459e-17
1.14573e-17
1.14551e-17
1.14523e-17
1.14486e-17
1.1444e-17
1.14381e-17
1.14308e-17
1.14217e-17
1.14108e-17
1.13978e-17
1.13824e-17
1.13611e-17
4.48223e-17
4.49145e-17
4.49844e-17
4.50444e-17
4.50949e-17
4.51368e-17
4.51709e-17
4.51984e-17
4.52203e-17
4.52376e-17
4.52512e-17
4.52617e-17
4.52698e-17
4.5276e-17
4.52808e-17
4.52844e-17
4.52871e-17
4.52891e-17
4.52906e-17
4.52917e-17
4.52925e-17
4.52931e-17
4.52936e-17
4.52939e-17
4.52941e-17
4.52942e-17
4.52944e-17
4.52944e-17
4.52945e-17
4.52945e-17
4.52945e-17
4.52945e-17
4.52944e-17
4.52944e-17
4.52942e-17
4.52941e-17
4.52939e-17
4.52936e-17
4.52931e-17
4.52925e-17
4.52917e-17
4.52906e-17
4.52891e-17
4.52871e-17
4.52844e-17
4.52808e-17
4.5276e-17
4.52698e-17
4.52617e-17
4.52512e-17
4.52376e-17
4.52203e-17
4.51984e-17
4.51709e-17
4.51368e-17
4.50949e-17
4.50444e-17
4.49844e-17
4.49145e-17
4.48223e-17
1.8191e-16
1.82317e-16
1.82639e-16
1.82918e-16
1.83153e-16
1.83349e-16
1.83509e-16
1.83638e-16
1.83742e-16
1.83824e-16
1.83888e-16
1.83938e-16
1.83977e-16
1.84007e-16
1.84031e-16
1.84048e-16
1.84062e-16
1.84072e-16
1.8408e-16
1.84085e-16
1.8409e-16
1.84093e-16
1.84095e-16
1.84097e-16
1.84099e-16
1.84099e-16
1.841e-16
1.84101e-16
1.84101e-16
1.84101e-16
1.84101e-16
1.84101e-16
1.84101e-16
1.841e-16
1.84099e-16
1.84099e-16
1.84097e-16
1.84095e-16
1.84093e-16
1.8409e-16
1.84085e-16
1.8408e-16
1.84072e-16
1.84062e-16
1.84048e-16
1.84031e-16
1.84007e-16
1.83977e-16
1.83938e-16
1.83888e-16
1.83824e-16
1.83742e-16
1.83638e-16
1.83509e-16
1.83349e-16
1.83153e-16
1.82918e-16
1.82639e-16
1.82317e-16
1.8191e-16
7.58897e-16
7.60732e-16
7.62233e-16
7.63543e-16
7.64655e-16
7.6558e-16
7.66338e-16
7.66952e-16
7.67444e-16
7.67835e-16
7.68144e-16
7.68385e-16
7.68574e-16
7.6872e-16
7.68832e-16
7.68919e-16
7.68986e-16
7.69037e-16
7.69076e-16
7.69105e-16
7.69128e-16
7.69145e-16
7.69158e-16
7.69168e-16
7.69175e-16
7.6918e-16
7.69184e-16
7.69186e-16
7.69188e-16
7.69189e-16
7.69189e-16
7.69188e-16
7.69186e-16
7.69184e-16
7.6918e-16
7.69175e-16
7.69168e-16
7.69158e-16
7.69145e-16
7.69128e-16
7.69105e-16
7.69076e-16
7.69037e-16
7.68986e-16
7.68919e-16
7.68832e-16
7.6872e-16
7.68574e-16
7.68385e-16
7.68144e-16
7.67835e-16
7.67444e-16
7.66952e-16
7.66338e-16
7.6558e-16
7.64655e-16
7.63543e-16
7.62233e-16
7.60732e-16
7.58897e-16
3.25103e-15
3.25948e-15
3.2666e-15
3.27284e-15
3.27816e-15
3.28259e-15
3.28623e-15
3.28918e-15
3.29155e-15
3.29344e-15
3.29493e-15
3.2961e-15
3.29702e-15
3.29773e-15
3.29828e-15
3.29871e-15
3.29904e-15
3.2993e-15
3.29949e-15
3.29964e-15
3.29976e-15
3.29985e-15
3.29991e-15
3.29996e-15
3.3e-15
3.30003e-15
3.30005e-15
3.30007e-15
3.30007e-15
3.30008e-15
3.30008e-15
3.30007e-15
3.30007e-15
3.30005e-15
3.30003e-15
3.3e-15
3.29996e-15
3.29991e-15
3.29985e-15
3.29976e-15
3.29964e-15
3.29949e-15
3.2993e-15
3.29904e-15
3.29871e-15
3.29828e-15
3.29773e-15
3.29702e-15
3.2961e-15
3.29493e-15
3.29344e-15
3.29155e-15
3.28918e-15
3.28623e-15
3.28259e-15
3.27816e-15
3.27284e-15
3.2666e-15
3.25948e-15
3.25103e-15
1.42817e-14
1.43215e-14
1.43557e-14
1.43859e-14
1.44117e-14
1.44332e-14
1.44509e-14
1.44653e-14
1.44768e-14
1.4486e-14
1.44934e-14
1.44991e-14
1.45036e-14
1.45071e-14
1.45099e-14
1.4512e-14
1.45137e-14
1.45149e-14
1.45159e-14
1.45167e-14
1.45173e-14
1.45177e-14
1.45181e-14
1.45183e-14
1.45185e-14
1.45187e-14
1.45188e-14
1.45189e-14
1.45189e-14
1.45189e-14
1.45189e-14
1.45189e-14
1.45189e-14
1.45188e-14
1.45187e-14
1.45185e-14
1.45183e-14
1.45181e-14
1.45177e-14
1.45173e-14
1.45167e-14
1.45159e-14
1.45149e-14
1.45137e-14
1.4512e-14
1.45099e-14
1.45071e-14
1.45036e-14
1.44991e-14
1.44934e-14
1.4486e-14
1.44768e-14
1.44653e-14
1.44509e-14
1.44332e-14
1.44117e-14
1.43859e-14
1.43557e-14
1.43215e-14
1.42817e-14
6.42252e-14
6.44153e-14
6.45826e-14
6.47309e-14
6.48576e-14
6.49635e-14
6.50507e-14
6.51216e-14
6.51787e-14
6.52243e-14
6.52605e-14
6.5289e-14
6.53114e-14
6.5329e-14
6.53427e-14
6.53534e-14
6.53617e-14
6.53681e-14
6.53731e-14
6.5377e-14
6.538e-14
6.53824e-14
6.53842e-14
6.53855e-14
6.53866e-14
6.53874e-14
6.5388e-14
6.53884e-14
6.53886e-14
6.53887e-14
6.53887e-14
6.53886e-14
6.53884e-14
6.5388e-14
6.53874e-14
6.53866e-14
6.53855e-14
6.53842e-14
6.53824e-14
6.538e-14
6.5377e-14
6.53731e-14
6.53681e-14
6.53617e-14
6.53534e-14
6.53427e-14
6.5329e-14
6.53114e-14
6.5289e-14
6.52605e-14
6.52243e-14
6.51787e-14
6.51216e-14
6.50507e-14
6.49635e-14
6.48576e-14
6.47309e-14
6.45826e-14
6.44153e-14
6.42252e-14
2.95015e-13
2.9594e-13
2.96769e-13
2.97506e-13
2.98137e-13
2.98665e-13
2.99099e-13
2.99453e-13
2.99739e-13
2.99967e-13
3.00148e-13
3.00291e-13
3.00404e-13
3.00493e-13
3.00562e-13
3.00616e-13
3.00658e-13
3.00691e-13
3.00716e-13
3.00736e-13
3.00752e-13
3.00764e-13
3.00773e-13
3.0078e-13
3.00786e-13
3.0079e-13
3.00793e-13
3.00795e-13
3.00796e-13
3.00797e-13
3.00797e-13
3.00796e-13
3.00795e-13
3.00793e-13
3.0079e-13
3.00786e-13
3.0078e-13
3.00773e-13
3.00764e-13
3.00752e-13
3.00736e-13
3.00716e-13
3.00691e-13
3.00658e-13
3.00616e-13
3.00562e-13
3.00493e-13
3.00404e-13
3.00291e-13
3.00148e-13
2.99967e-13
2.99739e-13
2.99453e-13
2.99099e-13
2.98665e-13
2.98137e-13
2.97506e-13
2.96769e-13
2.9594e-13
2.95015e-13
1.38047e-12
1.38503e-12
1.38919e-12
1.39289e-12
1.39607e-12
1.39873e-12
1.40092e-12
1.4027e-12
1.40414e-12
1.40529e-12
1.40621e-12
1.40694e-12
1.40751e-12
1.40796e-12
1.40831e-12
1.40859e-12
1.4088e-12
1.40897e-12
1.4091e-12
1.4092e-12
1.40928e-12
1.40935e-12
1.40939e-12
1.40943e-12
1.40946e-12
1.40948e-12
1.4095e-12
1.40951e-12
1.40952e-12
1.40952e-12
1.40952e-12
1.40952e-12
1.40951e-12
1.4095e-12
1.40948e-12
1.40946e-12
1.40943e-12
1.40939e-12
1.40935e-12
1.40928e-12
1.4092e-12
1.4091e-12
1.40897e-12
1.4088e-12
1.40859e-12
1.40831e-12
1.40796e-12
1.40751e-12
1.40694e-12
1.40621e-12
1.40529e-12
1.40414e-12
1.4027e-12
1.40092e-12
1.39873e-12
1.39607e-12
1.39289e-12
1.38919e-12
1.38503e-12
1.38047e-12
6.55898e-12
6.58174e-12
6.60274e-12
6.62151e-12
6.6376e-12
6.65109e-12
6.66221e-12
6.67128e-12
6.6786e-12
6.68447e-12
6.68914e-12
6.69284e-12
6.69576e-12
6.69806e-12
6.69986e-12
6.70127e-12
6.70238e-12
6.70324e-12
6.70392e-12
6.70445e-12
6.70486e-12
6.70519e-12
6.70544e-12
6.70563e-12
6.70578e-12
6.7059e-12
6.70598e-12
6.70604e-12
6.70608e-12
6.70609e-12
6.70609e-12
6.70608e-12
6.70604e-12
6.70598e-12
6.7059e-12
6.70578e-12
6.70563e-12
6.70544e-12
6.70519e-12
6.70486e-12
6.70445e-12
6.70392e-12
6.70324e-12
6.70238e-12
6.70127e-12
6.69986e-12
6.69806e-12
6.69576e-12
6.69284e-12
6.68914e-12
6.68447e-12
6.6786e-12
6.67128e-12
6.66221e-12
6.65109e-12
6.6376e-12
6.62151e-12
6.60274e-12
6.58174e-12
6.55898e-12
3.1519e-11
3.16333e-11
3.17399e-11
3.18354e-11
3.19174e-11
3.19861e-11
3.20428e-11
3.2089e-11
3.21264e-11
3.21563e-11
3.21802e-11
3.21991e-11
3.22141e-11
3.22259e-11
3.22351e-11
3.22424e-11
3.22481e-11
3.22525e-11
3.2256e-11
3.22588e-11
3.22609e-11
3.22626e-11
3.22639e-11
3.22649e-11
3.22657e-11
3.22663e-11
3.22667e-11
3.2267e-11
3.22672e-11
3.22673e-11
3.22673e-11
3.22672e-11
3.2267e-11
3.22667e-11
3.22663e-11
3.22657e-11
3.22649e-11
3.22639e-11
3.22626e-11
3.22609e-11
3.22588e-11
3.2256e-11
3.22525e-11
3.22481e-11
3.22424e-11
3.22351e-11
3.22259e-11
3.22141e-11
3.21991e-11
3.21802e-11
3.21563e-11
3.21264e-11
3.2089e-11
3.20428e-11
3.19861e-11
3.19174e-11
3.18354e-11
3.17399e-11
3.16333e-11
3.1519e-11
1.52484e-10
1.5306e-10
1.53601e-10
1.54087e-10
1.54504e-10
1.54854e-10
1.55142e-10
1.55378e-10
1.55569e-10
1.55722e-10
1.55843e-10
1.5594e-10
1.56017e-10
1.56077e-10
1.56124e-10
1.56162e-10
1.56191e-10
1.56214e-10
1.56232e-10
1.56246e-10
1.56257e-10
1.56266e-10
1.56272e-10
1.56278e-10
1.56282e-10
1.56285e-10
1.56287e-10
1.56289e-10
1.5629e-10
1.5629e-10
1.5629e-10
1.5629e-10
1.56289e-10
1.56287e-10
1.56285e-10
1.56282e-10
1.56278e-10
1.56272e-10
1.56266e-10
1.56257e-10
1.56246e-10
1.56232e-10
1.56214e-10
1.56191e-10
1.56162e-10
1.56124e-10
1.56077e-10
1.56017e-10
1.5594e-10
1.55843e-10
1.55722e-10
1.55569e-10
1.55378e-10
1.55142e-10
1.54854e-10
1.54504e-10
1.54087e-10
1.53601e-10
1.5306e-10
1.52484e-10
7.38661e-10
7.41545e-10
7.44281e-10
7.46737e-10
7.48846e-10
7.50616e-10
7.52078e-10
7.53272e-10
7.54238e-10
7.55013e-10
7.55631e-10
7.56122e-10
7.5651e-10
7.56816e-10
7.57058e-10
7.57247e-10
7.57396e-10
7.57513e-10
7.57605e-10
7.57678e-10
7.57735e-10
7.57779e-10
7.57814e-10
7.57841e-10
7.57862e-10
7.57878e-10
7.57889e-10
7.57898e-10
7.57903e-10
7.57906e-10
7.57906e-10
7.57903e-10
7.57898e-10
7.57889e-10
7.57878e-10
7.57862e-10
7.57841e-10
7.57814e-10
7.57779e-10
7.57735e-10
7.57678e-10
7.57605e-10
7.57513e-10
7.57396e-10
7.57247e-10
7.57058e-10
7.56816e-10
7.5651e-10
7.56122e-10
7.55631e-10
7.55013e-10
7.54238e-10
7.53272e-10
7.52078e-10
7.50616e-10
7.48846e-10
7.46737e-10
7.44281e-10
7.41545e-10
7.38661e-10
3.5605e-09
3.57482e-09
3.58848e-09
3.60074e-09
3.61128e-09
3.62013e-09
3.62744e-09
3.63341e-09
3.63824e-09
3.64211e-09
3.64521e-09
3.64767e-09
3.64962e-09
3.65115e-09
3.65236e-09
3.65332e-09
3.65407e-09
3.65466e-09
3.65512e-09
3.65549e-09
3.65577e-09
3.656e-09
3.65617e-09
3.65631e-09
3.65642e-09
3.6565e-09
3.65656e-09
3.6566e-09
3.65663e-09
3.65664e-09
3.65664e-09
3.65663e-09
3.6566e-09
3.65656e-09
3.6565e-09
3.65642e-09
3.65631e-09
3.65617e-09
3.656e-09
3.65577e-09
3.65549e-09
3.65512e-09
3.65466e-09
3.65407e-09
3.65332e-09
3.65236e-09
3.65115e-09
3.64962e-09
3.64767e-09
3.64521e-09
3.64211e-09
3.63824e-09
3.63341e-09
3.62744e-09
3.62013e-09
3.61128e-09
3.60074e-09
3.58848e-09
3.57482e-09
3.5605e-09
1.69555e-08
1.70253e-08
1.70922e-08
1.71522e-08
1.72038e-08
1.72472e-08
1.7283e-08
1.73122e-08
1.73359e-08
1.73549e-08
1.73701e-08
1.73822e-08
1.73918e-08
1.73993e-08
1.74053e-08
1.741e-08
1.74137e-08
1.74166e-08
1.74189e-08
1.74207e-08
1.74221e-08
1.74232e-08
1.74241e-08
1.74247e-08
1.74253e-08
1.74257e-08
1.7426e-08
1.74262e-08
1.74263e-08
1.74264e-08
1.74264e-08
1.74263e-08
1.74262e-08
1.7426e-08
1.74257e-08
1.74253e-08
1.74247e-08
1.74241e-08
1.74232e-08
1.74221e-08
1.74207e-08
1.74189e-08
1.74166e-08
1.74137e-08
1.741e-08
1.74053e-08
1.73993e-08
1.73918e-08
1.73822e-08
1.73701e-08
1.73549e-08
1.73359e-08
1.73122e-08
1.7283e-08
1.72472e-08
1.72038e-08
1.71522e-08
1.70922e-08
1.70253e-08
1.69555e-08
7.91252e-08
7.94564e-08
7.97747e-08
8.00606e-08
8.03062e-08
8.05125e-08
8.0683e-08
8.08223e-08
8.09351e-08
8.10257e-08
8.10982e-08
8.11557e-08
8.12013e-08
8.12374e-08
8.12658e-08
8.12883e-08
8.13059e-08
8.13198e-08
8.13308e-08
8.13394e-08
8.13462e-08
8.13516e-08
8.13558e-08
8.1359e-08
8.13616e-08
8.13635e-08
8.13649e-08
8.13659e-08
8.13666e-08
8.13669e-08
8.13669e-08
8.13666e-08
8.13659e-08
8.13649e-08
8.13635e-08
8.13616e-08
8.1359e-08
8.13558e-08
8.13516e-08
8.13462e-08
8.13394e-08
8.13308e-08
8.13198e-08
8.13059e-08
8.12883e-08
8.12658e-08
8.12374e-08
8.12013e-08
8.11557e-08
8.10982e-08
8.10257e-08
8.09351e-08
8.08223e-08
8.0683e-08
8.05125e-08
8.03062e-08
8.00606e-08
7.97747e-08
7.94564e-08
7.91252e-08
3.58561e-07
3.60076e-07
3.61535e-07
3.62844e-07
3.6397e-07
3.64914e-07
3.65695e-07
3.66333e-07
3.6685e-07
3.67266e-07
3.67598e-07
3.67862e-07
3.68071e-07
3.68237e-07
3.68367e-07
3.6847e-07
3.68552e-07
3.68616e-07
3.68666e-07
3.68706e-07
3.68737e-07
3.68762e-07
3.68781e-07
3.68797e-07
3.68808e-07
3.68817e-07
3.68824e-07
3.68829e-07
3.68832e-07
3.68833e-07
3.68833e-07
3.68832e-07
3.68829e-07
3.68824e-07
3.68817e-07
3.68808e-07
3.68797e-07
3.68781e-07
3.68762e-07
3.68737e-07
3.68706e-07
3.68666e-07
3.68616e-07
3.68552e-07
3.6847e-07
3.68367e-07
3.68237e-07
3.68071e-07
3.67862e-07
3.67598e-07
3.67266e-07
3.6685e-07
3.66333e-07
3.65695e-07
3.64914e-07
3.6397e-07
3.62844e-07
3.61535e-07
3.60076e-07
3.58561e-07
1.56186e-06
1.56848e-06
1.57484e-06
1.58055e-06
1.58545e-06
1.58957e-06
1.59298e-06
1.59576e-06
1.59801e-06
1.59982e-06
1.60127e-06
1.60242e-06
1.60334e-06
1.60406e-06
1.60463e-06
1.60508e-06
1.60544e-06
1.60572e-06
1.60594e-06
1.60611e-06
1.60625e-06
1.60636e-06
1.60645e-06
1.60651e-06
1.60656e-06
1.6066e-06
1.60663e-06
1.60665e-06
1.60667e-06
1.60667e-06
1.60667e-06
1.60667e-06
1.60665e-06
1.60663e-06
1.6066e-06
1.60656e-06
1.60651e-06
1.60645e-06
1.60636e-06
1.60625e-06
1.60611e-06
1.60594e-06
1.60572e-06
1.60544e-06
1.60508e-06
1.60463e-06
1.60406e-06
1.60334e-06
1.60242e-06
1.60127e-06
1.59982e-06
1.59801e-06
1.59576e-06
1.59298e-06
1.58957e-06
1.58545e-06
1.58055e-06
1.57484e-06
1.56848e-06
1.56186e-06
6.46661e-06
6.49376e-06
6.51989e-06
6.54328e-06
6.56337e-06
6.58023e-06
6.59418e-06
6.60557e-06
6.61481e-06
6.62224e-06
6.62817e-06
6.6329e-06
6.63665e-06
6.63961e-06
6.64196e-06
6.64381e-06
6.64527e-06
6.64642e-06
6.64733e-06
6.64805e-06
6.64862e-06
6.64906e-06
6.64941e-06
6.64969e-06
6.6499e-06
6.65006e-06
6.65018e-06
6.65027e-06
6.65032e-06
6.65035e-06
6.65035e-06
6.65032e-06
6.65027e-06
6.65018e-06
6.65006e-06
6.6499e-06
6.64969e-06
6.64941e-06
6.64906e-06
6.64862e-06
6.64805e-06
6.64733e-06
6.64642e-06
6.64527e-06
6.64381e-06
6.64196e-06
6.63961e-06
6.63665e-06
6.6329e-06
6.62817e-06
6.62224e-06
6.61481e-06
6.60557e-06
6.59418e-06
6.58023e-06
6.56337e-06
6.54328e-06
6.51989e-06
6.49376e-06
6.46661e-06
2.51354e-05
2.5239e-05
2.53384e-05
2.54272e-05
2.55035e-05
2.55675e-05
2.56204e-05
2.56637e-05
2.56987e-05
2.57269e-05
2.57495e-05
2.57674e-05
2.57817e-05
2.57929e-05
2.58019e-05
2.58089e-05
2.58145e-05
2.58189e-05
2.58223e-05
2.58251e-05
2.58272e-05
2.58289e-05
2.58303e-05
2.58313e-05
2.58321e-05
2.58327e-05
2.58332e-05
2.58335e-05
2.58337e-05
2.58338e-05
2.58338e-05
2.58337e-05
2.58335e-05
2.58332e-05
2.58327e-05
2.58321e-05
2.58313e-05
2.58303e-05
2.58289e-05
2.58272e-05
2.58251e-05
2.58223e-05
2.58189e-05
2.58145e-05
2.58089e-05
2.58019e-05
2.57929e-05
2.57817e-05
2.57674e-05
2.57495e-05
2.57269e-05
2.56987e-05
2.56637e-05
2.56204e-05
2.55675e-05
2.55035e-05
2.54272e-05
2.53384e-05
2.5239e-05
2.51354e-05
9.04839e-05
9.08447e-05
9.11896e-05
9.14974e-05
9.17615e-05
9.1983e-05
9.21662e-05
9.2316e-05
9.24374e-05
9.2535e-05
9.26131e-05
9.26753e-05
9.27247e-05
9.27638e-05
9.27947e-05
9.28191e-05
9.28384e-05
9.28537e-05
9.28657e-05
9.28752e-05
9.28828e-05
9.28887e-05
9.28934e-05
9.2897e-05
9.28998e-05
9.2902e-05
9.29036e-05
9.29048e-05
9.29055e-05
9.29058e-05
9.29058e-05
9.29055e-05
9.29048e-05
9.29036e-05
9.2902e-05
9.28998e-05
9.2897e-05
9.28934e-05
9.28887e-05
9.28828e-05
9.28752e-05
9.28657e-05
9.28537e-05
9.28384e-05
9.28191e-05
9.27947e-05
9.27638e-05
9.27247e-05
9.26753e-05
9.26131e-05
9.2535e-05
9.24374e-05
9.2316e-05
9.21662e-05
9.1983e-05
9.17615e-05
9.14974e-05
9.11896e-05
9.08447e-05
9.04839e-05
0.000297242
0.00029837
0.000299443
0.000300398
0.000301217
0.000301904
0.000302472
0.000302937
0.000303313
0.000303616
0.000303858
0.000304051
0.000304204
0.000304326
0.000304422
0.000304498
0.000304558
0.000304605
0.000304643
0.000304672
0.000304696
0.000304714
0.000304729
0.00030474
0.000304749
0.000304756
0.000304761
0.000304764
0.000304767
0.000304768
0.000304768
0.000304767
0.000304764
0.000304761
0.000304756
0.000304749
0.00030474
0.000304729
0.000304714
0.000304696
0.000304672
0.000304643
0.000304605
0.000304558
0.000304498
0.000304422
0.000304326
0.000304204
0.000304051
0.000303858
0.000303616
0.000303313
0.000302937
0.000302472
0.000301904
0.000301217
0.000300398
0.000299443
0.00029837
0.000297242
0.00087722
0.000880322
0.000883254
0.000885858
0.000888089
0.00088996
0.000891506
0.00089277
0.000893795
0.00089462
0.000895279
0.000895805
0.000896223
0.000896554
0.000896816
0.000897023
0.000897187
0.000897316
0.000897419
0.0008975
0.000897564
0.000897614
0.000897654
0.000897685
0.00089771
0.000897728
0.000897742
0.000897752
0.000897758
0.000897761
0.000897761
0.000897758
0.000897752
0.000897742
0.000897728
0.00089771
0.000897685
0.000897654
0.000897614
0.000897564
0.0008975
0.000897419
0.000897316
0.000897187
0.000897023
0.000896816
0.000896554
0.000896223
0.000895805
0.000895279
0.00089462
0.000893795
0.00089277
0.000891506
0.00088996
0.000888089
0.000885858
0.000883254
0.000880322
0.00087722
0.00229038
0.00229773
0.00230463
0.00231075
0.00231598
0.00232036
0.00232399
0.00232695
0.00232935
0.00233129
0.00233283
0.00233407
0.00233505
0.00233582
0.00233644
0.00233693
0.00233731
0.00233761
0.00233786
0.00233805
0.0023382
0.00233832
0.00233841
0.00233848
0.00233854
0.00233859
0.00233862
0.00233864
0.00233866
0.00233866
0.00233866
0.00233866
0.00233864
0.00233862
0.00233859
0.00233854
0.00233848
0.00233841
0.00233832
0.0023382
0.00233805
0.00233786
0.00233761
0.00233731
0.00233693
0.00233644
0.00233582
0.00233505
0.00233407
0.00233283
0.00233129
0.00232935
0.00232695
0.00232399
0.00232036
0.00231598
0.00231075
0.00230463
0.00229773
0.00229038
0.00522541
0.00524021
0.00525398
0.00526614
0.00527654
0.00528525
0.00529245
0.00529833
0.0053031
0.00530694
0.00531002
0.00531247
0.00531442
0.00531596
0.00531719
0.00531816
0.00531892
0.00531953
0.00532001
0.00532039
0.00532069
0.00532093
0.00532112
0.00532127
0.00532138
0.00532147
0.00532154
0.00532158
0.00532161
0.00532163
0.00532163
0.00532161
0.00532158
0.00532154
0.00532147
0.00532138
0.00532127
0.00532112
0.00532093
0.00532069
0.00532039
0.00532001
0.00531953
0.00531892
0.00531816
0.00531719
0.00531596
0.00531442
0.00531247
0.00531002
0.00530694
0.0053031
0.00529833
0.00529245
0.00528525
0.00527654
0.00526614
0.00525398
0.00524021
0.00522541
0.0103599
0.010385
0.0104082
0.0104286
0.010446
0.0104606
0.0104726
0.0104825
0.0104905
0.0104969
0.0105021
0.0105062
0.0105094
0.010512
0.0105141
0.0105157
0.010517
0.010518
0.0105188
0.0105195
0.01052
0.0105204
0.0105207
0.010521
0.0105212
0.0105213
0.0105214
0.0105215
0.0105215
0.0105216
0.0105216
0.0105215
0.0105215
0.0105214
0.0105213
0.0105212
0.010521
0.0105207
0.0105204
0.01052
0.0105195
0.0105188
0.010518
0.010517
0.0105157
0.0105141
0.010512
0.0105094
0.0105062
0.0105021
0.0104969
0.0104905
0.0104825
0.0104726
0.0104606
0.010446
0.0104286
0.0104082
0.010385
0.0103599
0.0179378
0.0179743
0.0180076
0.0180368
0.0180617
0.0180826
0.0180998
0.0181139
0.0181253
0.0181345
0.0181419
0.0181478
0.0181525
0.0181562
0.0181591
0.0181615
0.0181633
0.0181648
0.018166
0.0181669
0.0181676
0.0181682
0.0181687
0.018169
0.0181693
0.0181695
0.0181697
0.0181698
0.0181699
0.0181699
0.0181699
0.0181699
0.0181698
0.0181697
0.0181695
0.0181693
0.018169
0.0181687
0.0181682
0.0181676
0.0181669
0.018166
0.0181648
0.0181633
0.0181615
0.0181591
0.0181562
0.0181525
0.0181478
0.0181419
0.0181345
0.0181253
0.0181139
0.0180998
0.0180826
0.0180617
0.0180368
0.0180076
0.0179743
0.0179378
0.0275616
0.0276083
0.0276504
0.0276872
0.0277186
0.0277448
0.0277665
0.0277843
0.0277987
0.0278103
0.0278196
0.027827
0.0278329
0.0278376
0.0278414
0.0278443
0.0278467
0.0278485
0.02785
0.0278512
0.0278521
0.0278529
0.0278534
0.0278539
0.0278543
0.0278545
0.0278547
0.0278549
0.027855
0.027855
0.027855
0.027855
0.0278549
0.0278547
0.0278545
0.0278543
0.0278539
0.0278534
0.0278529
0.0278521
0.0278512
0.02785
0.0278485
0.0278467
0.0278443
0.0278414
0.0278376
0.0278329
0.027827
0.0278196
0.0278103
0.0277987
0.0277843
0.0277665
0.0277448
0.0277186
0.0276872
0.0276504
0.0276083
0.0275616
0.0384623
0.0385172
0.038566
0.0386086
0.0386448
0.0386751
0.0387002
0.0387207
0.0387373
0.0387508
0.0387615
0.0387702
0.038777
0.0387825
0.0387868
0.0387903
0.038793
0.0387952
0.0387969
0.0387983
0.0387993
0.0388002
0.0388009
0.0388014
0.0388018
0.0388022
0.0388024
0.0388026
0.0388027
0.0388027
0.0388027
0.0388027
0.0388026
0.0388024
0.0388022
0.0388018
0.0388014
0.0388009
0.0388002
0.0387993
0.0387983
0.0387969
0.0387952
0.038793
0.0387903
0.0387868
0.0387825
0.038777
0.0387702
0.0387615
0.0387508
0.0387373
0.0387207
0.0387002
0.0386751
0.0386448
0.0386086
0.038566
0.0385172
0.0384623
0.0499535
0.0500148
0.0500689
0.0501158
0.0501557
0.0501891
0.0502167
0.0502393
0.0502577
0.0502725
0.0502845
0.050294
0.0503016
0.0503076
0.0503125
0.0503163
0.0503193
0.0503218
0.0503237
0.0503252
0.0503264
0.0503274
0.0503282
0.0503288
0.0503292
0.0503296
0.0503298
0.05033
0.0503302
0.0503302
0.0503302
0.0503302
0.05033
0.0503298
0.0503296
0.0503292
0.0503288
0.0503282
0.0503274
0.0503264
0.0503252
0.0503237
0.0503218
0.0503193
0.0503163
0.0503125
0.0503076
0.0503016
0.050294
0.0502845
0.0502725
0.0502577
0.0502393
0.0502167
0.0501891
0.0501557
0.0501158
0.0500689
0.0500148
0.0499535
0.0616517
0.0617186
0.0617771
0.0618277
0.0618708
0.0619068
0.0619366
0.061961
0.0619809
0.061997
0.0620099
0.0620202
0.0620285
0.0620351
0.0620403
0.0620445
0.0620478
0.0620505
0.0620526
0.0620542
0.0620556
0.0620566
0.0620575
0.0620581
0.0620586
0.062059
0.0620593
0.0620595
0.0620597
0.0620597
0.0620597
0.0620597
0.0620595
0.0620593
0.062059
0.0620586
0.0620581
0.0620575
0.0620566
0.0620556
0.0620542
0.0620526
0.0620505
0.0620478
0.0620445
0.0620403
0.0620351
0.0620285
0.0620202
0.0620099
0.061997
0.0619809
0.061961
0.0619366
0.0619068
0.0618708
0.0618277
0.0617771
0.0617186
0.0616517
0.0734254
0.0734976
0.0735605
0.0736147
0.0736607
0.0736993
0.0737313
0.0737575
0.0737788
0.0737961
0.07381
0.0738211
0.07383
0.0738371
0.0738428
0.0738473
0.0738509
0.0738538
0.0738561
0.0738579
0.0738593
0.0738605
0.0738614
0.0738621
0.0738627
0.0738631
0.0738635
0.0738637
0.0738638
0.0738639
0.0738639
0.0738638
0.0738637
0.0738635
0.0738631
0.0738627
0.0738621
0.0738614
0.0738605
0.0738593
0.0738579
0.0738561
0.0738538
0.0738509
0.0738473
0.0738428
0.0738371
0.07383
0.0738211
0.07381
0.0737961
0.0737788
0.0737575
0.0737313
0.0736993
0.0736607
0.0736147
0.0735605
0.0734976
0.0734254
0.0852645
0.0853422
0.0854093
0.0854672
0.0855163
0.0855575
0.0855916
0.0856197
0.0856425
0.085661
0.0856759
0.0856879
0.0856975
0.0857052
0.0857113
0.0857161