/*--------------------------------*- C++ -*----------------------------------*\
| =========                 |                                                 |
| \\      /  F ield         | foam-extend: Open Source CFD                    |
|  \\    /   O peration     | Version:     4.0                                |
|   \\  /    A nd           | Web:         http://www.foam-extend.org         |
|    \\/     M anipulation  |                                                 |
\*---------------------------------------------------------------------------*/
FoamFile
{
    version     2.0;
    format      ascii;
    class       volScalarField;
    location    "1390";
    object      cMinus;
}
// * * * * * * * * * * * * * * * * * * * * * * * * * * * * * * * * * * * * * //

dimensions      [0 0 0 0 0 0 0];

internalField   nonuniform List<scalar> 
6960
(
1.95651e-23
1.95749e-23
1.9572e-23
1.9567e-23
1.95619e-23
1.95571e-23
1.95528e-23
1.9549e-23
1.95457e-23
1.95429e-23
1.95404e-23
1.95382e-23
1.95363e-23
1.95347e-23
1.95334e-23
1.95322e-23
1.95312e-23
1.95304e-23
1.95297e-23
1.9529e-23
1.95285e-23
1.95281e-23
1.95278e-23
1.95275e-23
1.95273e-23
1.95271e-23
1.95269e-23
1.95268e-23
1.95268e-23
1.95267e-23
1.95267e-23
1.95268e-23
1.95268e-23
1.95269e-23
1.95271e-23
1.95273e-23
1.95275e-23
1.95278e-23
1.95281e-23
1.95285e-23
1.9529e-23
1.95297e-23
1.95304e-23
1.95312e-23
1.95322e-23
1.95334e-23
1.95347e-23
1.95363e-23
1.95382e-23
1.95404e-23
1.95429e-23
1.95457e-23
1.9549e-23
1.95528e-23
1.95571e-23
1.95619e-23
1.9567e-23
1.9572e-23
1.95749e-23
1.95651e-23
8.44301e-23
8.44794e-23
8.44743e-23
8.44601e-23
8.44447e-23
8.44302e-23
8.44169e-23
8.44051e-23
8.43947e-23
8.43856e-23
8.43776e-23
8.43707e-23
8.43646e-23
8.43594e-23
8.43549e-23
8.43511e-23
8.43478e-23
8.4345e-23
8.43426e-23
8.43405e-23
8.43388e-23
8.43374e-23
8.43362e-23
8.43352e-23
8.43344e-23
8.43338e-23
8.43333e-23
8.4333e-23
8.43328e-23
8.43326e-23
8.43326e-23
8.43328e-23
8.4333e-23
8.43333e-23
8.43338e-23
8.43344e-23
8.43352e-23
8.43362e-23
8.43374e-23
8.43388e-23
8.43405e-23
8.43426e-23
8.4345e-23
8.43478e-23
8.43511e-23
8.43549e-23
8.43594e-23
8.43646e-23
8.43707e-23
8.43776e-23
8.43856e-23
8.43947e-23
8.44051e-23
8.44169e-23
8.44302e-23
8.44447e-23
8.44601e-23
8.44743e-23
8.44794e-23
8.44301e-23
2.67359e-22
2.67539e-22
2.6755e-22
2.67532e-22
2.67507e-22
2.67483e-22
2.6746e-22
2.67438e-22
2.67419e-22
2.67402e-22
2.67387e-22
2.67374e-22
2.67362e-22
2.67351e-22
2.67342e-22
2.67334e-22
2.67327e-22
2.67321e-22
2.67316e-22
2.67312e-22
2.67308e-22
2.67305e-22
2.67302e-22
2.673e-22
2.67298e-22
2.67296e-22
2.67295e-22
2.67295e-22
2.67294e-22
2.67294e-22
2.67294e-22
2.67294e-22
2.67295e-22
2.67295e-22
2.67296e-22
2.67298e-22
2.673e-22
2.67302e-22
2.67305e-22
2.67308e-22
2.67312e-22
2.67316e-22
2.67321e-22
2.67327e-22
2.67334e-22
2.67342e-22
2.67351e-22
2.67362e-22
2.67374e-22
2.67387e-22
2.67402e-22
2.67419e-22
2.67438e-22
2.6746e-22
2.67483e-22
2.67507e-22
2.67532e-22
2.6755e-22
2.67539e-22
2.67359e-22
7.89568e-22
7.90178e-22
7.90304e-22
7.9034e-22
7.90351e-22
7.90351e-22
7.90347e-22
7.9034e-22
7.90331e-22
7.90321e-22
7.90311e-22
7.903e-22
7.90289e-22
7.90279e-22
7.90269e-22
7.90259e-22
7.90251e-22
7.90243e-22
7.90235e-22
7.90229e-22
7.90223e-22
7.90219e-22
7.90215e-22
7.90211e-22
7.90208e-22
7.90206e-22
7.90204e-22
7.90203e-22
7.90202e-22
7.90202e-22
7.90202e-22
7.90202e-22
7.90203e-22
7.90204e-22
7.90206e-22
7.90208e-22
7.90211e-22
7.90215e-22
7.90219e-22
7.90223e-22
7.90229e-22
7.90235e-22
7.90243e-22
7.90251e-22
7.90259e-22
7.90269e-22
7.90279e-22
7.90289e-22
7.903e-22
7.90311e-22
7.90321e-22
7.90331e-22
7.9034e-22
7.90347e-22
7.90351e-22
7.90351e-22
7.9034e-22
7.90304e-22
7.90178e-22
7.89568e-22
2.31635e-21
2.31839e-21
2.31906e-21
2.31946e-21
2.31976e-21
2.31999e-21
2.32019e-21
2.32034e-21
2.32047e-21
2.32057e-21
2.32065e-21
2.32071e-21
2.32076e-21
2.32079e-21
2.32082e-21
2.32084e-21
2.32085e-21
2.32086e-21
2.32086e-21
2.32087e-21
2.32087e-21
2.32087e-21
2.32087e-21
2.32087e-21
2.32087e-21
2.32087e-21
2.32087e-21
2.32087e-21
2.32087e-21
2.32087e-21
2.32087e-21
2.32087e-21
2.32087e-21
2.32087e-21
2.32087e-21
2.32087e-21
2.32087e-21
2.32087e-21
2.32087e-21
2.32087e-21
2.32087e-21
2.32086e-21
2.32086e-21
2.32085e-21
2.32084e-21
2.32082e-21
2.32079e-21
2.32076e-21
2.32071e-21
2.32065e-21
2.32057e-21
2.32047e-21
2.32034e-21
2.32019e-21
2.31999e-21
2.31976e-21
2.31946e-21
2.31906e-21
2.31839e-21
2.31635e-21
6.89679e-21
6.90366e-21
6.90659e-21
6.90869e-21
6.91041e-21
6.91185e-21
6.91307e-21
6.9141e-21
6.91496e-21
6.91567e-21
6.91626e-21
6.91674e-21
6.91713e-21
6.91744e-21
6.91769e-21
6.91789e-21
6.91805e-21
6.91817e-21
6.91827e-21
6.91835e-21
6.91841e-21
6.91846e-21
6.9185e-21
6.91853e-21
6.91855e-21
6.91857e-21
6.91858e-21
6.91859e-21
6.9186e-21
6.9186e-21
6.9186e-21
6.9186e-21
6.91859e-21
6.91858e-21
6.91857e-21
6.91855e-21
6.91853e-21
6.9185e-21
6.91846e-21
6.91841e-21
6.91835e-21
6.91827e-21
6.91817e-21
6.91805e-21
6.91789e-21
6.91769e-21
6.91744e-21
6.91713e-21
6.91674e-21
6.91626e-21
6.91567e-21
6.91496e-21
6.9141e-21
6.91307e-21
6.91185e-21
6.91041e-21
6.90869e-21
6.90659e-21
6.90366e-21
6.89679e-21
2.10046e-20
2.1028e-20
2.10399e-20
2.10492e-20
2.10571e-20
2.10638e-20
2.10696e-20
2.10745e-20
2.10786e-20
2.10821e-20
2.1085e-20
2.10874e-20
2.10893e-20
2.1091e-20
2.10923e-20
2.10933e-20
2.10942e-20
2.10949e-20
2.10955e-20
2.10959e-20
2.10963e-20
2.10966e-20
2.10968e-20
2.1097e-20
2.10972e-20
2.10973e-20
2.10974e-20
2.10974e-20
2.10975e-20
2.10975e-20
2.10975e-20
2.10975e-20
2.10974e-20
2.10974e-20
2.10973e-20
2.10972e-20
2.1097e-20
2.10968e-20
2.10966e-20
2.10963e-20
2.10959e-20
2.10955e-20
2.10949e-20
2.10942e-20
2.10933e-20
2.10923e-20
2.1091e-20
2.10893e-20
2.10874e-20
2.1085e-20
2.10821e-20
2.10786e-20
2.10745e-20
2.10696e-20
2.10638e-20
2.10571e-20
2.10492e-20
2.10399e-20
2.1028e-20
2.10046e-20
6.56284e-20
6.57094e-20
6.57561e-20
6.57945e-20
6.58276e-20
6.58562e-20
6.58808e-20
6.59019e-20
6.59197e-20
6.59347e-20
6.59473e-20
6.59578e-20
6.59665e-20
6.59737e-20
6.59796e-20
6.59844e-20
6.59883e-20
6.59916e-20
6.59942e-20
6.59963e-20
6.5998e-20
6.59994e-20
6.60006e-20
6.60015e-20
6.60022e-20
6.60027e-20
6.60032e-20
6.60035e-20
6.60037e-20
6.60037e-20
6.60037e-20
6.60037e-20
6.60035e-20
6.60032e-20
6.60027e-20
6.60022e-20
6.60015e-20
6.60006e-20
6.59994e-20
6.5998e-20
6.59963e-20
6.59942e-20
6.59916e-20
6.59883e-20
6.59844e-20
6.59796e-20
6.59737e-20
6.59665e-20
6.59578e-20
6.59473e-20
6.59347e-20
6.59197e-20
6.59019e-20
6.58808e-20
6.58562e-20
6.58276e-20
6.57945e-20
6.57561e-20
6.57094e-20
6.56284e-20
2.10614e-19
2.109e-19
2.11081e-19
2.11235e-19
2.11369e-19
2.11485e-19
2.11586e-19
2.11672e-19
2.11746e-19
2.11808e-19
2.1186e-19
2.11904e-19
2.1194e-19
2.1197e-19
2.11995e-19
2.12015e-19
2.12032e-19
2.12045e-19
2.12057e-19
2.12066e-19
2.12073e-19
2.12079e-19
2.12084e-19
2.12088e-19
2.12091e-19
2.12094e-19
2.12096e-19
2.12097e-19
2.12098e-19
2.12098e-19
2.12098e-19
2.12098e-19
2.12097e-19
2.12096e-19
2.12094e-19
2.12091e-19
2.12088e-19
2.12084e-19
2.12079e-19
2.12073e-19
2.12066e-19
2.12057e-19
2.12045e-19
2.12032e-19
2.12015e-19
2.11995e-19
2.1197e-19
2.1194e-19
2.11904e-19
2.1186e-19
2.11808e-19
2.11746e-19
2.11672e-19
2.11586e-19
2.11485e-19
2.11369e-19
2.11235e-19
2.11081e-19
2.109e-19
2.10614e-19
6.94559e-19
6.95588e-19
6.96291e-19
6.96901e-19
6.97437e-19
6.97906e-19
6.98311e-19
6.98659e-19
6.98955e-19
6.99207e-19
6.99418e-19
6.99595e-19
6.99743e-19
6.99865e-19
6.99967e-19
7.00051e-19
7.0012e-19
7.00176e-19
7.00223e-19
7.00261e-19
7.00292e-19
7.00317e-19
7.00337e-19
7.00354e-19
7.00367e-19
7.00377e-19
7.00385e-19
7.00391e-19
7.00394e-19
7.00396e-19
7.00396e-19
7.00394e-19
7.00391e-19
7.00385e-19
7.00377e-19
7.00367e-19
7.00354e-19
7.00337e-19
7.00317e-19
7.00292e-19
7.00261e-19
7.00223e-19
7.00176e-19
7.0012e-19
7.00051e-19
6.99967e-19
6.99865e-19
6.99743e-19
6.99595e-19
6.99418e-19
6.99207e-19
6.98955e-19
6.98659e-19
6.98311e-19
6.97906e-19
6.97437e-19
6.96901e-19
6.96291e-19
6.95588e-19
6.94559e-19
2.35417e-18
2.35796e-18
2.3607e-18
2.36313e-18
2.36527e-18
2.36714e-18
2.36877e-18
2.37017e-18
2.37136e-18
2.37237e-18
2.37323e-18
2.37394e-18
2.37454e-18
2.37504e-18
2.37545e-18
2.37579e-18
2.37607e-18
2.3763e-18
2.3765e-18
2.37665e-18
2.37678e-18
2.37688e-18
2.37697e-18
2.37704e-18
2.37709e-18
2.37713e-18
2.37716e-18
2.37719e-18
2.3772e-18
2.37721e-18
2.37721e-18
2.3772e-18
2.37719e-18
2.37716e-18
2.37713e-18
2.37709e-18
2.37704e-18
2.37697e-18
2.37688e-18
2.37678e-18
2.37665e-18
2.3765e-18
2.3763e-18
2.37607e-18
2.37579e-18
2.37545e-18
2.37504e-18
2.37454e-18
2.37394e-18
2.37323e-18
2.37237e-18
2.37136e-18
2.37017e-18
2.36877e-18
2.36714e-18
2.36527e-18
2.36313e-18
2.3607e-18
2.35796e-18
2.35417e-18
8.20118e-18
8.21542e-18
8.22627e-18
8.23596e-18
8.24458e-18
8.25214e-18
8.2587e-18
8.26434e-18
8.26917e-18
8.27327e-18
8.27673e-18
8.27963e-18
8.28206e-18
8.28408e-18
8.28576e-18
8.28715e-18
8.2883e-18
8.28925e-18
8.29003e-18
8.29067e-18
8.29119e-18
8.29162e-18
8.29197e-18
8.29225e-18
8.29247e-18
8.29264e-18
8.29278e-18
8.29287e-18
8.29293e-18
8.29296e-18
8.29296e-18
8.29293e-18
8.29287e-18
8.29278e-18
8.29264e-18
8.29247e-18
8.29225e-18
8.29197e-18
8.29162e-18
8.29119e-18
8.29067e-18
8.29003e-18
8.28925e-18
8.2883e-18
8.28715e-18
8.28576e-18
8.28408e-18
8.28206e-18
8.27963e-18
8.27673e-18
8.27327e-18
8.26917e-18
8.26434e-18
8.2587e-18
8.25214e-18
8.24458e-18
8.23596e-18
8.22627e-18
8.21542e-18
8.20118e-18
2.93604e-17
2.94152e-17
2.94587e-17
2.9498e-17
2.9533e-17
2.95637e-17
2.95905e-17
2.96135e-17
2.96332e-17
2.965e-17
2.96641e-17
2.9676e-17
2.9686e-17
2.96943e-17
2.97012e-17
2.97069e-17
2.97116e-17
2.97155e-17
2.97187e-17
2.97214e-17
2.97235e-17
2.97253e-17
2.97267e-17
2.97279e-17
2.97288e-17
2.97295e-17
2.97301e-17
2.97305e-17
2.97307e-17
2.97309e-17
2.97309e-17
2.97307e-17
2.97305e-17
2.97301e-17
2.97295e-17
2.97288e-17
2.97279e-17
2.97267e-17
2.97253e-17
2.97235e-17
2.97214e-17
2.97187e-17
2.97155e-17
2.97116e-17
2.97069e-17
2.97012e-17
2.96943e-17
2.9686e-17
2.9676e-17
2.96641e-17
2.965e-17
2.96332e-17
2.96135e-17
2.95905e-17
2.95637e-17
2.9533e-17
2.9498e-17
2.94587e-17
2.94152e-17
2.93604e-17
1.07986e-16
1.08201e-16
1.08378e-16
1.0854e-16
1.08684e-16
1.08811e-16
1.08922e-16
1.09017e-16
1.09098e-16
1.09168e-16
1.09226e-16
1.09276e-16
1.09317e-16
1.09351e-16
1.0938e-16
1.09404e-16
1.09424e-16
1.0944e-16
1.09453e-16
1.09464e-16
1.09473e-16
1.09481e-16
1.09487e-16
1.09492e-16
1.09495e-16
1.09498e-16
1.09501e-16
1.09502e-16
1.09504e-16
1.09504e-16
1.09504e-16
1.09504e-16
1.09502e-16
1.09501e-16
1.09498e-16
1.09495e-16
1.09492e-16
1.09487e-16
1.09481e-16
1.09473e-16
1.09464e-16
1.09453e-16
1.0944e-16
1.09424e-16
1.09404e-16
1.0938e-16
1.09351e-16
1.09317e-16
1.09276e-16
1.09226e-16
1.09168e-16
1.09098e-16
1.09017e-16
1.08922e-16
1.08811e-16
1.08684e-16
1.0854e-16
1.08378e-16
1.08201e-16
1.07986e-16
4.07831e-16
4.08699e-16
4.09435e-16
4.10109e-16
4.10713e-16
4.11246e-16
4.11709e-16
4.12109e-16
4.12451e-16
4.12743e-16
4.12989e-16
4.13196e-16
4.1337e-16
4.13515e-16
4.13636e-16
4.13737e-16
4.1382e-16
4.13888e-16
4.13945e-16
4.13992e-16
4.1403e-16
4.14061e-16
4.14087e-16
4.14108e-16
4.14124e-16
4.14137e-16
4.14147e-16
4.14154e-16
4.14158e-16
4.1416e-16
4.1416e-16
4.14158e-16
4.14154e-16
4.14147e-16
4.14137e-16
4.14124e-16
4.14108e-16
4.14087e-16
4.14061e-16
4.1403e-16
4.13992e-16
4.13945e-16
4.13888e-16
4.1382e-16
4.13737e-16
4.13636e-16
4.13515e-16
4.1337e-16
4.13196e-16
4.12989e-16
4.12743e-16
4.12451e-16
4.12109e-16
4.11709e-16
4.11246e-16
4.10713e-16
4.10109e-16
4.09435e-16
4.08699e-16
4.07831e-16
1.58056e-15
1.58413e-15
1.58723e-15
1.5901e-15
1.59267e-15
1.59494e-15
1.59692e-15
1.59862e-15
1.60009e-15
1.60133e-15
1.60238e-15
1.60327e-15
1.60401e-15
1.60463e-15
1.60515e-15
1.60558e-15
1.60594e-15
1.60623e-15
1.60647e-15
1.60667e-15
1.60684e-15
1.60697e-15
1.60708e-15
1.60717e-15
1.60724e-15
1.6073e-15
1.60734e-15
1.60737e-15
1.60739e-15
1.6074e-15
1.6074e-15
1.60739e-15
1.60737e-15
1.60734e-15
1.6073e-15
1.60724e-15
1.60717e-15
1.60708e-15
1.60697e-15
1.60684e-15
1.60667e-15
1.60647e-15
1.60623e-15
1.60594e-15
1.60558e-15
1.60515e-15
1.60463e-15
1.60401e-15
1.60327e-15
1.60238e-15
1.60133e-15
1.60009e-15
1.59862e-15
1.59692e-15
1.59494e-15
1.59267e-15
1.5901e-15
1.58723e-15
1.58413e-15
1.58056e-15
6.27989e-15
6.29489e-15
6.30827e-15
6.32065e-15
6.3318e-15
6.34163e-15
6.3502e-15
6.35759e-15
6.36394e-15
6.36933e-15
6.37391e-15
6.37776e-15
6.38099e-15
6.38369e-15
6.38594e-15
6.38781e-15
6.38936e-15
6.39065e-15
6.39171e-15
6.39258e-15
6.3933e-15
6.39389e-15
6.39437e-15
6.39476e-15
6.39506e-15
6.39531e-15
6.39549e-15
6.39562e-15
6.39571e-15
6.39575e-15
6.39575e-15
6.39571e-15
6.39562e-15
6.39549e-15
6.39531e-15
6.39506e-15
6.39476e-15
6.39437e-15
6.39389e-15
6.3933e-15
6.39258e-15
6.39171e-15
6.39065e-15
6.38936e-15
6.38781e-15
6.38594e-15
6.38369e-15
6.38099e-15
6.37776e-15
6.37391e-15
6.36933e-15
6.36394e-15
6.35759e-15
6.3502e-15
6.34163e-15
6.3318e-15
6.32065e-15
6.30827e-15
6.29489e-15
6.27989e-15
2.55494e-14
2.56138e-14
2.56724e-14
2.57268e-14
2.57759e-14
2.58192e-14
2.58569e-14
2.58895e-14
2.59175e-14
2.59413e-14
2.59615e-14
2.59785e-14
2.59928e-14
2.60047e-14
2.60147e-14
2.60229e-14
2.60298e-14
2.60355e-14
2.60402e-14
2.60441e-14
2.60472e-14
2.60499e-14
2.6052e-14
2.60537e-14
2.60551e-14
2.60561e-14
2.6057e-14
2.60575e-14
2.60579e-14
2.60581e-14
2.60581e-14
2.60579e-14
2.60575e-14
2.6057e-14
2.60561e-14
2.60551e-14
2.60537e-14
2.6052e-14
2.60499e-14
2.60472e-14
2.60441e-14
2.60402e-14
2.60355e-14
2.60298e-14
2.60229e-14
2.60147e-14
2.60047e-14
2.59928e-14
2.59785e-14
2.59615e-14
2.59413e-14
2.59175e-14
2.58895e-14
2.58569e-14
2.58192e-14
2.57759e-14
2.57268e-14
2.56724e-14
2.56138e-14
2.55494e-14
1.06275e-13
1.06556e-13
1.06817e-13
1.0706e-13
1.07279e-13
1.07473e-13
1.07642e-13
1.07788e-13
1.07914e-13
1.0802e-13
1.08111e-13
1.08187e-13
1.08251e-13
1.08304e-13
1.08349e-13
1.08386e-13
1.08417e-13
1.08443e-13
1.08464e-13
1.08481e-13
1.08495e-13
1.08507e-13
1.08517e-13
1.08524e-13
1.08531e-13
1.08535e-13
1.08539e-13
1.08542e-13
1.08543e-13
1.08544e-13
1.08544e-13
1.08543e-13
1.08542e-13
1.08539e-13
1.08535e-13
1.08531e-13
1.08524e-13
1.08517e-13
1.08507e-13
1.08495e-13
1.08481e-13
1.08464e-13
1.08443e-13
1.08417e-13
1.08386e-13
1.08349e-13
1.08304e-13
1.08251e-13
1.08187e-13
1.08111e-13
1.0802e-13
1.07914e-13
1.07788e-13
1.07642e-13
1.07473e-13
1.07279e-13
1.0706e-13
1.06817e-13
1.06556e-13
1.06275e-13
4.51095e-13
4.52347e-13
4.53525e-13
4.54627e-13
4.55621e-13
4.565e-13
4.57267e-13
4.5793e-13
4.58499e-13
4.58984e-13
4.59394e-13
4.59741e-13
4.60032e-13
4.60275e-13
4.60478e-13
4.60648e-13
4.60788e-13
4.60904e-13
4.61e-13
4.6108e-13
4.61145e-13
4.61198e-13
4.61242e-13
4.61277e-13
4.61305e-13
4.61327e-13
4.61344e-13
4.61356e-13
4.61364e-13
4.61368e-13
4.61368e-13
4.61364e-13
4.61356e-13
4.61344e-13
4.61327e-13
4.61305e-13
4.61277e-13
4.61242e-13
4.61198e-13
4.61145e-13
4.6108e-13
4.61e-13
4.60904e-13
4.60788e-13
4.60648e-13
4.60478e-13
4.60275e-13
4.60032e-13
4.59741e-13
4.59394e-13
4.58984e-13
4.58499e-13
4.5793e-13
4.57267e-13
4.565e-13
4.55621e-13
4.54627e-13
4.53525e-13
4.52347e-13
4.51095e-13
1.94928e-12
1.95493e-12
1.96032e-12
1.96537e-12
1.96994e-12
1.97398e-12
1.9775e-12
1.98054e-12
1.98316e-12
1.98539e-12
1.98727e-12
1.98887e-12
1.99021e-12
1.99133e-12
1.99226e-12
1.99304e-12
1.99369e-12
1.99422e-12
1.99466e-12
1.99503e-12
1.99533e-12
1.99558e-12
1.99578e-12
1.99594e-12
1.99607e-12
1.99617e-12
1.99625e-12
1.9963e-12
1.99634e-12
1.99636e-12
1.99636e-12
1.99634e-12
1.9963e-12
1.99625e-12
1.99617e-12
1.99607e-12
1.99594e-12
1.99578e-12
1.99558e-12
1.99533e-12
1.99503e-12
1.99466e-12
1.99422e-12
1.99369e-12
1.99304e-12
1.99226e-12
1.99133e-12
1.99021e-12
1.98887e-12
1.98727e-12
1.98539e-12
1.98316e-12
1.98054e-12
1.9775e-12
1.97398e-12
1.96994e-12
1.96537e-12
1.96032e-12
1.95493e-12
1.94928e-12
8.55098e-12
8.57679e-12
8.60169e-12
8.62509e-12
8.64624e-12
8.66494e-12
8.68127e-12
8.6954e-12
8.70752e-12
8.71785e-12
8.72662e-12
8.73401e-12
8.74022e-12
8.74542e-12
8.74976e-12
8.75338e-12
8.75638e-12
8.75887e-12
8.76093e-12
8.76262e-12
8.76402e-12
8.76517e-12
8.7661e-12
8.76686e-12
8.76746e-12
8.76793e-12
8.76829e-12
8.76855e-12
8.76872e-12
8.7688e-12
8.7688e-12
8.76872e-12
8.76855e-12
8.76829e-12
8.76793e-12
8.76746e-12
8.76686e-12
8.7661e-12
8.76517e-12
8.76402e-12
8.76262e-12
8.76093e-12
8.75887e-12
8.75638e-12
8.75338e-12
8.74976e-12
8.74542e-12
8.74022e-12
8.73401e-12
8.72662e-12
8.71785e-12
8.70752e-12
8.6954e-12
8.68127e-12
8.66494e-12
8.64624e-12
8.62509e-12
8.60169e-12
8.57679e-12
8.55098e-12
3.79505e-11
3.80693e-11
3.81851e-11
3.82942e-11
3.83927e-11
3.84799e-11
3.85561e-11
3.8622e-11
3.86785e-11
3.87267e-11
3.87676e-11
3.88021e-11
3.88311e-11
3.88554e-11
3.88757e-11
3.88925e-11
3.89066e-11
3.89182e-11
3.89278e-11
3.89358e-11
3.89423e-11
3.89476e-11
3.8952e-11
3.89555e-11
3.89584e-11
3.89606e-11
3.89623e-11
3.89635e-11
3.89643e-11
3.89646e-11
3.89646e-11
3.89643e-11
3.89635e-11
3.89623e-11
3.89606e-11
3.89584e-11
3.89555e-11
3.8952e-11
3.89476e-11
3.89423e-11
3.89358e-11
3.89278e-11
3.89182e-11
3.89066e-11
3.88925e-11
3.88757e-11
3.88554e-11
3.88311e-11
3.88021e-11
3.87676e-11
3.87267e-11
3.86785e-11
3.8622e-11
3.85561e-11
3.84799e-11
3.83927e-11
3.82942e-11
3.81851e-11
3.80693e-11
3.79505e-11
1.69721e-10
1.7027e-10
1.7081e-10
1.71319e-10
1.71779e-10
1.72186e-10
1.72542e-10
1.7285e-10
1.73114e-10
1.73339e-10
1.7353e-10
1.73692e-10
1.73827e-10
1.73941e-10
1.74036e-10
1.74115e-10
1.7418e-10
1.74235e-10
1.7428e-10
1.74317e-10
1.74347e-10
1.74373e-10
1.74393e-10
1.7441e-10
1.74423e-10
1.74433e-10
1.74441e-10
1.74447e-10
1.7445e-10
1.74452e-10
1.74452e-10
1.7445e-10
1.74447e-10
1.74441e-10
1.74433e-10
1.74423e-10
1.7441e-10
1.74393e-10
1.74373e-10
1.74347e-10
1.74317e-10
1.7428e-10
1.74235e-10
1.7418e-10
1.74115e-10
1.74036e-10
1.73941e-10
1.73827e-10
1.73692e-10
1.7353e-10
1.73339e-10
1.73114e-10
1.7285e-10
1.72542e-10
1.72186e-10
1.71779e-10
1.71319e-10
1.7081e-10
1.7027e-10
1.69721e-10
7.61245e-10
7.63781e-10
7.66293e-10
7.68661e-10
7.70804e-10
7.727e-10
7.74357e-10
7.7579e-10
7.77021e-10
7.7807e-10
7.78961e-10
7.79712e-10
7.80344e-10
7.80874e-10
7.81316e-10
7.81684e-10
7.8199e-10
7.82244e-10
7.82454e-10
7.82627e-10
7.8277e-10
7.82887e-10
7.82982e-10
7.83059e-10
7.83121e-10
7.83169e-10
7.83206e-10
7.83233e-10
7.8325e-10
7.83258e-10
7.83258e-10
7.8325e-10
7.83233e-10
7.83206e-10
7.83169e-10
7.83121e-10
7.83059e-10
7.82982e-10
7.82887e-10
7.8277e-10
7.82627e-10
7.82454e-10
7.82244e-10
7.8199e-10
7.81684e-10
7.81316e-10
7.80874e-10
7.80344e-10
7.79712e-10
7.78961e-10
7.7807e-10
7.77021e-10
7.7579e-10
7.74357e-10
7.727e-10
7.70804e-10
7.68661e-10
7.66293e-10
7.63781e-10
7.61245e-10
3.40579e-09
3.41742e-09
3.429e-09
3.43993e-09
3.44982e-09
3.45857e-09
3.46622e-09
3.47284e-09
3.47852e-09
3.48336e-09
3.48747e-09
3.49095e-09
3.49386e-09
3.49631e-09
3.49835e-09
3.50005e-09
3.50147e-09
3.50264e-09
3.50361e-09
3.50441e-09
3.50507e-09
3.50561e-09
3.50605e-09
3.50641e-09
3.5067e-09
3.50692e-09
3.50709e-09
3.50721e-09
3.50729e-09
3.50733e-09
3.50733e-09
3.50729e-09
3.50721e-09
3.50709e-09
3.50692e-09
3.5067e-09
3.50641e-09
3.50605e-09
3.50561e-09
3.50507e-09
3.50441e-09
3.50361e-09
3.50264e-09
3.50147e-09
3.50005e-09
3.49835e-09
3.49631e-09
3.49386e-09
3.49095e-09
3.48747e-09
3.48336e-09
3.47852e-09
3.47284e-09
3.46622e-09
3.45857e-09
3.44982e-09
3.43993e-09
3.429e-09
3.41742e-09
3.40579e-09
1.5104e-08
1.51566e-08
1.52092e-08
1.52589e-08
1.53038e-08
1.53436e-08
1.53784e-08
1.54084e-08
1.54342e-08
1.54563e-08
1.5475e-08
1.54907e-08
1.5504e-08
1.55151e-08
1.55244e-08
1.55322e-08
1.55386e-08
1.55439e-08
1.55483e-08
1.5552e-08
1.5555e-08
1.55575e-08
1.55595e-08
1.55611e-08
1.55624e-08
1.55634e-08
1.55642e-08
1.55647e-08
1.55651e-08
1.55653e-08
1.55653e-08
1.55651e-08
1.55647e-08
1.55642e-08
1.55634e-08
1.55624e-08
1.55611e-08
1.55595e-08
1.55575e-08
1.5555e-08
1.5552e-08
1.55483e-08
1.55439e-08
1.55386e-08
1.55322e-08
1.55244e-08
1.55151e-08
1.5504e-08
1.54907e-08
1.5475e-08
1.54563e-08
1.54342e-08
1.54084e-08
1.53784e-08
1.53436e-08
1.53038e-08
1.52589e-08
1.52092e-08
1.51566e-08
1.5104e-08
6.5924e-08
6.61571e-08
6.6391e-08
6.66115e-08
6.6811e-08
6.69876e-08
6.71419e-08
6.72754e-08
6.73901e-08
6.74879e-08
6.75709e-08
6.7641e-08
6.76999e-08
6.77493e-08
6.77906e-08
6.7825e-08
6.78535e-08
6.78773e-08
6.78969e-08
6.79131e-08
6.79264e-08
6.79374e-08
6.79463e-08
6.79535e-08
6.79593e-08
6.79638e-08
6.79673e-08
6.79698e-08
6.79714e-08
6.79722e-08
6.79722e-08
6.79714e-08
6.79698e-08
6.79673e-08
6.79638e-08
6.79593e-08
6.79535e-08
6.79463e-08
6.79374e-08
6.79264e-08
6.79131e-08
6.78969e-08
6.78773e-08
6.78535e-08
6.7825e-08
6.77906e-08
6.77493e-08
6.76999e-08
6.7641e-08
6.75709e-08
6.74879e-08
6.73901e-08
6.72754e-08
6.71419e-08
6.69876e-08
6.6811e-08
6.66115e-08
6.6391e-08
6.61571e-08
6.5924e-08
2.80912e-07
2.81914e-07
2.8292e-07
2.83869e-07
2.84727e-07
2.85486e-07
2.8615e-07
2.86724e-07
2.87217e-07
2.87638e-07
2.87995e-07
2.88296e-07
2.8855e-07
2.88762e-07
2.8894e-07
2.89088e-07
2.89211e-07
2.89313e-07
2.89397e-07
2.89467e-07
2.89524e-07
2.89571e-07
2.8961e-07
2.89641e-07
2.89666e-07
2.89685e-07
2.897e-07
2.89711e-07
2.89718e-07
2.89721e-07
2.89721e-07
2.89718e-07
2.89711e-07
2.897e-07
2.89685e-07
2.89666e-07
2.89641e-07
2.8961e-07
2.89571e-07
2.89524e-07
2.89467e-07
2.89397e-07
2.89313e-07
2.89211e-07
2.89088e-07
2.8894e-07
2.88762e-07
2.8855e-07
2.88296e-07
2.87995e-07
2.87638e-07
2.87217e-07
2.86724e-07
2.8615e-07
2.85486e-07
2.84727e-07
2.83869e-07
2.8292e-07
2.81914e-07
2.80912e-07
1.15808e-06
1.16221e-06
1.16637e-06
1.17028e-06
1.17382e-06
1.17695e-06
1.17969e-06
1.18206e-06
1.18409e-06
1.18582e-06
1.1873e-06
1.18854e-06
1.18958e-06
1.19046e-06
1.19119e-06
1.1918e-06
1.19231e-06
1.19273e-06
1.19308e-06
1.19337e-06
1.19361e-06
1.1938e-06
1.19396e-06
1.19409e-06
1.19419e-06
1.19427e-06
1.19433e-06
1.19438e-06
1.1944e-06
1.19442e-06
1.19442e-06
1.1944e-06
1.19438e-06
1.19433e-06
1.19427e-06
1.19419e-06
1.19409e-06
1.19396e-06
1.1938e-06
1.19361e-06
1.19337e-06
1.19308e-06
1.19273e-06
1.19231e-06
1.1918e-06
1.19119e-06
1.19046e-06
1.18958e-06
1.18854e-06
1.1873e-06
1.18582e-06
1.18409e-06
1.18206e-06
1.17969e-06
1.17695e-06
1.17382e-06
1.17028e-06
1.16637e-06
1.16221e-06
1.15808e-06
4.57252e-06
4.58874e-06
4.60503e-06
4.62034e-06
4.63418e-06
4.64642e-06
4.65712e-06
4.66638e-06
4.67432e-06
4.68111e-06
4.68686e-06
4.69172e-06
4.69581e-06
4.69924e-06
4.7021e-06
4.70449e-06
4.70647e-06
4.70812e-06
4.70948e-06
4.71061e-06
4.71154e-06
4.7123e-06
4.71292e-06
4.71342e-06
4.71382e-06
4.71414e-06
4.71438e-06
4.71455e-06
4.71466e-06
4.71472e-06
4.71472e-06
4.71466e-06
4.71455e-06
4.71438e-06
4.71414e-06
4.71382e-06
4.71342e-06
4.71292e-06
4.7123e-06
4.71154e-06
4.71061e-06
4.70948e-06
4.70812e-06
4.70647e-06
4.70449e-06
4.7021e-06
4.69924e-06
4.69581e-06
4.69172e-06
4.68686e-06
4.68111e-06
4.67432e-06
4.66638e-06
4.65712e-06
4.64642e-06
4.63418e-06
4.62034e-06
4.60503e-06
4.58874e-06
4.57252e-06
1.70982e-05
1.71579e-05
1.72176e-05
1.72737e-05
1.73244e-05
1.73692e-05
1.74083e-05
1.74422e-05
1.74713e-05
1.74961e-05
1.75172e-05
1.7535e-05
1.75499e-05
1.75625e-05
1.75729e-05
1.75817e-05
1.75889e-05
1.7595e-05
1.76e-05
1.76041e-05
1.76075e-05
1.76103e-05
1.76125e-05
1.76144e-05
1.76159e-05
1.7617e-05
1.76179e-05
1.76185e-05
1.76189e-05
1.76191e-05
1.76191e-05
1.76189e-05
1.76185e-05
1.76179e-05
1.7617e-05
1.76159e-05
1.76144e-05
1.76125e-05
1.76103e-05
1.76075e-05
1.76041e-05
1.76e-05
1.7595e-05
1.75889e-05
1.75817e-05
1.75729e-05
1.75625e-05
1.75499e-05
1.7535e-05
1.75172e-05
1.74961e-05
1.74713e-05
1.74422e-05
1.74083e-05
1.73692e-05
1.73244e-05
1.72737e-05
1.72176e-05
1.71579e-05
1.70982e-05
5.98029e-05
6.00056e-05
6.0208e-05
6.03977e-05
6.05688e-05
6.07201e-05
6.08523e-05
6.09666e-05
6.10648e-05
6.11485e-05
6.12196e-05
6.12797e-05
6.13302e-05
6.13725e-05
6.14079e-05
6.14374e-05
6.14619e-05
6.14823e-05
6.14991e-05
6.1513e-05
6.15245e-05
6.15339e-05
6.15416e-05
6.15478e-05
6.15528e-05
6.15567e-05
6.15597e-05
6.15618e-05
6.15632e-05
6.15639e-05
6.15639e-05
6.15632e-05
6.15618e-05
6.15597e-05
6.15567e-05
6.15528e-05
6.15478e-05
6.15416e-05
6.15339e-05
6.15245e-05
6.1513e-05
6.14991e-05
6.14823e-05
6.14619e-05
6.14374e-05
6.14079e-05
6.13725e-05
6.13302e-05
6.12797e-05
6.12196e-05
6.11485e-05
6.10648e-05
6.09666e-05
6.08523e-05
6.07201e-05
6.05688e-05
6.03977e-05
6.0208e-05
6.00056e-05
5.98029e-05
0.000192989
0.000193615
0.000194238
0.00019482
0.000195344
0.000195808
0.000196212
0.000196563
0.000196863
0.00019712
0.000197338
0.000197521
0.000197676
0.000197806
0.000197914
0.000198004
0.00019808
0.000198142
0.000198194
0.000198236
0.000198271
0.0001983
0.000198324
0.000198343
0.000198358
0.00019837
0.000198379
0.000198386
0.00019839
0.000198392
0.000198392
0.00019839
0.000198386
0.000198379
0.00019837
0.000198358
0.000198343
0.000198324
0.0001983
0.000198271
0.000198236
0.000198194
0.000198142
0.00019808
0.000198004
0.000197914
0.000197806
0.000197676
0.000197521
0.000197338
0.00019712
0.000196863
0.000196563
0.000196212
0.000195808
0.000195344
0.00019482
0.000194238
0.000193615
0.000192989
0.000566228
0.000567954
0.000569659
0.000571249
0.000572681
0.000573946
0.00057505
0.000576006
0.000576826
0.000577525
0.000578119
0.000578621
0.000579043
0.000579396
0.000579692
0.000579938
0.000580143
0.000580313
0.000580454
0.000580571
0.000580667
0.000580746
0.00058081
0.000580862
0.000580903
0.000580936
0.000580961
0.000580979
0.00058099
0.000580996
0.000580996
0.00058099
0.000580979
0.000580961
0.000580936
0.000580903
0.000580862
0.00058081
0.000580746
0.000580667
0.000580571
0.000580454
0.000580313
0.000580143
0.000579938
0.000579692
0.000579396
0.000579043
0.000578621
0.000578119
0.000577525
0.000576826
0.000576006
0.00057505
0.000573946
0.000572681
0.000571249
0.000569659
0.000567954
0.000566228
0.00148799
0.00149215
0.00149624
0.00150004
0.00150345
0.00150647
0.0015091
0.00151138
0.00151333
0.001515
0.00151641
0.00151761
0.00151861
0.00151946
0.00152016
0.00152075
0.00152124
0.00152164
0.00152198
0.00152226
0.00152248
0.00152267
0.00152283
0.00152295
0.00152305
0.00152313
0.00152319
0.00152323
0.00152326
0.00152327
0.00152327
0.00152326
0.00152323
0.00152319
0.00152313
0.00152305
0.00152295
0.00152283
0.00152267
0.00152248
0.00152226
0.00152198
0.00152164
0.00152124
0.00152075
0.00152016
0.00151946
0.00151861
0.00151761
0.00151641
0.001515
0.00151333
0.00151138
0.0015091
0.00150647
0.00150345
0.00150004
0.00149624
0.00149215
0.00148799
0.00345633
0.00346497
0.00347338
0.00348117
0.00348817
0.00349434
0.00349973
0.00350439
0.00350839
0.0035118
0.0035147
0.00351714
0.0035192
0.00352093
0.00352237
0.00352357
0.00352457
0.0035254
0.00352609
0.00352666
0.00352713
0.00352751
0.00352783
0.00352808
0.00352828
0.00352844
0.00352857
0.00352865
0.00352871
0.00352874
0.00352874
0.00352871
0.00352865
0.00352857
0.00352844
0.00352828
0.00352808
0.00352783
0.00352751
0.00352713
0.00352666
0.00352609
0.0035254
0.00352457
0.00352357
0.00352237
0.00352093
0.0035192
0.00351714
0.0035147
0.0035118
0.00350839
0.00350439
0.00349973
0.00349434
0.00348817
0.00348117
0.00347338
0.00346497
0.00345633
0.00703861
0.00705391
0.00706864
0.00708224
0.00709444
0.00710521
0.0071146
0.00712271
0.00712967
0.00713562
0.00714066
0.00714492
0.0071485
0.0071515
0.00715402
0.00715611
0.00715786
0.0071593
0.0071605
0.0071615
0.00716231
0.00716298
0.00716353
0.00716398
0.00716433
0.00716461
0.00716482
0.00716498
0.00716507
0.00716512
0.00716512
0.00716507
0.00716498
0.00716482
0.00716461
0.00716433
0.00716398
0.00716353
0.00716298
0.00716231
0.0071615
0.0071605
0.0071593
0.00715786
0.00715611
0.00715402
0.0071515
0.0071485
0.00714492
0.00714066
0.00713562
0.00712967
0.00712271
0.0071146
0.00710521
0.00709444
0.00708224
0.00706864
0.00705391
0.00703861
0.0125737
0.0125969
0.012619
0.0126393
0.0126575
0.0126735
0.0126875
0.0126996
0.01271
0.0127188
0.0127263
0.0127327
0.012738
0.0127425
0.0127463
0.0127494
0.012752
0.0127541
0.0127559
0.0127574
0.0127586
0.0127596
0.0127605
0.0127611
0.0127616
0.0127621
0.0127624
0.0127626
0.0127628
0.0127628
0.0127628
0.0127628
0.0127626
0.0127624
0.0127621
0.0127616
0.0127611
0.0127605
0.0127596
0.0127586
0.0127574
0.0127559
0.0127541
0.012752
0.0127494
0.0127463
0.0127425
0.012738
0.0127327
0.0127263
0.0127188
0.01271
0.0126996
0.0126875
0.0126735
0.0126575
0.0126393
0.012619
0.0125969
0.0125737
0.0199225
0.0199532
0.0199822
0.0200087
0.0200325
0.0200534
0.0200716
0.0200874
0.0201009
0.0201124
0.0201222
0.0201305
0.0201375
0.0201433
0.0201482
0.0201523
0.0201557
0.0201585
0.0201608
0.0201628
0.0201644
0.0201657
0.0201668
0.0201676
0.0201683
0.0201689
0.0201693
0.0201696
0.0201698
0.0201699
0.0201699
0.0201698
0.0201696
0.0201693
0.0201689
0.0201683
0.0201676
0.0201668
0.0201657
0.0201644
0.0201628
0.0201608
0.0201585
0.0201557
0.0201523
0.0201482
0.0201433
0.0201375
0.0201305
0.0201222
0.0201124
0.0201009
0.0200874
0.0200716
0.0200534
0.0200325
0.0200087
0.0199822
0.0199532
0.0199225
0.028549
0.028586
0.0286205
0.028652
0.0286801
0.0287048
0.0287263
0.028745
0.028761
0.0287746
0.0287862
0.028796
0.0288042
0.0288112
0.028817
0.0288218
0.0288258
0.0288292
0.028832
0.0288343
0.0288362
0.0288377
0.028839
0.02884
0.0288408
0.0288415
0.028842
0.0288424
0.0288426
0.0288427
0.0288427
0.0288426
0.0288424
0.028842
0.0288415
0.0288408
0.02884
0.028839
0.0288377
0.0288362
0.0288343
0.028832
0.0288292
0.0288258
0.0288218
0.028817
0.0288112
0.0288042
0.028796
0.0287862
0.0287746
0.028761
0.028745
0.0287263
0.0287048
0.0286801
0.028652
0.0286205
0.028586
0.028549
0.0378576
0.0378997
0.0379383
0.0379735
0.0380048
0.0380324
0.0380564
0.0380772
0.038095
0.0381103
0.0381232
0.0381341
0.0381434
0.0381511
0.0381576
0.038163
0.0381675
0.0381713
0.0381744
0.038177
0.0381791
0.0381808
0.0381823
0.0381834
0.0381844
0.0381851
0.0381857
0.0381861
0.0381863
0.0381864
0.0381864
0.0381863
0.0381861
0.0381857
0.0381851
0.0381844
0.0381834
0.0381823
0.0381808
0.0381791
0.038177
0.0381744
0.0381713
0.0381675
0.038163
0.0381576
0.0381511
0.0381434