/*--------------------------------*- C++ -*----------------------------------*\
| =========                 |                                                 |
| \\      /  F ield         | foam-extend: Open Source CFD                    |
|  \\    /   O peration     | Version:     4.0                                |
|   \\  /    A nd           | Web:         http://www.foam-extend.org         |
|    \\/     M anipulation  |                                                 |
\*---------------------------------------------------------------------------*/
FoamFile
{
    version     2.0;
    format      ascii;
    class       volScalarField;
    location    "1390";
    object      cPlus;
}
// * * * * * * * * * * * * * * * * * * * * * * * * * * * * * * * * * * * * * //

dimensions      [0 0 0 0 0 0 0];

internalField   nonuniform List<scalar> 
6960
(
0.310973
0.310955
0.310935
0.310914
0.310896
0.31088
0.310866
0.310853
0.310843
0.310834
0.310826
0.31082
0.310814
0.31081
0.310806
0.310803
0.3108
0.310798
0.310796
0.310795
0.310793
0.310792
0.310792
0.310791
0.31079
0.31079
0.31079
0.310789
0.310789
0.310789
0.310789
0.310789
0.310789
0.31079
0.31079
0.31079
0.310791
0.310792
0.310792
0.310793
0.310795
0.310796
0.310798
0.3108
0.310803
0.310806
0.31081
0.310814
0.31082
0.310826
0.310834
0.310843
0.310853
0.310866
0.31088
0.310896
0.310914
0.310935
0.310955
0.310973
0.097027
0.0970155
0.0970017
0.0969883
0.0969761
0.0969653
0.0969558
0.0969476
0.0969406
0.0969346
0.0969295
0.0969252
0.0969216
0.0969185
0.096916
0.0969139
0.0969121
0.0969106
0.0969094
0.0969084
0.0969076
0.0969069
0.0969063
0.0969059
0.0969055
0.0969052
0.096905
0.0969049
0.0969048
0.0969047
0.0969047
0.0969048
0.0969049
0.096905
0.0969052
0.0969055
0.0969059
0.0969063
0.0969069
0.0969076
0.0969084
0.0969094
0.0969106
0.0969121
0.0969139
0.096916
0.0969185
0.0969216
0.0969252
0.0969295
0.0969346
0.0969406
0.0969476
0.0969558
0.0969653
0.0969761
0.0969883
0.0970017
0.0970155
0.097027
0.0365304
0.0365249
0.036518
0.0365112
0.036505
0.0364995
0.0364947
0.0364905
0.0364869
0.0364839
0.0364813
0.0364791
0.0364772
0.0364757
0.0364744
0.0364733
0.0364724
0.0364717
0.036471
0.0364705
0.0364701
0.0364698
0.0364695
0.0364692
0.0364691
0.0364689
0.0364688
0.0364687
0.0364687
0.0364686
0.0364686
0.0364687
0.0364687
0.0364688
0.0364689
0.0364691
0.0364692
0.0364695
0.0364698
0.0364701
0.0364705
0.036471
0.0364717
0.0364724
0.0364733
0.0364744
0.0364757
0.0364772
0.0364791
0.0364813
0.0364839
0.0364869
0.0364905
0.0364947
0.0364995
0.036505
0.0365112
0.036518
0.0365249
0.0365304
0.0166971
0.0166953
0.0166928
0.0166903
0.0166879
0.0166858
0.016684
0.0166824
0.016681
0.0166799
0.0166789
0.016678
0.0166773
0.0166767
0.0166762
0.0166758
0.0166755
0.0166752
0.0166749
0.0166747
0.0166746
0.0166744
0.0166743
0.0166742
0.0166742
0.0166741
0.0166741
0.016674
0.016674
0.016674
0.016674
0.016674
0.016674
0.0166741
0.0166741
0.0166742
0.0166742
0.0166743
0.0166744
0.0166746
0.0166747
0.0166749
0.0166752
0.0166755
0.0166758
0.0166762
0.0166767
0.0166773
0.016678
0.0166789
0.0166799
0.016681
0.0166824
0.016684
0.0166858
0.0166879
0.0166903
0.0166928
0.0166953
0.0166971
0.00999303
0.00999331
0.00999315
0.00999288
0.0099926
0.00999234
0.00999211
0.0099919
0.00999173
0.00999157
0.00999144
0.00999132
0.00999122
0.00999114
0.00999107
0.00999101
0.00999096
0.00999092
0.00999088
0.00999085
0.00999083
0.00999081
0.00999079
0.00999078
0.00999077
0.00999076
0.00999075
0.00999075
0.00999074
0.00999074
0.00999074
0.00999074
0.00999075
0.00999075
0.00999076
0.00999077
0.00999078
0.00999079
0.00999081
0.00999083
0.00999085
0.00999088
0.00999092
0.00999096
0.00999101
0.00999107
0.00999114
0.00999122
0.00999132
0.00999144
0.00999157
0.00999173
0.0099919
0.00999211
0.00999234
0.0099926
0.00999288
0.00999315
0.00999331
0.00999303
0.00776537
0.00776663
0.00776759
0.00776841
0.00776911
0.00776973
0.00777026
0.00777071
0.0077711
0.00777143
0.00777171
0.00777194
0.00777213
0.00777229
0.00777242
0.00777253
0.00777263
0.0077727
0.00777276
0.00777281
0.00777286
0.00777289
0.00777292
0.00777294
0.00777296
0.00777297
0.00777298
0.00777299
0.007773
0.007773
0.007773
0.007773
0.00777299
0.00777298
0.00777297
0.00777296
0.00777294
0.00777292
0.00777289
0.00777286
0.00777281
0.00777276
0.0077727
0.00777263
0.00777253
0.00777242
0.00777229
0.00777213
0.00777194
0.00777171
0.00777143
0.0077711
0.00777071
0.00777026
0.00776973
0.00776911
0.00776841
0.00776759
0.00776663
0.00776537
0.00706796
0.00706966
0.00707111
0.00707241
0.00707355
0.00707455
0.00707542
0.00707616
0.0070768
0.00707734
0.0070778
0.00707818
0.00707851
0.00707877
0.007079
0.00707918
0.00707934
0.00707947
0.00707957
0.00707966
0.00707973
0.00707979
0.00707984
0.00707987
0.00707991
0.00707993
0.00707995
0.00707996
0.00707997
0.00707997
0.00707997
0.00707997
0.00707996
0.00707995
0.00707993
0.00707991
0.00707987
0.00707984
0.00707979
0.00707973
0.00707966
0.00707957
0.00707947
0.00707934
0.00707918
0.007079
0.00707877
0.00707851
0.00707818
0.0070778
0.00707734
0.0070768
0.00707616
0.00707542
0.00707455
0.00707355
0.00707241
0.00707111
0.00706966
0.00706796
0.00688609
0.00688798
0.00688965
0.00689115
0.00689248
0.00689365
0.00689466
0.00689553
0.00689627
0.00689691
0.00689744
0.00689789
0.00689827
0.00689858
0.00689885
0.00689907
0.00689925
0.0068994
0.00689952
0.00689962
0.00689971
0.00689978
0.00689983
0.00689988
0.00689992
0.00689994
0.00689997
0.00689998
0.00689999
0.0069
0.0069
0.00689999
0.00689998
0.00689997
0.00689994
0.00689992
0.00689988
0.00689983
0.00689978
0.00689971
0.00689962
0.00689952
0.0068994
0.00689925
0.00689907
0.00689885
0.00689858
0.00689827
0.00689789
0.00689744
0.00689691
0.00689627
0.00689553
0.00689466
0.00689365
0.00689248
0.00689115
0.00688965
0.00688798
0.00688609
0.00687552
0.0068775
0.00687928
0.00688087
0.00688229
0.00688353
0.00688461
0.00688553
0.00688633
0.006887
0.00688757
0.00688805
0.00688845
0.00688879
0.00688907
0.0068893
0.0068895
0.00688966
0.00688979
0.0068899
0.00688999
0.00689006
0.00689012
0.00689017
0.00689021
0.00689024
0.00689027
0.00689028
0.00689029
0.0068903
0.0068903
0.00689029
0.00689028
0.00689027
0.00689024
0.00689021
0.00689017
0.00689012
0.00689006
0.00688999
0.0068899
0.00688979
0.00688966
0.0068895
0.0068893
0.00688907
0.00688879
0.00688845
0.00688805
0.00688757
0.006887
0.00688633
0.00688553
0.00688461
0.00688353
0.00688229
0.00688087
0.00687928
0.0068775
0.00687552
0.00692247
0.00692451
0.00692634
0.00692799
0.00692945
0.00693073
0.00693185
0.00693281
0.00693363
0.00693432
0.00693491
0.00693541
0.00693583
0.00693617
0.00693646
0.00693671
0.00693691
0.00693707
0.00693721
0.00693732
0.00693742
0.00693749
0.00693755
0.0069376
0.00693765
0.00693768
0.0069377
0.00693772
0.00693773
0.00693773
0.00693773
0.00693773
0.00693772
0.0069377
0.00693768
0.00693765
0.0069376
0.00693755
0.00693749
0.00693742
0.00693732
0.00693721
0.00693707
0.00693691
0.00693671
0.00693646
0.00693617
0.00693583
0.00693541
0.00693491
0.00693432
0.00693363
0.00693281
0.00693185
0.00693073
0.00692945
0.00692799
0.00692634
0.00692451
0.00692247
0.00699057
0.00699266
0.00699453
0.00699621
0.00699771
0.00699902
0.00700016
0.00700114
0.00700198
0.00700269
0.0070033
0.00700381
0.00700423
0.00700459
0.00700489
0.00700513
0.00700534
0.00700551
0.00700565
0.00700577
0.00700586
0.00700594
0.007006
0.00700606
0.0070061
0.00700613
0.00700615
0.00700617
0.00700618
0.00700619
0.00700619
0.00700618
0.00700617
0.00700615
0.00700613
0.0070061
0.00700606
0.007006
0.00700594
0.00700586
0.00700577
0.00700565
0.00700551
0.00700534
0.00700513
0.00700489
0.00700459
0.00700423
0.00700381
0.0070033
0.00700269
0.00700198
0.00700114
0.00700016
0.00699902
0.00699771
0.00699621
0.00699453
0.00699266
0.00699057
0.00706876
0.00707089
0.0070728
0.00707451
0.00707604
0.00707738
0.00707854
0.00707955
0.0070804
0.00708113
0.00708175
0.00708227
0.0070827
0.00708307
0.00708337
0.00708362
0.00708383
0.00708401
0.00708415
0.00708427
0.00708437
0.00708445
0.00708451
0.00708457
0.00708461
0.00708464
0.00708467
0.00708469
0.0070847
0.0070847
0.0070847
0.0070847
0.00708469
0.00708467
0.00708464
0.00708461
0.00708457
0.00708451
0.00708445
0.00708437
0.00708427
0.00708415
0.00708401
0.00708383
0.00708362
0.00708337
0.00708307
0.0070827
0.00708227
0.00708175
0.00708113
0.0070804
0.00707955
0.00707854
0.00707738
0.00707604
0.00707451
0.0070728
0.00707089
0.00706876
0.00715404
0.00715622
0.00715816
0.00715992
0.00716147
0.00716284
0.00716403
0.00716505
0.00716593
0.00716667
0.0071673
0.00716783
0.00716828
0.00716865
0.00716896
0.00716922
0.00716943
0.00716961
0.00716976
0.00716988
0.00716998
0.00717006
0.00717013
0.00717018
0.00717022
0.00717026
0.00717028
0.0071703
0.00717031
0.00717032
0.00717032
0.00717031
0.0071703
0.00717028
0.00717026
0.00717022
0.00717018
0.00717013
0.00717006
0.00716998
0.00716988
0.00716976
0.00716961
0.00716943
0.00716922
0.00716896
0.00716865
0.00716828
0.00716783
0.0071673
0.00716667
0.00716593
0.00716505
0.00716403
0.00716284
0.00716147
0.00715992
0.00715816
0.00715622
0.00715404
0.00724596
0.00724818
0.00725017
0.00725196
0.00725355
0.00725494
0.00725616
0.0072572
0.0072581
0.00725886
0.0072595
0.00726004
0.0072605
0.00726088
0.0072612
0.00726146
0.00726168
0.00726186
0.00726201
0.00726214
0.00726224
0.00726232
0.00726239
0.00726245
0.00726249
0.00726252
0.00726255
0.00726257
0.00726258
0.00726259
0.00726259
0.00726258
0.00726257
0.00726255
0.00726252
0.00726249
0.00726245
0.00726239
0.00726232
0.00726224
0.00726214
0.00726201
0.00726186
0.00726168
0.00726146
0.0072612
0.00726088
0.0072605
0.00726004
0.0072595
0.00725886
0.0072581
0.0072572
0.00725616
0.00725494
0.00725355
0.00725196
0.00725017
0.00724818
0.00724596
0.00734485
0.00734712
0.00734916
0.00735099
0.00735261
0.00735404
0.00735528
0.00735635
0.00735727
0.00735804
0.0073587
0.00735926
0.00735972
0.00736011
0.00736044
0.00736071
0.00736093
0.00736112
0.00736128
0.0073614
0.00736151
0.00736159
0.00736166
0.00736172
0.00736177
0.0073618
0.00736183
0.00736185
0.00736186
0.00736187
0.00736187
0.00736186
0.00736185
0.00736183
0.0073618
0.00736177
0.00736172
0.00736166
0.00736159
0.00736151
0.0073614
0.00736128
0.00736112
0.00736093
0.00736071
0.00736044
0.00736011
0.00735972
0.00735926
0.0073587
0.00735804
0.00735727
0.00735635
0.00735528
0.00735404
0.00735261
0.00735099
0.00734916
0.00734712
0.00734485
0.00745138
0.00745371
0.00745579
0.00745767
0.00745934
0.0074608
0.00746207
0.00746316
0.0074641
0.0074649
0.00746557
0.00746614
0.00746662
0.00746702
0.00746735
0.00746763
0.00746786
0.00746805
0.00746821
0.00746834
0.00746845
0.00746854
0.00746861
0.00746867
0.00746871
0.00746875
0.00746878
0.0074688
0.00746881
0.00746882
0.00746882
0.00746881
0.0074688
0.00746878
0.00746875
0.00746871
0.00746867
0.00746861
0.00746854
0.00746845
0.00746834
0.00746821
0.00746805
0.00746786
0.00746763
0.00746735
0.00746702
0.00746662
0.00746614
0.00746557
0.0074649
0.0074641
0.00746316
0.00746207
0.0074608
0.00745934
0.00745767
0.00745579
0.00745371
0.00745138
0.00756638
0.00756877
0.00757091
0.00757283
0.00757454
0.00757604
0.00757735
0.00757847
0.00757943
0.00758025
0.00758094
0.00758153
0.00758202
0.00758243
0.00758277
0.00758306
0.00758329
0.00758349
0.00758365
0.00758379
0.0075839
0.00758399
0.00758406
0.00758412
0.00758417
0.00758421
0.00758424
0.00758426
0.00758427
0.00758428
0.00758428
0.00758427
0.00758426
0.00758424
0.00758421
0.00758417
0.00758412
0.00758406
0.00758399
0.0075839
0.00758379
0.00758365
0.00758349
0.00758329
0.00758306
0.00758277
0.00758243
0.00758202
0.00758153
0.00758094
0.00758025
0.00757943
0.00757847
0.00757735
0.00757604
0.00757454
0.00757283
0.00757091
0.00756877
0.00756638
0.00769083
0.0076933
0.00769549
0.00769747
0.00769923
0.00770077
0.00770211
0.00770327
0.00770425
0.0077051
0.00770581
0.00770641
0.00770691
0.00770734
0.00770769
0.00770798
0.00770823
0.00770843
0.00770859
0.00770873
0.00770885
0.00770894
0.00770902
0.00770908
0.00770913
0.00770917
0.00770919
0.00770922
0.00770923
0.00770924
0.00770924
0.00770923
0.00770922
0.00770919
0.00770917
0.00770913
0.00770908
0.00770902
0.00770894
0.00770885
0.00770873
0.00770859
0.00770843
0.00770823
0.00770798
0.00770769
0.00770734
0.00770691
0.00770641
0.00770581
0.0077051
0.00770425
0.00770327
0.00770211
0.00770077
0.00769923
0.00769747
0.00769549
0.0076933
0.00769083
0.0078259
0.00782844
0.0078307
0.00783274
0.00783455
0.00783614
0.00783752
0.00783871
0.00783973
0.00784059
0.00784133
0.00784195
0.00784247
0.0078429
0.00784327
0.00784357
0.00784382
0.00784403
0.0078442
0.00784434
0.00784446
0.00784456
0.00784464
0.0078447
0.00784475
0.00784479
0.00784482
0.00784484
0.00784486
0.00784486
0.00784486
0.00784486
0.00784484
0.00784482
0.00784479
0.00784475
0.0078447
0.00784464
0.00784456
0.00784446
0.00784434
0.0078442
0.00784403
0.00784382
0.00784357
0.00784327
0.0078429
0.00784247
0.00784195
0.00784133
0.00784059
0.00783973
0.00783871
0.00783752
0.00783614
0.00783455
0.00783274
0.0078307
0.00782844
0.0078259
0.00797294
0.00797557
0.00797791
0.00798001
0.00798188
0.00798352
0.00798494
0.00798617
0.00798723
0.00798812
0.00798888
0.00798952
0.00799006
0.00799051
0.00799088
0.00799119
0.00799145
0.00799167
0.00799185
0.007992
0.00799212
0.00799222
0.0079923
0.00799236
0.00799242
0.00799246
0.00799249
0.00799251
0.00799253
0.00799253
0.00799253
0.00799253
0.00799251
0.00799249
0.00799246
0.00799242
0.00799236
0.0079923
0.00799222
0.00799212
0.007992
0.00799185
0.00799167
0.00799145
0.00799119
0.00799088
0.00799051
0.00799006
0.00798952
0.00798888
0.00798812
0.00798723
0.00798617
0.00798494
0.00798352
0.00798188
0.00798001
0.00797791
0.00797557
0.00797294
0.00813359
0.00813631
0.00813873
0.00814091
0.00814284
0.00814454
0.00814601
0.00814729
0.00814837
0.0081493
0.00815009
0.00815075
0.00815131
0.00815177
0.00815216
0.00815248
0.00815275
0.00815298
0.00815316
0.00815332
0.00815344
0.00815354
0.00815363
0.0081537
0.00815375
0.00815379
0.00815383
0.00815385
0.00815387
0.00815387
0.00815387
0.00815387
0.00815385
0.00815383
0.00815379
0.00815375
0.0081537
0.00815363
0.00815354
0.00815344
0.00815332
0.00815316
0.00815298
0.00815275
0.00815248
0.00815216
0.00815177
0.00815131
0.00815075
0.00815009
0.0081493
0.00814837
0.00814729
0.00814601
0.00814454
0.00814284
0.00814091
0.00813873
0.00813631
0.00813359
0.00830977
0.0083126
0.00831511
0.00831737
0.00831938
0.00832114
0.00832267
0.00832399
0.00832512
0.00832609
0.0083269
0.00832759
0.00832817
0.00832865
0.00832906
0.00832939
0.00832967
0.00832991
0.0083301
0.00833026
0.00833039
0.00833049
0.00833058
0.00833065
0.00833071
0.00833075
0.00833079
0.00833081
0.00833083
0.00833084
0.00833084
0.00833083
0.00833081
0.00833079
0.00833075
0.00833071
0.00833065
0.00833058
0.00833049
0.00833039
0.00833026
0.0083301
0.00832991
0.00832967
0.00832939
0.00832906
0.00832865
0.00832817
0.00832759
0.0083269
0.00832609
0.00832512
0.00832399
0.00832267
0.00832114
0.00831938
0.00831737
0.00831511
0.0083126
0.00830977
0.00850383
0.00850678
0.0085094
0.00851175
0.00851384
0.00851567
0.00851727
0.00851865
0.00851982
0.00852083
0.00852168
0.00852239
0.008523
0.0085235
0.00852392
0.00852427
0.00852456
0.00852481
0.00852501
0.00852517
0.00852531
0.00852542
0.00852551
0.00852559
0.00852565
0.00852569
0.00852573
0.00852575
0.00852577
0.00852578
0.00852578
0.00852577
0.00852575
0.00852573
0.00852569
0.00852565
0.00852559
0.00852551
0.00852542
0.00852531
0.00852517
0.00852501
0.00852481
0.00852456
0.00852427
0.00852392
0.0085235
0.008523
0.00852239
0.00852168
0.00852083
0.00851982
0.00851865
0.00851727
0.00851567
0.00851384
0.00851175
0.0085094
0.00850678
0.00850383
0.00871862
0.00872171
0.00872444
0.0087269
0.00872908
0.008731
0.00873267
0.00873411
0.00873534
0.00873639
0.00873728
0.00873803
0.00873866
0.00873919
0.00873963
0.00873999
0.0087403
0.00874055
0.00874076
0.00874094
0.00874108
0.0087412
0.00874129
0.00874137
0.00874143
0.00874148
0.00874152
0.00874154
0.00874156
0.00874157
0.00874157
0.00874156
0.00874154
0.00874152
0.00874148
0.00874143
0.00874137
0.00874129
0.0087412
0.00874108
0.00874094
0.00874076
0.00874055
0.0087403
0.00873999
0.00873963
0.00873919
0.00873866
0.00873803
0.00873728
0.00873639
0.00873534
0.00873411
0.00873267
0.008731
0.00872908
0.0087269
0.00872444
0.00872171
0.00871862
0.00895765
0.0089609
0.00896377
0.00896635
0.00896864
0.00897066
0.00897241
0.00897392
0.00897521
0.00897631
0.00897725
0.00897803
0.0089787
0.00897925
0.00897971
0.0089801
0.00898042
0.00898069
0.00898091
0.00898109
0.00898124
0.00898136
0.00898146
0.00898154
0.00898161
0.00898166
0.0089817
0.00898173
0.00898175
0.00898176
0.00898176
0.00898175
0.00898173
0.0089817
0.00898166
0.00898161
0.00898154
0.00898146
0.00898136
0.00898124
0.00898109
0.00898091
0.00898069
0.00898042
0.0089801
0.00897971
0.00897925
0.0089787
0.00897803
0.00897725
0.00897631
0.00897521
0.00897392
0.00897241
0.00897066
0.00896864
0.00896635
0.00896377
0.0089609
0.00895765
0.00922532
0.00922875
0.00923178
0.0092345
0.00923692
0.00923904
0.00924089
0.00924248
0.00924385
0.00924501
0.009246
0.00924683
0.00924753
0.00924811
0.0092486
0.00924901
0.00924935
0.00924963
0.00924986
0.00925005
0.00925021
0.00925034
0.00925045
0.00925054
0.0092506
0.00925066
0.0092507
0.00925073
0.00925075
0.00925076
0.00925076
0.00925075
0.00925073
0.0092507
0.00925066
0.0092506
0.00925054
0.00925045
0.00925034
0.00925021
0.00925005
0.00924986
0.00924963
0.00924935
0.00924901
0.0092486
0.00924811
0.00924753
0.00924683
0.009246
0.00924501
0.00924385
0.00924248
0.00924089
0.00923904
0.00923692
0.0092345
0.00923178
0.00922875
0.00922532
0.00952718
0.00953082
0.00953403
0.00953692
0.00953948
0.00954174
0.0095437
0.00954539
0.00954684
0.00954807
0.00954912
0.00955
0.00955074
0.00955137
0.00955188
0.00955232
0.00955268
0.00955298
0.00955322
0.00955343
0.0095536
0.00955374
0.00955385
0.00955394
0.00955401
0.00955407
0.00955412
0.00955415
0.00955417
0.00955418
0.00955418
0.00955417
0.00955415
0.00955412
0.00955407
0.00955401
0.00955394
0.00955385
0.00955374
0.0095536
0.00955343
0.00955322
0.00955298
0.00955268
0.00955232
0.00955188
0.00955137
0.00955074
0.00955
0.00954912
0.00954807
0.00954684
0.00954539
0.0095437
0.00954174
0.00953948
0.00953692
0.00953403
0.00953082
0.00952718
0.00987037
0.00987425
0.00987768
0.00988077
0.00988351
0.00988592
0.00988801
0.00988982
0.00989137
0.00989269
0.00989381
0.00989475
0.00989554
0.00989621
0.00989676
0.00989723
0.00989761
0.00989793
0.0098982
0.00989842
0.0098986
0.00989874
0.00989887
0.00989896
0.00989904
0.0098991
0.00989915
0.00989918
0.00989921
0.00989922
0.00989922
0.00989921
0.00989918
0.00989915
0.0098991
0.00989904
0.00989896
0.00989887
0.00989874
0.0098986
0.00989842
0.0098982
0.00989793
0.00989761
0.00989723
0.00989676
0.00989621
0.00989554
0.00989475
0.00989381
0.00989269
0.00989137
0.00988982
0.00988801
0.00988592
0.00988351
0.00988077
0.00987768
0.00987425
0.00987037
0.0102642
0.0102684
0.0102721
0.0102754
0.0102784
0.010281
0.0102832
0.0102852
0.0102868
0.0102883
0.0102895
0.0102905
0.0102913
0.0102921
0.0102927
0.0102932
0.0102936
0.0102939
0.0102942
0.0102944
0.0102946
0.0102948
0.0102949
0.010295
0.0102951
0.0102952
0.0102952
0.0102953
0.0102953
0.0102953
0.0102953
0.0102953
0.0102953
0.0102952
0.0102952
0.0102951
0.010295
0.0102949
0.0102948
0.0102946
0.0102944
0.0102942
0.0102939
0.0102936
0.0102932
0.0102927
0.0102921
0.0102913
0.0102905
0.0102895
0.0102883
0.0102868
0.0102852
0.0102832
0.010281
0.0102784
0.0102754
0.0102721
0.0102684
0.0102642
0.0107213
0.0107258
0.0107298
0.0107334
0.0107366
0.0107395
0.0107419
0.010744
0.0107458
0.0107474
0.0107487
0.0107498
0.0107507
0.0107515
0.0107522
0.0107527
0.0107532
0.0107535
0.0107539
0.0107541
0.0107543
0.0107545
0.0107546
0.0107548
0.0107548
0.0107549
0.010755
0.010755
0.010755
0.0107551
0.0107551
0.010755
0.010755
0.010755
0.0107549
0.0107548
0.0107548
0.0107546
0.0107545
0.0107543
0.0107541
0.0107539
0.0107535
0.0107532
0.0107527
0.0107522
0.0107515
0.0107507
0.0107498
0.0107487
0.0107474
0.0107458
0.010744
0.0107419
0.0107395
0.0107366
0.0107334
0.0107298
0.0107258
0.0107213
0.0112585
0.0112635
0.0112679
0.0112719
0.0112754
0.0112785
0.0112812
0.0112836
0.0112856
0.0112873
0.0112887
0.0112899
0.0112909
0.0112918
0.0112925
0.0112931
0.0112936
0.011294
0.0112944
0.0112947
0.0112949
0.0112951
0.0112952
0.0112954
0.0112955
0.0112955
0.0112956
0.0112957
0.0112957
0.0112957
0.0112957
0.0112957
0.0112957
0.0112956
0.0112955
0.0112955
0.0112954
0.0112952
0.0112951
0.0112949
0.0112947
0.0112944
0.011294
0.0112936
0.0112931
0.0112925
0.0112918
0.0112909
0.0112899
0.0112887
0.0112873
0.0112856
0.0112836
0.0112812
0.0112785
0.0112754
0.0112719
0.0112679
0.0112635
0.0112585
0.0118999
0.0119054
0.0119104
0.0119148
0.0119187
0.0119222
0.0119252
0.0119278
0.0119301
0.011932
0.0119336
0.0119349
0.0119361
0.011937
0.0119378
0.0119385
0.0119391
0.0119395
0.0119399
0.0119402
0.0119405
0.0119407
0.0119409
0.011941
0.0119411
0.0119412
0.0119413
0.0119413
0.0119414
0.0119414
0.0119414
0.0119414
0.0119413
0.0119413
0.0119412
0.0119411
0.011941
0.0119409
0.0119407
0.0119405
0.0119402
0.0119399
0.0119395
0.0119391
0.0119385
0.0119378
0.011937
0.0119361
0.0119349
0.0119336
0.011932
0.0119301
0.0119278
0.0119252
0.0119222
0.0119187
0.0119148
0.0119104
0.0119054
0.0118999
0.0126797
0.012686
0.0126916
0.0126967
0.0127011
0.0127051
0.0127085
0.0127115
0.012714
0.0127162
0.012718
0.0127196
0.0127209
0.0127219
0.0127229
0.0127236
0.0127243
0.0127248
0.0127252
0.0127256
0.0127259
0.0127261
0.0127263
0.0127265
0.0127266
0.0127267
0.0127268
0.0127268
0.0127269
0.0127269
0.0127269
0.0127269
0.0127268
0.0127268
0.0127267
0.0127266
0.0127265
0.0127263
0.0127261
0.0127259
0.0127256
0.0127252
0.0127248
0.0127243
0.0127236
0.0127229
0.0127219
0.0127209
0.0127196
0.012718
0.0127162
0.012714
0.0127115
0.0127085
0.0127051
0.0127011
0.0126967
0.0126916
0.012686
0.0126797
0.0136486
0.0136558
0.0136623
0.0136682
0.0136734
0.013678
0.0136819
0.0136854
0.0136883
0.0136908
0.013693
0.0136948
0.0136963
0.0136976
0.0136986
0.0136995
0.0137002
0.0137009
0.0137014
0.0137018
0.0137021
0.0137024
0.0137027
0.0137028
0.013703
0.0137031
0.0137032
0.0137033
0.0137033
0.0137033
0.0137033
0.0137033
0.0137033
0.0137032
0.0137031
0.013703
0.0137028
0.0137027
0.0137024
0.0137021
0.0137018
0.0137014
0.0137009
0.0137002
0.0136995
0.0136986
0.0136976
0.0136963
0.0136948
0.013693
0.0136908
0.0136883
0.0136854
0.0136819
0.013678
0.0136734
0.0136682
0.0136623
0.0136558
0.0136486
0.0148813
0.0148899
0.0148976
0.0149045
0.0149107
0.0149162
0.014921
0.0149251
0.0149286
0.0149316
0.0149341
0.0149363
0.0149381
0.0149396
0.0149409
0.0149419
0.0149428
0.0149435
0.0149441
0.0149446
0.0149451
0.0149454
0.0149457
0.0149459
0.0149461
0.0149462
0.0149463
0.0149464
0.0149465
0.0149465
0.0149465
0.0149465
0.0149464
0.0149463
0.0149462
0.0149461
0.0149459
0.0149457
0.0149454
0.0149451
0.0149446
0.0149441
0.0149435
0.0149428
0.0149419
0.0149409
0.0149396
0.0149381
0.0149363
0.0149341
0.0149316
0.0149286
0.0149251
0.014921
0.0149162
0.0149107
0.0149045
0.0148976
0.0148899
0.0148813
0.0164874
0.0164979
0.0165073
0.0165158
0.0165234
0.0165301
0.0165359
0.016541
0.0165453
0.016549
0.0165521
0.0165547
0.0165569
0.0165588
0.0165603
0.0165616
0.0165627
0.0165636
0.0165644
0.016565
0.0165655
0.0165659
0.0165662
0.0165665
0.0165667
0.0165669
0.0165671
0.0165671
0.0165672
0.0165672
0.0165672
0.0165672
0.0165671
0.0165671
0.0165669
0.0165667
0.0165665
0.0165662
0.0165659
0.0165655
0.016565
0.0165644
0.0165636
0.0165627
0.0165616
0.0165603
0.0165588
0.0165569
0.0165547
0.0165521
0.016549
0.0165453
0.016541
0.0165359
0.0165301
0.0165234
0.0165158
0.0165073
0.0164979
0.0164874
0.0186195
0.0186326
0.0186444
0.0186551
0.0186647
0.0186731
0.0186804
0.0186867
0.0186921
0.0186967
0.0187006
0.018704
0.0187067
0.0187091
0.018711
0.0187127
0.018714
0.0187152
0.0187161
0.0187169
0.0187175
0.018718
0.0187185
0.0187188
0.0187191
0.0187193
0.0187195
0.0187196
0.0187197
0.0187197
0.0187197
0.0187197
0.0187196
0.0187195
0.0187193
0.0187191
0.0187188
0.0187185
0.018718
0.0187175
0.0187169
0.0187161
0.0187152
0.018714
0.0187127
0.018711
0.0187091
0.0187067
0.018704
0.0187006
0.0186967
0.0186921
0.0186867
0.0186804
0.0186731
0.0186647
0.0186551
0.0186444
0.0186326
0.0186195
0.0214696
0.0214862
0.0215012
0.0215148
0.021527
0.0215377
0.021547
0.021555
0.0215619
0.0215678
0.0215728
0.021577
0.0215806
0.0215836
0.0215861
0.0215882
0.0215899
0.0215913
0.0215925
0.0215935
0.0215943
0.021595
0.0215956
0.021596
0.0215964
0.0215966
0.0215968
0.021597
0.0215971
0.0215971
0.0215971
0.0215971
0.021597
0.0215968
0.0215966
0.0215964
0.021596
0.0215956
0.021595
0.0215943
0.0215935
0.0215925
0.0215913
0.0215899
0.0215882
0.0215861
0.0215836
0.0215806
0.021577
0.0215728
0.0215678
0.0215619
0.021555
0.021547
0.0215377
0.021527
0.0215148
0.0215012
0.0214862
0.0214696
0.0252407
0.0252617
0.0252808
0.0252981
0.0253136
0.0253272
0.0253391
0.0253493
0.0253581
0.0253656
0.0253719
0.0253773
0.0253819
0.0253857
0.0253888
0.0253915
0.0253937
0.0253955
0.0253971
0.0253983
0.0253994
0.0254002
0.0254009
0.0254015
0.0254019
0.0254023
0.0254026
0.0254028
0.0254029
0.025403
0.025403
0.0254029
0.0254028
0.0254026
0.0254023
0.0254019
0.0254015
0.0254009
0.0254002
0.0253994
0.0253983
0.0253971
0.0253955
0.0253937
0.0253915
0.0253888
0.0253857
0.0253819
0.0253773
0.0253719
0.0253656
0.0253581
0.0253493
0.0253391
0.0253272
0.0253136
0.0252981
0.0252808
0.0252617
0.0252407
0.030091
0.0301173
0.0301412
0.0301629
0.0301822
0.0301992
0.030214
0.0302268
0.0302378
0.0302472
0.0302552
0.0302619
0.0302676
0.0302723
0.0302763
0.0302796
0.0302824
0.0302847
0.0302866
0.0302882
0.0302895
0.0302906
0.0302915
0.0302922
0.0302927
0.0302932
0.0302935
0.0302938
0.0302939
0.030294
0.030294
0.0302939
0.0302938
0.0302935
0.0302932
0.0302927
0.0302922
0.0302915
0.0302906
0.0302895
0.0302882
0.0302866
0.0302847
0.0302824
0.0302796
0.0302763
0.0302723
0.0302676
0.0302619
0.0302552
0.0302472
0.0302378
0.0302268
0.030214
0.0301992
0.0301822
0.0301629
0.0301412
0.0301173
0.030091
0.0360731
0.0361051
0.0361341
0.0361604
0.0361839
0.0362045
0.0362225
0.036238
0.0362513
0.0362627
0.0362724
0.0362806
0.0362875
0.0362932
0.0362981
0.0363021
0.0363055
0.0363083
0.0363106
0.0363126
0.0363141
0.0363154
0.0363165
0.0363174
0.0363181
0.0363186
0.036319
0.0363193
0.0363195
0.0363196
0.0363196
0.0363195
0.0363193
0.036319
0.0363186
0.0363181
0.0363174
0.0363165
0.0363154
0.0363141
0.0363126
0.0363106
0.0363083
0.0363055
0.0363021
0.0362981
0.0362932
0.0362875
0.0362806
0.0362724
0.0362627
0.0362513
0.036238
0.0362225
0.0362045
0.0361839
0.0361604
0.0361341
0.0361051
0.0360731
0.0431078
0.0431456
0.0431798
0.0432106
0.0432381
0.0432623
0.0432833
0.0433015
0.0433172
0.0433305
0.0433419
0.0433515
0.0433596
0.0433664
0.0433721
0.0433769
0.0433808
0.0433841
0.0433869
0.0433891
0.043391
0.0433925
0.0433938
0.0433948
0.0433956
0.0433963
0.0433968
0.0433971
0.0433974
0.0433975
0.0433975
0.0433974
0.0433971
0.0433968
0.0433963
0.0433956
0.0433948
0.0433938
0.0433925
0.043391
0.0433891
0.0433869
0.0433841
0.0433808
0.0433769
0.0433721
0.0433664
0.0433596
0.0433515
0.0433419
0.0433305
0.0433172
0.0433015
0.0432833
0.0432623
0.0432381
0.0432106
0.0431798
0.0431456
0.0431078
0.0510176
0.0510607
0.0510997
0.0511348
0.051166
0.0511934
0.0512174
0.0512381
0.0512559
0.0512711
0.051284
0.051295
0.0513042
0.0513119
0.0513184
0.0513239
0.0513284
0.0513322
0.0513353
0.0513379
0.05134
0.0513418
0.0513432
0.0513444
0.0513453
0.0513461
0.0513466
0.0513471
0.0513473
0.0513474
0.0513474
0.0513473
0.0513471
0.0513466
0.0513461
0.0513453
0.0513444
0.0513432
0.0513418
0.05134
0.0513379
0.0513353
0.0513322
0.0513284
0.0513239
0.0513184
0.0513119
0.0513042
0.051295
0.051284
0.0512711
0.0512559
0.0512381
0.0512174
0.0511934
0.051166
0.0511348
0.0510997
0.0510607
0.0510176
0.059593
0.0596412
0.0596845
0.0597234
0.059758
0.0597885
0.059815
0.059838
0.0598578
0.0598747
0.059889
0.0599012
0.0599114
0.0599201
0.0599273
0.0599334
0.0599384
0.0599426
0.0599461
0.059949
0.0599514
0.0599534
0.059955
0.0599563
0.0599574
0.0599582
0.0599588
0.0599593
0.0599596
0.0599597
0.0599597
0.0599596
0.0599593
0.0599588
0.0599582
0.0599574
0.0599563
0.059955
0.0599534
0.0599514
0.059949
0.0599461
0.0599426
0.0599384
0.0599334
0.0599273
0.0599201
0.0599114
0.0599012
0.059889
0.0598747
0.0598578
0.059838
0.059815
0.0597885
0.059758
0.0597234
0.0596845
0.0596412
0.059593
0.0686516
0.0687044
0.0687517
0.0687942
0.0688319
0.0688651
0.0688941
0.0689191
0.0689407
0.0689591
0.0689748
0.0689881
0.0689994
0.0690088
0.0690167
0.0690234
0.0690289
0.0690335
0.0690374
0.0690406
0.0690432
0.0690454
0.0690471
0.0690486
0.0690497
0.0690507
0.0690513
0.0690518
0.0690522
0.0690523
0.0690523
0.0690522
0.0690518
0.0690513
0.0690507
0.0690497
0.0690486
0.0690471
0.0690454
0.0690432
0.0690406
0.0690374
0.0690335
0.0690289
0.0690234
0.0690167
0.0690088
0.0689994
0.0689881
0.0689748
0.0689591
0.0689407
0.0689191
0.0688941
0.0688651
0.0688319
0.0687942
0.0687517
0.0687044
0.0686516
0.0780622
0.0781193
0.0781704
0.0782161
0.0782568
0.0782925
0.0783238
0.0783508
0.0783741
0.078394
0.0784109
0.0784253
0.0784375
0.0784477
0.0784563
0.0784635
0.0784695
0.0784745
0.0784787
0.0784822
0.078485
0.0784874
0.0784893
0.0784909
0.0784922
0.0784932
0.0784939
0.0784945
0.0784948
0.078495
0.078495
0.0784948
0.0784945
0.0784939
0.0784932
0.0784922
0.0784909
0.0784893
0.0784874
0.078485
0.0784822
0.0784787
0.0784745
0.0784695
0.0784635
0.0784563
0.0784477
0.0784375
0.0784253
0.0784109
0.078394
0.0783741
0.0783508
0.0783238
0.0782925
0.0782568
0.0782161
0.0781704
0.0781193
0.0780622
0.0877412
0.0878025
0.0878572
0.0879061
0.0879496
0.0879878
0.0880212
0.0880502
0.0880751
0.0880964
0.0881146
0.0881301
0.0881431
0.0881542
0.0881634
0.0881712
0.0881776
0.0881831
0.0881876
0.0881913
0.0881944
0.088197
0.0881991
0.0882008
0.0882021
0.0882032
0.088204
0.0882046
0.088205
0.0882052
0.0882052
0.088205
0.0882046
0.088204
0.0882032
0.0882021
0.0882008
0.0881991
0.088197
0.0881944
0.0881913
0.0881876
0.0881831
0.0881776
0.0881712
0.0881634
0.0881542
0.0881431
0.0881301