/*--------------------------------*- C++ -*----------------------------------*\
| =========                 |                                                 |
| \\      /  F ield         | foam-extend: Open Source CFD                    |
|  \\    /   O peration     | Version:     4.0                                |
|   \\  /    A nd           | Web:         http://www.foam-extend.org         |
|    \\/     M anipulation  |                                                 |
\*---------------------------------------------------------------------------*/
FoamFile
{
    version     2.0;
    format      ascii;
    class       volScalarField;
    location    "810";
    object      cMinus;
}
// * * * * * * * * * * * * * * * * * * * * * * * * * * * * * * * * * * * * * //

dimensions      [0 0 0 0 0 0 0];

internalField   nonuniform List<scalar> 
6960
(
2.79425e-17
2.78991e-17
2.78587e-17
2.78394e-17
2.78311e-17
2.7828e-17
2.78273e-17
2.78276e-17
2.78284e-17
2.78294e-17
2.78304e-17
2.78314e-17
2.78324e-17
2.78333e-17
2.78342e-17
2.7835e-17
2.78358e-17
2.78365e-17
2.78372e-17
2.78377e-17
2.78383e-17
2.78388e-17
2.78392e-17
2.78396e-17
2.78399e-17
2.78402e-17
2.78404e-17
2.78406e-17
2.78407e-17
2.78408e-17
2.78408e-17
2.78407e-17
2.78406e-17
2.78404e-17
2.78402e-17
2.78399e-17
2.78396e-17
2.78392e-17
2.78388e-17
2.78383e-17
2.78377e-17
2.78372e-17
2.78365e-17
2.78358e-17
2.7835e-17
2.78342e-17
2.78333e-17
2.78324e-17
2.78314e-17
2.78304e-17
2.78294e-17
2.78284e-17
2.78276e-17
2.78273e-17
2.7828e-17
2.78311e-17
2.78394e-17
2.78587e-17
2.78991e-17
2.79425e-17
1.92978e-16
1.92811e-16
1.92598e-16
1.92497e-16
1.92455e-16
1.92442e-16
1.92443e-16
1.92449e-16
1.92458e-16
1.92469e-16
1.92479e-16
1.9249e-16
1.925e-16
1.9251e-16
1.92519e-16
1.92528e-16
1.92536e-16
1.92544e-16
1.92551e-16
1.92558e-16
1.92564e-16
1.92569e-16
1.92574e-16
1.92579e-16
1.92582e-16
1.92585e-16
1.92588e-16
1.9259e-16
1.92591e-16
1.92592e-16
1.92592e-16
1.92591e-16
1.9259e-16
1.92588e-16
1.92585e-16
1.92582e-16
1.92579e-16
1.92574e-16
1.92569e-16
1.92564e-16
1.92558e-16
1.92551e-16
1.92544e-16
1.92536e-16
1.92528e-16
1.92519e-16
1.9251e-16
1.925e-16
1.9249e-16
1.92479e-16
1.92469e-16
1.92458e-16
1.92449e-16
1.92443e-16
1.92442e-16
1.92455e-16
1.92497e-16
1.92598e-16
1.92811e-16
1.92978e-16
1.28697e-15
1.28681e-15
1.2859e-15
1.28546e-15
1.28529e-15
1.28526e-15
1.28529e-15
1.28534e-15
1.28541e-15
1.28549e-15
1.28557e-15
1.28564e-15
1.28572e-15
1.28579e-15
1.28586e-15
1.28592e-15
1.28598e-15
1.28604e-15
1.28609e-15
1.28614e-15
1.28618e-15
1.28622e-15
1.28626e-15
1.28629e-15
1.28631e-15
1.28634e-15
1.28635e-15
1.28637e-15
1.28638e-15
1.28638e-15
1.28638e-15
1.28638e-15
1.28637e-15
1.28635e-15
1.28634e-15
1.28631e-15
1.28629e-15
1.28626e-15
1.28622e-15
1.28618e-15
1.28614e-15
1.28609e-15
1.28604e-15
1.28598e-15
1.28592e-15
1.28586e-15
1.28579e-15
1.28572e-15
1.28564e-15
1.28557e-15
1.28549e-15
1.28541e-15
1.28534e-15
1.28529e-15
1.28526e-15
1.28529e-15
1.28546e-15
1.2859e-15
1.28681e-15
1.28697e-15
8.75727e-15
8.76278e-15
8.76021e-15
8.75888e-15
8.75849e-15
8.75861e-15
8.75897e-15
8.75946e-15
8.75999e-15
8.76055e-15
8.76111e-15
8.76166e-15
8.76219e-15
8.76269e-15
8.76318e-15
8.76364e-15
8.76407e-15
8.76447e-15
8.76484e-15
8.76519e-15
8.7655e-15
8.76579e-15
8.76604e-15
8.76626e-15
8.76646e-15
8.76662e-15
8.76674e-15
8.76684e-15
8.7669e-15
8.76694e-15
8.76694e-15
8.7669e-15
8.76684e-15
8.76674e-15
8.76662e-15
8.76646e-15
8.76626e-15
8.76604e-15
8.76579e-15
8.7655e-15
8.76519e-15
8.76484e-15
8.76447e-15
8.76407e-15
8.76364e-15
8.76318e-15
8.76269e-15
8.76219e-15
8.76166e-15
8.76111e-15
8.76055e-15
8.75999e-15
8.75946e-15
8.75897e-15
8.75861e-15
8.75849e-15
8.75888e-15
8.76021e-15
8.76278e-15
8.75727e-15
6.11032e-14
6.11878e-14
6.11951e-14
6.11976e-14
6.12002e-14
6.12034e-14
6.12071e-14
6.12111e-14
6.12152e-14
6.12193e-14
6.12234e-14
6.12273e-14
6.12311e-14
6.12348e-14
6.12383e-14
6.12416e-14
6.12447e-14
6.12476e-14
6.12503e-14
6.12528e-14
6.1255e-14
6.12571e-14
6.12589e-14
6.12605e-14
6.12619e-14
6.1263e-14
6.12639e-14
6.12646e-14
6.12651e-14
6.12653e-14
6.12653e-14
6.12651e-14
6.12646e-14
6.12639e-14
6.1263e-14
6.12619e-14
6.12605e-14
6.12589e-14
6.12571e-14
6.1255e-14
6.12528e-14
6.12503e-14
6.12476e-14
6.12447e-14
6.12416e-14
6.12383e-14
6.12348e-14
6.12311e-14
6.12273e-14
6.12234e-14
6.12193e-14
6.12152e-14
6.12111e-14
6.12071e-14
6.12034e-14
6.12002e-14
6.11976e-14
6.11951e-14
6.11878e-14
6.11032e-14
4.35327e-13
4.36254e-13
4.36485e-13
4.36585e-13
4.3664e-13
4.3668e-13
4.36714e-13
4.36747e-13
4.36778e-13
4.36809e-13
4.36838e-13
4.36867e-13
4.36895e-13
4.36922e-13
4.36947e-13
4.36971e-13
4.36993e-13
4.37014e-13
4.37034e-13
4.37052e-13
4.37068e-13
4.37083e-13
4.37096e-13
4.37108e-13
4.37118e-13
4.37126e-13
4.37133e-13
4.37138e-13
4.37141e-13
4.37143e-13
4.37143e-13
4.37141e-13
4.37138e-13
4.37133e-13
4.37126e-13
4.37118e-13
4.37108e-13
4.37096e-13
4.37083e-13
4.37068e-13
4.37052e-13
4.37034e-13
4.37014e-13
4.36993e-13
4.36971e-13
4.36947e-13
4.36922e-13
4.36895e-13
4.36867e-13
4.36838e-13
4.36809e-13
4.36778e-13
4.36747e-13
4.36714e-13
4.3668e-13
4.3664e-13
4.36585e-13
4.36485e-13
4.36254e-13
4.35327e-13
3.14556e-12
3.15452e-12
3.15745e-12
3.15875e-12
3.15942e-12
3.15982e-12
3.16012e-12
3.16038e-12
3.16062e-12
3.16085e-12
3.16107e-12
3.16128e-12
3.16148e-12
3.16168e-12
3.16186e-12
3.16204e-12
3.1622e-12
3.16235e-12
3.16249e-12
3.16263e-12
3.16274e-12
3.16285e-12
3.16295e-12
3.16303e-12
3.1631e-12
3.16316e-12
3.16321e-12
3.16325e-12
3.16327e-12
3.16329e-12
3.16329e-12
3.16327e-12
3.16325e-12
3.16321e-12
3.16316e-12
3.1631e-12
3.16303e-12
3.16295e-12
3.16285e-12
3.16274e-12
3.16263e-12
3.16249e-12
3.16235e-12
3.1622e-12
3.16204e-12
3.16186e-12
3.16168e-12
3.16148e-12
3.16128e-12
3.16107e-12
3.16085e-12
3.16062e-12
3.16038e-12
3.16012e-12
3.15982e-12
3.15942e-12
3.15875e-12
3.15745e-12
3.15452e-12
3.14556e-12
2.28627e-11
2.29435e-11
2.29736e-11
2.29871e-11
2.29937e-11
2.29975e-11
2.3e-11
2.30021e-11
2.30039e-11
2.30056e-11
2.30072e-11
2.30087e-11
2.30102e-11
2.30116e-11
2.3013e-11
2.30142e-11
2.30154e-11
2.30165e-11
2.30175e-11
2.30185e-11
2.30193e-11
2.30201e-11
2.30208e-11
2.30214e-11
2.30219e-11
2.30224e-11
2.30227e-11
2.3023e-11
2.30232e-11
2.30232e-11
2.30232e-11
2.30232e-11
2.3023e-11
2.30227e-11
2.30224e-11
2.30219e-11
2.30214e-11
2.30208e-11
2.30201e-11
2.30193e-11
2.30185e-11
2.30175e-11
2.30165e-11
2.30154e-11
2.30142e-11
2.3013e-11
2.30116e-11
2.30102e-11
2.30087e-11
2.30072e-11
2.30056e-11
2.30039e-11
2.30021e-11
2.3e-11
2.29975e-11
2.29937e-11
2.29871e-11
2.29736e-11
2.29435e-11
2.28627e-11
1.65546e-10
1.66238e-10
1.66514e-10
1.6664e-10
1.667e-10
1.66732e-10
1.66753e-10
1.66769e-10
1.66783e-10
1.66795e-10
1.66807e-10
1.66818e-10
1.66829e-10
1.66839e-10
1.66848e-10
1.66857e-10
1.66866e-10
1.66874e-10
1.66881e-10
1.66888e-10
1.66894e-10
1.669e-10
1.66904e-10
1.66909e-10
1.66913e-10
1.66916e-10
1.66918e-10
1.6692e-10
1.66921e-10
1.66922e-10
1.66922e-10
1.66921e-10
1.6692e-10
1.66918e-10
1.66916e-10
1.66913e-10
1.66909e-10
1.66904e-10
1.669e-10
1.66894e-10
1.66888e-10
1.66881e-10
1.66874e-10
1.66866e-10
1.66857e-10
1.66848e-10
1.66839e-10
1.66829e-10
1.66818e-10
1.66807e-10
1.66795e-10
1.66783e-10
1.66769e-10
1.66753e-10
1.66732e-10
1.667e-10
1.6664e-10
1.66514e-10
1.66238e-10
1.65546e-10
1.18116e-09
1.18678e-09
1.18914e-09
1.19021e-09
1.19072e-09
1.19099e-09
1.19115e-09
1.19127e-09
1.19137e-09
1.19146e-09
1.19154e-09
1.19162e-09
1.1917e-09
1.19177e-09
1.19183e-09
1.1919e-09
1.19196e-09
1.19201e-09
1.19206e-09
1.19211e-09
1.19215e-09
1.19219e-09
1.19223e-09
1.19226e-09
1.19228e-09
1.1923e-09
1.19232e-09
1.19234e-09
1.19234e-09
1.19235e-09
1.19235e-09
1.19234e-09
1.19234e-09
1.19232e-09
1.1923e-09
1.19228e-09
1.19226e-09
1.19223e-09
1.19219e-09
1.19215e-09
1.19211e-09
1.19206e-09
1.19201e-09
1.19196e-09
1.1919e-09
1.19183e-09
1.19177e-09
1.1917e-09
1.19162e-09
1.19154e-09
1.19146e-09
1.19137e-09
1.19127e-09
1.19115e-09
1.19099e-09
1.19072e-09
1.19021e-09
1.18914e-09
1.18678e-09
1.18116e-09
8.20342e-09
8.24662e-09
8.26535e-09
8.27388e-09
8.27789e-09
8.27995e-09
8.28117e-09
8.28204e-09
8.28273e-09
8.28335e-09
8.28392e-09
8.28445e-09
8.28496e-09
8.28544e-09
8.2859e-09
8.28632e-09
8.28673e-09
8.2871e-09
8.28745e-09
8.28777e-09
8.28806e-09
8.28832e-09
8.28855e-09
8.28876e-09
8.28893e-09
8.28908e-09
8.2892e-09
8.28929e-09
8.28935e-09
8.28938e-09
8.28938e-09
8.28935e-09
8.28929e-09
8.2892e-09
8.28908e-09
8.28893e-09
8.28876e-09
8.28855e-09
8.28832e-09
8.28806e-09
8.28777e-09
8.28745e-09
8.2871e-09
8.28673e-09
8.28632e-09
8.2859e-09
8.28544e-09
8.28496e-09
8.28445e-09
8.28392e-09
8.28335e-09
8.28273e-09
8.28204e-09
8.28117e-09
8.27995e-09
8.27789e-09
8.27388e-09
8.26535e-09
8.24662e-09
8.20342e-09
5.47269e-08
5.50382e-08
5.51763e-08
5.52392e-08
5.52686e-08
5.52834e-08
5.5292e-08
5.52979e-08
5.53026e-08
5.53067e-08
5.53104e-08
5.53138e-08
5.53171e-08
5.53202e-08
5.53232e-08
5.53259e-08
5.53285e-08
5.53309e-08
5.53331e-08
5.53352e-08
5.53371e-08
5.53388e-08
5.53403e-08
5.53416e-08
5.53427e-08
5.53437e-08
5.53444e-08
5.5345e-08
5.53454e-08
5.53456e-08
5.53456e-08
5.53454e-08
5.5345e-08
5.53444e-08
5.53437e-08
5.53427e-08
5.53416e-08
5.53403e-08
5.53388e-08
5.53371e-08
5.53352e-08
5.53331e-08
5.53309e-08
5.53285e-08
5.53259e-08
5.53232e-08
5.53202e-08
5.53171e-08
5.53138e-08
5.53104e-08
5.53067e-08
5.53026e-08
5.52979e-08
5.5292e-08
5.52834e-08
5.52686e-08
5.52392e-08
5.51763e-08
5.50382e-08
5.47269e-08
3.4575e-07
3.47828e-07
3.48765e-07
3.49192e-07
3.4939e-07
3.49489e-07
3.49546e-07
3.49583e-07
3.49613e-07
3.49638e-07
3.4966e-07
3.49682e-07
3.49702e-07
3.4972e-07
3.49738e-07
3.49755e-07
3.4977e-07
3.49785e-07
3.49798e-07
3.49811e-07
3.49822e-07
3.49832e-07
3.49841e-07
3.49849e-07
3.49856e-07
3.49862e-07
3.49867e-07
3.4987e-07
3.49872e-07
3.49873e-07
3.49873e-07
3.49872e-07
3.4987e-07
3.49867e-07
3.49862e-07
3.49856e-07
3.49849e-07
3.49841e-07
3.49832e-07
3.49822e-07
3.49811e-07
3.49798e-07
3.49785e-07
3.4977e-07
3.49755e-07
3.49738e-07
3.4972e-07
3.49702e-07
3.49682e-07
3.4966e-07
3.49638e-07
3.49613e-07
3.49583e-07
3.49546e-07
3.49489e-07
3.4939e-07
3.49192e-07
3.48765e-07
3.47828e-07
3.4575e-07
2.03801e-06
2.05069e-06
2.05648e-06
2.05911e-06
2.06033e-06
2.06093e-06
2.06127e-06
2.06149e-06
2.06166e-06
2.0618e-06
2.06193e-06
2.06205e-06
2.06216e-06
2.06227e-06
2.06237e-06
2.06246e-06
2.06255e-06
2.06263e-06
2.06271e-06
2.06278e-06
2.06284e-06
2.0629e-06
2.06295e-06
2.06299e-06
2.06303e-06
2.06306e-06
2.06309e-06
2.06311e-06
2.06312e-06
2.06312e-06
2.06312e-06
2.06312e-06
2.06311e-06
2.06309e-06
2.06306e-06
2.06303e-06
2.06299e-06
2.06295e-06
2.0629e-06
2.06284e-06
2.06278e-06
2.06271e-06
2.06263e-06
2.06255e-06
2.06246e-06
2.06237e-06
2.06227e-06
2.06216e-06
2.06205e-06
2.06193e-06
2.0618e-06
2.06166e-06
2.06149e-06
2.06127e-06
2.06093e-06
2.06033e-06
2.05911e-06
2.05648e-06
2.05069e-06
2.03801e-06
1.10361e-05
1.11058e-05
1.11378e-05
1.11524e-05
1.11592e-05
1.11625e-05
1.11643e-05
1.11655e-05
1.11664e-05
1.11671e-05
1.11678e-05
1.11684e-05
1.11689e-05
1.11695e-05
1.117e-05
1.11705e-05
1.11709e-05
1.11713e-05
1.11717e-05
1.1172e-05
1.11724e-05
1.11727e-05
1.11729e-05
1.11731e-05
1.11733e-05
1.11735e-05
1.11736e-05
1.11737e-05
1.11738e-05
1.11738e-05
1.11738e-05
1.11738e-05
1.11737e-05
1.11736e-05
1.11735e-05
1.11733e-05
1.11731e-05
1.11729e-05
1.11727e-05
1.11724e-05
1.1172e-05
1.11717e-05
1.11713e-05
1.11709e-05
1.11705e-05
1.117e-05
1.11695e-05
1.11689e-05
1.11684e-05
1.11678e-05
1.11671e-05
1.11664e-05
1.11655e-05
1.11643e-05
1.11625e-05
1.11592e-05
1.11524e-05
1.11378e-05
1.11058e-05
1.10361e-05
5.40318e-05
5.43713e-05
5.45279e-05
5.45992e-05
5.46321e-05
5.46482e-05
5.46569e-05
5.46625e-05
5.46666e-05
5.467e-05
5.4673e-05
5.46758e-05
5.46784e-05
5.46808e-05
5.46831e-05
5.46852e-05
5.46872e-05
5.46891e-05
5.46908e-05
5.46924e-05
5.46939e-05
5.46952e-05
5.46963e-05
5.46974e-05
5.46982e-05
5.4699e-05
5.46996e-05
5.47e-05
5.47003e-05
5.47004e-05
5.47004e-05
5.47003e-05
5.47e-05
5.46996e-05
5.4699e-05
5.46982e-05
5.46974e-05
5.46963e-05
5.46952e-05
5.46939e-05
5.46924e-05
5.46908e-05
5.46891e-05
5.46872e-05
5.46852e-05
5.46831e-05
5.46808e-05
5.46784e-05
5.46758e-05
5.4673e-05
5.467e-05
5.46666e-05
5.46625e-05
5.46569e-05
5.46482e-05
5.46321e-05
5.45992e-05
5.45279e-05
5.43713e-05
5.40318e-05
0.000235246
0.000236685
0.00023735
0.000237653
0.000237792
0.00023786
0.000237896
0.000237919
0.000237936
0.00023795
0.000237962
0.000237973
0.000237983
0.000237993
0.000238002
0.00023801
0.000238018
0.000238026
0.000238033
0.000238039
0.000238045
0.00023805
0.000238054
0.000238058
0.000238062
0.000238065
0.000238067
0.000238069
0.00023807
0.000238071
0.000238071
0.00023807
0.000238069
0.000238067
0.000238065
0.000238062
0.000238058
0.000238054
0.00023805
0.000238045
0.000238039
0.000238033
0.000238026
0.000238018
0.00023801
0.000238002
0.000237993
0.000237983
0.000237973
0.000237962
0.00023795
0.000237936
0.000237919
0.000237896
0.00023786
0.000237792
0.000237653
0.00023735
0.000236685
0.000235246
0.000895405
0.000900603
0.000903009
0.000904103
0.000904606
0.000904849
0.000904979
0.00090506
0.000905118
0.000905165
0.000905206
0.000905244
0.000905279
0.000905312
0.000905343
0.000905372
0.000905399
0.000905424
0.000905447
0.000905468
0.000905488
0.000905505
0.000905521
0.000905535
0.000905546
0.000905556
0.000905564
0.00090557
0.000905574
0.000905576
0.000905576
0.000905574
0.00090557
0.000905564
0.000905556
0.000905546
0.000905535
0.000905521
0.000905505
0.000905488
0.000905468
0.000905447
0.000905424
0.000905399
0.000905372
0.000905343
0.000905312
0.000905279
0.000905244
0.000905206
0.000905165
0.000905118
0.00090506
0.000904979
0.000904849
0.000904606
0.000904103
0.000903009
0.000900603
0.000895405
0.00292908
0.00294476
0.00295201
0.0029553
0.00295682
0.00295755
0.00295793
0.00295817
0.00295834
0.00295848
0.00295859
0.0029587
0.0029588
0.0029589
0.00295898
0.00295906
0.00295914
0.00295921
0.00295928
0.00295934
0.00295939
0.00295944
0.00295949
0.00295953
0.00295956
0.00295959
0.00295961
0.00295963
0.00295964
0.00295964
0.00295964
0.00295964
0.00295963
0.00295961
0.00295959
0.00295956
0.00295953
0.00295949
0.00295944
0.00295939
0.00295934
0.00295928
0.00295921
0.00295914
0.00295906
0.00295898
0.0029589
0.0029588
0.0029587
0.00295859
0.00295848
0.00295834
0.00295817
0.00295793
0.00295755
0.00295682
0.0029553
0.00295201
0.00294476
0.00292908
0.00811208
0.0081508
0.00816867
0.00817679
0.00818051
0.0081823
0.00818325
0.00818382
0.00818422
0.00818454
0.00818482
0.00818507
0.00818531
0.00818553
0.00818573
0.00818592
0.0081861
0.00818627
0.00818642
0.00818656
0.00818669
0.0081868
0.00818691
0.008187
0.00818707
0.00818714
0.00818719
0.00818723
0.00818726
0.00818727
0.00818727
0.00818726
0.00818723
0.00818719
0.00818714
0.00818707
0.008187
0.00818691
0.0081868
0.00818669
0.00818656
0.00818642
0.00818627
0.0081861
0.00818592
0.00818573
0.00818553
0.00818531
0.00818507
0.00818482
0.00818454
0.00818422
0.00818382
0.00818325
0.0081823
0.00818051
0.00817679
0.00816867
0.0081508
0.00811208
0.0188546
0.0189321
0.0189677
0.0189839
0.0189914
0.0189949
0.0189968
0.0189979
0.0189987
0.0189993
0.0189998
0.0190003
0.0190007
0.0190012
0.0190015
0.0190019
0.0190022
0.0190025
0.0190028
0.0190031
0.0190033
0.0190036
0.0190037
0.0190039
0.0190041
0.0190042
0.0190043
0.0190044
0.0190044
0.0190044
0.0190044
0.0190044
0.0190044
0.0190043
0.0190042
0.0190041
0.0190039
0.0190037
0.0190036
0.0190033
0.0190031
0.0190028
0.0190025
0.0190022
0.0190019
0.0190015
0.0190012
0.0190007
0.0190003
0.0189998
0.0189993
0.0189987
0.0189979
0.0189968
0.0189949
0.0189914
0.0189839
0.0189677
0.0189321
0.0188546
0.0368831
0.0370095
0.0370675
0.0370938
0.0371059
0.0371117
0.0371147
0.0371165
0.0371177
0.0371187
0.0371195
0.0371202
0.0371209
0.0371215
0.0371221
0.0371227
0.0371232
0.0371237
0.0371241
0.0371245
0.0371249
0.0371252
0.0371255
0.0371258
0.037126
0.0371262
0.0371263
0.0371264
0.0371265
0.0371265
0.0371265
0.0371265
0.0371264
0.0371263
0.0371262
0.037126
0.0371258
0.0371255
0.0371252
0.0371249
0.0371245
0.0371241
0.0371237
0.0371232
0.0371227
0.0371221
0.0371215
0.0371209
0.0371202
0.0371195
0.0371187
0.0371177
0.0371165
0.0371147
0.0371117
0.0371059
0.0370938
0.0370675
0.0370095
0.0368831
0.0617798
0.0619533
0.0620326
0.0620687
0.0620852
0.0620931
0.0620972
0.0620996
0.0621012
0.0621025
0.0621036
0.0621045
0.0621054
0.0621062
0.062107
0.0621077
0.0621083
0.0621089
0.0621095
0.06211
0.0621105
0.0621109
0.0621113
0.0621116
0.0621119
0.0621121
0.0621123
0.0621125
0.0621126
0.0621126
0.0621126
0.0621126
0.0621125
0.0621123
0.0621121
0.0621119
0.0621116
0.0621113
0.0621109
0.0621105
0.06211
0.0621095
0.0621089
0.0621083
0.0621077
0.062107
0.0621062
0.0621054
0.0621045
0.0621036
0.0621025
0.0621012
0.0620996
0.0620972
0.0620931
0.0620852
0.0620687
0.0620326
0.0619533
0.0617798
0.0911694
0.0913797
0.0914756
0.0915193
0.0915394
0.0915489
0.0915538
0.0915567
0.0915586
0.0915601
0.0915613
0.0915624
0.0915634
0.0915643
0.0915651
0.0915659
0.0915667
0.0915674
0.091568
0.0915686
0.0915691
0.0915696
0.09157
0.0915704
0.0915707
0.091571
0.0915712
0.0915714
0.0915715
0.0915715
0.0915715
0.0915715
0.0915714
0.0915712
0.091571
0.0915707
0.0915704
0.09157
0.0915696
0.0915691
0.0915686
0.091568
0.0915674
0.0915667
0.0915659
0.0915651
0.0915643
0.0915634
0.0915624
0.0915613
0.0915601
0.0915586
0.0915567
0.0915538
0.0915489
0.0915394
0.0915193
0.0914756
0.0913797
0.0911694
0.122388
0.122625
0.122732
0.122782
0.122804
0.122815
0.122821
0.122824
0.122826
0.122827
0.122829
0.12283
0.122831
0.122832
0.122833
0.122834
0.122834
0.122835
0.122836
0.122836
0.122837
0.122838
0.122838
0.122838
0.122839
0.122839
0.122839
0.122839
0.122839
0.12284
0.12284
0.122839
0.122839
0.122839
0.122839
0.122839
0.122838
0.122838
0.122838
0.122837
0.122836
0.122836
0.122835
0.122834
0.122834
0.122833
0.122832
0.122831
0.12283
0.122829
0.122827
0.122826
0.122824
0.122821
0.122815
0.122804
0.122782
0.122732
0.122625
0.122388
0.153729
0.153986
0.154103
0.154157
0.154181
0.154193
0.154199
0.154203
0.154205
0.154207
0.154208
0.154209
0.15421
0.154211
0.154212
0.154213
0.154214
0.154214
0.154215
0.154216
0.154216
0.154217
0.154217
0.154218
0.154218
0.154218
0.154218
0.154219
0.154219
0.154219
0.154219
0.154219
0.154219
0.154218
0.154218
0.154218
0.154218
0.154217
0.154217
0.154216
0.154216
0.154215
0.154214
0.154214
0.154213
0.154212
0.154211
0.15421
0.154209
0.154208
0.154207
0.154205
0.154203
0.154199
0.154193
0.154181
0.154157
0.154103
0.153986
0.153729
0.184504
0.184777
0.184903
0.18496
0.184987
0.185
0.185006
0.18501
0.185012
0.185014
0.185015
0.185017
0.185018
0.185019
0.185019
0.18502
0.185021
0.185022
0.185023
0.185023
0.185024
0.185024
0.185025
0.185025
0.185025
0.185026
0.185026
0.185026
0.185026
0.185026
0.185026
0.185026
0.185026
0.185026
0.185026
0.185025
0.185025
0.185025
0.185024
0.185024
0.185023
0.185023
0.185022
0.185021
0.18502
0.185019
0.185019
0.185018
0.185017
0.185015
0.185014
0.185012
0.18501
0.185006
0.185
0.184987
0.18496
0.184903
0.184777
0.184504
0.214567
0.214856
0.21499
0.215052
0.21508
0.215094
0.215101
0.215105
0.215107
0.215109
0.215111
0.215112
0.215113
0.215114
0.215115
0.215116
0.215116
0.215117
0.215118
0.215118
0.215119
0.215119
0.21512
0.21512
0.215121
0.215121
0.215121
0.215121
0.215121
0.215121
0.215121
0.215121
0.215121
0.215121
0.215121
0.215121
0.21512
0.21512
0.215119
0.215119
0.215118
0.215118
0.215117
0.215116
0.215116
0.215115
0.215114
0.215113
0.215112
0.215111
0.215109
0.215107
0.215105
0.215101
0.215094
0.21508
0.215052
0.21499
0.214856
0.214567
0.243948
0.244252
0.244394
0.244459
0.24449
0.244505
0.244512
0.244516
0.244519
0.244521
0.244522
0.244523
0.244524
0.244525
0.244526
0.244527
0.244528
0.244529
0.244529
0.24453
0.244531
0.244531
0.244531
0.244532
0.244532
0.244532
0.244533
0.244533
0.244533
0.244533
0.244533
0.244533
0.244533
0.244533
0.244532
0.244532
0.244532
0.244531
0.244531
0.244531
0.24453
0.244529
0.244529
0.244528
0.244527
0.244526
0.244525
0.244524
0.244523
0.244522
0.244521
0.244519
0.244516
0.244512
0.244505
0.24449
0.244459
0.244394
0.244252
0.243948
0.272689
0.273006
0.273155
0.273225
0.273258
0.273274
0.273282
0.273286
0.273289
0.273291
0.273292
0.273293
0.273294
0.273295
0.273296
0.273297
0.273298
0.273298
0.273299
0.2733
0.2733
0.273301
0.273301
0.273302
0.273302
0.273302
0.273302
0.273303
0.273303
0.273303
0.273303
0.273303
0.273303
0.273302
0.273302
0.273302
0.273302
0.273301
0.273301
0.2733
0.2733
0.273299
0.273298
0.273298
0.273297
0.273296
0.273295
0.273294
0.273293
0.273292
0.273291
0.273289
0.273286
0.273282
0.273274
0.273258
0.273225
0.273155
0.273006
0.272689
0.300809
0.301138
0.301295
0.301369
0.301403
0.30142
0.301429
0.301433
0.301436
0.301438
0.30144
0.301441
0.301442
0.301443
0.301444
0.301445
0.301445
0.301446
0.301447
0.301447
0.301448
0.301448
0.301449
0.301449
0.30145
0.30145
0.30145
0.30145
0.30145
0.30145
0.30145
0.30145
0.30145
0.30145
0.30145
0.30145
0.301449
0.301449
0.301448
0.301448
0.301447
0.301447
0.301446
0.301445
0.301445
0.301444
0.301443
0.301442
0.301441
0.30144
0.301438
0.301436
0.301433
0.301429
0.30142
0.301403
0.301369
0.301295
0.301138
0.300809
0.32831
0.32865
0.328814
0.328892
0.328929
0.328947
0.328956
0.328961
0.328964
0.328966
0.328967
0.328968
0.32897
0.32897
0.328971
0.328972
0.328973
0.328974
0.328974
0.328975
0.328975
0.328976
0.328976
0.328977
0.328977
0.328977
0.328977
0.328978
0.328978
0.328978
0.328978
0.328978
0.328978
0.328977
0.328977
0.328977
0.328977
0.328976
0.328976
0.328975
0.328975
0.328974
0.328974
0.328973
0.328972
0.328971
0.32897
0.32897
0.328968
0.328967
0.328966
0.328964
0.328961
0.328956
0.328947
0.328929
0.328892
0.328814
0.32865
0.32831
0.355185
0.355535
0.355705
0.355787
0.355826
0.355846
0.355855
0.35586
0.355864
0.355866
0.355867
0.355868
0.355869
0.35587
0.355871
0.355872
0.355873
0.355874
0.355874
0.355875
0.355875
0.355876
0.355876
0.355877
0.355877
0.355877
0.355877
0.355877
0.355878
0.355878
0.355878
0.355878
0.355877
0.355877
0.355877
0.355877
0.355877
0.355876
0.355876
0.355875
0.355875
0.355874
0.355874
0.355873
0.355872
0.355871
0.35587
0.355869
0.355868
0.355867
0.355866
0.355864
0.35586
0.355855
0.355846
0.355826
0.355787
0.355705
0.355535
0.355185
0.381423
0.381781
0.381958
0.382044
0.382086
0.382106
0.382116
0.382122
0.382125
0.382127
0.382129
0.38213
0.382131
0.382132
0.382133
0.382134
0.382134
0.382135
0.382136
0.382136
0.382137
0.382137
0.382138
0.382138
0.382138
0.382139
0.382139
0.382139
0.382139
0.382139
0.382139
0.382139
0.382139
0.382139
0.382139
0.382138
0.382138
0.382138
0.382137
0.382137
0.382136
0.382136
0.382135
0.382134
0.382134
0.382133
0.382132
0.382131
0.38213
0.382129
0.382127
0.382125
0.382122
0.382116
0.382106
0.382086
0.382044
0.381958
0.381781
0.381423
0.407013
0.407379
0.407562
0.407651
0.407695
0.407717
0.407728
0.407733
0.407737
0.407739
0.407741
0.407742
0.407743
0.407744
0.407745
0.407746
0.407746
0.407747
0.407748
0.407748
0.407749
0.407749
0.407749
0.40775
0.40775
0.40775
0.407751
0.407751
0.407751
0.407751
0.407751
0.407751
0.407751
0.407751
0.40775
0.40775
0.40775
0.407749
0.407749
0.407749
0.407748
0.407748
0.407747
0.407746
0.407746
0.407745
0.407744
0.407743
0.407742
0.407741
0.407739
0.407737
0.407733
0.407728
0.407717
0.407695
0.407651
0.407562
0.407379
0.407013
0.431945
0.432317
0.432505
0.432599
0.432645
0.432668
0.432679
0.432685
0.432689
0.432691
0.432693
0.432694
0.432695
0.432696
0.432697
0.432698
0.432698
0.432699
0.4327
0.4327
0.432701
0.432701
0.432701
0.432702
0.432702
0.432702
0.432703
0.432703
0.432703
0.432703
0.432703
0.432703
0.432703
0.432703
0.432702
0.432702
0.432702
0.432701
0.432701
0.432701
0.4327
0.4327
0.432699
0.432698
0.432698
0.432697
0.432696
0.432695
0.432694
0.432693
0.432691
0.432689
0.432685
0.432679
0.432668
0.432645
0.432599
0.432505
0.432317
0.431945
0.45621
0.456587
0.456781
0.456878
0.456926
0.45695
0.456962
0.456969
0.456972
0.456975
0.456976
0.456978
0.456979
0.45698
0.45698
0.456981
0.456982
0.456982
0.456983
0.456984
0.456984
0.456985
0.456985
0.456985
0.456986
0.456986
0.456986
0.456986
0.456986
0.456986
0.456986
0.456986
0.456986
0.456986
0.456986
0.456986
0.456985
0.456985
0.456985
0.456984
0.456984
0.456983
0.456982
0.456982
0.456981
0.45698
0.45698
0.456979
0.456978
0.456976
0.456975
0.456972
0.456969
0.456962
0.45695
0.456926
0.456878
0.456781
0.456587
0.45621
0.479802
0.480182
0.48038
0.480481
0.480531
0.480556
0.480569
0.480576
0.48058
0.480583
0.480584
0.480586
0.480587
0.480588
0.480589
0.480589
0.48059
0.480591
0.480591
0.480592
0.480592
0.480592
0.480593
0.480593
0.480593
0.480594
0.480594
0.480594
0.480594
0.480594
0.480594
0.480594
0.480594
0.480594
0.480594
0.480593
0.480593
0.480593
0.480592
0.480592
0.480592
0.480591
0.480591
0.48059
0.480589
0.480589
0.480588
0.480587
0.480586
0.480584
0.480583
0.48058
0.480576
0.480569
0.480556
0.480531
0.480481
0.48038
0.480182
0.479802
0.502714
0.503097
0.5033
0.503403
0.503456
0.503483
0.503496
0.503504
0.503508
0.503511
0.503512
0.503514
0.503515
0.503515
0.503516
0.503517
0.503518
0.503518
0.503519
0.503519
0.50352
0.50352
0.50352
0.503521
0.503521
0.503521
0.503521
0.503522
0.503522
0.503522
0.503522
0.503522
0.503522
0.503521
0.503521
0.503521
0.503521
0.50352
0.50352
0.50352
0.503519
0.503519
0.503518
0.503518
0.503517
0.503516
0.503515
0.503515
0.503514
0.503512
0.503511
0.503508
0.503504
0.503496
0.503483
0.503456
0.503403
0.5033
0.503097
0.502714
0.524945
0.525329
0.525536
0.525643
0.525698
0.525726
0.52574
0.525748
0.525752
0.525755
0.525757
0.525758
0.525759
0.52576
0.525761
0.525761
0.525762
0.525763
0.525763
0.525764
0.525764
0.525764
0.525765
0.525765
0.525765
0.525765
0.525766
0.525766
0.525766
0.525766
0.525766
0.525766
0.525766
0.525766
0.525765
0.525765
0.525765
0.525765
0.525764
0.525764
0.525764
0.525763
0.525763
0.525762
0.525761
0.525761
0.52576
0.525759
0.525758
0.525757
0.525755
0.525752
0.525748
0.52574
0.525726
0.525698
0.525643
0.525536
0.525329
0.524945
0.546493
0.546878
0.547088
0.547198
0.547255
0.547284
0.547299
0.547308
0.547312
0.547315
0.547317
0.547318
0.547319
0.54732
0.547321
0.547321
0.547322
0.547323
0.547323
0.547324
0.547324
0.547324
0.547325
0.547325
0.547325
0.547325
0.547326
0.547326
0.547326
0.547326
0.547326
0.547326
0.547326
0.547326
0.547325
0.547325
0.547325
0.547325
0.547324
0.547324
0.547324
0.547323
0.547323
0.547322
0.547321
0.547321
0.54732
0.547319
0.547318
0.547317
0.547315
0.547312
0.547308
0.547299
0.547284
0.547255
0.547198
0.547088
0.546878
0.546493
0.567359
0.567743
0.567956
0.568069
0.568128
0.568159
0.568175
0.568184
0.568188
0.568191
0.568193
0.568195
0.568196
0.568197
0.568197
0.568198
0.568198
0.568199
0.568199
0.5682
0.5682
0.568201
0.568201
0.568201
0.568201
0.568202
0.568202
0.568202
0.568202
0.568202
0.568202
0.568202
0.568202
0.568202
0.568202
0.568201
0.568201
0.568201
0.568201
0.5682
0.5682
0.568199
0.568199
0.568198
0.568198
0.568197
0.568197
0.568196
0.568195
0.568193
0.568191
0.568188
0.568184
0.568175
0.568159
0.568128
0.568069
0.567956
0.567743
0.567359
0.587546
0.587928
0.588143
0.588259
0.58832
0.588352
0.588369
0.588378
0.588384
0.588387
0.588389
0.58839
0.588391
0.588392
0.588393
0.588393
0.588394
0.588394
0.588395
0.588395
0.588396
0.588396
0.588396
0.588396
0.588397
0.588397
0.588397
0.588397
0.588397
0.588397
0.588397
0.588397
0.588397
0.588397
0.588397
0.588397
0.588396
0.588396
0.588396
0.588396
0.588395
0.588395
0.588394
0.588394
0.588393
0.588393
0.588392
0.588391
0.58839
0.588389
0.588387
0.588384
0.588378
0.588369
0.588352
0.58832
0.588259
0.588143
0.587928
0.587546
0.607056
0.607437
0.607654
0.607772
0.607835
0.607869
0.607887
0.607896
0.607902
0.607905
0.607907
0.607908
0.607909
0.60791
0.607911
0.607911
0.607912
0.607912
0.607913
0.607913
0.607914
0.607914
0.607914
0.607914
0.607915
0.607915
0.607915
0.607915
0.607915
0.607915
0.607915
0.607915
0.607915
0.607915
0.607915
0.607915
0.607914
0.607914
0.607914
0.607914
0.607913
0.607913
0.607912
0.607912
0.607911
0.607911
0.60791
0.607909
0.607908
0.607907
0.607905
0.607902
0.607896
0.607887
0.607869
0.607835
0.607772
0.607654
0.607437
0.607056
0.625897
0.626274
0.626493
0.626614
0.626679
0.626713
0.626732
0.626742
0.626748
0.626751
0.626754
0.626755
0.626756
0.626757
0.626758
0.626758
0.626759
0.626759
0.626759
0.62676
0.62676
0.62676
0.626761
0.626761
0.626761
0.626761
0.626761
0.626762
0.626762
0.626762
0.626762
0.626762
0.626762
0.626761
0.626761
0.626761
0.626761
0.626761
0.62676
0.62676
0.62676
0.626759
0.626759
0.626759
0.626758
0.626758
0.626757
0.626756
0.626755
0.626754
0.626751
0.626748
0.626742
0.626732
0.626713
0.626679
0.626614
0.626493
0.626274
0.625897
0.644074
0.644448
0.644667
0.64479
0.644857
0.644893
0.644913
0.644924
0.64493
0.644933
0.644936
0.644937
0.644938
0.644939
0.644939
0.64494
0.644941
0.644941
0.644941
0.644942
0.644942
0.644942
0.644943
0.644943
0.644943
0.644943
0.644943
0.644943
0.644943
0.644943
0.644943
0.644943
0.644943
0.644943
0.644943
0.644943
0.644943
0.644943
0.644942
0.644942
0.644942
0.644941
0.644941
0.644941
0.64494
0.644939
0.644939
0.644938
0.644937
0.644936
0.644933
0.64493
0.644924
0.644913
0.644893
0.644857
0.64479
0.644667
0.644448
0.644074
0.661596
0.661966
0.662186
0.66231
0.662379
0.662417
0.662437
0.662448
0.662455
0.662459
0.662461
0.662462
0.662463
0.662464
0.662465
0.662465
0.662466
0.662466
0.662467
0.662467
0.662467
0.662467
0.662468
0.662468
0.662468
0.662468
0.662468
0.662468
0.662469
0.662469
0.662469
0.662469
0.662468
0.662468
0.662468
0.662468
0.662468
0.662468
0.662467
0.662467
0.662467
0.662467
0.662466
0.662466
0.662465
0.662465
0.662464
0.662463
0.662462
0.662461
0.662459
0.662455
0.662448
0.662437
0.662417
0.662379
0.66231
0.662186
0.661966
0.661596
0.678472
0.678837
0.679057
0.679183
0.679254
0.679292
0.679314
0.679326
0.679333
0.679336
0.679339
0.67934
0.679341
0.679342
0.679343
0.679343
0.679344
0.679344
0.679345
0.679345
0.679345
0.679345
0.679346
0.679346
0.679346
0.679346
0.679346
0.679346
0.679346
0.679346
0.679346
0.679346
0.679346
0.679346
0.679346
0.679346
0.679346
0.679346