/*--------------------------------*- C++ -*----------------------------------*\
| =========                 |                                                 |
| \\      /  F ield         | foam-extend: Open Source CFD                    |
|  \\    /   O peration     | Version:     4.0                                |
|   \\  /    A nd           | Web:         http://www.foam-extend.org         |
|    \\/     M anipulation  |                                                 |
\*---------------------------------------------------------------------------*/
FoamFile
{
    version     2.0;
    format      ascii;
    class       volScalarField;
    location    "410";
    object      cPlus;
}
// * * * * * * * * * * * * * * * * * * * * * * * * * * * * * * * * * * * * * //

dimensions      [0 0 0 0 0 0 0];

internalField   nonuniform List<scalar> 
6960
(
0.218365
0.218298
0.218247
0.218215
0.218195
0.218184
0.218177
0.218173
0.218171
0.218169
0.218168
0.218168
0.218167
0.218167
0.218167
0.218167
0.218167
0.218166
0.218166
0.218166
0.218166
0.218166
0.218166
0.218166
0.218166
0.218166
0.218166
0.218166
0.218166
0.218166
0.218166
0.218166
0.218166
0.218166
0.218166
0.218166
0.218166
0.218166
0.218166
0.218166
0.218166
0.218166
0.218166
0.218167
0.218167
0.218167
0.218167
0.218167
0.218168
0.218168
0.218169
0.218171
0.218173
0.218177
0.218184
0.218195
0.218215
0.218247
0.218298
0.218365
0.0525081
0.0524874
0.0524707
0.0524599
0.0524534
0.0524495
0.0524472
0.0524459
0.0524451
0.0524446
0.0524443
0.0524441
0.052444
0.0524439
0.0524438
0.0524438
0.0524438
0.0524437
0.0524437
0.0524437
0.0524437
0.0524437
0.0524437
0.0524437
0.0524437
0.0524437
0.0524437
0.0524436
0.0524436
0.0524436
0.0524436
0.0524436
0.0524436
0.0524437
0.0524437
0.0524437
0.0524437
0.0524437
0.0524437
0.0524437
0.0524437
0.0524437
0.0524437
0.0524438
0.0524438
0.0524438
0.0524439
0.052444
0.0524441
0.0524443
0.0524446
0.0524451
0.0524459
0.0524472
0.0524495
0.0524534
0.0524599
0.0524707
0.0524874
0.0525081
0.0232614
0.0232615
0.0232604
0.0232595
0.0232589
0.0232585
0.0232583
0.0232582
0.0232581
0.0232581
0.023258
0.023258
0.023258
0.023258
0.023258
0.023258
0.023258
0.023258
0.0232581
0.0232581
0.0232581
0.0232581
0.0232581
0.0232581
0.0232581
0.0232581
0.0232581
0.0232581
0.0232581
0.0232581
0.0232581
0.0232581
0.0232581
0.0232581
0.0232581
0.0232581
0.0232581
0.0232581
0.0232581
0.0232581
0.0232581
0.0232581
0.023258
0.023258
0.023258
0.023258
0.023258
0.023258
0.023258
0.023258
0.0232581
0.0232581
0.0232582
0.0232583
0.0232585
0.0232589
0.0232595
0.0232604
0.0232615
0.0232614
0.0179865
0.0179933
0.0179972
0.0179995
0.0180008
0.0180016
0.018002
0.0180023
0.0180024
0.0180025
0.0180026
0.0180026
0.0180027
0.0180027
0.0180027
0.0180027
0.0180028
0.0180028
0.0180028
0.0180028
0.0180028
0.0180028
0.0180028
0.0180029
0.0180029
0.0180029
0.0180029
0.0180029
0.0180029
0.0180029
0.0180029
0.0180029
0.0180029
0.0180029
0.0180029
0.0180029
0.0180029
0.0180028
0.0180028
0.0180028
0.0180028
0.0180028
0.0180028
0.0180028
0.0180027
0.0180027
0.0180027
0.0180027
0.0180026
0.0180026
0.0180025
0.0180024
0.0180023
0.018002
0.0180016
0.0180008
0.0179995
0.0179972
0.0179933
0.0179865
0.0172206
0.0172293
0.0172346
0.0172378
0.0172397
0.0172408
0.0172414
0.0172418
0.017242
0.0172422
0.0172422
0.0172423
0.0172423
0.0172424
0.0172424
0.0172424
0.0172425
0.0172425
0.0172425
0.0172425
0.0172425
0.0172426
0.0172426
0.0172426
0.0172426
0.0172426
0.0172426
0.0172426
0.0172426
0.0172426
0.0172426
0.0172426
0.0172426
0.0172426
0.0172426
0.0172426
0.0172426
0.0172426
0.0172426
0.0172425
0.0172425
0.0172425
0.0172425
0.0172425
0.0172424
0.0172424
0.0172424
0.0172423
0.0172423
0.0172422
0.0172422
0.017242
0.0172418
0.0172414
0.0172408
0.0172397
0.0172378
0.0172346
0.0172293
0.0172206
0.017302
0.0173113
0.0173171
0.0173206
0.0173226
0.0173238
0.0173245
0.0173249
0.0173251
0.0173253
0.0173254
0.0173254
0.0173255
0.0173255
0.0173256
0.0173256
0.0173256
0.0173256
0.0173257
0.0173257
0.0173257
0.0173257
0.0173257
0.0173257
0.0173258
0.0173258
0.0173258
0.0173258
0.0173258
0.0173258
0.0173258
0.0173258
0.0173258
0.0173258
0.0173258
0.0173258
0.0173257
0.0173257
0.0173257
0.0173257
0.0173257
0.0173257
0.0173256
0.0173256
0.0173256
0.0173256
0.0173255
0.0173255
0.0173254
0.0173254
0.0173253
0.0173251
0.0173249
0.0173245
0.0173238
0.0173226
0.0173206
0.0173171
0.0173113
0.017302
0.0175529
0.0175626
0.0175686
0.0175722
0.0175744
0.0175756
0.0175763
0.0175767
0.017577
0.0175771
0.0175772
0.0175773
0.0175773
0.0175774
0.0175774
0.0175775
0.0175775
0.0175775
0.0175775
0.0175775
0.0175776
0.0175776
0.0175776
0.0175776
0.0175776
0.0175776
0.0175776
0.0175776
0.0175776
0.0175776
0.0175776
0.0175776
0.0175776
0.0175776
0.0175776
0.0175776
0.0175776
0.0175776
0.0175776
0.0175776
0.0175775
0.0175775
0.0175775
0.0175775
0.0175775
0.0175774
0.0175774
0.0175773
0.0175773
0.0175772
0.0175771
0.017577
0.0175767
0.0175763
0.0175756
0.0175744
0.0175722
0.0175686
0.0175626
0.0175529
0.0178541
0.0178641
0.0178702
0.017874
0.0178762
0.0178774
0.0178782
0.0178786
0.0178789
0.017879
0.0178791
0.0178792
0.0178793
0.0178793
0.0178793
0.0178794
0.0178794
0.0178794
0.0178794
0.0178795
0.0178795
0.0178795
0.0178795
0.0178795
0.0178795
0.0178796
0.0178796
0.0178796
0.0178796
0.0178796
0.0178796
0.0178796
0.0178796
0.0178796
0.0178796
0.0178795
0.0178795
0.0178795
0.0178795
0.0178795
0.0178795
0.0178794
0.0178794
0.0178794
0.0178794
0.0178793
0.0178793
0.0178793
0.0178792
0.0178791
0.017879
0.0178789
0.0178786
0.0178782
0.0178774
0.0178762
0.017874
0.0178702
0.0178641
0.0178541
0.0181875
0.0181978
0.0182042
0.018208
0.0182103
0.0182116
0.0182124
0.0182128
0.0182131
0.0182133
0.0182134
0.0182134
0.0182135
0.0182135
0.0182136
0.0182136
0.0182136
0.0182137
0.0182137
0.0182137
0.0182137
0.0182138
0.0182138
0.0182138
0.0182138
0.0182138
0.0182138
0.0182138
0.0182138
0.0182138
0.0182138
0.0182138
0.0182138
0.0182138
0.0182138
0.0182138
0.0182138
0.0182138
0.0182138
0.0182137
0.0182137
0.0182137
0.0182137
0.0182136
0.0182136
0.0182136
0.0182135
0.0182135
0.0182134
0.0182134
0.0182133
0.0182131
0.0182128
0.0182124
0.0182116
0.0182103
0.018208
0.0182042
0.0181978
0.0181875
0.0185535
0.0185642
0.0185708
0.0185748
0.0185771
0.0185785
0.0185793
0.0185797
0.01858
0.0185802
0.0185803
0.0185804
0.0185804
0.0185805
0.0185805
0.0185805
0.0185806
0.0185806
0.0185806
0.0185806
0.0185807
0.0185807
0.0185807
0.0185807
0.0185807
0.0185807
0.0185807
0.0185807
0.0185808
0.0185808
0.0185808
0.0185808
0.0185807
0.0185807
0.0185807
0.0185807
0.0185807
0.0185807
0.0185807
0.0185807
0.0185806
0.0185806
0.0185806
0.0185806
0.0185805
0.0185805
0.0185805
0.0185804
0.0185804
0.0185803
0.0185802
0.01858
0.0185797
0.0185793
0.0185785
0.0185771
0.0185748
0.0185708
0.0185642
0.0185535
0.0189561
0.0189672
0.0189741
0.0189782
0.0189806
0.0189821
0.0189829
0.0189834
0.0189837
0.0189838
0.0189839
0.018984
0.0189841
0.0189841
0.0189842
0.0189842
0.0189842
0.0189843
0.0189843
0.0189843
0.0189843
0.0189844
0.0189844
0.0189844
0.0189844
0.0189844
0.0189844
0.0189844
0.0189844
0.0189844
0.0189844
0.0189844
0.0189844
0.0189844
0.0189844
0.0189844
0.0189844
0.0189844
0.0189844
0.0189843
0.0189843
0.0189843
0.0189843
0.0189842
0.0189842
0.0189842
0.0189841
0.0189841
0.018984
0.0189839
0.0189838
0.0189837
0.0189834
0.0189829
0.0189821
0.0189806
0.0189782
0.0189741
0.0189672
0.0189561
0.0194009
0.0194125
0.0194196
0.0194239
0.0194264
0.0194279
0.0194288
0.0194293
0.0194296
0.0194298
0.0194299
0.01943
0.01943
0.0194301
0.0194301
0.0194302
0.0194302
0.0194302
0.0194302
0.0194303
0.0194303
0.0194303
0.0194303
0.0194303
0.0194304
0.0194304
0.0194304
0.0194304
0.0194304
0.0194304
0.0194304
0.0194304
0.0194304
0.0194304
0.0194304
0.0194304
0.0194303
0.0194303
0.0194303
0.0194303
0.0194303
0.0194302
0.0194302
0.0194302
0.0194302
0.0194301
0.0194301
0.01943
0.01943
0.0194299
0.0194298
0.0194296
0.0194293
0.0194288
0.0194279
0.0194264
0.0194239
0.0194196
0.0194125
0.0194009
0.0198947
0.0199068
0.0199142
0.0199187
0.0199214
0.0199229
0.0199238
0.0199243
0.0199247
0.0199248
0.019925
0.0199251
0.0199251
0.0199252
0.0199252
0.0199253
0.0199253
0.0199253
0.0199253
0.0199254
0.0199254
0.0199254
0.0199254
0.0199255
0.0199255
0.0199255
0.0199255
0.0199255
0.0199255
0.0199255
0.0199255
0.0199255
0.0199255
0.0199255
0.0199255
0.0199255
0.0199255
0.0199254
0.0199254
0.0199254
0.0199254
0.0199253
0.0199253
0.0199253
0.0199253
0.0199252
0.0199252
0.0199251
0.0199251
0.019925
0.0199248
0.0199247
0.0199243
0.0199238
0.0199229
0.0199214
0.0199187
0.0199142
0.0199068
0.0198947
0.020446
0.0204586
0.0204664
0.0204711
0.0204739
0.0204756
0.0204765
0.0204771
0.0204774
0.0204776
0.0204777
0.0204778
0.0204779
0.0204779
0.020478
0.020478
0.0204781
0.0204781
0.0204781
0.0204782
0.0204782
0.0204782
0.0204782
0.0204782
0.0204783
0.0204783
0.0204783
0.0204783
0.0204783
0.0204783
0.0204783
0.0204783
0.0204783
0.0204783
0.0204783
0.0204783
0.0204782
0.0204782
0.0204782
0.0204782
0.0204782
0.0204781
0.0204781
0.0204781
0.020478
0.020478
0.0204779
0.0204779
0.0204778
0.0204777
0.0204776
0.0204774
0.0204771
0.0204765
0.0204756
0.0204739
0.0204711
0.0204664
0.0204586
0.020446
0.0210654
0.0210787
0.0210869
0.0210919
0.0210949
0.0210966
0.0210976
0.0210982
0.0210985
0.0210987
0.0210989
0.021099
0.021099
0.0210991
0.0210991
0.0210992
0.0210992
0.0210993
0.0210993
0.0210993
0.0210993
0.0210994
0.0210994
0.0210994
0.0210994
0.0210994
0.0210994
0.0210994
0.0210995
0.0210995
0.0210995
0.0210995
0.0210994
0.0210994
0.0210994
0.0210994
0.0210994
0.0210994
0.0210994
0.0210993
0.0210993
0.0210993
0.0210993
0.0210992
0.0210992
0.0210991
0.0210991
0.021099
0.021099
0.0210989
0.0210987
0.0210985
0.0210982
0.0210976
0.0210966
0.0210949
0.0210919
0.0210869
0.0210787
0.0210654
0.0217665
0.0217806
0.0217894
0.0217946
0.0217978
0.0217996
0.0218006
0.0218013
0.0218016
0.0218019
0.021802
0.0218021
0.0218022
0.0218023
0.0218023
0.0218024
0.0218024
0.0218024
0.0218025
0.0218025
0.0218025
0.0218025
0.0218026
0.0218026
0.0218026
0.0218026
0.0218026
0.0218026
0.0218026
0.0218026
0.0218026
0.0218026
0.0218026
0.0218026
0.0218026
0.0218026
0.0218026
0.0218026
0.0218025
0.0218025
0.0218025
0.0218025
0.0218024
0.0218024
0.0218024
0.0218023
0.0218023
0.0218022
0.0218021
0.021802
0.0218019
0.0218016
0.0218013
0.0218006
0.0217996
0.0217978
0.0217946
0.0217894
0.0217806
0.0217665
0.0225669
0.022582
0.0225913
0.022597
0.0226003
0.0226023
0.0226034
0.022604
0.0226044
0.0226047
0.0226049
0.022605
0.0226051
0.0226051
0.0226052
0.0226052
0.0226053
0.0226053
0.0226053
0.0226054
0.0226054
0.0226054
0.0226054
0.0226055
0.0226055
0.0226055
0.0226055
0.0226055
0.0226055
0.0226055
0.0226055
0.0226055
0.0226055
0.0226055
0.0226055
0.0226055
0.0226055
0.0226054
0.0226054
0.0226054
0.0226054
0.0226053
0.0226053
0.0226053
0.0226052
0.0226052
0.0226051
0.0226051
0.022605
0.0226049
0.0226047
0.0226044
0.022604
0.0226034
0.0226023
0.0226003
0.022597
0.0225913
0.022582
0.0225669
0.0234898
0.0235061
0.0235161
0.0235222
0.0235258
0.0235279
0.0235291
0.0235299
0.0235303
0.0235306
0.0235307
0.0235308
0.0235309
0.023531
0.0235311
0.0235311
0.0235312
0.0235312
0.0235312
0.0235313
0.0235313
0.0235313
0.0235314
0.0235314
0.0235314
0.0235314
0.0235314
0.0235315
0.0235315
0.0235315
0.0235315
0.0235315
0.0235315
0.0235314
0.0235314
0.0235314
0.0235314
0.0235314
0.0235313
0.0235313
0.0235313
0.0235312
0.0235312
0.0235312
0.0235311
0.0235311
0.023531
0.0235309
0.0235308
0.0235307
0.0235306
0.0235303
0.0235299
0.0235291
0.0235279
0.0235258
0.0235222
0.0235161
0.0235061
0.0234898
0.0245666
0.0245844
0.0245952
0.0246019
0.0246058
0.0246081
0.0246094
0.0246102
0.0246107
0.0246109
0.0246111
0.0246113
0.0246114
0.0246114
0.0246115
0.0246116
0.0246116
0.0246117
0.0246117
0.0246117
0.0246118
0.0246118
0.0246118
0.0246119
0.0246119
0.0246119
0.0246119
0.0246119
0.0246119
0.0246119
0.0246119
0.0246119
0.0246119
0.0246119
0.0246119
0.0246119
0.0246119
0.0246118
0.0246118
0.0246118
0.0246117
0.0246117
0.0246117
0.0246116
0.0246116
0.0246115
0.0246114
0.0246114
0.0246113
0.0246111
0.0246109
0.0246107
0.0246102
0.0246094
0.0246081
0.0246058
0.0246019
0.0245952
0.0245844
0.0245666
0.0258407
0.0258602
0.0258722
0.0258795
0.0258838
0.0258863
0.0258878
0.0258887
0.0258892
0.0258895
0.0258897
0.0258899
0.02589
0.0258901
0.0258901
0.0258902
0.0258903
0.0258903
0.0258904
0.0258904
0.0258904
0.0258905
0.0258905
0.0258905
0.0258906
0.0258906
0.0258906
0.0258906
0.0258906
0.0258906
0.0258906
0.0258906
0.0258906
0.0258906
0.0258906
0.0258906
0.0258905
0.0258905
0.0258905
0.0258904
0.0258904
0.0258904
0.0258903
0.0258903
0.0258902
0.0258901
0.0258901
0.02589
0.0258899
0.0258897
0.0258895
0.0258892
0.0258887
0.0258878
0.0258863
0.0258838
0.0258795
0.0258722
0.0258602
0.0258407
0.0273739
0.0273957
0.0274091
0.0274173
0.0274221
0.0274249
0.0274266
0.0274275
0.0274281
0.0274285
0.0274287
0.0274289
0.027429
0.0274291
0.0274292
0.0274293
0.0274293
0.0274294
0.0274294
0.0274295
0.0274295
0.0274296
0.0274296
0.0274296
0.0274297
0.0274297
0.0274297
0.0274297
0.0274297
0.0274297
0.0274297
0.0274297
0.0274297
0.0274297
0.0274297
0.0274297
0.0274296
0.0274296
0.0274296
0.0274295
0.0274295
0.0274294
0.0274294
0.0274293
0.0274293
0.0274292
0.0274291
0.027429
0.0274289
0.0274287
0.0274285
0.0274281
0.0274275
0.0274266
0.0274249
0.0274221
0.0274173
0.0274091
0.0273957
0.0273739
0.0292572
0.029282
0.0292973
0.0293066
0.0293121
0.0293154
0.0293172
0.0293183
0.029319
0.0293194
0.0293197
0.0293199
0.02932
0.0293201
0.0293202
0.0293203
0.0293204
0.0293204
0.0293205
0.0293206
0.0293206
0.0293207
0.0293207
0.0293207
0.0293208
0.0293208
0.0293208
0.0293208
0.0293208
0.0293208
0.0293208
0.0293208
0.0293208
0.0293208
0.0293208
0.0293208
0.0293207
0.0293207
0.0293207
0.0293206
0.0293206
0.0293205
0.0293204
0.0293204
0.0293203
0.0293202
0.0293201
0.02932
0.0293199
0.0293197
0.0293194
0.029319
0.0293183
0.0293172
0.0293154
0.0293121
0.0293066
0.0292973
0.029282
0.0292572
0.0316284
0.0316572
0.0316751
0.031686
0.0316925
0.0316963
0.0316985
0.0316998
0.0317006
0.031701
0.0317014
0.0317016
0.0317017
0.0317019
0.031702
0.0317021
0.0317022
0.0317022
0.0317023
0.0317024
0.0317025
0.0317025
0.0317026
0.0317026
0.0317026
0.0317027
0.0317027
0.0317027
0.0317027
0.0317027
0.0317027
0.0317027
0.0317027
0.0317027
0.0317027
0.0317026
0.0317026
0.0317026
0.0317025
0.0317025
0.0317024
0.0317023
0.0317022
0.0317022
0.0317021
0.031702
0.0317019
0.0317017
0.0317016
0.0317014
0.031701
0.0317006
0.0316998
0.0316985
0.0316963
0.0316925
0.031686
0.0316751
0.0316572
0.0316284
0.0346994
0.0347341
0.0347556
0.0347688
0.0347766
0.0347812
0.0347838
0.0347854
0.0347863
0.0347869
0.0347873
0.0347876
0.0347878
0.0347879
0.0347881
0.0347882
0.0347883
0.0347884
0.0347885
0.0347886
0.0347886
0.0347887
0.0347888
0.0347888
0.0347889
0.0347889
0.0347889
0.034789
0.034789
0.034789
0.034789
0.034789
0.034789
0.0347889
0.0347889
0.0347889
0.0347888
0.0347888
0.0347887
0.0347886
0.0347886
0.0347885
0.0347884
0.0347883
0.0347882
0.0347881
0.0347879
0.0347878
0.0347876
0.0347873
0.0347869
0.0347863
0.0347854
0.0347838
0.0347812
0.0347766
0.0347688
0.0347556
0.0347341
0.0346994
0.0387919
0.0388349
0.0388617
0.0388781
0.0388879
0.0388936
0.0388969
0.0388988
0.0389
0.0389007
0.0389012
0.0389016
0.0389018
0.038902
0.0389022
0.0389023
0.0389025
0.0389026
0.0389027
0.0389028
0.0389029
0.038903
0.0389031
0.0389031
0.0389032
0.0389032
0.0389033
0.0389033
0.0389033
0.0389033
0.0389033
0.0389033
0.0389033
0.0389033
0.0389032
0.0389032
0.0389031
0.0389031
0.038903
0.0389029
0.0389028
0.0389027
0.0389026
0.0389025
0.0389023
0.0389022
0.038902
0.0389018
0.0389016
0.0389012
0.0389007
0.0389
0.0388988
0.0388969
0.0388936
0.0388879
0.0388781
0.0388617
0.0388349
0.0387919
0.0443616
0.0444164
0.0444508
0.0444718
0.0444843
0.0444917
0.0444959
0.0444984
0.0444999
0.0445009
0.0445015
0.0445019
0.0445023
0.0445025
0.0445027
0.0445029
0.0445031
0.0445033
0.0445034
0.0445035
0.0445037
0.0445038
0.0445039
0.044504
0.044504
0.0445041
0.0445042
0.0445042
0.0445042
0.0445042
0.0445042
0.0445042
0.0445042
0.0445042
0.0445041
0.044504
0.044504
0.0445039
0.0445038
0.0445037
0.0445035
0.0445034
0.0445033
0.0445031
0.0445029
0.0445027
0.0445025
0.0445023
0.0445019
0.0445015
0.0445009
0.0444999
0.0444984
0.0444959
0.0444917
0.0444843
0.0444718
0.0444508
0.0444164
0.0443616
0.0519699
0.0520409
0.0520855
0.0521129
0.0521291
0.0521387
0.0521442
0.0521475
0.0521495
0.0521507
0.0521515
0.0521521
0.0521525
0.0521528
0.0521531
0.0521534
0.0521536
0.0521538
0.052154
0.0521542
0.0521543
0.0521545
0.0521546
0.0521547
0.0521548
0.0521549
0.052155
0.052155
0.0521551
0.0521551
0.0521551
0.0521551
0.052155
0.052155
0.0521549
0.0521548
0.0521547
0.0521546
0.0521545
0.0521543
0.0521542
0.052154
0.0521538
0.0521536
0.0521534
0.0521531
0.0521528
0.0521525
0.0521521
0.0521515
0.0521507
0.0521495
0.0521475
0.0521442
0.0521387
0.0521291
0.0521129
0.0520855
0.0520409
0.0519699
0.0621537
0.0622449
0.0623025
0.0623378
0.0623588
0.0623712
0.0623784
0.0623826
0.0623852
0.0623867
0.0623878
0.0623885
0.0623891
0.0623895
0.0623899
0.0623902
0.0623905
0.0623907
0.062391
0.0623912
0.0623914
0.0623916
0.0623917
0.0623919
0.062392
0.0623921
0.0623922
0.0623923
0.0623923
0.0623924
0.0623924
0.0623923
0.0623923
0.0623922
0.0623921
0.062392
0.0623919
0.0623917
0.0623916
0.0623914
0.0623912
0.062391
0.0623907
0.0623905
0.0623902
0.0623899
0.0623895
0.0623891
0.0623885
0.0623878
0.0623867
0.0623852
0.0623826
0.0623784
0.0623712
0.0623588
0.0623378
0.0623025
0.0622449
0.0621537
0.0752127
0.0753271
0.0753992
0.0754435
0.07547
0.0754855
0.0754945
0.0754999
0.0755031
0.0755051
0.0755064
0.0755073
0.075508
0.0755086
0.075509
0.0755094
0.0755098
0.0755101
0.0755104
0.0755107
0.0755109
0.0755111
0.0755113
0.0755115
0.0755117
0.0755118
0.0755119
0.075512
0.0755121
0.0755121
0.0755121
0.0755121
0.075512
0.0755119
0.0755118
0.0755117
0.0755115
0.0755113
0.0755111
0.0755109
0.0755107
0.0755104
0.0755101
0.0755098
0.0755094
0.075509
0.0755086
0.075508
0.0755073
0.0755064
0.0755051
0.0755031
0.0754999
0.0754945
0.0754855
0.07547
0.0754435
0.0753992
0.0753271
0.0752127
0.0910447
0.0911826
0.0912696
0.0913231
0.091355
0.0913738
0.0913848
0.0913913
0.0913952
0.0913977
0.0913992
0.0914004
0.0914012
0.0914018
0.0914023
0.0914028
0.0914032
0.0914036
0.091404
0.0914043
0.0914046
0.0914048
0.0914051
0.0914053
0.0914055
0.0914056
0.0914058
0.0914058
0.0914059
0.0914059
0.0914059
0.0914059
0.0914058
0.0914058
0.0914056
0.0914055
0.0914053
0.0914051
0.0914048
0.0914046
0.0914043
0.091404
0.0914036
0.0914032
0.0914028
0.0914023
0.0914018
0.0914012
0.0914004
0.0913992
0.0913977
0.0913952
0.0913913
0.0913848
0.0913738
0.091355
0.0913231
0.0912696
0.0911826
0.0910447
0.10917
0.10933
0.109431
0.109493
0.10953
0.109552
0.109565
0.109572
0.109577
0.10958
0.109582
0.109583
0.109584
0.109584
0.109585
0.109586
0.109586
0.109586
0.109587
0.109587
0.109588
0.109588
0.109588
0.109588
0.109589
0.109589
0.109589
0.109589
0.109589
0.109589
0.109589
0.109589
0.109589
0.109589
0.109589
0.109589
0.109588
0.109588
0.109588
0.109588
0.109587
0.109587
0.109586
0.109586
0.109586
0.109585
0.109584
0.109584
0.109583
0.109582
0.10958
0.109577
0.109572
0.109565
0.109552
0.10953
0.109493
0.109431
0.10933
0.10917
0.128933
0.129113
0.129226
0.129296
0.129338
0.129362
0.129377
0.129386
0.129391
0.129394
0.129396
0.129398
0.129399
0.129399
0.1294
0.129401
0.129401
0.129402
0.129402
0.129402
0.129403
0.129403
0.129403
0.129404
0.129404
0.129404
0.129404
0.129404
0.129404
0.129404
0.129404
0.129404
0.129404
0.129404
0.129404
0.129404
0.129404
0.129403
0.129403
0.129403
0.129402
0.129402
0.129402
0.129401
0.129401
0.1294
0.129399
0.129399
0.129398
0.129396
0.129394
0.129391
0.129386
0.129377
0.129362
0.129338
0.129296
0.129226
0.129113
0.128933
0.149726
0.149923
0.150047
0.150123
0.15017
0.150197
0.150213
0.150223
0.150228
0.150232
0.150234
0.150236
0.150237
0.150238
0.150239
0.150239
0.15024
0.15024
0.150241
0.150241
0.150242
0.150242
0.150242
0.150242
0.150243
0.150243
0.150243
0.150243
0.150243
0.150243
0.150243
0.150243
0.150243
0.150243
0.150243
0.150243
0.150242
0.150242
0.150242
0.150242
0.150241
0.150241
0.15024
0.15024
0.150239
0.150239
0.150238
0.150237
0.150236
0.150234
0.150232
0.150228
0.150223
0.150213
0.150197
0.15017
0.150123
0.150047
0.149923
0.149726
0.171098
0.171309
0.171443
0.171526
0.171576
0.171606
0.171624
0.171634
0.171641
0.171645
0.171647
0.171649
0.17165
0.171651
0.171652
0.171652
0.171653
0.171654
0.171654
0.171654
0.171655
0.171655
0.171655
0.171656
0.171656
0.171656
0.171656
0.171656
0.171657
0.171657
0.171657
0.171657
0.171656
0.171656
0.171656
0.171656
0.171656
0.171655
0.171655
0.171655
0.171654
0.171654
0.171654
0.171653
0.171652
0.171652
0.171651
0.17165
0.171649
0.171647
0.171645
0.171641
0.171634
0.171624
0.171606
0.171576
0.171526
0.171443
0.171309
0.171098
0.192759
0.192984
0.193127
0.193216
0.19327
0.193302
0.193321
0.193333
0.19334
0.193344
0.193347
0.193349
0.19335
0.193351
0.193352
0.193352
0.193353
0.193354
0.193354
0.193354
0.193355
0.193355
0.193355
0.193356
0.193356
0.193356
0.193356
0.193356
0.193357
0.193357
0.193357
0.193357
0.193356
0.193356
0.193356
0.193356
0.193356
0.193355
0.193355
0.193355
0.193354
0.193354
0.193354
0.193353
0.193352
0.193352
0.193351
0.19335
0.193349
0.193347
0.193344
0.19334
0.193333
0.193321
0.193302
0.19327
0.193216
0.193127
0.192984
0.192759
0.214535
0.214773
0.214925
0.215019
0.215077
0.215111
0.215132
0.215144
0.215152
0.215156
0.215159
0.215161
0.215163
0.215164
0.215165
0.215165
0.215166
0.215166
0.215167
0.215167
0.215168
0.215168
0.215168
0.215169
0.215169
0.215169
0.215169
0.215169
0.21517
0.21517
0.21517
0.21517
0.215169
0.215169
0.215169
0.215169
0.215169
0.215168
0.215168
0.215168
0.215167
0.215167
0.215166
0.215166
0.215165
0.215165
0.215164
0.215163
0.215161
0.215159
0.215156
0.215152
0.215144
0.215132
0.215111
0.215077
0.215019
0.214925
0.214773
0.214535
0.23632
0.236569
0.236729
0.236829
0.23689
0.236927
0.236949
0.236962
0.23697
0.236975
0.236979
0.236981
0.236982
0.236983
0.236984
0.236985
0.236986
0.236986
0.236987
0.236987
0.236988
0.236988
0.236988
0.236988
0.236989
0.236989
0.236989
0.236989
0.236989
0.236989
0.236989
0.236989
0.236989
0.236989
0.236989
0.236989
0.236988
0.236988
0.236988
0.236988
0.236987
0.236987
0.236986
0.236986
0.236985
0.236984
0.236983
0.236982
0.236981
0.236979
0.236975
0.23697
0.236962
0.236949
0.236927
0.23689
0.236829
0.236729
0.236569
0.23632
0.258042
0.258302
0.25847
0.258576
0.258641
0.25868
0.258703
0.258718
0.258726
0.258732
0.258735
0.258737
0.258739
0.25874
0.258741
0.258742
0.258742
0.258743
0.258743
0.258744
0.258744
0.258745
0.258745
0.258745
0.258745
0.258746
0.258746
0.258746
0.258746
0.258746
0.258746
0.258746
0.258746
0.258746
0.258746
0.258745
0.258745
0.258745
0.258745
0.258744
0.258744
0.258743
0.258743
0.258742
0.258742
0.258741
0.25874
0.258739
0.258737
0.258735
0.258732
0.258726
0.258718
0.258703
0.25868
0.258641
0.258576
0.25847
0.258302
0.258042
0.279653
0.279923
0.280098
0.280209
0.280278
0.280319
0.280344
0.28036
0.280369
0.280375
0.280378
0.280381
0.280383
0.280384
0.280385
0.280385
0.280386
0.280387
0.280387
0.280388
0.280388
0.280388
0.280389
0.280389
0.280389
0.280389
0.280389
0.28039
0.28039
0.28039
0.28039
0.28039
0.28039
0.280389
0.280389
0.280389
0.280389
0.280389
0.280388
0.280388
0.280388
0.280387
0.280387
0.280386
0.280385
0.280385
0.280384
0.280383
0.280381
0.280378
0.280375
0.280369
0.28036
0.280344
0.280319
0.280278
0.280209
0.280098
0.279923
0.279653
0.301113
0.301392
0.301574
0.30169
0.301762
0.301806
0.301833
0.301849
0.301859
0.301866
0.301869
0.301872
0.301874
0.301875
0.301876
0.301877
0.301878
0.301878
0.301879
0.301879
0.301879
0.30188
0.30188
0.30188
0.301881
0.301881
0.301881
0.301881
0.301881
0.301881
0.301881
0.301881
0.301881
0.301881
0.301881
0.301881
0.30188
0.30188
0.30188
0.301879
0.301879
0.301879
0.301878
0.301878
0.301877
0.301876
0.301875
0.301874
0.301872
0.301869
0.301866
0.301859
0.301849
0.301833
0.301806
0.301762
0.30169
0.301574
0.301392
0.301113
0.322389
0.322677
0.322866
0.322987
0.323063
0.323109
0.323137
0.323155
0.323165
0.323172
0.323176
0.323179
0.323181
0.323182
0.323183
0.323184
0.323185
0.323185
0.323186
0.323186
0.323186
0.323187
0.323187
0.323187
0.323187
0.323188
0.323188
0.323188
0.323188
0.323188
0.323188
0.323188
0.323188
0.323188
0.323188
0.323187
0.323187
0.323187
0.323187
0.323186
0.323186
0.323186
0.323185
0.323185
0.323184
0.323183
0.323182
0.323181
0.323179
0.323176
0.323172
0.323165
0.323155
0.323137
0.323109
0.323063
0.322987
0.322866
0.322677
0.322389
0.343454
0.343749
0.343945
0.344071
0.34415
0.344199
0.344229
0.344247
0.344259
0.344266
0.34427
0.344273
0.344275
0.344277
0.344278
0.344279
0.344279
0.34428
0.34428
0.344281
0.344281
0.344281
0.344282
0.344282
0.344282
0.344282
0.344282
0.344283
0.344283
0.344283
0.344283
0.344283
0.344283
0.344282
0.344282
0.344282
0.344282
0.344282
0.344281
0.344281
0.344281
0.34428
0.34428
0.344279
0.344279
0.344278
0.344277
0.344275
0.344273
0.34427
0.344266
0.344259
0.344247
0.344229
0.344199
0.34415
0.344071
0.343945
0.343749
0.343454
0.364283
0.364586
0.364788
0.364918
0.365001
0.365052
0.365084
0.365103
0.365115
0.365123
0.365128
0.365131
0.365133
0.365135
0.365136
0.365136
0.365137
0.365138
0.365138
0.365138
0.365139
0.365139
0.365139
0.36514
0.36514
0.36514
0.36514
0.36514
0.36514
0.36514
0.36514
0.36514
0.36514
0.36514
0.36514
0.36514
0.36514
0.365139
0.365139
0.365139
0.365138
0.365138
0.365138
0.365137
0.365136
0.365136
0.365135
0.365133
0.365131
0.365128
0.365123
0.365115
0.365103
0.365084
0.365052
0.365001
0.364918
0.364788
0.364586
0.364283
0.384855
0.385164
0.385371
0.385507
0.385593
0.385646
0.38568
0.3857
0.385713
0.385721
0.385726
0.38573
0.385732
0.385734
0.385735
0.385736
0.385736
0.385737
0.385737
0.385738
0.385738
0.385738
0.385739
0.385739
0.385739
0.385739
0.385739
0.385739
0.385739
0.385739
0.385739
0.385739
0.385739
0.385739
0.385739
0.385739
0.385739
0.385739
0.385738
0.385738
0.385738
0.385737
0.385737
0.385736
0.385736
0.385735
0.385734
0.385732
0.38573
0.385726
0.385721
0.385713
0.3857
0.38568
0.385646
0.385593
0.385507
0.385371
0.385164
0.384855
0.40515
0.405464
0.405677
0.405817
0.405906
0.405962
0.405997
0.406019
0.406033
0.406041
0.406047
0.40605
0.406053
0.406054
0.406055
0.406056
0.406057
0.406058
0.406058
0.406058
0.406059
0.406059
0.406059
0.406059
0.40606
0.40606
0.40606
0.40606
0.40606
0.40606
0.40606
0.40606
0.40606
0.40606
0.40606
0.40606
0.406059
0.406059
0.406059
0.406059
0.406058
0.406058
0.406058
0.406057
0.406056
0.406055
0.406054
0.406053
0.40605
0.406047
0.406041
0.406033
0.406019
0.405997
0.405962
0.405906
0.405817
0.405677
0.405464
0.40515
0.425149
0.425468
0.425686
0.42583
0.425923
0.425981
0.426018
0.426041
0.426056
0.426065
0.426071
0.426074
0.426077
0.426079
0.42608
0.426081
0.426081
0.426082
0.426082
0.426083
0.426083
0.426083
0.426084
0.426084
0.426084
0.426084
0.426084
0.426084
0.426084
0.426084
0.426084
0.426084
0.426084
0.426084
0.426084
0.426084
0.426084
0.426084
0.426083
0.426083
0.426083
0.426082
0.426082
0.426081
0.426081
0.42608
0.426079
0.426077
0.426074
0.426071
0.426065
0.426056
0.426041
0.426018
0.425981
0.425923
0.42583
0.425686
0.425468
0.425149
0.444837
0.44516
0.445383
0.445531
0.445627
0.445688
0.445726
0.445751
0.445766
0.445776
0.445782
0.445786
0.445789
0.44579
0.445792
0.445793
0.445793
0.445794
0.445794
0.445795
0.445795
0.445795
0.445795
0.445795
0.445796
0.445796
0.445796
0.445796
0.445796
0.445796
0.445796
0.445796
0.445796
0.445796
0.445796
0.445796
0.445795
0.445795
0.445795
0.445795
0.445795
0.445794
0.445794
0.445793
0.445793
0.445792
0.44579
0.445789
0.445786
0.445782
0.445776
0.445766
0.445751
0.445726
0.445688
0.445627
0.445531
0.445383
0.44516
0.444837
0.464199
0.464526
0.464753
0.464904
0.465004
0.465067
0.465107
0.465133
0.465149
0.465159
0.465166
0.46517
0.465173
0.465175
0.465176
0.465177
0.465178
0.465178
0.465179
0.465179
0.465179
0.46518
0.46518
0.46518
0.46518
0.46518
0.46518
0.465181
0.465181
0.465181
0.465181
0.465181
0.465181
0.46518
0.46518
0.46518
0.46518
0.46518
0.46518
0.465179
0.465179
0.465179
0.465178
0.465178
0.465177
0.465176
0.465175
0.465173
0.46517
0.465166
0.465159
0.465149
0.465133
0.465107
0.465067
0.465004
0.464904
0.464753
0.464526
0.464199
0.483223
0.483552
0.483782
0.483938
0.48404
0.484106
0.484148
0.484175
0.484192
0.484203
0.48421
0.484214
0.484217
0.484219
0.484221
0.484222
0.484222
0.484223
0.484223
0.484224
0.484224
0.484224
0.484224
0.484224
0.484225
0.484225
0.484225
0.484225
0.484225
0.484225
0.484225
0.484225
0.484225
0.484225
0.484225
0.484225
0.484224
0.484224
0.484224
0.484224
0.484224
0.484223
0.484223
0.484222
0.484222
0.484221
0.484219
0.484217
0.484214
0.48421
0.484203
0.484192
0.484175
0.484148
0.484106
0.48404
0.483938
0.483782
0.483552
0.483223
0.501895
0.502227
0.50246
0.502619
0.502724
0.502792
0.502836
0.502864
0.502882
0.502894
0.502901
0.502906
0.502909
0.502912
0.502913
0.502914
0.502915
0.502915
0.502915
0.502916
0.502916
0.502916
0.502916
0.502916
0.502917
0.502917
0.502917
0.502917
0.502917
0.502917
0.502917
0.502917
0.502917
0.502917
0.502917
0.502917
0.502916
0.502916
0.502916
0.502916
0.502916
0.502915
0.502915
0.502915
0.502914
0.502913
0.502912
0.502909
0.502906
0.502901
0.502894
0.502882
0.502864
0.502836
0.502792
0.502724
0.502619
0.50246
0.502227
0.501895
0.520206
0.520539
0.520775
0.520937
0.521045
0.521116
0.521162
0.521191
0.52121
0.521222
0.52123
0.521235
0.521239
0.521241
0.521242
0.521243
0.521244
0.521245
0.521245
0.521245
0.521246
0.521246
0.521246
0.521246
0.521246
0.521246
0.521246
0.521246
0.521246
0.521246
0.521246
0.521246
0.521246
0.521246
0.521246
0.521246
0.521246
0.521246
0.521246
0.521246
0.521245
0.521245
0.521245
0.521244
0.521243
0.521242
0.521241
0.521239
0.521235
0.52123
0.521222
0.52121
0.521191
0.521162
0.521116
0.521045
0.520937
0.520775
0.520539
0.520206
0.538147
0.53848
0.538719
0.538884
0.538995
0.539068
0.539115
0.539146
0.539166
0.539179
0.539187
0.539193
0.539196
0.539199
0.5392