/*--------------------------------*- C++ -*----------------------------------*\
| =========                 |                                                 |
| \\      /  F ield         | foam-extend: Open Source CFD                    |
|  \\    /   O peration     | Version:     4.0                                |
|   \\  /    A nd           | Web:         http://www.foam-extend.org         |
|    \\/     M anipulation  |                                                 |
\*---------------------------------------------------------------------------*/
FoamFile
{
    version     2.0;
    format      ascii;
    class       volScalarField;
    location    "260";
    object      psiE;
}
// * * * * * * * * * * * * * * * * * * * * * * * * * * * * * * * * * * * * * //

dimensions      [0 0 0 0 0 0 0];

internalField   nonuniform List<scalar> 
6960
(
0.14719
0.147166
0.147162
0.147161
0.14716
0.14716
0.14716
0.14716
0.14716
0.14716
0.14716
0.14716
0.147161
0.147161
0.147161
0.147161
0.147161
0.147161
0.147161
0.147161
0.147162
0.147162
0.147162
0.147162
0.147162
0.147162
0.147162
0.147162
0.147162
0.147162
0.147162
0.147162
0.147162
0.147162
0.147162
0.147162
0.147162
0.147162
0.147162
0.147162
0.147161
0.147161
0.147161
0.147161
0.147161
0.147161
0.147161
0.147161
0.14716
0.14716
0.14716
0.14716
0.14716
0.14716
0.14716
0.14716
0.147161
0.147162
0.147166
0.14719
0.274299
0.274251
0.274243
0.274241
0.27424
0.27424
0.27424
0.27424
0.27424
0.274241
0.274241
0.274241
0.274242
0.274242
0.274243
0.274243
0.274243
0.274244
0.274244
0.274245
0.274245
0.274245
0.274245
0.274246
0.274246
0.274246
0.274246
0.274246
0.274246
0.274246
0.274246
0.274246
0.274246
0.274246
0.274246
0.274246
0.274246
0.274245
0.274245
0.274245
0.274245
0.274244
0.274244
0.274243
0.274243
0.274243
0.274242
0.274242
0.274241
0.274241
0.274241
0.27424
0.27424
0.27424
0.27424
0.27424
0.274241
0.274243
0.274251
0.274299
0.342926
0.342869
0.342859
0.342856
0.342855
0.342855
0.342855
0.342855
0.342856
0.342856
0.342857
0.342858
0.342858
0.342859
0.34286
0.34286
0.342861
0.342862
0.342862
0.342863
0.342863
0.342864
0.342864
0.342865
0.342865
0.342865
0.342865
0.342866
0.342866
0.342866
0.342866
0.342866
0.342866
0.342865
0.342865
0.342865
0.342865
0.342864
0.342864
0.342863
0.342863
0.342862
0.342862
0.342861
0.34286
0.34286
0.342859
0.342858
0.342858
0.342857
0.342856
0.342856
0.342855
0.342855
0.342855
0.342855
0.342856
0.342859
0.342869
0.342926
0.391096
0.391035
0.391023
0.39102
0.391018
0.391018
0.391018
0.391019
0.39102
0.391021
0.391022
0.391023
0.391024
0.391025
0.391026
0.391027
0.391028
0.391029
0.391029
0.39103
0.391031
0.391032
0.391032
0.391033
0.391033
0.391034
0.391034
0.391034
0.391034
0.391034
0.391034
0.391034
0.391034
0.391034
0.391034
0.391033
0.391033
0.391032
0.391032
0.391031
0.39103
0.391029
0.391029
0.391028
0.391027
0.391026
0.391025
0.391024
0.391023
0.391022
0.391021
0.39102
0.391019
0.391018
0.391018
0.391018
0.39102
0.391023
0.391035
0.391096
0.432187
0.432125
0.432112
0.432108
0.432107
0.432107
0.432107
0.432108
0.432109
0.43211
0.432111
0.432113
0.432114
0.432115
0.432117
0.432118
0.432119
0.43212
0.432122
0.432123
0.432124
0.432125
0.432125
0.432126
0.432127
0.432127
0.432128
0.432128
0.432128
0.432128
0.432128
0.432128
0.432128
0.432128
0.432127
0.432127
0.432126
0.432125
0.432125
0.432124
0.432123
0.432122
0.43212
0.432119
0.432118
0.432117
0.432115
0.432114
0.432113
0.432111
0.43211
0.432109
0.432108
0.432107
0.432107
0.432107
0.432108
0.432112
0.432125
0.432187
0.470727
0.470665
0.470651
0.470647
0.470645
0.470645
0.470646
0.470647
0.470648
0.47065
0.470652
0.470653
0.470655
0.470657
0.470658
0.47066
0.470662
0.470663
0.470665
0.470666
0.470667
0.470668
0.470669
0.47067
0.470671
0.470672
0.470672
0.470672
0.470673
0.470673
0.470673
0.470673
0.470672
0.470672
0.470672
0.470671
0.47067
0.470669
0.470668
0.470667
0.470666
0.470665
0.470663
0.470662
0.47066
0.470658
0.470657
0.470655
0.470653
0.470652
0.47065
0.470648
0.470647
0.470646
0.470645
0.470645
0.470647
0.470651
0.470665
0.470727
0.508253
0.508191
0.508176
0.508172
0.508171
0.508171
0.508172
0.508173
0.508174
0.508176
0.508178
0.50818
0.508182
0.508184
0.508186
0.508188
0.50819
0.508192
0.508194
0.508196
0.508197
0.508198
0.5082
0.508201
0.508202
0.508202
0.508203
0.508204
0.508204
0.508204
0.508204
0.508204
0.508204
0.508203
0.508202
0.508202
0.508201
0.5082
0.508198
0.508197
0.508196
0.508194
0.508192
0.50819
0.508188
0.508186
0.508184
0.508182
0.50818
0.508178
0.508176
0.508174
0.508173
0.508172
0.508171
0.508171
0.508172
0.508176
0.508191
0.508253
0.545345
0.545283
0.545268
0.545263
0.545262
0.545262
0.545263
0.545265
0.545267
0.545269
0.545271
0.545273
0.545276
0.545278
0.545281
0.545283
0.545285
0.545288
0.54529
0.545291
0.545293
0.545295
0.545296
0.545298
0.545299
0.545299
0.5453
0.545301
0.545301
0.545301
0.545301
0.545301
0.545301
0.5453
0.545299
0.545299
0.545298
0.545296
0.545295
0.545293
0.545291
0.54529
0.545288
0.545285
0.545283
0.545281
0.545278
0.545276
0.545273
0.545271
0.545269
0.545267
0.545265
0.545263
0.545262
0.545262
0.545263
0.545268
0.545283
0.545345
0.582285
0.582223
0.582207
0.582202
0.582201
0.582201
0.582203
0.582205
0.582207
0.582209
0.582212
0.582215
0.582218
0.582221
0.582223
0.582226
0.582229
0.582231
0.582234
0.582236
0.582238
0.58224
0.582241
0.582243
0.582244
0.582245
0.582246
0.582246
0.582247
0.582247
0.582247
0.582247
0.582246
0.582246
0.582245
0.582244
0.582243
0.582241
0.58224
0.582238
0.582236
0.582234
0.582231
0.582229
0.582226
0.582223
0.582221
0.582218
0.582215
0.582212
0.582209
0.582207
0.582205
0.582203
0.582201
0.582201
0.582202
0.582207
0.582223
0.582285
0.619258
0.619197
0.61918
0.619175
0.619174
0.619175
0.619177
0.619179
0.619181
0.619184
0.619187
0.61919
0.619194
0.619197
0.6192
0.619203
0.619206
0.619209
0.619212
0.619214
0.619216
0.619219
0.61922
0.619222
0.619224
0.619225
0.619226
0.619226
0.619227
0.619227
0.619227
0.619227
0.619226
0.619226
0.619225
0.619224
0.619222
0.61922
0.619219
0.619216
0.619214
0.619212
0.619209
0.619206
0.619203
0.6192
0.619197
0.619194
0.61919
0.619187
0.619184
0.619181
0.619179
0.619177
0.619175
0.619174
0.619175
0.61918
0.619197
0.619258
0.656414
0.656354
0.656336
0.656331
0.65633
0.656331
0.656333
0.656335
0.656338
0.656341
0.656345
0.656348
0.656352
0.656356
0.656359
0.656363
0.656366
0.656369
0.656372
0.656375
0.656378
0.65638
0.656382
0.656384
0.656386
0.656387
0.656388
0.656389
0.65639
0.65639
0.65639
0.65639
0.656389
0.656388
0.656387
0.656386
0.656384
0.656382
0.65638
0.656378
0.656375
0.656372
0.656369
0.656366
0.656363
0.656359
0.656356
0.656352
0.656348
0.656345
0.656341
0.656338
0.656335
0.656333
0.656331
0.65633
0.656331
0.656336
0.656354
0.656414
0.693881
0.693822
0.693804
0.693799
0.693798
0.693799
0.693801
0.693804
0.693807
0.69381
0.693814
0.693818
0.693822
0.693826
0.69383
0.693834
0.693838
0.693842
0.693845
0.693848
0.693851
0.693854
0.693856
0.693858
0.69386
0.693861
0.693863
0.693863
0.693864
0.693864
0.693864
0.693864
0.693863
0.693863
0.693861
0.69386
0.693858
0.693856
0.693854
0.693851
0.693848
0.693845
0.693842
0.693838
0.693834
0.69383
0.693826
0.693822
0.693818
0.693814
0.69381
0.693807
0.693804
0.693801
0.693799
0.693798
0.693799
0.693804
0.693822
0.693881
0.731776
0.731717
0.731699
0.731694
0.731693
0.731694
0.731697
0.7317
0.731703
0.731707
0.731712
0.731716
0.731721
0.731725
0.73173
0.731734
0.731738
0.731742
0.731746
0.731749
0.731753
0.731755
0.731758
0.73176
0.731762
0.731764
0.731765
0.731766
0.731767
0.731767
0.731767
0.731767
0.731766
0.731765
0.731764
0.731762
0.73176
0.731758
0.731755
0.731753
0.731749
0.731746
0.731742
0.731738
0.731734
0.73173
0.731725
0.731721
0.731716
0.731712
0.731707
0.731703
0.7317
0.731697
0.731694
0.731693
0.731694
0.731699
0.731717
0.731776
0.770204
0.770147
0.770129
0.770124
0.770123
0.770124
0.770127
0.77013
0.770134
0.770139
0.770143
0.770148
0.770153
0.770158
0.770163
0.770168
0.770172
0.770177
0.770181
0.770185
0.770188
0.770191
0.770194
0.770197
0.770199
0.770201
0.770202
0.770203
0.770204
0.770204
0.770204
0.770204
0.770203
0.770202
0.770201
0.770199
0.770197
0.770194
0.770191
0.770188
0.770185
0.770181
0.770177
0.770172
0.770168
0.770163
0.770158
0.770153
0.770148
0.770143
0.770139
0.770134
0.77013
0.770127
0.770124
0.770123
0.770124
0.770129
0.770147
0.770204
0.809265
0.809209
0.809191
0.809185
0.809184
0.809186
0.809189
0.809193
0.809197
0.809202
0.809207
0.809213
0.809218
0.809223
0.809229
0.809234
0.809239
0.809244
0.809248
0.809252
0.809256
0.80926
0.809263
0.809266
0.809268
0.80927
0.809271
0.809273
0.809273
0.809274
0.809274
0.809273
0.809273
0.809271
0.80927
0.809268
0.809266
0.809263
0.80926
0.809256
0.809252
0.809248
0.809244
0.809239
0.809234
0.809229
0.809223
0.809218
0.809213
0.809207
0.809202
0.809197
0.809193
0.809189
0.809186
0.809184
0.809185
0.809191
0.809209
0.809265
0.849049
0.848994
0.848976
0.84897
0.848969
0.848971
0.848974
0.848979
0.848983
0.848989
0.848994
0.849
0.849006
0.849012
0.849018
0.849023
0.849029
0.849034
0.849039
0.849043
0.849048
0.849051
0.849055
0.849058
0.84906
0.849062
0.849064
0.849065
0.849066
0.849067
0.849067
0.849066
0.849065
0.849064
0.849062
0.84906
0.849058
0.849055
0.849051
0.849048
0.849043
0.849039
0.849034
0.849029
0.849023
0.849018
0.849012
0.849006
0.849
0.848994
0.848989
0.848983
0.848979
0.848974
0.848971
0.848969
0.84897
0.848976
0.848994
0.849049
0.88964
0.889587
0.889569
0.889563
0.889563
0.889565
0.889568
0.889573
0.889578
0.889584
0.88959
0.889596
0.889603
0.889609
0.889615
0.889621
0.889627
0.889633
0.889638
0.889643
0.889648
0.889652
0.889655
0.889659
0.889661
0.889664
0.889666
0.889667
0.889668
0.889668
0.889668
0.889668
0.889667
0.889666
0.889664
0.889661
0.889659
0.889655
0.889652
0.889648
0.889643
0.889638
0.889633
0.889627
0.889621
0.889615
0.889609
0.889603
0.889596
0.88959
0.889584
0.889578
0.889573
0.889568
0.889565
0.889563
0.889563
0.889569
0.889587
0.88964
0.931121
0.931069
0.931051
0.931045
0.931045
0.931047
0.931051
0.931056
0.931061
0.931068
0.931074
0.931081
0.931088
0.931095
0.931102
0.931108
0.931115
0.931121
0.931126
0.931132
0.931137
0.931141
0.931145
0.931148
0.931151
0.931154
0.931156
0.931157
0.931158
0.931159
0.931159
0.931158
0.931157
0.931156
0.931154
0.931151
0.931148
0.931145
0.931141
0.931137
0.931132
0.931126
0.931121
0.931115
0.931108
0.931102
0.931095
0.931088
0.931081
0.931074
0.931068
0.931061
0.931056
0.931051
0.931047
0.931045
0.931045
0.931051
0.931069
0.931121
0.973565
0.973515
0.973497
0.973491
0.973491
0.973493
0.973498
0.973503
0.973509
0.973516
0.973523
0.97353
0.973538
0.973545
0.973553
0.97356
0.973567
0.973573
0.973579
0.973585
0.97359
0.973595
0.973599
0.973603
0.973606
0.973609
0.973611
0.973612
0.973613
0.973614
0.973614
0.973613
0.973612
0.973611
0.973609
0.973606
0.973603
0.973599
0.973595
0.97359
0.973585
0.973579
0.973573
0.973567
0.97356
0.973553
0.973545
0.973538
0.97353
0.973523
0.973516
0.973509
0.973503
0.973498
0.973493
0.973491
0.973491
0.973497
0.973515
0.973565
1.01705
1.017
1.01698
1.01697
1.01697
1.01698
1.01698
1.01699
1.01699
1.017
1.01701
1.01702
1.01702
1.01703
1.01704
1.01705
1.01705
1.01706
1.01707
1.01707
1.01708
1.01709
1.01709
1.01709
1.0171
1.0171
1.0171
1.0171
1.01711
1.01711
1.01711
1.01711
1.0171
1.0171
1.0171
1.0171
1.01709
1.01709
1.01709
1.01708
1.01707
1.01707
1.01706
1.01705
1.01705
1.01704
1.01703
1.01702
1.01702
1.01701
1.017
1.01699
1.01699
1.01698
1.01698
1.01697
1.01697
1.01698
1.017
1.01705
1.06163
1.06158
1.06157
1.06156
1.06156
1.06156
1.06157
1.06158
1.06158
1.06159
1.0616
1.06161
1.06162
1.06162
1.06163
1.06164
1.06165
1.06166
1.06166
1.06167
1.06168
1.06168
1.06169
1.06169
1.06169
1.0617
1.0617
1.0617
1.0617
1.0617
1.0617
1.0617
1.0617
1.0617
1.0617
1.06169
1.06169
1.06169
1.06168
1.06168
1.06167
1.06166
1.06166
1.06165
1.06164
1.06163
1.06162
1.06162
1.06161
1.0616
1.06159
1.06158
1.06158
1.06157
1.06156
1.06156
1.06156
1.06157
1.06158
1.06163
1.10739
1.10734
1.10732
1.10732
1.10732
1.10732
1.10733
1.10733
1.10734
1.10735
1.10736
1.10737
1.10738
1.10739
1.1074
1.1074
1.10741
1.10742
1.10743
1.10743
1.10744
1.10745
1.10745
1.10746
1.10746
1.10746
1.10747
1.10747
1.10747
1.10747
1.10747
1.10747
1.10747
1.10747
1.10746
1.10746
1.10746
1.10745
1.10745
1.10744
1.10743
1.10743
1.10742
1.10741
1.1074
1.1074
1.10739
1.10738
1.10737
1.10736
1.10735
1.10734
1.10733
1.10733
1.10732
1.10732
1.10732
1.10732
1.10734
1.10739
1.15438
1.15433
1.15432
1.15431
1.15431
1.15431
1.15432
1.15433
1.15434
1.15434
1.15435
1.15436
1.15437
1.15438
1.15439
1.1544
1.15441
1.15442
1.15443
1.15443
1.15444
1.15445
1.15445
1.15446
1.15446
1.15447
1.15447
1.15447
1.15447
1.15447
1.15447
1.15447
1.15447
1.15447
1.15447
1.15446
1.15446
1.15445
1.15445
1.15444
1.15443
1.15443
1.15442
1.15441
1.1544
1.15439
1.15438
1.15437
1.15436
1.15435
1.15434
1.15434
1.15433
1.15432
1.15431
1.15431
1.15431
1.15432
1.15433
1.15438
1.20266
1.20262
1.2026
1.2026
1.2026
1.2026
1.20261
1.20262
1.20262
1.20263
1.20264
1.20265
1.20266
1.20267
1.20268
1.20269
1.2027
1.20271
1.20272
1.20273
1.20274
1.20274
1.20275
1.20275
1.20276
1.20276
1.20277
1.20277
1.20277
1.20277
1.20277
1.20277
1.20277
1.20277
1.20276
1.20276
1.20275
1.20275
1.20274
1.20274
1.20273
1.20272
1.20271
1.2027
1.20269
1.20268
1.20267
1.20266
1.20265
1.20264
1.20263
1.20262
1.20262
1.20261
1.2026
1.2026
1.2026
1.2026
1.20262
1.20266
1.2523
1.25226
1.25224
1.25224
1.25224
1.25224
1.25225
1.25226
1.25227
1.25228
1.25229
1.2523
1.25231
1.25232
1.25233
1.25234
1.25235
1.25236
1.25237
1.25238
1.25239
1.25239
1.2524
1.25241
1.25241
1.25241
1.25242
1.25242
1.25242
1.25242
1.25242
1.25242
1.25242
1.25242
1.25241
1.25241
1.25241
1.2524
1.25239
1.25239
1.25238
1.25237
1.25236
1.25235
1.25234
1.25233
1.25232
1.25231
1.2523
1.25229
1.25228
1.25227
1.25226
1.25225
1.25224
1.25224
1.25224
1.25224
1.25226
1.2523
1.30335
1.30331
1.3033
1.30329
1.30329
1.3033
1.30331
1.30331
1.30332
1.30333
1.30335
1.30336
1.30337
1.30338
1.30339
1.3034
1.30341
1.30342
1.30343
1.30344
1.30345
1.30346
1.30346
1.30347
1.30347
1.30348
1.30348
1.30348
1.30349
1.30349
1.30349
1.30349
1.30348
1.30348
1.30348
1.30347
1.30347
1.30346
1.30346
1.30345
1.30344
1.30343
1.30342
1.30341
1.3034
1.30339
1.30338
1.30337
1.30336
1.30335
1.30333
1.30332
1.30331
1.30331
1.3033
1.30329
1.30329
1.3033
1.30331
1.30335
1.35587
1.35584
1.35582
1.35582
1.35582
1.35582
1.35583
1.35584
1.35585
1.35586
1.35587
1.35588
1.3559
1.35591
1.35592
1.35593
1.35594
1.35595
1.35596
1.35597
1.35598
1.35599
1.356
1.356
1.35601
1.35601
1.35602
1.35602
1.35602
1.35602
1.35602
1.35602
1.35602
1.35602
1.35601
1.35601
1.356
1.356
1.35599
1.35598
1.35597
1.35596
1.35595
1.35594
1.35593
1.35592
1.35591
1.3559
1.35588
1.35587
1.35586
1.35585
1.35584
1.35583
1.35582
1.35582
1.35582
1.35582
1.35584
1.35587
1.40992
1.40988
1.40987
1.40987
1.40987
1.40987
1.40988
1.40989
1.4099
1.40991
1.40993
1.40994
1.40995
1.40996
1.40998
1.40999
1.41
1.41001
1.41002
1.41003
1.41004
1.41005
1.41006
1.41006
1.41007
1.41007
1.41008
1.41008
1.41008
1.41008
1.41008
1.41008
1.41008
1.41008
1.41007
1.41007
1.41006
1.41006
1.41005
1.41004
1.41003
1.41002
1.41001
1.41
1.40999
1.40998
1.40996
1.40995
1.40994
1.40993
1.40991
1.4099
1.40989
1.40988
1.40987
1.40987
1.40987
1.40987
1.40988
1.40992
1.46554
1.46552
1.4655
1.4655
1.4655
1.4655
1.46551
1.46552
1.46553
1.46555
1.46556
1.46557
1.46559
1.4656
1.46561
1.46563
1.46564
1.46565
1.46566
1.46567
1.46568
1.46569
1.4657
1.46571
1.46571
1.46572
1.46572
1.46572
1.46573
1.46573
1.46573
1.46573
1.46572
1.46572
1.46572
1.46571
1.46571
1.4657
1.46569
1.46568
1.46567
1.46566
1.46565
1.46564
1.46563
1.46561
1.4656
1.46559
1.46557
1.46556
1.46555
1.46553
1.46552
1.46551
1.4655
1.4655
1.4655
1.4655
1.46552
1.46554
1.52281
1.52278
1.52277
1.52277
1.52277
1.52277
1.52278
1.52279
1.52281
1.52282
1.52283
1.52285
1.52286
1.52288
1.52289
1.5229
1.52292
1.52293
1.52294
1.52295
1.52296
1.52297
1.52298
1.52299
1.52299
1.523
1.523
1.52301
1.52301
1.52301
1.52301
1.52301
1.52301
1.523
1.523
1.52299
1.52299
1.52298
1.52297
1.52296
1.52295
1.52294
1.52293
1.52292
1.5229
1.52289
1.52288
1.52286
1.52285
1.52283
1.52282
1.52281
1.52279
1.52278
1.52277
1.52277
1.52277
1.52277
1.52278
1.52281
1.58177
1.58175
1.58173
1.58173
1.58173
1.58174
1.58175
1.58176
1.58177
1.58179
1.5818
1.58182
1.58183
1.58185
1.58186
1.58188
1.58189
1.5819
1.58192
1.58193
1.58194
1.58195
1.58196
1.58196
1.58197
1.58197
1.58198
1.58198
1.58198
1.58199
1.58199
1.58198
1.58198
1.58198
1.58197
1.58197
1.58196
1.58196
1.58195
1.58194
1.58193
1.58192
1.5819
1.58189
1.58188
1.58186
1.58185
1.58183
1.58182
1.5818
1.58179
1.58177
1.58176
1.58175
1.58174
1.58173
1.58173
1.58173
1.58175
1.58177
1.64248
1.64246
1.64245
1.64244
1.64245
1.64245
1.64246
1.64248
1.64249
1.6425
1.64252
1.64253
1.64255
1.64257
1.64258
1.6426
1.64261
1.64263
1.64264
1.64265
1.64266
1.64267
1.64268
1.64269
1.6427
1.6427
1.64271
1.64271
1.64271
1.64271
1.64271
1.64271
1.64271
1.64271
1.6427
1.6427
1.64269
1.64268
1.64267
1.64266
1.64265
1.64264
1.64263
1.64261
1.6426
1.64258
1.64257
1.64255
1.64253
1.64252
1.6425
1.64249
1.64248
1.64246
1.64245
1.64245
1.64244
1.64245
1.64246
1.64248
1.705
1.70498
1.70497
1.70496
1.70497
1.70497
1.70499
1.705
1.70501
1.70503
1.70504
1.70506
1.70508
1.70509
1.70511
1.70513
1.70514
1.70516
1.70517
1.70518
1.70519
1.7052
1.70521
1.70522
1.70523
1.70524
1.70524
1.70524
1.70525
1.70525
1.70525
1.70525
1.70524
1.70524
1.70524
1.70523
1.70522
1.70521
1.7052
1.70519
1.70518
1.70517
1.70516
1.70514
1.70513
1.70511
1.70509
1.70508
1.70506
1.70504
1.70503
1.70501
1.705
1.70499
1.70497
1.70497
1.70496
1.70497
1.70498
1.705
1.76938
1.76936
1.76935
1.76935
1.76935
1.76936
1.76937
1.76939
1.7694
1.76942
1.76943
1.76945
1.76947
1.76949
1.7695
1.76952
1.76954
1.76955
1.76957
1.76958
1.76959
1.7696
1.76961
1.76962
1.76963
1.76964
1.76964
1.76964
1.76965
1.76965
1.76965
1.76965
1.76964
1.76964
1.76964
1.76963
1.76962
1.76961
1.7696
1.76959
1.76958
1.76957
1.76955
1.76954
1.76952
1.7695
1.76949
1.76947
1.76945
1.76943
1.76942
1.7694
1.76939
1.76937
1.76936
1.76935
1.76935
1.76935
1.76936
1.76938
1.83569
1.83567
1.83566
1.83566
1.83566
1.83567
1.83568
1.8357
1.83571
1.83573
1.83575
1.83577
1.83578
1.8358
1.83582
1.83584
1.83586
1.83587
1.83589
1.8359
1.83591
1.83592
1.83594
1.83594
1.83595
1.83596
1.83596
1.83597
1.83597
1.83597
1.83597
1.83597
1.83597
1.83596
1.83596
1.83595
1.83594
1.83594
1.83592
1.83591
1.8359
1.83589
1.83587
1.83586
1.83584
1.83582
1.8358
1.83578
1.83577
1.83575
1.83573
1.83571
1.8357
1.83568
1.83567
1.83566
1.83566
1.83566
1.83567
1.83569
1.90398
1.90396
1.90395
1.90395
1.90396
1.90397
1.90398
1.90399
1.90401
1.90403
1.90404
1.90406
1.90408
1.9041
1.90412
1.90414
1.90416
1.90417
1.90419
1.90421
1.90422
1.90423
1.90424
1.90425
1.90426
1.90427
1.90427
1.90428
1.90428
1.90428
1.90428
1.90428
1.90428
1.90427
1.90427
1.90426
1.90425
1.90424
1.90423
1.90422
1.90421
1.90419
1.90417
1.90416
1.90414
1.90412
1.9041
1.90408
1.90406
1.90404
1.90403
1.90401
1.90399
1.90398
1.90397
1.90396
1.90395
1.90395
1.90396
1.90398
1.97431
1.9743
1.97429
1.97429
1.97429
1.9743
1.97432
1.97433
1.97435
1.97437
1.97439
1.97441
1.97443
1.97445
1.97447
1.97449
1.97451
1.97452
1.97454
1.97456
1.97457
1.97458
1.97459
1.9746
1.97461
1.97462
1.97463
1.97463
1.97463
1.97463
1.97463
1.97463
1.97463
1.97463
1.97462
1.97461
1.9746
1.97459
1.97458
1.97457
1.97456
1.97454
1.97452
1.97451
1.97449
1.97447
1.97445
1.97443
1.97441
1.97439
1.97437
1.97435
1.97433
1.97432
1.9743
1.97429
1.97429
1.97429
1.9743
1.97431
2.04675
2.04674
2.04673
2.04673
2.04674
2.04675
2.04676
2.04678
2.0468
2.04682
2.04684
2.04686
2.04688
2.0469
2.04692
2.04694
2.04696
2.04698
2.047
2.04701
2.04703
2.04704
2.04705
2.04706
2.04707
2.04708
2.04709
2.04709
2.04709
2.0471
2.0471
2.04709
2.04709
2.04709
2.04708
2.04707
2.04706
2.04705
2.04704
2.04703
2.04701
2.047
2.04698
2.04696
2.04694
2.04692
2.0469
2.04688
2.04686
2.04684
2.04682
2.0468
2.04678
2.04676
2.04675
2.04674
2.04673
2.04673
2.04674
2.04675
2.12137
2.12136
2.12135
2.12135
2.12136
2.12137
2.12138
2.1214
2.12142
2.12144
2.12146
2.12148
2.1215
2.12153
2.12155
2.12157
2.12159
2.12161
2.12163
2.12164
2.12166
2.12167
2.12169
2.1217
2.12171
2.12171
2.12172
2.12172
2.12173
2.12173
2.12173
2.12173
2.12172
2.12172
2.12171
2.12171
2.1217
2.12169
2.12167
2.12166
2.12164
2.12163
2.12161
2.12159
2.12157
2.12155
2.12153
2.1215
2.12148
2.12146
2.12144
2.12142
2.1214
2.12138
2.12137
2.12136
2.12135
2.12135
2.12136
2.12137
2.19822
2.19821
2.1982
2.1982
2.19821
2.19822
2.19824
2.19826
2.19828
2.1983
2.19832
2.19834
2.19837
2.19839
2.19841
2.19843
2.19846
2.19848
2.19849
2.19851
2.19853
2.19854
2.19856
2.19857
2.19858
2.19858
2.19859
2.1986
2.1986
2.1986
2.1986
2.1986
2.1986
2.19859
2.19858
2.19858
2.19857
2.19856
2.19854
2.19853
2.19851
2.19849
2.19848
2.19846
2.19843
2.19841
2.19839
2.19837
2.19834
2.19832
2.1983
2.19828
2.19826
2.19824
2.19822
2.19821
2.1982
2.1982
2.19821
2.19822
2.27738
2.27737
2.27736
2.27736
2.27737
2.27738
2.2774
2.27742
2.27744
2.27746
2.27749
2.27751
2.27753
2.27756
2.27758
2.2776
2.27763
2.27765
2.27767
2.27769
2.2777
2.27772
2.27773
2.27774
2.27775
2.27776
2.27777
2.27777
2.27778
2.27778
2.27778
2.27778
2.27777
2.27777
2.27776
2.27775
2.27774
2.27773
2.27772
2.2777
2.27769
2.27767
2.27765
2.27763
2.2776
2.27758
2.27756
2.27753
2.27751
2.27749
2.27746
2.27744
2.27742
2.2774
2.27738
2.27737
2.27736
2.27736
2.27737
2.27738
2.35891
2.3589
2.3589
2.3589
2.35891
2.35892
2.35894
2.35896
2.35898
2.359
2.35903
2.35905
2.35908
2.3591
2.35913
2.35915
2.35917
2.3592
2.35922
2.35924
2.35925
2.35927
2.35928
2.3593
2.35931
2.35932
2.35932
2.35933
2.35933
2.35933
2.35933
2.35933
2.35933
2.35932
2.35932
2.35931
2.3593
2.35928
2.35927
2.35925
2.35924
2.35922
2.3592
2.35917
2.35915
2.35913
2.3591
2.35908
2.35905
2.35903
2.359
2.35898
2.35896
2.35894
2.35892
2.35891
2.3589
2.3589
2.3589
2.35891
2.44289
2.44288
2.44288
2.44288
2.44289
2.4429
2.44292
2.44294
2.44296
2.44299
2.44301
2.44304
2.44307
2.44309
2.44312
2.44314
2.44317
2.44319
2.44321
2.44323
2.44325
2.44327
2.44328
2.4433
2.44331
2.44332
2.44332
2.44333
2.44333
2.44333
2.44333
2.44333
2.44333
2.44332
2.44332
2.44331
2.4433
2.44328
2.44327
2.44325
2.44323
2.44321
2.44319
2.44317
2.44314
2.44312
2.44309
2.44307
2.44304
2.44301
2.44299
2.44296
2.44294
2.44292
2.4429
2.44289
2.44288
2.44288
2.44288
2.44289
2.52939
2.52938
2.52938
2.52938
2.52939
2.52941
2.52943
2.52945
2.52947
2.5295
2.52952
2.52955
2.52958
2.5296
2.52963
2.52966
2.52968
2.52971
2.52973
2.52975
2.52977
2.52979
2.5298
2.52982
2.52983
2.52984
2.52984
2.52985
2.52985
2.52986
2.52986
2.52985
2.52985
2.52984
2.52984
2.52983
2.52982
2.5298
2.52979
2.52977
2.52975
2.52973
2.52971
2.52968
2.52966
2.52963
2.5296
2.52958
2.52955
2.52952
2.5295
2.52947
2.52945
2.52943
2.52941
2.52939
2.52938
2.52938
2.52938
2.52939
2.61848
2.61848
2.61848
2.61848
2.61849
2.61851
2.61853
2.61855
2.61857
2.6186
2.61863
2.61866
2.61868
2.61871
2.61874
2.61877
2.61879
2.61882
2.61884
2.61886
2.61888
2.6189
2.61892
2.61893
2.61894
2.61895
2.61896
2.61897
2.61897
2.61897
2.61897
2.61897
2.61897
2.61896
2.61895
2.61894
2.61893
2.61892
2.6189
2.61888
2.61886
2.61884
2.61882
2.61879
2.61877
2.61874
2.61871
2.61868
2.61866
2.61863
2.6186
2.61857
2.61855
2.61853
2.61851
2.61849
2.61848
2.61848
2.61848
2.61848
2.71025
2.71025
2.71025
2.71025
2.71026
2.71028
2.7103
2.71032
2.71035
2.71038
2.71041
2.71044
2.71047
2.7105
2.71052
2.71055
2.71058
2.71061
2.71063
2.71065
2.71067
2.71069
2.71071
2.71072
2.71074
2.71075
2.71076
2.71076
2.71077
2.71077
2.71077
2.71077
2.71076
2.71076
2.71075
2.71074
2.71072
2.71071
2.71069
2.71067
2.71065
2.71063
2.71061
2.71058
2.71055
2.71052
2.7105
2.71047
2.71044
2.71041
2.71038
2.71035
2.71032
2.7103
2.71028
2.71026
2.71025
2.71025
2.71025
2.71025
2.80477
2.80477
2.80477
2.80478
2.80479
2.80481
2.80483
2.80485
2.80488
2.80491
2.80494
2.80497
2.805
2.80503
2.80506
2.80509
2.80512
2.80515
2.80517
2.8052
2.80522
2.80524
2.80526
2.80527
2.80528
2.8053
2.8053
2.80531
2.80532
2.80532
2.80532
2.80532
2.80531
2.8053
2.8053
2.80528
2.80527
2.80526
2.80524
2.80522
2.8052
2.80517
2.80515
2.80512
2.80509
2.80506
2.80503
2.805
2.80497
2.80494
2.80491
2.80488
2.80485
2.80483
2.80481
2.80479
2.80478
2.80477
2.80477
2.80477
2.90213
2.90213
2.90213
2.90214
2.90215
2.90217
2.9022
2.90222
2.90225
2.90228
2.90231
2.90234
2.90238
2.90241
2.90244
2.90247
2.9025
2.90253
2.90255
2.90258
2.9026
2.90262
2.90264
2.90266
2.90267
2.90268
2.90269
2.9027
2.9027
2.9027
2.9027
2.9027
2.9027
2.90269
2.90268
2.90267
2.90266
2.90264
2.90262
2.9026
2.90258
2.90255
2.90253
2.9025
2.90247
2.90244
2.90241
2.90238
2.90234
2.90231
2.90228
2.90225
2.90222
2.9022
2.90217
2.90215
2.90214
2.90213
2.90213
2.90213
3.00242
3.00242
3.00242
3.00243
3.00244
3.00246
3.00248
3.00251
3.00254
3.00257
3.0026
3.00264
3.00267
3.00271
3.00274
3.00277
3.0028
3.00283
3.00286
3.00288
3.00291
3.00293
3.00295
3.00296
3.00298
3.00299
3.003
3.00301
3.00301
3.00301
3.00301
3.00301
3.00301
3.003
3.00299
3.00298
3.00296
3.00295
3.00293
3.00291
3.00288
3.00286
3.00283
3.0028
3.00277
3.00274
3.00271
3.00267
3.00264
3.0026
3.00257
3.00254
3.00251
3.00248
3.00246
3.00244
3.00243
3.00242
3.00242
3.00242
3.10571
3.10571
3.10572
3.10572
3.10574
3.10576
3.10578
3.10581
3.10584
3.10587
3.10591
3.10594
3.10598
3.10601
3.10605
3.10608
3.10611
3.10615
3.10617
3.1062
3.10622
3.10625
3.10627
3.10628
3.1063
3.10631
3.10632
3.10633
3.10633
3.10634
3.10634
3.10633
3.10633
3.10632
3.10631
3.1063
3.10628
3.10627
3.10625
3.10622
3.1062
3.10617
3.10615
3.10611
3.10608
3.10605
3.10601
3.10598
3.10594
3.10591
3.10587
3.10584
3.10581
3.10578
3.10576
3.10574
3.10572
3.10572
3.10571
3.10571
3.21211
3.21211
3.21211
3.21212
3.21214
3.21216
3.21218
3.21221
3.21224
3.21228
3.21231
3.21235
3.21239
3.21242
3.21246
3.2125
3.21253
3.21256
3.21259
3.21262
3.21264
3.21267
3.21269
3.2127
3.21272
3.21273
3.21274
3.21275
3.21276
3.21276
3.21276
3.21276
3.21275
3.21274
3.21273
3.21272
3.2127
3.21269
3.21267
3.21264
3.21262
3.21259
3.21256
3.21253
3.2125
3.21246
3.21242
3.21239
3.21235
3.21231
3.21228
3.21224
3.21221
3.21218
3.21216
3.21214
3.21212
3.21211
3.21211
3.21211
3.32169
3.32169
3.3217
3.32171
3.32173
3.32175
3.32178
3.32181
3.32184
3.32188
3.32191
3.32195
3.32199
3.32203
3.32207
3.3221
3.32214
3.32217
3.3222
3.32223
3.32226
3.32228
3.3223
3.32232
3.32233
3.32235
3.32236
3.32237
3.32237
3.32237
3.32237
3.32237
3.32237
3.32236
3.32235
3.32233
3.32232
3.3223
3.32228
3.32226
3.32223
3.3222
3.32217
3.32214
3.3221
3.32207
3.32203
3.32199
3.32195
3.32191
3.32188
3.32184
3.32181
3.32178
3.32175
3.32173
3.32171
3.3217
3.32169
3.32169
3.43457
3.43457
3.43458
3.43459
3.43461
3.43463
3.43466
3.43469
3.43473
3.43476
3.4348
3.43484
3.43488
3.43492
3.43496
3.435
3.43503
3.43507
3.4351
3.43513
3.43516
3.43518
3.4352
3.43522
3.43524
3.43525
3.43527
3.43527
3.43528
3.43528
3.43528
3.43528
3.43527
3.43527
3.43525
3.43524
3.43522
3.4352
3.43518
3.43516
3.43513
3.4351
3.43507
3.43503
3.435
3.43496
3.43492
3.43488
3.43484
3.4348
3.43476
3.43473
3.43469
3.43466
3.43463
3.43461
3.43459
3.43458
3.43457
3.43457
3.55084
3.55084
3.55085
3.55086
3.55088
3.5509
3.55093
3.55096
3.551
3.55104
3.55108
3.55112
3.55116
3.5512
3.55125
3.55128
3.55132
3.55136
3.55139
3.55142
3.55145
3.55148
3.5515
3.55152
3.55154
3.55155
3.55156
3.55157
3.55158
3.55158
3.55158
3.55158
3.55157
3.55156
3.55155
3.55154
3.55152
3.5515
3.55148
3.55145
3.55142
3.55139
3.55136
3.55132
3.55128
3.55125
3.5512
3.55116
3.55112
3.55108
3.55104
3.551
3.55096
3.55093
3.5509
3.55088
3.55086
3.55085
3.55084
3.55084
3.67059
3.6706
3.6706
3.67062
3.67064
3.67066
3.67069
3.67073
3.67077
3.67081
3.67085
3.67089
3.67093
3.67098
3.67102
3.67106
3.6711
3.67114
3.67117
3.6712
3.67123
3.67126
3.67128
3.6713
3.67132
3.67134
3.67135
3.67136
3.67136
3.67137
3.67137
3.67136
3.67136
3.67135
3.67134
3.67132
3.6713
3.67128
3.67126
3.67123
3.6712
3.67117
3.67114
3.6711
3.67106
3.67102
3.67098
3.67093
3.67089
3.67085
3.67081
3.67077
3.67073
3.67069
3.67066
3.67064
3.67062
3.6706
3.6706
3.67059
3.79394
3.79395
3.79395
3.79397
3.79399
3.79402
3.79405
3.79409
3.79413
3.79417
3.79421
3.79426
3.7943
3.79435
3.79439
3.79443
3.79447
3.79451
3.79455
3.79458
3.79461
3.79464
3.79466
3.79468
3.7947
3.79472
3.79473
3.79474
3.79475
3.79475
3.79475
3.79475
3.79474
3.79473
3.79472
3.7947
3.79468
3.79466
3.79464
3.79461
3.79458
3.79455
3.79451
3.79447
3.79443
3.79439
3.79435
3.7943
3.79426
3.79421
3.79417
3.79413
3.79409
3.79405
3.79402
3.79399
3.79397
3.79395
3.79395
3.79394
3.92099
3.921
3.92101
3.92102
3.92105
3.92108
3.92111
3.92115
3.92119
3.92123
3.92128
3.92132
3.92137
3.92142
3.92146
3.92151
3.92155
3.92159
3.92163
3.92166
3.92169
3.92172
3.92175
3.92177
3.92179
3.9218
3.92182
3.92183
3.92183
3.92184
3.92184
3.92183
3.92183
3.92182
3.9218
3.92179
3.92177
3.92175
3.92172
3.92169
3.92166
3.92163
3.92159
3.92155
3.92151
3.92146
3.92142
3.92137
3.92132
3.92128
3.92123
3.92119
3.92115
3.92111
3.92108
3.92105
3.92102
3.92101
3.921
3.92099
4.05186
4.05187
4.05188
4.05189
4.05192
4.05195
4.05198
4.05202
4.05206
4.05211
4.05216
4.05221
4.05226
4.0523
4.05235
4.0524
4.05244
4.05248
4.05252
4.05256
4.05259
4.05262
4.05265
4.05267
4.05269
4.05271
4.05272
4.05273
4.05274
4.05274
4.05274
4.05274
4.05273
4.05272
4.05271
4.05269
4.05267
4.05265
4.05262
4.05259
4.05256
4.05252
4.05248
4.05244
4.0524
4.05235
4.0523
4.05226
4.05221
4.05216
4.05211
4.05206
4.05202
4.05198
4.05195
4.05192
4.05189
4.05188
4.05187
4.05186
4.18666
4.18666
4.18667
4.18669
4.18672
4.18675
4.18678
4.18682
4.18687
4.18692
4.18697
4.18702
4.18707
4.18712
4.18717
4.18722
4.18726
4.1873
4.18734
4.18738
4.18742
4.18745
4.18747
4.1875
4.18752
4.18754
4.18755
4.18756
4.18757
4.18757
4.18757
4.18757
4.18756
4.18755
4.18754
4.18752
4.1875
4.18747
4.18745
4.18742
4.18738
4.18734
4.1873
4.18726
4.18722
4.18717
4.18712
4.18707
4.18702
4.18697
4.18692
4.18687
4.18682
4.18678
4.18675
4.18672
4.18669
4.18667
4.18666
4.18666
4.3255
4.3255
4.32551
4.32553
4.32556
4.32559
4.32563
4.32567
4.32572
4.32577
4.32582
4.32587
4.32593