/*--------------------------------*- C++ -*----------------------------------*\
| =========                 |                                                 |
| \\      /  F ield         | foam-extend: Open Source CFD                    |
|  \\    /   O peration     | Version:     4.0                                |
|   \\  /    A nd           | Web:         http://www.foam-extend.org         |
|    \\/     M anipulation  |                                                 |
\*---------------------------------------------------------------------------*/
FoamFile
{
    version     2.0;
    format      ascii;
    class       volScalarField;
    location    "1470";
    object      psiE;
}
// * * * * * * * * * * * * * * * * * * * * * * * * * * * * * * * * * * * * * //

dimensions      [0 0 0 0 0 0 0];

internalField   nonuniform List<scalar> 
6960
(
0.345448
0.345458
0.345468
0.345479
0.345488
0.345497
0.345504
0.345511
0.345516
0.345521
0.345525
0.345528
0.345531
0.345534
0.345536
0.345538
0.345539
0.34554
0.345542
0.345542
0.345543
0.345544
0.345544
0.345545
0.345545
0.345545
0.345545
0.345546
0.345546
0.345546
0.345546
0.345546
0.345546
0.345545
0.345545
0.345545
0.345545
0.345544
0.345544
0.345543
0.345542
0.345542
0.34554
0.345539
0.345538
0.345536
0.345534
0.345531
0.345528
0.345525
0.345521
0.345516
0.345511
0.345504
0.345497
0.345488
0.345479
0.345468
0.345458
0.345448
0.878646
0.878683
0.878726
0.878769
0.878807
0.878841
0.878871
0.878898
0.87892
0.878939
0.878956
0.87897
0.878982
0.878992
0.879
0.879007
0.879013
0.879018
0.879022
0.879026
0.879029
0.879031
0.879033
0.879035
0.879036
0.879037
0.879038
0.879038
0.879039
0.879039
0.879039
0.879039
0.879038
0.879038
0.879037
0.879036
0.879035
0.879033
0.879031
0.879029
0.879026
0.879022
0.879018
0.879013
0.879007
0.879
0.878992
0.878982
0.87897
0.878956
0.878939
0.87892
0.878898
0.878871
0.878841
0.878807
0.878769
0.878726
0.878683
0.878646
1.37204
1.37211
1.3722
1.37228
1.37236
1.37242
1.37248
1.37253
1.37258
1.37262
1.37265
1.37268
1.3727
1.37272
1.37273
1.37275
1.37276
1.37277
1.37278
1.37278
1.37279
1.37279
1.3728
1.3728
1.3728
1.37281
1.37281
1.37281
1.37281
1.37281
1.37281
1.37281
1.37281
1.37281
1.37281
1.3728
1.3728
1.3728
1.37279
1.37279
1.37278
1.37278
1.37277
1.37276
1.37275
1.37273
1.37272
1.3727
1.37268
1.37265
1.37262
1.37258
1.37253
1.37248
1.37242
1.37236
1.37228
1.3722
1.37211
1.37204
1.85791
1.85802
1.85816
1.85829
1.8584
1.85851
1.8586
1.85868
1.85875
1.8588
1.85885
1.8589
1.85893
1.85896
1.85899
1.85901
1.85903
1.85904
1.85906
1.85907
1.85907
1.85908
1.85909
1.85909
1.8591
1.8591
1.8591
1.8591
1.8591
1.8591
1.8591
1.8591
1.8591
1.8591
1.8591
1.8591
1.85909
1.85909
1.85908
1.85907
1.85907
1.85906
1.85904
1.85903
1.85901
1.85899
1.85896
1.85893
1.8589
1.85885
1.8588
1.85875
1.85868
1.8586
1.85851
1.8584
1.85829
1.85816
1.85802
1.85791
2.34755
2.34771
2.34789
2.34807
2.34823
2.34837
2.3485
2.34861
2.3487
2.34878
2.34885
2.34891
2.34896
2.349
2.34904
2.34907
2.34909
2.34911
2.34913
2.34914
2.34916
2.34916
2.34917
2.34918
2.34919
2.34919
2.34919
2.34919
2.3492
2.3492
2.3492
2.3492
2.34919
2.34919
2.34919
2.34919
2.34918
2.34917
2.34916
2.34916
2.34914
2.34913
2.34911
2.34909
2.34907
2.34904
2.349
2.34896
2.34891
2.34885
2.34878
2.3487
2.34861
2.3485
2.34837
2.34823
2.34807
2.34789
2.34771
2.34755
2.84506
2.84526
2.84549
2.84572
2.84593
2.84611
2.84627
2.84642
2.84654
2.84664
2.84673
2.8468
2.84687
2.84692
2.84697
2.847
2.84704
2.84706
2.84708
2.8471
2.84712
2.84713
2.84714
2.84715
2.84716
2.84716
2.84717
2.84717
2.84717
2.84717
2.84717
2.84717
2.84717
2.84717
2.84716
2.84716
2.84715
2.84714
2.84713
2.84712
2.8471
2.84708
2.84706
2.84704
2.847
2.84697
2.84692
2.84687
2.8468
2.84673
2.84664
2.84654
2.84642
2.84627
2.84611
2.84593
2.84572
2.84549
2.84526
2.84506
3.3519
3.35214
3.35243
3.35271
3.35296
3.35319
3.35339
3.35356
3.35371
3.35384
3.35395
3.35404
3.35412
3.35418
3.35424
3.35428
3.35432
3.35436
3.35438
3.35441
3.35442
3.35444
3.35445
3.35446
3.35447
3.35448
3.35448
3.35449
3.35449
3.35449
3.35449
3.35449
3.35449
3.35448
3.35448
3.35447
3.35446
3.35445
3.35444
3.35442
3.35441
3.35438
3.35436
3.35432
3.35428
3.35424
3.35418
3.35412
3.35404
3.35395
3.35384
3.35371
3.35356
3.35339
3.35319
3.35296
3.35271
3.35243
3.35214
3.3519
3.86857
3.86885
3.8692
3.86953
3.86983
3.8701
3.87033
3.87054
3.87071
3.87086
3.87099
3.8711
3.8712
3.87127
3.87134
3.87139
3.87144
3.87148
3.87151
3.87154
3.87156
3.87158
3.87159
3.87161
3.87162
3.87162
3.87163
3.87163
3.87164
3.87164
3.87164
3.87164
3.87163
3.87163
3.87162
3.87162
3.87161
3.87159
3.87158
3.87156
3.87154
3.87151
3.87148
3.87144
3.87139
3.87134
3.87127
3.8712
3.8711
3.87099
3.87086
3.87071
3.87054
3.87033
3.8701
3.86983
3.86953
3.8692
3.86885
3.86857
4.39518
4.39551
4.39591
4.39629
4.39664
4.39695
4.39722
4.39746
4.39767
4.39784
4.39799
4.39812
4.39822
4.39831
4.39839
4.39845
4.39851
4.39855
4.39859
4.39862
4.39865
4.39867
4.39869
4.3987
4.39871
4.39872
4.39873
4.39873
4.39874
4.39874
4.39874
4.39874
4.39873
4.39873
4.39872
4.39871
4.3987
4.39869
4.39867
4.39865
4.39862
4.39859
4.39855
4.39851
4.39845
4.39839
4.39831
4.39822
4.39812
4.39799
4.39784
4.39767
4.39746
4.39722
4.39695
4.39664
4.39629
4.39591
4.39551
4.39518
4.93171
4.93209
4.93254
4.93297
4.93337
4.93373
4.93404
4.93431
4.93454
4.93474
4.93491
4.93505
4.93517
4.93528
4.93536
4.93544
4.9355
4.93555
4.93559
4.93563
4.93566
4.93568
4.9357
4.93572
4.93573
4.93574
4.93575
4.93575
4.93576
4.93576
4.93576
4.93576
4.93575
4.93575
4.93574
4.93573
4.93572
4.9357
4.93568
4.93566
4.93563
4.93559
4.93555
4.9355
4.93544
4.93536
4.93528
4.93517
4.93505
4.93491
4.93474
4.93454
4.93431
4.93404
4.93373
4.93337
4.93297
4.93254
4.93209
4.93171
5.47806
5.47848
5.47899
5.47948
5.47992
5.48032
5.48067
5.48097
5.48123
5.48145
5.48164
5.4818
5.48194
5.48206
5.48215
5.48224
5.4823
5.48236
5.48241
5.48245
5.48248
5.48251
5.48253
5.48255
5.48256
5.48258
5.48258
5.48259
5.4826
5.4826
5.4826
5.4826
5.48259
5.48258
5.48258
5.48256
5.48255
5.48253
5.48251
5.48248
5.48245
5.48241
5.48236
5.4823
5.48224
5.48215
5.48206
5.48194
5.4818
5.48164
5.48145
5.48123
5.48097
5.48067
5.48032
5.47992
5.47948
5.47899
5.47848
5.47806
6.03408
6.03454
6.0351
6.03564
6.03613
6.03657
6.03696
6.0373
6.03758
6.03783
6.03804
6.03822
6.03837
6.0385
6.03861
6.0387
6.03877
6.03884
6.03889
6.03894
6.03897
6.039
6.03903
6.03905
6.03906
6.03908
6.03909
6.03909
6.0391
6.0391
6.0391
6.0391
6.03909
6.03909
6.03908
6.03906
6.03905
6.03903
6.039
6.03897
6.03894
6.03889
6.03884
6.03877
6.0387
6.03861
6.0385
6.03837
6.03822
6.03804
6.03783
6.03758
6.0373
6.03696
6.03657
6.03613
6.03564
6.0351
6.03454
6.03408
6.59955
6.60006
6.60067
6.60127
6.60181
6.60229
6.60272
6.60309
6.6034
6.60367
6.60391
6.6041
6.60427
6.60441
6.60453
6.60463
6.60471
6.60478
6.60484
6.60489
6.60493
6.60496
6.60499
6.60501
6.60503
6.60504
6.60505
6.60506
6.60506
6.60507
6.60507
6.60506
6.60506
6.60505
6.60504
6.60503
6.60501
6.60499
6.60496
6.60493
6.60489
6.60484
6.60478
6.60471
6.60463
6.60453
6.60441
6.60427
6.6041
6.60391
6.60367
6.6034
6.60309
6.60272
6.60229
6.60181
6.60127
6.60067
6.60006
6.59955
7.17425
7.1748
7.17546
7.17611
7.1767
7.17723
7.17769
7.17809
7.17843
7.17873
7.17898
7.1792
7.17938
7.17953
7.17966
7.17977
7.17986
7.17993
7.18
7.18005
7.18009
7.18013
7.18016
7.18018
7.1802
7.18022
7.18023
7.18024
7.18024
7.18025
7.18025
7.18024
7.18024
7.18023
7.18022
7.1802
7.18018
7.18016
7.18013
7.18009
7.18005
7.18
7.17993
7.17986
7.17977
7.17966
7.17953
7.17938
7.1792
7.17898
7.17873
7.17843
7.17809
7.17769
7.17723
7.1767
7.17611
7.17546
7.1748
7.17425
7.75786
7.75845
7.75917
7.75987
7.76051
7.76107
7.76157
7.76201
7.76238
7.7627
7.76297
7.7632
7.7634
7.76356
7.7637
7.76382
7.76392
7.764
7.76407
7.76412
7.76417
7.76421
7.76424
7.76427
7.76429
7.76431
7.76432
7.76433
7.76433
7.76434
7.76434
7.76433
7.76433
7.76432
7.76431
7.76429
7.76427
7.76424
7.76421
7.76417
7.76412
7.76407
7.764
7.76392
7.76382
7.7637
7.76356
7.7634
7.7632
7.76297
7.7627
7.76238
7.76201
7.76157
7.76107
7.76051
7.75987
7.75917
7.75845
7.75786
8.35002
8.35066
8.35143
8.35218
8.35286
8.35347
8.35401
8.35447
8.35487
8.35522
8.35551
8.35576
8.35597
8.35615
8.35629
8.35642
8.35653
8.35661
8.35669
8.35675
8.3568
8.35684
8.35688
8.3569
8.35693
8.35694
8.35696
8.35697
8.35697
8.35698
8.35698
8.35697
8.35697
8.35696
8.35694
8.35693
8.3569
8.35688
8.35684
8.3568
8.35675
8.35669
8.35661
8.35653
8.35642
8.35629
8.35615
8.35597
8.35576
8.35551
8.35522
8.35487
8.35447
8.35401
8.35347
8.35286
8.35218
8.35143
8.35066
8.35002
8.95031
8.95099
8.95181
8.95261
8.95334
8.954
8.95457
8.95506
8.95549
8.95586
8.95617
8.95644
8.95666
8.95685
8.95701
8.95714
8.95726
8.95735
8.95743
8.95749
8.95755
8.95759
8.95763
8.95766
8.95768
8.9577
8.95772
8.95773
8.95774
8.95774
8.95774
8.95774
8.95773
8.95772
8.9577
8.95768
8.95766
8.95763
8.95759
8.95755
8.95749
8.95743
8.95735
8.95726
8.95714
8.95701
8.95685
8.95666
8.95644
8.95617
8.95586
8.95549
8.95506
8.95457
8.954
8.95334
8.95261
8.95181
8.95099
8.95031
9.55822
9.55895
9.55982
9.56067
9.56145
9.56214
9.56275
9.56328
9.56373
9.56412
9.56445
9.56473
9.56497
9.56517
9.56534
9.56549
9.56561
9.56571
9.56579
9.56586
9.56592
9.56596
9.566
9.56604
9.56606
9.56608
9.5661
9.56611
9.56612
9.56612
9.56612
9.56612
9.56611
9.5661
9.56608
9.56606
9.56604
9.566
9.56596
9.56592
9.56586
9.56579
9.56571
9.56561
9.56549
9.56534
9.56517
9.56497
9.56473
9.56445
9.56412
9.56373
9.56328
9.56275
9.56214
9.56145
9.56067
9.55982
9.55895
9.55822
10.1732
10.174
10.1749
10.1758
10.1766
10.1773
10.178
10.1785
10.179
10.1794
10.1798
10.1801
10.1803
10.1805
10.1807
10.1809
10.181
10.1811
10.1812
10.1813
10.1813
10.1814
10.1814
10.1814
10.1815
10.1815
10.1815
10.1815
10.1815
10.1815
10.1815
10.1815
10.1815
10.1815
10.1815
10.1815
10.1814
10.1814
10.1814
10.1813
10.1813
10.1812
10.1811
10.181
10.1809
10.1807
10.1805
10.1803
10.1801
10.1798
10.1794
10.179
10.1785
10.178
10.1773
10.1766
10.1758
10.1749
10.174
10.1732
10.7945
10.7953
10.7963
10.7972
10.7981
10.7989
10.7995
10.8001
10.8006
10.8011
10.8014
10.8017
10.802
10.8022
10.8024
10.8026
10.8027
10.8028
10.8029
10.803
10.8031
10.8031
10.8032
10.8032
10.8032
10.8033
10.8033
10.8033
10.8033
10.8033
10.8033
10.8033
10.8033
10.8033
10.8033
10.8032
10.8032
10.8032
10.8031
10.8031
10.803
10.8029
10.8028
10.8027
10.8026
10.8024
10.8022
10.802
10.8017
10.8014
10.8011
10.8006
10.8001
10.7995
10.7989
10.7981
10.7972
10.7963
10.7953
10.7945
11.4214
11.4223
11.4233
11.4243
11.4252
11.426
11.4267
11.4273
11.4278
11.4283
11.4287
11.429
11.4293
11.4295
11.4297
11.4299
11.43
11.4301
11.4302
11.4303
11.4304
11.4304
11.4305
11.4305
11.4305
11.4306
11.4306
11.4306
11.4306
11.4306
11.4306
11.4306
11.4306
11.4306
11.4306
11.4305
11.4305
11.4305
11.4304
11.4304
11.4303
11.4302
11.4301
11.43
11.4299
11.4297
11.4295
11.4293
11.429
11.4287
11.4283
11.4278
11.4273
11.4267
11.426
11.4252
11.4243
11.4233
11.4223
11.4214
12.053
12.0539
12.0549
12.056
12.0569
12.0578
12.0585
12.0591
12.0597
12.0602
12.0606
12.0609
12.0612
12.0614
12.0616
12.0618
12.062
12.0621
12.0622
12.0623
12.0623
12.0624
12.0625
12.0625
12.0625
12.0625
12.0626
12.0626
12.0626
12.0626
12.0626
12.0626
12.0626
12.0626
12.0625
12.0625
12.0625
12.0625
12.0624
12.0623
12.0623
12.0622
12.0621
12.062
12.0618
12.0616
12.0614
12.0612
12.0609
12.0606
12.0602
12.0597
12.0591
12.0585
12.0578
12.0569
12.056
12.0549
12.0539
12.053
12.6882
12.6891
12.6902
12.6913
12.6923
12.6931
12.6939
12.6946
12.6952
12.6956
12.6961
12.6964
12.6967
12.697
12.6972
12.6974
12.6975
12.6977
12.6978
12.6978
12.6979
12.698
12.698
12.6981
12.6981
12.6981
12.6982
12.6982
12.6982
12.6982
12.6982
12.6982
12.6982
12.6982
12.6981
12.6981
12.6981
12.698
12.698
12.6979
12.6978
12.6978
12.6977
12.6975
12.6974
12.6972
12.697
12.6967
12.6964
12.6961
12.6956
12.6952
12.6946
12.6939
12.6931
12.6923
12.6913
12.6902
12.6891
12.6882
13.3258
13.3268
13.3279
13.329
13.3301
13.331
13.3317
13.3324
13.333
13.3335
13.334
13.3343
13.3347
13.3349
13.3351
13.3353
13.3355
13.3356
13.3357
13.3358
13.3359
13.336
13.336
13.3361
13.3361
13.3361
13.3361
13.3361
13.3362
13.3362
13.3362
13.3362
13.3361
13.3361
13.3361
13.3361
13.3361
13.336
13.336
13.3359
13.3358
13.3357
13.3356
13.3355
13.3353
13.3351
13.3349
13.3347
13.3343
13.334
13.3335
13.333
13.3324
13.3317
13.331
13.3301
13.329
13.3279
13.3268
13.3258
13.9645
13.9655
13.9667
13.9678
13.9689
13.9698
13.9706
13.9713
13.9719
13.9725
13.9729
13.9733
13.9736
13.9739
13.9741
13.9743
13.9745
13.9746
13.9747
13.9748
13.9749
13.9749
13.975
13.975
13.9751
13.9751
13.9751
13.9751
13.9752
13.9752
13.9752
13.9752
13.9751
13.9751
13.9751
13.9751
13.975
13.975
13.9749
13.9749
13.9748
13.9747
13.9746
13.9745
13.9743
13.9741
13.9739
13.9736
13.9733
13.9729
13.9725
13.9719
13.9713
13.9706
13.9698
13.9689
13.9678
13.9667
13.9655
13.9645
14.6026
14.6037
14.6049
14.606
14.6071
14.6081
14.6089
14.6096
14.6103
14.6108
14.6112
14.6116
14.612
14.6122
14.6125
14.6127
14.6128
14.613
14.6131
14.6132
14.6133
14.6133
14.6134
14.6134
14.6135
14.6135
14.6135
14.6135
14.6136
14.6136
14.6136
14.6136
14.6135
14.6135
14.6135
14.6135
14.6134
14.6134
14.6133
14.6133
14.6132
14.6131
14.613
14.6128
14.6127
14.6125
14.6122
14.612
14.6116
14.6112
14.6108
14.6103
14.6096
14.6089
14.6081
14.6071
14.606
14.6049
14.6037
14.6026
15.2384
15.2394
15.2407
15.2419
15.243
15.2439
15.2448
15.2455
15.2462
15.2467
15.2472
15.2476
15.2479
15.2482
15.2484
15.2486
15.2488
15.2489
15.2491
15.2492
15.2493
15.2493
15.2494
15.2494
15.2495
15.2495
15.2495
15.2495
15.2495
15.2495
15.2495
15.2495
15.2495
15.2495
15.2495
15.2495
15.2494
15.2494
15.2493
15.2493
15.2492
15.2491
15.2489
15.2488
15.2486
15.2484
15.2482
15.2479
15.2476
15.2472
15.2467
15.2462
15.2455
15.2448
15.2439
15.243
15.2419
15.2407
15.2394
15.2384
15.8696
15.8707
15.8719
15.8732
15.8743
15.8753
15.8761
15.8769
15.8775
15.8781
15.8786
15.879
15.8793
15.8796
15.8798
15.88
15.8802
15.8804
15.8805
15.8806
15.8807
15.8807
15.8808
15.8808
15.8809
15.8809
15.8809
15.8809
15.881
15.881
15.881
15.881
15.8809
15.8809
15.8809
15.8809
15.8808
15.8808
15.8807
15.8807
15.8806
15.8805
15.8804
15.8802
15.88
15.8798
15.8796
15.8793
15.879
15.8786
15.8781
15.8775
15.8769
15.8761
15.8753
15.8743
15.8732
15.8719
15.8707
15.8696
16.4939
16.495
16.4962
16.4975
16.4986
16.4996
16.5005
16.5012
16.5019
16.5024
16.5029
16.5033
16.5037
16.504
16.5042
16.5044
16.5046
16.5047
16.5049
16.505
16.505
16.5051
16.5052
16.5052
16.5053
16.5053
16.5053
16.5053
16.5053
16.5053
16.5053
16.5053
16.5053
16.5053
16.5053
16.5053
16.5052
16.5052
16.5051
16.505
16.505
16.5049
16.5047
16.5046
16.5044
16.5042
16.504
16.5037
16.5033
16.5029
16.5024
16.5019
16.5012
16.5005
16.4996
16.4986
16.4975
16.4962
16.495
16.4939
17.1083
17.1094
17.1107
17.1119
17.113
17.114
17.1149
17.1157
17.1163
17.1169
17.1174
17.1178
17.1181
17.1184
17.1187
17.1189
17.119
17.1192
17.1193
17.1194
17.1195
17.1196
17.1196
17.1197
17.1197
17.1197
17.1198
17.1198
17.1198
17.1198
17.1198
17.1198
17.1198
17.1198
17.1197
17.1197
17.1197
17.1196
17.1196
17.1195
17.1194
17.1193
17.1192
17.119
17.1189
17.1187
17.1184
17.1181
17.1178
17.1174
17.1169
17.1163
17.1157
17.1149
17.114
17.113
17.1119
17.1107
17.1094
17.1083
17.7096
17.7107
17.7119
17.7131
17.7142
17.7152
17.7161
17.7169
17.7175
17.7181
17.7185
17.7189
17.7193
17.7196
17.7198
17.72
17.7202
17.7204
17.7205
17.7206
17.7207
17.7207
17.7208
17.7208
17.7209
17.7209
17.7209
17.721
17.721
17.721
17.721
17.721
17.721
17.7209
17.7209
17.7209
17.7208
17.7208
17.7207
17.7207
17.7206
17.7205
17.7204
17.7202
17.72
17.7198
17.7196
17.7193
17.7189
17.7185
17.7181
17.7175
17.7169
17.7161
17.7152
17.7142
17.7131
17.7119
17.7107
17.7096
18.2936
18.2947
18.2959
18.2971
18.2982
18.2992
18.3001
18.3008
18.3014
18.302
18.3025
18.3029
18.3032
18.3035
18.3037
18.3039
18.3041
18.3042
18.3044
18.3045
18.3045
18.3046
18.3047
18.3047
18.3048
18.3048
18.3048
18.3048
18.3048
18.3048
18.3048
18.3048
18.3048
18.3048
18.3048
18.3048
18.3047
18.3047
18.3046
18.3045
18.3045
18.3044
18.3042
18.3041
18.3039
18.3037
18.3035
18.3032
18.3029
18.3025
18.302
18.3014
18.3008
18.3001
18.2992
18.2982
18.2971
18.2959
18.2947
18.2936
18.8558
18.8568
18.858
18.8592
18.8603
18.8612
18.862
18.8627
18.8634
18.8639
18.8644
18.8647
18.8651
18.8654
18.8656
18.8658
18.866
18.8661
18.8662
18.8663
18.8664
18.8665
18.8665
18.8666
18.8666
18.8666
18.8667
18.8667
18.8667
18.8667
18.8667
18.8667
18.8667
18.8667
18.8666
18.8666
18.8666
18.8665
18.8665
18.8664
18.8663
18.8662
18.8661
18.866
18.8658
18.8656
18.8654
18.8651
18.8647
18.8644
18.8639
18.8634
18.8627
18.862
18.8612
18.8603
18.8592
18.858
18.8568
18.8558
19.3904
19.3914
19.3926
19.3937
19.3947
19.3956
19.3964
19.3971
19.3977
19.3982
19.3986
19.399
19.3993
19.3996
19.3998
19.4
19.4001
19.4003
19.4004
19.4005
19.4006
19.4006
19.4007
19.4007
19.4008
19.4008
19.4008
19.4008
19.4008
19.4008
19.4008
19.4008
19.4008
19.4008
19.4008
19.4008
19.4007
19.4007
19.4006
19.4006
19.4005
19.4004
19.4003
19.4001
19.4
19.3998
19.3996
19.3993
19.399
19.3986
19.3982
19.3977
19.3971
19.3964
19.3956
19.3947
19.3937
19.3926
19.3914
19.3904
19.8909
19.8918
19.8929
19.894
19.8949
19.8957
19.8965
19.8971
19.8977
19.8982
19.8986
19.8989
19.8992
19.8995
19.8997
19.8999
19.9
19.9001
19.9002
19.9003
19.9004
19.9005
19.9005
19.9006
19.9006
19.9006
19.9006
19.9007
19.9007
19.9007
19.9007
19.9007
19.9007
19.9006
19.9006
19.9006
19.9006
19.9005
19.9005
19.9004
19.9003
19.9002
19.9001
19.9
19.8999
19.8997
19.8995
19.8992
19.8989
19.8986
19.8982
19.8977
19.8971
19.8965
19.8957
19.8949
19.894
19.8929
19.8918
19.8909
20.3497
20.3506
20.3515
20.3525
20.3533
20.3541
20.3548
20.3554
20.3559
20.3563
20.3567
20.357
20.3573
20.3575
20.3577
20.3578
20.358
20.3581
20.3582
20.3583
20.3583
20.3584
20.3584
20.3585
20.3585
20.3585
20.3586
20.3586
20.3586
20.3586
20.3586
20.3586
20.3586
20.3586
20.3585
20.3585
20.3585
20.3584
20.3584
20.3583
20.3583
20.3582
20.3581
20.358
20.3578
20.3577
20.3575
20.3573
20.357
20.3567
20.3563
20.3559
20.3554
20.3548
20.3541
20.3533
20.3525
20.3515
20.3506
20.3497
20.7591
20.7598
20.7607
20.7615
20.7622
20.7629
20.7635
20.764
20.7645
20.7648
20.7652
20.7654
20.7657
20.7659
20.7661
20.7662
20.7663
20.7664
20.7665
20.7666
20.7666
20.7667
20.7667
20.7668
20.7668
20.7668
20.7668
20.7669
20.7669
20.7669
20.7669
20.7669
20.7669
20.7668
20.7668
20.7668
20.7668
20.7667
20.7667
20.7666
20.7666
20.7665
20.7664
20.7663
20.7662
20.7661
20.7659
20.7657
20.7654
20.7652
20.7648
20.7645
20.764
20.7635
20.7629
20.7622
20.7615
20.7607
20.7598
20.7591
21.1126
21.1132
21.1139
21.1146
21.1152
21.1158
21.1162
21.1167
21.117
21.1174
21.1176
21.1179
21.1181
21.1182
21.1184
21.1185
21.1186
21.1187
21.1188
21.1188
21.1189
21.1189
21.119
21.119
21.119
21.1191
21.1191
21.1191
21.1191
21.1191
21.1191
21.1191
21.1191
21.1191
21.1191
21.119
21.119
21.119
21.1189
21.1189
21.1188
21.1188
21.1187
21.1186
21.1185
21.1184
21.1182
21.1181
21.1179
21.1176
21.1174
21.117
21.1167
21.1162
21.1158
21.1152
21.1146
21.1139
21.1132
21.1126
21.4072
21.4077
21.4083
21.4088
21.4093
21.4097
21.4101
21.4105
21.4108
21.411
21.4112
21.4114
21.4116
21.4117
21.4119
21.412
21.412
21.4121
21.4122
21.4122
21.4123
21.4123
21.4123
21.4124
21.4124
21.4124
21.4124
21.4124
21.4124
21.4124
21.4124
21.4124
21.4124
21.4124
21.4124
21.4124
21.4124
21.4123
21.4123
21.4123
21.4122
21.4122
21.4121
21.412
21.412
21.4119
21.4117
21.4116
21.4114
21.4112
21.411
21.4108
21.4105
21.4101
21.4097
21.4093
21.4088
21.4083
21.4077
21.4072
21.6453
21.6457
21.6461
21.6465
21.6469
21.6472
21.6475
21.6478
21.648
21.6482
21.6484
21.6485
21.6487
21.6488
21.6489
21.6489
21.649
21.6491
21.6491
21.6492
21.6492
21.6492
21.6492
21.6493
21.6493
21.6493
21.6493
21.6493
21.6493
21.6493
21.6493
21.6493
21.6493
21.6493
21.6493
21.6493
21.6493
21.6492
21.6492
21.6492
21.6492
21.6491
21.6491
21.649
21.6489
21.6489
21.6488
21.6487
21.6485
21.6484
21.6482
21.648
21.6478
21.6475
21.6472
21.6469
21.6465
21.6461
21.6457
21.6453
21.8343
21.8345
21.8348
21.8351
21.8354
21.8356
21.8359
21.8361
21.8362
21.8364
21.8365
21.8366
21.8367
21.8368
21.8369
21.8369
21.837
21.837
21.8371
21.8371
21.8371
21.8372
21.8372
21.8372
21.8372
21.8372
21.8372
21.8372
21.8372
21.8372
21.8372
21.8372
21.8372
21.8372
21.8372
21.8372
21.8372
21.8372
21.8372
21.8371
21.8371
21.8371
21.837
21.837
21.8369
21.8369
21.8368
21.8367
21.8366
21.8365
21.8364
21.8362
21.8361
21.8359
21.8356
21.8354
21.8351
21.8348
21.8345
21.8343
21.9843
21.9844
21.9846
21.9848
21.985
21.9852
21.9854
21.9855
21.9856
21.9857
21.9858
21.9859
21.986
21.9861
21.9861
21.9862
21.9862
21.9862
21.9863
21.9863
21.9863
21.9864
21.9864
21.9864
21.9864
21.9864
21.9864
21.9864
21.9864
21.9864
21.9864
21.9864
21.9864
21.9864
21.9864
21.9864
21.9864
21.9864
21.9864
21.9863
21.9863
21.9863
21.9862
21.9862
21.9862
21.9861
21.9861
21.986
21.9859
21.9858
21.9857
21.9856
21.9855
21.9854
21.9852
21.985
21.9848
21.9846
21.9844
21.9843
22.1055
22.1056
22.1057
22.1059
22.106
22.1061
22.1063
22.1064
22.1065
22.1065
22.1066
22.1067
22.1067
22.1068
22.1068
22.1069
22.1069
22.1069
22.107
22.107
22.107
22.107
22.107
22.107
22.1071
22.1071
22.1071
22.1071
22.1071
22.1071
22.1071
22.1071
22.1071
22.1071
22.1071
22.1071
22.107
22.107
22.107
22.107
22.107
22.107
22.1069
22.1069
22.1069
22.1068
22.1068
22.1067
22.1067
22.1066
22.1065
22.1065
22.1064
22.1063
22.1061
22.106
22.1059
22.1057
22.1056
22.1055
22.2063
22.2064
22.2065
22.2066
22.2067
22.2068
22.2069
22.2069
22.207
22.2071
22.2071
22.2072
22.2072
22.2073
22.2073
22.2073
22.2074
22.2074
22.2074
22.2074
22.2075
22.2075
22.2075
22.2075
22.2075
22.2075
22.2075
22.2075
22.2075
22.2075
22.2075
22.2075
22.2075
22.2075
22.2075
22.2075
22.2075
22.2075
22.2075
22.2075
22.2074
22.2074
22.2074
22.2074
22.2073
22.2073
22.2073
22.2072
22.2072
22.2071
22.2071
22.207
22.2069
22.2069
22.2068
22.2067
22.2066
22.2065
22.2064
22.2063
22.2928
22.2928
22.2929
22.293
22.2931
22.2931
22.2932
22.2932
22.2933
22.2933
22.2934
22.2934
22.2935
22.2935
22.2935
22.2936
22.2936
22.2936
22.2936
22.2937
22.2937
22.2937
22.2937
22.2937
22.2937
22.2937
22.2937
22.2937
22.2937
22.2937
22.2937
22.2937
22.2937
22.2937
22.2937
22.2937
22.2937
22.2937
22.2937
22.2937
22.2937
22.2936
22.2936
22.2936
22.2936
22.2935
22.2935
22.2935
22.2934
22.2934
22.2933
22.2933
22.2932
22.2932
22.2931
22.2931
22.293
22.2929
22.2928
22.2928
22.369
22.369
22.369
22.3691
22.3691
22.3692
22.3692
22.3693
22.3693
22.3694
22.3694
22.3694
22.3695
22.3695
22.3695
22.3695
22.3696
22.3696
22.3696
22.3696
22.3696
22.3696
22.3696
22.3697
22.3697
22.3697
22.3697
22.3697
22.3697
22.3697
22.3697
22.3697
22.3697
22.3697
22.3697
22.3697
22.3697
22.3696
22.3696
22.3696
22.3696
22.3696
22.3696
22.3696
22.3695
22.3695
22.3695
22.3695
22.3694
22.3694
22.3694
22.3693
22.3693
22.3692
22.3692
22.3691
22.3691
22.369
22.369
22.369
22.4374
22.4374
22.4374
22.4375
22.4375
22.4376
22.4376
22.4376
22.4377
22.4377
22.4377
22.4378
22.4378
22.4378
22.4378
22.4379
22.4379
22.4379
22.4379
22.4379
22.4379
22.438
22.438
22.438
22.438
22.438
22.438
22.438
22.438
22.438
22.438
22.438
22.438
22.438
22.438
22.438
22.438
22.438
22.438
22.4379
22.4379
22.4379
22.4379
22.4379
22.4379
22.4378
22.4378
22.4378
22.4378
22.4377
22.4377
22.4377
22.4376
22.4376
22.4376
22.4375
22.4375
22.4374
22.4374
22.4374
22.4999
22.4999
22.4999
22.5
22.5
22.5
22.5001
22.5001
22.5001
22.5001
22.5002
22.5002
22.5002
22.5002
22.5003
22.5003
22.5003
22.5003
22.5003
22.5003
22.5004
22.5004
22.5004
22.5004
22.5004
22.5004
22.5004
22.5004
22.5004
22.5004
22.5004
22.5004
22.5004
22.5004
22.5004
22.5004
22.5004
22.5004
22.5004
22.5004
22.5003
22.5003
22.5003
22.5003
22.5003
22.5003
22.5002
22.5002
22.5002
22.5002
22.5001
22.5001
22.5001
22.5001
22.5
22.5
22.5
22.4999
22.4999
22.4999
22.5577
22.5577
22.5577
22.5577
22.5578
22.5578
22.5578
22.5578
22.5578
22.5579
22.5579
22.5579
22.5579
22.5579
22.558
22.558
22.558
22.558
22.558
22.558
22.5581
22.5581
22.5581
22.5581
22.5581
22.5581
22.5581
22.5581
22.5581
22.5581
22.5581
22.5581
22.5581
22.5581
22.5581
22.5581
22.5581
22.5581
22.5581
22.5581
22.558
22.558
22.558
22.558
22.558
22.558
22.5579
22.5579
22.5579
22.5579
22.5579
22.5578
22.5578
22.5578
22.5578
22.5578
22.5577
22.5577
22.5577
22.5577
22.6117
22.6116
22.6116
22.6116
22.6117
22.6117
22.6117
22.6117
22.6117
22.6117
22.6118
22.6118
22.6118
22.6118
22.6118
22.6119
22.6119
22.6119
22.6119
22.6119
22.6119
22.6119
22.6119
22.612
22.612
22.612
22.612
22.612
22.612
22.612
22.612
22.612
22.612
22.612
22.612
22.612
22.612
22.6119
22.6119
22.6119
22.6119
22.6119
22.6119
22.6119
22.6119
22.6118
22.6118
22.6118
22.6118
22.6118
22.6117
22.6117
22.6117
22.6117
22.6117
22.6117
22.6116
22.6116
22.6116
22.6117
22.6624
22.6624
22.6624
22.6624
22.6624
22.6624
22.6624
22.6624
22.6624
22.6624
22.6625
22.6625
22.6625
22.6625
22.6625
22.6625
22.6626
22.6626
22.6626
22.6626
22.6626
22.6626
22.6626
22.6626
22.6626
22.6626
22.6627
22.6627
22.6627
22.6627
22.6627
22.6627
22.6627
22.6627
22.6626
22.6626
22.6626
22.6626
22.6626
22.6626
22.6626
22.6626
22.6626
22.6626
22.6625
22.6625
22.6625
22.6625
22.6625
22.6625
22.6624
22.6624
22.6624
22.6624
22.6624
22.6624
22.6624
22.6624
22.6624
22.6624
22.7104
22.7104
22.7104
22.7104
22.7104
22.7104
22.7104
22.7104
22.7104
22.7104
22.7105
22.7105
22.7105
22.7105
22.7105
22.7105
22.7105
22.7106
22.7106
22.7106
22.7106
22.7106
22.7106
22.7106
22.7106
22.7106
22.7107
22.7107
22.7107
22.7107
22.7107
22.7107
22.7107
22.7107
22.7106
22.7106
22.7106
22.7106
22.7106
22.7106
22.7106
22.7106
22.7106
22.7105
22.7105
22.7105
22.7105
22.7105
22.7105
22.7105
22.7104
22.7104
22.7104
22.7104
22.7104
22.7104
22.7104
22.7104
22.7104
22.7104
22.7562
22.7561
22.7561
22.7561
22.7561
22.7561
22.7561
22.7561
22.7561
22.7562
22.7562
22.7562
22.7562
22.7562
22.7562
22.7562
22.7563
22.7563
22.7563
22.7563
22.7563
22.7563
22.7563
22.7563
22.7563
22.7564
22.7564
22.7564
22.7564
22.7564
22.7564
22.7564
22.7564
22.7564
22.7564
22.7563
22.7563
22.7563
22.7563
22.7563
22.7563
22.7563
22.7563
22.7563
22.7562
22.7562
22.7562
22.7562
22.7562
22.7562
22.7562
22.7561
22.7561
22.7561
22.7561
22.7561
22.7561
22.7561
22.7561
22.7562
22.7999
22.7999
22.7999
22.7999
22.7999
22.7999
22.7999
22.7999
22.7999
22.7999
22.7999
22.7999
22.7999
22.8
22.8
22.8
22.8
22.8
22.8
22.8
22.8001
22.8001
22.8001
22.8001
22.8001
22.8001
22.8001
22.8001
22.8001
22.8001
22.8001
22.8001
22.8001
22.8001
22.8001
22.8001
22.8001
22.8001
22.8001
22.8001
22.8
22.8
22.8
22.8
22.8
22.8
22.8
22.7999
22.7999
22.7999
22.7999
22.7999
22.7999
22.7999
22.7999
22.7999
22.7999
22.7999
22.7999
22.7999
22.842
22.842
22.842
22.8419
22.8419
22.8419
22.8419
22.8419
22.8419
22.8419
22.842
22.842
22.842
22.842
22.842
22.842
22.842
22.8421
22.8421
22.8421
22.8421
22.8421
22.8421
22.8421
22.8421
22.8421
22.8421
22.8421
22.8421
22.8421
22.8421
22.8421
22.8421
22.8421
22.8421
22.8421
22.8421
22.8421
22.8421
22.8421
22.8421
22.8421
22.8421
22.842
22.842
22.842
22.842
22.842
22.842
22.842
22.8419
22.8419
22.8419
22.8419
22.8419
22.8419
22.8419
22.842
22.842
22.842
22.8826
22.8825
22.8825
22.8825
22.8825
22.8825
22.8825
22.8825
22.8825
22.8825
22.8825
22.8825
22.8825
22.8826
22.8826
22.8826
22.8826
22.8826
22.8826
22.8826
22.8826
22.8827
22.8827
22.8827
22.8827
22.8827
22.8827
22.8827
22.8827
22.8827
22.8827
22.8827
22.8827
22.8827
22.8827
22.8827
22.8827
22.8827
22.8827
22.8826
22.8826
22.8826
22.8826
22.8826
22.8826
22.8826
22.8826
22.8825
22.8825
22.8825
22.8825
22.8825
22.8825
22.8825
22.8825
22.8825
22.8825
22.8825
22.8825
22.8826
22.9218
22.9218
22.9218
22.9218
22.9218
22.9218
22.9218
22.9218
22.9218
22.9218
22.9218
22.9218
22.9218
22.9218
22.9218
22.9218
22.9218
22.9219
22.9219
22.9219
22.9219
22.9219
22.9219
22.9219
22.9219
22.9219
22.922
22.922
22.922
22.922
22.922
22.922
22.922
22.922
22.9219
22.9219
22.9219
22.9219
22.9219
22.9219
22.9219
22.9219
22.9219
22.9218
22.9218
22.9218
22.9218
22.9218
22.9218
22.9218
22.9218
22.9218
22.9218
22.9218
22.9218
22.9218
22.9218
22.9218
22.9218
22.9218
22.9599
22.9599
22.9599
22.9599
22.9599
22.9599
22.9599
22.9599
22.9599
22.9599
22.9599
22.9599
22.9599
22.9599
22.9599
22.9599
22.96
22.96
22.96
22.96
22.96
22.96
22.96
22.96
22.9601
22.9601
22.9601
22.9601
22.9601
22.9601
22.9601
22.9601
22.9601
22.9601
22.9601
22.9601
22.96
22.96
22.96
22.96
22.96
22.96
22.96
22.96
22.9599
22.9599
22.9599
22.9599
22.9599
22.9599
22.9599
22.9599
22.9599
22.9599
22.9599
22.9599
22.9599
22.9599
22.9599
22.9599
22.9971
22.997
22.997
22.997
22.997
22.997
22.997
22.997
22.997
22.997
22.997
22.997
22.997
22.997
22.997
22.997
22.9971
22.9971
22.9971
22.9971
22.9971
22.9971
22.9971
22.9971
22.9972
22.9972
22.9972
22.9972
22.9972
22.9972
22.9972
22.9972
22.9972
22.9972
22.9972
22.9972
22.9971
22.9971
22.9971
22.9971
22.9971
22.9971
22.9971
22.9971
22.997
22.997
22.997
22.997
22.997
22.997
22.997
22.997
22.997
22.997
22.997
22.997
22.997
22.997
22.997
22.9971
23.0333
23.0332
23.0332
23.0332
23.0332
23.0332
23.0332
23.0332
23.0332
23.0332
23.0332
23.0332
23.0332
23.0332
23.0332
23.0333
23.0333
23.0333
23.0333
23.0333
23.0333
23.0333
23.0333
23.0334
23.0334
23.0334
23.0334
23.0334
23.0334
23.0334
23.0334
23.0334
23.0334
23.0334
23.0334
23.0334
23.0334
23.0333
23.0333
23.0333
23.0333
23.0333
23.0333
23.0333
23.0333
23.0332
23.0332
23.0332
23.0332
23.0332
23.0332
23.0332
23.0332
23.0332
23.0332
23.0332
23.0332
23.0332
23.0332
23.0333
23.0687
23.0687
23.0686
23.0686
23.0686
23.0686
23.0686
23.0686
23.0686
23.0686
23.0686
23.0686
23.0686
23.0686
23.0687
23.0687
23.0687
23.0687
23.0687
23.0687
23.0687
23.0688
23.0688
23.0688
23.0688
23.0688
23.0688
23.0688
23.0688
23.0688
23.0688
23.0688
23.0688
23.0688
23.0688
23.0688
23.0688
23.0688
23.0688
23.0687
23.0687
23.0687
23.0687
23.0687
23.0687
23.0687
23.0686
23.0686
23.0686
23.0686
23.0686
23.0686
23.0686
23.0686
23.0686
23.0686
23.0686
23.0686
23.0687
23.0687
23.1034
23.1034
23.1034
23.1033
23.1033
23.1033
23.1033
23.1033
23.1033
23.1033
23.1033
23.1033
23.1033
23.1034
23.1034
23.1034
23.1034
23.1034
23.1034
23.1034
23.1035
23.1035
23.1035
23.1035
23.1035
23.1035
23.1035
23.1035
23.1035
23.1035
23.1035