/*--------------------------------*- C++ -*----------------------------------*\
| =========                 |                                                 |
| \\      /  F ield         | foam-extend: Open Source CFD                    |
|  \\    /   O peration     | Version:     4.0                                |
|   \\  /    A nd           | Web:         http://www.foam-extend.org         |
|    \\/     M anipulation  |                                                 |
\*---------------------------------------------------------------------------*/
FoamFile
{
    version     2.0;
    format      ascii;
    class       volVectorField;
    location    "2";
    object      bodyForce;
}
// * * * * * * * * * * * * * * * * * * * * * * * * * * * * * * * * * * * * * //

dimensions      [0 -1 0 0 0 0 0];

internalField   nonuniform List<vector> 
6960
(
(0.000212124 -1.04994e+08 -0)
(0.000310746 -1.04994e+08 -0)
(0.000102009 -1.04994e+08 -0)
(7.55754e-06 -1.04994e+08 -0)
(5.00776e-06 -1.04994e+08 -0)
(1.59883e-06 -1.04994e+08 -0)
(1.02192e-06 -1.04994e+08 -0)
(4.26968e-07 -1.04994e+08 -0)
(1.45129e-07 -1.04994e+08 -0)
(-7.497e-08 -1.04994e+08 -0)
(-2.33329e-07 -1.04994e+08 -0)
(-4.2777e-07 -1.04994e+08 -0)
(-4.42604e-07 -1.04994e+08 -0)
(-4.1013e-07 -1.04994e+08 -0)
(-4.50622e-07 -1.04994e+08 -0)
(-4.79087e-07 -1.04994e+08 -0)
(-4.97929e-07 -1.04994e+08 -0)
(-4.89911e-07 -1.04994e+08 -0)
(-4.851e-07 -1.04994e+08 -0)
(-4.37793e-07 -1.04994e+08 -0)
(-4.70668e-07 -1.04994e+08 -0)
(-5.01938e-07 -1.04994e+08 -0)
(-4.30577e-07 -1.04994e+08 -0)
(-3.74449e-07 -1.04994e+08 -0)
(-2.66605e-07 -1.04994e+08 -0)
(-2.02459e-07 -1.04994e+08 -0)
(-1.63571e-07 -1.04994e+08 -0)
(-1.47134e-07 -1.04994e+08 -0)
(-1.33904e-07 -1.04994e+08 -0)
(-5.45237e-08 -1.04994e+08 -0)
(2.88655e-08 -1.04994e+08 -0)
(6.97582e-08 -1.04994e+08 -0)
(1.323e-07 -1.04994e+08 -0)
(1.65976e-07 -1.04994e+08 -0)
(2.19297e-07 -1.04994e+08 -0)
(2.81839e-07 -1.04994e+08 -0)
(3.21529e-07 -1.04994e+08 -0)
(3.78057e-07 -1.04994e+08 -0)
(4.25766e-07 -1.04994e+08 -0)
(4.36991e-07 -1.04994e+08 -0)
(4.53829e-07 -1.04994e+08 -0)
(4.97929e-07 -1.04994e+08 -0)
(4.75478e-07 -1.04994e+08 -0)
(4.49419e-07 -1.04994e+08 -0)
(4.36189e-07 -1.04994e+08 -0)
(4.56235e-07 -1.04994e+08 -0)
(4.63451e-07 -1.04994e+08 -0)
(4.11734e-07 -1.04994e+08 -0)
(3.22331e-07 -1.04994e+08 -0)
(1.73193e-07 -1.04994e+08 -0)
(2.72618e-08 -1.04994e+08 -0)
(-1.55553e-07 -1.04994e+08 -0)
(-4.64253e-07 -1.04994e+08 -0)
(-1.15662e-06 -1.04994e+08 -0)
(-1.68342e-06 -1.04994e+08 -0)
(-5.07391e-06 -1.04994e+08 -0)
(-7.57759e-06 -1.04994e+08 -0)
(-0.000101949 -1.04994e+08 -0)
(-0.000310695 -1.04994e+08 -0)
(-0.000212097 -1.04994e+08 -0)
(0.000196869 -2.12194e+07 -0)
(0.000289754 -2.12194e+07 -0)
(9.70335e-05 -2.12194e+07 -0)
(8.2702e-06 -2.12194e+07 -0)
(5.03499e-06 -2.12194e+07 -0)
(1.68655e-06 -2.12194e+07 -0)
(1.05722e-06 -2.12194e+07 -0)
(4.63315e-07 -2.12194e+07 -0)
(1.76782e-07 -2.12194e+07 -0)
(-4.37614e-08 -2.12194e+07 -0)
(-2.01788e-07 -2.12194e+07 -0)
(-3.90032e-07 -2.12194e+07 -0)
(-4.08439e-07 -2.12194e+07 -0)
(-3.79612e-07 -2.12194e+07 -0)
(-4.19553e-07 -2.12194e+07 -0)
(-4.48728e-07 -2.12194e+07 -0)
(-4.6644e-07 -2.12194e+07 -0)
(-4.59842e-07 -2.12194e+07 -0)
(-4.56021e-07 -2.12194e+07 -0)
(-4.11565e-07 -2.12194e+07 -0)
(-4.43518e-07 -2.12194e+07 -0)
(-4.75471e-07 -2.12194e+07 -0)
(-4.06703e-07 -2.12194e+07 -0)
(-3.53217e-07 -2.12194e+07 -0)
(-2.51454e-07 -2.12194e+07 -0)
(-1.91022e-07 -2.12194e+07 -0)
(-1.53859e-07 -2.12194e+07 -0)
(-1.39272e-07 -2.12194e+07 -0)
(-1.26422e-07 -2.12194e+07 -0)
(-5.07076e-08 -2.12194e+07 -0)
(2.6743e-08 -2.12194e+07 -0)
(6.49474e-08 -2.12194e+07 -0)
(1.24685e-07 -2.12194e+07 -0)
(1.56985e-07 -2.12194e+07 -0)
(2.0804e-07 -2.12194e+07 -0)
(2.66389e-07 -2.12194e+07 -0)
(3.02162e-07 -2.12194e+07 -0)
(3.56342e-07 -2.12194e+07 -0)
(4.01493e-07 -2.12194e+07 -0)
(4.11565e-07 -2.12194e+07 -0)
(4.265e-07 -2.12194e+07 -0)
(4.69566e-07 -2.12194e+07 -0)
(4.47686e-07 -2.12194e+07 -0)
(4.19553e-07 -2.12194e+07 -0)
(4.07745e-07 -2.12194e+07 -0)
(4.25805e-07 -2.12194e+07 -0)
(4.29278e-07 -2.12194e+07 -0)
(3.78223e-07 -2.12194e+07 -0)
(2.907e-07 -2.12194e+07 -0)
(1.44135e-07 -2.12194e+07 -0)
(-3.12581e-09 -2.12194e+07 -0)
(-1.85465e-07 -2.12194e+07 -0)
(-4.99088e-07 -2.12194e+07 -0)
(-1.18364e-06 -2.12194e+07 -0)
(-1.76643e-06 -2.12194e+07 -0)
(-5.0982e-06 -2.12194e+07 -0)
(-8.29035e-06 -2.12194e+07 -0)
(-9.69772e-05 -2.12194e+07 -0)
(-0.000289705 -2.12194e+07 -0)
(-0.000196843 -2.12194e+07 -0)
(0.000109815 -4.18534e+06 -0)
(0.00016235 -4.18534e+06 -0)
(5.5428e-05 -4.18534e+06 -0)
(5.3435e-06 -4.18534e+06 -0)
(3.04324e-06 -4.18534e+06 -0)
(1.06382e-06 -4.18534e+06 -0)
(6.54898e-07 -4.18534e+06 -0)
(2.99399e-07 -4.18534e+06 -0)
(1.24402e-07 -4.18534e+06 -0)
(-8.18437e-09 -4.18534e+06 -0)
(-1.03718e-07 -4.18534e+06 -0)
(-2.13091e-07 -4.18534e+06 -0)
(-2.26037e-07 -4.18534e+06 -0)
(-2.10413e-07 -4.18534e+06 -0)
(-2.34668e-07 -4.18534e+06 -0)
(-2.52227e-07 -4.18534e+06 -0)
(-2.62644e-07 -4.18534e+06 -0)
(-2.59221e-07 -4.18534e+06 -0)
(-2.57584e-07 -4.18534e+06 -0)
(-2.32138e-07 -4.18534e+06 -0)
(-2.51186e-07 -4.18534e+06 -0)
(-2.70084e-07 -4.18534e+06 -0)
(-2.30799e-07 -4.18534e+06 -0)
(-2.00294e-07 -4.18534e+06 -0)
(-1.42706e-07 -4.18534e+06 -0)
(-1.08182e-07 -4.18534e+06 -0)
(-8.74983e-08 -4.18534e+06 -0)
(-7.94628e-08 -4.18534e+06 -0)
(-7.20224e-08 -4.18534e+06 -0)
(-2.84221e-08 -4.18534e+06 -0)
(1.53271e-08 -4.18534e+06 -0)
(3.66064e-08 -4.18534e+06 -0)
(7.11296e-08 -4.18534e+06 -0)
(8.80935e-08 -4.18534e+06 -0)
(1.17706e-07 -4.18534e+06 -0)
(1.51783e-07 -4.18534e+06 -0)
(1.71723e-07 -4.18534e+06 -0)
(2.01931e-07 -4.18534e+06 -0)
(2.27228e-07 -4.18534e+06 -0)
(2.3318e-07 -4.18534e+06 -0)
(2.41067e-07 -4.18534e+06 -0)
(2.6562e-07 -4.18534e+06 -0)
(2.52823e-07 -4.18534e+06 -0)
(2.3571e-07 -4.18534e+06 -0)
(2.28121e-07 -4.18534e+06 -0)
(2.38091e-07 -4.18534e+06 -0)
(2.39281e-07 -4.18534e+06 -0)
(2.09073e-07 -4.18534e+06 -0)
(1.56693e-07 -4.18534e+06 -0)
(6.91951e-08 -4.18534e+06 -0)
(-1.81544e-08 -4.18534e+06 -0)
(-1.28867e-07 -4.18534e+06 -0)
(-3.19934e-07 -4.18534e+06 -0)
(-7.27367e-07 -4.18534e+06 -0)
(-1.10876e-06 -4.18534e+06 -0)
(-3.07955e-06 -4.18534e+06 -0)
(-5.3557e-06 -4.18534e+06 -0)
(-5.53958e-05 -4.18534e+06 -0)
(-0.000162322 -4.18534e+06 -0)
(-0.0001098 -4.18534e+06 -0)
(5.17473e-05 -797955 -0)
(7.69001e-05 -797955 -0)
(2.68384e-05 -797955 -0)
(2.92821e-06 -797955 -0)
(1.56937e-06 -797955 -0)
(5.71594e-07 -797955 -0)
(3.46765e-07 -797955 -0)
(1.64891e-07 -797955 -0)
(7.33613e-08 -797955 -0)
(5.30699e-09 -797955 -0)
(-4.35797e-08 -797955 -0)
(-9.73989e-08 -797955 -0)
(-1.05141e-07 -797955 -0)
(-9.85227e-08 -797955 -0)
(-1.1101e-07 -797955 -0)
(-1.19876e-07 -797955 -0)
(-1.2512e-07 -797955 -0)
(-1.23684e-07 -797955 -0)
(-1.22997e-07 -797955 -0)
(-1.10822e-07 -797955 -0)
(-1.20562e-07 -797955 -0)
(-1.29865e-07 -797955 -0)
(-1.11135e-07 -797955 -0)
(-9.63375e-08 -797955 -0)
(-6.83665e-08 -797955 -0)
(-5.18836e-08 -797955 -0)
(-4.22686e-08 -797955 -0)
(-3.85225e-08 -797955 -0)
(-3.4714e-08 -797955 -0)
(-1.32363e-08 -797955 -0)
(7.42979e-09 -797955 -0)
(1.74194e-08 -797955 -0)
(3.39647e-08 -797955 -0)
(4.21437e-08 -797955 -0)
(5.65663e-08 -797955 -0)
(7.31116e-08 -797955 -0)
(8.24769e-08 -797955 -0)
(9.69618e-08 -797955 -0)
(1.08949e-07 -797955 -0)
(1.11884e-07 -797955 -0)
(1.15193e-07 -797955 -0)
(1.26993e-07 -797955 -0)
(1.21249e-07 -797955 -0)
(1.12134e-07 -797955 -0)
(1.07826e-07 -797955 -0)
(1.12446e-07 -797955 -0)
(1.12446e-07 -797955 -0)
(9.71491e-08 -797955 -0)
(7.04269e-08 -797955 -0)
(2.64101e-08 -797955 -0)
(-1.82311e-08 -797955 -0)
(-7.55466e-08 -797955 -0)
(-1.74631e-07 -797955 -0)
(-3.81541e-07 -797955 -0)
(-5.93634e-07 -797955 -0)
(-1.58679e-06 -797955 -0)
(-2.93389e-06 -797955 -0)
(-2.68232e-05 -797955 -0)
(-7.68872e-05 -797955 -0)
(-5.17402e-05 -797955 -0)
(2.2327e-05 -148256 -0)
(3.33793e-05 -148256 -0)
(1.19424e-05 -148256 -0)
(1.47219e-06 -148256 -0)
(7.47633e-07 -148256 -0)
(2.83318e-07 -148256 -0)
(1.69484e-07 -148256 -0)
(8.35138e-08 -148256 -0)
(3.93774e-08 -148256 -0)
(7.13859e-09 -148256 -0)
(-1.58891e-08 -148256 -0)
(-4.05032e-08 -148256 -0)
(-4.46738e-08 -148256 -0)
(-4.21663e-08 -148256 -0)
(-4.80512e-08 -148256 -0)
(-5.22473e-08 -148256 -0)
(-5.46524e-08 -148256 -0)
(-5.40895e-08 -148256 -0)
(-5.38081e-08 -148256 -0)
(-4.86908e-08 -148256 -0)
(-5.30917e-08 -148256 -0)
(-5.73646e-08 -148256 -0)
(-4.91002e-08 -148256 -0)
(-4.24989e-08 -148256 -0)
(-3.02687e-08 -148256 -0)
(-2.27974e-08 -148256 -0)
(-1.87036e-08 -148256 -0)
(-1.70917e-08 -148256 -0)
(-1.54542e-08 -148256 -0)
(-5.629e-09 -148256 -0)
(3.40298e-09 -148256 -0)
(7.57356e-09 -148256 -0)
(1.48913e-08 -148256 -0)
(1.84989e-08 -148256 -0)
(2.49211e-08 -148256 -0)
(3.23411e-08 -148256 -0)
(3.6435e-08 -148256 -0)
(4.27036e-08 -148256 -0)
(4.8e-08 -148256 -0)
(4.93305e-08 -148256 -0)
(5.05842e-08 -148256 -0)
(5.56759e-08 -148256 -0)
(5.3194e-08 -148256 -0)
(4.89723e-08 -148256 -0)
(4.66695e-08 -148256 -0)
(4.86908e-08 -148256 -0)
(4.83582e-08 -148256 -0)
(4.10917e-08 -148256 -0)
(2.86311e-08 -148256 -0)
(8.03411e-09 -148256 -0)
(-1.29467e-08 -148256 -0)
(-4.04008e-08 -148256 -0)
(-8.78123e-08 -148256 -0)
(-1.84708e-07 -148256 -0)
(-2.93092e-07 -148256 -0)
(-7.5536e-07 -148256 -0)
(-1.47485e-06 -148256 -0)
(-1.19359e-05 -148256 -0)
(-3.33736e-05 -148256 -0)
(-2.23237e-05 -148256 -0)
(9.10535e-06 -27543.5 -0)
(1.37049e-05 -27543.5 -0)
(5.03809e-06 -27543.5 -0)
(6.9803e-07 -27543.5 -0)
(3.38712e-07 -27543.5 -0)
(1.33087e-07 -27543.5 -0)
(7.86877e-08 -27543.5 -0)
(3.99731e-08 -27543.5 -0)
(1.97563e-08 -27543.5 -0)
(5.30996e-09 -27543.5 -0)
(-5.07464e-09 -27543.5 -0)
(-1.58276e-08 -27543.5 -0)
(-1.78738e-08 -27543.5 -0)
(-1.6953e-08 -27543.5 -0)
(-1.96438e-08 -27543.5 -0)
(-2.15468e-08 -27543.5 -0)
(-2.26006e-08 -27543.5 -0)
(-2.23653e-08 -27543.5 -0)
(-2.23448e-08 -27543.5 -0)
(-2.02577e-08 -27543.5 -0)
(-2.21095e-08 -27543.5 -0)
(-2.3992e-08 -27543.5 -0)
(-2.0585e-08 -27543.5 -0)
(-1.77817e-08 -27543.5 -0)
(-1.26661e-08 -27543.5 -0)
(-9.54565e-09 -27543.5 -0)
(-7.83705e-09 -27543.5 -0)
(-7.19249e-09 -27543.5 -0)
(-6.44562e-09 -27543.5 -0)
(-2.28154e-09 -27543.5 -0)
(1.43236e-09 -27543.5 -0)
(3.16142e-09 -27543.5 -0)
(6.20007e-09 -27543.5 -0)
(7.67335e-09 -27543.5 -0)
(1.04153e-08 -27543.5 -0)
(1.34949e-08 -27543.5 -0)
(1.52546e-08 -27543.5 -0)
(1.78636e-08 -27543.5 -0)
(2.00633e-08 -27543.5 -0)
(2.05748e-08 -27543.5 -0)
(2.10761e-08 -27543.5 -0)
(2.3061e-08 -27543.5 -0)
(2.20993e-08 -27543.5 -0)
(2.02679e-08 -27543.5 -0)
(1.90913e-08 -27543.5 -0)
(1.98893e-08 -27543.5 -0)
(1.95517e-08 -27543.5 -0)
(1.63391e-08 -27543.5 -0)
(1.08041e-08 -27543.5 -0)
(1.76999e-09 -27543.5 -0)
(-7.73474e-09 -27543.5 -0)
(-2.02781e-08 -27543.5 -0)
(-4.18044e-08 -27543.5 -0)
(-8.50412e-08 -27543.5 -0)
(-1.3724e-07 -27543.5 -0)
(-3.41904e-07 -27543.5 -0)
(-6.99124e-07 -27543.5 -0)
(-5.0355e-06 -27543.5 -0)
(-1.37025e-05 -27543.5 -0)
(-9.1039e-06 -27543.5 -0)
(3.56224e-06 -5393.47 -0)
(5.4012e-06 -5393.47 -0)
(2.04326e-06 -5393.47 -0)
(3.15709e-07 -5393.47 -0)
(1.4767e-07 -5393.47 -0)
(5.99399e-08 -5393.47 -0)
(3.51142e-08 -5393.47 -0)
(1.83231e-08 -5393.47 -0)
(9.41486e-09 -5393.47 -0)
(3.15956e-09 -5393.47 -0)
(-1.3484e-09 -5393.47 -0)
(-5.86833e-09 -5393.47 -0)
(-6.83375e-09 -5393.47 -0)
(-6.5146e-09 -5393.47 -0)
(-7.67949e-09 -5393.47 -0)
(-8.53321e-09 -5393.47 -0)
(-8.97204e-09 -5393.47 -0)
(-8.88826e-09 -5393.47 -0)
(-8.9122e-09 -5393.47 -0)
(-8.10635e-09 -5393.47 -0)
(-8.84438e-09 -5393.47 -0)
(-9.63826e-09 -5393.47 -0)
(-8.29784e-09 -5393.47 -0)
(-7.15689e-09 -5393.47 -0)
(-5.09839e-09 -5393.47 -0)
(-3.82578e-09 -5393.47 -0)
(-3.15956e-09 -5393.47 -0)
(-2.90823e-09 -5393.47 -0)
(-2.56515e-09 -5393.47 -0)
(-8.97603e-10 -5393.47 -0)
(5.82445e-10 -5393.47 -0)
(1.24468e-09 -5393.47 -0)
(2.46542e-09 -5393.47 -0)
(3.07978e-09 -5393.47 -0)
(4.16887e-09 -5393.47 -0)
(5.41354e-09 -5393.47 -0)
(6.12764e-09 -5393.47 -0)
(7.1888e-09 -5393.47 -0)
(8.07444e-09 -5393.47 -0)
(8.24598e-09 -5393.47 -0)
(8.40954e-09 -5393.47 -0)
(9.19146e-09 -5393.47 -0)
(8.82444e-09 -5393.47 -0)
(8.03454e-09 -5393.47 -0)
(7.49598e-09 -5393.47 -0)
(7.77524e-09 -5393.47 -0)
(7.59173e-09 -5393.47 -0)
(6.20742e-09 -5393.47 -0)
(3.81382e-09 -5393.47 -0)
(-7.97869e-12 -5393.47 -0)
(-4.11701e-09 -5393.47 -0)
(-9.65023e-09 -5393.47 -0)
(-1.90771e-08 -5393.47 -0)
(-3.76195e-08 -5393.47 -0)
(-6.16314e-08 -5393.47 -0)
(-1.48974e-07 -5393.47 -0)
(-3.16172e-07 -5393.47 -0)
(-2.04225e-06 -5393.47 -0)
(-5.40026e-06 -5393.47 -0)
(-3.56165e-06 -5393.47 -0)
(1.34673e-06 -1200.15 -0)
(2.05795e-06 -1200.15 -0)
(8.01844e-07 -1200.15 -0)
(1.36975e-07 -1200.15 -0)
(6.22758e-08 -1200.15 -0)
(2.60178e-08 -1200.15 -0)
(1.51255e-08 -1200.15 -0)
(8.06914e-09 -1200.15 -0)
(4.27261e-09 -1200.15 -0)
(1.66477e-09 -1200.15 -0)
(-2.27428e-10 -1200.15 -0)
(-2.07717e-09 -1200.15 -0)
(-2.50474e-09 -1200.15 -0)
(-2.4077e-09 -1200.15 -0)
(-2.90501e-09 -1200.15 -0)
(-3.2689e-09 -1200.15 -0)
(-3.43568e-09 -1200.15 -0)
(-3.41445e-09 -1200.15 -0)
(-3.44174e-09 -1200.15 -0)
(-3.12941e-09 -1200.15 -0)
(-3.42961e-09 -1200.15 -0)
(-3.75104e-09 -1200.15 -0)
(-3.23251e-09 -1200.15 -0)
(-2.78372e-09 -1200.15 -0)
(-1.99833e-09 -1200.15 -0)
(-1.48889e-09 -1200.15 -0)
(-1.23114e-09 -1200.15 -0)
(-1.12804e-09 -1200.15 -0)
(-9.94618e-10 -1200.15 -0)
(-3.4569e-10 -1200.15 -0)
(2.27428e-10 -1200.15 -0)
(4.82147e-10 -1200.15 -0)
(9.461e-10 -1200.15 -0)
(1.19475e-09 -1200.15 -0)
(1.61625e-09 -1200.15 -0)
(2.10447e-09 -1200.15 -0)
(2.38951e-09 -1200.15 -0)
(2.80191e-09 -1200.15 -0)
(3.13851e-09 -1200.15 -0)
(3.20219e-09 -1200.15 -0)
(3.24767e-09 -1200.15 -0)
(3.53575e-09 -1200.15 -0)
(3.39929e-09 -1200.15 -0)
(3.08999e-09 -1200.15 -0)
(2.85043e-09 -1200.15 -0)
(2.92927e-09 -1200.15 -0)
(2.8383e-09 -1200.15 -0)
(2.26215e-09 -1200.15 -0)
(1.25843e-09 -1200.15 -0)
(-3.12334e-10 -1200.15 -0)
(-2.03472e-09 -1200.15 -0)
(-4.38784e-09 -1200.15 -0)
(-8.37238e-09 -1200.15 -0)
(-1.60807e-08 -1200.15 -0)
(-2.66788e-08 -1200.15 -0)
(-6.27822e-08 -1200.15 -0)
(-1.3716e-07 -1200.15 -0)
(-8.0148e-07 -1200.15 -0)
(-2.05758e-06 -1200.15 -0)
(-1.34649e-06 -1200.15 -0)
(4.93916e-07 -318.745 -0)
(7.60914e-07 -318.745 -0)
(3.05487e-07 -318.745 -0)
(5.72027e-08 -318.745 -0)
(2.54669e-08 -318.745 -0)
(1.09104e-08 -318.745 -0)
(6.30606e-09 -318.745 -0)
(3.42711e-09 -318.745 -0)
(1.86014e-09 -318.745 -0)
(8.04264e-10 -318.745 -0)
(3.36982e-11 -318.745 -0)
(-6.97553e-10 -318.745 -0)
(-8.86263e-10 -318.745 -0)
(-8.60427e-10 -318.745 -0)
(-1.06149e-09 -318.745 -0)
(-1.21089e-09 -318.745 -0)
(-1.28053e-09 -318.745 -0)
(-1.27492e-09 -318.745 -0)
(-1.28952e-09 -318.745 -0)
(-1.17157e-09 -318.745 -0)
(-1.29176e-09 -318.745 -0)
(-1.41869e-09 -318.745 -0)
(-1.22212e-09 -318.745 -0)
(-1.05138e-09 -318.745 -0)
(-7.59333e-10 -318.745 -0)
(-5.60513e-10 -318.745 -0)
(-4.67282e-10 -318.745 -0)
(-4.31337e-10 -318.745 -0)
(-3.69557e-10 -318.745 -0)
(-1.25807e-10 -318.745 -0)
(8.76153e-11 -318.745 -0)
(1.786e-10 -318.745 -0)
(3.52708e-10 -318.745 -0)
(4.50433e-10 -318.745 -0)
(6.11061e-10 -318.745 -0)
(7.90784e-10 -318.745 -0)
(9.03112e-10 -318.745 -0)
(1.057e-09 -318.745 -0)
(1.19067e-09 -318.745 -0)
(1.20752e-09 -318.745 -0)
(1.21651e-09 -318.745 -0)
(1.32097e-09 -318.745 -0)
(1.2693e-09 -318.745 -0)
(1.15248e-09 -318.745 -0)
(1.04914e-09 -318.745 -0)
(1.06823e-09 -318.745 -0)
(1.02555e-09 -318.745 -0)
(7.90784e-10 -318.745 -0)
(3.86406e-10 -318.745 -0)
(-2.38134e-10 -318.745 -0)
(-9.4018e-10 -318.745 -0)
(-1.91518e-09 -318.745 -0)
(-3.54954e-09 -318.745 -0)
(-6.65989e-09 -318.745 -0)
(-1.11631e-08 -318.745 -0)
(-2.56578e-08 -318.745 -0)
(-5.72723e-08 -318.745 -0)
(-3.05355e-07 -318.745 -0)
(-7.60776e-07 -318.745 -0)
(-4.93819e-07 -318.745 -0)
(1.76251e-07 -98.4373 -0)
(2.73819e-07 -98.4373 -0)
(1.13282e-07 -98.4373 -0)
(2.30692e-08 -98.4373 -0)
(1.01192e-08 -98.4373 -0)
(4.43238e-09 -98.4373 -0)
(2.55071e-09 -98.4373 -0)
(1.41034e-09 -98.4373 -0)
(7.81492e-10 -98.4373 -0)
(3.62531e-10 -98.4373 -0)
(5.88657e-11 -98.4373 -0)
(-2.23284e-10 -98.4373 -0)
(-3.01636e-10 -98.4373 -0)
(-2.98388e-10 -98.4373 -0)
(-3.77146e-10 -98.4373 -0)
(-4.35606e-10 -98.4373 -0)
(-4.624e-10 -98.4373 -0)
(-4.64024e-10 -98.4373 -0)
(-4.69301e-10 -98.4373 -0)
(-4.2708e-10 -98.4373 -0)
(-4.73767e-10 -98.4373 -0)
(-5.21671e-10 -98.4373 -0)
(-4.51439e-10 -98.4373 -0)
(-3.87701e-10 -98.4373 -0)
(-2.81337e-10 -98.4373 -0)
(-2.04609e-10 -98.4373 -0)
(-1.71319e-10 -98.4373 -0)
(-1.59546e-10 -98.4373 -0)
(-1.35188e-10 -98.4373 -0)
(-4.58746e-11 -98.4373 -0)
(3.36955e-11 -98.4373 -0)
(6.45492e-11 -98.4373 -0)
(1.27475e-10 -98.4373 -0)
(1.66042e-10 -98.4373 -0)
(2.24095e-10 -98.4373 -0)
(2.89457e-10 -98.4373 -0)
(3.32489e-10 -98.4373 -0)
(3.90949e-10 -98.4373 -0)
(4.38042e-10 -98.4373 -0)
(4.42913e-10 -98.4373 -0)
(4.43319e-10 -98.4373 -0)
(4.79857e-10 -98.4373 -0)
(4.61994e-10 -98.4373 -0)
(4.16931e-10 -98.4373 -0)
(3.76334e-10 -98.4373 -0)
(3.79176e-10 -98.4373 -0)
(3.58066e-10 -98.4373 -0)
(2.6591e-10 -98.4373 -0)
(1.0677e-10 -98.4373 -0)
(-1.35188e-10 -98.4373 -0)
(-4.13277e-10 -98.4373 -0)
(-8.03821e-10 -98.4373 -0)
(-1.455e-09 -98.4373 -0)
(-2.6794e-09 -98.4373 -0)
(-4.52738e-09 -98.4373 -0)
(-1.0189e-08 -98.4373 -0)
(-2.30964e-08 -98.4373 -0)
(-1.13236e-07 -98.4373 -0)
(-2.73765e-07 -98.4373 -0)
(-1.76214e-07 -98.4373 -0)
(6.15115e-08 -33.092 -0)
(9.63886e-08 -33.092 -0)
(4.10895e-08 -33.092 -0)
(9.03725e-09 -33.092 -0)
(3.92619e-09 -33.092 -0)
(1.754e-09 -33.092 -0)
(1.00617e-09 -33.092 -0)
(5.63965e-10 -33.092 -0)
(3.18282e-10 -33.092 -0)
(1.56266e-10 -33.092 -0)
(3.89586e-11 -33.092 -0)
(-6.74228e-11 -33.092 -0)
(-9.90498e-11 -33.092 -0)
(-1.00631e-10 -33.092 -0)
(-1.30389e-10 -33.092 -0)
(-1.53247e-10 -33.092 -0)
(-1.64316e-10 -33.092 -0)
(-1.64747e-10 -33.092 -0)
(-1.66904e-10 -33.092 -0)
(-1.52816e-10 -33.092 -0)
(-1.70354e-10 -33.092 -0)
(-1.87749e-10 -33.092 -0)
(-1.62591e-10 -33.092 -0)
(-1.39733e-10 -33.092 -0)
(-1.02212e-10 -33.092 -0)
(-7.34607e-11 -33.092 -0)
(-6.15287e-11 -33.092 -0)
(-5.7791e-11 -33.092 -0)
(-4.81592e-11 -33.092 -0)
(-1.6101e-11 -33.092 -0)
(1.26508e-11 -33.092 -0)
(2.27139e-11 -33.092 -0)
(4.5284e-11 -33.092 -0)
(5.99474e-11 -33.092 -0)
(8.00736e-11 -33.092 -0)
(1.0365e-10 -33.092 -0)
(1.20039e-10 -33.092 -0)
(1.41171e-10 -33.092 -0)
(1.58278e-10 -33.092 -0)
(1.59141e-10 -33.092 -0)
(1.5756e-10 -33.092 -0)
(1.70642e-10 -33.092 -0)
(1.64604e-10 -33.092 -0)
(1.4764e-10 -33.092 -0)
(1.31683e-10 -33.092 -0)
(1.30677e-10 -33.092 -0)
(1.21476e-10 -33.092 -0)
(8.66865e-11 -33.092 -0)
(2.48703e-11 -33.092 -0)
(-6.69916e-11 -33.092 -0)
(-1.74523e-10 -33.092 -0)
(-3.26907e-10 -33.092 -0)
(-5.80641e-10 -33.092 -0)
(-1.05145e-09 -33.092 -0)
(-1.78836e-09 -33.092 -0)
(-3.95135e-09 -33.092 -0)
(-9.04717e-09 -33.092 -0)
(-4.10737e-08 -33.092 -0)
(-9.63694e-08 -33.092 -0)
(-6.14975e-08 -33.092 -0)
(2.12853e-08 -11.6024 -0)
(3.36491e-08 -11.6024 -0)
(1.47777e-08 -11.6024 -0)
(3.48921e-09 -11.6024 -0)
(1.5076e-09 -11.6024 -0)
(6.85488e-10 -11.6024 -0)
(3.92429e-10 -11.6024 -0)
(2.22549e-10 -11.6024 -0)
(1.27727e-10 -11.6024 -0)
(6.5506e-11 -11.6024 -0)
(2.06223e-11 -11.6024 -0)
(-1.89543e-11 -11.6024 -0)
(-3.18937e-11 -11.6024 -0)
(-3.3309e-11 -11.6024 -0)
(-4.45805e-11 -11.6024 -0)
(-5.33753e-11 -11.6024 -0)
(-5.77221e-11 -11.6024 -0)
(-5.80759e-11 -11.6024 -0)
(-5.90363e-11 -11.6024 -0)
(-5.4184e-11 -11.6024 -0)
(-6.06537e-11 -11.6024 -0)
(-6.69213e-11 -11.6024 -0)
(-5.8177e-11 -11.6024 -0)
(-5.00393e-11 -11.6024 -0)
(-3.66449e-11 -11.6024 -0)
(-2.61822e-11 -11.6024 -0)
(-2.20881e-11 -11.6024 -0)
(-2.07739e-11 -11.6024 -0)
(-1.72358e-11 -11.6024 -0)
(-5.55992e-12 -11.6024 -0)
(4.8523e-12 -11.6024 -0)
(7.98607e-12 -11.6024 -0)
(1.58711e-11 -11.6024 -0)
(2.14815e-11 -11.6024 -0)
(2.85578e-11 -11.6024 -0)
(3.67966e-11 -11.6024 -0)
(4.27609e-11 -11.6024 -0)
(5.04942e-11 -11.6024 -0)
(5.68123e-11 -11.6024 -0)
(5.66607e-11 -11.6024 -0)
(5.55992e-11 -11.6024 -0)
(6.00977e-11 -11.6024 -0)
(5.80759e-11 -11.6024 -0)
(5.19095e-11 -11.6024 -0)
(4.55914e-11 -11.6024 -0)
(4.46816e-11 -11.6024 -0)
(4.07391e-11 -11.6024 -0)
(2.71931e-11 -11.6024 -0)
(3.99304e-12 -11.6024 -0)
(-3.07818e-11 -11.6024 -0)
(-7.21779e-11 -11.6024 -0)
(-1.31164e-10 -11.6024 -0)
(-2.28614e-10 -11.6024 -0)
(-4.08048e-10 -11.6024 -0)
(-6.98023e-10 -11.6024 -0)
(-1.5167e-09 -11.6024 -0)
(-3.49284e-09 -11.6024 -0)
(-1.47724e-08 -11.6024 -0)
(-3.3642e-08 -11.6024 -0)
(-2.12803e-08 -11.6024 -0)
(7.58394e-09 -4.27793 -0)
(1.20973e-08 -4.27793 -0)
(5.47208e-09 -4.27793 -0)
(1.37987e-09 -4.27793 -0)
(5.95093e-10 -4.27793 -0)
(2.74857e-10 -4.27793 -0)
(1.5715e-10 -4.27793 -0)
(9.00802e-11 -4.27793 -0)
(5.24689e-11 -4.27793 -0)
(2.781e-11 -4.27793 -0)
(1.0186e-11 -4.27793 -0)
(-4.96476e-12 -4.27793 -0)
(-1.03509e-11 -4.27793 -0)
(-1.13402e-11 -4.27793 -0)
(-1.56088e-11 -4.27793 -0)
(-1.90346e-11 -4.27793 -0)
(-2.08666e-11 -4.27793 -0)
(-2.10315e-11 -4.27793 -0)
(-2.14712e-11 -4.27793 -0)
(-1.9859e-11 -4.27793 -0)
(-2.22773e-11 -4.27793 -0)
(-2.4604e-11 -4.27793 -0)
(-2.13613e-11 -4.27793 -0)
(-1.84301e-11 -4.27793 -0)
(-1.36119e-11 -4.27793 -0)
(-9.59976e-12 -4.27793 -0)
(-8.15247e-12 -4.27793 -0)
(-7.7311e-12 -4.27793 -0)
(-6.32045e-12 -4.27793 -0)
(-1.9969e-12 -4.27793 -0)
(1.86866e-12 -4.27793 -0)
(2.94954e-12 -4.27793 -0)
(5.71589e-12 -4.27793 -0)
(7.93262e-12 -4.27793 -0)
(1.04608e-11 -4.27793 -0)
(1.34653e-11 -4.27793 -0)
(1.57553e-11 -4.27793 -0)
(1.85766e-11 -4.27793 -0)
(2.09583e-11 -4.27793 -0)
(2.07934e-11 -4.27793 -0)
(2.02071e-11 -4.27793 -0)
(2.18743e-11 -4.27793 -0)
(2.10865e-11 -4.27793 -0)
(1.87049e-11 -4.27793 -0)
(1.62866e-11 -4.27793 -0)
(1.56271e-11 -4.27793 -0)
(1.38867e-11 -4.27793 -0)
(8.59215e-12 -4.27793 -0)
(-4.39684e-13 -4.27793 -0)
(-1.40332e-11 -4.27793 -0)
(-3.03931e-11 -4.27793 -0)
(-5.37696e-11 -4.27793 -0)
(-9.23335e-11 -4.27793 -0)
(-1.62811e-10 -4.27793 -0)
(-2.79584e-10 -4.27793 -0)
(-5.98428e-10 -4.27793 -0)
(-1.38117e-09 -4.27793 -0)
(-5.47029e-09 -4.27793 -0)
(-1.20947e-08 -4.27793 -0)
(-7.58203e-09 -4.27793 -0)
(3.03724e-09 -1.78821 -0)
(4.88932e-09 -1.78821 -0)
(2.27736e-09 -1.78821 -0)
(6.10543e-10 -1.78821 -0)
(2.63615e-10 -1.78821 -0)
(1.23506e-10 -1.78821 -0)
(7.05663e-11 -1.78821 -0)
(4.08274e-11 -1.78821 -0)
(2.40974e-11 -1.78821 -0)
(1.31509e-11 -1.78821 -0)
(5.36495e-12 -1.78821 -0)
(-1.17312e-12 -1.78821 -0)
(-3.67626e-12 -1.78821 -0)
(-4.2815e-12 -1.78821 -0)
(-6.1271e-12 -1.78821 -0)
(-7.63646e-12 -1.78821 -0)
(-8.43597e-12 -1.78821 -0)
(-8.55553e-12 -1.78821 -0)
(-8.8021e-12 -1.78821 -0)
(-8.16698e-12 -1.78821 -0)
(-9.19812e-12 -1.78821 -0)
(-1.01844e-11 -1.78821 -0)
(-8.84694e-12 -1.78821 -0)
(-7.62899e-12 -1.78821 -0)
(-5.65636e-12 -1.78821 -0)
(-3.96767e-12 -1.78821 -0)
(-3.39979e-12 -1.78821 -0)
(-3.21299e-12 -1.78821 -0)
(-2.58534e-12 -1.78821 -0)
(-8.21928e-13 -1.78821 -0)
(7.99512e-13 -1.78821 -0)
(1.22542e-12 -1.78821 -0)
(2.33129e-12 -1.78821 -0)
(3.29518e-12 -1.78821 -0)
(4.3338e-12 -1.78821 -0)
(5.51439e-12 -1.78821 -0)
(6.50818e-12 -1.78821 -0)
(7.68876e-12 -1.78821 -0)
(8.71244e-12 -1.78821 -0)
(8.57047e-12 -1.78821 -0)
(8.25664e-12 -1.78821 -0)
(8.92913e-12 -1.78821 -0)
(8.6153e-12 -1.78821 -0)
(7.56921e-12 -1.78821 -0)
(6.50818e-12 -1.78821 -0)
(6.13457e-12 -1.78821 -0)
(5.25287e-12 -1.78821 -0)
(2.93653e-12 -1.78821 -0)
(-1.03862e-12 -1.78821 -0)
(-6.97892e-12 -1.78821 -0)
(-1.42492e-11 -1.78821 -0)
(-2.46578e-11 -1.78821 -0)
(-4.17838e-11 -1.78821 -0)
(-7.28453e-11 -1.78821 -0)
(-1.25508e-10 -1.78821 -0)
(-2.64982e-10 -1.78821 -0)
(-6.11074e-10 -1.78821 -0)
(-2.2767e-09 -1.78821 -0)
(-4.88822e-09 -1.78821 -0)
(-3.03648e-09 -1.78821 -0)
(1.55337e-09 -0.958171 -0)
(2.52401e-09 -0.958171 -0)
(1.2103e-09 -0.958171 -0)
(3.43616e-10 -0.958171 -0)
(1.48906e-10 -0.958171 -0)
(7.0693e-11 -0.958171 -0)
(4.03765e-11 -0.958171 -0)
(2.35721e-11 -0.958171 -0)
(1.40732e-11 -0.958171 -0)
(7.85868e-12 -0.958171 -0)
(3.46764e-12 -0.958171 -0)
(-1.36368e-13 -0.958171 -0)
(-1.60135e-12 -0.958171 -0)
(-2.02604e-12 -0.958171 -0)
(-3.04295e-12 -0.958171 -0)
(-3.89622e-12 -0.958171 -0)
(-4.35987e-12 -0.958171 -0)
(-4.44559e-12 -0.958171 -0)
(-4.59754e-12 -0.958171 -0)
(-4.30143e-12 -0.958171 -0)
(-4.85469e-12 -0.958171 -0)
(-5.37679e-12 -0.958171 -0)
(-4.66378e-12 -0.958171 -0)
(-4.0248e-12 -0.958171 -0)
(-3.01957e-12 -0.958171 -0)
(-2.10396e-12 -0.958171 -0)
(-1.80005e-12 -0.958171 -0)
(-1.70654e-12 -0.958171 -0)
(-1.37537e-12 -0.958171 -0)
(-4.32481e-13 -0.958171 -0)
(4.55858e-13 -0.958171 -0)
(6.54565e-13 -0.958171 -0)
(1.21952e-12 -0.958171 -0)
(1.74161e-12 -0.958171 -0)
(2.27539e-12 -0.958171 -0)
(2.90268e-12 -0.958171 -0)
(3.44036e-12 -0.958171 -0)
(4.06376e-12 -0.958171 -0)
(4.61702e-12 -0.958171 -0)
(4.50793e-12 -0.958171 -0)
(4.30532e-12 -0.958171 -0)
(4.66378e-12 -0.958171 -0)
(4.48455e-12 -0.958171 -0)
(3.90401e-12 -0.958171 -0)
(3.31568e-12 -0.958171 -0)
(3.05074e-12 -0.958171 -0)
(2.50137e-12 -0.958171 -0)
(1.20783e-12 -0.958171 -0)
(-1.01691e-12 -0.958171 -0)
(-4.36377e-12 -0.958171 -0)
(-8.46259e-12 -0.958171 -0)
(-1.43693e-11 -0.958171 -0)
(-2.4067e-11 -0.958171 -0)
(-4.15805e-11 -0.958171 -0)
(-7.17723e-11 -0.958171 -0)
(-1.49615e-10 -0.958171 -0)
(-3.43908e-10 -0.958171 -0)
(-1.20997e-09 -0.958171 -0)
(-2.52342e-09 -0.958171 -0)
(-1.55298e-09 -0.958171 -0)
(1.06273e-09 -0.68814 -0)
(1.74321e-09 -0.68814 -0)
(8.60326e-10 -0.68814 -0)
(2.57784e-10 -0.68814 -0)
(1.12343e-10 -0.68814 -0)
(5.39934e-11 -0.68814 -0)
(3.08627e-11 -0.68814 -0)
(1.81574e-11 -0.68814 -0)
(1.09478e-11 -0.68814 -0)
(6.2411e-12 -0.68814 -0)
(2.91923e-12 -0.68814 -0)
(2.72062e-13 -0.68814 -0)
(-8.70599e-13 -0.68814 -0)
(-1.25693e-12 -0.68814 -0)
(-2.01598e-12 -0.68814 -0)
(-2.64172e-12 -0.68814 -0)
(-3.00901e-12 -0.68814 -0)
(-3.08246e-12 -0.68814 -0)
(-3.21577e-12 -0.68814 -0)
(-3.02533e-12 -0.68814 -0)
(-3.42798e-12 -0.68814 -0)
(-3.80343e-12 -0.68814 -0)
(-3.30011e-12 -0.68814 -0)
(-2.84577e-12 -0.68814 -0)
(-2.14657e-12 -0.68814 -0)
(-1.48818e-12 -0.68814 -0)
(-1.27597e-12 -0.68814 -0)
(-1.21068e-12 -0.68814 -0)
(-9.79424e-13 -0.68814 -0)
(-3.10151e-13 -0.68814 -0)
(3.37357e-13 -0.68814 -0)
(4.67947e-13 -0.68814 -0)
(8.46113e-13 -0.68814 -0)
(1.23788e-12 -0.68814 -0)
(1.60517e-12 -0.68814 -0)
(2.04319e-12 -0.68814 -0)
(2.43224e-12 -0.68814 -0)
(2.88386e-12 -0.68814 -0)
(3.27019e-12 -0.68814 -0)
(3.16952e-12 -0.68814 -0)
(3.00629e-12 -0.68814 -0)
(3.25658e-12 -0.68814 -0)
(3.10967e-12 -0.68814 -0)
(2.68253e-12 -0.68814 -0)
(2.26084e-12 -0.68814 -0)
(2.02142e-12 -0.68814 -0)
(1.56436e-12 -0.68814 -0)
(5.93095e-13 -0.68814 -0)
(-1.06376e-12 -0.68814 -0)
(-3.5885e-12 -0.68814 -0)
(-6.69273e-12 -0.68814 -0)
(-1.11627e-11 -0.68814 -0)
(-1.85002e-11 -0.68814 -0)
(-3.16952e-11 -0.68814 -0)
(-5.47824e-11 -0.68814 -0)
(-1.12846e-10 -0.68814 -0)
(-2.57986e-10 -0.68814 -0)
(-8.60113e-10 -0.68814 -0)
(-1.74279e-09 -0.68814 -0)
(-1.06244e-09 -0.68814 -0)
(8.84503e-10 -0.602079 -0)
(1.46494e-09 -0.602079 -0)
(7.43931e-10 -0.602079 -0)
(2.34556e-10 -0.602079 -0)
(1.02982e-10 -0.602079 -0)
(5.00648e-11 -0.602079 -0)
(2.86534e-11 -0.602079 -0)
(1.69783e-11 -0.602079 -0)
(1.03332e-11 -0.602079 -0)
(5.98334e-12 -0.602079 -0)
(2.94308e-12 -0.602079 -0)
(5.73809e-13 -0.602079 -0)
(-5.02082e-13 -0.602079 -0)
(-9.30125e-13 -0.602079 -0)
(-1.59648e-12 -0.602079 -0)
(-2.18186e-12 -0.602079 -0)
(-2.53124e-12 -0.602079 -0)
(-2.59833e-12 -0.602079 -0)
(-2.7279e-12 -0.602079 -0)
(-2.59602e-12 -0.602079 -0)
(-2.9454e-12 -0.602079 -0)
(-3.25775e-12 -0.602079 -0)
(-2.83434e-12 -0.602079 -0)
(-2.4572e-12 -0.602079 -0)
(-1.86256e-12 -0.602079 -0)
(-1.28876e-12 -0.602079 -0)
(-1.09903e-12 -0.602079 -0)
(-1.04581e-12 -0.602079 -0)
(-8.51458e-13 -0.602079 -0)
(-2.61453e-13 -0.602079 -0)
(3.00787e-13 -0.602079 -0)
(4.09533e-13 -0.602079 -0)
(7.24202e-13 -0.602079 -0)
(1.06664e-12 -0.602079 -0)
(1.37899e-12 -0.602079 -0)
(1.7515e-12 -0.602079 -0)
(2.08468e-12 -0.602079 -0)
(2.47802e-12 -0.602079 -0)
(2.82508e-12 -0.602079 -0)
(2.72096e-12 -0.602079 -0)
(2.55669e-12 -0.602079 -0)
(2.75798e-12 -0.602079 -0)
(2.61684e-12 -0.602079 -0)
(2.23739e-12 -0.602079 -0)
(1.86025e-12 -0.602079 -0)
(1.60805e-12 -0.602079 -0)
(1.17075e-12 -0.602079 -0)
(2.77649e-13 -0.602079 -0)
(-1.23785e-12 -0.602079 -0)
(-3.54466e-12 -0.602079 -0)
(-6.40213e-12 -0.602079 -0)
(-1.0509e-11 -0.602079 -0)
(-1.72721e-11 -0.602079 -0)
(-2.93614e-11 -0.602079 -0)
(-5.07589e-11 -0.602079 -0)
(-1.03408e-10 -0.602079 -0)
(-2.34734e-10 -0.602079 -0)
(-7.43765e-10 -0.602079 -0)
(-1.46458e-09 -0.602079 -0)
(-8.84281e-10 -0.602079 -0)
(8.0207e-10 -0.574617 -0)
(1.34149e-09 -0.574617 -0)
(7.00812e-10 -0.574617 -0)
(2.31883e-10 -0.574617 -0)
(1.0272e-10 -0.574617 -0)
(5.04906e-11 -0.574617 -0)
(2.89358e-11 -0.574617 -0)
(1.72688e-11 -0.574617 -0)
(1.05918e-11 -0.574617 -0)
(6.23487e-12 -0.574617 -0)
(3.19577e-12 -0.574617 -0)
(8.60648e-13 -0.574617 -0)
(-2.29649e-13 -0.574617 -0)
(-7.1041e-13 -0.574617 -0)
(-1.36502e-12 -0.574617 -0)
(-1.94665e-12 -0.574617 -0)
(-2.31366e-12 -0.574617 -0)
(-2.38663e-12 -0.574617 -0)
(-2.52829e-12 -0.574617 -0)
(-2.42741e-12 -0.574617 -0)
(-2.74935e-12 -0.574617 -0)
(-3.04553e-12 -0.574617 -0)
(-2.65706e-12 -0.574617 -0)
(-2.30722e-12 -0.574617 -0)
(-1.76207e-12 -0.574617 -0)
(-1.21263e-12 -0.574617 -0)
(-1.03449e-12 -0.574617 -0)
(-9.8513e-13 -0.574617 -0)
(-7.98406e-13 -0.574617 -0)
(-2.48965e-13 -0.574617 -0)
(2.91891e-13 -0.574617 -0)
(3.90618e-13 -0.574617 -0)
(6.78216e-13 -0.574617 -0)
(1.00445e-12 -0.574617 -0)
(1.2899e-12 -0.574617 -0)
(1.63545e-12 -0.574617 -0)
(1.95953e-12 -0.574617 -0)
(2.31581e-12 -0.574617 -0)
(2.64848e-12 -0.574617 -0)
(2.54331e-12 -0.574617 -0)
(2.37376e-12 -0.574617 -0)
(2.54331e-12 -0.574617 -0)
(2.39737e-12 -0.574617 -0)
(2.03894e-12 -0.574617 -0)
(1.6612e-12 -0.574617 -0)
(1.37146e-12 -0.574617 -0)
(9.1645e-13 -0.574617 -0)
(1.93163e-14 -0.574617 -0)
(-1.48306e-12 -0.574617 -0)
(-3.77526e-12 -0.574617 -0)
(-6.6448e-12 -0.574617 -0)
(-1.07635e-11 -0.574617 -0)
(-1.75263e-11 -0.574617 -0)
(-2.96033e-11 -0.574617 -0)
(-5.11581e-11 -0.574617 -0)
(-1.0311e-10 -0.574617 -0)
(-2.32057e-10 -0.574617 -0)