/*--------------------------------*- C++ -*----------------------------------*\
| =========                 |                                                 |
| \\      /  F ield         | foam-extend: Open Source CFD                    |
|  \\    /   O peration     | Version:     4.0                                |
|   \\  /    A nd           | Web:         http://www.foam-extend.org         |
|    \\/     M anipulation  |                                                 |
\*---------------------------------------------------------------------------*/
FoamFile
{
    version     2.0;
    format      ascii;
    class       surfaceScalarField;
    location    "2";
    object      phi;
}
// * * * * * * * * * * * * * * * * * * * * * * * * * * * * * * * * * * * * * //

dimensions      [0 3 -1 0 0 0 0];

internalField   nonuniform List<scalar> 
13744
(
-8.31633e-10
8.31552e-10
5.89091e-10
-1.42072e-09
1.27146e-11
5.76376e-10
4.53179e-12
8.18275e-12
1.51276e-12
3.01918e-12
8.52998e-13
6.59583e-13
4.87822e-13
3.65451e-13
3.19408e-13
1.68518e-13
2.16167e-13
1.03188e-13
1.53615e-13
6.24917e-14
1.12629e-13
4.10852e-14
8.41923e-14
2.8616e-14
6.46209e-14
1.93942e-14
4.98342e-14
1.46827e-14
3.92193e-14
1.07345e-14
3.09189e-14
8.31279e-15
2.46022e-14
6.42542e-15
1.96213e-14
5.1556e-15
1.57716e-14
3.86496e-15
1.25543e-14
3.3723e-15
1.00525e-14
2.33147e-15
8.02824e-15
2.14412e-15
6.30962e-15
1.66533e-15
4.97863e-15
1.1241e-15
3.88922e-15
1.26982e-15
2.85258e-15
1.05471e-15
2.04984e-15
7.21645e-16
1.33936e-15
8.18789e-16
6.05973e-16
9.29812e-16
-1.42087e-16
7.35523e-16
-3.17947e-16
1.8735e-16
-1.6362e-15
1.13104e-15
-2.05498e-15
4.09395e-16
-2.57109e-15
6.10623e-16
-4.16374e-15
1.72085e-15
-4.98614e-15
7.77156e-16
-6.03783e-15
9.78384e-16
-8.33133e-15
2.17881e-15
-1.00681e-14
1.81105e-15
-1.22612e-14
1.9984e-15
-1.60494e-14
3.85803e-15
-1.96158e-14
3.35842e-15
-2.43252e-14
4.80865e-15
-3.12247e-14
6.73767e-15
-3.92292e-14
7.79932e-15
-4.95393e-14
1.0339e-14
-6.49018e-14
1.54321e-14
-8.42174e-14
1.92207e-14
-1.12375e-13
2.83246e-14
-1.5393e-13
4.14807e-14
-2.16181e-13
6.22349e-14
-3.19122e-13
1.03147e-13
-4.88139e-13
1.69018e-13
-8.53039e-13
3.64951e-13
-1.51249e-12
6.59355e-13
-4.5321e-12
3.01952e-12
-1.27146e-11
8.18257e-12
-5.89091e-10
5.76376e-10
8.31632e-10
-1.42072e-09
8.31632e-10
4.72205e-09
-3.89049e-09
1.1109e-09
2.19043e-09
4.01664e-11
1.64711e-09
1.41277e-11
3.42215e-11
4.68952e-12
1.24572e-11
2.68986e-12
2.65967e-12
1.5103e-12
1.54491e-12
1.00568e-12
6.73128e-13
6.69927e-13
4.38767e-13
4.82842e-13
2.49863e-13
3.4979e-13
1.74347e-13
2.64544e-13
1.1343e-13
2.00764e-13
8.34055e-14
1.56648e-13
5.91263e-14
1.22208e-13
4.5193e-14
9.69027e-14
3.31679e-14
7.70199e-14
2.63609e-14
6.16416e-14
2.02616e-14
4.91909e-14
1.64521e-14
3.96559e-14
1.23027e-14
3.15951e-14
1.04639e-14
2.51458e-14
8.20177e-15
2.00633e-14
6.87644e-15
1.57201e-14
6.05765e-15
1.20653e-14
4.30211e-15
9.19411e-15
4.11476e-15
6.47182e-15
3.29597e-15
4.06474e-15
3.19883e-15
2.18314e-15
2.5327e-15
-1.28119e-17
2.90046e-15
-2.75435e-15
2.80331e-15
-3.34859e-15
2.38698e-15
-6.49059e-15
3.76088e-15
-9.93071e-15
3.96211e-15
-1.13134e-14
2.35922e-15
-1.57272e-14
4.98213e-15
-2.08195e-14
6.28664e-15
-2.44364e-14
5.78704e-15
-3.16155e-14
9.39526e-15
-4.03779e-14
1.09496e-14
-4.84394e-14
1.20806e-14
-6.16315e-14
1.67574e-14
-7.77641e-14
2.05391e-14
-9.62037e-14
2.57017e-14
-1.22229e-13
3.38896e-14
-1.57375e-13
4.53179e-14
-2.00029e-13
5.7794e-14
-2.64582e-13
8.36761e-14
-3.50583e-13
1.13777e-13
-4.82166e-13
1.73188e-13
-6.69954e-13
2.49981e-13
-1.00641e-12
4.39822e-13
-1.50961e-12
6.72441e-13
-2.68992e-12
1.54492e-12
-4.6903e-12
2.65993e-12
-1.4127e-11
1.24563e-11
-4.01664e-11
3.42219e-11
-1.1109e-09
1.64711e-09
-4.72205e-09
2.19042e-09
-3.89041e-09
4.25739e-09
-8.14789e-09
1.50468e-09
4.94314e-09
6.78033e-11
3.08398e-09
2.43459e-11
7.76785e-11
8.14859e-12
2.86548e-11
4.69686e-12
6.11091e-12
2.62178e-12
3.6205e-12
1.75588e-12
1.53857e-12
1.16314e-12
1.03139e-12
8.42935e-13
5.69163e-13
6.07599e-13
4.09176e-13
4.6171e-13
2.59705e-13
3.49117e-13
1.95757e-13
2.73264e-13
1.34731e-13
2.12646e-13
1.05761e-13
1.69193e-13
7.78353e-14
1.34068e-13
6.19036e-14
1.07611e-13
4.65305e-14
8.58418e-14
3.80928e-14
6.91872e-14
2.92093e-14
5.51737e-14
2.40259e-14
4.4065e-14
1.9559e-14
3.4999e-14
1.6263e-14
2.75076e-14
1.32238e-14
2.11746e-14
1.19661e-14
1.60104e-14
9.56006e-15
1.13279e-14
7.91728e-15
7.20832e-15
7.71778e-15
3.68529e-15
5.905e-15
-1.03651e-16
7.14359e-15
-4.08905e-15
7.24421e-15
-6.67122e-15
4.70977e-15
-1.13594e-14
7.65013e-15
-1.65758e-14
8.39953e-15
-2.05901e-14
7.02736e-15
-2.75124e-14
1.1019e-14
-3.55818e-14
1.40322e-14
-4.35238e-14
1.37078e-14
-5.51904e-14
2.04715e-14
-6.97282e-14
2.55681e-14
-8.52558e-14
2.72334e-14
-1.07596e-13
3.92655e-14
-1.34636e-13
4.73545e-14
-1.68673e-13
5.94923e-14
-2.12675e-13
7.74519e-14
-2.73825e-13
1.06462e-13
-3.48559e-13
1.32566e-13
-4.61751e-13
1.969e-13
-6.08235e-13
2.60549e-13
-8.42452e-13
4.06994e-13
-1.16318e-12
5.71088e-13
-1.75644e-12
1.0325e-12
-2.62127e-12
1.53697e-12
-4.69692e-12
3.62087e-12
-8.1492e-12
6.11139e-12
-2.43454e-11
2.86518e-11
-6.78033e-11
7.76794e-11
-1.50468e-09
3.08399e-09
-4.25739e-09
4.94314e-09
-8.14781e-09
2.32375e-09
-1.04716e-08
1.32465e-09
5.94224e-09
9.43533e-11
4.31428e-09
3.49021e-11
1.37129e-10
1.1915e-11
5.16412e-11
6.8697e-12
1.11571e-11
3.83236e-12
6.65718e-12
2.57064e-12
2.79978e-12
1.70023e-12
1.90184e-12
1.23444e-12
1.03568e-12
8.88342e-13
7.55536e-13
6.762e-13
4.72331e-13
5.10723e-13
3.60763e-13
4.00177e-13
2.44854e-13
3.11182e-13
1.94361e-13
2.47943e-13
1.40717e-13
1.96233e-13
1.12824e-13
1.57711e-13
8.55132e-14
1.25832e-13
6.98564e-14
1.01379e-13
5.36541e-14
8.09148e-14
4.48808e-14
6.47429e-14
3.51156e-14
5.1299e-14
2.87162e-14
4.03891e-14
2.43035e-14
3.11479e-14
2.01809e-14
2.34437e-14
1.64725e-14
1.66415e-14
1.49919e-14
1.06583e-14
1.34632e-14
5.27037e-15
1.16782e-14
-1.53145e-16
1.28339e-14
-5.40877e-15
1.21079e-14
-1.04971e-14
9.17799e-15
-1.6683e-14
1.46276e-14
-2.36564e-14
1.53428e-14
-3.09156e-14
1.41189e-14
-4.0388e-14
2.1972e-14
-5.15231e-14
2.59823e-14
-6.45481e-14
2.62837e-14
-8.0922e-14
3.70537e-14
-1.01558e-13
4.67937e-14
-1.25594e-13
5.15412e-14
-1.57691e-13
7.0569e-14
-1.96443e-13
8.68285e-14
-2.47782e-13
1.10117e-13
-3.11217e-13
1.40697e-13
-4.00393e-13
1.95582e-13
-5.10525e-13
2.43027e-13
-6.7624e-13
3.6286e-13
-8.88634e-13
4.72776e-13
-1.23433e-12
7.53246e-13
-1.70027e-12
1.03642e-12
-2.57085e-12
1.90349e-12
-3.83219e-12
2.79842e-12
-6.86977e-12
6.65837e-12
-1.19153e-11
1.11569e-11
-3.4902e-11
5.16394e-11
-9.43533e-11
1.37131e-10
-1.32465e-09
4.31428e-09
-2.32375e-09
5.94224e-09
-1.04716e-08
1.64024e-09
-1.21119e-08
1.10427e-09
6.47821e-09
1.20535e-10
5.29801e-09
4.57772e-11
2.11887e-10
1.59997e-11
8.14189e-11
9.21635e-12
1.79405e-11
5.14801e-12
1.07254e-11
3.454e-12
4.49439e-12
2.28406e-12
3.07111e-12
1.65935e-12
1.65977e-12
1.1936e-12
1.22133e-12
9.09164e-13
7.5605e-13
6.86424e-13
5.83814e-13
5.38125e-13
3.93292e-13
4.18361e-13
3.14653e-13
3.3353e-13
2.25237e-13
2.63907e-13
1.82179e-13
2.12211e-13
1.37114e-13
1.69332e-13
1.12852e-13
1.36454e-13
8.67184e-14
1.08951e-13
7.2125e-14
8.72355e-14
5.72238e-14
6.90986e-14
4.76041e-14
5.44286e-14
3.89083e-14
4.19898e-14
3.3124e-14
3.15832e-14
2.80297e-14
2.24381e-14
2.36256e-14
1.43917e-14
2.1916e-14
7.05277e-15
1.9359e-14
-1.45668e-16
1.97119e-14
-7.15635e-15
1.96207e-14
-1.43436e-14
1.66345e-14
-2.249e-14
2.29543e-14
-3.17037e-14
2.51333e-14
-4.18467e-14
2.44655e-14
-5.44236e-14
3.32608e-14
-6.92234e-14
3.9798e-14
-8.71237e-14
4.46954e-14
-1.08947e-13
5.90293e-14
-1.36531e-13
7.33964e-14
-1.69181e-13
8.46209e-14
-2.12186e-13
1.13959e-13
-2.64019e-13
1.38281e-13
-3.33464e-13
1.80407e-13
-4.18401e-13
2.25939e-13
-5.38257e-13
3.1521e-13
-6.86325e-13
3.90636e-13
-9.09204e-13
5.85744e-13
-1.19381e-12
7.57461e-13
-1.65935e-12
1.21846e-12
-2.28411e-12
1.66132e-12
-3.45411e-12
3.07424e-12
-5.14794e-12
4.49255e-12
-9.21641e-12
1.07276e-11
-1.59999e-11
1.79408e-11
-4.57771e-11
8.14167e-11
-1.20534e-10
2.11888e-10
-1.10427e-09
5.29802e-09
-1.64024e-09
6.47821e-09
-1.21118e-08
1.47011e-09
-1.3582e-08
9.72979e-10
6.97534e-09
1.46646e-10
6.12435e-09
5.69846e-11
3.01548e-10
2.04119e-11
1.17992e-10
1.17445e-11
2.66076e-11
6.57488e-12
1.58959e-11
4.41006e-12
6.6593e-12
2.91764e-12
4.56424e-12
2.11985e-12
2.45824e-12
1.52498e-12
1.81594e-12
1.16183e-12
1.12017e-12
8.77188e-13
8.68587e-13
6.87825e-13
5.82546e-13
5.34763e-13
4.6782e-13
4.26439e-13
3.3425e-13
3.37439e-13
2.7182e-13
2.71408e-13
2.03611e-13
2.16598e-13
1.68322e-13
1.74582e-13
1.28018e-13
1.39438e-13
1.07209e-13
1.11686e-13
8.49845e-14
8.84732e-14
7.10969e-14
6.97047e-14
5.80714e-14
5.37797e-14
4.81577e-14
4.04509e-14
4.08533e-14
2.8751e-14
3.54595e-14
1.84494e-14
3.20774e-14
9.01755e-15
2.78692e-14
-1.32704e-16
2.89706e-14
-9.15212e-15
2.80735e-14
-1.84254e-14
2.65114e-14
-2.88121e-14
3.28524e-14
-4.05687e-14
3.63339e-14
-5.36419e-14
3.72655e-14
-6.96942e-14
5.00318e-14
-8.85827e-14
5.94211e-14
-1.11569e-13
6.71171e-14
-1.39422e-13
8.63058e-14
-1.74641e-13
1.09449e-13
-2.16449e-13
1.26223e-13
-2.71378e-13
1.69125e-13
-3.37537e-13
2.04774e-13
-4.26381e-13
2.69002e-13
-5.34809e-13
3.34365e-13
-6.8796e-13
4.68643e-13
-8.77102e-13
5.80182e-13
-1.16186e-12
8.70199e-13
-1.52519e-12
1.12077e-12
-2.11987e-12
1.81324e-12
-2.91768e-12
2.45885e-12
-4.41016e-12
4.56581e-12
-6.5748e-12
6.65578e-12
-1.17446e-11
1.58965e-11
-2.04121e-11
2.6608e-11
-5.69845e-11
1.17988e-10
-1.46646e-10
3.0155e-10
-9.72979e-10
6.12435e-09
-1.47011e-09
6.97534e-09
-1.35819e-08
1.4118e-09
-1.49938e-08
9.0773e-10
7.47942e-09
1.72644e-10
6.85943e-09
6.85309e-11
4.05661e-10
2.51595e-11
1.61362e-10
1.44618e-11
3.73052e-11
8.11918e-12
2.22381e-11
5.44306e-12
9.33525e-12
3.60407e-12
6.40275e-12
2.6182e-12
3.44368e-12
1.88418e-12
2.55e-12
1.43547e-12
1.568e-12
1.08403e-12
1.22008e-12
8.50051e-13
8.16778e-13
6.61014e-13
6.56274e-13
5.27169e-13
4.66945e-13
4.17218e-13
3.8151e-13
3.35622e-13
2.84543e-13
2.67897e-13
2.34988e-13
2.15964e-13
1.80612e-13
1.72541e-13
1.50499e-13
1.38236e-13
1.19048e-13
1.09523e-13
9.91029e-14
8.62997e-14
8.10534e-14
6.65928e-14
6.90781e-14
5.00919e-14
5.79705e-14
3.56147e-14
5.02308e-14
2.28606e-14
4.46236e-14
1.11626e-14
4.07342e-14
-1.27612e-16
4.04764e-14
-1.13269e-14
3.94984e-14
-2.28526e-14
3.77846e-14
-3.56851e-14
4.6449e-14
-5.02144e-14
5.13583e-14
-6.64495e-14
5.31608e-14
-8.62859e-14
6.9271e-14
-1.09628e-13
8.253e-14
-1.38103e-13
9.64264e-14
-1.72512e-13
1.21374e-13
-2.16014e-13
1.52814e-13
-2.6774e-13
1.77527e-13
-3.35585e-13
2.3697e-13
-4.17311e-13
2.86285e-13
-5.27108e-13
3.78979e-13
-6.61065e-13
4.67194e-13
-8.50199e-13
6.57822e-13
-1.08395e-12
8.13531e-13
-1.43551e-12
1.22186e-12
-1.88439e-12
1.57008e-12
-2.61823e-12
2.54675e-12
-3.60412e-12
3.4454e-12
-5.44316e-12
6.40578e-12
-8.1191e-12
9.33332e-12
-1.44619e-11
2.22394e-11
-2.51596e-11
3.73058e-11
-6.85308e-11
1.6136e-10
-1.72644e-10
4.05663e-10
-9.0773e-10
6.85944e-09
-1.4118e-09
7.47942e-09
-1.49937e-08
1.35405e-09
-1.63478e-08
8.72654e-10
7.96081e-09
1.98374e-10
7.53371e-09
8.04053e-11
5.23629e-10
3.02487e-11
2.11519e-10
1.73754e-11
5.0179e-11
9.78723e-12
2.9826e-11
6.55739e-12
1.25648e-11
4.34662e-12
8.61343e-12
3.15676e-12
4.63444e-12
2.27298e-12
3.43442e-12
1.73146e-12
2.10981e-12
1.30801e-12
1.64295e-12
1.02563e-12
1.09927e-12
7.97771e-13
8.83488e-13
6.36251e-13
6.29446e-13
5.03665e-13
5.14034e-13
4.05191e-13
3.83501e-13
3.23508e-13
3.17827e-13
2.60818e-13
2.42969e-13
2.08442e-13
2.03196e-13
1.67031e-13
1.60755e-13
1.32363e-13
1.34047e-13
1.04309e-13
1.09549e-13
8.05012e-14
9.31359e-14
6.0556e-14
7.74956e-14
4.30677e-14
6.75746e-14
2.76545e-14
5.99782e-14
1.34932e-14
5.43209e-14
-1.28488e-16
5.35507e-14
-1.3681e-14
5.26647e-14
-2.76647e-14
5.22008e-14
-4.31484e-14
6.21473e-14
-6.06806e-14
6.87503e-14
-8.03595e-14
7.32892e-14
-1.0429e-13
9.34074e-14
-1.32454e-13
1.10923e-13
-1.66889e-13
1.30616e-13
-2.08399e-13
1.62976e-13
-2.60854e-13
2.05063e-13
-3.23347e-13
2.40593e-13
-4.05149e-13
3.1848e-13
-5.03747e-13
3.85451e-13
-6.36193e-13
5.1158e-13
-7.97827e-13
6.29243e-13
-1.02579e-12
8.84968e-13
-1.30794e-12
1.09608e-12
-1.73149e-12
1.64485e-12
-2.2732e-12
2.11158e-12
-3.15681e-12
3.4302e-12
-4.34667e-12
4.63511e-12
-6.55748e-12
8.61567e-12
-9.78715e-12
1.2562e-11
-1.73755e-11
2.98277e-11
-3.02489e-11
5.01788e-11
-8.04053e-11
2.11516e-10
-1.98374e-10
5.23631e-10
-8.72654e-10
7.53372e-09
-1.35405e-09
7.96081e-09
-1.63478e-08
1.28377e-09
-1.76316e-08
8.48013e-10
8.39657e-09
2.23677e-10
8.15805e-09
9.25833e-11
6.54723e-10
3.56842e-11
2.68419e-10
2.04923e-11
6.53701e-11
1.15854e-11
3.87347e-11
7.75753e-12
1.6393e-11
5.14865e-12
1.12223e-11
3.73798e-12
6.04493e-12
2.69327e-12
4.47913e-12
2.05122e-12
2.75118e-12
1.55024e-12
2.14416e-12
1.21544e-12
1.43359e-12
9.45737e-13
1.15417e-12
7.54236e-13
8.20756e-13
5.9723e-13
6.71389e-13
4.80479e-13
5.00077e-13
3.83723e-13
4.1374e-13
3.09385e-13
3.18118e-13
2.47331e-13
2.64954e-13
1.98227e-13
2.09603e-13
1.57117e-13
1.74688e-13
1.23829e-13
1.42656e-13
9.55805e-14
1.19854e-13
7.19032e-14
1.01058e-13
5.11527e-14
8.87115e-14
3.28552e-14
7.88295e-14
1.60227e-14
7.15635e-14
-1.32444e-16
7.0444e-14
-1.62279e-14
6.89836e-14
-3.28889e-14
6.79194e-14
-5.1243e-14
7.97355e-14
-7.20241e-14
9.00745e-14
-9.54473e-14
9.6759e-14
-1.23805e-13
1.2129e-13
-1.5719e-13
1.44357e-13
-1.98078e-13
1.71699e-13
-2.47275e-13
2.12064e-13
-3.09399e-13
2.68596e-13
-3.83563e-13
3.14837e-13
-4.80429e-13
4.1544e-13
-5.97297e-13
5.0172e-13
-7.54186e-13
6.67675e-13
-9.45796e-13
8.2073e-13
-1.2156e-12
1.15531e-12
-1.55019e-12
1.43013e-12
-2.05125e-12
2.14636e-12
-2.69348e-12
2.75349e-12
-3.73806e-12
4.4751e-12
-5.1487e-12
6.04546e-12
-7.75761e-12
1.12251e-11
-1.15853e-11
1.63903e-11
-2.04923e-11
3.87351e-11
-3.56844e-11
6.53713e-11
-9.25832e-11
2.68415e-10
-2.23677e-10
6.54725e-10
-8.48013e-10
8.15805e-09
-1.28377e-09
8.39657e-09
-1.76315e-08
1.20556e-09
-1.88372e-08
8.25721e-10
8.77641e-09
2.48405e-10
8.73536e-09
1.05031e-10
7.98097e-10
4.14683e-11
3.31981e-10
2.38187e-11
8.30202e-11
1.35199e-11
4.90332e-11
9.04807e-12
2.08651e-11
6.01364e-12
1.42564e-11
4.36445e-12
7.6937e-12
3.14701e-12
5.69596e-12
2.39626e-12
3.50177e-12
1.81192e-12
2.72839e-12
1.4204e-12
1.82535e-12
1.10565e-12
1.46793e-12
8.81718e-13
1.04435e-12
6.98389e-13
8.53691e-13
5.61868e-13
6.36481e-13
4.48855e-13
5.27899e-13
3.61914e-13
4.03851e-13
2.89414e-13
3.37084e-13
2.31988e-13
2.66305e-13
1.83917e-13
2.22356e-13
1.44963e-13
1.81247e-13
1.11916e-13
1.54692e-13
8.41953e-14
1.29113e-13
5.99136e-14
1.13087e-13
3.84913e-14
1.00303e-13
1.87659e-14
9.14807e-14
-1.38645e-16
8.89236e-14
-1.89881e-14
8.74962e-14
-3.8551e-14
8.80184e-14
-6.00118e-14
1.01854e-13
-8.43111e-14
1.13338e-13
-1.11792e-13
1.23589e-13
-1.44935e-13
1.54559e-13
-1.83969e-13
1.82708e-13
-2.31835e-13
2.19244e-13
-2.89342e-13
2.70084e-13
-3.61907e-13
3.40269e-13
-4.48698e-13
4.01805e-13
-5.61811e-13
5.28936e-13
-6.98438e-13
6.38133e-13
-8.81675e-13
8.51439e-13
-1.10571e-12
1.04556e-12
-1.42056e-12
1.46992e-12
-1.81189e-12
1.82176e-12
-2.39628e-12
2.7307e-12
-3.14723e-12
3.50498e-12
-4.36455e-12
5.69298e-12
-6.0137e-12
7.69452e-12
-9.04813e-12
1.4259e-11
-1.35198e-11
2.08611e-11
-2.38188e-11
4.90339e-11
-4.14684e-11
8.30217e-11
-1.05031e-10
3.31978e-10
-2.48405e-10
7.981e-10
-8.25721e-10
8.73537e-09
-1.20556e-09
8.77641e-09
-1.88371e-08
1.12337e-09
-1.99605e-08
8.02948e-10
9.09683e-09
2.7242e-10
9.26589e-09
1.17708e-10
9.5281e-10
4.76009e-11
4.02088e-10
2.73605e-11
1.03261e-10
1.55971e-11
6.0796e-11
1.04337e-11
2.60286e-11
6.94518e-12
1.77455e-11
5.03882e-12
9.60027e-12
3.63627e-12
7.09942e-12
2.76814e-12
4.37022e-12
2.09427e-12
3.40321e-12
1.64149e-12
2.27733e-12
1.27828e-12
1.83146e-12
1.01931e-12
1.30424e-12
8.07647e-13
1.06596e-12
6.49768e-13
7.94876e-13
5.19232e-13
6.57002e-13
4.18675e-13
5.05683e-13
3.34906e-13
4.21449e-13
2.68489e-13
3.33459e-13
2.12906e-13
2.7854e-13
1.67828e-13
2.26755e-13
1.29591e-13
1.92082e-13
9.74969e-14
1.60606e-13
6.9398e-14
1.41358e-13
4.4594e-14
1.24623e-13
2.17361e-14
1.14067e-13
-1.45772e-16
1.11204e-13
-2.19751e-14
1.09348e-13
-4.46788e-14
1.10606e-13
-6.95065e-14
1.26294e-13
-9.76081e-14
1.42021e-13
-1.29478e-13
1.56039e-13
-1.67795e-13
1.92236e-13
-2.12933e-13
2.28877e-13
-2.6833e-13
2.75212e-13
-3.34822e-13
3.35265e-13
-4.18643e-13
4.24646e-13
-5.19079e-13
5.01773e-13
-6.49702e-13
6.60268e-13
-8.07675e-13
7.96214e-13
-1.01928e-12
1.06287e-12
-1.27835e-12
1.30433e-12
-1.64165e-12
1.83381e-12
-2.09426e-12
2.27416e-12
-2.76817e-12
3.40481e-12
-3.63648e-12
4.37244e-12
-5.03894e-12
7.09451e-12
-6.94524e-12
9.60175e-12
-1.04337e-11
1.77478e-11
-1.5597e-11
2.60253e-11
-2.73605e-11
6.07975e-11
-4.76011e-11
1.03262e-10
-1.17708e-10
4.02085e-10
-2.7242e-10
9.52811e-10
-8.02948e-10
9.2659e-09
-1.12337e-09
9.09683e-09
-1.99605e-08
1.0391e-09
-2.09996e-08
7.78806e-10
9.35713e-09
2.95584e-10
9.74911e-09
1.30569e-10
1.11783e-09
5.40796e-11
4.78577e-10
3.11225e-11
1.26218e-10
1.78231e-11
7.40955e-11
1.1919e-11
3.19327e-11
7.94698e-12
2.17173e-11
5.76385e-12
1.17835e-11
4.16318e-12
8.69934e-12
3.16853e-12
5.3646e-12
2.39859e-12
4.17201e-12
1.87973e-12
2.79718e-12
1.46446e-12
2.24749e-12
1.16769e-12
1.59944e-12
9.25535e-13
1.30786e-12
7.44601e-13
9.75246e-13
5.95208e-13
8.07514e-13
4.7995e-13
6.19695e-13
3.8404e-13
5.16877e-13
3.07915e-13
4.08682e-13
2.44232e-13
3.40982e-13
1.92537e-13
2.77261e-13
1.48699e-13
2.36546e-13
1.1188e-13
1.97554e-13
7.96542e-14
1.7372e-13
5.11956e-14
1.53215e-13
2.4952e-14
1.40397e-13
-1.54076e-16
1.3552e-13
-2.52062e-14
1.34917e-13
-5.13063e-14
1.36668e-13
-7.97736e-14
1.54619e-13
-1.11985e-13
1.74502e-13
-1.48599e-13
1.92623e-13
-1.92497e-13
2.36905e-13
-2.44235e-13
2.79776e-13
-3.07754e-13
3.37848e-13
-3.8394e-13
4.11801e-13
-4.79895e-13
5.20539e-13
-5.95054e-13
6.17826e-13
-7.44531e-13
8.09293e-13
-9.25541e-13
9.76868e-13
-1.16766e-12
1.3043e-12
-1.46453e-12
1.60079e-12
-1.87989e-12
2.24868e-12
-2.39861e-12
2.79307e-12
-3.16855e-12
4.17466e-12
-4.16339e-12
5.36856e-12
-5.764e-12
8.69539e-12
-7.94705e-12
1.1784e-11
-1.1919e-11
2.17202e-11
-1.7823e-11
3.19293e-11
-3.11225e-11
7.40962e-11
-5.40797e-11
1.2622e-10
-1.30568e-10
4.78574e-10
-2.95584e-10
1.11783e-09
-7.78806e-10
9.74912e-09
-1.0391e-09
9.35713e-09
-2.09996e-08
9.53628e-10
-2.19533e-08
7.53044e-10
9.55771e-09
3.17763e-10
1.01844e-08
1.43561e-10
1.29203e-09
6.08989e-11
5.61239e-10
3.51089e-11
1.52007e-10
2.02038e-11
8.90009e-11
1.35088e-11
3.86282e-11
9.02281e-12
2.62031e-11
6.5424e-12
1.42636e-11
4.72998e-12
1.0512e-11
3.59913e-12
6.49605e-12
2.72627e-12
5.04627e-12
2.1362e-12
3.38584e-12
1.66505e-12
2.71871e-12
1.32753e-12
1.93834e-12
1.05261e-12
1.58301e-12
8.4683e-13
1.18114e-12
6.77147e-13
9.76894e-13
5.46042e-13
7.51172e-13
4.37059e-13
6.2568e-13
3.50464e-13
4.95107e-13
2.78053e-13
4.13957e-13
2.19221e-13
3.36195e-13
1.69339e-13
2.86326e-13
1.27417e-13
2.39155e-13
9.0737e-14
2.09669e-13
5.8331e-14
1.86715e-13
2.84272e-14
1.70213e-13
-1.6146e-16
1.64082e-13
-2.87006e-14
1.62366e-13
-5.84677e-14
1.65181e-13
-9.08672e-14
1.88059e-13
-1.27519e-13
2.10136e-13
-1.69251e-13
2.33844e-13
-2.19175e-13
2.87018e-13
-2.78033e-13
3.38835e-13
-3.50298e-13
4.1e-13
-4.36945e-13
4.99829e-13
-5.45961e-13
6.29163e-13
-6.76996e-13
7.48503e-13
-8.46751e-13
9.7923e-13
-1.0526e-12
1.18284e-12
-1.3275e-12
1.5799e-12
-1.66511e-12
1.93832e-12
-2.13636e-12
2.71977e-12
-2.7263e-12
3.38185e-12
-3.59915e-12
5.04749e-12
-4.73019e-12
6.49808e-12
-6.54258e-12
1.05074e-11
-9.02288e-12
1.42639e-11
-1.35088e-11
2.62064e-11
-2.02037e-11
3.86237e-11
-3.51089e-11
8.90037e-11
-6.0899e-11
1.5201e-10
-1.43561e-10
5.61237e-10
-3.17763e-10
1.29203e-09
-7.53044e-10
1.01844e-08
-9.53629e-10
9.55771e-09
-2.19532e-08
8.67395e-10
-2.28207e-08
7.25611e-10
9.6995e-09
3.3882e-10
1.05712e-08
1.5663e-10
1.47422e-09
6.80501e-11
6.49819e-10
3.93226e-11
1.80735e-10
2.2745e-11
1.05579e-10
1.52078e-11
4.61653e-11
1.01765e-11
3.12339e-11
7.37742e-12
1.70633e-11
5.33899e-12
1.25503e-11
4.06174e-12
7.77294e-12
3.0787e-12
6.02899e-12
2.41203e-12
4.05429e-12
1.88095e-12
3.24995e-12
1.49956e-12
2.31843e-12
1.18948e-12
1.89317e-12
9.5693e-13
1.41483e-12
7.65445e-13
1.16794e-12
6.17265e-13
8.98793e-13
4.94221e-13
7.48684e-13
3.96347e-13
5.93422e-13
3.14537e-13
4.96144e-13
2.48012e-13
4.0386e-13
1.91614e-13
3.41449e-13
1.44188e-13
2.86747e-13
1.02707e-13
2.51743e-13
6.60343e-14
2.22885e-13
3.21814e-14
2.04493e-13
-1.71302e-16
1.96947e-13
-3.2474e-14
1.94803e-13
-6.61941e-14
2.00177e-13
-1.02849e-13
2.23499e-13
-1.44287e-13
2.52438e-13
-1.91539e-13
2.82119e-13
-2.47958e-13
3.42725e-13
-3.14495e-13
4.04762e-13
-3.96171e-13
4.93119e-13
-4.94096e-13
5.96811e-13
-6.17159e-13
7.53315e-13
-7.65294e-13
8.96738e-13
-9.56844e-13
1.17028e-12
-1.18944e-12
1.41581e-12
-1.49954e-12
1.88973e-12
-1.88102e-12
2.31937e-12
-2.41218e-12
3.25083e-12
-3.07875e-12
4.04898e-12
-4.06177e-12
6.03093e-12
-5.33919e-12
7.7761e-12
-7.37763e-12
1.25461e-11
-1.01766e-11
1.7064e-11
-1.52078e-11
3.12368e-11
-2.27449e-11
4.61621e-11
-3.93226e-11
1.05581e-10
-6.80502e-11
1.80737e-10
-1.5663e-10
6.49816e-10
-3.3882e-10
1.47422e-09
-7.25611e-10
1.05712e-08
-8.67396e-10
9.6995e-09
-2.28206e-08
7.80736e-10
-2.36014e-08
6.96519e-10
9.78371e-09
3.5862e-10
1.09091e-08
1.69714e-10
1.66312e-09
7.55214e-11
7.44012e-10
4.37653e-11
2.12491e-10
2.54519e-11
1.23892e-10
1.70206e-11
5.45975e-11
1.1412e-11
3.68435e-11
8.27192e-12
2.02036e-11
5.9926e-12
1.48295e-11
4.55824e-12
9.20703e-12
3.4574e-12
7.1294e-12
2.70839e-12
4.80127e-12
2.11313e-12
3.8444e-12
1.68456e-12
2.74784e-12
1.33675e-12
2.24027e-12
1.07541e-12
1.67556e-12
8.60513e-13
1.38329e-12
6.93958e-13
1.06558e-12
5.55802e-13
8.86972e-13
4.45784e-13
7.03288e-13
3.53865e-13
5.87347e-13
2.79046e-13
4.78029e-13
2.1564e-13
4.05303e-13
1.62277e-13
3.40796e-13
1.15619e-13
2.97783e-13
7.43487e-14
2.64637e-13
3.62335e-14
2.41941e-13
-1.82032e-16
2.33284e-13
-3.65445e-14
2.31186e-13
-7.45343e-14
2.37927e-13
-1.15773e-13
2.65177e-13
-1.62372e-13
2.99106e-13
-2.15578e-13
3.34421e-13
-2.7899e-13
4.06477e-13
-3.53797e-13
4.79643e-13
-4.456e-13
5.84535e-13
-5.55661e-13
7.0757e-13
-6.93829e-13
8.91138e-13
-8.60363e-13
1.06293e-12
-1.07531e-12
1.38572e-12
-1.33669e-12
1.67705e-12
-1.68455e-12
2.23755e-12
-2.1132e-12
2.74872e-12
-2.70855e-12
3.84619e-12
-3.45747e-12
4.79795e-12
-4.55828e-12
7.13118e-12
-5.9928e-12
9.21037e-12
-8.27215e-12
1.4825e-11
-1.14121e-11
2.02033e-11
-1.70205e-11
3.68457e-11
-2.54518e-11
5.45923e-11
-4.37653e-11
1.23894e-10
-7.55214e-11
2.12494e-10
-1.69714e-10
7.44009e-10
-3.5862e-10
1.66313e-09
-6.96519e-10
1.09091e-08
-7.80736e-10
9.78371e-09
-2.36013e-08
6.93951e-10
-2.42954e-08
6.65805e-10
9.81186e-09
3.7703e-10
1.11979e-08
1.82748e-10
1.85741e-09
8.32969e-11
8.43463e-10
4.84374e-11
2.47351e-10
2.83294e-11
1.44e-10
1.89517e-11
6.39749e-11
1.27332e-11
4.30611e-11
9.22899e-12
2.37065e-11
6.69328e-12
1.73663e-11
5.09057e-12
1.08101e-11
3.86391e-12
8.35528e-12
3.02654e-12
5.6396e-12
2.36259e-12
4.50927e-12
1.88333e-12
3.22751e-12
1.49509e-12
2.62983e-12
1.2028e-12
1.96778e-12
9.62788e-13
1.62223e-12
7.76477e-13
1.25254e-12
6.22088e-13
1.04134e-12
4.99008e-13
8.26102e-13
3.96224e-13
6.89713e-13
3.1248e-13
5.6209e-13
2.41532e-13
4.77004e-13
1.8177e-13
3.99977e-13
1.29542e-13
3.51684e-13
8.33115e-14
3.10478e-13
4.06049e-14
2.84642e-13
-1.92602e-16
2.74523e-13
-4.09347e-14
2.72268e-13
-8.35225e-14
2.80111e-13
-1.29708e-13
3.11917e-13
-1.81869e-13
3.51192e-13
-2.41479e-13
3.94418e-13
-3.12418e-13
4.77272e-13
-3.9613e-13
5.63487e-13
-4.98816e-13
6.86821e-13
-6.21935e-13
8.30345e-13
-7.76323e-13
1.04577e-12
-9.62637e-13
1.24942e-12
-1.20269e-12
1.62565e-12
-1.495e-12
1.96944e-12
-1.88332e-12
2.6258e-12
-2.36265e-12
3.2286e-12
-3.02669e-12
4.51037e-12
-3.86401e-12
5.63513e-12
-5.0906e-12
8.35795e-12
-6.69348e-12
1.08128e-11
-9.22925e-12
1.7361e-11
-1.27333e-11
2.3708e-11
-1.89517e-11
4.30641e-11
-2.83294e-11
6.39706e-11
-4.84374e-11
1.44003e-10
-8.3297e-11
2.47352e-10
-1.82748e-10
8.43461e-10
-3.7703e-10
1.85741e-09
-6.65805e-10
1.11979e-08
-6.93952e-10
9.81186e-09
-2.42953e-08
6.07337e-10
-2.49027e-08
6.33521e-10
9.78568e-09
3.93919e-10
1.14375e-08
1.9566e-10
2.05567e-09
9.13572e-11
9.47766e-10
5.33376e-11
2.8537e-10
3.13818e-11
1.65956e-10
2.10056e-11
7.43506e-11
1.41441e-11
4.99236e-11
1.02518e-11
2.76014e-11
7.44359e-12
2.01736e-11
5.66073e-12
1.2593e-11
4.29986e-12
9.71654e-12
3.36776e-12
6.57215e-12
2.63037e-12
5.24686e-12
2.09671e-12
3.76044e-12
1.66518e-12
3.06122e-12
1.33966e-12
2.29277e-12
1.07273e-12
1.88988e-12
8.65193e-13
1.45952e-12
6.93386e-13
1.21206e-12
5.56265e-13
9.63029e-13
4.41816e-13
8.05243e-13
3.48472e-13
6.55078e-13
2.69411e-13
5.55753e-13
2.02771e-13
4.66532e-13
1.44538e-13
4.09287e-13
9.2969e-14
3.62328e-13
4.5317e-14
3.32134e-13
-2.03046e-16
3.1905e-13
-4.56669e-14
3.17776e-13
-9.32029e-14
3.2761e-13
-1.44721e-13
3.61828e-13
-2.02867e-13
4.08428e-13
-2.6937e-13
4.59716e-13
-3.48404e-13
5.57222e-13
-4.41695e-13
6.56908e-13
-5.56065e-13
8.00596e-13
-6.93219e-13
9.68072e-13
-8.65017e-13
1.21769e-12
-1.07258e-12
1.45698e-12
-1.33955e-12
1.89224e-12
-1.66507e-12
2.29537e-12
-2.0967e-12
3.05712e-12
-2.63043e-12
3.76217e-12
-3.3679e-12
5.24795e-12
-4.29999e-12
6.5672e-12
-5.66077e-12
9.71959e-12
-7.44379e-12
1.25949e-11
-1.02521e-11
2.0169e-11
-1.41442e-11
2.75999e-11
-2.10055e-11
4.99255e-11
-3.13817e-11
7.43459e-11
-5.33376e-11
1.65957e-10
-9.13573e-11
2.85373e-10
-1.9566e-10
9.47763e-10
-3.93919e-10
2.05567e-09
-6.33521e-10
1.14375e-08
-6.07338e-10
9.78568e-09
-2.49026e-08
5.21194e-10
-2.54239e-08
5.99731e-10
9.70714e-09
4.0916e-10
1.1628e-08
2.08377e-10
2.25645e-09
9.96786e-11
1.05647e-09
5.84628e-11
3.26588e-10
3.46126e-11
1.89806e-10
2.31863e-11
8.57782e-11
1.56486e-11
5.746e-11
1.13435e-11
3.19041e-11
8.24612e-12
2.32711e-11
6.27081e-12
1.45686e-11
4.76693e-12
1.12196e-11
3.7334e-12
7.60634e-12
2.91756e-12
6.06261e-12
2.32561e-12
4.35276e-12
1.84776e-12
3.53751e-12
1.48659e-12
2.6545e-12
1.19083e-12
2.18552e-12
9.60501e-13
1.689e-12
7.70021e-13
1.4037e-12
6.17822e-13
1.11569e-12
4.90848e-13
9.32101e-13
3.87191e-13
7.59062e-13
2.99413e-13
6.4375e-13
2.25371e-13
5.41071e-13
1.60685e-13
4.74124e-13
1.03366e-13
4.20177e-13
5.03906e-14
3.86186e-13
-2.11933e-16
3.70346e-13
-5.07626e-14
3.67738e-13
-1.03625e-13
3.82111e-13
-1.60883e-13
4.19889e-13
-2.25472e-13
4.73642e-13
-2.99379e-13
5.3441e-13
-3.87118e-13
6.43284e-13
-4.90705e-13
7.59469e-13
-6.17608e-13
9.27621e-13
-7.69839e-13
1.11959e-12
-9.60305e-13
1.40749e-12
-1.19067e-12
1.68756e-12
-1.48647e-12
2.18858e-12
-1.84763e-12
2.65616e-12
-2.32559e-12
3.53465e-12
-2.91763e-12
4.35317e-12
-3.73354e-12
6.06377e-12
-4.76708e-12
7.60016e-12
-6.27086e-12
1.12223e-11
-8.24632e-12
1.45724e-11
-1.13438e-11
2.32675e-11
-1.56486e-11
3.19044e-11
-2.31862e-11
5.74619e-11
-3.46125e-11
8.57726e-11
-5.84628e-11
1.89808e-10
-9.96786e-11
3.26588e-10
-2.08377e-10
1.05646e-09
-4.0916e-10
2.25645e-09
-5.99731e-10
1.1628e-08
-5.21195e-10
9.70714e-09
-2.54238e-08
4.35825e-10
-2.58597e-08
5.64509e-10
9.57846e-09
4.22631e-10
1.17699e-08
2.20819e-10
2.45826e-09
1.08233e-10
1.16905e-09
6.38079e-11
3.71012e-10
3.80246e-11
2.1559e-10
2.54977e-11
9.83038e-11
1.72504e-11
6.57101e-11
1.25072e-11
3.6648e-11
9.10356e-12
2.66756e-11
6.92293e-12
1.67489e-11
5.26687e-12
1.28772e-11
4.12485e-12
8.74701e-12
3.22533e-12
6.96129e-12
2.57093e-12
5.00784e-12
2.04359e-12
4.06699e-12
1.64421e-12
3.05314e-12
1.31758e-12
2.51271e-12
1.06283e-12
1.9443e-12
8.52329e-13
1.61438e-12
6.83951e-13
1.28365e-12
5.43545e-13
1.0724e-12
4.28812e-13
8.73302e-13
3.31678e-13
7.41267e-13
2.49678e-13
6.21374e-13
1.78058e-13
5.45871e-13
1.14555e-13
4.83178e-13
5.58508e-14
4.44531e-13
-2.23543e-16
4.26563e-13
-5.62407e-14
4.23719e-13
-1.14841e-13
4.39463e-13
-1.78271e-13
4.83262e-13
-2.49784e-13
5.46419e-13
-3.31655e-13
6.15458e-13
-4.28734e-13
7.4178e-13
-5.43378e-13
8.75559e-13
-6.83725e-13
1.06856e-12
-8.52135e-13
1.2881e-12
-1.0626e-12
1.61808e-12
-1.31742e-12
1.94253e-12
-1.64408e-12
2.51456e-12
-2.04343e-12
3.05519e-12
-2.57092e-12
4.06283e-12
-3.22539e-12
5.00778e-12
-4.125e-12
6.96324e-12
-5.26703e-12
8.74305e-12
-6.92299e-12
1.28784e-11
-9.10376e-12
1.67516e-11
-1.25075e-11
2.66708e-11
-1.72505e-11
3.66466e-11
-2.54976e-11
6.5709e-11
-3.80245e-11
9.83003e-11
-6.38079e-11
2.15592e-10
-1.08233e-10
3.71013e-10
-2.20819e-10
1.16905e-09
-4.22631e-10
2.45826e-09
-5.64509e-10
1.17699e-08
-4.35826e-10
9.57846e-09
-2.58596e-08
3.51533e-10
-2.62112e-08
5.27942e-10
9.40205e-09
4.34216e-10
1.18636e-08
2.32904e-10
2.65957e-09
1.16987e-10
1.28497e-09
6.93657e-11
4.18634e-10
4.16196e-11
2.43335e-10
2.79434e-11
1.1198e-10
1.89535e-11
7.46982e-11
1.37463e-11
4.18551e-11
1.00186e-11
3.04025e-11
7.61931e-12
1.91482e-11
5.80145e-12
1.46943e-11
4.5436e-12
1.00056e-11
3.55485e-12
7.95036e-12
2.83367e-12
5.72796e-12
2.25345e-12
4.64599e-12
1.81317e-12
3.4944e-12
1.45353e-12
2.87178e-12
1.1726e-12
2.22507e-12
9.4067e-13
1.84545e-12
7.54945e-13
1.46884e-12
6.00145e-13
1.22702e-12
4.73527e-13
1.00029e-12
3.66345e-13
8.47798e-13
2.7581e-13
7.12951e-13
1.96736e-13
6.2569e-13
1.26587e-13
5.5307e-13
6.17261e-14
5.08688e-13
-2.35714e-16
4.87443e-13
-6.21345e-14
4.85981e-13
-1.26895e-13
5.04075e-13
-1.96962e-13
5.53213e-13
-2.75925e-13
6.23329e-13
-3.66333e-13
7.07239e-13
-4.73442e-13
8.48213e-13
-5.99955e-13
1.00135e-12
-7.54708e-13
1.22254e-12
-9.40463e-13
1.47314e-12
-1.17234e-12
1.84938e-12
-1.45336e-12
2.22325e-12
-1.81302e-12
2.8747e-12
-2.25326e-12
3.49694e-12
-2.83365e-12
4.6433e-12
-3.55491e-12
5.72941e-12
-4.54373e-12
7.95173e-12
-5.80164e-12
1.00008e-11
-7.61937e-12
1.46965e-11
-1.00188e-11
1.91509e-11
-1.37466e-11
3.03985e-11
-1.89535e-11
4.18548e-11
-2.79433e-11
7.4699e-11
-4.16195e-11
1.11975e-10
-6.93657e-11
2.43338e-10
-1.16988e-10
4.18635e-10
-2.32904e-10
1.28496e-09
-4.34216e-10
2.65957e-09
-5.27943e-10
1.18636e-08
-3.51534e-10
9.40205e-09
-2.62112e-08
2.68623e-10
-2.64799e-08
4.90128e-10
9.18054e-09
4.43809e-10
1.191e-08
2.44547e-10
2.85883e-09
1.25905e-10
1.40361e-09
7.51265e-11
4.69413e-10
4.53983e-11
2.73063e-10
3.05263e-11
1.26854e-10