/*--------------------------------*- C++ -*----------------------------------*\
| =========                 |                                                 |
| \\      /  F ield         | foam-extend: Open Source CFD                    |
|  \\    /   O peration     | Version:     4.0                                |
|   \\  /    A nd           | Web:         http://www.foam-extend.org         |
|    \\/     M anipulation  |                                                 |
\*---------------------------------------------------------------------------*/
FoamFile
{
    version     2.0;
    format      ascii;
    class       volVectorField;
    location    "2";
    object      U;
}
// * * * * * * * * * * * * * * * * * * * * * * * * * * * * * * * * * * * * * //

dimensions      [0 1 -1 0 0 0 0];

internalField   nonuniform List<vector> 
6960
(
(-4.58167e-07 -25.7986 0)
(-3.33579e-07 -25.7977 0)
(1.95358e-07 -25.7977 0)
(7.81435e-08 -25.7977 0)
(1.73552e-08 -25.7977 0)
(1.20955e-08 -25.7977 0)
(5.36404e-09 -25.7977 0)
(4.1656e-09 -25.7977 0)
(2.32902e-09 -25.7977 0)
(1.90666e-09 -25.7977 0)
(1.20395e-09 -25.7977 0)
(1.01023e-09 -25.7977 0)
(6.89561e-10 -25.7977 0)
(5.83578e-10 -25.7977 0)
(4.20188e-10 -25.7977 0)
(3.55046e-10 -25.7977 0)
(2.65284e-10 -25.7977 0)
(2.22824e-10 -25.7977 0)
(1.7053e-10 -25.7977 0)
(1.41955e-10 -25.7977 0)
(1.09956e-10 -25.7977 0)
(9.01194e-11 -25.7977 0)
(6.99785e-11 -25.7977 0)
(5.63376e-11 -25.7977 0)
(4.32646e-11 -25.7977 0)
(3.35366e-11 -25.7977 0)
(2.41717e-11 -25.7977 0)
(1.66792e-11 -25.7977 0)
(9.34855e-12 -25.7977 0)
(3.09112e-12 -25.7977 0)
(-3.17561e-12 -25.7977 0)
(-9.61855e-12 -25.7977 0)
(-1.68962e-11 -25.7977 0)
(-2.40762e-11 -25.7977 0)
(-3.34744e-11 -25.7977 0)
(-4.33103e-11 -25.7977 0)
(-5.63535e-11 -25.7977 0)
(-7.0092e-11 -25.7977 0)
(-9.0421e-11 -25.7977 0)
(-1.09894e-10 -25.7977 0)
(-1.41874e-10 -25.7977 0)
(-1.70604e-10 -25.7977 0)
(-2.22687e-10 -25.7977 0)
(-2.65423e-10 -25.7977 0)
(-3.55328e-10 -25.7977 0)
(-4.2008e-10 -25.7977 0)
(-5.83488e-10 -25.7977 0)
(-6.89761e-10 -25.7977 0)
(-1.0104e-09 -25.7977 0)
(-1.20421e-09 -25.7977 0)
(-1.90699e-09 -25.7977 0)
(-2.3289e-09 -25.7977 0)
(-4.16569e-09 -25.7977 0)
(-5.3645e-09 -25.7977 0)
(-1.20956e-08 -25.7977 0)
(-1.73554e-08 -25.7977 0)
(-7.81437e-08 -25.7977 0)
(-1.95358e-07 -25.7977 0)
(3.33579e-07 -25.7977 0)
(4.58166e-07 -25.7986 0)
(2.85966e-05 -1.55292 0)
(2.8963e-05 -1.55171 0)
(5.74415e-07 -1.55171 0)
(2.31461e-07 -1.55171 0)
(5.32433e-08 -1.55171 0)
(3.64619e-08 -1.55171 0)
(1.63442e-08 -1.55171 0)
(1.2578e-08 -1.55171 0)
(7.08477e-09 -1.55171 0)
(5.76199e-09 -1.55171 0)
(3.65952e-09 -1.55171 0)
(3.05709e-09 -1.55171 0)
(2.09498e-09 -1.55171 0)
(1.76711e-09 -1.55171 0)
(1.2777e-09 -1.55171 0)
(1.07574e-09 -1.55171 0)
(8.06714e-10 -1.55171 0)
(6.77128e-10 -1.55171 0)
(5.18367e-10 -1.55171 0)
(4.31577e-10 -1.55171 0)
(3.35842e-10 -1.55171 0)
(2.74126e-10 -1.55171 0)
(2.13766e-10 -1.55171 0)
(1.72732e-10 -1.55171 0)
(1.31506e-10 -1.55171 0)
(1.02383e-10 -1.55171 0)
(7.45681e-11 -1.55171 0)
(5.04159e-11 -1.55171 0)
(2.92486e-11 -1.55171 0)
(1.18478e-11 -1.55171 0)
(-1.48626e-11 -1.55171 0)
(-2.90451e-11 -1.55171 0)
(-4.49535e-11 -1.55171 0)
(-8.03849e-11 -1.55171 0)
(-1.02258e-10 -1.55171 0)
(-1.25627e-10 -1.55171 0)
(-1.78698e-10 -1.55171 0)
(-2.13928e-10 -1.55171 0)
(-2.68711e-10 -1.55171 0)
(-3.41615e-10 -1.55171 0)
(-4.31358e-10 -1.55171 0)
(-5.12557e-10 -1.55171 0)
(-6.82763e-10 -1.55171 0)
(-8.06977e-10 -1.55171 0)
(-1.07037e-09 -1.55171 0)
(-1.28345e-09 -1.55171 0)
(-1.76699e-09 -1.55171 0)
(-2.08941e-09 -1.55171 0)
(-3.06333e-09 -1.55171 0)
(-3.6601e-09 -1.55171 0)
(-5.75675e-09 -1.55171 0)
(-7.09047e-09 -1.55171 0)
(-1.25781e-08 -1.55171 0)
(-1.63391e-08 -1.55171 0)
(-3.6468e-08 -1.55171 0)
(-5.32437e-08 -1.55171 0)
(-2.31455e-07 -1.55171 0)
(-5.74421e-07 -1.55171 0)
(-2.8963e-05 -1.55171 0)
(-2.85966e-05 -1.55292 0)
(3.32695e-05 3.48807 0)
(3.38432e-05 3.48806 0)
(9.13317e-07 3.48806 0)
(3.80441e-07 3.48806 0)
(9.07103e-08 3.48806 0)
(6.13304e-08 3.48806 0)
(2.77367e-08 3.48806 0)
(2.11944e-08 3.48806 0)
(1.20077e-08 3.48806 0)
(9.71767e-09 3.48806 0)
(6.19927e-09 3.48806 0)
(5.15918e-09 3.48806 0)
(3.54853e-09 3.48806 0)
(2.98429e-09 3.48806 0)
(2.1635e-09 3.48806 0)
(1.8185e-09 3.48806 0)
(1.36656e-09 3.48806 0)
(1.1451e-09 3.48806 0)
(8.78856e-10 3.48806 0)
(7.30718e-10 3.48806 0)
(5.69297e-10 3.48806 0)
(4.65283e-10 3.48806 0)
(3.63007e-10 3.48806 0)
(2.92899e-10 3.48806 0)
(2.23689e-10 3.48806 0)
(1.73798e-10 3.48806 0)
(1.26365e-10 3.48806 0)
(8.60804e-11 3.48806 0)
(4.97179e-11 3.48806 0)
(1.90483e-11 3.48806 0)
(-2.26508e-11 3.48806 0)
(-4.9592e-11 3.48806 0)
(-7.98444e-11 3.48806 0)
(-1.33164e-10 3.48806 0)
(-1.73642e-10 3.48806 0)
(-2.16846e-10 3.48806 0)
(-2.99796e-10 3.48806 0)
(-3.63127e-10 3.48806 0)
(-4.58947e-10 3.48806 0)
(-5.75917e-10 3.48806 0)
(-7.30385e-10 3.48806 0)
(-8.72115e-10 3.48806 0)
(-1.15157e-09 3.48806 0)
(-1.36686e-09 3.48806 0)
(-1.81234e-09 3.48806 0)
(-2.1702e-09 3.48806 0)
(-2.98422e-09 3.48806 0)
(-3.54207e-09 3.48806 0)
(-5.1664e-09 3.48806 0)
(-6.20006e-09 3.48806 0)
(-9.7117e-09 3.48806 0)
(-1.20143e-08 3.48806 0)
(-2.11946e-08 3.48806 0)
(-2.77308e-08 3.48806 0)
(-6.13376e-08 3.48806 0)
(-9.07108e-08 3.48806 0)
(-3.80434e-07 3.48806 0)
(-9.13323e-07 3.48806 0)
(-3.38432e-05 3.48806 0)
(-3.32695e-05 3.48807 0)
(2.5069e-05 1.85182 0)
(2.58222e-05 1.85144 0)
(1.21577e-06 1.85144 0)
(5.22149e-07 1.85143 0)
(1.29628e-07 1.85143 0)
(8.6668e-08 1.85143 0)
(3.95417e-08 1.85143 0)
(3.00155e-08 1.85143 0)
(1.71005e-08 1.85143 0)
(1.37749e-08 1.85143 0)
(8.82466e-09 1.85143 0)
(7.31754e-09 1.85143 0)
(5.05064e-09 1.85143 0)
(4.23556e-09 1.85143 0)
(3.07818e-09 1.85143 0)
(2.58322e-09 1.85143 0)
(1.94486e-09 1.85143 0)
(1.62697e-09 1.85143 0)
(1.25164e-09 1.85143 0)
(1.03925e-09 1.85143 0)
(8.10399e-10 1.85143 0)
(6.63077e-10 1.85143 0)
(5.17474e-10 1.85143 0)
(4.16896e-10 1.85143 0)
(3.19422e-10 1.85143 0)
(2.47686e-10 1.85143 0)
(1.79747e-10 1.85143 0)
(1.23322e-10 1.85143 0)
(7.08099e-11 1.85143 0)
(2.55284e-11 1.85143 0)
(-2.84837e-11 1.85143 0)
(-7.10549e-11 1.85143 0)
(-1.18897e-10 1.85143 0)
(-1.84911e-10 1.85143 0)
(-2.47515e-10 1.85143 0)
(-3.14231e-10 1.85143 0)
(-4.22074e-10 1.85143 0)
(-5.1752e-10 1.85143 0)
(-6.58364e-10 1.85143 0)
(-8.1524e-10 1.85143 0)
(-1.03883e-09 1.85143 0)
(-1.24658e-09 1.85143 0)
(-1.63165e-09 1.85143 0)
(-1.94516e-09 1.85143 0)
(-2.57882e-09 1.85143 0)
(-3.08322e-09 1.85143 0)
(-4.23559e-09 1.85143 0)
(-5.04587e-09 1.85143 0)
(-7.32306e-09 1.85143 0)
(-8.8256e-09 1.85143 0)
(-1.37707e-08 1.85143 0)
(-1.71054e-08 1.85143 0)
(-3.00156e-08 1.85143 0)
(-3.95375e-08 1.85143 0)
(-8.66734e-08 1.85143 0)
(-1.29629e-07 1.85143 0)
(-5.22144e-07 1.85143 0)
(-1.21577e-06 1.85144 0)
(-2.58222e-05 1.85144 0)
(-2.5069e-05 1.85182 0)
(1.8121e-05 0.684739 0)
(1.90388e-05 0.684486 0)
(1.49487e-06 0.684485 0)
(6.56652e-07 0.684484 0)
(1.69878e-07 0.684484 0)
(1.12443e-07 0.684484 0)
(5.17584e-08 0.684484 0)
(3.90417e-08 0.684484 0)
(2.23659e-08 0.684484 0)
(1.79348e-08 0.684484 0)
(1.15373e-08 0.684484 0)
(9.53349e-09 0.684484 0)
(6.6019e-09 0.684484 0)
(5.52156e-09 0.684484 0)
(4.02257e-09 0.684484 0)
(3.3699e-09 0.684484 0)
(2.54189e-09 0.684484 0)
(2.1232e-09 0.684484 0)
(1.63651e-09 0.684484 0)
(1.35725e-09 0.684484 0)
(1.05948e-09 0.684484 0)
(8.67141e-10 0.684484 0)
(6.77122e-10 0.684484 0)
(5.4499e-10 0.684484 0)
(4.18363e-10 0.684484 0)
(3.24027e-10 0.684484 0)
(2.35009e-10 0.684484 0)
(1.61799e-10 0.684484 0)
(9.2682e-11 0.684484 0)
(3.23522e-11 0.684484 0)
(-3.47706e-11 0.684484 0)
(-9.324e-11 0.684484 0)
(-1.58916e-10 0.684484 0)
(-2.38784e-10 0.684484 0)
(-3.2385e-10 0.684484 0)
(-4.14579e-10 0.684484 0)
(-5.48685e-10 0.684484 0)
(-6.77081e-10 0.684484 0)
(-8.63766e-10 0.684484 0)
(-1.06278e-09 0.684484 0)
(-1.35675e-09 0.684484 0)
(-1.63289e-09 0.684484 0)
(-2.12636e-09 0.684484 0)
(-2.54217e-09 0.684484 0)
(-3.36698e-09 0.684484 0)
(-4.02621e-09 0.684484 0)
(-5.52169e-09 0.684484 0)
(-6.59857e-09 0.684484 0)
(-9.53754e-09 0.684484 0)
(-1.15383e-08 0.684484 0)
(-1.79322e-08 0.684484 0)
(-2.23693e-08 0.684484 0)
(-3.90418e-08 0.684484 0)
(-5.17555e-08 0.684484 0)
(-1.12447e-07 0.684484 0)
(-1.69879e-07 0.684484 0)
(-6.56649e-07 0.684484 0)
(-1.49488e-06 0.684485 0)
(-1.90388e-05 0.684486 0)
(-1.8121e-05 0.684739 0)
(1.41676e-05 0.210113 0)
(1.52381e-05 0.210004 0)
(1.75443e-06 0.210004 0)
(7.84667e-07 0.210002 0)
(2.11333e-07 0.210002 0)
(1.38621e-07 0.210002 0)
(6.43843e-08 0.210002 0)
(4.82728e-08 0.210002 0)
(2.78059e-08 0.210002 0)
(2.21989e-08 0.210002 0)
(1.43386e-08 0.210002 0)
(1.18082e-08 0.210002 0)
(8.20326e-09 0.210002 0)
(6.84301e-09 0.210002 0)
(4.99734e-09 0.210002 0)
(4.17898e-09 0.210002 0)
(3.15803e-09 0.210002 0)
(2.63411e-09 0.210002 0)
(2.03366e-09 0.210002 0)
(1.68489e-09 0.210002 0)
(1.31669e-09 0.210002 0)
(1.07751e-09 0.210002 0)
(8.42016e-10 0.210002 0)
(6.77263e-10 0.210002 0)
(5.20515e-10 0.210002 0)
(4.02855e-10 0.210002 0)
(2.92209e-10 0.210002 0)
(2.0148e-10 0.210002 0)
(1.15359e-10 0.210002 0)
(3.96495e-11 0.210002 0)
(-4.18131e-11 0.210002 0)
(-1.16134e-10 0.210002 0)
(-1.9952e-10 0.210002 0)
(-2.95197e-10 0.210002 0)
(-4.02679e-10 0.210002 0)
(-5.17536e-10 0.210002 0)
(-6.80075e-10 0.210002 0)
(-8.41882e-10 0.210002 0)
(-1.07486e-09 0.210002 0)
(-1.31907e-09 0.210002 0)
(-1.68433e-09 0.210002 0)
(-2.03087e-09 0.210002 0)
(-2.63637e-09 0.210002 0)
(-3.15827e-09 0.210002 0)
(-4.17692e-09 0.210002 0)
(-5.00019e-09 0.210002 0)
(-6.84327e-09 0.210002 0)
(-8.20076e-09 0.210002 0)
(-1.18113e-08 0.210002 0)
(-1.43398e-08 0.210002 0)
(-2.21972e-08 0.210002 0)
(-2.78084e-08 0.210002 0)
(-4.82728e-08 0.210002 0)
(-6.43822e-08 0.210002 0)
(-1.38624e-07 0.210002 0)
(-2.11333e-07 0.210002 0)
(-7.84664e-07 0.210002 0)
(-1.75443e-06 0.210004 0)
(-1.52381e-05 0.210004 0)
(-1.41676e-05 0.210113 0)
(1.19831e-05 0.0575887 0)
(1.3193e-05 0.0575536 0)
(1.99367e-06 0.0575533 0)
(9.06605e-07 0.0575514 0)
(2.5385e-07 0.0575514 0)
(1.65162e-07 0.0575514 0)
(7.74148e-08 0.0575514 0)
(5.77076e-08 0.0575514 0)
(3.34221e-08 0.0575513 0)
(2.65685e-08 0.0575513 0)
(1.72303e-08 0.0575513 0)
(1.41427e-08 0.0575513 0)
(9.85578e-09 0.0575513 0)
(8.20071e-09 0.0575513 0)
(6.00315e-09 0.0575513 0)
(5.011e-09 0.0575513 0)
(3.79371e-09 0.0575513 0)
(3.16004e-09 0.0575513 0)
(2.44341e-09 0.0575513 0)
(2.02241e-09 0.0575513 0)
(1.58219e-09 0.0575513 0)
(1.29436e-09 0.0575513 0)
(1.01227e-09 0.0575513 0)
(8.13778e-10 0.0575513 0)
(6.25981e-10 0.0575513 0)
(4.84229e-10 0.0575513 0)
(3.51358e-10 0.0575513 0)
(2.42422e-10 0.0575513 0)
(1.38837e-10 0.0575513 0)
(4.7331e-11 0.0575513 0)
(-4.94059e-11 0.0575513 0)
(-1.39771e-10 0.0575513 0)
(-2.41016e-10 0.0575513 0)
(-3.53921e-10 0.0575513 0)
(-4.84057e-10 0.0575513 0)
(-6.23453e-10 0.0575513 0)
(-8.16067e-10 0.0575513 0)
(-1.01205e-09 0.0575513 0)
(-1.29206e-09 0.0575513 0)
(-1.58401e-09 0.0575513 0)
(-2.02177e-09 0.0575513 0)
(-2.44108e-09 0.0575513 0)
(-3.16175e-09 0.0575513 0)
(-3.79392e-09 0.0575513 0)
(-5.00944e-09 0.0575513 0)
(-6.00556e-09 0.0575513 0)
(-8.20108e-09 0.0575513 0)
(-9.85375e-09 0.0575513 0)
(-1.41453e-08 0.0575513 0)
(-1.72316e-08 0.0575513 0)
(-2.65673e-08 0.0575513 0)
(-3.34241e-08 0.0575513 0)
(-5.77076e-08 0.0575514 0)
(-7.74131e-08 0.0575514 0)
(-1.65164e-07 0.0575514 0)
(-2.53851e-07 0.0575514 0)
(-9.06603e-07 0.0575514 0)
(-1.99367e-06 0.0575533 0)
(-1.3193e-05 0.0575536 0)
(-1.19831e-05 0.0575887 0)
(1.05633e-05 0.0146563 0)
(1.1898e-05 0.01465 0)
(2.21125e-06 0.0146498 0)
(1.0225e-06 0.0146478 0)
(2.97274e-07 0.0146477 0)
(1.92021e-07 0.0146477 0)
(9.08429e-08 0.0146476 0)
(6.73444e-08 0.0146476 0)
(3.92156e-08 0.0146476 0)
(3.10447e-08 0.0146476 0)
(2.02136e-08 0.0146476 0)
(1.6538e-08 0.0146476 0)
(1.15605e-08 0.0146476 0)
(9.59544e-09 0.0146476 0)
(7.04065e-09 0.0146476 0)
(5.86655e-09 0.0146476 0)
(4.44942e-09 0.0146476 0)
(3.70134e-09 0.0146476 0)
(2.8661e-09 0.0146476 0)
(2.37005e-09 0.0146476 0)
(1.85618e-09 0.0146476 0)
(1.51787e-09 0.0146476 0)
(1.18804e-09 0.0146476 0)
(9.54627e-10 0.0146476 0)
(7.34876e-10 0.0146476 0)
(5.6822e-10 0.0146476 0)
(4.12488e-10 0.0146476 0)
(2.84681e-10 0.0146476 0)
(1.6312e-10 0.0146476 0)
(5.53256e-11 0.0146476 0)
(-5.73861e-11 0.0146476 0)
(-1.64189e-10 0.0146476 0)
(-2.83665e-10 0.0146476 0)
(-4.14785e-10 0.0146476 0)
(-5.68057e-10 0.0146476 0)
(-7.32648e-10 0.0146476 0)
(-9.56549e-10 0.0146476 0)
(-1.18771e-09 0.0146476 0)
(-1.51577e-09 0.0146476 0)
(-1.85759e-09 0.0146476 0)
(-2.36935e-09 0.0146476 0)
(-2.86407e-09 0.0146476 0)
(-3.70265e-09 0.0146476 0)
(-4.44958e-09 0.0146476 0)
(-5.86532e-09 0.0146476 0)
(-7.04278e-09 0.0146476 0)
(-9.59592e-09 0.0146476 0)
(-1.15588e-08 0.0146476 0)
(-1.65403e-08 0.0146476 0)
(-2.0215e-08 0.0146476 0)
(-3.10439e-08 0.0146476 0)
(-3.92172e-08 0.0146476 0)
(-6.73443e-08 0.0146476 0)
(-9.08415e-08 0.0146476 0)
(-1.92024e-07 0.0146477 0)
(-2.97275e-07 0.0146477 0)
(-1.02249e-06 0.0146478 0)
(-2.21125e-06 0.0146498 0)
(-1.1898e-05 0.01465 0)
(-1.05633e-05 0.0146563 0)
(9.43974e-06 0.003554 0)
(1.08838e-05 0.00355771 0)
(2.40637e-06 0.00355759 0)
(1.13215e-06 0.00355538 0)
(3.41435e-07 0.00355528 0)
(2.19149e-07 0.00355523 0)
(1.04659e-07 0.00355522 0)
(7.71799e-08 0.00355521 0)
(4.5187e-08 0.00355521 0)
(3.56284e-08 0.00355521 0)
(2.32897e-08 0.00355521 0)
(1.89952e-08 0.00355521 0)
(1.33184e-08 0.00355521 0)
(1.1028e-08 0.00355521 0)
(8.11054e-09 0.00355521 0)
(6.74618e-09 0.00355521 0)
(5.12562e-09 0.00355521 0)
(4.25837e-09 0.00355521 0)
(3.30207e-09 0.00355521 0)
(2.7281e-09 0.00355521 0)
(2.13886e-09 0.00355521 0)
(1.74823e-09 0.00355521 0)
(1.36946e-09 0.00355521 0)
(1.09992e-09 0.00355521 0)
(8.47309e-10 0.00355521 0)
(6.54903e-10 0.00355521 0)
(4.75648e-10 0.00355521 0)
(3.28307e-10 0.00355521 0)
(1.8823e-10 0.00355521 0)
(6.36064e-11 0.00355521 0)
(-6.56828e-11 0.00355521 0)
(-1.89416e-10 0.00355521 0)
(-3.27612e-10 0.00355521 0)
(-4.7774e-10 0.00355521 0)
(-6.54754e-10 0.00355521 0)
(-8.45327e-10 0.00355521 0)
(-1.10153e-09 0.00355521 0)
(-1.36903e-09 0.00355521 0)
(-1.74628e-09 0.00355521 0)
(-2.13993e-09 0.00355521 0)
(-2.72733e-09 0.00355521 0)
(-3.30028e-09 0.00355521 0)
(-4.25937e-09 0.00355521 0)
(-5.12574e-09 0.00355521 0)
(-6.74521e-09 0.00355521 0)
(-8.11243e-09 0.00355521 0)
(-1.10286e-08 0.00355521 0)
(-1.33169e-08 0.00355521 0)
(-1.89972e-08 0.00355521 0)
(-2.32912e-08 0.00355521 0)
(-3.5628e-08 0.00355521 0)
(-4.51883e-08 0.00355521 0)
(-7.71798e-08 0.00355521 0)
(-1.04658e-07 0.00355522 0)
(-2.19151e-07 0.00355523 0)
(-3.41435e-07 0.00355528 0)
(-1.13215e-06 0.00355538 0)
(-2.40637e-06 0.00355759 0)
(-1.08838e-05 0.00355771 0)
(-9.43975e-06 0.003554 0)
(8.43838e-06 0.000838534 0)
(9.97617e-06 0.00084559 0)
(2.5787e-06 0.000845536 0)
(1.23529e-06 0.000843184 0)
(3.86147e-07 0.000843059 0)
(2.4649e-07 0.000842992 0)
(1.18851e-07 0.000842984 0)
(8.72102e-08 0.000842976 0)
(5.13362e-08 0.000842975 0)
(4.03203e-08 0.000842973 0)
(2.64598e-08 0.000842973 0)
(2.15153e-08 0.000842972 0)
(1.51303e-08 0.000842972 0)
(1.24991e-08 0.000842972 0)
(9.21348e-09 0.000842972 0)
(7.65046e-09 0.000842971 0)
(5.8228e-09 0.000842971 0)
(4.83153e-09 0.000842971 0)
(3.75167e-09 0.000842971 0)
(3.09684e-09 0.000842971 0)
(2.43047e-09 0.000842971 0)
(1.98565e-09 0.000842971 0)
(1.55669e-09 0.000842971 0)
(1.24979e-09 0.000842971 0)
(9.63393e-10 0.000842971 0)
(7.4436e-10 0.000842971 0)
(5.40896e-10 0.000842971 0)
(3.73348e-10 0.000842971 0)
(2.14188e-10 0.000842971 0)
(7.2168e-11 0.000842971 0)
(-7.42775e-11 0.000842971 0)
(-2.15481e-10 0.000842971 0)
(-3.72941e-10 0.000842971 0)
(-5.42809e-10 0.000842971 0)
(-7.4423e-10 0.000842971 0)
(-9.61632e-10 0.000842971 0)
(-1.25112e-09 0.000842971 0)
(-1.55616e-09 0.000842971 0)
(-1.98382e-09 0.000842971 0)
(-2.43123e-09 0.000842971 0)
(-3.09599e-09 0.000842971 0)
(-3.75009e-09 0.000842971 0)
(-4.83224e-09 0.000842971 0)
(-5.82287e-09 0.000842971 0)
(-7.64972e-09 0.000842971 0)
(-9.21517e-09 0.000842972 0)
(-1.24998e-08 0.000842972 0)
(-1.51291e-08 0.000842972 0)
(-2.1517e-08 0.000842972 0)
(-2.64615e-08 0.000842973 0)
(-4.03202e-08 0.000842973 0)
(-5.13373e-08 0.000842975 0)
(-8.72101e-08 0.000842976 0)
(-1.1885e-07 0.000842984 0)
(-2.46492e-07 0.000842992 0)
(-3.86148e-07 0.000843059 0)
(-1.23529e-06 0.000843184 0)
(-2.5787e-06 0.000845536 0)
(-9.97617e-06 0.00084559 0)
(-8.43838e-06 0.000838535 0)
(7.50289e-06 0.000195118 0)
(9.11895e-06 0.00020343 0)
(2.72823e-06 0.000203439 0)
(1.3316e-06 0.000200965 0)
(4.31215e-07 0.000200815 0)
(2.73983e-07 0.000200734 0)
(1.33403e-07 0.000200723 0)
(9.74297e-08 0.000200714 0)
(5.76627e-08 0.000200712 0)
(4.51207e-08 0.00020071 0)
(2.97248e-08 0.000200709 0)
(2.40991e-08 0.000200709 0)
(1.69973e-08 0.000200708 0)
(1.40096e-08 0.000200708 0)
(1.03501e-08 0.000200708 0)
(8.57994e-09 0.000200708 0)
(6.54144e-09 0.000200708 0)
(5.42123e-09 0.000200708 0)
(4.21523e-09 0.000200708 0)
(3.47654e-09 0.000200708 0)
(2.73124e-09 0.000200707 0)
(2.23032e-09 0.000200707 0)
(1.74989e-09 0.000200707 0)
(1.40436e-09 0.000200707 0)
(1.08323e-09 0.000200707 0)
(8.36672e-10 0.000200707 0)
(6.08287e-10 0.000200707 0)
(4.19851e-10 0.000200707 0)
(2.41014e-10 0.000200707 0)
(8.10132e-11 0.000200707 0)
(-8.31684e-11 0.000200707 0)
(-2.42406e-10 0.000200707 0)
(-4.19701e-10 0.000200707 0)
(-6.10039e-10 0.000200707 0)
(-8.36567e-10 0.000200707 0)
(-1.08168e-09 0.000200707 0)
(-1.40542e-09 0.000200707 0)
(-1.74927e-09 0.000200707 0)
(-2.22859e-09 0.000200707 0)
(-2.73171e-09 0.000200707 0)
(-3.47562e-09 0.000200708 0)
(-4.21383e-09 0.000200708 0)
(-5.42167e-09 0.000200708 0)
(-6.54144e-09 0.000200708 0)
(-8.57941e-09 0.000200708 0)
(-1.03516e-08 0.000200708 0)
(-1.40104e-08 0.000200708 0)
(-1.69962e-08 0.000200708 0)
(-2.41005e-08 0.000200709 0)
(-2.97265e-08 0.000200709 0)
(-4.51208e-08 0.00020071 0)
(-5.76635e-08 0.000200712 0)
(-9.74296e-08 0.000200714 0)
(-1.33402e-07 0.000200723 0)
(-2.73984e-07 0.000200734 0)
(-4.31215e-07 0.000200815 0)
(-1.3316e-06 0.000200965 0)
(-2.72823e-06 0.000203439 0)
(-9.11895e-06 0.00020343 0)
(-7.5029e-06 0.000195118 0)
(6.61684e-06 4.34472e-05 0)
(8.29598e-06 5.23882e-05 0)
(2.85509e-06 5.24629e-05 0)
(1.42079e-06 4.98839e-05 0)
(4.76428e-07 4.97086e-05 0)
(3.0156e-07 4.96118e-05 0)
(1.48296e-07 4.95981e-05 0)
(1.07832e-07 4.95868e-05 0)
(6.41651e-08 4.95842e-05 0)
(5.00295e-08 4.95815e-05 0)
(3.30853e-08 4.95807e-05 0)
(2.67473e-08 4.95798e-05 0)
(1.89199e-08 4.95795e-05 0)
(1.55601e-08 4.95792e-05 0)
(1.15211e-08 4.9579e-05 0)
(9.53518e-09 4.95788e-05 0)
(7.282e-09 4.95788e-05 0)
(6.02785e-09 4.95787e-05 0)
(4.69308e-09 4.95786e-05 0)
(3.86749e-09 4.95786e-05 0)
(3.0414e-09 4.95786e-05 0)
(2.48243e-09 4.95785e-05 0)
(1.94924e-09 4.95785e-05 0)
(1.56376e-09 4.95785e-05 0)
(1.20694e-09 4.95785e-05 0)
(9.31924e-10 4.95785e-05 0)
(6.77888e-10 4.95785e-05 0)
(4.67855e-10 4.95785e-05 0)
(2.6874e-10 4.95785e-05 0)
(9.01528e-11 4.95785e-05 0)
(-9.23569e-11 4.95785e-05 0)
(-2.70221e-10 4.95785e-05 0)
(-4.67953e-10 4.95785e-05 0)
(-6.79491e-10 4.95785e-05 0)
(-9.31844e-10 4.95785e-05 0)
(-1.20558e-09 4.95785e-05 0)
(-1.56456e-09 4.95785e-05 0)
(-1.94852e-09 4.95785e-05 0)
(-2.4808e-09 4.95785e-05 0)
(-3.04161e-09 4.95786e-05 0)
(-3.8665e-09 4.95786e-05 0)
(-4.69186e-09 4.95786e-05 0)
(-6.02805e-09 4.95787e-05 0)
(-7.28194e-09 4.95788e-05 0)
(-9.53483e-09 4.95788e-05 0)
(-1.15225e-08 4.9579e-05 0)
(-1.5561e-08 4.95792e-05 0)
(-1.89192e-08 4.95795e-05 0)
(-2.67485e-08 4.95798e-05 0)
(-3.30871e-08 4.95807e-05 0)
(-5.00299e-08 4.95815e-05 0)
(-6.41657e-08 4.95842e-05 0)
(-1.07832e-07 4.95868e-05 0)
(-1.48296e-07 4.95981e-05 0)
(-3.01561e-07 4.96118e-05 0)
(-4.76428e-07 4.97086e-05 0)
(-1.42079e-06 4.98839e-05 0)
(-2.85509e-06 5.24629e-05 0)
(-8.29598e-06 5.23882e-05 0)
(-6.61685e-06 4.34472e-05 0)
(5.77593e-06 6.62568e-06 0)
(7.50337e-06 1.59927e-05 0)
(2.95957e-06 1.61361e-05 0)
(1.50257e-06 1.34701e-05 0)
(5.21564e-07 1.32677e-05 0)
(3.29146e-07 1.31541e-05 0)
(1.63509e-07 1.31374e-05 0)
(1.18408e-07 1.31238e-05 0)
(7.08411e-08 1.31205e-05 0)
(5.50464e-08 1.31173e-05 0)
(3.65418e-08 1.31163e-05 0)
(2.94607e-08 1.31152e-05 0)
(2.08991e-08 1.31148e-05 0)
(1.71513e-08 1.31144e-05 0)
(1.27271e-08 1.31142e-05 0)
(1.05167e-08 1.3114e-05 0)
(8.04494e-09 1.31139e-05 0)
(6.65179e-09 1.31138e-05 0)
(5.18557e-09 1.31137e-05 0)
(4.26998e-09 1.31137e-05 0)
(3.3612e-09 1.31136e-05 0)
(2.74219e-09 1.31136e-05 0)
(2.15489e-09 1.31136e-05 0)
(1.72814e-09 1.31136e-05 0)
(1.33463e-09 1.31136e-05 0)
(1.0302e-09 1.31135e-05 0)
(7.49762e-10 1.31135e-05 0)
(5.17414e-10 1.31135e-05 0)
(2.97389e-10 1.31135e-05 0)
(9.95918e-11 1.31135e-05 0)
(-1.01852e-10 1.31135e-05 0)
(-2.98954e-10 1.31135e-05 0)
(-5.17738e-10 1.31135e-05 0)
(-7.51234e-10 1.31135e-05 0)
(-1.03015e-09 1.31135e-05 0)
(-1.33345e-09 1.31136e-05 0)
(-1.7287e-09 1.31136e-05 0)
(-2.15407e-09 1.31136e-05 0)
(-2.74065e-09 1.31136e-05 0)
(-3.36117e-09 1.31137e-05 0)
(-4.26891e-09 1.31137e-05 0)
(-5.1845e-09 1.31137e-05 0)
(-6.65176e-09 1.31138e-05 0)
(-8.04481e-09 1.31139e-05 0)
(-1.05165e-08 1.3114e-05 0)
(-1.27282e-08 1.31142e-05 0)
(-1.71523e-08 1.31144e-05 0)
(-2.08985e-08 1.31148e-05 0)
(-2.94616e-08 1.31152e-05 0)
(-3.65437e-08 1.31163e-05 0)
(-5.5047e-08 1.31173e-05 0)
(-7.08415e-08 1.31205e-05 0)
(-1.18408e-07 1.31238e-05 0)
(-1.63508e-07 1.31374e-05 0)
(-3.29147e-07 1.31541e-05 0)
(-5.21564e-07 1.32677e-05 0)
(-1.50257e-06 1.34701e-05 0)
(-2.95957e-06 1.61361e-05 0)
(-7.50338e-06 1.59927e-05 0)
(-5.77594e-06 6.6257e-06 0)
(4.97924e-06 -3.00096e-06 0)
(6.74068e-06 6.70675e-06 0)
(3.04204e-06 6.9221e-06 0)
(1.57667e-06 4.18612e-06 0)
(5.66391e-07 3.95587e-06 0)
(3.56663e-07 3.82459e-06 0)
(1.79015e-07 3.80447e-06 0)
(1.29148e-07 3.78824e-06 0)
(7.76877e-08 3.78427e-06 0)
(6.01705e-08 3.78042e-06 0)
(4.00944e-08 3.77922e-06 0)
(3.22397e-08 3.77793e-06 0)
(2.29354e-08 3.77747e-06 0)
(1.87838e-08 3.77693e-06 0)
(1.39686e-08 3.77672e-06 0)
(1.1525e-08 3.77647e-06 0)
(8.83072e-09 3.77635e-06 0)
(7.29344e-09 3.77622e-06 0)
(5.69302e-09 3.77616e-06 0)
(4.68428e-09 3.77609e-06 0)
(3.69088e-09 3.77605e-06 0)
(3.00979e-09 3.776e-06 0)
(2.36702e-09 3.77598e-06 0)
(1.89762e-09 3.77595e-06 0)
(1.46641e-09 3.77594e-06 0)
(1.13159e-09 3.77592e-06 0)
(8.23972e-10 3.77591e-06 0)
(5.6857e-10 3.7759e-06 0)
(3.26987e-10 3.7759e-06 0)
(1.09339e-10 3.7759e-06 0)
(-1.11662e-10 3.7759e-06 0)
(-3.28626e-10 3.7759e-06 0)
(-5.691e-10 3.7759e-06 0)
(-8.2534e-10 3.77591e-06 0)
(-1.13158e-09 3.77592e-06 0)
(-1.46539e-09 3.77594e-06 0)
(-1.89795e-09 3.77595e-06 0)
(-2.36609e-09 3.77598e-06 0)
(-3.00834e-09 3.776e-06 0)
(-3.69062e-09 3.77605e-06 0)
(-4.68313e-09 3.77608e-06 0)
(-5.69209e-09 3.77616e-06 0)
(-7.2932e-09 3.77622e-06 0)
(-8.83051e-09 3.77635e-06 0)
(-1.1525e-08 3.77647e-06 0)
(-1.39696e-08 3.77672e-06 0)
(-1.87849e-08 3.77693e-06 0)
(-2.2935e-08 3.77747e-06 0)
(-3.22405e-08 3.77793e-06 0)
(-4.00964e-08 3.77922e-06 0)
(-6.01712e-08 3.78042e-06 0)
(-7.76879e-08 3.78427e-06 0)
(-1.29148e-07 3.78824e-06 0)
(-1.79014e-07 3.80447e-06 0)
(-3.56664e-07 3.82459e-06 0)
(-5.66391e-07 3.95587e-06 0)
(-1.57667e-06 4.18612e-06 0)
(-3.04204e-06 6.9221e-06 0)
(-6.74068e-06 6.70675e-06 0)
(-4.97925e-06 -3.00093e-06 0)
(4.22668e-06 -5.85482e-06 0)
(6.00833e-06 4.13929e-06 0)
(3.10298e-06 4.42938e-06 0)
(1.64286e-06 1.64032e-06 0)
(6.10667e-07 1.38176e-06 0)
(3.84024e-07 1.23192e-06 0)
(1.94784e-07 1.20799e-06 0)
(1.4004e-07 1.18891e-06 0)
(8.47008e-08 1.18415e-06 0)
(6.54004e-08 1.1796e-06 0)
(4.37431e-08 1.17816e-06 0)
(3.50847e-08 1.17663e-06 0)
(2.50293e-08 1.17607e-06 0)
(2.04582e-08 1.17544e-06 0)
(1.52462e-08 1.17518e-06 0)
(1.25606e-08 1.17488e-06 0)
(9.63977e-09 1.17474e-06 0)
(7.95318e-09 1.17459e-06 0)
(6.21576e-09 1.17451e-06 0)
(5.11068e-09 1.17443e-06 0)
(4.03067e-09 1.17438e-06 0)
(3.28545e-09 1.17433e-06 0)
(2.58579e-09 1.1743e-06 0)
(2.07234e-09 1.17427e-06 0)
(1.6024e-09 1.17425e-06 0)
(1.23619e-09 1.17423e-06 0)
(9.00589e-10 1.17422e-06 0)
(6.21371e-10 1.17421e-06 0)
(3.57558e-10 1.1742e-06 0)
(1.19411e-10 1.1742e-06 0)
(-1.21792e-10 1.1742e-06 0)
(-3.59271e-10 1.1742e-06 0)
(-6.22095e-10 1.17421e-06 0)
(-9.01873e-10 1.17422e-06 0)
(-1.23621e-09 1.17423e-06 0)
(-1.60153e-09 1.17425e-06 0)
(-2.07247e-09 1.17427e-06 0)
(-2.58476e-09 1.17429e-06 0)
(-3.28407e-09 1.17433e-06 0)
(-4.03021e-09 1.17438e-06 0)
(-5.10945e-09 1.17442e-06 0)
(-6.21497e-09 1.17451e-06 0)
(-7.95274e-09 1.17459e-06 0)
(-9.63948e-09 1.17474e-06 0)
(-1.25607e-08 1.17488e-06 0)
(-1.5247e-08 1.17518e-06 0)
(-2.04594e-08 1.17543e-06 0)
(-2.50291e-08 1.17607e-06 0)
(-3.50853e-08 1.17663e-06 0)
(-4.37452e-08 1.17816e-06 0)
(-6.54013e-08 1.1796e-06 0)
(-8.47008e-08 1.18415e-06 0)
(-1.4004e-07 1.18891e-06 0)
(-1.94784e-07 1.20799e-06 0)
(-3.84024e-07 1.23192e-06 0)
(-6.10668e-07 1.38176e-06 0)
(-1.64286e-06 1.64032e-06 0)
(-3.10298e-06 4.42938e-06 0)
(-6.00833e-06 4.13929e-06 0)
(-4.22668e-06 -5.8548e-06 0)
(3.51825e-06 -6.86775e-06 0)
(5.30693e-06 3.36675e-06 0)
(3.14294e-06 3.73391e-06 0)
(1.70092e-06 9.08369e-07 0)
(6.54143e-07 6.21303e-07 0)
(4.11136e-07 4.52177e-07 0)
(2.10783e-07 4.24053e-07 0)
(1.51071e-07 4.01865e-07 0)
(9.18752e-08 3.96221e-07 0)
(7.07342e-08 3.9089e-07 0)
(4.74874e-08 3.89182e-07 0)
(3.79959e-08 3.8738e-07 0)
(2.71813e-08 3.86719e-07 0)
(2.21751e-08 3.85973e-07 0)
(1.65603e-08 3.85669e-07 0)
(1.36239e-08 3.85317e-07 0)
(1.04725e-08 3.85156e-07 0)
(8.63139e-09 3.84974e-07 0)
(6.75412e-09 3.84881e-07 0)
(5.54945e-09 3.84779e-07 0)
(4.38082e-09 3.84722e-07 0)
(3.56936e-09 3.84664e-07 0)
(2.81137e-09 3.84627e-07 0)
(2.25244e-09 3.84592e-07 0)
(1.7427e-09 3.84569e-07 0)
(1.34409e-09 3.84548e-07 0)
(9.79681e-10 3.84534e-07 0)
(6.75861e-10 3.84523e-07 0)
(3.8913e-10 3.84516e-07 0)
(1.29808e-10 3.84513e-07 0)
(-1.32246e-10 3.84513e-07 0)
(-3.90912e-10 3.84515e-07 0)
(-6.76766e-10 3.84524e-07 0)
(-9.80899e-10 3.84534e-07 0)
(-1.34414e-09 3.84546e-07 0)
(-1.74196e-09 3.84569e-07 0)
(-2.25239e-09 3.84592e-07 0)
(-2.81023e-09 3.84626e-07 0)
(-3.56804e-09 3.84665e-07 0)
(-4.38017e-09 3.84724e-07 0)
(-5.54816e-09 3.84779e-07 0)
(-6.75345e-09 3.84882e-07 0)
(-8.63074e-09 3.84975e-07 0)
(-1.04721e-08 3.85155e-07 0)
(-1.36242e-08 3.85317e-07 0)
(-1.6561e-08 3.85669e-07 0)
(-2.21763e-08 3.85972e-07 0)
(-2.71813e-08 3.8672e-07 0)
(-3.79963e-08 3.87381e-07 0)
(-4.74895e-08 3.8918e-07 0)
(-7.07353e-08 3.9089e-07 0)
(-9.1875e-08 3.96222e-07 0)
(-1.51071e-07 4.01864e-07 0)
(-2.10782e-07 4.24054e-07 0)
(-4.11136e-07 4.52177e-07 0)
(-6.54144e-07 6.21302e-07 0)
(-1.70092e-06 9.0837e-07 0)
(-3.14294e-06 3.73391e-06 0)
(-5.30694e-06 3.36675e-06 0)
(-3.51825e-06 -6.86773e-06 0)
(2.85389e-06 -7.31955e-06 0)
(4.63707e-06 3.11186e-06 0)
(3.16258e-06 3.5579e-06 0)
(1.75069e-06 7.12103e-07 0)
(6.96562e-07 3.96644e-07 0)
(4.37901e-07 2.07642e-07 0)
(2.26973e-07 1.74927e-07 0)
(1.62224e-07 1.49376e-07 0)
(9.92047e-08 1.42743e-07 0)
(7.61694e-08 1.36558e-07 0)
(5.13264e-08 1.34546e-07 0)
(4.09732e-08 1.3245e-07 0)
(2.93915e-08 1.31671e-07 0)
(2.39348e-08 1.30803e-07 0)
(1.79114e-08 1.30444e-07 0)
(1.47155e-08 1.30034e-07 0)
(1.13293e-08 1.29844e-07 0)
(9.32841e-09 1.29633e-07 0)
(7.30841e-09 1.29523e-07 0)
(6.00089e-09 1.29404e-07 0)
(4.74155e-09 1.29337e-07 0)
(3.86171e-09 1.29269e-07 0)
(3.04393e-09 1.29225e-07 0)
(2.43807e-09 1.29184e-07 0)
(1.88744e-09 1.29157e-07 0)
(1.45537e-09 1.29133e-07 0)
(1.06132e-09 1.29117e-07 0)
(7.32091e-10 1.29104e-07 0)
(4.2173e-10 1.29096e-07 0)
(1.40542e-10 1.29092e-07 0)
(-1.43037e-10 1.29092e-07 0)
(-4.23582e-10 1.29095e-07 0)
(-7.33162e-10 1.29104e-07 0)
(-1.06249e-09 1.29117e-07 0)
(-1.45546e-09 1.29131e-07 0)
(-1.88682e-09 1.29157e-07 0)
(-2.43785e-09 1.29185e-07 0)
(-3.04268e-09 1.29224e-07 0)
(-3.86045e-09 1.2927e-07 0)
(-4.74074e-09 1.29339e-07 0)
(-5.99951e-09 1.29404e-07 0)
(-7.30783e-09 1.29524e-07 0)
(-9.32759e-09 1.29633e-07 0)
(-1.13288e-08 1.29843e-07 0)
(-1.47158e-08 1.30034e-07 0)
(-1.7912e-08 1.30444e-07 0)
(-2.3936e-08 1.30801e-07 0)
(-2.93917e-08 1.31672e-07 0)
(-4.09735e-08 1.32451e-07 0)
(-5.13286e-08 1.34544e-07 0)
(-7.61707e-08 1.36558e-07 0)
(-9.92044e-08 1.42744e-07 0)
(-1.62224e-07 1.49375e-07 0)
(-2.26972e-07 1.74928e-07 0)
(-4.37901e-07 2.07642e-07 0)
(-6.96562e-07 3.96643e-07 0)
(-1.75069e-06 7.12104e-07 0)
(-3.16258e-06 3.55791e-06 0)
(-4.63708e-06 3.11186e-06 0)
(-2.8539e-06 -7.31953e-06 0)
(2.23342e-06 -7.57512e-06 0)
(3.99925e-06 3.01093e-06 0)
(3.16265e-06 3.53713e-06 0)
(1.79201e-06 6.86847e-07 0)
(7.37661e-07 3.43403e-07 0)
(4.64214e-07 1.34078e-07 0)
(2.4331e-07 9.63808e-08 0)
(1.73482e-07 6.72085e-08 0)
(1.06682e-07 5.94777e-08 0)
(8.17029e-08 5.23598e-08 0)
(5.5259e-08 5.00088e-08 0)
(4.40164e-08 4.75906e-08 0)
(3.16602e-08 4.66796e-08 0)
(2.57376e-08 4.56766e-08 0)
(1.92999e-08 4.52565e-08 0)
(1.58356e-08 4.47826e-08 0)
(1.22106e-08 4.45606e-08 0)
(1.00446e-08 4.43157e-08 0)
(7.87893e-09 4.41877e-08 0)
(6.46524e-09 4.40505e-08 0)
(5.1131e-09 4.3972e-08 0)
(4.16272e-09 4.38925e-08 0)
(3.28362e-09 4.38423e-08 0)
(2.62936e-09 4.37945e-08 0)
(2.03672e-09 4.37629e-08 0)
(1.57014e-09 4.37345e-08 0)
(1.14558e-09 4.37162e-08 0)
(7.90111e-10 4.37013e-08 0)
(4.55392e-10 4.36918e-08 0)
(1.51623e-10 4.36877e-08 0)
(-1.54172e-10 4.3687e-08 0)
(-4.57307e-10 4.36904e-08 0)
(-7.91329e-10 4.37013e-08 0)
(-1.1467e-09 4.37161e-08 0)
(-1.57026e-09 4.37325e-08 0)
(-2.0362e-09 4.37631e-08 0)
(-2.62899e-09 4.3795e-08 0)
(-3.28228e-09 4.38411e-08 0)
(-4.1615e-09 4.38939e-08 0)
(-5.11214e-09 4.39734e-08 0)
(-6.46379e-09 4.40497e-08 0)
(-7.87844e-09 4.41884e-08 0)
(-1.00436e-08 4.43163e-08 0)
(-1.221e-08 4.45595e-08 0)
(-1.5836e-08 4.47828e-08 0)
(-1.93003e-08 4.52569e-08 0)
(-2.57389e-08 4.5675e-08 0)
(-3.16606e-08 4.66804e-08 0)
(-4.40166e-08 4.75915e-08 0)
(-5.52612e-08 5.00074e-08 0)
(-8.17043e-08 5.23598e-08 0)
(-1.06681e-07 5.94782e-08 0)
(-1.73482e-07 6.7207e-08 0)
(-2.4331e-07 9.63814e-08 0)
(-4.64214e-07 1.34079e-07 0)
(-7.37661e-07 3.43402e-07 0)
(-1.79201e-06 6.86848e-07 0)
(-3.16265e-06 3.53713e-06 0)
(-3.99926e-06 3.01093e-06 0)
(-2.23343e-06 -7.5751e-06 0)