/*--------------------------------*- C++ -*----------------------------------*\
| =========                 |                                                 |
| \\      /  F ield         | foam-extend: Open Source CFD                    |
|  \\    /   O peration     | Version:     4.0                                |
|   \\  /    A nd           | Web:         http://www.foam-extend.org         |
|    \\/     M anipulation  |                                                 |
\*---------------------------------------------------------------------------*/
FoamFile
{
    version     2.0;
    format      ascii;
    class       volScalarField;
    location    "1590";
    object      cMinus;
}
// * * * * * * * * * * * * * * * * * * * * * * * * * * * * * * * * * * * * * //

dimensions      [0 0 0 0 0 0 0];

internalField   nonuniform List<scalar> 
6960
(
1.40582e-20
1.40425e-20
1.4019e-20
1.40028e-20
1.39926e-20
1.39864e-20
1.39827e-20
1.39805e-20
1.39792e-20
1.39785e-20
1.39781e-20
1.3978e-20
1.39779e-20
1.3978e-20
1.39781e-20
1.39782e-20
1.39784e-20
1.39786e-20
1.39787e-20
1.39789e-20
1.39791e-20
1.39792e-20
1.39794e-20
1.39795e-20
1.39796e-20
1.39797e-20
1.39798e-20
1.39799e-20
1.39799e-20
1.39799e-20
1.39799e-20
1.39799e-20
1.39799e-20
1.39798e-20
1.39797e-20
1.39796e-20
1.39795e-20
1.39794e-20
1.39792e-20
1.39791e-20
1.39789e-20
1.39787e-20
1.39786e-20
1.39784e-20
1.39782e-20
1.39781e-20
1.3978e-20
1.39779e-20
1.3978e-20
1.39781e-20
1.39785e-20
1.39792e-20
1.39805e-20
1.39827e-20
1.39864e-20
1.39926e-20
1.40028e-20
1.4019e-20
1.40425e-20
1.40582e-20
7.54093e-20
7.53574e-20
7.52551e-20
7.51832e-20
7.51376e-20
7.51096e-20
7.50927e-20
7.50827e-20
7.50769e-20
7.50736e-20
7.50719e-20
7.50712e-20
7.50712e-20
7.50716e-20
7.50723e-20
7.50731e-20
7.5074e-20
7.5075e-20
7.5076e-20
7.50769e-20
7.50779e-20
7.50787e-20
7.50795e-20
7.50803e-20
7.50809e-20
7.50814e-20
7.50819e-20
7.50822e-20
7.50824e-20
7.50825e-20
7.50825e-20
7.50824e-20
7.50822e-20
7.50819e-20
7.50814e-20
7.50809e-20
7.50803e-20
7.50795e-20
7.50787e-20
7.50779e-20
7.50769e-20
7.5076e-20
7.5075e-20
7.5074e-20
7.50731e-20
7.50723e-20
7.50716e-20
7.50712e-20
7.50712e-20
7.50719e-20
7.50736e-20
7.50769e-20
7.50827e-20
7.50927e-20
7.51096e-20
7.51376e-20
7.51832e-20
7.52551e-20
7.53574e-20
7.54093e-20
3.88622e-19
3.88538e-19
3.8815e-19
3.87866e-19
3.87683e-19
3.87568e-19
3.87499e-19
3.87457e-19
3.87433e-19
3.87419e-19
3.87413e-19
3.87411e-19
3.87411e-19
3.87414e-19
3.87418e-19
3.87422e-19
3.87427e-19
3.87433e-19
3.87438e-19
3.87443e-19
3.87448e-19
3.87453e-19
3.87457e-19
3.87461e-19
3.87464e-19
3.87467e-19
3.87469e-19
3.87471e-19
3.87472e-19
3.87472e-19
3.87472e-19
3.87472e-19
3.87471e-19
3.87469e-19
3.87467e-19
3.87464e-19
3.87461e-19
3.87457e-19
3.87453e-19
3.87448e-19
3.87443e-19
3.87438e-19
3.87433e-19
3.87427e-19
3.87422e-19
3.87418e-19
3.87414e-19
3.87411e-19
3.87411e-19
3.87413e-19
3.87419e-19
3.87433e-19
3.87457e-19
3.87499e-19
3.87568e-19
3.87683e-19
3.87866e-19
3.8815e-19
3.88538e-19
3.88622e-19
2.04725e-18
2.04782e-18
2.04655e-18
2.04555e-18
2.04487e-18
2.04443e-18
2.04416e-18
2.04399e-18
2.0439e-18
2.04385e-18
2.04382e-18
2.04382e-18
2.04383e-18
2.04385e-18
2.04387e-18
2.0439e-18
2.04392e-18
2.04395e-18
2.04398e-18
2.04401e-18
2.04404e-18
2.04406e-18
2.04408e-18
2.0441e-18
2.04412e-18
2.04414e-18
2.04415e-18
2.04416e-18
2.04416e-18
2.04417e-18
2.04417e-18
2.04416e-18
2.04416e-18
2.04415e-18
2.04414e-18
2.04412e-18
2.0441e-18
2.04408e-18
2.04406e-18
2.04404e-18
2.04401e-18
2.04398e-18
2.04395e-18
2.04392e-18
2.0439e-18
2.04387e-18
2.04385e-18
2.04383e-18
2.04382e-18
2.04382e-18
2.04385e-18
2.0439e-18
2.04399e-18
2.04416e-18
2.04443e-18
2.04487e-18
2.04555e-18
2.04655e-18
2.04782e-18
2.04725e-18
1.11492e-17
1.11579e-17
1.11554e-17
1.11526e-17
1.11505e-17
1.11491e-17
1.11481e-17
1.11476e-17
1.11472e-17
1.1147e-17
1.1147e-17
1.1147e-17
1.11471e-17
1.11472e-17
1.11473e-17
1.11475e-17
1.11477e-17
1.11478e-17
1.1148e-17
1.11481e-17
1.11483e-17
1.11484e-17
1.11485e-17
1.11487e-17
1.11488e-17
1.11488e-17
1.11489e-17
1.1149e-17
1.1149e-17
1.1149e-17
1.1149e-17
1.1149e-17
1.1149e-17
1.11489e-17
1.11488e-17
1.11488e-17
1.11487e-17
1.11485e-17
1.11484e-17
1.11483e-17
1.11481e-17
1.1148e-17
1.11478e-17
1.11477e-17
1.11475e-17
1.11473e-17
1.11472e-17
1.11471e-17
1.1147e-17
1.1147e-17
1.1147e-17
1.11472e-17
1.11476e-17
1.11481e-17
1.11491e-17
1.11505e-17
1.11526e-17
1.11554e-17
1.11579e-17
1.11492e-17
6.28387e-17
6.29203e-17
6.29308e-17
6.2931e-17
6.29286e-17
6.29259e-17
6.29237e-17
6.29222e-17
6.29213e-17
6.2921e-17
6.2921e-17
6.29214e-17
6.2922e-17
6.29228e-17
6.29237e-17
6.29246e-17
6.29255e-17
6.29265e-17
6.29274e-17
6.29283e-17
6.29292e-17
6.293e-17
6.29307e-17
6.29313e-17
6.29319e-17
6.29324e-17
6.29327e-17
6.2933e-17
6.29332e-17
6.29333e-17
6.29333e-17
6.29332e-17
6.2933e-17
6.29327e-17
6.29324e-17
6.29319e-17
6.29313e-17
6.29307e-17
6.293e-17
6.29292e-17
6.29283e-17
6.29274e-17
6.29265e-17
6.29255e-17
6.29246e-17
6.29237e-17
6.29228e-17
6.2922e-17
6.29214e-17
6.2921e-17
6.2921e-17
6.29213e-17
6.29222e-17
6.29237e-17
6.29259e-17
6.29286e-17
6.2931e-17
6.29308e-17
6.29203e-17
6.28387e-17
3.66077e-16
3.66741e-16
3.66949e-16
3.67044e-16
3.67085e-16
3.67101e-16
3.67106e-16
3.67108e-16
3.67109e-16
3.67111e-16
3.67114e-16
3.67118e-16
3.67122e-16
3.67127e-16
3.67133e-16
3.67138e-16
3.67144e-16
3.6715e-16
3.67156e-16
3.67161e-16
3.67166e-16
3.67171e-16
3.67175e-16
3.67179e-16
3.67182e-16
3.67185e-16
3.67187e-16
3.67189e-16
3.6719e-16
3.67191e-16
3.67191e-16
3.6719e-16
3.67189e-16
3.67187e-16
3.67185e-16
3.67182e-16
3.67179e-16
3.67175e-16
3.67171e-16
3.67166e-16
3.67161e-16
3.67156e-16
3.6715e-16
3.67144e-16
3.67138e-16
3.67133e-16
3.67127e-16
3.67122e-16
3.67118e-16
3.67114e-16
3.67111e-16
3.67109e-16
3.67108e-16
3.67106e-16
3.67101e-16
3.67085e-16
3.67044e-16
3.66949e-16
3.66741e-16
3.66077e-16
2.19943e-15
2.20456e-15
2.20671e-15
2.20783e-15
2.20842e-15
2.20871e-15
2.20885e-15
2.20893e-15
2.20897e-15
2.20901e-15
2.20904e-15
2.20907e-15
2.2091e-15
2.20914e-15
2.20917e-15
2.20921e-15
2.20925e-15
2.20928e-15
2.20932e-15
2.20935e-15
2.20938e-15
2.20941e-15
2.20943e-15
2.20946e-15
2.20948e-15
2.20949e-15
2.20951e-15
2.20952e-15
2.20953e-15
2.20953e-15
2.20953e-15
2.20953e-15
2.20952e-15
2.20951e-15
2.20949e-15
2.20948e-15
2.20946e-15
2.20943e-15
2.20941e-15
2.20938e-15
2.20935e-15
2.20932e-15
2.20928e-15
2.20925e-15
2.20921e-15
2.20917e-15
2.20914e-15
2.2091e-15
2.20907e-15
2.20904e-15
2.20901e-15
2.20897e-15
2.20893e-15
2.20885e-15
2.20871e-15
2.20842e-15
2.20783e-15
2.20671e-15
2.20456e-15
2.19943e-15
1.35879e-14
1.36266e-14
1.36453e-14
1.36558e-14
1.36615e-14
1.36645e-14
1.36661e-14
1.36669e-14
1.36674e-14
1.36678e-14
1.36681e-14
1.36683e-14
1.36685e-14
1.36688e-14
1.3669e-14
1.36693e-14
1.36695e-14
1.36697e-14
1.36699e-14
1.36701e-14
1.36703e-14
1.36705e-14
1.36707e-14
1.36708e-14
1.3671e-14
1.36711e-14
1.36711e-14
1.36712e-14
1.36713e-14
1.36713e-14
1.36713e-14
1.36713e-14
1.36712e-14
1.36711e-14
1.36711e-14
1.3671e-14
1.36708e-14
1.36707e-14
1.36705e-14
1.36703e-14
1.36701e-14
1.36699e-14
1.36697e-14
1.36695e-14
1.36693e-14
1.3669e-14
1.36688e-14
1.36685e-14
1.36683e-14
1.36681e-14
1.36678e-14
1.36674e-14
1.36669e-14
1.36661e-14
1.36645e-14
1.36615e-14
1.36558e-14
1.36453e-14
1.36266e-14
1.35879e-14
8.59921e-14
8.62806e-14
8.64337e-14
8.65217e-14
8.65705e-14
8.65971e-14
8.66115e-14
8.66195e-14
8.66242e-14
8.66273e-14
8.66296e-14
8.66315e-14
8.66332e-14
8.66349e-14
8.66365e-14
8.66381e-14
8.66397e-14
8.66411e-14
8.66426e-14
8.66439e-14
8.66452e-14
8.66463e-14
8.66474e-14
8.66483e-14
8.66491e-14
8.66498e-14
8.66503e-14
8.66507e-14
8.6651e-14
8.66511e-14
8.66511e-14
8.6651e-14
8.66507e-14
8.66503e-14
8.66498e-14
8.66491e-14
8.66483e-14
8.66474e-14
8.66463e-14
8.66452e-14
8.66439e-14
8.66426e-14
8.66411e-14
8.66397e-14
8.66381e-14
8.66365e-14
8.66349e-14
8.66332e-14
8.66315e-14
8.66296e-14
8.66273e-14
8.66242e-14
8.66195e-14
8.66115e-14
8.65971e-14
8.65705e-14
8.65217e-14
8.64337e-14
8.62806e-14
8.59921e-14
5.54876e-13
5.57013e-13
5.58219e-13
5.58924e-13
5.59322e-13
5.59541e-13
5.59662e-13
5.59729e-13
5.59769e-13
5.59795e-13
5.59813e-13
5.59827e-13
5.5984e-13
5.59852e-13
5.59863e-13
5.59874e-13
5.59884e-13
5.59894e-13
5.59903e-13
5.59912e-13
5.5992e-13
5.59928e-13
5.59934e-13
5.5994e-13
5.59946e-13
5.5995e-13
5.59954e-13
5.59956e-13
5.59958e-13
5.59959e-13
5.59959e-13
5.59958e-13
5.59956e-13
5.59954e-13
5.5995e-13
5.59946e-13
5.5994e-13
5.59934e-13
5.59928e-13
5.5992e-13
5.59912e-13
5.59903e-13
5.59894e-13
5.59884e-13
5.59874e-13
5.59863e-13
5.59852e-13
5.5984e-13
5.59827e-13
5.59813e-13
5.59795e-13
5.59769e-13
5.59729e-13
5.59662e-13
5.59541e-13
5.59322e-13
5.58924e-13
5.58219e-13
5.57013e-13
5.54876e-13
3.62992e-12
3.64564e-12
3.6549e-12
3.66038e-12
3.66351e-12
3.66524e-12
3.66621e-12
3.66675e-12
3.66707e-12
3.66727e-12
3.66741e-12
3.66752e-12
3.66761e-12
3.6677e-12
3.66777e-12
3.66785e-12
3.66792e-12
3.66798e-12
3.66804e-12
3.6681e-12
3.66816e-12
3.66821e-12
3.66825e-12
3.66829e-12
3.66832e-12
3.66835e-12
3.66838e-12
3.66839e-12
3.66841e-12
3.66841e-12
3.66841e-12
3.66841e-12
3.66839e-12
3.66838e-12
3.66835e-12
3.66832e-12
3.66829e-12
3.66825e-12
3.66821e-12
3.66816e-12
3.6681e-12
3.66804e-12
3.66798e-12
3.66792e-12
3.66785e-12
3.66777e-12
3.6677e-12
3.66761e-12
3.66752e-12
3.66741e-12
3.66727e-12
3.66707e-12
3.66675e-12
3.66621e-12
3.66524e-12
3.66351e-12
3.66038e-12
3.6549e-12
3.64564e-12
3.62992e-12
2.3912e-11
2.40264e-11
2.4096e-11
2.41376e-11
2.41614e-11
2.41747e-11
2.41822e-11
2.41864e-11
2.41889e-11
2.41904e-11
2.41915e-11
2.41923e-11
2.4193e-11
2.41935e-11
2.41941e-11
2.41946e-11
2.4195e-11
2.41955e-11
2.41959e-11
2.41963e-11
2.41966e-11
2.4197e-11
2.41972e-11
2.41975e-11
2.41977e-11
2.41979e-11
2.41981e-11
2.41982e-11
2.41983e-11
2.41983e-11
2.41983e-11
2.41983e-11
2.41982e-11
2.41981e-11
2.41979e-11
2.41977e-11
2.41975e-11
2.41972e-11
2.4197e-11
2.41966e-11
2.41963e-11
2.41959e-11
2.41955e-11
2.4195e-11
2.41946e-11
2.41941e-11
2.41935e-11
2.4193e-11
2.41923e-11
2.41915e-11
2.41904e-11
2.41889e-11
2.41864e-11
2.41822e-11
2.41747e-11
2.41614e-11
2.41376e-11
2.4096e-11
2.40264e-11
2.3912e-11
1.57363e-10
1.58182e-10
1.58692e-10
1.58999e-10
1.59175e-10
1.59275e-10
1.5933e-10
1.59362e-10
1.59381e-10
1.59392e-10
1.594e-10
1.59406e-10
1.59411e-10
1.59415e-10
1.59418e-10
1.59422e-10
1.59425e-10
1.59428e-10
1.5943e-10
1.59433e-10
1.59435e-10
1.59438e-10
1.59439e-10
1.59441e-10
1.59443e-10
1.59444e-10
1.59445e-10
1.59446e-10
1.59446e-10
1.59446e-10
1.59446e-10
1.59446e-10
1.59446e-10
1.59445e-10
1.59444e-10
1.59443e-10
1.59441e-10
1.59439e-10
1.59438e-10
1.59435e-10
1.59433e-10
1.5943e-10
1.59428e-10
1.59425e-10
1.59422e-10
1.59418e-10
1.59415e-10
1.59411e-10
1.59406e-10
1.594e-10
1.59392e-10
1.59381e-10
1.59362e-10
1.5933e-10
1.59275e-10
1.59175e-10
1.58999e-10
1.58692e-10
1.58182e-10
1.57363e-10
1.02514e-09
1.03085e-09
1.03448e-09
1.03668e-09
1.03795e-09
1.03866e-09
1.03906e-09
1.03929e-09
1.03943e-09
1.03951e-09
1.03957e-09
1.03961e-09
1.03964e-09
1.03967e-09
1.03969e-09
1.03971e-09
1.03974e-09
1.03975e-09
1.03977e-09
1.03979e-09
1.0398e-09
1.03982e-09
1.03983e-09
1.03984e-09
1.03985e-09
1.03986e-09
1.03987e-09
1.03987e-09
1.03987e-09
1.03988e-09
1.03988e-09
1.03987e-09
1.03987e-09
1.03987e-09
1.03986e-09
1.03985e-09
1.03984e-09
1.03983e-09
1.03982e-09
1.0398e-09
1.03979e-09
1.03977e-09
1.03975e-09
1.03974e-09
1.03971e-09
1.03969e-09
1.03967e-09
1.03964e-09
1.03961e-09
1.03957e-09
1.03951e-09
1.03943e-09
1.03929e-09
1.03906e-09
1.03866e-09
1.03795e-09
1.03668e-09
1.03448e-09
1.03085e-09
1.02514e-09
6.54271e-09
6.58133e-09
6.60619e-09
6.62127e-09
6.63e-09
6.63494e-09
6.63773e-09
6.63931e-09
6.64025e-09
6.64083e-09
6.64121e-09
6.64149e-09
6.64171e-09
6.64189e-09
6.64204e-09
6.64219e-09
6.64232e-09
6.64244e-09
6.64256e-09
6.64266e-09
6.64276e-09
6.64284e-09
6.64292e-09
6.64299e-09
6.64305e-09
6.6431e-09
6.64314e-09
6.64317e-09
6.64319e-09
6.6432e-09
6.6432e-09
6.64319e-09
6.64317e-09
6.64314e-09
6.6431e-09
6.64305e-09
6.64299e-09
6.64292e-09
6.64284e-09
6.64276e-09
6.64266e-09
6.64256e-09
6.64244e-09
6.64232e-09
6.64219e-09
6.64204e-09
6.64189e-09
6.64171e-09
6.64149e-09
6.64121e-09
6.64083e-09
6.64025e-09
6.63931e-09
6.63773e-09
6.63494e-09
6.63e-09
6.62127e-09
6.60619e-09
6.58133e-09
6.54271e-09
4.04422e-08
4.06916e-08
4.08537e-08
4.09523e-08
4.10094e-08
4.10419e-08
4.10602e-08
4.10707e-08
4.10768e-08
4.10806e-08
4.10832e-08
4.10849e-08
4.10863e-08
4.10875e-08
4.10885e-08
4.10894e-08
4.10902e-08
4.10909e-08
4.10916e-08
4.10922e-08
4.10928e-08
4.10934e-08
4.10938e-08
4.10943e-08
4.10946e-08
4.10949e-08
4.10952e-08
4.10953e-08
4.10955e-08
4.10955e-08
4.10955e-08
4.10955e-08
4.10953e-08
4.10952e-08
4.10949e-08
4.10946e-08
4.10943e-08
4.10938e-08
4.10934e-08
4.10928e-08
4.10922e-08
4.10916e-08
4.10909e-08
4.10902e-08
4.10894e-08
4.10885e-08
4.10875e-08
4.10863e-08
4.10849e-08
4.10832e-08
4.10806e-08
4.10768e-08
4.10707e-08
4.10602e-08
4.10419e-08
4.10094e-08
4.09523e-08
4.08537e-08
4.06916e-08
4.04422e-08
2.39083e-07
2.40602e-07
2.41597e-07
2.42203e-07
2.42556e-07
2.42756e-07
2.42869e-07
2.42934e-07
2.42972e-07
2.42995e-07
2.43011e-07
2.43022e-07
2.4303e-07
2.43037e-07
2.43043e-07
2.43048e-07
2.43053e-07
2.43057e-07
2.43061e-07
2.43065e-07
2.43068e-07
2.43071e-07
2.43074e-07
2.43076e-07
2.43078e-07
2.4308e-07
2.43081e-07
2.43082e-07
2.43083e-07
2.43083e-07
2.43083e-07
2.43083e-07
2.43082e-07
2.43081e-07
2.4308e-07
2.43078e-07
2.43076e-07
2.43074e-07
2.43071e-07
2.43068e-07
2.43065e-07
2.43061e-07
2.43057e-07
2.43053e-07
2.43048e-07
2.43043e-07
2.43037e-07
2.4303e-07
2.43022e-07
2.43011e-07
2.42995e-07
2.42972e-07
2.42934e-07
2.42869e-07
2.42756e-07
2.42556e-07
2.42203e-07
2.41597e-07
2.40602e-07
2.39083e-07
1.33354e-06
1.34216e-06
1.34783e-06
1.35129e-06
1.3533e-06
1.35444e-06
1.35509e-06
1.35546e-06
1.35568e-06
1.35581e-06
1.3559e-06
1.35596e-06
1.35601e-06
1.35605e-06
1.35608e-06
1.35611e-06
1.35614e-06
1.35616e-06
1.35618e-06
1.3562e-06
1.35622e-06
1.35624e-06
1.35625e-06
1.35626e-06
1.35627e-06
1.35628e-06
1.35629e-06
1.3563e-06
1.3563e-06
1.3563e-06
1.3563e-06
1.3563e-06
1.3563e-06
1.35629e-06
1.35628e-06
1.35627e-06
1.35626e-06
1.35625e-06
1.35624e-06
1.35622e-06
1.3562e-06
1.35618e-06
1.35616e-06
1.35614e-06
1.35611e-06
1.35608e-06
1.35605e-06
1.35601e-06
1.35596e-06
1.3559e-06
1.35581e-06
1.35568e-06
1.35546e-06
1.35509e-06
1.35444e-06
1.3533e-06
1.35129e-06
1.34783e-06
1.34216e-06
1.33354e-06
6.91704e-06
6.96188e-06
6.99143e-06
7.00945e-06
7.01995e-06
7.02594e-06
7.02933e-06
7.03128e-06
7.03242e-06
7.03312e-06
7.03358e-06
7.0339e-06
7.03414e-06
7.03433e-06
7.0345e-06
7.03464e-06
7.03477e-06
7.03489e-06
7.035e-06
7.0351e-06
7.03519e-06
7.03527e-06
7.03534e-06
7.0354e-06
7.03546e-06
7.0355e-06
7.03554e-06
7.03557e-06
7.03559e-06
7.0356e-06
7.0356e-06
7.03559e-06
7.03557e-06
7.03554e-06
7.0355e-06
7.03546e-06
7.0354e-06
7.03534e-06
7.03527e-06
7.03519e-06
7.0351e-06
7.035e-06
7.03489e-06
7.03477e-06
7.03464e-06
7.0345e-06
7.03433e-06
7.03414e-06
7.0339e-06
7.03358e-06
7.03312e-06
7.03242e-06
7.03128e-06
7.02933e-06
7.02594e-06
7.01995e-06
7.00945e-06
6.99143e-06
6.96188e-06
6.91704e-06
3.2857e-05
3.30671e-05
3.32057e-05
3.32903e-05
3.33395e-05
3.33676e-05
3.33836e-05
3.33928e-05
3.33981e-05
3.34015e-05
3.34036e-05
3.34051e-05
3.34062e-05
3.34071e-05
3.34078e-05
3.34085e-05
3.34091e-05
3.34096e-05
3.34101e-05
3.34106e-05
3.3411e-05
3.34113e-05
3.34116e-05
3.34119e-05
3.34122e-05
3.34124e-05
3.34125e-05
3.34127e-05
3.34127e-05
3.34128e-05
3.34128e-05
3.34127e-05
3.34127e-05
3.34125e-05
3.34124e-05
3.34122e-05
3.34119e-05
3.34116e-05
3.34113e-05
3.3411e-05
3.34106e-05
3.34101e-05
3.34096e-05
3.34091e-05
3.34085e-05
3.34078e-05
3.34071e-05
3.34062e-05
3.34051e-05
3.34036e-05
3.34015e-05
3.33981e-05
3.33928e-05
3.33836e-05
3.33676e-05
3.33395e-05
3.32903e-05
3.32057e-05
3.30671e-05
3.2857e-05
0.000140626
0.000141498
0.000142072
0.000142423
0.000142627
0.000142743
0.00014281
0.000142848
0.00014287
0.000142884
0.000142893
0.000142899
0.000142903
0.000142907
0.00014291
0.000142913
0.000142915
0.000142917
0.000142919
0.000142921
0.000142923
0.000142924
0.000142925
0.000142926
0.000142927
0.000142928
0.000142929
0.000142929
0.00014293
0.00014293
0.00014293
0.00014293
0.000142929
0.000142929
0.000142928
0.000142927
0.000142926
0.000142925
0.000142924
0.000142923
0.000142921
0.000142919
0.000142917
0.000142915
0.000142913
0.00014291
0.000142907
0.000142903
0.000142899
0.000142893
0.000142884
0.00014287
0.000142848
0.00014281
0.000142743
0.000142627
0.000142423
0.000142072
0.000141498
0.000140626
0.000533078
0.000536213
0.000538272
0.000539527
0.00054026
0.000540678
0.000540916
0.000541053
0.000541134
0.000541183
0.000541215
0.000541237
0.000541253
0.000541266
0.000541276
0.000541286
0.000541294
0.000541301
0.000541308
0.000541314
0.000541319
0.000541324
0.000541329
0.000541333
0.000541336
0.000541339
0.000541341
0.000541343
0.000541344
0.000541344
0.000541344
0.000541344
0.000541343
0.000541341
0.000541339
0.000541336
0.000541333
0.000541329
0.000541324
0.000541319
0.000541314
0.000541308
0.000541301
0.000541294
0.000541286
0.000541276
0.000541266
0.000541253
0.000541237
0.000541215
0.000541183
0.000541134
0.000541053
0.000540916
0.000540678
0.00054026
0.000539527
0.000538272
0.000536213
0.000533078
0.00175848
0.00176804
0.00177429
0.0017781
0.00178033
0.0017816
0.00178232
0.00178274
0.00178298
0.00178313
0.00178323
0.00178329
0.00178334
0.00178338
0.00178341
0.00178344
0.00178346
0.00178349
0.00178351
0.00178352
0.00178354
0.00178355
0.00178357
0.00178358
0.00178359
0.0017836
0.0017836
0.00178361
0.00178361
0.00178361
0.00178361
0.00178361
0.00178361
0.0017836
0.0017836
0.00178359
0.00178358
0.00178357
0.00178355
0.00178354
0.00178352
0.00178351
0.00178349
0.00178346
0.00178344
0.00178341
0.00178338
0.00178334
0.00178329
0.00178323
0.00178313
0.00178298
0.00178274
0.00178232
0.0017816
0.00178033
0.0017781
0.00177429
0.00176804
0.00175848
0.00496519
0.00498938
0.00500512
0.00501469
0.00502029
0.00502349
0.00502531
0.00502636
0.00502698
0.00502735
0.0050276
0.00502776
0.00502789
0.00502798
0.00502806
0.00502813
0.00502819
0.00502824
0.00502829
0.00502833
0.00502837
0.0050284
0.00502844
0.00502846
0.00502849
0.0050285
0.00502852
0.00502853
0.00502854
0.00502854
0.00502854
0.00502854
0.00502853
0.00502852
0.0050285
0.00502849
0.00502846
0.00502844
0.0050284
0.00502837
0.00502833
0.00502829
0.00502824
0.00502819
0.00502813
0.00502806
0.00502798
0.00502789
0.00502776
0.0050276
0.00502735
0.00502698
0.00502636
0.00502531
0.00502349
0.00502029
0.00501469
0.00500512
0.00498938
0.00496519
0.0118607
0.0119107
0.0119431
0.0119628
0.0119742
0.0119808
0.0119846
0.0119867
0.011988
0.0119888
0.0119893
0.0119896
0.0119899
0.0119901
0.0119902
0.0119904
0.0119905
0.0119906
0.0119907
0.0119908
0.0119908
0.0119909
0.011991
0.011991
0.0119911
0.0119911
0.0119911
0.0119912
0.0119912
0.0119912
0.0119912
0.0119912
0.0119912
0.0119911
0.0119911
0.0119911
0.011991
0.011991
0.0119909
0.0119908
0.0119908
0.0119907
0.0119906
0.0119905
0.0119904
0.0119902
0.0119901
0.0119899
0.0119896
0.0119893
0.0119888
0.011988
0.0119867
0.0119846
0.0119808
0.0119742
0.0119628
0.0119431
0.0119107
0.0118607
0.0239336
0.0240183
0.0240726
0.0241056
0.0241249
0.0241359
0.0241423
0.0241459
0.024148
0.0241494
0.0241502
0.0241508
0.0241512
0.0241515
0.0241518
0.024152
0.0241522
0.0241524
0.0241525
0.0241526
0.0241528
0.0241529
0.024153
0.0241531
0.0241531
0.0241532
0.0241533
0.0241533
0.0241533
0.0241533
0.0241533
0.0241533
0.0241533
0.0241533
0.0241532
0.0241531
0.0241531
0.024153
0.0241529
0.0241528
0.0241526
0.0241525
0.0241524
0.0241522
0.024152
0.0241518
0.0241515
0.0241512
0.0241508
0.0241502
0.0241494
0.024148
0.0241459
0.0241423
0.0241359
0.0241249
0.0241056
0.0240726
0.0240183
0.0239336
0.0413133
0.0414332
0.0415097
0.041556
0.0415831
0.0415987
0.0416076
0.0416128
0.0416158
0.0416176
0.0416188
0.0416196
0.0416202
0.0416207
0.041621
0.0416213
0.0416216
0.0416218
0.041622
0.0416222
0.0416224
0.0416225
0.0416227
0.0416228
0.0416229
0.041623
0.041623
0.0416231
0.0416231
0.0416231
0.0416231
0.0416231
0.0416231
0.041623
0.041623
0.0416229
0.0416228
0.0416227
0.0416225
0.0416224
0.0416222
0.041622
0.0416218
0.0416216
0.0416213
0.041621
0.0416207
0.0416202
0.0416196
0.0416188
0.0416176
0.0416158
0.0416128
0.0416076
0.0415987
0.0415831
0.041556
0.0415097
0.0414332
0.0413133
0.0625625
0.0627114
0.0628056
0.0628627
0.0628961
0.0629153
0.0629263
0.0629327
0.0629365
0.0629388
0.0629403
0.0629412
0.062942
0.0629425
0.0629429
0.0629433
0.0629436
0.0629439
0.0629441
0.0629444
0.0629446
0.0629447
0.0629449
0.062945
0.0629452
0.0629453
0.0629453
0.0629454
0.0629454
0.0629454
0.0629454
0.0629454
0.0629454
0.0629453
0.0629453
0.0629452
0.062945
0.0629449
0.0629447
0.0629446
0.0629444
0.0629441
0.0629439
0.0629436
0.0629433
0.0629429
0.0629425
0.062942
0.0629412
0.0629403
0.0629388
0.0629365
0.0629327
0.0629263
0.0629153
0.0628961
0.0628627
0.0628056
0.0627114
0.0625625
0.0857343
0.0859046
0.0860116
0.0860765
0.0861145
0.0861364
0.086149
0.0861563
0.0861607
0.0861633
0.086165
0.0861661
0.0861669
0.0861675
0.086168
0.0861684
0.0861688
0.0861691
0.0861694
0.0861696
0.0861698
0.08617
0.0861702
0.0861703
0.0861705
0.0861706
0.0861706
0.0861707
0.0861707
0.0861708
0.0861708
0.0861707
0.0861707
0.0861706
0.0861706
0.0861705
0.0861703
0.0861702
0.08617
0.0861698
0.0861696
0.0861694
0.0861691
0.0861688
0.0861684
0.086168
0.0861675
0.0861669
0.0861661
0.086165
0.0861633
0.0861607
0.0861563
0.086149
0.0861364
0.0861145
0.0860765
0.0860116
0.0859046
0.0857343
0.109439
0.109625
0.109742
0.109813
0.109855
0.109879
0.109893
0.109901
0.109905
0.109908
0.10991
0.109912
0.109912
0.109913
0.109914
0.109914
0.109914
0.109915
0.109915
0.109915
0.109915
0.109916
0.109916
0.109916
0.109916
0.109916
0.109916
0.109916
0.109916
0.109916
0.109916
0.109916
0.109916
0.109916
0.109916
0.109916
0.109916
0.109916
0.109916
0.109915
0.109915
0.109915
0.109915
0.109914
0.109914
0.109914
0.109913
0.109912
0.109912
0.10991
0.109908
0.109905
0.109901
0.109893
0.109879
0.109855
0.109813
0.109742
0.109625
0.109439
0.133059
0.13326
0.133385
0.133462
0.133506
0.133532
0.133548
0.133556
0.133562
0.133565
0.133567
0.133568
0.133569
0.13357
0.13357
0.133571
0.133571
0.133571
0.133572
0.133572
0.133572
0.133572
0.133573
0.133573
0.133573
0.133573
0.133573
0.133573
0.133573
0.133573
0.133573
0.133573
0.133573
0.133573
0.133573
0.133573
0.133573
0.133573
0.133572
0.133572
0.133572
0.133572
0.133571
0.133571
0.133571
0.13357
0.13357
0.133569
0.133568
0.133567
0.133565
0.133562
0.133556
0.133548
0.133532
0.133506
0.133462
0.133385
0.13326
0.133059
0.156445
0.15666
0.156794
0.156875
0.156923
0.156951
0.156968
0.156977
0.156983
0.156986
0.156988
0.15699
0.156991
0.156992
0.156992
0.156993
0.156993
0.156993
0.156994
0.156994
0.156994
0.156994
0.156995
0.156995
0.156995
0.156995
0.156995
0.156995
0.156995
0.156995
0.156995
0.156995
0.156995
0.156995
0.156995
0.156995
0.156995
0.156995
0.156994
0.156994
0.156994
0.156994
0.156993
0.156993
0.156993
0.156992
0.156992
0.156991
0.15699
0.156988
0.156986
0.156983
0.156977
0.156968
0.156951
0.156923
0.156875
0.156794
0.15666
0.156445
0.17961
0.179838
0.17998
0.180067
0.180118
0.180149
0.180166
0.180176
0.180182
0.180186
0.180189
0.18019
0.180191
0.180192
0.180193
0.180193
0.180194
0.180194
0.180194
0.180195
0.180195
0.180195
0.180195
0.180195
0.180196
0.180196
0.180196
0.180196
0.180196
0.180196
0.180196
0.180196
0.180196
0.180196
0.180196
0.180196
0.180195
0.180195
0.180195
0.180195
0.180195
0.180194
0.180194
0.180194
0.180193
0.180193
0.180192
0.180191
0.18019
0.180189
0.180186
0.180182
0.180176
0.180166
0.180149
0.180118
0.180067
0.17998
0.179838
0.17961
0.202585
0.202825
0.202976
0.203068
0.203123
0.203156
0.203174
0.203185
0.203192
0.203196
0.203199
0.2032
0.203202
0.203202
0.203203
0.203204
0.203204
0.203204
0.203205
0.203205
0.203205
0.203206
0.203206
0.203206
0.203206
0.203206
0.203206
0.203206
0.203206
0.203206
0.203206
0.203206
0.203206
0.203206
0.203206
0.203206
0.203206
0.203206
0.203206
0.203205
0.203205
0.203205
0.203204
0.203204
0.203204
0.203203
0.203202
0.203202
0.2032
0.203199
0.203196
0.203192
0.203185
0.203174
0.203156
0.203123
0.203068
0.202976
0.202825
0.202585
0.225383
0.225636
0.225795
0.225892
0.225951
0.225985
0.226005
0.226017
0.226024
0.226029
0.226032
0.226033
0.226035
0.226036
0.226036
0.226037
0.226037
0.226038
0.226038
0.226038
0.226039
0.226039
0.226039
0.226039
0.226039
0.226039
0.226039
0.22604
0.22604
0.22604
0.22604
0.22604
0.22604
0.226039
0.226039
0.226039
0.226039
0.226039
0.226039
0.226039
0.226038
0.226038
0.226038
0.226037
0.226037
0.226036
0.226036
0.226035
0.226033
0.226032
0.226029
0.226024
0.226017
0.226005
0.225985
0.225951
0.225892
0.225795
0.225636
0.225383
0.248001
0.248265
0.248431
0.248534
0.248596
0.248633
0.248655
0.248667
0.248675
0.24868
0.248683
0.248685
0.248686
0.248687
0.248688
0.248689
0.248689
0.248689
0.24869
0.24869
0.24869
0.248691
0.248691
0.248691
0.248691
0.248691
0.248691
0.248691
0.248691
0.248691
0.248691
0.248691
0.248691
0.248691
0.248691
0.248691
0.248691
0.248691
0.248691
0.24869
0.24869
0.24869
0.248689
0.248689
0.248689
0.248688
0.248687
0.248686
0.248685
0.248683
0.24868
0.248675
0.248667
0.248655
0.248633
0.248596
0.248534
0.248431
0.248265
0.248001
0.270424
0.270699
0.270873
0.270981
0.271047
0.271086
0.271109
0.271123
0.271131
0.271136
0.271139
0.271141
0.271143
0.271144
0.271145
0.271145
0.271146
0.271146
0.271146
0.271147
0.271147
0.271147
0.271148
0.271148
0.271148
0.271148
0.271148
0.271148
0.271148
0.271148
0.271148
0.271148
0.271148
0.271148
0.271148
0.271148
0.271148
0.271148
0.271147
0.271147
0.271147
0.271146
0.271146
0.271146
0.271145
0.271145
0.271144
0.271143
0.271141
0.271139
0.271136
0.271131
0.271123
0.271109
0.271086
0.271047
0.270981
0.270873
0.270699
0.270424
0.292635
0.29292
0.293102
0.293215
0.293284
0.293325
0.29335
0.293365
0.293373
0.293379
0.293382
0.293385
0.293386
0.293387
0.293388
0.293389
0.293389
0.29339
0.29339
0.29339
0.293391
0.293391
0.293391
0.293391
0.293391
0.293392
0.293392
0.293392
0.293392
0.293392
0.293392
0.293392
0.293392
0.293392
0.293392
0.293391
0.293391
0.293391
0.293391
0.293391
0.29339
0.29339
0.29339
0.293389
0.293389
0.293388
0.293387
0.293386
0.293385
0.293382
0.293379
0.293373
0.293365
0.29335
0.293325
0.293284
0.293215
0.293102
0.29292
0.292635
0.314615
0.314908
0.315097
0.315216
0.315288
0.315332
0.315358
0.315374
0.315383
0.315389
0.315393
0.315395
0.315397
0.315398
0.315399
0.3154
0.3154
0.315401
0.315401
0.315401
0.315402
0.315402
0.315402
0.315402
0.315402
0.315402
0.315403
0.315403
0.315403
0.315403
0.315403
0.315403
0.315403
0.315403
0.315402
0.315402
0.315402
0.315402
0.315402
0.315402
0.315401
0.315401
0.315401
0.3154
0.3154
0.315399
0.315398
0.315397
0.315395
0.315393
0.315389
0.315383
0.315374
0.315358
0.315332
0.315288
0.315216
0.315097
0.314908
0.314615
0.336343
0.336644
0.33684
0.336963
0.337039
0.337085
0.337113
0.33713
0.33714
0.337146
0.33715
0.337153
0.337155
0.337156
0.337157
0.337158
0.337158
0.337159
0.337159
0.337159
0.33716
0.33716
0.33716
0.33716
0.33716
0.337161
0.337161
0.337161
0.337161
0.337161
0.337161
0.337161
0.337161
0.337161
0.337161
0.33716
0.33716
0.33716
0.33716
0.33716
0.337159
0.337159
0.337159
0.337158
0.337158
0.337157
0.337156
0.337155
0.337153
0.33715
0.337146
0.33714
0.33713
0.337113
0.337085
0.337039
0.336963
0.33684
0.336644
0.336343
0.357799
0.358108
0.35831
0.358439
0.358518
0.358566
0.358596
0.358614
0.358624
0.358631
0.358635
0.358638
0.35864
0.358642
0.358643
0.358643
0.358644
0.358644
0.358645
0.358645
0.358645
0.358646
0.358646
0.358646
0.358646
0.358646
0.358646
0.358646
0.358646
0.358646
0.358646
0.358646
0.358646
0.358646
0.358646
0.358646
0.358646
0.358646
0.358646
0.358645
0.358645
0.358645
0.358644
0.358644
0.358643
0.358643
0.358642
0.35864
0.358638
0.358635
0.358631
0.358624
0.358614
0.358596
0.358566
0.358518
0.358439
0.35831
0.358108
0.357799
0.378965
0.379281
0.37949
0.379623
0.379705
0.379756
0.379787
0.379806
0.379818
0.379825
0.379829
0.379832
0.379834
0.379836
0.379837
0.379838
0.379838
0.379839
0.379839
0.37984
0.37984
0.37984
0.37984
0.37984
0.379841
0.379841
0.379841
0.379841
0.379841
0.379841
0.379841
0.379841
0.379841
0.379841
0.379841
0.379841
0.37984
0.37984
0.37984
0.37984
0.37984
0.379839
0.379839
0.379838
0.379838
0.379837
0.379836
0.379834
0.379832
0.379829
0.379825
0.379818
0.379806
0.379787
0.379756
0.379705
0.379623
0.37949
0.379281
0.378965
0.399824
0.400146
0.40036
0.400497
0.400583
0.400637
0.400669
0.400689
0.400702
0.400709
0.400714
0.400718
0.40072
0.400721
0.400722
0.400723
0.400724
0.400724
0.400725
0.400725
0.400725
0.400726
0.400726
0.400726
0.400726
0.400726
0.400726
0.400726
0.400726
0.400726
0.400726
0.400726
0.400726
0.400726
0.400726
0.400726
0.400726
0.400726
0.400726
0.400725
0.400725
0.400725
0.400724
0.400724
0.400723
0.400722
0.400721
0.40072
0.400718
0.400714
0.400709
0.400702
0.400689
0.400669
0.400637
0.400583
0.400497
0.40036
0.400146
0.399824
0.420358
0.420685
0.420904
0.421046
0.421136
0.421191
0.421226
0.421247
0.42126
0.421268
0.421273
0.421277
0.421279
0.421281
0.421282
0.421283
0.421283
0.421284
0.421284
0.421285
0.421285
0.421285
0.421286
0.421286
0.421286
0.421286
0.421286
0.421286
0.421286
0.421286
0.421286
0.421286
0.421286
0.421286
0.421286
0.421286
0.421286
0.421286
0.421285
0.421285
0.421285
0.421284
0.421284
0.421283
0.421283
0.421282
0.421281
0.421279
0.421277
0.421273
0.421268
0.42126
0.421247
0.421226
0.421191
0.421136
0.421046
0.420904
0.420685
0.420358
0.440552
0.440884
0.441107
0.441253
0.441346
0.441404
0.44144
0.441463
0.441477
0.441486
0.441491
0.441495
0.441497
0.441499
0.4415
0.441501
0.441502
0.441502
0.441503
0.441503
0.441504
0.441504
0.441504
0.441504
0.441504
0.441504
0.441505
0.441505
0.441505
0.441505
0.441505
0.441505
0.441505
0.441505
0.441504
0.441504
0.441504
0.441504
0.441504
0.441504
0.441503
0.441503
0.441502
0.441502
0.441501
0.4415
0.441499
0.441497
0.441495
0.441491
0.441486