/*--------------------------------*- C++ -*----------------------------------*\
| =========                 |                                                 |
| \\      /  F ield         | foam-extend: Open Source CFD                    |
|  \\    /   O peration     | Version:     4.0                                |
|   \\  /    A nd           | Web:         http://www.foam-extend.org         |
|    \\/     M anipulation  |                                                 |
\*---------------------------------------------------------------------------*/
FoamFile
{
    version     2.0;
    format      ascii;
    class       volScalarField;
    location    "1230";
    object      psiE;
}
// * * * * * * * * * * * * * * * * * * * * * * * * * * * * * * * * * * * * * //

dimensions      [0 0 0 0 0 0 0];

internalField   nonuniform List<scalar> 
6960
(
0.35211
0.352122
0.352135
0.352148
0.352159
0.352169
0.352177
0.352184
0.352189
0.352194
0.352198
0.352201
0.352203
0.352206
0.352207
0.352209
0.35221
0.352211
0.352212
0.352212
0.352213
0.352213
0.352214
0.352214
0.352214
0.352214
0.352214
0.352215
0.352215
0.352215
0.352215
0.352215
0.352215
0.352214
0.352214
0.352214
0.352214
0.352214
0.352213
0.352213
0.352212
0.352212
0.352211
0.35221
0.352209
0.352207
0.352206
0.352203
0.352201
0.352198
0.352194
0.352189
0.352184
0.352177
0.352169
0.352159
0.352148
0.352135
0.352122
0.35211
0.905698
0.905746
0.905801
0.905852
0.905898
0.905936
0.905969
0.905996
0.906019
0.906038
0.906053
0.906066
0.906076
0.906085
0.906092
0.906097
0.906102
0.906106
0.906109
0.906111
0.906113
0.906115
0.906116
0.906117
0.906118
0.906119
0.906119
0.90612
0.90612
0.90612
0.90612
0.90612
0.90612
0.906119
0.906119
0.906118
0.906117
0.906116
0.906115
0.906113
0.906111
0.906109
0.906106
0.906102
0.906097
0.906092
0.906085
0.906076
0.906066
0.906053
0.906038
0.906019
0.905996
0.905969
0.905936
0.905898
0.905852
0.905801
0.905746
0.905698
1.42478
1.42487
1.42498
1.42508
1.42516
1.42524
1.4253
1.42536
1.4254
1.42544
1.42547
1.42549
1.42551
1.42553
1.42554
1.42555
1.42556
1.42557
1.42557
1.42558
1.42558
1.42558
1.42559
1.42559
1.42559
1.42559
1.42559
1.42559
1.42559
1.42559
1.42559
1.42559
1.42559
1.42559
1.42559
1.42559
1.42559
1.42559
1.42558
1.42558
1.42558
1.42557
1.42557
1.42556
1.42555
1.42554
1.42553
1.42551
1.42549
1.42547
1.42544
1.4254
1.42536
1.4253
1.42524
1.42516
1.42508
1.42498
1.42487
1.42478
1.93948
1.93963
1.93979
1.93994
1.94008
1.94019
1.94029
1.94037
1.94044
1.9405
1.94054
1.94058
1.94061
1.94064
1.94066
1.94067
1.94069
1.9407
1.94071
1.94071
1.94072
1.94073
1.94073
1.94073
1.94073
1.94074
1.94074
1.94074
1.94074
1.94074
1.94074
1.94074
1.94074
1.94074
1.94074
1.94073
1.94073
1.94073
1.94073
1.94072
1.94071
1.94071
1.9407
1.94069
1.94067
1.94066
1.94064
1.94061
1.94058
1.94054
1.9405
1.94044
1.94037
1.94029
1.94019
1.94008
1.93994
1.93979
1.93963
1.93948
2.45966
2.45986
2.46008
2.46029
2.46048
2.46064
2.46077
2.46088
2.46097
2.46105
2.46111
2.46117
2.46121
2.46124
2.46127
2.46129
2.46131
2.46133
2.46134
2.46135
2.46136
2.46136
2.46137
2.46137
2.46138
2.46138
2.46138
2.46138
2.46138
2.46138
2.46138
2.46138
2.46138
2.46138
2.46138
2.46138
2.46137
2.46137
2.46136
2.46136
2.46135
2.46134
2.46133
2.46131
2.46129
2.46127
2.46124
2.46121
2.46117
2.46111
2.46105
2.46097
2.46088
2.46077
2.46064
2.46048
2.46029
2.46008
2.45986
2.45966
2.98859
2.98884
2.98913
2.9894
2.98963
2.98984
2.99001
2.99015
2.99027
2.99037
2.99045
2.99051
2.99057
2.99061
2.99065
2.99068
2.9907
2.99072
2.99073
2.99075
2.99076
2.99076
2.99077
2.99078
2.99078
2.99079
2.99079
2.99079
2.99079
2.99079
2.99079
2.99079
2.99079
2.99079
2.99079
2.99078
2.99078
2.99077
2.99076
2.99076
2.99075
2.99073
2.99072
2.9907
2.99068
2.99065
2.99061
2.99057
2.99051
2.99045
2.99037
2.99027
2.99015
2.99001
2.98984
2.98963
2.9894
2.98913
2.98884
2.98859
3.52731
3.52762
3.52797
3.5283
3.52859
3.52883
3.52904
3.52922
3.52936
3.52948
3.52958
3.52966
3.52973
3.52978
3.52982
3.52986
3.52989
3.52991
3.52993
3.52994
3.52996
3.52997
3.52998
3.52998
3.52999
3.52999
3.53
3.53
3.53
3.53
3.53
3.53
3.53
3.53
3.52999
3.52999
3.52998
3.52998
3.52997
3.52996
3.52994
3.52993
3.52991
3.52989
3.52986
3.52982
3.52978
3.52973
3.52966
3.52958
3.52948
3.52936
3.52922
3.52904
3.52883
3.52859
3.5283
3.52797
3.52762
3.52731
4.0761
4.07647
4.07688
4.07726
4.0776
4.0779
4.07814
4.07835
4.07852
4.07866
4.07878
4.07888
4.07895
4.07902
4.07907
4.07911
4.07914
4.07917
4.07919
4.07921
4.07923
4.07924
4.07925
4.07926
4.07926
4.07927
4.07927
4.07927
4.07928
4.07928
4.07928
4.07928
4.07927
4.07927
4.07927
4.07926
4.07926
4.07925
4.07924
4.07923
4.07921
4.07919
4.07917
4.07914
4.07911
4.07907
4.07902
4.07895
4.07888
4.07878
4.07866
4.07852
4.07835
4.07814
4.0779
4.0776
4.07726
4.07688
4.07647
4.0761
4.63495
4.63537
4.63584
4.63629
4.63668
4.63702
4.63731
4.63755
4.63774
4.63791
4.63804
4.63815
4.63824
4.63831
4.63837
4.63842
4.63846
4.63849
4.63852
4.63854
4.63856
4.63857
4.63858
4.63859
4.6386
4.6386
4.63861
4.63861
4.63861
4.63861
4.63861
4.63861
4.63861
4.63861
4.6386
4.6386
4.63859
4.63858
4.63857
4.63856
4.63854
4.63852
4.63849
4.63846
4.63842
4.63837
4.63831
4.63824
4.63815
4.63804
4.63791
4.63774
4.63755
4.63731
4.63702
4.63668
4.63629
4.63584
4.63537
4.63495
5.20374
5.20421
5.20475
5.20525
5.2057
5.20608
5.20641
5.20668
5.2069
5.20709
5.20724
5.20736
5.20746
5.20755
5.20762
5.20767
5.20771
5.20775
5.20778
5.2078
5.20782
5.20784
5.20785
5.20786
5.20787
5.20788
5.20788
5.20789
5.20789
5.20789
5.20789
5.20789
5.20789
5.20788
5.20788
5.20787
5.20786
5.20785
5.20784
5.20782
5.2078
5.20778
5.20775
5.20771
5.20767
5.20762
5.20755
5.20746
5.20736
5.20724
5.20709
5.2069
5.20668
5.20641
5.20608
5.2057
5.20525
5.20475
5.20421
5.20374
5.78227
5.78279
5.7834
5.78396
5.78446
5.78489
5.78525
5.78556
5.78581
5.78601
5.78618
5.78632
5.78644
5.78653
5.78661
5.78667
5.78672
5.78676
5.78679
5.78682
5.78684
5.78686
5.78687
5.78688
5.78689
5.7869
5.78691
5.78691
5.78691
5.78691
5.78691
5.78691
5.78691
5.78691
5.7869
5.78689
5.78688
5.78687
5.78686
5.78684
5.78682
5.78679
5.78676
5.78672
5.78667
5.78661
5.78653
5.78644
5.78632
5.78618
5.78601
5.78581
5.78556
5.78525
5.78489
5.78446
5.78396
5.7834
5.78279
5.78227
6.37031
6.37089
6.37155
6.37218
6.37273
6.3732
6.3736
6.37394
6.37422
6.37445
6.37463
6.37479
6.37491
6.37502
6.3751
6.37517
6.37522
6.37527
6.37531
6.37533
6.37536
6.37538
6.37539
6.37541
6.37542
6.37543
6.37543
6.37544
6.37544
6.37544
6.37544
6.37544
6.37544
6.37543
6.37543
6.37542
6.37541
6.37539
6.37538
6.37536
6.37533
6.37531
6.37527
6.37522
6.37517
6.3751
6.37502
6.37491
6.37479
6.37463
6.37445
6.37422
6.37394
6.3736
6.3732
6.37273
6.37218
6.37155
6.37089
6.37031
6.96755
6.96818
6.96891
6.9696
6.9702
6.97072
6.97116
6.97153
6.97183
6.97208
6.97229
6.97246
6.9726
6.97271
6.9728
6.97287
6.97294
6.97298
6.97302
6.97306
6.97308
6.97311
6.97312
6.97314
6.97315
6.97316
6.97316
6.97317
6.97317
6.97317
6.97317
6.97317
6.97317
6.97316
6.97316
6.97315
6.97314
6.97312
6.97311
6.97308
6.97306
6.97302
6.97298
6.97294
6.97287
6.9728
6.97271
6.9726
6.97246
6.97229
6.97208
6.97183
6.97153
6.97116
6.97072
6.9702
6.9696
6.96891
6.96818
6.96755
7.57365
7.57433
7.57513
7.57587
7.57653
7.57709
7.57757
7.57796
7.57829
7.57857
7.57879
7.57898
7.57913
7.57925
7.57935
7.57943
7.57949
7.57955
7.57959
7.57963
7.57966
7.57968
7.5797
7.57971
7.57973
7.57974
7.57974
7.57975
7.57975
7.57975
7.57975
7.57975
7.57975
7.57974
7.57974
7.57973
7.57971
7.5797
7.57968
7.57966
7.57963
7.57959
7.57955
7.57949
7.57943
7.57935
7.57925
7.57913
7.57898
7.57879
7.57857
7.57829
7.57796
7.57757
7.57709
7.57653
7.57587
7.57513
7.57433
7.57365
8.18817
8.18891
8.18976
8.19056
8.19127
8.19188
8.19239
8.19282
8.19318
8.19347
8.19372
8.19391
8.19408
8.19421
8.19431
8.1944
8.19447
8.19453
8.19458
8.19462
8.19465
8.19467
8.19469
8.19471
8.19472
8.19473
8.19474
8.19475
8.19475
8.19475
8.19475
8.19475
8.19475
8.19474
8.19473
8.19472
8.19471
8.19469
8.19467
8.19465
8.19462
8.19458
8.19453
8.19447
8.1944
8.19431
8.19421
8.19408
8.19391
8.19372
8.19347
8.19318
8.19282
8.19239
8.19188
8.19127
8.19056
8.18976
8.18891
8.18817
8.81062
8.81141
8.81233
8.81318
8.81394
8.81459
8.81514
8.8156
8.81599
8.8163
8.81656
8.81677
8.81695
8.81709
8.8172
8.8173
8.81737
8.81743
8.81749
8.81753
8.81756
8.81759
8.81761
8.81763
8.81764
8.81765
8.81766
8.81767
8.81767
8.81767
8.81767
8.81767
8.81767
8.81766
8.81765
8.81764
8.81763
8.81761
8.81759
8.81756
8.81753
8.81749
8.81743
8.81737
8.8173
8.8172
8.81709
8.81695
8.81677
8.81656
8.8163
8.81599
8.8156
8.81514
8.81459
8.81394
8.81318
8.81233
8.81141
8.81062
9.44041
9.44126
9.44223
9.44315
9.44395
9.44465
9.44523
9.44572
9.44613
9.44647
9.44674
9.44697
9.44715
9.4473
9.44743
9.44753
9.44761
9.44767
9.44773
9.44777
9.44781
9.44784
9.44786
9.44788
9.4479
9.44791
9.44792
9.44792
9.44793
9.44793
9.44793
9.44793
9.44792
9.44792
9.44791
9.4479
9.44788
9.44786
9.44784
9.44781
9.44777
9.44773
9.44767
9.44761
9.44753
9.44743
9.4473
9.44715
9.44697
9.44674
9.44647
9.44613
9.44572
9.44523
9.44465
9.44395
9.44315
9.44223
9.44126
9.44041
10.0769
10.0778
10.0788
10.0798
10.0806
10.0814
10.082
10.0825
10.0829
10.0833
10.0836
10.0838
10.084
10.0842
10.0843
10.0844
10.0845
10.0846
10.0846
10.0847
10.0847
10.0847
10.0848
10.0848
10.0848
10.0848
10.0848
10.0848
10.0848
10.0848
10.0848
10.0848
10.0848
10.0848
10.0848
10.0848
10.0848
10.0848
10.0847
10.0847
10.0847
10.0846
10.0846
10.0845
10.0844
10.0843
10.0842
10.084
10.0838
10.0836
10.0833
10.0829
10.0825
10.082
10.0814
10.0806
10.0798
10.0788
10.0778
10.0769
10.7192
10.7202
10.7213
10.7223
10.7232
10.724
10.7246
10.7252
10.7256
10.726
10.7263
10.7265
10.7268
10.7269
10.7271
10.7272
10.7273
10.7273
10.7274
10.7274
10.7275
10.7275
10.7275
10.7276
10.7276
10.7276
10.7276
10.7276
10.7276
10.7276
10.7276
10.7276
10.7276
10.7276
10.7276
10.7276
10.7276
10.7275
10.7275
10.7275
10.7274
10.7274
10.7273
10.7273
10.7272
10.7271
10.7269
10.7268
10.7265
10.7263
10.726
10.7256
10.7252
10.7246
10.724
10.7232
10.7223
10.7213
10.7202
10.7192
11.3666
11.3675
11.3687
11.3698
11.3707
11.3715
11.3722
11.3728
11.3733
11.3736
11.374
11.3742
11.3745
11.3746
11.3748
11.3749
11.375
11.3751
11.3751
11.3752
11.3752
11.3753
11.3753
11.3753
11.3753
11.3753
11.3754
11.3754
11.3754
11.3754
11.3754
11.3754
11.3754
11.3754
11.3753
11.3753
11.3753
11.3753
11.3753
11.3752
11.3752
11.3751
11.3751
11.375
11.3749
11.3748
11.3746
11.3745
11.3742
11.374
11.3736
11.3733
11.3728
11.3722
11.3715
11.3707
11.3698
11.3687
11.3675
11.3666
12.0178
12.0189
12.0201
12.0212
12.0222
12.023
12.0237
12.0243
12.0248
12.0252
12.0256
12.0258
12.0261
12.0263
12.0264
12.0265
12.0266
12.0267
12.0268
12.0268
12.0269
12.0269
12.0269
12.027
12.027
12.027
12.027
12.027
12.027
12.027
12.027
12.027
12.027
12.027
12.027
12.027
12.027
12.0269
12.0269
12.0269
12.0268
12.0268
12.0267
12.0266
12.0265
12.0264
12.0263
12.0261
12.0258
12.0256
12.0252
12.0248
12.0243
12.0237
12.023
12.0222
12.0212
12.0201
12.0189
12.0178
12.6718
12.6729
12.6741
12.6753
12.6763
12.6772
12.678
12.6786
12.6791
12.6795
12.6799
12.6802
12.6804
12.6806
12.6808
12.6809
12.681
12.6811
12.6811
12.6812
12.6813
12.6813
12.6813
12.6813
12.6814
12.6814
12.6814
12.6814
12.6814
12.6814
12.6814
12.6814
12.6814
12.6814
12.6814
12.6814
12.6813
12.6813
12.6813
12.6813
12.6812
12.6811
12.6811
12.681
12.6809
12.6808
12.6806
12.6804
12.6802
12.6799
12.6795
12.6791
12.6786
12.678
12.6772
12.6763
12.6753
12.6741
12.6729
12.6718
13.3272
13.3283
13.3296
13.3308
13.3319
13.3328
13.3335
13.3342
13.3347
13.3352
13.3355
13.3358
13.3361
13.3363
13.3364
13.3366
13.3367
13.3368
13.3368
13.3369
13.3369
13.337
13.337
13.337
13.3371
13.3371
13.3371
13.3371
13.3371
13.3371
13.3371
13.3371
13.3371
13.3371
13.3371
13.3371
13.337
13.337
13.337
13.3369
13.3369
13.3368
13.3368
13.3367
13.3366
13.3364
13.3363
13.3361
13.3358
13.3355
13.3352
13.3347
13.3342
13.3335
13.3328
13.3319
13.3308
13.3296
13.3283
13.3272
13.9823
13.9835
13.9848
13.986
13.9871
13.9881
13.9889
13.9895
13.9901
13.9905
13.9909
13.9912
13.9915
13.9917
13.9918
13.992
13.9921
13.9922
13.9923
13.9923
13.9924
13.9924
13.9924
13.9925
13.9925
13.9925
13.9925
13.9925
13.9925
13.9925
13.9925
13.9925
13.9925
13.9925
13.9925
13.9925
13.9925
13.9924
13.9924
13.9924
13.9923
13.9923
13.9922
13.9921
13.992
13.9918
13.9917
13.9915
13.9912
13.9909
13.9905
13.9901
13.9895
13.9889
13.9881
13.9871
13.986
13.9848
13.9835
13.9823
14.6354
14.6366
14.6379
14.6392
14.6403
14.6413
14.6421
14.6428
14.6433
14.6438
14.6442
14.6445
14.6448
14.645
14.6452
14.6453
14.6454
14.6455
14.6456
14.6456
14.6457
14.6457
14.6458
14.6458
14.6458
14.6458
14.6459
14.6459
14.6459
14.6459
14.6459
14.6459
14.6459
14.6459
14.6458
14.6458
14.6458
14.6458
14.6457
14.6457
14.6456
14.6456
14.6455
14.6454
14.6453
14.6452
14.645
14.6448
14.6445
14.6442
14.6438
14.6433
14.6428
14.6421
14.6413
14.6403
14.6392
14.6379
14.6366
14.6354
15.2843
15.2855
15.2869
15.2882
15.2893
15.2903
15.2911
15.2918
15.2924
15.2929
15.2932
15.2936
15.2938
15.294
15.2942
15.2944
15.2945
15.2946
15.2947
15.2947
15.2948
15.2948
15.2949
15.2949
15.2949
15.2949
15.2949
15.295
15.295
15.295
15.295
15.295
15.295
15.2949
15.2949
15.2949
15.2949
15.2949
15.2948
15.2948
15.2947
15.2947
15.2946
15.2945
15.2944
15.2942
15.294
15.2938
15.2936
15.2932
15.2929
15.2924
15.2918
15.2911
15.2903
15.2893
15.2882
15.2869
15.2855
15.2843
15.9265
15.9278
15.9292
15.9305
15.9316
15.9326
15.9334
15.9341
15.9347
15.9352
15.9356
15.9359
15.9362
15.9364
15.9366
15.9368
15.9369
15.937
15.9371
15.9371
15.9372
15.9372
15.9373
15.9373
15.9373
15.9373
15.9373
15.9373
15.9374
15.9374
15.9374
15.9374
15.9373
15.9373
15.9373
15.9373
15.9373
15.9373
15.9372
15.9372
15.9371
15.9371
15.937
15.9369
15.9368
15.9366
15.9364
15.9362
15.9359
15.9356
15.9352
15.9347
15.9341
15.9334
15.9326
15.9316
15.9305
15.9292
15.9278
15.9265
16.5593
16.5605
16.5619
16.5632
16.5644
16.5654
16.5662
16.5669
16.5675
16.568
16.5684
16.5687
16.569
16.5692
16.5694
16.5696
16.5697
16.5698
16.5699
16.5699
16.57
16.57
16.5701
16.5701
16.5701
16.5701
16.5702
16.5702
16.5702
16.5702
16.5702
16.5702
16.5702
16.5702
16.5701
16.5701
16.5701
16.5701
16.57
16.57
16.5699
16.5699
16.5698
16.5697
16.5696
16.5694
16.5692
16.569
16.5687
16.5684
16.568
16.5675
16.5669
16.5662
16.5654
16.5644
16.5632
16.5619
16.5605
16.5593
17.1792
17.1804
17.1818
17.1831
17.1843
17.1853
17.1861
17.1868
17.1874
17.1879
17.1883
17.1886
17.1889
17.1891
17.1893
17.1895
17.1896
17.1897
17.1898
17.1898
17.1899
17.1899
17.19
17.19
17.19
17.19
17.1901
17.1901
17.1901
17.1901
17.1901
17.1901
17.1901
17.1901
17.19
17.19
17.19
17.19
17.1899
17.1899
17.1898
17.1898
17.1897
17.1896
17.1895
17.1893
17.1891
17.1889
17.1886
17.1883
17.1879
17.1874
17.1868
17.1861
17.1853
17.1843
17.1831
17.1818
17.1804
17.1792
17.7823
17.7835
17.7849
17.7862
17.7873
17.7883
17.7892
17.7899
17.7904
17.7909
17.7913
17.7916
17.7919
17.7921
17.7923
17.7925
17.7926
17.7927
17.7928
17.7928
17.7929
17.7929
17.793
17.793
17.793
17.793
17.7931
17.7931
17.7931
17.7931
17.7931
17.7931
17.7931
17.7931
17.793
17.793
17.793
17.793
17.7929
17.7929
17.7928
17.7928
17.7927
17.7926
17.7925
17.7923
17.7921
17.7919
17.7916
17.7913
17.7909
17.7904
17.7899
17.7892
17.7883
17.7873
17.7862
17.7849
17.7835
17.7823
18.3639
18.3651
18.3665
18.3677
18.3688
18.3698
18.3706
18.3713
18.3719
18.3723
18.3727
18.373
18.3733
18.3735
18.3737
18.3738
18.374
18.3741
18.3741
18.3742
18.3743
18.3743
18.3744
18.3744
18.3744
18.3744
18.3744
18.3745
18.3745
18.3745
18.3745
18.3745
18.3745
18.3744
18.3744
18.3744
18.3744
18.3744
18.3743
18.3743
18.3742
18.3741
18.3741
18.374
18.3738
18.3737
18.3735
18.3733
18.373
18.3727
18.3723
18.3719
18.3713
18.3706
18.3698
18.3688
18.3677
18.3665
18.3651
18.3639
18.9185
18.9196
18.9209
18.9221
18.9232
18.9241
18.9249
18.9256
18.9261
18.9266
18.9269
18.9272
18.9275
18.9277
18.9279
18.928
18.9281
18.9282
18.9283
18.9284
18.9284
18.9285
18.9285
18.9285
18.9286
18.9286
18.9286
18.9286
18.9286
18.9286
18.9286
18.9286
18.9286
18.9286
18.9286
18.9286
18.9285
18.9285
18.9285
18.9284
18.9284
18.9283
18.9282
18.9281
18.928
18.9279
18.9277
18.9275
18.9272
18.9269
18.9266
18.9261
18.9256
18.9249
18.9241
18.9232
18.9221
18.9209
18.9196
18.9185
19.4393
19.4404
19.4416
19.4427
19.4437
19.4446
19.4453
19.4459
19.4465
19.4469
19.4472
19.4475
19.4478
19.448
19.4481
19.4483
19.4484
19.4485
19.4486
19.4486
19.4487
19.4487
19.4488
19.4488
19.4488
19.4488
19.4488
19.4488
19.4489
19.4489
19.4489
19.4489
19.4488
19.4488
19.4488
19.4488
19.4488
19.4488
19.4487
19.4487
19.4486
19.4486
19.4485
19.4484
19.4483
19.4481
19.448
19.4478
19.4475
19.4472
19.4469
19.4465
19.4459
19.4453
19.4446
19.4437
19.4427
19.4416
19.4404
19.4393
19.9187
19.9197
19.9208
19.9218
19.9227
19.9235
19.9242
19.9248
19.9252
19.9256
19.926
19.9262
19.9265
19.9267
19.9268
19.9269
19.927
19.9271
19.9272
19.9273
19.9273
19.9273
19.9274
19.9274
19.9274
19.9274
19.9275
19.9275
19.9275
19.9275
19.9275
19.9275
19.9275
19.9275
19.9274
19.9274
19.9274
19.9274
19.9273
19.9273
19.9273
19.9272
19.9271
19.927
19.9269
19.9268
19.9267
19.9265
19.9262
19.926
19.9256
19.9252
19.9248
19.9242
19.9235
19.9227
19.9218
19.9208
19.9197
19.9187
20.3485
20.3494
20.3503
20.3513
20.3521
20.3528
20.3534
20.3539
20.3543
20.3546
20.3549
20.3552
20.3554
20.3556
20.3557
20.3558
20.3559
20.356
20.3561
20.3561
20.3562
20.3562
20.3562
20.3563
20.3563
20.3563
20.3563
20.3563
20.3563
20.3563
20.3563
20.3563
20.3563
20.3563
20.3563
20.3563
20.3563
20.3562
20.3562
20.3562
20.3561
20.3561
20.356
20.3559
20.3558
20.3557
20.3556
20.3554
20.3552
20.3549
20.3546
20.3543
20.3539
20.3534
20.3528
20.3521
20.3513
20.3503
20.3494
20.3485
20.7215
20.7222
20.7231
20.7238
20.7245
20.7251
20.7256
20.726
20.7264
20.7267
20.727
20.7272
20.7273
20.7275
20.7276
20.7277
20.7278
20.7279
20.7279
20.728
20.728
20.7281
20.7281
20.7281
20.7281
20.7281
20.7282
20.7282
20.7282
20.7282
20.7282
20.7282
20.7282
20.7282
20.7281
20.7281
20.7281
20.7281
20.7281
20.728
20.728
20.7279
20.7279
20.7278
20.7277
20.7276
20.7275
20.7273
20.7272
20.727
20.7267
20.7264
20.726
20.7256
20.7251
20.7245
20.7238
20.7231
20.7222
20.7215
21.0337
21.0343
21.0349
21.0355
21.0361
21.0366
21.037
21.0373
21.0376
21.0379
21.0381
21.0382
21.0384
21.0385
21.0386
21.0387
21.0388
21.0388
21.0389
21.0389
21.039
21.039
21.039
21.0391
21.0391
21.0391
21.0391
21.0391
21.0391
21.0391
21.0391
21.0391
21.0391
21.0391
21.0391
21.0391
21.0391
21.039
21.039
21.039
21.0389
21.0389
21.0388
21.0388
21.0387
21.0386
21.0385
21.0384
21.0382
21.0381
21.0379
21.0376
21.0373
21.037
21.0366
21.0361
21.0355
21.0349
21.0343
21.0337
21.2864
21.2868
21.2873
21.2878
21.2882
21.2885
21.2889
21.2891
21.2894
21.2896
21.2897
21.2899
21.29
21.2901
21.2902
21.2902
21.2903
21.2904
21.2904
21.2904
21.2905
21.2905
21.2905
21.2906
21.2906
21.2906
21.2906
21.2906
21.2906
21.2906
21.2906
21.2906
21.2906
21.2906
21.2906
21.2906
21.2906
21.2905
21.2905
21.2905
21.2904
21.2904
21.2904
21.2903
21.2902
21.2902
21.2901
21.29
21.2899
21.2897
21.2896
21.2894
21.2891
21.2889
21.2885
21.2882
21.2878
21.2873
21.2868
21.2864
21.4865
21.4868
21.4871
21.4875
21.4878
21.4881
21.4883
21.4885
21.4887
21.4888
21.489
21.4891
21.4892
21.4893
21.4893
21.4894
21.4895
21.4895
21.4895
21.4896
21.4896
21.4896
21.4897
21.4897
21.4897
21.4897
21.4897
21.4897
21.4897
21.4897
21.4897
21.4897
21.4897
21.4897
21.4897
21.4897
21.4897
21.4897
21.4896
21.4896
21.4896
21.4895
21.4895
21.4895
21.4894
21.4893
21.4893
21.4892
21.4891
21.489
21.4888
21.4887
21.4885
21.4883
21.4881
21.4878
21.4875
21.4871
21.4868
21.4865
21.6445
21.6447
21.645
21.6452
21.6455
21.6457
21.6458
21.646
21.6461
21.6462
21.6463
21.6464
21.6465
21.6466
21.6466
21.6467
21.6467
21.6468
21.6468
21.6469
21.6469
21.6469
21.6469
21.6469
21.647
21.647
21.647
21.647
21.647
21.647
21.647
21.647
21.647
21.647
21.647
21.647
21.6469
21.6469
21.6469
21.6469
21.6469
21.6468
21.6468
21.6467
21.6467
21.6466
21.6466
21.6465
21.6464
21.6463
21.6462
21.6461
21.646
21.6458
21.6457
21.6455
21.6452
21.645
21.6447
21.6445
21.7714
21.7715
21.7717
21.7719
21.772
21.7722
21.7723
21.7724
21.7725
21.7726
21.7727
21.7728
21.7729
21.7729
21.773
21.773
21.7731
21.7731
21.7731
21.7732
21.7732
21.7732
21.7732
21.7732
21.7733
21.7733
21.7733
21.7733
21.7733
21.7733
21.7733
21.7733
21.7733
21.7733
21.7733
21.7733
21.7732
21.7732
21.7732
21.7732
21.7732
21.7731
21.7731
21.7731
21.773
21.773
21.7729
21.7729
21.7728
21.7727
21.7726
21.7725
21.7724
21.7723
21.7722
21.772
21.7719
21.7717
21.7715
21.7714
21.8762
21.8763
21.8764
21.8765
21.8766
21.8768
21.8769
21.877
21.877
21.8771
21.8772
21.8772
21.8773
21.8774
21.8774
21.8774
21.8775
21.8775
21.8776
21.8776
21.8776
21.8776
21.8776
21.8777
21.8777
21.8777
21.8777
21.8777
21.8777
21.8777
21.8777
21.8777
21.8777
21.8777
21.8777
21.8777
21.8777
21.8776
21.8776
21.8776
21.8776
21.8776
21.8775
21.8775
21.8774
21.8774
21.8774
21.8773
21.8772
21.8772
21.8771
21.877
21.877
21.8769
21.8768
21.8766
21.8765
21.8764
21.8763
21.8762
21.9656
21.9656
21.9657
21.9658
21.9659
21.966
21.966
21.9661
21.9662
21.9662
21.9663
21.9664
21.9664
21.9665
21.9665
21.9665
21.9666
21.9666
21.9666
21.9667
21.9667
21.9667
21.9667
21.9668
21.9668
21.9668
21.9668
21.9668
21.9668
21.9668
21.9668
21.9668
21.9668
21.9668
21.9668
21.9668
21.9668
21.9667
21.9667
21.9667
21.9667
21.9666
21.9666
21.9666
21.9665
21.9665
21.9665
21.9664
21.9664
21.9663
21.9662
21.9662
21.9661
21.966
21.966
21.9659
21.9658
21.9657
21.9656
21.9656
22.0439
22.0439
22.044
22.044
22.0441
22.0442
22.0442
22.0443
22.0444
22.0444
22.0445
22.0445
22.0446
22.0446
22.0447
22.0447
22.0447
22.0448
22.0448
22.0448
22.0448
22.0449
22.0449
22.0449
22.0449
22.0449
22.0449
22.0449
22.0449
22.0449
22.0449
22.0449
22.0449
22.0449
22.0449
22.0449
22.0449
22.0449
22.0449
22.0448
22.0448
22.0448
22.0448
22.0447
22.0447
22.0447
22.0446
22.0446
22.0445
22.0445
22.0444
22.0444
22.0443
22.0442
22.0442
22.0441
22.044
22.044
22.0439
22.0439
22.1141
22.1141
22.1141
22.1142
22.1142
22.1143
22.1143
22.1144
22.1144
22.1145
22.1145
22.1146
22.1146
22.1147
22.1147
22.1148
22.1148
22.1148
22.1148
22.1149
22.1149
22.1149
22.1149
22.115
22.115
22.115
22.115
22.115
22.115
22.115
22.115
22.115
22.115
22.115
22.115
22.115
22.115
22.1149
22.1149
22.1149
22.1149
22.1148
22.1148
22.1148
22.1148
22.1147
22.1147
22.1146
22.1146
22.1145
22.1145
22.1144
22.1144
22.1143
22.1143
22.1142
22.1142
22.1141
22.1141
22.1141
22.178
22.178
22.1781
22.1781
22.1781
22.1782
22.1782
22.1783
22.1783
22.1784
22.1784
22.1784
22.1785
22.1785
22.1786
22.1786
22.1786
22.1787
22.1787
22.1787
22.1788
22.1788
22.1788
22.1788
22.1788
22.1788
22.1788
22.1789
22.1789
22.1789
22.1789
22.1789
22.1789
22.1788
22.1788
22.1788
22.1788
22.1788
22.1788
22.1788
22.1787
22.1787
22.1787
22.1786
22.1786
22.1786
22.1785
22.1785
22.1784
22.1784
22.1784
22.1783
22.1783
22.1782
22.1782
22.1781
22.1781
22.1781
22.178
22.178
22.237
22.237
22.2371
22.2371
22.2371
22.2371
22.2372
22.2372
22.2373
22.2373
22.2374
22.2374
22.2374
22.2375
22.2375
22.2375
22.2376
22.2376
22.2376
22.2377
22.2377
22.2377
22.2377
22.2377
22.2378
22.2378
22.2378
22.2378
22.2378
22.2378
22.2378
22.2378
22.2378
22.2378
22.2378
22.2378
22.2377
22.2377
22.2377
22.2377
22.2377
22.2376
22.2376
22.2376
22.2375
22.2375
22.2375
22.2374
22.2374
22.2374
22.2373
22.2373
22.2372
22.2372
22.2371
22.2371
22.2371
22.2371
22.237
22.237
22.2921
22.292
22.292
22.2921
22.2921
22.2921
22.2922
22.2922
22.2922
22.2923
22.2923
22.2923
22.2924
22.2924
22.2925
22.2925
22.2925
22.2926
22.2926
22.2926
22.2926
22.2927
22.2927
22.2927
22.2927
22.2927
22.2927
22.2927
22.2928
22.2928
22.2928
22.2928
22.2927
22.2927
22.2927
22.2927
22.2927
22.2927
22.2927
22.2926
22.2926
22.2926
22.2926
22.2925
22.2925
22.2925
22.2924
22.2924
22.2923
22.2923
22.2923
22.2922
22.2922
22.2922
22.2921
22.2921
22.2921
22.292
22.292
22.2921
22.3437
22.3437
22.3437
22.3437
22.3438
22.3438
22.3438
22.3439
22.3439
22.3439
22.344
22.344
22.344
22.3441
22.3441
22.3441
22.3442
22.3442
22.3442
22.3443
22.3443
22.3443
22.3443
22.3444
22.3444
22.3444
22.3444
22.3444
22.3444
22.3444
22.3444
22.3444
22.3444
22.3444
22.3444
22.3444
22.3444
22.3443
22.3443
22.3443
22.3443
22.3442
22.3442
22.3442
22.3441
22.3441
22.3441
22.344
22.344
22.344
22.3439
22.3439
22.3439
22.3438
22.3438
22.3438
22.3437
22.3437
22.3437
22.3437
22.3927
22.3927
22.3926
22.3927
22.3927
22.3927
22.3927
22.3927
22.3928
22.3928
22.3928
22.3929
22.3929
22.393
22.393
22.393
22.3931
22.3931
22.3931
22.3932
22.3932
22.3932
22.3932
22.3932
22.3933
22.3933
22.3933
22.3933
22.3933
22.3933
22.3933
22.3933
22.3933
22.3933
22.3933
22.3933
22.3932
22.3932
22.3932
22.3932
22.3932
22.3931
22.3931
22.3931
22.393
22.393
22.393
22.3929
22.3929
22.3928
22.3928
22.3928
22.3927
22.3927
22.3927
22.3927
22.3927
22.3926
22.3927
22.3927
22.4392
22.4392
22.4392
22.4392
22.4392
22.4392
22.4393
22.4393
22.4393
22.4393
22.4394
22.4394
22.4395
22.4395
22.4395
22.4396
22.4396
22.4396
22.4397
22.4397
22.4397
22.4397
22.4398
22.4398
22.4398
22.4398
22.4398
22.4398
22.4398
22.4398
22.4398
22.4398
22.4398
22.4398
22.4398
22.4398
22.4398
22.4398
22.4397
22.4397
22.4397
22.4397
22.4396
22.4396
22.4396
22.4395
22.4395
22.4395
22.4394
22.4394
22.4393
22.4393
22.4393
22.4393
22.4392
22.4392
22.4392
22.4392
22.4392
22.4392
22.4838
22.4837
22.4837
22.4837
22.4837
22.4838
22.4838
22.4838
22.4838
22.4839
22.4839
22.4839
22.484
22.484
22.484
22.4841
22.4841
22.4842
22.4842
22.4842
22.4842
22.4843
22.4843
22.4843
22.4843
22.4843
22.4843
22.4844
22.4844
22.4844
22.4844
22.4844
22.4844
22.4843
22.4843
22.4843
22.4843
22.4843
22.4843
22.4842
22.4842
22.4842
22.4842
22.4841
22.4841
22.484
22.484
22.484
22.4839
22.4839
22.4839
22.4838
22.4838
22.4838
22.4838
22.4837
22.4837
22.4837
22.4837
22.4838
22.5266
22.5265
22.5265
22.5265
22.5265
22.5265
22.5266
22.5266
22.5266
22.5266
22.5267
22.5267
22.5268
22.5268
22.5268
22.5269
22.5269
22.5269
22.527
22.527
22.527
22.527
22.5271
22.5271
22.5271
22.5271
22.5271
22.5271
22.5271
22.5271
22.5271
22.5271
22.5271
22.5271
22.5271
22.5271
22.5271
22.5271
22.527
22.527
22.527
22.527
22.5269
22.5269
22.5269
22.5268
22.5268
22.5268
22.5267
22.5267
22.5266
22.5266
22.5266
22.5266
22.5265
22.5265
22.5265
22.5265
22.5265
22.5266
22.5678
22.5678
22.5678
22.5678
22.5678
22.5678
22.5678
22.5679
22.5679
22.5679
22.5679
22.568
22.568
22.5681
22.5681
22.5681
22.5682
22.5682
22.5682
22.5683
22.5683
22.5683
22.5683
22.5684
22.5684
22.5684
22.5684
22.5684
22.5684
22.5684
22.5684
22.5684
22.5684
22.5684
22.5684
22.5684
22.5684
22.5683
22.5683
22.5683
22.5683
22.5682
22.5682
22.5682
22.5681
22.5681
22.5681
22.568
22.568
22.5679
22.5679
22.5679
22.5679
22.5678
22.5678
22.5678
22.5678
22.5678
22.5678
22.5678
22.6078
22.6078
22.6078
22.6078
22.6078
22.6078
22.6078
22.6078
22.6078
22.6079
22.6079
22.6079
22.608
22.608
22.6081
22.6081
22.6081
22.6082
22.6082
22.6082
22.6083
22.6083
22.6083
22.6083
22.6083
22.6084
22.6084
22.6084
22.6084
22.6084
22.6084
22.6084
22.6084
22.6084
22.6084
22.6083
22.6083
22.6083
22.6083
22.6083
22.6082
22.6082
22.6082
22.6081
22.6081
22.6081
22.608
22.608
22.6079
22.6079
22.6079
22.6078
22.6078
22.6078
22.6078
22.6078
22.6078
22.6078
22.6078
22.6078
22.6466
22.6466
22.6466
22.6466
22.6466
22.6466
22.6466
22.6466
22.6466
22.6467
22.6467
22.6467
22.6468
22.6468
22.6468
22.6469
22.6469
22.647
22.647
22.647
22.6471
22.6471
22.6471
22.6471
22.6471
22.6472
22.6472
22.6472
22.6472
22.6472
22.6472
22.6472
22.6472
22.6472
22.6472
22.6471
22.6471
22.6471
22.6471
22.6471
22.647
22.647
22.647
22.6469
22.6469
22.6468
22.6468
22.6468
22.6467
22.6467
22.6467
22.6466
22.6466
22.6466
22.6466
22.6466
22.6466
22.6466
22.6466
22.6466
22.6844
22.6844
22.6843
22.6843
22.6843
22.6843
22.6844
22.6844
22.6844
22.6844
22.6845
22.6845
22.6845
22.6846
22.6846
22.6847
22.6847
22.6847
22.6848
22.6848
22.6848
22.6849
22.6849
22.6849
22.6849
22.6849
22.685
22.685
22.685
22.685
22.685
22.685
22.685
22.685
22.6849
22.6849
22.6849
22.6849
22.6849
22.6848
22.6848
22.6848
22.6847
22.6847
22.6847
22.6846
22.6846
22.6845
22.6845
22.6845
22.6844
22.6844
22.6844
22.6844
22.6843
22.6843
22.6843
22.6843
22.6844
22.6844
22.7213
22.7212
22.7212
22.7212
22.7212
22.7212
22.7212
22.7213
22.7213
22.7213
22.7214
22.7214
22.7214
22.7215
22.7215
22.7216
22.7216
22.7216
22.7217
22.7217
22.7217
22.7218
22.7218
22.7218
22.7218
22.7218
22.7219
22.7219
22.7219
22.7219
22.7219
22.7219
22.7219
22.7219
22.7218
22.7218
22.7218
22.7218
22.7218
22.7217
22.7217
22.7217
22.7216
22.7216
22.7216
22.7215
22.7215
22.7214
22.7214
22.7214
22.7213
22.7213
22.7213
22.7212
22.7212
22.7212
22.7212
22.7212
22.7212
22.7213
22.7574
22.7573
22.7573
22.7573
22.7573
22.7573
22.7573
22.7574
22.7574
22.7574
22.7575
22.7575
22.7575
22.7576
22.7576
22.7577
22.7577
22.7577
22.7578
22.7578
22.7578
22.7579
22.7579
22.7579
22.7579
22.758
22.758
22.758
22.758
22.758
22.758
22.758
22.758
22.758
22.758
22.7579
22.7579
22.7579
22.7579
22.7578
22.7578
22.7578
22.7577
22.7577
22.7577
22.7576
22.7576
22.7575
22.7575
22.7575
22.7574
22.7574
22.7574
22.7573
22.7573
22.7573
22.7573
22.7573
22.7573
22.7574
22.7928
22.7927
22.7927
22.7927
22.7927
22.7927
22.7927
22.7928
22.7928
22.7928
22.7929
22.7929
22.7929
22.793
22.793
22.7931
22.7931
22.7932
22.7932
22.7932
22.7933
22.7933
22.7933
22.7933
22.7934
22.7934
22.7934
22.7934
22.7934
22.7934
22.7934
22.7934
22.7934
22.7934
22.7934
22.7934
22.7933
22.7933
22.7933
22.7933
22.7932
22.7932
22.7932
22.7931
22.7931
22.793
22.793
22.7929
22.7929
22.7929
22.7928
22.7928
22.7928
22.7927
22.7927
22.7927
22.7927
22.7927
22.7927
22.7928
22.8275
22.8275
22.8275
22.8275
22.8275
22.8275
22.8275
22.8276
22.8276
22.8276
22.8277
22.8277
22.8277
22.8278
22.8278
22.8279
22.8279
22.828
22.828
22.828
22.8281
22.8281
22.8281
22.8281
22.8282
22.8282
22.8282
22.8282
22.8282
22.8282
22.8282
22.8282
22.8282
22.8282
22.8282
22.8282
22.8281
22.8281
22.8281
22.8281
22.828
22.828
22.828
22.8279
22.8279
22.8278
22.8278
22.8277
22.8277
22.8277
22.8276
22.8276
22.8276
22.8275
22.8275
22.8275
22.8275
22.8275
22.8275
22.8275
22.8618
22.8618
22.8618
22.8618
22.8618
22.8618
22.8618
22.8618
22.8618
22.8619
22.8619