/*--------------------------------*- C++ -*----------------------------------*\
| =========                 |                                                 |
| \\      /  F ield         | foam-extend: Open Source CFD                    |
|  \\    /   O peration     | Version:     4.0                                |
|   \\  /    A nd           | Web:         http://www.foam-extend.org         |
|    \\/     M anipulation  |                                                 |
\*---------------------------------------------------------------------------*/
FoamFile
{
    version     2.0;
    format      ascii;
    class       volScalarField;
    location    "210";
    object      cPlus;
}
// * * * * * * * * * * * * * * * * * * * * * * * * * * * * * * * * * * * * * //

dimensions      [0 0 0 0 0 0 0];

internalField   nonuniform List<scalar> 
6960
(
0.293348
0.293325
0.293322
0.293324
0.293326
0.293329
0.293331
0.293333
0.293335
0.293336
0.293338
0.293339
0.293341
0.293342
0.293343
0.293344
0.293345
0.293346
0.293347
0.293348
0.293348
0.293349
0.29335
0.29335
0.293351
0.293351
0.293351
0.293351
0.293352
0.293352
0.293352
0.293352
0.293351
0.293351
0.293351
0.293351
0.29335
0.29335
0.293349
0.293348
0.293348
0.293347
0.293346
0.293345
0.293344
0.293343
0.293342
0.293341
0.293339
0.293338
0.293336
0.293335
0.293333
0.293331
0.293329
0.293326
0.293324
0.293322
0.293325
0.293348
0.121897
0.121905
0.121908
0.12191
0.121912
0.121913
0.121915
0.121916
0.121917
0.121918
0.121919
0.12192
0.12192
0.121921
0.121922
0.121923
0.121923
0.121924
0.121924
0.121925
0.121925
0.121926
0.121926
0.121926
0.121926
0.121927
0.121927
0.121927
0.121927
0.121927
0.121927
0.121927
0.121927
0.121927
0.121927
0.121926
0.121926
0.121926
0.121926
0.121925
0.121925
0.121924
0.121924
0.121923
0.121923
0.121922
0.121921
0.12192
0.12192
0.121919
0.121918
0.121917
0.121916
0.121915
0.121913
0.121912
0.12191
0.121908
0.121905
0.121897
0.0876458
0.0876728
0.0876785
0.0876805
0.0876818
0.0876828
0.0876836
0.0876844
0.0876851
0.0876857
0.0876863
0.0876869
0.0876874
0.0876878
0.0876883
0.0876887
0.0876891
0.0876894
0.0876897
0.08769
0.0876903
0.0876905
0.0876908
0.0876909
0.0876911
0.0876912
0.0876913
0.0876914
0.0876915
0.0876915
0.0876915
0.0876915
0.0876914
0.0876913
0.0876912
0.0876911
0.0876909
0.0876908
0.0876905
0.0876903
0.08769
0.0876897
0.0876894
0.0876891
0.0876887
0.0876883
0.0876878
0.0876874
0.0876869
0.0876863
0.0876857
0.0876851
0.0876844
0.0876836
0.0876828
0.0876818
0.0876805
0.0876785
0.0876728
0.0876458
0.0830604
0.083098
0.0831056
0.0831078
0.0831089
0.0831098
0.0831105
0.0831111
0.0831117
0.0831122
0.0831126
0.0831131
0.0831135
0.0831139
0.0831142
0.0831145
0.0831148
0.0831151
0.0831154
0.0831156
0.0831158
0.083116
0.0831162
0.0831163
0.0831165
0.0831166
0.0831167
0.0831167
0.0831168
0.0831168
0.0831168
0.0831168
0.0831167
0.0831167
0.0831166
0.0831165
0.0831163
0.0831162
0.083116
0.0831158
0.0831156
0.0831154
0.0831151
0.0831148
0.0831145
0.0831142
0.0831139
0.0831135
0.0831131
0.0831126
0.0831122
0.0831117
0.0831111
0.0831105
0.0831098
0.0831089
0.0831078
0.0831056
0.083098
0.0830604
0.0870826
0.0871287
0.087138
0.0871405
0.0871418
0.0871427
0.0871434
0.0871441
0.0871447
0.0871452
0.0871457
0.0871461
0.0871466
0.087147
0.0871473
0.0871477
0.087148
0.0871483
0.0871485
0.0871488
0.087149
0.0871492
0.0871494
0.0871495
0.0871496
0.0871498
0.0871498
0.0871499
0.0871499
0.08715
0.08715
0.0871499
0.0871499
0.0871498
0.0871498
0.0871496
0.0871495
0.0871494
0.0871492
0.087149
0.0871488
0.0871485
0.0871483
0.087148
0.0871477
0.0871473
0.087147
0.0871466
0.0871461
0.0871457
0.0871452
0.0871447
0.0871441
0.0871434
0.0871427
0.0871418
0.0871405
0.087138
0.0871287
0.0870826
0.0950363
0.0950919
0.0951031
0.0951062
0.0951077
0.0951088
0.0951097
0.0951105
0.0951112
0.0951118
0.0951124
0.0951129
0.0951134
0.0951139
0.0951143
0.0951147
0.0951151
0.0951154
0.0951157
0.095116
0.0951163
0.0951165
0.0951167
0.0951169
0.0951171
0.0951172
0.0951173
0.0951174
0.0951174
0.0951174
0.0951174
0.0951174
0.0951174
0.0951173
0.0951172
0.0951171
0.0951169
0.0951167
0.0951165
0.0951163
0.095116
0.0951157
0.0951154
0.0951151
0.0951147
0.0951143
0.0951139
0.0951134
0.0951129
0.0951124
0.0951118
0.0951112
0.0951105
0.0951097
0.0951088
0.0951077
0.0951062
0.0951031
0.0950919
0.0950363
0.106207
0.106275
0.106289
0.106292
0.106294
0.106295
0.106297
0.106298
0.106298
0.106299
0.1063
0.106301
0.106301
0.106302
0.106302
0.106303
0.106303
0.106304
0.106304
0.106304
0.106305
0.106305
0.106305
0.106306
0.106306
0.106306
0.106306
0.106306
0.106306
0.106306
0.106306
0.106306
0.106306
0.106306
0.106306
0.106306
0.106306
0.106305
0.106305
0.106305
0.106304
0.106304
0.106304
0.106303
0.106303
0.106302
0.106302
0.106301
0.106301
0.1063
0.106299
0.106298
0.106298
0.106297
0.106295
0.106294
0.106292
0.106289
0.106275
0.106207
0.120941
0.121025
0.121042
0.121046
0.121049
0.12105
0.121052
0.121053
0.121054
0.121055
0.121056
0.121057
0.121057
0.121058
0.121059
0.12106
0.12106
0.121061
0.121061
0.121062
0.121062
0.121062
0.121063
0.121063
0.121063
0.121063
0.121064
0.121064
0.121064
0.121064
0.121064
0.121064
0.121064
0.121064
0.121063
0.121063
0.121063
0.121063
0.121062
0.121062
0.121062
0.121061
0.121061
0.12106
0.12106
0.121059
0.121058
0.121057
0.121057
0.121056
0.121055
0.121054
0.121053
0.121052
0.12105
0.121049
0.121046
0.121042
0.121025
0.120941
0.139758
0.139861
0.139882
0.139888
0.139891
0.139893
0.139894
0.139896
0.139897
0.139898
0.139899
0.1399
0.139901
0.139902
0.139903
0.139904
0.139904
0.139905
0.139906
0.139906
0.139907
0.139907
0.139908
0.139908
0.139908
0.139908
0.139909
0.139909
0.139909
0.139909
0.139909
0.139909
0.139909
0.139909
0.139908
0.139908
0.139908
0.139908
0.139907
0.139907
0.139906
0.139906
0.139905
0.139904
0.139904
0.139903
0.139902
0.139901
0.1399
0.139899
0.139898
0.139897
0.139896
0.139894
0.139893
0.139891
0.139888
0.139882
0.139861
0.139758
0.162923
0.163048
0.163074
0.163081
0.163084
0.163086
0.163088
0.16309
0.163091
0.163093
0.163094
0.163095
0.163096
0.163097
0.163098
0.163099
0.1631
0.163101
0.163101
0.163102
0.163103
0.163103
0.163104
0.163104
0.163104
0.163105
0.163105
0.163105
0.163105
0.163105
0.163105
0.163105
0.163105
0.163105
0.163105
0.163104
0.163104
0.163104
0.163103
0.163103
0.163102
0.163101
0.163101
0.1631
0.163099
0.163098
0.163097
0.163096
0.163095
0.163094
0.163093
0.163091
0.16309
0.163088
0.163086
0.163084
0.163081
0.163074
0.163048
0.162923
0.190215
0.190364
0.190395
0.190403
0.190407
0.190409
0.190411
0.190413
0.190415
0.190416
0.190418
0.190419
0.19042
0.190421
0.190422
0.190423
0.190424
0.190425
0.190426
0.190427
0.190427
0.190428
0.190428
0.190429
0.190429
0.190429
0.19043
0.19043
0.19043
0.19043
0.19043
0.19043
0.19043
0.19043
0.190429
0.190429
0.190429
0.190428
0.190428
0.190427
0.190427
0.190426
0.190425
0.190424
0.190423
0.190422
0.190421
0.19042
0.190419
0.190418
0.190416
0.190415
0.190413
0.190411
0.190409
0.190407
0.190403
0.190395
0.190364
0.190215
0.22092
0.221092
0.221128
0.221138
0.221142
0.221144
0.221147
0.221149
0.221151
0.221152
0.221154
0.221155
0.221156
0.221157
0.221159
0.22116
0.22116
0.221161
0.221162
0.221163
0.221164
0.221164
0.221165
0.221165
0.221166
0.221166
0.221166
0.221166
0.221166
0.221166
0.221166
0.221166
0.221166
0.221166
0.221166
0.221166
0.221165
0.221165
0.221164
0.221164
0.221163
0.221162
0.221161
0.22116
0.22116
0.221159
0.221157
0.221156
0.221155
0.221154
0.221152
0.221151
0.221149
0.221147
0.221144
0.221142
0.221138
0.221128
0.221092
0.22092
0.254023
0.254216
0.254257
0.254268
0.254272
0.254275
0.254277
0.254279
0.254281
0.254282
0.254284
0.254285
0.254286
0.254288
0.254289
0.25429
0.254291
0.254292
0.254292
0.254293
0.254294
0.254294
0.254295
0.254295
0.254296
0.254296
0.254296
0.254297
0.254297
0.254297
0.254297
0.254297
0.254297
0.254296
0.254296
0.254296
0.254295
0.254295
0.254294
0.254294
0.254293
0.254292
0.254292
0.254291
0.25429
0.254289
0.254288
0.254286
0.254285
0.254284
0.254282
0.254281
0.254279
0.254277
0.254275
0.254272
0.254268
0.254257
0.254216
0.254023
0.288475
0.288688
0.288733
0.288745
0.288749
0.288752
0.288754
0.288756
0.288758
0.288759
0.288761
0.288762
0.288763
0.288765
0.288766
0.288767
0.288768
0.288768
0.288769
0.28877
0.288771
0.288771
0.288772
0.288772
0.288772
0.288773
0.288773
0.288773
0.288773
0.288773
0.288773
0.288773
0.288773
0.288773
0.288773
0.288772
0.288772
0.288772
0.288771
0.288771
0.28877
0.288769
0.288768
0.288768
0.288767
0.288766
0.288765
0.288763
0.288762
0.288761
0.288759
0.288758
0.288756
0.288754
0.288752
0.288749
0.288745
0.288733
0.288688
0.288475
0.3234
0.32363
0.32368
0.323692
0.323696
0.323699
0.323701
0.323703
0.323705
0.323706
0.323708
0.323709
0.32371
0.323711
0.323712
0.323713
0.323714
0.323715
0.323716
0.323716
0.323717
0.323717
0.323718
0.323718
0.323719
0.323719
0.323719
0.323719
0.323719
0.32372
0.32372
0.323719
0.323719
0.323719
0.323719
0.323719
0.323718
0.323718
0.323717
0.323717
0.323716
0.323716
0.323715
0.323714
0.323713
0.323712
0.323711
0.32371
0.323709
0.323708
0.323706
0.323705
0.323703
0.323701
0.323699
0.323696
0.323692
0.32368
0.32363
0.3234
0.358164
0.35841
0.358464
0.358477
0.358481
0.358484
0.358486
0.358488
0.358489
0.358491
0.358492
0.358493
0.358494
0.358495
0.358496
0.358497
0.358498
0.358498
0.358499
0.3585
0.3585
0.358501
0.358501
0.358502
0.358502
0.358502
0.358502
0.358503
0.358503
0.358503
0.358503
0.358503
0.358503
0.358502
0.358502
0.358502
0.358502
0.358501
0.358501
0.3585
0.3585
0.358499
0.358498
0.358498
0.358497
0.358496
0.358495
0.358494
0.358493
0.358492
0.358491
0.358489
0.358488
0.358486
0.358484
0.358481
0.358477
0.358464
0.35841
0.358164
0.392358
0.392616
0.392674
0.392688
0.392692
0.392695
0.392697
0.392698
0.3927
0.392701
0.392702
0.392703
0.392704
0.392705
0.392706
0.392707
0.392708
0.392708
0.392709
0.39271
0.39271
0.392711
0.392711
0.392711
0.392712
0.392712
0.392712
0.392712
0.392712
0.392712
0.392712
0.392712
0.392712
0.392712
0.392712
0.392712
0.392711
0.392711
0.392711
0.39271
0.39271
0.392709
0.392708
0.392708
0.392707
0.392706
0.392705
0.392704
0.392703
0.392702
0.392701
0.3927
0.392698
0.392697
0.392695
0.392692
0.392688
0.392674
0.392616
0.392358
0.425729
0.426
0.426061
0.426076
0.42608
0.426083
0.426084
0.426086
0.426087
0.426088
0.426089
0.42609
0.426091
0.426092
0.426093
0.426094
0.426094
0.426095
0.426095
0.426096
0.426096
0.426097
0.426097
0.426098
0.426098
0.426098
0.426098
0.426098
0.426099
0.426099
0.426099
0.426099
0.426098
0.426098
0.426098
0.426098
0.426098
0.426097
0.426097
0.426096
0.426096
0.426095
0.426095
0.426094
0.426094
0.426093
0.426092
0.426091
0.42609
0.426089
0.426088
0.426087
0.426086
0.426084
0.426083
0.42608
0.426076
0.426061
0.426
0.425729
0.458132
0.458413
0.458478
0.458493
0.458497
0.4585
0.458501
0.458503
0.458504
0.458505
0.458506
0.458507
0.458508
0.458508
0.458509
0.45851
0.45851
0.458511
0.458511
0.458512
0.458512
0.458513
0.458513
0.458513
0.458514
0.458514
0.458514
0.458514
0.458514
0.458514
0.458514
0.458514
0.458514
0.458514
0.458514
0.458514
0.458513
0.458513
0.458513
0.458512
0.458512
0.458511
0.458511
0.45851
0.45851
0.458509
0.458508
0.458508
0.458507
0.458506
0.458505
0.458504
0.458503
0.458501
0.4585
0.458497
0.458493
0.458478
0.458413
0.458132
0.48948
0.48977
0.489838
0.489854
0.489858
0.489861
0.489862
0.489863
0.489864
0.489865
0.489866
0.489867
0.489868
0.489869
0.489869
0.48987
0.48987
0.489871
0.489871
0.489872
0.489872
0.489873
0.489873
0.489873
0.489873
0.489874
0.489874
0.489874
0.489874
0.489874
0.489874
0.489874
0.489874
0.489874
0.489874
0.489873
0.489873
0.489873
0.489873
0.489872
0.489872
0.489871
0.489871
0.48987
0.48987
0.489869
0.489869
0.489868
0.489867
0.489866
0.489865
0.489864
0.489863
0.489862
0.489861
0.489858
0.489854
0.489838
0.48977
0.48948
0.519723
0.52002
0.520092
0.520109
0.520113
0.520115
0.520117
0.520118
0.520119
0.52012
0.52012
0.520121
0.520122
0.520122
0.520123
0.520124
0.520124
0.520125
0.520125
0.520125
0.520126
0.520126
0.520126
0.520127
0.520127
0.520127
0.520127
0.520127
0.520127
0.520127
0.520127
0.520127
0.520127
0.520127
0.520127
0.520127
0.520127
0.520126
0.520126
0.520126
0.520125
0.520125
0.520125
0.520124
0.520124
0.520123
0.520122
0.520122
0.520121
0.52012
0.52012
0.520119
0.520118
0.520117
0.520115
0.520113
0.520109
0.520092
0.52002
0.519723
0.548833
0.549136
0.549211
0.549228
0.549233
0.549235
0.549236
0.549237
0.549238
0.549239
0.54924
0.54924
0.549241
0.549242
0.549242
0.549243
0.549243
0.549243
0.549244
0.549244
0.549244
0.549245
0.549245
0.549245
0.549245
0.549246
0.549246
0.549246
0.549246
0.549246
0.549246
0.549246
0.549246
0.549246
0.549246
0.549245
0.549245
0.549245
0.549245
0.549244
0.549244
0.549244
0.549243
0.549243
0.549243
0.549242
0.549242
0.549241
0.54924
0.54924
0.549239
0.549238
0.549237
0.549236
0.549235
0.549233
0.549228
0.549211
0.549136
0.548833
0.576794
0.577103
0.57718
0.577198
0.577203
0.577205
0.577206
0.577207
0.577208
0.577208
0.577209
0.57721
0.57721
0.577211
0.577211
0.577212
0.577212
0.577212
0.577213
0.577213
0.577213
0.577214
0.577214
0.577214
0.577214
0.577214
0.577214
0.577215
0.577215
0.577215
0.577215
0.577215
0.577215
0.577214
0.577214
0.577214
0.577214
0.577214
0.577214
0.577213
0.577213
0.577213
0.577212
0.577212
0.577212
0.577211
0.577211
0.57721
0.57721
0.577209
0.577208
0.577208
0.577207
0.577206
0.577205
0.577203
0.577198
0.57718
0.577103
0.576794
0.6036
0.603913
0.603993
0.604012
0.604017
0.604019
0.60402
0.604021
0.604021
0.604022
0.604023
0.604023
0.604024
0.604024
0.604025
0.604025
0.604025
0.604026
0.604026
0.604026
0.604026
0.604027
0.604027
0.604027
0.604027
0.604027
0.604027
0.604027
0.604028
0.604028
0.604028
0.604028
0.604027
0.604027
0.604027
0.604027
0.604027
0.604027
0.604027
0.604026
0.604026
0.604026
0.604026
0.604025
0.604025
0.604025
0.604024
0.604024
0.604023
0.604023
0.604022
0.604021
0.604021
0.60402
0.604019
0.604017
0.604012
0.603993
0.603913
0.6036
0.629253
0.629568
0.629651
0.629671
0.629676
0.629678
0.629679
0.629679
0.62968
0.629681
0.629681
0.629682
0.629682
0.629682
0.629683
0.629683
0.629683
0.629684
0.629684
0.629684
0.629685
0.629685
0.629685
0.629685
0.629685
0.629685
0.629685
0.629685
0.629686
0.629686
0.629686
0.629686
0.629685
0.629685
0.629685
0.629685
0.629685
0.629685
0.629685
0.629685
0.629684
0.629684
0.629684
0.629683
0.629683
0.629683
0.629682
0.629682
0.629682
0.629681
0.629681
0.62968
0.629679
0.629679
0.629678
0.629676
0.629671
0.629651
0.629568
0.629253
0.653758
0.654075
0.65416
0.654181
0.654186
0.654187
0.654188
0.654189
0.65419
0.65419
0.654191
0.654191
0.654191
0.654192
0.654192
0.654192
0.654193
0.654193
0.654193
0.654193
0.654194
0.654194
0.654194
0.654194
0.654194
0.654194
0.654194
0.654194
0.654194
0.654194
0.654194
0.654194
0.654194
0.654194
0.654194
0.654194
0.654194
0.654194
0.654194
0.654194
0.654193
0.654193
0.654193
0.654193
0.654192
0.654192
0.654192
0.654191
0.654191
0.654191
0.65419
0.65419
0.654189
0.654188
0.654187
0.654186
0.654181
0.65416
0.654075
0.653758
0.677125
0.677443
0.67753
0.677551
0.677556
0.677558
0.677559
0.67756
0.67756
0.677561
0.677561
0.677561
0.677562
0.677562
0.677562
0.677563
0.677563
0.677563
0.677563
0.677564
0.677564
0.677564
0.677564
0.677564
0.677564
0.677564
0.677564
0.677564
0.677564
0.677564
0.677564
0.677564
0.677564
0.677564
0.677564
0.677564
0.677564
0.677564
0.677564
0.677564
0.677564
0.677563
0.677563
0.677563
0.677563
0.677562
0.677562
0.677562
0.677561
0.677561
0.677561
0.67756
0.67756
0.677559
0.677558
0.677556
0.677551
0.67753
0.677443
0.677125
0.699368
0.699685
0.699775
0.699797
0.699802
0.699804
0.699804
0.699805
0.699805
0.699806
0.699806
0.699807
0.699807
0.699807
0.699807
0.699808
0.699808
0.699808
0.699808
0.699808
0.699809
0.699809
0.699809
0.699809
0.699809
0.699809
0.699809
0.699809
0.699809
0.699809
0.699809
0.699809
0.699809
0.699809
0.699809
0.699809
0.699809
0.699809
0.699809
0.699809
0.699808
0.699808
0.699808
0.699808
0.699808
0.699807
0.699807
0.699807
0.699807
0.699806
0.699806
0.699805
0.699805
0.699804
0.699804
0.699802
0.699797
0.699775
0.699685
0.699368
0.720504
0.72082
0.720911
0.720933
0.720939
0.720941
0.720941
0.720942
0.720942
0.720943
0.720943
0.720943
0.720944
0.720944
0.720944
0.720944
0.720945
0.720945
0.720945
0.720945
0.720945
0.720945
0.720945
0.720946
0.720946
0.720946
0.720946
0.720946
0.720946
0.720946
0.720946
0.720946
0.720946
0.720946
0.720946
0.720946
0.720946
0.720945
0.720945
0.720945
0.720945
0.720945
0.720945
0.720945
0.720944
0.720944
0.720944
0.720944
0.720943
0.720943
0.720943
0.720942
0.720942
0.720941
0.720941
0.720939
0.720933
0.720911
0.72082
0.720504
0.740553
0.740866
0.740958
0.740982
0.740987
0.740989
0.74099
0.74099
0.740991
0.740991
0.740991
0.740992
0.740992
0.740992
0.740992
0.740992
0.740993
0.740993
0.740993
0.740993
0.740993
0.740993
0.740993
0.740994
0.740994
0.740994
0.740994
0.740994
0.740994
0.740994
0.740994
0.740994
0.740994
0.740994
0.740994
0.740994
0.740994
0.740993
0.740993
0.740993
0.740993
0.740993
0.740993
0.740993
0.740992
0.740992
0.740992
0.740992
0.740992
0.740991
0.740991
0.740991
0.74099
0.74099
0.740989
0.740987
0.740982
0.740958
0.740866
0.740553
0.759536
0.759846
0.759939
0.759964
0.75997
0.759971
0.759972
0.759972
0.759973
0.759973
0.759973
0.759974
0.759974
0.759974
0.759974
0.759974
0.759974
0.759975
0.759975
0.759975
0.759975
0.759975
0.759975
0.759975
0.759975
0.759975
0.759975
0.759975
0.759975
0.759975
0.759975
0.759975
0.759975
0.759975
0.759975
0.759975
0.759975
0.759975
0.759975
0.759975
0.759975
0.759975
0.759975
0.759974
0.759974
0.759974
0.759974
0.759974
0.759974
0.759973
0.759973
0.759973
0.759972
0.759972
0.759971
0.75997
0.759964
0.759939
0.759846
0.759536
0.777479
0.777784
0.777879
0.777904
0.77791
0.777912
0.777912
0.777913
0.777913
0.777913
0.777913
0.777914
0.777914
0.777914
0.777914
0.777914
0.777914
0.777915
0.777915
0.777915
0.777915
0.777915
0.777915
0.777915
0.777915
0.777915
0.777915
0.777915
0.777915
0.777915
0.777915
0.777915
0.777915
0.777915
0.777915
0.777915
0.777915
0.777915
0.777915
0.777915
0.777915
0.777915
0.777915
0.777914
0.777914
0.777914
0.777914
0.777914
0.777914
0.777913
0.777913
0.777913
0.777913
0.777912
0.777912
0.77791
0.777904
0.777879
0.777784
0.777479
0.794407
0.794708
0.794803
0.794828
0.794835
0.794837
0.794837
0.794838
0.794838
0.794838
0.794838
0.794838
0.794839
0.794839
0.794839
0.794839
0.794839
0.794839
0.794839
0.79484
0.79484
0.79484
0.79484
0.79484
0.79484
0.79484
0.79484
0.79484
0.79484
0.79484
0.79484
0.79484
0.79484
0.79484
0.79484
0.79484
0.79484
0.79484
0.79484
0.79484
0.79484
0.794839
0.794839
0.794839
0.794839
0.794839
0.794839
0.794839
0.794838
0.794838
0.794838
0.794838
0.794838
0.794837
0.794837
0.794835
0.794828
0.794803
0.794708
0.794407
0.81035
0.810645
0.81074
0.810766
0.810773
0.810775
0.810775
0.810776
0.810776
0.810776
0.810776
0.810777
0.810777
0.810777
0.810777
0.810777
0.810777
0.810777
0.810777
0.810778
0.810778
0.810778
0.810778
0.810778
0.810778
0.810778
0.810778
0.810778
0.810778
0.810778
0.810778
0.810778
0.810778
0.810778
0.810778
0.810778
0.810778
0.810778
0.810778
0.810778
0.810778
0.810777
0.810777
0.810777
0.810777
0.810777
0.810777
0.810777
0.810777
0.810776
0.810776
0.810776
0.810776
0.810775
0.810775
0.810773
0.810766
0.81074
0.810645
0.81035
0.825337
0.825625
0.825721
0.825748
0.825754
0.825756
0.825757
0.825757
0.825757
0.825758
0.825758
0.825758
0.825758
0.825758
0.825758
0.825758
0.825759
0.825759
0.825759
0.825759
0.825759
0.825759
0.825759
0.825759
0.825759
0.825759
0.825759
0.825759
0.825759
0.825759
0.825759
0.825759
0.825759
0.825759
0.825759
0.825759
0.825759
0.825759
0.825759
0.825759
0.825759
0.825759
0.825759
0.825759
0.825758
0.825758
0.825758
0.825758
0.825758
0.825758
0.825758
0.825757
0.825757
0.825757
0.825756
0.825754
0.825748
0.825721
0.825625
0.825337
0.8394
0.839681
0.839776
0.839804
0.839811
0.839813
0.839813
0.839814
0.839814
0.839814
0.839814
0.839814
0.839814
0.839814
0.839815
0.839815
0.839815
0.839815
0.839815
0.839815
0.839815
0.839815
0.839815
0.839815
0.839815
0.839815
0.839815
0.839815
0.839815
0.839815
0.839815
0.839815
0.839815
0.839815
0.839815
0.839815
0.839815
0.839815
0.839815
0.839815
0.839815
0.839815
0.839815
0.839815
0.839815
0.839815
0.839814
0.839814
0.839814
0.839814
0.839814
0.839814
0.839814
0.839813
0.839813
0.839811
0.839804
0.839776
0.839681
0.8394
0.852571
0.852845
0.852939
0.852967
0.852974
0.852976
0.852977
0.852977
0.852977
0.852978
0.852978
0.852978
0.852978
0.852978
0.852978
0.852978
0.852978
0.852978
0.852978
0.852978
0.852979
0.852979
0.852979
0.852979
0.852979
0.852979
0.852979
0.852979
0.852979
0.852979
0.852979
0.852979
0.852979
0.852979
0.852979
0.852979
0.852979
0.852979
0.852979
0.852979
0.852978
0.852978
0.852978
0.852978
0.852978
0.852978
0.852978
0.852978
0.852978
0.852978
0.852978
0.852977
0.852977
0.852977
0.852976
0.852974
0.852967
0.852939
0.852845
0.852571
0.864884
0.865149
0.865243
0.865272
0.865279
0.865281
0.865282
0.865282
0.865282
0.865283
0.865283
0.865283
0.865283
0.865283
0.865283
0.865283
0.865283
0.865283
0.865283
0.865283
0.865283
0.865283
0.865283
0.865283
0.865283
0.865283
0.865283
0.865284
0.865284
0.865284
0.865284
0.865284
0.865284
0.865283
0.865283
0.865283
0.865283
0.865283
0.865283
0.865283
0.865283
0.865283
0.865283
0.865283
0.865283
0.865283
0.865283
0.865283
0.865283
0.865283
0.865283
0.865282
0.865282
0.865282
0.865281
0.865279
0.865272
0.865243
0.865149
0.864884
0.876373
0.87663
0.876723
0.876752
0.87676
0.876762
0.876762
0.876763
0.876763
0.876763
0.876763
0.876763
0.876763
0.876763
0.876763
0.876763
0.876764
0.876764
0.876764
0.876764
0.876764
0.876764
0.876764
0.876764
0.876764
0.876764
0.876764
0.876764
0.876764
0.876764
0.876764
0.876764
0.876764
0.876764
0.876764
0.876764
0.876764
0.876764
0.876764
0.876764
0.876764
0.876764
0.876764
0.876764
0.876763
0.876763
0.876763
0.876763
0.876763
0.876763
0.876763
0.876763
0.876763
0.876762
0.876762
0.87676
0.876752
0.876723
0.87663
0.876373
0.887074
0.887322
0.887414
0.887443
0.887451
0.887453
0.887454
0.887454
0.887454
0.887454
0.887454
0.887454
0.887454
0.887454
0.887454
0.887455
0.887455
0.887455
0.887455
0.887455
0.887455
0.887455
0.887455
0.887455
0.887455
0.887455
0.887455
0.887455
0.887455
0.887455
0.887455
0.887455
0.887455
0.887455
0.887455
0.887455
0.887455
0.887455
0.887455
0.887455
0.887455
0.887455
0.887455
0.887455
0.887455
0.887454
0.887454
0.887454
0.887454
0.887454
0.887454
0.887454
0.887454
0.887454
0.887453
0.887451
0.887443
0.887414
0.887322
0.887074
0.897022
0.89726
0.897351
0.897379
0.897388
0.89739
0.897391
0.897391
0.897391
0.897391
0.897391
0.897391
0.897392
0.897392
0.897392
0.897392
0.897392
0.897392
0.897392
0.897392
0.897392
0.897392
0.897392
0.897392
0.897392
0.897392
0.897392
0.897392
0.897392
0.897392
0.897392
0.897392
0.897392
0.897392
0.897392
0.897392
0.897392
0.897392
0.897392
0.897392
0.897392
0.897392
0.897392
0.897392
0.897392
0.897392
0.897392
0.897392
0.897391
0.897391
0.897391
0.897391
0.897391
0.897391
0.89739
0.897388
0.897379
0.897351
0.89726
0.897022
0.906251
0.90648
0.906569
0.906598
0.906607
0.906609
0.90661
0.90661
0.90661
0.90661
0.90661
0.90661
0.90661
0.90661
0.90661
0.90661
0.90661
0.906611
0.906611
0.906611
0.906611
0.906611
0.906611
0.906611
0.906611
0.906611
0.906611
0.906611
0.906611
0.906611
0.906611
0.906611
0.906611
0.906611
0.906611
0.906611
0.906611
0.906611
0.906611
0.906611
0.906611
0.906611
0.906611
0.90661
0.90661
0.90661
0.90661
0.90661
0.90661
0.90661
0.90661
0.90661
0.90661
0.90661
0.906609
0.906607
0.906598
0.906569
0.90648
0.906251
0.914799
0.915018
0.915105
0.915134
0.915143
0.915145
0.915146
0.915146
0.915146
0.915146
0.915146
0.915146
0.915146
0.915146
0.915146
0.915146
0.915146
0.915147
0.915147
0.915147
0.915147
0.915147
0.915147
0.915147
0.915147
0.915147
0.915147
0.915147
0.915147
0.915147
0.915147
0.915147
0.915147
0.915147
0.915147
0.915147
0.915147
0.915147
0.915147
0.915147
0.915147
0.915147
0.915147
0.915146
0.915146
0.915146
0.915146
0.915146
0.915146
0.915146
0.915146
0.915146
0.915146
0.915146
0.915145
0.915143
0.915134
0.915105
0.915018
0.914799
0.922699
0.922908
0.922993
0.923022
0.923031
0.923034
0.923034
0.923035
0.923035
0.923035
0.923035
0.923035
0.923035
0.923035
0.923035
0.923035
0.923035
0.923035
0.923035
0.923035
0.923035
0.923035
0.923035
0.923035
0.923035
0.923035
0.923035
0.923035
0.923035
0.923035
0.923035
0.923035
0.923035
0.923035
0.923035
0.923035
0.923035
0.923035
0.923035
0.923035
0.923035
0.923035
0.923035
0.923035
0.923035
0.923035
0.923035
0.923035
0.923035
0.923035
0.923035
0.923035
0.923035
0.923034
0.923034
0.923031
0.923022
0.922993
0.922908
0.922699
0.929987
0.930187
0.930269
0.930298
0.930307
0.93031
0.930311
0.930311
0.930311
0.930311
0.930311
0.930311
0.930311
0.930311
0.930311
0.930311
0.930311
0.930311
0.930311
0.930311
0.930312
0.930312
0.930312
0.930312
0.930312
0.930312
0.930312
0.930312
0.930312
0.930312
0.930312
0.930312
0.930312
0.930312
0.930312
0.930312
0.930312
0.930312
0.930312
0.930312
0.930311
0.930311
0.930311
0.930311
0.930311
0.930311
0.930311
0.930311
0.930311
0.930311
0.930311
0.930311
0.930311
0.930311
0.93031
0.930307
0.930298
0.930269
0.930187
0.929987
0.936698
0.936888
0.936968
0.936997
0.937006
0.937009
0.937009
0.93701
0.93701
0.93701
0.93701
0.93701
0.93701
0.93701
0.93701
0.93701
0.93701
0.93701
0.93701
0.93701
0.93701
0.93701
0.93701
0.93701
0.93701
0.93701
0.93701
0.93701
0.93701
0.93701
0.93701
0.93701
0.93701
0.93701
0.93701
0.93701
0.93701
0.93701
0.93701
0.93701
0.93701
0.93701
0.93701
0.93701
0.93701
0.93701
0.93701
0.93701
0.93701
0.93701
0.93701
0.93701
0.93701
0.937009
0.937009
0.937006
0.936997
0.936968
0.936888
0.936698
0.942866
0.943045
0.943123
0.943151
0.94316
0.943163
0.943164
0.943164
0.943165
0.943165
0.943165
0.943165
0.943165
0.943165
0.943165
0.943165
0.943165
0.943165
0.943165
0.943165
0.943165
0.943165
0.943165
0.943165
0.943165
0.943165
0.943165
0.943165
0.943165
0.943165
0.943165
0.943165
0.943165
0.943165
0.943165
0.943165
0.943165
0.943165
0.943165
0.943165
0.943165
0.943165
0.943165
0.943165
0.943165
0.943165
0.943165
0.943165
0.943165
0.943165
0.943165
0.943165
0.943164
0.943164
0.943163
0.94316
0.943151
0.943123
0.943045
0.942866
0.948523
0.948692
0.948767
0.948795
0.948804
0.948807
0.948808
0.948809
0.948809
0.948809
0.948809
0.948809
0.948809
0.948809
0.948809
0.948809
0.948809
0.948809
0.948809
0.948809
0.948809
0.948809
0.948809
0.948809
0.948809
0.948809
0.948809
0.948809
0.948809
0.948809
0.948809
0.948809
0.948809
0.948809
0.948809
0.948809
0.948809
0.948809
0.948809
0.948809
0.948809
0.948809
0.948809
0.948809
0.948809
0.948809
0.948809
0.948809
0.948809
0.948809
0.948809
0.948809
0.948809
0.948808
0.948807
0.948804
0.948795
0.948767
0.948692
0.948523
0.953701
0.953861
0.953933
0.953961
0.95397
0.953973
0.953974
0.953974
0.953974
0.953975
0.953975
0.953975
0.953975
0.953975
0.953975
0.953975
0.953975
0.953975
0.953975
0.953975
0.953975
0.953975
0.953975
0.953975
0.953975
0.953975
0.953975
0.953975
0.953975
0.953975
0.953975
0.953975
0.953975
0.953975
0.953975
0.953975
0.953975
0.953975
0.953975
0.953975
0.953975
0.953975
0.953975
0.953975
0.953975
0.953975
0.953975
0.953975
0.953975
0.953975
0.953975
0.953974
0.953974
0.953974
0.953973
0.95397
0.953961
0.953933
0.953861
0.953701
0.958433
0.958583
0.958652
0.958679
0.958689
0.958692
0.958693
0.958693
0.958693
0.958693
0.958693
0.958693
0.958693
0.958693
0.958693
0.958693
0.958693
0.958693
0.958693
0.958693
0.958693
0.958693
0.958693
0.958693
0.958693
0.958693
0.958693
0.958693
0.958693
0.958693
0.958693
0.958693
0.958693
0.958693
0.958693
0.958693
0.958693
0.958693
0.958693
0.958693
0.958693
0.958693
0.958693
0.958693
0.958693
0.958693
0.958693
0.958693
0.958693
0.958693
0.958693
0.958693
0.958693
0.958693
0.958692
0.958689
0.958679
0.958652
0.958583
0.958433
0.962748
0.962889
0.962955
0.962981
0.962991
0.962994
0.962995
0.962995
0.962995
0.962995
0.962995
0.962995
0.962995
0.962995
0.962995
0.962995
0.962995
0.962995
0.962995
0.962995
0.962995
0.962995
0.962995
0.962995
0.962995
0.962995
0.962995
0.962995
0.962995
0.962995
0.962995
0.962995
0.962995
0.962995
0.962995
0.962995
0.962995
0.962995
0.962995
0.962995
0.962995
0.962995
0.962995
0.962995
0.962995
0.962995
0.962995
0.962995
0.962995
0.962995
0.962995
0.962995
0.962995
0.962995
0.962994
0.962991
0.962981
0.962955
0.962889
0.962748
0.966675
0.966807
0.96687
0.966896
0.966905
0.966908
0.966909
0.96691
0.96691
0.96691
0.96691
0.96691
0.96691
0.96691
0.96691
0.96691
0.96691
0.96691
0.96691
0.96691
0.96691
0.96691
0.96691
0.96691
0.96691
0.96691
0.96691
0.96691
0.96691
0.96691
0.96691
0.96691
0.96691
0.96691
0.96691
0.96691
0.96691
0.96691
0.96691
0.96691
0.96691
0.96691
0.96691
0.96691
0.96691
0.96691
0.96691
0.96691
0.96691
0.96691
0.96691
0.96691
0.96691
0.966909
0.966908
0.966905
0.966896
0.96687
0.966807
0.966675
0.970242
0.970366
0.970425
0.97045
0.97046
0.970463
0.970464
0.970464
0.970464
0.970464
0.970464
0.970464
0.970464
0.970464
0.970464
0.970464
0.970464
0.970464
0.970464
0.970464
0.970464
0.970464
0.970464
0.970464
0.970464
0.970464
0.970464
0.970464
0.970464
0.970464
0.970464
0.970464
0.970464
0.970464
0.970464
0.970464
0.970464
0.970464
0.970464
0.970464
0.970464
0.970464
0.970464
0.970464
0.970464
0.970464
0.970464
0.970464
0.970464
0.970464
0.970464
0.970464
0.970464
0.970464
0.970463
0.97046
0.97045
0.970425
0.970366
0.970242
0.973477
0.973591
0.973648
0.973672
0.973682
0.973685
0.973686
0.973686
0.973686
0.973686
0.973686
0.973686
0.973686
0.973686
0.973686
0.973686
0.973686
0.973686
0.973686
0.973686
0.973686
0.973686
0.973686
0.973686
0.973686
0.973686
0.973686
0.973686
0.973686
0.973686
0.973686
0.973686
0.973686
0.973686
0.973686
0.973686
0.973686
0.973686
0.973686
0.973686
0.973686
0.973686
0.973686
0.973686
0.973686
0.973686
0.973686
0.973686
0.973686
0.973686
0.973686
0.973686
0.973686
0.973686
0.973685
0.973682
0.973672
0.973648
0.973591
0.973477
0.976403
0.97651
0.976563
0.976587
0.976596
0.976599
0.9766
0.976601
0.976601