/*--------------------------------*- C++ -*----------------------------------*\
| =========                 |                                                 |
| \\      /  F ield         | foam-extend: Open Source CFD                    |
|  \\    /   O peration     | Version:     4.0                                |
|   \\  /    A nd           | Web:         http://www.foam-extend.org         |
|    \\/     M anipulation  |                                                 |
\*---------------------------------------------------------------------------*/
FoamFile
{
    version     2.0;
    format      ascii;
    class       volScalarField;
    location    "200";
    object      psiE;
}
// * * * * * * * * * * * * * * * * * * * * * * * * * * * * * * * * * * * * * //

dimensions      [0 0 0 0 0 0 0];

internalField   nonuniform List<scalar> 
6960
(
0.363167
0.363189
0.363192
0.363192
0.363191
0.36319
0.36319
0.36319
0.36319
0.363191
0.363191
0.363192
0.363192
0.363193
0.363193
0.363194
0.363194
0.363195
0.363196
0.363196
0.363197
0.363197
0.363197
0.363198
0.363198
0.363198
0.363198
0.363199
0.363199
0.363199
0.363199
0.363199
0.363199
0.363198
0.363198
0.363198
0.363198
0.363197
0.363197
0.363197
0.363196
0.363196
0.363195
0.363194
0.363194
0.363193
0.363193
0.363192
0.363192
0.363191
0.363191
0.36319
0.36319
0.36319
0.36319
0.363191
0.363192
0.363192
0.363189
0.363167
0.935544
0.935618
0.935628
0.935625
0.935622
0.935619
0.935618
0.935617
0.935616
0.935616
0.935617
0.935617
0.935618
0.935619
0.93562
0.935622
0.935623
0.935624
0.935625
0.935626
0.935627
0.935628
0.935629
0.93563
0.935631
0.935631
0.935632
0.935632
0.935632
0.935632
0.935632
0.935632
0.935632
0.935632
0.935631
0.935631
0.93563
0.935629
0.935628
0.935627
0.935626
0.935625
0.935624
0.935623
0.935622
0.93562
0.935619
0.935618
0.935617
0.935617
0.935616
0.935616
0.935617
0.935618
0.935619
0.935622
0.935625
0.935628
0.935618
0.935544
1.45029
1.45041
1.45042
1.45042
1.45041
1.45041
1.4504
1.4504
1.4504
1.4504
1.4504
1.4504
1.4504
1.4504
1.4504
1.4504
1.4504
1.4504
1.45041
1.45041
1.45041
1.45041
1.45041
1.45041
1.45041
1.45041
1.45042
1.45042
1.45042
1.45042
1.45042
1.45042
1.45042
1.45042
1.45041
1.45041
1.45041
1.45041
1.45041
1.45041
1.45041
1.45041
1.4504
1.4504
1.4504
1.4504
1.4504
1.4504
1.4504
1.4504
1.4504
1.4504
1.4504
1.4504
1.45041
1.45041
1.45042
1.45042
1.45041
1.45029
1.92361
1.92377
1.92378
1.92377
1.92376
1.92375
1.92374
1.92374
1.92373
1.92373
1.92373
1.92373
1.92373
1.92373
1.92373
1.92374
1.92374
1.92374
1.92374
1.92374
1.92374
1.92375
1.92375
1.92375
1.92375
1.92375
1.92375
1.92375
1.92375
1.92375
1.92375
1.92375
1.92375
1.92375
1.92375
1.92375
1.92375
1.92375
1.92375
1.92374
1.92374
1.92374
1.92374
1.92374
1.92374
1.92373
1.92373
1.92373
1.92373
1.92373
1.92373
1.92373
1.92374
1.92374
1.92375
1.92376
1.92377
1.92378
1.92377
1.92361
2.35542
2.35559
2.35561
2.35559
2.35557
2.35556
2.35555
2.35554
2.35554
2.35553
2.35553
2.35553
2.35553
2.35553
2.35553
2.35553
2.35553
2.35554
2.35554
2.35554
2.35554
2.35554
2.35554
2.35555
2.35555
2.35555
2.35555
2.35555
2.35555
2.35555
2.35555
2.35555
2.35555
2.35555
2.35555
2.35555
2.35555
2.35554
2.35554
2.35554
2.35554
2.35554
2.35554
2.35553
2.35553
2.35553
2.35553
2.35553
2.35553
2.35553
2.35553
2.35554
2.35554
2.35555
2.35556
2.35557
2.35559
2.35561
2.35559
2.35542
2.74137
2.74153
2.74154
2.74151
2.74149
2.74147
2.74146
2.74145
2.74144
2.74143
2.74143
2.74143
2.74143
2.74143
2.74143
2.74143
2.74143
2.74143
2.74144
2.74144
2.74144
2.74144
2.74144
2.74144
2.74145
2.74145
2.74145
2.74145
2.74145
2.74145
2.74145
2.74145
2.74145
2.74145
2.74145
2.74145
2.74144
2.74144
2.74144
2.74144
2.74144
2.74144
2.74143
2.74143
2.74143
2.74143
2.74143
2.74143
2.74143
2.74143
2.74143
2.74144
2.74145
2.74146
2.74147
2.74149
2.74151
2.74154
2.74153
2.74137
3.07714
3.07726
3.07726
3.07723
3.0772
3.07717
3.07716
3.07714
3.07713
3.07713
3.07712
3.07712
3.07712
3.07712
3.07712
3.07712
3.07712
3.07713
3.07713
3.07713
3.07713
3.07713
3.07713
3.07714
3.07714
3.07714
3.07714
3.07714
3.07714
3.07714
3.07714
3.07714
3.07714
3.07714
3.07714
3.07714
3.07714
3.07713
3.07713
3.07713
3.07713
3.07713
3.07713
3.07712
3.07712
3.07712
3.07712
3.07712
3.07712
3.07712
3.07713
3.07713
3.07714
3.07716
3.07717
3.0772
3.07723
3.07726
3.07726
3.07714
3.36095
3.36103
3.361
3.36097
3.36093
3.3609
3.36088
3.36087
3.36086
3.36085
3.36084
3.36084
3.36084
3.36084
3.36084
3.36084
3.36084
3.36085
3.36085
3.36085
3.36085
3.36086
3.36086
3.36086
3.36086
3.36086
3.36086
3.36086
3.36086
3.36086
3.36086
3.36086
3.36086
3.36086
3.36086
3.36086
3.36086
3.36086
3.36086
3.36085
3.36085
3.36085
3.36085
3.36084
3.36084
3.36084
3.36084
3.36084
3.36084
3.36084
3.36085
3.36086
3.36087
3.36088
3.3609
3.36093
3.36097
3.361
3.36103
3.36095
3.59496
3.59498
3.59494
3.5949
3.59486
3.59483
3.5948
3.59479
3.59478
3.59477
3.59476
3.59476
3.59476
3.59476
3.59476
3.59476
3.59476
3.59477
3.59477
3.59477
3.59478
3.59478
3.59478
3.59478
3.59479
3.59479
3.59479
3.59479
3.59479
3.59479
3.59479
3.59479
3.59479
3.59479
3.59479
3.59479
3.59478
3.59478
3.59478
3.59478
3.59477
3.59477
3.59477
3.59476
3.59476
3.59476
3.59476
3.59476
3.59476
3.59476
3.59477
3.59478
3.59479
3.5948
3.59483
3.59486
3.5949
3.59494
3.59498
3.59496
3.78509
3.78506
3.78501
3.78496
3.78492
3.78488
3.78486
3.78484
3.78483
3.78482
3.78481
3.78481
3.78481
3.78481
3.78482
3.78482
3.78482
3.78483
3.78483
3.78484
3.78484
3.78484
3.78485
3.78485
3.78485
3.78485
3.78486
3.78486
3.78486
3.78486
3.78486
3.78486
3.78486
3.78486
3.78485
3.78485
3.78485
3.78485
3.78484
3.78484
3.78484
3.78483
3.78483
3.78482
3.78482
3.78482
3.78481
3.78481
3.78481
3.78481
3.78482
3.78483
3.78484
3.78486
3.78488
3.78492
3.78496
3.78501
3.78506
3.78509
3.93949
3.93942
3.93935
3.9393
3.93925
3.93922
3.93919
3.93918
3.93916
3.93916
3.93915
3.93915
3.93915
3.93916
3.93916
3.93917
3.93917
3.93918
3.93918
3.93919
3.93919
3.9392
3.9392
3.93921
3.93921
3.93921
3.93922
3.93922
3.93922
3.93922
3.93922
3.93922
3.93922
3.93922
3.93921
3.93921
3.93921
3.9392
3.9392
3.93919
3.93919
3.93918
3.93918
3.93917
3.93917
3.93916
3.93916
3.93915
3.93915
3.93915
3.93916
3.93916
3.93918
3.93919
3.93922
3.93925
3.9393
3.93935
3.93942
3.93949
4.06655
4.06644
4.06637
4.06631
4.06626
4.06623
4.0662
4.06619
4.06617
4.06617
4.06617
4.06617
4.06617
4.06618
4.06618
4.06619
4.0662
4.06621
4.06621
4.06622
4.06623
4.06623
4.06624
4.06624
4.06625
4.06625
4.06626
4.06626
4.06626
4.06626
4.06626
4.06626
4.06626
4.06626
4.06625
4.06625
4.06624
4.06624
4.06623
4.06623
4.06622
4.06621
4.06621
4.0662
4.06619
4.06618
4.06618
4.06617
4.06617
4.06617
4.06617
4.06617
4.06619
4.0662
4.06623
4.06626
4.06631
4.06637
4.06644
4.06655
4.17347
4.17334
4.17326
4.1732
4.17315
4.17312
4.1731
4.17308
4.17307
4.17307
4.17307
4.17307
4.17308
4.17309
4.1731
4.17311
4.17312
4.17313
4.17314
4.17314
4.17315
4.17316
4.17317
4.17317
4.17318
4.17318
4.17319
4.17319
4.17319
4.17319
4.17319
4.17319
4.17319
4.17319
4.17318
4.17318
4.17317
4.17317
4.17316
4.17315
4.17314
4.17314
4.17313
4.17312
4.17311
4.1731
4.17309
4.17308
4.17307
4.17307
4.17307
4.17307
4.17308
4.1731
4.17312
4.17315
4.1732
4.17326
4.17334
4.17347
4.26578
4.26563
4.26555
4.26549
4.26544
4.26541
4.26539
4.26537
4.26537
4.26536
4.26537
4.26537
4.26538
4.26539
4.26541
4.26542
4.26543
4.26544
4.26546
4.26547
4.26548
4.26549
4.2655
4.2655
4.26551
4.26552
4.26552
4.26552
4.26553
4.26553
4.26553
4.26553
4.26552
4.26552
4.26552
4.26551
4.2655
4.2655
4.26549
4.26548
4.26547
4.26546
4.26544
4.26543
4.26542
4.26541
4.26539
4.26538
4.26537
4.26537
4.26536
4.26537
4.26537
4.26539
4.26541
4.26544
4.26549
4.26555
4.26563
4.26578
4.34739
4.34723
4.34714
4.34708
4.34703
4.347
4.34698
4.34697
4.34697
4.34697
4.34697
4.34698
4.34699
4.34701
4.34702
4.34704
4.34705
4.34707
4.34708
4.3471
4.34711
4.34712
4.34713
4.34714
4.34715
4.34716
4.34716
4.34717
4.34717
4.34717
4.34717
4.34717
4.34717
4.34716
4.34716
4.34715
4.34714
4.34713
4.34712
4.34711
4.3471
4.34708
4.34707
4.34705
4.34704
4.34702
4.34701
4.34699
4.34698
4.34697
4.34697
4.34697
4.34697
4.34698
4.347
4.34703
4.34708
4.34714
4.34723
4.34739
4.42098
4.42082
4.42073
4.42067
4.42062
4.42059
4.42057
4.42056
4.42056
4.42057
4.42058
4.42059
4.42061
4.42062
4.42064
4.42066
4.42068
4.4207
4.42071
4.42073
4.42075
4.42076
4.42077
4.42078
4.42079
4.4208
4.42081
4.42081
4.42082
4.42082
4.42082
4.42082
4.42081
4.42081
4.4208
4.42079
4.42078
4.42077
4.42076
4.42075
4.42073
4.42071
4.4207
4.42068
4.42066
4.42064
4.42062
4.42061
4.42059
4.42058
4.42057
4.42056
4.42056
4.42057
4.42059
4.42062
4.42067
4.42073
4.42082
4.42098
4.48842
4.48825
4.48816
4.4881
4.48806
4.48803
4.48801
4.48801
4.48801
4.48802
4.48803
4.48804
4.48806
4.48808
4.48811
4.48813
4.48815
4.48817
4.48819
4.48821
4.48823
4.48825
4.48826
4.48827
4.48828
4.48829
4.4883
4.48831
4.48831
4.48831
4.48831
4.48831
4.48831
4.4883
4.48829
4.48828
4.48827
4.48826
4.48825
4.48823
4.48821
4.48819
4.48817
4.48815
4.48813
4.48811
4.48808
4.48806
4.48804
4.48803
4.48802
4.48801
4.48801
4.48801
4.48803
4.48806
4.4881
4.48816
4.48825
4.48842
4.551
4.55083
4.55074
4.55068
4.55064
4.55061
4.5506
4.5506
4.5506
4.55061
4.55063
4.55065
4.55067
4.5507
4.55072
4.55075
4.55077
4.5508
4.55082
4.55084
4.55086
4.55088
4.5509
4.55091
4.55093
4.55094
4.55095
4.55095
4.55096
4.55096
4.55096
4.55096
4.55095
4.55095
4.55094
4.55093
4.55091
4.5509
4.55088
4.55086
4.55084
4.55082
4.5508
4.55077
4.55075
4.55072
4.5507
4.55067
4.55065
4.55063
4.55061
4.5506
4.5506
4.5506
4.55061
4.55064
4.55068
4.55074
4.55083
4.551
4.60968
4.60951
4.60942
4.60936
4.60932
4.60929
4.60928
4.60928
4.60929
4.6093
4.60932
4.60935
4.60938
4.6094
4.60943
4.60946
4.60949
4.60952
4.60955
4.60957
4.60959
4.60962
4.60963
4.60965
4.60967
4.60968
4.60969
4.60969
4.6097
4.6097
4.6097
4.6097
4.60969
4.60969
4.60968
4.60967
4.60965
4.60963
4.60962
4.60959
4.60957
4.60955
4.60952
4.60949
4.60946
4.60943
4.6094
4.60938
4.60935
4.60932
4.6093
4.60929
4.60928
4.60928
4.60929
4.60932
4.60936
4.60942
4.60951
4.60968
4.66516
4.66499
4.66489
4.66484
4.6648
4.66478
4.66477
4.66477
4.66478
4.6648
4.66483
4.66485
4.66489
4.66492
4.66495
4.66498
4.66502
4.66505
4.66508
4.66511
4.66513
4.66516
4.66518
4.6652
4.66521
4.66523
4.66524
4.66524
4.66525
4.66525
4.66525
4.66525
4.66524
4.66524
4.66523
4.66521
4.6652
4.66518
4.66516
4.66513
4.66511
4.66508
4.66505
4.66502
4.66498
4.66495
4.66492
4.66489
4.66485
4.66483
4.6648
4.66478
4.66477
4.66477
4.66478
4.6648
4.66484
4.66489
4.66499
4.66516
4.71799
4.71782
4.71773
4.71767
4.71764
4.71762
4.71761
4.71762
4.71763
4.71766
4.71769
4.71772
4.71775
4.71779
4.71783
4.71786
4.7179
4.71794
4.71797
4.718
4.71803
4.71806
4.71808
4.7181
4.71812
4.71813
4.71814
4.71815
4.71816
4.71816
4.71816
4.71816
4.71815
4.71814
4.71813
4.71812
4.7181
4.71808
4.71806
4.71803
4.718
4.71797
4.71794
4.7179
4.71786
4.71783
4.71779
4.71775
4.71772
4.71769
4.71766
4.71763
4.71762
4.71761
4.71762
4.71764
4.71767
4.71773
4.71782
4.71799
4.76862
4.76845
4.76836
4.7683
4.76827
4.76825
4.76825
4.76826
4.76828
4.76831
4.76834
4.76838
4.76842
4.76846
4.7685
4.76854
4.76858
4.76862
4.76866
4.76869
4.76872
4.76875
4.76878
4.7688
4.76882
4.76884
4.76885
4.76886
4.76887
4.76887
4.76887
4.76887
4.76886
4.76885
4.76884
4.76882
4.7688
4.76878
4.76875
4.76872
4.76869
4.76866
4.76862
4.76858
4.76854
4.7685
4.76846
4.76842
4.76838
4.76834
4.76831
4.76828
4.76826
4.76825
4.76825
4.76827
4.7683
4.76836
4.76845
4.76862
4.8174
4.81724
4.81714
4.81709
4.81706
4.81704
4.81704
4.81706
4.81708
4.81711
4.81715
4.81719
4.81723
4.81728
4.81733
4.81737
4.81742
4.81746
4.8175
4.81754
4.81757
4.8176
4.81763
4.81766
4.81768
4.8177
4.81771
4.81772
4.81773
4.81773
4.81773
4.81773
4.81772
4.81771
4.8177
4.81768
4.81766
4.81763
4.8176
4.81757
4.81754
4.8175
4.81746
4.81742
4.81737
4.81733
4.81728
4.81723
4.81719
4.81715
4.81711
4.81708
4.81706
4.81704
4.81704
4.81706
4.81709
4.81714
4.81724
4.8174
4.86462
4.86447
4.86437
4.86432
4.86429
4.86428
4.86429
4.8643
4.86433
4.86437
4.86441
4.86445
4.8645
4.86455
4.8646
4.86465
4.8647
4.86475
4.86479
4.86483
4.86487
4.86491
4.86494
4.86497
4.86499
4.86501
4.86502
4.86504
4.86504
4.86505
4.86505
4.86504
4.86504
4.86502
4.86501
4.86499
4.86497
4.86494
4.86491
4.86487
4.86483
4.86479
4.86475
4.8647
4.86465
4.8646
4.86455
4.8645
4.86445
4.86441
4.86437
4.86433
4.8643
4.86429
4.86428
4.86429
4.86432
4.86437
4.86447
4.86462
4.91055
4.9104
4.9103
4.91025
4.91022
4.91022
4.91023
4.91025
4.91028
4.91032
4.91037
4.91042
4.91047
4.91052
4.91058
4.91063
4.91069
4.91074
4.91079
4.91083
4.91087
4.91091
4.91094
4.91097
4.911
4.91102
4.91104
4.91105
4.91106
4.91106
4.91106
4.91106
4.91105
4.91104
4.91102
4.911
4.91097
4.91094
4.91091
4.91087
4.91083
4.91079
4.91074
4.91069
4.91063
4.91058
4.91052
4.91047
4.91042
4.91037
4.91032
4.91028
4.91025
4.91023
4.91022
4.91022
4.91025
4.9103
4.9104
4.91055
4.95538
4.95524
4.95514
4.95509
4.95507
4.95507
4.95508
4.9551
4.95514
4.95518
4.95524
4.95529
4.95535
4.95541
4.95547
4.95553
4.95559
4.95564
4.95569
4.95574
4.95579
4.95583
4.95587
4.9559
4.95592
4.95595
4.95597
4.95598
4.95599
4.95599
4.95599
4.95599
4.95598
4.95597
4.95595
4.95592
4.9559
4.95587
4.95583
4.95579
4.95574
4.95569
4.95564
4.95559
4.95553
4.95547
4.95541
4.95535
4.95529
4.95524
4.95518
4.95514
4.9551
4.95508
4.95507
4.95507
4.95509
4.95514
4.95524
4.95538
4.99932
4.99917
4.99908
4.99903
4.99901
4.99901
4.99903
4.99906
4.9991
4.99915
4.9992
4.99926
4.99933
4.99939
4.99946
4.99952
4.99958
4.99964
4.9997
4.99975
4.9998
4.99985
4.99988
4.99992
4.99995
4.99997
4.99999
5.00001
5.00002
5.00002
5.00002
5.00002
5.00001
4.99999
4.99997
4.99995
4.99992
4.99988
4.99985
4.9998
4.99975
4.9997
4.99964
4.99958
4.99952
4.99946
4.99939
4.99933
4.99926
4.9992
4.99915
4.9991
4.99906
4.99903
4.99901
4.99901
4.99903
4.99908
4.99917
4.99932
5.04251
5.04237
5.04228
5.04223
5.04221
5.04221
5.04223
5.04227
5.04231
5.04237
5.04243
5.0425
5.04257
5.04264
5.04271
5.04278
5.04284
5.04291
5.04297
5.04302
5.04308
5.04312
5.04317
5.0432
5.04323
5.04326
5.04328
5.0433
5.04331
5.04331
5.04331
5.04331
5.0433
5.04328
5.04326
5.04323
5.0432
5.04317
5.04312
5.04308
5.04302
5.04297
5.04291
5.04284
5.04278
5.04271
5.04264
5.04257
5.0425
5.04243
5.04237
5.04231
5.04227
5.04223
5.04221
5.04221
5.04223
5.04228
5.04237
5.04251
5.0851
5.08496
5.08488
5.08483
5.08482
5.08482
5.08485
5.08488
5.08494
5.085
5.08506
5.08513
5.08521
5.08528
5.08536
5.08544
5.08551
5.08558
5.08564
5.0857
5.08576
5.08581
5.08585
5.08589
5.08593
5.08596
5.08598
5.086
5.08601
5.08601
5.08601
5.08601
5.086
5.08598
5.08596
5.08593
5.08589
5.08585
5.08581
5.08576
5.0857
5.08564
5.08558
5.08551
5.08544
5.08536
5.08528
5.08521
5.08513
5.08506
5.085
5.08494
5.08488
5.08485
5.08482
5.08482
5.08483
5.08488
5.08496
5.0851
5.12723
5.12709
5.12701
5.12697
5.12695
5.12696
5.12699
5.12703
5.12709
5.12716
5.12723
5.12731
5.12739
5.12747
5.12755
5.12763
5.12771
5.12778
5.12785
5.12791
5.12797
5.12803
5.12808
5.12812
5.12815
5.12819
5.12821
5.12823
5.12824
5.12825
5.12825
5.12824
5.12823
5.12821
5.12819
5.12815
5.12812
5.12808
5.12803
5.12797
5.12791
5.12785
5.12778
5.12771
5.12763
5.12755
5.12747
5.12739
5.12731
5.12723
5.12716
5.12709
5.12703
5.12699
5.12696
5.12695
5.12697
5.12701
5.12709
5.12723
5.169
5.16887
5.16879
5.16875
5.16874
5.16875
5.16879
5.16883
5.1689
5.16897
5.16904
5.16913
5.16921
5.1693
5.16939
5.16947
5.16956
5.16964
5.16971
5.16978
5.16984
5.1699
5.16995
5.17
5.17004
5.17007
5.17009
5.17011
5.17013
5.17013
5.17013
5.17013
5.17011
5.17009
5.17007
5.17004
5.17
5.16995
5.1699
5.16984
5.16978
5.16971
5.16964
5.16956
5.16947
5.16939
5.1693
5.16921
5.16913
5.16904
5.16897
5.1689
5.16883
5.16879
5.16875
5.16874
5.16875
5.16879
5.16887
5.169
5.21053
5.21041
5.21033
5.21029
5.21028
5.2103
5.21034
5.21039
5.21046
5.21054
5.21062
5.21071
5.2108
5.2109
5.21099
5.21108
5.21117
5.21125
5.21133
5.2114
5.21147
5.21153
5.21159
5.21164
5.21168
5.21171
5.21174
5.21176
5.21177
5.21178
5.21178
5.21177
5.21176
5.21174
5.21171
5.21168
5.21164
5.21159
5.21153
5.21147
5.2114
5.21133
5.21125
5.21117
5.21108
5.21099
5.2109
5.2108
5.21071
5.21062
5.21054
5.21046
5.21039
5.21034
5.2103
5.21028
5.21029
5.21033
5.21041
5.21053
5.25192
5.2518
5.25172
5.25169
5.25168
5.25171
5.25175
5.25181
5.25188
5.25196
5.25205
5.25215
5.25225
5.25235
5.25245
5.25254
5.25264
5.25273
5.25281
5.25289
5.25296
5.25303
5.25308
5.25313
5.25318
5.25321
5.25324
5.25327
5.25328
5.25329
5.25329
5.25328
5.25327
5.25324
5.25321
5.25318
5.25313
5.25308
5.25303
5.25296
5.25289
5.25281
5.25273
5.25264
5.25254
5.25245
5.25235
5.25225
5.25215
5.25205
5.25196
5.25188
5.25181
5.25175
5.25171
5.25168
5.25169
5.25172
5.2518
5.25192
5.29326
5.29314
5.29307
5.29303
5.29303
5.29306
5.29311
5.29317
5.29325
5.29334
5.29343
5.29354
5.29364
5.29375
5.29385
5.29396
5.29406
5.29415
5.29424
5.29432
5.2944
5.29447
5.29453
5.29459
5.29463
5.29467
5.2947
5.29472
5.29474
5.29475
5.29475
5.29474
5.29472
5.2947
5.29467
5.29463
5.29459
5.29453
5.29447
5.2944
5.29432
5.29424
5.29415
5.29406
5.29396
5.29385
5.29375
5.29364
5.29354
5.29343
5.29334
5.29325
5.29317
5.29311
5.29306
5.29303
5.29303
5.29307
5.29314
5.29326
5.33463
5.33452
5.33444
5.33441
5.33442
5.33445
5.3345
5.33457
5.33465
5.33475
5.33485
5.33496
5.33507
5.33519
5.3353
5.33541
5.33551
5.33562
5.33571
5.3358
5.33588
5.33595
5.33602
5.33607
5.33612
5.33616
5.3362
5.33622
5.33624
5.33625
5.33625
5.33624
5.33622
5.3362
5.33616
5.33612
5.33607
5.33602
5.33595
5.33588
5.3358
5.33571
5.33562
5.33551
5.33541
5.3353
5.33519
5.33507
5.33496
5.33485
5.33475
5.33465
5.33457
5.3345
5.33445
5.33442
5.33441
5.33444
5.33452
5.33463
5.37612
5.37601
5.37594
5.37591
5.37592
5.37596
5.37601
5.37609
5.37618
5.37628
5.37639
5.37651
5.37663
5.37675
5.37686
5.37698
5.37709
5.3772
5.3773
5.37739
5.37748
5.37755
5.37762
5.37768
5.37774
5.37778
5.37781
5.37784
5.37786
5.37787
5.37787
5.37786
5.37784
5.37781
5.37778
5.37774
5.37768
5.37762
5.37755
5.37748
5.37739
5.3773
5.3772
5.37709
5.37698
5.37686
5.37675
5.37663
5.37651
5.37639
5.37628
5.37618
5.37609
5.37601
5.37596
5.37592
5.37591
5.37594
5.37601
5.37612
5.4178
5.4177
5.41763
5.41761
5.41762
5.41766
5.41772
5.4178
5.4179
5.41801
5.41812
5.41825
5.41837
5.4185
5.41863
5.41875
5.41887
5.41898
5.41909
5.41918
5.41927
5.41936
5.41943
5.41949
5.41955
5.41959
5.41963
5.41966
5.41968
5.41969
5.41969
5.41968
5.41966
5.41963
5.41959
5.41955
5.41949
5.41943
5.41936
5.41927
5.41918
5.41909
5.41898
5.41887
5.41875
5.41863
5.4185
5.41837
5.41825
5.41812
5.41801
5.4179
5.4178
5.41772
5.41766
5.41762
5.41761
5.41763
5.4177
5.4178
5.45975
5.45965
5.45959
5.45957
5.45958
5.45963
5.4597
5.45978
5.45989
5.46
5.46013
5.46026
5.46039
5.46053
5.46066
5.46079
5.46091
5.46103
5.46114
5.46125
5.46134
5.46143
5.46151
5.46157
5.46163
5.46168
5.46172
5.46175
5.46177
5.46178
5.46178
5.46177
5.46175
5.46172
5.46168
5.46163
5.46157
5.46151
5.46143
5.46134
5.46125
5.46114
5.46103
5.46091
5.46079
5.46066
5.46053
5.46039
5.46026
5.46013
5.46
5.45989
5.45978
5.4597
5.45963
5.45958
5.45957
5.45959
5.45965
5.45975
5.50204
5.50195
5.50189
5.50187
5.50189
5.50194
5.50201
5.50211
5.50222
5.50234
5.50247
5.50261
5.50275
5.5029
5.50304
5.50317
5.5033
5.50343
5.50355
5.50366
5.50376
5.50385
5.50393
5.504
5.50406
5.50411
5.50415
5.50418
5.5042
5.50421
5.50421
5.5042
5.50418
5.50415
5.50411
5.50406
5.504
5.50393
5.50385
5.50376
5.50366
5.50355
5.50343
5.5033
5.50317
5.50304
5.5029
5.50275
5.50261
5.50247
5.50234
5.50222
5.50211
5.50201
5.50194
5.50189
5.50187
5.50189
5.50195
5.50204
5.54474
5.54465
5.5446
5.54458
5.54461
5.54466
5.54474
5.54484
5.54496
5.54509
5.54523
5.54538
5.54553
5.54568
5.54583
5.54597
5.54611
5.54624
5.54636
5.54648
5.54658
5.54668
5.54677
5.54684
5.5469
5.54696
5.547
5.54703
5.54705
5.54707
5.54707
5.54705
5.54703
5.547
5.54696
5.5469
5.54684
5.54677
5.54668
5.54658
5.54648
5.54636
5.54624
5.54611
5.54597
5.54583
5.54568
5.54553
5.54538
5.54523
5.54509
5.54496
5.54484
5.54474
5.54466
5.54461
5.54458
5.5446
5.54465
5.54474
5.58792
5.58784
5.58778
5.58777
5.5878
5.58786
5.58795
5.58806
5.58818
5.58832
5.58847
5.58862
5.58878
5.58894
5.58909
5.58925
5.58939
5.58953
5.58966
5.58978
5.58989
5.58999
5.59008
5.59016
5.59023
5.59029
5.59033
5.59036
5.59039
5.5904
5.5904
5.59039
5.59036
5.59033
5.59029
5.59023
5.59016
5.59008
5.58999
5.58989
5.58978
5.58966
5.58953
5.58939
5.58925
5.58909
5.58894
5.58878
5.58862
5.58847
5.58832
5.58818
5.58806
5.58795
5.58786
5.5878
5.58777
5.58778
5.58784
5.58792
5.63164
5.63156
5.63151
5.63151
5.63154
5.63161
5.6317
5.63181
5.63195
5.63209
5.63225
5.63241
5.63258
5.63275
5.63291
5.63307
5.63322
5.63337
5.63351
5.63363
5.63375
5.63385
5.63395
5.63403
5.6341
5.63416
5.63421
5.63424
5.63427
5.63428
5.63428
5.63427
5.63424
5.63421
5.63416
5.6341
5.63403
5.63395
5.63385
5.63375
5.63363
5.63351
5.63337
5.63322
5.63307
5.63291
5.63275
5.63258
5.63241
5.63225
5.63209
5.63195
5.63181
5.6317
5.63161
5.63154
5.63151
5.63151
5.63156
5.63164
5.67597
5.67589
5.67585
5.67585
5.67589
5.67596
5.67606
5.67618
5.67632
5.67648
5.67664
5.67681
5.67699
5.67716
5.67733
5.6775
5.67766
5.67782
5.67796
5.67809
5.67822
5.67833
5.67843
5.67851
5.67859
5.67865
5.6787
5.67874
5.67876
5.67877
5.67877
5.67876
5.67874
5.6787
5.67865
5.67859
5.67851
5.67843
5.67833
5.67822
5.67809
5.67796
5.67782
5.67766
5.6775
5.67733
5.67716
5.67699
5.67681
5.67664
5.67648
5.67632
5.67618
5.67606
5.67596
5.67589
5.67585
5.67585
5.67589
5.67597
5.72097
5.72089
5.72085
5.72086
5.7209
5.72098
5.72109
5.72122
5.72137
5.72153
5.7217
5.72188
5.72207
5.72225
5.72243
5.72261
5.72278
5.72294
5.72309
5.72323
5.72336
5.72347
5.72358
5.72367
5.72375
5.72381
5.72386
5.7239
5.72393
5.72394
5.72394
5.72393
5.7239
5.72386
5.72381
5.72375
5.72367
5.72358
5.72347
5.72336
5.72323
5.72309
5.72294
5.72278
5.72261
5.72243
5.72225
5.72207
5.72188
5.7217
5.72153
5.72137
5.72122
5.72109
5.72098
5.7209
5.72086
5.72085
5.72089
5.72097
5.7667
5.76663
5.76659
5.7666
5.76665
5.76673
5.76685
5.76699
5.76714
5.76732
5.7675
5.76769
5.76788
5.76808
5.76827
5.76845
5.76863
5.7688
5.76896
5.7691
5.76924
5.76936
5.76947
5.76956
5.76964
5.76971
5.76977
5.76981
5.76983
5.76985
5.76985
5.76983
5.76981
5.76977
5.76971
5.76964
5.76956
5.76947
5.76936
5.76924
5.7691
5.76896
5.7688
5.76863
5.76845
5.76827
5.76808
5.76788
5.76769
5.7675
5.76732
5.76714
5.76699
5.76685
5.76673
5.76665
5.7666
5.76659
5.76663
5.7667
5.81322
5.81316
5.81312
5.81314
5.81319
5.81328
5.81341
5.81355
5.81372
5.8139
5.81409
5.81429
5.8145
5.8147
5.8149
5.81509
5.81528
5.81545
5.81562
5.81577
5.81592
5.81604
5.81616
5.81626
5.81634
5.81641
5.81647
5.81651
5.81654
5.81655
5.81655
5.81654
5.81651
5.81647
5.81641
5.81634
5.81626
5.81616
5.81604
5.81592
5.81577
5.81562
5.81545
5.81528
5.81509
5.8149
5.8147
5.8145
5.81429
5.81409
5.8139
5.81372
5.81355
5.81341
5.81328
5.81319
5.81314
5.81312
5.81316
5.81322
5.8606
5.86054
5.86051
5.86053
5.86059
5.86069
5.86082
5.86097
5.86115
5.86134
5.86155
5.86175
5.86197
5.86218
5.86239
5.86259
5.86279
5.86297
5.86315
5.86331
5.86345
5.86359
5.86371
5.86381
5.8639
5.86397
5.86403
5.86408
5.86411
5.86412
5.86412
5.86411
5.86408
5.86403
5.86397
5.8639
5.86381
5.86371
5.86359
5.86345
5.86331
5.86315
5.86297
5.86279
5.86259
5.86239
5.86218
5.86197
5.86175
5.86155
5.86134
5.86115
5.86097
5.86082
5.86069
5.86059
5.86053
5.86051
5.86054
5.8606
5.90889
5.90884
5.90882
5.90884
5.90891
5.90901
5.90915
5.90932
5.9095
5.9097
5.90992
5.91014
5.91036
5.91058
5.9108
5.91101
5.91122
5.91141
5.91159
5.91176
5.91192
5.91205
5.91218
5.91229
5.91238
5.91246
5.91252
5.91257
5.9126
5.91261
5.91261
5.9126
5.91257
5.91252
5.91246
5.91238
5.91229
5.91218
5.91205
5.91192
5.91176
5.91159
5.91141
5.91122
5.91101
5.9108
5.91058
5.91036
5.91014
5.90992
5.9097
5.9095
5.90932
5.90915
5.90901
5.90891
5.90884
5.90882
5.90884
5.90889
5.95816
5.95812
5.9581
5.95813
5.9582
5.95831
5.95846
5.95863
5.95883
5.95904
5.95927
5.9595
5.95973
5.95996
5.96019
5.96042
5.96063
5.96083
5.96102
5.9612
5.96136
5.9615
5.96163
5.96175
5.96185
5.96193
5.96199
5.96204
5.96207
5.96209
5.96209
5.96207
5.96204
5.96199
5.96193
5.96185
5.96175
5.96163
5.9615
5.96136
5.9612
5.96102
5.96083
5.96063
5.96042
5.96019
5.95996
5.95973
5.9595
5.95927
5.95904
5.95883
5.95863
5.95846
5.95831
5.9582
5.95813
5.9581
5.95812
5.95816
6.00847
6.00843
6.00842
6.00845
6.00853
6.00865
6.00881
6.00899
6.0092
6.00942
6.00966
6.0099
6.01014
6.01039
6.01063
6.01086
6.01108
6.0113
6.01149
6.01168
6.01185
6.012
6.01213
6.01225
6.01235
6.01244
6.01251
6.01256
6.01259
6.01261
6.01261
6.01259
6.01256
6.01251
6.01244
6.01235
6.01225
6.01213
6.012
6.01185
6.01168
6.01149
6.0113
6.01108
6.01086
6.01063
6.01039
6.01014
6.0099
6.00966
6.00942
6.0092
6.00899
6.00881
6.00865
6.00853
6.00845
6.00842
6.00843
6.00847
6.05988
6.05984
6.05983
6.05988
6.05996
6.06009
6.06026
6.06045
6.06067
6.0609
6.06115
6.0614
6.06166
6.06191
6.06216
6.06241
6.06264
6.06286
6.06307
6.06326
6.06344
6.0636
6.06374
6.06386
6.06397
6.06406
6.06413
6.06418
6.06422
6.06423
6.06423
6.06422
6.06418
6.06413
6.06406
6.06397
6.06386
6.06374
6.0636
6.06344
6.06326
6.06307
6.06286
6.06264
6.06241
6.06216
6.06191
6.06166
6.0614
6.06115
6.0609
6.06067
6.06045
6.06026
6.06009
6.05996
6.05988
6.05983
6.05984
6.05988
6.11245
6.11241
6.11241
6.11246
6.11255
6.11269
6.11286
6.11307
6.1133
6.11354
6.1138
6.11407
6.11434
6.1146
6.11487
6.11512
6.11536
6.11559
6.11581
6.11601
6.11619
6.11636
6.11651
6.11664
6.11675
6.11684
6.11692
6.11697
6.11701
6.11703
6.11703
6.11701
6.11697
6.11692
6.11684
6.11675
6.11664
6.11651
6.11636
6.11619
6.11601
6.11581
6.11559
6.11536
6.11512
6.11487
6.1146
6.11434
6.11407
6.1138
6.11354
6.1133
6.11307
6.11286
6.11269
6.11255
6.11246
6.11241
6.11241
6.11245
6.16623
6.1662
6.16621
6.16626
6.16636
6.16651
6.16669
6.16691
6.16715
6.16741
6.16768
6.16796
6.16824
6.16852
6.16879
6.16906
6.16931
6.16955
6.16978
6.16999
6.17018
6.17035
6.17051
6.17064
6.17076
6.17085
6.17093
6.17099
6.17103
6.17105
6.17105
6.17103
6.17099
6.17093
6.17085
6.17076
6.17064
6.17051
6.17035
6.17018
6.16999
6.16978
6.16955
6.16931
6.16906
6.16879
6.16852
6.16824
6.16796
6.16768
6.16741
6.16715
6.16691
6.16669
6.16651
6.16636
6.16626
6.16621
6.1662
6.16623
6.2213
6.22127
6.22128
6.22134
6.22146
6.22161
6.22181
6.22203
6.22228
6.22255
6.22284
6.22313
6.22342
6.22372
6.224
6.22428
6.22455
6.2248
6.22503
6.22525
6.22545
6.22563
6.22579
6.22593
6.22605
6.22615
6.22623
6.22629
6.22633
6.22635
6.22635
6.22633
6.22629
6.22623
6.22615
6.22605
6.22593
6.22579
6.22563
6.22545
6.22525
6.22503
6.2248
6.22455
6.22428
6.224
6.22372
6.22342
6.22313
6.22284
6.22255
6.22228
6.22203
6.22181
6.22161
6.22146
6.22134
6.22128
6.22127
6.2213
6.27771
6.27769
6.2777
6.27777
6.27789
6.27806
6.27826
6.2785
6.27876
6.27905
6.27935
6.27965
6.27996
6.28026
6.28056
6.28085
6.28113
6.28139
6.28164
6.28187
6.28207
6.28226
6.28243
6.28258
6.2827
6.28281
6.28289
6.28295
6.28299
6.28301
6.28301
6.28299
6.28295
6.28289
6.28281
6.2827
6.28258
6.28243
6.28226
6.28207
6.28187
6.28164
6.28139
6.28113
6.28085
6.28056
6.28026
6.27996
6.27965
6.27935
6.27905
6.27876
6.2785
6.27826
6.27806
6.27789
6.27777
6.2777
6.27769
6.27771
6.33552
6.3355
6.33553
6.33561
6.33573
6.33591
6.33613
6.33638
6.33665
6.33695
6.33726
6.33758
6.3379
6.33822
6.33854
6.33884
6.33913
6.3394
6.33966
6.33989
6.34011
6.34031
6.34048
6.34063
6.34076
6.34087
6.34096
6.34103
6.34107
6.34109
6.34109
6.34107
6.34103
6.34096
6.34087
6.34076
6.34063
6.34048
6.34031
6.34011
6.33989
6.33966
6.3394
6.33913
6.33884
6.33854
6.33822
6.3379
6.33758
6.33726
6.33695
6.33665
6.33638
6.33613
6.33591
6.33573
6.33561
6.33553
6.3355
6.33552
6.3948
6.39479
6.39482
6.39491
6.39505
6.39523
6.39546
6.39572
6.39601
6.39633
6.39665
6.39699
6.39732
6.39765
6.39798
6.3983
6.3986
6.39888
6.39915
6.3994
6.39962
6.39983
6.40001
6.40017
6.4003
6.40042
6.40051
6.40058
6.40062
6.40064
6.40064
6.40062
6.40058
6.40051
6.40042
6.4003
6.40017
6.40001
6.39983
6.39962
6.3994
6.39915
6.39888
6.3986
6.3983
6.39798
6.39765
6.39732
6.39699
6.39665
6.39633
6.39601
6.39572
6.39546
6.39523
6.39505
6.39491
6.39482
6.39479
6.3948
6.45561
6.45561
6.45565
6.45574
6.45589
6.45609
6.45633
6.4566
6.45691
6.45724
6.45758
6.45793
6.45828
6.45862
6.45897
6.45929
6.45961
6.45991
6.46018
6.46044
6.46068
6.46089
6.46108
6.46124
6.46138
6.4615
6.4616
6.46167
6.46171
6.46174
6.46174
6.46171
6.46167
6.4616
6.4615
6.46138
6.46124
6.46108
6.46089
6.46068
6.46044
6.46018
6.45991
6.45961
6.45929
6.45897
6.45862
6.45828
6.45793
6.45758
6.45724
6.45691
6.4566
6.45633
6.45609
6.45589
6.45574
6.45565
6.45561
6.45561
6.51802
6.51802
6.51807
6.51817
6.51833
6.51854
6.51879
6.51908
6.5194
6.51974
6.5201
6.52047
6.52083
6.5212
6.52155
6.5219
6.52222
6.52253
6.52282
6.52309
6.52333
6.52356
6.52375
6.52392
6.52407
6.52419
6.52429
6.52436
6.52441
6.52444
6.52444
6.52441
6.52436
6.52429
6.52419
6.52407
6.52392
6.52375
6.52356
6.52333
6.52309
6.52282
6.52253
6.52222
6.5219
6.52155
6.5212
6.52083
6.52047
6.5201
6.51974
6.5194
6.51908
6.51879
6.51854
6.51833
6.51817
6.51807
6.51802
6.51802
6.58209
6.5821
6.58215
6.58226
6.58243
6.58265
6.58292
6.58323
6.58356
6.58392
6.58429
6.58467
6.58506
6.58544
6.58581
6.58616
6.58651
6.58683
6.58713
6.58741
6.58766
6.58789
6.5881
6.58828
6.58843
6.58856
6.58866
6.58873
6.58879
6.58881
6.58881
6.58879
6.58873
6.58866
6.58856
6.58843
6.58828
6.5881
6.58789
6.58766
6.58741
6.58713
6.58683
6.58651
6.58616
6.58581
6.58544
6.58506
6.58467
6.58429
6.58392
6.58356
6.58323
6.58292
6.58265
6.58243
6.58226
6.58215
6.5821
6.58209
6.64789
6.6479
6.64796
6.64808
6.64826
6.6485
6.64878
6.6491
6.64945
6.64983
6.65022
6.65061
6.65101
6.65141
6.6518
6.65217
6.65253
6.65286
6.65317
6.65346
6.65373
6.65397
6.65418
6.65437
6.65453
6.65466
6.65476
6.65484
6.6549
6.65492
6.65492
6.6549
6.65484
6.65476
6.65466
6.65453
6.65437
6.65418
6.65397
6.65373
6.65346
6.65317
6.65286
6.65253
6.65217
6.6518
6.65141
6.65101
6.65061
6.65022
6.64983
6.64945
6.6491
6.64878
6.6485
6.64826
6.64808
6.64796
6.6479
6.64789
6.71548
6.7155
6.71556
6.7157
6.71589
6.71614
6.71643
6.71677
6.71714
6.71753
6.71794
6.71835
6.71877
6.71918
6.71959
6.71998
6.72035
6.7207