/*--------------------------------*- C++ -*----------------------------------*\
| =========                 |                                                 |
| \\      /  F ield         | foam-extend: Open Source CFD                    |
|  \\    /   O peration     | Version:     4.0                                |
|   \\  /    A nd           | Web:         http://www.foam-extend.org         |
|    \\/     M anipulation  |                                                 |
\*---------------------------------------------------------------------------*/
FoamFile
{
    version     2.0;
    format      ascii;
    class       volScalarField;
    location    "200";
    object      psiE;
}
// * * * * * * * * * * * * * * * * * * * * * * * * * * * * * * * * * * * * * //

dimensions      [0 0 0 0 0 0 0];

internalField   nonuniform List<scalar> 
6960
(
0.392545
0.392583
0.392592
0.392595
0.392595
0.392595
0.392594
0.392594
0.392593
0.392593
0.392593
0.392593
0.392592
0.392592
0.392592
0.392592
0.392592
0.392592
0.392591
0.392591
0.392591
0.392591
0.392591
0.392591
0.392591
0.392591
0.392591
0.392591
0.392591
0.392591
0.392591
0.392591
0.392591
0.392591
0.392591
0.392591
0.392591
0.392591
0.392591
0.392591
0.392591
0.392591
0.392592
0.392592
0.392592
0.392592
0.392592
0.392592
0.392593
0.392593
0.392593
0.392593
0.392594
0.392594
0.392595
0.392595
0.392595
0.392592
0.392583
0.392545
1.06058
1.06072
1.06075
1.06076
1.06076
1.06076
1.06076
1.06076
1.06076
1.06075
1.06075
1.06075
1.06075
1.06075
1.06075
1.06074
1.06074
1.06074
1.06074
1.06074
1.06074
1.06074
1.06074
1.06074
1.06074
1.06074
1.06073
1.06073
1.06073
1.06073
1.06073
1.06073
1.06073
1.06073
1.06074
1.06074
1.06074
1.06074
1.06074
1.06074
1.06074
1.06074
1.06074
1.06074
1.06074
1.06075
1.06075
1.06075
1.06075
1.06075
1.06075
1.06076
1.06076
1.06076
1.06076
1.06076
1.06076
1.06075
1.06072
1.06058
1.69953
1.69978
1.69985
1.69986
1.69986
1.69986
1.69985
1.69985
1.69984
1.69984
1.69984
1.69983
1.69983
1.69982
1.69982
1.69982
1.69982
1.69981
1.69981
1.69981
1.69981
1.6998
1.6998
1.6998
1.6998
1.6998
1.6998
1.6998
1.6998
1.6998
1.6998
1.6998
1.6998
1.6998
1.6998
1.6998
1.6998
1.6998
1.6998
1.69981
1.69981
1.69981
1.69981
1.69982
1.69982
1.69982
1.69982
1.69983
1.69983
1.69984
1.69984
1.69984
1.69985
1.69985
1.69986
1.69986
1.69986
1.69985
1.69978
1.69953
2.32063
2.32097
2.32106
2.32108
2.32108
2.32107
2.32107
2.32106
2.32105
2.32104
2.32104
2.32103
2.32103
2.32102
2.32102
2.32101
2.32101
2.321
2.321
2.321
2.32099
2.32099
2.32099
2.32098
2.32098
2.32098
2.32098
2.32098
2.32098
2.32098
2.32098
2.32098
2.32098
2.32098
2.32098
2.32098
2.32098
2.32099
2.32099
2.32099
2.321
2.321
2.321
2.32101
2.32101
2.32102
2.32102
2.32103
2.32103
2.32104
2.32104
2.32105
2.32106
2.32107
2.32107
2.32108
2.32108
2.32106
2.32097
2.32063
2.92281
2.92324
2.92334
2.92336
2.92336
2.92335
2.92334
2.92333
2.92332
2.92331
2.9233
2.9233
2.92329
2.92328
2.92327
2.92326
2.92326
2.92325
2.92325
2.92324
2.92324
2.92323
2.92323
2.92322
2.92322
2.92322
2.92322
2.92321
2.92321
2.92321
2.92321
2.92321
2.92321
2.92322
2.92322
2.92322
2.92322
2.92323
2.92323
2.92324
2.92324
2.92325
2.92325
2.92326
2.92326
2.92327
2.92328
2.92329
2.9233
2.9233
2.92331
2.92332
2.92333
2.92334
2.92335
2.92336
2.92336
2.92334
2.92324
2.92281
3.50191
3.5024
3.50253
3.50255
3.50254
3.50253
3.50252
3.5025
3.50249
3.50248
3.50247
3.50245
3.50244
3.50243
3.50242
3.50241
3.5024
3.50239
3.50239
3.50238
3.50237
3.50237
3.50236
3.50236
3.50235
3.50235
3.50235
3.50234
3.50234
3.50234
3.50234
3.50234
3.50234
3.50235
3.50235
3.50235
3.50236
3.50236
3.50237
3.50237
3.50238
3.50239
3.50239
3.5024
3.50241
3.50242
3.50243
3.50244
3.50245
3.50247
3.50248
3.50249
3.5025
3.50252
3.50253
3.50254
3.50255
3.50253
3.5024
3.50191
4.05238
4.0529
4.05304
4.05306
4.05305
4.05303
4.05301
4.05299
4.05298
4.05296
4.05294
4.05293
4.05291
4.0529
4.05289
4.05287
4.05286
4.05285
4.05284
4.05283
4.05282
4.05282
4.05281
4.0528
4.0528
4.05279
4.05279
4.05279
4.05278
4.05278
4.05278
4.05278
4.05279
4.05279
4.05279
4.0528
4.0528
4.05281
4.05282
4.05282
4.05283
4.05284
4.05285
4.05286
4.05287
4.05289
4.0529
4.05291
4.05293
4.05294
4.05296
4.05298
4.05299
4.05301
4.05303
4.05305
4.05306
4.05304
4.0529
4.05238
4.56749
4.56803
4.56816
4.56817
4.56816
4.56814
4.56811
4.56809
4.56807
4.56805
4.56803
4.56801
4.56799
4.56797
4.56796
4.56794
4.56792
4.56791
4.5679
4.56789
4.56788
4.56787
4.56786
4.56785
4.56784
4.56784
4.56783
4.56783
4.56783
4.56782
4.56782
4.56783
4.56783
4.56783
4.56784
4.56784
4.56785
4.56786
4.56787
4.56788
4.56789
4.5679
4.56791
4.56792
4.56794
4.56796
4.56797
4.56799
4.56801
4.56803
4.56805
4.56807
4.56809
4.56811
4.56814
4.56816
4.56817
4.56816
4.56803
4.56749
5.03963
5.04014
5.04026
5.04027
5.04025
5.04022
5.04019
5.04016
5.04014
5.04011
5.04009
5.04006
5.04004
5.04002
5.04
5.03998
5.03996
5.03994
5.03993
5.03991
5.0399
5.03989
5.03987
5.03987
5.03986
5.03985
5.03984
5.03984
5.03984
5.03984
5.03984
5.03984
5.03984
5.03984
5.03985
5.03986
5.03987
5.03987
5.03989
5.0399
5.03991
5.03993
5.03994
5.03996
5.03998
5.04
5.04002
5.04004
5.04006
5.04009
5.04011
5.04014
5.04016
5.04019
5.04022
5.04025
5.04027
5.04026
5.04014
5.03963
5.46099
5.46144
5.46155
5.46154
5.46152
5.46148
5.46145
5.46141
5.46138
5.46135
5.46132
5.46129
5.46126
5.46123
5.46121
5.46118
5.46116
5.46114
5.46112
5.46111
5.46109
5.46107
5.46106
5.46105
5.46104
5.46103
5.46102
5.46102
5.46102
5.46101
5.46101
5.46102
5.46102
5.46102
5.46103
5.46104
5.46105
5.46106
5.46107
5.46109
5.46111
5.46112
5.46114
5.46116
5.46118
5.46121
5.46123
5.46126
5.46129
5.46132
5.46135
5.46138
5.46141
5.46145
5.46148
5.46152
5.46154
5.46155
5.46144
5.46099
5.82523
5.82559
5.82566
5.82565
5.82561
5.82557
5.82552
5.82548
5.82544
5.82541
5.82537
5.82534
5.8253
5.82527
5.82524
5.82522
5.82519
5.82517
5.82514
5.82512
5.8251
5.82509
5.82507
5.82506
5.82505
5.82504
5.82503
5.82502
5.82502
5.82502
5.82502
5.82502
5.82502
5.82503
5.82504
5.82505
5.82506
5.82507
5.82509
5.8251
5.82512
5.82514
5.82517
5.82519
5.82522
5.82524
5.82527
5.8253
5.82534
5.82537
5.82541
5.82544
5.82548
5.82552
5.82557
5.82561
5.82565
5.82566
5.82559
5.82523
6.12965
6.1299
6.12994
6.12991
6.12986
6.12981
6.12976
6.12972
6.12967
6.12963
6.12959
6.12955
6.12951
6.12948
6.12944
6.12941
6.12938
6.12936
6.12933
6.12931
6.12928
6.12927
6.12925
6.12923
6.12922
6.12921
6.1292
6.12919
6.12919
6.12919
6.12919
6.12919
6.12919
6.1292
6.12921
6.12922
6.12923
6.12925
6.12927
6.12928
6.12931
6.12933
6.12936
6.12938
6.12941
6.12944
6.12948
6.12951
6.12955
6.12959
6.12963
6.12967
6.12972
6.12976
6.12981
6.12986
6.12991
6.12994
6.1299
6.12965
6.37682
6.37695
6.37696
6.37691
6.37686
6.3768
6.37675
6.3767
6.37665
6.3766
6.37656
6.37651
6.37647
6.37643
6.3764
6.37636
6.37633
6.3763
6.37627
6.37625
6.37622
6.3762
6.37618
6.37616
6.37615
6.37614
6.37613
6.37612
6.37612
6.37611
6.37611
6.37612
6.37612
6.37613
6.37614
6.37615
6.37616
6.37618
6.3762
6.37622
6.37625
6.37627
6.3763
6.37633
6.37636
6.3764
6.37643
6.37647
6.37651
6.37656
6.3766
6.37665
6.3767
6.37675
6.3768
6.37686
6.37691
6.37696
6.37695
6.37682
6.57416
6.57419
6.57416
6.57411
6.57404
6.57398
6.57393
6.57387
6.57382
6.57377
6.57372
6.57367
6.57363
6.57359
6.57355
6.57351
6.57348
6.57345
6.57342
6.57339
6.57336
6.57334
6.57332
6.5733
6.57329
6.57327
6.57326
6.57326
6.57325
6.57325
6.57325
6.57325
6.57326
6.57326
6.57327
6.57329
6.5733
6.57332
6.57334
6.57336
6.57339
6.57342
6.57345
6.57348
6.57351
6.57355
6.57359
6.57363
6.57367
6.57372
6.57377
6.57382
6.57387
6.57393
6.57398
6.57404
6.57411
6.57416
6.57419
6.57416
6.7317
6.73165
6.73159
6.73153
6.73146
6.7314
6.73134
6.73128
6.73123
6.73117
6.73112
6.73108
6.73103
6.73099
6.73095
6.73091
6.73088
6.73084
6.73081
6.73078
6.73076
6.73073
6.73071
6.7307
6.73068
6.73067
6.73066
6.73065
6.73064
6.73064
6.73064
6.73064
6.73065
6.73066
6.73067
6.73068
6.7307
6.73071
6.73073
6.73076
6.73078
6.73081
6.73084
6.73088
6.73091
6.73095
6.73099
6.73103
6.73108
6.73112
6.73117
6.73123
6.73128
6.73134
6.7314
6.73146
6.73153
6.73159
6.73165
6.7317
6.85945
6.85934
6.85927
6.8592
6.85913
6.85906
6.859
6.85894
6.85888
6.85883
6.85878
6.85873
6.85869
6.85864
6.8586
6.85857
6.85853
6.8585
6.85847
6.85844
6.85841
6.85839
6.85837
6.85835
6.85833
6.85832
6.85831
6.8583
6.85829
6.85829
6.85829
6.85829
6.8583
6.85831
6.85832
6.85833
6.85835
6.85837
6.85839
6.85841
6.85844
6.85847
6.8585
6.85853
6.85857
6.8586
6.85864
6.85869
6.85873
6.85878
6.85883
6.85888
6.85894
6.859
6.85906
6.85913
6.8592
6.85927
6.85934
6.85945
6.96571
6.96556
6.96547
6.96539
6.96532
6.96526
6.96519
6.96513
6.96508
6.96502
6.96497
6.96492
6.96488
6.96484
6.9648
6.96476
6.96472
6.96469
6.96466
6.96463
6.96461
6.96458
6.96456
6.96454
6.96453
6.96451
6.9645
6.9645
6.96449
6.96449
6.96449
6.96449
6.9645
6.9645
6.96451
6.96453
6.96454
6.96456
6.96458
6.96461
6.96463
6.96466
6.96469
6.96472
6.96476
6.9648
6.96484
6.96488
6.96492
6.96497
6.96502
6.96508
6.96513
6.96519
6.96526
6.96532
6.96539
6.96547
6.96556
6.96571
7.05656
7.05639
7.05629
7.05621
7.05613
7.05607
7.056
7.05594
7.05589
7.05583
7.05578
7.05574
7.05569
7.05565
7.05561
7.05558
7.05554
7.05551
7.05548
7.05545
7.05543
7.0554
7.05538
7.05537
7.05535
7.05534
7.05533
7.05532
7.05531
7.05531
7.05531
7.05531
7.05532
7.05533
7.05534
7.05535
7.05537
7.05538
7.0554
7.05543
7.05545
7.05548
7.05551
7.05554
7.05558
7.05561
7.05565
7.05569
7.05574
7.05578
7.05583
7.05589
7.05594
7.056
7.05607
7.05613
7.05621
7.05629
7.05639
7.05656
7.1362
7.13602
7.13591
7.13583
7.13575
7.13568
7.13562
7.13556
7.13551
7.13545
7.1354
7.13536
7.13532
7.13528
7.13524
7.1352
7.13517
7.13514
7.13511
7.13508
7.13506
7.13504
7.13502
7.135
7.13498
7.13497
7.13496
7.13495
7.13495
7.13495
7.13495
7.13495
7.13495
7.13496
7.13497
7.13498
7.135
7.13502
7.13504
7.13506
7.13508
7.13511
7.13514
7.13517
7.1352
7.13524
7.13528
7.13532
7.13536
7.1354
7.13545
7.13551
7.13556
7.13562
7.13568
7.13575
7.13583
7.13591
7.13602
7.1362
7.20745
7.20726
7.20714
7.20706
7.20699
7.20692
7.20685
7.2068
7.20674
7.20669
7.20664
7.2066
7.20656
7.20652
7.20648
7.20645
7.20642
7.20639
7.20636
7.20633
7.20631
7.20629
7.20627
7.20625
7.20624
7.20623
7.20622
7.20621
7.2062
7.2062
7.2062
7.2062
7.20621
7.20622
7.20623
7.20624
7.20625
7.20627
7.20629
7.20631
7.20633
7.20636
7.20639
7.20642
7.20645
7.20648
7.20652
7.20656
7.2066
7.20664
7.20669
7.20674
7.2068
7.20685
7.20692
7.20699
7.20706
7.20714
7.20726
7.20745
7.27222
7.27202
7.2719
7.27182
7.27174
7.27167
7.27161
7.27155
7.2715
7.27145
7.27141
7.27136
7.27132
7.27129
7.27125
7.27122
7.27119
7.27116
7.27113
7.27111
7.27109
7.27107
7.27105
7.27103
7.27102
7.27101
7.271
7.27099
7.27099
7.27098
7.27098
7.27099
7.27099
7.271
7.27101
7.27102
7.27103
7.27105
7.27107
7.27109
7.27111
7.27113
7.27116
7.27119
7.27122
7.27125
7.27129
7.27132
7.27136
7.27141
7.27145
7.2715
7.27155
7.27161
7.27167
7.27174
7.27182
7.2719
7.27202
7.27222
7.33183
7.33163
7.33151
7.33142
7.33135
7.33128
7.33122
7.33116
7.33111
7.33106
7.33102
7.33098
7.33094
7.33091
7.33087
7.33084
7.33081
7.33079
7.33076
7.33074
7.33072
7.3307
7.33068
7.33067
7.33065
7.33064
7.33063
7.33063
7.33062
7.33062
7.33062
7.33062
7.33063
7.33063
7.33064
7.33065
7.33067
7.33068
7.3307
7.33072
7.33074
7.33076
7.33079
7.33081
7.33084
7.33087
7.33091
7.33094
7.33098
7.33102
7.33106
7.33111
7.33116
7.33122
7.33128
7.33135
7.33142
7.33151
7.33163
7.33183
7.38725
7.38705
7.38693
7.38684
7.38676
7.3867
7.38664
7.38658
7.38653
7.38649
7.38645
7.38641
7.38637
7.38634
7.38631
7.38628
7.38625
7.38622
7.3862
7.38618
7.38616
7.38614
7.38613
7.38611
7.3861
7.38609
7.38608
7.38607
7.38607
7.38607
7.38607
7.38607
7.38607
7.38608
7.38609
7.3861
7.38611
7.38613
7.38614
7.38616
7.38618
7.3862
7.38622
7.38625
7.38628
7.38631
7.38634
7.38637
7.38641
7.38645
7.38649
7.38653
7.38658
7.38664
7.3867
7.38676
7.38684
7.38693
7.38705
7.38725
7.4392
7.439
7.43887
7.43879
7.43871
7.43865
7.43859
7.43854
7.43849
7.43844
7.4384
7.43837
7.43833
7.4383
7.43827
7.43824
7.43822
7.4382
7.43817
7.43815
7.43813
7.43812
7.4381
7.43809
7.43808
7.43807
7.43806
7.43806
7.43805
7.43805
7.43805
7.43805
7.43806
7.43806
7.43807
7.43808
7.43809
7.4381
7.43812
7.43813
7.43815
7.43817
7.4382
7.43822
7.43824
7.43827
7.4383
7.43833
7.43837
7.4384
7.43844
7.43849
7.43854
7.43859
7.43865
7.43871
7.43879
7.43887
7.439
7.4392
7.48824
7.48804
7.48791
7.48782
7.48774
7.48768
7.48762
7.48757
7.48753
7.48749
7.48745
7.48741
7.48738
7.48735
7.48732
7.4873
7.48728
7.48725
7.48723
7.48721
7.4872
7.48718
7.48717
7.48716
7.48715
7.48714
7.48713
7.48712
7.48712
7.48712
7.48712
7.48712
7.48712
7.48713
7.48714
7.48715
7.48716
7.48717
7.48718
7.4872
7.48721
7.48723
7.48725
7.48728
7.4873
7.48732
7.48735
7.48738
7.48741
7.48745
7.48749
7.48753
7.48757
7.48762
7.48768
7.48774
7.48782
7.48791
7.48804
7.48824
7.53479
7.53459
7.53447
7.53438
7.5343
7.53424
7.53418
7.53414
7.53409
7.53405
7.53402
7.53398
7.53395
7.53393
7.5339
7.53388
7.53386
7.53384
7.53382
7.5338
7.53379
7.53377
7.53376
7.53375
7.53374
7.53373
7.53372
7.53372
7.53372
7.53371
7.53371
7.53372
7.53372
7.53372
7.53373
7.53374
7.53375
7.53376
7.53377
7.53379
7.5338
7.53382
7.53384
7.53386
7.53388
7.5339
7.53393
7.53395
7.53398
7.53402
7.53405
7.53409
7.53414
7.53418
7.53424
7.5343
7.53438
7.53447
7.53459
7.53479
7.57922
7.57903
7.5789
7.57881
7.57874
7.57868
7.57862
7.57858
7.57853
7.5785
7.57846
7.57843
7.57841
7.57838
7.57836
7.57834
7.57832
7.5783
7.57828
7.57827
7.57825
7.57824
7.57823
7.57822
7.57821
7.5782
7.5782
7.57819
7.57819
7.57819
7.57819
7.57819
7.57819
7.5782
7.5782
7.57821
7.57822
7.57823
7.57824
7.57825
7.57827
7.57828
7.5783
7.57832
7.57834
7.57836
7.57838
7.57841
7.57843
7.57846
7.5785
7.57853
7.57858
7.57862
7.57868
7.57874
7.57881
7.5789
7.57903
7.57922
7.62182
7.62163
7.6215
7.62141
7.62134
7.62128
7.62123
7.62119
7.62115
7.62111
7.62108
7.62105
7.62103
7.621
7.62098
7.62097
7.62095
7.62093
7.62092
7.62091
7.62089
7.62088
7.62087
7.62086
7.62086
7.62085
7.62084
7.62084
7.62084
7.62084
7.62084
7.62084
7.62084
7.62084
7.62085
7.62086
7.62086
7.62087
7.62088
7.62089
7.62091
7.62092
7.62093
7.62095
7.62097
7.62098
7.621
7.62103
7.62105
7.62108
7.62111
7.62115
7.62119
7.62123
7.62128
7.62134
7.62141
7.6215
7.62163
7.62182
7.66283
7.66265
7.66252
7.66243
7.66236
7.6623
7.66225
7.66221
7.66217
7.66213
7.66211
7.66208
7.66206
7.66204
7.66202
7.66201
7.66199
7.66198
7.66196
7.66195
7.66194
7.66193
7.66192
7.66192
7.66191
7.6619
7.6619
7.6619
7.66189
7.66189
7.66189
7.66189
7.6619
7.6619
7.6619
7.66191
7.66192
7.66192
7.66193
7.66194
7.66195
7.66196
7.66198
7.66199
7.66201
7.66202
7.66204
7.66206
7.66208
7.66211
7.66213
7.66217
7.66221
7.66225
7.6623
7.66236
7.66243
7.66252
7.66265
7.66283
7.70245
7.70227
7.70214
7.70205
7.70199
7.70193
7.70188
7.70184
7.7018
7.70177
7.70175
7.70172
7.70171
7.70169
7.70167
7.70166
7.70165
7.70164
7.70163
7.70162
7.70161
7.7016
7.70159
7.70159
7.70158
7.70158
7.70157
7.70157
7.70157
7.70157
7.70157
7.70157
7.70157
7.70157
7.70158
7.70158
7.70159
7.70159
7.7016
7.70161
7.70162
7.70163
7.70164
7.70165
7.70166
7.70167
7.70169
7.70171
7.70172
7.70175
7.70177
7.7018
7.70184
7.70188
7.70193
7.70199
7.70205
7.70214
7.70227
7.70245
7.74086
7.74069
7.74056
7.74047
7.7404
7.74035
7.7403
7.74026
7.74023
7.7402
7.74018
7.74016
7.74014
7.74013
7.74011
7.7401
7.74009
7.74008
7.74008
7.74007
7.74006
7.74006
7.74005
7.74004
7.74004
7.74004
7.74003
7.74003
7.74003
7.74003
7.74003
7.74003
7.74003
7.74003
7.74004
7.74004
7.74004
7.74005
7.74006
7.74006
7.74007
7.74008
7.74008
7.74009
7.7401
7.74011
7.74013
7.74014
7.74016
7.74018
7.7402
7.74023
7.74026
7.7403
7.74035
7.7404
7.74047
7.74056
7.74069
7.74086
7.77821
7.77804
7.77791
7.77782
7.77776
7.7777
7.77766
7.77762
7.77759
7.77757
7.77754
7.77753
7.77751
7.7775
7.77749
7.77748
7.77748
7.77747
7.77747
7.77746
7.77745
7.77745
7.77745
7.77744
7.77744
7.77744
7.77743
7.77743
7.77743
7.77743
7.77743
7.77743
7.77743
7.77743
7.77744
7.77744
7.77744
7.77745
7.77745
7.77745
7.77746
7.77747
7.77747
7.77748
7.77748
7.77749
7.7775
7.77751
7.77753
7.77754
7.77757
7.77759
7.77762
7.77766
7.7777
7.77776
7.77782
7.77791
7.77804
7.77821
7.81463
7.81446
7.81433
7.81424
7.81418
7.81413
7.81408
7.81405
7.81402
7.814
7.81398
7.81397
7.81396
7.81395
7.81394
7.81394
7.81393
7.81393
7.81392
7.81392
7.81392
7.81392
7.81391
7.81391
7.81391
7.81391
7.8139
7.8139
7.8139
7.8139
7.8139
7.8139
7.8139
7.8139
7.81391
7.81391
7.81391
7.81391
7.81392
7.81392
7.81392
7.81392
7.81393
7.81393
7.81394
7.81394
7.81395
7.81396
7.81397
7.81398
7.814
7.81402
7.81405
7.81408
7.81413
7.81418
7.81424
7.81433
7.81446
7.81463
7.85022
7.85006
7.84994
7.84985
7.84978
7.84973
7.84969
7.84966
7.84964
7.84962
7.8496
7.84959
7.84958
7.84958
7.84958
7.84957
7.84957
7.84957
7.84957
7.84957
7.84957
7.84957
7.84956
7.84956
7.84956
7.84956
7.84956
7.84956
7.84956
7.84956
7.84956
7.84956
7.84956
7.84956
7.84956
7.84956
7.84956
7.84956
7.84957
7.84957
7.84957
7.84957
7.84957
7.84957
7.84957
7.84958
7.84958
7.84958
7.84959
7.8496
7.84962
7.84964
7.84966
7.84969
7.84973
7.84978
7.84985
7.84994
7.85006
7.85022
7.88511
7.88495
7.88483
7.88474
7.88468
7.88463
7.88459
7.88456
7.88454
7.88452
7.88451
7.8845
7.8845
7.8845
7.8845
7.8845
7.8845
7.8845
7.8845
7.8845
7.8845
7.8845
7.8845
7.8845
7.8845
7.8845
7.88451
7.88451
7.88451
7.88451
7.88451
7.88451
7.88451
7.88451
7.8845
7.8845
7.8845
7.8845
7.8845
7.8845
7.8845
7.8845
7.8845
7.8845
7.8845
7.8845
7.8845
7.8845
7.8845
7.88451
7.88452
7.88454
7.88456
7.88459
7.88463
7.88468
7.88474
7.88483
7.88495
7.88511
7.91937
7.91921
7.91909
7.919
7.91894
7.9189
7.91886
7.91883
7.91882
7.9188
7.91879
7.91879
7.91879
7.91879
7.91879
7.9188
7.9188
7.9188
7.91881
7.91881
7.91882
7.91882
7.91882
7.91882
7.91882
7.91883
7.91883
7.91883
7.91883
7.91883
7.91883
7.91883
7.91883
7.91883
7.91883
7.91882
7.91882
7.91882
7.91882
7.91882
7.91881
7.91881
7.9188
7.9188
7.9188
7.91879
7.91879
7.91879
7.91879
7.91879
7.9188
7.91882
7.91883
7.91886
7.9189
7.91894
7.919
7.91909
7.91921
7.91937
7.95309
7.95294
7.95281
7.95273
7.95267
7.95262
7.95259
7.95257
7.95255
7.95254
7.95254
7.95254
7.95254
7.95254
7.95255
7.95256
7.95256
7.95257
7.95258
7.95258
7.95259
7.95259
7.9526
7.9526
7.9526
7.95261
7.95261
7.95261
7.95261
7.95261
7.95261
7.95261
7.95261
7.95261
7.95261
7.9526
7.9526
7.9526
7.95259
7.95259
7.95258
7.95258
7.95257
7.95256
7.95256
7.95255
7.95254
7.95254
7.95254
7.95254
7.95254
7.95255
7.95257
7.95259
7.95262
7.95267
7.95273
7.95281
7.95294
7.95309
7.98633
7.98619
7.98607
7.98599
7.98593
7.98588
7.98585
7.98583
7.98582
7.98582
7.98581
7.98582
7.98582
7.98583
7.98584
7.98585
7.98586
7.98587
7.98588
7.98589
7.9859
7.9859
7.98591
7.98591
7.98592
7.98592
7.98593
7.98593
7.98593
7.98593
7.98593
7.98593
7.98593
7.98593
7.98592
7.98592
7.98591
7.98591
7.9859
7.9859
7.98589
7.98588
7.98587
7.98586
7.98585
7.98584
7.98583
7.98582
7.98582
7.98581
7.98582
7.98582
7.98583
7.98585
7.98588
7.98593
7.98599
7.98607
7.98619
7.98633
8.01918
8.01904
8.01893
8.01884
8.01879
8.01875
8.01872
8.0187
8.01869
8.01869
8.01869
8.0187
8.01871
8.01872
8.01873
8.01875
8.01876
8.01877
8.01878
8.0188
8.01881
8.01881
8.01882
8.01883
8.01884
8.01884
8.01884
8.01885
8.01885
8.01885
8.01885
8.01885
8.01885
8.01884
8.01884
8.01884
8.01883
8.01882
8.01881
8.01881
8.0188
8.01878
8.01877
8.01876
8.01875
8.01873
8.01872
8.01871
8.0187
8.01869
8.01869
8.01869
8.0187
8.01872
8.01875
8.01879
8.01884
8.01893
8.01904
8.01918
8.0517
8.05156
8.05145
8.05136
8.05131
8.05127
8.05125
8.05123
8.05122
8.05123
8.05123
8.05124
8.05126
8.05127
8.05129
8.0513
8.05132
8.05134
8.05135
8.05137
8.05138
8.05139
8.0514
8.05141
8.05142
8.05142
8.05143
8.05143
8.05143
8.05143
8.05143
8.05143
8.05143
8.05143
8.05142
8.05142
8.05141
8.0514
8.05139
8.05138
8.05137
8.05135
8.05134
8.05132
8.0513
8.05129
8.05127
8.05126
8.05124
8.05123
8.05123
8.05122
8.05123
8.05125
8.05127
8.05131
8.05136
8.05145
8.05156
8.0517
8.08393
8.0838
8.08368
8.0836
8.08355
8.08351
8.08349
8.08348
8.08348
8.08348
8.08349
8.08351
8.08352
8.08354
8.08356
8.08358
8.08361
8.08362
8.08364
8.08366
8.08368
8.08369
8.0837
8.08371
8.08372
8.08373
8.08373
8.08374
8.08374
8.08374
8.08374
8.08374
8.08374
8.08373
8.08373
8.08372
8.08371
8.0837
8.08369
8.08368
8.08366
8.08364
8.08362
8.08361
8.08358
8.08356
8.08354
8.08352
8.08351
8.08349
8.08348
8.08348
8.08348
8.08349
8.08351
8.08355
8.0836
8.08368
8.0838
8.08393
8.11594
8.11581
8.1157
8.11562
8.11557
8.11553
8.11551
8.11551
8.11551
8.11551
8.11553
8.11555
8.11557
8.11559
8.11562
8.11564
8.11566
8.11569
8.11571
8.11573
8.11575
8.11576
8.11578
8.11579
8.1158
8.11581
8.11582
8.11582
8.11582
8.11583
8.11583
8.11582
8.11582
8.11582
8.11581
8.1158
8.11579
8.11578
8.11576
8.11575
8.11573
8.11571
8.11569
8.11566
8.11564
8.11562
8.11559
8.11557
8.11555
8.11553
8.11551
8.11551
8.11551
8.11551
8.11553
8.11557
8.11562
8.1157
8.11581
8.11594
8.14776
8.14764
8.14753
8.14745
8.1474
8.14737
8.14736
8.14735
8.14736
8.14737
8.14739
8.14741
8.14744
8.14746
8.14749
8.14752
8.14755
8.14758
8.1476
8.14762
8.14764
8.14766
8.14768
8.14769
8.14771
8.14772
8.14772
8.14773
8.14773
8.14773
8.14773
8.14773
8.14773
8.14772
8.14772
8.14771
8.14769
8.14768
8.14766
8.14764
8.14762
8.1476
8.14758
8.14755
8.14752
8.14749
8.14746
8.14744
8.14741
8.14739
8.14737
8.14736
8.14735
8.14736
8.14737
8.1474
8.14745
8.14753
8.14764
8.14776
8.17946
8.17934
8.17924
8.17916
8.17911
8.17909
8.17907
8.17907
8.17908
8.1791
8.17912
8.17915
8.17918
8.17921
8.17924
8.17927
8.17931
8.17934
8.17936
8.17939
8.17941
8.17943
8.17945
8.17947
8.17948
8.17949
8.1795
8.17951
8.17951
8.17952
8.17952
8.17951
8.17951
8.1795
8.17949
8.17948
8.17947
8.17945
8.17943
8.17941
8.17939
8.17936
8.17934
8.17931
8.17927
8.17924
8.17921
8.17918
8.17915
8.17912
8.1791
8.17908
8.17907
8.17907
8.17909
8.17911
8.17916
8.17924
8.17934
8.17946
8.21108
8.21096
8.21086
8.21078
8.21074
8.21071
8.2107
8.21071
8.21072
8.21074
8.21077
8.2108
8.21083
8.21087
8.21091
8.21094
8.21098
8.21101
8.21104
8.21107
8.2111
8.21112
8.21115
8.21116
8.21118
8.21119
8.2112
8.21121
8.21121
8.21122
8.21122
8.21121
8.21121
8.2112
8.21119
8.21118
8.21116
8.21115
8.21112
8.2111
8.21107
8.21104
8.21101
8.21098
8.21094
8.21091
8.21087
8.21083
8.2108
8.21077
8.21074
8.21072
8.21071
8.2107
8.21071
8.21074
8.21078
8.21086
8.21096
8.21108
8.24265
8.24254
8.24244
8.24236
8.24232
8.2423
8.24229
8.2423
8.24232
8.24234
8.24237
8.24241
8.24245
8.24249
8.24253
8.24257
8.24261
8.24265
8.24268
8.24272
8.24275
8.24277
8.2428
8.24282
8.24283
8.24285
8.24286
8.24287
8.24287
8.24288
8.24288
8.24287
8.24287
8.24286
8.24285
8.24283
8.24282
8.2428
8.24277
8.24275
8.24272
8.24268
8.24265
8.24261
8.24257
8.24253
8.24249
8.24245
8.24241
8.24237
8.24234
8.24232
8.2423
8.24229
8.2423
8.24232
8.24236
8.24244
8.24254
8.24265
8.27422
8.27411
8.27401
8.27394
8.2739
8.27388
8.27388
8.27389
8.27391
8.27394
8.27398
8.27402
8.27406
8.27411
8.27415
8.2742
8.27424
8.27429
8.27432
8.27436
8.27439
8.27442
8.27445
8.27447
8.27449
8.27451
8.27452
8.27453
8.27453
8.27454
8.27454
8.27453
8.27453
8.27452
8.27451
8.27449
8.27447
8.27445
8.27442
8.27439
8.27436
8.27432
8.27429
8.27424
8.2742
8.27415
8.27411
8.27406
8.27402
8.27398
8.27394
8.27391
8.27389
8.27388
8.27388
8.2739
8.27394
8.27401
8.27411
8.27422
8.30582
8.30572
8.30562
8.30555
8.30552
8.3055
8.3055
8.30552
8.30554
8.30558
8.30562
8.30567
8.30571
8.30576
8.30582
8.30587
8.30591
8.30596
8.306
8.30604
8.30608
8.30611
8.30614
8.30616
8.30618
8.3062
8.30622
8.30623
8.30623
8.30624
8.30624
8.30623
8.30623
8.30622
8.3062
8.30618
8.30616
8.30614
8.30611
8.30608
8.30604
8.306
8.30596
8.30591
8.30587
8.30582
8.30576
8.30571
8.30567
8.30562
8.30558
8.30554
8.30552
8.3055
8.3055
8.30552
8.30555
8.30562
8.30572
8.30582
8.3375
8.3374
8.3373
8.33724
8.3372
8.33719
8.3372
8.33722
8.33725
8.33729
8.33733
8.33739
8.33744
8.3375
8.33755
8.33761
8.33766
8.33771
8.33776
8.3378
8.33784
8.33787
8.3379
8.33793
8.33795
8.33797
8.33799
8.338
8.33801
8.33801
8.33801
8.33801
8.338
8.33799
8.33797
8.33795
8.33793
8.3379
8.33787
8.33784
8.3378
8.33776
8.33771
8.33766
8.33761
8.33755
8.3375
8.33744
8.33739
8.33733
8.33729
8.33725
8.33722
8.3372
8.33719
8.3372
8.33724
8.3373
8.3374
8.3375
8.36929
8.36919
8.3691
8.36903
8.369
8.36899
8.369
8.36903
8.36906
8.36911
8.36916
8.36922
8.36928
8.36934
8.3694
8.36946
8.36951
8.36957
8.36962
8.36967
8.36971
8.36975
8.36978
8.36981
8.36984
8.36986
8.36987
8.36989
8.36989
8.3699
8.3699
8.36989
8.36989
8.36987
8.36986
8.36984
8.36981
8.36978
8.36975
8.36971
8.36967
8.36962
8.36957
8.36951
8.36946
8.3694
8.36934
8.36928
8.36922
8.36916
8.36911
8.36906
8.36903
8.369
8.36899
8.369
8.36903
8.3691
8.36919
8.36929
8.40122
8.40112
8.40103
8.40097
8.40094
8.40094
8.40095
8.40098
8.40102
8.40107
8.40113
8.40119
8.40126
8.40132
8.40139
8.40146
8.40152
8.40158
8.40163
8.40168
8.40173
8.40177
8.40181
8.40184
8.40187
8.40189
8.40191
8.40192
8.40193
8.40193
8.40193
8.40193
8.40192
8.40191
8.40189
8.40187
8.40184
8.40181
8.40177
8.40173
8.40168
8.40163
8.40158
8.40152
8.40146
8.40139
8.40132
8.40126
8.40119
8.40113
8.40107
8.40102
8.40098
8.40095
8.40094
8.40094
8.40097
8.40103
8.40112
8.40122
8.43332
8.43323
8.43315
8.43309
8.43306
8.43306
8.43308
8.43311
8.43316
8.43322
8.43328
8.43335
8.43342
8.43349
8.43356
8.43363
8.4337
8.43376
8.43382
8.43388
8.43393
8.43397
8.43401
8.43405
8.43408
8.4341
8.43412
8.43413
8.43414
8.43415
8.43415
8.43414
8.43413
8.43412
8.4341
8.43408
8.43405
8.43401
8.43397
8.43393
8.43388
8.43382
8.43376
8.4337
8.43363
8.43356
8.43349
8.43342
8.43335
8.43328
8.43322
8.43316
8.43311
8.43308
8.43306
8.43306
8.43309
8.43315
8.43323
8.43332
8.46564
8.46555
8.46547
8.46542
8.46539
8.4654
8.46542
8.46546
8.46551
8.46557
8.46564
8.46572
8.46579
8.46587
8.46595
8.46603
8.4661
8.46617
8.46623
8.46629
8.46634
8.46639
8.46643
8.46647
8.4665
8.46653
8.46655
8.46657
8.46658
8.46658
8.46658
8.46658
8.46657
8.46655
8.46653
8.4665
8.46647
8.46643
8.46639
8.46634
8.46629
8.46623
8.46617
8.4661
8.46603
8.46595
8.46587
8.46579
8.46572
8.46564
8.46557
8.46551
8.46546
8.46542
8.4654
8.46539
8.46542
8.46547
8.46555
8.46564
8.49821
8.49812
8.49804
8.49799
8.49797
8.49798
8.498
8.49805
8.49811
8.49817
8.49825
8.49833
8.49842
8.4985
8.49858
8.49866
8.49874
8.49882
8.49888
8.49895
8.49901
8.49906
8.4991
8.49914
8.49918
8.4992
8.49923
8.49924
8.49925
8.49926
8.49926
8.49925
8.49924
8.49923
8.4992
8.49918
8.49914
8.4991
8.49906
8.49901
8.49895
8.49888
8.49882
8.49874
8.49866
8.49858
8.4985
8.49842
8.49833
8.49825
8.49817
8.49811
8.49805
8.498
8.49798
8.49797
8.49799
8.49804
8.49812
8.49821
8.53105
8.53096
8.53088
8.53084
8.53082
8.53083
8.53087
8.53092
8.53098
8.53106
8.53114
8.53123
8.53132
8.53141
8.5315
8.53158
8.53167
8.53174
8.53182
8.53189
8.53195
8.532
8.53205
8.5321
8.53213
8.53216
8.53219
8.5322
8.53222
8.53222
8.53222
8.53222
8.5322
8.53219
8.53216
8.53213
8.5321
8.53205
8.532
8.53195
8.53189
8.53182
8.53174
8.53167
8.53158
8.5315
8.53141
8.53132
8.53123
8.53114
8.53106
8.53098
8.53092
8.53087
8.53083
8.53082
8.53084
8.53088
8.53096
8.53105
8.56419
8.56411
8.56404
8.564
8.56399
8.564
8.56404
8.56409
8.56417
8.56425
8.56434
8.56443
8.56453
8.56462
8.56472
8.56481
8.5649
8.56499
8.56507
8.56514
8.5652
8.56526
8.56532
8.56536
8.5654
8.56543
8.56546
8.56548
8.56549
8.5655
8.5655
8.56549
8.56548
8.56546
8.56543
8.5654
8.56536
8.56532
8.56526
8.5652
8.56514
8.56507
8.56499
8.5649
8.56481
8.56472
8.56462
8.56453
8.56443
8.56434
8.56425
8.56417
8.56409
8.56404
8.564
8.56399
8.564
8.56404
8.56411
8.56419
8.59768
8.5976
8.59754
8.5975
8.59749
8.59751
8.59755
8.59762
8.59769
8.59778
8.59788
8.59798
8.59808
8.59819
8.59829
8.59839
8.59848
8.59857
8.59866
8.59873
8.5988
8.59887
8.59892
8.59897
8.59901
8.59905
8.59908
8.5991
8.59911
8.59912
8.59912
8.59911
8.5991
8.59908
8.59905
8.59901
8.59897
8.59892
8.59887
8.5988
8.59873
8.59866
8.59857
8.59848
8.59839
8.59829
8.59819
8.59808
8.59798
8.59788
8.59778
8.59769
8.59762
8.59755
8.59751
8.59749
8.5975
8.59754
8.5976
8.59768
8.63154
8.63147
8.6314
8.63137
8.63137
8.63139
8.63144
8.63151
8.63159
8.63169
8.63179
8.6319
8.63201
8.63213
8.63224
8.63234
8.63244
8.63254
8.63263
8.63271
8.63278
8.63285
8.63291
8.63296
8.63301
8.63304
8.63307
8.63309
8.63311
8.63311
8.63311
8.63311
8.63309
8.63307
8.63304
8.63301
8.63296
8.63291
8.63285
8.63278
8.63271
8.63263
8.63254
8.63244
8.63234
8.63224
8.63213
8.63201
8.6319
8.63179
8.63169
8.63159
8.63151
8.63144
8.63139
8.63137
8.63137
8.6314
8.63147
8.63154
8.66581
8.66574
8.66568
8.66565
8.66565
8.66568
8.66574
8.66581
8.6659
8.66601
8.66612
8.66624
8.66635
8.66647
8.66659
8.6667
8.66681
8.66691
8.66701
8.66709
8.66717
8.66724
8.66731
8.66736
8.66741
8.66745
8.66748
8.6675
8.66752
8.66752
8.66752
8.66752
8.6675
8.66748
8.66745
8.66741
8.66736
8.66731
8.66724
8.66717
8.66709
8.66701
8.66691
8.66681
8.6667
8.66659
8.66647
8.66635
8.66624
8.66612
8.66601
8.6659
8.66581
8.66574
8.66568
8.66565
8.66565
8.66568
8.66574
8.66581
8.70052
8.70045
8.70039
8.70037
8.70037
8.70041
8.70047
8.70055
8.70065
8.70076
8.70088
8.70101
8.70114
8.70126
8.70139
8.70151
8.70162
8.70173
8.70183
8.70192
8.70201
8.70208
8.70215
8.70221
8.70226
8.7023
8.70233
8.70235
8.70237
8.70238
8.70238
8.70237
8.70235
8.70233
8.7023
8.70226
8.70221
8.70215
8.70208
8.70201
8.70192
8.70183
8.70173
8.70162
8.70151
8.70139
8.70126
8.70114
8.70101
8.70088
8.70076
8.70065
8.70055
8.70047
8.70041
8.70037
8.70037
8.70039
8.70045
8.70052
8.73569
8.73563
8.73558
8.73556
8.73557
8.73561
8.73568
8.73577
8.73588
8.736
8.73612
8.73626
8.73639
8.73653
8.73666
8.73679
8.73691
8.73702
8.73713
8.73723
8.73731
8.73739
8.73746
8.73753
8.73758
8.73762
8.73766
8.73768
8.7377
8.73771
8.73771
8.7377
8.73768
8.73766
8.73762
8.73758
8.73753
8.73746
8.73739
8.73731
8.73723
8.73713
8.73702
8.73691
8.73679
8.73666
8.73653
8.73639
8.73626
8.73612
8.736
8.73588
8.73577
8.73568
8.73561
8.73557
8.73556
8.73558
8.73563
8.73569
8.77137
8.77131
8.77126
8.77125
8.77127
8.77132
8.77139
8.77149
8.7716
8.77173
8.77187
8.77201
8.77215
8.7723
8.77244
8.77257
8.7727
8.77282
8.77293
8.77304
8.77313
8.77322
8.77329
8.77336
8.77341
8.77346
8.77349
8.77352
8.77354
8.77355