/*--------------------------------*- C++ -*----------------------------------*\
| =========                 |                                                 |
| \\      /  F ield         | foam-extend: Open Source CFD                    |
|  \\    /   O peration     | Version:     4.0                                |
|   \\  /    A nd           | Web:         http://www.foam-extend.org         |
|    \\/     M anipulation  |                                                 |
\*---------------------------------------------------------------------------*/
FoamFile
{
    version     2.0;
    format      ascii;
    class       volScalarField;
    location    "1";
    object      cPlus;
}
// * * * * * * * * * * * * * * * * * * * * * * * * * * * * * * * * * * * * * //

dimensions      [0 -3 0 0 1 0 0];

internalField   nonuniform List<scalar> 
6960
(
1.00001
1.00001
1.00001
1.00001
1.00001
1.00001
1.00001
1.00001
1.00001
1.00001
1
1
1
1
1
0.999999
0.999998
0.999996
0.999995
0.999993
0.999992
0.999991
0.999989
0.999988
0.999987
0.999986
0.999986
0.999985
0.999984
0.999983
0.999982
0.999981
0.99998
0.999979
0.999978
0.999978
0.999977
0.999977
0.999977
0.999977
0.999977
0.999977
0.999976
0.999976
0.999976
0.999975
0.999975
0.999974
0.999974
0.999974
0.999974
0.999974
0.999975
0.999975
0.999976
0.999976
0.999976
0.999975
0.999976
0.999975
1.00004
1.00003
1.00003
1.00003
1.00003
1.00003
1.00002
1.00002
1.00002
1.00002
1.00001
1.00001
1.00001
1
1
0.999998
0.999994
0.999989
0.999985
0.99998
0.999975
0.999971
0.999968
0.999965
0.999962
0.999959
0.999956
0.999954
0.999951
0.999947
0.999944
0.999941
0.999938
0.999936
0.999934
0.999933
0.999931
0.999931
0.99993
0.99993
0.99993
0.999929
0.999928
0.999927
0.999926
0.999925
0.999923
0.999922
0.999921
0.99992
0.999921
0.999921
0.999923
0.999924
0.999926
0.999926
0.999927
0.999925
0.999926
0.999924
1.00006
1.00006
1.00006
1.00005
1.00005
1.00005
1.00004
1.00004
1.00003
1.00003
1.00002
1.00002
1.00001
1.00001
1
0.999996
0.999989
0.999982
0.999974
0.999966
0.999959
0.999952
0.999946
0.99994
0.999935
0.999931
0.999926
0.999922
0.999917
0.999911
0.999906
0.999901
0.999896
0.999892
0.999888
0.999886
0.999884
0.999883
0.999882
0.999882
0.999881
0.99988
0.999879
0.999877
0.999875
0.999872
0.99987
0.999868
0.999866
0.999865
0.999866
0.999867
0.99987
0.999872
0.999875
0.999875
0.999877
0.999874
0.999875
0.999872
1.00008
1.00008
1.00008
1.00008
1.00007
1.00007
1.00006
1.00005
1.00005
1.00004
1.00003
1.00002
1.00002
1.00001
1
0.999995
0.999985
0.999974
0.999963
0.999952
0.999941
0.999931
0.999923
0.999915
0.999908
0.999902
0.999895
0.999889
0.999882
0.999874
0.999866
0.999859
0.999852
0.999846
0.999841
0.999838
0.999835
0.999834
0.999833
0.999832
0.999831
0.99983
0.999828
0.999826
0.999823
0.999819
0.999815
0.999812
0.99981
0.999808
0.999809
0.999811
0.999815
0.999818
0.999822
0.999822
0.999825
0.99982
0.999823
0.999818
1.00011
1.0001
1.0001
1.0001
1.00009
1.00009
1.00008
1.00007
1.00006
1.00005
1.00004
1.00003
1.00002
1.00001
1
0.999993
0.999981
0.999967
0.999952
0.999937
0.999923
0.99991
0.999899
0.999889
0.99988
0.999872
0.999863
0.999855
0.999845
0.999836
0.999826
0.999816
0.999807
0.999799
0.999793
0.999788
0.999785
0.999783
0.999782
0.999781
0.99978
0.999778
0.999776
0.999773
0.999769
0.999764
0.999759
0.999755
0.999751
0.99975
0.999751
0.999753
0.999758
0.999762
0.999768
0.999768
0.999771
0.999766
0.999769
0.999763
1.00013
1.00013
1.00013
1.00012
1.00012
1.00011
1.0001
1.00009
1.00007
1.00006
1.00005
1.00004
1.00003
1.00002
1.00001
0.999992
0.999976
0.999959
0.999941
0.999922
0.999905
0.999889
0.999874
0.999862
0.999851
0.999841
0.999831
0.99982
0.999808
0.999796
0.999784
0.999772
0.999761
0.999751
0.999743
0.999737
0.999733
0.999731
0.999729
0.999728
0.999727
0.999725
0.999722
0.999718
0.999713
0.999707
0.999701
0.999696
0.999692
0.999689
0.99969
0.999693
0.9997
0.999704
0.999712
0.999712
0.999717
0.99971
0.999713
0.999706
1.00015
1.00015
1.00015
1.00015
1.00014
1.00013
1.00012
1.0001
1.00009
1.00007
1.00006
1.00005
1.00003
1.00002
1.00001
0.99999
0.999971
0.999951
0.999929
0.999907
0.999886
0.999866
0.999849
0.999834
0.999821
0.999809
0.999797
0.999784
0.99977
0.999756
0.999741
0.999726
0.999713
0.999701
0.999692
0.999685
0.99968
0.999677
0.999675
0.999674
0.999672
0.99967
0.999667
0.999662
0.999656
0.999649
0.999642
0.999635
0.99963
0.999627
0.999628
0.999632
0.999639
0.999645
0.999654
0.999655
0.99966
0.999652
0.999656
0.999647
1.00018
1.00018
1.00018
1.00017
1.00017
1.00015
1.00014
1.00012
1.0001
1.00009
1.00007
1.00005
1.00004
1.00003
1.00001
0.999989
0.999967
0.999942
0.999917
0.999891
0.999866
0.999843
0.999823
0.999806
0.99979
0.999776
0.999762
0.999747
0.999731
0.999714
0.999697
0.999679
0.999664
0.99965
0.999639
0.99963
0.999625
0.999621
0.999619
0.999618
0.999616
0.999614
0.99961
0.999605
0.999598
0.999589
0.99958
0.999572
0.999566
0.999563
0.999564
0.999568
0.999577
0.999584
0.999595
0.999596
0.999602
0.999592
0.999597
0.999587
1.0002
1.00021
1.00021
1.0002
1.00019
1.00018
1.00016
1.00014
1.00012
1.0001
1.00008
1.00006
1.00005
1.00003
1.00001
0.999987
0.999962
0.999934
0.999904
0.999875
0.999846
0.99982
0.999796
0.999776
0.999759
0.999742
0.999726
0.999709
0.999691
0.999671
0.999651
0.999631
0.999613
0.999597
0.999584
0.999574
0.999568
0.999564
0.999561
0.99956
0.999558
0.999556
0.999552
0.999546
0.999537
0.999528
0.999518
0.999508
0.999501
0.999497
0.999498
0.999503
0.999513
0.999521
0.999533
0.999535
0.999542
0.999531
0.999536
0.999525
1.00023
1.00023
1.00024
1.00023
1.00022
1.0002
1.00018
1.00016
1.00013
1.00011
1.00009
1.00007
1.00005
1.00003
1.00001
0.999986
0.999957
0.999926
0.999892
0.999858
0.999825
0.999795
0.999769
0.999746
0.999726
0.999707
0.999689
0.99967
0.999649
0.999627
0.999604
0.999582
0.999561
0.999543
0.999528
0.999517
0.999509
0.999505
0.999502
0.999501
0.999499
0.999496
0.999492
0.999485
0.999476
0.999465
0.999453
0.999442
0.999433
0.999429
0.99943
0.999435
0.999446
0.999456
0.99947
0.999473
0.99948
0.999468
0.999474
0.999461
1.00026
1.00026
1.00026
1.00026
1.00024
1.00022
1.0002
1.00018
1.00015
1.00013
1.0001
1.00008
1.00006
1.00004
1.00001
0.999984
0.999952
0.999917
0.999879
0.999841
0.999804
0.99977
0.99974
0.999714
0.999692
0.999671
0.999651
0.99963
0.999606
0.999582
0.999556
0.999531
0.999507
0.999486
0.99947
0.999457
0.999449
0.999444
0.999441
0.999439
0.999438
0.999435
0.99943
0.999422
0.999412
0.9994
0.999386
0.999374
0.999364
0.999358
0.999359
0.999365
0.999378
0.999389
0.999405
0.999408
0.999417
0.999404
0.99941
0.999395
1.00029
1.00029
1.00029
1.00029
1.00027
1.00025
1.00022
1.0002
1.00017
1.00014
1.00011
1.00009
1.00006
1.00004
1.00001
0.999983
0.999947
0.999908
0.999866
0.999823
0.999782
0.999744
0.999711
0.999682
0.999657
0.999634
0.999612
0.999588
0.999562
0.999535
0.999507
0.999478
0.999452
0.999429
0.99941
0.999396
0.999386
0.999381
0.999378
0.999376
0.999374
0.999372
0.999366
0.999358
0.999347
0.999333
0.999318
0.999304
0.999292
0.999286
0.999286
0.999293
0.999307
0.99932
0.999338
0.999342
0.999351
0.999337
0.999343
0.999327
1.00031
1.00032
1.00032
1.00032
1.0003
1.00028
1.00025
1.00022
1.00018
1.00015
1.00012
1.0001
1.00007
1.00004
1.00001
0.999981
0.999942
0.999899
0.999852
0.999805
0.999759
0.999717
0.999681
0.999649
0.999621
0.999596
0.999571
0.999545
0.999517
0.999487
0.999456
0.999424
0.999395
0.999369
0.999348
0.999333
0.999322
0.999316
0.999312
0.999311
0.999309
0.999307
0.999301
0.999292
0.99928
0.999265
0.999248
0.999232
0.999219
0.999211
0.999212
0.999218
0.999234
0.999249
0.999268
0.999273
0.999284
0.999268
0.999275
0.999257
1.00034
1.00035
1.00036
1.00035
1.00033
1.0003
1.00027
1.00024
1.0002
1.00017
1.00014
1.00011
1.00008
1.00005
1.00002
0.99998
0.999937
0.99989
0.999839
0.999786
0.999736
0.99969
0.999649
0.999614
0.999584
0.999556
0.999529
0.999501
0.999471
0.999438
0.999403
0.999369
0.999337
0.999308
0.999285
0.999267
0.999256
0.999249
0.999245
0.999244
0.999242
0.99924
0.999234
0.999224
0.999211
0.999194
0.999175
0.999158
0.999143
0.999134
0.999134
0.999142
0.999158
0.999175
0.999197
0.999203
0.999215
0.999198
0.999205
0.999185
1.00037
1.00039
1.00039
1.00038
1.00036
1.00033
1.0003
1.00026
1.00022
1.00018
1.00015
1.00012
1.00008
1.00005
1.00002
0.999978
0.999932
0.99988
0.999824
0.999768
0.999712
0.999662
0.999617
0.999579
0.999546
0.999516
0.999486
0.999456
0.999423
0.999387
0.99935
0.999312
0.999277
0.999245
0.99922
0.9992
0.999187
0.99918
0.999176
0.999175
0.999173
0.999171
0.999165
0.999155
0.99914
0.999122
0.999101
0.999082
0.999065
0.999055
0.999055
0.999062
0.999081
0.999099
0.999123
0.999131
0.999144
0.999126
0.999133
0.999111
1.00041
1.00042
1.00042
1.00041
1.00039
1.00036
1.00032
1.00028
1.00024
1.0002
1.00016
1.00013
1.00009
1.00006
1.00002
0.999976
0.999927
0.999871
0.99981
0.999748
0.999688
0.999633
0.999584
0.999542
0.999506
0.999474
0.999442
0.999409
0.999374
0.999335
0.999294
0.999253
0.999215
0.99918
0.999152
0.999131
0.999117
0.999109
0.999105
0.999104
0.999102
0.9991
0.999094
0.999083
0.999067
0.999048
0.999025
0.999003
0.998985
0.998974
0.998972
0.998981
0.999
0.99902
0.999047
0.999056
0.99907
0.999051
0.999059
0.999034
1.00044
1.00045
1.00046
1.00045
1.00042
1.00039
1.00035
1.00031
1.00026
1.00022
1.00017
1.00013
1.0001
1.00006
1.00002
0.999975
0.999921
0.999861
0.999795
0.999728
0.999663
0.999603
0.99955
0.999504
0.999465
0.99943
0.999397
0.999361
0.999323
0.999281
0.999237
0.999193
0.999151
0.999114
0.999083
0.99906
0.999044
0.999035
0.999031
0.99903
0.999029
0.999027
0.99902
0.999009
0.998993
0.998972
0.998947
0.998923
0.998902
0.99889
0.998888
0.998896
0.998917
0.998939
0.998969
0.998979
0.998995
0.998975
0.998982
0.998956
1.00047
1.00049
1.00049
1.00048
1.00046
1.00042
1.00038
1.00033
1.00028
1.00023
1.00019
1.00014
1.00011
1.00007
1.00002
0.999973
0.999916
0.999851
0.999781
0.999708
0.999637
0.999572
0.999515
0.999465
0.999423
0.999386
0.999349
0.999312
0.999271
0.999226
0.999179
0.999131
0.999086
0.999045
0.999012
0.998986
0.998969
0.99896
0.998955
0.998954
0.998954
0.998952
0.998945
0.998934
0.998916
0.998893
0.998867
0.99884
0.998818
0.998803
0.9988
0.998809
0.998832
0.998856
0.998888
0.9989
0.998917
0.998896
0.998904
0.998875
1.00051
1.00052
1.00053
1.00052
1.00049
1.00046
1.00041
1.00036
1.0003
1.00025
1.0002
1.00015
1.00011
1.00007
1.00002
0.999971
0.99991
0.999841
0.999765
0.999687
0.999611
0.999541
0.999478
0.999425
0.99938
0.99934
0.999301
0.999261
0.999217
0.99917
0.999119
0.999068
0.999019
0.998975
0.998938
0.998911
0.998892
0.998882
0.998877
0.998876
0.998876
0.998874
0.998868
0.998856
0.998837
0.998813
0.998784
0.998756
0.998731
0.998714
0.998711
0.998719
0.998743
0.99877
0.998804
0.998818
0.998837
0.998815
0.998823
0.998792
1.00054
1.00056
1.00056
1.00055
1.00053
1.00049
1.00044
1.00038
1.00032
1.00027
1.00021
1.00017
1.00012
1.00007
1.00003
0.999969
0.999904
0.999831
0.99975
0.999666
0.999584
0.999508
0.999441
0.999384
0.999335
0.999292
0.999251
0.999209
0.999162
0.999112
0.999057
0.999002
0.99895
0.998902
0.998863
0.998833
0.998813
0.998801
0.998796
0.998795
0.998796
0.998794
0.998788
0.998776
0.998756
0.998731
0.9987
0.998669
0.998641
0.998623
0.998618
0.998627
0.998652
0.99868
0.998718
0.998734
0.998754
0.998731
0.998739
0.998706
1.00058
1.00059
1.0006
1.00059
1.00056
1.00052
1.00047
1.00041
1.00035
1.00028
1.00023
1.00018
1.00013
1.00008
1.00003
0.999967
0.999899
0.99982
0.999734
0.999645
0.999557
0.999475
0.999403
0.999341
0.999289
0.999243
0.999199
0.999155
0.999105
0.999052
0.998994
0.998935
0.998879
0.998828
0.998785
0.998753
0.998731
0.998718
0.998713
0.998712
0.998713
0.998712
0.998706
0.998694
0.998673
0.998646
0.998613
0.99858
0.998549
0.998529
0.998523
0.998532
0.998558
0.998588
0.998628
0.998647
0.998669
0.998646
0.998654
0.998618
1.00061
1.00063
1.00064
1.00063
1.0006
1.00056
1.0005
1.00044
1.00037
1.0003
1.00024
1.00019
1.00013
1.00008
1.00003
0.999965
0.999893
0.999809
0.999718
0.999622
0.999529
0.999441
0.999364
0.999297
0.999242
0.999193
0.999146
0.999099
0.999047
0.99899
0.998929
0.998866
0.998806
0.998751
0.998705
0.99867
0.998646
0.998633
0.998627
0.998627
0.998628
0.998627
0.998622
0.998609
0.998588
0.998559
0.998524
0.998488
0.998455
0.998433
0.998425
0.998433
0.998461
0.998493
0.998536
0.998557
0.998581
0.998558
0.998566
0.998527
1.00065
1.00067
1.00068
1.00067
1.00064
1.0006
1.00054
1.00047
1.00039
1.00032
1.00026
1.0002
1.00014
1.00009
1.00003
0.999963
0.999886
0.999798
0.999701
0.9996
0.9995
0.999406
0.999323
0.999252
0.999193
0.99914
0.999091
0.999041
0.998987
0.998927
0.998862
0.998796
0.998731
0.998672
0.998623
0.998585
0.998559
0.998545
0.998538
0.998538
0.99854
0.99854
0.998535
0.998522
0.9985
0.99847
0.998433
0.998394
0.998359
0.998334
0.998324
0.998332
0.99836
0.998395
0.998441
0.998464
0.998491
0.998467
0.998475
0.998433
1.00069
1.00071
1.00072
1.00071
1.00068
1.00063
1.00057
1.0005
1.00042
1.00034
1.00027
1.00021
1.00015
1.00009
1.00003
0.999961
0.99988
0.999787
0.999685
0.999577
0.99947
0.99937
0.999282
0.999206
0.999142
0.999087
0.999035
0.998982
0.998925
0.998862
0.998794
0.998723
0.998654
0.998592
0.998539
0.998498
0.99847
0.998454
0.998447
0.998447
0.998449
0.99845
0.998445
0.998433
0.99841
0.998379
0.99834
0.998298
0.998259
0.998232
0.99822
0.998228
0.998257
0.998294
0.998343
0.998369
0.998398
0.998374
0.998382
0.998337
1.00073
1.00075
1.00076
1.00075
1.00072
1.00067
1.00061
1.00053
1.00045
1.00037
1.00029
1.00022
1.00016
1.0001
1.00003
0.999959
0.999874
0.999776
0.999668
0.999554
0.99944
0.999334
0.999239
0.999158
0.99909
0.999031
0.998976
0.998921
0.998861
0.998795
0.998723
0.998649
0.998576
0.998509
0.998452
0.998408
0.998378
0.99836
0.998353
0.998353
0.998355
0.998357
0.998353
0.998341
0.998318
0.998285
0.998244
0.9982
0.998158
0.998128
0.998114
0.998121
0.99815
0.998189
0.998241
0.99827
0.998302
0.998278
0.998286
0.998238
1.00077
1.0008
1.00081
1.0008
1.00076
1.00071
1.00064
1.00056
1.00047
1.00039
1.00031
1.00023
1.00017
1.0001
1.00003
0.999956
0.999867
0.999764
0.99965
0.99953
0.99941
0.999297
0.999196
0.999109
0.999037
0.998974
0.998916
0.998858
0.998795
0.998726
0.998651
0.998572
0.998495
0.998424
0.998363
0.998316
0.998283
0.998264
0.998256
0.998255
0.998258
0.998261
0.998258
0.998246
0.998223
0.998189
0.998145
0.998099
0.998054
0.998021
0.998004
0.99801
0.99804
0.998081
0.998136
0.998168
0.998203
0.998179
0.998187
0.998136
1.00081
1.00084
1.00085
1.00084
1.00081
1.00075
1.00068
1.00059
1.0005
1.00041
1.00032
1.00025
1.00017
1.00011
1.00003
0.999953
0.99986
0.999753
0.999633
0.999506
0.999379
0.999258
0.999151
0.999059
0.998981
0.998915
0.998854
0.998794
0.998728
0.998655
0.998576
0.998494
0.998412
0.998336
0.998272
0.998221
0.998185
0.998164
0.998155
0.998155
0.998159
0.998162
0.99816
0.998148
0.998125
0.99809
0.998045
0.997996
0.997947
0.997911
0.997892
0.997897
0.997927
0.99797
0.998028
0.998063
0.9981
0.998077
0.998086
0.998032
1.00086
1.00088
1.0009
1.00089
1.00085
1.0008
1.00072
1.00063
1.00053
1.00043
1.00034
1.00026
1.00018
1.00011
1.00003
0.999951
0.999853
0.999741
0.999615
0.999481
0.999347
0.999219
0.999105
0.999007
0.998925
0.998854
0.99879
0.998727
0.998658
0.998583
0.9985
0.998413
0.998327
0.998247
0.998178
0.998124
0.998085
0.998062
0.998052
0.998052
0.998056
0.99806
0.998058
0.998048
0.998024
0.997989
0.997942
0.99789
0.997838
0.997799
0.997777
0.99778
0.99781
0.997855
0.997916
0.997955
0.997995
0.997972
0.997981
0.997924
1.0009
1.00093
1.00094
1.00093
1.0009
1.00084
1.00076
1.00066
1.00056
1.00046
1.00036
1.00027
1.00019
1.00011
1.00004
0.999947
0.999846
0.999728
0.999596
0.999456
0.999314
0.99918
0.999059
0.998954
0.998866
0.998792
0.998724
0.998658
0.998586
0.998508
0.998421
0.99833
0.99824
0.998155
0.998082
0.998024
0.997982
0.997957
0.997946
0.997945
0.99795
0.997955
0.997954
0.997944
0.997921
0.997885
0.997836
0.997782
0.997726
0.997684
0.997659
0.99766
0.997689
0.997736
0.9978
0.997842
0.997886
0.997864
0.997874
0.997813
1.00095
1.00098
1.00099
1.00098
1.00094
1.00089
1.0008
1.0007
1.00059
1.00048
1.00038
1.00029
1.0002
1.00012
1.00004
0.999944
0.999838
0.999715
0.999578
0.99943
0.999281
0.999139
0.999011
0.9989
0.998807
0.998727
0.998656
0.998587
0.998512
0.998431
0.99834
0.998245
0.99815
0.998061
0.997983
0.997921
0.997876
0.997849
0.997836
0.997835
0.99784
0.997846
0.997846
0.997838
0.997815
0.997778
0.997727
0.997671
0.997612
0.997566
0.997538
0.997537
0.997566
0.997613
0.99768
0.997726
0.997774
0.997753
0.997763
0.997699
1.001
1.00102
1.00104
1.00103
1.00099
1.00093
1.00084
1.00074
1.00063
1.00051
1.0004
1.0003
1.00021
1.00012
1.00004
0.99994
0.99983
0.999702
0.999559
0.999404
0.999248
0.999098
0.998962
0.998844
0.998745
0.998661
0.998586
0.998514
0.998436
0.998351
0.998258
0.998158
0.998059
0.997964
0.997882
0.997816
0.997768
0.997738
0.997724
0.997722
0.997727
0.997734
0.997735
0.997727
0.997705
0.997668
0.997616
0.997557
0.997496
0.997446
0.997414
0.997411
0.997438
0.997487
0.997557
0.997606
0.997658
0.997639
0.997649
0.997581
1.00104
1.00107
1.00109
1.00108
1.00104
1.00098
1.00089
1.00078
1.00066
1.00054
1.00042
1.00032
1.00022
1.00013
1.00004
0.999936
0.999821
0.999689
0.999539
0.999378
0.999214
0.999056
0.998912
0.998787
0.998682
0.998593
0.998514
0.998438
0.998358
0.99827
0.998172
0.998069
0.997965
0.997866
0.997779
0.997708
0.997656
0.997623
0.997608
0.997605
0.997611
0.997618
0.997621
0.997614
0.997592
0.997555
0.997502
0.997441
0.997376
0.997323
0.997287
0.997281
0.997307
0.997357
0.997429
0.997482
0.997538
0.997521
0.997532
0.997461
1.0011
1.00112
1.00114
1.00113
1.00109
1.00103
1.00093
1.00082
1.0007
1.00057
1.00044
1.00033
1.00023
1.00013
1.00004
0.999932
0.999813
0.999675
0.999519
0.999351
0.999179
0.999013
0.998861
0.998728
0.998617
0.998523
0.99844
0.99836
0.998277
0.998185
0.998085
0.997977
0.997868
0.997764
0.997673
0.997597
0.997541
0.997506
0.997488
0.997485
0.99749
0.997498
0.997502
0.997497
0.997476
0.997439
0.997385
0.997323
0.997254
0.997197
0.997158
0.997149
0.997173
0.997223
0.997297
0.997354
0.997414
0.997399
0.997412
0.997336
1.00115
1.00118
1.00119
1.00118
1.00114
1.00108
1.00098
1.00086
1.00073
1.0006
1.00047
1.00035
1.00024
1.00014
1.00004
0.999927
0.999803
0.99966
0.999499
0.999324
0.999144
0.998969
0.998809
0.998669
0.998551
0.998451
0.998364
0.99828
0.998194
0.998099
0.997994
0.997883
0.99777
0.997661
0.997564
0.997484
0.997424
0.997385
0.997366
0.997361
0.997366
0.997375
0.99738
0.997376
0.997356
0.99732
0.997266
0.997201
0.99713
0.997069
0.997025
0.997013
0.997035
0.997085
0.997161
0.997222
0.997285
0.997274
0.997288
0.997208
1.0012
1.00123
1.00125
1.00124
1.0012
1.00113
1.00103
1.00091
1.00077
1.00063
1.00049
1.00037
1.00025
1.00014
1.00004
0.999923
0.999794
0.999646
0.999478
0.999296
0.999108
0.998925
0.998756
0.998608
0.998483
0.998377
0.998285
0.998198
0.998108
0.99801
0.997902
0.997786
0.997668
0.997555
0.997453
0.997368
0.997304
0.997262
0.997239
0.997234
0.997238
0.997248
0.997253
0.997251
0.997232
0.997197
0.997142
0.997077
0.997003
0.996938
0.99689
0.996874
0.996893
0.996943
0.99702
0.997085
0.997153
0.997144
0.99716
0.997077
1.00126
1.00128
1.0013
1.00129
1.00125
1.00118
1.00108
1.00095
1.00081
1.00066
1.00052
1.00038
1.00026
1.00015
1.00004
0.999917
0.999784
0.99963
0.999456
0.999267
0.999071
0.99888
0.998702
0.998546
0.998413
0.998301
0.998204
0.998113
0.998019
0.997918
0.997807
0.997687
0.997565
0.997446
0.997339
0.997249
0.997181
0.997135
0.99711
0.997103
0.997106
0.997116
0.997123
0.997122
0.997105
0.997071
0.997016
0.996949
0.996873
0.996805
0.996752
0.996733
0.996749
0.996797
0.996876
0.996943
0.997016
0.99701
0.997028
0.996941
1.00131
1.00134
1.00136
1.00135
1.00131
1.00124
1.00113
1.001
1.00085
1.0007
1.00054
1.0004
1.00027
1.00015
1.00004
0.999912
0.999773
0.999614
0.999434
0.999238
0.999034
0.998834
0.998648
0.998482
0.998342
0.998224
0.998121
0.998025
0.997928
0.997824
0.997709
0.997585
0.997458
0.997335
0.997223
0.997128
0.997055
0.997005
0.996977
0.996968
0.996971
0.99698
0.996988
0.996989
0.996973
0.99694
0.996886
0.996819
0.99674
0.996669
0.996612
0.996588
0.9966
0.996648
0.996726
0.996797
0.996874
0.996872
0.996892
0.996802
1.00137
1.0014
1.00142
1.0014
1.00136
1.00129
1.00118
1.00105
1.00089
1.00073
1.00057
1.00042
1.00029
1.00016
1.00004
0.999906
0.999762
0.999598
0.999412
0.999208
0.998997
0.998787
0.998592
0.998418
0.998269
0.998144
0.998035
0.997935
0.997834
0.997726
0.997608
0.99748
0.997349
0.997221
0.997104
0.997003
0.996926
0.996872
0.996841
0.996829
0.996831
0.996841
0.996849
0.996851
0.996837
0.996806
0.996753
0.996685
0.996604
0.99653
0.996469
0.996441
0.996449
0.996494
0.996573
0.996647
0.996728
0.99673
0.996753
0.996659
1.00143
1.00146
1.00148
1.00146
1.00142
1.00135
1.00124
1.0011
1.00094
1.00077
1.0006
1.00044
1.0003
1.00016
1.00003
0.9999
0.99975
0.999581
0.999388
0.999178
0.998958
0.99874
0.998535
0.998352
0.998195
0.998062
0.997948
0.997843
0.997737
0.997626
0.997504
0.997373
0.997237
0.997104
0.996982
0.996877
0.996794
0.996736
0.996701
0.996687
0.996687
0.996696
0.996706
0.996709
0.996697
0.996668
0.996615
0.996548
0.996466
0.996389
0.996323
0.996291
0.996294
0.996337
0.996415
0.996491
0.996576
0.996583
0.996609
0.996511
1.0015
1.00152
1.00154
1.00152
1.00148
1.00141
1.00129
1.00115
1.00098
1.00081
1.00063
1.00047
1.00031
1.00017
1.00003
0.999893
0.999738
0.999563
0.999364
0.999147
0.998919
0.998692
0.998478
0.998285
0.99812
0.997979
0.997858
0.997748
0.997638
0.997523
0.997397
0.997262
0.997123
0.996985
0.996857
0.996747
0.996659
0.996596
0.996558
0.996541
0.996539
0.996548
0.996558
0.996562
0.996552
0.996525
0.996474
0.996407
0.996324
0.996245
0.996175
0.996138
0.996136
0.996176
0.996252
0.996331
0.99642
0.99643
0.99646
0.99636
1.00156
1.00158
1.0016
1.00158
1.00154
1.00147
1.00135
1.0012
1.00103
1.00085
1.00066
1.00049
1.00033
1.00018
1.00003
0.999886
0.999726
0.999544
0.99934
0.999115
0.998879
0.998643
0.99842
0.998217
0.998043
0.997894
0.997766
0.99765
0.997536
0.997417
0.997288
0.997149
0.997005
0.996862
0.99673
0.996614
0.996522
0.996454
0.996411
0.996391
0.996388
0.996395
0.996405
0.99641
0.996402
0.996377
0.996328
0.996263
0.996179
0.996098
0.996024
0.995982
0.995975
0.996011
0.996086
0.996165
0.996258
0.996273
0.996307
0.996204
1.00163
1.00165
1.00166
1.00164
1.0016
1.00153
1.00141
1.00126
1.00108
1.00089
1.0007
1.00051
1.00034
1.00019
1.00003
0.999879
0.999712
0.999525
0.999314
0.999083
0.998839
0.998594
0.998361
0.998148
0.997964
0.997807
0.997671
0.99755
0.997431
0.997308
0.997175
0.997032
0.996884
0.996737
0.9966
0.996479
0.996381
0.996309
0.996261
0.996238
0.996232
0.996238
0.996247
0.996254
0.996248
0.996225
0.996178
0.996114
0.996031
0.995948
0.995871
0.995824
0.995811
0.995843
0.995915
0.995995
0.996092
0.996111
0.99615
0.996043
1.0017
1.00171
1.00173
1.00171
1.00167
1.00159
1.00147
1.00131
1.00113
1.00093
1.00073
1.00054
1.00036
1.00019
1.00003
0.999872
0.999699
0.999505
0.999288
0.99905
0.998797
0.998543
0.998301
0.998078
0.997884
0.997718
0.997575
0.997447
0.997323
0.997195
0.997059
0.996913
0.996761
0.996609
0.996467
0.996341
0.996238
0.99616
0.996108
0.996081
0.996072
0.996076
0.996085
0.996092
0.996088
0.996067
0.996024
0.995962
0.995879
0.995796
0.995715
0.995663
0.995645
0.995672
0.99574
0.995821
0.99592
0.995944
0.995987
0.995878
1.00177
1.00178
1.00179
1.00177
1.00173
1.00165
1.00153
1.00137
1.00118
1.00098
1.00077
1.00057
1.00038
1.0002
1.00003
0.999865
0.999685
0.999485
0.999261
0.999015
0.998755
0.998492
0.99824
0.998007
0.997803
0.997628
0.997476
0.997341
0.997212
0.99708
0.996939
0.99679
0.996634
0.996478
0.996331
0.9962
0.996091
0.996009
0.995952
0.995921
0.995908
0.99591
0.995918
0.995925
0.995923
0.995905
0.995864
0.995805
0.995723
0.99564
0.995556
0.9955
0.995476
0.995497
0.995561
0.995641
0.995742
0.995771
0.995819
0.995708
1.00184
1.00185
1.00186
1.00184
1.0018
1.00172
1.00159
1.00143
1.00123
1.00102
1.00081
1.0006
1.0004
1.00021
1.00004
0.999858
0.99967
0.999463
0.999233
0.99898
0.998712
0.99844
0.998178
0.997935
0.997721
0.997536
0.997376
0.997234
0.997098
0.996961
0.996817
0.996663
0.996503
0.996343
0.996192
0.996056
0.995942
0.995854
0.995793
0.995757
0.99574
0.99574
0.995747
0.995754
0.995752
0.995737
0.995699
0.995643
0.995564
0.99548
0.995394
0.995335
0.995304
0.99532
0.995379
0.995457
0.99556
0.995592
0.995647
0.995533
1.00192
1.00193
1.00193
1.00191
1.00186
1.00178
1.00165
1.00149
1.00129
1.00107
1.00085
1.00063
1.00042
1.00022
1.00004
0.999851
0.999655
0.999442
0.999204
0.998944
0.998668
0.998388
0.998115
0.997862
0.997638
0.997442
0.997273
0.997123
0.996981
0.99684
0.996691
0.996533
0.99637
0.996206
0.99605
0.995909
0.99579
0.995697
0.99563
0.99559
0.995569
0.995565
0.99557
0.995577
0.995576
0.995564
0.995529
0.995477
0.9954
0.995318
0.99523
0.995167
0.99513
0.99514
0.995193
0.995269
0.995372
0.995408
0.995469
0.995353
1.002
1.002
1.00201
1.00198
1.00193
1.00185
1.00172
1.00155
1.00134
1.00112
1.00089
1.00066
1.00044
1.00023
1.00004
0.999843
0.99964
0.999419
0.999174
0.998908
0.998623
0.998334
0.998052
0.997788
0.997553
0.997347
0.997169
0.997011
0.996862
0.996715
0.996561
0.9964
0.996233
0.996064
0.995904
0.995759
0.995635
0.995537
0.995465
0.995419
0.995394
0.995387
0.995389
0.995395
0.995395
0.995384
0.995353
0.995305
0.995231
0.995151
0.995063
0.994997
0.994954
0.994957
0.995003
0.995076
0.995179
0.995218
0.995286
0.995168
1.00208
1.00208
1.00208
1.00205
1.002
1.00192
1.00178
1.00161
1.0014
1.00117
1.00093
1.00069
1.00046
1.00025
1.00004
0.999837
0.999625
0.999396
0.999144
0.99887
0.998578
0.998279
0.997987
0.997713
0.997467
0.997251
0.997063
0.996896
0.99674
0.996587
0.996428
0.996263
0.996092
0.99592
0.995756
0.995605
0.995477
0.995373
0.995296
0.995245
0.995216
0.995204
0.995203
0.995208
0.995208
0.9952
0.995172
0.995127
0.995058
0.994981
0.994892
0.994824
0.994775
0.994772
0.994811
0.994879
0.994981
0.995023
0.995097
0.994977
1.00216
1.00216
1.00216
1.00213
1.00207
1.00199
1.00185
1.00167
1.00146
1.00122
1.00098
1.00073
1.00049
1.00026
1.00004
0.99983
0.999609
0.999372
0.999113
0.998831
0.998531
0.998224
0.997922
0.997638
0.997381
0.997153
0.996955
0.996779
0.996615
0.996456
0.996292
0.996122
0.995947
0.995772
0.995604
0.995449
0.995316
0.995207
0.995125
0.995068
0.995034
0.995018
0.995014
0.995016
0.995016
0.995009
0.994985
0.994945
0.994879
0.994806
0.994718
0.994648
0.994595
0.994585
0.994616
0.994679
0.994778
0.994823
0.994904
0.994782
1.00225
1.00225
1.00224
1.0022
1.00215
1.00206
1.00192
1.00174
1.00152
1.00128
1.00102
1.00076
1.00051
1.00028
1.00005
0.999824
0.999594
0.999348
0.99908
0.998791
0.998483
0.998167
0.997856
0.997561
0.997293
0.997054
0.996845
0.99666
0.996488
0.996322
0.996152
0.995978
0.995799
0.99562
0.995448
0.995289
0.995151
0.995038
0.99495
0.994889
0.994848
0.994828
0.994819
0.994819
0.994818
0.994812
0.994791
0.994756
0.994695
0.994626
0.994541
0.99447
0.994412
0.994396
0.994419
0.994476
0.994571
0.994617
0.994705
0.99458
1.00234
1.00234
1.00232
1.00228
1.00222
1.00213
1.00199
1.0018
1.00158
1.00133
1.00107
1.0008
1.00054
1.00029
1.00005
0.999819
0.999578
0.999323
0.999048
0.99875
0.998434
0.99811
0.997789
0.997483
0.997204
0.996954
0.996734
0.996539
0.996358
0.996185
0.99601
0.995831
0.995648
0.995464
0.995289
0.995126
0.994984
0.994866
0.994773
0.994706
0.99466
0.994634
0.994621
0.994617
0.994615
0.99461
0.994591
0.99456
0.994506
0.994442
0.994359
0.994289
0.994227
0.994205
0.994219
0.994269
0.99436
0.994406
0.994501
0.994374
1.00243
1.00243
1.00241
1.00237
1.0023
1.0022
1.00206
1.00187
1.00164
1.00139
1.00112
1.00084
1.00057
1.00031
1.00006
0.999814
0.999563
0.999299
0.999014
0.998708
0.998384
0.998051
0.99772
0.997404
0.997114
0.996852
0.996622
0.996416
0.996226
0.996045
0.995863
0.995679
0.995492
0.995305
0.995126
0.994959
0.994813
0.99469
0.994592
0.99452
0.994469
0.994437
0.994419
0.994411
0.994407
0.994401
0.994386
0.994359
0.99431
0.994252
0.994174
0.994105
0.99404
0.994012
0.994018
0.99406
0.994145
0.99419
0.994291
0.994161
1.00253
1.00252
1.0025
1.00245
1.00238
1.00228
1.00213
1.00194
1.00171
1.00145
1.00117
1.00088
1.0006
1.00033
1.00007
0.99981
0.999548
0.999274
0.99898
0.998666
0.998333
0.997991
0.997651
0.997325
0.997023
0.99675
0.996508
0.996291
0.996092
0.995902
0.995714
0.995525
0.995333
0.995142
0.994959
0.994789
0.994639
0.994512
0.994409
0.994332
0.994274
0.994237
0.994213
0.994201
0.994193
0.994187
0.994173
0.994151
0.994108
0.994056
0.993983
0.993917
0.993851
0.993818
0.993815
0.993849
0.993927
0.99397
0.994077
0.993944
1.00263
1.00262
1.00259
1.00254
1.00246
1.00236
1.0022
1.00201
1.00177
1.00151
1.00122
1.00093
1.00064
1.00035
1.00008
0.999807
0.999534
0.999248
0.998945
0.998622
0.998281
0.99793
0.997581
0.997244
0.996931
0.996646
0.996393
0.996165
0.995955
0.995757
0.995562
0.995366
0.99517
0.994975
0.994788
0.994615
0.994461
0.99433
0.994223
0.99414
0.994077
0.994034
0.994004
0.993986
0.993975
0.993967
0.993955
0.993937
0.9939
0.993855
0.993788
0.993726
0.993659
0.993621
0.99361
0.993636
0.993706
0.993746
0.993859
0.993721
1.00273
1.00272
1.00269
1.00263
1.00255
1.00244
1.00228
1.00208
1.00184
1.00157
1.00127
1.00097
1.00067
1.00037
1.00009
0.999805
0.99952
0.999224
0.998911
0.998578
0.998228
0.997868
0.997509
0.997162
0.996838
0.996542
0.996276
0.996037
0.995817
0.99561
0.995406
0.995205
0.995003
0.994804
0.994614
0.994437
0.99428
0.994145
0.994034
0.993946
0.993877
0.993828
0.993792
0.993768
0.993753
0.993742
0.993731
0.993716
0.993685
0.993647
0.993587
0.99353
0.993464
0.993424
0.993405
0.993421
0.993482
0.993518
0.993636
0.993492
1.00284
1.00282
1.00278
1.00272
1.00264
1.00252
1.00236
1.00215
1.00191
1.00163
1.00133
1.00102
1.00071
1.0004
1.0001
0.999804
0.999507
0.999199
0.998875
0.998533
0.998174
0.997805
0.997437
0.997079
0.996744
0.996436
0.996159
0.995908
0.995677
0.99546
0.995249
0.99504
0.994833
0.99463
0.994436
0.994255
0.994095
0.993957
0.993842
0.993749
0.993675
0.993619
0.993577
0.993547
0.993526
0.993512
0.9935
0.993488
0.993463
0.993433
0.993381
0.99333
0.993266
0.993224
0.993198
0.993206
0.993256
0.993287
0.993409
0.993259
1.00294
1.00292
1.00288
1.00281
1.00273
1.0026
1.00244
1.00223
1.00198
1.00169
1.00139
1.00107
1.00074
1.00042
1.00011
0.999804
0.999494
0.999174
0.99884
0.998488
0.998119