/*--------------------------------*- C++ -*----------------------------------*\
| =========                 |                                                 |
| \\      /  F ield         | foam-extend: Open Source CFD                    |
|  \\    /   O peration     | Version:     4.0                                |
|   \\  /    A nd           | Web:         http://www.foam-extend.org         |
|    \\/     M anipulation  |                                                 |
\*---------------------------------------------------------------------------*/
FoamFile
{
    version     2.0;
    format      ascii;
    class       volScalarField;
    location    "1";
    object      p;
}
// * * * * * * * * * * * * * * * * * * * * * * * * * * * * * * * * * * * * * //

dimensions      [0 2 -2 0 0 0 0];

internalField   nonuniform List<scalar> 
6960
(
-1.77615e-06
-6.25965e-06
-8.41522e-06
-6.96611e-06
-3.74489e-06
1.39923e-06
6.45732e-06
1.01059e-05
1.09096e-05
8.79237e-06
4.16457e-06
-1.58954e-06
-6.95838e-06
-1.05028e-05
-1.13929e-05
-9.53175e-06
-5.54641e-06
-5.64074e-07
4.15274e-06
7.52219e-06
8.92382e-06
8.27329e-06
5.99162e-06
2.81353e-06
-4.24211e-07
-3.0092e-06
-4.4953e-06
-4.76818e-06
-4.01253e-06
-2.61749e-06
-1.04656e-06
2.87613e-07
1.11863e-06
1.36724e-06
1.13458e-06
6.40176e-07
1.45172e-07
-1.39937e-07
-1.12719e-07
1.93187e-07
6.27043e-07
9.89476e-07
1.08327e-06
8.28729e-07
2.25795e-07
-5.33597e-07
-1.28158e-06
-1.71866e-06
-1.79129e-06
-1.37196e-06
-7.05968e-07
1.0871e-07
7.14993e-07
9.99302e-07
9.09331e-07
4.34091e-07
1.37814e-08
-4.6303e-07
-5.0299e-07
-4.38535e-07
-2.36487e-06
-6.27339e-06
-8.43595e-06
-6.98248e-06
-3.75168e-06
1.40426e-06
6.47334e-06
1.01287e-05
1.09318e-05
8.80738e-06
4.16797e-06
-1.59863e-06
-6.97729e-06
-1.05261e-05
-1.14144e-05
-9.54597e-06
-5.55028e-06
-5.57438e-07
4.16735e-06
7.54052e-06
8.94119e-06
8.28585e-06
5.99719e-06
2.81183e-06
-4.31755e-07
-3.02008e-06
-4.50668e-06
-4.77754e-06
-4.01819e-06
-2.61878e-06
-1.04384e-06
2.93189e-07
1.12544e-06
1.37356e-06
1.13897e-06
6.41707e-07
1.43668e-07
-1.43919e-07
-1.18017e-07
1.88042e-07
6.23466e-07
9.88458e-07
1.08511e-06
8.32966e-07
2.3129e-07
-5.28296e-07
-1.27791e-06
-1.71752e-06
-1.79295e-06
-1.37573e-06
-7.10719e-07
1.0456e-07
7.12554e-07
9.99354e-07
9.11424e-07
4.37363e-07
1.66785e-08
-4.61895e-07
-5.0319e-07
-4.40799e-07
-2.41329e-06
-6.27604e-06
-8.46026e-06
-7.01823e-06
-3.79021e-06
1.3753e-06
6.4636e-06
1.01423e-05
1.09644e-05
8.85016e-06
4.20858e-06
-1.57118e-06
-6.97013e-06
-1.05404e-05
-1.14455e-05
-9.5852e-06
-5.58755e-06
-5.84097e-07
4.15649e-06
7.54621e-06
8.96018e-06
8.31216e-06
6.02399e-06
2.83319e-06
-4.19601e-07
-3.01823e-06
-4.51367e-06
-4.79017e-06
-4.03243e-06
-2.6309e-06
-1.0512e-06
2.91628e-07
1.12902e-06
1.38029e-06
1.14613e-06
6.46686e-07
1.44692e-07
-1.47291e-07
-1.24751e-07
1.80103e-07
6.16995e-07
9.85744e-07
1.08741e-06
8.39978e-07
2.41299e-07
-5.18014e-07
-1.2702e-06
-1.71446e-06
-1.79529e-06
-1.38239e-06
-7.19633e-07
9.66147e-08
7.07559e-07
9.99211e-07
9.14794e-07
4.43181e-07
2.14968e-08
-4.59734e-07
-5.0333e-07
-4.42975e-07
-2.38625e-06
-6.26649e-06
-8.48575e-06
-7.07071e-06
-3.85814e-06
1.3134e-06
6.42755e-06
1.01446e-05
1.10046e-05
8.91757e-06
4.28407e-06
-1.50808e-06
-6.93615e-06
-1.05434e-05
-1.14832e-05
-9.64637e-06
-5.6559e-06
-6.42909e-07
4.11994e-06
7.53788e-06
8.97861e-06
8.34983e-06
6.06998e-06
2.87628e-06
-3.88223e-07
-3.00328e-06
-4.51534e-06
-4.80479e-06
-4.05399e-06
-2.6528e-06
-1.06796e-06
2.83168e-07
1.12924e-06
1.38701e-06
1.15555e-06
6.54598e-07
1.47834e-07
-1.50308e-07
-1.33007e-07
1.69427e-07
6.07787e-07
9.81538e-07
1.09037e-06
8.49926e-07
2.5592e-07
-5.02742e-07
-1.25852e-06
-1.70963e-06
-1.79853e-06
-1.39218e-06
-7.32911e-07
8.47145e-08
6.99968e-07
9.98923e-07
9.19601e-07
4.51761e-07
2.84491e-08
-4.56397e-07
-5.03382e-07
-4.45182e-07
-2.33466e-06
-6.24269e-06
-8.50929e-06
-7.13727e-06
-3.95409e-06
1.21809e-06
6.36289e-06
1.01322e-05
1.10486e-05
9.00687e-06
4.39342e-06
-1.40834e-06
-6.87263e-06
-1.05314e-05
-1.15238e-05
-9.72675e-06
-5.75411e-06
-7.34407e-07
4.0557e-06
7.51263e-06
8.9935e-06
8.39642e-06
6.13372e-06
2.94082e-06
-3.36829e-07
-2.97373e-06
-4.50987e-06
-4.81975e-06
-4.08165e-06
-2.68389e-06
-1.09418e-06
2.67278e-07
1.12529e-06
1.39292e-06
1.16659e-06
6.65123e-07
1.53107e-07
-1.52691e-07
-1.42376e-07
1.56399e-07
5.96071e-07
9.75844e-07
1.09378e-06
8.62449e-07
2.74764e-07
-4.82778e-07
-1.24299e-06
-1.70295e-06
-1.80241e-06
-1.40479e-06
-7.50233e-07
6.9038e-08
6.89816e-07
9.98345e-07
9.25648e-07
4.62886e-07
3.74454e-08
-4.51868e-07
-5.03255e-07
-4.47279e-07
-2.26451e-06
-6.20384e-06
-8.5288e-06
-7.21545e-06
-4.0758e-06
1.09053e-06
6.26929e-06
1.01033e-05
1.10936e-05
9.11512e-06
4.53437e-06
-1.2729e-06
-6.77895e-06
-1.05024e-05
-1.15645e-05
-9.82346e-06
-5.87996e-06
-8.57482e-07
3.96358e-06
7.46918e-06
9.00281e-06
8.44973e-06
6.21333e-06
3.02562e-06
-2.65792e-07
-2.92918e-06
-4.49632e-06
-4.83384e-06
-4.11426e-06
-2.72333e-06
-1.1294e-06
2.43992e-07
1.11689e-06
1.39755e-06
1.17879e-06
6.77925e-07
1.60376e-07
-1.54375e-07
-1.52662e-07
1.41248e-07
5.82002e-07
9.68678e-07
1.0975e-06
8.77295e-07
2.97546e-07
-4.58352e-07
-1.22369e-06
-1.69438e-06
-1.80674e-06
-1.41997e-06
-7.71389e-07
4.9684e-08
6.77099e-07
9.97342e-07
9.3279e-07
4.7642e-07
4.84648e-08
-4.4609e-07
-5.02874e-07
-4.49226e-07
-2.17684e-06
-6.14942e-06
-8.54244e-06
-7.30289e-06
-4.22099e-06
9.32102e-07
6.14673e-06
1.00562e-05
1.11372e-05
9.23944e-06
4.70453e-06
-1.10298e-06
-6.65486e-06
-1.04549e-05
-1.16028e-05
-9.93372e-06
-6.03113e-06
-1.01081e-06
3.8437e-06
7.40649e-06
9.00476e-06
8.50768e-06
6.30693e-06
3.12938e-06
-1.75645e-07
-2.86941e-06
-4.47389e-06
-4.84597e-06
-4.15074e-06
-2.77023e-06
-1.17313e-06
2.13418e-07
1.10383e-06
1.40051e-06
1.19174e-06
6.92694e-07
1.69506e-07
-1.55317e-07
-1.63703e-07
1.24161e-07
5.65703e-07
9.60035e-07
1.10138e-06
8.94221e-07
3.24e-07
-4.29663e-07
-1.20072e-06
-1.68384e-06
-1.81134e-06
-1.43751e-06
-7.96182e-07
2.67301e-08
6.61784e-07
9.95763e-07
9.40871e-07
4.92236e-07
6.14912e-08
-4.38998e-07
-5.02162e-07
-4.50996e-07
-2.07218e-06
-6.07904e-06
-8.54848e-06
-7.39728e-06
-4.38731e-06
7.44307e-07
5.99534e-06
9.98976e-06
1.11768e-05
9.37699e-06
4.90147e-06
-8.99938e-07
-6.50024e-06
-1.03872e-05
-1.16362e-05
-1.00548e-05
-6.20526e-06
-1.19296e-06
3.69627e-06
7.32366e-06
8.99762e-06
8.56821e-06
6.41263e-06
3.25075e-06
-6.69852e-08
-2.79428e-06
-4.44186e-06
-4.8551e-06
-4.19e-06
-2.82374e-06
-1.22484e-06
1.75686e-07
1.08592e-06
1.40144e-06
1.20503e-06
7.09134e-07
1.80372e-07
-1.55469e-07
-1.75337e-07
1.05321e-07
5.47281e-07
9.4989e-07
1.10525e-06
9.12968e-07
3.53855e-07
-3.96905e-07
-1.17412e-06
-1.67123e-06
-1.81598e-06
-1.45715e-06
-8.24407e-07
2.52492e-10
6.43827e-07
9.93437e-07
9.49713e-07
5.10192e-07
7.6501e-08
-4.30523e-07
-5.01043e-07
-4.52566e-07
-1.95112e-06
-5.99239e-06
-8.54527e-06
-7.4963e-06
-4.57238e-06
5.28749e-07
5.81538e-06
9.90263e-06
1.12101e-05
9.52485e-06
5.12265e-06
-6.6524e-07
-6.31511e-06
-1.02981e-05
-1.16623e-05
-1.01838e-05
-6.39989e-06
-1.4024e-06
3.52164e-06
7.21986e-06
8.97971e-06
8.62926e-06
6.52849e-06
3.38833e-06
5.95227e-08
-2.70367e-06
-4.39952e-06
-4.86019e-06
-4.23096e-06
-2.88296e-06
-1.284e-06
1.3095e-07
1.063e-06
1.39997e-06
1.21828e-06
7.26954e-07
1.92854e-07
-1.54779e-07
-1.87403e-07
8.49075e-08
5.26837e-07
9.38206e-07
1.10894e-06
9.33259e-07
3.86827e-07
-3.60277e-07
-1.14394e-06
-1.65644e-06
-1.82044e-06
-1.47863e-06
-8.55843e-07
-2.96695e-08
6.23171e-07
9.90177e-07
9.5912e-07
5.30132e-07
9.34609e-08
-4.20596e-07
-4.99438e-07
-4.53913e-07
-1.81437e-06
-5.88928e-06
-8.53121e-06
-7.59765e-06
-4.7737e-06
2.87153e-07
5.60722e-06
9.79367e-06
1.12346e-05
9.68011e-06
5.36542e-06
-4.00503e-07
-6.09963e-06
-1.01861e-05
-1.16786e-05
-1.0318e-05
-6.61249e-06
-1.63748e-06
3.32026e-06
7.09434e-06
8.94938e-06
8.68877e-06
6.65254e-06
3.54063e-06
2.0314e-07
-2.59757e-06
-4.34621e-06
-4.86021e-06
-4.27252e-06
-2.94699e-06
-1.35004e-06
7.93874e-08
1.03491e-06
1.39578e-06
1.23112e-06
7.45867e-07
2.06834e-07
-1.53194e-07
-1.99734e-07
6.30986e-08
5.04465e-07
9.24934e-07
1.11224e-06
9.54806e-07
4.2262e-07
-3.19981e-07
-1.11022e-06
-1.63934e-06
-1.82445e-06
-1.50164e-06
-8.90254e-07
-6.2951e-08
5.99754e-07
9.85779e-07
9.68872e-07
5.51884e-07
1.12327e-07
-4.0915e-07
-4.97265e-07
-4.55012e-07
-1.66281e-06
-5.76959e-06
-8.50476e-06
-7.69901e-06
-4.98873e-06
2.13706e-08
5.37138e-06
9.66182e-06
1.12481e-05
9.83977e-06
5.62702e-06
-1.07487e-07
-5.85409e-06
-1.005e-05
-1.16828e-05
-1.04545e-05
-6.84042e-06
-1.8964e-06
3.0927e-06
6.94646e-06
8.90505e-06
8.74467e-06
6.78275e-06
3.70611e-06
3.63045e-07
-2.476e-06
-4.28132e-06
-4.85416e-06
-4.31358e-06
-3.01488e-06
-1.42237e-06
2.12096e-08
1.00153e-06
1.38853e-06
1.24316e-06
7.65588e-07
2.22192e-07
-1.5066e-07
-2.12168e-07
4.00729e-08
4.80259e-07
9.10022e-07
1.11495e-06
9.77303e-07
4.60928e-07
-2.76225e-07
-1.07301e-06
-1.61978e-06
-1.82773e-06
-1.52589e-06
-9.27389e-07
-9.95003e-08
5.7351e-07
9.80027e-07
9.78732e-07
5.75261e-07
1.33042e-07
-3.96119e-07
-4.94442e-07
-4.55838e-07
-1.49745e-06
-5.63328e-06
-8.46447e-06
-7.79805e-06
-5.21483e-06
-2.66613e-07
5.10853e-06
9.50613e-06
1.12482e-05
1.00008e-05
5.90458e-06
2.11887e-07
-5.57893e-06
-9.88881e-06
-1.16725e-05
-1.05903e-05
-7.08091e-06
-2.17725e-06
2.83967e-06
6.77566e-06
8.84516e-06
8.79486e-06
6.91701e-06
3.8831e-06
5.38323e-07
-2.33908e-06
-4.20429e-06
-4.84104e-06
-4.35303e-06
-3.08568e-06
-1.50033e-06
-4.33372e-08
9.62777e-07
1.3779e-06
1.25403e-06
7.85826e-07
2.38804e-07
-1.47129e-07
-2.24541e-07
1.60083e-08
4.54309e-07
8.93411e-07
1.11685e-06
1.00044e-06
5.01432e-07
-2.29226e-07
-1.03234e-06
-1.59763e-06
-1.83e-06
-1.55103e-06
-9.66981e-07
-1.39216e-07
5.44369e-07
9.72694e-07
9.88447e-07
6.00057e-07
1.55538e-07
-3.81442e-07
-4.90887e-07
-4.56364e-07
-1.31947e-06
-5.48043e-06
-8.40896e-06
-7.89246e-06
-5.44928e-06
-5.74676e-07
4.81949e-06
9.32578e-06
1.12327e-05
1.01602e-05
6.1951e-06
5.55531e-07
-5.27476e-06
-9.70141e-06
-1.16455e-05
-1.07225e-05
-7.33112e-06
-2.47794e-06
2.56205e-06
6.58152e-06
8.76823e-06
8.83727e-06
7.05319e-06
4.06988e-06
7.27957e-07
-2.18702e-06
-4.1146e-06
-4.8199e-06
-4.38975e-06
-3.15839e-06
-1.58327e-06
-1.13966e-07
9.18572e-07
1.3636e-06
1.26337e-06
8.06294e-07
2.56541e-07
-1.42555e-07
-2.36692e-07
-8.91718e-09
4.26708e-07
8.75039e-07
1.11773e-06
1.02388e-06
5.438e-07
-1.7921e-07
-9.88262e-07
-1.57271e-06
-1.83095e-06
-1.57672e-06
-1.00874e-06
-1.81986e-07
5.12266e-07
9.63544e-07
9.97746e-07
6.26047e-07
1.79732e-07
-3.65063e-07
-4.86517e-07
-4.56562e-07
-1.13016e-06
-5.31123e-06
-8.33692e-06
-7.97994e-06
-5.68932e-06
-9.00556e-07
4.50527e-06
9.12011e-06
1.11993e-05
1.03148e-05
6.4955e-06
9.21182e-07
-4.94241e-06
-9.48701e-06
-1.15996e-05
-1.08481e-05
-7.5881e-06
-2.79626e-06
2.26087e-06
6.36377e-06
8.67286e-06
8.86984e-06
7.18909e-06
4.26463e-06
9.30824e-07
-2.02011e-06
-4.01184e-06
-4.7898e-06
-4.42262e-06
-3.23198e-06
-1.67045e-06
-1.90344e-07
8.68892e-07
1.34537e-06
1.27083e-06
8.267e-07
2.75269e-07
-1.36899e-07
-2.48465e-07
-3.4526e-08
3.97548e-07
8.54846e-07
1.11735e-06
1.0473e-06
5.8769e-07
-1.26413e-07
-9.40826e-07
-1.54489e-06
-1.83026e-06
-1.6026e-06
-1.05238e-06
-2.27685e-07
4.77136e-07
9.52331e-07
1.00634e-06
6.52989e-07
2.05525e-07
-3.46936e-07
-4.81251e-07
-4.56403e-07
-9.30966e-07
-5.12596e-06
-8.2472e-06
-8.05825e-06
-5.93209e-06
-1.24185e-06
4.16703e-06
8.88861e-06
1.11462e-05
1.04616e-05
6.80254e-06
1.3064e-06
-4.58287e-06
-9.24493e-06
-1.15325e-05
-1.09642e-05
-7.8488e-06
-3.12981e-06
1.93735e-06
6.12226e-06
8.55776e-06
8.89052e-06
7.32248e-06
4.46543e-06
1.14569e-06
-1.83877e-06
-3.89565e-06
-4.74986e-06
-4.45053e-06
-3.30541e-06
-1.76111e-06
-2.72091e-07
8.13749e-07
1.32296e-06
1.27607e-06
8.46754e-07
2.94845e-07
-1.30132e-07
-2.59706e-07
-6.06411e-08
3.66922e-07
8.3277e-07
1.11548e-06
1.07036e-06
6.32748e-07
-7.10837e-08
-8.90092e-07
-1.514e-06
-1.82761e-06
-1.62827e-06
-1.09756e-06
-2.76171e-07
4.38922e-07
9.38809e-07
1.01393e-06
6.8062e-07
2.32802e-07
-3.2702e-07
-4.75012e-07
-4.55857e-07
-7.23441e-07
-4.92504e-06
-8.13874e-06
-8.12518e-06
-6.17471e-06
-1.59603e-06
3.80614e-06
8.63096e-06
1.10712e-05
1.05974e-05
7.11294e-06
1.70857e-06
-4.19737e-06
-8.97471e-06
-1.14424e-05
-1.10678e-05
-8.11008e-06
-3.47605e-06
1.59288e-06
5.85705e-06
8.42175e-06
8.89733e-06
7.45111e-06
4.67029e-06
1.3712e-06
-1.64353e-06
-3.76578e-06
-4.69926e-06
-4.47237e-06
-3.3776e-06
-1.85443e-06
-3.58777e-07
7.532e-07
1.29616e-06
1.27875e-06
8.66163e-07
3.15118e-07
-1.22233e-07
-2.70271e-07
-8.70855e-08
3.3493e-07
8.08757e-07
1.11191e-06
1.0927e-06
6.78608e-07
-1.34853e-08
-8.3613e-07
-1.47989e-06
-1.82267e-06
-1.65336e-06
-1.14395e-06
-3.27284e-07
3.97579e-07
9.22729e-07
1.02021e-06
7.08659e-07
2.61428e-07
-3.05292e-07
-4.67723e-07
-4.54895e-07
-5.0923e-07
-4.70898e-06
-8.01065e-06
-8.17859e-06
-6.41427e-06
-1.96041e-06
3.42418e-06
8.34704e-06
1.09725e-05
1.07194e-05
7.42331e-06
2.12489e-06
-3.78736e-06
-8.67607e-06
-1.13273e-05
-1.11559e-05
-8.36874e-06
-3.83228e-06
1.22906e-06
5.56838e-06
8.26379e-06
8.88834e-06
7.5727e-06
4.87711e-06
1.60589e-06
-1.43503e-06
-3.62208e-06
-4.63724e-06
-4.48707e-06
-3.44747e-06
-1.94957e-06
-4.49916e-07
6.87354e-07
1.26479e-06
1.27857e-06
8.84637e-07
3.35931e-07
-1.1319e-07
-2.80018e-07
-1.13683e-07
3.01673e-07
7.82756e-07
1.10639e-06
1.11398e-06
7.24893e-07
4.61042e-08
-7.79024e-07
-1.44242e-06
-1.81511e-06
-1.67743e-06
-1.19119e-06
-3.80844e-07
3.53074e-07
9.03841e-07
1.02484e-06
7.36801e-07
2.91247e-07
-2.81737e-07
-4.59316e-07
-4.53484e-07
-2.90046e-07
-4.47844e-06
-7.86219e-06
-8.21644e-06
-6.64784e-06
-2.33221e-06
3.02291e-06
8.03695e-06
1.08487e-05
1.08244e-05
7.73019e-06
2.55238e-06
-3.35451e-06
-8.349e-06
-1.11856e-05
-1.12258e-05
-8.62152e-06
-4.19566e-06
8.47703e-07
5.25668e-06
8.08301e-06
8.86172e-06
7.68498e-06
5.08376e-06
1.84815e-06
-1.21408e-06
-3.46452e-06
-4.5631e-06
-4.49358e-06
-3.51392e-06
-2.04563e-06
-5.44968e-07
6.1637e-07
1.22871e-06
1.27523e-06
9.0189e-07
3.57116e-07
-1.03005e-07
-2.88816e-07
-1.40258e-07
2.67261e-07
7.54725e-07
1.09871e-06
1.13384e-06
7.71216e-07
1.0739e-07
-7.18878e-07
-1.40146e-06
-1.80459e-06
-1.70008e-06
-1.23889e-06
-4.36646e-07
3.05391e-07
8.81905e-07
1.02749e-06
7.64725e-07
3.22083e-07
-2.56362e-07
-4.49729e-07
-4.51596e-07
-6.76529e-08
-4.23421e-06
-7.69281e-06
-8.23681e-06
-6.8725e-06
-2.70852e-06
2.60432e-06
7.70103e-06
1.06981e-05
1.09096e-05
8.0301e-06
2.9879e-06
-2.90078e-06
-7.99373e-06
-1.10158e-05
-1.12746e-05
-8.86515e-06
-4.5632e-06
4.50823e-07
4.92263e-06
7.87873e-06
8.81572e-06
7.78568e-06
5.28801e-06
2.09628e-06
-9.81601e-07
-3.29319e-06
-4.47627e-06
-4.4909e-06
-3.57585e-06
-2.14169e-06
-6.43338e-07
5.40465e-07
1.18783e-06
1.26847e-06
9.17641e-07
3.78501e-07
-9.16886e-08
-2.9654e-07
-1.66636e-07
2.31809e-07
7.24632e-07
1.08865e-06
1.15193e-06
8.1718e-07
1.70061e-07
-6.55815e-07
-1.35688e-06
-1.7908e-06
-1.72087e-06
-1.28665e-06
-4.94459e-07
2.54537e-07
8.56687e-07
1.02783e-06
7.92085e-07
3.53735e-07
-2.29191e-07
-4.38906e-07
-4.492e-07
1.5617e-07
-3.97722e-06
-7.50215e-06
-8.23791e-06
-7.08537e-06
-3.08633e-06
2.17059e-06
7.33989e-06
1.05196e-05
1.09724e-05
8.31953e-06
3.42816e-06
-2.42833e-06
-7.61077e-06
-1.08167e-05
-1.12998e-05
-9.09633e-06
-4.93177e-06
4.06461e-08
4.56713e-06
7.65046e-06
8.74877e-06
7.87261e-06
5.48759e-06
2.34846e-06
-7.38667e-07
-3.10833e-06
-4.37626e-06
-4.47808e-06
-3.63215e-06
-2.23676e-06
-7.44375e-07
4.59912e-07
1.1421e-06
1.25804e-06
9.31614e-07
3.99904e-07
-7.92669e-08
-3.03077e-07
-1.92643e-07
1.95439e-07
6.92458e-07
1.07602e-06
1.1679e-06
8.62379e-07
2.33784e-07
-5.89979e-07
-1.30859e-06
-1.7734e-06
-1.73936e-06
-1.33405e-06
-5.54024e-07
2.00542e-07
8.27966e-07
1.0255e-06
8.1852e-07
3.85976e-07
-2.00269e-07
-4.26805e-07
-4.46267e-07
3.79647e-07
-3.70852e-06
-7.29007e-06
-8.21812e-06
-7.28362e-06
-3.46255e-06
1.72413e-06
6.95439e-06
1.03122e-05
1.10099e-05
8.59497e-06
3.8697e-06
-1.93962e-06
-7.20092e-06
-1.05872e-05
-1.12988e-05
-9.31179e-06
-5.29814e-06
-3.80388e-07
4.19133e-06
7.39794e-06
8.65941e-06
7.94359e-06
5.6802e-06
2.60274e-06
-4.86506e-07
-2.91033e-06
-4.2627e-06
-4.45425e-06
-3.68176e-06
-2.32986e-06
-8.47372e-07
3.75049e-07
1.09152e-06
1.24375e-06
9.43547e-07
4.21138e-07
-6.57768e-08
-3.08321e-07
-2.18106e-07
1.58283e-07
6.58198e-07
1.06062e-06
1.1814e-06
9.06398e-07
2.9821e-07
-5.21543e-07
-1.25651e-06
-1.75209e-06
-1.7551e-06
-1.38065e-06
-6.15052e-07
1.43469e-07
7.9554e-07
1.02017e-06
8.43646e-07
4.18554e-07
-1.6967e-07
-4.13395e-07
-4.42771e-07
6.01033e-07
-3.42932e-06
-7.05665e-06
-8.17598e-06
-7.4645e-06
-3.83402e-06
1.26753e-06
6.5457e-06
1.00752e-05
1.102e-05
8.85296e-06
4.30896e-06
-1.43733e-06
-6.7653e-06
-1.03266e-05
-1.12694e-05
-9.50831e-06
-5.65898e-06
-8.09635e-07
3.79667e-06
7.12119e-06
8.54641e-06
7.99657e-06
5.86352e-06
2.85708e-06
-2.2649e-07
-2.69974e-06
-4.13537e-06
-4.41862e-06
-3.72362e-06
-2.41998e-06
-9.51572e-07
2.86275e-07
1.03615e-06
1.22542e-06
9.53187e-07
4.42013e-07
-5.12683e-08
-3.1218e-07
-2.42855e-07
1.20483e-07
6.21864e-07
1.04229e-06
1.19209e-06
9.48816e-07
3.62966e-07
-4.50707e-07
-1.2006e-06
-1.72658e-06
-1.76765e-06
-1.42597e-06
-6.77219e-07
8.34096e-08
7.59232e-07
1.0115e-06
8.67066e-07
4.5119e-07
-1.3749e-07
-3.98657e-07
-4.38687e-07
8.18635e-07
-3.14094e-06
-6.80223e-06
-8.11028e-06
-7.6254e-06
-4.19756e-06
8.03588e-07
6.11524e-06
9.80828e-06
1.10003e-05
9.09011e-06
4.74229e-06
-9.244e-07
-6.30535e-06
-1.00346e-05
-1.12095e-05
-9.68274e-06
-6.0109e-06
-1.24425e-06
3.38481e-06
6.82047e-06
8.40871e-06
8.02959e-06
6.03524e-06
3.10937e-06
3.98589e-08
-2.47726e-06
-3.99416e-06
-4.37048e-06
-3.75671e-06
-2.50608e-06
-1.05617e-06
1.9405e-07
9.76104e-07
1.20291e-06
9.60301e-07
4.62334e-07
-3.5804e-08
-3.14569e-07
-2.66718e-07
8.21909e-08
5.83488e-07
1.02085e-06
1.19964e-06
9.8921e-07
4.27661e-07
-3.77704e-07
-1.14083e-06
-1.69659e-06
-1.77656e-06
-1.46953e-06
-7.40167e-07
2.04976e-08
7.18891e-07
9.99145e-07
8.88365e-07
4.83577e-07
-1.03861e-07
-3.82594e-07
-4.33995e-07
1.03083e-06
-2.84486e-06
-6.52739e-06
-8.02002e-06
-7.76383e-06
-4.54997e-06
3.35272e-07
5.66477e-06
9.51136e-06
1.0949e-05
9.30316e-06
5.16594e-06
-4.03998e-07
-5.82285e-06
-9.71107e-06
-1.11174e-05
-9.83209e-06
-6.35046e-06
-1.68122e-06
2.95772e-06
6.49632e-06
8.24551e-06
8.04084e-06
6.19308e-06
3.35739e-06
3.10875e-07
-2.24376e-06
-3.83916e-06
-4.30926e-06
-3.78008e-06
-2.58714e-06
-1.16031e-06
9.88987e-08
9.11561e-07
1.17613e-06
9.64673e-07
4.81907e-07
-1.94582e-08
-3.15417e-07
-2.89527e-07
4.35709e-08
5.43122e-07
9.96198e-07
1.20374e-06
1.02715e-06
4.91881e-07
-3.02799e-07
-1.07723e-06
-1.66189e-06
-1.78139e-06
-1.51084e-06
-8.03502e-07
-4.50931e-08
6.74399e-07
9.82797e-07
9.07119e-07
5.15379e-07
-6.8942e-08
-3.65224e-07
-4.28679e-07
1.23608e-06
-2.54267e-06
-6.23296e-06
-7.90445e-06
-7.87749e-06
-4.88805e-06
-1.34291e-07
5.19633e-06
9.18472e-06
1.08643e-05
9.48897e-06
5.57613e-06
1.20488e-07
-5.31991e-06
-9.35637e-06
-1.09914e-05
-9.95348e-06
-6.67422e-06
-2.11735e-06
2.51761e-06
6.14962e-06
8.05627e-06
8.02868e-06
6.33479e-06
3.5989e-06
5.84758e-07
-2.00032e-06
-3.67058e-06
-4.23449e-06
-3.79284e-06
-2.66214e-06
-1.26312e-06
1.40496e-09
8.42757e-07
1.14505e-06
9.6611e-07
5.00536e-07
-2.31673e-09
-3.14664e-07
-3.11116e-07
4.79881e-09
5.00842e-07
9.68213e-07
1.2041e-06
1.06221e-06
5.55193e-07
-2.26296e-07
-1.00986e-06
-1.62227e-06
-1.78171e-06
-1.54937e-06
-8.66792e-07
-1.13143e-07
6.2568e-07
9.62152e-07
9.22893e-07
5.46235e-07
-3.29313e-08
-3.46588e-07
-4.22729e-07
1.43295e-06
-2.23609e-06
-5.92005e-06
-7.76312e-06
-7.96431e-06
-5.20867e-06
-6.01838e-07
4.71223e-06
8.82903e-06
1.07451e-05
9.6446e-06
5.9691e-06
6.45474e-07
-4.79897e-06
-8.97119e-06
-1.08306e-05
-1.00443e-05
-6.97875e-06
-2.54931e-06
2.06697e-06
5.78151e-06
7.84073e-06
7.99165e-06
6.45823e-06
3.83159e-06
8.59581e-07
-1.74814e-06
-3.48884e-06
-4.14585e-06
-3.79417e-06
-2.73007e-06
-1.36367e-06
-9.77899e-08
7.69993e-07
1.10966e-06
9.64445e-07
5.18032e-07
1.55244e-08
-3.12263e-07
-3.31321e-07
-3.39366e-08
4.5675e-07
9.36824e-07
1.20043e-06
1.09396e-06
6.17144e-07
-1.48533e-07
-9.38831e-07
-1.57753e-06
-1.77711e-06
-1.58459e-06
-9.29568e-07
-1.83382e-07
5.72703e-07
9.36935e-07
9.35249e-07
5.75757e-07
3.93771e-09
-3.26749e-07
-4.16142e-07
1.6201e-06
-1.92695e-06
-5.59002e-06
-7.59586e-06
-8.02245e-06
-5.5088e-06
-1.064e-06
4.21511e-06
8.44531e-06
1.05903e-05
9.76737e-06
6.3411e-06
1.16721e-06
-4.26283e-06
-8.55663e-06
-1.0634e-05
-1.01021e-05
-7.2607e-06
-2.97367e-06
1.60854e-06
5.39349e-06
7.59895e-06
7.92857e-06
6.56136e-06
4.05318e-06
1.13331e-06
-1.48862e-06
-3.29452e-06
-4.04317e-06
-3.78336e-06
-2.78997e-06
-1.46104e-06
-1.97992e-07
6.93629e-07
1.07003e-06
9.5954e-07
5.3421e-07
3.39597e-08
-3.08175e-07
-3.4998e-07
-7.24336e-08
4.10974e-07
9.01986e-07
1.19249e-06
1.12199e-06
6.77263e-07
-6.98916e-08
-8.64287e-07
-1.52757e-06
-1.76719e-06
-1.61598e-06
-9.91324e-07
-2.5549e-07
5.15488e-07
9.06901e-07
9.43751e-07
6.03532e-07
4.13934e-08
-3.05799e-07
-4.08924e-07
1.79632e-06
-1.61717e-06
-5.2445e-06
-7.4028e-06
-8.05033e-06
-5.78552e-06
-1.51732e-06
3.70784e-06
8.035e-06
1.03994e-05
9.85485e-06
6.68848e-06
1.68181e-06
-3.71456e-06
-8.1142e-06
-1.04012e-05
-1.01247e-05
-7.51684e-06
-3.3869e-06
1.14528e-06
4.98737e-06
7.33129e-06
7.83846e-06
6.64229e-06
4.26138e-06
1.40381e-06
-1.22333e-06
-3.0884e-06
-3.92645e-06
-3.7598e-06
-2.84092e-06
-1.55427e-06
-2.98458e-07
6.1409e-07
1.02625e-06
9.51289e-07
5.48894e-07
5.28758e-08
-3.02378e-07
-3.66935e-07
-1.10477e-07
3.63671e-07
8.63693e-07
1.18006e-06
1.14588e-06
7.35064e-07
9.20965e-09
-7.86439e-07
-1.47228e-06
-1.7516e-06
-1.64299e-06
-1.05152e-06
-3.29088e-07
4.54114e-07
8.71847e-07
9.47969e-07
6.29126e-07
7.91245e-08
-2.83855e-07
-4.0109e-07
1.96052e-06
-1.30875e-06
-4.88536e-06
-7.18441e-06
-8.04673e-06
-6.03607e-06
-1.95832e-06
3.19355e-06
7.5999e-06
1.01722e-05
9.90494e-06
7.00772e-06
2.18529e-06
-3.15757e-06
-7.64585e-06
-1.01324e-05
-1.01105e-05
-7.74409e-06
-3.78545e-06
6.80376e-07
4.56526e-06
7.03848e-06
7.72066e-06
6.69932e-06
4.45394e-06
1.66887e-06
-9.53975e-07
-2.87145e-06
-3.79586e-06
-3.72303e-06
-2.88206e-06
-1.64243e-06
-3.98409e-07
5.31856e-07
9.78495e-07
9.39623e-07
5.61919e-07
7.21528e-08
-2.94857e-07
-3.8203e-07
-1.47839e-07
3.1503e-07
8.21977e-07
1.16294e-06
1.16526e-06
7.90047e-07
8.83112e-08
-7.05551e-07
-1.41164e-06
-1.72999e-06
-1.66508e-06
-1.10958e-06
-4.03742e-07
3.88721e-07
8.3161e-07
9.47486e-07
6.52087e-07
1.16781e-07
-2.61063e-07
-3.92668e-07
2.11172e-06
-1.00374e-06
-4.51471e-06
-6.94148e-06
-8.01072e-06
-6.2579e-06
-2.38353e-06
2.67561e-06
7.14222e-06
9.90907e-06
9.91592e-06
7.2955e-06
2.67362e-06
-2.59552e-06
-7.15391e-06
-9.82804e-06
-1.00579e-05
-7.93957e-06
-4.16576e-06
2.17179e-07
4.1296e-06
6.7216e-06
7.57483e-06
6.73093e-06
4.62872e-06
1.92627e-06
-6.8241e-07
-2.6448e-06
-3.65175e-06
-3.6727e-06
-2.91261e-06
-1.72459e-06
-4.97031e-07
4.47466e-07
9.26986e-07
9.24509e-07
5.73135e-07
9.16657e-08
-2.85612e-07
-3.95115e-07
-1.84278e-07
2.65269e-07
7.76912e-07
1.141e-06
1.17973e-06
8.41704e-07
1.66914e-07
-6.21946e-07
-1.34569e-06
-1.70208e-06
-1.68173e-06
-1.16489e-06
-4.78962e-07
3.19521e-07
7.86086e-07
9.4191e-07
6.7195e-07
1.53972e-07
-2.37604e-07
-3.83697e-07
2.24908e-06
-7.04238e-07
-4.13489e-06
-6.67513e-06
-7.94175e-06
-6.44874e-06
-2.7895e-06
2.15756e-06
6.66452e-06
9.61072e-06
9.88646e-06
7.5487e-06
3.14277e-06
-2.03229e-06
-6.64114e-06
-9.489e-06
-9.96594e-06
-8.10068e-06
-4.52435e-06
-2.40801e-07
3.68312e-06
6.38206e-06
7.40095e-06
6.73588e-06
4.78367e-06
2.17371e-06
-4.10613e-07
-2.4098e-06
-3.49466e-06
-3.60864e-06
-2.93191e-06
-1.79987e-06
-5.9349e-07
3.61507e-07
8.71993e-07
9.05952e-07
5.82406e-07
1.11286e-07
-2.74653e-07
-4.06044e-07
-2.19541e-07
2.14639e-07
7.28615e-07
1.11412e-06
1.18895e-06
8.89521e-07
2.44482e-07
-5.36007e-07
-1.27452e-06
-1.66764e-06
-1.69242e-06
-1.21683e-06
-5.54196e-07
2.46797e-07
7.35229e-07
9.30875e-07
6.88242e-07
1.90273e-07
-2.13686e-07
-3.74232e-07
2.37187e-06
-4.12346e-07
-3.74842e-06
-6.38681e-06
-7.83966e-06
-6.60655e-06
-3.1729e-06
1.64307e-06
6.16972e-06
9.2784e-06
9.81568e-06
7.76451e-06
3.58877e-06
-1.47199e-06
-6.11068e-06
-9.11674e-06
-9.83411e-06
-8.2251e-06
-4.85781e-06
-6.89955e-07
3.2288e-06
6.02165e-06
7.19935e-06
6.71317e-06
4.91691e-06
2.40896e-06
-1.4066e-07
-2.16793e-06
-3.32532e-06
-3.53084e-06
-2.93936e-06
-1.8674e-06
-6.86943e-07
2.74608e-07
8.13841e-07
8.83999e-07
5.89617e-07
1.30884e-07
-2.62001e-07
-4.1468e-07
-2.53364e-07
1.63422e-07
6.77254e-07
1.08224e-06
1.19261e-06
9.32985e-07
3.20444e-07
-4.48181e-07
-1.19831e-06
-1.62648e-06
-1.69666e-06
-1.26475e-06
-6.28838e-07
1.70909e-07
6.79065e-07
9.14056e-07
7.00489e-07
2.25221e-07
-1.89552e-07
-3.64346e-07
2.4795e-06
-1.30148e-07
-3.35799e-06
-6.07831e-06
-7.70468e-06
-6.72968e-06
-3.53056e-06
1.13596e-06
5.6611e-06
8.91378e-06
9.70316e-06
7.94049e-06
4.00776e-06
-9.18855e-07
-5.56604e-06
-8.71318e-06
-9.6623e-06
-8.31089e-06
-5.16293e-06
-1.12661e-06
2.76989e-06
5.64253e-06
6.97076e-06
6.66215e-06
5.02672e-06
2.62981e-06
1.25293e-07
-1.92088e-06
-3.14467e-06
-3.43944e-06
-2.93453e-06
-1.92641e-06
-7.76548e-07
1.87436e-07
7.52905e-07
8.58739e-07
5.94673e-07
1.50328e-07
-2.47691e-07
-4.2089e-07
-2.85475e-07
1.11933e-07
6.23044e-07
1.04538e-06
1.19043e-06
9.71589e-07
3.94198e-07
-3.58978e-07
-1.11731e-06
-1.5785e-06
-1.69401e-06
-1.30799e-06
-7.02227e-07
9.23006e-08
6.17693e-07
8.91179e-07
7.08224e-07
2.58325e-07
-1.65478e-07
-3.54129e-07
2.57151e-06
1.40319e-07
-2.96643e-06
-5.75169e-06
-7.53748e-06
-6.8168e-06
-3.85947e-06
6.40067e-07
5.14221e-06
8.51903e-06
9.54901e-06
8.07454e-06
4.39606e-06
-3.77204e-07
-5.01105e-06
-8.28073e-06
-9.45093e-06
-8.3565e-06
-5.43667e-06
-1.54711e-06
2.30982e-06
5.24714e-06
6.71624e-06
6.58247e-06
5.11162e-06
2.83413e-06
3.85047e-07
-1.67042e-06
-2.9538e-06
-3.3348e-06
-2.91711e-06
-1.97618e-06
-8.61482e-07
1.00686e-07
6.89607e-07
8.30302e-07
5.97501e-07
1.69488e-07
-2.31766e-07
-4.24553e-07
-3.15591e-07
6.05181e-08
5.66251e-07
1.00356e-06
1.18218e-06
1.00484e-06
4.65114e-07
-2.68968e-07
-1.03185e-06
-1.52364e-06
-1.68406e-06
-1.34587e-06
-7.73653e-07
1.14946e-08
5.51299e-07
8.62026e-07
7.10996e-07
2.89066e-07
-1.4177e-07
-3.43689e-07
2.64756e-06
3.97102e-07
-2.57665e-06
-5.40932e-06
-7.33911e-06
-6.867e-06
-4.1569e-06
1.59232e-07
4.61686e-06
8.09676e-06
9.35385e-06
8.16506e-06
4.75022e-06
1.48608e-07
-4.44982e-06
-7.82223e-06
-9.20095e-06
-8.36085e-06
-5.67631e-06
-1.94782e-06
1.8522e-06
4.8383e-06
6.43729e-06
6.47414e-06
5.17041e-06
3.01993e-06
6.36388e-07
-1.41851e-06
-2.75402e-06
-3.21744e-06
-2.88694e-06
-2.01609e-06
-9.40948e-07
1.50677e-08
6.24406e-07
7.98857e-07
5.9805e-07
1.88238e-07
-2.14283e-07
-4.25557e-07
-3.43429e-07
9.55196e-09
5.07194e-07
9.56925e-07
1.16766e-06
1.03227e-06
5.32544e-07
-1.78782e-07
-9.42329e-07
-1.46196e-06
-1.66644e-06
-1.37775e-06
-8.42363e-07
-7.09021e-08
4.8016e-07
8.26454e-07
7.08381e-07
3.16908e-07
-1.18761e-07
-3.33158e-07
2.70743e-06
6.38356e-07
-2.19162e-06
-5.05382e-06
-7.11105e-06
-6.87979e-06
-4.42043e-06
-3.02763e-07
4.08907e-06
7.65003e-06
9.11883e-06
8.2109e-06
5.06712e-06
6.54269e-07
-3.88672e-06
-7.34098e-06
-8.91382e-06
-8.32332e-06
-5.87945e-06
-2.32524e-06
1.40074e-06
4.41907e-06
6.13574e-06
6.33756e-06
5.20214e-06
3.18537e-06
8.77122e-07
-1.16714e-06
-2.54678e-06
-3.08808e-06
-2.84401e-06
-2.04563e-06
-1.0142e-06
-6.87026e-08
5.57799e-07
7.64611e-07
5.96296e-07
2.06453e-07
-1.95311e-07
-4.23804e-07
-3.687e-07
-4.05635e-08
4.46245e-07
9.05637e-07
1.14676e-06
1.05343e-06
5.95828e-07
-8.91088e-08
-8.49265e-07
-1.39359e-06
-1.64088e-06
-1.40297e-06
-9.07566e-07
-1.54202e-07
4.04647e-07
7.84396e-07
6.99991e-07
3.41305e-07
-9.6815e-08
-3.22686e-07
2.75106e-06
8.62383e-07
-1.81432e-06
-4.68803e-06
-6.8552e-06
-6.85513e-06
-4.64798e-06
-7.42264e-07
3.56301e-06
7.18227e-06
8.84565e-06
8.21146e-06
5.34399e-06
1.13558e-06
-3.32626e-06
-6.8407e-06
-8.59155e-06
-8.24383e-06
-6.04405e-06
-2.67605e-06
9.592e-07
3.99277e-06
5.8138e-06
6.1735e-06
5.20621e-06
3.32883e-06
1.10512e-06
-9.18409e-07
-2.33368e-06
-2.94761e-06
-2.78852e-06
-2.06441e-06
-1.08054e-06
-1.49915e-07
4.90307e-07
7.27808e-07
5.92238e-07
2.24011e-07
-1.7493e-07
-4.19214e-07
-3.9112e-07
-8.94026e-08
3.83826e-07
8.49949e-07
1.11941e-06
1.06793e-06
6.54301e-07
-6.85339e-10
-7.53239e-07
-1.31877e-06
-1.60716e-06
-1.42094e-06
-9.68447e-07
-2.37639e-07
3.25232e-07
7.35879e-07
6.85489e-07
3.61707e-07
-7.63146e-08
-3.12449e-07
2.7785e-06
1.06766e-06
-1.44768e-06
-4.31498e-06
-6.57381e-06
-6.79342e-06
-4.83787e-06
-1.1558e-06
3.04293e-06
6.6973e-06
8.53652e-06
8.16669e-06
5.5785e-06
1.58852e-06
-2.77306e-06
-6.32543e-06
-8.23666e-06
-8.12284e-06
-6.16856e-06
-2.99716e-06
5.31335e-07
3.56293e-06
5.47403e-06
5.98313e-06
5.18235e-06
3.4489e-06
1.31834e-06
-6.74435e-07
-2.11646e-06
-2.7971e-06
-2.72078e-06
-2.07217e-06
-1.13937e-06
-2.27877e-07
4.22471e-07
6.88724e-07
5.85896e-07
2.40798e-07
-1.53236e-07
-4.11722e-07
-4.10409e-07
-1.3652e-07
3.20409e-07
7.90182e-07
1.08564e-06
1.07541e-06
7.07307e-07
8.57061e-08
-6.54925e-07
-1.23782e-06
-1.56517e-06
-1.43108e-06
-1.02418e-06
-3.20377e-07
2.4249e-07
6.81033e-07
6.646e-07
3.77578e-07
-5.76607e-08
-3.02643e-07
2.78994e-06
1.25288e-06
-1.09453e-06
-3.93784e-06
-6.26952e-06
-6.69556e-06
-4.98886e-06
-1.54017e-06
2.53311e-06
6.19922e-06
8.19419e-06
8.07713e-06
5.7688e-06
2.00936e-06
-2.23179e-06
-5.79957e-06
-7.85217e-06
-7.96136e-06
-6.25187e-06
-3.28579e-06
1.2083e-07
3.13322e-06
5.11929e-06
5.768e-06
5.13069e-06
3.54447e-06
1.5149e-06
-4.3733e-07
-1.89697e-06
-2.6378e-06
-2.64133e-06
-2.06878e-06
-1.19014e-06
-3.01931e-07
3.54841e-07
6.4766e-07
5.77317e-07
2.56701e-07
-1.30338e-07
-4.01287e-07
-4.26302e-07
-1.81456e-07
2.56515e-07
7.2673e-07
1.04554e-06
1.07558e-06
7.54207e-07
1.69249e-07
-5.55079e-07
-1.15119e-06
-1.51488e-06
-1.4329e-06
-1.07393e-06
-4.01514e-07
1.57099e-07
6.20094e-07
6.37123e-07
3.88401e-07
-4.12647e-08
-2.93487e-07
2.78569e-06
1.41696e-06
-7.57576e-07
-3.55985e-06
-5.94528e-06
-6.5629e-06
-5.10021e-06
-1.89248e-06
2.03778e-06
5.6924e-06