/*--------------------------------*- C++ -*----------------------------------*\
| =========                 |                                                 |
| \\      /  F ield         | foam-extend: Open Source CFD                    |
|  \\    /   O peration     | Version:     4.0                                |
|   \\  /    A nd           | Web:         http://www.foam-extend.org         |
|    \\/     M anipulation  |                                                 |
\*---------------------------------------------------------------------------*/
FoamFile
{
    version     2.0;
    format      ascii;
    class       surfaceScalarField;
    location    "1";
    object      phi;
}
// * * * * * * * * * * * * * * * * * * * * * * * * * * * * * * * * * * * * * //

dimensions      [0 3 -1 0 0 0 0];

internalField   nonuniform List<scalar> 
13744
(
2.1603e-20
3.96165e-18
1.04421e-20
9.23826e-20
-6.90127e-21
1.39337e-19
-1.54537e-20
1.10126e-19
-2.47533e-20
4.57339e-20
-2.43926e-20
-3.37046e-20
-1.76501e-20
-1.07624e-19
-3.97614e-21
-1.52914e-19
1.00945e-20
-1.48932e-19
2.22168e-20
-1.00996e-19
2.76931e-20
-2.29658e-20
2.58946e-20
6.10713e-20
1.71548e-20
1.27053e-19
4.39598e-21
1.56938e-19
-8.85822e-21
1.44483e-19
-1.91173e-20
9.56849e-20
-2.39644e-20
2.60558e-20
-2.27352e-20
-4.4545e-20
-1.62876e-20
-9.81517e-20
-6.83471e-21
-1.23145e-19
3.04512e-21
-1.1679e-19
1.09163e-20
-8.45244e-20
1.52621e-20
-3.74806e-20
1.55827e-20
1.13812e-20
1.24695e-20
5.06734e-20
7.19877e-21
7.31292e-20
1.36558e-21
7.64468e-20
-3.58974e-21
6.29198e-20
-6.68008e-21
3.80247e-20
-7.54327e-21
8.70703e-21
-6.4202e-21
-1.82437e-20
-4.01164e-21
-3.74676e-20
-1.2167e-21
-4.57866e-20
1.09673e-21
-4.25361e-20
2.3583e-21
-2.9479e-20
2.36616e-21
-1.03003e-20
1.36264e-21
1.0104e-20
-1.33562e-22
2.67673e-20
-1.46869e-21
3.56183e-20
-2.07991e-21
3.45957e-20
-1.73355e-21
2.40525e-20
-4.40207e-22
6.84962e-21
1.23462e-21
-1.23839e-20
2.9079e-21
-2.84849e-20
3.65634e-21
-3.69481e-20
3.59639e-21
-3.56446e-20
2.09591e-21
-2.46745e-20
3.39252e-22
-7.66855e-21
-2.02836e-21
1.11044e-20
-3.21305e-21
2.5303e-20
-3.92373e-21
3.19499e-20
-2.91513e-21
2.79098e-20
-1.36045e-21
1.64051e-20
4.43931e-22
-3.46183e-22
2.29782e-21
-1.40706e-20
2.03078e-21
-2.19979e-20
2.29776e-21
-1.9479e-20
1.91609e-22
-7.62869e-21
-3.12827e-22
1.34984e-21
1.52192e-20
3.0755e-20
4.02942e-19
1.71769e-20
2.17557e-20
-1.11874e-20
2.00936e-19
-2.5203e-20
2.95647e-19
-4.04464e-20
3.18765e-19
-3.99242e-20
2.39659e-19
-2.89541e-20
8.07595e-20
-6.62608e-21
-1.12332e-19
1.63838e-20
-2.7012e-19
3.62377e-20
-3.53834e-19
4.5249e-20
-3.36042e-19
4.23714e-20
-2.27269e-19
2.81353e-20
-5.94269e-20
7.30486e-21
1.17691e-19
-1.43644e-20
2.5703e-19
-3.11637e-20
3.24416e-19
-3.91336e-20
3.08436e-19
-3.71754e-20
2.20704e-19
-2.66798e-20
9.00556e-20
-1.12554e-20
-4.69166e-20
4.88692e-21
-1.56893e-19
1.77649e-20
-2.17505e-19
2.48942e-20
-2.21703e-19
2.54507e-20
-1.76807e-19
2.0393e-20
-1.00676e-19
1.18014e-20
-1.55266e-20
2.27951e-21
5.77596e-20
-5.81927e-21
1.04367e-19
-1.08795e-20
1.17806e-19
-1.23056e-20
1.00261e-19
-1.04868e-20
6.08998e-20
-6.56433e-21
1.29866e-20
-2.00502e-21
-2.95559e-20
1.77369e-21
-5.55682e-20
3.83885e-21
-5.92083e-20
3.85843e-21
-4.11871e-20
2.22578e-21
-8.50281e-21
-2.13925e-22
2.78539e-20
-2.39365e-21
5.56507e-20
-3.39392e-21
6.56294e-20
-2.83168e-21
5.34991e-20
-7.22834e-22
2.24444e-20
2.01079e-21
-1.90118e-20
4.74381e-21
-5.79646e-20
5.96867e-21
-8.27509e-20
5.87379e-21
-8.50187e-20
3.42626e-21
-6.37584e-20
5.58316e-22
-2.53441e-20
-3.30916e-21
1.93835e-20
-5.24666e-21
5.50492e-20
-6.41074e-21
7.3696e-20
-4.76537e-21
6.5691e-20
-2.22745e-21
4.13008e-20
7.24256e-22
1.19084e-21
3.75493e-21
-2.78588e-20
3.32771e-21
-4.80943e-20
3.76694e-21
-3.98335e-20
3.22576e-22
-1.78644e-20
-4.97576e-22
1.14758e-21
1.79836e-20
3.32635e-20
-2.28089e-19
1.90775e-20
-8.16708e-20
-1.19959e-20
2.16809e-19
-2.74195e-20
4.46872e-19
-4.42607e-20
5.78813e-19
-4.38666e-20
5.27665e-19
-3.19913e-20
3.07631e-19
-7.59364e-21
-1.95792e-20
1.76421e-20
-3.41782e-19
3.95063e-20
-5.74199e-19
4.95425e-20
-6.43314e-19
4.65583e-20
-5.37979e-19
3.1088e-20
-2.89988e-19
8.32101e-21
2.48833e-20
-1.54469e-20
3.20757e-19
-3.39475e-20
5.21095e-19
-4.28131e-20
5.82392e-19
-4.08033e-20
5.0137e-19
-2.9409e-20
3.11814e-19
-1.25631e-20
7.14302e-20
5.12663e-21
-1.56771e-19
1.92881e-20
-3.20838e-19
2.71805e-20
-3.91864e-19
2.78783e-20
-3.67258e-19
2.24113e-20
-2.67588e-19
1.30449e-20
-1.27614e-19
2.62633e-21
1.39555e-20
-6.2628e-21
1.24437e-19
-1.18436e-20
1.83587e-19
-1.34512e-20
1.86606e-19
-1.15001e-20
1.42948e-19
-7.23167e-21
7.22309e-20
-2.24835e-21
-1.67929e-21
1.89643e-21
-5.71644e-20
4.17568e-21
-8.0165e-20
4.21839e-21
-6.74087e-20
2.44814e-21
-2.68208e-20
-2.14858e-22
2.56149e-20
-2.60335e-21
7.02395e-20
-3.70899e-21
9.08721e-20
-3.10672e-21
7.84027e-20
-8.09485e-22
3.58326e-20
2.17933e-21
-2.52025e-20
5.17494e-21
-8.46805e-20
6.52745e-21
-1.2448e-19
6.43674e-21
-1.30038e-19
3.76909e-21
-9.94763e-20
6.33832e-22
-4.11195e-20
-3.60415e-21
2.75836e-20
-5.73515e-21
8.34073e-20
-7.02528e-21
1.13044e-19
-5.23161e-21
1.01322e-19
-2.46234e-21
6.46434e-20
7.82879e-22
2.45854e-21
4.10548e-21
-4.09104e-20
3.66313e-21
-7.30443e-20
4.1482e-21
-5.91808e-20
3.72239e-22
-2.84147e-20
-5.30821e-22
4.42574e-22
1.87609e-20
3.65533e-20
-4.50382e-19
2.12839e-20
-2.09389e-19
-1.27326e-20
2.0601e-19
-2.97191e-20
5.83802e-19
-4.83913e-20
8.41955e-19
-4.82321e-20
8.36801e-19
-3.5448e-20
5.68049e-19
-8.82403e-21
1.09557e-19
1.88563e-20
-3.85408e-19
4.29796e-20
-7.83381e-19
5.42221e-20
-9.59731e-19
5.12098e-20
-8.75825e-19
3.44536e-20
-5.58209e-19
9.59349e-21
-1.06072e-19
-1.64888e-20
3.55669e-19
-3.69037e-20
7.0506e-19
-4.68199e-20
8.61965e-19
-4.48219e-20
8.03381e-19
-3.24932e-20
5.64413e-19
-1.41112e-20
2.22187e-19
5.28233e-21
-1.30073e-19
2.08821e-20
-4.08563e-19
2.9655e-20
-5.59313e-19
3.05517e-20
-5.66628e-19
2.46696e-20
-4.5139e-19
1.44708e-20
-2.59752e-19
3.0687e-21
-4.83918e-20
-6.70208e-21
1.30971e-19
-1.28769e-20
2.42606e-19
-1.47078e-20
2.72932e-19
-1.26308e-20
2.30249e-19
-7.99234e-21
1.39685e-19
-2.54291e-21
3.48925e-20
2.01311e-21
-5.16262e-20
4.54146e-21
-9.6771e-20
4.62315e-21
-9.23413e-20
2.71041e-21
-4.6349e-20
-1.97145e-22
2.07571e-20
-2.82198e-21
8.20392e-20
-4.05613e-21
1.14162e-19
-3.42322e-21
1.02714e-19
-9.2913e-22
4.99549e-20
2.33817e-21
-2.98442e-20
5.62815e-21
-1.09753e-19
7.13481e-21
-1.65194e-19
7.06423e-21
-1.75035e-19
4.1689e-21
-1.36248e-19
7.46235e-22
-5.85708e-20
-3.90171e-21
3.39336e-20
-6.25582e-21
1.10478e-19
-7.70213e-21
1.51856e-19
-5.75738e-21
1.37443e-19
-2.74732e-21
8.90212e-20
8.27899e-22
5.08847e-21
4.47317e-21
-5.29859e-20
4.03604e-21
-9.75137e-20
4.57628e-21
-7.88516e-20
4.39326e-22
-3.97048e-20
-5.63717e-22
-1.12041e-21
1.83289e-20
4.02614e-20
-6.31682e-19
2.38378e-20
-3.51888e-19
-1.33589e-20
1.75354e-19
-3.20761e-20
7.06029e-19
-5.28443e-20
1.10005e-18
-5.30552e-20
1.1535e-18
-3.93784e-20
8.46986e-19
-1.0373e-20
2.63063e-19
1.99843e-20
-4.06118e-19
4.66431e-20
-9.77904e-19
5.9304e-20
-1.27409e-18
5.63688e-20
-1.22493e-18
3.82887e-20
-8.4787e-19
1.11775e-20
-2.62882e-19
-1.7451e-20
3.67088e-19
-4.00183e-20
8.73638e-19
-5.11672e-20
1.13759e-18
-4.92659e-20
1.11303e-18
-3.59779e-20
8.33551e-19
-1.59448e-20
3.93784e-19
5.32029e-21
-8.33334e-20
2.25307e-20
-4.81337e-19
3.23203e-20
-7.19444e-19
3.34887e-20
-7.66766e-19
2.71948e-20
-6.4262e-19
1.61075e-20
-4.03321e-19
3.62973e-21
-1.23107e-19
-7.1232e-21
1.26908e-19
-1.3976e-20
2.94597e-19
-1.60811e-20
3.56465e-19
-1.38898e-20
3.18583e-19
-8.85901e-21
2.10831e-19
-2.89928e-21
7.6307e-20
2.11763e-21
-4.15163e-20
4.93512e-21
-1.1008e-19
5.07561e-21
-1.15674e-19
3.01733e-21
-6.5816e-20
-1.56687e-22
1.49894e-20
-3.04798e-21
9.26931e-20
-4.43709e-21
1.36697e-19
-3.78559e-21
1.27e-19
-1.08717e-21
6.47415e-20
2.48321e-21
-3.34807e-20
6.10242e-21
-1.33967e-19
7.79371e-21
-2.05642e-19
7.76264e-21
-2.20533e-19
4.63359e-21
-1.74213e-19
9.02745e-22
-7.74626e-20
-4.19803e-21
3.90307e-20
-6.80888e-21
1.37035e-19
-8.44629e-21
1.90971e-19
-6.34946e-21
1.74727e-19
-3.09013e-21
1.14837e-19
8.55189e-22
9.08192e-21
4.85703e-21
-6.44331e-20
4.4496e-21
-1.22159e-19
5.05627e-21
-9.94468e-20
5.26785e-22
-5.21572e-20
-5.96276e-22
-3.46046e-21
1.74774e-20
4.43717e-20
-8.138e-19
2.67824e-20
-5.07612e-19
-1.38374e-20
1.25585e-19
-3.44666e-20
8.13107e-19
-5.76287e-20
1.35148e-18
-5.83727e-20
1.47555e-18
-4.38386e-20
1.14232e-18
-1.22966e-20
4.39581e-19
2.09847e-20
-4.04056e-19
5.04848e-20
-1.15664e-18
6.48073e-20
-1.5843e-18
6.20811e-20
-1.58283e-18
4.26517e-20
-1.15685e-18
1.31285e-20
-4.44307e-19
-1.82956e-20
3.5508e-19
-4.32795e-20
1.02577e-18
-5.58701e-20
1.4074e-18
-5.41718e-20
1.4282e-18
-3.99103e-20
1.11736e-18
-1.8109e-20
5.85016e-19
5.20744e-21
-1.68951e-20
2.4219e-20
-5.38675e-19
3.51804e-20
-8.71172e-19
3.67088e-20
-9.66309e-19
3.00147e-20
-8.39973e-19
1.79836e-20
-5.57332e-19
4.33234e-21
-2.0965e-19
-7.51303e-21
1.12328e-19
-1.51385e-20
3.39272e-19
-1.75777e-20
4.36689e-19
-1.52894e-20
4.07361e-19
-9.84483e-21
2.85129e-19
-3.32798e-21
1.22148e-19
2.20437e-21
-2.71011e-20
5.35643e-21
-1.2022e-19
5.57964e-21
-1.37424e-19
3.37444e-21
-8.51564e-20
-8.89939e-23
8.43901e-21
-3.2799e-21
1.02379e-19
-4.85429e-21
1.58696e-19
-4.19921e-21
1.51501e-19
-1.29006e-21
8.04232e-20
2.60952e-21
-3.59339e-20
6.59643e-21
-1.57245e-19
8.5074e-21
-2.45876e-19
8.53925e-21
-2.66723e-19
5.17226e-21
-2.13656e-19
1.11181e-21
-9.81151e-20
-4.48851e-21
4.26196e-20
-7.39427e-21
1.6295e-19
-9.26333e-21
2.30448e-19
-7.01564e-21
2.13382e-19
-3.49984e-21
1.42403e-19
8.59607e-22
1.47222e-20
5.25539e-21
-7.50558e-20
4.90725e-21
-1.46977e-19
5.59402e-21
-1.21043e-19
6.38561e-22
-6.59254e-20
-6.27694e-22
-6.63936e-21
1.63128e-20
4.89122e-20
-1.00118e-18
3.0164e-20
-6.76155e-19
-1.41256e-20
5.60905e-20
-3.68622e-20
9.03737e-19
-6.27512e-20
1.59455e-18
-6.42228e-20
1.80152e-18
-4.88892e-20
1.45339e-18
-1.46568e-20
6.39464e-19
2.18103e-20
-3.77929e-19
5.44884e-20
-1.3177e-18
7.075e-20
-1.88845e-18
6.83943e-20
-1.94816e-18
4.76057e-20
-1.48465e-18
1.5508e-20
-6.50883e-19
-1.89788e-20
3.18262e-19
-4.66713e-20
1.15962e-18
-6.09428e-20
1.66962e-18
-5.95776e-20
1.74757e-18
-4.43409e-20
1.41527e-18
-2.06538e-20
7.96142e-19
4.90615e-21
7.01722e-20
2.59287e-20
-5.79271e-19
3.82379e-20
-1.01316e-18
4.02316e-20
-1.1642e-18
3.31589e-20
-1.04285e-18
2.01302e-20
-7.21695e-19
5.20217e-21
-3.0836e-19
-7.85622e-21
8.66311e-20
-1.63608e-20
3.75966e-19
-1.92039e-20
5.13041e-19
-1.68421e-20
4.96226e-19
-1.09641e-20
3.6245e-19
-3.84076e-21
1.72468e-19
2.26683e-21
-8.23677e-21
5.80478e-21
-1.2705e-19
6.13925e-21
-1.57523e-19
3.78781e-21
-1.04397e-19
1.10537e-23
1.01319e-21
-3.51587e-21
1.11001e-19
-5.31011e-21
1.80132e-19
-4.66996e-21
1.76307e-19
-1.54505e-21
9.72151e-20
2.71131e-21
-3.6909e-20
7.10824e-21
-1.79297e-19
9.27902e-21
-2.85707e-19
9.40181e-21
-3.13588e-19
5.795e-21
-2.54751e-19
1.38306e-21
-1.20857e-19
-4.76756e-21
4.43161e-20
-8.0114e-21
1.87896e-19
-1.0159e-20
2.70119e-19
-7.76439e-21
2.53447e-19
-3.98672e-21
1.71945e-19
8.35073e-22
2.23261e-20
5.66586e-21
-8.45517e-20
5.41257e-21
-1.71809e-19
6.19586e-21
-1.43607e-19
7.79306e-22
-8.11202e-20
-6.56768e-22
-1.07448e-20
1.48336e-20
5.39176e-20
-1.19322e-18
3.40321e-20
-8.57304e-19
-1.4175e-20
-3.409e-20
-3.92283e-20
9.76223e-19
-6.82152e-20
1.82721e-18
-7.0644e-20
2.12982e-18
-5.45952e-20
1.77958e-18
-1.75229e-20
8.63372e-19
2.24058e-20
-3.25994e-19
5.86315e-20
-1.45875e-18
7.71473e-20
-2.18429e-18
7.53575e-20
-2.31938e-18
5.32188e-20
-1.83092e-18
1.83847e-20
-8.83471e-19
-1.94497e-20
2.54799e-19
-5.01723e-20
1.27288e-18
-6.63967e-20
1.92206e-18
-6.55224e-20
2.06961e-18
-4.93241e-20
1.72675e-18
-2.36345e-20
1.02762e-18
4.37321e-21
1.79119e-19
2.7637e-20
-6.01465e-19
4.14928e-20
-1.14377e-18
4.40765e-20
-1.35916e-18
3.66587e-20
-1.25058e-18
2.25818e-20
-8.96372e-19
6.26817e-21
-4.1972e-19
-8.13459e-21
4.90248e-20
-1.76375e-20
4.03821e-19
-2.09656e-20
5.84808e-19
-1.8561e-20
5.84736e-19
-1.22323e-20
4.42652e-19
-4.45075e-21
2.27367e-19
2.29731e-21
1.53058e-20
6.27892e-21
-1.30338e-19
6.75843e-21
-1.75831e-19
4.26399e-21
-1.23528e-19
1.49244e-22
-7.38818e-21
-3.75348e-21
1.18423e-19
-5.80681e-21
2.0092e-19
-5.20402e-21
2.0146e-19
-1.86014e-21
1.15304e-19
2.78188e-21
-3.61059e-20
7.63518e-21
-1.99798e-19
1.01115e-20
-3.24884e-19
1.03584e-20
-3.6105e-19
6.51275e-21
-2.9763e-19
1.72731e-21
-1.46002e-19
-5.02847e-21
4.37156e-20
-8.65898e-21
2.115e-19
-1.11391e-20
3.09764e-19
-8.60476e-21
2.9492e-19
-4.56221e-21
2.03665e-19
7.745e-22
3.2223e-20
6.08521e-21
-9.25868e-20
5.96915e-21
-1.96448e-19
6.86857e-21
-1.67071e-19
9.54397e-22
-9.78377e-20
-6.81912e-22
-1.58715e-20
1.30131e-20
5.94239e-20
-1.38849e-18
3.8439e-20
-1.05083e-18
-1.39302e-20
-1.46009e-19
-4.15235e-20
1.02866e-18
-7.40197e-20
2.04714e-18
-7.76746e-20
2.45861e-18
-6.10255e-20
2.12014e-18
-2.09711e-20
1.11197e-18
2.27078e-20
-2.46332e-19
6.28849e-20
-1.57714e-18
8.40107e-20
-2.46923e-18
8.30209e-20
-2.69467e-18
5.95641e-20
-2.1951e-18
2.1835e-20
-1.14294e-18
-1.96491e-20
1.62676e-19
-5.37545e-20
1.36295e-18
-7.22399e-20
2.16223e-18
-7.20452e-20
2.39254e-18
-5.49179e-20
2.05106e-18
-2.71121e-20
1.27987e-18
3.55916e-21
3.11288e-19
2.93159e-20
-6.03399e-19
4.49421e-20
-1.2611e-18
4.82621e-20
-1.5497e-18
4.05468e-20
-1.46231e-18
2.53752e-20
-1.08123e-18
7.56283e-21
-5.44211e-19
-8.32672e-21
-1.35594e-21
-1.89607e-20
4.21862e-19
-2.28675e-20
6.51147e-19
-2.04597e-20
6.72336e-19
-1.3666e-20
5.25521e-19
-5.17265e-21
2.86918e-19
2.28676e-21
4.37687e-20
6.77678e-21
-1.29812e-19
7.44103e-21
-1.9216e-19
4.80992e-21
-1.42504e-19
3.32073e-22
-1.68465e-20
-3.98969e-21
1.24504e-19
-6.34638e-21
2.20956e-19
-5.80789e-21
2.26973e-19
-2.24413e-21
1.3486e-19
2.81357e-21
-3.32262e-20
8.17375e-21
-2.18403e-19
1.10072e-20
-3.63131e-19
1.14175e-20
-4.08996e-19
7.33743e-21
-3.42395e-19
2.15672e-21
-1.73853e-19
-5.2633e-21
4.04046e-20
-9.33484e-21
2.33367e-19
-1.22092e-20
3.49127e-19
-9.54638e-21
3.37768e-19
-5.23896e-21
2.37751e-19
6.69676e-22
4.47518e-20
6.50915e-21
-9.88061e-20
6.58049e-21
-2.20651e-19
7.6193e-21
-1.91349e-19
1.17001e-21
-1.16164e-19
-7.01095e-22
-2.21171e-20
1.08162e-20
6.54667e-20
-1.58525e-18
4.34393e-20
-1.2564e-18
-1.33289e-20
-2.80712e-19
-4.36984e-20
1.05901e-18
-8.01579e-20
2.25179e-18
-8.53514e-20
2.78576e-18
-6.8253e-20
2.47407e-18
-2.50854e-20
1.38582e-18
2.26433e-20
-1.36964e-19
6.72112e-20
-1.67002e-18
9.13469e-20
-2.74032e-18
9.14345e-20
-3.07188e-18
6.6719e-20
-2.5764e-18
2.59429e-20
-1.43006e-18
-1.95089e-20
3.98128e-20
-5.73823e-20
1.42703e-18
-7.84759e-20
2.38732e-18
-7.91848e-20
2.71422e-18
-6.11834e-20
2.38722e-18
-3.11535e-20
1.55316e-18
2.40784e-21
4.68016e-19
3.09314e-20
-5.83097e-19
4.85785e-20
-1.36306e-18
5.28056e-20
-1.73407e-18
4.48573e-20
-1.67697e-18
2.85508e-20
-1.27599e-18
9.12243e-21
-6.82255e-19
-8.40758e-21
-6.5397e-20
-2.03201e-20
4.29031e-19
-2.49134e-20
7.11101e-19
-2.25516e-20
7.58362e-19
-1.52831e-20
6.10755e-19
-6.02273e-21
3.51144e-19
2.2246e-21
7.73836e-20
7.29527e-21
-1.25181e-19
8.19063e-21
-2.06289e-19
5.43297e-21
-1.61244e-19
5.6679e-22
-2.7422e-20
-4.22073e-21
1.2911e-19
-6.93051e-21
2.40126e-19
-6.48831e-21
2.52847e-19
-2.70661e-21
1.56039e-19
2.79762e-21
-2.79725e-20
8.71942e-21
-2.34757e-19
1.19684e-20
-4.00142e-19
1.25877e-20
-4.57287e-19
8.28186e-21
-3.89129e-19
2.6848e-21
-2.04705e-19
-5.46266e-21
3.39591e-20
-1.00358e-20
2.53076e-19
-1.33749e-20
3.87922e-19
-1.05994e-20
3.81937e-19
-6.03089e-21
2.7438e-19
5.11124e-22
6.026e-20
6.93224e-21
-1.02833e-19
7.24991e-21
-2.44145e-19
8.45554e-21
-2.16332e-19
1.43318e-21
-1.36174e-19
-7.11765e-22
-2.958e-20
8.20372e-21
7.208e-20
-1.78152e-18
4.90896e-20
-1.4736e-18
-1.23012e-20
-4.39174e-19
-4.56956e-20
1.06518e-18
-8.66166e-20
2.43836e-18
-9.37091e-20
3.10883e-18
-7.63534e-20
2.84011e-18
-2.99571e-20
1.6853e-18
2.21291e-20
4.078e-21
7.15637e-20
-1.73433e-18
9.91566e-20
-2.99436e-18
1.00647e-19
-3.4485e-18
7.47655e-20
-2.97374e-18
3.08008e-20
-1.74542e-18
-1.89516e-20
-1.15863e-19
-6.10114e-20
1.46212e-18
-8.51028e-20
2.59423e-18
-8.69784e-20
3.03219e-18
-6.81845e-20
2.73393e-18
-3.58313e-20
1.84757e-18
8.55775e-22
6.50579e-19
3.24427e-20
-5.3851e-19
5.239e-20
-1.44739e-18
5.77223e-20
-1.91032e-18
4.96247e-20
-1.89328e-18
3.21516e-20
-1.48022e-18
1.09873e-20
-8.34179e-19
-8.34814e-21
-1.43973e-19
-2.17023e-20
4.24215e-19
-2.7105e-20
7.63618e-19
-2.48501e-20
8.42039e-19
-1.71023e-20
6.97959e-19
-7.01895e-21
4.20008e-19
2.09859e-21
1.16359e-19
7.83017e-21
-1.16146e-19
9.0104e-21
-2.1797e-19
6.14084e-21
-1.79639e-19
8.61435e-22
-3.91545e-20
-4.44201e-21
1.32109e-19
-7.56045e-21
2.58309e-19
-7.2522e-21
2.79065e-19
-3.25796e-21
1.78986e-19
2.7241e-21
-2.0048e-20
9.26654e-21
-2.48488e-19
1.29963e-20
-4.35586e-19
1.38777e-20
-5.05747e-19
9.35981e-21
-4.37888e-19
3.32662e-21
-2.38843e-19
-5.61553e-21
2.39445e-20
-1.07574e-20
2.70178e-19
-1.46412e-20
4.25825e-19
-1.17743e-20
4.27338e-19
-6.95329e-21
3.13709e-19
2.87968e-22
7.91024e-20
7.34762e-21
-1.04268e-19
7.98039e-21
-2.66619e-19
9.38505e-21
-2.41884e-19
1.75193e-21
-1.57929e-19
-7.10755e-22
-3.83575e-20
5.13309e-21
7.92954e-20
-1.97511e-18
5.54476e-20
-1.70182e-18
-1.07693e-20
-6.22243e-19
-4.74479e-20
1.04501e-18
-9.33748e-20
2.6039e-18
-1.02779e-19
3.42511e-18
-8.54052e-20
3.21665e-18
-3.56856e-20
2.01056e-18
2.10716e-20
1.78682e-19
7.58851e-20
-1.76695e-18
1.07433e-19
-3.22784e-18
1.10706e-19
-3.82166e-18
8.37888e-20
-3.38566e-18
3.65094e-20
-2.08935e-18
-1.78888e-20
-3.0635e-19
-6.45875e-20
1.46516e-18
-9.21116e-20
2.7796e-18
-9.54612e-20
3.34367e-18
-7.59878e-20
3.08958e-18
-4.12244e-20
2.16291e-18
-1.16822e-21
8.60139e-19
3.38016e-20
-4.67562e-19
5.63592e-20
-1.51167e-18
6.30248e-20
-2.07626e-18
5.4884e-20
-2.10973e-18
3.62233e-20
-1.69326e-18
1.32019e-20
-1.00019e-18
-8.115e-21
-2.37919e-19
-2.30902e-20
4.06264e-19
-2.94424e-20
8.07556e-19
-2.73682e-20
9.22485e-19
-1.91434e-20
7.86637e-19
-8.18099e-21
4.93403e-19
1.89467e-21
1.60869e-19
8.37589e-21
-1.02407e-19
9.90301e-21
-2.26933e-19
6.9415e-21
-1.97551e-19
1.22488e-21
-5.20625e-20
-4.64803e-21
1.33379e-19
-8.23688e-21
2.75374e-19
-8.10661e-21
3.05595e-19
-3.90944e-21
2.03832e-19
2.58178e-21
-9.15741e-21
9.80812e-21
-2.59209e-19
1.40914e-20
-4.69103e-19
1.52962e-20
-5.54171e-19
1.05859e-20
-4.88698e-19
4.09878e-21
-2.76539e-19
-5.70909e-21
9.91624e-21
-1.14936e-20
2.84195e-19
-1.60126e-20
4.62474e-19
-1.30821e-20
4.7385e-19
-8.02276e-21
3.55878e-19
-1.22227e-23
1.01638e-19
7.74683e-21
-1.02687e-19
8.77445e-21
-2.87725e-19
1.04158e-20
-2.67839e-19
2.13532e-21
-1.81469e-19
-6.94179e-22
-4.85431e-20
1.55928e-21
8.71406e-20
-2.16368e-18
6.25714e-20
-1.9403e-18
-8.64747e-21
-8.30599e-19
-4.88783e-20
9.96397e-19
-1.00402e-19
2.74527e-18
-1.12588e-19
3.7316e-18
-9.54884e-20
3.60175e-18
-4.23774e-20
2.36145e-18
1.93653e-20
3.88601e-19
8.01064e-20
-1.76466e-18
1.16161e-19
-3.43702e-18
1.21655e-19
-4.18812e-18
9.38774e-20
-3.81031e-18
4.31773e-20
-2.46189e-18
-1.62214e-20
-5.33507e-19
-6.80454e-20
1.43298e-18
-9.94855e-20
2.93986e-18
-1.04665e-19
3.64551e-18
-8.4661e-20
3.45219e-18
-4.74172e-20
2.49873e-18
-3.7435e-21
1.09768e-18
3.49513e-20
-3.68195e-19
6.04619e-20
-1.55336e-18
6.87218e-20
-2.22949e-18
6.06701e-20
-2.32456e-18
4.08143e-20
-1.91425e-18
1.5815e-20
-1.18033e-18
-7.67001e-21
-3.48e-19
-2.44629e-20
3.74015e-19
-3.19227e-20
8.41698e-19
-3.01181e-20
9.98708e-19
-2.1427e-20
8.76187e-19
-9.5303e-21
5.71137e-19
1.59676e-21
2.11043e-19
8.92532e-21
-8.36745e-20
1.08704e-20
-2.32891e-19
7.84316e-21
-2.14814e-19
1.66686e-21
-6.61427e-20
-4.83222e-21
1.32803e-19
-8.95978e-21
2.91181e-19
-9.05856e-21
3.32388e-19
-4.67307e-21
2.30694e-19
2.35807e-21
4.99084e-21
1.03357e-20
-2.6652e-19
1.52533e-20
-5.00304e-19
1.68516e-20
-6.02314e-19
1.19757e-20
-5.41556e-19
5.01961e-21
-3.18052e-19
-5.72852e-21
-8.57806e-21
-1.22369e-20
2.9462e-19
-1.74926e-20
4.97461e-19
-1.45339e-20
5.21305e-19
-9.25733e-21
4.00997e-19
-4.03568e-22
1.28227e-19
8.11952e-21
-9.76421e-20
9.63392e-21
-3.0707e-19
1.15558e-20
-2.93992e-19
2.59353e-21
-2.06812e-19
-6.5732e-22
-6.02239e-20
-2.56465e-21
9.56375e-20
-2.34477e-18
7.05187e-20
-2.18808e-18
-5.84153e-21
-1.0647e-18
-4.98989e-20
9.17294e-19
-1.07658e-19
2.85925e-18
-1.23157e-19
4.025e-18
-1.06684e-19
3.9931e-18
-5.01465e-20
2.73749e-18
1.68931e-20
6.35383e-19
8.41456e-20
-1.72423e-18
1.25313e-19
-3.61792e-18
1.33533e-19
-4.54425e-18
1.05121e-19
-4.24543e-18
5.09215e-20
-2.86272e-18
-1.38383e-20
-7.98993e-19
-7.13076e-20
1.36244e-18
-1.07198e-19
3.0712e-18
-1.14615e-19
3.93423e-18
-9.42729e-20
3.81939e-18
-5.44998e-20
2.85421e-18
-6.95792e-21
1.36399e-18
3.5826e-20
-2.38412e-19
6.46663e-20
-1.56984e-18
7.48178e-20
-2.36744e-18
6.70165e-20
-2.53575e-18
4.59753e-20
-2.14209e-18
1.88797e-20
-1.37446e-18
-6.96991e-21
-4.74886e-19
-2.57948e-20
3.2631e-19
-3.45404e-20
8.6476e-19
-3.3111e-20
1.06961e-18
-2.39742e-20
9.65895e-19
-1.109e-20
6.52927e-19
1.18668e-21
2.66954e-19
9.46954e-21
-5.96748e-20
1.19136e-20
-2.35547e-19
8.85411e-21
-2.31238e-19
2.198e-21
-8.13696e-20
-4.98688e-21
1.30274e-19
-9.72829e-21
3.05586e-19
-1.0115e-20
3.59376e-19
-5.56169e-21
2.59667e-19
2.03889e-21
2.26818e-20
1.0839e-20
-2.7001e-19
1.64801e-20
-5.28765e-19
1.85521e-20
-6.49888e-19
1.35454e-20
-5.96415e-19
6.10911e-21
-3.63616e-19
-5.65673e-21
-3.19951e-20
-1.29774e-20
3.00912e-19
-1.90836e-20
5.3033e-19
-1.61408e-20
5.69488e-19
-1.06763e-20
4.49143e-19
-9.02026e-22
1.59222e-19
8.45324e-21
-8.86622e-20
1.05597e-20
-3.24219e-19
1.28129e-20
-3.20095e-19
3.13798e-21
-2.33945e-19
-5.94503e-22
-7.34773e-20
-7.28677e-21
1.04801e-19
-2.51587e-18
7.93452e-20
-2.44397e-18
-2.24928e-21
-1.32474e-18
-5.04103e-20
8.05764e-19
-1.15089e-19
2.94249e-18
-1.34499e-19
4.30173e-18
-1.1907e-19
4.38796e-18
-5.91132e-20
3.1378e-18
1.35253e-20
9.20313e-19
8.79063e-20
-1.6425e-18
1.34852e-19
-3.76636e-18
1.46372e-19
-4.88604e-18
1.17611e-19
-4.68828e-18
5.98665e-20
-3.29108e-18
-1.06163e-20
-1.1042e-18
-7.4283e-20
1.25043e-18
-1.15211e-19
3.16965e-18
-1.25334e-19
4.206e-18
-1.04892e-19
4.18839e-18
-6.25672e-20
3.22814e-18
-1.09081e-20
1.65954e-18
3.63502e-20
-7.6332e-20
6.89321e-20
-1.55844e-18
8.13115e-20
-2.4873e-18
7.39553e-20
-2.74102e-18
5.17585e-20
-2.3754e-18
2.24535e-20
-1.58224e-18
-5.96604e-21
-6.19117e-19
-2.70552e-20
2.62023e-19
-3.72861e-20
8.7541e-19
-3.63561e-20
1.134e-18
-2.68065e-20
1.05493e-18
-1.28851e-20
7.3839e-19
6.43985e-22
3.2861e-19
9.99765e-21
-3.01609e-20
1.30326e-20
-2.34594e-19
9.98262e-21
-2.4661e-19
2.82977e-21
-9.76943e-20
-5.103e-21
1.25693e-19
-1.05405e-20
3.18434e-19
-1.12825e-20
3.86472e-19
-6.58884e-21
2.90828e-19
1.60859e-21
4.419e-20
1.1306e-20
-2.69256e-19
1.77683e-20
-5.54036e-19
2.04049e-20
-6.96562e-19
1.53118e-20
-6.53189e-19
7.38908e-21
-4.13439e-19
-5.47422e-21
-6.07914e-20
-1.37031e-20
3.02503e-19
-2.07866e-20
5.60575e-19
-1.79136e-20
6.18127e-19
-1.23004e-20
5.00351e-19
-1.52552e-21
1.94968e-19
8.7331e-21
-7.52573e-20
1.15517e-20
-3.38688e-19
1.41947e-20
-3.45851e-19
3.78137e-21
-2.62822e-19
-4.9897e-22
-8.83672e-20
-1.26553e-20
1.14637e-19
-2.67449e-18
8.91041e-20
-2.70654e-18
2.23952e-21
-1.61061e-18
-5.03013e-20
6.60043e-19
-1.22629e-19
2.99164e-18
-1.46618e-19
4.55793e-18
-1.32725e-19
4.7832e-18
-6.94037e-20
3.56105e-18
9.11959e-21
1.24434e-18
9.12768e-20
-1.51639e-18
1.44725e-19
-3.87803e-18
1.60196e-19
-5.20911e-18
1.31437e-19
-5.13562e-18
7.01436e-20
-3.74573e-18
-6.41963e-21
-1.45016e-18
-7.68658e-20
1.09398e-18
-1.23473e-19
3.23113e-18
-1.36832e-19
4.45668e-18
-1.16584e-19
4.55597e-18
-7.17189e-20
3.61889e-18
-1.56994e-20
1.9845e-18
3.64373e-20
1.1976e-19
7.3209e-20
-1.51645e-18
8.81946e-20
-2.58614e-18
8.15153e-20
-2.93783e-18
5.82174e-20
-2.61251e-18
2.6598e-20
-1.80306e-18
-4.60402e-21
-7.81074e-19
-2.82078e-20
1.80088e-19
-4.01462e-20
8.72283e-19
-3.98609e-20
1.19058e-18
-2.99453e-20
1.14234e-18
-1.49421e-20
8.27031e-19
-5.41834e-23
3.9594e-19
1.04965e-20
5.07966e-21
1.42258e-20
-2.29726e-19
1.12368e-20
-2.60694e-19
3.57456e-21
-1.15044e-19
-5.17018e-21
1.18975e-19
-1.13932e-20
3.29564e-19
-1.25672e-20
4.13563e-19
-7.76871e-21
3.24226e-19
1.04992e-21
6.97754e-20
1.17223e-20
-2.63827e-19
1.91125e-20
-5.75629e-19
2.24166e-20
-7.41954e-19
1.72922e-20
-7.11735e-19
8.88306e-21
-4.67691e-19
-5.15882e-21
-9.54168e-20
-1.4399e-20
2.98796e-19
-2.26006e-20
5.87633e-19
-1.98627e-20
6.66888e-19
-1.41514e-20
5.54607e-19
-2.29404e-21
2.35786e-19
8.94151e-21
-5.69214e-20
1.26082e-20
-3.49944e-19
1.57084e-20
-3.70913e-19
4.53774e-21
-2.9335e-19
-3.62736e-22
-1.0494e-19
-1.87175e-20
1.2514e-19
-2.81819e-18
9.98436e-20
-2.97411e-18
7.74269e-21
-1.92182e-18
-4.94482e-20
4.78588e-19
-1.30196e-19
3.00332e-18
-1.59505e-19
4.78954e-18
-1.47721e-19
5.17524e-18
-8.1149e-20
4.00541e-18
3.52111e-21
1.60802e-18
9.41283e-20
-1.34301e-18
1.54862e-19
-3.9485e-18
1.75016e-19
-5.50871e-18
1.46686e-19
-5.58368e-18
8.18902e-20
-4.22491e-18
-1.09983e-21
-1.83752e-18
-7.89345e-20
8.90276e-19
-1.3192e-19
3.25145e-18
-1.49111e-19
4.6818e-18
-1.29412e-19
4.91844e-18
-8.20578e-20
4.02435e-18
-2.14459e-20
2.33864e-18
3.59897e-20
3.51349e-19
7.74357e-20
-1.44121e-18
9.54507e-20
-2.66084e-18
8.97218e-20
-3.12338e-18
6.54059e-20
-2.85146e-18
3.13788e-20
-2.03606e-18
-2.82356e-21
-9.60941e-19
-2.92104e-20
7.95282e-20
-4.31022e-20
8.54e-19
-4.36297e-20
1.23798e-18
-3.34116e-20
1.22704e-18
-1.72888e-20
9.18237e-19
-9.33138e-22
4.68786e-19
1.09506e-20
4.62143e-20
1.54903e-20
-2.2064e-19
1.26244e-20
-2.73234e-19
4.44558e-21
-1.3332e-19
-5.17648e-21
1.10046e-19
-1.22818e-20
3.38806e-19
-1.39747e-20
4.40516e-19
-9.11602e-21
3.5988e-19
3.4392e-22
9.96779e-20
1.20714e-20
-2.53291e-19
2.05054e-20
-5.93028e-19
2.45921e-20
-7.85629e-19
1.95041e-20
-7.71854e-19
1.06163e-20
-5.26501e-19
-4.68553e-21
-1.36308e-19
-1.50474e-20
2.89167e-19
-2.45225e-20
6.10887e-19
-2.19977e-20
7.15362e-19
-1.62521e-20
6.11831e-19
-3.22978e-21
2.8197e-19
9.05786e-21
-3.31376e-20
1.37256e-20
-3.57409e-19
1.736e-20
-3.94873e-19
5.42252e-21
-3.25391e-19
-1.76449e-22
-1.2322e-19
-2.5518e-20
1.36293e-19
-2.94467e-18
1.11606e-19
-3.24475e-18
1.43849e-20
-2.2575e-18
-4.77147e-20
2.60142e-19
-1.37692e-19
2.97426e-18
-1.73138e-19
4.99225e-18
-1.64124e-19
5.56005e-18
-9.4483e-20
4.46853e-18
-3.43735e-21
2.01142e-18
9.63146e-20
-1.11973e-18
1.65176e-19
-3.9733e-18
1.90834e-19
-5.77975e-18
1.6344e-19
-6.02818e-18
9.52482e-20
-4.72623e-18
5.50402e-21
-2.2664e-18
-8.03505e-20
6.36799e-19
-1.40468e-19
3.22643e-18
-1.62162e-19
4.87661e-18
-1.43435e-19
5.27167e-18
-9.36889e-20
4.44187e-18
-2.82702e-20
2.72128e-18
3.48978e-20
6.19634e-19
8.15387e-20
-1.33016e-18
1.03054e-19
-2.70822e-18
9.85942e-20
-3.29461e-18
7.33771e-20
-3.08997e-18
3.68648e-20
-2.28005e-18
-5.58384e-22
-1.15868e-18
-3.00136e-20
-4.05144e-20
-4.613e-20
8.19196e-19
-4.76637e-20
1.27473e-18
-3.72255e-20
1.30785e-18
-1.99546e-20
1.01127e-18
-2.02072e-21
5.46893e-19
1.13414e-20
9.33554e-20
1.6821e-20
-2.07047e-19
1.41526e-20
-2.83957e-19
5.45683e-21
-1.52402e-19
-5.10833e-21
9.88443e-20
-1.32e-20
3.45982e-19
-1.55095e-20
4.67164e-19
-1.06458e-20
3.97773e-19
-5.30046e-22
1.34111e-19
1.23339e-20
-2.37215e-19
2.19365e-20
-6.05685e-19
2.69348e-20
-8.27095e-19
2.19648e-20
-8.3328e-19
1.26157e-20
-5.89939e-19
-4.0263e-21
-1.83878e-19
-1.56268e-20
2.72974e-19
-2.6546e-20
6.29659e-19
-2.43267e-20
7.63065e-19
-1.86262e-20
6.71876e-19
-4.3571e-21
3.33772e-19
9.05819e-21
-3.38585e-21
1.48985e-20
-3.60456e-19
1.91547e-20
-4.17262e-19
6.45253e-21
-3.58747e-19
7.07453e-23
-1.43203e-19
-3.30969e-20
1.48064e-19
-3.05181e-18
1.24425e-19
-3.51622e-18
2.22967e-20
-2.61632e-18
-4.49519e-20
3.78837e-21
-1.45e-19
2.90129e-18
-1.87481e-19
5.1616e-18
-1.81989e-19
5.9332e-18
-1.09541e-19
4.94747e-18
-1.19346e-20
2.45408e-18
9.76706e-20
-8.4427e-19
1.7556e-19
-3.94801e-18
2.07631e-19
-6.01685e-18
1.81772e-19
-6.46428e-18
1.10362e-19
-5.24669e-18
1.35649e-20
-2.73637e-18
-8.09576e-20
3.31372e-19
-1.49018e-19
3.15195e-18
-1.7596e-19
5.03616e-18
-1.58702e-19
5.61106e-18
-1.06718e-19
4.86829e-18
-3.63025e-20
3.13121e-18
3.30398e-20
9.2545e-19
8.54315e-20
-1.18086e-18
1.10966e-19
-2.72499e-18
1.08145e-19
-3.44824e-18
8.21828e-20
-3.32541e-18
4.31279e-20
-2.53352e-18
2.26382e-21
-1.37397e-18
-3.05615e-20
-1.80739e-19
-4.91991e-20
7.66544e-19
-5.19596e-20
1.29933e-18
-4.14056e-20
1.38346e-18
-2.29696e-20
1.10525e-18
-3.3473e-21
6.29892e-19
1.16479e-20
1.4655e-19
1.82108e-20
-1.88676e-19
1.58277e-20
-2.92579e-19
6.623e-21
-1.72143e-19
-4.95039e-21
8.5324e-20
-1.41395e-20
3.50906e-19
-1.71747e-20
4.93314e-19
-1.23734e-20
4.37847e-19
-1.59432e-21
1.73257e-19
1.24878e-20
-2.15174e-19
2.33928e-20
-6.13024e-19
2.94458e-20
-8.65802e-19
2.4691e-20
-8.9567e-19
1.49097e-20
-6.58015e-19
-3.14992e-21
-2.38511e-19
-1.6112e-20
2.49561e-19
-2.86618e-20
6.43215e-19
-2.68561e-20
8.09427e-19
-2.12978e-20
7.3451e-19
-5.70264e-21
3.91394e-19
8.9149e-21
3.28487e-20
1.61184e-20
-3.58411e-19
2.10958e-20
-4.37543e-19
7.64598e-21
-3.93154e-19
3.91343e-22
-1.64851e-19
-4.1488e-20
1.60404e-19
-3.1377e-18
1.38324e-19
-3.786e-18
3.16134e-20
-2.99648e-18
-4.0999e-20
-2.90978e-19
-1.51984e-19
2.78147e-18
-2.02476e-19
5.29303e-18
-2.01363e-19
6.2898e-18
-1.26458e-19
5.43869e-18
-2.21603e-20
2.9349e-18
9.80124e-20
-5.14758e-19
1.85884e-19
-3.8683e-18
2.25372e-19
-6.21439e-18
2.01747e-19
-6.88658e-18
1.27378e-19
-5.78257e-18
2.32669e-20
-3.24635e-18
-8.05812e-20
-2.77288e-20
-1.57447e-19
3.02401e-18
-1.90461e-19
5.15525e-18
-1.75252e-19
5.93159e-18
-1.21249e-19
5.29982e-18
-4.56799e-20
3.56669e-18
3.02814e-20
1.2692e-18
8.90129e-20
-9.91097e-19
1.19139e-19
-2.70787e-18
1.1838e-19
-3.58077e-18
9.18713e-20
-3.55485e-18
5.02423e-20
-2.79462e-18
5.72122e-21
-1.60622e-18
-3.07902e-20
-3.41651e-19
-5.22721e-20
6.94786e-19
-5.65094e-20
1.31024e-18
-4.59682e-20
1.45244e-18
-2.63645e-20
1.19918e-18
-4.94572e-21
7.17301e-19
1.18457e-20
2.05768e-19
1.96498e-20
-1.65286e-19
1.7655e-20
-2.98806e-19
7.95936e-21
-1.92373e-19
-4.68547e-21
6.94539e-20
-1.50898e-20
3.53386e-19
-1.89723e-20
5.18738e-19
-1.43138e-20
4.79998e-19
-2.87288e-21
2.17256e-19
1.2508e-20
-1.86754e-19
2.48576e-20
-6.14443e-19
3.21235e-20