/*--------------------------------*- C++ -*----------------------------------*\
| =========                 |                                                 |
| \\      /  F ield         | foam-extend: Open Source CFD                    |
|  \\    /   O peration     | Version:     4.0                                |
|   \\  /    A nd           | Web:         http://www.foam-extend.org         |
|    \\/     M anipulation  |                                                 |
\*---------------------------------------------------------------------------*/
FoamFile
{
    version     2.0;
    format      ascii;
    class       volScalarField;
    location    "940";
    object      cMinus;
}
// * * * * * * * * * * * * * * * * * * * * * * * * * * * * * * * * * * * * * //

dimensions      [0 0 0 0 0 0 0];

internalField   nonuniform List<scalar> 
6960
(
2.12358e-21
2.09075e-21
2.09406e-21
2.09847e-21
2.10252e-21
2.10614e-21
2.10932e-21
2.11207e-21
2.11442e-21
2.11641e-21
2.11807e-21
2.11943e-21
2.12053e-21
2.12141e-21
2.12209e-21
2.12262e-21
2.12301e-21
2.1233e-21
2.1235e-21
2.12363e-21
2.12371e-21
2.12376e-21
2.12377e-21
2.12377e-21
2.12376e-21
2.12374e-21
2.12372e-21
2.12371e-21
2.1237e-21
2.12369e-21
2.12369e-21
2.1237e-21
2.12371e-21
2.12372e-21
2.12374e-21
2.12376e-21
2.12377e-21
2.12377e-21
2.12376e-21
2.12371e-21
2.12363e-21
2.1235e-21
2.1233e-21
2.12301e-21
2.12262e-21
2.12209e-21
2.12141e-21
2.12053e-21
2.11943e-21
2.11807e-21
2.11641e-21
2.11442e-21
2.11207e-21
2.10932e-21
2.10614e-21
2.10252e-21
2.09847e-21
2.09406e-21
2.09075e-21
2.12358e-21
2.65852e-21
2.61803e-21
2.62225e-21
2.62779e-21
2.63287e-21
2.6374e-21
2.64139e-21
2.64484e-21
2.6478e-21
2.6503e-21
2.65238e-21
2.65409e-21
2.65547e-21
2.65658e-21
2.65744e-21
2.65811e-21
2.65861e-21
2.65897e-21
2.65922e-21
2.6594e-21
2.6595e-21
2.65956e-21
2.65959e-21
2.65959e-21
2.65958e-21
2.65956e-21
2.65954e-21
2.65952e-21
2.65951e-21
2.6595e-21
2.6595e-21
2.65951e-21
2.65952e-21
2.65954e-21
2.65956e-21
2.65958e-21
2.65959e-21
2.65959e-21
2.65956e-21
2.6595e-21
2.6594e-21
2.65922e-21
2.65897e-21
2.65861e-21
2.65811e-21
2.65744e-21
2.65658e-21
2.65547e-21
2.65409e-21
2.65238e-21
2.6503e-21
2.6478e-21
2.64484e-21
2.64139e-21
2.6374e-21
2.63287e-21
2.62779e-21
2.62225e-21
2.61803e-21
2.65852e-21
4.85357e-21
4.78062e-21
4.78838e-21
4.79849e-21
4.80775e-21
4.81602e-21
4.82329e-21
4.82959e-21
4.83498e-21
4.83953e-21
4.84333e-21
4.84645e-21
4.84898e-21
4.85099e-21
4.85257e-21
4.85379e-21
4.8547e-21
4.85536e-21
4.85583e-21
4.85614e-21
4.85634e-21
4.85645e-21
4.8565e-21
4.8565e-21
4.85648e-21
4.85645e-21
4.85641e-21
4.85638e-21
4.85635e-21
4.85634e-21
4.85634e-21
4.85635e-21
4.85638e-21
4.85641e-21
4.85645e-21
4.85648e-21
4.8565e-21
4.8565e-21
4.85645e-21
4.85634e-21
4.85614e-21
4.85583e-21
4.85536e-21
4.8547e-21
4.85379e-21
4.85257e-21
4.85099e-21
4.84898e-21
4.84645e-21
4.84333e-21
4.83953e-21
4.83498e-21
4.82959e-21
4.82329e-21
4.81602e-21
4.80775e-21
4.79849e-21
4.78838e-21
4.78062e-21
4.85357e-21
9.68417e-21
9.54019e-21
9.55578e-21
9.57594e-21
9.5944e-21
9.61088e-21
9.62536e-21
9.63791e-21
9.64865e-21
9.65772e-21
9.66529e-21
9.67151e-21
9.67654e-21
9.68056e-21
9.6837e-21
9.68612e-21
9.68793e-21
9.68925e-21
9.69018e-21
9.6908e-21
9.69119e-21
9.6914e-21
9.6915e-21
9.69151e-21
9.69146e-21
9.6914e-21
9.69132e-21
9.69125e-21
9.6912e-21
9.69118e-21
9.69118e-21
9.6912e-21
9.69125e-21
9.69132e-21
9.6914e-21
9.69146e-21
9.69151e-21
9.6915e-21
9.6914e-21
9.69119e-21
9.6908e-21
9.69018e-21
9.68925e-21
9.68793e-21
9.68612e-21
9.6837e-21
9.68056e-21
9.67654e-21
9.67151e-21
9.66529e-21
9.65772e-21
9.64865e-21
9.63791e-21
9.62536e-21
9.61088e-21
9.5944e-21
9.57594e-21
9.55578e-21
9.54019e-21
9.68417e-21
1.94297e-20
1.91439e-20
1.91754e-20
1.92158e-20
1.92528e-20
1.92859e-20
1.93149e-20
1.934e-20
1.93616e-20
1.93797e-20
1.93949e-20
1.94073e-20
1.94174e-20
1.94255e-20
1.94318e-20
1.94366e-20
1.94402e-20
1.94428e-20
1.94447e-20
1.94459e-20
1.94467e-20
1.94471e-20
1.94473e-20
1.94473e-20
1.94472e-20
1.94471e-20
1.94469e-20
1.94468e-20
1.94467e-20
1.94466e-20
1.94466e-20
1.94467e-20
1.94468e-20
1.94469e-20
1.94471e-20
1.94472e-20
1.94473e-20
1.94473e-20
1.94471e-20
1.94467e-20
1.94459e-20
1.94447e-20
1.94428e-20
1.94402e-20
1.94366e-20
1.94318e-20
1.94255e-20
1.94174e-20
1.94073e-20
1.93949e-20
1.93797e-20
1.93616e-20
1.934e-20
1.93149e-20
1.92859e-20
1.92528e-20
1.92158e-20
1.91754e-20
1.91439e-20
1.94297e-20
3.87166e-20
3.81539e-20
3.8217e-20
3.82975e-20
3.83712e-20
3.84369e-20
3.84947e-20
3.85448e-20
3.85876e-20
3.86238e-20
3.86539e-20
3.86787e-20
3.86987e-20
3.87147e-20
3.87272e-20
3.87368e-20
3.8744e-20
3.87493e-20
3.87529e-20
3.87554e-20
3.87569e-20
3.87577e-20
3.87581e-20
3.87581e-20
3.87579e-20
3.87576e-20
3.87573e-20
3.8757e-20
3.87568e-20
3.87567e-20
3.87567e-20
3.87568e-20
3.8757e-20
3.87573e-20
3.87576e-20
3.87579e-20
3.87581e-20
3.87581e-20
3.87577e-20
3.87569e-20
3.87554e-20
3.87529e-20
3.87493e-20
3.8744e-20
3.87368e-20
3.87272e-20
3.87147e-20
3.86987e-20
3.86787e-20
3.86539e-20
3.86238e-20
3.85876e-20
3.85448e-20
3.84947e-20
3.84369e-20
3.83712e-20
3.82975e-20
3.8217e-20
3.81539e-20
3.87166e-20
7.6728e-20
7.56274e-20
7.57535e-20
7.59128e-20
7.60586e-20
7.61887e-20
7.6303e-20
7.64021e-20
7.64869e-20
7.65584e-20
7.66181e-20
7.66671e-20
7.67068e-20
7.67384e-20
7.67631e-20
7.67821e-20
7.67963e-20
7.68066e-20
7.68138e-20
7.68186e-20
7.68216e-20
7.68233e-20
7.68239e-20
7.68239e-20
7.68236e-20
7.6823e-20
7.68223e-20
7.68218e-20
7.68214e-20
7.68212e-20
7.68212e-20
7.68214e-20
7.68218e-20
7.68223e-20
7.6823e-20
7.68236e-20
7.68239e-20
7.68239e-20
7.68233e-20
7.68216e-20
7.68186e-20
7.68138e-20
7.68066e-20
7.67963e-20
7.67821e-20
7.67631e-20
7.67384e-20
7.67068e-20
7.66671e-20
7.66181e-20
7.65584e-20
7.64869e-20
7.64021e-20
7.6303e-20
7.61887e-20
7.60586e-20
7.59128e-20
7.57535e-20
7.56274e-20
7.6728e-20
1.51624e-19
1.4948e-19
1.49731e-19
1.50046e-19
1.50333e-19
1.5059e-19
1.50816e-19
1.51011e-19
1.51178e-19
1.51319e-19
1.51437e-19
1.51534e-19
1.51612e-19
1.51674e-19
1.51723e-19
1.5176e-19
1.51788e-19
1.51808e-19
1.51823e-19
1.51832e-19
1.51838e-19
1.51841e-19
1.51842e-19
1.51842e-19
1.51842e-19
1.51841e-19
1.51839e-19
1.51838e-19
1.51837e-19
1.51837e-19
1.51837e-19
1.51837e-19
1.51838e-19
1.51839e-19
1.51841e-19
1.51842e-19
1.51842e-19
1.51842e-19
1.51841e-19
1.51838e-19
1.51832e-19
1.51823e-19
1.51808e-19
1.51788e-19
1.5176e-19
1.51723e-19
1.51674e-19
1.51612e-19
1.51534e-19
1.51437e-19
1.51319e-19
1.51178e-19
1.51011e-19
1.50816e-19
1.5059e-19
1.50333e-19
1.50046e-19
1.49731e-19
1.4948e-19
1.51624e-19
2.99337e-19
2.95175e-19
2.95674e-19
2.96293e-19
2.9686e-19
2.97365e-19
2.97809e-19
2.98194e-19
2.98523e-19
2.98801e-19
2.99033e-19
2.99223e-19
2.99377e-19
2.995e-19
2.99596e-19
2.99669e-19
2.99724e-19
2.99764e-19
2.99792e-19
2.99811e-19
2.99822e-19
2.99828e-19
2.99831e-19
2.99831e-19
2.99829e-19
2.99827e-19
2.99824e-19
2.99822e-19
2.9982e-19
2.9982e-19
2.9982e-19
2.9982e-19
2.99822e-19
2.99824e-19
2.99827e-19
2.99829e-19
2.99831e-19
2.99831e-19
2.99828e-19
2.99822e-19
2.99811e-19
2.99792e-19
2.99764e-19
2.99724e-19
2.99669e-19
2.99596e-19
2.995e-19
2.99377e-19
2.99223e-19
2.99033e-19
2.98801e-19
2.98523e-19
2.98194e-19
2.97809e-19
2.97365e-19
2.9686e-19
2.96293e-19
2.95674e-19
2.95175e-19
2.99337e-19
5.91132e-19
5.83065e-19
5.84057e-19
5.85276e-19
5.86391e-19
5.87386e-19
5.8826e-19
5.89017e-19
5.89665e-19
5.90212e-19
5.90667e-19
5.91042e-19
5.91345e-19
5.91586e-19
5.91775e-19
5.91919e-19
5.92027e-19
5.92106e-19
5.92161e-19
5.92197e-19
5.9222e-19
5.92232e-19
5.92237e-19
5.92236e-19
5.92233e-19
5.92229e-19
5.92224e-19
5.92219e-19
5.92216e-19
5.92214e-19
5.92214e-19
5.92216e-19
5.92219e-19
5.92224e-19
5.92229e-19
5.92233e-19
5.92236e-19
5.92237e-19
5.92232e-19
5.9222e-19
5.92197e-19
5.92161e-19
5.92106e-19
5.92027e-19
5.91919e-19
5.91775e-19
5.91586e-19
5.91345e-19
5.91042e-19
5.90667e-19
5.90212e-19
5.89665e-19
5.89017e-19
5.8826e-19
5.87386e-19
5.86391e-19
5.85276e-19
5.84057e-19
5.83065e-19
5.91132e-19
1.16885e-18
1.15323e-18
1.15521e-18
1.15761e-18
1.1598e-18
1.16176e-18
1.16348e-18
1.16497e-18
1.16624e-18
1.16732e-18
1.16821e-18
1.16895e-18
1.16955e-18
1.17002e-18
1.17039e-18
1.17068e-18
1.17089e-18
1.17104e-18
1.17115e-18
1.17122e-18
1.17127e-18
1.17129e-18
1.1713e-18
1.1713e-18
1.17129e-18
1.17128e-18
1.17127e-18
1.17127e-18
1.17126e-18
1.17126e-18
1.17126e-18
1.17126e-18
1.17127e-18
1.17127e-18
1.17128e-18
1.17129e-18
1.1713e-18
1.1713e-18
1.17129e-18
1.17127e-18
1.17122e-18
1.17115e-18
1.17104e-18
1.17089e-18
1.17068e-18
1.17039e-18
1.17002e-18
1.16955e-18
1.16895e-18
1.16821e-18
1.16732e-18
1.16624e-18
1.16497e-18
1.16348e-18
1.16176e-18
1.1598e-18
1.15761e-18
1.15521e-18
1.15323e-18
1.16885e-18
2.31625e-18
2.28607e-18
2.28999e-18
2.29472e-18
2.29904e-18
2.30289e-18
2.30628e-18
2.30921e-18
2.31172e-18
2.31383e-18
2.3156e-18
2.31705e-18
2.31822e-18
2.31915e-18
2.31988e-18
2.32044e-18
2.32086e-18
2.32117e-18
2.32138e-18
2.32152e-18
2.32161e-18
2.32165e-18
2.32167e-18
2.32167e-18
2.32166e-18
2.32164e-18
2.32162e-18
2.3216e-18
2.32159e-18
2.32159e-18
2.32159e-18
2.32159e-18
2.3216e-18
2.32162e-18
2.32164e-18
2.32166e-18
2.32167e-18
2.32167e-18
2.32165e-18
2.32161e-18
2.32152e-18
2.32138e-18
2.32117e-18
2.32086e-18
2.32044e-18
2.31988e-18
2.31915e-18
2.31822e-18
2.31705e-18
2.3156e-18
2.31383e-18
2.31172e-18
2.30921e-18
2.30628e-18
2.30289e-18
2.29904e-18
2.29472e-18
2.28999e-18
2.28607e-18
2.31625e-18
4.60531e-18
4.54707e-18
4.55487e-18
4.56418e-18
4.57268e-18
4.58027e-18
4.58693e-18
4.5927e-18
4.59764e-18
4.60181e-18
4.60528e-18
4.60814e-18
4.61045e-18
4.61229e-18
4.61373e-18
4.61483e-18
4.61565e-18
4.61625e-18
4.61667e-18
4.61695e-18
4.61712e-18
4.61721e-18
4.61725e-18
4.61725e-18
4.61723e-18
4.61719e-18
4.61715e-18
4.61712e-18
4.6171e-18
4.61708e-18
4.61708e-18
4.6171e-18
4.61712e-18
4.61715e-18
4.61719e-18
4.61723e-18
4.61725e-18
4.61725e-18
4.61721e-18
4.61712e-18
4.61695e-18
4.61667e-18
4.61625e-18
4.61565e-18
4.61483e-18
4.61373e-18
4.61229e-18
4.61045e-18
4.60814e-18
4.60528e-18
4.60181e-18
4.59764e-18
4.5927e-18
4.58693e-18
4.58027e-18
4.57268e-18
4.56418e-18
4.55487e-18
4.54707e-18
4.60531e-18
9.20139e-18
9.08914e-18
9.10468e-18
9.12301e-18
9.13976e-18
9.1547e-18
9.16783e-18
9.1792e-18
9.18893e-18
9.19714e-18
9.20399e-18
9.20961e-18
9.21417e-18
9.21779e-18
9.22063e-18
9.2228e-18
9.22443e-18
9.22561e-18
9.22644e-18
9.22699e-18
9.22734e-18
9.22752e-18
9.2276e-18
9.2276e-18
9.22755e-18
9.22749e-18
9.22741e-18
9.22735e-18
9.2273e-18
9.22728e-18
9.22728e-18
9.2273e-18
9.22735e-18
9.22741e-18
9.22749e-18
9.22755e-18
9.2276e-18
9.2276e-18
9.22752e-18
9.22734e-18
9.22699e-18
9.22644e-18
9.22561e-18
9.22443e-18
9.2228e-18
9.22063e-18
9.21779e-18
9.21417e-18
9.20961e-18
9.20399e-18
9.19714e-18
9.18893e-18
9.1792e-18
9.16783e-18
9.1547e-18
9.13976e-18
9.12301e-18
9.10468e-18
9.08914e-18
9.20139e-18
1.85157e-17
1.82997e-17
1.83307e-17
1.83668e-17
1.83998e-17
1.84293e-17
1.84552e-17
1.84776e-17
1.84968e-17
1.8513e-17
1.85265e-17
1.85376e-17
1.85466e-17
1.85537e-17
1.85593e-17
1.85636e-17
1.85668e-17
1.85692e-17
1.85708e-17
1.85719e-17
1.85726e-17
1.8573e-17
1.85732e-17
1.85732e-17
1.85731e-17
1.8573e-17
1.85728e-17
1.85727e-17
1.85726e-17
1.85726e-17
1.85726e-17
1.85726e-17
1.85727e-17
1.85728e-17
1.8573e-17
1.85731e-17
1.85732e-17
1.85732e-17
1.8573e-17
1.85726e-17
1.85719e-17
1.85708e-17
1.85692e-17
1.85668e-17
1.85636e-17
1.85593e-17
1.85537e-17
1.85466e-17
1.85376e-17
1.85265e-17
1.8513e-17
1.84968e-17
1.84776e-17
1.84552e-17
1.84293e-17
1.83998e-17
1.83668e-17
1.83307e-17
1.82997e-17
1.85157e-17
3.76477e-17
3.72326e-17
3.72945e-17
3.73659e-17
3.7431e-17
3.74891e-17
3.75402e-17
3.75845e-17
3.76224e-17
3.76544e-17
3.76811e-17
3.7703e-17
3.77208e-17
3.7735e-17
3.77461e-17
3.77546e-17
3.7761e-17
3.77657e-17
3.77689e-17
3.77712e-17
3.77725e-17
3.77733e-17
3.77737e-17
3.77737e-17
3.77736e-17
3.77733e-17
3.77731e-17
3.77729e-17
3.77727e-17
3.77726e-17
3.77726e-17
3.77727e-17
3.77729e-17
3.77731e-17
3.77733e-17
3.77736e-17
3.77737e-17
3.77737e-17
3.77733e-17
3.77725e-17
3.77712e-17
3.77689e-17
3.77657e-17
3.7761e-17
3.77546e-17
3.77461e-17
3.7735e-17
3.77208e-17
3.7703e-17
3.76811e-17
3.76544e-17
3.76224e-17
3.75845e-17
3.75402e-17
3.74891e-17
3.7431e-17
3.73659e-17
3.72945e-17
3.72326e-17
3.76477e-17
7.7714e-17
7.6918e-17
7.70419e-17
7.71829e-17
7.73117e-17
7.74266e-17
7.75276e-17
7.76152e-17
7.76902e-17
7.77535e-17
7.78064e-17
7.78499e-17
7.78852e-17
7.79133e-17
7.79354e-17
7.79524e-17
7.79652e-17
7.79746e-17
7.79813e-17
7.79858e-17
7.79886e-17
7.79903e-17
7.7991e-17
7.79912e-17
7.7991e-17
7.79907e-17
7.79902e-17
7.79898e-17
7.79895e-17
7.79893e-17
7.79893e-17
7.79895e-17
7.79898e-17
7.79902e-17
7.79907e-17
7.7991e-17
7.79912e-17
7.7991e-17
7.79903e-17
7.79886e-17
7.79858e-17
7.79813e-17
7.79746e-17
7.79652e-17
7.79524e-17
7.79354e-17
7.79133e-17
7.78852e-17
7.78499e-17
7.78064e-17
7.77535e-17
7.76902e-17
7.76152e-17
7.75276e-17
7.74266e-17
7.73117e-17
7.71829e-17
7.70419e-17
7.6918e-17
7.7714e-17
1.63948e-16
1.62425e-16
1.62674e-16
1.62953e-16
1.63208e-16
1.63436e-16
1.63637e-16
1.6381e-16
1.63959e-16
1.64085e-16
1.6419e-16
1.64277e-16
1.64347e-16
1.64403e-16
1.64448e-16
1.64482e-16
1.64508e-16
1.64527e-16
1.6454e-16
1.6455e-16
1.64556e-16
1.64559e-16
1.64561e-16
1.64562e-16
1.64562e-16
1.64561e-16
1.64561e-16
1.6456e-16
1.64559e-16
1.64559e-16
1.64559e-16
1.64559e-16
1.6456e-16
1.64561e-16
1.64561e-16
1.64562e-16
1.64562e-16
1.64561e-16
1.64559e-16
1.64556e-16
1.6455e-16
1.6454e-16
1.64527e-16
1.64508e-16
1.64482e-16
1.64448e-16
1.64403e-16
1.64347e-16
1.64277e-16
1.6419e-16
1.64085e-16
1.63959e-16
1.6381e-16
1.63637e-16
1.63436e-16
1.63208e-16
1.62953e-16
1.62674e-16
1.62425e-16
1.63948e-16
3.56617e-16
3.53712e-16
3.54212e-16
3.54768e-16
3.55275e-16
3.55728e-16
3.56127e-16
3.56473e-16
3.5677e-16
3.57021e-16
3.57232e-16
3.57406e-16
3.57547e-16
3.57661e-16
3.5775e-16
3.5782e-16
3.57873e-16
3.57913e-16
3.57941e-16
3.57961e-16
3.57975e-16
3.57983e-16
3.57988e-16
3.5799e-16
3.57991e-16
3.57991e-16
3.5799e-16
3.57989e-16
3.57988e-16
3.57988e-16
3.57988e-16
3.57988e-16
3.57989e-16
3.5799e-16
3.57991e-16
3.57991e-16
3.5799e-16
3.57988e-16
3.57983e-16
3.57975e-16
3.57961e-16
3.57941e-16
3.57913e-16
3.57873e-16
3.5782e-16
3.5775e-16
3.57661e-16
3.57547e-16
3.57406e-16
3.57232e-16
3.57021e-16
3.5677e-16
3.56473e-16
3.56127e-16
3.55728e-16
3.55275e-16
3.54768e-16
3.54212e-16
3.53712e-16
3.56617e-16
8.08462e-16
8.0294e-16
8.03954e-16
8.05064e-16
8.06078e-16
8.06986e-16
8.07786e-16
8.08481e-16
8.09078e-16
8.09586e-16
8.10011e-16
8.10364e-16
8.10652e-16
8.10885e-16
8.1107e-16
8.11215e-16
8.11326e-16
8.11411e-16
8.11473e-16
8.11518e-16
8.11549e-16
8.1157e-16
8.11583e-16
8.11591e-16
8.11595e-16
8.11597e-16
8.11597e-16
8.11597e-16
8.11596e-16
8.11596e-16
8.11596e-16
8.11596e-16
8.11597e-16
8.11597e-16
8.11597e-16
8.11595e-16
8.11591e-16
8.11583e-16
8.1157e-16
8.11549e-16
8.11518e-16
8.11473e-16
8.11411e-16
8.11326e-16
8.11215e-16
8.1107e-16
8.10885e-16
8.10652e-16
8.10364e-16
8.10011e-16
8.09586e-16
8.09078e-16
8.08481e-16
8.07786e-16
8.06986e-16
8.06078e-16
8.05064e-16
8.03954e-16
8.0294e-16
8.08462e-16
1.93201e-15
1.92156e-15
1.92364e-15
1.92588e-15
1.92793e-15
1.92976e-15
1.93138e-15
1.9328e-15
1.93402e-15
1.93505e-15
1.93593e-15
1.93666e-15
1.93726e-15
1.93775e-15
1.93814e-15
1.93845e-15
1.93869e-15
1.93888e-15
1.93903e-15
1.93913e-15
1.93921e-15
1.93927e-15
1.93931e-15
1.93933e-15
1.93935e-15
1.93936e-15
1.93937e-15
1.93937e-15
1.93937e-15
1.93937e-15
1.93937e-15
1.93937e-15
1.93937e-15
1.93937e-15
1.93936e-15
1.93935e-15
1.93933e-15
1.93931e-15
1.93927e-15
1.93921e-15
1.93913e-15
1.93903e-15
1.93888e-15
1.93869e-15
1.93845e-15
1.93814e-15
1.93775e-15
1.93726e-15
1.93666e-15
1.93593e-15
1.93505e-15
1.93402e-15
1.9328e-15
1.93138e-15
1.92976e-15
1.92793e-15
1.92588e-15
1.92364e-15
1.92156e-15
1.93201e-15
4.91283e-15
4.89321e-15
4.89752e-15
4.9021e-15
4.90631e-15
4.91009e-15
4.91344e-15
4.91637e-15
4.91891e-15
4.92109e-15
4.92294e-15
4.92449e-15
4.92578e-15
4.92685e-15
4.92772e-15
4.92842e-15
4.92898e-15
4.92942e-15
4.92977e-15
4.93005e-15
4.93026e-15
4.93042e-15
4.93054e-15
4.93063e-15
4.9307e-15
4.93075e-15
4.93078e-15
4.93081e-15
4.93082e-15
4.93083e-15
4.93083e-15
4.93082e-15
4.93081e-15
4.93078e-15
4.93075e-15
4.9307e-15
4.93063e-15
4.93054e-15
4.93042e-15
4.93026e-15
4.93005e-15
4.92977e-15
4.92942e-15
4.92898e-15
4.92842e-15
4.92772e-15
4.92685e-15
4.92578e-15
4.92449e-15
4.92294e-15
4.92109e-15
4.91891e-15
4.91637e-15
4.91344e-15
4.91009e-15
4.90631e-15
4.9021e-15
4.89752e-15
4.89321e-15
4.91283e-15
1.33543e-14
1.33178e-14
1.3327e-14
1.33366e-14
1.33455e-14
1.33535e-14
1.33606e-14
1.33669e-14
1.33724e-14
1.33772e-14
1.33812e-14
1.33847e-14
1.33876e-14
1.33901e-14
1.33921e-14
1.33938e-14
1.33952e-14
1.33963e-14
1.33972e-14
1.3398e-14
1.33986e-14
1.33991e-14
1.33995e-14
1.33998e-14
1.34001e-14
1.34003e-14
1.34004e-14
1.34005e-14
1.34006e-14
1.34006e-14
1.34006e-14
1.34006e-14
1.34005e-14
1.34004e-14
1.34003e-14
1.34001e-14
1.33998e-14
1.33995e-14
1.33991e-14
1.33986e-14
1.3398e-14
1.33972e-14
1.33963e-14
1.33952e-14
1.33938e-14
1.33921e-14
1.33901e-14
1.33876e-14
1.33847e-14
1.33812e-14
1.33772e-14
1.33724e-14
1.33669e-14
1.33606e-14
1.33535e-14
1.33455e-14
1.33366e-14
1.3327e-14
1.33178e-14
1.33543e-14
3.87387e-14
3.86722e-14
3.86925e-14
3.87135e-14
3.8733e-14
3.87507e-14
3.87666e-14
3.87808e-14
3.87933e-14
3.88043e-14
3.88138e-14
3.88221e-14
3.88292e-14
3.88352e-14
3.88404e-14
3.88448e-14
3.88486e-14
3.88517e-14
3.88544e-14
3.88567e-14
3.88586e-14
3.88601e-14
3.88615e-14
3.88626e-14
3.88635e-14
3.88642e-14
3.88647e-14
3.88652e-14
3.88654e-14
3.88656e-14
3.88656e-14
3.88654e-14
3.88652e-14
3.88647e-14
3.88642e-14
3.88635e-14
3.88626e-14
3.88615e-14
3.88601e-14
3.88586e-14
3.88567e-14
3.88544e-14
3.88517e-14
3.88486e-14
3.88448e-14
3.88404e-14
3.88352e-14
3.88292e-14
3.88221e-14
3.88138e-14
3.88043e-14
3.87933e-14
3.87808e-14
3.87666e-14
3.87507e-14
3.8733e-14
3.87135e-14
3.86925e-14
3.86722e-14
3.87387e-14
1.19087e-13
1.1897e-13
1.19017e-13
1.19066e-13
1.19112e-13
1.19153e-13
1.19192e-13
1.19226e-13
1.19257e-13
1.19284e-13
1.19308e-13
1.1933e-13
1.19348e-13
1.19365e-13
1.19379e-13
1.19392e-13
1.19403e-13
1.19412e-13
1.1942e-13
1.19428e-13
1.19434e-13
1.19439e-13
1.19444e-13
1.19448e-13
1.19451e-13
1.19454e-13
1.19456e-13
1.19457e-13
1.19458e-13
1.19459e-13
1.19459e-13
1.19458e-13
1.19457e-13
1.19456e-13
1.19454e-13
1.19451e-13
1.19448e-13
1.19444e-13
1.19439e-13
1.19434e-13
1.19428e-13
1.1942e-13
1.19412e-13
1.19403e-13
1.19392e-13
1.19379e-13
1.19365e-13
1.19348e-13
1.1933e-13
1.19308e-13
1.19284e-13
1.19257e-13
1.19226e-13
1.19192e-13
1.19153e-13
1.19112e-13
1.19066e-13
1.19017e-13
1.1897e-13
1.19087e-13
3.84204e-13
3.84013e-13
3.84133e-13
3.84255e-13
3.84371e-13
3.84479e-13
3.84578e-13
3.84669e-13
3.84751e-13
3.84826e-13
3.84893e-13
3.84954e-13
3.85008e-13
3.85057e-13
3.85101e-13
3.85139e-13
3.85174e-13
3.85205e-13
3.85232e-13
3.85256e-13
3.85278e-13
3.85296e-13
3.85313e-13
3.85327e-13
3.85338e-13
3.85348e-13
3.85356e-13
3.85361e-13
3.85365e-13
3.85367e-13
3.85367e-13
3.85365e-13
3.85361e-13
3.85356e-13
3.85348e-13
3.85338e-13
3.85327e-13
3.85313e-13
3.85296e-13
3.85278e-13
3.85256e-13
3.85232e-13
3.85205e-13
3.85174e-13
3.85139e-13
3.85101e-13
3.85057e-13
3.85008e-13
3.84954e-13
3.84893e-13
3.84826e-13
3.84751e-13
3.84669e-13
3.84578e-13
3.84479e-13
3.84371e-13
3.84255e-13
3.84133e-13
3.84013e-13
3.84204e-13
1.28811e-12
1.28786e-12
1.28819e-12
1.28852e-12
1.28885e-12
1.28915e-12
1.28944e-12
1.2897e-12
1.28995e-12
1.29017e-12
1.29037e-12
1.29056e-12
1.29073e-12
1.29089e-12
1.29103e-12
1.29116e-12
1.29128e-12
1.29138e-12
1.29148e-12
1.29156e-12
1.29164e-12
1.2917e-12
1.29176e-12
1.29181e-12
1.29185e-12
1.29189e-12
1.29192e-12
1.29194e-12
1.29195e-12
1.29196e-12
1.29196e-12
1.29195e-12
1.29194e-12
1.29192e-12
1.29189e-12
1.29185e-12
1.29181e-12
1.29176e-12
1.2917e-12
1.29164e-12
1.29156e-12
1.29148e-12
1.29138e-12
1.29128e-12
1.29116e-12
1.29103e-12
1.29089e-12
1.29073e-12
1.29056e-12
1.29037e-12
1.29017e-12
1.28995e-12
1.2897e-12
1.28944e-12
1.28915e-12
1.28885e-12
1.28852e-12
1.28819e-12
1.28786e-12
1.28811e-12
4.44943e-12
4.44933e-12
4.45034e-12
4.45136e-12
4.45235e-12
4.4533e-12
4.45419e-12
4.45503e-12
4.45581e-12
4.45654e-12
4.45722e-12
4.45784e-12
4.45842e-12
4.45895e-12
4.45943e-12
4.45988e-12
4.46029e-12
4.46066e-12
4.461e-12
4.4613e-12
4.46158e-12
4.46182e-12
4.46203e-12
4.46222e-12
4.46238e-12
4.46251e-12
4.46261e-12
4.46269e-12
4.46274e-12
4.46277e-12
4.46277e-12
4.46274e-12
4.46269e-12
4.46261e-12
4.46251e-12
4.46238e-12
4.46222e-12
4.46203e-12
4.46182e-12
4.46158e-12
4.4613e-12
4.461e-12
4.46066e-12
4.46029e-12
4.45988e-12
4.45943e-12
4.45895e-12
4.45842e-12
4.45784e-12
4.45722e-12
4.45654e-12
4.45581e-12
4.45503e-12
4.45419e-12
4.4533e-12
4.45235e-12
4.45136e-12
4.45034e-12
4.44933e-12
4.44943e-12
1.57248e-11
1.5726e-11
1.57293e-11
1.57327e-11
1.5736e-11
1.57391e-11
1.57421e-11
1.5745e-11
1.57477e-11
1.57502e-11
1.57525e-11
1.57547e-11
1.57567e-11
1.57586e-11
1.57604e-11
1.5762e-11
1.57635e-11
1.57648e-11
1.57661e-11
1.57672e-11
1.57682e-11
1.57691e-11
1.57699e-11
1.57706e-11
1.57711e-11
1.57716e-11
1.5772e-11
1.57723e-11
1.57725e-11
1.57726e-11
1.57726e-11
1.57725e-11
1.57723e-11
1.5772e-11
1.57716e-11
1.57711e-11
1.57706e-11
1.57699e-11
1.57691e-11
1.57682e-11
1.57672e-11
1.57661e-11
1.57648e-11
1.57635e-11
1.5762e-11
1.57604e-11
1.57586e-11
1.57567e-11
1.57547e-11
1.57525e-11
1.57502e-11
1.57477e-11
1.5745e-11
1.57421e-11
1.57391e-11
1.5736e-11
1.57327e-11
1.57293e-11
1.5726e-11
1.57248e-11
5.65378e-11
5.65452e-11
5.65566e-11
5.65683e-11
5.65799e-11
5.65911e-11
5.66018e-11
5.66119e-11
5.66215e-11
5.66305e-11
5.66389e-11
5.66469e-11
5.66543e-11
5.66612e-11
5.66676e-11
5.66735e-11
5.6679e-11
5.6684e-11
5.66886e-11
5.66927e-11
5.66965e-11
5.66998e-11
5.67028e-11
5.67054e-11
5.67076e-11
5.67094e-11
5.67109e-11
5.67119e-11
5.67127e-11
5.6713e-11
5.6713e-11
5.67127e-11
5.67119e-11
5.67109e-11
5.67094e-11
5.67076e-11
5.67054e-11
5.67028e-11
5.66998e-11
5.66965e-11
5.66927e-11
5.66886e-11
5.6684e-11
5.6679e-11
5.66735e-11
5.66676e-11
5.66612e-11
5.66543e-11
5.66469e-11
5.66389e-11
5.66305e-11
5.66215e-11
5.66119e-11
5.66018e-11
5.65911e-11
5.65799e-11
5.65683e-11
5.65566e-11
5.65452e-11
5.65378e-11
2.05812e-10
2.05845e-10
2.05886e-10
2.05929e-10
2.05971e-10
2.06012e-10
2.06051e-10
2.06088e-10
2.06123e-10
2.06156e-10
2.06187e-10
2.06217e-10
2.06244e-10
2.0627e-10
2.06294e-10
2.06316e-10
2.06336e-10
2.06355e-10
2.06372e-10
2.06388e-10
2.06402e-10
2.06415e-10
2.06426e-10
2.06436e-10
2.06444e-10
2.06451e-10
2.06456e-10
2.0646e-10
2.06463e-10
2.06464e-10
2.06464e-10
2.06463e-10
2.0646e-10
2.06456e-10
2.06451e-10
2.06444e-10
2.06436e-10
2.06426e-10
2.06415e-10
2.06402e-10
2.06388e-10
2.06372e-10
2.06355e-10
2.06336e-10
2.06316e-10
2.06294e-10
2.0627e-10
2.06244e-10
2.06217e-10
2.06187e-10
2.06156e-10
2.06123e-10
2.06088e-10
2.06051e-10
2.06012e-10
2.05971e-10
2.05929e-10
2.05886e-10
2.05845e-10
2.05812e-10
7.55179e-10
7.55313e-10
7.55465e-10
7.55622e-10
7.55778e-10
7.55929e-10
7.56074e-10
7.56213e-10
7.56344e-10
7.56468e-10
7.56585e-10
7.56695e-10
7.56798e-10
7.56894e-10
7.56983e-10
7.57067e-10
7.57144e-10
7.57214e-10
7.57279e-10
7.57338e-10
7.57392e-10
7.57439e-10
7.57481e-10
7.57518e-10
7.57549e-10
7.57575e-10
7.57596e-10
7.57611e-10
7.57622e-10
7.57627e-10
7.57627e-10
7.57622e-10
7.57611e-10
7.57596e-10
7.57575e-10
7.57549e-10
7.57518e-10
7.57481e-10
7.57439e-10
7.57392e-10
7.57338e-10
7.57279e-10
7.57214e-10
7.57144e-10
7.57067e-10
7.56983e-10
7.56894e-10
7.56798e-10
7.56695e-10
7.56585e-10
7.56468e-10
7.56344e-10
7.56213e-10
7.56074e-10
7.55929e-10
7.55778e-10
7.55622e-10
7.55465e-10
7.55313e-10
7.55179e-10
2.78066e-09
2.78118e-09
2.78174e-09
2.78233e-09
2.78291e-09
2.78348e-09
2.78402e-09
2.78454e-09
2.78503e-09
2.7855e-09
2.78594e-09
2.78635e-09
2.78674e-09
2.7871e-09
2.78743e-09
2.78775e-09
2.78804e-09
2.7883e-09
2.78855e-09
2.78877e-09
2.78897e-09
2.78915e-09
2.78931e-09
2.78945e-09
2.78957e-09
2.78966e-09
2.78974e-09
2.7898e-09
2.78984e-09
2.78986e-09
2.78986e-09
2.78984e-09
2.7898e-09
2.78974e-09
2.78966e-09
2.78957e-09
2.78945e-09
2.78931e-09
2.78915e-09
2.78897e-09
2.78877e-09
2.78855e-09
2.7883e-09
2.78804e-09
2.78775e-09
2.78743e-09
2.7871e-09
2.78674e-09
2.78635e-09
2.78594e-09
2.7855e-09
2.78503e-09
2.78454e-09
2.78402e-09
2.78348e-09
2.78291e-09
2.78233e-09
2.78174e-09
2.78118e-09
2.78066e-09
1.02264e-08
1.02283e-08
1.02304e-08
1.02326e-08
1.02348e-08
1.02369e-08
1.0239e-08
1.02409e-08
1.02427e-08
1.02445e-08
1.02461e-08
1.02476e-08
1.02491e-08
1.02504e-08
1.02517e-08
1.02529e-08
1.0254e-08
1.0255e-08
1.02559e-08
1.02567e-08
1.02575e-08
1.02581e-08
1.02587e-08
1.02592e-08
1.02597e-08
1.02601e-08
1.02604e-08
1.02606e-08
1.02607e-08
1.02608e-08
1.02608e-08
1.02607e-08
1.02606e-08
1.02604e-08
1.02601e-08
1.02597e-08
1.02592e-08
1.02587e-08
1.02581e-08
1.02575e-08
1.02567e-08
1.02559e-08
1.0255e-08
1.0254e-08
1.02529e-08
1.02517e-08
1.02504e-08
1.02491e-08
1.02476e-08
1.02461e-08
1.02445e-08
1.02427e-08
1.02409e-08
1.0239e-08
1.02369e-08
1.02348e-08
1.02326e-08
1.02304e-08
1.02283e-08
1.02264e-08
3.73704e-08
3.73777e-08
3.73856e-08
3.73937e-08
3.74018e-08
3.74096e-08
3.74171e-08
3.74242e-08
3.7431e-08
3.74375e-08
3.74435e-08
3.74492e-08
3.74546e-08
3.74596e-08
3.74643e-08
3.74686e-08
3.74726e-08
3.74763e-08
3.74797e-08
3.74828e-08
3.74856e-08
3.74881e-08
3.74903e-08
3.74922e-08
3.74939e-08
3.74952e-08
3.74963e-08
3.74971e-08
3.74976e-08
3.74979e-08
3.74979e-08
3.74976e-08
3.74971e-08
3.74963e-08
3.74952e-08
3.74939e-08
3.74922e-08
3.74903e-08
3.74881e-08
3.74856e-08
3.74828e-08
3.74797e-08
3.74763e-08
3.74726e-08
3.74686e-08
3.74643e-08
3.74596e-08
3.74546e-08
3.74492e-08
3.74435e-08
3.74375e-08
3.7431e-08
3.74242e-08
3.74171e-08
3.74096e-08
3.74018e-08
3.73937e-08
3.73856e-08
3.73777e-08
3.73704e-08
1.34916e-07
1.34942e-07
1.34971e-07
1.35001e-07
1.3503e-07
1.35058e-07
1.35086e-07
1.35112e-07
1.35136e-07
1.3516e-07
1.35182e-07
1.35203e-07
1.35222e-07
1.3524e-07
1.35257e-07
1.35273e-07
1.35288e-07
1.35301e-07
1.35314e-07
1.35325e-07
1.35335e-07
1.35344e-07
1.35352e-07
1.35359e-07
1.35365e-07
1.3537e-07
1.35374e-07
1.35377e-07
1.35379e-07
1.3538e-07
1.3538e-07
1.35379e-07
1.35377e-07
1.35374e-07
1.3537e-07
1.35365e-07
1.35359e-07
1.35352e-07
1.35344e-07
1.35335e-07
1.35325e-07
1.35314e-07
1.35301e-07
1.35288e-07
1.35273e-07
1.35257e-07
1.3524e-07
1.35222e-07
1.35203e-07
1.35182e-07
1.3516e-07
1.35136e-07
1.35112e-07
1.35086e-07
1.35058e-07
1.3503e-07
1.35001e-07
1.34971e-07
1.34942e-07
1.34916e-07
4.78083e-07
4.78179e-07
4.78281e-07
4.78386e-07
4.7849e-07
4.78591e-07
4.78688e-07
4.7878e-07
4.78868e-07
4.78951e-07
4.79029e-07
4.79103e-07
4.79172e-07
4.79237e-07
4.79297e-07
4.79353e-07
4.79405e-07
4.79453e-07
4.79497e-07
4.79537e-07
4.79572e-07
4.79605e-07
4.79633e-07
4.79658e-07
4.79679e-07
4.79696e-07
4.7971e-07
4.79721e-07
4.79728e-07
4.79731e-07
4.79731e-07
4.79728e-07
4.79721e-07
4.7971e-07
4.79696e-07
4.79679e-07
4.79658e-07
4.79633e-07
4.79605e-07
4.79572e-07
4.79537e-07
4.79497e-07
4.79453e-07
4.79405e-07
4.79353e-07
4.79297e-07
4.79237e-07
4.79172e-07
4.79103e-07
4.79029e-07
4.78951e-07
4.78868e-07
4.7878e-07
4.78688e-07
4.78591e-07
4.7849e-07
4.78386e-07
4.78281e-07
4.78179e-07
4.78083e-07
1.6507e-06
1.65102e-06
1.65138e-06
1.65174e-06
1.65209e-06
1.65244e-06
1.65277e-06
1.65309e-06
1.65339e-06
1.65368e-06
1.65395e-06
1.6542e-06
1.65444e-06
1.65466e-06
1.65487e-06
1.65506e-06
1.65524e-06
1.6554e-06
1.65555e-06
1.65569e-06
1.65581e-06
1.65592e-06
1.65602e-06
1.6561e-06
1.65618e-06
1.65624e-06
1.65629e-06
1.65632e-06
1.65635e-06
1.65636e-06
1.65636e-06
1.65635e-06
1.65632e-06
1.65629e-06
1.65624e-06
1.65618e-06
1.6561e-06
1.65602e-06
1.65592e-06
1.65581e-06
1.65569e-06
1.65555e-06
1.6554e-06
1.65524e-06
1.65506e-06
1.65487e-06
1.65466e-06
1.65444e-06
1.6542e-06
1.65395e-06
1.65368e-06
1.65339e-06
1.65309e-06
1.65277e-06
1.65244e-06
1.65209e-06
1.65174e-06
1.65138e-06
1.65102e-06
1.6507e-06
5.50756e-06
5.50864e-06
5.50981e-06
5.511e-06
5.51217e-06
5.51332e-06
5.51441e-06
5.51546e-06
5.51645e-06
5.51739e-06
5.51828e-06
5.51911e-06
5.51989e-06
5.52062e-06
5.5213e-06
5.52193e-06
5.52252e-06
5.52306e-06
5.52355e-06
5.524e-06
5.52441e-06
5.52477e-06
5.52509e-06
5.52537e-06
5.52561e-06
5.5258e-06
5.52596e-06
5.52608e-06
5.52616e-06
5.5262e-06
5.5262e-06
5.52616e-06
5.52608e-06
5.52596e-06
5.5258e-06
5.52561e-06
5.52537e-06
5.52509e-06
5.52477e-06
5.52441e-06
5.524e-06
5.52355e-06
5.52306e-06
5.52252e-06
5.52193e-06
5.5213e-06
5.52062e-06
5.51989e-06
5.51911e-06
5.51828e-06
5.51739e-06
5.51645e-06
5.51546e-06
5.51441e-06
5.51332e-06
5.51217e-06
5.511e-06
5.50981e-06
5.50864e-06
5.50756e-06
1.75926e-05
1.7596e-05
1.75996e-05
1.76033e-05
1.7607e-05
1.76106e-05
1.7614e-05
1.76173e-05
1.76203e-05
1.76233e-05
1.7626e-05
1.76286e-05
1.76311e-05
1.76333e-05
1.76355e-05
1.76374e-05
1.76393e-05
1.76409e-05
1.76425e-05
1.76439e-05
1.76451e-05
1.76463e-05
1.76473e-05
1.76481e-05
1.76489e-05
1.76495e-05
1.765e-05
1.76503e-05
1.76506e-05
1.76507e-05
1.76507e-05
1.76506e-05
1.76503e-05
1.765e-05
1.76495e-05
1.76489e-05
1.76481e-05
1.76473e-05
1.76463e-05
1.76451e-05
1.76439e-05
1.76425e-05
1.76409e-05
1.76393e-05
1.76374e-05
1.76355e-05
1.76333e-05
1.76311e-05
1.76286e-05
1.7626e-05
1.76233e-05
1.76203e-05
1.76173e-05
1.7614e-05
1.76106e-05
1.7607e-05
1.76033e-05
1.75996e-05
1.7596e-05
1.75926e-05
5.32382e-05
5.32482e-05
5.32589e-05
5.32698e-05
5.32805e-05
5.32909e-05
5.33009e-05
5.33104e-05
5.33195e-05
5.3328e-05
5.3336e-05
5.33436e-05
5.33507e-05
5.33574e-05
5.33635e-05
5.33693e-05
5.33746e-05
5.33795e-05
5.3384e-05
5.33881e-05
5.33917e-05
5.3395e-05
5.33979e-05
5.34005e-05
5.34026e-05
5.34044e-05
5.34059e-05
5.34069e-05
5.34077e-05
5.3408e-05
5.3408e-05
5.34077e-05
5.34069e-05
5.34059e-05
5.34044e-05
5.34026e-05
5.34005e-05
5.33979e-05
5.3395e-05
5.33917e-05
5.33881e-05
5.3384e-05
5.33795e-05
5.33746e-05
5.33693e-05
5.33635e-05
5.33574e-05
5.33507e-05
5.33436e-05
5.3336e-05
5.3328e-05