/*--------------------------------*- C++ -*----------------------------------*\
| =========                 |                                                 |
| \\      /  F ield         | foam-extend: Open Source CFD                    |
|  \\    /   O peration     | Version:     4.0                                |
|   \\  /    A nd           | Web:         http://www.foam-extend.org         |
|    \\/     M anipulation  |                                                 |
\*---------------------------------------------------------------------------*/
FoamFile
{
    version     2.0;
    format      ascii;
    class       volScalarField;
    location    "13";
    object      cMinus;
}
// * * * * * * * * * * * * * * * * * * * * * * * * * * * * * * * * * * * * * //

dimensions      [0 -3 0 0 0 0 0];

internalField   nonuniform List<scalar> 
6960
(
2.00188e-06
2.00184e-06
2.0018e-06
2.00177e-06
2.00173e-06
2.0017e-06
2.00167e-06
2.00164e-06
2.00161e-06
2.00159e-06
2.00157e-06
2.00155e-06
2.00153e-06
2.00151e-06
2.0015e-06
2.00148e-06
2.00147e-06
2.00146e-06
2.00145e-06
2.00144e-06
2.00144e-06
2.00143e-06
2.00143e-06
2.00142e-06
2.00142e-06
2.00142e-06
2.00141e-06
2.00141e-06
2.00141e-06
2.00141e-06
2.00141e-06
2.00141e-06
2.00141e-06
2.00141e-06
2.00142e-06
2.00142e-06
2.00142e-06
2.00143e-06
2.00143e-06
2.00144e-06
2.00144e-06
2.00145e-06
2.00146e-06
2.00147e-06
2.00148e-06
2.0015e-06
2.00151e-06
2.00153e-06
2.00155e-06
2.00157e-06
2.00159e-06
2.00161e-06
2.00164e-06
2.00167e-06
2.0017e-06
2.00173e-06
2.00177e-06
2.0018e-06
2.00184e-06
2.00188e-06
2.02862e-06
2.02858e-06
2.02854e-06
2.0285e-06
2.02847e-06
2.02843e-06
2.0284e-06
2.02837e-06
2.02835e-06
2.02832e-06
2.0283e-06
2.02828e-06
2.02826e-06
2.02824e-06
2.02823e-06
2.02821e-06
2.0282e-06
2.02819e-06
2.02818e-06
2.02817e-06
2.02817e-06
2.02816e-06
2.02816e-06
2.02815e-06
2.02815e-06
2.02815e-06
2.02814e-06
2.02814e-06
2.02814e-06
2.02814e-06
2.02814e-06
2.02814e-06
2.02814e-06
2.02814e-06
2.02815e-06
2.02815e-06
2.02815e-06
2.02816e-06
2.02816e-06
2.02817e-06
2.02817e-06
2.02818e-06
2.02819e-06
2.0282e-06
2.02821e-06
2.02823e-06
2.02824e-06
2.02826e-06
2.02828e-06
2.0283e-06
2.02832e-06
2.02835e-06
2.02837e-06
2.0284e-06
2.02843e-06
2.02847e-06
2.0285e-06
2.02854e-06
2.02858e-06
2.02862e-06
2.05663e-06
2.05658e-06
2.05654e-06
2.0565e-06
2.05647e-06
2.05643e-06
2.0564e-06
2.05637e-06
2.05635e-06
2.05632e-06
2.0563e-06
2.05628e-06
2.05626e-06
2.05624e-06
2.05623e-06
2.05621e-06
2.0562e-06
2.05619e-06
2.05618e-06
2.05617e-06
2.05617e-06
2.05616e-06
2.05615e-06
2.05615e-06
2.05615e-06
2.05614e-06
2.05614e-06
2.05614e-06
2.05614e-06
2.05614e-06
2.05614e-06
2.05614e-06
2.05614e-06
2.05614e-06
2.05614e-06
2.05615e-06
2.05615e-06
2.05615e-06
2.05616e-06
2.05617e-06
2.05617e-06
2.05618e-06
2.05619e-06
2.0562e-06
2.05621e-06
2.05623e-06
2.05624e-06
2.05626e-06
2.05628e-06
2.0563e-06
2.05632e-06
2.05635e-06
2.05637e-06
2.0564e-06
2.05643e-06
2.05647e-06
2.0565e-06
2.05654e-06
2.05658e-06
2.05663e-06
2.08596e-06
2.08592e-06
2.08588e-06
2.08584e-06
2.0858e-06
2.08577e-06
2.08574e-06
2.08571e-06
2.08568e-06
2.08566e-06
2.08563e-06
2.08561e-06
2.08559e-06
2.08557e-06
2.08556e-06
2.08555e-06
2.08553e-06
2.08552e-06
2.08551e-06
2.0855e-06
2.0855e-06
2.08549e-06
2.08549e-06
2.08548e-06
2.08548e-06
2.08548e-06
2.08547e-06
2.08547e-06
2.08547e-06
2.08547e-06
2.08547e-06
2.08547e-06
2.08547e-06
2.08547e-06
2.08548e-06
2.08548e-06
2.08548e-06
2.08549e-06
2.08549e-06
2.0855e-06
2.0855e-06
2.08551e-06
2.08552e-06
2.08553e-06
2.08555e-06
2.08556e-06
2.08557e-06
2.08559e-06
2.08561e-06
2.08563e-06
2.08566e-06
2.08568e-06
2.08571e-06
2.08574e-06
2.08577e-06
2.0858e-06
2.08584e-06
2.08588e-06
2.08592e-06
2.08596e-06
2.11671e-06
2.11667e-06
2.11662e-06
2.11659e-06
2.11655e-06
2.11651e-06
2.11648e-06
2.11645e-06
2.11642e-06
2.1164e-06
2.11637e-06
2.11635e-06
2.11633e-06
2.11632e-06
2.1163e-06
2.11629e-06
2.11627e-06
2.11626e-06
2.11625e-06
2.11625e-06
2.11624e-06
2.11623e-06
2.11623e-06
2.11622e-06
2.11622e-06
2.11622e-06
2.11621e-06
2.11621e-06
2.11621e-06
2.11621e-06
2.11621e-06
2.11621e-06
2.11621e-06
2.11621e-06
2.11622e-06
2.11622e-06
2.11622e-06
2.11623e-06
2.11623e-06
2.11624e-06
2.11625e-06
2.11625e-06
2.11626e-06
2.11627e-06
2.11629e-06
2.1163e-06
2.11632e-06
2.11633e-06
2.11635e-06
2.11637e-06
2.1164e-06
2.11642e-06
2.11645e-06
2.11648e-06
2.11651e-06
2.11655e-06
2.11659e-06
2.11662e-06
2.11667e-06
2.11671e-06
2.14894e-06
2.1489e-06
2.14886e-06
2.14882e-06
2.14878e-06
2.14874e-06
2.14871e-06
2.14868e-06
2.14865e-06
2.14863e-06
2.1486e-06
2.14858e-06
2.14856e-06
2.14854e-06
2.14853e-06
2.14851e-06
2.1485e-06
2.14849e-06
2.14848e-06
2.14847e-06
2.14847e-06
2.14846e-06
2.14845e-06
2.14845e-06
2.14845e-06
2.14844e-06
2.14844e-06
2.14844e-06
2.14844e-06
2.14844e-06
2.14844e-06
2.14844e-06
2.14844e-06
2.14844e-06
2.14844e-06
2.14845e-06
2.14845e-06
2.14845e-06
2.14846e-06
2.14847e-06
2.14847e-06
2.14848e-06
2.14849e-06
2.1485e-06
2.14851e-06
2.14853e-06
2.14854e-06
2.14856e-06
2.14858e-06
2.1486e-06
2.14863e-06
2.14865e-06
2.14868e-06
2.14871e-06
2.14874e-06
2.14878e-06
2.14882e-06
2.14886e-06
2.1489e-06
2.14894e-06
2.18274e-06
2.1827e-06
2.18266e-06
2.18262e-06
2.18258e-06
2.18254e-06
2.18251e-06
2.18248e-06
2.18245e-06
2.18243e-06
2.1824e-06
2.18238e-06
2.18236e-06
2.18234e-06
2.18233e-06
2.18231e-06
2.1823e-06
2.18229e-06
2.18228e-06
2.18227e-06
2.18226e-06
2.18225e-06
2.18225e-06
2.18225e-06
2.18224e-06
2.18224e-06
2.18224e-06
2.18223e-06
2.18223e-06
2.18223e-06
2.18223e-06
2.18223e-06
2.18223e-06
2.18224e-06
2.18224e-06
2.18224e-06
2.18225e-06
2.18225e-06
2.18225e-06
2.18226e-06
2.18227e-06
2.18228e-06
2.18229e-06
2.1823e-06
2.18231e-06
2.18233e-06
2.18234e-06
2.18236e-06
2.18238e-06
2.1824e-06
2.18243e-06
2.18245e-06
2.18248e-06
2.18251e-06
2.18254e-06
2.18258e-06
2.18262e-06
2.18266e-06
2.1827e-06
2.18274e-06
2.2182e-06
2.21816e-06
2.21812e-06
2.21807e-06
2.21804e-06
2.218e-06
2.21797e-06
2.21794e-06
2.21791e-06
2.21788e-06
2.21786e-06
2.21783e-06
2.21781e-06
2.2178e-06
2.21778e-06
2.21777e-06
2.21775e-06
2.21774e-06
2.21773e-06
2.21772e-06
2.21772e-06
2.21771e-06
2.2177e-06
2.2177e-06
2.2177e-06
2.21769e-06
2.21769e-06
2.21769e-06
2.21769e-06
2.21769e-06
2.21769e-06
2.21769e-06
2.21769e-06
2.21769e-06
2.21769e-06
2.2177e-06
2.2177e-06
2.2177e-06
2.21771e-06
2.21772e-06
2.21772e-06
2.21773e-06
2.21774e-06
2.21775e-06
2.21777e-06
2.21778e-06
2.2178e-06
2.21781e-06
2.21783e-06
2.21786e-06
2.21788e-06
2.21791e-06
2.21794e-06
2.21797e-06
2.218e-06
2.21804e-06
2.21807e-06
2.21812e-06
2.21816e-06
2.2182e-06
2.25542e-06
2.25537e-06
2.25533e-06
2.25529e-06
2.25525e-06
2.25521e-06
2.25518e-06
2.25515e-06
2.25512e-06
2.25509e-06
2.25507e-06
2.25504e-06
2.25502e-06
2.25501e-06
2.25499e-06
2.25497e-06
2.25496e-06
2.25495e-06
2.25494e-06
2.25493e-06
2.25492e-06
2.25492e-06
2.25491e-06
2.25491e-06
2.2549e-06
2.2549e-06
2.2549e-06
2.2549e-06
2.25489e-06
2.25489e-06
2.25489e-06
2.25489e-06
2.2549e-06
2.2549e-06
2.2549e-06
2.2549e-06
2.25491e-06
2.25491e-06
2.25492e-06
2.25492e-06
2.25493e-06
2.25494e-06
2.25495e-06
2.25496e-06
2.25497e-06
2.25499e-06
2.25501e-06
2.25502e-06
2.25504e-06
2.25507e-06
2.25509e-06
2.25512e-06
2.25515e-06
2.25518e-06
2.25521e-06
2.25525e-06
2.25529e-06
2.25533e-06
2.25537e-06
2.25542e-06
2.29448e-06
2.29444e-06
2.29439e-06
2.29435e-06
2.29431e-06
2.29428e-06
2.29424e-06
2.29421e-06
2.29418e-06
2.29416e-06
2.29413e-06
2.29411e-06
2.29409e-06
2.29407e-06
2.29405e-06
2.29404e-06
2.29402e-06
2.29401e-06
2.294e-06
2.29399e-06
2.29399e-06
2.29398e-06
2.29397e-06
2.29397e-06
2.29397e-06
2.29396e-06
2.29396e-06
2.29396e-06
2.29396e-06
2.29396e-06
2.29396e-06
2.29396e-06
2.29396e-06
2.29396e-06
2.29396e-06
2.29397e-06
2.29397e-06
2.29397e-06
2.29398e-06
2.29399e-06
2.29399e-06
2.294e-06
2.29401e-06
2.29402e-06
2.29404e-06
2.29405e-06
2.29407e-06
2.29409e-06
2.29411e-06
2.29413e-06
2.29416e-06
2.29418e-06
2.29421e-06
2.29424e-06
2.29428e-06
2.29431e-06
2.29435e-06
2.29439e-06
2.29444e-06
2.29448e-06
2.33552e-06
2.33547e-06
2.33542e-06
2.33538e-06
2.33534e-06
2.33531e-06
2.33527e-06
2.33524e-06
2.33521e-06
2.33518e-06
2.33516e-06
2.33514e-06
2.33511e-06
2.3351e-06
2.33508e-06
2.33506e-06
2.33505e-06
2.33504e-06
2.33503e-06
2.33502e-06
2.33501e-06
2.33501e-06
2.335e-06
2.33499e-06
2.33499e-06
2.33499e-06
2.33499e-06
2.33498e-06
2.33498e-06
2.33498e-06
2.33498e-06
2.33498e-06
2.33498e-06
2.33499e-06
2.33499e-06
2.33499e-06
2.33499e-06
2.335e-06
2.33501e-06
2.33501e-06
2.33502e-06
2.33503e-06
2.33504e-06
2.33505e-06
2.33506e-06
2.33508e-06
2.3351e-06
2.33511e-06
2.33514e-06
2.33516e-06
2.33518e-06
2.33521e-06
2.33524e-06
2.33527e-06
2.33531e-06
2.33534e-06
2.33538e-06
2.33542e-06
2.33547e-06
2.33552e-06
2.37863e-06
2.37858e-06
2.37854e-06
2.37849e-06
2.37845e-06
2.37842e-06
2.37838e-06
2.37835e-06
2.37832e-06
2.37829e-06
2.37827e-06
2.37824e-06
2.37822e-06
2.3782e-06
2.37819e-06
2.37817e-06
2.37816e-06
2.37815e-06
2.37814e-06
2.37813e-06
2.37812e-06
2.37811e-06
2.37811e-06
2.3781e-06
2.3781e-06
2.37809e-06
2.37809e-06
2.37809e-06
2.37809e-06
2.37809e-06
2.37809e-06
2.37809e-06
2.37809e-06
2.37809e-06
2.37809e-06
2.3781e-06
2.3781e-06
2.37811e-06
2.37811e-06
2.37812e-06
2.37813e-06
2.37814e-06
2.37815e-06
2.37816e-06
2.37817e-06
2.37819e-06
2.3782e-06
2.37822e-06
2.37824e-06
2.37827e-06
2.37829e-06
2.37832e-06
2.37835e-06
2.37838e-06
2.37842e-06
2.37845e-06
2.37849e-06
2.37854e-06
2.37858e-06
2.37863e-06
2.42394e-06
2.4239e-06
2.42385e-06
2.42381e-06
2.42377e-06
2.42373e-06
2.4237e-06
2.42366e-06
2.42363e-06
2.42361e-06
2.42358e-06
2.42356e-06
2.42354e-06
2.42352e-06
2.4235e-06
2.42348e-06
2.42347e-06
2.42346e-06
2.42345e-06
2.42344e-06
2.42343e-06
2.42342e-06
2.42342e-06
2.42341e-06
2.42341e-06
2.42341e-06
2.4234e-06
2.4234e-06
2.4234e-06
2.4234e-06
2.4234e-06
2.4234e-06
2.4234e-06
2.4234e-06
2.42341e-06
2.42341e-06
2.42341e-06
2.42342e-06
2.42342e-06
2.42343e-06
2.42344e-06
2.42345e-06
2.42346e-06
2.42347e-06
2.42348e-06
2.4235e-06
2.42352e-06
2.42354e-06
2.42356e-06
2.42358e-06
2.42361e-06
2.42363e-06
2.42366e-06
2.4237e-06
2.42373e-06
2.42377e-06
2.42381e-06
2.42385e-06
2.4239e-06
2.42394e-06
2.4716e-06
2.47155e-06
2.47151e-06
2.47146e-06
2.47142e-06
2.47139e-06
2.47135e-06
2.47132e-06
2.47129e-06
2.47126e-06
2.47123e-06
2.47121e-06
2.47119e-06
2.47117e-06
2.47115e-06
2.47114e-06
2.47112e-06
2.47111e-06
2.4711e-06
2.47109e-06
2.47108e-06
2.47108e-06
2.47107e-06
2.47107e-06
2.47106e-06
2.47106e-06
2.47106e-06
2.47105e-06
2.47105e-06
2.47105e-06
2.47105e-06
2.47105e-06
2.47105e-06
2.47106e-06
2.47106e-06
2.47106e-06
2.47107e-06
2.47107e-06
2.47108e-06
2.47108e-06
2.47109e-06
2.4711e-06
2.47111e-06
2.47112e-06
2.47114e-06
2.47115e-06
2.47117e-06
2.47119e-06
2.47121e-06
2.47123e-06
2.47126e-06
2.47129e-06
2.47132e-06
2.47135e-06
2.47139e-06
2.47142e-06
2.47146e-06
2.47151e-06
2.47155e-06
2.4716e-06
2.52174e-06
2.52169e-06
2.52165e-06
2.5216e-06
2.52156e-06
2.52153e-06
2.52149e-06
2.52146e-06
2.52143e-06
2.5214e-06
2.52137e-06
2.52135e-06
2.52133e-06
2.52131e-06
2.52129e-06
2.52127e-06
2.52126e-06
2.52125e-06
2.52124e-06
2.52123e-06
2.52122e-06
2.52121e-06
2.52121e-06
2.5212e-06
2.5212e-06
2.52119e-06
2.52119e-06
2.52119e-06
2.52119e-06
2.52119e-06
2.52119e-06
2.52119e-06
2.52119e-06
2.52119e-06
2.52119e-06
2.5212e-06
2.5212e-06
2.52121e-06
2.52121e-06
2.52122e-06
2.52123e-06
2.52124e-06
2.52125e-06
2.52126e-06
2.52127e-06
2.52129e-06
2.52131e-06
2.52133e-06
2.52135e-06
2.52137e-06
2.5214e-06
2.52143e-06
2.52146e-06
2.52149e-06
2.52153e-06
2.52156e-06
2.5216e-06
2.52165e-06
2.52169e-06
2.52174e-06
2.57452e-06
2.57447e-06
2.57443e-06
2.57438e-06
2.57434e-06
2.5743e-06
2.57427e-06
2.57423e-06
2.5742e-06
2.57417e-06
2.57415e-06
2.57412e-06
2.5741e-06
2.57408e-06
2.57407e-06
2.57405e-06
2.57404e-06
2.57402e-06
2.57401e-06
2.574e-06
2.57399e-06
2.57399e-06
2.57398e-06
2.57398e-06
2.57397e-06
2.57397e-06
2.57397e-06
2.57396e-06
2.57396e-06
2.57396e-06
2.57396e-06
2.57396e-06
2.57396e-06
2.57397e-06
2.57397e-06
2.57397e-06
2.57398e-06
2.57398e-06
2.57399e-06
2.57399e-06
2.574e-06
2.57401e-06
2.57402e-06
2.57404e-06
2.57405e-06
2.57407e-06
2.57408e-06
2.5741e-06
2.57412e-06
2.57415e-06
2.57417e-06
2.5742e-06
2.57423e-06
2.57427e-06
2.5743e-06
2.57434e-06
2.57438e-06
2.57443e-06
2.57447e-06
2.57452e-06
2.63011e-06
2.63006e-06
2.63001e-06
2.62997e-06
2.62993e-06
2.62989e-06
2.62985e-06
2.62982e-06
2.62979e-06
2.62976e-06
2.62973e-06
2.62971e-06
2.62969e-06
2.62967e-06
2.62965e-06
2.62963e-06
2.62962e-06
2.62961e-06
2.62959e-06
2.62958e-06
2.62958e-06
2.62957e-06
2.62956e-06
2.62956e-06
2.62955e-06
2.62955e-06
2.62955e-06
2.62955e-06
2.62954e-06
2.62954e-06
2.62954e-06
2.62954e-06
2.62955e-06
2.62955e-06
2.62955e-06
2.62955e-06
2.62956e-06
2.62956e-06
2.62957e-06
2.62958e-06
2.62958e-06
2.62959e-06
2.62961e-06
2.62962e-06
2.62963e-06
2.62965e-06
2.62967e-06
2.62969e-06
2.62971e-06
2.62973e-06
2.62976e-06
2.62979e-06
2.62982e-06
2.62985e-06
2.62989e-06
2.62993e-06
2.62997e-06
2.63001e-06
2.63006e-06
2.63011e-06
2.68868e-06
2.68863e-06
2.68858e-06
2.68854e-06
2.6885e-06
2.68846e-06
2.68842e-06
2.68839e-06
2.68836e-06
2.68833e-06
2.6883e-06
2.68828e-06
2.68826e-06
2.68823e-06
2.68822e-06
2.6882e-06
2.68819e-06
2.68817e-06
2.68816e-06
2.68815e-06
2.68814e-06
2.68814e-06
2.68813e-06
2.68813e-06
2.68812e-06
2.68812e-06
2.68812e-06
2.68811e-06
2.68811e-06
2.68811e-06
2.68811e-06
2.68811e-06
2.68811e-06
2.68812e-06
2.68812e-06
2.68812e-06
2.68813e-06
2.68813e-06
2.68814e-06
2.68814e-06
2.68815e-06
2.68816e-06
2.68817e-06
2.68819e-06
2.6882e-06
2.68822e-06
2.68823e-06
2.68826e-06
2.68828e-06
2.6883e-06
2.68833e-06
2.68836e-06
2.68839e-06
2.68842e-06
2.68846e-06
2.6885e-06
2.68854e-06
2.68858e-06
2.68863e-06
2.68868e-06
2.75043e-06
2.75038e-06
2.75034e-06
2.75029e-06
2.75025e-06
2.75021e-06
2.75017e-06
2.75014e-06
2.75011e-06
2.75008e-06
2.75005e-06
2.75003e-06
2.75001e-06
2.74998e-06
2.74997e-06
2.74995e-06
2.74994e-06
2.74992e-06
2.74991e-06
2.7499e-06
2.74989e-06
2.74989e-06
2.74988e-06
2.74988e-06
2.74987e-06
2.74987e-06
2.74986e-06
2.74986e-06
2.74986e-06
2.74986e-06
2.74986e-06
2.74986e-06
2.74986e-06
2.74986e-06
2.74987e-06
2.74987e-06
2.74988e-06
2.74988e-06
2.74989e-06
2.74989e-06
2.7499e-06
2.74991e-06
2.74992e-06
2.74994e-06
2.74995e-06
2.74997e-06
2.74998e-06
2.75001e-06
2.75003e-06
2.75005e-06
2.75008e-06
2.75011e-06
2.75014e-06
2.75017e-06
2.75021e-06
2.75025e-06
2.75029e-06
2.75034e-06
2.75038e-06
2.75043e-06
2.81558e-06
2.81553e-06
2.81548e-06
2.81543e-06
2.81539e-06
2.81535e-06
2.81532e-06
2.81528e-06
2.81525e-06
2.81522e-06
2.81519e-06
2.81517e-06
2.81515e-06
2.81513e-06
2.81511e-06
2.81509e-06
2.81508e-06
2.81506e-06
2.81505e-06
2.81504e-06
2.81503e-06
2.81503e-06
2.81502e-06
2.81501e-06
2.81501e-06
2.81501e-06
2.815e-06
2.815e-06
2.815e-06
2.815e-06
2.815e-06
2.815e-06
2.815e-06
2.815e-06
2.81501e-06
2.81501e-06
2.81501e-06
2.81502e-06
2.81503e-06
2.81503e-06
2.81504e-06
2.81505e-06
2.81506e-06
2.81508e-06
2.81509e-06
2.81511e-06
2.81513e-06
2.81515e-06
2.81517e-06
2.81519e-06
2.81522e-06
2.81525e-06
2.81528e-06
2.81532e-06
2.81535e-06
2.81539e-06
2.81543e-06
2.81548e-06
2.81553e-06
2.81558e-06
2.88434e-06
2.88429e-06
2.88424e-06
2.88419e-06
2.88415e-06
2.88411e-06
2.88407e-06
2.88404e-06
2.88401e-06
2.88398e-06
2.88395e-06
2.88393e-06
2.8839e-06
2.88388e-06
2.88386e-06
2.88385e-06
2.88383e-06
2.88382e-06
2.88381e-06
2.8838e-06
2.88379e-06
2.88378e-06
2.88378e-06
2.88377e-06
2.88377e-06
2.88376e-06
2.88376e-06
2.88376e-06
2.88376e-06
2.88376e-06
2.88376e-06
2.88376e-06
2.88376e-06
2.88376e-06
2.88376e-06
2.88377e-06
2.88377e-06
2.88378e-06
2.88378e-06
2.88379e-06
2.8838e-06
2.88381e-06
2.88382e-06
2.88383e-06
2.88385e-06
2.88386e-06
2.88388e-06
2.8839e-06
2.88393e-06
2.88395e-06
2.88398e-06
2.88401e-06
2.88404e-06
2.88407e-06
2.88411e-06
2.88415e-06
2.88419e-06
2.88424e-06
2.88429e-06
2.88434e-06
2.95696e-06
2.95691e-06
2.95686e-06
2.95682e-06
2.95677e-06
2.95673e-06
2.9567e-06
2.95666e-06
2.95663e-06
2.9566e-06
2.95657e-06
2.95655e-06
2.95652e-06
2.9565e-06
2.95648e-06
2.95647e-06
2.95645e-06
2.95644e-06
2.95643e-06
2.95642e-06
2.95641e-06
2.9564e-06
2.95639e-06
2.95639e-06
2.95639e-06
2.95638e-06
2.95638e-06
2.95638e-06
2.95638e-06
2.95637e-06
2.95637e-06
2.95638e-06
2.95638e-06
2.95638e-06
2.95638e-06
2.95639e-06
2.95639e-06
2.95639e-06
2.9564e-06
2.95641e-06
2.95642e-06
2.95643e-06
2.95644e-06
2.95645e-06
2.95647e-06
2.95648e-06
2.9565e-06
2.95652e-06
2.95655e-06
2.95657e-06
2.9566e-06
2.95663e-06
2.95666e-06
2.9567e-06
2.95673e-06
2.95677e-06
2.95682e-06
2.95686e-06
2.95691e-06
2.95696e-06
3.03371e-06
3.03366e-06
3.03361e-06
3.03356e-06
3.03352e-06
3.03348e-06
3.03344e-06
3.03341e-06
3.03338e-06
3.03335e-06
3.03332e-06
3.03329e-06
3.03327e-06
3.03325e-06
3.03323e-06
3.03321e-06
3.0332e-06
3.03319e-06
3.03317e-06
3.03316e-06
3.03316e-06
3.03315e-06
3.03314e-06
3.03314e-06
3.03313e-06
3.03313e-06
3.03313e-06
3.03312e-06
3.03312e-06
3.03312e-06
3.03312e-06
3.03312e-06
3.03312e-06
3.03313e-06
3.03313e-06
3.03313e-06
3.03314e-06
3.03314e-06
3.03315e-06
3.03316e-06
3.03316e-06
3.03317e-06
3.03319e-06
3.0332e-06
3.03321e-06
3.03323e-06
3.03325e-06
3.03327e-06
3.03329e-06
3.03332e-06
3.03335e-06
3.03338e-06
3.03341e-06
3.03344e-06
3.03348e-06
3.03352e-06
3.03356e-06
3.03361e-06
3.03366e-06
3.03371e-06
3.11487e-06
3.11482e-06
3.11477e-06
3.11473e-06
3.11469e-06
3.11465e-06
3.11461e-06
3.11457e-06
3.11454e-06
3.11451e-06
3.11448e-06
3.11446e-06
3.11443e-06
3.11441e-06
3.11439e-06
3.11438e-06
3.11436e-06
3.11435e-06
3.11434e-06
3.11433e-06
3.11432e-06
3.11431e-06
3.1143e-06
3.1143e-06
3.11429e-06
3.11429e-06
3.11429e-06
3.11428e-06
3.11428e-06
3.11428e-06
3.11428e-06
3.11428e-06
3.11428e-06
3.11429e-06
3.11429e-06
3.11429e-06
3.1143e-06
3.1143e-06
3.11431e-06
3.11432e-06
3.11433e-06
3.11434e-06
3.11435e-06
3.11436e-06
3.11438e-06
3.11439e-06
3.11441e-06
3.11443e-06
3.11446e-06
3.11448e-06
3.11451e-06
3.11454e-06
3.11457e-06
3.11461e-06
3.11465e-06
3.11469e-06
3.11473e-06
3.11477e-06
3.11482e-06
3.11487e-06
3.20077e-06
3.20072e-06
3.20067e-06
3.20062e-06
3.20058e-06
3.20054e-06
3.2005e-06
3.20047e-06
3.20043e-06
3.2004e-06
3.20037e-06
3.20035e-06
3.20033e-06
3.2003e-06
3.20029e-06
3.20027e-06
3.20025e-06
3.20024e-06
3.20023e-06
3.20022e-06
3.20021e-06
3.2002e-06
3.20019e-06
3.20019e-06
3.20018e-06
3.20018e-06
3.20018e-06
3.20018e-06
3.20017e-06
3.20017e-06
3.20017e-06
3.20017e-06
3.20018e-06
3.20018e-06
3.20018e-06
3.20018e-06
3.20019e-06
3.20019e-06
3.2002e-06
3.20021e-06
3.20022e-06
3.20023e-06
3.20024e-06
3.20025e-06
3.20027e-06
3.20029e-06
3.2003e-06
3.20033e-06
3.20035e-06
3.20037e-06
3.2004e-06
3.20043e-06
3.20047e-06
3.2005e-06
3.20054e-06
3.20058e-06
3.20062e-06
3.20067e-06
3.20072e-06
3.20077e-06
3.29173e-06
3.29168e-06
3.29163e-06
3.29158e-06
3.29154e-06
3.2915e-06
3.29146e-06
3.29143e-06
3.29139e-06
3.29136e-06
3.29133e-06
3.29131e-06
3.29128e-06
3.29126e-06
3.29124e-06
3.29123e-06
3.29121e-06
3.2912e-06
3.29119e-06
3.29118e-06
3.29117e-06
3.29116e-06
3.29115e-06
3.29115e-06
3.29114e-06
3.29114e-06
3.29114e-06
3.29113e-06
3.29113e-06
3.29113e-06
3.29113e-06
3.29113e-06
3.29113e-06
3.29114e-06
3.29114e-06
3.29114e-06
3.29115e-06
3.29115e-06
3.29116e-06
3.29117e-06
3.29118e-06
3.29119e-06
3.2912e-06
3.29121e-06
3.29123e-06
3.29124e-06
3.29126e-06
3.29128e-06
3.29131e-06
3.29133e-06
3.29136e-06
3.29139e-06
3.29143e-06
3.29146e-06
3.2915e-06
3.29154e-06
3.29158e-06
3.29163e-06
3.29168e-06
3.29173e-06
3.38812e-06
3.38807e-06
3.38802e-06
3.38798e-06
3.38794e-06
3.3879e-06
3.38786e-06
3.38782e-06
3.38779e-06
3.38776e-06
3.38773e-06
3.3877e-06
3.38768e-06
3.38766e-06
3.38764e-06
3.38762e-06
3.38761e-06
3.38759e-06
3.38758e-06
3.38757e-06
3.38756e-06
3.38755e-06
3.38755e-06
3.38754e-06
3.38754e-06
3.38753e-06
3.38753e-06
3.38753e-06
3.38753e-06
3.38753e-06
3.38753e-06
3.38753e-06
3.38753e-06
3.38753e-06
3.38753e-06
3.38754e-06
3.38754e-06
3.38755e-06
3.38755e-06
3.38756e-06
3.38757e-06
3.38758e-06
3.38759e-06
3.38761e-06
3.38762e-06
3.38764e-06
3.38766e-06
3.38768e-06
3.3877e-06
3.38773e-06
3.38776e-06
3.38779e-06
3.38782e-06
3.38786e-06
3.3879e-06
3.38794e-06
3.38798e-06
3.38802e-06
3.38807e-06
3.38812e-06
3.49036e-06
3.49031e-06
3.49026e-06
3.49022e-06
3.49017e-06
3.49013e-06
3.49009e-06
3.49006e-06
3.49003e-06
3.48999e-06
3.48997e-06
3.48994e-06
3.48992e-06
3.4899e-06
3.48988e-06
3.48986e-06
3.48984e-06
3.48983e-06
3.48982e-06
3.48981e-06
3.4898e-06
3.48979e-06
3.48978e-06
3.48978e-06
3.48977e-06
3.48977e-06
3.48977e-06
3.48976e-06
3.48976e-06
3.48976e-06
3.48976e-06
3.48976e-06
3.48976e-06
3.48977e-06
3.48977e-06
3.48977e-06
3.48978e-06
3.48978e-06
3.48979e-06
3.4898e-06
3.48981e-06
3.48982e-06
3.48983e-06
3.48984e-06
3.48986e-06
3.48988e-06
3.4899e-06
3.48992e-06
3.48994e-06
3.48997e-06
3.48999e-06
3.49003e-06
3.49006e-06
3.49009e-06
3.49013e-06
3.49017e-06
3.49022e-06
3.49026e-06
3.49031e-06
3.49036e-06
3.59887e-06
3.59882e-06
3.59878e-06
3.59873e-06
3.59869e-06
3.59865e-06
3.59861e-06
3.59857e-06
3.59854e-06
3.59851e-06
3.59848e-06
3.59845e-06
3.59843e-06
3.59841e-06
3.59839e-06
3.59837e-06
3.59836e-06
3.59834e-06
3.59833e-06
3.59832e-06
3.59831e-06
3.5983e-06
3.5983e-06
3.59829e-06
3.59829e-06
3.59828e-06
3.59828e-06
3.59828e-06
3.59827e-06
3.59827e-06
3.59827e-06
3.59827e-06
3.59828e-06
3.59828e-06
3.59828e-06
3.59829e-06
3.59829e-06
3.5983e-06
3.5983e-06
3.59831e-06
3.59832e-06
3.59833e-06
3.59834e-06
3.59836e-06
3.59837e-06
3.59839e-06
3.59841e-06
3.59843e-06
3.59845e-06
3.59848e-06
3.59851e-06
3.59854e-06
3.59857e-06
3.59861e-06
3.59865e-06
3.59869e-06
3.59873e-06
3.59878e-06
3.59882e-06
3.59887e-06
3.71415e-06
3.7141e-06
3.71405e-06
3.714e-06
3.71396e-06
3.71392e-06
3.71388e-06
3.71384e-06
3.71381e-06
3.71378e-06
3.71375e-06
3.71373e-06
3.7137e-06
3.71368e-06
3.71366e-06
3.71364e-06
3.71363e-06
3.71361e-06
3.7136e-06
3.71359e-06
3.71358e-06
3.71357e-06
3.71357e-06
3.71356e-06
3.71356e-06
3.71355e-06
3.71355e-06
3.71355e-06
3.71355e-06
3.71354e-06
3.71354e-06
3.71355e-06
3.71355e-06
3.71355e-06
3.71355e-06
3.71356e-06
3.71356e-06
3.71357e-06
3.71357e-06
3.71358e-06
3.71359e-06
3.7136e-06
3.71361e-06
3.71363e-06
3.71364e-06
3.71366e-06
3.71368e-06
3.7137e-06
3.71373e-06
3.71375e-06
3.71378e-06
3.71381e-06
3.71384e-06
3.71388e-06
3.71392e-06
3.71396e-06
3.714e-06
3.71405e-06
3.7141e-06
3.71415e-06
3.8367e-06
3.83665e-06
3.8366e-06
3.83655e-06
3.83651e-06
3.83647e-06
3.83643e-06
3.8364e-06
3.83636e-06
3.83633e-06
3.8363e-06
3.83628e-06
3.83625e-06
3.83623e-06
3.83621e-06
3.8362e-06
3.83618e-06
3.83617e-06
3.83615e-06
3.83614e-06
3.83613e-06
3.83612e-06
3.83612e-06
3.83611e-06
3.83611e-06
3.8361e-06
3.8361e-06
3.8361e-06
3.8361e-06
3.8361e-06
3.8361e-06
3.8361e-06
3.8361e-06
3.8361e-06
3.8361e-06
3.83611e-06
3.83611e-06
3.83612e-06
3.83612e-06
3.83613e-06
3.83614e-06
3.83615e-06
3.83617e-06
3.83618e-06
3.8362e-06
3.83621e-06
3.83623e-06
3.83625e-06
3.83628e-06
3.8363e-06
3.83633e-06
3.83636e-06
3.8364e-06
3.83643e-06
3.83647e-06
3.83651e-06
3.83655e-06
3.8366e-06
3.83665e-06
3.8367e-06
3.9671e-06
3.96705e-06
3.96701e-06
3.96696e-06
3.96692e-06
3.96688e-06
3.96684e-06
3.9668e-06
3.96677e-06
3.96674e-06
3.96671e-06
3.96668e-06
3.96666e-06
3.96664e-06
3.96662e-06
3.9666e-06
3.96659e-06
3.96657e-06
3.96656e-06
3.96655e-06
3.96654e-06
3.96653e-06
3.96652e-06
3.96652e-06
3.96651e-06
3.96651e-06
3.9665e-06
3.9665e-06
3.9665e-06
3.9665e-06
3.9665e-06
3.9665e-06
3.9665e-06
3.9665e-06
3.96651e-06
3.96651e-06
3.96652e-06
3.96652e-06
3.96653e-06
3.96654e-06
3.96655e-06
3.96656e-06
3.96657e-06
3.96659e-06
3.9666e-06
3.96662e-06
3.96664e-06
3.96666e-06
3.96668e-06
3.96671e-06
3.96674e-06
3.96677e-06
3.9668e-06
3.96684e-06
3.96688e-06
3.96692e-06
3.96696e-06
3.96701e-06
3.96705e-06
3.9671e-06
4.10599e-06
4.10594e-06
4.10589e-06
4.10585e-06
4.1058e-06
4.10576e-06
4.10573e-06
4.10569e-06
4.10566e-06
4.10563e-06
4.1056e-06
4.10557e-06
4.10555e-06
4.10553e-06
4.10551e-06
4.10549e-06
4.10547e-06
4.10546e-06
4.10545e-06
4.10543e-06
4.10542e-06
4.10542e-06
4.10541e-06
4.1054e-06
4.1054e-06
4.10539e-06
4.10539e-06
4.10539e-06
4.10539e-06
4.10539e-06
4.10539e-06
4.10539e-06
4.10539e-06
4.10539e-06
4.10539e-06
4.1054e-06
4.1054e-06
4.10541e-06
4.10542e-06
4.10542e-06
4.10543e-06
4.10545e-06
4.10546e-06
4.10547e-06
4.10549e-06
4.10551e-06
4.10553e-06
4.10555e-06
4.10557e-06
4.1056e-06
4.10563e-06
4.10566e-06
4.10569e-06
4.10573e-06
4.10576e-06
4.1058e-06
4.10585e-06
4.10589e-06
4.10594e-06
4.10599e-06
4.25405e-06
4.254e-06
4.25395e-06
4.2539e-06
4.25386e-06
4.25382e-06
4.25378e-06
4.25375e-06
4.25372e-06
4.25368e-06
4.25366e-06
4.25363e-06
4.25361e-06
4.25358e-06
4.25356e-06
4.25355e-06
4.25353e-06
4.25352e-06
4.2535e-06
4.25349e-06
4.25348e-06
4.25347e-06
4.25347e-06
4.25346e-06
4.25346e-06
4.25345e-06
4.25345e-06
4.25345e-06
4.25344e-06
4.25344e-06
4.25344e-06
4.25344e-06
4.25345e-06
4.25345e-06
4.25345e-06
4.25346e-06
4.25346e-06
4.25347e-06
4.25347e-06
4.25348e-06
4.25349e-06
4.2535e-06
4.25352e-06
4.25353e-06
4.25355e-06
4.25356e-06
4.25358e-06
4.25361e-06
4.25363e-06
4.25366e-06
4.25368e-06
4.25372e-06
4.25375e-06
4.25378e-06
4.25382e-06
4.25386e-06
4.2539e-06
4.25395e-06
4.254e-06
4.25405e-06
4.41203e-06
4.41198e-06
4.41193e-06
4.41189e-06
4.41185e-06
4.41181e-06
4.41177e-06
4.41173e-06
4.4117e-06
4.41167e-06
4.41164e-06
4.41162e-06
4.41159e-06
4.41157e-06
4.41155e-06
4.41153e-06
4.41152e-06
4.4115e-06
4.41149e-06
4.41148e-06
4.41147e-06
4.41146e-06
4.41145e-06
4.41145e-06
4.41144e-06
4.41144e-06
4.41143e-06
4.41143e-06
4.41143e-06
4.41143e-06
4.41143e-06
4.41143e-06
4.41143e-06
4.41143e-06
4.41144e-06
4.41144e-06
4.41145e-06
4.41145e-06
4.41146e-06
4.41147e-06
4.41148e-06
4.41149e-06
4.4115e-06
4.41152e-06
4.41153e-06
4.41155e-06
4.41157e-06
4.41159e-06
4.41162e-06
4.41164e-06
4.41167e-06
4.4117e-06
4.41173e-06
4.41177e-06
4.41181e-06
4.41185e-06
4.41189e-06
4.41193e-06
4.41198e-06
4.41203e-06
4.58078e-06
4.58073e-06
4.58068e-06
4.58064e-06
4.58059e-06
4.58055e-06
4.58052e-06
4.58048e-06
4.58045e-06
4.58042e-06
4.58039e-06
4.58036e-06
4.58034e-06
4.58032e-06
4.5803e-06
4.58028e-06
4.58026e-06
4.58025e-06
4.58024e-06
4.58022e-06
4.58021e-06
4.58021e-06
4.5802e-06
4.58019e-06
4.58019e-06
4.58018e-06
4.58018e-06
4.58018e-06
4.58018e-06
4.58018e-06
4.58018e-06
4.58018e-06
4.58018e-06
4.58018e-06
4.58018e-06
4.58019e-06
4.58019e-06
4.5802e-06
4.58021e-06
4.58021e-06
4.58022e-06
4.58024e-06
4.58025e-06
4.58026e-06
4.58028e-06
4.5803e-06
4.58032e-06
4.58034e-06
4.58036e-06
4.58039e-06
4.58042e-06
4.58045e-06
4.58048e-06
4.58052e-06
4.58055e-06
4.58059e-06
4.58064e-06
4.58068e-06
4.58073e-06
4.58078e-06
4.7612e-06
4.76115e-06
4.7611e-06
4.76106e-06
4.76102e-06
4.76098e-06
4.76094e-06
4.76091e-06
4.76087e-06
4.76084e-06
4.76081e-06
4.76079e-06
4.76076e-06
4.76074e-06
4.76072e-06
4.7607e-06
4.76069e-06
4.76067e-06
4.76066e-06
4.76065e-06
4.76064e-06
4.76063e-06
4.76062e-06
4.76062e-06
4.76061e-06
4.76061e-06
4.76061e-06
4.7606e-06
4.7606e-06
4.7606e-06
4.7606e-06
4.7606e-06
4.7606e-06
4.76061e-06
4.76061e-06
4.76061e-06
4.76062e-06
4.76062e-06
4.76063e-06
4.76064e-06
4.76065e-06
4.76066e-06
4.76067e-06
4.76069e-06
4.7607e-06
4.76072e-06
4.76074e-06
4.76076e-06
4.76079e-06
4.76081e-06
4.76084e-06
4.76087e-06
4.76091e-06
4.76094e-06
4.76098e-06
4.76102e-06
4.76106e-06
4.7611e-06
4.76115e-06
4.7612e-06
4.95431e-06
4.95427e-06
4.95422e-06
4.95418e-06
4.95413e-06
4.9541e-06
4.95406e-06
4.95402e-06
4.95399e-06
4.95396e-06
4.95393e-06
4.95391e-06
4.95388e-06
4.95386e-06
4.95384e-06
4.95382e-06
4.95381e-06
4.95379e-06
4.95378e-06
4.95377e-06
4.95376e-06
4.95375e-06
4.95374e-06
4.95373e-06
4.95373e-06
4.95373e-06
4.95372e-06
4.95372e-06
4.95372e-06
4.95372e-06
4.95372e-06
4.95372e-06
4.95372e-06
4.95372e-06
4.95373e-06
4.95373e-06
4.95373e-06
4.95374e-06
4.95375e-06
4.95376e-06
4.95377e-06
4.95378e-06
4.95379e-06
4.95381e-06
4.95382e-06
4.95384e-06
4.95386e-06
4.95388e-06
4.95391e-06
4.95393e-06
4.95396e-06
4.95399e-06
4.95402e-06
4.95406e-06
4.9541e-06
4.95413e-06
4.95418e-06
4.95422e-06
4.95427e-06
4.95431e-06
5.16124e-06
5.16119e-06
5.16115e-06
5.1611e-06
5.16106e-06
5.16102e-06
5.16099e-06
5.16095e-06
5.16092e-06
5.16089e-06
5.16086e-06
5.16083e-06
5.16081e-06
5.16079e-06
5.16077e-06
5.16075e-06
5.16073e-06
5.16072e-06
5.16071e-06
5.1607e-06
5.16069e-06
5.16068e-06
5.16067e-06
5.16066e-06
5.16066e-06
5.16065e-06
5.16065e-06
5.16065e-06
5.16065e-06
5.16065e-06
5.16065e-06
5.16065e-06
5.16065e-06
5.16065e-06
5.16065e-06
5.16066e-06
5.16066e-06
5.16067e-06
5.16068e-06
5.16069e-06
5.1607e-06
5.16071e-06
5.16072e-06
5.16073e-06
5.16075e-06
5.16077e-06
5.16079e-06
5.16081e-06
5.16083e-06
5.16086e-06
5.16089e-06
5.16092e-06
5.16095e-06
5.16099e-06
5.16102e-06
5.16106e-06
5.1611e-06
5.16115e-06
5.16119e-06
5.16124e-06
5.38321e-06
5.38317e-06
5.38312e-06
5.38308e-06
5.38304e-06
5.383e-06
5.38296e-06
5.38293e-06
5.3829e-06
5.38287e-06
5.38284e-06
5.38281e-06
5.38279e-06
5.38277e-06
5.38275e-06
5.38273e-06
5.38271e-06
5.3827e-06
5.38268e-06
5.38267e-06
5.38266e-06
5.38265e-06
5.38265e-06
5.38264e-06
5.38264e-06
5.38263e-06
5.38263e-06
5.38263e-06
5.38262e-06
5.38262e-06
5.38262e-06
5.38262e-06
5.38263e-06
5.38263e-06
5.38263e-06
5.38264e-06
5.38264e-06
5.38265e-06
5.38265e-06
5.38266e-06
5.38267e-06
5.38268e-06
5.3827e-06
5.38271e-06
5.38273e-06
5.38275e-06
5.38277e-06
5.38279e-06
5.38281e-06
5.38284e-06
5.38287e-06
5.3829e-06
5.38293e-06
5.38296e-06
5.383e-06
5.38304e-06
5.38308e-06
5.38312e-06
5.38317e-06
5.38321e-06
5.62161e-06
5.62156e-06
5.62152e-06
5.62148e-06
5.62144e-06
5.6214e-06
5.62136e-06
5.62133e-06
5.6213e-06
5.62127e-06
5.62124e-06
5.62121e-06
5.62119e-06
5.62117e-06
5.62115e-06
5.62113e-06
5.62111e-06
5.6211e-06
5.62108e-06
5.62107e-06
5.62106e-06
5.62105e-06
5.62105e-06
5.62104e-06
5.62104e-06
5.62103e-06
5.62103e-06
5.62103e-06
5.62102e-06
5.62102e-06
5.62102e-06
5.62102e-06
5.62103e-06
5.62103e-06
5.62103e-06
5.62104e-06
5.62104e-06
5.62105e-06
5.62105e-06
5.62106e-06
5.62107e-06
5.62108e-06
5.6211e-06
5.62111e-06
5.62113e-06
5.62115e-06
5.62117e-06
5.62119e-06
5.62121e-06
5.62124e-06
5.62127e-06
5.6213e-06