/*--------------------------------*- C++ -*----------------------------------*\
| =========                 |                                                 |
| \\      /  F ield         | foam-extend: Open Source CFD                    |
|  \\    /   O peration     | Version:     4.0                                |
|   \\  /    A nd           | Web:         http://www.foam-extend.org         |
|    \\/     M anipulation  |                                                 |
\*---------------------------------------------------------------------------*/
FoamFile
{
    version     2.0;
    format      ascii;
    class       volScalarField;
    location    "200";
    object      cPlus;
}
// * * * * * * * * * * * * * * * * * * * * * * * * * * * * * * * * * * * * * //

dimensions      [0 0 0 0 0 0 0];

internalField   nonuniform List<scalar> 
6960
(
0.438245
0.438276
0.438286
0.438292
0.438296
0.4383
0.438302
0.438305
0.438307
0.438309
0.43831
0.438312
0.438313
0.438315
0.438316
0.438317
0.438319
0.43832
0.438321
0.438321
0.438322
0.438323
0.438324
0.438324
0.438325
0.438325
0.438325
0.438326
0.438326
0.438326
0.438326
0.438326
0.438326
0.438325
0.438325
0.438325
0.438324
0.438324
0.438323
0.438322
0.438321
0.438321
0.43832
0.438319
0.438317
0.438316
0.438315
0.438313
0.438312
0.43831
0.438309
0.438307
0.438305
0.438302
0.4383
0.438296
0.438292
0.438286
0.438276
0.438245
0.255139
0.25519
0.255203
0.25521
0.255214
0.255218
0.25522
0.255223
0.255225
0.255227
0.255229
0.25523
0.255232
0.255233
0.255235
0.255236
0.255237
0.255238
0.255239
0.25524
0.255241
0.255241
0.255242
0.255243
0.255243
0.255244
0.255244
0.255244
0.255244
0.255244
0.255244
0.255244
0.255244
0.255244
0.255244
0.255243
0.255243
0.255242
0.255241
0.255241
0.25524
0.255239
0.255238
0.255237
0.255236
0.255235
0.255233
0.255232
0.25523
0.255229
0.255227
0.255225
0.255223
0.25522
0.255218
0.255214
0.25521
0.255203
0.25519
0.255139
0.212209
0.212278
0.212294
0.212301
0.212305
0.212309
0.212312
0.212314
0.212316
0.212318
0.21232
0.212321
0.212323
0.212324
0.212325
0.212327
0.212328
0.212329
0.21233
0.212331
0.212331
0.212332
0.212333
0.212333
0.212334
0.212334
0.212334
0.212335
0.212335
0.212335
0.212335
0.212335
0.212335
0.212334
0.212334
0.212334
0.212333
0.212333
0.212332
0.212331
0.212331
0.21233
0.212329
0.212328
0.212327
0.212325
0.212324
0.212323
0.212321
0.21232
0.212318
0.212316
0.212314
0.212312
0.212309
0.212305
0.212301
0.212294
0.212278
0.212209
0.211766
0.211852
0.211871
0.211878
0.211883
0.211887
0.211889
0.211892
0.211894
0.211896
0.211898
0.211899
0.211901
0.211902
0.211903
0.211905
0.211906
0.211907
0.211908
0.211909
0.211909
0.21191
0.211911
0.211911
0.211912
0.211912
0.211913
0.211913
0.211913
0.211913
0.211913
0.211913
0.211913
0.211913
0.211912
0.211912
0.211911
0.211911
0.21191
0.211909
0.211909
0.211908
0.211907
0.211906
0.211905
0.211903
0.211902
0.211901
0.211899
0.211898
0.211896
0.211894
0.211892
0.211889
0.211887
0.211883
0.211878
0.211871
0.211852
0.211766
0.229239
0.229344
0.229366
0.229374
0.229379
0.229383
0.229386
0.229388
0.22939
0.229392
0.229394
0.229396
0.229397
0.229399
0.2294
0.229401
0.229402
0.229403
0.229404
0.229405
0.229406
0.229407
0.229408
0.229408
0.229409
0.229409
0.229409
0.22941
0.22941
0.22941
0.22941
0.22941
0.22941
0.229409
0.229409
0.229409
0.229408
0.229408
0.229407
0.229406
0.229405
0.229404
0.229403
0.229402
0.229401
0.2294
0.229399
0.229397
0.229396
0.229394
0.229392
0.22939
0.229388
0.229386
0.229383
0.229379
0.229374
0.229366
0.229344
0.229239
0.255745
0.255868
0.255894
0.255902
0.255908
0.255911
0.255914
0.255917
0.255919
0.255921
0.255923
0.255925
0.255926
0.255928
0.255929
0.25593
0.255931
0.255933
0.255934
0.255935
0.255935
0.255936
0.255937
0.255937
0.255938
0.255938
0.255939
0.255939
0.255939
0.255939
0.255939
0.255939
0.255939
0.255939
0.255938
0.255938
0.255937
0.255937
0.255936
0.255935
0.255935
0.255934
0.255933
0.255931
0.25593
0.255929
0.255928
0.255926
0.255925
0.255923
0.255921
0.255919
0.255917
0.255914
0.255911
0.255908
0.255902
0.255894
0.255868
0.255745
0.28705
0.28719
0.287218
0.287227
0.287232
0.287236
0.287239
0.287242
0.287244
0.287246
0.287248
0.287249
0.287251
0.287252
0.287254
0.287255
0.287256
0.287257
0.287258
0.287259
0.28726
0.287261
0.287262
0.287262
0.287263
0.287263
0.287264
0.287264
0.287264
0.287264
0.287264
0.287264
0.287264
0.287264
0.287263
0.287263
0.287262
0.287262
0.287261
0.28726
0.287259
0.287258
0.287257
0.287256
0.287255
0.287254
0.287252
0.287251
0.287249
0.287248
0.287246
0.287244
0.287242
0.287239
0.287236
0.287232
0.287227
0.287218
0.28719
0.28705
0.32073
0.320886
0.320917
0.320927
0.320932
0.320936
0.320939
0.320941
0.320943
0.320945
0.320947
0.320949
0.32095
0.320951
0.320953
0.320954
0.320955
0.320956
0.320957
0.320958
0.320959
0.32096
0.320961
0.320961
0.320962
0.320962
0.320962
0.320963
0.320963
0.320963
0.320963
0.320963
0.320963
0.320962
0.320962
0.320962
0.320961
0.320961
0.32096
0.320959
0.320958
0.320957
0.320956
0.320955
0.320954
0.320953
0.320951
0.32095
0.320949
0.320947
0.320945
0.320943
0.320941
0.320939
0.320936
0.320932
0.320927
0.320917
0.320886
0.32073
0.355304
0.355474
0.355507
0.355517
0.355522
0.355526
0.355529
0.355531
0.355533
0.355535
0.355537
0.355538
0.35554
0.355541
0.355542
0.355544
0.355545
0.355546
0.355547
0.355548
0.355548
0.355549
0.35555
0.35555
0.355551
0.355551
0.355551
0.355552
0.355552
0.355552
0.355552
0.355552
0.355552
0.355551
0.355551
0.355551
0.35555
0.35555
0.355549
0.355548
0.355548
0.355547
0.355546
0.355545
0.355544
0.355542
0.355541
0.35554
0.355538
0.355537
0.355535
0.355533
0.355531
0.355529
0.355526
0.355522
0.355517
0.355507
0.355474
0.355304
0.389865
0.390047
0.390082
0.390092
0.390097
0.390101
0.390104
0.390106
0.390108
0.39011
0.390111
0.390113
0.390114
0.390115
0.390117
0.390118
0.390119
0.39012
0.390121
0.390121
0.390122
0.390123
0.390124
0.390124
0.390125
0.390125
0.390125
0.390125
0.390126
0.390126
0.390126
0.390126
0.390125
0.390125
0.390125
0.390125
0.390124
0.390124
0.390123
0.390122
0.390121
0.390121
0.39012
0.390119
0.390118
0.390117
0.390115
0.390114
0.390113
0.390111
0.39011
0.390108
0.390106
0.390104
0.390101
0.390097
0.390092
0.390082
0.390047
0.389865
0.423875
0.424069
0.424106
0.424116
0.424121
0.424124
0.424127
0.424129
0.424131
0.424132
0.424134
0.424135
0.424136
0.424138
0.424139
0.42414
0.424141
0.424142
0.424143
0.424143
0.424144
0.424145
0.424145
0.424146
0.424146
0.424147
0.424147
0.424147
0.424147
0.424147
0.424147
0.424147
0.424147
0.424147
0.424147
0.424146
0.424146
0.424145
0.424145
0.424144
0.424143
0.424143
0.424142
0.424141
0.42414
0.424139
0.424138
0.424136
0.424135
0.424134
0.424132
0.424131
0.424129
0.424127
0.424124
0.424121
0.424116
0.424106
0.424069
0.423875
0.457026
0.457229
0.457268
0.457279
0.457283
0.457286
0.457289
0.457291
0.457292
0.457294
0.457295
0.457297
0.457298
0.457299
0.4573
0.457301
0.457302
0.457303
0.457304
0.457304
0.457305
0.457306
0.457306
0.457307
0.457307
0.457307
0.457308
0.457308
0.457308
0.457308
0.457308
0.457308
0.457308
0.457308
0.457307
0.457307
0.457307
0.457306
0.457306
0.457305
0.457304
0.457304
0.457303
0.457302
0.457301
0.4573
0.457299
0.457298
0.457297
0.457295
0.457294
0.457292
0.457291
0.457289
0.457286
0.457283
0.457279
0.457268
0.457229
0.457026
0.489142
0.489354
0.489395
0.489405
0.489409
0.489412
0.489414
0.489416
0.489418
0.489419
0.48942
0.489422
0.489423
0.489424
0.489425
0.489426
0.489427
0.489427
0.489428
0.489429
0.489429
0.48943
0.48943
0.489431
0.489431
0.489432
0.489432
0.489432
0.489432
0.489432
0.489432
0.489432
0.489432
0.489432
0.489432
0.489431
0.489431
0.48943
0.48943
0.489429
0.489429
0.489428
0.489427
0.489427
0.489426
0.489425
0.489424
0.489423
0.489422
0.48942
0.489419
0.489418
0.489416
0.489414
0.489412
0.489409
0.489405
0.489395
0.489354
0.489142
0.520123
0.520343
0.520386
0.520396
0.5204
0.520403
0.520405
0.520407
0.520408
0.520409
0.52041
0.520412
0.520413
0.520414
0.520414
0.520415
0.520416
0.520417
0.520417
0.520418
0.520419
0.520419
0.52042
0.52042
0.52042
0.520421
0.520421
0.520421
0.520421
0.520421
0.520421
0.520421
0.520421
0.520421
0.520421
0.52042
0.52042
0.52042
0.520419
0.520419
0.520418
0.520417
0.520417
0.520416
0.520415
0.520414
0.520414
0.520413
0.520412
0.52041
0.520409
0.520408
0.520407
0.520405
0.520403
0.5204
0.520396
0.520386
0.520343
0.520123
0.549916
0.550142
0.550186
0.550197
0.550201
0.550204
0.550205
0.550207
0.550208
0.550209
0.550211
0.550211
0.550212
0.550213
0.550214
0.550215
0.550216
0.550216
0.550217
0.550217
0.550218
0.550218
0.550219
0.550219
0.55022
0.55022
0.55022
0.55022
0.55022
0.55022
0.55022
0.55022
0.55022
0.55022
0.55022
0.55022
0.550219
0.550219
0.550218
0.550218
0.550217
0.550217
0.550216
0.550216
0.550215
0.550214
0.550213
0.550212
0.550211
0.550211
0.550209
0.550208
0.550207
0.550205
0.550204
0.550201
0.550197
0.550186
0.550142
0.549916
0.578491
0.578723
0.578768
0.578779
0.578783
0.578785
0.578787
0.578788
0.57879
0.578791
0.578792
0.578793
0.578793
0.578794
0.578795
0.578796
0.578796
0.578797
0.578798
0.578798
0.578799
0.578799
0.578799
0.5788
0.5788
0.5788
0.5788
0.5788
0.578801
0.578801
0.578801
0.578801
0.5788
0.5788
0.5788
0.5788
0.5788
0.578799
0.578799
0.578799
0.578798
0.578798
0.578797
0.578796
0.578796
0.578795
0.578794
0.578793
0.578793
0.578792
0.578791
0.57879
0.578788
0.578787
0.578785
0.578783
0.578779
0.578768
0.578723
0.578491
0.605836
0.606072
0.606119
0.60613
0.606134
0.606136
0.606137
0.606139
0.60614
0.606141
0.606142
0.606142
0.606143
0.606144
0.606145
0.606145
0.606146
0.606146
0.606147
0.606147
0.606148
0.606148
0.606149
0.606149
0.606149
0.606149
0.60615
0.60615
0.60615
0.60615
0.60615
0.60615
0.60615
0.60615
0.606149
0.606149
0.606149
0.606149
0.606148
0.606148
0.606147
0.606147
0.606146
0.606146
0.606145
0.606145
0.606144
0.606143
0.606142
0.606142
0.606141
0.60614
0.606139
0.606137
0.606136
0.606134
0.60613
0.606119
0.606072
0.605836
0.631949
0.632188
0.632237
0.632248
0.632252
0.632254
0.632255
0.632256
0.632257
0.632258
0.632259
0.63226
0.63226
0.632261
0.632262
0.632262
0.632263
0.632263
0.632264
0.632264
0.632265
0.632265
0.632265
0.632266
0.632266
0.632266
0.632266
0.632266
0.632266
0.632266
0.632266
0.632266
0.632266
0.632266
0.632266
0.632266
0.632266
0.632265
0.632265
0.632265
0.632264
0.632264
0.632263
0.632263
0.632262
0.632262
0.632261
0.63226
0.63226
0.632259
0.632258
0.632257
0.632256
0.632255
0.632254
0.632252
0.632248
0.632237
0.632188
0.631949
0.656838
0.65708
0.65713
0.657141
0.657144
0.657146
0.657147
0.657148
0.657149
0.65715
0.657151
0.657151
0.657152
0.657153
0.657153
0.657154
0.657154
0.657155
0.657155
0.657156
0.657156
0.657156
0.657157
0.657157
0.657157
0.657157
0.657157
0.657157
0.657158
0.657158
0.657158
0.657158
0.657157
0.657157
0.657157
0.657157
0.657157
0.657157
0.657156
0.657156
0.657156
0.657155
0.657155
0.657154
0.657154
0.657153
0.657153
0.657152
0.657151
0.657151
0.65715
0.657149
0.657148
0.657147
0.657146
0.657144
0.657141
0.65713
0.65708
0.656838
0.680515
0.680758
0.680809
0.68082
0.680824
0.680825
0.680827
0.680828
0.680828
0.680829
0.68083
0.68083
0.680831
0.680832
0.680832
0.680833
0.680833
0.680833
0.680834
0.680834
0.680834
0.680835
0.680835
0.680835
0.680835
0.680836
0.680836
0.680836
0.680836
0.680836
0.680836
0.680836
0.680836
0.680836
0.680836
0.680835
0.680835
0.680835
0.680835
0.680834
0.680834
0.680834
0.680833
0.680833
0.680833
0.680832
0.680832
0.680831
0.68083
0.68083
0.680829
0.680828
0.680828
0.680827
0.680825
0.680824
0.68082
0.680809
0.680758
0.680515
0.702997
0.703241
0.703294
0.703305
0.703308
0.70331
0.703311
0.703312
0.703313
0.703313
0.703314
0.703315
0.703315
0.703316
0.703316
0.703316
0.703317
0.703317
0.703318
0.703318
0.703318
0.703318
0.703319
0.703319
0.703319
0.703319
0.703319
0.703319
0.703319
0.703319
0.703319
0.703319
0.703319
0.703319
0.703319
0.703319
0.703319
0.703319
0.703318
0.703318
0.703318
0.703318
0.703317
0.703317
0.703316
0.703316
0.703316
0.703315
0.703315
0.703314
0.703313
0.703313
0.703312
0.703311
0.70331
0.703308
0.703305
0.703294
0.703241
0.702997
0.724308
0.724552
0.724605
0.724617
0.72462
0.724621
0.724622
0.724623
0.724624
0.724624
0.724625
0.724626
0.724626
0.724626
0.724627
0.724627
0.724628
0.724628
0.724628
0.724629
0.724629
0.724629
0.724629
0.724629
0.72463
0.72463
0.72463
0.72463
0.72463
0.72463
0.72463
0.72463
0.72463
0.72463
0.72463
0.72463
0.724629
0.724629
0.724629
0.724629
0.724629
0.724628
0.724628
0.724628
0.724627
0.724627
0.724626
0.724626
0.724626
0.724625
0.724624
0.724624
0.724623
0.724622
0.724621
0.72462
0.724617
0.724605
0.724552
0.724308
0.744472
0.744714
0.744769
0.74478
0.744784
0.744785
0.744786
0.744787
0.744787
0.744788
0.744788
0.744789
0.744789
0.74479
0.74479
0.74479
0.744791
0.744791
0.744791
0.744791
0.744792
0.744792
0.744792
0.744792
0.744792
0.744792
0.744793
0.744793
0.744793
0.744793
0.744793
0.744793
0.744793
0.744793
0.744792
0.744792
0.744792
0.744792
0.744792
0.744792
0.744791
0.744791
0.744791
0.744791
0.74479
0.74479
0.74479
0.744789
0.744789
0.744788
0.744788
0.744787
0.744787
0.744786
0.744785
0.744784
0.74478
0.744769
0.744714
0.744472
0.763516
0.763757
0.763812
0.763824
0.763827
0.763829
0.76383
0.76383
0.763831
0.763831
0.763832
0.763832
0.763832
0.763833
0.763833
0.763833
0.763834
0.763834
0.763834
0.763834
0.763835
0.763835
0.763835
0.763835
0.763835
0.763835
0.763836
0.763836
0.763836
0.763836
0.763836
0.763836
0.763836
0.763836
0.763835
0.763835
0.763835
0.763835
0.763835
0.763835
0.763834
0.763834
0.763834
0.763834
0.763833
0.763833
0.763833
0.763832
0.763832
0.763832
0.763831
0.763831
0.76383
0.76383
0.763829
0.763827
0.763824
0.763812
0.763757
0.763516
0.781472
0.781711
0.781766
0.781779
0.781782
0.781783
0.781784
0.781784
0.781785
0.781785
0.781786
0.781786
0.781786
0.781787
0.781787
0.781787
0.781787
0.781788
0.781788
0.781788
0.781788
0.781789
0.781789
0.781789
0.781789
0.781789
0.781789
0.781789
0.781789
0.781789
0.781789
0.781789
0.781789
0.781789
0.781789
0.781789
0.781789
0.781789
0.781789
0.781788
0.781788
0.781788
0.781788
0.781787
0.781787
0.781787
0.781787
0.781786
0.781786
0.781786
0.781785
0.781785
0.781784
0.781784
0.781783
0.781782
0.781779
0.781766
0.781711
0.781472
0.798372
0.798607
0.798664
0.798676
0.798679
0.79868
0.798681
0.798681
0.798682
0.798682
0.798683
0.798683
0.798683
0.798684
0.798684
0.798684
0.798684
0.798685
0.798685
0.798685
0.798685
0.798685
0.798685
0.798686
0.798686
0.798686
0.798686
0.798686
0.798686
0.798686
0.798686
0.798686
0.798686
0.798686
0.798686
0.798686
0.798686
0.798685
0.798685
0.798685
0.798685
0.798685
0.798685
0.798684
0.798684
0.798684
0.798684
0.798683
0.798683
0.798683
0.798682
0.798682
0.798681
0.798681
0.79868
0.798679
0.798676
0.798664
0.798607
0.798372
0.81425
0.814481
0.814538
0.814551
0.814554
0.814555
0.814555
0.814556
0.814556
0.814557
0.814557
0.814557
0.814557
0.814558
0.814558
0.814558
0.814558
0.814559
0.814559
0.814559
0.814559
0.814559
0.814559
0.814559
0.81456
0.81456
0.81456
0.81456
0.81456
0.81456
0.81456
0.81456
0.81456
0.81456
0.81456
0.81456
0.814559
0.814559
0.814559
0.814559
0.814559
0.814559
0.814559
0.814558
0.814558
0.814558
0.814558
0.814557
0.814557
0.814557
0.814557
0.814556
0.814556
0.814555
0.814555
0.814554
0.814551
0.814538
0.814481
0.81425
0.829141
0.829368
0.829425
0.829438
0.829441
0.829442
0.829442
0.829443
0.829443
0.829444
0.829444
0.829444
0.829444
0.829445
0.829445
0.829445
0.829445
0.829445
0.829446
0.829446
0.829446
0.829446
0.829446
0.829446
0.829446
0.829446
0.829446
0.829446
0.829446
0.829446
0.829446
0.829446
0.829446
0.829446
0.829446
0.829446
0.829446
0.829446
0.829446
0.829446
0.829446
0.829446
0.829445
0.829445
0.829445
0.829445
0.829445
0.829444
0.829444
0.829444
0.829444
0.829443
0.829443
0.829442
0.829442
0.829441
0.829438
0.829425
0.829368
0.829141
0.843082
0.843304
0.843361
0.843374
0.843377
0.843378
0.843379
0.843379
0.84338
0.84338
0.84338
0.84338
0.843381
0.843381
0.843381
0.843381
0.843381
0.843382
0.843382
0.843382
0.843382
0.843382
0.843382
0.843382
0.843382
0.843382
0.843382
0.843382
0.843382
0.843383
0.843383
0.843382
0.843382
0.843382
0.843382
0.843382
0.843382
0.843382
0.843382
0.843382
0.843382
0.843382
0.843382
0.843381
0.843381
0.843381
0.843381
0.843381
0.84338
0.84338
0.84338
0.84338
0.843379
0.843379
0.843378
0.843377
0.843374
0.843361
0.843304
0.843082
0.856111
0.856327
0.856385
0.856398
0.856401
0.856402
0.856402
0.856403
0.856403
0.856403
0.856403
0.856404
0.856404
0.856404
0.856404
0.856404
0.856405
0.856405
0.856405
0.856405
0.856405
0.856405
0.856405
0.856405
0.856405
0.856405
0.856405
0.856405
0.856406
0.856406
0.856406
0.856406
0.856405
0.856405
0.856405
0.856405
0.856405
0.856405
0.856405
0.856405
0.856405
0.856405
0.856405
0.856405
0.856404
0.856404
0.856404
0.856404
0.856404
0.856403
0.856403
0.856403
0.856403
0.856402
0.856402
0.856401
0.856398
0.856385
0.856327
0.856111
0.868265
0.868476
0.868533
0.868546
0.868549
0.86855
0.868551
0.868551
0.868551
0.868552
0.868552
0.868552
0.868552
0.868552
0.868552
0.868553
0.868553
0.868553
0.868553
0.868553
0.868553
0.868553
0.868553
0.868553
0.868553
0.868554
0.868554
0.868554
0.868554
0.868554
0.868554
0.868554
0.868554
0.868554
0.868554
0.868553
0.868553
0.868553
0.868553
0.868553
0.868553
0.868553
0.868553
0.868553
0.868553
0.868552
0.868552
0.868552
0.868552
0.868552
0.868552
0.868551
0.868551
0.868551
0.86855
0.868549
0.868546
0.868533
0.868476
0.868265
0.879583
0.879788
0.879845
0.879858
0.879861
0.879862
0.879863
0.879863
0.879863
0.879864
0.879864
0.879864
0.879864
0.879864
0.879864
0.879864
0.879865
0.879865
0.879865
0.879865
0.879865
0.879865
0.879865
0.879865
0.879865
0.879865
0.879865
0.879865
0.879865
0.879865
0.879865
0.879865
0.879865
0.879865
0.879865
0.879865
0.879865
0.879865
0.879865
0.879865
0.879865
0.879865
0.879865
0.879865
0.879864
0.879864
0.879864
0.879864
0.879864
0.879864
0.879864
0.879863
0.879863
0.879863
0.879862
0.879861
0.879858
0.879845
0.879788
0.879583
0.890104
0.890302
0.890359
0.890372
0.890376
0.890377
0.890377
0.890377
0.890378
0.890378
0.890378
0.890378
0.890378
0.890378
0.890378
0.890378
0.890379
0.890379
0.890379
0.890379
0.890379
0.890379
0.890379
0.890379
0.890379
0.890379
0.890379
0.890379
0.890379
0.890379
0.890379
0.890379
0.890379
0.890379
0.890379
0.890379
0.890379
0.890379
0.890379
0.890379
0.890379
0.890379
0.890379
0.890379
0.890378
0.890378
0.890378
0.890378
0.890378
0.890378
0.890378
0.890378
0.890377
0.890377
0.890377
0.890376
0.890372
0.890359
0.890302
0.890104
0.899867
0.900058
0.900114
0.900128
0.900131
0.900132
0.900132
0.900132
0.900133
0.900133
0.900133
0.900133
0.900133
0.900133
0.900133
0.900133
0.900134
0.900134
0.900134
0.900134
0.900134
0.900134
0.900134
0.900134
0.900134
0.900134
0.900134
0.900134
0.900134
0.900134
0.900134
0.900134
0.900134
0.900134
0.900134
0.900134
0.900134
0.900134
0.900134
0.900134
0.900134
0.900134
0.900134
0.900134
0.900133
0.900133
0.900133
0.900133
0.900133
0.900133
0.900133
0.900133
0.900132
0.900132
0.900132
0.900131
0.900128
0.900114
0.900058
0.899867
0.908909
0.909093
0.909148
0.909162
0.909165
0.909166
0.909167
0.909167
0.909167
0.909167
0.909167
0.909167
0.909168
0.909168
0.909168
0.909168
0.909168
0.909168
0.909168
0.909168
0.909168
0.909168
0.909168
0.909168
0.909168
0.909168
0.909168
0.909168
0.909168
0.909168
0.909168
0.909168
0.909168
0.909168
0.909168
0.909168
0.909168
0.909168
0.909168
0.909168
0.909168
0.909168
0.909168
0.909168
0.909168
0.909168
0.909168
0.909168
0.909167
0.909167
0.909167
0.909167
0.909167
0.909167
0.909166
0.909165
0.909162
0.909148
0.909093
0.908909
0.917269
0.917446
0.9175
0.917514
0.917517
0.917518
0.917519
0.917519
0.917519
0.917519
0.917519
0.917519
0.917519
0.91752
0.91752
0.91752
0.91752
0.91752
0.91752
0.91752
0.91752
0.91752
0.91752
0.91752
0.91752
0.91752
0.91752
0.91752
0.91752
0.91752
0.91752
0.91752
0.91752
0.91752
0.91752
0.91752
0.91752
0.91752
0.91752
0.91752
0.91752
0.91752
0.91752
0.91752
0.91752
0.91752
0.91752
0.917519
0.917519
0.917519
0.917519
0.917519
0.917519
0.917519
0.917518
0.917517
0.917514
0.9175
0.917446
0.917269
0.924984
0.925154
0.925207
0.925221
0.925224
0.925225
0.925226
0.925226
0.925226
0.925226
0.925226
0.925226
0.925226
0.925226
0.925226
0.925226
0.925227
0.925227
0.925227
0.925227
0.925227
0.925227
0.925227
0.925227
0.925227
0.925227
0.925227
0.925227
0.925227
0.925227
0.925227
0.925227
0.925227
0.925227
0.925227
0.925227
0.925227
0.925227
0.925227
0.925227
0.925227
0.925227
0.925227
0.925227
0.925226
0.925226
0.925226
0.925226
0.925226
0.925226
0.925226
0.925226
0.925226
0.925226
0.925225
0.925224
0.925221
0.925207
0.925154
0.924984
0.932091
0.932253
0.932305
0.932319
0.932323
0.932324
0.932324
0.932324
0.932325
0.932325
0.932325
0.932325
0.932325
0.932325
0.932325
0.932325
0.932325
0.932325
0.932325
0.932325
0.932325
0.932325
0.932325
0.932325
0.932325
0.932325
0.932326
0.932326
0.932326
0.932326
0.932326
0.932326
0.932326
0.932326
0.932325
0.932325
0.932325
0.932325
0.932325
0.932325
0.932325
0.932325
0.932325
0.932325
0.932325
0.932325
0.932325
0.932325
0.932325
0.932325
0.932325
0.932325
0.932324
0.932324
0.932324
0.932323
0.932319
0.932305
0.932253
0.932091
0.938626
0.938781
0.938832
0.938846
0.93885
0.938851
0.938851
0.938851
0.938851
0.938851
0.938851
0.938851
0.938851
0.938851
0.938852
0.938852
0.938852
0.938852
0.938852
0.938852
0.938852
0.938852
0.938852
0.938852
0.938852
0.938852
0.938852
0.938852
0.938852
0.938852
0.938852
0.938852
0.938852
0.938852
0.938852
0.938852
0.938852
0.938852
0.938852
0.938852
0.938852
0.938852
0.938852
0.938852
0.938852
0.938852
0.938851
0.938851
0.938851
0.938851
0.938851
0.938851
0.938851
0.938851
0.938851
0.93885
0.938846
0.938832
0.938781
0.938626
0.944625
0.944772
0.944821
0.944835
0.944839
0.94484
0.94484
0.94484
0.944841
0.944841
0.944841
0.944841
0.944841
0.944841
0.944841
0.944841
0.944841
0.944841
0.944841
0.944841
0.944841
0.944841
0.944841
0.944841
0.944841
0.944841
0.944841
0.944841
0.944841
0.944841
0.944841
0.944841
0.944841
0.944841
0.944841
0.944841
0.944841
0.944841
0.944841
0.944841
0.944841
0.944841
0.944841
0.944841
0.944841
0.944841
0.944841
0.944841
0.944841
0.944841
0.944841
0.944841
0.94484
0.94484
0.94484
0.944839
0.944835
0.944821
0.944772
0.944625
0.95012
0.950259
0.950308
0.950322
0.950325
0.950326
0.950327
0.950327
0.950327
0.950327
0.950327
0.950327
0.950327
0.950327
0.950327
0.950327
0.950327
0.950327
0.950327
0.950327
0.950327
0.950327
0.950327
0.950328
0.950328
0.950328
0.950328
0.950328
0.950328
0.950328
0.950328
0.950328
0.950328
0.950328
0.950328
0.950328
0.950328
0.950327
0.950327
0.950327
0.950327
0.950327
0.950327
0.950327
0.950327
0.950327
0.950327
0.950327
0.950327
0.950327
0.950327
0.950327
0.950327
0.950327
0.950326
0.950325
0.950322
0.950308
0.950259
0.95012
0.955146
0.955277
0.955324
0.955338
0.955342
0.955343
0.955343
0.955343
0.955343
0.955343
0.955343
0.955343
0.955344
0.955344
0.955344
0.955344
0.955344
0.955344
0.955344
0.955344
0.955344
0.955344
0.955344
0.955344
0.955344
0.955344
0.955344
0.955344
0.955344
0.955344
0.955344
0.955344
0.955344
0.955344
0.955344
0.955344
0.955344
0.955344
0.955344
0.955344
0.955344
0.955344
0.955344
0.955344
0.955344
0.955344
0.955344
0.955344
0.955343
0.955343
0.955343
0.955343
0.955343
0.955343
0.955343
0.955342
0.955338
0.955324
0.955277
0.955146
0.959733
0.959857
0.959902
0.959916
0.95992
0.959921
0.959921
0.959921
0.959921
0.959921
0.959921
0.959922
0.959922
0.959922
0.959922
0.959922
0.959922
0.959922
0.959922
0.959922
0.959922
0.959922
0.959922
0.959922
0.959922
0.959922
0.959922
0.959922
0.959922
0.959922
0.959922
0.959922
0.959922
0.959922
0.959922
0.959922
0.959922
0.959922
0.959922
0.959922
0.959922
0.959922
0.959922
0.959922
0.959922
0.959922
0.959922
0.959922
0.959922
0.959921
0.959921
0.959921
0.959921
0.959921
0.959921
0.95992
0.959916
0.959902
0.959857
0.959733
0.963912
0.964029
0.964073
0.964086
0.96409
0.964091
0.964092
0.964092
0.964092
0.964092
0.964092
0.964092
0.964092
0.964092
0.964092
0.964092
0.964092
0.964092
0.964092
0.964092
0.964092
0.964092
0.964092
0.964092
0.964092
0.964092
0.964092
0.964092
0.964092
0.964092
0.964092
0.964092
0.964092
0.964092
0.964092
0.964092
0.964092
0.964092
0.964092
0.964092
0.964092
0.964092
0.964092
0.964092
0.964092
0.964092
0.964092
0.964092
0.964092
0.964092
0.964092
0.964092
0.964092
0.964092
0.964091
0.96409
0.964086
0.964073
0.964029
0.963912
0.967713
0.967823
0.967864
0.967878
0.967882
0.967883
0.967883
0.967883
0.967883
0.967884
0.967884
0.967884
0.967884
0.967884
0.967884
0.967884
0.967884
0.967884
0.967884
0.967884
0.967884
0.967884
0.967884
0.967884
0.967884
0.967884
0.967884
0.967884
0.967884
0.967884
0.967884
0.967884
0.967884
0.967884
0.967884
0.967884
0.967884
0.967884
0.967884
0.967884
0.967884
0.967884
0.967884
0.967884
0.967884
0.967884
0.967884
0.967884
0.967884
0.967884
0.967884
0.967883
0.967883
0.967883
0.967883
0.967882
0.967878
0.967864
0.967823
0.967713
0.971163
0.971266
0.971306
0.971319
0.971323
0.971324
0.971325
0.971325
0.971325
0.971325
0.971325
0.971325
0.971325
0.971325
0.971325
0.971325
0.971325
0.971325
0.971325
0.971325
0.971325
0.971325
0.971325
0.971325
0.971325
0.971325
0.971325
0.971325
0.971325
0.971325
0.971325
0.971325
0.971325
0.971325
0.971325
0.971325
0.971325
0.971325
0.971325
0.971325
0.971325
0.971325
0.971325
0.971325
0.971325
0.971325
0.971325
0.971325
0.971325
0.971325
0.971325
0.971325
0.971325
0.971325
0.971324
0.971323
0.971319
0.971306
0.971266
0.971163
0.974289
0.974385
0.974423
0.974436
0.97444
0.974441
0.974442
0.974442
0.974442
0.974442
0.974442
0.974442
0.974442
0.974442
0.974442
0.974442
0.974442
0.974442
0.974442
0.974442
0.974442
0.974442
0.974442
0.974442
0.974442
0.974442
0.974442
0.974442
0.974442
0.974442
0.974442
0.974442
0.974442
0.974442
0.974442
0.974442
0.974442
0.974442
0.974442
0.974442
0.974442
0.974442
0.974442
0.974442
0.974442
0.974442
0.974442
0.974442
0.974442
0.974442
0.974442
0.974442
0.974442
0.974442
0.974441
0.97444
0.974436
0.974423
0.974385
0.974289
0.977116
0.977205
0.977242
0.977255
0.977259
0.97726
0.97726
0.97726
0.97726
0.97726
0.97726
0.97726
0.97726
0.97726
0.97726
0.97726
0.97726
0.97726
0.97726
0.97726
0.97726
0.97726
0.97726
0.97726
0.97726
0.97726
0.97726
0.97726
0.97726
0.97726
0.97726
0.97726
0.97726
0.97726
0.97726
0.97726
0.97726
0.97726
0.97726
0.97726
0.97726
0.97726
0.97726
0.97726
0.97726
0.97726
0.97726
0.97726
0.97726
0.97726
0.97726
0.97726
0.97726
0.97726
0.97726
0.977259
0.977255
0.977242
0.977205
0.977116
0.979667
0.979751
0.979785
0.979798
0.979802
0.979803
0.979803
0.979803
0.979803
0.979803
0.979803
0.979804
0.979804
0.979804
0.979804
0.979804
0.979804
0.979804
0.979804
0.979804
0.979804
0.979804
0.979804
0.979804
0.979804
0.979804
0.979804
0.979804
0.979804
0.979804
0.979804
0.979804
0.979804
0.979804
0.979804
0.979804
0.979804
0.979804
0.979804
0.979804
0.979804
0.979804
0.979804
0.979804
0.979804
0.979804
0.979804
0.979804
0.979804
0.979803
0.979803
0.979803
0.979803
0.979803
0.979803
0.979802
0.979798
0.979785
0.979751
0.979667
0.981967
0.982044
0.982077
0.982089
0.982093
0.982094
0.982094
0.982094
0.982094
0.982094
0.982094
0.982094
0.982094
0.982094
0.982094
0.982094
0.982094
0.982094
0.982094
0.982094
0.982094
0.982094
0.982094
0.982094
0.982094
0.982094
0.982094
0.982094
0.982094
0.982094
0.982094
0.982094
0.982094
0.982094
0.982094
0.982094
0.982094
0.982094
0.982094
0.982094
0.982094
0.982094
0.982094
0.982094
0.982094
0.982094
0.982094
0.982094
0.982094
0.982094
0.982094
0.982094
0.982094
0.982094
0.982094
0.982093
0.982089
0.982077
0.982044
0.981967
0.984034
0.984106
0.984137
0.984148
0.984152
0.984154
0.984154
0.984154
0.984154
0.984154
0.984154
0.984154
0.984154
0.984154
0.984154
0.984154
0.984154
0.984154
0.984154
0.984154
0.984154
0.984154
0.984154
0.984154
0.984154
0.984154
0.984154
0.984154
0.984154
0.984154
0.984154
0.984154
0.984154
0.984154
0.984154
0.984154
0.984154
0.984154
0.984154
0.984154
0.984154
0.984154
0.984154
0.984154
0.984154
0.984154
0.984154
0.984154
0.984154
0.984154
0.984154
0.984154
0.984154
0.984154
0.984154
0.984152
0.984148
0.984137
0.984106
0.984034
0.98589
0.985956
0.985985
0.985997
0.986001
0.986002
0.986002
0.986002
0.986002
0.986002
0.986002
0.986002
0.986002
0.986002
0.986002
0.986002
0.986002
0.986002
0.986002
0.986002
0.986002
0.986002
0.986002
0.986002
0.986002
0.986002
0.986002
0.986002
0.986002
0.986002
0.986002
0.986002
0.986002
0.986002
0.986002
0.986002
0.986002
0.986002
0.986002
0.986002
0.986002
0.986002
0.986002
0.986002
0.986002
0.986002
0.986002
0.986002
0.986002
0.986002
0.986002
0.986002
0.986002
0.986002
0.986002
0.986001
0.985997
0.985985
0.985956
0.98589
0.987553
0.987614
0.987641
0.987652
0.987656
0.987657
0.987658
0.987658
0.987658
0.987658
0.987658
0.987658
0.987658
0.987658
0.987658
0.987658
0.987658
0.987658
0.987658
0.987658
0.987658
0.987658
0.987658
0.987658
0.987658
0.987658
0.987658
0.987658
0.987658
0.987658
0.987658
0.987658
0.987658
0.987658
0.987658
0.987658
0.987658
0.987658
0.987658
0.987658
0.987658
0.987658
0.987658
0.987658
0.987658
0.987658
0.987658
0.987658
0.987658
0.987658
0.987658
0.987658
0.987658
0.987658
0.987657
0.987656
0.987652
0.987641
0.987614
0.987553
0.98904
0.989096
0.989122
0.989132
0.989136
0.989137
0.989138
0.989138
0.989138
0.989138
0.989138
0.989138
0.989138
0.989138
0.989138
0.989138
0.989138
0.989138
0.989138
0.989138
0.989138
0.989138
0.989138
0.989138
0.989138
0.989138
0.989138
0.989138
0.989138
0.989138
0.989138
0.989138
0.989138
0.989138
0.989138
0.989138
0.989138
0.989138
0.989138
0.989138
0.989138
0.989138
0.989138
0.989138
0.989138
0.989138
0.989138
0.989138
0.989138
0.989138
0.989138
0.989138
0.989138
0.989138
0.989137
0.989136
0.989132
0.989122
0.989096
0.98904
0.990368
0.990419
0.990443
0.990453
0.990457
0.990458
0.990458
0.990458
0.990458
0.990458
0.990458
0.990458
0.990458
0.990458
0.990458
0.990458
0.990458
0.990458
0.990458
0.990458
0.990458
0.990458
0.990458
0.990458
0.990458
0.990458
0.990458
0.990458
0.990458
0.990458
0.990458
0.990458