/*--------------------------------*- C++ -*----------------------------------*\
| =========                 |                                                 |
| \\      /  F ield         | foam-extend: Open Source CFD                    |
|  \\    /   O peration     | Version:     4.0                                |
|   \\  /    A nd           | Web:         http://www.foam-extend.org         |
|    \\/     M anipulation  |                                                 |
\*---------------------------------------------------------------------------*/
FoamFile
{
    version     2.0;
    format      ascii;
    class       volScalarField;
    location    "1730";
    object      cMinus;
}
// * * * * * * * * * * * * * * * * * * * * * * * * * * * * * * * * * * * * * //

dimensions      [0 0 0 0 0 0 0];

internalField   nonuniform List<scalar> 
6960
(
1.16273e-23
1.16339e-23
1.16346e-23
1.16342e-23
1.16335e-23
1.16327e-23
1.16321e-23
1.16315e-23
1.1631e-23
1.16306e-23
1.16303e-23
1.163e-23
1.16298e-23
1.16296e-23
1.16295e-23
1.16294e-23
1.16293e-23
1.16292e-23
1.16292e-23
1.16292e-23
1.16291e-23
1.16291e-23
1.16291e-23
1.16291e-23
1.16291e-23
1.16291e-23
1.16291e-23
1.16291e-23
1.16291e-23
1.16292e-23
1.16292e-23
1.16291e-23
1.16291e-23
1.16291e-23
1.16291e-23
1.16291e-23
1.16291e-23
1.16291e-23
1.16291e-23
1.16291e-23
1.16292e-23
1.16292e-23
1.16292e-23
1.16293e-23
1.16294e-23
1.16295e-23
1.16296e-23
1.16298e-23
1.163e-23
1.16303e-23
1.16306e-23
1.1631e-23
1.16315e-23
1.16321e-23
1.16327e-23
1.16335e-23
1.16342e-23
1.16346e-23
1.16339e-23
1.16273e-23
4.64309e-23
4.64595e-23
4.64649e-23
4.64657e-23
4.64654e-23
4.64648e-23
4.64643e-23
4.64639e-23
4.64637e-23
4.64636e-23
4.64636e-23
4.64637e-23
4.64639e-23
4.64641e-23
4.64644e-23
4.64647e-23
4.6465e-23
4.64653e-23
4.64656e-23
4.64658e-23
4.64661e-23
4.64664e-23
4.64666e-23
4.64668e-23
4.6467e-23
4.64672e-23
4.64673e-23
4.64674e-23
4.64675e-23
4.64675e-23
4.64675e-23
4.64675e-23
4.64674e-23
4.64673e-23
4.64672e-23
4.6467e-23
4.64668e-23
4.64666e-23
4.64664e-23
4.64661e-23
4.64658e-23
4.64656e-23
4.64653e-23
4.6465e-23
4.64647e-23
4.64644e-23
4.64641e-23
4.64639e-23
4.64637e-23
4.64636e-23
4.64636e-23
4.64637e-23
4.64639e-23
4.64643e-23
4.64648e-23
4.64654e-23
4.64657e-23
4.64649e-23
4.64595e-23
4.64309e-23
1.34711e-22
1.34801e-22
1.34825e-22
1.34836e-22
1.34843e-22
1.34849e-22
1.34854e-22
1.34859e-22
1.34864e-22
1.34869e-22
1.34874e-22
1.34878e-22
1.34882e-22
1.34886e-22
1.34889e-22
1.34893e-22
1.34896e-22
1.34898e-22
1.34901e-22
1.34903e-22
1.34905e-22
1.34907e-22
1.34908e-22
1.3491e-22
1.34911e-22
1.34912e-22
1.34912e-22
1.34913e-22
1.34913e-22
1.34914e-22
1.34914e-22
1.34913e-22
1.34913e-22
1.34912e-22
1.34912e-22
1.34911e-22
1.3491e-22
1.34908e-22
1.34907e-22
1.34905e-22
1.34903e-22
1.34901e-22
1.34898e-22
1.34896e-22
1.34893e-22
1.34889e-22
1.34886e-22
1.34882e-22
1.34878e-22
1.34874e-22
1.34869e-22
1.34864e-22
1.34859e-22
1.34854e-22
1.34849e-22
1.34843e-22
1.34836e-22
1.34825e-22
1.34801e-22
1.34711e-22
3.59533e-22
3.59794e-22
3.59884e-22
3.5994e-22
3.59985e-22
3.60025e-22
3.60061e-22
3.60094e-22
3.60125e-22
3.60154e-22
3.6018e-22
3.60204e-22
3.60226e-22
3.60246e-22
3.60264e-22
3.6028e-22
3.60295e-22
3.60308e-22
3.60319e-22
3.60329e-22
3.60338e-22
3.60346e-22
3.60353e-22
3.60359e-22
3.60364e-22
3.60368e-22
3.60371e-22
3.60373e-22
3.60375e-22
3.60375e-22
3.60375e-22
3.60375e-22
3.60373e-22
3.60371e-22
3.60368e-22
3.60364e-22
3.60359e-22
3.60353e-22
3.60346e-22
3.60338e-22
3.60329e-22
3.60319e-22
3.60308e-22
3.60295e-22
3.6028e-22
3.60264e-22
3.60246e-22
3.60226e-22
3.60204e-22
3.6018e-22
3.60154e-22
3.60125e-22
3.60094e-22
3.60061e-22
3.60025e-22
3.59985e-22
3.5994e-22
3.59884e-22
3.59794e-22
3.59533e-22
9.43569e-22
9.44316e-22
9.4463e-22
9.44854e-22
9.45046e-22
9.45219e-22
9.45378e-22
9.45523e-22
9.45656e-22
9.45777e-22
9.45887e-22
9.45987e-22
9.46077e-22
9.46158e-22
9.46231e-22
9.46295e-22
9.46353e-22
9.46403e-22
9.46448e-22
9.46487e-22
9.46522e-22
9.46551e-22
9.46577e-22
9.46598e-22
9.46616e-22
9.46631e-22
9.46643e-22
9.46651e-22
9.46657e-22
9.4666e-22
9.4666e-22
9.46657e-22
9.46651e-22
9.46643e-22
9.46631e-22
9.46616e-22
9.46598e-22
9.46577e-22
9.46551e-22
9.46522e-22
9.46487e-22
9.46448e-22
9.46403e-22
9.46353e-22
9.46295e-22
9.46231e-22
9.46158e-22
9.46077e-22
9.45987e-22
9.45887e-22
9.45777e-22
9.45656e-22
9.45523e-22
9.45378e-22
9.45219e-22
9.45046e-22
9.44854e-22
9.4463e-22
9.44316e-22
9.43569e-22
2.49587e-21
2.49802e-21
2.49906e-21
2.49988e-21
2.5006e-21
2.50125e-21
2.50185e-21
2.5024e-21
2.50289e-21
2.50335e-21
2.50375e-21
2.50412e-21
2.50445e-21
2.50475e-21
2.50501e-21
2.50524e-21
2.50545e-21
2.50563e-21
2.50579e-21
2.50593e-21
2.50605e-21
2.50616e-21
2.50625e-21
2.50632e-21
2.50638e-21
2.50644e-21
2.50648e-21
2.50651e-21
2.50652e-21
2.50653e-21
2.50653e-21
2.50652e-21
2.50651e-21
2.50648e-21
2.50644e-21
2.50638e-21
2.50632e-21
2.50625e-21
2.50616e-21
2.50605e-21
2.50593e-21
2.50579e-21
2.50563e-21
2.50545e-21
2.50524e-21
2.50501e-21
2.50475e-21
2.50445e-21
2.50412e-21
2.50375e-21
2.50335e-21
2.50289e-21
2.5024e-21
2.50185e-21
2.50125e-21
2.5006e-21
2.49988e-21
2.49906e-21
2.49802e-21
2.49587e-21
6.72054e-21
6.72681e-21
6.73023e-21
6.73305e-21
6.73558e-21
6.73789e-21
6.74001e-21
6.74194e-21
6.74369e-21
6.74527e-21
6.74671e-21
6.74799e-21
6.74914e-21
6.75016e-21
6.75107e-21
6.75188e-21
6.75259e-21
6.75321e-21
6.75376e-21
6.75423e-21
6.75465e-21
6.755e-21
6.7553e-21
6.75556e-21
6.75577e-21
6.75594e-21
6.75608e-21
6.75618e-21
6.75624e-21
6.75627e-21
6.75627e-21
6.75624e-21
6.75618e-21
6.75608e-21
6.75594e-21
6.75577e-21
6.75556e-21
6.7553e-21
6.755e-21
6.75465e-21
6.75423e-21
6.75376e-21
6.75321e-21
6.75259e-21
6.75188e-21
6.75107e-21
6.75016e-21
6.74914e-21
6.74799e-21
6.74671e-21
6.74527e-21
6.74369e-21
6.74194e-21
6.74001e-21
6.73789e-21
6.73558e-21
6.73305e-21
6.73023e-21
6.72681e-21
6.72054e-21
1.84984e-20
1.85171e-20
1.85282e-20
1.85377e-20
1.85464e-20
1.85543e-20
1.85616e-20
1.85682e-20
1.85742e-20
1.85796e-20
1.85845e-20
1.85889e-20
1.85928e-20
1.85962e-20
1.85993e-20
1.8602e-20
1.86044e-20
1.86065e-20
1.86084e-20
1.86099e-20
1.86113e-20
1.86125e-20
1.86135e-20
1.86144e-20
1.86151e-20
1.86157e-20
1.86161e-20
1.86164e-20
1.86166e-20
1.86168e-20
1.86168e-20
1.86166e-20
1.86164e-20
1.86161e-20
1.86157e-20
1.86151e-20
1.86144e-20
1.86135e-20
1.86125e-20
1.86113e-20
1.86099e-20
1.86084e-20
1.86065e-20
1.86044e-20
1.8602e-20
1.85993e-20
1.85962e-20
1.85928e-20
1.85889e-20
1.85845e-20
1.85796e-20
1.85742e-20
1.85682e-20
1.85616e-20
1.85543e-20
1.85464e-20
1.85377e-20
1.85282e-20
1.85171e-20
1.84984e-20
5.21447e-20
5.22012e-20
5.22376e-20
5.22696e-20
5.22989e-20
5.23258e-20
5.23504e-20
5.23728e-20
5.23931e-20
5.24114e-20
5.24279e-20
5.24426e-20
5.24558e-20
5.24675e-20
5.24778e-20
5.24869e-20
5.24949e-20
5.2502e-20
5.25081e-20
5.25134e-20
5.2518e-20
5.2522e-20
5.25253e-20
5.25282e-20
5.25305e-20
5.25324e-20
5.25339e-20
5.2535e-20
5.25357e-20
5.2536e-20
5.2536e-20
5.25357e-20
5.2535e-20
5.25339e-20
5.25324e-20
5.25305e-20
5.25282e-20
5.25253e-20
5.2522e-20
5.2518e-20
5.25134e-20
5.25081e-20
5.2502e-20
5.24949e-20
5.24869e-20
5.24778e-20
5.24675e-20
5.24558e-20
5.24426e-20
5.24279e-20
5.24114e-20
5.23931e-20
5.23728e-20
5.23504e-20
5.23258e-20
5.22989e-20
5.22696e-20
5.22376e-20
5.22012e-20
5.21447e-20
1.50663e-19
1.50838e-19
1.50958e-19
1.51065e-19
1.51164e-19
1.51256e-19
1.51339e-19
1.51415e-19
1.51484e-19
1.51546e-19
1.51601e-19
1.51651e-19
1.51695e-19
1.51735e-19
1.51769e-19
1.518e-19
1.51827e-19
1.51851e-19
1.51871e-19
1.51889e-19
1.51904e-19
1.51918e-19
1.51929e-19
1.51938e-19
1.51946e-19
1.51953e-19
1.51957e-19
1.51961e-19
1.51963e-19
1.51965e-19
1.51965e-19
1.51963e-19
1.51961e-19
1.51957e-19
1.51953e-19
1.51946e-19
1.51938e-19
1.51929e-19
1.51918e-19
1.51904e-19
1.51889e-19
1.51871e-19
1.51851e-19
1.51827e-19
1.518e-19
1.51769e-19
1.51735e-19
1.51695e-19
1.51651e-19
1.51601e-19
1.51546e-19
1.51484e-19
1.51415e-19
1.51339e-19
1.51256e-19
1.51164e-19
1.51065e-19
1.50958e-19
1.50838e-19
1.50663e-19
4.46398e-19
4.4695e-19
4.4735e-19
4.47714e-19
4.48052e-19
4.48362e-19
4.48647e-19
4.48905e-19
4.49139e-19
4.4935e-19
4.4954e-19
4.49709e-19
4.49859e-19
4.49993e-19
4.50111e-19
4.50215e-19
4.50306e-19
4.50386e-19
4.50455e-19
4.50516e-19
4.50568e-19
4.50612e-19
4.5065e-19
4.50682e-19
4.50708e-19
4.5073e-19
4.50746e-19
4.50758e-19
4.50766e-19
4.5077e-19
4.5077e-19
4.50766e-19
4.50758e-19
4.50746e-19
4.5073e-19
4.50708e-19
4.50682e-19
4.5065e-19
4.50612e-19
4.50568e-19
4.50516e-19
4.50455e-19
4.50386e-19
4.50306e-19
4.50215e-19
4.50111e-19
4.49993e-19
4.49859e-19
4.49709e-19
4.4954e-19
4.4935e-19
4.49139e-19
4.48905e-19
4.48647e-19
4.48362e-19
4.48052e-19
4.47714e-19
4.4735e-19
4.4695e-19
4.46398e-19
1.35664e-18
1.35843e-18
1.35978e-18
1.36103e-18
1.36219e-18
1.36326e-18
1.36424e-18
1.36513e-18
1.36593e-18
1.36666e-18
1.36731e-18
1.36789e-18
1.36841e-18
1.36887e-18
1.36927e-18
1.36963e-18
1.36994e-18
1.37022e-18
1.37045e-18
1.37066e-18
1.37084e-18
1.37099e-18
1.37112e-18
1.37123e-18
1.37132e-18
1.37139e-18
1.37145e-18
1.37149e-18
1.37152e-18
1.37153e-18
1.37153e-18
1.37152e-18
1.37149e-18
1.37145e-18
1.37139e-18
1.37132e-18
1.37123e-18
1.37112e-18
1.37099e-18
1.37084e-18
1.37066e-18
1.37045e-18
1.37022e-18
1.36994e-18
1.36963e-18
1.36927e-18
1.36887e-18
1.36841e-18
1.36789e-18
1.36731e-18
1.36666e-18
1.36593e-18
1.36513e-18
1.36424e-18
1.36326e-18
1.36219e-18
1.36103e-18
1.35978e-18
1.35843e-18
1.35664e-18
4.22954e-18
4.23544e-18
4.2401e-18
4.24444e-18
4.24848e-18
4.25222e-18
4.25563e-18
4.25874e-18
4.26155e-18
4.26408e-18
4.26635e-18
4.26838e-18
4.27018e-18
4.27178e-18
4.27318e-18
4.27442e-18
4.27551e-18
4.27646e-18
4.27729e-18
4.27801e-18
4.27862e-18
4.27915e-18
4.2796e-18
4.27998e-18
4.28029e-18
4.28054e-18
4.28074e-18
4.28088e-18
4.28097e-18
4.28102e-18
4.28102e-18
4.28097e-18
4.28088e-18
4.28074e-18
4.28054e-18
4.28029e-18
4.27998e-18
4.2796e-18
4.27915e-18
4.27862e-18
4.27801e-18
4.27729e-18
4.27646e-18
4.27551e-18
4.27442e-18
4.27318e-18
4.27178e-18
4.27018e-18
4.26838e-18
4.26635e-18
4.26408e-18
4.26155e-18
4.25874e-18
4.25563e-18
4.25222e-18
4.24848e-18
4.24444e-18
4.2401e-18
4.23544e-18
4.22954e-18
1.35274e-17
1.35474e-17
1.35637e-17
1.3579e-17
1.35934e-17
1.36066e-17
1.36187e-17
1.36298e-17
1.36397e-17
1.36487e-17
1.36567e-17
1.36639e-17
1.36703e-17
1.36759e-17
1.36809e-17
1.36853e-17
1.36891e-17
1.36925e-17
1.36954e-17
1.36979e-17
1.37001e-17
1.3702e-17
1.37036e-17
1.37049e-17
1.3706e-17
1.37069e-17
1.37076e-17
1.37081e-17
1.37084e-17
1.37086e-17
1.37086e-17
1.37084e-17
1.37081e-17
1.37076e-17
1.37069e-17
1.3706e-17
1.37049e-17
1.37036e-17
1.3702e-17
1.37001e-17
1.36979e-17
1.36954e-17
1.36925e-17
1.36891e-17
1.36853e-17
1.36809e-17
1.36759e-17
1.36703e-17
1.36639e-17
1.36567e-17
1.36487e-17
1.36397e-17
1.36298e-17
1.36187e-17
1.36066e-17
1.35934e-17
1.3579e-17
1.35637e-17
1.35474e-17
1.35274e-17
4.43811e-17
4.44502e-17
4.45083e-17
4.45635e-17
4.46151e-17
4.46629e-17
4.47066e-17
4.47463e-17
4.47822e-17
4.48145e-17
4.48435e-17
4.48693e-17
4.48923e-17
4.49126e-17
4.49305e-17
4.49463e-17
4.49601e-17
4.49722e-17
4.49827e-17
4.49918e-17
4.49996e-17
4.50063e-17
4.5012e-17
4.50168e-17
4.50207e-17
4.50239e-17
4.50264e-17
4.50282e-17
4.50294e-17
4.503e-17
4.503e-17
4.50294e-17
4.50282e-17
4.50264e-17
4.50239e-17
4.50207e-17
4.50168e-17
4.5012e-17
4.50063e-17
4.49996e-17
4.49918e-17
4.49827e-17
4.49722e-17
4.49601e-17
4.49463e-17
4.49305e-17
4.49126e-17
4.48923e-17
4.48693e-17
4.48435e-17
4.48145e-17
4.47822e-17
4.47463e-17
4.47066e-17
4.46629e-17
4.46151e-17
4.45635e-17
4.45083e-17
4.44502e-17
4.43811e-17
1.49331e-16
1.49576e-16
1.49787e-16
1.49989e-16
1.50179e-16
1.50354e-16
1.50515e-16
1.5066e-16
1.50792e-16
1.50911e-16
1.51017e-16
1.51112e-16
1.51196e-16
1.51271e-16
1.51336e-16
1.51394e-16
1.51445e-16
1.51489e-16
1.51528e-16
1.51561e-16
1.51589e-16
1.51614e-16
1.51635e-16
1.51652e-16
1.51667e-16
1.51678e-16
1.51687e-16
1.51694e-16
1.51698e-16
1.517e-16
1.517e-16
1.51698e-16
1.51694e-16
1.51687e-16
1.51678e-16
1.51667e-16
1.51652e-16
1.51635e-16
1.51614e-16
1.51589e-16
1.51561e-16
1.51528e-16
1.51489e-16
1.51445e-16
1.51394e-16
1.51336e-16
1.51271e-16
1.51196e-16
1.51112e-16
1.51017e-16
1.50911e-16
1.50792e-16
1.5066e-16
1.50515e-16
1.50354e-16
1.50179e-16
1.49989e-16
1.49787e-16
1.49576e-16
1.49331e-16
5.15137e-16
5.16023e-16
5.16808e-16
5.17562e-16
5.18271e-16
5.18926e-16
5.19527e-16
5.20072e-16
5.20565e-16
5.21009e-16
5.21406e-16
5.2176e-16
5.22075e-16
5.22353e-16
5.22599e-16
5.22815e-16
5.23004e-16
5.23169e-16
5.23312e-16
5.23437e-16
5.23544e-16
5.23635e-16
5.23713e-16
5.23778e-16
5.23831e-16
5.23875e-16
5.23908e-16
5.23933e-16
5.23949e-16
5.23957e-16
5.23957e-16
5.23949e-16
5.23933e-16
5.23908e-16
5.23875e-16
5.23831e-16
5.23778e-16
5.23713e-16
5.23635e-16
5.23544e-16
5.23437e-16
5.23312e-16
5.23169e-16
5.23004e-16
5.22815e-16
5.22599e-16
5.22353e-16
5.22075e-16
5.2176e-16
5.21406e-16
5.21009e-16
5.20565e-16
5.20072e-16
5.19527e-16
5.18926e-16
5.18271e-16
5.17562e-16
5.16808e-16
5.16023e-16
5.15137e-16
1.82093e-15
1.82421e-15
1.82719e-15
1.83006e-15
1.83276e-15
1.83525e-15
1.83754e-15
1.83962e-15
1.8415e-15
1.84319e-15
1.8447e-15
1.84605e-15
1.84725e-15
1.84831e-15
1.84924e-15
1.85006e-15
1.85078e-15
1.85141e-15
1.85196e-15
1.85243e-15
1.85284e-15
1.85319e-15
1.85348e-15
1.85373e-15
1.85393e-15
1.8541e-15
1.85422e-15
1.85432e-15
1.85438e-15
1.85441e-15
1.85441e-15
1.85438e-15
1.85432e-15
1.85422e-15
1.8541e-15
1.85393e-15
1.85373e-15
1.85348e-15
1.85319e-15
1.85284e-15
1.85243e-15
1.85196e-15
1.85141e-15
1.85078e-15
1.85006e-15
1.84924e-15
1.84831e-15
1.84725e-15
1.84605e-15
1.8447e-15
1.84319e-15
1.8415e-15
1.83962e-15
1.83754e-15
1.83525e-15
1.83276e-15
1.83006e-15
1.82719e-15
1.82421e-15
1.82093e-15
6.59112e-15
6.60354e-15
6.61502e-15
6.62613e-15
6.63661e-15
6.6463e-15
6.65518e-15
6.66325e-15
6.67054e-15
6.6771e-15
6.68297e-15
6.6882e-15
6.69285e-15
6.69697e-15
6.70059e-15
6.70378e-15
6.70657e-15
6.709e-15
6.71112e-15
6.71295e-15
6.71453e-15
6.71587e-15
6.71702e-15
6.71797e-15
6.71876e-15
6.7194e-15
6.7199e-15
6.72026e-15
6.7205e-15
6.72062e-15
6.72062e-15
6.7205e-15
6.72026e-15
6.7199e-15
6.7194e-15
6.71876e-15
6.71797e-15
6.71702e-15
6.71587e-15
6.71453e-15
6.71295e-15
6.71112e-15
6.709e-15
6.70657e-15
6.70378e-15
6.70059e-15
6.69697e-15
6.69285e-15
6.6882e-15
6.68297e-15
6.6771e-15
6.67054e-15
6.66325e-15
6.65518e-15
6.6463e-15
6.63661e-15
6.62613e-15
6.61502e-15
6.60354e-15
6.59112e-15
2.44071e-14
2.44551e-14
2.45003e-14
2.45441e-14
2.45855e-14
2.46238e-14
2.46589e-14
2.46908e-14
2.47196e-14
2.47455e-14
2.47687e-14
2.47894e-14
2.48078e-14
2.4824e-14
2.48383e-14
2.48509e-14
2.48619e-14
2.48716e-14
2.48799e-14
2.48871e-14
2.48933e-14
2.48987e-14
2.49032e-14
2.49069e-14
2.49101e-14
2.49126e-14
2.49145e-14
2.4916e-14
2.49169e-14
2.49174e-14
2.49174e-14
2.49169e-14
2.4916e-14
2.49145e-14
2.49126e-14
2.49101e-14
2.49069e-14
2.49032e-14
2.48987e-14
2.48933e-14
2.48871e-14
2.48799e-14
2.48716e-14
2.48619e-14
2.48509e-14
2.48383e-14
2.4824e-14
2.48078e-14
2.47894e-14
2.47687e-14
2.47455e-14
2.47196e-14
2.46908e-14
2.46589e-14
2.46238e-14
2.45855e-14
2.45441e-14
2.45003e-14
2.44551e-14
2.44071e-14
9.23535e-14
9.25426e-14
9.27232e-14
9.28994e-14
9.30657e-14
9.32197e-14
9.33607e-14
9.34889e-14
9.36048e-14
9.37089e-14
9.38021e-14
9.38852e-14
9.3959e-14
9.40243e-14
9.40818e-14
9.41323e-14
9.41766e-14
9.42152e-14
9.42487e-14
9.42777e-14
9.43027e-14
9.4324e-14
9.43421e-14
9.43573e-14
9.43698e-14
9.43798e-14
9.43877e-14
9.43934e-14
9.43972e-14
9.43991e-14
9.43991e-14
9.43972e-14
9.43934e-14
9.43877e-14
9.43798e-14
9.43698e-14
9.43573e-14
9.43421e-14
9.4324e-14
9.43027e-14
9.42777e-14
9.42487e-14
9.42152e-14
9.41766e-14
9.41323e-14
9.40818e-14
9.40243e-14
9.3959e-14
9.38852e-14
9.38021e-14
9.37089e-14
9.36048e-14
9.34889e-14
9.33607e-14
9.32197e-14
9.30657e-14
9.28994e-14
9.27232e-14
9.25426e-14
9.23535e-14
3.56554e-13
3.57312e-13
3.58047e-13
3.58766e-13
3.59445e-13
3.60073e-13
3.60649e-13
3.61173e-13
3.61646e-13
3.62071e-13
3.62452e-13
3.62791e-13
3.63092e-13
3.63358e-13
3.63593e-13
3.638e-13
3.6398e-13
3.64138e-13
3.64274e-13
3.64393e-13
3.64494e-13
3.64581e-13
3.64655e-13
3.64717e-13
3.64768e-13
3.64809e-13
3.64841e-13
3.64864e-13
3.6488e-13
3.64887e-13
3.64887e-13
3.6488e-13
3.64864e-13
3.64841e-13
3.64809e-13
3.64768e-13
3.64717e-13
3.64655e-13
3.64581e-13
3.64494e-13
3.64393e-13
3.64274e-13
3.64138e-13
3.6398e-13
3.638e-13
3.63593e-13
3.63358e-13
3.63092e-13
3.62791e-13
3.62452e-13
3.62071e-13
3.61646e-13
3.61173e-13
3.60649e-13
3.60073e-13
3.59445e-13
3.58766e-13
3.58047e-13
3.57312e-13
3.56554e-13
1.40197e-12
1.40506e-12
1.4081e-12
1.41107e-12
1.41388e-12
1.41649e-12
1.41887e-12
1.42104e-12
1.423e-12
1.42476e-12
1.42634e-12
1.42774e-12
1.42899e-12
1.43009e-12
1.43106e-12
1.43191e-12
1.43266e-12
1.43331e-12
1.43388e-12
1.43437e-12
1.43479e-12
1.43515e-12
1.43545e-12
1.43571e-12
1.43592e-12
1.43609e-12
1.43622e-12
1.43632e-12
1.43638e-12
1.43641e-12
1.43641e-12
1.43638e-12
1.43632e-12
1.43622e-12
1.43609e-12
1.43592e-12
1.43571e-12
1.43545e-12
1.43515e-12
1.43479e-12
1.43437e-12
1.43388e-12
1.43331e-12
1.43266e-12
1.43191e-12
1.43106e-12
1.43009e-12
1.42899e-12
1.42774e-12
1.42634e-12
1.42476e-12
1.423e-12
1.42104e-12
1.41887e-12
1.41649e-12
1.41388e-12
1.41107e-12
1.4081e-12
1.40506e-12
1.40197e-12
5.60192e-12
5.61469e-12
5.62738e-12
5.63983e-12
5.6516e-12
5.66251e-12
5.6725e-12
5.68159e-12
5.68979e-12
5.69717e-12
5.70377e-12
5.70965e-12
5.71487e-12
5.71949e-12
5.72356e-12
5.72713e-12
5.73026e-12
5.73299e-12
5.73536e-12
5.73741e-12
5.73917e-12
5.74068e-12
5.74195e-12
5.74302e-12
5.7439e-12
5.74461e-12
5.74516e-12
5.74557e-12
5.74584e-12
5.74597e-12
5.74597e-12
5.74584e-12
5.74557e-12
5.74516e-12
5.74461e-12
5.7439e-12
5.74302e-12
5.74195e-12
5.74068e-12
5.73917e-12
5.73741e-12
5.73536e-12
5.73299e-12
5.73026e-12
5.72713e-12
5.72356e-12
5.71949e-12
5.71487e-12
5.70965e-12
5.70377e-12
5.69717e-12
5.68979e-12
5.68159e-12
5.6725e-12
5.66251e-12
5.6516e-12
5.63983e-12
5.62738e-12
5.61469e-12
5.60192e-12
2.26863e-11
2.27396e-11
2.27931e-11
2.28457e-11
2.28955e-11
2.29416e-11
2.29839e-11
2.30223e-11
2.3057e-11
2.30881e-11
2.3116e-11
2.31409e-11
2.3163e-11
2.31825e-11
2.31997e-11
2.32148e-11
2.3228e-11
2.32395e-11
2.32495e-11
2.32582e-11
2.32656e-11
2.3272e-11
2.32774e-11
2.32819e-11
2.32856e-11
2.32886e-11
2.3291e-11
2.32927e-11
2.32938e-11
2.32943e-11
2.32943e-11
2.32938e-11
2.32927e-11
2.3291e-11
2.32886e-11
2.32856e-11
2.32819e-11
2.32774e-11
2.3272e-11
2.32656e-11
2.32582e-11
2.32495e-11
2.32395e-11
2.3228e-11
2.32148e-11
2.31997e-11
2.31825e-11
2.3163e-11
2.31409e-11
2.3116e-11
2.30881e-11
2.3057e-11
2.30223e-11
2.29839e-11
2.29416e-11
2.28955e-11
2.28457e-11
2.27931e-11
2.27396e-11
2.26863e-11
9.2821e-11
9.30455e-11
9.32727e-11
9.34964e-11
9.37081e-11
9.39042e-11
9.40839e-11
9.42471e-11
9.43946e-11
9.45272e-11
9.46458e-11
9.47515e-11
9.48453e-11
9.49283e-11
9.50014e-11
9.50656e-11
9.51217e-11
9.51707e-11
9.52132e-11
9.525e-11
9.52816e-11
9.53086e-11
9.53315e-11
9.53507e-11
9.53665e-11
9.53792e-11
9.53891e-11
9.53964e-11
9.54011e-11
9.54035e-11
9.54035e-11
9.54011e-11
9.53964e-11
9.53891e-11
9.53792e-11
9.53665e-11
9.53507e-11
9.53315e-11
9.53086e-11
9.52816e-11
9.525e-11
9.52132e-11
9.51707e-11
9.51217e-11
9.50656e-11
9.50014e-11
9.49283e-11
9.48453e-11
9.47515e-11
9.46458e-11
9.45272e-11
9.43946e-11
9.42471e-11
9.40839e-11
9.39042e-11
9.37081e-11
9.34964e-11
9.32727e-11
9.30455e-11
9.2821e-11
3.82274e-10
3.83222e-10
3.8419e-10
3.85142e-10
3.86044e-10
3.86879e-10
3.87645e-10
3.8834e-10
3.88969e-10
3.89533e-10
3.90038e-10
3.90489e-10
3.90888e-10
3.91241e-10
3.91552e-10
3.91826e-10
3.92065e-10
3.92273e-10
3.92454e-10
3.92611e-10
3.92746e-10
3.92861e-10
3.92958e-10
3.93039e-10
3.93107e-10
3.93161e-10
3.93203e-10
3.93234e-10
3.93254e-10
3.93264e-10
3.93264e-10
3.93254e-10
3.93234e-10
3.93203e-10
3.93161e-10
3.93107e-10
3.93039e-10
3.92958e-10
3.92861e-10
3.92746e-10
3.92611e-10
3.92454e-10
3.92273e-10
3.92065e-10
3.91826e-10
3.91552e-10
3.91241e-10
3.90888e-10
3.90489e-10
3.90038e-10
3.89533e-10
3.88969e-10
3.8834e-10
3.87645e-10
3.86879e-10
3.86044e-10
3.85142e-10
3.8419e-10
3.83222e-10
3.82274e-10
1.57785e-09
1.58185e-09
1.58596e-09
1.59001e-09
1.59384e-09
1.59739e-09
1.60064e-09
1.60359e-09
1.60626e-09
1.60866e-09
1.61081e-09
1.61272e-09
1.61442e-09
1.61592e-09
1.61724e-09
1.6184e-09
1.61941e-09
1.6203e-09
1.62107e-09
1.62173e-09
1.6223e-09
1.62279e-09
1.6232e-09
1.62355e-09
1.62383e-09
1.62406e-09
1.62424e-09
1.62437e-09
1.62446e-09
1.6245e-09
1.6245e-09
1.62446e-09
1.62437e-09
1.62424e-09
1.62406e-09
1.62383e-09
1.62355e-09
1.6232e-09
1.62279e-09
1.6223e-09
1.62173e-09
1.62107e-09
1.6203e-09
1.61941e-09
1.6184e-09
1.61724e-09
1.61592e-09
1.61442e-09
1.61272e-09
1.61081e-09
1.60866e-09
1.60626e-09
1.60359e-09
1.60064e-09
1.59739e-09
1.59384e-09
1.59001e-09
1.58596e-09
1.58185e-09
1.57785e-09
6.49446e-09
6.51124e-09
6.52855e-09
6.54561e-09
6.56175e-09
6.5767e-09
6.5904e-09
6.60285e-09
6.61409e-09
6.62419e-09
6.63323e-09
6.64128e-09
6.64843e-09
6.65474e-09
6.66031e-09
6.66519e-09
6.66947e-09
6.6732e-09
6.67643e-09
6.67923e-09
6.68163e-09
6.68369e-09
6.68543e-09
6.68688e-09
6.68808e-09
6.68905e-09
6.6898e-09
6.69035e-09
6.69072e-09
6.6909e-09
6.6909e-09
6.69072e-09
6.69035e-09
6.6898e-09
6.68905e-09
6.68808e-09
6.68688e-09
6.68543e-09
6.68369e-09
6.68163e-09
6.67923e-09
6.67643e-09
6.6732e-09
6.66947e-09
6.66519e-09
6.66031e-09
6.65474e-09
6.64843e-09
6.64128e-09
6.63323e-09
6.62419e-09
6.61409e-09
6.60285e-09
6.5904e-09
6.5767e-09
6.56175e-09
6.54561e-09
6.52855e-09
6.51124e-09
6.49446e-09
2.65035e-08
2.65729e-08
2.66449e-08
2.67157e-08
2.67828e-08
2.68449e-08
2.69018e-08
2.69535e-08
2.70001e-08
2.70421e-08
2.70796e-08
2.7113e-08
2.71427e-08
2.71689e-08
2.7192e-08
2.72123e-08
2.723e-08
2.72455e-08
2.72589e-08
2.72705e-08
2.72805e-08
2.7289e-08
2.72962e-08
2.73023e-08
2.73073e-08
2.73113e-08
2.73144e-08
2.73167e-08
2.73182e-08
2.73189e-08
2.73189e-08
2.73182e-08
2.73167e-08
2.73144e-08
2.73113e-08
2.73073e-08
2.73023e-08
2.72962e-08
2.7289e-08
2.72805e-08
2.72705e-08
2.72589e-08
2.72455e-08
2.723e-08
2.72123e-08
2.7192e-08
2.71689e-08
2.71427e-08
2.7113e-08
2.70796e-08
2.70421e-08
2.70001e-08
2.69535e-08
2.69018e-08
2.68449e-08
2.67828e-08
2.67157e-08
2.66449e-08
2.65729e-08
2.65035e-08
1.06535e-07
1.06817e-07
1.07109e-07
1.07398e-07
1.0767e-07
1.07923e-07
1.08154e-07
1.08364e-07
1.08553e-07
1.08724e-07
1.08876e-07
1.09012e-07
1.09133e-07
1.09239e-07
1.09333e-07
1.09415e-07
1.09487e-07
1.0955e-07
1.09605e-07
1.09652e-07
1.09692e-07
1.09727e-07
1.09756e-07
1.09781e-07
1.09801e-07
1.09817e-07
1.0983e-07
1.09839e-07
1.09845e-07
1.09848e-07
1.09848e-07
1.09845e-07
1.09839e-07
1.0983e-07
1.09817e-07
1.09801e-07
1.09781e-07
1.09756e-07
1.09727e-07
1.09692e-07
1.09652e-07
1.09605e-07
1.0955e-07
1.09487e-07
1.09415e-07
1.09333e-07
1.09239e-07
1.09133e-07
1.09012e-07
1.08876e-07
1.08724e-07
1.08553e-07
1.08364e-07
1.08154e-07
1.07923e-07
1.0767e-07
1.07398e-07
1.07109e-07
1.06817e-07
1.06535e-07
4.18673e-07
4.19786e-07
4.20943e-07
4.22081e-07
4.23156e-07
4.24152e-07
4.25064e-07
4.25892e-07
4.2664e-07
4.27312e-07
4.27913e-07
4.28449e-07
4.28924e-07
4.29344e-07
4.29714e-07
4.30038e-07
4.30322e-07
4.3057e-07
4.30785e-07
4.3097e-07
4.3113e-07
4.31266e-07
4.31382e-07
4.31478e-07
4.31558e-07
4.31622e-07
4.31672e-07
4.31709e-07
4.31733e-07
4.31745e-07
4.31745e-07
4.31733e-07
4.31709e-07
4.31672e-07
4.31622e-07
4.31558e-07
4.31478e-07
4.31382e-07
4.31266e-07
4.3113e-07
4.3097e-07
4.30785e-07
4.3057e-07
4.30322e-07
4.30038e-07
4.29714e-07
4.29344e-07
4.28924e-07
4.28449e-07
4.27913e-07
4.27312e-07
4.2664e-07
4.25892e-07
4.25064e-07
4.24152e-07
4.23156e-07
4.22081e-07
4.20943e-07
4.19786e-07
4.18673e-07
1.59518e-06
1.59941e-06
1.60381e-06
1.60813e-06
1.61221e-06
1.61599e-06
1.61945e-06
1.62259e-06
1.62543e-06
1.62797e-06
1.63025e-06
1.63228e-06
1.63408e-06
1.63568e-06
1.63708e-06
1.63831e-06
1.63938e-06
1.64032e-06
1.64114e-06
1.64184e-06
1.64245e-06
1.64296e-06
1.6434e-06
1.64377e-06
1.64407e-06
1.64431e-06
1.6445e-06
1.64464e-06
1.64473e-06
1.64477e-06
1.64477e-06
1.64473e-06
1.64464e-06
1.6445e-06
1.64431e-06
1.64407e-06
1.64377e-06
1.6434e-06
1.64296e-06
1.64245e-06
1.64184e-06
1.64114e-06
1.64032e-06
1.63938e-06
1.63831e-06
1.63708e-06
1.63568e-06
1.63408e-06
1.63228e-06
1.63025e-06
1.62797e-06
1.62543e-06
1.62259e-06
1.61945e-06
1.61599e-06
1.61221e-06
1.60813e-06
1.60381e-06
1.59941e-06
1.59518e-06
5.83722e-06
5.85254e-06
5.86845e-06
5.88406e-06
5.8988e-06
5.91243e-06
5.92491e-06
5.93625e-06
5.94648e-06
5.95567e-06
5.96389e-06
5.97121e-06
5.97771e-06
5.98345e-06
5.9885e-06
5.99294e-06
5.99682e-06
6.0002e-06
6.00314e-06
6.00567e-06
6.00785e-06
6.00972e-06
6.01129e-06
6.01261e-06
6.0137e-06
6.01457e-06
6.01526e-06
6.01576e-06
6.01608e-06
6.01625e-06
6.01625e-06
6.01608e-06
6.01576e-06
6.01526e-06
6.01457e-06
6.0137e-06
6.01261e-06
6.01129e-06
6.00972e-06
6.00785e-06
6.00567e-06
6.00314e-06
6.0002e-06
5.99682e-06
5.99294e-06
5.9885e-06
5.98345e-06
5.97771e-06
5.97121e-06
5.96389e-06
5.95567e-06
5.94648e-06
5.93625e-06
5.92491e-06
5.91243e-06
5.8988e-06
5.88406e-06
5.86845e-06
5.85254e-06
5.83722e-06
2.02996e-05
2.03518e-05
2.0406e-05
2.0459e-05
2.0509e-05
2.05552e-05
2.05976e-05
2.0636e-05
2.06707e-05
2.07018e-05
2.07297e-05
2.07545e-05
2.07765e-05
2.0796e-05
2.08131e-05
2.08281e-05
2.08413e-05
2.08527e-05
2.08627e-05
2.08713e-05
2.08787e-05
2.0885e-05
2.08903e-05
2.08948e-05
2.08985e-05
2.09014e-05
2.09037e-05
2.09054e-05
2.09065e-05
2.09071e-05
2.09071e-05
2.09065e-05
2.09054e-05
2.09037e-05
2.09014e-05
2.08985e-05
2.08948e-05
2.08903e-05
2.0885e-05
2.08787e-05
2.08713e-05
2.08627e-05
2.08527e-05
2.08413e-05
2.08281e-05
2.08131e-05
2.0796e-05
2.07765e-05
2.07545e-05
2.07297e-05
2.07018e-05
2.06707e-05
2.0636e-05
2.05976e-05
2.05552e-05
2.0509e-05
2.0459e-05
2.0406e-05
2.03518e-05
2.02996e-05
6.6306e-05
6.64714e-05
6.66423e-05
6.68092e-05
6.69665e-05
6.71119e-05
6.72449e-05
6.73657e-05
6.74747e-05
6.75726e-05
6.76601e-05
6.7738e-05
6.78072e-05
6.78682e-05
6.7922e-05
6.79692e-05
6.80105e-05
6.80465e-05
6.80777e-05
6.81047e-05
6.81278e-05
6.81476e-05
6.81644e-05
6.81784e-05
6.819e-05
6.81993e-05
6.82065e-05
6.82118e-05
6.82153e-05
6.8217e-05
6.8217e-05
6.82153e-05
6.82118e-05
6.82065e-05
6.81993e-05
6.819e-05
6.81784e-05
6.81644e-05
6.81476e-05
6.81278e-05
6.81047e-05
6.80777e-05
6.80465e-05
6.80105e-05
6.79692e-05
6.7922e-05
6.78682e-05
6.78072e-05
6.7738e-05
6.76601e-05
6.75726e-05
6.74747e-05
6.73657e-05
6.72449e-05
6.71119e-05
6.69665e-05
6.68092e-05
6.66423e-05
6.64714e-05
6.6306e-05
0.000200804
0.000201283
0.000201775
0.000202254
0.000202705
0.000203122
0.000203504
0.00020385
0.000204162
0.000204443
0.000204693
0.000204917
0.000205115
0.00020529
0.000205444
0.000205579
0.000205697
0.0002058
0.000205889
0.000205967
0.000206033
0.00020609
0.000206138
0.000206178
0.000206211
0.000206237
0.000206258
0.000206273
0.000206283
0.000206288
0.000206288
0.000206283
0.000206273
0.000206258
0.000206237
0.000206211
0.000206178
0.000206138
0.00020609
0.000206033
0.000205967
0.000205889
0.0002058
0.000205697
0.000205579
0.000205444
0.00020529
0.000205115
0.000204917
0.000204693
0.000204443
0.000204162
0.00020385
0.000203504
0.000203122
0.000202705
0.000202254
0.000201775
0.000201283
0.000200804
0.00055601
0.000557254
0.000558524
0.000559759
0.000560919
0.000561991
0.000562971
0.00056386
0.000564662
0.000565382
0.000566026
0.000566599
0.000567107
0.000567556
0.000567951
0.000568298
0.000568601
0.000568865
0.000569094
0.000569293
0.000569463
0.000569608
0.000569731
0.000569834
0.000569919
0.000569987
0.00057004
0.000570079
0.000570105
0.000570118
0.000570118
0.000570105
0.000570079
0.00057004
0.000569987
0.000569919
0.000569834
0.000569731
0.000569608
0.000569463
0.000569293
0.000569094
0.000568865
0.000568601
0.000568298
0.000567951
0.000567556
0.000567107
0.000566599
0.000566026
0.000565382
0.000564662
0.00056386
0.000562971
0.000561991
0.000560919
0.000559759
0.000558524
0.000557254
0.00055601
0.00138794
0.00139079
0.00139368
0.00139647
0.0013991
0.00140152
0.00140374
0.00140575
0.00140756
0.00140919
0.00141064
0.00141193
0.00141308
0.0014141
0.00141499
0.00141577
0.00141646
0.00141705
0.00141757
0.00141802
0.0014184
0.00141873
0.00141901
0.00141924
0.00141943
0.00141958
0.0014197
0.00141979
0.00141985
0.00141988
0.00141988
0.00141985
0.00141979
0.0014197
0.00141958
0.00141943
0.00141924
0.00141901
0.00141873
0.0014184
0.00141802
0.00141757
0.00141705
0.00141646
0.00141577
0.00141499
0.0014141
0.00141308
0.00141193
0.00141064
0.00140919
0.00140756
0.00140575
0.00140374
0.00140152
0.0013991
0.00139647
0.00139368
0.00139079
0.00138794
0.00308545
0.00309111
0.0030968
0.00310229
0.00310744
0.00311219
0.00311653
0.00312046
0.00312401
0.00312719
0.00313003
0.00313256
0.00313481
0.00313679
0.00313853
0.00314006
0.0031414
0.00314257
0.00314358
0.00314445
0.00314521
0.00314585
0.00314639
0.00314684
0.00314722
0.00314752
0.00314775
0.00314793
0.00314804
0.00314809
0.00314809
0.00314804
0.00314793
0.00314775
0.00314752
0.00314722
0.00314684
0.00314639
0.00314585
0.00314521
0.00314445
0.00314358
0.00314257
0.0031414
0.00314006
0.00313853
0.00313679
0.00313481
0.00313256
0.00313003
0.00312719
0.00312401
0.00312046
0.00311653
0.00311219
0.00310744
0.00310229
0.0030968
0.00309111
0.00308545
0.00606397
0.00607366
0.0060833
0.00609257
0.00610124
0.00610923
0.00611653
0.00612314
0.00612911
0.00613446
0.00613924
0.00614349
0.00614726
0.00615059
0.00615352
0.0061561
0.00615835
0.0061603
0.006162
0.00616347
0.00616473
0.00616581
0.00616672
0.00616749
0.00616812
0.00616862
0.00616902
0.00616931
0.0061695
0.00616959
0.00616959
0.0061695
0.00616931
0.00616902
0.00616862
0.00616812
0.00616749
0.00616672
0.00616581
0.00616473
0.00616347
0.006162
0.0061603
0.00615835
0.0061561
0.00615352
0.00615059
0.00614726
0.00614349
0.00613924
0.00613446
0.00612911
0.00612314
0.00611653
0.00610923
0.00610124
0.00609257
0.0060833
0.00607366
0.00606397
0.0105458
0.0105601
0.0105743
0.0105878
0.0106004
0.010612
0.0106226