/*--------------------------------*- C++ -*----------------------------------*\
| =========                 |                                                 |
| \\      /  F ield         | foam-extend: Open Source CFD                    |
|  \\    /   O peration     | Version:     4.0                                |
|   \\  /    A nd           | Web:         http://www.foam-extend.org         |
|    \\/     M anipulation  |                                                 |
\*---------------------------------------------------------------------------*/
FoamFile
{
    version     2.0;
    format      ascii;
    class       volScalarField;
    location    "1020";
    object      cPlus;
}
// * * * * * * * * * * * * * * * * * * * * * * * * * * * * * * * * * * * * * //

dimensions      [0 0 0 0 0 0 0];

internalField   nonuniform List<scalar> 
6960
(
0.32645
0.326439
0.326425
0.32641
0.326397
0.326384
0.326373
0.326363
0.326354
0.326345
0.326338
0.326332
0.326326
0.326322
0.326317
0.326314
0.32631
0.326308
0.326305
0.326303
0.326301
0.3263
0.326299
0.326298
0.326297
0.326296
0.326296
0.326295
0.326295
0.326295
0.326295
0.326295
0.326295
0.326296
0.326296
0.326297
0.326298
0.326299
0.3263
0.326301
0.326303
0.326305
0.326308
0.32631
0.326314
0.326317
0.326322
0.326326
0.326332
0.326338
0.326345
0.326354
0.326363
0.326373
0.326384
0.326397
0.32641
0.326425
0.326439
0.32645
0.107801
0.107793
0.107782
0.107772
0.107762
0.107753
0.107745
0.107737
0.107731
0.107725
0.107719
0.107715
0.107711
0.107707
0.107704
0.107701
0.107699
0.107697
0.107695
0.107694
0.107693
0.107692
0.107691
0.10769
0.107689
0.107689
0.107688
0.107688
0.107688
0.107688
0.107688
0.107688
0.107688
0.107688
0.107689
0.107689
0.10769
0.107691
0.107692
0.107693
0.107694
0.107695
0.107697
0.107699
0.107701
0.107704
0.107707
0.107711
0.107715
0.107719
0.107725
0.107731
0.107737
0.107745
0.107753
0.107762
0.107772
0.107782
0.107793
0.107801
0.0423251
0.0423205
0.0423147
0.0423087
0.0423031
0.0422979
0.0422932
0.0422889
0.0422851
0.0422817
0.0422787
0.042276
0.0422737
0.0422717
0.0422699
0.0422683
0.042267
0.0422658
0.0422648
0.042264
0.0422633
0.0422626
0.0422621
0.0422617
0.0422613
0.042261
0.0422608
0.0422607
0.0422606
0.0422605
0.0422605
0.0422606
0.0422607
0.0422608
0.042261
0.0422613
0.0422617
0.0422621
0.0422626
0.0422633
0.042264
0.0422648
0.0422658
0.042267
0.0422683
0.0422699
0.0422717
0.0422737
0.042276
0.0422787
0.0422817
0.0422851
0.0422889
0.0422932
0.0422979
0.0423031
0.0423087
0.0423147
0.0423205
0.0423251
0.0191184
0.0191165
0.0191138
0.0191111
0.0191084
0.019106
0.0191038
0.0191018
0.0191
0.0190984
0.019097
0.0190958
0.0190947
0.0190937
0.0190929
0.0190922
0.0190916
0.019091
0.0190905
0.0190901
0.0190898
0.0190895
0.0190893
0.0190891
0.0190889
0.0190888
0.0190887
0.0190886
0.0190885
0.0190885
0.0190885
0.0190885
0.0190886
0.0190887
0.0190888
0.0190889
0.0190891
0.0190893
0.0190895
0.0190898
0.0190901
0.0190905
0.019091
0.0190916
0.0190922
0.0190929
0.0190937
0.0190947
0.0190958
0.019097
0.0190984
0.0191
0.0191018
0.0191038
0.019106
0.0191084
0.0191111
0.0191138
0.0191165
0.0191184
0.0104951
0.0104948
0.010494
0.0104932
0.0104924
0.0104916
0.0104909
0.0104903
0.0104898
0.0104893
0.0104888
0.0104884
0.0104881
0.0104878
0.0104875
0.0104873
0.0104871
0.0104869
0.0104868
0.0104866
0.0104865
0.0104864
0.0104863
0.0104863
0.0104862
0.0104862
0.0104861
0.0104861
0.0104861
0.0104861
0.0104861
0.0104861
0.0104861
0.0104861
0.0104862
0.0104862
0.0104863
0.0104863
0.0104864
0.0104865
0.0104866
0.0104868
0.0104869
0.0104871
0.0104873
0.0104875
0.0104878
0.0104881
0.0104884
0.0104888
0.0104893
0.0104898
0.0104903
0.0104909
0.0104916
0.0104924
0.0104932
0.010494
0.0104948
0.0104951
0.00729457
0.0072951
0.00729538
0.00729557
0.00729573
0.00729587
0.00729599
0.0072961
0.00729619
0.00729627
0.00729634
0.00729641
0.00729646
0.00729651
0.00729655
0.00729659
0.00729662
0.00729664
0.00729666
0.00729668
0.0072967
0.00729671
0.00729672
0.00729673
0.00729674
0.00729674
0.00729675
0.00729675
0.00729675
0.00729675
0.00729675
0.00729675
0.00729675
0.00729675
0.00729674
0.00729674
0.00729673
0.00729672
0.00729671
0.0072967
0.00729668
0.00729666
0.00729664
0.00729662
0.00729659
0.00729655
0.00729651
0.00729646
0.00729641
0.00729634
0.00729627
0.00729619
0.0072961
0.00729599
0.00729587
0.00729573
0.00729557
0.00729538
0.0072951
0.00729457
0.00614145
0.0061424
0.00614319
0.00614389
0.00614453
0.00614511
0.00614563
0.0061461
0.00614652
0.00614688
0.00614721
0.0061475
0.00614775
0.00614797
0.00614816
0.00614833
0.00614847
0.00614859
0.0061487
0.00614879
0.00614887
0.00614893
0.00614899
0.00614903
0.00614907
0.0061491
0.00614912
0.00614914
0.00614915
0.00614916
0.00614916
0.00614915
0.00614914
0.00614912
0.0061491
0.00614907
0.00614903
0.00614899
0.00614893
0.00614887
0.00614879
0.0061487
0.00614859
0.00614847
0.00614833
0.00614816
0.00614797
0.00614775
0.0061475
0.00614721
0.00614688
0.00614652
0.0061461
0.00614563
0.00614511
0.00614453
0.00614389
0.00614319
0.0061424
0.00614145
0.00575477
0.00575592
0.00575694
0.00575788
0.00575874
0.00575953
0.00576023
0.00576087
0.00576144
0.00576194
0.00576238
0.00576278
0.00576312
0.00576342
0.00576368
0.00576391
0.0057641
0.00576427
0.00576442
0.00576454
0.00576465
0.00576474
0.00576482
0.00576488
0.00576493
0.00576497
0.005765
0.00576503
0.00576504
0.00576505
0.00576505
0.00576504
0.00576503
0.005765
0.00576497
0.00576493
0.00576488
0.00576482
0.00576474
0.00576465
0.00576454
0.00576442
0.00576427
0.0057641
0.00576391
0.00576368
0.00576342
0.00576312
0.00576278
0.00576238
0.00576194
0.00576144
0.00576087
0.00576023
0.00575953
0.00575874
0.00575788
0.00575694
0.00575592
0.00575477
0.00565044
0.00565169
0.00565282
0.00565387
0.00565484
0.00565572
0.00565651
0.00565723
0.00565786
0.00565843
0.00565893
0.00565937
0.00565975
0.00566009
0.00566039
0.00566064
0.00566086
0.00566105
0.00566122
0.00566136
0.00566148
0.00566158
0.00566166
0.00566173
0.00566179
0.00566184
0.00566187
0.0056619
0.00566192
0.00566193
0.00566193
0.00566192
0.0056619
0.00566187
0.00566184
0.00566179
0.00566173
0.00566166
0.00566158
0.00566148
0.00566136
0.00566122
0.00566105
0.00566086
0.00566064
0.00566039
0.00566009
0.00565975
0.00565937
0.00565893
0.00565843
0.00565786
0.00565723
0.00565651
0.00565572
0.00565484
0.00565387
0.00565282
0.00565169
0.00565044
0.00564898
0.00565027
0.00565146
0.00565257
0.00565358
0.00565451
0.00565535
0.0056561
0.00565677
0.00565737
0.00565789
0.00565836
0.00565876
0.00565912
0.00565943
0.0056597
0.00565993
0.00566013
0.00566031
0.00566046
0.00566058
0.00566069
0.00566078
0.00566085
0.00566091
0.00566096
0.005661
0.00566103
0.00566105
0.00566106
0.00566106
0.00566105
0.00566103
0.005661
0.00566096
0.00566091
0.00566085
0.00566078
0.00566069
0.00566058
0.00566046
0.00566031
0.00566013
0.00565993
0.0056597
0.00565943
0.00565912
0.00565876
0.00565836
0.00565789
0.00565737
0.00565677
0.0056561
0.00565535
0.00565451
0.00565358
0.00565257
0.00565146
0.00565027
0.00564898
0.00568548
0.00568681
0.00568803
0.00568917
0.00569022
0.00569117
0.00569203
0.0056928
0.0056935
0.00569411
0.00569465
0.00569513
0.00569555
0.00569592
0.00569624
0.00569651
0.00569675
0.00569696
0.00569714
0.00569729
0.00569742
0.00569753
0.00569763
0.0056977
0.00569777
0.00569782
0.00569786
0.00569788
0.0056979
0.00569791
0.00569791
0.0056979
0.00569788
0.00569786
0.00569782
0.00569777
0.0056977
0.00569763
0.00569753
0.00569742
0.00569729
0.00569714
0.00569696
0.00569675
0.00569651
0.00569624
0.00569592
0.00569555
0.00569513
0.00569465
0.00569411
0.0056935
0.0056928
0.00569203
0.00569117
0.00569022
0.00568917
0.00568803
0.00568681
0.00568548
0.00573724
0.0057386
0.00573984
0.005741
0.00574207
0.00574305
0.00574393
0.00574472
0.00574542
0.00574605
0.0057466
0.00574709
0.00574752
0.0057479
0.00574822
0.00574851
0.00574875
0.00574896
0.00574915
0.0057493
0.00574944
0.00574955
0.00574964
0.00574972
0.00574979
0.00574984
0.00574988
0.00574991
0.00574993
0.00574994
0.00574994
0.00574993
0.00574991
0.00574988
0.00574984
0.00574979
0.00574972
0.00574964
0.00574955
0.00574944
0.0057493
0.00574915
0.00574896
0.00574875
0.00574851
0.00574822
0.0057479
0.00574752
0.00574709
0.0057466
0.00574605
0.00574542
0.00574472
0.00574393
0.00574305
0.00574207
0.005741
0.00573984
0.0057386
0.00573724
0.00579666
0.00579805
0.00579932
0.0058005
0.00580159
0.00580258
0.00580348
0.00580428
0.005805
0.00580564
0.00580621
0.00580671
0.00580714
0.00580752
0.00580786
0.00580815
0.0058084
0.00580861
0.0058088
0.00580896
0.0058091
0.00580921
0.00580931
0.00580939
0.00580945
0.00580951
0.00580955
0.00580958
0.0058096
0.00580961
0.00580961
0.0058096
0.00580958
0.00580955
0.00580951
0.00580945
0.00580939
0.00580931
0.00580921
0.0058091
0.00580896
0.0058088
0.00580861
0.0058084
0.00580815
0.00580786
0.00580752
0.00580714
0.00580671
0.00580621
0.00580564
0.005805
0.00580428
0.00580348
0.00580258
0.00580159
0.0058005
0.00579932
0.00579805
0.00579666
0.00586147
0.00586288
0.00586417
0.00586538
0.00586649
0.0058675
0.00586841
0.00586923
0.00586996
0.00587062
0.00587119
0.0058717
0.00587214
0.00587253
0.00587287
0.00587317
0.00587342
0.00587365
0.00587383
0.005874
0.00587414
0.00587425
0.00587435
0.00587443
0.0058745
0.00587456
0.0058746
0.00587463
0.00587465
0.00587466
0.00587466
0.00587465
0.00587463
0.0058746
0.00587456
0.0058745
0.00587443
0.00587435
0.00587425
0.00587414
0.005874
0.00587383
0.00587365
0.00587342
0.00587317
0.00587287
0.00587253
0.00587214
0.0058717
0.00587119
0.00587062
0.00586996
0.00586923
0.00586841
0.0058675
0.00586649
0.00586538
0.00586417
0.00586288
0.00586147
0.00593118
0.00593262
0.00593394
0.00593517
0.0059363
0.00593733
0.00593826
0.0059391
0.00593985
0.00594051
0.0059411
0.00594161
0.00594207
0.00594247
0.00594281
0.00594311
0.00594337
0.0059436
0.00594379
0.00594396
0.0059441
0.00594422
0.00594432
0.00594441
0.00594447
0.00594453
0.00594457
0.0059446
0.00594462
0.00594463
0.00594463
0.00594462
0.0059446
0.00594457
0.00594453
0.00594447
0.00594441
0.00594432
0.00594422
0.0059441
0.00594396
0.00594379
0.0059436
0.00594337
0.00594311
0.00594281
0.00594247
0.00594207
0.00594161
0.0059411
0.00594051
0.00593985
0.0059391
0.00593826
0.00593733
0.0059363
0.00593517
0.00593394
0.00593262
0.00593118
0.00600597
0.00600745
0.00600879
0.00601005
0.0060112
0.00601225
0.00601321
0.00601406
0.00601482
0.0060155
0.0060161
0.00601663
0.00601709
0.0060175
0.00601785
0.00601816
0.00601843
0.00601866
0.00601885
0.00601902
0.00601917
0.00601929
0.00601939
0.00601948
0.00601955
0.00601961
0.00601965
0.00601968
0.0060197
0.00601971
0.00601971
0.0060197
0.00601968
0.00601965
0.00601961
0.00601955
0.00601948
0.00601939
0.00601929
0.00601917
0.00601902
0.00601885
0.00601866
0.00601843
0.00601816
0.00601785
0.0060175
0.00601709
0.00601663
0.0060161
0.0060155
0.00601482
0.00601406
0.00601321
0.00601225
0.0060112
0.00601005
0.00600879
0.00600745
0.00600597
0.00608627
0.00608778
0.00608916
0.00609044
0.00609162
0.00609269
0.00609367
0.00609454
0.00609532
0.00609601
0.00609663
0.00609717
0.00609764
0.00609806
0.00609842
0.00609873
0.006099
0.00609924
0.00609944
0.00609962
0.00609976
0.00609989
0.00609999
0.00610008
0.00610015
0.00610021
0.00610026
0.00610029
0.00610031
0.00610032
0.00610032
0.00610031
0.00610029
0.00610026
0.00610021
0.00610015
0.00610008
0.00609999
0.00609989
0.00609976
0.00609962
0.00609944
0.00609924
0.006099
0.00609873
0.00609842
0.00609806
0.00609764
0.00609717
0.00609663
0.00609601
0.00609532
0.00609454
0.00609367
0.00609269
0.00609162
0.00609044
0.00608916
0.00608778
0.00608627
0.00617263
0.00617417
0.00617559
0.0061769
0.00617811
0.00617921
0.0061802
0.00618109
0.00618189
0.0061826
0.00618323
0.00618378
0.00618427
0.00618469
0.00618506
0.00618539
0.00618567
0.00618591
0.00618611
0.00618629
0.00618644
0.00618657
0.00618668
0.00618677
0.00618684
0.0061869
0.00618695
0.00618698
0.006187
0.00618701
0.00618701
0.006187
0.00618698
0.00618695
0.0061869
0.00618684
0.00618677
0.00618668
0.00618657
0.00618644
0.00618629
0.00618611
0.00618591
0.00618567
0.00618539
0.00618506
0.00618469
0.00618427
0.00618378
0.00618323
0.0061826
0.00618189
0.00618109
0.0061802
0.00617921
0.00617811
0.0061769
0.00617559
0.00617417
0.00617263
0.00626571
0.00626729
0.00626874
0.00627008
0.00627132
0.00627245
0.00627347
0.00627438
0.0062752
0.00627593
0.00627657
0.00627714
0.00627764
0.00627808
0.00627846
0.00627879
0.00627907
0.00627932
0.00627953
0.00627972
0.00627987
0.00628
0.00628011
0.00628021
0.00628028
0.00628034
0.00628039
0.00628042
0.00628045
0.00628046
0.00628046
0.00628045
0.00628042
0.00628039
0.00628034
0.00628028
0.00628021
0.00628011
0.00628
0.00627987
0.00627972
0.00627953
0.00627932
0.00627907
0.00627879
0.00627846
0.00627808
0.00627764
0.00627714
0.00627657
0.00627593
0.0062752
0.00627438
0.00627347
0.00627245
0.00627132
0.00627008
0.00626874
0.00626729
0.00626571
0.00636627
0.0063679
0.00636938
0.00637076
0.00637203
0.00637319
0.00637424
0.00637518
0.00637602
0.00637677
0.00637743
0.00637801
0.00637853
0.00637897
0.00637936
0.0063797
0.00638
0.00638025
0.00638047
0.00638066
0.00638082
0.00638095
0.00638107
0.00638116
0.00638124
0.0063813
0.00638135
0.00638139
0.00638141
0.00638142
0.00638142
0.00638141
0.00638139
0.00638135
0.0063813
0.00638124
0.00638116
0.00638107
0.00638095
0.00638082
0.00638066
0.00638047
0.00638025
0.00638
0.0063797
0.00637936
0.00637897
0.00637853
0.00637801
0.00637743
0.00637677
0.00637602
0.00637518
0.00637424
0.00637319
0.00637203
0.00637076
0.00636938
0.0063679
0.00636627
0.00647521
0.00647689
0.00647842
0.00647984
0.00648115
0.00648234
0.00648342
0.00648439
0.00648525
0.00648602
0.0064867
0.0064873
0.00648783
0.00648829
0.00648869
0.00648904
0.00648935
0.00648961
0.00648984
0.00649003
0.00649019
0.00649033
0.00649045
0.00649055
0.00649063
0.00649069
0.00649074
0.00649078
0.0064908
0.00649081
0.00649081
0.0064908
0.00649078
0.00649074
0.00649069
0.00649063
0.00649055
0.00649045
0.00649033
0.00649019
0.00649003
0.00648984
0.00648961
0.00648935
0.00648904
0.00648869
0.00648829
0.00648783
0.0064873
0.0064867
0.00648602
0.00648525
0.00648439
0.00648342
0.00648234
0.00648115
0.00647984
0.00647842
0.00647689
0.00647521
0.0065936
0.00659533
0.00659691
0.00659838
0.00659973
0.00660096
0.00660207
0.00660307
0.00660396
0.00660475
0.00660545
0.00660607
0.00660662
0.00660709
0.00660751
0.00660787
0.00660818
0.00660845
0.00660869
0.00660888
0.00660905
0.0066092
0.00660932
0.00660942
0.0066095
0.00660957
0.00660962
0.00660966
0.00660968
0.0066097
0.0066097
0.00660968
0.00660966
0.00660962
0.00660957
0.0066095
0.00660942
0.00660932
0.0066092
0.00660905
0.00660888
0.00660869
0.00660845
0.00660818
0.00660787
0.00660751
0.00660709
0.00660662
0.00660607
0.00660545
0.00660475
0.00660396
0.00660307
0.00660207
0.00660096
0.00659973
0.00659838
0.00659691
0.00659533
0.0065936
0.00672267
0.00672447
0.0067261
0.00672762
0.00672901
0.00673028
0.00673143
0.00673246
0.00673339
0.00673421
0.00673493
0.00673557
0.00673614
0.00673663
0.00673706
0.00673743
0.00673776
0.00673804
0.00673828
0.00673848
0.00673866
0.00673881
0.00673893
0.00673904
0.00673912
0.00673919
0.00673924
0.00673928
0.00673931
0.00673932
0.00673932
0.00673931
0.00673928
0.00673924
0.00673919
0.00673912
0.00673904
0.00673893
0.00673881
0.00673866
0.00673848
0.00673828
0.00673804
0.00673776
0.00673743
0.00673706
0.00673663
0.00673614
0.00673557
0.00673493
0.00673421
0.00673339
0.00673246
0.00673143
0.00673028
0.00672901
0.00672762
0.0067261
0.00672447
0.00672267
0.00686392
0.00686579
0.00686748
0.00686905
0.00687049
0.00687181
0.006873
0.00687407
0.00687503
0.00687588
0.00687663
0.0068773
0.00687788
0.00687839
0.00687884
0.00687923
0.00687956
0.00687985
0.0068801
0.00688032
0.0068805
0.00688065
0.00688078
0.00688089
0.00688098
0.00688105
0.00688111
0.00688115
0.00688117
0.00688119
0.00688119
0.00688117
0.00688115
0.00688111
0.00688105
0.00688098
0.00688089
0.00688078
0.00688065
0.0068805
0.00688032
0.0068801
0.00687985
0.00687956
0.00687923
0.00687884
0.00687839
0.00687788
0.0068773
0.00687663
0.00687588
0.00687503
0.00687407
0.006873
0.00687181
0.00687049
0.00686905
0.00686748
0.00686579
0.00686392
0.00701913
0.00702107
0.00702283
0.00702446
0.00702597
0.00702734
0.00702858
0.00702969
0.00703069
0.00703157
0.00703235
0.00703304
0.00703365
0.00703418
0.00703465
0.00703505
0.0070354
0.0070357
0.00703596
0.00703618
0.00703637
0.00703654
0.00703667
0.00703678
0.00703688
0.00703695
0.00703701
0.00703705
0.00703708
0.00703709
0.00703709
0.00703708
0.00703705
0.00703701
0.00703695
0.00703688
0.00703678
0.00703667
0.00703654
0.00703637
0.00703618
0.00703596
0.0070357
0.0070354
0.00703505
0.00703465
0.00703418
0.00703365
0.00703304
0.00703235
0.00703157
0.00703069
0.00702969
0.00702858
0.00702734
0.00702597
0.00702446
0.00702283
0.00702107
0.00701913
0.00719046
0.00719249
0.00719433
0.00719603
0.0071976
0.00719903
0.00720032
0.00720149
0.00720252
0.00720345
0.00720427
0.00720499
0.00720562
0.00720618
0.00720666
0.00720708
0.00720745
0.00720776
0.00720803
0.00720827
0.00720846
0.00720863
0.00720877
0.00720889
0.00720899
0.00720907
0.00720913
0.00720917
0.0072092
0.00720921
0.00720921
0.0072092
0.00720917
0.00720913
0.00720907
0.00720899
0.00720889
0.00720877
0.00720863
0.00720846
0.00720827
0.00720803
0.00720776
0.00720745
0.00720708
0.00720666
0.00720618
0.00720562
0.00720499
0.00720427
0.00720345
0.00720252
0.00720149
0.00720032
0.00719903
0.0071976
0.00719603
0.00719433
0.00719249
0.00719046
0.00738058
0.0073827
0.00738463
0.00738641
0.00738806
0.00738955
0.00739091
0.00739213
0.00739321
0.00739418
0.00739504
0.0073958
0.00739646
0.00739704
0.00739755
0.00739799
0.00739837
0.00739871
0.00739899
0.00739923
0.00739944
0.00739962
0.00739977
0.00739989
0.00739999
0.00740007
0.00740014
0.00740018
0.00740021
0.00740023
0.00740023
0.00740021
0.00740018
0.00740014
0.00740007
0.00739999
0.00739989
0.00739977
0.00739962
0.00739944
0.00739923
0.00739899
0.00739871
0.00739837
0.00739799
0.00739755
0.00739704
0.00739646
0.0073958
0.00739504
0.00739418
0.00739321
0.00739213
0.00739091
0.00738955
0.00738806
0.00738641
0.00738463
0.0073827
0.00738058
0.00759276
0.007595
0.00759702
0.0075989
0.00760063
0.00760221
0.00760364
0.00760492
0.00760606
0.00760708
0.00760799
0.00760878
0.00760948
0.0076101
0.00761063
0.0076111
0.0076115
0.00761185
0.00761215
0.0076124
0.00761262
0.00761281
0.00761297
0.0076131
0.0076132
0.00761329
0.00761336
0.0076134
0.00761344
0.00761345
0.00761345
0.00761344
0.0076134
0.00761336
0.00761329
0.0076132
0.0076131
0.00761297
0.00761281
0.00761262
0.0076124
0.00761215
0.00761185
0.0076115
0.0076111
0.00761063
0.0076101
0.00760948
0.00760878
0.00760799
0.00760708
0.00760606
0.00760492
0.00760364
0.00760221
0.00760063
0.0075989
0.00759702
0.007595
0.00759276
0.00783115
0.00783352
0.00783566
0.00783765
0.00783948
0.00784115
0.00784266
0.00784402
0.00784523
0.00784631
0.00784727
0.00784811
0.00784885
0.0078495
0.00785007
0.00785056
0.00785099
0.00785136
0.00785167
0.00785195
0.00785218
0.00785238
0.00785254
0.00785268
0.00785279
0.00785288
0.00785295
0.00785301
0.00785304
0.00785306
0.00785306
0.00785304
0.00785301
0.00785295
0.00785288
0.00785279
0.00785268
0.00785254
0.00785238
0.00785218
0.00785195
0.00785167
0.00785136
0.00785099
0.00785056
0.00785007
0.0078495
0.00784885
0.00784811
0.00784727
0.00784631
0.00784523
0.00784402
0.00784266
0.00784115
0.00783948
0.00783765
0.00783566
0.00783352
0.00783115
0.00810102
0.00810354
0.00810583
0.00810795
0.0081099
0.00811168
0.00811328
0.00811473
0.00811602
0.00811717
0.00811819
0.00811909
0.00811988
0.00812057
0.00812117
0.0081217
0.00812215
0.00812255
0.00812288
0.00812317
0.00812342
0.00812363
0.00812381
0.00812396
0.00812408
0.00812417
0.00812425
0.0081243
0.00812434
0.00812436
0.00812436
0.00812434
0.0081243
0.00812425
0.00812417
0.00812408
0.00812396
0.00812381
0.00812363
0.00812342
0.00812317
0.00812288
0.00812255
0.00812215
0.0081217
0.00812117
0.00812057
0.00811988
0.00811909
0.00811819
0.00811717
0.00811602
0.00811473
0.00811328
0.00811168
0.0081099
0.00810795
0.00810583
0.00810354
0.00810102
0.00840921
0.00841192
0.00841437
0.00841665
0.00841874
0.00842065
0.00842237
0.00842392
0.00842531
0.00842654
0.00842764
0.0084286
0.00842945
0.00843019
0.00843084
0.0084314
0.00843189
0.00843231
0.00843268
0.00843299
0.00843326
0.00843348
0.00843367
0.00843383
0.00843396
0.00843406
0.00843415
0.0084342
0.00843424
0.00843426
0.00843426
0.00843424
0.0084342
0.00843415
0.00843406
0.00843396
0.00843383
0.00843367
0.00843348
0.00843326
0.00843299
0.00843268
0.00843231
0.00843189
0.0084314
0.00843084
0.00843019
0.00842945
0.0084286
0.00842764
0.00842654
0.00842531
0.00842392
0.00842237
0.00842065
0.00841874
0.00841665
0.00841437
0.00841192
0.00840921
0.00876477
0.0087677
0.00877035
0.00877281
0.00877508
0.00877714
0.00877901
0.00878069
0.00878219
0.00878353
0.00878471
0.00878575
0.00878667
0.00878748
0.00878818
0.00878879
0.00878932
0.00878978
0.00879017
0.00879051
0.0087908
0.00879105
0.00879125
0.00879142
0.00879156
0.00879168
0.00879176
0.00879183
0.00879187
0.00879189
0.00879189
0.00879187
0.00879183
0.00879176
0.00879168
0.00879156
0.00879142
0.00879125
0.00879105
0.0087908
0.00879051
0.00879017
0.00878978
0.00878932
0.00878879
0.00878818
0.00878748
0.00878667
0.00878575
0.00878471
0.00878353
0.00878219
0.00878069
0.00877901
0.00877714
0.00877508
0.00877281
0.00877035
0.0087677
0.00876477
0.00917989
0.00918309
0.00918599
0.00918868
0.00919116
0.00919342
0.00919546
0.0091973
0.00919894
0.00920041
0.0092017
0.00920285
0.00920385
0.00920473
0.0092055
0.00920617
0.00920675
0.00920725
0.00920769
0.00920806
0.00920837
0.00920864
0.00920887
0.00920906
0.00920921
0.00920933
0.00920943
0.0092095
0.00920955
0.00920957
0.00920957
0.00920955
0.0092095
0.00920943
0.00920933
0.00920921
0.00920906
0.00920887
0.00920864
0.00920837
0.00920806
0.00920769
0.00920725
0.00920675
0.00920617
0.0092055
0.00920473
0.00920385
0.00920285
0.0092017
0.00920041
0.00919894
0.0091973
0.00919546
0.00919342
0.00919116
0.00918868
0.00918599
0.00918309
0.00917989
0.00967144
0.00967498
0.00967819
0.00968117
0.00968392
0.00968642
0.00968869
0.00969073
0.00969255
0.00969417
0.00969561
0.00969688
0.00969799
0.00969897
0.00969983
0.00970057
0.00970121
0.00970177
0.00970225
0.00970266
0.00970301
0.00970331
0.00970356
0.00970377
0.00970394
0.00970408
0.00970419
0.00970426
0.00970431
0.00970434
0.00970434
0.00970431
0.00970426
0.00970419
0.00970408
0.00970394
0.00970377
0.00970356
0.00970331
0.00970301
0.00970266
0.00970225
0.00970177
0.00970121
0.00970057
0.00969983
0.00969897
0.00969799
0.00969688
0.00969561
0.00969417
0.00969255
0.00969073
0.00968869
0.00968642
0.00968392
0.00968117
0.00967819
0.00967498
0.00967144
0.0102633
0.0102673
0.0102709
0.0102742
0.0102773
0.0102802
0.0102827
0.010285
0.0102871
0.0102889
0.0102905
0.0102919
0.0102932
0.0102943
0.0102953
0.0102961
0.0102968
0.0102975
0.010298
0.0102985
0.0102989
0.0102992
0.0102995
0.0102997
0.0102999
0.0103001
0.0103002
0.0103003
0.0103003
0.0103004
0.0103004
0.0103003
0.0103003
0.0103002
0.0103001
0.0102999
0.0102997
0.0102995
0.0102992
0.0102989
0.0102985
0.010298
0.0102975
0.0102968
0.0102961
0.0102953
0.0102943
0.0102932
0.0102919
0.0102905
0.0102889
0.0102871
0.010285
0.0102827
0.0102802
0.0102773
0.0102742
0.0102709
0.0102673
0.0102633
0.0109901
0.0109946
0.0109988
0.0110026
0.0110062
0.0110094
0.0110124
0.011015
0.0110174
0.0110195
0.0110213
0.011023
0.0110244
0.0110257
0.0110268
0.0110278
0.0110286
0.0110293
0.01103
0.0110305
0.011031
0.0110313
0.0110317
0.0110319
0.0110322
0.0110323
0.0110325
0.0110326
0.0110326
0.0110327
0.0110327
0.0110326
0.0110326
0.0110325
0.0110323
0.0110322
0.0110319
0.0110317
0.0110313
0.011031
0.0110305
0.01103
0.0110293
0.0110286
0.0110278
0.0110268
0.0110257
0.0110244
0.011023
0.0110213
0.0110195
0.0110174
0.011015
0.0110124
0.0110094
0.0110062
0.0110026
0.0109988
0.0109946
0.0109901
0.0119027
0.011908
0.0119129
0.0119174
0.0119216
0.0119254
0.0119289
0.011932
0.0119347
0.0119372
0.0119394
0.0119414
0.0119431
0.0119446
0.0119459
0.011947
0.011948
0.0119488
0.0119496
0.0119502
0.0119507
0.0119512
0.0119516
0.0119519
0.0119522
0.0119524
0.0119525
0.0119526
0.0119527
0.0119528
0.0119528
0.0119527
0.0119526
0.0119525
0.0119524
0.0119522
0.0119519
0.0119516
0.0119512
0.0119507
0.0119502
0.0119496
0.0119488
0.011948
0.011947
0.0119459
0.0119446
0.0119431
0.0119414
0.0119394
0.0119372
0.0119347
0.011932
0.0119289
0.0119254
0.0119216
0.0119174
0.0119129
0.011908
0.0119027
0.0130756
0.013082
0.0130878
0.0130933
0.0130984
0.013103
0.0131071
0.0131109
0.0131143
0.0131173
0.0131199
0.0131222
0.0131243
0.0131261
0.0131277
0.0131291
0.0131303
0.0131313
0.0131322
0.0131329
0.0131336
0.0131341
0.0131346
0.013135
0.0131353
0.0131356
0.0131358
0.0131359
0.013136
0.013136
0.013136
0.013136
0.0131359
0.0131358
0.0131356
0.0131353
0.013135
0.0131346
0.0131341
0.0131336
0.0131329
0.0131322
0.0131313
0.0131303
0.0131291
0.0131277
0.0131261
0.0131243
0.0131222
0.0131199
0.0131173
0.0131143
0.0131109
0.0131071
0.013103
0.0130984
0.0130933
0.0130878
0.013082
0.0130756
0.0146145
0.0146223
0.0146296
0.0146363
0.0146426
0.0146483
0.0146534
0.0146581
0.0146623
0.014666
0.0146693
0.0146722
0.0146747
0.0146769
0.0146789
0.0146806
0.0146821
0.0146834
0.0146845
0.0146854
0.0146862
0.0146869
0.0146875
0.014688
0.0146883
0.0146887
0.0146889
0.0146891
0.0146892
0.0146893
0.0146893
0.0146892
0.0146891
0.0146889
0.0146887
0.0146883
0.014688
0.0146875
0.0146869
0.0146862
0.0146854
0.0146845
0.0146834
0.0146821
0.0146806
0.0146789
0.0146769
0.0146747
0.0146722
0.0146693
0.014666
0.0146623
0.0146581
0.0146534
0.0146483
0.0146426
0.0146363
0.0146296
0.0146223
0.0146145
0.0166582
0.016668
0.0166772
0.0166857
0.0166936
0.0167008
0.0167073
0.0167132
0.0167184
0.0167231
0.0167273
0.0167309
0.0167341
0.016737
0.0167394
0.0167416
0.0167435
0.0167451
0.0167465
0.0167477
0.0167487
0.0167495
0.0167503
0.0167509
0.0167514
0.0167518
0.0167521
0.0167523
0.0167525
0.0167525
0.0167525
0.0167525
0.0167523
0.0167521
0.0167518
0.0167514
0.0167509
0.0167503
0.0167495
0.0167487
0.0167477
0.0167465
0.0167451
0.0167435
0.0167416
0.0167394
0.016737
0.0167341
0.0167309
0.0167273
0.0167231
0.0167184
0.0167132
0.0167073
0.0167008
0.0166936
0.0166857
0.0166772
0.016668
0.0166582
0.019367
0.0193794
0.019391
0.0194018
0.0194118
0.019421
0.0194293
0.0194367
0.0194434
0.0194493
0.0194546
0.0194592
0.0194633
0.0194669
0.0194701
0.0194728
0.0194752
0.0194772
0.019479
0.0194805
0.0194818
0.0194829
0.0194838
0.0194846
0.0194852
0.0194857
0.0194861
0.0194864
0.0194866
0.0194867
0.0194867
0.0194866
0.0194864
0.0194861
0.0194857
0.0194852
0.0194846
0.0194838
0.0194829
0.0194818
0.0194805
0.019479
0.0194772
0.0194752
0.0194728
0.0194701
0.0194669
0.0194633
0.0194592
0.0194546
0.0194493
0.0194434
0.0194367
0.0194293
0.019421
0.0194118
0.0194018
0.019391
0.0193794
0.019367
0.0228891
0.0229047
0.0229192
0.0229328
0.0229454
0.0229569
0.0229673
0.0229767
0.0229851
0.0229925
0.0229991
0.023005
0.0230101
0.0230147
0.0230186
0.023022
0.023025
0.0230276
0.0230298
0.0230317
0.0230334
0.0230348
0.0230359
0.0230369
0.0230377
0.0230383
0.0230388
0.0230392
0.0230394
0.0230396
0.0230396
0.0230394
0.0230392
0.0230388
0.0230383
0.0230377
0.0230369
0.0230359
0.0230348
0.0230334
0.0230317
0.0230298
0.0230276
0.023025
0.023022
0.0230186
0.0230147
0.0230101
0.023005
0.0229991
0.0229925
0.0229851
0.0229767
0.0229673
0.0229569
0.0229454
0.0229328
0.0229192
0.0229047
0.0228891
0.0273131
0.0273322
0.0273501
0.0273669
0.0273823
0.0273964
0.0274092
0.0274207
0.0274309
0.0274401
0.0274482
0.0274554
0.0274618
0.0274673
0.0274721
0.0274764
0.02748
0.0274832
0.0274859
0.0274883
0.0274903
0.027492
0.0274934
0.0274946
0.0274956
0.0274964
0.027497
0.0274974
0.0274977
0.0274979
0.0274979
0.0274977
0.0274974
0.027497
0.0274964
0.0274956
0.0274946
0.0274934
0.027492
0.0274903
0.0274883
0.0274859
0.0274832
0.02748
0.0274764
0.0274721
0.0274673
0.0274618
0.0274554
0.0274482
0.0274401
0.0274309
0.0274207
0.0274092
0.0273964
0.0273823
0.0273669
0.0273501
0.0273322
0.0273131
0.032632
0.0326549
0.0326762
0.0326962
0.0327145
0.0327313
0.0327465
0.0327601
0.0327723
0.0327832
0.0327929
0.0328015
0.032809
0.0328156
0.0328213
0.0328264
0.0328307
0.0328345
0.0328378
0.0328406
0.032843
0.032845
0.0328467
0.0328481
0.0328493
0.0328502
0.032851
0.0328515
0.0328518
0.032852
0.032852
0.0328518
0.0328515
0.032851
0.0328502
0.0328493
0.0328481
0.0328467
0.032845
0.032843
0.0328406
0.0328378
0.0328345
0.0328307
0.0328264
0.0328213
0.0328156
0.032809
0.0328015
0.0327929
0.0327832
0.0327723
0.0327601
0.0327465
0.0327313
0.0327145
0.0326962
0.0326762
0.0326549
0.032632
0.0387451
0.0387717
0.0387963
0.0388193
0.0388404
0.0388597
0.0388772
0.0388929
0.038907
0.0389196
0.0389307
0.0389405
0.0389492
0.0389568
0.0389635
0.0389693
0.0389743
0.0389787
0.0389824
0.0389856
0.0389884
0.0389907
0.0389927
0.0389944
0.0389957
0.0389968
0.0389976
0.0389982
0.0389986
0.0389988
0.0389988
0.0389986
0.0389982
0.0389976
0.0389968
0.0389957
0.0389944
0.0389927
0.0389907
0.0389884
0.0389856
0.0389824
0.0389787
0.0389743
0.0389693
0.0389635
0.0389568
0.0389492
0.0389405
0.0389307
0.0389196
0.038907
0.0388929
0.0388772
0.0388597
0.0388404
0.0388193
0.0387963
0.0387717
0.0387451
0.0454987
0.0455287
0.0455564
0.0455821
0.0456058
0.0456274
0.045647
0.0456646
0.0456804
0.0456945
0.045707
0.045718
0.0457277
0.0457363
0.0457437
0.0457502
0.0457559
0.0457608
0.045765
0.0457686
0.0457717
0.0457743
0.0457766
0.0457784
0.0457799
0.0457812
0.0457821
0.0457828
0.0457832
0.0457835
0.0457835
0.0457832
0.0457828
0.0457821
0.0457812
0.0457799
0.0457784
0.0457766
0.0457743
0.0457717
0.0457686
0.045765
0.0457608
0.0457559
0.0457502
0.0457437
0.0457363
0.0457277
0.045718
0.045707
0.0456945
0.0456804
0.0456646
0.045647
0.0456274
0.0456058
0.0455821
0.0455564
0.0455287
0.0454987
0.0527372
0.0527703
0.0528009
0.0528292
0.0528552
0.0528789
0.0529004
0.0529197
0.052937
0.0529525
0.0529662
0.0529783
0.052989
0.0529984
0.0530066
0.0530138
0.05302
0.0530254
0.05303
0.053034
0.0530374
0.0530403
0.0530428
0.0530448
0.0530465
0.0530478