/*--------------------------------*- C++ -*----------------------------------*\
| =========                 |                                                 |
| \\      /  F ield         | foam-extend: Open Source CFD                    |
|  \\    /   O peration     | Version:     4.0                                |
|   \\  /    A nd           | Web:         http://www.foam-extend.org         |
|    \\/     M anipulation  |                                                 |
\*---------------------------------------------------------------------------*/
FoamFile
{
    version     2.0;
    format      ascii;
    class       volScalarField;
    location    "640";
    object      cPlus;
}
// * * * * * * * * * * * * * * * * * * * * * * * * * * * * * * * * * * * * * //

dimensions      [0 0 0 0 0 0 0];

internalField   nonuniform List<scalar> 
6960
(
0.319028
0.319017
0.319017
0.319019
0.319022
0.319024
0.319026
0.319028
0.31903
0.319032
0.319033
0.319034
0.319035
0.319036
0.319037
0.319038
0.319039
0.31904
0.31904
0.319041
0.319041
0.319042
0.319042
0.319042
0.319043
0.319043
0.319043
0.319043
0.319043
0.319043
0.319043
0.319043
0.319043
0.319043
0.319043
0.319043
0.319042
0.319042
0.319042
0.319041
0.319041
0.31904
0.31904
0.319039
0.319038
0.319037
0.319036
0.319035
0.319034
0.319033
0.319032
0.31903
0.319028
0.319026
0.319024
0.319022
0.319019
0.319017
0.319017
0.319028
0.140846
0.140861
0.140866
0.140869
0.140871
0.140873
0.140875
0.140876
0.140878
0.140879
0.14088
0.140881
0.140881
0.140882
0.140883
0.140883
0.140884
0.140885
0.140885
0.140885
0.140886
0.140886
0.140886
0.140887
0.140887
0.140887
0.140887
0.140887
0.140887
0.140887
0.140887
0.140887
0.140887
0.140887
0.140887
0.140887
0.140887
0.140886
0.140886
0.140886
0.140885
0.140885
0.140885
0.140884
0.140883
0.140883
0.140882
0.140881
0.140881
0.14088
0.140879
0.140878
0.140876
0.140875
0.140873
0.140871
0.140869
0.140866
0.140861
0.140846
0.102303
0.102335
0.102343
0.102346
0.102348
0.10235
0.102351
0.102352
0.102353
0.102354
0.102355
0.102355
0.102356
0.102356
0.102357
0.102357
0.102358
0.102358
0.102358
0.102359
0.102359
0.102359
0.102359
0.10236
0.10236
0.10236
0.10236
0.10236
0.10236
0.10236
0.10236
0.10236
0.10236
0.10236
0.10236
0.10236
0.10236
0.102359
0.102359
0.102359
0.102359
0.102358
0.102358
0.102358
0.102357
0.102357
0.102356
0.102356
0.102355
0.102355
0.102354
0.102353
0.102352
0.102351
0.10235
0.102348
0.102346
0.102343
0.102335
0.102303
0.0967187
0.0967631
0.0967732
0.0967768
0.0967789
0.0967804
0.0967816
0.0967827
0.0967836
0.0967844
0.096785
0.0967857
0.0967862
0.0967867
0.0967871
0.0967875
0.0967879
0.0967882
0.0967885
0.0967888
0.096789
0.0967893
0.0967894
0.0967896
0.0967897
0.0967899
0.09679
0.09679
0.0967901
0.0967901
0.0967901
0.0967901
0.09679
0.09679
0.0967899
0.0967897
0.0967896
0.0967894
0.0967893
0.096789
0.0967888
0.0967885
0.0967882
0.0967879
0.0967875
0.0967871
0.0967867
0.0967862
0.0967857
0.096785
0.0967844
0.0967836
0.0967827
0.0967816
0.0967804
0.0967789
0.0967768
0.0967732
0.0967631
0.0967187
0.101929
0.101984
0.101996
0.102001
0.102003
0.102005
0.102006
0.102007
0.102008
0.102009
0.10201
0.10201
0.102011
0.102012
0.102012
0.102012
0.102013
0.102013
0.102013
0.102014
0.102014
0.102014
0.102014
0.102015
0.102015
0.102015
0.102015
0.102015
0.102015
0.102015
0.102015
0.102015
0.102015
0.102015
0.102015
0.102015
0.102015
0.102014
0.102014
0.102014
0.102014
0.102013
0.102013
0.102013
0.102012
0.102012
0.102012
0.102011
0.10201
0.10201
0.102009
0.102008
0.102007
0.102006
0.102005
0.102003
0.102001
0.101996
0.101984
0.101929
0.112534
0.112602
0.112618
0.112623
0.112626
0.112628
0.112629
0.112631
0.112632
0.112633
0.112634
0.112634
0.112635
0.112636
0.112636
0.112637
0.112637
0.112638
0.112638
0.112638
0.112639
0.112639
0.112639
0.112639
0.112639
0.11264
0.11264
0.11264
0.11264
0.11264
0.11264
0.11264
0.11264
0.11264
0.11264
0.112639
0.112639
0.112639
0.112639
0.112639
0.112638
0.112638
0.112638
0.112637
0.112637
0.112636
0.112636
0.112635
0.112634
0.112634
0.112633
0.112632
0.112631
0.112629
0.112628
0.112626
0.112623
0.112618
0.112602
0.112534
0.127401
0.127485
0.127503
0.12751
0.127513
0.127515
0.127517
0.127519
0.12752
0.127521
0.127522
0.127523
0.127524
0.127525
0.127526
0.127526
0.127527
0.127527
0.127528
0.127528
0.127529
0.127529
0.127529
0.127529
0.12753
0.12753
0.12753
0.12753
0.12753
0.12753
0.12753
0.12753
0.12753
0.12753
0.12753
0.12753
0.127529
0.127529
0.127529
0.127529
0.127528
0.127528
0.127527
0.127527
0.127526
0.127526
0.127525
0.127524
0.127523
0.127522
0.127521
0.12752
0.127519
0.127517
0.127515
0.127513
0.12751
0.127503
0.127485
0.127401
0.146463
0.146565
0.146588
0.146596
0.1466
0.146602
0.146605
0.146607
0.146608
0.14661
0.146611
0.146612
0.146613
0.146614
0.146615
0.146615
0.146616
0.146617
0.146617
0.146618
0.146618
0.146618
0.146619
0.146619
0.146619
0.146619
0.14662
0.14662
0.14662
0.14662
0.14662
0.14662
0.14662
0.14662
0.146619
0.146619
0.146619
0.146619
0.146618
0.146618
0.146618
0.146617
0.146617
0.146616
0.146615
0.146615
0.146614
0.146613
0.146612
0.146611
0.14661
0.146608
0.146607
0.146605
0.146602
0.1466
0.146596
0.146588
0.146565
0.146463
0.169684
0.169807
0.169835
0.169844
0.169849
0.169852
0.169855
0.169857
0.169859
0.16986
0.169862
0.169863
0.169864
0.169865
0.169866
0.169867
0.169868
0.169868
0.169869
0.169869
0.16987
0.16987
0.169871
0.169871
0.169871
0.169872
0.169872
0.169872
0.169872
0.169872
0.169872
0.169872
0.169872
0.169872
0.169872
0.169871
0.169871
0.169871
0.16987
0.16987
0.169869
0.169869
0.169868
0.169868
0.169867
0.169866
0.169865
0.169864
0.169863
0.169862
0.16986
0.169859
0.169857
0.169855
0.169852
0.169849
0.169844
0.169835
0.169807
0.169684
0.196683
0.196828
0.196861
0.196872
0.196877
0.19688
0.196883
0.196886
0.196888
0.196889
0.196891
0.196892
0.196894
0.196895
0.196896
0.196897
0.196897
0.196898
0.196899
0.196899
0.1969
0.196901
0.196901
0.196901
0.196902
0.196902
0.196902
0.196902
0.196902
0.196902
0.196902
0.196902
0.196902
0.196902
0.196902
0.196902
0.196901
0.196901
0.196901
0.1969
0.196899
0.196899
0.196898
0.196897
0.196897
0.196896
0.196895
0.196894
0.196892
0.196891
0.196889
0.196888
0.196886
0.196883
0.19688
0.196877
0.196872
0.196861
0.196828
0.196683
0.226695
0.22686
0.226899
0.226911
0.226916
0.22692
0.226923
0.226926
0.226928
0.22693
0.226931
0.226933
0.226934
0.226935
0.226936
0.226937
0.226938
0.226939
0.22694
0.22694
0.226941
0.226941
0.226942
0.226942
0.226943
0.226943
0.226943
0.226943
0.226943
0.226943
0.226943
0.226943
0.226943
0.226943
0.226943
0.226943
0.226942
0.226942
0.226941
0.226941
0.22694
0.22694
0.226939
0.226938
0.226937
0.226936
0.226935
0.226934
0.226933
0.226931
0.22693
0.226928
0.226926
0.226923
0.22692
0.226916
0.226911
0.226899
0.22686
0.226695
0.25874
0.258925
0.258968
0.258981
0.258987
0.258991
0.258994
0.258997
0.258999
0.259001
0.259003
0.259004
0.259005
0.259006
0.259008
0.259009
0.259009
0.25901
0.259011
0.259012
0.259012
0.259013
0.259013
0.259014
0.259014
0.259014
0.259014
0.259015
0.259015
0.259015
0.259015
0.259015
0.259015
0.259014
0.259014
0.259014
0.259014
0.259013
0.259013
0.259012
0.259012
0.259011
0.25901
0.259009
0.259009
0.259008
0.259006
0.259005
0.259004
0.259003
0.259001
0.258999
0.258997
0.258994
0.258991
0.258987
0.258981
0.258968
0.258925
0.25874
0.291853
0.292055
0.292103
0.292117
0.292123
0.292127
0.29213
0.292133
0.292135
0.292137
0.292139
0.29214
0.292141
0.292143
0.292144
0.292145
0.292145
0.292146
0.292147
0.292148
0.292148
0.292149
0.292149
0.29215
0.29215
0.29215
0.29215
0.292151
0.292151
0.292151
0.292151
0.292151
0.292151
0.29215
0.29215
0.29215
0.29215
0.292149
0.292149
0.292148
0.292148
0.292147
0.292146
0.292145
0.292145
0.292144
0.292143
0.292141
0.29214
0.292139
0.292137
0.292135
0.292133
0.29213
0.292127
0.292123
0.292117
0.292103
0.292055
0.291853
0.325244
0.325462
0.325514
0.325529
0.325535
0.325539
0.325542
0.325545
0.325547
0.325549
0.32555
0.325552
0.325553
0.325554
0.325555
0.325556
0.325557
0.325557
0.325558
0.325559
0.325559
0.32556
0.32556
0.325561
0.325561
0.325561
0.325561
0.325562
0.325562
0.325562
0.325562
0.325562
0.325562
0.325561
0.325561
0.325561
0.325561
0.32556
0.32556
0.325559
0.325559
0.325558
0.325557
0.325557
0.325556
0.325555
0.325554
0.325553
0.325552
0.32555
0.325549
0.325547
0.325545
0.325542
0.325539
0.325535
0.325529
0.325514
0.325462
0.325244
0.358352
0.358583
0.358638
0.358655
0.358661
0.358665
0.358668
0.35867
0.358672
0.358674
0.358675
0.358677
0.358678
0.358679
0.35868
0.358681
0.358682
0.358682
0.358683
0.358684
0.358684
0.358685
0.358685
0.358686
0.358686
0.358686
0.358686
0.358686
0.358687
0.358687
0.358687
0.358687
0.358686
0.358686
0.358686
0.358686
0.358686
0.358685
0.358685
0.358684
0.358684
0.358683
0.358682
0.358682
0.358681
0.35868
0.358679
0.358678
0.358677
0.358675
0.358674
0.358672
0.35867
0.358668
0.358665
0.358661
0.358655
0.358638
0.358583
0.358352
0.390815
0.391058
0.391118
0.391135
0.391141
0.391145
0.391148
0.39115
0.391152
0.391154
0.391155
0.391156
0.391157
0.391158
0.391159
0.39116
0.391161
0.391162
0.391162
0.391163
0.391163
0.391164
0.391164
0.391164
0.391165
0.391165
0.391165
0.391165
0.391165
0.391166
0.391166
0.391165
0.391165
0.391165
0.391165
0.391165
0.391164
0.391164
0.391164
0.391163
0.391163
0.391162
0.391162
0.391161
0.39116
0.391159
0.391158
0.391157
0.391156
0.391155
0.391154
0.391152
0.39115
0.391148
0.391145
0.391141
0.391135
0.391118
0.391058
0.390815
0.422422
0.422674
0.422738
0.422755
0.422762
0.422766
0.422768
0.42277
0.422772
0.422774
0.422775
0.422776
0.422777
0.422778
0.422779
0.42278
0.422781
0.422781
0.422782
0.422782
0.422783
0.422783
0.422784
0.422784
0.422784
0.422784
0.422785
0.422785
0.422785
0.422785
0.422785
0.422785
0.422785
0.422785
0.422784
0.422784
0.422784
0.422784
0.422783
0.422783
0.422782
0.422782
0.422781
0.422781
0.42278
0.422779
0.422778
0.422777
0.422776
0.422775
0.422774
0.422772
0.42277
0.422768
0.422766
0.422762
0.422755
0.422738
0.422674
0.422422
0.45305
0.453312
0.453378
0.453396
0.453403
0.453407
0.453409
0.453411
0.453413
0.453414
0.453416
0.453417
0.453418
0.453419
0.453419
0.45342
0.453421
0.453421
0.453422
0.453422
0.453423
0.453423
0.453424
0.453424
0.453424
0.453424
0.453425
0.453425
0.453425
0.453425
0.453425
0.453425
0.453425
0.453425
0.453424
0.453424
0.453424
0.453424
0.453423
0.453423
0.453422
0.453422
0.453421
0.453421
0.45342
0.453419
0.453419
0.453418
0.453417
0.453416
0.453414
0.453413
0.453411
0.453409
0.453407
0.453403
0.453396
0.453378
0.453312
0.45305
0.482636
0.482905
0.482975
0.482994
0.483001
0.483005
0.483007
0.483009
0.48301
0.483012
0.483013
0.483014
0.483015
0.483016
0.483016
0.483017
0.483018
0.483018
0.483019
0.483019
0.48302
0.48302
0.48302
0.483021
0.483021
0.483021
0.483021
0.483021
0.483021
0.483021
0.483021
0.483021
0.483021
0.483021
0.483021
0.483021
0.483021
0.48302
0.48302
0.48302
0.483019
0.483019
0.483018
0.483018
0.483017
0.483016
0.483016
0.483015
0.483014
0.483013
0.483012
0.48301
0.483009
0.483007
0.483005
0.483001
0.482994
0.482975
0.482905
0.482636
0.511149
0.511424
0.511497
0.511517
0.511524
0.511528
0.51153
0.511532
0.511533
0.511534
0.511535
0.511536
0.511537
0.511538
0.511539
0.511539
0.51154
0.51154
0.511541
0.511541
0.511542
0.511542
0.511542
0.511543
0.511543
0.511543
0.511543
0.511543
0.511543
0.511543
0.511543
0.511543
0.511543
0.511543
0.511543
0.511543
0.511543
0.511542
0.511542
0.511542
0.511541
0.511541
0.51154
0.51154
0.511539
0.511539
0.511538
0.511537
0.511536
0.511535
0.511534
0.511533
0.511532
0.51153
0.511528
0.511524
0.511517
0.511497
0.511424
0.511149
0.538576
0.538857
0.538933
0.538954
0.538961
0.538964
0.538966
0.538968
0.538969
0.53897
0.538971
0.538972
0.538973
0.538974
0.538974
0.538975
0.538975
0.538976
0.538976
0.538977
0.538977
0.538977
0.538978
0.538978
0.538978
0.538978
0.538979
0.538979
0.538979
0.538979
0.538979
0.538979
0.538979
0.538979
0.538978
0.538978
0.538978
0.538978
0.538977
0.538977
0.538977
0.538976
0.538976
0.538975
0.538975
0.538974
0.538974
0.538973
0.538972
0.538971
0.53897
0.538969
0.538968
0.538966
0.538964
0.538961
0.538954
0.538933
0.538857
0.538576
0.564918
0.565203
0.565281
0.565303
0.56531
0.565313
0.565315
0.565317
0.565318
0.565319
0.56532
0.565321
0.565322
0.565322
0.565323
0.565324
0.565324
0.565325
0.565325
0.565325
0.565326
0.565326
0.565326
0.565327
0.565327
0.565327
0.565327
0.565327
0.565327
0.565327
0.565327
0.565327
0.565327
0.565327
0.565327
0.565327
0.565327
0.565326
0.565326
0.565326
0.565325
0.565325
0.565325
0.565324
0.565324
0.565323
0.565322
0.565322
0.565321
0.56532
0.565319
0.565318
0.565317
0.565315
0.565313
0.56531
0.565303
0.565281
0.565203
0.564918
0.590181
0.59047
0.590551
0.590573
0.59058
0.590584
0.590585
0.590587
0.590588
0.590589
0.59059
0.590591
0.590591
0.590592
0.590593
0.590593
0.590594
0.590594
0.590594
0.590595
0.590595
0.590595
0.590596
0.590596
0.590596
0.590596
0.590596
0.590596
0.590596
0.590596
0.590596
0.590596
0.590596
0.590596
0.590596
0.590596
0.590596
0.590596
0.590595
0.590595
0.590595
0.590594
0.590594
0.590594
0.590593
0.590593
0.590592
0.590591
0.590591
0.59059
0.590589
0.590588
0.590587
0.590585
0.590584
0.59058
0.590573
0.590551
0.59047
0.590181
0.614379
0.614669
0.614753
0.614776
0.614783
0.614787
0.614788
0.61479
0.614791
0.614792
0.614792
0.614793
0.614794
0.614794
0.614795
0.614795
0.614796
0.614796
0.614797
0.614797
0.614797
0.614798
0.614798
0.614798
0.614798
0.614798
0.614798
0.614799
0.614799
0.614799
0.614799
0.614799
0.614799
0.614798
0.614798
0.614798
0.614798
0.614798
0.614798
0.614797
0.614797
0.614797
0.614796
0.614796
0.614795
0.614795
0.614794
0.614794
0.614793
0.614792
0.614792
0.614791
0.61479
0.614788
0.614787
0.614783
0.614776
0.614753
0.614669
0.614379
0.637526
0.637818
0.637904
0.637928
0.637935
0.637938
0.63794
0.637941
0.637942
0.637943
0.637944
0.637945
0.637945
0.637946
0.637946
0.637947
0.637947
0.637947
0.637948
0.637948
0.637948
0.637949
0.637949
0.637949
0.637949
0.637949
0.63795
0.63795
0.63795
0.63795
0.63795
0.63795
0.63795
0.63795
0.637949
0.637949
0.637949
0.637949
0.637949
0.637948
0.637948
0.637948
0.637947
0.637947
0.637947
0.637946
0.637946
0.637945
0.637945
0.637944
0.637943
0.637942
0.637941
0.63794
0.637938
0.637935
0.637928
0.637904
0.637818
0.637526
0.659642
0.659934
0.660022
0.660047
0.660055
0.660058
0.660059
0.660061
0.660061
0.660062
0.660063
0.660064
0.660064
0.660065
0.660065
0.660065
0.660066
0.660066
0.660066
0.660067
0.660067
0.660067
0.660067
0.660068
0.660068
0.660068
0.660068
0.660068
0.660068
0.660068
0.660068
0.660068
0.660068
0.660068
0.660068
0.660068
0.660068
0.660067
0.660067
0.660067
0.660067
0.660066
0.660066
0.660066
0.660065
0.660065
0.660065
0.660064
0.660064
0.660063
0.660062
0.660061
0.660061
0.660059
0.660058
0.660055
0.660047
0.660022
0.659934
0.659642
0.680746
0.681038
0.681128
0.681154
0.681162
0.681165
0.681167
0.681168
0.681169
0.681169
0.68117
0.68117
0.681171
0.681171
0.681172
0.681172
0.681173
0.681173
0.681173
0.681173
0.681174
0.681174
0.681174
0.681174
0.681174
0.681175
0.681175
0.681175
0.681175
0.681175
0.681175
0.681175
0.681175
0.681175
0.681175
0.681174
0.681174
0.681174
0.681174
0.681174
0.681173
0.681173
0.681173
0.681173
0.681172
0.681172
0.681171
0.681171
0.68117
0.68117
0.681169
0.681169
0.681168
0.681167
0.681165
0.681162
0.681154
0.681128
0.681038
0.680746
0.700862
0.701153
0.701244
0.701271
0.701279
0.701282
0.701284
0.701285
0.701286
0.701286
0.701287
0.701288
0.701288
0.701288
0.701289
0.701289
0.70129
0.70129
0.70129
0.70129
0.701291
0.701291
0.701291
0.701291
0.701291
0.701291
0.701291
0.701292
0.701292
0.701292
0.701292
0.701292
0.701292
0.701291
0.701291
0.701291
0.701291
0.701291
0.701291
0.701291
0.70129
0.70129
0.70129
0.70129
0.701289
0.701289
0.701288
0.701288
0.701288
0.701287
0.701286
0.701286
0.701285
0.701284
0.701282
0.701279
0.701271
0.701244
0.701153
0.700862
0.720013
0.720302
0.720394
0.720422
0.72043
0.720433
0.720435
0.720436
0.720437
0.720437
0.720438
0.720438
0.720439
0.720439
0.720439
0.72044
0.72044
0.72044
0.720441
0.720441
0.720441
0.720441
0.720441
0.720442
0.720442
0.720442
0.720442
0.720442
0.720442
0.720442
0.720442
0.720442
0.720442
0.720442
0.720442
0.720442
0.720442
0.720441
0.720441
0.720441
0.720441
0.720441
0.72044
0.72044
0.72044
0.720439
0.720439
0.720439
0.720438
0.720438
0.720437
0.720437
0.720436
0.720435
0.720433
0.72043
0.720422
0.720394
0.720302
0.720013
0.738222
0.738508
0.738602
0.738631
0.73864
0.738643
0.738644
0.738645
0.738646
0.738646
0.738647
0.738647
0.738648
0.738648
0.738648
0.738649
0.738649
0.738649
0.738649
0.73865
0.73865
0.73865
0.73865
0.73865
0.73865
0.73865
0.738651
0.738651
0.738651
0.738651
0.738651
0.738651
0.738651
0.738651
0.73865
0.73865
0.73865
0.73865
0.73865
0.73865
0.73865
0.738649
0.738649
0.738649
0.738649
0.738648
0.738648
0.738648
0.738647
0.738647
0.738646
0.738646
0.738645
0.738644
0.738643
0.73864
0.738631
0.738602
0.738508
0.738222
0.755516
0.755799
0.755894
0.755923
0.755932
0.755935
0.755937
0.755937
0.755938
0.755939
0.755939
0.755939
0.75594
0.75594
0.755941
0.755941
0.755941
0.755941
0.755942
0.755942
0.755942
0.755942
0.755942
0.755942
0.755942
0.755943
0.755943
0.755943
0.755943
0.755943
0.755943
0.755943
0.755943
0.755943
0.755943
0.755942
0.755942
0.755942
0.755942
0.755942
0.755942
0.755942
0.755941
0.755941
0.755941
0.755941
0.75594
0.75594
0.755939
0.755939
0.755939
0.755938
0.755937
0.755937
0.755935
0.755932
0.755923
0.755894
0.755799
0.755516
0.77192
0.772199
0.772295
0.772325
0.772334
0.772337
0.772339
0.77234
0.77234
0.772341
0.772341
0.772342
0.772342
0.772342
0.772342
0.772343
0.772343
0.772343
0.772343
0.772344
0.772344
0.772344
0.772344
0.772344
0.772344
0.772344
0.772344
0.772344
0.772345
0.772345
0.772345
0.772345
0.772344
0.772344
0.772344
0.772344
0.772344
0.772344
0.772344
0.772344
0.772344
0.772343
0.772343
0.772343
0.772343
0.772342
0.772342
0.772342
0.772342
0.772341
0.772341
0.77234
0.77234
0.772339
0.772337
0.772334
0.772325
0.772295
0.772199
0.77192
0.787461
0.787736
0.787833
0.787863
0.787873
0.787876
0.787877
0.787878
0.787879
0.787879
0.78788
0.78788
0.78788
0.787881
0.787881
0.787881
0.787881
0.787882
0.787882
0.787882
0.787882
0.787882
0.787882
0.787882
0.787883
0.787883
0.787883
0.787883
0.787883
0.787883
0.787883
0.787883
0.787883
0.787883
0.787883
0.787883
0.787882
0.787882
0.787882
0.787882
0.787882
0.787882
0.787882
0.787881
0.787881
0.787881
0.787881
0.78788
0.78788
0.78788
0.787879
0.787879
0.787878
0.787877
0.787876
0.787873
0.787863
0.787833
0.787736
0.787461
0.802167
0.802437
0.802534
0.802565
0.802575
0.802578
0.80258
0.802581
0.802581
0.802581
0.802582
0.802582
0.802582
0.802583
0.802583
0.802583
0.802583
0.802584
0.802584
0.802584
0.802584
0.802584
0.802584
0.802584
0.802584
0.802585
0.802585
0.802585
0.802585
0.802585
0.802585
0.802585
0.802585
0.802585
0.802585
0.802584
0.802584
0.802584
0.802584
0.802584
0.802584
0.802584
0.802584
0.802583
0.802583
0.802583
0.802583
0.802582
0.802582
0.802582
0.802581
0.802581
0.802581
0.80258
0.802578
0.802575
0.802565
0.802534
0.802437
0.802167
0.816065
0.816329
0.816427
0.816459
0.816469
0.816472
0.816473
0.816474
0.816475
0.816475
0.816475
0.816476
0.816476
0.816476
0.816476
0.816477
0.816477
0.816477
0.816477
0.816477
0.816477
0.816478
0.816478
0.816478
0.816478
0.816478
0.816478
0.816478
0.816478
0.816478
0.816478
0.816478
0.816478
0.816478
0.816478
0.816478
0.816478
0.816478
0.816478
0.816477
0.816477
0.816477
0.816477
0.816477
0.816477
0.816476
0.816476
0.816476
0.816476
0.816475
0.816475
0.816475
0.816474
0.816473
0.816472
0.816469
0.816459
0.816427
0.816329
0.816065
0.829183
0.829441
0.829539
0.829571
0.829582
0.829585
0.829587
0.829587
0.829588
0.829588
0.829588
0.829589
0.829589
0.829589
0.829589
0.829589
0.82959
0.82959
0.82959
0.82959
0.82959
0.82959
0.82959
0.82959
0.829591
0.829591
0.829591
0.829591
0.829591
0.829591
0.829591
0.829591
0.829591
0.829591
0.829591
0.829591
0.82959
0.82959
0.82959
0.82959
0.82959
0.82959
0.82959
0.82959
0.829589
0.829589
0.829589
0.829589
0.829589
0.829588
0.829588
0.829588
0.829587
0.829587
0.829585
0.829582
0.829571
0.829539
0.829441
0.829183
0.841549
0.841801
0.841898
0.841931
0.841942
0.841946
0.841947
0.841948
0.841948
0.841949
0.841949
0.841949
0.841949
0.841949
0.84195
0.84195
0.84195
0.84195
0.84195
0.84195
0.841951
0.841951
0.841951
0.841951
0.841951
0.841951
0.841951
0.841951
0.841951
0.841951
0.841951
0.841951
0.841951
0.841951
0.841951
0.841951
0.841951
0.841951
0.841951
0.841951
0.84195
0.84195
0.84195
0.84195
0.84195
0.84195
0.841949
0.841949
0.841949
0.841949
0.841949
0.841948
0.841948
0.841947
0.841946
0.841942
0.841931
0.841898
0.841801
0.841549
0.853192
0.853437
0.853534
0.853567
0.853578
0.853582
0.853584
0.853584
0.853585
0.853585
0.853585
0.853585
0.853586
0.853586
0.853586
0.853586
0.853586
0.853586
0.853586
0.853587
0.853587
0.853587
0.853587
0.853587
0.853587
0.853587
0.853587
0.853587
0.853587
0.853587
0.853587
0.853587
0.853587
0.853587
0.853587
0.853587
0.853587
0.853587
0.853587
0.853587
0.853587
0.853586
0.853586
0.853586
0.853586
0.853586
0.853586
0.853586
0.853585
0.853585
0.853585
0.853585
0.853584
0.853584
0.853582
0.853578
0.853567
0.853534
0.853437
0.853192
0.864139
0.864378
0.864473
0.864507
0.864519
0.864523
0.864524
0.864525
0.864525
0.864525
0.864526
0.864526
0.864526
0.864526
0.864526
0.864526
0.864527
0.864527
0.864527
0.864527
0.864527
0.864527
0.864527
0.864527
0.864527
0.864527
0.864527
0.864527
0.864527
0.864528
0.864528
0.864527
0.864527
0.864527
0.864527
0.864527
0.864527
0.864527
0.864527
0.864527
0.864527
0.864527
0.864527
0.864527
0.864526
0.864526
0.864526
0.864526
0.864526
0.864526
0.864525
0.864525
0.864525
0.864524
0.864523
0.864519
0.864507
0.864473
0.864378
0.864139
0.874419
0.874651
0.874746
0.87478
0.874792
0.874796
0.874797
0.874798
0.874798
0.874798
0.874799
0.874799
0.874799
0.874799
0.874799
0.874799
0.8748
0.8748
0.8748
0.8748
0.8748
0.8748
0.8748
0.8748
0.8748
0.8748
0.8748
0.8748
0.8748
0.8748
0.8748
0.8748
0.8748
0.8748
0.8748
0.8748
0.8748
0.8748
0.8748
0.8748
0.8748
0.8748
0.8748
0.8748
0.874799
0.874799
0.874799
0.874799
0.874799
0.874799
0.874798
0.874798
0.874798
0.874797
0.874796
0.874792
0.87478
0.874746
0.874651
0.874419
0.884061
0.884285
0.884379
0.884413
0.884425
0.884429
0.884431
0.884432
0.884432
0.884432
0.884432
0.884432
0.884433
0.884433
0.884433
0.884433
0.884433
0.884433
0.884433
0.884433
0.884433
0.884434
0.884434
0.884434
0.884434
0.884434
0.884434
0.884434
0.884434
0.884434
0.884434
0.884434
0.884434
0.884434
0.884434
0.884434
0.884434
0.884434
0.884434
0.884433
0.884433
0.884433
0.884433
0.884433
0.884433
0.884433
0.884433
0.884433
0.884432
0.884432
0.884432
0.884432
0.884432
0.884431
0.884429
0.884425
0.884413
0.884379
0.884285
0.884061
0.893091
0.893308
0.8934
0.893435
0.893447
0.893452
0.893453
0.893454
0.893454
0.893454
0.893454
0.893455
0.893455
0.893455
0.893455
0.893455
0.893455
0.893455
0.893455
0.893455
0.893456
0.893456
0.893456
0.893456
0.893456
0.893456
0.893456
0.893456
0.893456
0.893456
0.893456
0.893456
0.893456
0.893456
0.893456
0.893456
0.893456
0.893456
0.893456
0.893456
0.893455
0.893455
0.893455
0.893455
0.893455
0.893455
0.893455
0.893455
0.893455
0.893454
0.893454
0.893454
0.893454
0.893453
0.893452
0.893447
0.893435
0.8934
0.893308
0.893091
0.901539
0.901747
0.901838
0.901873
0.901886
0.90189
0.901892
0.901892
0.901892
0.901893
0.901893
0.901893
0.901893
0.901893
0.901893
0.901893
0.901893
0.901894
0.901894
0.901894
0.901894
0.901894
0.901894
0.901894
0.901894
0.901894
0.901894
0.901894
0.901894
0.901894
0.901894
0.901894
0.901894
0.901894
0.901894
0.901894
0.901894
0.901894
0.901894
0.901894
0.901894
0.901894
0.901894
0.901893
0.901893
0.901893
0.901893
0.901893
0.901893
0.901893
0.901893
0.901892
0.901892
0.901892
0.90189
0.901886
0.901873
0.901838
0.901747
0.901539
0.90943
0.90963
0.909719
0.909754
0.909767
0.909772
0.909773
0.909774
0.909774
0.909775
0.909775
0.909775
0.909775
0.909775
0.909775
0.909775
0.909775
0.909775
0.909775
0.909775
0.909776
0.909776
0.909776
0.909776
0.909776
0.909776
0.909776
0.909776
0.909776
0.909776
0.909776
0.909776
0.909776
0.909776
0.909776
0.909776
0.909776
0.909776
0.909776
0.909776
0.909775
0.909775
0.909775
0.909775
0.909775
0.909775
0.909775
0.909775
0.909775
0.909775
0.909775
0.909774
0.909774
0.909773
0.909772
0.909767
0.909754
0.909719
0.90963
0.90943
0.916791
0.916984
0.917071
0.917106
0.917119
0.917124
0.917126
0.917126
0.917127
0.917127
0.917127
0.917127
0.917127
0.917127
0.917127
0.917127
0.917127
0.917127
0.917128
0.917128
0.917128
0.917128
0.917128
0.917128
0.917128
0.917128
0.917128
0.917128
0.917128
0.917128
0.917128
0.917128
0.917128
0.917128
0.917128
0.917128
0.917128
0.917128
0.917128
0.917128
0.917128
0.917128
0.917127
0.917127
0.917127
0.917127
0.917127
0.917127
0.917127
0.917127
0.917127
0.917127
0.917126
0.917126
0.917124
0.917119
0.917106
0.917071
0.916984
0.916791
0.92365
0.923834
0.92392
0.923955
0.923968
0.923973
0.923975
0.923975
0.923976
0.923976
0.923976
0.923976
0.923976
0.923976
0.923976
0.923976
0.923976
0.923976
0.923976
0.923976
0.923976
0.923976
0.923977
0.923977
0.923977
0.923977
0.923977
0.923977
0.923977
0.923977
0.923977
0.923977
0.923977
0.923977
0.923977
0.923977
0.923977
0.923977
0.923976
0.923976
0.923976
0.923976
0.923976
0.923976
0.923976
0.923976
0.923976
0.923976
0.923976
0.923976
0.923976
0.923976
0.923975
0.923975
0.923973
0.923968
0.923955
0.92392
0.923834
0.92365
0.930031
0.930207
0.930291
0.930326
0.930339
0.930344
0.930346
0.930347
0.930347
0.930347
0.930347
0.930347
0.930347
0.930347
0.930347
0.930348
0.930348
0.930348
0.930348
0.930348
0.930348
0.930348
0.930348
0.930348
0.930348
0.930348
0.930348
0.930348
0.930348
0.930348
0.930348
0.930348
0.930348
0.930348
0.930348
0.930348
0.930348
0.930348
0.930348
0.930348
0.930348
0.930348
0.930348
0.930348
0.930348
0.930347
0.930347
0.930347
0.930347
0.930347
0.930347
0.930347
0.930347
0.930346
0.930344
0.930339
0.930326
0.930291
0.930207
0.930031
0.935961
0.936129
0.93621
0.936244
0.936258
0.936263
0.936265
0.936266
0.936266
0.936266
0.936266
0.936266
0.936266
0.936267
0.936267
0.936267
0.936267
0.936267
0.936267
0.936267
0.936267
0.936267
0.936267
0.936267
0.936267
0.936267
0.936267
0.936267
0.936267
0.936267
0.936267
0.936267
0.936267
0.936267
0.936267
0.936267
0.936267
0.936267
0.936267
0.936267
0.936267
0.936267
0.936267
0.936267
0.936267
0.936267
0.936267
0.936266
0.936266
0.936266
0.936266
0.936266
0.936266
0.936265
0.936263
0.936258
0.936244
0.93621
0.936129
0.935961
0.941462
0.941623
0.941701
0.941736
0.941749
0.941755
0.941757
0.941757
0.941758
0.941758
0.941758
0.941758
0.941758
0.941758
0.941758
0.941758
0.941758
0.941758
0.941758
0.941758
0.941758
0.941758
0.941758
0.941758
0.941758
0.941758
0.941758
0.941758
0.941758
0.941758
0.941758
0.941758
0.941758
0.941758
0.941758
0.941758
0.941758
0.941758
0.941758
0.941758
0.941758
0.941758
0.941758
0.941758
0.941758
0.941758
0.941758
0.941758
0.941758
0.941758
0.941758
0.941758
0.941757
0.941757
0.941755
0.941749
0.941736
0.941701
0.941623
0.941462
0.946561
0.946713
0.946789
0.946823
0.946837
0.946842
0.946844
0.946845
0.946845
0.946845
0.946846
0.946846
0.946846
0.946846
0.946846
0.946846
0.946846
0.946846
0.946846
0.946846
0.946846
0.946846
0.946846
0.946846
0.946846
0.946846
0.946846
0.946846
0.946846
0.946846
0.946846
0.946846
0.946846
0.946846
0.946846
0.946846
0.946846
0.946846
0.946846
0.946846
0.946846
0.946846
0.946846
0.946846
0.946846
0.946846
0.946846
0.946846
0.946846
0.946846
0.946845
0.946845
0.946845
0.946844
0.946842
0.946837
0.946823
0.946789
0.946713
0.946561
0.951278
0.951423
0.951496
0.95153
0.951544
0.951549
0.951551
0.951552
0.951552
0.951553
0.951553
0.951553
0.951553
0.951553
0.951553
0.951553
0.951553
0.951553
0.951553
0.951553
0.951553
0.951553
0.951553
0.951553
0.951553
0.951553
0.951553
0.951553
0.951553
0.951553
0.951553
0.951553
0.951553
0.951553
0.951553
0.951553
0.951553
0.951553
0.951553
0.951553
0.951553
0.951553
0.951553
0.951553
0.951553
0.951553
0.951553
0.951553
0.951553
0.951553
0.951553
0.951552
0.951552
0.951551
0.951549
0.951544
0.95153
0.951496
0.951423
0.951278
0.955638
0.955775
0.955846
0.955879
0.955893
0.955898
0.9559
0.955901
0.955901
0.955902
0.955902
0.955902
0.955902
0.955902
0.955902
0.955902
0.955902
0.955902
0.955902
0.955902
0.955902
0.955902
0.955902
0.955902
0.955902
0.955902
0.955902
0.955902
0.955902
0.955902
0.955902
0.955902
0.955902
0.955902
0.955902
0.955902
0.955902
0.955902
0.955902
0.955902
0.955902
0.955902
0.955902
0.955902
0.955902
0.955902
0.955902
0.955902
0.955902
0.955902
0.955902
0.955901
0.955901
0.9559
0.955898
0.955893
0.955879
0.955846
0.955775
0.955638
0.959661
0.95979
0.959859
0.959891
0.959905
0.95991
0.959913
0.959914
0.959914
0.959914
0.959914
0.959914
0.959914
0.959914
0.959914
0.959914
0.959914
0.959914
0.959914
0.959914
0.959914
0.959914
0.959914
0.959914
0.959914
0.959914
0.959914
0.959914
0.959914
0.959914
0.959914
0.959914
0.959914
0.959914
0.959914
0.959914
0.959914
0.959914
0.959914
0.959914
0.959914
0.959914
0.959914
0.959914
0.959914
0.959914
0.959914
0.959914
0.959914
0.959914
0.959914
0.959914
0.959914
0.959913
0.95991
0.959905
0.959891
0.959859
0.95979
0.959661
0.963368
0.96349
0.963556
0.963587
0.963601
0.963607
0.963609
0.96361
0.963611
0.963611
0.963611
0.963611
0.963611
0.963611
0.963611
0.963611
0.963611
0.963611
0.963611
0.963611
0.963611
0.963611
0.963611
0.963611
0.963611
0.963611
0.963611
0.963611
0.963611
0.963611
0.963611
0.963611
0.963611
0.963611
0.963611
0.963611
0.963611
0.963611
0.963611
0.963611
0.963611
0.963611
0.963611
0.963611
0.963611
0.963611
0.963611
0.963611
0.963611
0.963611
0.963611
0.963611
0.96361
0.963609
0.963607
0.963601
0.963587
0.963556
0.96349
0.963368
0.96678
0.966895
0.966958
0.966988
0.967002
0.967008
0.967011
0.967012
0.967012
0.967012
0.967012
0.967012
0.967012
0.967012
0.967012
0.967012
0.967012
0.967012
0.967012
0.967012
0.967012
0.967012
0.967012
0.967012
0.967012
0.967012
0.967012
0.967012
0.967012
0.967012