/*--------------------------------*- C++ -*----------------------------------*\
| =========                 |                                                 |
| \\      /  F ield         | foam-extend: Open Source CFD                    |
|  \\    /   O peration     | Version:     4.0                                |
|   \\  /    A nd           | Web:         http://www.foam-extend.org         |
|    \\/     M anipulation  |                                                 |
\*---------------------------------------------------------------------------*/
FoamFile
{
    version     2.0;
    format      ascii;
    class       volScalarField;
    location    "1630";
    object      psiE;
}
// * * * * * * * * * * * * * * * * * * * * * * * * * * * * * * * * * * * * * //

dimensions      [0 0 0 0 0 0 0];

internalField   nonuniform List<scalar> 
6960
(
0.325536
0.325537
0.325539
0.32554
0.325542
0.325543
0.325545
0.325546
0.325548
0.325549
0.32555
0.325551
0.325552
0.325553
0.325554
0.325555
0.325556
0.325557
0.325558
0.325558
0.325559
0.325559
0.32556
0.32556
0.325561
0.325561
0.325561
0.325561
0.325561
0.325561
0.325561
0.325561
0.325561
0.325561
0.325561
0.325561
0.32556
0.32556
0.325559
0.325559
0.325558
0.325558
0.325557
0.325556
0.325555
0.325554
0.325553
0.325552
0.325551
0.32555
0.325549
0.325548
0.325546
0.325545
0.325543
0.325542
0.32554
0.325539
0.325537
0.325536
0.797762
0.797766
0.797772
0.797779
0.797785
0.797791
0.797797
0.797803
0.797808
0.797814
0.797818
0.797823
0.797827
0.797832
0.797835
0.797839
0.797842
0.797845
0.797848
0.79785
0.797853
0.797855
0.797856
0.797858
0.797859
0.79786
0.797861
0.797862
0.797862
0.797862
0.797862
0.797862
0.797862
0.797861
0.79786
0.797859
0.797858
0.797856
0.797855
0.797853
0.79785
0.797848
0.797845
0.797842
0.797839
0.797835
0.797832
0.797827
0.797823
0.797818
0.797814
0.797808
0.797803
0.797797
0.797791
0.797785
0.797779
0.797772
0.797766
0.797762
1.21208
1.21209
1.2121
1.21211
1.21213
1.21214
1.21215
1.21216
1.21217
1.21218
1.21219
1.2122
1.21221
1.21222
1.21223
1.21223
1.21224
1.21225
1.21225
1.21226
1.21226
1.21226
1.21227
1.21227
1.21227
1.21228
1.21228
1.21228
1.21228
1.21228
1.21228
1.21228
1.21228
1.21228
1.21228
1.21227
1.21227
1.21227
1.21226
1.21226
1.21226
1.21225
1.21225
1.21224
1.21223
1.21223
1.21222
1.21221
1.2122
1.21219
1.21218
1.21217
1.21216
1.21215
1.21214
1.21213
1.21211
1.2121
1.21209
1.21208
1.60624
1.60626
1.60628
1.6063
1.60632
1.60634
1.60635
1.60637
1.60639
1.60641
1.60642
1.60644
1.60645
1.60646
1.60647
1.60648
1.60649
1.6065
1.60651
1.60652
1.60653
1.60653
1.60654
1.60654
1.60655
1.60655
1.60655
1.60656
1.60656
1.60656
1.60656
1.60656
1.60656
1.60655
1.60655
1.60655
1.60654
1.60654
1.60653
1.60653
1.60652
1.60651
1.6065
1.60649
1.60648
1.60647
1.60646
1.60645
1.60644
1.60642
1.60641
1.60639
1.60637
1.60635
1.60634
1.60632
1.6063
1.60628
1.60626
1.60624
1.99603
1.99605
1.99608
1.99611
1.99614
1.99616
1.99619
1.99622
1.99624
1.99626
1.99629
1.99631
1.99633
1.99634
1.99636
1.99637
1.99639
1.9964
1.99641
1.99642
1.99643
1.99644
1.99645
1.99646
1.99646
1.99647
1.99647
1.99647
1.99648
1.99648
1.99648
1.99648
1.99647
1.99647
1.99647
1.99646
1.99646
1.99645
1.99644
1.99643
1.99642
1.99641
1.9964
1.99639
1.99637
1.99636
1.99634
1.99633
1.99631
1.99629
1.99626
1.99624
1.99622
1.99619
1.99616
1.99614
1.99611
1.99608
1.99605
1.99603
2.38863
2.38866
2.3887
2.38873
2.38877
2.38881
2.38884
2.38887
2.38891
2.38894
2.38896
2.38899
2.38902
2.38904
2.38906
2.38908
2.3891
2.38912
2.38913
2.38915
2.38916
2.38917
2.38918
2.38919
2.3892
2.3892
2.38921
2.38921
2.38921
2.38921
2.38921
2.38921
2.38921
2.38921
2.3892
2.3892
2.38919
2.38918
2.38917
2.38916
2.38915
2.38913
2.38912
2.3891
2.38908
2.38906
2.38904
2.38902
2.38899
2.38896
2.38894
2.38891
2.38887
2.38884
2.38881
2.38877
2.38873
2.3887
2.38866
2.38863
2.78742
2.78745
2.78749
2.78754
2.78758
2.78763
2.78767
2.78772
2.78776
2.78779
2.78783
2.78786
2.78789
2.78792
2.78795
2.78797
2.788
2.78802
2.78804
2.78806
2.78807
2.78809
2.7881
2.78811
2.78812
2.78812
2.78813
2.78814
2.78814
2.78814
2.78814
2.78814
2.78814
2.78813
2.78812
2.78812
2.78811
2.7881
2.78809
2.78807
2.78806
2.78804
2.78802
2.788
2.78797
2.78795
2.78792
2.78789
2.78786
2.78783
2.78779
2.78776
2.78772
2.78767
2.78763
2.78758
2.78754
2.78749
2.78745
2.78742
3.19398
3.19402
3.19407
3.19413
3.19418
3.19424
3.19429
3.19434
3.19439
3.19443
3.19448
3.19452
3.19455
3.19459
3.19462
3.19465
3.19468
3.19471
3.19473
3.19475
3.19477
3.19479
3.1948
3.19481
3.19482
3.19483
3.19484
3.19485
3.19485
3.19485
3.19485
3.19485
3.19485
3.19484
3.19483
3.19482
3.19481
3.1948
3.19479
3.19477
3.19475
3.19473
3.19471
3.19468
3.19465
3.19462
3.19459
3.19455
3.19452
3.19448
3.19443
3.19439
3.19434
3.19429
3.19424
3.19418
3.19413
3.19407
3.19402
3.19398
3.6091
3.60914
3.6092
3.60927
3.60933
3.6094
3.60946
3.60952
3.60958
3.60963
3.60968
3.60973
3.60977
3.60981
3.60985
3.60988
3.60992
3.60995
3.60997
3.61
3.61002
3.61004
3.61006
3.61007
3.61009
3.6101
3.61011
3.61011
3.61012
3.61012
3.61012
3.61012
3.61011
3.61011
3.6101
3.61009
3.61007
3.61006
3.61004
3.61002
3.61
3.60997
3.60995
3.60992
3.60988
3.60985
3.60981
3.60977
3.60973
3.60968
3.60963
3.60958
3.60952
3.60946
3.6094
3.60933
3.60927
3.6092
3.60914
3.6091
4.03314
4.03319
4.03326
4.03333
4.03341
4.03348
4.03355
4.03362
4.03369
4.03375
4.03381
4.03386
4.03391
4.03396
4.034
4.03404
4.03408
4.03412
4.03415
4.03417
4.0342
4.03422
4.03424
4.03426
4.03428
4.03429
4.0343
4.0343
4.03431
4.03431
4.03431
4.03431
4.0343
4.0343
4.03429
4.03428
4.03426
4.03424
4.03422
4.0342
4.03417
4.03415
4.03412
4.03408
4.03404
4.034
4.03396
4.03391
4.03386
4.03381
4.03375
4.03369
4.03362
4.03355
4.03348
4.03341
4.03333
4.03326
4.03319
4.03314
4.46629
4.46635
4.46642
4.46651
4.4666
4.46668
4.46676
4.46684
4.46691
4.46698
4.46705
4.46711
4.46716
4.46722
4.46727
4.46731
4.46736
4.46739
4.46743
4.46746
4.46749
4.46752
4.46754
4.46756
4.46758
4.46759
4.4676
4.46761
4.46761
4.46762
4.46762
4.46761
4.46761
4.4676
4.46759
4.46758
4.46756
4.46754
4.46752
4.46749
4.46746
4.46743
4.46739
4.46736
4.46731
4.46727
4.46722
4.46716
4.46711
4.46705
4.46698
4.46691
4.46684
4.46676
4.46668
4.4666
4.46651
4.46642
4.46635
4.46629
4.90864
4.9087
4.90879
4.90889
4.90898
4.90908
4.90917
4.90925
4.90934
4.90941
4.90949
4.90956
4.90962
4.90968
4.90974
4.90979
4.90983
4.90988
4.90992
4.90995
4.90999
4.91001
4.91004
4.91006
4.91008
4.9101
4.91011
4.91012
4.91012
4.91013
4.91013
4.91012
4.91012
4.91011
4.9101
4.91008
4.91006
4.91004
4.91001
4.90999
4.90995
4.90992
4.90988
4.90983
4.90979
4.90974
4.90968
4.90962
4.90956
4.90949
4.90941
4.90934
4.90925
4.90917
4.90908
4.90898
4.90889
4.90879
4.9087
4.90864
5.36023
5.36031
5.3604
5.36051
5.36062
5.36072
5.36082
5.36091
5.36101
5.36109
5.36117
5.36125
5.36132
5.36138
5.36145
5.3615
5.36156
5.3616
5.36165
5.36169
5.36172
5.36176
5.36178
5.36181
5.36183
5.36185
5.36186
5.36187
5.36188
5.36188
5.36188
5.36188
5.36187
5.36186
5.36185
5.36183
5.36181
5.36178
5.36176
5.36172
5.36169
5.36165
5.3616
5.36156
5.3615
5.36145
5.36138
5.36132
5.36125
5.36117
5.36109
5.36101
5.36091
5.36082
5.36072
5.36062
5.36051
5.3604
5.36031
5.36023
5.82108
5.82116
5.82126
5.82138
5.8215
5.82161
5.82172
5.82182
5.82192
5.82202
5.82211
5.82219
5.82227
5.82234
5.82241
5.82247
5.82253
5.82258
5.82263
5.82267
5.82271
5.82275
5.82278
5.8228
5.82283
5.82284
5.82286
5.82287
5.82288
5.82288
5.82288
5.82288
5.82287
5.82286
5.82284
5.82283
5.8228
5.82278
5.82275
5.82271
5.82267
5.82263
5.82258
5.82253
5.82247
5.82241
5.82234
5.82227
5.82219
5.82211
5.82202
5.82192
5.82182
5.82172
5.82161
5.8215
5.82138
5.82126
5.82116
5.82108
6.29115
6.29123
6.29135
6.29148
6.2916
6.29173
6.29185
6.29196
6.29207
6.29217
6.29227
6.29236
6.29244
6.29252
6.29259
6.29266
6.29273
6.29278
6.29284
6.29288
6.29293
6.29296
6.293
6.29303
6.29305
6.29307
6.29309
6.2931
6.29311
6.29311
6.29311
6.29311
6.2931
6.29309
6.29307
6.29305
6.29303
6.293
6.29296
6.29293
6.29288
6.29284
6.29278
6.29273
6.29266
6.29259
6.29252
6.29244
6.29236
6.29227
6.29217
6.29207
6.29196
6.29185
6.29173
6.2916
6.29148
6.29135
6.29123
6.29115
6.77039
6.77049
6.77061
6.77075
6.77089
6.77102
6.77115
6.77127
6.77139
6.7715
6.77161
6.7717
6.7718
6.77188
6.77196
6.77203
6.7721
6.77217
6.77222
6.77227
6.77232
6.77236
6.7724
6.77243
6.77246
6.77248
6.77249
6.77251
6.77252
6.77252
6.77252
6.77252
6.77251
6.77249
6.77248
6.77246
6.77243
6.7724
6.77236
6.77232
6.77227
6.77222
6.77217
6.7721
6.77203
6.77196
6.77188
6.7718
6.7717
6.77161
6.7715
6.77139
6.77127
6.77115
6.77102
6.77089
6.77075
6.77061
6.77049
6.77039
7.25874
7.25884
7.25898
7.25912
7.25927
7.25942
7.25956
7.25969
7.25981
7.25993
7.26005
7.26015
7.26025
7.26034
7.26043
7.26051
7.26058
7.26065
7.26071
7.26076
7.26081
7.26086
7.2609
7.26093
7.26096
7.26098
7.261
7.26102
7.26103
7.26103
7.26103
7.26103
7.26102
7.261
7.26098
7.26096
7.26093
7.2609
7.26086
7.26081
7.26076
7.26071
7.26065
7.26058
7.26051
7.26043
7.26034
7.26025
7.26015
7.26005
7.25993
7.25981
7.25969
7.25956
7.25942
7.25927
7.25912
7.25898
7.25884
7.25874
7.75608
7.75619
7.75634
7.75649
7.75665
7.75681
7.75695
7.7571
7.75723
7.75736
7.75748
7.75759
7.7577
7.7578
7.75789
7.75797
7.75805
7.75812
7.75819
7.75825
7.7583
7.75835
7.75839
7.75843
7.75846
7.75848
7.7585
7.75852
7.75853
7.75853
7.75853
7.75853
7.75852
7.7585
7.75848
7.75846
7.75843
7.75839
7.75835
7.7583
7.75825
7.75819
7.75812
7.75805
7.75797
7.75789
7.7578
7.7577
7.75759
7.75748
7.75736
7.75723
7.7571
7.75695
7.75681
7.75665
7.75649
7.75634
7.75619
7.75608
8.26227
8.26239
8.26254
8.26271
8.26288
8.26304
8.2632
8.26335
8.2635
8.26363
8.26376
8.26388
8.264
8.2641
8.2642
8.26429
8.26437
8.26445
8.26452
8.26458
8.26464
8.26469
8.26474
8.26477
8.26481
8.26483
8.26486
8.26487
8.26488
8.26489
8.26489
8.26488
8.26487
8.26486
8.26483
8.26481
8.26477
8.26474
8.26469
8.26464
8.26458
8.26452
8.26445
8.26437
8.26429
8.2642
8.2641
8.264
8.26388
8.26376
8.26363
8.2635
8.26335
8.2632
8.26304
8.26288
8.26271
8.26254
8.26239
8.26227
8.77714
8.77726
8.77742
8.7776
8.77778
8.77795
8.77812
8.77828
8.77844
8.77858
8.77872
8.77884
8.77896
8.77908
8.77918
8.77928
8.77937
8.77945
8.77952
8.77959
8.77965
8.7797
8.77975
8.77979
8.77983
8.77985
8.77988
8.77989
8.77991
8.77991
8.77991
8.77991
8.77989
8.77988
8.77985
8.77983
8.77979
8.77975
8.7797
8.77965
8.77959
8.77952
8.77945
8.77937
8.77928
8.77918
8.77908
8.77896
8.77884
8.77872
8.77858
8.77844
8.77828
8.77812
8.77795
8.77778
8.7776
8.77742
8.77726
8.77714
9.30044
9.30057
9.30075
9.30093
9.30112
9.30131
9.30149
9.30166
9.30182
9.30197
9.30212
9.30225
9.30238
9.3025
9.30261
9.30271
9.3028
9.30289
9.30297
9.30304
9.3031
9.30316
9.30321
9.30325
9.30329
9.30332
9.30334
9.30336
9.30337
9.30338
9.30338
9.30337
9.30336
9.30334
9.30332
9.30329
9.30325
9.30321
9.30316
9.3031
9.30304
9.30297
9.30289
9.3028
9.30271
9.30261
9.3025
9.30238
9.30225
9.30212
9.30197
9.30182
9.30166
9.30149
9.30131
9.30112
9.30093
9.30075
9.30057
9.30044
9.83193
9.83206
9.83225
9.83244
9.83264
9.83284
9.83303
9.83321
9.83338
9.83354
9.83369
9.83383
9.83397
9.83409
9.83421
9.83431
9.83441
9.8345
9.83459
9.83466
9.83473
9.83479
9.83484
9.83489
9.83493
9.83496
9.83498
9.835
9.83502
9.83502
9.83502
9.83502
9.835
9.83498
9.83496
9.83493
9.83489
9.83484
9.83479
9.83473
9.83466
9.83459
9.8345
9.83441
9.83431
9.83421
9.83409
9.83397
9.83383
9.83369
9.83354
9.83338
9.83321
9.83303
9.83284
9.83264
9.83244
9.83225
9.83206
9.83193
10.3713
10.3714
10.3716
10.3718
10.372
10.3722
10.3724
10.3726
10.3728
10.373
10.3731
10.3733
10.3734
10.3735
10.3737
10.3738
10.3739
10.374
10.3741
10.3741
10.3742
10.3743
10.3743
10.3744
10.3744
10.3744
10.3745
10.3745
10.3745
10.3745
10.3745
10.3745
10.3745
10.3745
10.3744
10.3744
10.3744
10.3743
10.3743
10.3742
10.3741
10.3741
10.374
10.3739
10.3738
10.3737
10.3735
10.3734
10.3733
10.3731
10.373
10.3728
10.3726
10.3724
10.3722
10.372
10.3718
10.3716
10.3714
10.3713
10.9181
10.9182
10.9184
10.9186
10.9189
10.9191
10.9193
10.9195
10.9197
10.9198
10.92
10.9202
10.9203
10.9204
10.9206
10.9207
10.9208
10.9209
10.921
10.9211
10.9211
10.9212
10.9213
10.9213
10.9214
10.9214
10.9214
10.9214
10.9215
10.9215
10.9215
10.9215
10.9214
10.9214
10.9214
10.9214
10.9213
10.9213
10.9212
10.9211
10.9211
10.921
10.9209
10.9208
10.9207
10.9206
10.9204
10.9203
10.9202
10.92
10.9198
10.9197
10.9195
10.9193
10.9191
10.9189
10.9186
10.9184
10.9182
10.9181
11.4719
11.472
11.4722
11.4725
11.4727
11.4729
11.4731
11.4733
11.4735
11.4737
11.4739
11.4741
11.4742
11.4744
11.4745
11.4746
11.4747
11.4748
11.4749
11.475
11.4751
11.4752
11.4752
11.4753
11.4753
11.4754
11.4754
11.4754
11.4754
11.4754
11.4754
11.4754
11.4754
11.4754
11.4754
11.4753
11.4753
11.4752
11.4752
11.4751
11.475
11.4749
11.4748
11.4747
11.4746
11.4745
11.4744
11.4742
11.4741
11.4739
11.4737
11.4735
11.4733
11.4731
11.4729
11.4727
11.4725
11.4722
11.472
11.4719
12.0322
12.0323
12.0326
12.0328
12.033
12.0333
12.0335
12.0337
12.0339
12.0341
12.0343
12.0345
12.0346
12.0348
12.0349
12.035
12.0352
12.0353
12.0354
12.0355
12.0355
12.0356
12.0357
12.0357
12.0358
12.0358
12.0358
12.0359
12.0359
12.0359
12.0359
12.0359
12.0359
12.0358
12.0358
12.0358
12.0357
12.0357
12.0356
12.0355
12.0355
12.0354
12.0353
12.0352
12.035
12.0349
12.0348
12.0346
12.0345
12.0343
12.0341
12.0339
12.0337
12.0335
12.0333
12.033
12.0328
12.0326
12.0323
12.0322
12.5984
12.5985
12.5988
12.599
12.5992
12.5995
12.5997
12.5999
12.6002
12.6004
12.6005
12.6007
12.6009
12.601
12.6012
12.6013
12.6014
12.6016
12.6017
12.6018
12.6018
12.6019
12.602
12.602
12.6021
12.6021
12.6022
12.6022
12.6022
12.6022
12.6022
12.6022
12.6022
12.6022
12.6021
12.6021
12.602
12.602
12.6019
12.6018
12.6018
12.6017
12.6016
12.6014
12.6013
12.6012
12.601
12.6009
12.6007
12.6005
12.6004
12.6002
12.5999
12.5997
12.5995
12.5992
12.599
12.5988
12.5985
12.5984
13.1697
13.1699
13.1701
13.1704
13.1706
13.1709
13.1711
13.1713
13.1716
13.1718
13.172
13.1721
13.1723
13.1725
13.1726
13.1728
13.1729
13.173
13.1731
13.1732
13.1733
13.1734
13.1734
13.1735
13.1735
13.1736
13.1736
13.1736
13.1737
13.1737
13.1737
13.1737
13.1736
13.1736
13.1736
13.1735
13.1735
13.1734
13.1734
13.1733
13.1732
13.1731
13.173
13.1729
13.1728
13.1726
13.1725
13.1723
13.1721
13.172
13.1718
13.1716
13.1713
13.1711
13.1709
13.1706
13.1704
13.1701
13.1699
13.1697
13.7454
13.7456
13.7458
13.7461
13.7463
13.7466
13.7468
13.7471
13.7473
13.7475
13.7477
13.7479
13.7481
13.7482
13.7484
13.7485
13.7487
13.7488
13.7489
13.749
13.7491
13.7492
13.7492
13.7493
13.7494
13.7494
13.7494
13.7495
13.7495
13.7495
13.7495
13.7495
13.7495
13.7494
13.7494
13.7494
13.7493
13.7492
13.7492
13.7491
13.749
13.7489
13.7488
13.7487
13.7485
13.7484
13.7482
13.7481
13.7479
13.7477
13.7475
13.7473
13.7471
13.7468
13.7466
13.7463
13.7461
13.7458
13.7456
13.7454
14.3245
14.3246
14.3249
14.3252
14.3254
14.3257
14.326
14.3262
14.3264
14.3266
14.3269
14.327
14.3272
14.3274
14.3276
14.3277
14.3278
14.328
14.3281
14.3282
14.3283
14.3284
14.3284
14.3285
14.3285
14.3286
14.3286
14.3287
14.3287
14.3287
14.3287
14.3287
14.3287
14.3286
14.3286
14.3285
14.3285
14.3284
14.3284
14.3283
14.3282
14.3281
14.328
14.3278
14.3277
14.3276
14.3274
14.3272
14.327
14.3269
14.3266
14.3264
14.3262
14.326
14.3257
14.3254
14.3252
14.3249
14.3246
14.3245
14.9058
14.906
14.9063
14.9066
14.9068
14.9071
14.9074
14.9076
14.9079
14.9081
14.9083
14.9085
14.9087
14.9089
14.909
14.9092
14.9093
14.9094
14.9096
14.9097
14.9098
14.9098
14.9099
14.91
14.91
14.9101
14.9101
14.9101
14.9102
14.9102
14.9102
14.9102
14.9101
14.9101
14.9101
14.91
14.91
14.9099
14.9098
14.9098
14.9097
14.9096
14.9094
14.9093
14.9092
14.909
14.9089
14.9087
14.9085
14.9083
14.9081
14.9079
14.9076
14.9074
14.9071
14.9068
14.9066
14.9063
14.906
14.9058
15.4883
15.4885
15.4887
15.489
15.4893
15.4896
15.4899
15.4901
15.4904
15.4906
15.4908
15.491
15.4912
15.4914
15.4915
15.4917
15.4918
15.492
15.4921
15.4922
15.4923
15.4924
15.4925
15.4925
15.4926
15.4926
15.4927
15.4927
15.4927
15.4927
15.4927
15.4927
15.4927
15.4927
15.4926
15.4926
15.4925
15.4925
15.4924
15.4923
15.4922
15.4921
15.492
15.4918
15.4917
15.4915
15.4914
15.4912
15.491
15.4908
15.4906
15.4904
15.4901
15.4899
15.4896
15.4893
15.489
15.4887
15.4885
15.4883
16.0704
16.0706
16.0708
16.0711
16.0714
16.0717
16.0719
16.0722
16.0725
16.0727
16.0729
16.0731
16.0733
16.0735
16.0737
16.0738
16.074
16.0741
16.0742
16.0743
16.0744
16.0745
16.0746
16.0747
16.0747
16.0748
16.0748
16.0748
16.0749
16.0749
16.0749
16.0749
16.0748
16.0748
16.0748
16.0747
16.0747
16.0746
16.0745
16.0744
16.0743
16.0742
16.0741
16.074
16.0738
16.0737
16.0735
16.0733
16.0731
16.0729
16.0727
16.0725
16.0722
16.0719
16.0717
16.0714
16.0711
16.0708
16.0706
16.0704
16.6504
16.6506
16.6508
16.6511
16.6514
16.6517
16.652
16.6522
16.6525
16.6527
16.653
16.6532
16.6534
16.6536
16.6537
16.6539
16.654
16.6542
16.6543
16.6544
16.6545
16.6546
16.6547
16.6547
16.6548
16.6548
16.6549
16.6549
16.6549
16.6549
16.6549
16.6549
16.6549
16.6549
16.6548
16.6548
16.6547
16.6547
16.6546
16.6545
16.6544
16.6543
16.6542
16.654
16.6539
16.6537
16.6536
16.6534
16.6532
16.653
16.6527
16.6525
16.6522
16.652
16.6517
16.6514
16.6511
16.6508
16.6506
16.6504
17.2264
17.2266
17.2269
17.2272
17.2275
17.2278
17.228
17.2283
17.2286
17.2288
17.229
17.2292
17.2294
17.2296
17.2298
17.23
17.2301
17.2302
17.2304
17.2305
17.2306
17.2307
17.2308
17.2308
17.2309
17.2309
17.231
17.231
17.231
17.231
17.231
17.231
17.231
17.231
17.2309
17.2309
17.2308
17.2308
17.2307
17.2306
17.2305
17.2304
17.2302
17.2301
17.23
17.2298
17.2296
17.2294
17.2292
17.229
17.2288
17.2286
17.2283
17.228
17.2278
17.2275
17.2272
17.2269
17.2266
17.2264
17.7963
17.7965
17.7967
17.797
17.7973
17.7976
17.7979
17.7982
17.7984
17.7987
17.7989
17.7991
17.7993
17.7995
17.7997
17.7998
17.8
17.8001
17.8002
17.8003
17.8004
17.8005
17.8006
17.8007
17.8007
17.8008
17.8008
17.8009
17.8009
17.8009
17.8009
17.8009
17.8009
17.8008
17.8008
17.8007
17.8007
17.8006
17.8005
17.8004
17.8003
17.8002
17.8001
17.8
17.7998
17.7997
17.7995
17.7993
17.7991
17.7989
17.7987
17.7984
17.7982
17.7979
17.7976
17.7973
17.797
17.7967
17.7965
17.7963
18.3573
18.3575
18.3578
18.3581
18.3584
18.3587
18.3589
18.3592
18.3595
18.3597
18.3599
18.3601
18.3603
18.3605
18.3607
18.3609
18.361
18.3611
18.3613
18.3614
18.3615
18.3616
18.3617
18.3617
18.3618
18.3618
18.3619
18.3619
18.3619
18.3619
18.3619
18.3619
18.3619
18.3619
18.3618
18.3618
18.3617
18.3617
18.3616
18.3615
18.3614
18.3613
18.3611
18.361
18.3609
18.3607
18.3605
18.3603
18.3601
18.3599
18.3597
18.3595
18.3592
18.3589
18.3587
18.3584
18.3581
18.3578
18.3575
18.3573
18.9065
18.9067
18.907
18.9073
18.9076
18.9079
18.9081
18.9084
18.9086
18.9089
18.9091
18.9093
18.9095
18.9097
18.9099
18.91
18.9102
18.9103
18.9104
18.9106
18.9107
18.9108
18.9108
18.9109
18.911
18.911
18.911
18.9111
18.9111
18.9111
18.9111
18.9111
18.9111
18.911
18.911
18.911
18.9109
18.9108
18.9108
18.9107
18.9106
18.9104
18.9103
18.9102
18.91
18.9099
18.9097
18.9095
18.9093
18.9091
18.9089
18.9086
18.9084
18.9081
18.9079
18.9076
18.9073
18.907
18.9067
18.9065
19.4403
19.4405
19.4408
19.4411
19.4413
19.4416
19.4419
19.4421
19.4424
19.4426
19.4428
19.4431
19.4433
19.4434
19.4436
19.4438
19.4439
19.444
19.4442
19.4443
19.4444
19.4445
19.4445
19.4446
19.4447
19.4447
19.4448
19.4448
19.4448
19.4448
19.4448
19.4448
19.4448
19.4448
19.4447
19.4447
19.4446
19.4445
19.4445
19.4444
19.4443
19.4442
19.444
19.4439
19.4438
19.4436
19.4434
19.4433
19.4431
19.4428
19.4426
19.4424
19.4421
19.4419
19.4416
19.4413
19.4411
19.4408
19.4405
19.4403
19.9544
19.9546
19.9549
19.9552
19.9554
19.9557
19.956
19.9562
19.9565
19.9567
19.9569
19.9571
19.9573
19.9575
19.9576
19.9578
19.9579
19.9581
19.9582
19.9583
19.9584
19.9585
19.9585
19.9586
19.9587
19.9587
19.9588
19.9588
19.9588
19.9588
19.9588
19.9588
19.9588
19.9588
19.9587
19.9587
19.9586
19.9585
19.9585
19.9584
19.9583
19.9582
19.9581
19.9579
19.9578
19.9576
19.9575
19.9573
19.9571
19.9569
19.9567
19.9565
19.9562
19.956
19.9557
19.9554
19.9552
19.9549
19.9546
19.9544
20.4439
20.4441
20.4443
20.4446
20.4448
20.4451
20.4454
20.4456
20.4458
20.446
20.4462
20.4464
20.4466
20.4468
20.4469
20.4471
20.4472
20.4474
20.4475
20.4476
20.4477
20.4478
20.4478
20.4479
20.4479
20.448
20.448
20.4481
20.4481
20.4481
20.4481
20.4481
20.4481
20.448
20.448
20.4479
20.4479
20.4478
20.4478
20.4477
20.4476
20.4475
20.4474
20.4472
20.4471
20.4469
20.4468
20.4466
20.4464
20.4462
20.446
20.4458
20.4456
20.4454
20.4451
20.4448
20.4446
20.4443
20.4441
20.4439
20.9028
20.903
20.9032
20.9035
20.9037
20.904
20.9042
20.9044
20.9046
20.9048
20.905
20.9052
20.9054
20.9055
20.9057
20.9058
20.906
20.9061
20.9062
20.9063
20.9064
20.9065
20.9065
20.9066
20.9066
20.9067
20.9067
20.9067
20.9068
20.9068
20.9068
20.9068
20.9067
20.9067
20.9067
20.9066
20.9066
20.9065
20.9065
20.9064
20.9063
20.9062
20.9061
20.906
20.9058
20.9057
20.9055
20.9054
20.9052
20.905
20.9048
20.9046
20.9044
20.9042
20.904
20.9037
20.9035
20.9032
20.903
20.9028
21.3247
21.3249
21.3251
21.3253
21.3255
21.3258
21.326
21.3262
21.3264
21.3266
21.3267
21.3269
21.3271
21.3272
21.3273
21.3275
21.3276
21.3277
21.3278
21.3279
21.328
21.3281
21.3281
21.3282
21.3282
21.3283
21.3283
21.3283
21.3283
21.3283
21.3283
21.3283
21.3283
21.3283
21.3283
21.3282
21.3282
21.3281
21.3281
21.328
21.3279
21.3278
21.3277
21.3276
21.3275
21.3273
21.3272
21.3271
21.3269
21.3267
21.3266
21.3264
21.3262
21.326
21.3258
21.3255
21.3253
21.3251
21.3249
21.3247
21.7029
21.7031
21.7033
21.7035
21.7036
21.7038
21.704
21.7042
21.7044
21.7046
21.7047
21.7049
21.705
21.7051
21.7053
21.7054
21.7055
21.7056
21.7057
21.7058
21.7058
21.7059
21.706
21.706
21.706
21.7061
21.7061
21.7061
21.7061
21.7062
21.7062
21.7061
21.7061
21.7061
21.7061
21.706
21.706
21.706
21.7059
21.7058
21.7058
21.7057
21.7056
21.7055
21.7054
21.7053
21.7051
21.705
21.7049
21.7047
21.7046
21.7044
21.7042
21.704
21.7038
21.7036
21.7035
21.7033
21.7031
21.7029
22.0319
22.032
22.0322
22.0324
22.0325
22.0327
22.0329
22.033
22.0332
22.0333
22.0334
22.0336
22.0337
22.0338
22.0339
22.034
22.0341
22.0342
22.0343
22.0344
22.0344
22.0345
22.0345
22.0346
22.0346
22.0346
22.0347
22.0347
22.0347
22.0347
22.0347
22.0347
22.0347
22.0347
22.0346
22.0346
22.0346
22.0345
22.0345
22.0344
22.0344
22.0343
22.0342
22.0341
22.034
22.0339
22.0338
22.0337
22.0336
22.0334
22.0333
22.0332
22.033
22.0329
22.0327
22.0325
22.0324
22.0322
22.032
22.0319
22.309
22.3091
22.3092
22.3093
22.3095
22.3096
22.3097
22.3099
22.31
22.3101
22.3102
22.3103
22.3105
22.3105
22.3106
22.3107
22.3108
22.3109
22.3109
22.311
22.3111
22.3111
22.3112
22.3112
22.3112
22.3113
22.3113
22.3113
22.3113
22.3113
22.3113
22.3113
22.3113
22.3113
22.3113
22.3112
22.3112
22.3112
22.3111
22.3111
22.311
22.3109
22.3109
22.3108
22.3107
22.3106
22.3105
22.3105
22.3103
22.3102
22.3101
22.31
22.3099
22.3097
22.3096
22.3095
22.3093
22.3092
22.3091
22.309
22.5356
22.5356
22.5357
22.5358
22.5359
22.5361
22.5362
22.5363
22.5364
22.5365
22.5366
22.5366
22.5367
22.5368
22.5369
22.537
22.537
22.5371
22.5371
22.5372
22.5372
22.5373
22.5373
22.5374
22.5374
22.5374
22.5374
22.5374
22.5374
22.5375
22.5375
22.5374
22.5374
22.5374
22.5374
22.5374
22.5374
22.5373
22.5373
22.5372
22.5372
22.5371
22.5371
22.537
22.537
22.5369
22.5368
22.5367
22.5366
22.5366
22.5365
22.5364
22.5363
22.5362
22.5361
22.5359
22.5358
22.5357
22.5356
22.5356
22.7173
22.7174
22.7174
22.7175
22.7176
22.7177
22.7178
22.7179
22.7179
22.718
22.7181
22.7182
22.7182
22.7183
22.7184
22.7184
22.7185
22.7185
22.7186
22.7186
22.7187
22.7187
22.7187
22.7188
22.7188
22.7188
22.7188
22.7188
22.7188
22.7188
22.7188
22.7188
22.7188
22.7188
22.7188
22.7188
22.7188
22.7187
22.7187
22.7187
22.7186
22.7186
22.7185
22.7185
22.7184
22.7184
22.7183
22.7182
22.7182
22.7181
22.718
22.7179
22.7179
22.7178
22.7177
22.7176
22.7175
22.7174
22.7174
22.7173
22.8626
22.8626
22.8627
22.8627
22.8628
22.8629
22.8629
22.863
22.863
22.8631
22.8632
22.8632
22.8633
22.8634
22.8634
22.8635
22.8635
22.8635
22.8636
22.8636
22.8637
22.8637
22.8637
22.8637
22.8638
22.8638
22.8638
22.8638
22.8638
22.8638
22.8638
22.8638
22.8638
22.8638
22.8638
22.8638
22.8637
22.8637
22.8637
22.8637
22.8636
22.8636
22.8635
22.8635
22.8635
22.8634
22.8634
22.8633
22.8632
22.8632
22.8631
22.863
22.863
22.8629
22.8629
22.8628
22.8627
22.8627
22.8626
22.8626
22.9801
22.9802
22.9802
22.9802
22.9803
22.9803
22.9804
22.9804
22.9805
22.9806
22.9806
22.9807
22.9807
22.9808
22.9808
22.9808
22.9809
22.9809
22.981
22.981
22.981
22.9811
22.9811
22.9811
22.9811
22.9811
22.9811
22.9812
22.9812
22.9812
22.9812
22.9812
22.9812
22.9811
22.9811
22.9811
22.9811
22.9811
22.9811
22.981
22.981
22.981
22.9809
22.9809
22.9808
22.9808
22.9808
22.9807
22.9807
22.9806
22.9806
22.9805
22.9804
22.9804
22.9803
22.9803
22.9802
22.9802
22.9802
22.9801
23.0776
23.0776
23.0776
23.0776
23.0777
23.0777
23.0778
23.0778
23.0779
23.0779
23.0779
23.078
23.078
23.0781
23.0781
23.0782
23.0782
23.0782
23.0783
23.0783
23.0783
23.0784
23.0784
23.0784
23.0784
23.0784
23.0784
23.0785
23.0785
23.0785
23.0785
23.0785
23.0785
23.0784
23.0784
23.0784
23.0784
23.0784
23.0784
23.0783
23.0783
23.0783
23.0782
23.0782
23.0782
23.0781
23.0781
23.078
23.078
23.0779
23.0779
23.0779
23.0778
23.0778
23.0777
23.0777
23.0776
23.0776
23.0776
23.0776
23.1606
23.1606
23.1606
23.1606
23.1607
23.1607
23.1607
23.1608
23.1608
23.1609
23.1609
23.1609
23.161
23.161
23.1611
23.1611
23.1611
23.1612
23.1612
23.1612
23.1613
23.1613
23.1613
23.1613
23.1613
23.1614
23.1614
23.1614
23.1614
23.1614
23.1614
23.1614
23.1614
23.1614
23.1614
23.1613
23.1613
23.1613
23.1613
23.1613
23.1612
23.1612
23.1612
23.1611
23.1611
23.1611
23.161
23.161
23.1609
23.1609
23.1609
23.1608
23.1608
23.1607
23.1607
23.1607
23.1606
23.1606
23.1606
23.1606
23.2331
23.2331
23.2331
23.2332
23.2332
23.2332
23.2332
23.2333
23.2333
23.2334
23.2334
23.2334
23.2335
23.2335
23.2336
23.2336
23.2336
23.2337
23.2337
23.2337
23.2338
23.2338
23.2338
23.2338
23.2338
23.2338
23.2339
23.2339
23.2339
23.2339
23.2339
23.2339
23.2339
23.2339
23.2338
23.2338
23.2338
23.2338
23.2338
23.2338
23.2337
23.2337
23.2337
23.2336
23.2336
23.2336
23.2335
23.2335
23.2334
23.2334
23.2334
23.2333
23.2333
23.2332
23.2332
23.2332
23.2332
23.2331
23.2331
23.2331
23.2978
23.2978
23.2978
23.2979
23.2979
23.2979
23.2979
23.298
23.298
23.298
23.2981
23.2981
23.2982
23.2982
23.2982
23.2983
23.2983
23.2983
23.2984
23.2984
23.2984
23.2985
23.2985
23.2985
23.2985
23.2985
23.2985
23.2985
23.2985
23.2985
23.2985
23.2985
23.2985
23.2985
23.2985
23.2985
23.2985
23.2985
23.2985
23.2984
23.2984
23.2984
23.2983
23.2983
23.2983
23.2982
23.2982
23.2982
23.2981
23.2981
23.298
23.298
23.298
23.2979
23.2979
23.2979
23.2979
23.2978
23.2978
23.2978
23.3564
23.3565
23.3565
23.3565
23.3565
23.3565
23.3566
23.3566
23.3566
23.3567
23.3567
23.3567
23.3568
23.3568
23.3569
23.3569
23.3569
23.357
23.357
23.357
23.357
23.3571
23.3571
23.3571
23.3571
23.3571
23.3571
23.3572
23.3572
23.3572
23.3572
23.3572
23.3572
23.3571
23.3571
23.3571
23.3571
23.3571
23.3571
23.357
23.357
23.357
23.357
23.3569
23.3569
23.3569
23.3568
23.3568
23.3567
23.3567
23.3567
23.3566
23.3566
23.3566
23.3565
23.3565
23.3565
23.3565
23.3565
23.3564
23.4102
23.4102
23.4102
23.4103
23.4103
23.4103
23.4103
23.4104
23.4104
23.4104
23.4105
23.4105
23.4106
23.4106
23.4106
23.4107
23.4107
23.4107
23.4108
23.4108
23.4108
23.4108
23.4109
23.4109
23.4109
23.4109
23.4109
23.4109
23.4109
23.4109
23.4109
23.4109
23.4109
23.4109
23.4109
23.4109
23.4109
23.4109
23.4108
23.4108
23.4108
23.4108
23.4107
23.4107
23.4107
23.4106
23.4106
23.4106
23.4105
23.4105
23.4104
23.4104
23.4104
23.4103
23.4103
23.4103
23.4103
23.4102
23.4102
23.4102
23.46
23.46
23.46
23.4601
23.4601
23.4601
23.4601
23.4602
23.4602
23.4602
23.4603
23.4603
23.4604
23.4604
23.4604
23.4605
23.4605
23.4605
23.4606
23.4606
23.4606
23.4607
23.4607
23.4607
23.4607
23.4607
23.4607
23.4607
23.4607
23.4608
23.4608
23.4607
23.4607
23.4607
23.4607
23.4607
23.4607
23.4607
23.4607
23.4606
23.4606
23.4606
23.4605
23.4605
23.4605
23.4604
23.4604
23.4604
23.4603
23.4603
23.4602
23.4602
23.4602
23.4601
23.4601
23.4601
23.4601
23.46
23.46
23.46
23.5065
23.5065
23.5065
23.5065
23.5066
23.5066
23.5066
23.5066
23.5067
23.5067
23.5068
23.5068
23.5068
23.5069
23.5069
23.507
23.507
23.507
23.5071
23.5071
23.5071
23.5071
23.5072
23.5072
23.5072
23.5072
23.5072
23.5072
23.5072
23.5072
23.5072
23.5072
23.5072
23.5072
23.5072
23.5072
23.5072
23.5072
23.5071
23.5071
23.5071
23.5071
23.507
23.507
23.507
23.5069
23.5069
23.5068
23.5068
23.5068
23.5067
23.5067
23.5066
23.5066
23.5066
23.5066
23.5065
23.5065
23.5065
23.5065
23.5501
23.5501
23.5502
23.5502
23.5502
23.5502
23.5502
23.5503
23.5503
23.5504
23.5504
23.5504
23.5505
23.5505
23.5506
23.5506
23.5506
23.5507
23.5507
23.5507
23.5508
23.5508
23.5508
23.5508
23.5508
23.5509
23.5509
23.5509
23.5509
23.5509
23.5509
23.5509
23.5509
23.5509
23.5509
23.5508
23.5508
23.5508
23.5508
23.5508
23.5507
23.5507
23.5507
23.5506
23.5506
23.5506
23.5505
23.5505
23.5504
23.5504
23.5504
23.5503
23.5503
23.5502
23.5502
23.5502
23.5502
23.5502
23.5501
23.5501
23.5913
23.5913
23.5914
23.5914
23.5914
23.5914
23.5914
23.5915
23.5915
23.5916
23.5916
23.5916
23.5917
23.5917
23.5918
23.5918
23.5918
23.5919
23.5919
23.592
23.592
23.592
23.592
23.5921
23.5921
23.5921
23.5921
23.5921
23.5921
23.5921
23.5921
23.5921
23.5921
23.5921
23.5921
23.5921
23.5921
23.592
23.592
23.592
23.592
23.5919
23.5919
23.5918
23.5918
23.5918
23.5917
23.5917
23.5916
23.5916
23.5916
23.5915
23.5915
23.5914
23.5914
23.5914
23.5914
23.5914
23.5913
23.5913
23.6304
23.6304
23.6304
23.6304
23.6305
23.6305
23.6305
23.6306
23.6306
23.6306
23.6307
23.6307
23.6308
23.6308
23.6309
23.6309
23.6309
23.631
23.631
23.631
23.6311
23.6311
23.6311
23.6312
23.6312
23.6312
23.6312
23.6312
23.6312
23.6312
23.6312
23.6312
23.6312
23.6312
23.6312
23.6312
23.6312
23.6311
23.6311
23.6311
23.631
23.631
23.631
23.6309
23.6309
23.6309
23.6308
23.6308
23.6307
23.6307
23.6306
23.6306
23.6306
23.6305
23.6305
23.6305
23.6304
23.6304
23.6304
23.6304
23.6676
23.6676
23.6676
23.6677
23.6677
23.6677
23.6677
23.6678
23.6678
23.6679
23.6679
23.6679
23.668