/*--------------------------------*- C++ -*----------------------------------*\
| =========                 |                                                 |
| \\      /  F ield         | foam-extend: Open Source CFD                    |
|  \\    /   O peration     | Version:     4.0                                |
|   \\  /    A nd           | Web:         http://www.foam-extend.org         |
|    \\/     M anipulation  |                                                 |
\*---------------------------------------------------------------------------*/
FoamFile
{
    version     2.0;
    format      ascii;
    class       volScalarField;
    location    "970";
    object      cMinus;
}
// * * * * * * * * * * * * * * * * * * * * * * * * * * * * * * * * * * * * * //

dimensions      [0 0 0 0 0 0 0];

internalField   nonuniform List<scalar> 
6960
(
6.44552e-23
6.36273e-23
6.3717e-23
6.38155e-23
6.39002e-23
6.39704e-23
6.40267e-23
6.40702e-23
6.41021e-23
6.41238e-23
6.41368e-23
6.41424e-23
6.4142e-23
6.41366e-23
6.41275e-23
6.41156e-23
6.41018e-23
6.40867e-23
6.40711e-23
6.40554e-23
6.40402e-23
6.40257e-23
6.40122e-23
6.4e-23
6.39893e-23
6.39802e-23
6.39728e-23
6.39672e-23
6.39635e-23
6.39616e-23
6.39616e-23
6.39635e-23
6.39672e-23
6.39728e-23
6.39802e-23
6.39893e-23
6.4e-23
6.40122e-23
6.40257e-23
6.40402e-23
6.40554e-23
6.40711e-23
6.40867e-23
6.41018e-23
6.41156e-23
6.41275e-23
6.41366e-23
6.4142e-23
6.41424e-23
6.41368e-23
6.41238e-23
6.41021e-23
6.40702e-23
6.40267e-23
6.39704e-23
6.39002e-23
6.38155e-23
6.3717e-23
6.36273e-23
6.44552e-23
1.30673e-22
1.29382e-22
1.2953e-22
1.29689e-22
1.29825e-22
1.29937e-22
1.30028e-22
1.30098e-22
1.3015e-22
1.30186e-22
1.30208e-22
1.30218e-22
1.30218e-22
1.30211e-22
1.30197e-22
1.30179e-22
1.30158e-22
1.30135e-22
1.3011e-22
1.30086e-22
1.30063e-22
1.3004e-22
1.30019e-22
1.3e-22
1.29983e-22
1.29969e-22
1.29958e-22
1.29949e-22
1.29943e-22
1.2994e-22
1.2994e-22
1.29943e-22
1.29949e-22
1.29958e-22
1.29969e-22
1.29983e-22
1.3e-22
1.30019e-22
1.3004e-22
1.30063e-22
1.30086e-22
1.3011e-22
1.30135e-22
1.30158e-22
1.30179e-22
1.30197e-22
1.30211e-22
1.30218e-22
1.30218e-22
1.30208e-22
1.30186e-22
1.3015e-22
1.30098e-22
1.30028e-22
1.29937e-22
1.29825e-22
1.29689e-22
1.2953e-22
1.29382e-22
1.30673e-22
3.45751e-22
3.42515e-22
3.42907e-22
3.43323e-22
3.4368e-22
3.43977e-22
3.44217e-22
3.44403e-22
3.44542e-22
3.44639e-22
3.447e-22
3.4473e-22
3.44735e-22
3.44719e-22
3.44687e-22
3.44644e-22
3.44592e-22
3.44535e-22
3.44475e-22
3.44414e-22
3.44355e-22
3.44298e-22
3.44245e-22
3.44198e-22
3.44156e-22
3.4412e-22
3.44091e-22
3.44069e-22
3.44054e-22
3.44046e-22
3.44046e-22
3.44054e-22
3.44069e-22
3.44091e-22
3.4412e-22
3.44156e-22
3.44198e-22
3.44245e-22
3.44298e-22
3.44355e-22
3.44414e-22
3.44475e-22
3.44535e-22
3.44592e-22
3.44644e-22
3.44687e-22
3.44719e-22
3.44735e-22
3.4473e-22
3.447e-22
3.44639e-22
3.44542e-22
3.44403e-22
3.44217e-22
3.43977e-22
3.4368e-22
3.43323e-22
3.42907e-22
3.42515e-22
3.45751e-22
9.34478e-22
9.25846e-22
9.26948e-22
9.28112e-22
9.29114e-22
9.29949e-22
9.30626e-22
9.31156e-22
9.31553e-22
9.31835e-22
9.32015e-22
9.3211e-22
9.32135e-22
9.32102e-22
9.32025e-22
9.31914e-22
9.31779e-22
9.31629e-22
9.3147e-22
9.3131e-22
9.31152e-22
9.31001e-22
9.3086e-22
9.30732e-22
9.30619e-22
9.30523e-22
9.30445e-22
9.30386e-22
9.30346e-22
9.30326e-22
9.30326e-22
9.30346e-22
9.30386e-22
9.30445e-22
9.30523e-22
9.30619e-22
9.30732e-22
9.3086e-22
9.31001e-22
9.31152e-22
9.3131e-22
9.3147e-22
9.31629e-22
9.31779e-22
9.31914e-22
9.32025e-22
9.32102e-22
9.32135e-22
9.3211e-22
9.32015e-22
9.31835e-22
9.31553e-22
9.31156e-22
9.30626e-22
9.29949e-22
9.29114e-22
9.28112e-22
9.26948e-22
9.25846e-22
9.34478e-22
2.5275e-21
2.50457e-21
2.50767e-21
2.51092e-21
2.51373e-21
2.51608e-21
2.51799e-21
2.5195e-21
2.52064e-21
2.52145e-21
2.52199e-21
2.52229e-21
2.52239e-21
2.52233e-21
2.52215e-21
2.52187e-21
2.52153e-21
2.52114e-21
2.52072e-21
2.5203e-21
2.51988e-21
2.51948e-21
2.51911e-21
2.51877e-21
2.51847e-21
2.51821e-21
2.518e-21
2.51784e-21
2.51773e-21
2.51768e-21
2.51768e-21
2.51773e-21
2.51784e-21
2.518e-21
2.51821e-21
2.51847e-21
2.51877e-21
2.51911e-21
2.51948e-21
2.51988e-21
2.5203e-21
2.52072e-21
2.52114e-21
2.52153e-21
2.52187e-21
2.52215e-21
2.52233e-21
2.52239e-21
2.52229e-21
2.52199e-21
2.52145e-21
2.52064e-21
2.5195e-21
2.51799e-21
2.51608e-21
2.51373e-21
2.51092e-21
2.50767e-21
2.50457e-21
2.5275e-21
6.87195e-21
6.81149e-21
6.8202e-21
6.8293e-21
6.83717e-21
6.84377e-21
6.84917e-21
6.85344e-21
6.85671e-21
6.85908e-21
6.86067e-21
6.86161e-21
6.862e-21
6.86195e-21
6.86154e-21
6.86086e-21
6.86e-21
6.859e-21
6.85793e-21
6.85682e-21
6.85573e-21
6.85468e-21
6.8537e-21
6.8528e-21
6.852e-21
6.85132e-21
6.85077e-21
6.85035e-21
6.85007e-21
6.84992e-21
6.84992e-21
6.85007e-21
6.85035e-21
6.85077e-21
6.85132e-21
6.852e-21
6.8528e-21
6.8537e-21
6.85468e-21
6.85573e-21
6.85682e-21
6.85793e-21
6.859e-21
6.86e-21
6.86086e-21
6.86154e-21
6.86195e-21
6.862e-21
6.86161e-21
6.86067e-21
6.85908e-21
6.85671e-21
6.85344e-21
6.84917e-21
6.84377e-21
6.83717e-21
6.8293e-21
6.8202e-21
6.81149e-21
6.87195e-21
1.88577e-20
1.86991e-20
1.87238e-20
1.87492e-20
1.87714e-20
1.879e-20
1.88053e-20
1.88175e-20
1.88269e-20
1.88338e-20
1.88386e-20
1.88416e-20
1.8843e-20
1.88432e-20
1.88424e-20
1.88408e-20
1.88387e-20
1.88362e-20
1.88334e-20
1.88306e-20
1.88278e-20
1.8825e-20
1.88225e-20
1.88201e-20
1.8818e-20
1.88163e-20
1.88148e-20
1.88137e-20
1.88129e-20
1.88126e-20
1.88126e-20
1.88129e-20
1.88137e-20
1.88148e-20
1.88163e-20
1.8818e-20
1.88201e-20
1.88225e-20
1.8825e-20
1.88278e-20
1.88306e-20
1.88334e-20
1.88362e-20
1.88387e-20
1.88408e-20
1.88424e-20
1.88432e-20
1.8843e-20
1.88416e-20
1.88386e-20
1.88338e-20
1.88269e-20
1.88175e-20
1.88053e-20
1.879e-20
1.87714e-20
1.87492e-20
1.87238e-20
1.86991e-20
1.88577e-20
5.23706e-20
5.19568e-20
5.20268e-20
5.20988e-20
5.21614e-20
5.22144e-20
5.22582e-20
5.22933e-20
5.23207e-20
5.23412e-20
5.23557e-20
5.23651e-20
5.23702e-20
5.23718e-20
5.23706e-20
5.23672e-20
5.23622e-20
5.23561e-20
5.23493e-20
5.23421e-20
5.23349e-20
5.23279e-20
5.23213e-20
5.23152e-20
5.23098e-20
5.23051e-20
5.23013e-20
5.22984e-20
5.22965e-20
5.22955e-20
5.22955e-20
5.22965e-20
5.22984e-20
5.23013e-20
5.23051e-20
5.23098e-20
5.23152e-20
5.23213e-20
5.23279e-20
5.23349e-20
5.23421e-20
5.23493e-20
5.23561e-20
5.23622e-20
5.23672e-20
5.23706e-20
5.23718e-20
5.23702e-20
5.23651e-20
5.23557e-20
5.23412e-20
5.23207e-20
5.22933e-20
5.22582e-20
5.22144e-20
5.21614e-20
5.20988e-20
5.20268e-20
5.19568e-20
5.23706e-20
1.47522e-19
1.46449e-19
1.4665e-19
1.46856e-19
1.47035e-19
1.47188e-19
1.47315e-19
1.47417e-19
1.47498e-19
1.4756e-19
1.47605e-19
1.47635e-19
1.47653e-19
1.47661e-19
1.47661e-19
1.47655e-19
1.47644e-19
1.4763e-19
1.47613e-19
1.47596e-19
1.47578e-19
1.4756e-19
1.47543e-19
1.47528e-19
1.47514e-19
1.47502e-19
1.47492e-19
1.47485e-19
1.4748e-19
1.47477e-19
1.47477e-19
1.4748e-19
1.47485e-19
1.47492e-19
1.47502e-19
1.47514e-19
1.47528e-19
1.47543e-19
1.4756e-19
1.47578e-19
1.47596e-19
1.47613e-19
1.4763e-19
1.47644e-19
1.47655e-19
1.47661e-19
1.47661e-19
1.47653e-19
1.47635e-19
1.47605e-19
1.4756e-19
1.47498e-19
1.47417e-19
1.47315e-19
1.47188e-19
1.47035e-19
1.46856e-19
1.4665e-19
1.46449e-19
1.47522e-19
4.22501e-19
4.19736e-19
4.20325e-19
4.2092e-19
4.21442e-19
4.21889e-19
4.22263e-19
4.22568e-19
4.22812e-19
4.23001e-19
4.23142e-19
4.23242e-19
4.23306e-19
4.23342e-19
4.23354e-19
4.23348e-19
4.23328e-19
4.23298e-19
4.2326e-19
4.23219e-19
4.23175e-19
4.23132e-19
4.2309e-19
4.23051e-19
4.23016e-19
4.22986e-19
4.22961e-19
4.22942e-19
4.22929e-19
4.22923e-19
4.22923e-19
4.22929e-19
4.22942e-19
4.22961e-19
4.22986e-19
4.23016e-19
4.23051e-19
4.2309e-19
4.23132e-19
4.23175e-19
4.23219e-19
4.2326e-19
4.23298e-19
4.23328e-19
4.23348e-19
4.23354e-19
4.23342e-19
4.23306e-19
4.23242e-19
4.23142e-19
4.23001e-19
4.22812e-19
4.22568e-19
4.22263e-19
4.21889e-19
4.21442e-19
4.2092e-19
4.20325e-19
4.19736e-19
4.22501e-19
1.23354e-18
1.22649e-18
1.22825e-18
1.23001e-18
1.23156e-18
1.23289e-18
1.23402e-18
1.23495e-18
1.2357e-18
1.2363e-18
1.23675e-18
1.23709e-18
1.23732e-18
1.23747e-18
1.23755e-18
1.23757e-18
1.23755e-18
1.23749e-18
1.23742e-18
1.23733e-18
1.23723e-18
1.23713e-18
1.23703e-18
1.23693e-18
1.23685e-18
1.23677e-18
1.23671e-18
1.23667e-18
1.23663e-18
1.23662e-18
1.23662e-18
1.23663e-18
1.23667e-18
1.23671e-18
1.23677e-18
1.23685e-18
1.23693e-18
1.23703e-18
1.23713e-18
1.23723e-18
1.23733e-18
1.23742e-18
1.23749e-18
1.23755e-18
1.23757e-18
1.23755e-18
1.23747e-18
1.23732e-18
1.23709e-18
1.23675e-18
1.2363e-18
1.2357e-18
1.23495e-18
1.23402e-18
1.23289e-18
1.23156e-18
1.23001e-18
1.22825e-18
1.22649e-18
1.23354e-18
3.6823e-18
3.66462e-18
3.66999e-18
3.67532e-18
3.68005e-18
3.68415e-18
3.68764e-18
3.69056e-18
3.69295e-18
3.69487e-18
3.69638e-18
3.69753e-18
3.69838e-18
3.69897e-18
3.69935e-18
3.69955e-18
3.69962e-18
3.69959e-18
3.69947e-18
3.69931e-18
3.69911e-18
3.6989e-18
3.69868e-18
3.69846e-18
3.69827e-18
3.69809e-18
3.69795e-18
3.69784e-18
3.69776e-18
3.69772e-18
3.69772e-18
3.69776e-18
3.69784e-18
3.69795e-18
3.69809e-18
3.69827e-18
3.69846e-18
3.69868e-18
3.6989e-18
3.69911e-18
3.69931e-18
3.69947e-18
3.69959e-18
3.69962e-18
3.69955e-18
3.69935e-18
3.69897e-18
3.69838e-18
3.69753e-18
3.69638e-18
3.69487e-18
3.69295e-18
3.69056e-18
3.68764e-18
3.68415e-18
3.68005e-18
3.67532e-18
3.66999e-18
3.66462e-18
3.6823e-18
1.12742e-17
1.12309e-17
1.12478e-17
1.12645e-17
1.12794e-17
1.12923e-17
1.13035e-17
1.13129e-17
1.13208e-17
1.13272e-17
1.13324e-17
1.13364e-17
1.13396e-17
1.13419e-17
1.13435e-17
1.13446e-17
1.13453e-17
1.13456e-17
1.13457e-17
1.13455e-17
1.13453e-17
1.13449e-17
1.13445e-17
1.13441e-17
1.13437e-17
1.13433e-17
1.1343e-17
1.13427e-17
1.13426e-17
1.13425e-17
1.13425e-17
1.13426e-17
1.13427e-17
1.1343e-17
1.13433e-17
1.13437e-17
1.13441e-17
1.13445e-17
1.13449e-17
1.13453e-17
1.13455e-17
1.13457e-17
1.13456e-17
1.13453e-17
1.13446e-17
1.13435e-17
1.13419e-17
1.13396e-17
1.13364e-17
1.13324e-17
1.13272e-17
1.13208e-17
1.13129e-17
1.13035e-17
1.12923e-17
1.12794e-17
1.12645e-17
1.12478e-17
1.12309e-17
1.12742e-17
3.55116e-17
3.541e-17
3.54653e-17
3.55192e-17
3.55676e-17
3.56103e-17
3.56472e-17
3.56788e-17
3.57055e-17
3.57277e-17
3.57459e-17
3.57607e-17
3.57724e-17
3.57816e-17
3.57885e-17
3.57937e-17
3.57974e-17
3.57998e-17
3.58014e-17
3.58022e-17
3.58024e-17
3.58023e-17
3.58019e-17
3.58013e-17
3.58007e-17
3.58001e-17
3.57996e-17
3.57992e-17
3.57988e-17
3.57987e-17
3.57987e-17
3.57988e-17
3.57992e-17
3.57996e-17
3.58001e-17
3.58007e-17
3.58013e-17
3.58019e-17
3.58023e-17
3.58024e-17
3.58022e-17
3.58014e-17
3.57998e-17
3.57974e-17
3.57937e-17
3.57885e-17
3.57816e-17
3.57724e-17
3.57607e-17
3.57459e-17
3.57277e-17
3.57055e-17
3.56788e-17
3.56472e-17
3.56103e-17
3.55676e-17
3.55192e-17
3.54653e-17
3.541e-17
3.55116e-17
1.15378e-16
1.15158e-16
1.15345e-16
1.15527e-16
1.15691e-16
1.15836e-16
1.15964e-16
1.16074e-16
1.16168e-16
1.16247e-16
1.16313e-16
1.16368e-16
1.16413e-16
1.16449e-16
1.16478e-16
1.165e-16
1.16518e-16
1.16531e-16
1.1654e-16
1.16547e-16
1.16552e-16
1.16555e-16
1.16557e-16
1.16558e-16
1.16558e-16
1.16558e-16
1.16557e-16
1.16557e-16
1.16557e-16
1.16557e-16
1.16557e-16
1.16557e-16
1.16557e-16
1.16557e-16
1.16558e-16
1.16558e-16
1.16558e-16
1.16557e-16
1.16555e-16
1.16552e-16
1.16547e-16
1.1654e-16
1.16531e-16
1.16518e-16
1.165e-16
1.16478e-16
1.16449e-16
1.16413e-16
1.16368e-16
1.16313e-16
1.16247e-16
1.16168e-16
1.16074e-16
1.15964e-16
1.15836e-16
1.15691e-16
1.15527e-16
1.15345e-16
1.15158e-16
1.15378e-16
3.87413e-16
3.87021e-16
3.8768e-16
3.88316e-16
3.88895e-16
3.89413e-16
3.89868e-16
3.90266e-16
3.90609e-16
3.90902e-16
3.91151e-16
3.9136e-16
3.91534e-16
3.91678e-16
3.91796e-16
3.91892e-16
3.91969e-16
3.9203e-16
3.92078e-16
3.92115e-16
3.92144e-16
3.92166e-16
3.92182e-16
3.92194e-16
3.92202e-16
3.92208e-16
3.92212e-16
3.92214e-16
3.92216e-16
3.92217e-16
3.92217e-16
3.92216e-16
3.92214e-16
3.92212e-16
3.92208e-16
3.92202e-16
3.92194e-16
3.92182e-16
3.92166e-16
3.92144e-16
3.92115e-16
3.92078e-16
3.9203e-16
3.91969e-16
3.91892e-16
3.91796e-16
3.91678e-16
3.91534e-16
3.9136e-16
3.91151e-16
3.90902e-16
3.90609e-16
3.90266e-16
3.89868e-16
3.89413e-16
3.88895e-16
3.88316e-16
3.8768e-16
3.87021e-16
3.87413e-16
1.34564e-15
1.34536e-15
1.34777e-15
1.35009e-15
1.35222e-15
1.35413e-15
1.35582e-15
1.35731e-15
1.35861e-15
1.35973e-15
1.36069e-15
1.36151e-15
1.3622e-15
1.36278e-15
1.36326e-15
1.36367e-15
1.364e-15
1.36427e-15
1.36449e-15
1.36467e-15
1.36481e-15
1.36492e-15
1.36501e-15
1.36509e-15
1.36514e-15
1.36518e-15
1.36521e-15
1.36523e-15
1.36525e-15
1.36525e-15
1.36525e-15
1.36525e-15
1.36523e-15
1.36521e-15
1.36518e-15
1.36514e-15
1.36509e-15
1.36501e-15
1.36492e-15
1.36481e-15
1.36467e-15
1.36449e-15
1.36427e-15
1.364e-15
1.36367e-15
1.36326e-15
1.36278e-15
1.3622e-15
1.36151e-15
1.36069e-15
1.35973e-15
1.35861e-15
1.35731e-15
1.35582e-15
1.35413e-15
1.35222e-15
1.35009e-15
1.34777e-15
1.34536e-15
1.34564e-15
4.83405e-15
4.83636e-15
4.84552e-15
4.85434e-15
4.86246e-15
4.86979e-15
4.87632e-15
4.88209e-15
4.88714e-15
4.89154e-15
4.89534e-15
4.89861e-15
4.9014e-15
4.90378e-15
4.90579e-15
4.90748e-15
4.90889e-15
4.91007e-15
4.91105e-15
4.91185e-15
4.91251e-15
4.91306e-15
4.91349e-15
4.91384e-15
4.91412e-15
4.91434e-15
4.9145e-15
4.91462e-15
4.91469e-15
4.91473e-15
4.91473e-15
4.91469e-15
4.91462e-15
4.9145e-15
4.91434e-15
4.91412e-15
4.91384e-15
4.91349e-15
4.91306e-15
4.91251e-15
4.91185e-15
4.91105e-15
4.91007e-15
4.90889e-15
4.90748e-15
4.90579e-15
4.90378e-15
4.9014e-15
4.89861e-15
4.89534e-15
4.89154e-15
4.88714e-15
4.88209e-15
4.87632e-15
4.86979e-15
4.86246e-15
4.85434e-15
4.84552e-15
4.83636e-15
4.83405e-15
1.79385e-14
1.79573e-14
1.79933e-14
1.8028e-14
1.80601e-14
1.80891e-14
1.81151e-14
1.81381e-14
1.81584e-14
1.81762e-14
1.81916e-14
1.8205e-14
1.82164e-14
1.82263e-14
1.82347e-14
1.82418e-14
1.82478e-14
1.82529e-14
1.82572e-14
1.82607e-14
1.82637e-14
1.82661e-14
1.82682e-14
1.82698e-14
1.82711e-14
1.82721e-14
1.82729e-14
1.82735e-14
1.82739e-14
1.8274e-14
1.8274e-14
1.82739e-14
1.82735e-14
1.82729e-14
1.82721e-14
1.82711e-14
1.82698e-14
1.82682e-14
1.82661e-14
1.82637e-14
1.82607e-14
1.82572e-14
1.82529e-14
1.82478e-14
1.82418e-14
1.82347e-14
1.82263e-14
1.82164e-14
1.8205e-14
1.81916e-14
1.81762e-14
1.81584e-14
1.81381e-14
1.81151e-14
1.80891e-14
1.80601e-14
1.8028e-14
1.79933e-14
1.79573e-14
1.79385e-14
6.86173e-14
6.87201e-14
6.88662e-14
6.90069e-14
6.91373e-14
6.92557e-14
6.9362e-14
6.94565e-14
6.954e-14
6.96133e-14
6.96774e-14
6.9733e-14
6.97811e-14
6.98225e-14
6.9858e-14
6.98883e-14
6.99142e-14
6.99361e-14
6.99546e-14
6.99701e-14
6.99832e-14
6.99941e-14
7.0003e-14
7.00104e-14
7.00164e-14
7.00211e-14
7.00247e-14
7.00273e-14
7.0029e-14
7.00298e-14
7.00298e-14
7.0029e-14
7.00273e-14
7.00247e-14
7.00211e-14
7.00164e-14
7.00104e-14
7.0003e-14
6.99941e-14
6.99832e-14
6.99701e-14
6.99546e-14
6.99361e-14
6.99142e-14
6.98883e-14
6.9858e-14
6.98225e-14
6.97811e-14
6.9733e-14
6.96774e-14
6.96133e-14
6.954e-14
6.94565e-14
6.9362e-14
6.92557e-14
6.91373e-14
6.90069e-14
6.88662e-14
6.87201e-14
6.86173e-14
2.69794e-13
2.70294e-13
2.70902e-13
2.71488e-13
2.72032e-13
2.72527e-13
2.72972e-13
2.73369e-13
2.7372e-13
2.7403e-13
2.743e-13
2.74536e-13
2.7474e-13
2.74917e-13
2.75069e-13
2.752e-13
2.75311e-13
2.75406e-13
2.75487e-13
2.75555e-13
2.75612e-13
2.7566e-13
2.757e-13
2.75733e-13
2.75759e-13
2.7578e-13
2.75796e-13
2.75808e-13
2.75816e-13
2.7582e-13
2.7582e-13
2.75816e-13
2.75808e-13
2.75796e-13
2.7578e-13
2.75759e-13
2.75733e-13
2.757e-13
2.7566e-13
2.75612e-13
2.75555e-13
2.75487e-13
2.75406e-13
2.75311e-13
2.752e-13
2.75069e-13
2.74917e-13
2.7474e-13
2.74536e-13
2.743e-13
2.7403e-13
2.7372e-13
2.73369e-13
2.72972e-13
2.72527e-13
2.72032e-13
2.71488e-13
2.70902e-13
2.70294e-13
2.69794e-13
1.08683e-12
1.08915e-12
1.09173e-12
1.09422e-12
1.09654e-12
1.09865e-12
1.10055e-12
1.10225e-12
1.10376e-12
1.10508e-12
1.10625e-12
1.10726e-12
1.10814e-12
1.10891e-12
1.10957e-12
1.11013e-12
1.11062e-12
1.11103e-12
1.11138e-12
1.11168e-12
1.11193e-12
1.11215e-12
1.11232e-12
1.11247e-12
1.11259e-12
1.11268e-12
1.11275e-12
1.1128e-12
1.11284e-12
1.11286e-12
1.11286e-12
1.11284e-12
1.1128e-12
1.11275e-12
1.11268e-12
1.11259e-12
1.11247e-12
1.11232e-12
1.11215e-12
1.11193e-12
1.11168e-12
1.11138e-12
1.11103e-12
1.11062e-12
1.11013e-12
1.10957e-12
1.10891e-12
1.10814e-12
1.10726e-12
1.10625e-12
1.10508e-12
1.10376e-12
1.10225e-12
1.10055e-12
1.09865e-12
1.09654e-12
1.09422e-12
1.09173e-12
1.08915e-12
1.08683e-12
4.4694e-12
4.47987e-12
4.49103e-12
4.50183e-12
4.51187e-12
4.52104e-12
4.52929e-12
4.53666e-12
4.5432e-12
4.54897e-12
4.55404e-12
4.55846e-12
4.56231e-12
4.56565e-12
4.56854e-12
4.57102e-12
4.57315e-12
4.57497e-12
4.57652e-12
4.57784e-12
4.57895e-12
4.57989e-12
4.58067e-12
4.58131e-12
4.58184e-12
4.58225e-12
4.58258e-12
4.58281e-12
4.58296e-12
4.58304e-12
4.58304e-12
4.58296e-12
4.58281e-12
4.58258e-12
4.58225e-12
4.58184e-12
4.58131e-12
4.58067e-12
4.57989e-12
4.57895e-12
4.57784e-12
4.57652e-12
4.57497e-12
4.57315e-12
4.57102e-12
4.56854e-12
4.56565e-12
4.56231e-12
4.55846e-12
4.55404e-12
4.54897e-12
4.5432e-12
4.53666e-12
4.52929e-12
4.52104e-12
4.51187e-12
4.50183e-12
4.49103e-12
4.47987e-12
4.4694e-12
1.86893e-11
1.87363e-11
1.87851e-11
1.88324e-11
1.88765e-11
1.89167e-11
1.89529e-11
1.89853e-11
1.9014e-11
1.90394e-11
1.90617e-11
1.90812e-11
1.90981e-11
1.91129e-11
1.91256e-11
1.91365e-11
1.91459e-11
1.9154e-11
1.91609e-11
1.91667e-11
1.91716e-11
1.91758e-11
1.91793e-11
1.91821e-11
1.91845e-11
1.91863e-11
1.91878e-11
1.91888e-11
1.91895e-11
1.91898e-11
1.91898e-11
1.91895e-11
1.91888e-11
1.91878e-11
1.91863e-11
1.91845e-11
1.91821e-11
1.91793e-11
1.91758e-11
1.91716e-11
1.91667e-11
1.91609e-11
1.9154e-11
1.91459e-11
1.91365e-11
1.91256e-11
1.91129e-11
1.90981e-11
1.90812e-11
1.90617e-11
1.90394e-11
1.9014e-11
1.89853e-11
1.89529e-11
1.89167e-11
1.88765e-11
1.88324e-11
1.87851e-11
1.87363e-11
1.86893e-11
7.91329e-11
7.93423e-11
7.95578e-11
7.97668e-11
7.99616e-11
8.01393e-11
8.02994e-11
8.04426e-11
8.05697e-11
8.0682e-11
8.07806e-11
8.08668e-11
8.0942e-11
8.10072e-11
8.10636e-11
8.11122e-11
8.11539e-11
8.11897e-11
8.12202e-11
8.12461e-11
8.1268e-11
8.12865e-11
8.13019e-11
8.13147e-11
8.13251e-11
8.13334e-11
8.13398e-11
8.13444e-11
8.13475e-11
8.1349e-11
8.1349e-11
8.13475e-11
8.13444e-11
8.13398e-11
8.13334e-11
8.13251e-11
8.13147e-11
8.13019e-11
8.12865e-11
8.1268e-11
8.12461e-11
8.12202e-11
8.11897e-11
8.11539e-11
8.11122e-11
8.10636e-11
8.10072e-11
8.0942e-11
8.08668e-11
8.07806e-11
8.0682e-11
8.05697e-11
8.04426e-11
8.02994e-11
8.01393e-11
7.99616e-11
7.97668e-11
7.95578e-11
7.93423e-11
7.91329e-11
3.377e-10
3.38631e-10
3.39585e-10
3.40511e-10
3.41374e-10
3.42161e-10
3.42871e-10
3.43505e-10
3.44069e-10
3.44566e-10
3.45004e-10
3.45386e-10
3.45719e-10
3.46008e-10
3.46259e-10
3.46474e-10
3.4666e-10
3.46818e-10
3.46954e-10
3.47069e-10
3.47166e-10
3.47249e-10
3.47317e-10
3.47374e-10
3.4742e-10
3.47457e-10
3.47485e-10
3.47506e-10
3.4752e-10
3.47526e-10
3.47526e-10
3.4752e-10
3.47506e-10
3.47485e-10
3.47457e-10
3.4742e-10
3.47374e-10
3.47317e-10
3.47249e-10
3.47166e-10
3.47069e-10
3.46954e-10
3.46818e-10
3.4666e-10
3.46474e-10
3.46259e-10
3.46008e-10
3.45719e-10
3.45386e-10
3.45004e-10
3.44566e-10
3.44069e-10
3.43505e-10
3.42871e-10
3.42161e-10
3.41374e-10
3.40511e-10
3.39585e-10
3.38631e-10
3.377e-10
1.4451e-09
1.44922e-09
1.45343e-09
1.45752e-09
1.46133e-09
1.46481e-09
1.46795e-09
1.47075e-09
1.47324e-09
1.47544e-09
1.47737e-09
1.47906e-09
1.48053e-09
1.48181e-09
1.48292e-09
1.48387e-09
1.48469e-09
1.48539e-09
1.48599e-09
1.4865e-09
1.48693e-09
1.48729e-09
1.4876e-09
1.48785e-09
1.48805e-09
1.48821e-09
1.48834e-09
1.48843e-09
1.48849e-09
1.48852e-09
1.48852e-09
1.48849e-09
1.48843e-09
1.48834e-09
1.48821e-09
1.48805e-09
1.48785e-09
1.4876e-09
1.48729e-09
1.48693e-09
1.4865e-09
1.48599e-09
1.48539e-09
1.48469e-09
1.48387e-09
1.48292e-09
1.48181e-09
1.48053e-09
1.47906e-09
1.47737e-09
1.47544e-09
1.47324e-09
1.47075e-09
1.46795e-09
1.46481e-09
1.46133e-09
1.45752e-09
1.45343e-09
1.44922e-09
1.4451e-09
6.16577e-09
6.18376e-09
6.20221e-09
6.22012e-09
6.23682e-09
6.25205e-09
6.26578e-09
6.27806e-09
6.28896e-09
6.29859e-09
6.30704e-09
6.31444e-09
6.32089e-09
6.32648e-09
6.33132e-09
6.3355e-09
6.33908e-09
6.34215e-09
6.34477e-09
6.347e-09
6.34889e-09
6.35048e-09
6.35181e-09
6.3529e-09
6.3538e-09
6.35451e-09
6.35506e-09
6.35546e-09
6.35573e-09
6.35585e-09
6.35585e-09
6.35573e-09
6.35546e-09
6.35506e-09
6.35451e-09
6.3538e-09
6.3529e-09
6.35181e-09
6.35048e-09
6.34889e-09
6.347e-09
6.34477e-09
6.34215e-09
6.33908e-09
6.3355e-09
6.33132e-09
6.32648e-09
6.32089e-09
6.31444e-09
6.30704e-09
6.29859e-09
6.28896e-09
6.27806e-09
6.26578e-09
6.25205e-09
6.23682e-09
6.22012e-09
6.20221e-09
6.18376e-09
6.16577e-09
2.60629e-08
2.61404e-08
2.622e-08
2.62972e-08
2.63692e-08
2.64349e-08
2.64941e-08
2.6547e-08
2.65939e-08
2.66354e-08
2.66719e-08
2.67037e-08
2.67315e-08
2.67556e-08
2.67765e-08
2.67944e-08
2.68099e-08
2.68231e-08
2.68344e-08
2.6844e-08
2.68521e-08
2.68589e-08
2.68647e-08
2.68694e-08
2.68732e-08
2.68763e-08
2.68787e-08
2.68804e-08
2.68815e-08
2.68821e-08
2.68821e-08
2.68815e-08
2.68804e-08
2.68787e-08
2.68763e-08
2.68732e-08
2.68694e-08
2.68647e-08
2.68589e-08
2.68521e-08
2.6844e-08
2.68344e-08
2.68231e-08
2.68099e-08
2.67944e-08
2.67765e-08
2.67556e-08
2.67315e-08
2.67037e-08
2.66719e-08
2.66354e-08
2.65939e-08
2.6547e-08
2.64941e-08
2.64349e-08
2.63692e-08
2.62972e-08
2.622e-08
2.61404e-08
2.60629e-08
1.08366e-07
1.08692e-07
1.09028e-07
1.09354e-07
1.09657e-07
1.09933e-07
1.10182e-07
1.10405e-07
1.10603e-07
1.10777e-07
1.10931e-07
1.11065e-07
1.11182e-07
1.11283e-07
1.11371e-07
1.11446e-07
1.11511e-07
1.11567e-07
1.11614e-07
1.11655e-07
1.11689e-07
1.11718e-07
1.11742e-07
1.11761e-07
1.11778e-07
1.11791e-07
1.11801e-07
1.11808e-07
1.11813e-07
1.11815e-07
1.11815e-07
1.11813e-07
1.11808e-07
1.11801e-07
1.11791e-07
1.11778e-07
1.11761e-07
1.11742e-07
1.11718e-07
1.11689e-07
1.11655e-07
1.11614e-07
1.11567e-07
1.11511e-07
1.11446e-07
1.11371e-07
1.11283e-07
1.11182e-07
1.11065e-07
1.10931e-07
1.10777e-07
1.10603e-07
1.10405e-07
1.10182e-07
1.09933e-07
1.09657e-07
1.09354e-07
1.09028e-07
1.08692e-07
1.08366e-07
4.39657e-07
4.40989e-07
4.42359e-07
4.43687e-07
4.44923e-07
4.4605e-07
4.47066e-07
4.47973e-07
4.48779e-07
4.4949e-07
4.50115e-07
4.50661e-07
4.51137e-07
4.5155e-07
4.51907e-07
4.52215e-07
4.52479e-07
4.52705e-07
4.52899e-07
4.53063e-07
4.53202e-07
4.53319e-07
4.53417e-07
4.53497e-07
4.53563e-07
4.53616e-07
4.53656e-07
4.53686e-07
4.53705e-07
4.53715e-07
4.53715e-07
4.53705e-07
4.53686e-07
4.53656e-07
4.53616e-07
4.53563e-07
4.53497e-07
4.53417e-07
4.53319e-07
4.53202e-07
4.53063e-07
4.52899e-07
4.52705e-07
4.52479e-07
4.52215e-07
4.51907e-07
4.5155e-07
4.51137e-07
4.50661e-07
4.50115e-07
4.4949e-07
4.48779e-07
4.47973e-07
4.47066e-07
4.4605e-07
4.44923e-07
4.43687e-07
4.42359e-07
4.40989e-07
4.39657e-07
1.72498e-06
1.7302e-06
1.73556e-06
1.74076e-06
1.74559e-06
1.74999e-06
1.75396e-06
1.75751e-06
1.76065e-06
1.76343e-06
1.76587e-06
1.768e-06
1.76986e-06
1.77147e-06
1.77287e-06
1.77407e-06
1.7751e-06
1.77598e-06
1.77674e-06
1.77738e-06
1.77792e-06
1.77838e-06
1.77876e-06
1.77907e-06
1.77933e-06
1.77954e-06
1.77969e-06
1.77981e-06
1.77988e-06
1.77992e-06
1.77992e-06
1.77988e-06
1.77981e-06
1.77969e-06
1.77954e-06
1.77933e-06
1.77907e-06
1.77876e-06
1.77838e-06
1.77792e-06
1.77738e-06
1.77674e-06
1.77598e-06
1.7751e-06
1.77407e-06
1.77287e-06
1.77147e-06
1.76986e-06
1.768e-06
1.76587e-06
1.76343e-06
1.76065e-06
1.75751e-06
1.75396e-06
1.74999e-06
1.74559e-06
1.74076e-06
1.73556e-06
1.7302e-06
1.72498e-06
6.47974e-06
6.49914e-06
6.51908e-06
6.53834e-06
6.55625e-06
6.57257e-06
6.58726e-06
6.60039e-06
6.61204e-06
6.62232e-06
6.63135e-06
6.63924e-06
6.64612e-06
6.65208e-06
6.65724e-06
6.66168e-06
6.6655e-06
6.66876e-06
6.67155e-06
6.67392e-06
6.67593e-06
6.67761e-06
6.67902e-06
6.68019e-06
6.68114e-06
6.68189e-06
6.68248e-06
6.6829e-06
6.68318e-06
6.68332e-06
6.68332e-06
6.68318e-06
6.6829e-06
6.68248e-06
6.68189e-06
6.68114e-06
6.68019e-06
6.67902e-06
6.67761e-06
6.67593e-06
6.67392e-06
6.67155e-06
6.66876e-06
6.6655e-06
6.66168e-06
6.65724e-06
6.65208e-06
6.64612e-06
6.63924e-06
6.63135e-06
6.62232e-06
6.61204e-06
6.60039e-06
6.58726e-06
6.57257e-06
6.55625e-06
6.53834e-06
6.51908e-06
6.49914e-06
6.47974e-06
2.30464e-05
2.31141e-05
2.31834e-05
2.32503e-05
2.33124e-05
2.3369e-05
2.34199e-05
2.34654e-05
2.35057e-05
2.35413e-05
2.35726e-05
2.35999e-05
2.36237e-05
2.36444e-05
2.36622e-05
2.36776e-05
2.36908e-05
2.37021e-05
2.37118e-05
2.372e-05
2.37269e-05
2.37327e-05
2.37376e-05
2.37417e-05
2.37449e-05
2.37476e-05
2.37496e-05
2.3751e-05
2.3752e-05
2.37525e-05
2.37525e-05
2.3752e-05
2.3751e-05
2.37496e-05
2.37476e-05
2.37449e-05
2.37417e-05
2.37376e-05
2.37327e-05
2.37269e-05
2.372e-05
2.37118e-05
2.37021e-05
2.36908e-05
2.36776e-05
2.36622e-05
2.36444e-05
2.36237e-05
2.35999e-05
2.35726e-05
2.35413e-05
2.35057e-05
2.34654e-05
2.34199e-05
2.3369e-05
2.33124e-05
2.32503e-05
2.31834e-05
2.31141e-05
2.30464e-05
7.66603e-05
7.68783e-05
7.71007e-05
7.73147e-05
7.75133e-05
7.76942e-05
7.78569e-05
7.80023e-05
7.81312e-05
7.82449e-05
7.83448e-05
7.8432e-05
7.8508e-05
7.85739e-05
7.86309e-05
7.868e-05
7.87221e-05
7.87582e-05
7.8789e-05
7.88151e-05
7.88373e-05
7.88559e-05
7.88714e-05
7.88843e-05
7.88948e-05
7.89031e-05
7.89096e-05
7.89143e-05
7.89173e-05
7.89189e-05
7.89189e-05
7.89173e-05
7.89143e-05
7.89096e-05
7.89031e-05
7.88948e-05
7.88843e-05
7.88714e-05
7.88559e-05
7.88373e-05
7.88151e-05
7.8789e-05
7.87582e-05
7.87221e-05
7.868e-05
7.86309e-05
7.85739e-05
7.8508e-05
7.8432e-05
7.83448e-05
7.82449e-05
7.81312e-05
7.80023e-05
7.78569e-05
7.76942e-05
7.75133e-05
7.73147e-05
7.71007e-05
7.68783e-05
7.66603e-05
0.000235279
0.000235917
0.000236565
0.000237187
0.000237763
0.000238287
0.000238759
0.00023918
0.000239553
0.000239883
0.000240172
0.000240425
0.000240645
0.000240836
0.000241001
0.000241143
0.000241265
0.000241369
0.000241458
0.000241534
0.000241598
0.000241652
0.000241697
0.000241734
0.000241764
0.000241788
0.000241807
0.000241821
0.000241829
0.000241834
0.000241834
0.000241829
0.000241821
0.000241807
0.000241788
0.000241764
0.000241734
0.000241697
0.000241652
0.000241598
0.000241534
0.000241458
0.000241369
0.000241265
0.000241143
0.000241001
0.000240836
0.000240645
0.000240425
0.000240172
0.000239883
0.000239553
0.00023918
0.000238759
0.000238287
0.000237763
0.000237187
0.000236565
0.000235917
0.000235279
0.000656722
0.000658388
0.000660068
0.000661676
0.000663164
0.000664518
0.000665736
0.000666823
0.000667786
0.000668636
0.000669382
0.000670033
0.000670601
0.000671093
0.000671518
0.000671884
0.000672198
0.000672467
0.000672697
0.000672892
0.000673057
0.000673196
0.000673312
0.000673408
0.000673486
0.000673548
0.000673596
0.000673631
0.000673654
0.000673665
0.000673665
0.000673654
0.000673631
0.000673596
0.000673548
0.000673486
0.000673408
0.000673312
0.000673196
0.000673057
0.000672892
0.000672697
0.000672467
0.000672198
0.000671884
0.000671518
0.000671093
0.000670601
0.000670033
0.000669382
0.000668636
0.000667786
0.000666823
0.000665736
0.000664518
0.000663164
0.000661676
0.000660068
0.000658388
0.000656722
0.00164343
0.00164724
0.00165105
0.00165469
0.00165805
0.00166111
0.00166385
0.0016663
0.00166848
0.00167039
0.00167207
0.00167354
0.00167482
0.00167593
0.00167689
0.00167771
0.00167842
0.00167903
0.00167955
0.00167998
0.00168036
0.00168067
0.00168093
0.00168115
0.00168132
0.00168146
0.00168157
0.00168165
0.0016817
0.00168173
0.00168173
0.0016817
0.00168165
0.00168157
0.00168146
0.00168132
0.00168115
0.00168093
0.00168067
0.00168036
0.00167998
0.00167955
0.00167903
0.00167842
0.00167771
0.00167689
0.00167593
0.00167482
0.00167354
0.00167207
0.00167039
0.00166848
0.0016663
0.00166385
0.00166111
0.00165805
0.00165469
0.00165105
0.00164724
0.00164343
0.00364324
0.00365075
0.0036582
0.00366528
0.00367182
0.00367776
0.00368309
0.00368785
0.00369207
0.00369579
0.00369905
0.0037019
0.00370438
0.00370653
0.00370839
0.00370999
0.00371137
0.00371254
0.00371355
0.0037144
0.00371512
0.00371573
0.00371623
0.00371665
0.003717
0.00371727
0.00371748
0.00371763
0.00371773
0.00371778
0.00371778
0.00371773
0.00371763
0.00371748
0.00371727
0.003717
0.00371665
0.00371623
0.00371573
0.00371512
0.0037144
0.00371355
0.00371254
0.00371137
0.00370999
0.00370839
0.00370653
0.00370438
0.0037019
0.00369905
0.00369579
0.00369207
0.00368785
0.00368309
0.00367776
0.00367182
0.00366528
0.0036582
0.00365075
0.00364324
0.00710963
0.00712232
0.00713479
0.00714659
0.00715746
0.00716733
0.0071762
0.00718411
0.00719111
0.00719729
0.0072027
0.00720744
0.00721155
0.00721512
0.00721821
0.00722087
0.00722315
0.0072251
0.00722677
0.00722818
0.00722938
0.00723039
0.00723123
0.00723192
0.00723249
0.00723294
0.00723329
0.00723354
0.00723371
0.00723379
0.00723379
0.00723371
0.00723354
0.00723329
0.00723294
0.00723249
0.00723192
0.00723123
0.00723039
0.00722938
0.00722818
0.00722677
0.0072251
0.00722315
0.00722087
0.00721821
0.00721512
0.00721155
0.00720744
0.0072027
0.00719729
0.00719111
0.00718411
0.0071762
0.00716733
0.00715746
0.00714659
0.00713479
0.00712232
0.00710963
0.0122449
0.0122634
0.0122814
0.0122984
0.012314
0.0123282
0.0123409
0.0123522
0.0123622
0.0123711
0.0123788
0.0123856
0.0123915
0.0123966
0.0124011
0.0124049
0.0124081
0.0124109
0.0124133
0.0124153
0.0124171
0.0124185
0.0124197
0.0124207
0.0124215
0.0124222
0.0124227
0.012423
0.0124233
0.0124234
0.0124234
0.0124233
0.012423
0.0124227
0.0124222
0.0124215
0.0124207
0.0124197
0.0124185
0.0124171
0.0124153
0.0124133
0.0124109
0.0124081
0.0124049
0.0124011
0.0123966
0.0123915
0.0123856
0.0123788
0.0123711
0.0123622
0.0123522
0.0123409
0.0123282
0.012314
0.0122984
0.0122814
0.0122634
0.0122449
0.0188455
0.0188695
0.0188925
0.018914
0.0189339
0.0189518
0.0189679
0.0189823
0.018995
0.0190062
0.019016
0.0190246
0.0190321
0.0190386
0.0190442
0.019049
0.0190532
0.0190567
0.0190598
0.0190623
0.0190645
0.0190663
0.0190679