/*--------------------------------*- C++ -*----------------------------------*\
| =========                 |                                                 |
| \\      /  F ield         | foam-extend: Open Source CFD                    |
|  \\    /   O peration     | Version:     4.0                                |
|   \\  /    A nd           | Web:         http://www.foam-extend.org         |
|    \\/     M anipulation  |                                                 |
\*---------------------------------------------------------------------------*/
FoamFile
{
    version     2.0;
    format      ascii;
    class       volScalarField;
    location    "1000";
    object      psiE;
}
// * * * * * * * * * * * * * * * * * * * * * * * * * * * * * * * * * * * * * //

dimensions      [0 0 0 0 0 0 0];

internalField   nonuniform List<scalar> 
6960
(
0.364057
0.364074
0.364093
0.364108
0.364121
0.364132
0.36414
0.364146
0.364151
0.364155
0.364158
0.36416
0.364162
0.364163
0.364164
0.364165
0.364166
0.364166
0.364167
0.364167
0.364167
0.364168
0.364168
0.364168
0.364168
0.364168
0.364168
0.364169
0.364169
0.364169
0.364169
0.364169
0.364169
0.364168
0.364168
0.364168
0.364168
0.364168
0.364168
0.364167
0.364167
0.364167
0.364166
0.364166
0.364165
0.364164
0.364163
0.364162
0.36416
0.364158
0.364155
0.364151
0.364146
0.36414
0.364132
0.364121
0.364108
0.364093
0.364074
0.364057
0.954123
0.954195
0.954269
0.954333
0.954386
0.954427
0.95446
0.954485
0.954504
0.954519
0.954531
0.954539
0.954546
0.954551
0.954555
0.954559
0.954561
0.954563
0.954565
0.954567
0.954568
0.954569
0.95457
0.95457
0.954571
0.954571
0.954572
0.954572
0.954572
0.954572
0.954572
0.954572
0.954572
0.954572
0.954571
0.954571
0.95457
0.95457
0.954569
0.954568
0.954567
0.954565
0.954563
0.954561
0.954559
0.954555
0.954551
0.954546
0.954539
0.954531
0.954519
0.954504
0.954485
0.95446
0.954427
0.954386
0.954333
0.954269
0.954195
0.954123
1.5182
1.51834
1.51848
1.51861
1.51871
1.51879
1.51885
1.5189
1.51893
1.51896
1.51898
1.519
1.51901
1.51902
1.51903
1.51904
1.51904
1.51905
1.51905
1.51905
1.51905
1.51905
1.51906
1.51906
1.51906
1.51906
1.51906
1.51906
1.51906
1.51906
1.51906
1.51906
1.51906
1.51906
1.51906
1.51906
1.51906
1.51906
1.51905
1.51905
1.51905
1.51905
1.51905
1.51904
1.51904
1.51903
1.51902
1.51901
1.519
1.51898
1.51896
1.51893
1.5189
1.51885
1.51879
1.51871
1.51861
1.51848
1.51834
1.5182
2.08243
2.08263
2.08285
2.08304
2.08319
2.08331
2.08341
2.08348
2.08354
2.08358
2.08361
2.08364
2.08366
2.08367
2.08368
2.08369
2.0837
2.08371
2.08371
2.08371
2.08372
2.08372
2.08372
2.08372
2.08372
2.08373
2.08373
2.08373
2.08373
2.08373
2.08373
2.08373
2.08373
2.08373
2.08373
2.08372
2.08372
2.08372
2.08372
2.08372
2.08371
2.08371
2.08371
2.0837
2.08369
2.08368
2.08367
2.08366
2.08364
2.08361
2.08358
2.08354
2.08348
2.08341
2.08331
2.08319
2.08304
2.08285
2.08263
2.08243
2.65426
2.65454
2.65483
2.65509
2.65529
2.65546
2.65559
2.65568
2.65576
2.65582
2.65586
2.6559
2.65592
2.65594
2.65596
2.65597
2.65598
2.65599
2.656
2.656
2.65601
2.65601
2.65601
2.65601
2.65602
2.65602
2.65602
2.65602
2.65602
2.65602
2.65602
2.65602
2.65602
2.65602
2.65602
2.65602
2.65601
2.65601
2.65601
2.65601
2.656
2.656
2.65599
2.65598
2.65597
2.65596
2.65594
2.65592
2.6559
2.65586
2.65582
2.65576
2.65568
2.65559
2.65546
2.65529
2.65509
2.65483
2.65454
2.65426
3.23577
3.23613
3.2365
3.23682
3.23708
3.23729
3.23745
3.23758
3.23768
3.23775
3.23781
3.23785
3.23788
3.23791
3.23793
3.23794
3.23796
3.23797
3.23797
3.23798
3.23799
3.23799
3.23799
3.238
3.238
3.238
3.238
3.238
3.238
3.238
3.238
3.238
3.238
3.238
3.238
3.238
3.238
3.23799
3.23799
3.23799
3.23798
3.23797
3.23797
3.23796
3.23794
3.23793
3.23791
3.23788
3.23785
3.23781
3.23775
3.23768
3.23758
3.23745
3.23729
3.23708
3.23682
3.2365
3.23613
3.23577
3.82744
3.82787
3.82832
3.82871
3.82903
3.82928
3.82948
3.82963
3.82975
3.82983
3.8299
3.82996
3.83
3.83003
3.83005
3.83007
3.83008
3.8301
3.83011
3.83011
3.83012
3.83013
3.83013
3.83013
3.83014
3.83014
3.83014
3.83014
3.83014
3.83014
3.83014
3.83014
3.83014
3.83014
3.83014
3.83014
3.83013
3.83013
3.83013
3.83012
3.83011
3.83011
3.8301
3.83008
3.83007
3.83005
3.83003
3.83
3.82996
3.8299
3.82983
3.82975
3.82963
3.82948
3.82928
3.82903
3.82871
3.82832
3.82787
3.82744
4.42923
4.42973
4.43026
4.43072
4.43109
4.43139
4.43162
4.4318
4.43194
4.43204
4.43212
4.43219
4.43223
4.43227
4.4323
4.43232
4.43234
4.43235
4.43236
4.43237
4.43238
4.43239
4.43239
4.4324
4.4324
4.4324
4.4324
4.43241
4.43241
4.43241
4.43241
4.43241
4.43241
4.4324
4.4324
4.4324
4.4324
4.43239
4.43239
4.43238
4.43237
4.43236
4.43235
4.43234
4.43232
4.4323
4.43227
4.43223
4.43219
4.43212
4.43204
4.43194
4.4318
4.43162
4.43139
4.43109
4.43072
4.43026
4.42973
4.42923
5.04094
5.04152
5.04213
5.04265
5.04308
5.04342
5.04369
5.0439
5.04405
5.04417
5.04427
5.04434
5.04439
5.04443
5.04447
5.04449
5.04451
5.04453
5.04454
5.04455
5.04456
5.04457
5.04457
5.04458
5.04458
5.04459
5.04459
5.04459
5.04459
5.04459
5.04459
5.04459
5.04459
5.04459
5.04459
5.04458
5.04458
5.04457
5.04457
5.04456
5.04455
5.04454
5.04453
5.04451
5.04449
5.04447
5.04443
5.04439
5.04434
5.04427
5.04417
5.04405
5.0439
5.04369
5.04342
5.04308
5.04265
5.04213
5.04152
5.04094
5.66228
5.66293
5.66362
5.66421
5.6647
5.66508
5.66538
5.66561
5.66579
5.66593
5.66603
5.66611
5.66617
5.66622
5.66626
5.66629
5.66631
5.66633
5.66634
5.66636
5.66637
5.66638
5.66638
5.66639
5.66639
5.6664
5.6664
5.6664
5.6664
5.6664
5.6664
5.6664
5.6664
5.6664
5.6664
5.66639
5.66639
5.66638
5.66638
5.66637
5.66636
5.66634
5.66633
5.66631
5.66629
5.66626
5.66622
5.66617
5.66611
5.66603
5.66593
5.66579
5.66561
5.66538
5.66508
5.6647
5.66421
5.66362
5.66293
5.66228
6.29289
6.29361
6.29437
6.29503
6.29557
6.296
6.29634
6.2966
6.2968
6.29695
6.29707
6.29715
6.29722
6.29728
6.29732
6.29735
6.29738
6.2974
6.29741
6.29743
6.29744
6.29745
6.29745
6.29746
6.29747
6.29747
6.29747
6.29747
6.29748
6.29748
6.29748
6.29748
6.29747
6.29747
6.29747
6.29747
6.29746
6.29745
6.29745
6.29744
6.29743
6.29741
6.2974
6.29738
6.29735
6.29732
6.29728
6.29722
6.29715
6.29707
6.29695
6.2968
6.2966
6.29634
6.296
6.29557
6.29503
6.29437
6.29361
6.29289
6.93233
6.93312
6.93396
6.93469
6.93528
6.93576
6.93613
6.93641
6.93663
6.9368
6.93693
6.93703
6.9371
6.93716
6.93721
6.93724
6.93727
6.93729
6.93731
6.93733
6.93734
6.93735
6.93736
6.93736
6.93737
6.93737
6.93738
6.93738
6.93738
6.93738
6.93738
6.93738
6.93738
6.93738
6.93737
6.93737
6.93736
6.93736
6.93735
6.93734
6.93733
6.93731
6.93729
6.93727
6.93724
6.93721
6.93716
6.9371
6.93703
6.93693
6.9368
6.93663
6.93641
6.93613
6.93576
6.93528
6.93469
6.93396
6.93312
6.93233
7.5801
7.58096
7.58187
7.58267
7.58332
7.58383
7.58424
7.58455
7.58479
7.58497
7.58511
7.58522
7.5853
7.58536
7.58541
7.58545
7.58548
7.58551
7.58553
7.58555
7.58556
7.58557
7.58558
7.58559
7.58559
7.5856
7.5856
7.5856
7.58561
7.58561
7.58561
7.58561
7.5856
7.5856
7.5856
7.58559
7.58559
7.58558
7.58557
7.58556
7.58555
7.58553
7.58551
7.58548
7.58545
7.58541
7.58536
7.5853
7.58522
7.58511
7.58497
7.58479
7.58455
7.58424
7.58383
7.58332
7.58267
7.58187
7.58096
7.5801
8.2356
8.23653
8.23752
8.23837
8.23908
8.23963
8.24007
8.24041
8.24067
8.24086
8.24102
8.24113
8.24122
8.24129
8.24135
8.24139
8.24142
8.24145
8.24147
8.24149
8.2415
8.24152
8.24153
8.24153
8.24154
8.24155
8.24155
8.24155
8.24156
8.24156
8.24156
8.24156
8.24155
8.24155
8.24155
8.24154
8.24153
8.24153
8.24152
8.2415
8.24149
8.24147
8.24145
8.24142
8.24139
8.24135
8.24129
8.24122
8.24113
8.24102
8.24086
8.24067
8.24041
8.24007
8.23963
8.23908
8.23837
8.23752
8.23653
8.2356
8.89813
8.89913
8.90019
8.90111
8.90187
8.90247
8.90294
8.9033
8.90358
8.90379
8.90395
8.90408
8.90417
8.90425
8.90431
8.90435
8.90439
8.90442
8.90444
8.90446
8.90448
8.90449
8.9045
8.90451
8.90452
8.90452
8.90453
8.90453
8.90453
8.90453
8.90453
8.90453
8.90453
8.90453
8.90452
8.90452
8.90451
8.9045
8.90449
8.90448
8.90446
8.90444
8.90442
8.90439
8.90435
8.90431
8.90425
8.90417
8.90408
8.90395
8.90379
8.90358
8.9033
8.90294
8.90247
8.90187
8.90111
8.90019
8.89913
8.89813
9.56691
9.56797
9.5691
9.57009
9.57089
9.57153
9.57203
9.57242
9.57271
9.57294
9.57311
9.57325
9.57335
9.57343
9.57349
9.57354
9.57358
9.57361
9.57364
9.57366
9.57368
9.57369
9.5737
9.57371
9.57372
9.57373
9.57373
9.57373
9.57374
9.57374
9.57374
9.57374
9.57373
9.57373
9.57373
9.57372
9.57371
9.5737
9.57369
9.57368
9.57366
9.57364
9.57361
9.57358
9.57354
9.57349
9.57343
9.57335
9.57325
9.57311
9.57294
9.57271
9.57242
9.57203
9.57153
9.57089
9.57009
9.5691
9.56797
9.56691
10.241
10.2421
10.2433
10.2444
10.2452
10.2459
10.2464
10.2468
10.2471
10.2474
10.2476
10.2477
10.2478
10.2479
10.248
10.248
10.2481
10.2481
10.2481
10.2482
10.2482
10.2482
10.2482
10.2482
10.2482
10.2482
10.2482
10.2482
10.2482
10.2482
10.2482
10.2482
10.2482
10.2482
10.2482
10.2482
10.2482
10.2482
10.2482
10.2482
10.2482
10.2481
10.2481
10.2481
10.248
10.248
10.2479
10.2478
10.2477
10.2476
10.2474
10.2471
10.2468
10.2464
10.2459
10.2452
10.2444
10.2433
10.2421
10.241
10.9193
10.9205
10.9218
10.9229
10.9238
10.9245
10.925
10.9255
10.9258
10.9261
10.9263
10.9264
10.9265
10.9266
10.9267
10.9267
10.9268
10.9268
10.9269
10.9269
10.9269
10.9269
10.9269
10.9269
10.9269
10.927
10.927
10.927
10.927
10.927
10.927
10.927
10.927
10.927
10.927
10.9269
10.9269
10.9269
10.9269
10.9269
10.9269
10.9269
10.9268
10.9268
10.9267
10.9267
10.9266
10.9265
10.9264
10.9263
10.9261
10.9258
10.9255
10.925
10.9245
10.9238
10.9229
10.9218
10.9205
10.9193
11.6007
11.6019
11.6032
11.6044
11.6053
11.6061
11.6067
11.6071
11.6075
11.6077
11.608
11.6081
11.6082
11.6083
11.6084
11.6085
11.6085
11.6085
11.6086
11.6086
11.6086
11.6086
11.6087
11.6087
11.6087
11.6087
11.6087
11.6087
11.6087
11.6087
11.6087
11.6087
11.6087
11.6087
11.6087
11.6087
11.6087
11.6087
11.6086
11.6086
11.6086
11.6086
11.6085
11.6085
11.6085
11.6084
11.6083
11.6082
11.6081
11.608
11.6077
11.6075
11.6071
11.6067
11.6061
11.6053
11.6044
11.6032
11.6019
11.6007
12.2836
12.2849
12.2863
12.2875
12.2885
12.2893
12.2899
12.2904
12.2907
12.291
12.2912
12.2914
12.2915
12.2916
12.2917
12.2918
12.2918
12.2918
12.2919
12.2919
12.2919
12.2919
12.292
12.292
12.292
12.292
12.292
12.292
12.292
12.292
12.292
12.292
12.292
12.292
12.292
12.292
12.292
12.292
12.2919
12.2919
12.2919
12.2919
12.2918
12.2918
12.2918
12.2917
12.2916
12.2915
12.2914
12.2912
12.291
12.2907
12.2904
12.2899
12.2893
12.2885
12.2875
12.2863
12.2849
12.2836
12.9666
12.9679
12.9694
12.9706
12.9716
12.9724
12.9731
12.9735
12.9739
12.9742
12.9744
12.9746
12.9747
12.9748
12.9749
12.975
12.975
12.9751
12.9751
12.9751
12.9752
12.9752
12.9752
12.9752
12.9752
12.9752
12.9752
12.9753
12.9753
12.9753
12.9753
12.9753
12.9753
12.9752
12.9752
12.9752
12.9752
12.9752
12.9752
12.9752
12.9751
12.9751
12.9751
12.975
12.975
12.9749
12.9748
12.9747
12.9746
12.9744
12.9742
12.9739
12.9735
12.9731
12.9724
12.9716
12.9706
12.9694
12.9679
12.9666
13.6476
13.649
13.6505
13.6518
13.6528
13.6536
13.6543
13.6548
13.6552
13.6555
13.6557
13.6559
13.656
13.6562
13.6562
13.6563
13.6564
13.6564
13.6564
13.6565
13.6565
13.6565
13.6565
13.6565
13.6566
13.6566
13.6566
13.6566
13.6566
13.6566
13.6566
13.6566
13.6566
13.6566
13.6566
13.6566
13.6565
13.6565
13.6565
13.6565
13.6565
13.6564
13.6564
13.6564
13.6563
13.6562
13.6562
13.656
13.6559
13.6557
13.6555
13.6552
13.6548
13.6543
13.6536
13.6528
13.6518
13.6505
13.649
13.6476
14.3246
14.326
14.3275
14.3289
14.3299
14.3308
14.3315
14.332
14.3324
14.3327
14.3329
14.3331
14.3332
14.3334
14.3334
14.3335
14.3336
14.3336
14.3337
14.3337
14.3337
14.3337
14.3337
14.3338
14.3338
14.3338
14.3338
14.3338
14.3338
14.3338
14.3338
14.3338
14.3338
14.3338
14.3338
14.3338
14.3338
14.3337
14.3337
14.3337
14.3337
14.3337
14.3336
14.3336
14.3335
14.3334
14.3334
14.3332
14.3331
14.3329
14.3327
14.3324
14.332
14.3315
14.3308
14.3299
14.3289
14.3275
14.326
14.3246
14.995
14.9965
14.998
14.9993
15.0004
15.0013
15.002
15.0025
15.0029
15.0032
15.0035
15.0037
15.0038
15.0039
15.004
15.0041
15.0042
15.0042
15.0042
15.0043
15.0043
15.0043
15.0043
15.0044
15.0044
15.0044
15.0044
15.0044
15.0044
15.0044
15.0044
15.0044
15.0044
15.0044
15.0044
15.0044
15.0044
15.0043
15.0043
15.0043
15.0043
15.0042
15.0042
15.0042
15.0041
15.004
15.0039
15.0038
15.0037
15.0035
15.0032
15.0029
15.0025
15.002
15.0013
15.0004
14.9993
14.998
14.9965
14.995
15.6559
15.6574
15.659
15.6603
15.6614
15.6623
15.663
15.6635
15.664
15.6643
15.6645
15.6647
15.6649
15.665
15.6651
15.6651
15.6652
15.6652
15.6653
15.6653
15.6653
15.6654
15.6654
15.6654
15.6654
15.6654
15.6654
15.6654
15.6654
15.6655
15.6655
15.6654
15.6654
15.6654
15.6654
15.6654
15.6654
15.6654
15.6654
15.6653
15.6653
15.6653
15.6652
15.6652
15.6651
15.6651
15.665
15.6649
15.6647
15.6645
15.6643
15.664
15.6635
15.663
15.6623
15.6614
15.6603
15.659
15.6574
15.6559
16.3039
16.3054
16.307
16.3084
16.3095
16.3103
16.311
16.3116
16.312
16.3123
16.3126
16.3128
16.3129
16.313
16.3131
16.3132
16.3133
16.3133
16.3134
16.3134
16.3134
16.3134
16.3135
16.3135
16.3135
16.3135
16.3135
16.3135
16.3135
16.3135
16.3135
16.3135
16.3135
16.3135
16.3135
16.3135
16.3135
16.3135
16.3134
16.3134
16.3134
16.3134
16.3133
16.3133
16.3132
16.3131
16.313
16.3129
16.3128
16.3126
16.3123
16.312
16.3116
16.311
16.3103
16.3095
16.3084
16.307
16.3054
16.3039
16.935
16.9365
16.9381
16.9394
16.9405
16.9414
16.9421
16.9426
16.943
16.9434
16.9436
16.9438
16.9439
16.9441
16.9442
16.9442
16.9443
16.9444
16.9444
16.9444
16.9445
16.9445
16.9445
16.9445
16.9445
16.9445
16.9446
16.9446
16.9446
16.9446
16.9446
16.9446
16.9446
16.9446
16.9445
16.9445
16.9445
16.9445
16.9445
16.9445
16.9444
16.9444
16.9444
16.9443
16.9442
16.9442
16.9441
16.9439
16.9438
16.9436
16.9434
16.943
16.9426
16.9421
16.9414
16.9405
16.9394
16.9381
16.9365
16.935
17.5444
17.5459
17.5474
17.5487
17.5498
17.5506
17.5513
17.5518
17.5523
17.5526
17.5528
17.553
17.5532
17.5533
17.5534
17.5534
17.5535
17.5536
17.5536
17.5536
17.5537
17.5537
17.5537
17.5537
17.5538
17.5538
17.5538
17.5538
17.5538
17.5538
17.5538
17.5538
17.5538
17.5538
17.5538
17.5538
17.5537
17.5537
17.5537
17.5537
17.5536
17.5536
17.5536
17.5535
17.5534
17.5534
17.5533
17.5532
17.553
17.5528
17.5526
17.5523
17.5518
17.5513
17.5506
17.5498
17.5487
17.5474
17.5459
17.5444
18.1263
18.1277
18.1292
18.1305
18.1315
18.1323
18.133
18.1335
18.1339
18.1342
18.1345
18.1346
18.1348
18.1349
18.135
18.1351
18.1351
18.1352
18.1352
18.1353
18.1353
18.1353
18.1354
18.1354
18.1354
18.1354
18.1354
18.1354
18.1354
18.1354
18.1354
18.1354
18.1354
18.1354
18.1354
18.1354
18.1354
18.1354
18.1353
18.1353
18.1353
18.1352
18.1352
18.1351
18.1351
18.135
18.1349
18.1348
18.1346
18.1345
18.1342
18.1339
18.1335
18.133
18.1323
18.1315
18.1305
18.1292
18.1277
18.1263
18.6739
18.6753
18.6767
18.6779
18.6788
18.6796
18.6803
18.6807
18.6811
18.6814
18.6817
18.6818
18.682
18.6821
18.6822
18.6823
18.6823
18.6824
18.6824
18.6825
18.6825
18.6825
18.6825
18.6826
18.6826
18.6826
18.6826
18.6826
18.6826
18.6826
18.6826
18.6826
18.6826
18.6826
18.6826
18.6826
18.6826
18.6825
18.6825
18.6825
18.6825
18.6824
18.6824
18.6823
18.6823
18.6822
18.6821
18.682
18.6818
18.6817
18.6814
18.6811
18.6807
18.6803
18.6796
18.6788
18.6779
18.6767
18.6753
18.6739
19.1792
19.1805
19.1818
19.1829
19.1838
19.1845
19.1851
19.1855
19.1859
19.1862
19.1864
19.1866
19.1867
19.1868
19.1869
19.187
19.187
19.1871
19.1871
19.1872
19.1872
19.1872
19.1872
19.1873
19.1873
19.1873
19.1873
19.1873
19.1873
19.1873
19.1873
19.1873
19.1873
19.1873
19.1873
19.1873
19.1873
19.1872
19.1872
19.1872
19.1872
19.1871
19.1871
19.187
19.187
19.1869
19.1868
19.1867
19.1866
19.1864
19.1862
19.1859
19.1855
19.1851
19.1845
19.1838
19.1829
19.1818
19.1805
19.1792
19.6335
19.6346
19.6357
19.6367
19.6375
19.6382
19.6387
19.6391
19.6394
19.6397
19.6399
19.64
19.6401
19.6402
19.6403
19.6404
19.6405
19.6405
19.6406
19.6406
19.6406
19.6406
19.6407
19.6407
19.6407
19.6407
19.6407
19.6407
19.6407
19.6407
19.6407
19.6407
19.6407
19.6407
19.6407
19.6407
19.6407
19.6407
19.6406
19.6406
19.6406
19.6406
19.6405
19.6405
19.6404
19.6403
19.6402
19.6401
19.64
19.6399
19.6397
19.6394
19.6391
19.6387
19.6382
19.6375
19.6367
19.6357
19.6346
19.6335
20.0285
20.0295
20.0304
20.0313
20.0319
20.0325
20.0329
20.0333
20.0336
20.0338
20.034
20.0341
20.0342
20.0343
20.0344
20.0345
20.0345
20.0346
20.0346
20.0347
20.0347
20.0347
20.0347
20.0348
20.0348
20.0348
20.0348
20.0348
20.0348
20.0348
20.0348
20.0348
20.0348
20.0348
20.0348
20.0348
20.0348
20.0347
20.0347
20.0347
20.0347
20.0346
20.0346
20.0345
20.0345
20.0344
20.0343
20.0342
20.0341
20.034
20.0338
20.0336
20.0333
20.0329
20.0325
20.0319
20.0313
20.0304
20.0295
20.0285
20.3594
20.3601
20.3609
20.3616
20.3621
20.3626
20.3629
20.3632
20.3635
20.3637
20.3638
20.3639
20.364
20.3641
20.3642
20.3643
20.3643
20.3644
20.3644
20.3644
20.3645
20.3645
20.3645
20.3645
20.3646
20.3646
20.3646
20.3646
20.3646
20.3646
20.3646
20.3646
20.3646
20.3646
20.3646
20.3646
20.3645
20.3645
20.3645
20.3645
20.3644
20.3644
20.3644
20.3643
20.3643
20.3642
20.3641
20.364
20.3639
20.3638
20.3637
20.3635
20.3632
20.3629
20.3626
20.3621
20.3616
20.3609
20.3601
20.3594
20.6267
20.6272
20.6278
20.6283
20.6288
20.6291
20.6294
20.6296
20.6298
20.63
20.6301
20.6302
20.6303
20.6304
20.6305
20.6305
20.6306
20.6306
20.6307
20.6307
20.6307
20.6307
20.6308
20.6308
20.6308
20.6308
20.6308
20.6308
20.6308
20.6308
20.6308
20.6308
20.6308
20.6308
20.6308
20.6308
20.6308
20.6308
20.6307
20.6307
20.6307
20.6307
20.6306
20.6306
20.6305
20.6305
20.6304
20.6303
20.6302
20.6301
20.63
20.6298
20.6296
20.6294
20.6291
20.6288
20.6283
20.6278
20.6272
20.6267
20.8374
20.8378
20.8382
20.8386
20.8389
20.8392
20.8394
20.8396
20.8397
20.8399
20.84
20.8401
20.8401
20.8402
20.8403
20.8403
20.8404
20.8404
20.8405
20.8405
20.8405
20.8406
20.8406
20.8406
20.8406
20.8406
20.8406
20.8407
20.8407
20.8407
20.8407
20.8407
20.8407
20.8406
20.8406
20.8406
20.8406
20.8406
20.8406
20.8405
20.8405
20.8405
20.8404
20.8404
20.8403
20.8403
20.8402
20.8401
20.8401
20.84
20.8399
20.8397
20.8396
20.8394
20.8392
20.8389
20.8386
20.8382
20.8378
20.8374
21.0027
21.003
21.0033
21.0035
21.0038
21.004
21.0041
21.0043
21.0044
21.0045
21.0046
21.0047
21.0048
21.0048
21.0049
21.0049
21.005
21.005
21.0051
21.0051
21.0051
21.0052
21.0052
21.0052
21.0052
21.0052
21.0053
21.0053
21.0053
21.0053
21.0053
21.0053
21.0053
21.0053
21.0052
21.0052
21.0052
21.0052
21.0052
21.0051
21.0051
21.0051
21.005
21.005
21.0049
21.0049
21.0048
21.0048
21.0047
21.0046
21.0045
21.0044
21.0043
21.0041
21.004
21.0038
21.0035
21.0033
21.003
21.0027
21.1345
21.1347
21.1349
21.1351
21.1352
21.1354
21.1355
21.1356
21.1357
21.1358
21.1359
21.136
21.1361
21.1361
21.1362
21.1362
21.1363
21.1363
21.1364
21.1364
21.1364
21.1364
21.1365
21.1365
21.1365
21.1365
21.1365
21.1365
21.1365
21.1366
21.1366
21.1365
21.1365
21.1365
21.1365
21.1365
21.1365
21.1365
21.1364
21.1364
21.1364
21.1364
21.1363
21.1363
21.1362
21.1362
21.1361
21.1361
21.136
21.1359
21.1358
21.1357
21.1356
21.1355
21.1354
21.1352
21.1351
21.1349
21.1347
21.1345
21.2427
21.2428
21.2429
21.2431
21.2432
21.2433
21.2434
21.2435
21.2436
21.2437
21.2438
21.2439
21.2439
21.244
21.244
21.2441
21.2441
21.2442
21.2442
21.2443
21.2443
21.2443
21.2443
21.2444
21.2444
21.2444
21.2444
21.2444
21.2444
21.2444
21.2444
21.2444
21.2444
21.2444
21.2444
21.2444
21.2444
21.2443
21.2443
21.2443
21.2443
21.2442
21.2442
21.2441
21.2441
21.244
21.244
21.2439
21.2439
21.2438
21.2437
21.2436
21.2435
21.2434
21.2433
21.2432
21.2431
21.2429
21.2428
21.2427
21.3346
21.3346
21.3347
21.3348
21.3349
21.335
21.3351
21.3352
21.3353
21.3354
21.3354
21.3355
21.3356
21.3356
21.3357
21.3357
21.3358
21.3358
21.3358
21.3359
21.3359
21.3359
21.336
21.336
21.336
21.336
21.336
21.336
21.3361
21.3361
21.3361
21.3361
21.336
21.336
21.336
21.336
21.336
21.336
21.3359
21.3359
21.3359
21.3358
21.3358
21.3358
21.3357
21.3357
21.3356
21.3356
21.3355
21.3354
21.3354
21.3353
21.3352
21.3351
21.335
21.3349
21.3348
21.3347
21.3346
21.3346
21.4148
21.4149
21.4149
21.415
21.4151
21.4152
21.4153
21.4153
21.4154
21.4155
21.4155
21.4156
21.4157
21.4157
21.4158
21.4158
21.4159
21.4159
21.416
21.416
21.416
21.4161
21.4161
21.4161
21.4161
21.4162
21.4162
21.4162
21.4162
21.4162
21.4162
21.4162
21.4162
21.4162
21.4162
21.4161
21.4161
21.4161
21.4161
21.416
21.416
21.416
21.4159
21.4159
21.4158
21.4158
21.4157
21.4157
21.4156
21.4155
21.4155
21.4154
21.4153
21.4153
21.4152
21.4151
21.415
21.4149
21.4149
21.4148
21.4866
21.4866
21.4867
21.4868
21.4868
21.4869
21.487
21.487
21.4871
21.4872
21.4872
21.4873
21.4874
21.4874
21.4875
21.4875
21.4876
21.4876
21.4877
21.4877
21.4877
21.4878
21.4878
21.4878
21.4878
21.4878
21.4879
21.4879
21.4879
21.4879
21.4879
21.4879
21.4879
21.4879
21.4878
21.4878
21.4878
21.4878
21.4878
21.4877
21.4877
21.4877
21.4876
21.4876
21.4875
21.4875
21.4874
21.4874
21.4873
21.4872
21.4872
21.4871
21.487
21.487
21.4869
21.4868
21.4868
21.4867
21.4866
21.4866
21.552
21.552
21.552
21.552
21.5521
21.5521
21.5522
21.5523
21.5523
21.5524
21.5525
21.5525
21.5526
21.5526
21.5527
21.5528
21.5528
21.5529
21.5529
21.5529
21.553
21.553
21.553
21.5531
21.5531
21.5531
21.5531
21.5531
21.5531
21.5531
21.5531
21.5531
21.5531
21.5531
21.5531
21.5531
21.5531
21.553
21.553
21.553
21.5529
21.5529
21.5529
21.5528
21.5528
21.5527
21.5526
21.5526
21.5525
21.5525
21.5524
21.5523
21.5523
21.5522
21.5521
21.5521
21.552
21.552
21.552
21.552
21.6122
21.6122
21.6122
21.6122
21.6123
21.6123
21.6124
21.6124
21.6125
21.6126
21.6126
21.6127
21.6128
21.6128
21.6129
21.6129
21.613
21.613
21.6131
21.6131
21.6131
21.6132
21.6132
21.6132
21.6132
21.6133
21.6133
21.6133
21.6133
21.6133
21.6133
21.6133
21.6133
21.6133
21.6133
21.6132
21.6132
21.6132
21.6132
21.6131
21.6131
21.6131
21.613
21.613
21.6129
21.6129
21.6128
21.6128
21.6127
21.6126
21.6126
21.6125
21.6124
21.6124
21.6123
21.6123
21.6122
21.6122
21.6122
21.6122
21.6683
21.6683
21.6683
21.6683
21.6683
21.6684
21.6684
21.6685
21.6686
21.6686
21.6687
21.6687
21.6688
21.6689
21.6689
21.669
21.669
21.6691
21.6691
21.6692
21.6692
21.6692
21.6693
21.6693
21.6693
21.6693
21.6693
21.6694
21.6694
21.6694
21.6694
21.6694
21.6694
21.6693
21.6693
21.6693
21.6693
21.6693
21.6692
21.6692
21.6692
21.6691
21.6691
21.669
21.669
21.6689
21.6689
21.6688
21.6687
21.6687
21.6686
21.6686
21.6685
21.6684
21.6684
21.6683
21.6683
21.6683
21.6683
21.6683
21.721
21.721
21.721
21.721
21.721
21.7211
21.7211
21.7212
21.7212
21.7213
21.7214
21.7214
21.7215
21.7215
21.7216
21.7217
21.7217
21.7218
21.7218
21.7219
21.7219
21.7219
21.722
21.722
21.722
21.722
21.722
21.722
21.7221
21.7221
21.7221
21.7221
21.722
21.722
21.722
21.722
21.722
21.722
21.7219
21.7219
21.7219
21.7218
21.7218
21.7217
21.7217
21.7216
21.7215
21.7215
21.7214
21.7214
21.7213
21.7212
21.7212
21.7211
21.7211
21.721
21.721
21.721
21.721
21.721
21.7709
21.7708
21.7708
21.7709
21.7709
21.7709
21.771
21.771
21.7711
21.7711
21.7712
21.7713
21.7713
21.7714
21.7715
21.7715
21.7716
21.7716
21.7717
21.7717
21.7718
21.7718
21.7718
21.7718
21.7719
21.7719
21.7719
21.7719
21.7719
21.7719
21.7719
21.7719
21.7719
21.7719
21.7719
21.7719
21.7718
21.7718
21.7718
21.7718
21.7717
21.7717
21.7716
21.7716
21.7715
21.7715
21.7714
21.7713
21.7713
21.7712
21.7711
21.7711
21.771
21.771
21.7709
21.7709
21.7709
21.7708
21.7708
21.7709
21.8183
21.8183
21.8183
21.8183
21.8183
21.8184
21.8184
21.8185
21.8185
21.8186
21.8187
21.8187
21.8188
21.8189
21.8189
21.819
21.819
21.8191
21.8191
21.8192
21.8192
21.8193
21.8193
21.8193
21.8193
21.8194
21.8194
21.8194
21.8194
21.8194
21.8194
21.8194
21.8194
21.8194
21.8194
21.8193
21.8193
21.8193
21.8193
21.8192
21.8192
21.8191
21.8191
21.819
21.819
21.8189
21.8189
21.8188
21.8187
21.8187
21.8186
21.8185
21.8185
21.8184
21.8184
21.8183
21.8183
21.8183
21.8183
21.8183
21.8638
21.8637
21.8637
21.8637
21.8638
21.8638
21.8638
21.8639
21.864
21.864
21.8641
21.8642
21.8642
21.8643
21.8643
21.8644
21.8645
21.8645
21.8646
21.8646
21.8647
21.8647
21.8647
21.8648
21.8648
21.8648
21.8648
21.8648
21.8648
21.8648
21.8648
21.8648
21.8648
21.8648
21.8648
21.8648
21.8648
21.8647
21.8647
21.8647
21.8646
21.8646
21.8645
21.8645
21.8644
21.8643
21.8643
21.8642
21.8642
21.8641
21.864
21.864
21.8639
21.8638
21.8638
21.8638
21.8637
21.8637
21.8637
21.8638
21.9074
21.9074
21.9074
21.9074
21.9074
21.9075
21.9075
21.9076
21.9076
21.9077
21.9077
21.9078
21.9079
21.908
21.908
21.9081
21.9081
21.9082
21.9082
21.9083
21.9083
21.9084
21.9084
21.9084
21.9085
21.9085
21.9085
21.9085
21.9085
21.9085
21.9085
21.9085
21.9085
21.9085
21.9085
21.9085
21.9084
21.9084
21.9084
21.9083
21.9083
21.9082
21.9082
21.9081
21.9081
21.908
21.908
21.9079
21.9078
21.9077
21.9077
21.9076
21.9076
21.9075
21.9075
21.9074
21.9074
21.9074
21.9074
21.9074
21.9496
21.9496
21.9496
21.9496
21.9496
21.9496
21.9497
21.9497
21.9498
21.9498
21.9499
21.95
21.95
21.9501
21.9502
21.9502
21.9503
21.9504
21.9504
21.9505
21.9505
21.9505
21.9506
21.9506
21.9506
21.9507
21.9507
21.9507
21.9507
21.9507
21.9507
21.9507
21.9507
21.9507
21.9507
21.9506
21.9506
21.9506
21.9505
21.9505
21.9505
21.9504
21.9504
21.9503
21.9502
21.9502
21.9501
21.95
21.95
21.9499
21.9498
21.9498
21.9497
21.9497
21.9496
21.9496
21.9496
21.9496
21.9496
21.9496
21.9904
21.9904
21.9904
21.9904
21.9904
21.9904
21.9905
21.9905
21.9906
21.9907
21.9907
21.9908
21.9909
21.9909
21.991
21.9911
21.9911
21.9912
21.9912
21.9913
21.9913
21.9914
21.9914
21.9915
21.9915
21.9915
21.9915
21.9915
21.9915
21.9916
21.9916
21.9915
21.9915
21.9915
21.9915
21.9915
21.9915
21.9914
21.9914
21.9913
21.9913
21.9912
21.9912
21.9911
21.9911
21.991
21.9909
21.9909
21.9908
21.9907
21.9907
21.9906
21.9905
21.9905
21.9904
21.9904
21.9904
21.9904
21.9904
21.9904
22.0301
22.0301
22.0301
22.0301
22.0301
22.0301
22.0302
22.0302
22.0303
22.0303
22.0304
22.0305
22.0306
22.0306
22.0307
22.0308
22.0308
22.0309
22.0309
22.031
22.031
22.0311
22.0311
22.0312
22.0312
22.0312
22.0312
22.0312
22.0313
22.0313
22.0313
22.0313
22.0312
22.0312
22.0312
22.0312
22.0312
22.0311
22.0311
22.031
22.031
22.0309
22.0309
22.0308
22.0308
22.0307
22.0306
22.0306
22.0305
22.0304
22.0303
22.0303
22.0302
22.0302
22.0301
22.0301
22.0301
22.0301
22.0301
22.0301
22.0688
22.0688
22.0688
22.0688
22.0688
22.0688
22.0688
22.0689
22.069
22.069
22.0691
22.0692
22.0692
22.0693
22.0694
22.0695
22.0695
22.0696
22.0696
22.0697
22.0697
22.0698
22.0698
22.0699
22.0699
22.0699
22.0699
22.07
22.07
22.07
22.07
22.07
22.07
22.0699
22.0699
22.0699
22.0699
22.0698
22.0698
22.0697
22.0697
22.0696
22.0696
22.0695
22.0695
22.0694
22.0693
22.0692
22.0692
22.0691
22.069
22.069
22.0689
22.0688
22.0688
22.0688
22.0688
22.0688
22.0688
22.0688
22.1066
22.1066
22.1066
22.1066
22.1066
22.1066
22.1066
22.1067
22.1068
22.1068
22.1069
22.107
22.107
22.1071
22.1072
22.1073
22.1073
22.1074
22.1075
22.1075
22.1076
22.1076
22.1077
22.1077
22.1077
22.1077
22.1078
22.1078
22.1078
22.1078
22.1078
22.1078
22.1078
22.1078
22.1077
22.1077
22.1077
22.1077
22.1076
22.1076
22.1075
22.1075
22.1074
22.1073
22.1073
22.1072
22.1071
22.107
22.107
22.1069
22.1068
22.1068
22.1067
22.1066
22.1066
22.1066
22.1066
22.1066
22.1066
22.1066
22.1436
22.1436
22.1436
22.1436
22.1436
22.1436
22.1437
22.1437
22.1438
22.1439
22.1439
22.144
22.1441
22.1442
22.1442
22.1443
22.1444
22.1445
22.1445
22.1446
22.1446
22.1447
22.1447
22.1448
22.1448
22.1448
22.1448
22.1448
22.1449
22.1449
22.1449
22.1449
22.1448
22.1448
22.1448
22.1448
22.1448
22.1447
22.1447
22.1446
22.1446
22.1445
22.1445
22.1444
22.1443
22.1442
22.1442
22.1441
22.144
22.1439
22.1439
22.1438
22.1437
22.1437
22.1436
22.1436
22.1436
22.1436
22.1436
22.1436
22.18
22.18
22.1799
22.1799
22.18
22.18
22.18
22.1801
22.1802
22.1802
22.1803
22.1804
22.1805
22.1805
22.1806
22.1807
22.1808
22.1808
22.1809
22.181
22.181
22.1811
22.1811
22.1811
22.1812
22.1812
22.1812
22.1812
22.1813
22.1813
22.1813
22.1813
22.1812
22.1812
22.1812
22.1812
22.1811
22.1811
22.1811
22.181
22.181
22.1809
22.1808
22.1808
22.1807
22.1806
22.1805
22.1805
22.1804
22.1803
22.1802
22.1802
22.1801
22.18
22.18
22.18
22.1799
22.1799
22.18
22.18
22.2157
22.2157
22.2157
22.2157
22.2157
22.2158
22.2158
22.2159
22.2159
22.216
22.2161
22.2162
22.2163
22.2163
22.2164
22.2165
22.2166
22.2166
22.2167
22.2168
22.2168
22.2169
22.2169
22.217
22.217
22.217
22.217
22.2171
22.2171
22.2171
22.2171
22.2171
22.2171
22.217
22.217
22.217
22.217
22.2169
22.2169
22.2168
22.2168
22.2167
22.2166
22.2166
22.2165
22.2164
22.2163
22.2163
22.2162
22.2161
22.216
22.2159
22.2159
22.2158
22.2158
22.2157
22.2157
22.2157
22.2157
22.2157
22.251
22.251
22.251
22.251
22.251
22.251
22.2511
22.2511
22.2512
22.2513
22.2514
22.2515
22.2515
22.2516
22.2517
22.2518
22.2519
22.2519
22.252
22.2521
22.2521
22.2522
22.2522
22.2523
22.2523
22.2523
22.2524
22.2524
22.2524
22.2524
22.2524
22.2524
22.2524
22.2524
22.2523
22.2523
22.2523
22.2522
22.2522
22.2521
22.2521
22.252
22.2519
22.2519
22.2518
22.2517
22.2516
22.2515
22.2515
22.2514
22.2513
22.2512
22.2511
22.2511
22.251
22.251
22.251
22.251
22.251
22.251
22.2858
22.2858
22.2858
22.2858
22.2858
22.2859
22.2859
22.286
22.2861
22.2861
22.2862
22.2863
22.2864
22.2865
22.2866
22.2866
22.2867
22.2868
22.2869
22.2869
22.287
22.287
22.2871
22.2871
22.2872
22.2872
22.2872
22.2872
22.2873
22.2873
22.2873
22.2873
22.2872
22.2872
22.2872
22.2872
22.2871
22.2871
22.287
22.287
22.2869
22.2869
22.2868
22.2867
22.2866
22.2866
22.2865
22.2864
22.2863
22.2862
22.2861
22.2861
22.286
22.2859
22.2859
22.2858
22.2858
22.2858
22.2858
22.2858
22.3203
22.3203
22.3203
22.3203
22.3203
22.3203
22.3204
22.3204
22.3205
22.3206
22.3207
22.3208
22.3209
22.321
22.321
22.3211
22.3212
22.3213
22.3214
22.3214
22.3215
22.3215
22.3216
22.3216
22.3217
22.3217
22.3217
22.3217
22.3218
22.3218
22.3218
22.3218
22.3217
22.3217
22.3217
22.3217
22.3216
22.3216
22.3215
22.3215
22.3214
22.3214
22.3213
22.3212
22.3211
22.321
22.321
22.3209
22.3208
22.3207
22.3206
22.3205
22.3204
22.3204
22.3203
22.3203
22.3203
22.3203
22.3203
22.3203
22.3544
22.3544
22.3544
22.3544
22.3544
22.3545
22.3545
22.3546
22.3547
22.3548
22.3548
22.3549
22.355
22.3551
22.3552
22.3553
22.3554
22.3555
22.3555
22.3556
22.3557