/*--------------------------------*- C++ -*----------------------------------*\
| =========                 |                                                 |
| \\      /  F ield         | foam-extend: Open Source CFD                    |
|  \\    /   O peration     | Version:     4.0                                |
|   \\  /    A nd           | Web:         http://www.foam-extend.org         |
|    \\/     M anipulation  |                                                 |
\*---------------------------------------------------------------------------*/
FoamFile
{
    version     2.0;
    format      ascii;
    class       surfaceScalarField;
    location    "25";
    object      phi;
}
// * * * * * * * * * * * * * * * * * * * * * * * * * * * * * * * * * * * * * //

dimensions      [0 3 -1 0 0 0 0];

internalField   nonuniform List<scalar> 
13744
(
-9.73443e-27
-3.40685e-22
-3.11794e-25
-1.71246e-26
-1.59262e-25
-7.95264e-26
-2.09364e-25
2.19579e-25
-2.8447e-25
-9.66798e-26
-1.46786e-25
1.11901e-26
-1.37905e-25
-1.17274e-25
1.69847e-26
-1.6472e-25
8.91415e-26
-1.14133e-25
1.25365e-25
-1.25821e-25
1.29707e-25
-2.12208e-26
5.82883e-26
2.15242e-26
-1.66391e-26
7.99465e-26
-1.10491e-25
1.2259e-25
-1.84137e-25
9.82622e-26
-2.10183e-25
7.58464e-26
-2.06255e-25
1.16069e-26
-1.55936e-25
-4.78537e-26
-9.70394e-26
-7.80389e-26
-4.21369e-26
-1.02028e-25
-5.73441e-27
-7.46796e-26
-5.56992e-27
-3.97428e-26
-2.45619e-26
5.95572e-27
-6.06123e-26
4.7274e-26
-8.95072e-26
5.45999e-26
-9.83734e-26
4.61388e-26
-8.57291e-26
1.09649e-26
-5.26071e-26
-2.77089e-26
-1.74677e-26
-5.47653e-26
7.39155e-27
-6.62187e-26
1.07547e-26
-4.99591e-26
-1.03915e-26
-1.83944e-26
-4.46984e-26
1.65299e-26
-7.72329e-26
4.43836e-26
-9.26746e-26
5.11237e-26
-7.97366e-26
4.06428e-26
-4.45441e-26
2.07744e-26
3.90275e-27
-7.70802e-27
4.92592e-26
-2.14997e-26
6.88152e-26
-2.85282e-26
6.46289e-26
-2.58892e-26
2.63304e-26
-5.41597e-27
-2.80975e-26
-5.6462e-27
-7.53519e-26
1.40293e-26
-1.19574e-25
1.7259e-26
-1.15902e-25
8.81594e-27
-9.00814e-26
3.2113e-26
-3.63736e-26
-7.97735e-28
4.84777e-26
1.65317e-26
9.9623e-26
7.83161e-27
1.57491e-25
-2.13109e-26
1.67404e-25
1.50514e-26
1.3587e-25
-3.41251e-26
9.85766e-26
-1.11606e-26
1.93676e-26
-1.13847e-26
-2.11806e-26
-3.29937e-26
-5.41059e-26
9.43977e-27
-3.43116e-26
-1.2683e-26
-2.48342e-26
2.86374e-26
2.2319e-26
2.59116e-25
-3.40996e-22
-8.26197e-25
-1.1562e-25
-4.3308e-25
-7.74836e-26
-6.39602e-25
8.17873e-25
-8.42976e-25
-2.39467e-25
-5.24557e-25
1.78386e-25
-4.6323e-25
-3.80797e-25
-4.34818e-26
-5.02868e-25
1.91824e-25
-4.3993e-25
3.394e-25
-5.11206e-25
3.79305e-25
-1.66739e-25
2.12541e-25
-3.07772e-26
4.32225e-27
2.25459e-25
-2.70282e-25
4.0484e-25
-4.98429e-25
3.79571e-25
-6.1011e-25
3.49141e-25
-6.27306e-25
1.36759e-25
-5.09681e-25
-6.47348e-26
-3.51181e-25
-2.12556e-25
-1.8598e-25
-3.38288e-25
-6.64536e-26
-2.9038e-25
-4.0682e-26
-2.07036e-25
-7.53253e-26
-5.23089e-26
-1.66026e-25
1.01968e-25
-2.47283e-25
1.66747e-25
-2.8343e-25
1.80001e-25
-2.6208e-25
9.0533e-26
-1.82288e-25
-2.77471e-26
-9.02104e-26
-1.33309e-25
-1.87719e-26
-1.99583e-25
-1.52275e-27
-1.7822e-25
-4.98085e-26
-9.97986e-26
-1.3517e-25
6.40051e-27
-2.20934e-25
1.04732e-25
-2.63232e-25
1.41746e-25
-2.29747e-25
1.25337e-25
-1.36555e-25
6.94286e-26
-1.81133e-27
-2.06173e-26
1.22513e-25
-6.35464e-26
1.79116e-25
-9.10311e-26
1.70989e-25
-7.27612e-26
6.11086e-26
-3.4804e-28
-8.61791e-26
5.72014e-27
-2.25202e-25
8.03329e-26
-3.4922e-25
6.85085e-26
-3.35114e-25
3.65297e-26
-2.67571e-25
8.16627e-26
-1.0221e-25
-4.68534e-26
1.35105e-25
1.89618e-26
2.85164e-25
-2.44548e-26
4.55096e-25
-7.28167e-26
4.72361e-25
6.29685e-26
3.91544e-25
-7.51225e-26
2.70413e-25
3.40898e-26
5.40129e-26
-5.47552e-27
-7.24298e-26
-6.69052e-26
-1.55812e-25
1.16225e-26
-1.13745e-25
-6.37938e-26
-6.54423e-26
5.74865e-26
5.10857e-26
5.01448e-25
-3.41839e-22
-1.27927e-24
-5.65042e-25
-6.90221e-25
1.47776e-25
-1.08536e-24
1.68247e-24
-1.41859e-24
-3.28174e-25
-9.60249e-25
5.79936e-25
-8.37218e-25
-6.98574e-25
-1.65376e-25
-8.72519e-25
2.48336e-25
-9.16435e-25
5.31128e-25
-1.11386e-24
6.26385e-25
-4.64497e-25
3.88451e-25
-2.34294e-25
5.50732e-26
3.4984e-25
-4.00136e-25
7.48786e-25
-7.92115e-25
7.90869e-25
-1.01017e-24
8.1171e-25
-1.06707e-24
4.1635e-25
-8.99918e-25
3.54283e-26
-6.50404e-25
-3.14696e-25
-3.73005e-25
-6.27396e-25
-1.62477e-25
-6.07472e-25
-9.67823e-26
-5.08239e-25
-1.34782e-25
-2.17895e-25
-2.71715e-25
9.73234e-26
-4.03469e-25
2.80671e-25
-4.72293e-25
3.73371e-25
-4.50616e-25
2.51784e-25
-3.33035e-25
4.99285e-26
-1.89337e-25
-1.68961e-25
-7.14147e-26
-3.37937e-25
-3.59058e-26
-3.50709e-25
-1.04076e-25
-2.49989e-25
-2.33106e-25
-7.14953e-26
-3.67847e-25
1.17607e-25
-4.35966e-25
2.08057e-25
-3.8421e-25
2.10925e-25
-2.37035e-25
1.28994e-25
-1.80607e-26
-2.1674e-26
1.83117e-25
-8.92315e-26
2.7837e-25
-1.45501e-25
2.68973e-25
-9.81769e-26
8.84088e-26
2.84401e-26
-1.47899e-25
3.42405e-26
-3.8155e-25
1.71081e-25
-5.8522e-25
9.8515e-26
-5.6115e-25
3.58311e-26
-4.55547e-25
7.62358e-26
-1.73019e-25
-1.77446e-25
2.14911e-25
-1.39212e-26
4.68347e-25
-1.02084e-25
7.54167e-25
-9.93855e-26
7.75943e-25
1.88246e-25
6.51193e-25
-4.47964e-26
4.39421e-25
1.9372e-25
8.88131e-26
4.47915e-26
-1.29925e-25
-9.25483e-26
-2.62046e-25
-2.8936e-26
-2.04619e-25
-1.83926e-25
-1.07748e-25
4.91988e-26
7.75996e-26
7.08403e-25
-3.42749e-22
-1.72893e-24
-1.40092e-24
-9.42501e-25
5.73854e-25
-1.54189e-24
2.80125e-24
-2.0178e-24
-3.56118e-25
-1.43184e-24
1.22703e-24
-1.25372e-24
-1.0572e-24
-3.28608e-25
-1.25899e-24
2.73645e-25
-1.53224e-24
7.04553e-25
-1.93042e-24
8.70156e-25
-9.18071e-25
5.73064e-25
-6.01264e-25
1.20012e-25
4.37121e-25
-5.16423e-25
1.13938e-24
-1.08002e-24
1.32112e-24
-1.41601e-24
1.46003e-24
-1.52465e-24
8.55058e-25
-1.31772e-24
2.63082e-25
-9.81814e-25
-3.70176e-25
-5.9142e-25
-9.56464e-25
-2.84912e-25
-1.0177e-24
-1.71904e-25
-9.41448e-25
-2.06648e-25
-4.9623e-25
-3.85747e-25
2.35068e-26
-5.67309e-25
3.84582e-25
-6.71248e-25
6.16259e-25
-6.52878e-25
4.89393e-25
-5.00819e-25
2.05063e-25
-3.0694e-25
-1.57631e-25
-1.4151e-25
-4.7591e-25
-8.51127e-26
-5.63808e-25
-1.69988e-25
-4.69518e-25
-3.40386e-25
-2.22679e-25
-5.23472e-25
7.3784e-26
-6.17906e-25
2.40149e-25
-5.48991e-25
2.90307e-25
-3.48174e-25
1.97379e-25
-4.36395e-26
-7.02036e-27
2.36723e-25
-9.12948e-26
3.74096e-25
-1.84359e-25
3.65722e-25
-9.82504e-26
1.14842e-25
7.70988e-26
-2.11719e-25
6.90381e-26
-5.44298e-25
2.68038e-25
-8.31258e-25
8.69636e-26
-8.00499e-25
-1.17403e-26
-6.58231e-25
2.38365e-27
-2.55083e-25
-3.96843e-25
2.87431e-25
-7.95594e-26
6.5146e-25
-2.14163e-25
1.05966e-24
-8.83067e-26
1.08939e-24
4.04316e-25
9.22907e-25
6.63843e-26
6.17249e-25
4.67367e-25
1.27796e-25
1.37288e-25
-1.89306e-25
-1.22091e-25
-3.75747e-25
-1.20782e-25
-3.04979e-25
-3.80819e-25
-1.56975e-25
-2.74343e-27
1.02521e-25
9.17052e-25
-3.43856e-22
-2.18151e-24
-2.62554e-24
-1.18913e-24
1.19395e-24
-2.00858e-24
4.16293e-24
-2.63995e-24
-3.07365e-25
-1.93839e-24
2.13144e-24
-1.7132e-24
-1.44562e-24
-5.34079e-25
-1.64823e-24
2.66131e-25
-2.28462e-24
8.57482e-25
-2.96101e-24
1.1087e-24
-1.53593e-24
7.64463e-25
-1.1443e-24
1.97791e-25
4.75097e-25
-6.19878e-25
1.56572e-24
-1.36249e-24
1.96654e-24
-1.82754e-24
2.29638e-24
-1.9999e-24
1.46155e-24
-1.76308e-24
6.30871e-25
-1.34567e-24
-3.66751e-25
-8.41867e-25
-1.31573e-24
-4.3464e-25
-1.5173e-24
-2.67107e-25
-1.50883e-24
-2.92017e-25
-8.9439e-25
-5.09106e-25
-1.2907e-25
-7.39653e-25
4.70199e-25
-8.80968e-25
9.03876e-25
-8.69392e-25
8.03747e-25
-6.86039e-25
4.42535e-25
-4.43259e-25
-9.20596e-26
-2.2915e-25
-6.06343e-25
-1.4907e-25
-8.13173e-25
-2.47334e-25
-7.58043e-25
-4.56799e-25
-4.50616e-25
-6.87727e-25
-3.27548e-26
-8.09319e-25
2.31751e-25
-7.24796e-25
3.58434e-25
-4.71019e-25
2.71716e-25
-7.97736e-26
2.30343e-26
2.82418e-25
-6.87915e-26
4.65999e-25
-2.05438e-25
4.61856e-25
-7.07737e-26
1.42098e-25
1.47325e-25
-2.75368e-25
1.12403e-25
-7.1082e-25
3.71742e-25
-1.08512e-24
3.42447e-26
-1.05198e-24
-1.07513e-25
-8.75489e-25
-1.44221e-25
-3.49741e-25
-7.08855e-25
3.50593e-25
-1.84791e-25
8.3236e-25
-3.65268e-25
1.36989e-24
-4.18704e-26
1.41245e-24
7.10428e-25
1.20781e-24
2.63828e-25
8.06244e-25
8.60925e-25
1.74052e-25
2.79701e-25
-2.47722e-25
-1.48864e-25
-4.94759e-25
-2.62077e-25
-4.13614e-25
-6.56239e-25
-2.13052e-25
-1.03164e-25
1.18877e-25
1.1325e-24
-3.45428e-22
-2.63278e-24
-4.23658e-24
-1.42842e-24
2.00187e-24
-2.48419e-24
5.75217e-24
-3.28386e-24
-1.6322e-25
-2.47934e-24
3.30654e-24
-2.2168e-24
-1.84924e-24
-7.83862e-25
-2.02257e-24
2.23006e-25
-3.1681e-24
9.86797e-25
-4.20349e-24
1.33953e-24
-2.32659e-24
9.60851e-25
-1.87788e-24
2.87662e-25
4.48502e-25
-7.10279e-25
2.01321e-24
-1.63879e-24
2.72028e-24
-2.2438e-24
3.32104e-24
-2.49225e-24
2.24405e-24
-2.23605e-24
1.15259e-24
-1.7427e-24
-2.89924e-25
-1.12568e-24
-1.69271e-24
-6.1329e-25
-2.10016e-24
-3.84029e-25
-2.2111e-24
-3.92307e-25
-1.41919e-24
-6.42838e-25
-3.7085e-25
-9.21245e-25
5.27623e-25
-1.10202e-24
1.22962e-24
-1.1007e-24
1.19382e-24
-8.89336e-25
7.66602e-25
-5.98997e-25
3.52628e-26
-3.35024e-25
-7.21257e-25
-2.28325e-25
-1.09347e-24
-3.36429e-25
-1.11451e-24
-5.82494e-25
-7.58632e-25
-8.60728e-25
-2.08442e-25
-1.01054e-24
1.75839e-25
-9.12347e-25
4.09695e-25
-6.06664e-25
3.49094e-25
-1.2781e-25
6.87422e-26
3.19027e-25
-1.97423e-26
5.53441e-25
-2.05677e-25
5.5754e-25
-1.31372e-26
1.71329e-25
2.40253e-25
-3.37087e-25
1.64963e-25
-8.79073e-25
4.8061e-25
-1.34505e-24
-6.15662e-26
-1.31482e-24
-2.54314e-25
-1.10754e-24
-3.68174e-25
-4.58465e-25
-1.11658e-24
4.02169e-25
-3.34271e-25
1.00885e-24
-5.57754e-25
1.68304e-24
3.99063e-26
1.74458e-24
1.10742e-24
1.5067e-24
5.53127e-25
1.00825e-24
1.37954e-24
2.30113e-25
4.78089e-25
-3.02862e-25
-1.68312e-25
-6.17469e-25
-4.52313e-25
-5.29807e-25
-1.01206e-24
-2.76138e-25
-2.56713e-25
1.21126e-25
1.34995e-24
-3.47412e-22
-3.07996e-24
-6.23412e-24
-1.65822e-24
2.99341e-24
-2.96709e-24
7.54958e-24
-3.94795e-24
9.57471e-26
-3.05414e-24
4.76321e-24
-2.76583e-24
-2.25415e-24
-1.08053e-24
-2.36384e-24
1.40869e-25
-4.17711e-24
1.0888e-24
-5.65339e-24
1.55978e-24
-3.29683e-24
1.1603e-24
-2.81448e-24
3.89016e-25
3.43564e-25
-7.87028e-25
2.46744e-24
-1.90772e-24
3.57503e-24
-2.66339e-24
4.53278e-24
-3.00078e-24
3.20892e-24
-2.73658e-24
1.84037e-24
-2.17374e-24
-1.26517e-25
-1.4445e-24
-2.07521e-24
-8.22867e-25
-2.75969e-24
-5.24646e-25
-3.04781e-24
-5.0917e-25
-2.07599e-24
-7.88102e-25
-7.11094e-25
-1.11284e-24
5.47679e-25
-1.33496e-24
1.58689e-24
-1.34738e-24
1.65794e-24
-1.11145e-24
1.18054e-24
-7.75063e-25
2.30835e-25
-4.60096e-25
-8.13323e-25
-3.23723e-25
-1.39949e-24
-4.3785e-25
-1.53739e-24
-7.17809e-25
-1.14917e-24
-1.0427e-24
-4.58735e-25
-1.22194e-24
6.614e-26
-1.11241e-24
4.38725e-25
-7.56265e-25
4.2623e-25
-1.892e-25
1.29463e-25
3.45196e-25
5.66387e-26
6.35576e-25
-1.83105e-25
6.52702e-25
7.66343e-26
2.03456e-25
3.57061e-25
-3.95309e-25
2.2821e-25
-1.0472e-24
5.94431e-25
-1.60943e-24
-2.00774e-25
-1.58837e-24
-4.53536e-25
-1.35474e-24
-6.73386e-25
-5.82824e-25
-1.62305e-24
4.39776e-25
-5.33623e-25
1.17857e-24
-7.95662e-25
1.99716e-24
1.55285e-25
2.08503e-24
1.59417e-24
1.82017e-24
9.39031e-25
1.22489e-24
2.02857e-24
2.98345e-25
7.39532e-25
-3.52564e-25
-1.7369e-25
-7.42414e-25
-6.89285e-25
-6.53008e-25
-1.44921e-24
-3.46483e-25
-4.68027e-25
1.01968e-25
1.56658e-24
-3.49798e-22
-3.52146e-24
-8.61679e-24
-1.87597e-24
4.16293e-24
-3.45533e-24
9.53257e-24
-4.63021e-24
4.90077e-25
-3.66204e-24
6.51142e-24
-3.36158e-24
-2.6452e-24
-1.42686e-24
-2.65226e-24
1.5932e-26
-5.3048e-24
1.15936e-24
-7.30425e-24
1.76614e-24
-4.45272e-24
1.36061e-24
-3.96632e-24
5.01196e-25
1.45894e-25
-8.49385e-25
2.91249e-24
-2.16776e-24
4.5221e-24
-3.08458e-24
5.92887e-24
-3.52428e-24
4.36168e-24
-3.26442e-24
2.70627e-24
-2.63961e-24
1.37253e-25
-1.80006e-24
-2.44979e-24
-1.06559e-24
-3.48793e-24
-6.91177e-25
-4.01736e-24
-6.4447e-25
-2.86952e-24
-9.46191e-25
-1.15913e-24
-1.31527e-24
5.20556e-25
-1.58035e-24
1.96802e-24
-1.60997e-24
2.19346e-24
-1.35318e-24
1.68696e-24
-9.72469e-25
5.01003e-25
-6.0549e-25
-8.74826e-25
-4.36294e-25
-1.72528e-24
-5.52346e-25
-2.02438e-24
-8.63214e-25
-1.62406e-24
-1.23397e-24
-7.88832e-25
-1.44395e-24
-1.03749e-25
-1.32577e-24
4.39696e-25
-9.21036e-25
4.99229e-25
-2.65494e-25
2.03942e-25
3.59424e-25
1.60604e-25
7.11391e-25
-1.36067e-25
7.471e-25
2.00348e-25
2.39257e-25
4.99017e-25
-4.48543e-25
3.03984e-25
-1.21339e-24
7.13453e-25
-1.87666e-24
-3.82949e-25
-1.87199e-24
-7.05974e-25
-1.61749e-24
-1.06334e-24
-7.24462e-25
-2.2311e-24
4.60876e-25
-7.88917e-25
1.33901e-24
-1.08364e-24
2.31005e-24
3.01575e-25
2.43286e-24
2.16849e-24
2.14866e-24
1.42581e-24
1.45772e-24
2.81324e-24
3.81086e-25
1.07169e-24
-3.94646e-25
-1.57143e-25
-8.68119e-25
-9.69824e-25
-7.82699e-25
-1.96799e-24
-4.24359e-25
-7.41705e-25
5.32862e-26
1.78095e-24
-3.52592e-22
-3.95564e-24
-1.13798e-23
-2.07884e-24
5.50267e-24
-3.94672e-24
1.16752e-23
-5.3282e-24
1.04103e-24
-4.30197e-24
8.55987e-24
-4.00524e-24
-3.00597e-24
-1.82569e-24
-2.86639e-24
-1.55863e-25
-6.54284e-24
1.19396e-24
-9.14724e-24
1.95494e-24
-5.79922e-24
1.55927e-24
-5.34497e-24
6.2338e-25
-1.59354e-25
-8.96605e-25
3.33103e-24
-2.41725e-24
5.55114e-24
-3.50535e-24
7.50472e-24
-4.06126e-24
5.70672e-24
-3.81912e-24
3.76194e-24
-3.14103e-24
5.15607e-25
-2.19416e-24
-2.80173e-24
-1.34383e-24
-4.27545e-24
-8.86042e-25
-5.11665e-24
-8.00274e-25
-3.8036e-24
-1.11856e-24
-1.72411e-24
-1.52943e-24
4.35897e-25
-1.83879e-24
2.36432e-24
-1.88908e-24
2.79657e-24
-1.61533e-24
2.2876e-24
-1.19228e-24
8.51805e-25
-7.72424e-25
-8.97753e-25
-5.67192e-25
-2.06418e-24
-6.80794e-25
-2.57222e-24
-1.01929e-24
-2.18435e-24
-1.43491e-24
-1.20353e-24
-1.67703e-24
-3.40254e-25
-1.55327e-24
4.06355e-25
-1.10225e-24
5.63567e-25
-3.58341e-25
2.90246e-25
3.60071e-25
2.91771e-25
7.79718e-25
-6.33105e-26
8.4035e-25
3.5957e-25
2.79412e-25
6.67448e-25
-4.95335e-25
3.9448e-25
-1.37581e-24
8.38401e-25
-2.14506e-24
-6.06869e-25
-2.16498e-24
-1.01181e-24
-1.89618e-24
-1.54107e-24
-8.85074e-25
-2.94333e-24
4.62789e-25
-1.10678e-24
1.48743e-24
-1.42702e-24
2.61931e-24
4.74945e-25
2.78689e-24
2.82696e-24
2.49247e-24
2.01715e-24
1.7082e-24
3.73852e-24
4.80706e-25
1.48286e-24
-4.26837e-25
-1.09657e-25
-9.93011e-25
-1.28963e-24
-9.18321e-25
-2.56788e-24
-5.10029e-25
-1.08229e-24
-3.39235e-26
1.99158e-24
-3.55801e-22
-4.38065e-24
-1.45148e-23
-2.26372e-24
7.00282e-24
-4.43879e-24
1.39484e-23
-6.03904e-24
1.77045e-24
-4.97247e-24
1.09158e-23
-4.69778e-24
-3.3188e-24
-2.27976e-24
-2.98321e-24
-3.78756e-25
-7.88124e-24
1.18775e-24
-1.11711e-23
2.12211e-24
-7.34009e-24
1.75337e-24
-6.96132e-24
7.54507e-25
-5.87478e-25
-9.28031e-25
3.70424e-24
-2.65441e-24
6.65011e-24
-3.92346e-24
9.25386e-24
-4.60996e-24
7.24715e-24
-4.39996e-24
5.01857e-24
-3.67857e-24
1.02324e-24
-2.62854e-24
-3.115e-24
-1.66003e-24
-5.11122e-24
-1.11183e-24
-6.34105e-24
-9.78842e-25
-4.88108e-24
-1.30683e-24
-2.41505e-24
-1.75635e-24
2.82766e-25
-2.11093e-24
2.76594e-24
-2.18529e-24
3.46227e-24
-1.89872e-24
2.98329e-24
-1.43559e-24
1.28897e-24
-9.62176e-25
-8.73747e-25
-7.17663e-25
-2.4087e-24
-8.24178e-25
-3.1767e-24
-1.1867e-24
-2.83027e-24
-1.64598e-24
-1.70721e-24
-1.92171e-24
-6.49833e-25
-1.79578e-24
3.31994e-25
-1.30124e-24
6.14052e-25
-4.69481e-25
3.85724e-25
3.45364e-25
4.49112e-25
8.39235e-25
3.60216e-26
9.31924e-25
5.55623e-25
3.24507e-25
8.63743e-25
-5.34248e-25
5.02252e-25
-1.53259e-24
9.70486e-25
-2.41285e-24
-8.70477e-25
-2.46654e-24
-1.37055e-24
-2.19116e-24
-2.10909e-24
-1.06639e-24
-3.76211e-24
4.427e-25
-1.49437e-24
1.62088e-24
-1.83182e-24
2.92227e-24
6.70339e-25
3.1457e-24
3.56484e-24
2.85172e-24
2.71603e-24
1.97776e-24
4.80903e-24
5.99625e-25
1.98196e-24
-4.46736e-25
-2.10485e-26
-1.11537e-24
-1.64319e-24
-1.05923e-24
-3.24749e-24
-6.03719e-25
-1.49422e-24
-1.69531e-25
2.19662e-24
-3.59429e-22
-4.79457e-24
-1.80103e-23
-2.42727e-24
8.65142e-24
-4.92888e-24
1.63198e-23
-6.7594e-24
2.7005e-24
-5.67158e-24
1.35849e-23
-5.43987e-24
-3.56478e-24
-2.79166e-24
-2.97807e-24
-6.57107e-25
-9.30833e-24
1.13561e-24
-1.33619e-23
2.26321e-24
-9.07776e-24
1.93959e-24
-8.82539e-24
8.93215e-25
-1.15414e-24
-9.43164e-25
4.0118e-24
-2.87746e-24
7.80514e-24
-4.33647e-24
1.11677e-23
-5.16832e-24
8.9847e-24
-5.00592e-24
6.48681e-24
-4.25255e-24
1.67525e-24
-3.10485e-24
-3.37223e-24
-2.01668e-24
-5.98252e-24
-1.37127e-24
-7.68423e-24
-1.18263e-24
-6.10371e-24
-1.51282e-24
-3.24065e-24
-1.99722e-24
4.96748e-26
-2.39752e-24
3.16187e-24
-2.49921e-24
4.18425e-24
-2.20415e-24
3.77386e-24
-1.70349e-24
1.81782e-24
-1.17606e-24
-7.94137e-25
-8.89026e-25
-2.75055e-24
-9.83573e-25
-3.8325e-24
-1.36621e-24
-3.56111e-24
-1.86772e-24
-2.30373e-24
-2.17854e-24
-1.03893e-24
-2.05422e-24
2.09455e-25
-1.51938e-24
6.44796e-25
-6.00745e-25
4.86973e-25
3.13397e-25
6.30913e-25
8.88462e-25
1.62363e-25
1.02115e-24
7.8958e-25
3.75028e-25
1.08935e-24
-5.63868e-25
6.30207e-25
-1.68178e-24
1.11141e-24
-2.67815e-24
-1.17087e-24
-2.77576e-24
-1.78106e-24
-2.50268e-24
-2.76936e-24
-1.27014e-24
-4.6895e-24
3.97686e-25
-1.95934e-24
1.73622e-24
-2.30477e-24
3.21599e-24
8.81428e-25
3.50763e-24
4.37608e-24
3.22633e-24
3.52461e-24
2.26774e-24
6.02898e-24
7.40323e-25
2.57846e-24
-4.51789e-25
1.20023e-25
-1.2333e-24
-2.02366e-24
-1.20464e-24
-4.00445e-24
-7.05594e-25
-1.98178e-24
-3.6425e-25
2.39405e-24
-3.63481e-22
-5.19557e-24
-2.1851e-23
-2.56596e-24
1.04343e-23
-5.4141e-24
1.87538e-23
-7.48545e-24
3.85346e-24
-6.39688e-24
1.65708e-23
-6.23184e-24
-3.7238e-24
-3.3637e-24
-2.82484e-24
-9.95323e-25
-1.08107e-23
1.03215e-24
-1.57029e-23
2.37341e-24
-1.1013e-23
2.11414e-24
-1.09461e-23
1.03778e-24
-1.8752e-24
-9.41735e-25
4.23196e-24
-3.08462e-24
9.00053e-24
-4.74178e-24
1.32354e-23
-5.734e-24
1.09195e-23
-5.63565e-24
8.17651e-24
-4.86305e-24
2.48701e-24
-3.6246e-24
-3.55476e-24
-2.41624e-24
-6.87486e-24
-1.66722e-24
-9.13805e-24
-1.41428e-24
-7.47197e-24
-1.73853e-24
-4.20922e-24
-2.25335e-24
-2.75323e-25
-2.69936e-24
3.53993e-24
-2.83149e-24
4.95485e-24
-2.53242e-24
4.65798e-24
-1.99707e-24
2.44318e-24
-1.41542e-24
-6.5002e-25
-1.08266e-24
-3.08054e-24
-1.16014e-24
-4.5332e-24
-1.55869e-24
-4.37515e-24
-2.10072e-24
-2.99631e-24
-2.44814e-24
-1.51387e-24
-2.32953e-24
3.11662e-26
-1.75813e-24
6.49209e-25
-7.54057e-25
5.89786e-25
2.62125e-25
8.34715e-25
9.25752e-25
3.15669e-25
1.10719e-24
1.06222e-24
4.31345e-25
1.34576e-24
-5.82814e-25
7.81594e-25
-1.82139e-24
1.26336e-24
-2.93895e-24
-1.50429e-24
-3.09156e-24
-2.24145e-24
-2.83089e-24
-3.52319e-24
-1.49804e-24
-5.72724e-24
3.24726e-25
-2.50983e-24
1.83006e-24
-2.85328e-24
3.49724e-24
1.10054e-24
3.8707e-24
5.25315e-24
3.616e-24
4.44413e-24
2.5794e-24
7.40204e-24
9.05326e-25
3.28238e-24
-4.39278e-25
3.26057e-25
-1.34468e-24
-2.42281e-24
-1.35364e-24
-4.8353e-24
-8.15733e-25
-2.54896e-24
-6.29607e-25
2.58165e-24
-3.67958e-22
-5.58188e-24
-2.60183e-23
-2.67607e-24
1.23348e-23
-5.8914e-24
2.12118e-23
-8.21285e-24
5.25136e-24
-7.14532e-24
1.98749e-23
-7.07355e-24
-3.77467e-24
-3.99783e-24
-2.49601e-24
-1.39779e-24
-1.2373e-23
8.71802e-25
-1.81746e-23
2.44751e-24
-1.3145e-23
2.27273e-24
-1.33309e-23
1.18608e-24
-2.76653e-24
-9.2377e-25
4.34165e-24
-3.2742e-24
1.02187e-23
-5.13662e-24
1.54438e-23
-6.30441e-24
1.30498e-23
-6.28746e-24
1.00965e-23
-5.50984e-24
3.47398e-24
-4.18909e-24
-3.64271e-24
-2.86114e-24
-7.77199e-24
-2.00263e-24
-1.06924e-23
-1.67662e-24
-8.98484e-24
-1.9862e-24
-5.32841e-24
-2.52626e-24
-7.04517e-25
-3.01739e-24
3.8868e-24
-3.1828e-24
5.76495e-24
-2.88432e-24
5.63307e-24
-2.3174e-24
3.1692e-24
-1.6816e-24
-4.32358e-25
-1.29997e-24
-3.38874e-24
-1.35512e-24
-5.27115e-24
-1.76505e-24
-5.26949e-24
-2.34565e-24
-3.78743e-24
-2.73118e-24
-2.0808e-24
-2.62271e-24
-2.10801e-25
-2.01895e-24
6.19991e-25
-9.31422e-25
6.89107e-25
1.89372e-25
1.05726e-24
9.4928e-25
4.95354e-25
1.18903e-24
1.37397e-24
4.93692e-25
1.63449e-24
-5.89755e-25
9.59992e-25
-1.94936e-24
1.42908e-24
-3.19309e-24
-1.86605e-24
-3.41269e-24
-2.74909e-24
-3.1758e-24
-4.37121e-24
-1.75174e-24
-6.87669e-24
2.20739e-25
-3.15437e-24
1.89884e-24
-3.48546e-24
3.76252e-24
1.3186e-24
4.23265e-24
6.18706e-24
4.02017e-24
5.47473e-24
2.91388e-24
8.93128e-24
1.09719e-24
4.10419e-24
-4.06321e-25
6.10697e-25
-1.44717e-24
-2.83088e-24
-1.50509e-24
-5.73531e-24
-9.34108e-25
-3.19946e-24
-9.77906e-25
2.75706e-24
-3.72856e-22
-5.95189e-24
-3.04896e-23
-2.75377e-24
1.4334e-23
-6.35759e-24
2.36522e-23
-8.93677e-24
6.91573e-24
-7.91327e-24
2.34959e-23
-7.96438e-24
-3.69519e-24
-4.69555e-24
-1.96288e-24
-1.86882e-24
-1.39781e-23
6.48861e-25
-2.0754e-23
2.47998e-24
-1.54707e-23
2.41056e-24
-1.59857e-23
1.33553e-24
-3.84375e-24
-8.8966e-25
4.31661e-24
-3.44465e-24
1.14402e-23
-5.51818e-24
1.77773e-23
-6.87667e-24
1.5372e-23
-6.95929e-24
1.22545e-23
-6.19232e-24
4.65154e-24
-4.79939e-24
-3.6151e-24
-3.35372e-24
-8.65585e-24
-2.38051e-24
-1.23349e-23
-1.97264e-24
-1.06397e-23
-2.25826e-24
-6.60506e-24
-2.81764e-24
-1.2504e-24
-3.35265e-24
4.18807e-24
-3.55388e-24
6.60393e-24
-3.26064e-24
6.69514e-24
-2.66551e-24
3.99926e-24
-1.97592e-24
-1.32105e-25
-1.54243e-24
-3.6644e-24
-1.56981e-24
-6.03752e-24
-1.98634e-24
-6.24004e-24
-2.60326e-24
-4.67869e-24
-3.02835e-24
-2.74552e-24
-2.93478e-24
-5.2466e-25
-2.30339e-24
5.49156e-25
-1.13493e-24
7.78993e-25
9.28202e-26
1.29441e-24
9.57028e-25
7.00212e-25
1.26545e-24
1.72486e-24
5.62139e-25
1.95701e-24
-5.83436e-25
1.16929e-24
-2.06362e-24
1.61183e-24
-3.43831e-24
-2.25053e-24
-3.7377e-24
-3.30048e-24
-3.53723e-24
-5.31321e-24
-2.03281e-24
-8.13876e-24
8.26041e-26
-3.90181e-24
1.93878e-24
-4.2101e-24
4.00802e-24
1.52506e-24
4.59085e-24
7.1672e-24
4.43796e-24
6.61527e-24
3.27216e-24
1.0619e-23
1.31849e-24
5.0547e-24
-3.49872e-25
9.88695e-25
-1.53816e-24
-3.23651e-24
-1.65767e-24
-6.69843e-24
-1.06055e-24
-3.93646e-24
-1.42215e-24
2.91778e-24
-3.7817e-22
-6.30412e-24
-3.52385e-23
-2.79516e-24
1.64101e-23
-6.80938e-24
2.60311e-23
-9.65182e-24
8.86718e-24
-8.69645e-24
2.74295e-23
-8.90312e-24
-3.46229e-24
-5.45776e-24
-1.1958e-24
-2.41252e-24
-1.56072e-23
3.57548e-25
-2.34153e-23
2.46494e-24
-1.79849e-23
2.5223e-24
-1.89144e-23
1.48304e-24
-5.12201e-24
-8.4022e-25
4.13157e-24
-3.59463e-24
1.26437e-23
-5.88355e-24
2.02174e-23
-7.44769e-24
1.788e-23
-7.64866e-24
1.46565e-23
-6.90953e-24
6.03469e-24
-5.45626e-24
-3.45e-24
-3.89613e-24
-9.50659e-24
-2.80388e-24
-1.40514e-23
-2.30548e-24
-1.24319e-23
-2.55736e-24
-8.04499e-24
-3.12939e-24
-1.92548e-24
-3.70634e-24
4.42832e-24
-3.94551e-24
7.45965e-24
-3.66215e-24
7.83865e-24
-3.04241e-24
4.93571e-24
-2.29972e-24
2.59638e-25
-1.8115e-24
-3.89613e-24
-1.80559e-24
-6.82222e-24
-2.22364e-24
-7.28131e-24
-2.87438e-24
-5.67064e-24
-3.34044e-24
-3.51339e-24
-3.26677e-24
-9.18819e-25
-2.613e-24
4.2805e-25
-1.36675e-24
8.5258e-25
-2.99856e-26
1.5411e-24
9.46778e-25
9.28332e-25
1.33502e-24
2.11444e-24
6.36561e-25
2.31475e-24
-5.62708e-25
1.41363e-24
-2.16203e-24
1.81543e-24
-3.67219e-24
-2.65116e-24
-4.06494e-24
-3.89126e-24
-3.9148e-24
-6.34807e-24
-2.34268e-24
-9.51385e-24
-9.27928e-26
-4.76125e-24
1.94593e-24
-5.03668e-24
4.22961e-24
1.70785e-24
4.94233e-24
8.1813e-24
4.86814e-24
7.8632e-24
3.65501e-24
1.24665e-23
1.57175e-24
6.14498e-24
-2.66732e-25
1.47586e-24
-1.6148e-24
-3.62663e-24
-1.80979e-24
-7.71704e-24
-1.19475e-24
-4.76259e-24
-1.97598e-24
3.06111e-24
-3.83891e-22
-6.63729e-24
-4.02347e-23
-2.79627e-24
1.85389e-23
-7.2434e-24
2.83018e-23
-1.03521e-23
1.11251e-23
-9.48991e-24
3.16682e-23
-9.88792e-24
-3.05219e-24
-6.28475e-24
-1.64481e-25
-3.03276e-24
-1.72395e-23
-7.9055e-27
-2.61291e-23
2.39624e-24
-2.06802e-23
2.60209e-24
-2.21185e-23
1.62502e-24
-6.61567e-24
-7.76764e-25
3.7605e-24
-3.72306e-24
1.38063e-23
-6.22985e-24
2.27431e-23
-8.01412e-24
2.05655e-23
-8.35273e-24
1.73068e-23
-7.66005e-24
7.63788e-24
-6.16009e-24
-3.12471e-24
-4.49037e-24
-1.03026e-23
-3.27577e-24
-1.58249e-23
-2.67842e-24
-1.4355e-23
-2.88636e-24
-9.65267e-24
-3.46365e-24
-2.74209e-24
-4.07981e-24
4.59125e-24
-4.35856e-24
8.3184e-24
-4.08962e-24
9.05642e-24
-3.44908e-24
5.97977e-24
-2.65428e-24
7.51459e-25
-2.10867e-24
-4.07193e-24
-2.06389e-24
-7.61391e-24
-2.47815e-24
-8.38643e-24
-3.15988e-24
-6.76266e-24
-3.66825e-24
-4.38915e-24
-3.61976e-24
-1.40177e-24
-2.94938e-24
2.47404e-25
-1.6291e-24
9.02058e-25
-1.81639e-25
1.79127e-24
9.16098e-25
1.17701e-24
1.39606e-24
2.54169e-24
7.16604e-25
2.709e-24
-5.26562e-25
1.69742e-24
-2.24251e-24
2.04427e-24
-3.89221e-24
-3.06035e-24
-4.3925e-24
-4.5161e-24
-4.30787e-24
-7.47365e-24
-2.68264e-24
-1.10018e-23
-3.08523e-25
-5.74192e-24
1.91618e-24
-5.97531e-24
4.42286e-24
1.85333e-24
5.28369e-24
9.21534e-24
5.3091e-24
9.21428e-24
4.06297e-24
1.4474e-23
1.85943e-24
7.38617e-24
-1.53565e-25
2.08897e-24
-1.67395e-24
-3.98637e-24
-1.95958e-24
-8.78188e-24
-1.33617e-24
-5.67967e-24
-2.65349e-24
3.18423e-24
-3.90005e-22
-6.95036e-24
-4.54439e-23
-2.75321e-24
2.06934e-23
-7.65628e-24
3.0416e-23
-1.10312e-23
1.37072e-23
-1.0288e-23
3.62004e-23
-1.09162e-23
-2.44054e-24
-7.17597e-24
1.16171e-24
-3.73307e-24
-1.88526e-23
-4.53161e-25
-2.88627e-23
2.26749e-24
-2.35464e-23
2.64353e-24
-2.55968e-23
1.75727e-24
-8.33799e-24
-7.01169e-25
3.17683e-24
-3.82919e-24
1.49032e-23
-6.55426e-24
2.53308e-23
-8.57244e-24
2.34175e-23
-9.06823e-24
2.02076e-23
-8.44203e-24
9.47462e-24
-6.91089e-24
-2.61601e-24
-5.13812e-24
-1.10207e-23
-3.79912e-24
-1.76364e-23
-3.09481e-24
-1.64001e-23
-3.24834e-24
-1.14311e-23
-3.82276e-24
-3.71217e-24
-4.47459e-24
4.65977e-24
-4.79399e-24
9.16491e-24
-4.54385e-24
1.03395e-23
-3.88646e-24
7.1313e-24
-3.04088e-24
1.35143e-24
-2.43542e-24
-4.17935e-24
-2.34618e-24
-8.40006e-24
-2.75113e-24
-9.54697e-24
-3.46074e-24
-7.9528e-24
-4.01263e-24
-5.37678e-24
-3.99483e-24
-1.98193e-24
-3.31413e-24
-2.60093e-27
-1.9243e-24
9.18666e-25
-3.64872e-25
2.03779e-24
8.62325e-25
1.44267e-24
1.44661e-24
3.00496e-24
8.01649e-25
3.14084e-24
-4.74169e-25
2.02518e-24
-2.30296e-24
2.30331e-24
-4.09571e-24
-3.46953e-24
-4.71826e-24
-5.16862e-24
-4.71553e-24
-8.68666e-24
-3.05371e-24
-1.26016e-23
-5.67563e-25
-6.85302e-24
1.84528e-24
-7.03665e-24
4.58303e-24
1.94628e-24
5.61114e-24
1.02535e-23
5.75875e-24
1.06624e-23
4.49624e-24
1.66407e-23
2.18388e-24
8.78931e-24
-6.92882e-27
2.84567e-24
-1.71218e-24
-4.29904e-24
-2.10488e-24
-9.88184e-24
-1.48409e-24
-6.68863e-24
-3.46914e-24
3.28413e-24
-3.96496e-22
-7.24252e-24
-5.08278e-23
-2.66216e-24
2.28435e-23
-8.04471e-24
3.23236e-23
-1.16822e-23
1.66291e-23
-1.10844e-23
4.10105e-23
-1.19846e-23
-1.60265e-24
-8.13005e-24
2.8133e-24
-4.51648e-24
-2.04224e-23
-9.83672e-25
-3.15801e-23
2.0721e-24
-2.65706e-23
2.6397e-24
-2.93452e-23
1.87503e-24
-1.03008e-23
-6.15941e-25
2.35383e-24
-3.91271e-24
1.59083e-23
-6.85408e-24
2.79538e-23
-9.119e-24
2.64222e-23
-9.79148e-24
2.33587e-23
-9.25312e-24
1.15572e-23
-7.70817e-24
-1.90039e-24
-5.84078e-24
-1.16361e-23
-4.37678e-24
-1.94645e-23
-3.5581e-24
-1.8556e-23
-3.64657e-24
-1.33813e-23
-4.20931e-24
-4.84696e-24
-4.89239e-24
4.61623e-24
-5.25287e-24
9.98243e-24
-5.02563e-24
1.1677e-23
-4.35544e-24
8.38863e-24
-3.46072e-24
2.06691e-24
-2.79324e-24
-4.20563e-24
-2.65397e-24
-9.16697e-24
-3.0439e-24
-1.0753e-23
-3.77798e-24
-9.23762e-24
-4.37449e-24
-6.47929e-24
-4.39307e-24
-2.66755e-24
-3.70888e-24
-3.32246e-25
-2.25467e-24
8.92694e-25
-5.82548e-25
2.27245e-24
7.82563e-25
1.72073e-24
1.48442e-24
3.50182e-24
8.90767e-25
3.6111e-24
-4.04924e-25
2.40156e-24
-2.34138e-24
2.59801e-24
-4.27998e-24
-3.8691e-24
-5.03981e-24
-5.84137e-24
-5.13655e-24
-9.98253e-24
-3.45668e-24
-1.43115e-23
-8.72744e-25
-8.10357e-24
1.72892e-24
-8.23188e-24
4.70511e-24
1.9699e-24
5.9204e-24
1.12781e-23
6.21452e-24
1.21995e-23
4.95467e-24
1.89638e-23
2.54726e-24
1.03651e-23
1.76701e-25
3.76433e-24
-1.72578e-24
-4.54604e-24
-2.24321e-24
-1.10039e-23
-1.6375e-24
-7.78928e-24
-4.43751e-24
3.35767e-24
-4.03343e-22
-7.51323e-24
-5.6344e-23
-2.51951e-24
2.49563e-23
-8.40551e-24
3.39736e-23
-1.22977e-23
1.9904e-23
-1.18722e-23
4.60785e-23
-1.30889e-23
-5.13649e-25
-9.1446e-24
4.82027e-24
-5.38551e-24
-2.19235e-23
-1.60456e-24
-3.42418e-23
1.80341e-24
-2.97371e-23
2.58322e-24
-3.33561e-23
1.97293e-24
-1.25142e-23
-5.24277e-25
1.26491e-24
-3.97378e-24
1.67943e-23
-7.12683e-24
3.05828e-23
-9.65003e-24
2.95627e-23
-1.05185e-23
2.67571e-23
-1.00904e-23
1.38965e-23
-8.55097e-24
-9.54373e-25
-6.59934e-24
-1.21227e-23
-5.0114e-24
-2.12851e-23
-4.07172e-24
-2.08087e-23
-4.08448e-24
-1.55024e-23
-4.62613e-24
-6.15678e-24
-5.33514e-24
4.44263e-24
-5.7364e-24
1.07527e-23
-5.53582e-24
1.30561e-23
-4.85691e-24
9.74833e-24
-3.915e-24
2.90427e-24
-3.18359e-24
-4.1379e-24
-2.98882e-24
-9.89984e-24
-3.35786e-24
-1.19928e-23
-4.1127e-24
-1.0612e-23
-4.75475e-24
-7.69856e-24
-4.81557e-24
-3.46645e-24
-4.13523e-24
-7.52159e-25
-2.62261e-24
8.13519e-25
-8.37662e-25
2.48587e-24
6.73663e-25
2.00554e-24
1.50689e-24
4.029e-24
9.8268e-25
4.12018e-24
-3.18498e-25
2.83119e-24
-2.35587e-24
2.9344e-24
-4.4422e-24
-4.24846e-24
-5.35451e-24
-6.52575e-24
-5.56934e-24
-1.13553e-23
-3.89198e-24
-1.6129e-23
-1.22669e-24
-9.50225e-24
1.5627e-24
-9.57256e-24
4.78378e-24
1.90581e-24
6.20678e-24
1.22694e-23
6.67328e-24
1.38152e-23
5.43764e-24
2.14392e-23
2.95149e-24
1.21238e-23
4.00885e-25
4.86387e-24
-1.71077e-24
-4.70687e-24
-2.37171e-24
-1.21327e-23
-1.79515e-24
-8.98007e-24
-5.57311e-24
3.40154e-24
-4.10523e-22
-7.76225e-24
-6.19462e-23
-2.32193e-24
2.69961e-23
-8.73568e-24
3.53148e-23
-1.28697e-23
2.35421e-23
-1.26436e-23
5.1379e-23
-1.4224e-23
8.51257e-25
-1.02161e-23
7.2115e-24
-6.34195e-24
-2.3329e-23
-2.32049e-24
-3.68051e-23
1.45471e-24
-3.30273e-23
2.46624e-24
-3.76181e-23
2.04497e-24
-1.49859e-23
-4.30125e-25
-1.15937e-25
-4.01314e-24
1.75329e-23
-7.37032e-24
3.31859e-23
-1.01617e-23
3.28192e-23
-1.12447e-23
3.03971e-23
-1.09506e-23
1.65012e-23
-9.43771e-24
2.45128e-25
-7.41434e-24
-1.24531e-23
-5.70537e-24
-2.30721e-23
-4.63908e-24
-2.31417e-23
-4.56566e-24
-1.7791e-23
-5.07626e-24
-7.65064e-24
-5.80501e-24
4.12082e-24
-6.24595e-24
1.14563e-23
-6.0753e-24
1.44621e-23
-5.39173e-24
1.12051e-23
-4.40485e-24
3.86872e-24
-3.6079e-24
-3.96337e-24
-3.35228e-24
-1.05829e-23
-3.69443e-24