/*--------------------------------*- C++ -*----------------------------------*\
| =========                 |                                                 |
| \\      /  F ield         | foam-extend: Open Source CFD                    |
|  \\    /   O peration     | Version:     4.0                                |
|   \\  /    A nd           | Web:         http://www.foam-extend.org         |
|    \\/     M anipulation  |                                                 |
\*---------------------------------------------------------------------------*/
FoamFile
{
    version     2.0;
    format      ascii;
    class       volVectorField;
    location    "5";
    object      U;
}
// * * * * * * * * * * * * * * * * * * * * * * * * * * * * * * * * * * * * * //

dimensions      [0 1 -1 0 0 0 0];

internalField   nonuniform List<vector> 
6960
(
(-5.06644e-06 -490.965 0)
(-4.38983e-06 -490.949 0)
(1.2232e-06 -490.949 0)
(4.92535e-07 -490.949 0)
(-4.40573e-08 -490.949 0)
(-2.64267e-08 -490.949 0)
(-4.88478e-08 -490.949 0)
(-3.29556e-08 -490.949 0)
(-3.03003e-08 -490.949 0)
(-2.10427e-08 -490.949 0)
(-1.71576e-08 -490.949 0)
(-1.17278e-08 -490.949 0)
(-8.80391e-09 -490.949 0)
(-5.53547e-09 -490.949 0)
(-3.55026e-09 -490.949 0)
(-1.57201e-09 -490.949 0)
(-3.03997e-10 -490.949 0)
(8.50274e-10 -490.949 0)
(1.58013e-09 -490.949 0)
(2.17271e-09 -490.949 0)
(2.4938e-09 -490.949 0)
(2.68651e-09 -490.949 0)
(2.69491e-09 -490.949 0)
(2.59574e-09 -490.949 0)
(2.37233e-09 -490.949 0)
(2.06708e-09 -490.949 0)
(1.68055e-09 -490.949 0)
(1.24327e-09 -490.949 0)
(7.6087e-10 -490.949 0)
(2.56857e-10 -490.949 0)
(-2.56099e-10 -490.949 0)
(-7.60654e-10 -490.949 0)
(-1.24418e-09 -490.949 0)
(-1.67967e-09 -490.949 0)
(-2.0675e-09 -490.949 0)
(-2.37355e-09 -490.949 0)
(-2.59469e-09 -490.949 0)
(-2.69492e-09 -490.949 0)
(-2.68757e-09 -490.949 0)
(-2.49272e-09 -490.949 0)
(-2.1732e-09 -490.949 0)
(-1.58189e-09 -490.949 0)
(-8.49469e-10 -490.949 0)
(3.03437e-10 -490.949 0)
(1.57028e-09 -490.949 0)
(3.55082e-09 -490.949 0)
(5.53459e-09 -490.949 0)
(8.80171e-09 -490.949 0)
(1.17284e-08 -490.949 0)
(1.71572e-08 -490.949 0)
(2.10408e-08 -490.949 0)
(3.03006e-08 -490.949 0)
(3.29544e-08 -490.949 0)
(4.88454e-08 -490.949 0)
(2.64259e-08 -490.949 0)
(4.40554e-08 -490.949 0)
(-4.92539e-07 -490.949 0)
(-1.2232e-06 -490.949 0)
(4.38981e-06 -490.949 0)
(5.06643e-06 -490.965 0)
(0.000457687 45.8873 0)
(0.000460409 45.9018 0)
(4.47318e-06 45.9018 0)
(1.72792e-06 45.9017 0)
(8.46187e-08 45.9017 0)
(5.72776e-08 45.9017 0)
(-5.00904e-08 45.9017 0)
(-3.12275e-08 45.9017 0)
(-4.14245e-08 45.9017 0)
(-2.71282e-08 45.9017 0)
(-2.48328e-08 45.9017 0)
(-1.5715e-08 45.9017 0)
(-1.22513e-08 45.9017 0)
(-6.57891e-09 45.9017 0)
(-3.75448e-09 45.9017 0)
(-3.18129e-10 45.9017 0)
(1.60588e-09 45.9017 0)
(3.61054e-09 45.9017 0)
(4.68497e-09 45.9017 0)
(5.6665e-09 45.9017 0)
(6.0874e-09 45.9017 0)
(6.29502e-09 45.9017 0)
(6.16116e-09 45.9017 0)
(5.85019e-09 45.9017 0)
(5.2594e-09 45.9017 0)
(4.55567e-09 45.9017 0)
(3.69033e-09 45.9017 0)
(2.70221e-09 45.9017 0)
(1.66128e-09 45.9017 0)
(5.9447e-10 45.9017 0)
(-6.36868e-10 45.9017 0)
(-1.64791e-09 45.9017 0)
(-2.60907e-09 45.9017 0)
(-3.78277e-09 45.9017 0)
(-4.55639e-09 45.9017 0)
(-5.16703e-09 45.9017 0)
(-5.94205e-09 45.9017 0)
(-6.16078e-09 45.9017 0)
(-6.20256e-09 45.9017 0)
(-6.17943e-09 45.9017 0)
(-5.66738e-09 45.9017 0)
(-4.5942e-09 45.9017 0)
(-3.70358e-09 45.9017 0)
(-1.60732e-09 45.9017 0)
(4.08761e-10 45.9017 0)
(3.66063e-09 45.9017 0)
(6.57664e-09 45.9017 0)
(1.23409e-08 45.9017 0)
(1.56212e-08 45.9017 0)
(2.48319e-08 45.9017 0)
(2.72186e-08 45.9017 0)
(4.13304e-08 45.9017 0)
(3.12248e-08 45.9017 0)
(5.01796e-08 45.9017 0)
(-5.73743e-08 45.9017 0)
(-8.46224e-08 45.9017 0)
(-1.72783e-06 45.9017 0)
(-4.47329e-06 45.9018 0)
(-0.000460409 45.9018 0)
(-0.000457687 45.8873 0)
(0.00039105 84.1156 0)
(0.00039577 84.1083 0)
(7.74521e-06 84.1083 0)
(3.13909e-06 84.1083 0)
(3.82337e-07 84.1083 0)
(2.46434e-07 84.1083 0)
(2.25821e-08 84.1083 0)
(2.20663e-08 84.1083 0)
(-1.50199e-08 84.1083 0)
(-5.94059e-09 84.1083 0)
(-1.23878e-08 84.1083 0)
(-5.03103e-09 84.1083 0)
(-4.99919e-09 84.1083 0)
(-5.19456e-11 84.1083 0)
(1.23885e-09 84.1083 0)
(4.30123e-09 84.1083 0)
(5.45349e-09 84.1083 0)
(7.1986e-09 84.1083 0)
(7.82317e-09 84.1083 0)
(8.57823e-09 84.1083 0)
(8.67217e-09 84.1083 0)
(8.65532e-09 84.1083 0)
(8.23716e-09 84.1083 0)
(7.68038e-09 84.1083 0)
(6.81621e-09 84.1083 0)
(5.84682e-09 84.1083 0)
(4.69621e-09 84.1083 0)
(3.43188e-09 84.1083 0)
(2.0969e-09 84.1083 0)
(7.36929e-10 84.1083 0)
(-7.7233e-10 84.1083 0)
(-2.08467e-09 84.1083 0)
(-3.35162e-09 84.1083 0)
(-4.77431e-09 84.1083 0)
(-5.84735e-09 84.1083 0)
(-6.73698e-09 84.1083 0)
(-7.75744e-09 84.1083 0)
(-8.23599e-09 84.1083 0)
(-8.57641e-09 84.1083 0)
(-8.74986e-09 84.1083 0)
(-8.57893e-09 84.1083 0)
(-7.7466e-09 84.1083 0)
(-7.27816e-09 84.1083 0)
(-5.45561e-09 84.1083 0)
(-4.22518e-09 84.1083 0)
(-1.31981e-09 84.1083 0)
(4.85409e-11 84.1083 0)
(5.07371e-09 84.1083 0)
(4.95017e-09 84.1083 0)
(1.23864e-08 84.1083 0)
(6.01654e-09 84.1083 0)
(1.49392e-08 84.1083 0)
(-2.207e-08 84.1083 0)
(-2.25077e-08 84.1083 0)
(-2.46518e-07 84.1083 0)
(-3.82342e-07 84.1083 0)
(-3.13902e-06 84.1083 0)
(-7.7453e-06 84.1083 0)
(-0.00039577 84.1083 0)
(-0.00039105 84.1156 0)
(0.000192258 16.7976 0)
(0.000198877 16.7903 0)
(1.08781e-05 16.7903 0)
(4.56585e-06 16.7903 0)
(7.62068e-07 16.7903 0)
(4.84156e-07 16.7903 0)
(1.29597e-07 16.7903 0)
(9.87683e-08 16.7903 0)
(2.84328e-08 16.7903 0)
(2.74731e-08 16.7903 0)
(9.08718e-09 16.7903 0)
(1.21909e-08 16.7903 0)
(7.03124e-09 16.7903 0)
(9.84857e-09 16.7903 0)
(8.56851e-09 16.7903 0)
(1.04386e-08 16.7903 0)
(1.01992e-08 16.7903 0)
(1.11976e-08 16.7903 0)
(1.10223e-08 16.7903 0)
(1.12819e-08 16.7903 0)
(1.08643e-08 16.7903 0)
(1.05113e-08 16.7903 0)
(9.7467e-09 16.7903 0)
(8.92755e-09 16.7903 0)
(7.82249e-09 16.7903 0)
(6.64255e-09 16.7903 0)
(5.28807e-09 16.7903 0)
(3.85691e-09 16.7903 0)
(2.34071e-09 16.7903 0)
(8.05034e-10 16.7903 0)
(-8.20832e-10 16.7903 0)
(-2.3331e-09 16.7903 0)
(-3.81609e-09 16.7903 0)
(-5.3248e-09 16.7903 0)
(-6.64263e-09 16.7903 0)
(-7.78286e-09 16.7903 0)
(-8.96279e-09 16.7903 0)
(-9.7445e-09 16.7903 0)
(-1.04725e-08 16.7903 0)
(-1.09008e-08 16.7903 0)
(-1.1282e-08 16.7903 0)
(-1.09863e-08 16.7903 0)
(-1.12368e-08 16.7903 0)
(-1.02019e-08 16.7903 0)
(-1.04037e-08 16.7903 0)
(-8.60975e-09 16.7903 0)
(-9.85294e-09 16.7903 0)
(-6.99827e-09 16.7903 0)
(-1.22319e-08 16.7903 0)
(-9.08893e-09 16.7903 0)
(-2.74381e-08 16.7903 0)
(-2.84732e-08 16.7903 0)
(-9.87726e-08 16.7903 0)
(-1.29563e-07 16.7903 0)
(-4.84201e-07 16.7903 0)
(-7.62074e-07 16.7903 0)
(-4.56582e-06 16.7903 0)
(-1.08782e-05 16.7903 0)
(-0.000198877 16.7903 0)
(-0.000192258 16.7976 0)
(0.000128892 -3.21947 0)
(0.000137426 -3.22058 0)
(1.39617e-05 -3.22059 0)
(5.9543e-06 -3.2206 0)
(1.18135e-06 -3.2206 0)
(7.43171e-07 -3.2206 0)
(2.52262e-07 -3.2206 0)
(1.85703e-07 -3.2206 0)
(7.9445e-08 -3.2206 0)
(6.61976e-08 -3.2206 0)
(3.45441e-08 -3.2206 0)
(3.2286e-08 -3.2206 0)
(2.11988e-08 -3.2206 0)
(2.12781e-08 -3.2206 0)
(1.70042e-08 -3.2206 0)
(1.73212e-08 -3.2206 0)
(1.54379e-08 -3.2206 0)
(1.54843e-08 -3.2206 0)
(1.43531e-08 -3.2206 0)
(1.40032e-08 -3.2206 0)
(1.29968e-08 -3.2206 0)
(1.22449e-08 -3.2206 0)
(1.11048e-08 -3.2206 0)
(1.00113e-08 -3.2206 0)
(8.66066e-09 -3.2206 0)
(7.28653e-09 -3.2206 0)
(5.75507e-09 -3.2206 0)
(4.18197e-09 -3.2206 0)
(2.52617e-09 -3.2206 0)
(8.63061e-10 -3.2206 0)
(-8.71985e-10 -3.2206 0)
(-2.51947e-09 -3.2206 0)
(-4.15314e-09 -3.2206 0)
(-5.77773e-09 -3.2206 0)
(-7.28601e-09 -3.2206 0)
(-8.63305e-09 -3.2206 0)
(-1.0032e-08 -3.2206 0)
(-1.11014e-08 -3.2206 0)
(-1.22188e-08 -3.2206 0)
(-1.30193e-08 -3.2206 0)
(-1.40027e-08 -3.2206 0)
(-1.43302e-08 -3.2206 0)
(-1.55105e-08 -3.2206 0)
(-1.54412e-08 -3.2206 0)
(-1.72999e-08 -3.2206 0)
(-1.70331e-08 -3.2206 0)
(-2.12834e-08 -3.2206 0)
(-2.11798e-08 -3.2206 0)
(-3.23144e-08 -3.2206 0)
(-3.45462e-08 -3.2206 0)
(-6.61761e-08 -3.2206 0)
(-7.94724e-08 -3.2206 0)
(-1.85708e-07 -3.2206 0)
(-2.52243e-07 -3.2206 0)
(-7.43203e-07 -3.2206 0)
(-1.18136e-06 -3.2206 0)
(-5.95429e-06 -3.2206 0)
(-1.39617e-05 -3.22059 0)
(-0.000137426 -3.22058 0)
(-0.000128892 -3.21947 0)
(0.000130664 -1.47328 0)
(0.000141035 -1.47257 0)
(1.69088e-05 -1.47257 0)
(7.30304e-06 -1.47259 0)
(1.62443e-06 -1.47259 0)
(1.01377e-06 -1.47259 0)
(3.84145e-07 -1.47259 0)
(2.78387e-07 -1.47259 0)
(1.34826e-07 -1.47259 0)
(1.07935e-07 -1.47259 0)
(6.23206e-08 -1.47259 0)
(5.4055e-08 -1.47259 0)
(3.66554e-08 -1.47259 0)
(3.36499e-08 -1.47259 0)
(2.61587e-08 -1.47259 0)
(2.47188e-08 -1.47259 0)
(2.10559e-08 -1.47259 0)
(2.00324e-08 -1.47259 0)
(1.78586e-08 -1.47259 0)
(1.68307e-08 -1.47259 0)
(1.51882e-08 -1.47259 0)
(1.39964e-08 -1.47259 0)
(1.24574e-08 -1.47259 0)
(1.10742e-08 -1.47259 0)
(9.46673e-09 -1.47259 0)
(7.89719e-09 -1.47259 0)
(6.19289e-09 -1.47259 0)
(4.48091e-09 -1.47259 0)
(2.69679e-09 -1.47259 0)
(9.2063e-10 -1.47259 0)
(-9.28818e-10 -1.47259 0)
(-2.68923e-09 -1.47259 0)
(-4.45084e-09 -1.47259 0)
(-6.21459e-09 -1.47259 0)
(-7.89596e-09 -1.47259 0)
(-9.43792e-09 -1.47259 0)
(-1.10936e-08 -1.47259 0)
(-1.24529e-08 -1.47259 0)
(-1.39696e-08 -1.47259 0)
(-1.52101e-08 -1.47259 0)
(-1.68295e-08 -1.47259 0)
(-1.78355e-08 -1.47259 0)
(-2.00587e-08 -1.47259 0)
(-2.10596e-08 -1.47259 0)
(-2.4698e-08 -1.47259 0)
(-2.61883e-08 -1.47259 0)
(-3.3656e-08 -1.47259 0)
(-3.66372e-08 -1.47259 0)
(-5.4084e-08 -1.47259 0)
(-6.2323e-08 -1.47259 0)
(-1.07914e-07 -1.47259 0)
(-1.34854e-07 -1.47259 0)
(-2.78392e-07 -1.47259 0)
(-3.84126e-07 -1.47259 0)
(-1.01381e-06 -1.47259 0)
(-1.62444e-06 -1.47259 0)
(-7.30303e-06 -1.47259 0)
(-1.69088e-05 -1.47257 0)
(-0.000141036 -1.47257 0)
(-0.000130664 -1.47328 0)
(0.000127198 0.310069 0)
(0.000139229 0.31034 0)
(1.96194e-05 0.310336 0)
(8.60594e-06 0.310316 0)
(2.0836e-06 0.310315 0)
(1.29147e-06 0.310315 0)
(5.22355e-07 0.310315 0)
(3.74785e-07 0.310315 0)
(1.93116e-07 0.310315 0)
(1.51614e-07 0.310315 0)
(9.16256e-08 0.310315 0)
(7.69106e-08 0.310315 0)
(5.29729e-08 0.310315 0)
(4.66524e-08 0.310315 0)
(3.58109e-08 0.310315 0)
(3.24846e-08 0.310315 0)
(2.69601e-08 0.310315 0)
(2.479e-08 0.310315 0)
(2.15226e-08 0.310315 0)
(1.97706e-08 0.310315 0)
(1.74605e-08 0.310315 0)
(1.5802e-08 0.310315 0)
(1.38458e-08 0.310315 0)
(1.21581e-08 0.310315 0)
(1.02847e-08 0.310315 0)
(8.5129e-09 0.310315 0)
(6.6321e-09 0.310315 0)
(4.77952e-09 0.310315 0)
(2.86662e-09 0.310315 0)
(9.77428e-10 0.310315 0)
(-9.84396e-10 0.310315 0)
(-2.85829e-09 0.310315 0)
(-4.74924e-09 0.310315 0)
(-6.65178e-09 0.310315 0)
(-8.51092e-09 0.310315 0)
(-1.02557e-08 0.310315 0)
(-1.21751e-08 0.310315 0)
(-1.38401e-08 0.310315 0)
(-1.57756e-08 0.310315 0)
(-1.74806e-08 0.310315 0)
(-1.97688e-08 0.310315 0)
(-2.15004e-08 0.310315 0)
(-2.48155e-08 0.310315 0)
(-2.69644e-08 0.310315 0)
(-3.24653e-08 0.310315 0)
(-3.58403e-08 0.310315 0)
(-4.66594e-08 0.310315 0)
(-5.29565e-08 0.310315 0)
(-7.69393e-08 0.310315 0)
(-9.16284e-08 0.310315 0)
(-1.51594e-07 0.310315 0)
(-1.93143e-07 0.310315 0)
(-3.74791e-07 0.310315 0)
(-5.22337e-07 0.310315 0)
(-1.2915e-06 0.310315 0)
(-2.0836e-06 0.310315 0)
(-8.60594e-06 0.310316 0)
(-1.96194e-05 0.310336 0)
(-0.000139229 0.31034 0)
(-0.000127198 0.310069 0)
(0.000114303 0.305264 0)
(0.000127804 0.305238 0)
(2.20719e-05 0.305235 0)
(9.85224e-06 0.305213 0)
(2.55445e-06 0.305212 0)
(1.57399e-06 0.305212 0)
(6.65537e-07 0.305212 0)
(4.7395e-07 0.305212 0)
(2.53639e-07 0.305212 0)
(1.96733e-07 0.305212 0)
(1.22085e-07 0.305212 0)
(1.0057e-07 0.305212 0)
(6.99395e-08 0.305212 0)
(6.01279e-08 0.305212 0)
(4.58453e-08 0.305212 0)
(4.05365e-08 0.305212 0)
(3.30944e-08 0.305212 0)
(2.97212e-08 0.305212 0)
(2.53254e-08 0.305212 0)
(2.28152e-08 0.305212 0)
(1.98145e-08 0.305212 0)
(1.76691e-08 0.305212 0)
(1.52811e-08 0.305212 0)
(1.32761e-08 0.305212 0)
(1.11283e-08 0.305212 0)
(9.14658e-09 0.305212 0)
(7.08367e-09 0.305212 0)
(5.08635e-09 0.305212 0)
(3.04088e-09 0.305212 0)
(1.03494e-09 0.305212 0)
(-1.03975e-09 0.305212 0)
(-3.03202e-09 0.305212 0)
(-5.05774e-09 0.305212 0)
(-7.09951e-09 0.305212 0)
(-9.14378e-09 0.305212 0)
(-1.11009e-08 0.305212 0)
(-1.32889e-08 0.305212 0)
(-1.52743e-08 0.305212 0)
(-1.76449e-08 0.305212 0)
(-1.98309e-08 0.305212 0)
(-2.28127e-08 0.305212 0)
(-2.53058e-08 0.305212 0)
(-2.97439e-08 0.305212 0)
(-3.30991e-08 0.305212 0)
(-4.05205e-08 0.305212 0)
(-4.58726e-08 0.305212 0)
(-6.01357e-08 0.305212 0)
(-6.99269e-08 0.305212 0)
(-1.00597e-07 0.305212 0)
(-1.22088e-07 0.305212 0)
(-1.96716e-07 0.305212 0)
(-2.53663e-07 0.305212 0)
(-4.73957e-07 0.305212 0)
(-6.65522e-07 0.305212 0)
(-1.57402e-06 0.305212 0)
(-2.55446e-06 0.305212 0)
(-9.85224e-06 0.305213 0)
(-2.20719e-05 0.305235 0)
(-0.000127804 0.305238 0)
(-0.000114303 0.305264 0)
(0.000101152 0.0763344 0)
(0.000115945 0.0763378 0)
(2.42745e-05 0.0763347 0)
(1.10348e-05 0.0763111 0)
(3.03421e-06 0.0763101 0)
(1.86016e-06 0.0763095 0)
(8.1314e-07 0.0763095 0)
(5.75526e-07 0.0763094 0)
(3.16159e-07 0.0763094 0)
(2.43119e-07 0.0763094 0)
(1.53573e-07 0.0763094 0)
(1.2494e-07 0.0763094 0)
(8.74865e-08 0.0763094 0)
(7.40254e-08 0.0763094 0)
(5.62259e-08 0.0763094 0)
(4.88485e-08 0.0763094 0)
(3.94419e-08 0.0763094 0)
(3.4816e-08 0.0763094 0)
(2.92615e-08 0.0763094 0)
(2.59632e-08 0.0763094 0)
(2.22521e-08 0.0763094 0)
(1.9601e-08 0.0763094 0)
(1.6768e-08 0.0763094 0)
(1.44339e-08 0.0763094 0)
(1.20027e-08 0.0763094 0)
(9.80319e-09 0.0763094 0)
(7.55204e-09 0.0763094 0)
(5.40438e-09 0.0763094 0)
(3.22171e-09 0.0763094 0)
(1.09452e-09 0.0763094 0)
(-1.09711e-09 0.0763094 0)
(-3.21231e-09 0.0763094 0)
(-5.3775e-09 0.0763094 0)
(-7.56397e-09 0.0763094 0)
(-9.79953e-09 0.0763094 0)
(-1.19771e-08 0.0763094 0)
(-1.44424e-08 0.0763094 0)
(-1.67602e-08 0.0763094 0)
(-1.95792e-08 0.0763094 0)
(-2.22649e-08 0.0763094 0)
(-2.59601e-08 0.0763094 0)
(-2.92447e-08 0.0763094 0)
(-3.48359e-08 0.0763094 0)
(-3.94472e-08 0.0763094 0)
(-4.88359e-08 0.0763094 0)
(-5.6251e-08 0.0763094 0)
(-7.40341e-08 0.0763094 0)
(-8.74777e-08 0.0763094 0)
(-1.24964e-07 0.0763094 0)
(-1.53577e-07 0.0763094 0)
(-2.43105e-07 0.0763094 0)
(-3.1618e-07 0.0763094 0)
(-5.75533e-07 0.0763094 0)
(-8.13128e-07 0.0763095 0)
(-1.86019e-06 0.0763095 0)
(-3.03422e-06 0.0763101 0)
(-1.10348e-05 0.0763111 0)
(-2.42746e-05 0.0763347 0)
(-0.000115945 0.0763378 0)
(-0.000101152 0.0763344 0)
(8.99996e-05 0.0041485 0)
(0.000105913 0.00421718 0)
(2.62309e-05 0.00421484 0)
(1.21499e-05 0.00418972 0)
(3.52064e-06 0.00418845 0)
(2.14923e-06 0.00418776 0)
(9.64911e-07 0.00418768 0)
(6.79382e-07 0.00418761 0)
(3.80612e-07 0.0041876 0)
(2.90731e-07 0.00418758 0)
(1.86066e-07 0.00418758 0)
(1.50004e-07 0.00418758 0)
(1.05603e-07 0.00418758 0)
(8.83384e-08 0.00418758 0)
(6.6949e-08 0.00418758 0)
(5.74192e-08 0.00418757 0)
(4.6003e-08 0.00418757 0)
(4.00758e-08 0.00418757 0)
(3.33333e-08 0.00418757 0)
(2.92172e-08 0.00418757 0)
(2.47764e-08 0.00418757 0)
(2.16009e-08 0.00418757 0)
(1.83098e-08 0.00418757 0)
(1.56343e-08 0.00418757 0)
(1.29106e-08 0.00418757 0)
(1.04851e-08 0.00418757 0)
(8.03918e-09 0.00418757 0)
(5.73501e-09 0.00418757 0)
(3.41002e-09 0.00418757 0)
(1.15666e-09 0.00418757 0)
(-1.15725e-09 0.00418757 0)
(-3.4e-09 0.00418757 0)
(-5.70935e-09 0.00418757 0)
(-8.04754e-09 0.00418757 0)
(-1.04806e-08 0.00418757 0)
(-1.28862e-08 0.00418757 0)
(-1.5639e-08 0.00418757 0)
(-1.83009e-08 0.00418757 0)
(-2.15808e-08 0.00418757 0)
(-2.47861e-08 0.00418757 0)
(-2.92136e-08 0.00418757 0)
(-3.33186e-08 0.00418757 0)
(-4.00933e-08 0.00418757 0)
(-4.60086e-08 0.00418757 0)
(-5.74095e-08 0.00418757 0)
(-6.69724e-08 0.00418758 0)
(-8.8348e-08 0.00418758 0)
(-1.05598e-07 0.00418758 0)
(-1.50026e-07 0.00418758 0)
(-1.8607e-07 0.00418758 0)
(-2.9072e-07 0.00418758 0)
(-3.80631e-07 0.0041876 0)
(-6.7939e-07 0.00418761 0)
(-9.64902e-07 0.00418768 0)
(-2.14926e-06 0.00418776 0)
(-3.52064e-06 0.00418845 0)
(-1.21499e-05 0.00418972 0)
(-2.62309e-05 0.00421484 0)
(-0.000105913 0.00421718 0)
(-8.99997e-05 0.00414851 0)
(7.99765e-05 -0.00120821 0)
(9.68395e-05 -0.00111483 0)
(2.79403e-05 -0.00111647 0)
(1.31942e-05 -0.00114291 0)
(4.01154e-06 -0.00114444 0)
(2.44051e-06 -0.00114528 0)
(1.12066e-06 -0.00114539 0)
(7.85442e-07 -0.00114547 0)
(4.46977e-07 -0.00114549 0)
(3.39563e-07 -0.00114551 0)
(2.19564e-07 -0.00114551 0)
(1.75765e-07 -0.00114552 0)
(1.24295e-07 -0.00114552 0)
(1.03071e-07 -0.00114552 0)
(7.80194e-08 -0.00114552 0)
(6.62528e-08 -0.00114552 0)
(5.27814e-08 -0.00114552 0)
(4.55042e-08 -0.00114552 0)
(3.7544e-08 -0.00114552 0)
(3.25804e-08 -0.00114552 0)
(2.73902e-08 -0.00114552 0)
(2.36712e-08 -0.00114552 0)
(1.99086e-08 -0.00114552 0)
(1.68793e-08 -0.00114552 0)
(1.38536e-08 -0.00114552 0)
(1.11936e-08 -0.00114552 0)
(8.54611e-09 -0.00114552 0)
(6.07896e-09 -0.00114552 0)
(3.60625e-09 -0.00114552 0)
(1.22146e-09 -0.00114552 0)
(-1.22016e-09 -0.00114552 0)
(-3.59555e-09 -0.00114552 0)
(-6.05424e-09 -0.00114552 0)
(-8.55119e-09 -0.00114552 0)
(-1.11882e-08 -0.00114552 0)
(-1.38302e-08 -0.00114552 0)
(-1.68804e-08 -0.00114552 0)
(-1.98986e-08 -0.00114552 0)
(-2.36527e-08 -0.00114552 0)
(-2.7397e-08 -0.00114552 0)
(-3.25763e-08 -0.00114552 0)
(-3.75313e-08 -0.00114552 0)
(-4.55196e-08 -0.00114552 0)
(-5.27875e-08 -0.00114552 0)
(-6.62459e-08 -0.00114552 0)
(-7.80413e-08 -0.00114552 0)
(-1.03082e-07 -0.00114552 0)
(-1.24292e-07 -0.00114552 0)
(-1.75786e-07 -0.00114552 0)
(-2.19569e-07 -0.00114551 0)
(-3.39554e-07 -0.00114551 0)
(-4.46995e-07 -0.00114549 0)
(-7.85451e-07 -0.00114547 0)
(-1.12065e-06 -0.00114538 0)
(-2.44053e-06 -0.00114528 0)
(-4.01155e-06 -0.00114444 0)
(-1.31942e-05 -0.00114291 0)
(-2.79403e-05 -0.00111647 0)
(-9.68396e-05 -0.00111483 0)
(-7.99766e-05 -0.00120821 0)
(7.04947e-05 0.000599985 0)
(8.81385e-05 0.000699239 0)
(2.94032e-05 0.000698287 0)
(1.41646e-05 0.00067073 0)
(4.50468e-06 0.000668918 0)
(2.73328e-06 0.000667914 0)
(1.28019e-06 0.000667784 0)
(8.93636e-07 0.000667677 0)
(5.15239e-07 0.000667654 0)
(3.89612e-07 0.000667632 0)
(2.54075e-07 0.000667626 0)
(2.02231e-07 0.00066762 0)
(1.43568e-07 0.000667618 0)
(1.18232e-07 0.000667616 0)
(8.94433e-08 0.000667615 0)
(7.5355e-08 0.000667614 0)
(5.97822e-08 0.000667614 0)
(5.11055e-08 0.000667613 0)
(4.18973e-08 0.000667613 0)
(3.60559e-08 0.000667613 0)
(3.0096e-08 0.000667613 0)
(2.58143e-08 0.000667613 0)
(2.15664e-08 0.000667613 0)
(1.81705e-08 0.000667613 0)
(1.48331e-08 0.000667613 0)
(1.19298e-08 0.000667613 0)
(9.07362e-09 0.000667613 0)
(6.43679e-09 0.000667613 0)
(3.81069e-09 0.000667613 0)
(1.289e-09 0.000667613 0)
(-1.28581e-09 0.000667613 0)
(-3.79928e-09 0.000667613 0)
(-6.41289e-09 0.000667613 0)
(-9.07557e-09 0.000667613 0)
(-1.19235e-08 0.000667613 0)
(-1.48106e-08 0.000667613 0)
(-1.81683e-08 0.000667613 0)
(-2.15553e-08 0.000667613 0)
(-2.57973e-08 0.000667613 0)
(-3.01002e-08 0.000667613 0)
(-3.60512e-08 0.000667613 0)
(-4.18864e-08 0.000667613 0)
(-5.11187e-08 0.000667613 0)
(-5.97886e-08 0.000667614 0)
(-7.53506e-08 0.000667614 0)
(-8.94638e-08 0.000667615 0)
(-1.18243e-07 0.000667616 0)
(-1.43569e-07 0.000667618 0)
(-2.02251e-07 0.00066762 0)
(-2.5408e-07 0.000667626 0)
(-3.89606e-07 0.000667632 0)
(-5.15255e-07 0.000667654 0)
(-8.93645e-07 0.000667677 0)
(-1.28019e-06 0.000667784 0)
(-2.73331e-06 0.000667914 0)
(-4.50469e-06 0.000668918 0)
(-1.41646e-05 0.00067073 0)
(-2.94033e-05 0.000698287 0)
(-8.81385e-05 0.000699239 0)
(-7.04948e-05 0.000599986 0)
(6.14586e-05 0.000638752 0)
(7.97183e-05 0.000741258 0)
(3.06225e-05 0.000741037 0)
(1.50579e-05 0.000712541 0)
(4.99767e-06 0.000710437 0)
(3.02678e-06 0.000709259 0)
(1.44327e-06 0.000709097 0)
(1.00388e-06 0.000708967 0)
(5.85379e-07 0.000708939 0)
(4.40879e-07 0.000708911 0)
(2.89605e-07 0.000708904 0)
(2.29409e-07 0.000708896 0)
(1.63433e-07 0.000708893 0)
(1.33827e-07 0.00070889 0)
(1.01228e-07 0.000708889 0)
(8.47317e-08 0.000708888 0)
(6.70104e-08 0.000708887 0)
(5.68838e-08 0.000708887 0)
(4.63969e-08 0.000708887 0)
(3.96468e-08 0.000708886 0)
(3.28968e-08 0.000708886 0)
(2.80325e-08 0.000708886 0)
(2.32851e-08 0.000708886 0)
(1.95095e-08 0.000708886 0)
(1.58504e-08 0.000708886 0)
(1.26947e-08 0.000708886 0)
(9.62249e-09 0.000708886 0)
(6.80906e-09 0.000708886 0)
(4.02367e-09 0.000708886 0)
(1.35935e-09 0.000708886 0)
(-1.35424e-09 0.000708886 0)
(-4.01155e-09 0.000708886 0)
(-6.78591e-09 0.000708886 0)
(-9.62137e-09 0.000708886 0)
(-1.26873e-08 0.000708886 0)
(-1.58287e-08 0.000708886 0)
(-1.95042e-08 0.000708886 0)
(-2.3273e-08 0.000708886 0)
(-2.80167e-08 0.000708886 0)
(-3.28983e-08 0.000708886 0)
(-3.96416e-08 0.000708886 0)
(-4.63877e-08 0.000708887 0)
(-5.68951e-08 0.000708887 0)
(-6.70171e-08 0.000708887 0)
(-8.47296e-08 0.000708888 0)
(-1.01247e-07 0.000708889 0)
(-1.33839e-07 0.00070889 0)
(-1.63436e-07 0.000708893 0)
(-2.29428e-07 0.000708896 0)
(-2.89611e-07 0.000708904 0)
(-4.40875e-07 0.000708911 0)
(-5.85393e-07 0.000708939 0)
(-1.00389e-06 0.000708967 0)
(-1.44327e-06 0.000709097 0)
(-3.0268e-06 0.000709259 0)
(-4.99768e-06 0.000710437 0)
(-1.50579e-05 0.000712541 0)
(-3.06225e-05 0.000741037 0)
(-7.97184e-05 0.000741258 0)
(-6.14586e-05 0.000638752 0)
(5.28902e-05 0.000238232 0)
(7.16065e-05 0.000344191 0)
(3.1602e-05 0.000344741 0)
(1.58712e-05 0.000315489 0)
(5.48804e-06 0.000313085 0)
(3.32016e-06 0.000311722 0)
(1.60965e-06 0.000311524 0)
(1.11608e-06 0.000311369 0)
(6.57371e-07 0.000311333 0)
(4.93358e-07 0.0003113 0)
(3.26159e-07 0.00031129 0)
(2.57309e-07 0.00031128 0)
(1.83896e-07 0.000311277 0)
(1.49864e-07 0.000311273 0)
(1.13379e-07 0.000311272 0)
(9.43889e-08 0.00031127 0)
(7.44712e-08 0.000311269 0)
(6.28439e-08 0.000311269 0)
(5.10467e-08 0.000311269 0)
(4.33564e-08 0.000311268 0)
(3.57951e-08 0.000311268 0)
(3.0328e-08 0.000311268 0)
(2.50666e-08 0.000311268 0)
(2.08979e-08 0.000311268 0)
(1.69067e-08 0.000311268 0)
(1.34894e-08 0.000311268 0)
(1.01935e-08 0.000311268 0)
(7.19629e-09 0.000311268 0)
(4.24549e-09 0.000311268 0)
(1.4326e-09 0.000311268 0)
(-1.4256e-09 0.000311268 0)
(-4.23265e-09 0.000311268 0)
(-7.17384e-09 0.000311268 0)
(-1.01894e-08 0.000311268 0)
(-1.34808e-08 0.000311268 0)
(-1.68857e-08 0.000311268 0)
(-2.08896e-08 0.000311268 0)
(-2.50534e-08 0.000311268 0)
(-3.03133e-08 0.000311268 0)
(-3.57942e-08 0.000311268 0)
(-4.33507e-08 0.000311268 0)
(-5.10391e-08 0.000311269 0)
(-6.28533e-08 0.000311269 0)
(-7.44782e-08 0.000311269 0)
(-9.4389e-08 0.00031127 0)
(-1.13397e-07 0.000311272 0)
(-1.49877e-07 0.000311273 0)
(-1.83902e-07 0.000311277 0)
(-2.57326e-07 0.00031128 0)
(-3.26165e-07 0.00031129 0)
(-4.93357e-07 0.0003113 0)
(-6.57384e-07 0.000311333 0)
(-1.11609e-06 0.000311369 0)
(-1.60965e-06 0.000311524 0)
(-3.32018e-06 0.000311722 0)
(-5.48805e-06 0.000313085 0)
(-1.58712e-05 0.000315489 0)
(-3.1602e-05 0.000344741 0)
(-7.16066e-05 0.000344191 0)
(-5.28903e-05 0.000238232 0)
(4.48018e-05 2.10768e-05 0)
(6.38208e-05 0.000130214 0)
(3.23468e-05 0.000131569 0)
(1.66018e-05 0.000101743 0)
(5.9732e-06 9.90319e-05 0)
(3.61253e-06 9.74751e-05 0)
(1.77901e-06 9.72376e-05 0)
(1.23012e-06 9.70532e-05 0)
(7.31179e-07 9.70096e-05 0)
(5.4704e-07 9.69697e-05 0)
(3.63739e-07 9.69577e-05 0)
(2.85935e-07 9.69455e-05 0)
(2.04966e-07 9.69413e-05 0)
(1.66352e-07 9.69368e-05 0)
(1.25905e-07 9.69351e-05 0)
(1.04333e-07 9.69331e-05 0)
(8.21699e-08 9.69324e-05 0)
(6.89902e-08 9.69315e-05 0)
(5.58507e-08 9.69311e-05 0)
(4.71881e-08 9.69307e-05 0)
(3.87937e-08 9.69305e-05 0)
(3.27032e-08 9.69303e-05 0)
(2.69128e-08 9.69302e-05 0)
(2.23373e-08 9.69301e-05 0)
(1.80033e-08 9.69301e-05 0)
(1.43147e-08 9.693e-05 0)
(1.07873e-08 9.693e-05 0)
(7.59906e-09 9.693e-05 0)
(4.4765e-09 9.693e-05 0)
(1.50882e-09 9.693e-05 0)
(-1.5e-09 9.693e-05 0)
(-4.46289e-09 9.693e-05 0)
(-7.57723e-09 9.693e-05 0)
(-1.07804e-08 9.693e-05 0)
(-1.4305e-08 9.693e-05 0)
(-1.79829e-08 9.69301e-05 0)
(-2.23261e-08 9.69301e-05 0)
(-2.68987e-08 9.69302e-05 0)
(-3.26895e-08 9.69303e-05 0)
(-3.87906e-08 9.69305e-05 0)
(-4.71818e-08 9.69307e-05 0)
(-5.58443e-08 9.69311e-05 0)
(-6.89979e-08 9.69315e-05 0)
(-8.21774e-08 9.69323e-05 0)
(-1.04335e-07 9.69331e-05 0)
(-1.25922e-07 9.69351e-05 0)
(-1.66365e-07 9.69367e-05 0)
(-2.04974e-07 9.69413e-05 0)
(-2.85951e-07 9.69455e-05 0)
(-3.63746e-07 9.69577e-05 0)
(-5.47041e-07 9.69697e-05 0)
(-7.31191e-07 9.70096e-05 0)
(-1.23013e-06 9.70532e-05 0)
(-1.77902e-06 9.72376e-05 0)
(-3.61255e-06 9.74751e-05 0)
(-5.97321e-06 9.90319e-05 0)
(-1.66019e-05 0.000101743 0)
(-3.23469e-05 0.000131569 0)
(-6.38209e-05 0.000130214 0)
(-4.48018e-05 2.10771e-05 0)
(3.71932e-05 -5.23202e-05 0)
(5.63676e-05 5.94486e-05 0)
(3.2863e-05 6.16375e-05 0)
(1.72475e-05 3.14151e-05 0)
(6.45048e-06 2.83932e-05 0)
(3.90292e-06 2.66346e-05 0)
(1.95102e-06 2.63527e-05 0)
(1.34586e-06 2.61372e-05 0)
(8.06757e-07 2.60845e-05 0)
(6.0191e-07 2.60372e-05 0)
(4.02345e-07 2.60224e-05 0)
(3.15292e-07 2.60079e-05 0)
(2.26649e-07 2.60027e-05 0)
(1.83296e-07 2.59972e-05 0)
(1.38811e-07 2.59951e-05 0)
(1.14569e-07 2.59927e-05 0)
(9.01118e-08 2.59917e-05 0)
(7.53272e-08 2.59906e-05 0)
(6.08125e-08 2.59901e-05 0)
(5.1145e-08 2.59896e-05 0)
(4.18955e-08 2.59894e-05 0)
(3.51606e-08 2.59891e-05 0)
(2.88259e-08 2.5989e-05 0)
(2.38293e-08 2.59888e-05 0)
(1.91416e-08 2.59888e-05 0)
(1.51718e-08 2.59887e-05 0)
(1.14047e-08 2.59887e-05 0)
(8.01793e-09 2.59887e-05 0)
(4.71702e-09 2.59887e-05 0)
(1.58816e-09 2.59887e-05 0)
(-1.57751e-09 2.59887e-05 0)
(-4.70261e-09 2.59886e-05 0)
(-7.99658e-09 2.59887e-05 0)
(-1.13952e-08 2.59887e-05 0)
(-1.5161e-08 2.59887e-05 0)
(-1.91216e-08 2.59888e-05 0)
(-2.38154e-08 2.59888e-05 0)
(-2.88107e-08 2.5989e-05 0)
(-3.51477e-08 2.59891e-05 0)
(-4.18903e-08 2.59894e-05 0)
(-5.11384e-08 2.59896e-05 0)
(-6.08073e-08 2.59901e-05 0)
(-7.53332e-08 2.59906e-05 0)
(-9.01195e-08 2.59917e-05 0)
(-1.14573e-07 2.59927e-05 0)
(-1.38828e-07 2.59951e-05 0)
(-1.8331e-07 2.59972e-05 0)
(-2.26659e-07 2.60027e-05 0)
(-3.15308e-07 2.60079e-05 0)
(-4.02353e-07 2.60224e-05 0)
(-6.01913e-07 2.60372e-05 0)
(-8.06768e-07 2.60845e-05 0)
(-1.34588e-06 2.61372e-05 0)
(-1.95102e-06 2.63528e-05 0)
(-3.90294e-06 2.66346e-05 0)
(-6.45049e-06 2.83932e-05 0)
(-1.72475e-05 3.14151e-05 0)
(-3.2863e-05 6.16375e-05 0)
(-5.63676e-05 5.94486e-05 0)
(-3.71933e-05 -5.23199e-05 0)
(3.00617e-05 -7.31093e-05 0)
(4.9251e-05 4.07544e-05 0)
(3.31575e-05 4.37997e-05 0)
(1.78062e-05 1.33551e-05 0)
(6.91714e-06 1.00227e-05 0)
(4.1903e-06 8.0559e-06 0)
(2.12527e-06 7.72531e-06 0)
(1.46315e-06 7.47579e-06 0)
(8.84047e-07 7.41286e-06 0)
(6.57947e-07 7.35739e-06 0)
(4.41973e-07 7.33961e-06 0)
(3.45383e-07 7.32239e-06 0)
(2.4895e-07 7.31606e-06 0)
(2.00703e-07 7.3095e-06 0)
(1.52104e-07 7.30686e-06 0)
(1.25103e-07 7.30401e-06 0)
(9.83016e-08 7.30278e-06 0)
(8.18593e-08 7.30145e-06 0)
(6.59361e-08 7.30083e-06 0)
(5.52306e-08 7.30016e-06 0)
(4.51033e-08 7.29985e-06 0)
(3.77024e-08 7.29951e-06 0)
(3.08077e-08 7.29934e-06 0)
(2.53756e-08 7.29917e-06 0)
(2.03229e-08 7.29909e-06 0)
(1.60617e-08 7.299e-06 0)
(1.20467e-08 7.29896e-06 0)
(8.45344e-09 7.29893e-06 0)
(4.96737e-09 7.29891e-06 0)
(1.67072e-09 7.29891e-06 0)
(-1.65831e-09 7.29891e-06 0)
(-4.95215e-09 7.2989e-06 0)
(-8.43245e-09 7.29894e-06 0)
(-1.20346e-08 7.29897e-06 0)
(-1.60498e-08 7.29899e-06 0)
(-2.03034e-08 7.2991e-06 0)
(-2.53592e-08 7.29918e-06 0)
(-3.07914e-08 7.29933e-06 0)
(-3.76902e-08 7.29952e-06 0)
(-4.50961e-08 7.29985e-06 0)
(-5.52235e-08 7.30015e-06 0)
(-6.59319e-08 7.30084e-06 0)
(-8.18637e-08 7.30145e-06 0)
(-9.83095e-08 7.30277e-06 0)
(-1.25109e-07 7.30402e-06 0)
(-1.5212e-07 7.30687e-06 0)
(-2.00718e-07 7.30948e-06 0)
(-2.48962e-07 7.31607e-06 0)
(-3.45399e-07 7.3224e-06 0)
(-4.41981e-07 7.33959e-06 0)
(-6.57953e-07 7.3574e-06 0)
(-8.84057e-07 7.41287e-06 0)
(-1.46316e-06 7.47578e-06 0)
(-2.12528e-06 7.72531e-06 0)
(-4.19032e-06 8.05591e-06 0)
(-6.91715e-06 1.00227e-05 0)
(-1.78062e-05 1.33551e-05 0)
(-3.31575e-05 4.37997e-05 0)
(-4.92511e-05 4.07544e-05 0)
(-3.00618e-05 -7.3109e-05 0)
(2.34042e-05 -7.96409e-05 0)
(4.24755e-05 3.58327e-05 0)
(3.32381e-05 3.97512e-05 0)
(1.82763e-05 9.25401e-06 0)
(7.37036e-06 5.61421e-06 0)
(4.47357e-06 3.43424e-06 0)
(2.30134e-06 3.05052e-06 0)
(1.5818e-06 2.76435e-06 0)
(9.62975e-07 2.68998e-06 0)
(7.15124e-07 2.62553e-06 0)
(4.82613e-07 2.60431e-06 0)
(3.76209e-07 2.58414e-06 0)
(2.71872e-07 2.57652e-06 0)
(2.18578e-07 2.56877e-06 0)
(1.65789e-07 2.56557e-06 0)
(1.35941e-07 2.56218e-06 0)
(1.06744e-07 2.56067e-06 0)
(8.85907e-08 2.55906e-06 0)
(7.1225e-08 2.55829e-06 0)
(5.94482e-08 2.55748e-06 0)
(4.84199e-08 2.55707e-06 0)
(4.0331e-08 2.55666e-06 0)
(3.28601e-08 2.55643e-06 0)
(2.69779e-08 2.55622e-06 0)
(2.15486e-08 2.5561e-06 0)
(1.69856e-08 2.55599e-06 0)
(1.2714e-08 2.55594e-06 0)
(8.90617e-09 2.55589e-06 0)
(5.22791e-09 2.55586e-06 0)
(1.75661e-09 2.55585e-06 0)
(-1.74253e-09 2.55585e-06 0)
(-5.21184e-09 2.55585e-06 0)
(-8.8854e-09 2.55589e-06 0)
(-1.26993e-08 2.55594e-06 0)
(-1.69725e-08 2.55598e-06 0)
(-2.15294e-08 2.55611e-06 0)
(-2.69591e-08 2.55623e-06 0)
(-3.28429e-08 2.55642e-06 0)
(-4.03195e-08 2.55666e-06 0)
(-4.8411e-08 2.55708e-06 0)
(-5.94405e-08 2.55746e-06 0)
(-7.12217e-08 2.55829e-06 0)
(-8.85938e-08 2.55907e-06 0)
(-1.06752e-07 2.56065e-06 0)
(-1.35948e-07 2.56219e-06 0)
(-1.65803e-07 2.56558e-06 0)
(-2.18594e-07 2.56876e-06 0)
(-2.71887e-07 2.57652e-06 0)
(-3.76224e-07 2.58415e-06 0)
(-4.82621e-07 2.60429e-06 0)
(-7.15131e-07 2.62554e-06 0)
(-9.62985e-07 2.68999e-06 0)
(-1.58182e-06 2.76434e-06 0)
(-2.30135e-06 3.05053e-06 0)
(-4.47359e-06 3.43425e-06 0)
(-7.37037e-06 5.6142e-06 0)
(-1.82763e-05 9.25402e-06 0)
(-3.32381e-05 3.97512e-05 0)
(-4.24756e-05 3.58327e-05 0)
(-2.34043e-05 -7.96406e-05 0)
(1.72168e-05 -8.25745e-05 0)
(3.60452e-05 3.40552e-05 0)
(3.31137e-05 3.88579e-05 0)
(1.86565e-05 8.47206e-06 0)
(7.80729e-06 4.53129e-06 0)
(4.75157e-06 2.13489e-06 0)
(2.47872e-06 1.69369e-06 0)
(1.70162e-06 1.36817e-06 0)
(1.04346e-06 1.28109e-06 0)
(7.73403e-07 1.20683e-06 0)
(5.24252e-07 1.18175e-06 0)
(4.07767e-07 1.15833e-06 0)
(2.95418e-07 1.14925e-06 0)