/*--------------------------------*- C++ -*----------------------------------*\
| =========                 |                                                 |
| \\      /  F ield         | foam-extend: Open Source CFD                    |
|  \\    /   O peration     | Version:     4.0                                |
|   \\  /    A nd           | Web:         http://www.foam-extend.org         |
|    \\/     M anipulation  |                                                 |
\*---------------------------------------------------------------------------*/
FoamFile
{
    version     2.0;
    format      ascii;
    class       volScalarField;
    location    "1920";
    object      cMinus;
}
// * * * * * * * * * * * * * * * * * * * * * * * * * * * * * * * * * * * * * //

dimensions      [0 0 0 0 0 0 0];

internalField   nonuniform List<scalar> 
6960
(
-1.51104e-21
-1.47393e-21
-1.47152e-21
-1.47139e-21
-1.47136e-21
-1.47132e-21
-1.47125e-21
-1.47116e-21
-1.47104e-21
-1.4709e-21
-1.47074e-21
-1.47056e-21
-1.47037e-21
-1.47017e-21
-1.46996e-21
-1.46975e-21
-1.46954e-21
-1.46934e-21
-1.46914e-21
-1.46895e-21
-1.46878e-21
-1.46862e-21
-1.46847e-21
-1.46834e-21
-1.46823e-21
-1.46814e-21
-1.46806e-21
-1.468e-21
-1.46797e-21
-1.46795e-21
-1.46795e-21
-1.46797e-21
-1.468e-21
-1.46806e-21
-1.46814e-21
-1.46823e-21
-1.46834e-21
-1.46847e-21
-1.46862e-21
-1.46878e-21
-1.46895e-21
-1.46914e-21
-1.46934e-21
-1.46954e-21
-1.46975e-21
-1.46996e-21
-1.47017e-21
-1.47037e-21
-1.47056e-21
-1.47074e-21
-1.4709e-21
-1.47104e-21
-1.47116e-21
-1.47125e-21
-1.47132e-21
-1.47136e-21
-1.47139e-21
-1.47152e-21
-1.47393e-21
-1.51104e-21
-1.90654e-21
-1.85968e-21
-1.85666e-21
-1.8565e-21
-1.85646e-21
-1.85641e-21
-1.85633e-21
-1.85622e-21
-1.85607e-21
-1.8559e-21
-1.8557e-21
-1.85548e-21
-1.85524e-21
-1.85499e-21
-1.85473e-21
-1.85447e-21
-1.85421e-21
-1.85395e-21
-1.85371e-21
-1.85348e-21
-1.85326e-21
-1.85306e-21
-1.85288e-21
-1.85271e-21
-1.85257e-21
-1.85246e-21
-1.85236e-21
-1.85229e-21
-1.85224e-21
-1.85222e-21
-1.85222e-21
-1.85224e-21
-1.85229e-21
-1.85236e-21
-1.85246e-21
-1.85257e-21
-1.85271e-21
-1.85288e-21
-1.85306e-21
-1.85326e-21
-1.85348e-21
-1.85371e-21
-1.85395e-21
-1.85421e-21
-1.85447e-21
-1.85473e-21
-1.85499e-21
-1.85524e-21
-1.85548e-21
-1.8557e-21
-1.8559e-21
-1.85607e-21
-1.85622e-21
-1.85633e-21
-1.85641e-21
-1.85646e-21
-1.8565e-21
-1.85666e-21
-1.85968e-21
-1.90654e-21
-3.47844e-21
-3.39322e-21
-3.38775e-21
-3.38747e-21
-3.38741e-21
-3.38731e-21
-3.38716e-21
-3.38696e-21
-3.3867e-21
-3.38638e-21
-3.38602e-21
-3.38562e-21
-3.38519e-21
-3.38473e-21
-3.38426e-21
-3.38378e-21
-3.38331e-21
-3.38284e-21
-3.38239e-21
-3.38197e-21
-3.38157e-21
-3.38121e-21
-3.38088e-21
-3.38058e-21
-3.38033e-21
-3.38011e-21
-3.37994e-21
-3.37981e-21
-3.37973e-21
-3.37968e-21
-3.37968e-21
-3.37973e-21
-3.37981e-21
-3.37994e-21
-3.38011e-21
-3.38033e-21
-3.38058e-21
-3.38088e-21
-3.38121e-21
-3.38157e-21
-3.38197e-21
-3.38239e-21
-3.38284e-21
-3.38331e-21
-3.38378e-21
-3.38426e-21
-3.38473e-21
-3.38519e-21
-3.38562e-21
-3.38602e-21
-3.38638e-21
-3.3867e-21
-3.38696e-21
-3.38716e-21
-3.38731e-21
-3.38741e-21
-3.38747e-21
-3.38775e-21
-3.39322e-21
-3.47844e-21
-6.92393e-21
-6.75496e-21
-6.74416e-21
-6.74361e-21
-6.74348e-21
-6.74329e-21
-6.74299e-21
-6.74258e-21
-6.74206e-21
-6.74144e-21
-6.74072e-21
-6.73991e-21
-6.73905e-21
-6.73813e-21
-6.73719e-21
-6.73624e-21
-6.73529e-21
-6.73436e-21
-6.73347e-21
-6.73262e-21
-6.73183e-21
-6.7311e-21
-6.73044e-21
-6.72985e-21
-6.72934e-21
-6.72892e-21
-6.72857e-21
-6.72831e-21
-6.72814e-21
-6.72805e-21
-6.72805e-21
-6.72814e-21
-6.72831e-21
-6.72857e-21
-6.72892e-21
-6.72934e-21
-6.72985e-21
-6.73044e-21
-6.7311e-21
-6.73183e-21
-6.73262e-21
-6.73347e-21
-6.73436e-21
-6.73529e-21
-6.73624e-21
-6.73719e-21
-6.73813e-21
-6.73905e-21
-6.73991e-21
-6.74072e-21
-6.74144e-21
-6.74206e-21
-6.74258e-21
-6.74299e-21
-6.74329e-21
-6.74348e-21
-6.74361e-21
-6.74416e-21
-6.75496e-21
-6.92393e-21
-1.38536e-20
-1.35168e-20
-1.34954e-20
-1.34943e-20
-1.3494e-20
-1.34936e-20
-1.3493e-20
-1.34922e-20
-1.34912e-20
-1.34899e-20
-1.34885e-20
-1.34868e-20
-1.34851e-20
-1.34833e-20
-1.34814e-20
-1.34795e-20
-1.34776e-20
-1.34757e-20
-1.34739e-20
-1.34722e-20
-1.34706e-20
-1.34691e-20
-1.34678e-20
-1.34666e-20
-1.34656e-20
-1.34648e-20
-1.34641e-20
-1.34635e-20
-1.34632e-20
-1.3463e-20
-1.3463e-20
-1.34632e-20
-1.34635e-20
-1.34641e-20
-1.34648e-20
-1.34656e-20
-1.34666e-20
-1.34678e-20
-1.34691e-20
-1.34706e-20
-1.34722e-20
-1.34739e-20
-1.34757e-20
-1.34776e-20
-1.34795e-20
-1.34814e-20
-1.34833e-20
-1.34851e-20
-1.34868e-20
-1.34885e-20
-1.34899e-20
-1.34912e-20
-1.34922e-20
-1.3493e-20
-1.34936e-20
-1.3494e-20
-1.34943e-20
-1.34954e-20
-1.35168e-20
-1.38536e-20
-2.75149e-20
-2.68487e-20
-2.68065e-20
-2.68043e-20
-2.68038e-20
-2.6803e-20
-2.68018e-20
-2.68002e-20
-2.67981e-20
-2.67956e-20
-2.67927e-20
-2.67895e-20
-2.6786e-20
-2.67823e-20
-2.67785e-20
-2.67747e-20
-2.67709e-20
-2.67672e-20
-2.67636e-20
-2.67602e-20
-2.6757e-20
-2.67541e-20
-2.67515e-20
-2.67491e-20
-2.67471e-20
-2.67454e-20
-2.6744e-20
-2.6743e-20
-2.67423e-20
-2.67419e-20
-2.67419e-20
-2.67423e-20
-2.6743e-20
-2.6744e-20
-2.67454e-20
-2.67471e-20
-2.67491e-20
-2.67515e-20
-2.67541e-20
-2.6757e-20
-2.67602e-20
-2.67636e-20
-2.67672e-20
-2.67709e-20
-2.67747e-20
-2.67785e-20
-2.67823e-20
-2.6786e-20
-2.67895e-20
-2.67927e-20
-2.67956e-20
-2.67981e-20
-2.68002e-20
-2.68018e-20
-2.6803e-20
-2.68038e-20
-2.68043e-20
-2.68065e-20
-2.68487e-20
-2.75149e-20
-5.43038e-20
-5.29939e-20
-5.29114e-20
-5.29072e-20
-5.29062e-20
-5.29046e-20
-5.29022e-20
-5.28989e-20
-5.28948e-20
-5.28898e-20
-5.2884e-20
-5.28776e-20
-5.28707e-20
-5.28634e-20
-5.28559e-20
-5.28484e-20
-5.28408e-20
-5.28335e-20
-5.28264e-20
-5.28196e-20
-5.28133e-20
-5.28075e-20
-5.28023e-20
-5.27976e-20
-5.27936e-20
-5.27902e-20
-5.27875e-20
-5.27854e-20
-5.2784e-20
-5.27833e-20
-5.27833e-20
-5.2784e-20
-5.27854e-20
-5.27875e-20
-5.27902e-20
-5.27936e-20
-5.27976e-20
-5.28023e-20
-5.28075e-20
-5.28133e-20
-5.28196e-20
-5.28264e-20
-5.28335e-20
-5.28408e-20
-5.28484e-20
-5.28559e-20
-5.28634e-20
-5.28707e-20
-5.28776e-20
-5.2884e-20
-5.28898e-20
-5.28948e-20
-5.28989e-20
-5.29022e-20
-5.29046e-20
-5.29062e-20
-5.29072e-20
-5.29114e-20
-5.29939e-20
-5.43038e-20
-1.06738e-19
-1.04172e-19
-1.04012e-19
-1.04004e-19
-1.04002e-19
-1.03998e-19
-1.03994e-19
-1.03987e-19
-1.03979e-19
-1.03969e-19
-1.03958e-19
-1.03945e-19
-1.03931e-19
-1.03917e-19
-1.03902e-19
-1.03887e-19
-1.03872e-19
-1.03858e-19
-1.03844e-19
-1.0383e-19
-1.03818e-19
-1.03807e-19
-1.03796e-19
-1.03787e-19
-1.03779e-19
-1.03772e-19
-1.03767e-19
-1.03763e-19
-1.0376e-19
-1.03759e-19
-1.03759e-19
-1.0376e-19
-1.03763e-19
-1.03767e-19
-1.03772e-19
-1.03779e-19
-1.03787e-19
-1.03796e-19
-1.03807e-19
-1.03818e-19
-1.0383e-19
-1.03844e-19
-1.03858e-19
-1.03872e-19
-1.03887e-19
-1.03902e-19
-1.03917e-19
-1.03931e-19
-1.03945e-19
-1.03958e-19
-1.03969e-19
-1.03979e-19
-1.03987e-19
-1.03994e-19
-1.03998e-19
-1.04002e-19
-1.04004e-19
-1.04012e-19
-1.04172e-19
-1.06738e-19
-2.09243e-19
-2.04227e-19
-2.03915e-19
-2.03899e-19
-2.03895e-19
-2.03889e-19
-2.0388e-19
-2.03867e-19
-2.03851e-19
-2.03831e-19
-2.03809e-19
-2.03784e-19
-2.03757e-19
-2.03728e-19
-2.03699e-19
-2.0367e-19
-2.0364e-19
-2.03612e-19
-2.03584e-19
-2.03558e-19
-2.03533e-19
-2.03511e-19
-2.0349e-19
-2.03472e-19
-2.03456e-19
-2.03443e-19
-2.03432e-19
-2.03424e-19
-2.03419e-19
-2.03416e-19
-2.03416e-19
-2.03419e-19
-2.03424e-19
-2.03432e-19
-2.03443e-19
-2.03456e-19
-2.03472e-19
-2.0349e-19
-2.03511e-19
-2.03533e-19
-2.03558e-19
-2.03584e-19
-2.03612e-19
-2.0364e-19
-2.0367e-19
-2.03699e-19
-2.03728e-19
-2.03757e-19
-2.03784e-19
-2.03809e-19
-2.03831e-19
-2.03851e-19
-2.03867e-19
-2.0388e-19
-2.03889e-19
-2.03895e-19
-2.03899e-19
-2.03915e-19
-2.04227e-19
-2.09243e-19
-4.09324e-19
-3.99531e-19
-3.98926e-19
-3.98895e-19
-3.98887e-19
-3.98875e-19
-3.98857e-19
-3.98831e-19
-3.98799e-19
-3.98761e-19
-3.98717e-19
-3.98667e-19
-3.98614e-19
-3.98558e-19
-3.98501e-19
-3.98443e-19
-3.98385e-19
-3.98328e-19
-3.98274e-19
-3.98222e-19
-3.98173e-19
-3.98129e-19
-3.98089e-19
-3.98053e-19
-3.98022e-19
-3.97996e-19
-3.97975e-19
-3.97959e-19
-3.97949e-19
-3.97943e-19
-3.97943e-19
-3.97949e-19
-3.97959e-19
-3.97975e-19
-3.97996e-19
-3.98022e-19
-3.98053e-19
-3.98089e-19
-3.98129e-19
-3.98173e-19
-3.98222e-19
-3.98274e-19
-3.98328e-19
-3.98385e-19
-3.98443e-19
-3.98501e-19
-3.98558e-19
-3.98614e-19
-3.98667e-19
-3.98717e-19
-3.98761e-19
-3.98799e-19
-3.98831e-19
-3.98857e-19
-3.98875e-19
-3.98887e-19
-3.98895e-19
-3.98926e-19
-3.99531e-19
-4.09324e-19
-7.98986e-19
-7.7988e-19
-7.78707e-19
-7.78648e-19
-7.78633e-19
-7.78609e-19
-7.78572e-19
-7.78522e-19
-7.78459e-19
-7.78383e-19
-7.78296e-19
-7.78199e-19
-7.78095e-19
-7.77984e-19
-7.77871e-19
-7.77756e-19
-7.77642e-19
-7.77531e-19
-7.77423e-19
-7.77322e-19
-7.77226e-19
-7.77139e-19
-7.77059e-19
-7.76989e-19
-7.76928e-19
-7.76877e-19
-7.76835e-19
-7.76804e-19
-7.76783e-19
-7.76773e-19
-7.76773e-19
-7.76783e-19
-7.76804e-19
-7.76835e-19
-7.76877e-19
-7.76928e-19
-7.76989e-19
-7.77059e-19
-7.77139e-19
-7.77226e-19
-7.77322e-19
-7.77423e-19
-7.77531e-19
-7.77642e-19
-7.77756e-19
-7.77871e-19
-7.77984e-19
-7.78095e-19
-7.78199e-19
-7.78296e-19
-7.78383e-19
-7.78459e-19
-7.78522e-19
-7.78572e-19
-7.78609e-19
-7.78633e-19
-7.78648e-19
-7.78707e-19
-7.7988e-19
-7.98986e-19
-1.55526e-18
-1.518e-18
-1.51573e-18
-1.51561e-18
-1.51558e-18
-1.51554e-18
-1.51546e-18
-1.51537e-18
-1.51524e-18
-1.51509e-18
-1.51492e-18
-1.51473e-18
-1.51452e-18
-1.51431e-18
-1.51408e-18
-1.51386e-18
-1.51363e-18
-1.51341e-18
-1.5132e-18
-1.513e-18
-1.51281e-18
-1.51264e-18
-1.51248e-18
-1.51234e-18
-1.51222e-18
-1.51212e-18
-1.51204e-18
-1.51198e-18
-1.51194e-18
-1.51192e-18
-1.51192e-18
-1.51194e-18
-1.51198e-18
-1.51204e-18
-1.51212e-18
-1.51222e-18
-1.51234e-18
-1.51248e-18
-1.51264e-18
-1.51281e-18
-1.513e-18
-1.5132e-18
-1.51341e-18
-1.51363e-18
-1.51386e-18
-1.51408e-18
-1.51431e-18
-1.51452e-18
-1.51473e-18
-1.51492e-18
-1.51509e-18
-1.51524e-18
-1.51537e-18
-1.51546e-18
-1.51554e-18
-1.51558e-18
-1.51561e-18
-1.51573e-18
-1.518e-18
-1.55526e-18
-3.01528e-18
-2.94265e-18
-2.93826e-18
-2.93804e-18
-2.93798e-18
-2.93789e-18
-2.93775e-18
-2.93755e-18
-2.93731e-18
-2.93701e-18
-2.93667e-18
-2.9363e-18
-2.93589e-18
-2.93546e-18
-2.93502e-18
-2.93458e-18
-2.93413e-18
-2.9337e-18
-2.93329e-18
-2.93289e-18
-2.93252e-18
-2.93218e-18
-2.93187e-18
-2.9316e-18
-2.93136e-18
-2.93116e-18
-2.931e-18
-2.93088e-18
-2.9308e-18
-2.93076e-18
-2.93076e-18
-2.9308e-18
-2.93088e-18
-2.931e-18
-2.93116e-18
-2.93136e-18
-2.9316e-18
-2.93187e-18
-2.93218e-18
-2.93252e-18
-2.93289e-18
-2.93329e-18
-2.9337e-18
-2.93413e-18
-2.93458e-18
-2.93502e-18
-2.93546e-18
-2.93589e-18
-2.9363e-18
-2.93667e-18
-2.93701e-18
-2.93731e-18
-2.93755e-18
-2.93775e-18
-2.93789e-18
-2.93798e-18
-2.93804e-18
-2.93826e-18
-2.94265e-18
-3.01528e-18
-5.81056e-18
-5.66903e-18
-5.66055e-18
-5.66012e-18
-5.66001e-18
-5.65982e-18
-5.65954e-18
-5.65916e-18
-5.65867e-18
-5.65809e-18
-5.65743e-18
-5.65668e-18
-5.65588e-18
-5.65504e-18
-5.65417e-18
-5.65329e-18
-5.65242e-18
-5.65157e-18
-5.65075e-18
-5.64997e-18
-5.64924e-18
-5.64857e-18
-5.64797e-18
-5.64743e-18
-5.64696e-18
-5.64657e-18
-5.64625e-18
-5.64601e-18
-5.64586e-18
-5.64578e-18
-5.64578e-18
-5.64586e-18
-5.64601e-18
-5.64625e-18
-5.64657e-18
-5.64696e-18
-5.64743e-18
-5.64797e-18
-5.64857e-18
-5.64924e-18
-5.64997e-18
-5.65075e-18
-5.65157e-18
-5.65242e-18
-5.65329e-18
-5.65417e-18
-5.65504e-18
-5.65588e-18
-5.65668e-18
-5.65743e-18
-5.65809e-18
-5.65867e-18
-5.65916e-18
-5.65954e-18
-5.65982e-18
-5.66001e-18
-5.66012e-18
-5.66055e-18
-5.66903e-18
-5.81056e-18
-1.10908e-17
-1.08151e-17
-1.07987e-17
-1.07979e-17
-1.07976e-17
-1.07973e-17
-1.07967e-17
-1.0796e-17
-1.0795e-17
-1.07939e-17
-1.07926e-17
-1.07911e-17
-1.07895e-17
-1.07879e-17
-1.07861e-17
-1.07844e-17
-1.07827e-17
-1.0781e-17
-1.07794e-17
-1.07779e-17
-1.07764e-17
-1.07751e-17
-1.07739e-17
-1.07728e-17
-1.07719e-17
-1.07712e-17
-1.07705e-17
-1.07701e-17
-1.07698e-17
-1.07696e-17
-1.07696e-17
-1.07698e-17
-1.07701e-17
-1.07705e-17
-1.07712e-17
-1.07719e-17
-1.07728e-17
-1.07739e-17
-1.07751e-17
-1.07764e-17
-1.07779e-17
-1.07794e-17
-1.0781e-17
-1.07827e-17
-1.07844e-17
-1.07861e-17
-1.07879e-17
-1.07895e-17
-1.07911e-17
-1.07926e-17
-1.07939e-17
-1.0795e-17
-1.0796e-17
-1.07967e-17
-1.07973e-17
-1.07976e-17
-1.07979e-17
-1.07987e-17
-1.08151e-17
-1.10908e-17
-2.08421e-17
-2.03052e-17
-2.02737e-17
-2.02721e-17
-2.02716e-17
-2.02709e-17
-2.02698e-17
-2.02683e-17
-2.02665e-17
-2.02642e-17
-2.02616e-17
-2.02587e-17
-2.02556e-17
-2.02523e-17
-2.02489e-17
-2.02455e-17
-2.02421e-17
-2.02388e-17
-2.02356e-17
-2.02326e-17
-2.02298e-17
-2.02272e-17
-2.02248e-17
-2.02227e-17
-2.02209e-17
-2.02194e-17
-2.02182e-17
-2.02173e-17
-2.02166e-17
-2.02163e-17
-2.02163e-17
-2.02166e-17
-2.02173e-17
-2.02182e-17
-2.02194e-17
-2.02209e-17
-2.02227e-17
-2.02248e-17
-2.02272e-17
-2.02298e-17
-2.02326e-17
-2.02356e-17
-2.02388e-17
-2.02421e-17
-2.02455e-17
-2.02489e-17
-2.02523e-17
-2.02556e-17
-2.02587e-17
-2.02616e-17
-2.02642e-17
-2.02665e-17
-2.02683e-17
-2.02698e-17
-2.02709e-17
-2.02716e-17
-2.02721e-17
-2.02737e-17
-2.03052e-17
-2.08421e-17
-3.81376e-17
-3.70925e-17
-3.70317e-17
-3.70287e-17
-3.70278e-17
-3.70264e-17
-3.70242e-17
-3.70213e-17
-3.70175e-17
-3.70131e-17
-3.7008e-17
-3.70023e-17
-3.69961e-17
-3.69897e-17
-3.6983e-17
-3.69763e-17
-3.69696e-17
-3.69631e-17
-3.69568e-17
-3.69508e-17
-3.69452e-17
-3.69401e-17
-3.69354e-17
-3.69313e-17
-3.69277e-17
-3.69247e-17
-3.69223e-17
-3.69205e-17
-3.69193e-17
-3.69186e-17
-3.69186e-17
-3.69193e-17
-3.69205e-17
-3.69223e-17
-3.69247e-17
-3.69277e-17
-3.69313e-17
-3.69354e-17
-3.69401e-17
-3.69452e-17
-3.69508e-17
-3.69568e-17
-3.69631e-17
-3.69696e-17
-3.69763e-17
-3.6983e-17
-3.69897e-17
-3.69961e-17
-3.70023e-17
-3.7008e-17
-3.70131e-17
-3.70175e-17
-3.70213e-17
-3.70242e-17
-3.70264e-17
-3.70278e-17
-3.70287e-17
-3.70317e-17
-3.70925e-17
-3.81376e-17
-6.64494e-17
-6.4416e-17
-6.4299e-17
-6.42932e-17
-6.42915e-17
-6.42886e-17
-6.42844e-17
-6.42786e-17
-6.42712e-17
-6.42624e-17
-6.42523e-17
-6.42411e-17
-6.42289e-17
-6.42162e-17
-6.4203e-17
-6.41898e-17
-6.41766e-17
-6.41637e-17
-6.41513e-17
-6.41395e-17
-6.41285e-17
-6.41183e-17
-6.41092e-17
-6.4101e-17
-6.4094e-17
-6.4088e-17
-6.40833e-17
-6.40797e-17
-6.40773e-17
-6.40761e-17
-6.40761e-17
-6.40773e-17
-6.40797e-17
-6.40833e-17
-6.4088e-17
-6.4094e-17
-6.4101e-17
-6.41092e-17
-6.41183e-17
-6.41285e-17
-6.41395e-17
-6.41513e-17
-6.41637e-17
-6.41766e-17
-6.41898e-17
-6.4203e-17
-6.42162e-17
-6.42289e-17
-6.42411e-17
-6.42523e-17
-6.42624e-17
-6.42712e-17
-6.42786e-17
-6.42844e-17
-6.42886e-17
-6.42915e-17
-6.42932e-17
-6.4299e-17
-6.4416e-17
-6.64494e-17
-1.04532e-16
-1.00577e-16
-1.00352e-16
-1.00341e-16
-1.00338e-16
-1.00332e-16
-1.00324e-16
-1.00312e-16
-1.00298e-16
-1.00281e-16
-1.00261e-16
-1.00238e-16
-1.00214e-16
-1.00189e-16
-1.00163e-16
-1.00137e-16
-1.00111e-16
-1.00086e-16
-1.00061e-16
-1.00038e-16
-1.00016e-16
-9.99961e-17
-9.9978e-17
-9.99619e-17
-9.9948e-17
-9.99363e-17
-9.99269e-17
-9.99198e-17
-9.9915e-17
-9.99127e-17
-9.99127e-17
-9.9915e-17
-9.99198e-17
-9.99269e-17
-9.99363e-17
-9.9948e-17
-9.99619e-17
-9.9978e-17
-9.99961e-17
-1.00016e-16
-1.00038e-16
-1.00061e-16
-1.00086e-16
-1.00111e-16
-1.00137e-16
-1.00163e-16
-1.00189e-16
-1.00214e-16
-1.00238e-16
-1.00261e-16
-1.00281e-16
-1.00298e-16
-1.00312e-16
-1.00324e-16
-1.00332e-16
-1.00338e-16
-1.00341e-16
-1.00352e-16
-1.00577e-16
-1.04532e-16
-1.2413e-16
-1.16443e-16
-1.16012e-16
-1.15991e-16
-1.15984e-16
-1.15973e-16
-1.15956e-16
-1.15933e-16
-1.15905e-16
-1.1587e-16
-1.15831e-16
-1.15787e-16
-1.1574e-16
-1.1569e-16
-1.15639e-16
-1.15587e-16
-1.15536e-16
-1.15485e-16
-1.15437e-16
-1.15391e-16
-1.15348e-16
-1.15308e-16
-1.15273e-16
-1.15241e-16
-1.15213e-16
-1.1519e-16
-1.15172e-16
-1.15158e-16
-1.15148e-16
-1.15144e-16
-1.15144e-16
-1.15148e-16
-1.15158e-16
-1.15172e-16
-1.1519e-16
-1.15213e-16
-1.15241e-16
-1.15273e-16
-1.15308e-16
-1.15348e-16
-1.15391e-16
-1.15437e-16
-1.15485e-16
-1.15536e-16
-1.15587e-16
-1.15639e-16
-1.1569e-16
-1.1574e-16
-1.15787e-16
-1.15831e-16
-1.1587e-16
-1.15905e-16
-1.15933e-16
-1.15956e-16
-1.15973e-16
-1.15984e-16
-1.15991e-16
-1.16012e-16
-1.16443e-16
-1.2413e-16
1.4246e-17
2.91785e-17
3.00049e-17
3.00447e-17
3.00583e-17
3.00803e-17
3.01133e-17
3.01581e-17
3.02148e-17
3.02827e-17
3.03607e-17
3.04474e-17
3.05408e-17
3.06391e-17
3.07404e-17
3.08427e-17
3.09443e-17
3.10437e-17
3.11393e-17
3.12301e-17
3.13149e-17
3.1393e-17
3.14637e-17
3.15264e-17
3.15808e-17
3.16264e-17
3.16632e-17
3.16909e-17
3.17094e-17
3.17187e-17
3.17187e-17
3.17094e-17
3.16909e-17
3.16632e-17
3.16264e-17
3.15808e-17
3.15264e-17
3.14637e-17
3.1393e-17
3.13149e-17
3.12301e-17
3.11393e-17
3.10437e-17
3.09443e-17
3.08427e-17
3.07404e-17
3.06391e-17
3.05408e-17
3.04474e-17
3.03607e-17
3.02827e-17
3.02148e-17
3.01581e-17
3.01133e-17
3.00803e-17
3.00583e-17
3.00447e-17
3.00049e-17
2.91785e-17
1.4246e-17
8.62604e-16
8.91593e-16
8.93173e-16
8.93249e-16
8.93276e-16
8.9332e-16
8.93385e-16
8.93474e-16
8.93586e-16
8.9372e-16
8.93875e-16
8.94046e-16
8.94231e-16
8.94425e-16
8.94625e-16
8.94828e-16
8.95029e-16
8.95225e-16
8.95414e-16
8.95593e-16
8.95761e-16
8.95915e-16
8.96055e-16
8.96179e-16
8.96287e-16
8.96377e-16
8.96449e-16
8.96504e-16
8.96541e-16
8.96559e-16
8.96559e-16
8.96541e-16
8.96504e-16
8.96449e-16
8.96377e-16
8.96287e-16
8.96179e-16
8.96055e-16
8.95915e-16
8.95761e-16
8.95593e-16
8.95414e-16
8.95225e-16
8.95029e-16
8.94828e-16
8.94625e-16
8.94425e-16
8.94231e-16
8.94046e-16
8.93875e-16
8.9372e-16
8.93586e-16
8.93474e-16
8.93385e-16
8.9332e-16
8.93276e-16
8.93249e-16
8.93173e-16
8.91593e-16
8.62604e-16
4.44108e-15
4.49732e-15
4.50033e-15
4.50048e-15
4.50053e-15
4.50062e-15
4.50075e-15
4.50092e-15
4.50114e-15
4.50141e-15
4.50172e-15
4.50205e-15
4.50242e-15
4.5028e-15
4.5032e-15
4.5036e-15
4.504e-15
4.50439e-15
4.50476e-15
4.50512e-15
4.50545e-15
4.50575e-15
4.50603e-15
4.50627e-15
4.50649e-15
4.50666e-15
4.50681e-15
4.50692e-15
4.50699e-15
4.50702e-15
4.50702e-15
4.50699e-15
4.50692e-15
4.50681e-15
4.50666e-15
4.50649e-15
4.50627e-15
4.50603e-15
4.50575e-15
4.50545e-15
4.50512e-15
4.50476e-15
4.50439e-15
4.504e-15
4.5036e-15
4.5032e-15
4.5028e-15
4.50242e-15
4.50205e-15
4.50172e-15
4.50141e-15
4.50114e-15
4.50092e-15
4.50075e-15
4.50062e-15
4.50053e-15
4.50048e-15
4.50033e-15
4.49732e-15
4.44108e-15
1.79198e-14
1.80288e-14
1.80345e-14
1.80348e-14
1.80349e-14
1.80351e-14
1.80353e-14
1.80357e-14
1.80361e-14
1.80367e-14
1.80373e-14
1.80379e-14
1.80387e-14
1.80394e-14
1.80402e-14
1.8041e-14
1.80418e-14
1.80425e-14
1.80433e-14
1.8044e-14
1.80446e-14
1.80452e-14
1.80458e-14
1.80463e-14
1.80467e-14
1.8047e-14
1.80473e-14
1.80475e-14
1.80477e-14
1.80478e-14
1.80478e-14
1.80477e-14
1.80475e-14
1.80473e-14
1.8047e-14
1.80467e-14
1.80463e-14
1.80458e-14
1.80452e-14
1.80446e-14
1.8044e-14
1.80433e-14
1.80425e-14
1.80418e-14
1.8041e-14
1.80402e-14
1.80394e-14
1.80387e-14
1.80379e-14
1.80373e-14
1.80367e-14
1.80361e-14
1.80357e-14
1.80353e-14
1.80351e-14
1.80349e-14
1.80348e-14
1.80345e-14
1.80288e-14
1.79198e-14
6.65105e-14
6.67215e-14
6.67325e-14
6.6733e-14
6.67332e-14
6.67335e-14
6.67341e-14
6.67348e-14
6.67356e-14
6.67367e-14
6.67379e-14
6.67392e-14
6.67406e-14
6.67421e-14
6.67437e-14
6.67452e-14
6.67468e-14
6.67483e-14
6.67498e-14
6.67511e-14
6.67524e-14
6.67536e-14
6.67547e-14
6.67557e-14
6.67565e-14
6.67572e-14
6.67578e-14
6.67582e-14
6.67585e-14
6.67586e-14
6.67586e-14
6.67585e-14
6.67582e-14
6.67578e-14
6.67572e-14
6.67565e-14
6.67557e-14
6.67547e-14
6.67536e-14
6.67524e-14
6.67511e-14
6.67498e-14
6.67483e-14
6.67468e-14
6.67452e-14
6.67437e-14
6.67421e-14
6.67406e-14
6.67392e-14
6.67379e-14
6.67367e-14
6.67356e-14
6.67348e-14
6.67341e-14
6.67335e-14
6.67332e-14
6.6733e-14
6.67325e-14
6.67215e-14
6.65105e-14
2.38973e-13
2.39382e-13
2.39402e-13
2.39403e-13
2.39404e-13
2.39405e-13
2.39406e-13
2.39407e-13
2.39409e-13
2.39411e-13
2.39413e-13
2.39416e-13
2.39419e-13
2.39422e-13
2.39425e-13
2.39428e-13
2.39431e-13
2.39434e-13
2.39437e-13
2.39439e-13
2.39442e-13
2.39444e-13
2.39446e-13
2.39448e-13
2.3945e-13
2.39451e-13
2.39452e-13
2.39453e-13
2.39454e-13
2.39454e-13
2.39454e-13
2.39454e-13
2.39453e-13
2.39452e-13
2.39451e-13
2.3945e-13
2.39448e-13
2.39446e-13
2.39444e-13
2.39442e-13
2.39439e-13
2.39437e-13
2.39434e-13
2.39431e-13
2.39428e-13
2.39425e-13
2.39422e-13
2.39419e-13
2.39416e-13
2.39413e-13
2.39411e-13
2.39409e-13
2.39407e-13
2.39406e-13
2.39405e-13
2.39404e-13
2.39403e-13
2.39402e-13
2.39382e-13
2.38973e-13
8.49847e-13
8.50635e-13
8.50675e-13
8.50677e-13
8.50678e-13
8.50679e-13
8.50681e-13
8.50684e-13
8.50687e-13
8.50692e-13
8.50696e-13
8.50701e-13
8.50707e-13
8.50713e-13
8.50719e-13
8.50725e-13
8.50731e-13
8.50737e-13
8.50742e-13
8.50748e-13
8.50753e-13
8.50757e-13
8.50762e-13
8.50765e-13
8.50768e-13
8.50771e-13
8.50773e-13
8.50775e-13
8.50776e-13
8.50777e-13
8.50777e-13
8.50776e-13
8.50775e-13
8.50773e-13
8.50771e-13
8.50768e-13
8.50765e-13
8.50762e-13
8.50757e-13
8.50753e-13
8.50748e-13
8.50742e-13
8.50737e-13
8.50731e-13
8.50725e-13
8.50719e-13
8.50713e-13
8.50707e-13
8.50701e-13
8.50696e-13
8.50692e-13
8.50687e-13
8.50684e-13
8.50681e-13
8.50679e-13
8.50678e-13
8.50677e-13
8.50675e-13
8.50635e-13
8.49847e-13
3.02359e-12
3.02511e-12
3.02518e-12
3.02519e-12
3.02519e-12
3.02519e-12
3.0252e-12
3.0252e-12
3.02521e-12
3.02522e-12
3.02523e-12
3.02524e-12
3.02525e-12
3.02526e-12
3.02527e-12
3.02528e-12
3.02529e-12
3.0253e-12
3.02532e-12
3.02533e-12
3.02534e-12
3.02534e-12
3.02535e-12
3.02536e-12
3.02537e-12
3.02537e-12
3.02538e-12
3.02538e-12
3.02538e-12
3.02538e-12
3.02538e-12
3.02538e-12
3.02538e-12
3.02538e-12
3.02537e-12
3.02537e-12
3.02536e-12
3.02535e-12
3.02534e-12
3.02534e-12
3.02533e-12
3.02532e-12
3.0253e-12
3.02529e-12
3.02528e-12
3.02527e-12
3.02526e-12
3.02525e-12
3.02524e-12
3.02523e-12
3.02522e-12
3.02521e-12
3.0252e-12
3.0252e-12
3.02519e-12
3.02519e-12
3.02519e-12
3.02518e-12
3.02511e-12
3.02359e-12
1.08168e-11
1.08197e-11
1.08198e-11
1.08198e-11
1.08199e-11
1.08199e-11
1.08199e-11
1.08199e-11
1.08199e-11
1.08199e-11
1.08199e-11
1.08199e-11
1.082e-11
1.082e-11
1.082e-11
1.082e-11
1.08201e-11
1.08201e-11
1.08201e-11
1.08201e-11
1.08201e-11
1.08202e-11
1.08202e-11
1.08202e-11
1.08202e-11
1.08202e-11
1.08202e-11
1.08202e-11
1.08202e-11
1.08202e-11
1.08202e-11
1.08202e-11
1.08202e-11
1.08202e-11
1.08202e-11
1.08202e-11
1.08202e-11
1.08202e-11
1.08202e-11
1.08201e-11
1.08201e-11
1.08201e-11
1.08201e-11
1.08201e-11
1.082e-11
1.082e-11
1.082e-11
1.082e-11
1.08199e-11
1.08199e-11
1.08199e-11
1.08199e-11
1.08199e-11
1.08199e-11
1.08199e-11
1.08199e-11
1.08198e-11
1.08198e-11
1.08197e-11
1.08168e-11
3.89822e-11
3.89878e-11
3.89881e-11
3.89881e-11
3.89881e-11
3.89881e-11
3.89882e-11
3.89882e-11
3.89882e-11
3.89882e-11
3.89883e-11
3.89883e-11
3.89883e-11
3.89884e-11
3.89884e-11
3.89885e-11
3.89885e-11
3.89885e-11
3.89886e-11
3.89886e-11
3.89887e-11
3.89887e-11
3.89887e-11
3.89887e-11
3.89888e-11
3.89888e-11
3.89888e-11
3.89888e-11
3.89888e-11
3.89888e-11
3.89888e-11
3.89888e-11
3.89888e-11
3.89888e-11
3.89888e-11
3.89888e-11
3.89887e-11
3.89887e-11
3.89887e-11
3.89887e-11
3.89886e-11
3.89886e-11
3.89885e-11
3.89885e-11
3.89885e-11
3.89884e-11
3.89884e-11
3.89883e-11
3.89883e-11
3.89883e-11
3.89882e-11
3.89882e-11
3.89882e-11
3.89882e-11
3.89881e-11
3.89881e-11
3.89881e-11
3.89881e-11
3.89878e-11
3.89822e-11
1.41494e-10
1.41505e-10
1.41505e-10
1.41506e-10
1.41506e-10
1.41506e-10
1.41506e-10
1.41506e-10
1.41506e-10
1.41506e-10
1.41506e-10
1.41506e-10
1.41506e-10
1.41506e-10
1.41506e-10
1.41506e-10
1.41506e-10
1.41506e-10
1.41506e-10
1.41506e-10
1.41507e-10
1.41507e-10
1.41507e-10
1.41507e-10
1.41507e-10
1.41507e-10
1.41507e-10
1.41507e-10
1.41507e-10
1.41507e-10
1.41507e-10
1.41507e-10
1.41507e-10
1.41507e-10
1.41507e-10
1.41507e-10
1.41507e-10
1.41507e-10
1.41507e-10
1.41507e-10
1.41506e-10
1.41506e-10
1.41506e-10
1.41506e-10
1.41506e-10
1.41506e-10
1.41506e-10
1.41506e-10
1.41506e-10
1.41506e-10
1.41506e-10
1.41506e-10
1.41506e-10
1.41506e-10
1.41506e-10
1.41506e-10
1.41506e-10
1.41505e-10
1.41505e-10
1.41494e-10
5.16427e-10
5.16448e-10
5.16449e-10
5.16449e-10
5.1645e-10
5.1645e-10
5.1645e-10
5.1645e-10
5.1645e-10
5.1645e-10
5.1645e-10
5.1645e-10
5.1645e-10
5.16451e-10
5.16451e-10
5.16451e-10
5.16451e-10
5.16451e-10
5.16451e-10
5.16451e-10
5.16451e-10
5.16451e-10
5.16451e-10
5.16451e-10
5.16451e-10
5.16451e-10
5.16451e-10
5.16451e-10
5.16451e-10
5.16451e-10
5.16451e-10
5.16451e-10
5.16451e-10
5.16451e-10
5.16451e-10
5.16451e-10
5.16451e-10
5.16451e-10
5.16451e-10
5.16451e-10
5.16451e-10
5.16451e-10
5.16451e-10
5.16451e-10
5.16451e-10
5.16451e-10
5.16451e-10
5.1645e-10
5.1645e-10
5.1645e-10
5.1645e-10
5.1645e-10
5.1645e-10
5.1645e-10
5.1645e-10
5.1645e-10
5.16449e-10
5.16449e-10
5.16448e-10
5.16427e-10
1.8902e-09
1.89024e-09
1.89024e-09
1.89024e-09
1.89024e-09
1.89024e-09
1.89024e-09
1.89024e-09
1.89024e-09
1.89024e-09
1.89024e-09
1.89024e-09
1.89024e-09
1.89024e-09
1.89024e-09
1.89024e-09
1.89024e-09
1.89024e-09
1.89024e-09
1.89024e-09
1.89024e-09
1.89024e-09
1.89024e-09
1.89024e-09
1.89024e-09
1.89024e-09
1.89024e-09
1.89024e-09
1.89024e-09
1.89024e-09
1.89024e-09
1.89024e-09
1.89024e-09
1.89024e-09
1.89024e-09
1.89024e-09
1.89024e-09
1.89024e-09
1.89024e-09
1.89024e-09
1.89024e-09
1.89024e-09
1.89024e-09
1.89024e-09
1.89024e-09
1.89024e-09
1.89024e-09
1.89024e-09
1.89024e-09
1.89024e-09
1.89024e-09
1.89024e-09
1.89024e-09
1.89024e-09
1.89024e-09
1.89024e-09
1.89024e-09
1.89024e-09
1.89024e-09
1.8902e-09
6.9131e-09
6.91317e-09
6.91318e-09
6.91318e-09
6.91318e-09
6.91318e-09
6.91318e-09
6.91319e-09
6.91319e-09
6.91319e-09
6.91319e-09
6.91319e-09
6.91318e-09
6.91318e-09
6.91318e-09
6.91318e-09
6.91318e-09
6.91318e-09
6.91318e-09
6.91318e-09
6.91318e-09
6.91318e-09
6.91318e-09
6.91318e-09
6.91318e-09
6.91318e-09
6.91318e-09
6.91318e-09
6.91318e-09
6.91318e-09
6.91318e-09
6.91318e-09
6.91318e-09
6.91318e-09
6.91318e-09
6.91318e-09
6.91318e-09
6.91318e-09
6.91318e-09
6.91318e-09
6.91318e-09
6.91318e-09
6.91318e-09
6.91318e-09
6.91318e-09
6.91318e-09
6.91318e-09
6.91318e-09
6.91319e-09
6.91319e-09
6.91319e-09
6.91319e-09
6.91319e-09
6.91318e-09
6.91318e-09
6.91318e-09
6.91318e-09
6.91318e-09
6.91317e-09
6.9131e-09
2.51532e-08
2.51534e-08
2.51534e-08
2.51534e-08
2.51534e-08
2.51534e-08
2.51534e-08
2.51534e-08
2.51534e-08
2.51534e-08
2.51534e-08
2.51534e-08
2.51534e-08
2.51534e-08
2.51534e-08
2.51534e-08
2.51534e-08
2.51534e-08
2.51534e-08
2.51534e-08
2.51534e-08
2.51534e-08
2.51534e-08
2.51534e-08
2.51534e-08
2.51534e-08
2.51534e-08
2.51534e-08
2.51534e-08
2.51534e-08
2.51534e-08
2.51534e-08
2.51534e-08
2.51534e-08
2.51534e-08
2.51534e-08
2.51534e-08
2.51534e-08
2.51534e-08
2.51534e-08
2.51534e-08
2.51534e-08
2.51534e-08
2.51534e-08
2.51534e-08
2.51534e-08
2.51534e-08
2.51534e-08
2.51534e-08
2.51534e-08
2.51534e-08
2.51534e-08
2.51534e-08
2.51534e-08
2.51534e-08
2.51534e-08
2.51534e-08
2.51534e-08
2.51534e-08
2.51532e-08
9.05763e-08
9.05766e-08
9.05766e-08
9.05766e-08
9.05767e-08
9.05767e-08
9.05767e-08
9.05767e-08
9.05767e-08
9.05767e-08
9.05767e-08
9.05767e-08
9.05767e-08
9.05766e-08
9.05766e-08
9.05766e-08
9.05766e-08
9.05766e-08
9.05766e-08
9.05766e-08
9.05765e-08
9.05765e-08
9.05765e-08
9.05765e-08
9.05765e-08
9.05765e-08
9.05765e-08
9.05765e-08
9.05765e-08
9.05765e-08
9.05765e-08
9.05765e-08
9.05765e-08
9.05765e-08
9.05765e-08
9.05765e-08
9.05765e-08
9.05765e-08
9.05765e-08
9.05765e-08
9.05766e-08
9.05766e-08
9.05766e-08
9.05766e-08
9.05766e-08
9.05766e-08
9.05766e-08
9.05767e-08
9.05767e-08
9.05767e-08
9.05767e-08
9.05767e-08
9.05767e-08
9.05767e-08
9.05767e-08
9.05767e-08
9.05766e-08
9.05766e-08
9.05766e-08
9.05763e-08
3.20867e-07
3.20867e-07
3.20867e-07
3.20868e-07
3.20868e-07
3.20868e-07
3.20868e-07
3.20868e-07
3.20868e-07
3.20868e-07
3.20868e-07
3.20868e-07
3.20868e-07
3.20868e-07
3.20867e-07
3.20867e-07
3.20867e-07
3.20867e-07
3.20867e-07
3.20867e-07
3.20867e-07
3.20867e-07
3.20867e-07
3.20867e-07
3.20867e-07
3.20867e-07
3.20867e-07
3.20867e-07
3.20867e-07
3.20867e-07
3.20867e-07
3.20867e-07
3.20867e-07
3.20867e-07
3.20867e-07
3.20867e-07
3.20867e-07
3.20867e-07
3.20867e-07
3.20867e-07
3.20867e-07
3.20867e-07
3.20867e-07
3.20867e-07
3.20867e-07
3.20867e-07
3.20868e-07
3.20868e-07
3.20868e-07
3.20868e-07
3.20868e-07
3.20868e-07
3.20868e-07
3.20868e-07
3.20868e-07
3.20868e-07
3.20868e-07
3.20867e-07
3.20867e-07
3.20867e-07
1.11055e-06
1.11055e-06
1.11055e-06
1.11055e-06
1.11055e-06
1.11055e-06
1.11055e-06
1.11055e-06
1.11055e-06
1.11055e-06
1.11055e-06
1.11055e-06
1.11055e-06
1.11055e-06
1.11055e-06
1.11055e-06
1.11055e-06
1.11055e-06
1.11055e-06
1.11055e-06
1.11055e-06
1.11055e-06
1.11055e-06
1.11055e-06
1.11055e-06
1.11055e-06
1.11055e-06
1.11055e-06
1.11055e-06
1.11055e-06
1.11055e-06
1.11055e-06
1.11055e-06
1.11055e-06
1.11055e-06
1.11055e-06
1.11055e-06
1.11055e-06
1.11055e-06
1.11055e-06
1.11055e-06
1.11055e-06
1.11055e-06
1.11055e-06
1.11055e-06
1.11055e-06
1.11055e-06
1.11055e-06
1.11055e-06
1.11055e-06
1.11055e-06
1.11055e-06
1.11055e-06
1.11055e-06
1.11055e-06
1.11055e-06
1.11055e-06
1.11055e-06
1.11055e-06
1.11055e-06
3.72615e-06
3.72615e-06
3.72615e-06
3.72615e-06
3.72615e-06
3.72615e-06
3.72615e-06
3.72615e-06
3.72615e-06
3.72615e-06
3.72615e-06
3.72615e-06
3.72615e-06
3.72615e-06
3.72615e-06
3.72615e-06
3.72615e-06
3.72615e-06
3.72615e-06
3.72615e-06
3.72615e-06
3.72615e-06
3.72614e-06
3.72614e-06
3.72614e-06
3.72614e-06
3.72614e-06
3.72614e-06
3.72614e-06
3.72614e-06
3.72614e-06
3.72614e-06
3.72614e-06
3.72614e-06
3.72614e-06
3.72614e-06
3.72614e-06
3.72614e-06
3.72615e-06
3.72615e-06
3.72615e-06
3.72615e-06
3.72615e-06
3.72615e-06
3.72615e-06
3.72615e-06
3.72615e-06
3.72615e-06
3.72615e-06
3.72615e-06
3.72615e-06
3.72615e-06
3.72615e-06
3.72615e-06
3.72615e-06
3.72615e-06
3.72615e-06
3.72615e-06
3.72615e-06
3.72615e-06
1.20129e-05
1.20129e-05
1.20129e-05