/*--------------------------------*- C++ -*----------------------------------*\
| =========                 |                                                 |
| \\      /  F ield         | foam-extend: Open Source CFD                    |
|  \\    /   O peration     | Version:     4.0                                |
|   \\  /    A nd           | Web:         http://www.foam-extend.org         |
|    \\/     M anipulation  |                                                 |
\*---------------------------------------------------------------------------*/
FoamFile
{
    version     2.0;
    format      ascii;
    class       regIOobject;
    location    "13/uniform";
    object      profilingInfo;
}
// * * * * * * * * * * * * * * * * * * * * * * * * * * * * * * * * * * * * * //

profilingInfo
(

    {
        id              5;
        parentId        4;
        description     "Foam::Time::writeObject - outputTime";
        calls           13;
        totalTime       0.270629;
        childTime       0;
        onStack         1;
    }

    {
        id              4;
        parentId        1;
        description     "Foam::Time::writeObject";
        calls           13;
        totalTime       0.271046;
        childTime       0.270629;
        onStack         1;
    }

    {
        id              1;
        description     "application::main";
        calls           1;
        totalTime       6.55751;
        childTime       0.271089;
        onStack         1;
    }

    {
        id              3;
        parentId        2;
        description     "functionObjectList::read";
        calls           1;
        totalTime       3e-06;
        childTime       0;
        onStack         0;
    }

    {
        id              6;
        parentId        1;
        description     "functionObjects_.end()";
        calls           12;
        totalTime       1.7e-05;
        childTime       0;
        onStack         0;
    }

    {
        id              7;
        parentId        1;
        description     "functionObjects_.execute()";
        calls           12;
        totalTime       1.4e-05;
        childTime       0;
        onStack         0;
    }

    {
        id              2;
        parentId        1;
        description     "functionObjects_.start()";
        calls           1;
        totalTime       1.2e-05;
        childTime       3e-06;
        onStack         0;
    }
);


// ************************************************************************* //
