/*--------------------------------*- C++ -*----------------------------------*\
| =========                 |                                                 |
| \\      /  F ield         | foam-extend: Open Source CFD                    |
|  \\    /   O peration     | Version:     4.0                                |
|   \\  /    A nd           | Web:         http://www.foam-extend.org         |
|    \\/     M anipulation  |                                                 |
\*---------------------------------------------------------------------------*/
FoamFile
{
    version     2.0;
    format      ascii;
    class       volScalarField;
    location    "830";
    object      cPlus;
}
// * * * * * * * * * * * * * * * * * * * * * * * * * * * * * * * * * * * * * //

dimensions      [0 0 0 0 0 0 0];

internalField   nonuniform List<scalar> 
6960
(
0.253733
0.253688
0.253645
0.253612
0.253587
0.25357
0.253557
0.253549
0.253543
0.253539
0.253536
0.253534
0.253533
0.253532
0.253531
0.25353
0.25353
0.25353
0.25353
0.25353
0.253529
0.253529
0.253529
0.253529
0.253529
0.253529
0.253529
0.253529
0.253529
0.253529
0.253529
0.253529
0.253529
0.253529
0.253529
0.253529
0.253529
0.253529
0.253529
0.253529
0.25353
0.25353
0.25353
0.25353
0.25353
0.253531
0.253532
0.253533
0.253534
0.253536
0.253539
0.253543
0.253549
0.253557
0.25357
0.253587
0.253612
0.253645
0.253688
0.253733
0.0654346
0.065415
0.0653958
0.0653806
0.0653694
0.0653613
0.0653556
0.0653517
0.0653489
0.0653471
0.0653458
0.0653449
0.0653442
0.0653438
0.0653435
0.0653432
0.0653431
0.065343
0.0653429
0.0653428
0.0653428
0.0653427
0.0653427
0.0653427
0.0653426
0.0653426
0.0653426
0.0653426
0.0653426
0.0653426
0.0653426
0.0653426
0.0653426
0.0653426
0.0653426
0.0653426
0.0653427
0.0653427
0.0653427
0.0653428
0.0653428
0.0653429
0.065343
0.0653431
0.0653432
0.0653435
0.0653438
0.0653442
0.0653449
0.0653458
0.0653471
0.0653489
0.0653517
0.0653556
0.0653613
0.0653694
0.0653806
0.0653958
0.065415
0.0654346
0.0244684
0.0244641
0.0244591
0.0244551
0.0244521
0.0244499
0.0244483
0.0244472
0.0244465
0.0244459
0.0244456
0.0244453
0.0244451
0.024445
0.0244449
0.0244448
0.0244448
0.0244447
0.0244447
0.0244447
0.0244447
0.0244447
0.0244447
0.0244447
0.0244446
0.0244446
0.0244446
0.0244446
0.0244446
0.0244446
0.0244446
0.0244446
0.0244446
0.0244446
0.0244446
0.0244446
0.0244447
0.0244447
0.0244447
0.0244447
0.0244447
0.0244447
0.0244447
0.0244448
0.0244448
0.0244449
0.024445
0.0244451
0.0244453
0.0244456
0.0244459
0.0244465
0.0244472
0.0244483
0.0244499
0.0244521
0.0244551
0.0244591
0.0244641
0.0244684
0.0148596
0.0148618
0.0148629
0.0148635
0.014864
0.0148643
0.0148644
0.0148646
0.0148646
0.0148647
0.0148647
0.0148647
0.0148647
0.0148647
0.0148647
0.0148647
0.0148647
0.0148647
0.0148647
0.0148647
0.0148647
0.0148647
0.0148647
0.0148647
0.0148647
0.0148647
0.0148647
0.0148647
0.0148647
0.0148647
0.0148647
0.0148647
0.0148647
0.0148647
0.0148647
0.0148647
0.0148647
0.0148647
0.0148647
0.0148647
0.0148647
0.0148647
0.0148647
0.0148647
0.0148647
0.0148647
0.0148647
0.0148647
0.0148647
0.0148647
0.0148647
0.0148646
0.0148646
0.0148644
0.0148643
0.014864
0.0148635
0.0148629
0.0148618
0.0148596
0.0127023
0.0127068
0.01271
0.0127123
0.012714
0.0127151
0.0127159
0.0127165
0.0127169
0.0127171
0.0127173
0.0127174
0.0127175
0.0127175
0.0127176
0.0127176
0.0127176
0.0127176
0.0127176
0.0127176
0.0127176
0.0127176
0.0127176
0.0127176
0.0127176
0.0127176
0.0127176
0.0127176
0.0127176
0.0127176
0.0127176
0.0127176
0.0127176
0.0127176
0.0127176
0.0127176
0.0127176
0.0127176
0.0127176
0.0127176
0.0127176
0.0127176
0.0127176
0.0127176
0.0127176
0.0127176
0.0127175
0.0127175
0.0127174
0.0127173
0.0127171
0.0127169
0.0127165
0.0127159
0.0127151
0.012714
0.0127123
0.01271
0.0127068
0.0127023
0.0123221
0.0123273
0.0123313
0.0123342
0.0123362
0.0123377
0.0123387
0.0123394
0.0123399
0.0123402
0.0123404
0.0123405
0.0123406
0.0123407
0.0123408
0.0123408
0.0123408
0.0123408
0.0123408
0.0123409
0.0123409
0.0123409
0.0123409
0.0123409
0.0123409
0.0123409
0.0123409
0.0123409
0.0123409
0.0123409
0.0123409
0.0123409
0.0123409
0.0123409
0.0123409
0.0123409
0.0123409
0.0123409
0.0123409
0.0123409
0.0123409
0.0123408
0.0123408
0.0123408
0.0123408
0.0123408
0.0123407
0.0123406
0.0123405
0.0123404
0.0123402
0.0123399
0.0123394
0.0123387
0.0123377
0.0123362
0.0123342
0.0123313
0.0123273
0.0123221
0.0123611
0.0123666
0.0123708
0.0123739
0.0123761
0.0123777
0.0123788
0.0123795
0.01238
0.0123804
0.0123806
0.0123808
0.0123809
0.0123809
0.012381
0.012381
0.012381
0.0123811
0.0123811
0.0123811
0.0123811
0.0123811
0.0123811
0.0123811
0.0123811
0.0123811
0.0123811
0.0123811
0.0123811
0.0123811
0.0123811
0.0123811
0.0123811
0.0123811
0.0123811
0.0123811
0.0123811
0.0123811
0.0123811
0.0123811
0.0123811
0.0123811
0.0123811
0.012381
0.012381
0.012381
0.0123809
0.0123809
0.0123808
0.0123806
0.0123804
0.01238
0.0123795
0.0123788
0.0123777
0.0123761
0.0123739
0.0123708
0.0123666
0.0123611
0.0125031
0.0125088
0.0125131
0.0125163
0.0125187
0.0125203
0.0125214
0.0125222
0.0125227
0.012523
0.0125233
0.0125234
0.0125236
0.0125236
0.0125237
0.0125237
0.0125238
0.0125238
0.0125238
0.0125238
0.0125238
0.0125238
0.0125238
0.0125238
0.0125238
0.0125238
0.0125238
0.0125238
0.0125238
0.0125238
0.0125238
0.0125238
0.0125238
0.0125238
0.0125238
0.0125238
0.0125238
0.0125238
0.0125238
0.0125238
0.0125238
0.0125238
0.0125238
0.0125238
0.0125237
0.0125237
0.0125236
0.0125236
0.0125234
0.0125233
0.012523
0.0125227
0.0125222
0.0125214
0.0125203
0.0125187
0.0125163
0.0125131
0.0125088
0.0125031
0.0126779
0.0126838
0.0126882
0.0126915
0.0126939
0.0126955
0.0126967
0.0126975
0.012698
0.0126984
0.0126986
0.0126988
0.0126989
0.012699
0.012699
0.0126991
0.0126991
0.0126991
0.0126991
0.0126992
0.0126992
0.0126992
0.0126992
0.0126992
0.0126992
0.0126992
0.0126992
0.0126992
0.0126992
0.0126992
0.0126992
0.0126992
0.0126992
0.0126992
0.0126992
0.0126992
0.0126992
0.0126992
0.0126992
0.0126992
0.0126992
0.0126991
0.0126991
0.0126991
0.0126991
0.012699
0.012699
0.0126989
0.0126988
0.0126986
0.0126984
0.012698
0.0126975
0.0126967
0.0126955
0.0126939
0.0126915
0.0126882
0.0126838
0.0126779
0.0128714
0.0128774
0.012882
0.0128854
0.0128878
0.0128895
0.0128907
0.0128915
0.0128921
0.0128924
0.0128927
0.0128929
0.012893
0.0128931
0.0128931
0.0128932
0.0128932
0.0128932
0.0128932
0.0128932
0.0128932
0.0128932
0.0128932
0.0128932
0.0128933
0.0128933
0.0128933
0.0128933
0.0128933
0.0128933
0.0128933
0.0128933
0.0128933
0.0128933
0.0128933
0.0128933
0.0128932
0.0128932
0.0128932
0.0128932
0.0128932
0.0128932
0.0128932
0.0128932
0.0128932
0.0128931
0.0128931
0.012893
0.0128929
0.0128927
0.0128924
0.0128921
0.0128915
0.0128907
0.0128895
0.0128878
0.0128854
0.012882
0.0128774
0.0128714
0.013082
0.0130882
0.0130929
0.0130964
0.0130989
0.0131007
0.0131019
0.0131027
0.0131033
0.0131037
0.0131039
0.0131041
0.0131042
0.0131043
0.0131044
0.0131044
0.0131044
0.0131045
0.0131045
0.0131045
0.0131045
0.0131045
0.0131045
0.0131045
0.0131045
0.0131045
0.0131045
0.0131045
0.0131045
0.0131045
0.0131045
0.0131045
0.0131045
0.0131045
0.0131045
0.0131045
0.0131045
0.0131045
0.0131045
0.0131045
0.0131045
0.0131045
0.0131045
0.0131044
0.0131044
0.0131044
0.0131043
0.0131042
0.0131041
0.0131039
0.0131037
0.0131033
0.0131027
0.0131019
0.0131007
0.0130989
0.0130964
0.0130929
0.0130882
0.013082
0.0133112
0.0133176
0.0133224
0.013326
0.0133285
0.0133304
0.0133316
0.0133325
0.0133331
0.0133335
0.0133337
0.0133339
0.013334
0.0133341
0.0133342
0.0133342
0.0133343
0.0133343
0.0133343
0.0133343
0.0133343
0.0133343
0.0133343
0.0133343
0.0133343
0.0133343
0.0133343
0.0133343
0.0133343
0.0133343
0.0133343
0.0133343
0.0133343
0.0133343
0.0133343
0.0133343
0.0133343
0.0133343
0.0133343
0.0133343
0.0133343
0.0133343
0.0133343
0.0133343
0.0133342
0.0133342
0.0133341
0.013334
0.0133339
0.0133337
0.0133335
0.0133331
0.0133325
0.0133316
0.0133304
0.0133285
0.013326
0.0133224
0.0133176
0.0133112
0.0135611
0.0135677
0.0135726
0.0135763
0.013579
0.0135809
0.0135822
0.0135831
0.0135837
0.0135841
0.0135844
0.0135845
0.0135847
0.0135848
0.0135848
0.0135849
0.0135849
0.0135849
0.0135849
0.0135849
0.013585
0.013585
0.013585
0.013585
0.013585
0.013585
0.013585
0.013585
0.013585
0.013585
0.013585
0.013585
0.013585
0.013585
0.013585
0.013585
0.013585
0.013585
0.013585
0.013585
0.0135849
0.0135849
0.0135849
0.0135849
0.0135849
0.0135848
0.0135848
0.0135847
0.0135845
0.0135844
0.0135841
0.0135837
0.0135831
0.0135822
0.0135809
0.013579
0.0135763
0.0135726
0.0135677
0.0135611
0.0138345
0.0138413
0.0138465
0.0138503
0.0138531
0.013855
0.0138563
0.0138573
0.0138579
0.0138583
0.0138586
0.0138588
0.0138589
0.013859
0.0138591
0.0138591
0.0138592
0.0138592
0.0138592
0.0138592
0.0138592
0.0138592
0.0138592
0.0138593
0.0138593
0.0138593
0.0138593
0.0138593
0.0138593
0.0138593
0.0138593
0.0138593
0.0138593
0.0138593
0.0138593
0.0138593
0.0138593
0.0138592
0.0138592
0.0138592
0.0138592
0.0138592
0.0138592
0.0138592
0.0138591
0.0138591
0.013859
0.0138589
0.0138588
0.0138586
0.0138583
0.0138579
0.0138573
0.0138563
0.013855
0.0138531
0.0138503
0.0138465
0.0138413
0.0138345
0.0141349
0.014142
0.0141473
0.0141513
0.0141541
0.0141562
0.0141576
0.0141585
0.0141592
0.0141596
0.0141599
0.0141601
0.0141602
0.0141603
0.0141604
0.0141605
0.0141605
0.0141605
0.0141605
0.0141605
0.0141606
0.0141606
0.0141606
0.0141606
0.0141606
0.0141606
0.0141606
0.0141606
0.0141606
0.0141606
0.0141606
0.0141606
0.0141606
0.0141606
0.0141606
0.0141606
0.0141606
0.0141606
0.0141606
0.0141606
0.0141605
0.0141605
0.0141605
0.0141605
0.0141605
0.0141604
0.0141603
0.0141602
0.0141601
0.0141599
0.0141596
0.0141592
0.0141585
0.0141576
0.0141562
0.0141541
0.0141513
0.0141473
0.014142
0.0141349
0.0144663
0.0144737
0.0144792
0.0144834
0.0144863
0.0144884
0.0144899
0.0144909
0.0144916
0.014492
0.0144923
0.0144926
0.0144927
0.0144928
0.0144929
0.0144929
0.014493
0.014493
0.014493
0.014493
0.014493
0.014493
0.014493
0.014493
0.014493
0.0144931
0.0144931
0.0144931
0.0144931
0.0144931
0.0144931
0.0144931
0.0144931
0.0144931
0.0144931
0.014493
0.014493
0.014493
0.014493
0.014493
0.014493
0.014493
0.014493
0.014493
0.0144929
0.0144929
0.0144928
0.0144927
0.0144926
0.0144923
0.014492
0.0144916
0.0144909
0.0144899
0.0144884
0.0144863
0.0144834
0.0144792
0.0144737
0.0144663
0.0148337
0.0148415
0.0148473
0.0148516
0.0148547
0.0148569
0.0148584
0.0148595
0.0148602
0.0148607
0.014861
0.0148612
0.0148614
0.0148615
0.0148615
0.0148616
0.0148616
0.0148616
0.0148617
0.0148617
0.0148617
0.0148617
0.0148617
0.0148617
0.0148617
0.0148617
0.0148617
0.0148617
0.0148617
0.0148617
0.0148617
0.0148617
0.0148617
0.0148617
0.0148617
0.0148617
0.0148617
0.0148617
0.0148617
0.0148617
0.0148617
0.0148617
0.0148616
0.0148616
0.0148616
0.0148615
0.0148615
0.0148614
0.0148612
0.014861
0.0148607
0.0148602
0.0148595
0.0148584
0.0148569
0.0148547
0.0148516
0.0148473
0.0148415
0.0148337
0.0152434
0.0152515
0.0152576
0.0152622
0.0152654
0.0152677
0.0152693
0.0152704
0.0152712
0.0152717
0.015272
0.0152723
0.0152724
0.0152725
0.0152726
0.0152727
0.0152727
0.0152727
0.0152728
0.0152728
0.0152728
0.0152728
0.0152728
0.0152728
0.0152728
0.0152728
0.0152728
0.0152728
0.0152728
0.0152728
0.0152728
0.0152728
0.0152728
0.0152728
0.0152728
0.0152728
0.0152728
0.0152728
0.0152728
0.0152728
0.0152728
0.0152728
0.0152727
0.0152727
0.0152727
0.0152726
0.0152725
0.0152724
0.0152723
0.015272
0.0152717
0.0152712
0.0152704
0.0152693
0.0152677
0.0152654
0.0152622
0.0152576
0.0152515
0.0152434
0.0157031
0.0157117
0.0157181
0.0157229
0.0157263
0.0157288
0.0157305
0.0157316
0.0157324
0.0157329
0.0157333
0.0157336
0.0157337
0.0157338
0.0157339
0.015734
0.015734
0.015734
0.0157341
0.0157341
0.0157341
0.0157341
0.0157341
0.0157341
0.0157341
0.0157341
0.0157341
0.0157341
0.0157341
0.0157341
0.0157341
0.0157341
0.0157341
0.0157341
0.0157341
0.0157341
0.0157341
0.0157341
0.0157341
0.0157341
0.0157341
0.0157341
0.015734
0.015734
0.015734
0.0157339
0.0157338
0.0157337
0.0157336
0.0157333
0.0157329
0.0157324
0.0157316
0.0157305
0.0157288
0.0157263
0.0157229
0.0157181
0.0157117
0.0157031
0.0162227
0.0162318
0.0162386
0.0162437
0.0162473
0.0162499
0.0162517
0.0162529
0.0162538
0.0162543
0.0162547
0.016255
0.0162552
0.0162553
0.0162554
0.0162554
0.0162555
0.0162555
0.0162555
0.0162555
0.0162556
0.0162556
0.0162556
0.0162556
0.0162556
0.0162556
0.0162556
0.0162556
0.0162556
0.0162556
0.0162556
0.0162556
0.0162556
0.0162556
0.0162556
0.0162556
0.0162556
0.0162556
0.0162556
0.0162556
0.0162555
0.0162555
0.0162555
0.0162555
0.0162554
0.0162554
0.0162553
0.0162552
0.016255
0.0162547
0.0162543
0.0162538
0.0162529
0.0162517
0.0162499
0.0162473
0.0162437
0.0162386
0.0162318
0.0162227
0.0168149
0.0168246
0.0168319
0.0168373
0.0168412
0.016844
0.0168459
0.0168472
0.0168481
0.0168487
0.0168491
0.0168494
0.0168496
0.0168497
0.0168498
0.0168499
0.0168499
0.0168499
0.01685
0.01685
0.01685
0.01685
0.01685
0.01685
0.01685
0.01685
0.01685
0.01685
0.01685
0.01685
0.01685
0.01685
0.01685
0.01685
0.01685
0.01685
0.01685
0.01685
0.01685
0.01685
0.01685
0.01685
0.0168499
0.0168499
0.0168499
0.0168498
0.0168497
0.0168496
0.0168494
0.0168491
0.0168487
0.0168481
0.0168472
0.0168459
0.016844
0.0168412
0.0168373
0.0168319
0.0168246
0.0168149
0.0174964
0.0175069
0.0175147
0.0175206
0.0175248
0.0175278
0.0175298
0.0175312
0.0175322
0.0175329
0.0175333
0.0175336
0.0175338
0.017534
0.0175341
0.0175341
0.0175342
0.0175342
0.0175342
0.0175343
0.0175343
0.0175343
0.0175343
0.0175343
0.0175343
0.0175343
0.0175343
0.0175343
0.0175343
0.0175343
0.0175343
0.0175343
0.0175343
0.0175343
0.0175343
0.0175343
0.0175343
0.0175343
0.0175343
0.0175343
0.0175343
0.0175342
0.0175342
0.0175342
0.0175341
0.0175341
0.017534
0.0175338
0.0175336
0.0175333
0.0175329
0.0175322
0.0175312
0.0175298
0.0175278
0.0175248
0.0175206
0.0175147
0.0175069
0.0174964
0.0182899
0.0183013
0.0183098
0.0183162
0.0183208
0.018324
0.0183263
0.0183278
0.0183289
0.0183296
0.0183301
0.0183304
0.0183306
0.0183308
0.0183309
0.0183309
0.018331
0.018331
0.0183311
0.0183311
0.0183311
0.0183311
0.0183311
0.0183311
0.0183311
0.0183311
0.0183311
0.0183311
0.0183311
0.0183311
0.0183311
0.0183311
0.0183311
0.0183311
0.0183311
0.0183311
0.0183311
0.0183311
0.0183311
0.0183311
0.0183311
0.0183311
0.018331
0.018331
0.0183309
0.0183309
0.0183308
0.0183306
0.0183304
0.0183301
0.0183296
0.0183289
0.0183278
0.0183263
0.018324
0.0183208
0.0183162
0.0183098
0.0183013
0.0182899
0.0192264
0.019239
0.0192483
0.0192553
0.0192604
0.0192639
0.0192664
0.0192681
0.0192693
0.0192701
0.0192706
0.019271
0.0192712
0.0192714
0.0192715
0.0192716
0.0192716
0.0192717
0.0192717
0.0192717
0.0192717
0.0192718
0.0192718
0.0192718
0.0192718
0.0192718
0.0192718
0.0192718
0.0192718
0.0192718
0.0192718
0.0192718
0.0192718
0.0192718
0.0192718
0.0192718
0.0192718
0.0192718
0.0192718
0.0192717
0.0192717
0.0192717
0.0192717
0.0192716
0.0192716
0.0192715
0.0192714
0.0192712
0.019271
0.0192706
0.0192701
0.0192693
0.0192681
0.0192664
0.0192639
0.0192604
0.0192553
0.0192483
0.019239
0.0192264
0.0203499
0.0203639
0.0203744
0.0203822
0.0203878
0.0203918
0.0203946
0.0203965
0.0203978
0.0203987
0.0203993
0.0203997
0.0203999
0.0204001
0.0204003
0.0204004
0.0204004
0.0204005
0.0204005
0.0204005
0.0204006
0.0204006
0.0204006
0.0204006
0.0204006
0.0204006
0.0204006
0.0204006
0.0204006
0.0204006
0.0204006
0.0204006
0.0204006
0.0204006
0.0204006
0.0204006
0.0204006
0.0204006
0.0204006
0.0204006
0.0204005
0.0204005
0.0204005
0.0204004
0.0204004
0.0204003
0.0204001
0.0203999
0.0203997
0.0203993
0.0203987
0.0203978
0.0203965
0.0203946
0.0203918
0.0203878
0.0203822
0.0203744
0.0203639
0.0203499
0.0217246
0.0217404
0.0217524
0.0217613
0.0217677
0.0217723
0.0217754
0.0217776
0.0217791
0.0217801
0.0217808
0.0217812
0.0217815
0.0217818
0.0217819
0.021782
0.0217821
0.0217821
0.0217822
0.0217822
0.0217822
0.0217823
0.0217823
0.0217823
0.0217823
0.0217823
0.0217823
0.0217823
0.0217823
0.0217823
0.0217823
0.0217823
0.0217823
0.0217823
0.0217823
0.0217823
0.0217823
0.0217823
0.0217823
0.0217822
0.0217822
0.0217822
0.0217821
0.0217821
0.021782
0.0217819
0.0217818
0.0217815
0.0217812
0.0217808
0.0217801
0.0217791
0.0217776
0.0217754
0.0217723
0.0217677
0.0217613
0.0217524
0.0217404
0.0217246
0.0234466
0.0234651
0.023479
0.0234894
0.0234969
0.0235022
0.0235059
0.0235084
0.0235102
0.0235113
0.0235121
0.0235127
0.023513
0.0235133
0.0235135
0.0235136
0.0235137
0.0235137
0.0235138
0.0235138
0.0235138
0.0235139
0.0235139
0.0235139
0.0235139
0.0235139
0.0235139
0.0235139
0.0235139
0.0235139
0.0235139
0.0235139
0.0235139
0.0235139
0.0235139
0.0235139
0.0235139
0.0235139
0.0235139
0.0235138
0.0235138
0.0235138
0.0235137
0.0235137
0.0235136
0.0235135
0.0235133
0.023513
0.0235127
0.0235121
0.0235113
0.0235102
0.0235084
0.0235059
0.0235022
0.0234969
0.0234894
0.023479
0.0234651
0.0234466
0.0256624
0.0256845
0.0257012
0.0257136
0.0257227
0.025729
0.0257335
0.0257365
0.0257386
0.02574
0.025741
0.0257416
0.0257421
0.0257424
0.0257426
0.0257428
0.0257429
0.0257429
0.025743
0.025743
0.0257431
0.0257431
0.0257431
0.0257431
0.0257431
0.0257431
0.0257431
0.0257431
0.0257431
0.0257431
0.0257431
0.0257431
0.0257431
0.0257431
0.0257431
0.0257431
0.0257431
0.0257431
0.0257431
0.0257431
0.025743
0.025743
0.0257429
0.0257429
0.0257428
0.0257426
0.0257424
0.0257421
0.0257416
0.025741
0.02574
0.0257386
0.0257365
0.0257335
0.025729
0.0257227
0.0257136
0.0257012
0.0256845
0.0256624
0.028592
0.0286192
0.0286399
0.0286553
0.0286665
0.0286744
0.0286799
0.0286837
0.0286863
0.028688
0.0286892
0.02869
0.0286906
0.028691
0.0286912
0.0286914
0.0286915
0.0286916
0.0286917
0.0286917
0.0286918
0.0286918
0.0286918
0.0286918
0.0286919
0.0286919
0.0286919
0.0286919
0.0286919
0.0286919
0.0286919
0.0286919
0.0286919
0.0286919
0.0286919
0.0286919
0.0286918
0.0286918
0.0286918
0.0286918
0.0286917
0.0286917
0.0286916
0.0286915
0.0286914
0.0286912
0.028691
0.0286906
0.02869
0.0286892
0.028688
0.0286863
0.0286837
0.0286799
0.0286744
0.0286665
0.0286553
0.0286399
0.0286192
0.028592
0.0325479
0.0325823
0.0326085
0.0326282
0.0326424
0.0326525
0.0326596
0.0326644
0.0326677
0.0326699
0.0326715
0.0326725
0.0326732
0.0326737
0.032674
0.0326742
0.0326744
0.0326745
0.0326746
0.0326747
0.0326747
0.0326747
0.0326748
0.0326748
0.0326748
0.0326748
0.0326748
0.0326748
0.0326748
0.0326748
0.0326748
0.0326748
0.0326748
0.0326748
0.0326748
0.0326748
0.0326748
0.0326748
0.0326747
0.0326747
0.0326747
0.0326746
0.0326745
0.0326744
0.0326742
0.032674
0.0326737
0.0326732
0.0326725
0.0326715
0.0326699
0.0326677
0.0326644
0.0326596
0.0326525
0.0326424
0.0326282
0.0326085
0.0325823
0.0325479
0.0379229
0.0379672
0.0380011
0.0380265
0.038045
0.0380581
0.0380672
0.0380735
0.0380777
0.0380806
0.0380826
0.0380839
0.0380848
0.0380855
0.0380859
0.0380862
0.0380864
0.0380866
0.0380867
0.0380868
0.0380868
0.0380869
0.0380869
0.0380869
0.0380869
0.038087
0.038087
0.038087
0.038087
0.038087
0.038087
0.038087
0.038087
0.038087
0.038087
0.0380869
0.0380869
0.0380869
0.0380869
0.0380868
0.0380868
0.0380867
0.0380866
0.0380864
0.0380862
0.0380859
0.0380855
0.0380848
0.0380839
0.0380826
0.0380806
0.0380777
0.0380735
0.0380672
0.0380581
0.038045
0.0380265
0.0380011
0.0379672
0.0379229
0.0451163
0.0451733
0.0452169
0.0452497
0.0452734
0.0452903
0.045302
0.0453101
0.0453156
0.0453194
0.0453219
0.0453237
0.0453249
0.0453257
0.0453262
0.0453266
0.0453269
0.0453271
0.0453272
0.0453273
0.0453274
0.0453275
0.0453275
0.0453276
0.0453276
0.0453276
0.0453276
0.0453276
0.0453276
0.0453276
0.0453276
0.0453276
0.0453276
0.0453276
0.0453276
0.0453276
0.0453276
0.0453275
0.0453275
0.0453274
0.0453273
0.0453272
0.0453271
0.0453269
0.0453266
0.0453262
0.0453257
0.0453249
0.0453237
0.0453219
0.0453194
0.0453156
0.0453101
0.045302
0.0452903
0.0452734
0.0452497
0.0452169
0.0451733
0.0451163
0.0543962
0.0544678
0.0545228
0.0545639
0.0545938
0.054615
0.0546299
0.0546401
0.054647
0.0546518
0.054655
0.0546572
0.0546587
0.0546597
0.0546604
0.0546609
0.0546613
0.0546615
0.0546617
0.0546618
0.0546619
0.054662
0.0546621
0.0546621
0.0546621
0.0546622
0.0546622
0.0546622
0.0546622
0.0546622
0.0546622
0.0546622
0.0546622
0.0546622
0.0546622
0.0546621
0.0546621
0.0546621
0.054662
0.0546619
0.0546618
0.0546617
0.0546615
0.0546613
0.0546609
0.0546604
0.0546597
0.0546587
0.0546572
0.054655
0.0546518
0.054647
0.0546401
0.0546299
0.054615
0.0545938
0.0545639
0.0545228
0.0544678
0.0543962
0.0657716
0.0658587
0.0659253
0.0659752
0.0660115
0.0660373
0.0660553
0.0660677
0.0660762
0.066082
0.066086
0.0660887
0.0660905
0.0660918
0.0660926
0.0660933
0.0660937
0.066094
0.0660942
0.0660944
0.0660945
0.0660946
0.0660947
0.0660947
0.0660948
0.0660948
0.0660948
0.0660948
0.0660948
0.0660948
0.0660948
0.0660948
0.0660948
0.0660948
0.0660948
0.0660948
0.0660947
0.0660947
0.0660946
0.0660945
0.0660944
0.0660942
0.066094
0.0660937
0.0660933
0.0660926
0.0660918
0.0660905
0.0660887
0.066086
0.066082
0.0660762
0.0660677
0.0660553
0.0660373
0.0660115
0.0659752
0.0659253
0.0658587
0.0657716
0.078975
0.0790769
0.0791547
0.079213
0.0792554
0.0792855
0.0793066
0.0793212
0.0793312
0.079338
0.0793427
0.0793459
0.079348
0.0793495
0.0793506
0.0793513
0.0793518
0.0793522
0.0793525
0.0793527
0.0793528
0.0793529
0.079353
0.0793531
0.0793531
0.0793531
0.0793532
0.0793532
0.0793532
0.0793532
0.0793532
0.0793532
0.0793532
0.0793532
0.0793531
0.0793531
0.0793531
0.079353
0.0793529
0.0793528
0.0793527
0.0793525
0.0793522
0.0793518
0.0793513
0.0793506
0.0793495
0.079348
0.0793459
0.0793427
0.079338
0.0793312
0.0793212
0.0793066
0.0792855
0.0792554
0.079213
0.0791547
0.0790769
0.078975
0.0935765
0.0936919
0.0937799
0.0938457
0.0938937
0.0939279
0.0939518
0.0939684
0.0939798
0.0939876
0.0939929
0.0939965
0.0939991
0.0940008
0.094002
0.0940028
0.0940034
0.0940039
0.0940042
0.0940044
0.0940046
0.0940047
0.0940048
0.0940049
0.0940049
0.094005
0.094005
0.094005
0.094005
0.094005
0.094005
0.094005
0.094005
0.094005
0.094005
0.0940049
0.0940049
0.0940048
0.0940047
0.0940046
0.0940044
0.0940042
0.0940039
0.0940034
0.0940028
0.094002
0.0940008
0.0939991
0.0939965
0.0939929
0.0939876
0.0939798
0.0939684
0.0939518
0.0939279
0.0938937
0.0938457
0.0937799
0.0936919
0.0935765
0.109141
0.109269
0.109366
0.109438
0.109491
0.109529
0.109556
0.109574
0.109587
0.109596
0.109602
0.109606
0.109608
0.10961
0.109612
0.109613
0.109613
0.109614
0.109614
0.109614
0.109615
0.109615
0.109615
0.109615
0.109615
0.109615
0.109615
0.109615
0.109615
0.109615
0.109615
0.109615
0.109615
0.109615
0.109615
0.109615
0.109615
0.109615
0.109615
0.109615
0.109614
0.109614
0.109614
0.109613
0.109613
0.109612
0.10961
0.109608
0.109606
0.109602
0.109596
0.109587
0.109574
0.109556
0.109529
0.109491
0.109438
0.109366
0.109269
0.109141
0.125329
0.125467
0.125572
0.125651
0.125709
0.12575
0.125779
0.125799
0.125813
0.125823
0.125829
0.125834
0.125837
0.125839
0.125841
0.125842
0.125842
0.125843
0.125843
0.125844
0.125844
0.125844
0.125844
0.125844
0.125844
0.125844
0.125844
0.125844
0.125844
0.125844
0.125844
0.125844
0.125844
0.125844
0.125844
0.125844
0.125844
0.125844
0.125844
0.125844
0.125844
0.125843
0.125843
0.125842
0.125842
0.125841
0.125839
0.125837
0.125834
0.125829
0.125823
0.125813
0.125799
0.125779
0.12575
0.125709
0.125651
0.125572
0.125467
0.125329
0.141912
0.142061
0.142174
0.142259
0.142321
0.142365
0.142396
0.142418
0.142433
0.142444
0.142451
0.142456
0.142459
0.142462
0.142463
0.142465
0.142465
0.142466
0.142466
0.142467
0.142467
0.142467
0.142467
0.142467
0.142467
0.142468
0.142468
0.142468
0.142468
0.142468
0.142468
0.142468
0.142468
0.142468
0.142468
0.142467
0.142467
0.142467
0.142467
0.142467
0.142467
0.142466
0.142466
0.142465
0.142465
0.142463
0.142462
0.142459
0.142456
0.142451
0.142444
0.142433
0.142418
0.142396
0.142365
0.142321
0.142259
0.142174
0.142061
0.141912
0.158754
0.158912
0.159032
0.159123
0.159189
0.159236
0.15927
0.159294
0.15931
0.159321
0.159329
0.159334
0.159338
0.159341
0.159343
0.159344
0.159345
0.159345
0.159346
0.159346
0.159347
0.159347
0.159347
0.159347
0.159347
0.159347
0.159347
0.159347
0.159347
0.159347
0.159347
0.159347
0.159347
0.159347
0.159347
0.159347
0.159347
0.159347
0.159347
0.159347
0.159346
0.159346
0.159345
0.159345
0.159344
0.159343
0.159341
0.159338
0.159334
0.159329
0.159321
0.15931
0.159294
0.15927
0.159236
0.159189
0.159123
0.159032
0.158912
0.158754
0.175769
0.175936
0.176064
0.17616
0.17623
0.176281
0.176317
0.176342
0.176359
0.176372
0.17638
0.176386
0.17639
0.176393
0.176395
0.176396
0.176397
0.176398
0.176398
0.176399
0.176399
0.176399
0.1764
0.1764
0.1764
0.1764
0.1764
0.1764
0.1764
0.1764
0.1764
0.1764
0.1764
0.1764
0.1764
0.1764
0.1764
0.1764
0.176399
0.176399
0.176399
0.176398
0.176398
0.176397
0.176396
0.176395
0.176393
0.17639
0.176386
0.17638
0.176372
0.176359
0.176342
0.176317
0.176281
0.17623
0.17616
0.176064
0.175936
0.175769
0.192904
0.19308
0.193215
0.193316
0.19339
0.193444
0.193482
0.193509
0.193528
0.193541
0.19355
0.193557
0.193561
0.193564
0.193566
0.193568
0.193569
0.19357
0.19357
0.193571
0.193571
0.193571
0.193572
0.193572
0.193572
0.193572
0.193572
0.193572
0.193572
0.193572
0.193572
0.193572
0.193572
0.193572
0.193572
0.193572
0.193572
0.193572
0.193571
0.193571
0.193571
0.19357
0.19357
0.193569
0.193568
0.193566
0.193564
0.193561
0.193557
0.19355
0.193541
0.193528
0.193509
0.193482
0.193444
0.19339
0.193316
0.193215
0.19308
0.192904
0.210122
0.210306
0.210447
0.210554
0.210632
0.210689
0.21073
0.210758
0.210778
0.210793
0.210802
0.210809
0.210814
0.210817
0.21082
0.210821
0.210823
0.210823
0.210824
0.210825
0.210825
0.210825
0.210825
0.210825
0.210826
0.210826
0.210826
0.210826
0.210826
0.210826
0.210826
0.210826
0.210826
0.210826
0.210826
0.210826
0.210825
0.210825
0.210825
0.210825
0.210825
0.210824
0.210823
0.210823
0.210821
0.21082
0.210817
0.210814
0.210809
0.210802
0.210793
0.210778
0.210758
0.21073
0.210689
0.210632
0.210554
0.210447
0.210306
0.210122
0.227392
0.227584
0.227732
0.227843
0.227926
0.227986
0.228029
0.228059
0.228081
0.228096
0.228106
0.228114
0.228119
0.228123
0.228125
0.228127
0.228128
0.228129
0.22813
0.22813
0.228131
0.228131
0.228131
0.228131
0.228132
0.228132
0.228132
0.228132
0.228132
0.228132
0.228132
0.228132
0.228132
0.228132
0.228132
0.228132
0.228131
0.228131
0.228131
0.228131
0.22813
0.22813
0.228129
0.228128
0.228127
0.228125
0.228123
0.228119
0.228114
0.228106
0.228096
0.228081
0.228059
0.228029
0.227986
0.227926
0.227843
0.227732
0.227584
0.227392
0.24469
0.24489
0.245044
0.245161
0.245247
0.24531
0.245356
0.245388
0.245411
0.245427
0.245438
0.245446
0.245452
0.245456
0.245458
0.24546
0.245462
0.245463
0.245464
0.245464
0.245465
0.245465
0.245465
0.245465
0.245465
0.245465
0.245465
0.245466
0.245466
0.245466
0.245466
0.245466
0.245466
0.245465
0.245465
0.245465
0.245465
0.245465
0.245465
0.245465
0.245464
0.245464
0.245463
0.245462
0.24546
0.245458
0.245456
0.245452
0.245446
0.245438
0.245427
0.245411
0.245388
0.245356
0.24531
0.245247
0.245161
0.245044
0.24489
0.24469
0.261995
0.262202
0.262362
0.262484
0.262575
0.262641
0.262689
0.262723
0.262747
0.262764
0.262776
0.262785
0.262791
0.262795
0.262798
0.2628
0.262802
0.262803
0.262804
0.262804
0.262805
0.262805
0.262805
0.262805
0.262805
0.262806
0.262806
0.262806
0.262806
0.262806
0.262806
0.262806
0.262806
0.262806
0.262806
0.262805
0.262805
0.262805
0.262805
0.262805
0.262804
0.262804
0.262803
0.262802
0.2628
0.262798
0.262795
0.262791
0.262785
0.262776
0.262764
0.262747
0.262723
0.262689
0.262641
0.262575
0.262484
0.262362
0.262202
0.261995
0.279287
0.279501
0.279667
0.279794
0.279889
0.279958
0.280008
0.280044
0.28007
0.280088
0.280101
0.28011
0.280116
0.280121
0.280124
0.280127
0.280128
0.280129
0.28013
0.280131
0.280131
0.280132
0.280132
0.280132
0.280132
0.280132
0.280133
0.280133
0.280133
0.280133
0.280133
0.280133
0.280133
0.280133
0.280132
0.280132
0.280132
0.280132
0.280132
0.280131
0.280131
0.28013
0.280129
0.280128
0.280127
0.280124
0.280121
0.280116
0.28011
0.280101
0.280088
0.28007
0.280044
0.280008
0.279958
0.279889
0.279794
0.279667
0.279501
0.279287
0.296548
0.296769
0.296941
0.297073
0.297171
0.297244
0.297296
0.297334
0.297361
0.297381
0.297394
0.297404
0.297411
0.297416
0.297419
0.297422
0.297424
0.297425
0.297426
0.297427
0.297427
0.297427
0.297428
0.297428
0.297428
0.297428
0.297428
0.297428
0.297428
0.297428
0.297428
0.297428
0.297428
0.297428
0.297428
0.297428
0.297428
0.297428
0.297427
0.297427
0.297427
0.297426
0.297425
0.297424
0.297422
0.297419
0.297416
0.297411
0.297404
0.297394
0.297381
0.297361
0.297334
0.297296
0.297244
0.297171
0.297073
0.296941
0.296769
0.296548
0.313762
0.313989
0.314167
0.314303
0.314405
0.314481
0.314536
0.314576
0.314604
0.314625
0.314639
0.31465
0.314657
0.314662
0.314666
0.314669
0.314671
0.314672
0.314673
0.314674
0.314674
0.314675
0.314675
0.314675
0.314676
0.314676
0.314676
0.314676
0.314676
0.314676
0.314676
0.314676
0.314676
0.314676
0.314676
0.314676
0.314675
0.314675
0.314675
0.314674
0.314674
0.314673
0.314672
0.314671
0.314669
0.314666
0.314662
0.314657
0.31465
0.314639
0.314625
0.314604
0.314576
0.314536
0.314481
0.314405
0.314303
0.314167
0.313989
0.313762
0.330912
0.331145
0.331328
0.331468
0.331574
0.331653
0.331711
0.331753
0.331783
0.331804
0.33182
0.331831
0.331839
0.331844
0.331848
0.331851
0.331853
0.331855
0.331856
0.331857
0.331858
0.331858
0.331858
0.331859
0.331859
0.331859
0.331859
0.331859
0.331859
0.331859
0.331859
0.331859
0.331859
0.331859
0.331859
0.331859
0.331859
0.331858
0.331858
0.331858
0.331857
0.331856
0.331855
0.331853
0.331851
0.331848
0.331844
0.331839
0.331831
0.33182
0.331804
0.331783
0.331753
0.331711
0.331653
0.331574
0.331468
0.331328
0.331145
0.330912
0.347983
0.348221
0.348409
0.348554
0.348664
0.348746
0.348806
0.34885
0.348881
0.348904
0.34892
0.348932
0.348941
0.348947
0.348951
0.348954
0.348957
0.348958
0.348959
0.34896
0.348961
0.348961
0.348962
0.348962
0.348962
0.348962
0.348963
0.348963
0.348963
0.348963
0.348963
0.348963
0.348963
0.348963
0.348962
0.348962
0.348962
0.348962
0.348961
0.348961
0.34896
0.348959
0.348958