/*--------------------------------*- C++ -*----------------------------------*\
| =========                 |                                                 |
| \\      /  F ield         | foam-extend: Open Source CFD                    |
|  \\    /   O peration     | Version:     4.0                                |
|   \\  /    A nd           | Web:         http://www.foam-extend.org         |
|    \\/     M anipulation  |                                                 |
\*---------------------------------------------------------------------------*/
FoamFile
{
    version     2.0;
    format      ascii;
    class       volScalarField;
    location    "630";
    object      psiE;
}
// * * * * * * * * * * * * * * * * * * * * * * * * * * * * * * * * * * * * * //

dimensions      [0 0 0 0 0 0 0];

internalField   nonuniform List<scalar> 
6960
(
0.326836
0.326838
0.326841
0.326844
0.326847
0.32685
0.326852
0.326855
0.326857
0.326859
0.326861
0.326863
0.326865
0.326866
0.326868
0.326869
0.32687
0.326872
0.326873
0.326874
0.326874
0.326875
0.326876
0.326876
0.326877
0.326877
0.326877
0.326878
0.326878
0.326878
0.326878
0.326878
0.326878
0.326877
0.326877
0.326877
0.326876
0.326876
0.326875
0.326874
0.326874
0.326873
0.326872
0.32687
0.326869
0.326868
0.326866
0.326865
0.326863
0.326861
0.326859
0.326857
0.326855
0.326852
0.32685
0.326847
0.326844
0.326841
0.326838
0.326836
0.804617
0.804626
0.804637
0.804649
0.80466
0.804671
0.804682
0.804692
0.804701
0.80471
0.804718
0.804726
0.804732
0.804739
0.804745
0.80475
0.804755
0.80476
0.804764
0.804767
0.804771
0.804773
0.804776
0.804778
0.80478
0.804782
0.804783
0.804784
0.804784
0.804784
0.804784
0.804784
0.804784
0.804783
0.804782
0.80478
0.804778
0.804776
0.804773
0.804771
0.804767
0.804764
0.80476
0.804755
0.80475
0.804745
0.804739
0.804732
0.804726
0.804718
0.80471
0.804701
0.804692
0.804682
0.804671
0.80466
0.804649
0.804637
0.804626
0.804617
1.22718
1.22719
1.22722
1.22724
1.22726
1.22729
1.22731
1.22733
1.22734
1.22736
1.22738
1.22739
1.22741
1.22742
1.22743
1.22744
1.22745
1.22746
1.22747
1.22748
1.22748
1.22749
1.22749
1.2275
1.2275
1.2275
1.22751
1.22751
1.22751
1.22751
1.22751
1.22751
1.22751
1.22751
1.2275
1.2275
1.2275
1.22749
1.22749
1.22748
1.22748
1.22747
1.22746
1.22745
1.22744
1.22743
1.22742
1.22741
1.22739
1.22738
1.22736
1.22734
1.22733
1.22731
1.22729
1.22726
1.22724
1.22722
1.22719
1.22718
1.6316
1.63163
1.63166
1.6317
1.63174
1.63177
1.63181
1.63184
1.63187
1.63189
1.63192
1.63194
1.63197
1.63199
1.632
1.63202
1.63204
1.63205
1.63206
1.63207
1.63208
1.63209
1.6321
1.63211
1.63211
1.63212
1.63212
1.63212
1.63213
1.63213
1.63213
1.63213
1.63212
1.63212
1.63212
1.63211
1.63211
1.6321
1.63209
1.63208
1.63207
1.63206
1.63205
1.63204
1.63202
1.632
1.63199
1.63197
1.63194
1.63192
1.63189
1.63187
1.63184
1.63181
1.63177
1.63174
1.6317
1.63166
1.63163
1.6316
2.03305
2.03309
2.03314
2.03319
2.03324
2.03329
2.03334
2.03338
2.03343
2.03346
2.0335
2.03353
2.03356
2.03359
2.03362
2.03364
2.03366
2.03368
2.0337
2.03372
2.03373
2.03374
2.03375
2.03376
2.03377
2.03378
2.03378
2.03379
2.03379
2.03379
2.03379
2.03379
2.03379
2.03378
2.03378
2.03377
2.03376
2.03375
2.03374
2.03373
2.03372
2.0337
2.03368
2.03366
2.03364
2.03362
2.03359
2.03356
2.03353
2.0335
2.03346
2.03343
2.03338
2.03334
2.03329
2.03324
2.03319
2.03314
2.03309
2.03305
2.43822
2.43827
2.43833
2.4384
2.43847
2.43854
2.4386
2.43866
2.43871
2.43876
2.43881
2.43885
2.43889
2.43893
2.43896
2.43899
2.43902
2.43905
2.43907
2.43909
2.43911
2.43912
2.43914
2.43915
2.43916
2.43917
2.43918
2.43918
2.43918
2.43919
2.43919
2.43918
2.43918
2.43918
2.43917
2.43916
2.43915
2.43914
2.43912
2.43911
2.43909
2.43907
2.43905
2.43902
2.43899
2.43896
2.43893
2.43889
2.43885
2.43881
2.43876
2.43871
2.43866
2.4386
2.43854
2.43847
2.4384
2.43833
2.43827
2.43822
2.85013
2.8502
2.85028
2.85037
2.85045
2.85053
2.85061
2.85068
2.85075
2.85081
2.85087
2.85092
2.85097
2.85102
2.85106
2.8511
2.85114
2.85117
2.8512
2.85122
2.85125
2.85127
2.85128
2.8513
2.85131
2.85132
2.85133
2.85134
2.85134
2.85134
2.85134
2.85134
2.85134
2.85133
2.85132
2.85131
2.8513
2.85128
2.85127
2.85125
2.85122
2.8512
2.85117
2.85114
2.8511
2.85106
2.85102
2.85097
2.85092
2.85087
2.85081
2.85075
2.85068
2.85061
2.85053
2.85045
2.85037
2.85028
2.8502
2.85013
3.27019
3.27027
3.27036
3.27047
3.27057
3.27067
3.27076
3.27085
3.27093
3.271
3.27107
3.27114
3.2712
3.27125
3.27131
3.27135
3.27139
3.27143
3.27147
3.2715
3.27152
3.27155
3.27157
3.27159
3.2716
3.27162
3.27163
3.27163
3.27164
3.27164
3.27164
3.27164
3.27163
3.27163
3.27162
3.2716
3.27159
3.27157
3.27155
3.27152
3.2715
3.27147
3.27143
3.27139
3.27135
3.27131
3.27125
3.2712
3.27114
3.27107
3.271
3.27093
3.27085
3.27076
3.27067
3.27057
3.27047
3.27036
3.27027
3.27019
3.69902
3.6991
3.69922
3.69934
3.69946
3.69958
3.69968
3.69979
3.69988
3.69997
3.70005
3.70013
3.7002
3.70026
3.70032
3.70038
3.70043
3.70047
3.70051
3.70055
3.70058
3.70061
3.70063
3.70065
3.70067
3.70068
3.7007
3.70071
3.70071
3.70071
3.70071
3.70071
3.70071
3.7007
3.70068
3.70067
3.70065
3.70063
3.70061
3.70058
3.70055
3.70051
3.70047
3.70043
3.70038
3.70032
3.70026
3.7002
3.70013
3.70005
3.69997
3.69988
3.69979
3.69968
3.69958
3.69946
3.69934
3.69922
3.6991
3.69902
4.1369
4.137
4.13714
4.13728
4.13741
4.13755
4.13767
4.13779
4.1379
4.138
4.13809
4.13818
4.13826
4.13834
4.1384
4.13847
4.13852
4.13857
4.13862
4.13866
4.1387
4.13873
4.13876
4.13878
4.1388
4.13882
4.13883
4.13884
4.13885
4.13885
4.13885
4.13885
4.13884
4.13883
4.13882
4.1388
4.13878
4.13876
4.13873
4.1387
4.13866
4.13862
4.13857
4.13852
4.13847
4.1384
4.13834
4.13826
4.13818
4.13809
4.138
4.1379
4.13779
4.13767
4.13755
4.13741
4.13728
4.13714
4.137
4.1369
4.58398
4.5841
4.58425
4.58441
4.58456
4.58471
4.58485
4.58498
4.58511
4.58522
4.58533
4.58543
4.58552
4.5856
4.58568
4.58575
4.58581
4.58587
4.58592
4.58597
4.58601
4.58605
4.58608
4.58611
4.58613
4.58615
4.58616
4.58618
4.58618
4.58619
4.58619
4.58618
4.58618
4.58616
4.58615
4.58613
4.58611
4.58608
4.58605
4.58601
4.58597
4.58592
4.58587
4.58581
4.58575
4.58568
4.5856
4.58552
4.58543
4.58533
4.58522
4.58511
4.58498
4.58485
4.58471
4.58456
4.58441
4.58425
4.5841
4.58398
5.04031
5.04044
5.0406
5.04078
5.04095
5.04112
5.04128
5.04142
5.04156
5.04169
5.04181
5.04192
5.04202
5.04212
5.0422
5.04228
5.04235
5.04242
5.04247
5.04253
5.04257
5.04261
5.04265
5.04268
5.0427
5.04273
5.04274
5.04276
5.04276
5.04277
5.04277
5.04276
5.04276
5.04274
5.04273
5.0427
5.04268
5.04265
5.04261
5.04257
5.04253
5.04247
5.04242
5.04235
5.04228
5.0422
5.04212
5.04202
5.04192
5.04181
5.04169
5.04156
5.04142
5.04128
5.04112
5.04095
5.04078
5.0406
5.04044
5.04031
5.50588
5.50602
5.50621
5.5064
5.50659
5.50678
5.50695
5.50711
5.50727
5.50741
5.50754
5.50766
5.50777
5.50788
5.50797
5.50806
5.50814
5.50821
5.50827
5.50833
5.50838
5.50843
5.50847
5.5085
5.50853
5.50855
5.50857
5.50858
5.50859
5.5086
5.5086
5.50859
5.50858
5.50857
5.50855
5.50853
5.5085
5.50847
5.50843
5.50838
5.50833
5.50827
5.50821
5.50814
5.50806
5.50797
5.50788
5.50777
5.50766
5.50754
5.50741
5.50727
5.50711
5.50695
5.50678
5.50659
5.5064
5.50621
5.50602
5.50588
5.98067
5.98083
5.98103
5.98124
5.98145
5.98165
5.98184
5.98202
5.98219
5.98235
5.98249
5.98262
5.98275
5.98286
5.98296
5.98306
5.98315
5.98322
5.98329
5.98336
5.98341
5.98346
5.98351
5.98354
5.98357
5.9836
5.98362
5.98364
5.98365
5.98365
5.98365
5.98365
5.98364
5.98362
5.9836
5.98357
5.98354
5.98351
5.98346
5.98341
5.98336
5.98329
5.98322
5.98315
5.98306
5.98296
5.98286
5.98275
5.98262
5.98249
5.98235
5.98219
5.98202
5.98184
5.98165
5.98145
5.98124
5.98103
5.98083
5.98067
6.46463
6.46479
6.46501
6.46524
6.46547
6.46569
6.4659
6.46609
6.46628
6.46644
6.4666
6.46675
6.46688
6.467
6.46712
6.46722
6.46731
6.4674
6.46748
6.46755
6.46761
6.46766
6.46771
6.46775
6.46778
6.46781
6.46783
6.46785
6.46786
6.46786
6.46786
6.46786
6.46785
6.46783
6.46781
6.46778
6.46775
6.46771
6.46766
6.46761
6.46755
6.46748
6.4674
6.46731
6.46722
6.46712
6.467
6.46688
6.46675
6.4666
6.46644
6.46628
6.46609
6.4659
6.46569
6.46547
6.46524
6.46501
6.46479
6.46463
6.95765
6.95783
6.95807
6.95832
6.95857
6.9588
6.95903
6.95924
6.95943
6.95962
6.95979
6.95994
6.96009
6.96022
6.96034
6.96046
6.96056
6.96065
6.96073
6.96081
6.96087
6.96093
6.96098
6.96103
6.96106
6.96109
6.96112
6.96113
6.96115
6.96115
6.96115
6.96115
6.96113
6.96112
6.96109
6.96106
6.96103
6.96098
6.96093
6.96087
6.96081
6.96073
6.96065
6.96056
6.96046
6.96034
6.96022
6.96009
6.95994
6.95979
6.95962
6.95943
6.95924
6.95903
6.9588
6.95857
6.95832
6.95807
6.95783
6.95765
7.45963
7.45982
7.46008
7.46035
7.46061
7.46087
7.46111
7.46133
7.46155
7.46174
7.46192
7.46209
7.46225
7.46239
7.46252
7.46264
7.46275
7.46285
7.46294
7.46302
7.46309
7.46315
7.46321
7.46326
7.46329
7.46333
7.46335
7.46337
7.46338
7.46339
7.46339
7.46338
7.46337
7.46335
7.46333
7.46329
7.46326
7.46321
7.46315
7.46309
7.46302
7.46294
7.46285
7.46275
7.46264
7.46252
7.46239
7.46225
7.46209
7.46192
7.46174
7.46155
7.46133
7.46111
7.46087
7.46061
7.46035
7.46008
7.45982
7.45963
7.9704
7.97061
7.97088
7.97117
7.97145
7.97173
7.97198
7.97222
7.97245
7.97266
7.97286
7.97304
7.9732
7.97336
7.9735
7.97362
7.97374
7.97385
7.97394
7.97403
7.9741
7.97417
7.97423
7.97428
7.97432
7.97436
7.97438
7.9744
7.97442
7.97442
7.97442
7.97442
7.9744
7.97438
7.97436
7.97432
7.97428
7.97423
7.97417
7.9741
7.97403
7.97394
7.97385
7.97374
7.97362
7.9735
7.97336
7.9732
7.97304
7.97286
7.97266
7.97245
7.97222
7.97198
7.97173
7.97145
7.97117
7.97088
7.97061
7.9704
8.48977
8.48999
8.49028
8.49059
8.49089
8.49118
8.49145
8.49171
8.49195
8.49218
8.49238
8.49258
8.49275
8.49292
8.49307
8.4932
8.49333
8.49344
8.49354
8.49363
8.49371
8.49378
8.49385
8.4939
8.49394
8.49398
8.49401
8.49403
8.49405
8.49405
8.49405
8.49405
8.49403
8.49401
8.49398
8.49394
8.4939
8.49385
8.49378
8.49371
8.49363
8.49354
8.49344
8.49333
8.4932
8.49307
8.49292
8.49275
8.49258
8.49238
8.49218
8.49195
8.49171
8.49145
8.49118
8.49089
8.49059
8.49028
8.48999
8.48977
9.0175
9.01773
9.01804
9.01836
9.01868
9.01899
9.01928
9.01956
9.01981
9.02005
9.02027
9.02047
9.02066
9.02083
9.02099
9.02114
9.02127
9.02139
9.02149
9.02159
9.02168
9.02175
9.02182
9.02187
9.02192
9.02196
9.02199
9.02202
9.02203
9.02204
9.02204
9.02203
9.02202
9.02199
9.02196
9.02192
9.02187
9.02182
9.02175
9.02168
9.02159
9.02149
9.02139
9.02127
9.02114
9.02099
9.02083
9.02066
9.02047
9.02027
9.02005
9.01981
9.01956
9.01928
9.01899
9.01868
9.01836
9.01804
9.01773
9.0175
9.55329
9.55354
9.55386
9.55421
9.55454
9.55487
9.55517
9.55546
9.55573
9.55598
9.55621
9.55643
9.55663
9.55681
9.55698
9.55713
9.55727
9.5574
9.55751
9.55761
9.5577
9.55778
9.55785
9.55791
9.55796
9.558
9.55804
9.55806
9.55808
9.55809
9.55809
9.55808
9.55806
9.55804
9.558
9.55796
9.55791
9.55785
9.55778
9.5577
9.55761
9.55751
9.5574
9.55727
9.55713
9.55698
9.55681
9.55663
9.55643
9.55621
9.55598
9.55573
9.55546
9.55517
9.55487
9.55454
9.55421
9.55386
9.55354
9.55329
10.0968
10.0971
10.0974
10.0978
10.0981
10.0985
10.0988
10.0991
10.0994
10.0996
10.0999
10.1001
10.1003
10.1005
10.1007
10.1008
10.101
10.1011
10.1012
10.1013
10.1014
10.1015
10.1016
10.1017
10.1017
10.1018
10.1018
10.1018
10.1018
10.1018
10.1018
10.1018
10.1018
10.1018
10.1018
10.1017
10.1017
10.1016
10.1015
10.1014
10.1013
10.1012
10.1011
10.101
10.1008
10.1007
10.1005
10.1003
10.1001
10.0999
10.0996
10.0994
10.0991
10.0988
10.0985
10.0981
10.0978
10.0974
10.0971
10.0968
10.6476
10.6479
10.6483
10.6486
10.649
10.6494
10.6497
10.65
10.6503
10.6506
10.6508
10.6511
10.6513
10.6515
10.6517
10.6519
10.652
10.6522
10.6523
10.6524
10.6525
10.6526
10.6527
10.6527
10.6528
10.6528
10.6529
10.6529
10.6529
10.6529
10.6529
10.6529
10.6529
10.6529
10.6528
10.6528
10.6527
10.6527
10.6526
10.6525
10.6524
10.6523
10.6522
10.652
10.6519
10.6517
10.6515
10.6513
10.6511
10.6508
10.6506
10.6503
10.65
10.6497
10.6494
10.649
10.6486
10.6483
10.6479
10.6476
11.2053
11.2056
11.2059
11.2063
11.2067
11.2071
11.2074
11.2078
11.2081
11.2084
11.2086
11.2089
11.2091
11.2093
11.2095
11.2097
11.2099
11.21
11.2101
11.2103
11.2104
11.2105
11.2105
11.2106
11.2107
11.2107
11.2107
11.2108
11.2108
11.2108
11.2108
11.2108
11.2108
11.2107
11.2107
11.2107
11.2106
11.2105
11.2105
11.2104
11.2103
11.2101
11.21
11.2099
11.2097
11.2095
11.2093
11.2091
11.2089
11.2086
11.2084
11.2081
11.2078
11.2074
11.2071
11.2067
11.2063
11.2059
11.2056
11.2053
11.7692
11.7695
11.7699
11.7703
11.7707
11.7711
11.7714
11.7718
11.7721
11.7724
11.7727
11.773
11.7732
11.7734
11.7736
11.7738
11.774
11.7741
11.7743
11.7744
11.7745
11.7746
11.7747
11.7747
11.7748
11.7749
11.7749
11.7749
11.7749
11.775
11.775
11.7749
11.7749
11.7749
11.7749
11.7748
11.7747
11.7747
11.7746
11.7745
11.7744
11.7743
11.7741
11.774
11.7738
11.7736
11.7734
11.7732
11.773
11.7727
11.7724
11.7721
11.7718
11.7714
11.7711
11.7707
11.7703
11.7699
11.7695
11.7692
12.3387
12.339
12.3394
12.3399
12.3403
12.3407
12.3411
12.3414
12.3418
12.3421
12.3424
12.3426
12.3429
12.3431
12.3433
12.3435
12.3437
12.3438
12.344
12.3441
12.3442
12.3443
12.3444
12.3445
12.3446
12.3446
12.3447
12.3447
12.3447
12.3447
12.3447
12.3447
12.3447
12.3447
12.3446
12.3446
12.3445
12.3444
12.3443
12.3442
12.3441
12.344
12.3438
12.3437
12.3435
12.3433
12.3431
12.3429
12.3426
12.3424
12.3421
12.3418
12.3414
12.3411
12.3407
12.3403
12.3399
12.3394
12.339
12.3387
12.9131
12.9135
12.9139
12.9143
12.9148
12.9152
12.9156
12.9159
12.9163
12.9166
12.9169
12.9172
12.9174
12.9177
12.9179
12.9181
12.9183
12.9184
12.9186
12.9187
12.9188
12.9189
12.919
12.9191
12.9192
12.9192
12.9193
12.9193
12.9193
12.9193
12.9193
12.9193
12.9193
12.9193
12.9192
12.9192
12.9191
12.919
12.9189
12.9188
12.9187
12.9186
12.9184
12.9183
12.9181
12.9179
12.9177
12.9174
12.9172
12.9169
12.9166
12.9163
12.9159
12.9156
12.9152
12.9148
12.9143
12.9139
12.9135
12.9131
13.4916
13.4919
13.4923
13.4928
13.4932
13.4937
13.4941
13.4944
13.4948
13.4951
13.4955
13.4957
13.496
13.4962
13.4965
13.4967
13.4969
13.497
13.4972
13.4973
13.4974
13.4975
13.4976
13.4977
13.4978
13.4978
13.4979
13.4979
13.4979
13.498
13.498
13.4979
13.4979
13.4979
13.4978
13.4978
13.4977
13.4976
13.4975
13.4974
13.4973
13.4972
13.497
13.4969
13.4967
13.4965
13.4962
13.496
13.4957
13.4955
13.4951
13.4948
13.4944
13.4941
13.4937
13.4932
13.4928
13.4923
13.4919
13.4916
14.073
14.0733
14.0738
14.0742
14.0747
14.0752
14.0756
14.076
14.0763
14.0767
14.077
14.0773
14.0776
14.0778
14.078
14.0783
14.0784
14.0786
14.0788
14.0789
14.079
14.0792
14.0792
14.0793
14.0794
14.0795
14.0795
14.0795
14.0796
14.0796
14.0796
14.0796
14.0795
14.0795
14.0795
14.0794
14.0793
14.0792
14.0792
14.079
14.0789
14.0788
14.0786
14.0784
14.0783
14.078
14.0778
14.0776
14.0773
14.077
14.0767
14.0763
14.076
14.0756
14.0752
14.0747
14.0742
14.0738
14.0733
14.073
14.6563
14.6566
14.6571
14.6576
14.6581
14.6585
14.6589
14.6593
14.6597
14.6601
14.6604
14.6607
14.661
14.6612
14.6615
14.6617
14.6619
14.6621
14.6622
14.6624
14.6625
14.6626
14.6627
14.6628
14.6629
14.6629
14.663
14.663
14.663
14.663
14.663
14.663
14.663
14.663
14.6629
14.6629
14.6628
14.6627
14.6626
14.6625
14.6624
14.6622
14.6621
14.6619
14.6617
14.6615
14.6612
14.661
14.6607
14.6604
14.6601
14.6597
14.6593
14.6589
14.6585
14.6581
14.6576
14.6571
14.6566
14.6563
15.2402
15.2405
15.241
15.2415
15.2419
15.2424
15.2428
15.2433
15.2436
15.244
15.2443
15.2446
15.2449
15.2452
15.2454
15.2457
15.2459
15.246
15.2462
15.2464
15.2465
15.2466
15.2467
15.2468
15.2469
15.2469
15.247
15.247
15.247
15.247
15.247
15.247
15.247
15.247
15.2469
15.2469
15.2468
15.2467
15.2466
15.2465
15.2464
15.2462
15.246
15.2459
15.2457
15.2454
15.2452
15.2449
15.2446
15.2443
15.244
15.2436
15.2433
15.2428
15.2424
15.2419
15.2415
15.241
15.2405
15.2402
15.823
15.8234
15.8239
15.8244
15.8249
15.8253
15.8258
15.8262
15.8266
15.827
15.8273
15.8276
15.8279
15.8282
15.8284
15.8286
15.8288
15.829
15.8292
15.8294
15.8295
15.8296
15.8297
15.8298
15.8299
15.8299
15.83
15.83
15.83
15.8301
15.8301
15.83
15.83
15.83
15.8299
15.8299
15.8298
15.8297
15.8296
15.8295
15.8294
15.8292
15.829
15.8288
15.8286
15.8284
15.8282
15.8279
15.8276
15.8273
15.827
15.8266
15.8262
15.8258
15.8253
15.8249
15.8244
15.8239
15.8234
15.823
16.4032
16.4036
16.4041
16.4046
16.4051
16.4056
16.406
16.4064
16.4068
16.4072
16.4075
16.4079
16.4081
16.4084
16.4087
16.4089
16.4091
16.4093
16.4095
16.4096
16.4097
16.4099
16.41
16.4101
16.4101
16.4102
16.4103
16.4103
16.4103
16.4103
16.4103
16.4103
16.4103
16.4103
16.4102
16.4101
16.4101
16.41
16.4099
16.4097
16.4096
16.4095
16.4093
16.4091
16.4089
16.4087
16.4084
16.4081
16.4079
16.4075
16.4072
16.4068
16.4064
16.406
16.4056
16.4051
16.4046
16.4041
16.4036
16.4032
16.9787
16.9791
16.9795
16.98
16.9805
16.981
16.9815
16.9819
16.9823
16.9827
16.983
16.9833
16.9836
16.9839
16.9842
16.9844
16.9846
16.9848
16.985
16.9851
16.9853
16.9854
16.9855
16.9856
16.9856
16.9857
16.9858
16.9858
16.9858
16.9858
16.9858
16.9858
16.9858
16.9858
16.9857
16.9856
16.9856
16.9855
16.9854
16.9853
16.9851
16.985
16.9848
16.9846
16.9844
16.9842
16.9839
16.9836
16.9833
16.983
16.9827
16.9823
16.9819
16.9815
16.981
16.9805
16.98
16.9795
16.9791
16.9787
17.5471
17.5474
17.5479
17.5484
17.5489
17.5494
17.5499
17.5503
17.5507
17.5511
17.5514
17.5517
17.552
17.5523
17.5525
17.5528
17.553
17.5532
17.5533
17.5535
17.5536
17.5538
17.5539
17.554
17.554
17.5541
17.5542
17.5542
17.5542
17.5542
17.5542
17.5542
17.5542
17.5542
17.5541
17.554
17.554
17.5539
17.5538
17.5536
17.5535
17.5533
17.5532
17.553
17.5528
17.5525
17.5523
17.552
17.5517
17.5514
17.5511
17.5507
17.5503
17.5499
17.5494
17.5489
17.5484
17.5479
17.5474
17.5471
18.1056
18.106
18.1065
18.107
18.1075
18.108
18.1084
18.1088
18.1092
18.1096
18.11
18.1103
18.1106
18.1108
18.1111
18.1113
18.1115
18.1117
18.1119
18.112
18.1122
18.1123
18.1124
18.1125
18.1126
18.1126
18.1127
18.1127
18.1127
18.1128
18.1128
18.1127
18.1127
18.1127
18.1126
18.1126
18.1125
18.1124
18.1123
18.1122
18.112
18.1119
18.1117
18.1115
18.1113
18.1111
18.1108
18.1106
18.1103
18.11
18.1096
18.1092
18.1088
18.1084
18.108
18.1075
18.107
18.1065
18.106
18.1056
18.6512
18.6516
18.652
18.6525
18.653
18.6535
18.6539
18.6544
18.6547
18.6551
18.6554
18.6558
18.6561
18.6563
18.6566
18.6568
18.657
18.6572
18.6574
18.6575
18.6576
18.6578
18.6579
18.658
18.658
18.6581
18.6582
18.6582
18.6582
18.6582
18.6582
18.6582
18.6582
18.6582
18.6581
18.658
18.658
18.6579
18.6578
18.6576
18.6575
18.6574
18.6572
18.657
18.6568
18.6566
18.6563
18.6561
18.6558
18.6554
18.6551
18.6547
18.6544
18.6539
18.6535
18.653
18.6525
18.652
18.6516
18.6512
19.1799
19.1803
19.1808
19.1813
19.1817
19.1822
19.1826
19.183
19.1834
19.1838
19.1841
19.1844
19.1847
19.185
19.1852
19.1854
19.1856
19.1858
19.186
19.1861
19.1863
19.1864
19.1865
19.1866
19.1866
19.1867
19.1868
19.1868
19.1868
19.1868
19.1868
19.1868
19.1868
19.1868
19.1867
19.1866
19.1866
19.1865
19.1864
19.1863
19.1861
19.186
19.1858
19.1856
19.1854
19.1852
19.185
19.1847
19.1844
19.1841
19.1838
19.1834
19.183
19.1826
19.1822
19.1817
19.1813
19.1808
19.1803
19.1799
19.6874
19.6878
19.6882
19.6887
19.6892
19.6896
19.69
19.6904
19.6908
19.6911
19.6914
19.6917
19.692
19.6923
19.6925
19.6927
19.6929
19.6931
19.6933
19.6934
19.6935
19.6936
19.6937
19.6938
19.6939
19.694
19.694
19.694
19.6941
19.6941
19.6941
19.6941
19.694
19.694
19.694
19.6939
19.6938
19.6937
19.6936
19.6935
19.6934
19.6933
19.6931
19.6929
19.6927
19.6925
19.6923
19.692
19.6917
19.6914
19.6911
19.6908
19.6904
19.69
19.6896
19.6892
19.6887
19.6882
19.6878
19.6874
20.1684
20.1687
20.1691
20.1696
20.17
20.1704
20.1708
20.1712
20.1715
20.1719
20.1722
20.1724
20.1727
20.173
20.1732
20.1734
20.1736
20.1737
20.1739
20.174
20.1741
20.1743
20.1744
20.1744
20.1745
20.1746
20.1746
20.1746
20.1747
20.1747
20.1747
20.1747
20.1746
20.1746
20.1746
20.1745
20.1744
20.1744
20.1743
20.1741
20.174
20.1739
20.1737
20.1736
20.1734
20.1732
20.173
20.1727
20.1724
20.1722
20.1719
20.1715
20.1712
20.1708
20.1704
20.17
20.1696
20.1691
20.1687
20.1684
20.6166
20.6169
20.6173
20.6177
20.6181
20.6185
20.6189
20.6192
20.6195
20.6198
20.6201
20.6204
20.6206
20.6208
20.621
20.6212
20.6214
20.6216
20.6217
20.6218
20.622
20.6221
20.6221
20.6222
20.6223
20.6223
20.6224
20.6224
20.6224
20.6224
20.6224
20.6224
20.6224
20.6224
20.6223
20.6223
20.6222
20.6221
20.6221
20.622
20.6218
20.6217
20.6216
20.6214
20.6212
20.621
20.6208
20.6206
20.6204
20.6201
20.6198
20.6195
20.6192
20.6189
20.6185
20.6181
20.6177
20.6173
20.6169
20.6166
21.0253
21.0256
21.026
21.0263
21.0267
21.027
21.0274
21.0277
21.028
21.0282
21.0285
21.0287
21.0289
21.0291
21.0293
21.0295
21.0297
21.0298
21.0299
21.03
21.0302
21.0302
21.0303
21.0304
21.0305
21.0305
21.0305
21.0306
21.0306
21.0306
21.0306
21.0306
21.0306
21.0305
21.0305
21.0305
21.0304
21.0303
21.0302
21.0302
21.03
21.0299
21.0298
21.0297
21.0295
21.0293
21.0291
21.0289
21.0287
21.0285
21.0282
21.028
21.0277
21.0274
21.027
21.0267
21.0263
21.026
21.0256
21.0253
21.3879
21.3881
21.3884
21.3887
21.389
21.3893
21.3896
21.3899
21.3901
21.3904
21.3906
21.3908
21.391
21.3912
21.3913
21.3915
21.3916
21.3917
21.3919
21.392
21.3921
21.3921
21.3922
21.3923
21.3923
21.3924
21.3924
21.3924
21.3925
21.3925
21.3925
21.3925
21.3924
21.3924
21.3924
21.3923
21.3923
21.3922
21.3921
21.3921
21.392
21.3919
21.3917
21.3916
21.3915
21.3913
21.3912
21.391
21.3908
21.3906
21.3904
21.3901
21.3899
21.3896
21.3893
21.389
21.3887
21.3884
21.3881
21.3879
21.699
21.6992
21.6995
21.6997
21.7
21.7002
21.7005
21.7007
21.7009
21.7011
21.7013
21.7014
21.7016
21.7017
21.7019
21.702
21.7021
21.7022
21.7023
21.7024
21.7025
21.7026
21.7026
21.7027
21.7027
21.7028
21.7028
21.7028
21.7028
21.7029
21.7029
21.7028
21.7028
21.7028
21.7028
21.7027
21.7027
21.7026
21.7026
21.7025
21.7024
21.7023
21.7022
21.7021
21.702
21.7019
21.7017
21.7016
21.7014
21.7013
21.7011
21.7009
21.7007
21.7005
21.7002
21.7
21.6997
21.6995
21.6992
21.699
21.9569
21.957
21.9572
21.9574
21.9576
21.9578
21.958
21.9582
21.9583
21.9585
21.9586
21.9588
21.9589
21.959
21.9591
21.9592
21.9593
21.9594
21.9595
21.9596
21.9596
21.9597
21.9598
21.9598
21.9598
21.9599
21.9599
21.9599
21.9599
21.9599
21.9599
21.9599
21.9599
21.9599
21.9599
21.9598
21.9598
21.9598
21.9597
21.9596
21.9596
21.9595
21.9594
21.9593
21.9592
21.9591
21.959
21.9589
21.9588
21.9586
21.9585
21.9583
21.9582
21.958
21.9578
21.9576
21.9574
21.9572
21.957
21.9569
22.164
22.1641
22.1643
22.1644
22.1646
22.1647
22.1648
22.165
22.1651
22.1652
22.1653
22.1654
22.1655
22.1656
22.1657
22.1658
22.1659
22.1659
22.166
22.1661
22.1661
22.1662
22.1662
22.1662
22.1663
22.1663
22.1663
22.1663
22.1663
22.1664
22.1664
22.1663
22.1663
22.1663
22.1663
22.1663
22.1662
22.1662
22.1662
22.1661
22.1661
22.166
22.1659
22.1659
22.1658
22.1657
22.1656
22.1655
22.1654
22.1653
22.1652
22.1651
22.165
22.1648
22.1647
22.1646
22.1644
22.1643
22.1641
22.164
22.3271
22.3271
22.3272
22.3273
22.3274
22.3275
22.3276
22.3277
22.3278
22.3279
22.328
22.328
22.3281
22.3282
22.3283
22.3283
22.3284
22.3285
22.3285
22.3286
22.3286
22.3286
22.3287
22.3287
22.3287
22.3288
22.3288
22.3288
22.3288
22.3288
22.3288
22.3288
22.3288
22.3288
22.3288
22.3287
22.3287
22.3287
22.3286
22.3286
22.3286
22.3285
22.3285
22.3284
22.3283
22.3283
22.3282
22.3281
22.328
22.328
22.3279
22.3278
22.3277
22.3276
22.3275
22.3274
22.3273
22.3272
22.3271
22.3271
22.4549
22.4549
22.455
22.4551
22.4551
22.4552
22.4553
22.4553
22.4554
22.4554
22.4555
22.4556
22.4556
22.4557
22.4557
22.4558
22.4558
22.4559
22.4559
22.456
22.456
22.456
22.4561
22.4561
22.4561
22.4561
22.4562
22.4562
22.4562
22.4562
22.4562
22.4562
22.4562
22.4562
22.4561
22.4561
22.4561
22.4561
22.456
22.456
22.456
22.4559
22.4559
22.4558
22.4558
22.4557
22.4557
22.4556
22.4556
22.4555
22.4554
22.4554
22.4553
22.4553
22.4552
22.4551
22.4551
22.455
22.4549
22.4549
22.5563
22.5563
22.5564
22.5564
22.5565
22.5565
22.5565
22.5566
22.5566
22.5567
22.5567
22.5568
22.5568
22.5569
22.5569
22.5569
22.557
22.557
22.5571
22.5571
22.5571
22.5572
22.5572
22.5572
22.5572
22.5572
22.5573
22.5573
22.5573
22.5573
22.5573
22.5573
22.5573
22.5573
22.5572
22.5572
22.5572
22.5572
22.5572
22.5571
22.5571
22.5571
22.557
22.557
22.5569
22.5569
22.5569
22.5568
22.5568
22.5567
22.5567
22.5566
22.5566
22.5565
22.5565
22.5565
22.5564
22.5564
22.5563
22.5563
22.6386
22.6386
22.6386
22.6387
22.6387
22.6387
22.6387
22.6388
22.6388
22.6388
22.6389
22.6389
22.6389
22.639
22.639
22.639
22.6391
22.6391
22.6392
22.6392
22.6392
22.6392
22.6393
22.6393
22.6393
22.6393
22.6393
22.6393
22.6393
22.6393
22.6393
22.6393
22.6393
22.6393
22.6393
22.6393
22.6393
22.6393
22.6392
22.6392
22.6392
22.6392
22.6391
22.6391
22.639
22.639
22.639
22.6389
22.6389
22.6389
22.6388
22.6388
22.6388
22.6387
22.6387
22.6387
22.6387
22.6386
22.6386
22.6386
22.7071
22.7071
22.7071
22.7071
22.7071
22.7071
22.7072
22.7072
22.7072
22.7072
22.7072
22.7073
22.7073
22.7073
22.7074
22.7074
22.7074
22.7075
22.7075
22.7075
22.7076
22.7076
22.7076
22.7076
22.7076
22.7077
22.7077
22.7077
22.7077
22.7077
22.7077
22.7077
22.7077
22.7077
22.7077
22.7076
22.7076
22.7076
22.7076
22.7076
22.7075
22.7075
22.7075
22.7074
22.7074
22.7074
22.7073
22.7073
22.7073
22.7072
22.7072
22.7072
22.7072
22.7072
22.7071
22.7071
22.7071
22.7071
22.7071
22.7071
22.7654
22.7654
22.7654
22.7654
22.7654
22.7654
22.7654
22.7654
22.7654
22.7655
22.7655
22.7655
22.7655
22.7656
22.7656
22.7656
22.7657
22.7657
22.7657
22.7657
22.7658
22.7658
22.7658
22.7658
22.7658
22.7659
22.7659
22.7659
22.7659
22.7659
22.7659
22.7659
22.7659
22.7659
22.7659
22.7658
22.7658
22.7658
22.7658
22.7658
22.7657
22.7657
22.7657
22.7657
22.7656
22.7656
22.7656
22.7655
22.7655
22.7655
22.7655
22.7654
22.7654
22.7654
22.7654
22.7654
22.7654
22.7654
22.7654
22.7654
22.8159
22.8159
22.8159
22.8159
22.8159
22.8159
22.8159
22.8159
22.8159
22.8159
22.816
22.816
22.816
22.816
22.8161
22.8161
22.8161
22.8161
22.8162
22.8162
22.8162
22.8163
22.8163
22.8163
22.8163
22.8163
22.8163
22.8163
22.8163
22.8163
22.8163
22.8163
22.8163
22.8163
22.8163
22.8163
22.8163
22.8163
22.8163
22.8162
22.8162
22.8162
22.8161
22.8161
22.8161
22.8161
22.816
22.816
22.816
22.816
22.8159
22.8159
22.8159
22.8159
22.8159
22.8159
22.8159
22.8159
22.8159
22.8159
22.8603
22.8603
22.8603
22.8603
22.8603
22.8602
22.8602
22.8602
22.8602
22.8603
22.8603
22.8603
22.8603
22.8603
22.8604
22.8604
22.8604
22.8605
22.8605
22.8605
22.8605
22.8606
22.8606
22.8606
22.8606
22.8606
22.8606
22.8607
22.8607
22.8607
22.8607
22.8607
22.8607
22.8606
22.8606
22.8606
22.8606
22.8606
22.8606
22.8605
22.8605
22.8605
22.8605
22.8604
22.8604
22.8604
22.8603
22.8603
22.8603
22.8603
22.8603
22.8602
22.8602
22.8602
22.8602
22.8603
22.8603
22.8603
22.8603
22.8603
22.8996
22.8996
22.8996
22.8996
22.8996
22.8995
22.8995
22.8995
22.8995
22.8995
22.8996
22.8996
22.8996
22.8996
22.8997
22.8997
22.8997
22.8997
22.8998
22.8998
22.8998
22.8998
22.8999
22.8999
22.8999
22.8999
22.8999
22.8999
22.8999
22.8999
22.8999
22.8999
22.8999
22.8999
22.8999
22.8999
22.8999
22.8999
22.8998
22.8998
22.8998
22.8998
22.8997
22.8997
22.8997
22.8997
22.8996
22.8996
22.8996
22.8996
22.8995
22.8995
22.8995
22.8995
22.8995
22.8996
22.8996
22.8996
22.8996
22.8996
22.9347
22.9347
22.9347
22.9346
22.9346
22.9346
22.9346
22.9346
22.9346
22.9346
22.9346
22.9346
22.9346
22.9347
22.9347
22.9347
22.9348
22.9348
22.9348
22.9348
22.9349
22.9349
22.9349
22.9349
22.935
22.935
22.935
22.935
22.935
22.935
22.935
22.935
22.935
22.935
22.935
22.935
22.9349
22.9349
22.9349
22.9349
22.9348
22.9348
22.9348
22.9348
22.9347
22.9347
22.9347
22.9346
22.9346
22.9346
22.9346
22.9346
22.9346
22.9346
22.9346
22.9346
22.9346
22.9347
22.9347
22.9347
22.9661
22.9661
22.9661
22.9661
22.966
22.966
22.966
22.966
22.966
22.966
22.966
22.966
22.9661
22.9661
22.9661
22.9661
22.9662
22.9662
22.9662
22.9663
22.9663
22.9663
22.9663
22.9663
22.9664
22.9664
22.9664
22.9664
22.9664
22.9664
22.9664
22.9664
22.9664
22.9664
22.9664
22.9664
22.9663
22.9663
22.9663
22.9663
22.9663
22.9662
22.9662
22.9662
22.9661
22.9661
22.9661
22.9661
22.966
22.966
22.966
22.966
22.966
22.966
22.966
22.966
22.9661
22.9661
22.9661
22.9661
22.9944
22.9943
22.9943
22.9943
22.9943
22.9942
22.9942
22.9942
22.9942
22.9942
22.9942
22.9943
22.9943
22.9943
22.9943
22.9944
22.9944
22.9944
22.9945
22.9945
22.9945
22.9945
22.9946
22.9946
22.9946
22.9946
22.9946
22.9946
22.9946
22.9946
22.9946
22.9946
22.9946
22.9946
22.9946
22.9946
22.9946
22.9946
22.9945
22.9945
22.9945
22.9945
22.9944
22.9944
22.9944
22.9943
22.9943
22.9943
22.9943
22.9942
22.9942
22.9942
22.9942
22.9942
22.9942
22.9943
22.9943
22.9943
22.9943
22.9944
23.0198
23.0198
23.0197
23.0197
23.0197
23.0196
23.0196
23.0196
23.0196
23.0196
23.0196
23.0197
23.0197
23.0197
23.0197
23.0198
23.0198
23.0198
23.0199
23.0199
23.0199
23.02
23.02
23.02
23.02
23.02
23.02
23.0201
23.0201
23.0201
23.0201
23.0201
23.0201
23.02
23.02
23.02
23.02
23.02
23.02
23.0199
23.0199
23.0199
23.0198
23.0198
23.0198
23.0197
23.0197
23.0197
23.0197
23.0196
23.0196
23.0196
23.0196
23.0196
23.0196
23.0197
23.0197
23.0197
23.0198
23.0198
23.0427
23.0426
23.0426
23.0426
23.0425
23.0425
23.0425
23.0425
23.0425
23.0425
23.0425
23.0425
23.0426
23.0426
23.0426
23.0426
23.0427
23.0427
23.0427
23.0428
23.0428
23.0428
23.0429
23.0429
23.0429
23.0429
23.0429
23.0429
23.0429
23.0429
23.0429
23.0429
23.0429
23.0429
23.0429
23.0429
23.0429
23.0429
23.0428
23.0428
23.0428
23.0427
23.0427
23.0427
23.0426
23.0426
23.0426
23.0426
23.0425
23.0425
23.0425
23.0425
23.0425
23.0425
23.0425
23.0425
23.0426
23.0426
23.0426
23.0427
23.0632
23.0632
23.0632
23.0631
23.0631
23.0631
23.0631
23.0631
23.0631
23.0631
23.0631
23.0631
23.0631
23.0631
23.0632
23.0632
23.0633
23.0633
23.0633
23.0634
23.0634
23.0634
23.0634
23.0635
23.0635
23.0635
23.0635
23.0635
23.0635
23.0635
23.0635
23.0635
23.0635
23.0635
23.0635
23.0635
23.0635
23.0634
23.0634
23.0634
23.0634
23.0633
23.0633
23.0633
23.0632
23.0632
23.0631
23.0631
23.0631
23.0631
23.0631
23.0631
23.0631
23.0631
23.0631
23.0631
23.0631
23.0632
23.0632
23.0632
23.0817
23.0817
23.0816
23.0816
23.0816
23.0815
23.0815
23.0815
23.0815
23.0815
23.0815
23.0815
23.0816
23.0816
23.0816
23.0817
23.0817
23.0817
23.0818