/*--------------------------------*- C++ -*----------------------------------*\
| =========                 |                                                 |
| \\      /  F ield         | foam-extend: Open Source CFD                    |
|  \\    /   O peration     | Version:     4.0                                |
|   \\  /    A nd           | Web:         http://www.foam-extend.org         |
|    \\/     M anipulation  |                                                 |
\*---------------------------------------------------------------------------*/
FoamFile
{
    version     2.0;
    format      ascii;
    class       volScalarField;
    location    "1630";
    object      cMinus;
}
// * * * * * * * * * * * * * * * * * * * * * * * * * * * * * * * * * * * * * //

dimensions      [0 0 0 0 0 0 0];

internalField   nonuniform List<scalar> 
6960
(
-2.02426e-21
-1.97459e-21
-1.97143e-21
-1.97137e-21
-1.97147e-21
-1.97157e-21
-1.97167e-21
-1.97176e-21
-1.97182e-21
-1.97187e-21
-1.97189e-21
-1.97188e-21
-1.97186e-21
-1.97182e-21
-1.97176e-21
-1.97169e-21
-1.97161e-21
-1.97153e-21
-1.97144e-21
-1.97135e-21
-1.97127e-21
-1.97119e-21
-1.97111e-21
-1.97104e-21
-1.97098e-21
-1.97093e-21
-1.97089e-21
-1.97086e-21
-1.97083e-21
-1.97082e-21
-1.97082e-21
-1.97083e-21
-1.97086e-21
-1.97089e-21
-1.97093e-21
-1.97098e-21
-1.97104e-21
-1.97111e-21
-1.97119e-21
-1.97127e-21
-1.97135e-21
-1.97144e-21
-1.97153e-21
-1.97161e-21
-1.97169e-21
-1.97176e-21
-1.97182e-21
-1.97186e-21
-1.97188e-21
-1.97189e-21
-1.97187e-21
-1.97182e-21
-1.97176e-21
-1.97167e-21
-1.97157e-21
-1.97147e-21
-1.97137e-21
-1.97143e-21
-1.97459e-21
-2.02426e-21
-2.55337e-21
-2.49075e-21
-2.48679e-21
-2.48672e-21
-2.48685e-21
-2.48699e-21
-2.48712e-21
-2.48723e-21
-2.48732e-21
-2.48738e-21
-2.48741e-21
-2.48742e-21
-2.48739e-21
-2.48735e-21
-2.48728e-21
-2.4872e-21
-2.48711e-21
-2.48701e-21
-2.48691e-21
-2.4868e-21
-2.4867e-21
-2.4866e-21
-2.48651e-21
-2.48643e-21
-2.48635e-21
-2.48629e-21
-2.48624e-21
-2.4862e-21
-2.48617e-21
-2.48616e-21
-2.48616e-21
-2.48617e-21
-2.4862e-21
-2.48624e-21
-2.48629e-21
-2.48635e-21
-2.48643e-21
-2.48651e-21
-2.4866e-21
-2.4867e-21
-2.4868e-21
-2.48691e-21
-2.48701e-21
-2.48711e-21
-2.4872e-21
-2.48728e-21
-2.48735e-21
-2.48739e-21
-2.48742e-21
-2.48741e-21
-2.48738e-21
-2.48732e-21
-2.48723e-21
-2.48712e-21
-2.48699e-21
-2.48685e-21
-2.48672e-21
-2.48679e-21
-2.49075e-21
-2.55337e-21
-4.65993e-21
-4.54608e-21
-4.53893e-21
-4.5388e-21
-4.53904e-21
-4.53929e-21
-4.53954e-21
-4.53974e-21
-4.53991e-21
-4.54003e-21
-4.54009e-21
-4.5401e-21
-4.54006e-21
-4.53998e-21
-4.53986e-21
-4.53972e-21
-4.53955e-21
-4.53937e-21
-4.53919e-21
-4.539e-21
-4.53881e-21
-4.53863e-21
-4.53847e-21
-4.53832e-21
-4.53818e-21
-4.53807e-21
-4.53798e-21
-4.53791e-21
-4.53786e-21
-4.53783e-21
-4.53784e-21
-4.53786e-21
-4.53791e-21
-4.53798e-21
-4.53807e-21
-4.53818e-21
-4.53832e-21
-4.53847e-21
-4.53863e-21
-4.53881e-21
-4.539e-21
-4.53919e-21
-4.53937e-21
-4.53955e-21
-4.53972e-21
-4.53986e-21
-4.53998e-21
-4.54006e-21
-4.5401e-21
-4.54009e-21
-4.54003e-21
-4.53991e-21
-4.53974e-21
-4.53954e-21
-4.53929e-21
-4.53904e-21
-4.5388e-21
-4.53893e-21
-4.54608e-21
-4.65993e-21
-9.28034e-21
-9.05459e-21
-9.04047e-21
-9.04022e-21
-9.04069e-21
-9.04121e-21
-9.04169e-21
-9.0421e-21
-9.04243e-21
-9.04266e-21
-9.04278e-21
-9.0428e-21
-9.04272e-21
-9.04256e-21
-9.04233e-21
-9.04204e-21
-9.0417e-21
-9.04134e-21
-9.04097e-21
-9.04059e-21
-9.04022e-21
-9.03986e-21
-9.03953e-21
-9.03923e-21
-9.03896e-21
-9.03873e-21
-9.03855e-21
-9.03841e-21
-9.03831e-21
-9.03826e-21
-9.03826e-21
-9.03831e-21
-9.03841e-21
-9.03855e-21
-9.03873e-21
-9.03896e-21
-9.03923e-21
-9.03953e-21
-9.03986e-21
-9.04022e-21
-9.04059e-21
-9.04097e-21
-9.04134e-21
-9.0417e-21
-9.04204e-21
-9.04233e-21
-9.04256e-21
-9.04272e-21
-9.0428e-21
-9.04278e-21
-9.04266e-21
-9.04243e-21
-9.0421e-21
-9.04169e-21
-9.04121e-21
-9.04069e-21
-9.04022e-21
-9.04047e-21
-9.05459e-21
-9.28034e-21
-1.8579e-20
-1.8129e-20
-1.8101e-20
-1.81005e-20
-1.81015e-20
-1.81025e-20
-1.81035e-20
-1.81043e-20
-1.81049e-20
-1.81054e-20
-1.81056e-20
-1.81057e-20
-1.81055e-20
-1.81052e-20
-1.81047e-20
-1.81041e-20
-1.81034e-20
-1.81027e-20
-1.81019e-20
-1.81012e-20
-1.81004e-20
-1.80997e-20
-1.8099e-20
-1.80984e-20
-1.80979e-20
-1.80974e-20
-1.8097e-20
-1.80968e-20
-1.80966e-20
-1.80965e-20
-1.80965e-20
-1.80966e-20
-1.80968e-20
-1.8097e-20
-1.80974e-20
-1.80979e-20
-1.80984e-20
-1.8099e-20
-1.80997e-20
-1.81004e-20
-1.81012e-20
-1.81019e-20
-1.81027e-20
-1.81034e-20
-1.81041e-20
-1.81047e-20
-1.81052e-20
-1.81055e-20
-1.81057e-20
-1.81056e-20
-1.81054e-20
-1.81049e-20
-1.81043e-20
-1.81035e-20
-1.81025e-20
-1.81015e-20
-1.81005e-20
-1.8101e-20
-1.8129e-20
-1.8579e-20
-3.69245e-20
-3.60341e-20
-3.59789e-20
-3.5978e-20
-3.59799e-20
-3.59819e-20
-3.59838e-20
-3.59854e-20
-3.59867e-20
-3.59876e-20
-3.59881e-20
-3.59881e-20
-3.59878e-20
-3.59871e-20
-3.59861e-20
-3.59849e-20
-3.59836e-20
-3.59821e-20
-3.59806e-20
-3.59791e-20
-3.59776e-20
-3.59761e-20
-3.59748e-20
-3.59736e-20
-3.59725e-20
-3.59716e-20
-3.59708e-20
-3.59702e-20
-3.59698e-20
-3.59696e-20
-3.59696e-20
-3.59698e-20
-3.59702e-20
-3.59708e-20
-3.59716e-20
-3.59725e-20
-3.59736e-20
-3.59748e-20
-3.59761e-20
-3.59776e-20
-3.59791e-20
-3.59806e-20
-3.59821e-20
-3.59836e-20
-3.59849e-20
-3.59861e-20
-3.59871e-20
-3.59878e-20
-3.59881e-20
-3.59881e-20
-3.59876e-20
-3.59867e-20
-3.59854e-20
-3.59838e-20
-3.59819e-20
-3.59799e-20
-3.5978e-20
-3.59789e-20
-3.60341e-20
-3.69245e-20
-7.29314e-20
-7.11802e-20
-7.10723e-20
-7.10706e-20
-7.10743e-20
-7.10783e-20
-7.10821e-20
-7.10853e-20
-7.10878e-20
-7.10895e-20
-7.10904e-20
-7.10905e-20
-7.10898e-20
-7.10884e-20
-7.10865e-20
-7.10841e-20
-7.10814e-20
-7.10785e-20
-7.10754e-20
-7.10724e-20
-7.10694e-20
-7.10665e-20
-7.10638e-20
-7.10614e-20
-7.10592e-20
-7.10574e-20
-7.10559e-20
-7.10548e-20
-7.1054e-20
-7.10536e-20
-7.10536e-20
-7.1054e-20
-7.10548e-20
-7.10559e-20
-7.10574e-20
-7.10592e-20
-7.10614e-20
-7.10638e-20
-7.10665e-20
-7.10694e-20
-7.10724e-20
-7.10754e-20
-7.10785e-20
-7.10814e-20
-7.10841e-20
-7.10865e-20
-7.10884e-20
-7.10898e-20
-7.10905e-20
-7.10904e-20
-7.10895e-20
-7.10878e-20
-7.10853e-20
-7.10821e-20
-7.10783e-20
-7.10743e-20
-7.10706e-20
-7.10723e-20
-7.11802e-20
-7.29314e-20
-1.43488e-19
-1.40057e-19
-1.39847e-19
-1.39844e-19
-1.39851e-19
-1.39859e-19
-1.39866e-19
-1.39873e-19
-1.39878e-19
-1.39881e-19
-1.39883e-19
-1.39883e-19
-1.39881e-19
-1.39879e-19
-1.39875e-19
-1.3987e-19
-1.39865e-19
-1.39859e-19
-1.39853e-19
-1.39847e-19
-1.39841e-19
-1.39835e-19
-1.3983e-19
-1.39825e-19
-1.39821e-19
-1.39817e-19
-1.39814e-19
-1.39812e-19
-1.3981e-19
-1.3981e-19
-1.3981e-19
-1.3981e-19
-1.39812e-19
-1.39814e-19
-1.39817e-19
-1.39821e-19
-1.39825e-19
-1.3983e-19
-1.39835e-19
-1.39841e-19
-1.39847e-19
-1.39853e-19
-1.39859e-19
-1.39865e-19
-1.3987e-19
-1.39875e-19
-1.39879e-19
-1.39881e-19
-1.39883e-19
-1.39883e-19
-1.39881e-19
-1.39878e-19
-1.39873e-19
-1.39866e-19
-1.39859e-19
-1.39851e-19
-1.39844e-19
-1.39847e-19
-1.40057e-19
-1.43488e-19
-2.8162e-19
-2.74913e-19
-2.74505e-19
-2.74499e-19
-2.74513e-19
-2.74529e-19
-2.74543e-19
-2.74555e-19
-2.74565e-19
-2.74572e-19
-2.74575e-19
-2.74575e-19
-2.74572e-19
-2.74567e-19
-2.74559e-19
-2.74549e-19
-2.74539e-19
-2.74527e-19
-2.74515e-19
-2.74503e-19
-2.74492e-19
-2.7448e-19
-2.7447e-19
-2.7446e-19
-2.74452e-19
-2.74445e-19
-2.74439e-19
-2.74434e-19
-2.74431e-19
-2.7443e-19
-2.7443e-19
-2.74431e-19
-2.74434e-19
-2.74439e-19
-2.74445e-19
-2.74452e-19
-2.7446e-19
-2.7447e-19
-2.7448e-19
-2.74492e-19
-2.74503e-19
-2.74515e-19
-2.74527e-19
-2.74539e-19
-2.74549e-19
-2.74559e-19
-2.74567e-19
-2.74572e-19
-2.74575e-19
-2.74575e-19
-2.74572e-19
-2.74565e-19
-2.74555e-19
-2.74543e-19
-2.74529e-19
-2.74513e-19
-2.74499e-19
-2.74505e-19
-2.74913e-19
-2.8162e-19
-5.5176e-19
-5.38664e-19
-5.37872e-19
-5.37861e-19
-5.37889e-19
-5.3792e-19
-5.37948e-19
-5.37972e-19
-5.37991e-19
-5.38004e-19
-5.3801e-19
-5.3801e-19
-5.38004e-19
-5.37993e-19
-5.37978e-19
-5.37959e-19
-5.37938e-19
-5.37915e-19
-5.37892e-19
-5.37868e-19
-5.37845e-19
-5.37822e-19
-5.37802e-19
-5.37783e-19
-5.37766e-19
-5.37752e-19
-5.3774e-19
-5.37732e-19
-5.37726e-19
-5.37723e-19
-5.37723e-19
-5.37726e-19
-5.37732e-19
-5.3774e-19
-5.37752e-19
-5.37766e-19
-5.37783e-19
-5.37802e-19
-5.37822e-19
-5.37845e-19
-5.37868e-19
-5.37892e-19
-5.37915e-19
-5.37938e-19
-5.37959e-19
-5.37978e-19
-5.37993e-19
-5.38004e-19
-5.3801e-19
-5.3801e-19
-5.38004e-19
-5.37991e-19
-5.37972e-19
-5.37948e-19
-5.3792e-19
-5.37889e-19
-5.37861e-19
-5.37872e-19
-5.38664e-19
-5.5176e-19
-1.07923e-18
-1.05367e-18
-1.05214e-18
-1.05212e-18
-1.05218e-18
-1.05224e-18
-1.05229e-18
-1.05234e-18
-1.05238e-18
-1.0524e-18
-1.05241e-18
-1.05241e-18
-1.0524e-18
-1.05238e-18
-1.05235e-18
-1.05231e-18
-1.05227e-18
-1.05223e-18
-1.05218e-18
-1.05213e-18
-1.05209e-18
-1.05204e-18
-1.052e-18
-1.05196e-18
-1.05193e-18
-1.0519e-18
-1.05188e-18
-1.05186e-18
-1.05185e-18
-1.05184e-18
-1.05184e-18
-1.05185e-18
-1.05186e-18
-1.05188e-18
-1.0519e-18
-1.05193e-18
-1.05196e-18
-1.052e-18
-1.05204e-18
-1.05209e-18
-1.05213e-18
-1.05218e-18
-1.05223e-18
-1.05227e-18
-1.05231e-18
-1.05235e-18
-1.05238e-18
-1.0524e-18
-1.05241e-18
-1.05241e-18
-1.0524e-18
-1.05238e-18
-1.05234e-18
-1.05229e-18
-1.05224e-18
-1.05218e-18
-1.05212e-18
-1.05214e-18
-1.05367e-18
-1.07923e-18
-2.10665e-18
-2.05681e-18
-2.05384e-18
-2.05381e-18
-2.05392e-18
-2.05403e-18
-2.05414e-18
-2.05423e-18
-2.05431e-18
-2.05436e-18
-2.05438e-18
-2.05438e-18
-2.05435e-18
-2.05431e-18
-2.05425e-18
-2.05418e-18
-2.05409e-18
-2.05401e-18
-2.05391e-18
-2.05382e-18
-2.05373e-18
-2.05364e-18
-2.05356e-18
-2.05349e-18
-2.05342e-18
-2.05337e-18
-2.05332e-18
-2.05329e-18
-2.05327e-18
-2.05326e-18
-2.05326e-18
-2.05327e-18
-2.05329e-18
-2.05332e-18
-2.05337e-18
-2.05342e-18
-2.05349e-18
-2.05356e-18
-2.05364e-18
-2.05373e-18
-2.05382e-18
-2.05391e-18
-2.05401e-18
-2.05409e-18
-2.05418e-18
-2.05425e-18
-2.05431e-18
-2.05435e-18
-2.05438e-18
-2.05438e-18
-2.05436e-18
-2.05431e-18
-2.05423e-18
-2.05414e-18
-2.05403e-18
-2.05392e-18
-2.05381e-18
-2.05384e-18
-2.05681e-18
-2.10665e-18
-4.10036e-18
-4.0032e-18
-3.99746e-18
-3.9974e-18
-3.99761e-18
-3.99784e-18
-3.99805e-18
-3.99824e-18
-3.99838e-18
-3.99847e-18
-3.99852e-18
-3.99851e-18
-3.99847e-18
-3.99838e-18
-3.99826e-18
-3.99812e-18
-3.99795e-18
-3.99778e-18
-3.9976e-18
-3.99741e-18
-3.99723e-18
-3.99706e-18
-3.9969e-18
-3.99676e-18
-3.99663e-18
-3.99652e-18
-3.99643e-18
-3.99637e-18
-3.99632e-18
-3.9963e-18
-3.9963e-18
-3.99632e-18
-3.99637e-18
-3.99643e-18
-3.99652e-18
-3.99663e-18
-3.99676e-18
-3.9969e-18
-3.99706e-18
-3.99723e-18
-3.99741e-18
-3.9976e-18
-3.99778e-18
-3.99795e-18
-3.99812e-18
-3.99826e-18
-3.99838e-18
-3.99847e-18
-3.99851e-18
-3.99852e-18
-3.99847e-18
-3.99838e-18
-3.99824e-18
-3.99805e-18
-3.99784e-18
-3.99761e-18
-3.9974e-18
-3.99746e-18
-4.0032e-18
-4.10036e-18
-7.9464e-18
-7.75704e-18
-7.74596e-18
-7.74584e-18
-7.74627e-18
-7.74672e-18
-7.74714e-18
-7.74749e-18
-7.74777e-18
-7.74796e-18
-7.74804e-18
-7.74804e-18
-7.74794e-18
-7.74777e-18
-7.74754e-18
-7.74725e-18
-7.74693e-18
-7.74658e-18
-7.74622e-18
-7.74586e-18
-7.74551e-18
-7.74517e-18
-7.74485e-18
-7.74457e-18
-7.74432e-18
-7.7441e-18
-7.74393e-18
-7.74379e-18
-7.7437e-18
-7.74366e-18
-7.74366e-18
-7.7437e-18
-7.74379e-18
-7.74393e-18
-7.7441e-18
-7.74432e-18
-7.74457e-18
-7.74485e-18
-7.74517e-18
-7.74551e-18
-7.74586e-18
-7.74622e-18
-7.74658e-18
-7.74693e-18
-7.74725e-18
-7.74754e-18
-7.74777e-18
-7.74794e-18
-7.74804e-18
-7.74804e-18
-7.74796e-18
-7.74777e-18
-7.74749e-18
-7.74714e-18
-7.74672e-18
-7.74627e-18
-7.74584e-18
-7.74596e-18
-7.75704e-18
-7.9464e-18
-1.52961e-17
-1.49272e-17
-1.49058e-17
-1.49056e-17
-1.49064e-17
-1.49073e-17
-1.49081e-17
-1.49088e-17
-1.49094e-17
-1.49097e-17
-1.49099e-17
-1.49099e-17
-1.49097e-17
-1.49094e-17
-1.49089e-17
-1.49083e-17
-1.49077e-17
-1.4907e-17
-1.49063e-17
-1.49056e-17
-1.49049e-17
-1.49042e-17
-1.49036e-17
-1.4903e-17
-1.49025e-17
-1.49021e-17
-1.49018e-17
-1.49015e-17
-1.49013e-17
-1.49012e-17
-1.49012e-17
-1.49013e-17
-1.49015e-17
-1.49018e-17
-1.49021e-17
-1.49025e-17
-1.4903e-17
-1.49036e-17
-1.49042e-17
-1.49049e-17
-1.49056e-17
-1.49063e-17
-1.4907e-17
-1.49077e-17
-1.49083e-17
-1.49089e-17
-1.49094e-17
-1.49097e-17
-1.49099e-17
-1.49099e-17
-1.49097e-17
-1.49094e-17
-1.49088e-17
-1.49081e-17
-1.49073e-17
-1.49064e-17
-1.49056e-17
-1.49058e-17
-1.49272e-17
-1.52961e-17
-2.91245e-17
-2.8406e-17
-2.83649e-17
-2.83645e-17
-2.83662e-17
-2.83679e-17
-2.83695e-17
-2.83709e-17
-2.8372e-17
-2.83727e-17
-2.8373e-17
-2.8373e-17
-2.83726e-17
-2.83719e-17
-2.8371e-17
-2.83699e-17
-2.83686e-17
-2.83673e-17
-2.83659e-17
-2.83644e-17
-2.83631e-17
-2.83618e-17
-2.83605e-17
-2.83594e-17
-2.83584e-17
-2.83576e-17
-2.83569e-17
-2.83564e-17
-2.8356e-17
-2.83559e-17
-2.83559e-17
-2.8356e-17
-2.83564e-17
-2.83569e-17
-2.83576e-17
-2.83584e-17
-2.83594e-17
-2.83605e-17
-2.83618e-17
-2.83631e-17
-2.83644e-17
-2.83659e-17
-2.83673e-17
-2.83686e-17
-2.83699e-17
-2.8371e-17
-2.83719e-17
-2.83726e-17
-2.8373e-17
-2.8373e-17
-2.83727e-17
-2.8372e-17
-2.83709e-17
-2.83695e-17
-2.83679e-17
-2.83662e-17
-2.83645e-17
-2.83649e-17
-2.8406e-17
-2.91245e-17
-5.44543e-17
-5.30558e-17
-5.29765e-17
-5.29759e-17
-5.29792e-17
-5.29826e-17
-5.29858e-17
-5.29885e-17
-5.29906e-17
-5.2992e-17
-5.29926e-17
-5.29925e-17
-5.29918e-17
-5.29904e-17
-5.29886e-17
-5.29864e-17
-5.29839e-17
-5.29812e-17
-5.29785e-17
-5.29757e-17
-5.2973e-17
-5.29704e-17
-5.29679e-17
-5.29657e-17
-5.29638e-17
-5.29621e-17
-5.29608e-17
-5.29598e-17
-5.29591e-17
-5.29587e-17
-5.29587e-17
-5.29591e-17
-5.29598e-17
-5.29608e-17
-5.29621e-17
-5.29638e-17
-5.29657e-17
-5.29679e-17
-5.29704e-17
-5.2973e-17
-5.29757e-17
-5.29785e-17
-5.29812e-17
-5.29839e-17
-5.29864e-17
-5.29886e-17
-5.29904e-17
-5.29918e-17
-5.29925e-17
-5.29926e-17
-5.2992e-17
-5.29906e-17
-5.29885e-17
-5.29858e-17
-5.29826e-17
-5.29792e-17
-5.29759e-17
-5.29765e-17
-5.30558e-17
-5.44543e-17
-9.86018e-17
-9.58805e-17
-9.57281e-17
-9.57271e-17
-9.57335e-17
-9.57403e-17
-9.57465e-17
-9.57519e-17
-9.5756e-17
-9.57587e-17
-9.576e-17
-9.57598e-17
-9.57583e-17
-9.57556e-17
-9.5752e-17
-9.57477e-17
-9.57427e-17
-9.57374e-17
-9.57319e-17
-9.57264e-17
-9.57211e-17
-9.57159e-17
-9.57111e-17
-9.57068e-17
-9.5703e-17
-9.56997e-17
-9.5697e-17
-9.5695e-17
-9.56936e-17
-9.56929e-17
-9.56929e-17
-9.56936e-17
-9.5695e-17
-9.5697e-17
-9.56997e-17
-9.5703e-17
-9.57068e-17
-9.57111e-17
-9.57159e-17
-9.57211e-17
-9.57264e-17
-9.57319e-17
-9.57374e-17
-9.57427e-17
-9.57477e-17
-9.5752e-17
-9.57556e-17
-9.57583e-17
-9.57598e-17
-9.576e-17
-9.57587e-17
-9.5756e-17
-9.57519e-17
-9.57465e-17
-9.57403e-17
-9.57335e-17
-9.57271e-17
-9.57281e-17
-9.58805e-17
-9.86018e-17
-1.67896e-16
-1.62603e-16
-1.6231e-16
-1.62309e-16
-1.62322e-16
-1.62335e-16
-1.62347e-16
-1.62358e-16
-1.62366e-16
-1.62371e-16
-1.62374e-16
-1.62373e-16
-1.6237e-16
-1.62365e-16
-1.62358e-16
-1.62349e-16
-1.62339e-16
-1.62329e-16
-1.62318e-16
-1.62307e-16
-1.62297e-16
-1.62286e-16
-1.62277e-16
-1.62268e-16
-1.62261e-16
-1.62254e-16
-1.62249e-16
-1.62245e-16
-1.62242e-16
-1.62241e-16
-1.62241e-16
-1.62242e-16
-1.62245e-16
-1.62249e-16
-1.62254e-16
-1.62261e-16
-1.62268e-16
-1.62277e-16
-1.62286e-16
-1.62297e-16
-1.62307e-16
-1.62318e-16
-1.62329e-16
-1.62339e-16
-1.62349e-16
-1.62358e-16
-1.62365e-16
-1.6237e-16
-1.62373e-16
-1.62374e-16
-1.62371e-16
-1.62366e-16
-1.62358e-16
-1.62347e-16
-1.62335e-16
-1.62322e-16
-1.62309e-16
-1.6231e-16
-1.62603e-16
-1.67896e-16
-2.48988e-16
-2.387e-16
-2.38139e-16
-2.38137e-16
-2.38162e-16
-2.38188e-16
-2.38212e-16
-2.38233e-16
-2.38248e-16
-2.38259e-16
-2.38263e-16
-2.38263e-16
-2.38257e-16
-2.38246e-16
-2.38232e-16
-2.38215e-16
-2.38196e-16
-2.38175e-16
-2.38153e-16
-2.38132e-16
-2.38111e-16
-2.38091e-16
-2.38072e-16
-2.38055e-16
-2.3804e-16
-2.38027e-16
-2.38017e-16
-2.38009e-16
-2.38004e-16
-2.38001e-16
-2.38001e-16
-2.38004e-16
-2.38009e-16
-2.38017e-16
-2.38027e-16
-2.3804e-16
-2.38055e-16
-2.38072e-16
-2.38091e-16
-2.38111e-16
-2.38132e-16
-2.38153e-16
-2.38175e-16
-2.38196e-16
-2.38215e-16
-2.38232e-16
-2.38246e-16
-2.38257e-16
-2.38263e-16
-2.38263e-16
-2.38259e-16
-2.38248e-16
-2.38233e-16
-2.38212e-16
-2.38188e-16
-2.38162e-16
-2.38137e-16
-2.38139e-16
-2.387e-16
-2.48988e-16
-2.31646e-16
-2.11659e-16
-2.10585e-16
-2.10582e-16
-2.10631e-16
-2.10682e-16
-2.1073e-16
-2.1077e-16
-2.10801e-16
-2.10822e-16
-2.10831e-16
-2.10829e-16
-2.10817e-16
-2.10796e-16
-2.10768e-16
-2.10734e-16
-2.10695e-16
-2.10654e-16
-2.10612e-16
-2.10569e-16
-2.10528e-16
-2.10488e-16
-2.10451e-16
-2.10417e-16
-2.10388e-16
-2.10362e-16
-2.10342e-16
-2.10326e-16
-2.10315e-16
-2.1031e-16
-2.1031e-16
-2.10315e-16
-2.10326e-16
-2.10342e-16
-2.10362e-16
-2.10388e-16
-2.10417e-16
-2.10451e-16
-2.10488e-16
-2.10528e-16
-2.10569e-16
-2.10612e-16
-2.10654e-16
-2.10695e-16
-2.10734e-16
-2.10768e-16
-2.10796e-16
-2.10817e-16
-2.10829e-16
-2.10831e-16
-2.10822e-16
-2.10801e-16
-2.1077e-16
-2.1073e-16
-2.10682e-16
-2.10631e-16
-2.10582e-16
-2.10585e-16
-2.11659e-16
-2.31646e-16
3.79039e-16
4.17841e-16
4.19895e-16
4.19897e-16
4.19802e-16
4.19702e-16
4.19609e-16
4.19529e-16
4.19469e-16
4.19429e-16
4.19412e-16
4.19416e-16
4.1944e-16
4.19482e-16
4.19538e-16
4.19606e-16
4.19682e-16
4.19764e-16
4.19848e-16
4.19933e-16
4.20015e-16
4.20094e-16
4.20167e-16
4.20234e-16
4.20293e-16
4.20343e-16
4.20383e-16
4.20414e-16
4.20435e-16
4.20446e-16
4.20446e-16
4.20435e-16
4.20414e-16
4.20383e-16
4.20343e-16
4.20293e-16
4.20234e-16
4.20167e-16
4.20094e-16
4.20015e-16
4.19933e-16
4.19848e-16
4.19764e-16
4.19682e-16
4.19606e-16
4.19538e-16
4.19482e-16
4.1944e-16
4.19416e-16
4.19412e-16
4.19429e-16
4.19469e-16
4.19529e-16
4.19609e-16
4.19702e-16
4.19802e-16
4.19897e-16
4.19895e-16
4.17841e-16
3.79039e-16
3.49297e-15
3.56824e-15
3.57216e-15
3.57216e-15
3.57198e-15
3.57178e-15
3.5716e-15
3.57145e-15
3.57133e-15
3.57125e-15
3.57122e-15
3.57123e-15
3.57128e-15
3.57136e-15
3.57148e-15
3.57161e-15
3.57176e-15
3.57193e-15
3.57209e-15
3.57226e-15
3.57243e-15
3.57258e-15
3.57273e-15
3.57286e-15
3.57298e-15
3.57308e-15
3.57316e-15
3.57322e-15
3.57326e-15
3.57328e-15
3.57328e-15
3.57326e-15
3.57322e-15
3.57316e-15
3.57308e-15
3.57298e-15
3.57286e-15
3.57273e-15
3.57258e-15
3.57243e-15
3.57226e-15
3.57209e-15
3.57193e-15
3.57176e-15
3.57161e-15
3.57148e-15
3.57136e-15
3.57128e-15
3.57123e-15
3.57122e-15
3.57125e-15
3.57133e-15
3.57145e-15
3.5716e-15
3.57178e-15
3.57198e-15
3.57216e-15
3.57216e-15
3.56824e-15
3.49297e-15
1.6072e-14
1.62179e-14
1.62254e-14
1.62254e-14
1.6225e-14
1.62247e-14
1.62243e-14
1.6224e-14
1.62238e-14
1.62237e-14
1.62236e-14
1.62236e-14
1.62237e-14
1.62239e-14
1.62241e-14
1.62244e-14
1.62247e-14
1.6225e-14
1.62254e-14
1.62257e-14
1.6226e-14
1.62263e-14
1.62266e-14
1.62269e-14
1.62271e-14
1.62273e-14
1.62275e-14
1.62276e-14
1.62277e-14
1.62277e-14
1.62277e-14
1.62277e-14
1.62276e-14
1.62275e-14
1.62273e-14
1.62271e-14
1.62269e-14
1.62266e-14
1.62263e-14
1.6226e-14
1.62257e-14
1.62254e-14
1.6225e-14
1.62247e-14
1.62244e-14
1.62241e-14
1.62239e-14
1.62237e-14
1.62236e-14
1.62236e-14
1.62237e-14
1.62238e-14
1.6224e-14
1.62243e-14
1.62247e-14
1.6225e-14
1.62254e-14
1.62254e-14
1.62179e-14
1.6072e-14
6.29522e-14
6.32348e-14
6.32491e-14
6.32491e-14
6.32484e-14
6.32477e-14
6.32471e-14
6.32465e-14
6.32461e-14
6.32459e-14
6.32458e-14
6.32459e-14
6.32461e-14
6.32464e-14
6.32469e-14
6.32474e-14
6.3248e-14
6.32487e-14
6.32494e-14
6.325e-14
6.32507e-14
6.32513e-14
6.32519e-14
6.32524e-14
6.32529e-14
6.32533e-14
6.32536e-14
6.32538e-14
6.3254e-14
6.32541e-14
6.32541e-14
6.3254e-14
6.32538e-14
6.32536e-14
6.32533e-14
6.32529e-14
6.32524e-14
6.32519e-14
6.32513e-14
6.32507e-14
6.325e-14
6.32494e-14
6.32487e-14
6.3248e-14
6.32474e-14
6.32469e-14
6.32464e-14
6.32461e-14
6.32459e-14
6.32458e-14
6.32459e-14
6.32461e-14
6.32465e-14
6.32471e-14
6.32477e-14
6.32484e-14
6.32491e-14
6.32491e-14
6.32348e-14
6.29522e-14
2.32285e-13
2.32832e-13
2.32859e-13
2.32859e-13
2.32858e-13
2.32857e-13
2.32856e-13
2.32855e-13
2.32854e-13
2.32854e-13
2.32854e-13
2.32854e-13
2.32854e-13
2.32855e-13
2.32856e-13
2.32857e-13
2.32858e-13
2.3286e-13
2.32861e-13
2.32862e-13
2.32864e-13
2.32865e-13
2.32866e-13
2.32867e-13
2.32868e-13
2.32869e-13
2.3287e-13
2.3287e-13
2.3287e-13
2.3287e-13
2.3287e-13
2.3287e-13
2.3287e-13
2.3287e-13
2.32869e-13
2.32868e-13
2.32867e-13
2.32866e-13
2.32865e-13
2.32864e-13
2.32862e-13
2.32861e-13
2.3286e-13
2.32858e-13
2.32857e-13
2.32856e-13
2.32855e-13
2.32854e-13
2.32854e-13
2.32854e-13
2.32854e-13
2.32854e-13
2.32855e-13
2.32856e-13
2.32857e-13
2.32858e-13
2.32859e-13
2.32859e-13
2.32832e-13
2.32285e-13
8.37907e-13
8.38964e-13
8.39016e-13
8.39017e-13
8.39015e-13
8.39013e-13
8.39011e-13
8.3901e-13
8.39009e-13
8.39009e-13
8.39009e-13
8.39009e-13
8.39011e-13
8.39012e-13
8.39014e-13
8.39017e-13
8.39019e-13
8.39022e-13
8.39025e-13
8.39028e-13
8.3903e-13
8.39033e-13
8.39035e-13
8.39037e-13
8.39039e-13
8.39041e-13
8.39042e-13
8.39043e-13
8.39044e-13
8.39044e-13
8.39044e-13
8.39044e-13
8.39043e-13
8.39042e-13
8.39041e-13
8.39039e-13
8.39037e-13
8.39035e-13
8.39033e-13
8.3903e-13
8.39028e-13
8.39025e-13
8.39022e-13
8.39019e-13
8.39017e-13
8.39014e-13
8.39012e-13
8.39011e-13
8.39009e-13
8.39009e-13
8.39009e-13
8.39009e-13
8.3901e-13
8.39011e-13
8.39013e-13
8.39015e-13
8.39017e-13
8.39016e-13
8.38964e-13
8.37907e-13
3.00477e-12
3.00681e-12
3.00692e-12
3.00692e-12
3.00692e-12
3.00692e-12
3.00691e-12
3.00691e-12
3.00691e-12
3.00691e-12
3.00691e-12
3.00692e-12
3.00692e-12
3.00692e-12
3.00693e-12
3.00693e-12
3.00694e-12
3.00695e-12
3.00695e-12
3.00696e-12
3.00696e-12
3.00697e-12
3.00697e-12
3.00698e-12
3.00698e-12
3.00698e-12
3.00699e-12
3.00699e-12
3.00699e-12
3.00699e-12
3.00699e-12
3.00699e-12
3.00699e-12
3.00699e-12
3.00698e-12
3.00698e-12
3.00698e-12
3.00697e-12
3.00697e-12
3.00696e-12
3.00696e-12
3.00695e-12
3.00695e-12
3.00694e-12
3.00693e-12
3.00693e-12
3.00692e-12
3.00692e-12
3.00692e-12
3.00691e-12
3.00691e-12
3.00691e-12
3.00691e-12
3.00691e-12
3.00692e-12
3.00692e-12
3.00692e-12
3.00692e-12
3.00681e-12
3.00477e-12
1.07976e-11
1.08015e-11
1.08017e-11
1.08017e-11
1.08017e-11
1.08017e-11
1.08017e-11
1.08017e-11
1.08018e-11
1.08018e-11
1.08018e-11
1.08018e-11
1.08018e-11
1.08018e-11
1.08018e-11
1.08018e-11
1.08018e-11
1.08018e-11
1.08019e-11
1.08019e-11
1.08019e-11
1.08019e-11
1.08019e-11
1.08019e-11
1.08019e-11
1.08019e-11
1.08019e-11
1.08019e-11
1.08019e-11
1.08019e-11
1.08019e-11
1.08019e-11
1.08019e-11
1.08019e-11
1.08019e-11
1.08019e-11
1.08019e-11
1.08019e-11
1.08019e-11
1.08019e-11
1.08019e-11
1.08019e-11
1.08018e-11
1.08018e-11
1.08018e-11
1.08018e-11
1.08018e-11
1.08018e-11
1.08018e-11
1.08018e-11
1.08018e-11
1.08018e-11
1.08017e-11
1.08017e-11
1.08017e-11
1.08017e-11
1.08017e-11
1.08017e-11
1.08015e-11
1.07976e-11
3.90121e-11
3.90197e-11
3.90201e-11
3.90202e-11
3.90202e-11
3.90202e-11
3.90203e-11
3.90203e-11
3.90203e-11
3.90204e-11
3.90204e-11
3.90204e-11
3.90205e-11
3.90205e-11
3.90205e-11
3.90205e-11
3.90206e-11
3.90206e-11
3.90206e-11
3.90207e-11
3.90207e-11
3.90207e-11
3.90207e-11
3.90208e-11
3.90208e-11
3.90208e-11
3.90208e-11
3.90208e-11
3.90208e-11
3.90208e-11
3.90208e-11
3.90208e-11
3.90208e-11
3.90208e-11
3.90208e-11
3.90208e-11
3.90208e-11
3.90207e-11
3.90207e-11
3.90207e-11
3.90207e-11
3.90206e-11
3.90206e-11
3.90206e-11
3.90205e-11
3.90205e-11
3.90205e-11
3.90205e-11
3.90204e-11
3.90204e-11
3.90204e-11
3.90203e-11
3.90203e-11
3.90203e-11
3.90202e-11
3.90202e-11
3.90202e-11
3.90201e-11
3.90197e-11
3.90121e-11
1.41809e-10
1.41824e-10
1.41825e-10
1.41825e-10
1.41825e-10
1.41825e-10
1.41826e-10
1.41826e-10
1.41826e-10
1.41826e-10
1.41826e-10
1.41826e-10
1.41826e-10
1.41827e-10
1.41827e-10
1.41827e-10
1.41827e-10
1.41827e-10
1.41827e-10
1.41827e-10
1.41827e-10
1.41827e-10
1.41827e-10
1.41827e-10
1.41827e-10
1.41827e-10
1.41827e-10
1.41827e-10
1.41827e-10
1.41827e-10
1.41827e-10
1.41827e-10
1.41827e-10
1.41827e-10
1.41827e-10
1.41827e-10
1.41827e-10
1.41827e-10
1.41827e-10
1.41827e-10
1.41827e-10
1.41827e-10
1.41827e-10
1.41827e-10
1.41827e-10
1.41827e-10
1.41827e-10
1.41826e-10
1.41826e-10
1.41826e-10
1.41826e-10
1.41826e-10
1.41826e-10
1.41826e-10
1.41825e-10
1.41825e-10
1.41825e-10
1.41825e-10
1.41824e-10
1.41809e-10
5.18015e-10
5.18043e-10
5.18046e-10
5.18047e-10
5.18047e-10
5.18048e-10
5.18049e-10
5.1805e-10
5.1805e-10
5.18051e-10
5.18051e-10
5.18051e-10
5.18052e-10
5.18052e-10
5.18053e-10
5.18053e-10
5.18053e-10
5.18053e-10
5.18054e-10
5.18054e-10
5.18054e-10
5.18054e-10
5.18054e-10
5.18054e-10
5.18054e-10
5.18054e-10
5.18055e-10
5.18055e-10
5.18055e-10
5.18055e-10
5.18055e-10
5.18055e-10
5.18055e-10
5.18055e-10
5.18054e-10
5.18054e-10
5.18054e-10
5.18054e-10
5.18054e-10
5.18054e-10
5.18054e-10
5.18054e-10
5.18053e-10
5.18053e-10
5.18053e-10
5.18053e-10
5.18052e-10
5.18052e-10
5.18051e-10
5.18051e-10
5.18051e-10
5.1805e-10
5.1805e-10
5.18049e-10
5.18048e-10
5.18047e-10
5.18047e-10
5.18046e-10
5.18043e-10
5.18015e-10
1.89695e-09
1.897e-09
1.89701e-09
1.89701e-09
1.89702e-09
1.89702e-09
1.89702e-09
1.89703e-09
1.89703e-09
1.89703e-09
1.89703e-09
1.89703e-09
1.89704e-09
1.89704e-09
1.89704e-09
1.89704e-09
1.89704e-09
1.89704e-09
1.89704e-09
1.89704e-09
1.89704e-09
1.89704e-09
1.89704e-09
1.89704e-09
1.89704e-09
1.89704e-09
1.89704e-09
1.89704e-09
1.89704e-09
1.89704e-09
1.89704e-09
1.89704e-09
1.89704e-09
1.89704e-09
1.89704e-09
1.89704e-09
1.89704e-09
1.89704e-09
1.89704e-09
1.89704e-09
1.89704e-09
1.89704e-09
1.89704e-09
1.89704e-09
1.89704e-09
1.89704e-09
1.89704e-09
1.89704e-09
1.89703e-09
1.89703e-09
1.89703e-09
1.89703e-09
1.89703e-09
1.89702e-09
1.89702e-09
1.89702e-09
1.89701e-09
1.89701e-09
1.897e-09
1.89695e-09
6.93984e-09
6.93996e-09
6.93997e-09
6.93999e-09
6.94e-09
6.94001e-09
6.94002e-09
6.94003e-09
6.94004e-09
6.94005e-09
6.94006e-09
6.94006e-09
6.94007e-09
6.94007e-09
6.94008e-09
6.94008e-09
6.94008e-09
6.94008e-09
6.94009e-09
6.94009e-09
6.94009e-09
6.94009e-09
6.94009e-09
6.94009e-09
6.94009e-09
6.9401e-09
6.9401e-09
6.9401e-09
6.9401e-09
6.9401e-09
6.9401e-09
6.9401e-09
6.9401e-09
6.9401e-09
6.9401e-09
6.94009e-09
6.94009e-09
6.94009e-09
6.94009e-09
6.94009e-09
6.94009e-09
6.94009e-09
6.94008e-09
6.94008e-09
6.94008e-09
6.94008e-09
6.94007e-09
6.94007e-09
6.94006e-09
6.94006e-09
6.94005e-09
6.94004e-09
6.94003e-09
6.94002e-09
6.94001e-09
6.94e-09
6.93999e-09
6.93997e-09
6.93996e-09
6.93984e-09
2.5255e-08
2.52552e-08
2.52553e-08
2.52554e-08
2.52554e-08
2.52555e-08
2.52555e-08
2.52555e-08
2.52556e-08
2.52556e-08
2.52556e-08
2.52556e-08
2.52557e-08
2.52557e-08
2.52557e-08
2.52557e-08
2.52557e-08
2.52557e-08
2.52557e-08
2.52557e-08
2.52557e-08
2.52557e-08
2.52557e-08
2.52558e-08
2.52558e-08
2.52558e-08
2.52558e-08
2.52558e-08
2.52558e-08
2.52558e-08
2.52558e-08
2.52558e-08
2.52558e-08
2.52558e-08
2.52558e-08
2.52558e-08
2.52558e-08
2.52557e-08
2.52557e-08
2.52557e-08
2.52557e-08
2.52557e-08
2.52557e-08
2.52557e-08
2.52557e-08
2.52557e-08
2.52557e-08
2.52557e-08
2.52556e-08
2.52556e-08
2.52556e-08
2.52556e-08
2.52555e-08
2.52555e-08
2.52555e-08
2.52554e-08
2.52554e-08
2.52553e-08
2.52552e-08
2.5255e-08
9.09519e-08
9.09525e-08
9.09527e-08
9.09529e-08
9.09531e-08
9.09532e-08
9.09534e-08
9.09535e-08
9.09536e-08
9.09537e-08
9.09538e-08
9.09539e-08
9.09539e-08
9.0954e-08
9.09541e-08
9.09541e-08
9.09541e-08
9.09542e-08
9.09542e-08
9.09542e-08
9.09542e-08
9.09542e-08
9.09543e-08
9.09543e-08
9.09543e-08
9.09543e-08
9.09543e-08
9.09543e-08
9.09543e-08
9.09543e-08
9.09543e-08
9.09543e-08
9.09543e-08
9.09543e-08
9.09543e-08
9.09543e-08
9.09543e-08
9.09543e-08
9.09542e-08
9.09542e-08
9.09542e-08
9.09542e-08
9.09542e-08
9.09541e-08
9.09541e-08
9.09541e-08
9.0954e-08
9.09539e-08
9.09539e-08
9.09538e-08
9.09537e-08
9.09536e-08
9.09535e-08
9.09534e-08
9.09532e-08
9.09531e-08
9.09529e-08
9.09527e-08
9.09525e-08
9.09519e-08
3.22212e-07
3.22213e-07
3.22214e-07
3.22215e-07
3.22216e-07
3.22216e-07
3.22217e-07
3.22217e-07
3.22218e-07
3.22218e-07
3.22218e-07
3.22219e-07
3.22219e-07
3.22219e-07
3.22219e-07
3.22219e-07
3.22219e-07
3.2222e-07
3.2222e-07
3.2222e-07
3.2222e-07
3.2222e-07
3.2222e-07
3.2222e-07
3.2222e-07
3.2222e-07
3.2222e-07
3.2222e-07
3.2222e-07
3.2222e-07
3.2222e-07
3.2222e-07
3.2222e-07
3.2222e-07
3.2222e-07
3.2222e-07
3.2222e-07
3.2222e-07
3.2222e-07
3.2222e-07
3.2222e-07
3.2222e-07
3.2222e-07
3.22219e-07
3.22219e-07
3.22219e-07
3.22219e-07
3.22219e-07
3.22219e-07
3.22218e-07
3.22218e-07
3.22218e-07
3.22217e-07
3.22217e-07
3.22216e-07
3.22216e-07
3.22215e-07
3.22214e-07
3.22213e-07
3.22212e-07
1.11521e-06
1.11521e-06
1.11521e-06
1.11522e-06
1.11522e-06
1.11522e-06
1.11522e-06
1.11522e-06
1.11523e-06
1.11523e-06
1.11523e-06
1.11523e-06
1.11523e-06
1.11523e-06
1.11523e-06
1.11523e-06
1.11523e-06
1.11523e-06
1.11523e-06
1.11523e-06
1.11523e-06
1.11523e-06
1.11523e-06
1.11523e-06
1.11523e-06
1.11523e-06
1.11523e-06
1.11523e-06
1.11523e-06
1.11523e-06
1.11523e-06
1.11523e-06
1.11523e-06
1.11523e-06
1.11523e-06
1.11523e-06
1.11523e-06
1.11523e-06
1.11523e-06
1.11523e-06
1.11523e-06
1.11523e-06
1.11523e-06
1.11523e-06
1.11523e-06
1.11523e-06
1.11523e-06
1.11523e-06
1.11523e-06
1.11523e-06
1.11523e-06
1.11523e-06
1.11522e-06
1.11522e-06
1.11522e-06
1.11522e-06
1.11522e-06
1.11521e-06
1.11521e-06
1.11521e-06
3.74162e-06
3.74163e-06
3.74164e-06
3.74165e-06
3.74165e-06
3.74166e-06
3.74167e-06
3.74167e-06
3.74168e-06
3.74168e-06
3.74168e-06
3.74169e-06
3.74169e-06
3.74169e-06
3.74169e-06
3.7417e-06
3.7417e-06
3.7417e-06
3.7417e-06
3.7417e-06
3.7417e-06
3.7417e-06
3.7417e-06
3.7417e-06
3.7417e-06
3.7417e-06
3.7417e-06
3.7417e-06
3.7417e-06
3.7417e-06
3.7417e-06
3.7417e-06
3.7417e-06
3.7417e-06
3.7417e-06
3.7417e-06
3.7417e-06
3.7417e-06
3.7417e-06
3.7417e-06
3.7417e-06
3.7417e-06
3.7417e-06
3.7417e-06
3.7417e-06
3.74169e-06
3.74169e-06
3.74169e-06
3.74169e-06
3.74168e-06
3.74168e-06
3.74168e-06
3.74167e-06
3.74167e-06
3.74166e-06
3.74165e-06
3.74165e-06
3.74164e-06
3.74163e-06
3.74162e-06
1.20617e-05
1.20618e-05
1.20618e-05
1.20618e-05
1.20618e-05