/*--------------------------------*- C++ -*----------------------------------*\
| =========                 |                                                 |
| \\      /  F ield         | foam-extend: Open Source CFD                    |
|  \\    /   O peration     | Version:     4.0                                |
|   \\  /    A nd           | Web:         http://www.foam-extend.org         |
|    \\/     M anipulation  |                                                 |
\*---------------------------------------------------------------------------*/
FoamFile
{
    version     2.0;
    format      ascii;
    class       volScalarField;
    location    "1050";
    object      psiE;
}
// * * * * * * * * * * * * * * * * * * * * * * * * * * * * * * * * * * * * * //

dimensions      [0 0 0 0 0 0 0];

internalField   nonuniform List<scalar> 
6960
(
0.36522
0.365238
0.365257
0.365273
0.365286
0.365296
0.365304
0.365311
0.365315
0.365319
0.365322
0.365324
0.365325
0.365327
0.365328
0.365329
0.365329
0.36533
0.36533
0.365331
0.365331
0.365331
0.365331
0.365332
0.365332
0.365332
0.365332
0.365332
0.365332
0.365332
0.365332
0.365332
0.365332
0.365332
0.365332
0.365332
0.365332
0.365331
0.365331
0.365331
0.365331
0.36533
0.36533
0.365329
0.365329
0.365328
0.365327
0.365325
0.365324
0.365322
0.365319
0.365315
0.365311
0.365304
0.365296
0.365286
0.365273
0.365257
0.365238
0.36522
0.958795
0.958868
0.958945
0.95901
0.959063
0.959104
0.959136
0.959161
0.95918
0.959194
0.959205
0.959213
0.95922
0.959225
0.959229
0.959232
0.959234
0.959236
0.959238
0.959239
0.95924
0.959241
0.959242
0.959243
0.959243
0.959244
0.959244
0.959244
0.959244
0.959244
0.959244
0.959244
0.959244
0.959244
0.959244
0.959243
0.959243
0.959242
0.959241
0.95924
0.959239
0.959238
0.959236
0.959234
0.959232
0.959229
0.959225
0.95922
0.959213
0.959205
0.959194
0.95918
0.959161
0.959136
0.959104
0.959063
0.95901
0.958945
0.958868
0.958795
1.52713
1.52727
1.52741
1.52754
1.52764
1.52772
1.52778
1.52783
1.52786
1.52789
1.52791
1.52793
1.52794
1.52795
1.52795
1.52796
1.52797
1.52797
1.52797
1.52797
1.52798
1.52798
1.52798
1.52798
1.52798
1.52798
1.52798
1.52798
1.52798
1.52798
1.52798
1.52798
1.52798
1.52798
1.52798
1.52798
1.52798
1.52798
1.52798
1.52798
1.52797
1.52797
1.52797
1.52797
1.52796
1.52795
1.52795
1.52794
1.52793
1.52791
1.52789
1.52786
1.52783
1.52778
1.52772
1.52764
1.52754
1.52741
1.52727
1.52713
2.09596
2.09617
2.09639
2.09658
2.09674
2.09686
2.09695
2.09702
2.09708
2.09712
2.09715
2.09717
2.09719
2.0972
2.09722
2.09722
2.09723
2.09724
2.09724
2.09725
2.09725
2.09725
2.09725
2.09725
2.09726
2.09726
2.09726
2.09726
2.09726
2.09726
2.09726
2.09726
2.09726
2.09726
2.09726
2.09726
2.09725
2.09725
2.09725
2.09725
2.09725
2.09724
2.09724
2.09723
2.09722
2.09722
2.0972
2.09719
2.09717
2.09715
2.09712
2.09708
2.09702
2.09695
2.09686
2.09674
2.09658
2.09639
2.09617
2.09596
2.67255
2.67284
2.67313
2.67339
2.6736
2.67376
2.67389
2.67399
2.67406
2.67412
2.67416
2.67419
2.67422
2.67424
2.67425
2.67426
2.67427
2.67428
2.67428
2.67429
2.67429
2.6743
2.6743
2.6743
2.6743
2.67431
2.67431
2.67431
2.67431
2.67431
2.67431
2.67431
2.67431
2.67431
2.67431
2.6743
2.6743
2.6743
2.6743
2.67429
2.67429
2.67428
2.67428
2.67427
2.67426
2.67425
2.67424
2.67422
2.67419
2.67416
2.67412
2.67406
2.67399
2.67389
2.67376
2.6736
2.67339
2.67313
2.67284
2.67255
3.25887
3.25924
3.25962
3.25994
3.2602
3.26041
3.26057
3.26069
3.26079
3.26086
3.26091
3.26095
3.26098
3.26101
3.26103
3.26104
3.26105
3.26106
3.26107
3.26108
3.26108
3.26109
3.26109
3.26109
3.26109
3.2611
3.2611
3.2611
3.2611
3.2611
3.2611
3.2611
3.2611
3.2611
3.2611
3.26109
3.26109
3.26109
3.26109
3.26108
3.26108
3.26107
3.26106
3.26105
3.26104
3.26103
3.26101
3.26098
3.26095
3.26091
3.26086
3.26079
3.26069
3.26057
3.26041
3.2602
3.25994
3.25962
3.25924
3.25887
3.85536
3.8558
3.85626
3.85665
3.85697
3.85722
3.85741
3.85756
3.85767
3.85776
3.85783
3.85788
3.85791
3.85794
3.85797
3.85798
3.858
3.85801
3.85802
3.85803
3.85803
3.85804
3.85804
3.85804
3.85805
3.85805
3.85805
3.85805
3.85805
3.85805
3.85805
3.85805
3.85805
3.85805
3.85805
3.85805
3.85804
3.85804
3.85804
3.85803
3.85803
3.85802
3.85801
3.858
3.85798
3.85797
3.85794
3.85791
3.85788
3.85783
3.85776
3.85767
3.85756
3.85741
3.85722
3.85697
3.85665
3.85626
3.8558
3.85536
4.46195
4.46246
4.463
4.46346
4.46384
4.46413
4.46436
4.46454
4.46467
4.46477
4.46485
4.4649
4.46495
4.46498
4.46501
4.46503
4.46505
4.46506
4.46507
4.46508
4.46509
4.46509
4.4651
4.4651
4.46511
4.46511
4.46511
4.46511
4.46511
4.46511
4.46511
4.46511
4.46511
4.46511
4.46511
4.46511
4.4651
4.4651
4.46509
4.46509
4.46508
4.46507
4.46506
4.46505
4.46503
4.46501
4.46498
4.46495
4.4649
4.46485
4.46477
4.46467
4.46454
4.46436
4.46413
4.46384
4.46346
4.463
4.46246
4.46195
5.07842
5.07901
5.07963
5.08016
5.08059
5.08093
5.08119
5.08139
5.08155
5.08166
5.08175
5.08182
5.08187
5.08191
5.08194
5.08196
5.08198
5.082
5.08201
5.08202
5.08203
5.08204
5.08204
5.08205
5.08205
5.08205
5.08206
5.08206
5.08206
5.08206
5.08206
5.08206
5.08206
5.08206
5.08205
5.08205
5.08205
5.08204
5.08204
5.08203
5.08202
5.08201
5.082
5.08198
5.08196
5.08194
5.08191
5.08187
5.08182
5.08175
5.08166
5.08155
5.08139
5.08119
5.08093
5.08059
5.08016
5.07963
5.07901
5.07842
5.70447
5.70514
5.70583
5.70643
5.70692
5.7073
5.7076
5.70783
5.708
5.70813
5.70823
5.7083
5.70836
5.70841
5.70844
5.70847
5.70849
5.70851
5.70852
5.70853
5.70854
5.70855
5.70856
5.70856
5.70857
5.70857
5.70857
5.70857
5.70858
5.70858
5.70858
5.70858
5.70857
5.70857
5.70857
5.70857
5.70856
5.70856
5.70855
5.70854
5.70853
5.70852
5.70851
5.70849
5.70847
5.70844
5.70841
5.70836
5.7083
5.70823
5.70813
5.708
5.70783
5.7076
5.7073
5.70692
5.70643
5.70583
5.70514
5.70447
6.33972
6.34046
6.34123
6.3419
6.34244
6.34287
6.3432
6.34345
6.34364
6.34379
6.3439
6.34398
6.34405
6.3441
6.34414
6.34417
6.34419
6.34421
6.34423
6.34424
6.34425
6.34426
6.34427
6.34427
6.34428
6.34428
6.34428
6.34428
6.34429
6.34429
6.34429
6.34429
6.34428
6.34428
6.34428
6.34428
6.34427
6.34427
6.34426
6.34425
6.34424
6.34423
6.34421
6.34419
6.34417
6.34414
6.3441
6.34405
6.34398
6.3439
6.34379
6.34364
6.34345
6.3432
6.34287
6.34244
6.3419
6.34123
6.34046
6.33972
6.9837
6.98452
6.98537
6.98611
6.9867
6.98717
6.98753
6.98781
6.98802
6.98818
6.98831
6.9884
6.98847
6.98853
6.98857
6.9886
6.98863
6.98865
6.98867
6.98868
6.98869
6.9887
6.98871
6.98872
6.98872
6.98873
6.98873
6.98873
6.98873
6.98874
6.98874
6.98873
6.98873
6.98873
6.98873
6.98872
6.98872
6.98871
6.9887
6.98869
6.98868
6.98867
6.98865
6.98863
6.9886
6.98857
6.98853
6.98847
6.9884
6.98831
6.98818
6.98802
6.98781
6.98753
6.98717
6.9867
6.98611
6.98537
6.98452
6.9837
7.6359
7.63679
7.63772
7.63852
7.63917
7.63968
7.64008
7.64038
7.64061
7.64079
7.64092
7.64102
7.6411
7.64116
7.64121
7.64124
7.64127
7.6413
7.64132
7.64133
7.64134
7.64135
7.64136
7.64137
7.64138
7.64138
7.64138
7.64139
7.64139
7.64139
7.64139
7.64139
7.64139
7.64138
7.64138
7.64138
7.64137
7.64136
7.64135
7.64134
7.64133
7.64132
7.6413
7.64127
7.64124
7.64121
7.64116
7.6411
7.64102
7.64092
7.64079
7.64061
7.64038
7.64008
7.63968
7.63917
7.63852
7.63772
7.63679
7.6359
8.29569
8.29665
8.29765
8.29852
8.29922
8.29977
8.3002
8.30053
8.30078
8.30097
8.30111
8.30122
8.30131
8.30137
8.30143
8.30147
8.3015
8.30152
8.30154
8.30156
8.30157
8.30159
8.3016
8.3016
8.30161
8.30161
8.30162
8.30162
8.30162
8.30162
8.30162
8.30162
8.30162
8.30162
8.30161
8.30161
8.3016
8.3016
8.30159
8.30157
8.30156
8.30154
8.30152
8.3015
8.30147
8.30143
8.30137
8.30131
8.30122
8.30111
8.30097
8.30078
8.30053
8.3002
8.29977
8.29922
8.29852
8.29765
8.29665
8.29569
8.96235
8.96337
8.96445
8.96538
8.96613
8.96673
8.96719
8.96754
8.96781
8.96801
8.96817
8.96829
8.96838
8.96845
8.9685
8.96855
8.96858
8.96861
8.96863
8.96865
8.96866
8.96868
8.96869
8.9687
8.9687
8.96871
8.96871
8.96871
8.96872
8.96872
8.96872
8.96872
8.96871
8.96871
8.96871
8.9687
8.9687
8.96869
8.96868
8.96866
8.96865
8.96863
8.96861
8.96858
8.96855
8.9685
8.96845
8.96838
8.96829
8.96817
8.96801
8.96781
8.96754
8.96719
8.96673
8.96613
8.96538
8.96445
8.96337
8.96235
9.63504
9.63613
9.63728
9.63827
9.63907
9.63971
9.6402
9.64057
9.64086
9.64108
9.64124
9.64137
9.64147
9.64154
9.6416
9.64165
9.64168
9.64171
9.64174
9.64176
9.64177
9.64179
9.6418
9.64181
9.64182
9.64182
9.64183
9.64183
9.64183
9.64183
9.64183
9.64183
9.64183
9.64183
9.64182
9.64182
9.64181
9.6418
9.64179
9.64177
9.64176
9.64174
9.64171
9.64168
9.64165
9.6416
9.64154
9.64147
9.64137
9.64124
9.64108
9.64086
9.64057
9.6402
9.63971
9.63907
9.63827
9.63728
9.63613
9.63504
10.3128
10.314
10.3152
10.3162
10.3171
10.3177
10.3183
10.3187
10.319
10.3192
10.3194
10.3195
10.3196
10.3197
10.3198
10.3198
10.3198
10.3199
10.3199
10.3199
10.3199
10.32
10.32
10.32
10.32
10.32
10.32
10.32
10.32
10.32
10.32
10.32
10.32
10.32
10.32
10.32
10.32
10.32
10.32
10.3199
10.3199
10.3199
10.3199
10.3198
10.3198
10.3198
10.3197
10.3196
10.3195
10.3194
10.3192
10.319
10.3187
10.3183
10.3177
10.3171
10.3162
10.3152
10.314
10.3128
10.9945
10.9957
10.997
10.9981
10.999
10.9997
11.0003
11.0007
11.001
11.0013
11.0014
11.0016
11.0017
11.0018
11.0019
11.0019
11.0019
11.002
11.002
11.002
11.002
11.0021
11.0021
11.0021
11.0021
11.0021
11.0021
11.0021
11.0021
11.0021
11.0021
11.0021
11.0021
11.0021
11.0021
11.0021
11.0021
11.0021
11.0021
11.002
11.002
11.002
11.002
11.0019
11.0019
11.0019
11.0018
11.0017
11.0016
11.0014
11.0013
11.001
11.0007
11.0003
10.9997
10.999
10.9981
10.997
10.9957
10.9945
11.6789
11.6802
11.6816
11.6827
11.6836
11.6844
11.685
11.6854
11.6857
11.686
11.6862
11.6863
11.6864
11.6865
11.6866
11.6867
11.6867
11.6867
11.6868
11.6868
11.6868
11.6868
11.6868
11.6869
11.6869
11.6869
11.6869
11.6869
11.6869
11.6869
11.6869
11.6869
11.6869
11.6869
11.6869
11.6869
11.6869
11.6868
11.6868
11.6868
11.6868
11.6868
11.6867
11.6867
11.6867
11.6866
11.6865
11.6864
11.6863
11.6862
11.686
11.6857
11.6854
11.685
11.6844
11.6836
11.6827
11.6816
11.6802
11.6789
12.3645
12.3659
12.3673
12.3685
12.3695
12.3702
12.3708
12.3713
12.3716
12.3719
12.3721
12.3723
12.3724
12.3725
12.3726
12.3726
12.3727
12.3727
12.3727
12.3728
12.3728
12.3728
12.3728
12.3728
12.3728
12.3728
12.3728
12.3728
12.3728
12.3728
12.3728
12.3728
12.3728
12.3728
12.3728
12.3728
12.3728
12.3728
12.3728
12.3728
12.3728
12.3727
12.3727
12.3727
12.3726
12.3726
12.3725
12.3724
12.3723
12.3721
12.3719
12.3716
12.3713
12.3708
12.3702
12.3695
12.3685
12.3673
12.3659
12.3645
13.0497
13.0511
13.0525
13.0538
13.0548
13.0556
13.0562
13.0567
13.057
13.0573
13.0575
13.0577
13.0578
13.0579
13.058
13.058
13.0581
13.0581
13.0582
13.0582
13.0582
13.0582
13.0583
13.0583
13.0583
13.0583
13.0583
13.0583
13.0583
13.0583
13.0583
13.0583
13.0583
13.0583
13.0583
13.0583
13.0583
13.0583
13.0582
13.0582
13.0582
13.0582
13.0581
13.0581
13.058
13.058
13.0579
13.0578
13.0577
13.0575
13.0573
13.057
13.0567
13.0562
13.0556
13.0548
13.0538
13.0525
13.0511
13.0497
13.7324
13.7338
13.7353
13.7366
13.7376
13.7385
13.7391
13.7396
13.74
13.7403
13.7405
13.7406
13.7408
13.7409
13.741
13.741
13.7411
13.7411
13.7411
13.7412
13.7412
13.7412
13.7412
13.7412
13.7413
13.7413
13.7413
13.7413
13.7413
13.7413
13.7413
13.7413
13.7413
13.7413
13.7413
13.7413
13.7412
13.7412
13.7412
13.7412
13.7412
13.7411
13.7411
13.7411
13.741
13.741
13.7409
13.7408
13.7406
13.7405
13.7403
13.74
13.7396
13.7391
13.7385
13.7376
13.7366
13.7353
13.7338
13.7324
14.4104
14.4119
14.4134
14.4147
14.4158
14.4166
14.4173
14.4178
14.4182
14.4185
14.4187
14.4189
14.419
14.4191
14.4192
14.4193
14.4193
14.4194
14.4194
14.4194
14.4194
14.4195
14.4195
14.4195
14.4195
14.4195
14.4195
14.4195
14.4195
14.4195
14.4195
14.4195
14.4195
14.4195
14.4195
14.4195
14.4195
14.4195
14.4195
14.4194
14.4194
14.4194
14.4194
14.4193
14.4193
14.4192
14.4191
14.419
14.4189
14.4187
14.4185
14.4182
14.4178
14.4173
14.4166
14.4158
14.4147
14.4134
14.4119
14.4104
15.0811
15.0826
15.0842
15.0855
15.0866
15.0875
15.0881
15.0887
15.089
15.0893
15.0896
15.0897
15.0899
15.09
15.0901
15.0901
15.0902
15.0902
15.0903
15.0903
15.0903
15.0904
15.0904
15.0904
15.0904
15.0904
15.0904
15.0904
15.0904
15.0904
15.0904
15.0904
15.0904
15.0904
15.0904
15.0904
15.0904
15.0904
15.0904
15.0903
15.0903
15.0903
15.0902
15.0902
15.0901
15.0901
15.09
15.0899
15.0897
15.0896
15.0893
15.089
15.0887
15.0881
15.0875
15.0866
15.0855
15.0842
15.0826
15.0811
15.7415
15.743
15.7446
15.7459
15.747
15.7479
15.7486
15.7491
15.7495
15.7498
15.75
15.7502
15.7503
15.7505
15.7505
15.7506
15.7507
15.7507
15.7508
15.7508
15.7508
15.7508
15.7508
15.7509
15.7509
15.7509
15.7509
15.7509
15.7509
15.7509
15.7509
15.7509
15.7509
15.7509
15.7509
15.7509
15.7509
15.7508
15.7508
15.7508
15.7508
15.7508
15.7507
15.7507
15.7506
15.7505
15.7505
15.7503
15.7502
15.75
15.7498
15.7495
15.7491
15.7486
15.7479
15.747
15.7459
15.7446
15.743
15.7415
16.388
16.3895
16.391
16.3924
16.3935
16.3944
16.395
16.3955
16.3959
16.3963
16.3965
16.3967
16.3968
16.3969
16.397
16.3971
16.3971
16.3972
16.3972
16.3973
16.3973
16.3973
16.3973
16.3973
16.3973
16.3974
16.3974
16.3974
16.3974
16.3974
16.3974
16.3974
16.3974
16.3974
16.3974
16.3973
16.3973
16.3973
16.3973
16.3973
16.3973
16.3972
16.3972
16.3971
16.3971
16.397
16.3969
16.3968
16.3967
16.3965
16.3963
16.3959
16.3955
16.395
16.3944
16.3935
16.3924
16.391
16.3895
16.388
17.0162
17.0178
17.0193
17.0206
17.0217
17.0226
17.0233
17.0238
17.0242
17.0245
17.0247
17.0249
17.025
17.0251
17.0252
17.0253
17.0254
17.0254
17.0254
17.0255
17.0255
17.0255
17.0255
17.0256
17.0256
17.0256
17.0256
17.0256
17.0256
17.0256
17.0256
17.0256
17.0256
17.0256
17.0256
17.0256
17.0256
17.0255
17.0255
17.0255
17.0255
17.0254
17.0254
17.0254
17.0253
17.0252
17.0251
17.025
17.0249
17.0247
17.0245
17.0242
17.0238
17.0233
17.0226
17.0217
17.0206
17.0193
17.0178
17.0162
17.6214
17.6228
17.6244
17.6257
17.6267
17.6276
17.6282
17.6287
17.6291
17.6294
17.6296
17.6298
17.63
17.6301
17.6302
17.6302
17.6303
17.6303
17.6304
17.6304
17.6304
17.6305
17.6305
17.6305
17.6305
17.6305
17.6305
17.6305
17.6305
17.6305
17.6305
17.6305
17.6305
17.6305
17.6305
17.6305
17.6305
17.6305
17.6305
17.6304
17.6304
17.6304
17.6303
17.6303
17.6302
17.6302
17.6301
17.63
17.6298
17.6296
17.6294
17.6291
17.6287
17.6282
17.6276
17.6267
17.6257
17.6244
17.6228
17.6214
18.1973
18.1987
18.2002
18.2014
18.2024
18.2032
18.2039
18.2044
18.2047
18.205
18.2052
18.2054
18.2056
18.2057
18.2058
18.2058
18.2059
18.2059
18.206
18.206
18.206
18.2061
18.2061
18.2061
18.2061
18.2061
18.2061
18.2061
18.2061
18.2061
18.2061
18.2061
18.2061
18.2061
18.2061
18.2061
18.2061
18.2061
18.2061
18.206
18.206
18.206
18.2059
18.2059
18.2058
18.2058
18.2057
18.2056
18.2054
18.2052
18.205
18.2047
18.2044
18.2039
18.2032
18.2024
18.2014
18.2002
18.1987
18.1973
18.7368
18.7381
18.7395
18.7407
18.7416
18.7424
18.743
18.7435
18.7438
18.7441
18.7443
18.7445
18.7446
18.7447
18.7448
18.7449
18.7449
18.745
18.745
18.7451
18.7451
18.7451
18.7451
18.7451
18.7452
18.7452
18.7452
18.7452
18.7452
18.7452
18.7452
18.7452
18.7452
18.7452
18.7452
18.7452
18.7451
18.7451
18.7451
18.7451
18.7451
18.745
18.745
18.7449
18.7449
18.7448
18.7447
18.7446
18.7445
18.7443
18.7441
18.7438
18.7435
18.743
18.7424
18.7416
18.7407
18.7395
18.7381
18.7368
19.2316
19.2328
19.2341
19.2352
19.236
19.2367
19.2373
19.2377
19.238
19.2383
19.2385
19.2386
19.2388
19.2389
19.239
19.239
19.2391
19.2391
19.2392
19.2392
19.2392
19.2393
19.2393
19.2393
19.2393
19.2393
19.2393
19.2393
19.2393
19.2393
19.2393
19.2393
19.2393
19.2393
19.2393
19.2393
19.2393
19.2393
19.2393
19.2392
19.2392
19.2392
19.2391
19.2391
19.239
19.239
19.2389
19.2388
19.2386
19.2385
19.2383
19.238
19.2377
19.2373
19.2367
19.236
19.2352
19.2341
19.2328
19.2316
19.6729
19.674
19.675
19.676
19.6768
19.6774
19.6779
19.6782
19.6785
19.6788
19.679
19.6791
19.6792
19.6793
19.6794
19.6795
19.6795
19.6796
19.6796
19.6796
19.6797
19.6797
19.6797
19.6797
19.6797
19.6798
19.6798
19.6798
19.6798
19.6798
19.6798
19.6798
19.6798
19.6798
19.6798
19.6797
19.6797
19.6797
19.6797
19.6797
19.6796
19.6796
19.6796
19.6795
19.6795
19.6794
19.6793
19.6792
19.6791
19.679
19.6788
19.6785
19.6782
19.6779
19.6774
19.6768
19.676
19.675
19.674
19.6729
20.053
20.0539
20.0548
20.0556
20.0562
20.0567
20.0572
20.0575
20.0577
20.0579
20.0581
20.0582
20.0583
20.0584
20.0585
20.0586
20.0586
20.0587
20.0587
20.0587
20.0588
20.0588
20.0588
20.0588
20.0588
20.0588
20.0589
20.0589
20.0589
20.0589
20.0589
20.0589
20.0589
20.0589
20.0588
20.0588
20.0588
20.0588
20.0588
20.0588
20.0587
20.0587
20.0587
20.0586
20.0586
20.0585
20.0584
20.0583
20.0582
20.0581
20.0579
20.0577
20.0575
20.0572
20.0567
20.0562
20.0556
20.0548
20.0539
20.053
20.3681
20.3688
20.3695
20.3702
20.3707
20.3711
20.3714
20.3717
20.3719
20.3721
20.3722
20.3723
20.3724
20.3725
20.3726
20.3726
20.3727
20.3727
20.3728
20.3728
20.3728
20.3729
20.3729
20.3729
20.3729
20.3729
20.3729
20.3729
20.3729
20.3729
20.3729
20.3729
20.3729
20.3729
20.3729
20.3729
20.3729
20.3729
20.3729
20.3728
20.3728
20.3728
20.3727
20.3727
20.3726
20.3726
20.3725
20.3724
20.3723
20.3722
20.3721
20.3719
20.3717
20.3714
20.3711
20.3707
20.3702
20.3695
20.3688
20.3681
20.6207
20.6212
20.6217
20.6222
20.6226
20.6229
20.6232
20.6234
20.6236
20.6237
20.6238
20.6239
20.624
20.6241
20.6241
20.6242
20.6242
20.6243
20.6243
20.6243
20.6244
20.6244
20.6244
20.6244
20.6244
20.6244
20.6245
20.6245
20.6245
20.6245
20.6245
20.6245
20.6245
20.6245
20.6244
20.6244
20.6244
20.6244
20.6244
20.6244
20.6243
20.6243
20.6243
20.6242
20.6242
20.6241
20.6241
20.624
20.6239
20.6238
20.6237
20.6236
20.6234
20.6232
20.6229
20.6226
20.6222
20.6217
20.6212
20.6207
20.8191
20.8194
20.8198
20.8201
20.8204
20.8207
20.8209
20.821
20.8212
20.8213
20.8214
20.8215
20.8215
20.8216
20.8217
20.8217
20.8217
20.8218
20.8218
20.8219
20.8219
20.8219
20.8219
20.8219
20.822
20.822
20.822
20.822
20.822
20.822
20.822
20.822
20.822
20.822
20.822
20.822
20.8219
20.8219
20.8219
20.8219
20.8219
20.8218
20.8218
20.8217
20.8217
20.8217
20.8216
20.8215
20.8215
20.8214
20.8213
20.8212
20.821
20.8209
20.8207
20.8204
20.8201
20.8198
20.8194
20.8191
20.975
20.9752
20.9755
20.9758
20.976
20.9761
20.9763
20.9764
20.9765
20.9766
20.9767
20.9768
20.9769
20.9769
20.977
20.977
20.9771
20.9771
20.9771
20.9772
20.9772
20.9772
20.9773
20.9773
20.9773
20.9773
20.9773
20.9773
20.9773
20.9773
20.9773
20.9773
20.9773
20.9773
20.9773
20.9773
20.9773
20.9773
20.9772
20.9772
20.9772
20.9771
20.9771
20.9771
20.977
20.977
20.9769
20.9769
20.9768
20.9767
20.9766
20.9765
20.9764
20.9763
20.9761
20.976
20.9758
20.9755
20.9752
20.975
21.1002
21.1003
21.1005
21.1007
21.1009
21.101
21.1011
21.1012
21.1013
21.1014
21.1015
21.1016
21.1016
21.1017
21.1017
21.1018
21.1018
21.1019
21.1019
21.1019
21.1019
21.102
21.102
21.102
21.102
21.102
21.1021
21.1021
21.1021
21.1021
21.1021
21.1021
21.1021
21.1021
21.102
21.102
21.102
21.102
21.102
21.1019
21.1019
21.1019
21.1019
21.1018
21.1018
21.1017
21.1017
21.1016
21.1016
21.1015
21.1014
21.1013
21.1012
21.1011
21.101
21.1009
21.1007
21.1005
21.1003
21.1002
21.2039
21.204
21.2041
21.2043
21.2044
21.2045
21.2046
21.2047
21.2048
21.2049
21.2049
21.205
21.205
21.2051
21.2051
21.2052
21.2052
21.2053
21.2053
21.2053
21.2054
21.2054
21.2054
21.2054
21.2055
21.2055
21.2055
21.2055
21.2055
21.2055
21.2055
21.2055
21.2055
21.2055
21.2055
21.2055
21.2054
21.2054
21.2054
21.2054
21.2053
21.2053
21.2053
21.2052
21.2052
21.2051
21.2051
21.205
21.205
21.2049
21.2049
21.2048
21.2047
21.2046
21.2045
21.2044
21.2043
21.2041
21.204
21.2039
21.2927
21.2928
21.2929
21.293
21.2931
21.2932
21.2932
21.2933
21.2934
21.2935
21.2935
21.2936
21.2936
21.2937
21.2937
21.2938
21.2938
21.2939
21.2939
21.2939
21.294
21.294
21.294
21.294
21.2941
21.2941
21.2941
21.2941
21.2941
21.2941
21.2941
21.2941
21.2941
21.2941
21.2941
21.2941
21.294
21.294
21.294
21.294
21.2939
21.2939
21.2939
21.2938
21.2938
21.2937
21.2937
21.2936
21.2936
21.2935
21.2935
21.2934
21.2933
21.2932
21.2932
21.2931
21.293
21.2929
21.2928
21.2927
21.3709
21.3709
21.371
21.3711
21.3711
21.3712
21.3713
21.3714
21.3714
21.3715
21.3715
21.3716
21.3717
21.3717
21.3718
21.3718
21.3719
21.3719
21.3719
21.372
21.372
21.372
21.372
21.3721
21.3721
21.3721
21.3721
21.3721
21.3721
21.3721
21.3721
21.3721
21.3721
21.3721
21.3721
21.3721
21.3721
21.372
21.372
21.372
21.372
21.3719
21.3719
21.3719
21.3718
21.3718
21.3717
21.3717
21.3716
21.3715
21.3715
21.3714
21.3714
21.3713
21.3712
21.3711
21.3711
21.371
21.3709
21.3709
21.4412
21.4412
21.4412
21.4413
21.4413
21.4414
21.4415
21.4415
21.4416
21.4417
21.4417
21.4418
21.4418
21.4419
21.4419
21.442
21.442
21.4421
21.4421
21.4421
21.4422
21.4422
21.4422
21.4422
21.4423
21.4423
21.4423
21.4423
21.4423
21.4423
21.4423
21.4423
21.4423
21.4423
21.4423
21.4423
21.4422
21.4422
21.4422
21.4422
21.4421
21.4421
21.4421
21.442
21.442
21.4419
21.4419
21.4418
21.4418
21.4417
21.4417
21.4416
21.4415
21.4415
21.4414
21.4413
21.4413
21.4412
21.4412
21.4412
21.5054
21.5054
21.5054
21.5055
21.5055
21.5056
21.5056
21.5057
21.5057
21.5058
21.5059
21.5059
21.506
21.506
21.5061
21.5061
21.5062
21.5062
21.5063
21.5063
21.5063
21.5064
21.5064
21.5064
21.5064
21.5064
21.5064
21.5065
21.5065
21.5065
21.5065
21.5065
21.5065
21.5064
21.5064
21.5064
21.5064
21.5064
21.5064
21.5063
21.5063
21.5063
21.5062
21.5062
21.5061
21.5061
21.506
21.506
21.5059
21.5059
21.5058
21.5057
21.5057
21.5056
21.5056
21.5055
21.5055
21.5054
21.5054
21.5054
21.5648
21.5648
21.5648
21.5649
21.5649
21.5649
21.565
21.565
21.5651
21.5652
21.5652
21.5653
21.5653
21.5654
21.5654
21.5655
21.5655
21.5656
21.5656
21.5657
21.5657
21.5657
21.5657
21.5658
21.5658
21.5658
21.5658
21.5658
21.5658
21.5658
21.5658
21.5658
21.5658
21.5658
21.5658
21.5658
21.5658
21.5657
21.5657
21.5657
21.5657
21.5656
21.5656
21.5655
21.5655
21.5654
21.5654
21.5653
21.5653
21.5652
21.5652
21.5651
21.565
21.565
21.5649
21.5649
21.5649
21.5648
21.5648
21.5648
21.6203
21.6203
21.6203
21.6203
21.6204
21.6204
21.6205
21.6205
21.6206
21.6206
21.6207
21.6207
21.6208
21.6209
21.6209
21.621
21.621
21.621
21.6211
21.6211
21.6212
21.6212
21.6212
21.6212
21.6213
21.6213
21.6213
21.6213
21.6213
21.6213
21.6213
21.6213
21.6213
21.6213
21.6213
21.6213
21.6212
21.6212
21.6212
21.6212
21.6211
21.6211
21.621
21.621
21.621
21.6209
21.6209
21.6208
21.6207
21.6207
21.6206
21.6206
21.6205
21.6205
21.6204
21.6204
21.6203
21.6203
21.6203
21.6203
21.6726
21.6726
21.6726
21.6726
21.6726
21.6727
21.6727
21.6728
21.6728
21.6729
21.6729
21.673
21.6731
21.6731
21.6732
21.6732
21.6733
21.6733
21.6733
21.6734
21.6734
21.6735
21.6735
21.6735
21.6735
21.6735
21.6736
21.6736
21.6736
21.6736
21.6736
21.6736
21.6736
21.6736
21.6735
21.6735
21.6735
21.6735
21.6735
21.6734
21.6734
21.6733
21.6733
21.6733
21.6732
21.6732
21.6731
21.6731
21.673
21.6729
21.6729
21.6728
21.6728
21.6727
21.6727
21.6726
21.6726
21.6726
21.6726
21.6726
21.7222
21.7222
21.7222
21.7222
21.7222
21.7222
21.7223
21.7223
21.7224
21.7224
21.7225
21.7226
21.7226
21.7227
21.7227
21.7228
21.7228
21.7229
21.7229
21.723
21.723
21.723
21.723
21.7231
21.7231
21.7231
21.7231
21.7231
21.7231
21.7231
21.7231
21.7231
21.7231
21.7231
21.7231
21.7231
21.7231
21.723
21.723
21.723
21.723
21.7229
21.7229
21.7228
21.7228
21.7227
21.7227
21.7226
21.7226
21.7225
21.7224
21.7224
21.7223
21.7223
21.7222
21.7222
21.7222
21.7222
21.7222
21.7222
21.7695
21.7695
21.7695
21.7695
21.7695
21.7695
21.7695
21.7696
21.7697
21.7697
21.7698
21.7698
21.7699
21.7699
21.77
21.7701
21.7701
21.7702
21.7702
21.7702
21.7703
21.7703
21.7703
21.7704
21.7704
21.7704
21.7704
21.7704
21.7704
21.7704
21.7704
21.7704
21.7704
21.7704
21.7704
21.7704
21.7704
21.7703
21.7703
21.7703
21.7702
21.7702
21.7702
21.7701
21.7701
21.77
21.7699
21.7699
21.7698
21.7698
21.7697
21.7697
21.7696
21.7695
21.7695
21.7695
21.7695
21.7695
21.7695
21.7695
21.8148
21.8148
21.8148
21.8148
21.8148
21.8148
21.8149
21.8149
21.815
21.815
21.8151
21.8152
21.8152
21.8153
21.8153
21.8154
21.8154
21.8155
21.8155
21.8156
21.8156
21.8156
21.8157
21.8157
21.8157
21.8157
21.8158
21.8158
21.8158
21.8158
21.8158
21.8158
21.8158
21.8158
21.8157
21.8157
21.8157
21.8157
21.8156
21.8156
21.8156
21.8155
21.8155
21.8154
21.8154
21.8153
21.8153
21.8152
21.8152
21.8151
21.815
21.815
21.8149
21.8149
21.8148
21.8148
21.8148
21.8148
21.8148
21.8148
21.8585
21.8585
21.8584
21.8584
21.8585
21.8585
21.8585
21.8586
21.8586
21.8587
21.8587
21.8588
21.8589
21.8589
21.859
21.859
21.8591
21.8591
21.8592
21.8592
21.8593
21.8593
21.8593
21.8594
21.8594
21.8594
21.8594
21.8594
21.8594
21.8594
21.8594
21.8594
21.8594
21.8594
21.8594
21.8594
21.8594
21.8593
21.8593
21.8593
21.8592
21.8592
21.8591
21.8591
21.859
21.859
21.8589
21.8589
21.8588
21.8587
21.8587
21.8586
21.8586
21.8585
21.8585
21.8585
21.8584
21.8584
21.8585
21.8585
21.9007
21.9007
21.9006
21.9006
21.9007
21.9007
21.9007
21.9008
21.9008
21.9009
21.9009
21.901
21.9011
21.9011
21.9012
21.9012
21.9013
21.9013
21.9014
21.9014
21.9015
21.9015
21.9015
21.9016
21.9016
21.9016
21.9016
21.9016
21.9017
21.9017
21.9017
21.9017
21.9016
21.9016
21.9016
21.9016
21.9016
21.9015
21.9015
21.9015
21.9014
21.9014
21.9013
21.9013
21.9012
21.9012
21.9011
21.9011
21.901
21.9009
21.9009
21.9008
21.9008
21.9007
21.9007
21.9007
21.9006
21.9006
21.9007
21.9007
21.9416
21.9416
21.9416
21.9416
21.9416
21.9416
21.9417
21.9417
21.9418
21.9418
21.9419
21.9419
21.942
21.9421
21.9421
21.9422
21.9422
21.9423
21.9423
21.9424
21.9424
21.9425
21.9425
21.9425
21.9426
21.9426
21.9426
21.9426
21.9426
21.9426
21.9426
21.9426
21.9426
21.9426
21.9426
21.9426
21.9425
21.9425
21.9425
21.9424
21.9424
21.9423
21.9423
21.9422
21.9422
21.9421
21.9421
21.942
21.9419
21.9419
21.9418
21.9418
21.9417
21.9417
21.9416
21.9416
21.9416
21.9416
21.9416
21.9416
21.9815
21.9814
21.9814
21.9814
21.9814
21.9815
21.9815
21.9815
21.9816
21.9817
21.9817
21.9818
21.9818
21.9819
21.982
21.982
21.9821
21.9822
21.9822
21.9822
21.9823
21.9823
21.9824
21.9824
21.9824
21.9824
21.9825
21.9825
21.9825
21.9825
21.9825
21.9825
21.9825
21.9825
21.9824
21.9824
21.9824
21.9824
21.9823
21.9823
21.9822
21.9822
21.9822
21.9821
21.982
21.982
21.9819
21.9818
21.9818
21.9817
21.9817
21.9816
21.9815
21.9815
21.9815
21.9814
21.9814
21.9814
21.9814
21.9815
22.0203
22.0203
22.0203
22.0203
22.0203
22.0203
22.0204
22.0204
22.0205
22.0205
22.0206
22.0207
22.0207
22.0208
22.0209
22.0209
22.021
22.0211
22.0211
22.0212
22.0212
22.0212
22.0213
22.0213
22.0213
22.0214
22.0214
22.0214
22.0214
22.0214
22.0214
22.0214
22.0214
22.0214
22.0214
22.0213
22.0213
22.0213
22.0212
22.0212
22.0212
22.0211
22.0211
22.021
22.0209
22.0209
22.0208
22.0207
22.0207
22.0206
22.0205
22.0205
22.0204
22.0204
22.0203
22.0203
22.0203
22.0203
22.0203
22.0203
22.0584
22.0584
22.0584
22.0584
22.0584
22.0584
22.0584
22.0585
22.0585
22.0586
22.0587
22.0587
22.0588
22.0589
22.0589
22.059
22.0591
22.0591
22.0592
22.0592
22.0593
22.0593
22.0594
22.0594
22.0594
22.0594
22.0595
22.0595
22.0595
22.0595
22.0595
22.0595
22.0595
22.0595
22.0594
22.0594
22.0594
22.0594
22.0593
22.0593
22.0592
22.0592
22.0591
22.0591
22.059
22.0589
22.0589
22.0588
22.0587
22.0587
22.0586
22.0585
22.0585
22.0584
22.0584
22.0584
22.0584
22.0584
22.0584
22.0584
22.0957
22.0957
22.0957
22.0957
22.0957
22.0957
22.0958
22.0958
22.0959
22.0959
22.096
22.0961
22.0961
22.0962
22.0963
22.0963
22.0964
22.0965
22.0965
22.0966
22.0966
22.0967
22.0967
22.0967
22.0968
22.0968
22.0968
22.0968
22.0968
22.0968
22.0968
22.0968
22.0968
22.0968
22.0968
22.0968
22.0967
22.0967
22.0967
22.0966
22.0966
22.0965
22.0965
22.0964
22.0963
22.0963
22.0962
22.0961
22.0961
22.096
22.0959
22.0959
22.0958
22.0958
22.0957
22.0957
22.0957
22.0957
22.0957
22.0957
22.1324
22.1324
22.1324
22.1324
22.1324
22.1324
22.1325
22.1325
22.1326
22.1326
22.1327
22.1328
22.1328
22.1329
22.133
22.1331
22.1331
22.1332
22.1332
22.1333
22.1333
22.1334
22.1334
22.1335
22.1335
22.1335
22.1335
22.1335
22.1336
22.1336
22.1336
22.1336
22.1335
22.1335
22.1335
22.1335
22.1335
22.1334
22.1334
22.1333
22.1333
22.1332
22.1332
22.1331
22.1331
22.133
22.1329
22.1328
22.1328
22.1327
22.1326
22.1326
22.1325
22.1325
22.1324
22.1324
22.1324
22.1324
22.1324
22.1324
22.1686
22.1686
22.1685
22.1685
22.1685
22.1686
22.1686
22.1687
22.1687
22.1688
22.1689
22.1689
22.169
22.1691
22.1692
22.1692
22.1693
22.1694
22.1694
22.1695
22.1695
22.1696
22.1696
22.1696
22.1697
22.1697
22.1697
22.1697
22.1697
22.1697
22.1697
22.1697
22.1697
22.1697
22.1697
22.1697
22.1696
22.1696
22.1696
22.1695
22.1695
22.1694
22.1694
22.1693
22.1692
22.1692
22.1691
22.169
22.1689
22.1689
22.1688
22.1687
22.1687
22.1686
22.1686
22.1685
22.1685
22.1685
22.1686
22.1686
22.2042
22.2042
22.2042
22.2042
22.2042
22.2043
22.2043
22.2043
22.2044
22.2045
22.2045
22.2046
22.2047
22.2048
22.2049
22.2049
22.205
22.2051
22.2051
22.2052
22.2052
22.2053
22.2053
22.2054
22.2054
22.2054
22.2054
22.2054
22.2055
22.2055
22.2055
22.2055
22.2054
22.2054
22.2054
22.2054
22.2054
22.2053
22.2053
22.2052
22.2052
22.2051
22.2051
22.205
22.2049
22.2049
22.2048
22.2047
22.2046
22.2045
22.2045
22.2044
22.2043
22.2043
22.2043
22.2042
22.2042
22.2042
22.2042
22.2042
22.2395
22.2395
22.2395
22.2395
22.2395
22.2395
22.2396
22.2396
22.2397
22.2398
22.2398
22.2399
22.24
22.2401
22.2401
22.2402
22.2403
22.2404
22.2404
22.2405
22.2405
22.2406
22.2406
22.2407
22.2407
22.2407
22.2407
22.2408
22.2408
22.2408
22.2408
22.2408
22.2408
22.2407
22.2407
22.2407
22.2407
22.2406
22.2406
22.2405
22.2405
22.2404
22.2404
22.2403
22.2402
22.2401
22.2401
22.24
22.2399
22.2398
22.2398
22.2397
22.2396
22.2396
22.2395
22.2395
22.2395
22.2395
22.2395
22.2395
22.2744
22.2744
22.2744
22.2744
22.2744
22.2745
22.2745
22.2746
22.2746
22.2747
22.2748
22.2749
22.2749
22.275
22.2751
22.2752
22.2753
22.2753
22.2754
22.2755
22.2755
22.2756
22.2756
22.2756
22.2757
22.2757
22.2757
22.2757
22.2758
22.2758
22.2758
22.2758
22.2757
22.2757
22.2757
22.2757
22.2756
22.2756
22.2756
22.2755
22.2755
22.2754
22.2753
22.2753
22.2752
22.2751
22.275
22.2749
22.2749
22.2748
22.2747
22.2746
22.2746
22.2745
22.2745
22.2744
22.2744
22.2744
22.2744
22.2744
22.3091
22.3091
22.3091
22.3091
22.3091
22.3091
22.3092
22.3092
22.3093
22.3094
22.3094
22.3095
22.3096
22.3097