/*--------------------------------*- C++ -*----------------------------------*\
| =========                 |                                                 |
| \\      /  F ield         | foam-extend: Open Source CFD                    |
|  \\    /   O peration     | Version:     4.0                                |
|   \\  /    A nd           | Web:         http://www.foam-extend.org         |
|    \\/     M anipulation  |                                                 |
\*---------------------------------------------------------------------------*/
FoamFile
{
    version     2.0;
    format      ascii;
    class       volScalarField;
    location    "1810";
    object      cPlus;
}
// * * * * * * * * * * * * * * * * * * * * * * * * * * * * * * * * * * * * * //

dimensions      [0 0 0 0 0 0 0];

internalField   nonuniform List<scalar> 
6960
(
0.242196
0.242147
0.242135
0.242133
0.242133
0.242134
0.242135
0.242136
0.242137
0.242138
0.242139
0.24214
0.242141
0.242141
0.242142
0.242143
0.242143
0.242144
0.242144
0.242144
0.242145
0.242145
0.242145
0.242146
0.242146
0.242146
0.242146
0.242146
0.242146
0.242146
0.242146
0.242146
0.242146
0.242146
0.242146
0.242146
0.242146
0.242145
0.242145
0.242145
0.242144
0.242144
0.242144
0.242143
0.242143
0.242142
0.242141
0.242141
0.24214
0.242139
0.242138
0.242137
0.242136
0.242135
0.242134
0.242133
0.242133
0.242135
0.242147
0.242196
0.0883069
0.0883073
0.0883073
0.0883079
0.0883087
0.0883094
0.0883101
0.0883107
0.0883113
0.0883118
0.0883123
0.0883127
0.0883131
0.0883134
0.0883137
0.088314
0.0883143
0.0883145
0.0883147
0.0883149
0.0883151
0.0883152
0.0883154
0.0883155
0.0883156
0.0883156
0.0883157
0.0883157
0.0883158
0.0883158
0.0883158
0.0883158
0.0883157
0.0883157
0.0883156
0.0883156
0.0883155
0.0883154
0.0883152
0.0883151
0.0883149
0.0883147
0.0883145
0.0883143
0.088314
0.0883137
0.0883134
0.0883131
0.0883127
0.0883123
0.0883118
0.0883113
0.0883107
0.0883101
0.0883094
0.0883087
0.0883079
0.0883073
0.0883073
0.0883069
0.0628689
0.0628905
0.0628958
0.0628977
0.0628986
0.0628992
0.0628997
0.0629001
0.0629004
0.0629008
0.062901
0.0629013
0.0629015
0.0629017
0.0629019
0.062902
0.0629022
0.0629023
0.0629024
0.0629025
0.0629026
0.0629027
0.0629028
0.0629028
0.0629029
0.0629029
0.0629029
0.062903
0.062903
0.062903
0.062903
0.062903
0.062903
0.0629029
0.0629029
0.0629029
0.0629028
0.0629028
0.0629027
0.0629026
0.0629025
0.0629024
0.0629023
0.0629022
0.062902
0.0629019
0.0629017
0.0629015
0.0629013
0.062901
0.0629008
0.0629004
0.0629001
0.0628997
0.0628992
0.0628986
0.0628977
0.0628958
0.0628905
0.0628689
0.0600015
0.0600316
0.0600391
0.0600414
0.0600424
0.060043
0.0600435
0.0600438
0.0600441
0.0600444
0.0600446
0.0600448
0.060045
0.0600452
0.0600453
0.0600455
0.0600456
0.0600457
0.0600457
0.0600458
0.0600459
0.060046
0.060046
0.060046
0.0600461
0.0600461
0.0600461
0.0600462
0.0600462
0.0600462
0.0600462
0.0600462
0.0600462
0.0600461
0.0600461
0.0600461
0.060046
0.060046
0.060046
0.0600459
0.0600458
0.0600457
0.0600457
0.0600456
0.0600455
0.0600453
0.0600452
0.060045
0.0600448
0.0600446
0.0600444
0.0600441
0.0600438
0.0600435
0.060043
0.0600424
0.0600414
0.0600391
0.0600316
0.0600015
0.0620156
0.0620505
0.0620592
0.0620619
0.062063
0.0620637
0.0620641
0.0620645
0.0620648
0.0620651
0.0620654
0.0620656
0.0620658
0.0620659
0.0620661
0.0620662
0.0620663
0.0620664
0.0620665
0.0620666
0.0620666
0.0620667
0.0620668
0.0620668
0.0620668
0.0620669
0.0620669
0.0620669
0.0620669
0.0620669
0.0620669
0.0620669
0.0620669
0.0620669
0.0620669
0.0620668
0.0620668
0.0620668
0.0620667
0.0620666
0.0620666
0.0620665
0.0620664
0.0620663
0.0620662
0.0620661
0.0620659
0.0620658
0.0620656
0.0620654
0.0620651
0.0620648
0.0620645
0.0620641
0.0620637
0.062063
0.0620619
0.0620592
0.0620505
0.0620156
0.0656261
0.0656656
0.0656754
0.0656785
0.0656798
0.0656805
0.065681
0.0656815
0.0656818
0.0656822
0.0656824
0.0656827
0.0656829
0.0656831
0.0656832
0.0656834
0.0656835
0.0656836
0.0656837
0.0656838
0.0656839
0.065684
0.065684
0.0656841
0.0656841
0.0656842
0.0656842
0.0656842
0.0656842
0.0656842
0.0656842
0.0656842
0.0656842
0.0656842
0.0656842
0.0656841
0.0656841
0.065684
0.065684
0.0656839
0.0656838
0.0656837
0.0656836
0.0656835
0.0656834
0.0656832
0.0656831
0.0656829
0.0656827
0.0656824
0.0656822
0.0656818
0.0656815
0.065681
0.0656805
0.0656798
0.0656785
0.0656754
0.0656656
0.0656261
0.0703651
0.0704101
0.0704213
0.0704248
0.0704263
0.0704272
0.0704278
0.0704283
0.0704288
0.0704292
0.0704295
0.0704298
0.07043
0.0704303
0.0704305
0.0704306
0.0704308
0.0704309
0.070431
0.0704312
0.0704313
0.0704313
0.0704314
0.0704315
0.0704315
0.0704316
0.0704316
0.0704316
0.0704316
0.0704316
0.0704316
0.0704316
0.0704316
0.0704316
0.0704316
0.0704315
0.0704315
0.0704314
0.0704313
0.0704313
0.0704312
0.070431
0.0704309
0.0704308
0.0704306
0.0704305
0.0704303
0.07043
0.0704298
0.0704295
0.0704292
0.0704288
0.0704283
0.0704278
0.0704272
0.0704263
0.0704248
0.0704213
0.0704101
0.0703651
0.076433
0.0764854
0.0764984
0.0765026
0.0765044
0.0765054
0.0765062
0.0765068
0.0765073
0.0765078
0.0765082
0.0765086
0.0765089
0.0765092
0.0765094
0.0765096
0.0765098
0.07651
0.0765101
0.0765103
0.0765104
0.0765105
0.0765106
0.0765107
0.0765107
0.0765108
0.0765108
0.0765108
0.0765109
0.0765109
0.0765109
0.0765109
0.0765108
0.0765108
0.0765108
0.0765107
0.0765107
0.0765106
0.0765105
0.0765104
0.0765103
0.0765101
0.07651
0.0765098
0.0765096
0.0765094
0.0765092
0.0765089
0.0765086
0.0765082
0.0765078
0.0765073
0.0765068
0.0765062
0.0765054
0.0765044
0.0765026
0.0764984
0.0764854
0.076433
0.0842984
0.0843608
0.0843765
0.0843815
0.0843837
0.084385
0.0843859
0.0843867
0.0843874
0.0843879
0.0843884
0.0843889
0.0843893
0.0843896
0.0843899
0.0843902
0.0843905
0.0843907
0.0843909
0.084391
0.0843912
0.0843913
0.0843914
0.0843915
0.0843916
0.0843917
0.0843917
0.0843918
0.0843918
0.0843918
0.0843918
0.0843918
0.0843918
0.0843917
0.0843917
0.0843916
0.0843915
0.0843914
0.0843913
0.0843912
0.084391
0.0843909
0.0843907
0.0843905
0.0843902
0.0843899
0.0843896
0.0843893
0.0843889
0.0843884
0.0843879
0.0843874
0.0843867
0.0843859
0.084385
0.0843837
0.0843815
0.0843765
0.0843608
0.0842984
0.0946204
0.0946967
0.094716
0.0947222
0.0947248
0.0947264
0.0947276
0.0947286
0.0947295
0.0947302
0.0947308
0.0947314
0.0947319
0.0947323
0.0947327
0.0947331
0.0947334
0.0947337
0.0947339
0.0947341
0.0947343
0.0947345
0.0947346
0.0947348
0.0947349
0.0947349
0.094735
0.0947351
0.0947351
0.0947351
0.0947351
0.0947351
0.0947351
0.094735
0.0947349
0.0947349
0.0947348
0.0947346
0.0947345
0.0947343
0.0947341
0.0947339
0.0947337
0.0947334
0.0947331
0.0947327
0.0947323
0.0947319
0.0947314
0.0947308
0.0947302
0.0947295
0.0947286
0.0947276
0.0947264
0.0947248
0.0947222
0.094716
0.0946967
0.0946204
0.108173
0.108267
0.108291
0.108299
0.108302
0.108304
0.108306
0.108307
0.108308
0.108309
0.10831
0.108311
0.108311
0.108312
0.108312
0.108313
0.108313
0.108314
0.108314
0.108314
0.108314
0.108315
0.108315
0.108315
0.108315
0.108315
0.108315
0.108315
0.108315
0.108315
0.108315
0.108315
0.108315
0.108315
0.108315
0.108315
0.108315
0.108315
0.108315
0.108314
0.108314
0.108314
0.108314
0.108313
0.108313
0.108312
0.108312
0.108311
0.108311
0.10831
0.108309
0.108308
0.108307
0.108306
0.108304
0.108302
0.108299
0.108291
0.108267
0.108173
0.125666
0.125784
0.125814
0.125823
0.125828
0.12583
0.125832
0.125833
0.125835
0.125836
0.125837
0.125838
0.125839
0.125839
0.12584
0.12584
0.125841
0.125841
0.125842
0.125842
0.125842
0.125843
0.125843
0.125843
0.125843
0.125843
0.125843
0.125843
0.125844
0.125844
0.125844
0.125844
0.125843
0.125843
0.125843
0.125843
0.125843
0.125843
0.125843
0.125842
0.125842
0.125842
0.125841
0.125841
0.12584
0.12584
0.125839
0.125839
0.125838
0.125837
0.125836
0.125835
0.125833
0.125832
0.12583
0.125828
0.125823
0.125814
0.125784
0.125666
0.147483
0.147627
0.147664
0.147676
0.147681
0.147684
0.147686
0.147688
0.14769
0.147691
0.147692
0.147693
0.147694
0.147695
0.147696
0.147696
0.147697
0.147697
0.147698
0.147698
0.147699
0.147699
0.147699
0.147699
0.1477
0.1477
0.1477
0.1477
0.1477
0.1477
0.1477
0.1477
0.1477
0.1477
0.1477
0.1477
0.147699
0.147699
0.147699
0.147699
0.147698
0.147698
0.147697
0.147697
0.147696
0.147696
0.147695
0.147694
0.147693
0.147692
0.147691
0.14769
0.147688
0.147686
0.147684
0.147681
0.147676
0.147664
0.147627
0.147483
0.173454
0.173625
0.17367
0.173684
0.17369
0.173693
0.173696
0.173698
0.1737
0.173701
0.173703
0.173704
0.173705
0.173706
0.173706
0.173707
0.173708
0.173708
0.173709
0.173709
0.17371
0.17371
0.17371
0.173711
0.173711
0.173711
0.173711
0.173711
0.173711
0.173711
0.173711
0.173711
0.173711
0.173711
0.173711
0.173711
0.173711
0.17371
0.17371
0.17371
0.173709
0.173709
0.173708
0.173708
0.173707
0.173706
0.173706
0.173705
0.173704
0.173703
0.173701
0.1737
0.173698
0.173696
0.173693
0.17369
0.173684
0.17367
0.173625
0.173454
0.202839
0.203037
0.203089
0.203106
0.203113
0.203117
0.203119
0.203122
0.203123
0.203125
0.203126
0.203128
0.203129
0.20313
0.203131
0.203131
0.203132
0.203133
0.203133
0.203134
0.203134
0.203135
0.203135
0.203135
0.203135
0.203136
0.203136
0.203136
0.203136
0.203136
0.203136
0.203136
0.203136
0.203136
0.203136
0.203135
0.203135
0.203135
0.203135
0.203134
0.203134
0.203133
0.203133
0.203132
0.203131
0.203131
0.20313
0.203129
0.203128
0.203126
0.203125
0.203123
0.203122
0.203119
0.203117
0.203113
0.203106
0.203089
0.203037
0.202839
0.23456
0.234781
0.234841
0.23486
0.234867
0.234871
0.234874
0.234876
0.234878
0.23488
0.234882
0.234883
0.234884
0.234885
0.234886
0.234887
0.234887
0.234888
0.234888
0.234889
0.234889
0.23489
0.23489
0.23489
0.234891
0.234891
0.234891
0.234891
0.234891
0.234891
0.234891
0.234891
0.234891
0.234891
0.234891
0.234891
0.23489
0.23489
0.23489
0.234889
0.234889
0.234888
0.234888
0.234887
0.234887
0.234886
0.234885
0.234884
0.234883
0.234882
0.23488
0.234878
0.234876
0.234874
0.234871
0.234867
0.23486
0.234841
0.234781
0.23456
0.267512
0.267753
0.267819
0.26784
0.267848
0.267853
0.267855
0.267858
0.26786
0.267861
0.267863
0.267864
0.267865
0.267866
0.267867
0.267868
0.267869
0.267869
0.26787
0.26787
0.267871
0.267871
0.267871
0.267872
0.267872
0.267872
0.267872
0.267872
0.267872
0.267872
0.267872
0.267872
0.267872
0.267872
0.267872
0.267872
0.267872
0.267871
0.267871
0.267871
0.26787
0.26787
0.267869
0.267869
0.267868
0.267867
0.267866
0.267865
0.267864
0.267863
0.267861
0.26786
0.267858
0.267855
0.267853
0.267848
0.26784
0.267819
0.267753
0.267512
0.300796
0.301054
0.301126
0.301149
0.301157
0.301162
0.301165
0.301167
0.301169
0.301171
0.301172
0.301173
0.301174
0.301175
0.301176
0.301177
0.301178
0.301178
0.301179
0.301179
0.30118
0.30118
0.30118
0.30118
0.301181
0.301181
0.301181
0.301181
0.301181
0.301181
0.301181
0.301181
0.301181
0.301181
0.301181
0.301181
0.30118
0.30118
0.30118
0.30118
0.301179
0.301179
0.301178
0.301178
0.301177
0.301176
0.301175
0.301174
0.301173
0.301172
0.301171
0.301169
0.301167
0.301165
0.301162
0.301157
0.301149
0.301126
0.301054
0.300796
0.333791
0.334064
0.334141
0.334166
0.334175
0.334179
0.334182
0.334184
0.334186
0.334188
0.334189
0.33419
0.334191
0.334192
0.334193
0.334194
0.334194
0.334195
0.334195
0.334196
0.334196
0.334196
0.334197
0.334197
0.334197
0.334197
0.334198
0.334198
0.334198
0.334198
0.334198
0.334198
0.334198
0.334198
0.334197
0.334197
0.334197
0.334197
0.334196
0.334196
0.334196
0.334195
0.334195
0.334194
0.334194
0.334193
0.334192
0.334191
0.33419
0.334189
0.334188
0.334186
0.334184
0.334182
0.334179
0.334175
0.334166
0.334141
0.334064
0.333791
0.366117
0.366402
0.366485
0.36651
0.36652
0.366525
0.366527
0.36653
0.366531
0.366533
0.366534
0.366535
0.366536
0.366537
0.366538
0.366538
0.366539
0.36654
0.36654
0.36654
0.366541
0.366541
0.366541
0.366542
0.366542
0.366542
0.366542
0.366542
0.366542
0.366542
0.366542
0.366542
0.366542
0.366542
0.366542
0.366542
0.366542
0.366541
0.366541
0.366541
0.36654
0.36654
0.36654
0.366539
0.366538
0.366538
0.366537
0.366536
0.366535
0.366534
0.366533
0.366531
0.36653
0.366527
0.366525
0.36652
0.36651
0.366485
0.366402
0.366117
0.39756
0.397856
0.397943
0.39797
0.39798
0.397985
0.397987
0.397989
0.397991
0.397993
0.397994
0.397995
0.397996
0.397997
0.397997
0.397998
0.397998
0.397999
0.397999
0.398
0.398
0.398
0.398
0.398001
0.398001
0.398001
0.398001
0.398001
0.398001
0.398001
0.398001
0.398001
0.398001
0.398001
0.398001
0.398001
0.398001
0.398
0.398
0.398
0.398
0.397999
0.397999
0.397998
0.397998
0.397997
0.397997
0.397996
0.397995
0.397994
0.397993
0.397991
0.397989
0.397987
0.397985
0.39798
0.39797
0.397943
0.397856
0.39756
0.428008
0.428312
0.428403
0.428432
0.428442
0.428447
0.42845
0.428452
0.428453
0.428455
0.428456
0.428457
0.428458
0.428458
0.428459
0.42846
0.42846
0.428461
0.428461
0.428461
0.428462
0.428462
0.428462
0.428462
0.428462
0.428463
0.428463
0.428463
0.428463
0.428463
0.428463
0.428463
0.428463
0.428463
0.428463
0.428462
0.428462
0.428462
0.428462
0.428462
0.428461
0.428461
0.428461
0.42846
0.42846
0.428459
0.428458
0.428458
0.428457
0.428456
0.428455
0.428453
0.428452
0.42845
0.428447
0.428442
0.428432
0.428403
0.428312
0.428008
0.457405
0.457716
0.457812
0.457842
0.457853
0.457858
0.45786
0.457862
0.457864
0.457865
0.457866
0.457867
0.457868
0.457869
0.457869
0.45787
0.45787
0.457871
0.457871
0.457871
0.457872
0.457872
0.457872
0.457872
0.457872
0.457872
0.457872
0.457873
0.457873
0.457873
0.457873
0.457873
0.457873
0.457872
0.457872
0.457872
0.457872
0.457872
0.457872
0.457872
0.457871
0.457871
0.457871
0.45787
0.45787
0.457869
0.457869
0.457868
0.457867
0.457866
0.457865
0.457864
0.457862
0.45786
0.457858
0.457853
0.457842
0.457812
0.457716
0.457405
0.48573
0.486047
0.486147
0.486179
0.48619
0.486195
0.486197
0.486199
0.486201
0.486202
0.486203
0.486204
0.486204
0.486205
0.486205
0.486206
0.486206
0.486207
0.486207
0.486207
0.486208
0.486208
0.486208
0.486208
0.486208
0.486208
0.486209
0.486209
0.486209
0.486209
0.486209
0.486209
0.486209
0.486209
0.486208
0.486208
0.486208
0.486208
0.486208
0.486208
0.486207
0.486207
0.486207
0.486206
0.486206
0.486205
0.486205
0.486204
0.486204
0.486203
0.486202
0.486201
0.486199
0.486197
0.486195
0.48619
0.486179
0.486147
0.486047
0.48573
0.512979
0.5133
0.513404
0.513438
0.513449
0.513454
0.513457
0.513459
0.51346
0.513461
0.513462
0.513463
0.513463
0.513464
0.513464
0.513465
0.513465
0.513466
0.513466
0.513466
0.513466
0.513467
0.513467
0.513467
0.513467
0.513467
0.513467
0.513467
0.513467
0.513467
0.513467
0.513467
0.513467
0.513467
0.513467
0.513467
0.513467
0.513467
0.513467
0.513466
0.513466
0.513466
0.513466
0.513465
0.513465
0.513464
0.513464
0.513463
0.513463
0.513462
0.513461
0.51346
0.513459
0.513457
0.513454
0.513449
0.513438
0.513404
0.5133
0.512979
0.539159
0.539484
0.539591
0.539627
0.539639
0.539644
0.539646
0.539648
0.539649
0.53965
0.539651
0.539652
0.539652
0.539653
0.539653
0.539654
0.539654
0.539655
0.539655
0.539655
0.539655
0.539655
0.539656
0.539656
0.539656
0.539656
0.539656
0.539656
0.539656
0.539656
0.539656
0.539656
0.539656
0.539656
0.539656
0.539656
0.539656
0.539656
0.539655
0.539655
0.539655
0.539655
0.539655
0.539654
0.539654
0.539653
0.539653
0.539652
0.539652
0.539651
0.53965
0.539649
0.539648
0.539646
0.539644
0.539639
0.539627
0.539591
0.539484
0.539159
0.564285
0.564612
0.564723
0.56476
0.564772
0.564777
0.56478
0.564782
0.564783
0.564784
0.564784
0.564785
0.564786
0.564786
0.564787
0.564787
0.564787
0.564788
0.564788
0.564788
0.564788
0.564788
0.564789
0.564789
0.564789
0.564789
0.564789
0.564789
0.564789
0.564789
0.564789
0.564789
0.564789
0.564789
0.564789
0.564789
0.564789
0.564789
0.564788
0.564788
0.564788
0.564788
0.564788
0.564787
0.564787
0.564787
0.564786
0.564786
0.564785
0.564784
0.564784
0.564783
0.564782
0.56478
0.564777
0.564772
0.56476
0.564723
0.564612
0.564285
0.588374
0.588703
0.588817
0.588855
0.588868
0.588873
0.588876
0.588877
0.588878
0.588879
0.58888
0.588881
0.588881
0.588882
0.588882
0.588882
0.588883
0.588883
0.588883
0.588883
0.588884
0.588884
0.588884
0.588884
0.588884
0.588884
0.588884
0.588884
0.588884
0.588884
0.588884
0.588884
0.588884
0.588884
0.588884
0.588884
0.588884
0.588884
0.588884
0.588884
0.588883
0.588883
0.588883
0.588883
0.588882
0.588882
0.588882
0.588881
0.588881
0.58888
0.588879
0.588878
0.588877
0.588876
0.588873
0.588868
0.588855
0.588817
0.588703
0.588374
0.611448
0.611777
0.611894
0.611933
0.611947
0.611953
0.611955
0.611957
0.611958
0.611958
0.611959
0.61196
0.61196
0.611961
0.611961
0.611961
0.611962
0.611962
0.611962
0.611962
0.611962
0.611962
0.611963
0.611963
0.611963
0.611963
0.611963
0.611963
0.611963
0.611963
0.611963
0.611963
0.611963
0.611963
0.611963
0.611963
0.611963
0.611963
0.611962
0.611962
0.611962
0.611962
0.611962
0.611962
0.611961
0.611961
0.611961
0.61196
0.61196
0.611959
0.611958
0.611958
0.611957
0.611955
0.611953
0.611947
0.611933
0.611894
0.611777
0.611448
0.633529
0.633858
0.633977
0.634018
0.634032
0.634038
0.63404
0.634042
0.634043
0.634044
0.634044
0.634045
0.634045
0.634046
0.634046
0.634046
0.634047
0.634047
0.634047
0.634047
0.634047
0.634047
0.634047
0.634048
0.634048
0.634048
0.634048
0.634048
0.634048
0.634048
0.634048
0.634048
0.634048
0.634048
0.634048
0.634048
0.634048
0.634047
0.634047
0.634047
0.634047
0.634047
0.634047
0.634047
0.634046
0.634046
0.634046
0.634045
0.634045
0.634044
0.634044
0.634043
0.634042
0.63404
0.634038
0.634032
0.634018
0.633977
0.633858
0.633529
0.654642
0.654969
0.65509
0.655133
0.655148
0.655153
0.655156
0.655157
0.655158
0.655159
0.65516
0.65516
0.655161
0.655161
0.655161
0.655161
0.655162
0.655162
0.655162
0.655162
0.655162
0.655162
0.655163
0.655163
0.655163
0.655163
0.655163
0.655163
0.655163
0.655163
0.655163
0.655163
0.655163
0.655163
0.655163
0.655163
0.655163
0.655163
0.655162
0.655162
0.655162
0.655162
0.655162
0.655162
0.655161
0.655161
0.655161
0.655161
0.65516
0.65516
0.655159
0.655158
0.655157
0.655156
0.655153
0.655148
0.655133
0.65509
0.654969
0.654642
0.67481
0.675136
0.675259
0.675303
0.675318
0.675324
0.675327
0.675328
0.675329
0.67533
0.67533
0.675331
0.675331
0.675331
0.675332
0.675332
0.675332
0.675332
0.675332
0.675332
0.675333
0.675333
0.675333
0.675333
0.675333
0.675333
0.675333
0.675333
0.675333
0.675333
0.675333
0.675333
0.675333
0.675333
0.675333
0.675333
0.675333
0.675333
0.675333
0.675333
0.675332
0.675332
0.675332
0.675332
0.675332
0.675332
0.675331
0.675331
0.675331
0.67533
0.67533
0.675329
0.675328
0.675327
0.675324
0.675318
0.675303
0.675259
0.675136
0.67481
0.69406
0.694383
0.694508
0.694553
0.694569
0.694575
0.694578
0.694579
0.69458
0.694581
0.694581
0.694582
0.694582
0.694582
0.694582
0.694583
0.694583
0.694583
0.694583
0.694583
0.694583
0.694583
0.694583
0.694584
0.694584
0.694584
0.694584
0.694584
0.694584
0.694584
0.694584
0.694584
0.694584
0.694584
0.694584
0.694584
0.694584
0.694583
0.694583
0.694583
0.694583
0.694583
0.694583
0.694583
0.694583
0.694582
0.694582
0.694582
0.694582
0.694581
0.694581
0.69458
0.694579
0.694578
0.694575
0.694569
0.694553
0.694508
0.694383
0.69406
0.712417
0.712736
0.712863
0.712909
0.712926
0.712932
0.712935
0.712936
0.712937
0.712938
0.712938
0.712939
0.712939
0.712939
0.712939
0.71294
0.71294
0.71294
0.71294
0.71294
0.71294
0.71294
0.71294
0.71294
0.712941
0.712941
0.712941
0.712941
0.712941
0.712941
0.712941
0.712941
0.712941
0.712941
0.712941
0.712941
0.71294
0.71294
0.71294
0.71294
0.71294
0.71294
0.71294
0.71294
0.71294
0.712939
0.712939
0.712939
0.712939
0.712938
0.712938
0.712937
0.712936
0.712935
0.712932
0.712926
0.712909
0.712863
0.712736
0.712417
0.729907
0.730222
0.73035
0.730398
0.730415
0.730422
0.730424
0.730426
0.730427
0.730427
0.730428
0.730428
0.730428
0.730428
0.730429
0.730429
0.730429
0.730429
0.730429
0.730429
0.730429
0.73043
0.73043
0.73043
0.73043
0.73043
0.73043
0.73043
0.73043
0.73043
0.73043
0.73043
0.73043
0.73043
0.73043
0.73043
0.73043
0.73043
0.73043
0.730429
0.730429
0.730429
0.730429
0.730429
0.730429
0.730429
0.730428
0.730428
0.730428
0.730428
0.730427
0.730427
0.730426
0.730424
0.730422
0.730415
0.730398
0.73035
0.730222
0.729907
0.746556
0.746867
0.746995
0.747044
0.747062
0.747069
0.747072
0.747073
0.747074
0.747075
0.747075
0.747075
0.747076
0.747076
0.747076
0.747076
0.747076
0.747077
0.747077
0.747077
0.747077
0.747077
0.747077
0.747077
0.747077
0.747077
0.747077
0.747077
0.747077
0.747077
0.747077
0.747077
0.747077
0.747077
0.747077
0.747077
0.747077
0.747077
0.747077
0.747077
0.747077
0.747077
0.747077
0.747076
0.747076
0.747076
0.747076
0.747076
0.747075
0.747075
0.747075
0.747074
0.747073
0.747072
0.747069
0.747062
0.747044
0.746995
0.746867
0.746556
0.762391
0.762696
0.762825
0.762875
0.762894
0.762901
0.762904
0.762905
0.762906
0.762907
0.762907
0.762907
0.762908
0.762908
0.762908
0.762908
0.762908
0.762908
0.762908
0.762909
0.762909
0.762909
0.762909
0.762909
0.762909
0.762909
0.762909
0.762909
0.762909
0.762909
0.762909
0.762909
0.762909
0.762909
0.762909
0.762909
0.762909
0.762909
0.762909
0.762909
0.762909
0.762908
0.762908
0.762908
0.762908
0.762908
0.762908
0.762908
0.762907
0.762907
0.762907
0.762906
0.762905
0.762904
0.762901
0.762894
0.762875
0.762825
0.762696
0.762391
0.777436
0.777736
0.777866
0.777917
0.777936
0.777944
0.777947
0.777948
0.777949
0.777949
0.777949
0.77795
0.77795
0.77795
0.77795
0.77795
0.777951
0.777951
0.777951
0.777951
0.777951
0.777951
0.777951
0.777951
0.777951
0.777951
0.777951
0.777951
0.777951
0.777951
0.777951
0.777951
0.777951
0.777951
0.777951
0.777951
0.777951
0.777951
0.777951
0.777951
0.777951
0.777951
0.777951
0.777951
0.77795
0.77795
0.77795
0.77795
0.77795
0.777949
0.777949
0.777949
0.777948
0.777947
0.777944
0.777936
0.777917
0.777866
0.777736
0.777436
0.791719
0.792013
0.792142
0.792195
0.792215
0.792222
0.792225
0.792227
0.792228
0.792228
0.792228
0.792229
0.792229
0.792229
0.792229
0.792229
0.792229
0.792229
0.79223
0.79223
0.79223
0.79223
0.79223
0.79223
0.79223
0.79223
0.79223
0.79223
0.79223
0.79223
0.79223
0.79223
0.79223
0.79223
0.79223
0.79223
0.79223
0.79223
0.79223
0.79223
0.79223
0.79223
0.792229
0.792229
0.792229
0.792229
0.792229
0.792229
0.792229
0.792228
0.792228
0.792228
0.792227
0.792225
0.792222
0.792215
0.792195
0.792142
0.792013
0.791719
0.805266
0.805553
0.805682
0.805735
0.805755
0.805764
0.805767
0.805768
0.805769
0.805769
0.80577
0.80577
0.80577
0.80577
0.80577
0.80577
0.805771
0.805771
0.805771
0.805771
0.805771
0.805771
0.805771
0.805771
0.805771
0.805771
0.805771
0.805771
0.805771
0.805771
0.805771
0.805771
0.805771
0.805771
0.805771
0.805771
0.805771
0.805771
0.805771
0.805771
0.805771
0.805771
0.805771
0.805771
0.80577
0.80577
0.80577
0.80577
0.80577
0.80577
0.805769
0.805769
0.805768
0.805767
0.805764
0.805755
0.805735
0.805682
0.805553
0.805266
0.8181
0.818381
0.818509
0.818563
0.818584
0.818593
0.818596
0.818598
0.818598
0.818599
0.818599
0.818599
0.818599
0.8186
0.8186
0.8186
0.8186
0.8186
0.8186
0.8186
0.8186
0.8186
0.8186
0.8186
0.8186
0.8186
0.8186
0.8186
0.8186
0.8186
0.8186
0.8186
0.8186
0.8186
0.8186
0.8186
0.8186
0.8186
0.8186
0.8186
0.8186
0.8186
0.8186
0.8186
0.8186
0.8186
0.8186
0.818599
0.818599
0.818599
0.818599
0.818598
0.818598
0.818596
0.818593
0.818584
0.818563
0.818509
0.818381
0.8181
0.83025
0.830523
0.830651
0.830705
0.830727
0.830736
0.830739
0.830741
0.830742
0.830742
0.830742
0.830742
0.830743
0.830743
0.830743
0.830743
0.830743
0.830743
0.830743
0.830743
0.830743
0.830743
0.830743
0.830743
0.830743
0.830743
0.830743
0.830743
0.830743
0.830743
0.830743
0.830743
0.830743
0.830743
0.830743
0.830743
0.830743
0.830743
0.830743
0.830743
0.830743
0.830743
0.830743
0.830743
0.830743
0.830743
0.830743
0.830743
0.830742
0.830742
0.830742
0.830742
0.830741
0.830739
0.830736
0.830727
0.830705
0.830651
0.830523
0.83025
0.841739
0.842005
0.842131
0.842186
0.842209
0.842218
0.842221
0.842223
0.842224
0.842224
0.842224
0.842225
0.842225
0.842225
0.842225
0.842225
0.842225
0.842225
0.842225
0.842225
0.842225
0.842225
0.842225
0.842225
0.842225
0.842225
0.842225
0.842225
0.842225
0.842225
0.842225
0.842225
0.842225
0.842225
0.842225
0.842225
0.842225
0.842225
0.842225
0.842225
0.842225
0.842225
0.842225
0.842225
0.842225
0.842225
0.842225
0.842225
0.842225
0.842224
0.842224
0.842224
0.842223
0.842221
0.842218
0.842209
0.842186
0.842131
0.842005
0.841739
0.852593
0.852851
0.852976
0.853032
0.853055
0.853064
0.853068
0.853069
0.85307
0.853071
0.853071
0.853071
0.853071
0.853071
0.853071
0.853071
0.853072
0.853072
0.853072
0.853072
0.853072
0.853072
0.853072
0.853072
0.853072
0.853072
0.853072
0.853072
0.853072
0.853072
0.853072
0.853072
0.853072
0.853072
0.853072
0.853072
0.853072
0.853072
0.853072
0.853072
0.853072
0.853072
0.853072
0.853072
0.853071
0.853071
0.853071
0.853071
0.853071
0.853071
0.853071
0.85307
0.853069
0.853068
0.853064
0.853055
0.853032
0.852976
0.852851
0.852593
0.862836
0.863086
0.86321
0.863266
0.863289
0.863299
0.863303
0.863305
0.863306
0.863306
0.863306
0.863306
0.863307
0.863307
0.863307
0.863307
0.863307
0.863307
0.863307
0.863307
0.863307
0.863307
0.863307
0.863307
0.863307
0.863307
0.863307
0.863307
0.863307
0.863307
0.863307
0.863307
0.863307
0.863307
0.863307
0.863307
0.863307
0.863307
0.863307
0.863307
0.863307
0.863307
0.863307
0.863307
0.863307
0.863307
0.863307
0.863307
0.863306
0.863306
0.863306
0.863306
0.863305
0.863303
0.863299
0.863289
0.863266
0.86321
0.863086
0.862836
0.872494
0.872736
0.872858
0.872914
0.872938
0.872948
0.872952
0.872954
0.872955
0.872955
0.872955
0.872955
0.872956
0.872956
0.872956
0.872956
0.872956
0.872956
0.872956
0.872956
0.872956
0.872956
0.872956
0.872956
0.872956
0.872956
0.872956
0.872956
0.872956
0.872956
0.872956
0.872956
0.872956
0.872956
0.872956
0.872956
0.872956
0.872956
0.872956
0.872956
0.872956
0.872956
0.872956
0.872956
0.872956
0.872956
0.872956
0.872956
0.872955
0.872955
0.872955
0.872955
0.872954
0.872952
0.872948
0.872938
0.872914
0.872858
0.872736
0.872494
0.881589
0.881823
0.881943
0.881999
0.882024
0.882034
0.882039
0.88204
0.882041
0.882042
0.882042
0.882042
0.882042
0.882042
0.882042
0.882042
0.882042
0.882042
0.882043
0.882043
0.882043
0.882043
0.882043
0.882043
0.882043
0.882043
0.882043
0.882043
0.882043
0.882043
0.882043
0.882043
0.882043
0.882043
0.882043
0.882043
0.882043
0.882043
0.882043
0.882043
0.882043
0.882043
0.882042
0.882042
0.882042
0.882042
0.882042
0.882042
0.882042
0.882042
0.882042
0.882041
0.88204
0.882039
0.882034
0.882024
0.881999
0.881943
0.881823
0.881589
0.890147
0.890372
0.89049
0.890546
0.890571
0.890582
0.890587
0.890588
0.890589
0.89059
0.89059
0.89059
0.89059
0.89059
0.89059
0.89059
0.890591
0.890591
0.890591
0.890591
0.890591
0.890591
0.890591
0.890591
0.890591
0.890591
0.890591
0.890591
0.890591
0.890591
0.890591
0.890591
0.890591
0.890591
0.890591
0.890591
0.890591
0.890591
0.890591
0.890591
0.890591
0.890591
0.890591
0.890591
0.89059
0.89059
0.89059
0.89059
0.89059
0.89059
0.89059
0.890589
0.890588
0.890587
0.890582
0.890571
0.890546
0.89049
0.890372
0.890147
0.898189
0.898407
0.898522
0.898578
0.898603
0.898615
0.898619
0.898621
0.898622
0.898623
0.898623
0.898623
0.898623
0.898623
0.898623
0.898623
0.898623
0.898623
0.898623
0.898624
0.898624
0.898624
0.898624
0.898624
0.898624
0.898624
0.898624
0.898624
0.898624
0.898624
0.898624
0.898624
0.898624
0.898624
0.898624
0.898624
0.898624
0.898624
0.898624
0.898624
0.898624
0.898623
0.898623
0.898623
0.898623
0.898623
0.898623
0.898623
0.898623
0.898623
0.898623
0.898622
0.898621
0.898619
0.898615
0.898603
0.898578
0.898522
0.898407
0.898189
0.90574
0.905949
0.906062
0.906118
0.906144
0.906155
0.90616
0.906162
0.906163
0.906164
0.906164
0.906164
0.906164
0.906164
0.906164
0.906164
0.906164
0.906164
0.906164
0.906164
0.906164
0.906164
0.906164
0.906164
0.906164
0.906164
0.906164
0.906164
0.906164
0.906164
0.906164
0.906164
0.906164
0.906164
0.906164
0.906164
0.906164
0.906164
0.906164
0.906164
0.906164
0.906164
0.906164
0.906164
0.906164
0.906164
0.906164
0.906164
0.906164
0.906164
0.906164
0.906163
0.906162
0.90616
0.906155
0.906144
0.906118
0.906062
0.905949
0.90574
0.912822
0.913022
0.913133
0.913188
0.913214
0.913226
0.913231
0.913233
0.913234
0.913235
0.913235
0.913235
0.913235
0.913235
0.913235
0.913235
0.913235
0.913235
0.913235
0.913235
0.913235
0.913235
0.913235
0.913235
0.913235
0.913235
0.913235
0.913235
0.913235
0.913235
0.913235
0.913235
0.913235
0.913235
0.913235
0.913235
0.913235
0.913235
0.913235
0.913235
0.913235
0.913235
0.913235
0.913235
0.913235
0.913235
0.913235
0.913235
0.913235
0.913235
0.913235
0.913234
0.913233
0.913231
0.913226
0.913214
0.913188
0.913133
0.913022
0.912822
0.919456
0.919648
0.919756
0.91981
0.919837
0.919848
0.919854
0.919856
0.919857
0.919858
0.919858
0.919858
0.919858
0.919858
0.919858
0.919858
0.919858
0.919858
0.919859
0.919859
0.919859
0.919859
0.919859
0.919859
0.919859
0.919859
0.919859
0.919859
0.919859
0.919859
0.919859
0.919859
0.919859
0.919859
0.919859
0.919859
0.919859
0.919859
0.919859
0.919859
0.919859
0.919859
0.919858
0.919858
0.919858
0.919858
0.919858
0.919858
0.919858
0.919858
0.919858
0.919857
0.919856
0.919854
0.919848
0.919837
0.91981
0.919756
0.919648
0.919456
0.925664
0.925848
0.925952
0.926007
0.926033
0.926045
0.926051
0.926053
0.926054
0.926055
0.926055
0.926055
0.926055
0.926055
0.926055
0.926056
0.926056
0.926056
0.926056
0.926056
0.926056
0.926056
0.926056
0.926056
0.926056
0.926056
0.926056
0.926056
0.926056
0.926056
0.926056
0.926056
0.926056
0.926056
0.926056
0.926056
0.926056
0.926056
0.926056
0.926056
0.926056
0.926056
0.926056
0.926056
0.926056
0.926055
0.926055
0.926055
0.926055
0.926055
0.926055
0.926054
0.926053
0.926051
0.926045
0.926033
0.926007
0.925952
0.925848
0.925664
0.931467
0.931643
0.931744
0.931798
0.931824
0.931837
0.931842
0.931845
0.931846
0.931847
0.931847
0.931847
0.931847
0.931847
0.931847
0.931847
0.931847
0.931847
0.931847
0.931847
0.931847
0.931847
0.931847
0.931847
0.931847
0.931847
0.931847
0.931847
0.931847
0.931847
0.931847
0.931847
0.931847
0.931847
0.931847
0.931847
0.931847
0.931847
0.931847
0.931847
0.931847
0.931847
0.931847