/*--------------------------------*- C++ -*----------------------------------*\
| =========                 |                                                 |
| \\      /  F ield         | foam-extend: Open Source CFD                    |
|  \\    /   O peration     | Version:     4.0                                |
|   \\  /    A nd           | Web:         http://www.foam-extend.org         |
|    \\/     M anipulation  |                                                 |
\*---------------------------------------------------------------------------*/
FoamFile
{
    version     2.0;
    format      ascii;
    class       volScalarField;
    location    "1260";
    object      cPlus;
}
// * * * * * * * * * * * * * * * * * * * * * * * * * * * * * * * * * * * * * //

dimensions      [0 0 0 0 0 0 0];

internalField   nonuniform List<scalar> 
6960
(
0.301516
0.301494
0.301469
0.301446
0.301426
0.301408
0.301393
0.30138
0.30137
0.301361
0.301354
0.301348
0.301343
0.301339
0.301336
0.301333
0.301331
0.301329
0.301328
0.301327
0.301326
0.301325
0.301325
0.301324
0.301324
0.301324
0.301323
0.301323
0.301323
0.301323
0.301323
0.301323
0.301323
0.301323
0.301324
0.301324
0.301324
0.301325
0.301325
0.301326
0.301327
0.301328
0.301329
0.301331
0.301333
0.301336
0.301339
0.301343
0.301348
0.301354
0.301361
0.30137
0.30138
0.301393
0.301408
0.301426
0.301446
0.301469
0.301494
0.301516
0.0909238
0.0909105
0.0908951
0.0908805
0.0908676
0.0908564
0.0908469
0.0908389
0.0908322
0.0908267
0.0908222
0.0908184
0.0908154
0.0908129
0.0908109
0.0908092
0.0908079
0.0908068
0.0908059
0.0908052
0.0908047
0.0908042
0.0908038
0.0908035
0.0908033
0.0908031
0.090803
0.0908029
0.0908028
0.0908028
0.0908028
0.0908028
0.0908029
0.090803
0.0908031
0.0908033
0.0908035
0.0908038
0.0908042
0.0908047
0.0908052
0.0908059
0.0908068
0.0908079
0.0908092
0.0908109
0.0908129
0.0908154
0.0908184
0.0908222
0.0908267
0.0908322
0.0908389
0.0908469
0.0908564
0.0908676
0.0908805
0.0908951
0.0909105
0.0909238
0.0335839
0.033578
0.0335709
0.0335641
0.0335581
0.0335528
0.0335484
0.0335446
0.0335415
0.0335389
0.0335367
0.033535
0.0335335
0.0335324
0.0335314
0.0335306
0.03353
0.0335295
0.0335291
0.0335287
0.0335285
0.0335282
0.0335281
0.0335279
0.0335278
0.0335277
0.0335277
0.0335276
0.0335276
0.0335276
0.0335276
0.0335276
0.0335276
0.0335277
0.0335277
0.0335278
0.0335279
0.0335281
0.0335282
0.0335285
0.0335287
0.0335291
0.0335295
0.03353
0.0335306
0.0335314
0.0335324
0.0335335
0.033535
0.0335367
0.0335389
0.0335415
0.0335446
0.0335484
0.0335528
0.0335581
0.0335641
0.0335709
0.033578
0.0335839
0.0157035
0.0157021
0.0156999
0.0156978
0.0156958
0.0156941
0.0156927
0.0156915
0.0156904
0.0156896
0.0156889
0.0156883
0.0156878
0.0156875
0.0156871
0.0156869
0.0156867
0.0156865
0.0156864
0.0156863
0.0156862
0.0156861
0.015686
0.015686
0.0156859
0.0156859
0.0156859
0.0156859
0.0156859
0.0156859
0.0156859
0.0156859
0.0156859
0.0156859
0.0156859
0.0156859
0.015686
0.015686
0.0156861
0.0156862
0.0156863
0.0156864
0.0156865
0.0156867
0.0156869
0.0156871
0.0156875
0.0156878
0.0156883
0.0156889
0.0156896
0.0156904
0.0156915
0.0156927
0.0156941
0.0156958
0.0156978
0.0156999
0.0157021
0.0157035
0.0100112
0.010012
0.0100123
0.0100125
0.0100126
0.0100127
0.0100128
0.0100128
0.0100129
0.0100129
0.0100129
0.0100129
0.0100129
0.0100129
0.0100129
0.0100129
0.0100129
0.0100129
0.0100129
0.0100129
0.0100129
0.0100129
0.0100129
0.0100129
0.0100129
0.0100129
0.0100129
0.0100129
0.0100129
0.0100129
0.0100129
0.0100129
0.0100129
0.0100129
0.0100129
0.0100129
0.0100129
0.0100129
0.0100129
0.0100129
0.0100129
0.0100129
0.0100129
0.0100129
0.0100129
0.0100129
0.0100129
0.0100129
0.0100129
0.0100129
0.0100129
0.0100129
0.0100128
0.0100128
0.0100127
0.0100126
0.0100125
0.0100123
0.010012
0.0100112
0.00825068
0.00825246
0.00825388
0.00825509
0.00825612
0.008257
0.00825774
0.00825835
0.00825886
0.00825927
0.00825961
0.00825989
0.00826011
0.00826029
0.00826044
0.00826056
0.00826065
0.00826073
0.00826079
0.00826084
0.00826088
0.00826091
0.00826093
0.00826095
0.00826097
0.00826098
0.00826099
0.00826099
0.008261
0.008261
0.008261
0.008261
0.00826099
0.00826099
0.00826098
0.00826097
0.00826095
0.00826093
0.00826091
0.00826088
0.00826084
0.00826079
0.00826073
0.00826065
0.00826056
0.00826044
0.00826029
0.00826011
0.00825989
0.00825961
0.00825927
0.00825886
0.00825835
0.00825774
0.008257
0.00825612
0.00825509
0.00825388
0.00825246
0.00825068
0.00775421
0.0077564
0.00775828
0.00775993
0.00776134
0.00776255
0.00776357
0.00776442
0.00776512
0.0077657
0.00776617
0.00776656
0.00776687
0.00776713
0.00776733
0.0077675
0.00776763
0.00776774
0.00776782
0.00776789
0.00776795
0.00776799
0.00776803
0.00776806
0.00776808
0.0077681
0.00776811
0.00776812
0.00776813
0.00776813
0.00776813
0.00776813
0.00776812
0.00776811
0.0077681
0.00776808
0.00776806
0.00776803
0.00776799
0.00776795
0.00776789
0.00776782
0.00776774
0.00776763
0.0077675
0.00776733
0.00776713
0.00776687
0.00776656
0.00776617
0.0077657
0.00776512
0.00776442
0.00776357
0.00776255
0.00776134
0.00775993
0.00775828
0.0077564
0.00775421
0.00765767
0.00766005
0.00766213
0.00766395
0.00766553
0.00766687
0.007668
0.00766895
0.00766974
0.00767038
0.00767091
0.00767134
0.00767169
0.00767198
0.00767221
0.00767239
0.00767254
0.00767266
0.00767276
0.00767284
0.0076729
0.00767295
0.00767299
0.00767303
0.00767305
0.00767307
0.00767308
0.00767309
0.0076731
0.0076731
0.0076731
0.0076731
0.00767309
0.00767308
0.00767307
0.00767305
0.00767303
0.00767299
0.00767295
0.0076729
0.00767284
0.00767276
0.00767266
0.00767254
0.00767239
0.00767221
0.00767198
0.00767169
0.00767134
0.00767091
0.00767038
0.00766974
0.00766895
0.007668
0.00766687
0.00766553
0.00766395
0.00766213
0.00766005
0.00765767
0.00768678
0.00768925
0.00769142
0.00769333
0.00769498
0.00769639
0.00769758
0.00769857
0.00769939
0.00770007
0.00770063
0.00770108
0.00770145
0.00770175
0.00770199
0.00770218
0.00770234
0.00770247
0.00770257
0.00770265
0.00770272
0.00770277
0.00770281
0.00770285
0.00770287
0.0077029
0.00770291
0.00770292
0.00770293
0.00770293
0.00770293
0.00770293
0.00770292
0.00770291
0.0077029
0.00770287
0.00770285
0.00770281
0.00770277
0.00770272
0.00770265
0.00770257
0.00770247
0.00770234
0.00770218
0.00770199
0.00770175
0.00770145
0.00770108
0.00770063
0.00770007
0.00769939
0.00769857
0.00769758
0.00769639
0.00769498
0.00769333
0.00769142
0.00768925
0.00768678
0.00775705
0.00775958
0.0077618
0.00776376
0.00776546
0.00776691
0.00776813
0.00776915
0.00777
0.0077707
0.00777127
0.00777173
0.00777211
0.00777242
0.00777267
0.00777287
0.00777303
0.00777316
0.00777327
0.00777335
0.00777342
0.00777348
0.00777352
0.00777356
0.00777358
0.0077736
0.00777362
0.00777363
0.00777364
0.00777364
0.00777364
0.00777364
0.00777363
0.00777362
0.0077736
0.00777358
0.00777356
0.00777352
0.00777348
0.00777342
0.00777335
0.00777327
0.00777316
0.00777303
0.00777287
0.00777267
0.00777242
0.00777211
0.00777173
0.00777127
0.0077707
0.00777
0.00776915
0.00776813
0.00776691
0.00776546
0.00776376
0.0077618
0.00775958
0.00775705
0.00784348
0.00784607
0.00784834
0.00785034
0.00785208
0.00785356
0.00785481
0.00785585
0.00785672
0.00785743
0.00785802
0.00785849
0.00785888
0.0078592
0.00785945
0.00785966
0.00785982
0.00785996
0.00786007
0.00786015
0.00786022
0.00786028
0.00786032
0.00786036
0.00786039
0.00786041
0.00786043
0.00786044
0.00786044
0.00786045
0.00786045
0.00786044
0.00786044
0.00786043
0.00786041
0.00786039
0.00786036
0.00786032
0.00786028
0.00786022
0.00786015
0.00786007
0.00785996
0.00785982
0.00785966
0.00785945
0.0078592
0.00785888
0.00785849
0.00785802
0.00785743
0.00785672
0.00785585
0.00785481
0.00785356
0.00785208
0.00785034
0.00784834
0.00784607
0.00784348
0.00793924
0.00794189
0.00794421
0.00794625
0.00794803
0.00794954
0.00795081
0.00795188
0.00795276
0.00795349
0.00795409
0.00795458
0.00795498
0.0079553
0.00795556
0.00795577
0.00795594
0.00795608
0.00795619
0.00795628
0.00795635
0.00795641
0.00795645
0.00795649
0.00795652
0.00795654
0.00795656
0.00795657
0.00795658
0.00795658
0.00795658
0.00795658
0.00795657
0.00795656
0.00795654
0.00795652
0.00795649
0.00795645
0.00795641
0.00795635
0.00795628
0.00795619
0.00795608
0.00795594
0.00795577
0.00795556
0.0079553
0.00795498
0.00795458
0.00795409
0.00795349
0.00795276
0.00795188
0.00795081
0.00794954
0.00794803
0.00794625
0.00794421
0.00794189
0.00793924
0.00804289
0.0080456
0.00804797
0.00805006
0.00805187
0.00805342
0.00805472
0.00805581
0.00805672
0.00805746
0.00805807
0.00805857
0.00805898
0.00805931
0.00805958
0.00805979
0.00805997
0.00806011
0.00806022
0.00806031
0.00806038
0.00806044
0.00806049
0.00806053
0.00806056
0.00806058
0.0080606
0.00806061
0.00806062
0.00806062
0.00806062
0.00806062
0.00806061
0.0080606
0.00806058
0.00806056
0.00806053
0.00806049
0.00806044
0.00806038
0.00806031
0.00806022
0.00806011
0.00805997
0.00805979
0.00805958
0.00805931
0.00805898
0.00805857
0.00805807
0.00805746
0.00805672
0.00805581
0.00805472
0.00805342
0.00805187
0.00805006
0.00804797
0.0080456
0.00804289
0.00815461
0.00815738
0.00815981
0.00816195
0.0081638
0.00816538
0.00816671
0.00816783
0.00816876
0.00816952
0.00817015
0.00817066
0.00817107
0.00817141
0.00817168
0.00817191
0.00817208
0.00817223
0.00817234
0.00817244
0.00817251
0.00817257
0.00817262
0.00817266
0.00817269
0.00817271
0.00817273
0.00817274
0.00817275
0.00817276
0.00817276
0.00817275
0.00817274
0.00817273
0.00817271
0.00817269
0.00817266
0.00817262
0.00817257
0.00817251
0.00817244
0.00817234
0.00817223
0.00817208
0.00817191
0.00817168
0.00817141
0.00817107
0.00817066
0.00817015
0.00816952
0.00816876
0.00816783
0.00816671
0.00816538
0.0081638
0.00816195
0.00815981
0.00815738
0.00815461
0.00827509
0.00827793
0.00828042
0.00828261
0.00828451
0.00828613
0.0082875
0.00828864
0.00828959
0.00829038
0.00829102
0.00829154
0.00829197
0.00829232
0.0082926
0.00829283
0.00829301
0.00829316
0.00829328
0.00829337
0.00829345
0.00829351
0.00829356
0.0082936
0.00829363
0.00829365
0.00829367
0.00829369
0.00829369
0.0082937
0.0082937
0.00829369
0.00829369
0.00829367
0.00829365
0.00829363
0.0082936
0.00829356
0.00829351
0.00829345
0.00829337
0.00829328
0.00829316
0.00829301
0.00829283
0.0082926
0.00829232
0.00829197
0.00829154
0.00829102
0.00829038
0.00828959
0.00828864
0.0082875
0.00828613
0.00828451
0.00828261
0.00828042
0.00827793
0.00827509
0.0084053
0.00840822
0.00841077
0.00841302
0.00841497
0.00841663
0.00841804
0.00841921
0.00842019
0.00842099
0.00842165
0.00842219
0.00842263
0.00842299
0.00842328
0.00842351
0.0084237
0.00842385
0.00842397
0.00842407
0.00842415
0.00842421
0.00842427
0.00842431
0.00842434
0.00842436
0.00842438
0.00842439
0.0084244
0.00842441
0.00842441
0.0084244
0.00842439
0.00842438
0.00842436
0.00842434
0.00842431
0.00842427
0.00842421
0.00842415
0.00842407
0.00842397
0.00842385
0.0084237
0.00842351
0.00842328
0.00842299
0.00842263
0.00842219
0.00842165
0.00842099
0.00842019
0.00841921
0.00841804
0.00841663
0.00841497
0.00841302
0.00841077
0.00840822
0.0084053
0.00854637
0.00854938
0.00855201
0.00855432
0.00855632
0.00855804
0.00855948
0.00856069
0.00856169
0.00856252
0.0085632
0.00856376
0.00856421
0.00856457
0.00856487
0.00856511
0.00856531
0.00856546
0.00856559
0.00856569
0.00856577
0.00856584
0.00856589
0.00856593
0.00856596
0.00856599
0.00856601
0.00856602
0.00856603
0.00856604
0.00856604
0.00856603
0.00856602
0.00856601
0.00856599
0.00856596
0.00856593
0.00856589
0.00856584
0.00856577
0.00856569
0.00856559
0.00856546
0.00856531
0.00856511
0.00856487
0.00856457
0.00856421
0.00856376
0.0085632
0.00856252
0.00856169
0.00856069
0.00855948
0.00855804
0.00855632
0.00855432
0.00855201
0.00854938
0.00854637
0.00869967
0.00870277
0.00870548
0.00870787
0.00870993
0.00871169
0.00871318
0.00871443
0.00871546
0.00871632
0.00871702
0.00871759
0.00871806
0.00871844
0.00871874
0.00871899
0.00871919
0.00871935
0.00871948
0.00871959
0.00871967
0.00871974
0.0087198
0.00871984
0.00871987
0.0087199
0.00871992
0.00871993
0.00871994
0.00871995
0.00871995
0.00871994
0.00871993
0.00871992
0.0087199
0.00871987
0.00871984
0.0087198
0.00871974
0.00871967
0.00871959
0.00871948
0.00871935
0.00871919
0.00871899
0.00871874
0.00871844
0.00871806
0.00871759
0.00871702
0.00871632
0.00871546
0.00871443
0.00871318
0.00871169
0.00870993
0.00870787
0.00870548
0.00870277
0.00869967
0.00886678
0.00887
0.0088728
0.00887526
0.00887739
0.00887921
0.00888075
0.00888204
0.00888311
0.00888399
0.00888472
0.00888531
0.00888579
0.00888618
0.0088865
0.00888676
0.00888696
0.00888713
0.00888727
0.00888737
0.00888746
0.00888753
0.00888759
0.00888763
0.00888767
0.0088877
0.00888772
0.00888773
0.00888774
0.00888774
0.00888774
0.00888774
0.00888773
0.00888772
0.0088877
0.00888767
0.00888763
0.00888759
0.00888753
0.00888746
0.00888737
0.00888727
0.00888713
0.00888696
0.00888676
0.0088865
0.00888618
0.00888579
0.00888531
0.00888472
0.00888399
0.00888311
0.00888204
0.00888075
0.00887921
0.00887739
0.00887526
0.0088728
0.00887
0.00886678
0.00904962
0.00905296
0.00905586
0.00905841
0.00906062
0.0090625
0.0090641
0.00906543
0.00906654
0.00906746
0.00906821
0.00906882
0.00906932
0.00906973
0.00907006
0.00907032
0.00907054
0.00907071
0.00907085
0.00907096
0.00907106
0.00907113
0.00907119
0.00907123
0.00907127
0.0090713
0.00907132
0.00907133
0.00907134
0.00907135
0.00907135
0.00907134
0.00907133
0.00907132
0.0090713
0.00907127
0.00907123
0.00907119
0.00907113
0.00907106
0.00907096
0.00907085
0.00907071
0.00907054
0.00907032
0.00907006
0.00906973
0.00906932
0.00906882
0.00906821
0.00906746
0.00906654
0.00906543
0.0090641
0.0090625
0.00906062
0.00905841
0.00905586
0.00905296
0.00904962
0.00925047
0.00925394
0.00925695
0.0092596
0.0092619
0.00926386
0.00926552
0.0092669
0.00926806
0.00926901
0.00926979
0.00927043
0.00927095
0.00927137
0.00927171
0.00927199
0.00927221
0.00927239
0.00927254
0.00927266
0.00927275
0.00927283
0.00927289
0.00927294
0.00927297
0.009273
0.00927302
0.00927304
0.00927305
0.00927306
0.00927306
0.00927305
0.00927304
0.00927302
0.009273
0.00927297
0.00927294
0.00927289
0.00927283
0.00927275
0.00927266
0.00927254
0.00927239
0.00927221
0.00927199
0.00927171
0.00927137
0.00927095
0.00927043
0.00926979
0.00926901
0.00926806
0.0092669
0.00926552
0.00926386
0.0092619
0.0092596
0.00925695
0.00925394
0.00925047
0.0094721
0.00947571
0.00947886
0.00948162
0.00948401
0.00948606
0.00948779
0.00948923
0.00949044
0.00949143
0.00949224
0.00949291
0.00949345
0.00949389
0.00949425
0.00949454
0.00949477
0.00949496
0.00949511
0.00949523
0.00949533
0.00949541
0.00949548
0.00949553
0.00949557
0.0094956
0.00949562
0.00949564
0.00949565
0.00949565
0.00949565
0.00949565
0.00949564
0.00949562
0.0094956
0.00949557
0.00949553
0.00949548
0.00949541
0.00949533
0.00949523
0.00949511
0.00949496
0.00949477
0.00949454
0.00949425
0.00949389
0.00949345
0.00949291
0.00949224
0.00949143
0.00949044
0.00948923
0.00948779
0.00948606
0.00948401
0.00948162
0.00947886
0.00947571
0.0094721
0.00971789
0.00972167
0.00972496
0.00972786
0.00973036
0.0097325
0.00973431
0.00973582
0.00973708
0.00973812
0.00973897
0.00973967
0.00974024
0.0097407
0.00974108
0.00974138
0.00974162
0.00974182
0.00974198
0.00974211
0.00974221
0.0097423
0.00974236
0.00974242
0.00974246
0.00974249
0.00974251
0.00974253
0.00974254
0.00974255
0.00974255
0.00974254
0.00974253
0.00974251
0.00974249
0.00974246
0.00974242
0.00974236
0.0097423
0.00974221
0.00974211
0.00974198
0.00974182
0.00974162
0.00974138
0.00974108
0.0097407
0.00974024
0.00973967
0.00973897
0.00973812
0.00973708
0.00973582
0.00973431
0.0097325
0.00973036
0.00972786
0.00972496
0.00972167
0.00971789
0.00999203
0.00999602
0.00999947
0.0100025
0.0100051
0.0100074
0.0100093
0.0100109
0.0100122
0.0100133
0.0100142
0.0100149
0.0100155
0.010016
0.0100164
0.0100167
0.010017
0.0100172
0.0100174
0.0100175
0.0100176
0.0100177
0.0100178
0.0100178
0.0100179
0.0100179
0.0100179
0.0100179
0.010018
0.010018
0.010018
0.010018
0.0100179
0.0100179
0.0100179
0.0100179
0.0100178
0.0100178
0.0100177
0.0100176
0.0100175
0.0100174
0.0100172
0.010017
0.0100167
0.0100164
0.010016
0.0100155
0.0100149
0.0100142
0.0100133
0.0100122
0.0100109
0.0100093
0.0100074
0.0100051
0.0100025
0.00999947
0.00999602
0.00999203
0.0102998
0.010304
0.0103077
0.0103109
0.0103137
0.010316
0.010318
0.0103197
0.0103211
0.0103223
0.0103232
0.010324
0.0103246
0.0103252
0.0103256
0.0103259
0.0103262
0.0103264
0.0103266
0.0103267
0.0103268
0.0103269
0.010327
0.0103271
0.0103271
0.0103271
0.0103272
0.0103272
0.0103272
0.0103272
0.0103272
0.0103272
0.0103272
0.0103272
0.0103271
0.0103271
0.0103271
0.010327
0.0103269
0.0103268
0.0103267
0.0103266
0.0103264
0.0103262
0.0103259
0.0103256
0.0103252
0.0103246
0.010324
0.0103232
0.0103223
0.0103211
0.0103197
0.010318
0.010316
0.0103137
0.0103109
0.0103077
0.010304
0.0102998
0.0106479
0.0106523
0.0106562
0.0106596
0.0106626
0.0106651
0.0106673
0.0106691
0.0106705
0.0106718
0.0106728
0.0106736
0.0106743
0.0106748
0.0106753
0.0106756
0.0106759
0.0106762
0.0106764
0.0106765
0.0106766
0.0106767
0.0106768
0.0106769
0.0106769
0.010677
0.010677
0.010677
0.010677
0.010677
0.010677
0.010677
0.010677
0.010677
0.010677
0.0106769
0.0106769
0.0106768
0.0106767
0.0106766
0.0106765
0.0106764
0.0106762
0.0106759
0.0106756
0.0106753
0.0106748
0.0106743
0.0106736
0.0106728
0.0106718
0.0106705
0.0106691
0.0106673
0.0106651
0.0106626
0.0106596
0.0106562
0.0106523
0.0106479
0.0110449
0.0110497
0.0110539
0.0110575
0.0110607
0.0110634
0.0110657
0.0110676
0.0110692
0.0110705
0.0110716
0.0110725
0.0110732
0.0110738
0.0110743
0.0110747
0.011075
0.0110752
0.0110754
0.0110756
0.0110757
0.0110758
0.0110759
0.011076
0.011076
0.0110761
0.0110761
0.0110761
0.0110761
0.0110761
0.0110761
0.0110761
0.0110761
0.0110761
0.0110761
0.011076
0.011076
0.0110759
0.0110758
0.0110757
0.0110756
0.0110754
0.0110752
0.011075
0.0110747
0.0110743
0.0110738
0.0110732
0.0110725
0.0110716
0.0110705
0.0110692
0.0110676
0.0110657
0.0110634
0.0110607
0.0110575
0.0110539
0.0110497
0.0110449
0.0115023
0.0115075
0.011512
0.011516
0.0115194
0.0115223
0.0115248
0.0115269
0.0115286
0.01153
0.0115312
0.0115321
0.0115329
0.0115336
0.0115341
0.0115345
0.0115348
0.0115351
0.0115353
0.0115355
0.0115356
0.0115357
0.0115358
0.0115359
0.011536
0.011536
0.011536
0.0115361
0.0115361
0.0115361
0.0115361
0.0115361
0.0115361
0.011536
0.011536
0.011536
0.0115359
0.0115358
0.0115357
0.0115356
0.0115355
0.0115353
0.0115351
0.0115348
0.0115345
0.0115341
0.0115336
0.0115329
0.0115321
0.0115312
0.01153
0.0115286
0.0115269
0.0115248
0.0115223
0.0115194
0.011516
0.011512
0.0115075
0.0115023
0.0120356
0.0120412
0.0120461
0.0120504
0.0120542
0.0120573
0.01206
0.0120623
0.0120642
0.0120657
0.012067
0.0120681
0.0120689
0.0120696
0.0120702
0.0120706
0.012071
0.0120713
0.0120715
0.0120717
0.0120719
0.012072
0.0120721
0.0120722
0.0120723
0.0120723
0.0120723
0.0120724
0.0120724
0.0120724
0.0120724
0.0120724
0.0120724
0.0120723
0.0120723
0.0120723
0.0120722
0.0120721
0.012072
0.0120719
0.0120717
0.0120715
0.0120713
0.012071
0.0120706
0.0120702
0.0120696
0.0120689
0.0120681
0.012067
0.0120657
0.0120642
0.0120623
0.01206
0.0120573
0.0120542
0.0120504
0.0120461
0.0120412
0.0120356
0.0126658
0.012672
0.0126774
0.0126822
0.0126863
0.0126898
0.0126928
0.0126953
0.0126974
0.0126991
0.0127005
0.0127017
0.0127026
0.0127034
0.012704
0.0127045
0.0127049
0.0127053
0.0127055
0.0127057
0.0127059
0.012706
0.0127062
0.0127062
0.0127063
0.0127064
0.0127064
0.0127064
0.0127065
0.0127065
0.0127065
0.0127065
0.0127064
0.0127064
0.0127064
0.0127063
0.0127062
0.0127062
0.012706
0.0127059
0.0127057
0.0127055
0.0127053
0.0127049
0.0127045
0.012704
0.0127034
0.0127026
0.0127017
0.0127005
0.0126991
0.0126974
0.0126953
0.0126928
0.0126898
0.0126863
0.0126822
0.0126774
0.012672
0.0126658
0.013423
0.01343
0.013436
0.0134414
0.013446
0.01345
0.0134533
0.0134562
0.0134585
0.0134604
0.013462
0.0134633
0.0134644
0.0134652
0.0134659
0.0134665
0.013467
0.0134673
0.0134676
0.0134679
0.0134681
0.0134682
0.0134683
0.0134684
0.0134685
0.0134686
0.0134686
0.0134687
0.0134687
0.0134687
0.0134687
0.0134687
0.0134687
0.0134686
0.0134686
0.0134685
0.0134684
0.0134683
0.0134682
0.0134681
0.0134679
0.0134676
0.0134673
0.013467
0.0134665
0.0134659
0.0134652
0.0134644
0.0134633
0.013462
0.0134604
0.0134585
0.0134562
0.0134533
0.01345
0.013446
0.0134414
0.013436
0.01343
0.013423
0.0143509
0.0143589
0.0143658
0.0143719
0.0143772
0.0143818
0.0143856
0.0143888
0.0143915
0.0143937
0.0143956
0.014397
0.0143983
0.0143992
0.0144
0.0144007
0.0144012
0.0144016
0.014402
0.0144023
0.0144025
0.0144027
0.0144028
0.0144029
0.014403
0.0144031
0.0144031
0.0144032
0.0144032
0.0144032
0.0144032
0.0144032
0.0144032
0.0144031
0.0144031
0.014403
0.0144029
0.0144028
0.0144027
0.0144025
0.0144023
0.014402
0.0144016
0.0144012
0.0144007
0.0144
0.0143992
0.0143983
0.014397
0.0143956
0.0143937
0.0143915
0.0143888
0.0143856
0.0143818
0.0143772
0.0143719
0.0143658
0.0143589
0.0143509
0.0155143
0.0155235
0.0155317
0.0155388
0.015545
0.0155504
0.0155549
0.0155586
0.0155618
0.0155644
0.0155665
0.0155683
0.0155697
0.0155708
0.0155718
0.0155725
0.0155732
0.0155737
0.0155741
0.0155744
0.0155747
0.0155749
0.015575
0.0155752
0.0155753
0.0155753
0.0155754
0.0155755
0.0155755
0.0155755
0.0155755
0.0155755
0.0155755
0.0155754
0.0155753
0.0155753
0.0155752
0.015575
0.0155749
0.0155747
0.0155744
0.0155741
0.0155737
0.0155732
0.0155725
0.0155718
0.0155708
0.0155697
0.0155683
0.0155665
0.0155644
0.0155618
0.0155586
0.0155549
0.0155504
0.015545
0.0155388
0.0155317
0.0155235
0.0155143
0.0170094
0.0170205
0.0170303
0.0170389
0.0170464
0.0170528
0.0170582
0.0170628
0.0170665
0.0170697
0.0170722
0.0170743
0.0170761
0.0170775
0.0170786
0.0170795
0.0170803
0.0170809
0.0170813
0.0170817
0.0170821
0.0170823
0.0170825
0.0170827
0.0170828
0.0170829
0.017083
0.017083
0.0170831
0.0170831
0.0170831
0.0170831
0.017083
0.017083
0.0170829
0.0170828
0.0170827
0.0170825
0.0170823
0.0170821
0.0170817
0.0170813
0.0170809
0.0170803
0.0170795
0.0170786
0.0170775
0.0170761
0.0170743
0.0170722
0.0170697
0.0170665
0.0170628
0.0170582
0.0170528
0.0170464
0.0170389
0.0170303
0.0170205
0.0170094
0.0189765
0.0189901
0.0190022
0.0190128
0.0190221
0.0190301
0.0190368
0.0190424
0.0190471
0.019051
0.0190542
0.0190568
0.0190589
0.0190607
0.0190621
0.0190632
0.0190641
0.0190649
0.0190655
0.019066
0.0190664
0.0190667
0.0190669
0.0190671
0.0190673
0.0190674
0.0190675
0.0190676
0.0190676
0.0190676
0.0190676
0.0190676
0.0190676
0.0190675
0.0190674
0.0190673
0.0190671
0.0190669
0.0190667
0.0190664
0.019066
0.0190655
0.0190649
0.0190641
0.0190632
0.0190621
0.0190607
0.0190589
0.0190568
0.0190542
0.019051
0.0190471
0.0190424
0.0190368
0.0190301
0.0190221
0.0190128
0.0190022
0.0189901
0.0189765
0.0216062
0.0216234
0.0216386
0.0216521
0.0216639
0.0216739
0.0216825
0.0216896
0.0216955
0.0217005
0.0217045
0.0217078
0.0217105
0.0217127
0.0217145
0.021716
0.0217171
0.0217181
0.0217188
0.0217195
0.02172
0.0217204
0.0217207
0.0217209
0.0217211
0.0217213
0.0217214
0.0217215
0.0217215
0.0217216
0.0217216
0.0217215
0.0217215
0.0217214
0.0217213
0.0217211
0.0217209
0.0217207
0.0217204
0.02172
0.0217195
0.0217188
0.0217181
0.0217171
0.021716
0.0217145
0.0217127
0.0217105
0.0217078
0.0217045
0.0217005
0.0216955
0.0216896
0.0216825
0.0216739
0.0216639
0.0216521
0.0216386
0.0216234
0.0216062
0.0251275
0.0251494
0.0251689
0.0251862
0.0252013
0.0252141
0.025225
0.0252342
0.0252418
0.0252481
0.0252533
0.0252575
0.025261
0.0252638
0.0252661
0.0252679
0.0252694
0.0252707
0.0252716
0.0252724
0.0252731
0.0252736
0.025274
0.0252743
0.0252746
0.0252748
0.0252749
0.025275
0.0252751
0.0252751
0.0252751
0.0252751
0.025275
0.0252749
0.0252748
0.0252746
0.0252743
0.025274
0.0252736
0.0252731
0.0252724
0.0252716
0.0252707
0.0252694
0.0252679
0.0252661
0.0252638
0.025261
0.0252575
0.0252533
0.0252481
0.0252418
0.0252342
0.025225
0.0252141
0.0252013
0.0251862
0.0251689
0.0251494
0.0251275
0.0297628
0.0297906
0.0298153
0.0298373
0.0298564
0.0298727
0.0298866
0.0298982
0.0299079
0.0299159
0.0299225
0.0299279
0.0299323
0.0299359
0.0299388
0.0299411
0.0299431
0.0299446
0.0299459
0.0299469
0.0299477
0.0299483
0.0299489
0.0299493
0.0299496
0.0299498
0.02995
0.0299502
0.0299503
0.0299503
0.0299503
0.0299503
0.0299502
0.02995
0.0299498
0.0299496
0.0299493
0.0299489
0.0299483
0.0299477
0.0299469
0.0299459
0.0299446
0.0299431
0.0299411
0.0299388
0.0299359
0.0299323
0.0299279
0.0299225
0.0299159
0.0299079
0.0298982
0.0298866
0.0298727
0.0298564
0.0298373
0.0298153
0.0297906
0.0297628
0.0356548
0.0356894
0.0357201
0.0357474
0.035771
0.0357913
0.0358085
0.0358229
0.0358349
0.0358449
0.0358531
0.0358598
0.0358653
0.0358697
0.0358734
0.0358763
0.0358787
0.0358806
0.0358822
0.0358834
0.0358845
0.0358853
0.0358859
0.0358864
0.0358869
0.0358872
0.0358874
0.0358876
0.0358877
0.0358877
0.0358877
0.0358877
0.0358876
0.0358874
0.0358872
0.0358869
0.0358864
0.0358859
0.0358853
0.0358845
0.0358834
0.0358822
0.0358806
0.0358787
0.0358763
0.0358734
0.0358697
0.0358653
0.0358598
0.0358531
0.0358449
0.0358349
0.0358229
0.0358085
0.0357913
0.035771
0.0357474
0.0357201
0.0356894
0.0356548
0.0428056
0.0428472
0.0428842
0.0429169
0.0429453
0.0429696
0.0429902
0.0430076
0.043022
0.043034
0.0430438
0.0430519
0.0430585
0.0430639
0.0430682
0.0430718
0.0430746
0.043077
0.0430789
0.0430804
0.0430816
0.0430826
0.0430834
0.043084
0.0430845
0.0430849
0.0430852
0.0430854
0.0430855
0.0430856
0.0430856
0.0430855
0.0430854
0.0430852
0.0430849
0.0430845
0.043084
0.0430834
0.0430826
0.0430816
0.0430804
0.0430789
0.043077
0.0430746
0.0430718
0.0430682
0.0430639
0.0430585
0.0430519
0.0430438
0.043034
0.043022
0.0430076
0.0429902
0.0429696
0.0429453
0.0429169
0.0428842
0.0428472
0.0428056
0.0510711
0.0511196
0.0511626
0.0512006
0.0512335
0.0512617
0.0512856
0.0513057
0.0513225
0.0513364
0.0513478
0.0513572
0.0513649
0.0513712
0.0513763
0.0513804
0.0513838
0.0513865
0.0513887
0.0513905
0.0513919
0.051393
0.051394
0.0513947
0.0513953
0.0513957
0.0513961
0.0513963
0.0513965
0.0513965
0.0513965
0.0513965
0.0513963
0.0513961
0.0513957
0.0513953
0.0513947
0.051394
0.051393
0.0513919
0.0513905
0.0513887
0.0513865
0.0513838
0.0513804
0.0513763
0.0513712
0.0513649
0.0513572
0.0513478
0.0513364
0.0513225
0.0513057
0.0512856
0.0512617
0.0512335
0.0512006
0.0511626
0.0511196
0.0510711
0.0602216
0.0602765
0.060325
0.0603677
0.0604048
0.0604366
0.0604636
0.0604862
0.0605051
0.0605208
0.0605337
0.0605443
0.060553
0.0605601
0.0605659
0.0605706
0.0605744
0.0605775
0.06058
0.060582
0.0605836
0.0605849
0.060586
0.0605868
0.0605875
0.060588
0.0605884
0.0605887
0.0605888
0.0605889
0.0605889
0.0605888
0.0605887
0.0605884
0.060588
0.0605875
0.0605868
0.060586
0.0605849
0.0605836
0.060582
0.06058
0.0605775
0.0605744
0.0605706
0.0605659
0.0605601
0.060553
0.0605443
0.0605337
0.0605208
0.0605051
0.0604862
0.0604636
0.0604366
0.0604048
0.0603677
0.060325
0.0602765
0.0602216
0.0700213
0.0700822
0.0701357
0.0701828
0.0702236
0.0702586
0.0702883
0.0703133
0.0703341
0.0703515
0.0703657
0.0703775
0.0703871
0.070395
0.0704014
0.0704066
0.0704108
0.0704142
0.070417
0.0704193
0.0704211
0.0704225
0.0704237
0.0704247
0.0704254
0.070426
0.0704264
0.0704267
0.0704269
0.070427
0.070427
0.0704269
0.0704267
0.0704264
0.070426
0.0704254
0.0704247
0.0704237
0.0704225
0.0704211
0.0704193
0.070417
0.0704142
0.0704108
0.0704066
0.0704014
0.070395
0.0703871
0.0703775
0.0703657
0.0703515
0.0703341
0.0703133
0.0702883
0.0702586
0.0702236
0.0701828
0.0701357
0.0700822
0.0700213
0.0802823
0.0803486
0.0804068
0.0804579
0.0805022
0.0805402
0.0805724
0.0805996
0.0806222
0.0806411
0.0806567
0.0806695
0.08068
0.0806885
0.0806955
0.0807012
0.0807059
0.0807096
0.0807127
0.0807152
0.0807172
0.0807188
0.0807201
0.0807211
0.0807219
0.0807226
0.080723
0.0807234
0.0807236
0.0807237
0.0807237
0.0807236
0.0807234
0.080723
0.0807226
0.0807219
0.0807211
0.0807201
0.0807188
0.0807172
0.0807152
0.0807127
0.0807096
0.0807059
0.0807012
0.0806955
0.0806885
0.08068
0.0806695
0.0806567
0.0806411
0.0806222
0.0805996
0.0805724
0.0805402
0.0805022
0.0804579
0.0804068
0.0803486
0.0802823
0.0908772
0.0909487
0.0910113
0.0910661
0.0911137
0.0911545
0.0911892
0.0912184
0.0912429
0.0912632
0.09128
0.0912938
0.0913052
0.0913145
0.0913221
0.0913282
0.0913333
0.0913374
0.0913407
0.0913434
0.0913456
0.0913473
0.0913487
0.0913499
0.0913508
0.0913515
0.091352
0.0913524
0.0913526
0.0913527
0.0913527
0.0913526
0.0913524
0.091352
0.0913515
0.0913508
0.0913499
0.0913487
0.0913473
0.0913456
0.0913434
0.0913407
0.0913374
0.0913333
0.0913282
0.0913221
0.0913145
0.0913052
0.0912938
0.09128
0.0912632
0.0912429
0.0912184
0.0911892
0.0911545
0.0911137
0.0910661
0.0910113
0.0909487
0.0908772
0.101728
0.101804
0.101871
0.101929
0.10198
0.102024
0.102061
0.102092
0.102118
0.10214
0.102158
0.102173
0.102185
0.102195
0.102203
0.10221
0.102215
0.10222
0.102223
0.102226
0.102229
0.102231
0.102232
0.102233
0.102234
0.102235
0.102236
0.102236
0.102236
0.102236
0.102236
0.102236
0.102236
0.102236
0.102235
0.102234
0.102233
0.102232
0.102231
0.102229
0.102226
0.102223
0.10222
0.102215
0.10221
0.102203
0.102195
0.102185
0.102173
0.102158
0.10214
0.102118
0.102092
0.102061
0.102024
0.10198
0.101929
0.101871
0.101804
0.101728
0.112787
0.112868
0.112939
0.113001
0.113055
0.113102
0.113141
0.113174
0.113202
0.113225
0.113244
0.11326
0.113273
0.113284
0.113293
0.1133
0.113306
0.113311
0.113315
0.113318
0.11332
0.113322
0.113324
0.113325
0.113326
0.113327
0.113328
0.113328
0.113329
0.113329
0.113329
0.113329
0.113328
0.113328
0.113327
0.113326
0.113325
0.113324
0.113322
0.11332
0.113318
0.113315
0.113311
0.113306
0.1133
0.113293
0.113284
0.113273
0.11326
0.113244
0.113225
0.113202
0.113174
0.113141
0.113102
0.113055
0.113001
0.112939
0.112868
0.112787
0.124026
0.124112
0.124187
0.124253
0.12431
0.124359
0.124401
0.124436
0.124466
0.12449
0.124511
0.124528
0.124542
0.124553
0.124562
0.12457
0.124576
0.124581
0.124586
0.124589
0.124592
0.124594
0.124596
0.124597
0.124598
0.124599
0.1246
0.1246
0.124601
0.124601
0.124601
0.124601
0.1246
0.1246
0.124599
0.124598
0.124597
0.124596
0.124594
0.124592