/*--------------------------------*- C++ -*----------------------------------*\
| =========                 |                                                 |
| \\      /  F ield         | foam-extend: Open Source CFD                    |
|  \\    /   O peration     | Version:     4.0                                |
|   \\  /    A nd           | Web:         http://www.foam-extend.org         |
|    \\/     M anipulation  |                                                 |
\*---------------------------------------------------------------------------*/
FoamFile
{
    version     2.0;
    format      ascii;
    class       volScalarField;
    location    "1260";
    object      psiE;
}
// * * * * * * * * * * * * * * * * * * * * * * * * * * * * * * * * * * * * * //

dimensions      [0 0 0 0 0 0 0];

internalField   nonuniform List<scalar> 
6960
(
0.350831
0.350843
0.350856
0.350868
0.350879
0.350888
0.350896
0.350903
0.350909
0.350913
0.350917
0.350921
0.350923
0.350925
0.350927
0.350929
0.35093
0.350931
0.350932
0.350933
0.350933
0.350934
0.350934
0.350934
0.350934
0.350935
0.350935
0.350935
0.350935
0.350935
0.350935
0.350935
0.350935
0.350935
0.350935
0.350934
0.350934
0.350934
0.350934
0.350933
0.350933
0.350932
0.350931
0.35093
0.350929
0.350927
0.350925
0.350923
0.350921
0.350917
0.350913
0.350909
0.350903
0.350896
0.350888
0.350879
0.350868
0.350856
0.350843
0.350831
0.900509
0.900556
0.900608
0.900658
0.900702
0.90074
0.900772
0.9008
0.900823
0.900842
0.900857
0.90087
0.900881
0.90089
0.900897
0.900903
0.900908
0.900912
0.900915
0.900918
0.90092
0.900922
0.900923
0.900924
0.900925
0.900926
0.900927
0.900927
0.900927
0.900927
0.900927
0.900927
0.900927
0.900927
0.900926
0.900925
0.900924
0.900923
0.900922
0.90092
0.900918
0.900915
0.900912
0.900908
0.900903
0.900897
0.90089
0.900881
0.90087
0.900857
0.900842
0.900823
0.9008
0.900772
0.90074
0.900702
0.900658
0.900608
0.900556
0.900509
1.41469
1.41478
1.41489
1.41498
1.41507
1.41514
1.4152
1.41526
1.4153
1.41534
1.41537
1.41539
1.41542
1.41543
1.41545
1.41546
1.41547
1.41547
1.41548
1.41549
1.41549
1.41549
1.4155
1.4155
1.4155
1.4155
1.4155
1.4155
1.4155
1.4155
1.4155
1.4155
1.4155
1.4155
1.4155
1.4155
1.4155
1.4155
1.41549
1.41549
1.41549
1.41548
1.41547
1.41547
1.41546
1.41545
1.41543
1.41542
1.41539
1.41537
1.41534
1.4153
1.41526
1.4152
1.41514
1.41507
1.41498
1.41489
1.41478
1.41469
1.92394
1.92408
1.92423
1.92438
1.92451
1.92463
1.92473
1.92481
1.92488
1.92493
1.92498
1.92502
1.92505
1.92508
1.9251
1.92512
1.92513
1.92514
1.92515
1.92516
1.92517
1.92517
1.92518
1.92518
1.92518
1.92518
1.92519
1.92519
1.92519
1.92519
1.92519
1.92519
1.92519
1.92519
1.92518
1.92518
1.92518
1.92518
1.92517
1.92517
1.92516
1.92515
1.92514
1.92513
1.92512
1.9251
1.92508
1.92505
1.92502
1.92498
1.92493
1.92488
1.92481
1.92473
1.92463
1.92451
1.92438
1.92423
1.92408
1.92394
2.43836
2.43855
2.43876
2.43897
2.43915
2.43931
2.43944
2.43955
2.43965
2.43972
2.43979
2.43984
2.43989
2.43992
2.43995
2.43997
2.43999
2.44001
2.44002
2.44003
2.44004
2.44005
2.44006
2.44006
2.44006
2.44007
2.44007
2.44007
2.44007
2.44007
2.44007
2.44007
2.44007
2.44007
2.44007
2.44006
2.44006
2.44006
2.44005
2.44004
2.44003
2.44002
2.44001
2.43999
2.43997
2.43995
2.43992
2.43989
2.43984
2.43979
2.43972
2.43965
2.43955
2.43944
2.43931
2.43915
2.43897
2.43876
2.43855
2.43836
2.96139
2.96163
2.9619
2.96217
2.9624
2.9626
2.96277
2.96291
2.96303
2.96313
2.96321
2.96328
2.96334
2.96338
2.96342
2.96345
2.96348
2.9635
2.96351
2.96353
2.96354
2.96355
2.96356
2.96356
2.96357
2.96357
2.96357
2.96357
2.96358
2.96358
2.96358
2.96358
2.96357
2.96357
2.96357
2.96357
2.96356
2.96356
2.96355
2.96354
2.96353
2.96351
2.9635
2.96348
2.96345
2.96342
2.96338
2.96334
2.96328
2.96321
2.96313
2.96303
2.96291
2.96277
2.9626
2.9624
2.96217
2.9619
2.96163
2.96139
3.49414
3.49443
3.49477
3.49509
3.49537
3.49561
3.49582
3.496
3.49614
3.49627
3.49637
3.49645
3.49652
3.49657
3.49662
3.49666
3.49669
3.49671
3.49673
3.49675
3.49676
3.49677
3.49678
3.49679
3.4968
3.4968
3.4968
3.49681
3.49681
3.49681
3.49681
3.49681
3.49681
3.4968
3.4968
3.4968
3.49679
3.49678
3.49677
3.49676
3.49675
3.49673
3.49671
3.49669
3.49666
3.49662
3.49657
3.49652
3.49645
3.49637
3.49627
3.49614
3.496
3.49582
3.49561
3.49537
3.49509
3.49477
3.49443
3.49414
4.03692
4.03726
4.03766
4.03804
4.03837
4.03866
4.03891
4.03912
4.03929
4.03943
4.03955
4.03965
4.03973
4.0398
4.03985
4.0399
4.03993
4.03996
4.03999
4.04001
4.04002
4.04004
4.04005
4.04006
4.04006
4.04007
4.04007
4.04008
4.04008
4.04008
4.04008
4.04008
4.04008
4.04007
4.04007
4.04006
4.04006
4.04005
4.04004
4.04002
4.04001
4.03999
4.03996
4.03993
4.0399
4.03985
4.0398
4.03973
4.03965
4.03955
4.03943
4.03929
4.03912
4.03891
4.03866
4.03837
4.03804
4.03766
4.03726
4.03692
4.58974
4.59014
4.5906
4.59104
4.59143
4.59176
4.59204
4.59228
4.59249
4.59265
4.59279
4.5929
4.593
4.59307
4.59314
4.59319
4.59323
4.59326
4.59329
4.59331
4.59333
4.59335
4.59336
4.59337
4.59338
4.59339
4.59339
4.59339
4.5934
4.5934
4.5934
4.5934
4.59339
4.59339
4.59339
4.59338
4.59337
4.59336
4.59335
4.59333
4.59331
4.59329
4.59326
4.59323
4.59319
4.59314
4.59307
4.593
4.5929
4.59279
4.59265
4.59249
4.59228
4.59204
4.59176
4.59143
4.59104
4.5906
4.59014
4.58974
5.15251
5.15297
5.15349
5.15398
5.15442
5.1548
5.15513
5.1554
5.15563
5.15581
5.15597
5.1561
5.15621
5.15629
5.15636
5.15642
5.15647
5.15651
5.15654
5.15657
5.15659
5.15661
5.15662
5.15663
5.15664
5.15665
5.15665
5.15666
5.15666
5.15666
5.15666
5.15666
5.15666
5.15665
5.15665
5.15664
5.15663
5.15662
5.15661
5.15659
5.15657
5.15654
5.15651
5.15647
5.15642
5.15636
5.15629
5.15621
5.1561
5.15597
5.15581
5.15563
5.1554
5.15513
5.1548
5.15442
5.15398
5.15349
5.15297
5.15251
5.72506
5.72556
5.72615
5.7267
5.72719
5.72762
5.72798
5.72828
5.72854
5.72875
5.72892
5.72907
5.72919
5.72928
5.72936
5.72943
5.72948
5.72953
5.72956
5.72959
5.72962
5.72963
5.72965
5.72966
5.72967
5.72968
5.72969
5.72969
5.72969
5.7297
5.7297
5.72969
5.72969
5.72969
5.72968
5.72967
5.72966
5.72965
5.72963
5.72962
5.72959
5.72956
5.72953
5.72948
5.72943
5.72936
5.72928
5.72919
5.72907
5.72892
5.72875
5.72854
5.72828
5.72798
5.72762
5.72719
5.7267
5.72615
5.72556
5.72506
6.30715
6.30771
6.30835
6.30896
6.30951
6.30998
6.31038
6.31071
6.311
6.31123
6.31142
6.31158
6.31172
6.31182
6.31191
6.31198
6.31204
6.31209
6.31213
6.31216
6.31219
6.31221
6.31223
6.31224
6.31225
6.31226
6.31227
6.31227
6.31228
6.31228
6.31228
6.31228
6.31227
6.31227
6.31226
6.31225
6.31224
6.31223
6.31221
6.31219
6.31216
6.31213
6.31209
6.31204
6.31198
6.31191
6.31182
6.31172
6.31158
6.31142
6.31123
6.311
6.31071
6.31038
6.30998
6.30951
6.30896
6.30835
6.30771
6.30715
6.89851
6.89912
6.89983
6.9005
6.90109
6.90161
6.90204
6.90241
6.90272
6.90298
6.90319
6.90337
6.90351
6.90363
6.90372
6.9038
6.90387
6.90392
6.90397
6.904
6.90403
6.90405
6.90407
6.90409
6.9041
6.90411
6.90412
6.90412
6.90413
6.90413
6.90413
6.90413
6.90412
6.90412
6.90411
6.9041
6.90409
6.90407
6.90405
6.90403
6.904
6.90397
6.90392
6.90387
6.9038
6.90372
6.90363
6.90351
6.90337
6.90319
6.90298
6.90272
6.90241
6.90204
6.90161
6.90109
6.9005
6.89983
6.89912
6.89851
7.4988
7.49947
7.50023
7.50096
7.50161
7.50217
7.50264
7.50304
7.50338
7.50366
7.50389
7.50408
7.50424
7.50436
7.50447
7.50456
7.50463
7.50468
7.50473
7.50477
7.5048
7.50483
7.50485
7.50486
7.50488
7.50489
7.5049
7.5049
7.50491
7.50491
7.50491
7.50491
7.5049
7.5049
7.50489
7.50488
7.50486
7.50485
7.50483
7.5048
7.50477
7.50473
7.50468
7.50463
7.50456
7.50447
7.50436
7.50424
7.50408
7.50389
7.50366
7.50338
7.50304
7.50264
7.50217
7.50161
7.50096
7.50023
7.49947
7.4988
8.10763
8.10835
8.10918
8.10996
8.11066
8.11126
8.11177
8.1122
8.11257
8.11287
8.11312
8.11332
8.11349
8.11363
8.11374
8.11384
8.11391
8.11397
8.11403
8.11407
8.1141
8.11413
8.11415
8.11417
8.11418
8.1142
8.1142
8.11421
8.11421
8.11422
8.11422
8.11421
8.11421
8.1142
8.1142
8.11418
8.11417
8.11415
8.11413
8.1141
8.11407
8.11403
8.11397
8.11391
8.11384
8.11374
8.11363
8.11349
8.11332
8.11312
8.11287
8.11257
8.1122
8.11177
8.11126
8.11066
8.10996
8.10918
8.10835
8.10763
8.72453
8.72529
8.72618
8.72702
8.72777
8.72841
8.72896
8.72943
8.72981
8.73014
8.7304
8.73062
8.73081
8.73095
8.73108
8.73118
8.73126
8.73132
8.73138
8.73142
8.73146
8.73149
8.73151
8.73153
8.73155
8.73156
8.73157
8.73158
8.73158
8.73158
8.73158
8.73158
8.73158
8.73157
8.73156
8.73155
8.73153
8.73151
8.73149
8.73146
8.73142
8.73138
8.73132
8.73126
8.73118
8.73108
8.73095
8.73081
8.73062
8.7304
8.73014
8.72981
8.72943
8.72896
8.72841
8.72777
8.72702
8.72618
8.72529
8.72453
9.34893
9.34975
9.35069
9.35159
9.35238
9.35307
9.35366
9.35415
9.35457
9.35491
9.3552
9.35543
9.35562
9.35578
9.35591
9.35602
9.35611
9.35618
9.35624
9.35628
9.35632
9.35635
9.35638
9.3564
9.35642
9.35643
9.35644
9.35645
9.35645
9.35645
9.35645
9.35645
9.35645
9.35644
9.35643
9.35642
9.3564
9.35638
9.35635
9.35632
9.35628
9.35624
9.35618
9.35611
9.35602
9.35591
9.35578
9.35562
9.35543
9.3552
9.35491
9.35457
9.35415
9.35366
9.35307
9.35238
9.35159
9.35069
9.34975
9.34893
9.98021
9.98108
9.98208
9.98303
9.98387
9.9846
9.98522
9.98575
9.98618
9.98655
9.98685
9.9871
9.98731
9.98747
9.98761
9.98772
9.98782
9.98789
9.98796
9.98801
9.98805
9.98808
9.98811
9.98813
9.98815
9.98816
9.98817
9.98818
9.98819
9.98819
9.98819
9.98819
9.98818
9.98817
9.98816
9.98815
9.98813
9.98811
9.98808
9.98805
9.98801
9.98796
9.98789
9.98782
9.98772
9.98761
9.98747
9.98731
9.9871
9.98685
9.98655
9.98618
9.98575
9.98522
9.9846
9.98387
9.98303
9.98208
9.98108
9.98021
10.6176
10.6185
10.6196
10.6206
10.6215
10.6222
10.6229
10.6235
10.6239
10.6243
10.6246
10.6249
10.6251
10.6253
10.6254
10.6255
10.6256
10.6257
10.6258
10.6258
10.6259
10.6259
10.626
10.626
10.626
10.626
10.626
10.626
10.626
10.626
10.626
10.626
10.626
10.626
10.626
10.626
10.626
10.626
10.6259
10.6259
10.6258
10.6258
10.6257
10.6256
10.6255
10.6254
10.6253
10.6251
10.6249
10.6246
10.6243
10.6239
10.6235
10.6229
10.6222
10.6215
10.6206
10.6196
10.6185
10.6176
11.2603
11.2613
11.2624
11.2634
11.2644
11.2652
11.2658
11.2664
11.2669
11.2673
11.2677
11.2679
11.2682
11.2683
11.2685
11.2686
11.2687
11.2688
11.2689
11.2689
11.269
11.269
11.2691
11.2691
11.2691
11.2691
11.2691
11.2691
11.2691
11.2691
11.2691
11.2691
11.2691
11.2691
11.2691
11.2691
11.2691
11.2691
11.269
11.269
11.2689
11.2689
11.2688
11.2687
11.2686
11.2685
11.2683
11.2682
11.2679
11.2677
11.2673
11.2669
11.2664
11.2658
11.2652
11.2644
11.2634
11.2624
11.2613
11.2603
11.9073
11.9083
11.9094
11.9105
11.9115
11.9123
11.9131
11.9137
11.9142
11.9146
11.9149
11.9152
11.9155
11.9157
11.9158
11.916
11.9161
11.9162
11.9162
11.9163
11.9163
11.9164
11.9164
11.9164
11.9165
11.9165
11.9165
11.9165
11.9165
11.9165
11.9165
11.9165
11.9165
11.9165
11.9165
11.9165
11.9164
11.9164
11.9164
11.9163
11.9163
11.9162
11.9162
11.9161
11.916
11.9158
11.9157
11.9155
11.9152
11.9149
11.9146
11.9142
11.9137
11.9131
11.9123
11.9115
11.9105
11.9094
11.9083
11.9073
12.5574
12.5584
12.5596
12.5608
12.5618
12.5627
12.5634
12.564
12.5646
12.565
12.5654
12.5657
12.5659
12.5661
12.5663
12.5664
12.5665
12.5666
12.5667
12.5668
12.5668
12.5669
12.5669
12.5669
12.5669
12.567
12.567
12.567
12.567
12.567
12.567
12.567
12.567
12.567
12.567
12.5669
12.5669
12.5669
12.5669
12.5668
12.5668
12.5667
12.5666
12.5665
12.5664
12.5663
12.5661
12.5659
12.5657
12.5654
12.565
12.5646
12.564
12.5634
12.5627
12.5618
12.5608
12.5596
12.5584
12.5574
13.2093
13.2104
13.2116
13.2128
13.2139
13.2148
13.2155
13.2162
13.2167
13.2172
13.2176
13.2179
13.2182
13.2184
13.2185
13.2187
13.2188
13.2189
13.219
13.219
13.2191
13.2191
13.2192
13.2192
13.2192
13.2192
13.2192
13.2193
13.2193
13.2193
13.2193
13.2193
13.2193
13.2192
13.2192
13.2192
13.2192
13.2192
13.2191
13.2191
13.219
13.219
13.2189
13.2188
13.2187
13.2185
13.2184
13.2182
13.2179
13.2176
13.2172
13.2167
13.2162
13.2155
13.2148
13.2139
13.2128
13.2116
13.2104
13.2093
13.8616
13.8627
13.864
13.8652
13.8663
13.8672
13.868
13.8687
13.8692
13.8697
13.8701
13.8704
13.8707
13.8709
13.8711
13.8712
13.8713
13.8714
13.8715
13.8716
13.8716
13.8717
13.8717
13.8718
13.8718
13.8718
13.8718
13.8718
13.8718
13.8718
13.8718
13.8718
13.8718
13.8718
13.8718
13.8718
13.8718
13.8717
13.8717
13.8716
13.8716
13.8715
13.8714
13.8713
13.8712
13.8711
13.8709
13.8707
13.8704
13.8701
13.8697
13.8692
13.8687
13.868
13.8672
13.8663
13.8652
13.864
13.8627
13.8616
14.5124
14.5135
14.5149
14.5161
14.5172
14.5182
14.519
14.5197
14.5203
14.5208
14.5212
14.5215
14.5218
14.522
14.5222
14.5223
14.5224
14.5225
14.5226
14.5227
14.5227
14.5228
14.5228
14.5229
14.5229
14.5229
14.5229
14.5229
14.5229
14.5229
14.5229
14.5229
14.5229
14.5229
14.5229
14.5229
14.5229
14.5228
14.5228
14.5227
14.5227
14.5226
14.5225
14.5224
14.5223
14.5222
14.522
14.5218
14.5215
14.5212
14.5208
14.5203
14.5197
14.519
14.5182
14.5172
14.5161
14.5149
14.5135
14.5124
15.1598
15.161
15.1623
15.1636
15.1647
15.1657
15.1665
15.1673
15.1678
15.1683
15.1687
15.1691
15.1694
15.1696
15.1698
15.1699
15.1701
15.1702
15.1702
15.1703
15.1704
15.1704
15.1705
15.1705
15.1705
15.1705
15.1705
15.1706
15.1706
15.1706
15.1706
15.1706
15.1706
15.1705
15.1705
15.1705
15.1705
15.1705
15.1704
15.1704
15.1703
15.1702
15.1702
15.1701
15.1699
15.1698
15.1696
15.1694
15.1691
15.1687
15.1683
15.1678
15.1673
15.1665
15.1657
15.1647
15.1636
15.1623
15.161
15.1598
15.8015
15.8027
15.804
15.8053
15.8065
15.8075
15.8083
15.809
15.8096
15.8101
15.8105
15.8109
15.8112
15.8114
15.8116
15.8117
15.8119
15.812
15.8121
15.8121
15.8122
15.8122
15.8123
15.8123
15.8123
15.8124
15.8124
15.8124
15.8124
15.8124
15.8124
15.8124
15.8124
15.8124
15.8124
15.8123
15.8123
15.8123
15.8122
15.8122
15.8121
15.8121
15.812
15.8119
15.8117
15.8116
15.8114
15.8112
15.8109
15.8105
15.8101
15.8096
15.809
15.8083
15.8075
15.8065
15.8053
15.804
15.8027
15.8015
16.4347
16.4359
16.4373
16.4386
16.4397
16.4407
16.4416
16.4423
16.4429
16.4434
16.4438
16.4442
16.4444
16.4447
16.4449
16.445
16.4452
16.4453
16.4454
16.4454
16.4455
16.4455
16.4456
16.4456
16.4456
16.4457
16.4457
16.4457
16.4457
16.4457
16.4457
16.4457
16.4457
16.4457
16.4457
16.4456
16.4456
16.4456
16.4455
16.4455
16.4454
16.4454
16.4453
16.4452
16.445
16.4449
16.4447
16.4444
16.4442
16.4438
16.4434
16.4429
16.4423
16.4416
16.4407
16.4397
16.4386
16.4373
16.4359
16.4347
17.0563
17.0575
17.0588
17.0601
17.0613
17.0623
17.0632
17.0639
17.0645
17.065
17.0654
17.0657
17.066
17.0663
17.0665
17.0666
17.0668
17.0669
17.067
17.067
17.0671
17.0671
17.0672
17.0672
17.0672
17.0673
17.0673
17.0673
17.0673
17.0673
17.0673
17.0673
17.0673
17.0673
17.0673
17.0672
17.0672
17.0672
17.0671
17.0671
17.067
17.067
17.0669
17.0668
17.0666
17.0665
17.0663
17.066
17.0657
17.0654
17.065
17.0645
17.0639
17.0632
17.0623
17.0613
17.0601
17.0588
17.0575
17.0563
17.6625
17.6637
17.6651
17.6664
17.6675
17.6685
17.6693
17.6701
17.6707
17.6712
17.6716
17.6719
17.6722
17.6724
17.6726
17.6728
17.6729
17.673
17.6731
17.6732
17.6733
17.6733
17.6733
17.6734
17.6734
17.6734
17.6734
17.6735
17.6735
17.6735
17.6735
17.6735
17.6735
17.6734
17.6734
17.6734
17.6734
17.6733
17.6733
17.6733
17.6732
17.6731
17.673
17.6729
17.6728
17.6726
17.6724
17.6722
17.6719
17.6716
17.6712
17.6707
17.6701
17.6693
17.6685
17.6675
17.6664
17.6651
17.6637
17.6625
18.249
18.2502
18.2516
18.2528
18.2539
18.2549
18.2557
18.2564
18.257
18.2575
18.2579
18.2583
18.2585
18.2588
18.259
18.2591
18.2592
18.2594
18.2594
18.2595
18.2596
18.2596
18.2597
18.2597
18.2597
18.2597
18.2598
18.2598
18.2598
18.2598
18.2598
18.2598
18.2598
18.2598
18.2597
18.2597
18.2597
18.2597
18.2596
18.2596
18.2595
18.2594
18.2594
18.2592
18.2591
18.259
18.2588
18.2585
18.2583
18.2579
18.2575
18.257
18.2564
18.2557
18.2549
18.2539
18.2528
18.2516
18.2502
18.249
18.8106
18.8117
18.813
18.8142
18.8153
18.8162
18.817
18.8177
18.8183
18.8188
18.8192
18.8195
18.8198
18.82
18.8202
18.8203
18.8204
18.8205
18.8206
18.8207
18.8208
18.8208
18.8209
18.8209
18.8209
18.8209
18.8209
18.821
18.821
18.821
18.821
18.821
18.821
18.8209
18.8209
18.8209
18.8209
18.8209
18.8208
18.8208
18.8207
18.8206
18.8205
18.8204
18.8203
18.8202
18.82
18.8198
18.8195
18.8192
18.8188
18.8183
18.8177
18.817
18.8162
18.8153
18.8142
18.813
18.8117
18.8106
19.3408
19.3419
19.3432
19.3443
19.3453
19.3462
19.347
19.3476
19.3482
19.3486
19.349
19.3493
19.3496
19.3498
19.35
19.3501
19.3502
19.3503
19.3504
19.3505
19.3505
19.3506
19.3506
19.3507
19.3507
19.3507
19.3507
19.3507
19.3507
19.3507
19.3507
19.3507
19.3507
19.3507
19.3507
19.3507
19.3507
19.3506
19.3506
19.3505
19.3505
19.3504
19.3503
19.3502
19.3501
19.35
19.3498
19.3496
19.3493
19.349
19.3486
19.3482
19.3476
19.347
19.3462
19.3453
19.3443
19.3432
19.3419
19.3408
19.8326
19.8336
19.8347
19.8358
19.8367
19.8376
19.8383
19.8389
19.8394
19.8398
19.8401
19.8404
19.8407
19.8409
19.841
19.8412
19.8413
19.8414
19.8415
19.8415
19.8416
19.8416
19.8417
19.8417
19.8417
19.8417
19.8417
19.8418
19.8418
19.8418
19.8418
19.8418
19.8418
19.8417
19.8417
19.8417
19.8417
19.8417
19.8416
19.8416
19.8415
19.8415
19.8414
19.8413
19.8412
19.841
19.8409
19.8407
19.8404
19.8401
19.8398
19.8394
19.8389
19.8383
19.8376
19.8367
19.8358
19.8347
19.8336
19.8326
20.2777
20.2786
20.2796
20.2806
20.2814
20.2822
20.2828
20.2833
20.2838
20.2842
20.2845
20.2847
20.285
20.2851
20.2853
20.2854
20.2855
20.2856
20.2857
20.2858
20.2858
20.2858
20.2859
20.2859
20.2859
20.2859
20.286
20.286
20.286
20.286
20.286
20.286
20.286
20.286
20.2859
20.2859
20.2859
20.2859
20.2858
20.2858
20.2858
20.2857
20.2856
20.2855
20.2854
20.2853
20.2851
20.285
20.2847
20.2845
20.2842
20.2838
20.2833
20.2828
20.2822
20.2814
20.2806
20.2796
20.2786
20.2777
20.6686
20.6693
20.6702
20.671
20.6718
20.6724
20.6729
20.6734
20.6738
20.6741
20.6744
20.6746
20.6748
20.675
20.6751
20.6752
20.6753
20.6754
20.6754
20.6755
20.6755
20.6756
20.6756
20.6756
20.6757
20.6757
20.6757
20.6757
20.6757
20.6757
20.6757
20.6757
20.6757
20.6757
20.6757
20.6757
20.6756
20.6756
20.6756
20.6755
20.6755
20.6754
20.6754
20.6753
20.6752
20.6751
20.675
20.6748
20.6746
20.6744
20.6741
20.6738
20.6734
20.6729
20.6724
20.6718
20.671
20.6702
20.6693
20.6686
20.9998
21.0005
21.0012
21.0018
21.0024
21.0029
21.0034
21.0037
21.0041
21.0043
21.0046
21.0048
21.0049
21.0051
21.0052
21.0053
21.0053
21.0054
21.0055
21.0055
21.0056
21.0056
21.0056
21.0057
21.0057
21.0057
21.0057
21.0057
21.0057
21.0057
21.0057
21.0057
21.0057
21.0057
21.0057
21.0057
21.0057
21.0056
21.0056
21.0056
21.0055
21.0055
21.0054
21.0053
21.0053
21.0052
21.0051
21.0049
21.0048
21.0046
21.0043
21.0041
21.0037
21.0034
21.0029
21.0024
21.0018
21.0012
21.0005
20.9998
21.2709
21.2714
21.2719
21.2724
21.2729
21.2733
21.2736
21.2739
21.2742
21.2744
21.2746
21.2747
21.2749
21.275
21.2751
21.2751
21.2752
21.2753
21.2753
21.2754
21.2754
21.2754
21.2755
21.2755
21.2755
21.2755
21.2755
21.2755
21.2755
21.2755
21.2755
21.2755
21.2755
21.2755
21.2755
21.2755
21.2755
21.2755
21.2754
21.2754
21.2754
21.2753
21.2753
21.2752
21.2751
21.2751
21.275
21.2749
21.2747
21.2746
21.2744
21.2742
21.2739
21.2736
21.2733
21.2729
21.2724
21.2719
21.2714
21.2709
21.4869
21.4872
21.4876
21.488
21.4883
21.4886
21.4889
21.4891
21.4893
21.4895
21.4896
21.4898
21.4899
21.49
21.49
21.4901
21.4902
21.4902
21.4903
21.4903
21.4903
21.4903
21.4904
21.4904
21.4904
21.4904
21.4904
21.4904
21.4904
21.4904
21.4904
21.4904
21.4904
21.4904
21.4904
21.4904
21.4904
21.4904
21.4903
21.4903
21.4903
21.4903
21.4902
21.4902
21.4901
21.49
21.49
21.4899
21.4898
21.4896
21.4895
21.4893
21.4891
21.4889
21.4886
21.4883
21.488
21.4876
21.4872
21.4869
21.6574
21.6576
21.6579
21.6581
21.6584
21.6586
21.6588
21.659
21.6591
21.6592
21.6594
21.6595
21.6595
21.6596
21.6597
21.6597
21.6598
21.6598
21.6599
21.6599
21.6599
21.66
21.66
21.66
21.66
21.66
21.66
21.66
21.66
21.66
21.66
21.66
21.66
21.66
21.66
21.66
21.66
21.66
21.66
21.6599
21.6599
21.6599
21.6598
21.6598
21.6597
21.6597
21.6596
21.6595
21.6595
21.6594
21.6592
21.6591
21.659
21.6588
21.6586
21.6584
21.6581
21.6579
21.6576
21.6574
21.7933
21.7934
21.7936
21.7938
21.794
21.7942
21.7943
21.7944
21.7945
21.7946
21.7947
21.7948
21.7949
21.7949
21.795
21.795
21.7951
21.7951
21.7952
21.7952
21.7952
21.7952
21.7953
21.7953
21.7953
21.7953
21.7953
21.7953
21.7953
21.7953
21.7953
21.7953
21.7953
21.7953
21.7953
21.7953
21.7953
21.7953
21.7952
21.7952
21.7952
21.7952
21.7951
21.7951
21.795
21.795
21.7949
21.7949
21.7948
21.7947
21.7946
21.7945
21.7944
21.7943
21.7942
21.794
21.7938
21.7936
21.7934
21.7933
21.9044
21.9045
21.9047
21.9048
21.9049
21.9051
21.9052
21.9053
21.9054
21.9054
21.9055
21.9056
21.9056
21.9057
21.9057
21.9058
21.9058
21.9058
21.9059
21.9059
21.9059
21.906
21.906
21.906
21.906
21.906
21.906
21.906
21.906
21.906
21.906
21.906
21.906
21.906
21.906
21.906
21.906
21.906
21.906
21.9059
21.9059
21.9059
21.9058
21.9058
21.9058
21.9057
21.9057
21.9056
21.9056
21.9055
21.9054
21.9054
21.9053
21.9052
21.9051
21.9049
21.9048
21.9047
21.9045
21.9044
21.9982
21.9983
21.9984
21.9985
21.9986
21.9987
21.9988
21.9988
21.9989
21.999
21.999
21.9991
21.9992
21.9992
21.9992
21.9993
21.9993
21.9994
21.9994
21.9994
21.9994
21.9995
21.9995
21.9995
21.9995
21.9995
21.9995
21.9995
21.9995
21.9995
21.9995
21.9995
21.9995
21.9995
21.9995
21.9995
21.9995
21.9995
21.9995
21.9994
21.9994
21.9994
21.9994
21.9993
21.9993
21.9992
21.9992
21.9992
21.9991
21.999
21.999
21.9989
21.9988
21.9988
21.9987
21.9986
21.9985
21.9984
21.9983
21.9982
22.0798
22.0798
22.0799
22.0799
22.08
22.0801
22.0802
22.0802
22.0803
22.0803
22.0804
22.0804
22.0805
22.0805
22.0806
22.0806
22.0806
22.0807
22.0807
22.0807
22.0807
22.0808
22.0808
22.0808
22.0808
22.0808
22.0808
22.0808
22.0808
22.0808
22.0808
22.0808
22.0808
22.0808
22.0808
22.0808
22.0808
22.0808
22.0808
22.0807
22.0807
22.0807
22.0807
22.0806
22.0806
22.0806
22.0805
22.0805
22.0804
22.0804
22.0803
22.0803
22.0802
22.0802
22.0801
22.08
22.0799
22.0799
22.0798
22.0798
22.1523
22.1523
22.1524
22.1524
22.1525
22.1526
22.1526
22.1527
22.1527
22.1528
22.1528
22.1529
22.1529
22.1529
22.153
22.153
22.1531
22.1531
22.1531
22.1531
22.1532
22.1532
22.1532
22.1532
22.1532
22.1532
22.1532
22.1533
22.1533
22.1533
22.1533
22.1533
22.1533
22.1532
22.1532
22.1532
22.1532
22.1532
22.1532
22.1532
22.1531
22.1531
22.1531
22.1531
22.153
22.153
22.1529
22.1529
22.1529
22.1528
22.1528
22.1527
22.1527
22.1526
22.1526
22.1525
22.1524
22.1524
22.1523
22.1523
22.2181
22.2181
22.2181
22.2182
22.2182
22.2183
22.2183
22.2184
22.2184
22.2185
22.2185
22.2185
22.2186
22.2186
22.2187
22.2187
22.2187
22.2188
22.2188
22.2188
22.2188
22.2188
22.2189
22.2189
22.2189
22.2189
22.2189
22.2189
22.2189
22.2189
22.2189
22.2189
22.2189
22.2189
22.2189
22.2189
22.2189
22.2189
22.2188
22.2188
22.2188
22.2188
22.2188
22.2187
22.2187
22.2187
22.2186
22.2186
22.2185
22.2185
22.2185
22.2184
22.2184
22.2183
22.2183
22.2182
22.2182
22.2181
22.2181
22.2181
22.2786
22.2786
22.2786
22.2786
22.2786
22.2787
22.2787
22.2788
22.2788
22.2788
22.2789
22.2789
22.279
22.279
22.279
22.2791
22.2791
22.2791
22.2792
22.2792
22.2792
22.2792
22.2792
22.2793
22.2793
22.2793
22.2793
22.2793
22.2793
22.2793
22.2793
22.2793
22.2793
22.2793
22.2793
22.2793
22.2793
22.2792
22.2792
22.2792
22.2792
22.2792
22.2791
22.2791
22.2791
22.279
22.279
22.279
22.2789
22.2789
22.2788
22.2788
22.2788
22.2787
22.2787
22.2786
22.2786
22.2786
22.2786
22.2786
22.3347
22.3347
22.3347
22.3348
22.3348
22.3348
22.3349
22.3349
22.3349
22.335
22.335
22.335
22.3351
22.3351
22.3351
22.3352
22.3352
22.3352
22.3353
22.3353
22.3353
22.3353
22.3354
22.3354
22.3354
22.3354
22.3354
22.3354
22.3354
22.3354
22.3354
22.3354
22.3354
22.3354
22.3354
22.3354
22.3354
22.3354
22.3353
22.3353
22.3353
22.3353
22.3352
22.3352
22.3352
22.3351
22.3351
22.3351
22.335
22.335
22.335
22.3349
22.3349
22.3349
22.3348
22.3348
22.3348
22.3347
22.3347
22.3347
22.3874
22.3874
22.3874
22.3874
22.3874
22.3874
22.3875
22.3875
22.3875
22.3876
22.3876
22.3876
22.3877
22.3877
22.3877
22.3878
22.3878
22.3878
22.3879
22.3879
22.3879
22.3879
22.388
22.388
22.388
22.388
22.388
22.388
22.388
22.388
22.388
22.388
22.388
22.388
22.388
22.388
22.388
22.388
22.3879
22.3879
22.3879
22.3879
22.3878
22.3878
22.3878
22.3877
22.3877
22.3877
22.3876
22.3876
22.3876
22.3875
22.3875
22.3875
22.3874
22.3874
22.3874
22.3874
22.3874
22.3874
22.4371
22.4371
22.4371
22.4371
22.4371
22.4371
22.4372
22.4372
22.4372
22.4372
22.4373
22.4373
22.4374
22.4374
22.4374
22.4375
22.4375
22.4375
22.4375
22.4376
22.4376
22.4376
22.4376
22.4376
22.4377
22.4377
22.4377
22.4377
22.4377
22.4377
22.4377
22.4377
22.4377
22.4377
22.4377
22.4377
22.4376
22.4376
22.4376
22.4376
22.4376
22.4375
22.4375
22.4375
22.4375
22.4374
22.4374
22.4374
22.4373
22.4373
22.4372
22.4372
22.4372
22.4372
22.4371
22.4371
22.4371
22.4371
22.4371
22.4371
22.4843
22.4843
22.4843
22.4843
22.4843
22.4843
22.4844
22.4844
22.4844
22.4844
22.4845
22.4845
22.4845
22.4846
22.4846
22.4846
22.4847
22.4847
22.4847
22.4848
22.4848
22.4848
22.4848
22.4848
22.4849
22.4849
22.4849
22.4849
22.4849
22.4849
22.4849
22.4849
22.4849
22.4849
22.4849
22.4849
22.4848
22.4848
22.4848
22.4848
22.4848
22.4847
22.4847
22.4847
22.4846
22.4846
22.4846
22.4845
22.4845
22.4845
22.4844
22.4844
22.4844
22.4844
22.4843
22.4843
22.4843
22.4843
22.4843
22.4843
22.5294
22.5294
22.5294
22.5294
22.5294
22.5294
22.5294
22.5295
22.5295
22.5295
22.5295
22.5296
22.5296
22.5296
22.5297
22.5297
22.5297
22.5298
22.5298
22.5298
22.5299
22.5299
22.5299
22.5299
22.5299
22.5299
22.53
22.53
22.53
22.53
22.53
22.53
22.53
22.53
22.5299
22.5299
22.5299
22.5299
22.5299
22.5299
22.5298
22.5298
22.5298
22.5297
22.5297
22.5297
22.5296
22.5296
22.5296
22.5295
22.5295
22.5295
22.5295
22.5294
22.5294
22.5294
22.5294
22.5294
22.5294
22.5294
22.5727
22.5727
22.5727
22.5727
22.5727
22.5727
22.5727
22.5727
22.5727
22.5728
22.5728
22.5728
22.5729
22.5729
22.5729
22.573
22.573
22.573
22.5731
22.5731
22.5731
22.5731
22.5731
22.5732
22.5732
22.5732
22.5732
22.5732
22.5732
22.5732
22.5732
22.5732
22.5732
22.5732
22.5732
22.5732
22.5732
22.5731
22.5731
22.5731
22.5731
22.5731
22.573
22.573
22.573
22.5729
22.5729
22.5729
22.5728
22.5728
22.5728
22.5727
22.5727
22.5727
22.5727
22.5727
22.5727
22.5727
22.5727
22.5727
22.6144
22.6143
22.6143
22.6143
22.6143
22.6143
22.6143
22.6144
22.6144
22.6144
22.6145
22.6145
22.6145
22.6146
22.6146
22.6146
22.6147
22.6147
22.6147
22.6147
22.6148
22.6148
22.6148
22.6148
22.6148
22.6149
22.6149
22.6149
22.6149
22.6149
22.6149
22.6149
22.6149
22.6149
22.6149
22.6148
22.6148
22.6148
22.6148
22.6148
22.6147
22.6147
22.6147
22.6147
22.6146
22.6146
22.6146
22.6145
22.6145
22.6145
22.6144
22.6144
22.6144
22.6143
22.6143
22.6143
22.6143
22.6143
22.6143
22.6144
22.6547
22.6546
22.6546
22.6546
22.6546
22.6546
22.6546
22.6546
22.6547
22.6547
22.6547
22.6548
22.6548
22.6548
22.6549
22.6549
22.6549
22.655
22.655
22.655
22.655
22.6551
22.6551
22.6551
22.6551
22.6551
22.6551
22.6552
22.6552
22.6552
22.6552
22.6552
22.6552
22.6551
22.6551
22.6551
22.6551
22.6551
22.6551
22.655
22.655
22.655
22.655
22.6549
22.6549
22.6549
22.6548
22.6548
22.6548
22.6547
22.6547
22.6547
22.6546
22.6546
22.6546
22.6546
22.6546
22.6546
22.6546
22.6547
22.6937
22.6937
22.6937
22.6937
22.6937
22.6937
22.6937
22.6937
22.6937
22.6938
22.6938
22.6938
22.6939
22.6939
22.6939
22.694
22.694
22.694
22.6941
22.6941
22.6941
22.6941
22.6942
22.6942
22.6942
22.6942
22.6942
22.6942
22.6942
22.6942
22.6942
22.6942
22.6942
22.6942
22.6942
22.6942
22.6942
22.6942
22.6941
22.6941
22.6941
22.6941
22.694
22.694
22.694
22.6939
22.6939
22.6939
22.6938
22.6938
22.6938
22.6937
22.6937
22.6937
22.6937
22.6937
22.6937
22.6937
22.6937
22.6937
22.7317
22.7317
22.7317
22.7317
22.7317
22.7317
22.7317
22.7317
22.7317
22.7318
22.7318
22.7318
22.7319
22.7319
22.7319
22.732
22.732
22.732
22.7321
22.7321
22.7321
22.7322
22.7322
22.7322
22.7322
22.7322
22.7322
22.7322
22.7323
22.7323
22.7323
22.7323
22.7322
22.7322
22.7322
22.7322
22.7322
22.7322
22.7322
22.7321
22.7321
22.7321
22.732
22.732
22.732
22.7319
22.7319
22.7319
22.7318
22.7318
22.7318
22.7317
22.7317
22.7317
22.7317
22.7317
22.7317
22.7317
22.7317
22.7317
22.7688
22.7688
22.7688
22.7688
22.7688
22.7688
22.7688
22.7688
22.7688
22.7688
22.7689
22.7689
22.7689
22.769
22.769
22.769
22.7691
22.7691
22.7692
22.7692
22.7692
22.7692
22.7693
22.7693
22.7693
22.7693
22.7693
22.7693
22.7693
22.7693
22.7693
22.7693
22.7693
22.7693
22.7693
22.7693
22.7693
22.7693
22.7692
22.7692
22.7692
22.7692
22.7691
22.7691
22.769
22.769
22.769
22.7689
22.7689
22.7689
22.7688
22.7688
22.7688
22.7688
22.7688
22.7688
22.7688
22.7688
22.7688
22.7688
22.805
22.805
22.805
22.805
22.805
22.805
22.805
22.805
22.8051
22.8051
22.8051
22.8051
22.8052
22.8052
22.8053
22.8053
22.8053
22.8054
22.8054
22.8054
22.8055
22.8055
22.8055
22.8055
22.8055
22.8056
22.8056
22.8056
22.8056
22.8056
22.8056
22.8056
22.8056
22.8056
22.8056
22.8055
22.8055
22.8055
22.8055
22.8055
22.8054
22.8054
22.8054
22.8053
22.8053
22.8053
22.8052
22.8052
22.8051
22.8051
22.8051
22.8051
22.805
22.805
22.805
22.805
22.805
22.805
22.805
22.805
22.8406
22.8405
22.8405
22.8405
22.8405
22.8405
22.8405
22.8405
22.8406
22.8406
22.8406
22.8407
22.8407
22.8407
22.8408
22.8408
22.8409
22.8409
22.8409
22.841
22.841
22.841
22.841
22.8411
22.8411
22.8411
22.8411
22.8411
22.8411
22.8411
22.8411
22.8411
22.8411
22.8411
22.8411
22.8411
22.8411
22.841
22.841
22.841
22.841
22.8409
22.8409
22.8409
22.8408
22.8408
22.8407
22.8407
22.8407
22.8406
22.8406
22.8406
22.8405
22.8405
22.8405
22.8405
22.8405
22.8405
22.8405
22.8406
22.8754
22.8754
22.8754
22.8754
22.8754
22.8754
22.8754
22.8754
22.8754
22.8755
22.8755
22.8755
22.8756
22.8756
22.8757
22.8757
22.8757
22.8758
22.8758
22.8758
22.8759
22.8759
22.8759
22.8759
22.876
22.876
22.876
22.876
22.876
22.876
22.876
22.876
22.876
22.876
22.876
22.876
22.8759
22.8759
22.8759
22.8759
22.8758
22.8758
22.8758
22.8757
22.8757
22.8757
22.8756
22.8756
22.8755
22.8755
22.8755
22.8754
22.8754
22.8754
22.8754
22.8754
22.8754
22.8754
22.8754
22.8754
22.9097
22.9097
22.9097
22.9097
22.9097
22.9097
22.9097
22.9097
22.9097
22.9098
22.9098
22.9098
22.9099
22.9099
22.91
22.91
22.91
22.9101
22.9101
22.9101
22.9102
22.9102