/*--------------------------------*- C++ -*----------------------------------*\
| =========                 |                                                 |
| \\      /  F ield         | foam-extend: Open Source CFD                    |
|  \\    /   O peration     | Version:     4.0                                |
|   \\  /    A nd           | Web:         http://www.foam-extend.org         |
|    \\/     M anipulation  |                                                 |
\*---------------------------------------------------------------------------*/
FoamFile
{
    version     2.0;
    format      ascii;
    class       volScalarField;
    location    "1250";
    object      psiE;
}
// * * * * * * * * * * * * * * * * * * * * * * * * * * * * * * * * * * * * * //

dimensions      [0 0 0 0 0 0 0];

internalField   nonuniform List<scalar> 
6960
(
0.351251
0.351263
0.351276
0.351289
0.351299
0.351309
0.351317
0.351324
0.351329
0.351334
0.351338
0.351341
0.351344
0.351346
0.351348
0.351349
0.351351
0.351351
0.351352
0.351353
0.351354
0.351354
0.351354
0.351355
0.351355
0.351355
0.351355
0.351355
0.351355
0.351355
0.351355
0.351355
0.351355
0.351355
0.351355
0.351355
0.351355
0.351354
0.351354
0.351354
0.351353
0.351352
0.351351
0.351351
0.351349
0.351348
0.351346
0.351344
0.351341
0.351338
0.351334
0.351329
0.351324
0.351317
0.351309
0.351299
0.351289
0.351276
0.351263
0.351251
0.902214
0.902261
0.902315
0.902365
0.902409
0.902447
0.90248
0.902507
0.90253
0.902549
0.902565
0.902577
0.902588
0.902597
0.902604
0.90261
0.902614
0.902618
0.902622
0.902624
0.902626
0.902628
0.90263
0.902631
0.902632
0.902632
0.902633
0.902633
0.902634
0.902634
0.902634
0.902634
0.902633
0.902633
0.902632
0.902632
0.902631
0.90263
0.902628
0.902626
0.902624
0.902622
0.902618
0.902614
0.90261
0.902604
0.902597
0.902588
0.902577
0.902565
0.902549
0.90253
0.902507
0.90248
0.902447
0.902409
0.902365
0.902315
0.902261
0.902214
1.41801
1.4181
1.4182
1.4183
1.41839
1.41846
1.41852
1.41858
1.41862
1.41866
1.41869
1.41871
1.41873
1.41875
1.41876
1.41878
1.41878
1.41879
1.4188
1.4188
1.41881
1.41881
1.41881
1.41882
1.41882
1.41882
1.41882
1.41882
1.41882
1.41882
1.41882
1.41882
1.41882
1.41882
1.41882
1.41882
1.41882
1.41881
1.41881
1.41881
1.4188
1.4188
1.41879
1.41878
1.41878
1.41876
1.41875
1.41873
1.41871
1.41869
1.41866
1.41862
1.41858
1.41852
1.41846
1.41839
1.4183
1.4182
1.4181
1.41801
1.92905
1.92919
1.92935
1.9295
1.92963
1.92975
1.92984
1.92993
1.92999
1.93005
1.9301
1.93014
1.93017
1.93019
1.93022
1.93023
1.93025
1.93026
1.93027
1.93028
1.93028
1.93029
1.93029
1.93029
1.9303
1.9303
1.9303
1.9303
1.9303
1.9303
1.9303
1.9303
1.9303
1.9303
1.9303
1.9303
1.93029
1.93029
1.93029
1.93028
1.93028
1.93027
1.93026
1.93025
1.93023
1.93022
1.93019
1.93017
1.93014
1.9301
1.93005
1.92999
1.92993
1.92984
1.92975
1.92963
1.9295
1.92935
1.92919
1.92905
2.44537
2.44556
2.44578
2.44598
2.44617
2.44632
2.44646
2.44657
2.44666
2.44674
2.44681
2.44686
2.4469
2.44694
2.44697
2.44699
2.44701
2.44702
2.44704
2.44705
2.44706
2.44706
2.44707
2.44707
2.44708
2.44708
2.44708
2.44708
2.44708
2.44709
2.44709
2.44708
2.44708
2.44708
2.44708
2.44708
2.44707
2.44707
2.44706
2.44706
2.44705
2.44704
2.44702
2.44701
2.44699
2.44697
2.44694
2.4469
2.44686
2.44681
2.44674
2.44666
2.44657
2.44646
2.44632
2.44617
2.44598
2.44578
2.44556
2.44537
2.97034
2.97059
2.97087
2.97113
2.97136
2.97156
2.97173
2.97188
2.972
2.9721
2.97218
2.97225
2.9723
2.97235
2.97238
2.97241
2.97244
2.97246
2.97247
2.97249
2.9725
2.97251
2.97251
2.97252
2.97252
2.97253
2.97253
2.97253
2.97253
2.97253
2.97253
2.97253
2.97253
2.97253
2.97253
2.97252
2.97252
2.97251
2.97251
2.9725
2.97249
2.97247
2.97246
2.97244
2.97241
2.97238
2.97235
2.9723
2.97225
2.97218
2.9721
2.972
2.97188
2.97173
2.97156
2.97136
2.97113
2.97087
2.97059
2.97034
3.50506
3.50536
3.5057
3.50602
3.50631
3.50655
3.50676
3.50693
3.50708
3.5072
3.5073
3.50738
3.50745
3.50751
3.50755
3.50759
3.50762
3.50764
3.50766
3.50768
3.50769
3.5077
3.50771
3.50772
3.50773
3.50773
3.50773
3.50774
3.50774
3.50774
3.50774
3.50774
3.50774
3.50773
3.50773
3.50773
3.50772
3.50771
3.5077
3.50769
3.50768
3.50766
3.50764
3.50762
3.50759
3.50755
3.50751
3.50745
3.50738
3.5073
3.5072
3.50708
3.50693
3.50676
3.50655
3.50631
3.50602
3.5057
3.50536
3.50506
4.04982
4.05017
4.05058
4.05096
4.05129
4.05158
4.05183
4.05204
4.05221
4.05235
4.05247
4.05257
4.05265
4.05271
4.05277
4.05281
4.05285
4.05288
4.0529
4.05292
4.05293
4.05295
4.05296
4.05297
4.05297
4.05298
4.05298
4.05299
4.05299
4.05299
4.05299
4.05299
4.05299
4.05298
4.05298
4.05297
4.05297
4.05296
4.05295
4.05293
4.05292
4.0529
4.05288
4.05285
4.05281
4.05277
4.05271
4.05265
4.05257
4.05247
4.05235
4.05221
4.05204
4.05183
4.05158
4.05129
4.05096
4.05058
4.05017
4.04982
4.60464
4.60504
4.60551
4.60595
4.60633
4.60667
4.60695
4.60719
4.60739
4.60756
4.6077
4.60781
4.6079
4.60798
4.60804
4.60809
4.60813
4.60816
4.60819
4.60821
4.60823
4.60825
4.60826
4.60827
4.60828
4.60828
4.60829
4.60829
4.60829
4.60829
4.60829
4.60829
4.60829
4.60829
4.60828
4.60828
4.60827
4.60826
4.60825
4.60823
4.60821
4.60819
4.60816
4.60813
4.60809
4.60804
4.60798
4.6079
4.60781
4.6077
4.60756
4.60739
4.60719
4.60695
4.60667
4.60633
4.60595
4.60551
4.60504
4.60464
5.16939
5.16985
5.17038
5.17088
5.17132
5.1717
5.17202
5.17229
5.17252
5.17271
5.17286
5.17299
5.1731
5.17318
5.17325
5.17331
5.17335
5.17339
5.17342
5.17345
5.17347
5.17349
5.1735
5.17351
5.17352
5.17353
5.17353
5.17354
5.17354
5.17354
5.17354
5.17354
5.17354
5.17353
5.17353
5.17352
5.17351
5.1735
5.17349
5.17347
5.17345
5.17342
5.17339
5.17335
5.17331
5.17325
5.17318
5.1731
5.17299
5.17286
5.17271
5.17252
5.17229
5.17202
5.1717
5.17132
5.17088
5.17038
5.16985
5.16939
5.74391
5.74442
5.74501
5.74557
5.74607
5.74649
5.74685
5.74716
5.74741
5.74762
5.74779
5.74794
5.74805
5.74815
5.74823
5.74829
5.74834
5.74839
5.74842
5.74845
5.74847
5.74849
5.74851
5.74852
5.74853
5.74854
5.74854
5.74855
5.74855
5.74855
5.74855
5.74855
5.74855
5.74854
5.74854
5.74853
5.74852
5.74851
5.74849
5.74847
5.74845
5.74842
5.74839
5.74834
5.74829
5.74823
5.74815
5.74805
5.74794
5.74779
5.74762
5.74741
5.74716
5.74685
5.74649
5.74607
5.74557
5.74501
5.74442
5.74391
6.32797
6.32853
6.32918
6.3298
6.33035
6.33082
6.33122
6.33155
6.33183
6.33207
6.33226
6.33242
6.33255
6.33265
6.33274
6.33281
6.33287
6.33292
6.33295
6.33299
6.33301
6.33303
6.33305
6.33306
6.33307
6.33308
6.33309
6.33309
6.3331
6.3331
6.3331
6.3331
6.33309
6.33309
6.33308
6.33307
6.33306
6.33305
6.33303
6.33301
6.33299
6.33295
6.33292
6.33287
6.33281
6.33274
6.33265
6.33255
6.33242
6.33226
6.33207
6.33183
6.33155
6.33122
6.33082
6.33035
6.3298
6.32918
6.32853
6.32797
6.92127
6.92189
6.9226
6.92328
6.92388
6.92439
6.92483
6.9252
6.92551
6.92576
6.92597
6.92614
6.92629
6.9264
6.9265
6.92658
6.92664
6.92669
6.92673
6.92677
6.9268
6.92682
6.92684
6.92685
6.92686
6.92687
6.92688
6.92689
6.92689
6.92689
6.92689
6.92689
6.92689
6.92688
6.92687
6.92686
6.92685
6.92684
6.92682
6.9268
6.92677
6.92673
6.92669
6.92664
6.92658
6.9265
6.9264
6.92629
6.92614
6.92597
6.92576
6.92551
6.9252
6.92483
6.92439
6.92388
6.92328
6.9226
6.92189
6.92127
7.52348
7.52415
7.52493
7.52566
7.52631
7.52687
7.52735
7.52775
7.52808
7.52836
7.52859
7.52878
7.52893
7.52906
7.52916
7.52924
7.52931
7.52937
7.52942
7.52945
7.52948
7.52951
7.52953
7.52954
7.52956
7.52957
7.52958
7.52958
7.52958
7.52959
7.52959
7.52958
7.52958
7.52958
7.52957
7.52956
7.52954
7.52953
7.52951
7.52948
7.52945
7.52942
7.52937
7.52931
7.52924
7.52916
7.52906
7.52893
7.52878
7.52859
7.52836
7.52808
7.52775
7.52735
7.52687
7.52631
7.52566
7.52493
7.52415
7.52348
8.13419
8.13492
8.13575
8.13654
8.13724
8.13785
8.13836
8.13879
8.13915
8.13945
8.1397
8.1399
8.14007
8.1402
8.14032
8.14041
8.14048
8.14054
8.14059
8.14063
8.14067
8.14069
8.14072
8.14073
8.14075
8.14076
8.14077
8.14077
8.14078
8.14078
8.14078
8.14078
8.14077
8.14077
8.14076
8.14075
8.14073
8.14072
8.14069
8.14067
8.14063
8.14059
8.14054
8.14048
8.14041
8.14032
8.1402
8.14007
8.1399
8.1397
8.13945
8.13915
8.13879
8.13836
8.13785
8.13724
8.13654
8.13575
8.13492
8.13419
8.75293
8.7537
8.7546
8.75544
8.75619
8.75684
8.75739
8.75785
8.75824
8.75856
8.75882
8.75904
8.75922
8.75937
8.75949
8.75958
8.75966
8.75973
8.75978
8.75983
8.75986
8.75989
8.75991
8.75993
8.75995
8.75996
8.75997
8.75998
8.75998
8.75998
8.75998
8.75998
8.75998
8.75997
8.75996
8.75995
8.75993
8.75991
8.75989
8.75986
8.75983
8.75978
8.75973
8.75966
8.75958
8.75949
8.75937
8.75922
8.75904
8.75882
8.75856
8.75824
8.75785
8.75739
8.75684
8.75619
8.75544
8.7546
8.7537
8.75293
9.37912
9.37994
9.3809
9.3818
9.3826
9.38329
9.38387
9.38437
9.38478
9.38512
9.3854
9.38563
9.38582
9.38598
9.38611
9.38621
9.3863
9.38637
9.38642
9.38647
9.38651
9.38654
9.38656
9.38659
9.3866
9.38661
9.38662
9.38663
9.38663
9.38664
9.38664
9.38663
9.38663
9.38662
9.38661
9.3866
9.38659
9.38656
9.38654
9.38651
9.38647
9.38642
9.38637
9.3863
9.38621
9.38611
9.38598
9.38582
9.38563
9.3854
9.38512
9.38478
9.38437
9.38387
9.38329
9.3826
9.3818
9.3809
9.37994
9.37912
10.0121
10.013
10.014
10.015
10.0158
10.0165
10.0172
10.0177
10.0181
10.0185
10.0188
10.019
10.0192
10.0194
10.0195
10.0196
10.0197
10.0198
10.0199
10.0199
10.02
10.02
10.02
10.02
10.02
10.0201
10.0201
10.0201
10.0201
10.0201
10.0201
10.0201
10.0201
10.0201
10.0201
10.02
10.02
10.02
10.02
10.02
10.0199
10.0199
10.0198
10.0197
10.0196
10.0195
10.0194
10.0192
10.019
10.0188
10.0185
10.0181
10.0177
10.0172
10.0165
10.0158
10.015
10.014
10.013
10.0121
10.6512
10.6521
10.6532
10.6542
10.6551
10.6558
10.6565
10.657
10.6575
10.6579
10.6582
10.6584
10.6587
10.6588
10.659
10.6591
10.6592
10.6593
10.6593
10.6594
10.6594
10.6595
10.6595
10.6595
10.6595
10.6595
10.6596
10.6596
10.6596
10.6596
10.6596
10.6596
10.6596
10.6596
10.6595
10.6595
10.6595
10.6595
10.6595
10.6594
10.6594
10.6593
10.6593
10.6592
10.6591
10.659
10.6588
10.6587
10.6584
10.6582
10.6579
10.6575
10.657
10.6565
10.6558
10.6551
10.6542
10.6532
10.6521
10.6512
11.2954
11.2964
11.2975
11.2985
11.2995
11.3003
11.301
11.3015
11.302
11.3024
11.3028
11.303
11.3033
11.3034
11.3036
11.3037
11.3038
11.3039
11.304
11.304
11.3041
11.3041
11.3041
11.3042
11.3042
11.3042
11.3042
11.3042
11.3042
11.3042
11.3042
11.3042
11.3042
11.3042
11.3042
11.3042
11.3042
11.3041
11.3041
11.3041
11.304
11.304
11.3039
11.3038
11.3037
11.3036
11.3034
11.3033
11.303
11.3028
11.3024
11.302
11.3015
11.301
11.3003
11.2995
11.2985
11.2975
11.2964
11.2954
11.9438
11.9448
11.946
11.9471
11.9481
11.9489
11.9496
11.9502
11.9507
11.9511
11.9515
11.9518
11.952
11.9522
11.9524
11.9525
11.9526
11.9527
11.9527
11.9528
11.9529
11.9529
11.9529
11.9529
11.953
11.953
11.953
11.953
11.953
11.953
11.953
11.953
11.953
11.953
11.953
11.953
11.9529
11.9529
11.9529
11.9529
11.9528
11.9527
11.9527
11.9526
11.9525
11.9524
11.9522
11.952
11.9518
11.9515
11.9511
11.9507
11.9502
11.9496
11.9489
11.9481
11.9471
11.946
11.9448
11.9438
12.5952
12.5962
12.5975
12.5986
12.5996
12.6005
12.6013
12.6019
12.6024
12.6028
12.6032
12.6035
12.6037
12.6039
12.6041
12.6042
12.6044
12.6044
12.6045
12.6046
12.6046
12.6047
12.6047
12.6047
12.6047
12.6048
12.6048
12.6048
12.6048
12.6048
12.6048
12.6048
12.6048
12.6048
12.6048
12.6047
12.6047
12.6047
12.6047
12.6046
12.6046
12.6045
12.6044
12.6044
12.6042
12.6041
12.6039
12.6037
12.6035
12.6032
12.6028
12.6024
12.6019
12.6013
12.6005
12.5996
12.5986
12.5975
12.5962
12.5952
13.2483
13.2494
13.2506
13.2518
13.2529
13.2538
13.2546
13.2552
13.2557
13.2562
13.2566
13.2569
13.2571
13.2573
13.2575
13.2577
13.2578
13.2579
13.2579
13.258
13.258
13.2581
13.2581
13.2582
13.2582
13.2582
13.2582
13.2582
13.2582
13.2582
13.2582
13.2582
13.2582
13.2582
13.2582
13.2582
13.2582
13.2581
13.2581
13.258
13.258
13.2579
13.2579
13.2578
13.2577
13.2575
13.2573
13.2571
13.2569
13.2566
13.2562
13.2557
13.2552
13.2546
13.2538
13.2529
13.2518
13.2506
13.2494
13.2483
13.9015
13.9026
13.9039
13.9052
13.9062
13.9072
13.908
13.9086
13.9092
13.9097
13.9101
13.9104
13.9106
13.9108
13.911
13.9112
13.9113
13.9114
13.9115
13.9115
13.9116
13.9116
13.9117
13.9117
13.9117
13.9117
13.9117
13.9117
13.9118
13.9118
13.9118
13.9118
13.9117
13.9117
13.9117
13.9117
13.9117
13.9117
13.9116
13.9116
13.9115
13.9115
13.9114
13.9113
13.9112
13.911
13.9108
13.9106
13.9104
13.9101
13.9097
13.9092
13.9086
13.908
13.9072
13.9062
13.9052
13.9039
13.9026
13.9015
14.5531
14.5543
14.5556
14.5568
14.558
14.5589
14.5597
14.5604
14.561
14.5615
14.5619
14.5622
14.5625
14.5627
14.5629
14.563
14.5631
14.5632
14.5633
14.5634
14.5634
14.5635
14.5635
14.5635
14.5636
14.5636
14.5636
14.5636
14.5636
14.5636
14.5636
14.5636
14.5636
14.5636
14.5636
14.5636
14.5635
14.5635
14.5635
14.5634
14.5634
14.5633
14.5632
14.5631
14.563
14.5629
14.5627
14.5625
14.5622
14.5619
14.5615
14.561
14.5604
14.5597
14.5589
14.558
14.5568
14.5556
14.5543
14.5531
15.201
15.2022
15.2036
15.2048
15.206
15.207
15.2078
15.2085
15.2091
15.2096
15.21
15.2103
15.2106
15.2108
15.211
15.2111
15.2113
15.2114
15.2114
15.2115
15.2116
15.2116
15.2117
15.2117
15.2117
15.2117
15.2117
15.2118
15.2118
15.2118
15.2118
15.2118
15.2118
15.2117
15.2117
15.2117
15.2117
15.2117
15.2116
15.2116
15.2115
15.2114
15.2114
15.2113
15.2111
15.211
15.2108
15.2106
15.2103
15.21
15.2096
15.2091
15.2085
15.2078
15.207
15.206
15.2048
15.2036
15.2022
15.201
15.8429
15.8441
15.8455
15.8468
15.8479
15.8489
15.8498
15.8505
15.8511
15.8516
15.852
15.8523
15.8526
15.8528
15.853
15.8532
15.8533
15.8534
15.8535
15.8536
15.8536
15.8537
15.8537
15.8537
15.8538
15.8538
15.8538
15.8538
15.8538
15.8538
15.8538
15.8538
15.8538
15.8538
15.8538
15.8538
15.8537
15.8537
15.8537
15.8536
15.8536
15.8535
15.8534
15.8533
15.8532
15.853
15.8528
15.8526
15.8523
15.852
15.8516
15.8511
15.8505
15.8498
15.8489
15.8479
15.8468
15.8455
15.8441
15.8429
16.476
16.4772
16.4786
16.4799
16.4811
16.4821
16.4829
16.4836
16.4842
16.4847
16.4852
16.4855
16.4858
16.486
16.4862
16.4863
16.4865
16.4866
16.4867
16.4867
16.4868
16.4868
16.4869
16.4869
16.4869
16.487
16.487
16.487
16.487
16.487
16.487
16.487
16.487
16.487
16.487
16.4869
16.4869
16.4869
16.4868
16.4868
16.4867
16.4867
16.4866
16.4865
16.4863
16.4862
16.486
16.4858
16.4855
16.4852
16.4847
16.4842
16.4836
16.4829
16.4821
16.4811
16.4799
16.4786
16.4772
16.476
17.0971
17.0983
17.0997
17.101
17.1022
17.1032
17.104
17.1047
17.1053
17.1058
17.1062
17.1066
17.1069
17.1071
17.1073
17.1074
17.1076
17.1077
17.1077
17.1078
17.1079
17.1079
17.108
17.108
17.108
17.108
17.1081
17.1081
17.1081
17.1081
17.1081
17.1081
17.1081
17.1081
17.108
17.108
17.108
17.108
17.1079
17.1079
17.1078
17.1077
17.1077
17.1076
17.1074
17.1073
17.1071
17.1069
17.1066
17.1062
17.1058
17.1053
17.1047
17.104
17.1032
17.1022
17.101
17.0997
17.0983
17.0971
17.7024
17.7036
17.705
17.7062
17.7074
17.7084
17.7092
17.7099
17.7105
17.711
17.7114
17.7118
17.712
17.7123
17.7125
17.7126
17.7127
17.7128
17.7129
17.713
17.7131
17.7131
17.7131
17.7132
17.7132
17.7132
17.7132
17.7132
17.7133
17.7133
17.7133
17.7133
17.7132
17.7132
17.7132
17.7132
17.7132
17.7131
17.7131
17.7131
17.713
17.7129
17.7128
17.7127
17.7126
17.7125
17.7123
17.712
17.7118
17.7114
17.711
17.7105
17.7099
17.7092
17.7084
17.7074
17.7062
17.705
17.7036
17.7024
18.2873
18.2885
18.2899
18.2911
18.2923
18.2932
18.294
18.2947
18.2953
18.2958
18.2962
18.2965
18.2968
18.297
18.2972
18.2974
18.2975
18.2976
18.2977
18.2978
18.2978
18.2979
18.2979
18.2979
18.298
18.298
18.298
18.298
18.298
18.298
18.298
18.298
18.298
18.298
18.298
18.298
18.2979
18.2979
18.2979
18.2978
18.2978
18.2977
18.2976
18.2975
18.2974
18.2972
18.297
18.2968
18.2965
18.2962
18.2958
18.2953
18.2947
18.294
18.2932
18.2923
18.2911
18.2899
18.2885
18.2873
18.8466
18.8478
18.8491
18.8503
18.8514
18.8523
18.8531
18.8538
18.8543
18.8548
18.8552
18.8555
18.8558
18.856
18.8562
18.8563
18.8565
18.8566
18.8566
18.8567
18.8568
18.8568
18.8569
18.8569
18.8569
18.8569
18.857
18.857
18.857
18.857
18.857
18.857
18.857
18.857
18.8569
18.8569
18.8569
18.8569
18.8568
18.8568
18.8567
18.8566
18.8566
18.8565
18.8563
18.8562
18.856
18.8558
18.8555
18.8552
18.8548
18.8543
18.8538
18.8531
18.8523
18.8514
18.8503
18.8491
18.8478
18.8466
19.3739
19.375
19.3762
19.3774
19.3784
19.3793
19.38
19.3807
19.3812
19.3816
19.382
19.3823
19.3826
19.3828
19.3829
19.3831
19.3832
19.3833
19.3834
19.3834
19.3835
19.3836
19.3836
19.3836
19.3836
19.3837
19.3837
19.3837
19.3837
19.3837
19.3837
19.3837
19.3837
19.3837
19.3837
19.3836
19.3836
19.3836
19.3836
19.3835
19.3834
19.3834
19.3833
19.3832
19.3831
19.3829
19.3828
19.3826
19.3823
19.382
19.3816
19.3812
19.3807
19.38
19.3793
19.3784
19.3774
19.3762
19.375
19.3739
19.8617
19.8627
19.8638
19.8649
19.8658
19.8666
19.8673
19.8679
19.8684
19.8688
19.8691
19.8694
19.8697
19.8699
19.87
19.8702
19.8703
19.8704
19.8704
19.8705
19.8706
19.8706
19.8706
19.8707
19.8707
19.8707
19.8707
19.8707
19.8707
19.8707
19.8707
19.8707
19.8707
19.8707
19.8707
19.8707
19.8707
19.8706
19.8706
19.8706
19.8705
19.8704
19.8704
19.8703
19.8702
19.87
19.8699
19.8697
19.8694
19.8691
19.8688
19.8684
19.8679
19.8673
19.8666
19.8658
19.8649
19.8638
19.8627
19.8617
20.3019
20.3028
20.3038
20.3047
20.3055
20.3063
20.3069
20.3074
20.3079
20.3082
20.3085
20.3088
20.309
20.3092
20.3093
20.3094
20.3095
20.3096
20.3097
20.3098
20.3098
20.3099
20.3099
20.3099
20.3099
20.31
20.31
20.31
20.31
20.31
20.31
20.31
20.31
20.31
20.31
20.3099
20.3099
20.3099
20.3099
20.3098
20.3098
20.3097
20.3096
20.3095
20.3094
20.3093
20.3092
20.309
20.3088
20.3085
20.3082
20.3079
20.3074
20.3069
20.3063
20.3055
20.3047
20.3038
20.3028
20.3019
20.6869
20.6877
20.6885
20.6893
20.69
20.6907
20.6912
20.6916
20.692
20.6923
20.6926
20.6928
20.693
20.6932
20.6933
20.6934
20.6935
20.6936
20.6936
20.6937
20.6937
20.6938
20.6938
20.6938
20.6938
20.6939
20.6939
20.6939
20.6939
20.6939
20.6939
20.6939
20.6939
20.6939
20.6939
20.6938
20.6938
20.6938
20.6938
20.6937
20.6937
20.6936
20.6936
20.6935
20.6934
20.6933
20.6932
20.693
20.6928
20.6926
20.6923
20.692
20.6916
20.6912
20.6907
20.69
20.6893
20.6885
20.6877
20.6869
21.0119
21.0125
21.0132
21.0138
21.0144
21.0149
21.0153
21.0157
21.016
21.0163
21.0165
21.0167
21.0169
21.017
21.0171
21.0172
21.0173
21.0173
21.0174
21.0174
21.0175
21.0175
21.0175
21.0176
21.0176
21.0176
21.0176
21.0176
21.0176
21.0176
21.0176
21.0176
21.0176
21.0176
21.0176
21.0176
21.0176
21.0175
21.0175
21.0175
21.0174
21.0174
21.0173
21.0173
21.0172
21.0171
21.017
21.0169
21.0167
21.0165
21.0163
21.016
21.0157
21.0153
21.0149
21.0144
21.0138
21.0132
21.0125
21.0119
21.2768
21.2773
21.2778
21.2783
21.2787
21.2791
21.2795
21.2798
21.28
21.2802
21.2804
21.2806
21.2807
21.2808
21.2809
21.281
21.281
21.2811
21.2811
21.2812
21.2812
21.2812
21.2813
21.2813
21.2813
21.2813
21.2813
21.2813
21.2813
21.2813
21.2813
21.2813
21.2813
21.2813
21.2813
21.2813
21.2813
21.2813
21.2812
21.2812
21.2812
21.2811
21.2811
21.281
21.281
21.2809
21.2808
21.2807
21.2806
21.2804
21.2802
21.28
21.2798
21.2795
21.2791
21.2787
21.2783
21.2778
21.2773
21.2768
21.4875
21.4878
21.4882
21.4885
21.4889
21.4892
21.4894
21.4896
21.4898
21.49
21.4901
21.4903
21.4904
21.4904
21.4905
21.4906
21.4906
21.4907
21.4907
21.4908
21.4908
21.4908
21.4909
21.4909
21.4909
21.4909
21.4909
21.4909
21.4909
21.4909
21.4909
21.4909
21.4909
21.4909
21.4909
21.4909
21.4909
21.4909
21.4908
21.4908
21.4908
21.4907
21.4907
21.4906
21.4906
21.4905
21.4904
21.4904
21.4903
21.4901
21.49
21.4898
21.4896
21.4894
21.4892
21.4889
21.4885
21.4882
21.4878
21.4875
21.6537
21.6539
21.6542
21.6545
21.6547
21.6549
21.6551
21.6553
21.6554
21.6555
21.6557
21.6557
21.6558
21.6559
21.656
21.656
21.6561
21.6561
21.6561
21.6562
21.6562
21.6562
21.6563
21.6563
21.6563
21.6563
21.6563
21.6563
21.6563
21.6563
21.6563
21.6563
21.6563
21.6563
21.6563
21.6563
21.6563
21.6563
21.6562
21.6562
21.6562
21.6561
21.6561
21.6561
21.656
21.656
21.6559
21.6558
21.6557
21.6557
21.6555
21.6554
21.6553
21.6551
21.6549
21.6547
21.6545
21.6542
21.6539
21.6537
21.7865
21.7867
21.7869
21.787
21.7872
21.7874
21.7875
21.7876
21.7878
21.7879
21.7879
21.788
21.7881
21.7881
21.7882
21.7882
21.7883
21.7883
21.7884
21.7884
21.7884
21.7884
21.7885
21.7885
21.7885
21.7885
21.7885
21.7885
21.7885
21.7885
21.7885
21.7885
21.7885
21.7885
21.7885
21.7885
21.7885
21.7885
21.7884
21.7884
21.7884
21.7884
21.7883
21.7883
21.7882
21.7882
21.7881
21.7881
21.788
21.7879
21.7879
21.7878
21.7876
21.7875
21.7874
21.7872
21.787
21.7869
21.7867
21.7865
21.8955
21.8956
21.8957
21.8959
21.896
21.8961
21.8962
21.8963
21.8964
21.8965
21.8965
21.8966
21.8967
21.8967
21.8968
21.8968
21.8968
21.8969
21.8969
21.8969
21.897
21.897
21.897
21.897
21.897
21.897
21.8971
21.8971
21.8971
21.8971
21.8971
21.8971
21.8971
21.8971
21.897
21.897
21.897
21.897
21.897
21.897
21.8969
21.8969
21.8969
21.8968
21.8968
21.8968
21.8967
21.8967
21.8966
21.8965
21.8965
21.8964
21.8963
21.8962
21.8961
21.896
21.8959
21.8957
21.8956
21.8955
21.9878
21.9878
21.9879
21.988
21.9881
21.9882
21.9883
21.9884
21.9884
21.9885
21.9886
21.9886
21.9887
21.9887
21.9888
21.9888
21.9888
21.9889
21.9889
21.9889
21.989
21.989
21.989
21.989
21.989
21.989
21.989
21.989
21.9891
21.9891
21.9891
21.9891
21.989
21.989
21.989
21.989
21.989
21.989
21.989
21.989
21.9889
21.9889
21.9889
21.9888
21.9888
21.9888
21.9887
21.9887
21.9886
21.9886
21.9885
21.9884
21.9884
21.9883
21.9882
21.9881
21.988
21.9879
21.9878
21.9878
22.0682
22.0682
22.0683
22.0684
22.0684
22.0685
22.0686
22.0687
22.0687
22.0688
22.0688
22.0689
22.0689
22.069
22.069
22.069
22.0691
22.0691
22.0691
22.0692
22.0692
22.0692
22.0692
22.0692
22.0693
22.0693
22.0693
22.0693
22.0693
22.0693
22.0693
22.0693
22.0693
22.0693
22.0693
22.0693
22.0692
22.0692
22.0692
22.0692
22.0692
22.0691
22.0691
22.0691
22.069
22.069
22.069
22.0689
22.0689
22.0688
22.0688
22.0687
22.0687
22.0686
22.0685
22.0684
22.0684
22.0683
22.0682
22.0682
22.14
22.14
22.14
22.1401
22.1401
22.1402
22.1402
22.1403
22.1404
22.1404
22.1404
22.1405
22.1405
22.1406
22.1406
22.1407
22.1407
22.1407
22.1407
22.1408
22.1408
22.1408
22.1408
22.1408
22.1409
22.1409
22.1409
22.1409
22.1409
22.1409
22.1409
22.1409
22.1409
22.1409
22.1409
22.1409
22.1408
22.1408
22.1408
22.1408
22.1408
22.1407
22.1407
22.1407
22.1407
22.1406
22.1406
22.1405
22.1405
22.1404
22.1404
22.1404
22.1403
22.1402
22.1402
22.1401
22.1401
22.14
22.14
22.14
22.2051
22.2051
22.2052
22.2052
22.2052
22.2053
22.2053
22.2054
22.2054
22.2055
22.2055
22.2056
22.2056
22.2056
22.2057
22.2057
22.2057
22.2058
22.2058
22.2058
22.2058
22.2059
22.2059
22.2059
22.2059
22.2059
22.2059
22.2059
22.2059
22.2059
22.2059
22.2059
22.2059
22.2059
22.2059
22.2059
22.2059
22.2059
22.2059
22.2058
22.2058
22.2058
22.2058
22.2057
22.2057
22.2057
22.2056
22.2056
22.2056
22.2055
22.2055
22.2054
22.2054
22.2053
22.2053
22.2052
22.2052
22.2052
22.2051
22.2051
22.2651
22.2651
22.2651
22.2651
22.2652
22.2652
22.2652
22.2653
22.2653
22.2654
22.2654
22.2654
22.2655
22.2655
22.2656
22.2656
22.2656
22.2657
22.2657
22.2657
22.2657
22.2658
22.2658
22.2658
22.2658
22.2658
22.2658
22.2658
22.2658
22.2658
22.2658
22.2658
22.2658
22.2658
22.2658
22.2658
22.2658
22.2658
22.2658
22.2657
22.2657
22.2657
22.2657
22.2656
22.2656
22.2656
22.2655
22.2655
22.2654
22.2654
22.2654
22.2653
22.2653
22.2652
22.2652
22.2652
22.2651
22.2651
22.2651
22.2651
22.3209
22.3209
22.3209
22.3209
22.3209
22.321
22.321
22.321
22.3211
22.3211
22.3211
22.3212
22.3212
22.3212
22.3213
22.3213
22.3213
22.3214
22.3214
22.3214
22.3215
22.3215
22.3215
22.3215
22.3215
22.3215
22.3215
22.3216
22.3216
22.3216
22.3216
22.3216
22.3216
22.3215
22.3215
22.3215
22.3215
22.3215
22.3215
22.3215
22.3214
22.3214
22.3214
22.3213
22.3213
22.3213
22.3212
22.3212
22.3212
22.3211
22.3211
22.3211
22.321
22.321
22.321
22.3209
22.3209
22.3209
22.3209
22.3209
22.3732
22.3732
22.3732
22.3732
22.3732
22.3733
22.3733
22.3733
22.3733
22.3734
22.3734
22.3735
22.3735
22.3735
22.3736
22.3736
22.3736
22.3737
22.3737
22.3737
22.3737
22.3738
22.3738
22.3738
22.3738
22.3738
22.3738
22.3738
22.3738
22.3738
22.3738
22.3738
22.3738
22.3738
22.3738
22.3738
22.3738
22.3738
22.3738
22.3737
22.3737
22.3737
22.3737
22.3736
22.3736
22.3736
22.3735
22.3735
22.3735
22.3734
22.3734
22.3733
22.3733
22.3733
22.3733
22.3732
22.3732
22.3732
22.3732
22.3732
22.4227
22.4226
22.4226
22.4226
22.4227
22.4227
22.4227
22.4227
22.4228
22.4228
22.4228
22.4229
22.4229
22.4229
22.423
22.423
22.423
22.4231
22.4231
22.4231
22.4231
22.4232
22.4232
22.4232
22.4232
22.4232
22.4232
22.4232
22.4233
22.4233
22.4233
22.4233
22.4232
22.4232
22.4232
22.4232
22.4232
22.4232
22.4232
22.4231
22.4231
22.4231
22.4231
22.423
22.423
22.423
22.4229
22.4229
22.4229
22.4228
22.4228
22.4228
22.4227
22.4227
22.4227
22.4227
22.4226
22.4226
22.4226
22.4227
22.4697
22.4696
22.4696
22.4696
22.4696
22.4697
22.4697
22.4697
22.4697
22.4698
22.4698
22.4698
22.4699
22.4699
22.4699
22.47
22.47
22.47
22.4701
22.4701
22.4701
22.4701
22.4702
22.4702
22.4702
22.4702
22.4702
22.4702
22.4702
22.4702
22.4702
22.4702
22.4702
22.4702
22.4702
22.4702
22.4702
22.4702
22.4701
22.4701
22.4701
22.4701
22.47
22.47
22.47
22.4699
22.4699
22.4699
22.4698
22.4698
22.4698
22.4697
22.4697
22.4697
22.4697
22.4696
22.4696
22.4696
22.4696
22.4697
22.5146
22.5145
22.5145
22.5145
22.5145
22.5146
22.5146
22.5146
22.5146
22.5147
22.5147
22.5147
22.5148
22.5148
22.5148
22.5149
22.5149
22.5149
22.515
22.515
22.515
22.515
22.515
22.5151
22.5151
22.5151
22.5151
22.5151
22.5151
22.5151
22.5151
22.5151
22.5151
22.5151
22.5151
22.5151
22.5151
22.515
22.515
22.515
22.515
22.515
22.5149
22.5149
22.5149
22.5148
22.5148
22.5148
22.5147
22.5147
22.5147
22.5146
22.5146
22.5146
22.5146
22.5145
22.5145
22.5145
22.5145
22.5146
22.5577
22.5576
22.5576
22.5576
22.5576
22.5576
22.5577
22.5577
22.5577
22.5577
22.5578
22.5578
22.5578
22.5579
22.5579
22.5579
22.558
22.558
22.558
22.5581
22.5581
22.5581
22.5581
22.5582
22.5582
22.5582
22.5582
22.5582
22.5582
22.5582
22.5582
22.5582
22.5582
22.5582
22.5582
22.5582
22.5582
22.5581
22.5581
22.5581
22.5581
22.558
22.558
22.558
22.5579
22.5579
22.5579
22.5578
22.5578
22.5578
22.5577
22.5577
22.5577
22.5577
22.5576
22.5576
22.5576
22.5576
22.5576
22.5577
22.5992
22.5992
22.5992
22.5992
22.5992
22.5992
22.5992
22.5992
22.5992
22.5993
22.5993
22.5993
22.5994
22.5994
22.5994
22.5995
22.5995
22.5995
22.5996
22.5996
22.5996
22.5997
22.5997
22.5997
22.5997
22.5997
22.5997
22.5997
22.5997
22.5997
22.5997
22.5997
22.5997
22.5997
22.5997
22.5997
22.5997
22.5997
22.5997
22.5996
22.5996
22.5996
22.5995
22.5995
22.5995
22.5994
22.5994
22.5994
22.5993
22.5993
22.5993
22.5992
22.5992
22.5992
22.5992
22.5992
22.5992
22.5992
22.5992
22.5992
22.6394
22.6394
22.6394
22.6393
22.6393
22.6393
22.6394
22.6394
22.6394
22.6394
22.6395
22.6395
22.6395
22.6396
22.6396
22.6396
22.6397
22.6397
22.6397
22.6398
22.6398
22.6398
22.6398
22.6399
22.6399
22.6399
22.6399
22.6399
22.6399
22.6399
22.6399
22.6399
22.6399
22.6399
22.6399
22.6399
22.6399
22.6398
22.6398
22.6398
22.6398
22.6397
22.6397
22.6397
22.6396
22.6396
22.6396
22.6395
22.6395
22.6395
22.6394
22.6394
22.6394
22.6394
22.6393
22.6393
22.6393
22.6394
22.6394
22.6394
22.6784
22.6783
22.6783
22.6783
22.6783
22.6783
22.6783
22.6784
22.6784
22.6784
22.6784
22.6785
22.6785
22.6786
22.6786
22.6786
22.6787
22.6787
22.6787
22.6788
22.6788
22.6788
22.6788
22.6788
22.6789
22.6789
22.6789
22.6789
22.6789
22.6789
22.6789
22.6789
22.6789
22.6789
22.6789
22.6789
22.6788
22.6788
22.6788
22.6788
22.6788
22.6787
22.6787
22.6787
22.6786
22.6786
22.6786
22.6785
22.6785
22.6784
22.6784
22.6784
22.6784
22.6783
22.6783
22.6783
22.6783
22.6783
22.6783
22.6784
22.7163
22.7163
22.7163
22.7163
22.7163
22.7163
22.7163
22.7163
22.7163
22.7163
22.7164
22.7164
22.7164
22.7165
22.7165
22.7166
22.7166
22.7166
22.7167
22.7167
22.7167
22.7167
22.7168
22.7168
22.7168
22.7168
22.7168
22.7168
22.7168
22.7168
22.7168
22.7168
22.7168
22.7168
22.7168
22.7168
22.7168
22.7168
22.7167
22.7167
22.7167
22.7167
22.7166
22.7166
22.7166
22.7165
22.7165
22.7164
22.7164
22.7164
22.7163
22.7163
22.7163
22.7163
22.7163
22.7163
22.7163
22.7163
22.7163
22.7163
22.7533
22.7533
22.7533
22.7533
22.7533
22.7533
22.7533
22.7533
22.7533
22.7533
22.7534
22.7534
22.7535
22.7535
22.7535
22.7536
22.7536
22.7536
22.7537
22.7537
22.7537
22.7538
22.7538
22.7538
22.7538
22.7538
22.7538
22.7539
22.7539
22.7539
22.7539
22.7539
22.7539
22.7538
22.7538
22.7538
22.7538
22.7538
22.7538
22.7537
22.7537
22.7537
22.7536
22.7536
22.7536
22.7535
22.7535
22.7535
22.7534
22.7534
22.7533
22.7533
22.7533
22.7533
22.7533
22.7533
22.7533
22.7533
22.7533
22.7533
22.7895
22.7895
22.7895
22.7895
22.7895
22.7895
22.7895
22.7895
22.7895
22.7895
22.7896
22.7896
22.7896
22.7897
22.7897
22.7898
22.7898
22.7898
22.7899
22.7899
22.7899
22.79
22.79
22.79
22.79
22.79
22.79
22.7901
22.7901
22.7901
22.7901
22.7901
22.7901
22.79
22.79
22.79
22.79
22.79
22.79
22.7899
22.7899
22.7899
22.7898
22.7898
22.7898
22.7897
22.7897
22.7896
22.7896
22.7896
22.7895
22.7895
22.7895
22.7895
22.7895
22.7895
22.7895
22.7895
22.7895
22.7895
22.825
22.825
22.8249
22.8249
22.8249
22.8249
22.8249
22.825
22.825
22.825
22.8251
22.8251
22.8251
22.8252
22.8252
22.8252
22.8253
22.8253
22.8254
22.8254
22.8254
22.8254
22.8255
22.8255
22.8255
22.8255
22.8255
22.8255
22.8256
22.8256
22.8256
22.8256
22.8255
22.8255
22.8255
22.8255
22.8255
22.8255
22.8254
22.8254
22.8254
22.8254
22.8253
22.8253
22.8252
22.8252
22.8252
22.8251
22.8251
22.8251
22.825
22.825
22.825
22.8249
22.8249
22.8249
22.8249
22.8249
22.825
22.825
22.8598
22.8598
22.8598
22.8598
22.8598
22.8598
22.8598
22.8598
22.8598
22.8599
22.8599
22.8599
22.86
22.86
22.8601
22.8601
22.8601
22.8602
22.8602
22.8602
22.8603
22.8603
22.8603
22.8603
22.8604
22.8604
22.8604
22.8604
22.8604
22.8604
22.8604
22.8604
22.8604
22.8604
22.8604
22.8604
22.8603
22.8603
22.8603
22.8603
22.8602
22.8602
22.8602
22.8601
22.8601
22.8601
22.86
22.86
22.8599
22.8599
22.8599
22.8598
22.8598
22.8598
22.8598
22.8598
22.8598
22.8598
22.8598
22.8598
22.8941
22.8941
22.8941
22.8941
22.8941
22.8941
22.8941
22.8941
22.8941
22.8942
22.8942
22.8942
22.8943
22.8943
22.8944
22.8944
22.8944
22.8945
22.8945
22.8945
22.8946
22.8946
22.8946
22.8947