/*--------------------------------*- C++ -*----------------------------------*\
| =========                 |                                                 |
| \\      /  F ield         | foam-extend: Open Source CFD                    |
|  \\    /   O peration     | Version:     4.0                                |
|   \\  /    A nd           | Web:         http://www.foam-extend.org         |
|    \\/     M anipulation  |                                                 |
\*---------------------------------------------------------------------------*/
FoamFile
{
    version     2.0;
    format      ascii;
    class       volScalarField;
    location    "940";
    object      cMinus;
}
// * * * * * * * * * * * * * * * * * * * * * * * * * * * * * * * * * * * * * //

dimensions      [0 0 0 0 0 0 0];

internalField   nonuniform List<scalar> 
6960
(
9.98302e-23
9.96264e-23
9.96187e-23
9.9597e-23
9.95683e-23
9.95353e-23
9.94997e-23
9.94624e-23
9.94242e-23
9.93857e-23
9.93474e-23
9.93096e-23
9.92727e-23
9.9237e-23
9.92027e-23
9.91701e-23
9.91393e-23
9.91104e-23
9.90836e-23
9.9059e-23
9.90365e-23
9.90163e-23
9.89983e-23
9.89826e-23
9.89691e-23
9.89579e-23
9.8949e-23
9.89423e-23
9.89379e-23
9.89356e-23
9.89356e-23
9.89379e-23
9.89423e-23
9.8949e-23
9.89579e-23
9.89691e-23
9.89826e-23
9.89983e-23
9.90163e-23
9.90365e-23
9.9059e-23
9.90836e-23
9.91104e-23
9.91393e-23
9.91701e-23
9.92027e-23
9.9237e-23
9.92727e-23
9.93096e-23
9.93474e-23
9.93857e-23
9.94242e-23
9.94624e-23
9.94997e-23
9.95353e-23
9.95683e-23
9.9597e-23
9.96187e-23
9.96264e-23
9.98302e-23
4.5622e-22
4.55975e-22
4.55787e-22
4.55574e-22
4.55376e-22
4.55199e-22
4.55043e-22
4.54903e-22
4.54779e-22
4.54667e-22
4.54565e-22
4.54472e-22
4.54386e-22
4.54308e-22
4.54236e-22
4.54169e-22
4.54108e-22
4.54052e-22
4.54002e-22
4.53956e-22
4.53915e-22
4.53878e-22
4.53846e-22
4.53818e-22
4.53794e-22
4.53774e-22
4.53759e-22
4.53747e-22
4.5374e-22
4.53736e-22
4.53736e-22
4.5374e-22
4.53747e-22
4.53759e-22
4.53774e-22
4.53794e-22
4.53818e-22
4.53846e-22
4.53878e-22
4.53915e-22
4.53956e-22
4.54002e-22
4.54052e-22
4.54108e-22
4.54169e-22
4.54236e-22
4.54308e-22
4.54386e-22
4.54472e-22
4.54565e-22
4.54667e-22
4.54779e-22
4.54903e-22
4.55043e-22
4.55199e-22
4.55376e-22
4.55574e-22
4.55787e-22
4.55975e-22
4.5622e-22
1.77647e-21
1.77608e-21
1.77562e-21
1.77501e-21
1.77443e-21
1.77389e-21
1.7734e-21
1.77296e-21
1.77256e-21
1.77219e-21
1.77186e-21
1.77155e-21
1.77127e-21
1.771e-21
1.77076e-21
1.77054e-21
1.77034e-21
1.77015e-21
1.76998e-21
1.76983e-21
1.76969e-21
1.76957e-21
1.76946e-21
1.76937e-21
1.76929e-21
1.76922e-21
1.76917e-21
1.76913e-21
1.76911e-21
1.76909e-21
1.76909e-21
1.76911e-21
1.76913e-21
1.76917e-21
1.76922e-21
1.76929e-21
1.76937e-21
1.76946e-21
1.76957e-21
1.76969e-21
1.76983e-21
1.76998e-21
1.77015e-21
1.77034e-21
1.77054e-21
1.77076e-21
1.771e-21
1.77127e-21
1.77155e-21
1.77186e-21
1.77219e-21
1.77256e-21
1.77296e-21
1.7734e-21
1.77389e-21
1.77443e-21
1.77501e-21
1.77562e-21
1.77608e-21
1.77647e-21
6.68491e-21
6.68522e-21
6.68481e-21
6.68367e-21
6.68238e-21
6.68107e-21
6.67978e-21
6.67854e-21
6.67735e-21
6.67622e-21
6.67515e-21
6.67414e-21
6.67319e-21
6.6723e-21
6.67147e-21
6.67071e-21
6.67e-21
6.66935e-21
6.66876e-21
6.66822e-21
6.66774e-21
6.66731e-21
6.66694e-21
6.66661e-21
6.66633e-21
6.66611e-21
6.66592e-21
6.66579e-21
6.6657e-21
6.66565e-21
6.66565e-21
6.6657e-21
6.66579e-21
6.66592e-21
6.66611e-21
6.66633e-21
6.66661e-21
6.66694e-21
6.66731e-21
6.66774e-21
6.66822e-21
6.66876e-21
6.66935e-21
6.67e-21
6.67071e-21
6.67147e-21
6.6723e-21
6.67319e-21
6.67414e-21
6.67515e-21
6.67622e-21
6.67735e-21
6.67854e-21
6.67978e-21
6.68107e-21
6.68238e-21
6.68367e-21
6.68481e-21
6.68522e-21
6.68491e-21
2.54568e-20
2.54651e-20
2.5469e-20
2.54694e-20
2.54682e-20
2.54661e-20
2.54634e-20
2.54604e-20
2.54572e-20
2.54539e-20
2.54506e-20
2.54474e-20
2.54443e-20
2.54413e-20
2.54385e-20
2.54359e-20
2.54334e-20
2.54311e-20
2.54291e-20
2.54272e-20
2.54255e-20
2.5424e-20
2.54227e-20
2.54215e-20
2.54206e-20
2.54197e-20
2.54191e-20
2.54186e-20
2.54183e-20
2.54181e-20
2.54181e-20
2.54183e-20
2.54186e-20
2.54191e-20
2.54197e-20
2.54206e-20
2.54215e-20
2.54227e-20
2.5424e-20
2.54255e-20
2.54272e-20
2.54291e-20
2.54311e-20
2.54334e-20
2.54359e-20
2.54385e-20
2.54413e-20
2.54443e-20
2.54474e-20
2.54506e-20
2.54539e-20
2.54572e-20
2.54604e-20
2.54634e-20
2.54661e-20
2.54682e-20
2.54694e-20
2.5469e-20
2.54651e-20
2.54568e-20
9.94849e-20
9.95463e-20
9.95841e-20
9.96045e-20
9.96152e-20
9.9619e-20
9.96178e-20
9.96131e-20
9.9606e-20
9.95973e-20
9.95877e-20
9.95778e-20
9.95677e-20
9.95579e-20
9.95484e-20
9.95394e-20
9.95309e-20
9.9523e-20
9.95158e-20
9.95092e-20
9.95032e-20
9.94979e-20
9.94932e-20
9.94892e-20
9.94857e-20
9.94829e-20
9.94806e-20
9.94789e-20
9.94778e-20
9.94772e-20
9.94772e-20
9.94778e-20
9.94789e-20
9.94806e-20
9.94829e-20
9.94857e-20
9.94892e-20
9.94932e-20
9.94979e-20
9.95032e-20
9.95092e-20
9.95158e-20
9.9523e-20
9.95309e-20
9.95394e-20
9.95484e-20
9.95579e-20
9.95677e-20
9.95778e-20
9.95877e-20
9.95973e-20
9.9606e-20
9.96131e-20
9.96178e-20
9.9619e-20
9.96152e-20
9.96045e-20
9.95841e-20
9.95463e-20
9.94849e-20
4.00693e-19
4.01063e-19
4.01309e-19
4.0147e-19
4.01577e-19
4.01642e-19
4.01676e-19
4.01687e-19
4.01681e-19
4.01664e-19
4.0164e-19
4.01611e-19
4.0158e-19
4.01548e-19
4.01516e-19
4.01485e-19
4.01456e-19
4.01429e-19
4.01403e-19
4.0138e-19
4.01359e-19
4.0134e-19
4.01324e-19
4.01309e-19
4.01297e-19
4.01287e-19
4.01279e-19
4.01273e-19
4.01269e-19
4.01267e-19
4.01267e-19
4.01269e-19
4.01273e-19
4.01279e-19
4.01287e-19
4.01297e-19
4.01309e-19
4.01324e-19
4.0134e-19
4.01359e-19
4.0138e-19
4.01403e-19
4.01429e-19
4.01456e-19
4.01485e-19
4.01516e-19
4.01548e-19
4.0158e-19
4.01611e-19
4.0164e-19
4.01664e-19
4.01681e-19
4.01687e-19
4.01676e-19
4.01642e-19
4.01577e-19
4.0147e-19
4.01309e-19
4.01063e-19
4.00693e-19
1.66559e-18
1.66765e-18
1.66907e-18
1.67008e-18
1.6708e-18
1.67128e-18
1.67159e-18
1.67176e-18
1.67184e-18
1.67185e-18
1.67181e-18
1.67174e-18
1.67165e-18
1.67155e-18
1.67144e-18
1.67134e-18
1.67124e-18
1.67114e-18
1.67105e-18
1.67097e-18
1.6709e-18
1.67083e-18
1.67077e-18
1.67072e-18
1.67068e-18
1.67064e-18
1.67061e-18
1.67059e-18
1.67058e-18
1.67057e-18
1.67057e-18
1.67058e-18
1.67059e-18
1.67061e-18
1.67064e-18
1.67068e-18
1.67072e-18
1.67077e-18
1.67083e-18
1.6709e-18
1.67097e-18
1.67105e-18
1.67114e-18
1.67124e-18
1.67134e-18
1.67144e-18
1.67155e-18
1.67165e-18
1.67174e-18
1.67181e-18
1.67185e-18
1.67184e-18
1.67176e-18
1.67159e-18
1.67128e-18
1.6708e-18
1.67008e-18
1.66907e-18
1.66765e-18
1.66559e-18
7.14816e-18
7.15923e-18
7.1671e-18
7.17296e-18
7.17726e-18
7.1803e-18
7.18236e-18
7.18367e-18
7.18444e-18
7.18481e-18
7.1849e-18
7.18481e-18
7.1846e-18
7.18432e-18
7.184e-18
7.18366e-18
7.18332e-18
7.18299e-18
7.18268e-18
7.18239e-18
7.18213e-18
7.18189e-18
7.18167e-18
7.18149e-18
7.18133e-18
7.1812e-18
7.1811e-18
7.18102e-18
7.18097e-18
7.18094e-18
7.18094e-18
7.18097e-18
7.18102e-18
7.1811e-18
7.1812e-18
7.18133e-18
7.18149e-18
7.18167e-18
7.18189e-18
7.18213e-18
7.18239e-18
7.18268e-18
7.18299e-18
7.18332e-18
7.18366e-18
7.184e-18
7.18432e-18
7.1846e-18
7.18481e-18
7.1849e-18
7.18481e-18
7.18444e-18
7.18367e-18
7.18236e-18
7.1803e-18
7.17726e-18
7.17296e-18
7.1671e-18
7.15923e-18
7.14816e-18
3.16697e-17
3.17286e-17
3.17716e-17
3.18045e-17
3.18291e-17
3.18469e-17
3.18594e-17
3.18678e-17
3.18732e-17
3.18763e-17
3.1878e-17
3.18785e-17
3.18784e-17
3.18778e-17
3.18769e-17
3.18758e-17
3.18747e-17
3.18736e-17
3.18725e-17
3.18715e-17
3.18705e-17
3.18697e-17
3.18689e-17
3.18683e-17
3.18677e-17
3.18672e-17
3.18668e-17
3.18666e-17
3.18664e-17
3.18663e-17
3.18663e-17
3.18664e-17
3.18666e-17
3.18668e-17
3.18672e-17
3.18677e-17
3.18683e-17
3.18689e-17
3.18697e-17
3.18705e-17
3.18715e-17
3.18725e-17
3.18736e-17
3.18747e-17
3.18758e-17
3.18769e-17
3.18778e-17
3.18784e-17
3.18785e-17
3.1878e-17
3.18763e-17
3.18732e-17
3.18678e-17
3.18594e-17
3.18469e-17
3.18291e-17
3.18045e-17
3.17716e-17
3.17286e-17
3.16697e-17
1.44773e-16
1.45087e-16
1.45321e-16
1.45504e-16
1.45643e-16
1.45744e-16
1.45817e-16
1.45868e-16
1.45901e-16
1.45923e-16
1.45936e-16
1.45943e-16
1.45945e-16
1.45945e-16
1.45944e-16
1.45941e-16
1.45938e-16
1.45934e-16
1.4593e-16
1.45927e-16
1.45923e-16
1.4592e-16
1.45917e-16
1.45915e-16
1.45913e-16
1.45911e-16
1.4591e-16
1.45909e-16
1.45908e-16
1.45908e-16
1.45908e-16
1.45908e-16
1.45909e-16
1.4591e-16
1.45911e-16
1.45913e-16
1.45915e-16
1.45917e-16
1.4592e-16
1.45923e-16
1.45927e-16
1.4593e-16
1.45934e-16
1.45938e-16
1.45941e-16
1.45944e-16
1.45945e-16
1.45945e-16
1.45943e-16
1.45936e-16
1.45923e-16
1.45901e-16
1.45868e-16
1.45817e-16
1.45744e-16
1.45643e-16
1.45504e-16
1.45321e-16
1.45087e-16
1.44773e-16
6.82187e-16
6.83873e-16
6.85161e-16
6.86179e-16
6.86957e-16
6.87534e-16
6.87952e-16
6.88247e-16
6.88449e-16
6.88584e-16
6.88671e-16
6.88723e-16
6.88752e-16
6.88765e-16
6.88767e-16
6.88763e-16
6.88754e-16
6.88743e-16
6.88731e-16
6.88719e-16
6.88707e-16
6.88696e-16
6.88686e-16
6.88678e-16
6.8867e-16
6.88664e-16
6.88659e-16
6.88655e-16
6.88652e-16
6.88651e-16
6.88651e-16
6.88652e-16
6.88655e-16
6.88659e-16
6.88664e-16
6.8867e-16
6.88678e-16
6.88686e-16
6.88696e-16
6.88707e-16
6.88719e-16
6.88731e-16
6.88743e-16
6.88754e-16
6.88763e-16
6.88767e-16
6.88765e-16
6.88752e-16
6.88723e-16
6.88671e-16
6.88584e-16
6.88449e-16
6.88247e-16
6.87952e-16
6.87534e-16
6.86957e-16
6.86179e-16
6.85161e-16
6.83873e-16
6.82187e-16
3.30879e-15
3.31794e-15
3.3251e-15
3.3308e-15
3.33519e-15
3.33847e-15
3.34086e-15
3.34257e-15
3.34376e-15
3.34457e-15
3.34512e-15
3.34546e-15
3.34568e-15
3.3458e-15
3.34586e-15
3.34587e-15
3.34586e-15
3.34584e-15
3.3458e-15
3.34576e-15
3.34573e-15
3.34569e-15
3.34565e-15
3.34562e-15
3.34559e-15
3.34557e-15
3.34555e-15
3.34553e-15
3.34552e-15
3.34552e-15
3.34552e-15
3.34552e-15
3.34553e-15
3.34555e-15
3.34557e-15
3.34559e-15
3.34562e-15
3.34565e-15
3.34569e-15
3.34573e-15
3.34576e-15
3.3458e-15
3.34584e-15
3.34586e-15
3.34587e-15
3.34586e-15
3.3458e-15
3.34568e-15
3.34546e-15
3.34512e-15
3.34457e-15
3.34376e-15
3.34257e-15
3.34086e-15
3.33847e-15
3.33519e-15
3.3308e-15
3.3251e-15
3.31794e-15
3.30879e-15
1.64868e-14
1.65371e-14
1.65773e-14
1.66096e-14
1.66345e-14
1.66532e-14
1.6667e-14
1.66769e-14
1.66838e-14
1.66887e-14
1.6692e-14
1.66942e-14
1.66956e-14
1.66964e-14
1.6697e-14
1.66972e-14
1.66973e-14
1.66973e-14
1.66972e-14
1.66971e-14
1.6697e-14
1.66969e-14
1.66967e-14
1.66966e-14
1.66965e-14
1.66964e-14
1.66964e-14
1.66963e-14
1.66963e-14
1.66963e-14
1.66963e-14
1.66963e-14
1.66963e-14
1.66964e-14
1.66964e-14
1.66965e-14
1.66966e-14
1.66967e-14
1.66969e-14
1.6697e-14
1.66971e-14
1.66972e-14
1.66973e-14
1.66973e-14
1.66972e-14
1.6697e-14
1.66964e-14
1.66956e-14
1.66942e-14
1.6692e-14
1.66887e-14
1.66838e-14
1.66769e-14
1.6667e-14
1.66532e-14
1.66345e-14
1.66096e-14
1.65773e-14
1.65371e-14
1.64868e-14
8.41811e-14
8.44612e-14
8.46892e-14
8.48736e-14
8.50165e-14
8.51242e-14
8.52036e-14
8.52609e-14
8.53018e-14
8.53304e-14
8.53501e-14
8.53635e-14
8.53724e-14
8.53782e-14
8.53818e-14
8.5384e-14
8.53852e-14
8.53857e-14
8.53858e-14
8.53856e-14
8.53853e-14
8.53849e-14
8.53844e-14
8.5384e-14
8.53837e-14
8.53833e-14
8.53831e-14
8.53829e-14
8.53827e-14
8.53827e-14
8.53827e-14
8.53827e-14
8.53829e-14
8.53831e-14
8.53833e-14
8.53837e-14
8.5384e-14
8.53844e-14
8.53849e-14
8.53853e-14
8.53856e-14
8.53858e-14
8.53857e-14
8.53852e-14
8.5384e-14
8.53818e-14
8.53782e-14
8.53724e-14
8.53635e-14
8.53501e-14
8.53304e-14
8.53018e-14
8.52609e-14
8.52036e-14
8.51242e-14
8.50165e-14
8.48736e-14
8.46892e-14
8.44612e-14
8.41811e-14
4.39079e-13
4.40657e-13
4.41965e-13
4.43026e-13
4.43852e-13
4.44475e-13
4.44936e-13
4.45271e-13
4.4551e-13
4.45679e-13
4.45796e-13
4.45877e-13
4.45932e-13
4.45969e-13
4.45993e-13
4.46008e-13
4.46017e-13
4.46023e-13
4.46025e-13
4.46026e-13
4.46026e-13
4.46025e-13
4.46023e-13
4.46022e-13
4.46021e-13
4.4602e-13
4.46019e-13
4.46018e-13
4.46017e-13
4.46017e-13
4.46017e-13
4.46017e-13
4.46018e-13
4.46019e-13
4.4602e-13
4.46021e-13
4.46022e-13
4.46023e-13
4.46025e-13
4.46026e-13
4.46026e-13
4.46025e-13
4.46023e-13
4.46017e-13
4.46008e-13
4.45993e-13
4.45969e-13
4.45932e-13
4.45877e-13
4.45796e-13
4.45679e-13
4.4551e-13
4.45271e-13
4.44936e-13
4.44475e-13
4.43852e-13
4.43026e-13
4.41965e-13
4.40657e-13
4.39079e-13
2.33061e-12
2.33958e-12
2.34713e-12
2.35328e-12
2.35807e-12
2.3617e-12
2.36438e-12
2.36634e-12
2.36774e-12
2.36874e-12
2.36944e-12
2.36993e-12
2.37026e-12
2.37049e-12
2.37064e-12
2.37074e-12
2.3708e-12
2.37084e-12
2.37086e-12
2.37088e-12
2.37088e-12
2.37088e-12
2.37088e-12
2.37088e-12
2.37087e-12
2.37087e-12
2.37086e-12
2.37086e-12
2.37086e-12
2.37086e-12
2.37086e-12
2.37086e-12
2.37086e-12
2.37086e-12
2.37087e-12
2.37087e-12
2.37088e-12
2.37088e-12
2.37088e-12
2.37088e-12
2.37088e-12
2.37086e-12
2.37084e-12
2.3708e-12
2.37074e-12
2.37064e-12
2.37049e-12
2.37026e-12
2.36993e-12
2.36944e-12
2.36874e-12
2.36774e-12
2.36634e-12
2.36438e-12
2.3617e-12
2.35807e-12
2.35328e-12
2.34713e-12
2.33958e-12
2.33061e-12
1.25318e-11
1.25831e-11
1.26268e-11
1.26625e-11
1.26904e-11
1.27115e-11
1.27272e-11
1.27386e-11
1.27469e-11
1.27527e-11
1.27569e-11
1.27598e-11
1.27618e-11
1.27632e-11
1.27641e-11
1.27647e-11
1.27652e-11
1.27654e-11
1.27656e-11
1.27657e-11
1.27658e-11
1.27658e-11
1.27658e-11
1.27658e-11
1.27658e-11
1.27658e-11
1.27658e-11
1.27657e-11
1.27657e-11
1.27657e-11
1.27657e-11
1.27657e-11
1.27657e-11
1.27658e-11
1.27658e-11
1.27658e-11
1.27658e-11
1.27658e-11
1.27658e-11
1.27658e-11
1.27657e-11
1.27656e-11
1.27654e-11
1.27652e-11
1.27647e-11
1.27641e-11
1.27632e-11
1.27618e-11
1.27598e-11
1.27569e-11
1.27527e-11
1.27469e-11
1.27386e-11
1.27272e-11
1.27115e-11
1.26904e-11
1.26625e-11
1.26268e-11
1.25831e-11
1.25318e-11
6.78951e-11
6.81882e-11
6.8441e-11
6.86479e-11
6.88095e-11
6.89322e-11
6.90234e-11
6.90901e-11
6.91382e-11
6.91726e-11
6.91969e-11
6.9214e-11
6.9226e-11
6.92342e-11
6.92399e-11
6.92438e-11
6.92465e-11
6.92482e-11
6.92494e-11
6.92501e-11
6.92505e-11
6.92508e-11
6.92509e-11
6.9251e-11
6.9251e-11
6.9251e-11
6.9251e-11
6.92509e-11
6.92509e-11
6.92509e-11
6.92509e-11
6.92509e-11
6.92509e-11
6.9251e-11
6.9251e-11
6.9251e-11
6.9251e-11
6.92509e-11
6.92508e-11
6.92505e-11
6.92501e-11
6.92494e-11
6.92482e-11
6.92465e-11
6.92438e-11
6.92399e-11
6.92342e-11
6.9226e-11
6.9214e-11
6.91969e-11
6.91726e-11
6.91382e-11
6.90901e-11
6.90234e-11
6.89322e-11
6.88095e-11
6.86479e-11
6.8441e-11
6.81882e-11
6.78951e-11
3.68312e-10
3.69977e-10
3.71427e-10
3.72616e-10
3.73545e-10
3.74251e-10
3.74777e-10
3.75161e-10
3.7544e-10
3.75639e-10
3.7578e-10
3.7588e-10
3.7595e-10
3.75999e-10
3.76033e-10
3.76056e-10
3.76072e-10
3.76083e-10
3.7609e-10
3.76095e-10
3.76098e-10
3.761e-10
3.76101e-10
3.76102e-10
3.76102e-10
3.76103e-10
3.76103e-10
3.76103e-10
3.76103e-10
3.76102e-10
3.76102e-10
3.76103e-10
3.76103e-10
3.76103e-10
3.76103e-10
3.76102e-10
3.76102e-10
3.76101e-10
3.761e-10
3.76098e-10
3.76095e-10
3.7609e-10
3.76083e-10
3.76072e-10
3.76056e-10
3.76033e-10
3.75999e-10
3.7595e-10
3.7588e-10
3.7578e-10
3.75639e-10
3.7544e-10
3.75161e-10
3.74777e-10
3.74251e-10
3.73545e-10
3.72616e-10
3.71427e-10
3.69977e-10
3.68312e-10
1.98608e-09
1.99542e-09
2.00361e-09
2.01034e-09
2.0156e-09
2.01959e-09
2.02257e-09
2.02476e-09
2.02634e-09
2.02747e-09
2.02828e-09
2.02885e-09
2.02925e-09
2.02954e-09
2.02973e-09
2.02987e-09
2.02996e-09
2.03003e-09
2.03007e-09
2.0301e-09
2.03012e-09
2.03014e-09
2.03015e-09
2.03015e-09
2.03015e-09
2.03016e-09
2.03016e-09
2.03016e-09
2.03016e-09
2.03016e-09
2.03016e-09
2.03016e-09
2.03016e-09
2.03016e-09
2.03016e-09
2.03015e-09
2.03015e-09
2.03015e-09
2.03014e-09
2.03012e-09
2.0301e-09
2.03007e-09
2.03003e-09
2.02996e-09
2.02987e-09
2.02973e-09
2.02954e-09
2.02925e-09
2.02885e-09
2.02828e-09
2.02747e-09
2.02634e-09
2.02476e-09
2.02257e-09
2.01959e-09
2.0156e-09
2.01034e-09
2.00361e-09
1.99542e-09
1.98608e-09
1.05583e-08
1.06096e-08
1.06548e-08
1.06919e-08
1.0721e-08
1.07431e-08
1.07596e-08
1.07717e-08
1.07804e-08
1.07867e-08
1.07912e-08
1.07944e-08
1.07967e-08
1.07982e-08
1.07994e-08
1.08001e-08
1.08007e-08
1.08011e-08
1.08013e-08
1.08015e-08
1.08016e-08
1.08017e-08
1.08017e-08
1.08018e-08
1.08018e-08
1.08018e-08
1.08018e-08
1.08018e-08
1.08018e-08
1.08018e-08
1.08018e-08
1.08018e-08
1.08018e-08
1.08018e-08
1.08018e-08
1.08018e-08
1.08018e-08
1.08017e-08
1.08017e-08
1.08016e-08
1.08015e-08
1.08013e-08
1.08011e-08
1.08007e-08
1.08001e-08
1.07994e-08
1.07982e-08
1.07967e-08
1.07944e-08
1.07912e-08
1.07867e-08
1.07804e-08
1.07717e-08
1.07596e-08
1.07431e-08
1.0721e-08
1.06919e-08
1.06548e-08
1.06096e-08
1.05583e-08
5.48244e-08
5.5097e-08
5.53384e-08
5.55366e-08
5.56917e-08
5.58098e-08
5.58978e-08
5.59625e-08
5.60094e-08
5.60432e-08
5.60674e-08
5.60845e-08
5.60967e-08
5.61053e-08
5.61113e-08
5.61156e-08
5.61186e-08
5.61207e-08
5.61221e-08
5.61231e-08
5.61238e-08
5.61243e-08
5.61246e-08
5.61248e-08
5.6125e-08
5.61251e-08
5.61251e-08
5.61252e-08
5.61252e-08
5.61252e-08
5.61252e-08
5.61252e-08
5.61252e-08
5.61251e-08
5.61251e-08
5.6125e-08
5.61248e-08
5.61246e-08
5.61243e-08
5.61238e-08
5.61231e-08
5.61221e-08
5.61207e-08
5.61186e-08
5.61156e-08
5.61113e-08
5.61053e-08
5.60967e-08
5.60845e-08
5.60674e-08
5.60432e-08
5.60094e-08
5.59625e-08
5.58978e-08
5.58098e-08
5.56917e-08
5.55366e-08
5.53384e-08
5.5097e-08
5.48244e-08
2.75191e-07
2.7658e-07
2.77813e-07
2.78825e-07
2.79618e-07
2.80221e-07
2.80671e-07
2.81001e-07
2.81242e-07
2.81415e-07
2.81539e-07
2.81627e-07
2.8169e-07
2.81734e-07
2.81765e-07
2.81788e-07
2.81803e-07
2.81814e-07
2.81822e-07
2.81827e-07
2.81831e-07
2.81834e-07
2.81836e-07
2.81837e-07
2.81838e-07
2.81838e-07
2.81839e-07
2.81839e-07
2.81839e-07
2.81839e-07
2.81839e-07
2.81839e-07
2.81839e-07
2.81839e-07
2.81838e-07
2.81838e-07
2.81837e-07
2.81836e-07
2.81834e-07
2.81831e-07
2.81827e-07
2.81822e-07
2.81814e-07
2.81803e-07
2.81788e-07
2.81765e-07
2.81734e-07
2.8169e-07
2.81627e-07
2.81539e-07
2.81415e-07
2.81242e-07
2.81001e-07
2.80671e-07
2.80221e-07
2.79618e-07
2.78825e-07
2.77813e-07
2.7658e-07
2.75191e-07
1.32015e-06
1.32685e-06
1.3328e-06
1.33769e-06
1.34151e-06
1.34442e-06
1.34659e-06
1.34819e-06
1.34935e-06
1.35019e-06
1.35079e-06
1.35122e-06
1.35152e-06
1.35174e-06
1.35189e-06
1.352e-06
1.35208e-06
1.35213e-06
1.35217e-06
1.3522e-06
1.35222e-06
1.35223e-06
1.35224e-06
1.35225e-06
1.35225e-06
1.35225e-06
1.35226e-06
1.35226e-06
1.35226e-06
1.35226e-06
1.35226e-06
1.35226e-06
1.35226e-06
1.35226e-06
1.35225e-06
1.35225e-06
1.35225e-06
1.35224e-06
1.35223e-06
1.35222e-06
1.3522e-06
1.35217e-06
1.35213e-06
1.35208e-06
1.352e-06
1.35189e-06
1.35174e-06
1.35152e-06
1.35122e-06
1.35079e-06
1.35019e-06
1.34935e-06
1.34819e-06
1.34659e-06
1.34442e-06
1.34151e-06
1.33769e-06
1.3328e-06
1.32685e-06
1.32015e-06
5.97758e-06
6.00779e-06
6.03458e-06
6.05654e-06
6.07372e-06
6.08681e-06
6.09658e-06
6.10378e-06
6.10901e-06
6.11279e-06
6.11549e-06
6.11743e-06
6.11881e-06
6.11979e-06
6.12049e-06
6.12098e-06
6.12134e-06
6.12159e-06
6.12176e-06
6.12189e-06
6.12198e-06
6.12204e-06
6.12209e-06
6.12212e-06
6.12214e-06
6.12216e-06
6.12217e-06
6.12217e-06
6.12218e-06
6.12218e-06
6.12218e-06
6.12218e-06
6.12217e-06
6.12217e-06
6.12216e-06
6.12214e-06
6.12212e-06
6.12209e-06
6.12204e-06
6.12198e-06
6.12189e-06
6.12176e-06
6.12159e-06
6.12134e-06
6.12098e-06
6.12049e-06
6.11979e-06
6.11881e-06
6.11743e-06
6.11549e-06
6.11279e-06
6.10901e-06
6.10378e-06
6.09658e-06
6.08681e-06
6.07372e-06
6.05654e-06
6.03458e-06
6.00779e-06
5.97758e-06
2.52033e-05
2.53284e-05
2.54392e-05
2.55298e-05
2.56008e-05
2.56548e-05
2.56951e-05
2.57248e-05
2.57465e-05
2.57621e-05
2.57733e-05
2.57813e-05
2.5787e-05
2.57911e-05
2.5794e-05
2.57961e-05
2.57976e-05
2.57986e-05
2.57994e-05
2.57999e-05
2.58003e-05
2.58006e-05
2.58008e-05
2.58009e-05
2.5801e-05
2.58011e-05
2.58011e-05
2.58012e-05
2.58012e-05
2.58012e-05
2.58012e-05
2.58012e-05
2.58012e-05
2.58011e-05
2.58011e-05
2.5801e-05
2.58009e-05
2.58008e-05
2.58006e-05
2.58003e-05
2.57999e-05
2.57994e-05
2.57986e-05
2.57976e-05
2.57961e-05
2.5794e-05
2.57911e-05
2.5787e-05
2.57813e-05
2.57733e-05
2.57621e-05
2.57465e-05
2.57248e-05
2.56951e-05
2.56548e-05
2.56008e-05
2.55298e-05
2.54392e-05
2.53284e-05
2.52033e-05
9.75082e-05
9.79768e-05
9.83901e-05
9.87279e-05
9.89921e-05
9.91933e-05
9.93437e-05
9.94544e-05
9.9535e-05
9.95933e-05
9.96352e-05
9.96652e-05
9.96866e-05
9.9702e-05
9.97129e-05
9.97207e-05
9.97263e-05
9.97303e-05
9.97332e-05
9.97352e-05
9.97367e-05
9.97377e-05
9.97385e-05
9.9739e-05
9.97394e-05
9.97397e-05
9.97399e-05
9.974e-05
9.97401e-05
9.97401e-05
9.97401e-05
9.97401e-05
9.974e-05
9.97399e-05
9.97397e-05
9.97394e-05
9.9739e-05
9.97385e-05
9.97377e-05
9.97367e-05
9.97352e-05
9.97332e-05
9.97303e-05
9.97263e-05
9.97207e-05
9.97129e-05
9.9702e-05
9.96866e-05
9.96652e-05
9.96352e-05
9.95933e-05
9.9535e-05
9.94544e-05
9.93437e-05
9.91933e-05
9.89921e-05
9.87279e-05
9.83901e-05
9.79768e-05
9.75082e-05
0.000340733
0.00034229
0.000343656
0.000344771
0.000345642
0.000346306
0.000346802
0.000347167
0.000347433
0.000347626
0.000347764
0.000347864
0.000347935
0.000347985
0.000348022
0.000348048
0.000348067
0.00034808
0.00034809
0.000348097
0.000348102
0.000348105
0.000348108
0.000348109
0.000348111
0.000348112
0.000348112
0.000348113
0.000348113
0.000348113
0.000348113
0.000348113
0.000348113
0.000348112
0.000348112
0.000348111
0.000348109
0.000348108
0.000348105
0.000348102
0.000348097
0.00034809
0.00034808
0.000348067
0.000348048
0.000348022
0.000347985
0.000347935
0.000347864
0.000347764
0.000347626
0.000347433
0.000347167
0.000346802
0.000346306
0.000345642
0.000344771
0.000343656
0.00034229
0.000340733
0.00105775
0.00106224
0.00106616
0.00106935
0.00107184
0.00107374
0.00107516
0.0010762
0.00107697
0.00107752
0.00107792
0.0010782
0.0010784
0.00107855
0.00107866
0.00107873
0.00107879
0.00107882
0.00107885
0.00107887
0.00107889
0.0010789
0.00107891
0.00107891
0.00107891
0.00107892
0.00107892
0.00107892
0.00107892
0.00107892
0.00107892
0.00107892
0.00107892
0.00107892
0.00107892
0.00107891
0.00107891
0.00107891
0.0010789
0.00107889
0.00107887
0.00107885
0.00107882
0.00107879
0.00107873
0.00107866
0.00107855
0.0010784
0.0010782
0.00107792
0.00107752
0.00107697
0.0010762
0.00107516
0.00107374
0.00107184
0.00106935
0.00106616
0.00106224
0.00105775
0.00287068
0.0028817
0.00289124
0.002899
0.00290505
0.00290966
0.00291311
0.00291565
0.0029175
0.00291885
0.00291981
0.00292051
0.00292101
0.00292136
0.00292162
0.00292181
0.00292194
0.00292204
0.0029221
0.00292215
0.00292219
0.00292222
0.00292224
0.00292225
0.00292226
0.00292227
0.00292227
0.00292228
0.00292228
0.00292228
0.00292228
0.00292228
0.00292228
0.00292227
0.00292227
0.00292226
0.00292225
0.00292224
0.00292222
0.00292219
0.00292215
0.0029221
0.00292204
0.00292194
0.00292181
0.00292162
0.00292136
0.00292101
0.00292051
0.00291981
0.00291885
0.0029175
0.00291565
0.00291311
0.00290966
0.00290505
0.002899
0.00289124
0.0028817
0.00287068
0.00672605
0.00674867
0.00676811
0.00678387
0.00679616
0.00680552
0.00681251
0.00681767
0.00682144
0.00682417
0.00682614
0.00682756
0.00682858
0.00682931
0.00682984
0.00683022
0.00683049
0.00683069
0.00683083
0.00683094
0.00683101
0.00683107
0.00683111
0.00683113
0.00683116
0.00683117
0.00683118
0.00683119
0.00683119
0.00683119
0.00683119
0.00683119
0.00683119
0.00683118
0.00683117
0.00683116
0.00683113
0.00683111
0.00683107
0.00683101
0.00683094
0.00683083
0.00683069
0.00683049
0.00683022
0.00682984
0.00682931
0.00682858
0.00682756
0.00682614
0.00682417
0.00682144
0.00681767
0.00681251
0.00680552
0.00679616
0.00678387
0.00676811
0.00674867
0.00672605
0.0135423
0.013581
0.013614
0.0136406
0.0136614
0.0136772
0.0136891
0.0136978
0.0137042
0.0137088
0.0137122
0.0137146
0.0137163
0.0137175
0.0137184
0.0137191
0.0137196
0.0137199
0.0137201
0.0137203
0.0137205
0.0137205
0.0137206
0.0137207
0.0137207
0.0137207
0.0137208
0.0137208
0.0137208
0.0137208
0.0137208
0.0137208
0.0137208
0.0137208
0.0137207
0.0137207
0.0137207
0.0137206
0.0137205
0.0137205
0.0137203
0.0137201
0.0137199
0.0137196
0.0137191
0.0137184
0.0137175
0.0137163
0.0137146
0.0137122
0.0137088
0.0137042
0.0136978
0.0136891
0.0136772
0.0136614
0.0136406
0.013614
0.013581
0.0135423
0.0235987
0.0236549
0.0237022
0.0237404
0.0237701
0.0237927
0.0238096
0.0238222
0.0238313
0.0238379
0.0238428
0.0238462
0.0238487
0.0238505
0.0238518
0.0238528
0.0238534
0.0238539
0.0238543
0.0238546
0.0238548
0.0238549
0.023855
0.0238551
0.0238551
0.0238552
0.0238552
0.0238552
0.0238552
0.0238552
0.0238552
0.0238552
0.0238552
0.0238552
0.0238552
0.0238551
0.0238551
0.023855
0.0238549
0.0238548
0.0238546
0.0238543
0.0238539
0.0238534
0.0238528
0.0238518
0.0238505
0.0238487
0.0238462
0.0238428
0.0238379
0.0238313
0.0238222
0.0238096
0.0237927
0.0237701
0.0237404
0.0237022
0.0236549
0.0235987
0.0362766
0.036348
0.0364076
0.0364554
0.0364927
0.0365211
0.0365423
0.036558
0.0365695
0.0365779
0.036584
0.0365884
0.0365915
0.0365938
0.0365955
0.0365967
0.0365975
0.0365982
0.0365986
0.036599
0.0365992
0.0365994
0.0365995
0.0365996
0.0365997
0.0365998
0.0365998
0.0365998
0.0365998
0.0365998
0.0365998
0.0365998
0.0365998
0.0365998
0.0365998
0.0365997
0.0365996
0.0365995
0.0365994
0.0365992
0.036599
0.0365986
0.0365982
0.0365975
0.0365967
0.0365955
0.0365938
0.0365915
0.0365884
0.036584
0.0365779
0.0365695
0.036558
0.0365423
0.0365211
0.0364927
0.0364554
0.0364076
0.036348
0.0362766
0.0504982
0.0505814
0.0506501
0.0507052
0.050748
0.0507807
0.0508052
0.0508233
0.0508366
0.0508463
0.0508533
0.0508584
0.0508621
0.0508648
0.0508667
0.0508681
0.0508691
0.0508699
0.0508704
0.0508708
0.0508711
0.0508713
0.0508715
0.0508716
0.0508717
0.0508718
0.0508718
0.0508718
0.0508719
0.0508719
0.0508719
0.0508719
0.0508718
0.0508718
0.0508718
0.0508717
0.0508716
0.0508715
0.0508713
0.0508711
0.0508708
0.0508704
0.0508699
0.0508691
0.0508681
0.0508667
0.0508648
0.0508621
0.0508584
0.0508533
0.0508463
0.0508366
0.0508233
0.0508052
0.0507807
0.050748
0.0507052
0.0506501
0.0505814
0.0504982
0.0653634
0.0654559
0.0655316
0.0655921
0.0656392
0.0656751
0.0657021
0.0657221
0.0657368
0.0657475
0.0657553
0.065761
0.0657651
0.0657681
0.0657702
0.0657718
0.065773
0.0657738
0.0657744
0.0657749
0.0657752
0.0657755
0.0657757
0.0657758
0.0657759
0.065776
0.065776
0.0657761
0.0657761
0.0657761
0.0657761
0.0657761
0.0657761
0.065776
0.065776
0.0657759
0.0657758
0.0657757
0.0657755
0.0657752
0.0657749
0.0657744
0.0657738
0.065773
0.0657718
0.0657702
0.0657681
0.0657651
0.065761
0.0657553
0.0657475
0.0657368
0.0657221
0.0657021
0.0656751
0.0656392
0.0655921
0.0655316
0.0654559
0.0653634
0.0804044
0.080505
0.0805868
0.080652
0.0807029
0.0807417
0.0807708
0.0807925
0.0808084
0.0808201
0.0808286
0.0808348
0.0808393
0.0808425
0.0808449
0.0808466
0.0808479
0.0808489
0.0808495
0.0808501
0.0808504
0.0808507
0.0808509
0.0808511
0.0808512
0.0808513
0.0808513
0.0808514
0.0808514
0.0808514
0.0808514
0.0808514
0.0808514
0.0808513
0.0808513
0.0808512
0.0808511
0.0808509
0.0808507
0.0808504
0.0808501
0.0808495
0.0808489
0.0808479
0.0808466
0.0808449
0.0808425
0.0808393
0.0808348
0.0808286
0.0808201
0.0808084
0.0807925
0.0807708
0.0807417
0.0807029
0.080652
0.0805868
0.080505
0.0804044
0.0954774
0.0955859
0.0956735
0.0957434
0.0957978
0.0958394
0.0958707
0.0958941
0.0959113
0.0959239
0.0959331
0.0959398
0.0959446
0.0959482
0.0959508
0.0959527
0.0959541
0.0959551
0.0959559
0.0959565
0.0959569
0.0959572
0.0959574
0.0959576
0.0959577
0.0959578
0.0959579
0.0959579
0.0959579
0.095958
0.095958
0.0959579
0.0959579
0.0959579
0.0959578
0.0959577
0.0959576
0.0959574
0.0959572
0.0959569
0.0959565
0.0959559
0.0959551
0.0959541
0.0959527
0.0959508
0.0959482
0.0959446
0.0959398
0.0959331
0.0959239
0.0959113
0.0958941
0.0958707
0.0958394
0.0957978
0.0957434
0.0956735
0.0955859
0.0954774
0.110579
0.110695
0.110789
0.110863
0.110921
0.110966
0.110999
0.111024
0.111043
0.111057
0.111066
0.111074
0.111079
0.111083
0.111086
0.111088
0.111089
0.11109
0.111091
0.111092
0.111092
0.111093
0.111093
0.111093
0.111093
0.111093
0.111094
0.111094
0.111094
0.111094
0.111094
0.111094
0.111094
0.111094
0.111093
0.111093
0.111093
0.111093
0.111093
0.111092
0.111092
0.111091
0.11109
0.111089
0.111088
0.111086
0.111083
0.111079
0.111074
0.111066
0.111057
0.111043
0.111024
0.110999
0.110966
0.110921
0.110863
0.110789
0.110695
0.110579
0.125736
0.125859
0.125959
0.126038
0.1261
0.126148
0.126183
0.12621
0.12623
0.126245
0.126255
0.126263
0.126269
0.126273
0.126276
0.126279
0.12628
0.126282
0.126282
0.126283
0.126284
0.126284
0.126284
0.126285
0.126285
0.126285
0.126285
0.126285
0.126285
0.126285
0.126285
0.126285
0.126285
0.126285
0.126285
0.126285
0.126285
0.126284
0.126284
0.126284
0.126283
0.126282
0.126282
0.12628
0.126279
0.126276
0.126273
0.126269
0.126263
0.126255
0.126245
0.12623
0.12621
0.126183
0.126148
0.1261
0.126038
0.125959
0.125859
0.125736
0.140966
0.141097
0.141203
0.141287
0.141353
0.141403
0.141442
0.14147
0.141491
0.141507
0.141519
0.141527
0.141533
0.141538
0.141541
0.141544
0.141546
0.141547
0.141548
0.141549
0.141549
0.14155
0.14155
0.14155
0.14155
0.14155
0.141551
0.141551
0.141551
0.141551
0.141551
0.141551
0.141551
0.141551
0.14155
0.14155
0.14155
0.14155
0.14155
0.141549
0.141549
0.141548
0.141547
0.141546
0.141544
0.141541
0.141538
0.141533
0.141527
0.141519
0.141507
0.141491
0.14147
0.141442
0.141403
0.141353
0.141287
0.141203
0.141097
0.140966
0.156277
0.156416
0.156527
0.156616
0.156686
0.156739
0.15678
0.15681
0.156833
0.15685
0.156862
0.156871
0.156878
0.156883
0.156887
0.156889
0.156891
0.156893
0.156894
0.156895
0.156895
0.156896
0.156896
0.156896
0.156897
0.156897
0.156897
0.156897
0.156897
0.156897
0.156897
0.156897
0.156897
0.156897
0.156897
0.156897
0.156896
0.156896
0.156896
0.156895
0.156895
0.156894
0.156893
0.156891
0.156889
0.156887
0.156883
0.156878
0.156871
0.156862
0.15685
0.156833
0.15681
0.15678
0.156739
0.156686
0.156616
0.156527
0.156416
0.156277
0.171666
0.171812
0.171929
0.172023
0.172096
0.172153
0.172196
0.172229
0.172253
0.172271
0.172284
0.172294
0.172301
0.172306
0.17231
0.172313
0.172315
0.172317
0.172318