/*--------------------------------*- C++ -*----------------------------------*\
| =========                 |                                                 |
| \\      /  F ield         | foam-extend: Open Source CFD                    |
|  \\    /   O peration     | Version:     4.0                                |
|   \\  /    A nd           | Web:         http://www.foam-extend.org         |
|    \\/     M anipulation  |                                                 |
\*---------------------------------------------------------------------------*/
FoamFile
{
    version     2.0;
    format      ascii;
    class       volVectorField;
    location    "4";
    object      U;
}
// * * * * * * * * * * * * * * * * * * * * * * * * * * * * * * * * * * * * * //

dimensions      [0 1 -1 0 0 0 0];

internalField   nonuniform List<vector> 
6960
(
(-4.00624e-28 -1.18848e-26 0)
(-3.01496e-28 -8.17474e-30 0)
(8.33373e-29 3.27485e-29 0)
(1.3661e-29 1.30783e-28 0)
(6.77367e-30 1.88386e-28 0)
(-6.58911e-30 1.05041e-28 0)
(2.6297e-29 3.04723e-29 0)
(-5.12242e-31 6.35411e-29 0)
(-4.92473e-29 1.44591e-28 0)
(-6.5755e-29 2.32718e-28 0)
(-8.47719e-30 2.76639e-28 0)
(6.22183e-29 2.01106e-28 0)
(9.17145e-29 7.16454e-29 0)
(5.93191e-29 4.08579e-29 0)
(2.79008e-29 1.33734e-28 0)
(2.29157e-29 1.95408e-28 0)
(-9.84495e-30 1.5652e-28 0)
(-4.58353e-29 1.48042e-28 0)
(-3.10055e-29 2.20312e-28 0)
(9.27497e-30 2.49673e-28 0)
(2.3585e-29 1.6319e-28 0)
(1.0601e-30 8.14272e-29 0)
(-9.17549e-30 1.087e-28 0)
(2.07266e-30 1.52554e-28 0)
(-3.64952e-30 1.21381e-28 0)
(-4.31464e-29 5.97885e-29 0)
(-7.91654e-29 6.57972e-29 0)
(-4.6424e-29 1.83952e-28 0)
(2.35592e-29 3.09484e-28 0)
(4.00404e-29 2.96378e-28 0)
(-1.30218e-29 2.27882e-28 0)
(-4.13223e-29 1.79424e-28 0)
(7.55325e-30 1.34201e-28 0)
(3.83961e-29 1.24863e-28 0)
(1.58558e-29 1.39337e-28 0)
(1.73872e-29 2.23277e-28 0)
(2.37103e-29 3.75416e-28 0)
(-6.10145e-30 4.51756e-28 0)
(-3.20117e-29 4.48452e-28 0)
(-2.51835e-29 4.38317e-28 0)
(-2.18419e-30 4.0562e-28 0)
(4.14045e-30 3.84851e-28 0)
(-1.17144e-29 3.77271e-28 0)
(-2.7206e-29 3.00025e-28 0)
(-4.24323e-30 1.89304e-28 0)
(4.55088e-29 1.5178e-28 0)
(4.72537e-29 1.79144e-28 0)
(1.142e-29 2.5947e-28 0)
(1.35291e-29 4.00778e-28 0)
(2.84258e-29 4.60042e-28 0)
(8.37257e-30 3.72974e-28 0)
(-2.0568e-29 2.53172e-28 0)
(-2.66701e-29 1.20038e-28 0)
(-1.2067e-29 1.21584e-29 0)
(-1.00412e-30 2.84204e-29 0)
(9.55151e-31 9.19759e-29 0)
(-1.22744e-29 1.34306e-28 0)
(-1.18229e-29 2.04623e-28 0)
(2.29815e-29 2.21811e-28 0)
(2.30346e-29 1.84679e-28 0)
(-8.14679e-28 -2.47914e-26 0)
(-5.29721e-28 -3.04529e-28 0)
(2.38141e-28 -2.34991e-28 0)
(4.67092e-29 -7.50716e-29 0)
(2.96828e-29 4.87561e-29 0)
(-1.91561e-29 -3.90305e-29 0)
(6.85959e-29 -9.17724e-29 0)
(-6.16696e-30 3.62227e-29 0)
(-1.35379e-28 2.20975e-28 0)
(-1.68917e-28 3.98436e-28 0)
(-7.2846e-31 4.47891e-28 0)
(1.86671e-28 2.08229e-28 0)
(2.54013e-28 -1.41714e-28 0)
(1.57227e-28 -2.19305e-28 0)
(6.535e-29 5.21576e-29 0)
(4.59843e-29 2.76625e-28 0)
(-4.06577e-29 2.60138e-28 0)
(-1.22844e-28 2.82204e-28 0)
(-7.16495e-29 4.21805e-28 0)
(2.76389e-29 4.23978e-28 0)
(5.07235e-29 1.96209e-28 0)
(-1.19e-29 3.40072e-29 0)
(-2.96923e-29 1.12588e-28 0)
(3.35944e-30 1.77367e-28 0)
(-2.00414e-29 6.10725e-29 0)
(-1.29733e-28 -8.0561e-29 0)
(-2.15288e-28 4.66821e-30 0)
(-1.08361e-28 3.65523e-28 0)
(8.29634e-29 6.91079e-28 0)
(1.11941e-28 6.58503e-28 0)
(-4.25031e-29 4.76507e-28 0)
(-1.11521e-28 3.29513e-28 0)
(3.31663e-29 1.89688e-28 0)
(1.1003e-28 1.70769e-28 0)
(3.78836e-29 2.90504e-28 0)
(5.15148e-29 5.68526e-28 0)
(7.47933e-29 9.21147e-28 0)
(-1.80001e-29 1.0725e-27 0)
(-9.69636e-29 1.04605e-27 0)
(-7.80784e-29 1.00455e-27 0)
(-1.18723e-29 9.17258e-28 0)
(9.34087e-30 8.41053e-28 0)
(-3.65404e-29 7.82002e-28 0)
(-8.36522e-29 5.92991e-28 0)
(-1.25936e-29 3.44423e-28 0)
(1.34977e-28 2.35598e-28 0)
(1.37078e-28 2.88368e-28 0)
(3.56461e-29 5.1393e-28 0)
(4.60113e-29 8.57058e-28 0)
(8.38585e-29 9.57993e-28 0)
(1.89004e-29 7.34152e-28 0)
(-6.5662e-29 4.56008e-28 0)
(-7.93963e-29 1.3011e-28 0)
(-2.97416e-29 -1.75049e-28 0)
(5.20757e-30 -2.14712e-28 0)
(8.09555e-30 -1.16136e-28 0)
(-2.59142e-29 -1.88608e-29 0)
(-2.01029e-29 1.72702e-28 0)
(7.29829e-29 2.56792e-28 0)
(6.66699e-29 1.961e-28 0)
(-1.19147e-27 -2.40961e-26 0)
(-7.33611e-28 -9.25133e-28 0)
(3.74736e-28 -9.29218e-28 0)
(7.75338e-29 -9.28171e-28 0)
(6.2158e-29 -8.34854e-28 0)
(-2.36967e-29 -7.24715e-28 0)
(1.07379e-28 -5.54668e-28 0)
(-1.35987e-29 -3.21021e-28 0)
(-2.08828e-28 -8.93108e-29 0)
(-2.47661e-28 1.19388e-28 0)
(2.54585e-29 1.02483e-28 0)
(3.07701e-28 -3.20168e-28 0)
(3.95384e-28 -8.69796e-28 0)
(2.36098e-28 -1.01432e-27 0)
(8.98319e-29 -5.9989e-28 0)
(5.71728e-29 -1.51297e-28 0)
(-7.37381e-29 2.90617e-29 0)
(-1.87379e-28 1.8178e-28 0)
(-1.00491e-28 2.90851e-28 0)
(4.0869e-29 1.32183e-28 0)
(6.04734e-29 -2.17865e-28 0)
(-3.85306e-29 -3.78595e-28 0)
(-5.63422e-29 -2.92103e-28 0)
(-1.01448e-30 -3.20117e-28 0)
(-4.188e-29 -5.39523e-28 0)
(-2.0992e-28 -6.6016e-28 0)
(-3.27319e-28 -3.60277e-28 0)
(-1.44284e-28 2.64881e-28 0)
(1.5052e-28 7.00451e-28 0)
(1.76221e-28 6.34173e-28 0)
(-7.5444e-29 3.59576e-28 0)
(-1.72945e-28 1.09182e-28 0)
(6.61635e-29 -1.42196e-28 0)
(1.80158e-28 -1.798e-28 0)
(5.73205e-29 1.4307e-28 0)
(8.54445e-29 6.46502e-28 0)
(1.24837e-28 1.03273e-27 0)
(-3.18142e-29 1.137e-27 0)
(-1.62603e-28 1.07871e-27 0)
(-1.3211e-28 1.01958e-27 0)
(-2.55709e-29 9.22777e-28 0)
(1.03291e-29 7.8508e-28 0)
(-6.24116e-29 6.24443e-28 0)
(-1.37544e-28 4.02048e-28 0)
(-1.8011e-29 1.64694e-28 0)
(2.2202e-28 3.26555e-30 0)
(2.21231e-28 3.10758e-29 0)
(5.74971e-29 3.52896e-28 0)
(7.6844e-29 7.3834e-28 0)
(1.35103e-28 7.3597e-28 0)
(2.69219e-29 4.29648e-28 0)
(-1.09079e-28 1.43771e-28 0)
(-1.28084e-28 -2.1659e-28 0)
(-4.30922e-29 -6.4396e-28 0)
(1.40721e-29 -8.4395e-28 0)
(1.65959e-29 -8.42155e-28 0)
(-3.28923e-29 -7.47438e-28 0)
(-1.83387e-29 -5.00135e-28 0)
(1.25013e-28 -3.54034e-28 0)
(1.0775e-28 -4.00711e-28 0)
(-1.60313e-27 -2.23478e-26 0)
(-9.87765e-28 -1.54742e-27 0)
(4.89252e-28 -1.62304e-27 0)
(1.01793e-28 -1.79013e-27 0)
(1.02046e-28 -1.7342e-27 0)
(-1.79565e-29 -1.41846e-27 0)
(1.46474e-28 -1.02137e-27 0)
(-1.9349e-29 -6.89633e-28 0)
(-2.67944e-28 -4.27542e-28 0)
(-3.04973e-28 -2.02717e-28 0)
(6.34657e-29 -2.92139e-28 0)
(4.20732e-28 -8.92319e-28 0)
(5.15598e-28 -1.63203e-27 0)
(2.98217e-28 -1.84035e-27 0)
(1.06297e-28 -1.287e-27 0)
(6.42599e-29 -6.19793e-28 0)
(-1.03761e-28 -2.45437e-28 0)
(-2.42174e-28 3.53423e-29 0)
(-1.24922e-28 1.06952e-28 0)
(4.57356e-29 -2.19848e-28 0)
(5.58043e-29 -6.90651e-28 0)
(-7.57649e-29 -8.37376e-28 0)
(-8.9385e-29 -7.24731e-28 0)
(-1.09688e-29 -8.27152e-28 0)
(-6.56046e-29 -1.13753e-27 0)
(-2.79465e-28 -1.23696e-27 0)
(-4.15589e-28 -7.28866e-28 0)
(-1.5959e-28 1.53022e-28 0)
(2.21774e-28 6.90922e-28 0)
(2.32745e-28 5.8569e-28 0)
(-1.11528e-28 2.1008e-28 0)
(-2.28673e-28 -1.57224e-28 0)
(1.02599e-28 -5.34848e-28 0)
(2.49787e-28 -6.06377e-28 0)
(7.8717e-29 -9.33659e-29 0)
(1.1995e-28 6.22134e-28 0)
(1.7135e-28 1.02635e-27 0)
(-4.81627e-29 1.07376e-27 0)
(-2.27736e-28 9.84793e-28 0)
(-1.85445e-28 9.18874e-28 0)
(-4.1598e-29 8.2631e-28 0)
(7.25396e-30 6.34243e-28 0)
(-8.85399e-29 3.75579e-28 0)
(-1.8603e-28 1.31524e-28 0)
(-1.95109e-29 -7.55314e-29 0)
(3.0492e-28 -2.76825e-28 0)
(2.98343e-28 -2.77264e-28 0)
(7.45732e-29 1.19488e-28 0)
(1.01657e-28 5.13718e-28 0)
(1.80213e-28 3.82448e-28 0)
(3.46989e-29 -2.90888e-30 0)
(-1.46964e-28 -2.61873e-28 0)
(-1.70134e-28 -6.03245e-28 0)
(-5.28144e-29 -1.10198e-27 0)
(2.31235e-29 -1.43472e-27 0)
(2.48443e-29 -1.52643e-27 0)
(-3.5965e-29 -1.44028e-27 0)
(-1.10486e-29 -1.14051e-27 0)
(1.76205e-28 -9.34011e-28 0)
(1.45513e-28 -9.74555e-28 0)
(-2.01002e-27 -2.22419e-26 0)
(-1.25263e-27 -2.00965e-27 0)
(5.83983e-28 -2.11108e-27 0)
(1.21085e-28 -2.36598e-27 0)
(1.46493e-28 -2.31186e-27 0)
(-5.44305e-30 -1.86397e-27 0)
(1.8635e-28 -1.32218e-27 0)
(-2.04694e-29 -9.12808e-28 0)
(-3.11344e-28 -6.21707e-28 0)
(-3.42969e-28 -3.72724e-28 0)
(1.08473e-28 -5.06549e-28 0)
(5.2208e-28 -1.27016e-27 0)
(6.15211e-28 -2.20293e-27 0)
(3.47392e-28 -2.4667e-27 0)
(1.19194e-28 -1.76402e-27 0)
(6.99821e-29 -9.14115e-28 0)
(-1.31002e-28 -4.29017e-28 0)
(-2.89785e-28 -6.31283e-29 0)
(-1.47639e-28 1.10051e-29 0)
(4.1295e-29 -4.37331e-28 0)
(3.81878e-29 -1.04319e-27 0)
(-1.20275e-28 -1.19726e-27 0)
(-1.25259e-28 -1.0102e-27 0)
(-2.40517e-29 -1.11067e-27 0)
(-9.01967e-29 -1.49075e-27 0)
(-3.39317e-28 -1.6138e-27 0)
(-4.82935e-28 -9.60522e-28 0)
(-1.57175e-28 1.63261e-28 0)
(2.95187e-28 8.30963e-28 0)
(2.81413e-28 6.80656e-28 0)
(-1.51228e-28 1.84707e-28 0)
(-2.81902e-28 -3.11893e-28 0)
(1.38691e-28 -8.34118e-28 0)
(3.17876e-28 -9.67764e-28 0)
(1.03614e-28 -3.30349e-28 0)
(1.5773e-28 5.66e-28 0)
(2.16787e-28 1.0409e-27 0)
(-6.55883e-29 1.0758e-27 0)
(-2.91544e-28 9.68698e-28 0)
(-2.37575e-28 9.0808e-28 0)
(-5.9357e-29 8.15121e-28 0)
(9.08415e-31 5.75503e-28 0)
(-1.14932e-28 2.44431e-28 0)
(-2.30523e-28 -3.37577e-29 0)
(-1.89404e-29 -2.41654e-28 0)
(3.82972e-28 -4.72515e-28 0)
(3.69271e-28 -4.86697e-28 0)
(8.85941e-29 -2.06475e-29 0)
(1.21575e-28 4.08509e-28 0)
(2.18545e-28 1.68299e-28 0)
(4.08485e-29 -3.2665e-28 0)
(-1.80316e-28 -5.77e-28 0)
(-2.06279e-28 -8.85427e-28 0)
(-5.85018e-29 -1.40751e-27 0)
(3.41935e-29 -1.78048e-27 0)
(3.44433e-29 -1.89981e-27 0)
(-3.50832e-29 -1.80502e-27 0)
(7.09759e-32 -1.42827e-27 0)
(2.24356e-28 -1.16655e-27 0)
(1.79052e-28 -1.23641e-27 0)
(-2.39614e-27 -2.25414e-26 0)
(-1.51193e-27 -2.33617e-27 0)
(6.60876e-28 -2.43129e-27 0)
(1.3637e-28 -2.73289e-27 0)
(1.93519e-28 -2.66747e-27 0)
(1.17686e-29 -2.12713e-27 0)
(2.27313e-28 -1.49488e-27 0)
(-1.59598e-29 -1.03971e-27 0)
(-3.40001e-28 -7.38832e-28 0)
(-3.64929e-28 -4.72496e-28 0)
(1.56613e-28 -6.36546e-28 0)
(6.10296e-28 -1.53964e-27 0)
(6.9624e-28 -2.64349e-27 0)
(3.87019e-28 -2.95124e-27 0)
(1.31442e-28 -2.11165e-27 0)
(7.59163e-29 -1.12249e-27 0)
(-1.56001e-28 -5.83977e-28 0)
(-3.32631e-28 -1.62855e-28 0)
(-1.70973e-28 -7.14638e-29 0)
(2.74367e-29 -6.15115e-28 0)
(1.00262e-29 -1.35224e-27 0)
(-1.68471e-28 -1.51314e-27 0)
(-1.60787e-28 -1.21724e-27 0)
(-3.81933e-29 -1.26207e-27 0)
(-1.14837e-28 -1.68426e-27 0)
(-3.90646e-28 -1.84863e-27 0)
(-5.3261e-28 -1.09587e-27 0)
(-1.40452e-28 2.34696e-28 0)
(3.69246e-28 1.02038e-27 0)
(3.22715e-28 8.14068e-28 0)
(-1.94376e-28 1.93303e-28 0)
(-3.35037e-28 -4.30657e-28 0)
(1.71202e-28 -1.10742e-27 0)
(3.82986e-28 -1.33583e-27 0)
(1.32154e-28 -6.33864e-28 0)
(1.99472e-28 3.98799e-28 0)
(2.62097e-28 9.46866e-28 0)
(-8.3069e-29 9.87782e-28 0)
(-3.53222e-28 8.80132e-28 0)
(-2.8798e-28 8.41256e-28 0)
(-7.82823e-29 7.53097e-28 0)
(-8.00775e-30 4.74761e-28 0)
(-1.41269e-28 9.26248e-29 0)
(-2.71427e-28 -2.04368e-28 0)
(-1.71096e-29 -4.00706e-28 0)
(4.55866e-28 -6.41368e-28 0)
(4.34572e-28 -6.68764e-28 0)
(1.00382e-28 -1.60229e-28 0)
(1.36907e-28 2.86151e-28 0)
(2.49751e-28 -6.90629e-29 0)
(4.52509e-29 -6.78158e-28 0)
(-2.08498e-28 -8.96078e-28 0)
(-2.35647e-28 -1.11344e-27 0)
(-5.91387e-29 -1.58299e-27 0)
(4.8501e-29 -1.92243e-27 0)
(4.62145e-29 -2.03186e-27 0)
(-3.04411e-29 -1.92462e-27 0)
(1.39002e-29 -1.46593e-27 0)
(2.68392e-28 -1.15671e-27 0)
(2.08134e-28 -1.2772e-27 0)
(-2.75941e-27 -2.27459e-26 0)
(-1.76295e-27 -2.5421e-27 0)
(7.21652e-28 -2.60668e-27 0)
(1.48072e-28 -2.93295e-27 0)
(2.41564e-28 -2.8564e-27 0)
(3.22979e-29 -2.25008e-27 0)
(2.69273e-28 -1.57018e-27 0)
(-6.12285e-30 -1.10586e-27 0)
(-3.56102e-28 -8.19499e-28 0)
(-3.7452e-28 -5.46865e-28 0)
(2.04867e-28 -7.34088e-28 0)
(6.85422e-28 -1.74932e-27 0)
(7.61494e-28 -2.99053e-27 0)
(4.19993e-28 -3.32891e-27 0)
(1.44826e-28 -2.37505e-27 0)
(8.29618e-29 -1.29126e-27 0)
(-1.79255e-28 -7.40638e-28 0)
(-3.72865e-28 -2.87145e-28 0)
(-1.96879e-28 -1.78109e-28 0)
(4.62258e-30 -8.0203e-28 0)
(-2.59615e-29 -1.65887e-27 0)
(-2.17186e-28 -1.81961e-27 0)
(-1.93569e-28 -1.39407e-27 0)
(-5.17257e-29 -1.34541e-27 0)
(-1.38705e-28 -1.77877e-27 0)
(-4.34531e-28 -1.98569e-27 0)
(-5.67838e-28 -1.16787e-27 0)
(-1.12939e-28 3.25797e-28 0)
(4.42442e-28 1.19856e-27 0)
(3.5724e-28 9.23036e-28 0)
(-2.40648e-28 1.80714e-28 0)
(-3.89826e-28 -5.58603e-28 0)
(1.9763e-28 -1.38971e-27 0)
(4.43741e-28 -1.74154e-27 0)
(1.63741e-28 -1.02724e-27 0)
(2.44573e-28 9.2657e-29 0)
(3.07168e-28 6.91417e-28 0)
(-9.99531e-29 7.43391e-28 0)
(-4.12005e-28 6.54244e-28 0)
(-3.36039e-28 6.53839e-28 0)
(-9.77013e-29 5.78459e-28 0)
(-1.88551e-29 2.69059e-28 0)
(-1.671e-28 -1.47128e-28 0)
(-3.08501e-28 -4.35503e-28 0)
(-1.40479e-29 -5.86959e-28 0)
(5.23662e-28 -8.11827e-28 0)
(4.9455e-28 -8.56295e-28 0)
(1.09966e-28 -3.39711e-28 0)
(1.47362e-28 8.7955e-29 0)
(2.73923e-28 -3.9651e-28 0)
(4.88825e-29 -1.10861e-27 0)
(-2.29808e-28 -1.25304e-27 0)
(-2.56537e-28 -1.30877e-27 0)
(-5.36699e-29 -1.64783e-27 0)
(6.64942e-29 -1.90053e-27 0)
(6.02235e-29 -1.98464e-27 0)
(-2.25237e-29 -1.87258e-27 0)
(2.97224e-29 -1.33947e-27 0)
(3.08147e-28 -9.89875e-28 0)
(2.33038e-28 -1.17166e-27 0)
(-3.09943e-27 -2.28146e-26 0)
(-2.00455e-27 -2.63231e-27 0)
(7.67894e-28 -2.64933e-27 0)
(1.56466e-28 -2.98629e-27 0)
(2.89352e-28 -2.90353e-27 0)
(5.48671e-29 -2.25598e-27 0)
(3.11571e-28 -1.56856e-27 0)
(7.79752e-30 -1.13159e-27 0)
(-3.62479e-28 -8.84466e-28 0)
(-3.75191e-28 -6.17008e-28 0)
(2.51246e-28 -8.2035e-28 0)
(7.48505e-28 -1.91813e-27 0)
(8.1401e-28 -3.26002e-27 0)
(4.48672e-28 -3.61555e-27 0)
(1.60236e-28 -2.57234e-27 0)
(9.12428e-29 -1.43765e-27 0)
(-2.01429e-28 -9.10567e-28 0)
(-4.12086e-28 -4.43468e-28 0)
(-2.26531e-28 -3.17744e-28 0)
(-2.63714e-29 -1.01007e-27 0)
(-6.74635e-29 -1.97708e-27 0)
(-2.63998e-28 -2.13553e-27 0)
(-2.21786e-28 -1.57019e-27 0)
(-6.32965e-29 -1.40057e-27 0)
(-1.61191e-28 -1.81665e-27 0)
(-4.72152e-28 -2.06193e-27 0)
(-5.91693e-28 -1.20782e-27 0)
(-7.78529e-29 4.0425e-28 0)
(5.1347e-28 1.32864e-27 0)
(3.85593e-28 9.71601e-28 0)
(-2.89561e-28 1.18543e-28 0)
(-4.47319e-28 -7.12668e-28 0)
(2.16271e-28 -1.68546e-27 0)
(4.98854e-28 -2.17982e-27 0)
(1.97202e-28 -1.49944e-27 0)
(2.91834e-28 -3.41754e-28 0)
(3.51626e-28 2.79163e-28 0)
(-1.15627e-28 3.43903e-28 0)
(-4.67112e-28 2.92471e-28 0)
(-3.81212e-28 3.45047e-28 0)
(-1.17166e-28 2.85044e-28 0)
(-3.11905e-29 -5.44479e-29 0)
(-1.91988e-28 -4.9243e-28 0)
(-3.41279e-28 -7.43731e-28 0)
(-9.29223e-30 -8.12202e-28 0)
(5.86876e-28 -9.92144e-28 0)
(5.49589e-28 -1.05429e-27 0)
(1.17221e-28 -5.59358e-28 0)
(1.52604e-28 -1.82401e-28 0)
(2.91263e-28 -8.07316e-28 0)
(5.28281e-29 -1.61031e-27 0)
(-2.42435e-28 -1.64531e-27 0)
(-2.67079e-28 -1.4793e-27 0)
(-4.09992e-29 -1.6242e-27 0)
(8.8296e-29 -1.75438e-27 0)
(7.59811e-29 -1.81331e-27 0)
(-1.21659e-29 -1.71516e-27 0)
(4.69346e-29 -1.12456e-27 0)
(3.43758e-28 -7.43222e-28 0)
(2.54151e-28 -9.91918e-28 0)
(-3.41502e-27 -2.27759e-26 0)
(-2.2348e-27 -2.62045e-27 0)
(8.00964e-28 -2.58049e-27 0)
(1.61697e-28 -2.92023e-27 0)
(3.35764e-28 -2.84062e-27 0)
(7.81706e-29 -2.1776e-27 0)
(3.53145e-28 -1.51954e-27 0)
(2.40702e-29 -1.14091e-27 0)
(-3.6211e-28 -9.52963e-28 0)
(-3.69931e-28 -6.99939e-28 0)
(2.94626e-28 -9.12122e-28 0)
(8.01165e-28 -2.0636e-27 0)
(8.56732e-28 -3.47052e-27 0)
(4.74917e-28 -3.83048e-27 0)
(1.77964e-28 -2.72151e-27 0)
(1.00416e-28 -1.5742e-27 0)
(-2.2318e-28 -1.09838e-27 0)
(-4.51296e-28 -6.30784e-28 0)
(-2.60413e-28 -4.88257e-28 0)
(-6.46862e-29 -1.23927e-27 0)
(-1.12823e-28 -2.31102e-27 0)
(-3.07374e-28 -2.47275e-27 0)
(-2.4426e-28 -1.76948e-27 0)
(-7.19037e-29 -1.4638e-27 0)
(-1.81881e-28 -1.84026e-27 0)
(-5.04681e-28 -2.11712e-27 0)
(-6.06956e-28 -1.24956e-27 0)
(-3.80083e-29 4.39024e-28 0)
(5.81201e-28 1.37967e-27 0)
(4.08313e-28 9.307e-28 0)
(-3.40468e-28 -1.55345e-29 0)
(-5.07808e-28 -9.03551e-28 0)
(2.26334e-28 -1.99038e-27 0)
(5.47383e-28 -2.63136e-27 0)
(2.31156e-28 -2.02017e-27 0)
(3.39842e-28 -8.69464e-28 0)
(3.95044e-28 -2.55569e-28 0)
(-1.29497e-28 -1.78708e-28 0)
(-5.17804e-28 -1.75688e-28 0)
(-4.23109e-28 -5.96853e-29 0)
(-1.36527e-28 -1.08047e-28 0)
(-4.4834e-29 -4.83516e-28 0)
(-2.15627e-28 -9.37115e-28 0)
(-3.69255e-28 -1.1279e-27 0)
(-2.06688e-30 -1.07841e-27 0)
(6.46412e-28 -1.18406e-27 0)
(6.00238e-28 -1.25962e-27 0)
(1.22099e-28 -8.06695e-28 0)
(1.52463e-28 -5.01267e-28 0)
(3.02041e-28 -1.2698e-27 0)
(5.79731e-29 -2.15245e-27 0)
(-2.44948e-28 -2.05497e-27 0)
(-2.65792e-28 -1.63008e-27 0)
(-2.03799e-29 -1.54382e-27 0)
(1.13612e-28 -1.53856e-27 0)
(9.24769e-29 -1.58782e-27 0)
(-5.97562e-31 -1.53213e-27 0)
(6.48542e-29 -9.09353e-28 0)
(3.75476e-28 -5.06416e-28 0)
(2.7187e-28 -8.23512e-28 0)
(-3.70502e-27 -2.26414e-26 0)
(-2.45186e-27 -2.53164e-27 0)
(8.21923e-28 -2.43334e-27 0)
(1.63718e-28 -2.77339e-27 0)
(3.79751e-28 -2.71032e-27 0)
(1.00912e-28 -2.05761e-27 0)
(3.92783e-28 -1.45998e-27 0)
(4.08743e-29 -1.16146e-27 0)
(-3.57767e-28 -1.0446e-27 0)
(-3.61178e-28 -8.1141e-28 0)
(3.34518e-28 -1.02535e-27 0)
(8.45265e-28 -2.20444e-27 0)
(8.92323e-28 -3.64425e-27 0)
(5.00142e-28 -3.99784e-27 0)
(1.97977e-28 -2.84409e-27 0)
(1.10027e-28 -1.71351e-27 0)
(-2.44934e-28 -1.30504e-27 0)
(-4.90943e-28 -8.42243e-28 0)
(-2.98524e-28 -6.81271e-28 0)
(-1.09536e-28 -1.48324e-27 0)
(-1.61066e-28 -2.65759e-27 0)
(-3.46665e-28 -2.83508e-27 0)
(-2.60507e-28 -2.00832e-27 0)
(-7.69666e-29 -1.56603e-27 0)
(-2.00529e-28 -1.88918e-27 0)
(-5.33168e-28 -2.18969e-27 0)
(-6.16024e-28 -1.32534e-27 0)
(4.17387e-30 4.02265e-28 0)
(6.44626e-28 1.32566e-27 0)
(4.25867e-28 7.77015e-28 0)
(-3.92513e-28 -2.38771e-28 0)
(-5.70788e-28 -1.13792e-27 0)
(2.28007e-28 -2.29575e-27 0)
(5.88943e-28 -3.06978e-27 0)
(2.64337e-28 -2.54827e-27 0)
(3.87186e-28 -1.44136e-27 0)
(4.36976e-28 -8.62833e-28 0)
(-1.41063e-28 -7.77763e-28 0)
(-5.63456e-28 -7.0812e-28 0)
(-4.6152e-28 -5.23237e-28 0)
(-1.55921e-28 -5.68678e-28 0)
(-5.98763e-29 -9.9071e-28 0)
(-2.37905e-28 -1.45949e-27 0)
(-3.92012e-28 -1.57425e-27 0)
(8.5383e-30 -1.37993e-27 0)
(7.03422e-28 -1.38574e-27 0)
(6.47215e-28 -1.4668e-27 0)
(1.24742e-28 -1.06588e-27 0)
(1.47036e-28 -8.39626e-28 0)
(3.06628e-28 -1.74515e-27 0)
(6.48998e-29 -2.69691e-27 0)
(-2.36591e-28 -2.45956e-27 0)
(-2.5201e-28 -1.76717e-27 0)
(8.22367e-30 -1.44489e-27 0)
(1.41578e-28 -1.31633e-27 0)
(1.082e-28 -1.38543e-27 0)
(1.05696e-29 -1.40825e-27 0)
(8.26446e-29 -7.85681e-28 0)
(4.03504e-28 -3.72743e-28 0)
(2.86488e-28 -7.58022e-28 0)
(-3.96874e-27 -2.24257e-26 0)
(-2.65449e-27 -2.40009e-27 0)
(8.31496e-28 -2.25037e-27 0)
(1.62318e-28 -2.59211e-27 0)
(4.20344e-28 -2.5603e-27 0)
(1.2189e-28 -1.94106e-27 0)
(4.29321e-28 -1.42712e-27 0)
(5.65818e-29 -1.2199e-27 0)
(-3.51778e-28 -1.17674e-27 0)
(-3.50792e-28 -9.63877e-28 0)
(3.70876e-28 -1.17251e-27 0)
(8.82665e-28 -2.35698e-27 0)
(9.23038e-28 -3.803e-27 0)
(5.25365e-28 -4.14282e-27 0)
(2.2013e-28 -2.96239e-27 0)
(1.19796e-28 -1.86734e-27 0)
(-2.66719e-28 -1.52893e-27 0)
(-5.3097e-28 -1.06758e-27 0)
(-3.40539e-28 -8.84713e-28 0)
(-1.60273e-28 -1.73098e-27 0)
(-2.11812e-28 -3.00697e-27 0)
(-3.82002e-28 -3.21688e-27 0)
(-2.70738e-28 -2.29192e-27 0)
(-7.83799e-29 -1.727e-27 0)
(-2.17074e-28 -1.9931e-27 0)
(-5.58505e-28 -2.30964e-27 0)
(-6.20902e-28 -1.45976e-27 0)
(4.6628e-29 2.74141e-28 0)
(7.02847e-28 1.14987e-27 0)
(4.38694e-28 4.97487e-28 0)
(-4.44578e-28 -5.59061e-28 0)
(-6.34973e-28 -1.41584e-27 0)
(2.2244e-28 -2.58901e-27 0)
(6.23815e-28 -3.46595e-27 0)
(2.95786e-28 -3.0392e-27 0)
(4.32563e-28 -2.00394e-27 0)
(4.76926e-28 -1.48803e-27 0)
(-1.49991e-28 -1.40284e-27 0)
(-6.03623e-28 -1.26025e-27 0)
(-4.9642e-28 -1.00602e-27 0)
(-1.75698e-28 -1.05993e-27 0)
(-7.6614e-29 -1.54029e-27 0)
(-2.58917e-28 -2.02701e-27 0)
(-4.09321e-28 -2.05849e-27 0)
(2.33674e-29 -1.70374e-27 0)
(7.59111e-28 -1.5923e-27 0)
(6.91353e-28 -1.67059e-27 0)
(1.25542e-28 -1.32261e-27 0)
(1.36759e-28 -1.17033e-27 0)
(3.05515e-28 -2.19639e-27 0)
(7.3838e-29 -3.20729e-27 0)
(-2.17439e-28 -2.83846e-27 0)
(-2.261e-28 -1.89833e-27 0)
(4.39613e-29 -1.36583e-27 0)
(1.70731e-28 -1.14784e-27 0)
(1.21228e-28 -1.27598e-27 0)
(1.94077e-29 -1.41729e-27 0)
(9.92765e-29 -8.32576e-28 0)
(4.27922e-28 -4.22806e-28 0)
(2.98184e-28 -8.74291e-28 0)
(-4.20596e-27 -2.21537e-26 0)
(-2.84211e-27 -2.26519e-27 0)
(8.30087e-28 -2.07813e-27 0)
(1.57216e-28 -2.42428e-27 0)
(4.56738e-28 -2.43638e-27 0)
(1.40098e-28 -1.86828e-27 0)
(4.61796e-28 -1.45229e-27 0)
(6.99285e-29 -1.33706e-27 0)
(-3.45901e-28 -1.36094e-27 0)
(-3.40072e-28 -1.16354e-27 0)
(4.03926e-28 -1.35971e-27 0)
(9.15029e-28 -2.53214e-27 0)
(9.50641e-28 -3.96467e-27 0)
(5.51255e-28 -4.28777e-27 0)
(2.44309e-28 -3.09629e-27 0)
(1.29782e-28 -2.0454e-27 0)
(-2.88089e-28 -1.76723e-27 0)
(-5.70889e-28 -1.29622e-27 0)
(-3.85919e-28 -1.08624e-27 0)
(-2.16361e-28 -1.96998e-27 0)
(-2.65091e-28 -3.34504e-27 0)
(-4.14095e-28 -3.60427e-27 0)
(-2.75766e-28 -2.61337e-27 0)
(-7.65225e-29 -1.95196e-27 0)
(-2.31663e-28 -2.16691e-27 0)
(-5.81445e-28 -2.49346e-27 0)
(-6.23247e-28 -1.66516e-27 0)
(8.76041e-29 4.71491e-29 0)
(7.55085e-28 8.49122e-28 0)
(4.47271e-28 9.34064e-29 0)
(-4.95282e-28 -9.71451e-28 0)
(-6.98414e-28 -1.72901e-27 0)
(2.11594e-28 -2.85508e-27 0)
(6.52914e-28 -3.79307e-27 0)
(3.2492e-28 -3.45326e-27 0)
(4.74806e-28 -2.50911e-27 0)
(5.14292e-28 -2.08205e-27 0)
(-1.56187e-28 -2.00963e-27 0)
(-6.38079e-28 -1.79434e-27 0)
(-5.2794e-28 -1.47455e-27 0)
(-1.9631e-28 -1.54805e-27 0)
(-9.54133e-29 -2.09533e-27 0)
(-2.78883e-28 -2.60196e-27 0)
(-4.21197e-28 -2.54926e-27 0)
(4.29996e-29 -2.03112e-27 0)
(8.145e-28 -1.79704e-27 0)
(7.33482e-28 -1.86833e-27 0)
(1.25138e-28 -1.56843e-27 0)
(1.22435e-28 -1.47386e-27 0)
(2.99348e-28 -2.59476e-27 0)
(8.46704e-29 -3.65478e-27 0)
(-1.8841e-28 -3.17635e-27 0)
(-1.89472e-28 -2.03217e-27 0)
(8.51378e-29 -1.33934e-27 0)
(1.99128e-28 -1.08003e-27 0)
(1.29392e-28 -1.30911e-27 0)
(2.3782e-29 -1.60771e-27 0)
(1.13551e-28 -1.10034e-27 0)
(4.48713e-28 -7.07891e-28 0)
(3.07084e-28 -1.22342e-27 0)
(-4.41695e-27 -2.18551e-26 0)
(-3.01476e-27 -2.16613e-27 0)
(8.1787e-28 -1.96051e-27 0)
(1.48176e-28 -2.31257e-27 0)
(4.88376e-28 -2.37675e-27 0)
(1.54808e-28 -1.87035e-27 0)
(4.89544e-28 -1.55699e-27 0)
(8.01153e-29 -1.52415e-27 0)
(-3.41268e-28 -1.59965e-27 0)
(-3.29801e-28 -1.40794e-27 0)
(4.34029e-28 -1.58512e-27 0)
(9.43695e-28 -2.73384e-27 0)
(9.76365e-28 -4.14107e-27 0)
(5.7817e-28 -4.44963e-27 0)
(2.70492e-28 -3.2612e-27 0)
(1.40422e-28 -2.25507e-27 0)
(-3.08163e-28 -2.01783e-27 0)
(-6.09881e-28 -1.52047e-27 0)
(-4.33976e-28 -1.27688e-27 0)
(-2.77308e-28 -2.19002e-27 0)
(-3.21121e-28 -3.65745e-27 0)
(-4.43981e-28 -3.97889e-27 0)
(-2.76843e-28 -2.95596e-27 0)
(-7.22056e-29 -2.23199e-27 0)
(-2.44668e-28 -2.40958e-27 0)
(-6.0265e-28 -2.74232e-27 0)
(-6.24413e-28 -1.9396e-27 0)
(1.25643e-28 -2.71833e-28 0)
(8.0072e-28 4.35654e-28 0)
(4.52155e-28 -4.18207e-28 0)
(-5.43036e-28 -1.45754e-27 0)
(-7.58725e-28 -2.06135e-27 0)
(1.9796e-28 -3.07894e-27 0)
(6.77614e-28 -4.03195e-27 0)
(3.51491e-28 -3.76314e-27 0)
(5.12873e-28 -2.92268e-27 0)
(5.48329e-28 -2.60949e-27 0)
(-1.5984e-28 -2.56756e-27 0)
(-6.66831e-28 -2.28656e-27 0)
(-5.56296e-28 -1.90817e-27 0)
(-2.18145e-28 -2.00894e-27 0)
(-1.16523e-28 -2.62422e-27 0)
(-2.98029e-28 -3.1478e-27 0)
(-4.27894e-28 -3.01362e-27 0)
(6.7585e-29 -2.34149e-27 0)
(8.70193e-28 -1.99403e-27 0)
(7.74266e-28 -2.06226e-27 0)
(1.24363e-28 -1.80378e-27 0)
(1.05245e-28 -1.74233e-27 0)
(2.88965e-28 -2.92393e-27 0)
(9.70119e-29 -4.02139e-27 0)
(-1.51153e-28 -3.46426e-27 0)
(-1.44422e-28 -2.17647e-27 0)
(1.29424e-28 -1.38843e-27 0)
(2.24607e-28 -1.14068e-27 0)
(1.30544e-28 -1.50671e-27 0)
(2.15713e-29 -1.99319e-27 0)
(1.242e-28 -1.59957e-27 0)
(4.65699e-28 -1.23949e-27 0)
(3.13194e-28 -1.8178e-27 0)
(-4.60236e-27 -2.15578e-26 0)
(-3.173e-27 -2.13557e-27 0)
(7.94891e-28 -1.9321e-27 0)
(1.35093e-28 -2.28905e-27 0)
(5.14986e-28 -2.40837e-27 0)
(1.65623e-28 -1.96694e-27 0)
(5.12295e-28 -1.7513e-27 0)
(8.6885e-29 -1.78113e-27 0)
(-3.38391e-28 -1.88469e-27 0)
(-3.2035e-28 -1.68508e-27 0)
(4.61527e-28 -1.8386e-27 0)
(9.69578e-28 -2.95862e-27 0)
(1.0009e-27 -4.33715e-27 0)
(6.06177e-28 -4.63893e-27 0)
(2.98734e-28 -3.46759e-27 0)
(1.52467e-28 -2.50199e-27 0)
(-3.25728e-28 -2.28093e-27 0)
(-6.46911e-28 -1.73797e-27 0)
(-4.83926e-28 -1.45384e-27 0)
(-3.42575e-28 -2.38645e-27 0)
(-3.8008e-28 -3.93366e-27 0)
(-4.72729e-28 -4.32247e-27 0)
(-2.75427e-28 -3.2976e-27 0)
(-6.65557e-29 -2.54737e-27 0)
(-2.56669e-28 -2.70626e-27 0)
(-6.22717e-28 -3.04326e-27 0)
(-6.25497e-28 -2.26779e-27 0)
(1.59561e-28 -6.62571e-28 0)
(8.39309e-28 -6.44056e-29 0)
(4.53996e-28 -1.00684e-27 0)
(-5.86168e-28 -1.98838e-27 0)
(-8.13392e-28 -2.39224e-27 0)
(1.84177e-28 -3.24939e-27 0)
(6.99482e-28 -4.1754e-27 0)
(3.7548e-28 -3.95901e-27 0)
(5.45828e-28 -3.22963e-27 0)
(5.78135e-28 -3.05335e-27 0)
(-1.61449e-28 -3.06342e-27 0)
(-6.90112e-28 -2.72999e-27 0)
(-5.81705e-28 -2.30186e-27 0)
(-2.4135e-28 -2.43163e-27 0)
(-1.39878e-28 -3.10527e-27 0)
(-3.1644e-28 -3.63484e-27 0)
(-4.29883e-28 -3.42301e-27 0)
(9.67331e-29 -2.61757e-27 0)
(9.26185e-28 -2.18144e-27 0)
(8.14031e-28 -2.26134e-27 0)
(1.24145e-28 -2.03915e-27 0)
(8.6724e-29 -1.98065e-27 0)
(2.75467e-28 -3.18135e-27 0)
(1.1036e-28 -4.30075e-27 0)
(-1.07835e-28 -3.69941e-27 0)
(-9.38681e-29 -2.33697e-27 0)
(1.74156e-28 -1.52449e-27 0)
(2.45134e-28 -1.33669e-27 0)
(1.22933e-28 -1.86128e-27 0)
(1.09539e-29 -2.55079e-27 0)
(1.29986e-28 -2.29889e-27 0)
(4.78602e-28 -1.98618e-27 0)
(3.16459e-28 -2.62645e-27 0)
(-4.76317e-27 -2.12831e-26 0)
(-3.31779e-27 -2.19476e-27 0)
(7.61149e-28 -2.01345e-27 0)
(1.18002e-28 -2.3719e-27 0)
(5.36559e-28 -2.5453e-27 0)
(1.72495e-28 -2.16563e-27 0)
(5.30238e-28 -2.03404e-27 0)
(9.05689e-29 -2.09768e-27 0)
(-3.37193e-28 -2.1985e-27 0)
(-3.1179e-28 -1.97446e-27 0)
(4.86621e-28 -2.10242e-27 0)
(9.931e-28 -3.1963e-27 0)
(1.0244e-27 -4.55155e-27 0)
(6.35031e-28 -4.86037e-27 0)
(3.29093e-28 -3.72158e-27 0)
(1.6685e-28 -2.79077e-27 0)
(-3.39392e-28 -2.55989e-27 0)
(-6.80847e-28 -1.95244e-27 0)
(-5.34927e-28 -1.6214e-27 0)
(-4.115e-28 -2.56163e-27 0)
(-4.41905e-28 -4.16941e-27 0)
(-5.01187e-28 -4.62084e-27 0)
(-2.72938e-28 -3.61587e-27 0)
(-6.08462e-29 -2.87269e-27 0)
(-2.68375e-28 -3.03246e-27 0)
(-6.42181e-28 -3.37265e-27 0)
(-6.27373e-28 -2.62439e-27 0)
(1.88427e-28 -1.09537e-27 0)
(8.70595e-28 -6.15721e-28 0)
(4.53494e-28 -1.63396e-27 0)
(-6.2311e-28 -2.53021e-27 0)
(-8.60125e-28 -2.70172e-27 0)
(1.72632e-28 -3.36272e-27 0)
(7.1998e-28 -4.23034e-27 0)
(3.9697e-28 -4.04964e-27 0)
(5.72828e-28 -3.43472e-27 0)
(6.02683e-28 -3.41507e-27 0)
(-1.61782e-28 -3.50046e-27 0)
(-7.08344e-28 -3.13243e-27 0)
(-6.04291e-28 -2.66405e-27 0)
(-2.6569e-28 -2.81749e-27 0)
(-1.64951e-28 -3.52833e-27 0)
(-3.33955e-28 -4.04406e-27 0)
(-4.27817e-28 -3.75825e-27 0)
(1.29453e-28 -2.85006e-27 0)
(9.81743e-28 -2.36457e-27 0)
(8.52666e-28 -2.48196e-27 0)
(1.2544e-28 -2.29392e-27 0)
(6.87439e-29 -2.20462e-27 0)
(2.60279e-28 -3.37655e-27 0)
(1.24266e-28 -4.49729e-27 0)
(-6.08692e-29 -3.88471e-27 0)
(-4.10335e-29 -2.51687e-27 0)
(2.16678e-28 -1.74712e-27 0)
(2.59162e-28 -1.65541e-27 0)
(1.05551e-28 -2.34021e-27 0)
(-9.27948e-30 -3.22741e-27 0)
(1.2989e-28 -3.13102e-27 0)
(4.87077e-28 -2.87828e-27 0)
(3.1676e-28 -3.58217e-27 0)
(-4.90057e-27 -2.10433e-26 0)
(-3.4503e-27 -2.35073e-27 0)
(7.16648e-28 -2.20952e-27 0)
(9.70424e-29 -2.56479e-27 0)
(5.53295e-28 -2.78827e-27 0)
(1.75708e-28 -2.46215e-27 0)
(5.44026e-28 -2.39428e-27 0)
(9.20808e-29 -2.45604e-27 0)
(-3.37055e-28 -2.51758e-27 0)
(-3.03974e-28 -2.25004e-27 0)
(5.09269e-28 -2.35344e-27 0)
(1.01413e-27 -3.43164e-27 0)
(1.04644e-27 -4.77814e-27 0)
(6.64153e-28 -5.11397e-27 0)
(3.61535e-28 -4.0255e-27 0)
(1.84537e-28 -3.1248e-27 0)
(-3.47741e-28 -2.86035e-27 0)
(-7.10577e-28 -2.17242e-27 0)
(-5.86119e-28 -1.7895e-27 0)
(-4.83249e-28 -2.72386e-27 0)
(-5.06169e-28 -4.36689e-27 0)
(-5.29784e-28 -4.86598e-27 0)
(-2.70534e-28 -3.89192e-27 0)
(-5.62975e-29 -3.18166e-27 0)
(-2.80515e-28 -3.35892e-27 0)
(-6.61511e-28 -3.70079e-27 0)
(-6.3074e-28 -2.97881e-27 0)
(2.11523e-28 -1.53655e-27 0)
(8.94475e-28 -1.18021e-27 0)
(4.51322e-28 -2.26029e-27 0)
(-6.52599e-28 -3.0515e-27 0)
(-8.97182e-28 -2.97566e-27 0)
(1.65128e-28 -3.42497e-27 0)
(7.40232e-28 -4.21698e-27 0)
(4.16051e-28 -4.0593e-27 0)
(5.9315e-28 -3.55828e-27 0)
(6.2091e-28 -3.70978e-27 0)
(-1.6179e-28 -3.8929e-27 0)
(-7.2206e-28 -3.51031e-27 0)
(-6.2403e-28 -3.01044e-27 0)
(-2.90491e-28 -3.17562e-27 0)
(-1.90709e-28 -3.89302e-27 0)
(-3.50147e-28 -4.36821e-27 0)
(-4.22523e-28 -4.01226e-27 0)
(1.64139e-28 -3.04003e-27 0)
(1.0354e-27 -2.55667e-27 0)
(8.89612e-28 -2.74653e-27 0)
(1.29212e-28 -2.59306e-27 0)
(5.34889e-29 -2.43681e-27 0)
(2.4518e-28 -3.52755e-27 0)
(1.38472e-28 -4.62402e-27 0)
(-1.26559e-29 -4.02802e-27 0)
(1.09124e-29 -2.71679e-27 0)
(2.5469e-28 -2.04526e-27 0)
(2.65902e-28 -2.06861e-27 0)
(7.83898e-29 -2.89382e-27 0)
(-3.94421e-29 -3.95151e-27 0)
(1.23324e-28 -4.00698e-27 0)
(4.90722e-28 -3.82226e-27 0)
(3.13921e-28 -4.59282e-27 0)
(-5.01588e-27 -2.08425e-26 0)
(-3.57176e-27 -2.59739e-27 0)
(6.61391e-28 -2.51035e-27 0)
(7.23991e-29 -2.85718e-27 0)
(5.65545e-28 -3.12549e-27 0)
(1.75806e-28 -2.84197e-27 0)
(5.54705e-28 -2.81391e-27 0)
(9.28476e-29 -2.83451e-27 0)
(-3.36867e-28 -2.81649e-27 0)
(-2.96586e-28 -2.48424e-27 0)
(5.29141e-28 -2.56659e-27 0)
(1.03195e-27 -3.64721e-27 0)
(1.06604e-27 -5.00815e-27 0)
(6.92617e-28 -5.39617e-27 0)
(3.95869e-28 -4.37776e-27 0)
(2.06398e-28 -3.50492e-27 0)
(-3.49485e-28 -3.18791e-27 0)
(-7.35098e-28 -2.40813e-27 0)
(-6.36643e-28 -1.97022e-27 0)
(-5.56802e-28 -2.88431e-27 0)
(-5.7203e-28 -4.53306e-27 0)
(-5.5843e-28 -5.05617e-27 0)
(-2.68939e-28 -4.11263e-27 0)
(-5.38898e-29 -3.45082e-27 0)
(-2.93718e-28 -3.65622e-27 0)
(-6.81095e-28 -3.99683e-27 0)
(-6.36191e-28 -3.30026e-27 0)
(2.28258e-28 -1.95386e-27 0)
(9.10914e-28 -1.72338e-27 0)
(4.48009e-28 -2.85276e-27 0)
(-6.73855e-28 -3.52905e-27 0)
(-9.23589e-28 -3.20906e-27 0)
(1.62681e-28 -3.45132e-27 0)
(7.60919e-28 -4.16469e-27 0)
(4.32812e-28 -4.02115e-27 0)
(6.06263e-28 -3.62843e-27 0)
(6.31839e-28 -3.95817e-27 0)
(-1.62481e-28 -4.25783e-27 0)
(-7.31815e-28 -3.88043e-27 0)
(-6.40709e-28 -3.3561e-27 0)
(-3.14681e-28 -3.5163e-27 0)
(-2.1571e-28 -4.20469e-27 0)
(-3.64396e-28 -4.61031e-27 0)
(-4.15021e-28 -4.18986e-27 0)