/*--------------------------------*- C++ -*----------------------------------*\
| =========                 |                                                 |
| \\      /  F ield         | foam-extend: Open Source CFD                    |
|  \\    /   O peration     | Version:     4.0                                |
|   \\  /    A nd           | Web:         http://www.foam-extend.org         |
|    \\/     M anipulation  |                                                 |
\*---------------------------------------------------------------------------*/
FoamFile
{
    version     2.0;
    format      ascii;
    class       volScalarField;
    location    "530";
    object      cMinus;
}
// * * * * * * * * * * * * * * * * * * * * * * * * * * * * * * * * * * * * * //

dimensions      [0 0 0 0 0 0 0];

internalField   nonuniform List<scalar> 
6960
(
0.00667146
0.00667848
0.00668048
0.00668157
0.00668234
0.00668294
0.00668343
0.00668382
0.00668416
0.00668444
0.00668469
0.00668491
0.00668511
0.00668528
0.00668544
0.00668558
0.0066857
0.00668582
0.00668592
0.00668602
0.0066861
0.00668618
0.00668624
0.0066863
0.00668634
0.00668638
0.00668642
0.00668644
0.00668645
0.00668646
0.00668646
0.00668645
0.00668644
0.00668642
0.00668638
0.00668634
0.0066863
0.00668624
0.00668618
0.0066861
0.00668602
0.00668592
0.00668582
0.0066857
0.00668558
0.00668544
0.00668528
0.00668511
0.00668491
0.00668469
0.00668444
0.00668416
0.00668382
0.00668343
0.00668294
0.00668234
0.00668157
0.00668048
0.00667848
0.00667146
0.0174812
0.0174995
0.0175044
0.017507
0.0175088
0.0175102
0.0175113
0.0175122
0.0175129
0.0175136
0.0175142
0.0175147
0.0175151
0.0175155
0.0175159
0.0175162
0.0175165
0.0175167
0.017517
0.0175172
0.0175174
0.0175175
0.0175177
0.0175178
0.0175179
0.017518
0.0175181
0.0175181
0.0175182
0.0175182
0.0175182
0.0175182
0.0175181
0.0175181
0.017518
0.0175179
0.0175178
0.0175177
0.0175175
0.0175174
0.0175172
0.017517
0.0175167
0.0175165
0.0175162
0.0175159
0.0175155
0.0175151
0.0175147
0.0175142
0.0175136
0.0175129
0.0175122
0.0175113
0.0175102
0.0175088
0.017507
0.0175044
0.0174995
0.0174812
0.0357245
0.0357606
0.0357699
0.0357745
0.0357776
0.03578
0.0357819
0.0357835
0.0357848
0.0357859
0.0357869
0.0357877
0.0357885
0.0357892
0.0357898
0.0357904
0.0357909
0.0357913
0.0357917
0.0357921
0.0357924
0.0357927
0.035793
0.0357932
0.0357934
0.0357936
0.0357937
0.0357938
0.0357938
0.0357939
0.0357939
0.0357938
0.0357938
0.0357937
0.0357936
0.0357934
0.0357932
0.035793
0.0357927
0.0357924
0.0357921
0.0357917
0.0357913
0.0357909
0.0357904
0.0357898
0.0357892
0.0357885
0.0357877
0.0357869
0.0357859
0.0357848
0.0357835
0.0357819
0.03578
0.0357776
0.0357745
0.0357699
0.0357606
0.0357245
0.062317
0.0623764
0.0623911
0.0623979
0.0624024
0.0624058
0.0624086
0.0624108
0.0624127
0.0624143
0.0624156
0.0624169
0.0624179
0.0624189
0.0624198
0.0624206
0.0624213
0.0624219
0.0624225
0.0624231
0.0624235
0.0624239
0.0624243
0.0624246
0.0624249
0.0624251
0.0624253
0.0624254
0.0624255
0.0624256
0.0624256
0.0624255
0.0624254
0.0624253
0.0624251
0.0624249
0.0624246
0.0624243
0.0624239
0.0624235
0.0624231
0.0624225
0.0624219
0.0624213
0.0624206
0.0624198
0.0624189
0.0624179
0.0624169
0.0624156
0.0624143
0.0624127
0.0624108
0.0624086
0.0624058
0.0624024
0.0623979
0.0623911
0.0623764
0.062317
0.0964189
0.0965039
0.0965241
0.0965329
0.0965386
0.0965428
0.0965461
0.0965489
0.0965512
0.0965531
0.0965548
0.0965563
0.0965576
0.0965588
0.0965599
0.0965609
0.0965617
0.0965625
0.0965633
0.0965639
0.0965645
0.096565
0.0965655
0.0965658
0.0965662
0.0965665
0.0965667
0.0965668
0.0965669
0.096567
0.096567
0.0965669
0.0965668
0.0965667
0.0965665
0.0965662
0.0965658
0.0965655
0.096565
0.0965645
0.0965639
0.0965633
0.0965625
0.0965617
0.0965609
0.0965599
0.0965588
0.0965576
0.0965563
0.0965548
0.0965531
0.0965512
0.0965489
0.0965461
0.0965428
0.0965386
0.0965329
0.0965241
0.0965039
0.0964189
0.135709
0.135819
0.135844
0.135854
0.13586
0.135865
0.135869
0.135872
0.135874
0.135876
0.135878
0.13588
0.135881
0.135883
0.135884
0.135885
0.135886
0.135887
0.135888
0.135888
0.135889
0.135889
0.13589
0.13589
0.135891
0.135891
0.135891
0.135892
0.135892
0.135892
0.135892
0.135892
0.135892
0.135891
0.135891
0.135891
0.13589
0.13589
0.135889
0.135889
0.135888
0.135888
0.135887
0.135886
0.135885
0.135884
0.135883
0.135881
0.13588
0.135878
0.135876
0.135874
0.135872
0.135869
0.135865
0.13586
0.135854
0.135844
0.135819
0.135709
0.177452
0.177583
0.177613
0.177624
0.17763
0.177635
0.177639
0.177642
0.177644
0.177646
0.177648
0.17765
0.177651
0.177653
0.177654
0.177655
0.177656
0.177657
0.177658
0.177658
0.177659
0.17766
0.17766
0.177661
0.177661
0.177661
0.177662
0.177662
0.177662
0.177662
0.177662
0.177662
0.177662
0.177662
0.177661
0.177661
0.177661
0.17766
0.17766
0.177659
0.177658
0.177658
0.177657
0.177656
0.177655
0.177654
0.177653
0.177651
0.17765
0.177648
0.177646
0.177644
0.177642
0.177639
0.177635
0.17763
0.177624
0.177613
0.177583
0.177452
0.21948
0.219631
0.219663
0.219675
0.219681
0.219686
0.219689
0.219692
0.219695
0.219697
0.219699
0.2197
0.219702
0.219703
0.219704
0.219705
0.219706
0.219707
0.219708
0.219708
0.219709
0.21971
0.21971
0.219711
0.219711
0.219711
0.219711
0.219712
0.219712
0.219712
0.219712
0.219712
0.219712
0.219711
0.219711
0.219711
0.219711
0.21971
0.21971
0.219709
0.219708
0.219708
0.219707
0.219706
0.219705
0.219704
0.219703
0.219702
0.2197
0.219699
0.219697
0.219695
0.219692
0.219689
0.219686
0.219681
0.219675
0.219663
0.219631
0.21948
0.260541
0.260707
0.260742
0.260754
0.26076
0.260765
0.260768
0.260771
0.260773
0.260775
0.260777
0.260778
0.260779
0.260781
0.260782
0.260783
0.260784
0.260784
0.260785
0.260786
0.260786
0.260787
0.260787
0.260788
0.260788
0.260788
0.260789
0.260789
0.260789
0.260789
0.260789
0.260789
0.260789
0.260789
0.260788
0.260788
0.260788
0.260787
0.260787
0.260786
0.260786
0.260785
0.260784
0.260784
0.260783
0.260782
0.260781
0.260779
0.260778
0.260777
0.260775
0.260773
0.260771
0.260768
0.260765
0.26076
0.260754
0.260742
0.260707
0.260541
0.300114
0.300294
0.300332
0.300344
0.30035
0.300354
0.300357
0.30036
0.300362
0.300364
0.300365
0.300367
0.300368
0.300369
0.30037
0.300371
0.300372
0.300372
0.300373
0.300374
0.300374
0.300375
0.300375
0.300376
0.300376
0.300376
0.300376
0.300377
0.300377
0.300377
0.300377
0.300377
0.300377
0.300376
0.300376
0.300376
0.300376
0.300375
0.300375
0.300374
0.300374
0.300373
0.300372
0.300372
0.300371
0.30037
0.300369
0.300368
0.300367
0.300365
0.300364
0.300362
0.30036
0.300357
0.300354
0.30035
0.300344
0.300332
0.300294
0.300114
0.338088
0.338281
0.338322
0.338334
0.33834
0.338344
0.338347
0.338349
0.338351
0.338353
0.338354
0.338355
0.338357
0.338358
0.338359
0.338359
0.33836
0.338361
0.338362
0.338362
0.338363
0.338363
0.338363
0.338364
0.338364
0.338364
0.338365
0.338365
0.338365
0.338365
0.338365
0.338365
0.338365
0.338365
0.338364
0.338364
0.338364
0.338363
0.338363
0.338363
0.338362
0.338362
0.338361
0.33836
0.338359
0.338359
0.338358
0.338357
0.338355
0.338354
0.338353
0.338351
0.338349
0.338347
0.338344
0.33834
0.338334
0.338322
0.338281
0.338088
0.374513
0.374717
0.37476
0.374773
0.374778
0.374782
0.374785
0.374787
0.374789
0.37479
0.374792
0.374793
0.374794
0.374795
0.374796
0.374796
0.374797
0.374798
0.374798
0.374799
0.374799
0.3748
0.3748
0.374801
0.374801
0.374801
0.374801
0.374801
0.374802
0.374802
0.374802
0.374802
0.374801
0.374801
0.374801
0.374801
0.374801
0.3748
0.3748
0.374799
0.374799
0.374798
0.374798
0.374797
0.374796
0.374796
0.374795
0.374794
0.374793
0.374792
0.37479
0.374789
0.374787
0.374785
0.374782
0.374778
0.374773
0.37476
0.374717
0.374513
0.409467
0.409682
0.409727
0.40974
0.409745
0.409748
0.409751
0.409753
0.409755
0.409756
0.409757
0.409758
0.409759
0.40976
0.409761
0.409762
0.409762
0.409763
0.409764
0.409764
0.409765
0.409765
0.409765
0.409766
0.409766
0.409766
0.409766
0.409767
0.409767
0.409767
0.409767
0.409767
0.409767
0.409766
0.409766
0.409766
0.409766
0.409765
0.409765
0.409765
0.409764
0.409764
0.409763
0.409762
0.409762
0.409761
0.40976
0.409759
0.409758
0.409757
0.409756
0.409755
0.409753
0.409751
0.409748
0.409745
0.40974
0.409727
0.409682
0.409467
0.443018
0.443242
0.44329
0.443303
0.443308
0.443311
0.443314
0.443316
0.443317
0.443318
0.44332
0.443321
0.443322
0.443322
0.443323
0.443324
0.443324
0.443325
0.443326
0.443326
0.443326
0.443327
0.443327
0.443327
0.443328
0.443328
0.443328
0.443328
0.443328
0.443328
0.443328
0.443328
0.443328
0.443328
0.443328
0.443328
0.443327
0.443327
0.443327
0.443326
0.443326
0.443326
0.443325
0.443324
0.443324
0.443323
0.443322
0.443322
0.443321
0.44332
0.443318
0.443317
0.443316
0.443314
0.443311
0.443308
0.443303
0.44329
0.443242
0.443018
0.475216
0.475449
0.475499
0.475512
0.475517
0.47552
0.475523
0.475524
0.475526
0.475527
0.475528
0.475529
0.47553
0.475531
0.475531
0.475532
0.475533
0.475533
0.475534
0.475534
0.475534
0.475535
0.475535
0.475535
0.475536
0.475536
0.475536
0.475536
0.475536
0.475536
0.475536
0.475536
0.475536
0.475536
0.475536
0.475536
0.475535
0.475535
0.475535
0.475534
0.475534
0.475534
0.475533
0.475533
0.475532
0.475531
0.475531
0.47553
0.475529
0.475528
0.475527
0.475526
0.475524
0.475523
0.47552
0.475517
0.475512
0.475499
0.475449
0.475216
0.506098
0.506338
0.506391
0.506404
0.506409
0.506412
0.506414
0.506415
0.506417
0.506418
0.506419
0.50642
0.50642
0.506421
0.506422
0.506422
0.506423
0.506423
0.506424
0.506424
0.506425
0.506425
0.506425
0.506426
0.506426
0.506426
0.506426
0.506426
0.506426
0.506426
0.506426
0.506426
0.506426
0.506426
0.506426
0.506426
0.506426
0.506425
0.506425
0.506425
0.506424
0.506424
0.506423
0.506423
0.506422
0.506422
0.506421
0.50642
0.50642
0.506419
0.506418
0.506417
0.506415
0.506414
0.506412
0.506409
0.506404
0.506391
0.506338
0.506098
0.535691
0.535938
0.535992
0.536006
0.536011
0.536013
0.536015
0.536017
0.536018
0.536019
0.53602
0.536021
0.536021
0.536022
0.536023
0.536023
0.536024
0.536024
0.536025
0.536025
0.536025
0.536026
0.536026
0.536026
0.536026
0.536027
0.536027
0.536027
0.536027
0.536027
0.536027
0.536027
0.536027
0.536027
0.536027
0.536026
0.536026
0.536026
0.536026
0.536025
0.536025
0.536025
0.536024
0.536024
0.536023
0.536023
0.536022
0.536021
0.536021
0.53602
0.536019
0.536018
0.536017
0.536015
0.536013
0.536011
0.536006
0.535992
0.535938
0.535691
0.56402
0.564272
0.564329
0.564342
0.564347
0.56435
0.564351
0.564353
0.564354
0.564355
0.564356
0.564356
0.564357
0.564358
0.564358
0.564359
0.564359
0.56436
0.56436
0.564361
0.564361
0.564361
0.564361
0.564362
0.564362
0.564362
0.564362
0.564362
0.564362
0.564362
0.564362
0.564362
0.564362
0.564362
0.564362
0.564362
0.564362
0.564361
0.564361
0.564361
0.564361
0.56436
0.56436
0.564359
0.564359
0.564358
0.564358
0.564357
0.564356
0.564356
0.564355
0.564354
0.564353
0.564351
0.56435
0.564347
0.564342
0.564329
0.564272
0.56402
0.591108
0.591364
0.591422
0.591437
0.591441
0.591444
0.591445
0.591446
0.591447
0.591448
0.591449
0.59145
0.59145
0.591451
0.591452
0.591452
0.591452
0.591453
0.591453
0.591454
0.591454
0.591454
0.591454
0.591455
0.591455
0.591455
0.591455
0.591455
0.591455
0.591455
0.591455
0.591455
0.591455
0.591455
0.591455
0.591455
0.591455
0.591454
0.591454
0.591454
0.591454
0.591453
0.591453
0.591452
0.591452
0.591452
0.591451
0.59145
0.59145
0.591449
0.591448
0.591447
0.591446
0.591445
0.591444
0.591441
0.591437
0.591422
0.591364
0.591108
0.616977
0.617236
0.617296
0.617311
0.617315
0.617318
0.617319
0.61732
0.617321
0.617322
0.617323
0.617323
0.617324
0.617325
0.617325
0.617325
0.617326
0.617326
0.617327
0.617327
0.617327
0.617328
0.617328
0.617328
0.617328
0.617328
0.617328
0.617328
0.617329
0.617329
0.617329
0.617329
0.617328
0.617328
0.617328
0.617328
0.617328
0.617328
0.617328
0.617327
0.617327
0.617327
0.617326
0.617326
0.617325
0.617325
0.617325
0.617324
0.617323
0.617323
0.617322
0.617321
0.61732
0.617319
0.617318
0.617315
0.617311
0.617296
0.617236
0.616977
0.64165
0.641912
0.641974
0.641989
0.641993
0.641995
0.641997
0.641998
0.641999
0.641999
0.642
0.642001
0.642001
0.642002
0.642002
0.642002
0.642003
0.642003
0.642003
0.642004
0.642004
0.642004
0.642005
0.642005
0.642005
0.642005
0.642005
0.642005
0.642005
0.642005
0.642005
0.642005
0.642005
0.642005
0.642005
0.642005
0.642005
0.642005
0.642004
0.642004
0.642004
0.642003
0.642003
0.642003
0.642002
0.642002
0.642002
0.642001
0.642001
0.642
0.641999
0.641999
0.641998
0.641997
0.641995
0.641993
0.641989
0.641974
0.641912
0.64165
0.665152
0.665415
0.665478
0.665494
0.665498
0.6655
0.665502
0.665503
0.665503
0.665504
0.665505
0.665505
0.665506
0.665506
0.665507
0.665507
0.665507
0.665508
0.665508
0.665508
0.665508
0.665509
0.665509
0.665509
0.665509
0.665509
0.665509
0.665509
0.66551
0.66551
0.66551
0.66551
0.665509
0.665509
0.665509
0.665509
0.665509
0.665509
0.665509
0.665508
0.665508
0.665508
0.665508
0.665507
0.665507
0.665507
0.665506
0.665506
0.665505
0.665505
0.665504
0.665503
0.665503
0.665502
0.6655
0.665498
0.665494
0.665478
0.665415
0.665152
0.687507
0.687771
0.687836
0.687852
0.687856
0.687858
0.687859
0.68786
0.687861
0.687862
0.687862
0.687863
0.687863
0.687864
0.687864
0.687864
0.687865
0.687865
0.687865
0.687865
0.687866
0.687866
0.687866
0.687866
0.687866
0.687867
0.687867
0.687867
0.687867
0.687867
0.687867
0.687867
0.687867
0.687867
0.687867
0.687866
0.687866
0.687866
0.687866
0.687866
0.687865
0.687865
0.687865
0.687865
0.687864
0.687864
0.687864
0.687863
0.687863
0.687862
0.687862
0.687861
0.68786
0.687859
0.687858
0.687856
0.687852
0.687836
0.687771
0.687507
0.708743
0.709006
0.709073
0.709089
0.709093
0.709095
0.709096
0.709097
0.709098
0.709098
0.709099
0.709099
0.7091
0.7091
0.709101
0.709101
0.709101
0.709102
0.709102
0.709102
0.709102
0.709102
0.709103
0.709103
0.709103
0.709103
0.709103
0.709103
0.709103
0.709103
0.709103
0.709103
0.709103
0.709103
0.709103
0.709103
0.709103
0.709103
0.709102
0.709102
0.709102
0.709102
0.709102
0.709101
0.709101
0.709101
0.7091
0.7091
0.709099
0.709099
0.709098
0.709098
0.709097
0.709096
0.709095
0.709093
0.709089
0.709073
0.709006
0.708743
0.728886
0.729149
0.729217
0.729233
0.729237
0.729239
0.72924
0.729241
0.729242
0.729242
0.729243
0.729243
0.729243
0.729244
0.729244
0.729245
0.729245
0.729245
0.729245
0.729246
0.729246
0.729246
0.729246
0.729246
0.729246
0.729246
0.729246
0.729247
0.729247
0.729247
0.729247
0.729247
0.729247
0.729246
0.729246
0.729246
0.729246
0.729246
0.729246
0.729246
0.729246
0.729245
0.729245
0.729245
0.729245
0.729244
0.729244
0.729243
0.729243
0.729243
0.729242
0.729242
0.729241
0.72924
0.729239
0.729237
0.729233
0.729217
0.729149
0.728886
0.747966
0.748227
0.748296
0.748313
0.748317
0.748319
0.74832
0.748321
0.748321
0.748322
0.748322
0.748323
0.748323
0.748323
0.748324
0.748324
0.748324
0.748324
0.748325
0.748325
0.748325
0.748325
0.748325
0.748325
0.748326
0.748326
0.748326
0.748326
0.748326
0.748326
0.748326
0.748326
0.748326
0.748326
0.748326
0.748326
0.748325
0.748325
0.748325
0.748325
0.748325
0.748325
0.748324
0.748324
0.748324
0.748324
0.748323
0.748323
0.748323
0.748322
0.748322
0.748321
0.748321
0.74832
0.748319
0.748317
0.748313
0.748296
0.748227
0.747966
0.766013
0.766271
0.766341
0.766358
0.766363
0.766364
0.766365
0.766366
0.766366
0.766367
0.766367
0.766368
0.766368
0.766368
0.766369
0.766369
0.766369
0.766369
0.76637
0.76637
0.76637
0.76637
0.76637
0.76637
0.76637
0.76637
0.766371
0.766371
0.766371
0.766371
0.766371
0.766371
0.766371
0.766371
0.76637
0.76637
0.76637
0.76637
0.76637
0.76637
0.76637
0.76637
0.766369
0.766369
0.766369
0.766369
0.766368
0.766368
0.766368
0.766367
0.766367
0.766366
0.766366
0.766365
0.766364
0.766363
0.766358
0.766341
0.766271
0.766013
0.783057
0.783312
0.783382
0.7834
0.783405
0.783406
0.783407
0.783408
0.783408
0.783409
0.783409
0.783409
0.78341
0.78341
0.78341
0.78341
0.783411
0.783411
0.783411
0.783411
0.783411
0.783412
0.783412
0.783412
0.783412
0.783412
0.783412
0.783412
0.783412
0.783412
0.783412
0.783412
0.783412
0.783412
0.783412
0.783412
0.783412
0.783412
0.783412
0.783411
0.783411
0.783411
0.783411
0.783411
0.78341
0.78341
0.78341
0.78341
0.783409
0.783409
0.783409
0.783408
0.783408
0.783407
0.783406
0.783405
0.7834
0.783382
0.783312
0.783057
0.79913
0.799381
0.799452
0.79947
0.799475
0.799477
0.799477
0.799478
0.799478
0.799479
0.799479
0.799479
0.79948
0.79948
0.79948
0.79948
0.799481
0.799481
0.799481
0.799481
0.799481
0.799482
0.799482
0.799482
0.799482
0.799482
0.799482
0.799482
0.799482
0.799482
0.799482
0.799482
0.799482
0.799482
0.799482
0.799482
0.799482
0.799482
0.799482
0.799481
0.799481
0.799481
0.799481
0.799481
0.79948
0.79948
0.79948
0.79948
0.799479
0.799479
0.799479
0.799478
0.799478
0.799477
0.799477
0.799475
0.79947
0.799452
0.799381
0.79913
0.814265
0.814512
0.814583
0.814602
0.814606
0.814608
0.814609
0.814609
0.81461
0.81461
0.81461
0.814611
0.814611
0.814611
0.814611
0.814612
0.814612
0.814612
0.814612
0.814612
0.814612
0.814612
0.814613
0.814613
0.814613
0.814613
0.814613
0.814613
0.814613
0.814613
0.814613
0.814613
0.814613
0.814613
0.814613
0.814613
0.814613
0.814613
0.814612
0.814612
0.814612
0.814612
0.814612
0.814612
0.814612
0.814611
0.814611
0.814611
0.814611
0.81461
0.81461
0.81461
0.814609
0.814609
0.814608
0.814606
0.814602
0.814583
0.814512
0.814265
0.828495
0.828737
0.828808
0.828827
0.828832
0.828834
0.828834
0.828835
0.828835
0.828835
0.828836
0.828836
0.828836
0.828836
0.828837
0.828837
0.828837
0.828837
0.828837
0.828837
0.828838
0.828838
0.828838
0.828838
0.828838
0.828838
0.828838
0.828838
0.828838
0.828838
0.828838
0.828838
0.828838
0.828838
0.828838
0.828838
0.828838
0.828838
0.828838
0.828838
0.828837
0.828837
0.828837
0.828837
0.828837
0.828837
0.828836
0.828836
0.828836
0.828836
0.828835
0.828835
0.828835
0.828834
0.828834
0.828832
0.828827
0.828808
0.828737
0.828495
0.841853
0.84209
0.842161
0.84218
0.842186
0.842187
0.842188
0.842188
0.842189
0.842189
0.842189
0.842189
0.842189
0.84219
0.84219
0.84219
0.84219
0.84219
0.842191
0.842191
0.842191
0.842191
0.842191
0.842191
0.842191
0.842191
0.842191
0.842191
0.842191
0.842191
0.842191
0.842191
0.842191
0.842191
0.842191
0.842191
0.842191
0.842191
0.842191
0.842191
0.842191
0.842191
0.84219
0.84219
0.84219
0.84219
0.84219
0.842189
0.842189
0.842189
0.842189
0.842189
0.842188
0.842188
0.842187
0.842186
0.84218
0.842161
0.84209
0.841853
0.854374
0.854605
0.854676
0.854696
0.854701
0.854703
0.854703
0.854704
0.854704
0.854704
0.854704
0.854705
0.854705
0.854705
0.854705
0.854705
0.854706
0.854706
0.854706
0.854706
0.854706
0.854706
0.854706
0.854706
0.854706
0.854706
0.854706
0.854706
0.854706
0.854706
0.854706
0.854706
0.854706
0.854706
0.854706
0.854706
0.854706
0.854706
0.854706
0.854706
0.854706
0.854706
0.854706
0.854706
0.854705
0.854705
0.854705
0.854705
0.854705
0.854704
0.854704
0.854704
0.854704
0.854703
0.854703
0.854701
0.854696
0.854676
0.854605
0.854374
0.866092
0.866317
0.866388
0.866408
0.866413
0.866415
0.866415
0.866416
0.866416
0.866416
0.866416
0.866416
0.866417
0.866417
0.866417
0.866417
0.866417
0.866417
0.866418
0.866418
0.866418
0.866418
0.866418
0.866418
0.866418
0.866418
0.866418
0.866418
0.866418
0.866418
0.866418
0.866418
0.866418
0.866418
0.866418
0.866418
0.866418
0.866418
0.866418
0.866418
0.866418
0.866418
0.866417
0.866417
0.866417
0.866417
0.866417
0.866417
0.866416
0.866416
0.866416
0.866416
0.866416
0.866415
0.866415
0.866413
0.866408
0.866388
0.866317
0.866092
0.877042
0.877259
0.87733
0.87735
0.877356
0.877357
0.877358
0.877358
0.877359
0.877359
0.877359
0.877359
0.877359
0.877359
0.87736
0.87736
0.87736
0.87736
0.87736
0.87736
0.87736
0.87736
0.87736
0.87736
0.877361
0.877361
0.877361
0.877361
0.877361
0.877361
0.877361
0.877361
0.877361
0.877361
0.877361
0.877361
0.87736
0.87736
0.87736
0.87736
0.87736
0.87736
0.87736
0.87736
0.87736
0.87736
0.877359
0.877359
0.877359
0.877359
0.877359
0.877359
0.877358
0.877358
0.877357
0.877356
0.87735
0.87733
0.877259
0.877042
0.887257
0.887468
0.887538
0.887558
0.887564
0.887565
0.887566
0.887566
0.887566
0.887567
0.887567
0.887567
0.887567
0.887567
0.887567
0.887568
0.887568
0.887568
0.887568
0.887568
0.887568
0.887568
0.887568
0.887568
0.887568
0.887568
0.887568
0.887568
0.887568
0.887568
0.887568
0.887568
0.887568
0.887568
0.887568
0.887568
0.887568
0.887568
0.887568
0.887568
0.887568
0.887568
0.887568
0.887568
0.887568
0.887567
0.887567
0.887567
0.887567
0.887567
0.887567
0.887566
0.887566
0.887566
0.887565
0.887564
0.887558
0.887538
0.887468
0.887257
0.896772
0.896975
0.897045
0.897065
0.897071
0.897073
0.897073
0.897074
0.897074
0.897074
0.897074
0.897074
0.897074
0.897075
0.897075
0.897075
0.897075
0.897075
0.897075
0.897075
0.897075
0.897075
0.897075
0.897075
0.897075
0.897076
0.897076
0.897076
0.897076
0.897076
0.897076
0.897076
0.897076
0.897076
0.897076
0.897075
0.897075
0.897075
0.897075
0.897075
0.897075
0.897075
0.897075
0.897075
0.897075
0.897075
0.897075
0.897074
0.897074
0.897074
0.897074
0.897074
0.897074
0.897073
0.897073
0.897071
0.897065
0.897045
0.896975
0.896772
0.905621
0.905817
0.905885
0.905906
0.905912
0.905914
0.905914
0.905914
0.905915
0.905915
0.905915
0.905915
0.905915
0.905915
0.905915
0.905916
0.905916
0.905916
0.905916
0.905916
0.905916
0.905916
0.905916
0.905916
0.905916
0.905916
0.905916
0.905916
0.905916
0.905916
0.905916
0.905916
0.905916
0.905916
0.905916
0.905916
0.905916
0.905916
0.905916
0.905916
0.905916
0.905916
0.905916
0.905916
0.905916
0.905915
0.905915
0.905915
0.905915
0.905915
0.905915
0.905915
0.905914
0.905914
0.905914
0.905912
0.905906
0.905885
0.905817
0.905621
0.913837
0.914025
0.914093
0.914114
0.91412
0.914121
0.914122
0.914122
0.914122
0.914123
0.914123
0.914123
0.914123
0.914123
0.914123
0.914123
0.914123
0.914123
0.914123
0.914123
0.914124
0.914124
0.914124
0.914124
0.914124
0.914124
0.914124
0.914124
0.914124
0.914124
0.914124
0.914124
0.914124
0.914124
0.914124
0.914124
0.914124
0.914124
0.914124
0.914124
0.914123
0.914123
0.914123
0.914123
0.914123
0.914123
0.914123
0.914123
0.914123
0.914123
0.914123
0.914122
0.914122
0.914122
0.914121
0.91412
0.914114
0.914093
0.914025
0.913837
0.921454
0.921634
0.9217
0.921721
0.921727
0.921729
0.92173
0.92173
0.92173
0.92173
0.92173
0.92173
0.921731
0.921731
0.921731
0.921731
0.921731
0.921731
0.921731
0.921731
0.921731
0.921731
0.921731
0.921731
0.921731
0.921731
0.921731
0.921731
0.921731
0.921731
0.921731
0.921731
0.921731
0.921731
0.921731
0.921731
0.921731
0.921731
0.921731
0.921731
0.921731
0.921731
0.921731
0.921731
0.921731
0.921731
0.921731
0.921731
0.92173
0.92173
0.92173
0.92173
0.92173
0.92173
0.921729
0.921727
0.921721
0.9217
0.921634
0.921454
0.928503
0.928675
0.92874
0.928761
0.928767
0.928769
0.92877
0.92877
0.92877
0.92877
0.92877
0.92877
0.928771
0.928771
0.928771
0.928771
0.928771
0.928771
0.928771
0.928771
0.928771
0.928771
0.928771
0.928771
0.928771
0.928771
0.928771
0.928771
0.928771
0.928771
0.928771
0.928771
0.928771
0.928771
0.928771
0.928771
0.928771
0.928771
0.928771
0.928771
0.928771
0.928771
0.928771
0.928771
0.928771
0.928771
0.928771
0.928771
0.92877
0.92877
0.92877
0.92877
0.92877
0.92877
0.928769
0.928767
0.928761
0.92874
0.928675
0.928503
0.935016
0.935181
0.935244
0.935265
0.935272
0.935273
0.935274
0.935274
0.935274
0.935275
0.935275
0.935275
0.935275
0.935275
0.935275
0.935275
0.935275
0.935275
0.935275
0.935275
0.935275
0.935275
0.935275
0.935275
0.935275
0.935275
0.935275
0.935275
0.935275
0.935275
0.935275
0.935275
0.935275
0.935275
0.935275
0.935275
0.935275
0.935275
0.935275
0.935275
0.935275
0.935275
0.935275
0.935275
0.935275
0.935275
0.935275
0.935275
0.935275
0.935275
0.935275
0.935274
0.935274
0.935274
0.935273
0.935272
0.935265
0.935244
0.935181
0.935016
0.941025
0.941182
0.941244
0.941264
0.941271
0.941273
0.941273
0.941274
0.941274
0.941274
0.941274
0.941274
0.941274
0.941274
0.941274
0.941274
0.941274
0.941274
0.941274
0.941274
0.941274
0.941274
0.941274
0.941275
0.941275
0.941275
0.941275
0.941275
0.941275
0.941275
0.941275
0.941275
0.941275
0.941275
0.941275
0.941275
0.941275
0.941274
0.941274
0.941274
0.941274
0.941274
0.941274
0.941274
0.941274
0.941274
0.941274
0.941274
0.941274
0.941274
0.941274
0.941274
0.941274
0.941273
0.941273
0.941271
0.941264
0.941244
0.941182
0.941025
0.946559
0.946708
0.946768
0.946789
0.946795
0.946797
0.946798
0.946798
0.946798
0.946798
0.946798
0.946798
0.946798
0.946798
0.946798
0.946799
0.946799
0.946799
0.946799
0.946799
0.946799
0.946799
0.946799
0.946799
0.946799
0.946799
0.946799
0.946799
0.946799
0.946799
0.946799
0.946799
0.946799
0.946799
0.946799
0.946799
0.946799
0.946799
0.946799
0.946799
0.946799
0.946799
0.946799
0.946799
0.946799
0.946798
0.946798
0.946798
0.946798
0.946798
0.946798
0.946798
0.946798
0.946798
0.946797
0.946795
0.946789
0.946768
0.946708
0.946559
0.951647
0.951789
0.951847
0.951867
0.951874
0.951876
0.951877
0.951877
0.951877
0.951877
0.951877
0.951877
0.951877
0.951877
0.951877
0.951877
0.951877
0.951877
0.951877
0.951877
0.951877
0.951877
0.951877
0.951877
0.951878
0.951878
0.951878
0.951878
0.951878
0.951878
0.951878
0.951878
0.951878
0.951878
0.951878
0.951878
0.951877
0.951877
0.951877
0.951877
0.951877
0.951877
0.951877
0.951877
0.951877
0.951877
0.951877
0.951877
0.951877
0.951877
0.951877
0.951877
0.951877
0.951877
0.951876
0.951874
0.951867
0.951847
0.951789
0.951647
0.956318
0.956452
0.956508
0.956528
0.956535
0.956537
0.956538
0.956538
0.956538
0.956538
0.956538
0.956538
0.956538
0.956538
0.956538
0.956538
0.956538
0.956539
0.956539
0.956539
0.956539
0.956539
0.956539
0.956539
0.956539
0.956539
0.956539
0.956539
0.956539
0.956539
0.956539
0.956539
0.956539
0.956539
0.956539
0.956539
0.956539
0.956539
0.956539
0.956539
0.956539
0.956539
0.956539
0.956538
0.956538
0.956538
0.956538
0.956538
0.956538
0.956538
0.956538
0.956538
0.956538
0.956538
0.956537
0.956535
0.956528
0.956508
0.956452
0.956318
0.960599
0.960725
0.960779
0.960799
0.960806
0.960808
0.960809
0.960809
0.960809
0.960809
0.960809
0.960809
0.960809
0.960809
0.960809
0.960809
0.960809
0.960809
0.960809
0.960809
0.960809
0.96081
0.96081
0.96081
0.96081
0.96081
0.96081
0.96081
0.96081
0.96081
0.96081
0.96081
0.96081
0.96081
0.96081
0.96081
0.96081
0.96081
0.96081
0.960809
0.960809
0.960809
0.960809
0.960809
0.960809
0.960809
0.960809
0.960809
0.960809
0.960809
0.960809
0.960809
0.960809
0.960809
0.960808
0.960806
0.960799
0.960779
0.960725
0.960599
0.964515
0.964634
0.964686
0.964706
0.964713
0.964715
0.964716
0.964716
0.964716
0.964716
0.964716
0.964716
0.964716
0.964716
0.964716
0.964716
0.964716
0.964716
0.964716
0.964716
0.964716
0.964716
0.964716
0.964716
0.964716
0.964716
0.964716
0.964716
0.964716
0.964716
0.964716
0.964716
0.964716
0.964716
0.964716
0.964716
0.964716
0.964716
0.964716
0.964716
0.964716
0.964716
0.964716
0.964716
0.964716
0.964716
0.964716
0.964716
0.964716
0.964716
0.964716
0.964716
0.964716
0.964716
0.964715
0.964713
0.964706
0.964686
0.964634
0.964515
0.968092
0.968204
0.968254
0.968273
0.96828
0.968282
0.968283
0.968283
0.968284
0.968284
0.968284
0.968284
0.968284
0.968284
0.968284
0.968284
0.968284
0.968284
0.968284
0.968284
0.968284
0.968284
0.968284
0.968284
0.968284
0.968284
0.968284
0.968284
0.968284
0.968284
0.968284
0.968284
0.968284
0.968284
0.968284
0.968284
0.968284
0.968284
0.968284
0.968284
0.968284
0.968284
0.968284
0.968284
0.968284
0.968284
0.968284
0.968284
0.968284
0.968284
0.968284
0.968284
0.968283
0.968283
0.968282
0.96828
0.968273
0.968254
0.968204
0.968092
0.971354
0.971459
0.971507
0.971526
0.971533
0.971535
0.971536
0.971536
0.971536
0.971536
0.971536
0.971536
0.971536
0.971536
0.971536
0.971536
0.971536
0.971536
0.971536
0.971536
0.971536
0.971536
0.971536
0.971536
0.971536
0.971536
0.971536
0.971536
0.971536
0.971536
0.971536
0.971536
0.971536
0.971536
0.971536
0.971536
0.971536
0.971536
0.971536
0.971536
0.971536
0.971536
0.971536
0.971536
0.971536
0.971536
0.971536
0.971536
0.971536
0.971536
0.971536
0.971536
0.971536
0.971536
0.971535
0.971533
0.971526
0.971507
0.971459
0.971354
0.974324
0.974422
0.974467
0.974486
0.974493
0.974495
0.974496
0.974496
0.974496
0.974496
0.974496
0.974496
0.974496
0.974496
0.974496
0.974496
0.974496
0.974496
0.974496
0.974496
0.974496
0.974496
0.974496
0.974496
0.974496
0.974496
0.974496
0.974496
0.974496
0.974496
0.974496
0.974496
0.974496
0.974496
0.974496
0.974496
0.974496
0.974496
0.974496
0.974496
0.974496
0.974496
0.974496
0.974496
0.974496
0.974496
0.974496
0.974496
0.974496
0.974496
0.974496
0.974496
0.974496
0.974496
0.974495
0.974493
0.974486
0.974467
0.974422
0.974324
0.977022
0.977114
0.977157
0.977175
0.977182
0.977184
0.977185
0.977185
0.977185
0.977185
0.977185
0.977185
0.977185
0.977185
0.977185
0.977185
0.977185
0.977185
0.977185
0.977185
0.977185
0.977185
0.977185
0.977186
0.977186
0.977186
0.977186
0.977186
0.977186
0.977186
0.977186
0.977186
0.977186
0.977186
0.977186
0.977186
0.977186
0.977185
0.977185
0.977185
0.977185
0.977185
0.977185
0.977185
0.977185
0.977185
0.977185
0.977185
0.977185
0.977185
0.977185
0.977185
0.977185
0.977185
0.977184
0.977182
0.977175
0.977157
0.977114
0.977022
0.979471
0.979556
0.979597
0.979615
0.979621
0.979624
0.979624
0.979625
0.979625
0.979625
0.979625
0.979625
0.979625
0.979625
0.979625
0.979625
0.979625
0.979625
0.979625
0.979625
0.979625
0.979625
0.979625
0.979625
0.979625
0.979625
0.979625
0.979625
0.979625
0.979625
0.979625
0.979625
0.979625
0.979625
0.979625
0.979625
0.979625
0.979625
0.979625
0.979625
0.979625
0.979625
0.979625
0.979625
0.979625
0.979625
0.979625
0.979625
0.979625
0.979625
0.979625
0.979625
0.979625
0.979624
0.979624
0.979621
0.979615
0.979597
0.979556
0.979471
0.981688
0.981767
0.981806
0.981823
0.98183
0.981832
0.981833
0.981833
0.981833
0.981833
0.981833
0.981833
0.981833
0.981833
0.981833
0.981833
0.981833
0.981833
0.981833
0.981833
0.981833
0.981833
0.981833
0.981833
0.981833
0.981833
0.981833
0.981833
0.981833
0.981833
0.981833
0.981833
0.981833
0.981833
0.981833
0.981833
0.981833
0.981833
0.981833
0.981833
0.981833
0.981833
0.981833
0.981833
0.981833
0.981833
0.981833
0.981833