/*--------------------------------*- C++ -*----------------------------------*\
| =========                 |                                                 |
| \\      /  F ield         | foam-extend: Open Source CFD                    |
|  \\    /   O peration     | Version:     4.0                                |
|   \\  /    A nd           | Web:         http://www.foam-extend.org         |
|    \\/     M anipulation  |                                                 |
\*---------------------------------------------------------------------------*/
FoamFile
{
    version     2.0;
    format      ascii;
    class       volScalarField;
    location    "4";
    object      dC2;
}
// * * * * * * * * * * * * * * * * * * * * * * * * * * * * * * * * * * * * * //

dimensions      [0 -1 0 0 0 0 0];

internalField   nonuniform List<scalar> 
6960
(
6.78923e-12
-1.02355e-11
3.39006e-12
3.91071e-14
1.28278e-14
2.41338e-15
1.51985e-15
3.51595e-16
2.25765e-16
-2.45148e-17
4.38277e-16
1.63895e-16
1.92173e-16
6.72214e-17
2.21208e-17
8.8745e-17
1.82353e-16
-4.30207e-19
7.37749e-17
7.93552e-17
3.15065e-17
6.19666e-18
1.79511e-16
2.33874e-17
9.434e-18
9.20683e-17
3.63946e-17
-5.52735e-17
-7.40114e-17
3.26374e-17
-2.28865e-17
2.0311e-17
1.01566e-17
-1.17035e-16
5.78235e-17
1.08914e-16
8.89208e-18
-7.01847e-17
-1.16588e-16
-9.99255e-17
1.20737e-16
8.91651e-17
-3.91094e-17
9.78682e-17
8.89046e-17
8.35899e-17
-2.54251e-17
8.93597e-17
1.75034e-16
3.27898e-16
2.32118e-16
4.3819e-16
7.40214e-16
1.61735e-15
2.55906e-15
1.30063e-14
3.90618e-14
3.38994e-12
-1.02353e-11
6.78738e-12
-2.67321e-12
-3.72104e-12
6.25128e-12
9.66987e-14
3.22428e-14
6.51502e-15
3.59288e-15
2.09287e-15
1.34233e-15
1.17737e-15
-1.70177e-16
-1.30375e-16
1.77153e-16
1.33899e-16
1.74501e-16
9.51778e-17
-1.48438e-17
-5.63475e-17
-2.06137e-16
1.03665e-16
2.58183e-18
1.39e-16
-1.05181e-16
-1.25301e-16
1.56024e-16
2.28736e-16
1.52884e-16
8.35385e-17
2.5056e-16
7.23484e-17
1.81396e-16
1.17159e-16
-1.62866e-16
3.11477e-16
1.64212e-17
-1.10846e-16
-9.03123e-17
3.86225e-16
-1.3022e-16
1.57278e-16
-8.46872e-18
-1.51182e-16
8.84726e-17
1.2478e-16
3.24885e-16
-3.85394e-18
3.27417e-16
3.94153e-17
1.8781e-17
5.76561e-17
4.02402e-16
8.16964e-16
1.2907e-15
3.53002e-15
6.44362e-15
3.2434e-14
9.67466e-14
6.2511e-12
-3.72128e-12
-2.67406e-12
-1.55375e-11
1.08144e-11
4.57564e-12
9.82461e-14
3.41333e-14
7.02659e-15
4.02904e-15
1.2652e-15
8.53411e-16
3.08144e-17
5.85156e-16
7.05011e-16
1.25502e-17
2.02809e-16
-2.45695e-17
-4.48443e-17
-3.24178e-16
1.04331e-16
3.24377e-16
7.75572e-17
-9.77981e-17
-2.42454e-16
-1.09034e-17
4.87826e-16
-2.23715e-16
-1.37786e-16
-1.1014e-16
-2.67392e-16
-3.08506e-16
-9.01455e-17
-1.72359e-16
-2.86606e-17
7.32767e-17
-5.21418e-16
8.64489e-17
1.72933e-16
-1.02023e-16
-5.82332e-17
3.48274e-16
-3.97673e-17
6.47287e-17
9.9892e-17
9.50359e-17
-3.65208e-17
-6.36247e-18
1.53209e-16
-1.21123e-18
1.16889e-16
5.48069e-16
6.61841e-16
5.98272e-16
1.23557e-15
1.57727e-15
4.04901e-15
6.82967e-15
3.37314e-14
9.79204e-14
4.5757e-12
1.0814e-11
-1.55374e-11
-8.03824e-12
5.23045e-12
2.70243e-12
6.85163e-14
2.42611e-14
5.12036e-15
2.96824e-15
1.51158e-15
7.47463e-16
5.16439e-16
4.07865e-16
-2.96224e-17
5.504e-16
-2.05792e-16
2.98724e-16
7.25737e-18
6.63672e-17
2.27296e-16
4.34171e-17
-2.49436e-16
2.83595e-16
2.14186e-16
4.01978e-17
-8.06456e-16
1.69695e-16
1.39943e-16
8.89914e-17
-8.96852e-18
9.85841e-17
-2.73544e-16
7.9963e-17
-1.07381e-16
5.83932e-17
4.54947e-16
-2.94122e-16
5.65471e-17
1.73965e-16
-1.1424e-17
-3.29566e-17
5.50078e-18
2.135e-16
-1.95409e-16
-1.17564e-16
1.06119e-16
6.79789e-17
-2.37286e-17
5.03746e-17
1.33153e-16
-1.75686e-16
9.69449e-17
2.56859e-16
8.3836e-16
1.53442e-15
3.15706e-15
4.90116e-15
2.43316e-14
6.88748e-14
2.70265e-12
5.23061e-12
-8.03802e-12
-3.74372e-12
2.10463e-12
1.55942e-12
5.17267e-14
1.91529e-14
3.94351e-15
2.48684e-15
6.69524e-16
7.80529e-16
2.51886e-16
2.23322e-16
2.87693e-16
-7.62965e-17
3.75608e-16
2.05102e-16
3.41387e-16
-4.94803e-17
-1.1054e-16
-7.49059e-17
1.56981e-16
5.98327e-17
3.72275e-18
-4.67101e-17
4.45801e-16
-2.41295e-16
2.90078e-17
-7.22425e-17
4.77707e-17
7.50279e-17
4.35442e-16
2.12434e-16
1.69464e-16
2.44303e-16
-7.1945e-17
2.98943e-16
-2.91366e-17
-2.9195e-16
8.6554e-17
-1.97096e-16
-3.12902e-18
-2.05142e-16
1.31704e-16
-1.85734e-16
1.53701e-17
2.31685e-17
1.21548e-16
2.28758e-16
-2.6254e-17
4.95462e-16
2.71959e-16
3.06695e-16
5.15499e-16
9.20409e-16
2.58714e-15
4.26288e-15
1.90798e-14
5.19189e-14
1.559e-12
2.10504e-12
-3.74416e-12
-2.71188e-12
1.42729e-12
1.20195e-12
5.26584e-14
1.99284e-14
4.44269e-15
2.69229e-15
1.18781e-15
7.77826e-16
4.59046e-16
1.88118e-16
3.55054e-17
-1.25018e-16
-2.8746e-16
-4.12084e-16
-8.50403e-17
1.13642e-16
-1.43771e-17
-6.60424e-17
9.06977e-17
-6.43524e-17
-2.69604e-16
5.3835e-17
-1.10953e-16
4.14549e-16
-8.05568e-17
-1.13202e-17
-4.7697e-17
-1.80808e-16
-4.61638e-16
-1.49094e-16
-1.20367e-16
-3.40147e-16
-1.6427e-16
-4.8524e-17
-2.56956e-16
-1.70827e-16
-7.97557e-17
2.76379e-16
2.24056e-17
2.26458e-16
-1.27866e-16
3.67085e-16
-5.20521e-17
4.80923e-17
3.45907e-17
2.07832e-16
3.19009e-16
1.61846e-16
5.07099e-16
6.03983e-16
8.36125e-16
9.77758e-16
2.22393e-15
4.21e-15
2.01414e-14
5.26694e-14
1.20247e-12
1.42717e-12
-2.71159e-12
-2.7116e-12
1.40754e-12
1.19955e-12
6.58431e-14
2.51307e-14
5.45465e-15
3.15678e-15
1.3335e-15
6.95651e-16
4.56918e-16
3.75039e-16
2.28033e-16
1.51534e-16
2.75283e-16
4.53037e-16
4.9452e-16
1.39365e-16
6.35797e-17
-2.51256e-17
-1.25182e-16
1.4021e-17
3.8887e-16
2.03065e-16
-5.609e-17
-3.51052e-16
-5.52884e-17
2.81487e-16
-1.44375e-16
1.63067e-16
5.43068e-16
1.20169e-16
1.82906e-16
2.29696e-16
3.42062e-17
-2.96037e-16
4.54806e-16
9.89589e-17
2.94452e-16
-1.37329e-16
1.12435e-16
-1.70778e-16
1.98895e-16
2.43862e-16
9.54898e-17
1.17734e-16
6.37697e-18
-2.42119e-16
-3.19416e-16
1.13367e-17
3.48895e-16
4.42378e-16
9.32126e-16
1.4968e-15
3.67901e-15
5.518e-15
2.53063e-14
6.58041e-14
1.19961e-12
1.4075e-12
-2.71173e-12
-2.97352e-12
1.51938e-12
1.31702e-12
8.57589e-14
3.36525e-14
8.04333e-15
4.68915e-15
1.87269e-15
1.26307e-15
8.82018e-16
3.86692e-16
3.82313e-16
3.18975e-16
2.46216e-16
-4.26615e-17
-1.25684e-16
1.58333e-17
5.72956e-17
7.17858e-17
4.61322e-16
-2.39014e-16
-1.16109e-16
-4.24348e-17
1.4115e-16
2.70342e-16
6.67942e-17
-1.47877e-16
5.10157e-16
1.13797e-16
1.12156e-16
-1.91396e-17
-3.46973e-16
-5.3663e-17
1.41056e-16
2.11645e-16
-2.50263e-16
-1.08778e-17
-3.48665e-16
-6.34212e-17
1.33386e-16
4.27128e-16
-1.67263e-16
-3.33035e-16
-1.69415e-16
7.41818e-17
-1.36279e-16
7.78324e-16
6.78132e-16
4.38219e-16
3.98998e-16
7.47027e-16
1.11654e-15
1.9751e-15
4.48314e-15
8.1843e-15
3.3658e-14
8.59315e-14
1.31662e-12
1.51935e-12
-2.97379e-12
-3.29179e-12
1.64396e-12
1.46746e-12
1.11362e-13
4.41175e-14
1.04225e-14
5.89946e-15
2.48579e-15
1.72187e-15
7.3443e-16
6.80041e-16
5.34522e-16
4.74155e-16
2.14277e-16
1.45608e-16
3.013e-16
1.27732e-16
1.26949e-16
2.15916e-16
-4.98779e-16
3.655e-16
1.3655e-16
-2.26065e-16
-9.00023e-17
-1.02727e-16
1.54898e-16
2.67216e-16
-7.12387e-17
5.76799e-17
-1.09475e-16
9.14782e-18
2.27018e-16
2.02997e-16
-1.40295e-16
9.63911e-18
2.54734e-16
4.03785e-17
2.0488e-16
2.3204e-16
-6.19483e-17
-1.32151e-16
3.15916e-17
3.34721e-16
4.01178e-16
1.56707e-16
1.48719e-16
-3.66078e-16
1.59293e-16
1.47589e-16
7.13146e-16
7.12248e-16
2.02456e-15
2.70128e-15
6.011e-15
1.05596e-14
4.44133e-14
1.11166e-13
1.46751e-12
1.64427e-12
-3.29171e-12
-3.62308e-12
1.76708e-12
1.62514e-12
1.40934e-13
5.73853e-14
1.41849e-14
8.21431e-15
3.57217e-15
2.31819e-15
1.02273e-15
8.94766e-16
6.10731e-16
4.89322e-16
2.83929e-16
5.05838e-16
2.02507e-16
-1.47125e-16
1.30457e-16
5.00842e-18
4.06748e-16
-8.81215e-17
-2.49563e-17
1.07176e-18
-1.0945e-16
4.5311e-16
-4.49443e-18
3.23699e-17
-1.16043e-16
1.39691e-16
1.95899e-16
8.88574e-17
-1.41687e-16
1.38098e-16
1.73058e-16
-2.09996e-16
-2.29323e-16
7.20754e-17
-9.10765e-17
1.23212e-16
2.54322e-17
-7.92305e-17
3.90971e-16
2.12462e-16
-3.79183e-16
8.64947e-17
3.45986e-16
7.6157e-16
5.09715e-16
7.77238e-16
1.30803e-15
1.57277e-15
2.1349e-15
3.20951e-15
8.2956e-15
1.40976e-14
5.69811e-14
1.41054e-13
1.62539e-12
1.76685e-12
-3.62326e-12
-3.95886e-12
1.88677e-12
1.78351e-12
1.75123e-13
7.16894e-14
1.85505e-14
1.06059e-14
4.41897e-15
3.02021e-15
2.09236e-15
8.96746e-16
5.72669e-16
7.72884e-16
3.71797e-16
-1.21946e-16
1.474e-16
4.74124e-16
1.99368e-16
-1.24202e-16
1.79666e-17
1.1063e-16
1.94051e-16
3.03366e-16
2.43202e-16
-2.11588e-16
-1.14784e-16
-1.15058e-16
3.97472e-17
-1.17264e-16
1.1201e-16
-1.99068e-16
4.87216e-17
-1.12653e-16
8.56504e-17
4.24324e-16
2.8217e-16
-2.8638e-16
-4.85119e-17
1.46627e-16
2.1058e-16
9.83327e-17
8.86352e-17
1.55601e-16
8.00497e-16
3.60151e-16
1.57775e-16
2.53728e-16
3.47233e-16
7.34332e-16
8.9549e-16
1.70175e-15
3.11717e-15
4.84476e-15
1.03726e-14
1.84321e-14
7.17605e-14
1.75168e-13
1.78304e-12
1.88647e-12
-3.95868e-12
-4.29664e-12
2.00061e-12
1.93973e-12
2.13379e-13
8.87316e-14
2.30123e-14
1.32095e-14
5.82265e-15
3.88658e-15
1.87154e-15
1.3757e-15
1.00754e-15
3.59631e-16
5.59099e-16
5.64453e-16
5.98253e-16
-5.41291e-18
2.05644e-16
4.56746e-16
-2.22224e-17
-1.25866e-16
-2.4813e-16
1.75421e-16
-2.23689e-17
1.00321e-16
3.39742e-16
2.55911e-16
5.98139e-17
-1.73043e-16
-8.72651e-17
4.89503e-16
-1.86221e-16
1.20676e-16
-3.17129e-16
9.38079e-17
-1.46662e-16
1.51701e-16
2.08518e-16
-7.95562e-17
4.28392e-16
1.72954e-16
-3.23835e-16
2.12733e-16
-9.35142e-17
1.20285e-17
3.64369e-16
1.65292e-16
3.40899e-16
8.54629e-16
1.79107e-15
2.07914e-15
3.88553e-15
5.68408e-15
1.34741e-14
2.30895e-14
8.88602e-14
2.13356e-13
1.94023e-12
2.00092e-12
-4.29645e-12
-4.63313e-12
2.1072e-12
2.09526e-12
2.55569e-13
1.08308e-13
2.92835e-14
1.69165e-14
7.68101e-15
4.83336e-15
2.6074e-15
2.35363e-15
1.3691e-15
1.17582e-15
4.90754e-16
5.60661e-16
3.78307e-16
2.53823e-16
4.18398e-16
-9.36674e-17
1.01214e-16
2.41733e-16
4.74459e-16
3.04052e-17
1.26128e-16
-2.00485e-16
-9.44196e-17
1.2226e-16
1.11937e-16
4.79263e-16
1.21495e-16
-2.45909e-16
3.95187e-16
-2.3207e-16
3.27104e-16
8.94388e-17
4.05206e-16
3.09406e-16
-3.17756e-17
1.42851e-16
-1.69472e-16
2.95822e-17
4.644e-16
2.38999e-16
2.07165e-16
3.66387e-16
5.5837e-16
7.60292e-16
1.34004e-15
1.47999e-15
1.638e-15
2.65495e-15
4.63787e-15
7.26234e-15
1.62968e-14
2.94267e-14
1.07881e-13
2.5512e-13
2.09522e-12
2.1071e-12
-4.63368e-12
-4.96761e-12
2.20597e-12
2.24675e-12
3.02032e-13
1.29574e-13
3.60038e-14
2.00556e-14
8.73029e-15
5.86854e-15
3.43989e-15
2.35179e-15
1.46468e-15
1.20553e-15
6.49874e-16
8.02498e-16
-4.71862e-17
5.89077e-17
4.88093e-17
5.60666e-16
1.98869e-16
-1.42477e-16
5.36272e-17
-2.23847e-16
2.88248e-16
5.1806e-16
9.07981e-17
-3.19659e-16
-1.90759e-16
-2.14124e-16
-3.82666e-17
8.20073e-17
-3.17518e-16
3.36415e-16
-2.64531e-16
5.72416e-17
-3.57745e-16
-1.60309e-16
-6.10721e-17
2.90849e-16
4.74181e-16
5.47221e-16
2.18781e-19
4.15731e-16
5.89442e-16
9.31417e-16
8.50957e-16
9.20598e-16
1.06875e-15
1.24557e-15
2.44402e-15
3.3851e-15
6.05047e-15
9.42795e-15
2.07244e-14
3.5692e-14
1.29445e-13
3.02447e-13
2.24626e-12
2.20581e-12
-4.96759e-12
-5.29905e-12
2.29503e-12
2.39531e-12
3.53028e-13
1.53615e-13
4.39289e-14
2.55436e-14
1.13462e-14
7.26908e-15
4.25156e-15
2.69364e-15
1.95178e-15
1.208e-15
1.26672e-15
7.72166e-16
9.37239e-16
6.84508e-16
4.67265e-16
3.2764e-16
3.17951e-16
8.26268e-17
2.91068e-16
2.32866e-16
1.95422e-16
-1.73933e-16
-1.93668e-16
2.96045e-16
2.92933e-16
7.48947e-17
-2.86041e-16
9.40555e-17
2.92921e-17
-3.46994e-17
2.14379e-16
2.34089e-16
3.28471e-16
2.18452e-16
2.13032e-17
-1.08701e-16
-2.44998e-16
8.59431e-17
2.52798e-16
-4.03844e-17
2.61596e-16
3.97644e-16
4.17021e-16
9.27307e-16
1.02861e-15
1.69851e-15
2.7525e-15
4.21661e-15
7.2964e-15
1.08367e-14
2.45486e-14
4.41329e-14
1.54319e-13
3.53171e-13
2.39587e-12
2.29483e-12
-5.29896e-12
-5.6251e-12
2.37468e-12
2.53887e-12
4.08038e-13
1.80801e-13
5.26358e-14
2.93262e-14
1.33502e-14
8.7784e-15
4.82217e-15
3.40619e-15
2.12054e-15
1.74964e-15
9.60143e-16
7.37233e-16
6.61081e-16
5.3408e-16
2.48979e-16
7.96956e-18
1.68738e-16
6.5817e-16
2.54339e-16
2.04552e-17
-3.33104e-17
3.2421e-16
4.38979e-16
-1.79901e-17
1.63242e-16
-1.04503e-16
5.19765e-16
-5.76567e-17
7.61705e-17
1.20817e-16
-1.93454e-16
-3.10882e-16
-1.95733e-16
5.67421e-17
4.74574e-16
8.12338e-16
5.82919e-16
1.88318e-16
1.48575e-16
7.85758e-16
5.33456e-16
7.14176e-16
1.04242e-15
1.28932e-15
2.0067e-15
2.46637e-15
3.5588e-15
4.97845e-15
8.81549e-15
1.34279e-14
3.03635e-14
5.25327e-14
1.80292e-13
4.07779e-13
2.53894e-12
2.37512e-12
-5.62524e-12
-5.94634e-12
2.44428e-12
2.67809e-12
4.6741e-13
2.09829e-13
6.31873e-14
3.6073e-14
1.62431e-14
1.06728e-14
6.21784e-15
4.27174e-15
2.81092e-15
2.03364e-15
1.3626e-15
1.01353e-15
9.41584e-16
6.98834e-16
8.17127e-16
6.26614e-16
1.69674e-16
-7.63869e-17
2.05649e-16
2.10043e-16
3.72167e-16
-4.03692e-16
-1.44491e-16
-4.72238e-17
-3.41961e-18
2.95342e-16
1.85861e-16
3.88589e-16
3.15881e-17
6.51071e-17
6.06994e-16
3.71666e-16
3.71653e-16
3.72434e-16
1.78995e-16
-2.59822e-16
3.79789e-17
2.44581e-16
5.94532e-16
1.42734e-16
6.7712e-16
8.22227e-16
1.04069e-15
1.34399e-15
1.82495e-15
2.45741e-15
4.11816e-15
5.88287e-15
1.053e-14
1.6523e-14
3.5536e-14
6.32581e-14
2.09675e-13
4.67563e-13
2.67786e-12
2.44392e-12
-5.94625e-12
-6.25965e-12
2.50181e-12
2.81079e-12
5.30193e-13
2.42204e-13
7.47242e-14
4.23458e-14
1.9447e-14
1.24363e-14
6.83969e-15
5.13354e-15
3.08686e-15
2.33954e-15
1.82429e-15
1.34493e-15
7.08053e-16
6.72329e-16
4.93102e-16
3.79295e-16
5.06844e-16
1.23183e-16
1.78476e-17
-1.70152e-17
-1.54365e-16
7.05725e-16
4.26724e-16
3.98e-16
-1.88931e-17
2.83588e-17
3.23919e-17
-7.14141e-17
3.47451e-16
-1.08155e-16
-4.03823e-16
3.41271e-16
1.46352e-18
5.2185e-18
2.78854e-16
4.20282e-16
5.06793e-16
1.2009e-16
2.0364e-16
5.25483e-16
7.25557e-16
7.75522e-16
1.32827e-15
1.58598e-15
2.44502e-15
3.56113e-15
5.04029e-15
7.13313e-15
1.23764e-14
1.93048e-14
4.22646e-14
7.44918e-14
2.42281e-13
5.30275e-13
2.81099e-12
2.50189e-12
-6.2599e-12
-6.56536e-12
2.54854e-12
2.93707e-12
5.97309e-13
2.76643e-13
8.77414e-14
4.9767e-14
2.29383e-14
1.50457e-14
8.59669e-15
5.95864e-15
4.04967e-15
2.76615e-15
1.99064e-15
1.62578e-15
1.57027e-15
7.15524e-16
7.53132e-16
4.18624e-16
6.05973e-16
6.40917e-16
4.45782e-16
5.10534e-16
3.33936e-16
-5.17758e-17
-3.13425e-17
7.21612e-17
5.33274e-16
3.44311e-16
1.45999e-17
2.81804e-16
-5.95814e-17
4.89533e-16
3.34389e-16
-1.89224e-16
3.07435e-16
4.48843e-16
1.91398e-16
2.13142e-16
6.62419e-17
7.20468e-16
6.89707e-16
8.35142e-16
1.32597e-15
1.7188e-15
1.58066e-15
1.97972e-15
2.43391e-15
3.54813e-15
5.86987e-15
8.63072e-15
1.51377e-14
2.28159e-14
4.98024e-14
8.79856e-14
2.7664e-13
5.97147e-13
2.93705e-12
2.54842e-12
-6.5655e-12
-6.86216e-12
2.58226e-12
3.0558e-12
6.68052e-13
3.14823e-13
1.02088e-13
5.79171e-14
2.74362e-14
1.73556e-14
1.00388e-14
7.35049e-15
4.5259e-15
3.49985e-15
2.1368e-15
1.52922e-15
8.79387e-16
1.11064e-15
9.81376e-16
8.8835e-16
3.53894e-16
6.17466e-17
5.58093e-16
1.44215e-16
3.26684e-16
-1.13532e-16
5.28194e-16
2.15368e-16
-2.35672e-16
-2.36094e-17
-1.64594e-16
-4.95337e-17
4.03775e-16
-1.70191e-16
3.71241e-16
4.71396e-16
1.91815e-16
2.34552e-16
4.27465e-16
3.70267e-16
5.74389e-16
4.7221e-16
6.46248e-16
7.62613e-16
3.94965e-16
9.20395e-16
1.9007e-15
2.19705e-15
4.14011e-15
4.74207e-15
6.87349e-15
1.00063e-14
1.77076e-14
2.72643e-14
5.80575e-14
1.02391e-13
3.14589e-13
6.67993e-13
3.05578e-12
2.58276e-12
-6.86182e-12
-7.14745e-12
2.60427e-12
3.16609e-12
7.41614e-13
3.55039e-13
1.1853e-13
6.77691e-14
3.11111e-14
2.07417e-14
1.1946e-14
8.00231e-15
5.31693e-15
3.9112e-15
2.88264e-15
2.32641e-15
1.907e-15
1.33841e-15
8.00299e-16
6.88804e-16
2.83577e-16
5.30643e-16
-4.27448e-17
6.06919e-16
9.94037e-18
6.61147e-16
-3.50195e-16
2.00876e-16
2.42829e-16
-1.60984e-16
3.30922e-16
4.87043e-16
-1.44977e-16
4.60068e-16
3.07041e-17
6.24731e-17
7.89624e-17
1.54817e-16
1.96814e-16
5.47907e-16
4.79026e-16
6.79189e-16
8.57969e-16
7.6775e-16
1.67201e-15
1.52269e-15
1.97737e-15
3.03478e-15
3.48001e-15
5.37563e-15
8.28468e-15
1.19264e-14
2.03656e-14
3.18705e-14
6.73025e-14
1.1828e-13
3.55113e-13
7.4193e-13
3.16641e-12
2.60398e-12
-7.14731e-12
-7.42184e-12
2.61176e-12
3.26803e-12
8.19307e-13
3.98545e-13
1.36916e-13
7.71836e-14
3.73269e-14
2.36362e-14
1.35864e-14
9.61756e-15
6.43329e-15
5.15787e-15
3.49747e-15
2.50865e-15
1.73485e-15
1.62475e-15
1.05707e-15
4.12975e-16
1.08657e-15
8.44049e-16
9.06374e-16
5.57695e-17
5.28231e-16
-7.31651e-17
7.59345e-16
4.67386e-16
2.07515e-16
6.96967e-16
1.15626e-16
-1.62481e-16
1.2981e-16
1.03365e-18
5.16397e-17
2.84454e-16
5.09392e-16
6.46569e-16
1.40245e-16
5.0738e-16
7.77339e-16
6.13315e-16
7.60157e-16
1.07818e-15
1.38371e-15
2.29023e-15
2.87139e-15
3.16024e-15
4.88393e-15
6.28146e-15
1.00397e-14
1.38448e-14
2.38491e-14
3.69931e-14
7.76855e-14
1.36918e-13
3.98184e-13
8.18961e-13
3.26762e-12
2.61213e-12
-7.42202e-12
-7.68346e-12
2.60713e-12
3.35914e-12
8.98749e-13
4.4465e-13
1.56463e-13
8.94656e-14
4.27593e-14
2.78545e-14
1.60367e-14
1.13051e-14
7.23787e-15
4.55554e-15
3.50062e-15
2.98823e-15
2.26808e-15
1.57802e-15
1.41942e-15
1.55639e-15
7.19335e-16
6.82853e-16
2.62109e-16
8.19184e-16
2.9395e-16
3.22295e-16
1.9099e-16
-2.06351e-16
1.06151e-16
1.02822e-16
1.36734e-16
5.54616e-16
3.13648e-16
2.8775e-16
4.74259e-16
3.61538e-16
2.03776e-16
1.58177e-16
9.08491e-16
2.71159e-16
3.58748e-16
1.05125e-15
1.48224e-15
1.5983e-15
1.69146e-15
1.90956e-15
2.64793e-15
4.01993e-15
5.00189e-15
7.30445e-15
1.09956e-14
1.61573e-14
2.77278e-14
4.26277e-14
8.92486e-14
1.56305e-13
4.44853e-13
8.98784e-13
3.35961e-12
2.60654e-12
-7.68346e-12
-7.93053e-12
2.58799e-12
3.44106e-12
9.8076e-13
4.93345e-13
1.7808e-13
1.01788e-13
4.90592e-14
3.16491e-14
1.8634e-14
1.32718e-14
8.3622e-15
6.96158e-15
4.39696e-15
3.35753e-15
2.50145e-15
2.24213e-15
1.95485e-15
1.00699e-15
1.11163e-15
8.61719e-16
8.65039e-16
4.50701e-16
5.66288e-16
5.94082e-16
2.47215e-16
6.98608e-16
3.70177e-16
3.70857e-16
3.44904e-16
-2.76348e-17
6.43686e-16
4.79959e-16
1.11964e-16
4.10125e-16
2.35982e-16
4.4054e-16
2.87614e-16
7.15399e-16
1.33891e-15
8.99306e-16
7.27114e-16
1.20927e-15
2.06969e-15
2.28836e-15
3.65876e-15
4.19672e-15
6.72435e-15
8.33854e-15
1.27902e-14
1.82237e-14
3.20161e-14
4.9507e-14
1.01625e-13
1.78371e-13
4.93169e-13
9.80621e-13
3.44102e-12
2.58837e-12
-7.93068e-12
-8.16379e-12
2.55503e-12
3.51141e-12
1.06447e-12
5.44962e-13
2.01922e-13
1.15674e-13
5.70833e-14
3.66062e-14
2.11755e-14
1.48572e-14
1.00436e-14
6.81795e-15
5.00325e-15
4.04507e-15
2.75309e-15
2.31759e-15
1.33805e-15
1.26825e-15
6.3622e-16
8.794e-16
5.77757e-16
5.77659e-16
3.36925e-16
2.92043e-16
7.23992e-16
2.68679e-16
3.19721e-16
2.30014e-16
3.3935e-16
6.11295e-16
1.01831e-16
1.18449e-16
4.98544e-16
3.89737e-16
4.57866e-16
6.02677e-16
7.6767e-16
8.50454e-16
5.11311e-16
9.78745e-16
2.0545e-15
1.95987e-15
1.9369e-15
3.20682e-15
3.78748e-15
5.04539e-15
6.80182e-15
9.58837e-15
1.53326e-14
2.14339e-14
3.60734e-14
5.68711e-14
1.1629e-13
2.01715e-13
5.45022e-13
1.06466e-12
3.51078e-12
2.55509e-12
-8.16369e-12
-8.38088e-12
2.50864e-12
3.56911e-12
1.15038e-12
5.99021e-13
2.28099e-13
1.31041e-13
6.47469e-14
4.1765e-14
2.46303e-14
1.7034e-14
1.12913e-14
8.12797e-15
6.23063e-15
4.53267e-15
3.21057e-15
2.16099e-15
2.35786e-15
1.53301e-15
1.64938e-15
1.4793e-15
9.80554e-16
6.98684e-16
6.24745e-16
4.06648e-16
3.35636e-16
3.08945e-16
5.50072e-16
3.56858e-16
3.87265e-17
9.7814e-17
2.11255e-16
2.8883e-16
4.44912e-16
2.88756e-17
6.59213e-16
8.51111e-16
7.15441e-16
9.53915e-16
1.18475e-15
1.54929e-15
1.18836e-15
1.96604e-15
2.76109e-15
3.54525e-15
4.41537e-15
6.0594e-15
8.92927e-15
1.19877e-14
1.69224e-14
2.47988e-14
4.21391e-14
6.45519e-14
1.30578e-13
2.28188e-13
5.99009e-13
1.15048e-12
3.56967e-12
2.50828e-12
-8.38084e-12
-8.58131e-12
2.44694e-12
3.61565e-12
1.2361e-12
6.55277e-13
2.55684e-13
1.47863e-13
7.38025e-14
4.76863e-14
2.81563e-14
2.00073e-14
1.24348e-14
9.88035e-15
6.57087e-15
5.31767e-15
4.06798e-15
3.6346e-15
2.04859e-15
1.8393e-15
1.48803e-15
5.64532e-16
8.40788e-16
1.05149e-15
7.06595e-16
7.66335e-16
4.50337e-16
5.51211e-16
3.99805e-16
1.87472e-16
3.2993e-16
3.69022e-16
8.69463e-16
3.4055e-16
2.01695e-16
1.19289e-15
8.75107e-16
7.34399e-16
7.68441e-16
8.08712e-16
1.17956e-15
1.18793e-15
1.85368e-15
2.37306e-15
3.17615e-15
3.59383e-15
5.37391e-15
6.68269e-15
9.32039e-15
1.24356e-14
2.00207e-14
2.80623e-14
4.74487e-14
7.37174e-14
1.47887e-13
2.55248e-13
6.55233e-13
1.23638e-12
3.61566e-12
2.44741e-12
-8.58116e-12
-8.76327e-12
2.37281e-12
3.64923e-12
1.32318e-12
7.13743e-13
2.8593e-13
1.65566e-13
8.33867e-14
5.38286e-14
3.23687e-14
2.22005e-14
1.52156e-14
1.12277e-14
7.75164e-15
5.8624e-15
4.4682e-15
3.24411e-15
2.84035e-15
2.26967e-15
1.44599e-15
1.73836e-15
1.20131e-15
7.24765e-16
7.00486e-16
2.85529e-16
6.35304e-16
4.4247e-16
5.71065e-16
6.29698e-16
4.3657e-16
4.50831e-16
2.33498e-16
6.45632e-16
5.91133e-16
4.05757e-16
2.92802e-16
5.45372e-16
1.02128e-15
1.24956e-15
1.61017e-15
1.85281e-15
2.41455e-15
2.49818e-15
3.60881e-15
4.51336e-15
5.87682e-15
7.84064e-15
1.06824e-14
1.49357e-14
2.19716e-14
3.20047e-14
5.37885e-14
8.41748e-14
1.65319e-13
2.86662e-13
7.13502e-13
1.32246e-12
3.64912e-12
2.37237e-12
-8.76402e-12
-8.92914e-12
2.28458e-12
3.66919e-12
1.40892e-12
7.73918e-13
3.18416e-13
1.85852e-13
9.50462e-14
6.1113e-14
3.64437e-14
2.55127e-14
1.65175e-14
1.206e-14
8.56338e-15
6.52443e-15
4.70848e-15
4.12596e-15
3.24607e-15
2.73128e-15
2.02366e-15
1.51184e-15
1.50131e-15
1.09519e-15
1.17889e-15
1.20289e-15
6.54712e-16
8.39117e-16
1.80921e-16
2.19849e-16
4.44867e-16
5.30959e-16
3.68605e-16
2.48657e-16
7.6624e-16
5.60651e-16
9.83007e-16
1.23171e-15
1.17688e-15
1.49399e-15
1.25492e-15
2.00043e-15
2.19168e-15
3.00589e-15
3.90195e-15
4.84807e-15
6.73209e-15
8.67109e-15
1.26083e-14
1.67613e-14
2.60389e-14
3.6823e-14
6.12834e-14
9.45521e-14
1.85994e-13
3.18335e-13
7.74421e-13
1.4093e-12
3.66935e-12
2.28458e-12
-8.92837e-12
-9.07396e-12
2.18201e-12
3.67636e-12
1.49413e-12
8.36044e-13
3.52616e-13
2.06436e-13
1.06613e-13
6.91766e-14
4.12601e-14
2.88735e-14
1.99166e-14
1.41934e-14
1.04331e-14
7.85772e-15
6.06307e-15
4.40349e-15
3.58095e-15
2.70217e-15
3.04511e-15
1.71105e-15
1.51552e-15
1.41392e-15
1.08253e-15
9.93977e-16
1.05761e-15
7.27125e-17
9.98766e-16
8.23168e-16
6.63387e-16
3.47339e-16
6.72298e-16
7.31927e-16
5.80754e-16
7.05276e-16
5.19914e-16
8.35877e-16
8.94678e-16
1.39563e-15
2.10798e-15
2.42709e-15
3.00577e-15
3.73458e-15
4.67718e-15
5.95815e-15
7.49928e-15
1.01875e-14
1.40343e-14
1.92645e-14
2.82158e-14
4.14326e-14
6.9114e-14
1.06453e-13
2.06801e-13
3.52555e-13
8.35823e-13
1.49415e-12
3.67648e-12
2.18258e-12
-9.07426e-12
-9.20058e-12
2.0683e-12
3.66861e-12
1.57736e-12
8.99467e-13
3.89872e-13
2.29776e-13
1.19849e-13
7.73912e-14
4.6888e-14
3.2598e-14
2.12481e-14
1.63156e-14
1.10508e-14
8.81084e-15
6.64028e-15
5.30682e-15
3.42029e-15
3.184e-15
1.9688e-15
2.55449e-15
1.53083e-15
1.41124e-15
9.6112e-16
8.40558e-16
4.64937e-16
1.25034e-15
3.12619e-16
2.33011e-16
4.06131e-16
8.2984e-16
1.05141e-15
5.73587e-16
8.26066e-16
1.01775e-15
1.48008e-15
1.20049e-15
1.8746e-15
1.51284e-15
2.08218e-15
2.37112e-15
3.25064e-15
3.76986e-15
4.95028e-15
6.57611e-15
8.92631e-15
1.14603e-14
1.65819e-14
2.19497e-14
3.31334e-14
4.69542e-14
7.73359e-14
1.2025e-13
2.29245e-13
3.89663e-13
8.99502e-13
1.5776e-12
3.66832e-12
2.06827e-12
-9.20081e-12
-9.30716e-12
1.94107e-12
3.64763e-12
1.6588e-12
9.63776e-13
4.28006e-13
2.53865e-13
1.33973e-13
8.68338e-14
5.34019e-14
3.69919e-14
2.48791e-14
1.79642e-14
1.32125e-14
1.00399e-14
6.95184e-15
5.59732e-15
4.9376e-15
4.14735e-15
2.8367e-15
2.02993e-15
2.01869e-15
1.53295e-15
1.3125e-15
8.07543e-16
1.1261e-15
6.12024e-16
1.17808e-15
1.2973e-15
9.67641e-16
6.74312e-16
1.04771e-16
1.01979e-15
9.06118e-16
9.89008e-16
9.0169e-16
1.29822e-15
1.44916e-15
1.86669e-15
2.26755e-15
2.96504e-15
3.58603e-15
4.40164e-15
5.81266e-15
7.11414e-15
1.00359e-14
1.2852e-14
1.76441e-14
2.45814e-14
3.68927e-14
5.25607e-14
8.704e-14
1.33772e-13
2.5406e-13
4.28225e-13
9.63707e-13
1.65851e-12
3.64802e-12
1.94081e-12
-9.30676e-12
-9.39315e-12
1.80223e-12
3.61294e-12
1.73687e-12
1.029e-12
4.69884e-13
2.80225e-13
1.49821e-13
9.74203e-14
5.89623e-14
4.14365e-14
2.77758e-14
2.06789e-14
1.45978e-14
1.11774e-14
8.79403e-15
6.76788e-15
5.16129e-15
3.42133e-15
3.16141e-15
2.93076e-15
2.16348e-15
1.91908e-15
1.56036e-15
1.92442e-15
1.14179e-15
1.16199e-15
1.05114e-15
4.65696e-16
5.42395e-16
9.31154e-16
8.897e-16
5.9333e-16
1.13262e-15
1.32171e-15
1.13994e-15
1.09014e-15
1.75044e-15
2.25244e-15
2.86356e-15
3.5472e-15
4.19515e-15
5.72125e-15
6.98493e-15
8.84589e-15
1.11863e-14
1.49457e-14
2.08615e-14
2.77187e-14
4.13859e-14
5.9915e-14
9.71399e-14
1.49895e-13
2.80552e-13
4.69732e-13
1.02865e-12
1.7369e-12
3.61227e-12
1.80203e-12
-9.39355e-12
-9.45965e-12
1.65219e-12
3.56281e-12
1.81089e-12
1.09406e-12
5.11876e-13
3.08426e-13
1.66353e-13
1.08694e-13
6.64427e-14
4.66624e-14
3.16613e-14
2.29926e-14
1.70765e-14
1.25501e-14
9.6679e-15
7.55491e-15
5.8614e-15
4.95391e-15
4.10756e-15
2.9958e-15
2.7262e-15
2.13904e-15
1.57379e-15
1.07517e-15
1.35753e-15
9.40426e-16
4.60753e-16
1.07925e-15
6.223e-16
7.05368e-16
1.39898e-15
8.41883e-16
9.19771e-16
8.88435e-16
1.56811e-15
2.40929e-15
2.07292e-15
2.54728e-15
2.9136e-15
3.40322e-15
4.50622e-15
5.26148e-15
7.32075e-15
9.03472e-15
1.25039e-14
1.58987e-14
2.30874e-14
3.12318e-14
4.64892e-14
6.60719e-14
1.09031e-13
1.66317e-13
3.07614e-13
5.11754e-13
1.09445e-12
1.81051e-12
3.56266e-12
1.65284e-12
-9.45889e-12
-9.5042e-12
1.49227e-12
3.4994e-12
1.88001e-12
1.15892e-12
5.57491e-13
3.36911e-13
1.84697e-13
1.19602e-13
7.46555e-14
5.20822e-14
3.48733e-14
2.57365e-14
1.78521e-14
1.43219e-14
1.0405e-14
8.35537e-15
6.53343e-15
5.67192e-15
4.16468e-15
3.50176e-15
2.76641e-15
2.18932e-15
1.84012e-15
1.39173e-15
1.13444e-15
1.29125e-15
1.49872e-15
9.77915e-16
1.32501e-15
1.08675e-15
2.20242e-16
1.40893e-15
1.09786e-15
1.53958e-15
2.0593e-15
1.19825e-15
2.50496e-15
2.87357e-15
3.86608e-15
4.3613e-15
5.23237e-15
6.51349e-15
8.30096e-15
1.09435e-14
1.46768e-14
1.90521e-14
2.54206e-14
3.54006e-14
5.21379e-14
7.44329e-14
1.19849e-13
1.84556e-13
3.37668e-13
5.57302e-13
1.15886e-12
1.8807e-12
3.49975e-12
1.49202e-12
-9.50553e-12
-9.53057e-12
1.32362e-12
3.42199e-12
1.94542e-12
1.22356e-12
6.03191e-13
3.68784e-13
2.04197e-13
1.34333e-13
8.34358e-14
5.79366e-14
3.89528e-14
2.90059e-14
2.1688e-14
1.64546e-14
1.21622e-14
9.3809e-15
7.30768e-15
5.60263e-15
4.6702e-15
3.8299e-15
3.065e-15
2.845e-15
2.68246e-15
2.3549e-15
1.6112e-15
1.30522e-15
1.4491e-15
1.06915e-15
1.36569e-15
1.41213e-15
1.77472e-15
1.37757e-15
1.56992e-15
1.7342e-15
1.62097e-15
2.69753e-15
2.77199e-15
2.83877e-15
3.59188e-15
4.8499e-15
6.02478e-15
7.87787e-15
9.70134e-15
1.19774e-14
1.59865e-14
2.0946e-14
2.95053e-14
3.94514e-14
5.7971e-14
8.34389e-14
1.33787e-13
2.04772e-13
3.68788e-13
6.03722e-13
1.22391e-12
1.9443e-12
3.42231e-12
1.32334e-12
-9.52954e-12
-9.53435e-12
1.14554e-12
3.33135e-12
2.00256e-12
1.28648e-12
6.50993e-13
4.01675e-13
2.24704e-13
1.47577e-13
9.25707e-14
6.5269e-14
4.49759e-14
3.2707e-14
2.29676e-14
1.74471e-14
1.34216e-14
1.10201e-14
8.58728e-15
6.84217e-15
5.57551e-15
4.54229e-15
3.43333e-15
2.49796e-15
1.88494e-15
1.44534e-15
1.94883e-15
1.75124e-15
1.32855e-15
1.23601e-15
1.07576e-15
6.30327e-16
7.76048e-16
9.13402e-16
1.5854e-15
1.95385e-15
1.92111e-15
2.20478e-15
2.51398e-15
3.84092e-15
4.05319e-15
5.22753e-15
7.07758e-15
8.06333e-15
1.10607e-14
1.37833e-14
1.76438e-14
2.34705e-14
3.25166e-14
4.3931e-14
6.51597e-14
9.27676e-14
1.48017e-13
2.25032e-13
4.01771e-13
6.51124e-13
1.28564e-12
2.00303e-12
3.33114e-12
1.14547e-12
-9.53472e-12
-9.52059e-12
9.6106e-13
3.22817e-12
2.05427e-12
1.34727e-12
7.01318e-13
4.35529e-13
2.47953e-13
1.63571e-13
1.02756e-13
7.16878e-14
4.89063e-14
3.6243e-14
2.67162e-14
2.04293e-14
1.54954e-14
1.1485e-14
9.1318e-15
7.16034e-15
5.47235e-15
4.64316e-15
3.89252e-15
3.51381e-15
3.15314e-15
2.97599e-15
2.10987e-15
1.37458e-15
1.05383e-15
1.47968e-15
1.35621e-15
2.13634e-15
2.02281e-15
1.59472e-15
1.7662e-15
1.53026e-15
2.63545e-15
2.98042e-15
3.88884e-15
3.65509e-15
5.32189e-15
6.08458e-15
6.90781e-15
9.26035e-15
1.16427e-14
1.50917e-14
2.04055e-14
2.59049e-14
3.61087e-14
4.92787e-14
7.20041e-14
1.02689e-13
1.62621e-13
2.47448e-13
4.35115e-13
7.00643e-13
1.34787e-12
2.05466e-12
3.22779e-12
9.60827e-13
-9.52097e-12
-9.48572e-12
7.69675e-13
3.11044e-12
2.09872e-12
1.40717e-12
7.51093e-13
4.71257e-13
2.71533e-13
1.79163e-13
1.1415e-13
8.04858e-14
5.51564e-14
4.04338e-14
2.93209e-14
2.25083e-14
1.65354e-14
1.39306e-14
1.02973e-14
8.75471e-15
7.49309e-15
5.45624e-15
4.59791e-15
4.24754e-15
2.97156e-15
2.01548e-15
1.76257e-15
2.42326e-15
2.12176e-15
2.16713e-15
1.39131e-15
8.46504e-16
1.36528e-15
2.07758e-15
1.56693e-15
2.79178e-15
2.24709e-15
2.82617e-15
3.36235e-15
4.64461e-15
5.02438e-15
6.43969e-15
9.19582e-15
1.05116e-14
1.3296e-14
1.71034e-14
2.21039e-14
2.9603e-14
4.08535e-14
5.46985e-14
8.02518e-14
1.13581e-13
1.79965e-13
2.71735e-13
4.71554e-13
7.51093e-13
1.40691e-12
2.09861e-12
3.11129e-12
7.69828e-13
-9.48504e-12
-9.43202e-12
5.73513e-13
2.98357e-12
2.13506e-12
1.46335e-12
8.01737e-13
5.08356e-13
2.96436e-13
1.97038e-13
1.25414e-13
8.83793e-14
6.04892e-14
4.5586e-14
3.25273e-14
2.51225e-14
1.93122e-14
1.48664e-14
1.21924e-14
9.69779e-15
6.6697e-15
6.04346e-15
4.69241e-15
3.58817e-15
3.3295e-15
2.99309e-15
2.94396e-15
2.2574e-15
1.8796e-15
7.61787e-16
1.979e-15
2.27532e-15
1.73583e-15
2.1118e-15
2.63502e-15
2.40826e-15
3.38497e-15
3.92886e-15
3.89577e-15
5.18153e-15
6.64342e-15
8.38365e-15
9.11044e-15
1.18231e-14
1.50445e-14
1.906e-14
2.51019e-14
3.31274e-14
4.47727e-14
6.13089e-14
8.79598e-14
1.26318e-13
1.96941e-13
2.95805e-13
5.08494e-13
8.02328e-13
1.46368e-12
2.13466e-12
2.98289e-12
5.73966e-13
-9.433e-12
-9.36096e-12
3.74775e-13
2.84356e-12
2.16184e-12
1.5158e-12
8.53885e-13
5.47126e-13
3.22905e-13
2.16045e-13
1.39152e-13
9.80808e-14
6.75027e-14
4.91605e-14
3.67571e-14
2.7943e-14
2.13775e-14
1.63467e-14
1.29317e-14
1.01581e-14
8.99739e-15
7.38349e-15
6.19268e-15
5.21191e-15
3.98986e-15
3.78041e-15