/*--------------------------------*- C++ -*----------------------------------*\
| =========                 |                                                 |
| \\      /  F ield         | foam-extend: Open Source CFD                    |
|  \\    /   O peration     | Version:     4.0                                |
|   \\  /    A nd           | Web:         http://www.foam-extend.org         |
|    \\/     M anipulation  |                                                 |
\*---------------------------------------------------------------------------*/
FoamFile
{
    version     2.0;
    format      ascii;
    class       volScalarField;
    location    "21";
    object      dPhi;
}
// * * * * * * * * * * * * * * * * * * * * * * * * * * * * * * * * * * * * * //

dimensions      [0 -1 0 0 0 0 0];

internalField   nonuniform List<scalar> 
6960
(
6.92664e-16
1.0243e-15
1.02573e-15
-4.13261e-16
1.27525e-16
-1.91217e-16
-5.24284e-16
-6.49632e-16
-1.19042e-15
-8.01948e-17
-9.45202e-17
-1.0794e-15
-8.57351e-16
-3.16564e-16
-9.68372e-16
-1.07939e-15
1.27525e-16
2.52873e-16
-1.91216e-16
1.57082e-15
-1.41246e-15
-6.35306e-16
-3.16563e-16
-9.68372e-16
3.63895e-16
4.60592e-16
5.8594e-16
3.08279e-17
-3.16564e-16
-1.30144e-15
-1.03642e-15
-1.80471e-16
1.84825e-16
7.39937e-16
-2.91493e-16
1.85016e-15
-9.25398e-16
1.52596e-16
-8.14376e-16
-2.59264e-16
-1.80471e-16
-1.03642e-15
-9.25399e-16
-8.46605e-16
-3.70287e-16
-9.25398e-16
4.15737e-17
7.38024e-17
6.28914e-16
-1.06865e-15
-1.25847e-15
-7.03354e-16
9.29752e-16
-3.72198e-17
-1.25847e-15
4.15738e-17
5.17892e-16
-1.48242e-16
4.15738e-17
1.51709e-15
7.48613e-16
3.0148e-16
-3.06098e-16
-1.24066e-15
-1.10456e-15
2.0345e-15
9.16106e-17
-1.60416e-15
-1.94125e-17
9.16099e-17
-2.16384e-16
-6.30035e-16
-4.0799e-16
-8.82517e-16
5.91212e-16
-1.30433e-16
8.38329e-16
-9.07589e-16
-5.74522e-16
-3.15847e-15
1.25735e-15
2.09001e-15
7.27308e-16
8.13257e-16
1.81246e-15
-1.04905e-15
-2.4619e-15
1.64592e-15
-2.43683e-15
-1.94123e-17
1.23764e-15
3.78143e-16
2.38435e-16
6.27014e-16
6.00188e-16
-2.61166e-16
3.5691e-15
-1.76968e-16
2.38435e-16
-7.60766e-16
1.32183e-15
5.71501e-16
2.62541e-15
-5.10035e-16
-2.05655e-16
9.04569e-16
1.48837e-15
-4.27699e-16
1.68172e-15
3.6533e-15
2.93945e-16
4.04967e-16
1.21081e-15
-4.8321e-16
3.49456e-16
1.59939e-15
-1.03832e-15
-7.05254e-16
4.33655e-16
-2.05655e-16
2.14713e-17
-7.61334e-16
-3.3092e-15
4.82508e-16
-2.40118e-16
1.37069e-15
-1.01629e-15
2.31339e-15
1.53722e-15
4.82506e-16
-1.18381e-15
-9.05273e-16
9.39288e-17
3.25708e-15
1.9258e-15
5.3802e-16
1.70277e-15
-1.5714e-15
1.81478e-15
2.813e-15
-1.70921e-17
-1.70909e-17
-1.12829e-15
3.71488e-16
-1.01629e-15
1.70277e-15
-2.18203e-15
-1.01629e-15
-5.17674e-16
-1.18283e-15
-1.51295e-15
-9.1214e-16
-1.2354e-15
-3.47218e-16
3.15506e-17
-9.57842e-16
3.74426e-16
-8.56628e-16
4.13597e-17
7.63004e-16
4.20128e-16
-1.40193e-15
-9.57844e-16
-1.41174e-15
5.40958e-16
-4.0273e-16
-1.1897e-15
-5.69265e-16
-1.735e-15
-3.29912e-15
1.5238e-16
-6.80288e-16
3.15503e-17
4.85448e-16
3.18913e-16
-1.46725e-15
9.29538e-16
2.15078e-15
-7.94718e-17
2.15078e-15
4.34668e-15
6.17681e-16
2.18174e-15
1.35057e-15
4.22292e-15
-1.00866e-15
4.60546e-17
-4.95531e-16
-3.1736e-15
-1.36948e-15
3.88985e-15
9.89741e-16
-5.08873e-15
1.25307e-15
2.68284e-15
-3.31237e-15
1.47512e-15
1.87793e-15
-3.72081e-17
1.41961e-15
-2.89604e-15
-2.42419e-15
8.92255e-16
1.37833e-15
4.06882e-16
4.6115e-15
1.57079e-16
2.04446e-15
1.86369e-15
2.04445e-15
1.94836e-15
-9.97227e-16
-5.77402e-16
9.76912e-16
1.40754e-16
-2.13172e-15
-4.1087e-16
2.49998e-15
1.50427e-15
-1.99294e-15
-9.13959e-16
-2.88112e-15
-2.4434e-16
2.25018e-15
-1.32681e-15
-3.40847e-15
-1.99643e-15
2.58673e-15
6.16083e-16
5.84841e-16
7.54862e-16
1.75406e-15
-1.99643e-15
-6.32915e-16
-2.68683e-15
-8.02935e-16
1.1712e-15
-2.93663e-15
-2.41276e-15
-6.05161e-16
-5.92365e-15
-3.81648e-15
1.72301e-15
-1.87844e-15
6.52498e-16
-1.02088e-16
3.93635e-15
-6.93653e-16
2.15999e-15
1.35508e-15
-5.13245e-16
3.07592e-15
3.55877e-16
-8.32426e-16
-1.82293e-15
1.61594e-16
4.28848e-15
-1.1568e-15
-1.29557e-15
-7.21399e-16
1.47715e-16
-6.57194e-16
3.01173e-15
-1.39271e-15
1.13304e-15
-4.43842e-16
1.47717e-16
-1.14292e-15
-4.71605e-16
-2.35029e-15
1.87671e-16
-3.45199e-15
1.79749e-15
3.32405e-15
-3.22994e-15
-4.0908e-16
-8.948e-16
-9.53985e-16
-3.07361e-15
-2.31033e-15
-3.79893e-15
1.32151e-16
-3.47608e-15
-6.18591e-15
1.42279e-15
2.64404e-15
-2.45279e-15
-3.55934e-15
4.3746e-16
8.77879e-16
1.4603e-16
2.43586e-15
3.04282e-15
-6.21348e-17
4.69794e-15
-2.57769e-15
-8.67042e-16
-3.18463e-15
-1.02963e-17
1.25625e-15
1.37634e-15
8.22926e-16
4.40719e-17
-4.0411e-15
-2.80286e-15
-2.09821e-15
-4.63784e-15
-3.3262e-16
2.079e-15
-2.01495e-15
-4.19065e-15
4.41417e-16
5.68722e-15
6.24955e-16
5.03498e-15
6.3572e-16
-4.6486e-15
3.60557e-15
8.16136e-16
6.11084e-16
5.79825e-15
-1.86228e-15
-6.82741e-15
3.05046e-15
2.56474e-15
-4.1587e-16
-1.94555e-15
-1.26554e-15
-4.66248e-15
-3.70804e-15
3.54069e-15
4.50167e-15
-1.21939e-15
-5.25501e-16
-5.35958e-16
-1.15001e-15
3.20762e-15
-3.43641e-15
5.15051e-15
5.44194e-15
-3.4503e-15
-5.36886e-15
-2.13534e-15
2.55072e-16
-3.73128e-15
-5.39383e-16
2.40613e-15
2.37494e-15
8.90016e-16
1.57346e-15
9.73288e-16
6.26339e-16
-4.85195e-15
4.59815e-16
-1.56635e-15
9.21212e-16
2.81904e-15
3.45742e-15
-3.68622e-15
-2.20202e-16
-1.73306e-15
-2.36436e-15
-1.0808e-15
1.42372e-15
1.69172e-16
4.20621e-15
8.15444e-15
1.05734e-15
9.93488e-16
-6.3715e-16
5.11658e-15
9.58796e-16
2.18698e-15
1.21694e-15
1.4723e-15
4.10647e-16
4.95304e-16
-2.30246e-15
8.64018e-15
1.60553e-15
4.93909e-16
4.005e-15
1.41125e-15
6.37117e-15
1.31965e-15
2.68801e-15
1.04903e-15
4.31457e-16
6.51131e-15
6.25734e-16
7.46452e-16
-2.50784e-15
-3.54873e-15
-2.54258e-15
-2.77845e-15
3.97302e-15
3.43873e-15
-4.65195e-15
1.63463e-15
-3.20872e-15
3.23757e-15
2.55748e-15
1.5444e-15
1.26692e-15
6.82491e-15
-3.82629e-15
5.10583e-16
-1.18259e-15
-3.22956e-15
3.25144e-15
1.64849e-15
2.34237e-15
3.16297e-16
2.27994e-15
3.97996e-15
2.77267e-15
1.62769e-15
-2.86178e-15
-1.03679e-15
2.08564e-15
1.3764e-15
-1.39439e-16
-3.77227e-15
3.47446e-15
-3.94284e-16
-1.2995e-15
-3.37423e-15
-3.52675e-16
-3.61712e-15
7.05813e-16
-3.35723e-15
3.10667e-15
2.89489e-16
-2.55922e-15
4.15448e-15
2.71813e-15
-8.73063e-16
2.45445e-15
-2.74277e-15
-1.42122e-15
4.69571e-15
-2.89543e-15
1.46537e-15
1.13609e-15
2.5655e-15
-4.21065e-15
9.20962e-16
-4.0438e-16
-2.87842e-15
1.3442e-15
5.23438e-15
-4.98279e-15
7.53115e-15
1.89677e-15
-2.60274e-15
4.04889e-16
1.50818e-15
2.57368e-15
-2.82168e-15
2.86127e-15
-4.38604e-15
-1.38535e-15
1.50122e-15
-4.98973e-15
-2.79394e-15
2.76413e-15
-4.65567e-16
-4.27794e-16
6.21272e-15
-1.01375e-15
-2.40537e-15
-2.02375e-15
-6.65506e-15
-7.88597e-16
-1.08591e-16
-1.82558e-15
-4.06944e-16
5.85315e-16
2.94143e-15
-2.21803e-15
6.33449e-15
1.31769e-16
5.30059e-15
-3.27784e-15
1.03774e-15
-3.50684e-15
-3.28819e-16
-1.10642e-15
-1.00887e-15
-2.72972e-15
-4.5412e-15
-9.82821e-15
1.42997e-16
-7.10868e-16
-5.50521e-15
-3.14922e-16
1.42632e-15
2.81825e-16
-3.81905e-15
-3.68069e-15
-3.93009e-15
1.08674e-15
-1.98758e-15
1.41984e-15
-3.68718e-15
-2.55657e-15
-2.41046e-15
-1.54312e-15
-8.05223e-15
8.64647e-16
-3.51951e-15
1.65972e-15
-3.79013e-15
-1.45866e-15
2.29811e-15
1.4487e-15
-2.55503e-15
2.88099e-15
6.61127e-15
-3.72075e-15
4.03794e-16
1.02547e-16
-1.38239e-15
4.42834e-15
-2.02074e-15
1.34464e-15
5.95491e-15
-1.95845e-16
-1.07015e-15
-4.051e-15
5.02222e-15
4.13401e-15
4.26182e-15
8.60965e-15
-8.96641e-16
4.83776e-15
6.98597e-15
-2.71461e-15
7.09108e-16
5.14017e-15
-1.22687e-14
8.51328e-15
-9.76722e-15
-4.08421e-15
4.2284e-15
7.20948e-16
5.8037e-15
4.98121e-15
-2.46407e-15
1.86581e-15
6.40016e-15
4.34646e-15
3.48259e-15
4.50248e-15
8.80587e-16
-4.96544e-15
-7.87302e-15
-4.31318e-15
-9.0963e-16
1.61942e-15
1.14936e-14
-4.08071e-15
1.88659e-15
-1.89144e-15
1.45125e-16
-1.72163e-15
-4.35479e-15
2.01854e-15
6.5182e-15
-2.68261e-15
-2.02289e-15
1.34415e-15
-3.69517e-15
-1.81473e-15
2.31214e-15
1.72057e-15
7.69978e-16
-7.16984e-15
-5.34316e-15
5.97069e-15
3.53338e-15
-5.62772e-15
2.0441e-16
8.07835e-15
1.70943e-17
9.46936e-16
-2.68734e-15
-5.47163e-15
2.94575e-16
2.78741e-15
-5.72747e-16
2.63992e-15
-2.12875e-15
-1.00755e-14
-5.2981e-15
-3.62754e-15
-9.23936e-15
2.59838e-15
-5.48371e-15
2.25137e-15
1.09982e-14
-8.8653e-15
1.28391e-16
9.84575e-16
-3.68043e-15
2.31335e-15
-8.20948e-15
-3.39256e-15
6.63965e-15
4.51287e-15
-4.49593e-15
6.34038e-16
-5.97522e-15
-7.03194e-15
-5.90511e-16
2.40361e-15
6.81813e-15
-5.78774e-15
2.26487e-15
-1.16155e-15
-7.85903e-15
-5.67323e-15
-1.99417e-15
2.16781e-15
-1.82206e-15
4.94473e-15
2.1018e-15
1.77562e-15
-8.99567e-15
6.93071e-16
1.9101e-15
3.69e-15
6.9269e-15
-3.97064e-15
-1.32332e-15
6.74856e-16
8.93478e-16
-2.20105e-15
1.1121e-15
-2.47534e-15
-1.05616e-15
3.51286e-15
-1.47275e-15
-8.78264e-15
4.96311e-15
-1.81612e-15
1.74714e-15
2.0001e-15
3.66543e-15
-1.51422e-15
7.04473e-15
-3.3484e-16
-8.86172e-16
1.74184e-14
1.06634e-14
-3.64782e-15
8.51589e-15
2.17372e-15
9.80381e-16
-8.27467e-16
-8.98832e-15
8.01307e-15
4.59803e-15
5.17762e-15
3.48504e-15
-2.34766e-15
-4.32514e-16
-1.16072e-14
3.58338e-16
-1.817e-15
-2.41332e-15
-4.54051e-15
-2.38939e-15
-1.04957e-15
-3.71799e-15
2.89129e-15
-8.54699e-15
2.56865e-15
-1.72302e-15
2.99941e-15
-3.28434e-15
8.5986e-15
5.84739e-16
2.49946e-15
8.68548e-15
-1.68077e-15
-7.41148e-16
-1.3484e-15
2.78412e-15
-1.26873e-15
-6.46406e-15
-7.28826e-15
-3.67116e-15
-1.54441e-15
-2.44138e-15
-6.2318e-15
4.55481e-15
1.71508e-15
2.63282e-15
-3.07796e-15
4.10549e-15
-2.22718e-16
-2.07888e-15
2.66911e-15
-5.08335e-15
1.53645e-15
-2.69465e-15
-6.05499e-15
-3.41129e-15
8.47518e-16
6.79304e-16
-2.83882e-15
7.6998e-15
-5.50662e-15
-6.6689e-15
-9.84174e-16
-2.50546e-15
-4.70512e-15
-1.94527e-15
-2.84916e-15
-1.22168e-16
6.05675e-16
3.09747e-15
-6.44472e-15
-2.84058e-15
-5.18885e-15
1.24697e-15
1.30874e-14
-3.70314e-17
-1.78216e-15
1.39514e-15
1.82261e-15
1.11839e-15
-1.82062e-15
3.23166e-15
-1.7748e-15
4.4314e-15
8.49822e-15
1.16043e-15
-5.81723e-15
3.85951e-15
-1.07571e-14
3.21039e-15
-1.67386e-15
-5.97595e-15
1.94758e-15
-3.06877e-15
-1.27174e-15
-5.52607e-15
-8.48721e-16
3.54189e-15
1.02075e-14
-2.94255e-15
-4.47953e-15
8.05344e-16
5.53653e-15
-9.42364e-15
7.29679e-15
-3.14027e-15
3.41336e-15
-7.45445e-16
-7.08879e-15
-7.50512e-15
2.83153e-15
3.94415e-15
-3.82112e-16
-6.50479e-18
1.8448e-15
-9.34267e-16
6.5592e-16
-1.34002e-15
-7.04742e-15
-1.30586e-14
-1.04147e-15
-1.67288e-15
-6.82984e-16
-4.80915e-15
5.00238e-15
-4.30519e-15
4.67495e-16
4.04585e-15
-1.17022e-14
-3.80902e-15
2.36025e-15
-1.54839e-15
-3.90217e-15
1.11113e-15
-8.80687e-15
1.43327e-15
5.19068e-15
1.30267e-15
2.07171e-15
2.76578e-15
-1.46827e-16
2.21813e-15
2.49567e-15
1.17863e-15
-8.97438e-15
-4.98785e-15
8.13506e-15
1.65245e-15
1.54507e-14
-5.43728e-15
3.83276e-16
3.48156e-15
-2.51587e-15
7.89432e-15
1.64149e-16
-1.07333e-15
4.3063e-15
-1.34632e-15
-5.01691e-15
5.36698e-15
7.29943e-15
-9.99198e-15
-3.23421e-15
3.29552e-15
2.40454e-15
-5.94686e-15
-1.21131e-15
5.06674e-16
6.57054e-15
2.0706e-15
2.24138e-15
-1.40909e-15
7.00566e-16
-1.5126e-15
1.43877e-15
-3.61974e-15
3.99993e-15
-4.02537e-15
1.22321e-14
7.1505e-15
4.29116e-15
1.60457e-14
3.13655e-15
6.27589e-15
-8.29242e-15
6.53986e-15
-9.63565e-15
-4.35855e-16
1.4227e-14
4.87007e-16
-5.56347e-15
2.71482e-15
1.14888e-14
-2.08031e-15
8.42828e-15
-1.30756e-15
4.93051e-15
7.32339e-16
1.00316e-15
-2.55616e-15
1.44413e-14
-1.76429e-15
-7.1655e-16
-3.13475e-15
8.82091e-15
-2.36433e-15
-4.30358e-15
-2.36475e-15
-1.03926e-14
2.9617e-15
2.67394e-15
1.13373e-14
-2.36919e-16
-1.03127e-14
9.34483e-15
8.2759e-15
-5.99769e-15
-1.73431e-15
1.06316e-14
-7.84413e-15
3.59107e-15
3.8734e-15
-6.32169e-15
-2.74438e-15
-1.50736e-15
1.60466e-14
-1.60531e-14
5.74085e-16
-8.25749e-15
1.08903e-14
3.73476e-15
-2.9179e-15
1.56892e-14
4.5743e-15
-8.50995e-16
6.86841e-15
-5.8244e-15
3.04201e-15
-1.59745e-14
1.9685e-15
-8.70845e-15
-9.15944e-15
8.03343e-15
3.80614e-15
6.28669e-15
-7.82923e-15
5.91103e-15
-5.39633e-15
-1.02345e-14
2.86094e-15
1.02489e-14
1.49401e-14
-7.72301e-15
5.53367e-15
-6.7902e-15
5.62216e-15
-2.66628e-15
-3.59607e-15
-5.61524e-15
3.0411e-16
-2.00855e-15
-7.59484e-16
-6.06782e-15
5.89508e-15
-6.10263e-15
-1.37674e-15
5.65282e-15
1.50567e-15
-1.08173e-15
6.35745e-15
-2.22909e-15
-1.11592e-14
-1.28516e-15
7.7724e-15
-5.18312e-15
-1.02488e-14
-2.04427e-15
2.53735e-15
-5.37631e-15
7.71613e-17
-2.6673e-15
-3.348e-16
6.72922e-16
6.06144e-15
2.66325e-15
-7.12175e-15
1.35173e-14
-3.25237e-15
1.4714e-14
5.61991e-16
6.50023e-15
1.53028e-15
-7.33341e-15
8.93908e-15
4.14129e-15
-5.08074e-15
1.30144e-14
3.4825e-15
5.6573e-15
-1.29987e-14
3.73333e-15
-6.83796e-15
-2.36415e-15
-1.55016e-15
7.73376e-15
9.64632e-15
4.75554e-15
-9.022e-16
8.9313e-16
-7.78226e-15
-1.20173e-14
-1.93011e-14
-6.7822e-15
6.60601e-15
8.76818e-15
-3.56207e-15
-1.37207e-14
5.92812e-15
-3.58966e-15
4.06473e-15
-2.20121e-15
1.73932e-15
1.21753e-14
3.42324e-15
-7.02828e-15
3.09623e-15
-1.63308e-16
-7.2472e-16
9.36565e-15
-1.04217e-14
-3.72624e-15
-3.60572e-16
5.70397e-16
-5.63234e-15
-5.78439e-16
1.30988e-14
-9.31607e-15
-7.33786e-15
4.53493e-15
-1.02978e-14
-8.56315e-15
2.20748e-15
-1.09124e-15
5.74736e-16
7.75223e-15
-1.60651e-15
-3.66824e-15
6.86745e-15
-1.55897e-14
-1.4484e-15
-1.09795e-14
2.17069e-15
-2.72352e-15
-6.4096e-16
-1.65173e-15
-3.32082e-15
-1.67484e-14
-7.4346e-15
2.25103e-15
1.37741e-14
-5.94753e-16
1.78631e-14
-3.67288e-15
8.12817e-15
5.79201e-17
-1.41241e-14
7.66761e-15
-1.31734e-15
3.38379e-15
5.43029e-15
9.85887e-15
1.28597e-14
7.43593e-17
-9.20709e-15
-1.55932e-14
1.88372e-15
1.55466e-14
-2.37339e-16
1.59112e-14
-4.06443e-15
6.11326e-15
7.5516e-16
-3.82833e-15
-1.03091e-16
5.74755e-15
-5.10766e-15
-5.11478e-15
7.12056e-15
-1.45857e-14
1.30661e-14
9.29384e-15
1.03887e-16
1.92059e-15
-4.28755e-15
1.61559e-15
-9.45118e-15
1.08173e-14
6.13061e-15
4.50683e-15
3.2329e-15
2.39287e-15
7.28673e-15
9.43324e-17
-3.91879e-15
4.32152e-15
7.36578e-15
-5.95871e-15
1.77811e-15
1.2304e-14
7.29716e-15
1.12495e-14
-9.3382e-15
9.05887e-15
5.00016e-15
8.07413e-15
8.46999e-16
1.13979e-14
-3.94983e-15
-3.04561e-15
-2.51907e-15
1.46198e-15
-9.09152e-15
6.6002e-15
1.4075e-15
-2.06263e-15
1.06332e-14
-9.89723e-15
4.58536e-16
2.65928e-15
-1.90126e-15
-3.73786e-15
1.00804e-15
3.77584e-15
1.06021e-14
1.08418e-14
-8.14047e-15
-1.05512e-14
-9.06848e-15
-6.92109e-15
-3.15861e-15
-6.52427e-15
4.05783e-15
5.3214e-17
3.84824e-17
3.81827e-15
5.2386e-15
9.55092e-15
-1.88354e-15
1.01729e-14
-1.95253e-14
4.55018e-15
1.61737e-14
-5.12489e-16
-5.4555e-16
-2.50581e-15
8.488e-15
-5.07804e-15
-5.13471e-16
-1.3212e-14
2.29618e-15
2.60807e-15
-1.80676e-14
-4.36124e-15
8.37585e-15
-7.54314e-15
-1.20295e-15
1.34743e-15
1.39433e-15
6.84578e-15
-1.29827e-14
-3.52981e-15
-5.12391e-15
-3.25702e-15
-5.5713e-15
-1.08973e-14
8.61464e-15
-9.92748e-15
1.42508e-15
3.01546e-15
-1.64319e-14
1.02145e-14
8.88702e-15
-1.13254e-15
-3.61664e-15
7.42574e-15
-2.74943e-15
5.7395e-15
-3.95907e-15
-9.57981e-15
-7.18288e-15
-2.66765e-15
1.66017e-15
8.08647e-15
-1.19217e-14
-8.78899e-15
1.47566e-14
7.83907e-15
3.85408e-15
4.8261e-15
1.83153e-15
4.33255e-15
-6.43176e-15
1.05563e-14
-4.4803e-15
-1.72834e-15
-2.07287e-15
-8.35505e-15
2.35325e-15
2.8693e-15
5.58418e-15
-2.68434e-15
-6.68026e-15
-3.34644e-15
2.57101e-15
6.63979e-16
-1.76125e-14
-2.16423e-15
-4.62323e-15
6.31316e-15
4.71837e-15
-4.97909e-15
1.19952e-14
-6.48555e-15
-3.19475e-15
1.56179e-15
3.52076e-15
-2.53855e-15
4.13339e-16
-5.38443e-15
1.19516e-14
1.04634e-14
5.54492e-15
1.08135e-14
1.18103e-14
1.473e-15
-4.22096e-15
6.37793e-15
3.60051e-15
1.22424e-14
1.79534e-15
-1.72539e-14
-3.8599e-15
-8.82748e-15
-6.91281e-15
-8.35444e-15
-1.69061e-15
-3.58104e-15
1.24551e-14
9.23785e-15
1.3172e-15
3.28021e-15
1.19804e-14
-1.07665e-15
1.16576e-14
7.40895e-15
-9.62803e-15
3.90836e-15
1.78915e-15
5.60087e-15
5.17982e-15
-1.38449e-15
1.24733e-14
-1.83737e-14
1.54174e-15
2.05565e-15
1.6371e-15
9.76385e-15
-5.36397e-15
-5.14015e-15
1.059e-14
7.48484e-15
5.83867e-15
1.40855e-14
1.27939e-15
-1.02709e-14
1.32215e-14
3.62906e-15
4.44523e-18
5.76226e-16
2.40189e-15
6.38552e-15
-6.80693e-15
9.78857e-15
-1.51502e-15
-5.00441e-16
-3.89703e-15
4.91428e-16
3.33158e-15
7.69981e-15
-8.11272e-15
-4.92975e-15
-4.81847e-15
4.82919e-15
-1.14124e-14
-3.3337e-15
-8.92427e-15
-9.19641e-15
-3.09723e-15
-2.26618e-14
3.03208e-15
1.40374e-14
-2.50924e-15
-6.28512e-16
2.28925e-15
-4.92087e-15
-6.84739e-15
-3.52534e-15
-1.70696e-14
5.80566e-15
-6.61634e-16
2.72577e-15
-1.17341e-14
1.83645e-15
-1.0353e-14
-3.09049e-15
2.28032e-15
-4.6493e-15
-8.39796e-16
2.07007e-15
-7.06482e-15
-1.61172e-15
-9.72787e-15
6.53511e-15
-6.37121e-15
7.00264e-15
-4.18437e-15
-1.76394e-15
-2.83627e-15
3.59977e-15
-3.29226e-15
-5.2342e-15
-1.19681e-14
-1.55168e-15
1.49579e-14
9.47365e-15
-1.23636e-14
6.9113e-15
2.79182e-18
-2.74515e-15
2.13108e-15
-1.7622e-14
-6.02697e-15
-7.8953e-15
-3.75532e-15
-1.95913e-14
7.05645e-15
2.39424e-15
3.78723e-15
-1.09315e-15
4.6718e-15
4.60591e-15
4.2346e-15
-1.99843e-15
1.06392e-14
-3.14435e-15
2.42661e-15
-1.54057e-14
-1.05885e-14
8.09414e-15
-2.22505e-15
-1.23297e-14
-2.40902e-15
-8.28377e-15
4.05839e-15
-1.91215e-15
4.3402e-15
1.03036e-14
1.17397e-14
-1.23859e-14
9.96479e-15
-5.12757e-15
6.02778e-15
6.08937e-15
1.03842e-14
1.86521e-15
-2.58645e-14
1.358e-14
9.91178e-16
8.59561e-15
-7.47297e-15
-5.77777e-15
7.77948e-15
-8.21175e-16
4.50199e-15
-6.25867e-15
7.05409e-15
1.18097e-14
1.40946e-18
-4.02711e-15
-8.4764e-15
4.58146e-15
5.99482e-15
-1.55993e-14
-2.43447e-15
4.48876e-15
1.58977e-15
-2.03825e-15
-7.27055e-15
-4.84964e-15
-3.96704e-15
1.7265e-14
1.60932e-14
-4.74273e-15
2.55004e-15
1.61774e-14
-6.07018e-15
-7.37827e-15
-1.09352e-14
4.58113e-15
5.08545e-16
1.9803e-15
-1.2113e-14
-5.04566e-15
2.0937e-15
5.45896e-16
8.60764e-15
1.80455e-14
-4.0277e-15
-9.26987e-15
-7.85168e-15
5.95585e-15
1.03232e-15
3.13811e-15
-3.951e-15
1.47677e-14
-6.33575e-15
-1.08914e-15
4.90965e-15
-2.61857e-15
-2.54831e-15
6.8282e-15
1.03324e-15
5.71581e-15
-1.0598e-14
-7.63148e-15
1.92726e-14
-6.04009e-15
8.47635e-15
-4.4255e-15
1.28904e-14
-1.50888e-15
-3.4264e-15
-3.97073e-15
2.46759e-15
-8.5214e-15
-2.552e-15
6.55097e-15
5.17061e-15
9.38431e-15
1.15057e-14
-7.94818e-15
1.31774e-15
2.13698e-14
-7.92725e-15
-6.17795e-15
-5.47143e-16
-5.27253e-15
-3.17004e-15
7.43524e-15
-1.1355e-14
-1.03587e-14
-3.65246e-15
2.28029e-14
4.43168e-16
-7.73963e-15
-3.26643e-15
-1.18384e-15
4.41959e-15
-2.62816e-15
-2.58685e-15
-3.90194e-15
-2.33125e-15
1.24897e-14
-7.24789e-16
-1.9469e-15
-4.6618e-15
-1.27294e-14
1.96766e-14
6.83053e-15
1.43036e-14
-1.81648e-14
-4.46691e-17
-3.83867e-15
-2.89157e-16
-1.99759e-14
5.98219e-15
-2.00919e-15
-8.0901e-15
1.20868e-14
1.48437e-14
4.10479e-15
-4.01296e-15
-1.90549e-14
6.514e-15
1.60183e-14
7.17417e-16
5.83116e-15
9.03249e-16
1.5517e-14
1.14774e-14
1.81999e-14
-6.83264e-16
5.36181e-15
-1.49119e-14
1.42818e-14
9.41174e-15
1.21441e-15
-7.53488e-15
8.07947e-16
-7.40217e-15
-6.72401e-15
4.14263e-15
-1.43237e-14
1.47301e-14
1.02082e-14
9.52949e-15
1.02335e-14
1.66913e-15
-8.14333e-15
1.33042e-14
1.4935e-14
-4.22839e-15
-2.67856e-14
-3.46728e-16
1.46093e-14
4.72896e-15
3.96189e-15
6.56907e-15
7.62346e-15
1.18464e-14
2.46363e-15
6.43973e-15
-5.2702e-15
-1.94696e-14
6.39896e-16
-5.45321e-15
1.99385e-15
-1.72782e-14
6.34649e-15
-1.00309e-14
1.47279e-14
-4.73883e-15
5.26933e-15
-2.75203e-15
1.52245e-14
4.60829e-15
3.22691e-15
1.45444e-14
-2.71794e-14
2.40172e-15
-1.37366e-14
1.68331e-14
4.28824e-15
2.18553e-15
-4.38148e-15
-8.5227e-15
-2.05803e-15
-3.31506e-15
-1.9095e-14
-2.04556e-14
-1.36048e-14
4.9444e-15
-2.3731e-15
1.15955e-14
3.90812e-15
1.25767e-15
1.07314e-15
1.62589e-14
-1.38897e-14
-5.48606e-17
1.53634e-14
-2.21177e-17
4.18806e-15
-1.42703e-15
-3.87797e-15
-1.42074e-15
-8.36592e-15
-4.45911e-15
4.89973e-15
-1.69194e-14
-1.31494e-14
-5.13391e-15
1.55546e-14
2.33927e-15
-6.88664e-15
1.73928e-15
-4.18329e-15
-1.18297e-14
-3.48289e-15
-1.33576e-14
-1.38388e-15
3.36189e-15
3.92048e-16
1.20984e-14
-7.2119e-15
-2.79334e-15
-1.02743e-14
2.74737e-15
-1.32771e-14
-7.83683e-15
-8.07037e-15
-4.44718e-15
6.13658e-17
2.63504e-15
-1.26175e-14
-1.58912e-14
-8.85359e-16
1.89605e-15
1.78932e-14
-2.04164e-14
1.5825e-15
-6.3003e-15
3.67111e-15
-2.94318e-15
-8.01659e-16
1.04526e-14
1.56992e-15
4.32857e-15
1.46497e-14
1.16812e-14
1.05252e-14
6.79231e-15
3.80186e-15
-3.42434e-15
-2.28068e-14
4.61285e-15
6.12227e-15
-7.19498e-15
3.67894e-14
1.09179e-15
-1.40615e-14
3.07046e-15
1.26934e-14
-1.0195e-14
-1.66147e-14
-3.9684e-15
7.05837e-15
2.67473e-15
-5.72437e-15
1.75159e-14
7.84095e-15
-1.9134e-15
-1.87957e-15
-1.40628e-14
7.69068e-15
1.82731e-15
-4.44458e-15
1.72301e-15
2.87812e-15
8.14301e-15
8.35508e-15
-1.33723e-14
-8.35161e-15
-4.70544e-16
5.00489e-15
-1.75446e-15
1.54421e-14
8.24059e-15
8.87897e-15
1.81034e-14
-2.53855e-15
2.34968e-15
5.3243e-15
4.5337e-15
3.1199e-15
1.94463e-14
-1.20333e-14
-7.35393e-15
-1.41558e-14
1.30317e-14
1.07041e-14
-4.55755e-15
-4.65123e-15
-6.76108e-15
-1.10563e-14
-4.72712e-15
5.80048e-15
6.24284e-15
-1.28808e-14
-4.99861e-15
-3.85195e-15
2.6589e-15
-1.47269e-14
-1.02904e-14
2.12027e-14
-6.25498e-15
-5.25448e-15
5.80525e-15
-3.01937e-14
-8.90781e-16
2.01891e-14
-1.04756e-14
-6.45881e-15
6.12097e-15
4.35069e-15
-3.78126e-15
-2.47558e-14
-7.17655e-15
-1.30659e-14
-1.47074e-14
1.07119e-15
-4.10436e-15
1.09548e-15
2.00586e-14
-4.62477e-15
-7.94937e-15
-1.02912e-15
-7.10369e-16
6.4046e-15
3.6221e-15
-1.94419e-15
1.40469e-15
3.46641e-15
-2.42905e-15
-1.88959e-14
1.36557e-14
-1.65588e-14
-5.46611e-15
-1.26743e-14
-5.4132e-15
-2.45203e-15
3.08868e-15
5.60706e-15
-2.39179e-14
1.88868e-15
-1.02058e-14
2.06345e-14
-6.17215e-15
-1.49013e-15
-8.0682e-15
-4.12344e-15
1.05645e-14
9.62685e-15
1.83447e-14
2.41361e-14
-6.22766e-15
-5.16948e-15
-2.56496e-14
8.41861e-15
-9.52797e-15
5.18422e-15
-3.70017e-15
6.92155e-16
2.2901e-14
1.65666e-15
-9.73527e-15
-8.18009e-15
-1.52864e-14
8.21912e-15
2.83801e-15
-2.46938e-14
2.88398e-15
-8.87745e-15
-1.62734e-14
6.10189e-15
7.15573e-16
8.91041e-15
3.42174e-15
1.35308e-14
1.65189e-14
-2.19096e-15
-1.46584e-15
7.6588e-16
2.73566e-15
1.02782e-15
2.29851e-15
1.05974e-14
7.68222e-15
-2.34361e-15
3.68802e-15
-1.23269e-14
8.87398e-15
1.95998e-14
-1.1254e-14
1.37624e-14
5.57714e-15
2.55958e-15
-1.98452e-15
-5.63785e-17
2.11636e-15
-7.92942e-15
-7.80279e-15
-5.66734e-15
2.79742e-14
7.12798e-15
2.48152e-15
-6.8166e-15
1.04595e-14
8.27637e-15
2.2456e-15
4.56492e-15
-5.44009e-15
-6.27883e-15
-4.57967e-15
-2.18454e-14
1.19123e-14
-5.91888e-15
9.74047e-15
-4.65426e-15
1.62335e-14
-2.26754e-14
1.22151e-14
1.06356e-14
-7.63278e-15
-1.47079e-14
7.25982e-15
2.05443e-14
1.70532e-14
4.54498e-16
-6.37251e-15
2.33797e-14
7.92595e-15
1.29072e-14
1.93335e-14
-1.72778e-15
4.22926e-15
2.87097e-15
9.17669e-16
-1.02748e-14
-2.02668e-14
-5.21024e-15
1.29488e-14
-3.19796e-15
-7.33788e-15
-4.43048e-15
-1.29645e-14
-5.62658e-15
-1.28127e-14
4.03236e-15
-1.79197e-14
3.09475e-15
-5.01682e-15
-1.95859e-14
1.42482e-14
2.22825e-15
-9.05526e-16
5.05672e-16
7.97192e-15
7.82274e-15
-4.88064e-15
3.74874e-15
-2.10162e-15
-3.25261e-16
-2.39097e-14
-4.4461e-15
5.34295e-16
1.12844e-14
-1.73229e-14
-3.83721e-15
1.04257e-15
-5.78183e-15
-2.70443e-15
7.86003e-15
1.1293e-15
1.21708e-14
-6.58328e-15
6.88859e-15
1.14596e-14
1.61832e-14
-9.04311e-15
1.82337e-14
-4.98906e-15
-2.17534e-15
-3.77823e-15
2.62013e-14
-2.67841e-15
-1.52205e-14
-4.72712e-15
6.49307e-15
1.32377e-14
-1.29462e-14
-1.96544e-14
-9.34669e-15
-1.17944e-14
3.33067e-16
2.73739e-15
7.26329e-15
-2.15244e-14
1.69517e-14
6.77063e-15
9.30159e-15
1.01481e-15
7.45411e-15
5.84949e-15
9.67976e-15
6.26756e-15
-1.53523e-15
2.97158e-15
-2.19269e-15
1.92641e-14
-2.08167e-15
-5.76969e-15
3.74006e-15
-3.36363e-15
-1.23946e-14
3.03577e-16
1.9186e-15
2.15626e-15
6.91981e-15
2.44596e-16
1.00839e-14
2.11862e-14
1.01412e-14
7.31186e-15
4.17028e-15
-5.12437e-15
-5.45224e-15
1.32082e-14
7.97973e-17
-4.93182e-15
1.39784e-14
1.06217e-14
-8.77944e-15
4.35242e-15
8.39606e-16
2.39218e-15
1.17441e-15
-6.22592e-15
-2.1148e-14
5.45224e-15
-7.9086e-15
9.88792e-16
-1.69517e-14
8.51402e-15
-1.61468e-14
6.18082e-15
2.11983e-15
3.00454e-15
-5.80785e-15
-1.08819e-14
1.92554e-15
1.34684e-14
8.25728e-15
1.11855e-14
3.00628e-15
-2.84495e-15
4.91274e-15
1.52951e-14
-2.31152e-14
-1.0594e-14
-5.46958e-15
-7.16788e-15
-5.13478e-16
-1.43288e-15
6.3647e-15
8.98413e-15
1.64105e-15
-1.05731e-14
5.6552e-15
-8.658e-15
8.17055e-15
4.20497e-15
3.19189e-15
1.13451e-15
5.56152e-15
-1.40565e-14
1.75381e-15
-6.08021e-15
-1.7486e-15
6.41848e-16
-3.56139e-15
-4.81212e-15
-9.34842e-15
-1.04083e-16
-3.82333e-15
-1.69656e-15
-3.65506e-15
-3.6568e-15
2.38698e-15
-3.21965e-15
-1.14422e-14
-4.26395e-15
5.47132e-15
2.01922e-15
-1.92901e-15
-2.11289e-15
1.94289e-16
-7.80626e-16
1.14422e-14
-1.20425e-14
7.47319e-15
7.70217e-15
1.1359e-14
-2.17604e-14
1.4759e-14
-7.82707e-15
-1.79579e-14
-3.36189e-15
4.82253e-15
7.7785e-15
1.82493e-15
-1.00996e-14
-4.94049e-15
-8.95117e-16
-5.82867e-16
6.20684e-15
-2.30371e-15
-8.60076e-15
1.81868e-14
2.28983e-15
5.76622e-15
9.08995e-15
-1.89779e-15
1.35517e-14
-3.86496e-15
-1.25178e-14
-3.71925e-15
1.18967e-14
-6.41154e-15
1.18204e-14
-8.27463e-15
8.64586e-15
-9.05526e-16
-7.36911e-15
-9.59649e-15
5.88765e-15
-4.41661e-15
1.07032e-14
1.83187e-15
-3.02189e-15
1.36002e-15
-2.38941e-14
8.01442e-16
-2.03726e-14
-6.58501e-15
1.19349e-15
8.26075e-15
-7.26502e-15
1.11022e-16
-2.60902e-15
1.30798e-15
1.15775e-14
9.63465e-15
-3.08781e-15
7.63278e-16
-6.8695e-15
-1.17927e-14
1.12757e-15
-1.20771e-14
1.9415e-14
-1.21708e-14
-1.15082e-14
-3.71231e-16
8.77423e-15
-8.73607e-15
3.35496e-15
2.74086e-15
-2.00881e-15
-5.55458e-15
-3.17107e-15
2.498e-15
3.19189e-15
1.13451e-15
1.249e-15
-1.42941e-15
1.51268e-15
4.09395e-16
1.34337e-14
-7.00134e-15
6.68562e-15
3.37924e-15
8.39259e-15
1.13139e-14
-1.69864e-14
-5.51295e-15
-8.95117e-16
-6.6544e-15
-6.62664e-16
3.85456e-15
-3.32026e-15
-5.83214e-15
1.75901e-15
4.71845e-15
2.07473e-15
1.27467e-14
-7.31706e-15
1.00961e-15
-1.05124e-15
-4.50681e-15
-7.01175e-15
-8.04912e-15
1.97967e-14
7.02563e-15
6.64399e-15
1.18759e-14
-1.20043e-15
-1.46237e-14
3.17801e-15
-1.43288e-14
-3.07393e-15
5.59275e-15
2.45637e-15
-1.45509e-14
1.47105e-15
4.78784e-15
3.83027e-15
2.22808e-14
-6.91808e-15
4.22579e-15
-2.39184e-14
5.39846e-15
1.59595e-14
5.18335e-15
7.12624e-15
-5.80785e-15
-2.92821e-15
-5.41928e-15
-1.15671e-14
-1.17129e-14
-6.52256e-16
6.68215e-15
-3.15026e-15
1.61676e-15
-1.40027e-14
-5.54418e-15
1.32533e-15
-4.13558e-15
-1.17059e-14
-9.92956e-15
-5.50948e-15
-2.06085e-15
-1.79995e-14
-1.21084e-14
1.71391e-15
9.59649e-15
1.0221e-14
5.87724e-15
4.72539e-15
-4.50334e-15
1.64452e-15
1.80411e-16
-7.50094e-15
-1.47174e-14
6.51562e-15
-4.46171e-15
6.17562e-16
-9.25648e-15
3.95517e-16
-3.50414e-15
8.0283e-15
-5.55112e-17
-5.36376e-15
2.27596e-15
-2.8727e-15
-8.90954e-15
-1.14492e-15
1.38708e-14
-3.35149e-15
1.06443e-14
8.6875e-15
-9.57567e-15
-5.27356e-15
9.70751e-15
-3.08781e-15
7.56339e-15
8.84015e-15
-1.35655e-14
1.45717e-14
-1.39333e-14
1.97065e-15
-1.44607e-14
-6.75848e-15
8.66668e-15
-2.74086e-15
1.87281e-14
2.93515e-15
-6.08541e-15
6.48093e-15
4.97519e-15
1.63897e-14
-6.41848e-15
-9.0622e-15
7.9034e-15
6.01602e-15
-2.94209e-15
-1.14075e-14
-3.55965e-15
-3.58047e-15
1.65215e-14
8.16014e-15
1.045e-14
5.91194e-15
1.48145e-14
-4.97519e-15
-2.06224e-14
-5.01682e-15
-1.09635e-14
-9.78384e-16
9.04138e-15
5.44009e-15
5.4054e-15
8.63198e-15
1.22125e-14
1.19349e-15
4.09395e-16
1.0339e-15
1.13173e-14
-1.82493e-15
-1.9082e-15
-1.99146e-15
1.92277e-14
-4.23273e-16
-2.28983e-15
1.89432e-15
1.09912e-14
-8.59729e-15
-4.17028e-15
3.45557e-15
4.06619e-15
-1.05332e-14
2.23849e-14
-1.41553e-15
-1.04361e-14
1.79023e-14
-1.57097e-14
-2.73392e-15
1.25039e-14
-4.05231e-15
1.92346e-14
1.3059e-14
1.06998e-14
1.69448e-14
-6.52256e-16
-1.20876e-14
-2.43416e-14
-2.66315e-14
1.61676e-14
-1.24761e-14
7.11931e-15
-5.07927e-15
4.53804e-15
1.66533e-15
4.80171e-15
1.57513e-14
7.31359e-15
8.32667e-17
1.03528e-14
-2.08167e-16
-2.28706e-14
5.34295e-15
-8.74301e-15
1.87211e-14
-1.79023e-14
6.20337e-15
6.14786e-15
4.3715e-15
-3.44169e-15
-6.81399e-15
-1.91236e-14
-6.60583e-15
-4.77396e-15
8.60423e-16
-1.79023e-15
-1.98452e-15
-7.81319e-15
5.3707e-15
-1.81799e-14
6.23113e-15
3.63598e-15
7.99361e-15
-2.35922e-14
2.66454e-15
-8.75688e-15
-7.60503e-15
-9.9365e-15
-4.64906e-15
-9.03444e-15
-1.02279e-14
-5.30131e-15
8.86791e-15
-1.51962e-14
1.01308e-14
-1.37806e-14
-2.83662e-14
1.27259e-14
1.95399e-14
-2.60902e-15
-1.70836e-14
-1.23651e-14
5.60663e-15
2.31759e-15
-1.79301e-14
-7.77156e-16
3.39728e-14
2.56045e-14
2.85327e-14
-1.90958e-14
1.93318e-14
-1.72778e-14
-1.31284e-14
-4.27436e-15
2.03865e-14
-2.46192e-14
-1.26704e-14
5.16254e-15
2.28706e-14
5.52336e-15
1.65562e-14
1.49741e-14
-1.00753e-14
-1.14631e-14
-6.02296e-15
3.81639e-15
-1.70697e-14
1.59595e-15
-1.91236e-14
1.10328e-14
-1.31978e-14
2.4869e-14
1.11716e-14
1.47382e-14
-2.2371e-14
-6.66134e-16
-4.31599e-15
3.51247e-14
-2.42306e-14
-3.73312e-15
-1.36002e-15
7.16094e-15
-7.86871e-15
2.22738e-14
2.91434e-16
6.99441e-15
2.66592e-14
1.02279e-14
-1.12965e-14
4.44089e-15
1.7028e-14
-3.13638e-15
2.80331e-15
-1.01308e-14
-1.74305e-14
-5.60663e-15
1.84436e-14
-5.95357e-15
-2.25098e-14
-3.66374e-15
5.07927e-15
-6.09235e-15
-3.05728e-14
-1.40721e-14
1.14908e-14
-2.77556e-17
-6.59195e-15
-9.28424e-15
1.045e-14
-9.28424e-15
-8.42382e-15
9.58955e-15
6.73073e-15
1.84575e-15
-2.81442e-14
9.95037e-15
1.10328e-14
-5.95357e-15
-1.62509e-14
-7.23033e-15
-1.60288e-14
-5.50948e-15
-1.09496e-14
9.10383e-15
-5.85643e-15
-1.56819e-15
1.96232e-14
-1.60288e-14
1.26982e-14
-6.20337e-15
1.39611e-14
-1.39611e-14
-2.53547e-14
4.28824e-15
1.5446e-14
-5.96745e-15
1.30312e-14
-1.69031e-14
2.18436e-14
1.36974e-14
9.15934e-16
-1.49464e-14
5.25968e-15
6.68909e-15
1.62786e-14
-4.19109e-15
-3.06699e-15
-5.63438e-15
1.64313e-14
1.36419e-14
-9.52016e-15
2.8838e-14
1.27953e-14
-4.19109e-15
1.79301e-14
1.03528e-14
-1.21014e-14
-3.30291e-15
2.47025e-15
-1.45162e-14
1.79023e-14