/*--------------------------------*- C++ -*----------------------------------*\
| =========                 |                                                 |
| \\      /  F ield         | foam-extend: Open Source CFD                    |
|  \\    /   O peration     | Version:     4.0                                |
|   \\  /    A nd           | Web:         http://www.foam-extend.org         |
|    \\/     M anipulation  |                                                 |
\*---------------------------------------------------------------------------*/
FoamFile
{
    version     2.0;
    format      ascii;
    class       volVectorField;
    location    "17";
    object      U;
}
// * * * * * * * * * * * * * * * * * * * * * * * * * * * * * * * * * * * * * //

dimensions      [0 1 -1 0 0 0 0];

internalField   nonuniform List<vector> 
6960
(
(-3.27711e-27 -9.94748e-26 0)
(-2.5667e-27 5.00318e-27 0)
(3.20514e-28 4.11222e-27 0)
(-1.74939e-28 2.60968e-27 0)
(1.83163e-29 1.20941e-27 0)
(-1.25566e-28 3.16868e-28 0)
(-2.61515e-29 2.87234e-28 0)
(-6.29731e-29 1.08633e-27 0)
(2.7532e-29 2.09555e-27 0)
(3.21542e-29 2.69592e-27 0)
(3.05821e-29 2.84623e-27 0)
(-1.30012e-29 3.02676e-27 0)
(-4.82727e-29 3.64642e-27 0)
(-7.68027e-29 4.48599e-27 0)
(-5.17383e-29 4.81628e-27 0)
(-1.39906e-29 4.17647e-27 0)
(1.3869e-29 2.97024e-27 0)
(1.59367e-29 2.20396e-27 0)
(-3.39215e-30 2.66669e-27 0)
(-2.77369e-29 4.28056e-27 0)
(-2.16598e-29 6.09782e-27 0)
(5.05149e-30 6.88983e-27 0)
(2.15374e-29 6.03543e-27 0)
(3.1608e-29 4.05879e-27 0)
(4.59495e-29 2.19996e-27 0)
(3.72786e-29 1.53316e-27 0)
(1.81207e-30 2.51114e-27 0)
(-2.70896e-29 4.79949e-27 0)
(-3.34949e-29 7.28613e-27 0)
(-1.01905e-29 8.676e-27 0)
(2.24027e-29 8.2507e-27 0)
(1.19146e-29 6.12922e-27 0)
(-2.18295e-29 3.21293e-27 0)
(-1.71193e-29 8.74592e-28 0)
(1.39214e-29 1.9199e-28 0)
(2.74437e-29 1.33167e-27 0)
(2.83273e-30 3.68145e-27 0)
(-4.62922e-29 6.16731e-27 0)
(-6.9881e-29 7.53165e-27 0)
(-5.76756e-29 7.03998e-27 0)
(-5.84286e-29 5.09457e-27 0)
(-9.1183e-29 2.88404e-27 0)
(-1.13183e-28 1.50678e-27 0)
(-9.79096e-29 1.46118e-27 0)
(-7.00966e-29 2.48832e-27 0)
(-3.68344e-29 3.69312e-27 0)
(9.59823e-30 4.17199e-27 0)
(3.51419e-29 3.70695e-27 0)
(3.53144e-29 2.79136e-27 0)
(6.53143e-29 2.09585e-27 0)
(1.20988e-28 1.95753e-27 0)
(1.34186e-28 2.17286e-27 0)
(9.76479e-29 2.20601e-27 0)
(7.78984e-29 1.77951e-27 0)
(8.56936e-29 1.22257e-27 0)
(9.03336e-29 1.23744e-27 0)
(6.35369e-29 2.14601e-27 0)
(5.40947e-29 3.55665e-27 0)
(4.37893e-29 4.34534e-27 0)
(8.38414e-30 4.34981e-27 0)
(-6.44629e-27 -2.02012e-25 0)
(-4.45546e-27 1.24655e-26 0)
(8.0215e-28 1.02594e-26 0)
(-6.11448e-28 6.669e-27 0)
(-2.22201e-29 3.1278e-27 0)
(-3.92782e-28 8.97275e-28 0)
(-4.88694e-29 1.03048e-27 0)
(-1.20289e-28 3.38324e-27 0)
(1.41226e-28 6.3706e-27 0)
(1.25164e-28 8.34253e-27 0)
(9.78425e-29 8.98073e-27 0)
(-1.98937e-29 9.33083e-27 0)
(-1.00894e-28 1.04021e-26 0)
(-1.9185e-28 1.17384e-26 0)
(-1.66004e-28 1.17828e-26 0)
(-1.0287e-28 9.85212e-27 0)
(-1.99796e-29 7.31189e-27 0)
(4.40675e-29 6.55145e-27 0)
(6.27906e-29 8.98205e-27 0)
(3.30015e-29 1.38008e-26 0)
(2.68341e-29 1.8335e-26 0)
(2.2252e-29 1.96894e-26 0)
(-1.61482e-29 1.68245e-26 0)
(-1.29056e-29 1.14894e-26 0)
(7.53105e-29 6.9059e-27 0)
(1.36696e-28 5.60647e-27 0)
(1.21424e-28 8.35785e-27 0)
(7.92346e-29 1.40306e-26 0)
(2.1869e-29 2.00433e-26 0)
(-1.01987e-29 2.36189e-26 0)
(-2.7352e-29 2.3044e-26 0)
(-1.40151e-28 1.8229e-26 0)
(-2.50717e-28 1.09183e-26 0)
(-1.64671e-28 4.29778e-27 0)
(3.86213e-29 1.44575e-27 0)
(1.68789e-28 3.63127e-27 0)
(1.31677e-28 9.84948e-27 0)
(-4.50225e-29 1.71825e-26 0)
(-1.98385e-28 2.18188e-26 0)
(-2.43495e-28 2.12721e-26 0)
(-2.76807e-28 1.61711e-26 0)
(-3.51639e-28 9.56296e-27 0)
(-3.59772e-28 4.71525e-27 0)
(-2.46964e-28 3.50092e-27 0)
(-1.22274e-28 5.69107e-27 0)
(-3.12713e-29 9.16356e-27 0)
(5.8869e-29 1.14226e-26 0)
(7.87911e-29 1.13853e-26 0)
(4.88186e-29 9.69485e-27 0)
(1.50271e-28 7.72318e-27 0)
(3.46962e-28 6.53234e-27 0)
(3.88572e-28 6.21809e-27 0)
(2.46247e-28 5.93583e-27 0)
(1.63154e-28 4.96822e-27 0)
(2.0701e-28 3.73731e-27 0)
(2.73181e-28 3.68057e-27 0)
(2.40858e-28 5.71667e-27 0)
(2.16889e-28 9.18591e-27 0)
(1.55523e-28 1.13957e-26 0)
(2.74081e-29 1.22936e-26 0)
(-9.3412e-27 -1.83128e-25 0)
(-6.17835e-27 1.48294e-26 0)
(1.17083e-27 1.27863e-26 0)
(-1.09515e-27 9.42262e-27 0)
(-1.07096e-28 5.3985e-27 0)
(-6.59547e-28 2.58584e-27 0)
(-3.72414e-29 2.71248e-27 0)
(-1.13003e-28 5.80474e-27 0)
(3.18189e-28 1.00685e-26 0)
(2.5861e-28 1.32612e-26 0)
(1.72562e-28 1.44092e-26 0)
(-3.69382e-29 1.44199e-26 0)
(-1.70048e-28 1.46291e-26 0)
(-3.3409e-28 1.48676e-26 0)
(-3.19723e-28 1.38545e-26 0)
(-2.17507e-28 1.15305e-26 0)
(-3.13288e-29 9.8791e-27 0)
(1.51629e-28 1.11377e-26 0)
(2.36469e-28 1.57734e-26 0)
(1.82544e-28 2.19781e-26 0)
(1.05789e-28 2.66028e-26 0)
(2.66632e-31 2.70006e-26 0)
(-1.33309e-28 2.29292e-26 0)
(-1.23878e-28 1.68972e-26 0)
(8.82127e-29 1.23859e-26 0)
(2.73413e-28 1.17108e-26 0)
(3.1478e-28 1.50759e-26 0)
(2.68749e-28 2.08575e-26 0)
(1.43047e-28 2.67174e-26 0)
(1.95262e-29 3.05495e-26 0)
(-9.85963e-29 3.07209e-26 0)
(-3.75593e-28 2.64947e-26 0)
(-6.10969e-28 1.88163e-26 0)
(-4.42337e-28 1.05439e-26 0)
(-5.35711e-30 5.50166e-27 0)
(3.35539e-28 6.50467e-27 0)
(3.63525e-28 1.35387e-26 0)
(7.46821e-29 2.32601e-26 0)
(-2.63922e-28 3.04332e-26 0)
(-4.51811e-28 3.11455e-26 0)
(-5.83125e-28 2.5367e-26 0)
(-7.21063e-28 1.6491e-26 0)
(-6.87113e-28 8.87754e-27 0)
(-4.11044e-28 5.59966e-27 0)
(-1.17881e-28 7.17537e-27 0)
(7.31349e-29 1.15574e-26 0)
(2.01328e-28 1.56756e-26 0)
(1.65777e-28 1.74793e-26 0)
(3.85188e-29 1.66491e-26 0)
(1.66908e-28 1.40726e-26 0)
(5.00833e-28 1.12494e-26 0)
(5.87509e-28 9.4077e-27 0)
(3.50737e-28 8.55326e-27 0)
(2.08062e-28 7.82408e-27 0)
(2.93849e-28 6.87693e-27 0)
(4.37032e-28 6.6689e-27 0)
(4.26561e-28 8.43837e-27 0)
(4.09208e-28 1.21207e-26 0)
(3.16304e-28 1.48883e-26 0)
(7.70802e-29 1.74645e-26 0)
(-1.26649e-26 -1.56328e-25 0)
(-8.4086e-27 1.59531e-26 0)
(1.49916e-27 1.57919e-26 0)
(-1.55362e-27 1.47296e-26 0)
(-1.99343e-28 1.15716e-26 0)
(-9.3271e-28 8.35788e-27 0)
(-3.07223e-29 7.59199e-27 0)
(-8.7811e-29 9.99892e-27 0)
(5.25553e-28 1.41052e-26 0)
(4.1551e-28 1.73457e-26 0)
(2.39323e-28 1.80916e-26 0)
(-8.98063e-29 1.70982e-26 0)
(-2.83864e-28 1.6232e-26 0)
(-5.08606e-28 1.59814e-26 0)
(-4.75528e-28 1.54608e-26 0)
(-2.9067e-28 1.4647e-26 0)
(3.10612e-29 1.49142e-26 0)
(3.26297e-28 1.72326e-26 0)
(4.33671e-28 2.10389e-26 0)
(3.09597e-28 2.4833e-26 0)
(1.45296e-28 2.70492e-26 0)
(-4.21846e-29 2.67624e-26 0)
(-2.3071e-28 2.44076e-26 0)
(-1.81642e-28 2.1611e-26 0)
(1.54822e-28 2.00175e-26 0)
(4.29815e-28 2.04296e-26 0)
(4.82127e-28 2.25174e-26 0)
(4.03594e-28 2.51446e-26 0)
(2.17763e-28 2.74729e-26 0)
(4.44394e-29 2.92033e-26 0)
(-1.28909e-28 2.9708e-26 0)
(-5.55072e-28 2.81066e-26 0)
(-9.45346e-28 2.41372e-26 0)
(-7.49914e-28 1.87202e-26 0)
(-1.21094e-28 1.41793e-26 0)
(4.29744e-28 1.32991e-26 0)
(5.59367e-28 1.72635e-26 0)
(2.04245e-28 2.431e-26 0)
(-2.91332e-28 3.04319e-26 0)
(-6.17514e-28 3.20605e-26 0)
(-8.62568e-28 2.84911e-26 0)
(-1.09436e-27 2.18424e-26 0)
(-1.04727e-27 1.53637e-26 0)
(-6.13098e-28 1.17308e-26 0)
(-1.25325e-28 1.18934e-26 0)
(2.0902e-28 1.47876e-26 0)
(4.07245e-28 1.82625e-26 0)
(3.10536e-28 2.05117e-26 0)
(4.06612e-29 2.06327e-26 0)
(1.4234e-28 1.86156e-26 0)
(5.89726e-28 1.56342e-26 0)
(7.3623e-28 1.34625e-26 0)
(4.35676e-28 1.28358e-26 0)
(2.50942e-28 1.29408e-26 0)
(3.68629e-28 1.27453e-26 0)
(5.64191e-28 1.24671e-26 0)
(5.6778e-28 1.33442e-26 0)
(5.76288e-28 1.60226e-26 0)
(4.99129e-28 1.81638e-26 0)
(1.53317e-28 2.13494e-26 0)
(-1.5981e-26 -1.4778e-25 0)
(-1.0687e-26 1.86062e-26 0)
(1.83278e-27 2.12322e-26 0)
(-1.95202e-27 2.32984e-26 0)
(-2.91401e-28 2.15905e-26 0)
(-1.23339e-27 1.81265e-26 0)
(-6.8545e-29 1.61102e-26 0)
(-9.34522e-29 1.6995e-26 0)
(7.07688e-28 1.95761e-26 0)
(5.41615e-28 2.1168e-26 0)
(2.61375e-28 2.00645e-26 0)
(-1.80519e-28 1.75451e-26 0)
(-3.99855e-28 1.63973e-26 0)
(-6.36945e-28 1.7584e-26 0)
(-5.52977e-28 1.9731e-26 0)
(-2.87778e-28 2.15752e-26 0)
(1.22817e-28 2.29367e-26 0)
(4.51788e-28 2.35726e-26 0)
(5.15555e-28 2.304e-26 0)
(3.19165e-28 2.17712e-26 0)
(1.39263e-28 2.0974e-26 0)
(-2.50534e-29 2.15166e-26 0)
(-1.89578e-28 2.34524e-26 0)
(-9.14557e-29 2.60811e-26 0)
(3.04109e-28 2.82512e-26 0)
(5.68161e-28 2.91987e-26 0)
(5.48176e-28 2.87882e-26 0)
(4.01294e-28 2.71577e-26 0)
(1.72845e-28 2.50625e-26 0)
(1.4627e-29 2.36784e-26 0)
(-1.20497e-28 2.3524e-26 0)
(-6.09791e-28 2.43947e-26 0)
(-1.1219e-27 2.56254e-26 0)
(-9.47531e-28 2.6054e-26 0)
(-2.39059e-28 2.49938e-26 0)
(4.0397e-28 2.31776e-26 0)
(5.77788e-28 2.21129e-26 0)
(1.86194e-28 2.26483e-26 0)
(-3.72345e-28 2.41367e-26 0)
(-7.24448e-28 2.52244e-26 0)
(-1.00243e-27 2.52178e-26 0)
(-1.31647e-27 2.42458e-26 0)
(-1.31233e-27 2.28103e-26 0)
(-8.03106e-28 2.15563e-26 0)
(-1.83792e-28 2.09789e-26 0)
(2.7573e-28 2.10473e-26 0)
(5.66741e-28 2.13732e-26 0)
(4.47026e-28 2.17e-26 0)
(5.95455e-29 2.17246e-26 0)
(1.37526e-28 2.09874e-26 0)
(6.91835e-28 1.98016e-26 0)
(8.95087e-28 1.93177e-26 0)
(5.32036e-28 2.00266e-26 0)
(3.02315e-28 2.10424e-26 0)
(4.3639e-28 2.12388e-26 0)
(6.59687e-28 2.07612e-26 0)
(6.62009e-28 2.09455e-26 0)
(6.97755e-28 2.27559e-26 0)
(6.57379e-28 2.38193e-26 0)
(2.25681e-28 2.61061e-26 0)
(-1.91029e-26 -1.44614e-25 0)
(-1.28195e-26 2.2151e-26 0)
(2.1869e-27 2.7454e-26 0)
(-2.27461e-27 3.25358e-26 0)
(-3.67563e-28 3.25614e-26 0)
(-1.55203e-27 2.94678e-26 0)
(-1.57151e-28 2.67237e-26 0)
(-1.60716e-28 2.61494e-26 0)
(8.11365e-28 2.66676e-26 0)
(5.8073e-28 2.57276e-26 0)
(2.06758e-28 2.20864e-26 0)
(-2.99364e-28 1.8021e-26 0)
(-4.70146e-28 1.72738e-26 0)
(-6.58355e-28 2.07844e-26 0)
(-5.15221e-28 2.59279e-26 0)
(-2.24275e-28 2.97077e-26 0)
(1.74368e-28 3.05516e-26 0)
(4.33652e-28 2.77825e-26 0)
(4.07213e-28 2.2015e-26 0)
(1.87694e-28 1.6041e-26 0)
(1.16898e-28 1.34154e-26 0)
(1.07432e-28 1.58157e-26 0)
(3.61956e-29 2.20559e-26 0)
(1.58922e-28 2.89864e-26 0)
(5.16153e-28 3.33498e-26 0)
(6.59082e-28 3.38323e-26 0)
(4.96849e-28 3.12127e-26 0)
(2.62215e-28 2.68662e-26 0)
(8.21727e-30 2.22653e-26 0)
(-8.66602e-29 1.88647e-26 0)
(-9.98197e-29 1.76424e-26 0)
(-5.46133e-28 1.93566e-26 0)
(-1.10201e-27 2.40314e-26 0)
(-9.61048e-28 2.95939e-26 0)
(-2.93541e-28 3.27332e-26 0)
(2.69652e-28 3.14693e-26 0)
(3.64384e-28 2.65398e-26 0)
(-6.80546e-29 2.07129e-26 0)
(-5.78269e-28 1.67828e-26 0)
(-7.88477e-28 1.62628e-26 0)
(-9.55766e-28 1.91868e-26 0)
(-1.29924e-27 2.40595e-26 0)
(-1.39083e-27 2.85558e-26 0)
(-9.22157e-28 3.09421e-26 0)
(-2.85489e-28 3.08501e-26 0)
(2.32886e-28 2.88877e-26 0)
(6.14489e-28 2.61491e-26 0)
(5.21572e-28 2.40138e-26 0)
(8.36091e-29 2.32762e-26 0)
(1.86834e-28 2.35872e-26 0)
(8.63978e-28 2.45711e-26 0)
(1.11185e-27 2.64021e-26 0)
(6.59682e-28 2.87803e-26 0)
(3.5634e-28 3.04943e-26 0)
(4.84813e-28 3.0555e-26 0)
(7.24105e-28 2.95455e-26 0)
(7.24128e-28 2.92329e-26 0)
(7.82955e-28 3.0754e-26 0)
(7.70202e-28 3.10596e-26 0)
(2.73951e-28 3.19519e-26 0)
(-2.20036e-26 -1.41589e-25 0)
(-1.47883e-26 2.57249e-26 0)
(2.54571e-27 3.2864e-26 0)
(-2.52482e-27 4.0181e-26 0)
(-4.12521e-28 4.17224e-26 0)
(-1.86405e-27 3.94405e-26 0)
(-2.77209e-28 3.67672e-26 0)
(-2.82874e-28 3.5667e-26 0)
(8.32478e-28 3.50572e-26 0)
(5.27306e-28 3.24522e-26 0)
(7.81646e-29 2.70006e-26 0)
(-4.34785e-28 2.18266e-26 0)
(-4.86775e-28 2.13298e-26 0)
(-5.86198e-28 2.61194e-26 0)
(-4.04563e-28 3.23471e-26 0)
(-1.58593e-28 3.58959e-26 0)
(1.39871e-28 3.48595e-26 0)
(2.66267e-28 2.90664e-26 0)
(1.4976e-28 2.03027e-26 0)
(-2.15843e-29 1.26985e-26 0)
(1.1965e-28 1.04159e-26 0)
(3.40581e-28 1.44854e-26 0)
(3.74647e-28 2.23045e-26 0)
(4.74502e-28 2.9594e-26 0)
(7.234e-28 3.30041e-26 0)
(6.99671e-28 3.21688e-26 0)
(3.92904e-28 2.90448e-26 0)
(8.84483e-29 2.53973e-26 0)
(-1.84175e-28 2.20327e-26 0)
(-2.22157e-28 1.92727e-26 0)
(-1.04428e-28 1.74337e-26 0)
(-4.57991e-28 1.77935e-26 0)
(-9.86209e-28 2.17544e-26 0)
(-8.44253e-28 2.81963e-26 0)
(-2.649e-28 3.33919e-26 0)
(1.04691e-28 3.38493e-26 0)
(9.73336e-30 2.88941e-26 0)
(-5.00571e-28 2.11184e-26 0)
(-9.03835e-28 1.45285e-26 0)
(-8.48265e-28 1.24031e-26 0)
(-7.78951e-28 1.59114e-26 0)
(-1.08741e-27 2.33331e-26 0)
(-1.29533e-27 3.10872e-26 0)
(-9.45192e-28 3.61681e-26 0)
(-3.78464e-28 3.76217e-26 0)
(1.3585e-28 3.60852e-26 0)
(5.85197e-28 3.29685e-26 0)
(5.39266e-28 3.0159e-26 0)
(9.74389e-29 2.90132e-26 0)
(2.69969e-28 2.95037e-26 0)
(1.09169e-27 3.12168e-26 0)
(1.37983e-27 3.39858e-26 0)
(8.14406e-28 3.70649e-26 0)
(4.05183e-28 3.89668e-26 0)
(5.04051e-28 3.87207e-26 0)
(7.55436e-28 3.72071e-26 0)
(7.67538e-28 3.65897e-26 0)
(8.52592e-28 3.82219e-26 0)
(8.48288e-28 3.82991e-26 0)
(2.99201e-28 3.83992e-26 0)
(-2.46915e-26 -1.38521e-25 0)
(-1.66193e-26 2.83599e-26 0)
(2.87559e-27 3.63676e-26 0)
(-2.72775e-27 4.49049e-26 0)
(-4.32887e-28 4.71771e-26 0)
(-2.15379e-27 4.55117e-26 0)
(-3.9224e-28 4.34864e-26 0)
(-4.07022e-28 4.33028e-26 0)
(8.30829e-28 4.36602e-26 0)
(4.3501e-28 4.16204e-26 0)
(-9.16779e-29 3.60337e-26 0)
(-5.89677e-28 3.02241e-26 0)
(-4.97242e-28 2.88869e-26 0)
(-5.06166e-28 3.2507e-26 0)
(-3.17602e-28 3.68805e-26 0)
(-1.56036e-28 3.80384e-26 0)
(2.39924e-29 3.49059e-26 0)
(3.45681e-29 2.82689e-26 0)
(-1.24855e-28 2.03594e-26 0)
(-1.96478e-28 1.48879e-26 0)
(1.74488e-28 1.46761e-26 0)
(5.92775e-28 1.90875e-26 0)
(6.72107e-28 2.47203e-26 0)
(7.05396e-28 2.81183e-26 0)
(8.50335e-28 2.79033e-26 0)
(7.16415e-28 2.56186e-26 0)
(3.43448e-28 2.39806e-26 0)
(2.11992e-29 2.40387e-26 0)
(-2.76868e-28 2.49592e-26 0)
(-3.21729e-28 2.52383e-26 0)
(-1.56672e-28 2.37653e-26 0)
(-4.67726e-28 2.14798e-26 0)
(-9.55984e-28 2.09594e-26 0)
(-7.52812e-28 2.33245e-26 0)
(-1.95793e-28 2.69927e-26 0)
(1.09985e-29 2.92585e-26 0)
(-2.90683e-28 2.83494e-26 0)
(-9.24823e-28 2.45909e-26 0)
(-1.26198e-27 2.00076e-26 0)
(-9.46794e-28 1.73511e-26 0)
(-6.09259e-28 1.87553e-26 0)
(-8.39176e-28 2.397e-26 0)
(-1.13403e-27 3.05113e-26 0)
(-8.91379e-28 3.59151e-26 0)
(-3.96028e-28 3.92662e-26 0)
(9.97559e-29 4.06789e-26 0)
(5.90345e-28 4.05979e-26 0)
(5.64654e-28 3.99643e-26 0)
(1.01493e-28 3.96305e-26 0)
(3.34522e-28 3.96194e-26 0)
(1.29893e-27 3.99962e-26 0)
(1.63132e-27 4.12093e-26 0)
(9.57407e-28 4.30297e-26 0)
(4.4084e-28 4.42786e-26 0)
(5.04305e-28 4.39455e-26 0)
(7.67119e-28 4.25769e-26 0)
(8.03077e-28 4.20476e-26 0)
(9.19432e-28 4.37821e-26 0)
(9.17107e-28 4.37844e-26 0)
(3.19118e-28 4.40696e-26 0)
(-2.71805e-26 -1.35982e-25 0)
(-1.83414e-26 2.92583e-26 0)
(3.14438e-27 3.74826e-26 0)
(-2.91864e-27 4.64423e-26 0)
(-4.56701e-28 4.85506e-26 0)
(-2.42456e-27 4.69318e-26 0)
(-4.67206e-28 4.5699e-26 0)
(-4.5931e-28 4.75719e-26 0)
(9.00857e-28 5.08845e-26 0)
(3.87956e-28 5.16454e-26 0)
(-2.61307e-28 4.75366e-26 0)
(-7.85812e-28 4.13233e-26 0)
(-5.83399e-28 3.77891e-26 0)
(-5.29083e-28 3.78944e-26 0)
(-3.45435e-28 3.82763e-26 0)
(-2.42689e-28 3.63015e-26 0)
(-1.14173e-28 3.22587e-26 0)
(-1.3552e-28 2.74776e-26 0)
(-2.77773e-28 2.34614e-26 0)
(-2.51508e-28 2.21217e-26 0)
(2.70183e-28 2.4075e-26 0)
(7.62708e-28 2.7172e-26 0)
(7.91019e-28 2.82885e-26 0)
(7.4569e-28 2.60892e-26 0)
(8.64451e-28 2.18494e-26 0)
(7.46901e-28 1.87382e-26 0)
(4.22867e-28 1.94089e-26 0)
(1.40941e-28 2.36331e-26 0)
(-1.96704e-28 2.90555e-26 0)
(-3.30882e-28 3.28196e-26 0)
(-2.46732e-28 3.24848e-26 0)
(-6.39132e-28 2.8018e-26 0)
(-1.14626e-27 2.22872e-26 0)
(-8.36524e-28 1.84865e-26 0)
(-1.62179e-28 1.82425e-26 0)
(4.74164e-29 2.1362e-26 0)
(-3.61048e-28 2.60461e-26 0)
(-1.13939e-27 2.97979e-26 0)
(-1.53234e-27 3.07208e-26 0)
(-1.10177e-27 2.90273e-26 0)
(-5.8226e-28 2.70563e-26 0)
(-7.32706e-28 2.68604e-26 0)
(-1.04628e-27 2.87225e-26 0)
(-8.13241e-28 3.21368e-26 0)
(-2.9996e-28 3.68094e-26 0)
(2.2383e-28 4.21417e-26 0)
(7.43822e-28 4.69581e-26 0)
(6.80528e-28 5.04132e-26 0)
(1.17918e-28 5.20786e-26 0)
(3.38124e-28 5.15578e-26 0)
(1.40048e-27 4.94055e-26 0)
(1.77613e-27 4.7194e-26 0)
(1.03048e-27 4.60307e-26 0)
(4.53675e-28 4.5784e-26 0)
(5.11261e-28 4.55936e-26 0)
(7.87773e-28 4.51285e-26 0)
(8.3824e-28 4.51111e-26 0)
(9.77889e-28 4.66598e-26 0)
(9.90327e-28 4.62952e-26 0)
(3.49996e-28 4.72627e-26 0)
(-2.9491e-26 -1.34143e-25 0)
(-1.99826e-26 2.80539e-26 0)
(3.33388e-27 3.62159e-26 0)
(-3.12315e-27 4.52738e-26 0)
(-5.1073e-28 4.68151e-26 0)
(-2.6893e-27 4.49361e-26 0)
(-4.87383e-28 4.43356e-26 0)
(-3.924e-28 4.83819e-26 0)
(1.11069e-27 5.51208e-26 0)
(4.48433e-28 5.93992e-26 0)
(-4.04011e-28 5.73618e-26 0)
(-1.04737e-27 5.08079e-26 0)
(-8.08608e-28 4.45583e-26 0)
(-7.21137e-28 4.05422e-26 0)
(-5.14979e-28 3.69862e-26 0)
(-3.84294e-28 3.30063e-26 0)
(-1.92501e-28 2.98879e-26 0)
(-1.54178e-28 2.85139e-26 0)
(-2.54258e-28 2.87467e-26 0)
(-1.88292e-28 3.05535e-26 0)
(3.61118e-28 3.3151e-26 0)
(7.98e-28 3.41467e-26 0)
(7.07797e-28 3.15166e-26 0)
(6.1e-28 2.57662e-26 0)
(7.9792e-28 1.95924e-26 0)
(8.07544e-28 1.64443e-26 0)
(6.1178e-28 1.83181e-26 0)
(4.02312e-28 2.41602e-26 0)
(1.75725e-29 3.12457e-26 0)
(-2.52777e-28 3.66194e-26 0)
(-3.40334e-28 3.73597e-26 0)
(-9.27979e-28 3.25374e-26 0)
(-1.53947e-27 2.44727e-26 0)
(-1.12042e-27 1.69836e-26 0)
(-2.10133e-28 1.36438e-26 0)
(1.9138e-28 1.65424e-26 0)
(-1.69814e-28 2.48218e-26 0)
(-1.06925e-27 3.45747e-26 0)
(-1.64247e-27 4.07846e-26 0)
(-1.29111e-27 4.08654e-26 0)
(-7.4146e-28 3.64895e-26 0)
(-8.52691e-28 3.1312e-26 0)
(-1.11752e-27 2.82049e-26 0)
(-7.67646e-28 2.87755e-26 0)
(-1.08823e-28 3.35906e-26 0)
(5.23073e-28 4.16099e-26 0)
(1.08128e-27 5.03361e-26 0)
(9.26408e-28 5.73916e-26 0)
(1.72416e-28 6.11438e-26 0)
(2.78939e-28 6.05853e-26 0)
(1.36503e-27 5.64013e-26 0)
(1.76749e-27 5.0986e-26 0)
(9.95221e-28 4.67042e-26 0)
(4.3247e-28 4.46517e-26 0)
(5.40332e-28 4.44136e-26 0)
(8.38061e-28 4.49004e-26 0)
(8.75333e-28 4.54563e-26 0)
(1.01414e-27 4.65966e-26 0)
(1.06204e-27 4.56243e-26 0)
(3.94122e-28 4.71247e-26 0)
(-3.16486e-26 -1.32875e-25 0)
(-2.15703e-26 2.48874e-26 0)
(3.44126e-27 3.28916e-26 0)
(-3.34354e-27 4.21653e-26 0)
(-5.96862e-28 4.34753e-26 0)
(-2.95308e-27 4.16835e-26 0)
(-4.65222e-28 4.1505e-26 0)
(-2.22504e-28 4.66986e-26 0)
(1.44834e-27 5.53184e-26 0)
(6.12367e-28 6.1708e-26 0)
(-5.19601e-28 6.10196e-26 0)
(-1.37319e-27 5.42884e-26 0)
(-1.16441e-27 4.63451e-26 0)
(-1.05244e-27 4.00012e-26 0)
(-7.67556e-28 3.48289e-26 0)
(-5.08358e-28 3.10736e-26 0)
(-1.61184e-28 3.00709e-26 0)
(-2.89974e-29 3.14582e-26 0)
(-1.22035e-28 3.34676e-26 0)
(-9.4054e-29 3.52981e-26 0)
(4.03802e-28 3.66671e-26 0)
(7.41987e-28 3.6405e-26 0)
(5.41086e-28 3.35242e-26 0)
(4.29779e-28 2.86581e-26 0)
(7.22336e-28 2.36302e-26 0)
(8.71461e-28 2.07233e-26 0)
(7.96466e-28 2.13599e-26 0)
(6.52496e-28 2.4849e-26 0)
(2.32234e-28 2.95119e-26 0)
(-1.52611e-28 3.34845e-26 0)
(-4.04588e-28 3.43864e-26 0)
(-1.20665e-27 3.114e-26 0)
(-1.96129e-27 2.53334e-26 0)
(-1.4646e-27 1.97063e-26 0)
(-3.04684e-28 1.70344e-26 0)
(3.60479e-28 1.95361e-26 0)
(1.3877e-28 2.73294e-26 0)
(-8.35222e-28 3.74418e-26 0)
(-1.63149e-27 4.48373e-26 0)
(-1.47191e-27 4.59958e-26 0)
(-1.00532e-27 4.16536e-26 0)
(-1.12933e-27 3.52734e-26 0)
(-1.32173e-27 3.02945e-26 0)
(-7.81119e-28 2.91597e-26 0)
(1.0832e-28 3.3029e-26 0)
(9.09014e-28 4.09716e-26 0)
(1.52376e-27 5.02201e-26 0)
(1.25765e-27 5.80388e-26 0)
(2.65441e-28 6.24864e-26 0)
(1.94876e-28 6.22757e-26 0)
(1.24613e-27 5.78835e-26 0)
(1.64894e-27 5.16257e-26 0)
(8.68553e-28 4.60305e-26 0)
(3.6895e-28 4.27051e-26 0)
(5.74422e-28 4.18066e-26 0)
(9.06983e-28 4.23154e-26 0)
(9.10229e-28 4.29605e-26 0)
(1.02602e-27 4.37549e-26 0)
(1.12443e-27 4.24696e-26 0)
(4.44584e-28 4.41921e-26 0)
(-3.36784e-26 -1.31974e-25 0)
(-2.31298e-26 2.03505e-26 0)
(3.47196e-27 2.80762e-26 0)
(-3.56036e-27 3.78272e-26 0)
(-6.87474e-28 3.96617e-26 0)
(-3.20522e-27 3.87499e-26 0)
(-4.33476e-28 3.88564e-26 0)
(-2.71047e-29 4.36105e-26 0)
(1.81949e-27 5.14514e-26 0)
(8.08011e-28 5.73079e-26 0)
(-6.28206e-28 5.65016e-26 0)
(-1.72285e-27 4.99836e-26 0)
(-1.55909e-27 4.25499e-26 0)
(-1.40341e-27 3.71833e-26 0)
(-9.91876e-28 3.36272e-26 0)
(-5.5441e-28 3.19775e-26 0)
(-4.27874e-29 3.27693e-26 0)
(1.33902e-28 3.44412e-26 0)
(-2.65323e-29 3.46584e-26 0)
(-7.61566e-29 3.35849e-26 0)
(3.98586e-28 3.30367e-26 0)
(7.17539e-28 3.35877e-26 0)
(4.80134e-28 3.43199e-26 0)
(3.66291e-28 3.40917e-26 0)
(6.9695e-28 3.21786e-26 0)
(8.80366e-28 2.91567e-26 0)
(8.37393e-28 2.6476e-26 0)
(7.24938e-28 2.48246e-26 0)
(3.00458e-28 2.43188e-26 0)
(-1.18506e-28 2.46455e-26 0)
(-4.30523e-28 2.45789e-26 0)
(-1.34566e-27 2.37647e-26 0)
(-2.18842e-27 2.35217e-26 0)
(-1.64443e-27 2.46427e-26 0)
(-3.38757e-28 2.67899e-26 0)
(4.75928e-28 2.97716e-26 0)
(3.36847e-28 3.3741e-26 0)
(-6.89386e-28 3.82461e-26 0)
(-1.64279e-27 4.14633e-26 0)
(-1.61968e-27 4.17332e-26 0)
(-1.22016e-27 3.9525e-26 0)
(-1.37606e-27 3.65304e-26 0)
(-1.53109e-27 3.4203e-26 0)
(-8.3213e-28 3.3801e-26 0)
(2.69013e-28 3.63403e-26 0)
(1.23361e-27 4.1468e-26 0)
(1.91317e-27 4.73547e-26 0)
(1.55938e-27 5.23259e-26 0)
(3.60807e-28 5.53193e-26 0)
(1.35532e-28 5.54023e-26 0)
(1.15298e-27 5.27077e-26 0)
(1.53738e-27 4.85502e-26 0)
(7.2195e-28 4.42455e-26 0)
(2.66627e-28 4.07726e-26 0)
(5.71624e-28 3.86944e-26 0)
(9.53662e-28 3.80009e-26 0)
(9.33717e-28 3.80322e-26 0)
(1.03135e-27 3.87767e-26 0)
(1.18647e-27 3.79438e-26 0)
(4.97378e-28 3.98049e-26 0)
(-3.55949e-26 -1.3133e-25 0)
(-2.46781e-26 1.52981e-26 0)
(3.42837e-27 2.25362e-26 0)
(-3.75162e-27 3.27726e-26 0)
(-7.46616e-28 3.55976e-26 0)
(-3.42869e-27 3.61461e-26 0)
(-4.28047e-28 3.64458e-26 0)
(1.01265e-28 3.95781e-26 0)
(2.10693e-27 4.46106e-26 0)
(9.43614e-28 4.7855e-26 0)
(-7.52566e-28 4.57722e-26 0)
(-2.03364e-27 3.9932e-26 0)
(-1.86471e-27 3.50963e-26 0)
(-1.63204e-27 3.35419e-26 0)
(-1.09287e-27 3.37751e-26 0)
(-5.17038e-28 3.45973e-26 0)
(7.60363e-29 3.55722e-26 0)
(1.97489e-28 3.48968e-26 0)
(-8.79568e-29 3.11765e-26 0)
(-1.78211e-28 2.66399e-26 0)
(3.9935e-28 2.52508e-26 0)
(8.46343e-28 2.84264e-26 0)
(6.52836e-28 3.41802e-26 0)
(4.98185e-28 3.90091e-26 0)
(7.31175e-28 3.98777e-26 0)
(7.90419e-28 3.63178e-26 0)
(6.66799e-28 3.02757e-26 0)
(5.48374e-28 2.37885e-26 0)
(1.553e-28 1.83857e-26 0)
(-2.04187e-28 1.49491e-26 0)
(-4.35597e-28 1.33789e-26 0)
(-1.29637e-27 1.44094e-26 0)
(-2.09878e-27 1.96611e-26 0)
(-1.50583e-27 2.83408e-26 0)
(-2.08647e-28 3.6704e-26 0)
(5.16576e-28 4.11573e-26 0)
(2.69266e-28 4.08239e-26 0)
(-8.46276e-28 3.75509e-26 0)
(-1.83439e-27 3.37505e-26 0)
(-1.7536e-27 3.12929e-26 0)
(-1.26726e-27 3.15185e-26 0)
(-1.41047e-27 3.41819e-26 0)
(-1.59414e-27 3.74766e-26 0)
(-8.63781e-28 3.99722e-26 0)
(3.23534e-28 4.16525e-26 0)
(1.37142e-27 4.27644e-26 0)
(2.10035e-27 4.30941e-26 0)
(1.71158e-27 4.29434e-26 0)
(4.06294e-28 4.29384e-26 0)
(1.29788e-28 4.29377e-26 0)
(1.17778e-27 4.26885e-26 0)
(1.54453e-27 4.20864e-26 0)
(6.35785e-28 4.05999e-26 0)
(1.44962e-28 3.79462e-26 0)
(5.02109e-28 3.48172e-26 0)
(9.41755e-28 3.25451e-26 0)
(9.40627e-28 3.17581e-26 0)
(1.05775e-27 3.28215e-26 0)
(1.26928e-27 3.30958e-26 0)
(5.54234e-28 3.50745e-26 0)
(-3.73953e-26 -1.3101e-25 0)
(-2.62161e-26 1.05352e-26 0)
(3.30211e-27 1.70762e-26 0)
(-3.91854e-27 2.73239e-26 0)
(-7.63664e-28 3.07413e-26 0)
(-3.61795e-27 3.25681e-26 0)
(-4.67519e-28 3.29788e-26 0)
(1.16808e-28 3.44379e-26 0)
(2.25189e-27 3.65907e-26 0)
(9.72691e-28 3.7124e-26 0)
(-8.99747e-28 3.37511e-26 0)
(-2.25935e-27 2.88767e-26 0)
(-1.9981e-27 2.72566e-26 0)
(-1.66415e-27 3.00376e-26 0)
(-1.05319e-27 3.38132e-26 0)
(-4.50086e-28 3.58264e-26 0)
(1.03438e-28 3.53039e-26 0)
(9.23322e-29 3.14536e-26 0)
(-3.08996e-28 2.47058e-26 0)
(-3.42006e-28 1.8946e-26 0)
(4.74517e-28 1.8651e-26 0)
(1.15275e-27 2.44241e-26 0)
(1.02411e-27 3.28911e-26 0)
(7.64003e-28 3.95354e-26 0)
(7.89073e-28 4.10499e-26 0)
(6.20766e-28 3.71896e-26 0)
(3.49443e-28 3.01827e-26 0)
(1.99969e-28 2.22122e-26 0)
(-1.46109e-28 1.49907e-26 0)
(-3.92102e-28 9.80666e-27 0)
(-4.47515e-28 7.17297e-27 0)
(-1.12159e-27 8.53327e-27 0)
(-1.7619e-27 1.5953e-26 0)
(-1.08892e-27 2.82072e-26 0)
(9.37423e-29 4.00166e-26 0)
(5.21308e-28 4.5797e-26 0)
(-3.70312e-29 4.34858e-26 0)
(-1.3225e-27 3.5559e-26 0)
(-2.25819e-27 2.67195e-26 0)
(-1.91979e-27 2.14949e-26 0)
(-1.14809e-27 2.26797e-26 0)
(-1.18318e-27 2.94202e-26 0)
(-1.43963e-27 3.76513e-26 0)
(-8.23342e-28 4.33845e-26 0)
(2.81978e-28 4.50992e-26 0)
(1.29171e-27 4.31207e-26 0)
(2.03335e-27 3.85787e-26 0)
(1.66477e-27 3.36976e-26 0)
(3.71102e-28 3.07655e-26 0)
(1.69419e-28 3.03179e-26 0)
(1.33096e-27 3.16711e-26 0)
(1.69372e-27 3.35842e-26 0)
(6.39171e-28 3.42393e-26 0)
(2.976e-29 3.25057e-26 0)
(3.82754e-28 2.9129e-26 0)
(8.82401e-28 2.63207e-26 0)
(9.44837e-28 2.5517e-26 0)
(1.12418e-27 2.72663e-26 0)
(1.38118e-27 2.86574e-26 0)
(6.1317e-28 3.03604e-26 0)
(-3.90577e-26 -1.3117e-25 0)
(-2.77242e-26 6.51882e-27 0)
(3.07417e-27 1.22336e-26 0)
(-4.09729e-27 2.16653e-26 0)
(-7.70936e-28 2.45217e-26 0)
(-3.78738e-27 2.67674e-26 0)
(-5.41607e-28 2.7237e-26 0)
(5.24924e-29 2.80319e-26 0)
(2.2971e-27 2.91015e-26 0)
(9.3057e-28 2.88096e-26 0)
(-1.05211e-27 2.53472e-26 0)
(-2.40168e-27 2.14514e-26 0)
(-1.98201e-27 2.17839e-26 0)
(-1.54953e-27 2.66709e-26 0)
(-9.47732e-28 3.14254e-26 0)
(-4.26393e-28 3.2648e-26 0)
(1.67269e-29 3.02666e-26 0)
(-1.19525e-28 2.51007e-26 0)
(-5.61377e-28 1.8853e-26 0)
(-4.49722e-28 1.525e-26 0)
(6.43049e-28 1.71225e-26 0)
(1.52412e-27 2.32179e-26 0)
(1.40397e-27 2.97246e-26 0)
(1.00391e-27 3.35541e-26 0)
(8.28722e-28 3.34926e-26 0)
(4.62775e-28 3.03975e-26 0)
(5.92184e-29 2.59574e-26 0)
(-1.33134e-28 2.09224e-26 0)
(-4.53923e-28 1.59086e-26 0)
(-6.01963e-28 1.18711e-26 0)
(-4.84997e-28 9.27217e-27 0)
(-9.57724e-28 9.44285e-27 0)
(-1.40604e-27 1.45497e-26 0)
(-6.25994e-28 2.40626e-26 0)
(4.45623e-28 3.38695e-26 0)
(5.41593e-28 3.92828e-26 0)
(-3.91893e-28 3.81142e-26 0)
(-1.90497e-27 3.17408e-26 0)
(-2.79578e-27 2.3653e-26 0)
(-2.13998e-27 1.80194e-26 0)
(-9.81727e-28 1.83697e-26 0)
(-8.24276e-28 2.49199e-26 0)
(-1.14034e-27 3.39866e-26 0)
(-7.07276e-28 4.09541e-26 0)
(2.03947e-28 4.32519e-26 0)
(1.0777e-27 4.05757e-26 0)
(1.79192e-27 3.42721e-26 0)
(1.47442e-27 2.74281e-26 0)
(2.68259e-28 2.31385e-26 0)
(2.1515e-28 2.20898e-26 0)
(1.53219e-27 2.32185e-26 0)
(1.89953e-27 2.49398e-26 0)
(6.85098e-28 2.54442e-26 0)
(-6.49676e-29 2.38464e-26 0)
(2.74643e-28 2.11388e-26 0)
(8.44026e-28 1.95987e-26 0)
(9.8591e-28 2.02457e-26 0)
(1.23292e-27 2.30448e-26 0)
(1.49999e-27 2.49856e-26 0)
(6.58992e-28 2.55738e-26 0)
(-4.05501e-26 -1.31845e-25 0)
(-2.91706e-26 3.22962e-27 0)
(2.72195e-27 8.04736e-27 0)
(-4.34213e-27 1.59488e-26 0)
(-8.24049e-28 1.71781e-26 0)
(-3.96114e-27 1.9019e-26 0)
(-6.20171e-28 1.95387e-26 0)
(-6.27284e-30 2.08478e-26 0)
(2.35654e-27 2.30285e-26 0)
(9.14526e-28 2.4384e-26 0)
(-1.17329e-27 2.24954e-26 0)
(-2.50853e-27 1.94416e-26 0)
(-1.93857e-27 1.94691e-26 0)
(-1.44172e-27 2.28514e-26 0)
(-8.99644e-28 2.52704e-26 0)
(-4.80363e-28 2.43782e-26 0)
(-1.02086e-28 2.15849e-26 0)
(-2.67313e-28 1.86681e-26 0)
(-6.6862e-28 1.67376e-26 0)
(-4.18401e-28 1.72884e-26 0)
(8.38102e-28 2.04474e-26 0)
(1.76891e-27 2.36383e-26 0)
(1.57088e-27 2.43019e-26 0)
(1.07381e-27 2.25614e-26 0)
(8.42383e-28 2.02436e-26 0)
(4.32748e-28 1.91788e-26 0)
(-2.14685e-29 1.97454e-26 0)
(-2.62235e-28 2.04573e-26 0)
(-6.12287e-28 2.02951e-26 0)
(-7.39279e-28 1.94863e-26 0)
(-5.49937e-28 1.79225e-26 0)
(-9.35216e-28 1.61376e-26 0)
(-1.28092e-27 1.59647e-26 0)
(-4.04547e-28 1.80592e-26 0)
(6.54297e-28 2.12026e-26 0)
(5.87461e-28 2.39412e-26 0)
(-5.77958e-28 2.54922e-26 0)
(-2.28384e-27 2.5624e-26 0)
(-3.21221e-27 2.40791e-26 0)
(-2.36993e-27 2.15597e-26 0)
(-9.13485e-28 2.05768e-26 0)
(-5.65976e-28 2.30228e-26 0)
(-8.8585e-28 2.80039e-26 0)
(-5.80491e-28 3.28907e-26 0)
(1.55756e-28 3.54337e-26 0)
(8.79238e-28 3.4417e-26 0)
(1.5438e-27 3.00316e-26 0)
(1.26676e-27 2.46137e-26 0)
(1.42445e-28 2.08781e-26 0)
(2.19629e-28 1.92317e-26 0)
(1.66644e-27 1.85478e-26 0)
(2.03216e-27 1.77566e-26 0)
(6.88314e-28 1.61143e-26 0)
(-1.45511e-28 1.37767e-26 0)
(2.39433e-28 1.21218e-26 0)
(9.07496e-28 1.29493e-26 0)
(1.11122e-27 1.60216e-26 0)
(1.37823e-27 2.0097e-26 0)
(1.58655e-27 2.2046e-26 0)
(6.68052e-28 2.07979e-26 0)
(-4.18468e-26 -1.32766e-25 0)
(-3.05292e-26 2.85366e-28 0)
(2.23162e-27 4.18284e-27 0)
(-4.68621e-27 1.04972e-26 0)
(-9.55447e-28 1.00595e-26 0)
(-4.15246e-27 1.14608e-26 0)
(-6.8029e-28 1.20208e-26 0)
(7.9272e-30 1.41225e-26 0)
(2.52964e-27 1.82212e-26 0)
(1.01828e-27 2.24635e-26 0)
(-1.22687e-27 2.31928e-26 0)
(-2.63826e-27 2.09121e-26 0)
(-2.0118e-27 1.89678e-26 0)
(-1.50486e-27 1.82269e-26 0)
(-1.00255e-27 1.63664e-26 0)
(-5.77246e-28 1.35394e-26 0)
(-1.06973e-28 1.26487e-26 0)
(-1.7876e-28 1.485e-26 0)
(-5.31374e-28 1.86787e-26 0)
(-2.71561e-28 2.25375e-26 0)
(9.39366e-28 2.47141e-26 0)
(1.74467e-27 2.30976e-26 0)
(1.4291e-27 1.75918e-26 0)
(9.509e-28 1.1325e-26 0)
(8.65395e-28 8.01144e-27 0)
(5.95355e-28 9.4952e-27 0)
(1.81739e-28 1.47824e-26 0)
(-1.11156e-28 2.07393e-26 0)
(-5.50269e-28 2.52161e-26 0)
(-7.52966e-28 2.77588e-26 0)
(-6.32355e-28 2.74953e-26 0)
(-1.1051e-27 2.40305e-26 0)
(-1.50358e-27 1.87535e-26 0)
(-5.82245e-28 1.32467e-26 0)
(5.81776e-28 8.9197e-27 0)
(6.14025e-28 7.72319e-27 0)
(-5.06051e-28 1.10695e-26 0)
(-2.26639e-27 1.80296e-26 0)
(-3.30872e-27 2.47759e-26 0)
(-2.51461e-27 2.75886e-26 0)
(-1.00438e-27 2.64234e-26 0)
(-5.86222e-28 2.39053e-26 0)
(-8.67447e-28 2.23696e-26 0)
(-5.46427e-28 2.26938e-26 0)
(1.6363e-28 2.44506e-26 0)
(8.22278e-28 2.5975e-26 0)
(1.44296e-27 2.55253e-26 0)
(1.15549e-27 2.3409e-26 0)
(3.37475e-29 2.1161e-26 0)
(1.55166e-28 1.89627e-26 0)
(1.66793e-27 1.61755e-26 0)
(2.02254e-27 1.27197e-26 0)
(6.02336e-28 8.99608e-27 0)
(-2.26112e-28 5.93347e-27 0)
(2.88792e-28 5.00028e-27 0)
(1.09496e-27 7.54022e-27 0)
(1.33621e-27 1.24329e-26 0)
(1.55665e-27 1.75157e-26 0)
(1.62117e-27 1.941e-26 0)
(6.28022e-28 1.64763e-26 0)
(-4.29436e-26 -1.3339e-25 0)
(-3.17934e-26 -2.70998e-27 0)
(1.61233e-27 4.05533e-28 0)
(-5.10874e-27 5.95264e-27 0)
(-1.13947e-27 5.05988e-27 0)
(-4.35028e-27 6.90934e-27 0)
(-7.31531e-28 7.42969e-27 0)
(8.12206e-29 9.30279e-27 0)
(2.81956e-27 1.39627e-26 0)
(1.26389e-27 2.01276e-26 0)