/*--------------------------------*- C++ -*----------------------------------*\
| =========                 |                                                 |
| \\      /  F ield         | foam-extend: Open Source CFD                    |
|  \\    /   O peration     | Version:     4.0                                |
|   \\  /    A nd           | Web:         http://www.foam-extend.org         |
|    \\/     M anipulation  |                                                 |
\*---------------------------------------------------------------------------*/
FoamFile
{
    version     2.0;
    format      ascii;
    class       volScalarField;
    location    "1810";
    object      cPlus;
}
// * * * * * * * * * * * * * * * * * * * * * * * * * * * * * * * * * * * * * //

dimensions      [0 0 0 0 0 0 0];

internalField   nonuniform List<scalar> 
6960
(
0.332071
0.332061
0.33205
0.332038
0.332026
0.332016
0.332006
0.331997
0.331989
0.331981
0.331975
0.331969
0.331964
0.331959
0.331955
0.331951
0.331948
0.331945
0.331942
0.33194
0.331938
0.331937
0.331936
0.331934
0.331933
0.331933
0.331932
0.331932
0.331931
0.331931
0.331931
0.331931
0.331932
0.331932
0.331933
0.331933
0.331934
0.331936
0.331937
0.331938
0.33194
0.331942
0.331945
0.331948
0.331951
0.331955
0.331959
0.331964
0.331969
0.331975
0.331981
0.331989
0.331997
0.332006
0.332016
0.332026
0.332038
0.33205
0.332061
0.332071
0.111948
0.111941
0.111932
0.111923
0.111914
0.111906
0.111899
0.111892
0.111886
0.11188
0.111876
0.111871
0.111867
0.111864
0.11186
0.111858
0.111855
0.111853
0.111851
0.11185
0.111848
0.111847
0.111846
0.111845
0.111844
0.111844
0.111843
0.111843
0.111843
0.111843
0.111843
0.111843
0.111843
0.111843
0.111844
0.111844
0.111845
0.111846
0.111847
0.111848
0.11185
0.111851
0.111853
0.111855
0.111858
0.11186
0.111864
0.111867
0.111871
0.111876
0.11188
0.111886
0.111892
0.111899
0.111906
0.111914
0.111923
0.111932
0.111941
0.111948
0.0447407
0.0447367
0.0447315
0.0447262
0.044721
0.0447162
0.0447118
0.0447078
0.0447041
0.0447008
0.0446978
0.0446951
0.0446928
0.0446907
0.0446888
0.0446871
0.0446857
0.0446844
0.0446833
0.0446823
0.0446815
0.0446808
0.0446802
0.0446797
0.0446792
0.0446789
0.0446786
0.0446784
0.0446783
0.0446782
0.0446782
0.0446783
0.0446784
0.0446786
0.0446789
0.0446792
0.0446797
0.0446802
0.0446808
0.0446815
0.0446823
0.0446833
0.0446844
0.0446857
0.0446871
0.0446888
0.0446907
0.0446928
0.0446951
0.0446978
0.0447008
0.0447041
0.0447078
0.0447118
0.0447162
0.044721
0.0447262
0.0447315
0.0447367
0.0447407
0.0202702
0.0202684
0.0202659
0.0202633
0.0202607
0.0202583
0.0202561
0.0202541
0.0202523
0.0202507
0.0202492
0.0202478
0.0202467
0.0202456
0.0202447
0.0202439
0.0202431
0.0202425
0.0202419
0.0202415
0.020241
0.0202407
0.0202404
0.0202401
0.0202399
0.0202397
0.0202396
0.0202395
0.0202395
0.0202394
0.0202394
0.0202395
0.0202395
0.0202396
0.0202397
0.0202399
0.0202401
0.0202404
0.0202407
0.020241
0.0202415
0.0202419
0.0202425
0.0202431
0.0202439
0.0202447
0.0202456
0.0202467
0.0202478
0.0202492
0.0202507
0.0202523
0.0202541
0.0202561
0.0202583
0.0202607
0.0202633
0.0202659
0.0202684
0.0202702
0.0108709
0.0108704
0.0108696
0.0108686
0.0108677
0.0108668
0.010866
0.0108653
0.0108646
0.010864
0.0108635
0.010863
0.0108625
0.0108622
0.0108618
0.0108615
0.0108612
0.010861
0.0108608
0.0108606
0.0108605
0.0108603
0.0108602
0.0108601
0.0108601
0.01086
0.01086
0.0108599
0.0108599
0.0108599
0.0108599
0.0108599
0.0108599
0.01086
0.01086
0.0108601
0.0108601
0.0108602
0.0108603
0.0108605
0.0108606
0.0108608
0.010861
0.0108612
0.0108615
0.0108618
0.0108622
0.0108625
0.010863
0.0108635
0.010864
0.0108646
0.0108653
0.010866
0.0108668
0.0108677
0.0108686
0.0108696
0.0108704
0.0108709
0.00724579
0.0072461
0.00724618
0.00724619
0.00724618
0.00724615
0.00724613
0.00724611
0.00724608
0.00724606
0.00724604
0.00724603
0.00724601
0.007246
0.00724598
0.00724597
0.00724596
0.00724595
0.00724594
0.00724594
0.00724593
0.00724592
0.00724592
0.00724592
0.00724591
0.00724591
0.00724591
0.00724591
0.0072459
0.0072459
0.0072459
0.0072459
0.00724591
0.00724591
0.00724591
0.00724591
0.00724592
0.00724592
0.00724592
0.00724593
0.00724594
0.00724594
0.00724595
0.00724596
0.00724597
0.00724598
0.007246
0.00724601
0.00724603
0.00724604
0.00724606
0.00724608
0.00724611
0.00724613
0.00724615
0.00724618
0.00724619
0.00724618
0.0072461
0.00724579
0.00587911
0.00587982
0.00588038
0.00588088
0.00588133
0.00588175
0.00588212
0.00588247
0.00588278
0.00588306
0.00588331
0.00588353
0.00588373
0.00588391
0.00588406
0.0058842
0.00588432
0.00588443
0.00588452
0.0058846
0.00588467
0.00588473
0.00588478
0.00588482
0.00588486
0.00588488
0.00588491
0.00588492
0.00588493
0.00588494
0.00588494
0.00588493
0.00588492
0.00588491
0.00588488
0.00588486
0.00588482
0.00588478
0.00588473
0.00588467
0.0058846
0.00588452
0.00588443
0.00588432
0.0058842
0.00588406
0.00588391
0.00588373
0.00588353
0.00588331
0.00588306
0.00588278
0.00588247
0.00588212
0.00588175
0.00588133
0.00588088
0.00588038
0.00587982
0.00587911
0.00539078
0.00539168
0.00539247
0.00539321
0.00539389
0.00539451
0.00539509
0.00539561
0.00539608
0.0053965
0.00539688
0.00539723
0.00539753
0.0053978
0.00539804
0.00539825
0.00539843
0.00539859
0.00539874
0.00539886
0.00539896
0.00539905
0.00539913
0.0053992
0.00539925
0.00539929
0.00539933
0.00539935
0.00539937
0.00539938
0.00539938
0.00539937
0.00539935
0.00539933
0.00539929
0.00539925
0.0053992
0.00539913
0.00539905
0.00539896
0.00539886
0.00539874
0.00539859
0.00539843
0.00539825
0.00539804
0.0053978
0.00539753
0.00539723
0.00539688
0.0053965
0.00539608
0.00539561
0.00539509
0.00539451
0.00539389
0.00539321
0.00539247
0.00539168
0.00539078
0.0052389
0.0052399
0.0052408
0.00524165
0.00524244
0.00524316
0.00524383
0.00524443
0.00524498
0.00524547
0.00524592
0.00524631
0.00524667
0.00524698
0.00524726
0.0052475
0.00524772
0.00524791
0.00524807
0.00524821
0.00524833
0.00524844
0.00524853
0.00524861
0.00524867
0.00524872
0.00524876
0.00524879
0.00524881
0.00524881
0.00524881
0.00524881
0.00524879
0.00524876
0.00524872
0.00524867
0.00524861
0.00524853
0.00524844
0.00524833
0.00524821
0.00524807
0.00524791
0.00524772
0.0052475
0.00524726
0.00524698
0.00524667
0.00524631
0.00524592
0.00524547
0.00524498
0.00524443
0.00524383
0.00524316
0.00524244
0.00524165
0.0052408
0.0052399
0.0052389
0.00521407
0.00521511
0.00521607
0.00521697
0.00521781
0.00521859
0.0052193
0.00521994
0.00522053
0.00522106
0.00522153
0.00522195
0.00522233
0.00522266
0.00522296
0.00522322
0.00522345
0.00522365
0.00522383
0.00522398
0.00522411
0.00522423
0.00522432
0.0052244
0.00522447
0.00522452
0.00522456
0.0052246
0.00522462
0.00522463
0.00522463
0.00522462
0.0052246
0.00522456
0.00522452
0.00522447
0.0052244
0.00522432
0.00522423
0.00522411
0.00522398
0.00522383
0.00522365
0.00522345
0.00522322
0.00522296
0.00522266
0.00522233
0.00522195
0.00522153
0.00522106
0.00522053
0.00521994
0.0052193
0.00521859
0.00521781
0.00521697
0.00521607
0.00521511
0.00521407
0.00523722
0.00523829
0.00523928
0.00524022
0.00524109
0.00524189
0.00524262
0.00524329
0.00524389
0.00524444
0.00524493
0.00524537
0.00524576
0.00524611
0.00524641
0.00524668
0.00524692
0.00524713
0.00524731
0.00524747
0.00524761
0.00524772
0.00524782
0.00524791
0.00524798
0.00524803
0.00524807
0.00524811
0.00524813
0.00524814
0.00524814
0.00524813
0.00524811
0.00524807
0.00524803
0.00524798
0.00524791
0.00524782
0.00524772
0.00524761
0.00524747
0.00524731
0.00524713
0.00524692
0.00524668
0.00524641
0.00524611
0.00524576
0.00524537
0.00524493
0.00524444
0.00524389
0.00524329
0.00524262
0.00524189
0.00524109
0.00524022
0.00523928
0.00523829
0.00523722
0.00527936
0.00528046
0.00528147
0.00528242
0.00528331
0.00528413
0.00528488
0.00528557
0.00528619
0.00528674
0.00528724
0.00528769
0.00528809
0.00528845
0.00528876
0.00528904
0.00528928
0.0052895
0.00528968
0.00528984
0.00528998
0.0052901
0.00529021
0.00529029
0.00529036
0.00529042
0.00529046
0.0052905
0.00529052
0.00529053
0.00529053
0.00529052
0.0052905
0.00529046
0.00529042
0.00529036
0.00529029
0.00529021
0.0052901
0.00528998
0.00528984
0.00528968
0.0052895
0.00528928
0.00528904
0.00528876
0.00528845
0.00528809
0.00528769
0.00528724
0.00528674
0.00528619
0.00528557
0.00528488
0.00528413
0.00528331
0.00528242
0.00528147
0.00528046
0.00527936
0.00533025
0.00533137
0.0053324
0.00533337
0.00533428
0.00533511
0.00533588
0.00533657
0.00533721
0.00533777
0.00533828
0.00533874
0.00533915
0.00533951
0.00533983
0.00534011
0.00534036
0.00534058
0.00534077
0.00534093
0.00534108
0.0053412
0.0053413
0.00534139
0.00534146
0.00534152
0.00534157
0.0053416
0.00534162
0.00534163
0.00534163
0.00534162
0.0053416
0.00534157
0.00534152
0.00534146
0.00534139
0.0053413
0.0053412
0.00534108
0.00534093
0.00534077
0.00534058
0.00534036
0.00534011
0.00533983
0.00533951
0.00533915
0.00533874
0.00533828
0.00533777
0.00533721
0.00533657
0.00533588
0.00533511
0.00533428
0.00533337
0.0053324
0.00533137
0.00533025
0.00538651
0.00538765
0.0053887
0.00538969
0.00539061
0.00539146
0.00539224
0.00539295
0.00539359
0.00539417
0.00539469
0.00539516
0.00539557
0.00539594
0.00539627
0.00539655
0.00539681
0.00539703
0.00539722
0.00539739
0.00539754
0.00539766
0.00539777
0.00539786
0.00539793
0.00539799
0.00539803
0.00539807
0.00539809
0.0053981
0.0053981
0.00539809
0.00539807
0.00539803
0.00539799
0.00539793
0.00539786
0.00539777
0.00539766
0.00539754
0.00539739
0.00539722
0.00539703
0.00539681
0.00539655
0.00539627
0.00539594
0.00539557
0.00539516
0.00539469
0.00539417
0.00539359
0.00539295
0.00539224
0.00539146
0.00539061
0.00538969
0.0053887
0.00538765
0.00538651
0.00544722
0.00544837
0.00544945
0.00545045
0.00545139
0.00545226
0.00545305
0.00545377
0.00545443
0.00545502
0.00545555
0.00545602
0.00545644
0.00545682
0.00545715
0.00545745
0.0054577
0.00545793
0.00545813
0.0054583
0.00545845
0.00545857
0.00545868
0.00545877
0.00545885
0.00545891
0.00545896
0.00545899
0.00545901
0.00545902
0.00545902
0.00545901
0.00545899
0.00545896
0.00545891
0.00545885
0.00545877
0.00545868
0.00545857
0.00545845
0.0054583
0.00545813
0.00545793
0.0054577
0.00545745
0.00545715
0.00545682
0.00545644
0.00545602
0.00545555
0.00545502
0.00545443
0.00545377
0.00545305
0.00545226
0.00545139
0.00545045
0.00544945
0.00544837
0.00544722
0.00551231
0.0055135
0.00551459
0.00551562
0.00551657
0.00551746
0.00551826
0.005519
0.00551967
0.00552027
0.00552081
0.00552129
0.00552172
0.00552211
0.00552245
0.00552275
0.00552301
0.00552324
0.00552344
0.00552362
0.00552377
0.0055239
0.00552401
0.0055241
0.00552417
0.00552424
0.00552428
0.00552432
0.00552434
0.00552435
0.00552435
0.00552434
0.00552432
0.00552428
0.00552424
0.00552417
0.0055241
0.00552401
0.0055239
0.00552377
0.00552362
0.00552344
0.00552324
0.00552301
0.00552275
0.00552245
0.00552211
0.00552172
0.00552129
0.00552081
0.00552027
0.00551967
0.005519
0.00551826
0.00551746
0.00551657
0.00551562
0.00551459
0.0055135
0.00551231
0.00558208
0.00558329
0.00558441
0.00558546
0.00558643
0.00558733
0.00558816
0.00558891
0.00558959
0.00559021
0.00559076
0.00559125
0.00559169
0.00559208
0.00559243
0.00559273
0.005593
0.00559324
0.00559344
0.00559362
0.00559378
0.00559391
0.00559402
0.00559412
0.00559419
0.00559426
0.00559431
0.00559434
0.00559437
0.00559438
0.00559438
0.00559437
0.00559434
0.00559431
0.00559426
0.00559419
0.00559412
0.00559402
0.00559391
0.00559378
0.00559362
0.00559344
0.00559324
0.005593
0.00559273
0.00559243
0.00559208
0.00559169
0.00559125
0.00559076
0.00559021
0.00558959
0.00558891
0.00558816
0.00558733
0.00558643
0.00558546
0.00558441
0.00558329
0.00558208
0.00565696
0.00565819
0.00565933
0.0056604
0.0056614
0.00566232
0.00566317
0.00566393
0.00566463
0.00566526
0.00566582
0.00566633
0.00566678
0.00566718
0.00566753
0.00566784
0.00566812
0.00566836
0.00566857
0.00566875
0.00566891
0.00566904
0.00566916
0.00566926
0.00566934
0.0056694
0.00566945
0.00566949
0.00566951
0.00566952
0.00566952
0.00566951
0.00566949
0.00566945
0.0056694
0.00566934
0.00566926
0.00566916
0.00566904
0.00566891
0.00566875
0.00566857
0.00566836
0.00566812
0.00566784
0.00566753
0.00566718
0.00566678
0.00566633
0.00566582
0.00566526
0.00566463
0.00566393
0.00566317
0.00566232
0.0056614
0.0056604
0.00565933
0.00565819
0.00565696
0.00573745
0.00573872
0.00573989
0.00574098
0.005742
0.00574295
0.00574381
0.0057446
0.00574531
0.00574595
0.00574653
0.00574704
0.00574751
0.00574792
0.00574828
0.0057486
0.00574888
0.00574913
0.00574934
0.00574953
0.00574969
0.00574983
0.00574995
0.00575005
0.00575013
0.00575019
0.00575025
0.00575028
0.00575031
0.00575032
0.00575032
0.00575031
0.00575028
0.00575025
0.00575019
0.00575013
0.00575005
0.00574995
0.00574983
0.00574969
0.00574953
0.00574934
0.00574913
0.00574888
0.0057486
0.00574828
0.00574792
0.00574751
0.00574704
0.00574653
0.00574595
0.00574531
0.0057446
0.00574381
0.00574295
0.005742
0.00574098
0.00573989
0.00573872
0.00573745
0.00582419
0.00582549
0.00582669
0.00582781
0.00582886
0.00582983
0.00583071
0.00583152
0.00583225
0.00583291
0.0058335
0.00583403
0.0058345
0.00583492
0.00583529
0.00583562
0.00583591
0.00583616
0.00583638
0.00583657
0.00583674
0.00583688
0.005837
0.00583711
0.00583719
0.00583726
0.00583731
0.00583735
0.00583737
0.00583739
0.00583739
0.00583737
0.00583735
0.00583731
0.00583726
0.00583719
0.00583711
0.005837
0.00583688
0.00583674
0.00583657
0.00583638
0.00583616
0.00583591
0.00583562
0.00583529
0.00583492
0.0058345
0.00583403
0.0058335
0.00583291
0.00583225
0.00583152
0.00583071
0.00582983
0.00582886
0.00582781
0.00582669
0.00582549
0.00582419
0.00591789
0.00591922
0.00592045
0.00592161
0.00592268
0.00592368
0.00592458
0.00592541
0.00592616
0.00592684
0.00592745
0.00592799
0.00592848
0.00592891
0.00592929
0.00592963
0.00592992
0.00593019
0.00593041
0.00593061
0.00593078
0.00593093
0.00593105
0.00593115
0.00593124
0.00593131
0.00593137
0.00593141
0.00593143
0.00593144
0.00593144
0.00593143
0.00593141
0.00593137
0.00593131
0.00593124
0.00593115
0.00593105
0.00593093
0.00593078
0.00593061
0.00593041
0.00593019
0.00592992
0.00592963
0.00592929
0.00592891
0.00592848
0.00592799
0.00592745
0.00592684
0.00592616
0.00592541
0.00592458
0.00592368
0.00592268
0.00592161
0.00592045
0.00591922
0.00591789
0.00601938
0.00602076
0.00602202
0.00602321
0.00602432
0.00602534
0.00602627
0.00602712
0.0060279
0.00602859
0.00602922
0.00602978
0.00603028
0.00603072
0.00603112
0.00603146
0.00603177
0.00603204
0.00603227
0.00603247
0.00603265
0.0060328
0.00603293
0.00603303
0.00603312
0.0060332
0.00603325
0.00603329
0.00603332
0.00603333
0.00603333
0.00603332
0.00603329
0.00603325
0.0060332
0.00603312
0.00603303
0.00603293
0.0060328
0.00603265
0.00603247
0.00603227
0.00603204
0.00603177
0.00603146
0.00603112
0.00603072
0.00603028
0.00602978
0.00602922
0.00602859
0.0060279
0.00602712
0.00602627
0.00602534
0.00602432
0.00602321
0.00602202
0.00602076
0.00601938
0.00612964
0.00613107
0.00613237
0.0061336
0.00613474
0.00613579
0.00613676
0.00613763
0.00613843
0.00613915
0.00613979
0.00614037
0.00614089
0.00614135
0.00614175
0.00614211
0.00614243
0.0061427
0.00614294
0.00614315
0.00614333
0.00614349
0.00614362
0.00614373
0.00614382
0.0061439
0.00614396
0.006144
0.00614403
0.00614404
0.00614404
0.00614403
0.006144
0.00614396
0.0061439
0.00614382
0.00614373
0.00614362
0.00614349
0.00614333
0.00614315
0.00614294
0.0061427
0.00614243
0.00614211
0.00614175
0.00614135
0.00614089
0.00614037
0.00613979
0.00613915
0.00613843
0.00613763
0.00613676
0.00613579
0.00613474
0.0061336
0.00613237
0.00613107
0.00612964
0.00624984
0.00625132
0.00625267
0.00625393
0.00625511
0.0062562
0.0062572
0.00625811
0.00625893
0.00625967
0.00626034
0.00626094
0.00626147
0.00626194
0.00626236
0.00626273
0.00626306
0.00626335
0.0062636
0.00626381
0.006264
0.00626416
0.0062643
0.00626441
0.00626451
0.00626459
0.00626465
0.00626469
0.00626472
0.00626473
0.00626473
0.00626472
0.00626469
0.00626465
0.00626459
0.00626451
0.00626441
0.0062643
0.00626416
0.006264
0.00626381
0.0062636
0.00626335
0.00626306
0.00626273
0.00626236
0.00626194
0.00626147
0.00626094
0.00626034
0.00625967
0.00625893
0.00625811
0.0062572
0.0062562
0.00625511
0.00625393
0.00625267
0.00625132
0.00624984
0.00638136
0.00638289
0.00638429
0.0063856
0.00638682
0.00638795
0.00638898
0.00638993
0.00639078
0.00639155
0.00639224
0.00639286
0.00639341
0.00639391
0.00639434
0.00639473
0.00639506
0.00639536
0.00639562
0.00639585
0.00639604
0.00639621
0.00639635
0.00639647
0.00639657
0.00639665
0.00639671
0.00639675
0.00639678
0.0063968
0.0063968
0.00639678
0.00639675
0.00639671
0.00639665
0.00639657
0.00639647
0.00639635
0.00639621
0.00639604
0.00639585
0.00639562
0.00639536
0.00639506
0.00639473
0.00639434
0.00639391
0.00639341
0.00639286
0.00639224
0.00639155
0.00639078
0.00638993
0.00638898
0.00638795
0.00638682
0.0063856
0.00638429
0.00638289
0.00638136
0.00652585
0.00652744
0.0065289
0.00653026
0.00653153
0.00653271
0.00653378
0.00653476
0.00653565
0.00653645
0.00653717
0.00653781
0.00653839
0.0065389
0.00653935
0.00653975
0.00654011
0.00654041
0.00654068
0.00654092
0.00654112
0.00654129
0.00654144
0.00654157
0.00654167
0.00654175
0.00654182
0.00654186
0.0065419
0.00654191
0.00654191
0.0065419
0.00654186
0.00654182
0.00654175
0.00654167
0.00654157
0.00654144
0.00654129
0.00654112
0.00654092
0.00654068
0.00654041
0.00654011
0.00653975
0.00653935
0.0065389
0.00653839
0.00653781
0.00653717
0.00653645
0.00653565
0.00653476
0.00653378
0.00653271
0.00653153
0.00653026
0.0065289
0.00652744
0.00652585
0.00668532
0.00668698
0.00668851
0.00668993
0.00669126
0.00669248
0.0066936
0.00669463
0.00669555
0.00669639
0.00669714
0.00669781
0.00669841
0.00669895
0.00669942
0.00669984
0.00670021
0.00670053
0.00670081
0.00670105
0.00670127
0.00670145
0.0067016
0.00670173
0.00670184
0.00670192
0.00670199
0.00670204
0.00670207
0.00670209
0.00670209
0.00670207
0.00670204
0.00670199
0.00670192
0.00670184
0.00670173
0.0067016
0.00670145
0.00670127
0.00670105
0.00670081
0.00670053
0.00670021
0.00669984
0.00669942
0.00669895
0.00669841
0.00669781
0.00669714
0.00669639
0.00669555
0.00669463
0.0066936
0.00669248
0.00669126
0.00668993
0.00668851
0.00668698
0.00668532
0.00686225
0.00686399
0.00686559
0.00686708
0.00686847
0.00686975
0.00687093
0.006872
0.00687297
0.00687384
0.00687463
0.00687534
0.00687597
0.00687653
0.00687702
0.00687746
0.00687785
0.00687818
0.00687848
0.00687874
0.00687896
0.00687915
0.00687931
0.00687945
0.00687956
0.00687965
0.00687972
0.00687977
0.00687981
0.00687982
0.00687982
0.00687981
0.00687977
0.00687972
0.00687965
0.00687956
0.00687945
0.00687931
0.00687915
0.00687896
0.00687874
0.00687848
0.00687818
0.00687785
0.00687746
0.00687702
0.00687653
0.00687597
0.00687534
0.00687463
0.00687384
0.00687297
0.006872
0.00687093
0.00686975
0.00686847
0.00686708
0.00686559
0.00686399
0.00686225
0.00705968
0.00706152
0.0070632
0.00706477
0.00706623
0.00706758
0.00706882
0.00706995
0.00707097
0.00707189
0.00707272
0.00707346
0.00707413
0.00707471
0.00707524
0.0070757
0.00707611
0.00707646
0.00707677
0.00707704
0.00707728
0.00707748
0.00707765
0.00707779
0.00707791
0.00707801
0.00707808
0.00707814
0.00707817
0.00707819
0.00707819
0.00707817
0.00707814
0.00707808
0.00707801
0.00707791
0.00707779
0.00707765
0.00707748
0.00707728
0.00707704
0.00707677
0.00707646
0.00707611
0.0070757
0.00707524
0.00707471
0.00707413
0.00707346
0.00707272
0.00707189
0.00707097
0.00706995
0.00706882
0.00706758
0.00706623
0.00706477
0.0070632
0.00706152
0.00705968
0.00728146
0.00728341
0.00728518
0.00728685
0.00728839
0.00728982
0.00729113
0.00729233
0.00729341
0.00729439
0.00729526
0.00729605
0.00729675
0.00729738
0.00729793
0.00729842
0.00729885
0.00729923
0.00729956
0.00729984
0.00730009
0.0073003
0.00730048
0.00730063
0.00730076
0.00730086
0.00730094
0.007301
0.00730104
0.00730106
0.00730106
0.00730104
0.007301
0.00730094
0.00730086
0.00730076
0.00730063
0.00730048
0.0073003
0.00730009
0.00729984
0.00729956
0.00729923
0.00729885
0.00729842
0.00729793
0.00729738
0.00729675
0.00729605
0.00729526
0.00729439
0.00729341
0.00729233
0.00729113
0.00728982
0.00728839
0.00728685
0.00728518
0.00728341
0.00728146
0.00753249
0.00753456
0.00753645
0.00753822
0.00753987
0.00754139
0.00754279
0.00754406
0.00754521
0.00754625
0.00754719
0.00754803
0.00754877
0.00754944
0.00755003
0.00755055
0.00755101
0.00755141
0.00755176
0.00755207
0.00755233
0.00755256
0.00755275
0.00755291
0.00755305
0.00755315
0.00755324
0.0075533
0.00755334
0.00755336
0.00755336
0.00755334
0.0075533
0.00755324
0.00755315
0.00755305
0.00755291
0.00755275
0.00755256
0.00755233
0.00755207
0.00755176
0.00755141
0.00755101
0.00755055
0.00755003
0.00754944
0.00754877
0.00754803
0.00754719
0.00754625
0.00754521
0.00754406
0.00754279
0.00754139
0.00753987
0.00753822
0.00753645
0.00753456
0.00753249
0.0078191
0.00782132
0.00782335
0.00782525
0.00782702
0.00782866
0.00783015
0.00783152
0.00783275
0.00783387
0.00783487
0.00783577
0.00783658
0.00783729
0.00783792
0.00783848
0.00783898
0.00783941
0.00783979
0.00784011
0.0078404
0.00784064
0.00784085
0.00784102
0.00784116
0.00784128
0.00784137
0.00784144
0.00784148
0.0078415
0.0078415
0.00784148
0.00784144
0.00784137
0.00784128
0.00784116
0.00784102
0.00784085
0.00784064
0.0078404
0.00784011
0.00783979
0.00783941
0.00783898
0.00783848
0.00783792
0.00783729
0.00783658
0.00783577
0.00783487
0.00783387
0.00783275
0.00783152
0.00783015
0.00782866
0.00782702
0.00782525
0.00782335
0.00782132
0.0078191
0.00814969
0.00815209
0.00815429
0.00815634
0.00815826
0.00816003
0.00816165
0.00816312
0.00816446
0.00816567
0.00816676
0.00816773
0.0081686
0.00816938
0.00817006
0.00817067
0.0081712
0.00817167
0.00817208
0.00817244
0.00817274
0.00817301
0.00817323
0.00817342
0.00817358
0.0081737
0.0081738
0.00817387
0.00817392
0.00817394
0.00817394
0.00817392
0.00817387
0.0081738
0.0081737
0.00817358
0.00817342
0.00817323
0.00817301
0.00817274
0.00817244
0.00817208
0.00817167
0.0081712
0.00817067
0.00817006
0.00816938
0.0081686
0.00816773
0.00816676
0.00816567
0.00816446
0.00816312
0.00816165
0.00816003
0.00815826
0.00815634
0.00815429
0.00815209
0.00814969
0.00853555
0.00853818
0.00854058
0.00854283
0.00854492
0.00854686
0.00854863
0.00855025
0.00855171
0.00855304
0.00855423
0.0085553
0.00855625
0.00855709
0.00855785
0.00855851
0.00855909
0.00855961
0.00856005
0.00856044
0.00856078
0.00856107
0.00856132
0.00856152
0.00856169
0.00856183
0.00856194
0.00856202
0.00856207
0.0085621
0.0085621
0.00856207
0.00856202
0.00856194
0.00856183
0.00856169
0.00856152
0.00856132
0.00856107
0.00856078
0.00856044
0.00856005
0.00855961
0.00855909
0.00855851
0.00855785
0.00855709
0.00855625
0.0085553
0.00855423
0.00855304
0.00855171
0.00855025
0.00854863
0.00854686
0.00854492
0.00854283
0.00854058
0.00853818
0.00853555
0.0089923
0.00899521
0.00899787
0.00900036
0.00900268
0.00900483
0.0090068
0.00900859
0.00901021
0.00901168
0.009013
0.00901419
0.00901524
0.00901618
0.00901702
0.00901775
0.0090184
0.00901897
0.00901947
0.0090199
0.00902027
0.00902059
0.00902087
0.0090211
0.00902129
0.00902144
0.00902156
0.00902165
0.00902171
0.00902174
0.00902174
0.00902171
0.00902165
0.00902156
0.00902144
0.00902129
0.0090211
0.00902087
0.00902059
0.00902027
0.0090199
0.00901947
0.00901897
0.0090184
0.00901775
0.00901702
0.00901618
0.00901524
0.00901419
0.009013
0.00901168
0.00901021
0.00900859
0.0090068
0.00900483
0.00900268
0.00900036
0.00899787
0.00899521
0.0089923
0.00954203
0.0095453
0.00954828
0.00955109
0.00955371
0.00955613
0.00955834
0.00956036
0.0095622
0.00956385
0.00956534
0.00956667
0.00956786
0.00956892
0.00956986
0.0095707
0.00957143
0.00957207
0.00957263
0.00957312
0.00957354
0.0095739
0.00957421
0.00957447
0.00957468
0.00957485
0.00957499
0.00957509
0.00957515
0.00957519
0.00957519
0.00957515
0.00957509
0.00957499
0.00957485
0.00957468
0.00957447
0.00957421
0.0095739
0.00957354
0.00957312
0.00957263
0.00957207
0.00957143
0.0095707
0.00956986
0.00956892
0.00956786
0.00956667
0.00956534
0.00956385
0.0095622
0.00956036
0.00955834
0.00955613
0.00955371
0.00955109
0.00954828
0.0095453
0.00954203
0.0102167
0.0102204
0.0102238
0.0102271
0.0102301
0.0102328
0.0102354
0.0102377
0.0102398
0.0102417
0.0102434
0.010245
0.0102463
0.0102475
0.0102486
0.0102496
0.0102504
0.0102512
0.0102518
0.0102524
0.0102529
0.0102533
0.0102536
0.0102539
0.0102542
0.0102544
0.0102545
0.0102546
0.0102547
0.0102547
0.0102547
0.0102547
0.0102546
0.0102545
0.0102544
0.0102542
0.0102539
0.0102536
0.0102533
0.0102529
0.0102524
0.0102518
0.0102512
0.0102504
0.0102496
0.0102486
0.0102475
0.0102463
0.010245
0.0102434
0.0102417
0.0102398
0.0102377
0.0102354
0.0102328
0.0102301
0.0102271
0.0102238
0.0102204
0.0102167
0.011063
0.0110674
0.0110714
0.0110752
0.0110787
0.011082
0.011085
0.0110877
0.0110902
0.0110924
0.0110944
0.0110962
0.0110978
0.0110993
0.0111005
0.0111017
0.0111027
0.0111035
0.0111043
0.011105
0.0111055
0.011106
0.0111064
0.0111068
0.0111071
0.0111073
0.0111075
0.0111076
0.0111077
0.0111078
0.0111078
0.0111077
0.0111076
0.0111075
0.0111073
0.0111071
0.0111068
0.0111064
0.011106
0.0111055
0.011105
0.0111043
0.0111035
0.0111027
0.0111017
0.0111005
0.0110993
0.0110978
0.0110962
0.0110944
0.0110924
0.0110902
0.0110877
0.011085
0.011082
0.0110787
0.0110752
0.0110714
0.0110674
0.011063
0.0121493
0.0121545
0.0121594
0.0121639
0.0121682
0.0121721
0.0121757
0.012179
0.012182
0.0121847
0.0121872
0.0121893
0.0121913
0.012193
0.0121946
0.0121959
0.0121971
0.0121982
0.0121991
0.0121999
0.0122006
0.0122012
0.0122017
0.0122021
0.0122024
0.0122027
0.012203
0.0122031
0.0122032
0.0122033
0.0122033
0.0122032
0.0122031
0.012203
0.0122027
0.0122024
0.0122021
0.0122017
0.0122012
0.0122006
0.0121999
0.0121991
0.0121982
0.0121971
0.0121959
0.0121946
0.012193
0.0121913
0.0121893
0.0121872
0.0121847
0.012182
0.012179
0.0121757
0.0121721
0.0121682
0.0121639
0.0121594
0.0121545
0.0121493
0.013572
0.0135784
0.0135844
0.01359
0.0135953
0.0136002
0.0136046
0.0136087
0.0136124
0.0136158
0.0136188
0.0136215
0.0136239
0.013626
0.0136279
0.0136296
0.0136311
0.0136324
0.0136335
0.0136345
0.0136354
0.0136361
0.0136367
0.0136373
0.0136377
0.013638
0.0136383
0.0136385
0.0136387
0.0136387
0.0136387
0.0136387
0.0136385
0.0136383
0.013638
0.0136377
0.0136373
0.0136367
0.0136361
0.0136354
0.0136345
0.0136335
0.0136324
0.0136311
0.0136296
0.0136279
0.013626
0.0136239
0.0136215
0.0136188
0.0136158
0.0136124
0.0136087
0.0136046
0.0136002
0.0135953
0.01359
0.0135844
0.0135784
0.013572
0.0154577
0.0154657
0.0154732
0.0154803
0.0154869
0.0154931
0.0154987
0.0155038
0.0155085
0.0155127
0.0155165
0.0155199
0.0155229
0.0155256
0.015528
0.0155302
0.015532
0.0155337
0.0155351
0.0155363
0.0155374
0.0155384
0.0155391
0.0155398
0.0155404
0.0155408
0.0155411
0.0155414
0.0155416
0.0155417
0.0155417
0.0155416
0.0155414
0.0155411
0.0155408
0.0155404
0.0155398
0.0155391
0.0155384
0.0155374
0.0155363
0.0155351
0.0155337
0.015532
0.0155302
0.015528
0.0155256
0.0155229
0.0155199
0.0155165
0.0155127
0.0155085
0.0155038
0.0154987
0.0154931
0.0154869
0.0154803
0.0154732
0.0154657
0.0154577
0.0179522
0.0179624
0.0179719
0.0179809
0.0179893
0.017997
0.0180042
0.0180107
0.0180166
0.0180219
0.0180267
0.018031
0.0180349
0.0180383
0.0180414
0.018044
0.0180464
0.0180485
0.0180503
0.0180519
0.0180533
0.0180544
0.0180554
0.0180563
0.018057
0.0180575
0.018058
0.0180583
0.0180585
0.0180586
0.0180586
0.0180585
0.0180583
0.018058
0.0180575
0.018057
0.0180563
0.0180554
0.0180544
0.0180533
0.0180519
0.0180503
0.0180485
0.0180464
0.018044
0.0180414
0.0180383
0.0180349
0.018031
0.0180267
0.0180219
0.0180166
0.0180107
0.0180042
0.017997
0.0179893
0.0179809
0.0179719
0.0179624
0.0179522
0.0211916
0.0212043
0.0212162
0.0212275
0.021238
0.0212478
0.0212567
0.0212649
0.0212723
0.021279
0.0212851
0.0212905
0.0212953
0.0212996
0.0213034
0.0213068
0.0213098
0.0213124
0.0213147
0.0213166
0.0213184
0.0213198
0.0213211
0.0213222
0.021323
0.0213237
0.0213243
0.0213247
0.021325
0.0213251
0.0213251
0.021325
0.0213247
0.0213243
0.0213237
0.021323
0.0213222
0.0213211
0.0213198
0.0213184
0.0213166
0.0213147
0.0213124
0.0213098
0.0213068
0.0213034
0.0212996
0.0212953
0.0212905
0.0212851
0.021279
0.0212723
0.0212649
0.0212567
0.0212478
0.021238
0.0212275
0.0212162
0.0212043
0.0211916
0.0252589
0.0252745
0.0252892
0.0253031
0.025316
0.025328
0.0253389
0.0253489
0.025358
0.0253662
0.0253736
0.0253803
0.0253862
0.0253915
0.0253962
0.0254003
0.025404
0.0254072
0.02541
0.0254124
0.0254145
0.0254163
0.0254179
0.0254192
0.0254202
0.0254211
0.0254218
0.0254223
0.0254226
0.0254228
0.0254228
0.0254226
0.0254223
0.0254218
0.0254211
0.0254202
0.0254192
0.0254179
0.0254163
0.0254145
0.0254124
0.02541
0.0254072
0.025404
0.0254003
0.0253962
0.0253915
0.0253862
0.0253803
0.0253736
0.0253662
0.025358
0.0253489
0.0253389
0.025328
0.025316
0.0253031
0.0252892
0.0252745
0.0252589
0.0301519
0.0301706
0.0301881
0.0302046
0.0302199
0.0302342
0.0302472
0.0302591
0.0302699
0.0302797
0.0302884
0.0302963
0.0303034
0.0303096
0.0303152
0.0303201
0.0303245
0.0303283
0.0303316
0.0303345
0.030337
0.0303392
0.030341
0.0303426
0.0303439
0.0303449
0.0303457
0.0303463
0.0303467
0.0303469
0.0303469
0.0303467
0.0303463
0.0303457
0.0303449
0.0303439
0.0303426
0.030341
0.0303392
0.030337
0.0303345
0.0303316
0.0303283
0.0303245
0.0303201
0.0303152
0.0303096
0.0303034
0.0302963
0.0302884
0.0302797
0.0302699
0.0302591
0.0302472
0.0302342
0.0302199
0.0302046
0.0301881
0.0301706
0.0301519
0.0357829
0.0358045
0.0358247
0.0358438
0.0358615
0.0358778
0.0358929
0.0359066
0.035919
0.0359302
0.0359403
0.0359494
0.0359575
0.0359648
0.0359712
0.0359769
0.0359819
0.0359863
0.0359901
0.0359934
0.0359963
0.0359988
0.0360009
0.0360027
0.0360042
0.0360054
0.0360063
0.036007
0.0360075
0.0360077
0.0360077
0.0360075
0.036007
0.0360063
0.0360054
0.0360042
0.0360027
0.0360009
0.0359988
0.0359963
0.0359934
0.0359901
0.0359863
0.0359819
0.0359769
0.0359712
0.0359648
0.0359575
0.0359494
0.0359403
0.0359302
0.035919
0.0359066
0.0358929
0.0358778
0.0358615
0.0358438
0.0358247
0.0358045
0.0357829
0.0420145
0.0420389
0.0420616
0.042083
0.0421028
0.0421212
0.042138
0.0421533
0.0421673