/*--------------------------------*- C++ -*----------------------------------*\
| =========                 |                                                 |
| \\      /  F ield         | foam-extend: Open Source CFD                    |
|  \\    /   O peration     | Version:     4.0                                |
|   \\  /    A nd           | Web:         http://www.foam-extend.org         |
|    \\/     M anipulation  |                                                 |
\*---------------------------------------------------------------------------*/
FoamFile
{
    version     2.0;
    format      ascii;
    class       volScalarField;
    location    "26";
    object      dC1;
}
// * * * * * * * * * * * * * * * * * * * * * * * * * * * * * * * * * * * * * //

dimensions      [0 -1 0 0 0 0 0];

internalField   nonuniform List<scalar> 
6960
(
1.11755e-14
1.11009e-14
1.01243e-14
1.095e-14
1.06508e-14
1.00493e-14
1.02002e-14
1.04257e-14
1.14015e-14
1.03489e-14
1.07254e-14
1.095e-14
1.05003e-14
1.04248e-14
1.12505e-14
1.10255e-14
1.09504e-14
1.02752e-14
9.82417e-15
1.08004e-14
1.08004e-14
1.095e-14
1.08754e-14
9.89963e-15
1.11018e-14
1.03498e-14
9.97466e-15
1.04257e-14
1.10246e-14
1.07267e-14
1.01997e-14
1.08754e-14
1.09513e-14
1.06503e-14
9.82461e-15
1.05757e-14
1.02756e-14
1.05753e-14
1.04998e-14
1.02748e-14
1.08008e-14
1.07249e-14
1.06508e-14
1.01247e-14
1.0126e-14
1.14002e-14
1.08e-14
9.97596e-15
1.11755e-14
1.07987e-14
1.13273e-14
1.10992e-14
1.12501e-14
1.17753e-14
1.08754e-14
1.07254e-14
1.06508e-14
1.10983e-14
1.13264e-14
1.05003e-14
3.33804e-15
3.39442e-15
3.29988e-15
3.26215e-15
3.30075e-15
3.18625e-15
2.88831e-15
3.2808e-15
3.52539e-15
3.28036e-15
3.05658e-15
3.2062e-15
3.01842e-15
3.14939e-15
3.50674e-15
3.18755e-15
3.28166e-15
3.46858e-15
3.41177e-15
3.54447e-15
3.2062e-15
3.2808e-15
3.4508e-15
3.56225e-15
3.4508e-15
3.43128e-15
3.33761e-15
3.43215e-15
3.31809e-15
3.39442e-15
3.20577e-15
3.3749e-15
3.28123e-15
3.29988e-15
3.28123e-15
3.4881e-15
3.6195e-15
3.31853e-15
3.14939e-15
3.54491e-15
3.09345e-15
2.99977e-15
2.96247e-15
3.52496e-15
3.6195e-15
3.37534e-15
3.14896e-15
3.77042e-15
3.11209e-15
3.43085e-15
3.43258e-15
3.11166e-15
2.88745e-15
3.09388e-15
2.92474e-15
3.39442e-15
3.30031e-15
3.11166e-15
3.30118e-15
3.13074e-15
1.0404e-15
8.53484e-16
8.52617e-16
1.12453e-15
1.22905e-15
1.01178e-15
1.42594e-15
8.99888e-16
1.06859e-15
8.80806e-16
1.26635e-15
1.2091e-15
1.20086e-15
1.09678e-15
8.52617e-16
1.00354e-15
1.15316e-15
8.81673e-16
1.10675e-15
1.14405e-15
1.11586e-15
1.25594e-15
1.12497e-15
1.25637e-15
1.05948e-15
1.13364e-15
1.09635e-15
1.23859e-15
1.17094e-15
1.32273e-15
1.3778e-15
1.24683e-15
1.05948e-15
1.15316e-15
1.17181e-15
1.17137e-15
1.4164e-15
1.05862e-15
1.20086e-15
1.24727e-15
9.74481e-16
9.93563e-16
1.43462e-15
1.07856e-15
9.84456e-16
1.27546e-15
9.55399e-16
1.19132e-15
1.00267e-15
9.08995e-16
1.21994e-15
1.08637e-15
1.17181e-15
9.74915e-16
1.10545e-15
1.09765e-15
1.15359e-15
1.07726e-15
1.02262e-15
9.84456e-16
-2.95337e-16
-2.62377e-16
-2.66714e-16
-4.69243e-16
-4.67942e-16
-4.83554e-16
-5.29524e-16
-4.16767e-16
-6.05418e-16
-3.28296e-16
-2.14238e-16
-4.69243e-16
-4.7835e-16
-5.20417e-16
-4.68809e-16
-2.85796e-16
-6.19296e-16
-2.62377e-16
-3.37404e-16
-5.06539e-16
-4.0766e-16
-4.59702e-16
-4.87457e-16
-3.84675e-16
-4.87024e-16
-4.21971e-16
-5.44703e-16
-4.30211e-16
-4.26742e-16
-4.72712e-16
-4.60135e-16
-6.98226e-16
-3.33067e-16
-5.90673e-16
-5.10876e-16
-5.43836e-16
-5.25188e-16
-4.08527e-16
-2.76255e-16
-3.55618e-16
-5.39499e-16
-3.89445e-16
-4.17201e-16
-3.93349e-16
-2.81459e-16
-5.25188e-16
-5.02202e-16
-3.83808e-16
-2.48065e-16
-4.7358e-16
-5.56846e-16
-3.84241e-16
-4.68809e-16
-4.77916e-16
-4.64472e-16
-3.97252e-16
-5.34729e-16
-4.69676e-16
-3.93349e-16
-1.68702e-16
-1.46454e-15
-1.49577e-15
-1.34051e-15
-1.47755e-15
-1.45673e-15
-1.44676e-15
-1.35872e-15
-1.5374e-15
-1.48189e-15
-1.55605e-15
-1.50878e-15
-1.5335e-15
-1.3713e-15
-1.57253e-15
-1.53827e-15
-1.48102e-15
-1.40599e-15
-1.46281e-15
-1.5027e-15
-1.47885e-15
-1.46671e-15
-1.5027e-15
-1.51441e-15
-1.54694e-15
-1.36219e-15
-1.38951e-15
-1.3778e-15
-1.50227e-15
-1.50747e-15
-1.43201e-15
-1.5027e-15
-1.40816e-15
-1.40382e-15
-1.44112e-15
-1.45326e-15
-1.43201e-15
-1.44849e-15
-1.42985e-15
-1.36653e-15
-1.56819e-15
-1.38951e-15
-1.4177e-15
-1.54998e-15
-1.44806e-15
-1.52135e-15
-1.49316e-15
-1.54737e-15
-1.39862e-15
-1.60115e-15
-1.40426e-15
-1.455e-15
-1.48189e-15
-1.53003e-15
-1.5426e-15
-1.5825e-15
-1.59551e-15
-1.43201e-15
-1.57339e-15
-1.44806e-15
-1.56082e-15
-2.0769e-15
-2.1233e-15
-2.15106e-15
-2.17144e-15
-2.13675e-15
-2.07256e-15
-2.11203e-15
-2.01011e-15
-2.14325e-15
-2.08861e-15
-2.08254e-15
-2.13067e-15
-2.18662e-15
-2.06692e-15
-2.14802e-15
-2.05955e-15
-2.10509e-15
-2.09251e-15
-2.06259e-15
-2.05088e-15
-2.00361e-15
-2.09121e-15
-2.14455e-15
-2.00187e-15
-2.05044e-15
-2.1684e-15
-2.06042e-15
-2.08514e-15
-2.14759e-15
-2.21004e-15
-2.22261e-15
-2.11159e-15
-2.1658e-15
-2.0834e-15
-2.13111e-15
-2.12113e-15
-2.14455e-15
-2.00838e-15
-2.10942e-15
-2.04394e-15
-2.10032e-15
-2.05998e-15
-2.13111e-15
-1.9919e-15
-2.10248e-15
-2.07646e-15
-2.01315e-15
-2.08384e-15
-2.04827e-15
-2.037e-15
-2.05305e-15
-2.11203e-15
-2.1168e-15
-2.10465e-15
-2.06259e-15
-2.02659e-15
-2.14022e-15
-2.05174e-15
-2.08774e-15
-2.01835e-15
-2.32279e-15
-2.31109e-15
-2.26945e-15
-2.26468e-15
-2.26338e-15
-2.3241e-15
-2.328e-15
-2.22912e-15
-2.30935e-15
-2.31195e-15
-2.26772e-15
-2.29591e-15
-2.2816e-15
-2.34795e-15
-2.2443e-15
-2.3241e-15
-2.24473e-15
-2.27336e-15
-2.33364e-15
-2.292e-15
-2.26165e-15
-2.34751e-15
-2.27986e-15
-2.3731e-15
-2.34968e-15
-2.25341e-15
-2.30068e-15
-2.28203e-15
-2.27032e-15
-2.27596e-15
-2.25731e-15
-2.27769e-15
-2.29417e-15
-2.30371e-15
-2.34014e-15
-2.27856e-15
-2.33147e-15
-2.31716e-15
-2.27379e-15
-2.35012e-15
-2.2842e-15
-2.26772e-15
-2.22955e-15
-2.37137e-15
-2.2868e-15
-2.26728e-15
-2.32279e-15
-2.33667e-15
-2.32279e-15
-2.29677e-15
-2.30631e-15
-2.29504e-15
-2.33927e-15
-2.32019e-15
-2.25904e-15
-2.30068e-15
-2.34405e-15
-2.34405e-15
-2.30154e-15
-2.29807e-15
-2.18228e-15
-2.21437e-15
-2.22825e-15
-2.23996e-15
-2.14846e-15
-2.18749e-15
-2.17708e-15
-2.21784e-15
-2.207e-15
-2.15583e-15
-2.19356e-15
-2.17101e-15
-2.19312e-15
-2.13891e-15
-2.26165e-15
-2.1992e-15
-2.16754e-15
-2.1992e-15
-2.18835e-15
-2.2044e-15
-2.14455e-15
-2.19789e-15
-2.17578e-15
-2.13501e-15
-2.1684e-15
-2.14542e-15
-2.22955e-15
-2.13675e-15
-2.16147e-15
-2.22045e-15
-2.18619e-15
-2.17534e-15
-2.20744e-15
-2.15583e-15
-2.16493e-15
-2.27726e-15
-2.16233e-15
-2.18055e-15
-2.2005e-15
-2.13284e-15
-2.21134e-15
-2.22045e-15
-2.23866e-15
-2.11723e-15
-2.14932e-15
-2.21611e-15
-2.18228e-15
-2.19616e-15
-2.11636e-15
-2.15626e-15
-2.12894e-15
-2.24126e-15
-2.18532e-15
-2.22392e-15
-2.22522e-15
-2.19399e-15
-2.19399e-15
-2.1606e-15
-2.14065e-15
-2.20353e-15
-1.84748e-15
-1.82406e-15
-1.85746e-15
-1.86396e-15
-1.88521e-15
-1.8722e-15
-1.92294e-15
-1.86873e-15
-1.83274e-15
-1.88738e-15
-1.89388e-15
-1.89865e-15
-1.93335e-15
-1.8774e-15
-1.8722e-15
-1.88825e-15
-1.90603e-15
-1.83447e-15
-1.86526e-15
-1.86136e-15
-1.90299e-15
-1.87697e-15
-1.89952e-15
-1.93942e-15
-1.89215e-15
-1.90212e-15
-1.87263e-15
-1.88434e-15
-1.94679e-15
-1.87047e-15
-1.88478e-15
-1.89952e-15
-1.83924e-15
-1.916e-15
-1.85876e-15
-1.83967e-15
-1.90343e-15
-1.93205e-15
-1.90689e-15
-1.88608e-15
-1.90256e-15
-1.85962e-15
-1.91036e-15
-1.90646e-15
-1.95113e-15
-1.88174e-15
-1.88521e-15
-1.87957e-15
-1.89302e-15
-1.86223e-15
-1.89345e-15
-1.84791e-15
-1.87047e-15
-1.88608e-15
-1.8709e-15
-1.87871e-15
-1.89822e-15
-1.90559e-15
-1.91036e-15
-1.91687e-15
-1.48189e-15
-1.5014e-15
-1.49533e-15
-1.51615e-15
-1.49013e-15
-1.52482e-15
-1.46497e-15
-1.49446e-15
-1.52005e-15
-1.4923e-15
-1.49533e-15
-1.48406e-15
-1.44112e-15
-1.51268e-15
-1.50444e-15
-1.48145e-15
-1.4988e-15
-1.47538e-15
-1.48102e-15
-1.51181e-15
-1.4923e-15
-1.51268e-15
-1.49577e-15
-1.46237e-15
-1.47755e-15
-1.49923e-15
-1.46931e-15
-1.48579e-15
-1.48102e-15
-1.48926e-15
-1.51051e-15
-1.47105e-15
-1.49403e-15
-1.47755e-15
-1.51008e-15
-1.52395e-15
-1.47018e-15
-1.44806e-15
-1.47105e-15
-1.48883e-15
-1.48319e-15
-1.53913e-15
-1.45717e-15
-1.51918e-15
-1.46888e-15
-1.47755e-15
-1.46628e-15
-1.4576e-15
-1.49793e-15
-1.5348e-15
-1.48883e-15
-1.48883e-15
-1.49707e-15
-1.45673e-15
-1.45587e-15
-1.49316e-15
-1.49577e-15
-1.49793e-15
-1.49056e-15
-1.4589e-15
-1.08767e-15
-1.07509e-15
-1.08203e-15
-1.07032e-15
-1.09635e-15
-1.08377e-15
-1.07943e-15
-1.07509e-15
-1.07943e-15
-1.09851e-15
-1.07943e-15
-1.09895e-15
-1.09721e-15
-1.08724e-15
-1.0417e-15
-1.09374e-15
-1.0764e-15
-1.06382e-15
-1.09721e-15
-1.07293e-15
-1.07987e-15
-1.07726e-15
-1.08724e-15
-1.06772e-15
-1.08767e-15
-1.07423e-15
-1.0855e-15
-1.11326e-15
-1.08854e-15
-1.08897e-15
-1.07293e-15
-1.10719e-15
-1.08854e-15
-1.02956e-15
-1.08073e-15
-1.07249e-15
-1.07683e-15
-1.10849e-15
-1.11022e-15
-1.10328e-15
-1.10849e-15
-1.07813e-15
-1.10719e-15
-1.06989e-15
-1.09374e-15
-1.09374e-15
-1.09157e-15
-1.1293e-15
-1.07423e-15
-1.07596e-15
-1.10502e-15
-1.09157e-15
-1.09331e-15
-1.12367e-15
-1.10459e-15
-1.10112e-15
-1.10155e-15
-1.08767e-15
-1.0842e-15
-1.11066e-15
-7.24681e-16
-7.70651e-16
-7.54171e-16
-7.51569e-16
-7.53737e-16
-7.15573e-16
-7.68482e-16
-7.33788e-16
-7.62411e-16
-7.3986e-16
-7.63712e-16
-7.22946e-16
-7.56773e-16
-7.47666e-16
-7.66314e-16
-7.43763e-16
-7.50702e-16
-7.29885e-16
-7.29451e-16
-7.30319e-16
-7.41594e-16
-7.44196e-16
-7.33788e-16
-7.49834e-16
-7.34222e-16
-7.48533e-16
-7.24681e-16
-7.42462e-16
-7.66314e-16
-7.52436e-16
-7.58508e-16
-7.48967e-16
-7.18176e-16
-7.78023e-16
-7.55906e-16
-7.25114e-16
-7.65013e-16
-7.52003e-16
-7.37691e-16
-7.47666e-16
-7.32053e-16
-7.76722e-16
-7.34655e-16
-7.29885e-16
-7.53304e-16
-7.46798e-16
-7.16441e-16
-7.21645e-16
-7.34655e-16
-7.56339e-16
-7.34222e-16
-7.30752e-16
-7.22946e-16
-6.89119e-16
-7.47232e-16
-7.45931e-16
-7.29451e-16
-7.29018e-16
-7.59375e-16
-7.30319e-16
-4.69243e-16
-4.69676e-16
-4.42788e-16
-4.91794e-16
-4.4886e-16
-4.88325e-16
-4.31512e-16
-4.66641e-16
-4.67942e-16
-4.51462e-16
-4.64906e-16
-4.76182e-16
-4.35416e-16
-4.84855e-16
-4.87024e-16
-4.84855e-16
-4.7011e-16
-4.56232e-16
-4.61436e-16
-4.8659e-16
-4.42788e-16
-4.58401e-16
-4.70977e-16
-4.6187e-16
-4.71411e-16
-4.72712e-16
-4.89192e-16
-4.44089e-16
-4.57967e-16
-4.4886e-16
-4.51462e-16
-4.44957e-16
-4.71411e-16
-4.32814e-16
-4.51895e-16
-4.80518e-16
-4.55365e-16
-4.77049e-16
-4.43222e-16
-4.41487e-16
-4.52763e-16
-4.60569e-16
-4.6187e-16
-4.67074e-16
-4.70544e-16
-4.7358e-16
-4.61003e-16
-4.91794e-16
-4.75748e-16
-4.46258e-16
-4.60135e-16
-4.96131e-16
-4.7835e-16
-5.23019e-16
-4.77483e-16
-4.53197e-16
-4.59702e-16
-4.8659e-16
-4.571e-16
-4.64906e-16
-2.72785e-16
-2.53703e-16
-2.84495e-16
-2.60642e-16
-3.07913e-16
-2.57606e-16
-2.93602e-16
-2.76688e-16
-2.86663e-16
-2.81025e-16
-3.09648e-16
-2.62377e-16
-3.06612e-16
-2.26815e-16
-2.38091e-16
-2.8276e-16
-2.88831e-16
-3.21791e-16
-2.55872e-16
-2.61943e-16
-2.99673e-16
-2.88831e-16
-2.77556e-16
-2.76688e-16
-2.78857e-16
-2.91434e-16
-2.77556e-16
-3.13985e-16
-2.68448e-16
-3.02709e-16
-2.61076e-16
-2.8276e-16
-2.81893e-16
-2.60642e-16
-2.84061e-16
-2.76255e-16
-2.7929e-16
-2.54137e-16
-3.01842e-16
-2.7452e-16
-2.55004e-16
-2.79724e-16
-2.49366e-16
-2.61076e-16
-2.71051e-16
-2.68448e-16
-2.70183e-16
-2.55004e-16
-2.61076e-16
-3.24827e-16
-2.78423e-16
-2.55438e-16
-2.72785e-16
-2.60642e-16
-2.74086e-16
-2.98806e-16
-2.72785e-16
-2.61943e-16
-2.67581e-16
-2.67147e-16
-1.46584e-16
-1.60896e-16
-1.50487e-16
-1.80845e-16
-1.3314e-16
-1.52656e-16
-1.7434e-16
-1.69569e-16
-1.45717e-16
-1.50054e-16
-1.25334e-16
-1.67834e-16
-1.1666e-16
-1.89519e-16
-1.75641e-16
-1.22298e-16
-1.39645e-16
-1.05818e-16
-1.7911e-16
-1.87784e-16
-1.58727e-16
-1.58294e-16
-1.60028e-16
-1.59161e-16
-1.52656e-16
-1.38778e-16
-1.33574e-16
-1.31839e-16
-1.61763e-16
-1.51355e-16
-1.51355e-16
-1.77809e-16
-1.53089e-16
-1.81712e-16
-1.23165e-16
-1.66533e-16
-1.47018e-16
-1.38778e-16
-1.5439e-16
-1.5786e-16
-1.91253e-16
-1.58727e-16
-1.49186e-16
-1.71304e-16
-1.06685e-16
-1.59161e-16
-1.50921e-16
-1.48319e-16
-1.47885e-16
-1.28803e-16
-1.64365e-16
-1.53523e-16
-1.7087e-16
-1.27502e-16
-1.63931e-16
-1.5439e-16
-1.61329e-16
-1.61329e-16
-1.5439e-16
-1.50921e-16
-1.0365e-16
-6.20164e-17
-6.1149e-17
-8.10983e-17
-1.03216e-16
-8.50015e-17
-5.85469e-17
-7.50268e-17
-8.41341e-17
-1.04951e-16
-9.67108e-17
-4.38018e-17
-1.04517e-16
-7.80626e-17
-8.50015e-17
-1.05384e-16
-8.1532e-17
-1.08854e-16
-7.97973e-17
-4.11997e-17
-7.63278e-17
-5.11743e-17
-1.01915e-16
-6.54858e-17
-7.41594e-17
-1.09721e-16
-8.80372e-17
-1.15359e-16
-1.04517e-16
-6.76542e-17
-8.76035e-17
-8.93383e-17
-9.93129e-17
-7.069e-17
-9.54098e-17
-9.15067e-17
-7.02563e-17
-9.97466e-17
-6.37511e-17
-1.09721e-16
-2.90566e-17
-6.37511e-17
-8.97719e-17
-6.37511e-17
-1.15359e-16
-8.54351e-17
-8.2833e-17
-1.18829e-16
-9.93129e-17
-8.89046e-17
-4.77049e-17
-9.97466e-17
-7.97973e-17
-9.67108e-17
-9.06393e-17
-1.14058e-16
-9.49761e-17
-1.01048e-16
-7.93636e-17
-7.63278e-17
-5.46438e-17
-6.28837e-17
-1.00614e-16
-6.67869e-17
-4.81386e-17
-8.06646e-17
-2.94903e-17
-5.11743e-17
-6.15827e-17
-5.42101e-17
-4.81386e-17
-9.88792e-17
-8.93383e-17
-7.1991e-17
-6.28837e-17
-5.1608e-17
-7.80626e-17
-3.77302e-17
-5.20417e-17
-7.84962e-17
-8.32667e-17
-9.06393e-17
-5.11743e-17
-6.1149e-17
-5.46438e-17
-9.19403e-17
-7.54605e-17
-1.99493e-17
-3.77302e-17
-1.02349e-16
-6.33174e-17
-3.77302e-17
-6.67869e-17
-6.80879e-17
-7.76289e-17
-3.64292e-17
-6.72205e-17
-8.67362e-17
-7.89299e-17
-4.2067e-17
-8.67362e-17
-8.71699e-17
-4.33681e-17
-8.76035e-17
-5.33427e-17
-6.76542e-17
-6.15827e-17
-4.42354e-17
-2.47198e-17
-7.1991e-17
-9.97466e-17
-3.68629e-17
-7.97973e-17
-7.41594e-17
-8.23994e-17
-3.68629e-17
-3.29597e-17
-7.15573e-17
-6.63532e-17
-6.37511e-17
-6.98226e-17
-7.28584e-17
-7.11237e-17
-6.76542e-17
-9.32414e-17
-9.28077e-17
-1.09721e-16
-7.32921e-17
-7.069e-17
-7.15573e-17
-5.1608e-17
-7.71952e-17
-3.29597e-17
-5.50775e-17
-7.71952e-17
-8.84709e-17
-6.1149e-17
-6.33174e-17
-7.41594e-17
-7.71952e-17
-7.069e-17
-6.50521e-17
-8.84709e-17
-9.28077e-17
-6.72205e-17
-4.42354e-17
-5.37764e-17
-8.71699e-17
-6.33174e-17
-6.46184e-17
-6.63532e-17
-8.0231e-17
-8.97719e-17
-6.63532e-17
-6.41848e-17
-9.67108e-17
-4.2067e-17
-3.42608e-17
-7.41594e-17
-7.97973e-17
-7.24247e-17
-6.72205e-17
-7.84962e-17
-7.1991e-17
-7.24247e-17
-8.45678e-17
-9.93129e-17
-8.76035e-17
-1.04517e-16
-5.94143e-17
-8.19657e-17
-7.02563e-17
-7.15573e-17
-7.97973e-17
-8.54351e-17
-8.50015e-17
-1.30538e-16
-7.02563e-17
-6.15827e-17
-5.37764e-17
-8.58688e-17
-9.15067e-17
-1.0018e-16
-1.1189e-16
-7.32921e-17
-6.63532e-17
-8.06646e-17
-1.24033e-16
-1.32273e-16
-1.00614e-16
-1.37043e-16
-7.069e-17
-9.41087e-17
-9.62772e-17
-1.27502e-16
-1.01915e-16
-1.01481e-16
-1.38778e-16
-1.11456e-16
-1.02782e-16
-1.19696e-16
-1.53957e-16
-1.17094e-16
-1.09288e-16
-1.02782e-16
-1.0018e-16
-7.24247e-17
-8.10983e-17
-1.10155e-16
-1.06685e-16
-8.89046e-17
-1.05384e-16
-1.26201e-16
-9.02056e-17
-7.63278e-17
-8.89046e-17
-1.01481e-16
-1.27068e-16
-9.71445e-17
-8.41341e-17
-9.88792e-17
-9.67108e-17
-1.00614e-16
-1.09721e-16
-1.06252e-16
-1.05384e-16
-9.19403e-17
-9.62772e-17
-8.71699e-17
-1.19696e-16
-8.84709e-17
-9.62772e-17
-8.1532e-17
-8.06646e-17
-1.00614e-16
-1.1666e-16
-5.89806e-17
-8.45678e-17
-1.21864e-16
-1.23599e-16
-1.90386e-16
-1.63064e-16
-1.47018e-16
-1.83447e-16
-1.81712e-16
-1.61329e-16
-1.61763e-16
-1.44849e-16
-1.63064e-16
-1.51355e-16
-1.06252e-16
-1.53957e-16
-1.59595e-16
-1.4138e-16
-1.55258e-16
-1.42681e-16
-1.48753e-16
-1.249e-16
-1.53089e-16
-1.51355e-16
-1.42681e-16
-1.19262e-16
-1.29237e-16
-1.27502e-16
-1.54824e-16
-1.6263e-16
-1.81279e-16
-1.64365e-16
-1.35308e-16
-1.45717e-16
-1.72605e-16
-1.5786e-16
-1.34007e-16
-1.44849e-16
-1.66533e-16
-1.4962e-16
-1.65232e-16
-1.38344e-16
-1.47018e-16
-1.58294e-16
-1.61763e-16
-1.56559e-16
-1.58727e-16
-1.32706e-16
-1.7087e-16
-1.39212e-16
-1.51355e-16
-1.36176e-16
-1.55691e-16
-1.30104e-16
-1.40513e-16
-1.65232e-16
-1.661e-16
-1.53523e-16
-1.25334e-16
-1.27502e-16
-1.59161e-16
-1.45717e-16
-1.43115e-16
-1.3314e-16
-1.86049e-16
-2.55438e-16
-2.10769e-16
-1.76074e-16
-1.86483e-16
-1.88651e-16
-2.1684e-16
-2.42428e-16
-1.79978e-16
-2.26381e-16
-2.28983e-16
-2.26815e-16
-2.26815e-16
-1.89519e-16
-2.0383e-16
-2.18575e-16
-2.07733e-16
-1.97758e-16
-2.2855e-16
-1.63498e-16
-2.1684e-16
-2.2031e-16
-2.14238e-16
-2.33754e-16
-2.01662e-16
-2.14238e-16
-2.26381e-16
-2.26381e-16
-2.58907e-16
-2.13805e-16
-2.44162e-16
-1.91253e-16
-2.38958e-16
-2.55872e-16
-2.19876e-16
-2.22912e-16
-2.07733e-16
-2.10769e-16
-2.32019e-16
-1.56559e-16
-2.10335e-16
-2.40259e-16
-2.38958e-16
-2.42861e-16
-2.00794e-16
-1.84314e-16
-2.17274e-16
-2.24647e-16
-2.10335e-16
-1.9559e-16
-1.77375e-16
-2.50234e-16
-1.60896e-16
-1.9082e-16
-2.49366e-16
-2.29851e-16
-1.97758e-16
-2.14238e-16
-2.13805e-16
-2.10335e-16
-3.07913e-16
-2.55004e-16
-3.03577e-16
-3.52149e-16
-3.02276e-16
-3.10949e-16
-2.98806e-16
-3.33067e-16
-3.747e-16
-2.93602e-16
-2.56739e-16
-2.73219e-16
-3.10516e-16
-3.43475e-16
-3.55185e-16
-3.19623e-16
-2.71484e-16
-3.04878e-16
-2.78857e-16
-3.22659e-16
-2.62377e-16
-3.43475e-16
-3.01842e-16
-3.17454e-16
-2.80592e-16
-2.61943e-16
-3.2396e-16
-2.59341e-16
-2.44162e-16
-2.68448e-16
-2.04264e-16
-2.96204e-16
-2.88831e-16
-2.87964e-16
-3.04878e-16
-2.83627e-16
-3.32633e-16
-2.56739e-16
-2.89699e-16
-3.48679e-16
-3.33934e-16
-3.01408e-16
-3.07913e-16
-3.09214e-16
-3.46077e-16
-2.95337e-16
-2.77122e-16
-2.60642e-16
-3.50848e-16
-3.50848e-16
-3.38705e-16
-2.21611e-16
-3.17021e-16
-3.11383e-16
-2.38091e-16
-3.31766e-16
-2.95337e-16
-2.97071e-16
-2.63678e-16
-2.98372e-16
-4.22839e-16
-4.38451e-16
-4.5363e-16
-3.65159e-16
-4.29344e-16
-3.75568e-16
-4.12864e-16
-3.47378e-16
-3.62557e-16
-3.81205e-16
-4.28043e-16
-3.91614e-16
-3.78603e-16
-4.21971e-16
-3.62991e-16
-3.78603e-16
-4.68809e-16
-3.85976e-16
-4.46258e-16
-4.29778e-16
-4.32814e-16
-4.2891e-16
-4.28043e-16
-3.63858e-16
-3.99854e-16
-4.20237e-16
-3.66027e-16
-4.21538e-16
-4.97432e-16
-4.36717e-16
-4.83988e-16
-4.11563e-16
-4.6534e-16
-4.25441e-16
-3.81205e-16
-3.98553e-16
-3.95951e-16
-4.42788e-16
-4.16767e-16
-3.85109e-16
-3.4998e-16
-3.40873e-16
-3.55185e-16
-3.73399e-16
-4.04191e-16
-3.84241e-16
-3.82507e-16
-4.49293e-16
-3.68629e-16
-3.94216e-16
-3.63425e-16
-4.64472e-16
-4.35849e-16
-4.22839e-16
-4.57533e-16
-3.1572e-16
-3.91614e-16
-3.64726e-16
-4.11129e-16
-3.86843e-16
-5.06106e-16
-5.23453e-16
-5.30825e-16
-5.95444e-16
-5.58147e-16
-5.74627e-16
-6.01082e-16
-6.01515e-16
-5.10442e-16
-5.92408e-16
-5.4904e-16
-5.89372e-16
-5.98046e-16
-5.05672e-16
-5.51642e-16
-6.00214e-16
-4.4886e-16
-5.90673e-16
-5.13044e-16
-5.23453e-16
-5.28657e-16
-5.33427e-16
-5.2779e-16
-5.62484e-16
-5.37764e-16
-5.39065e-16
-5.56846e-16
-5.31259e-16
-5.08274e-16
-5.17815e-16
-5.39933e-16
-5.45137e-16
-4.21971e-16
-5.46872e-16
-5.93275e-16
-5.45571e-16
-5.1955e-16
-4.93095e-16
-5.36897e-16
-5.39933e-16
-5.84168e-16
-5.78097e-16
-6.09755e-16
-5.39065e-16
-5.38632e-16
-5.83734e-16
-6.01949e-16
-5.52509e-16
-5.39065e-16
-5.10009e-16
-5.72025e-16
-4.81819e-16
-5.28223e-16
-5.20851e-16
-4.51028e-16
-5.96311e-16
-5.20417e-16
-5.408e-16
-5.1131e-16
-5.06106e-16
-7.3639e-16
-7.23813e-16
-7.17308e-16
-6.8695e-16
-7.069e-16
-7.12104e-16
-6.94323e-16
-6.77843e-16
-7.93202e-16
-6.95624e-16
-6.91287e-16
-7.0343e-16
-7.37257e-16
-6.94323e-16
-7.01696e-16
-6.64833e-16
-7.90167e-16
-7.40727e-16
-6.83915e-16
-7.26415e-16
-7.65013e-16
-7.50702e-16
-7.08201e-16
-7.45497e-16
-7.32921e-16
-7.42028e-16
-7.53737e-16
-7.13405e-16
-7.01696e-16
-7.069e-16
-7.1991e-16
-6.5269e-16
-8.00575e-16
-7.18609e-16
-6.9042e-16
-7.10803e-16
-7.53304e-16
-7.04731e-16
-6.67869e-16
-7.56773e-16
-7.16874e-16
-6.90854e-16
-7.04731e-16
-7.51569e-16
-7.26849e-16
-7.05599e-16
-7.19043e-16
-7.46365e-16
-7.82794e-16
-7.32921e-16
-7.56773e-16
-7.57207e-16
-7.37691e-16
-6.92155e-16
-8.04044e-16
-7.1514e-16
-7.51569e-16
-7.5287e-16
-7.30752e-16
-7.99708e-16
-9.71445e-16
-9.69277e-16
-1.01568e-15
-1.01178e-15
-1.00137e-15
-1.01698e-15
-1.02652e-15
-1.02912e-15
-1.00267e-15
-1.00527e-15
-9.59302e-16
-9.94864e-16
-9.85757e-16
-1.03563e-15
-1.03476e-15
-1.05601e-15
-9.4369e-16
-9.88359e-16
-9.96599e-16
-9.77083e-16
-9.60169e-16
-9.4846e-16
-1.05428e-15
-9.84022e-16
-1.0044e-15
-9.84456e-16
-9.47593e-16
-1.04907e-15
-1.01568e-15
-1.01048e-15
-9.88792e-16
-1.00007e-15
-9.70578e-16
-1.01178e-15
-9.97032e-16
-1.02782e-15
-9.74915e-16
-1.02392e-15
-1.06035e-15
-9.94864e-16
-9.83155e-16
-1.00354e-15
-1.00571e-15
-9.46725e-16
-1.01785e-15
-1.02305e-15
-9.62338e-16
-9.85323e-16
-9.6494e-16
-1.02088e-15
-9.88359e-16
-9.65374e-16
-1.05038e-15
-9.84022e-16
-9.84456e-16
-9.45858e-16
-9.9443e-16
-1.04127e-15
-9.92262e-16
-9.3545e-16
-1.38995e-15
-1.38865e-15
-1.38171e-15
-1.38908e-15
-1.35699e-15
-1.34745e-15
-1.38041e-15
-1.36393e-15
-1.31752e-15
-1.35395e-15
-1.43418e-15
-1.38908e-15
-1.4177e-15
-1.28196e-15
-1.38561e-15
-1.37217e-15
-1.4203e-15
-1.3687e-15
-1.36566e-15
-1.40252e-15
-1.43115e-15
-1.39342e-15
-1.32576e-15
-1.36653e-15
-1.36046e-15
-1.33877e-15
-1.39732e-15
-1.37217e-15
-1.38908e-15
-1.40903e-15
-1.3713e-15
-1.36219e-15
-1.33747e-15
-1.42291e-15
-1.38041e-15
-1.36566e-15
-1.35525e-15
-1.42117e-15
-1.41727e-15
-1.36263e-15
-1.38431e-15
-1.36349e-15
-1.31145e-15
-1.35569e-15
-1.35525e-15
-1.33964e-15
-1.43809e-15
-1.34268e-15
-1.32663e-15
-1.35092e-15
-1.3713e-15
-1.39689e-15
-1.38388e-15
-1.36609e-15
-1.30234e-15
-1.42074e-15
-1.43678e-15
-1.31882e-15
-1.34571e-15
-1.419e-15
-1.93031e-15
-1.94766e-15
-1.89215e-15
-1.91123e-15
-1.96761e-15
-1.98669e-15
-1.94202e-15
-1.91513e-15
-1.93855e-15
-1.95764e-15
-1.93595e-15
-1.92251e-15
-1.91817e-15
-2.01358e-15
-1.96327e-15
-1.95503e-15
-1.88434e-15
-1.9572e-15
-1.99753e-15
-1.95937e-15
-1.99146e-15
-1.93725e-15
-1.9533e-15
-1.952e-15
-1.92121e-15
-1.98279e-15
-1.96761e-15
-1.99667e-15
-1.97151e-15
-1.92598e-15
-1.92121e-15
-1.9546e-15
-2.00621e-15
-1.92728e-15
-2.00014e-15
-1.91297e-15
-1.94376e-15
-1.90126e-15
-1.92641e-15
-1.94289e-15
-1.94593e-15
-1.94289e-15
-2.01705e-15
-1.95677e-15
-1.88044e-15
-1.9533e-15
-1.90689e-15
-2.01185e-15
-2.00187e-15
-1.97845e-15
-1.9598e-15
-1.93031e-15
-1.88521e-15
-1.97455e-15
-2.06736e-15
-1.92554e-15
-1.90386e-15
-1.98322e-15
-1.9559e-15
-1.916e-15
-2.76081e-15
-2.78206e-15
-2.75517e-15
-2.71051e-15
-2.7001e-15
-2.75214e-15
-2.76732e-15
-2.78553e-15
-2.75951e-15
-2.72742e-15
-2.75517e-15
-2.80418e-15
-2.75301e-15
-2.71744e-15
-2.74737e-15
-2.79681e-15
-2.81112e-15
-2.75734e-15
-2.71137e-15
-2.72308e-15
-2.71614e-15
-2.75387e-15
-2.74e-15
-2.73956e-15
-2.79811e-15
-2.74954e-15
-2.79507e-15
-2.71354e-15
-2.75951e-15
-2.73783e-15
-2.77296e-15
-2.72048e-15
-2.72525e-15
-2.74303e-15
-2.67581e-15
-2.77079e-15
-2.76645e-15
-2.76211e-15
-2.7452e-15
-2.71961e-15
-2.72395e-15
-2.7838e-15
-2.69533e-15
-2.71744e-15
-2.81372e-15
-2.68579e-15
-2.79421e-15
-2.6975e-15
-2.76168e-15
-2.73566e-15
-2.74347e-15
-2.78033e-15
-2.7929e-15
-2.71137e-15
-2.66454e-15
-2.74347e-15
-2.74303e-15
-2.78033e-15
-2.78163e-15
-2.78423e-15
-3.79731e-15
-3.80338e-15
-3.80338e-15
-3.86019e-15
-3.85976e-15
-3.81119e-15
-3.74614e-15
-3.74614e-15
-3.89315e-15
-3.80555e-15
-3.83851e-15
-3.79384e-15
-3.80598e-15
-3.80425e-15
-3.81379e-15
-3.77649e-15
-3.75438e-15
-3.76739e-15
-3.80815e-15
-3.83634e-15
-3.85369e-15
-3.80989e-15
-3.81683e-15
-3.89402e-15
-3.80555e-15
-3.80208e-15
-3.7856e-15
-3.87971e-15
-3.77216e-15
-3.80772e-15
-3.79427e-15
-3.83417e-15
-3.85369e-15
-3.87581e-15
-3.8242e-15
-3.82637e-15
-3.80251e-15
-3.79297e-15
-3.81205e-15
-3.82984e-15
-3.81986e-15
-3.84458e-15
-3.85889e-15
-3.81509e-15
-3.78126e-15
-3.86193e-15
-3.80989e-15
-3.80555e-15
-3.83114e-15
-3.7908e-15
-3.81075e-15
-3.77476e-15
-3.79601e-15
-3.81899e-15
-3.88188e-15
-3.83157e-15
-3.84762e-15
-3.76478e-15
-3.78473e-15
-3.72619e-15
-4.85766e-15
-4.7822e-15
-4.84725e-15
-4.82643e-15
-4.84161e-15
-4.84812e-15
-4.91534e-15
-4.87327e-15
-4.73796e-15
-4.8659e-15
-4.84031e-15
-4.79868e-15
-4.82774e-15
-4.88888e-15
-4.85592e-15
-4.85809e-15
-4.87934e-15
-4.88758e-15
-4.84205e-15
-4.8247e-15
-4.82166e-15
-4.85549e-15
-4.86113e-15
-4.82296e-15
-4.8221e-15
-4.84465e-15
-4.8312e-15
-4.81299e-15
-4.90623e-15
-4.87718e-15
-4.84335e-15
-4.86807e-15
-4.79044e-15
-4.85636e-15
-4.91577e-15
-4.81516e-15
-4.80779e-15
-4.89149e-15
-4.88325e-15
-4.89626e-15
-4.82036e-15
-4.79825e-15
-4.8195e-15
-4.8221e-15
-4.85853e-15
-4.8234e-15
-4.83294e-15
-4.8672e-15
-4.85549e-15
-4.84682e-15
-4.81169e-15
-4.83207e-15
-4.80952e-15
-4.84335e-15
-4.81256e-15
-4.83034e-15
-4.80735e-15
-4.82817e-15
-4.90536e-15
-4.96521e-15
-5.12698e-15
-5.17295e-15
-5.12698e-15
-5.21675e-15
-5.17988e-15
-5.1634e-15
-5.09011e-15
-5.1582e-15
-5.20851e-15
-5.14909e-15
-5.08968e-15
-5.17164e-15
-5.16687e-15
-5.06453e-15
-5.14996e-15
-5.12351e-15
-5.13652e-15
-5.1621e-15
-5.17164e-15
-5.15907e-15
-5.15907e-15
-5.18335e-15
-5.10529e-15
-5.19116e-15
-5.13695e-15
-5.18769e-15
-5.2046e-15
-5.10876e-15
-5.14779e-15
-5.09315e-15
-5.17338e-15
-5.08057e-15
-5.18682e-15
-5.12264e-15
-5.117e-15
-5.22759e-15
-5.19073e-15
-5.0719e-15
-5.09532e-15
-5.05845e-15
-5.23366e-15
-5.11006e-15
-5.17338e-15
-5.18899e-15
-5.14259e-15
-5.11093e-15
-5.13912e-15
-5.10703e-15
-5.13088e-15
-5.17425e-15
-5.14909e-15
-5.16817e-15
-5.23973e-15
-5.17338e-15
-5.1595e-15
-5.18422e-15
-5.20287e-15
-5.18032e-15
-5.11006e-15
-5.03157e-15
-3.42174e-15
-3.42261e-15
-3.38835e-15
-3.29771e-15
-3.33024e-15
-3.38228e-15
-3.40266e-15
-3.33067e-15
-3.371e-15
-3.35496e-15
-3.36363e-15
-3.42738e-15
-3.37837e-15
-3.44559e-15
-3.34108e-15
-3.38228e-15
-3.38488e-15
-3.31462e-15
-3.33934e-15
-3.34672e-15
-3.37881e-15
-3.286e-15
-3.4096e-15
-3.34064e-15
-3.37968e-15
-3.36536e-15
-3.38098e-15
-3.40136e-15
-3.3749e-15
-3.47335e-15
-3.40223e-15
-3.39832e-15
-3.3671e-15
-3.3632e-15
-3.41957e-15
-3.37404e-15
-3.322e-15
-3.41394e-15
-3.42955e-15
-3.3632e-15
-3.21488e-15
-3.40439e-15
-3.41871e-15
-3.32503e-15
-3.37751e-15
-3.36233e-15
-3.32633e-15
-3.4469e-15
-3.41177e-15
-3.29901e-15
-3.40786e-15
-3.42218e-15
-3.29381e-15
-3.30335e-15
-3.38618e-15
-3.31679e-15
-3.40049e-15
-3.35886e-15
-3.44603e-15
-3.39919e-15
1.65493e-15
1.75164e-15
1.75597e-15
1.77592e-15
1.64929e-15
1.68398e-15
1.74947e-15
1.69699e-15
1.81495e-15
1.71304e-15
1.64582e-15
1.80975e-15
1.75554e-15
1.73472e-15
1.72215e-15
1.70697e-15
1.68442e-15
1.69352e-15
1.64365e-15
1.65623e-15
1.69396e-15
1.66317e-15
1.75077e-15
1.6623e-15
1.7074e-15
1.70306e-15
1.84271e-15
1.74036e-15
1.73949e-15
1.79934e-15
1.72692e-15
1.80151e-15
1.69482e-15
1.76161e-15
1.71694e-15
1.76378e-15
1.74643e-15
1.61763e-15
1.74426e-15
1.71261e-15
1.64365e-15
1.7035e-15
1.72215e-15
1.66924e-15
1.76378e-15
1.77722e-15
1.74166e-15
1.82233e-15
1.69136e-15
1.66533e-15
1.7924e-15
1.71954e-15
1.71347e-15
1.6211e-15
1.76595e-15
1.69743e-15
1.83881e-15
1.71651e-15
1.80888e-15
1.75337e-15
9.19664e-15
9.16454e-15
9.07174e-15
9.03921e-15
9.1034e-15
9.18623e-15
9.13028e-15
9.11424e-15
9.00061e-15
9.24347e-15
9.21745e-15
9.0314e-15
9.16671e-15
9.12248e-15
9.05569e-15
9.14893e-15
9.15544e-15
9.16715e-15
9.23393e-15
9.12465e-15
9.11033e-15
9.22136e-15
9.10079e-15
9.2348e-15
9.13332e-15
9.20488e-15
8.9837e-15
9.11901e-15
9.02924e-15
9.14546e-15
9.0288e-15
8.99671e-15
9.32457e-15
9.13245e-15
9.18406e-15
9.11164e-15
9.01362e-15
9.26039e-15
9.14416e-15
9.11337e-15
9.09255e-15
9.11597e-15
9.18319e-15
9.16758e-15
9.12161e-15
9.07607e-15
9.09038e-15
9.13809e-15
9.20488e-15
9.14113e-15
9.07304e-15
9.20314e-15
9.10426e-15
9.20097e-15
9.02013e-15
9.14676e-15
9.03964e-15
9.16541e-15
8.99367e-15
9.06393e-15
1.2735e-14
1.27307e-14
1.27611e-14
1.27992e-14
1.27832e-14
1.26982e-14
1.2742e-14
1.26539e-14
1.2709e-14
1.26249e-14
1.26761e-14
1.27958e-14
1.26839e-14
1.28023e-14
1.27879e-14
1.27298e-14
1.26769e-14
1.27021e-14
1.26878e-14
1.27866e-14
1.27355e-14
1.25958e-14
1.27632e-14
1.26891e-14
1.27771e-14
1.26665e-14
1.28044e-14
1.27502e-14
1.27758e-14
1.26119e-14
1.28491e-14
1.29029e-14
1.2546e-14
1.27507e-14
1.26943e-14
1.268e-14
1.28508e-14
1.26726e-14
1.27272e-14
1.2768e-14
1.27125e-14
1.27025e-14
1.26284e-14
1.26561e-14
1.27619e-14
1.27368e-14
1.2686e-14
1.26977e-14
1.26895e-14
1.27381e-14
1.27598e-14
1.27103e-14
1.27016e-14
1.26713e-14
1.27658e-14
1.27624e-14
1.26869e-14
1.26821e-14
1.27689e-14
1.27476e-14
2.2057e-15
2.39826e-15
2.39305e-15
2.30501e-15
2.43945e-15
2.35836e-15
2.27205e-15
2.42428e-15
2.31325e-15
2.41213e-15
2.39522e-15
2.35575e-15
2.40606e-15
2.35229e-15
2.29851e-15
2.39869e-15
2.46244e-15
2.49844e-15
2.33927e-15
2.43208e-15
2.40303e-15
2.55872e-15
2.35402e-15
2.27422e-15
2.30935e-15
2.50104e-15
2.35706e-15
2.4542e-15
2.42558e-15
2.41994e-15
2.34274e-15
2.13198e-15
2.44466e-15
2.36616e-15
2.33494e-15
2.43599e-15
2.42905e-15
2.44596e-15
2.41517e-15
2.30892e-15
2.39132e-15
2.36226e-15
2.46027e-15
2.48933e-15
2.37917e-15
2.40866e-15
2.34101e-15
2.39002e-15
2.4954e-15
2.35879e-15
2.35272e-15
2.29157e-15
2.41994e-15
2.30675e-15
2.39392e-15
2.32149e-15
2.38481e-15
2.377e-15
2.3241e-15
2.36963e-15
-2.6187e-14
-2.64042e-14
-2.63032e-14
-2.62793e-14
-2.63331e-14
-2.63531e-14
-2.63223e-14
-2.63765e-14
-2.62746e-14
-2.63218e-14
-2.63309e-14
-2.63192e-14
-2.63903e-14
-2.63279e-14
-2.6324e-14
-2.6484e-14
-2.63275e-14
-2.63925e-14
-2.62429e-14
-2.63747e-14
-2.64355e-14
-2.63726e-14
-2.63383e-14
-2.61778e-14
-2.62654e-14
-2.63834e-14
-2.63674e-14
-2.63444e-14
-2.64099e-14
-2.62919e-14
-2.63344e-14
-2.60989e-14
-2.63522e-14
-2.618e-14
-2.63531e-14
-2.62971e-14
-2.64732e-14
-2.635e-14
-2.65677e-14
-2.62325e-14
-2.63231e-14
-2.62997e-14
-2.64289e-14
-2.63301e-14
-2.63734e-14
-2.63609e-14
-2.61969e-14
-2.63648e-14
-2.64454e-14
-2.62438e-14
-2.62902e-14
-2.63266e-14
-2.63331e-14
-2.63114e-14
-2.63513e-14
-2.63283e-14
-2.62889e-14
-2.63335e-14
-2.63227e-14
-2.62216e-14
-5.99898e-14
-5.99481e-14
-5.99742e-14
-5.99551e-14
-5.99781e-14
-5.9962e-14
-5.99438e-14
-5.97634e-14
-6.0057e-14
-6.00808e-14
-6.00102e-14
-6.00145e-14
-5.98991e-14
-5.98879e-14
-5.99052e-14