/*--------------------------------*- C++ -*----------------------------------*\
| =========                 |                                                 |
| \\      /  F ield         | foam-extend: Open Source CFD                    |
|  \\    /   O peration     | Version:     4.0                                |
|   \\  /    A nd           | Web:         http://www.foam-extend.org         |
|    \\/     M anipulation  |                                                 |
\*---------------------------------------------------------------------------*/
FoamFile
{
    version     2.0;
    format      ascii;
    class       volScalarField;
    location    "26";
    object      dPhi;
}
// * * * * * * * * * * * * * * * * * * * * * * * * * * * * * * * * * * * * * //

dimensions      [0 -1 0 0 0 0 0];

internalField   nonuniform List<scalar> 
6960
(
-1.6277e-15
-1.84415e-16
3.70704e-16
-4.06427e-16
-7.39575e-16
-7.39494e-16
-1.84383e-16
-4.06508e-16
5.92773e-16
-9.61539e-16
3.75808e-17
-6.28472e-16
-1.29461e-15
7.03715e-16
-1.40563e-15
-4.06427e-16
1.48603e-16
3.76618e-17
-1.18358e-15
-4.06508e-16
-2.95405e-16
-5.1745e-16
-5.17531e-16
-7.39494e-16
3.76618e-17
8.14737e-16
3.70729e-16
8.14818e-16
-5.17531e-16
3.70729e-16
8.15061e-16
-1.07313e-15
1.48927e-16
3.79046e-17
5.92207e-16
1.03711e-15
1.70324e-15
3.70162e-16
1.14813e-15
1.25915e-15
8.14251e-16
3.70972e-16
-1.8414e-16
7.03229e-16
1.14813e-15
-1.07232e-15
-8.51083e-16
1.37017e-15
1.03711e-15
-2.95972e-16
3.70972e-16
-4.06185e-16
-1.84949e-16
3.70971e-16
1.03711e-15
5.92207e-16
1.37017e-15
9.26083e-16
-7.39272e-17
-4.06185e-16
6.03508e-16
-9.50821e-16
-7.28759e-16
-1.78342e-15
7.14408e-16
1.59472e-16
1.38072e-15
-4.51326e-16
3.26005e-16
1.03961e-16
6.03386e-16
8.25606e-16
3.81516e-16
-2.61626e-15
-1.22831e-15
3.26005e-16
1.03785e-16
-2.84617e-16
-1.6724e-15
4.92363e-16
1.59472e-16
-7.84218e-16
8.80941e-16
-4.51151e-16
-1.00626e-15
-1.7377e-16
-2.39404e-15
2.14983e-16
-1.00644e-15
1.82481e-15
1.1592e-15
5.46822e-16
-4.50625e-16
7.70621e-16
4.72221e-17
-1.44983e-15
2.7102e-16
2.69267e-16
3.82042e-16
4.93065e-16
2.60074e-15
3.10209e-15
2.1584e-15
-1.50709e-15
-1.22778e-15
2.82453e-15
-2.30334e-16
-6.20468e-17
1.43675e-15
-1.17402e-15
4.37554e-16
1.71431e-15
3.4334e-15
-5.61647e-16
-1.17558e-16
4.358e-16
-8.39203e-16
-6.53564e-18
2.26767e-15
1.04818e-15
1.78695e-15
1.62038e-15
1.23184e-15
-1.01626e-15
-1.98804e-15
-7.66465e-16
-1.15504e-15
1.75896e-15
1.45398e-15
2.78625e-15
-9.33331e-16
2.88247e-16
1.12091e-15
-8.7782e-16
5.45078e-15
-2.15424e-15
-4.61487e-16
1.03765e-15
3.9927e-16
-3.7822e-16
3.71514e-16
2.88247e-16
1.2138e-16
-1.70641e-17
3.0638e-15
1.28711e-15
2.23114e-15
1.62051e-15
-7.29086e-17
1.78705e-15
5.94559e-16
-1.90678e-15
-1.4316e-15
-1.32058e-15
1.00756e-15
1.28845e-15
-2.38109e-16
-9.07576e-16
9.49582e-17
-2.54182e-15
-1.04635e-15
-1.59813e-15
-1.45935e-15
-1.93975e-17
3.39787e-15
-1.57038e-15
-1.85931e-16
3.72514e-16
1.78225e-16
4.52447e-16
-1.12629e-15
-1.1818e-15
-7.13287e-16
1.51049e-15
-9.93309e-17
-2.13687e-16
-2.9362e-16
-8.76487e-16
-2.98924e-15
1.76029e-15
1.42222e-15
1.33889e-15
-2.15361e-16
3.39929e-16
1.53283e-15
1.03382e-15
3.28202e-15
-2.40847e-15
2.56037e-15
-2.35236e-15
-2.0754e-15
2.78242e-15
1.86649e-15
2.75407e-15
-3.71239e-15
6.86158e-18
2.58754e-15
2.19955e-15
1.69995e-15
-6.04353e-16
2.22731e-15
5.61973e-16
-1.49253e-15
-1.13112e-15
2.01151e-16
-2.38071e-15
-2.07481e-15
2.00526e-15
1.45047e-16
4.61429e-15
-2.57263e-15
-5.80152e-16
3.56135e-15
1.59071e-15
-1.8014e-15
-1.6567e-15
-1.93425e-15
2.77827e-15
-5.18717e-16
-6.01984e-16
2.13989e-15
-6.01984e-16
3.00624e-15
-5.27958e-17
-3.32203e-15
-4.68726e-17
-1.21853e-15
1.61846e-15
-3.26652e-15
4.83219e-15
2.22908e-15
2.02928e-16
-5.80152e-16
-9.07296e-16
6.19261e-16
-2.13446e-15
8.96817e-16
8.69061e-16
2.50072e-15
-1.85099e-15
1.12308e-15
4.41201e-15
2.39983e-15
-3.20649e-15
-1.02713e-14
-4.39998e-15
-4.52488e-15
2.06606e-15
-2.81791e-15
-4.72563e-16
-2.51533e-16
-5.14196e-16
-3.53955e-15
3.4122e-15
1.70625e-15
1.3806e-16
-5.3308e-15
-3.16485e-15
-2.64396e-16
2.17708e-15
2.15034e-15
-2.69301e-15
-3.90139e-15
1.3806e-16
-3.62282e-15
-5.30305e-15
3.73982e-16
5.54393e-16
-2.49973e-15
-1.49952e-15
-1.12178e-15
-2.07561e-15
-3.45324e-15
2.48645e-15
2.96203e-15
-1.14953e-15
-1.57974e-15
1.62976e-15
2.37543e-15
5.48405e-15
1.28281e-15
-3.57814e-15
2.52808e-15
1.44935e-15
2.16726e-15
1.43174e-15
-2.57621e-16
3.55504e-15
2.59747e-15
1.03301e-15
1.45949e-15
-1.92669e-15
1.602e-15
3.83259e-15
-1.55199e-15
5.37676e-15
1.3901e-15
-5.11153e-16
-2.46419e-15
2.79176e-15
-3.92375e-16
2.23036e-15
-2.89038e-15
3.71415e-16
1.11911e-15
1.62042e-15
4.42373e-15
1.3134e-15
-8.22075e-16
-2.82048e-15
1.4383e-15
-7.52686e-16
3.68821e-15
-2.57238e-15
5.18701e-15
-1.32168e-15
-4.07446e-16
2.32818e-15
3.81311e-15
-4.99044e-18
-3.86131e-15
3.07758e-15
5.4351e-15
-2.83435e-15
2.61962e-15
-1.3095e-15
1.49552e-15
4.2572e-15
5.72654e-15
1.99512e-15
5.87213e-15
3.7873e-15
4.38721e-15
-2.49617e-15
-4.4006e-15
-1.05288e-15
-1.94106e-15
-1.50014e-15
-1.27493e-15
-2.51005e-15
1.05337e-15
3.2076e-15
2.94392e-15
-4.73367e-15
2.8329e-15
-1.39983e-15
-3.24874e-15
-1.35819e-15
2.18064e-15
-6.399e-15
1.50063e-15
2.9578e-15
-6.19083e-15
-4.14506e-16
-3.58994e-16
2.09421e-15
-4.06436e-15
1.36185e-15
-7.34269e-15
-3.92559e-15
7.72994e-16
-3.46695e-15
5.23194e-16
-3.09806e-15
7.29374e-16
1.32202e-15
-2.39723e-15
1.20816e-15
-2.39233e-16
5.51801e-16
-8.58956e-15
4.13023e-16
-6.13729e-15
2.12409e-15
-6.83812e-15
-3.33398e-15
-1.99761e-15
-4.40257e-15
5.30984e-16
-2.44864e-15
1.4608e-15
3.36205e-15
-1.31066e-15
4.94412e-15
4.86779e-15
-4.9881e-16
-3.97236e-15
5.09678e-15
-2.78171e-15
9.40379e-16
-2.42341e-15
4.62546e-16
-3.16587e-15
1.11543e-15
9.78842e-15
-4.31079e-15
1.87177e-15
1.17031e-15
-2.34014e-15
8.07514e-15
1.19113e-15
9.28077e-16
-2.55525e-15
9.65658e-15
3.68282e-15
1.82319e-15
2.20421e-15
1.46931e-15
1.07379e-15
6.15938e-15
-1.33575e-16
-4.40099e-15
-4.10325e-15
1.92553e-16
-7.44198e-16
-3.40242e-15
5.34815e-15
3.27342e-15
4.83362e-16
-8.62159e-16
5.44648e-15
1.10226e-15
7.65998e-15
4.67074e-15
-7.60192e-16
1.58293e-15
-4.84249e-15
2.83415e-15
1.99926e-15
-7.20786e-16
7.03914e-16
-2.35063e-16
-6.43843e-15
-3.18881e-15
6.33607e-15
4.06011e-15
-9.40604e-16
1.08255e-14
1.72171e-15
5.13093e-15
6.66993e-16
-3.32207e-16
1.63373e-15
-1.98366e-15
-6.66048e-15
-4.54883e-15
6.7871e-15
3.67847e-15
-2.6892e-15
4.90666e-15
2.20769e-15
3.28695e-16
8.16126e-15
4.24392e-16
-3.11994e-15
9.10495e-15
2.2632e-15
-7.5747e-15
2.58239e-15
-5.09897e-15
2.52367e-16
3.89384e-15
3.04729e-15
-1.22723e-14
-1.10248e-14
-3.10057e-15
-5.98834e-17
4.75426e-15
-5.61939e-15
2.33403e-15
2.70035e-15
3.42199e-15
9.67538e-15
1.31951e-15
7.92152e-16
2.36179e-15
-4.0165e-15
-1.96953e-15
-5.54855e-15
-1.28258e-15
-4.25986e-15
-9.00338e-15
-7.58359e-15
-3.89668e-15
4.05786e-15
-8.49023e-15
5.05796e-15
-1.07345e-15
-4.29914e-15
-4.96627e-16
-2.55491e-15
1.13054e-15
1.00366e-14
-3.64778e-15
-5.98182e-15
4.80816e-15
7.75762e-16
-1.06239e-14
-7.47022e-15
-6.35742e-15
-1.40215e-15
-3.03279e-15
-2.79777e-15
6.22022e-15
8.14824e-16
7.54946e-16
-8.29693e-16
-4.19506e-15
2.39946e-15
-9.4929e-15
-4.71625e-15
1.92223e-15
-1.02327e-14
1.97285e-15
-6.10607e-15
-5.30952e-15
4.96004e-15
1.20669e-14
4.8733e-15
6.33047e-15
2.81735e-15
-4.29298e-15
4.10655e-15
8.05274e-15
1.0761e-14
2.1255e-15
5.93431e-16
-2.7005e-15
1.51141e-15
-6.11301e-15
-1.22702e-16
-8.06774e-15
-4.83972e-15
-2.29111e-15
3.62083e-15
4.27104e-15
5.15675e-16
-5.97219e-15
1.04432e-14
7.51702e-15
-2.7917e-15
5.93959e-15
5.84073e-16
6.86076e-15
1.928e-15
6.00728e-15
-4.06453e-15
1.51639e-16
-1.12244e-15
1.89012e-16
1.23411e-15
2.31925e-15
-7.67969e-15
1.17166e-15
6.78096e-15
-3.86677e-15
2.24025e-15
-1.02182e-15
3.00967e-15
7.5138e-15
-3.38343e-16
2.746e-15
-1.39227e-15
-3.44697e-15
-5.46509e-16
5.32458e-15
-4.68209e-15
-1.33645e-16
-3.72247e-16
4.23439e-15
4.3708e-15
-3.41368e-15
7.26432e-15
4.33957e-15
1.91886e-15
6.68145e-15
-1.86727e-15
-2.04325e-15
-3.17872e-15
-1.64522e-15
-6.73047e-15
8.18025e-15
-1.21819e-14
5.21483e-15
-2.49524e-15
-3.81363e-15
-1.48467e-15
8.9441e-16
2.44525e-15
5.23218e-15
-3.71938e-16
3.68731e-15
3.18867e-15
-3.59852e-15
-1.01592e-14
3.435e-15
-6.39087e-16
8.29127e-15
-4.16656e-15
-4.03221e-15
-1.52333e-17
-2.16502e-15
-2.65201e-15
-7.7802e-15
-4.4958e-15
-4.28439e-16
-1.33536e-16
3.2827e-15
2.93204e-16
2.36099e-15
-4.57367e-16
2.94733e-15
1.77466e-15
3.22719e-15
-1.35881e-14
1.81282e-15
9.58169e-16
-1.98622e-15
3.87367e-15
2.62697e-15
3.29954e-17
-4.41137e-15
1.76308e-15
-2.99583e-15
1.43118e-15
-2.26148e-15
3.49204e-15
5.6986e-15
2.21064e-15
4.54675e-15
-7.78813e-16
4.82999e-15
-1.71209e-15
-1.05835e-14
-6.9349e-15
-4.73051e-15
-6.54503e-15
-9.63982e-16
5.67332e-16
5.47313e-15
8.26822e-15
-9.161e-15
1.03859e-14
-8.47534e-15
3.41575e-15
5.77739e-16
2.55057e-15
1.02853e-14
-5.33767e-15
-8.35044e-15
4.42535e-15
3.6933e-15
-4.77344e-15
8.91829e-15
1.01187e-14
-6.27452e-16
3.04104e-15
-3.21437e-15
-3.02831e-15
3.73146e-15
-3.99663e-16
9.37699e-15
1.73405e-15
-1.52582e-16
5.08032e-15
-3.10855e-15
9.56881e-15
3.46355e-15
7.67796e-15
2.92481e-15
3.05416e-15
-3.1259e-15
9.87412e-15
1.17718e-15
5.96405e-15
-2.19956e-15
4.7289e-16
2.43562e-15
-8.36065e-16
-6.27519e-15
7.2304e-15
6.71345e-15
2.66211e-15
4.35076e-15
3.64367e-16
-2.49695e-15
-3.47978e-15
-1.77281e-15
7.73791e-15
5.62752e-15
-4.10046e-17
5.54759e-15
-6.09172e-15
1.29937e-14
4.48594e-15
-5.78767e-16
7.09912e-15
-4.7884e-16
8.57582e-16
-1.47389e-15
-3.68114e-15
8.74364e-15
-6.81683e-15
5.66208e-15
1.55147e-15
4.18478e-15
-4.78844e-16
-8.81177e-15
-2.87208e-15
3.76776e-15
-3.39944e-15
-3.17739e-15
-7.66812e-16
-1.50151e-14
8.33287e-16
7.44884e-15
-2.77147e-15
-8.18171e-16
1.49527e-15
3.44095e-16
-1.28979e-15
-3.28759e-15
-8.30848e-15
5.62302e-15
-4.43238e-15
3.45115e-15
-8.50804e-15
1.02187e-16
7.55381e-16
-9.87154e-15
-7.38835e-15
-3.50857e-15
-1.05273e-14
9.32397e-15
1.77887e-15
2.84052e-15
3.36694e-15
-8.58437e-15
2.87521e-15
5.26819e-15
-1.28726e-14
-1.38371e-14
-2.4999e-15
-6.46107e-15
9.96608e-17
1.19507e-15
6.7159e-15
-1.24216e-14
-3.95012e-15
-9.88888e-15
3.13824e-15
-2.55409e-15
2.59701e-15
-8.04031e-15
-4.22984e-15
8.93514e-16
-4.05392e-15
-1.20795e-15
-7.25622e-15
-5.9864e-15
1.83129e-15
-8.17909e-15
5.43099e-16
3.84356e-15
2.1668e-15
2.74619e-15
-2.93227e-15
6.99626e-15
5.40031e-15
-1.04228e-14
4.24499e-15
1.18257e-14
2.76455e-15
1.32274e-14
1.59779e-15
-5.34008e-15
-6.8746e-15
1.0288e-15
-1.44389e-15
-6.0603e-17
4.32378e-16
8.48229e-16
3.33977e-15
-1.68093e-14
1.17672e-14
-7.92407e-15
2.69937e-15
-3.70657e-15
-3.81504e-16
3.72285e-15
1.42999e-14
-9.83228e-15
7.27209e-15
-9.24034e-15
-1.88702e-14
1.49547e-15
9.34549e-15
4.2398e-15
-2.52089e-14
-6.9505e-15
8.73967e-15
8.39273e-15
3.10743e-15
-1.87207e-16
-9.26196e-16
5.91075e-15
-6.39057e-15
7.87579e-15
-3.84187e-15
1.03148e-14
-8.77702e-15
-2.8923e-15
-3.32998e-15
-5.79329e-15
5.69805e-15
-1.00295e-14
1.05887e-15
1.9788e-15
1.09745e-14
-7.19842e-15
-5.79276e-15
-5.56778e-15
7.46615e-16
-1.3769e-14
5.43036e-15
-7.92007e-15
3.99454e-15
-8.18376e-15
-1.85202e-15
1.50274e-14
1.80094e-17
-4.3986e-15
-9.95265e-15
-2.61531e-15
9.13118e-16
5.27127e-15
9.4434e-16
-1.17053e-14
-1.00148e-15
-6.86191e-15
-7.12211e-15
6.87907e-15
-1.70978e-15
1.45144e-14
-7.90493e-16
5.07058e-15
1.70436e-14
6.80412e-15
6.46529e-15
-2.71835e-15
-4.80466e-15
7.57204e-15
2.3748e-15
1.04297e-14
2.15262e-14
-5.42797e-15
-8.82574e-15
-9.32764e-15
2.16476e-14
1.0676e-14
3.04441e-15
8.12021e-15
-9.01522e-16
9.4629e-15
7.08981e-15
-1.13688e-14
-5.74199e-16
-9.17496e-15
6.61331e-15
-4.32814e-15
5.2476e-15
8.54567e-15
-8.62094e-16
9.44216e-15
-1.88942e-14
5.42108e-15
2.54838e-15
-8.51013e-15
-2.46152e-15
1.58386e-15
1.58835e-14
1.69142e-15
2.95083e-15
1.08702e-14
-1.19643e-14
3.34632e-15
-6.45277e-15
-5.12954e-15
-1.8197e-15
-8.39915e-15
7.40556e-15
2.68364e-15
9.97504e-15
-9.01187e-15
6.41936e-17
-2.53234e-15
1.02869e-15
-9.17668e-16
2.3282e-16
5.16428e-15
3.28537e-15
-6.40994e-15
-1.09983e-14
1.15669e-15
4.54697e-15
9.45063e-16
-6.19505e-15
5.76819e-15
-8.88592e-17
1.45938e-14
4.90082e-15
-1.03931e-14
1.20785e-14
-1.2193e-15
-2.99972e-15
1.19952e-14
2.35079e-15
1.34663e-14
4.35022e-16
-5.64283e-15
1.34538e-18
-8.87002e-15
-2.32602e-15
-2.27806e-15
-1.27884e-15
4.10983e-15
9.89625e-15
1.5371e-14
5.67107e-15
-7.5967e-15
-5.90269e-16
1.5491e-16
-1.06905e-15
-6.07613e-16
1.06257e-14
7.83703e-15
-4.17767e-15
1.03615e-15
-6.03384e-15
8.29498e-15
-1.68523e-14
1.54344e-15
6.75455e-15
-1.01875e-14
1.16152e-14
-1.05199e-14
7.85704e-15
1.16638e-14
1.09929e-15
-4.0432e-15
-1.50787e-14
-2.13077e-15
-1.49316e-15
1.29682e-14
-3.50123e-15
4.71365e-15
5.91831e-15
6.33117e-15
-2.70055e-15
-4.22634e-15
-6.10873e-15
4.92176e-15
1.16583e-14
6.84279e-15
-9.78876e-15
-1.16121e-15
-8.80092e-15
-1.30253e-15
-5.06786e-15
-3.65581e-15
-4.87232e-16
9.16727e-15
9.29565e-15
-2.14565e-15
-5.54317e-15
-1.07543e-14
2.90592e-15
-7.32646e-15
-3.22559e-15
1.01952e-14
3.83127e-15
1.14155e-14
1.60488e-15
-2.3834e-16
1.37498e-15
1.33594e-14
2.73501e-15
-1.03275e-14
-8.31078e-15
1.48538e-14
4.05051e-15
-1.46298e-14
9.62711e-16
-2.70103e-15
7.23122e-15
-7.49578e-15
4.16502e-15
3.00197e-15
-1.09367e-16
-1.45284e-14
8.80287e-15
2.89519e-15
1.50861e-16
1.77193e-14
-7.69011e-15
-5.63913e-16
-2.64983e-15
-1.8213e-14
-9.66432e-15
-1.22048e-15
8.71679e-15
-1.14234e-14
1.57935e-15
7.33567e-16
3.18645e-15
-9.99131e-15
-1.69155e-14
-5.85842e-15
4.32365e-15
1.40389e-14
4.95415e-15
2.30373e-16
-1.23189e-15
-6.48952e-15
1.29801e-14
5.72297e-15
2.31292e-14
4.49377e-15
3.19365e-15
1.74338e-15
-1.23086e-15
4.84509e-15
-3.30116e-15
-6.38302e-15
-5.74161e-16
9.25829e-15
-2.08427e-15
-9.31022e-15
3.46079e-15
-8.87363e-16
-7.46796e-15
-6.79834e-15
7.28324e-15
7.2634e-15
4.87993e-15
-8.19389e-15
1.96195e-16
7.16628e-15
-2.77118e-15
-9.0364e-16
-5.52556e-15
2.49332e-15
-5.5186e-15
-5.27574e-15
-3.34232e-15
1.33275e-14
-5.75797e-15
-1.72409e-14
7.78412e-16
-6.12818e-16
-7.25239e-15
-2.80898e-15
2.16623e-15
-2.99888e-15
1.73944e-15
-7.89866e-16
5.21323e-15
7.12736e-15
1.13462e-14
-2.92274e-15
1.01662e-16
1.70107e-15
-4.65888e-17
6.87397e-15
1.00971e-14
5.20953e-15
1.49508e-14
9.79314e-16
-8.75149e-15
-9.26246e-15
-6.06036e-15
-1.9826e-15
1.90893e-15
4.22295e-15
-6.89485e-15
-7.29903e-15
-2.27178e-15
5.00176e-15
8.09127e-15
3.84114e-15
1.71309e-14
-9.25946e-15
2.24871e-15
5.17511e-15
1.32955e-14
3.30005e-15
-3.5018e-15
2.13134e-14
2.77608e-15
-2.09677e-15
-1.52118e-16
1.00689e-14
1.08374e-14
6.2561e-15
-1.69232e-15
1.19598e-15
-5.23459e-15
-6.11937e-15
3.05901e-15
5.64208e-15
-6.10714e-15
4.75564e-15
-1.96806e-15
-1.1398e-14
-1.18006e-14
-7.12013e-15
3.86413e-15
7.87118e-15
-6.70537e-16
4.98702e-16
2.97575e-15
-2.14848e-15
-9.20266e-16
1.74752e-15
4.3532e-15
4.6202e-15
-6.25317e-15
-6.18761e-16
-7.31831e-15
7.11787e-15
1.27544e-15
3.02404e-15
-6.27077e-15
-5.4068e-15
-4.58459e-15
9.20236e-17
-1.63322e-14
-1.00699e-14
1.29742e-14
-1.61068e-16
8.90738e-15
-5.19074e-15
-2.86454e-15
1.44079e-14
8.1641e-15
1.03418e-14
2.45778e-16
-4.32615e-15
3.86057e-15
1.40064e-15
-7.51469e-15
5.22749e-15
4.40526e-15
-2.98368e-15
1.08412e-14
2.39319e-15
6.7415e-15
-2.71392e-15
1.8865e-15
7.03971e-15
-5.22586e-15
-9.17056e-15
5.49249e-15
-6.75561e-15
1.06369e-14
5.52747e-15
1.05468e-14
8.19778e-15
3.88284e-15
-2.05784e-15
5.42604e-15
7.2827e-15
-9.11437e-15
7.45801e-16
1.17443e-14
-1.97771e-16
2.07816e-15
-4.29835e-15
-7.31729e-15
1.21984e-14
4.10804e-15
9.93981e-15
1.11013e-15
-8.82614e-15
9.85644e-15
6.78223e-15
3.51095e-15
-6.46082e-15
4.43296e-16
-1.11166e-14
-8.27902e-15
4.41913e-15
8.29486e-15
1.65383e-15
-8.29315e-15
-1.20676e-14
9.36968e-15
2.87486e-15
-5.95431e-15
-3.43596e-15
-7.47679e-15
8.80352e-15
4.15264e-15
-2.18217e-14
-6.31479e-15
-1.10835e-14
-4.27986e-15
5.82434e-15
-1.30062e-14
5.19436e-15
9.74117e-15
1.43989e-14
-5.26647e-16
-7.82825e-15
-1.45534e-14
-7.47901e-15
1.80351e-15
-5.49116e-15
2.74518e-15
-1.21474e-14
2.09986e-15
-1.8344e-15
3.5833e-15
6.81358e-16
-2.2223e-15
2.26198e-15
-2.31927e-15
2.76319e-15
1.40094e-14
-5.26155e-15
8.9512e-15
-9.4715e-15
6.71349e-15
2.02339e-14
-7.56442e-16
3.45589e-15
-1.28342e-15
-6.15826e-15
6.55673e-16
-1.43357e-14
-8.58701e-15
4.13917e-15
5.77335e-15
5.61778e-16
-4.1357e-15
-6.96036e-15
5.32484e-15
-1.68362e-15
-1.36083e-14
-3.76576e-15
-7.00267e-15
1.61281e-14
-7.395e-15
-2.61762e-15
1.04482e-14
5.882e-15
7.01666e-15
-3.30843e-15
1.55243e-15
-3.65363e-17
-2.17532e-16
-1.81655e-14
-4.00995e-15
1.47154e-14
-1.62617e-15
-4.04146e-16
-3.10665e-15
1.48157e-15
2.40439e-14
-2.28604e-16
-1.34582e-14
-2.95195e-15
9.61792e-15
9.94994e-15
2.22367e-14
8.18584e-15
-3.17744e-15
-1.83411e-15
-6.49392e-15
1.22541e-14
-6.31007e-15
6.63119e-15
-2.17476e-15
5.17824e-15
-4.0812e-15
-1.31511e-14
4.53721e-15
-1.6509e-14
-3.12134e-14
-1.56276e-14
-3.21845e-14
1.78719e-15
-4.93531e-15
-1.46706e-14
1.03405e-15
-6.27416e-15
7.2948e-15
-4.09013e-15
-6.58012e-15
1.296e-14
1.51685e-14
-7.26864e-16
1.43475e-15
8.62488e-15
1.20298e-14
-1.52626e-15
-2.20767e-15
-9.7598e-15
1.88594e-14
2.04744e-14
8.94325e-15
-2.16122e-14
4.01494e-15
-2.73542e-15
-1.94411e-14
1.64865e-14
6.17336e-15
8.23439e-16
-1.3645e-14
2.19425e-15
8.25731e-15
1.07911e-14
1.30446e-14
-1.17011e-14
1.87668e-14
-4.89677e-15
-7.26201e-16
-2.28439e-14
-2.36201e-14
-1.39131e-14
7.63444e-15
-8.96532e-15
-9.73888e-15
4.88982e-15
-2.16697e-14
-1.20584e-14
2.33735e-14
-3.69386e-15
1.09813e-14
1.33874e-14
7.36951e-15
-3.29872e-15
5.04429e-15
-1.31505e-14
-2.77949e-15
1.01671e-14
-1.35375e-14
2.02123e-14
3.44804e-14
1.2441e-14
2.29653e-14
6.51227e-15
1.9968e-14
6.57251e-15
-1.73823e-14
-5.99322e-15
-1.03785e-14
1.64035e-14
3.24821e-15
-7.76345e-15
-1.49054e-14
-1.61245e-14
-1.83968e-14
-5.34054e-15
2.29381e-15
-7.4502e-15
-9.08246e-16
1.21338e-14
-1.90985e-14
-7.5579e-15
-1.51477e-14
2.03064e-14
5.51074e-15
7.18416e-15
2.11237e-14
-2.19101e-14
-6.44875e-15
-1.36651e-14
1.24212e-14
-5.73678e-15
-5.63805e-15
-1.28961e-14
-1.58151e-14
1.35963e-14
-3.76399e-15
7.64759e-15
1.74877e-14
1.48017e-14
-1.55461e-14
1.19412e-14
3.46212e-15
1.66464e-14
1.79129e-14
-2.5127e-15
-7.44247e-16
1.8825e-14
-3.52469e-14
1.76795e-14
-3.89462e-15
-1.19792e-14
-9.59869e-15
-4.05387e-15
6.75499e-16
5.17041e-15
-7.54337e-15
3.64906e-15
1.08738e-14
-9.20215e-15
-1.63293e-14
-5.56553e-15
-8.06877e-15
8.95615e-15
-3.50882e-14
1.32003e-15
1.23207e-14
6.09522e-15
-9.70102e-15
-1.71379e-14
4.52832e-15
2.89131e-15
1.32014e-14
1.61452e-14
2.1374e-14
5.89344e-16
-8.82976e-15
8.98953e-15
1.67607e-14
-2.95758e-15
1.6805e-15
-1.12972e-14
1.01824e-14
-3.32381e-14
-6.91349e-15
-4.15197e-16
-3.15478e-14
2.00997e-14
-6.52054e-15
1.76468e-15
1.02337e-15
-1.44435e-14
9.34403e-16
6.13967e-15
-9.84049e-15
-1.52683e-14
-7.07942e-15
-1.43633e-14
-9.06783e-15
-1.24031e-14
2.12918e-14
-5.81007e-15
8.96939e-15
-3.25927e-15
-7.28684e-15
3.43157e-15
2.79143e-15
-1.31826e-14
3.19671e-14
4.68491e-16
-7.10719e-15
-4.0977e-15
1.15683e-14
1.29054e-14
-5.59001e-15
5.48209e-15
1.05124e-14
4.2215e-15
5.15122e-15
-9.2608e-15
-5.73098e-15
-6.34855e-15
5.45606e-15
-2.15484e-14
2.79774e-14
-8.99332e-15
-9.1328e-15
-4.19666e-15
1.16699e-14
4.28072e-15
-2.1471e-14
4.54382e-15
-5.61603e-15
-5.8701e-15
6.15886e-15
1.19034e-14
8.23961e-15
-1.60665e-14
-9.89047e-15
-5.02637e-15
1.9252e-14
-7.97544e-15
-1.57856e-15
9.37732e-15
-1.28847e-14
-1.50364e-14
2.54701e-14
-1.65005e-15
-3.59413e-17
-6.07922e-16
6.10191e-15
2.07691e-14
-1.05988e-14
1.63452e-15
9.74114e-15
1.48374e-14
1.2759e-14
2.00644e-14
1.83872e-14
1.29237e-14
-4.43975e-15
2.48464e-15
-1.52781e-14
3.28381e-15
-9.0146e-15
2.25415e-14
1.05731e-14
2.19197e-14
-1.2758e-14
-7.50368e-15
1.21477e-14
-1.23974e-14
-1.92827e-14
-1.30255e-14
1.0427e-14
-5.09921e-15
2.47669e-15
-8.66286e-15
-1.46644e-14
1.26793e-14
8.2259e-15
5.03867e-15
1.07333e-15
5.40261e-15
-1.29936e-14
-2.53947e-16
-6.2259e-16
4.15514e-16
-4.12478e-16
3.37858e-15
1.22503e-14
-8.49529e-15
1.81404e-15
1.45787e-14
1.3563e-14
-6.0191e-15
7.1155e-15
3.42064e-15
-6.16545e-15
-1.74112e-15
-5.62546e-15
1.50762e-14
-2.68253e-15
1.28208e-15
5.83641e-15
6.57472e-15
-8.25909e-15
-2.15136e-14
-4.15903e-15
1.92755e-14
1.23694e-15
-1.98737e-14
1.79623e-14
2.50994e-15
2.70511e-15
-1.11163e-15
-1.15523e-14
-1.27897e-14
-8.61287e-15
-2.90424e-15
-1.65608e-14
-9.92128e-15
6.29448e-15
9.41605e-15
8.33358e-16
-2.67176e-14
-2.61298e-15
-3.2044e-15
1.66837e-14
-3.62205e-15
-6.54634e-15
1.69736e-14
6.85288e-15
4.58956e-15
-2.278e-15
3.76054e-15
-1.10789e-14
1.16705e-15
5.83011e-15
-1.16322e-14
-2.16053e-15
2.52757e-15
-9.40548e-15
1.10673e-14
-1.20255e-14
1.6333e-14
5.33606e-15
-9.65107e-15
-5.21767e-15
9.01106e-15
4.45428e-15
-7.67112e-15
5.3864e-15
-1.08035e-14
-2.14888e-14
-4.33006e-15
7.74012e-15
4.81061e-15
1.45136e-14
-3.23205e-15
-1.32522e-14
-6.24708e-15
3.2508e-15
7.27764e-15
3.89643e-15
-1.22162e-15
-2.61911e-14
1.10511e-14
1.59028e-14
-1.32054e-14
-1.43673e-14
2.01869e-14
-7.65525e-15
-1.5683e-15
-3.95341e-15
-4.78751e-15
9.11708e-15
4.84804e-15
6.38042e-15
-5.98607e-15
7.012e-15
1.18256e-14
-5.58654e-15
-1.00351e-14
2.91488e-16
1.84486e-14
1.61223e-14
-5.88692e-15
-1.40797e-14
-1.2393e-15
8.93637e-15
-3.39304e-15
5.531e-15
-1.16739e-14
-4.85882e-15
9.18319e-17
-3.92243e-15
4.85679e-15
1.23873e-14
1.23402e-14
4.69142e-15
-3.65872e-15
3.54805e-17
4.38777e-16
1.61117e-14
-1.50756e-15
1.98284e-14
-2.11493e-15
4.30629e-15
-8.59236e-15
-7.7704e-15
2.43097e-15
-3.87768e-15
4.4123e-15
1.18377e-14
2.42593e-15
-1.78191e-14
5.99775e-15
4.06977e-15
1.44769e-14
1.59487e-14
9.54179e-15
2.39229e-16
1.28391e-15
-1.33432e-14
8.24677e-15
3.81418e-14
-2.71471e-15
-7.77292e-16
-2.32345e-16
1.44392e-14
-3.11865e-15
1.33419e-15
3.14925e-15
1.68366e-15
-8.89848e-15
-1.30305e-14
6.28349e-16
3.00441e-15
1.34262e-14
-4.95933e-15
-4.38473e-15
-3.47847e-15
1.62387e-14
-6.55156e-16
-6.29949e-16
-2.61946e-15
1.7258e-14
1.58254e-14
7.11527e-15
-1.67864e-14
-4.13737e-15
-1.42448e-14
6.76659e-15
1.14223e-15
-1.25829e-14
4.9634e-15
3.12364e-15
1.17123e-14
-1.20388e-14
3.15988e-15
-5.83333e-15
6.81418e-15
-1.37671e-14
-6.71276e-15
-7.75874e-15
-2.00506e-14
2.58487e-15
4.40007e-15
-1.03862e-14
1.63481e-15
-2.54931e-15
-1.15731e-14
5.2113e-15
-9.71605e-15
-3.13175e-15
1.46838e-14
-1.56168e-14
1.06604e-15
-1.61015e-14
-1.05264e-14
-1.28749e-16
-9.58974e-15
4.82061e-15
3.56694e-15
-1.291e-14
-3.49216e-14
-1.31394e-15
-1.12793e-14
-5.76571e-15
-4.37836e-15
-1.16018e-15
-3.0169e-15
4.59349e-15
-2.61184e-16
1.45787e-14
1.24555e-14
3.43443e-15
-1.64221e-14
-1.52712e-14
2.65134e-14
-4.9689e-16
1.40474e-14
-2.96079e-15
5.97531e-15
-7.89202e-15
1.65292e-15
-1.50851e-14
-9.3224e-15
-1.25829e-14
1.40296e-15
1.17844e-14
1.46911e-14
-9.37325e-15
4.86828e-15
1.76653e-14
-4.58265e-15
-9.73288e-16
-2.0801e-14
-2.24918e-16
-1.05394e-14
-8.29903e-16
-3.81466e-15
1.04446e-14
8.95036e-15
4.31095e-15
-4.07552e-15
-4.54205e-15
3.98081e-15
-1.06935e-14
-8.23544e-15
-8.9387e-16
2.0055e-15
6.3209e-15
8.41119e-15
5.38664e-15
-1.16729e-14
2.164e-14
-4.3889e-15
2.80077e-15
7.69643e-15
7.75617e-15
-1.02772e-15
-1.10558e-14
9.67179e-15
1.91833e-15
1.60247e-14
4.35681e-15
4.6232e-15
-1.8029e-14
-5.72882e-15
-2.4807e-14
-1.86255e-15
-1.34389e-14
-2.25438e-15
-1.6934e-14
-3.84133e-16
-3.56215e-15
1.80053e-14
1.49752e-14
-3.79763e-14
8.3386e-16
-1.9211e-15
-1.72376e-14
-5.2329e-15
1.13533e-14
-3.25673e-15
-2.13902e-15
4.49131e-15
6.59986e-15
1.65558e-16
-8.97069e-15
-4.13775e-15
1.30285e-14
1.26409e-14
-4.90135e-15
-8.24427e-16
3.65485e-16
-8.9914e-15
5.50655e-15
1.02679e-14
2.36248e-16
-5.31367e-15
9.26678e-15
-1.52968e-14
-3.59261e-15
1.20684e-14
-4.0251e-15
-1.43822e-14
8.54145e-15
1.07803e-14
2.45579e-14
-1.70892e-15
-8.41363e-15
-6.88739e-15
8.46545e-16
-2.49768e-15
-4.347e-15
-6.4304e-15
2.92735e-15
2.58561e-15
-7.56166e-15
-3.15969e-15
6.06188e-15
-1.69241e-14
-4.52719e-15
-1.32415e-14
4.52069e-15
-5.60652e-15
2.11875e-15
1.05072e-14
3.05458e-14
-1.11467e-14
9.63942e-15
4.24812e-15
1.52263e-14
6.97814e-15
6.16738e-15
-1.11183e-14
-5.33427e-17
1.57402e-14
2.59168e-15
-7.25418e-15
-5.30478e-15
3.25933e-15
-2.61364e-14
1.21214e-16
7.45237e-15
-1.01247e-14
7.32053e-16
9.32414e-17
4.81754e-15
5.08231e-15
6.6145e-15
-4.7835e-15
7.11844e-15
-1.37737e-15
5.43706e-15
1.69064e-14
-2.35315e-15
-2.19377e-15
-1.30972e-16
6.9107e-16
-1.94014e-14
1.11519e-14
4.38343e-15
-1.21233e-14
8.58211e-15
7.98493e-15
-2.15535e-14
-2.18935e-14
-1.13473e-14
2.56624e-14
-5.69792e-15
-1.90061e-15
7.93397e-15
7.66271e-15
-5.95487e-15
7.05512e-15
-1.03285e-14
9.77517e-16
1.76844e-14
1.0659e-14
5.50926e-15
2.55598e-14
4.51549e-15
3.52149e-15
6.62122e-15
1.30299e-14
9.90961e-15
-1.34608e-14
-3.15171e-14
1.55965e-14
1.77033e-14
2.91173e-15
-1.50743e-14
-1.20641e-14
-8.49234e-15
1.74119e-14
-4.34808e-15
3.84588e-15
9.54965e-16
-3.26171e-15
2.30272e-14
1.0018e-14
2.63873e-14
-2.50277e-15
1.75641e-16
5.53724e-15
-2.2404e-15
-5.71288e-15
1.25637e-15
-5.03764e-15
-1.93244e-14
2.10405e-14
-7.04731e-15
4.94613e-15
-8.03914e-15
-5.68816e-15
4.01502e-15
5.10703e-15
2.29036e-14
-3.40483e-15
9.21312e-15
-2.73219e-16
9.64636e-15
1.18399e-14
-7.17395e-15
-1.6185e-15
1.13607e-14
1.63793e-14
1.80671e-15
-3.40769e-14
4.63692e-15
1.24865e-14
-1.17601e-14
6.49567e-15
1.71477e-15
-6.14266e-15
1.98361e-14
2.73176e-15
-7.30709e-15
6.20988e-15
4.38581e-15
-1.44741e-14
-1.37394e-14
-6.44016e-16
-1.19813e-14
-2.9924e-15
-7.38732e-15
1.55913e-14
-3.1212e-15
5.12004e-15
-1.78763e-14
-1.51554e-14
-1.01941e-14
1.30425e-14
6.74807e-16
-1.16062e-14
-6.75935e-15
-2.7269e-14
7.35609e-15
1.07562e-14
-2.66991e-14
-5.66647e-15
-8.10116e-15
-5.85729e-15
5.26489e-16
1.20138e-14
1.57947e-14
8.88178e-15
1.22775e-14
-6.37511e-16
1.70688e-14
-1.22315e-14
5.92235e-15
3.18755e-15
1.31934e-14
-2.32071e-14
-8.28504e-15
-8.93556e-15
-1.31015e-14
-7.12971e-16
-1.36375e-14
2.09034e-15
-7.1141e-15
-5.9449e-15
-2.64719e-15
-9.36057e-15
2.34274e-14
-4.38972e-15
5.153e-15
1.36315e-14
4.45477e-15
3.93869e-15
1.16981e-14
-7.33701e-15
-1.80793e-14
1.79717e-15
-2.35367e-14
5.6552e-15
1.6479e-14
-1.71391e-14
7.65707e-15
4.60049e-15
1.92416e-14
-8.31713e-15
1.37407e-14
-2.64407e-14
4.38018e-15
-1.69153e-14
-9.73093e-15
-1.19176e-14
-5.31866e-15
1.32099e-14
1.72752e-14
-3.20143e-15
-1.8199e-14
-9.10903e-15
-1.72865e-15
1.91323e-14
-2.81294e-14
-2.25523e-14
2.88328e-14
-7.51569e-15
7.75508e-15
-4.28477e-16
-5.54938e-15
1.2065e-15
-9.99027e-15
-2.5667e-14
-3.09995e-15
-9.80552e-15
-1.38665e-14
4.19369e-15
-1.71902e-14
5.77143e-15
-1.20164e-14
3.68299e-14
1.12393e-14
1.73923e-14
-1.27207e-14
1.70081e-14
1.57157e-14
-4.12621e-14
3.82246e-15
-5.27356e-15
7.52089e-15
3.64951e-14
-3.70806e-14
1.28716e-15
6.49394e-15
-2.84495e-16
2.89959e-15
-1.77705e-14
-9.51843e-15
5.47739e-15
1.96527e-14
6.34562e-15
7.19303e-15
-1.2647e-14
-1.07943e-14
1.2431e-14
-1.03589e-14
-9.52103e-15
-1.77627e-14
1.42499e-14
-9.69537e-15
1.34432e-14
-6.10102e-15
2.53859e-14
1.79067e-14
-8.26249e-15
1.39819e-15
-1.18829e-15
-1.03875e-14
-1.00892e-14
7.14359e-15
-3.35669e-15
1.15758e-14
-3.06352e-15
2.62949e-14
8.47065e-15
-2.48013e-14
3.14332e-15
-1.32047e-14
-1.65284e-14
1.72432e-15
6.59715e-15
7.16614e-15
1.62786e-14
-1.6518e-14
-5.85816e-15
2.19096e-14
-6.51215e-15
6.6093e-15
-9.28251e-15
1.09097e-14
-1.77167e-14
-5.98133e-15
-2.06623e-14
2.37935e-14
-3.54994e-14
-3.78916e-14
2.61458e-14
2.80852e-15
3.92048e-15
6.38378e-16
-2.47771e-14
1.53592e-14
-9.59822e-15
-8.42729e-15
-6.55725e-16
3.2075e-15
1.63255e-14
2.11636e-14
1.98452e-15
-1.05731e-14
2.93689e-15
1.99493e-16
7.10022e-15
3.2075e-15
-8.1532e-16
-7.36564e-15
-3.55098e-15
5.11743e-16
-9.40914e-15
-8.98587e-15
1.9134e-15
4.96304e-15
-1.32359e-14
-1.01464e-14
2.86923e-14
-9.87058e-15
-5.46438e-15
5.22499e-15
-2.52229e-15
7.24767e-15
1.46133e-14
-3.10862e-15
1.41311e-14
-6.33174e-15
7.04298e-15
9.13852e-15
-8.53831e-15
7.67442e-15
1.32741e-14
3.36536e-15
-8.07687e-15
-2.56427e-14
1.32186e-14
1.57166e-15
1.97412e-15
-2.67633e-14
1.12028e-14
1.72744e-14
1.07796e-14
-1.58276e-14
-4.52763e-15
-1.48839e-14
-1.23165e-15
-1.30035e-14
-2.50494e-15
5.19307e-14
-1.38813e-14
9.95384e-15
4.60049e-15
-9.28077e-15
-3.747e-15
-1.23478e-14
-1.09981e-14
1.2771e-14
-6.55379e-15
-8.43076e-16
-1.09183e-14
-1.98244e-14
6.54685e-15
-6.87297e-15
1.11924e-14
-4.03497e-15
-1.55015e-14
-3.76435e-15
6.20684e-15
1.28612e-14
4.88845e-15
8.56953e-15
-1.85268e-15
1.66499e-14
-7.02216e-15
6.93889e-15
7.61197e-15
7.13318e-15
-3.71127e-14
2.02963e-14
-2.32453e-15
-2.19061e-14
5.74193e-15
-4.02456e-16
-3.73312e-15
7.00828e-15
-1.20563e-14
-6.70644e-15
2.36963e-15
-3.7817e-16
6.31092e-15
-1.52309e-15
3.51802e-15
2.78701e-14
-5.23193e-15
8.80546e-15
-1.29098e-14
1.38882e-14
1.00163e-14
1.87003e-14
-2.52923e-15
-2.99309e-14
-1.65562e-14
1.22506e-14
7.66401e-15
1.33574e-15
1.16955e-14
2.67494e-15
2.93168e-15
-4.26291e-14
2.41474e-15
-3.05658e-14
1.8284e-15
-2.25861e-15
2.13198e-14
1.6695e-14
3.23422e-14
-9.1524e-15
1.08247e-14
-9.70751e-15
1.06304e-14
1.87003e-15
-2.42861e-15
1.45682e-14
-1.63793e-14
1.75207e-14
2.36963e-14
-1.35655e-15
-5.67602e-15
-7.97626e-15
-2.13024e-15
5.09315e-15
9.25995e-15
-4.04538e-15
-1.62266e-14
-9.56527e-15
-3.99333e-15
-1.14873e-14
3.89966e-15
-7.86177e-15
-2.77556e-16
5.05845e-15
-4.32987e-15
1.17406e-14
-4.78784e-15
-2.31343e-14
8.57647e-15
1.8853e-14
-3.97599e-15
7.63972e-15
-1.78746e-14
-1.16157e-14
1.79717e-15
-2.55837e-14
-1.46411e-15
-2.18575e-15
-6.5295e-15
1.14769e-14
-2.24265e-14
1.11508e-14
-6.17562e-15
1.44815e-14
-3.22659e-15
8.52096e-15
-1.59733e-14
2.00395e-14
1.08941e-14
1.22263e-14
1.47174e-14
3.15026e-15
6.25888e-15
5.77316e-15
-7.71605e-15
5.96745e-16
-1.92901e-14
-1.79023e-15
-2.49453e-14
3.47639e-15
-4.98906e-15
3.26128e-16
-1.71321e-14
8.06299e-15
-1.48007e-14
1.22818e-14
1.20043e-14
-8.31279e-15
-7.25808e-15
1.92138e-14
1.12896e-14
-1.18794e-14
2.47857e-14
-4.93355e-15
-2.19963e-15
-9.95731e-15
8.95811e-15
-1.46202e-14
1.61676e-15
1.15463e-14
-4.996e-16
-3.84415e-15
3.89272e-15
2.65066e-15
1.72154e-14
-2.19269e-15
-4.68375e-15
6.82093e-15
-7.86871e-15
6.14092e-15
-2.16493e-15
-2.6576e-15
-7.09155e-15