/*--------------------------------*- C++ -*----------------------------------*\
| =========                 |                                                 |
| \\      /  F ield         | foam-extend: Open Source CFD                    |
|  \\    /   O peration     | Version:     4.0                                |
|   \\  /    A nd           | Web:         http://www.foam-extend.org         |
|    \\/     M anipulation  |                                                 |
\*---------------------------------------------------------------------------*/
FoamFile
{
    version     2.0;
    format      ascii;
    class       volScalarField;
    location    "1360";
    object      cPlus;
}
// * * * * * * * * * * * * * * * * * * * * * * * * * * * * * * * * * * * * * //

dimensions      [0 0 0 0 0 0 0];

internalField   nonuniform List<scalar> 
6960
(
0.30406
0.30404
0.304016
0.303994
0.303974
0.303956
0.303941
0.303929
0.303918
0.303909
0.303902
0.303896
0.303891
0.303887
0.303883
0.303881
0.303878
0.303877
0.303875
0.303874
0.303873
0.303872
0.303871
0.303871
0.30387
0.30387
0.30387
0.30387
0.30387
0.303869
0.303869
0.30387
0.30387
0.30387
0.30387
0.30387
0.303871
0.303871
0.303872
0.303873
0.303874
0.303875
0.303877
0.303878
0.303881
0.303883
0.303887
0.303891
0.303896
0.303902
0.303909
0.303918
0.303929
0.303941
0.303956
0.303974
0.303994
0.304016
0.30404
0.30406
0.0925312
0.0925184
0.0925034
0.0924891
0.0924763
0.0924651
0.0924556
0.0924475
0.0924408
0.0924351
0.0924304
0.0924265
0.0924233
0.0924206
0.0924184
0.0924167
0.0924152
0.092414
0.0924131
0.0924123
0.0924116
0.0924111
0.0924107
0.0924103
0.0924101
0.0924099
0.0924097
0.0924096
0.0924095
0.0924095
0.0924095
0.0924095
0.0924096
0.0924097
0.0924099
0.0924101
0.0924103
0.0924107
0.0924111
0.0924116
0.0924123
0.0924131
0.092414
0.0924152
0.0924167
0.0924184
0.0924206
0.0924233
0.0924265
0.0924304
0.0924351
0.0924408
0.0924475
0.0924556
0.0924651
0.0924763
0.0924891
0.0925034
0.0925184
0.0925312
0.0343357
0.0343299
0.0343228
0.034316
0.0343098
0.0343045
0.0342999
0.0342961
0.0342928
0.0342901
0.0342878
0.0342859
0.0342844
0.0342831
0.0342821
0.0342812
0.0342805
0.0342799
0.0342795
0.0342791
0.0342788
0.0342785
0.0342783
0.0342781
0.034278
0.0342779
0.0342778
0.0342778
0.0342778
0.0342777
0.0342777
0.0342778
0.0342778
0.0342778
0.0342779
0.034278
0.0342781
0.0342783
0.0342785
0.0342788
0.0342791
0.0342795
0.0342799
0.0342805
0.0342812
0.0342821
0.0342831
0.0342844
0.0342859
0.0342878
0.0342901
0.0342928
0.0342961
0.0342999
0.0343045
0.0343098
0.034316
0.0343228
0.0343299
0.0343357
0.015939
0.0159375
0.0159352
0.0159329
0.0159309
0.015929
0.0159275
0.0159262
0.0159251
0.0159241
0.0159234
0.0159227
0.0159222
0.0159217
0.0159214
0.0159211
0.0159208
0.0159206
0.0159205
0.0159203
0.0159202
0.0159201
0.0159201
0.01592
0.01592
0.0159199
0.0159199
0.0159199
0.0159199
0.0159199
0.0159199
0.0159199
0.0159199
0.0159199
0.0159199
0.01592
0.01592
0.0159201
0.0159201
0.0159202
0.0159203
0.0159205
0.0159206
0.0159208
0.0159211
0.0159214
0.0159217
0.0159222
0.0159227
0.0159234
0.0159241
0.0159251
0.0159262
0.0159275
0.015929
0.0159309
0.0159329
0.0159352
0.0159375
0.015939
0.00998604
0.00998669
0.00998687
0.00998692
0.00998693
0.00998692
0.00998691
0.0099869
0.00998688
0.00998686
0.00998684
0.00998683
0.00998681
0.0099868
0.00998678
0.00998677
0.00998676
0.00998675
0.00998675
0.00998674
0.00998673
0.00998673
0.00998673
0.00998672
0.00998672
0.00998672
0.00998672
0.00998672
0.00998671
0.00998671
0.00998671
0.00998671
0.00998672
0.00998672
0.00998672
0.00998672
0.00998672
0.00998673
0.00998673
0.00998673
0.00998674
0.00998675
0.00998675
0.00998676
0.00998677
0.00998678
0.0099868
0.00998681
0.00998683
0.00998684
0.00998686
0.00998688
0.0099869
0.00998691
0.00998692
0.00998693
0.00998692
0.00998687
0.00998669
0.00998604
0.00810817
0.00810981
0.0081111
0.00811221
0.00811316
0.00811397
0.00811466
0.00811523
0.00811571
0.00811611
0.00811643
0.0081167
0.00811692
0.0081171
0.00811725
0.00811736
0.00811746
0.00811754
0.0081176
0.00811765
0.00811769
0.00811773
0.00811775
0.00811778
0.00811779
0.00811781
0.00811782
0.00811782
0.00811783
0.00811783
0.00811783
0.00811783
0.00811782
0.00811782
0.00811781
0.00811779
0.00811778
0.00811775
0.00811773
0.00811769
0.00811765
0.0081176
0.00811754
0.00811746
0.00811736
0.00811725
0.0081171
0.00811692
0.0081167
0.00811643
0.00811611
0.00811571
0.00811523
0.00811466
0.00811397
0.00811316
0.00811221
0.0081111
0.00810981
0.00810817
0.00756233
0.00756439
0.00756616
0.00756771
0.00756906
0.00757021
0.00757119
0.00757202
0.00757271
0.00757328
0.00757375
0.00757414
0.00757446
0.00757472
0.00757493
0.00757511
0.00757525
0.00757536
0.00757546
0.00757553
0.00757559
0.00757564
0.00757568
0.00757571
0.00757574
0.00757576
0.00757577
0.00757578
0.00757579
0.00757579
0.00757579
0.00757579
0.00757578
0.00757577
0.00757576
0.00757574
0.00757571
0.00757568
0.00757564
0.00757559
0.00757553
0.00757546
0.00757536
0.00757525
0.00757511
0.00757493
0.00757472
0.00757446
0.00757414
0.00757375
0.00757328
0.00757271
0.00757202
0.00757119
0.00757021
0.00756906
0.00756771
0.00756616
0.00756439
0.00756233
0.00744505
0.00744729
0.00744926
0.007451
0.00745251
0.00745381
0.00745492
0.00745585
0.00745663
0.00745727
0.00745781
0.00745825
0.00745861
0.0074589
0.00745914
0.00745934
0.0074595
0.00745963
0.00745974
0.00745982
0.00745989
0.00745995
0.00745999
0.00746003
0.00746006
0.00746008
0.0074601
0.00746011
0.00746012
0.00746012
0.00746012
0.00746012
0.00746011
0.0074601
0.00746008
0.00746006
0.00746003
0.00745999
0.00745995
0.00745989
0.00745982
0.00745974
0.00745963
0.0074595
0.00745934
0.00745914
0.0074589
0.00745861
0.00745825
0.00745781
0.00745727
0.00745663
0.00745585
0.00745492
0.00745381
0.00745251
0.007451
0.00744926
0.00744729
0.00744505
0.00746436
0.0074667
0.00746876
0.00747058
0.00747217
0.00747354
0.0074747
0.00747568
0.0074765
0.00747718
0.00747774
0.00747821
0.00747859
0.0074789
0.00747915
0.00747936
0.00747953
0.00747966
0.00747978
0.00747987
0.00747994
0.00748
0.00748005
0.00748009
0.00748012
0.00748014
0.00748016
0.00748017
0.00748018
0.00748018
0.00748018
0.00748018
0.00748017
0.00748016
0.00748014
0.00748012
0.00748009
0.00748005
0.00748
0.00747994
0.00747987
0.00747978
0.00747966
0.00747953
0.00747936
0.00747915
0.0074789
0.00747859
0.00747821
0.00747774
0.00747718
0.0074765
0.00747568
0.0074747
0.00747354
0.00747217
0.00747058
0.00746876
0.0074667
0.00746436
0.00752859
0.00753099
0.0075331
0.00753498
0.00753662
0.00753802
0.00753922
0.00754023
0.00754107
0.00754177
0.00754235
0.00754283
0.00754322
0.00754354
0.0075438
0.00754402
0.00754419
0.00754433
0.00754445
0.00754454
0.00754462
0.00754468
0.00754473
0.00754477
0.0075448
0.00754482
0.00754484
0.00754485
0.00754486
0.00754487
0.00754487
0.00754486
0.00754485
0.00754484
0.00754482
0.0075448
0.00754477
0.00754473
0.00754468
0.00754462
0.00754454
0.00754445
0.00754433
0.00754419
0.00754402
0.0075438
0.00754354
0.00754322
0.00754283
0.00754235
0.00754177
0.00754107
0.00754023
0.00753922
0.00753802
0.00753662
0.00753498
0.0075331
0.00753099
0.00752859
0.00761004
0.0076125
0.00761466
0.00761658
0.00761825
0.00761969
0.00762092
0.00762195
0.00762281
0.00762352
0.00762412
0.00762461
0.00762501
0.00762533
0.0076256
0.00762582
0.007626
0.00762614
0.00762626
0.00762636
0.00762644
0.0076265
0.00762655
0.00762659
0.00762662
0.00762665
0.00762667
0.00762668
0.00762669
0.00762669
0.00762669
0.00762669
0.00762668
0.00762667
0.00762665
0.00762662
0.00762659
0.00762655
0.0076265
0.00762644
0.00762636
0.00762626
0.00762614
0.007626
0.00762582
0.0076256
0.00762533
0.00762501
0.00762461
0.00762412
0.00762352
0.00762281
0.00762195
0.00762092
0.00761969
0.00761825
0.00761658
0.00761466
0.0076125
0.00761004
0.00770091
0.00770342
0.00770563
0.00770759
0.0077093
0.00771077
0.00771201
0.00771307
0.00771395
0.00771468
0.00771529
0.00771578
0.00771619
0.00771653
0.0077168
0.00771703
0.00771721
0.00771736
0.00771748
0.00771758
0.00771766
0.00771772
0.00771777
0.00771781
0.00771785
0.00771787
0.00771789
0.00771791
0.00771791
0.00771792
0.00771792
0.00771791
0.00771791
0.00771789
0.00771787
0.00771785
0.00771781
0.00771777
0.00771772
0.00771766
0.00771758
0.00771748
0.00771736
0.00771721
0.00771703
0.0077168
0.00771653
0.00771619
0.00771578
0.00771529
0.00771468
0.00771395
0.00771307
0.00771201
0.00771077
0.0077093
0.00770759
0.00770563
0.00770342
0.00770091
0.0077994
0.00780196
0.00780422
0.00780622
0.00780796
0.00780946
0.00781074
0.00781181
0.00781271
0.00781346
0.00781408
0.00781459
0.00781501
0.00781535
0.00781563
0.00781586
0.00781605
0.0078162
0.00781632
0.00781643
0.00781651
0.00781657
0.00781663
0.00781667
0.0078167
0.00781673
0.00781675
0.00781676
0.00781677
0.00781677
0.00781677
0.00781677
0.00781676
0.00781675
0.00781673
0.0078167
0.00781667
0.00781663
0.00781657
0.00781651
0.00781643
0.00781632
0.0078162
0.00781605
0.00781586
0.00781563
0.00781535
0.00781501
0.00781459
0.00781408
0.00781346
0.00781271
0.00781181
0.00781074
0.00780946
0.00780796
0.00780622
0.00780422
0.00780196
0.0077994
0.00790551
0.00790814
0.00791045
0.00791249
0.00791428
0.00791581
0.00791712
0.00791822
0.00791914
0.0079199
0.00792054
0.00792106
0.00792149
0.00792184
0.00792213
0.00792236
0.00792255
0.00792271
0.00792283
0.00792294
0.00792302
0.00792309
0.00792314
0.00792319
0.00792322
0.00792325
0.00792327
0.00792328
0.00792329
0.0079233
0.0079233
0.00792329
0.00792328
0.00792327
0.00792325
0.00792322
0.00792319
0.00792314
0.00792309
0.00792302
0.00792294
0.00792283
0.00792271
0.00792255
0.00792236
0.00792213
0.00792184
0.00792149
0.00792106
0.00792054
0.0079199
0.00791914
0.00791822
0.00791712
0.00791581
0.00791428
0.00791249
0.00791045
0.00790814
0.00790551
0.00801988
0.00802257
0.00802493
0.00802703
0.00802886
0.00803043
0.00803177
0.00803289
0.00803384
0.00803462
0.00803527
0.00803581
0.00803625
0.00803661
0.0080369
0.00803714
0.00803734
0.0080375
0.00803763
0.00803773
0.00803782
0.00803789
0.00803794
0.00803799
0.00803802
0.00803805
0.00803807
0.00803809
0.0080381
0.0080381
0.0080381
0.0080381
0.00803809
0.00803807
0.00803805
0.00803802
0.00803799
0.00803794
0.00803789
0.00803782
0.00803773
0.00803763
0.0080375
0.00803734
0.00803714
0.0080369
0.00803661
0.00803625
0.00803581
0.00803527
0.00803462
0.00803384
0.00803289
0.00803177
0.00803043
0.00802886
0.00802703
0.00802493
0.00802257
0.00801988
0.00814336
0.00814613
0.00814855
0.0081507
0.00815258
0.00815419
0.00815556
0.00815672
0.00815769
0.00815849
0.00815916
0.00815971
0.00816016
0.00816053
0.00816083
0.00816108
0.00816128
0.00816145
0.00816158
0.00816169
0.00816178
0.00816185
0.00816191
0.00816195
0.00816199
0.00816202
0.00816204
0.00816205
0.00816206
0.00816207
0.00816207
0.00816206
0.00816205
0.00816204
0.00816202
0.00816199
0.00816195
0.00816191
0.00816185
0.00816178
0.00816169
0.00816158
0.00816145
0.00816128
0.00816108
0.00816083
0.00816053
0.00816016
0.00815971
0.00815916
0.00815849
0.00815769
0.00815672
0.00815556
0.00815419
0.00815258
0.0081507
0.00814855
0.00814613
0.00814336
0.00827702
0.00827986
0.00828236
0.00828457
0.0082865
0.00828815
0.00828956
0.00829075
0.00829175
0.00829258
0.00829326
0.00829383
0.00829429
0.00829468
0.00829499
0.00829524
0.00829545
0.00829562
0.00829575
0.00829587
0.00829596
0.00829603
0.00829609
0.00829614
0.00829617
0.0082962
0.00829623
0.00829624
0.00829625
0.00829626
0.00829626
0.00829625
0.00829624
0.00829623
0.0082962
0.00829617
0.00829614
0.00829609
0.00829603
0.00829596
0.00829587
0.00829575
0.00829562
0.00829545
0.00829524
0.00829499
0.00829468
0.00829429
0.00829383
0.00829326
0.00829258
0.00829175
0.00829075
0.00828956
0.00828815
0.0082865
0.00828457
0.00828236
0.00827986
0.00827702
0.0084221
0.00842503
0.0084276
0.00842988
0.00843186
0.00843357
0.00843502
0.00843625
0.00843727
0.00843813
0.00843883
0.00843942
0.00843989
0.00844029
0.00844061
0.00844087
0.00844108
0.00844126
0.0084414
0.00844152
0.00844161
0.00844168
0.00844175
0.00844179
0.00844183
0.00844186
0.00844189
0.0084419
0.00844191
0.00844192
0.00844192
0.00844191
0.0084419
0.00844189
0.00844186
0.00844183
0.00844179
0.00844175
0.00844168
0.00844161
0.00844152
0.0084414
0.00844126
0.00844108
0.00844087
0.00844061
0.00844029
0.00843989
0.00843942
0.00843883
0.00843813
0.00843727
0.00843625
0.00843502
0.00843357
0.00843186
0.00842988
0.0084276
0.00842503
0.0084221
0.00858006
0.00858309
0.00858575
0.00858809
0.00859014
0.0085919
0.0085934
0.00859467
0.00859573
0.00859661
0.00859734
0.00859794
0.00859844
0.00859884
0.00859918
0.00859945
0.00859967
0.00859985
0.0086
0.00860011
0.00860021
0.00860029
0.00860035
0.0086004
0.00860044
0.00860047
0.0086005
0.00860051
0.00860053
0.00860053
0.00860053
0.00860053
0.00860051
0.0086005
0.00860047
0.00860044
0.0086004
0.00860035
0.00860029
0.00860021
0.00860011
0.0086
0.00859985
0.00859967
0.00859945
0.00859918
0.00859884
0.00859844
0.00859794
0.00859734
0.00859661
0.00859573
0.00859467
0.0085934
0.0085919
0.00859014
0.00858809
0.00858575
0.00858309
0.00858006
0.00875265
0.00875579
0.00875854
0.00876097
0.00876309
0.00876491
0.00876647
0.00876778
0.00876887
0.00876979
0.00877054
0.00877117
0.00877168
0.0087721
0.00877244
0.00877272
0.00877295
0.00877314
0.00877329
0.00877342
0.00877352
0.0087736
0.00877366
0.00877372
0.00877376
0.00877379
0.00877381
0.00877383
0.00877384
0.00877385
0.00877385
0.00877384
0.00877383
0.00877381
0.00877379
0.00877376
0.00877372
0.00877366
0.0087736
0.00877352
0.00877342
0.00877329
0.00877314
0.00877295
0.00877272
0.00877244
0.0087721
0.00877168
0.00877117
0.00877054
0.00876979
0.00876887
0.00876778
0.00876647
0.00876491
0.00876309
0.00876097
0.00875854
0.00875579
0.00875265
0.00894196
0.00894522
0.00894807
0.0089506
0.0089528
0.00895469
0.0089563
0.00895766
0.0089588
0.00895975
0.00896053
0.00896118
0.00896171
0.00896215
0.00896251
0.0089628
0.00896304
0.00896323
0.00896339
0.00896352
0.00896362
0.00896371
0.00896378
0.00896383
0.00896387
0.00896391
0.00896393
0.00896395
0.00896396
0.00896397
0.00896397
0.00896396
0.00896395
0.00896393
0.00896391
0.00896387
0.00896383
0.00896378
0.00896371
0.00896362
0.00896352
0.00896339
0.00896323
0.00896304
0.0089628
0.00896251
0.00896215
0.00896171
0.00896118
0.00896053
0.00895975
0.0089588
0.00895766
0.0089563
0.00895469
0.0089528
0.0089506
0.00894807
0.00894522
0.00894196
0.0091505
0.0091539
0.00915687
0.00915949
0.00916178
0.00916376
0.00916543
0.00916685
0.00916804
0.00916903
0.00916984
0.00917052
0.00917107
0.00917153
0.0091719
0.00917221
0.00917245
0.00917266
0.00917282
0.00917296
0.00917306
0.00917315
0.00917322
0.00917328
0.00917333
0.00917336
0.00917339
0.00917341
0.00917342
0.00917342
0.00917342
0.00917342
0.00917341
0.00917339
0.00917336
0.00917333
0.00917328
0.00917322
0.00917315
0.00917306
0.00917296
0.00917282
0.00917266
0.00917245
0.00917221
0.0091719
0.00917153
0.00917107
0.00917052
0.00916984
0.00916903
0.00916804
0.00916685
0.00916543
0.00916376
0.00916178
0.00915949
0.00915687
0.0091539
0.0091505
0.00938134
0.00938489
0.009388
0.00939074
0.00939314
0.0093952
0.00939695
0.00939843
0.00939967
0.0094007
0.00940156
0.00940227
0.00940285
0.00940332
0.00940371
0.00940403
0.00940429
0.0094045
0.00940468
0.00940482
0.00940493
0.00940502
0.0094051
0.00940516
0.0094052
0.00940524
0.00940527
0.00940529
0.0094053
0.00940531
0.00940531
0.0094053
0.00940529
0.00940527
0.00940524
0.0094052
0.00940516
0.0094051
0.00940502
0.00940493
0.00940482
0.00940468
0.0094045
0.00940429
0.00940403
0.00940371
0.00940332
0.00940285
0.00940227
0.00940156
0.0094007
0.00939967
0.00939843
0.00939695
0.0093952
0.00939314
0.00939074
0.009388
0.00938489
0.00938134
0.00963826
0.00964199
0.00964525
0.00964813
0.00965064
0.00965281
0.00965465
0.0096562
0.00965751
0.00965859
0.00965949
0.00966023
0.00966084
0.00966134
0.00966175
0.00966209
0.00966236
0.00966258
0.00966276
0.00966291
0.00966303
0.00966313
0.00966321
0.00966327
0.00966332
0.00966336
0.00966339
0.00966341
0.00966342
0.00966343
0.00966343
0.00966342
0.00966341
0.00966339
0.00966336
0.00966332
0.00966327
0.00966321
0.00966313
0.00966303
0.00966291
0.00966276
0.00966258
0.00966236
0.00966209
0.00966175
0.00966134
0.00966084
0.00966023
0.00965949
0.00965859
0.00965751
0.0096562
0.00965465
0.00965281
0.00965064
0.00964813
0.00964525
0.00964199
0.00963826
0.00992598
0.00992993
0.00993336
0.0099364
0.00993905
0.00994133
0.00994328
0.00994492
0.00994629
0.00994744
0.00994839
0.00994917
0.00994981
0.00995034
0.00995077
0.00995113
0.00995142
0.00995165
0.00995184
0.009952
0.00995212
0.00995223
0.00995231
0.00995238
0.00995243
0.00995247
0.0099525
0.00995252
0.00995254
0.00995254
0.00995254
0.00995254
0.00995252
0.0099525
0.00995247
0.00995243
0.00995238
0.00995231
0.00995223
0.00995212
0.009952
0.00995184
0.00995165
0.00995142
0.00995113
0.00995077
0.00995034
0.00994981
0.00994917
0.00994839
0.00994744
0.00994629
0.00994492
0.00994328
0.00994133
0.00993905
0.0099364
0.00993336
0.00992993
0.00992598
0.0102505
0.0102547
0.0102583
0.0102616
0.0102644
0.0102668
0.0102688
0.0102706
0.010272
0.0102733
0.0102743
0.0102751
0.0102758
0.0102763
0.0102768
0.0102772
0.0102775
0.0102777
0.0102779
0.0102781
0.0102782
0.0102783
0.0102784
0.0102785
0.0102786
0.0102786
0.0102786
0.0102787
0.0102787
0.0102787
0.0102787
0.0102787
0.0102787
0.0102786
0.0102786
0.0102786
0.0102785
0.0102784
0.0102783
0.0102782
0.0102781
0.0102779
0.0102777
0.0102775
0.0102772
0.0102768
0.0102763
0.0102758
0.0102751
0.0102743
0.0102733
0.010272
0.0102706
0.0102688
0.0102668
0.0102644
0.0102616
0.0102583
0.0102547
0.0102505
0.0106195
0.010624
0.0106278
0.0106313
0.0106343
0.0106369
0.0106391
0.0106409
0.0106425
0.0106438
0.0106449
0.0106458
0.0106465
0.0106471
0.0106476
0.010648
0.0106483
0.0106486
0.0106488
0.010649
0.0106491
0.0106492
0.0106493
0.0106494
0.0106495
0.0106495
0.0106495
0.0106496
0.0106496
0.0106496
0.0106496
0.0106496
0.0106496
0.0106495
0.0106495
0.0106495
0.0106494
0.0106493
0.0106492
0.0106491
0.010649
0.0106488
0.0106486
0.0106483
0.010648
0.0106476
0.0106471
0.0106465
0.0106458
0.0106449
0.0106438
0.0106425
0.0106409
0.0106391
0.0106369
0.0106343
0.0106313
0.0106278
0.010624
0.0106195
0.011043
0.0110478
0.011052
0.0110557
0.011059
0.0110617
0.0110641
0.0110661
0.0110678
0.0110692
0.0110704
0.0110713
0.0110721
0.0110727
0.0110733
0.0110737
0.0110741
0.0110743
0.0110746
0.0110748
0.0110749
0.0110751
0.0110752
0.0110752
0.0110753
0.0110753
0.0110754
0.0110754
0.0110754
0.0110754
0.0110754
0.0110754
0.0110754
0.0110754
0.0110753
0.0110753
0.0110752
0.0110752
0.0110751
0.0110749
0.0110748
0.0110746
0.0110743
0.0110741
0.0110737
0.0110733
0.0110727
0.0110721
0.0110713
0.0110704
0.0110692
0.0110678
0.0110661
0.0110641
0.0110617
0.011059
0.0110557
0.011052
0.0110478
0.011043
0.0115345
0.0115398
0.0115443
0.0115483
0.0115519
0.0115549
0.0115575
0.0115596
0.0115615
0.011563
0.0115642
0.0115653
0.0115661
0.0115669
0.0115674
0.0115679
0.0115683
0.0115686
0.0115689
0.0115691
0.0115692
0.0115694
0.0115695
0.0115696
0.0115696
0.0115697
0.0115697
0.0115698
0.0115698
0.0115698
0.0115698
0.0115698
0.0115698
0.0115697
0.0115697
0.0115696
0.0115696
0.0115695
0.0115694
0.0115692
0.0115691
0.0115689
0.0115686
0.0115683
0.0115679
0.0115674
0.0115669
0.0115661
0.0115653
0.0115642
0.011563
0.0115615
0.0115596
0.0115575
0.0115549
0.0115519
0.0115483
0.0115443
0.0115398
0.0115345
0.0121124
0.0121182
0.0121232
0.0121276
0.0121315
0.0121348
0.0121376
0.01214
0.012142
0.0121437
0.0121451
0.0121463
0.0121472
0.012148
0.0121486
0.0121491
0.0121495
0.0121499
0.0121502
0.0121504
0.0121506
0.0121507
0.0121509
0.012151
0.012151
0.0121511
0.0121511
0.0121512
0.0121512
0.0121512
0.0121512
0.0121512
0.0121512
0.0121511
0.0121511
0.012151
0.012151
0.0121509
0.0121507
0.0121506
0.0121504
0.0121502
0.0121499
0.0121495
0.0121491
0.0121486
0.012148
0.0121472
0.0121463
0.0121451
0.0121437
0.012142
0.01214
0.0121376
0.0121348
0.0121315
0.0121276
0.0121232
0.0121182
0.0121124
0.0128025
0.0128089
0.0128144
0.0128194
0.0128237
0.0128274
0.0128306
0.0128333
0.0128355
0.0128374
0.0128389
0.0128402
0.0128413
0.0128421
0.0128429
0.0128434
0.0128439
0.0128443
0.0128446
0.0128449
0.0128451
0.0128452
0.0128454
0.0128455
0.0128456
0.0128456
0.0128457
0.0128457
0.0128457
0.0128458
0.0128458
0.0128457
0.0128457
0.0128457
0.0128456
0.0128456
0.0128455
0.0128454
0.0128452
0.0128451
0.0128449
0.0128446
0.0128443
0.0128439
0.0128434
0.0128429
0.0128421
0.0128413
0.0128402
0.0128389
0.0128374
0.0128355
0.0128333
0.0128306
0.0128274
0.0128237
0.0128194
0.0128144
0.0128089
0.0128025
0.0136418
0.013649
0.0136554
0.013661
0.0136659
0.0136701
0.0136737
0.0136768
0.0136793
0.0136815
0.0136832
0.0136847
0.0136859
0.0136869
0.0136877
0.0136883
0.0136889
0.0136893
0.0136897
0.01369
0.0136902
0.0136904
0.0136905
0.0136907
0.0136908
0.0136908
0.0136909
0.0136909
0.013691
0.013691
0.013691
0.013691
0.0136909
0.0136909
0.0136908
0.0136908
0.0136907
0.0136905
0.0136904
0.0136902
0.01369
0.0136897
0.0136893
0.0136889
0.0136883
0.0136877
0.0136869
0.0136859
0.0136847
0.0136832
0.0136815
0.0136793
0.0136768
0.0136737
0.0136701
0.0136659
0.013661
0.0136554
0.013649
0.0136418
0.0146851
0.0146935
0.0147008
0.0147073
0.014713
0.0147179
0.0147221
0.0147257
0.0147286
0.0147311
0.0147332
0.0147349
0.0147363
0.0147374
0.0147383
0.0147391
0.0147397
0.0147402
0.0147407
0.014741
0.0147413
0.0147415
0.0147417
0.0147418
0.0147419
0.014742
0.0147421
0.0147421
0.0147422
0.0147422
0.0147422
0.0147422
0.0147421
0.0147421
0.014742
0.0147419
0.0147418
0.0147417
0.0147415
0.0147413
0.014741
0.0147407
0.0147402
0.0147397
0.0147391
0.0147383
0.0147374
0.0147363
0.0147349
0.0147332
0.0147311
0.0147286
0.0147257
0.0147221
0.0147179
0.014713
0.0147073
0.0147008
0.0146935
0.0146851
0.0160137
0.0160236
0.0160324
0.0160401
0.0160469
0.0160528
0.0160578
0.016062
0.0160655
0.0160685
0.0160709
0.016073
0.0160746
0.016076
0.0160771
0.016078
0.0160788
0.0160794
0.0160799
0.0160803
0.0160806
0.0160809
0.0160811
0.0160813
0.0160814
0.0160815
0.0160816
0.0160817
0.0160817
0.0160817
0.0160817
0.0160817
0.0160817
0.0160816
0.0160815
0.0160814
0.0160813
0.0160811
0.0160809
0.0160806
0.0160803
0.0160799
0.0160794
0.0160788
0.016078
0.0160771
0.016076
0.0160746
0.016073
0.0160709
0.0160685
0.0160655
0.016062
0.0160578
0.0160528
0.0160469
0.0160401
0.0160324
0.0160236
0.0160137
0.0177472
0.0177593
0.01777
0.0177795
0.0177879
0.0177951
0.0178012
0.0178064
0.0178107
0.0178143
0.0178173
0.0178198
0.0178219
0.0178236
0.0178249
0.0178261
0.017827
0.0178277
0.0178283
0.0178288
0.0178292
0.0178296
0.0178298
0.01783
0.0178302
0.0178303
0.0178304
0.0178305
0.0178306
0.0178306
0.0178306
0.0178306
0.0178305
0.0178304
0.0178303
0.0178302
0.01783
0.0178298
0.0178296
0.0178292
0.0178288
0.0178283
0.0178277
0.017827
0.0178261
0.0178249
0.0178236
0.0178219
0.0178198
0.0178173
0.0178143
0.0178107
0.0178064
0.0178012
0.0177951
0.0177879
0.0177795
0.01777
0.0177593
0.0177472
0.020053
0.0200681
0.0200816
0.0200935
0.020104
0.020113
0.0201207
0.0201273
0.0201327
0.0201373
0.0201411
0.0201442
0.0201468
0.0201489
0.0201506
0.020152
0.0201532
0.0201541
0.0201549
0.0201555
0.0201561
0.0201565
0.0201568
0.0201571
0.0201573
0.0201574
0.0201576
0.0201577
0.0201577
0.0201577
0.0201577
0.0201577
0.0201577
0.0201576
0.0201574
0.0201573
0.0201571
0.0201568
0.0201565
0.0201561
0.0201555
0.0201549
0.0201541
0.0201532
0.020152
0.0201506
0.0201489
0.0201468
0.0201442
0.0201411
0.0201373
0.0201327
0.0201273
0.0201207
0.020113
0.020104
0.0200935
0.0200816
0.0200681
0.020053
0.0231424
0.0231616
0.0231787
0.023194
0.0232073
0.0232189
0.0232287
0.023237
0.023244
0.0232498
0.0232547
0.0232587
0.023262
0.0232647
0.0232669
0.0232687
0.0232702
0.0232714
0.0232724
0.0232732
0.0232738
0.0232744
0.0232748
0.0232751
0.0232754
0.0232756
0.0232758
0.0232759
0.023276
0.023276
0.023276
0.023276
0.0232759
0.0232758
0.0232756
0.0232754
0.0232751
0.0232748
0.0232744
0.0232738
0.0232732
0.0232724
0.0232714
0.0232702
0.0232687
0.0232669
0.0232647
0.023262
0.0232587
0.0232547
0.0232498
0.023244
0.023237
0.0232287
0.0232189
0.0232073
0.023194
0.0231787
0.0231616
0.0231424
0.0272394
0.0272637
0.0272856
0.027305
0.0273221
0.0273368
0.0273493
0.0273599
0.0273688
0.0273763
0.0273824
0.0273875
0.0273918
0.0273952
0.027398
0.0274004
0.0274023
0.0274038
0.0274051
0.0274061
0.0274069
0.0274076
0.0274081
0.0274086
0.0274089
0.0274092
0.0274094
0.0274095
0.0274096
0.0274097
0.0274097
0.0274096
0.0274095
0.0274094
0.0274092
0.0274089
0.0274086
0.0274081
0.0274076
0.0274069
0.0274061
0.0274051
0.0274038
0.0274023
0.0274004
0.027398
0.0273952
0.0273918
0.0273875
0.0273824
0.0273763
0.0273688
0.0273599
0.0273493
0.0273368
0.0273221
0.027305
0.0272856
0.0272637
0.0272394
0.0325175
0.0325481
0.0325754
0.0325998
0.0326211
0.0326396
0.0326553
0.0326686
0.0326797
0.032689
0.0326968
0.0327032
0.0327085
0.0327128
0.0327163
0.0327193
0.0327216
0.0327236
0.0327252
0.0327265
0.0327275
0.0327284
0.032729
0.0327296
0.03273
0.0327304
0.0327306
0.0327308
0.0327309
0.032731
0.032731
0.0327309
0.0327308
0.0327306
0.0327304
0.03273
0.0327296
0.032729
0.0327284
0.0327275
0.0327265
0.0327252
0.0327236
0.0327216
0.0327193
0.0327163
0.0327128
0.0327085
0.0327032
0.0326968
0.032689
0.0326797
0.0326686
0.0326553
0.0326396
0.0326211
0.0325998
0.0325754
0.0325481
0.0325175
0.0390319
0.0390692
0.0391024
0.039132
0.0391579
0.0391803
0.0391994
0.0392155
0.0392291
0.0392404
0.0392498
0.0392576
0.0392641
0.0392693
0.0392737
0.0392772
0.0392801
0.0392825
0.0392844
0.039286
0.0392873
0.0392883
0.0392892
0.0392898
0.0392904
0.0392908
0.0392911
0.0392913
0.0392915
0.0392915
0.0392915
0.0392915
0.0392913
0.0392911
0.0392908
0.0392904
0.0392898
0.0392892
0.0392883
0.0392873
0.039286
0.0392844
0.0392825
0.0392801
0.0392772
0.0392737
0.0392693
0.0392641
0.0392576
0.0392498
0.0392404
0.0392291
0.0392155
0.0391994
0.0391803
0.0391579
0.039132
0.0391024
0.0390692
0.0390319
0.046691
0.0467349
0.046774
0.0468087
0.0468391
0.0468653
0.0468877
0.0469067
0.0469226
0.0469359
0.046947
0.0469562
0.0469637
0.0469699
0.046975
0.0469792
0.0469826
0.0469854
0.0469877
0.0469896
0.0469911
0.0469923
0.0469933
0.0469941
0.0469947
0.0469952
0.0469956
0.0469959
0.046996
0.0469961
0.0469961
0.046996
0.0469959
0.0469956
0.0469952
0.0469947
0.0469941
0.0469933
0.0469923
0.0469911
0.0469896
0.0469877
0.0469854
0.0469826
0.0469792
0.046975
0.0469699
0.0469637
0.0469562
0.046947
0.0469359
0.0469226
0.0469067
0.0468877
0.0468653
0.0468391
0.0468087
0.046774
0.0467349
0.046691
0.0552944
0.0553445
0.0553891
0.0554286
0.0554632
0.055493
0.0555184
0.05554
0.0555581
0.0555733
0.0555859
0.0555963
0.055605
0.0556121
0.0556179
0.0556227
0.0556266
0.0556298
0.0556324
0.0556345
0.0556363
0.0556377
0.0556388
0.0556397
0.0556405
0.055641
0.0556415
0.0556418
0.055642
0.0556421
0.0556421
0.055642
0.0556418
0.0556415
0.055641
0.0556405
0.0556397
0.0556388
0.0556377
0.0556363
0.0556345
0.0556324
0.0556298
0.0556266
0.0556227
0.0556179
0.0556121
0.055605
0.0555963
0.0555859
0.0555733
0.0555581
0.05554
0.0555184
0.055493
0.0554632
0.0554286
0.0553891
0.0553445
0.0552944
0.0646093
0.0646653
0.0647148
0.0647587
0.064797
0.06483
0.0648583
0.0648822
0.0649024
0.0649192
0.0649332
0.0649449
0.0649545
0.0649624
0.0649689
0.0649742
0.0649786
0.0649822
0.0649851
0.0649875
0.0649894
0.064991
0.0649923
0.0649933
0.0649941
0.0649948
0.0649952
0.0649956
0.0649958
0.0649959
0.0649959
0.0649958
0.0649956
0.0649952
0.0649948
0.0649941
0.0649933
0.0649923
0.064991
0.0649894
0.0649875
0.0649851
0.0649822
0.0649786
0.0649742
0.0649689
0.0649624
0.0649545
0.0649449
0.0649332
0.0649192
0.0649024
0.0648822
0.0648583
0.06483
0.064797
0.0647587
0.0647148
0.0646653
0.0646093
0.0744347
0.074496
0.0745501
0.0745979
0.0746396
0.0746756
0.0747064
0.0747326
0.0747546
0.074773
0.0747883
0.0748011
0.0748116
0.0748203
0.0748274
0.0748333
0.0748381
0.074842
0.0748452
0.0748479
0.07485
0.0748517
0.0748531
0.0748543
0.0748552
0.0748559
0.0748564
0.0748568
0.074857
0.0748572
0.0748572
0.074857
0.0748568
0.0748564
0.0748559
0.0748552
0.0748543
0.0748531
0.0748517
0.07485
0.0748479
0.0748452
0.074842
0.0748381
0.0748333
0.0748274
0.0748203
0.0748116
0.0748011
0.0747883
0.074773
0.0747546
0.0747326
0.0747064
0.0746756
0.0746396
0.0745979
0.0745501
0.074496
0.0744347
0.0846268
0.084693
0.0847514
0.084803
0.0848479
0.0848867
0.08492
0.0849481
0.0849719
0.0849918
0.0850084
0.0850222
0.0850336
0.085043
0.0850508
0.0850571
0.0850624
0.0850667
0.0850702
0.085073
0.0850754
0.0850773
0.0850788
0.0850801
0.085081
0.0850818
0.0850824
0.0850828
0.0850831
0.0850832
0.0850832
0.0850831
0.0850828
0.0850824
0.0850818
0.085081
0.0850801
0.0850788
0.0850773
0.0850754
0.085073
0.0850702
0.0850667
0.0850624
0.0850571
0.0850508
0.085043
0.0850336
0.0850222
0.0850084
0.0849918
0.0849719
0.0849481
0.08492
0.0848867
0.0848479
0.084803
0.0847514
0.084693
0.0846268
0.0950947
0.0951658
0.0952283
0.0952834
0.0953314
0.095373
0.0954085
0.0954387
0.0954642
0.0954855
0.0955034
0.0955182
0.0955305
0.0955406
0.095549
0.0955558
0.0955615
0.0955661
0.0955699
0.095573
0.0955756
0.0955776
0.0955793
0.0955807
0.0955817
0.0955826
0.0955832
0.0955837
0.095584
0.0955841
0.0955841
0.095584
0.0955837
0.0955832
0.0955826
0.0955817
0.0955807
0.0955793
0.0955776
0.0955756
0.095573
0.0955699
0.0955661
0.0955615
0.0955558
0.095549
0.0955406
0.0955305
0.0955182
0.0955034
0.0954855
0.0954642
0.0954387
0.0954085
0.095373
0.0953314
0.0952834
0.0952283
0.0951658
0.0950947
0.105784
0.10586
0.105926
0.105985
0.106036
0.10608
0.106118
0.10615
0.106177
0.1062
0.106219
0.106235
0.106248
0.106259
0.106268
0.106276
0.106282
0.106287
0.106291
0.106294
0.106297
0.106299
0.106301
0.106302
0.106303
0.106304
0.106305
0.106306
0.106306
0.106306
0.106306
0.106306
0.106306
0.106305
0.106304
0.106303
0.106302
0.106301
0.106299
0.106297
0.106294
0.106291
0.106287
0.106282
0.106276
0.106268
0.106259
0.106248
0.106235
0.106219
0.1062
0.106177
0.10615
0.106118
0.10608
0.106036
0.105985
0.105926
0.10586
0.105784
0.116662
0.116743
0.116813
0.116875
0.116929
0.116976
0.117016
0.11705
0.117079
0.117103
0.117124
0.11714
0.117155
0.117166
0.117176
0.117184
0.11719
0.117196