/*--------------------------------*- C++ -*----------------------------------*\
| =========                 |                                                 |
| \\      /  F ield         | foam-extend: Open Source CFD                    |
|  \\    /   O peration     | Version:     4.0                                |
|   \\  /    A nd           | Web:         http://www.foam-extend.org         |
|    \\/     M anipulation  |                                                 |
\*---------------------------------------------------------------------------*/
FoamFile
{
    version     2.0;
    format      ascii;
    class       volScalarField;
    location    "3";
    object      p;
}
// * * * * * * * * * * * * * * * * * * * * * * * * * * * * * * * * * * * * * //

dimensions      [0 2 -2 0 0 0 0];

internalField   nonuniform List<scalar> 
6960
(
-4.28642e-09
-7.24767e-09
-6.82327e-09
-6.89712e-09
-7.01382e-09
-7.21263e-09
-7.42549e-09
-7.60651e-09
-7.70509e-09
-7.71325e-09
-7.64312e-09
-7.52182e-09
-7.38542e-09
-7.26719e-09
-7.18926e-09
-7.16228e-09
-7.1811e-09
-7.234e-09
-7.30164e-09
-7.36805e-09
-7.41881e-09
-7.44793e-09
-7.45364e-09
-7.44063e-09
-7.41513e-09
-7.38503e-09
-7.35639e-09
-7.33371e-09
-7.31854e-09
-7.31056e-09
-7.3077e-09
-7.30753e-09
-7.30782e-09
-7.30745e-09
-7.30651e-09
-7.30627e-09
-7.30845e-09
-7.31448e-09
-7.32457e-09
-7.33731e-09
-7.34952e-09
-7.35724e-09
-7.35622e-09
-7.34487e-09
-7.32229e-09
-7.29458e-09
-7.26406e-09
-7.24484e-09
-7.23277e-09
-7.24706e-09
-7.26077e-09
-7.30442e-09
-7.31136e-09
-7.35539e-09
-7.3074e-09
-7.34969e-09
-7.23609e-09
-7.33528e-09
-7.1845e-09
-7.36197e-09
-7.59382e-09
-7.44202e-09
-7.1902e-09
-7.21454e-09
-7.18082e-09
-7.20802e-09
-7.24162e-09
-7.29531e-09
-7.33911e-09
-7.37146e-09
-7.38434e-09
-7.37951e-09
-7.36022e-09
-7.33464e-09
-7.30857e-09
-7.28938e-09
-7.27875e-09
-7.27881e-09
-7.28628e-09
-7.29935e-09
-7.31329e-09
-7.32601e-09
-7.3346e-09
-7.33882e-09
-7.33834e-09
-7.33449e-09
-7.32833e-09
-7.32155e-09
-7.31532e-09
-7.31079e-09
-7.30852e-09
-7.30879e-09
-7.31129e-09
-7.31536e-09
-7.31986e-09
-7.32357e-09
-7.32512e-09
-7.32376e-09
-7.31887e-09
-7.3114e-09
-7.30196e-09
-7.29355e-09
-7.28663e-09
-7.2854e-09
-7.28708e-09
-7.2964e-09
-7.30417e-09
-7.31789e-09
-7.32008e-09
-7.32777e-09
-7.3128e-09
-7.31321e-09
-7.27977e-09
-7.29108e-09
-7.24412e-09
-7.29976e-09
-7.22786e-09
-7.34739e-09
-7.21841e-09
-7.35003e-09
-8.34221e-09
-7.51393e-09
-7.49015e-09
-7.50996e-09
-7.3978e-09
-7.31227e-09
-7.20045e-09
-7.13065e-09
-7.09723e-09
-7.11296e-09
-7.16131e-09
-7.23053e-09
-7.29916e-09
-7.35457e-09
-7.38511e-09
-7.39079e-09
-7.37357e-09
-7.34339e-09
-7.308e-09
-7.27723e-09
-7.25553e-09
-7.24633e-09
-7.24814e-09
-7.25878e-09
-7.27386e-09
-7.28995e-09
-7.30377e-09
-7.31385e-09
-7.31966e-09
-7.32201e-09
-7.32213e-09
-7.32145e-09
-7.32095e-09
-7.32099e-09
-7.3211e-09
-7.32046e-09
-7.31786e-09
-7.3129e-09
-7.30529e-09
-7.29689e-09
-7.28856e-09
-7.28449e-09
-7.284e-09
-7.29194e-09
-7.30184e-09
-7.31912e-09
-7.32891e-09
-7.34205e-09
-7.3355e-09
-7.33483e-09
-7.30736e-09
-7.30349e-09
-7.26806e-09
-7.2899e-09
-7.25339e-09
-7.32475e-09
-7.25377e-09
-7.37091e-09
-7.23814e-09
-7.31591e-09
-7.30943e-09
-7.44975e-09
-7.42706e-09
-7.4701e-09
-7.39889e-09
-7.35206e-09
-7.27053e-09
-7.21493e-09
-7.17834e-09
-7.17637e-09
-7.19857e-09
-7.24036e-09
-7.28644e-09
-7.32839e-09
-7.35568e-09
-7.36717e-09
-7.36163e-09
-7.34536e-09
-7.32257e-09
-7.30074e-09
-7.28314e-09
-7.27341e-09
-7.27114e-09
-7.27576e-09
-7.28452e-09
-7.29533e-09
-7.30569e-09
-7.3143e-09
-7.32025e-09
-7.32356e-09
-7.32452e-09
-7.32375e-09
-7.32177e-09
-7.31902e-09
-7.31573e-09
-7.31218e-09
-7.30848e-09
-7.30524e-09
-7.30263e-09
-7.30188e-09
-7.30245e-09
-7.30611e-09
-7.30998e-09
-7.3168e-09
-7.31967e-09
-7.32484e-09
-7.32004e-09
-7.3201e-09
-7.30495e-09
-7.30444e-09
-7.28377e-09
-7.29582e-09
-7.27437e-09
-7.31282e-09
-7.27714e-09
-7.3496e-09
-7.26042e-09
-7.37211e-09
-7.22775e-09
-7.30946e-09
-6.90548e-09
-7.41979e-09
-7.32991e-09
-7.3794e-09
-7.336e-09
-7.3268e-09
-7.29129e-09
-7.27311e-09
-7.25781e-09
-7.25769e-09
-7.2656e-09
-7.28197e-09
-7.29951e-09
-7.31639e-09
-7.32721e-09
-7.33272e-09
-7.33113e-09
-7.32588e-09
-7.31746e-09
-7.30962e-09
-7.30284e-09
-7.2992e-09
-7.29806e-09
-7.29969e-09
-7.30275e-09
-7.30674e-09
-7.31056e-09
-7.31385e-09
-7.31617e-09
-7.31759e-09
-7.31814e-09
-7.31803e-09
-7.31736e-09
-7.31625e-09
-7.31471e-09
-7.31285e-09
-7.31067e-09
-7.3086e-09
-7.30664e-09
-7.30571e-09
-7.30527e-09
-7.30681e-09
-7.30801e-09
-7.31163e-09
-7.31203e-09
-7.3154e-09
-7.31103e-09
-7.31265e-09
-7.30122e-09
-7.30413e-09
-7.28681e-09
-7.2995e-09
-7.27617e-09
-7.31002e-09
-7.26826e-09
-7.33637e-09
-7.24617e-09
-7.3617e-09
-7.22023e-09
-7.3188e-09
-7.06741e-09
-7.4081e-09
-7.29423e-09
-7.34453e-09
-7.30997e-09
-7.31403e-09
-7.2957e-09
-7.2921e-09
-7.28598e-09
-7.28786e-09
-7.29165e-09
-7.29928e-09
-7.30645e-09
-7.31374e-09
-7.31786e-09
-7.32042e-09
-7.31962e-09
-7.31796e-09
-7.31465e-09
-7.31205e-09
-7.30954e-09
-7.30853e-09
-7.30822e-09
-7.3091e-09
-7.31031e-09
-7.31191e-09
-7.31332e-09
-7.31456e-09
-7.31539e-09
-7.31595e-09
-7.31619e-09
-7.31621e-09
-7.31599e-09
-7.31552e-09
-7.31472e-09
-7.3136e-09
-7.31211e-09
-7.31055e-09
-7.30886e-09
-7.3078e-09
-7.30684e-09
-7.30741e-09
-7.30746e-09
-7.30974e-09
-7.30925e-09
-7.31202e-09
-7.30809e-09
-7.31051e-09
-7.30091e-09
-7.30515e-09
-7.28939e-09
-7.30193e-09
-7.2781e-09
-7.30942e-09
-7.26588e-09
-7.33135e-09
-7.24224e-09
-7.35752e-09
-7.22021e-09
-7.3225e-09
-7.1643e-09
-7.40244e-09
-7.28137e-09
-7.33144e-09
-7.29928e-09
-7.30776e-09
-7.29554e-09
-7.29746e-09
-7.29515e-09
-7.29836e-09
-7.30123e-09
-7.30612e-09
-7.30974e-09
-7.31354e-09
-7.31506e-09
-7.31627e-09
-7.31546e-09
-7.31487e-09
-7.31329e-09
-7.31257e-09
-7.31169e-09
-7.31178e-09
-7.31195e-09
-7.31271e-09
-7.31337e-09
-7.31418e-09
-7.31472e-09
-7.31519e-09
-7.31544e-09
-7.31564e-09
-7.31575e-09
-7.31585e-09
-7.31584e-09
-7.31569e-09
-7.31524e-09
-7.31446e-09
-7.31323e-09
-7.31179e-09
-7.31005e-09
-7.30876e-09
-7.30741e-09
-7.30748e-09
-7.30706e-09
-7.30898e-09
-7.30842e-09
-7.31136e-09
-7.308e-09
-7.31103e-09
-7.30225e-09
-7.30686e-09
-7.29139e-09
-7.30333e-09
-7.27887e-09
-7.30874e-09
-7.26459e-09
-7.32903e-09
-7.24111e-09
-7.3563e-09
-7.22168e-09
-7.32405e-09
-7.19929e-09
-7.39932e-09
-7.27835e-09
-7.32825e-09
-7.29626e-09
-7.30564e-09
-7.2948e-09
-7.29812e-09
-7.2969e-09
-7.30067e-09
-7.30355e-09
-7.30797e-09
-7.31086e-09
-7.31383e-09
-7.31466e-09
-7.31543e-09
-7.3145e-09
-7.31406e-09
-7.31283e-09
-7.31254e-09
-7.31207e-09
-7.31248e-09
-7.31282e-09
-7.31363e-09
-7.31421e-09
-7.31486e-09
-7.31521e-09
-7.31548e-09
-7.31556e-09
-7.31563e-09
-7.31567e-09
-7.31576e-09
-7.31582e-09
-7.31577e-09
-7.31547e-09
-7.31484e-09
-7.31374e-09
-7.31236e-09
-7.31059e-09
-7.30916e-09
-7.30759e-09
-7.30739e-09
-7.30673e-09
-7.30848e-09
-7.30792e-09
-7.31101e-09
-7.30799e-09
-7.31141e-09
-7.30305e-09
-7.30786e-09
-7.29245e-09
-7.30404e-09
-7.27916e-09
-7.30834e-09
-7.26386e-09
-7.32794e-09
-7.24066e-09
-7.35587e-09
-7.22282e-09
-7.32449e-09
-7.21087e-09
-7.39674e-09
-7.2784e-09
-7.32834e-09
-7.29609e-09
-7.30538e-09
-7.29442e-09
-7.29775e-09
-7.29657e-09
-7.30047e-09
-7.30349e-09
-7.30804e-09
-7.31102e-09
-7.31404e-09
-7.31486e-09
-7.31559e-09
-7.31459e-09
-7.31408e-09
-7.31279e-09
-7.31247e-09
-7.312e-09
-7.31244e-09
-7.31282e-09
-7.31367e-09
-7.31429e-09
-7.31497e-09
-7.31533e-09
-7.31558e-09
-7.31563e-09
-7.31567e-09
-7.31567e-09
-7.31573e-09
-7.31578e-09
-7.31577e-09
-7.31552e-09
-7.31498e-09
-7.31396e-09
-7.31264e-09
-7.31088e-09
-7.30939e-09
-7.30769e-09
-7.30732e-09
-7.30648e-09
-7.30811e-09
-7.30751e-09
-7.31068e-09
-7.30785e-09
-7.31153e-09
-7.30344e-09
-7.30844e-09
-7.29306e-09
-7.30452e-09
-7.27934e-09
-7.30814e-09
-7.26339e-09
-7.3273e-09
-7.24033e-09
-7.35561e-09
-7.22363e-09
-7.32452e-09
-7.21521e-09
-7.39414e-09
-7.27924e-09
-7.32937e-09
-7.2969e-09
-7.3059e-09
-7.29443e-09
-7.29732e-09
-7.29581e-09
-7.2996e-09
-7.3027e-09
-7.30749e-09
-7.31077e-09
-7.31409e-09
-7.31514e-09
-7.31598e-09
-7.31498e-09
-7.31439e-09
-7.31296e-09
-7.31248e-09
-7.31188e-09
-7.31223e-09
-7.31259e-09
-7.31346e-09
-7.31414e-09
-7.31488e-09
-7.3153e-09
-7.31561e-09
-7.31568e-09
-7.3157e-09
-7.31568e-09
-7.31571e-09
-7.31574e-09
-7.31573e-09
-7.31552e-09
-7.31503e-09
-7.31409e-09
-7.31283e-09
-7.3111e-09
-7.30958e-09
-7.3078e-09
-7.30729e-09
-7.30629e-09
-7.30778e-09
-7.30712e-09
-7.31033e-09
-7.30765e-09
-7.31156e-09
-7.3037e-09
-7.3089e-09
-7.29357e-09
-7.30495e-09
-7.27951e-09
-7.30803e-09
-7.26297e-09
-7.32677e-09
-7.23997e-09
-7.35535e-09
-7.22427e-09
-7.32442e-09
-7.21739e-09
-7.39141e-09
-7.28021e-09
-7.33066e-09
-7.29811e-09
-7.30681e-09
-7.29474e-09
-7.29704e-09
-7.29504e-09
-7.29858e-09
-7.30167e-09
-7.30667e-09
-7.31029e-09
-7.31399e-09
-7.31536e-09
-7.3164e-09
-7.31547e-09
-7.31481e-09
-7.31323e-09
-7.31258e-09
-7.3118e-09
-7.31203e-09
-7.31231e-09
-7.31318e-09
-7.3139e-09
-7.31471e-09
-7.31521e-09
-7.31558e-09
-7.31569e-09
-7.31572e-09
-7.31568e-09
-7.31568e-09
-7.31569e-09
-7.31567e-09
-7.31549e-09
-7.31506e-09
-7.31419e-09
-7.31301e-09
-7.31131e-09
-7.30978e-09
-7.30791e-09
-7.30727e-09
-7.30611e-09
-7.30746e-09
-7.30672e-09
-7.30996e-09
-7.30741e-09
-7.31155e-09
-7.30393e-09
-7.30935e-09
-7.29408e-09
-7.30542e-09
-7.27972e-09
-7.30796e-09
-7.26256e-09
-7.32622e-09
-7.23954e-09
-7.35505e-09
-7.22479e-09
-7.3243e-09
-7.21881e-09
-7.38854e-09
-7.28114e-09
-7.33201e-09
-7.29954e-09
-7.30798e-09
-7.29531e-09
-7.29695e-09
-7.29436e-09
-7.29754e-09
-7.30053e-09
-7.3057e-09
-7.30965e-09
-7.31375e-09
-7.31548e-09
-7.3168e-09
-7.31598e-09
-7.3153e-09
-7.31359e-09
-7.31274e-09
-7.31178e-09
-7.31185e-09
-7.31204e-09
-7.31288e-09
-7.31363e-09
-7.31451e-09
-7.31508e-09
-7.31552e-09
-7.31568e-09
-7.31573e-09
-7.31567e-09
-7.31565e-09
-7.31563e-09
-7.31561e-09
-7.31546e-09
-7.31509e-09
-7.3143e-09
-7.31319e-09
-7.31154e-09
-7.31e-09
-7.30805e-09
-7.30727e-09
-7.30593e-09
-7.30713e-09
-7.3063e-09
-7.30956e-09
-7.30714e-09
-7.31151e-09
-7.30415e-09
-7.30982e-09
-7.29465e-09
-7.30597e-09
-7.27999e-09
-7.30793e-09
-7.26215e-09
-7.32565e-09
-7.23903e-09
-7.3547e-09
-7.22523e-09
-7.32419e-09
-7.21982e-09
-7.38553e-09
-7.28198e-09
-7.33334e-09
-7.30112e-09
-7.30936e-09
-7.29611e-09
-7.29705e-09
-7.29379e-09
-7.29653e-09
-7.29933e-09
-7.3046e-09
-7.30886e-09
-7.31338e-09
-7.31552e-09
-7.31714e-09
-7.31649e-09
-7.31582e-09
-7.31401e-09
-7.31298e-09
-7.31182e-09
-7.31171e-09
-7.31178e-09
-7.31257e-09
-7.31333e-09
-7.31427e-09
-7.31492e-09
-7.31544e-09
-7.31564e-09
-7.31571e-09
-7.31566e-09
-7.3156e-09
-7.31556e-09
-7.31554e-09
-7.31541e-09
-7.31511e-09
-7.3144e-09
-7.31339e-09
-7.31179e-09
-7.31025e-09
-7.30823e-09
-7.30729e-09
-7.30577e-09
-7.30679e-09
-7.30584e-09
-7.30911e-09
-7.30681e-09
-7.31144e-09
-7.30437e-09
-7.31032e-09
-7.29527e-09
-7.30659e-09
-7.28033e-09
-7.30797e-09
-7.26175e-09
-7.32504e-09
-7.23844e-09
-7.35429e-09
-7.22558e-09
-7.3241e-09
-7.22057e-09
-7.38239e-09
-7.28269e-09
-7.33462e-09
-7.30281e-09
-7.31091e-09
-7.29713e-09
-7.29734e-09
-7.29335e-09
-7.29556e-09
-7.29809e-09
-7.3034e-09
-7.30793e-09
-7.31287e-09
-7.31544e-09
-7.31743e-09
-7.31699e-09
-7.31638e-09
-7.31448e-09
-7.31328e-09
-7.31191e-09
-7.31161e-09
-7.31154e-09
-7.31226e-09
-7.31302e-09
-7.314e-09
-7.31473e-09
-7.31532e-09
-7.31559e-09
-7.31569e-09
-7.31562e-09
-7.31555e-09
-7.31548e-09
-7.31545e-09
-7.31536e-09
-7.31512e-09
-7.31451e-09
-7.31359e-09
-7.31207e-09
-7.31053e-09
-7.30843e-09
-7.30734e-09
-7.30562e-09
-7.30643e-09
-7.30535e-09
-7.3086e-09
-7.30643e-09
-7.31132e-09
-7.30456e-09
-7.31084e-09
-7.29595e-09
-7.30729e-09
-7.28077e-09
-7.30808e-09
-7.26138e-09
-7.32441e-09
-7.23778e-09
-7.35382e-09
-7.22583e-09
-7.32404e-09
-7.22114e-09
-7.37912e-09
-7.28324e-09
-7.33582e-09
-7.3046e-09
-7.31263e-09
-7.29836e-09
-7.29785e-09
-7.29307e-09
-7.29466e-09
-7.29684e-09
-7.30212e-09
-7.30689e-09
-7.31223e-09
-7.31526e-09
-7.31764e-09
-7.31747e-09
-7.31696e-09
-7.315e-09
-7.31365e-09
-7.31206e-09
-7.31156e-09
-7.31133e-09
-7.31196e-09
-7.3127e-09
-7.31372e-09
-7.31452e-09
-7.31519e-09
-7.31551e-09
-7.31564e-09
-7.31558e-09
-7.31548e-09
-7.31539e-09
-7.31535e-09
-7.31529e-09
-7.31512e-09
-7.31462e-09
-7.31381e-09
-7.31237e-09
-7.31085e-09
-7.30868e-09
-7.30743e-09
-7.30549e-09
-7.30607e-09
-7.30483e-09
-7.30803e-09
-7.30597e-09
-7.31113e-09
-7.30472e-09
-7.31136e-09
-7.29668e-09
-7.30809e-09
-7.28131e-09
-7.30827e-09
-7.26105e-09
-7.32378e-09
-7.23705e-09
-7.3533e-09
-7.22598e-09
-7.32402e-09
-7.22163e-09
-7.37571e-09
-7.28359e-09
-7.3369e-09
-7.30645e-09
-7.31448e-09
-7.29981e-09
-7.29856e-09
-7.29296e-09
-7.29386e-09
-7.29559e-09
-7.30077e-09
-7.30572e-09
-7.31146e-09
-7.31496e-09
-7.31778e-09
-7.31791e-09
-7.31754e-09
-7.31557e-09
-7.31407e-09
-7.31228e-09
-7.31156e-09
-7.31116e-09
-7.31167e-09
-7.31237e-09
-7.31342e-09
-7.31428e-09
-7.31502e-09
-7.31541e-09
-7.31558e-09
-7.31552e-09
-7.3154e-09
-7.31528e-09
-7.31524e-09
-7.3152e-09
-7.31511e-09
-7.31472e-09
-7.31404e-09
-7.3127e-09
-7.3112e-09
-7.30898e-09
-7.30756e-09
-7.30538e-09
-7.30571e-09
-7.30427e-09
-7.3074e-09
-7.30545e-09
-7.31088e-09
-7.30485e-09
-7.31189e-09
-7.29747e-09
-7.30898e-09
-7.28197e-09
-7.30857e-09
-7.26078e-09
-7.32314e-09
-7.23624e-09
-7.35271e-09
-7.22602e-09
-7.32403e-09
-7.22213e-09
-7.37217e-09
-7.28372e-09
-7.33783e-09
-7.30833e-09
-7.31645e-09
-7.30147e-09
-7.29949e-09
-7.29305e-09
-7.29317e-09
-7.29438e-09
-7.29937e-09
-7.30445e-09
-7.31056e-09
-7.31454e-09
-7.31782e-09
-7.3183e-09
-7.31813e-09
-7.31617e-09
-7.31455e-09
-7.31255e-09
-7.31161e-09
-7.31102e-09
-7.31141e-09
-7.31205e-09
-7.31311e-09
-7.31402e-09
-7.31484e-09
-7.31529e-09
-7.3155e-09
-7.31544e-09
-7.31531e-09
-7.31516e-09
-7.31511e-09
-7.3151e-09
-7.31508e-09
-7.31481e-09
-7.31427e-09
-7.31304e-09
-7.31159e-09
-7.30931e-09
-7.30773e-09
-7.3053e-09
-7.30534e-09
-7.30368e-09
-7.30671e-09
-7.30484e-09
-7.31055e-09
-7.30491e-09
-7.31241e-09
-7.29829e-09
-7.30996e-09
-7.28274e-09
-7.30898e-09
-7.26059e-09
-7.32252e-09
-7.23538e-09
-7.35205e-09
-7.22593e-09
-7.32407e-09
-7.22272e-09
-7.3685e-09
-7.28359e-09
-7.33858e-09
-7.31021e-09
-7.31851e-09
-7.30332e-09
-7.30065e-09
-7.29334e-09
-7.29262e-09
-7.29322e-09
-7.29794e-09
-7.30308e-09
-7.30953e-09
-7.31398e-09
-7.31776e-09
-7.31864e-09
-7.3187e-09
-7.31679e-09
-7.31508e-09
-7.3129e-09
-7.31173e-09
-7.31093e-09
-7.31116e-09
-7.31173e-09
-7.31278e-09
-7.31374e-09
-7.31463e-09
-7.31515e-09
-7.3154e-09
-7.31535e-09
-7.3152e-09
-7.31503e-09
-7.31496e-09
-7.31497e-09
-7.31504e-09
-7.3149e-09
-7.3145e-09
-7.31341e-09
-7.31202e-09
-7.3097e-09
-7.30794e-09
-7.30525e-09
-7.30499e-09
-7.30307e-09
-7.30596e-09
-7.30415e-09
-7.31013e-09
-7.30491e-09
-7.3129e-09
-7.29916e-09
-7.31103e-09
-7.28363e-09
-7.30951e-09
-7.26048e-09
-7.32193e-09
-7.23446e-09
-7.35135e-09
-7.22572e-09
-7.32415e-09
-7.22348e-09
-7.36469e-09
-7.28317e-09
-7.33912e-09
-7.31207e-09
-7.32064e-09
-7.30536e-09
-7.30204e-09
-7.29386e-09
-7.29224e-09
-7.29215e-09
-7.2965e-09
-7.30162e-09
-7.30836e-09
-7.31328e-09
-7.31758e-09
-7.31889e-09
-7.31924e-09
-7.31744e-09
-7.31566e-09
-7.3133e-09
-7.31191e-09
-7.31089e-09
-7.31095e-09
-7.31142e-09
-7.31245e-09
-7.31345e-09
-7.3144e-09
-7.31498e-09
-7.31527e-09
-7.31524e-09
-7.31507e-09
-7.31487e-09
-7.31479e-09
-7.31483e-09
-7.31497e-09
-7.31497e-09
-7.31473e-09
-7.31379e-09
-7.31248e-09
-7.31013e-09
-7.30821e-09
-7.30525e-09
-7.30465e-09
-7.30244e-09
-7.30515e-09
-7.30338e-09
-7.30961e-09
-7.30484e-09
-7.31335e-09
-7.30004e-09
-7.31218e-09
-7.28465e-09
-7.31019e-09
-7.26049e-09
-7.3214e-09
-7.23349e-09
-7.35058e-09
-7.22536e-09
-7.32428e-09
-7.22446e-09
-7.36076e-09
-7.28244e-09
-7.33941e-09
-7.31385e-09
-7.32279e-09
-7.30757e-09
-7.30365e-09
-7.29462e-09
-7.29206e-09
-7.29118e-09
-7.29508e-09
-7.3001e-09
-7.30708e-09
-7.31244e-09
-7.31727e-09
-7.31906e-09
-7.31974e-09
-7.31809e-09
-7.31629e-09
-7.31377e-09
-7.31215e-09
-7.3109e-09
-7.31078e-09
-7.31114e-09
-7.31212e-09
-7.31314e-09
-7.31415e-09
-7.3148e-09
-7.31513e-09
-7.31512e-09
-7.31494e-09
-7.3147e-09
-7.3146e-09
-7.31466e-09
-7.31488e-09
-7.31501e-09
-7.31495e-09
-7.31417e-09
-7.31297e-09
-7.31061e-09
-7.30853e-09
-7.3053e-09
-7.30434e-09
-7.3018e-09
-7.30429e-09
-7.30253e-09
-7.30899e-09
-7.30467e-09
-7.31374e-09
-7.30093e-09
-7.31339e-09
-7.2858e-09
-7.31101e-09
-7.26062e-09
-7.32093e-09
-7.23249e-09
-7.34978e-09
-7.22484e-09
-7.32444e-09
-7.2257e-09
-7.35671e-09
-7.28135e-09
-7.33941e-09
-7.31552e-09
-7.32494e-09
-7.30992e-09
-7.30549e-09
-7.29564e-09
-7.29209e-09
-7.29036e-09
-7.29369e-09
-7.29853e-09
-7.30568e-09
-7.31146e-09
-7.31682e-09
-7.31912e-09
-7.32018e-09
-7.31873e-09
-7.31694e-09
-7.31429e-09
-7.31246e-09
-7.31098e-09
-7.31065e-09
-7.31087e-09
-7.3118e-09
-7.31282e-09
-7.31388e-09
-7.31459e-09
-7.31497e-09
-7.31498e-09
-7.31478e-09
-7.31452e-09
-7.3144e-09
-7.31447e-09
-7.31477e-09
-7.31504e-09
-7.31515e-09
-7.31456e-09
-7.31348e-09
-7.31113e-09
-7.30891e-09
-7.30541e-09
-7.30407e-09
-7.30116e-09
-7.30339e-09
-7.30159e-09
-7.30826e-09
-7.3044e-09
-7.31407e-09
-7.30181e-09
-7.31466e-09
-7.28707e-09
-7.31198e-09
-7.2609e-09
-7.32057e-09
-7.23147e-09
-7.34893e-09
-7.22416e-09
-7.32465e-09
-7.22721e-09
-7.35256e-09
-7.27989e-09
-7.3391e-09
-7.31704e-09
-7.32704e-09
-7.3124e-09
-7.30755e-09
-7.29693e-09
-7.29236e-09
-7.28971e-09
-7.29238e-09
-7.29694e-09
-7.30418e-09
-7.31034e-09
-7.31623e-09
-7.31906e-09
-7.32055e-09
-7.31935e-09
-7.31762e-09
-7.31488e-09
-7.31284e-09
-7.31112e-09
-7.31058e-09
-7.31064e-09
-7.31149e-09
-7.3125e-09
-7.31359e-09
-7.31436e-09
-7.31479e-09
-7.31482e-09
-7.31461e-09
-7.31432e-09
-7.31417e-09
-7.31426e-09
-7.31462e-09
-7.31503e-09
-7.31534e-09
-7.31495e-09
-7.31401e-09
-7.3117e-09
-7.30935e-09
-7.30558e-09
-7.30384e-09
-7.30055e-09
-7.30246e-09
-7.30058e-09
-7.30742e-09
-7.30401e-09
-7.3143e-09
-7.30266e-09
-7.31598e-09
-7.28847e-09
-7.31312e-09
-7.26134e-09
-7.32032e-09
-7.23045e-09
-7.34807e-09
-7.2233e-09
-7.32489e-09
-7.22898e-09
-7.34834e-09
-7.27804e-09
-7.33844e-09
-7.31836e-09
-7.32904e-09
-7.31496e-09
-7.30981e-09
-7.29849e-09
-7.29289e-09
-7.28926e-09
-7.29117e-09
-7.29534e-09
-7.30259e-09
-7.30908e-09
-7.31549e-09
-7.31887e-09
-7.32083e-09
-7.31993e-09
-7.31832e-09
-7.31551e-09
-7.31329e-09
-7.31133e-09
-7.31057e-09
-7.31045e-09
-7.31119e-09
-7.31217e-09
-7.31329e-09
-7.31411e-09
-7.3146e-09
-7.31465e-09
-7.31443e-09
-7.31411e-09
-7.31393e-09
-7.31402e-09
-7.31444e-09
-7.31499e-09
-7.31549e-09
-7.31532e-09
-7.31455e-09
-7.31231e-09
-7.30986e-09
-7.30582e-09
-7.30367e-09
-7.29996e-09
-7.30151e-09
-7.2995e-09
-7.30646e-09
-7.3035e-09
-7.31441e-09
-7.30347e-09
-7.31732e-09
-7.28997e-09
-7.31442e-09
-7.26197e-09
-7.32022e-09
-7.22944e-09
-7.34721e-09
-7.22225e-09
-7.32518e-09
-7.23099e-09
-7.34407e-09
-7.27578e-09
-7.33741e-09
-7.31943e-09
-7.3309e-09
-7.31758e-09
-7.31225e-09
-7.30032e-09
-7.2937e-09
-7.28905e-09
-7.29011e-09
-7.29378e-09
-7.30094e-09
-7.30768e-09
-7.31459e-09
-7.31853e-09
-7.32101e-09
-7.32046e-09
-7.31901e-09
-7.31618e-09
-7.31381e-09
-7.31162e-09
-7.31061e-09
-7.3103e-09
-7.31092e-09
-7.31185e-09
-7.31298e-09
-7.31385e-09
-7.31438e-09
-7.31446e-09
-7.31423e-09
-7.31388e-09
-7.31367e-09
-7.31375e-09
-7.31423e-09
-7.31491e-09
-7.31561e-09
-7.31567e-09
-7.31509e-09
-7.31295e-09
-7.31042e-09
-7.30614e-09
-7.30358e-09
-7.29941e-09
-7.30055e-09
-7.29835e-09
-7.30539e-09
-7.30285e-09
-7.3144e-09
-7.30419e-09
-7.31865e-09
-7.29158e-09
-7.31589e-09
-7.26279e-09
-7.32029e-09
-7.22847e-09
-7.34636e-09
-7.22101e-09
-7.32551e-09
-7.23321e-09
-7.33982e-09
-7.27309e-09
-7.33598e-09
-7.32023e-09
-7.33257e-09
-7.32021e-09
-7.31483e-09
-7.30242e-09
-7.2948e-09
-7.2891e-09
-7.28921e-09
-7.29228e-09
-7.29924e-09
-7.30617e-09
-7.31353e-09
-7.31804e-09
-7.32106e-09
-7.32092e-09
-7.31969e-09
-7.31689e-09
-7.31439e-09
-7.31198e-09
-7.31073e-09
-7.31021e-09
-7.31068e-09
-7.31154e-09
-7.31267e-09
-7.31357e-09
-7.31415e-09
-7.31425e-09
-7.31403e-09
-7.31364e-09
-7.31339e-09
-7.31346e-09
-7.31398e-09
-7.31479e-09
-7.31568e-09
-7.31599e-09
-7.31563e-09
-7.31362e-09
-7.31104e-09
-7.30654e-09
-7.30357e-09
-7.29893e-09
-7.2996e-09
-7.29716e-09
-7.3042e-09
-7.30205e-09
-7.31422e-09
-7.30482e-09
-7.31996e-09
-7.29327e-09
-7.31752e-09
-7.26383e-09
-7.32057e-09
-7.22757e-09
-7.34557e-09
-7.21956e-09
-7.32587e-09
-7.23558e-09
-7.33562e-09
-7.26998e-09
-7.33414e-09
-7.32069e-09
-7.33399e-09
-7.32279e-09
-7.31754e-09
-7.30478e-09
-7.29621e-09
-7.28943e-09
-7.28852e-09
-7.29088e-09
-7.29753e-09
-7.30456e-09
-7.31232e-09
-7.31739e-09
-7.32098e-09
-7.3213e-09
-7.32034e-09
-7.31761e-09
-7.31502e-09
-7.31241e-09
-7.31093e-09
-7.31018e-09
-7.31048e-09
-7.31125e-09
-7.31235e-09
-7.31328e-09
-7.3139e-09
-7.31404e-09
-7.31381e-09
-7.3134e-09
-7.3131e-09
-7.31314e-09
-7.3137e-09
-7.31462e-09
-7.31571e-09
-7.31627e-09
-7.31614e-09
-7.3143e-09
-7.31172e-09
-7.30703e-09
-7.30366e-09
-7.29853e-09
-7.29868e-09
-7.29593e-09
-7.30291e-09
-7.3011e-09
-7.31388e-09
-7.30531e-09
-7.3212e-09
-7.29502e-09
-7.31931e-09
-7.2651e-09
-7.32106e-09
-7.22676e-09
-7.34486e-09
-7.2179e-09
-7.32628e-09
-7.23807e-09
-7.33154e-09
-7.26644e-09
-7.33188e-09
-7.32078e-09
-7.33511e-09
-7.32528e-09
-7.32032e-09
-7.30737e-09
-7.29792e-09
-7.29008e-09
-7.28807e-09
-7.28962e-09
-7.29584e-09
-7.30286e-09
-7.31096e-09
-7.31657e-09
-7.32075e-09
-7.32157e-09
-7.32095e-09
-7.31834e-09
-7.31571e-09
-7.31292e-09
-7.31119e-09
-7.31021e-09
-7.31033e-09
-7.31099e-09
-7.31205e-09
-7.31299e-09
-7.31365e-09
-7.31381e-09
-7.31359e-09
-7.31315e-09
-7.3128e-09
-7.31281e-09
-7.31337e-09
-7.31439e-09
-7.31567e-09
-7.31649e-09
-7.31663e-09
-7.315e-09
-7.31245e-09
-7.30762e-09
-7.30385e-09
-7.29823e-09
-7.29781e-09
-7.29469e-09
-7.30151e-09
-7.29999e-09
-7.31333e-09
-7.30565e-09
-7.32236e-09
-7.29681e-09
-7.32124e-09
-7.2666e-09
-7.32181e-09
-7.22607e-09
-7.34427e-09
-7.21603e-09
-7.32672e-09
-7.24063e-09
-7.32766e-09
-7.26251e-09
-7.32919e-09
-7.32047e-09
-7.33587e-09
-7.32762e-09
-7.32312e-09
-7.31017e-09
-7.29993e-09
-7.29106e-09
-7.28789e-09
-7.28853e-09
-7.2942e-09
-7.3011e-09
-7.30946e-09
-7.31558e-09
-7.32036e-09
-7.32171e-09
-7.32148e-09
-7.31906e-09
-7.31643e-09
-7.31349e-09
-7.31154e-09
-7.31032e-09
-7.31023e-09
-7.31075e-09
-7.31175e-09
-7.31269e-09
-7.31338e-09
-7.31358e-09
-7.31337e-09
-7.31289e-09
-7.31249e-09
-7.31245e-09
-7.31301e-09
-7.31411e-09
-7.31556e-09
-7.31665e-09
-7.31708e-09
-7.31569e-09
-7.31323e-09
-7.3083e-09
-7.30417e-09
-7.29804e-09
-7.29701e-09
-7.29345e-09
-7.30002e-09
-7.29872e-09
-7.31258e-09
-7.3058e-09
-7.32338e-09
-7.29861e-09
-7.32328e-09
-7.26835e-09
-7.32284e-09
-7.22554e-09
-7.34384e-09
-7.21393e-09
-7.3272e-09
-7.24322e-09
-7.32406e-09
-7.25819e-09
-7.32609e-09
-7.31972e-09
-7.33622e-09
-7.32973e-09
-7.3259e-09
-7.31314e-09
-7.30223e-09
-7.29237e-09
-7.28802e-09
-7.28765e-09
-7.29265e-09
-7.29932e-09
-7.30785e-09
-7.31443e-09
-7.3198e-09
-7.32172e-09
-7.32193e-09
-7.31976e-09
-7.31717e-09
-7.31412e-09
-7.31196e-09
-7.3105e-09
-7.31019e-09
-7.31056e-09
-7.31148e-09
-7.3124e-09
-7.31312e-09
-7.31335e-09
-7.31314e-09
-7.31264e-09
-7.31218e-09
-7.31207e-09
-7.31261e-09
-7.31377e-09
-7.31538e-09
-7.31673e-09
-7.31747e-09
-7.31636e-09
-7.31405e-09
-7.30907e-09
-7.30461e-09
-7.298e-09
-7.29632e-09
-7.29225e-09
-7.29846e-09
-7.2973e-09
-7.31159e-09
-7.30574e-09
-7.32423e-09
-7.30038e-09
-7.32543e-09
-7.27033e-09
-7.32416e-09
-7.22519e-09
-7.34363e-09
-7.21161e-09
-7.32772e-09
-7.24581e-09
-7.32083e-09
-7.25352e-09
-7.3226e-09
-7.31852e-09
-7.33611e-09
-7.33158e-09
-7.32859e-09
-7.31624e-09
-7.3048e-09
-7.29404e-09
-7.28847e-09
-7.28703e-09
-7.29123e-09
-7.29755e-09
-7.30614e-09
-7.31311e-09
-7.31906e-09
-7.32158e-09
-7.32228e-09
-7.32041e-09
-7.31793e-09
-7.31481e-09
-7.31246e-09
-7.31075e-09
-7.31022e-09
-7.31041e-09
-7.31123e-09
-7.31213e-09
-7.31286e-09
-7.31312e-09
-7.31292e-09
-7.31239e-09
-7.31186e-09
-7.31169e-09
-7.31218e-09
-7.31337e-09
-7.31512e-09
-7.31673e-09
-7.31779e-09
-7.31701e-09
-7.31489e-09
-7.30993e-09
-7.30519e-09
-7.29811e-09
-7.29574e-09
-7.29109e-09
-7.29684e-09
-7.29572e-09
-7.31037e-09
-7.30543e-09
-7.32487e-09
-7.30209e-09
-7.32764e-09
-7.27256e-09
-7.32579e-09
-7.22507e-09
-7.34369e-09
-7.20907e-09
-7.32827e-09
-7.24836e-09
-7.31808e-09
-7.24855e-09
-7.31873e-09
-7.31685e-09
-7.3355e-09
-7.33307e-09
-7.33112e-09
-7.31941e-09
-7.3076e-09
-7.29605e-09
-7.28928e-09
-7.28669e-09
-7.28999e-09
-7.29582e-09
-7.30436e-09
-7.31165e-09
-7.31814e-09
-7.32127e-09
-7.3225e-09
-7.321e-09
-7.31868e-09
-7.31554e-09
-7.31303e-09
-7.31109e-09
-7.31032e-09
-7.31032e-09
-7.31102e-09
-7.31187e-09
-7.3126e-09
-7.31289e-09
-7.31271e-09
-7.31215e-09
-7.31156e-09
-7.31129e-09
-7.31172e-09
-7.31291e-09
-7.31478e-09
-7.31663e-09
-7.31802e-09
-7.31761e-09
-7.31575e-09
-7.31087e-09
-7.30592e-09
-7.29839e-09
-7.29532e-09
-7.29003e-09
-7.2952e-09
-7.294e-09
-7.30889e-09
-7.30485e-09
-7.32524e-09
-7.30368e-09
-7.32986e-09
-7.275e-09
-7.32773e-09
-7.2252e-09
-7.34409e-09
-7.20632e-09
-7.32886e-09
-7.25085e-09
-7.3159e-09
-7.24335e-09
-7.31454e-09
-7.3147e-09
-7.33436e-09
-7.33417e-09
-7.33342e-09
-7.3226e-09
-7.31061e-09
-7.29839e-09
-7.29045e-09
-7.28668e-09
-7.28895e-09
-7.29417e-09
-7.30254e-09
-7.31006e-09
-7.31705e-09
-7.32078e-09
-7.32258e-09
-7.3215e-09
-7.3194e-09
-7.31629e-09
-7.31366e-09
-7.3115e-09
-7.3105e-09
-7.31029e-09
-7.31085e-09
-7.31163e-09
-7.31236e-09
-7.31267e-09
-7.3125e-09
-7.31192e-09
-7.31126e-09
-7.31089e-09
-7.31123e-09
-7.31239e-09
-7.31434e-09
-7.31643e-09
-7.31815e-09
-7.31814e-09
-7.3166e-09
-7.31189e-09
-7.30678e-09
-7.29886e-09
-7.29507e-09
-7.28909e-09
-7.29356e-09
-7.29217e-09
-7.30716e-09
-7.30397e-09
-7.32532e-09
-7.30512e-09
-7.33207e-09
-7.27764e-09
-7.33e-09
-7.22562e-09
-7.34488e-09
-7.20335e-09
-7.32949e-09
-7.25327e-09
-7.31442e-09
-7.23798e-09
-7.31008e-09
-7.3121e-09
-7.33266e-09
-7.3348e-09
-7.33543e-09
-7.32573e-09
-7.31376e-09
-7.30105e-09
-7.29199e-09
-7.28702e-09
-7.28818e-09
-7.29266e-09
-7.30072e-09
-7.30837e-09
-7.31579e-09
-7.32011e-09
-7.3225e-09
-7.32189e-09
-7.32008e-09
-7.31705e-09
-7.31434e-09
-7.31199e-09
-7.31075e-09
-7.31033e-09
-7.31073e-09
-7.31143e-09
-7.31214e-09
-7.31247e-09
-7.31232e-09
-7.31172e-09
-7.31098e-09
-7.3105e-09
-7.31072e-09
-7.31182e-09
-7.31382e-09
-7.31611e-09
-7.31817e-09
-7.31859e-09
-7.31743e-09
-7.31298e-09
-7.30779e-09
-7.29953e-09
-7.29503e-09
-7.2883e-09
-7.29195e-09
-7.29024e-09
-7.30519e-09
-7.30279e-09
-7.32505e-09
-7.30634e-09
-7.33418e-09
-7.28046e-09
-7.33257e-09
-7.22635e-09
-7.34614e-09
-7.20017e-09
-7.33017e-09
-7.25558e-09
-7.31374e-09
-7.23251e-09
-7.30541e-09
-7.30907e-09
-7.33039e-09
-7.33492e-09
-7.33708e-09
-7.32873e-09
-7.317e-09
-7.30398e-09
-7.2939e-09
-7.28773e-09
-7.28769e-09
-7.29132e-09
-7.29894e-09
-7.30659e-09
-7.31438e-09
-7.31926e-09
-7.32226e-09
-7.32216e-09
-7.3207e-09
-7.31781e-09
-7.31506e-09
-7.31255e-09
-7.31108e-09
-7.31043e-09
-7.31066e-09
-7.31126e-09
-7.31195e-09
-7.31228e-09
-7.31215e-09
-7.31154e-09
-7.31073e-09
-7.31012e-09
-7.3102e-09
-7.3112e-09
-7.31321e-09
-7.31567e-09
-7.31807e-09
-7.31894e-09
-7.31822e-09
-7.3141e-09
-7.30894e-09
-7.30041e-09
-7.29521e-09
-7.2877e-09
-7.29042e-09
-7.28825e-09
-7.30298e-09
-7.30128e-09
-7.32439e-09
-7.3073e-09
-7.33616e-09
-7.28341e-09
-7.33544e-09
-7.22742e-09
-7.34793e-09
-7.1968e-09
-7.3309e-09
-7.25778e-09
-7.31396e-09
-7.22706e-09
-7.30061e-09
-7.30565e-09
-7.32754e-09
-7.33448e-09
-7.33828e-09
-7.33154e-09
-7.32027e-09
-7.30716e-09
-7.29616e-09
-7.28884e-09
-7.28754e-09
-7.2902e-09
-7.29724e-09
-7.30478e-09
-7.31283e-09
-7.31823e-09
-7.32184e-09
-7.32229e-09
-7.32123e-09
-7.31854e-09
-7.3158e-09
-7.31316e-09
-7.31149e-09
-7.31061e-09
-7.31066e-09
-7.31114e-09
-7.31178e-09
-7.31213e-09
-7.31202e-09
-7.31139e-09
-7.31051e-09
-7.30976e-09
-7.30967e-09
-7.31054e-09
-7.31251e-09
-7.31511e-09
-7.31782e-09
-7.31917e-09
-7.31895e-09
-7.31525e-09
-7.31021e-09
-7.3015e-09
-7.29565e-09
-7.28732e-09
-7.289e-09
-7.28623e-09
-7.30055e-09
-7.29945e-09
-7.32331e-09
-7.30795e-09
-7.33792e-09
-7.28644e-09
-7.33857e-09
-7.22885e-09
-7.35032e-09
-7.19324e-09
-7.3317e-09
-7.25985e-09
-7.31519e-09
-7.22171e-09
-7.29577e-09
-7.3019e-09
-7.32414e-09
-7.33345e-09
-7.33899e-09
-7.33405e-09
-7.32349e-09
-7.31051e-09
-7.29875e-09
-7.29034e-09
-7.28775e-09
-7.28935e-09
-7.29567e-09
-7.30297e-09
-7.31117e-09
-7.31703e-09
-7.32123e-09
-7.32226e-09
-7.32165e-09
-7.31923e-09
-7.31656e-09
-7.31382e-09
-7.31196e-09
-7.31087e-09
-7.31072e-09
-7.31107e-09
-7.31166e-09
-7.312e-09
-7.31191e-09
-7.31127e-09
-7.31033e-09
-7.30944e-09
-7.30916e-09
-7.30985e-09
-7.31174e-09
-7.31442e-09
-7.31742e-09
-7.31926e-09
-7.31958e-09
-7.31641e-09
-7.31158e-09
-7.3028e-09
-7.29634e-09
-7.28721e-09
-7.28775e-09
-7.28424e-09
-7.29793e-09
-7.2973e-09
-7.32178e-09
-7.30823e-09
-7.33938e-09
-7.2895e-09
-7.34191e-09
-7.23065e-09
-7.35339e-09
-7.1895e-09
-7.33258e-09
-7.26178e-09
-7.3175e-09
-7.21657e-09
-7.29099e-09
-7.29789e-09
-7.32022e-09
-7.33181e-09
-7.33915e-09
-7.3362e-09
-7.32657e-09
-7.31398e-09
-7.30163e-09
-7.29222e-09
-7.28835e-09
-7.2888e-09
-7.29428e-09
-7.3012e-09
-7.30944e-09
-7.31568e-09
-7.32044e-09
-7.32206e-09
-7.32194e-09
-7.31984e-09
-7.3173e-09
-7.31452e-09
-7.3125e-09
-7.3112e-09
-7.31085e-09
-7.31106e-09
-7.31158e-09
-7.31191e-09
-7.31184e-09
-7.3112e-09
-7.31019e-09
-7.30915e-09
-7.30866e-09
-7.30914e-09
-7.3109e-09
-7.31361e-09
-7.31686e-09
-7.31918e-09
-7.3201e-09
-7.31753e-09
-7.31305e-09
-7.30431e-09
-7.29732e-09
-7.2874e-09
-7.2867e-09
-7.28232e-09
-7.29517e-09
-7.29485e-09
-7.31977e-09
-7.3081e-09
-7.34048e-09
-7.29252e-09
-7.3454e-09
-7.23282e-09
-7.35719e-09
-7.18559e-09
-7.33357e-09
-7.26354e-09
-7.32098e-09
-7.21174e-09
-7.28637e-09
-7.29371e-09
-7.31583e-09
-7.32957e-09
-7.3387e-09
-7.33791e-09
-7.32944e-09
-7.31749e-09
-7.30475e-09
-7.29449e-09
-7.28934e-09
-7.2886e-09
-7.29312e-09
-7.29952e-09
-7.30768e-09
-7.3142e-09
-7.31947e-09
-7.32169e-09
-7.32209e-09
-7.32036e-09
-7.31801e-09
-7.31524e-09
-7.31309e-09
-7.31159e-09
-7.31105e-09
-7.31111e-09
-7.31154e-09
-7.31187e-09
-7.31181e-09
-7.31118e-09
-7.31011e-09
-7.30892e-09
-7.3082e-09
-7.30843e-09
-7.31e-09
-7.31269e-09
-7.31615e-09
-7.31894e-09