/*--------------------------------*- C++ -*----------------------------------*\
| =========                 |                                                 |
| \\      /  F ield         | foam-extend: Open Source CFD                    |
|  \\    /   O peration     | Version:     4.0                                |
|   \\  /    A nd           | Web:         http://www.foam-extend.org         |
|    \\/     M anipulation  |                                                 |
\*---------------------------------------------------------------------------*/
FoamFile
{
    version     2.0;
    format      ascii;
    class       volVectorField;
    location    "3";
    object      U;
}
// * * * * * * * * * * * * * * * * * * * * * * * * * * * * * * * * * * * * * //

dimensions      [0 1 -1 0 0 0 0];

internalField   nonuniform List<vector> 
6960
(
(3.80362e-13 1.45369e-11 0)
(2.42807e-13 8.08912e-13 0)
(-5.91659e-14 2.21969e-12 0)
(7.12678e-14 2.11035e-12 0)
(3.18327e-14 1.40873e-12 0)
(5.17714e-14 4.86047e-13 0)
(3.70297e-14 -6.0822e-13 0)
(3.55925e-14 -1.48848e-12 0)
(2.29387e-14 -1.99075e-12 0)
(1.76504e-14 -2.02813e-12 0)
(1.38947e-14 -1.68316e-12 0)
(1.47106e-14 -1.07519e-12 0)
(1.82166e-14 -3.94523e-13 0)
(2.3028e-14 2.02997e-13 0)
(2.746e-14 5.96295e-13 0)
(3.02566e-14 7.41073e-13 0)
(3.05172e-14 6.52209e-13 0)
(2.85461e-14 3.96469e-13 0)
(2.4395e-14 6.15004e-14 0)
(1.93758e-14 -2.65701e-13 0)
(1.38155e-14 -5.19262e-13 0)
(8.92276e-15 -6.63458e-13 0)
(4.676e-15 -6.93281e-13 0)
(1.63555e-15 -6.28243e-13 0)
(-6.36091e-16 -5.0181e-13 0)
(-2.11637e-15 -3.51198e-13 0)
(-3.35833e-15 -2.0819e-13 0)
(-4.51074e-15 -9.42137e-14 0)
(-5.95593e-15 -1.80527e-14 0)
(-7.73779e-15 2.22718e-14 0)
(-9.94354e-15 3.64839e-14 0)
(-1.24202e-14 3.68561e-14 0)
(-1.50077e-14 3.43115e-14 0)
(-1.74731e-14 3.45515e-14 0)
(-1.96162e-14 3.70984e-14 0)
(-2.14139e-14 3.60791e-14 0)
(-2.28102e-14 2.26733e-14 0)
(-2.42434e-14 -9.2496e-15 0)
(-2.56894e-14 -6.21838e-14 0)
(-2.80646e-14 -1.26807e-13 0)
(-3.06949e-14 -1.91393e-13 0)
(-3.49415e-14 -2.30583e-13 0)
(-3.84706e-14 -2.32878e-13 0)
(-4.36512e-14 -1.76368e-13 0)
(-4.55982e-14 -7.78217e-14 0)
(-4.94267e-14 6.36764e-14 0)
(-4.6824e-14 1.92696e-13 0)
(-4.85536e-14 3.02341e-13 0)
(-4.07644e-14 3.26495e-13 0)
(-4.38347e-14 2.90422e-13 0)
(-3.23172e-14 1.62529e-13 0)
(-4.41304e-14 1.79749e-14 0)
(-2.6426e-14 -1.27769e-13 0)
(-5.62136e-14 -2.00595e-13 0)
(-1.80899e-14 -1.87892e-13 0)
(-7.33343e-14 -9.59942e-14 0)
(1.99902e-16 1.96402e-14 0)
(-5.53896e-14 9.33272e-14 0)
(-3.2915e-14 1.63485e-13 0)
(1.52023e-13 -1.79036e-13 0)
(6.98946e-13 2.74581e-11 0)
(3.46647e-13 1.46155e-12 0)
(-1.2581e-13 4.88529e-12 0)
(1.86931e-13 4.80164e-12 0)
(4.80575e-14 3.4304e-12 0)
(9.38054e-14 1.49604e-12 0)
(5.18222e-14 -9.2019e-13 0)
(6.50244e-14 -2.9484e-12 0)
(5.31902e-14 -4.19542e-12 0)
(6.30574e-14 -4.43e-12 0)
(7.15395e-14 -3.80128e-12 0)
(8.41812e-14 -2.5436e-12 0)
(9.4334e-14 -1.06883e-12 0)
(9.99433e-14 2.7674e-13 0)
(9.93735e-14 1.20816e-12 0)
(9.30025e-14 1.60771e-12 0)
(8.15359e-14 1.48621e-12 0)
(6.80734e-14 9.76475e-13 0)
(5.34217e-14 2.63422e-13 0)
(4.08018e-14 -4.60346e-13 0)
(2.96735e-14 -1.04382e-12 0)
(2.17613e-14 -1.3984e-12 0)
(1.53565e-14 -1.5032e-12 0)
(1.09334e-14 -1.39262e-12 0)
(6.67161e-15 -1.13508e-12 0)
(2.66929e-15 -8.10434e-13 0)
(-2.23135e-15 -4.89928e-13 0)
(-7.7892e-15 -2.244e-13 0)
(-1.44238e-14 -3.84924e-14 0)
(-2.17115e-14 6.6372e-14 0)
(-2.95938e-14 1.06458e-13 0)
(-3.75802e-14 1.05374e-13 0)
(-4.53898e-14 8.65332e-14 0)
(-5.26724e-14 6.49743e-14 0)
(-5.91872e-14 4.54035e-14 0)
(-6.51132e-14 2.24802e-14 0)
(-7.03048e-14 -1.49429e-14 0)
(-7.58622e-14 -7.45952e-14 0)
(-8.12723e-14 -1.59764e-13 0)
(-8.87942e-14 -2.54215e-13 0)
(-9.59936e-14 -3.41214e-13 0)
(-1.06833e-13 -3.79029e-13 0)
(-1.14596e-13 -3.56338e-13 0)
(-1.2699e-13 -2.35965e-13 0)
(-1.30375e-13 -5.90788e-14 0)
(-1.40764e-13 1.83801e-13 0)
(-1.34171e-13 3.82546e-13 0)
(-1.42255e-13 5.49515e-13 0)
(-1.23777e-13 5.51082e-13 0)
(-1.3706e-13 4.74916e-13 0)
(-1.06633e-13 2.31323e-13 0)
(-1.41437e-13 1.03577e-14 0)
(-8.77781e-14 -2.28637e-13 0)
(-1.69712e-13 -2.85111e-13 0)
(-5.37825e-14 -2.51784e-13 0)
(-2.11312e-13 -4.02728e-14 0)
(3.00621e-15 1.00872e-13 0)
(-1.59916e-13 2.22017e-13 0)
(-1.03907e-13 3.25484e-13 0)
(4.3392e-13 -4.82876e-13 0)
(1.05349e-12 1.931e-11 0)
(5.19474e-13 6.98311e-13 0)
(-1.58138e-13 4.12947e-12 0)
(3.08085e-13 4.35721e-12 0)
(6.57019e-14 3.50213e-12 0)
(1.27342e-13 2.02241e-12 0)
(5.28472e-14 -4.98798e-14 0)
(7.95459e-14 -1.94432e-12 0)
(7.19824e-14 -3.26771e-12 0)
(1.02514e-13 -3.74819e-12 0)
(1.29648e-13 -3.4524e-12 0)
(1.59715e-13 -2.52823e-12 0)
(1.80094e-13 -1.31336e-12 0)
(1.87631e-13 -1.09142e-13 0)
(1.80869e-13 8.07831e-13 0)
(1.62541e-13 1.29972e-12 0)
(1.3586e-13 1.33539e-12 0)
(1.07614e-13 1.00156e-12 0)
(8.00247e-14 4.40908e-13 0)
(5.85244e-14 -1.80756e-13 0)
(4.17175e-14 -7.2378e-13 0)
(3.15673e-14 -1.09442e-12 0)
(2.43192e-14 -1.25668e-12 0)
(1.99501e-14 -1.22408e-12 0)
(1.49535e-14 -1.04511e-12 0)
(9.27872e-15 -7.84008e-13 0)
(1.08581e-15 -5.03652e-13 0)
(-8.99615e-15 -2.53841e-13 0)
(-2.13427e-14 -6.47574e-14 0)
(-3.49466e-14 5.26356e-14 0)
(-4.94583e-14 1.03855e-13 0)
(-6.38957e-14 1.03807e-13 0)
(-7.77022e-14 7.18711e-14 0)
(-9.02727e-14 2.50814e-14 0)
(-1.01234e-13 -2.35608e-14 0)
(-1.10931e-13 -6.75497e-14 0)
(-1.19205e-13 -1.04864e-13 0)
(-1.27963e-13 -1.35187e-13 0)
(-1.36461e-13 -1.59649e-13 0)
(-1.48545e-13 -1.72476e-13 0)
(-1.60293e-13 -1.73041e-13 0)
(-1.7834e-13 -1.45977e-13 0)
(-1.91626e-13 -9.93955e-14 0)
(-2.12862e-13 -1.4553e-14 0)
(-2.19431e-13 7.13442e-14 0)
(-2.37591e-13 1.80428e-13 0)
(-2.27572e-13 2.36608e-13 0)
(-2.41334e-13 2.90363e-13 0)
(-2.10809e-13 2.37768e-13 0)
(-2.31891e-13 1.98779e-13 0)
(-1.80695e-13 5.31886e-14 0)
(-2.36324e-13 5.99503e-15 0)
(-1.47188e-13 -1.03916e-13 0)
(-2.80957e-13 -2.36871e-14 0)
(-9.16418e-14 -2.87207e-14 0)
(-3.51096e-13 1.53897e-13 0)
(-1.43683e-15 9.44237e-14 0)
(-2.66205e-13 1.68502e-13 0)
(-1.77881e-13 2.10601e-13 0)
(7.04301e-13 -5.56633e-13 0)
(1.56442e-12 1.23314e-11 0)
(8.4483e-13 -1.63317e-13 0)
(-1.91903e-13 2.04495e-12 0)
(4.49594e-13 2.49241e-12 0)
(1.17739e-13 2.38069e-12 0)
(1.96146e-13 1.78144e-12 0)
(8.52002e-14 6.99003e-13 0)
(1.12402e-13 -4.56338e-13 0)
(9.43897e-14 -1.4182e-12 0)
(1.32126e-13 -1.96646e-12 0)
(1.69226e-13 -2.06878e-12 0)
(2.1375e-13 -1.74785e-12 0)
(2.47051e-13 -1.16254e-12 0)
(2.63152e-13 -4.76253e-13 0)
(2.58599e-13 1.32778e-13 0)
(2.36201e-13 5.52486e-13 0)
(2.00036e-13 7.23921e-13 0)
(1.597e-13 6.62871e-13 0)
(1.18883e-13 4.27051e-13 0)
(8.58707e-14 1.03319e-13 0)
(5.9488e-14 -2.24506e-13 0)
(4.29746e-14 -4.88734e-13 0)
(3.14318e-14 -6.51185e-13 0)
(2.48287e-14 -7.01982e-13 0)
(1.81342e-14 -6.55605e-13 0)
(1.09552e-14 -5.41134e-13 0)
(4.08197e-16 -3.93256e-13 0)
(-1.2949e-14 -2.44252e-13 0)
(-2.98432e-14 -1.18685e-13 0)
(-4.89711e-14 -3.12443e-14 0)
(-6.97896e-14 1.38301e-14 0)
(-9.07643e-14 2.05205e-14 0)
(-1.1087e-13 -5.8364e-16 0)
(-1.28997e-13 -3.63981e-14 0)
(-1.44418e-13 -7.28381e-14 0)
(-1.57532e-13 -9.91083e-14 0)
(-1.68234e-13 -1.07719e-13 0)
(-1.79424e-13 -9.72782e-14 0)
(-1.90503e-13 -7.08915e-14 0)
(-2.07168e-13 -3.5233e-14 0)
(-2.24341e-13 -3.07462e-16 0)
(-2.51177e-13 2.86429e-14 0)
(-2.72213e-13 4.12978e-14 0)
(-3.04374e-13 4.52657e-14 0)
(-3.15807e-13 2.97371e-14 0)
(-3.41995e-13 2.19756e-14 0)
(-3.27678e-13 -2.18733e-15 0)
(-3.44537e-13 7.92926e-15 0)
(-2.9912e-13 -6.8814e-15 0)
(-3.2475e-13 3.75799e-14 0)
(-2.51424e-13 2.50867e-14 0)
(-3.27389e-13 9.57158e-14 0)
(-2.0577e-13 5.50145e-14 0)
(-3.9331e-13 1.30104e-13 0)
(-1.36158e-13 2.35174e-14 0)
(-4.9574e-13 8.47736e-14 0)
(-1.33153e-14 -8.99019e-14 0)
(-3.73318e-13 -2.20103e-14 0)
(-2.45365e-13 4.02569e-14 0)
(9.7182e-13 -4.11909e-13 0)
(2.06915e-12 1.3208e-11 0)
(1.15877e-12 -5.40025e-13 0)
(-2.32228e-13 7.89159e-13 0)
(6.01608e-13 1.29497e-12 0)
(1.92542e-13 1.56496e-12 0)
(2.90773e-13 1.44749e-12 0)
(1.43528e-13 9.60617e-13 0)
(1.63214e-13 2.80811e-13 0)
(1.24502e-13 -4.07806e-13 0)
(1.58947e-13 -9.36027e-13 0)
(1.98285e-13 -1.22228e-12 0)
(2.53346e-13 -1.22809e-12 0)
(2.99928e-13 -1.00713e-12 0)
(3.28298e-13 -6.40516e-13 0)
(3.31602e-13 -2.39868e-13 0)
(3.11024e-13 1.05491e-13 0)
(2.70164e-13 3.29136e-13 0)
(2.20533e-13 4.09984e-13 0)
(1.67103e-13 3.58606e-13 0)
(1.21285e-13 2.1436e-13 0)
(8.28127e-14 2.56133e-14 0)
(5.6947e-14 -1.59454e-13 0)
(3.83491e-14 -3.05255e-13 0)
(2.74252e-14 -3.91512e-13 0)
(1.78492e-14 -4.14701e-13 0)
(8.83165e-15 -3.84022e-13 0)
(-3.73724e-15 -3.17087e-13 0)
(-1.96582e-14 -2.34433e-13 0)
(-4.02673e-14 -1.55161e-13 0)
(-6.41716e-14 -9.36337e-14 0)
(-9.07408e-14 -5.73675e-14 0)
(-1.17911e-13 -4.68101e-14 0)
(-1.44142e-13 -5.56127e-14 0)
(-1.67751e-13 -7.34225e-14 0)
(-1.8762e-13 -8.76768e-14 0)
(-2.04178e-13 -8.85236e-14 0)
(-2.17437e-13 -6.97414e-14 0)
(-2.31331e-13 -3.33699e-14 0)
(-2.45519e-13 1.35238e-14 0)
(-2.67492e-13 5.69116e-14 0)
(-2.91051e-13 8.37126e-14 0)
(-3.27562e-13 8.25331e-14 0)
(-3.57141e-13 5.02577e-14 0)
(-4.00406e-13 -5.1572e-15 0)
(-4.16506e-13 -7.19444e-14 0)
(-4.49619e-13 -1.21773e-13 0)
(-4.29859e-13 -1.48625e-13 0)
(-4.48116e-13 -1.18062e-13 0)
(-3.87108e-13 -6.58753e-14 0)
(-4.16597e-13 4.49938e-14 0)
(-3.22506e-13 1.12681e-13 0)
(-4.19657e-13 2.11404e-13 0)
(-2.6886e-13 1.7306e-13 0)
(-5.10006e-13 1.74598e-13 0)
(-1.88045e-13 -8.33257e-15 0)
(-6.42561e-13 -5.4003e-14 0)
(-2.87233e-14 -2.39425e-13 0)
(-4.7817e-13 -1.6793e-13 0)
(-3.04566e-13 -3.46702e-14 0)
(1.23595e-12 -2.78155e-13 0)
(2.49487e-12 1.55628e-11 0)
(1.4002e-12 -7.05232e-13 0)
(-2.68486e-13 2.63588e-13 0)
(7.58473e-13 7.86718e-13 0)
(2.79245e-13 1.23824e-12 0)
(3.9724e-13 1.32311e-12 0)
(2.13876e-13 1.08458e-12 0)
(2.22156e-13 5.94261e-13 0)
(1.58455e-13 1.10906e-14 0)
(1.85073e-13 -5.18649e-13 0)
(2.23499e-13 -8.87904e-13 0)
(2.8757e-13 -1.03295e-12 0)
(3.47744e-13 -9.62546e-13 0)
(3.90065e-13 -7.24914e-13 0)
(4.03668e-13 -4.05129e-13 0)
(3.87374e-13 -8.48367e-14 0)
(3.4376e-13 1.65208e-13 0)
(2.85877e-13 3.07805e-13 0)
(2.19945e-13 3.33846e-13 0)
(1.60617e-13 2.63377e-13 0)
(1.08874e-13 1.30767e-13 0)
(7.22837e-14 -2.31051e-14 0)
(4.53937e-14 -1.63087e-13 0)
(2.92077e-14 -2.64204e-13 0)
(1.62051e-14 -3.15407e-13 0)
(5.15227e-15 -3.17874e-13 0)
(-9.36428e-15 -2.82566e-13 0)
(-2.76339e-14 -2.25686e-13 0)
(-5.17065e-14 -1.64585e-13 0)
(-8.01854e-14 -1.1386e-13 0)
(-1.12381e-13 -8.25057e-14 0)
(-1.45696e-13 -7.25669e-14 0)
(-1.78046e-13 -7.88801e-14 0)
(-2.07139e-13 -9.13387e-14 0)
(-2.31439e-13 -9.70658e-14 0)
(-2.5142e-13 -8.57952e-14 0)
(-2.67268e-13 -5.15259e-14 0)
(-2.83989e-13 1.89151e-15 0)
(-3.01595e-13 6.46105e-14 0)
(-3.29337e-13 1.17708e-13 0)
(-3.59938e-13 1.44971e-13 0)
(-4.06761e-13 1.30574e-13 0)
(-4.45517e-13 7.40899e-14 0)
(-5.00111e-13 -1.63267e-14 0)
(-5.20921e-13 -1.16518e-13 0)
(-5.60317e-13 -1.95859e-13 0)
(-5.34504e-13 -2.30451e-13 0)
(-5.52968e-13 -1.92415e-13 0)
(-4.75955e-13 -1.03202e-13 0)
(-5.08521e-13 4.87712e-14 0)
(-3.94576e-13 1.70561e-13 0)
(-5.12893e-13 2.95579e-13 0)
(-3.3541e-13 2.73203e-13 0)
(-6.29303e-13 2.4033e-13 0)
(-2.45684e-13 2.38198e-14 0)
(-7.9072e-13 -9.14607e-14 0)
(-4.82551e-14 -2.88575e-13 0)
(-5.8183e-13 -2.34125e-13 0)
(-3.58777e-13 -6.75167e-14 0)
(1.49362e-12 -2.15889e-13 0)
(2.87056e-12 1.6474e-11 0)
(1.60283e-12 -7.93756e-13 0)
(-2.96036e-13 1.14896e-14 0)
(9.18683e-13 5.48456e-13 0)
(3.74121e-13 1.12038e-12 0)
(5.10241e-13 1.30846e-12 0)
(2.90645e-13 1.18709e-12 0)
(2.8498e-13 7.72211e-13 0)
(1.94208e-13 2.20274e-13 0)
(2.10825e-13 -3.30894e-13 0)
(2.47104e-13 -7.55642e-13 0)
(3.19792e-13 -9.75776e-13 0)
(3.94053e-13 -9.77599e-13 0)
(4.51386e-13 -7.9493e-13 0)
(4.76575e-13 -5.03018e-13 0)
(4.65709e-13 -1.82874e-13 0)
(4.20113e-13 8.96858e-14 0)
(3.54238e-13 2.68124e-13 0)
(2.75606e-13 3.33198e-13 0)
(2.02198e-13 2.96361e-13 0)
(1.36445e-13 1.86459e-13 0)
(8.83614e-14 4.2479e-14 0)
(5.25397e-14 -9.92732e-14 0)
(3.06309e-14 -2.10561e-13 0)
(1.39453e-14 -2.76306e-13 0)
(7.63511e-16 -2.93931e-13 0)
(-1.56827e-14 -2.71731e-13 0)
(-3.62502e-14 -2.24599e-13 0)
(-6.37512e-14 -1.6989e-13 0)
(-9.68202e-14 -1.23028e-13 0)
(-1.34705e-13 -9.41474e-14 0)
(-1.74258e-13 -8.60796e-14 0)
(-2.12809e-13 -9.37849e-14 0)
(-2.47429e-13 -1.06414e-13 0)
(-2.76163e-13 -1.09835e-13 0)
(-2.99525e-13 -9.25305e-14 0)
(-3.17944e-13 -4.79063e-14 0)
(-3.37537e-13 1.92756e-14 0)
(-3.58754e-13 9.70181e-14 0)
(-3.92603e-13 1.62294e-13 0)
(-4.30774e-13 1.95383e-13 0)
(-4.88452e-13 1.76109e-13 0)
(-5.36989e-13 1.04302e-13 0)
(-6.03201e-13 -1.20938e-14 0)
(-6.28895e-13 -1.40951e-13 0)
(-6.74159e-13 -2.48074e-13 0)
(-6.41902e-13 -2.96671e-13 0)
(-6.59582e-13 -2.59254e-13 0)
(-5.66206e-13 -1.47631e-13 0)
(-6.0099e-13 3.66516e-14 0)
(-4.6784e-13 2.03051e-13 0)
(-6.06946e-13 3.5977e-13 0)
(-4.04899e-13 3.60338e-13 0)
(-7.5048e-13 3.15811e-13 0)
(-3.08408e-13 7.85705e-14 0)
(-9.40021e-13 -8.63637e-14 0)
(-7.21722e-14 -3.09368e-13 0)
(-6.84973e-13 -2.70253e-13 0)
(-4.09386e-13 -1.09396e-13 0)
(1.74401e-12 -1.83107e-13 0)
(3.21453e-12 1.66272e-11 0)
(1.78676e-12 -8.55009e-13 0)
(-3.12945e-13 -1.50304e-13 0)
(1.08211e-12 4.02942e-13 0)
(4.76153e-13 1.0836e-12 0)
(6.27941e-13 1.3452e-12 0)
(3.71709e-13 1.29851e-12 0)
(3.49908e-13 9.18618e-13 0)
(2.30719e-13 3.68648e-13 0)
(2.36011e-13 -2.16339e-13 0)
(2.69693e-13 -6.92761e-13 0)
(3.51131e-13 -9.70502e-13 0)
(4.40167e-13 -1.02032e-12 0)
(5.13443e-13 -8.677e-13 0)
(5.51136e-13 -5.84164e-13 0)
(5.46369e-13 -2.53117e-13 0)
(4.99106e-13 4.34535e-14 0)
(4.25159e-13 2.51317e-13 0)
(3.33453e-13 3.43852e-13 0)
(2.45389e-13 3.27421e-13 0)
(1.65011e-13 2.28312e-13 0)
(1.04872e-13 8.57645e-14 0)
(5.96989e-14 -6.18648e-14 0)
(3.17946e-14 -1.83198e-13 0)
(1.13103e-14 -2.60056e-13 0)
(-4.0303e-15 -2.87396e-13 0)
(-2.23903e-14 -2.72185e-13 0)
(-4.52567e-14 -2.29122e-13 0)
(-7.6233e-14 -1.76331e-13 0)
(-1.13998e-13 -1.3048e-13 0)
(-1.57722e-13 -1.02938e-13 0)
(-2.03677e-13 -9.71997e-14 0)
(-2.48565e-13 -1.08046e-13 0)
(-2.88783e-13 -1.23488e-13 0)
(-3.2195e-13 -1.27616e-13 0)
(-3.48623e-13 -1.07099e-13 0)
(-3.69537e-13 -5.41399e-14 0)
(-3.91975e-13 2.61116e-14 0)
(-4.16931e-13 1.19836e-13 0)
(-4.57166e-13 1.99968e-13 0)
(-5.03412e-13 2.42812e-13 0)
(-5.72512e-13 2.23215e-13 0)
(-6.31492e-13 1.3993e-13 0)
(-7.09718e-13 -1.69741e-17 0)
(-7.40586e-13 -1.58048e-13 0)
(-7.91407e-13 -2.95764e-13 0)
(-7.52367e-13 -3.64382e-13 0)
(-7.68266e-13 -3.33682e-13 0)
(-6.58068e-13 -2.06574e-13 0)
(-6.94062e-13 7.58968e-15 0)
(-5.42155e-13 2.17867e-13 0)
(-7.0151e-13 4.13203e-13 0)
(-4.76922e-13 4.43662e-13 0)
(-8.73187e-13 4.00441e-13 0)
(-3.76028e-13 1.47212e-13 0)
(-1.09062e-12 -6.01898e-14 0)
(-1.0081e-13 -3.21457e-13 0)
(-7.88108e-13 -2.97483e-13 0)
(-4.56904e-13 -1.68146e-13 0)
(1.98703e-12 -1.61668e-13 0)
(3.53325e-12 1.65154e-11 0)
(1.95881e-12 -9.07599e-13 0)
(-3.18714e-13 -2.97838e-13 0)
(1.24909e-12 2.72656e-13 0)
(5.85456e-13 1.06656e-12 0)
(7.501e-13 1.39855e-12 0)
(4.56646e-13 1.42077e-12 0)
(4.16454e-13 1.06775e-12 0)
(2.67582e-13 5.12434e-13 0)
(2.60391e-13 -1.11931e-13 0)
(2.91218e-13 -6.4266e-13 0)
(3.81718e-13 -9.77625e-13 0)
(4.8634e-13 -1.0727e-12 0)
(5.76544e-13 -9.45972e-13 0)
(6.27638e-13 -6.6653e-13 0)
(6.29563e-13 -3.21076e-13 0)
(5.80844e-13 1.51682e-15 0)
(4.98642e-13 2.39209e-13 0)
(3.93406e-13 3.58159e-13 0)
(2.90061e-13 3.60161e-13 0)
(1.94442e-13 2.69495e-13 0)
(1.21696e-13 1.26207e-13 0)
(6.68017e-14 -2.89206e-14 0)
(3.26825e-14 -1.6117e-13 0)
(8.31847e-15 -2.4924e-13 0)
(-9.17865e-15 -2.8574e-13 0)
(-2.94211e-14 -2.76503e-13 0)
(-5.45857e-14 -2.36266e-13 0)
(-8.90984e-14 -1.84146e-13 0)
(-1.31692e-13 -1.38269e-13 0)
(-1.81441e-13 -1.11416e-13 0)
(-2.33998e-13 -1.07884e-13 0)
(-2.85385e-13 -1.22325e-13 0)
(-3.31291e-13 -1.4157e-13 0)
(-3.68885e-13 -1.47744e-13 0)
(-3.98783e-13 -1.25414e-13 0)
(-4.22082e-13 -6.51783e-14 0)
(-4.47293e-13 2.77976e-14 0)
(-4.76074e-13 1.38165e-13 0)
(-5.22944e-13 2.34851e-13 0)
(-5.77773e-13 2.89959e-13 0)
(-6.58892e-13 2.72803e-13 0)
(-7.29044e-13 1.80339e-13 0)
(-8.19756e-13 1.79342e-14 0)
(-8.56172e-13 -1.6995e-13 0)
(-9.12299e-13 -3.40725e-13 0)
(-8.66145e-13 -4.33365e-13 0)
(-8.79222e-13 -4.13672e-13 0)
(-7.51642e-13 -2.7491e-13 0)
(-7.8771e-13 -3.22808e-14 0)
(-6.17361e-13 2.22641e-13 0)
(-7.96346e-13 4.60988e-13 0)
(-5.51222e-13 5.26636e-13 0)
(-9.97254e-13 4.91679e-13 0)
(-4.48524e-13 2.25438e-13 0)
(-1.2427e-12 -2.22681e-14 0)
(-1.34437e-13 -3.29396e-13 0)
(-8.91598e-13 -3.21364e-13 0)
(-5.01488e-13 -2.40724e-13 0)
(2.22278e-12 -1.42577e-13 0)
(3.82844e-12 1.63226e-11 0)
(2.12044e-12 -9.54984e-13 0)
(-3.13479e-13 -4.5538e-13 0)
(1.42004e-12 1.30959e-13 0)
(7.02486e-13 1.04567e-12 0)
(8.77029e-13 1.45237e-12 0)
(5.45658e-13 1.54967e-12 0)
(4.84652e-13 1.22685e-12 0)
(3.04693e-13 6.67602e-13 0)
(2.83759e-13 2.30104e-15 0)
(3.1145e-13 -5.859e-13 0)
(4.11366e-13 -9.82253e-13 0)
(5.32455e-13 -1.12647e-12 0)
(6.40665e-13 -1.02852e-12 0)
(7.06143e-13 -7.54564e-13 0)
(7.15411e-13 -3.94577e-13 0)
(6.65472e-13 -4.46596e-14 0)
(5.74824e-13 2.24832e-13 0)
(4.55573e-13 3.72253e-13 0)
(3.36276e-13 3.94378e-13 0)
(2.24746e-13 3.13187e-13 0)
(1.38817e-13 1.69458e-13 0)
(7.38028e-14 6.48723e-15 0)
(3.32376e-14 -1.37455e-13 0)
(4.92239e-15 -2.37691e-13 0)
(-1.47154e-14 -2.84239e-13 0)
(-3.67896e-14 -2.81609e-13 0)
(-6.42418e-14 -2.44478e-13 0)
(-1.02342e-13 -1.92958e-13 0)
(-1.49899e-13 -1.46726e-13 0)
(-2.05866e-13 -1.20142e-13 0)
(-2.65237e-13 -1.18498e-13 0)
(-3.23311e-13 -1.36499e-13 0)
(-3.75009e-13 -1.59892e-13 0)
(-4.17031e-13 -1.68814e-13 0)
(-4.50055e-13 -1.45564e-13 0)
(-4.75608e-13 -7.88551e-14 0)
(-5.03492e-13 2.6452e-14 0)
(-5.36146e-13 1.53776e-13 0)
(-5.89883e-13 2.68119e-13 0)
(-6.53802e-13 3.3731e-13 0)
(-7.47567e-13 3.24682e-13 0)
(-8.29669e-13 2.24916e-13 0)
(-9.33414e-13 4.09942e-14 0)
(-9.75814e-13 -1.77054e-13 0)
(-1.03704e-12 -3.82767e-13 0)
(-9.83443e-13 -5.02378e-13 0)
(-9.92611e-13 -4.97216e-13 0)
(-8.47006e-13 -3.49666e-13 0)
(-8.819e-13 -8.00528e-14 0)
(-6.93326e-13 2.2033e-13 0)
(-8.91259e-13 5.04602e-13 0)
(-6.27607e-13 6.10007e-13 0)
(-1.12257e-12 5.88029e-13 0)
(-5.25916e-13 3.11774e-13 0)
(-1.39647e-12 2.45027e-14 0)
(-1.73271e-13 -3.33602e-13 0)
(-9.9576e-13 -3.4271e-13 0)
(-5.43185e-13 -3.24874e-13 0)
(2.45146e-12 -1.22348e-13 0)
(4.1003e-12 1.61075e-11 0)
(2.27133e-12 -9.96241e-13 0)
(-2.97679e-13 -6.29761e-13 0)
(1.59536e-12 -3.09201e-14 0)
(8.27779e-13 1.01156e-12 0)
(1.00923e-12 1.49884e-12 0)
(6.39182e-13 1.68101e-12 0)
(5.54739e-13 1.3958e-12 0)
(3.42093e-13 8.3776e-13 0)
(3.05974e-13 1.32337e-13 0)
(3.30132e-13 -5.15662e-13 0)
(4.39772e-13 -9.78328e-13 0)
(5.78263e-13 -1.17742e-12 0)
(7.0565e-13 -1.1135e-12 0)
(7.86611e-13 -8.48648e-13 0)
(8.03984e-13 -4.75664e-13 0)
(7.53135e-13 -9.79269e-14 0)
(6.53884e-13 2.05374e-13 0)
(5.2012e-13 3.84044e-13 0)
(3.84167e-13 4.29094e-13 0)
(2.56006e-13 3.59605e-13 0)
(1.56252e-13 2.16759e-13 0)
(8.06713e-14 4.62876e-14 0)
(3.34001e-14 -1.09832e-13 0)
(1.056e-15 -2.2326e-13 0)
(-2.07036e-14 -2.81081e-13 0)
(-4.45444e-14 -2.86178e-13 0)
(-7.42512e-14 -2.52945e-13 0)
(-1.15978e-13 -2.02388e-13 0)
(-1.68624e-13 -1.55766e-13 0)
(-2.31003e-13 -1.29159e-13 0)
(-2.97417e-13 -1.29065e-13 0)
(-3.62374e-13 -1.50456e-13 0)
(-4.19985e-13 -1.78152e-13 0)
(-4.66435e-13 -1.90345e-13 0)
(-5.02486e-13 -1.66961e-13 0)
(-5.30146e-13 -9.45729e-14 0)
(-5.60571e-13 2.25725e-14 0)
(-5.97122e-13 1.66986e-13 0)
(-6.57939e-13 2.9987e-13 0)
(-7.31453e-13 3.84774e-13 0)
(-8.3851e-13 3.78655e-13 0)
(-9.33395e-13 2.73489e-13 0)
(-1.05078e-12 6.91216e-14 0)
(-1.09967e-12 -1.79155e-13 0)
(-1.16582e-12 -4.21464e-13 0)
(-1.10447e-12 -5.70742e-13 0)
(-1.1086e-12 -5.83606e-13 0)
(-9.44236e-13 -4.3011e-13 0)
(-9.76604e-13 -1.35325e-13 0)
(-7.69917e-13 2.11197e-13 0)
(-9.86054e-13 5.43782e-13 0)
(-7.05883e-13 6.93569e-13 0)
(-1.24902e-12 6.88895e-13 0)
(-6.08212e-13 4.06223e-13 0)
(-1.55211e-12 7.99847e-14 0)
(-2.17516e-13 -3.33233e-13 0)
(-1.10093e-12 -3.61015e-13 0)
(-5.82021e-13 -4.19575e-13 0)
(2.67334e-12 -9.97631e-14 0)
(4.34867e-12 1.58896e-11 0)
(2.41059e-12 -1.02945e-12 0)
(-2.71975e-13 -8.22804e-13 0)
(1.77542e-12 -2.16418e-13 0)
(9.61881e-13 9.59341e-13 0)
(1.14726e-12 1.53299e-12 0)
(7.37766e-13 1.81108e-12 0)
(6.27079e-13 1.57283e-12 0)
(3.79909e-13 1.02325e-12 0)
(3.26939e-13 2.80265e-13 0)
(3.47007e-13 -4.28774e-13 0)
(4.66606e-13 -9.62453e-13 0)
(6.23451e-13 -1.22265e-12 0)
(7.71273e-13 -1.19903e-12 0)
(8.68943e-13 -9.48095e-13 0)
(8.95312e-13 -5.64742e-13 0)
(8.43966e-13 -1.5945e-13 0)
(7.3601e-13 1.7933e-13 0)
(5.87247e-13 3.92099e-13 0)
(4.33897e-13 4.63258e-13 0)
(2.88322e-13 4.08248e-13 0)
(1.74048e-13 2.68176e-13 0)
(8.73996e-14 9.10168e-14 0)
(3.312e-14 -7.74609e-14 0)
(-3.35589e-15 -2.04987e-13 0)
(-2.72164e-14 -2.75355e-13 0)
(-5.27486e-14 -2.89457e-13 0)
(-8.46602e-14 -2.61121e-13 0)
(-1.30029e-13 -2.12096e-13 0)
(-1.87878e-13 -1.65206e-13 0)
(-2.56861e-13 -1.38367e-13 0)
(-3.30547e-13 -1.39498e-13 0)
(-4.02602e-13 -1.64076e-13 0)
(-4.66256e-13 -1.96191e-13 0)
(-5.17154e-13 -2.12165e-13 0)
(-5.56129e-13 -1.89467e-13 0)
(-5.85727e-13 -1.1229e-13 0)
(-6.18542e-13 1.60705e-14 0)
(-6.58975e-13 1.7757e-13 0)
(-7.27057e-13 3.29804e-13 0)
(-8.10671e-13 4.32063e-13 0)
(-9.31685e-13 4.34559e-13 0)
(-1.04024e-12 3.26113e-13 0)
(-1.17194e-12 1.02629e-13 0)
(-1.22789e-12 -1.75713e-13 0)
(-1.29886e-12 -4.5618e-13 0)
(-1.22944e-12 -6.3788e-13 0)
(-1.22736e-12 -6.72553e-13 0)
(-1.04343e-12 -5.16309e-13 0)
(-1.0718e-12 -1.98654e-13 0)
(-8.47e-13 1.94441e-13 0)
(-1.08052e-12 5.77516e-13 0)
(-7.85827e-13 7.76639e-13 0)
(-1.37646e-12 7.93888e-13 0)
(-6.9539e-13 5.09198e-13 0)
(-1.70981e-12 1.44942e-13 0)
(-2.67375e-13 -3.27063e-13 0)
(-1.20748e-12 -3.75356e-13 0)
(-6.18034e-13 -5.24336e-13 0)
(2.88872e-12 -7.43897e-14 0)
(4.57322e-12 1.56779e-11 0)
(2.53702e-12 -1.05244e-12 0)
(-2.37204e-13 -1.03485e-12 0)
(1.96053e-12 -4.27365e-13 0)
(1.10533e-12 8.85444e-13 0)
(1.29175e-12 1.55077e-12 0)
(8.42046e-13 1.93636e-12 0)
(7.02132e-13 1.75569e-12 0)
(4.18363e-13 1.22351e-12 0)
(3.46607e-13 4.47071e-13 0)
(3.61834e-13 -3.23092e-13 0)
(4.91514e-13 -9.31979e-13 0)
(6.67655e-13 -1.25962e-12 0)
(8.37248e-13 -1.2832e-12 0)
(9.52989e-13 -1.05189e-12 0)
(9.89385e-13 -6.6172e-13 0)
(9.38078e-13 -2.29885e-13 0)
(8.21392e-13 1.45597e-13 0)
(6.57165e-13 3.95201e-13 0)
(4.85657e-13 4.95825e-13 0)
(3.21836e-13 4.58432e-13 0)
(1.92274e-13 3.23459e-13 0)
(9.39855e-14 1.4083e-13 0)
(3.23543e-14 -3.98835e-14 0)
(-8.382e-15 -1.8225e-13 0)
(-3.43391e-14 -2.66401e-13 0)
(-6.14707e-14 -2.90857e-13 0)
(-9.55194e-14 -2.68549e-13 0)
(-1.44521e-13 -2.2176e-13 0)
(-2.07672e-13 -1.7483e-13 0)
(-2.83447e-13 -1.47614e-13 0)
(-3.64646e-13 -1.49655e-13 0)
(-4.44025e-13 -1.77207e-13 0)
(-5.13868e-13 -2.13849e-13 0)
(-5.69249e-13 -2.34145e-13 0)
(-6.1104e-13 -2.13047e-13 0)
(-6.42401e-13 -1.32118e-13 0)
(-6.7741e-13 6.66225e-15 0)
(-7.21682e-13 1.85096e-13 0)
(-7.97184e-13 3.57429e-13 0)
(-8.91377e-13 4.78749e-13 0)
(-1.02704e-12 4.92177e-13 0)
(-1.15019e-12 3.82894e-13 0)
(-1.29696e-12 1.4198e-13 0)
(-1.36063e-12 -1.65977e-13 0)
(-1.43636e-12 -4.86061e-13 0)
(-1.3586e-12 -7.03061e-13 0)
(-1.34912e-12 -7.6373e-13 0)
(-1.14472e-12 -6.08463e-13 0)
(-1.16749e-12 -2.70857e-13 0)
(-9.24438e-13 1.68865e-13 0)
(-1.17443e-12 6.04413e-13 0)
(-8.67172e-13 8.58187e-13 0)
(-1.50471e-12 9.02484e-13 0)
(-7.87386e-13 6.21098e-13 0)
(-1.86977e-12 2.20368e-13 0)
(-3.23054e-13 -3.13731e-13 0)
(-1.31585e-12 -3.84593e-13 0)
(-6.51288e-13 -6.38817e-13 0)
(3.09798e-12 -4.60592e-14 0)
(4.77361e-12 1.54784e-11 0)
(2.64923e-12 -1.06283e-12 0)
(-1.94395e-13 -1.26562e-12 0)
(2.15096e-12 -6.64946e-13 0)
(1.25863e-12 7.86769e-13 0)
(1.44335e-12 1.54833e-12 0)
(9.52733e-13 2.05328e-12 0)
(7.80451e-13 1.94184e-12 0)
(4.57757e-13 1.43754e-12 0)
(3.64995e-13 6.33294e-13 0)
(3.74392e-13 -1.96835e-13 0)
(5.14121e-13 -8.84469e-13 0)
(7.10475e-13 -1.28582e-12 0)
(9.03241e-13 -1.36398e-12 0)
(1.03854e-12 -1.15881e-12 0)
(1.08616e-12 -7.66268e-13 0)
(1.03556e-12 -3.09669e-13 0)
(9.10216e-13 1.03225e-13 0)
(7.30098e-13 3.92203e-13 0)
(5.39659e-13 5.25734e-13 0)
(3.56701e-13 5.09387e-13 0)
(2.11013e-13 3.8223e-13 0)
(1.00452e-13 1.95739e-13 0)
(3.10572e-14 3.22359e-15 0)
(-1.41006e-14 -1.54532e-13 0)
(-4.21565e-14 -2.53645e-13 0)
(-7.07946e-14 -2.8984e-13 0)
(-1.06885e-13 -2.74788e-13 0)
(-1.59492e-13 -2.31054e-13 0)
(-2.28027e-13 -1.84403e-13 0)
(-3.1077e-13 -1.5671e-13 0)
(-3.99726e-13 -1.59354e-13 0)
(-4.86669e-13 -1.89651e-13 0)
(-5.62872e-13 -2.30925e-13 0)
(-6.22776e-13 -2.56132e-13 0)
(-6.67288e-13 -2.3766e-13 0)
(-7.00213e-13 -1.54199e-13 0)
(-7.37201e-13 -6.00508e-15 0)
(-7.85221e-13 1.89029e-13 0)
(-8.68251e-13 3.82126e-13 0)
(-9.7349e-13 5.24282e-13 0)
(-1.1245e-12 5.51207e-13 0)
(-1.26323e-12 4.4391e-13 0)
(-1.4259e-12 1.87691e-13 0)
(-1.49804e-12 -1.49064e-13 0)
(-1.57857e-12 -5.10054e-13 0)
(-1.49222e-12 -7.65341e-13 0)
(-1.47412e-12 -8.56623e-13 0)
(-1.24825e-12 -7.06683e-13 0)
(-1.2637e-12 -3.52782e-13 0)
(-1.0021e-12 1.33105e-13 0)
(-1.26753e-12 6.22821e-13 0)
(-9.49606e-13 9.36874e-13 0)
(-1.63354e-12 1.01392e-12 0)
(-8.84085e-13 7.42161e-13 0)
(-2.03217e-12 3.07266e-13 0)
(-3.84761e-13 -2.91794e-13 0)
(-1.42655e-12 -3.87406e-13 0)
(-6.81879e-13 -7.62677e-13 0)
(3.30153e-12 -1.46949e-14 0)
(4.94951e-12 1.5296e-11 0)
(2.74568e-12 -1.05802e-12 0)
(-1.4478e-13 -1.5143e-12 0)
(2.34689e-12 -9.29892e-13 0)
(1.42225e-12 6.60467e-13 0)
(1.60274e-12 1.52188e-12 0)
(1.07062e-12 2.15807e-12 0)
(8.62693e-13 2.12843e-12 0)
(4.98482e-13 1.66395e-12 0)
(3.8218e-13 8.39136e-13 0)
(3.84494e-13 -4.84512e-14 0)
(5.34048e-13 -8.17571e-13 0)
(7.51464e-13 -1.29871e-12 0)
(9.68856e-13 -1.43921e-12 0)
(1.12535e-12 -1.26741e-12 0)
(1.18553e-12 -8.77842e-13 0)
(1.13648e-12 -3.99069e-13 0)
(1.00266e-12 5.13606e-14 0)
(8.06286e-13 3.81977e-13 0)
(5.96136e-13 5.51879e-13 0)
(3.9311e-13 5.60257e-13 0)
(2.30391e-13 4.44007e-13 0)
(1.06835e-13 2.55655e-13 0)
(2.92035e-14 5.21025e-14 0)
(-2.05913e-14 -1.21378e-13 0)
(-5.07565e-14 -2.36534e-13 0)
(-8.0808e-14 -2.85871e-13 0)
(-1.18832e-13 -2.79385e-13 0)
(-1.74987e-13 -2.39631e-13 0)
(-2.4896e-13 -1.93664e-13 0)
(-3.38841e-13 -1.65436e-13 0)
(-4.35799e-13 -1.68375e-13 0)
(-5.30564e-13 -2.01166e-13 0)
(-6.13321e-13 -2.47169e-13 0)
(-6.77822e-13 -2.77923e-13 0)
(-7.24946e-13 -2.6323e-13 0)
(-7.59228e-13 -1.78662e-13 0)
(-7.97941e-13 -2.23048e-14 0)
(-8.49565e-13 1.88772e-13 0)
(-9.40187e-13 4.03178e-13 0)
(-1.05691e-12 5.67999e-13 0)
(-1.22397e-12 6.11239e-13 0)
(-1.3793e-12 5.09177e-13 0)
(-1.55878e-12 2.40287e-13 0)
(-1.64026e-12 -1.2399e-13 0)
(-1.72571e-12 -5.26932e-13 0)
(-1.6306e-12 -8.23555e-13 0)
(-1.60265e-12 -9.505e-13 0)
(-1.35423e-12 -8.10921e-13 0)
(-1.36047e-12 -4.45234e-13 0)
(-1.07985e-12 8.57055e-14 0)
(-1.35954e-12 6.30874e-13 0)
(-1.03277e-12 1.01107e-12 0)
(-1.76264e-12 1.12713e-12 0)
(-9.85311e-13 8.72417e-13 0)
(-2.19716e-12 4.06576e-13 0)
(-4.52697e-13 -2.59748e-13 0)
(-1.54015e-12 -3.82301e-13 0)
(-7.09947e-13 -8.95506e-13 0)
(3.49986e-12 1.97477e-14 0)
(5.10056e-12 1.51343e-11 0)
(2.82466e-12 -1.03512e-12 0)
(-8.97929e-14 -1.77959e-12 0)
(2.54841e-12 -1.22248e-12 0)
(1.59662e-12 5.03921e-13 0)
(1.77062e-12 1.46764e-12 0)
(1.19658e-12 2.24675e-12 0)
(9.49607e-13 2.31223e-12 0)
(5.41048e-13 1.90095e-12 0)
(3.98332e-13 1.06443e-12 0)
(3.91985e-13 1.23376e-13 0)
(5.50914e-13 -7.29005e-13 0)
(7.90145e-13 -1.29566e-12 0)
(1.03364e-12 -1.50651e-12 0)
(1.21307e-12 -1.37602e-12 0)
(1.28735e-12 -9.95665e-13 0)
(1.24086e-12 -4.98178e-13 0)
(1.09889e-12 -1.07481e-14 0)
(8.85969e-13 3.63415e-13 0)
(6.55349e-13 5.73104e-13 0)
(4.31278e-13 6.10091e-13 0)
(2.50542e-13 5.08196e-13 0)
(1.13191e-13 3.20389e-13 0)
(2.67741e-14 1.06914e-13 0)
(-2.7919e-14 -8.23772e-14 0)
(-6.024e-14 -2.14537e-13 0)
(-9.16086e-14 -2.7841e-13 0)
(-1.31431e-13 -2.81868e-13 0)
(-1.91057e-13 -2.47115e-13 0)
(-2.70498e-13 -2.02319e-13 0)
(-3.67668e-13 -1.73541e-13 0)
(-4.72877e-13 -1.76465e-13 0)
(-5.75738e-13 -2.11468e-13 0)
(-6.65263e-13 -2.62284e-13 0)
(-7.34448e-13 -2.99266e-13 0)
(-7.8411e-13 -2.89635e-13 0)
(-8.19528e-13 -2.05606e-13 0)
(-8.59672e-13 -4.2613e-14 0)
(-9.14702e-13 1.83686e-13 0)
(-1.01292e-12 4.1979e-13 0)
(-1.14151e-12 6.09125e-13 0)
(-1.32531e-12 6.71751e-13 0)
(-1.49831e-12 5.78629e-13 0)
(-1.69561e-12 3.00273e-13 0)
(-1.78741e-12 -8.97137e-14 0)
(-1.87804e-12 -5.35317e-13 0)
(-1.77406e-12 -8.76329e-13 0)
(-1.73505e-12 -1.0444e-12 0)
(-1.46292e-12 -9.20945e-13 0)
(-1.45791e-12 -5.4893e-13 0)
(-1.1576e-12 2.51549e-14 0)
(-1.45017e-12 6.26518e-13 0)
(-1.11625e-12 1.07887e-12 0)
(-1.89167e-12 1.24075e-12 0)
(-1.09081e-12 1.01165e-12 0)
(-2.36488e-12 5.19128e-13 0)
(-5.27057e-13 -2.16035e-13 0)
(-1.65729e-12 -3.67601e-13 0)
(-7.3568e-13 -1.03679e-12 0)
(3.69348e-12 5.73047e-14 0)
(5.22648e-12 1.49961e-11 0)
(2.88435e-12 -9.90897e-13 0)
(-3.1088e-14 -2.05961e-12 0)
(2.75551e-12 -1.54247e-12 0)
(1.78207e-12 3.14782e-13 0)
(1.94769e-12 1.38187e-12 0)
(1.33153e-12 2.31509e-12 0)
(1.04207e-12 2.48958e-12 0)
(5.86072e-13 2.14625e-12 0)
(4.13713e-13 1.3086e-12 0)
(3.96769e-13 3.19682e-13 0)
(5.64355e-13 -6.16592e-13 0)
(8.26011e-13 -1.27397e-12 0)
(1.09708e-12 -1.56333e-12 0)
(1.30132e-12 -1.48269e-12 0)
(1.39142e-12 -1.11869e-12 0)
(1.34869e-12 -6.06874e-13 0)
(1.19905e-12 -8.37315e-14 0)
(9.69396e-13 3.35434e-13 0)
(7.17567e-13 5.88198e-13 0)
(4.71456e-13 6.57835e-13 0)
(2.71633e-13 5.74078e-13 0)
(1.19607e-13 3.89627e-13 0)
(2.37655e-14 1.6773e-13 0)
(-3.61521e-14 -3.71722e-14 0)
(-7.07129e-14 -1.87139e-13 0)
(-1.03294e-13 -2.66906e-13 0)
(-1.44767e-13 -2.81737e-13 0)
(-2.07758e-13 -2.53095e-13 0)
(-2.92669e-13 -2.1004e-13 0)
(-3.97263e-13 -1.80739e-13 0)
(-5.1097e-13 -1.83332e-13 0)
(-6.22218e-13 -2.20234e-13 0)
(-7.18768e-13 -2.75925e-13 0)
(-7.92753e-13 -3.1985e-13 0)
(-8.4489e-13 -3.16695e-13 0)
(-8.81205e-13 -2.35086e-13 0)
(-9.22452e-13 -6.72874e-14 0)
(-9.80629e-13 1.73107e-13 0)
(-1.08637e-12 4.31097e-13 0)
(-1.22715e-12 6.46776e-13 0)
(-1.42835e-12 7.32099e-13 0)
(-1.62014e-12 6.52092e-13 0)
(-1.83636e-12 3.68107e-13 0)
(-1.9396e-12 -4.51599e-14 0)
(-2.0358e-12 -5.33704e-13 0)
(-1.92297e-12 -9.22082e-13 0)