/*--------------------------------*- C++ -*----------------------------------*\
| =========                 |                                                 |
| \\      /  F ield         | foam-extend: Open Source CFD                    |
|  \\    /   O peration     | Version:     4.0                                |
|   \\  /    A nd           | Web:         http://www.foam-extend.org         |
|    \\/     M anipulation  |                                                 |
\*---------------------------------------------------------------------------*/
FoamFile
{
    version     2.0;
    format      ascii;
    class       volScalarField;
    location    "24";
    object      dC1;
}
// * * * * * * * * * * * * * * * * * * * * * * * * * * * * * * * * * * * * * //

dimensions      [0 -1 0 0 0 0 0];

internalField   nonuniform List<scalar> 
6960
(
1.63506e-14
1.64239e-14
1.69513e-14
1.69509e-14
1.62752e-14
1.66499e-14
1.575e-14
1.63506e-14
1.62756e-14
1.53749e-14
1.66512e-14
1.65753e-14
1.62743e-14
1.79266e-14
1.6649e-14
1.61251e-14
1.80763e-14
1.63493e-14
1.69509e-14
1.60492e-14
1.64265e-14
1.59751e-14
1.62765e-14
1.59751e-14
1.66507e-14
1.64257e-14
1.58241e-14
1.69522e-14
1.59746e-14
1.59751e-14
1.72505e-14
1.62752e-14
1.5825e-14
1.71005e-14
1.77007e-14
1.55999e-14
1.66507e-14
1.64252e-14
1.6574e-14
1.72514e-14
1.69504e-14
1.68004e-14
1.695e-14
1.75524e-14
1.5524e-14
1.60501e-14
1.68758e-14
1.68767e-14
1.695e-14
1.71759e-14
1.60501e-14
1.63506e-14
1.67258e-14
1.66494e-14
1.64257e-14
1.61247e-14
1.6126e-14
1.67249e-14
1.62001e-14
1.68758e-14
5.40019e-15
5.13652e-15
5.94533e-15
5.55025e-15
5.30565e-15
5.11874e-15
5.30652e-15
5.38198e-15
5.38068e-15
5.49387e-15
5.17555e-15
5.13695e-15
5.47435e-15
5.4015e-15
5.26792e-15
5.4943e-15
5.25014e-15
5.62484e-15
5.62571e-15
5.30522e-15
6.00171e-15
5.13608e-15
5.2883e-15
5.13738e-15
5.13782e-15
5.34382e-15
5.45614e-15
5.43879e-15
5.21154e-15
5.36246e-15
5.51338e-15
5.34382e-15
5.21198e-15
5.81306e-15
5.39976e-15
5.60663e-15
5.4943e-15
5.34338e-15
5.3243e-15
5.55112e-15
5.86987e-15
5.28657e-15
5.39889e-15
5.7016e-15
5.75538e-15
5.85079e-15
5.53117e-15
5.4943e-15
5.28657e-15
5.32517e-15
5.40019e-15
5.38155e-15
5.17511e-15
5.17468e-15
5.4943e-15
5.41884e-15
5.43879e-15
5.15516e-15
5.62571e-15
5.45657e-15
1.82796e-15
2.09988e-15
1.93161e-15
2.23259e-15
1.73299e-15
2.26034e-15
2.06172e-15
1.9507e-15
1.73342e-15
1.86613e-15
1.9971e-15
1.85615e-15
2.15669e-15
2.09251e-15
1.76118e-15
1.80975e-15
2.10032e-15
1.85615e-15
2.05348e-15
2.21221e-15
1.92251e-15
1.84618e-15
2.21307e-15
2.12807e-15
2.01488e-15
2.0435e-15
2.05305e-15
2.35402e-15
2.1272e-15
1.96934e-15
2.0344e-15
2.06302e-15
2.10942e-15
1.88434e-15
1.94896e-15
2.33537e-15
2.23172e-15
2.07126e-15
2.2031e-15
2.05348e-15
2.13805e-15
2.07126e-15
1.86526e-15
2.05348e-15
2.02486e-15
2.10032e-15
1.87524e-15
2.12851e-15
2.1181e-15
2.15756e-15
2.09988e-15
1.87437e-15
2.05391e-15
2.01531e-15
2.03526e-15
2.11896e-15
2.21264e-15
1.97715e-15
1.80975e-15
1.79067e-15
-1.82146e-16
-5.12177e-16
-2.66714e-16
-4.31079e-16
-5.35162e-16
-3.41307e-16
-4.08094e-16
-3.51282e-16
-5.20851e-16
-1.82146e-16
-3.33067e-16
-3.47378e-16
-3.56919e-16
-3.97252e-16
-3.81205e-16
-8.23994e-18
-4.08094e-16
-3.47378e-16
-3.50414e-16
-4.78784e-16
-4.30645e-16
-4.12864e-16
-3.98553e-16
-4.07226e-16
-4.22405e-16
-4.31079e-16
-2.48499e-16
-5.24754e-16
-4.74013e-16
-4.72712e-16
-3.70797e-16
-3.50848e-16
-3.51715e-16
-4.64906e-16
-5.07407e-16
-2.80592e-16
-2.66714e-16
-2.95337e-16
-5.49474e-16
-4.96131e-16
-3.88578e-16
-4.31512e-16
-3.60822e-16
-4.92228e-16
-2.21177e-16
-3.50848e-16
-3.3697e-16
-4.50594e-16
-3.33067e-16
-1.86916e-16
-5.20851e-16
-3.56919e-16
-3.322e-16
-4.12864e-16
-2.66714e-16
-3.04878e-16
-3.55618e-16
-4.31946e-16
-3.3697e-16
-3.37837e-16
-2.07126e-15
-1.97672e-15
-2.10899e-15
-2.00361e-15
-2.0847e-15
-2.04741e-15
-2.08167e-15
-2.17751e-15
-1.94766e-15
-2.09121e-15
-2.06475e-15
-2.1207e-15
-2.11896e-15
-1.98409e-15
-2.13891e-15
-2.26381e-15
-2.18228e-15
-2.15886e-15
-2.11593e-15
-2.14499e-15
-2.14412e-15
-2.04827e-15
-2.15626e-15
-2.06909e-15
-2.11029e-15
-2.05955e-15
-2.19616e-15
-2.04611e-15
-2.10769e-15
-2.0834e-15
-2.05825e-15
-2.01271e-15
-2.0808e-15
-2.12851e-15
-2.02529e-15
-2.0435e-15
-1.9494e-15
-2.15843e-15
-2.09164e-15
-2.00838e-15
-2.10422e-15
-2.10986e-15
-2.06996e-15
-2.0743e-15
-2.11419e-15
-1.99927e-15
-1.98496e-15
-2.11896e-15
-2.02269e-15
-2.12027e-15
-2.03223e-15
-2.12417e-15
-2.11159e-15
-2.12157e-15
-2.05998e-15
-1.97542e-15
-1.99493e-15
-1.97412e-15
-1.97975e-15
-2.15019e-15
-3.11947e-15
-3.14766e-15
-3.07263e-15
-3.23222e-15
-3.16153e-15
-3.14766e-15
-3.14158e-15
-3.15503e-15
-3.24393e-15
-3.18972e-15
-3.31419e-15
-3.19493e-15
-3.24697e-15
-3.19146e-15
-3.16197e-15
-3.13595e-15
-3.17585e-15
-3.1598e-15
-3.15676e-15
-3.21141e-15
-3.18322e-15
-3.1663e-15
-3.17801e-15
-3.18235e-15
-3.18365e-15
-3.15893e-15
-3.1637e-15
-3.15286e-15
-3.25131e-15
-3.13074e-15
-3.13421e-15
-3.18712e-15
-3.15199e-15
-3.19276e-15
-3.18799e-15
-3.15503e-15
-3.13725e-15
-3.2062e-15
-3.22312e-15
-3.13595e-15
-3.17585e-15
-3.12727e-15
-3.1238e-15
-3.11947e-15
-3.18842e-15
-3.19623e-15
-3.1663e-15
-3.13681e-15
-3.18062e-15
-3.21097e-15
-3.28643e-15
-3.21141e-15
-3.17324e-15
-3.23222e-15
-3.15243e-15
-3.14505e-15
-3.23483e-15
-3.18799e-15
-3.20273e-15
-3.09648e-15
-3.66157e-15
-3.74006e-15
-3.67154e-15
-3.68238e-15
-3.6633e-15
-3.65376e-15
-3.72662e-15
-3.76869e-15
-3.61083e-15
-3.66417e-15
-3.65766e-15
-3.69539e-15
-3.62861e-15
-3.67545e-15
-3.7457e-15
-3.7019e-15
-3.64205e-15
-3.72705e-15
-3.61733e-15
-3.71925e-15
-3.69409e-15
-3.70277e-15
-3.69366e-15
-3.63164e-15
-3.64856e-15
-3.67631e-15
-3.60389e-15
-3.67024e-15
-3.64596e-15
-3.61256e-15
-3.71751e-15
-3.6607e-15
-3.62774e-15
-3.68499e-15
-3.65289e-15
-3.71231e-15
-3.698e-15
-3.60736e-15
-3.63034e-15
-3.65246e-15
-3.62774e-15
-3.64812e-15
-3.63858e-15
-3.64552e-15
-3.64379e-15
-3.55662e-15
-3.60042e-15
-3.66937e-15
-3.65723e-15
-3.59348e-15
-3.59001e-15
-3.63294e-15
-3.6607e-15
-3.63772e-15
-3.70103e-15
-3.69106e-15
-3.67805e-15
-3.68152e-15
-3.6555e-15
-3.71751e-15
-3.63121e-15
-3.63685e-15
-3.69019e-15
-3.68412e-15
-3.6555e-15
-3.67198e-15
-3.63294e-15
-3.58394e-15
-3.6182e-15
-3.66851e-15
-3.66287e-15
-3.64162e-15
-3.68108e-15
-3.67848e-15
-3.62817e-15
-3.68412e-15
-3.64899e-15
-3.60042e-15
-3.68455e-15
-3.59955e-15
-3.59695e-15
-3.58264e-15
-3.62384e-15
-3.64639e-15
-3.7058e-15
-3.59088e-15
-3.62904e-15
-3.70537e-15
-3.64812e-15
-3.67935e-15
-3.60389e-15
-3.66243e-15
-3.662e-15
-3.66113e-15
-3.6568e-15
-3.63468e-15
-3.66504e-15
-3.64422e-15
-3.69149e-15
-3.62687e-15
-3.62904e-15
-3.69583e-15
-3.66547e-15
-3.66504e-15
-3.67761e-15
-3.67718e-15
-3.62124e-15
-3.64118e-15
-3.64986e-15
-3.68846e-15
-3.64682e-15
-3.65159e-15
-3.62514e-15
-3.64509e-15
-3.65159e-15
-3.62167e-15
-3.6607e-15
-3.67761e-15
-3.65333e-15
-3.63208e-15
-3.28253e-15
-3.25868e-15
-3.22832e-15
-3.26085e-15
-3.22225e-15
-3.31506e-15
-3.28296e-15
-3.23266e-15
-3.2834e-15
-3.26779e-15
-3.25131e-15
-3.22008e-15
-3.28773e-15
-3.23266e-15
-3.286e-15
-3.23483e-15
-3.29597e-15
-3.26518e-15
-3.30031e-15
-3.30725e-15
-3.30075e-15
-3.29207e-15
-3.26475e-15
-3.26909e-15
-3.25738e-15
-3.29207e-15
-3.28773e-15
-3.29467e-15
-3.29684e-15
-3.23916e-15
-3.29901e-15
-3.26735e-15
-3.23699e-15
-3.23439e-15
-3.27603e-15
-3.29034e-15
-3.28123e-15
-3.27559e-15
-3.25174e-15
-3.27906e-15
-3.28253e-15
-3.26171e-15
-3.26865e-15
-3.27646e-15
-3.28687e-15
-3.28427e-15
-3.30075e-15
-3.24046e-15
-3.27689e-15
-3.27256e-15
-3.27949e-15
-3.3246e-15
-3.27299e-15
-3.29077e-15
-3.2474e-15
-3.26475e-15
-3.22832e-15
-3.26345e-15
-3.28557e-15
-3.28253e-15
-2.68795e-15
-2.68405e-15
-2.67451e-15
-2.71007e-15
-2.70747e-15
-2.6628e-15
-2.67928e-15
-2.7092e-15
-2.73523e-15
-2.67581e-15
-2.67408e-15
-2.72915e-15
-2.69186e-15
-2.72655e-15
-2.67841e-15
-2.69923e-15
-2.64589e-15
-2.70573e-15
-2.69446e-15
-2.67408e-15
-2.67061e-15
-2.67668e-15
-2.68188e-15
-2.65543e-15
-2.67798e-15
-2.7079e-15
-2.69619e-15
-2.68232e-15
-2.67017e-15
-2.68969e-15
-2.69706e-15
-2.64328e-15
-2.704e-15
-2.69229e-15
-2.6589e-15
-2.70487e-15
-2.70617e-15
-2.66237e-15
-2.69316e-15
-2.69272e-15
-2.67538e-15
-2.68665e-15
-2.64892e-15
-2.70183e-15
-2.67755e-15
-2.69576e-15
-2.64762e-15
-2.71831e-15
-2.66974e-15
-2.69316e-15
-2.68926e-15
-2.62897e-15
-2.70747e-15
-2.66063e-15
-2.70834e-15
-2.70704e-15
-2.71614e-15
-2.6602e-15
-2.64719e-15
-2.70227e-15
-2.06129e-15
-2.07993e-15
-2.06085e-15
-2.06302e-15
-2.0331e-15
-2.06172e-15
-2.05044e-15
-2.037e-15
-2.02572e-15
-2.05912e-15
-2.05868e-15
-2.04827e-15
-2.01792e-15
-2.03006e-15
-2.08254e-15
-2.03657e-15
-2.07213e-15
-2.06432e-15
-2.03917e-15
-2.06042e-15
-2.06215e-15
-2.06215e-15
-2.05131e-15
-2.09641e-15
-2.08254e-15
-2.05912e-15
-2.04437e-15
-2.05651e-15
-2.07733e-15
-2.05912e-15
-2.02659e-15
-2.07256e-15
-2.05521e-15
-2.05305e-15
-2.09468e-15
-2.06996e-15
-2.04871e-15
-2.07603e-15
-2.04697e-15
-2.06389e-15
-2.05044e-15
-2.07299e-15
-2.08947e-15
-2.06215e-15
-2.04047e-15
-2.05565e-15
-2.08644e-15
-2.03093e-15
-2.07083e-15
-2.07213e-15
-2.08037e-15
-2.06562e-15
-2.04003e-15
-2.04914e-15
-2.04481e-15
-2.05521e-15
-2.05651e-15
-2.06692e-15
-2.07516e-15
-2.04437e-15
-1.48449e-15
-1.49143e-15
-1.46541e-15
-1.45847e-15
-1.50227e-15
-1.48232e-15
-1.48622e-15
-1.48839e-15
-1.47061e-15
-1.4975e-15
-1.455e-15
-1.46497e-15
-1.49143e-15
-1.46411e-15
-1.44849e-15
-1.47408e-15
-1.47582e-15
-1.4524e-15
-1.46801e-15
-1.46281e-15
-1.46281e-15
-1.47321e-15
-1.4615e-15
-1.45673e-15
-1.46671e-15
-1.49837e-15
-1.46758e-15
-1.48275e-15
-1.48015e-15
-1.46541e-15
-1.48492e-15
-1.46454e-15
-1.44156e-15
-1.47451e-15
-1.4563e-15
-1.45196e-15
-1.46541e-15
-1.47668e-15
-1.48015e-15
-1.44069e-15
-1.48449e-15
-1.45413e-15
-1.46974e-15
-1.45934e-15
-1.46541e-15
-1.49837e-15
-1.45543e-15
-1.50834e-15
-1.47929e-15
-1.4589e-15
-1.46974e-15
-1.44806e-15
-1.45587e-15
-1.46194e-15
-1.45717e-15
-1.4615e-15
-1.47668e-15
-1.46758e-15
-1.45066e-15
-1.47755e-15
-9.95731e-16
-9.83588e-16
-1.01048e-15
-1.00874e-15
-9.59736e-16
-9.68843e-16
-1.00701e-15
-9.6494e-16
-9.88359e-16
-9.71445e-16
-1.00094e-15
-1.00137e-15
-9.71445e-16
-9.85757e-16
-1.01655e-15
-1.01568e-15
-9.87058e-16
-9.98767e-16
-9.77517e-16
-9.80986e-16
-9.90527e-16
-9.95298e-16
-9.85757e-16
-1.02219e-15
-9.94864e-16
-9.93997e-16
-9.8966e-16
-1.01308e-15
-1.00224e-15
-1.00354e-15
-1.01395e-15
-9.7795e-16
-9.96599e-16
-9.87491e-16
-1.01308e-15
-9.90527e-16
-1.00527e-15
-9.75348e-16
-9.6147e-16
-1.01481e-15
-9.80986e-16
-1.00961e-15
-9.84022e-16
-1.00527e-15
-1.00137e-15
-9.85323e-16
-9.84889e-16
-9.65374e-16
-1.00094e-15
-9.7795e-16
-1.01655e-15
-1.00874e-15
-1.01178e-15
-9.71879e-16
-9.93563e-16
-9.88792e-16
-9.82721e-16
-9.96599e-16
-1.01525e-15
-9.83155e-16
-6.22332e-16
-6.26235e-16
-6.34909e-16
-6.33174e-16
-6.61797e-16
-6.41414e-16
-6.1973e-16
-6.32307e-16
-6.20164e-16
-6.42715e-16
-6.32307e-16
-6.22332e-16
-6.44883e-16
-6.60496e-16
-6.34909e-16
-6.53557e-16
-6.34475e-16
-6.48787e-16
-6.30572e-16
-6.657e-16
-6.27103e-16
-6.16694e-16
-6.39679e-16
-6.20597e-16
-6.33608e-16
-6.05852e-16
-6.70037e-16
-6.36644e-16
-6.45317e-16
-6.4445e-16
-6.45317e-16
-6.31006e-16
-6.48353e-16
-6.41414e-16
-6.40547e-16
-6.07587e-16
-6.27103e-16
-6.657e-16
-6.66134e-16
-6.35342e-16
-6.49654e-16
-6.39679e-16
-6.4922e-16
-6.88252e-16
-6.26669e-16
-6.34041e-16
-6.57894e-16
-6.63532e-16
-6.53123e-16
-6.49654e-16
-6.02383e-16
-6.34041e-16
-6.29705e-16
-6.65266e-16
-6.30572e-16
-6.21465e-16
-6.44016e-16
-6.50088e-16
-6.18429e-16
-6.38378e-16
-4.27609e-16
-4.54498e-16
-3.98119e-16
-3.66894e-16
-4.21104e-16
-4.02022e-16
-4.30211e-16
-4.18068e-16
-4.48426e-16
-4.11129e-16
-4.15033e-16
-3.9942e-16
-4.24574e-16
-4.28043e-16
-4.30645e-16
-3.84241e-16
-4.12431e-16
-4.19803e-16
-4.18936e-16
-3.66894e-16
-4.4062e-16
-4.36283e-16
-4.12864e-16
-4.25875e-16
-4.18068e-16
-4.21104e-16
-3.84675e-16
-4.33247e-16
-3.94216e-16
-4.01155e-16
-4.05925e-16
-4.2414e-16
-3.88144e-16
-4.05492e-16
-3.84675e-16
-4.57533e-16
-4.36717e-16
-3.96384e-16
-4.14599e-16
-3.98553e-16
-4.02022e-16
-4.18502e-16
-3.9118e-16
-3.67761e-16
-4.14599e-16
-4.07226e-16
-4.05058e-16
-3.83374e-16
-4.02022e-16
-3.95951e-16
-4.54931e-16
-4.4062e-16
-4.13298e-16
-4.16334e-16
-4.05492e-16
-4.26308e-16
-4.28043e-16
-4.14599e-16
-4.14599e-16
-4.2414e-16
-2.98806e-16
-2.41994e-16
-2.74086e-16
-3.26562e-16
-2.91e-16
-2.86229e-16
-2.77122e-16
-2.97071e-16
-2.71051e-16
-2.77122e-16
-2.68448e-16
-2.65846e-16
-2.23346e-16
-2.72352e-16
-2.81893e-16
-2.7452e-16
-2.97071e-16
-2.6628e-16
-2.99673e-16
-2.86229e-16
-2.54137e-16
-2.54137e-16
-2.79724e-16
-2.82326e-16
-2.64112e-16
-2.64112e-16
-3.04444e-16
-2.77122e-16
-2.97939e-16
-3.03143e-16
-2.95337e-16
-3.06179e-16
-3.06612e-16
-2.53703e-16
-2.6151e-16
-2.71484e-16
-2.70183e-16
-2.73219e-16
-2.7452e-16
-2.87964e-16
-3.41307e-16
-2.82326e-16
-3.1225e-16
-3.05311e-16
-2.80158e-16
-2.91867e-16
-2.89699e-16
-3.322e-16
-2.64112e-16
-2.99673e-16
-2.71918e-16
-2.67581e-16
-2.6151e-16
-2.84928e-16
-2.70617e-16
-2.61076e-16
-2.71484e-16
-2.76688e-16
-3.00975e-16
-2.81459e-16
-1.81279e-16
-2.36356e-16
-2.54137e-16
-2.22912e-16
-2.60209e-16
-2.52402e-16
-2.41994e-16
-2.24213e-16
-2.38524e-16
-2.30718e-16
-2.81459e-16
-2.66714e-16
-3.07046e-16
-2.94036e-16
-2.66714e-16
-2.67147e-16
-2.35489e-16
-2.48933e-16
-2.31152e-16
-2.34188e-16
-2.68448e-16
-2.43729e-16
-2.19876e-16
-2.3332e-16
-2.76688e-16
-2.63244e-16
-2.22912e-16
-2.31152e-16
-2.43295e-16
-2.23779e-16
-2.49366e-16
-2.28116e-16
-2.23346e-16
-2.75387e-16
-2.99673e-16
-2.61943e-16
-2.6151e-16
-2.50668e-16
-2.76688e-16
-2.40693e-16
-1.98192e-16
-2.44162e-16
-2.46331e-16
-2.48499e-16
-2.5804e-16
-2.6628e-16
-2.44596e-16
-2.27249e-16
-2.84061e-16
-2.30285e-16
-2.31152e-16
-2.5327e-16
-2.73219e-16
-2.22045e-16
-2.71918e-16
-2.51535e-16
-2.41994e-16
-2.37223e-16
-2.25948e-16
-2.81893e-16
-3.20924e-16
-2.88398e-16
-2.79724e-16
-2.55004e-16
-2.68015e-16
-2.55872e-16
-2.81459e-16
-3.1572e-16
-3.02276e-16
-3.15286e-16
-2.24213e-16
-2.55438e-16
-2.7452e-16
-2.4503e-16
-2.59341e-16
-2.90133e-16
-2.97071e-16
-2.85362e-16
-2.71051e-16
-2.98806e-16
-2.58907e-16
-2.7929e-16
-3.04444e-16
-2.64979e-16
-2.81025e-16
-2.67581e-16
-2.97939e-16
-3.21358e-16
-2.67147e-16
-2.94469e-16
-2.80158e-16
-2.71484e-16
-3.08347e-16
-2.62811e-16
-2.25514e-16
-2.63244e-16
-2.498e-16
-2.92735e-16
-2.54571e-16
-2.83627e-16
-3.26562e-16
-3.07046e-16
-2.60642e-16
-2.32453e-16
-2.71918e-16
-2.57606e-16
-2.92301e-16
-3.0748e-16
-2.5327e-16
-2.80592e-16
-2.81893e-16
-2.66714e-16
-2.76688e-16
-3.03577e-16
-2.57173e-16
-2.498e-16
-2.49366e-16
-2.92301e-16
-2.81025e-16
-2.66714e-16
-3.4521e-16
-4.20237e-16
-3.62557e-16
-3.81639e-16
-3.53884e-16
-3.62124e-16
-3.64292e-16
-3.57353e-16
-3.29597e-16
-3.56052e-16
-4.08961e-16
-3.75134e-16
-3.49547e-16
-3.88578e-16
-3.60822e-16
-3.79471e-16
-3.51282e-16
-3.61256e-16
-3.65593e-16
-3.3697e-16
-3.81205e-16
-3.75134e-16
-3.54317e-16
-3.48246e-16
-3.54751e-16
-3.69496e-16
-3.66894e-16
-3.47812e-16
-3.76869e-16
-3.4521e-16
-3.68629e-16
-3.84241e-16
-3.08781e-16
-3.73399e-16
-4.00721e-16
-3.81205e-16
-3.85976e-16
-3.34368e-16
-3.29597e-16
-3.56919e-16
-3.4521e-16
-3.26995e-16
-3.51715e-16
-4.2067e-16
-3.46511e-16
-3.72532e-16
-3.53016e-16
-3.74267e-16
-3.69496e-16
-4.02456e-16
-3.77736e-16
-3.97685e-16
-3.56052e-16
-3.29164e-16
-3.76869e-16
-3.98986e-16
-3.67761e-16
-3.62991e-16
-3.76869e-16
-3.63858e-16
-4.77916e-16
-4.6534e-16
-5.09141e-16
-4.87024e-16
-4.996e-16
-4.96565e-16
-4.90493e-16
-5.36463e-16
-5.10876e-16
-5.26055e-16
-4.49727e-16
-4.92661e-16
-5.02202e-16
-4.56666e-16
-4.9483e-16
-5.0307e-16
-5.12611e-16
-5.03503e-16
-5.10009e-16
-5.1131e-16
-5.12177e-16
-4.80518e-16
-5.10009e-16
-5.06106e-16
-5.29524e-16
-5.15213e-16
-5.00468e-16
-5.04371e-16
-4.82253e-16
-4.84855e-16
-4.82253e-16
-4.8312e-16
-5.26489e-16
-4.82687e-16
-5.15647e-16
-4.9483e-16
-4.81819e-16
-5.17815e-16
-5.15213e-16
-5.03503e-16
-4.97866e-16
-5.1608e-16
-5.04371e-16
-4.9136e-16
-5.08708e-16
-4.74447e-16
-4.93963e-16
-4.96565e-16
-5.24754e-16
-4.41921e-16
-4.76182e-16
-4.69243e-16
-5.08708e-16
-5.26922e-16
-4.996e-16
-4.23706e-16
-4.98733e-16
-4.92661e-16
-4.82687e-16
-4.98733e-16
-6.82614e-16
-6.94757e-16
-6.68302e-16
-6.96925e-16
-7.09502e-16
-6.53123e-16
-6.91721e-16
-6.35342e-16
-6.5269e-16
-6.38378e-16
-6.82614e-16
-6.62664e-16
-6.80445e-16
-7.069e-16
-6.95624e-16
-6.58328e-16
-6.45317e-16
-6.96058e-16
-7.02129e-16
-6.85649e-16
-6.5746e-16
-6.87384e-16
-6.73506e-16
-6.74807e-16
-6.8218e-16
-6.24067e-16
-6.97359e-16
-6.62664e-16
-6.89986e-16
-6.69603e-16
-7.05165e-16
-6.85216e-16
-6.81746e-16
-6.83047e-16
-6.30572e-16
-6.42715e-16
-6.68302e-16
-6.99961e-16
-6.60062e-16
-7.02129e-16
-6.80445e-16
-6.37511e-16
-6.99094e-16
-6.63098e-16
-7.08635e-16
-6.96058e-16
-6.79578e-16
-6.63098e-16
-6.89986e-16
-7.01262e-16
-6.5746e-16
-7.25114e-16
-6.45317e-16
-6.83915e-16
-6.83481e-16
-6.94757e-16
-7.09502e-16
-6.92588e-16
-6.87818e-16
-6.63965e-16
-9.1073e-16
-9.18536e-16
-9.46725e-16
-8.68229e-16
-8.71699e-16
-9.7795e-16
-9.31113e-16
-9.53664e-16
-9.18536e-16
-9.56266e-16
-9.59302e-16
-9.38052e-16
-9.47593e-16
-8.98587e-16
-9.12898e-16
-9.23307e-16
-9.8619e-16
-9.12031e-16
-8.89479e-16
-9.567e-16
-9.00755e-16
-9.43256e-16
-9.21572e-16
-9.4369e-16
-8.93816e-16
-9.3545e-16
-9.22873e-16
-9.72313e-16
-8.93816e-16
-9.94864e-16
-9.35016e-16
-8.91648e-16
-9.55399e-16
-9.56266e-16
-9.29378e-16
-9.36751e-16
-9.44557e-16
-9.28077e-16
-9.32848e-16
-8.86444e-16
-8.89913e-16
-9.04225e-16
-9.20271e-16
-9.32848e-16
-8.95551e-16
-8.89046e-16
-9.08995e-16
-9.16368e-16
-9.33281e-16
-9.1073e-16
-9.54965e-16
-9.1073e-16
-9.78384e-16
-9.25909e-16
-9.38919e-16
-9.38485e-16
-8.79505e-16
-9.08561e-16
-9.55399e-16
-9.41521e-16
-1.30061e-15
-1.32273e-15
-1.26114e-15
-1.26722e-15
-1.30885e-15
-1.23686e-15
-1.22558e-15
-1.22949e-15
-1.32056e-15
-1.25941e-15
-1.25507e-15
-1.27415e-15
-1.22688e-15
-1.30018e-15
-1.28066e-15
-1.27502e-15
-1.23035e-15
-1.31058e-15
-1.26158e-15
-1.21994e-15
-1.33444e-15
-1.19349e-15
-1.27546e-15
-1.26461e-15
-1.28977e-15
-1.27372e-15
-1.27762e-15
-1.24206e-15
-1.28847e-15
-1.16443e-15
-1.19869e-15
-1.27806e-15
-1.17267e-15
-1.21647e-15
-1.30278e-15
-1.27546e-15
-1.2477e-15
-1.26591e-15
-1.25464e-15
-1.30495e-15
-1.31839e-15
-1.32143e-15
-1.25811e-15
-1.24423e-15
-1.29887e-15
-1.29714e-15
-1.25898e-15
-1.27025e-15
-1.20997e-15
-1.31622e-15
-1.21994e-15
-1.2876e-15
-1.21821e-15
-1.28283e-15
-1.2876e-15
-1.27285e-15
-1.31666e-15
-1.32793e-15
-1.23599e-15
-1.24293e-15
-1.67054e-15
-1.68008e-15
-1.7499e-15
-1.72952e-15
-1.68875e-15
-1.71391e-15
-1.75771e-15
-1.72995e-15
-1.75597e-15
-1.72085e-15
-1.73472e-15
-1.73819e-15
-1.78763e-15
-1.7009e-15
-1.67488e-15
-1.70914e-15
-1.74166e-15
-1.7074e-15
-1.77983e-15
-1.76248e-15
-1.66533e-15
-1.78113e-15
-1.71998e-15
-1.73342e-15
-1.68181e-15
-1.76378e-15
-1.72432e-15
-1.75337e-15
-1.71868e-15
-1.76248e-15
-1.77983e-15
-1.76248e-15
-1.81105e-15
-1.76031e-15
-1.71217e-15
-1.67965e-15
-1.71391e-15
-1.77245e-15
-1.73169e-15
-1.77896e-15
-1.71608e-15
-1.70827e-15
-1.7512e-15
-1.76725e-15
-1.70567e-15
-1.71477e-15
-1.72822e-15
-1.72301e-15
-1.76898e-15
-1.68051e-15
-1.77375e-15
-1.6276e-15
-1.78156e-15
-1.68832e-15
-1.72865e-15
-1.74123e-15
-1.71954e-15
-1.63107e-15
-1.73256e-15
-1.79978e-15
-2.42471e-15
-2.41083e-15
-2.40606e-15
-2.44639e-15
-2.38091e-15
-2.44553e-15
-2.31802e-15
-2.40433e-15
-2.3731e-15
-2.45507e-15
-2.41864e-15
-2.42211e-15
-2.35489e-15
-2.36009e-15
-2.42081e-15
-2.37744e-15
-2.38351e-15
-2.42601e-15
-2.38524e-15
-2.39999e-15
-2.4581e-15
-2.40606e-15
-2.39348e-15
-2.45247e-15
-2.42298e-15
-2.36876e-15
-2.3666e-15
-2.37744e-15
-2.35922e-15
-2.40216e-15
-2.32496e-15
-2.35749e-15
-2.34882e-15
-2.38438e-15
-2.4091e-15
-2.47025e-15
-2.4078e-15
-2.36703e-15
-2.4078e-15
-2.39262e-15
-2.39218e-15
-2.39045e-15
-2.40693e-15
-2.34882e-15
-2.47198e-15
-2.40563e-15
-2.4529e-15
-2.42471e-15
-2.44466e-15
-2.41864e-15
-2.40389e-15
-2.51708e-15
-2.36139e-15
-2.45116e-15
-2.34751e-15
-2.37267e-15
-2.43599e-15
-2.4954e-15
-2.34318e-15
-2.36963e-15
-3.42001e-15
-3.35582e-15
-3.37924e-15
-3.31896e-15
-3.40006e-15
-3.31896e-15
-3.50327e-15
-3.35149e-15
-3.38054e-15
-3.34845e-15
-3.37534e-15
-3.407e-15
-3.4096e-15
-3.407e-15
-3.4161e-15
-3.41741e-15
-3.43779e-15
-3.35496e-15
-3.40223e-15
-3.35669e-15
-3.35669e-15
-3.38791e-15
-3.40743e-15
-3.37707e-15
-3.42738e-15
-3.41263e-15
-3.42304e-15
-3.35105e-15
-3.43475e-15
-3.38011e-15
-3.41654e-15
-3.371e-15
-3.41394e-15
-3.40353e-15
-3.37057e-15
-3.31809e-15
-3.39225e-15
-3.33804e-15
-3.32763e-15
-3.3723e-15
-3.35842e-15
-3.38401e-15
-3.44343e-15
-3.40396e-15
-3.3645e-15
-3.40873e-15
-3.39052e-15
-3.34064e-15
-3.31679e-15
-3.46077e-15
-3.37621e-15
-3.33024e-15
-3.38835e-15
-3.33197e-15
-3.37794e-15
-3.40656e-15
-3.34281e-15
-3.34064e-15
-3.40396e-15
-3.43952e-15
-4.61176e-15
-4.63995e-15
-4.68289e-15
-4.69546e-15
-4.71281e-15
-4.70197e-15
-4.6187e-15
-4.69199e-15
-4.65036e-15
-4.69329e-15
-4.70284e-15
-4.64602e-15
-4.63865e-15
-4.67248e-15
-4.59225e-15
-4.67812e-15
-4.6534e-15
-4.69286e-15
-4.63301e-15
-4.69633e-15
-4.66988e-15
-4.71368e-15
-4.64125e-15
-4.68722e-15
-4.67985e-15
-4.68332e-15
-4.65253e-15
-4.72972e-15
-4.65123e-15
-4.60743e-15
-4.65903e-15
-4.71845e-15
-4.70891e-15
-4.62477e-15
-4.70284e-15
-4.7436e-15
-4.67074e-15
-4.72756e-15
-4.75141e-15
-4.67855e-15
-4.78393e-15
-4.74707e-15
-4.64646e-15
-4.6959e-15
-4.66814e-15
-4.64732e-15
-4.67725e-15
-4.68766e-15
-4.70197e-15
-4.60873e-15
-4.73059e-15
-4.69373e-15
-4.70804e-15
-4.68722e-15
-4.68332e-15
-4.62304e-15
-4.68202e-15
-4.65036e-15
-4.66033e-15
-4.69937e-15
-6.32827e-15
-6.3582e-15
-6.28837e-15
-6.26192e-15
-6.31396e-15
-6.2797e-15
-6.31092e-15
-6.32177e-15
-6.31439e-15
-6.23893e-15
-6.32003e-15
-6.27666e-15
-6.35516e-15
-6.25541e-15
-6.36817e-15
-6.24414e-15
-6.25411e-15
-6.28664e-15
-6.28057e-15
-6.26625e-15
-6.30442e-15
-6.2424e-15
-6.29921e-15
-6.30572e-15
-6.26625e-15
-6.245e-15
-6.24631e-15
-6.23546e-15
-6.28404e-15
-6.39983e-15
-6.32263e-15
-6.23893e-15
-6.27233e-15
-6.30138e-15
-6.22983e-15
-6.26539e-15
-6.27146e-15
-6.25845e-15
-6.23763e-15
-6.33694e-15
-6.22289e-15
-6.28013e-15
-6.31916e-15
-6.2784e-15
-6.29184e-15
-6.245e-15
-6.27016e-15
-6.28057e-15
-6.30919e-15
-6.3621e-15
-6.28143e-15
-6.32003e-15
-6.26972e-15
-6.28707e-15
-6.2771e-15
-6.32567e-15
-6.30572e-15
-6.30008e-15
-6.29358e-15
-6.2385e-15
-7.72256e-15
-7.70391e-15
-7.74597e-15
-7.76636e-15
-7.69393e-15
-7.72256e-15
-7.75031e-15
-7.65056e-15
-7.69437e-15
-7.78717e-15
-7.64623e-15
-7.75248e-15
-7.68569e-15
-7.74337e-15
-7.68569e-15
-7.77807e-15
-7.77416e-15
-7.72993e-15
-7.71215e-15
-7.76679e-15
-7.6909e-15
-7.74901e-15
-7.67442e-15
-7.68309e-15
-7.75508e-15
-7.78847e-15
-7.71692e-15
-7.72689e-15
-7.73036e-15
-7.64796e-15
-7.67312e-15
-7.70087e-15
-7.71215e-15
-7.72949e-15
-7.76115e-15
-7.72733e-15
-7.72863e-15
-7.75812e-15
-7.75638e-15
-7.72949e-15
-7.76029e-15
-7.68136e-15
-7.70347e-15
-7.76462e-15
-7.76029e-15
-7.76115e-15
-7.76202e-15
-7.70911e-15
-7.71648e-15
-7.66835e-15
-7.72819e-15
-7.72212e-15
-7.75248e-15
-7.72863e-15
-7.72689e-15
-7.75855e-15
-7.72819e-15
-7.69523e-15
-7.73513e-15
-7.72299e-15
-7.9034e-15
-7.84659e-15
-7.94373e-15
-7.90253e-15
-7.95978e-15
-7.98103e-15
-7.8635e-15
-8.00618e-15
-7.92422e-15
-7.92465e-15
-7.93983e-15
-7.93593e-15
-7.94547e-15
-7.83228e-15
-7.90991e-15
-7.95067e-15
-7.90383e-15
-7.97626e-15
-7.91858e-15
-7.89126e-15
-7.95111e-15
-7.92942e-15
-7.98493e-15
-7.97756e-15
-7.92031e-15
-7.9008e-15
-7.92552e-15
-7.89646e-15
-7.88302e-15
-7.93202e-15
-7.92725e-15
-7.93809e-15
-7.97192e-15
-7.91164e-15
-7.86047e-15
-7.93202e-15
-7.89603e-15
-7.91684e-15
-7.94113e-15
-7.92769e-15
-7.89082e-15
-7.97366e-15
-7.9047e-15
-7.89733e-15
-7.99621e-15
-7.90427e-15
-7.97279e-15
-7.92899e-15
-7.94113e-15
-7.95934e-15
-7.92118e-15
-7.91901e-15
-7.87218e-15
-7.89343e-15
-7.92292e-15
-7.91207e-15
-7.9459e-15
-7.97973e-15
-7.85309e-15
-7.9433e-15
-5.09055e-15
-5.1569e-15
-5.09271e-15
-5.06886e-15
-5.07363e-15
-5.01422e-15
-5.10356e-15
-5.03634e-15
-5.08057e-15
-5.05845e-15
-5.12698e-15
-5.05975e-15
-5.04501e-15
-5.17772e-15
-5.09402e-15
-5.06149e-15
-5.06713e-15
-5.04501e-15
-5.14519e-15
-5.07103e-15
-5.10009e-15
-5.11657e-15
-5.12741e-15
-5.05845e-15
-5.10356e-15
-5.0359e-15
-5.08794e-15
-5.10182e-15
-5.12611e-15
-5.1183e-15
-5.07797e-15
-5.09965e-15
-5.11657e-15
-5.0693e-15
-5.13478e-15
-5.08447e-15
-5.14953e-15
-5.09185e-15
-5.07233e-15
-5.09532e-15
-5.06322e-15
-5.05629e-15
-5.08534e-15
-5.07884e-15
-4.99167e-15
-5.08968e-15
-5.02029e-15
-5.08491e-15
-5.02072e-15
-5.06539e-15
-5.05282e-15
-5.11223e-15
-5.11917e-15
-5.12741e-15
-5.10616e-15
-5.08708e-15
-5.05845e-15
-5.01595e-15
-5.12437e-15
-5.04501e-15
2.31499e-15
2.35749e-15
2.32019e-15
2.292e-15
2.35272e-15
2.30328e-15
2.37787e-15
2.34144e-15
2.27509e-15
2.29027e-15
2.34968e-15
2.31412e-15
2.26642e-15
2.40216e-15
2.32496e-15
2.28506e-15
2.30805e-15
2.29851e-15
2.34188e-15
2.30328e-15
2.33971e-15
2.32453e-15
2.39479e-15
2.26815e-15
2.34188e-15
2.27769e-15
2.2855e-15
2.292e-15
2.31889e-15
2.30328e-15
2.35055e-15
2.37137e-15
2.43425e-15
2.23562e-15
2.36269e-15
2.3293e-15
2.34144e-15
2.38568e-15
2.31802e-15
2.37831e-15
2.37223e-15
2.33927e-15
2.30545e-15
2.27466e-15
2.33927e-15
2.31369e-15
2.25948e-15
2.34144e-15
2.31325e-15
2.2521e-15
2.2829e-15
2.34621e-15
2.34578e-15
2.44119e-15
2.32366e-15
2.34665e-15
2.28637e-15
2.34795e-15
2.37137e-15
2.30415e-15
1.31067e-14
1.30737e-14
1.317e-14
1.30898e-14
1.30477e-14
1.30802e-14
1.30356e-14
1.29957e-14
1.31332e-14
1.30698e-14
1.30482e-14
1.31392e-14
1.3141e-14
1.30117e-14
1.3043e-14
1.31692e-14
1.30685e-14
1.31731e-14
1.30794e-14
1.30573e-14
1.31089e-14
1.30321e-14
1.30885e-14
1.316e-14
1.31097e-14
1.31145e-14
1.31015e-14
1.30924e-14
1.31379e-14
1.31679e-14
1.30733e-14
1.30954e-14
1.30126e-14
1.31986e-14
1.30174e-14
1.31028e-14
1.31254e-14
1.3108e-14
1.32017e-14
1.3092e-14
1.30469e-14
1.30573e-14
1.30829e-14
1.30993e-14
1.30798e-14
1.31462e-14
1.3141e-14
1.3036e-14
1.31583e-14
1.3108e-14
1.31535e-14
1.30768e-14
1.30382e-14
1.3062e-14
1.30933e-14
1.30668e-14
1.30941e-14
1.30976e-14
1.30377e-14
1.3095e-14
1.98912e-14
1.99051e-14
1.9788e-14
1.98973e-14
1.99628e-14
1.99537e-14
1.98869e-14
1.98791e-14
1.99567e-14
1.99706e-14
1.99485e-14
1.98543e-14
1.97837e-14
1.99372e-14
1.9948e-14
1.98223e-14
1.98582e-14
1.98305e-14
1.99758e-14
1.98999e-14
1.98314e-14
1.99294e-14
1.98422e-14
1.98721e-14
1.99112e-14
1.99779e-14
1.9935e-14
1.98808e-14
1.98444e-14
1.99155e-14
1.98491e-14
1.98808e-14
1.9932e-14
1.98895e-14
1.99415e-14
1.98292e-14
1.99233e-14
1.98535e-14
1.97464e-14
1.98214e-14
1.98908e-14
1.99064e-14
1.99133e-14
1.98318e-14
1.99645e-14
1.98231e-14
1.97745e-14
1.99519e-14
1.98522e-14
1.99233e-14
1.98821e-14
1.98851e-14
1.99237e-14
1.98574e-14
1.99081e-14
1.98474e-14
1.9876e-14
1.98496e-14
1.99341e-14
1.99771e-14
1.00926e-14
1.0103e-14
1.02119e-14
1.01369e-14
1.00232e-14
1.00393e-14
1.00822e-14
1.02058e-14
9.95601e-15
9.99678e-15
9.92262e-15
1.01577e-14
1.01763e-14
1.00709e-14
1.0054e-14
1.01685e-14
1.0061e-14
1.00957e-14
1.00102e-14
1.01776e-14
1.01629e-14
1.00922e-14
1.01733e-14
1.01234e-14
1.00683e-14
9.88012e-15
1.01104e-14
1.00978e-14
1.02049e-14
1.01204e-14
1.01212e-14
1.00644e-14
1.00783e-14
1.00111e-14
1.00627e-14
1.02245e-14
1.00102e-14
1.01611e-14
1.01277e-14
1.01421e-14
1.01473e-14
1.00883e-14
1.00263e-14
1.02149e-14
1.00419e-14
1.00688e-14
1.02748e-14
1.01581e-14
1.02297e-14
1.00206e-14
1.0067e-14
9.99938e-15
1.0123e-14
1.00952e-14
1.01538e-14
1.00852e-14
9.98767e-15
1.01603e-14
1.01061e-14
1.00328e-14
-2.43403e-14
-2.4349e-14
-2.44908e-14
-2.44527e-14
-2.42883e-14
-2.43252e-14
-2.43213e-14
-2.44093e-14
-2.4274e-14
-2.43716e-14
-2.42653e-14
-2.44991e-14
-2.45199e-14
-2.4447e-14
-2.4274e-14
-2.4388e-14
-2.4264e-14
-2.42202e-14
-2.43121e-14
-2.44782e-14
-2.43082e-14
-2.45919e-14
-2.44548e-14
-2.43776e-14
-2.44323e-14
-2.41682e-14
-2.44067e-14
-2.44253e-14
-2.45064e-14
-2.43724e-14
-2.44713e-14
-2.4369e-14
-2.44123e-14
-2.43768e-14
-2.42471e-14
-2.45151e-14
-2.41742e-14
-2.4346e-14
-2.43533e-14
-2.44427e-14
-2.44058e-14
-2.44566e-14
-2.43438e-14
-2.43217e-14
-2.43876e-14
-2.42662e-14
-2.45663e-14
-2.44809e-14
-2.44128e-14
-2.42879e-14
-2.43312e-14
-2.42848e-14
-2.45021e-14
-2.44423e-14
-2.44102e-14
-2.42887e-14
-2.42818e-14
-2.44197e-14
-2.43386e-14
-2.44613e-14
-7.20834e-14
-7.21654e-14
-7.19854e-14
-7.2138e-14
-7.20973e-14
-7.21901e-14
-7.22308e-14
-7.20665e-14
-7.22157e-14
-7.19871e-14
-7.2024e-14
-7.20517e-14
-7.2014e-14
-7.20634e-14
-7.20318e-14
-7.20786e-14
-7.22044e-14
-7.2328e-14
-7.21485e-14
-7.19954e-14
-7.21875e-14
-7.19602e-14
-7.21385e-14
-7.20717e-14
-7.21406e-14
-7.23254e-14
-7.21923e-14
-7.21385e-14
-7.20214e-14
-7.21792e-14
-7.19706e-14
-7.20253e-14
-7.21298e-14
-7.21662e-14
-7.2305e-14
-7.21428e-14
-7.22508e-14
-7.22486e-14
-7.20968e-14
-7.20448e-14
-7.20214e-14
-7.19585e-14
-7.21489e-14
-7.23323e-14
-7.21229e-14
-7.21606e-14
-7.2014e-14
-7.21242e-14
-7.21411e-14
-7.2197e-14
-7.21671e-14
-7.22018e-14
-7.19689e-14
-7.19732e-14
-7.20648e-14
-7.21242e-14
-7.21415e-14
-7.20448e-14
-7.22595e-14
-7.20877e-14
-1.01776e-13
-1.01595e-13
-1.0173e-13
-1.01534e-13
-1.01523e-13
-1.01476e-13
-1.01321e-13
-1.01463e-13
-1.01582e-13
-1.01576e-13
-1.01766e-13
-1.01607e-13
-1.01567e-13
-1.01567e-13
-1.01716e-13
-1.01665e-13
-1.01539e-13
-1.01365e-13
-1.01479e-13
-1.01527e-13
-1.01536e-13
-1.01695e-13
-1.01466e-13
-1.01582e-13
-1.01407e-13
-1.01441e-13
-1.01367e-13
-1.01568e-13
-1.01588e-13
-1.01477e-13
-1.01725e-13
-1.01642e-13
-1.01558e-13
-1.01491e-13
-1.01495e-13
-1.0147e-13
-1.0156e-13
-1.01313e-13
-1.01517e-13
-1.01421e-13
-1.01683e-13
-1.0166e-13
-1.01663e-13
-1.01548e-13
-1.01527e-13
-1.01568e-13
-1.01575e-13
-1.01592e-13
-1.01595e-13
-1.01431e-13
-1.01493e-13
-1.01301e-13
-1.01634e-13
-1.01666e-13
-1.01535e-13
-1.01657e-13
-1.01607e-13
-1.01683e-13
-1.0144e-13
-1.01543e-13
-8.5433e-14
-8.55635e-14
-8.5482e-14
-8.54837e-14
-8.58033e-14
-8.56702e-14
-8.58267e-14
-8.5737e-14
-8.5508e-14
-8.54906e-14
-8.55037e-14
-8.56116e-14
-8.5531e-14
-8.55301e-14