/*--------------------------------*- C++ -*----------------------------------*\
| =========                 |                                                 |
| \\      /  F ield         | foam-extend: Open Source CFD                    |
|  \\    /   O peration     | Version:     4.0                                |
|   \\  /    A nd           | Web:         http://www.foam-extend.org         |
|    \\/     M anipulation  |                                                 |
\*---------------------------------------------------------------------------*/
FoamFile
{
    version     2.0;
    format      ascii;
    class       volScalarField;
    location    "24";
    object      dC2;
}
// * * * * * * * * * * * * * * * * * * * * * * * * * * * * * * * * * * * * * //

dimensions      [0 -1 0 0 0 0 0];

internalField   nonuniform List<scalar> 
6960
(
4.35271e-19
4.35273e-19
4.35272e-19
4.35266e-19
4.35271e-19
4.35268e-19
4.35266e-19
4.35266e-19
4.35266e-19
4.35268e-19
4.35267e-19
4.35269e-19
4.35267e-19
4.35269e-19
4.35268e-19
4.35271e-19
4.35266e-19
4.35266e-19
4.35265e-19
4.35267e-19
4.35269e-19
4.35271e-19
4.35273e-19
4.35272e-19
4.35268e-19
4.35276e-19
4.35269e-19
4.35268e-19
4.35268e-19
4.35268e-19
4.35271e-19
4.3527e-19
4.35268e-19
4.35267e-19
4.35268e-19
4.3527e-19
4.3527e-19
4.35263e-19
4.35268e-19
4.35269e-19
4.35263e-19
4.3527e-19
4.3527e-19
4.35273e-19
4.3527e-19
4.35267e-19
4.35269e-19
4.35268e-19
4.35271e-19
4.35267e-19
4.3527e-19
4.35268e-19
4.35265e-19
4.35267e-19
4.35272e-19
4.35262e-19
4.3527e-19
4.35271e-19
4.35267e-19
4.3527e-19
6.03565e-19
6.03561e-19
6.03561e-19
6.03571e-19
6.03578e-19
6.03572e-19
6.03581e-19
6.03573e-19
6.03575e-19
6.03565e-19
6.03565e-19
6.03567e-19
6.03566e-19
6.03568e-19
6.03564e-19
6.03564e-19
6.03573e-19
6.03568e-19
6.03583e-19
6.03562e-19
6.03566e-19
6.03563e-19
6.03558e-19
6.03556e-19
6.03565e-19
6.03559e-19
6.03569e-19
6.03563e-19
6.0357e-19
6.03568e-19
6.03556e-19
6.03567e-19
6.03564e-19
6.0356e-19
6.03563e-19
6.03562e-19
6.0356e-19
6.03573e-19
6.03559e-19
6.03564e-19
6.03579e-19
6.03557e-19
6.03575e-19
6.03567e-19
6.03569e-19
6.03572e-19
6.0357e-19
6.03577e-19
6.03559e-19
6.03577e-19
6.0357e-19
6.03575e-19
6.0356e-19
6.03574e-19
6.03566e-19
6.03575e-19
6.03561e-19
6.03557e-19
6.03575e-19
6.03567e-19
1.11703e-18
1.11702e-18
1.11703e-18
1.117e-18
1.11702e-18
1.11702e-18
1.11702e-18
1.11704e-18
1.11701e-18
1.11704e-18
1.11704e-18
1.11701e-18
1.11703e-18
1.117e-18
1.11704e-18
1.11704e-18
1.11703e-18
1.11702e-18
1.11702e-18
1.11704e-18
1.11703e-18
1.11703e-18
1.11704e-18
1.11704e-18
1.11702e-18
1.11701e-18
1.11702e-18
1.11703e-18
1.11702e-18
1.11704e-18
1.11703e-18
1.11703e-18
1.11705e-18
1.11703e-18
1.11703e-18
1.11702e-18
1.11705e-18
1.11704e-18
1.11705e-18
1.11703e-18
1.11702e-18
1.11706e-18
1.11701e-18
1.11703e-18
1.11703e-18
1.11704e-18
1.11702e-18
1.117e-18
1.11704e-18
1.117e-18
1.11702e-18
1.11701e-18
1.11706e-18
1.11703e-18
1.11702e-18
1.11703e-18
1.11703e-18
1.11704e-18
1.11704e-18
1.11703e-18
1.91485e-18
1.91484e-18
1.91486e-18
1.91494e-18
1.91485e-18
1.91486e-18
1.91483e-18
1.91481e-18
1.91487e-18
1.91481e-18
1.91484e-18
1.91488e-18
1.91485e-18
1.9149e-18
1.91485e-18
1.91483e-18
1.91483e-18
1.91488e-18
1.91484e-18
1.91482e-18
1.91485e-18
1.91487e-18
1.91485e-18
1.91483e-18
1.91488e-18
1.91487e-18
1.91485e-18
1.91487e-18
1.91485e-18
1.91486e-18
1.91485e-18
1.91484e-18
1.91486e-18
1.91488e-18
1.91487e-18
1.91489e-18
1.91483e-18
1.91483e-18
1.91486e-18
1.91484e-18
1.91485e-18
1.91484e-18
1.91484e-18
1.91486e-18
1.91485e-18
1.9148e-18
1.91487e-18
1.91486e-18
1.91483e-18
1.91489e-18
1.91485e-18
1.91486e-18
1.91481e-18
1.91484e-18
1.91486e-18
1.91487e-18
1.91485e-18
1.91484e-18
1.91482e-18
1.91484e-18
3.13534e-18
3.13534e-18
3.1353e-18
3.13523e-18
3.13534e-18
3.13532e-18
3.13532e-18
3.13536e-18
3.13533e-18
3.13536e-18
3.13527e-18
3.1353e-18
3.13536e-18
3.13528e-18
3.13532e-18
3.13538e-18
3.13532e-18
3.13531e-18
3.13535e-18
3.13534e-18
3.13532e-18
3.13525e-18
3.13534e-18
3.13535e-18
3.1353e-18
3.13535e-18
3.13536e-18
3.1353e-18
3.13532e-18
3.13533e-18
3.1353e-18
3.13528e-18
3.13533e-18
3.13526e-18
3.13527e-18
3.13531e-18
3.13532e-18
3.13533e-18
3.13531e-18
3.13534e-18
3.13532e-18
3.13532e-18
3.13535e-18
3.1353e-18
3.13537e-18
3.13538e-18
3.13532e-18
3.13534e-18
3.13535e-18
3.13532e-18
3.13533e-18
3.13529e-18
3.13531e-18
3.13535e-18
3.13525e-18
3.13529e-18
3.13533e-18
3.13527e-18
3.13533e-18
3.13532e-18
4.98876e-18
4.98869e-18
4.98869e-18
4.98879e-18
4.98877e-18
4.98861e-18
4.9888e-18
4.98874e-18
4.98869e-18
4.98875e-18
4.98874e-18
4.98873e-18
4.98867e-18
4.98881e-18
4.98866e-18
4.98868e-18
4.98877e-18
4.98868e-18
4.98866e-18
4.98871e-18
4.98867e-18
4.98874e-18
4.9887e-18
4.9887e-18
4.98868e-18
4.98871e-18
4.98867e-18
4.98871e-18
4.98872e-18
4.98869e-18
4.98871e-18
4.98875e-18
4.98865e-18
4.98868e-18
4.98877e-18
4.98867e-18
4.98871e-18
4.98874e-18
4.98874e-18
4.98867e-18
4.98867e-18
4.98875e-18
4.98875e-18
4.98873e-18
4.98862e-18
4.9886e-18
4.98874e-18
4.98874e-18
4.9887e-18
4.98865e-18
4.98873e-18
4.98876e-18
4.98877e-18
4.98862e-18
4.98878e-18
4.9887e-18
4.98866e-18
4.98879e-18
4.98872e-18
4.98875e-18
7.79584e-18
7.7959e-18
7.79613e-18
7.79591e-18
7.79584e-18
7.7961e-18
7.79583e-18
7.79594e-18
7.79601e-18
7.79596e-18
7.79593e-18
7.79594e-18
7.79603e-18
7.79589e-18
7.79607e-18
7.7959e-18
7.79593e-18
7.79601e-18
7.79592e-18
7.79601e-18
7.79604e-18
7.79596e-18
7.79593e-18
7.79595e-18
7.79601e-18
7.7958e-18
7.79602e-18
7.79592e-18
7.796e-18
7.79595e-18
7.79601e-18
7.79593e-18
7.79604e-18
7.79599e-18
7.7959e-18
7.79606e-18
7.79596e-18
7.79602e-18
7.79596e-18
7.79602e-18
7.79606e-18
7.79595e-18
7.79581e-18
7.79596e-18
7.79605e-18
7.7961e-18
7.79594e-18
7.79595e-18
7.79598e-18
7.79605e-18
7.79587e-18
7.7959e-18
7.796e-18
7.79603e-18
7.79587e-18
7.79599e-18
7.79604e-18
7.79588e-18
7.79594e-18
7.79584e-18
1.20501e-17
1.20501e-17
1.20498e-17
1.205e-17
1.205e-17
1.20501e-17
1.205e-17
1.20501e-17
1.20499e-17
1.205e-17
1.20501e-17
1.20501e-17
1.205e-17
1.20501e-17
1.205e-17
1.20503e-17
1.20498e-17
1.20502e-17
1.20501e-17
1.205e-17
1.205e-17
1.20499e-17
1.205e-17
1.20498e-17
1.20499e-17
1.20501e-17
1.20499e-17
1.20501e-17
1.20499e-17
1.20501e-17
1.205e-17
1.20502e-17
1.205e-17
1.20501e-17
1.20501e-17
1.20499e-17
1.205e-17
1.205e-17
1.205e-17
1.205e-17
1.205e-17
1.205e-17
1.20501e-17
1.20499e-17
1.205e-17
1.205e-17
1.20499e-17
1.205e-17
1.20499e-17
1.205e-17
1.20501e-17
1.20501e-17
1.20498e-17
1.20499e-17
1.20501e-17
1.20499e-17
1.20499e-17
1.205e-17
1.20501e-17
1.205e-17
1.85119e-17
1.85118e-17
1.85121e-17
1.85118e-17
1.8512e-17
1.85116e-17
1.85119e-17
1.85117e-17
1.85118e-17
1.85118e-17
1.85117e-17
1.85119e-17
1.85116e-17
1.85118e-17
1.85118e-17
1.85115e-17
1.85123e-17
1.85116e-17
1.85118e-17
1.85119e-17
1.85121e-17
1.8512e-17
1.85122e-17
1.85122e-17
1.8512e-17
1.85119e-17
1.85119e-17
1.85117e-17
1.85118e-17
1.85119e-17
1.85116e-17
1.85119e-17
1.85119e-17
1.85117e-17
1.8512e-17
1.8512e-17
1.85117e-17
1.85121e-17
1.85121e-17
1.85118e-17
1.85118e-17
1.85121e-17
1.85117e-17
1.85119e-17
1.85118e-17
1.85116e-17
1.85121e-17
1.85119e-17
1.85119e-17
1.85117e-17
1.85121e-17
1.8512e-17
1.85119e-17
1.8512e-17
1.85119e-17
1.8512e-17
1.8512e-17
1.85119e-17
1.85116e-17
1.85119e-17
2.83611e-17
2.83615e-17
2.83609e-17
2.8361e-17
2.83611e-17
2.83615e-17
2.83617e-17
2.83612e-17
2.83613e-17
2.83614e-17
2.83615e-17
2.83608e-17
2.83616e-17
2.83614e-17
2.83614e-17
2.83616e-17
2.83609e-17
2.83614e-17
2.83613e-17
2.83614e-17
2.83607e-17
2.83614e-17
2.83608e-17
2.83613e-17
2.83611e-17
2.83611e-17
2.83614e-17
2.83616e-17
2.83616e-17
2.83612e-17
2.83616e-17
2.83609e-17
2.83613e-17
2.83617e-17
2.8361e-17
2.83613e-17
2.83616e-17
2.83608e-17
2.83609e-17
2.83611e-17
2.83614e-17
2.83608e-17
2.83613e-17
2.83614e-17
2.83613e-17
2.83615e-17
2.83611e-17
2.83613e-17
2.83613e-17
2.83614e-17
2.8361e-17
2.8361e-17
2.83613e-17
2.83609e-17
2.83612e-17
2.83612e-17
2.83611e-17
2.83616e-17
2.83613e-17
2.83618e-17
4.34299e-17
4.34301e-17
4.343e-17
4.34302e-17
4.34298e-17
4.343e-17
4.3429e-17
4.34303e-17
4.34303e-17
4.34299e-17
4.34294e-17
4.34308e-17
4.34295e-17
4.34294e-17
4.34298e-17
4.34297e-17
4.34301e-17
4.34296e-17
4.34295e-17
4.34298e-17
4.34302e-17
4.34298e-17
4.343e-17
4.34294e-17
4.34299e-17
4.34296e-17
4.34298e-17
4.34296e-17
4.34292e-17
4.34298e-17
4.34298e-17
4.343e-17
4.34294e-17
4.34294e-17
4.34298e-17
4.343e-17
4.34292e-17
4.34303e-17
4.34299e-17
4.34303e-17
4.34301e-17
4.34299e-17
4.34302e-17
4.34304e-17
4.34299e-17
4.34299e-17
4.34304e-17
4.34297e-17
4.34298e-17
4.34295e-17
4.34299e-17
4.34296e-17
4.34296e-17
4.34305e-17
4.34302e-17
4.34303e-17
4.34299e-17
4.34297e-17
4.34298e-17
4.34294e-17
6.65607e-17
6.65599e-17
6.6559e-17
6.656e-17
6.65602e-17
6.65603e-17
6.65615e-17
6.65596e-17
6.6559e-17
6.65608e-17
6.65606e-17
6.6559e-17
6.65609e-17
6.65612e-17
6.65602e-17
6.65605e-17
6.65598e-17
6.65616e-17
6.65604e-17
6.65592e-17
6.65598e-17
6.65601e-17
6.65602e-17
6.65604e-17
6.65598e-17
6.6561e-17
6.656e-17
6.65599e-17
6.65606e-17
6.65602e-17
6.65603e-17
6.65604e-17
6.65618e-17
6.65612e-17
6.65601e-17
6.65602e-17
6.65601e-17
6.65604e-17
6.656e-17
6.65599e-17
6.65602e-17
6.65602e-17
6.656e-17
6.6559e-17
6.65592e-17
6.65606e-17
6.65591e-17
6.65609e-17
6.65601e-17
6.65615e-17
6.65597e-17
6.65605e-17
6.6561e-17
6.656e-17
6.65591e-17
6.6559e-17
6.65594e-17
6.65589e-17
6.65605e-17
6.65606e-17
1.02152e-16
1.02152e-16
1.02154e-16
1.02153e-16
1.02152e-16
1.02151e-16
1.02152e-16
1.02152e-16
1.02153e-16
1.02152e-16
1.02152e-16
1.02153e-16
1.02152e-16
1.02151e-16
1.02152e-16
1.02152e-16
1.02152e-16
1.0215e-16
1.02152e-16
1.02153e-16
1.02153e-16
1.02153e-16
1.02152e-16
1.02151e-16
1.02153e-16
1.02151e-16
1.02152e-16
1.02153e-16
1.02152e-16
1.02152e-16
1.02153e-16
1.02152e-16
1.0215e-16
1.02151e-16
1.02153e-16
1.02152e-16
1.02153e-16
1.02152e-16
1.02153e-16
1.02152e-16
1.02152e-16
1.02152e-16
1.02151e-16
1.02152e-16
1.02153e-16
1.02151e-16
1.02154e-16
1.02152e-16
1.02151e-16
1.0215e-16
1.02153e-16
1.02153e-16
1.02153e-16
1.02153e-16
1.02153e-16
1.02153e-16
1.02154e-16
1.02154e-16
1.02152e-16
1.02152e-16
1.56986e-16
1.56984e-16
1.56984e-16
1.56985e-16
1.56986e-16
1.56988e-16
1.56985e-16
1.56988e-16
1.56988e-16
1.56987e-16
1.56985e-16
1.56985e-16
1.56985e-16
1.56987e-16
1.56986e-16
1.56985e-16
1.56987e-16
1.56987e-16
1.56985e-16
1.56989e-16
1.56985e-16
1.56987e-16
1.56986e-16
1.56988e-16
1.56986e-16
1.56986e-16
1.56988e-16
1.56986e-16
1.56988e-16
1.56987e-16
1.56984e-16
1.56987e-16
1.56988e-16
1.56988e-16
1.56986e-16
1.56986e-16
1.56985e-16
1.56985e-16
1.56985e-16
1.56986e-16
1.56986e-16
1.56986e-16
1.56985e-16
1.56987e-16
1.56986e-16
1.56986e-16
1.56986e-16
1.56987e-16
1.56989e-16
1.56987e-16
1.56985e-16
1.56985e-16
1.56985e-16
1.56986e-16
1.56987e-16
1.56987e-16
1.56984e-16
1.56984e-16
1.56986e-16
1.56986e-16
2.4144e-16
2.41444e-16
2.41443e-16
2.41441e-16
2.41441e-16
2.4144e-16
2.41442e-16
2.41438e-16
2.41437e-16
2.41439e-16
2.41441e-16
2.41442e-16
2.41443e-16
2.41438e-16
2.41438e-16
2.41442e-16
2.41435e-16
2.41443e-16
2.41444e-16
2.41434e-16
2.41441e-16
2.4144e-16
2.41441e-16
2.4144e-16
2.41442e-16
2.41442e-16
2.41441e-16
2.41441e-16
2.4144e-16
2.41442e-16
2.4144e-16
2.41439e-16
2.41439e-16
2.41441e-16
2.41442e-16
2.41443e-16
2.41443e-16
2.41442e-16
2.41441e-16
2.41442e-16
2.4144e-16
2.4144e-16
2.4144e-16
2.41441e-16
2.4144e-16
2.4144e-16
2.41438e-16
2.41441e-16
2.41441e-16
2.41437e-16
2.41443e-16
2.41446e-16
2.41439e-16
2.41442e-16
2.41439e-16
2.41439e-16
2.41443e-16
2.41444e-16
2.4144e-16
2.41441e-16
3.71266e-16
3.71253e-16
3.71256e-16
3.71255e-16
3.71261e-16
3.71258e-16
3.71261e-16
3.71267e-16
3.7126e-16
3.7126e-16
3.7126e-16
3.71259e-16
3.71256e-16
3.71255e-16
3.71257e-16
3.71256e-16
3.71271e-16
3.71256e-16
3.71253e-16
3.71263e-16
3.71258e-16
3.71259e-16
3.71259e-16
3.71259e-16
3.71249e-16
3.71256e-16
3.71257e-16
3.71258e-16
3.71257e-16
3.71256e-16
3.71262e-16
3.71258e-16
3.71259e-16
3.71259e-16
3.71257e-16
3.71254e-16
3.7125e-16
3.71262e-16
3.7126e-16
3.71258e-16
3.71259e-16
3.71259e-16
3.71258e-16
3.71256e-16
3.71265e-16
3.71257e-16
3.71262e-16
3.71262e-16
3.71255e-16
3.71266e-16
3.71255e-16
3.71253e-16
3.71266e-16
3.71254e-16
3.7126e-16
3.71261e-16
3.71262e-16
3.71259e-16
3.71262e-16
3.71255e-16
5.70061e-16
5.70072e-16
5.70078e-16
5.7008e-16
5.70072e-16
5.70072e-16
5.70068e-16
5.70063e-16
5.70075e-16
5.70077e-16
5.70069e-16
5.70077e-16
5.70076e-16
5.70083e-16
5.70079e-16
5.70077e-16
5.70063e-16
5.70079e-16
5.70081e-16
5.70076e-16
5.7008e-16
5.70072e-16
5.70078e-16
5.70078e-16
5.70087e-16
5.70072e-16
5.70069e-16
5.70073e-16
5.70074e-16
5.70075e-16
5.70077e-16
5.70074e-16
5.7006e-16
5.7007e-16
5.7008e-16
5.70082e-16
5.70083e-16
5.70073e-16
5.70069e-16
5.70072e-16
5.70076e-16
5.70075e-16
5.70075e-16
5.70076e-16
5.70066e-16
5.70082e-16
5.70074e-16
5.70066e-16
5.70078e-16
5.70067e-16
5.70066e-16
5.70076e-16
5.7007e-16
5.70077e-16
5.70071e-16
5.7008e-16
5.70064e-16
5.70071e-16
5.70071e-16
5.70081e-16
8.72914e-16
8.72917e-16
8.72907e-16
8.72897e-16
8.72898e-16
8.729e-16
8.72909e-16
8.7291e-16
8.72899e-16
8.72905e-16
8.72906e-16
8.72894e-16
8.72905e-16
8.72892e-16
8.72893e-16
8.72899e-16
8.72907e-16
8.72898e-16
8.72904e-16
8.72903e-16
8.72892e-16
8.72898e-16
8.72886e-16
8.7289e-16
8.72901e-16
8.72908e-16
8.72905e-16
8.72901e-16
8.72901e-16
8.72915e-16
8.729e-16
8.72897e-16
8.72915e-16
8.72914e-16
8.72888e-16
8.72891e-16
8.72897e-16
8.72897e-16
8.72909e-16
8.72912e-16
8.72898e-16
8.72911e-16
8.72896e-16
8.7289e-16
8.72914e-16
8.72897e-16
8.72899e-16
8.72895e-16
8.72896e-16
8.72902e-16
8.72918e-16
8.72897e-16
8.72901e-16
8.72903e-16
8.72908e-16
8.72882e-16
8.72911e-16
8.72911e-16
8.72919e-16
8.72901e-16
1.33092e-15
1.33093e-15
1.33093e-15
1.33096e-15
1.33093e-15
1.33095e-15
1.33092e-15
1.33094e-15
1.33093e-15
1.33093e-15
1.33094e-15
1.33094e-15
1.33093e-15
1.33096e-15
1.33093e-15
1.33094e-15
1.33093e-15
1.33095e-15
1.33093e-15
1.33092e-15
1.33093e-15
1.33094e-15
1.33094e-15
1.33095e-15
1.33092e-15
1.33094e-15
1.33095e-15
1.33096e-15
1.33095e-15
1.33093e-15
1.33092e-15
1.33094e-15
1.33092e-15
1.33094e-15
1.33096e-15
1.33095e-15
1.33094e-15
1.33095e-15
1.33092e-15
1.33092e-15
1.33093e-15
1.3309e-15
1.33094e-15
1.33096e-15
1.33093e-15
1.33092e-15
1.33094e-15
1.33096e-15
1.33093e-15
1.33096e-15
1.33092e-15
1.33095e-15
1.33094e-15
1.33095e-15
1.33093e-15
1.33096e-15
1.33094e-15
1.33093e-15
1.33091e-15
1.33093e-15
2.01801e-15
2.01798e-15
2.01802e-15
2.01799e-15
2.01802e-15
2.01799e-15
2.01802e-15
2.018e-15
2.01803e-15
2.01798e-15
2.01799e-15
2.01804e-15
2.01798e-15
2.01796e-15
2.018e-15
2.018e-15
2.01801e-15
2.01796e-15
2.01802e-15
2.01803e-15
2.01804e-15
2.018e-15
2.01801e-15
2.01801e-15
2.01802e-15
2.01802e-15
2.01797e-15
2.01796e-15
2.01801e-15
2.01799e-15
2.01802e-15
2.018e-15
2.018e-15
2.01801e-15
2.01802e-15
2.01797e-15
2.01802e-15
2.01796e-15
2.01803e-15
2.018e-15
2.01798e-15
2.01804e-15
2.01798e-15
2.01798e-15
2.01801e-15
2.01802e-15
2.01801e-15
2.018e-15
2.018e-15
2.01796e-15
2.018e-15
2.01799e-15
2.018e-15
2.01798e-15
2.01801e-15
2.01797e-15
2.018e-15
2.01803e-15
2.01801e-15
2.01801e-15
3.03923e-15
3.03925e-15
3.03916e-15
3.03927e-15
3.03922e-15
3.03919e-15
3.03924e-15
3.03922e-15
3.0392e-15
3.03925e-15
3.03927e-15
3.0392e-15
3.03925e-15
3.03924e-15
3.0393e-15
3.03927e-15
3.0392e-15
3.0393e-15
3.03927e-15
3.03921e-15
3.03921e-15
3.03922e-15
3.03923e-15
3.03924e-15
3.03925e-15
3.03919e-15
3.03926e-15
3.03928e-15
3.03919e-15
3.03924e-15
3.03924e-15
3.03925e-15
3.03925e-15
3.03925e-15
3.03923e-15
3.03929e-15
3.03921e-15
3.03928e-15
3.03923e-15
3.0392e-15
3.03928e-15
3.03926e-15
3.03928e-15
3.03924e-15
3.03924e-15
3.03927e-15
3.03922e-15
3.03922e-15
3.0393e-15
3.03926e-15
3.03926e-15
3.03925e-15
3.03919e-15
3.03935e-15
3.03928e-15
3.03928e-15
3.03926e-15
3.03924e-15
3.03928e-15
3.03925e-15
4.54245e-15
4.54233e-15
4.54245e-15
4.5423e-15
4.54238e-15
4.54235e-15
4.54236e-15
4.54246e-15
4.54239e-15
4.54241e-15
4.54237e-15
4.54237e-15
4.54235e-15
4.54239e-15
4.54228e-15
4.54229e-15
4.54245e-15
4.5423e-15
4.54232e-15
4.54234e-15
4.54235e-15
4.54242e-15
4.54235e-15
4.54237e-15
4.5423e-15
4.54242e-15
4.54234e-15
4.54241e-15
4.54239e-15
4.54243e-15
4.54241e-15
4.54229e-15
4.54239e-15
4.54239e-15
4.54234e-15
4.54237e-15
4.54247e-15
4.54234e-15
4.54236e-15
4.54241e-15
4.54232e-15
4.54235e-15
4.54237e-15
4.54231e-15
4.54233e-15
4.54228e-15
4.54243e-15
4.5424e-15
4.54235e-15
4.54239e-15
4.54229e-15
4.5423e-15
4.54241e-15
4.54226e-15
4.54229e-15
4.5423e-15
4.54225e-15
4.54226e-15
4.54235e-15
4.54238e-15
6.7295e-15
6.72964e-15
6.7295e-15
6.7296e-15
6.7296e-15
6.72968e-15
6.72945e-15
6.7295e-15
6.72952e-15
6.72945e-15
6.72957e-15
6.72949e-15
6.72943e-15
6.72941e-15
6.72964e-15
6.72957e-15
6.72942e-15
6.72959e-15
6.72948e-15
6.72943e-15
6.72965e-15
6.72935e-15
6.72955e-15
6.72942e-15
6.72962e-15
6.7295e-15
6.72945e-15
6.7294e-15
6.72958e-15
6.72942e-15
6.72944e-15
6.7297e-15
6.72926e-15
6.72932e-15
6.7296e-15
6.7295e-15
6.72932e-15
6.7294e-15
6.7293e-15
6.72943e-15
6.72964e-15
6.72948e-15
6.72941e-15
6.72945e-15
6.72965e-15
6.72959e-15
6.72939e-15
6.72942e-15
6.72941e-15
6.72958e-15
6.72953e-15
6.72956e-15
6.72948e-15
6.72955e-15
6.72966e-15
6.72954e-15
6.7296e-15
6.72973e-15
6.72944e-15
6.7294e-15
9.85632e-15
9.85617e-15
9.85644e-15
9.85618e-15
9.856e-15
9.85617e-15
9.85658e-15
9.85611e-15
9.85622e-15
9.85655e-15
9.85631e-15
9.85639e-15
9.85664e-15
9.85636e-15
9.85606e-15
9.85638e-15
9.85623e-15
9.8562e-15
9.85632e-15
9.85654e-15
9.8559e-15
9.85655e-15
9.85627e-15
9.85633e-15
9.85629e-15
9.85648e-15
9.85666e-15
9.85664e-15
9.85642e-15
9.85634e-15
9.85641e-15
9.85645e-15
9.85649e-15
9.8566e-15
9.85608e-15
9.85622e-15
9.85643e-15
9.85626e-15
9.8566e-15
9.85657e-15
9.85626e-15
9.8564e-15
9.85669e-15
9.85656e-15
9.85626e-15
9.85628e-15
9.85647e-15
9.85633e-15
9.8564e-15
9.8562e-15
9.85646e-15
9.85601e-15
9.85648e-15
9.85626e-15
9.85633e-15
9.85646e-15
9.8564e-15
9.8562e-15
9.85671e-15
9.85653e-15
1.41699e-14
1.41701e-14
1.41698e-14
1.417e-14
1.41699e-14
1.41702e-14
1.41692e-14
1.41701e-14
1.41699e-14
1.41695e-14
1.41695e-14
1.41698e-14
1.41693e-14
1.41696e-14
1.41701e-14
1.41696e-14
1.41697e-14
1.41702e-14
1.41696e-14
1.41697e-14
1.41702e-14
1.41698e-14
1.41696e-14
1.41699e-14
1.41696e-14
1.41695e-14
1.41691e-14
1.4169e-14
1.41693e-14
1.41698e-14
1.41695e-14
1.41692e-14
1.41696e-14
1.41692e-14
1.41698e-14
1.41701e-14
1.41694e-14
1.41701e-14
1.41697e-14
1.41694e-14
1.41699e-14
1.41695e-14
1.41692e-14
1.41696e-14
1.41699e-14
1.41701e-14
1.41695e-14
1.41699e-14
1.417e-14
1.41696e-14
1.41694e-14
1.41702e-14
1.41695e-14
1.41697e-14
1.41695e-14
1.41696e-14
1.417e-14
1.41698e-14
1.41692e-14
1.41695e-14
1.96461e-14
1.96458e-14
1.96456e-14
1.96454e-14
1.96455e-14
1.9645e-14
1.96462e-14
1.96453e-14
1.96457e-14
1.96459e-14
1.96456e-14
1.96459e-14
1.96463e-14
1.96456e-14
1.9646e-14
1.96458e-14
1.9646e-14
1.96452e-14
1.9646e-14
1.9646e-14
1.96456e-14
1.96455e-14
1.96457e-14
1.96453e-14
1.96458e-14
1.96459e-14
1.9646e-14
1.9646e-14
1.96463e-14
1.96455e-14
1.9646e-14
1.96463e-14
1.96457e-14
1.96457e-14
1.96458e-14
1.96447e-14
1.96454e-14
1.96451e-14
1.9645e-14
1.96457e-14
1.96458e-14
1.9646e-14
1.96459e-14
1.96458e-14
1.96451e-14
1.96457e-14
1.9646e-14
1.96452e-14
1.96448e-14
1.96462e-14
1.96462e-14
1.96454e-14
1.96457e-14
1.96459e-14
1.96456e-14
1.96459e-14
1.96454e-14
1.96454e-14
1.9646e-14
1.96464e-14
2.52587e-14
2.52587e-14
2.52604e-14
2.52596e-14
2.52591e-14
2.52603e-14
2.52588e-14
2.52594e-14
2.52593e-14
2.52596e-14
2.526e-14
2.52591e-14
2.5259e-14
2.52593e-14
2.5258e-14
2.52598e-14
2.52592e-14
2.52603e-14
2.52588e-14
2.52592e-14
2.52582e-14
2.52602e-14
2.52595e-14
2.52592e-14
2.52602e-14
2.52594e-14
2.52598e-14
2.52592e-14
2.52587e-14
2.52589e-14
2.5259e-14
2.52602e-14
2.52606e-14
2.52594e-14
2.526e-14
2.52601e-14
2.52599e-14
2.52605e-14
2.52602e-14
2.5259e-14
2.52599e-14
2.52596e-14
2.52593e-14
2.52593e-14
2.52598e-14
2.52591e-14
2.52592e-14
2.526e-14
2.52606e-14
2.5259e-14
2.52584e-14
2.52592e-14
2.52598e-14
2.52595e-14
2.52601e-14
2.52586e-14
2.52595e-14
2.5259e-14
2.52602e-14
2.52585e-14
2.75197e-14
2.75211e-14
2.75186e-14
2.75185e-14
2.75198e-14
2.75185e-14
2.75195e-14
2.75205e-14
2.75189e-14
2.75177e-14
2.75199e-14
2.75199e-14
2.75206e-14
2.75196e-14
2.75214e-14
2.75179e-14
2.75175e-14
2.75175e-14
2.75191e-14
2.75187e-14
2.75206e-14
2.75174e-14
2.75201e-14
2.75204e-14
2.75182e-14
2.75183e-14
2.75173e-14
2.75184e-14
2.75206e-14
2.75207e-14
2.75199e-14
2.75183e-14
2.75184e-14
2.75193e-14
2.75177e-14
2.75173e-14
2.75186e-14
2.75169e-14
2.75183e-14
2.75209e-14
2.75182e-14
2.752e-14
2.752e-14
2.75181e-14
2.75184e-14
2.75185e-14
2.75184e-14
2.75186e-14
2.75194e-14
2.75199e-14
2.75203e-14
2.75191e-14
2.7519e-14
2.7519e-14
2.75194e-14
2.75201e-14
2.75193e-14
2.75208e-14
2.75185e-14
2.75199e-14
1.87813e-14
1.87798e-14
1.87812e-14
1.87815e-14
1.8781e-14
1.87808e-14
1.87823e-14
1.87774e-14
1.87812e-14
1.87845e-14
1.87786e-14
1.87805e-14
1.87805e-14
1.87826e-14
1.87794e-14
1.87832e-14
1.87838e-14
1.87807e-14
1.87807e-14
1.87811e-14
1.87792e-14
1.87828e-14
1.87791e-14
1.87789e-14
1.87831e-14
1.8783e-14
1.87824e-14
1.87829e-14
1.87797e-14
1.87778e-14
1.87789e-14
1.87778e-14
1.87791e-14
1.87838e-14
1.8783e-14
1.87825e-14
1.87827e-14
1.87828e-14
1.87815e-14
1.87779e-14
1.8782e-14
1.87779e-14
1.87796e-14
1.87829e-14
1.87797e-14
1.87826e-14
1.87809e-14
1.87803e-14
1.87782e-14
1.87793e-14
1.87804e-14
1.87816e-14
1.87821e-14
1.87815e-14
1.87798e-14
1.87822e-14
1.87825e-14
1.87787e-14
1.87826e-14
1.87806e-14
-1.16098e-14
-1.16084e-14
-1.16073e-14
-1.16092e-14
-1.16066e-14
-1.1605e-14
-1.16088e-14
-1.16028e-14
-1.16072e-14
-1.16097e-14
-1.16062e-14
-1.16072e-14
-1.16068e-14
-1.16096e-14
-1.16068e-14
-1.16082e-14
-1.16084e-14
-1.16042e-14
-1.16074e-14
-1.16073e-14
-1.16042e-14
-1.16099e-14
-1.16047e-14
-1.16043e-14
-1.161e-14
-1.16073e-14
-1.16081e-14
-1.16083e-14
-1.16098e-14
-1.16075e-14
-1.16039e-14
-1.1604e-14
-1.16039e-14
-1.16127e-14
-1.16099e-14
-1.16108e-14
-1.16125e-14
-1.16066e-14
-1.1608e-14
-1.16031e-14
-1.16079e-14
-1.16042e-14
-1.16058e-14
-1.16075e-14
-1.16038e-14
-1.16087e-14
-1.16019e-14
-1.1606e-14
-1.16029e-14
-1.16076e-14
-1.16072e-14
-1.16082e-14
-1.16075e-14
-1.16096e-14
-1.161e-14
-1.16062e-14
-1.16043e-14
-1.16021e-14
-1.16125e-14
-1.16057e-14
-6.70176e-14
-6.70113e-14
-6.7017e-14
-6.7024e-14
-6.70203e-14
-6.70216e-14
-6.7013e-14
-6.70192e-14
-6.70178e-14
-6.70149e-14
-6.7011e-14
-6.70174e-14
-6.70239e-14
-6.70133e-14
-6.70158e-14
-6.70163e-14
-6.70187e-14
-6.70238e-14
-6.70152e-14
-6.70218e-14
-6.70237e-14
-6.70127e-14
-6.70118e-14
-6.70207e-14
-6.70149e-14
-6.70229e-14
-6.70169e-14
-6.70233e-14
-6.70161e-14
-6.70189e-14
-6.70186e-14
-6.70131e-14
-6.70143e-14
-6.70178e-14
-6.70126e-14
-6.70087e-14
-6.70082e-14
-6.70179e-14
-6.70178e-14
-6.70162e-14
-6.7016e-14
-6.70191e-14
-6.70189e-14
-6.70221e-14
-6.70266e-14
-6.70153e-14
-6.7026e-14
-6.70179e-14
-6.70195e-14
-6.70201e-14
-6.70179e-14
-6.70138e-14
-6.70147e-14
-6.70126e-14
-6.7014e-14
-6.70224e-14
-6.70267e-14
-6.70172e-14
-6.7011e-14
-6.70176e-14
-1.21737e-13
-1.2174e-13
-1.21727e-13
-1.21729e-13
-1.21747e-13
-1.21735e-13
-1.2175e-13
-1.21745e-13
-1.21735e-13
-1.21741e-13
-1.21748e-13
-1.21737e-13
-1.21737e-13
-1.21747e-13
-1.21747e-13
-1.21738e-13
-1.21736e-13
-1.21731e-13
-1.21745e-13
-1.21732e-13
-1.21734e-13
-1.21746e-13
-1.21749e-13
-1.21731e-13
-1.2174e-13
-1.21736e-13
-1.21732e-13
-1.21733e-13
-1.21736e-13
-1.21735e-13
-1.21737e-13
-1.2175e-13
-1.21752e-13
-1.21736e-13
-1.21748e-13
-1.2175e-13
-1.21743e-13
-1.21744e-13
-1.2174e-13
-1.21748e-13
-1.21747e-13
-1.21739e-13
-1.21736e-13
-1.21734e-13
-1.21738e-13
-1.21741e-13
-1.21733e-13
-1.21748e-13
-1.21742e-13
-1.21736e-13
-1.21734e-13
-1.21743e-13
-1.21738e-13
-1.21748e-13
-1.21736e-13
-1.21736e-13
-1.21732e-13
-1.21744e-13
-1.21749e-13
-1.21746e-13
-1.08781e-13
-1.08784e-13
-1.08813e-13
-1.08795e-13
-1.08778e-13
-1.08783e-13
-1.08789e-13
-1.08778e-13
-1.08785e-13
-1.08779e-13
-1.08774e-13
-1.08798e-13
-1.08796e-13
-1.08761e-13
-1.08764e-13
-1.08811e-13
-1.08793e-13
-1.08813e-13
-1.08771e-13
-1.08775e-13
-1.08803e-13
-1.08778e-13
-1.08777e-13
-1.08796e-13
-1.08794e-13
-1.08786e-13
-1.08779e-13
-1.08787e-13
-1.08782e-13
-1.08804e-13
-1.08787e-13
-1.08776e-13
-1.08765e-13
-1.08798e-13
-1.0878e-13
-1.08777e-13
-1.08789e-13
-1.08783e-13
-1.08803e-13
-1.08795e-13
-1.08771e-13
-1.08786e-13
-1.08788e-13
-1.08799e-13
-1.0878e-13
-1.08792e-13
-1.08784e-13
-1.08767e-13
-1.08802e-13
-1.08784e-13
-1.08789e-13
-1.08791e-13
-1.08785e-13
-1.08776e-13
-1.08789e-13
-1.08776e-13
-1.08787e-13
-1.08801e-13
-1.08759e-13
-1.08779e-13
3.43316e-14
3.43515e-14
3.43751e-14
3.43458e-14
3.43215e-14
3.43321e-14
3.43447e-14
3.43428e-14
3.43138e-14
3.43062e-14
3.43183e-14
3.43607e-14
3.43589e-14
3.43249e-14
3.43223e-14
3.43675e-14
3.43486e-14
3.4366e-14
3.43027e-14
3.43249e-14
3.43627e-14
3.43268e-14
3.43487e-14
3.43347e-14
3.43314e-14
3.4306e-14
3.43271e-14
3.43316e-14
3.4349e-14
3.43471e-14
3.43519e-14
3.43478e-14
3.43335e-14
3.43245e-14
3.43357e-14
3.43683e-14
3.43337e-14
3.43606e-14
3.43654e-14
3.43674e-14
3.43538e-14
3.43352e-14
3.4321e-14
3.43506e-14
3.43226e-14
3.43577e-14
3.43654e-14
3.43201e-14
3.43554e-14
3.43394e-14
3.43415e-14
3.43421e-14
3.43349e-14
3.43536e-14
3.43465e-14
3.43496e-14
3.4343e-14
3.43506e-14
3.4322e-14
3.43179e-14
2.58617e-13
2.58604e-13
2.5857e-13
2.586e-13
2.58653e-13
2.5862e-13
2.58599e-13
2.58556e-13
2.58653e-13
2.58625e-13
2.58675e-13
2.58597e-13
2.58575e-13
2.58611e-13
2.58643e-13
2.58586e-13
2.58633e-13
2.58616e-13
2.58639e-13
2.58591e-13
2.58593e-13
2.58586e-13
2.58587e-13
2.58615e-13
2.58609e-13
2.58676e-13
2.58598e-13
2.58616e-13
2.58558e-13
2.58614e-13
2.58612e-13
2.58619e-13
2.58607e-13
2.5864e-13
2.58615e-13
2.58561e-13
2.58648e-13
2.5859e-13
2.58613e-13
2.58584e-13
2.58577e-13
2.58623e-13
2.58637e-13
2.58564e-13
2.5862e-13
2.58641e-13
2.58554e-13
2.58587e-13
2.58558e-13
2.58644e-13
2.58624e-13
2.58662e-13
2.58585e-13
2.58611e-13
2.58591e-13
2.58608e-13
2.58639e-13
2.5859e-13
2.58607e-13
2.58637e-13
3.72552e-13
3.72558e-13
3.72655e-13
3.72604e-13
3.72542e-13
3.72551e-13
3.72583e-13
3.72597e-13
3.72517e-13
3.72577e-13
3.72511e-13
3.72625e-13
3.72621e-13
3.72599e-13
3.72544e-13
3.72581e-13
3.72527e-13
3.72524e-13
3.72539e-13
3.72629e-13
3.72568e-13
3.72659e-13
3.7262e-13
3.72595e-13
3.72615e-13
3.72436e-13
3.72612e-13
3.72597e-13
3.72627e-13
3.72556e-13
3.72604e-13
3.72578e-13
3.72603e-13
3.72558e-13
3.72504e-13
3.72681e-13
3.7247e-13
3.72533e-13
3.72571e-13
3.72601e-13
3.72608e-13
3.72605e-13
3.72543e-13
3.72566e-13
3.72575e-13
3.72509e-13
3.72649e-13
3.72603e-13
3.72622e-13
3.72535e-13
3.72574e-13
3.72529e-13
3.72643e-13
3.72603e-13
3.72601e-13
3.72541e-13
3.72527e-13
3.72572e-13
3.72546e-13
3.72598e-13
2.27082e-13
2.27119e-13
2.27012e-13
2.27131e-13
2.27133e-13
2.27172e-13
2.2715e-13
2.27124e-13
2.27165e-13
2.27104e-13
2.27058e-13
2.27026e-13
2.27051e-13
2.27112e-13
2.27107e-13
2.2709e-13
2.27139e-13
2.27184e-13
2.27098e-13
2.27042e-13
2.27159e-13
2.26999e-13
2.27135e-13
2.27089e-13
2.27093e-13
2.27232e-13
2.27138e-13
2.27087e-13
2.27048e-13
2.27167e-13
2.27016e-13
2.27049e-13
2.27119e-13
2.27136e-13
2.27238e-13
2.27094e-13
2.27214e-13
2.27173e-13
2.2714e-13
2.27075e-13
2.27057e-13
2.27072e-13
2.27123e-13
2.27191e-13
2.27116e-13
2.2714e-13
2.27081e-13
2.27127e-13
2.27126e-13
2.27185e-13
2.27123e-13
2.27152e-13
2.2706e-13
2.27e-13
2.27056e-13
2.27119e-13
2.27124e-13
2.27085e-13
2.27197e-13
2.27079e-13
-6.97455e-14
-6.99413e-14
-6.98164e-14
-6.99161e-14
-6.99721e-14
-6.99404e-14
-7.00512e-14
-6.99267e-14
-6.99117e-14
-6.99365e-14
-6.98225e-14
-6.98653e-14
-6.98818e-14
-6.98968e-14
-6.98096e-14
-6.98818e-14
-6.99138e-14
-7.00179e-14
-6.99864e-14
-6.98748e-14
-6.98927e-14
-6.98125e-14
-6.99914e-14
-6.98649e-14
-6.99737e-14
-7.00255e-14
-7.00622e-14
-6.9931e-14
-6.98319e-14
-6.99907e-14
-6.97909e-14
-6.97753e-14
-6.9918e-14
-6.99849e-14
-7.00079e-14
-6.99357e-14
-6.98991e-14
-7.00824e-14
-6.99379e-14
-6.99921e-14
-6.98064e-14
-6.98392e-14
-6.98649e-14
-6.99071e-14
-7.00158e-14
-6.98734e-14
-6.98444e-14
-6.9895e-14
-6.9846e-14
-6.99857e-14
-6.99746e-14
-7.00847e-14
-6.99107e-14
-6.9814e-14
-6.98486e-14
-6.98846e-14
-6.98245e-14
-6.9818e-14
-6.99584e-14
-6.98856e-14
-2.5764e-13
-2.57458e-13
-2.5761e-13
-2.57708e-13
-2.573e-13
-2.57411e-13
-2.5745e-13
-2.57359e-13
-2.57609e-13
-2.57578e-13
-2.57672e-13
-2.57497e-13
-2.57528e-13
-2.57495e-13
-2.57547e-13
-2.57457e-13
-2.57601e-13
-2.57457e-13
-2.57334e-13
-2.57444e-13
-2.57608e-13
-2.57679e-13
-2.57548e-13
-2.57533e-13
-2.57516e-13
-2.57346e-13
-2.57229e-13
-2.574e-13
-2.57665e-13
-2.57367e-13
-2.57499e-13
-2.57594e-13
-2.57578e-13
-2.57357e-13
-2.57516e-13
-2.57527e-13
-2.57694e-13
-2.57376e-13
-2.57531e-13
-2.57415e-13
-2.576e-13
-2.57502e-13
-2.57626e-13
-2.57615e-13
-2.57525e-13
-2.57617e-13
-2.57595e-13
-2.57611e-13
-2.57621e-13
-2.57391e-13
-2.57536e-13
-2.57321e-13
-2.57409e-13
-2.5762e-13
-2.5749e-13
-2.57398e-13
-2.57689e-13
-2.57507e-13
-2.57473e-13
-2.57602e-13
-2.29678e-13
-2.29726e-13
-2.29508e-13
-2.29456e-13
-2.29911e-13
-2.29799e-13
-2.29668e-13
-2.30038e-13
-2.29493e-13
-2.29396e-13
-2.29725e-13
-2.29785e-13
-2.29709e-13
-2.29692e-13
-2.29607e-13
-2.2994e-13
-2.29724e-13
-2.29652e-13
-2.29653e-13
-2.29758e-13
-2.29475e-13
-2.29573e-13
-2.29657e-13
-2.29746e-13
-2.29576e-13
-2.29808e-13
-2.29818e-13
-2.29849e-13
-2.29636e-13
-2.29909e-13
-2.29749e-13
-2.29806e-13
-2.29625e-13
-2.29958e-13
-2.29675e-13
-2.29681e-13
-2.29469e-13
-2.29746e-13
-2.29578e-13
-2.29668e-13
-2.29674e-13
-2.29688e-13
-2.29561e-13
-2.29508e-13
-2.29582e-13
-2.29561e-13
-2.29598e-13
-2.29607e-13
-2.29765e-13
-2.29863e-13
-2.29654e-13
-2.29742e-13
-2.29734e-13
-2.29595e-13
-2.2966e-13
-2.29863e-13
-2.29583e-13
-2.29888e-13
-2.29708e-13
-2.29363e-13
-1.01955e-13
-1.01881e-13
-1.02029e-13
-1.02105e-13
-1.01701e-13
-1.0187e-13
-1.02128e-13
-1.01571e-13
-1.01856e-13
-1.02117e-13
-1.01703e-13
-1.01641e-13
-1.01934e-13
-1.01859e-13
-1.01824e-13
-1.01636e-13
-1.01935e-13
-1.01995e-13
-1.01952e-13
-1.01938e-13