/*--------------------------------*- C++ -*----------------------------------*\
| =========                 |                                                 |
| \\      /  F ield         | foam-extend: Open Source CFD                    |
|  \\    /   O peration     | Version:     4.0                                |
|   \\  /    A nd           | Web:         http://www.foam-extend.org         |
|    \\/     M anipulation  |                                                 |
\*---------------------------------------------------------------------------*/
FoamFile
{
    version     2.0;
    format      ascii;
    class       volScalarField;
    location    "24";
    object      dPhi;
}
// * * * * * * * * * * * * * * * * * * * * * * * * * * * * * * * * * * * * * //

dimensions      [0 -1 0 0 0 0 0];

internalField   nonuniform List<scalar> 
6960
(
-1.01597e-15
4.27259e-16
7.60391e-16
-2.38615e-16
4.2687e-16
7.60585e-16
-2.38615e-16
-4.61308e-16
-1.79293e-15
-4.6066e-16
-1.12744e-15
8.71608e-16
7.60585e-16
-1.57153e-15
-4.6066e-16
-4.6066e-16
-1.28241e-16
-1.12679e-15
-4.6066e-16
-7.94375e-16
-4.6066e-16
-5.71682e-16
-6.83353e-16
-1.57088e-15
-1.65707e-17
-1.01642e-15
-2.38615e-16
-1.68191e-15
-5.72331e-16
-6.82705e-16
5.40486e-16
9.78092e-16
3.18441e-16
9.63966e-17
4.2298e-16
3.18441e-16
-1.01383e-15
5.34002e-16
4.29463e-16
5.40486e-16
-4.65198e-16
5.40486e-16
-9.02804e-16
1.08911e-15
5.40486e-16
-9.02804e-16
-2.43154e-16
-1.46257e-17
9.63966e-17
-3.54176e-16
-1.45792e-15
2.07419e-16
-1.32131e-16
-3.47693e-16
-2.3667e-16
-2.11091e-17
-5.69737e-16
2.07419e-16
1.64423e-15
-1.46258e-17
1.43355e-15
-2.31922e-16
-5.09339e-16
4.61912e-17
-1.07139e-17
-1.11954e-15
-7.30965e-16
4.88886e-16
-1.28608e-15
-7.86476e-16
7.10931e-16
-9.31993e-18
-1.61914e-15
7.10931e-16
1.21193e-15
-1.56363e-15
-6.21337e-16
-1.95221e-15
1.6005e-15
-4.54803e-16
-2.00772e-15
1.04539e-15
2.15422e-15
1.26744e-15
9.3437e-16
3.22353e-16
-2.86876e-16
3.0993e-15
1.044e-15
-3.28448e-15
1.71571e-15
-1.96197e-15
2.72418e-16
1.61395e-16
-2.07299e-15
-1.71672e-16
-1.71671e-16
-2.96633e-16
1.71571e-15
-5.04738e-16
3.13989e-16
5.03731e-17
1.1606e-15
-2.73912e-15
-2.66967e-15
1.27162e-15
-1.18481e-15
4.38951e-16
4.38951e-16
-1.73992e-15
-5.6025e-16
-2.27183e-16
-1.68441e-15
3.27929e-16
-2.17007e-15
7.58078e-16
-5.6025e-16
6.60996e-16
-2.40606e-15
6.60996e-16
-4.04207e-16
1.09433e-15
1.26113e-15
3.87094e-15
1.64787e-15
7.62315e-16
3.92645e-15
-1.34973e-15
3.73737e-16
3.87094e-15
1.92542e-15
8.17826e-16
4.84759e-16
-1.6828e-15
6.51293e-16
1.15089e-15
-1.01667e-15
-7.91997e-16
-2.2908e-15
-1.01667e-15
-5.14442e-16
2.37214e-15
-2.34893e-15
-1.45813e-15
-2.17978e-15
-5.17067e-16
4.29248e-16
-1.84671e-15
8.15201e-16
4.84759e-16
3.76779e-15
4.66381e-16
-8.95143e-16
-1.73498e-16
1.90967e-15
4.85467e-17
8.81214e-16
-2.19815e-15
-1.1727e-15
2.3245e-15
7.99447e-16
-2.8452e-16
6.59169e-16
1.18803e-15
8.25703e-16
1.21428e-15
1.90967e-15
-1.33923e-15
-2.72701e-15
1.33314e-16
-5.06565e-16
-3.1711e-15
6.32914e-16
-4.51054e-16
9.36725e-16
-1.58753e-15
-2.28292e-15
-1.72781e-15
-7.54865e-16
-1.78332e-15
-1.32779e-16
2.25374e-15
5.056e-16
2.94947e-15
1.47382e-15
3.0605e-15
-1.86906e-16
2.19546e-15
2.94947e-15
-3.60084e-15
2.50077e-15
3.39356e-15
-4.04493e-15
1.97342e-15
-2.35184e-15
-4.07269e-15
-1.91519e-16
-2.04653e-15
-9.36306e-16
-1.0797e-15
-1.07508e-15
-9.08551e-16
5.02371e-16
-5.47728e-16
7.29028e-16
4.02733e-15
-9.91817e-16
2.47763e-15
1.44606e-15
2.29428e-16
1.38125e-15
-1.05187e-15
-2.61556e-15
7.98379e-16
1.41625e-16
-1.14451e-15
1.52002e-15
-1.2184e-15
-8.94711e-16
-3.39599e-16
-2.93924e-15
-3.22618e-15
-1.5886e-15
2.24891e-16
-1.22778e-15
-1.53309e-15
-1.13513e-15
1.1592e-15
1.35349e-15
-7.57443e-15
1.57554e-15
1.74207e-15
-4.68998e-16
4.89783e-17
1.43676e-15
9.18781e-16
-9.50222e-16
-1.45311e-16
-1.30167e-15
-1.00573e-15
2.521e-16
-7.4788e-16
5.91424e-15
-1.75784e-15
4.45161e-15
-4.51952e-15
-9.23766e-18
2.09239e-15
-9.23761e-18
3.07163e-15
-1.97447e-16
-6.47489e-17
-3.35378e-15
-2.40402e-15
4.63989e-18
1.72549e-15
2.34219e-15
1.32303e-15
8.09552e-16
-9.05215e-16
2.64142e-15
8.51185e-16
3.86874e-15
-3.46481e-15
-1.48015e-16
-1.76564e-15
3.4047e-15
7.54041e-16
-2.90362e-15
2.4055e-15
3.30319e-15
1.82355e-15
-3.21937e-15
-6.51976e-16
1.4434e-16
5.55391e-16
-4.3851e-15
1.40722e-15
-4.32959e-15
1.56847e-15
1.01864e-15
-2.49521e-16
4.14974e-15
6.23669e-15
9.43969e-16
6.38658e-16
-1.33216e-16
-9.29532e-16
-2.96957e-15
2.61459e-15
-5.30104e-15
3.19469e-16
4.33543e-15
-4.02428e-15
-1.97037e-15
-2.21488e-15
-4.28796e-15
-1.10994e-15
4.90442e-15
6.1759e-15
3.03611e-15
-7.53818e-16
-9.60694e-16
-1.49806e-15
-6.70125e-15
-2.02541e-15
-4.30137e-15
-5.9241e-15
2.33221e-15
-1.67847e-15
2.3887e-15
-3.56585e-15
2.35997e-15
5.6361e-15
-6.57733e-15
8.33413e-16
-1.45545e-15
-1.19274e-15
-1.845e-15
-9.5426e-17
-4.0888e-17
-2.28909e-15
-3.45226e-16
3.33141e-15
2.06854e-15
3.31851e-15
4.26123e-15
-2.53889e-15
4.04175e-16
4.45552e-15
-5.90023e-15
-2.82351e-15
-3.02753e-15
-1.9867e-15
5.07158e-16
-1.25117e-15
-9.93183e-17
2.38066e-15
6.06242e-15
2.28766e-15
1.40921e-15
-2.38097e-16
-2.3614e-15
-4.19741e-15
2.32929e-15
1.92684e-15
6.0444e-15
3.03138e-16
-7.51574e-16
-1.32471e-15
6.0763e-15
-1.68139e-15
-4.5166e-15
3.66156e-15
-2.58344e-15
4.23891e-16
-4.46263e-16
-7.1563e-17
1.1858e-16
-2.66671e-15
1.74099e-15
1.85684e-15
-2.17255e-15
3.88451e-15
1.99649e-16
-1.87477e-15
3.94696e-15
6.35445e-15
-2.6103e-15
1.89998e-15
-2.83265e-15
2.21917e-15
-4.33114e-15
3.48868e-15
5.61923e-15
-1.29885e-15
7.617e-16
1.23385e-15
-3.51929e-15
1.62212e-15
5.35555e-15
1.03585e-14
4.60585e-15
1.57386e-15
-2.52703e-15
5.95166e-16
-1.77069e-15
-2.17315e-15
-2.03467e-15
1.31712e-15
9.7109e-16
-1.46752e-15
-1.49916e-15
-2.99102e-15
-1.1067e-15
3.35113e-15
4.6487e-15
-2.00876e-15
-6.55761e-15
2.89316e-15
3.85163e-16
-2.60938e-15
-2.15461e-16
7.11291e-16
-5.64862e-15
-1.04813e-15
-6.34854e-16
4.0242e-15
9.15579e-16
-2.41815e-15
-4.98942e-15
-4.14288e-15
-1.14438e-16
-2.57095e-16
-3.40362e-16
3.16072e-15
-1.24936e-15
-7.22e-16
-3.68797e-15
5.03728e-15
6.84003e-16
-4.62769e-15
-2.38868e-16
-5.89362e-16
-2.03238e-15
4.8993e-15
-1.60938e-15
1.46431e-16
1.94734e-16
-3.21226e-15
3.56731e-15
-2.96246e-15
3.1854e-15
-1.58883e-16
-1.33876e-15
1.16618e-15
1.28441e-15
1.30496e-15
3.87235e-15
-1.51197e-15
-6.16823e-15
-5.89068e-15
6.52969e-16
-3.11806e-16
4.38583e-15
-3.01771e-15
-2.08816e-15
1.78374e-15
-1.54666e-15
3.40744e-15
-5.23229e-15
2.3338e-15
-2.72735e-15
-6.17925e-16
5.71316e-16
-1.90162e-15
3.22622e-15
1.91052e-15
5.55075e-15
2.00498e-15
3.42332e-16
4.80829e-15
-2.86613e-15
4.74171e-16
-2.15142e-15
6.54301e-15
7.30911e-16
-1.99876e-15
-4.46901e-15
5.22731e-15
2.94867e-15
2.92785e-15
2.40318e-15
1.63721e-15
-2.01958e-15
-3.68917e-15
3.19153e-15
5.06503e-15
-4.47326e-15
-2.24163e-15
-7.70829e-17
-3.61806e-15
-2.15181e-15
-5.84382e-15
1.61143e-15
-5.35563e-16
2.3649e-15
-5.04296e-15
-7.66181e-15
-2.06212e-15
-1.53882e-15
-4.15766e-15
-1.53476e-15
-2.85375e-15
-3.41174e-15
-9.06693e-15
2.13185e-15
-1.03819e-14
-3.03356e-15
7.57194e-15
6.23333e-15
-2.55543e-17
3.63065e-15
1.27896e-15
-4.79951e-15
3.37738e-15
-1.0421e-15
5.82393e-15
2.35043e-15
-3.9946e-15
-8.73794e-16
1.98605e-15
-8.28691e-16
-1.39074e-15
-2.60403e-15
2.45687e-15
-4.52365e-15
3.34954e-15
-2.0766e-16
-9.81346e-16
-4.81754e-15
-2.8375e-15
-1.94238e-15
-2.21545e-15
1.4384e-17
-1.74463e-15
2.15605e-15
-2.11129e-16
-4.05528e-15
-5.66408e-15
-6.27463e-16
7.18573e-15
3.90104e-16
6.38776e-15
1.27032e-15
-3.82874e-15
-3.8818e-15
-3.73956e-15
9.63618e-15
4.29568e-15
8.21492e-18
-4.72797e-16
2.49581e-15
3.94579e-15
5.00597e-15
-3.25678e-15
1.11819e-15
5.85252e-15
1.17763e-14
-5.01232e-15
2.51491e-15
6.45767e-15
1.88494e-15
9.9985e-15
-5.88662e-15
6.61727e-15
-6.3183e-15
6.42877e-16
-2.85779e-15
-8.19234e-16
-4.72089e-15
6.46346e-16
-4.65348e-16
-4.18659e-15
-6.37347e-16
1.27978e-15
1.74963e-15
-4.39129e-15
-3.52887e-15
1.50217e-16
3.05509e-15
-5.8657e-15
4.84879e-15
3.33958e-15
-4.14833e-15
-2.69379e-15
4.44981e-15
-8.81126e-15
1.35159e-15
-1.85376e-16
-1.02583e-15
-1.85071e-15
-4.68872e-15
1.24666e-15
-1.37193e-15
-3.70687e-15
-9.68209e-15
3.96755e-15
-3.51951e-15
3.12017e-15
-1.7501e-15
-5.73302e-15
2.84261e-15
-1.02152e-15
1.66384e-15
5.72919e-15
2.17385e-15
7.79131e-16
-6.27857e-15
4.87308e-15
-1.50313e-15
1.54187e-15
-9.34139e-16
-3.68574e-16
-6.70855e-15
-2.83535e-15
-1.81533e-15
-8.42939e-15
-6.88072e-15
3.49604e-16
4.7668e-16
-3.45985e-15
-9.98241e-15
-3.85667e-15
5.93888e-15
-1.0694e-15
5.5386e-15
5.89725e-15
1.18227e-15
-2.67358e-15
2.59433e-15
2.008e-15
4.30001e-15
9.43956e-15
4.67601e-15
5.66885e-16
-7.43277e-16
-2.38432e-15
4.05715e-15
5.59888e-15
-7.65747e-15
7.6576e-15
-4.95477e-15
-2.67188e-15
5.62103e-15
7.71912e-15
5.65118e-16
6.79718e-15
-7.1995e-15
1.3388e-15
-4.57441e-16
3.74313e-15
4.97825e-15
4.12223e-15
-6.38072e-15
-3.58088e-15
1.01209e-14
-9.28117e-15
2.20617e-15
7.07474e-15
3.98585e-16
5.60969e-15
-5.06833e-15
3.77763e-16
-4.44129e-15
-5.75397e-16
-2.12023e-15
4.92275e-15
5.73553e-15
3.98599e-15
-2.38082e-15
6.56286e-15
6.7924e-16
-1.17872e-15
9.349e-15
9.68064e-15
-1.54648e-15
4.64097e-15
-4.3602e-15
9.96861e-15
-3.12713e-15
2.67237e-15
1.46003e-14
-1.77058e-15
8.83614e-19
5.10445e-15
-6.64168e-15
-3.14831e-16
6.71427e-15
-4.92431e-15
-3.42346e-15
2.18664e-15
-5.18104e-15
-7.06984e-15
-5.24838e-15
4.0581e-15
-1.772e-15
3.36278e-15
-2.80794e-15
-1.56036e-15
4.5805e-16
1.96413e-15
-6.78615e-15
-1.85607e-15
-1.10983e-14
6.28053e-16
-3.00446e-15
5.15255e-15
5.66916e-15
-6.92146e-15
4.10477e-15
-8.94069e-15
2.91511e-16
-5.32518e-15
8.57036e-16
4.98567e-15
-6.0607e-15
9.92271e-15
2.54667e-15
2.91476e-15
-9.23211e-15
-5.69674e-15
-3.48638e-15
-2.94895e-15
-1.00258e-15
-4.07617e-15
-3.12159e-16
-4.79121e-15
-6.58459e-15
1.63766e-15
1.42778e-15
-1.19474e-15
5.60427e-16
9.37466e-16
-1.06258e-14
-7.07349e-15
6.14814e-16
-4.81799e-15
4.8857e-15
-6.26857e-15
-1.94182e-15
6.17633e-15
-4.10711e-15
-7.58663e-15
-1.1726e-16
4.61855e-15
-1.79264e-15
1.88115e-15
3.02553e-16
6.60245e-16
2.69993e-15
4.80936e-15
2.28396e-15
1.01107e-14
1.03461e-15
1.74537e-16
3.30708e-15
4.15711e-15
-2.10572e-16
2.48137e-15
-7.25479e-16
-1.37769e-15
4.92306e-16
-2.97367e-15
-1.88423e-15
6.65771e-16
-2.29347e-16
-9.65232e-15
-8.92378e-15
5.01993e-15
-3.55304e-15
3.77785e-15
-6.26272e-15
-3.61148e-16
2.15069e-15
-1.79754e-15
-5.70755e-15
-5.11084e-15
-2.95251e-16
-6.5298e-15
9.23531e-15
-2.50182e-15
2.32768e-15
-2.92511e-15
2.20275e-15
6.44939e-15
-7.70565e-16
-5.55461e-16
8.01758e-15
3.87848e-15
-3.4062e-15
-1.1101e-14
3.6819e-15
4.49942e-15
6.49867e-15
-1.53743e-15
-7.1371e-15
-5.19336e-15
-4.25746e-15
1.70652e-15
-6.97319e-15
-9.55532e-15
3.24347e-15
5.50984e-15
-3.3034e-15
3.15327e-15
-9.53705e-16
-2.0405e-15
9.88327e-16
1.77431e-14
-5.65915e-15
-4.43789e-15
3.82718e-15
4.08938e-16
3.20879e-15
-2.05006e-15
7.6774e-15
3.91654e-15
7.48745e-15
3.58694e-15
-8.39217e-15
-5.59426e-15
4.7744e-15
-1.83837e-15
4.03692e-15
-6.75806e-15
-3.30595e-15
1.2338e-16
3.98682e-15
-2.05001e-15
-3.4467e-15
-7.01482e-15
5.88806e-15
7.70064e-15
-4.94354e-15
1.13492e-15
8.27661e-15
7.57079e-15
8.19241e-16
2.00385e-15
-1.33361e-14
7.91483e-16
-1.11521e-15
6.17951e-15
5.43707e-15
-1.9999e-15
3.99447e-16
8.1259e-15
-5.14986e-16
-6.3764e-15
4.01308e-15
1.28413e-14
1.86553e-15
-9.58246e-15
5.93836e-15
-2.28276e-15
1.03406e-15
6.90287e-15
6.2868e-15
-3.4797e-15
4.05444e-15
-4.5783e-16
1.00372e-14
1.11112e-14
7.87921e-15
-7.02549e-15
-3.44822e-16
3.97265e-15
-3.70872e-15
-1.16275e-14
1.57028e-14
9.54458e-15
2.78459e-15
-3.79543e-15
1.85631e-15
1.57603e-14
-1.06476e-14
5.25287e-15
-9.05316e-15
-7.1458e-16
-9.90766e-15
-6.29011e-15
-8.4019e-15
2.4742e-16
-9.09344e-15
1.69632e-14
1.32613e-14
-3.89968e-15
3.66828e-15
5.89914e-15
-8.21917e-15
5.80435e-16
-3.73208e-15
-1.86275e-14
-2.66077e-16
-8.05153e-15
-5.0723e-15
-1.56773e-14
-7.39227e-15
-7.43846e-15
1.85418e-14
1.40801e-14
6.06805e-15
-1.37281e-15
3.40118e-15
5.79053e-15
9.90988e-15
4.12631e-15
1.198e-14
1.09333e-14
1.28706e-14
-1.31108e-14
-5.83661e-15
1.81162e-14
2.18434e-17
3.01713e-15
-3.15149e-15
-7.65705e-16
-6.60013e-15
5.42616e-17
-5.79644e-15
-5.80914e-15
-2.26186e-14
-1.37832e-14
-6.00004e-15
-6.34344e-15
-3.27417e-15
-8.82757e-15
6.76758e-15
4.09832e-15
-9.11213e-15
-9.29942e-15
-9.44636e-15
2.74305e-15
-5.79177e-15
-1.50564e-14
3.05867e-15
-9.93435e-15
2.34283e-15
-9.97044e-16
-6.97838e-15
4.896e-15
4.68247e-15
-1.20819e-14
-9.16569e-15
-6.23592e-15
-8.54657e-15
8.43662e-16
-9.43129e-15
-4.88977e-15
1.48636e-14
-3.60962e-15
6.99433e-16
6.93946e-15
-8.49455e-15
-5.82656e-15
2.20725e-15
1.66591e-14
-7.97749e-15
9.29879e-15
-8.01567e-15
4.53276e-16
-6.00154e-15
-2.16622e-15
-6.25741e-16
-4.75594e-15
2.31639e-15
2.6772e-15
-1.80347e-15
-4.84461e-15
-2.04075e-14
1.23663e-15
9.2737e-15
-1.8128e-15
7.10375e-15
-3.10005e-15
-8.59207e-15
-1.00431e-15
-8.26597e-15
-7.40555e-15
1.68043e-14
1.23217e-14
1.71823e-14
1.72482e-14
7.98123e-15
1.39636e-15
-7.39513e-15
6.64216e-15
-6.61812e-15
-5.63977e-15
1.46044e-14
6.80522e-15
-4.07497e-15
1.20545e-14
1.49793e-14
6.60747e-15
-1.33455e-14
-7.24611e-15
3.14494e-15
4.61595e-15
4.0986e-15
-5.87544e-15
-9.44259e-15
1.14261e-14
1.76231e-14
5.84024e-15
6.3884e-15
6.57291e-15
1.02187e-14
1.13222e-15
-2.50824e-14
5.20175e-15
4.55539e-16
-3.17975e-15
2.67958e-15
1.38685e-14
-2.18381e-15
-1.57673e-14
1.06803e-14
-5.74694e-15
-5.94532e-15
3.90795e-15
-6.36545e-16
-1.22694e-15
1.59226e-14
4.01956e-15
6.43262e-16
-4.54705e-15
-1.10761e-14
5.28642e-16
1.04638e-14
7.19433e-15
-1.47784e-15
-1.19723e-14
-4.73039e-15
-5.00585e-15
4.36186e-15
7.77701e-15
1.3084e-14
1.12417e-14
-2.42531e-14
-6.70585e-15
-4.6381e-15
-1.22977e-14
-5.42592e-15
5.15963e-15
1.2641e-14
1.15936e-15
5.68687e-15
6.56571e-15
-6.27935e-15
-2.19562e-15
9.14365e-15
-3.83664e-15
1.08305e-15
2.91597e-15
7.39711e-15
2.18059e-14
7.7181e-16
1.12345e-14
-3.19196e-15
-2.03151e-15
1.91375e-14
-4.89892e-15
-1.04207e-14
-1.308e-14
-9.25317e-15
7.97779e-15
-6.51926e-15
-4.71976e-16
2.03566e-14
5.27322e-15
-7.81702e-15
-1.18224e-14
1.02382e-14
-5.99194e-15
7.75604e-15
9.91244e-15
1.35673e-15
-1.92372e-15
4.32305e-15
-5.49539e-15
-6.69091e-15
1.81002e-14
-3.41376e-15
-5.91355e-15
-2.00896e-16
-1.61647e-15
5.10531e-15
-8.3578e-15
-4.50212e-15
1.12116e-14
-9.37635e-15
1.43848e-14
9.21405e-16
5.25292e-15
-6.03135e-16
-1.06352e-14
-1.21184e-14
-9.13114e-15
1.68287e-14
1.6135e-15
-4.3332e-15
6.15601e-15
2.63336e-16
-5.37402e-15
-4.31768e-15
-5.02894e-16
-2.53272e-15
-1.12631e-15
9.98484e-15
9.69722e-15
-2.27451e-15
3.54592e-15
-8.61444e-15
4.61577e-15
1.9737e-15
-6.51579e-15
8.64373e-15
-1.14597e-14
1.51427e-15
1.45852e-14
-1.43237e-14
-1.58045e-15
8.51007e-15
7.79033e-15
7.69314e-15
-1.26605e-14
-1.92415e-15
-9.61931e-15
-7.53296e-15
-1.54032e-14
-4.66188e-15
1.13202e-14
-8.64782e-15
-1.94979e-17
-1.84221e-15
5.11948e-15
-9.10184e-15
1.21362e-14
1.25787e-15
1.5004e-14
4.56559e-15
-1.58501e-14
4.93214e-15
2.02027e-14
2.45176e-15
2.66335e-15
5.92586e-15
-5.41043e-15
6.13799e-15
-1.21561e-14
1.34141e-14
1.59363e-15
9.33518e-16
-4.4509e-17
3.10977e-15
9.94385e-15
4.52512e-15
1.17715e-15
-1.90126e-14
1.21835e-15
-1.62623e-16
-1.55928e-14
-1.83929e-15
1.35244e-14
6.62996e-15
1.0483e-15
2.5675e-15
6.72609e-15
7.66723e-15
5.30166e-15
4.8148e-15
4.18108e-15
8.1016e-15
-1.32969e-15
2.40377e-15
-3.38979e-15
-1.19707e-14
-5.70732e-15
-1.18608e-14
-6.60217e-15
6.53079e-15
-1.612e-15
-5.51662e-16
-2.95503e-15
1.517e-15
5.88414e-15
5.31947e-15
-3.49478e-16
6.86199e-15
1.16785e-14
4.04907e-15
-1.06133e-14
-2.89934e-15
-9.06149e-15
8.36929e-15
-5.08756e-15
7.76658e-15
-1.0789e-14
-8.51912e-15
-1.08919e-14
7.59174e-15
9.93126e-15
6.30015e-16
-2.41774e-14
3.989e-15
-1.40264e-15
-9.84533e-15
6.21217e-15
2.86992e-17
-2.4595e-15
-1.50657e-14
7.22886e-15
8.2489e-15
-1.54762e-14
-4.01917e-15
-1.56138e-14
-1.54443e-14
-4.00215e-15
3.33213e-15
-8.49918e-15
2.66856e-15
1.05917e-14
2.85773e-15
-8.96092e-15
-1.08548e-14
6.47814e-15
9.77689e-15
-7.33853e-15
-8.55625e-15
2.91119e-15
1.42234e-16
3.10908e-15
1.39876e-15
-1.50923e-14
7.23939e-15
-4.28545e-15
-2.22439e-15
2.67447e-15
1.48466e-14
8.62406e-15
2.69639e-15
4.89963e-15
-2.02249e-14
-6.4255e-15
-4.5936e-15
-2.965e-16
-3.1504e-15
7.15056e-15
6.57552e-15
-3.44622e-15
6.66006e-15
1.54212e-15
6.05121e-15
1.04879e-14
8.35484e-15
-5.49404e-16
2.2396e-15
4.59747e-15
-5.22328e-15
8.23183e-15
-1.54566e-14
-3.05854e-15
-3.18638e-15
-1.27604e-15
1.11193e-14
-6.94408e-16
2.81072e-15
-3.2108e-15
-6.70832e-15
-9.47126e-15
8.88547e-15
-1.49907e-14
-1.31097e-14
1.71343e-14
6.92909e-15
1.67106e-14
7.04406e-16
1.35481e-14
1.49851e-14
1.6444e-14
3.82133e-15
-2.3937e-15
-1.28848e-15
-5.18498e-15
1.28712e-14
2.41194e-16
-8.57251e-15
1.02001e-14
-5.53085e-15
5.68721e-15
-3.81173e-15
-1.3103e-15
-1.00739e-14
6.75559e-15
-2.00741e-15
9.91837e-15
-1.16643e-14
2.96875e-14
8.61149e-15
-6.32443e-15
9.62748e-15
1.07137e-14
2.39017e-15
1.24504e-14
8.99827e-15
-8.10543e-15
-3.84911e-15
-1.88303e-14
-1.86994e-14
-9.44694e-15
-1.12723e-14
-3.66129e-15
-1.71672e-14
-2.00689e-14
-6.51293e-15
-2.73465e-15
-4.37975e-15
-4.16042e-15
4.87708e-16
-4.97922e-15
1.37893e-14
-1.33029e-15
-2.18998e-15
3.33776e-15
-3.11546e-14
-4.74197e-15
8.2675e-15
6.52495e-15
1.16815e-14
1.28581e-14
-2.3282e-15
9.57833e-15
7.71908e-15
-2.92273e-15
-6.66269e-15
-6.17206e-15
1.18775e-14
-4.95348e-15
-5.69209e-15
8.59393e-16
-1.57749e-14
1.53086e-14
4.02028e-15
1.5163e-14
-1.86071e-14
1.41254e-14
-9.01461e-15
-1.17955e-14
1.79863e-14
-2.30967e-14
6.45609e-15
-7.33782e-15
2.27948e-14
-5.74014e-16
-2.21222e-15
-1.2986e-14
1.36948e-14
-3.53812e-14
-1.01008e-14
3.98989e-15
-2.86359e-14
-2.25674e-14
8.48512e-15
1.09877e-15
-1.91239e-15
-3.52008e-15
-3.99437e-15
1.49523e-14
2.53081e-14
1.36312e-14
-1.36822e-15
-2.37205e-15
1.9437e-14
1.68289e-14
-2.63571e-15
7.82328e-15
-9.57346e-15
1.94478e-14
-7.16278e-15
1.96368e-14
-1.58422e-14
1.0556e-14
-9.9298e-16
-3.47592e-16
1.93761e-14
1.96705e-14
1.84091e-15
-8.6362e-15
-2.00853e-14
-7.99491e-15
3.04491e-15
-8.31359e-15
-1.17713e-14
-6.95415e-15
2.31042e-14
2.64486e-15
8.15353e-15
-3.38724e-15
-6.72999e-15
-6.13896e-15
2.64919e-14
-3.91896e-15
-1.14964e-14
-4.47149e-15
9.60777e-15
-1.43048e-14
3.21245e-15
4.02804e-15
-3.0951e-14
3.27518e-15
-2.43482e-15
-4.80416e-15
-2.56649e-14
5.50846e-15
-7.09074e-15
1.02057e-14
-1.34533e-15
5.13021e-15
1.80573e-14
6.43929e-15
2.71197e-14
7.6013e-15
-2.50727e-14
-1.47076e-14
7.02167e-15
1.58612e-14
6.90617e-15
9.11667e-15
-1.20934e-14
4.1464e-16
2.38671e-15
9.23787e-15
-5.48455e-15
-8.93849e-15
3.1127e-15
-3.86233e-16
1.4153e-14
-1.61484e-14
9.95106e-15
-3.76586e-14
1.32962e-14
-1.85401e-14
-1.2631e-15
-2.69526e-15
-1.77106e-15
-3.47907e-14
4.60625e-15
1.38489e-14
4.34474e-15
1.19173e-15
-1.08376e-14
1.81222e-14
3.77267e-15
5.16777e-15
-3.26911e-14
1.96254e-16
-6.03406e-15
2.79185e-15
-9.21157e-15
5.21799e-16
-2.60975e-14
2.6227e-15
1.85596e-14
-6.38437e-15
-7.93159e-15
9.92605e-15
-1.83783e-15
-4.27997e-15
1.73947e-14
9.8367e-16
7.39819e-16
1.06304e-14
2.57335e-15
-1.73912e-14
-8.52133e-15
-1.546e-14
-1.81669e-14
2.97321e-15
-1.43521e-14
1.14602e-15
-8.36347e-15
-9.10003e-15
5.75847e-17
1.01654e-14
-9.83946e-15
-9.71761e-15
6.886e-15
-8.01475e-15
-1.7693e-15
-1.00966e-14
-8.38517e-15
7.16725e-16
1.82034e-14
3.05657e-15
1.51227e-14
1.72393e-14
1.13154e-14
-3.41961e-15
-4.08912e-15
2.18709e-14
-1.00973e-14
1.75369e-14
-1.17908e-14
-7.80336e-15
4.41891e-15
2.78743e-14
-9.87981e-15
-9.14909e-15
1.23387e-14
7.82984e-16
6.22974e-15
-2.57877e-15
2.66996e-15
-1.25353e-14
2.18911e-14
-3.34146e-15
-3.92983e-15
-8.33995e-15
3.36263e-15
5.27768e-15
5.17747e-15
7.84485e-15
3.25274e-15
1.8083e-14
1.56034e-14
-7.69285e-15
9.62544e-15
1.82306e-15
7.94156e-15
5.80265e-16
7.99328e-16
3.98499e-15
1.05774e-14
2.89634e-15
2.01272e-14
2.11303e-15
1.39499e-14
1.10686e-14
1.47785e-14
4.26772e-15
8.58875e-15
4.98801e-15
5.79823e-15
-1.34669e-15
1.05776e-14
-1.15061e-14
-2.07093e-14
-1.03506e-14
-6.75163e-15
3.84892e-15
1.51248e-14
1.56602e-15
-7.47593e-15
1.24017e-14
-4.74501e-15
-1.4764e-14
-1.51424e-14
2.17887e-14
-2.1494e-15
-1.02841e-14
6.4301e-15
-2.96632e-15
1.02396e-14
3.97035e-15
-4.3727e-15
-7.49094e-15
1.2224e-14
1.29906e-14
-2.00473e-14
-1.06455e-14
2.00659e-15
-1.60679e-15
3.99837e-15
3.82073e-15
-1.99112e-14
-3.32167e-15
-1.33189e-14
1.98517e-16
5.95823e-16
-1.22483e-14
-1.0057e-14
-8.1796e-15
-3.00218e-14
2.54435e-15
-7.75503e-15
-1.76118e-15
-1.57903e-14
-1.03281e-15
-6.94263e-15
8.98722e-15
-1.34182e-14
-3.89879e-15
8.41352e-15
-3.82349e-15
-2.3473e-16
7.92812e-15
-7.93609e-15
-2.15352e-14
-9.60207e-15
1.25244e-14
3.99225e-15
-8.40658e-15
6.59677e-15
1.31114e-14
3.20355e-15
1.92208e-14
2.1548e-14
-1.0327e-15
7.64075e-15
1.64852e-14
-1.24743e-14
-1.97346e-15
-5.63601e-15
-1.25119e-14
-1.64289e-15
3.52642e-15
1.15205e-14
-2.95305e-14
-5.67146e-16
2.5134e-15
2.71034e-15
2.40151e-16
5.00468e-15
-9.94745e-15
4.13569e-15
-3.07171e-15
-6.2359e-15
-1.29443e-15
1.2052e-14
2.10116e-14
1.86884e-15
-3.2557e-15
1.00617e-14
8.12685e-15
6.69354e-15
1.08933e-14
2.56934e-15
-1.08564e-14
6.91705e-15
-1.0533e-15
1.65698e-14
-5.18395e-15
1.77708e-14
-1.30459e-14
-1.12303e-14
-3.2564e-16
8.07432e-15
-7.81807e-15
5.48314e-15
-1.62156e-14
9.36724e-15
1.15695e-14
-6.05597e-15
-1.48982e-14
-5.9797e-15
-1.13164e-14
8.49451e-15
3.08612e-14
7.97702e-15
-1.81831e-14
-7.12277e-15
8.1429e-16
-1.29271e-14
-9.61248e-15
-7.36981e-15
-1.69997e-14
-8.55788e-15
1.6783e-14
-1.91838e-14
-7.97127e-15
1.15179e-14
-1.18727e-14
4.86774e-15
-9.52997e-15
-7.54534e-15
7.81168e-16
4.18058e-15
3.07878e-14
1.20574e-15
1.57556e-15
-1.16636e-14
1.96322e-15
-4.24644e-15
1.3186e-14
-1.97325e-16
-1.64647e-15
-8.6682e-17
-2.70151e-15
5.36593e-15
-3.9221e-15
1.17419e-16
3.35355e-15
-1.1592e-14
-1.2916e-14
8.00944e-15
-2.47289e-14
6.66643e-15
1.49757e-14
-1.60333e-14
5.49875e-15
-8.69465e-15
1.37858e-14
-6.29336e-15
1.14982e-14
1.86643e-14
-5.60847e-15
-8.32776e-15
1.94492e-14
-1.3739e-15
8.18237e-15
-1.29999e-14
-1.34171e-14
1.20624e-14
1.65369e-14
-3.49352e-15
4.33529e-15
-2.15312e-15
-1.44192e-14
-1.25908e-14
-5.23897e-15
-1.16578e-14
5.85372e-15
9.46888e-15
7.89776e-15
2.0267e-15
2.17323e-14
-4.27295e-15
-9.64626e-15
1.78112e-14
-9.76367e-15
-6.56983e-15
2.00969e-14
-5.37851e-15
1.85911e-14
1.39029e-14
6.68909e-15
-7.16766e-16
-1.6437e-14
5.19983e-16
-1.73928e-15
3.84014e-15
-3.57321e-15
-5.41169e-15
1.80498e-15
7.41876e-15
-5.37537e-15
-3.18311e-15
8.25446e-15
-8.14019e-16
-6.366e-15
-4.17244e-15
-1.22992e-15
5.96853e-15
7.21645e-15
-1.011e-14
1.94911e-14
-7.04038e-15
3.7444e-15
5.10724e-15
6.5269e-17
3.83482e-15
-1.72562e-14
-2.18662e-15
4.35155e-15
-1.35729e-14
1.5034e-14
1.45825e-15
-4.85853e-15
7.68136e-15
-2.0769e-15
9.98941e-15
1.44362e-14
-2.9989e-16
-7.07507e-15
-1.29215e-15
-8.04478e-15
-1.13035e-14
-4.31881e-15
8.61941e-16
3.07913e-17
1.50934e-14
-2.0728e-14
-1.45604e-14
-1.01804e-14
-4.92011e-15
2.34036e-15
1.22949e-16
3.67696e-15
1.66403e-15
1.41983e-14
-5.62723e-15
-6.5347e-15
1.86782e-14
2.68947e-15
8.61615e-15
-5.26033e-15
-3.12619e-15
7.16441e-15
3.57353e-16
-1.84401e-15
-8.17857e-15
-1.35764e-15
2.91347e-15
-5.79896e-15
-3.45145e-15
2.01625e-14
-1.841e-14
9.02945e-15
-6.38855e-15
2.0978e-14
9.61904e-15
-2.02963e-16
2.64112e-16
-9.07521e-15
4.12084e-15
-1.23122e-14
-7.72386e-16
-7.24204e-15
9.84456e-17
-2.86967e-15
-1.52595e-14
2.22274e-14
-3.00107e-16
-1.3654e-14
9.90527e-15
-1.24636e-14
8.60163e-15
-1.26301e-14
-1.26422e-14
-3.1572e-16
5.11483e-15
-1.81855e-14
-4.84248e-15
-1.17853e-14
-4.96955e-15
-6.69994e-15
1.0721e-14
8.13585e-15
-6.6995e-15
7.3626e-15
1.92901e-15
1.99493e-15
1.13624e-14
7.96672e-16
8.72609e-15
6.2849e-15
1.78677e-15
-7.32444e-15
-8.61724e-16
-7.24898e-15
-3.11426e-15
-6.96491e-15
-1.56012e-14
-1.39255e-15
-2.03097e-14
-4.89669e-15
-1.456e-14
-2.60816e-15
-7.43763e-15
-6.87644e-15
3.86757e-15
1.15207e-14
4.87067e-15
-2.05131e-15
-1.72683e-14
-1.49564e-14
1.45392e-14
-1.46437e-14
6.86777e-15
-5.06236e-15
1.08646e-14
3.26041e-15
-1.3955e-14
-3.22268e-15
-1.49186e-14
-3.97078e-15
1.20377e-14
1.16578e-14
-6.74504e-15
9.83718e-15
1.42169e-14
-1.60401e-14
1.41076e-15
1.37819e-14
-4.87457e-15
1.67349e-14
2.39652e-15
-1.26158e-15
-1.53089e-16
-4.66511e-15
-1.38596e-14
1.05471e-14
-7.59375e-16
1.60831e-14
5.44053e-15
8.25642e-15
6.39939e-15
-1.21214e-15
1.33058e-14
-6.95321e-15
-2.1701e-14
1.90152e-14
-2.25861e-15
-4.60612e-15
7.21038e-15
-7.4064e-15
1.08086e-14
-1.92901e-15
-8.10463e-15
5.14346e-15
8.62721e-15
8.50969e-15
7.95024e-15
1.60809e-15
2.00538e-14
-7.52913e-15
8.41428e-15
9.36751e-15
1.21517e-14
-5.29047e-15
-2.69403e-15
-1.8493e-14
1.35265e-15
1.72345e-15
1.3834e-14
4.03323e-17
-1.6659e-14
6.18082e-15
6.1921e-15
-5.79398e-16
-1.89206e-14
6.57113e-15
1.54338e-14
6.40026e-15
8.25208e-15
1.85789e-14
-2.38698e-15
3.45036e-15
1.0934e-14
-1.45049e-14
-1.76647e-14
1.39801e-14
6.31439e-16
-1.88252e-14
1.19956e-15
-1.86873e-14
-3.22572e-15
2.83974e-15
4.03757e-15
4.08527e-15
5.95184e-15
-1.34103e-14
-1.164e-15
-9.55919e-15
-2.51535e-17
4.33247e-15
-2.3731e-15
-1.40591e-14
-7.34829e-15
5.3204e-15
1.82198e-14
-1.77853e-14
1.285e-14
-3.92221e-15
-4.96651e-15
1.49707e-15
-1.61529e-14
7.48533e-16
1.5897e-14
-3.74527e-15
-4.81299e-15
-3.16067e-15
5.39152e-15
-1.87949e-14
-7.20344e-15
1.03372e-14
-1.0123e-14
-9.92002e-15
-1.02791e-14
8.72132e-15
1.5583e-14
1.69153e-14
9.44123e-15
-1.59248e-15
-8.06993e-15
-1.81886e-15
1.91635e-14
-6.29358e-15
-1.81105e-15
1.26461e-15
2.27596e-14
-5.16948e-15
-9.87405e-15
-1.14162e-14
-4.17201e-15
-4.86937e-15
-1.28751e-14
-1.09183e-14
-2.81719e-15
1.09617e-14
1.84748e-14
-8.9425e-15
-8.85056e-15
1.50262e-14
9.91915e-15
8.22953e-15
-2.47094e-14
-3.59261e-15
1.42594e-14
-9.36577e-15
7.52523e-15
7.38819e-15
-7.50615e-15
-3.13551e-14
-6.43756e-15
3.52149e-15
1.0443e-14
-1.56299e-15
1.66568e-14
7.93983e-15
-4.93876e-15
-7.11237e-15
-1.22298e-14
1.44364e-14
-5.98306e-15
9.31373e-15
2.72837e-14
1.69535e-14
5.19376e-15
-5.89112e-15
-1.14145e-14
1.68355e-14
-8.26422e-15
1.2438e-14
2.08514e-14
-1.14665e-14
1.62075e-14
1.56992e-15
2.57433e-15
-2.68882e-16
-1.08628e-14
6.01082e-15
-5.60316e-15
6.04204e-15
-1.27849e-15
1.31561e-14
-1.33955e-14
-1.84019e-14
1.88911e-15
-7.82187e-15
-2.25774e-14
-7.97973e-15
1.37858e-14
7.75074e-15
-2.04177e-15
-1.35343e-14
2.31117e-14
7.00828e-15
3.82663e-14
-1.64625e-14
-2.91642e-14
9.93997e-16
7.13318e-15
-1.62752e-14
7.88952e-15
-6.87297e-15
2.03882e-14
-1.48926e-14
-9.85149e-15
-7.95371e-15
-1.46168e-14
-2.62637e-15
4.90059e-15
4.35971e-14
3.54751e-15
-3.54404e-15
-2.31152e-14
-4.17721e-15
3.27689e-15
4.52589e-15
-6.49827e-15
8.55913e-15
3.50761e-15
-2.1599e-14
2.02026e-14
-1.55934e-14
-1.57686e-15
-1.64001e-14
-9.50455e-15
5.95531e-15
1.04222e-14
-2.22461e-14
1.92381e-15
6.10623e-15
-3.71925e-14
-1.64781e-14
-2.4019e-14
8.26422e-15
5.9102e-15
2.03726e-14
-6.13225e-15
-3.59608e-15
-6.6596e-15
5.00988e-15
1.66898e-14
-1.26808e-14
5.68642e-15
1.19557e-14
1.11022e-16
3.85109e-16
3.72549e-14
1.9082e-14
-4.93702e-15
-1.42004e-14
2.22045e-16
1.93387e-14
-2.06467e-14
2.53964e-15
-1.93526e-14
2.21559e-14
2.60347e-14
1.33643e-14
-1.27537e-14
1.47347e-14
-1.75068e-14
-1.3517e-14
-1.65735e-14
3.17663e-14
-4.36803e-15
3.42192e-14
1.02106e-14
5.68295e-15
1.32602e-14
-4.40689e-14
1.04604e-14
7.60503e-15
2.36963e-14
7.61544e-15
1.23755e-14
-2.73739e-15
3.2023e-15
-2.46331e-16
-2.23328e-14
3.01009e-14
-3.08746e-14
-8.51402e-15
-4.26395e-15
1.6688e-14
9.70751e-15
1.53801e-14
-1.38084e-14
-1.35343e-14
6.73073e-15
-1.71391e-14
3.00732e-14
2.35367e-14
1.33331e-14
-1.61329e-14
-1.26288e-15
-2.09624e-14
1.44294e-14
2.66107e-15
-8.46545e-16
-2.0383e-14
-1.68233e-14
4.7011e-15
-1.39125e-14
1.11439e-14
-7.34135e-15
2.25167e-15
-2.08999e-14
-3.46945e-18
1.85268e-15
9.33281e-15
1.62231e-14
-3.11903e-15
1.24484e-14
-1.16122e-14
-1.61086e-14
-1.78295e-14
-1.96405e-14
-1.17441e-14
-3.51455e-15
-6.21031e-15
9.13852e-15
2.50459e-14
-3.7817e-16
-1.42594e-14
1.79509e-14
-3.72688e-14
9.66935e-15
-1.39402e-14
-3.82333e-15
4.14148e-14
1.06339e-14
-8.87138e-15
-1.46827e-14
9.57914e-15
-3.00072e-14
-1.94671e-14
-6.67869e-15
2.30024e-15
3.0774e-14
1.53696e-15
2.45429e-14
1.89015e-14
1.94983e-15
-4.24313e-15
-1.06096e-14
-1.61052e-14
7.4038e-15
3.02848e-14
-3.19189e-16
1.78642e-14
-7.46278e-15
3.20577e-15
-1.15186e-15
1.67574e-14
9.95037e-15
6.59889e-15
-2.82482e-14
-1.16296e-14
-5.15213e-15
-1.27329e-15
6.39419e-15
-3.56659e-15
2.05808e-14
-1.03632e-14
3.65125e-14
-4.35069e-15
2.43625e-14
-4.1217e-15
-1.07137e-14
-1.71391e-15
-3.04201e-14
-1.04708e-14
-7.17482e-15
1.61676e-15
3.26614e-14
9.09689e-15
3.56659e-15
-1.66533e-15
1.96301e-14
8.79158e-15
2.92127e-15
-2.96846e-14
-1.0103e-14
4.30905e-15
-3.2821e-15
2.85189e-14
-2.50772e-14
1.25733e-14
-1.70974e-14
-1.51268e-14
-3.06699e-14
-5.62744e-15
1.55709e-14
-1.13867e-14
2.12955e-14
2.09277e-14
4.54498e-15
-9.45771e-15
-1.76734e-14
-1.59872e-14
-1.4086e-15
-3.18148e-14
-2.71311e-15
-9.36751e-15
2.124e-14
5.84949e-15
1.38223e-14
2.16493e-15
-6.59889e-15
4.48946e-15
1.27606e-14
6.05765e-15
2.44249e-15
-1.31214e-14
-7.83401e-15
-3.31055e-14
6.59195e-15
2.37657e-14
9.29118e-15
2.27526e-14
1.27259e-14
1.97273e-14
-1.38015e-14
5.62744e-15
-2.46955e-14
7.43849e-15
-1.02696e-14
-2.17534e-14
2.54519e-14
1.81175e-14
2.61111e-14
1.63064e-14
-1.47868e-14
-2.81025e-15
-2.13024e-14
9.76302e-15
3.81639e-15
-4.10783e-15
-1.15394e-14
7.49401e-15
-9.9365e-15
9.06913e-15
2.21836e-14
9.4369e-15
-1.06026e-14
-2.27041e-14
3.39312e-15
-2.94903e-15
1.66533e-16
1.30104e-14
3.95448e-14
2.13371e-14
-1.90403e-14
6.26582e-15
-8.63198e-15
-5.23886e-15
-9.1871e-15
2.15106e-14
3.07393e-15
2.28983e-16
-1.62995e-14
3.15303e-14
7.17482e-15
1.9762e-14
-1.61121e-14
3.36536e-15
-1.88599e-14
-2.72768e-14
9.57567e-15
-1.2039e-14
-1.67644e-14
-1.07137e-14
-1.62786e-14
1.99354e-14
1.58207e-15
2.70686e-14
2.01228e-15
-1.57999e-14
-5.98133e-15
4.23273e-15
-2.93654e-14
2.35229e-15
3.52496e-15
-6.30052e-15
7.75768e-15
6.55032e-15
1.97342e-14
2.46608e-14
-2.88103e-14
-2.01922e-14
1.14214e-14
-3.0323e-14
2.09555e-14
3.59712e-14
-1.23512e-15
-1.34476e-14