/*--------------------------------*- C++ -*----------------------------------*\
| =========                 |                                                 |
| \\      /  F ield         | foam-extend: Open Source CFD                    |
|  \\    /   O peration     | Version:     4.0                                |
|   \\  /    A nd           | Web:         http://www.foam-extend.org         |
|    \\/     M anipulation  |                                                 |
\*---------------------------------------------------------------------------*/
FoamFile
{
    version     2.0;
    format      ascii;
    class       volScalarField;
    location    "1960";
    object      psiE;
}
// * * * * * * * * * * * * * * * * * * * * * * * * * * * * * * * * * * * * * //

dimensions      [0 0 0 0 0 0 0];

internalField   nonuniform List<scalar> 
6960
(
0.333408
0.333412
0.333418
0.333423
0.333428
0.333433
0.333438
0.333442
0.333446
0.33345
0.333453
0.333456
0.333459
0.333461
0.333463
0.333465
0.333466
0.333468
0.333469
0.33347
0.333471
0.333472
0.333473
0.333473
0.333474
0.333474
0.333475
0.333475
0.333475
0.333475
0.333475
0.333475
0.333475
0.333475
0.333474
0.333474
0.333473
0.333473
0.333472
0.333471
0.33347
0.333469
0.333468
0.333466
0.333465
0.333463
0.333461
0.333459
0.333456
0.333453
0.33345
0.333446
0.333442
0.333438
0.333433
0.333428
0.333423
0.333418
0.333412
0.333408
0.829697
0.829714
0.829736
0.829759
0.82978
0.829801
0.82982
0.829837
0.829853
0.829867
0.82988
0.829892
0.829903
0.829912
0.829921
0.829928
0.829935
0.829941
0.829946
0.829951
0.829955
0.829958
0.829961
0.829963
0.829965
0.829967
0.829968
0.829969
0.82997
0.82997
0.82997
0.82997
0.829969
0.829968
0.829967
0.829965
0.829963
0.829961
0.829958
0.829955
0.829951
0.829946
0.829941
0.829935
0.829928
0.829921
0.829912
0.829903
0.829892
0.82988
0.829867
0.829853
0.829837
0.82982
0.829801
0.82978
0.829759
0.829736
0.829714
0.829697
1.27562
1.27566
1.2757
1.27574
1.27579
1.27583
1.27587
1.2759
1.27593
1.27596
1.27599
1.27601
1.27603
1.27605
1.27607
1.27608
1.27609
1.27611
1.27612
1.27613
1.27613
1.27614
1.27615
1.27615
1.27615
1.27616
1.27616
1.27616
1.27616
1.27616
1.27616
1.27616
1.27616
1.27616
1.27616
1.27615
1.27615
1.27615
1.27614
1.27613
1.27613
1.27612
1.27611
1.27609
1.27608
1.27607
1.27605
1.27603
1.27601
1.27599
1.27596
1.27593
1.2759
1.27587
1.27583
1.27579
1.27574
1.2757
1.27566
1.27562
1.70699
1.70705
1.70712
1.70719
1.70726
1.70732
1.70738
1.70743
1.70748
1.70753
1.70757
1.70761
1.70764
1.70767
1.70769
1.70772
1.70774
1.70776
1.70777
1.70779
1.7078
1.70781
1.70782
1.70783
1.70783
1.70784
1.70784
1.70785
1.70785
1.70785
1.70785
1.70785
1.70785
1.70784
1.70784
1.70783
1.70783
1.70782
1.70781
1.7078
1.70779
1.70777
1.70776
1.70774
1.70772
1.70769
1.70767
1.70764
1.70761
1.70757
1.70753
1.70748
1.70743
1.70738
1.70732
1.70726
1.70719
1.70712
1.70705
1.70699
2.13784
2.13792
2.13802
2.13811
2.13821
2.1383
2.13838
2.13846
2.13853
2.13859
2.13865
2.1387
2.13875
2.13879
2.13882
2.13886
2.13889
2.13891
2.13894
2.13896
2.13897
2.13899
2.139
2.13901
2.13902
2.13903
2.13903
2.13904
2.13904
2.13904
2.13904
2.13904
2.13904
2.13903
2.13903
2.13902
2.13901
2.139
2.13899
2.13897
2.13896
2.13894
2.13891
2.13889
2.13886
2.13882
2.13879
2.13875
2.1387
2.13865
2.13859
2.13853
2.13846
2.13838
2.1383
2.13821
2.13811
2.13802
2.13792
2.13784
2.57404
2.57414
2.57426
2.57439
2.57451
2.57463
2.57474
2.57484
2.57493
2.57501
2.57508
2.57515
2.57521
2.57527
2.57531
2.57536
2.57539
2.57543
2.57546
2.57548
2.57551
2.57553
2.57554
2.57556
2.57557
2.57558
2.57558
2.57559
2.57559
2.5756
2.5756
2.57559
2.57559
2.57558
2.57558
2.57557
2.57556
2.57554
2.57553
2.57551
2.57548
2.57546
2.57543
2.57539
2.57536
2.57531
2.57527
2.57521
2.57515
2.57508
2.57501
2.57493
2.57484
2.57474
2.57463
2.57451
2.57439
2.57426
2.57414
2.57404
3.01807
3.01819
3.01834
3.0185
3.01866
3.0188
3.01894
3.01906
3.01917
3.01927
3.01936
3.01945
3.01952
3.01959
3.01965
3.0197
3.01975
3.01979
3.01983
3.01986
3.01989
3.01991
3.01993
3.01995
3.01996
3.01998
3.01999
3.01999
3.02
3.02
3.02
3.02
3.01999
3.01999
3.01998
3.01996
3.01995
3.01993
3.01991
3.01989
3.01986
3.01983
3.01979
3.01975
3.0197
3.01965
3.01959
3.01952
3.01945
3.01936
3.01927
3.01917
3.01906
3.01894
3.0188
3.01866
3.0185
3.01834
3.01819
3.01807
3.471
3.47114
3.47133
3.47152
3.4717
3.47187
3.47203
3.47218
3.47232
3.47244
3.47255
3.47265
3.47274
3.47282
3.47289
3.47295
3.47301
3.47306
3.4731
3.47314
3.47318
3.4732
3.47323
3.47325
3.47327
3.47328
3.47329
3.4733
3.4733
3.47331
3.47331
3.4733
3.4733
3.47329
3.47328
3.47327
3.47325
3.47323
3.4732
3.47318
3.47314
3.4731
3.47306
3.47301
3.47295
3.47289
3.47282
3.47274
3.47265
3.47255
3.47244
3.47232
3.47218
3.47203
3.47187
3.4717
3.47152
3.47133
3.47114
3.471
3.93327
3.93344
3.93365
3.93387
3.93409
3.93429
3.93448
3.93465
3.93481
3.93495
3.93508
3.93519
3.9353
3.93539
3.93548
3.93555
3.93562
3.93567
3.93572
3.93577
3.93581
3.93584
3.93587
3.9359
3.93592
3.93593
3.93594
3.93595
3.93596
3.93596
3.93596
3.93596
3.93595
3.93594
3.93593
3.93592
3.9359
3.93587
3.93584
3.93581
3.93577
3.93572
3.93567
3.93562
3.93555
3.93548
3.93539
3.9353
3.93519
3.93508
3.93495
3.93481
3.93465
3.93448
3.93429
3.93409
3.93387
3.93365
3.93344
3.93327
4.40506
4.40525
4.4055
4.40575
4.406
4.40623
4.40644
4.40664
4.40682
4.40698
4.40713
4.40726
4.40738
4.40749
4.40758
4.40767
4.40774
4.40781
4.40787
4.40792
4.40796
4.408
4.40804
4.40806
4.40809
4.40811
4.40812
4.40813
4.40814
4.40814
4.40814
4.40814
4.40813
4.40812
4.40811
4.40809
4.40806
4.40804
4.408
4.40796
4.40792
4.40787
4.40781
4.40774
4.40767
4.40758
4.40749
4.40738
4.40726
4.40713
4.40698
4.40682
4.40664
4.40644
4.40623
4.406
4.40575
4.4055
4.40525
4.40506
4.88642
4.88664
4.88692
4.8872
4.88748
4.88774
4.88798
4.8882
4.8884
4.88859
4.88875
4.8889
4.88904
4.88916
4.88927
4.88936
4.88945
4.88952
4.88959
4.88965
4.8897
4.88974
4.88978
4.88981
4.88984
4.88986
4.88987
4.88989
4.88989
4.8899
4.8899
4.88989
4.88989
4.88987
4.88986
4.88984
4.88981
4.88978
4.88974
4.8897
4.88965
4.88959
4.88952
4.88945
4.88936
4.88927
4.88916
4.88904
4.8889
4.88875
4.88859
4.8884
4.8882
4.88798
4.88774
4.88748
4.8872
4.88692
4.88664
4.88642
5.37735
5.37759
5.3779
5.37822
5.37853
5.37882
5.37909
5.37933
5.37956
5.37976
5.37995
5.38012
5.38027
5.3804
5.38052
5.38063
5.38072
5.38081
5.38088
5.38094
5.381
5.38105
5.38109
5.38113
5.38115
5.38118
5.3812
5.38121
5.38122
5.38122
5.38122
5.38122
5.38121
5.3812
5.38118
5.38115
5.38113
5.38109
5.38105
5.381
5.38094
5.38088
5.38081
5.38072
5.38063
5.38052
5.3804
5.38027
5.38012
5.37995
5.37976
5.37956
5.37933
5.37909
5.37882
5.37853
5.37822
5.3779
5.37759
5.37735
5.8778
5.87807
5.87841
5.87876
5.8791
5.87942
5.87971
5.87999
5.88023
5.88046
5.88066
5.88085
5.88101
5.88116
5.8813
5.88141
5.88152
5.88161
5.88169
5.88176
5.88182
5.88188
5.88192
5.88196
5.88199
5.88202
5.88204
5.88205
5.88206
5.88207
5.88207
5.88206
5.88205
5.88204
5.88202
5.88199
5.88196
5.88192
5.88188
5.88182
5.88176
5.88169
5.88161
5.88152
5.88141
5.8813
5.88116
5.88101
5.88085
5.88066
5.88046
5.88023
5.87999
5.87971
5.87942
5.8791
5.87876
5.87841
5.87807
5.8778
6.38769
6.38798
6.38835
6.38873
6.3891
6.38945
6.38978
6.39007
6.39035
6.39059
6.39082
6.39102
6.3912
6.39136
6.39151
6.39163
6.39175
6.39185
6.39194
6.39202
6.39208
6.39214
6.39219
6.39223
6.39227
6.3923
6.39232
6.39234
6.39235
6.39235
6.39235
6.39235
6.39234
6.39232
6.3923
6.39227
6.39223
6.39219
6.39214
6.39208
6.39202
6.39194
6.39185
6.39175
6.39163
6.39151
6.39136
6.3912
6.39102
6.39082
6.39059
6.39035
6.39007
6.38978
6.38945
6.3891
6.38873
6.38835
6.38798
6.38769
6.90689
6.9072
6.90761
6.90802
6.90843
6.9088
6.90916
6.90948
6.90977
6.91004
6.91028
6.9105
6.9107
6.91088
6.91103
6.91117
6.9113
6.91141
6.9115
6.91159
6.91166
6.91172
6.91178
6.91182
6.91186
6.91189
6.91192
6.91193
6.91195
6.91195
6.91195
6.91195
6.91193
6.91192
6.91189
6.91186
6.91182
6.91178
6.91172
6.91166
6.91159
6.9115
6.91141
6.9113
6.91117
6.91103
6.91088
6.9107
6.9105
6.91028
6.91004
6.90977
6.90948
6.90916
6.9088
6.90843
6.90802
6.90761
6.9072
6.90689
7.43525
7.43559
7.43603
7.43648
7.43691
7.43732
7.4377
7.43805
7.43836
7.43865
7.43892
7.43915
7.43936
7.43955
7.43972
7.43987
7.44001
7.44013
7.44023
7.44032
7.4404
7.44047
7.44053
7.44058
7.44062
7.44065
7.44068
7.44069
7.44071
7.44071
7.44071
7.44071
7.44069
7.44068
7.44065
7.44062
7.44058
7.44053
7.44047
7.4404
7.44032
7.44023
7.44013
7.44001
7.43987
7.43972
7.43955
7.43936
7.43915
7.43892
7.43865
7.43836
7.43805
7.4377
7.43732
7.43691
7.43648
7.43603
7.43559
7.43525
7.97259
7.97295
7.97341
7.9739
7.97436
7.9748
7.97521
7.97558
7.97592
7.97623
7.97651
7.97677
7.97699
7.9772
7.97738
7.97754
7.97768
7.97781
7.97792
7.97802
7.9781
7.97818
7.97824
7.97829
7.97834
7.97837
7.9784
7.97842
7.97843
7.97844
7.97844
7.97843
7.97842
7.9784
7.97837
7.97834
7.97829
7.97824
7.97818
7.9781
7.97802
7.97792
7.97781
7.97768
7.97754
7.97738
7.9772
7.97699
7.97677
7.97651
7.97623
7.97592
7.97558
7.97521
7.9748
7.97436
7.9739
7.97341
7.97295
7.97259
8.51864
8.51903
8.51953
8.52004
8.52054
8.52101
8.52144
8.52184
8.5222
8.52253
8.52283
8.5231
8.52335
8.52356
8.52376
8.52393
8.52408
8.52422
8.52434
8.52444
8.52453
8.52461
8.52468
8.52473
8.52478
8.52482
8.52485
8.52487
8.52488
8.52489
8.52489
8.52488
8.52487
8.52485
8.52482
8.52478
8.52473
8.52468
8.52461
8.52453
8.52444
8.52434
8.52422
8.52408
8.52393
8.52376
8.52356
8.52335
8.5231
8.52283
8.52253
8.5222
8.52184
8.52144
8.52101
8.52054
8.52004
8.51953
8.51903
8.51864
9.07314
9.07355
9.07407
9.07462
9.07515
9.07565
9.07611
9.07653
9.07692
9.07727
9.07759
9.07787
9.07813
9.07836
9.07857
9.07875
9.07892
9.07906
9.07919
9.0793
9.07939
9.07947
9.07955
9.07961
9.07965
9.0797
9.07973
9.07975
9.07977
9.07977
9.07977
9.07977
9.07975
9.07973
9.0797
9.07965
9.07961
9.07955
9.07947
9.07939
9.0793
9.07919
9.07906
9.07892
9.07875
9.07857
9.07836
9.07813
9.07787
9.07759
9.07727
9.07692
9.07653
9.07611
9.07565
9.07515
9.07462
9.07407
9.07355
9.07314
9.63572
9.63615
9.63671
9.63729
9.63784
9.63837
9.63886
9.63931
9.63971
9.64009
9.64042
9.64073
9.641
9.64124
9.64146
9.64166
9.64183
9.64198
9.64211
9.64223
9.64233
9.64242
9.64249
9.64256
9.64261
9.64265
9.64269
9.64271
9.64273
9.64274
9.64274
9.64273
9.64271
9.64269
9.64265
9.64261
9.64256
9.64249
9.64242
9.64233
9.64223
9.64211
9.64198
9.64183
9.64166
9.64146
9.64124
9.641
9.64073
9.64042
9.64009
9.63971
9.63931
9.63886
9.63837
9.63784
9.63729
9.63671
9.63615
9.63572
10.206
10.2064
10.207
10.2076
10.2082
10.2088
10.2093
10.2098
10.2102
10.2106
10.2109
10.2112
10.2115
10.2118
10.212
10.2122
10.2124
10.2126
10.2127
10.2128
10.2129
10.213
10.2131
10.2132
10.2132
10.2133
10.2133
10.2133
10.2134
10.2134
10.2134
10.2134
10.2133
10.2133
10.2133
10.2132
10.2132
10.2131
10.213
10.2129
10.2128
10.2127
10.2126
10.2124
10.2122
10.212
10.2118
10.2115
10.2112
10.2109
10.2106
10.2102
10.2098
10.2093
10.2088
10.2082
10.2076
10.207
10.2064
10.206
10.7834
10.7839
10.7845
10.7852
10.7858
10.7864
10.7869
10.7874
10.7878
10.7882
10.7886
10.789
10.7893
10.7895
10.7898
10.79
10.7902
10.7903
10.7905
10.7906
10.7907
10.7908
10.7909
10.791
10.791
10.7911
10.7911
10.7911
10.7912
10.7912
10.7912
10.7912
10.7911
10.7911
10.7911
10.791
10.791
10.7909
10.7908
10.7907
10.7906
10.7905
10.7903
10.7902
10.79
10.7898
10.7895
10.7893
10.789
10.7886
10.7882
10.7878
10.7874
10.7869
10.7864
10.7858
10.7852
10.7845
10.7839
10.7834
11.3675
11.368
11.3686
11.3693
11.3699
11.3706
11.3711
11.3716
11.3721
11.3725
11.3729
11.3733
11.3736
11.3739
11.3741
11.3744
11.3746
11.3747
11.3749
11.375
11.3751
11.3752
11.3753
11.3754
11.3755
11.3755
11.3755
11.3756
11.3756
11.3756
11.3756
11.3756
11.3756
11.3755
11.3755
11.3755
11.3754
11.3753
11.3752
11.3751
11.375
11.3749
11.3747
11.3746
11.3744
11.3741
11.3739
11.3736
11.3733
11.3729
11.3725
11.3721
11.3716
11.3711
11.3706
11.3699
11.3693
11.3686
11.368
11.3675
11.9575
11.9581
11.9587
11.9594
11.9601
11.9607
11.9613
11.9619
11.9624
11.9628
11.9632
11.9636
11.9639
11.9642
11.9645
11.9647
11.9649
11.9651
11.9652
11.9654
11.9655
11.9656
11.9657
11.9658
11.9658
11.9659
11.9659
11.966
11.966
11.966
11.966
11.966
11.966
11.9659
11.9659
11.9658
11.9658
11.9657
11.9656
11.9655
11.9654
11.9652
11.9651
11.9649
11.9647
11.9645
11.9642
11.9639
11.9636
11.9632
11.9628
11.9624
11.9619
11.9613
11.9607
11.9601
11.9594
11.9587
11.9581
11.9575
12.5528
12.5533
12.554
12.5548
12.5555
12.5561
12.5567
12.5573
12.5578
12.5583
12.5587
12.5591
12.5594
12.5597
12.56
12.5602
12.5604
12.5606
12.5608
12.5609
12.5611
12.5612
12.5613
12.5614
12.5614
12.5615
12.5615
12.5615
12.5616
12.5616
12.5616
12.5616
12.5615
12.5615
12.5615
12.5614
12.5614
12.5613
12.5612
12.5611
12.5609
12.5608
12.5606
12.5604
12.5602
12.56
12.5597
12.5594
12.5591
12.5587
12.5583
12.5578
12.5573
12.5567
12.5561
12.5555
12.5548
12.554
12.5533
12.5528
13.1524
13.153
13.1537
13.1544
13.1552
13.1558
13.1565
13.1571
13.1576
13.1581
13.1585
13.1589
13.1592
13.1596
13.1598
13.1601
13.1603
13.1605
13.1607
13.1608
13.161
13.1611
13.1612
13.1613
13.1613
13.1614
13.1614
13.1615
13.1615
13.1615
13.1615
13.1615
13.1615
13.1614
13.1614
13.1613
13.1613
13.1612
13.1611
13.161
13.1608
13.1607
13.1605
13.1603
13.1601
13.1598
13.1596
13.1592
13.1589
13.1585
13.1581
13.1576
13.1571
13.1565
13.1558
13.1552
13.1544
13.1537
13.153
13.1524
13.7553
13.7559
13.7567
13.7574
13.7582
13.7589
13.7595
13.7601
13.7607
13.7612
13.7616
13.762
13.7624
13.7627
13.763
13.7633
13.7635
13.7637
13.7639
13.764
13.7642
13.7643
13.7644
13.7645
13.7645
13.7646
13.7646
13.7647
13.7647
13.7647
13.7647
13.7647
13.7647
13.7646
13.7646
13.7645
13.7645
13.7644
13.7643
13.7642
13.764
13.7639
13.7637
13.7635
13.7633
13.763
13.7627
13.7624
13.762
13.7616
13.7612
13.7607
13.7601
13.7595
13.7589
13.7582
13.7574
13.7567
13.7559
13.7553
14.3605
14.3611
14.3618
14.3626
14.3634
14.3641
14.3648
14.3654
14.3659
14.3665
14.3669
14.3673
14.3677
14.368
14.3683
14.3686
14.3688
14.369
14.3692
14.3694
14.3695
14.3697
14.3698
14.3698
14.3699
14.37
14.37
14.3701
14.3701
14.3701
14.3701
14.3701
14.3701
14.37
14.37
14.3699
14.3698
14.3698
14.3697
14.3695
14.3694
14.3692
14.369
14.3688
14.3686
14.3683
14.368
14.3677
14.3673
14.3669
14.3665
14.3659
14.3654
14.3648
14.3641
14.3634
14.3626
14.3618
14.3611
14.3605
14.9664
14.967
14.9678
14.9686
14.9694
14.9702
14.9708
14.9715
14.972
14.9726
14.973
14.9735
14.9738
14.9742
14.9745
14.9748
14.975
14.9752
14.9754
14.9756
14.9757
14.9758
14.9759
14.976
14.9761
14.9762
14.9762
14.9762
14.9763
14.9763
14.9763
14.9763
14.9762
14.9762
14.9762
14.9761
14.976
14.9759
14.9758
14.9757
14.9756
14.9754
14.9752
14.975
14.9748
14.9745
14.9742
14.9738
14.9735
14.973
14.9726
14.972
14.9715
14.9708
14.9702
14.9694
14.9686
14.9678
14.967
14.9664
15.5717
15.5723
15.5731
15.5739
15.5747
15.5755
15.5762
15.5768
15.5774
15.5779
15.5784
15.5789
15.5792
15.5796
15.5799
15.5802
15.5804
15.5806
15.5808
15.581
15.5812
15.5813
15.5814
15.5815
15.5815
15.5816
15.5817
15.5817
15.5817
15.5817
15.5817
15.5817
15.5817
15.5817
15.5816
15.5815
15.5815
15.5814
15.5813
15.5812
15.581
15.5808
15.5806
15.5804
15.5802
15.5799
15.5796
15.5792
15.5789
15.5784
15.5779
15.5774
15.5768
15.5762
15.5755
15.5747
15.5739
15.5731
15.5723
15.5717
16.1745
16.1751
16.1759
16.1768
16.1776
16.1784
16.1791
16.1797
16.1803
16.1808
16.1813
16.1818
16.1822
16.1825
16.1828
16.1831
16.1834
16.1836
16.1838
16.1839
16.1841
16.1842
16.1843
16.1844
16.1845
16.1846
16.1846
16.1846
16.1847
16.1847
16.1847
16.1847
16.1846
16.1846
16.1846
16.1845
16.1844
16.1843
16.1842
16.1841
16.1839
16.1838
16.1836
16.1834
16.1831
16.1828
16.1825
16.1822
16.1818
16.1813
16.1808
16.1803
16.1797
16.1791
16.1784
16.1776
16.1768
16.1759
16.1751
16.1745
16.7728
16.7734
16.7743
16.7751
16.7759
16.7767
16.7774
16.7781
16.7787
16.7792
16.7797
16.7801
16.7805
16.7809
16.7812
16.7815
16.7817
16.782
16.7822
16.7823
16.7825
16.7826
16.7827
16.7828
16.7829
16.7829
16.783
16.783
16.783
16.7831
16.7831
16.783
16.783
16.783
16.7829
16.7829
16.7828
16.7827
16.7826
16.7825
16.7823
16.7822
16.782
16.7817
16.7815
16.7812
16.7809
16.7805
16.7801
16.7797
16.7792
16.7787
16.7781
16.7774
16.7767
16.7759
16.7751
16.7743
16.7734
16.7728
17.3642
17.3648
17.3657
17.3665
17.3673
17.3681
17.3688
17.3695
17.3701
17.3706
17.3711
17.3716
17.372
17.3723
17.3726
17.3729
17.3732
17.3734
17.3736
17.3738
17.3739
17.374
17.3741
17.3742
17.3743
17.3744
17.3744
17.3745
17.3745
17.3745
17.3745
17.3745
17.3745
17.3744
17.3744
17.3743
17.3742
17.3741
17.374
17.3739
17.3738
17.3736
17.3734
17.3732
17.3729
17.3726
17.3723
17.372
17.3716
17.3711
17.3706
17.3701
17.3695
17.3688
17.3681
17.3673
17.3665
17.3657
17.3648
17.3642
17.9459
17.9466
17.9474
17.9483
17.9491
17.9498
17.9506
17.9512
17.9518
17.9523
17.9528
17.9533
17.9537
17.954
17.9543
17.9546
17.9549
17.9551
17.9553
17.9555
17.9556
17.9557
17.9558
17.9559
17.956
17.9561
17.9561
17.9562
17.9562
17.9562
17.9562
17.9562
17.9562
17.9561
17.9561
17.956
17.9559
17.9558
17.9557
17.9556
17.9555
17.9553
17.9551
17.9549
17.9546
17.9543
17.954
17.9537
17.9533
17.9528
17.9523
17.9518
17.9512
17.9506
17.9498
17.9491
17.9483
17.9474
17.9466
17.9459
18.5147
18.5154
18.5162
18.5171
18.5179
18.5186
18.5193
18.52
18.5206
18.5211
18.5216
18.522
18.5224
18.5228
18.5231
18.5234
18.5236
18.5238
18.524
18.5242
18.5243
18.5245
18.5246
18.5246
18.5247
18.5248
18.5248
18.5249
18.5249
18.5249
18.5249
18.5249
18.5249
18.5248
18.5248
18.5247
18.5246
18.5246
18.5245
18.5243
18.5242
18.524
18.5238
18.5236
18.5234
18.5231
18.5228
18.5224
18.522
18.5216
18.5211
18.5206
18.52
18.5193
18.5186
18.5179
18.5171
18.5162
18.5154
18.5147
19.0668
19.0675
19.0683
19.0691
19.0699
19.0706
19.0713
19.0719
19.0725
19.073
19.0735
19.0739
19.0743
19.0747
19.075
19.0752
19.0755
19.0757
19.0759
19.0761
19.0762
19.0763
19.0764
19.0765
19.0766
19.0766
19.0767
19.0767
19.0767
19.0768
19.0768
19.0767
19.0767
19.0767
19.0766
19.0766
19.0765
19.0764
19.0763
19.0762
19.0761
19.0759
19.0757
19.0755
19.0752
19.075
19.0747
19.0743
19.0739
19.0735
19.073
19.0725
19.0719
19.0713
19.0706
19.0699
19.0691
19.0683
19.0675
19.0668
19.5976
19.5982
19.599
19.5998
19.6006
19.6013
19.6019
19.6026
19.6031
19.6036
19.6041
19.6045
19.6048
19.6052
19.6055
19.6057
19.606
19.6062
19.6064
19.6065
19.6066
19.6068
19.6069
19.607
19.607
19.6071
19.6071
19.6072
19.6072
19.6072
19.6072
19.6072
19.6072
19.6071
19.6071
19.607
19.607
19.6069
19.6068
19.6066
19.6065
19.6064
19.6062
19.606
19.6057
19.6055
19.6052
19.6048
19.6045
19.6041
19.6036
19.6031
19.6026
19.6019
19.6013
19.6006
19.5998
19.599
19.5982
19.5976
20.1017
20.1023
20.103
20.1038
20.1045
20.1052
20.1058
20.1064
20.1069
20.1074
20.1078
20.1082
20.1086
20.1089
20.1092
20.1094
20.1096
20.1098
20.11
20.1101
20.1103
20.1104
20.1105
20.1106
20.1106
20.1107
20.1107
20.1108
20.1108
20.1108
20.1108
20.1108
20.1108
20.1107
20.1107
20.1106
20.1106
20.1105
20.1104
20.1103
20.1101
20.11
20.1098
20.1096
20.1094
20.1092
20.1089
20.1086
20.1082
20.1078
20.1074
20.1069
20.1064
20.1058
20.1052
20.1045
20.1038
20.103
20.1023
20.1017
20.5728
20.5734
20.5741
20.5748
20.5754
20.5761
20.5766
20.5772
20.5777
20.5781
20.5785
20.5789
20.5792
20.5795
20.5797
20.58
20.5802
20.5804
20.5805
20.5806
20.5808
20.5809
20.581
20.581
20.5811
20.5811
20.5812
20.5812
20.5812
20.5812
20.5812
20.5812
20.5812
20.5812
20.5811
20.5811
20.581
20.581
20.5809
20.5808
20.5806
20.5805
20.5804
20.5802
20.58
20.5797
20.5795
20.5792
20.5789
20.5785
20.5781
20.5777
20.5772
20.5766
20.5761
20.5754
20.5748
20.5741
20.5734
20.5728
21.004
21.0045
21.0051
21.0057
21.0063
21.0069
21.0074
21.0079
21.0083
21.0087
21.0091
21.0094
21.0097
21.0099
21.0102
21.0104
21.0106
21.0107
21.0109
21.011
21.0111
21.0112
21.0113
21.0113
21.0114
21.0114
21.0115
21.0115
21.0115
21.0115
21.0115
21.0115
21.0115
21.0115
21.0114
21.0114
21.0113
21.0113
21.0112
21.0111
21.011
21.0109
21.0107
21.0106
21.0104
21.0102
21.0099
21.0097
21.0094
21.0091
21.0087
21.0083
21.0079
21.0074
21.0069
21.0063
21.0057
21.0051
21.0045
21.004
21.3881
21.3885
21.3891
21.3896
21.3902
21.3906
21.3911
21.3915
21.3919
21.3922
21.3925
21.3928
21.3931
21.3933
21.3935
21.3937
21.3938
21.394
21.3941
21.3942
21.3943
21.3944
21.3944
21.3945
21.3946
21.3946
21.3946
21.3946
21.3947
21.3947
21.3947
21.3947
21.3946
21.3946
21.3946
21.3946
21.3945
21.3944
21.3944
21.3943
21.3942
21.3941
21.394
21.3938
21.3937
21.3935
21.3933
21.3931
21.3928
21.3925
21.3922
21.3919
21.3915
21.3911
21.3906
21.3902
21.3896
21.3891
21.3885
21.3881
21.7198
21.7201
21.7206
21.721
21.7214
21.7218
21.7222
21.7226
21.7229
21.7232
21.7234
21.7236
21.7239
21.724
21.7242
21.7243
21.7245
21.7246
21.7247
21.7248
21.7249
21.7249
21.725
21.725
21.7251
21.7251
21.7251
21.7251
21.7252
21.7252
21.7252
21.7252
21.7251
21.7251
21.7251
21.7251
21.725
21.725
21.7249
21.7249
21.7248
21.7247
21.7246
21.7245
21.7243
21.7242
21.724
21.7239
21.7236
21.7234
21.7232
21.7229
21.7226
21.7222
21.7218
21.7214
21.721
21.7206
21.7201
21.7198
21.9967
21.997
21.9973
21.9977
21.998
21.9983
21.9986
21.9989
21.9991
21.9994
21.9996
21.9997
21.9999
22
22.0002
22.0003
22.0004
22.0005
22.0006
22.0006
22.0007
22.0007
22.0008
22.0008
22.0008
22.0009
22.0009
22.0009
22.0009
22.0009
22.0009
22.0009
22.0009
22.0009
22.0009
22.0008
22.0008
22.0008
22.0007
22.0007
22.0006
22.0006
22.0005
22.0004
22.0003
22.0002
22
21.9999
21.9997
21.9996
21.9994
21.9991
21.9989
21.9986
21.9983
21.998
21.9977
21.9973
21.997
21.9967
22.2214
22.2216
22.2219
22.2222
22.2224
22.2226
22.2229
22.2231
22.2233
22.2234
22.2236
22.2237
22.2238
22.2239
22.224
22.2241
22.2242
22.2242
22.2243
22.2244
22.2244
22.2244
22.2245
22.2245
22.2245
22.2245
22.2245
22.2246
22.2246
22.2246
22.2246
22.2246
22.2246
22.2245
22.2245
22.2245
22.2245
22.2245
22.2244
22.2244
22.2244
22.2243
22.2242
22.2242
22.2241
22.224
22.2239
22.2238
22.2237
22.2236
22.2234
22.2233
22.2231
22.2229
22.2226
22.2224
22.2222
22.2219
22.2216
22.2214
22.4009
22.401
22.4012
22.4014
22.4016
22.4017
22.4019
22.402
22.4022
22.4023
22.4024
22.4025
22.4026
22.4026
22.4027
22.4028
22.4028
22.4029
22.4029
22.4029
22.403
22.403
22.403
22.403
22.4031
22.4031
22.4031
22.4031
22.4031
22.4031
22.4031
22.4031
22.4031
22.4031
22.4031
22.4031
22.403
22.403
22.403
22.403
22.4029
22.4029
22.4029
22.4028
22.4028
22.4027
22.4026
22.4026
22.4025
22.4024
22.4023
22.4022
22.402
22.4019
22.4017
22.4016
22.4014
22.4012
22.401
22.4009
22.5442
22.5443
22.5445
22.5446
22.5447
22.5448
22.5449
22.545
22.5451
22.5452
22.5453
22.5454
22.5454
22.5455
22.5455
22.5456
22.5456
22.5456
22.5456
22.5457
22.5457
22.5457
22.5457
22.5457
22.5457
22.5458
22.5458
22.5458
22.5458
22.5458
22.5458
22.5458
22.5458
22.5458
22.5458
22.5457
22.5457
22.5457
22.5457
22.5457
22.5457
22.5456
22.5456
22.5456
22.5456
22.5455
22.5455
22.5454
22.5454
22.5453
22.5452
22.5451
22.545
22.5449
22.5448
22.5447
22.5446
22.5445
22.5443
22.5442
22.6608
22.6609
22.6609
22.661
22.6611
22.6612
22.6613
22.6613
22.6614
22.6615
22.6615
22.6616
22.6616
22.6616
22.6617
22.6617
22.6617
22.6617
22.6617
22.6618
22.6618
22.6618
22.6618
22.6618
22.6618
22.6618
22.6618
22.6618
22.6618
22.6618
22.6618
22.6618
22.6618
22.6618
22.6618
22.6618
22.6618
22.6618
22.6618
22.6618
22.6618
22.6617
22.6617
22.6617
22.6617
22.6617
22.6616
22.6616
22.6616
22.6615
22.6615
22.6614
22.6613
22.6613
22.6612
22.6611
22.661
22.6609
22.6609
22.6608
22.7582
22.7582
22.7582
22.7583
22.7584
22.7584
22.7585
22.7585
22.7586
22.7586
22.7586
22.7586
22.7587
22.7587
22.7587
22.7587
22.7587
22.7588
22.7588
22.7588
22.7588
22.7588
22.7588
22.7588
22.7588
22.7588
22.7588
22.7588
22.7588
22.7588
22.7588
22.7588
22.7588
22.7588
22.7588
22.7588
22.7588
22.7588
22.7588
22.7588
22.7588
22.7588
22.7588
22.7587
22.7587
22.7587
22.7587
22.7587
22.7586
22.7586
22.7586
22.7586
22.7585
22.7585
22.7584
22.7584
22.7583
22.7582
22.7582
22.7582
22.8418
22.8418
22.8419
22.8419
22.842
22.842
22.842
22.8421
22.8421
22.8421
22.8421
22.8421
22.8422
22.8422
22.8422
22.8422
22.8422
22.8422
22.8422
22.8422
22.8422
22.8422
22.8422
22.8422
22.8422
22.8422
22.8422
22.8422
22.8422
22.8422
22.8422
22.8422
22.8422
22.8422
22.8422
22.8422
22.8422
22.8422
22.8422
22.8422
22.8422
22.8422
22.8422
22.8422
22.8422
22.8422
22.8422
22.8422
22.8421
22.8421
22.8421
22.8421
22.8421
22.842
22.842
22.842
22.8419
22.8419
22.8418
22.8418
22.9156
22.9156
22.9156
22.9156
22.9156
22.9157
22.9157
22.9157
22.9157
22.9157
22.9158
22.9158
22.9158
22.9158
22.9158
22.9158
22.9158
22.9158
22.9158
22.9158
22.9158
22.9158
22.9158
22.9158
22.9158
22.9158
22.9158
22.9158
22.9158
22.9158
22.9158
22.9158
22.9158
22.9158
22.9158
22.9158
22.9158
22.9158
22.9158
22.9158
22.9158
22.9158
22.9158
22.9158
22.9158
22.9158
22.9158
22.9158
22.9158
22.9158
22.9157
22.9157
22.9157
22.9157
22.9157
22.9156
22.9156
22.9156
22.9156
22.9156
22.9819
22.9819
22.9819
22.9819
22.9819
22.9819
22.9819
22.982
22.982
22.982
22.982
22.982
22.982
22.982
22.982
22.982
22.982
22.982
22.982
22.982
22.982
22.982
22.982
22.982
22.982
22.982
22.982
22.982
22.982
22.982
22.982
22.982
22.982
22.982
22.982
22.982
22.982
22.982
22.982
22.982
22.982
22.982
22.982
22.982
22.982
22.982
22.982
22.982
22.982
22.982
22.982
22.982
22.982
22.9819
22.9819
22.9819
22.9819
22.9819
22.9819
22.9819
23.0424
23.0424
23.0424
23.0424
23.0424
23.0424
23.0424
23.0424
23.0424
23.0424
23.0424
23.0424
23.0424
23.0424
23.0424
23.0424
23.0424
23.0424
23.0424
23.0424
23.0424
23.0424
23.0424
23.0424
23.0424
23.0424
23.0424
23.0424
23.0424
23.0424
23.0424
23.0424
23.0424
23.0424
23.0424
23.0424
23.0424
23.0424
23.0424
23.0424
23.0424
23.0424
23.0424
23.0424
23.0424
23.0424
23.0424
23.0424
23.0424
23.0424
23.0424
23.0424
23.0424
23.0424
23.0424
23.0424
23.0424
23.0424
23.0424
23.0424
23.0983
23.0983
23.0983
23.0983
23.0983
23.0983
23.0983
23.0983
23.0983
23.0983
23.0983
23.0983
23.0983
23.0983
23.0983
23.0983
23.0983
23.0982
23.0982
23.0982
23.0982
23.0982
23.0982
23.0982
23.0982
23.0982
23.0982
23.0982
23.0982
23.0982
23.0982
23.0982
23.0982
23.0982
23.0982
23.0982
23.0982
23.0982
23.0982
23.0982
23.0982
23.0982
23.0982
23.0983
23.0983
23.0983
23.0983
23.0983
23.0983
23.0983
23.0983
23.0983
23.0983
23.0983
23.0983
23.0983
23.0983
23.0983
23.0983
23.0983
23.1504
23.1504
23.1504
23.1504
23.1504
23.1504
23.1504
23.1504
23.1504
23.1504
23.1504
23.1503
23.1503
23.1503
23.1503
23.1503
23.1503
23.1503
23.1503
23.1503
23.1503
23.1503
23.1503
23.1503
23.1503
23.1503
23.1503
23.1503
23.1503
23.1503
23.1503
23.1503
23.1503
23.1503
23.1503
23.1503
23.1503
23.1503
23.1503
23.1503
23.1503
23.1503
23.1503
23.1503
23.1503
23.1503
23.1503
23.1503
23.1503
23.1504
23.1504
23.1504
23.1504
23.1504
23.1504
23.1504
23.1504
23.1504
23.1504
23.1504
23.1994
23.1994
23.1994
23.1994
23.1993
23.1993
23.1993
23.1993
23.1993
23.1993
23.1993
23.1993
23.1993
23.1992
23.1992
23.1992
23.1992
23.1992
23.1992
23.1992
23.1992
23.1992
23.1992
23.1992
23.1992
23.1992
23.1992
23.1992
23.1992
23.1992
23.1992
23.1992
23.1992
23.1992
23.1992
23.1992
23.1992
23.1992
23.1992
23.1992
23.1992
23.1992
23.1992
23.1992
23.1992
23.1992
23.1992
23.1993
23.1993
23.1993
23.1993
23.1993
23.1993
23.1993
23.1993
23.1993
23.1994
23.1994
23.1994
23.1994
23.2457
23.2456
23.2456
23.2456
23.2456
23.2456
23.2456
23.2456
23.2456
23.2455
23.2455
23.2455
23.2455
23.2455
23.2455
23.2455
23.2455
23.2455
23.2454
23.2454
23.2454
23.2454
23.2454
23.2454
23.2454
23.2454
23.2454
23.2454
23.2454
23.2454
23.2454
23.2454
23.2454
23.2454
23.2454
23.2454
23.2454
23.2454
23.2454
23.2454
23.2454
23.2454
23.2455
23.2455
23.2455
23.2455
23.2455
23.2455
23.2455
23.2455
23.2455
23.2456
23.2456
23.2456
23.2456
23.2456
23.2456
23.2456
23.2456
23.2457
23.2896
23.2896
23.2896
23.2896
23.2896
23.2896
23.2896
23.2895
23.2895
23.2895
23.2895
23.2895
23.2895
23.2894
23.2894
23.2894
23.2894
23.2894
23.2894
23.2894
23.2894
23.2894
23.2894
23.2894
23.2894
23.2894
23.2894
23.2894
23.2893
23.2893
23.2893
23.2893
23.2894
23.2894
23.2894
23.2894
23.2894
23.2894
23.2894
23.2894
23.2894
23.2894
23.2894
23.2894
23.2894
23.2894
23.2894
23.2895
23.2895
23.2895
23.2895
23.2895
23.2895
23.2896
23.2896
23.2896
23.2896
23.2896
23.2896
23.2896
23.3316
23.3316
23.3316
23.3316
23.3316
23.3316
23.3315
23.3315
23.3315
23.3315
23.3315
23.3315
23.3314
23.3314
23.3314
23.3314
23.3314
23.3314
23.3314
23.3314
23.3314
23.3313
23.3313
23.3313
23.3313
23.3313
23.3313
23.3313
23.3313
23.3313
23.3313
23.3313
23.3313
23.3313
23.3313
23.3313
23.3313
23.3313
23.3313
23.3314
23.3314
23.3314
23.3314
23.3314
23.3314
23.3314
23.3314
23.3314
23.3315
23.3315
23.3315
23.3315
23.3315
23.3315
23.3316
23.3316
23.3316
23.3316
23.3316
23.3316
23.3719
23.3719
23.3719
23.3719
23.3718
23.3718
23.3718
23.3718
23.3718
23.3717
23.3717
23.3717
23.3717
23.3717
23.3717
23.3716
23.3716
23.3716
23.3716
23.3716
23.3716
23.3716
23.3716
23.3716
23.3716
23.3716
23.3716
23.3716
23.3716
23.3716
23.3716
23.3716
23.3716
23.3716
23.3716
23.3716
23.3716
23.3716
23.3716
23.3716
23.3716
23.3716
23.3716
23.3716
23.3716
23.3717
23.3717
23.3717
23.3717
23.3717
23.3717
23.3718
23.3718
23.3718
23.3718
23.3718
23.3719
23.3719
23.3719
23.3719
23.4107
23.4106
23.4106
23.4106
23.4106
23.4106
23.4105
23.4105
23.4105
23.4105
23.4105
23.4104
23.4104
23.4104
23.4104
23.4104
23.4104
23.4104
23.4103
23.4103
23.4103
23.4103
23.4103
23.4103
23.4103
23.4103
23.4103
23.4103
23.4103
23.4103
23.4103
23.4103
23.4103
23.4103
23.4103
23.4103
23.4103
23.4103
23.4103
23.4103
23.4103
23.4103
23.4104
23.4104
23.4104
23.4104
23.4104
23.4104
23.4104
23.4105
23.4105
23.4105
23.4105
23.4105
23.4106
23.4106
23.4106
23.4106
23.4106
23.4107
23.4481
23.448
23.448
23.448
23.448
23.448
23.4479
23.4479
23.4479
23.4479
23.4479
23.4478
23.4478
23.4478
23.4478
23.4478
23.4478
23.4477
23.4477
23.4477
23.4477
23.4477
23.4477
23.4477
23.4477
23.4477
23.4477
23.4477
23.4477
23.4477
23.4477
23.4477
23.4477
23.4477
23.4477
23.4477
23.4477
23.4477
23.4477
23.4477
23.4477
23.4477
23.4477
23.4478
23.4478
23.4478
23.4478
23.4478
23.4478
23.4479
23.4479
23.4479
23.4479
23.4479
23.448
23.448
23.448
23.448
23.448
23.4481
23.4843
23.4843
23.4842
23.4842
23.4842
23.4842
23.4841
23.4841
23.4841
23.4841
23.4841
23.484
23.484
23.484
23.484