/*--------------------------------*- C++ -*----------------------------------*\
| =========                 |                                                 |
| \\      /  F ield         | foam-extend: Open Source CFD                    |
|  \\    /   O peration     | Version:     4.0                                |
|   \\  /    A nd           | Web:         http://www.foam-extend.org         |
|    \\/     M anipulation  |                                                 |
\*---------------------------------------------------------------------------*/
FoamFile
{
    version     2.0;
    format      ascii;
    class       volScalarField;
    location    "14";
    object      dC1;
}
// * * * * * * * * * * * * * * * * * * * * * * * * * * * * * * * * * * * * * //

dimensions      [0 -1 0 0 0 0 0];

internalField   nonuniform List<scalar> 
6960
(
2.33329e-12
2.33387e-12
2.33405e-12
2.33301e-12
2.33396e-12
2.33442e-12
2.33331e-12
2.33438e-12
2.33387e-12
2.33331e-12
2.33419e-12
2.33268e-12
2.33299e-12
2.33348e-12
2.33456e-12
2.33363e-12
2.33487e-12
2.33402e-12
2.3338e-12
2.33402e-12
2.33449e-12
2.33408e-12
2.3339e-12
2.33308e-12
2.3339e-12
2.33275e-12
2.33359e-12
2.33345e-12
2.33313e-12
2.33302e-12
2.33306e-12
2.33354e-12
2.33446e-12
2.33288e-12
2.33405e-12
2.3342e-12
2.33407e-12
2.3334e-12
2.33307e-12
2.33415e-12
2.33416e-12
2.33384e-12
2.3338e-12
2.33326e-12
2.33396e-12
2.33318e-12
2.33373e-12
2.33365e-12
2.33327e-12
2.33355e-12
2.33362e-12
2.33342e-12
2.33369e-12
2.33445e-12
2.33382e-12
2.33285e-12
2.3338e-12
2.333e-12
2.33436e-12
2.3335e-12
2.99019e-13
2.98977e-13
2.98975e-13
2.99108e-13
2.99021e-13
2.99067e-13
2.99064e-13
2.99099e-13
2.98964e-13
2.99097e-13
2.98991e-13
2.99113e-13
2.98941e-13
2.99026e-13
2.99056e-13
2.99059e-13
2.99001e-13
2.98856e-13
2.98938e-13
2.98955e-13
2.98875e-13
2.99086e-13
2.99077e-13
2.98987e-13
2.98957e-13
2.99045e-13
2.99044e-13
2.98974e-13
2.98986e-13
2.98999e-13
2.99065e-13
2.98974e-13
2.98896e-13
2.99011e-13
2.98921e-13
2.99057e-13
2.99036e-13
2.99011e-13
2.99076e-13
2.98901e-13
2.98914e-13
2.98958e-13
2.9901e-13
2.99179e-13
2.99153e-13
2.98983e-13
2.98954e-13
2.98995e-13
2.98981e-13
2.99041e-13
2.99053e-13
2.99025e-13
2.98988e-13
2.99007e-13
2.99127e-13
2.99109e-13
2.99043e-13
2.99038e-13
2.98995e-13
2.99036e-13
-7.26277e-13
-7.26238e-13
-7.26235e-13
-7.26292e-13
-7.26295e-13
-7.26252e-13
-7.26281e-13
-7.26198e-13
-7.26258e-13
-7.26212e-13
-7.26253e-13
-7.26256e-13
-7.26202e-13
-7.2626e-13
-7.26232e-13
-7.26237e-13
-7.26297e-13
-7.2619e-13
-7.26268e-13
-7.26219e-13
-7.26189e-13
-7.26235e-13
-7.26256e-13
-7.26186e-13
-7.26256e-13
-7.26262e-13
-7.26221e-13
-7.26246e-13
-7.26275e-13
-7.26238e-13
-7.26248e-13
-7.26274e-13
-7.26242e-13
-7.26268e-13
-7.26298e-13
-7.26159e-13
-7.2626e-13
-7.26233e-13
-7.26244e-13
-7.26233e-13
-7.26255e-13
-7.26257e-13
-7.26189e-13
-7.26272e-13
-7.26204e-13
-7.26198e-13
-7.2628e-13
-7.26282e-13
-7.26206e-13
-7.26321e-13
-7.26259e-13
-7.26258e-13
-7.26242e-13
-7.26248e-13
-7.26273e-13
-7.26301e-13
-7.26224e-13
-7.26248e-13
-7.26242e-13
-7.26184e-13
-2.00969e-12
-2.00968e-12
-2.00966e-12
-2.00967e-12
-2.00971e-12
-2.00968e-12
-2.00969e-12
-2.00971e-12
-2.00967e-12
-2.00974e-12
-2.00965e-12
-2.00974e-12
-2.00969e-12
-2.00976e-12
-2.00971e-12
-2.00968e-12
-2.00967e-12
-2.00968e-12
-2.00967e-12
-2.0097e-12
-2.0097e-12
-2.0097e-12
-2.00968e-12
-2.00972e-12
-2.00967e-12
-2.00967e-12
-2.0097e-12
-2.00969e-12
-2.00968e-12
-2.00965e-12
-2.00973e-12
-2.00968e-12
-2.00966e-12
-2.00967e-12
-2.00966e-12
-2.00972e-12
-2.0097e-12
-2.0097e-12
-2.00971e-12
-2.00965e-12
-2.00966e-12
-2.0097e-12
-2.00972e-12
-2.00971e-12
-2.00971e-12
-2.00974e-12
-2.00972e-12
-2.00967e-12
-2.00967e-12
-2.00969e-12
-2.00968e-12
-2.00969e-12
-2.00967e-12
-2.00968e-12
-2.0097e-12
-2.00972e-12
-2.00966e-12
-2.0097e-12
-2.00969e-12
-2.00965e-12
-3.44076e-12
-3.44077e-12
-3.44076e-12
-3.4408e-12
-3.44076e-12
-3.44078e-12
-3.44079e-12
-3.44078e-12
-3.44074e-12
-3.44074e-12
-3.44076e-12
-3.44074e-12
-3.44077e-12
-3.44075e-12
-3.44076e-12
-3.44077e-12
-3.44075e-12
-3.44077e-12
-3.44078e-12
-3.44076e-12
-3.44076e-12
-3.44075e-12
-3.44077e-12
-3.44075e-12
-3.44076e-12
-3.44077e-12
-3.44075e-12
-3.44077e-12
-3.44077e-12
-3.4408e-12
-3.44077e-12
-3.44076e-12
-3.44078e-12
-3.44074e-12
-3.44076e-12
-3.44075e-12
-3.44076e-12
-3.44078e-12
-3.44077e-12
-3.44077e-12
-3.4408e-12
-3.44077e-12
-3.44077e-12
-3.44077e-12
-3.44075e-12
-3.44075e-12
-3.44077e-12
-3.44078e-12
-3.44076e-12
-3.44075e-12
-3.4408e-12
-3.44076e-12
-3.44079e-12
-3.44079e-12
-3.44077e-12
-3.44078e-12
-3.44079e-12
-3.44076e-12
-3.44076e-12
-3.44077e-12
-4.60092e-12
-4.60094e-12
-4.60092e-12
-4.60091e-12
-4.60091e-12
-4.60091e-12
-4.60091e-12
-4.60088e-12
-4.60093e-12
-4.60092e-12
-4.60091e-12
-4.60095e-12
-4.60094e-12
-4.60093e-12
-4.60091e-12
-4.60091e-12
-4.60093e-12
-4.60092e-12
-4.60091e-12
-4.60095e-12
-4.60092e-12
-4.60093e-12
-4.60088e-12
-4.60092e-12
-4.60094e-12
-4.60093e-12
-4.60095e-12
-4.60093e-12
-4.60093e-12
-4.60092e-12
-4.6009e-12
-4.60092e-12
-4.60089e-12
-4.60094e-12
-4.60093e-12
-4.60091e-12
-4.60089e-12
-4.60093e-12
-4.60091e-12
-4.60095e-12
-4.60089e-12
-4.60091e-12
-4.60091e-12
-4.60092e-12
-4.60093e-12
-4.60094e-12
-4.60091e-12
-4.60091e-12
-4.60092e-12
-4.60093e-12
-4.60093e-12
-4.60093e-12
-4.60092e-12
-4.60092e-12
-4.60092e-12
-4.60093e-12
-4.60091e-12
-4.60092e-12
-4.60093e-12
-4.60093e-12
-4.68802e-12
-4.688e-12
-4.68801e-12
-4.68802e-12
-4.68802e-12
-4.68801e-12
-4.68801e-12
-4.68804e-12
-4.68802e-12
-4.68803e-12
-4.68804e-12
-4.68801e-12
-4.68802e-12
-4.68803e-12
-4.68801e-12
-4.68803e-12
-4.68804e-12
-4.68802e-12
-4.68802e-12
-4.688e-12
-4.68801e-12
-4.68802e-12
-4.68805e-12
-4.688e-12
-4.68801e-12
-4.68804e-12
-4.68801e-12
-4.68802e-12
-4.68804e-12
-4.68802e-12
-4.68801e-12
-4.68803e-12
-4.68807e-12
-4.68801e-12
-4.68801e-12
-4.68802e-12
-4.68804e-12
-4.68804e-12
-4.68804e-12
-4.68799e-12
-4.68804e-12
-4.68801e-12
-4.68802e-12
-4.68803e-12
-4.68802e-12
-4.68799e-12
-4.68803e-12
-4.68801e-12
-4.68803e-12
-4.68805e-12
-4.68803e-12
-4.688e-12
-4.68802e-12
-4.68801e-12
-4.68804e-12
-4.688e-12
-4.68803e-12
-4.68802e-12
-4.68804e-12
-4.68801e-12
-2.8246e-12
-2.82459e-12
-2.82464e-12
-2.82461e-12
-2.82462e-12
-2.8246e-12
-2.82462e-12
-2.8246e-12
-2.82463e-12
-2.82461e-12
-2.82459e-12
-2.82462e-12
-2.82459e-12
-2.8246e-12
-2.82464e-12
-2.82461e-12
-2.8246e-12
-2.8246e-12
-2.82462e-12
-2.82462e-12
-2.8246e-12
-2.82461e-12
-2.82457e-12
-2.82462e-12
-2.82459e-12
-2.8246e-12
-2.82462e-12
-2.8246e-12
-2.82462e-12
-2.82462e-12
-2.8246e-12
-2.82461e-12
-2.82458e-12
-2.82462e-12
-2.82462e-12
-2.8246e-12
-2.8246e-12
-2.8246e-12
-2.82461e-12
-2.8246e-12
-2.82463e-12
-2.82462e-12
-2.8246e-12
-2.82462e-12
-2.82461e-12
-2.82464e-12
-2.82462e-12
-2.82461e-12
-2.82462e-12
-2.8246e-12
-2.82459e-12
-2.82463e-12
-2.82461e-12
-2.82464e-12
-2.82457e-12
-2.82461e-12
-2.82461e-12
-2.82461e-12
-2.82461e-12
-2.82462e-12
1.05145e-12
1.05142e-12
1.05145e-12
1.05144e-12
1.05147e-12
1.05148e-12
1.05145e-12
1.05146e-12
1.05146e-12
1.05148e-12
1.05145e-12
1.05149e-12
1.05142e-12
1.05143e-12
1.05147e-12
1.05146e-12
1.05145e-12
1.05145e-12
1.05149e-12
1.05146e-12
1.05143e-12
1.05147e-12
1.05143e-12
1.05146e-12
1.05146e-12
1.05145e-12
1.05147e-12
1.05146e-12
1.05145e-12
1.05145e-12
1.05146e-12
1.05147e-12
1.05144e-12
1.05146e-12
1.05147e-12
1.05142e-12
1.05147e-12
1.05145e-12
1.05147e-12
1.05143e-12
1.05147e-12
1.0514e-12
1.05145e-12
1.05149e-12
1.05146e-12
1.05147e-12
1.05146e-12
1.05146e-12
1.05147e-12
1.05144e-12
1.05143e-12
1.05147e-12
1.05143e-12
1.05151e-12
1.05145e-12
1.05144e-12
1.05145e-12
1.05146e-12
1.05149e-12
1.05149e-12
5.23342e-12
5.23346e-12
5.2334e-12
5.2334e-12
5.23337e-12
5.23337e-12
5.2334e-12
5.23341e-12
5.2334e-12
5.23338e-12
5.23339e-12
5.23334e-12
5.23345e-12
5.23341e-12
5.23341e-12
5.23341e-12
5.23342e-12
5.23342e-12
5.23336e-12
5.23339e-12
5.23341e-12
5.2334e-12
5.23341e-12
5.23342e-12
5.23337e-12
5.23341e-12
5.23339e-12
5.2334e-12
5.23341e-12
5.23341e-12
5.23339e-12
5.23338e-12
5.2334e-12
5.23345e-12
5.23339e-12
5.23342e-12
5.23341e-12
5.23345e-12
5.23338e-12
5.2334e-12
5.23339e-12
5.23344e-12
5.23341e-12
5.23341e-12
5.23339e-12
5.23337e-12
5.23338e-12
5.23342e-12
5.23339e-12
5.23341e-12
5.23343e-12
5.2334e-12
5.23343e-12
5.23338e-12
5.2334e-12
5.23341e-12
5.23341e-12
5.23338e-12
5.23337e-12
5.23337e-12
6.60484e-12
6.60482e-12
6.60487e-12
6.60488e-12
6.60488e-12
6.60488e-12
6.60485e-12
6.60485e-12
6.60486e-12
6.60483e-12
6.60483e-12
6.60491e-12
6.60481e-12
6.60483e-12
6.60482e-12
6.60486e-12
6.60483e-12
6.60483e-12
6.60484e-12
6.60486e-12
6.60485e-12
6.60485e-12
6.60487e-12
6.60487e-12
6.60486e-12
6.60486e-12
6.60483e-12
6.60486e-12
6.60482e-12
6.60485e-12
6.60486e-12
6.60486e-12
6.60483e-12
6.6048e-12
6.60487e-12
6.60485e-12
6.60485e-12
6.60484e-12
6.60487e-12
6.60489e-12
6.60486e-12
6.60485e-12
6.60485e-12
6.60482e-12
6.60486e-12
6.60488e-12
6.60489e-12
6.60485e-12
6.60486e-12
6.60488e-12
6.60483e-12
6.60489e-12
6.60483e-12
6.60484e-12
6.60483e-12
6.60487e-12
6.60487e-12
6.60487e-12
6.60488e-12
6.60486e-12
3.12355e-12
3.12355e-12
3.12356e-12
3.12352e-12
3.12352e-12
3.12353e-12
3.12354e-12
3.12357e-12
3.12352e-12
3.12359e-12
3.12355e-12
3.12348e-12
3.12358e-12
3.12359e-12
3.12358e-12
3.12354e-12
3.12357e-12
3.12358e-12
3.12356e-12
3.12355e-12
3.12358e-12
3.12356e-12
3.12352e-12
3.12351e-12
3.12354e-12
3.12356e-12
3.12358e-12
3.12353e-12
3.12355e-12
3.12355e-12
3.12354e-12
3.12352e-12
3.12359e-12
3.12358e-12
3.12355e-12
3.12357e-12
3.12357e-12
3.12357e-12
3.12357e-12
3.12352e-12
3.12355e-12
3.12355e-12
3.12356e-12
3.12359e-12
3.12356e-12
3.12354e-12
3.12354e-12
3.12357e-12
3.12355e-12
3.12355e-12
3.12356e-12
3.12353e-12
3.12357e-12
3.12357e-12
3.1236e-12
3.12357e-12
3.12353e-12
3.12354e-12
3.12351e-12
3.12351e-12
-3.49444e-12
-3.49446e-12
-3.49444e-12
-3.49443e-12
-3.49443e-12
-3.49443e-12
-3.49444e-12
-3.49446e-12
-3.49442e-12
-3.49445e-12
-3.49443e-12
-3.49446e-12
-3.49443e-12
-3.49451e-12
-3.49447e-12
-3.49447e-12
-3.49446e-12
-3.49446e-12
-3.4945e-12
-3.49444e-12
-3.49451e-12
-3.49445e-12
-3.49443e-12
-3.49445e-12
-3.49445e-12
-3.49447e-12
-3.49445e-12
-3.49448e-12
-3.49444e-12
-3.49449e-12
-3.49444e-12
-3.49441e-12
-3.49447e-12
-3.49446e-12
-3.49447e-12
-3.49444e-12
-3.4945e-12
-3.49447e-12
-3.49444e-12
-3.49447e-12
-3.49444e-12
-3.49446e-12
-3.49446e-12
-3.49447e-12
-3.49447e-12
-3.49444e-12
-3.49445e-12
-3.49447e-12
-3.49448e-12
-3.49446e-12
-3.49444e-12
-3.49441e-12
-3.49447e-12
-3.49445e-12
-3.49447e-12
-3.49448e-12
-3.49447e-12
-3.49444e-12
-3.49442e-12
-3.49445e-12
-8.48736e-12
-8.48738e-12
-8.48742e-12
-8.48739e-12
-8.48736e-12
-8.48735e-12
-8.48738e-12
-8.48737e-12
-8.48735e-12
-8.4874e-12
-8.48736e-12
-8.48732e-12
-8.48742e-12
-8.48732e-12
-8.48735e-12
-8.48735e-12
-8.48735e-12
-8.48737e-12
-8.48732e-12
-8.48739e-12
-8.48735e-12
-8.48732e-12
-8.48739e-12
-8.48733e-12
-8.48735e-12
-8.48736e-12
-8.48731e-12
-8.48738e-12
-8.48736e-12
-8.48736e-12
-8.48739e-12
-8.48742e-12
-8.48736e-12
-8.48732e-12
-8.4873e-12
-8.4874e-12
-8.48733e-12
-8.48733e-12
-8.48733e-12
-8.48731e-12
-8.48741e-12
-8.48738e-12
-8.48735e-12
-8.48736e-12
-8.48736e-12
-8.48737e-12
-8.48736e-12
-8.48736e-12
-8.48735e-12
-8.48741e-12
-8.48739e-12
-8.48742e-12
-8.48736e-12
-8.48732e-12
-8.48737e-12
-8.48734e-12
-8.4873e-12
-8.48735e-12
-8.4874e-12
-8.48732e-12
-8.31413e-12
-8.31407e-12
-8.31406e-12
-8.31409e-12
-8.3141e-12
-8.31412e-12
-8.31415e-12
-8.31418e-12
-8.31416e-12
-8.31402e-12
-8.31415e-12
-8.31411e-12
-8.31408e-12
-8.31418e-12
-8.31408e-12
-8.31413e-12
-8.31413e-12
-8.31406e-12
-8.3141e-12
-8.31416e-12
-8.31411e-12
-8.31406e-12
-8.31406e-12
-8.31412e-12
-8.3141e-12
-8.31414e-12
-8.31418e-12
-8.31405e-12
-8.31414e-12
-8.31403e-12
-8.31404e-12
-8.31408e-12
-8.31413e-12
-8.31405e-12
-8.31421e-12
-8.31408e-12
-8.31411e-12
-8.31414e-12
-8.31413e-12
-8.31419e-12
-8.31404e-12
-8.31405e-12
-8.31411e-12
-8.3141e-12
-8.31413e-12
-8.31413e-12
-8.31417e-12
-8.31415e-12
-8.31404e-12
-8.31401e-12
-8.31408e-12
-8.31412e-12
-8.3141e-12
-8.31419e-12
-8.31406e-12
-8.31409e-12
-8.31417e-12
-8.31412e-12
-8.31407e-12
-8.31418e-12
-3.73377e-12
-3.73378e-12
-3.73386e-12
-3.73383e-12
-3.73383e-12
-3.73379e-12
-3.73385e-12
-3.73372e-12
-3.73378e-12
-3.73388e-12
-3.73375e-12
-3.73379e-12
-3.73378e-12
-3.73374e-12
-3.73382e-12
-3.73379e-12
-3.73377e-12
-3.73382e-12
-3.73384e-12
-3.73376e-12
-3.73381e-12
-3.7339e-12
-3.73386e-12
-3.73379e-12
-3.73382e-12
-3.73383e-12
-3.73381e-12
-3.73389e-12
-3.73375e-12
-3.73383e-12
-3.73387e-12
-3.73383e-12
-3.73378e-12
-3.73396e-12
-3.73374e-12
-3.73387e-12
-3.7338e-12
-3.73375e-12
-3.73384e-12
-3.7338e-12
-3.73386e-12
-3.73392e-12
-3.73378e-12
-3.73386e-12
-3.73376e-12
-3.73378e-12
-3.7337e-12
-3.73375e-12
-3.73387e-12
-3.73392e-12
-3.73381e-12
-3.7338e-12
-3.73377e-12
-3.73378e-12
-3.73382e-12
-3.73382e-12
-3.7338e-12
-3.73384e-12
-3.7338e-12
-3.73377e-12
1.6468e-12
1.64668e-12
1.64676e-12
1.64674e-12
1.64674e-12
1.64677e-12
1.64686e-12
1.64675e-12
1.64673e-12
1.64667e-12
1.64681e-12
1.64674e-12
1.6467e-12
1.64669e-12
1.64685e-12
1.64677e-12
1.64675e-12
1.64676e-12
1.6468e-12
1.64671e-12
1.6468e-12
1.64681e-12
1.64671e-12
1.64677e-12
1.64675e-12
1.64673e-12
1.6467e-12
1.64681e-12
1.64667e-12
1.64671e-12
1.64691e-12
1.64676e-12
1.6467e-12
1.64698e-12
1.64671e-12
1.64674e-12
1.64668e-12
1.64671e-12
1.6468e-12
1.64685e-12
1.64687e-12
1.64683e-12
1.64677e-12
1.64678e-12
1.64681e-12
1.64679e-12
1.64665e-12
1.64674e-12
1.6468e-12
1.64678e-12
1.64677e-12
1.64683e-12
1.64673e-12
1.64668e-12
1.64677e-12
1.64671e-12
1.64679e-12
1.64684e-12
1.64676e-12
1.64676e-12
4.92456e-12
4.92468e-12
4.92459e-12
4.92461e-12
4.92461e-12
4.92465e-12
4.92453e-12
4.92455e-12
4.92462e-12
4.92475e-12
4.9245e-12
4.92461e-12
4.92453e-12
4.92474e-12
4.92451e-12
4.92456e-12
4.92463e-12
4.92468e-12
4.92468e-12
4.92469e-12
4.92456e-12
4.92463e-12
4.9247e-12
4.92455e-12
4.92465e-12
4.92471e-12
4.92468e-12
4.9246e-12
4.92466e-12
4.92458e-12
4.92449e-12
4.92459e-12
4.92469e-12
4.92452e-12
4.92468e-12
4.92471e-12
4.92472e-12
4.92459e-12
4.9246e-12
4.92458e-12
4.92443e-12
4.92467e-12
4.92456e-12
4.9246e-12
4.92459e-12
4.9246e-12
4.92462e-12
4.92466e-12
4.9246e-12
4.92473e-12
4.92453e-12
4.92448e-12
4.9246e-12
4.92462e-12
4.92449e-12
4.92469e-12
4.92457e-12
4.92454e-12
4.92465e-12
4.92471e-12
5.5652e-12
5.56498e-12
5.56513e-12
5.56513e-12
5.56501e-12
5.56503e-12
5.56511e-12
5.56508e-12
5.56511e-12
5.56501e-12
5.56502e-12
5.56507e-12
5.56518e-12
5.56502e-12
5.56514e-12
5.56496e-12
5.56504e-12
5.56505e-12
5.56501e-12
5.56497e-12
5.56511e-12
5.56503e-12
5.56492e-12
5.56517e-12
5.56502e-12
5.56503e-12
5.56508e-12
5.56503e-12
5.56512e-12
5.56509e-12
5.56505e-12
5.56513e-12
5.5651e-12
5.56497e-12
5.565e-12
5.56495e-12
5.56488e-12
5.56512e-12
5.56505e-12
5.5651e-12
5.56518e-12
5.56505e-12
5.56508e-12
5.56507e-12
5.56506e-12
5.56504e-12
5.56509e-12
5.56498e-12
5.56504e-12
5.56488e-12
5.56506e-12
5.5651e-12
5.56514e-12
5.56513e-12
5.56519e-12
5.56506e-12
5.56506e-12
5.56508e-12
5.56502e-12
5.565e-12
4.58845e-12
4.58856e-12
4.5885e-12
4.58849e-12
4.58871e-12
4.58857e-12
4.58857e-12
4.58866e-12
4.5886e-12
4.58859e-12
4.58866e-12
4.5886e-12
4.5886e-12
4.5886e-12
4.58861e-12
4.5888e-12
4.5887e-12
4.58853e-12
4.58864e-12
4.58864e-12
4.58854e-12
4.58859e-12
4.58861e-12
4.58855e-12
4.58865e-12
4.58848e-12
4.58859e-12
4.58864e-12
4.58848e-12
4.58868e-12
4.58858e-12
4.58852e-12
4.58856e-12
4.58874e-12
4.58852e-12
4.58864e-12
4.58878e-12
4.58856e-12
4.58848e-12
4.58852e-12
4.58853e-12
4.58851e-12
4.58865e-12
4.58866e-12
4.58863e-12
4.58859e-12
4.58856e-12
4.58861e-12
4.58871e-12
4.58867e-12
4.58875e-12
4.58874e-12
4.58861e-12
4.58861e-12
4.58855e-12
4.58859e-12
4.58861e-12
4.5886e-12
4.5887e-12
4.58862e-12
3.16678e-12
3.16682e-12
3.16683e-12
3.16683e-12
3.16658e-12
3.16676e-12
3.16679e-12
3.16673e-12
3.16671e-12
3.16679e-12
3.16688e-12
3.16678e-12
3.1668e-12
3.16676e-12
3.16682e-12
3.16673e-12
3.16667e-12
3.16694e-12
3.16676e-12
3.16685e-12
3.16688e-12
3.1668e-12
3.16678e-12
3.16677e-12
3.16671e-12
3.167e-12
3.16671e-12
3.16682e-12
3.16685e-12
3.16662e-12
3.16673e-12
3.16685e-12
3.16672e-12
3.16688e-12
3.1669e-12
3.16684e-12
3.16665e-12
3.16678e-12
3.16689e-12
3.16687e-12
3.16679e-12
3.16685e-12
3.16674e-12
3.16663e-12
3.1668e-12
3.16686e-12
3.16671e-12
3.16683e-12
3.16652e-12
3.16677e-12
3.16672e-12
3.16663e-12
3.16669e-12
3.1667e-12
3.16681e-12
3.16685e-12
3.16682e-12
3.16679e-12
3.16659e-12
3.1667e-12
1.95218e-12
1.95214e-12
1.95213e-12
1.95202e-12
1.95214e-12
1.95217e-12
1.95208e-12
1.95212e-12
1.95212e-12
1.9522e-12
1.95192e-12
1.95211e-12
1.952e-12
1.95205e-12
1.95199e-12
1.95206e-12
1.95216e-12
1.95196e-12
1.95211e-12
1.95198e-12
1.95207e-12
1.95214e-12
1.95208e-12
1.95209e-12
1.95214e-12
1.95199e-12
1.95213e-12
1.952e-12
1.952e-12
1.95207e-12
1.95212e-12
1.9521e-12
1.95214e-12
1.95188e-12
1.95202e-12
1.95196e-12
1.95208e-12
1.95222e-12
1.95204e-12
1.95214e-12
1.95211e-12
1.95195e-12
1.95204e-12
1.95222e-12
1.95194e-12
1.95203e-12
1.95211e-12
1.95197e-12
1.95228e-12
1.95203e-12
1.95199e-12
1.95205e-12
1.95216e-12
1.95208e-12
1.95199e-12
1.95203e-12
1.95199e-12
1.95187e-12
1.95213e-12
1.9521e-12
1.11598e-12
1.11605e-12
1.11606e-12
1.11606e-12
1.11625e-12
1.11606e-12
1.11601e-12
1.11613e-12
1.11616e-12
1.11597e-12
1.11602e-12
1.11608e-12
1.1161e-12
1.1162e-12
1.11603e-12
1.11596e-12
1.11611e-12
1.11602e-12
1.11614e-12
1.11614e-12
1.11609e-12
1.11606e-12
1.1161e-12
1.11607e-12
1.11603e-12
1.116e-12
1.11604e-12
1.11601e-12
1.11613e-12
1.11609e-12
1.11614e-12
1.11597e-12
1.11609e-12
1.1161e-12
1.11613e-12
1.11604e-12
1.11616e-12
1.11588e-12
1.11614e-12
1.11606e-12
1.11596e-12
1.11619e-12
1.11614e-12
1.11616e-12
1.11613e-12
1.11606e-12
1.11604e-12
1.11611e-12
1.11596e-12
1.1162e-12
1.1161e-12
1.11608e-12
1.11615e-12
1.11612e-12
1.11608e-12
1.11606e-12
1.11606e-12
1.11635e-12
1.11609e-12
1.11604e-12
6.02589e-13
6.02452e-13
6.0254e-13
6.02675e-13
6.02309e-13
6.02306e-13
6.02477e-13
6.02622e-13
6.02492e-13
6.02614e-13
6.027e-13
6.02549e-13
6.02722e-13
6.02494e-13
6.026e-13
6.0265e-13
6.02455e-13
6.02699e-13
6.02417e-13
6.02544e-13
6.0247e-13
6.02385e-13
6.02534e-13
6.02419e-13
6.02675e-13
6.02706e-13
6.02577e-13
6.02763e-13
6.02501e-13
6.02498e-13
6.02414e-13
6.02642e-13
6.02492e-13
6.02616e-13
6.02421e-13
6.02585e-13
6.02522e-13
6.02747e-13
6.02554e-13
6.02643e-13
6.02516e-13
6.02441e-13
6.02478e-13
6.02509e-13
6.02523e-13
6.02482e-13
6.02505e-13
6.02513e-13
6.02693e-13
6.02504e-13
6.02544e-13
6.02512e-13
6.02487e-13
6.02407e-13
6.02449e-13
6.0265e-13
6.02548e-13
6.02381e-13
6.02574e-13
6.02553e-13
3.06395e-13
3.06493e-13
3.06391e-13
3.06507e-13
3.06644e-13
3.06641e-13
3.06429e-13
3.06436e-13
3.06615e-13
3.06362e-13
3.06397e-13
3.06404e-13
3.06131e-13
3.06428e-13
3.06578e-13
3.0626e-13
3.06487e-13
3.06301e-13
3.0656e-13
3.06382e-13
3.06363e-13
3.06643e-13
3.06442e-13
3.06572e-13
3.06325e-13
3.06366e-13
3.06482e-13
3.06415e-13
3.064e-13
3.06494e-13
3.06517e-13
3.06387e-13
3.06424e-13
3.06349e-13
3.066e-13
3.06407e-13
3.0653e-13
3.06366e-13
3.06471e-13
3.06232e-13
3.06534e-13
3.06527e-13
3.06442e-13
3.06434e-13
3.06559e-13
3.06589e-13
3.06626e-13
3.06517e-13
3.06353e-13
3.06477e-13
3.06447e-13
3.0646e-13
3.06385e-13
3.06852e-13
3.06541e-13
3.06373e-13
3.06543e-13
3.0649e-13
3.06532e-13
3.06407e-13
1.42326e-13
1.42147e-13
1.42419e-13
1.42021e-13
1.4207e-13
1.42086e-13
1.42341e-13
1.42343e-13
1.42103e-13
1.42239e-13
1.42266e-13
1.42156e-13
1.42467e-13
1.42142e-13
1.42034e-13
1.42286e-13
1.42262e-13
1.4245e-13
1.42338e-13
1.42205e-13
1.42344e-13
1.4213e-13
1.42209e-13
1.42265e-13
1.42369e-13
1.42352e-13
1.42182e-13
1.42086e-13
1.4241e-13
1.42276e-13
1.42229e-13
1.4238e-13
1.42439e-13
1.42448e-13
1.42111e-13
1.42358e-13
1.42282e-13
1.42367e-13
1.4238e-13
1.42348e-13
1.42244e-13
1.42095e-13
1.42315e-13
1.42291e-13
1.42225e-13
1.42188e-13
1.42188e-13
1.42158e-13
1.42382e-13
1.42203e-13
1.42238e-13
1.42268e-13
1.42456e-13
1.41909e-13
1.4216e-13
1.4241e-13
1.42184e-13
1.42287e-13
1.42009e-13
1.42181e-13
5.39425e-14
5.40813e-14
5.3887e-14
5.42548e-14
5.41312e-14
5.39685e-14
5.38423e-14
5.38961e-14
5.39603e-14
5.40141e-14
5.40353e-14
5.40549e-14
5.39018e-14
5.40119e-14
5.40379e-14
5.40249e-14
5.408e-14
5.37942e-14
5.38423e-14
5.41117e-14
5.39555e-14
5.3923e-14
5.39339e-14
5.38593e-14
5.38653e-14
5.39169e-14
5.40601e-14
5.40366e-14
5.38896e-14
5.38953e-14
5.39794e-14
5.39286e-14
5.38636e-14
5.38393e-14
5.40878e-14
5.4152e-14
5.38545e-14
5.38502e-14
5.37764e-14
5.40674e-14
5.39022e-14
5.41459e-14
5.39863e-14
5.38189e-14
5.39894e-14
5.39304e-14
5.39061e-14
5.37756e-14
5.41173e-14
5.38822e-14
5.42092e-14
5.41693e-14
5.37552e-14
5.41676e-14
5.41186e-14
5.40032e-14
5.41065e-14
5.38363e-14
5.41516e-14
5.40024e-14
8.1094e-15
8.20611e-15
8.16881e-15
7.99534e-15
7.89473e-15
8.21825e-15
8.26769e-15
8.00792e-15
8.21999e-15
8.1068e-15
8.09205e-15
8.24557e-15
8.20481e-15
8.18356e-15
8.18529e-15
8.16144e-15
7.97452e-15
8.17705e-15
8.16231e-15
7.76766e-15
8.26899e-15
8.24601e-15
8.32884e-15
8.16534e-15
8.14366e-15
8.22259e-15
7.93419e-15
8.41775e-15
8.31887e-15
8.23343e-15
8.17749e-15
8.46979e-15
8.23517e-15
8.20091e-15
8.07687e-15
7.89863e-15
8.25945e-15
8.2343e-15
8.41818e-15
8.18529e-15
8.25858e-15
8.18659e-15
7.97236e-15
8.30152e-15
8.11894e-15
8.20351e-15
8.36354e-15
8.34272e-15
7.89429e-15
8.27246e-15
7.88822e-15
7.9394e-15
8.29154e-15
8.18789e-15
8.06256e-15
8.17749e-15
8.21088e-15
8.33621e-15
8.22909e-15
8.21739e-15
-1.43835e-14
-1.44654e-14
-1.44771e-14
-1.44242e-14
-1.43388e-14
-1.45994e-14
-1.46779e-14
-1.43171e-14
-1.45413e-14
-1.44151e-14
-1.45478e-14
-1.45231e-14
-1.44368e-14
-1.45747e-14
-1.45101e-14
-1.47551e-14
-1.42841e-14
-1.44307e-14
-1.43861e-14
-1.41692e-14
-1.45261e-14
-1.44372e-14
-1.46072e-14
-1.44351e-14
-1.45379e-14
-1.46176e-14
-1.44173e-14
-1.46463e-14
-1.47586e-14
-1.44108e-14
-1.44628e-14
-1.47859e-14
-1.45075e-14
-1.4524e-14
-1.45435e-14
-1.43765e-14
-1.45539e-14
-1.45313e-14
-1.4645e-14
-1.46107e-14
-1.44476e-14
-1.46506e-14
-1.44598e-14
-1.46146e-14
-1.45916e-14
-1.44728e-14
-1.45114e-14
-1.44103e-14
-1.4259e-14
-1.44897e-14
-1.44164e-14
-1.43548e-14
-1.45426e-14
-1.46714e-14
-1.43826e-14
-1.44286e-14
-1.46927e-14
-1.46697e-14
-1.45439e-14
-1.47196e-14
-2.49388e-14
-2.483e-14
-2.49748e-14
-2.46595e-14
-2.48265e-14
-2.483e-14
-2.49119e-14
-2.48196e-14
-2.4676e-14
-2.48863e-14
-2.47558e-14
-2.50702e-14
-2.49982e-14
-2.46947e-14
-2.48941e-14
-2.4745e-14
-2.49778e-14
-2.47671e-14
-2.5016e-14
-2.49709e-14
-2.49666e-14
-2.49332e-14
-2.4954e-14
-2.47428e-14
-2.47684e-14
-2.47961e-14
-2.49661e-14
-2.49614e-14
-2.47515e-14
-2.51396e-14
-2.48655e-14
-2.49223e-14
-2.48083e-14
-2.48131e-14
-2.48634e-14
-2.49475e-14
-2.48412e-14
-2.47354e-14
-2.48313e-14
-2.47844e-14
-2.49596e-14
-2.47411e-14
-2.46591e-14
-2.47606e-14
-2.46934e-14
-2.48959e-14
-2.49254e-14
-2.50121e-14
-2.49778e-14
-2.48599e-14
-2.4843e-14
-2.49982e-14
-2.48339e-14
-2.4732e-14
-2.49275e-14
-2.51136e-14
-2.47181e-14
-2.46214e-14
-2.49982e-14
-2.46231e-14
-2.85726e-14
-2.87223e-14
-2.87201e-14
-2.90072e-14
-2.88411e-14
-2.88315e-14
-2.85666e-14
-2.89196e-14
-2.89599e-14
-2.88107e-14
-2.86741e-14
-2.859e-14
-2.87314e-14
-2.89261e-14
-2.87431e-14
-2.87864e-14
-2.88016e-14
-2.87218e-14
-2.8652e-14
-2.86307e-14
-2.86811e-14
-2.87687e-14
-2.87331e-14
-2.89335e-14
-2.87925e-14
-2.86732e-14
-2.87244e-14
-2.8665e-14
-2.87058e-14
-2.87088e-14
-2.89239e-14
-2.86776e-14
-2.8724e-14
-2.87999e-14
-2.85518e-14
-2.87656e-14
-2.88576e-14
-2.8953e-14
-2.87253e-14
-2.88055e-14
-2.86412e-14
-2.8806e-14
-2.89968e-14
-2.8881e-14
-2.88424e-14
-2.87795e-14
-2.88081e-14
-2.85921e-14
-2.85978e-14
-2.88237e-14
-2.88749e-14
-2.85848e-14
-2.89001e-14
-2.86394e-14
-2.88354e-14
-2.84408e-14
-2.88415e-14
-2.88827e-14
-2.84555e-14
-2.89313e-14
-2.93433e-14
-2.94621e-14
-2.94278e-14
-2.92943e-14
-2.9175e-14
-2.91555e-14
-2.95029e-14
-2.93875e-14
-2.9188e-14
-2.93199e-14
-2.94985e-14
-2.93949e-14
-2.90991e-14
-2.93572e-14
-2.96347e-14
-2.92531e-14
-2.92535e-14
-2.93758e-14
-2.9345e-14
-2.96117e-14
-2.95076e-14
-2.93181e-14
-2.9123e-14
-2.9175e-14
-2.94647e-14
-2.92743e-14
-2.9394e-14
-2.93155e-14
-2.92305e-14
-2.92431e-14
-2.92132e-14
-2.93797e-14
-2.92644e-14
-2.92648e-14
-2.96e-14
-2.9306e-14
-2.92188e-14
-2.92626e-14
-2.9319e-14
-2.93481e-14
-2.943e-14
-2.92934e-14
-2.91702e-14
-2.92683e-14
-2.91251e-14
-2.92912e-14
-2.92995e-14
-2.9476e-14
-2.96243e-14
-2.92362e-14
-2.91277e-14
-2.93923e-14
-2.90835e-14
-2.96855e-14
-2.92665e-14
-2.95037e-14
-2.93958e-14
-2.94001e-14
-2.94803e-14
-2.93038e-14
-2.85614e-14
-2.8273e-14
-2.82842e-14
-2.81927e-14
-2.85444e-14
-2.83103e-14
-2.84577e-14
-2.82257e-14
-2.82547e-14
-2.81316e-14
-2.84091e-14
-2.80813e-14
-2.85943e-14
-2.8371e-14
-2.7988e-14
-2.82053e-14
-2.84352e-14
-2.85579e-14
-2.82738e-14
-2.79694e-14
-2.81238e-14
-2.84842e-14
-2.85817e-14
-2.85609e-14
-2.81233e-14
-2.82318e-14
-2.81923e-14
-2.84074e-14
-2.84174e-14
-2.83215e-14
-2.81424e-14
-2.81572e-14
-2.84391e-14
-2.84343e-14
-2.8191e-14
-2.84924e-14
-2.8482e-14
-2.82652e-14
-2.84482e-14
-2.82482e-14
-2.85267e-14
-2.82426e-14
-2.84347e-14
-2.83181e-14
-2.84551e-14
-2.82886e-14
-2.8178e-14
-2.82157e-14
-2.81728e-14
-2.82972e-14
-2.85405e-14
-2.81272e-14
-2.86368e-14
-2.81173e-14
-2.83332e-14
-2.8289e-14
-2.8155e-14
-2.8302e-14
-2.82721e-14
-2.83289e-14
-2.62785e-14
-2.64302e-14
-2.63648e-14
-2.64727e-14
-2.64337e-14
-2.64025e-14
-2.62238e-14
-2.61379e-14
-2.65595e-14
-2.66375e-14
-2.62026e-14
-2.67694e-14
-2.64489e-14
-2.62416e-14
-2.65742e-14
-2.66133e-14
-2.63921e-14
-2.64324e-14
-2.63552e-14
-2.67494e-14
-2.64823e-14
-2.6334e-14
-2.63908e-14
-2.64649e-14
-2.65621e-14
-2.65131e-14
-2.65885e-14
-2.61757e-14
-2.64038e-14
-2.65027e-14
-2.64727e-14
-2.66931e-14
-2.64428e-14
-2.65157e-14
-2.65573e-14
-2.61605e-14
-2.61245e-14
-2.67642e-14
-2.62654e-14
-2.64337e-14
-2.62082e-14
-2.65534e-14
-2.62707e-14
-2.65252e-14
-2.63648e-14
-2.64489e-14
-2.62481e-14
-2.64116e-14
-2.65764e-14
-2.64853e-14
-2.62641e-14
-2.66731e-14
-2.59567e-14
-2.63478e-14
-2.65239e-14
-2.65599e-14
-2.6687e-14
-2.6252e-14
-2.65252e-14
-2.64476e-14
-2.42822e-14
-2.4408e-14
-2.43681e-14
-2.42376e-14
-2.42562e-14
-2.43841e-14
-2.44787e-14
-2.47098e-14
-2.42683e-14
-2.43004e-14
-2.44587e-14
-2.4078e-14
-2.41395e-14
-2.44184e-14
-2.44401e-14
-2.43529e-14
-2.44197e-14
-2.41534e-14
-2.4441e-14
-2.40806e-14
-2.43364e-14
-2.42944e-14
-2.44219e-14
-2.396e-14
-2.40949e-14
-2.43815e-14
-2.42389e-14
-2.45489e-14
-2.42141e-14
-2.43143e-14
-2.43612e-14
-2.41803e-14
-2.44609e-14
-2.40832e-14
-2.43087e-14
-2.46448e-14
-2.4748e-14
-2.3947e-14
-2.43564e-14
-2.43243e-14
-2.45398e-14
-2.42141e-14
-2.44761e-14
-2.40949e-14
-2.43854e-14
-2.41187e-14
-2.46426e-14
-2.44978e-14
-2.41755e-14
-2.43312e-14
-2.43525e-14
-2.40741e-14
-2.45494e-14
-2.44089e-14
-2.42913e-14
-2.40788e-14
-2.41304e-14
-2.47497e-14
-2.44405e-14
-2.40602e-14
-2.21841e-14
-2.21776e-14
-2.21832e-14
-2.22738e-14
-2.23662e-14
-2.19707e-14
-2.21503e-14
-2.19529e-14
-2.23146e-14
-2.21385e-14
-2.206e-14
-2.21394e-14
-2.23623e-14
-2.22712e-14
-2.19295e-14
-2.20288e-14
-2.20375e-14
-2.21546e-14
-2.1956e-14
-2.20934e-14
-2.20561e-14
-2.20431e-14
-2.19122e-14
-2.22947e-14
-2.22283e-14
-2.22765e-14
-2.22305e-14
-2.18172e-14
-2.22821e-14
-2.21533e-14
-2.20583e-14
-2.22708e-14
-2.19846e-14
-2.24547e-14
-2.20358e-14
-2.20097e-14
-2.17972e-14
-2.22244e-14
-2.22934e-14
-2.20323e-14
-2.19226e-14
-2.22426e-14
-2.22986e-14
-2.24183e-14
-2.18553e-14
-2.18102e-14
-2.20028e-14
-2.20943e-14
-2.21754e-14
-2.21025e-14
-2.19416e-14
-2.21875e-14
-2.19915e-14
-2.21268e-14
-2.2227e-14
-2.24404e-14
-2.20635e-14
-2.17886e-14
-2.17994e-14
-2.25276e-14
-1.97784e-14
-1.99133e-14
-1.98552e-14
-2.00582e-14
-1.97945e-14
-2.03388e-14
-2.0138e-14
-2.00673e-14
-1.97563e-14
-1.99081e-14
-2.01371e-14
-1.9955e-14
-1.97949e-14
-1.96397e-14
-2.01393e-14
-2.00014e-14
-1.98153e-14
-2.0131e-14
-2.00686e-14
-1.98994e-14
-2.0053e-14
-2.01904e-14
-1.98105e-14
-1.98812e-14
-1.99263e-14
-1.97542e-14
-1.97047e-14
-2.03722e-14
-1.97039e-14
-1.9971e-14
-1.99094e-14
-1.99307e-14
-1.99315e-14
-1.99628e-14
-1.99099e-14
-1.99701e-14
-2.01267e-14
-2.02139e-14
-1.95872e-14
-2.01302e-14
-2.00655e-14
-2.01289e-14
-1.987e-14
-1.97086e-14
-2.01024e-14
-2.06033e-14
-1.98006e-14
-1.98218e-14
-1.98279e-14
-2.00998e-14
-2.0282e-14
-1.9991e-14
-2.01007e-14
-1.97754e-14
-1.98986e-14
-1.96904e-14
-2.00612e-14
-2.01332e-14
-2.01913e-14
-2.00525e-14
-1.8016e-14
-1.80142e-14
-1.82497e-14
-1.78113e-14
-1.7836e-14
-1.76066e-14
-1.7666e-14
-1.82046e-14
-1.81972e-14
-1.79622e-14
-1.78438e-14
-1.79947e-14
-1.80073e-14
-1.80593e-14
-1.80407e-14
-1.80455e-14
-1.79748e-14
-1.80424e-14
-1.80329e-14
-1.80984e-14
-1.78481e-14
-1.79561e-14
-1.83308e-14
-1.79778e-14
-1.79717e-14
-1.79626e-14
-1.81391e-14
-1.78937e-14
-1.8032e-14
-1.78963e-14
-1.79657e-14
-1.7849e-14
-1.80862e-14
-1.76773e-14
-1.80255e-14
-1.79778e-14
-1.82927e-14
-1.77484e-14
-1.82046e-14
-1.79453e-14
-1.79574e-14
-1.77094e-14
-1.81786e-14
-1.77124e-14
-1.80819e-14
-1.78642e-14
-1.81886e-14
-1.79982e-14
-1.78087e-14
-1.82558e-14
-1.76604e-14
-1.79175e-14
-1.77354e-14
-1.80754e-14
-1.83599e-14
-1.80498e-14
-1.79774e-14
-1.79245e-14
-1.79154e-14
-1.76799e-14
-1.62335e-14
-1.59937e-14
-1.60839e-14
-1.62253e-14
-1.65115e-14
-1.63385e-14
-1.6345e-14
-1.576e-14
-1.61655e-14
-1.63164e-14
-1.61837e-14
-1.61555e-14
-1.62093e-14
-1.60852e-14
-1.58202e-14
-1.58723e-14
-1.63888e-14
-1.59356e-14
-1.61537e-14
-1.61988e-14
-1.61741e-14
-1.58784e-14
-1.60067e-14
-1.61182e-14
-1.60367e-14
-1.61858e-14
-1.61589e-14
-1.60796e-14
-1.61962e-14
-1.61164e-14
-1.59196e-14
-1.60765e-14
-1.60709e-14
-1.63662e-14
-1.6407e-14
-1.6155e-14
-1.59621e-14
-1.63329e-14
-1.61746e-14
-1.63277e-14
-1.62899e-14
-1.627e-14
-1.59707e-14
-1.67128e-14
-1.59625e-14
-1.58294e-14
-1.5992e-14
-1.58792e-14
-1.63311e-14
-1.57682e-14
-1.62288e-14
-1.60119e-14
-1.61147e-14
-1.61772e-14
-1.56849e-14
-1.62114e-14
-1.59295e-14
-1.58792e-14
-1.62548e-14
-1.6368e-14
-1.44667e-14
-1.46844e-14
-1.43188e-14
-1.44754e-14