/*--------------------------------*- C++ -*----------------------------------*\
| =========                 |                                                 |
| \\      /  F ield         | foam-extend: Open Source CFD                    |
|  \\    /   O peration     | Version:     4.0                                |
|   \\  /    A nd           | Web:         http://www.foam-extend.org         |
|    \\/     M anipulation  |                                                 |
\*---------------------------------------------------------------------------*/
FoamFile
{
    version     2.0;
    format      ascii;
    class       surfaceScalarField;
    location    "14";
    object      phi;
}
// * * * * * * * * * * * * * * * * * * * * * * * * * * * * * * * * * * * * * //

dimensions      [0 3 -1 0 0 0 0];

internalField   nonuniform List<scalar> 
13744
(
-7.45665e-09
7.45708e-09
3.76037e-09
-1.1217e-08
9.78287e-11
3.66254e-09
3.19248e-11
6.59043e-11
1.0922e-11
2.10038e-11
5.62241e-12
5.29887e-12
2.94212e-12
2.68019e-12
1.66751e-12
1.27431e-12
8.8899e-13
7.79043e-13
4.15062e-13
4.71845e-13
9.45023e-14
3.20077e-13
-1.24166e-13
2.18492e-13
-2.78025e-13
1.53544e-13
-3.87178e-13
1.108e-13
-4.6158e-13
7.40519e-14
-5.10353e-13
5.07372e-14
-5.38871e-13
2.76446e-14
-5.49699e-13
1.05471e-14
-5.46026e-13
-3.21965e-15
-5.31007e-13
-1.34337e-14
-5.04684e-13
-2.68674e-14
-4.69389e-13
-3.58602e-14
-4.27103e-13
-4.13003e-14
-3.77515e-13
-4.72955e-14
-3.22422e-13
-5.42899e-14
-2.63645e-13
-5.63993e-14
-2.00598e-13
-5.973e-14
-1.34867e-13
-6.50591e-14
-6.82422e-14
-6.51701e-14
-9.77283e-16
-6.79456e-14
7.05173e-14
-7.12763e-14
1.32616e-13
-6.37268e-14
2.00516e-13
-6.76126e-14
2.65851e-13
-6.4948e-14
3.201e-13
-5.4956e-14
3.77447e-13
-5.80647e-14
4.29301e-13
-5.05151e-14
4.67087e-13
-3.95239e-14
5.04674e-13
-3.89688e-14
5.33284e-13
-2.72005e-14
5.43787e-13
-1.15463e-14
5.49749e-13
-8.54872e-15
5.4121e-13
9.32587e-15
5.08188e-13
3.25295e-14
4.61685e-13
4.64073e-14
3.89551e-13
7.4496e-14
2.75869e-13
1.11577e-13
1.24276e-13
1.52767e-13
-9.21262e-14
2.14162e-13
-4.17237e-13
3.25517e-13
-8.88876e-13
4.71623e-13
-1.66511e-12
7.74936e-13
-2.94423e-12
1.27798e-12
-5.62226e-12
2.67952e-12
-1.09196e-11
5.2971e-12
-3.1927e-11
2.10085e-11
-9.78287e-11
6.59046e-11
-3.76036e-09
3.66253e-09
7.45664e-09
-1.1217e-08
7.45664e-09
3.5968e-08
-2.8511e-08
5.2061e-09
1.95449e-08
2.93663e-10
8.57497e-09
9.83079e-11
2.61261e-10
3.39079e-11
8.5402e-11
1.76567e-11
2.1551e-11
9.22617e-12
1.11122e-11
5.31704e-12
5.18241e-12
2.85693e-12
3.2383e-12
1.402e-12
1.93123e-12
3.93079e-13
1.3296e-12
-2.79167e-13
8.90843e-13
-7.65904e-13
6.43485e-13
-1.09887e-12
4.40648e-13
-1.33604e-12
3.12639e-13
-1.48928e-12
2.0095e-13
-1.57925e-12
1.19238e-13
-1.61715e-12
4.82947e-14
-1.61233e-12
-8.43769e-15
-1.56749e-12
-6.35048e-14
-1.4934e-12
-1.01696e-13
-1.39158e-12
-1.38334e-13
-1.26458e-12
-1.69309e-13
-1.11959e-12
-1.98508e-13
-9.58134e-13
-2.18492e-13
-7.81077e-13
-2.37588e-13
-5.95559e-13
-2.49911e-13
-4.01998e-13
-2.62235e-13
-2.00678e-13
-2.71672e-13
4.98892e-16
-2.67897e-13
1.95539e-13
-2.67342e-13
4.08121e-13
-2.70783e-13
5.95302e-13
-2.5413e-13
7.74655e-13
-2.44804e-13
9.64205e-13
-2.43472e-13
1.11938e-12
-2.12164e-13
1.25812e-12
-1.91958e-13
1.39772e-12
-1.73639e-13
1.49338e-12
-1.30118e-13
1.56127e-12
-9.86988e-14
1.61865e-12
-6.51701e-14
1.61729e-12
-2.77556e-15
1.57323e-12
5.26246e-14
1.49582e-12
1.09357e-13
1.33636e-12
2.04614e-13
1.09294e-12
3.12861e-13
7.72486e-13
4.37095e-13
2.79499e-13
6.44929e-13
-3.98999e-13
8.98615e-13
-1.39548e-12
1.32283e-12
-2.85661e-12
1.93112e-12
-5.32285e-12
3.24474e-12
-9.21948e-12
5.18019e-12
-1.76563e-11
1.11142e-11
-3.39138e-11
2.15565e-11
-9.83013e-11
8.53945e-11
-2.93663e-10
2.61258e-10
-5.20611e-09
8.57498e-09
-3.5968e-08
1.95449e-08
-2.85114e-08
2.42981e-08
-5.2809e-08
8.92764e-09
3.49154e-08
4.83241e-10
1.70194e-08
1.673e-10
5.77197e-10
5.87712e-11
1.93932e-10
3.08369e-11
4.94859e-11
1.61927e-11
2.57545e-11
9.44313e-12
1.19319e-11
5.15478e-12
7.52767e-12
2.64513e-12
4.43928e-12
8.84936e-13
3.08842e-12
-2.73629e-13
2.05103e-12
-1.12108e-12
1.4819e-12
-1.69858e-12
1.01896e-12
-2.11339e-12
7.26752e-13
-2.38101e-12
4.68542e-13
-2.54529e-12
2.83162e-13
-2.61694e-12
1.21819e-13
-2.61717e-12
-1.05194e-14
-2.55148e-12
-1.23734e-13
-2.43451e-12
-2.13912e-13
-2.27055e-12
-2.99566e-13
-2.06696e-12
-3.75172e-13
-1.8306e-12
-4.29407e-13
-1.56678e-12
-4.77646e-13
-1.27921e-12
-5.25219e-13
-9.75112e-13
-5.54029e-13
-6.57541e-13
-5.72847e-13
-3.29913e-13
-5.95718e-13
-6.59584e-16
-5.96967e-13
3.27694e-13
-5.95496e-13
6.60467e-13
-6.07348e-13
9.74668e-13
-5.701e-13
1.27577e-12
-5.46369e-13
1.56962e-12
-5.38403e-13
1.83024e-12
-4.73288e-13
2.06347e-12
-4.23273e-13
2.27351e-12
-3.88939e-13
2.43448e-12
-2.94792e-13
2.54839e-12
-2.09444e-13
2.62044e-12
-1.42747e-13
2.61715e-12
-2.47025e-15
2.54252e-12
1.26732e-13
2.38463e-12
2.70561e-13
2.11391e-12
4.79339e-13
1.69597e-12
7.35606e-13
1.12477e-12
1.00475e-12
2.74192e-13
1.49228e-12
-8.87543e-13
2.05727e-12
-2.64153e-12
3.07562e-12
-5.15425e-12
4.44644e-12
-9.44556e-12
7.53236e-12
-1.61888e-11
1.19166e-11
-3.08362e-11
2.57604e-11
-5.87738e-11
4.94933e-11
-1.67296e-10
1.93914e-10
-4.83241e-10
5.77213e-10
-8.92764e-09
1.70194e-08
-2.42981e-08
3.49154e-08
-5.28095e-08
6.51569e-09
-5.93247e-08
7.71926e-09
3.37118e-08
6.60805e-10
2.40778e-08
2.37956e-10
1.00005e-09
8.55543e-11
3.46331e-10
4.51911e-11
8.98508e-11
2.39071e-11
4.70413e-11
1.40898e-11
2.17529e-11
7.83348e-12
1.37825e-11
4.1839e-12
8.08712e-12
1.61533e-12
5.65859e-12
-6.8052e-14
3.73414e-12
-1.304e-12
2.72737e-12
-2.14663e-12
1.86168e-12
-2.75516e-12
1.33403e-12
-3.15013e-12
8.64177e-13
-3.39989e-12
5.30506e-13
-3.51509e-12
2.36443e-13
-3.52941e-12
8.96505e-15
-3.45153e-12
-2.0154e-13
-3.3e-12
-3.68879e-13
-3.0821e-12
-5.17766e-13
-2.81018e-12
-6.44075e-13
-2.49069e-12
-7.50393e-13
-2.13281e-12
-8.37885e-13
-1.74318e-12
-9.11708e-13
-1.32894e-12
-9.65186e-13
-8.95944e-13
-1.01037e-12
-4.50853e-13
-1.03811e-12
-1.19787e-15
-1.04868e-12
4.51231e-13
-1.04506e-12
8.95292e-13
-1.05536e-12
1.32831e-12
-1.0032e-12
1.74294e-12
-9.58351e-13
2.13217e-12
-9.27758e-13
2.49017e-12
-8.3214e-13
2.80989e-12
-7.44585e-13
3.08163e-12
-6.57661e-13
3.29995e-12
-5.13971e-13
3.45179e-12
-3.62946e-13
3.52939e-12
-2.16757e-13
3.51537e-12
1.36904e-14
3.4006e-12
2.4053e-13
3.15058e-12
5.1633e-13
2.75586e-12
8.69541e-13
2.14757e-12
1.34114e-12
1.30456e-12
1.84678e-12
6.88311e-14
2.72921e-12
-1.61439e-12
3.73952e-12
-4.18347e-12
5.64322e-12
-7.83274e-12
8.09585e-12
-1.40886e-11
1.37914e-11
-2.39063e-11
2.17356e-11
-4.51902e-11
4.70467e-11
-8.55533e-11
8.98534e-11
-2.37955e-10
3.4632e-10
-6.60805e-10
1.00006e-09
-7.71926e-09
2.40778e-08
-6.51569e-09
3.37118e-08
-5.93252e-08
5.03475e-09
-6.43595e-08
5.38724e-09
3.33593e-08
8.31941e-10
2.86331e-08
3.09945e-10
1.52205e-09
1.14254e-10
5.42028e-10
6.0757e-11
1.43343e-10
3.24056e-11
7.5385e-11
1.92897e-11
3.48659e-11
1.09207e-11
2.21543e-11
6.04276e-12
1.2965e-11
2.60736e-12
9.09339e-12
3.58848e-13
5.97934e-12
-1.29499e-12
4.38122e-12
-2.42339e-12
2.99324e-12
-3.24294e-12
2.15373e-12
-3.77948e-12
1.40178e-12
-4.12587e-12
8.78228e-13
-4.29571e-12
4.06841e-13
-4.33455e-12
4.46587e-14
-4.25329e-12
-2.86757e-13
-4.07705e-12
-5.46223e-13
-3.81503e-12
-7.77683e-13
-3.4835e-12
-9.77815e-13
-3.09086e-12
-1.14325e-12
-2.64903e-12
-1.27987e-12
-2.16642e-12
-1.39706e-12
-1.6524e-12
-1.48393e-12
-1.11445e-12
-1.54501e-12
-5.61063e-13
-1.59325e-12
-8.74131e-16
-1.6049e-12
5.60847e-13
-1.60474e-12
1.11373e-12
-1.60331e-12
1.65158e-12
-1.53835e-12
2.16584e-12
-1.47518e-12
2.64843e-12
-1.40817e-12
3.09018e-12
-1.271e-12
3.48287e-12
-1.1318e-12
3.81466e-12
-9.89667e-13
4.07698e-12
-7.72327e-13
4.25338e-12
-5.39874e-13
4.33474e-12
-2.96298e-13
4.29605e-12
5.17572e-14
4.12652e-12
4.11171e-13
3.78027e-12
8.68985e-13
3.24383e-12
1.4061e-12
2.42434e-12
2.1619e-12
1.29594e-12
2.97801e-12
-3.57855e-13
4.38367e-12
-2.60641e-12
5.98863e-12
-6.04198e-12
9.08006e-12
-1.09197e-11
1.29715e-11
-1.92885e-11
2.21587e-11
-3.24044e-11
3.48532e-11
-6.07557e-11
7.53973e-11
-1.14253e-10
1.43352e-10
-3.09944e-10
5.42015e-10
-8.3194e-10
1.52206e-09
-5.38724e-09
2.86331e-08
-5.03475e-09
3.33593e-08
-6.43599e-08
8.12096e-09
-7.24804e-08
4.79133e-09
3.66889e-08
9.99921e-10
3.24245e-08
3.83261e-10
2.13871e-09
1.44862e-10
7.8042e-10
7.756e-11
2.10648e-10
4.17181e-11
1.11235e-10
2.50673e-11
5.15186e-11
1.44377e-11
3.27799e-11
8.24043e-12
1.91638e-11
3.87714e-12
1.34577e-11
1.02201e-12
8.83457e-12
-1.07987e-12
6.48021e-12
-2.51624e-12
4.42591e-12
-3.56456e-12
3.2022e-12
-4.2572e-12
2.09709e-12
-4.7127e-12
1.33755e-12
-4.94861e-12
6.40238e-13
-5.02274e-12
1.20695e-13
-4.94829e-12
-3.58734e-13
-4.75762e-12
-7.37646e-13
-4.46175e-12
-1.0792e-12
-4.08079e-12
-1.35895e-12
-3.62551e-12
-1.59627e-12
-3.1104e-12
-1.79542e-12
-2.54544e-12
-1.96063e-12
-1.94261e-12
-2.08198e-12
-1.31077e-12
-2.1767e-12
-6.59932e-13
-2.24695e-12
-6.6867e-16
-2.26812e-12
6.5883e-13
-2.27089e-12
1.31058e-12
-2.25919e-12
1.94158e-12
-2.16852e-12
2.54394e-12
-2.08022e-12
3.11041e-12
-1.97433e-12
3.62466e-12
-1.78721e-12
4.07924e-12
-1.59455e-12
4.46204e-12
-1.37314e-12
4.75751e-12
-1.0739e-12
4.94764e-12
-7.30853e-13
5.02371e-12
-3.75658e-13
4.94901e-12
1.2583e-13
4.71271e-12
6.48023e-13
4.25889e-12
1.31448e-12
3.56561e-12
2.10246e-12
2.51662e-12
3.21016e-12
1.08177e-12
4.40855e-12
-1.0208e-12
6.49158e-12
-3.87676e-12
8.84658e-12
-8.23874e-12
1.34413e-11
-1.44366e-11
1.91743e-11
-2.50666e-11
3.27929e-11
-4.17158e-11
5.15052e-11
-7.75585e-11
1.1124e-10
-1.44861e-10
2.10656e-10
-3.83259e-10
7.80408e-10
-9.9992e-10
2.13871e-09
-4.79133e-09
3.24245e-08
-8.12096e-09
3.66889e-08
-7.24809e-08
8.72469e-09
-8.12051e-08
5.03089e-09
4.03827e-08
1.16255e-09
3.62929e-08
4.5795e-10
2.84331e-09
1.7735e-10
1.06102e-09
9.56138e-11
2.92385e-10
5.18672e-11
1.54976e-10
3.14421e-11
7.19407e-11
1.84014e-11
4.58232e-11
1.07914e-11
2.67757e-11
5.43712e-12
1.88125e-11
1.93261e-12
1.23429e-11
-6.48338e-13
9.05704e-12
-2.41599e-12
6.19283e-12
-3.71136e-12
4.49747e-12
-4.57514e-12
2.95585e-12
-5.15305e-12
1.91188e-12
-5.46685e-12
9.54684e-13
-5.5874e-12
2.43371e-13
-5.53077e-12
-4.13732e-13
-5.33631e-12
-9.26398e-13
-5.01726e-12
-1.39492e-12
-4.59789e-12
-1.77456e-12
-4.09092e-12
-2.10855e-12
-3.51367e-12
-2.37135e-12
-2.87788e-12
-2.59245e-12
-2.19769e-12
-2.76431e-12
-1.48351e-12
-2.8938e-12
-7.4711e-13
-2.98064e-12
-7.11197e-16
-3.01312e-12
7.45796e-13
-3.01478e-12
1.48322e-12
-2.99298e-12
2.19645e-12
-2.88498e-12
2.87613e-12
-2.75525e-12
3.51361e-12
-2.61568e-12
4.0899e-12
-2.36589e-12
4.5961e-12
-2.09536e-12
5.01754e-12
-1.79559e-12
5.33618e-12
-1.38813e-12
5.53003e-12
-9.21554e-13
5.58849e-12
-4.33497e-13
5.4673e-12
2.49873e-13
5.15306e-12
9.62966e-13
4.57705e-12
1.89426e-12
3.71257e-12
2.96931e-12
2.41645e-12
4.50711e-12
6.50512e-13
6.1774e-12
-1.93121e-12
9.06552e-12
-5.43666e-12
1.23493e-11
-1.07895e-11
1.87957e-11
-1.84001e-11
2.67814e-11
-3.14413e-11
4.58256e-11
-5.18646e-11
7.19247e-11
-9.56121e-11
1.54988e-10
-1.77349e-10
2.92395e-10
-4.57948e-10
1.06101e-09
-1.16255e-09
2.84332e-09
-5.03089e-09
3.62929e-08
-8.72469e-09
4.03827e-08
-8.12056e-08
7.88307e-09
-8.90882e-08
5.12467e-09
4.31411e-08
1.31737e-09
4.01002e-08
5.33798e-10
3.62687e-09
2.11669e-10
1.38315e-09
1.14919e-10
3.89136e-10
6.28678e-11
2.07031e-10
3.84277e-11
9.63751e-11
2.28238e-11
6.14252e-11
1.37054e-11
3.58926e-11
7.29549e-12
2.52186e-11
3.09747e-12
1.65381e-11
5.44127e-15
1.21568e-11
-2.11751e-12
8.31533e-12
-3.67887e-12
6.05773e-12
-4.72937e-12
4.00469e-12
-5.44332e-12
2.62543e-12
-5.84725e-12
1.36174e-12
-6.02577e-12
4.14849e-13
-5.99814e-12
-4.45206e-13
-5.8109e-12
-1.11691e-12
-5.47966e-12
-1.72869e-12
-5.03307e-12
-2.22489e-12
-4.48565e-12
-2.65259e-12
-3.85768e-12
-2.99486e-12
-3.16275e-12
-3.29304e-12
-2.41692e-12
-3.50311e-12
-1.63225e-12
-3.68177e-12
-8.22338e-13
-3.79231e-12
-7.8589e-16
-3.83354e-12
8.21027e-13
-3.83809e-12
1.63157e-12
-3.80216e-12
2.41546e-12
-3.67011e-12
3.16098e-12
-3.50196e-12
3.85728e-12
-3.30965e-12
4.48446e-12
-2.9899e-12
5.03128e-12
-2.64307e-12
5.47967e-12
-2.24229e-12
5.81072e-12
-1.71926e-12
5.99758e-12
-1.10931e-12
6.02668e-12
-4.61475e-13
5.84774e-12
4.21906e-13
5.4436e-12
1.36115e-12
4.73122e-12
2.607e-12
3.68021e-12
4.01139e-12
2.11832e-12
6.07289e-12
-3.27381e-15
8.29691e-12
-3.09589e-12
1.21625e-11
-7.29468e-12
1.65532e-11
-1.37035e-11
2.52005e-11
-2.28223e-11
3.5899e-11
-3.84265e-11
6.14364e-11
-6.28651e-11
9.63661e-11
-1.14917e-10
2.07039e-10
-2.11668e-10
3.89144e-10
-5.33796e-10
1.38314e-09
-1.31736e-09
3.62688e-09
-5.12467e-09
4.01002e-08
-7.88307e-09
4.31411e-08
-8.90886e-08
7.1811e-09
-9.62693e-08
5.01249e-09
4.53098e-08
1.46371e-09
4.3649e-08
6.10404e-10
4.48018e-09
2.47747e-10
1.74581e-09
1.35463e-10
5.01414e-10
7.47264e-11
2.67767e-10
4.60315e-11
1.25079e-10
2.77113e-11
7.9743e-11
1.69871e-11
4.66114e-11
9.45582e-12
3.27538e-11
4.51893e-12
2.14804e-11
8.82838e-13
1.5786e-11
-1.62006e-12
1.08259e-11
-3.46694e-12
7.90647e-12
-4.72019e-12
5.26076e-12
-5.58402e-12
3.4904e-12
-6.0906e-12
1.86658e-12
-6.33875e-12
6.68354e-13
-6.35136e-12
-4.29035e-13
-6.1824e-12
-1.28831e-12
-5.84999e-12
-2.06002e-12
-5.38722e-12
-2.68965e-12
-4.81056e-12
-3.22802e-12
-4.14324e-12
-3.66562e-12
-3.40061e-12
-4.03303e-12
-2.6008e-12
-4.31316e-12
-1.75736e-12
-4.52137e-12
-8.85719e-13
-4.66318e-12
-8.25077e-16
-4.71655e-12
8.84341e-13
-4.72115e-12
1.75637e-12
-4.67766e-12
2.59911e-12
-4.50872e-12
3.39876e-12
-4.30033e-12
4.14255e-12
-4.05236e-12
4.80921e-12
-3.6565e-12
5.38537e-12
-3.22193e-12
5.84979e-12
-2.7066e-12
6.18217e-12
-2.05409e-12
6.3509e-12
-1.27862e-12
6.33956e-12
-4.53106e-13
6.09111e-12
6.74044e-13
5.58449e-12
1.87632e-12
4.72202e-12
3.47267e-12
3.4684e-12
5.27e-12
1.62113e-12
7.91665e-12
-8.80617e-13
1.07993e-11
-4.51716e-12
1.57924e-11
-9.45475e-12
2.14894e-11
-1.69852e-11
3.27321e-11
-2.77097e-11
4.66255e-11
-4.60299e-11
7.97512e-11
-7.47236e-11
1.25055e-10
-1.35461e-10
2.6778e-10
-2.47745e-10
5.01427e-10
-6.10402e-10
1.74579e-09
-1.46371e-09
4.48019e-09
-5.01249e-09
4.3649e-08
-7.1811e-09
4.53097e-08
-9.62697e-08
6.76685e-09
-1.03036e-07
4.86678e-09
4.72098e-08
1.60159e-09
4.69142e-08
6.87346e-10
5.39442e-09
2.85489e-10
2.14766e-09
1.57221e-10
6.29687e-10
8.74423e-11
3.37545e-10
5.42551e-11
1.58268e-10
3.3066e-11
1.00934e-10
2.06372e-11
5.90478e-11
1.19174e-11
4.14657e-11
6.19511e-12
2.71992e-11
1.98118e-12
2.00065e-11
-9.27051e-13
1.37273e-11
-3.07941e-12
1.00559e-11
-4.55179e-12
6.73104e-12
-5.57956e-12
4.5199e-12
-6.20135e-12
2.49107e-12
-6.53081e-12
9.96134e-13
-6.59476e-12
-3.68258e-13
-6.45489e-12
-1.42266e-12
-6.13206e-12
-2.37882e-12
-5.66383e-12
-3.15221e-12
-5.06874e-12
-3.82367e-12
-4.37296e-12
-4.36504e-12
-3.59366e-12
-4.81579e-12
-2.75093e-12
-5.14932e-12
-1.85995e-12
-5.41537e-12
-9.37807e-13
-5.58509e-12
-8.50165e-16
-5.66115e-12
9.36297e-13
-5.66414e-12
1.8587e-12
-5.60025e-12
2.74902e-12
-5.39737e-12
3.59162e-12
-5.14979e-12
4.37205e-12
-4.83503e-12
5.0672e-12
-4.35518e-12
5.66186e-12
-3.81432e-12
6.13169e-12
-3.17885e-12
6.45461e-12
-2.37669e-12
6.59431e-12
-1.42642e-12
6.53157e-12
-3.90171e-13
6.20189e-12
1.00257e-12
5.58014e-12
2.49026e-12
4.55365e-12
4.49392e-12
3.08098e-12
6.73524e-12
9.28288e-13
1.00696e-11
-1.97885e-12
1.37092e-11
-6.19317e-12
2.00119e-11
-1.19161e-11
2.72108e-11
-2.06352e-11
4.14537e-11
-3.30643e-11
5.90571e-11
-5.42533e-11
1.0094e-10
-8.74394e-11
1.58247e-10
-1.57218e-10
3.37555e-10
-2.85488e-10
6.29705e-10
-6.87344e-10
2.14764e-09
-1.60158e-09
5.39443e-09
-4.86678e-09
4.69142e-08
-6.76685e-09
4.72098e-08
-1.03037e-07
6.38521e-09
-1.09421e-07
4.73595e-09
4.88591e-08
1.73085e-09
4.99193e-08
7.64227e-10
6.36104e-09
3.24788e-10
2.58711e-09
1.80156e-10
7.74314e-10
1.01009e-10
4.16692e-10
6.30959e-11
1.96174e-10
3.88859e-11
1.25148e-10
2.46524e-11
7.32777e-11
1.46761e-11
5.14506e-11
8.12076e-12
3.37515e-11
3.2943e-12
2.48273e-11
-4.53021e-14
1.70679e-11
-2.52359e-12
1.2538e-11
-4.23174e-12
8.43945e-12
-5.43762e-12
5.72389e-12
-6.18715e-12
3.23274e-12
-6.60939e-12
1.41746e-12
-6.73547e-12
-2.40134e-13
-6.63514e-12
-1.52945e-12
-6.33209e-12
-2.68164e-12
-5.86855e-12
-3.62304e-12
-5.26516e-12
-4.42709e-12
-4.5511e-12
-5.07431e-12
-3.74532e-12
-5.62123e-12
-2.86999e-12
-6.02703e-12
-1.94178e-12
-6.33817e-12
-9.79518e-13
-6.54705e-12
-8.77663e-16
-6.63701e-12
9.77863e-13
-6.63587e-12
1.94028e-12
-6.55961e-12
2.86782e-12
-6.32918e-12
3.74311e-12
-6.0129e-12
4.54995e-12
-5.63754e-12
5.26345e-12
-5.06125e-12
5.86644e-12
-4.41469e-12
6.33158e-12
-3.63611e-12
6.63478e-12
-2.68118e-12
6.73505e-12
-1.52016e-12
6.61011e-12
-2.63289e-13
6.1877e-12
1.42806e-12
5.4383e-12
3.24443e-12
4.23363e-12
5.69885e-12
2.52525e-12
8.45088e-12
4.67066e-14
1.25492e-11
-3.29187e-12
1.70423e-11
-8.11865e-12
2.48391e-11
-1.46746e-11
3.3759e-11
-2.46504e-11
5.14289e-11
-3.88841e-11
7.32881e-11
-6.30939e-11
1.25154e-10
-1.01006e-10
1.96159e-10
-1.80154e-10
4.16704e-10
-3.24787e-10
7.74333e-10
-7.64224e-10
2.58709e-09
-1.73085e-09
6.36106e-09
-4.73594e-09
4.99193e-08
-6.38521e-09
4.88591e-08
-1.09422e-07
5.94854e-09
-1.1537e-07
4.59809e-09
5.02096e-08
1.85127e-09
5.26661e-08
8.40657e-10
7.37166e-09
3.65525e-10
3.06224e-09
2.04229e-10
9.35616e-10
1.15417e-10
5.05505e-10
7.2549e-11
2.39048e-10
4.51673e-11
1.52528e-10
2.90278e-11
8.94161e-11
1.77254e-11
6.27483e-11
1.02883e-11
4.11984e-11
4.81368e-12
3.03089e-11
1.01591e-12
2.08708e-11
-1.80924e-12
1.53616e-11
-3.7701e-12
1.04029e-11
-5.16833e-12
7.12261e-12
-6.058e-12
4.12846e-12
-6.58424e-12
1.94331e-12
-6.78285e-12
-4.36803e-14
-6.7319e-12
-1.57561e-12
-6.45821e-12
-2.95884e-12
-6.00868e-12
-4.06443e-12
-5.40625e-12
-5.02712e-12
-4.68312e-12
-5.79974e-12
-3.86008e-12
-6.4433e-12
-2.96133e-12
-6.92171e-12
-2.00513e-12
-7.2907e-12
-1.01199e-12
-7.54057e-12
-9.08895e-16
-7.64446e-12
1.01019e-12
-7.64909e-12
2.00337e-12
-7.55768e-12
2.95894e-12
-7.28674e-12
3.85769e-12
-6.92138e-12
4.68173e-12
-6.46134e-12
5.40435e-12
-5.78906e-12
6.00645e-12
-5.01874e-12
6.45749e-12
-4.09324e-12
6.73148e-12
-2.95249e-12
6.78244e-12
-1.56705e-12
6.58489e-12
-6.73246e-14
6.05856e-12
1.94976e-12
5.1691e-12
4.12841e-12
3.77201e-12
7.0972e-12
1.81098e-12
1.04092e-11
-1.01434e-12
1.53727e-11
-4.81114e-12
2.08439e-11
-1.0286e-11
3.03129e-11
-1.77238e-11
4.12112e-11
-2.90257e-11
6.27305e-11
-4.51653e-11
8.94267e-11
-7.25468e-11
1.52533e-10
-1.15413e-10
2.39023e-10
-2.04226e-10
5.05521e-10
-3.65524e-10
9.3563e-10
-8.40655e-10
3.06222e-09
-1.85127e-09
7.37166e-09
-4.59809e-09
5.26661e-08
-5.94854e-09
5.02095e-08
-1.1537e-07
5.47515e-09
-1.20845e-07
4.43818e-09
5.12465e-08
1.9627e-09
5.51416e-08
9.16258e-10
8.41809e-09
4.07581e-10
3.57091e-09
2.29395e-10
1.11379e-09
1.30656e-10
6.04243e-10
8.26093e-11
2.87093e-10
5.19061e-11
1.83229e-10
3.37579e-11
1.07567e-10
2.10587e-11
7.54495e-11
1.26893e-11
4.95616e-11
6.52987e-12
3.64604e-11
2.24623e-12
2.51503e-11
-9.47242e-13
1.85571e-11
-3.17811e-12
1.26282e-11
-4.78301e-12
8.73454e-12
-5.82516e-12
5.1688e-12
-6.46629e-12
2.58788e-12
-6.74733e-12
2.38811e-13
-6.75503e-12
-1.5702e-12
-6.51944e-12
-3.19246e-12
-6.09243e-12
-4.49911e-12
-5.49925e-12
-5.62368e-12
-4.7752e-12
-6.52213e-12
-3.94293e-12
-7.27827e-12
-3.02877e-12
-7.83652e-12
-2.05257e-12
-8.27822e-12
-1.0365e-12
-8.55945e-12
-9.57013e-16
-8.6824e-12
1.03455e-12
-8.68781e-12
2.05052e-12
-8.57024e-12
3.02615e-12
-8.25895e-12
3.94038e-12
-7.83449e-12
4.77353e-12
-7.29601e-12
5.49716e-12
-6.50977e-12
6.0901e-12
-5.61295e-12
6.51856e-12
-4.52215e-12
6.75453e-12
-3.19613e-12
6.74692e-12
-1.56494e-12
6.46686e-12
2.15718e-13
5.82572e-12
2.59781e-12
4.78388e-12
5.1729e-12
3.17999e-12
8.70443e-12
9.49053e-13
1.26418e-11
-2.24451e-12
1.85653e-11
-6.52725e-12
2.51281e-11
-1.26869e-11
3.64746e-11
-2.10569e-11
4.95721e-11
-3.37557e-11
7.5431e-11
-5.1904e-11
1.07582e-10
-8.26069e-11
1.83233e-10
-1.30653e-10
2.87068e-10
-2.29392e-10
6.04255e-10
-4.07579e-10
1.11382e-09
-9.16256e-10
3.5709e-09
-1.96269e-09
8.41811e-09
-4.43817e-09
5.51416e-08
-5.47515e-09
5.12465e-08
-1.20845e-07
4.97945e-09
-1.25825e-07
4.25598e-09
5.197e-08
2.06513e-09
5.73324e-08
9.90681e-10
9.49254e-09
4.50841e-10
4.11075e-09
2.55617e-10
1.30903e-09
1.46721e-10
7.13137e-10
9.32749e-11
3.40538e-10
5.91009e-11
2.17406e-10
3.8839e-11
1.27827e-10
2.46704e-11
8.96165e-11
1.53165e-11
5.89132e-11
8.43417e-12
4.33465e-11
3.63592e-12
2.99488e-11
5.18662e-14
2.2136e-11
-2.4667e-12
1.51481e-11
-4.29282e-12
1.05567e-11
-5.49973e-12
6.3746e-12
-6.26641e-12
3.34889e-12
-6.63938e-12
6.10153e-13
-6.71436e-12
-1.49943e-12
-6.52495e-12
-3.38633e-12
-6.12805e-12
-4.88839e-12
-5.5514e-12
-6.19869e-12
-4.83351e-12
-7.24268e-12
-3.99893e-12
-8.10602e-12
-3.07618e-12
-8.75812e-12
-2.08668e-12
-9.2603e-12
-1.05436e-12
-9.58741e-12
-1.01253e-15
-9.73623e-12
1.05227e-12
-9.73827e-12
2.08435e-12
-9.60126e-12
3.0733e-12
-9.24656e-12
3.9962e-12
-8.75593e-12
4.83158e-12
-8.13122e-12
5.54912e-12
-7.22466e-12
6.12559e-12
-6.187e-12
6.52386e-12
-4.92105e-12
6.71378e-12
-3.37943e-12
6.63898e-12
-1.48958e-12
6.26689e-12
5.87908e-13
5.50028e-12
3.35734e-12
4.29378e-12
6.38261e-12
2.46858e-12
1.05266e-11
-5.00135e-14
1.51626e-11
-3.63403e-12
2.2154e-11
-8.43148e-12
2.99214e-11
-1.5314e-11
4.33545e-11
-2.46684e-11
5.89311e-11
-3.88367e-11
8.95938e-11
-5.90986e-11
1.27835e-10
-9.32722e-11
2.17409e-10
-1.46717e-10
3.4052e-10
-2.55614e-10
7.13155e-10
-4.50838e-10
1.30904e-09
-9.90679e-10
4.11073e-09
-2.06513e-09
9.49255e-09
-4.25598e-09
5.73324e-08
-4.97945e-09
5.197e-08
-1.25825e-07
4.46113e-09
-1.30286e-07
4.05489e-09
5.23762e-08
2.15858e-09
5.92287e-08
1.06362e-09
1.05875e-08
4.952e-10
4.67918e-09
2.82863e-10
1.52136e-09
1.63611e-10
8.32397e-10
1.04549e-10
3.99603e-10
6.67545e-11
2.55198e-10
4.4271e-11
1.50307e-10
2.8558e-11
1.05325e-10
1.81652e-11
6.93115e-11
1.05202e-11
5.0993e-11
5.17718e-12
3.52918e-11
1.17943e-12
2.61394e-11
-1.64523e-12
1.79746e-11
-3.70742e-12
1.26152e-11
-5.09146e-12
7.75636e-12
-5.99421e-12
4.25385e-12
-6.46832e-12
1.0892e-12
-6.61873e-12
-1.34309e-12
-6.4829e-12
-3.51814e-12
-6.12297e-12
-5.25088e-12
-5.5693e-12
-6.75181e-12
-4.86367e-12
-7.94577e-12
-4.03268e-12
-8.94279e-12
-3.10702e-12
-9.68707e-12
-2.10981e-12
-1.02518e-11
-1.06678e-12
-1.06337e-11
-1.07319e-15
-1.08013e-11
1.0645e-12
-1.08024e-11
2.1072e-12
-1.06429e-11
3.10388e-12
-1.02455e-11
4.02977e-12
-9.68093e-12
4.86149e-12
-8.96281e-12
5.56683e-12
-7.93395e-12
6.12039e-12
-6.74166e-12
6.48164e-12
-5.27725e-12
6.61805e-12
-3.51854e-12
6.4679e-12
-1.33978e-12
5.9946e-12
1.06161e-12
5.09202e-12
4.26567e-12
3.70846e-12
7.76604e-12
1.64709e-12
1.2587e-11
-1.17754e-12
1.79852e-11
-5.17516e-12
2.61509e-11
-1.05174e-11
3.52678e-11
-1.81625e-11
5.09954e-11
-2.85557e-11
6.93176e-11
-4.42686e-11
1.05313e-10
-6.6752e-11
1.50327e-10
-1.04546e-10
2.55209e-10
-1.63607e-10
3.99575e-10
-2.8286e-10
8.3241e-10
-4.95197e-10
1.52138e-09
-1.06362e-09
4.67916e-09
-2.15858e-09
1.05875e-08
-4.05489e-09
5.92287e-08
-4.46112e-09
5.23762e-08
-1.30286e-07
3.9229e-09
-1.34209e-07
3.83824e-09
5.24609e-08
2.24302e-09
6.08239e-08
1.1348e-09
1.16957e-08
5.40563e-10
5.27341e-09
3.11109e-10
1.75081e-09
1.81335e-10
9.62165e-10
1.16441e-10
4.64499e-10
7.48751e-11
2.96771e-10
5.00585e-11
1.75128e-10
3.27231e-11
1.22672e-10
2.12343e-11
8.07922e-11
1.27848e-11
5.94396e-11
6.86534e-12
4.12152e-11
2.42959e-12
3.0573e-11
-7.20375e-13
2.11249e-11
-3.03398e-12
1.49369e-11
-4.60782e-12
9.32904e-12
-5.65721e-12
5.30698e-12
-6.2415e-12
1.67314e-12
-6.47521e-12
-1.09956e-12
-6.39993e-12
-3.59281e-12
-6.08325e-12
-5.56545e-12
-5.5583e-12
-7.28186e-12
-4.87031e-12
-8.63593e-12
-4.04793e-12
-9.7619e-12
-3.12416e-12
-1.06122e-11
-2.12393e-12
-1.12602e-11
-1.0747e-12
-1.16748e-11
-1.14288e-15
-1.18773e-11
1.07224e-12
-1.18769e-11
2.12099e-12
-1.16965e-11
3.12079e-12
-1.12455e-11
4.04482e-12
-1.06059e-11
4.86784e-12
-9.78434e-12
5.55564e-12
-8.6251e-12
6.08057e-12
-7.26096e-12
6.39845e-12
-5.60261e-12
6.47442e-12
-3.58809e-12
6.24107e-12
-1.10818e-12
5.65751e-12
1.63778e-12
4.60838e-12
5.30893e-12
3.03511e-12
9.33723e-12
7.2221e-13
1.49018e-11
-2.42765e-12
2.1141e-11
-6.86319e-12
3.05834e-11
-1.2782e-11
4.11792e-11
-2.12314e-11
5.94495e-11
-3.27206e-11
8.08165e-11
-5.0056e-11
1.22639e-10
-7.48724e-11
1.75136e-10
-1.16437e-10
2.96767e-10
-1.81331e-10
4.64472e-10
-3.11106e-10
9.62179e-10
-5.4056e-10
1.75084e-09
-1.1348e-09
5.27339e-09
-2.24302e-09
1.16957e-08
-3.83824e-09
6.08239e-08
-3.92289e-09
5.24609e-08
-1.34209e-07
3.37541e-09
-1.37584e-07
3.60999e-09
5.22263e-08
2.31834e-09
6.21156e-08
1.20399e-09
1.28101e-08
5.86839e-10
5.89056e-09
3.40339e-10
1.99731e-09
1.99906e-10
1.1026e-09
1.28966e-10
5.35436e-10
8.34764e-11
3.42248e-10
5.62111e-11
2.0239e-10
3.71719e-11
1.41706e-10
2.45268e-11
9.34415e-11
1.52288e-11
6.87413e-11
8.69924e-12
4.77436e-11
3.79982e-12
3.54783e-11
3.04325e-13
2.46209e-11
-2.2768e-12
1.75176e-11
-4.05353e-12
1.11116e-11
-5.26039e-12
6.50786e-12
-5.96393e-12
2.37368e-12
-6.28871e-12
-7.86232e-13
-6.28071e-12
-3.60142e-12
-6.01321e-12
-5.83317e-12
-5.52228e-12
-7.76632e-12
-4.85674e-12
-9.29806e-12
-4.04744e-12
-1.05692e-11
-3.12971e-12
-1.15231e-11
-2.1304e-12
-1.22591e-11
-1.07886e-12
-1.27364e-11
-1.22261e-15
-1.29496e-11
1.07618e-12
-1.29555e-11
2.12717e-12
-1.27502e-11
3.1261e-12
-1.22435e-11
4.04413e-12
-1.15212e-11
4.85398e-12
-1.0596e-11
5.51945e-12
-9.28457e-12
6.01037e-12
-7.76028e-12
6.27904e-12
-5.86048e-12
6.28777e-12
-3.59778e-12
5.96347e-12
-7.78895e-13
5.26059e-12
2.34951e-12
4.05412e-12
6.52055e-12
2.27802e-12
1.11158e-11
-3.02507e-13
1.74835e-11
-3.79788e-12
2.46302e-11
-8.69696e-12
3.54856e-11
-1.52258e-11
4.77113e-11
-2.45237e-11
6.8744e-11
-3.71693e-11
9.34552e-11
-5.62084e-11
1.41685e-10
-8.34736e-11
2.02405e-10
-1.28962e-10
3.4226e-10
-1.99903e-10
5.35408e-10
-3.40336e-10
1.10261e-09
-5.86836e-10
1.99733e-09
-1.20398e-09
5.89054e-09
-2.31834e-09
1.28101e-08
-3.60999e-09
6.21156e-08
-3.37541e-09
5.22263e-08
-1.37584e-07
2.83231e-09
-1.40416e-07
3.37468e-09
5.1684e-08
2.38432e-09
6.31059e-08
1.27093e-09
1.39235e-08
6.33931e-10
6.52756e-09
3.70539e-10
2.2607e-09
2.19343e-10
1.2538e-09
1.42144e-10
6.12638e-10
9.2577e-11
3.91824e-10
6.27425e-11
2.32229e-10
4.19147e-11
1.62529e-10
2.80497e-11
1.07311e-10
1.78564e-11
7.89338e-11
1.06811e-11
5.49174e-11
5.29079e-12
4.08601e-11
1.42831e-12
2.84876e-11
-1.43727e-12
2.03777e-11
-3.43067e-12
1.31e-11
-4.80617e-12
7.8873e-12
-5.63834e-12
3.20669e-12
-6.06199e-12
-3.58056e-13
-6.12798e-12
-3.53845e-12
-5.91543e-12
-6.04748e-12
-5.46363e-12
-8.21874e-12
-4.82506e-12
-9.93755e-12
-4.03292e-12
-1.13649e-11
-3.12505e-12
-1.24366e-11
-2.13019e-12
-1.32568e-11
-1.07969e-12
-1.37849e-11
-1.33039e-15
-1.40347e-11
1.07679e-12
-1.40337e-11
2.12665e-12
-1.37894e-11
3.12117e-12
-1.32364e-11
4.02941e-12
-1.244e-11
4.82202e-12
-1.13843e-11
5.46059e-12
-9.92806e-12
5.91249e-12
-8.20719e-12
6.12609e-12
-6.08071e-12
6.06093e-12
-3.53287e-12
5.63783e-12
-3.62324e-13
4.80627e-12
3.17561e-12
3.43125e-12
7.89433e-12
1.43857e-12
1.31064e-11
-1.42652e-12
2.03493e-11
-5.28882e-12
2.84889e-11
-1.06787e-11
4.08751e-11
-1.78534e-11
5.48946e-11
-2.80464e-11
7.8941e-11
-4.19118e-11
1.07326e-10
-6.27397e-11
1.6252e-10
-9.2574e-11
2.32239e-10
-1.42141e-10
3.91822e-10
-2.19339e-10
6.12609e-10
-3.70535e-10
1.25381e-09
-6.33928e-10
2.26072e-09
-1.27092e-09
6.52753e-09
-2.38432e-09
1.39235e-08
-3.37467e-09
6.31059e-08
-2.83231e-09
5.16839e-08
-1.40417e-07
2.30485e-09
-1.42721e-07
3.13637e-09
5.08524e-08
2.44066e-09
6.38016e-08
1.33537e-09
1.50288e-08
6.81728e-10
7.1812e-09
4.01691e-10
2.54074e-09
2.39665e-10
1.41582e-09
1.55999e-10
6.96299e-10
1.02198e-10
4.45622e-10
6.96701e-11
2.64758e-10
4.69647e-11
1.85236e-10
3.18127e-11
1.22457e-10
2.06749e-11
9.00667e-11
1.2816e-11
6.27785e-11
6.90589e-12
4.67768e-11
2.65358e-12
3.27331e-11
-5.14382e-13
2.3551e-11
-2.73896e-12
1.53311e-11
-4.29492e-12
9.44219e-12
-5.26541e-12
4.18082e-12
-5.79605e-12
1.67573e-13
-5.94285e-12
-3.39449e-12
-5.79107e-12
-6.19825e-12
-5.38347e-12
-8.63094e-12
-4.77631e-12
-1.0542e-11
-4.00527e-12
-1.2135e-11
-3.11083e-12
-1.3334e-11
-2.12374e-12
-1.42418e-11
-1.07747e-12
-1.48285e-11
-1.42641e-15
-1.5111e-11
1.07433e-12
-1.51087e-11
2.11988e-12
-1.48361e-11
3.10666e-12
-1.42222e-11
4.00157e-12
-1.33268e-11
4.77296e-12
-1.21603e-11
5.38023e-12
-1.05281e-11
5.78802e-12
-8.62013e-12
5.94076e-12
-6.23554e-12
5.79482e-12
-3.39628e-12
5.26485e-12
1.7208e-13
4.29489e-12
4.14865e-12
2.73956e-12
9.4493e-12
5.15791e-13
1.53325e-11
-2.65185e-12
2.3515e-11
-6.90387e-12
3.27448e-11
-1.28134e-11
4.67841e-11
-2.06718e-11
6.27406e-11
-3.18092e-11
9.00773e-11
-4.69615e-11
1.22473e-10
-6.96671e-11
1.85211e-10
-1.02195e-10
2.64763e-10
-1.55995e-10
4.45618e-10
-2.3966e-10
6.96277e-10
-4.01687e-10
1.41584e-09
-6.81724e-10
2.54077e-09
-1.33537e-09
7.18118e-09
-2.44066e-09
1.50288e-08
-3.13637e-09
6.38016e-08
-2.30484e-09
5.08524e-08
-1.42721e-07
1.79945e-09
-1.44521e-07
2.89786e-09
4.9754e-08
2.48697e-09
6.42125e-08
1.39703e-09
1.61187e-08
7.30094e-10
7.84813e-09
4.33767e-10
2.83707e-09
2.60885e-10
1.5887e-09
1.70553e-10
7.86635e-10
1.12363e-10
5.03815e-10
7.70126e-11
3.00106e-10
5.23375e-11
2.09909e-10
3.5828e-11
1.3897e-10
2.36937e-11
1.02208e-10
1.5111e-11
7.13588e-11
8.65042e-12
5.32317e-11
3.98413e-12
3.74014e-11
4.94715e-13
2.70383e-11
-1.97646e-12
1.77962e-11
-3.72526e-12
1.11955e-11
-4.84435e-12
5.2969e-12
-5.49043e-12
8.11099e-13
-5.72515e-12
-3.15217e-12
-5.6402e-12
-6.28982e-12
-5.28191e-12
-8.98525e-12
-4.71067e-12
-1.11201e-11
-3.96471e-12
-1.28766e-11
-3.08722e-12
-1.42037e-11
-2.1112e-12
-1.52128e-11
-1.07226e-12
-1.58692e-11
-1.53269e-15
-1.61795e-11
1.06886e-12
-1.61783e-11
2.10702e-12
-1.58876e-11
3.08279e-12
-1.52027e-11
3.96076e-12
-1.42044e-11
4.70704e-12
-1.29026e-11
5.27846e-12
-1.10998e-11
5.637e-12
-8.97016e-12
5.72285e-12
-6.31714e-12
5.48906e-12
-3.15301e-12
4.84372e-12
8.15706e-13
3.72513e-12
5.26492e-12
1.97705e-12
1.11993e-11
-4.93218e-13
1.77998e-11
-3.98242e-12
2.69987e-11
-8.64839e-12
3.74084e-11
-1.51083e-11
5.3239e-11
-2.36905e-11
7.13323e-11
-3.58244e-11
1.02208e-10
-5.23341e-11
1.38985e-10
-7.70095e-11