/*--------------------------------*- C++ -*----------------------------------*\
| =========                 |                                                 |
| \\      /  F ield         | foam-extend: Open Source CFD                    |
|  \\    /   O peration     | Version:     4.0                                |
|   \\  /    A nd           | Web:         http://www.foam-extend.org         |
|    \\/     M anipulation  |                                                 |
\*---------------------------------------------------------------------------*/
FoamFile
{
    version     2.0;
    format      ascii;
    class       volScalarField;
    location    "1500";
    object      psiE;
}
// * * * * * * * * * * * * * * * * * * * * * * * * * * * * * * * * * * * * * //

dimensions      [0 0 0 0 0 0 0];

internalField   nonuniform List<scalar> 
6960
(
0.342349
0.342357
0.342367
0.342376
0.342385
0.342393
0.342399
0.342406
0.342411
0.342416
0.34242
0.342423
0.342426
0.342429
0.342431
0.342433
0.342435
0.342436
0.342437
0.342438
0.342439
0.34244
0.34244
0.342441
0.342441
0.342441
0.342442
0.342442
0.342442
0.342442
0.342442
0.342442
0.342442
0.342442
0.342441
0.342441
0.342441
0.34244
0.34244
0.342439
0.342438
0.342437
0.342436
0.342435
0.342433
0.342431
0.342429
0.342426
0.342423
0.34242
0.342416
0.342411
0.342406
0.342399
0.342393
0.342385
0.342376
0.342367
0.342357
0.342349
0.866062
0.866094
0.866133
0.86617
0.866205
0.866237
0.866265
0.86629
0.866312
0.86633
0.866347
0.866361
0.866373
0.866384
0.866393
0.866401
0.866407
0.866413
0.866417
0.866421
0.866425
0.866427
0.86643
0.866432
0.866433
0.866434
0.866435
0.866436
0.866436
0.866437
0.866437
0.866436
0.866436
0.866435
0.866434
0.866433
0.866432
0.86643
0.866427
0.866425
0.866421
0.866417
0.866413
0.866407
0.866401
0.866393
0.866384
0.866373
0.866361
0.866347
0.86633
0.866312
0.86629
0.866265
0.866237
0.866205
0.86617
0.866133
0.866094
0.866062
1.34739
1.34745
1.34752
1.3476
1.34767
1.34773
1.34778
1.34783
1.34788
1.34791
1.34795
1.34797
1.348
1.34802
1.34804
1.34805
1.34806
1.34807
1.34808
1.34809
1.3481
1.3481
1.34811
1.34811
1.34811
1.34812
1.34812
1.34812
1.34812
1.34812
1.34812
1.34812
1.34812
1.34812
1.34812
1.34811
1.34811
1.34811
1.3481
1.3481
1.34809
1.34808
1.34807
1.34806
1.34805
1.34804
1.34802
1.348
1.34797
1.34795
1.34791
1.34788
1.34783
1.34778
1.34773
1.34767
1.3476
1.34752
1.34745
1.34739
1.81955
1.81965
1.81977
1.81988
1.81999
1.82009
1.82017
1.82025
1.82032
1.82037
1.82042
1.82047
1.82051
1.82054
1.82056
1.82059
1.82061
1.82062
1.82064
1.82065
1.82066
1.82067
1.82068
1.82068
1.82069
1.82069
1.82069
1.8207
1.8207
1.8207
1.8207
1.8207
1.8207
1.82069
1.82069
1.82069
1.82068
1.82068
1.82067
1.82066
1.82065
1.82064
1.82062
1.82061
1.82059
1.82056
1.82054
1.82051
1.82047
1.82042
1.82037
1.82032
1.82025
1.82017
1.82009
1.81999
1.81988
1.81977
1.81965
1.81955
2.29455
2.29469
2.29485
2.29501
2.29516
2.29529
2.29541
2.29551
2.29561
2.29569
2.29576
2.29582
2.29587
2.29591
2.29595
2.29598
2.29601
2.29603
2.29605
2.29607
2.29608
2.2961
2.2961
2.29611
2.29612
2.29612
2.29613
2.29613
2.29613
2.29613
2.29613
2.29613
2.29613
2.29613
2.29612
2.29612
2.29611
2.2961
2.2961
2.29608
2.29607
2.29605
2.29603
2.29601
2.29598
2.29595
2.29591
2.29587
2.29582
2.29576
2.29569
2.29561
2.29551
2.29541
2.29529
2.29516
2.29501
2.29485
2.29469
2.29455
2.7769
2.77707
2.77728
2.77748
2.77767
2.77785
2.778
2.77814
2.77825
2.77836
2.77845
2.77852
2.77859
2.77865
2.7787
2.77874
2.77877
2.7788
2.77883
2.77885
2.77887
2.77888
2.7789
2.77891
2.77891
2.77892
2.77893
2.77893
2.77893
2.77893
2.77893
2.77893
2.77893
2.77893
2.77892
2.77891
2.77891
2.7789
2.77888
2.77887
2.77885
2.77883
2.7788
2.77877
2.77874
2.7787
2.77865
2.77859
2.77852
2.77845
2.77836
2.77825
2.77814
2.778
2.77785
2.77767
2.77748
2.77728
2.77707
2.7769
3.26828
3.26849
3.26875
3.269
3.26924
3.26945
3.26964
3.2698
3.26995
3.27008
3.27019
3.27028
3.27036
3.27043
3.27049
3.27055
3.27059
3.27063
3.27066
3.27068
3.27071
3.27072
3.27074
3.27075
3.27076
3.27077
3.27078
3.27078
3.27078
3.27078
3.27078
3.27078
3.27078
3.27078
3.27077
3.27076
3.27075
3.27074
3.27072
3.27071
3.27068
3.27066
3.27063
3.27059
3.27055
3.27049
3.27043
3.27036
3.27028
3.27019
3.27008
3.26995
3.2698
3.26964
3.26945
3.26924
3.269
3.26875
3.26849
3.26828
3.76932
3.76957
3.76988
3.77018
3.77046
3.77071
3.77093
3.77113
3.7713
3.77146
3.77159
3.7717
3.7718
3.77188
3.77195
3.77201
3.77206
3.77211
3.77215
3.77218
3.7722
3.77222
3.77224
3.77226
3.77227
3.77228
3.77229
3.77229
3.7723
3.7723
3.7723
3.7723
3.77229
3.77229
3.77228
3.77227
3.77226
3.77224
3.77222
3.7722
3.77218
3.77215
3.77211
3.77206
3.77201
3.77195
3.77188
3.7718
3.7717
3.77159
3.77146
3.7713
3.77113
3.77093
3.77071
3.77046
3.77018
3.76988
3.76957
3.76932
4.28021
4.2805
4.28085
4.2812
4.28152
4.28182
4.28208
4.28231
4.28251
4.28268
4.28284
4.28297
4.28308
4.28318
4.28326
4.28333
4.28339
4.28344
4.28348
4.28352
4.28355
4.28358
4.2836
4.28361
4.28363
4.28364
4.28365
4.28365
4.28366
4.28366
4.28366
4.28366
4.28365
4.28365
4.28364
4.28363
4.28361
4.2836
4.28358
4.28355
4.28352
4.28348
4.28344
4.28339
4.28333
4.28326
4.28318
4.28308
4.28297
4.28284
4.28268
4.28251
4.28231
4.28208
4.28182
4.28152
4.2812
4.28085
4.2805
4.28021
4.80096
4.80129
4.80169
4.80209
4.80246
4.80279
4.80309
4.80335
4.80358
4.80378
4.80395
4.8041
4.80423
4.80434
4.80443
4.80451
4.80458
4.80464
4.80469
4.80473
4.80476
4.80479
4.80482
4.80484
4.80485
4.80487
4.80487
4.80488
4.80489
4.80489
4.80489
4.80489
4.80488
4.80487
4.80487
4.80485
4.80484
4.80482
4.80479
4.80476
4.80473
4.80469
4.80464
4.80458
4.80451
4.80443
4.80434
4.80423
4.8041
4.80395
4.80378
4.80358
4.80335
4.80309
4.80279
4.80246
4.80209
4.80169
4.80129
4.80096
5.33151
5.33188
5.33233
5.33278
5.33319
5.33356
5.3339
5.33419
5.33445
5.33467
5.33487
5.33503
5.33518
5.3353
5.33541
5.3355
5.33558
5.33564
5.3357
5.33574
5.33578
5.33581
5.33584
5.33586
5.33588
5.33589
5.33591
5.33591
5.33592
5.33592
5.33592
5.33592
5.33591
5.33591
5.33589
5.33588
5.33586
5.33584
5.33581
5.33578
5.33574
5.3357
5.33564
5.33558
5.3355
5.33541
5.3353
5.33518
5.33503
5.33487
5.33467
5.33445
5.33419
5.3339
5.33356
5.33319
5.33278
5.33233
5.33188
5.33151
5.87175
5.87216
5.87266
5.87315
5.87361
5.87402
5.87439
5.87472
5.87501
5.87525
5.87547
5.87566
5.87582
5.87595
5.87607
5.87617
5.87626
5.87633
5.87639
5.87644
5.87648
5.87652
5.87655
5.87658
5.87659
5.87661
5.87662
5.87663
5.87664
5.87664
5.87664
5.87664
5.87663
5.87662
5.87661
5.87659
5.87658
5.87655
5.87652
5.87648
5.87644
5.87639
5.87633
5.87626
5.87617
5.87607
5.87595
5.87582
5.87566
5.87547
5.87525
5.87501
5.87472
5.87439
5.87402
5.87361
5.87315
5.87266
5.87216
5.87175
6.42151
6.42196
6.42251
6.42305
6.42356
6.42401
6.42442
6.42478
6.42509
6.42536
6.4256
6.42581
6.42598
6.42613
6.42626
6.42637
6.42647
6.42655
6.42661
6.42667
6.42672
6.42676
6.42679
6.42682
6.42684
6.42686
6.42687
6.42688
6.42688
6.42689
6.42689
6.42688
6.42688
6.42687
6.42686
6.42684
6.42682
6.42679
6.42676
6.42672
6.42667
6.42661
6.42655
6.42647
6.42637
6.42626
6.42613
6.42598
6.42581
6.4256
6.42536
6.42509
6.42478
6.42442
6.42401
6.42356
6.42305
6.42251
6.42196
6.42151
6.9806
6.98109
6.98169
6.98228
6.98283
6.98333
6.98377
6.98416
6.9845
6.9848
6.98506
6.98528
6.98547
6.98564
6.98578
6.9859
6.986
6.98609
6.98616
6.98622
6.98627
6.98632
6.98635
6.98638
6.98641
6.98643
6.98644
6.98645
6.98646
6.98646
6.98646
6.98646
6.98645
6.98644
6.98643
6.98641
6.98638
6.98635
6.98632
6.98627
6.98622
6.98616
6.98609
6.986
6.9859
6.98578
6.98564
6.98547
6.98528
6.98506
6.9848
6.9845
6.98416
6.98377
6.98333
6.98283
6.98228
6.98169
6.98109
6.9806
7.54877
7.5493
7.54995
7.55059
7.55118
7.55172
7.5522
7.55262
7.55299
7.55331
7.55359
7.55383
7.55404
7.55422
7.55437
7.5545
7.55461
7.5547
7.55478
7.55485
7.5549
7.55495
7.55499
7.55502
7.55505
7.55507
7.55508
7.5551
7.5551
7.55511
7.55511
7.5551
7.5551
7.55508
7.55507
7.55505
7.55502
7.55499
7.55495
7.5549
7.55485
7.55478
7.5547
7.55461
7.5545
7.55437
7.55422
7.55404
7.55383
7.55359
7.55331
7.55299
7.55262
7.5522
7.55172
7.55118
7.55059
7.54995
7.5493
7.54877
8.12571
8.12628
8.12697
8.12766
8.1283
8.12888
8.12939
8.12985
8.13024
8.13059
8.13089
8.13115
8.13137
8.13157
8.13173
8.13187
8.13199
8.13209
8.13217
8.13225
8.13231
8.13236
8.1324
8.13243
8.13246
8.13248
8.1325
8.13251
8.13252
8.13252
8.13252
8.13252
8.13251
8.1325
8.13248
8.13246
8.13243
8.1324
8.13236
8.13231
8.13225
8.13217
8.13209
8.13199
8.13187
8.13173
8.13157
8.13137
8.13115
8.13089
8.13059
8.13024
8.12985
8.12939
8.12888
8.1283
8.12766
8.12697
8.12628
8.12571
8.71107
8.71167
8.71241
8.71315
8.71383
8.71445
8.715
8.71548
8.71591
8.71628
8.7166
8.71688
8.71712
8.71732
8.7175
8.71765
8.71777
8.71788
8.71797
8.71805
8.71811
8.71817
8.71821
8.71825
8.71828
8.7183
8.71832
8.71833
8.71834
8.71835
8.71835
8.71834
8.71833
8.71832
8.7183
8.71828
8.71825
8.71821
8.71817
8.71811
8.71805
8.71797
8.71788
8.71777
8.71765
8.7175
8.71732
8.71712
8.71688
8.7166
8.71628
8.71591
8.71548
8.715
8.71445
8.71383
8.71315
8.71241
8.71167
8.71107
9.30441
9.30505
9.30584
9.30662
9.30735
9.308
9.30859
9.3091
9.30956
9.30995
9.31029
9.31059
9.31084
9.31106
9.31125
9.3114
9.31154
9.31165
9.31175
9.31183
9.3119
9.31196
9.31201
9.31205
9.31208
9.3121
9.31212
9.31214
9.31214
9.31215
9.31215
9.31214
9.31214
9.31212
9.3121
9.31208
9.31205
9.31201
9.31196
9.3119
9.31183
9.31175
9.31165
9.31154
9.3114
9.31125
9.31106
9.31084
9.31059
9.31029
9.30995
9.30956
9.3091
9.30859
9.308
9.30735
9.30662
9.30584
9.30505
9.30441
9.90523
9.90591
9.90675
9.90757
9.90834
9.90904
9.90966
9.9102
9.91068
9.9111
9.91146
9.91177
9.91204
9.91227
9.91247
9.91264
9.91278
9.9129
9.913
9.91309
9.91316
9.91322
9.91327
9.91332
9.91335
9.91338
9.9134
9.91341
9.91342
9.91343
9.91343
9.91342
9.91341
9.9134
9.91338
9.91335
9.91332
9.91327
9.91322
9.91316
9.91309
9.913
9.9129
9.91278
9.91264
9.91247
9.91227
9.91204
9.91177
9.91146
9.9111
9.91068
9.9102
9.90966
9.90904
9.90834
9.90757
9.90675
9.90591
9.90523
10.513
10.5137
10.5146
10.5154
10.5162
10.517
10.5176
10.5182
10.5187
10.5191
10.5195
10.5198
10.5201
10.5204
10.5206
10.5208
10.5209
10.521
10.5211
10.5212
10.5213
10.5214
10.5214
10.5215
10.5215
10.5215
10.5216
10.5216
10.5216
10.5216
10.5216
10.5216
10.5216
10.5216
10.5215
10.5215
10.5215
10.5214
10.5214
10.5213
10.5212
10.5211
10.521
10.5209
10.5208
10.5206
10.5204
10.5201
10.5198
10.5195
10.5191
10.5187
10.5182
10.5176
10.517
10.5162
10.5154
10.5146
10.5137
10.513
11.1269
11.1276
11.1286
11.1295
11.1303
11.1311
11.1318
11.1324
11.1329
11.1334
11.1338
11.1341
11.1344
11.1347
11.1349
11.1351
11.1352
11.1354
11.1355
11.1356
11.1357
11.1357
11.1358
11.1358
11.1359
11.1359
11.1359
11.1359
11.136
11.136
11.136
11.136
11.1359
11.1359
11.1359
11.1359
11.1358
11.1358
11.1357
11.1357
11.1356
11.1355
11.1354
11.1352
11.1351
11.1349
11.1347
11.1344
11.1341
11.1338
11.1334
11.1329
11.1324
11.1318
11.1311
11.1303
11.1295
11.1286
11.1276
11.1269
11.7463
11.7471
11.748
11.749
11.7499
11.7507
11.7514
11.752
11.7526
11.7531
11.7535
11.7538
11.7541
11.7544
11.7546
11.7548
11.755
11.7551
11.7553
11.7554
11.7554
11.7555
11.7556
11.7556
11.7557
11.7557
11.7557
11.7557
11.7557
11.7557
11.7557
11.7557
11.7557
11.7557
11.7557
11.7557
11.7556
11.7556
11.7555
11.7554
11.7554
11.7553
11.7551
11.755
11.7548
11.7546
11.7544
11.7541
11.7538
11.7535
11.7531
11.7526
11.752
11.7514
11.7507
11.7499
11.749
11.748
11.7471
11.7463
12.3702
12.371
12.372
12.373
12.3739
12.3748
12.3755
12.3762
12.3767
12.3772
12.3777
12.378
12.3784
12.3787
12.3789
12.3791
12.3793
12.3794
12.3795
12.3796
12.3797
12.3798
12.3799
12.3799
12.3799
12.38
12.38
12.38
12.38
12.38
12.38
12.38
12.38
12.38
12.38
12.3799
12.3799
12.3799
12.3798
12.3797
12.3796
12.3795
12.3794
12.3793
12.3791
12.3789
12.3787
12.3784
12.378
12.3777
12.3772
12.3767
12.3762
12.3755
12.3748
12.3739
12.373
12.372
12.371
12.3702
12.9976
12.9984
12.9995
13.0005
13.0015
13.0023
13.0031
13.0038
13.0044
13.0049
13.0053
13.0057
13.0061
13.0064
13.0066
13.0068
13.007
13.0071
13.0073
13.0074
13.0075
13.0075
13.0076
13.0077
13.0077
13.0077
13.0078
13.0078
13.0078
13.0078
13.0078
13.0078
13.0078
13.0078
13.0077
13.0077
13.0077
13.0076
13.0075
13.0075
13.0074
13.0073
13.0071
13.007
13.0068
13.0066
13.0064
13.0061
13.0057
13.0053
13.0049
13.0044
13.0038
13.0031
13.0023
13.0015
13.0005
12.9995
12.9984
12.9976
13.6272
13.6281
13.6292
13.6303
13.6313
13.6321
13.6329
13.6336
13.6343
13.6348
13.6353
13.6357
13.636
13.6363
13.6366
13.6368
13.637
13.6371
13.6373
13.6374
13.6375
13.6375
13.6376
13.6377
13.6377
13.6377
13.6378
13.6378
13.6378
13.6378
13.6378
13.6378
13.6378
13.6378
13.6377
13.6377
13.6377
13.6376
13.6375
13.6375
13.6374
13.6373
13.6371
13.637
13.6368
13.6366
13.6363
13.636
13.6357
13.6353
13.6348
13.6343
13.6336
13.6329
13.6321
13.6313
13.6303
13.6292
13.6281
13.6272
14.2578
14.2587
14.2598
14.2609
14.2619
14.2629
14.2637
14.2644
14.265
14.2656
14.2661
14.2665
14.2668
14.2671
14.2674
14.2676
14.2678
14.268
14.2681
14.2682
14.2683
14.2684
14.2685
14.2685
14.2686
14.2686
14.2686
14.2687
14.2687
14.2687
14.2687
14.2687
14.2687
14.2686
14.2686
14.2686
14.2685
14.2685
14.2684
14.2683
14.2682
14.2681
14.268
14.2678
14.2676
14.2674
14.2671
14.2668
14.2665
14.2661
14.2656
14.265
14.2644
14.2637
14.2629
14.2619
14.2609
14.2598
14.2587
14.2578
14.8877
14.8886
14.8898
14.8909
14.8919
14.8929
14.8937
14.8944
14.8951
14.8957
14.8961
14.8966
14.8969
14.8972
14.8975
14.8977
14.8979
14.8981
14.8982
14.8984
14.8985
14.8985
14.8986
14.8987
14.8987
14.8988
14.8988
14.8988
14.8988
14.8988
14.8988
14.8988
14.8988
14.8988
14.8988
14.8987
14.8987
14.8986
14.8985
14.8985
14.8984
14.8982
14.8981
14.8979
14.8977
14.8975
14.8972
14.8969
14.8966
14.8961
14.8957
14.8951
14.8944
14.8937
14.8929
14.8919
14.8909
14.8898
14.8886
14.8877
15.5151
15.516
15.5172
15.5183
15.5194
15.5203
15.5212
15.5219
15.5226
15.5232
15.5237
15.5241
15.5245
15.5248
15.5251
15.5253
15.5255
15.5257
15.5258
15.5259
15.526
15.5261
15.5262
15.5262
15.5263
15.5263
15.5263
15.5264
15.5264
15.5264
15.5264
15.5264
15.5264
15.5263
15.5263
15.5263
15.5262
15.5262
15.5261
15.526
15.5259
15.5258
15.5257
15.5255
15.5253
15.5251
15.5248
15.5245
15.5241
15.5237
15.5232
15.5226
15.5219
15.5212
15.5203
15.5194
15.5183
15.5172
15.516
15.5151
16.1378
16.1387
16.1399
16.1411
16.1421
16.1431
16.144
16.1447
16.1454
16.146
16.1465
16.1469
16.1473
16.1476
16.1479
16.1481
16.1483
16.1485
16.1486
16.1488
16.1489
16.149
16.149
16.1491
16.1491
16.1492
16.1492
16.1492
16.1492
16.1492
16.1492
16.1492
16.1492
16.1492
16.1492
16.1491
16.1491
16.149
16.149
16.1489
16.1488
16.1486
16.1485
16.1483
16.1481
16.1479
16.1476
16.1473
16.1469
16.1465
16.146
16.1454
16.1447
16.144
16.1431
16.1421
16.1411
16.1399
16.1387
16.1378
16.7533
16.7543
16.7555
16.7567
16.7577
16.7587
16.7596
16.7604
16.761
16.7616
16.7621
16.7626
16.7629
16.7633
16.7635
16.7638
16.764
16.7642
16.7643
16.7644
16.7645
16.7646
16.7647
16.7647
16.7648
16.7648
16.7649
16.7649
16.7649
16.7649
16.7649
16.7649
16.7649
16.7649
16.7648
16.7648
16.7647
16.7647
16.7646
16.7645
16.7644
16.7643
16.7642
16.764
16.7638
16.7635
16.7633
16.7629
16.7626
16.7621
16.7616
16.761
16.7604
16.7596
16.7587
16.7577
16.7567
16.7555
16.7543
16.7533
17.3589
17.3599
17.3611
17.3623
17.3633
17.3643
17.3652
17.366
17.3666
17.3672
17.3677
17.3682
17.3685
17.3689
17.3691
17.3694
17.3696
17.3698
17.3699
17.37
17.3701
17.3702
17.3703
17.3703
17.3704
17.3704
17.3705
17.3705
17.3705
17.3705
17.3705
17.3705
17.3705
17.3705
17.3704
17.3704
17.3703
17.3703
17.3702
17.3701
17.37
17.3699
17.3698
17.3696
17.3694
17.3691
17.3689
17.3685
17.3682
17.3677
17.3672
17.3666
17.366
17.3652
17.3643
17.3633
17.3623
17.3611
17.3599
17.3589
17.9512
17.9521
17.9533
17.9545
17.9555
17.9565
17.9574
17.9581
17.9588
17.9594
17.9599
17.9603
17.9607
17.961
17.9613
17.9615
17.9617
17.9619
17.962
17.9622
17.9623
17.9624
17.9624
17.9625
17.9625
17.9626
17.9626
17.9626
17.9626
17.9626
17.9626
17.9626
17.9626
17.9626
17.9626
17.9625
17.9625
17.9624
17.9624
17.9623
17.9622
17.962
17.9619
17.9617
17.9615
17.9613
17.961
17.9607
17.9603
17.9599
17.9594
17.9588
17.9581
17.9574
17.9565
17.9555
17.9545
17.9533
17.9521
17.9512
18.526
18.527
18.5282
18.5293
18.5303
18.5313
18.5321
18.5329
18.5335
18.5341
18.5346
18.535
18.5354
18.5357
18.536
18.5362
18.5364
18.5366
18.5367
18.5368
18.5369
18.537
18.5371
18.5372
18.5372
18.5372
18.5373
18.5373
18.5373
18.5373
18.5373
18.5373
18.5373
18.5373
18.5372
18.5372
18.5372
18.5371
18.537
18.5369
18.5368
18.5367
18.5366
18.5364
18.5362
18.536
18.5357
18.5354
18.535
18.5346
18.5341
18.5335
18.5329
18.5321
18.5313
18.5303
18.5293
18.5282
18.527
18.526
19.0788
19.0798
19.0809
19.082
19.083
19.0839
19.0848
19.0855
19.0861
19.0867
19.0871
19.0876
19.0879
19.0882
19.0885
19.0887
19.0889
19.0891
19.0892
19.0893
19.0894
19.0895
19.0896
19.0896
19.0897
19.0897
19.0897
19.0898
19.0898
19.0898
19.0898
19.0898
19.0898
19.0897
19.0897
19.0897
19.0896
19.0896
19.0895
19.0894
19.0893
19.0892
19.0891
19.0889
19.0887
19.0885
19.0882
19.0879
19.0876
19.0871
19.0867
19.0861
19.0855
19.0848
19.0839
19.083
19.082
19.0809
19.0798
19.0788
19.6039
19.6048
19.6059
19.607
19.6079
19.6088
19.6096
19.6103
19.6109
19.6114
19.6119
19.6123
19.6126
19.6129
19.6131
19.6134
19.6135
19.6137
19.6138
19.6139
19.614
19.6141
19.6142
19.6142
19.6143
19.6143
19.6143
19.6144
19.6144
19.6144
19.6144
19.6144
19.6144
19.6143
19.6143
19.6143
19.6142
19.6142
19.6141
19.614
19.6139
19.6138
19.6137
19.6135
19.6134
19.6131
19.6129
19.6126
19.6123
19.6119
19.6114
19.6109
19.6103
19.6096
19.6088
19.6079
19.607
19.6059
19.6048
19.6039
20.0947
20.0956
20.0966
20.0975
20.0984
20.0993
20.1
20.1006
20.1012
20.1017
20.1021
20.1025
20.1028
20.1031
20.1033
20.1035
20.1037
20.1038
20.1039
20.104
20.1041
20.1042
20.1043
20.1043
20.1044
20.1044
20.1044
20.1044
20.1045
20.1045
20.1045
20.1045
20.1044
20.1044
20.1044
20.1044
20.1043
20.1043
20.1042
20.1041
20.104
20.1039
20.1038
20.1037
20.1035
20.1033
20.1031
20.1028
20.1025
20.1021
20.1017
20.1012
20.1006
20.1
20.0993
20.0984
20.0975
20.0966
20.0956
20.0947
20.5438
20.5445
20.5454
20.5463
20.5471
20.5479
20.5485
20.5491
20.5496
20.5501
20.5504
20.5508
20.5511
20.5513
20.5515
20.5517
20.5519
20.552
20.5521
20.5522
20.5523
20.5524
20.5524
20.5525
20.5525
20.5525
20.5525
20.5526
20.5526
20.5526
20.5526
20.5526
20.5526
20.5525
20.5525
20.5525
20.5525
20.5524
20.5524
20.5523
20.5522
20.5521
20.552
20.5519
20.5517
20.5515
20.5513
20.5511
20.5508
20.5504
20.5501
20.5496
20.5491
20.5485
20.5479
20.5471
20.5463
20.5454
20.5445
20.5438
20.9435
20.9442
20.945
20.9457
20.9464
20.9471
20.9477
20.9482
20.9486
20.949
20.9493
20.9496
20.9499
20.9501
20.9503
20.9504
20.9506
20.9507
20.9508
20.9509
20.951
20.951
20.9511
20.9511
20.9511
20.9512
20.9512
20.9512
20.9512
20.9512
20.9512
20.9512
20.9512
20.9512
20.9512
20.9511
20.9511
20.9511
20.951
20.951
20.9509
20.9508
20.9507
20.9506
20.9504
20.9503
20.9501
20.9499
20.9496
20.9493
20.949
20.9486
20.9482
20.9477
20.9471
20.9464
20.9457
20.945
20.9442
20.9435
21.2879
21.2885
21.2891
21.2898
21.2904
21.2909
21.2914
21.2918
21.2921
21.2925
21.2928
21.293
21.2932
21.2934
21.2936
21.2937
21.2938
21.2939
21.294
21.2941
21.2941
21.2942
21.2942
21.2942
21.2943
21.2943
21.2943
21.2943
21.2943
21.2943
21.2943
21.2943
21.2943
21.2943
21.2943
21.2943
21.2942
21.2942
21.2942
21.2941
21.2941
21.294
21.2939
21.2938
21.2937
21.2936
21.2934
21.2932
21.293
21.2928
21.2925
21.2921
21.2918
21.2914
21.2909
21.2904
21.2898
21.2891
21.2885
21.2879
21.5745
21.575
21.5755
21.576
21.5764
21.5768
21.5772
21.5776
21.5779
21.5781
21.5783
21.5785
21.5787
21.5788
21.579
21.5791
21.5792
21.5793
21.5793
21.5794
21.5794
21.5795
21.5795
21.5795
21.5796
21.5796
21.5796
21.5796
21.5796
21.5796
21.5796
21.5796
21.5796
21.5796
21.5796
21.5796
21.5795
21.5795
21.5795
21.5794
21.5794
21.5793
21.5793
21.5792
21.5791
21.579
21.5788
21.5787
21.5785
21.5783
21.5781
21.5779
21.5776
21.5772
21.5768
21.5764
21.576
21.5755
21.575
21.5745
21.806
21.8063
21.8067
21.8071
21.8074
21.8077
21.808
21.8083
21.8085
21.8087
21.8089
21.809
21.8092
21.8093
21.8094
21.8095
21.8095
21.8096
21.8096
21.8097
21.8097
21.8098
21.8098
21.8098
21.8098
21.8098
21.8099
21.8099
21.8099
21.8099
21.8099
21.8099
21.8099
21.8099
21.8098
21.8098
21.8098
21.8098
21.8098
21.8097
21.8097
21.8096
21.8096
21.8095
21.8095
21.8094
21.8093
21.8092
21.809
21.8089
21.8087
21.8085
21.8083
21.808
21.8077
21.8074
21.8071
21.8067
21.8063
21.806
21.9899
21.9901
21.9904
21.9906
21.9909
21.9911
21.9913
21.9915
21.9917
21.9918
21.992
21.9921
21.9922
21.9922
21.9923
21.9924
21.9924
21.9925
21.9925
21.9926
21.9926
21.9926
21.9926
21.9927
21.9927
21.9927
21.9927
21.9927
21.9927
21.9927
21.9927
21.9927
21.9927
21.9927
21.9927
21.9927
21.9927
21.9926
21.9926
21.9926
21.9926
21.9925
21.9925
21.9924
21.9924
21.9923
21.9922
21.9922
21.9921
21.992
21.9918
21.9917
21.9915
21.9913
21.9911
21.9909
21.9906
21.9904
21.9901
21.9899
22.1362
22.1363
22.1365
22.1367
22.1369
22.137
22.1372
22.1373
22.1374
22.1375
22.1376
22.1377
22.1378
22.1379
22.1379
22.138
22.138
22.138
22.1381
22.1381
22.1381
22.1382
22.1382
22.1382
22.1382
22.1382
22.1382
22.1382
22.1382
22.1382
22.1382
22.1382
22.1382
22.1382
22.1382
22.1382
22.1382
22.1382
22.1382
22.1381
22.1381
22.1381
22.138
22.138
22.138
22.1379
22.1379
22.1378
22.1377
22.1376
22.1375
22.1374
22.1373
22.1372
22.137
22.1369
22.1367
22.1365
22.1363
22.1362
22.2548
22.2549
22.255
22.2551
22.2553
22.2554
22.2555
22.2556
22.2557
22.2557
22.2558
22.2559
22.2559
22.256
22.256
22.2561
22.2561
22.2561
22.2561
22.2562
22.2562
22.2562
22.2562
22.2562
22.2562
22.2563
22.2563
22.2563
22.2563
22.2563
22.2563
22.2563
22.2563
22.2563
22.2563
22.2562
22.2562
22.2562
22.2562
22.2562
22.2562
22.2561
22.2561
22.2561
22.2561
22.256
22.256
22.2559
22.2559
22.2558
22.2557
22.2557
22.2556
22.2555
22.2554
22.2553
22.2551
22.255
22.2549
22.2548
22.3537
22.3538
22.3539
22.354
22.354
22.3541
22.3542
22.3543
22.3544
22.3544
22.3545
22.3545
22.3546
22.3546
22.3546
22.3547
22.3547
22.3547
22.3547
22.3547
22.3548
22.3548
22.3548
22.3548
22.3548
22.3548
22.3548
22.3548
22.3548
22.3548
22.3548
22.3548
22.3548
22.3548
22.3548
22.3548
22.3548
22.3548
22.3548
22.3548
22.3547
22.3547
22.3547
22.3547
22.3547
22.3546
22.3546
22.3546
22.3545
22.3545
22.3544
22.3544
22.3543
22.3542
22.3541
22.354
22.354
22.3539
22.3538
22.3537
22.4388
22.4388
22.4389
22.4389
22.439
22.4391
22.4391
22.4392
22.4392
22.4393
22.4393
22.4394
22.4394
22.4394
22.4394
22.4395
22.4395
22.4395
22.4395
22.4395
22.4396
22.4396
22.4396
22.4396
22.4396
22.4396
22.4396
22.4396
22.4396
22.4396
22.4396
22.4396
22.4396
22.4396
22.4396
22.4396
22.4396
22.4396
22.4396
22.4396
22.4395
22.4395
22.4395
22.4395
22.4395
22.4394
22.4394
22.4394
22.4394
22.4393
22.4393
22.4392
22.4392
22.4391
22.4391
22.439
22.4389
22.4389
22.4388
22.4388
22.5138
22.5138
22.5139
22.5139
22.514
22.514
22.5141
22.5141
22.5141
22.5142
22.5142
22.5142
22.5143
22.5143
22.5143
22.5143
22.5143
22.5144
22.5144
22.5144
22.5144
22.5144
22.5144
22.5144
22.5144
22.5144
22.5144
22.5145
22.5145
22.5145
22.5145
22.5145
22.5145
22.5144
22.5144
22.5144
22.5144
22.5144
22.5144
22.5144
22.5144
22.5144
22.5144
22.5143
22.5143
22.5143
22.5143
22.5143
22.5142
22.5142
22.5142
22.5141
22.5141
22.5141
22.514
22.514
22.5139
22.5139
22.5138
22.5138
22.5813
22.5814
22.5814
22.5814
22.5814
22.5815
22.5815
22.5815
22.5816
22.5816
22.5816
22.5816
22.5817
22.5817
22.5817
22.5817
22.5817
22.5818
22.5818
22.5818
22.5818
22.5818
22.5818
22.5818
22.5818
22.5818
22.5818
22.5818
22.5818
22.5818
22.5818
22.5818
22.5818
22.5818
22.5818
22.5818
22.5818
22.5818
22.5818
22.5818
22.5818
22.5818
22.5818
22.5817
22.5817
22.5817
22.5817
22.5817
22.5816
22.5816
22.5816
22.5816
22.5815
22.5815
22.5815
22.5814
22.5814
22.5814
22.5814
22.5813
22.6431
22.6431
22.6431
22.6431
22.6431
22.6431
22.6432
22.6432
22.6432
22.6432
22.6433
22.6433
22.6433
22.6433
22.6433
22.6433
22.6434
22.6434
22.6434
22.6434
22.6434
22.6434
22.6434
22.6434
22.6434
22.6434
22.6434
22.6434
22.6435
22.6435
22.6435
22.6435
22.6434
22.6434
22.6434
22.6434
22.6434
22.6434
22.6434
22.6434
22.6434
22.6434
22.6434
22.6434
22.6433
22.6433
22.6433
22.6433
22.6433
22.6433
22.6432
22.6432
22.6432
22.6432
22.6431
22.6431
22.6431
22.6431
22.6431
22.6431
22.7001
22.7001
22.7001
22.7002
22.7002
22.7002
22.7002
22.7002
22.7002
22.7003
22.7003
22.7003
22.7003
22.7003
22.7003
22.7003
22.7004
22.7004
22.7004
22.7004
22.7004
22.7004
22.7004
22.7004
22.7004
22.7004
22.7004
22.7004
22.7004
22.7004
22.7004
22.7004
22.7004
22.7004
22.7004
22.7004
22.7004
22.7004
22.7004
22.7004
22.7004
22.7004
22.7004
22.7004
22.7003
22.7003
22.7003
22.7003
22.7003
22.7003
22.7003
22.7002
22.7002
22.7002
22.7002
22.7002
22.7002
22.7001
22.7001
22.7001
22.7534
22.7534
22.7534
22.7534
22.7534
22.7534
22.7535
22.7535
22.7535
22.7535
22.7535
22.7535
22.7535
22.7535
22.7536
22.7536
22.7536
22.7536
22.7536
22.7536
22.7536
22.7536
22.7536
22.7536
22.7537
22.7537
22.7537
22.7537
22.7537
22.7537
22.7537
22.7537
22.7537
22.7537
22.7537
22.7537
22.7536
22.7536
22.7536
22.7536
22.7536
22.7536
22.7536
22.7536
22.7536
22.7536
22.7535
22.7535
22.7535
22.7535
22.7535
22.7535
22.7535
22.7535
22.7534
22.7534
22.7534
22.7534
22.7534
22.7534
22.8036
22.8036
22.8035
22.8035
22.8035
22.8036
22.8036
22.8036
22.8036
22.8036
22.8036
22.8036
22.8036
22.8036
22.8036
22.8037
22.8037
22.8037
22.8037
22.8037
22.8037
22.8037
22.8037
22.8037
22.8037
22.8037
22.8037
22.8037
22.8037
22.8037
22.8037
22.8037
22.8037
22.8037
22.8037
22.8037
22.8037
22.8037
22.8037
22.8037
22.8037
22.8037
22.8037
22.8037
22.8037
22.8036
22.8036
22.8036
22.8036
22.8036
22.8036
22.8036
22.8036
22.8036
22.8036
22.8035
22.8035
22.8035
22.8036
22.8036
22.851
22.851
22.851
22.851
22.851
22.851
22.851
22.851
22.851
22.851
22.851
22.851
22.8511
22.8511
22.8511
22.8511
22.8511
22.8511
22.8511
22.8511
22.8511
22.8511
22.8511
22.8512
22.8512
22.8512
22.8512
22.8512
22.8512
22.8512
22.8512
22.8512
22.8512
22.8512
22.8512
22.8512
22.8512
22.8511
22.8511
22.8511
22.8511
22.8511
22.8511
22.8511
22.8511
22.8511
22.8511
22.8511
22.851
22.851
22.851
22.851
22.851
22.851
22.851
22.851
22.851
22.851
22.851
22.851
22.8962
22.8962
22.8962
22.8962
22.8962
22.8962
22.8962
22.8962
22.8962
22.8962
22.8962
22.8962
22.8962
22.8962
22.8962
22.8962
22.8963
22.8963
22.8963
22.8963
22.8963
22.8963
22.8963
22.8963
22.8963
22.8963
22.8963
22.8963
22.8963
22.8963
22.8963
22.8963
22.8963
22.8963
22.8963
22.8963
22.8963
22.8963
22.8963
22.8963
22.8963
22.8963
22.8963
22.8963
22.8962
22.8962
22.8962
22.8962
22.8962
22.8962
22.8962
22.8962
22.8962
22.8962
22.8962
22.8962
22.8962
22.8962
22.8962
22.8962
22.9395
22.9395
22.9394
22.9394
22.9394
22.9394
22.9394
22.9394
22.9394
22.9394
22.9394
22.9394
22.9394
22.9394
22.9395
22.9395
22.9395
22.9395
22.9395
22.9395
22.9395
22.9395
22.9395
22.9395
22.9395
22.9395
22.9395
22.9395
22.9395
22.9396
22.9396
22.9395
22.9395
22.9395
22.9395
22.9395
22.9395
22.9395
22.9395
22.9395
22.9395
22.9395
22.9395
22.9395
22.9395
22.9395
22.9394
22.9394
22.9394
22.9394
22.9394
22.9394
22.9394
22.9394
22.9394
22.9394
22.9394
22.9394
22.9395
22.9395
22.981
22.981
22.981
22.981
22.981
22.9809
22.9809
22.9809
22.9809
22.9809
22.9809
22.9809
22.981
22.981
22.981
22.981
22.981
22.981
22.981
22.981
22.981
22.981
22.981
22.9811
22.9811
22.9811
22.9811
22.9811
22.9811
22.9811
22.9811
22.9811
22.9811
22.9811
22.9811
22.9811
22.9811
22.981
22.981
22.981
22.981
22.981
22.981
22.981
22.981
22.981
22.981
22.981
22.9809
22.9809
22.9809
22.9809
22.9809
22.9809
22.9809
22.981
22.981
22.981
22.981
22.981
23.0211
23.021
23.021
23.021
23.021
23.021
23.021
23.021
23.021
23.021
23.021
23.021
23.021
23.021
23.021
23.021
23.021
23.021
23.0211
23.0211
23.0211
23.0211
23.0211
23.0211
23.0211
23.0211
23.0211
23.0211
23.0211
23.0211
23.0211
23.0211
23.0211
23.0211
23.0211
23.0211
23.0211
23.0211
23.0211
23.0211
23.0211
23.0211
23.021
23.021
23.021
23.021
23.021
23.021
23.021
23.021
23.021
23.021
23.021
23.021
23.021
23.021
23.021
23.021
23.021
23.0211
23.0598
23.0598
23.0598
23.0598
23.0598
23.0597
23.0597
23.0597
23.0597
23.0597
23.0597
23.0597
23.0597
23.0597
23.0598
23.0598
23.0598
23.0598
23.0598
23.0598
23.0598
23.0598
23.0598
23.0598
23.0598
23.0598
23.0598
23.0599
23.0599
23.0599
23.0599
23.0599
23.0599
23.0598
23.0598
23.0598
23.0598
23.0598
23.0598
23.0598
23.0598
23.0598
23.0598
23.0598
23.0598
23.0598
23.0597
23.0597
23.0597
23.0597
23.0597
23.0597
23.0597
23.0597
23.0597
23.0598
23.0598
23.0598
23.0598
23.0598
23.0974
23.0974
23.0974
23.0974
23.0974
23.0973
23.0973
23.0973
23.0973
23.0973
23.0973
23.0973
23.0973
23.0973
23.0974
23.0974
23.0974
23.0974
23.0974
23.0974
23.0974
23.0974
23.0974
23.0974
23.0974
23.0974
23.0974
23.0974
23.0974
23.0975
23.0975
23.0974
23.0974
23.0974
23.0974
23.0974
23.0974
23.0974
23.0974
23.0974
23.0974
23.0974
23.0974
23.0974
23.0974
23.0974
23.0973
23.0973
23.0973
23.0973
23.0973
23.0973
23.0973
23.0973
23.0973
23.0974
23.0974
23.0974
23.0974
23.0974
23.134
23.134
23.134
23.134
23.1339
23.1339
23.1339
23.1339
23.1339
23.1339
23.1339
23.1339
23.1339
23.1339
23.1339
23.1339
23.134
23.134
23.134
23.134
23.134
23.134
23.134
23.134
23.134
23.134
23.134
23.134
23.134
23.134
23.134
23.134
23.134
23.134
23.134
23.134
23.134
23.134
23.134
23.134
23.134
23.134
23.134
23.134
23.1339
23.1339
23.1339
23.1339
23.1339
23.1339
23.1339
23.1339
23.1339
23.1339
23.1339
23.1339
23.134
23.134
23.134
23.134
23.1697
23.1697
23.1697
23.1696
23.1696
23.1696
23.1696
23.1696
23.1696
23.1696
23.1696
23.1696
23.1696
23.1696
23.1696
23.1696
23.1696
23.1697
23.1697
23.1697
23.1697
23.1697
23.1697
23.1697
23.1697
23.1697
23.1697
23.1697
23.1697
23.1697
23.1697
23.1697
23.1697
23.1697
23.1697
23.1697
23.1697
23.1697
23.1697
23.1697
23.1697
23.1697
23.1697
23.1696
23.1696
23.1696
23.1696
23.1696
23.1696
23.1696
23.1696
23.1696
23.1696
23.1696
23.1696
23.1696
23.1696
23.1697
23.1697
23.1697
23.2046
23.2046
23.2046
23.2045
23.2045
23.2045
23.2045
23.2045
23.2045
23.2045
23.2045
23.2045
23.2045
23.2045
23.2045
23.2045
23.2045
23.2045
23.2045
23.2046
23.2046
23.2046