/*--------------------------------*- C++ -*----------------------------------*\
| =========                 |                                                 |
| \\      /  F ield         | foam-extend: Open Source CFD                    |
|  \\    /   O peration     | Version:     4.0                                |
|   \\  /    A nd           | Web:         http://www.foam-extend.org         |
|    \\/     M anipulation  |                                                 |
\*---------------------------------------------------------------------------*/
FoamFile
{
    version     2.0;
    format      ascii;
    class       volScalarField;
    location    "1";
    object      p;
}
// * * * * * * * * * * * * * * * * * * * * * * * * * * * * * * * * * * * * * //

dimensions      [0 2 -2 0 0 0 0];

internalField   nonuniform List<scalar> 
1740
(
0.918217
-1.51091
-0.945211
0.142121
0.215809
0.602076
0.386207
0.383374
0.386207
0.602076
0.215809
0.142121
-0.945211
-1.51091
0.918214
0.86367
-1.47048
-0.917682
0.177152
0.218895
0.580688
0.366534
0.362452
0.366534
0.580688
0.218895
0.177152
-0.917682
-1.47048
0.863667
0.834435
-1.42994
-0.899904
0.163029
0.205662
0.572619
0.3693
0.369594
0.3693
0.572619
0.205662
0.163029
-0.899904
-1.42994
0.834431
0.801022
-1.37206
-0.87774
0.126809
0.18147
0.565303
0.380653
0.389093
0.380653
0.565303
0.18147
0.126809
-0.87774
-1.37206
0.801016
0.757675
-1.29506
-0.848395
0.0765504
0.14849
0.555793
0.396728
0.416445
0.396728
0.555793
0.14849
0.0765504
-0.848395
-1.29507
0.757665
0.703828
-1.20011
-0.811365
0.015434
0.10782
0.543266
0.416118
0.450017
0.416118
0.543266
0.10782
0.0154339
-0.811365
-1.20011
0.703811
0.639902
-1.08923
-0.766555
-0.0537284
0.0605997
0.527221
0.437614
0.488363
0.437614
0.527221
0.0605997
-0.0537285
-0.766556
-1.08924
0.639875
0.566576
-0.964844
-0.713958
-0.127935
0.00812166
0.507221
0.459897
0.52984
0.459897
0.507221
0.00812162
-0.127935
-0.713959
-0.964853
0.566532
0.484707
-0.829607
-0.653622
-0.203986
-0.0481607
0.482884
0.481507
0.572555
0.481507
0.482884
-0.0481607
-0.203986
-0.653625
-0.829621
0.484637
0.395353
-0.686427
-0.585689
-0.278552
-0.106647
0.453905
0.500868
0.614379
0.500868
0.453905
-0.106648
-0.278553
-0.585694
-0.68645
0.39524
0.299823
-0.538433
-0.510429
-0.348249
-0.165614
0.420083
0.516324
0.652991
0.516324
0.420083
-0.165615
-0.34825
-0.510436
-0.538472
0.299644
0.199716
-0.388952
-0.428281
-0.40971
-0.223242
0.381314
0.526181
0.685949
0.526181
0.381314
-0.223243
-0.409712
-0.428294
-0.389015
0.199434
0.0969477
-0.241463
-0.339898
-0.459668
-0.277654
0.337586
0.528758
0.710781
0.528758
0.337586
-0.277655
-0.459672
-0.339919
-0.241567
0.0965058
-0.0062385
-0.099531
-0.246187
-0.495048
-0.326948
0.288964
0.522442
0.725093
0.522442
0.288964
-0.32695
-0.495055
-0.246224
-0.0996992
-0.00692456
-0.107287
0.0333035
-0.148354
-0.513075
-0.369239
0.235572
0.505735
0.726688
0.505735
0.235572
-0.369241
-0.513087
-0.148416
0.0330326
-0.108343
-0.203377
0.153663
-0.0479414
-0.511406
-0.402683
0.1776
0.477315
0.71366
0.477315
0.177599
-0.402687
-0.511428
-0.0480449
0.15323
-0.204987
-0.291499
0.258513
0.0531476
-0.4883
-0.425511
0.115337
0.436079
0.684467
0.436078
0.115336
-0.425519
-0.488338
0.0529762
0.257829
-0.293928
-0.368571
0.345373
0.152646
-0.442805
-0.436061
0.0492465
0.381194
0.637954
0.381194
0.0492439
-0.436075
-0.44287
0.152364
0.344301
-0.372198
-0.431587
0.412536
0.247955
-0.374971
-0.432821
-0.0199203
0.312144
0.573327
0.312143
-0.0199251
-0.432845
-0.375083
0.247498
0.410874
-0.436943
-0.477796
0.45928
0.336233
-0.286054
-0.414499
-0.0909818
0.228778
0.490076
0.228776
-0.0909908
-0.414542
-0.286243
0.335498
0.456734
-0.485608
-0.504891
0.486041
0.414534
-0.178676
-0.380127
-0.162186
0.131364
0.387881
0.131361
-0.162203
-0.380203
-0.178991
0.413365
0.482186
-0.51614
-0.511206
0.494499
0.480013
-0.0569024
-0.329211
-0.231118
0.0206578
0.266535
0.0206519
-0.231147
-0.329342
-0.0574223
0.478176
0.488736
-0.527184
-0.495894
0.487566
0.530188
0.0738171
-0.261921
-0.294704
-0.102027
0.125947
-0.102038
-0.294757
-0.262145
0.0729698
0.527339
0.479068
-0.518262
-0.459061
0.469233
0.563237
0.206884
-0.179314
-0.349384
-0.234737
-0.0337247
-0.234757
-0.349478
-0.179693
0.205521
0.558877
0.456882
-0.489897
-0.401852
0.444285
0.578296
0.33498
-0.0835687
-0.391465
-0.3748
-0.211762
-0.374838
-0.39163
-0.0842024
0.332815
0.571719
0.426604
-0.443676
-0.32646
0.417884
0.575726
0.450674
0.0218188
-0.417682
-0.518777
-0.406392
-0.518845
-0.417968
0.0207753
0.447286
0.565954
0.39298
-0.382225
-0.23606
0.395084
0.557286
0.547166
0.13192
-0.425898
-0.66244
-0.614163
-0.66256
-0.426387
0.130226
0.541943
0.542999
0.360601
-0.309078
-0.13465
0.380312
0.526176
0.61905
0.240396
-0.415844
-0.800829
-0.829306
-0.801041
-0.416666
0.237688
0.611126
0.50564
0.333421
-0.228457
-0.026824
0.376907
0.486902
0.662979
0.339706
-0.389719
-0.928398
-1.04326
-0.928766
-0.39108
0.335445
0.651162
0.457911
0.314345
-0.144961
0.0825291
0.386786
0.444935
0.678094
0.421537
-0.352479
-1.03925
-1.24459
-1.03988
-0.354699
0.414946
0.660782
0.404779
0.30497
-0.0631839
0.188582
0.410267
0.406153
0.666069
0.477456
-0.31162
-1.12749
-1.41936
-1.12855
-0.315177
0.467442
0.641185
0.351635
0.305497
0.0126977
0.286959
0.446099
0.376086
0.630726
0.499753
-0.276352
-1.1876
-1.55231
-1.18934
-0.281949
0.484824
0.595665
0.303611
0.314845
0.0793237
0.37413
0.491633
0.359007
0.577217
0.48241
-0.256171
-1.21486
-1.62845
-1.21767
-0.26481
0.460594
0.528847
0.264765
0.330911
0.134494
0.447767
0.543108
0.356977
0.510914
0.422123
-0.258985
-1.20576
-1.63527
-1.21022
-0.272051
0.390911
0.445644
0.237228
0.350879
0.177391
0.506997
0.595943
0.368992
0.436278
0.319255
-0.289124
-1.1584
-1.565
-1.1653
-0.308464
0.275579
0.350224
0.220447
0.371492
0.208614
0.55245
0.644993
0.390483
0.356015
0.178594
-0.34567
-1.07283
-1.41671
-1.08329
-0.373655
0.11889
0.245282
0.210738
0.389179
0.229992
0.586021
0.68475
0.413397
0.270866
0.00975183
-0.42163
-0.951442
-1.19772
-0.966909
-0.461159
-0.0698829
0.131937
0.20137
0.400068
0.244127
0.610308
0.709556
0.427094
0.180162
-0.173046
-0.50434
-0.799352
-0.923976
-0.821635
-0.55877
-0.276559
0.0103757
0.183366
0.399953
0.253743
0.627802
0.713935
0.420071
0.0830372
-0.351971
-0.577285
-0.624558
-0.619024
-0.655785
-0.650237
-0.482934
-0.118905
0.147067
0.384388
0.260932
0.640007
0.693136
0.382274
-0.0201067
-0.507557
-0.623122
-0.437761
-0.311402
-0.480245
-0.718131
-0.668611
-0.253672
0.0842035
0.349057
0.266514
0.646744
0.643859
0.30751
-0.126455
-0.621472
-0.627284
-0.251577
-0.0306984
-0.307565
-0.747284
-0.813687
-0.388945
-0.00997516
0.290416
0.269659
0.645775
0.565019
0.195306
-0.230426
-0.679661
-0.581307
-0.0790652
0.197186
-0.150347
-0.727934
-0.901883
-0.516884
-0.135146
0.206453
0.267847
0.632727
0.458239
0.0517307
-0.32424
-0.675082
-0.484935
0.0682271
0.354599
-0.0191422
-0.657717
-0.923398
-0.627739
-0.285418
0.0972895
0.257107
0.601099
0.327792
-0.111052
-0.399124
-0.609201
-0.346408
0.182251
0.435364
0.0796421
-0.54195
-0.876712
-0.711568
-0.450039
-0.0345954
0.232381
0.542204
0.17984
-0.276367
-0.446593
-0.491602
-0.180783
0.259862
0.445711
0.145138
-0.392187
-0.768775
-0.760118
-0.61501
-0.184513
0.187932
0.445216
0.0211072
-0.425423
-0.459397
-0.337651
-0.0067051
0.303169
0.402477
0.182138
-0.22359
-0.613507
-0.768237
-0.765018
-0.345827
0.117915
0.297958
-0.142574
-0.540237
-0.432123
-0.164864
0.157555
0.318714
0.328957
0.1997
-0.0519816
-0.429088
-0.734465
-0.885137
-0.509975
0.0174229
0.0892556
-0.30725
-0.606867
-0.361939
0.0108296
0.297815
0.315845
0.249564
0.208584
0.108554
-0.23486
-0.660892
-0.962089
-0.666143
-0.115744
-0.186736
-0.470857
-0.618685
-0.250065
0.177564
0.40655
0.304914
0.184858
0.218311
0.247035
-0.0487034
-0.5527
-0.985253
-0.800897
-0.27867
-0.524907
-0.632087
-0.579098
-0.104039
0.327827
0.483666
0.295917
0.148384
0.23488
0.355914
0.114615
-0.417777
-0.947845
-0.898509
-0.461008
-0.904281
-0.788446
-0.5027
0.0600225
0.456551
0.53522
0.297748
0.146031
0.259972
0.430839
0.24413
-0.266529
-0.84846
-0.942686
-0.643986
-1.28653
-0.934273
-0.413739
0.216774
0.557989
0.570293
0.317767
0.177629
0.291879
0.470407
0.332801
-0.11161
-0.692691
-0.919906
-0.801908
-1.62016
-1.05969
-0.341292
0.334197
0.623091
0.596802
0.361055
0.239629
0.327692
0.476289
0.377577
0.0328999
-0.494031
-0.82365
-0.906636
-1.85052
-1.15125
-0.311793
0.379931
0.639039
0.617486
0.428966
0.327333
0.365698
0.453689
0.379713
0.153216
-0.273157
-0.65806
-0.93428
-1.93353
-1.19441
-0.340924
0.330197
0.591805
0.627524
0.517137
0.43556
0.406789
0.411665
0.345226
0.238334
-0.0551216
-0.439345
-0.872132
-1.84853
-1.17734
-0.427752
0.178487
0.47125
0.614965
0.613889
0.557507
0.454085
0.362701
0.285047
0.282686
0.135231
-0.193865
-0.723413
-1.60573
-1.09489
-0.553605
-0.0594042
0.276998
0.564274
0.700281
0.682673
0.510724
0.321046
0.214335
0.288031
0.278443
0.0469456
-0.507913
-1.24524
-0.951303
-0.686648
-0.346504
0.0226492
0.462158
0.752719
0.795357
0.57669
0.299879
0.15059
0.263788
0.36466
0.253403
-0.25801
-0.827626
-0.760682
-0.790879
-0.632288
-0.263723
0.303785
0.748121
0.875193
0.646074
0.307863
0.110659
0.225417
0.395532
0.404033
-0.0112248
-0.419153
-0.544876
-0.836541
-0.864685
-0.543604
0.0970827
0.670375
0.900365
0.7062
0.346173
0.107195
0.191109
0.383197
0.489689
0.198372
-0.0766183
-0.329301
-0.808324
-1.00266
-0.775744
-0.136681
0.516029
0.852905
0.739405
0.407077
0.145455
0.177558
0.34669
0.514256
0.347332
0.163662
-0.137901
-0.708726
-1.02543
-0.92531
-0.366589
0.297114
0.724453
0.727262
0.474853
0.221405
0.195904
0.306904
0.492116
0.426727
0.29004
0.0113187
-0.555842
-0.935684
-0.971689
-0.559041
0.0398374
0.520374
0.656042
0.529071
0.321816
0.248861
0.281521
0.443509
0.442182
0.312876
0.109079
-0.37692
-0.756527
-0.912671
-0.685824
-0.220698
0.260578
0.521627
0.549506
0.426574
0.3298
0.281217
0.389375
0.410649
0.257248
0.155382
-0.200327
-0.523704
-0.76398
-0.730757
-0.448233
-0.0235325
0.332156
0.521339
0.512779
0.424024
0.307933
0.347049
0.355258
0.15417
0.158032
-0.0486841
-0.276163
-0.554648
-0.692966
-0.613246
-0.29526
0.10743
0.439164
0.559724
0.51202
0.355403
0.327598
0.299711
0.0331307
0.129834
0.0650069
-0.0477506
-0.319899
-0.586073
-0.698764
-0.520199
-0.124877
0.308623
0.553522
0.573916
0.411572
0.334948
0.263405
-0.0824779
0.0854004
0.13777
0.137989
-0.0937166
-0.433945
-0.702693
-0.673062
-0.335077
0.145258
0.490245
0.594119
0.462128
0.366465
0.257989
-0.176878
0.0383685
0.174389
0.269388
0.097028
-0.264584
-0.63645
-0.741998
-0.497709
-0.029022
0.376788
0.564992
0.494207
0.414474
0.285697
-0.241201
-0.000452507
0.183881
0.345233
0.235792
-0.104078
-0.520782
-0.729506
-0.596429
-0.190766
0.229317
0.488643
0.499344
0.468205
0.339511
-0.271771
-0.0239083
0.176118
0.371654
0.316775
0.0278817
-0.380306
-0.650132
-0.626374
-0.319731
0.0697512
0.376379
0.475001
0.515808
0.405027
-0.268407
-0.028472
0.159515
0.358688
0.343175
0.120135
-0.238334
-0.525967
-0.593671
-0.402384
-0.0787668
0.245987
0.42443
0.546181
0.463673
-0.233308
-0.0136958
0.140051
0.317496
0.324287
0.169913
-0.113134
-0.381371
-0.512611
-0.433466
-0.19632
0.117579
0.355059
0.550461
0.496686
-0.170581
0.0185329
0.121394
0.258645
0.272464
0.181085
-0.0161016
-0.238287
-0.401558
-0.41562
-0.269607
0.00911121
0.276031
0.523106
0.489094
-0.0861671
0.0647037
0.10561
0.191391
0.20064
0.161689
0.0482935
-0.113052
-0.278854
-0.357556
-0.293692
-0.0672906
0.195681
0.462493
0.432857
0.0122306
0.120271
0.0939506
0.123609
0.120713
0.121572
0.0813228
-0.015052
-0.1597
-0.271556
-0.271973
-0.107335
0.119716
0.371036
0.328502
0.115499
0.180128
0.0873784
0.0619391
0.0427456
0.0705995
0.0882329
0.0529582
-0.0545415
-0.171043
-0.214648
-0.114572
0.0505192
0.254825
0.184946
0.213879
0.239026
0.0867072
0.011854
-0.0252666
0.0176145
0.0764457
0.093379
0.0310408
-0.0687134
-0.136216
-0.098605
-0.0123744
0.122848
0.0175988
0.298067
0.291999
0.0924404
-0.0224842
-0.0773687
-0.0300183
0.0540518
0.111768
0.0953588
0.0246128
-0.0526167
-0.0721724
-0.0709855
-0.0141214
-0.154711
0.360421
0.33479
0.104484
-0.0385132
-0.10957
-0.0665226
0.0287034
0.114872
0.139157
0.100522
0.0214229
-0.0479401
-0.127341
-0.144852
-0.313237
0.395996
0.36426
0.121932
-0.0355552
-0.119828
-0.0877292
0.00686705
0.109069
0.16424
0.153168
0.0744541
-0.0358095
-0.182228
-0.259019
-0.442449
0.403157
0.378702
0.143048
-0.0149267
-0.10806
-0.0911437
-0.0066529
0.0993978
0.172555
0.179293
0.0995558
-0.0412779
-0.234624
-0.34844
-0.532209
0.383637
0.37799
0.165493
0.0202316
-0.0761268
-0.0760793
-0.00899327
0.089168
0.165862
0.178215
0.0947269
-0.0650367
-0.281895
-0.407983
-0.578676
0.342039
0.363536
0.186726
0.0654123
-0.0276685
-0.0437715
0.000665527
0.0800399
0.145877
0.151792
0.0625114
-0.103661
-0.320571
-0.436023
-0.583967
0.284934
0.338034
0.204466
0.115399
0.0322359
0.0026469
0.0211884
0.0723961
0.114644
0.104257
0.00903427
-0.151014
-0.347391
-0.434372
-0.554874
0.219752
0.305058
0.217094
0.164985
0.0975933
0.0584071
0.0497867
0.0658354
0.0748824
0.0418212
-0.0573216
-0.199911
-0.360223
-0.407725
-0.501043
0.153709
0.268555
0.223867
0.209611
0.162144
0.117631
0.0825229
0.0596504
0.0301007
-0.0279883
-0.127358
-0.24362
-0.358614
-0.362727
-0.433075
0.0929373
0.232343
0.224935
0.245804
0.220043
0.174068
0.114965
0.0531972
-0.0155869
-0.0972253
-0.192399
-0.276948
-0.343862
-0.306872
-0.360896
0.0419367
0.199671
0.221154
0.271389
0.266466
0.221924
0.142889
0.0461183
-0.0579068
-0.158507
-0.245356
-0.296771
-0.318654
-0.247408
-0.292607
0.00335966
0.172902
0.213787
0.285474
0.298064
0.256621
0.162909
0.0384181
-0.0929972
-0.205912
-0.281408
-0.302078
-0.286443
-0.190452
-0.233883
-0.0219208
0.153358
0.204171
0.288275
0.313201
0.275354
0.172927
0.0304223
-0.117949
-0.235626
-0.298259
-0.293641
-0.250759
-0.140424
-0.187877
-0.0345418
0.141311
0.193448
0.280855
0.311965
0.277333
0.172327
0.022663
-0.131175
-0.246227
-0.296018
-0.273493
-0.214644
-0.0998317
-0.155491
-0.0362743
0.136114
0.18241
0.264851
0.295973
0.263718
0.161908
0.0157357
-0.13254
-0.238588
-0.276784
-0.24437
-0.180303
-0.0693884
-0.135879
-0.0296174
0.136427
0.171456
0.242225
0.268014
0.237248
0.143597
0.0101684
-0.123231
-0.215455
-0.244046
-0.20922
-0.149001
-0.0483605
-0.127024
-0.0174162
0.140494
0.160671
0.21506
0.231606
0.2017
0.12002
0.00632592
-0.105437
-0.180816
-0.202035
-0.170847
-0.121172
-0.0350487
-0.126301
-0.00253214
0.146422
0.149949
0.18541
0.190529
0.16127
0.0940351
0.00436443
-0.0819104
-0.139198
-0.155106
-0.131691
-0.0966547
-0.0272895
-0.13095
0.0124211
0.152433
0.139126
0.155177
0.148401
0.119995
0.0683123
0.00423249
-0.0555255
-0.0950196
-0.107252
-0.0937276
-0.0749652
-0.0228923
-0.138422
0.0252723
0.157053
0.128101
0.126017
0.108338
0.0813012
0.0450249
0.00570911
-0.0288934
-0.0520864
-0.0617611
-0.0584458
-0.0555456
-0.0199625
-0.146605
0.034419
0.159233
0.116885
0.0992749
0.0727317
0.0477258
0.025677
0.00846221
-0.00409939
-0.0132838
-0.0210395
-0.0268794
-0.0379342
-0.0170904
-0.153939
0.0388851
0.158397
0.105621
0.0759266
0.0431459
0.0208085
0.0110663
0.0121119
0.0174268
0.0195386
0.0134198
0.000343242
-0.0218508
-0.0134125
-0.159438
0.0383142
0.154419
0.0945506
0.0565652
0.0203276
0.00114073
0.00135226
0.0162856
0.0349183
0.0455188
0.040962
0.0229404
-0.00720428
-0.00857453
-0.162638
0.0329062
0.147559
0.0839667
0.0414098
0.00430289
-0.0114798
-0.00380699
0.0206568
0.0481867
0.0646205
0.0616214
0.0409175
0.00595191
-0.00262897
-0.163512
0.0233077
0.138364
0.0741605
0.0303496
-0.00546717
-0.0178354
-0.00509022
0.0249668
0.0574838
0.0774132
0.0759402
0.0545086
0.0174888
0.00409708
-0.162351
0.0104754
0.127554
0.0653802
0.0230136
-0.00990476
-0.0190617
-0.00335242
0.0290288
0.0633455
0.0848409
0.0847824
0.0641179
0.0272714
0.0111344
-0.15965
-0.0044696
0.115921
0.0578065
0.0188561
-0.0101346
-0.0164403
0.000510086
0.0327212
0.0664464
0.0880156
0.0891687
0.0702631
0.0352118
0.0179849
-0.155996
-0.0203772
0.104234
0.0515453
0.0172443
-0.00732584
-0.0112339
0.00565852
0.0359738
0.0674817
0.0880536
0.0901424
0.0735212
0.0413
0.0242043
-0.151982
-0.036179
0.0931791
0.0466348
0.0175387
-0.00256995
-0.00457069
0.0113732
0.0387516
0.0670846
0.0859636
0.0886727
0.0744792
0.0456109
0.0294521
-0.148134
-0.0509641
0.083311
0.04306
0.0191555
0.00320044
0.00262185
0.017082
0.0410409
0.0657782
0.0825827
0.0855938
0.0736927
0.0482925
0.0335106
-0.144874
-0.0640153
0.0750431
0.0407715
0.0216071
0.00925273
0.00964115
0.0223643
0.0428378
0.0639571
0.0785514
0.0815745
0.0716538
0.0495414
0.03628
-0.142493
-0.0748074
0.0686484
0.0397011
0.0245215
0.015062
0.0160025
0.0269373
0.0441411
0.0618887
0.0743179
0.0771114
0.0687681
0.0495722
0.0377549
-0.14115
-0.0829664
0.0642749
0.0397725
0.027641
0.020294
0.0214112
0.030633
0.0449477
0.0597289
0.0701584
0.0725364
0.0653397
0.0485824
0.0379873
-0.14087
-0.0881897
0.061959
0.0409032
0.0308079
0.0247727
0.0257244
0.0333716
0.0452491
0.0575416
0.0662051
0.0680336
0.0615616
0.0467152
0.0370347
-0.141525
-0.0901089
0.0616112
0.0429906
0.0339402
0.0284417
0.0289092
0.0351337
0.0450303
0.05532
0.0624774
0.0636598
0.0575099
0.0440142
0.0348766
-0.142789
-0.0880654
0.0629035
0.04586
0.0369945
0.0313188
0.0309998
0.0359352
0.0442711
0.053016
0.0589249
0.059385
0.0531601
0.0403757
0.0312626
-0.143965
-0.081287
0.064556
0.0488622
0.0397192
0.0333438
0.0320391
0.0358642
0.0430739
0.0507478
0.0557093
0.0554351
0.0487636
0.035855
0.0257363
-0.143461
-0.0761361
0.0615892
0.047482
0.0392478
0.0330034
0.031697
0.0355598
0.0428705
0.0506592
0.0556854
0.0553713
0.048453
0.0345587
0.0228888
-0.138052
)
;

boundaryField
{
    top
    {
        type            zeroGradient;
    }
    bottom
    {
        type            zeroGradient;
    }
    wall
    {
        type            zeroGradient;
    }
    frontAndBack
    {
        type            empty;
    }
    procBoundary2to1
    {
        type            processor;
        value           nonuniform List<scalar> 
116
(
0.918217
0.86367
0.834435
0.801022
0.757675
0.703828
0.639902
0.566576
0.484707
0.395353
0.299823
0.199716
0.0969477
-0.00623849
-0.107287
-0.203377
-0.291499
-0.368571
-0.431587
-0.477796
-0.504891
-0.511206
-0.495894
-0.459061
-0.401852
-0.32646
-0.23606
-0.13465
-0.026824
0.0825291
0.188582
0.286959
0.37413
0.447767
0.506997
0.55245
0.586021
0.610308
0.627802
0.640007
0.646744
0.645775
0.632727
0.601099
0.542204
0.445216
0.297958
0.0892556
-0.186736
-0.524907
-0.904281
-1.28653
-1.62016
-1.85052
-1.93353
-1.84853
-1.60573
-1.24524
-0.827626
-0.419153
-0.0766183
0.163662
0.29004
0.312876
0.257248
0.15417
0.0331307
-0.0824779
-0.176878
-0.241201
-0.271771
-0.268407
-0.233308
-0.170581
-0.0861671
0.0122306
0.115499
0.213879
0.298067
0.360421
0.395996
0.403157
0.383637
0.342039
0.284934
0.219752
0.153709
0.0929373
0.0419367
0.00335966
-0.0219209
-0.0345418
-0.0362743
-0.0296174
-0.0174162
-0.00253214
0.0124211
0.0252723
0.034419
0.0388851
0.0383142
0.0329062
0.0233077
0.0104754
-0.0044696
-0.0203772
-0.036179
-0.0509641
-0.0640153
-0.0748074
-0.0829664
-0.0881897
-0.0901089
-0.0880654
-0.081287
-0.0761361
)
;
    }
    procBoundary2to3
    {
        type            processor;
        value           nonuniform List<scalar> 
116
(
0.918198
0.863652
0.834411
0.800986
0.75762
0.703742
0.639768
0.56637
0.484389
0.394866
0.299083
0.198599
0.0952757
-0.008718
-0.11093
-0.208673
-0.299117
-0.379404
-0.446805
-0.498897
-0.533749
-0.550103
-0.547516
-0.526464
-0.488361
-0.435506
-0.370938
-0.298225
-0.221198
-0.143657
-0.0690958
-0.000456297
0.0600599
0.111122
0.152336
0.184248
0.208256
0.226412
0.241101
0.254627
0.268762
0.284341
0.300906
0.316353
0.326516
0.324779
0.302061
0.247715
0.151839
0.00894814
-0.177839
-0.393738
-0.612147
-0.798502
-0.917777
-0.943631
-0.866215
-0.695837
-0.461001
-0.201341
0.042289
0.237439
0.366631
0.429299
0.439135
0.41818
0.389674
0.371676
0.372944
0.391761
0.417611
0.434961
0.428
0.385096
0.301902
0.182463
0.0382399
-0.114537
-0.258369
-0.377922
-0.462619
-0.507919
-0.51521
-0.490606
-0.443106
-0.382634
-0.318388
-0.257731
-0.205683
-0.164934
-0.136203
-0.118768
-0.111006
-0.110855
-0.116161
-0.124899
-0.135306
-0.145939
-0.155706
-0.163854
-0.169956
-0.173871
-0.175701
-0.175732
-0.174373
-0.172094
-0.169369
-0.166631
-0.164233
-0.162431
-0.161357
-0.16099
-0.161091
-0.161032
-0.159343
-0.153758
)
;
    }
}


// ************************************************************************* //
