/*--------------------------------*- C++ -*----------------------------------*\
| =========                 |                                                 |
| \\      /  F ield         | foam-extend: Open Source CFD                    |
|  \\    /   O peration     | Version:     4.0                                |
|   \\  /    A nd           | Web:         http://www.foam-extend.org         |
|    \\/     M anipulation  |                                                 |
\*---------------------------------------------------------------------------*/
FoamFile
{
    version     2.0;
    format      ascii;
    class       volScalarField;
    location    "970";
    object      cPlus;
}
// * * * * * * * * * * * * * * * * * * * * * * * * * * * * * * * * * * * * * //

dimensions      [0 0 0 0 0 0 0];

internalField   nonuniform List<scalar> 
6960
(
0.313583
0.313569
0.313568
0.31357
0.313572
0.313575
0.313577
0.313579
0.31358
0.313582
0.313583
0.313584
0.313585
0.313586
0.313586
0.313587
0.313588
0.313588
0.313589
0.313589
0.313589
0.31359
0.31359
0.31359
0.31359
0.313591
0.313591
0.313591
0.313591
0.313591
0.313591
0.313591
0.313591
0.313591
0.313591
0.31359
0.31359
0.31359
0.31359
0.313589
0.313589
0.313589
0.313588
0.313588
0.313587
0.313586
0.313586
0.313585
0.313584
0.313583
0.313582
0.31358
0.313579
0.313577
0.313575
0.313572
0.31357
0.313568
0.313569
0.313583
0.136701
0.136715
0.136719
0.136722
0.136724
0.136726
0.136727
0.136729
0.13673
0.136731
0.136732
0.136732
0.136733
0.136734
0.136734
0.136734
0.136735
0.136735
0.136736
0.136736
0.136736
0.136736
0.136736
0.136737
0.136737
0.136737
0.136737
0.136737
0.136737
0.136737
0.136737
0.136737
0.136737
0.136737
0.136737
0.136737
0.136737
0.136736
0.136736
0.136736
0.136736
0.136736
0.136735
0.136735
0.136734
0.136734
0.136734
0.136733
0.136732
0.136732
0.136731
0.13673
0.136729
0.136727
0.136726
0.136724
0.136722
0.136719
0.136715
0.136701
0.09897
0.0990015
0.099009
0.099012
0.0990139
0.0990153
0.0990165
0.0990174
0.0990183
0.099019
0.0990196
0.0990201
0.0990206
0.099021
0.0990213
0.0990216
0.0990219
0.0990221
0.0990224
0.0990226
0.0990227
0.0990229
0.099023
0.0990231
0.0990232
0.0990232
0.0990233
0.0990233
0.0990234
0.0990234
0.0990234
0.0990234
0.0990233
0.0990233
0.0990232
0.0990232
0.0990231
0.099023
0.0990229
0.0990227
0.0990226
0.0990224
0.0990221
0.0990219
0.0990216
0.0990213
0.099021
0.0990206
0.0990201
0.0990196
0.099019
0.0990183
0.0990174
0.0990165
0.0990153
0.0990139
0.099012
0.099009
0.0990015
0.09897
0.0935201
0.0935632
0.093573
0.0935764
0.0935783
0.0935797
0.0935808
0.0935816
0.0935824
0.093583
0.0935836
0.093584
0.0935844
0.0935848
0.0935851
0.0935853
0.0935856
0.0935858
0.093586
0.0935861
0.0935863
0.0935864
0.0935865
0.0935866
0.0935867
0.0935867
0.0935868
0.0935868
0.0935868
0.0935868
0.0935868
0.0935868
0.0935868
0.0935868
0.0935867
0.0935867
0.0935866
0.0935865
0.0935864
0.0935863
0.0935861
0.093586
0.0935858
0.0935856
0.0935853
0.0935851
0.0935848
0.0935844
0.093584
0.0935836
0.093583
0.0935824
0.0935816
0.0935808
0.0935797
0.0935783
0.0935764
0.093573
0.0935632
0.0935201
0.0983917
0.0984453
0.0984574
0.0984614
0.0984636
0.098465
0.0984662
0.0984672
0.098468
0.0984686
0.0984692
0.0984697
0.0984701
0.0984705
0.0984708
0.0984711
0.0984713
0.0984716
0.0984718
0.0984719
0.0984721
0.0984722
0.0984723
0.0984724
0.0984725
0.0984725
0.0984726
0.0984726
0.0984726
0.0984726
0.0984726
0.0984726
0.0984726
0.0984726
0.0984725
0.0984725
0.0984724
0.0984723
0.0984722
0.0984721
0.0984719
0.0984718
0.0984716
0.0984713
0.0984711
0.0984708
0.0984705
0.0984701
0.0984697
0.0984692
0.0984686
0.098468
0.0984672
0.0984662
0.098465
0.0984636
0.0984614
0.0984574
0.0984453
0.0983917
0.108332
0.108398
0.108413
0.108418
0.10842
0.108422
0.108423
0.108424
0.108425
0.108426
0.108427
0.108427
0.108428
0.108428
0.108429
0.108429
0.108429
0.10843
0.10843
0.10843
0.10843
0.10843
0.10843
0.10843
0.108431
0.108431
0.108431
0.108431
0.108431
0.108431
0.108431
0.108431
0.108431
0.108431
0.108431
0.108431
0.10843
0.10843
0.10843
0.10843
0.10843
0.10843
0.10843
0.108429
0.108429
0.108429
0.108428
0.108428
0.108427
0.108427
0.108426
0.108425
0.108424
0.108423
0.108422
0.10842
0.108418
0.108413
0.108398
0.108332
0.122306
0.122386
0.122405
0.122411
0.122414
0.122416
0.122417
0.122419
0.12242
0.122421
0.122422
0.122422
0.122423
0.122424
0.122424
0.122424
0.122425
0.122425
0.122425
0.122426
0.122426
0.122426
0.122426
0.122426
0.122426
0.122426
0.122427
0.122427
0.122427
0.122427
0.122427
0.122427
0.122427
0.122427
0.122426
0.122426
0.122426
0.122426
0.122426
0.122426
0.122426
0.122425
0.122425
0.122425
0.122424
0.122424
0.122424
0.122423
0.122422
0.122422
0.122421
0.12242
0.122419
0.122417
0.122416
0.122414
0.122411
0.122405
0.122386
0.122306
0.140354
0.140452
0.140475
0.140482
0.140486
0.140488
0.14049
0.140492
0.140493
0.140494
0.140495
0.140496
0.140497
0.140498
0.140498
0.140499
0.140499
0.140499
0.1405
0.1405
0.1405
0.1405
0.140501
0.140501
0.140501
0.140501
0.140501
0.140501
0.140501
0.140501
0.140501
0.140501
0.140501
0.140501
0.140501
0.140501
0.140501
0.140501
0.1405
0.1405
0.1405
0.1405
0.140499
0.140499
0.140499
0.140498
0.140498
0.140497
0.140496
0.140495
0.140494
0.140493
0.140492
0.14049
0.140488
0.140486
0.140482
0.140475
0.140452
0.140354
0.162573
0.162692
0.162719
0.162728
0.162732
0.162735
0.162737
0.162739
0.162741
0.162742
0.162743
0.162744
0.162745
0.162746
0.162746
0.162747
0.162747
0.162748
0.162748
0.162749
0.162749
0.162749
0.162749
0.162749
0.16275
0.16275
0.16275
0.16275
0.16275
0.16275
0.16275
0.16275
0.16275
0.16275
0.16275
0.16275
0.162749
0.162749
0.162749
0.162749
0.162749
0.162748
0.162748
0.162747
0.162747
0.162746
0.162746
0.162745
0.162744
0.162743
0.162742
0.162741
0.162739
0.162737
0.162735
0.162732
0.162728
0.162719
0.162692
0.162573
0.188714
0.188855
0.188887
0.188898
0.188903
0.188906
0.188909
0.188911
0.188912
0.188914
0.188915
0.188916
0.188917
0.188918
0.188919
0.188919
0.18892
0.18892
0.188921
0.188921
0.188921
0.188922
0.188922
0.188922
0.188922
0.188922
0.188922
0.188922
0.188923
0.188923
0.188923
0.188923
0.188922
0.188922
0.188922
0.188922
0.188922
0.188922
0.188922
0.188921
0.188921
0.188921
0.18892
0.18892
0.188919
0.188919
0.188918
0.188917
0.188916
0.188915
0.188914
0.188912
0.188911
0.188909
0.188906
0.188903
0.188898
0.188887
0.188855
0.188714
0.218104
0.218267
0.218305
0.218317
0.218322
0.218326
0.218329
0.218331
0.218333
0.218334
0.218335
0.218337
0.218338
0.218338
0.218339
0.21834
0.21834
0.218341
0.218341
0.218342
0.218342
0.218342
0.218343
0.218343
0.218343
0.218343
0.218343
0.218343
0.218343
0.218343
0.218343
0.218343
0.218343
0.218343
0.218343
0.218343
0.218343
0.218343
0.218342
0.218342
0.218342
0.218341
0.218341
0.21834
0.21834
0.218339
0.218338
0.218338
0.218337
0.218335
0.218334
0.218333
0.218331
0.218329
0.218326
0.218322
0.218317
0.218305
0.218267
0.218104
0.24979
0.249973
0.250016
0.250029
0.250035
0.250038
0.250041
0.250044
0.250046
0.250047
0.250048
0.25005
0.250051
0.250051
0.250052
0.250053
0.250053
0.250054
0.250054
0.250055
0.250055
0.250055
0.250056
0.250056
0.250056
0.250056
0.250056
0.250056
0.250056
0.250056
0.250056
0.250056
0.250056
0.250056
0.250056
0.250056
0.250056
0.250056
0.250055
0.250055
0.250055
0.250054
0.250054
0.250053
0.250053
0.250052
0.250051
0.250051
0.25005
0.250048
0.250047
0.250046
0.250044
0.250041
0.250038
0.250035
0.250029
0.250016
0.249973
0.24979
0.282773
0.282974
0.283021
0.283036
0.283042
0.283046
0.283048
0.283051
0.283053
0.283054
0.283055
0.283057
0.283058
0.283058
0.283059
0.28306
0.28306
0.283061
0.283061
0.283062
0.283062
0.283062
0.283062
0.283063
0.283063
0.283063
0.283063
0.283063
0.283063
0.283063
0.283063
0.283063
0.283063
0.283063
0.283063
0.283063
0.283063
0.283062
0.283062
0.283062
0.283062
0.283061
0.283061
0.28306
0.28306
0.283059
0.283058
0.283058
0.283057
0.283055
0.283054
0.283053
0.283051
0.283048
0.283046
0.283042
0.283036
0.283021
0.282974
0.282773
0.316202
0.316419
0.316471
0.316486
0.316493
0.316497
0.316499
0.316502
0.316504
0.316505
0.316506
0.316507
0.316508
0.316509
0.31651
0.31651
0.316511
0.316511
0.316512
0.316512
0.316512
0.316513
0.316513
0.316513
0.316513
0.316513
0.316514
0.316514
0.316514
0.316514
0.316514
0.316514
0.316514
0.316514
0.316513
0.316513
0.316513
0.316513
0.316513
0.316512
0.316512
0.316512
0.316511
0.316511
0.31651
0.31651
0.316509
0.316508
0.316507
0.316506
0.316505
0.316504
0.316502
0.316499
0.316497
0.316493
0.316486
0.316471
0.316419
0.316202
0.349457
0.349688
0.349744
0.34976
0.349766
0.34977
0.349773
0.349775
0.349777
0.349778
0.349779
0.34978
0.349781
0.349782
0.349783
0.349783
0.349784
0.349784
0.349784
0.349785
0.349785
0.349785
0.349785
0.349786
0.349786
0.349786
0.349786
0.349786
0.349786
0.349786
0.349786
0.349786
0.349786
0.349786
0.349786
0.349786
0.349786
0.349785
0.349785
0.349785
0.349785
0.349784
0.349784
0.349784
0.349783
0.349783
0.349782
0.349781
0.34978
0.349779
0.349778
0.349777
0.349775
0.349773
0.34977
0.349766
0.34976
0.349744
0.349688
0.349457
0.38213
0.382373
0.382433
0.38245
0.382456
0.38246
0.382463
0.382465
0.382466
0.382468
0.382469
0.38247
0.38247
0.382471
0.382472
0.382472
0.382473
0.382473
0.382474
0.382474
0.382474
0.382474
0.382475
0.382475
0.382475
0.382475
0.382475
0.382475
0.382475
0.382475
0.382475
0.382475
0.382475
0.382475
0.382475
0.382475
0.382475
0.382475
0.382474
0.382474
0.382474
0.382474
0.382473
0.382473
0.382472
0.382472
0.382471
0.38247
0.38247
0.382469
0.382468
0.382466
0.382465
0.382463
0.38246
0.382456
0.38245
0.382433
0.382373
0.38213
0.413978
0.414232
0.414295
0.414313
0.41432
0.414323
0.414326
0.414328
0.414329
0.41433
0.414331
0.414332
0.414333
0.414334
0.414334
0.414335
0.414335
0.414335
0.414336
0.414336
0.414336
0.414337
0.414337
0.414337
0.414337
0.414337
0.414337
0.414337
0.414337
0.414337
0.414337
0.414337
0.414337
0.414337
0.414337
0.414337
0.414337
0.414337
0.414337
0.414336
0.414336
0.414336
0.414335
0.414335
0.414335
0.414334
0.414334
0.414333
0.414332
0.414331
0.41433
0.414329
0.414328
0.414326
0.414323
0.41432
0.414313
0.414295
0.414232
0.413978
0.444864
0.445126
0.445193
0.445212
0.445219
0.445222
0.445224
0.445226
0.445228
0.445229
0.44523
0.44523
0.445231
0.445232
0.445232
0.445233
0.445233
0.445233
0.445234
0.445234
0.445234
0.445234
0.445235
0.445235
0.445235
0.445235
0.445235
0.445235
0.445235
0.445235
0.445235
0.445235
0.445235
0.445235
0.445235
0.445235
0.445235
0.445235
0.445234
0.445234
0.445234
0.445234
0.445233
0.445233
0.445233
0.445232
0.445232
0.445231
0.44523
0.44523
0.445229
0.445228
0.445226
0.445224
0.445222
0.445219
0.445212
0.445193
0.445126
0.444864
0.474713
0.474983
0.475053
0.475073
0.47508
0.475083
0.475085
0.475087
0.475088
0.475089
0.47509
0.475091
0.475092
0.475092
0.475093
0.475093
0.475093
0.475094
0.475094
0.475094
0.475094
0.475095
0.475095
0.475095
0.475095
0.475095
0.475095
0.475095
0.475095
0.475095
0.475095
0.475095
0.475095
0.475095
0.475095
0.475095
0.475095
0.475095
0.475095
0.475094
0.475094
0.475094
0.475094
0.475093
0.475093
0.475093
0.475092
0.475092
0.475091
0.47509
0.475089
0.475088
0.475087
0.475085
0.475083
0.47508
0.475073
0.475053
0.474983
0.474713
0.503489
0.503766
0.503839
0.50386
0.503866
0.50387
0.503872
0.503873
0.503875
0.503876
0.503876
0.503877
0.503878
0.503878
0.503879
0.503879
0.503879
0.50388
0.50388
0.50388
0.50388
0.50388
0.503881
0.503881
0.503881
0.503881
0.503881
0.503881
0.503881
0.503881
0.503881
0.503881
0.503881
0.503881
0.503881
0.503881
0.503881
0.503881
0.50388
0.50388
0.50388
0.50388
0.50388
0.503879
0.503879
0.503879
0.503878
0.503878
0.503877
0.503876
0.503876
0.503875
0.503873
0.503872
0.50387
0.503866
0.50386
0.503839
0.503766
0.503489
0.531178
0.53146
0.531536
0.531558
0.531565
0.531568
0.53157
0.531571
0.531572
0.531573
0.531574
0.531575
0.531575
0.531576
0.531576
0.531576
0.531577
0.531577
0.531577
0.531577
0.531577
0.531578
0.531578
0.531578
0.531578
0.531578
0.531578
0.531578
0.531578
0.531578
0.531578
0.531578
0.531578
0.531578
0.531578
0.531578
0.531578
0.531578
0.531578
0.531577
0.531577
0.531577
0.531577
0.531577
0.531576
0.531576
0.531576
0.531575
0.531575
0.531574
0.531573
0.531572
0.531571
0.53157
0.531568
0.531565
0.531558
0.531536
0.53146
0.531178
0.557777
0.558064
0.558143
0.558165
0.558172
0.558175
0.558177
0.558179
0.55818
0.558181
0.558181
0.558182
0.558182
0.558183
0.558183
0.558183
0.558184
0.558184
0.558184
0.558184
0.558185
0.558185
0.558185
0.558185
0.558185
0.558185
0.558185
0.558185
0.558185
0.558185
0.558185
0.558185
0.558185
0.558185
0.558185
0.558185
0.558185
0.558185
0.558185
0.558185
0.558184
0.558184
0.558184
0.558184
0.558183
0.558183
0.558183
0.558182
0.558182
0.558181
0.558181
0.55818
0.558179
0.558177
0.558175
0.558172
0.558165
0.558143
0.558064
0.557777
0.583294
0.583584
0.583666
0.583689
0.583697
0.5837
0.583701
0.583703
0.583704
0.583704
0.583705
0.583706
0.583706
0.583706
0.583707
0.583707
0.583707
0.583708
0.583708
0.583708
0.583708
0.583708
0.583708
0.583708
0.583708
0.583708
0.583709
0.583709
0.583709
0.583709
0.583709
0.583709
0.583709
0.583709
0.583708
0.583708
0.583708
0.583708
0.583708
0.583708
0.583708
0.583708
0.583708
0.583707
0.583707
0.583707
0.583706
0.583706
0.583706
0.583705
0.583704
0.583704
0.583703
0.583701
0.5837
0.583697
0.583689
0.583666
0.583584
0.583294
0.607741
0.608034
0.608118
0.608142
0.608149
0.608152
0.608154
0.608155
0.608156
0.608157
0.608158
0.608158
0.608158
0.608159
0.608159
0.608159
0.60816
0.60816
0.60816
0.60816
0.60816
0.60816
0.60816
0.608161
0.608161
0.608161
0.608161
0.608161
0.608161
0.608161
0.608161
0.608161
0.608161
0.608161
0.608161
0.608161
0.608161
0.60816
0.60816
0.60816
0.60816
0.60816
0.60816
0.60816
0.608159
0.608159
0.608159
0.608158
0.608158
0.608158
0.608157
0.608156
0.608155
0.608154
0.608152
0.608149
0.608142
0.608118
0.608034
0.607741
0.631134
0.631428
0.631514
0.631539
0.631547
0.63155
0.631551
0.631552
0.631553
0.631554
0.631554
0.631555
0.631555
0.631556
0.631556
0.631556
0.631556
0.631557
0.631557
0.631557
0.631557
0.631557
0.631557
0.631557
0.631557
0.631557
0.631557
0.631557
0.631557
0.631557
0.631557
0.631557
0.631557
0.631557
0.631557
0.631557
0.631557
0.631557
0.631557
0.631557
0.631557
0.631557
0.631557
0.631556
0.631556
0.631556
0.631556
0.631555
0.631555
0.631554
0.631554
0.631553
0.631552
0.631551
0.63155
0.631547
0.631539
0.631514
0.631428
0.631134
0.65349
0.653785
0.653874
0.653899
0.653907
0.65391
0.653912
0.653913
0.653913
0.653914
0.653915
0.653915
0.653915
0.653916
0.653916
0.653916
0.653916
0.653916
0.653917
0.653917
0.653917
0.653917
0.653917
0.653917
0.653917
0.653917
0.653917
0.653917
0.653917
0.653917
0.653917
0.653917
0.653917
0.653917
0.653917
0.653917
0.653917
0.653917
0.653917
0.653917
0.653917
0.653917
0.653916
0.653916
0.653916
0.653916
0.653916
0.653915
0.653915
0.653915
0.653914
0.653913
0.653913
0.653912
0.65391
0.653907
0.653899
0.653874
0.653785
0.65349
0.674831
0.675126
0.675217
0.675243
0.675251
0.675254
0.675256
0.675257
0.675257
0.675258
0.675258
0.675259
0.675259
0.675259
0.67526
0.67526
0.67526
0.67526
0.67526
0.67526
0.67526
0.67526
0.675261
0.675261
0.675261
0.675261
0.675261
0.675261
0.675261
0.675261
0.675261
0.675261
0.675261
0.675261
0.675261
0.675261
0.675261
0.675261
0.67526
0.67526
0.67526
0.67526
0.67526
0.67526
0.67526
0.67526
0.675259
0.675259
0.675259
0.675258
0.675258
0.675257
0.675257
0.675256
0.675254
0.675251
0.675243
0.675217
0.675126
0.674831
0.695179
0.695473
0.695566
0.695593
0.695601
0.695604
0.695606
0.695607
0.695607
0.695608
0.695608
0.695608
0.695609
0.695609
0.695609
0.695609
0.695609
0.69561
0.69561
0.69561
0.69561
0.69561
0.69561
0.69561
0.69561
0.69561
0.69561
0.69561
0.69561
0.69561
0.69561
0.69561
0.69561
0.69561
0.69561
0.69561
0.69561
0.69561
0.69561
0.69561
0.69561
0.69561
0.69561
0.695609
0.695609
0.695609
0.695609
0.695609
0.695608
0.695608
0.695608
0.695607
0.695607
0.695606
0.695604
0.695601
0.695593
0.695566
0.695473
0.695179
0.714558
0.71485
0.714944
0.714972
0.714981
0.714984
0.714985
0.714986
0.714986
0.714987
0.714987
0.714988
0.714988
0.714988
0.714988
0.714988
0.714988
0.714989
0.714989
0.714989
0.714989
0.714989
0.714989
0.714989
0.714989
0.714989
0.714989
0.714989
0.714989
0.714989
0.714989
0.714989
0.714989
0.714989
0.714989
0.714989
0.714989
0.714989
0.714989
0.714989
0.714989
0.714989
0.714989
0.714988
0.714988
0.714988
0.714988
0.714988
0.714988
0.714987
0.714987
0.714986
0.714986
0.714985
0.714984
0.714981
0.714972
0.714944
0.71485
0.714558
0.732991
0.73328
0.733376
0.733405
0.733414
0.733417
0.733418
0.733419
0.733419
0.73342
0.73342
0.733421
0.733421
0.733421
0.733421
0.733421
0.733421
0.733422
0.733422
0.733422
0.733422
0.733422
0.733422
0.733422
0.733422
0.733422
0.733422
0.733422
0.733422
0.733422
0.733422
0.733422
0.733422
0.733422
0.733422
0.733422
0.733422
0.733422
0.733422
0.733422
0.733422
0.733422
0.733422
0.733421
0.733421
0.733421
0.733421
0.733421
0.733421
0.73342
0.73342
0.733419
0.733419
0.733418
0.733417
0.733414
0.733405
0.733376
0.73328
0.732991
0.750504
0.750791
0.750887
0.750917
0.750926
0.750929
0.750931
0.750931
0.750932
0.750932
0.750933
0.750933
0.750933
0.750933
0.750933
0.750934
0.750934
0.750934
0.750934
0.750934
0.750934
0.750934
0.750934
0.750934
0.750934
0.750934
0.750934
0.750934
0.750934
0.750934
0.750934
0.750934
0.750934
0.750934
0.750934
0.750934
0.750934
0.750934
0.750934
0.750934
0.750934
0.750934
0.750934
0.750934
0.750934
0.750933
0.750933
0.750933
0.750933
0.750933
0.750932
0.750932
0.750931
0.750931
0.750929
0.750926
0.750917
0.750887
0.750791
0.750504
0.767124
0.767406
0.767504
0.767535
0.767544
0.767547
0.767548
0.767549
0.76755
0.76755
0.76755
0.767551
0.767551
0.767551
0.767551
0.767551
0.767551
0.767551
0.767551
0.767551
0.767552
0.767552
0.767552
0.767552
0.767552
0.767552
0.767552
0.767552
0.767552
0.767552
0.767552
0.767552
0.767552
0.767552
0.767552
0.767552
0.767552
0.767552
0.767552
0.767552
0.767551
0.767551
0.767551
0.767551
0.767551
0.767551
0.767551
0.767551
0.767551
0.76755
0.76755
0.76755
0.767549
0.767548
0.767547
0.767544
0.767535
0.767504
0.767406
0.767124
0.782876
0.783154
0.783253
0.783284
0.783294
0.783297
0.783298
0.783299
0.7833
0.7833
0.7833
0.7833
0.7833
0.783301
0.783301
0.783301
0.783301
0.783301
0.783301
0.783301
0.783301
0.783301
0.783301
0.783301
0.783301
0.783301
0.783301
0.783301
0.783301
0.783301
0.783301
0.783301
0.783301
0.783301
0.783301
0.783301
0.783301
0.783301
0.783301
0.783301
0.783301
0.783301
0.783301
0.783301
0.783301
0.783301
0.783301
0.7833
0.7833
0.7833
0.7833
0.7833
0.783299
0.783298
0.783297
0.783294
0.783284
0.783253
0.783154
0.782876
0.797789
0.798062
0.798161
0.798193
0.798203
0.798206
0.798208
0.798208
0.798209
0.798209
0.798209
0.798209
0.79821
0.79821
0.79821
0.79821
0.79821
0.79821
0.79821
0.79821
0.79821
0.79821
0.79821
0.79821
0.79821
0.79821
0.79821
0.79821
0.79821
0.79821
0.79821
0.79821
0.79821
0.79821
0.79821
0.79821
0.79821
0.79821
0.79821
0.79821
0.79821
0.79821
0.79821
0.79821
0.79821
0.79821
0.79821
0.79821
0.798209
0.798209
0.798209
0.798209
0.798208
0.798208
0.798206
0.798203
0.798193
0.798161
0.798062
0.797789
0.811889
0.812157
0.812256
0.812288
0.812299
0.812302
0.812304
0.812304
0.812305
0.812305
0.812305
0.812305
0.812305
0.812306
0.812306
0.812306
0.812306
0.812306
0.812306
0.812306
0.812306
0.812306
0.812306
0.812306
0.812306
0.812306
0.812306
0.812306
0.812306
0.812306
0.812306
0.812306
0.812306
0.812306
0.812306
0.812306
0.812306
0.812306
0.812306
0.812306
0.812306
0.812306
0.812306
0.812306
0.812306
0.812306
0.812306
0.812305
0.812305
0.812305
0.812305
0.812305
0.812304
0.812304
0.812302
0.812299
0.812288
0.812256
0.812157
0.811889
0.825204
0.825466
0.825565
0.825599
0.825609
0.825613
0.825614
0.825615
0.825615
0.825616
0.825616
0.825616
0.825616
0.825616
0.825616
0.825616
0.825616
0.825616
0.825617
0.825617
0.825617
0.825617
0.825617
0.825617
0.825617
0.825617
0.825617
0.825617
0.825617
0.825617
0.825617
0.825617
0.825617
0.825617
0.825617
0.825617
0.825617
0.825617
0.825617
0.825617
0.825617
0.825617
0.825616
0.825616
0.825616
0.825616
0.825616
0.825616
0.825616
0.825616
0.825616
0.825615
0.825615
0.825614
0.825613
0.825609
0.825599
0.825565
0.825466
0.825204
0.837763
0.838019
0.838118
0.838152
0.838163
0.838166
0.838168
0.838168
0.838169
0.838169
0.838169
0.838169
0.838169
0.83817
0.83817
0.83817
0.83817
0.83817
0.83817
0.83817
0.83817
0.83817
0.83817
0.83817
0.83817
0.83817
0.83817
0.83817
0.83817
0.83817
0.83817
0.83817
0.83817
0.83817
0.83817
0.83817
0.83817
0.83817
0.83817
0.83817
0.83817
0.83817
0.83817
0.83817
0.83817
0.83817
0.83817
0.838169
0.838169
0.838169
0.838169
0.838169
0.838168
0.838168
0.838166
0.838163
0.838152
0.838118
0.838019
0.837763
0.849594
0.849843
0.849941
0.849976
0.849987
0.849991
0.849992
0.849993
0.849993
0.849993
0.849994
0.849994
0.849994
0.849994
0.849994
0.849994
0.849994
0.849994
0.849994
0.849994
0.849994
0.849994
0.849994
0.849994
0.849994
0.849994
0.849994
0.849994
0.849994
0.849994
0.849994
0.849994
0.849994
0.849994
0.849994
0.849994
0.849994
0.849994
0.849994
0.849994
0.849994
0.849994
0.849994
0.849994
0.849994
0.849994
0.849994
0.849994
0.849994
0.849994
0.849993
0.849993
0.849993
0.849992
0.849991
0.849987
0.849976
0.849941
0.849843
0.849594
0.860724
0.860966
0.861064
0.861099
0.861111
0.861114
0.861116
0.861116
0.861117
0.861117
0.861117
0.861117
0.861117
0.861117
0.861117
0.861118
0.861118
0.861118
0.861118
0.861118
0.861118
0.861118
0.861118
0.861118
0.861118
0.861118
0.861118
0.861118
0.861118
0.861118
0.861118
0.861118
0.861118
0.861118
0.861118
0.861118
0.861118
0.861118
0.861118
0.861118
0.861118
0.861118
0.861118
0.861118
0.861118
0.861117
0.861117
0.861117
0.861117
0.861117
0.861117
0.861117
0.861116
0.861116
0.861114
0.861111
0.861099
0.861064
0.860966
0.860724
0.871182
0.871417
0.871514
0.871549
0.871561
0.871565
0.871567
0.871567
0.871568
0.871568
0.871568
0.871568
0.871568
0.871568
0.871568
0.871568
0.871568
0.871568
0.871569
0.871569
0.871569
0.871569
0.871569
0.871569
0.871569
0.871569
0.871569
0.871569
0.871569
0.871569
0.871569
0.871569
0.871569
0.871569
0.871569
0.871569
0.871569
0.871569
0.871569
0.871569
0.871569
0.871569
0.871568
0.871568
0.871568
0.871568
0.871568
0.871568
0.871568
0.871568
0.871568
0.871568
0.871567
0.871567
0.871565
0.871561
0.871549
0.871514
0.871417
0.871182
0.880996
0.881224
0.881319
0.881355
0.881367
0.881372
0.881373
0.881374
0.881374
0.881374
0.881374
0.881374
0.881374
0.881375
0.881375
0.881375
0.881375
0.881375
0.881375
0.881375
0.881375
0.881375
0.881375
0.881375
0.881375
0.881375
0.881375
0.881375
0.881375
0.881375
0.881375
0.881375
0.881375
0.881375
0.881375
0.881375
0.881375
0.881375
0.881375
0.881375
0.881375
0.881375
0.881375
0.881375
0.881375
0.881375
0.881375
0.881374
0.881374
0.881374
0.881374
0.881374
0.881374
0.881373
0.881372
0.881367
0.881355
0.881319
0.881224
0.880996
0.890194
0.890414
0.890508
0.890544
0.890557
0.890561
0.890563
0.890563
0.890563
0.890564
0.890564
0.890564
0.890564
0.890564
0.890564
0.890564
0.890564
0.890564
0.890564
0.890564
0.890564
0.890564
0.890564
0.890564
0.890564
0.890564
0.890564
0.890564
0.890564
0.890564
0.890564
0.890564
0.890564
0.890564
0.890564
0.890564
0.890564
0.890564
0.890564
0.890564
0.890564
0.890564
0.890564
0.890564
0.890564
0.890564
0.890564
0.890564
0.890564
0.890564
0.890564
0.890563
0.890563
0.890563
0.890561
0.890557
0.890544
0.890508
0.890414
0.890194
0.898803
0.899015
0.899107
0.899144
0.899157
0.899161
0.899163
0.899163
0.899164
0.899164
0.899164
0.899164
0.899164
0.899164
0.899164
0.899164
0.899164
0.899164
0.899164
0.899164
0.899164
0.899164
0.899164
0.899164
0.899164
0.899164
0.899164
0.899164
0.899164
0.899164
0.899164
0.899164
0.899164
0.899164
0.899164
0.899164
0.899164
0.899164
0.899164
0.899164
0.899164
0.899164
0.899164
0.899164
0.899164
0.899164
0.899164
0.899164
0.899164
0.899164
0.899164
0.899164
0.899163
0.899163
0.899161
0.899157
0.899144
0.899107
0.899015
0.898803
0.90685
0.907054
0.907145
0.907181
0.907194
0.907199
0.907201
0.907201
0.907202
0.907202
0.907202
0.907202
0.907202
0.907202
0.907202
0.907202
0.907202
0.907202
0.907202
0.907202
0.907202
0.907202
0.907202
0.907202
0.907202
0.907202
0.907202
0.907202
0.907202
0.907202
0.907202
0.907202
0.907202
0.907202
0.907202
0.907202
0.907202
0.907202
0.907202
0.907202
0.907202
0.907202
0.907202
0.907202
0.907202
0.907202
0.907202
0.907202
0.907202
0.907202
0.907202
0.907202
0.907201
0.907201
0.907199
0.907194
0.907181
0.907145
0.907054
0.90685
0.914362
0.914558
0.914647
0.914683
0.914697
0.914702
0.914704
0.914704
0.914705
0.914705
0.914705
0.914705
0.914705
0.914705
0.914705
0.914705
0.914705
0.914705
0.914705
0.914705
0.914705
0.914705
0.914705
0.914705
0.914705
0.914705
0.914705
0.914705
0.914705
0.914705
0.914705
0.914705
0.914705
0.914705
0.914705
0.914705
0.914705
0.914705
0.914705
0.914705
0.914705
0.914705
0.914705
0.914705
0.914705
0.914705
0.914705
0.914705
0.914705
0.914705
0.914705
0.914705
0.914704
0.914704
0.914702
0.914697
0.914683
0.914647
0.914558
0.914362
0.921366
0.921553
0.921641
0.921677
0.92169
0.921696
0.921697
0.921698
0.921698
0.921698
0.921699
0.921699
0.921699
0.921699
0.921699
0.921699
0.921699
0.921699
0.921699
0.921699
0.921699
0.921699
0.921699
0.921699
0.921699
0.921699
0.921699
0.921699
0.921699
0.921699
0.921699
0.921699
0.921699
0.921699
0.921699
0.921699
0.921699
0.921699
0.921699
0.921699
0.921699
0.921699
0.921699
0.921699
0.921699
0.921699
0.921699
0.921699
0.921699
0.921699
0.921698
0.921698
0.921698
0.921697
0.921696
0.92169
0.921677
0.921641
0.921553
0.921366
0.927886
0.928066
0.928151
0.928187
0.928201
0.928206
0.928208
0.928209
0.928209
0.928209
0.928209
0.928209
0.928209
0.928209
0.928209
0.928209
0.928209
0.928209
0.928209
0.928209
0.928209
0.928209
0.928209
0.928209
0.92821
0.92821
0.92821
0.92821
0.92821
0.92821
0.92821
0.92821
0.92821
0.92821
0.92821
0.92821
0.928209
0.928209
0.928209
0.928209
0.928209
0.928209
0.928209
0.928209
0.928209
0.928209
0.928209
0.928209
0.928209
0.928209
0.928209
0.928209
0.928209
0.928208
0.928206
0.928201
0.928187
0.928151
0.928066
0.927886
0.933949
0.93412
0.934203
0.934239
0.934253
0.934259
0.934261
0.934261
0.934262
0.934262
0.934262
0.934262
0.934262
0.934262
0.934262
0.934262
0.934262
0.934262
0.934262
0.934262
0.934262
0.934262
0.934262
0.934262
0.934262
0.934262
0.934262
0.934262
0.934262
0.934262
0.934262
0.934262
0.934262
0.934262
0.934262
0.934262
0.934262
0.934262
0.934262
0.934262
0.934262
0.934262
0.934262
0.934262
0.934262
0.934262
0.934262
0.934262
0.934262
0.934262
0.934262
0.934262
0.934261
0.934261
0.934259
0.934253
0.934239
0.934203
0.93412
0.933949
0.939579
0.939742
0.939822
0.939858
0.939872
0.939878
0.93988
0.93988
0.939881
0.939881
0.939881
0.939881
0.939881
0.939881
0.939881
0.939881
0.939881
0.939881
0.939881
0.939881
0.939881
0.939881
0.939881
0.939881
0.939881
0.939881
0.939881
0.939881
0.939881
0.939881
0.939881
0.939881
0.939881
0.939881
0.939881
0.939881
0.939881
0.939881
0.939881
0.939881
0.939881
0.939881
0.939881
0.939881
0.939881
0.939881
0.939881
0.939881
0.939881
0.939881
0.939881
0.939881
0.93988
0.93988
0.939878
0.939872
0.939858
0.939822
0.939742
0.939579
0.944799
0.944954
0.945032
0.945067
0.945082
0.945087
0.945089
0.94509
0.945091
0.945091
0.945091
0.945091
0.945091
0.945091
0.945091
0.945091
0.945091
0.945091
0.945091
0.945091
0.945091
0.945091
0.945091
0.945091
0.945091
0.945091
0.945091
0.945091
0.945091
0.945091
0.945091
0.945091
0.945091
0.945091
0.945091
0.945091
0.945091
0.945091
0.945091
0.945091
0.945091
0.945091
0.945091
0.945091
0.945091
0.945091
0.945091
0.945091
0.945091
0.945091
0.945091
0.945091
0.94509
0.945089
0.945087
0.945082
0.945067
0.945032
0.944954
0.944799
0.949633
0.94978
0.949856
0.94989
0.949905
0.94991
0.949913
0.949914
0.949914
0.949914
0.949914
0.949914
0.949914
0.949914
0.949914
0.949914
0.949914
0.949914
0.949914
0.949914
0.949914
0.949914
0.949914
0.949914
0.949914
0.949914
0.949914
0.949914
0.949914
0.949914
0.949914
0.949914
0.949914
0.949914
0.949914
0.949914
0.949914
0.949914
0.949914
0.949914
0.949914
0.949914
0.949914
0.949914
0.949914
0.949914
0.949914
0.949914
0.949914
0.949914
0.949914
0.949914
0.949914
0.949913
0.94991
0.949905
0.94989
0.949856
0.94978
0.949633
0.954103
0.954243
0.954316
0.954349
0.954364
0.95437
0.954372
0.954373
0.954373
0.954374
0.954374
0.954374
0.954374
0.954374
0.954374
0.954374
0.954374
0.954374
0.954374
0.954374
0.954374
0.954374
0.954374
0.954374
0.954374
0.954374
0.954374
0.954374
0.954374
0.954374
0.954374
0.954374
0.954374
0.954374
0.954374
0.954374
0.954374
0.954374
0.954374
0.954374
0.954374
0.954374
0.954374
0.954374
0.954374
0.954374
0.954374
0.954374
0.954374
0.954374
0.954374
0.954373
0.954373
0.954372
0.95437
0.954364
0.954349
0.954316
0.954243
0.954103
0.958231
0.958363
0.958433
0.958467
0.958481
0.958487
0.95849
0.958491
0.958491
0.958491
0.958491
0.958491
0.958491
0.958491
0.958491
0.958491
0.958491
0.958491
0.958491
0.958491
0.958491
0.958491
0.958491
0.958491
0.958491
0.958491
0.958491
0.958491
0.958491
0.958491
0.958491
0.958491
0.958491
0.958491
0.958491
0.958491
0.958491
0.958491
0.958491
0.958491
0.958491
0.958491
0.958491
0.958491
0.958491
0.958491
0.958491
0.958491
0.958491
0.958491
0.958491
0.958491
0.958491
0.95849
0.958487
0.958481
0.958467
0.958433
0.958363
0.958231
0.962038
0.962163
0.96223
0.962263
0.962277
0.962283
0.962286
0.962287
0.962287
0.962287
0.962287
0.962287
0.962287
0.962287
0.962287
0.962287
0.962287
0.962287
0.962287
0.962287
0.962287
0.962287
0.962287
0.962287
0.962287
0.962287
0.962287
0.962287
0.962287
0.962287
0.962287
0.962287
0.962287
0.962287
0.962287
0.962287
0.962287
0.962287
0.962287
0.962287
0.962287
0.962287
0.962287
0.962287
0.962287
0.962287
0.962287
0.962287
0.962287
0.962287
0.962287
0.962287
0.962287
0.962286
0.962283
0.962277
0.962263
0.96223
0.962163
0.962038
0.965544
0.965661
0.965726
0.965758
0.965772
0.965778
0.965781
0.965782
0.965782
0.965782
0.965783
0.965783
0.965783
0.965783
0.965783
0.965783
0.965783
0.965783