/*--------------------------------*- C++ -*----------------------------------*\
| =========                 |                                                 |
| \\      /  F ield         | foam-extend: Open Source CFD                    |
|  \\    /   O peration     | Version:     4.0                                |
|   \\  /    A nd           | Web:         http://www.foam-extend.org         |
|    \\/     M anipulation  |                                                 |
\*---------------------------------------------------------------------------*/
FoamFile
{
    version     2.0;
    format      ascii;
    class       volVectorField;
    location    "21";
    object      U;
}
// * * * * * * * * * * * * * * * * * * * * * * * * * * * * * * * * * * * * * //

dimensions      [0 1 -1 0 0 0 0];

internalField   nonuniform List<vector> 
6960
(
(-4.09334e-27 -1.09143e-25 0)
(-3.27269e-27 -4.41424e-27 0)
(2.48071e-28 -4.14843e-27 0)
(-2.61727e-28 -3.66423e-27 0)
(1.60807e-28 -3.55658e-27 0)
(4.3546e-30 -3.71318e-27 0)
(7.92057e-29 -3.86137e-27 0)
(-3.02175e-29 -4.1085e-27 0)
(-4.4437e-30 -4.59698e-27 0)
(-2.96843e-29 -5.08617e-27 0)
(4.32766e-30 -5.17301e-27 0)
(-7.22615e-30 -4.78344e-27 0)
(-8.58669e-30 -4.2929e-27 0)
(-3.16752e-29 -4.08799e-27 0)
(-1.8838e-29 -4.20794e-27 0)
(1.94143e-29 -4.44757e-27 0)
(6.19425e-29 -4.57915e-27 0)
(6.22327e-29 -4.35506e-27 0)
(2.56756e-29 -3.67361e-27 0)
(-1.04882e-29 -2.95726e-27 0)
(-3.75246e-30 -2.95486e-27 0)
(3.02056e-29 -3.99118e-27 0)
(5.07246e-29 -5.60845e-27 0)
(3.86751e-29 -6.91444e-27 0)
(1.23147e-29 -7.21154e-27 0)
(2.76548e-30 -6.52587e-27 0)
(1.96797e-29 -5.53395e-27 0)
(4.03373e-29 -4.84641e-27 0)
(4.28994e-29 -4.55765e-27 0)
(2.31852e-29 -4.40219e-27 0)
(-1.21666e-29 -4.21602e-27 0)
(-4.43795e-29 -4.24946e-27 0)
(-6.04432e-29 -4.79314e-27 0)
(-6.47283e-29 -5.61361e-27 0)
(-5.98692e-29 -6.17292e-27 0)
(-4.95872e-29 -6.23956e-27 0)
(-4.34296e-29 -5.83782e-27 0)
(-4.38834e-29 -4.98092e-27 0)
(-4.30082e-29 -3.86022e-27 0)
(-3.16554e-29 -2.99413e-27 0)
(-1.49706e-29 -2.89566e-27 0)
(-8.25225e-30 -3.51547e-27 0)
(-1.33556e-29 -4.21875e-27 0)
(-2.5197e-29 -4.45986e-27 0)
(-4.40424e-29 -4.26899e-27 0)
(-5.42228e-29 -4.01255e-27 0)
(-4.05075e-29 -3.95778e-27 0)
(-1.98575e-29 -4.18059e-27 0)
(-1.54084e-29 -4.61831e-27 0)
(-2.55703e-29 -4.96171e-27 0)
(-3.46106e-29 -4.83694e-27 0)
(-2.67473e-29 -4.36234e-27 0)
(-1.02272e-29 -4.03856e-27 0)
(-6.33675e-30 -4.09363e-27 0)
(-1.7887e-29 -4.34741e-27 0)
(-3.16065e-29 -4.62593e-27 0)
(-3.31581e-29 -4.83752e-27 0)
(-1.75126e-29 -4.81327e-27 0)
(-2.3487e-30 -4.28302e-27 0)
(-6.77869e-30 -3.63832e-27 0)
(-8.92879e-27 -2.26121e-25 0)
(-6.58618e-27 -7.79927e-27 0)
(7.18863e-28 -6.86767e-27 0)
(-7.21062e-28 -5.86045e-27 0)
(4.43082e-28 -5.70132e-27 0)
(-1.97509e-29 -6.01548e-27 0)
(2.18732e-28 -6.35385e-27 0)
(-8.56712e-29 -6.91151e-27 0)
(-1.49298e-29 -7.80963e-27 0)
(-9.83554e-29 -8.53935e-27 0)
(4.11866e-30 -8.52059e-27 0)
(-1.35552e-29 -7.82027e-27 0)
(-4.62303e-30 -7.13554e-27 0)
(-7.09519e-29 -7.01203e-27 0)
(-4.3624e-29 -7.36182e-27 0)
(5.59282e-29 -7.73469e-27 0)
(1.81072e-28 -7.74854e-27 0)
(2.04623e-28 -7.11355e-27 0)
(1.2721e-28 -5.84581e-27 0)
(2.08391e-29 -4.78937e-27 0)
(-1.01458e-29 -5.22306e-27 0)
(2.10412e-29 -7.60684e-27 0)
(5.12152e-29 -1.09851e-26 0)
(4.4485e-29 -1.36007e-26 0)
(2.56236e-29 -1.41183e-26 0)
(4.28593e-29 -1.26815e-26 0)
(1.03727e-28 -1.065e-26 0)
(1.49615e-28 -9.09202e-27 0)
(1.37854e-28 -8.10862e-27 0)
(7.1476e-29 -7.40964e-27 0)
(-3.81966e-29 -6.98524e-27 0)
(-1.53841e-28 -7.28138e-27 0)
(-2.26579e-28 -8.61011e-27 0)
(-2.38781e-28 -1.0471e-26 0)
(-1.93695e-28 -1.18895e-26 0)
(-1.22598e-28 -1.22622e-26 0)
(-7.08013e-29 -1.14043e-26 0)
(-5.63247e-29 -9.4129e-27 0)
(-6.34159e-29 -6.94176e-27 0)
(-7.01318e-29 -5.09439e-27 0)
(-7.75931e-29 -4.7313e-27 0)
(-8.87332e-29 -5.71494e-27 0)
(-8.36915e-29 -6.96062e-27 0)
(-7.39886e-29 -7.46953e-27 0)
(-1.03921e-28 -7.16459e-27 0)
(-1.39766e-28 -6.63895e-27 0)
(-1.17677e-28 -6.40952e-27 0)
(-7.06529e-29 -6.62645e-27 0)
(-6.19234e-29 -7.20886e-27 0)
(-8.09058e-29 -7.74014e-27 0)
(-8.92677e-29 -7.60828e-27 0)
(-6.71177e-29 -6.85376e-27 0)
(-4.41084e-29 -6.23314e-27 0)
(-5.31264e-29 -6.30386e-27 0)
(-8.10925e-29 -6.94879e-27 0)
(-9.70961e-29 -7.77126e-27 0)
(-7.53355e-29 -8.38782e-27 0)
(-7.02284e-30 -8.51886e-27 0)
(4.31456e-29 -7.79435e-27 0)
(9.8895e-30 -6.78626e-27 0)
(-1.34215e-26 -2.18052e-25 0)
(-9.65068e-27 -2.34981e-27 0)
(1.14922e-27 -9.29324e-28 0)
(-1.15327e-27 -2.57837e-28 0)
(6.90682e-28 -2.47369e-28 0)
(-6.95987e-29 -5.29905e-28 0)
(3.41508e-28 -1.06362e-27 0)
(-1.2765e-28 -1.73515e-27 0)
(3.59832e-30 -2.17487e-27 0)
(-1.44831e-28 -2.07704e-27 0)
(-2.50473e-30 -1.62802e-27 0)
(-4.43689e-29 -1.33175e-27 0)
(-1.97749e-29 -1.50749e-27 0)
(-1.07968e-28 -1.98223e-27 0)
(-5.52585e-29 -2.34685e-27 0)
(9.85162e-29 -2.34671e-27 0)
(2.91308e-28 -2.03098e-27 0)
(3.27785e-28 -1.64756e-27 0)
(2.11947e-28 -1.52407e-27 0)
(4.79824e-29 -2.01844e-27 0)
(-1.53437e-29 -3.35247e-27 0)
(5.42057e-30 -5.35649e-27 0)
(3.87193e-29 -7.41891e-27 0)
(4.08837e-29 -8.73856e-27 0)
(3.60235e-29 -8.81232e-27 0)
(8.33809e-29 -7.85441e-27 0)
(1.92708e-28 -6.52183e-27 0)
(2.7189e-28 -5.13438e-27 0)
(2.47766e-28 -3.70403e-27 0)
(1.23938e-28 -2.55585e-27 0)
(-7.26725e-29 -2.20936e-27 0)
(-2.7466e-28 -2.79387e-27 0)
(-4.01676e-28 -4.0016e-27 0)
(-4.22692e-28 -5.42346e-27 0)
(-3.37628e-28 -6.68296e-27 0)
(-1.93771e-28 -7.32268e-27 0)
(-7.74455e-29 -6.8679e-27 0)
(-4.13587e-29 -5.34661e-27 0)
(-6.35785e-29 -3.48112e-27 0)
(-9.62807e-29 -2.03174e-27 0)
(-1.32834e-28 -1.22731e-27 0)
(-1.67283e-28 -9.49862e-28 0)
(-1.56213e-28 -1.0622e-27 0)
(-1.20674e-28 -1.32413e-27 0)
(-1.4938e-28 -1.33849e-27 0)
(-2.02041e-28 -9.12866e-28 0)
(-1.70294e-28 -2.78192e-28 0)
(-9.73903e-29 2.40131e-28 0)
(-8.89284e-29 4.90445e-28 0)
(-1.28446e-28 4.95183e-28 0)
(-1.4624e-28 4.90664e-28 0)
(-1.14329e-28 7.18008e-28 0)
(-9.27254e-29 1.04925e-27 0)
(-1.25963e-28 1.02135e-27 0)
(-1.70179e-28 3.77982e-28 0)
(-1.70585e-28 -5.72419e-28 0)
(-1.10641e-28 -1.35524e-27 0)
(1.22104e-30 -2.00305e-27 0)
(7.20713e-29 -2.59312e-27 0)
(2.1517e-29 -2.85544e-27 0)
(-1.80168e-26 -2.00859e-25 0)
(-1.29251e-26 3.52128e-27 0)
(1.50452e-27 4.57184e-27 0)
(-1.57993e-27 4.74982e-27 0)
(9.08082e-28 4.76124e-27 0)
(-1.41311e-28 4.58966e-27 0)
(4.45517e-28 3.87503e-27 0)
(-1.52231e-28 3.20355e-27 0)
(6.27751e-29 3.24306e-27 0)
(-1.59949e-28 3.91536e-27 0)
(-1.74884e-29 4.49383e-27 0)
(-1.10105e-28 4.40895e-27 0)
(-6.25026e-29 3.76978e-27 0)
(-1.41996e-28 3.23661e-27 0)
(-4.79899e-29 3.2602e-27 0)
(1.45458e-28 3.6486e-27 0)
(3.71187e-28 3.81889e-27 0)
(3.86645e-28 3.21362e-27 0)
(2.24685e-28 1.64044e-27 0)
(3.83507e-29 -4.4508e-28 0)
(3.40893e-30 -2.12612e-27 0)
(6.2702e-29 -2.69267e-27 0)
(1.07953e-28 -2.21615e-27 0)
(8.33111e-29 -1.45719e-27 0)
(3.79423e-29 -1.12208e-27 0)
(8.23697e-29 -1.17993e-27 0)
(2.44004e-28 -1.03538e-27 0)
(3.76454e-28 -2.83e-28 0)
(3.49845e-28 8.41485e-28 0)
(1.66168e-28 1.68848e-27 0)
(-1.12995e-28 1.84147e-27 0)
(-3.79588e-28 1.4818e-27 0)
(-5.3649e-28 1.07432e-27 0)
(-5.6296e-28 8.55118e-28 0)
(-4.6128e-28 6.37913e-28 0)
(-2.76511e-28 2.00613e-28 0)
(-1.18604e-28 -2.76009e-28 0)
(-7.12265e-29 -4.50362e-28 0)
(-1.01098e-28 -2.36028e-28 0)
(-1.28364e-28 3.81132e-28 0)
(-1.52094e-28 1.6084e-27 0)
(-1.90248e-28 3.32259e-27 0)
(-1.92584e-28 4.65058e-27 0)
(-1.62465e-28 4.87892e-27 0)
(-1.94697e-28 4.5251e-27 0)
(-2.44824e-28 4.70936e-27 0)
(-1.88331e-28 5.68572e-27 0)
(-8.81169e-29 6.79685e-27 0)
(-8.70156e-29 7.55212e-27 0)
(-1.62666e-28 7.94027e-27 0)
(-2.09209e-28 8.03879e-27 0)
(-1.78924e-28 7.91892e-27 0)
(-1.58583e-28 7.70338e-27 0)
(-2.09015e-28 7.47966e-27 0)
(-2.59405e-28 7.21784e-27 0)
(-2.35713e-28 6.86262e-27 0)
(-1.45386e-28 6.28174e-27 0)
(-2.41644e-29 5.13555e-27 0)
(4.10812e-29 3.33029e-27 0)
(3.79303e-30 1.78732e-27 0)
(-2.24701e-26 -1.98446e-25 0)
(-1.61865e-26 3.62078e-27 0)
(1.76094e-27 3.71579e-27 0)
(-1.99842e-27 3.69171e-27 0)
(1.10455e-27 3.80036e-27 0)
(-2.27523e-28 3.83334e-27 0)
(5.32933e-28 3.22691e-27 0)
(-1.75099e-28 2.58504e-27 0)
(1.27339e-28 2.42962e-27 0)
(-1.73026e-28 2.73364e-27 0)
(-3.69123e-29 3.10398e-27 0)
(-1.75682e-28 3.26102e-27 0)
(-9.38402e-29 3.24321e-27 0)
(-1.53458e-28 3.44636e-27 0)
(-2.7141e-29 3.95316e-27 0)
(1.73861e-28 4.16107e-27 0)
(3.98175e-28 3.39542e-27 0)
(3.81709e-28 1.58738e-27 0)
(1.93691e-28 -7.42374e-28 0)
(2.52234e-29 -2.7589e-27 0)
(5.89865e-29 -3.65021e-27 0)
(1.80881e-28 -3.06895e-27 0)
(2.34831e-28 -1.52388e-27 0)
(1.53983e-28 -1.48886e-28 0)
(3.43616e-29 2.91951e-28 0)
(6.02929e-29 9.39893e-29 0)
(2.71499e-28 -1.07084e-29 0)
(4.49708e-28 1.37303e-28 0)
(4.14495e-28 2.12478e-28 0)
(1.86372e-28 1.62802e-28 0)
(-1.43244e-28 2.68849e-28 0)
(-4.49782e-28 6.13844e-28 0)
(-6.24336e-28 1.13035e-27 0)
(-6.5154e-28 1.92059e-27 0)
(-5.50448e-28 2.70787e-27 0)
(-3.69395e-28 2.61727e-27 0)
(-2.10636e-28 1.31814e-27 0)
(-1.56758e-28 -3.19795e-28 0)
(-1.68074e-28 -1.17811e-27 0)
(-1.59022e-28 -8.56979e-28 0)
(-1.48668e-28 4.98162e-28 0)
(-1.80916e-28 2.46215e-27 0)
(-2.03139e-28 4.16996e-27 0)
(-1.9497e-28 4.81291e-27 0)
(-2.35613e-28 4.68141e-27 0)
(-2.73095e-28 4.89592e-27 0)
(-1.89688e-28 5.80967e-27 0)
(-7.5284e-29 6.65687e-27 0)
(-8.78371e-29 6.99519e-27 0)
(-1.88096e-28 7.30911e-27 0)
(-2.56641e-28 7.87612e-27 0)
(-2.44646e-28 8.1235e-27 0)
(-2.43821e-28 7.60714e-27 0)
(-3.01842e-28 6.91689e-27 0)
(-3.34115e-28 6.84125e-27 0)
(-2.81206e-28 7.1394e-27 0)
(-1.78467e-28 6.87862e-27 0)
(-6.60821e-29 5.68457e-27 0)
(-1.36112e-29 4.01273e-27 0)
(-2.60325e-29 2.55263e-27 0)
(-2.66995e-26 -1.99966e-25 0)
(-1.93576e-26 1.34416e-27 0)
(1.91066e-27 1.00745e-27 0)
(-2.41478e-27 8.29421e-28 0)
(1.28265e-27 6.78947e-28 0)
(-3.14276e-28 8.8113e-28 0)
(6.12628e-28 6.07103e-28 0)
(-2.10412e-28 -1.60171e-29 0)
(1.68997e-28 -6.62948e-28 0)
(-1.98937e-28 -8.81286e-28 0)
(-4.85635e-29 -5.28278e-28 0)
(-2.12476e-28 2.38476e-28 0)
(-9.02358e-29 1.13093e-27 0)
(-1.38974e-28 2.07997e-27 0)
(-1.00612e-29 2.69763e-27 0)
(1.59719e-28 2.14673e-27 0)
(3.64322e-28 1.22302e-28 0)
(3.38577e-28 -2.52968e-27 0)
(1.71948e-28 -4.5339e-27 0)
(5.60026e-29 -5.15786e-27 0)
(1.56312e-28 -4.54738e-27 0)
(3.13428e-28 -3.38137e-27 0)
(3.54778e-28 -2.31716e-27 0)
(2.22756e-28 -1.56655e-27 0)
(4.92425e-29 -8.93129e-28 0)
(6.00394e-29 -1.97125e-28 0)
(2.91834e-28 6.12884e-29 0)
(4.78447e-28 -6.00097e-28 0)
(4.26223e-28 -1.89459e-27 0)
(1.83539e-28 -2.87323e-27 0)
(-1.55645e-28 -2.82412e-27 0)
(-4.80072e-28 -1.8613e-27 0)
(-6.68491e-28 -4.351e-28 0)
(-6.99348e-28 1.23984e-27 0)
(-6.15906e-28 2.61002e-27 0)
(-4.72279e-28 2.60668e-27 0)
(-3.37274e-28 9.85977e-28 0)
(-2.71261e-28 -1.06548e-27 0)
(-2.42866e-28 -2.22812e-27 0)
(-1.89664e-28 -2.21374e-27 0)
(-1.53091e-28 -1.40855e-27 0)
(-1.80407e-28 -1.61764e-28 0)
(-2.08014e-28 1.17043e-27 0)
(-2.07151e-28 2.16284e-27 0)
(-2.54775e-28 2.78675e-27 0)
(-2.92125e-28 3.37854e-27 0)
(-2.02351e-28 3.88154e-27 0)
(-8.91452e-29 3.86337e-27 0)
(-1.08787e-28 3.51776e-27 0)
(-2.05676e-28 3.74605e-27 0)
(-2.75992e-28 4.80011e-27 0)
(-2.94828e-28 5.64767e-27 0)
(-3.40029e-28 5.32557e-27 0)
(-4.09766e-28 4.36185e-27 0)
(-4.07384e-28 3.95994e-27 0)
(-3.16191e-28 4.24621e-27 0)
(-2.03494e-28 4.34896e-27 0)
(-9.3367e-29 3.86607e-27 0)
(-4.46708e-29 3.19505e-27 0)
(-4.40347e-29 2.60247e-27 0)
(-3.06979e-26 -2.00316e-25 0)
(-2.24146e-26 4.82157e-29 0)
(1.96346e-27 3.15282e-28 0)
(-2.8469e-27 2.32753e-30 0)
(1.43037e-27 -8.06259e-28 0)
(-4.02014e-28 -7.61372e-28 0)
(6.85118e-28 -9.2843e-28 0)
(-2.58897e-28 -1.52308e-27 0)
(1.93592e-28 -2.27459e-27 0)
(-2.24093e-28 -2.42885e-27 0)
(-4.173e-29 -1.75877e-27 0)
(-2.2078e-28 -5.53367e-28 0)
(-6.30219e-29 6.88023e-28 0)
(-1.17605e-28 1.68063e-27 0)
(-1.56153e-29 1.82675e-27 0)
(9.74469e-29 3.86364e-28 0)
(2.84621e-28 -2.38648e-27 0)
(2.86407e-28 -4.99553e-27 0)
(1.88664e-28 -5.96681e-27 0)
(1.46793e-28 -5.03876e-27 0)
(2.89648e-28 -3.29519e-27 0)
(4.34871e-28 -2.14319e-27 0)
(4.42274e-28 -1.99326e-27 0)
(2.87259e-28 -1.91537e-27 0)
(1.01413e-28 -8.47889e-28 0)
(9.5468e-29 7.76761e-28 0)
(3.01101e-28 1.31147e-27 0)
(4.56902e-28 -2.3276e-29 0)
(3.89055e-28 -2.24315e-27 0)
(1.5877e-28 -3.84175e-27 0)
(-1.60095e-28 -4.04718e-27 0)
(-4.77796e-28 -2.92067e-27 0)
(-6.6859e-28 -8.97878e-28 0)
(-7.13004e-28 1.39704e-27 0)
(-6.70793e-28 2.96003e-27 0)
(-5.80198e-28 2.92854e-27 0)
(-4.6799e-28 1.62812e-27 0)
(-3.87157e-28 1.97863e-28 0)
(-3.28379e-28 -7.77393e-28 0)
(-2.46565e-28 -1.42304e-27 0)
(-1.90442e-28 -1.73e-27 0)
(-2.02502e-28 -1.42412e-27 0)
(-2.11951e-28 -5.50088e-28 0)
(-1.94955e-28 5.41985e-28 0)
(-2.44564e-28 1.67381e-27 0)
(-3.03335e-28 2.64146e-27 0)
(-2.36374e-28 2.92523e-27 0)
(-1.32893e-28 2.347e-27 0)
(-1.44228e-28 1.67308e-27 0)
(-2.16275e-28 1.92673e-27 0)
(-2.73988e-28 3.19397e-27 0)
(-3.22323e-28 4.46026e-27 0)
(-4.27905e-28 4.65329e-27 0)
(-5.30525e-28 3.75346e-27 0)
(-5.0092e-28 2.72824e-27 0)
(-3.53775e-28 2.47477e-27 0)
(-2.04907e-28 3.05172e-27 0)
(-8.60531e-29 3.78477e-27 0)
(-4.45575e-29 3.99977e-27 0)
(-4.83981e-29 3.96233e-27 0)
(-3.44443e-26 -2.00328e-25 0)
(-2.53205e-26 -6.5432e-28 0)
(1.93346e-27 7.18585e-28 0)
(-3.30118e-27 6.57182e-28 0)
(1.53651e-27 -6.70909e-28 0)
(-5.04375e-28 -1.0795e-27 0)
(7.44966e-28 -1.56616e-27 0)
(-3.0771e-28 -2.05642e-27 0)
(2.24702e-28 -2.31133e-27 0)
(-2.32273e-28 -1.84913e-27 0)
(-1.93211e-29 -8.33074e-28 0)
(-2.2158e-28 2.76813e-28 0)
(-4.31682e-29 9.83859e-28 0)
(-1.17734e-28 1.1629e-27 0)
(-5.27518e-29 5.00008e-28 0)
(8.08129e-30 -1.33761e-27 0)
(2.0052e-28 -3.75433e-27 0)
(2.60581e-28 -5.29157e-27 0)
(2.49734e-28 -4.9973e-27 0)
(2.72811e-28 -3.29533e-27 0)
(4.26635e-28 -1.61609e-27 0)
(5.31961e-28 -1.08369e-27 0)
(5.05913e-28 -1.47748e-27 0)
(3.54726e-28 -1.52918e-27 0)
(1.79742e-28 -3.54079e-28 0)
(1.51551e-28 1.3414e-27 0)
(3.05737e-28 1.92511e-27 0)
(4.1256e-28 7.16474e-28 0)
(3.27276e-28 -1.43165e-27 0)
(1.16278e-28 -3.17534e-27 0)
(-1.6963e-28 -3.65498e-27 0)
(-4.63785e-28 -2.77712e-27 0)
(-6.47285e-28 -9.67661e-28 0)
(-7.11489e-28 1.13019e-27 0)
(-7.21511e-28 2.60321e-27 0)
(-6.79921e-28 2.80192e-27 0)
(-5.75016e-28 2.24073e-27 0)
(-4.80716e-28 1.82563e-27 0)
(-4.20519e-28 1.42678e-27 0)
(-3.39392e-28 4.7024e-28 0)
(-2.65927e-28 -6.66303e-28 0)
(-2.45665e-28 -1.08013e-27 0)
(-2.22778e-28 -7.1454e-28 0)
(-1.81428e-28 -1.48919e-28 0)
(-2.25206e-28 5.40932e-28 0)
(-3.04472e-28 1.48725e-27 0)
(-2.69444e-28 2.17118e-27 0)
(-1.8294e-28 2.05379e-27 0)
(-1.8437e-28 1.60581e-27 0)
(-2.25752e-28 1.8513e-27 0)
(-2.61963e-28 3.09194e-27 0)
(-3.30617e-28 4.52473e-27 0)
(-5.01477e-28 5.00669e-27 0)
(-6.60504e-28 4.14878e-27 0)
(-6.18797e-28 2.77175e-27 0)
(-3.95587e-28 2.25956e-27 0)
(-1.7818e-28 3.22214e-27 0)
(-5.00704e-29 4.65652e-27 0)
(-3.38849e-29 5.09241e-27 0)
(-5.08258e-29 5.15714e-27 0)
(-3.79224e-26 -2.00444e-25 0)
(-2.80581e-26 -1.69317e-27 0)
(1.8301e-27 6.00473e-28 0)
(-3.76108e-27 1.43485e-27 0)
(1.60743e-27 2.43531e-28 0)
(-6.30691e-28 -4.74854e-28 0)
(7.86865e-28 -1.47002e-27 0)
(-3.45311e-28 -1.91712e-27 0)
(2.78706e-28 -1.56805e-27 0)
(-2.1967e-28 -4.64669e-28 0)
(4.02255e-30 6.59373e-28 0)
(-2.43736e-28 1.15924e-27 0)
(-6.29563e-29 6.86733e-28 0)
(-1.57094e-28 -3.31741e-28 0)
(-1.08967e-28 -1.51763e-27 0)
(-6.84853e-29 -2.85022e-27 0)
(1.5594e-28 -3.97804e-27 0)
(2.80414e-28 -4.12903e-27 0)
(3.34813e-28 -3.13455e-27 0)
(3.87107e-28 -1.7943e-27 0)
(5.31138e-28 -1.11169e-27 0)
(6.06676e-28 -1.26869e-27 0)
(5.68802e-28 -1.60019e-27 0)
(4.26437e-28 -1.43369e-27 0)
(2.53244e-28 -6.32476e-28 0)
(2.03804e-28 3.64004e-28 0)
(3.21118e-28 8.44612e-28 0)
(3.85696e-28 3.51146e-28 0)
(2.73128e-28 -9.4392e-28 0)
(6.99573e-29 -2.23367e-27 0)
(-1.88086e-28 -2.69174e-27 0)
(-4.64717e-28 -2.30824e-27 0)
(-6.44972e-28 -1.52676e-27 0)
(-7.19835e-28 -3.8669e-28 0)
(-7.64492e-28 9.08462e-28 0)
(-7.58454e-28 1.63051e-27 0)
(-6.53673e-28 1.75006e-27 0)
(-5.46096e-28 1.99075e-27 0)
(-4.97986e-28 2.31317e-27 0)
(-4.38431e-28 1.9805e-27 0)
(-3.59451e-28 1.04424e-27 0)
(-3.08894e-28 3.1353e-28 0)
(-2.60393e-28 -9.05871e-29 0)
(-2.03092e-28 -6.87816e-28 0)
(-2.28463e-28 -1.15377e-27 0)
(-2.94006e-28 -5.51001e-28 0)
(-2.67507e-28 9.28603e-28 0)
(-2.06073e-28 2.00883e-27 0)
(-2.18859e-28 2.22208e-27 0)
(-2.37907e-28 2.52666e-27 0)
(-2.48035e-28 3.69127e-27 0)
(-3.34919e-28 5.01953e-27 0)
(-5.74679e-28 5.26729e-27 0)
(-7.91843e-28 4.32543e-27 0)
(-7.35236e-28 3.3168e-27 0)
(-4.32774e-28 3.27204e-27 0)
(-1.49458e-28 4.17794e-27 0)
(-2.06646e-29 5.04188e-27 0)
(-3.02409e-29 5.05728e-27 0)
(-5.43858e-29 5.22949e-27 0)
(-4.11344e-26 -2.00287e-25 0)
(-3.06371e-26 -3.20008e-27 0)
(1.65651e-27 -3.77137e-28 0)
(-4.20096e-27 1.72652e-27 0)
(1.66705e-27 1.30564e-27 0)
(-7.7191e-28 9.05416e-28 0)
(8.07399e-28 -3.2111e-28 0)
(-3.81081e-28 -1.00403e-27 0)
(3.44371e-28 -7.17791e-28 0)
(-1.97952e-28 3.9868e-28 0)
(1.4305e-29 1.26654e-27 0)
(-3.03101e-28 1.04133e-27 0)
(-1.31049e-28 -4.53526e-28 0)
(-2.24737e-28 -2.13387e-27 0)
(-1.53181e-28 -3.025e-27 0)
(-9.92703e-29 -3.18893e-27 0)
(1.61663e-28 -3.03337e-27 0)
(3.24779e-28 -2.60761e-27 0)
(4.04054e-28 -2.05072e-27 0)
(4.58146e-28 -1.75496e-27 0)
(5.98922e-28 -1.92464e-27 0)
(6.75148e-28 -2.24043e-27 0)
(6.42598e-28 -2.30232e-27 0)
(4.94916e-28 -2.12436e-27 0)
(3.04083e-28 -1.84522e-27 0)
(2.4062e-28 -1.48489e-27 0)
(3.49037e-28 -1.18842e-27 0)
(3.91035e-28 -1.22402e-27 0)
(2.50551e-28 -1.61451e-27 0)
(4.14867e-29 -1.99049e-27 0)
(-2.11689e-28 -2.07757e-27 0)
(-4.98206e-28 -2.20609e-27 0)
(-6.85516e-28 -2.55055e-27 0)
(-7.49391e-28 -2.35887e-27 0)
(-7.97247e-28 -1.27013e-27 0)
(-8.17273e-28 -2.48515e-28 0)
(-7.19595e-28 1.08474e-28 0)
(-5.94049e-28 5.22255e-28 0)
(-5.41198e-28 1.47832e-27 0)
(-5.0104e-28 2.33214e-27 0)
(-4.39744e-28 2.41309e-27 0)
(-3.9167e-28 1.78209e-27 0)
(-3.43044e-28 5.41084e-28 0)
(-2.77771e-28 -1.27309e-27 0)
(-2.64455e-28 -2.69024e-27 0)
(-2.73203e-28 -2.31793e-27 0)
(-2.22648e-28 -3.09654e-28 0)
(-1.89387e-28 1.62305e-27 0)
(-2.3622e-28 2.49676e-27 0)
(-2.4718e-28 3.10827e-27 0)
(-2.37419e-28 4.2906e-27 0)
(-3.51157e-28 5.35408e-27 0)
(-6.57359e-28 5.25808e-27 0)
(-9.08588e-28 4.46339e-27 0)
(-8.2079e-28 4.26047e-27 0)
(-4.63171e-28 4.81622e-27 0)
(-1.56147e-28 5.17512e-27 0)
(-3.33133e-29 4.75637e-27 0)
(-3.90654e-29 4.13354e-27 0)
(-5.49269e-29 4.27489e-27 0)
(-4.40887e-26 -1.99786e-25 0)
(-3.30721e-26 -4.86302e-27 0)
(1.40709e-27 -1.67778e-27 0)
(-4.61127e-27 1.49682e-27 0)
(1.74128e-27 1.96616e-27 0)
(-9.01343e-28 2.5223e-27 0)
(8.09588e-28 1.58948e-27 0)
(-4.42068e-28 4.4277e-28 0)
(3.83337e-28 -2.50607e-28 0)
(-1.93963e-28 -7.77299e-29 0)
(5.2449e-30 1.18176e-28 0)
(-3.85116e-28 -4.54542e-28 0)
(-2.15087e-28 -1.89233e-27 0)
(-2.81451e-28 -2.93725e-27 0)
(-1.58416e-28 -2.73398e-27 0)
(-8.69617e-29 -1.90884e-27 0)
(1.82137e-28 -1.55681e-27 0)
(3.44375e-28 -1.93896e-27 0)
(4.27659e-28 -2.64225e-27 0)
(4.94128e-28 -3.14654e-27 0)
(6.57558e-28 -3.28436e-27 0)
(7.4877e-28 -3.25997e-27 0)
(7.15572e-28 -3.3474e-27 0)
(5.5259e-28 -3.52502e-27 0)
(3.43637e-28 -3.45553e-27 0)
(2.70193e-28 -3.11185e-27 0)
(3.75347e-28 -2.9792e-27 0)
(4.10245e-28 -3.20554e-27 0)
(2.60494e-28 -3.29373e-27 0)
(4.30185e-29 -2.94744e-27 0)
(-2.3301e-28 -2.58585e-27 0)
(-5.55936e-28 -2.82685e-27 0)
(-7.54282e-28 -3.49117e-27 0)
(-7.94166e-28 -3.56806e-27 0)
(-8.33299e-28 -2.79769e-27 0)
(-8.78027e-28 -2.17255e-27 0)
(-7.88497e-28 -2.08461e-27 0)
(-6.32165e-28 -1.62424e-27 0)
(-5.491e-28 -2.29679e-28 0)
(-5.15318e-28 1.4065e-27 0)
(-4.90714e-28 2.29477e-27 0)
(-4.83976e-28 2.01921e-27 0)
(-4.62122e-28 5.66099e-28 0)
(-3.86575e-28 -1.58302e-27 0)
(-3.14067e-28 -3.04656e-27 0)
(-2.47912e-28 -2.61464e-27 0)
(-1.64815e-28 -8.00939e-28 0)
(-1.55496e-28 8.58904e-28 0)
(-2.349e-28 1.80192e-27 0)
(-2.44544e-28 2.73301e-27 0)
(-2.2826e-28 4.07847e-27 0)
(-3.74986e-28 5.16602e-27 0)
(-7.3484e-28 5.33306e-27 0)
(-9.99666e-28 5.09329e-27 0)
(-8.81681e-28 5.28705e-27 0)
(-5.02324e-28 5.68033e-27 0)
(-2.07461e-28 5.39612e-27 0)
(-8.91643e-29 4.24962e-27 0)
(-6.98566e-29 3.19148e-27 0)
(-6.23271e-29 2.57306e-27 0)
(-4.67831e-26 -1.99181e-25 0)
(-3.53597e-26 -6.43784e-27 0)
(1.07316e-27 -2.7496e-27 0)
(-5.00593e-27 1.06818e-27 0)
(1.83684e-27 2.00773e-27 0)
(-9.98148e-28 3.53096e-27 0)
(8.01392e-28 3.12024e-27 0)
(-5.4804e-28 1.58933e-27 0)
(3.58192e-28 -3.9188e-28 0)
(-2.37112e-28 -1.69809e-27 0)
(-2.08678e-29 -2.38824e-27 0)
(-4.48796e-28 -2.69312e-27 0)
(-2.53985e-28 -2.75805e-27 0)
(-2.82308e-28 -1.97026e-27 0)
(-1.24307e-28 -4.62991e-28 0)
(-7.53798e-29 3.99997e-28 0)
(1.57621e-28 -4.81425e-28 0)
(3.0116e-28 -2.57359e-27 0)
(4.10408e-28 -4.39096e-27 0)
(5.28991e-28 -4.88792e-27 0)
(7.33052e-28 -4.39067e-27 0)
(8.24504e-28 -4.04822e-27 0)
(7.73468e-28 -4.42062e-27 0)
(6.03488e-28 -4.89191e-27 0)
(3.9438e-28 -4.62342e-27 0)
(3.06968e-28 -3.88442e-27 0)
(3.8933e-28 -3.75444e-27 0)
(4.15038e-28 -4.44498e-27 0)
(2.74495e-28 -5.02643e-27 0)
(6.05012e-29 -4.86012e-27 0)
(-2.40884e-28 -4.27836e-27 0)
(-6.01598e-28 -3.91128e-27 0)
(-8.11324e-28 -3.79971e-27 0)
(-8.411e-28 -3.46216e-27 0)
(-8.92269e-28 -3.04431e-27 0)
(-9.65417e-28 -3.23565e-27 0)
(-8.67323e-28 -3.67921e-27 0)
(-6.63047e-28 -3.23417e-27 0)
(-5.43778e-28 -1.81854e-27 0)
(-5.14781e-28 -4.38234e-28 0)
(-5.25292e-28 2.70885e-28 0)
(-5.62315e-28 3.63602e-28 0)
(-5.69818e-28 -1.62433e-28 0)
(-4.80762e-28 -1.18016e-27 0)
(-3.51219e-28 -1.78208e-27 0)
(-2.3023e-28 -1.24695e-27 0)
(-1.36196e-28 -2.48026e-28 0)
(-1.47321e-28 2.06248e-28 0)
(-2.36977e-28 3.27429e-28 0)
(-2.31463e-28 1.06903e-27 0)
(-2.04999e-28 2.69482e-27 0)
(-3.75332e-28 4.49263e-27 0)
(-7.81129e-28 5.63424e-27 0)
(-1.07514e-27 5.94142e-27 0)
(-9.57122e-28 5.69844e-27 0)
(-5.68726e-28 5.19803e-27 0)
(-2.77091e-28 4.58932e-27 0)
(-1.5875e-28 3.67951e-27 0)
(-1.36155e-28 2.54145e-27 0)
(-9.69296e-29 7.96155e-28 0)
(-4.92111e-26 -1.98371e-25 0)
(-3.74866e-26 -7.94571e-27 0)
(6.53404e-28 -3.57284e-27 0)
(-5.40591e-27 7.25438e-28 0)
(1.93333e-27 1.54017e-27 0)
(-1.07144e-27 3.3015e-27 0)
(7.86518e-28 3.0535e-27 0)
(-6.91352e-28 1.44941e-27 0)
(2.68519e-28 -1.15442e-27 0)
(-3.3166e-28 -3.38218e-27 0)
(-5.19121e-29 -4.55505e-27 0)
(-4.55989e-28 -4.12926e-27 0)
(-2.03211e-28 -2.37492e-27 0)
(-2.10559e-28 2.92734e-28 0)
(-7.83584e-29 2.52437e-27 0)
(-1.17481e-28 2.50288e-27 0)
(5.02937e-29 -1.85708e-28 0)
(1.98652e-28 -3.70563e-27 0)
(3.83523e-28 -5.79902e-27 0)
(5.8541e-28 -5.77545e-27 0)
(8.23792e-28 -4.85055e-27 0)
(8.94774e-28 -4.53929e-27 0)
(8.22448e-28 -5.03654e-27 0)
(6.61752e-28 -5.35613e-27 0)
(4.65674e-28 -4.73546e-27 0)
(3.58244e-28 -3.6422e-27 0)
(3.9621e-28 -3.3126e-27 0)
(3.9023e-28 -4.27674e-27 0)
(2.5287e-28 -5.77588e-27 0)
(6.34331e-29 -6.58707e-27 0)
(-2.25382e-28 -6.08536e-27 0)
(-5.97534e-28 -4.72245e-27 0)
(-8.25026e-28 -3.35843e-27 0)
(-8.78113e-28 -2.34382e-27 0)
(-9.7408e-28 -1.97806e-27 0)
(-1.08284e-27 -2.61502e-27 0)
(-9.62055e-28 -3.53028e-27 0)
(-7.03055e-28 -3.53615e-27 0)
(-5.61512e-28 -2.84028e-27 0)
(-5.46999e-28 -2.5599e-27 0)
(-5.68874e-28 -2.7342e-27 0)
(-6.02583e-28 -2.35719e-27 0)
(-6.0737e-28 -1.21501e-27 0)
(-5.11676e-28 -1.51644e-28 0)
(-3.63094e-28 4.91613e-28 0)
(-2.32556e-28 1.01122e-27 0)
(-1.59176e-28 1.09092e-27 0)
(-1.96953e-28 1.99838e-28 0)
(-2.77414e-28 -1.01535e-27 0)
(-2.21816e-28 -1.04483e-27 0)
(-1.49248e-28 7.95531e-28 0)
(-3.24764e-28 3.55051e-27 0)
(-7.92271e-28 5.53809e-27 0)
(-1.15873e-27 5.88525e-27 0)
(-1.07184e-27 4.96227e-27 0)
(-6.61275e-28 3.80399e-27 0)
(-3.39793e-28 3.17843e-27 0)
(-2.18735e-28 2.66605e-27 0)
(-2.26564e-28 1.76288e-27 0)
(-1.54919e-28 -4.60157e-29 0)
(-5.13791e-26 -1.96874e-25 0)
(-3.94551e-26 -9.39735e-27 0)
(1.52841e-28 -4.43833e-27 0)
(-5.82279e-27 3.88119e-28 0)
(1.99741e-27 6.52606e-28 0)
(-1.15644e-27 1.79109e-27 0)
(7.58309e-28 1.08851e-27 0)
(-8.41366e-28 -3.04818e-28 0)
(1.62927e-28 -2.33122e-27 0)
(-4.35328e-28 -3.93439e-27 0)
(-6.38638e-29 -4.49446e-27 0)
(-4.03675e-28 -3.25697e-27 0)
(-8.08439e-29 -6.43318e-28 0)
(-9.99014e-29 2.4661e-27 0)
(-5.44938e-29 4.35593e-27 0)
(-2.26263e-28 3.38427e-27 0)
(-1.20019e-28 -1.81929e-28 0)
(7.54665e-29 -3.88257e-27 0)
(3.70664e-28 -5.5751e-27 0)
(6.54479e-28 -5.26107e-27 0)
(9.09746e-28 -4.504e-27 0)
(9.59922e-28 -4.41021e-27 0)
(8.81443e-28 -4.72002e-27 0)
(7.38128e-28 -4.61942e-27 0)
(5.52979e-28 -3.72538e-27 0)
(4.23109e-28 -2.45496e-27 0)
(4.05697e-28 -1.90773e-27 0)
(3.38831e-28 -2.91872e-27 0)
(1.82188e-28 -5.02607e-27 0)
(3.61418e-29 -6.62126e-27 0)
(-1.911e-28 -6.3554e-27 0)
(-5.42541e-28 -4.51181e-27 0)
(-7.93597e-28 -2.42516e-27 0)
(-8.92548e-28 -8.0887e-28 0)
(-1.05101e-27 7.29054e-29 0)
(-1.20993e-27 -2.28115e-28 0)
(-1.08382e-27 -1.41132e-27 0)
(-7.86971e-28 -2.45698e-27 0)
(-6.34647e-28 -3.16323e-27 0)
(-6.30808e-28 -4.10253e-27 0)
(-6.28755e-28 -4.92433e-27 0)
(-5.98831e-28 -4.25995e-27 0)
(-5.5852e-28 -1.8435e-27 0)
(-4.67757e-28 7.90811e-28 0)
(-3.49169e-28 2.38504e-27 0)
(-2.52945e-28 2.99949e-27 0)
(-2.25009e-28 2.65206e-27 0)
(-3.03431e-28 1.01958e-27 0)
(-3.69739e-28 -1.15273e-27 0)
(-2.29571e-28 -1.96554e-27 0)
(-7.06916e-29 -3.84189e-28 0)
(-2.4371e-28 2.3543e-27 0)
(-7.97437e-28 4.07593e-27 0)
(-1.25833e-27 4.06062e-27 0)
(-1.20253e-27 3.15383e-27 0)
(-7.58928e-28 2.26656e-27 0)
(-4.0077e-28 1.66889e-27 0)
(-2.71841e-28 1.01689e-27 0)
(-2.94449e-28 5.81324e-28 0)
(-1.96378e-28 3.81076e-28 0)
(-5.3305e-26 -1.94548e-25 0)
(-4.12873e-26 -1.05968e-26 0)
(-4.31973e-28 -5.42239e-27 0)
(-6.26318e-27 -2.60977e-28 0)
(2.00635e-27 -7.42422e-28 0)
(-1.28228e-27 -4.8801e-28 0)
(7.08048e-28 -1.86394e-27 0)
(-9.65323e-28 -2.86217e-27 0)
(1.11682e-28 -3.37762e-27 0)
(-4.75118e-28 -2.85302e-27 0)
(-2.7667e-29 -1.6856e-27 0)
(-3.29151e-28 8.76855e-29 0)
(3.21135e-29 1.85934e-27 0)
(-2.18245e-29 3.39768e-27 0)
(-6.84054e-29 4.04258e-27 0)
(-3.55655e-28 2.92813e-27 0)
(-2.84184e-28 2.54415e-28 0)
(-2.69402e-29 -2.32627e-27 0)
(3.67313e-28 -3.51978e-27 0)
(7.10912e-28 -3.4674e-27 0)
(9.7842e-28 -3.1763e-27 0)
(1.02522e-27 -3.21925e-27 0)
(9.5648e-28 -3.33939e-27 0)
(8.30638e-28 -3.01463e-27 0)
(6.50733e-28 -1.9958e-27 0)
(4.95725e-28 -6.76223e-28 0)
(4.17143e-28 -1.25905e-28 0)
(2.78046e-28 -1.05306e-27 0)
(9.45771e-29 -2.87434e-27 0)
(-5.36761e-30 -4.22589e-27 0)
(-1.6118e-28 -4.16835e-27 0)
(-4.79789e-28 -2.89747e-27 0)
(-7.41188e-28 -1.14942e-27 0)
(-8.72805e-28 8.00121e-28 0)
(-1.09128e-27 2.53533e-27 0)
(-1.3252e-27 2.96255e-27 0)
(-1.24051e-27 1.66571e-27 0)
(-9.38876e-28 -4.65342e-28 0)
(-7.70301e-28 -2.49099e-27 0)
(-7.46082e-28 -4.09905e-27 0)
(-6.87878e-28 -4.84237e-27 0)
(-5.70807e-28 -3.93808e-27 0)
(-4.73184e-28 -1.53511e-27 0)
(-3.89946e-28 9.84294e-28 0)
(-3.14918e-28 2.70433e-27 0)
(-2.67758e-28 3.72715e-27 0)
(-2.98243e-28 3.83386e-27 0)
(-4.2953e-28 2.53543e-27 0)
(-4.8855e-28 4.8695e-28 0)
(-2.64434e-28 -6.87256e-28 0)
(-2.31832e-29 -2.47318e-28 0)
(-2.0165e-28 7.87195e-28 0)
(-8.32588e-28 1.10328e-27 0)
(-1.3537e-27 8.34314e-28 0)
(-1.30289e-27 7.47016e-28 0)
(-8.40401e-28 7.13886e-28 0)
(-4.74537e-28 2.16375e-28 0)
(-3.2637e-28 -6.69776e-28 0)
(-3.01578e-28 -5.58438e-28 0)
(-1.88612e-28 1.07673e-27 0)
(-5.49959e-26 -1.91997e-25 0)
(-4.2998e-26 -1.15019e-26 0)
(-1.11838e-27 -6.36225e-27 0)
(-6.74075e-27 -1.30385e-27 0)
(1.95993e-27 -2.56497e-27 0)
(-1.44338e-27 -2.72978e-27 0)
(6.42232e-28 -4.29944e-27 0)
(-1.04402e-27 -4.67393e-27 0)
(1.58015e-28 -3.52917e-27 0)
(-4.01781e-28 -6.26472e-28 0)
(6.92386e-29 2.36549e-27 0)
(-2.81238e-28 4.19367e-27 0)
(5.118e-29 4.07685e-27 0)
(-3.62233e-29 3.07755e-27 0)
(-1.11008e-28 2.3456e-27 0)
(-4.39192e-28 1.91258e-27 0)
(-3.75656e-28 1.21187e-27 0)
(-8.73465e-29 2.73824e-28 0)
(3.58827e-28 -5.08218e-28 0)
(7.42849e-28 -8.20254e-28 0)
(1.03261e-27 -8.37118e-28 0)
(1.08875e-27 -9.66525e-28 0)
(1.03301e-27 -1.21339e-27 0)
(9.26608e-28 -1.06683e-27 0)
(7.52709e-28 -1.65564e-28 0)
(5.66487e-28 9.88081e-28 0)
(4.26577e-28 1.37793e-27 0)
(2.34752e-28 8.10246e-28 0)
(4.16186e-29 8.77312e-29 0)
(-3.1302e-29 -2.20577e-28 0)
(-1.57991e-28 -2.1951e-28 0)
(-4.58798e-28 -5.24374e-29 0)
(-7.00187e-28 6.51094e-28 0)
(-8.2395e-28 2.42425e-27 0)
(-1.09139e-27 4.61685e-27 0)
(-1.42538e-27 5.46257e-27 0)
(-1.42197e-27 4.19807e-27 0)
(-1.13786e-27 1.78853e-27 0)
(-9.38546e-28 -4.86458e-28 0)
(-8.60039e-28 -1.9584e-27 0)
(-7.34167e-28 -2.34307e-27 0)
(-5.56489e-28 -1.64054e-27 0)
(-4.30628e-28 -4.72201e-28 0)
(-3.45945e-28 4.44679e-28 0)
(-2.75486e-28 1.37957e-27 0)
(-2.46462e-28 2.86499e-27 0)
(-3.27479e-28 4.21924e-27 0)
(-5.18412e-28 4.37264e-27 0)
(-5.96198e-28 3.37922e-27 0)
(-3.42236e-28 1.98428e-27 0)
(-7.21016e-29 5.38587e-28 0)
(-2.58467e-28 -9.63298e-28 0)
(-9.09414e-28 -2.2007e-27 0)
(-1.42456e-27 -2.47809e-27 0)
(-1.35636e-27 -1.82165e-27 0)
(-8.95831e-28 -1.2005e-27 0)
(-5.45166e-28 -1.19581e-27 0)
(-3.71897e-28 -1.60197e-27 0)
(-2.68453e-28 -1.12566e-27 0)
(-1.52933e-28 6.63651e-28 0)
(-5.64429e-26 -1.89991e-25 0)
(-4.45766e-26 -1.26654e-26 0)
(-1.9157e-27 -7.33239e-27 0)
(-7.26686e-27 -2.36964e-27 0)
(1.87475e-27 -4.18171e-27 0)
(-1.60446e-27 -4.07137e-27 0)
(5.87174e-28 -5.05882e-27 0)
(-1.07471e-27 -4.54298e-27 0)
(2.85436e-28 -2.36777e-27 0)
(-2.40121e-28 1.57052e-27 0)
(2.01283e-28 5.07058e-27 0)
(-2.82322e-28 6.44504e-27 0)
(-3.66599e-29 4.93718e-27 0)
(-1.38987e-28 2.41982e-27 0)
(-1.6208e-28 1.08162e-27 0)
(-4.54669e-28 1.34984e-27 0)
(-3.83791e-28 2.06008e-27 0)
(-1.03462e-28 2.32347e-27 0)
(3.5283e-28 2.13956e-27 0)
(7.64535e-28 2.03497e-27 0)
(1.07812e-27 2.04217e-27 0)
(1.1394e-27 1.71168e-27 0)
(1.09226e-27 1.06102e-27 0)
(1.00888e-27 7.48428e-28 0)
(8.43487e-28 1.16914e-27 0)
(6.26865e-28 1.88808e-27 0)
(4.43038e-28 2.26222e-27 0)
(2.32719e-28 2.40754e-27 0)
(4.65085e-29 2.83864e-27 0)
(-2.76508e-29 3.43169e-27 0)
(-1.77392e-28 3.59799e-27 0)
(-4.88003e-28 3.20729e-27 0)
(-6.9394e-28 3.01381e-27 0)
(-7.80227e-28 3.96401e-27 0)
(-1.0841e-27 5.60105e-27 0)
(-1.51984e-27 6.24817e-27 0)
(-1.59613e-27 5.30991e-27 0)
(-1.32215e-27 3.78982e-27 0)
(-1.08682e-27 2.59342e-27 0)
(-9.58164e-28 1.8017e-27 0)
(-7.88668e-28 1.30283e-27 0)
(-5.95517e-28 1.02604e-27 0)