/*--------------------------------*- C++ -*----------------------------------*\
| =========                 |                                                 |
| \\      /  F ield         | foam-extend: Open Source CFD                    |
|  \\    /   O peration     | Version:     4.0                                |
|   \\  /    A nd           | Web:         http://www.foam-extend.org         |
|    \\/     M anipulation  |                                                 |
\*---------------------------------------------------------------------------*/
FoamFile
{
    version     2.0;
    format      ascii;
    class       volScalarField;
    location    "990";
    object      psiE;
}
// * * * * * * * * * * * * * * * * * * * * * * * * * * * * * * * * * * * * * //

dimensions      [0 0 0 0 0 0 0];

internalField   nonuniform List<scalar> 
6960
(
0.290281
0.290272
0.290267
0.290264
0.290262
0.290261
0.29026
0.290259
0.290259
0.290258
0.290258
0.290257
0.290257
0.290257
0.290257
0.290257
0.290256
0.290256
0.290256
0.290256
0.290256
0.290256
0.290256
0.290256
0.290256
0.290256
0.290256
0.290256
0.290256
0.290256
0.290256
0.290256
0.290256
0.290256
0.290256
0.290256
0.290256
0.290256
0.290256
0.290256
0.290256
0.290256
0.290256
0.290256
0.290257
0.290257
0.290257
0.290257
0.290257
0.290258
0.290258
0.290259
0.290259
0.29026
0.290261
0.290262
0.290264
0.290267
0.290272
0.290281
0.648509
0.648477
0.648461
0.648451
0.648444
0.648439
0.648435
0.648433
0.64843
0.648429
0.648427
0.648426
0.648425
0.648425
0.648424
0.648424
0.648423
0.648423
0.648422
0.648422
0.648422
0.648422
0.648421
0.648421
0.648421
0.648421
0.648421
0.648421
0.648421
0.648421
0.648421
0.648421
0.648421
0.648421
0.648421
0.648421
0.648421
0.648421
0.648422
0.648422
0.648422
0.648422
0.648423
0.648423
0.648424
0.648424
0.648425
0.648425
0.648426
0.648427
0.648429
0.64843
0.648433
0.648435
0.648439
0.648444
0.648451
0.648461
0.648477
0.648509
0.897717
0.897659
0.897631
0.897614
0.897602
0.897594
0.897587
0.897583
0.897579
0.897576
0.897574
0.897572
0.89757
0.897569
0.897568
0.897567
0.897566
0.897565
0.897565
0.897564
0.897564
0.897564
0.897563
0.897563
0.897563
0.897563
0.897562
0.897562
0.897562
0.897562
0.897562
0.897562
0.897562
0.897562
0.897563
0.897563
0.897563
0.897563
0.897564
0.897564
0.897564
0.897565
0.897565
0.897566
0.897567
0.897568
0.897569
0.89757
0.897572
0.897574
0.897576
0.897579
0.897583
0.897587
0.897594
0.897602
0.897614
0.897631
0.897659
0.897717
1.08099
1.08091
1.08087
1.08085
1.08083
1.08082
1.08081
1.0808
1.0808
1.08079
1.08079
1.08079
1.08079
1.08078
1.08078
1.08078
1.08078
1.08078
1.08078
1.08078
1.08078
1.08078
1.08078
1.08078
1.08078
1.08078
1.08077
1.08077
1.08077
1.08077
1.08077
1.08077
1.08077
1.08077
1.08078
1.08078
1.08078
1.08078
1.08078
1.08078
1.08078
1.08078
1.08078
1.08078
1.08078
1.08078
1.08078
1.08079
1.08079
1.08079
1.08079
1.0808
1.0808
1.08081
1.08082
1.08083
1.08085
1.08087
1.08091
1.08099
1.22251
1.22241
1.22236
1.22233
1.22231
1.22229
1.22228
1.22228
1.22227
1.22226
1.22226
1.22226
1.22225
1.22225
1.22225
1.22225
1.22225
1.22225
1.22225
1.22224
1.22224
1.22224
1.22224
1.22224
1.22224
1.22224
1.22224
1.22224
1.22224
1.22224
1.22224
1.22224
1.22224
1.22224
1.22224
1.22224
1.22224
1.22224
1.22224
1.22224
1.22224
1.22225
1.22225
1.22225
1.22225
1.22225
1.22225
1.22225
1.22226
1.22226
1.22226
1.22227
1.22228
1.22228
1.22229
1.22231
1.22233
1.22236
1.22241
1.22251
1.33737
1.33725
1.3372
1.33717
1.33714
1.33713
1.33711
1.3371
1.3371
1.33709
1.33709
1.33708
1.33708
1.33708
1.33707
1.33707
1.33707
1.33707
1.33707
1.33707
1.33707
1.33707
1.33707
1.33706
1.33706
1.33706
1.33706
1.33706
1.33706
1.33706
1.33706
1.33706
1.33706
1.33706
1.33706
1.33706
1.33706
1.33707
1.33707
1.33707
1.33707
1.33707
1.33707
1.33707
1.33707
1.33707
1.33708
1.33708
1.33708
1.33709
1.33709
1.3371
1.3371
1.33711
1.33713
1.33714
1.33717
1.3372
1.33725
1.33737
1.43507
1.43495
1.43489
1.43485
1.43482
1.43481
1.43479
1.43478
1.43477
1.43477
1.43476
1.43476
1.43475
1.43475
1.43475
1.43475
1.43475
1.43474
1.43474
1.43474
1.43474
1.43474
1.43474
1.43474
1.43474
1.43474
1.43474
1.43474
1.43474
1.43474
1.43474
1.43474
1.43474
1.43474
1.43474
1.43474
1.43474
1.43474
1.43474
1.43474
1.43474
1.43474
1.43474
1.43475
1.43475
1.43475
1.43475
1.43475
1.43476
1.43476
1.43477
1.43477
1.43478
1.43479
1.43481
1.43482
1.43485
1.43489
1.43495
1.43507
1.52147
1.52134
1.52127
1.52123
1.52121
1.52119
1.52117
1.52116
1.52115
1.52115
1.52114
1.52114
1.52113
1.52113
1.52113
1.52113
1.52112
1.52112
1.52112
1.52112
1.52112
1.52112
1.52112
1.52112
1.52112
1.52112
1.52112
1.52112
1.52111
1.52111
1.52111
1.52111
1.52112
1.52112
1.52112
1.52112
1.52112
1.52112
1.52112
1.52112
1.52112
1.52112
1.52112
1.52112
1.52113
1.52113
1.52113
1.52113
1.52114
1.52114
1.52115
1.52115
1.52116
1.52117
1.52119
1.52121
1.52123
1.52127
1.52134
1.52147
1.60013
1.6
1.59993
1.59989
1.59986
1.59984
1.59983
1.59982
1.59981
1.5998
1.59979
1.59979
1.59978
1.59978
1.59978
1.59978
1.59977
1.59977
1.59977
1.59977
1.59977
1.59977
1.59977
1.59977
1.59977
1.59977
1.59977
1.59977
1.59977
1.59977
1.59977
1.59977
1.59977
1.59977
1.59977
1.59977
1.59977
1.59977
1.59977
1.59977
1.59977
1.59977
1.59977
1.59977
1.59978
1.59978
1.59978
1.59978
1.59979
1.59979
1.5998
1.59981
1.59982
1.59983
1.59984
1.59986
1.59989
1.59993
1.6
1.60013
1.67327
1.67314
1.67307
1.67303
1.673
1.67298
1.67296
1.67295
1.67294
1.67293
1.67292
1.67292
1.67292
1.67291
1.67291
1.67291
1.6729
1.6729
1.6729
1.6729
1.6729
1.6729
1.6729
1.6729
1.6729
1.6729
1.6729
1.6729
1.67289
1.67289
1.67289
1.67289
1.6729
1.6729
1.6729
1.6729
1.6729
1.6729
1.6729
1.6729
1.6729
1.6729
1.6729
1.6729
1.67291
1.67291
1.67291
1.67292
1.67292
1.67292
1.67293
1.67294
1.67295
1.67296
1.67298
1.673
1.67303
1.67307
1.67314
1.67327
1.74231
1.74218
1.74211
1.74206
1.74203
1.74201
1.74199
1.74198
1.74197
1.74196
1.74195
1.74195
1.74194
1.74194
1.74194
1.74194
1.74193
1.74193
1.74193
1.74193
1.74193
1.74193
1.74193
1.74193
1.74192
1.74192
1.74192
1.74192
1.74192
1.74192
1.74192
1.74192
1.74192
1.74192
1.74192
1.74192
1.74193
1.74193
1.74193
1.74193
1.74193
1.74193
1.74193
1.74193
1.74194
1.74194
1.74194
1.74194
1.74195
1.74195
1.74196
1.74197
1.74198
1.74199
1.74201
1.74203
1.74206
1.74211
1.74218
1.74231
1.80821
1.80808
1.80801
1.80796
1.80793
1.8079
1.80789
1.80787
1.80786
1.80786
1.80785
1.80784
1.80784
1.80784
1.80783
1.80783
1.80783
1.80783
1.80783
1.80782
1.80782
1.80782
1.80782
1.80782
1.80782
1.80782
1.80782
1.80782
1.80782
1.80782
1.80782
1.80782
1.80782
1.80782
1.80782
1.80782
1.80782
1.80782
1.80782
1.80782
1.80782
1.80783
1.80783
1.80783
1.80783
1.80783
1.80784
1.80784
1.80784
1.80785
1.80786
1.80786
1.80787
1.80789
1.8079
1.80793
1.80796
1.80801
1.80808
1.80821
1.87168
1.87154
1.87147
1.87142
1.87139
1.87137
1.87135
1.87134
1.87133
1.87132
1.87131
1.8713
1.8713
1.8713
1.87129
1.87129
1.87129
1.87129
1.87128
1.87128
1.87128
1.87128
1.87128
1.87128
1.87128
1.87128
1.87128
1.87128
1.87128
1.87128
1.87128
1.87128
1.87128
1.87128
1.87128
1.87128
1.87128
1.87128
1.87128
1.87128
1.87128
1.87128
1.87129
1.87129
1.87129
1.87129
1.8713
1.8713
1.8713
1.87131
1.87132
1.87133
1.87134
1.87135
1.87137
1.87139
1.87142
1.87147
1.87154
1.87168
1.93324
1.9331
1.93303
1.93298
1.93295
1.93292
1.9329
1.93289
1.93288
1.93287
1.93286
1.93286
1.93285
1.93285
1.93285
1.93284
1.93284
1.93284
1.93284
1.93284
1.93284
1.93283
1.93283
1.93283
1.93283
1.93283
1.93283
1.93283
1.93283
1.93283
1.93283
1.93283
1.93283
1.93283
1.93283
1.93283
1.93283
1.93283
1.93283
1.93284
1.93284
1.93284
1.93284
1.93284
1.93284
1.93285
1.93285
1.93285
1.93286
1.93286
1.93287
1.93288
1.93289
1.9329
1.93292
1.93295
1.93298
1.93303
1.9331
1.93324
1.99331
1.99317
1.9931
1.99305
1.99301
1.99299
1.99297
1.99296
1.99295
1.99294
1.99293
1.99293
1.99292
1.99292
1.99291
1.99291
1.99291
1.99291
1.9929
1.9929
1.9929
1.9929
1.9929
1.9929
1.9929
1.9929
1.9929
1.9929
1.9929
1.9929
1.9929
1.9929
1.9929
1.9929
1.9929
1.9929
1.9929
1.9929
1.9929
1.9929
1.9929
1.9929
1.99291
1.99291
1.99291
1.99291
1.99292
1.99292
1.99293
1.99293
1.99294
1.99295
1.99296
1.99297
1.99299
1.99301
1.99305
1.9931
1.99317
1.99331
2.05223
2.0521
2.05202
2.05197
2.05194
2.05191
2.05189
2.05188
2.05187
2.05186
2.05185
2.05185
2.05184
2.05184
2.05183
2.05183
2.05183
2.05183
2.05182
2.05182
2.05182
2.05182
2.05182
2.05182
2.05182
2.05182
2.05182
2.05182
2.05182
2.05182
2.05182
2.05182
2.05182
2.05182
2.05182
2.05182
2.05182
2.05182
2.05182
2.05182
2.05182
2.05182
2.05183
2.05183
2.05183
2.05183
2.05184
2.05184
2.05185
2.05185
2.05186
2.05187
2.05188
2.05189
2.05191
2.05194
2.05197
2.05202
2.0521
2.05223
2.11029
2.11016
2.11008
2.11003
2.11
2.10997
2.10995
2.10994
2.10993
2.10992
2.10991
2.1099
2.1099
2.10989
2.10989
2.10989
2.10989
2.10988
2.10988
2.10988
2.10988
2.10988
2.10988
2.10988
2.10988
2.10987
2.10987
2.10987
2.10987
2.10987
2.10987
2.10987
2.10987
2.10987
2.10987
2.10988
2.10988
2.10988
2.10988
2.10988
2.10988
2.10988
2.10988
2.10989
2.10989
2.10989
2.10989
2.1099
2.1099
2.10991
2.10992
2.10993
2.10994
2.10995
2.10997
2.11
2.11003
2.11008
2.11016
2.11029
2.16773
2.1676
2.16752
2.16747
2.16743
2.16741
2.16739
2.16737
2.16736
2.16735
2.16735
2.16734
2.16733
2.16733
2.16733
2.16732
2.16732
2.16732
2.16732
2.16732
2.16731
2.16731
2.16731
2.16731
2.16731
2.16731
2.16731
2.16731
2.16731
2.16731
2.16731
2.16731
2.16731
2.16731
2.16731
2.16731
2.16731
2.16731
2.16731
2.16731
2.16732
2.16732
2.16732
2.16732
2.16732
2.16733
2.16733
2.16733
2.16734
2.16735
2.16735
2.16736
2.16737
2.16739
2.16741
2.16743
2.16747
2.16752
2.1676
2.16773
2.22475
2.22462
2.22454
2.22449
2.22446
2.22443
2.22441
2.2244
2.22438
2.22438
2.22437
2.22436
2.22436
2.22435
2.22435
2.22435
2.22434
2.22434
2.22434
2.22434
2.22434
2.22434
2.22433
2.22433
2.22433
2.22433
2.22433
2.22433
2.22433
2.22433
2.22433
2.22433
2.22433
2.22433
2.22433
2.22433
2.22433
2.22433
2.22434
2.22434
2.22434
2.22434
2.22434
2.22434
2.22435
2.22435
2.22435
2.22436
2.22436
2.22437
2.22438
2.22438
2.2244
2.22441
2.22443
2.22446
2.22449
2.22454
2.22462
2.22475
2.28154
2.28142
2.28134
2.28129
2.28125
2.28123
2.28121
2.28119
2.28118
2.28117
2.28116
2.28115
2.28115
2.28115
2.28114
2.28114
2.28114
2.28113
2.28113
2.28113
2.28113
2.28113
2.28113
2.28113
2.28112
2.28112
2.28112
2.28112
2.28112
2.28112
2.28112
2.28112
2.28112
2.28112
2.28112
2.28112
2.28113
2.28113
2.28113
2.28113
2.28113
2.28113
2.28113
2.28114
2.28114
2.28114
2.28115
2.28115
2.28115
2.28116
2.28117
2.28118
2.28119
2.28121
2.28123
2.28125
2.28129
2.28134
2.28142
2.28154
2.33827
2.33815
2.33807
2.33802
2.33798
2.33795
2.33793
2.33792
2.3379
2.3379
2.33789
2.33788
2.33788
2.33787
2.33787
2.33786
2.33786
2.33786
2.33786
2.33786
2.33785
2.33785
2.33785
2.33785
2.33785
2.33785
2.33785
2.33785
2.33785
2.33785
2.33785
2.33785
2.33785
2.33785
2.33785
2.33785
2.33785
2.33785
2.33785
2.33785
2.33786
2.33786
2.33786
2.33786
2.33786
2.33787
2.33787
2.33788
2.33788
2.33789
2.3379
2.3379
2.33792
2.33793
2.33795
2.33798
2.33802
2.33807
2.33815
2.33827
2.39507
2.39496
2.39488
2.39482
2.39479
2.39476
2.39474
2.39472
2.39471
2.3947
2.39469
2.39469
2.39468
2.39468
2.39467
2.39467
2.39467
2.39467
2.39466
2.39466
2.39466
2.39466
2.39466
2.39466
2.39466
2.39466
2.39466
2.39466
2.39465
2.39465
2.39465
2.39465
2.39466
2.39466
2.39466
2.39466
2.39466
2.39466
2.39466
2.39466
2.39466
2.39466
2.39467
2.39467
2.39467
2.39467
2.39468
2.39468
2.39469
2.39469
2.3947
2.39471
2.39472
2.39474
2.39476
2.39479
2.39482
2.39488
2.39496
2.39507
2.4521
2.45198
2.4519
2.45185
2.45181
2.45178
2.45176
2.45175
2.45173
2.45172
2.45171
2.45171
2.4517
2.4517
2.45169
2.45169
2.45169
2.45169
2.45168
2.45168
2.45168
2.45168
2.45168
2.45168
2.45168
2.45168
2.45168
2.45168
2.45168
2.45168
2.45168
2.45168
2.45168
2.45168
2.45168
2.45168
2.45168
2.45168
2.45168
2.45168
2.45168
2.45168
2.45169
2.45169
2.45169
2.45169
2.4517
2.4517
2.45171
2.45171
2.45172
2.45173
2.45175
2.45176
2.45178
2.45181
2.45185
2.4519
2.45198
2.4521
2.50945
2.50934
2.50926
2.50921
2.50917
2.50914
2.50912
2.5091
2.50909
2.50908
2.50907
2.50907
2.50906
2.50906
2.50905
2.50905
2.50905
2.50905
2.50904
2.50904
2.50904
2.50904
2.50904
2.50904
2.50904
2.50904
2.50903
2.50903
2.50903
2.50903
2.50903
2.50903
2.50903
2.50903
2.50904
2.50904
2.50904
2.50904
2.50904
2.50904
2.50904
2.50904
2.50905
2.50905
2.50905
2.50905
2.50906
2.50906
2.50907
2.50907
2.50908
2.50909
2.5091
2.50912
2.50914
2.50917
2.50921
2.50926
2.50934
2.50945
2.56727
2.56715
2.56707
2.56702
2.56698
2.56696
2.56693
2.56692
2.56691
2.5669
2.56689
2.56688
2.56688
2.56687
2.56687
2.56686
2.56686
2.56686
2.56686
2.56685
2.56685
2.56685
2.56685
2.56685
2.56685
2.56685
2.56685
2.56685
2.56685
2.56685
2.56685
2.56685
2.56685
2.56685
2.56685
2.56685
2.56685
2.56685
2.56685
2.56685
2.56685
2.56686
2.56686
2.56686
2.56686
2.56687
2.56687
2.56688
2.56688
2.56689
2.5669
2.56691
2.56692
2.56693
2.56696
2.56698
2.56702
2.56707
2.56715
2.56727
2.62564
2.62553
2.62545
2.6254
2.62536
2.62533
2.62531
2.6253
2.62528
2.62527
2.62526
2.62526
2.62525
2.62525
2.62524
2.62524
2.62524
2.62523
2.62523
2.62523
2.62523
2.62523
2.62523
2.62522
2.62522
2.62522
2.62522
2.62522
2.62522
2.62522
2.62522
2.62522
2.62522
2.62522
2.62522
2.62522
2.62522
2.62523
2.62523
2.62523
2.62523
2.62523
2.62523
2.62524
2.62524
2.62524
2.62525
2.62525
2.62526
2.62526
2.62527
2.62528
2.6253
2.62531
2.62533
2.62536
2.6254
2.62545
2.62553
2.62564
2.68468
2.68457
2.6845
2.68444
2.6844
2.68438
2.68435
2.68434
2.68432
2.68431
2.68431
2.6843
2.68429
2.68429
2.68428
2.68428
2.68428
2.68427
2.68427
2.68427
2.68427
2.68427
2.68427
2.68427
2.68427
2.68426
2.68426
2.68426
2.68426
2.68426
2.68426
2.68426
2.68426
2.68426
2.68426
2.68427
2.68427
2.68427
2.68427
2.68427
2.68427
2.68427
2.68427
2.68428
2.68428
2.68428
2.68429
2.68429
2.6843
2.68431
2.68431
2.68432
2.68434
2.68435
2.68438
2.6844
2.68444
2.6845
2.68457
2.68468
2.74449
2.74438
2.7443
2.74425
2.74421
2.74418
2.74416
2.74414
2.74413
2.74412
2.74411
2.7441
2.7441
2.74409
2.74409
2.74409
2.74408
2.74408
2.74408
2.74408
2.74407
2.74407
2.74407
2.74407
2.74407
2.74407
2.74407
2.74407
2.74407
2.74407
2.74407
2.74407
2.74407
2.74407
2.74407
2.74407
2.74407
2.74407
2.74407
2.74407
2.74408
2.74408
2.74408
2.74408
2.74409
2.74409
2.74409
2.7441
2.7441
2.74411
2.74412
2.74413
2.74414
2.74416
2.74418
2.74421
2.74425
2.7443
2.74438
2.74449
2.80515
2.80505
2.80497
2.80492
2.80488
2.80485
2.80483
2.80481
2.8048
2.80479
2.80478
2.80477
2.80476
2.80476
2.80475
2.80475
2.80475
2.80475
2.80474
2.80474
2.80474
2.80474
2.80474
2.80474
2.80474
2.80473
2.80473
2.80473
2.80473
2.80473
2.80473
2.80473
2.80473
2.80473
2.80473
2.80474
2.80474
2.80474
2.80474
2.80474
2.80474
2.80474
2.80475
2.80475
2.80475
2.80475
2.80476
2.80476
2.80477
2.80478
2.80479
2.8048
2.80481
2.80483
2.80485
2.80488
2.80492
2.80497
2.80505
2.80515
2.86676
2.86666
2.86659
2.86653
2.86649
2.86647
2.86644
2.86643
2.86641
2.8664
2.86639
2.86639
2.86638
2.86637
2.86637
2.86637
2.86636
2.86636
2.86636
2.86636
2.86636
2.86635
2.86635
2.86635
2.86635
2.86635
2.86635
2.86635
2.86635
2.86635
2.86635
2.86635
2.86635
2.86635
2.86635
2.86635
2.86635
2.86635
2.86635
2.86636
2.86636
2.86636
2.86636
2.86636
2.86637
2.86637
2.86637
2.86638
2.86639
2.86639
2.8664
2.86641
2.86643
2.86644
2.86647
2.86649
2.86653
2.86659
2.86666
2.86676
2.92942
2.92932
2.92924
2.92919
2.92915
2.92912
2.9291
2.92908
2.92907
2.92906
2.92905
2.92904
2.92904
2.92903
2.92903
2.92902
2.92902
2.92902
2.92902
2.92901
2.92901
2.92901
2.92901
2.92901
2.92901
2.92901
2.92901
2.92901
2.92901
2.92901
2.92901
2.92901
2.92901
2.92901
2.92901
2.92901
2.92901
2.92901
2.92901
2.92901
2.92901
2.92902
2.92902
2.92902
2.92902
2.92903
2.92903
2.92904
2.92904
2.92905
2.92906
2.92907
2.92908
2.9291
2.92912
2.92915
2.92919
2.92924
2.92932
2.92942
2.9932
2.99311
2.99303
2.99298
2.99294
2.99291
2.99289
2.99287
2.99286
2.99285
2.99284
2.99283
2.99282
2.99282
2.99281
2.99281
2.99281
2.9928
2.9928
2.9928
2.9928
2.9928
2.9928
2.99279
2.99279
2.99279
2.99279
2.99279
2.99279
2.99279
2.99279
2.99279
2.99279
2.99279
2.99279
2.99279
2.99279
2.9928
2.9928
2.9928
2.9928
2.9928
2.9928
2.99281
2.99281
2.99281
2.99282
2.99282
2.99283
2.99284
2.99285
2.99286
2.99287
2.99289
2.99291
2.99294
2.99298
2.99303
2.99311
2.9932
3.0582
3.05811
3.05803
3.05798
3.05794
3.05791
3.05789
3.05787
3.05786
3.05785
3.05784
3.05783
3.05782
3.05782
3.05781
3.05781
3.05781
3.0578
3.0578
3.0578
3.0578
3.0578
3.0578
3.05779
3.05779
3.05779
3.05779
3.05779
3.05779
3.05779
3.05779
3.05779
3.05779
3.05779
3.05779
3.05779
3.05779
3.0578
3.0578
3.0578
3.0578
3.0578
3.0578
3.05781
3.05781
3.05781
3.05782
3.05782
3.05783
3.05784
3.05785
3.05786
3.05787
3.05789
3.05791
3.05794
3.05798
3.05803
3.05811
3.0582
3.1245
3.12441
3.12433
3.12428
3.12424
3.12421
3.12419
3.12417
3.12416
3.12415
3.12414
3.12413
3.12412
3.12412
3.12411
3.12411
3.12411
3.12411
3.1241
3.1241
3.1241
3.1241
3.1241
3.1241
3.12409
3.12409
3.12409
3.12409
3.12409
3.12409
3.12409
3.12409
3.12409
3.12409
3.12409
3.12409
3.1241
3.1241
3.1241
3.1241
3.1241
3.1241
3.12411
3.12411
3.12411
3.12411
3.12412
3.12412
3.12413
3.12414
3.12415
3.12416
3.12417
3.12419
3.12421
3.12424
3.12428
3.12433
3.12441
3.1245
3.19218
3.19209
3.19202
3.19197
3.19193
3.1919
3.19188
3.19186
3.19185
3.19183
3.19182
3.19182
3.19181
3.19181
3.1918
3.1918
3.19179
3.19179
3.19179
3.19179
3.19178
3.19178
3.19178
3.19178
3.19178
3.19178
3.19178
3.19178
3.19178
3.19178
3.19178
3.19178
3.19178
3.19178
3.19178
3.19178
3.19178
3.19178
3.19178
3.19178
3.19179
3.19179
3.19179
3.19179
3.1918
3.1918
3.19181
3.19181
3.19182
3.19182
3.19183
3.19185
3.19186
3.19188
3.1919
3.19193
3.19197
3.19202
3.19209
3.19218
3.26133
3.26125
3.26118
3.26112
3.26109
3.26106
3.26103
3.26102
3.261
3.26099
3.26098
3.26097
3.26097
3.26096
3.26096
3.26095
3.26095
3.26095
3.26094
3.26094
3.26094
3.26094
3.26094
3.26094
3.26093
3.26093
3.26093
3.26093
3.26093
3.26093
3.26093
3.26093
3.26093
3.26093
3.26093
3.26093
3.26094
3.26094
3.26094
3.26094
3.26094
3.26094
3.26095
3.26095
3.26095
3.26096
3.26096
3.26097
3.26097
3.26098
3.26099
3.261
3.26102
3.26103
3.26106
3.26109
3.26112
3.26118
3.26125
3.26133
3.33204
3.33196
3.33189
3.33183
3.33179
3.33176
3.33174
3.33172
3.33171
3.3317
3.33169
3.33168
3.33167
3.33167
3.33166
3.33166
3.33166
3.33165
3.33165
3.33165
3.33165
3.33165
3.33164
3.33164
3.33164
3.33164
3.33164
3.33164
3.33164
3.33164
3.33164
3.33164
3.33164
3.33164
3.33164
3.33164
3.33164
3.33164
3.33165
3.33165
3.33165
3.33165
3.33165
3.33166
3.33166
3.33166
3.33167
3.33167
3.33168
3.33169
3.3317
3.33171
3.33172
3.33174
3.33176
3.33179
3.33183
3.33189
3.33196
3.33204
3.40438
3.4043
3.40423
3.40418
3.40414
3.40411
3.40409
3.40407
3.40406
3.40404
3.40403
3.40403
3.40402
3.40401
3.40401
3.40401
3.404
3.404
3.404
3.40399
3.40399
3.40399
3.40399
3.40399
3.40399
3.40399
3.40399
3.40399
3.40399
3.40399
3.40399
3.40399
3.40399
3.40399
3.40399
3.40399
3.40399
3.40399
3.40399
3.40399
3.40399
3.404
3.404
3.404
3.40401
3.40401
3.40401
3.40402
3.40403
3.40403
3.40404
3.40406
3.40407
3.40409
3.40411
3.40414
3.40418
3.40423
3.4043
3.40438
3.47844
3.47836
3.4783
3.47825
3.47821
3.47818
3.47815
3.47814
3.47812
3.47811
3.4781
3.47809
3.47809
3.47808
3.47808
3.47807
3.47807
3.47806
3.47806
3.47806
3.47806
3.47806
3.47806
3.47805
3.47805
3.47805
3.47805
3.47805
3.47805
3.47805
3.47805
3.47805
3.47805
3.47805
3.47805
3.47805
3.47805
3.47806
3.47806
3.47806
3.47806
3.47806
3.47806
3.47807
3.47807
3.47808
3.47808
3.47809
3.47809
3.4781
3.47811
3.47812
3.47814
3.47815
3.47818
3.47821
3.47825
3.4783
3.47836
3.47844
3.55431
3.55424
3.55417
3.55412
3.55408
3.55405
3.55403
3.55401
3.55399
3.55398
3.55397
3.55396
3.55396
3.55395
3.55395
3.55394
3.55394
3.55394
3.55393
3.55393
3.55393
3.55393
3.55393
3.55393
3.55392
3.55392
3.55392
3.55392
3.55392
3.55392
3.55392
3.55392
3.55392
3.55392
3.55392
3.55392
3.55393
3.55393
3.55393
3.55393
3.55393
3.55393
3.55394
3.55394
3.55394
3.55395
3.55395
3.55396
3.55396
3.55397
3.55398
3.55399
3.55401
3.55403
3.55405
3.55408
3.55412
3.55417
3.55424
3.55431
3.63207
3.632
3.63193
3.63188
3.63184
3.63181
3.63179
3.63177
3.63176
3.63175
3.63174
3.63173
3.63172
3.63171
3.63171
3.63171
3.6317
3.6317
3.6317
3.63169
3.63169
3.63169
3.63169
3.63169
3.63169
3.63169
3.63169
3.63169
3.63169
3.63168
3.63168
3.63169
3.63169
3.63169
3.63169
3.63169
3.63169
3.63169
3.63169
3.63169
3.63169
3.6317
3.6317
3.6317
3.63171
3.63171
3.63171
3.63172
3.63173
3.63174
3.63175
3.63176
3.63177
3.63179
3.63181
3.63184
3.63188
3.63193
3.632
3.63207
3.7118
3.71173
3.71167
3.71162
3.71158
3.71155
3.71153
3.71151
3.7115
3.71148
3.71147
3.71147
3.71146
3.71145
3.71145
3.71144
3.71144
3.71144
3.71144
3.71143
3.71143
3.71143
3.71143
3.71143
3.71143
3.71143
3.71142
3.71142
3.71142
3.71142
3.71142
3.71142
3.71142
3.71142
3.71143
3.71143
3.71143
3.71143
3.71143
3.71143
3.71143
3.71144
3.71144
3.71144
3.71144
3.71145
3.71145
3.71146
3.71147
3.71147
3.71148
3.7115
3.71151
3.71153
3.71155
3.71158
3.71162
3.71167
3.71173
3.7118
3.7936
3.79353
3.79347
3.79342
3.79338
3.79336
3.79333
3.79331
3.7933
3.79329
3.79328
3.79327
3.79326
3.79326
3.79325
3.79325
3.79324
3.79324
3.79324
3.79323
3.79323
3.79323
3.79323
3.79323
3.79323
3.79323
3.79323
3.79323
3.79323
3.79322
3.79322
3.79323
3.79323
3.79323
3.79323
3.79323
3.79323
3.79323
3.79323
3.79323
3.79323
3.79324
3.79324
3.79324
3.79325
3.79325
3.79326
3.79326
3.79327
3.79328
3.79329
3.7933
3.79331
3.79333
3.79336
3.79338
3.79342
3.79347
3.79353
3.7936
3.87754
3.87748
3.87742
3.87737
3.87734
3.87731
3.87728
3.87727
3.87725
3.87724
3.87723
3.87722
3.87721
3.87721
3.8772
3.8772
3.87719
3.87719
3.87719
3.87719
3.87718
3.87718
3.87718
3.87718
3.87718
3.87718
3.87718
3.87718
3.87718
3.87718
3.87718
3.87718
3.87718
3.87718
3.87718
3.87718
3.87718
3.87718
3.87718
3.87718
3.87719
3.87719
3.87719
3.87719
3.8772
3.8772
3.87721
3.87721
3.87722
3.87723
3.87724
3.87725
3.87727
3.87728
3.87731
3.87734
3.87737
3.87742
3.87748
3.87754
3.96373
3.96367
3.96361
3.96356
3.96353
3.9635
3.96348
3.96346
3.96344
3.96343
3.96342
3.96341
3.9634
3.9634
3.96339
3.96339
3.96338
3.96338
3.96338
3.96338
3.96337
3.96337
3.96337
3.96337
3.96337
3.96337
3.96337
3.96337
3.96337
3.96337
3.96337
3.96337
3.96337
3.96337
3.96337
3.96337
3.96337
3.96337
3.96337
3.96337
3.96338
3.96338
3.96338
3.96338
3.96339
3.96339
3.9634
3.9634
3.96341
3.96342
3.96343
3.96344
3.96346
3.96348
3.9635
3.96353
3.96356
3.96361
3.96367
3.96373
4.05224
4.05219
4.05213
4.05208
4.05205
4.05202
4.05199
4.05198
4.05196
4.05195
4.05194
4.05193
4.05192
4.05192
4.05191
4.05191
4.0519
4.0519
4.0519
4.0519
4.05189
4.05189
4.05189
4.05189
4.05189
4.05189
4.05189
4.05189
4.05189
4.05189
4.05189
4.05189
4.05189
4.05189
4.05189
4.05189
4.05189
4.05189
4.05189
4.05189
4.0519
4.0519
4.0519
4.0519
4.05191
4.05191
4.05192
4.05192
4.05193
4.05194
4.05195
4.05196
4.05198
4.05199
4.05202
4.05205
4.05208
4.05213
4.05219
4.05224
4.14318
4.14312
4.14307
4.14302
4.14298
4.14296
4.14293
4.14291
4.1429
4.14289
4.14288
4.14287
4.14286
4.14285
4.14285
4.14284
4.14284
4.14284
4.14284
4.14283
4.14283
4.14283
4.14283
4.14283
4.14283
4.14282
4.14282
4.14282
4.14282
4.14282
4.14282
4.14282
4.14282
4.14282
4.14282
4.14283
4.14283
4.14283
4.14283
4.14283
4.14283
4.14284
4.14284
4.14284
4.14284
4.14285
4.14285
4.14286
4.14287
4.14288
4.14289
4.1429
4.14291
4.14293
4.14296
4.14298
4.14302
4.14307
4.14312
4.14318
4.23662
4.23657
4.23651
4.23647
4.23643
4.23641
4.23638
4.23636
4.23635
4.23634
4.23633
4.23632
4.23631
4.2363
4.2363
4.23629
4.23629
4.23629
4.23628
4.23628
4.23628
4.23628
4.23628
4.23627
4.23627
4.23627
4.23627
4.23627
4.23627
4.23627
4.23627
4.23627
4.23627
4.23627
4.23627
4.23627
4.23627
4.23628
4.23628
4.23628
4.23628
4.23628
4.23629
4.23629
4.23629
4.2363
4.2363
4.23631
4.23632
4.23633
4.23634
4.23635
4.23636
4.23638
4.23641
4.23643
4.23647
4.23651
4.23657
4.23662
4.33267
4.33262
4.33257
4.33252
4.33249
4.33246
4.33244
4.33242
4.3324
4.33239
4.33238
4.33237
4.33236
4.33236
4.33235
4.33235
4.33234
4.33234
4.33234
4.33234
4.33233
4.33233
4.33233
4.33233
4.33233
4.33233
4.33233
4.33233
4.33233
4.33233
4.33233
4.33233
4.33233
4.33233
4.33233
4.33233
4.33233
4.33233
4.33233
4.33233
4.33234
4.33234
4.33234
4.33234
4.33235
4.33235
4.33236
4.33236
4.33237
4.33238
4.33239
4.3324
4.33242
4.33244
4.33246
4.33249
4.33252
4.33257
4.33262
4.33267
4.43141
4.43137
4.43132
4.43128
4.43124
4.43121
4.43119
4.43117
4.43116
4.43115
4.43113
4.43113
4.43112
4.43111
4.43111
4.4311
4.4311
4.43109
4.43109
4.43109
4.43109
4.43109
4.43108
4.43108
4.43108
4.43108
4.43108
4.43108
4.43108
4.43108
4.43108
4.43108
4.43108
4.43108
4.43108
4.43108
4.43108
4.43108
4.43109
4.43109
4.43109
4.43109
4.43109
4.4311
4.4311
4.43111
4.43111
4.43112
4.43113
4.43113
4.43115
4.43116
4.43117
4.43119
4.43121
4.43124
4.43128
4.43132
4.43137
4.43141
4.53296
4.53292
4.53287
4.53283
4.53279
4.53277
4.53274
4.53272
4.53271
4.5327
4.53269
4.53268
4.53267
4.53266
4.53266
4.53265
4.53265
4.53265
4.53264
4.53264
4.53264
4.53264
4.53264
4.53263
4.53263
4.53263
4.53263
4.53263
4.53263
4.53263
4.53263
4.53263
4.53263
4.53263
4.53263
4.53263
4.53263
4.53264
4.53264
4.53264
4.53264
4.53264
4.53265
4.53265
4.53265
4.53266
4.53266
4.53267
4.53268
4.53269
4.5327
4.53271
4.53272
4.53274
4.53277
4.53279
4.53283
4.53287
4.53292
4.53296
4.6374
4.63736
4.63732
4.63727
4.63724
4.63721
4.63719
4.63717
4.63716
4.63714
4.63713
4.63713
4.63712
4.63711
4.63711
4.6371
4.6371
4.63709
4.63709
4.63709
4.63709
4.63708
4.63708
4.63708
4.63708
4.63708
4.63708
4.63708
4.63708
4.63708
4.63708
4.63708
4.63708
4.63708
4.63708
4.63708
4.63708
4.63708
4.63708
4.63709
4.63709
4.63709
4.63709
4.6371
4.6371
4.63711
4.63711
4.63712
4.63713
4.63713
4.63714
4.63716
4.63717
4.63719
4.63721
4.63724
4.63727
4.63732
4.63736
4.6374
4.74484
4.7448
4.74476
4.74472
4.74468
4.74466
4.74464
4.74462
4.7446
4.74459
4.74458
4.74457
4.74456
4.74456
4.74455
4.74455
4.74454
4.74454
4.74453
4.74453
4.74453
4.74453
4.74453
4.74452
4.74452
4.74452
4.74452
4.74452
4.74452
4.74452
4.74452
4.74452
4.74452
4.74452
4.74452
4.74452
4.74452
4.74453
4.74453
4.74453
4.74453
4.74453
4.74454
4.74454
4.74455
4.74455
4.74456
4.74456
4.74457
4.74458
4.74459
4.7446
4.74462
4.74464
4.74466
4.74468
4.74472
4.74476
4.7448
4.74484
4.85538
4.85534
4.8553
4.85526
4.85523
4.8552
4.85518
4.85516
4.85515
4.85513
4.85512
4.85511
4.85511
4.8551
4.85509
4.85509
4.85508
4.85508
4.85508
4.85508
4.85507
4.85507
4.85507
4.85507
4.85507
4.85507
4.85507
4.85506
4.85506
4.85506
4.85506
4.85506
4.85506
4.85507
4.85507
4.85507
4.85507
4.85507
4.85507
4.85507
4.85508
4.85508
4.85508
4.85508
4.85509
4.85509
4.8551
4.85511
4.85511
4.85512
4.85513
4.85515
4.85516
4.85518
4.8552
4.85523
4.85526
4.8553
4.85534
4.85538
4.96912
4.96908
4.96904
4.96901
4.96897
4.96895
4.96893
4.96891
4.96889
4.96888
4.96887
4.96886
4.96885
4.96885
4.96884
4.96884
4.96883
4.96883
4.96883
4.96882
4.96882
4.96882
4.96882
4.96882
4.96881
4.96881
4.96881
4.96881
4.96881
4.96881
4.96881
4.96881
4.96881
4.96881
4.96881
4.96881
4.96882
4.96882
4.96882
4.96882
4.96882
4.96883
4.96883
4.96883
4.96884
4.96884
4.96885
4.96885
4.96886
4.96887
4.96888
4.96889
4.96891
4.96893
4.96895
4.96897
4.96901
4.96904
4.96908
4.96912
5.08617
5.08614
5.0861
5.08606
5.08603
5.08601
5.08598
5.08597
5.08595
5.08594
5.08593
5.08592
5.08591
5.08591
5.0859
5.08589
5.08589
5.08589
5.08588
5.08588
5.08588
5.08588
5.08588
5.08587
5.08587
5.08587
5.08587
5.08587
5.08587
5.08587
5.08587
5.08587
5.08587
5.08587
5.08587
5.08587
5.08587
5.08588
5.08588
5.08588
5.08588
5.08588
5.08589
5.08589
5.08589
5.0859
5.08591
5.08591
5.08592
5.08593
5.08594
5.08595
5.08597
5.08598
5.08601
5.08603
5.08606
5.0861
5.08614
5.08617
5.20664
5.20661
5.20658
5.20654
5.20651
5.20649
5.20646
5.20645
5.20643
5.20642
5.20641
5.2064
5.20639
5.20638
5.20638
5.20637
5.20637
5.20637
5.20636
5.20636
5.20636
5.20636
5.20635
5.20635
5.20635
5.20635
5.20635
5.20635
5.20635
5.20635
5.20635
5.20635
5.20635
5.20635
5.20635
5.20635
5.20635
5.20635
5.20636
5.20636
5.20636
5.20636
5.20637
5.20637
5.20637
5.20638
5.20638
5.20639
5.2064
5.20641
5.20642
5.20643
5.20645
5.20646
5.20649
5.20651
5.20654
5.20658
5.20661
5.20664
5.33065
5.33062
5.33058
5.33055
5.33052
5.3305
5.33048
5.33046
5.33044
5.33043
5.33042
5.33041
5.3304
5.3304
5.33039
5.33039
5.33038
5.33038
5.33037
5.33037
5.33037
5.33037
5.33037
5.33036
5.33036
5.33036
5.33036
5.33036
5.33036
5.33036
5.33036
5.33036
5.33036
5.33036
5.33036
5.33036
5.33036
5.33037
5.33037
5.33037
5.33037
5.33037
5.33038
5.33038
5.33039
5.33039
5.3304
5.3304
5.33041
5.33042
5.33043
5.33044
5.33046
5.33048
5.3305
5.33052
5.33055
5.33058
5.33062
5.33065
5.4583
5.45827
5.45824
5.45821
5.45818
5.45816
5.45813
5.45812
5.4581
5.45809
5.45808
5.45807
5.45806
5.45806
5.45805
5.45805
5.45804
5.45804
5.45803
5.45803
5.45803
5.45803
5.45802
5.45802
5.45802
5.45802
5.45802
5.45802
5.45802
5.45802
5.45802
5.45802
5.45802
5.45802
5.45802
5.45802
5.45802
5.45802
5.45803
5.45803
5.45803
5.45803
5.45804
5.45804
5.45805
5.45805
5.45806
5.45806
5.45807
5.45808
5.45809
5.4581
5.45812
5.45813
5.45816
5.45818
5.45821
5.45824
5.45827
5.4583
5.58971
5.58969
5.58966
5.58963
5.5896
5.58958
5.58956
5.58954
5.58953
5.58951
5.5895
5.58949
5.58949
5.58948
5.58947
5.58947
5.58946
5.58946
5.58946
5.58945
5.58945
5.58945
5.58945
5.58945
5.58945
5.58944
5.58944
5.58944
5.58944
5.58944
5.58944
5.58944
5.58944
5.58944
5.58944
5.58945
5.58945
5.58945
5.58945
5.58945
5.58945
5.58946
5.58946
5.58946
5.58947
5.58947
5.58948
5.58949
5.58949
5.5895
5.58951
5.58953
5.58954
5.58956
5.58958
5.5896
5.58963
5.58966
5.58969
5.58971
5.72502
5.72499
5.72496
5.72493
5.72491
5.72489
5.72487
5.72485
5.72483
5.72482
5.72481
5.7248
5.72479
5.72479
5.72478
5.72478
5.72477
5.72477
5.72476
5.72476
5.72476
5.72476
5.72476
5.72475
5.72475
5.72475
5.72475
5.72475
5.72475
5.72475
5.72475
5.72475
5.72475
5.72475
5.72475
5.72475
5.72475
5.72476
5.72476
5.72476
5.72476
5.72476
5.72477
5.72477
5.72478
5.72478
5.72479
5.72479
5.7248
5.72481
5.72482
5.72483
5.72485
5.72487
5.72489
5.72491
5.72493
5.72496