/*--------------------------------*- C++ -*----------------------------------*\
| =========                 |                                                 |
| \\      /  F ield         | foam-extend: Open Source CFD                    |
|  \\    /   O peration     | Version:     4.0                                |
|   \\  /    A nd           | Web:         http://www.foam-extend.org         |
|    \\/     M anipulation  |                                                 |
\*---------------------------------------------------------------------------*/
FoamFile
{
    version     2.0;
    format      ascii;
    class       volScalarField;
    location    "1720";
    object      cMinus;
}
// * * * * * * * * * * * * * * * * * * * * * * * * * * * * * * * * * * * * * //

dimensions      [0 0 0 0 0 0 0];

internalField   nonuniform List<scalar> 
6960
(
8.50862e-23
8.51008e-23
8.50473e-23
8.49902e-23
8.49391e-23
8.48956e-23
8.48591e-23
8.4829e-23
8.48042e-23
8.47839e-23
8.47672e-23
8.47536e-23
8.47424e-23
8.47332e-23
8.47257e-23
8.47195e-23
8.47144e-23
8.47101e-23
8.47066e-23
8.47037e-23
8.47013e-23
8.46993e-23
8.46977e-23
8.46964e-23
8.46954e-23
8.46945e-23
8.46939e-23
8.46935e-23
8.46932e-23
8.4693e-23
8.4693e-23
8.46932e-23
8.46935e-23
8.46939e-23
8.46945e-23
8.46954e-23
8.46964e-23
8.46977e-23
8.46993e-23
8.47013e-23
8.47037e-23
8.47066e-23
8.47101e-23
8.47144e-23
8.47195e-23
8.47257e-23
8.47332e-23
8.47424e-23
8.47536e-23
8.47672e-23
8.47839e-23
8.48042e-23
8.4829e-23
8.48591e-23
8.48956e-23
8.49391e-23
8.49902e-23
8.50473e-23
8.51008e-23
8.50862e-23
3.18529e-22
3.18631e-22
3.1848e-22
3.1831e-22
3.18155e-22
3.18021e-22
3.17908e-22
3.17813e-22
3.17734e-22
3.17668e-22
3.17614e-22
3.1757e-22
3.17533e-22
3.17502e-22
3.17476e-22
3.17455e-22
3.17438e-22
3.17423e-22
3.17411e-22
3.17401e-22
3.17393e-22
3.17386e-22
3.1738e-22
3.17376e-22
3.17372e-22
3.17369e-22
3.17367e-22
3.17365e-22
3.17364e-22
3.17364e-22
3.17364e-22
3.17364e-22
3.17365e-22
3.17367e-22
3.17369e-22
3.17372e-22
3.17376e-22
3.1738e-22
3.17386e-22
3.17393e-22
3.17401e-22
3.17411e-22
3.17423e-22
3.17438e-22
3.17455e-22
3.17476e-22
3.17502e-22
3.17533e-22
3.1757e-22
3.17614e-22
3.17668e-22
3.17734e-22
3.17813e-22
3.17908e-22
3.18021e-22
3.18155e-22
3.1831e-22
3.1848e-22
3.18631e-22
3.18529e-22
1.09929e-21
1.09983e-21
1.09952e-21
1.09911e-21
1.09872e-21
1.09837e-21
1.09808e-21
1.09782e-21
1.09761e-21
1.09742e-21
1.09727e-21
1.09714e-21
1.09703e-21
1.09694e-21
1.09687e-21
1.0968e-21
1.09675e-21
1.0967e-21
1.09667e-21
1.09663e-21
1.09661e-21
1.09659e-21
1.09657e-21
1.09655e-21
1.09654e-21
1.09653e-21
1.09652e-21
1.09652e-21
1.09652e-21
1.09651e-21
1.09651e-21
1.09652e-21
1.09652e-21
1.09652e-21
1.09653e-21
1.09654e-21
1.09655e-21
1.09657e-21
1.09659e-21
1.09661e-21
1.09663e-21
1.09667e-21
1.0967e-21
1.09675e-21
1.0968e-21
1.09687e-21
1.09694e-21
1.09703e-21
1.09714e-21
1.09727e-21
1.09742e-21
1.09761e-21
1.09782e-21
1.09808e-21
1.09837e-21
1.09872e-21
1.09911e-21
1.09952e-21
1.09983e-21
1.09929e-21
3.785e-21
3.78758e-21
3.78725e-21
3.78651e-21
3.78573e-21
3.78499e-21
3.78432e-21
3.78372e-21
3.78319e-21
3.78273e-21
3.78232e-21
3.78198e-21
3.78168e-21
3.78142e-21
3.7812e-21
3.78101e-21
3.78086e-21
3.78072e-21
3.78061e-21
3.78051e-21
3.78043e-21
3.78036e-21
3.7803e-21
3.78026e-21
3.78022e-21
3.78019e-21
3.78017e-21
3.78015e-21
3.78014e-21
3.78014e-21
3.78014e-21
3.78014e-21
3.78015e-21
3.78017e-21
3.78019e-21
3.78022e-21
3.78026e-21
3.7803e-21
3.78036e-21
3.78043e-21
3.78051e-21
3.78061e-21
3.78072e-21
3.78086e-21
3.78101e-21
3.7812e-21
3.78142e-21
3.78168e-21
3.78198e-21
3.78232e-21
3.78273e-21
3.78319e-21
3.78372e-21
3.78432e-21
3.78499e-21
3.78573e-21
3.78651e-21
3.78725e-21
3.78758e-21
3.785e-21
1.3302e-20
1.33137e-20
1.33153e-20
1.33152e-20
1.33146e-20
1.33136e-20
1.33126e-20
1.33115e-20
1.33104e-20
1.33094e-20
1.33085e-20
1.33076e-20
1.33068e-20
1.33061e-20
1.33055e-20
1.3305e-20
1.33045e-20
1.33041e-20
1.33038e-20
1.33035e-20
1.33032e-20
1.3303e-20
1.33029e-20
1.33027e-20
1.33026e-20
1.33025e-20
1.33024e-20
1.33024e-20
1.33023e-20
1.33023e-20
1.33023e-20
1.33023e-20
1.33024e-20
1.33024e-20
1.33025e-20
1.33026e-20
1.33027e-20
1.33029e-20
1.3303e-20
1.33032e-20
1.33035e-20
1.33038e-20
1.33041e-20
1.33045e-20
1.3305e-20
1.33055e-20
1.33061e-20
1.33068e-20
1.33076e-20
1.33085e-20
1.33094e-20
1.33104e-20
1.33115e-20
1.33126e-20
1.33136e-20
1.33146e-20
1.33152e-20
1.33153e-20
1.33137e-20
1.3302e-20
4.80517e-20
4.81036e-20
4.81201e-20
4.8129e-20
4.81343e-20
4.81371e-20
4.81382e-20
4.81382e-20
4.81373e-20
4.81359e-20
4.81343e-20
4.81325e-20
4.81307e-20
4.8129e-20
4.81274e-20
4.81259e-20
4.81246e-20
4.81235e-20
4.81224e-20
4.81215e-20
4.81208e-20
4.81201e-20
4.81196e-20
4.81191e-20
4.81187e-20
4.81184e-20
4.81182e-20
4.8118e-20
4.81179e-20
4.81178e-20
4.81178e-20
4.81179e-20
4.8118e-20
4.81182e-20
4.81184e-20
4.81187e-20
4.81191e-20
4.81196e-20
4.81201e-20
4.81208e-20
4.81215e-20
4.81224e-20
4.81235e-20
4.81246e-20
4.81259e-20
4.81274e-20
4.8129e-20
4.81307e-20
4.81325e-20
4.81343e-20
4.81359e-20
4.81373e-20
4.81382e-20
4.81382e-20
4.81371e-20
4.81343e-20
4.8129e-20
4.81201e-20
4.81036e-20
4.80517e-20
1.78806e-19
1.79036e-19
1.79138e-19
1.79207e-19
1.79256e-19
1.7929e-19
1.79313e-19
1.79327e-19
1.79335e-19
1.79339e-19
1.7934e-19
1.79338e-19
1.79336e-19
1.79332e-19
1.79329e-19
1.79325e-19
1.79321e-19
1.79318e-19
1.79315e-19
1.79312e-19
1.7931e-19
1.79308e-19
1.79306e-19
1.79305e-19
1.79304e-19
1.79303e-19
1.79302e-19
1.79301e-19
1.79301e-19
1.79301e-19
1.79301e-19
1.79301e-19
1.79301e-19
1.79302e-19
1.79303e-19
1.79304e-19
1.79305e-19
1.79306e-19
1.79308e-19
1.7931e-19
1.79312e-19
1.79315e-19
1.79318e-19
1.79321e-19
1.79325e-19
1.79329e-19
1.79332e-19
1.79336e-19
1.79338e-19
1.7934e-19
1.79339e-19
1.79335e-19
1.79327e-19
1.79313e-19
1.7929e-19
1.79256e-19
1.79207e-19
1.79138e-19
1.79036e-19
1.78806e-19
6.85826e-19
6.86854e-19
6.874e-19
6.87803e-19
6.88107e-19
6.88331e-19
6.88493e-19
6.88606e-19
6.88682e-19
6.88731e-19
6.8876e-19
6.88774e-19
6.8878e-19
6.88779e-19
6.88774e-19
6.88767e-19
6.88759e-19
6.88751e-19
6.88743e-19
6.88735e-19
6.88728e-19
6.88722e-19
6.88716e-19
6.88712e-19
6.88708e-19
6.88705e-19
6.88702e-19
6.887e-19
6.88699e-19
6.88698e-19
6.88698e-19
6.88699e-19
6.887e-19
6.88702e-19
6.88705e-19
6.88708e-19
6.88712e-19
6.88716e-19
6.88722e-19
6.88728e-19
6.88735e-19
6.88743e-19
6.88751e-19
6.88759e-19
6.88767e-19
6.88774e-19
6.88779e-19
6.8878e-19
6.88774e-19
6.8876e-19
6.88731e-19
6.88682e-19
6.88606e-19
6.88493e-19
6.88331e-19
6.88107e-19
6.87803e-19
6.874e-19
6.86854e-19
6.85826e-19
2.71168e-18
2.71632e-18
2.71912e-18
2.72127e-18
2.72294e-18
2.7242e-18
2.72514e-18
2.72582e-18
2.7263e-18
2.72663e-18
2.72685e-18
2.727e-18
2.72708e-18
2.72712e-18
2.72714e-18
2.72714e-18
2.72714e-18
2.72712e-18
2.7271e-18
2.72708e-18
2.72706e-18
2.72704e-18
2.72703e-18
2.72701e-18
2.727e-18
2.72699e-18
2.72698e-18
2.72697e-18
2.72697e-18
2.72697e-18
2.72697e-18
2.72697e-18
2.72697e-18
2.72698e-18
2.72699e-18
2.727e-18
2.72701e-18
2.72703e-18
2.72704e-18
2.72706e-18
2.72708e-18
2.7271e-18
2.72712e-18
2.72714e-18
2.72714e-18
2.72714e-18
2.72712e-18
2.72708e-18
2.727e-18
2.72685e-18
2.72663e-18
2.7263e-18
2.72582e-18
2.72514e-18
2.7242e-18
2.72294e-18
2.72127e-18
2.71912e-18
2.71632e-18
2.71168e-18
1.10501e-17
1.10714e-17
1.10854e-17
1.10965e-17
1.11053e-17
1.1112e-17
1.1117e-17
1.11208e-17
1.11235e-17
1.11254e-17
1.11268e-17
1.11277e-17
1.11283e-17
1.11287e-17
1.11289e-17
1.1129e-17
1.11291e-17
1.11291e-17
1.11291e-17
1.1129e-17
1.1129e-17
1.11289e-17
1.11289e-17
1.11289e-17
1.11288e-17
1.11288e-17
1.11288e-17
1.11287e-17
1.11287e-17
1.11287e-17
1.11287e-17
1.11287e-17
1.11287e-17
1.11288e-17
1.11288e-17
1.11288e-17
1.11289e-17
1.11289e-17
1.11289e-17
1.1129e-17
1.1129e-17
1.11291e-17
1.11291e-17
1.11291e-17
1.1129e-17
1.11289e-17
1.11287e-17
1.11283e-17
1.11277e-17
1.11268e-17
1.11254e-17
1.11235e-17
1.11208e-17
1.1117e-17
1.1112e-17
1.11053e-17
1.10965e-17
1.10854e-17
1.10714e-17
1.10501e-17
4.63887e-17
4.64882e-17
4.65581e-17
4.66147e-17
4.66595e-17
4.66944e-17
4.67209e-17
4.67408e-17
4.67554e-17
4.6766e-17
4.67735e-17
4.67788e-17
4.67825e-17
4.6785e-17
4.67866e-17
4.67876e-17
4.67883e-17
4.67886e-17
4.67888e-17
4.67888e-17
4.67887e-17
4.67886e-17
4.67885e-17
4.67884e-17
4.67883e-17
4.67882e-17
4.67881e-17
4.67881e-17
4.6788e-17
4.6788e-17
4.6788e-17
4.6788e-17
4.67881e-17
4.67881e-17
4.67882e-17
4.67883e-17
4.67884e-17
4.67885e-17
4.67886e-17
4.67887e-17
4.67888e-17
4.67888e-17
4.67886e-17
4.67883e-17
4.67876e-17
4.67866e-17
4.6785e-17
4.67825e-17
4.67788e-17
4.67735e-17
4.6766e-17
4.67554e-17
4.67408e-17
4.67209e-17
4.66944e-17
4.66595e-17
4.66147e-17
4.65581e-17
4.64882e-17
4.63887e-17
2.00484e-16
2.00957e-16
2.01308e-16
2.01596e-16
2.01826e-16
2.02006e-16
2.02143e-16
2.02247e-16
2.02325e-16
2.02381e-16
2.02422e-16
2.02452e-16
2.02472e-16
2.02487e-16
2.02497e-16
2.02503e-16
2.02508e-16
2.02511e-16
2.02512e-16
2.02513e-16
2.02514e-16
2.02514e-16
2.02514e-16
2.02514e-16
2.02513e-16
2.02513e-16
2.02513e-16
2.02513e-16
2.02513e-16
2.02513e-16
2.02513e-16
2.02513e-16
2.02513e-16
2.02513e-16
2.02513e-16
2.02513e-16
2.02514e-16
2.02514e-16
2.02514e-16
2.02514e-16
2.02513e-16
2.02512e-16
2.02511e-16
2.02508e-16
2.02503e-16
2.02497e-16
2.02487e-16
2.02472e-16
2.02452e-16
2.02422e-16
2.02381e-16
2.02325e-16
2.02247e-16
2.02143e-16
2.02006e-16
2.01826e-16
2.01596e-16
2.01308e-16
2.00957e-16
2.00484e-16
8.91151e-16
8.93452e-16
8.9523e-16
8.96702e-16
8.97885e-16
8.98815e-16
8.9953e-16
9.00073e-16
9.0048e-16
9.0078e-16
9.01e-16
9.01159e-16
9.01274e-16
9.01355e-16
9.01412e-16
9.01452e-16
9.0148e-16
9.01498e-16
9.0151e-16
9.01518e-16
9.01523e-16
9.01526e-16
9.01528e-16
9.01528e-16
9.01528e-16
9.01528e-16
9.01528e-16
9.01528e-16
9.01527e-16
9.01527e-16
9.01527e-16
9.01527e-16
9.01528e-16
9.01528e-16
9.01528e-16
9.01528e-16
9.01528e-16
9.01528e-16
9.01526e-16
9.01523e-16
9.01518e-16
9.0151e-16
9.01498e-16
9.0148e-16
9.01452e-16
9.01412e-16
9.01355e-16
9.01274e-16
9.01159e-16
9.01e-16
9.0078e-16
9.0048e-16
9.00073e-16
8.9953e-16
8.98815e-16
8.97885e-16
8.96702e-16
8.9523e-16
8.93452e-16
8.91151e-16
4.06884e-15
4.08024e-15
4.08935e-15
4.09696e-15
4.1031e-15
4.10794e-15
4.11168e-15
4.11453e-15
4.11668e-15
4.11827e-15
4.11945e-15
4.12031e-15
4.12093e-15
4.12138e-15
4.1217e-15
4.12193e-15
4.12209e-15
4.1222e-15
4.12228e-15
4.12234e-15
4.12237e-15
4.12239e-15
4.12241e-15
4.12242e-15
4.12242e-15
4.12243e-15
4.12243e-15
4.12243e-15
4.12243e-15
4.12243e-15
4.12243e-15
4.12243e-15
4.12243e-15
4.12243e-15
4.12243e-15
4.12242e-15
4.12242e-15
4.12241e-15
4.12239e-15
4.12237e-15
4.12234e-15
4.12228e-15
4.1222e-15
4.12209e-15
4.12193e-15
4.1217e-15
4.12138e-15
4.12093e-15
4.12031e-15
4.11945e-15
4.11827e-15
4.11668e-15
4.11453e-15
4.11168e-15
4.10794e-15
4.1031e-15
4.09696e-15
4.08935e-15
4.08024e-15
4.06884e-15
1.90507e-14
1.91083e-14
1.91556e-14
1.91953e-14
1.92275e-14
1.9253e-14
1.92727e-14
1.92878e-14
1.92992e-14
1.93077e-14
1.9314e-14
1.93186e-14
1.9322e-14
1.93245e-14
1.93263e-14
1.93276e-14
1.93285e-14
1.93292e-14
1.93296e-14
1.933e-14
1.93302e-14
1.93304e-14
1.93305e-14
1.93305e-14
1.93306e-14
1.93306e-14
1.93306e-14
1.93306e-14
1.93307e-14
1.93307e-14
1.93307e-14
1.93307e-14
1.93306e-14
1.93306e-14
1.93306e-14
1.93306e-14
1.93305e-14
1.93305e-14
1.93304e-14
1.93302e-14
1.933e-14
1.93296e-14
1.93292e-14
1.93285e-14
1.93276e-14
1.93263e-14
1.93245e-14
1.9322e-14
1.93186e-14
1.9314e-14
1.93077e-14
1.92992e-14
1.92878e-14
1.92727e-14
1.9253e-14
1.92275e-14
1.91953e-14
1.91556e-14
1.91083e-14
1.90507e-14
9.12761e-14
9.15713e-14
9.182e-14
9.20301e-14
9.22007e-14
9.23358e-14
9.24408e-14
9.25213e-14
9.25823e-14
9.26281e-14
9.26621e-14
9.26873e-14
9.27058e-14
9.27194e-14
9.27293e-14
9.27365e-14
9.27418e-14
9.27456e-14
9.27483e-14
9.27503e-14
9.27517e-14
9.27527e-14
9.27534e-14
9.27539e-14
9.27542e-14
9.27545e-14
9.27546e-14
9.27547e-14
9.27548e-14
9.27548e-14
9.27548e-14
9.27548e-14
9.27547e-14
9.27546e-14
9.27545e-14
9.27542e-14
9.27539e-14
9.27534e-14
9.27527e-14
9.27517e-14
9.27503e-14
9.27483e-14
9.27456e-14
9.27418e-14
9.27365e-14
9.27293e-14
9.27194e-14
9.27058e-14
9.26873e-14
9.26621e-14
9.26281e-14
9.25823e-14
9.25213e-14
9.24408e-14
9.23358e-14
9.22007e-14
9.20301e-14
9.182e-14
9.15713e-14
9.12761e-14
4.46341e-13
4.47879e-13
4.492e-13
4.50321e-13
4.51234e-13
4.51957e-13
4.52522e-13
4.52955e-13
4.53284e-13
4.53531e-13
4.53716e-13
4.53854e-13
4.53955e-13
4.5403e-13
4.54085e-13
4.54125e-13
4.54155e-13
4.54176e-13
4.54192e-13
4.54203e-13
4.54212e-13
4.54218e-13
4.54222e-13
4.54225e-13
4.54228e-13
4.54229e-13
4.5423e-13
4.54231e-13
4.54231e-13
4.54232e-13
4.54232e-13
4.54231e-13
4.54231e-13
4.5423e-13
4.54229e-13
4.54228e-13
4.54225e-13
4.54222e-13
4.54218e-13
4.54212e-13
4.54203e-13
4.54192e-13
4.54176e-13
4.54155e-13
4.54125e-13
4.54085e-13
4.5403e-13
4.53955e-13
4.53854e-13
4.53716e-13
4.53531e-13
4.53284e-13
4.52955e-13
4.52522e-13
4.51957e-13
4.51234e-13
4.50321e-13
4.492e-13
4.47879e-13
4.46341e-13
2.22048e-12
2.22859e-12
2.23567e-12
2.2417e-12
2.24661e-12
2.25052e-12
2.25357e-12
2.25591e-12
2.2577e-12
2.25905e-12
2.26006e-12
2.26081e-12
2.26137e-12
2.26178e-12
2.26208e-12
2.26231e-12
2.26247e-12
2.26259e-12
2.26268e-12
2.26275e-12
2.2628e-12
2.26283e-12
2.26286e-12
2.26288e-12
2.26289e-12
2.2629e-12
2.26291e-12
2.26292e-12
2.26292e-12
2.26292e-12
2.26292e-12
2.26292e-12
2.26292e-12
2.26291e-12
2.2629e-12
2.26289e-12
2.26288e-12
2.26286e-12
2.26283e-12
2.2628e-12
2.26275e-12
2.26268e-12
2.26259e-12
2.26247e-12
2.26231e-12
2.26208e-12
2.26178e-12
2.26137e-12
2.26081e-12
2.26006e-12
2.25905e-12
2.2577e-12
2.25591e-12
2.25357e-12
2.25052e-12
2.24661e-12
2.2417e-12
2.23567e-12
2.22859e-12
2.22048e-12
1.11948e-11
1.12379e-11
1.12761e-11
1.13087e-11
1.13353e-11
1.13564e-11
1.1373e-11
1.13857e-11
1.13954e-11
1.14028e-11
1.14083e-11
1.14124e-11
1.14155e-11
1.14178e-11
1.14194e-11
1.14207e-11
1.14216e-11
1.14223e-11
1.14228e-11
1.14232e-11
1.14235e-11
1.14237e-11
1.14238e-11
1.1424e-11
1.1424e-11
1.14241e-11
1.14241e-11
1.14242e-11
1.14242e-11
1.14242e-11
1.14242e-11
1.14242e-11
1.14242e-11
1.14241e-11
1.14241e-11
1.1424e-11
1.1424e-11
1.14238e-11
1.14237e-11
1.14235e-11
1.14232e-11
1.14228e-11
1.14223e-11
1.14216e-11
1.14207e-11
1.14194e-11
1.14178e-11
1.14155e-11
1.14124e-11
1.14083e-11
1.14028e-11
1.13954e-11
1.13857e-11
1.1373e-11
1.13564e-11
1.13353e-11
1.13087e-11
1.12761e-11
1.12379e-11
1.11948e-11
5.69356e-11
5.71652e-11
5.7371e-11
5.7547e-11
5.7691e-11
5.78056e-11
5.78953e-11
5.79646e-11
5.80174e-11
5.80575e-11
5.80876e-11
5.81101e-11
5.81269e-11
5.81395e-11
5.81488e-11
5.81557e-11
5.81609e-11
5.81647e-11
5.81676e-11
5.81697e-11
5.81713e-11
5.81725e-11
5.81734e-11
5.81741e-11
5.81745e-11
5.81749e-11
5.81752e-11
5.81753e-11
5.81755e-11
5.81755e-11
5.81755e-11
5.81755e-11
5.81753e-11
5.81752e-11
5.81749e-11
5.81745e-11
5.81741e-11
5.81734e-11
5.81725e-11
5.81713e-11
5.81697e-11
5.81676e-11
5.81647e-11
5.81609e-11
5.81557e-11
5.81488e-11
5.81395e-11
5.81269e-11
5.81101e-11
5.80876e-11
5.80575e-11
5.80174e-11
5.79646e-11
5.78953e-11
5.78056e-11
5.7691e-11
5.7547e-11
5.7371e-11
5.71652e-11
5.69356e-11
2.90533e-10
2.91754e-10
2.9286e-10
2.93806e-10
2.94581e-10
2.95199e-10
2.95683e-10
2.96057e-10
2.96342e-10
2.96559e-10
2.96722e-10
2.96845e-10
2.96937e-10
2.97005e-10
2.97056e-10
2.97094e-10
2.97123e-10
2.97144e-10
2.9716e-10
2.97172e-10
2.97181e-10
2.97187e-10
2.97192e-10
2.97196e-10
2.97199e-10
2.97201e-10
2.97203e-10
2.97204e-10
2.97204e-10
2.97205e-10
2.97205e-10
2.97204e-10
2.97204e-10
2.97203e-10
2.97201e-10
2.97199e-10
2.97196e-10
2.97192e-10
2.97187e-10
2.97181e-10
2.97172e-10
2.9716e-10
2.97144e-10
2.97123e-10
2.97094e-10
2.97056e-10
2.97005e-10
2.96937e-10
2.96845e-10
2.96722e-10
2.96559e-10
2.96342e-10
2.96057e-10
2.95683e-10
2.95199e-10
2.94581e-10
2.93806e-10
2.9286e-10
2.91754e-10
2.90533e-10
1.47818e-09
1.48462e-09
1.49049e-09
1.49552e-09
1.49965e-09
1.50294e-09
1.50552e-09
1.50751e-09
1.50904e-09
1.5102e-09
1.51107e-09
1.51173e-09
1.51222e-09
1.51259e-09
1.51287e-09
1.51307e-09
1.51323e-09
1.51334e-09
1.51343e-09
1.5135e-09
1.51355e-09
1.51358e-09
1.51361e-09
1.51363e-09
1.51365e-09
1.51366e-09
1.51367e-09
1.51367e-09
1.51368e-09
1.51368e-09
1.51368e-09
1.51368e-09
1.51367e-09
1.51367e-09
1.51366e-09
1.51365e-09
1.51363e-09
1.51361e-09
1.51358e-09
1.51355e-09
1.5135e-09
1.51343e-09
1.51334e-09
1.51323e-09
1.51307e-09
1.51287e-09
1.51259e-09
1.51222e-09
1.51173e-09
1.51107e-09
1.5102e-09
1.50904e-09
1.50751e-09
1.50552e-09
1.50294e-09
1.49965e-09
1.49552e-09
1.49049e-09
1.48462e-09
1.47818e-09
7.44473e-09
7.47811e-09
7.50874e-09
7.53502e-09
7.55656e-09
7.57376e-09
7.58725e-09
7.59769e-09
7.6057e-09
7.61178e-09
7.61637e-09
7.61983e-09
7.62242e-09
7.62437e-09
7.62582e-09
7.62692e-09
7.62774e-09
7.62836e-09
7.62882e-09
7.62917e-09
7.62944e-09
7.62964e-09
7.62979e-09
7.62991e-09
7.62999e-09
7.63006e-09
7.6301e-09
7.63014e-09
7.63016e-09
7.63017e-09
7.63017e-09
7.63016e-09
7.63014e-09
7.6301e-09
7.63006e-09
7.62999e-09
7.62991e-09
7.62979e-09
7.62964e-09
7.62944e-09
7.62917e-09
7.62882e-09
7.62836e-09
7.62774e-09
7.62692e-09
7.62582e-09
7.62437e-09
7.62242e-09
7.61983e-09
7.61637e-09
7.61178e-09
7.6057e-09
7.59769e-09
7.58725e-09
7.57376e-09
7.55656e-09
7.53502e-09
7.50874e-09
7.47811e-09
7.44473e-09
3.68133e-08
3.69822e-08
3.71377e-08
3.72712e-08
3.73807e-08
3.74681e-08
3.75368e-08
3.759e-08
3.76307e-08
3.76618e-08
3.76852e-08
3.77029e-08
3.77162e-08
3.77261e-08
3.77336e-08
3.77393e-08
3.77435e-08
3.77467e-08
3.77491e-08
3.77509e-08
3.77523e-08
3.77534e-08
3.77542e-08
3.77548e-08
3.77552e-08
3.77556e-08
3.77558e-08
3.7756e-08
3.77561e-08
3.77561e-08
3.77561e-08
3.77561e-08
3.7756e-08
3.77558e-08
3.77556e-08
3.77552e-08
3.77548e-08
3.77542e-08
3.77534e-08
3.77523e-08
3.77509e-08
3.77491e-08
3.77467e-08
3.77435e-08
3.77393e-08
3.77336e-08
3.77261e-08
3.77162e-08
3.77029e-08
3.76852e-08
3.76618e-08
3.76307e-08
3.759e-08
3.75368e-08
3.74681e-08
3.73807e-08
3.72712e-08
3.71377e-08
3.69822e-08
3.68133e-08
1.77093e-07
1.77918e-07
1.7868e-07
1.79333e-07
1.79869e-07
1.80298e-07
1.80634e-07
1.80895e-07
1.81095e-07
1.81248e-07
1.81363e-07
1.8145e-07
1.81515e-07
1.81565e-07
1.81602e-07
1.8163e-07
1.81651e-07
1.81666e-07
1.81678e-07
1.81688e-07
1.81695e-07
1.817e-07
1.81704e-07
1.81707e-07
1.81709e-07
1.81711e-07
1.81712e-07
1.81713e-07
1.81714e-07
1.81714e-07
1.81714e-07
1.81714e-07
1.81713e-07
1.81712e-07
1.81711e-07
1.81709e-07
1.81707e-07
1.81704e-07
1.817e-07
1.81695e-07
1.81688e-07
1.81678e-07
1.81666e-07
1.81651e-07
1.8163e-07
1.81602e-07
1.81565e-07
1.81515e-07
1.8145e-07
1.81363e-07
1.81248e-07
1.81095e-07
1.80895e-07
1.80634e-07
1.80298e-07
1.79869e-07
1.79333e-07
1.7868e-07
1.77918e-07
1.77093e-07
8.20342e-07
8.24189e-07
8.27746e-07
8.30797e-07
8.33298e-07
8.35299e-07
8.36871e-07
8.38089e-07
8.39025e-07
8.39738e-07
8.40279e-07
8.40686e-07
8.40994e-07
8.41225e-07
8.41399e-07
8.41531e-07
8.4163e-07
8.41705e-07
8.41762e-07
8.41805e-07
8.41838e-07
8.41863e-07
8.41883e-07
8.41897e-07
8.41908e-07
8.41916e-07
8.41923e-07
8.41927e-07
8.41929e-07
8.41931e-07
8.41931e-07
8.41929e-07
8.41927e-07
8.41923e-07
8.41916e-07
8.41908e-07
8.41897e-07
8.41883e-07
8.41863e-07
8.41838e-07
8.41805e-07
8.41762e-07
8.41705e-07
8.4163e-07
8.41531e-07
8.41399e-07
8.41225e-07
8.40994e-07
8.40686e-07
8.40279e-07
8.39738e-07
8.39025e-07
8.38089e-07
8.36871e-07
8.35299e-07
8.33298e-07
8.30797e-07
8.27746e-07
8.24189e-07
8.20342e-07
3.61806e-06
3.63498e-06
3.65062e-06
3.66403e-06
3.67502e-06
3.68381e-06
3.69072e-06
3.69608e-06
3.7002e-06
3.70334e-06
3.70572e-06
3.70752e-06
3.70888e-06
3.7099e-06
3.71067e-06
3.71125e-06
3.71169e-06
3.71203e-06
3.71228e-06
3.71247e-06
3.71262e-06
3.71273e-06
3.71282e-06
3.71288e-06
3.71293e-06
3.71297e-06
3.713e-06
3.71302e-06
3.71303e-06
3.71304e-06
3.71304e-06
3.71303e-06
3.71302e-06
3.713e-06
3.71297e-06
3.71293e-06
3.71288e-06
3.71282e-06
3.71273e-06
3.71262e-06
3.71247e-06
3.71228e-06
3.71203e-06
3.71169e-06
3.71125e-06
3.71067e-06
3.7099e-06
3.70888e-06
3.70752e-06
3.70572e-06
3.70334e-06
3.7002e-06
3.69608e-06
3.69072e-06
3.68381e-06
3.67502e-06
3.66403e-06
3.65062e-06
3.63498e-06
3.61806e-06
1.50056e-05
1.50748e-05
1.51387e-05
1.51934e-05
1.52382e-05
1.52741e-05
1.53022e-05
1.53241e-05
1.53409e-05
1.53538e-05
1.53635e-05
1.53709e-05
1.53764e-05
1.53806e-05
1.53838e-05
1.53862e-05
1.5388e-05
1.53894e-05
1.53904e-05
1.53912e-05
1.53918e-05
1.53923e-05
1.53927e-05
1.53929e-05
1.53931e-05
1.53933e-05
1.53934e-05
1.53935e-05
1.53935e-05
1.53936e-05
1.53936e-05
1.53935e-05
1.53935e-05
1.53934e-05
1.53933e-05
1.53931e-05
1.53929e-05
1.53927e-05
1.53923e-05
1.53918e-05
1.53912e-05
1.53904e-05
1.53894e-05
1.5388e-05
1.53862e-05
1.53838e-05
1.53806e-05
1.53764e-05
1.53709e-05
1.53635e-05
1.53538e-05
1.53409e-05
1.53241e-05
1.53022e-05
1.52741e-05
1.52382e-05
1.51934e-05
1.51387e-05
1.50748e-05
1.50056e-05
5.77326e-05
5.79919e-05
5.82305e-05
5.84344e-05
5.86016e-05
5.87353e-05
5.88404e-05
5.8922e-05
5.89848e-05
5.90327e-05
5.90691e-05
5.90966e-05
5.91174e-05
5.91331e-05
5.91449e-05
5.91539e-05
5.91607e-05
5.91659e-05
5.91698e-05
5.91729e-05
5.91752e-05
5.91769e-05
5.91783e-05
5.91793e-05
5.91801e-05
5.91807e-05
5.91811e-05
5.91815e-05
5.91816e-05
5.91817e-05
5.91817e-05
5.91816e-05
5.91815e-05
5.91811e-05
5.91807e-05
5.91801e-05
5.91793e-05
5.91783e-05
5.91769e-05
5.91752e-05
5.91729e-05
5.91698e-05
5.91659e-05
5.91607e-05
5.91539e-05
5.91449e-05
5.91331e-05
5.91174e-05
5.90966e-05
5.90691e-05
5.90327e-05
5.89848e-05
5.8922e-05
5.88404e-05
5.87353e-05
5.86016e-05
5.84344e-05
5.82305e-05
5.79919e-05
5.77326e-05
0.000203026
0.0002039
0.0002047
0.000205383
0.000205943
0.00020639
0.000206742
0.000207016
0.000207226
0.000207387
0.000207509
0.000207601
0.000207671
0.000207724
0.000207763
0.000207794
0.000207817
0.000207834
0.000207847
0.000207858
0.000207865
0.000207871
0.000207876
0.00020788
0.000207882
0.000207884
0.000207886
0.000207887
0.000207888
0.000207888
0.000207888
0.000207888
0.000207887
0.000207886
0.000207884
0.000207882
0.00020788
0.000207876
0.000207871
0.000207865
0.000207858
0.000207847
0.000207834
0.000207817
0.000207794
0.000207763
0.000207724
0.000207671
0.000207601
0.000207509
0.000207387
0.000207226
0.000207016
0.000206742
0.00020639
0.000205943
0.000205383
0.0002047
0.0002039
0.000203026
0.000642328
0.000644924
0.000647289
0.000649303
0.000650952
0.000652271
0.000653308
0.000654114
0.000654734
0.000655207
0.000655567
0.00065584
0.000656047
0.000656203
0.000656321
0.000656411
0.000656479
0.000656531
0.00065657
0.000656601
0.000656624
0.000656642
0.000656656
0.000656666
0.000656674
0.000656681
0.000656685
0.000656688
0.00065669
0.000656691
0.000656691
0.00065669
0.000656688
0.000656685
0.000656681
0.000656674
0.000656666
0.000656656
0.000656642
0.000656624
0.000656601
0.00065657
0.000656531
0.000656479
0.000656411
0.000656321
0.000656203
0.000656047
0.00065584
0.000655567
0.000655207
0.000654734
0.000654114
0.000653308
0.000652271
0.000650952
0.000649303
0.000647289
0.000644924
0.000642328
0.001799
0.00180567
0.00181169
0.00181682
0.00182101
0.00182436
0.00182699
0.00182904
0.00183062
0.00183182
0.00183274
0.00183343
0.00183396
0.00183436
0.00183466
0.00183489
0.00183506
0.0018352
0.0018353
0.00183538
0.00183544
0.00183548
0.00183552
0.00183555
0.00183557
0.00183558
0.00183559
0.0018356
0.00183561
0.00183561
0.00183561
0.00183561
0.0018356
0.00183559
0.00183558
0.00183557
0.00183555
0.00183552
0.00183548
0.00183544
0.00183538
0.0018353
0.0018352
0.00183506
0.00183489
0.00183466
0.00183436
0.00183396
0.00183343
0.00183274
0.00183182
0.00183062
0.00182904
0.00182699
0.00182436
0.00182101
0.00181682
0.00181169
0.00180567
0.001799
0.00439723
0.00441173
0.00442474
0.00443577
0.00444478
0.00445199
0.00445766
0.00446206
0.00446545
0.00446805
0.00447002
0.00447152
0.00447266
0.00447352
0.00447417
0.00447466
0.00447504
0.00447533
0.00447555
0.00447572
0.00447585
0.00447595
0.00447603
0.00447609
0.00447613
0.00447617
0.00447619
0.00447621
0.00447622
0.00447623
0.00447623
0.00447622
0.00447621
0.00447619
0.00447617
0.00447613
0.00447609
0.00447603
0.00447595
0.00447585
0.00447572
0.00447555
0.00447533
0.00447504
0.00447466
0.00447417
0.00447352
0.00447266
0.00447152
0.00447002
0.00446805
0.00446545
0.00446206
0.00445766
0.00445199
0.00444478
0.00443577
0.00442474
0.00441173
0.00439723
0.00929899
0.00932545
0.009349
0.00936889
0.00938515
0.00939813
0.00940835
0.00941629
0.00942241
0.00942709
0.00943066
0.00943337
0.00943542
0.00943698
0.00943816
0.00943906
0.00943974
0.00944027
0.00944067
0.00944098
0.00944122
0.0094414
0.00944154
0.00944165
0.00944173
0.0094418
0.00944184
0.00944188
0.0094419
0.00944191
0.00944191
0.0094419
0.00944188
0.00944184
0.0094418
0.00944173
0.00944165
0.00944154
0.0094414
0.00944122
0.00944098
0.00944067
0.00944027
0.00943974
0.00943906
0.00943816
0.00943698
0.00943542
0.00943337
0.00943066
0.00942709
0.00942241
0.00941629
0.00940835
0.00939813
0.00938515
0.00936889
0.009349
0.00932545
0.00929899
0.0170349
0.0170757
0.0171117
0.0171419
0.0171666
0.0171864
0.0172019
0.017214
0.0172233
0.0172304
0.0172359
0.01724
0.0172431
0.0172455
0.0172473
0.0172487
0.0172497
0.0172505
0.0172512
0.0172516
0.017252
0.0172523
0.0172525
0.0172527
0.0172528
0.0172529
0.017253
0.017253
0.017253
0.0172531
0.0172531
0.017253
0.017253
0.017253
0.0172529
0.0172528
0.0172527
0.0172525
0.0172523
0.017252
0.0172516
0.0172512
0.0172505
0.0172497
0.0172487
0.0172473
0.0172455
0.0172431
0.01724
0.0172359
0.0172304
0.0172233
0.017214
0.0172019
0.0171864
0.0171666
0.0171419
0.0171117
0.0170757
0.0170349
0.0273912
0.0274457
0.0274931
0.027533
0.0275655
0.0275914
0.0276118
0.0276277
0.02764
0.0276494
0.0276566
0.027662
0.0276662
0.0276693
0.0276717
0.0276735
0.0276749
0.027676
0.0276768
0.0276775
0.027678
0.0276783
0.0276786
0.0276789
0.027679
0.0276792
0.0276793
0.0276793
0.0276794
0.0276794
0.0276794
0.0276794
0.0276793
0.0276793
0.0276792
0.027679
0.0276789
0.0276786
0.0276783
0.027678
0.0276775
0.0276768
0.027676
0.0276749
0.0276735
0.0276717
0.0276693
0.0276662
0.027662
0.0276566
0.0276494
0.02764
0.0276277
0.0276118
0.0275914
0.0275655
0.027533
0.0274931
0.0274457
0.0273912
0.0395399
0.0396054
0.0396619
0.0397092
0.0397477
0.0397785
0.0398027
0.0398216
0.0398362
0.0398474
0.0398559
0.0398624
0.0398674
0.0398711
0.039874
0.0398762
0.0398779
0.0398792
0.0398802
0.0398809
0.0398815
0.039882
0.0398823
0.0398826
0.0398828
0.039883
0.0398831
0.0398832
0.0398832
0.0398833
0.0398833
0.0398832
0.0398832
0.0398831
0.039883
0.0398828
0.0398826
0.0398823
0.039882
0.0398815
0.0398809
0.0398802
0.0398792
0.0398779
0.0398762
0.039874
0.0398711
0.0398674
0.0398624
0.0398559
0.0398474
0.0398362
0.0398216
0.0398027
0.0397785
0.0397477
0.0397092
0.0396619
0.0396054
0.0395399
0.0525838
0.0526579
0.0527212
0.052774
0.0528169
0.0528513
0.0528784
0.0528995
0.0529158
0.0529283
0.0529379
0.0529452
0.0529508
0.0529551
0.0529583
0.0529608
0.0529627
0.0529641
0.0529653
0.0529661
0.0529668
0.0529673
0.0529677
0.052968
0.0529683
0.0529685
0.0529686
0.0529687
0.0529687
0.0529688
0.0529688
0.0529687
0.0529687
0.0529686
0.0529685
0.0529683
0.052968
0.0529677
0.0529673
0.0529668
0.0529661
0.0529653
0.0529641
0.0529627
0.0529608
0.0529583
0.0529551
0.0529508
0.0529452
0.0529379
0.0529283
0.0529158
0.0528995
0.0528784
0.0528513
0.0528169
0.052774
0.0527212
0.0526579
0.0525838
0.0659473
0.0660286
0.0660975
0.0661547
0.0662013
0.0662386
0.066268
0.066291
0.0663088
0.0663224
0.0663329
0.0663409
0.066347
0.0663517
0.0663552
0.0663579
0.06636
0.0663616
0.0663629
0.0663639
0.0663646
0.0663652
0.0663656
0.066366
0.0663662
0.0663664
0.0663666
0.0663667
0.0663668
0.0663668
0.0663668
0.0663668
0.0663667
0.0663666
0.0663664
0.0663662
0.066366
0.0663656
0.0663652
0.0663646
0.0663639
0.0663629
0.0663616
0.06636
0.0663579
0.0663552
0.0663517
0.066347
0.0663409
0.0663329
0.0663224
0.0663088
0.066291
0.066268
0.0662386
0.0662013
0.0661547
0.0660975
0.0660286
0.0659473
0.0793979
0.0794859
0.0795599
0.0796213
0.0796714
0.0797114
0.079743
0.0797677
0.0797869
0.0798016
0.0798129
0.0798216
0.0798282
0.0798333
0.0798372
0.0798401
0.0798424
0.0798442
0.0798455
0.0798466
0.0798474
0.079848
0.0798485
0.0798489
0.0798492
0.0798494
0.0798496
0.0798497
0.0798498
0.0798498
0.0798498
0.0798498
0.0798497
0.0798496
0.0798494
0.0798492
0.0798489
0.0798485
0.079848
0.0798474
0.0798466
0.0798455
0.0798442
0.0798424
0.0798401
0.0798372
0.0798333
0.0798282
0.0798216
0.0798129
0.0798016
0.0797869
0.0797677
0.079743
0.0797114
0.0796714
0.0796213
0.0795599
0.0794859
0.0793979
0.0928933
0.0929879
0.0930671
0.0931327
0.0931862
0.093229
0.0932628
0.0932893
0.0933099
0.0933258
0.093338
0.0933473
0.0933545
0.0933599
0.0933641
0.0933674
0.0933699
0.0933718
0.0933733
0.0933744
0.0933753
0.093376
0.0933766
0.093377
0.0933773
0.0933776
0.0933777
0.0933779
0.0933779
0.093378
0.093378
0.0933779
0.0933779
0.0933777
0.0933776
0.0933773
0.093377
0.0933766
0.093376
0.0933753
0.0933744
0.0933733
0.0933718
0.0933699
0.0933674
0.0933641
0.0933599
0.0933545
0.0933473
0.093338
0.0933258
0.0933099
0.0932893
0.0932628
0.093229
0.0931862
0.0931327
0.0930671
0.0929879
0.0928933
0.106453
0.106554
0.106639
0.106708
0.106765
0.106811
0.106847
0.106876
0.106898
0.106915
0.106928
0.106938
0.106946
0.106951
0.106956
0.10696
0.106962
0.106964
0.106966
0.106967
0.106968
0.106969
0.10697
0.10697
0.10697
0.106971
0.106971
0.106971
0.106971
0.106971
0.106971
0.106971
0.106971
0.106971
0.106971
0.10697
0.10697
0.10697
0.106969
0.106968
0.106967
0.106966
0.106964
0.106962
0.10696
0.106956
0.106951
0.106946
0.106938
0.106928
0.106915
0.106898
0.106876
0.106847
0.106811
0.106765
0.106708
0.106639
0.106554
0.106453
0.120099
0.120207
0.120297
0.120371
0.120432
0.12048
0.120519
0.120549
0.120573
0.120591
0.120605
0.120616
0.120624
0.12063
0.120635
0.120639
0.120642
0.120644
0.120646
0.120647
0.120649
0.120649
0.12065
0.120651
0.120651
0.120651
0.120651
0.120652
0.120652
0.120652
0.120652
0.120652
0.120652
0.120651
0.120651
0.120651
0.120651
0.12065
0.120649
0.120649
0.120647
0.120646
0.120644
0.120642
0.120639