/*--------------------------------*- C++ -*----------------------------------*\
| =========                 |                                                 |
| \\      /  F ield         | foam-extend: Open Source CFD                    |
|  \\    /   O peration     | Version:     4.0                                |
|   \\  /    A nd           | Web:         http://www.foam-extend.org         |
|    \\/     M anipulation  |                                                 |
\*---------------------------------------------------------------------------*/
FoamFile
{
    version     2.0;
    format      ascii;
    class       volScalarField;
    location    "7";
    object      dC2;
}
// * * * * * * * * * * * * * * * * * * * * * * * * * * * * * * * * * * * * * //

dimensions      [0 -1 0 0 0 0 0];

internalField   nonuniform List<scalar> 
6960
(
1.08249e-11
-8.58419e-12
-2.89771e-12
3.83287e-13
1.42654e-13
5.07142e-14
2.85211e-14
1.55917e-14
1.04268e-14
6.75973e-15
4.73736e-15
3.47089e-15
2.71386e-15
2.29135e-15
1.37924e-15
1.16611e-15
8.14533e-16
6.08206e-16
6.72206e-16
1.4532e-16
4.45617e-16
4.50273e-16
4.29365e-16
-6.65606e-17
-2.57426e-16
-3.61008e-16
-1.4262e-16
1.15431e-17
-1.43158e-16
-1.82287e-16
-3.50786e-16
-1.56897e-16
9.41229e-17
-1.53285e-16
-1.2908e-16
1.66138e-16
3.17139e-17
-5.69572e-17
-9.59666e-18
2.04218e-16
5.13651e-16
5.36618e-16
7.70051e-16
6.25028e-16
1.17548e-15
1.16803e-15
1.67153e-15
2.6867e-15
2.98318e-15
4.49636e-15
6.87536e-15
1.02344e-14
1.59753e-14
2.86049e-14
5.0991e-14
1.43025e-13
3.82918e-13
-2.89765e-12
-8.58405e-12
1.0827e-11
3.3888e-11
-2.95224e-11
-7.39467e-12
1.76087e-12
6.75283e-13
2.33694e-13
1.31719e-13
7.14344e-14
4.5915e-14
2.97455e-14
2.10412e-14
1.4613e-14
1.0882e-14
7.04628e-15
6.73988e-15
5.1063e-15
2.926e-15
3.20969e-15
1.47208e-15
2.18604e-15
1.11901e-15
7.75806e-16
-2.11347e-16
4.29157e-17
9.07493e-16
2.17049e-16
-1.4043e-16
-1.02376e-15
-4.78302e-16
-2.36799e-16
-4.33329e-17
4.58854e-16
-3.99042e-16
4.62778e-16
-5.32948e-16
-5.58071e-16
1.37377e-16
9.0388e-16
7.09006e-16
1.73854e-15
1.24102e-15
2.51167e-15
3.00198e-15
3.73174e-15
4.17793e-15
6.88543e-15
8.47777e-15
1.06122e-14
1.53481e-14
2.13581e-14
2.91718e-14
4.59035e-14
7.03569e-14
1.31854e-13
2.33414e-13
6.75601e-13
1.76126e-12
-7.39415e-12
-2.95237e-11
3.38898e-11
2.83533e-11
-3.28841e-11
-1.95354e-12
3.75236e-12
1.47956e-12
4.95727e-13
2.82028e-13
1.48598e-13
9.89372e-14
6.1202e-14
4.44095e-14
3.07794e-14
2.25453e-14
1.82258e-14
1.23388e-14
9.59828e-15
9.2821e-15
5.42419e-15
5.14261e-15
2.56699e-15
2.69806e-15
1.36877e-15
2.5215e-15
1.97365e-15
8.13691e-16
1.18501e-15
-1.65757e-15
1.72545e-16
3.966e-16
-1.13061e-17
-9.54322e-16
-1.25402e-15
-4.13357e-16
-1.09802e-15
1.13726e-15
6.93013e-16
1.26613e-15
9.28609e-16
2.16807e-15
2.46098e-15
3.05379e-15
4.18458e-15
5.89687e-15
8.6744e-15
1.06231e-14
1.24263e-14
1.65812e-14
2.33531e-14
2.99023e-14
4.45159e-14
6.22357e-14
9.91616e-14
1.48298e-13
2.81924e-13
4.96338e-13
1.47701e-12
3.75138e-12
-1.95322e-12
-3.28819e-11
2.83549e-11
-1.28629e-11
-1.05539e-11
1.4156e-11
5.33785e-12
2.1457e-12
7.08132e-13
4.02574e-13
2.09934e-13
1.36149e-13
8.60665e-14
6.06824e-14
4.22649e-14
3.23356e-14
2.26009e-14
1.79486e-14
1.35918e-14
9.2741e-15
8.5485e-15
6.77918e-15
6.27685e-15
2.79857e-15
3.0328e-15
2.04492e-15
1.82726e-16
-5.65651e-16
-7.38224e-16
2.18114e-15
-3.20601e-16
-9.61227e-16
-1.90813e-15
-1.8853e-16
-1.38869e-15
1.4789e-15
6.33075e-16
9.65259e-17
1.49615e-15
1.73856e-15
3.00931e-15
2.95514e-15
3.38612e-15
7.19928e-15
7.49284e-15
8.02903e-15
1.06072e-14
1.41953e-14
1.74205e-14
2.27842e-14
3.1117e-14
4.28083e-14
5.99178e-14
8.58039e-14
1.3547e-13
2.096e-13
4.02203e-13
7.08706e-13
2.14765e-12
5.3392e-12
1.41565e-11
-1.05557e-11
-1.28611e-11
-5.15297e-11
1.17046e-11
2.9085e-11
6.17024e-12
2.52617e-12
8.22282e-13
4.66373e-13
2.369e-13
1.57438e-13
9.70928e-14
7.09312e-14
4.71533e-14
3.48665e-14
2.67544e-14
2.12931e-14
1.69154e-14
1.33497e-14
9.85273e-15
6.83942e-15
6.23848e-15
6.39818e-15
3.3801e-15
7.96551e-16
1.69892e-15
2.11077e-15
-3.59165e-16
-2.45714e-16
1.05566e-16
2.58542e-16
2.44462e-15
7.55504e-17
1.27643e-15
-3.21906e-15
-2.66464e-16
1.12098e-15
9.69037e-16
1.57682e-15
2.1956e-15
1.77201e-15
5.29505e-15
4.01562e-15
6.53098e-15
9.9229e-15
1.08117e-14
1.5001e-14
2.1521e-14
2.56942e-14
3.67458e-14
4.72303e-14
7.08495e-14
9.75456e-14
1.59076e-13
2.37407e-13
4.6734e-13
8.21427e-13
2.52491e-12
6.16948e-12
2.90836e-11
1.17064e-11
-5.15274e-11
-7.52605e-11
2.5829e-11
3.80368e-11
6.52357e-12
2.70863e-12
8.72529e-13
4.96393e-13
2.50463e-13
1.66988e-13
1.02949e-13
7.20713e-14
5.08159e-14
3.95214e-14
2.83251e-14
2.03237e-14
1.46092e-14
1.30708e-14
8.75905e-15
8.73281e-15
3.79812e-15
3.74824e-15
2.8532e-15
5.09455e-15
1.35624e-15
3.70786e-16
1.26139e-15
8.50612e-16
-2.46976e-16
1.6427e-15
-1.9e-15
-3.32168e-16
9.24313e-16
1.47351e-15
1.4297e-15
-1.73122e-15
8.23136e-17
2.24833e-15
2.52367e-15
4.76807e-15
5.31916e-15
6.9681e-15
8.32678e-15
1.03359e-14
1.43152e-14
1.5521e-14
2.02454e-14
2.82839e-14
3.6833e-14
5.03349e-14
7.24956e-14
1.02919e-13
1.64943e-13
2.51424e-13
4.95817e-13
8.73027e-13
2.70976e-12
6.52328e-12
3.80371e-11
2.58264e-11
-7.52609e-11
-8.90108e-11
3.37217e-11
4.32953e-11
6.83217e-12
2.87664e-12
9.25292e-13
5.26157e-13
2.6486e-13
1.74215e-13
1.0566e-13
7.6334e-14
5.09044e-14
3.63985e-14
2.64514e-14
2.24231e-14
1.66785e-14
1.23186e-14
1.03437e-14
6.90653e-15
6.41046e-15
4.73952e-15
3.61858e-15
1.44459e-15
2.07821e-15
2.62937e-15
2.52561e-15
4.11357e-16
1.4506e-15
-2.39907e-15
1.95439e-16
1.25252e-15
-1.3883e-15
-1.08877e-17
-7.49233e-17
4.14207e-15
2.69066e-15
1.09959e-15
1.95399e-15
3.06365e-15
2.64164e-15
3.9696e-15
7.65455e-15
1.02002e-14
1.22776e-14
1.65121e-14
2.19048e-14
2.87266e-14
3.92963e-14
5.30552e-14
7.70286e-14
1.04273e-13
1.7438e-13
2.63984e-13
5.24808e-13
9.23543e-13
2.87496e-12
6.83241e-12
4.32945e-11
3.3722e-11
-8.90084e-11
-9.98901e-11
3.8853e-11
4.79702e-11
7.40909e-12
3.16036e-12
1.01648e-12
5.76192e-13
2.88208e-13
1.89035e-13
1.16252e-13
8.4197e-14
5.69625e-14
4.35543e-14
3.0855e-14
2.3508e-14
1.75312e-14
1.34683e-14
1.15978e-14
1.0718e-14
7.97772e-15
5.22128e-15
5.01558e-15
2.62956e-15
3.97074e-15
5.53222e-16
1.45775e-16
1.56853e-15
2.5031e-16
3.06864e-15
8.25612e-16
-8.78226e-16
1.39846e-15
1.08176e-15
2.59232e-15
-1.16555e-15
1.48027e-15
2.24654e-15
3.57349e-15
5.89296e-15
8.06586e-15
8.36624e-15
8.4145e-15
8.43432e-15
1.43253e-14
1.90789e-14
2.49613e-14
2.93357e-14
4.29472e-14
5.46702e-14
8.24972e-14
1.18139e-13
1.90433e-13
2.88206e-13
5.76517e-13
1.0171e-12
3.15934e-12
7.40804e-12
4.79712e-11
3.88514e-11
-9.98901e-11
-1.1218e-10
4.36012e-11
5.36827e-11
8.39317e-12
3.62377e-12
1.17176e-12
6.65011e-13
3.27097e-13
2.19575e-13
1.29978e-13
9.34869e-14
6.22142e-14
4.78507e-14
3.44221e-14
2.71159e-14
2.06638e-14
1.67926e-14
1.1205e-14
8.22912e-15
7.11601e-15
5.87451e-15
4.58555e-15
4.7962e-15
1.7794e-15
1.35748e-15
2.03406e-15
3.29139e-16
1.02379e-15
-1.31507e-15
5.6674e-16
6.72334e-16
6.63472e-16
1.64151e-15
9.40808e-16
2.90445e-15
1.37914e-15
4.45982e-15
2.86572e-15
4.18344e-15
4.6129e-15
7.78665e-15
1.1433e-14
1.54396e-14
1.64773e-14
2.05052e-14
2.72811e-14
3.53336e-14
4.76371e-14
6.30696e-14
9.34481e-14
1.29658e-13
2.17651e-13
3.29397e-13
6.67611e-13
1.17061e-12
3.62643e-12
8.39166e-12
5.36828e-11
4.36051e-11
-1.12179e-10
-1.27281e-10
4.89259e-11
6.08225e-11
9.81598e-12
4.29489e-12
1.39682e-12
7.94353e-13
3.93103e-13
2.57313e-13
1.54999e-13
1.10696e-13
7.66469e-14
5.6049e-14
4.03932e-14
3.18902e-14
2.42561e-14
1.92765e-14
1.58098e-14
1.48157e-14
9.2257e-15
7.81014e-15
3.20006e-15
3.65282e-15
1.65669e-15
3.17482e-15
3.04729e-15
3.81577e-15
1.117e-15
2.11988e-16
1.46206e-15
1.26451e-15
1.63888e-15
1.02562e-16
6.50303e-17
5.14919e-16
2.86817e-15
2.26807e-15
6.36553e-15
6.52605e-15
8.86153e-15
9.15178e-15
1.06095e-14
1.29039e-14
1.94406e-14
2.29066e-14
3.05232e-14
4.03448e-14
5.57119e-14
7.45963e-14
1.13889e-13
1.57123e-13
2.58277e-13
3.92133e-13
7.91258e-13
1.39773e-12
4.29262e-12
9.81827e-12
6.08214e-11
4.89238e-11
-1.2728e-10
-1.44981e-10
5.48344e-11
6.91802e-11
1.16527e-11
5.1661e-12
1.69468e-12
9.62138e-13
4.75298e-13
3.1576e-13
1.89588e-13
1.37463e-13
8.81571e-14
6.78524e-14
4.89016e-14
3.75938e-14
2.94505e-14
2.18409e-14
1.70867e-14
1.16524e-14
1.11762e-14
7.73104e-15
7.34284e-15
4.76709e-15
4.05736e-15
2.50107e-15
1.60538e-15
7.82072e-16
1.81185e-15
3.09698e-15
-3.85141e-16
-7.45741e-17
2.17096e-16
2.32118e-15
2.22563e-15
3.68822e-15
3.94669e-15
2.92549e-15
5.89399e-15
5.11522e-15
6.40388e-15
1.09837e-14
1.45963e-14
1.87806e-14
2.39889e-14
2.85964e-14
3.9699e-14
4.74375e-14
6.93865e-14
9.10728e-14
1.33156e-13
1.86921e-13
3.15391e-13
4.75754e-13
9.64146e-13
1.69593e-12
5.16965e-12
1.16532e-11
6.91792e-11
5.4834e-11
-1.44983e-10
-1.64525e-10
6.10298e-11
7.83513e-11
1.3863e-11
6.22365e-12
2.06557e-12
1.17406e-12
5.78393e-13
3.8027e-13
2.27824e-13
1.63205e-13
1.10747e-13
8.47529e-14
5.96399e-14
4.79454e-14
3.49137e-14
2.8771e-14
2.17941e-14
1.90496e-14
1.42891e-14
1.29939e-14
9.12093e-15
9.13533e-15
7.67277e-15
4.2105e-15
2.48942e-15
1.40235e-15
1.17302e-15
8.6876e-16
1.92964e-16
1.57571e-15
3.69389e-15
1.87409e-15
3.4176e-15
4.2924e-15
3.00411e-15
7.8662e-15
5.71614e-15
1.01073e-14
1.27134e-14
1.21449e-14
1.81472e-14
2.10178e-14
2.64673e-14
3.39396e-14
4.48837e-14
6.04221e-14
8.1576e-14
1.09116e-13
1.63425e-13
2.31103e-13
3.8165e-13
5.78123e-13
1.17167e-12
2.06585e-12
6.22234e-12
1.38608e-11
7.83511e-11
6.10309e-11
-1.64523e-10
-1.85165e-10
6.71983e-11
8.79668e-11
1.64028e-11
7.46665e-12
2.51102e-12
1.42409e-12
7.03276e-13
4.64643e-13
2.78374e-13
1.97983e-13
1.31752e-13
9.92721e-14
7.13826e-14
5.42436e-14
3.97414e-14
3.24888e-14
2.64437e-14
1.9514e-14
1.54337e-14
1.36022e-14
8.97383e-15
7.27095e-15
2.57186e-15
5.43735e-15
4.7133e-15
4.86769e-15
2.99606e-15
1.66e-15
5.22759e-15
3.01074e-15
1.0742e-15
1.8035e-15
3.16759e-15
5.77105e-16
5.14876e-15
4.98076e-15
8.22494e-15
9.21968e-15
1.34557e-14
1.74471e-14
1.94108e-14
2.75901e-14
3.40835e-14
4.23759e-14
5.52624e-14
7.34851e-14
1.02032e-13
1.34936e-13
2.00195e-13
2.76548e-13
4.60931e-13
7.03715e-13
1.426e-12
2.50854e-12
7.46604e-12
1.64032e-11
8.79676e-11
6.71951e-11
-1.85164e-10
-2.06359e-10
7.30946e-11
9.77385e-11
1.92429e-11
8.87997e-12
3.02181e-12
1.72073e-12
8.49964e-13
5.58918e-13
3.34201e-13
2.40499e-13
1.5962e-13
1.19251e-13
8.5312e-14
6.87732e-14
5.15582e-14
4.28476e-14
3.0846e-14
2.52837e-14
1.84243e-14
1.46793e-14
1.34927e-14
1.03221e-14
9.24882e-15
6.63398e-15
5.56322e-15
3.72378e-15
3.48729e-15
3.12383e-15
2.51535e-15
1.81066e-15
1.13283e-15
2.34812e-15
4.45768e-15
6.75838e-15
7.53507e-15
8.81255e-15
1.0437e-14
1.28955e-14
1.46621e-14
2.07623e-14
2.56639e-14
3.00682e-14
3.98363e-14
5.03594e-14
6.83654e-14
8.40087e-14
1.19473e-13
1.58285e-13
2.38765e-13
3.33383e-13
5.61258e-13
8.49596e-13
1.71954e-12
3.02405e-12
8.87741e-12
1.92461e-11
9.77393e-11
7.30972e-11
-2.06362e-10
-2.27738e-10
7.85809e-11
1.07471e-10
2.23659e-11
1.04628e-11
3.61764e-12
2.05733e-12
1.01836e-12
6.69781e-13
4.01451e-13
2.86889e-13
1.92588e-13
1.46178e-13
1.03113e-13
7.91083e-14
6.1953e-14
4.57286e-14
3.70493e-14
3.19665e-14
2.35414e-14
1.94916e-14
1.24659e-14
1.08075e-14
9.11578e-15
8.33143e-15
4.69302e-15
3.18047e-15
3.51965e-15
3.34758e-15
1.70138e-15
5.52528e-15
4.86708e-15
4.97666e-15
2.59863e-15
7.27326e-15
7.52043e-15
1.12073e-14
1.30453e-14
1.5612e-14
2.04181e-14
2.14638e-14
2.85857e-14
3.84117e-14
4.8766e-14
6.09221e-14
7.93291e-14
1.04823e-13
1.43588e-13
1.9011e-13
2.85314e-13
4.04021e-13
6.70439e-13
1.01882e-12
2.05687e-12
3.61501e-12
1.04662e-11
2.23625e-11
1.07473e-10
7.85831e-11
-2.27738e-10
-2.49059e-10
8.35365e-11
1.17029e-10
2.57499e-11
1.22222e-11
4.28776e-12
2.44448e-12
1.21484e-12
7.96884e-13
4.75429e-13
3.40725e-13
2.26233e-13
1.70473e-13
1.24762e-13
9.90647e-14
6.96255e-14
5.87141e-14
4.61443e-14
3.3407e-14
2.99282e-14
2.2546e-14
2.15345e-14
1.54114e-14
1.26449e-14
7.38298e-15
8.28139e-15
8.2528e-15
5.64611e-15
5.52432e-15
4.43037e-15
3.64601e-15
3.33742e-15
6.46523e-15
7.66445e-15
7.18473e-15
8.82817e-15
9.13232e-15
1.2101e-14
1.60238e-14
2.09819e-14
3.04224e-14
3.97285e-14
4.47377e-14
5.77992e-14
7.10069e-14
9.81225e-14
1.21557e-13
1.74177e-13
2.28561e-13
3.42752e-13
4.74829e-13
7.94795e-13
1.21404e-12
2.44591e-12
4.28899e-12
1.22194e-11
2.57486e-11
1.17028e-10
8.3534e-11
-2.49059e-10
-2.70157e-10
8.78873e-11
1.26327e-10
2.93767e-11
1.41477e-11
5.04697e-12
2.88179e-12
1.4364e-12
9.43548e-13
5.64079e-13
4.02909e-13
2.68814e-13
2.02233e-13
1.43387e-13
1.10629e-13
8.80571e-14
6.74445e-14
5.15536e-14
4.44451e-14
3.21606e-14
2.76156e-14
2.10502e-14
1.75508e-14
1.24159e-14
1.13819e-14
1.01294e-14
8.015e-15
5.40992e-15
4.21592e-15
6.94791e-15
2.15339e-15
5.84702e-15
3.28714e-15
8.54898e-15
7.39387e-15
1.24882e-14
1.4716e-14
2.00342e-14
2.46145e-14
2.74616e-14
3.43965e-14
4.02627e-14
5.10727e-14
6.84748e-14
8.3692e-14
1.13137e-13
1.45615e-13
2.01667e-13
2.69797e-13
4.03895e-13
5.67372e-13
9.43603e-13
1.4367e-12
2.87999e-12
5.04742e-12
1.4148e-11
2.93808e-11
1.26326e-10
8.78864e-11
-2.70156e-10
-2.90906e-10
9.15807e-11
1.3528e-10
3.3252e-11
1.62537e-11
5.89487e-12
3.37249e-12
1.68589e-12
1.10755e-12
6.65482e-13
4.76454e-13
3.17423e-13
2.37676e-13
1.71714e-13
1.33609e-13
9.66642e-14
8.16972e-14
6.29079e-14
4.95841e-14
3.92974e-14
3.32435e-14
2.43347e-14
2.07865e-14
1.64017e-14
1.58e-14
1.03458e-14
6.79908e-15
9.06404e-15
7.51334e-15
5.09981e-15
9.168e-15
9.01126e-15
9.73272e-15
8.71654e-15
1.19042e-14
1.30285e-14
1.87475e-14
2.135e-14
2.46892e-14
3.30028e-14
3.75671e-14
5.14742e-14
6.22831e-14
8.01325e-14
1.01979e-13
1.3498e-13
1.69167e-13
2.40612e-13
3.1611e-13
4.7296e-13
6.61651e-13
1.10574e-12
1.68726e-12
3.37566e-12
5.89376e-12
1.62546e-11
3.32492e-11
1.35284e-10
9.158e-11
-2.90907e-10
-3.11219e-10
9.45656e-11
1.43842e-10
3.73451e-11
1.85346e-11
6.84352e-12
3.92272e-12
1.97315e-12
1.29134e-12
7.76791e-13
5.50966e-13
3.69024e-13
2.80223e-13
1.99391e-13
1.57624e-13
1.19509e-13
9.22826e-14
7.28824e-14
5.8359e-14
4.71356e-14
3.45307e-14
3.2946e-14
2.54039e-14
2.15587e-14
1.5672e-14
1.3243e-14
1.33309e-14
1.01623e-14
1.00079e-14
6.84502e-15
8.76508e-15
6.12949e-15
9.9458e-15
1.11289e-14
1.26589e-14
1.51459e-14
1.75914e-14
2.12827e-14
3.0593e-14
3.64052e-14
4.80412e-14
5.99067e-14
7.17438e-14
9.02328e-14
1.14309e-13
1.5299e-13
2.0047e-13
2.75986e-13
3.7007e-13
5.51015e-13
7.75893e-13
1.29485e-12
1.9734e-12
3.92104e-12
6.84577e-12
1.8531e-11
3.73466e-11
1.43839e-10
9.45694e-11
-3.11219e-10
-3.31001e-10
9.6817e-11
1.51944e-10
4.16504e-11
2.09901e-11
7.88931e-12
4.53699e-12
2.29442e-12
1.50414e-12
9.03928e-13
6.46885e-13
4.30386e-13
3.22303e-13
2.32017e-13
1.7845e-13
1.34652e-13
1.08072e-13
8.24564e-14
6.96803e-14
5.573e-14
4.4965e-14
3.21384e-14
2.70823e-14
2.33225e-14
1.75533e-14
1.75089e-14
1.13517e-14
1.127e-14
8.93594e-15
1.16083e-14
8.65805e-15
1.05854e-14
9.30436e-15
1.36144e-14
1.58248e-14
2.04231e-14
2.75706e-14
3.23871e-14
3.68787e-14
4.44369e-14
5.10842e-14
6.2973e-14
8.40624e-14
1.0968e-13
1.36476e-13
1.82256e-13
2.32214e-13
3.26741e-13
4.28909e-13
6.46369e-13
9.04054e-13
1.5023e-12
2.29074e-12
4.53709e-12
7.88906e-12
2.09947e-11
4.16472e-11
1.51945e-10
9.68132e-11
-3.30999e-10
-3.50168e-10
9.82867e-11
1.59535e-10
4.61433e-11
2.36309e-11
9.04831e-12
5.2209e-12
2.65076e-12
1.73552e-12
1.04546e-12
7.44306e-13
5.00304e-13
3.77181e-13
2.67816e-13
2.11498e-13
1.55326e-13
1.26428e-13
9.89088e-14
7.94835e-14
5.96949e-14
5.35163e-14
4.04981e-14
3.53411e-14
2.53675e-14
2.37918e-14
1.65385e-14
1.8798e-14
1.12842e-14
1.09801e-14
1.09546e-14
1.1124e-14
1.32845e-14
1.47239e-14
1.54519e-14
1.85864e-14
2.27507e-14
2.3146e-14
3.09253e-14
4.12181e-14
5.19521e-14
6.58014e-14
8.41849e-14
9.63674e-14
1.2634e-13
1.58557e-13
2.10216e-13
2.68341e-13
3.74817e-13
4.9898e-13
7.47965e-13
1.04671e-12
1.73278e-12
2.65187e-12
5.22293e-12
9.04659e-12
2.36267e-11
4.61439e-11
1.59539e-10
9.8285e-11
-3.50171e-10
-3.68648e-10
9.8952e-11
1.66573e-10
5.08134e-11
2.64379e-11
1.03203e-11
5.97512e-12
3.05105e-12
2.00144e-12
1.20934e-12
8.58977e-13
5.74411e-13
4.32757e-13
3.11927e-13
2.41838e-13
1.85882e-13
1.45258e-13
1.14801e-13
8.91234e-14
7.42783e-14
5.6606e-14
4.74143e-14
3.89387e-14
3.41115e-14
2.80852e-14
2.30085e-14
1.48511e-14
2.03023e-14
1.57965e-14
1.39062e-14
1.3524e-14
1.27573e-14
1.50267e-14
2.02542e-14
2.24792e-14
2.52451e-14
3.4263e-14
4.18336e-14
4.56237e-14
5.87994e-14
6.83609e-14
8.73145e-14
1.15865e-13
1.45588e-13
1.80918e-13
2.40931e-13
3.12154e-13
4.34228e-13
5.75815e-13
8.55281e-13
1.20709e-12
2.00471e-12
3.04915e-12
5.9715e-12
1.03232e-11
2.6443e-11
5.08156e-11
1.66567e-10
9.89524e-11
-3.68643e-10
-3.86351e-10
9.87967e-11
1.7299e-10
5.56305e-11
2.9428e-11
1.17101e-11
6.80012e-12
3.49919e-12
2.29194e-12
1.38822e-12
9.88929e-13
6.61967e-13
4.99161e-13
3.5714e-13
2.76995e-13
2.08017e-13
1.69029e-13
1.28446e-13
1.06785e-13
8.34619e-14
6.83011e-14
5.70173e-14
4.5424e-14
3.57269e-14
2.60712e-14
2.55876e-14
2.42507e-14
1.59635e-14
1.70102e-14
1.60975e-14
1.56427e-14
1.90866e-14
2.03309e-14
1.79789e-14
2.35985e-14
3.13549e-14
3.62762e-14
4.32e-14
5.74135e-14
6.80837e-14
8.7361e-14
1.08e-13
1.26694e-13
1.68933e-13
2.12114e-13
2.77958e-13
3.54691e-13
4.9636e-13
6.63426e-13
9.88807e-13
1.39072e-12
2.29355e-12
3.50076e-12
6.80194e-12
1.17063e-11
2.94223e-11
5.5629e-11
1.72993e-10
9.8799e-11
-3.86354e-10
-4.03215e-10
9.77939e-11
1.78759e-10
6.05714e-11
3.25772e-11
1.32243e-11
7.7185e-12
3.99568e-12
2.61956e-12
1.58854e-12
1.13058e-12
7.61782e-13
5.67811e-13
4.07784e-13
3.19968e-13
2.40009e-13
1.90928e-13
1.4658e-13
1.19375e-13
1.00231e-13
8.17028e-14
6.1722e-14
5.30516e-14
4.3087e-14
3.7931e-14
2.95423e-14
2.34263e-14
2.45612e-14
1.84315e-14
1.79067e-14
2.12594e-14
1.90599e-14
2.08232e-14
2.89586e-14
2.95727e-14
3.71408e-14
4.13855e-14
5.11068e-14
6.24968e-14
7.95031e-14
9.37218e-14
1.18988e-13
1.5053e-13
1.90254e-13
2.38028e-13
3.17904e-13
4.08439e-13
5.70108e-13
7.5878e-13
1.13333e-12
1.58923e-12
2.61535e-12
3.99474e-12
7.71784e-12
1.32259e-11
3.25804e-11
6.05712e-11
1.78759e-10
9.77902e-11
-4.03214e-10
-4.19161e-10
9.59338e-11
1.83817e-10
6.56026e-11
3.58902e-11
1.4864e-11
8.71182e-12
4.53929e-12
2.97873e-12
1.81616e-12
1.28896e-12
8.6144e-13
6.51156e-13
4.66879e-13
3.66356e-13
2.73566e-13
2.19193e-13
1.7409e-13
1.40176e-13
1.03013e-13
8.68164e-14
7.37846e-14
5.84578e-14
4.80877e-14
4.10882e-14
3.49273e-14
3.1399e-14
2.23933e-14
2.31934e-14
2.31437e-14
2.01175e-14
2.25095e-14
2.67985e-14
2.73623e-14
3.39009e-14
3.98348e-14
5.23893e-14
6.06989e-14
7.1311e-14
8.91582e-14
1.13977e-13
1.40628e-13
1.72065e-13
2.17309e-13
2.74178e-13
3.68908e-13
4.68799e-13
6.54243e-13
8.69011e-13
1.28737e-12
1.81461e-12
2.9799e-12
4.54323e-12
8.71453e-12
1.48618e-11
3.58868e-11
6.56027e-11
1.83811e-10
9.59359e-11
-4.19157e-10
-4.34112e-10
9.32026e-11
1.88122e-10
7.06952e-11
3.93522e-11
1.66337e-11
9.79994e-12
5.14764e-12
3.37837e-12
2.06239e-12
1.46869e-12
9.93783e-13
7.44266e-13
5.38361e-13
4.11617e-13
3.18219e-13
2.49479e-13
1.91522e-13
1.58369e-13
1.32698e-13
1.05936e-13
8.43384e-14
6.85284e-14
5.7545e-14
4.62922e-14
3.86563e-14
3.31153e-14
3.46642e-14
2.93409e-14
2.56654e-14
2.90043e-14
2.80031e-14
2.94865e-14
3.4578e-14
3.91185e-14
4.47667e-14
5.66537e-14
7.01026e-14
8.36949e-14
1.01859e-13
1.24342e-13
1.57417e-13
1.93208e-13
2.50363e-13
3.14588e-13
4.11712e-13
5.35049e-13
7.40651e-13
9.87908e-13
1.46975e-12
2.06368e-12
3.38167e-12
5.14517e-12
9.79692e-12
1.66385e-11
3.93548e-11
7.06975e-11
1.88128e-10
9.32047e-11
-4.34117e-10
-4.48027e-10
8.96135e-11
1.9165e-10
7.58185e-11
4.29562e-11
1.85393e-11
1.09838e-11
5.81487e-12
3.82341e-12
2.3445e-12
1.66038e-12
1.11958e-12
8.40741e-13
6.00145e-13
4.7459e-13
3.51909e-13
2.83645e-13
2.21982e-13
1.7957e-13
1.40153e-13
1.16795e-13
9.4539e-14
7.71059e-14
6.51022e-14
5.43571e-14
4.09021e-14
3.97346e-14
3.19462e-14
3.12065e-14
3.19982e-14
2.99997e-14
3.332e-14
3.69514e-14
3.80713e-14
4.33882e-14
5.61809e-14
6.29928e-14
8.03381e-14
9.75306e-14
1.16169e-13
1.42031e-13
1.80666e-13
2.20281e-13
2.86239e-13
3.51503e-13
4.71022e-13
6.07197e-13
8.41098e-13
1.12099e-12
1.66144e-12
2.34262e-12
3.81485e-12
5.81391e-12
1.09808e-11
1.85347e-11
4.29525e-11
7.58167e-11
1.91646e-10
8.96139e-11
-4.48021e-10
-4.60805e-10
8.51619e-11
1.94345e-10
8.09313e-11
4.6685e-11
2.05768e-11
1.22577e-11
6.54052e-12
4.30113e-12
2.64454e-12
1.88333e-12
1.27428e-12
9.54282e-13
6.91847e-13
5.36016e-13
4.05841e-13
3.26323e-13
2.55349e-13
2.07002e-13
1.6455e-13
1.33347e-13
1.106e-13
9.22191e-14
7.57502e-14
6.15268e-14
5.79887e-14
4.31379e-14
4.2285e-14
3.4768e-14
3.56761e-14
3.19602e-14
3.54439e-14
3.41601e-14
4.6744e-14
5.47506e-14
6.30012e-14
7.59333e-14
8.84148e-14
1.08914e-13
1.37977e-13
1.64997e-13
2.02916e-13
2.50768e-13
3.23285e-13
4.09569e-13
5.39683e-13
6.84896e-13
9.56574e-13
1.27386e-12
1.88427e-12
2.64917e-12
4.31003e-12
6.54317e-12
1.22582e-11
2.05821e-11
4.6688e-11
8.09317e-11
1.94347e-10
8.51592e-11
-4.6081e-10
-4.72435e-10
7.98516e-11
1.96193e-10
8.599e-11
5.0525e-11
2.27516e-11
1.36364e-11
7.3439e-12
4.83958e-12
2.98927e-12
2.12487e-12
1.43731e-12
1.08097e-12
7.79143e-13
6.05522e-13
4.56958e-13
3.66744e-13
2.84519e-13
2.2868e-13
1.87322e-13
1.56275e-13
1.22701e-13
1.03762e-13
8.15229e-14
7.11055e-14
5.79119e-14
5.40469e-14
4.50587e-14
4.66125e-14
4.11447e-14
4.42444e-14
4.11095e-14
5.23457e-14
5.15962e-14
5.70552e-14
7.06328e-14
8.20013e-14
1.02537e-13
1.21738e-13
1.52738e-13
1.84049e-13
2.32264e-13
2.90127e-13
3.63984e-13
4.55682e-13
6.0454e-13
7.78004e-13
1.07642e-12
1.43918e-12
2.1221e-12
2.99017e-12
4.83282e-12
7.33825e-12
1.36402e-11
2.27453e-11
5.05224e-11
8.59878e-11
1.9619e-10
7.98525e-11
-4.72428e-10
-4.82829e-10
7.37146e-11
1.97144e-10
9.09538e-11
5.4448e-11
2.50541e-11
1.51158e-11
8.20786e-12
5.41962e-12
3.35994e-12
2.38505e-12
1.62227e-12
1.21346e-12
8.76553e-13
6.84407e-13
5.18207e-13
4.10033e-13
3.24787e-13
2.6423e-13
2.08746e-13
1.67599e-13
1.38007e-13
1.12555e-13
9.64513e-14
8.47725e-14
6.93301e-14
5.83778e-14
5.65306e-14
4.55834e-14
4.58717e-14
4.50551e-14
4.70013e-14
5.13994e-14
5.98962e-14
7.09804e-14
8.3468e-14
9.72486e-14
1.19298e-13
1.42168e-13
1.68568e-13
2.1247e-13
2.62902e-13
3.21192e-13
4.13861e-13
5.16058e-13
6.85525e-13
8.83602e-13
1.2162e-12
1.62126e-12
2.38892e-12
3.35771e-12
5.42298e-12
8.21264e-12
1.51149e-11
2.50617e-11
5.4449e-11
9.09548e-11
1.97142e-10
7.37123e-11
-4.82832e-10
-4.91959e-10
6.67584e-11
1.972e-10
9.57883e-11
5.84485e-11
2.74898e-11
1.67063e-11
9.15775e-12
6.05645e-12
3.77177e-12
2.68367e-12
1.82622e-12
1.36753e-12
9.93426e-13
7.6844e-13
5.84161e-13
4.69849e-13
3.62881e-13
2.98973e-13
2.36957e-13
1.98462e-13
1.59594e-13
1.29769e-13
1.14998e-13
9.13555e-14
7.60422e-14
6.91541e-14
5.83362e-14
5.66696e-14
5.22988e-14
5.1006e-14
5.79221e-14
6.28562e-14
6.79987e-14
7.86656e-14
8.89821e-14
1.09799e-13
1.28433e-13
1.61655e-13
1.97589e-13
2.32794e-13
2.96124e-13
3.62816e-13
4.69555e-13
5.83571e-13
7.68681e-13
9.89897e-13
1.3701e-12
1.82567e-12
2.67963e-12
3.76846e-12
6.05604e-12
9.15295e-12
1.67042e-11
2.74828e-11
5.84508e-11
9.57906e-11
1.97203e-10
6.67667e-11
-4.91959e-10
-4.99789e-10
5.904e-11
1.96341e-10
1.00436e-10
6.24924e-11
3.00572e-11
1.83923e-11
1.01769e-11
6.74487e-12
4.22184e-12
3.00302e-12
2.05114e-12
1.53854e-12
1.11249e-12
8.65443e-13
6.55241e-13
5.20876e-13
4.08959e-13
3.31917e-13
2.68164e-13
2.1774e-13
1.78169e-13
1.51457e-13
1.19501e-13
1.03043e-13
8.98594e-14
7.38624e-14
6.67114e-14
6.4821e-14
6.21881e-14
6.26266e-14
6.19967e-14
6.25171e-14
7.80343e-14
8.79665e-14
1.12287e-13
1.25032e-13
1.54494e-13
1.7797e-13
2.1917e-13
2.70194e-13
3.34533e-13
4.13817e-13
5.25803e-13
6.59644e-13
8.65749e-13
1.112e-12
1.5348e-12
2.04803e-12
3.00907e-12
4.22289e-12
6.74562e-12
1.01789e-11
1.83944e-11
3.00528e-11
6.2491e-11
1.00436e-10
1.96333e-10
5.90317e-11
-4.99788e-10
-5.06278e-10
5.05601e-11
1.94527e-10
1.04856e-10
6.65611e-11
3.27298e-11
2.01954e-11
1.12821e-11
7.50111e-12
4.7089e-12
3.3569e-12
2.28896e-12
1.71841e-12
1.25216e-12
9.76036e-13
7.41178e-13
5.92127e-13
4.67145e-13
3.77893e-13
2.97164e-13
2.47287e-13
2.02744e-13
1.70719e-13
1.37886e-13
1.22159e-13
9.86737e-14
9.39233e-14
8.27812e-14
6.69561e-14
6.99059e-14
6.72611e-14
7.0359e-14
7.75809e-14
8.67846e-14
9.83124e-14
1.08897e-13
1.37075e-13
1.59103e-13
2.01017e-13
2.5023e-13
3.04608e-13
3.76708e-13
4.64373e-13
5.81658e-13
7.37959e-13
9.73059e-13
1.25134e-12
1.71974e-12
2.29189e-12
3.34958e-12
4.71176e-12
7.49685e-12
1.12829e-11
2.01957e-11
3.27377e-11
6.65599e-11
1.04855e-10
1.94538e-10
5.05644e-11
-5.0628e-10
-5.11414e-10
4.13918e-11
1.91811e-10
1.09008e-10
7.06096e-11
3.55254e-11
2.20964e-11
1.24758e-11
8.3146e-12
5.25466e-12
3.74058e-12
2.56865e-12
1.92646e-12
1.4025e-12
1.08682e-12
8.24268e-13
6.62976e-13
5.13177e-13
4.17362e-13
3.43406e-13
2.81019e-13
2.3462e-13
1.87706e-13
1.60817e-13
1.30019e-13
1.12112e-13
9.16857e-14
8.47195e-14
8.84787e-14
7.66072e-14
7.98264e-14
8.10622e-14
9.31008e-14
9.86836e-14
1.19039e-13
1.37564e-13
1.58502e-13
1.93205e-13
2.2575e-13
2.72402e-13
3.3021e-13
4.21609e-13
5.16958e-13
6.65288e-13
8.25296e-13
1.09233e-12
1.40293e-12
1.92413e-12
2.57426e-12
3.74093e-12
5.25002e-12
8.31647e-12
1.24742e-11
2.20924e-11
3.55188e-11
7.0611e-11
1.0901e-10
1.918e-10
4.13909e-11
-5.11406e-10
-5.15163e-10
3.15692e-11
1.88131e-10
1.12832e-10
7.46327e-11
3.84198e-11
2.41062e-11
1.37471e-11
9.19255e-12
5.83448e-12
4.16039e-12
2.86416e-12
2.14287e-12
1.56256e-12
1.22113e-12
9.2731e-13
7.3342e-13
5.86333e-13
4.72453e-13
3.78674e-13
3.09844e-13
2.4923e-13
2.14914e-13
1.76148e-13
1.54011e-13
1.34786e-13
1.18857e-13
1.02635e-13
8.89119e-14
9.14944e-14
9.06977e-14
9.201e-14
9.70476e-14
1.15602e-13
1.24491e-13
1.47928e-13
1.76329e-13
2.16513e-13
2.59112e-13
3.14132e-13
3.84285e-13
4.6901e-13
5.78764e-13
7.41507e-13
9.2475e-13
1.21503e-12
1.56711e-12
2.14714e-12
2.85696e-12
4.16895e-12
5.83306e-12
9.19122e-12
1.37494e-11
2.41078e-11
3.84207e-11
7.46317e-11
1.12828e-10
1.88137e-10
3.15663e-11
-5.1517e-10
-5.17531e-10
2.11507e-11
1.83551e-10
1.16289e-10
7.85797e-11
4.14054e-11
2.62057e-11
1.51143e-11
1.01411e-11
6.46813e-12
4.61703e-12
3.18822e-12
2.39008e-12
1.74801e-12
1.35453e-12
1.04052e-12
8.32462e-13
6.48134e-13
5.32534e-13
4.23195e-13
3.48797e-13
2.90343e-13
2.31726e-13
2.0067e-13
1.63496e-13
1.35554e-13
1.23662e-13
1.12885e-13
1.03335e-13
1.02927e-13
9.71403e-14
1.06527e-13
1.15704e-13
1.2497e-13
1.46235e-13
1.74594e-13
2.00386e-13
2.38145e-13
2.86453e-13
3.49146e-13
4.25933e-13
5.30798e-13
6.47945e-13
8.24612e-13
1.04251e-12
1.35989e-12
1.74605e-12
2.39358e-12
3.19308e-12
4.61955e-12
6.47275e-12
1.01427e-11
1.51117e-11
2.62085e-11
4.14077e-11
7.8581e-11
1.1629e-10
1.83543e-10
2.11473e-11
-5.17532e-10
-5.18513e-10
1.01978e-11
1.7805e-10
1.19334e-10
8.24231e-11
4.44617e-11
2.84211e-11
1.65673e-11
1.11666e-11
7.16087e-12
5.13064e-12
3.54284e-12
2.66537e-12
1.95209e-12
1.51968e-12
1.14924e-12
9.22766e-13
7.2824e-13
5.9529e-13
4.78895e-13
3.99425e-13
3.20262e-13
2.79128e-13
2.26945e-13
1.9715e-13
1.69164e-13
1.40943e-13
1.2938e-13
1.26142e-13
1.11038e-13
1.18353e-13
1.20158e-13
1.24903e-13
1.4181e-13
1.65103e-13
1.86784e-13
2.23838e-13
2.61655e-13
3.21668e-13
3.92338e-13
4.7201e-13
5.90367e-13
7.31284e-13
9.25403e-13
1.15295e-12
1.51448e-12
1.94762e-12
2.659e-12
3.54223e-12
5.12332e-12
7.1643e-12
1.11572e-11
1.6573e-11
2.84175e-11
4.44576e-11
8.24246e-11
1.19341e-10
1.78059e-10
1.01996e-11
-5.18509e-10
-5.18117e-10
-1.23112e-12
1.71677e-10
1.21929e-10
8.61306e-11
4.7589e-11
3.07109e-11
1.81114e-11
1.22409e-11
7.9052e-12
5.65575e-12
3.92909e-12
2.95679e-12
2.1642e-12
1.68444e-12
1.29578e-12
1.02628e-12
8.12064e-13
6.55049e-13
5.29332e-13
4.36396e-13
3.63823e-13
2.91942e-13
2.46971e-13
2.12269e-13
1.80844e-13
1.64393e-13
1.45989e-13
1.32379e-13
1.32329e-13
1.29739e-13
1.40013e-13
1.47688e-13
1.65387e-13
1.82085e-13
2.15506e-13
2.54805e-13
3.07201e-13
3.60592e-13
4.37441e-13
5.38055e-13
6.61077e-13
8.12764e-13
1.03074e-12
1.28941e-12
1.68912e-12
2.17063e-12
2.95169e-12
3.9318e-12
5.66063e-12
7.89971e-12
1.22556e-11
1.81068e-11
3.07116e-11
4.75926e-11
8.61281e-11
1.21918e-10
1.71671e-10
-1.22796e-12
-5.18112e-10
-5.16341e-10
-1.30478e-11
1.64441e-10
1.24018e-10
8.96574e-11
5.07396e-11
3.30839e-11
1.97438e-11
1.34157e-11
8.70451e-12
6.25525e-12
4.3577e-12
3.26412e-12
2.40703e-12
1.87064e-12
1.43271e-12
1.15203e-12
9.05327e-13
7.32488e-13
5.97875e-13
4.89007e-13
4.01686e-13
3.40879e-13
2.7866e-13
2.42612e-13
2.13837e-13
1.87179e-13
1.60369e-13
1.4333e-13
1.45294e-13
1.42297e-13
1.48882e-13
1.64452e-13
1.74115e-13
2.01862e-13
2.36387e-13
2.77372e-13
3.34262e-13
4.02841e-13
4.91019e-13
5.90733e-13
7.38679e-13
9.0357e-13
1.14618e-12
1.42942e-12
1.86797e-12
2.40715e-12
3.27645e-12
4.35691e-12
6.24581e-12
8.70992e-12
1.34113e-11
1.97517e-11
3.30944e-11
5.07379e-11
8.9657e-11
1.24026e-10
1.64443e-10
-1.30571e-11
-5.16349e-10
-5.13233e-10
-2.52098e-11
1.56395e-10
1.25581e-10
9.29753e-11
5.39323e-11
3.55602e-11
2.14738e-11
1.46551e-11
9.57861e-12
6.88473e-12
4.81391e-12
3.62581e-12
2.66598e-12
2.08352e-12
1.59431e-12
1.26498e-12
1.00564e-12
8.23837e-13
6.55077e-13
5.51005e-13
4.49334e-13
3.79307e-13
3.20067e-13
2.68129e-13
2.25762e-13
1.93637e-13
1.89741e-13
1.77069e-13
1.6285e-13
1.67949e-13
1.60588e-13
1.78073e-13
2.11412e-13
2.38368e-13
2.73145e-13
3.21869e-13
3.75489e-13
4.48677e-13
5.46633e-13
6.66396e-13
8.13748e-13
1.00516e-12
1.27075e-12
1.60071e-12
2.08358e-12
2.67208e-12
3.62074e-12
4.81151e-12
6.89412e-12
9.57373e-12
1.46513e-11
2.14735e-11
3.55471e-11
5.39262e-11
9.29733e-11
1.25578e-10
1.56396e-10
-2.52003e-11
-5.13231e-10
-5.08812e-10
-3.76248e-11
1.47587e-10
1.26574e-10
9.60366e-11
5.70951e-11
3.80551e-11
2.32642e-11
1.59589e-11
1.04915e-11
7.56393e-12
5.30894e-12
4.00452e-12
2.95746e-12
2.29896e-12
1.76732e-12
1.42085e-12
1.11062e-12
9.09124e-13
7.378e-13
5.99141e-13
4.99023e-13
4.14236e-13
3.51099e-13
3.03344e-13
2.56901e-13
2.40406e-13
1.99057e-13
1.88285e-13
1.90181e-13
1.82424e-13
2.02595e-13
2.13427e-13
2.23163e-13
2.51887e-13
2.95909e-13
3.47085e-13
4.21581e-13
4.97551e-13
6.07883e-13
7.27407e-13