/*--------------------------------*- C++ -*----------------------------------*\
| =========                 |                                                 |
| \\      /  F ield         | foam-extend: Open Source CFD                    |
|  \\    /   O peration     | Version:     4.0                                |
|   \\  /    A nd           | Web:         http://www.foam-extend.org         |
|    \\/     M anipulation  |                                                 |
\*---------------------------------------------------------------------------*/
FoamFile
{
    version     2.0;
    format      ascii;
    class       surfaceScalarField;
    location    "7";
    object      phi;
}
// * * * * * * * * * * * * * * * * * * * * * * * * * * * * * * * * * * * * * //

dimensions      [0 3 -1 0 0 0 0];

internalField   nonuniform List<scalar> 
13744
(
-1.60723e-08
1.6072e-08
8.15935e-09
-2.42316e-08
9.43e-11
8.06506e-09
2.86513e-11
6.56453e-11
2.78004e-12
2.58702e-11
8.46604e-13
1.93334e-12
-2.51401e-13
1.10023e-12
-2.1183e-13
-3.84137e-14
-1.46941e-13
-6.52811e-14
2.72644e-15
-1.54099e-13
1.29274e-13
-1.25899e-13
2.42273e-13
-1.15241e-13
3.35069e-13
-9.4369e-14
4.04955e-13
-7.06102e-14
4.59924e-13
-5.52891e-14
4.97307e-13
-4.13003e-14
5.19376e-13
-2.64233e-14
5.29158e-13
-9.32587e-15
5.27417e-13
4.88498e-15
5.1279e-13
1.42109e-14
4.90249e-13
2.26485e-14
4.5869e-13
3.30846e-14
4.17732e-13
4.13003e-14
3.71397e-13
4.39648e-14
3.19184e-13
5.06262e-14
2.60344e-13
5.72875e-14
1.99213e-13
6.32827e-14
1.35152e-13
6.77236e-14
6.7347e-14
6.61693e-14
-1.99301e-15
6.88338e-14
-6.20738e-14
6.06182e-14
-1.39666e-13
7.39409e-14
-1.99057e-13
5.79536e-14
-2.55345e-13
5.59552e-14
-3.23973e-13
6.88338e-14
-3.71273e-13
5.10703e-14
-4.12717e-13
3.90799e-14
-4.6351e-13
5.39568e-14
-4.90214e-13
2.84217e-14
-5.07877e-13
1.70974e-14
-5.3233e-13
2.30926e-14
-5.29199e-13
-4.44089e-15
-5.1459e-13
-1.62093e-14
-5.02357e-13
-1.39888e-14
-4.60084e-13
-4.01901e-14
-4.00214e-13
-6.01741e-14
-3.40173e-13
-6.28386e-14
-2.42461e-13
-9.39249e-14
-1.24517e-13
-1.16351e-13
-7.78085e-15
-1.19016e-13
1.46773e-13
-1.53211e-13
2.1653e-13
-6.92779e-14
2.46243e-13
-2.9976e-14
-8.46893e-13
1.09024e-12
-2.7754e-12
1.93001e-12
-2.86565e-11
2.588e-11
-9.43005e-11
6.56442e-11
-8.15935e-09
8.06505e-09
1.60723e-08
-2.42316e-08
1.60723e-08
7.76541e-08
-6.15821e-08
1.08413e-08
4.25812e-08
3.05989e-10
1.86003e-08
9.901e-11
2.72625e-10
1.47189e-11
1.10166e-10
6.72275e-12
9.93317e-12
1.62102e-12
6.19604e-12
1.03548e-12
5.39901e-13
5.83391e-13
3.86358e-13
7.23756e-13
-2.83884e-13
8.21746e-13
-2.2804e-13
1.00306e-12
-2.93765e-13
1.13233e-12
-2.2482e-13
1.26317e-12
-1.99174e-13
1.34685e-12
-1.4011e-13
1.40886e-12
-9.9476e-14
1.4408e-12
-4.76286e-14
1.44392e-12
-1.24345e-14
1.41836e-12
2.83107e-14
1.37434e-12
5.81757e-14
1.30215e-12
9.70335e-14
1.21002e-12
1.19571e-13
1.10323e-12
1.45994e-13
9.75701e-13
1.77081e-13
8.3364e-13
1.95843e-13
6.84275e-13
2.10276e-13
5.20674e-13
2.22933e-13
3.49928e-13
2.32259e-13
1.79918e-13
2.42473e-13
1.51037e-15
2.51577e-13
-1.9011e-13
2.53908e-13
-3.35625e-13
2.25819e-13
-5.20258e-13
2.43361e-13
-6.97506e-13
2.32259e-13
-8.19782e-13
1.9662e-13
-9.75372e-13
2.00062e-13
-1.11645e-12
1.86851e-13
-1.19625e-12
1.26343e-13
-1.30203e-12
1.36113e-13
-1.38784e-12
1.02029e-13
-1.40485e-12
4.26326e-14
-1.44405e-12
3.83027e-14
-1.45461e-12
-4.44089e-16
-1.39571e-12
-7.04992e-14
-1.34728e-12
-8.4488e-14
-1.27714e-12
-1.29119e-13
-1.11929e-12
-2.14606e-13
-1.00356e-12
-2.16827e-13
-8.35705e-13
-2.921e-13
-7.10609e-13
-2.3892e-13
-5.83878e-13
-2.84772e-13
-1.04955e-12
3.9968e-13
-1.60817e-12
5.30576e-13
-6.72351e-12
6.20992e-12
-1.47332e-11
9.94027e-12
-9.8997e-11
1.10144e-10
-3.05989e-10
2.72637e-10
-1.08413e-08
1.86003e-08
-7.76541e-08
4.25812e-08
-6.15818e-08
5.15259e-08
-1.13108e-07
1.83389e-08
7.57682e-08
5.36068e-10
3.64031e-08
1.82951e-10
6.25752e-10
3.52329e-11
2.5788e-10
1.77633e-11
2.73901e-11
6.61984e-12
1.73373e-11
4.35067e-12
2.82216e-12
2.64743e-12
2.09158e-12
2.34262e-12
1.51268e-14
2.07419e-12
4.04954e-14
2.11028e-12
-3.27793e-13
2.10869e-12
-2.18797e-13
2.1784e-12
-2.74974e-13
2.2017e-12
-1.59678e-13
2.22777e-12
-1.18322e-13
2.21592e-12
-4.15501e-14
2.18417e-12
2.28983e-14
2.11725e-12
9.40914e-14
2.02901e-12
1.45856e-13
1.90858e-12
2.14079e-13
1.76501e-12
2.63262e-13
1.59895e-12
3.17218e-13
1.41062e-12
3.6332e-13
1.20328e-12
4.03538e-13
9.83175e-13
4.2627e-13
7.48028e-13
4.59022e-13
5.03716e-13
4.80921e-13
2.5598e-13
4.87749e-13
-7.00076e-16
5.0604e-13
-2.59276e-13
5.0987e-13
-4.95755e-13
4.64156e-13
-7.47384e-13
4.99573e-13
-9.89404e-13
4.81143e-13
-1.19604e-12
3.99292e-13
-1.4101e-12
4.12892e-13
-1.6052e-12
3.76116e-13
-1.7579e-12
2.8233e-13
-1.90837e-12
2.77084e-13
-2.03568e-12
2.35811e-13
-2.11054e-12
1.20653e-13
-2.18436e-12
1.09496e-13
-2.22305e-12
3.97182e-14
-2.22159e-12
-7.56062e-14
-2.20231e-12
-1.16573e-13
-2.18576e-12
-1.54793e-13
-2.10267e-12
-2.99011e-13
-2.11103e-12
-2.03254e-13
-2.08155e-12
-3.03646e-13
-2.33652e-12
1.44884e-14
-2.64815e-12
3.53606e-14
-4.3582e-12
2.10762e-12
-6.61415e-12
2.78308e-12
-1.77644e-11
1.73618e-11
-3.52407e-11
2.74067e-11
-1.82945e-10
2.57848e-10
-5.36069e-10
6.25763e-10
-1.83389e-08
3.64031e-08
-5.15259e-08
7.57682e-08
-1.13108e-07
1.29828e-08
-1.26091e-07
1.5286e-08
7.34651e-08
7.74567e-10
5.09145e-08
2.77153e-10
1.12316e-09
6.36475e-11
4.71387e-10
3.33548e-11
5.77009e-11
1.44597e-11
3.62462e-11
9.50487e-12
7.77525e-12
5.92671e-12
5.67209e-12
4.76782e-12
1.17633e-12
3.85127e-12
9.64499e-13
3.54338e-12
-2.14568e-14
3.26634e-12
5.60645e-14
3.16884e-12
-1.69266e-13
3.05323e-12
-4.00218e-14
2.98584e-12
-6.18429e-14
2.88858e-12
4.98438e-14
2.79335e-12
1.08634e-13
2.66689e-12
2.24624e-13
2.52483e-12
2.89385e-13
2.35392e-12
3.93661e-13
2.16283e-12
4.56349e-13
1.94645e-12
5.3044e-13
1.71082e-12
5.95761e-13
1.45533e-12
6.6225e-13
1.18446e-12
7.04657e-13
9.00181e-13
7.4671e-13
6.06316e-13
7.72342e-13
3.05587e-13
7.84655e-13
-1.57112e-15
8.03977e-13
-3.02809e-13
8.16408e-13
-6.05385e-13
7.50792e-13
-8.99321e-13
7.86876e-13
-1.18333e-12
7.60685e-13
-1.4551e-12
6.59941e-13
-1.71013e-12
6.74176e-13
-1.94537e-12
6.18675e-13
-2.16275e-12
5.02254e-13
-2.35359e-12
4.73351e-13
-2.52428e-12
4.01835e-13
-2.66735e-12
2.51009e-13
-2.79358e-12
2.37097e-13
-2.88861e-12
1.19208e-13
-2.98696e-12
2.10439e-14
-3.05396e-12
-4.5932e-14
-3.16915e-12
-1.78989e-14
-3.26766e-12
-2.06953e-13
-3.5443e-12
7.3266e-14
-3.85163e-12
-1.01134e-14
-4.76908e-12
9.34489e-13
-5.92762e-12
1.18666e-12
-9.50545e-12
5.68047e-12
-1.44614e-11
7.7387e-12
-3.33562e-11
3.62544e-11
-6.36484e-11
5.77063e-11
-2.77155e-10
4.71353e-10
-7.74568e-10
1.12317e-09
-1.5286e-08
5.09145e-08
-1.29828e-08
7.34651e-08
-1.2609e-07
9.73888e-09
-1.3583e-07
1.00094e-08
7.31946e-08
1.02754e-09
5.98963e-08
3.79078e-10
1.77161e-09
9.85422e-11
7.5192e-10
5.26329e-11
1.03592e-10
2.45914e-11
6.4284e-11
1.61421e-11
1.62167e-11
1.0191e-11
1.16154e-11
7.85441e-12
3.5091e-12
6.07126e-12
2.7462e-12
5.26411e-12
7.85992e-13
4.59904e-12
7.22451e-13
4.25427e-12
1.68945e-13
3.93829e-12
2.61775e-13
3.73202e-12
1.54287e-13
3.51845e-12
2.66375e-13
3.33595e-12
2.96727e-13
3.13379e-12
4.21613e-13
2.93062e-12
4.95557e-13
2.70461e-12
6.07463e-13
2.4658e-12
6.98909e-13
2.20512e-12
7.87839e-13
1.92879e-12
8.74649e-13
1.63427e-12
9.52839e-13
1.32635e-12
1.00744e-12
1.00576e-12
1.05974e-12
6.76337e-13
1.11173e-12
3.40368e-13
1.1249e-12
-6.09539e-16
1.15242e-12
-3.38388e-13
1.14291e-12
-6.74902e-13
1.10202e-12
-1.00469e-12
1.12535e-12
-1.32548e-12
1.07909e-12
-1.63343e-12
9.81796e-13
-1.92792e-12
9.69987e-13
-2.20435e-12
8.80542e-13
-2.46516e-12
7.55526e-13
-2.70417e-12
7.17605e-13
-2.93043e-12
6.20573e-13
-3.13379e-12
4.66597e-13
-3.3362e-12
4.35873e-13
-3.51895e-12
3.15827e-13
-3.73279e-12
2.477e-13
-3.93912e-12
1.62995e-13
-4.25511e-12
2.7386e-13
-4.60004e-12
1.40825e-13
-5.26518e-12
7.36655e-13
-6.07218e-12
7.926e-13
-7.85543e-12
2.70156e-12
-1.01921e-11
3.52694e-12
-1.61432e-11
1.16353e-11
-2.45929e-11
1.61944e-11
-5.26346e-11
6.42952e-11
-9.85438e-11
1.03612e-10
-3.7908e-10
7.51892e-10
-1.02754e-09
1.77164e-09
-1.00094e-08
5.98963e-08
-9.73888e-09
7.31946e-08
-1.35829e-07
1.59676e-08
-1.51797e-07
8.6135e-09
8.05487e-08
1.29612e-09
6.72137e-08
4.87416e-10
2.58032e-09
1.38849e-10
1.10049e-09
7.49687e-11
1.6748e-10
3.66186e-11
1.02624e-10
2.40053e-11
2.88299e-11
1.52754e-11
2.03557e-11
1.15006e-11
7.2877e-12
8.67502e-12
5.57937e-12
7.24606e-12
2.20903e-12
6.10464e-12
1.86705e-12
5.44856e-12
8.26315e-13
4.88441e-12
8.37296e-13
4.50373e-12
5.27906e-13
4.14796e-12
6.31623e-13
3.85913e-12
5.81679e-13
3.56789e-12
7.18056e-13
3.29521e-12
7.65308e-13
3.00915e-12
9.05633e-13
2.72072e-12
9.87026e-13
2.41688e-12
1.09456e-12
2.10271e-12
1.19054e-12
1.77383e-12
1.27867e-12
1.43532e-12
1.3444e-12
1.08562e-12
1.41307e-12
7.28674e-13
1.45699e-12
3.66626e-13
1.48112e-12
3.23738e-17
1.51215e-12
-3.65975e-13
1.51286e-12
-7.25511e-13
1.46304e-12
-1.08434e-12
1.47357e-12
-1.43582e-12
1.43427e-12
-1.77126e-12
1.30949e-12
-2.1017e-12
1.29596e-12
-2.41751e-12
1.20796e-12
-2.71839e-12
1.06301e-12
-3.00858e-12
1.00437e-12
-3.29651e-12
9.15802e-13
-3.56631e-12
7.36211e-13
-3.85938e-12
7.26346e-13
-4.15004e-12
6.04457e-13
-4.50302e-12
5.96526e-13
-4.88531e-12
5.4453e-13
-5.45102e-12
8.57666e-13
-6.10417e-12
7.99876e-13
-7.24726e-12
1.87796e-12
-8.67763e-12
2.24105e-12
-1.15002e-11
5.53601e-12
-1.52766e-11
7.30055e-12
-2.40082e-11
2.03659e-11
-3.66187e-11
2.87995e-11
-7.49706e-11
1.02643e-10
-1.38852e-10
1.67494e-10
-4.87416e-10
1.10045e-09
-1.29612e-09
2.58034e-09
-8.6135e-09
6.72137e-08
-1.59676e-08
8.05486e-08
-1.51797e-07
1.67832e-08
-1.6858e-07
8.98004e-09
8.83518e-08
1.57169e-09
7.46221e-08
6.01559e-10
3.55045e-09
1.83903e-10
1.51816e-09
9.99867e-11
2.51394e-10
5.03113e-11
1.52309e-10
3.2947e-11
4.61992e-11
2.10861e-11
3.22101e-11
1.56495e-11
1.27315e-11
1.16309e-11
9.58345e-12
9.47655e-12
4.36939e-12
7.78449e-12
3.55136e-12
6.76266e-12
1.85382e-12
5.91022e-12
1.68796e-12
5.32537e-12
1.10868e-12
4.80455e-12
1.13505e-12
4.39291e-12
1.0008e-12
4.00055e-12
1.10284e-12
3.64953e-12
1.1156e-12
3.29786e-12
1.25052e-12
2.95669e-12
1.32295e-12
2.608e-12
1.4478e-12
2.2564e-12
1.53744e-12
1.89484e-12
1.6485e-12
1.52798e-12
1.71482e-12
1.15267e-12
1.79204e-12
7.72362e-13
1.83969e-12
3.88205e-13
1.87037e-12
1.65348e-16
1.90589e-12
-3.87443e-13
1.90776e-12
-7.68882e-13
1.84106e-12
-1.15118e-12
1.86635e-12
-1.5284e-12
1.81163e-12
-1.89199e-12
1.68091e-12
-2.25522e-12
1.66633e-12
-2.60859e-12
1.55639e-12
-2.95412e-12
1.40933e-12
-3.29716e-12
1.34483e-12
-3.65083e-12
1.27593e-12
-3.99885e-12
1.0757e-12
-4.39314e-12
1.12868e-12
-4.80676e-12
1.0258e-12
-5.32461e-12
1.10329e-12
-5.91118e-12
1.13502e-12
-6.76528e-12
1.7047e-12
-7.78399e-12
1.81956e-12
-9.47782e-12
3.56956e-12
-1.16338e-11
4.38e-12
-1.56491e-11
9.54961e-12
-2.10875e-11
1.27422e-11
-3.29501e-11
3.22265e-11
-5.03116e-11
4.61644e-11
-9.99888e-11
1.52321e-10
-1.83906e-10
2.5141e-10
-6.0156e-10
1.51812e-09
-1.57169e-09
3.55047e-09
-8.98005e-09
7.46221e-08
-1.67832e-08
8.83518e-08
-1.6858e-07
1.47795e-08
-1.8336e-07
9.03578e-09
9.40956e-08
1.84663e-09
8.18112e-08
7.20703e-10
4.67638e-09
2.33282e-10
2.00556e-09
1.27462e-10
3.57234e-10
6.55381e-11
2.14235e-10
4.28831e-11
6.88511e-11
2.75706e-11
4.75284e-11
2.02689e-11
2.00146e-11
1.4922e-11
1.49344e-11
1.19493e-11
7.33935e-12
9.64027e-12
5.86975e-12
8.20439e-12
3.28024e-12
7.02787e-12
2.86296e-12
6.21206e-12
1.92589e-12
5.50579e-12
1.85783e-12
4.956e-12
1.54988e-12
4.45104e-12
1.61386e-12
4.01298e-12
1.55905e-12
3.58955e-12
1.67341e-12
3.19145e-12
1.73094e-12
2.79502e-12
1.83602e-12
2.40458e-12
1.93242e-12
2.00989e-12
2.03992e-12
1.61487e-12
2.10388e-12
1.21492e-12
2.18634e-12
8.12673e-13
2.24356e-12
4.07886e-13
2.26901e-12
2.46959e-16
2.32202e-12
-4.06611e-13
2.31272e-12
-8.09359e-13
2.23505e-12
-1.21322e-12
2.26537e-12
-1.61469e-12
2.2044e-12
-2.00726e-12
2.06488e-12
-2.40323e-12
2.05129e-12
-2.79506e-12
1.95471e-12
-3.18912e-12
1.80381e-12
-3.5887e-12
1.74559e-12
-4.0138e-12
1.69091e-12
-4.44969e-12
1.52053e-12
-4.95623e-12
1.6364e-12
-5.50761e-12
1.56233e-12
-6.21174e-12
1.81859e-12
-7.0289e-12
1.946e-12
-8.20665e-12
2.87939e-12
-9.64025e-12
3.23559e-12
-1.19507e-11
5.88045e-12
-1.49246e-11
7.36656e-12
-2.02692e-11
1.48967e-11
-2.75721e-11
2.00526e-11
-4.28859e-11
4.75395e-11
-6.55389e-11
6.88111e-11
-1.27464e-10
2.14256e-10
-2.33285e-10
3.5724e-10
-7.20704e-10
2.00552e-09
-1.84663e-09
4.6764e-09
-9.03578e-09
8.18112e-08
-1.47795e-08
9.40955e-08
-1.8336e-07
1.32691e-08
-1.96629e-07
8.72687e-09
9.86378e-08
2.11799e-09
8.84201e-08
8.43951e-10
5.95042e-09
2.86727e-10
2.56279e-09
1.57274e-10
4.86655e-10
8.2238e-11
2.89267e-10
5.37757e-11
9.73186e-11
3.47063e-11
6.65893e-11
2.53462e-11
2.93838e-11
1.85428e-11
2.17384e-11
1.46639e-11
1.1224e-11
1.16755e-11
8.85255e-12
9.7803e-12
5.18017e-12
8.24601e-12
4.40032e-12
7.17393e-12
2.99694e-12
6.26291e-12
2.76109e-12
5.56021e-12
2.24841e-12
4.93127e-12
2.2446e-12
4.39752e-12
2.08516e-12
3.89576e-12
2.1783e-12
3.43569e-12
2.1795e-12
2.98798e-12
2.29175e-12
2.55611e-12
2.37363e-12
2.12655e-12
2.46602e-12
1.70235e-12
2.53488e-12
1.2772e-12
2.61759e-12
8.52754e-13
2.66104e-12
4.27462e-13
2.70772e-12
4.03388e-16
2.73861e-12
-4.25833e-13
2.73695e-12
-8.49444e-13
2.65785e-12
-1.27527e-12
2.67922e-12
-1.70173e-12
2.64724e-12
-2.12396e-12
2.49111e-12
-2.55456e-12
2.48959e-12
-2.98765e-12
2.38158e-12
-3.43346e-12
2.25091e-12
-3.89473e-12
2.20877e-12
-4.39801e-12
2.19808e-12
-4.9301e-12
2.04409e-12
-5.56045e-12
2.25185e-12
-6.26448e-12
2.27223e-12
-7.17388e-12
2.72497e-12
-8.24711e-12
3.01838e-12
-9.7824e-12
4.42905e-12
-1.16757e-11
5.14511e-12
-1.46653e-11
8.87262e-12
-1.85453e-11
1.12402e-11
-2.53468e-11
2.17021e-11
-3.4708e-11
2.9401e-11
-5.37784e-11
6.6616e-11
-8.22393e-11
9.72802e-11
-1.57276e-10
2.8928e-10
-2.8673e-10
4.86685e-10
-8.43952e-10
2.56274e-09
-2.118e-09
5.95044e-09
-8.72687e-09
8.84201e-08
-1.32691e-08
9.86377e-08
-1.96629e-07
1.24009e-08
-2.0903e-07
8.41202e-09
1.02627e-07
2.38446e-09
9.44476e-08
9.70606e-10
7.36427e-09
3.44093e-10
3.18931e-09
1.89383e-10
6.41376e-10
1.00406e-10
3.78235e-10
6.56242e-11
1.32099e-10
4.24964e-11
8.97271e-11
3.08853e-11
4.10013e-11
2.24988e-11
3.01258e-11
1.76264e-11
1.60958e-11
1.38969e-11
1.25864e-11
1.14976e-11
7.59341e-12
9.57229e-12
6.32421e-12
8.21878e-12
4.35847e-12
7.08384e-12
3.90428e-12
6.2134e-12
3.12553e-12
5.44892e-12
3.00986e-12
4.81055e-12
2.72797e-12
4.22338e-12
2.75814e-12
3.69593e-12
2.71109e-12
3.19274e-12
2.78721e-12
2.71615e-12
2.83814e-12
2.24926e-12
2.92849e-12
1.79402e-12
2.98419e-12
1.34222e-12
3.06453e-12
8.94518e-13
3.1093e-12
4.47814e-13
3.14038e-12
6.02715e-16
3.18314e-12
-4.45967e-13
3.1758e-12
-8.91054e-13
3.12543e-12
-1.34002e-12
3.1512e-12
-1.79309e-12
3.09368e-12
-2.24656e-12
2.94563e-12
-2.71443e-12
2.9592e-12
-3.19213e-12
2.86726e-12
-3.69364e-12
2.75214e-12
-4.22219e-12
2.73635e-12
-4.81083e-12
2.79286e-12
-5.44782e-12
2.6848e-12
-6.2136e-12
3.03398e-12
-7.08532e-12
3.14328e-12
-8.21888e-12
3.85648e-12
-9.57342e-12
4.38247e-12
-1.14997e-11
6.33731e-12
-1.38974e-11
7.54996e-12
-1.7628e-11
1.25985e-11
-2.25013e-11
1.61227e-11
-3.08862e-11
3.00849e-11
-4.24983e-11
4.10201e-11
-6.5627e-11
8.97474e-11
-1.00407e-10
1.3205e-10
-1.89385e-10
3.78275e-10
-3.44096e-10
6.41398e-10
-9.70607e-10
3.18927e-09
-2.38446e-09
7.36429e-09
-8.41202e-09
9.44477e-08
-1.24009e-08
1.02627e-07
-2.0903e-07
1.16033e-08
-2.20633e-07
8.1617e-09
1.06068e-07
2.64442e-09
9.99649e-08
1.10013e-09
8.90856e-09
4.05298e-10
3.88413e-09
2.23794e-10
8.22883e-10
1.20069e-10
4.81967e-10
7.84514e-11
1.73709e-10
5.09601e-11
1.17208e-10
3.69013e-11
5.50575e-11
2.68025e-11
4.02281e-11
2.08476e-11
2.20443e-11
1.6314e-11
1.71201e-11
1.33647e-11
1.05281e-11
1.10142e-11
8.6679e-12
9.35353e-12
6.00597e-12
7.97491e-12
5.26439e-12
6.92138e-12
4.17632e-12
6.00938e-12
3.91552e-12
5.25694e-12
3.47995e-12
4.57697e-12
3.44194e-12
3.97619e-12
3.31573e-12
3.41283e-12
3.35943e-12
2.88783e-12
3.36128e-12
2.38063e-12
3.43964e-12
1.89198e-12
3.48291e-12
1.41159e-12
3.55348e-12
9.38994e-13
3.59378e-12
4.69494e-13
3.61808e-12
7.94671e-16
3.66101e-12
-4.67353e-13
3.64156e-12
-9.35369e-13
3.57484e-12
-1.40916e-12
3.61755e-12
-1.89073e-12
3.57102e-12
-2.37781e-12
3.43577e-12
-2.8859e-12
3.46774e-12
-3.41197e-12
3.38659e-12
-3.97382e-12
3.31027e-12
-4.57558e-12
3.34068e-12
-5.25703e-12
3.45408e-12
-6.00833e-12
3.43584e-12
-6.92158e-12
3.94563e-12
-7.97631e-12
4.19846e-12
-9.35376e-12
5.23093e-12
-1.10155e-11
6.04164e-12
-1.33667e-11
8.69598e-12
-1.63147e-11
1.04782e-11
-2.08493e-11
1.71359e-11
-2.68051e-11
2.20691e-11
-3.69026e-11
4.018e-11
-5.09621e-11
5.50779e-11
-7.84543e-11
1.17237e-10
-1.20071e-10
1.73671e-10
-2.23797e-10
4.81978e-10
-4.05301e-10
8.22909e-10
-1.10013e-09
3.88408e-09
-2.64442e-09
8.90859e-09
-8.16171e-09
9.99649e-08
-1.16033e-08
1.06068e-07
-2.20633e-07
1.07187e-08
-2.31352e-07
7.92134e-09
1.08866e-07
2.89608e-09
1.0499e-07
1.232e-09
1.05727e-08
4.70278e-10
4.64585e-09
2.60534e-10
1.03264e-09
1.41275e-10
6.01231e-10
9.22931e-11
2.22687e-10
6.01261e-11
1.49383e-10
4.34162e-11
7.17584e-11
3.14713e-11
5.21606e-11
2.43411e-11
2.9176e-11
1.89379e-11
2.2508e-11
1.53907e-11
1.40772e-11
1.25796e-11
1.1485e-11
1.05847e-11
8.00546e-12
8.94181e-12
6.91966e-12
7.6891e-12
5.4246e-12
6.617e-12
4.98836e-12
5.7405e-12
4.35784e-12
4.95976e-12
4.23259e-12
4.27933e-12
3.99916e-12
3.6507e-12
3.97743e-12
3.07321e-12
3.94458e-12
2.52239e-12
3.99556e-12
1.99756e-12
3.99113e-12
1.48632e-12
4.04881e-12
9.86869e-13
4.09263e-12
4.92839e-13
4.10751e-12
9.71343e-16
4.14254e-12
-4.90383e-13
4.15058e-12
-9.83084e-13
4.06443e-12
-1.48363e-12
4.11461e-12
-1.99594e-12
4.08319e-12
-2.51944e-12
3.95598e-12
-3.07107e-12
4.01663e-12
-3.64956e-12
3.96194e-12
-4.27689e-12
3.94325e-12
-4.9582e-12
4.0241e-12
-5.74033e-12
4.25063e-12
-6.616e-12
4.30335e-12
-7.68929e-12
5.0085e-12
-8.94309e-12
5.45956e-12
-1.05851e-11
6.87724e-12
-1.25809e-11
8.03038e-12
-1.53926e-11
1.15206e-11
-1.89387e-11
1.40345e-11
-2.43429e-11
2.25401e-11
-3.14739e-11
2.92021e-11
-4.34178e-11
5.2116e-11
-6.01283e-11
7.17956e-11
-9.22961e-11
1.49404e-10
-1.41277e-10
2.22657e-10
-2.60537e-10
6.01255e-10
-4.70282e-10
1.03266e-09
-1.232e-09
4.64581e-09
-2.89608e-09
1.05727e-08
-7.92134e-09
1.0499e-07
-1.07187e-08
1.08866e-07
-2.31352e-07
9.79926e-09
-2.41151e-07
7.66253e-09
1.11002e-07
3.13779e-09
1.09515e-07
1.36567e-09
1.23448e-08
5.38967e-10
5.47255e-09
2.99639e-10
1.27195e-09
1.64077e-10
7.36781e-10
1.07193e-10
2.79585e-10
7.00289e-11
1.86544e-10
5.04558e-11
9.13374e-11
3.65254e-11
6.61066e-11
2.81224e-11
3.75804e-11
2.1781e-11
2.88759e-11
1.75855e-11
1.827e-11
1.42765e-11
1.47895e-11
1.19191e-11
1.03671e-11
9.99007e-12
8.84414e-12
8.52118e-12
6.90061e-12
7.27564e-12
6.24184e-12
6.2645e-12
5.37144e-12
5.37451e-12
5.10778e-12
4.60764e-12
4.76e-12
3.9083e-12
4.67609e-12
3.27387e-12
4.57266e-12
2.67575e-12
4.58827e-12
2.11178e-12
4.573e-12
1.56717e-12
4.61339e-12
1.03861e-12
4.60456e-12
5.18058e-13
4.63687e-12
1.19131e-15
4.66418e-12
-5.15315e-13
4.64009e-12
-1.03467e-12
4.59912e-12
-1.56416e-12
4.64788e-12
-2.10977e-12
4.62749e-12
-2.67269e-12
4.52392e-12
-3.27149e-12
4.62919e-12
-3.90683e-12
4.60242e-12
-4.60515e-12
4.6447e-12
-5.37277e-12
4.78153e-12
-6.26406e-12
5.13731e-12
-7.27467e-12
5.32113e-12
-8.52133e-12
6.26944e-12
-9.99125e-12
6.92015e-12
-1.19197e-11
8.80569e-12
-1.42779e-11
1.03902e-11
-1.75875e-11
1.481e-11
-2.1782e-11
1.82232e-11
-2.81243e-11
2.8886e-11
-3.6528e-11
3.75994e-11
-5.04576e-11
6.60548e-11
-7.00313e-11
9.13678e-11
-1.07196e-10
1.8656e-10
-1.6408e-10
2.79541e-10
-2.99642e-10
7.36803e-10
-5.38971e-10
1.27198e-09
-1.36567e-09
5.4725e-09
-3.13779e-09
1.23448e-08
-7.66253e-09
1.09515e-07
-9.79927e-09
1.11002e-07
-2.41151e-07
8.87983e-09
-2.50031e-07
7.3845e-09
1.12498e-07
3.36802e-09
1.13531e-07
1.50055e-09
1.42122e-08
6.11278e-10
6.36182e-09
3.41138e-10
1.5421e-09
1.88535e-10
8.89392e-10
1.23197e-10
3.44924e-10
8.07065e-11
2.29032e-10
5.80488e-11
1.14001e-10
4.19869e-11
8.2161e-11
3.2209e-11
4.73585e-11
2.4857e-11
3.62053e-11
1.996e-11
2.3168e-11
1.61137e-11
1.86339e-11
1.33636e-11
1.31226e-11
1.11254e-11
1.10841e-11
9.42227e-12
8.58782e-12
7.98912e-12
7.67594e-12
6.83202e-12
6.52432e-12
5.82384e-12
6.12439e-12
4.96325e-12
5.62406e-12
4.18734e-12
5.45645e-12
3.49119e-12
5.27083e-12
2.84188e-12
5.23163e-12
2.23546e-12
5.16464e-12
1.65464e-12
5.18859e-12
1.09469e-12
5.18183e-12
5.45359e-13
5.17011e-12
1.37493e-15
5.20854e-12
-5.4225e-13
5.20169e-12
-1.09053e-12
5.13785e-12
-1.65138e-12
5.19542e-12
-2.23304e-12
5.20417e-12
-2.83865e-12
5.12644e-12
-3.48859e-12
5.26067e-12
-4.18554e-12
5.29623e-12
-4.96071e-12
5.42012e-12
-5.82187e-12
5.65342e-12
-6.83133e-12
6.14785e-12
-7.98819e-12
6.46672e-12
-9.42243e-12
7.69267e-12
-1.11265e-11
8.63065e-12
-1.33644e-11
1.10454e-11
-1.61151e-11
1.31514e-11
-1.99619e-11
1.86783e-11
-2.48582e-11
2.31414e-11
-3.2211e-11
3.62332e-11
-4.19896e-11
4.73865e-11
-5.80509e-11
8.21129e-11
-8.07091e-11
1.14019e-10
-1.232e-10
2.29066e-10
-1.88537e-10
3.44862e-10
-3.41142e-10
8.89424e-10
-6.11282e-10
1.54211e-09
-1.50055e-09
6.36177e-09
-3.36803e-09
1.42123e-08
-7.38451e-09
1.13531e-07
-8.87984e-09
1.12498e-07
-2.50031e-07
7.96201e-09
-2.57993e-07
7.08997e-09
1.1337e-07
3.58533e-09
1.17036e-07
1.636e-09
1.61616e-08
6.87096e-10
7.31073e-09
3.85059e-10
1.84413e-09
2.14704e-10
1.05976e-09
1.40355e-10
4.1927e-10
9.21989e-11
2.77186e-10
6.62257e-11
1.39963e-10
4.788e-11
1.00505e-10
3.66191e-11
5.86241e-11
2.81804e-11
4.46598e-11
2.25257e-11
2.88365e-11
1.81003e-11
2.30621e-11
1.49257e-11
1.6282e-11
1.23538e-11
1.3647e-11
1.03972e-11
1.05597e-11
8.76136e-12
9.31222e-12
7.4463e-12
7.84011e-12
6.31032e-12
7.26321e-12
5.34825e-12
6.58035e-12
4.4895e-12
6.32854e-12
3.7265e-12
6.03923e-12
3.02179e-12
5.94526e-12
2.36943e-12
5.82681e-12
1.74942e-12
5.80013e-12
1.15534e-12
5.77161e-12
5.74944e-13
5.76363e-12
1.6056e-15
5.78229e-12
-5.71487e-13
5.76303e-12
-1.15102e-12
5.72103e-12
-1.74585e-12
5.7983e-12
-2.36656e-12
5.83571e-12
-3.01841e-12
5.77823e-12
-3.72363e-12
5.97483e-12
-4.48737e-12
6.05645e-12
-5.34563e-12
6.26624e-12
-6.30814e-12
6.60993e-12
-7.44537e-12
7.28677e-12
-8.76046e-12
7.80675e-12
-1.03973e-11
9.34298e-12
-1.23548e-11
1.05906e-11
-1.49266e-11
1.36229e-11
-1.81018e-11
1.63172e-11
-2.25276e-11
2.30897e-11
-2.81819e-11
2.87772e-11
-3.66212e-11
4.46841e-11
-4.78827e-11
5.8644e-11
-6.62282e-11
1.00464e-10
-9.22017e-11
1.39991e-10
-1.40359e-10
2.77216e-10
-2.14708e-10
4.19226e-10
-3.85063e-10
1.05977e-09
-6.871e-10
1.84415e-09
-1.63601e-09
7.31067e-09
-3.58533e-09
1.61616e-08
-7.08998e-09
1.17036e-07
-7.96202e-09
1.1337e-07
-2.57993e-07
7.04369e-09
-2.65037e-07
6.77933e-09
1.13634e-07
3.78827e-09
1.20027e-07
1.77136e-09
1.81785e-08
7.66272e-10
8.31582e-09
4.31412e-10
2.179e-09
2.42642e-10
1.24852e-09
1.58717e-10
5.03201e-10
1.04547e-10
3.31372e-10
7.50185e-11
1.69501e-10
5.42296e-11
1.21291e-10
4.13723e-11
7.14739e-11
3.17667e-11
5.42592e-11
2.52946e-11
3.52961e-11
2.0246e-11
2.81169e-11
1.6613e-11
1.99197e-11
1.36815e-11
1.65973e-11
1.14511e-11
1.2788e-11
9.59649e-12
1.11647e-11
8.11068e-12
9.32149e-12
6.83662e-12
8.53235e-12
5.76487e-12
7.65261e-12
4.8165e-12
7.26695e-12
3.98121e-12
6.87882e-12
3.21655e-12
6.70368e-12
2.51443e-12
6.5167e-12
1.85206e-12
6.46891e-12
1.22106e-12
6.40936e-12
6.06963e-13
6.36181e-12
1.82081e-15
6.3889e-12
-6.03147e-13
6.38009e-12
-1.2165e-12
6.34066e-12
-1.84813e-12
6.44397e-12
-2.51116e-12
6.50052e-12
-3.21301e-12
6.48079e-12
-3.97808e-12
6.74262e-12
-4.81408e-12
6.90325e-12
-5.7621e-12
7.22129e-12
-6.83421e-12
7.68307e-12
-8.10942e-12
8.55956e-12
-9.59563e-12
9.26287e-12
-1.14512e-11
1.11783e-11
-1.36823e-11
1.28214e-11
-1.66141e-11
1.65405e-11
-2.02477e-11
1.99478e-11
-2.52965e-11
2.81322e-11
-3.17683e-11
3.52534e-11
-4.13746e-11
5.42811e-11
-5.42324e-11
7.14889e-11
-7.50213e-11
1.21256e-10
-1.0455e-10
1.69535e-10
-1.5872e-10
3.31377e-10
-2.42645e-10
5.03137e-10
-4.31416e-10
1.24855e-09
-7.66276e-10
2.17902e-09
-1.77136e-09
8.31577e-09
-3.78827e-09
1.81785e-08
-6.77933e-09
1.20027e-07
-7.04369e-09
1.13634e-07
-2.65036e-07
6.12679e-09
-2.71163e-07
6.45242e-09
1.13308e-07
3.97541e-09
1.22504e-07
1.90589e-09
2.0248e-08
8.48617e-10
9.3731e-09
4.80195e-10
2.54742e-09
2.72397e-10
1.45631e-09
1.78329e-10
5.97265e-10
1.17794e-10
3.91891e-10
8.44599e-11
2.02835e-10
6.10618e-11
1.4469e-10
4.64889e-11
8.60439e-11
3.56319e-11
6.51145e-11
2.82796e-11
4.2644e-11
2.25612e-11
3.38266e-11
1.84338e-11
2.40495e-11
1.51151e-11
1.9902e-11
1.25892e-11
1.53214e-11
1.04988e-11
1.32661e-11
8.82863e-12
1.10006e-11
7.4056e-12
9.96108e-12
6.21529e-12
8.84511e-12
5.17021e-12
8.30527e-12
4.25672e-12
7.79531e-12
3.4273e-12
7.52982e-12
2.6714e-12
7.27576e-12
1.96316e-12
7.17476e-12
1.29212e-12
7.08027e-12
6.41663e-13
7.0145e-12
2.06509e-15
7.02049e-12
-6.37437e-13
7.01662e-12
-1.28736e-12
6.98561e-12
-1.95888e-12
7.10101e-12
-2.66766e-12
7.20994e-12
-3.42354e-12
7.23315e-12
-4.25332e-12
7.56707e-12
-5.16747e-12
7.8067e-12
-6.2124e-12
8.27872e-12
-7.40294e-12
8.87895e-12
-8.82711e-12
9.97882e-12
-1.0498e-11
1.09544e-11
-1.25892e-11
1.32804e-11
-1.51159e-11
1.53491e-11
-1.8435e-11
1.98825e-11
-2.25629e-11
2.40836e-11
-2.82815e-11
3.38649e-11
-3.56338e-11
4.26055e-11
-4.64914e-11
6.51376e-11
-6.10646e-11
8.60844e-11
-8.4463e-11
1.44658e-10
-1.17797e-10
2.02865e-10
-1.78332e-10
3.91927e-10
-2.72401e-10
5.97217e-10
-4.80199e-10
1.45632e-09
-8.48621e-10
2.54743e-09
-1.9059e-09
9.37305e-09
-3.97541e-09
2.0248e-08
-6.45243e-09
1.22504e-07
-6.1268e-09
1.13308e-07
-2.71163e-07
5.2148e-09
-2.76378e-07
6.10958e-09
1.12414e-07
4.14538e-09
1.24468e-07
2.03883e-09
2.23545e-08
9.33899e-10
1.0478e-08
5.31388e-10
2.94993e-09
3.04014e-10
1.68369e-09
1.99239e-10
7.02028e-10
1.31981e-10
4.59146e-10
9.45834e-11
2.40227e-10
6.84035e-11
1.70864e-10
5.19901e-11
1.02451e-10
3.9793e-11
7.73128e-11
3.14941e-11
5.0955e-11
2.50565e-11
4.02733e-11
2.03967e-11
2.8709e-11
1.66617e-11
2.36394e-11
1.38172e-11
1.81498e-11
1.14729e-11
1.55974e-11
9.60384e-12
1.28717e-11
8.02024e-12
1.15461e-11
6.70196e-12
1.01545e-11
5.55258e-12
9.4594e-12
4.55454e-12
8.78161e-12
3.65522e-12
8.42879e-12
2.84115e-12
8.09022e-12
2.08336e-12
7.93377e-12
1.36901e-12
7.78441e-12
6.79203e-13
7.71748e-12
2.32114e-15
7.70948e-12
-6.74559e-13
7.67816e-12
-1.36405e-12
7.66868e-12
-2.07867e-12
7.81742e-12
-2.83698e-12
7.96132e-12
-3.65123e-12
8.05569e-12
-4.55091e-12
8.46197e-12
-5.54941e-12
8.80745e-12
-6.69895e-12
9.40223e-12
-8.01735e-12
1.01804e-11
-9.60199e-12
1.15646e-11
-1.14721e-11
1.28114e-11
-1.38171e-11
1.56401e-11
-1.66623e-11
1.81853e-11
-2.03982e-11
2.35946e-11
-2.50583e-11
2.87432e-11
-3.1496e-11
4.03074e-11
-3.97952e-11
5.08933e-11
-5.19926e-11
7.73423e-11
-6.84064e-11
1.02486e-10
-9.45869e-11
1.70823e-10
-1.31984e-10
2.4026e-10
-1.99243e-10
4.59178e-10
-3.04018e-10
7.01988e-10
-5.31392e-10
1.68373e-09
-9.33904e-10
2.94995e-09
-2.03883e-09
1.0478e-08
-4.14538e-09
2.23546e-08
-6.10959e-09
1.24468e-07
-5.2148e-09
1.12414e-07
-2.76378e-07
4.31114e-09
-2.80689e-07
5.75148e-09
1.10973e-07
4.29686e-09
1.25923e-07
2.16935e-09
2.4482e-08
1.02184e-09
1.16255e-08
5.8495e-10
3.38683e-09
3.37528e-10
1.93111e-09
2.21491e-10
8.18079e-10
1.47149e-10
5.33508e-10
1.05423e-10
2.81959e-10
7.62824e-11
2.00013e-10
5.78977e-11
1.20851e-10
4.42675e-11
9.09455e-11
3.4952e-11
6.02476e-11
2.77432e-11
4.74774e-11
2.25108e-11
3.39438e-11
1.83285e-11
2.78262e-11
1.51411e-11
2.13487e-11
1.25237e-11
1.82161e-11
1.04402e-11
1.49504e-11
8.68368e-12
1.32971e-11
7.22744e-12
1.16301e-11
5.96555e-12
1.07182e-11
4.87636e-12
9.86947e-12
3.90157e-12
9.41824e-12
3.02467e-12
8.96924e-12
2.21329e-12
8.75497e-12
1.45223e-12
8.55457e-12
7.19777e-13
8.45339e-12
2.54003e-15
8.42578e-12
-7.14701e-13
8.41228e-12
-1.44695e-12
8.4089e-12
-2.20825e-12
8.58273e-12
-3.02e-12
8.77225e-12
-3.89736e-12
8.91032e-12
-4.87243e-12
9.44825e-12
-5.96208e-12
9.91295e-12
-7.22426e-12
1.06857e-11
-8.68052e-12
1.1661e-11
-1.04381e-11
1.3322e-11
-1.25228e-11
1.4901e-11
-1.5141e-11
1.82475e-11
-1.83291e-11
2.13764e-11
-2.25124e-11
2.77904e-11
-2.77452e-11
3.39664e-11
-3.4954e-11
4.75199e-11
-4.42699e-11
6.023e-11
-5.79004e-11
9.09656e-11
-7.62854e-11
1.20869e-10
-1.05427e-10
1.99975e-10
-1.47153e-10
2.81992e-10
-2.21494e-10
5.33515e-10
-3.37532e-10
8.18014e-10
-5.84955e-10
1.93112e-09
-1.02185e-09
3.38684e-09
-2.16935e-09
1.16255e-08
-4.29687e-09
2.44821e-08
-5.75148e-09
1.25923e-07
-4.31115e-09
1.10973e-07
-2.80689e-07
3.41907e-09
-2.84108e-07
5.37897e-09
1.09013e-07
4.42861e-09
1.26873e-07
2.2966e-09
2.66141e-08
1.11212e-09
1.281e-08
6.40819e-10
3.85812e-09
3.72966e-10
2.19897e-09
2.45125e-10
9.45917e-10
1.6334e-10
6.15276e-10
1.17013e-10
3.2829e-10
8.47266e-11
2.323e-10
6.42342e-11
1.41344e-10
4.90736e-11
1.06102e-10
3.8668e-11
7.06666e-11
3.06331e-11
5.55346e-11
2.47856e-11
3.97896e-11
2.01233e-11
3.24951e-11
1.65669e-11
2.49123e-11
1.36561e-11
2.11324e-11
1.13419e-11
1.72517e-11
9.39935e-12
1.5231e-11
7.79434e-12
1.32275e-11
6.41137e-12
1.21079e-11
5.22391e-12
1.10622e-11
4.16763e-12
1.04622e-11
3.22299e-12
9.9047e-12
2.35372e-12
9.60855e-12
1.54216e-12
9.35574e-12
7.63621e-13
9.21259e-12
2.80908e-15
9.17512e-12
-7.58171e-13
9.17257e-12
-1.53656e-12
9.19001e-12
-2.34831e-12
9.38224e-12
-3.21782e-12
9.65384e-12
-4.16313e-12
9.88255e-12
-5.21959e-12
1.05029e-11
-6.40755e-12
1.10911e-11
-7.79103e-12
1.20705e-11
-9.39594e-12
1.3263e-11
-1.13394e-11
1.52714e-11
-1.36552e-11
1.72159e-11
-1.65668e-11
2.11613e-11
-2.01238e-11
2.49403e-11
-2.47874e-11
3.24477e-11
-3.06352e-11
3.98126e-11
-3.867e-11
5.55405e-11
-4.90763e-11
7.06185e-11
-6.42371e-11
1.06126e-10
-8.47297e-11
1.41359e-10
-1.17017e-10
2.32267e-10
-1.63344e-10
3.28312e-10
-2.45129e-10
6.15307e-10
-3.72971e-10
9.4587e-10
-6.40824e-10
2.199e-09
-1.11212e-09
3.85814e-09
-2.2966e-09
1.281e-08
-4.42861e-09
2.66141e-08
-5.37897e-09
1.26873e-07
-3.41908e-09
1.09013e-07
-2.84108e-07
2.54182e-09
-2.8665e-07
4.99304e-09
1.06562e-07
4.53945e-09
1.27327e-07
2.41968e-09
2.87338e-08
1.20436e-09
1.40253e-08
6.98908e-10
4.36357e-09
4.10343e-10
2.48753e-09
2.70178e-10