/*--------------------------------*- C++ -*----------------------------------*\
| =========                 |                                                 |
| \\      /  F ield         | foam-extend: Open Source CFD                    |
|  \\    /   O peration     | Version:     4.0                                |
|   \\  /    A nd           | Web:         http://www.foam-extend.org         |
|    \\/     M anipulation  |                                                 |
\*---------------------------------------------------------------------------*/
FoamFile
{
    version     2.0;
    format      ascii;
    class       volScalarField;
    location    "22";
    object      dPhi;
}
// * * * * * * * * * * * * * * * * * * * * * * * * * * * * * * * * * * * * * //

dimensions      [0 -1 0 0 0 0 0];

internalField   nonuniform List<scalar> 
6960
(
-1.80991e-15
2.10407e-15
-6.79797e-16
2.36593e-15
-4.18494e-16
-5.80318e-16
9.97548e-16
1.03193e-15
1.41826e-15
3.09833e-15
-8.59497e-17
-3.34985e-16
2.91185e-15
-2.26164e-15
2.17789e-16
7.36357e-16
-2.24479e-15
4.94748e-16
-1.68577e-15
-1.10004e-15
-1.04031e-15
-1.99474e-15
5.6308e-16
-6.99327e-16
3.52904e-16
-2.00207e-15
1.30323e-15
1.27572e-15
1.9363e-15
-1.07818e-16
4.80323e-16
-1.01618e-15
1.86399e-15
2.77974e-15
3.74694e-16
-1.27912e-15
1.2214e-15
-6.12748e-16
1.70241e-15
-4.5176e-16
1.72101e-15
2.01143e-15
6.39235e-16
1.02034e-15
1.32488e-15
-5.25999e-16
-7.72999e-16
2.16795e-15
2.53342e-16
-2.59426e-15
-7.54325e-16
-2.13998e-16
-1.44282e-16
2.91783e-15
-4.36517e-16
1.81265e-16
-1.04334e-15
-5.22166e-16
-1.32239e-15
1.90012e-15
4.64115e-17
-4.15236e-16
-2.67281e-15
-4.90459e-15
-2.02756e-15
-4.20373e-15
1.44741e-15
-1.33473e-15
-1.4763e-17
-1.84047e-15
-1.27675e-15
-3.7833e-15
-1.48493e-15
-5.05527e-16
1.09784e-16
1.8715e-15
-1.23976e-15
5.07923e-16
-1.04169e-15
1.22483e-15
1.76186e-16
1.16956e-15
-2.43782e-15
-5.259e-16
2.44558e-15
5.81103e-16
7.6319e-16
-2.69713e-15
1.17934e-15
-3.92346e-15
-1.87493e-15
-3.6357e-16
1.01726e-15
-1.85125e-16
-1.96032e-15
3.38501e-15
8.06342e-17
-1.42606e-15
-1.88739e-15
4.33577e-15
-3.42527e-15
-4.65356e-15
-1.21657e-15
-1.44901e-15
-1.8516e-15
9.38423e-16
-2.82471e-15
3.42491e-16
-6.238e-16
5.50732e-15
-1.67894e-15
1.03473e-15
-9.90651e-16
7.19855e-16
-4.67972e-17
-2.90627e-15
-3.04969e-16
-1.0222e-15
2.49064e-15
-2.96712e-15
-2.7677e-15
-7.644e-16
3.11746e-15
1.86258e-15
3.55971e-15
2.21887e-15
-1.92801e-15
2.59522e-15
2.8283e-15
-1.03273e-15
-1.13021e-15
1.9563e-15
-1.051e-15
2.88704e-16
3.2282e-15
-3.33233e-15
-1.77687e-15
-8.20984e-16
-4.47569e-16
1.51923e-15
-4.07301e-15
-3.43796e-15
-3.91916e-15
4.72723e-15
4.62813e-15
-3.75041e-15
-7.60746e-16
-2.83318e-15
-4.81509e-15
-5.60871e-16
2.76315e-15
-1.30251e-15
-4.51212e-16
1.78849e-15
-5.68724e-16
-9.81585e-16
1.61604e-15
-2.62336e-15
-3.82829e-15
-5.21793e-16
1.98323e-15
3.60356e-15
4.78444e-15
-2.58975e-15
3.16067e-15
-2.04774e-15
4.69227e-15
-4.05229e-15
-3.09951e-15
-5.72132e-15
5.71581e-16
2.37798e-15
2.38722e-15
-2.26951e-15
-2.33625e-16
2.45867e-15
3.49423e-16
2.06736e-15
-1.19408e-15
-7.12816e-16
-1.21824e-15
-3.98169e-15
-4.1064e-16
-3.61727e-15
-3.28531e-15
-8.09211e-16
-2.35233e-15
2.36958e-15
-3.60409e-15
3.16121e-15
4.55203e-15
-4.29164e-15
2.39641e-16
5.32576e-15
-1.74387e-15
-1.31807e-15
6.10634e-15
3.40784e-15
1.07894e-15
7.25398e-16
6.78844e-16
2.93216e-15
3.89433e-16
1.467e-16
1.58968e-17
-1.36985e-15
-1.13625e-16
-1.4493e-16
5.10388e-15
-6.78398e-16
-6.32513e-15
2.91416e-15
1.0132e-15
3.01728e-15
-2.30425e-15
-6.52238e-16
1.78378e-15
1.76311e-15
-2.70035e-15
1.54121e-16
-1.3401e-15
-2.80335e-15
-1.39046e-15
2.98573e-15
9.9128e-17
-1.66056e-15
3.56057e-15
5.96716e-16
-4.94679e-16
3.11441e-15
-1.09454e-15
2.85166e-15
-3.68222e-15
6.51171e-15
2.30486e-15
2.75028e-15
-4.90101e-15
-1.98599e-15
1.38099e-15
-1.30499e-15
3.20118e-15
-1.03898e-16
-1.56853e-15
7.01086e-16
-2.98824e-15
3.93081e-15
5.10683e-15
-5.38194e-18
2.99229e-15
-5.36997e-15
-3.02342e-15
3.15477e-15
-3.65156e-15
-3.22376e-16
6.19602e-15
-4.9862e-15
-1.40835e-15
-9.72669e-17
6.54773e-16
-2.1721e-15
-7.92073e-16
-2.49403e-15
-4.98195e-15
4.98027e-15
-4.41833e-15
4.70498e-15
5.65974e-15
-3.90283e-15
4.01692e-15
3.80439e-15
-1.33547e-15
-2.5482e-15
1.02027e-16
-5.29665e-16
-9.10071e-15
6.22185e-15
-2.45817e-15
-7.04875e-15
6.39439e-15
-3.62826e-15
4.40003e-15
2.17852e-15
-7.67757e-15
4.09399e-15
5.88612e-15
3.03344e-15
-6.82313e-15
-1.57882e-15
-1.60539e-15
-7.19417e-15
3.39052e-15
-2.26986e-15
-1.68333e-15
-3.08772e-15
5.2534e-16
6.85521e-15
6.79568e-15
6.6985e-15
-8.89436e-16
-2.97828e-15
-5.96054e-15
1.68062e-16
3.04676e-16
-5.63375e-16
-2.02912e-15
-7.574e-15
-7.76051e-15
-1.00602e-15
-7.00852e-15
4.85023e-15
1.23087e-14
-7.14259e-15
4.03682e-15
5.08693e-15
-6.32131e-16
6.55939e-15
-2.52438e-15
-1.85549e-15
2.17335e-15
-1.18209e-15
9.15677e-15
1.78187e-15
3.56033e-15
-4.00949e-15
-3.55882e-15
-4.8348e-15
-1.1829e-14
1.90812e-15
4.67704e-15
1.59241e-15
6.44185e-15
1.96191e-15
2.07436e-15
3.85465e-15
5.19546e-15
-8.11051e-15
-4.45615e-15
6.76768e-15
2.50486e-15
-5.01926e-15
-5.67218e-15
-1.29958e-14
7.56607e-15
-6.51824e-15
-1.36334e-14
-2.4625e-15
-3.99232e-15
-4.52464e-15
6.47283e-15
-4.30609e-15
8.55684e-15
1.30017e-14
-4.23923e-15
-2.33684e-16
1.52874e-15
-1.74818e-14
5.78434e-15
-2.52522e-15
-6.0889e-15
-2.16772e-16
3.74658e-15
-4.39874e-15
1.42459e-14
-3.0273e-15
3.62078e-15
2.4471e-15
1.82616e-14
-8.9379e-15
4.44589e-15
-2.63384e-15
-7.28682e-15
-1.09175e-14
5.19395e-15
-5.47202e-15
3.82697e-15
-5.91645e-15
8.94926e-15
6.50399e-15
-6.11816e-15
-1.7444e-15
-1.57174e-15
1.05651e-14
8.49342e-15
6.1415e-15
-1.17102e-14
1.88599e-15
-1.15496e-15
6.38005e-15
-6.05934e-15
1.77455e-15
-2.43874e-15
-1.01298e-14
2.74883e-16
-2.73568e-15
-5.64074e-15
-1.42562e-15
-1.05849e-15
-1.40738e-14
4.79965e-15
4.50173e-15
3.0347e-15
8.58923e-15
-2.41084e-15
1.612e-14
1.94267e-14
-1.58611e-15
1.41002e-14
1.87196e-14
-1.16528e-14
6.43034e-16
2.06652e-16
-6.38588e-15
1.51783e-15
-4.44019e-15
-1.6557e-16
-4.29354e-15
-1.6849e-15
3.72541e-15
1.07925e-14
7.69472e-15
-1.16057e-15
4.36318e-15
-1.44033e-14
4.9252e-15
-4.39831e-15
9.96594e-15
-2.49323e-14
9.81545e-15
4.32614e-15
2.3604e-15
-3.88424e-16
3.78331e-15
-2.28693e-15
1.48507e-16
-7.50843e-15
5.0496e-15
-1.2477e-14
-6.21194e-15
4.10341e-15
1.79309e-15
3.87031e-15
-1.24242e-14
-1.97944e-15
-5.87439e-15
1.38461e-14
-1.36342e-14
7.67979e-16
-9.05974e-15
-2.63234e-15
-1.82566e-15
-5.67833e-15
5.2245e-15
5.19722e-17
-3.20993e-15
1.08081e-17
-5.99587e-15
2.9473e-15
1.31376e-14
-1.49313e-14
-2.74683e-15
-1.18301e-14
-4.84667e-15
-2.44242e-15
-2.40785e-15
-3.09211e-15
5.29564e-15
-3.87376e-15
-1.29321e-14
7.1023e-15
-5.20857e-15
-1.20179e-16
2.81287e-15
1.23442e-15
3.95861e-15
-4.1999e-15
1.25318e-14
8.27914e-15
5.91153e-15
-6.20367e-15
-1.39455e-14
-8.96641e-15
-5.62152e-15
-8.9298e-15
-5.46662e-15
6.06041e-15
-4.48571e-15
1.7953e-14
-1.96871e-15
-4.40557e-15
-4.7056e-15
-4.19444e-15
-6.71389e-16
-1.13276e-15
-4.1998e-15
8.65304e-15
3.51091e-15
5.61118e-15
7.98754e-15
-1.1421e-14
5.22466e-15
-4.54696e-15
7.54155e-15
-1.38081e-14
6.20387e-15
-1.03768e-14
2.55846e-15
2.08401e-16
7.7304e-15
6.32907e-15
9.08903e-15
4.69853e-15
-1.62472e-14
1.75015e-14
-1.39043e-15
-6.98014e-15
-3.72283e-15
-1.10439e-14
-2.89013e-14
9.3199e-15
-7.2897e-15
1.36376e-14
-6.73561e-15
-4.90006e-15
8.7283e-15
-9.27759e-15
3.8808e-15
-8.42887e-15
-5.44151e-15
-7.55077e-15
9.24238e-15
1.5789e-15
5.65118e-15
-2.13625e-15
-8.79811e-15
6.19261e-15
-1.47185e-14
-8.50897e-15
-1.00101e-14
5.68255e-15
2.92605e-15
-7.28658e-15
-6.07506e-16
9.98091e-15
-3.22017e-15
1.92904e-15
7.98155e-15
-1.11143e-14
1.171e-15
-1.00685e-14
6.61033e-15
3.43468e-15
-4.11556e-15
1.04463e-14
-7.77107e-15
2.52156e-15
-1.1915e-14
-6.30698e-15
1.31279e-15
1.52936e-14
-1.14385e-14
1.08925e-14
6.62482e-15
1.34836e-14
-5.64937e-15
-6.55921e-15
2.53041e-15
1.06692e-14
1.52367e-14
-5.4199e-15
-1.44502e-14
-1.28227e-14
6.73804e-15
-1.97915e-14
-8.92102e-16
2.85335e-16
2.18514e-15
-1.16496e-15
1.67652e-14
-5.40075e-16
4.03276e-15
-2.8473e-15
-2.49087e-15
5.15933e-15
-1.7115e-14
1.10099e-14
-1.41472e-15
1.12131e-14
9.58051e-15
3.44344e-15
3.19062e-15
-7.32164e-15
-1.7766e-14
6.84776e-15
8.35222e-15
8.33915e-15
8.94032e-15
6.04755e-15
-8.16051e-15
8.41992e-15
-6.65207e-15
1.50829e-14
-5.2651e-15
-3.2261e-15
2.68692e-15
-4.40595e-15
5.42524e-15
-1.29626e-14
-5.85979e-15
-1.41608e-15
1.94311e-15
-1.58449e-14
9.73939e-16
-3.70412e-15
9.26722e-15
2.85565e-15
7.99342e-15
-1.83114e-15
-4.10108e-15
-5.88077e-15
6.04218e-15
-2.8677e-14
-8.75572e-15
1.7537e-16
6.26541e-15
1.28344e-14
-1.40073e-14
1.51135e-15
4.06766e-16
-3.84304e-15
1.03574e-14
8.86598e-15
-2.49071e-14
7.70518e-15
-2.27276e-16
5.98596e-15
-1.02115e-14
1.35784e-14
-8.37831e-15
-3.58922e-15
5.93815e-15
-1.07099e-14
1.62972e-14
-1.28652e-14
-7.88402e-15
-3.99051e-15
-4.20391e-15
-1.44796e-14
-4.44835e-15
2.08237e-15
-3.90183e-15
-8.79722e-16
-1.57696e-14
2.75916e-15
-1.07791e-14
6.92236e-16
4.97643e-15
9.51181e-15
4.70796e-15
7.70502e-15
5.27855e-15
-2.66974e-15
9.1498e-15
-6.34481e-15
-9.08453e-15
4.00049e-15
-1.37466e-15
1.1515e-14
3.22989e-15
-1.14361e-14
7.6588e-16
1.48286e-14
-2.82142e-15
-1.20214e-14
-7.96092e-15
1.57551e-15
-1.60406e-14
-1.25912e-14
-1.56548e-15
7.44213e-15
3.22122e-15
1.87539e-14
-5.65954e-17
-7.82821e-15
-1.22689e-14
-2.84557e-14
3.18712e-14
-9.88201e-15
1.34143e-14
5.74774e-15
8.28336e-15
8.15483e-16
1.52779e-14
1.28696e-14
9.4164e-15
-1.56735e-14
6.79545e-15
-1.6801e-14
7.81666e-15
-7.34222e-15
-1.59039e-14
3.45953e-14
6.85216e-16
1.78783e-14
-5.8316e-15
5.81159e-15
-7.27852e-15
9.79891e-15
4.82904e-16
4.86265e-17
-3.0111e-15
8.4976e-15
8.76442e-15
8.62374e-15
1.90058e-14
-1.41992e-14
-1.06065e-14
-1.94032e-14
6.59179e-15
-6.56549e-15
-6.63158e-15
7.09881e-15
-2.65915e-14
1.83594e-14
2.83007e-14
-9.74513e-15
9.35818e-15
-1.11808e-14
-2.04264e-15
5.39835e-15
6.86105e-15
-1.76232e-14
5.493e-15
2.81027e-14
5.19224e-15
-1.04943e-14
2.89078e-14
-4.29821e-15
-2.80331e-15
-1.95796e-15
-2.89837e-14
-1.25054e-14
-3.13085e-15
2.64455e-14
9.56678e-15
1.14019e-14
-4.53504e-14
3.68553e-15
-5.28711e-15
9.57546e-15
7.97485e-15
2.05134e-14
-2.1198e-14
-2.61748e-15
8.35486e-15
1.32814e-14
-2.12005e-14
-2.14206e-15
-2.30751e-14
3.962e-15
2.9916e-14
-3.87501e-14
-1.31274e-14
-1.2915e-14
1.30972e-14
-9.84998e-15
1.29067e-14
1.43845e-14
-1.35641e-14
1.10983e-14
-9.78059e-15
-7.47503e-15
-1.73739e-14
-1.41717e-14
-8.63166e-15
5.41266e-15
2.37213e-15
2.2591e-14
-3.21078e-14
2.64482e-14
-7.89299e-17
-1.71614e-14
3.8595e-14
-2.70868e-14
-4.243e-14
4.37476e-15
-1.07533e-14
5.66517e-15
1.79663e-14
7.92682e-15
-1.23976e-14
1.55438e-14
-1.35384e-14
-1.95831e-14
1.79631e-14
7.76657e-15
-2.96729e-14
1.00488e-14
1.10866e-14
-1.00462e-15
1.21181e-14
1.06224e-14
4.42506e-15
-2.4676e-14
9.15782e-15
1.08991e-14
6.12661e-15
-2.77159e-14
-6.53904e-15
-1.43568e-14
-1.50242e-14
-1.4519e-14
-3.66525e-15
1.38665e-14
-4.49358e-15
1.45075e-14
2.60386e-14
-1.62869e-15
3.68562e-14
-2.09902e-16
-4.11498e-15
1.91513e-14
1.21496e-14
6.64204e-15
1.17072e-15
2.00165e-15
4.00418e-15
-1.05881e-14
1.27628e-14
1.30013e-14
4.99861e-15
-9.27427e-15
1.93977e-14
-2.58495e-15
1.17556e-14
1.87112e-15
2.06629e-14
-1.14583e-14
3.00797e-14
-6.20467e-15
3.85976e-17
1.69435e-14
-1.82714e-14
1.10853e-14
3.93843e-14
-1.68338e-14
2.47653e-14
1.56646e-14
-3.56052e-14
-2.55603e-14
3.92264e-15
-3.11209e-15
4.53587e-15
2.37297e-14
-1.50578e-14
9.57914e-15
1.3798e-14
-9.11727e-15
9.41391e-15
5.9475e-15
1.62466e-14
-2.85535e-14
-1.29887e-15
1.62457e-15
2.48152e-15
-7.77243e-15
9.58218e-15
3.43801e-14
3.55055e-15
-4.57533e-16
1.10168e-14
-9.48894e-16
2.57073e-14
-1.93335e-14
2.481e-14
-3.77996e-15
-1.31579e-14
1.53696e-14
-2.68926e-15
-1.18685e-14
-1.23105e-14
-8.91474e-15
-2.00018e-14
8.07123e-15
6.41501e-15
-1.84735e-14
-1.4171e-14
-2.59957e-14
-6.778e-15
-6.24847e-15
1.03251e-14
-1.57903e-15
-1.92828e-14
-7.17959e-15
-9.81853e-16
-1.06564e-14
-2.44292e-14
1.51385e-14
-2.79963e-14
-2.07148e-14
-6.18689e-15
-9.93997e-15
-9.3545e-15
8.62158e-16
-1.89761e-14
2.03873e-14
-9.01883e-15
-5.35509e-15
2.15262e-14
2.03509e-14
-4.01849e-15
-2.26485e-14
2.14134e-14
5.0281e-15
1.49976e-14
-9.87752e-15
1.42482e-14
7.68396e-15
-1.03181e-14
-4.27696e-15
-1.93196e-14
-2.34188e-16
-4.81039e-15
5.4028e-15
-1.59612e-14
-1.58632e-14
1.10502e-15
1.70359e-14
4.33681e-16
-1.65146e-15
-1.80802e-14
-1.32186e-15
-1.79769e-14
1.12133e-14
-1.63055e-14
-9.04225e-15
6.88685e-16
-2.2927e-14
-1.91106e-14
4.45477e-15
1.09721e-15
6.10102e-15
8.16881e-15
-3.14835e-14
8.39519e-15
3.07272e-14
5.07754e-15
2.76289e-14
2.58491e-14
-1.88651e-15
1.25074e-15
6.74114e-15
2.46947e-14
2.84928e-15
-6.12184e-15
-5.22152e-16
1.83707e-15
-1.8866e-14
1.37737e-14
3.40492e-14
4.88672e-15
2.06606e-15
1.04326e-14
3.53884e-15
5.48693e-15
-1.5845e-14
-7.90513e-15
8.96852e-16
8.9026e-15
6.90767e-15
-7.42462e-16
2.62759e-14
-8.14973e-15
-4.21364e-15
-6.87991e-15
1.83187e-15
-4.60222e-14
-1.20459e-14
-2.6151e-14
-1.11265e-14
1.34788e-15
2.22166e-14
1.85511e-14
2.64025e-15
3.13569e-14
-3.21618e-15
-2.15349e-14
-3.74874e-14
-7.06379e-15
-9.03791e-15
1.18395e-14
1.85667e-14
1.3935e-14
-2.64892e-15
4.75488e-15
1.50973e-14
2.56739e-15
3.04028e-14
1.56906e-14
-3.00454e-15
-4.52242e-15
-3.81639e-16
2.12504e-15
1.41154e-14
-2.31395e-14
-4.34028e-15
1.38847e-14
-1.33279e-14
-2.18575e-14
3.43996e-15
-1.31926e-14
-4.59875e-15
1.25976e-14
-7.1991e-15
-1.80064e-14
1.75814e-14
-8.13412e-15
3.57353e-16
-1.37754e-14
-2.63713e-14
-6.47052e-15
-2.36408e-14
-6.21378e-15
-3.61863e-14
-2.17534e-15
1.64348e-14
-2.18575e-16
1.52413e-14
-1.13867e-14
-1.77081e-14
3.00801e-15
-2.27353e-14
-1.65493e-14
2.50217e-14
-1.43843e-14
2.43555e-15
2.38143e-14
2.2541e-14
4.49189e-14
-7.35523e-15
6.7446e-15
5.20764e-15
5.51642e-16
1.57444e-14
-1.66048e-14
2.18575e-16
1.26357e-14
1.30174e-14
-1.34961e-14
3.77476e-15
-6.6995e-15
-2.50355e-14
-1.14839e-15
2.02061e-14
-1.32984e-14
-1.40096e-14
8.43769e-15
-1.73611e-14
-5.01335e-15
-1.37321e-14
-6.92155e-15
-1.44051e-14
2.94209e-15
6.56419e-15
1.8336e-14
4.49987e-15
-1.37598e-14
7.73687e-15
1.46411e-15
1.67817e-14
1.98244e-14
9.61731e-15
-2.03622e-14
-6.25888e-15
-1.17614e-15
6.8695e-15
1.38431e-15
4.47212e-15
-1.30104e-15
1.028e-14
3.54577e-15
1.59178e-14
-5.83561e-15
-3.20577e-15
-5.63438e-15
4.21885e-15
-7.10543e-15
-7.18176e-15
1.08108e-14
5.19723e-15
-5.80092e-15
-9.92262e-16
2.22322e-14
-1.98591e-14
2.80123e-14
-6.245e-17
-2.08583e-14
-2.37102e-14
-3.74284e-14
1.89154e-14
-3.00454e-15
-1.46411e-15
4.92661e-15
-1.49186e-15
1.36002e-15
-1.36419e-14
1.8735e-15
1.1581e-14
1.7826e-14
-1.92207e-15
2.46816e-14
2.73045e-14
-4.2813e-15
-6.01602e-15
1.54668e-14
2.34049e-14
-8.99281e-15
-1.76525e-14
-1.99146e-15
3.26128e-15
5.80785e-15
1.67227e-15
-1.35794e-14
-5.58581e-15
-7.36217e-15
1.50366e-14
3.63598e-15
1.6584e-15
1.3517e-14
-1.33782e-14
-2.19061e-14
-1.85754e-14
1.0221e-14
1.94497e-14
2.8956e-14
-1.46619e-14
-2.498e-14
-2.24196e-14
3.58047e-15
-4.97519e-15
-1.49741e-14
4.57967e-15
2.42861e-14
4.21885e-15
-4.76008e-15
-1.40582e-14
-1.22818e-14
3.60822e-15
-3.747e-16
2.54935e-14
-4.6213e-15
1.14075e-14
-2.38976e-14
1.01585e-14
-5.60663e-15
1.01585e-14
2.63956e-14
1.95122e-14
3.13638e-14
-2.75474e-14
-2.37865e-14
-2.69229e-15
-1.27676e-15
-1.46549e-14
4.73233e-15
1.4197e-14
3.76088e-15
1.04083e-15
-1.21708e-14
9.312e-15
-3.23352e-15
-1.62786e-14
8.75688e-15
7.39686e-15
-1.28092e-14
-3.82611e-14
1.04777e-14
1.48909e-14
-9.32587e-15
1.02418e-14
2.09693e-14
-6.92502e-15
7.41074e-15
1.11022e-15
1.63758e-15
-1.03251e-14
-1.1588e-14
8.36831e-15
-1.7597e-14
1.40304e-14
1.98314e-14
9.39526e-15
1.39333e-14
-1.79995e-14
-3.49443e-14
2.44249e-15
2.30232e-14
1.71113e-14
3.80251e-15
1.90126e-15
4.996e-15
9.83935e-15
-1.60982e-14
-6.20337e-15
-1.02834e-14
7.43849e-15
9.1871e-15
1.3628e-14
-9.46465e-15
-1.43219e-14
-5.03764e-15
-1.64868e-14
1.35447e-14
-1.97065e-14
-1.64868e-14
7.63278e-16
-2.49939e-14
-2.83107e-15
-1.37668e-14
2.84356e-14
9.50628e-15
-1.7486e-14
1.39333e-14
2.01922e-14
-1.30451e-15
-1.66533e-15
1.56541e-14
-7.16094e-15
8.96505e-15
4.57967e-16
1.90126e-15
2.75058e-14
-6.92502e-15
-3.33067e-16
6.06459e-15
3.01842e-14
-3.1225e-15
-2.92821e-15
8.71525e-15
-5.31519e-15
-1.89571e-14
1.79023e-14
-5.82867e-16
4.85723e-15
2.06224e-14
3.38479e-14
9.71445e-17
5.55112e-17
-4.81559e-15
-1.06026e-14
-1.25594e-14
2.53964e-15
8.46545e-16
-8.89566e-15
2.32731e-14
6.14786e-15
1.5446e-14
-1.04916e-14
1.37668e-14
-1.13798e-15
-1.3281e-14
-1.57652e-14
6.245e-15
1.24623e-14
1.41276e-14
5.80092e-15
1.53488e-14
1.99285e-14
1.09079e-14
6.71685e-15
-2.88658e-15
2.634e-14
1.19071e-14
1.2268e-14
3.05311e-15
1.79856e-14
1.95122e-14
-3.83582e-14
2.35922e-15
-3.91354e-14
1.94289e-16
2.3842e-14
-1.27676e-14
-1.37945e-14
1.17961e-14
2.77556e-16
-2.69229e-15
2.74503e-14
-1.69864e-14
-2.76723e-14
-1.54321e-14
-1.25178e-14
8.88178e-16
-1.97897e-14
1.45439e-14
-9.6867e-15
-1.05471e-14
-6.10623e-15
-1.45717e-14
-1.04083e-14
-1.77358e-14
1.43219e-14
2.73948e-14
1.86517e-14
-2.62013e-14
-4.90163e-14
2.84772e-14
-1.65978e-14
3.37508e-14
9.15934e-15
-9.07607e-15
-2.96985e-15
1.27398e-14
-9.49241e-15
-3.69149e-15
-1.75415e-14
-3.84137e-14
-1.66811e-14
-2.94209e-14
6.99441e-15
1.16851e-14
9.6867e-15
-3.97182e-14
-2.55629e-14
6.10623e-16
-2.12053e-14
-2.32592e-14
-3.64431e-14
1.11022e-16
-6.21725e-15
2.12608e-14
-8.21565e-15
-2.57849e-14
-2.05114e-14
6.68909e-15
7.49401e-15
-2.13718e-15
4.39371e-14
8.90954e-15
9.88098e-15
-1.27676e-15
-3.19744e-14
-1.80966e-14
1.09079e-14
-1.99563e-14
-1.84575e-14
-4.45199e-14
-2.67841e-14
1.27676e-14
8.24341e-15
-2.10942e-15
6.41154e-15
2.5896e-14
1.36835e-14
-1.80411e-14
-5.7454e-15
-1.87905e-14
1.47105e-15
2.226e-14
2.74503e-14
3.23352e-14
-3.02813e-14
4.27436e-15
-3.37785e-14
3.10862e-15
3.88023e-14
-2.8838e-14
3.43336e-14
-4.59355e-14
-9.85323e-15
2.45359e-14
8.07687e-15
-2.25375e-14
-1.51545e-14
-5.35683e-15
3.1225e-14
1.89015e-14
2.14828e-14
3.11695e-14
-2.46192e-14
-3.27516e-15
-9.9365e-15
6.67244e-14
2.10942e-14
-9.4369e-15
-6.4948e-15
1.65978e-14
3.61378e-14
-2.03171e-14
8.65974e-15
1.85407e-14
-1.93734e-14
2.24265e-14
3.04756e-14
8.16014e-15
-2.2593e-14
-2.07057e-14
1.11577e-14
-6.38378e-15
1.40998e-14
-1.53211e-14
3.71925e-15
4.80727e-14
2.94209e-15
3.55271e-15
2.33147e-15
2.226e-14
6.66134e-15
-1.07692e-14
2.51466e-14
2.19824e-14
-1.19904e-14
-1.03251e-14
8.43769e-15
1.95399e-14
-5.77316e-15
1.20459e-14
9.76996e-15
-3.21965e-15
-1.9984e-14
-1.97065e-14
1.21569e-14
-4.00791e-14
4.66294e-14
2.95319e-14
-9.49241e-15
-4.82947e-15
-1.04361e-14
5.05151e-14
1.13243e-14
-1.91513e-14
-8.32667e-15
5.93969e-15
4.26881e-14
-2.34812e-14
-1.79856e-14
7.49401e-15
-2.79776e-14
-5.60663e-15
-1.00475e-14
-9.15934e-15
-4.55191e-15
-5.78981e-14
-1.7597e-14
3.66374e-15
5.40124e-14
1.71529e-14
-1.43774e-14
-9.99201e-16
-1.69864e-14
-3.0087e-14
4.82947e-15
2.22045e-14
-1.21014e-14
-2.59792e-14
2.67009e-14
1.17129e-14
-1.33782e-14
-1.23235e-14
-1.82077e-14
3.53051e-14
2.68674e-14
-3.9968e-14
5.16254e-15
1.02696e-14
-1.72085e-15
-2.60902e-15
3.05311e-14
-9.04832e-15
-1.249e-14
-4.10783e-14
8.16014e-15
-5.05151e-15
-2.27041e-14
1.59872e-14
2.63123e-14
1.87628e-14
-7.27196e-15
-3.66374e-15
2.55351e-14
2.09832e-14
-2.27596e-15
3.07532e-14
-2.63123e-14
-1.68199e-14
-2.98095e-14
9.10383e-15
-6.99441e-15
-3.86358e-14
-1.06581e-14
-1.38778e-15
-1.87073e-14
-4.88498e-15
-3.7137e-14
2.5091e-14
-8.27116e-15
-1.70974e-14
1.32117e-14
-8.88178e-16
1.17684e-14
-2.19269e-14
5.10703e-15
2.08167e-14
-1.60982e-15
-1.82632e-14
-4.59632e-14
-5.06262e-14
1.66533e-16
2.64788e-14
2.49245e-14
4.82392e-14
-3.83027e-15
-2.88658e-15
1.70974e-14
3.88578e-16
-2.02061e-14
-7.38298e-15
-1.63758e-14
3.15303e-14
2.22045e-16
-1.18239e-14
-1.77636e-15
1.73195e-14
1.84297e-14
1.33227e-15
6.10623e-16
-4.77396e-15
-3.80806e-14
4.4964e-15
-2.08722e-14
2.44249e-14
4.71845e-15
1.91513e-14
1.38778e-14
-3.53606e-14
-3.68594e-14
-2.9865e-14
-8.88178e-16
3.12528e-14
-1.99285e-14
-6.66134e-16
1.37113e-14
3.88578e-16
2.79776e-14
-6.43929e-15
3.30291e-14
5.66214e-15
2.09832e-14
2.09832e-14
-2.05391e-15
-4.69624e-14
2.90323e-14
5.77316e-15
3.36398e-14
-1.16573e-15
-9.21485e-15
1.94844e-14
5.55112e-17
-6.10623e-15
-2.498e-15
2.27596e-14
1.0103e-14
1.26565e-14
-2.39808e-14
1.88738e-14
2.59792e-14
2.81997e-14
4.88498e-15
-2.14273e-14
-2.62013e-14
-3.31957e-14
3.9968e-15
-5.38458e-14
-2.25375e-14
3.36398e-14
1.43219e-14
1.29896e-14
2.81997e-14
-2.36478e-14
4.44089e-16
-2.52021e-14
1.12133e-14
-8.43769e-15
-2.65343e-14
1.28786e-14
-2.33147e-15
-3.33067e-16
-9.10383e-15
6.88338e-15
1.29896e-14
-5.88418e-15
-1.72085e-14
-9.54792e-15
-1.4988e-14
3.19744e-14
3.33067e-15
-2.22045e-15
1.27676e-14
-2.19824e-14
2.34257e-14
-1.53211e-14
-7.10543e-15
-1.57652e-14
1.57652e-14
-1.31006e-14
-2.37588e-14
6.66134e-15
-2.38698e-14
-1.85407e-14
1.08802e-14
4.67404e-14
-3.10862e-14
-2.20934e-14
-4.10783e-15
-1.19904e-14
3.54161e-14
-2.07612e-14
1.32117e-14
1.18794e-14
1.63203e-14
1.4766e-14
-1.04361e-14
-5.44009e-15
2.26485e-14
-1.22125e-14
-2.38698e-14
1.80966e-14
2.15383e-14
-1.74305e-14
1.55431e-14
-1.22125e-15
1.77636e-15
5.65104e-14
8.32667e-15
-1.21014e-14
-1.65423e-14
2.16493e-14
4.55191e-15
9.32587e-15
-7.43849e-15
-1.63203e-14
-2.81997e-14
9.21485e-15
-2.33147e-15
-2.44249e-15
-8.10463e-15
-1.12133e-14
2.73115e-14
-3.4861e-14
8.21565e-15
2.88658e-15
-1.11022e-16
2.32037e-14
9.99201e-16
-1.22125e-14
2.55351e-14
4.60743e-14
2.55351e-15
1.70974e-14
-2.10942e-15
-5.55112e-16
-1.03251e-14
1.36557e-14
-4.55191e-14
4.22995e-14
4.21885e-15
-2.16493e-14
3.05311e-14
-9.65894e-15
-9.88098e-15
-8.88178e-16
1.64313e-14
2.57572e-14
-3.36398e-14
-2.55351e-15
-1.07692e-14
-3.10862e-15
-2.43139e-14
-1.4766e-14
-1.31006e-14
-2.19824e-14
-1.16573e-14
3.33067e-16
-1.11022e-16
1.54321e-14
2.25375e-14
-1.45439e-14
-4.51861e-14
2.19824e-14
-4.55191e-15
-1.72085e-14
-1.70974e-14
-5.56222e-14
-1.18794e-14
-1.23235e-14
1.29896e-14
-1.89848e-14
-8.10463e-15
1.23235e-14
-9.76996e-15
1.4988e-14
5.88418e-15
-2.33147e-14
2.56462e-14
-6.32827e-15
4.10783e-15
-1.66533e-15
-1.12133e-14
3.44169e-14
-1.22125e-14
-7.99361e-15
-3.33067e-16
-1.17684e-14
2.40918e-14
-1.11022e-16
-2.34257e-14
-3.83027e-14
-2.55351e-15
-2.87548e-14
-6.99441e-15
-7.10543e-15
-1.22125e-15
-9.54792e-15
3.41949e-14
-5.29576e-14
1.13243e-14
4.26326e-14
-1.52101e-14
8.99281e-15
5.10703e-15
-6.21725e-15
1.4766e-14
-4.44089e-16
5.38458e-14
1.11022e-15
-1.25455e-14
-3.44169e-15
1.90958e-14
-1.11022e-15
-2.74225e-14
2.77556e-15
1.43219e-14
-9.21485e-15
1.82077e-14
2.33147e-15
-1.56541e-14
-2.22045e-14
3.83027e-14
-3.21965e-15
-1.67644e-14
4.17444e-14
1.56541e-14
4.77396e-14
1.38778e-14
-3.33067e-16
2.59792e-14
9.32587e-15
-1.09912e-14
4.55191e-15
5.9952e-15
1.19904e-14
-8.54872e-15
2.9865e-14
-1.68754e-14
-9.10383e-15
1.87628e-14
2.9754e-14
1.44329e-15
-1.74305e-14
1.21014e-14
-5.32907e-15
-1.42109e-14
1.02141e-14
-1.65423e-14
-3.4639e-14
-1.11022e-16
2.62013e-14
-1.06581e-14
1.11022e-15
1.9873e-14
4.17444e-14
-4.10783e-15
4.82947e-14
-2.08722e-14
1.4766e-14
-1.24345e-14
-1.40998e-14
-9.99201e-15
-1.62093e-14
-3.54161e-14
-1.24345e-14
-3.54161e-14
2.22045e-16
-3.81917e-14
1.04361e-14
8.54872e-15
1.59872e-14
-1.77636e-15
2.9976e-15
4.17444e-14
3.33067e-15
-2.04281e-14
5.55112e-15
-4.55191e-14
-1.59872e-14
1.79856e-14
2.22045e-14
-7.10543e-15
-3.59712e-14
-2.04281e-14
-1.73195e-14
2.66454e-15
-5.10703e-14
1.26565e-14
-4.44089e-16
-2.86438e-14
-7.54952e-15
-4.44089e-16
-2.4869e-14
-2.64233e-14
-1.33227e-15
7.10543e-15
-5.32907e-15
-1.75415e-14
1.75415e-14
-1.17684e-14
-9.10383e-15
6.21725e-15
7.54952e-15
-2.57572e-14
-1.11022e-15
6.21725e-15
-1.57652e-14
-7.32747e-15
3.75255e-14
1.39888e-14
-9.54792e-15
1.08802e-14
2.04281e-14
-7.54952e-15
-7.77156e-15
5.10703e-15
-6.57252e-14
2.22045e-16
1.33227e-15
4.44089e-16
-2.39808e-14
1.33227e-14
8.88178e-16
1.86517e-14
8.88178e-15
3.5083e-14
-3.33067e-15
-1.57652e-14
1.11022e-14
-5.77316e-15
-1.95399e-14
1.26565e-14
4.44089e-16
-1.08802e-14
5.55112e-15
1.77636e-14
-1.35447e-14
3.95239e-14
2.37588e-14
-1.02141e-14
-1.33227e-15
7.77156e-15
5.28466e-14
2.13163e-14
-1.77636e-14
-3.4861e-14
1.95399e-14
-1.55431e-15
-3.33067e-15
3.86358e-14
2.59792e-14
1.33227e-15
5.10703e-15
3.06422e-14
-2.95319e-14
1.11022e-14
5.32907e-15
1.46549e-14
2.66454e-15
-2.66454e-15
-2.57572e-14
-1.90958e-14
-1.9984e-15
-3.10862e-15
-1.02141e-14
-1.39888e-14
2.70894e-14
3.10862e-15
3.77476e-15
-1.75415e-14
-1.13243e-14
-2.68674e-14
-6.21725e-15
1.44329e-14
-1.90958e-14
1.9984e-15
5.83977e-14
2.26485e-14
-1.84297e-14
-1.53211e-14
1.19904e-14
-7.99361e-15
-1.84297e-14
2.44249e-15
7.99361e-15
-1.02141e-14
-1.75415e-14
1.75415e-14
-1.26565e-14
4.66294e-15
2.02061e-14
-2.57572e-14
-6.88338e-15
-3.08642e-14
-9.99201e-15
-1.19904e-14
3.08642e-14
5.32907e-15
4.44089e-15
2.66454e-15
-2.77556e-14
-2.66454e-14
-1.55431e-14
-7.77156e-15
1.5099e-14
3.77476e-14
1.02141e-14
-1.82077e-14
3.9968e-15
-1.84297e-14
-2.13163e-14
-8.88178e-16
2.17604e-14
1.5099e-14
2.08722e-14
-5.9952e-15
-1.88738e-14
7.54952e-15
-2.64233e-14
2.13163e-14
4.55191e-14
1.5099e-14
6.43929e-15
7.99361e-15
7.99361e-15
4.66294e-15
-3.10862e-14
1.90958e-14
-1.70974e-14
1.04361e-14
1.11022e-14
1.17684e-14
-1.08802e-14
2.44249e-15
1.88738e-14
-6.66134e-16
-3.5083e-14
6.21725e-15
1.06581e-14
6.88338e-15
-1.55431e-15
9.99201e-15
-3.55271e-15
0
1.13243e-14
-1.73195e-14
-1.77636e-15
-5.55112e-15
1.11022e-15
-1.4877e-14
-7.99361e-15
6.66134e-15
-2.88658e-15
2.42029e-14
-7.54952e-15
-1.62093e-14
-3.55271e-14
-1.95399e-14
-1.55431e-15
3.77476e-15
2.37588e-14
1.44329e-14
-3.19744e-14
8.43769e-15
4.21885e-15
-4.15223e-14
-1.66533e-14
-4.44089e-16
6.21725e-15
-1.08802e-14
-2.17604e-14
1.11022e-15
3.33067e-15
-4.37428e-14
-1.11022e-14
-4.21885e-15
4.88498e-15
-1.73195e-14
9.54792e-15
-2.62013e-14
4.44089e-16
-4.21885e-15
-7.10543e-15
-2.66454e-15
8.43769e-15
1.15463e-14
3.24185e-14
-3.04201e-14
1.33227e-14
2.88658e-15
-7.77156e-15
8.21565e-15
2.66454e-15
-1.15463e-14
-1.24345e-14
-4.44089e-16
2.13163e-14
-1.37668e-14
1.35447e-14
1.82077e-14
-3.55271e-15
4.44089e-16
1.26565e-14
-1.44329e-14
8.88178e-16
1.15463e-14
2.77556e-14
-1.33227e-15
-1.33227e-14
1.44329e-14
-1.33227e-15
2.37588e-14
-1.33227e-15
-1.35447e-14
7.54952e-15
9.54792e-15
1.73195e-14
1.13243e-14
-9.54792e-15
-1.24345e-14
-2.22045e-16
1.68754e-14
3.66374e-14
-1.75415e-14
2.22045e-16
-2.88658e-15
8.88178e-15
1.28786e-14
-1.19904e-14
2.37588e-14
1.55431e-14
2.88658e-15
-8.88178e-15
2.88658e-14
1.31006e-14
1.57652e-14
1.37668e-14
2.44249e-14
2.22045e-15
1.13243e-14
-1.84297e-14
-1.28786e-14
-1.15463e-14
1.35447e-14
-2.35367e-14
-5.55112e-15
-1.39888e-14
1.77636e-15
-1.95399e-14
-4.44089e-16
5.55112e-15
3.55271e-15
-2.88658e-15
2.79776e-14
2.22045e-15
8.65974e-15
-1.59872e-14
1.9984e-15
-8.65974e-15
-2.55351e-14
-3.9968e-15
9.10383e-15
-2.17604e-14
-1.13243e-14
-5.55112e-15
-3.10862e-14
7.10543e-15
8.21565e-15
2.66454e-15
-1.68754e-14
3.33067e-15
-2.30926e-14
-1.9762e-14
1.13243e-14
-1.90958e-14
1.93179e-14
-1.31006e-14
8.65974e-15
-1.68754e-14
1.86517e-14
-1.73195e-14
-2.24265e-14
-4.75175e-14
2.53131e-14
3.9968e-15
1.04361e-14
-9.32587e-15
2.84217e-14
8.65974e-15
-3.9968e-15
-3.9968e-15
1.57652e-14
-9.54792e-15
-1.66533e-14
-1.28786e-14
-2.86438e-14
-1.13243e-14
7.10543e-15
7.32747e-15
1.9984e-15
6.88338e-15
-5.9952e-15
3.53051e-14
-3.06422e-14
1.24345e-14
1.77636e-15
-1.42109e-14
-7.77156e-15
1.57652e-14
2.22045e-15
-1.06581e-14
-8.65974e-15
1.77636e-14
-1.84297e-14
3.77476e-15
-1.77636e-14
2.59792e-14
-7.54952e-15
2.86438e-14
7.99361e-15
-3.9968e-15
-7.77156e-15
1.06581e-14
2.4647e-14
3.77476e-15
4.06342e-14
-1.28786e-14
-1.64313e-14
8.88178e-16
7.10543e-15
-2.22045e-15
-4.44089e-16
-1.33227e-15
2.22045e-16
4.66294e-15
-2.79776e-14
1.33227e-14
-6.66134e-15
8.88178e-15
-1.5099e-14
5.77316e-15
2.30926e-14
1.68754e-14
-2.4869e-14
-2.22045e-14
-2.66454e-15
6.21725e-15
-5.55112e-14
-8.88178e-16
7.54952e-15
-1.06581e-14
-2.22045e-14
2.22045e-15
5.77316e-15
-1.82077e-14
1.64313e-14
3.9968e-15
-1.06581e-14
-2.13163e-14
7.54952e-15
-7.99361e-15
1.24345e-14
-3.9968e-15
2.39808e-14
-1.19904e-14
-1.90958e-14
3.15303e-14
-1.02141e-14
-3.24185e-14
-9.76996e-15
1.24345e-14
-4.44089e-16
-2.4869e-14
3.01981e-14
-1.95399e-14
9.32587e-15
-4.88498e-15
8.43769e-15
-3.4639e-14
1.77636e-15
-1.37668e-14
-2.84217e-14
5.77316e-15
-1.73195e-14
-1.42109e-14
-1.28786e-14
2.39808e-14
-3.9968e-15
1.55431e-14
3.55271e-15
-1.68754e-14
1.46549e-14
2.22045e-15
8.88178e-16
-3.06422e-14
1.37668e-14
-1.55431e-14
-4.44089e-15
1.33227e-15
-9.76996e-15
-3.55271e-15
-7.99361e-15
1.77636e-15
1.33227e-14
1.33227e-14
7.54952e-15
-2.22045e-15
3.95239e-14
-1.02141e-14
-1.11022e-14
2.4869e-14
1.59872e-14
9.76996e-15
-3.10862e-15
2.66454e-14
-2.17604e-14
2.66454e-15
9.32587e-15
2.08722e-14
-1.33227e-15
2.75335e-14
-2.22045e-15
-2.08722e-14
-6.66134e-15
-7.54952e-15
2.35367e-14
-4.44089e-14
3.10862e-14
3.06422e-14
1.86517e-14
4.44089e-16
2.39808e-14
8.43769e-15
-2.35367e-14
9.76996e-15
7.54952e-15
-1.02141e-14
-8.88178e-15
1.37668e-14
7.99361e-15
2.79776e-14
2.79776e-14
-2.66454e-15
-7.99361e-15
2.4869e-14
1.77636e-15
-4.26326e-14
1.06581e-14
-6.66134e-15
3.55271e-15
1.06581e-14
-7.10543e-15
-3.55271e-15
1.64313e-14
3.10862e-14
-6.66134e-15
-1.46549e-14
-4.88498e-15
-1.64313e-14
1.19904e-14
-2.04281e-14
8.43769e-15
-3.9968e-15
-8.43769e-15
9.32587e-15
-3.10862e-15
9.32587e-15
-1.73195e-14
-3.10862e-15
2.66454e-14
-1.59872e-14
-7.99361e-15
3.9968e-15
-7.10543e-15
-1.77636e-14
1.06581e-14
7.10543e-15
-1.95399e-14
-1.59872e-14
3.10862e-15
-2.26485e-14
5.32907e-15
2.30926e-14
1.42109e-14
1.55431e-14
-1.42109e-14
2.22045e-14
-3.01981e-14
1.77636e-15
-7.10543e-15
-2.13163e-14
-1.02141e-14
1.33227e-15
1.06581e-14
1.59872e-14
-2.39808e-14
-4.44089e-15
3.33067e-14
-2.66454e-15
8.88178e-15
5.32907e-15
-3.06422e-14
1.33227e-15
1.33227e-14
-1.77636e-14
1.55431e-14
2.30926e-14
1.82077e-14
3.55271e-15
-1.86517e-14
-3.55271e-15
-1.37668e-14
2.22045e-15
-3.81917e-14
-1.68754e-14
-5.32907e-15
1.55431e-14
3.55271e-15
1.02141e-14
2.13163e-14
2.13163e-14
-2.17604e-14
-1.33227e-15
1.90958e-14