/*--------------------------------*- C++ -*----------------------------------*\
| =========                 |                                                 |
| \\      /  F ield         | foam-extend: Open Source CFD                    |
|  \\    /   O peration     | Version:     4.0                                |
|   \\  /    A nd           | Web:         http://www.foam-extend.org         |
|    \\/     M anipulation  |                                                 |
\*---------------------------------------------------------------------------*/
FoamFile
{
    version     2.0;
    format      ascii;
    class       volScalarField;
    location    "240";
    object      cPlus;
}
// * * * * * * * * * * * * * * * * * * * * * * * * * * * * * * * * * * * * * //

dimensions      [0 0 0 0 0 0 0];

internalField   nonuniform List<scalar> 
6960
(
0.258398
0.258358
0.258351
0.25835
0.258352
0.258354
0.258356
0.258357
0.258359
0.25836
0.258362
0.258363
0.258364
0.258366
0.258367
0.258368
0.258369
0.25837
0.25837
0.258371
0.258372
0.258373
0.258373
0.258374
0.258374
0.258374
0.258375
0.258375
0.258375
0.258375
0.258375
0.258375
0.258375
0.258375
0.258374
0.258374
0.258374
0.258373
0.258373
0.258372
0.258371
0.25837
0.25837
0.258369
0.258368
0.258367
0.258366
0.258364
0.258363
0.258362
0.25836
0.258359
0.258357
0.258356
0.258354
0.258352
0.25835
0.258351
0.258358
0.258398
0.0983029
0.0983056
0.0983065
0.0983076
0.0983087
0.0983098
0.0983108
0.0983117
0.0983126
0.0983133
0.0983141
0.0983148
0.0983154
0.0983161
0.0983166
0.0983172
0.0983177
0.0983182
0.0983186
0.098319
0.0983193
0.0983197
0.0983199
0.0983202
0.0983204
0.0983206
0.0983207
0.0983208
0.0983209
0.0983209
0.0983209
0.0983209
0.0983208
0.0983207
0.0983206
0.0983204
0.0983202
0.0983199
0.0983197
0.0983193
0.098319
0.0983186
0.0983182
0.0983177
0.0983172
0.0983166
0.0983161
0.0983154
0.0983148
0.0983141
0.0983133
0.0983126
0.0983117
0.0983108
0.0983098
0.0983087
0.0983076
0.0983065
0.0983056
0.0983029
0.070101
0.0701239
0.070129
0.0701306
0.0701315
0.0701322
0.0701328
0.0701333
0.0701338
0.0701343
0.0701347
0.0701351
0.0701354
0.0701358
0.0701361
0.0701364
0.0701367
0.070137
0.0701372
0.0701374
0.0701376
0.0701378
0.070138
0.0701381
0.0701382
0.0701383
0.0701384
0.0701385
0.0701385
0.0701385
0.0701385
0.0701385
0.0701385
0.0701384
0.0701383
0.0701382
0.0701381
0.070138
0.0701378
0.0701376
0.0701374
0.0701372
0.070137
0.0701367
0.0701364
0.0701361
0.0701358
0.0701354
0.0701351
0.0701347
0.0701343
0.0701338
0.0701333
0.0701328
0.0701322
0.0701315
0.0701306
0.070129
0.0701239
0.070101
0.0667473
0.0667792
0.0667863
0.0667882
0.0667891
0.0667897
0.0667902
0.0667906
0.066791
0.0667913
0.0667917
0.066792
0.0667923
0.0667925
0.0667928
0.066793
0.0667932
0.0667934
0.0667936
0.0667938
0.066794
0.0667941
0.0667942
0.0667943
0.0667944
0.0667945
0.0667946
0.0667946
0.0667946
0.0667946
0.0667946
0.0667946
0.0667946
0.0667946
0.0667945
0.0667944
0.0667943
0.0667942
0.0667941
0.066794
0.0667938
0.0667936
0.0667934
0.0667932
0.066793
0.0667928
0.0667925
0.0667923
0.066792
0.0667917
0.0667913
0.066791
0.0667906
0.0667902
0.0667897
0.0667891
0.0667882
0.0667863
0.0667792
0.0667473
0.0693083
0.0693459
0.0693543
0.0693565
0.0693575
0.0693581
0.0693586
0.0693591
0.0693595
0.0693598
0.0693602
0.0693605
0.0693608
0.0693611
0.0693613
0.0693616
0.0693618
0.069362
0.0693622
0.0693623
0.0693625
0.0693626
0.0693628
0.0693629
0.069363
0.069363
0.0693631
0.0693631
0.0693632
0.0693632
0.0693632
0.0693632
0.0693631
0.0693631
0.069363
0.069363
0.0693629
0.0693628
0.0693626
0.0693625
0.0693623
0.0693622
0.069362
0.0693618
0.0693616
0.0693613
0.0693611
0.0693608
0.0693605
0.0693602
0.0693598
0.0693595
0.0693591
0.0693586
0.0693581
0.0693575
0.0693565
0.0693543
0.0693459
0.0693083
0.0740492
0.0740927
0.0741023
0.0741049
0.074106
0.0741068
0.0741074
0.0741079
0.0741084
0.0741088
0.0741092
0.0741096
0.0741099
0.0741102
0.0741105
0.0741108
0.0741111
0.0741113
0.0741115
0.0741117
0.0741119
0.0741121
0.0741122
0.0741123
0.0741124
0.0741125
0.0741126
0.0741127
0.0741127
0.0741127
0.0741127
0.0741127
0.0741127
0.0741126
0.0741125
0.0741124
0.0741123
0.0741122
0.0741121
0.0741119
0.0741117
0.0741115
0.0741113
0.0741111
0.0741108
0.0741105
0.0741102
0.0741099
0.0741096
0.0741092
0.0741088
0.0741084
0.0741079
0.0741074
0.0741068
0.074106
0.0741049
0.0741023
0.0740927
0.0740492
0.0804561
0.0805069
0.0805183
0.0805214
0.0805227
0.0805236
0.0805243
0.080525
0.0805255
0.0805261
0.0805266
0.080527
0.0805275
0.0805279
0.0805282
0.0805286
0.0805289
0.0805292
0.0805295
0.0805297
0.0805299
0.0805301
0.0805303
0.0805305
0.0805306
0.0805307
0.0805308
0.0805309
0.0805309
0.0805309
0.0805309
0.0805309
0.0805309
0.0805308
0.0805307
0.0805306
0.0805305
0.0805303
0.0805301
0.0805299
0.0805297
0.0805295
0.0805292
0.0805289
0.0805286
0.0805282
0.0805279
0.0805275
0.080527
0.0805266
0.0805261
0.0805255
0.080525
0.0805243
0.0805236
0.0805227
0.0805214
0.0805183
0.0805069
0.0804561
0.0888532
0.0889139
0.0889275
0.0889313
0.0889329
0.088934
0.0889349
0.0889357
0.0889365
0.0889372
0.0889378
0.0889384
0.0889389
0.0889394
0.0889399
0.0889403
0.0889407
0.0889411
0.0889414
0.0889417
0.088942
0.0889423
0.0889425
0.0889427
0.0889429
0.088943
0.0889431
0.0889432
0.0889433
0.0889433
0.0889433
0.0889433
0.0889432
0.0889431
0.088943
0.0889429
0.0889427
0.0889425
0.0889423
0.088942
0.0889417
0.0889414
0.0889411
0.0889407
0.0889403
0.0889399
0.0889394
0.0889389
0.0889384
0.0889378
0.0889372
0.0889365
0.0889357
0.0889349
0.088934
0.0889329
0.0889313
0.0889275
0.0889139
0.0888532
0.0998825
0.0999566
0.0999734
0.0999781
0.0999801
0.0999815
0.0999827
0.0999837
0.0999846
0.0999855
0.0999863
0.099987
0.0999877
0.0999883
0.0999889
0.0999895
0.09999
0.0999905
0.0999909
0.0999913
0.0999917
0.099992
0.0999923
0.0999926
0.0999928
0.099993
0.0999931
0.0999932
0.0999933
0.0999933
0.0999933
0.0999933
0.0999932
0.0999931
0.099993
0.0999928
0.0999926
0.0999923
0.099992
0.0999917
0.0999913
0.0999909
0.0999905
0.09999
0.0999895
0.0999889
0.0999883
0.0999877
0.099987
0.0999863
0.0999855
0.0999846
0.0999837
0.0999827
0.0999815
0.0999801
0.0999781
0.0999734
0.0999566
0.0998825
0.114311
0.114403
0.114424
0.114429
0.114432
0.114434
0.114435
0.114437
0.114438
0.114439
0.11444
0.114441
0.114442
0.114442
0.114443
0.114444
0.114444
0.114445
0.114446
0.114446
0.114447
0.114447
0.114447
0.114448
0.114448
0.114448
0.114448
0.114449
0.114449
0.114449
0.114449
0.114449
0.114449
0.114448
0.114448
0.114448
0.114448
0.114447
0.114447
0.114447
0.114446
0.114446
0.114445
0.114444
0.114444
0.114443
0.114442
0.114442
0.114441
0.11444
0.114439
0.114438
0.114437
0.114435
0.114434
0.114432
0.114429
0.114424
0.114403
0.114311
0.132814
0.132928
0.132954
0.132961
0.132964
0.132966
0.132968
0.13297
0.132971
0.132972
0.132974
0.132975
0.132976
0.132977
0.132978
0.132979
0.132979
0.13298
0.132981
0.132981
0.132982
0.132982
0.132983
0.132983
0.132984
0.132984
0.132984
0.132984
0.132984
0.132984
0.132984
0.132984
0.132984
0.132984
0.132984
0.132984
0.132983
0.132983
0.132982
0.132982
0.132981
0.132981
0.13298
0.132979
0.132979
0.132978
0.132977
0.132976
0.132975
0.132974
0.132972
0.132971
0.13297
0.132968
0.132966
0.132964
0.132961
0.132954
0.132928
0.132814
0.155709
0.155848
0.15588
0.155889
0.155892
0.155895
0.155897
0.155899
0.1559
0.155902
0.155903
0.155905
0.155906
0.155907
0.155908
0.155909
0.15591
0.155911
0.155912
0.155913
0.155913
0.155914
0.155914
0.155915
0.155915
0.155916
0.155916
0.155916
0.155916
0.155916
0.155916
0.155916
0.155916
0.155916
0.155916
0.155915
0.155915
0.155914
0.155914
0.155913
0.155913
0.155912
0.155911
0.15591
0.155909
0.155908
0.155907
0.155906
0.155905
0.155903
0.155902
0.1559
0.155899
0.155897
0.155895
0.155892
0.155889
0.15588
0.155848
0.155709
0.18276
0.182925
0.182964
0.182974
0.182979
0.182981
0.182984
0.182986
0.182988
0.182989
0.182991
0.182992
0.182994
0.182995
0.182996
0.182997
0.182998
0.182999
0.183
0.183001
0.183002
0.183003
0.183003
0.183004
0.183004
0.183004
0.183005
0.183005
0.183005
0.183005
0.183005
0.183005
0.183005
0.183005
0.183004
0.183004
0.183004
0.183003
0.183003
0.183002
0.183001
0.183
0.182999
0.182998
0.182997
0.182996
0.182995
0.182994
0.182992
0.182991
0.182989
0.182988
0.182986
0.182984
0.182981
0.182979
0.182974
0.182964
0.182925
0.18276
0.213197
0.213387
0.213432
0.213444
0.213449
0.213452
0.213455
0.213457
0.213459
0.213461
0.213462
0.213464
0.213465
0.213467
0.213468
0.213469
0.21347
0.213471
0.213472
0.213473
0.213474
0.213474
0.213475
0.213476
0.213476
0.213476
0.213477
0.213477
0.213477
0.213477
0.213477
0.213477
0.213477
0.213477
0.213476
0.213476
0.213476
0.213475
0.213474
0.213474
0.213473
0.213472
0.213471
0.21347
0.213469
0.213468
0.213467
0.213465
0.213464
0.213462
0.213461
0.213459
0.213457
0.213455
0.213452
0.213449
0.213444
0.213432
0.213387
0.213197
0.245945
0.246159
0.24621
0.246224
0.246229
0.246232
0.246234
0.246237
0.246239
0.24624
0.246242
0.246244
0.246245
0.246247
0.246248
0.246249
0.24625
0.246251
0.246252
0.246253
0.246254
0.246254
0.246255
0.246256
0.246256
0.246256
0.246257
0.246257
0.246257
0.246257
0.246257
0.246257
0.246257
0.246257
0.246256
0.246256
0.246256
0.246255
0.246254
0.246254
0.246253
0.246252
0.246251
0.24625
0.246249
0.246248
0.246247
0.246245
0.246244
0.246242
0.24624
0.246239
0.246237
0.246234
0.246232
0.246229
0.246224
0.24621
0.246159
0.245945
0.27993
0.280163
0.28022
0.280235
0.28024
0.280244
0.280246
0.280248
0.28025
0.280252
0.280254
0.280255
0.280257
0.280258
0.280259
0.28026
0.280261
0.280262
0.280263
0.280264
0.280265
0.280266
0.280266
0.280267
0.280267
0.280268
0.280268
0.280268
0.280268
0.280268
0.280268
0.280268
0.280268
0.280268
0.280268
0.280267
0.280267
0.280266
0.280266
0.280265
0.280264
0.280263
0.280262
0.280261
0.28026
0.280259
0.280258
0.280257
0.280255
0.280254
0.280252
0.28025
0.280248
0.280246
0.280244
0.28024
0.280235
0.28022
0.280163
0.27993
0.314277
0.314528
0.31459
0.314606
0.314612
0.314615
0.314617
0.314619
0.314621
0.314623
0.314624
0.314626
0.314627
0.314629
0.31463
0.314631
0.314632
0.314633
0.314634
0.314634
0.314635
0.314636
0.314636
0.314637
0.314637
0.314638
0.314638
0.314638
0.314638
0.314638
0.314638
0.314638
0.314638
0.314638
0.314638
0.314637
0.314637
0.314636
0.314636
0.314635
0.314634
0.314634
0.314633
0.314632
0.314631
0.31463
0.314629
0.314627
0.314626
0.314624
0.314623
0.314621
0.314619
0.314617
0.314615
0.314612
0.314606
0.31459
0.314528
0.314277
0.348379
0.348645
0.348712
0.348729
0.348735
0.348738
0.348741
0.348743
0.348744
0.348746
0.348748
0.348749
0.34875
0.348751
0.348752
0.348754
0.348754
0.348755
0.348756
0.348757
0.348758
0.348758
0.348759
0.348759
0.34876
0.34876
0.34876
0.34876
0.348761
0.348761
0.348761
0.348761
0.34876
0.34876
0.34876
0.34876
0.348759
0.348759
0.348758
0.348758
0.348757
0.348756
0.348755
0.348754
0.348754
0.348752
0.348751
0.34875
0.348749
0.348748
0.348746
0.348744
0.348743
0.348741
0.348738
0.348735
0.348729
0.348712
0.348645
0.348379
0.381856
0.382136
0.382207
0.382225
0.382231
0.382234
0.382237
0.382238
0.38224
0.382242
0.382243
0.382244
0.382245
0.382247
0.382248
0.382249
0.382249
0.38225
0.382251
0.382252
0.382252
0.382253
0.382253
0.382254
0.382254
0.382255
0.382255
0.382255
0.382255
0.382255
0.382255
0.382255
0.382255
0.382255
0.382255
0.382254
0.382254
0.382253
0.382253
0.382252
0.382252
0.382251
0.38225
0.382249
0.382249
0.382248
0.382247
0.382245
0.382244
0.382243
0.382242
0.38224
0.382238
0.382237
0.382234
0.382231
0.382225
0.382207
0.382136
0.381856
0.414486
0.414777
0.414852
0.414872
0.414878
0.414881
0.414883
0.414885
0.414886
0.414888
0.414889
0.41489
0.414891
0.414892
0.414893
0.414894
0.414895
0.414896
0.414896
0.414897
0.414898
0.414898
0.414899
0.414899
0.414899
0.4149
0.4149
0.4149
0.4149
0.4149
0.4149
0.4149
0.4149
0.4149
0.4149
0.414899
0.414899
0.414899
0.414898
0.414898
0.414897
0.414896
0.414896
0.414895
0.414894
0.414893
0.414892
0.414891
0.41489
0.414889
0.414888
0.414886
0.414885
0.414883
0.414881
0.414878
0.414872
0.414852
0.414777
0.414486
0.446143
0.446444
0.446524
0.446544
0.446551
0.446553
0.446555
0.446557
0.446558
0.44656
0.446561
0.446562
0.446563
0.446564
0.446565
0.446565
0.446566
0.446567
0.446568
0.446568
0.446569
0.446569
0.44657
0.44657
0.44657
0.446571
0.446571
0.446571
0.446571
0.446571
0.446571
0.446571
0.446571
0.446571
0.446571
0.44657
0.44657
0.44657
0.446569
0.446569
0.446568
0.446568
0.446567
0.446566
0.446565
0.446565
0.446564
0.446563
0.446562
0.446561
0.44656
0.446558
0.446557
0.446555
0.446553
0.446551
0.446544
0.446524
0.446444
0.446143
0.476759
0.477068
0.477152
0.477174
0.47718
0.477183
0.477185
0.477186
0.477187
0.477189
0.47719
0.477191
0.477192
0.477192
0.477193
0.477194
0.477195
0.477195
0.477196
0.477196
0.477197
0.477197
0.477198
0.477198
0.477198
0.477199
0.477199
0.477199
0.477199
0.477199
0.477199
0.477199
0.477199
0.477199
0.477199
0.477198
0.477198
0.477198
0.477197
0.477197
0.477196
0.477196
0.477195
0.477195
0.477194
0.477193
0.477192
0.477192
0.477191
0.47719
0.477189
0.477187
0.477186
0.477185
0.477183
0.47718
0.477174
0.477152
0.477068
0.476759
0.506297
0.506613
0.5067
0.506723
0.50673
0.506733
0.506734
0.506736
0.506737
0.506738
0.506739
0.50674
0.506741
0.506742
0.506742
0.506743
0.506744
0.506744
0.506745
0.506745
0.506746
0.506746
0.506746
0.506747
0.506747
0.506747
0.506747
0.506748
0.506748
0.506748
0.506748
0.506748
0.506748
0.506747
0.506747
0.506747
0.506747
0.506746
0.506746
0.506746
0.506745
0.506745
0.506744
0.506744
0.506743
0.506742
0.506742
0.506741
0.50674
0.506739
0.506738
0.506737
0.506736
0.506734
0.506733
0.50673
0.506723
0.5067
0.506613
0.506297
0.534739
0.535061
0.535152
0.535176
0.535183
0.535185
0.535187
0.535188
0.535189
0.53519
0.535191
0.535192
0.535193
0.535194
0.535194
0.535195
0.535195
0.535196
0.535196
0.535197
0.535197
0.535198
0.535198
0.535198
0.535198
0.535199
0.535199
0.535199
0.535199
0.535199
0.535199
0.535199
0.535199
0.535199
0.535199
0.535198
0.535198
0.535198
0.535198
0.535197
0.535197
0.535196
0.535196
0.535195
0.535195
0.535194
0.535194
0.535193
0.535192
0.535191
0.53519
0.535189
0.535188
0.535187
0.535185
0.535183
0.535176
0.535152
0.535061
0.534739
0.562079
0.562405
0.5625
0.562525
0.562532
0.562535
0.562536
0.562537
0.562538
0.562539
0.56254
0.562541
0.562541
0.562542
0.562543
0.562543
0.562544
0.562544
0.562545
0.562545
0.562545
0.562546
0.562546
0.562546
0.562547
0.562547
0.562547
0.562547
0.562547
0.562547
0.562547
0.562547
0.562547
0.562547
0.562547
0.562547
0.562546
0.562546
0.562546
0.562545
0.562545
0.562545
0.562544
0.562544
0.562543
0.562543
0.562542
0.562541
0.562541
0.56254
0.562539
0.562538
0.562537
0.562536
0.562535
0.562532
0.562525
0.5625
0.562405
0.562079
0.588318
0.588648
0.588745
0.588772
0.588779
0.588782
0.588783
0.588784
0.588785
0.588786
0.588787
0.588787
0.588788
0.588789
0.588789
0.58879
0.58879
0.58879
0.588791
0.588791
0.588792
0.588792
0.588792
0.588792
0.588793
0.588793
0.588793
0.588793
0.588793
0.588793
0.588793
0.588793
0.588793
0.588793
0.588793
0.588793
0.588792
0.588792
0.588792
0.588792
0.588791
0.588791
0.58879
0.58879
0.58879
0.588789
0.588789
0.588788
0.588787
0.588787
0.588786
0.588785
0.588784
0.588783
0.588782
0.588779
0.588772
0.588745
0.588648
0.588318
0.613463
0.613795
0.613895
0.613923
0.613931
0.613933
0.613935
0.613936
0.613936
0.613937
0.613938
0.613938
0.613939
0.61394
0.61394
0.613941
0.613941
0.613941
0.613942
0.613942
0.613942
0.613943
0.613943
0.613943
0.613943
0.613943
0.613943
0.613944
0.613944
0.613944
0.613944
0.613944
0.613944
0.613943
0.613943
0.613943
0.613943
0.613943
0.613943
0.613942
0.613942
0.613942
0.613941
0.613941
0.613941
0.61394
0.61394
0.613939
0.613938
0.613938
0.613937
0.613936
0.613936
0.613935
0.613933
0.613931
0.613923
0.613895
0.613795
0.613463
0.637524
0.637857
0.637961
0.637989
0.637997
0.638
0.638001
0.638002
0.638003
0.638004
0.638004
0.638005
0.638005
0.638006
0.638006
0.638007
0.638007
0.638007
0.638008
0.638008
0.638008
0.638009
0.638009
0.638009
0.638009
0.638009
0.638009
0.638009
0.638009
0.638009
0.638009
0.638009
0.638009
0.638009
0.638009
0.638009
0.638009
0.638009
0.638009
0.638008
0.638008
0.638008
0.638007
0.638007
0.638007
0.638006
0.638006
0.638005
0.638005
0.638004
0.638004
0.638003
0.638002
0.638001
0.638
0.637997
0.637989
0.637961
0.637857
0.637524
0.660516
0.660849
0.660955
0.660985
0.660993
0.660996
0.660997
0.660998
0.660998
0.660999
0.661
0.661
0.661001
0.661001
0.661001
0.661002
0.661002
0.661002
0.661003
0.661003
0.661003
0.661003
0.661004
0.661004
0.661004
0.661004
0.661004
0.661004
0.661004
0.661004
0.661004
0.661004
0.661004
0.661004
0.661004
0.661004
0.661004
0.661004
0.661003
0.661003
0.661003
0.661003
0.661002
0.661002
0.661002
0.661001
0.661001
0.661001
0.661
0.661
0.660999
0.660998
0.660998
0.660997
0.660996
0.660993
0.660985
0.660955
0.660849
0.660516
0.682453
0.682786
0.682894
0.682925
0.682934
0.682936
0.682938
0.682938
0.682939
0.682939
0.68294
0.68294
0.682941
0.682941
0.682942
0.682942
0.682942
0.682942
0.682943
0.682943
0.682943
0.682943
0.682944
0.682944
0.682944
0.682944
0.682944
0.682944
0.682944
0.682944
0.682944
0.682944
0.682944
0.682944
0.682944
0.682944
0.682944
0.682944
0.682943
0.682943
0.682943
0.682943
0.682942
0.682942
0.682942
0.682942
0.682941
0.682941
0.68294
0.68294
0.682939
0.682939
0.682938
0.682938
0.682936
0.682934
0.682925
0.682894
0.682786
0.682453
0.703356
0.703687
0.703796
0.703828
0.703837
0.70384
0.703841
0.703842
0.703843
0.703843
0.703844
0.703844
0.703844
0.703845
0.703845
0.703845
0.703846
0.703846
0.703846
0.703846
0.703847
0.703847
0.703847
0.703847
0.703847
0.703847
0.703847
0.703847
0.703847
0.703847
0.703847
0.703847
0.703847
0.703847
0.703847
0.703847
0.703847
0.703847
0.703847
0.703847
0.703846
0.703846
0.703846
0.703846
0.703845
0.703845
0.703845
0.703844
0.703844
0.703844
0.703843
0.703843
0.703842
0.703841
0.70384
0.703837
0.703828
0.703796
0.703687
0.703356
0.723243
0.723571
0.723682
0.723716
0.723725
0.723728
0.723729
0.72373
0.72373
0.723731
0.723731
0.723731
0.723732
0.723732
0.723732
0.723733
0.723733
0.723733
0.723733
0.723733
0.723734
0.723734
0.723734
0.723734
0.723734
0.723734
0.723734
0.723734
0.723734
0.723734
0.723734
0.723734
0.723734
0.723734
0.723734
0.723734
0.723734
0.723734
0.723734
0.723734
0.723733
0.723733
0.723733
0.723733
0.723733
0.723732
0.723732
0.723732
0.723731
0.723731
0.723731
0.72373
0.72373
0.723729
0.723728
0.723725
0.723716
0.723682
0.723571
0.723243
0.742136
0.742461
0.742574
0.742608
0.742618
0.742621
0.742622
0.742623
0.742623
0.742623
0.742624
0.742624
0.742624
0.742625
0.742625
0.742625
0.742625
0.742626
0.742626
0.742626
0.742626
0.742626
0.742626
0.742626
0.742627
0.742627
0.742627
0.742627
0.742627
0.742627
0.742627
0.742627
0.742627
0.742627
0.742627
0.742627
0.742626
0.742626
0.742626
0.742626
0.742626
0.742626
0.742626
0.742625
0.742625
0.742625
0.742625
0.742624
0.742624
0.742624
0.742623
0.742623
0.742623
0.742622
0.742621
0.742618
0.742608
0.742574
0.742461
0.742136
0.760059
0.76038
0.760494
0.760529
0.760539
0.760542
0.760543
0.760544
0.760544
0.760545
0.760545
0.760545
0.760546
0.760546
0.760546
0.760546
0.760547
0.760547
0.760547
0.760547
0.760547
0.760547
0.760547
0.760548
0.760548
0.760548
0.760548
0.760548
0.760548
0.760548
0.760548
0.760548
0.760548
0.760548
0.760548
0.760548
0.760548
0.760547
0.760547
0.760547
0.760547
0.760547
0.760547
0.760547
0.760546
0.760546
0.760546
0.760546
0.760545
0.760545
0.760545
0.760544
0.760544
0.760543
0.760542
0.760539
0.760529
0.760494
0.76038
0.760059
0.777037
0.777353
0.777467
0.777503
0.777514
0.777517
0.777518
0.777519
0.777519
0.77752
0.77752
0.77752
0.77752
0.777521
0.777521
0.777521
0.777521
0.777521
0.777522
0.777522
0.777522
0.777522
0.777522
0.777522
0.777522
0.777522
0.777522
0.777522
0.777522
0.777522
0.777522
0.777522
0.777522
0.777522
0.777522
0.777522
0.777522
0.777522
0.777522
0.777522
0.777522
0.777522
0.777521
0.777521
0.777521
0.777521
0.777521
0.77752
0.77752
0.77752
0.77752
0.777519
0.777519
0.777518
0.777517
0.777514
0.777503
0.777467
0.777353
0.777037
0.793095
0.793405
0.79352
0.793557
0.793568
0.793571
0.793572
0.793573
0.793573
0.793574
0.793574
0.793574
0.793574
0.793575
0.793575
0.793575
0.793575
0.793575
0.793575
0.793575
0.793576
0.793576
0.793576
0.793576
0.793576
0.793576
0.793576
0.793576
0.793576
0.793576
0.793576
0.793576
0.793576
0.793576
0.793576
0.793576
0.793576
0.793576
0.793576
0.793576
0.793575
0.793575
0.793575
0.793575
0.793575
0.793575
0.793575
0.793574
0.793574
0.793574
0.793574
0.793573
0.793573
0.793572
0.793571
0.793568
0.793557
0.79352
0.793405
0.793095
0.80826
0.808564
0.808679
0.808716
0.808728
0.808731
0.808732
0.808733
0.808733
0.808734
0.808734
0.808734
0.808734
0.808734
0.808735
0.808735
0.808735
0.808735
0.808735
0.808735
0.808735
0.808735
0.808735
0.808736
0.808736
0.808736
0.808736
0.808736
0.808736
0.808736
0.808736
0.808736
0.808736
0.808736
0.808736
0.808736
0.808736
0.808735
0.808735
0.808735
0.808735
0.808735
0.808735
0.808735
0.808735
0.808735
0.808734
0.808734
0.808734
0.808734
0.808734
0.808733
0.808733
0.808732
0.808731
0.808728
0.808716
0.808679
0.808564
0.80826
0.822559
0.822857
0.822971
0.82301
0.823022
0.823025
0.823026
0.823027
0.823027
0.823027
0.823028
0.823028
0.823028
0.823028
0.823028
0.823028
0.823028
0.823029
0.823029
0.823029
0.823029
0.823029
0.823029
0.823029
0.823029
0.823029
0.823029
0.823029
0.823029
0.823029
0.823029
0.823029
0.823029
0.823029
0.823029
0.823029
0.823029
0.823029
0.823029
0.823029
0.823029
0.823029
0.823029
0.823028
0.823028
0.823028
0.823028
0.823028
0.823028
0.823028
0.823027
0.823027
0.823027
0.823026
0.823025
0.823022
0.82301
0.822971
0.822857
0.822559
0.836022
0.836312
0.836426
0.836465
0.836478
0.836481
0.836483
0.836483
0.836483
0.836484
0.836484
0.836484
0.836484
0.836484
0.836484
0.836484
0.836485
0.836485
0.836485
0.836485
0.836485
0.836485
0.836485
0.836485
0.836485
0.836485
0.836485
0.836485
0.836485
0.836485
0.836485
0.836485
0.836485
0.836485
0.836485
0.836485
0.836485
0.836485
0.836485
0.836485
0.836485
0.836485
0.836485
0.836485
0.836484
0.836484
0.836484
0.836484
0.836484
0.836484
0.836484
0.836483
0.836483
0.836483
0.836481
0.836478
0.836465
0.836426
0.836312
0.836022
0.848678
0.848959
0.849073
0.849113
0.849125
0.849129
0.84913
0.849131
0.849131
0.849131
0.849132
0.849132
0.849132
0.849132
0.849132
0.849132
0.849132
0.849132
0.849132
0.849133
0.849133
0.849133
0.849133
0.849133
0.849133
0.849133
0.849133
0.849133
0.849133
0.849133
0.849133
0.849133
0.849133
0.849133
0.849133
0.849133
0.849133
0.849133
0.849133
0.849133
0.849133
0.849132
0.849132
0.849132
0.849132
0.849132
0.849132
0.849132
0.849132
0.849132
0.849131
0.849131
0.849131
0.84913
0.849129
0.849125
0.849113
0.849073
0.848959
0.848678
0.860556
0.860829
0.860941
0.860981
0.860994
0.860998
0.861
0.861
0.861001
0.861001
0.861001
0.861001
0.861001
0.861001
0.861001
0.861001
0.861001
0.861002
0.861002
0.861002
0.861002
0.861002
0.861002
0.861002
0.861002
0.861002
0.861002
0.861002
0.861002
0.861002
0.861002
0.861002
0.861002
0.861002
0.861002
0.861002
0.861002
0.861002
0.861002
0.861002
0.861002
0.861002
0.861002
0.861001
0.861001
0.861001
0.861001
0.861001
0.861001
0.861001
0.861001
0.861001
0.861
0.861
0.860998
0.860994
0.860981
0.860941
0.860829
0.860556
0.871686
0.87195
0.872061
0.872102
0.872115
0.872119
0.872121
0.872121
0.872122
0.872122
0.872122
0.872122
0.872122
0.872122
0.872122
0.872122
0.872122
0.872122
0.872122
0.872123
0.872123
0.872123
0.872123
0.872123
0.872123
0.872123
0.872123
0.872123
0.872123
0.872123
0.872123
0.872123
0.872123
0.872123
0.872123
0.872123
0.872123
0.872123
0.872123
0.872123
0.872123
0.872122
0.872122
0.872122
0.872122
0.872122
0.872122
0.872122
0.872122
0.872122
0.872122
0.872122
0.872121
0.872121
0.872119
0.872115
0.872102
0.872061
0.87195
0.871686
0.882098
0.882354
0.882463
0.882504
0.882518
0.882522
0.882524
0.882524
0.882525
0.882525
0.882525
0.882525
0.882525
0.882525
0.882525
0.882525
0.882525
0.882525
0.882525
0.882525
0.882525
0.882526
0.882526
0.882526
0.882526
0.882526
0.882526
0.882526
0.882526
0.882526
0.882526
0.882526
0.882526
0.882526
0.882526
0.882526
0.882526
0.882526
0.882526
0.882525
0.882525
0.882525
0.882525
0.882525
0.882525
0.882525
0.882525
0.882525
0.882525
0.882525
0.882525
0.882525
0.882524
0.882524
0.882522
0.882518
0.882504
0.882463
0.882354
0.882098
0.891825
0.892071
0.892178
0.892219
0.892233
0.892238
0.89224
0.89224
0.89224
0.89224
0.892241
0.892241
0.892241
0.892241
0.892241
0.892241
0.892241
0.892241
0.892241
0.892241
0.892241
0.892241
0.892241
0.892241
0.892241
0.892241
0.892241
0.892241
0.892241
0.892241
0.892241
0.892241
0.892241
0.892241
0.892241
0.892241
0.892241
0.892241
0.892241
0.892241
0.892241
0.892241
0.892241
0.892241
0.892241
0.892241
0.892241
0.892241
0.892241
0.892241
0.89224
0.89224
0.89224
0.89224
0.892238
0.892233
0.892219
0.892178
0.892071
0.891825
0.900895
0.901131
0.901237
0.901278
0.901292
0.901297
0.901299
0.901299
0.9013
0.9013
0.9013
0.9013
0.9013
0.9013
0.9013
0.9013
0.9013
0.9013
0.9013
0.9013
0.9013
0.9013
0.9013
0.9013
0.9013
0.9013
0.9013
0.9013
0.9013
0.9013
0.9013
0.9013
0.9013
0.9013
0.9013
0.9013
0.9013
0.9013
0.9013
0.9013
0.9013
0.9013
0.9013
0.9013
0.9013
0.9013
0.9013
0.9013
0.9013
0.9013
0.9013
0.9013
0.901299
0.901299
0.901297
0.901292
0.901278
0.901237
0.901131
0.900895
0.909339
0.909566
0.90967
0.909711
0.909725
0.90973
0.909732
0.909732
0.909733
0.909733
0.909733
0.909733
0.909733
0.909733
0.909733
0.909733
0.909733
0.909733
0.909733
0.909733
0.909733
0.909733
0.909733
0.909733
0.909733
0.909733
0.909733
0.909733
0.909733
0.909733
0.909733
0.909733
0.909733
0.909733
0.909733
0.909733
0.909733
0.909733
0.909733
0.909733
0.909733
0.909733
0.909733
0.909733
0.909733
0.909733
0.909733
0.909733
0.909733
0.909733
0.909733
0.909733
0.909732
0.909732
0.90973
0.909725
0.909711
0.90967
0.909566
0.909339
0.917189
0.917406
0.917507
0.917547
0.917562
0.917568
0.917569
0.91757
0.91757
0.91757
0.91757
0.91757
0.91757
0.91757
0.91757
0.91757
0.91757
0.91757
0.917571
0.917571
0.917571
0.917571
0.917571
0.917571
0.917571
0.917571
0.917571
0.917571
0.917571
0.917571
0.917571
0.917571
0.917571
0.917571
0.917571
0.917571
0.917571
0.917571
0.917571
0.917571
0.917571
0.917571
0.91757
0.91757
0.91757
0.91757
0.91757
0.91757
0.91757
0.91757
0.91757
0.91757
0.91757
0.917569
0.917568
0.917562
0.917547
0.917507
0.917406
0.917189
0.924473
0.92468
0.924778
0.924819
0.924834
0.924839
0.924841
0.924842
0.924842
0.924842
0.924842
0.924842
0.924842
0.924842
0.924842
0.924842
0.924842
0.924842
0.924842
0.924842
0.924842
0.924842
0.924842
0.924842
0.924842
0.924842
0.924842
0.924842
0.924842
0.924842
0.924842
0.924842
0.924842
0.924842
0.924842
0.924842
0.924842
0.924842
0.924842
0.924842
0.924842
0.924842
0.924842
0.924842
0.924842
0.924842
0.924842
0.924842
0.924842
0.924842
0.924842
0.924842
0.924842
0.924841
0.924839
0.924834
0.924819
0.924778
0.92468
0.924473
0.931221
0.931419
0.931514
0.931554
0.931569
0.931575
0.931577
0.931577
0.931578
0.931578
0.931578
0.931578
0.931578
0.931578
0.931578
0.931578
0.931578
0.931578
0.931578
0.931578
0.931578
0.931578
0.931578
0.931578
0.931578
0.931578
0.931578
0.931578
0.931578
0.931578
0.931578
0.931578
0.931578
0.931578
0.931578
0.931578
0.931578
0.931578
0.931578
0.931578
0.931578
0.931578
0.931578
0.931578
0.931578
0.931578
0.931578
0.931578
0.931578
0.931578
0.931578
0.931578
0.931577
0.931577
0.931575
0.931569
0.931554
0.931514
0.931419
0.931221
0.937463
0.937651
0.937743
0.937783
0.937798
0.937804
0.937806
0.937806
0.937807
0.937807
0.937807
0.937807
0.937807
0.937807
0.937807
0.937807
0.937807
0.937807
0.937807
0.937807
0.937807
0.937807
0.937807
0.937807
0.937807
0.937807
0.937807
0.937807
0.937807
0.937807
0.937807
0.937807
0.937807
0.937807
0.937807
0.937807
0.937807
0.937807
0.937807
0.937807
0.937807
0.937807
0.937807
0.937807
0.937807
0.937807
0.937807
0.937807
0.937807
0.937807
0.937807
0.937807
0.937806
0.937806
0.937804
0.937798
0.937783
0.937743
0.937651
0.937463
0.943227
0.943405
0.943494
0.943533
0.943548
0.943554
0.943556
0.943557
0.943557
0.943557
0.943557
0.943557
0.943557
0.943557
0.943557
0.943557
0.943557
0.943557
0.943557
0.943557
0.943557
0.943557
0.943557
0.943557
0.943557
0.943557
0.943557
0.943557
0.943557
0.943557
0.943557
0.943557
0.943557
0.943557
0.943557
0.943557
0.943557
0.943557
0.943557
0.943557
0.943557
0.943557
0.943557
0.943557
0.943557
0.943557
0.943557
0.943557
0.943557
0.943557
0.943557
0.943557
0.943557
0.943556
0.943554
0.943548
0.943533
0.943494
0.943405
0.943227
0.948541
0.948709
0.948795
0.948833
0.948848
0.948854
0.948856
0.948857
0.948857
0.948857
0.948857
0.948857
0.948857
0.948857
0.948857
0.948857
0.948857
0.948857
0.948857
0.948857
0.948857
0.948857
0.948857
0.948857
0.948857
0.948857
0.948857
0.948857
0.948857
0.948857
0.948857
0.948857
0.948857
0.948857
0.948857
0.948857
0.948857
0.948857
0.948857
0.948857
0.948857
0.948857
0.948857
0.948857
0.948857
0.948857
0.948857
0.948857
0.948857
0.948857
0.948857
0.948857
0.948857
0.948856
0.948854
0.948848
0.948833
0.948795
0.948709
0.948541
0.953431
0.95359
0.953672
0.95371
0.953725
0.953731
0.953733
0.953734
0.953734
0.953734
0.953734
0.953734
0.953734
0.953734
0.953734
0.953734
0.953734
0.953734
0.953734
0.953734
0.953734
0.953734
0.953734
0.953734
0.953734
0.953734
0.953734
0.953734
0.953734
0.953734
0.953734
0.953734
0.953734
0.953734
0.953734
0.953734
0.953734
0.953734
0.953734
0.953734
0.953734
0.953734
0.953734
0.953734
0.953734
0.953734
0.953734
0.953734
0.953734
0.953734
0.953734
0.953734
0.953734
0.953733
0.953731
0.953725
0.95371
0.953672
0.95359
0.953431
0.957924
0.958074
0.958153
0.958189
0.958205
0.958211
0.958213
0.958214
0.958214
0.958214
0.958214
0.958214
0.958214
0.958214
0.958214
0.958214
0.958214
0.958214
0.958214
0.958214
0.958214
0.958214
0.958214
0.958214
0.958214
0.958214
0.958214
0.958214
0.958214
0.958214
0.958214
0.958214
0.958214
0.958214
0.958214
0.958214
0.958214
0.958214
0.958214
0.958214
0.958214
0.958214
0.958214
0.958214