/*--------------------------------*- C++ -*----------------------------------*\
| =========                 |                                                 |
| \\      /  F ield         | foam-extend: Open Source CFD                    |
|  \\    /   O peration     | Version:     4.0                                |
|   \\  /    A nd           | Web:         http://www.foam-extend.org         |
|    \\/     M anipulation  |                                                 |
\*---------------------------------------------------------------------------*/
FoamFile
{
    version     2.0;
    format      ascii;
    class       volScalarField;
    location    "18";
    object      dPhi;
}
// * * * * * * * * * * * * * * * * * * * * * * * * * * * * * * * * * * * * * //

dimensions      [0 -1 0 0 0 0 0];

internalField   nonuniform List<scalar> 
6960
(
-2.06568e-16
1.18959e-16
-2.08424e-15
-1.95986e-17
1.3163e-15
3.97481e-16
6.61963e-17
9.20657e-16
-2.26107e-15
2.75443e-15
6.36358e-16
8.77583e-16
-1.75966e-15
-1.00486e-15
2.3102e-15
1.78201e-15
-3.86022e-16
2.56143e-17
3.80505e-16
1.40797e-15
-1.24166e-15
-5.30111e-16
-1.15036e-15
2.24015e-15
-1.16127e-15
-1.01824e-15
-4.49135e-15
6.45479e-16
2.46091e-15
-9.3753e-16
-2.42542e-15
3.66031e-15
4.90018e-16
-3.75888e-15
-7.07875e-16
-1.76157e-15
-1.91289e-15
-2.61657e-15
2.01178e-16
-9.55034e-16
1.27269e-15
2.22449e-16
1.64378e-15
-9.66236e-16
7.34575e-16
1.70625e-15
1.89609e-16
7.43866e-16
7.16122e-16
1.38502e-15
1.70381e-15
-1.53616e-15
-2.77343e-15
-5.42939e-16
-6.57119e-16
-1.04949e-15
-1.52112e-15
5.70527e-16
2.30589e-15
1.9876e-15
-2.62914e-15
7.08353e-16
-2.19878e-15
-5.9863e-16
2.44314e-15
-3.08127e-15
-2.08906e-16
-7.50486e-16
1.48907e-15
2.00821e-15
-8.13123e-16
-3.8625e-16
5.41629e-16
2.86553e-15
2.09609e-15
-8.35678e-16
-1.43531e-15
2.06005e-15
2.70091e-16
-1.19309e-15
2.67438e-16
1.34727e-15
-1.9067e-15
-8.61268e-16
1.44603e-15
-2.30576e-15
-2.5162e-15
4.27473e-16
-4.47083e-15
-6.38426e-17
6.27859e-17
-3.61375e-15
-5.55623e-16
3.82741e-15
-8.18954e-18
-3.20325e-15
-4.03612e-16
1.16726e-15
2.0247e-15
-8.33502e-16
-1.67652e-15
-2.27609e-15
-3.92841e-15
4.0968e-16
7.21626e-16
2.76303e-15
-7.35555e-16
2.09262e-15
2.74969e-16
-1.64462e-15
-4.10635e-15
-2.07481e-15
4.09935e-16
-1.15292e-16
-1.1051e-15
-9.622e-16
1.03455e-15
-2.2606e-15
-1.79584e-15
-6.35826e-16
4.8394e-15
-4.83605e-16
3.17078e-15
6.69766e-17
5.44256e-16
6.57803e-15
-3.77365e-15
2.81464e-15
-1.70211e-15
1.97423e-16
-5.11187e-15
-6.11892e-16
5.7088e-16
3.94656e-15
-2.0501e-15
-4.53681e-15
6.31935e-15
-9.77072e-15
-7.23359e-16
-1.93104e-15
-7.13914e-15
-3.72969e-16
5.5395e-15
6.44769e-15
-3.05018e-15
2.21124e-15
1.86018e-15
-1.02899e-15
6.10247e-15
-5.59111e-15
-2.82381e-15
1.12349e-15
1.01823e-15
8.52164e-16
3.44221e-15
2.04375e-15
-1.22604e-15
2.32748e-15
3.65988e-15
3.38296e-15
-3.81473e-16
1.24475e-15
2.07667e-15
3.47486e-15
-4.24597e-15
-1.87619e-15
1.58505e-15
-2.9307e-15
-7.86917e-16
-2.1049e-15
1.2398e-16
-1.78294e-15
2.63976e-15
2.01271e-15
-2.35927e-15
-2.99875e-15
-9.03737e-16
2.2135e-15
-1.79258e-15
4.52028e-15
-1.19857e-15
2.455e-15
8.43137e-17
-4.9668e-16
9.00037e-16
3.58498e-16
1.85911e-15
-4.80715e-16
2.78544e-15
3.93723e-15
2.66883e-16
1.92013e-15
4.59812e-15
-3.51278e-15
-1.4009e-15
-1.36158e-15
-1.06494e-14
2.01248e-15
1.34615e-15
-3.51237e-15
4.41238e-15
1.10504e-15
-4.12619e-15
-1.07272e-14
7.21448e-16
-3.02525e-15
2.57007e-15
-6.1824e-15
-2.74028e-15
2.75147e-15
-5.89273e-15
1.17416e-16
-1.33387e-15
-3.88263e-15
1.06497e-15
5.74935e-15
-1.2059e-16
-1.67808e-15
-1.32078e-15
5.08173e-15
-8.25617e-15
6.42363e-16
-3.02572e-15
-4.75711e-15
6.17552e-15
2.76285e-15
-7.70947e-15
9.3344e-16
-3.39491e-16
7.49314e-15
-3.34202e-15
6.59089e-15
2.98285e-15
1.64697e-17
1.86931e-15
9.13193e-16
-1.57838e-15
1.98569e-15
7.72169e-16
-2.17482e-15
1.2095e-16
-1.01768e-15
7.21019e-15
-8.57387e-16
-2.36413e-15
2.4978e-16
6.00227e-15
1.76161e-15
1.20922e-16
2.92024e-15
-1.54201e-15
2.51224e-15
-1.02303e-15
4.80396e-16
6.89024e-16
5.28971e-15
1.22361e-14
-3.59239e-15
2.9798e-15
7.03531e-15
-5.67187e-16
-8.44593e-16
8.18539e-16
1.77269e-15
-7.40639e-15
-5.06082e-15
-4.6258e-15
5.90566e-15
-2.75492e-15
-6.28278e-15
8.43025e-15
-2.19729e-15
-1.91091e-15
1.2035e-15
3.3426e-15
-3.43262e-15
-5.43807e-15
1.63335e-16
5.20369e-15
-2.23787e-15
-7.40578e-16
-5.24418e-15
5.11134e-17
1.35313e-15
-3.89456e-15
-3.43157e-16
3.87591e-15
-2.34693e-15
-5.94194e-15
-9.03713e-15
-8.70133e-16
-6.42838e-15
9.09354e-16
-1.1193e-14
-4.005e-15
2.72969e-15
6.11128e-15
1.1276e-15
1.30948e-15
-2.88329e-15
-1.54499e-15
-1.41621e-15
-7.95292e-15
9.57893e-16
-9.95379e-16
-5.37035e-15
-4.87789e-15
-3.43782e-15
-3.59996e-15
3.1271e-15
5.12582e-15
-3.96696e-16
1.64208e-15
2.13318e-15
2.77834e-15
-3.48571e-17
-6.13784e-15
5.22107e-15
-4.23203e-15
-1.09551e-14
-4.04163e-16
-7.87146e-15
1.12303e-14
-6.34963e-16
9.93557e-15
4.80346e-15
4.254e-16
2.74398e-16
-2.00745e-15
6.37272e-15
-4.20208e-15
1.26006e-15
4.31512e-16
-1.89421e-15
-1.02984e-14
1.41502e-15
3.893e-15
7.26808e-16
-5.79713e-15
1.39137e-15
4.61064e-15
-1.21254e-15
-9.20948e-16
-1.14562e-15
9.435e-16
4.49154e-15
-4.27603e-15
-4.5182e-15
5.36256e-15
-4.00739e-15
1.4194e-15
8.42838e-15
-7.86079e-15
1.2269e-14
-5.76995e-15
1.22779e-15
-4.2812e-15
-1.4062e-15
-2.97673e-15
5.87105e-15
-3.89275e-15
5.9453e-15
9.10391e-15
6.16914e-15
2.05112e-15
4.71042e-15
2.43983e-15
-9.01902e-15
3.40402e-15
3.84203e-15
-2.25102e-15
-3.69632e-15
7.41098e-15
2.09303e-15
-5.04829e-15
-8.40427e-15
-3.96276e-16
-4.45233e-15
-5.91733e-15
3.2265e-15
-5.81189e-15
5.64222e-15
-1.7274e-14
-2.75897e-15
-2.44737e-15
-4.06316e-15
7.07938e-15
4.73525e-16
5.9688e-15
6.45192e-15
6.1481e-15
-2.81416e-15
-3.31468e-16
8.00458e-15
4.14149e-15
8.09249e-16
-1.10187e-15
-6.55251e-15
6.44298e-15
8.81917e-16
6.45119e-15
1.99027e-15
-6.87043e-15
1.9774e-15
3.33213e-15
-3.88383e-15
4.82793e-15
3.52311e-15
1.80528e-15
1.44383e-15
1.35379e-15
-4.01578e-15
1.70434e-15
-5.65642e-15
1.11232e-14
-8.86341e-15
3.11751e-15
-3.50463e-15
1.70605e-15
-1.04796e-15
4.11574e-15
-1.04807e-14
-7.14251e-15
-1.01288e-14
-8.14398e-16
-8.8498e-16
-7.73383e-15
1.48504e-14
1.51528e-15
2.87026e-15
-1.03073e-14
1.96173e-14
-5.21512e-15
-6.33174e-17
1.08435e-14
1.1865e-15
7.12099e-15
4.29631e-15
6.47616e-15
1.59356e-15
5.45343e-15
-6.90686e-15
5.39391e-17
-1.04491e-14
-1.38344e-15
1.03185e-14
-1.31687e-14
1.58792e-15
1.12085e-15
-9.68247e-16
-6.97917e-15
-1.51866e-14
3.94758e-15
-6.97755e-15
-2.57552e-15
-7.50094e-15
8.02754e-15
9.56527e-15
-7.78099e-15
5.67244e-15
-7.72619e-15
5.44026e-15
8.08479e-15
-4.09449e-15
-1.58971e-15
-1.08205e-14
4.50275e-15
-3.54838e-15
2.45837e-15
-9.12822e-15
-1.13229e-15
9.48894e-16
6.17448e-15
-1.67542e-14
-8.79624e-15
5.36685e-15
-5.18845e-15
9.81447e-15
1.9713e-15
-1.92977e-15
2.79735e-15
1.24305e-14
3.9968e-15
-6.00236e-15
2.26132e-15
-1.02383e-14
-1.02751e-14
-1.17451e-14
-6.66004e-15
4.29864e-15
-1.04374e-14
-1.11367e-14
-3.77064e-15
1.13015e-14
-9.50249e-15
3.07512e-15
-1.01481e-16
-9.09104e-15
-7.66921e-15
-5.64132e-15
-4.95274e-15
-8.64207e-15
1.97204e-14
1.32661e-14
-3.79557e-15
6.64041e-15
3.9453e-15
1.1264e-14
-3.08976e-15
3.57657e-15
1.23329e-14
1.24647e-14
6.37598e-15
1.1024e-14
6.8978e-15
1.40271e-14
-1.02023e-14
-1.09504e-16
8.84492e-15
1.5593e-15
1.33746e-14
-7.98938e-15
7.82414e-15
-8.26021e-15
-1.0264e-14
-2.30219e-15
-2.16795e-14
-7.03734e-15
-5.97731e-15
9.34582e-17
-4.56644e-15
2.60033e-14
-2.23628e-15
3.7071e-14
-1.03867e-15
5.66094e-15
-6.23492e-15
-4.38777e-16
-5.91215e-16
4.59626e-15
4.49966e-15
-7.34872e-15
3.67978e-16
1.28584e-14
-1.6654e-14
3.76652e-16
1.89113e-14
8.32689e-15
2.15615e-14
-4.52394e-15
2.1274e-14
-6.62361e-15
2.50602e-15
1.06146e-14
1.10029e-14
-1.96869e-15
4.12973e-15
-3.21358e-16
-5.81132e-17
9.36035e-15
-1.11807e-14
1.13588e-14
-3.1611e-15
-1.65846e-14
7.08548e-15
-3.4586e-16
4.893e-15
-3.07718e-15
6.49676e-15
7.29018e-16
-1.62368e-14
-1.03769e-14
7.99057e-15
2.91412e-15
-1.01466e-14
-1.06779e-14
-1.34419e-15
-8.7712e-16
-7.58855e-15
3.69279e-16
-1.57389e-14
1.30514e-14
-2.10183e-15
8.3399e-15
6.43756e-15
-2.30415e-15
9.25757e-15
3.74614e-15
1.74546e-14
-4.90341e-15
5.11223e-15
-1.40298e-14
3.17086e-15
-3.75468e-14
5.62441e-15
-1.50704e-16
5.9501e-16
-5.61487e-15
-4.66619e-15
-9.5722e-15
-8.46719e-15
-5.87811e-15
-3.02189e-15
-2.19876e-15
2.83636e-14
-1.30308e-14
-5.89286e-15
1.10589e-16
-1.61906e-14
7.43286e-15
1.47278e-15
5.85469e-15
4.94396e-16
-1.21027e-14
-1.27012e-14
5.80959e-15
-1.91383e-15
1.94254e-14
6.45621e-15
-1.37468e-14
2.02715e-14
-5.93492e-15
2.51318e-15
1.16348e-14
-1.32845e-14
3.13508e-15
-6.7819e-15
-7.94503e-15
-5.21241e-15
1.39732e-15
4.55278e-15
1.17961e-16
-1.04977e-14
6.75371e-15
-4.38451e-15
-1.02609e-15
1.48011e-14
5.68165e-15
-1.74166e-15
8.01616e-15
9.33802e-15
-1.50587e-14
-5.68772e-15
-8.82541e-16
-7.37995e-15
4.34505e-15
2.64675e-15
-1.83451e-14
-7.6961e-15
-4.038e-15
-3.20534e-15
4.14469e-15
-5.97526e-15
1.72479e-14
-1.49616e-14
-6.12921e-15
9.87665e-15
-1.21387e-15
6.23113e-15
6.32437e-15
-3.10516e-16
1.98912e-14
1.49446e-15
-6.05418e-16
-1.02062e-14
2.47554e-14
4.81039e-15
3.54057e-15
5.37938e-15
-3.2023e-15
-6.26409e-15
-9.01883e-15
-3.94823e-15
7.04384e-15
2.95241e-14
5.52336e-15
8.63632e-15
-2.53443e-14
-1.88391e-14
1.7434e-14
-5.79311e-15
7.86784e-15
-1.12028e-14
-1.9925e-14
1.69751e-14
-6.76542e-15
-5.48693e-15
4.61783e-15
1.3183e-14
-7.08635e-16
-3.92134e-15
-1.93075e-15
-2.63418e-15
-7.74814e-15
8.50535e-15
1.4066e-14
-1.36297e-14
-2.99327e-15
-1.2353e-14
8.24774e-15
-3.55098e-15
1.33608e-14
3.14679e-15
-1.86483e-16
-3.99767e-15
2.85015e-15
4.85115e-15
3.73399e-15
-1.05835e-14
5.03417e-15
-1.38188e-14
-2.60902e-15
9.35016e-15
1.3765e-15
7.05946e-15
-9.18536e-16
-1.01343e-14
-9.25648e-15
-6.77496e-15
3.04791e-15
1.61156e-15
-4.5363e-15
-1.18152e-14
9.05005e-15
4.91968e-15
-1.69829e-14
-2.0017e-14
-1.03684e-14
-9.96252e-15
1.95937e-14
9.88445e-15
-2.0782e-15
-1.19869e-15
9.28251e-15
-4.25354e-15
-6.25368e-15
-6.84695e-15
3.36953e-14
9.97119e-15
2.60209e-17
-6.56766e-15
-3.67241e-15
-5.39499e-15
1.54269e-14
-1.249e-14
3.28383e-15
1.50019e-14
-8.52443e-15
-7.51135e-16
1.48319e-15
2.18575e-16
3.98639e-15
9.85149e-15
1.9186e-15
1.5439e-15
-2.22686e-14
-4.65773e-15
-2.04645e-14
1.28335e-14
-9.67282e-15
5.27182e-15
-5.43315e-15
9.60516e-15
5.90673e-15
1.97238e-15
7.97973e-15
1.19696e-14
7.71952e-15
2.12556e-14
1.23339e-15
2.07438e-14
-5.55632e-15
-1.88738e-15
-1.71686e-14
8.04391e-15
-1.50106e-14
-1.35256e-14
1.06009e-14
1.78295e-14
-3.66027e-16
6.31439e-16
-8.14279e-15
2.89282e-14
-1.32915e-14
6.29358e-15
1.40825e-14
2.26694e-14
1.03771e-14
-4.19803e-15
-6.91114e-15
-1.04083e-15
-1.40096e-14
1.3569e-14
-2.32488e-14
-6.01602e-15
5.04458e-15
6.55379e-15
-4.3323e-14
-9.02403e-15
-5.02376e-15
1.43323e-14
-1.13555e-14
1.91444e-14
2.93515e-15
-1.83881e-15
-6.90073e-15
-2.22843e-14
2.06779e-15
4.61089e-15
-6.46011e-15
6.59195e-17
8.95811e-15
-1.08594e-15
-1.74166e-15
-2.8106e-14
1.57131e-14
1.28682e-14
1.31492e-14
-1.00787e-14
1.34615e-15
6.82787e-15
-1.67713e-14
-1.00406e-14
-2.04281e-14
-1.48492e-15
-2.9466e-14
-1.66221e-14
2.17534e-15
-9.75262e-15
4.20497e-15
-2.20102e-14
1.92901e-14
-1.6414e-14
2.79984e-15
-2.98372e-16
8.33708e-15
-6.22419e-15
-2.30718e-15
-2.08548e-14
5.37764e-15
9.46118e-15
4.33681e-16
-2.71207e-14
1.35898e-14
-1.33574e-14
-1.37564e-14
-7.46625e-15
-1.6584e-15
7.14359e-15
-1.33261e-14
1.13277e-14
1.06477e-14
8.28157e-15
2.01644e-14
1.85511e-14
-1.24206e-15
-4.00374e-15
3.41914e-14
-2.90046e-15
-1.99112e-14
-9.18016e-15
8.18443e-15
-2.0102e-14
1.045e-14
2.107e-14
1.0953e-14
1.67401e-14
1.29306e-14
4.87457e-15
-5.87724e-15
1.65458e-14
1.43982e-15
-1.32082e-14
1.368e-14
9.81507e-15
-5.20417e-16
1.43288e-15
3.64292e-16
2.6746e-14
-1.7663e-14
-1.18273e-14
1.95989e-14
4.49293e-15
1.00094e-14
1.52656e-15
8.61117e-15
3.68108e-15
-1.68303e-14
6.245e-16
-2.18506e-14
1.44676e-14
-2.12677e-14
1.42143e-14
2.4921e-14
-6.51562e-15
1.15463e-14
1.69621e-14
7.18176e-16
-3.69149e-15
-1.0783e-14
-1.39819e-14
1.00059e-14
7.77156e-16
-2.81927e-14
-5.63438e-15
2.23849e-14
-1.64244e-14
-6.11317e-15
-5.8703e-15
1.44537e-14
-1.57999e-14
1.91722e-14
-2.96083e-14
-1.1699e-14
-1.0783e-14
3.60822e-15
4.88498e-15
-3.46528e-14
-1.52656e-15
9.86711e-15
1.23582e-14
-2.71311e-15
5.87724e-15
-2.8387e-14
-8.50708e-15
-6.22419e-15
-5.75234e-15
-1.42455e-14
-1.1019e-14
2.06501e-14
-2.2371e-14
4.85723e-17
8.47933e-15
-1.79995e-14
6.07847e-15
1.49394e-14
-7.49401e-15
-3.1225e-16
-1.59456e-14
2.73115e-14
2.22392e-14
-9.65894e-15
-8.33361e-15
3.33067e-15
-3.40006e-15
3.10169e-15
1.90334e-14
1.97828e-14
-2.64372e-15
2.08722e-14
-1.76525e-14
1.73889e-14
-2.21281e-14
-1.13867e-14
7.83401e-15
-3.2703e-14
1.06096e-14
7.32747e-15
2.69368e-14
9.08995e-16
6.3699e-15
-2.28983e-15
-1.37113e-14
2.30094e-14
-1.20737e-15
-1.76525e-14
6.80012e-15
-6.70297e-15
-1.37806e-14
-9.00668e-15
4.06619e-15
-1.84436e-14
2.226e-14
4.09395e-15
9.35363e-15
9.40914e-15
-4.3715e-15
3.0087e-14
4.60743e-15
1.0103e-14
-1.11439e-14
-1.45994e-14
-1.33227e-14
1.28092e-14
5.34295e-15
-1.05471e-15
-1.58207e-15
-5.71765e-15
3.4639e-14
-2.0553e-14
2.28428e-14
1.19488e-14
4.03844e-15
5.81479e-15
-6.10623e-15
-2.38143e-14
2.05946e-14
-7.48013e-15
-5.88418e-15
-1.5099e-14
-1.48631e-14
1.15741e-14
9.4369e-15
-1.4988e-15
1.11022e-15
7.34135e-15
-8.46545e-15
-4.3715e-15
-3.51108e-15
9.52016e-15
2.44665e-14
-1.25316e-14
3.16552e-14
-6.93889e-16
-3.6221e-15
1.68754e-14
-2.62013e-14
2.76168e-15
-1.9304e-14
-2.34535e-15
-1.4086e-14
6.52256e-16
2.28012e-14
-2.18714e-14
-1.25455e-14
4.39926e-15
-2.05391e-15
-1.249e-16
1.51268e-14
-1.25039e-14
-3.84415e-15
1.13382e-14
-6.09235e-15
-1.78468e-14
6.52256e-16
-2.25792e-14
1.29341e-14
-1.13382e-14
1.02279e-14
-3.1225e-15
1.6237e-15
1.68338e-14
1.10745e-14
5.38458e-15
3.19189e-15
-1.72085e-15
1.42802e-14
-2.52576e-15
-2.38004e-14
-6.63358e-15
4.91274e-15
-2.01783e-14
-9.52016e-15
2.10804e-14
-1.59595e-15
1.45578e-14
-1.03667e-14
4.01068e-15
-1.02141e-14
-3.34455e-15
1.46827e-14
-5.56499e-15
-1.08524e-14
8.59035e-15
1.57097e-14
1.31561e-14
-7.09155e-15
-3.31679e-15
4.16334e-17
-2.54241e-14
-7.91034e-15
1.38223e-14
-2.05391e-15
1.64035e-14
-2.23432e-15
5.56499e-15
1.53766e-14
-1.52378e-14
1.87211e-14
2.20657e-14
-4.08007e-15
-1.7597e-14
-1.05471e-15
9.04832e-15
2.5091e-14
1.91513e-14
1.41553e-15
8.9373e-15
-6.41154e-15
1.13798e-14
9.02056e-15
-6.02296e-15
-1.34059e-14
1.97065e-14
-4.63518e-15
1.8624e-14
-1.28231e-14
-4.41314e-15
-2.77001e-14
-1.66533e-16
1.385e-14
-7.46625e-15
-2.96985e-15
-1.97897e-14
-2.30094e-14
-7.41074e-15
-9.65894e-15
6.46705e-15
-5.55112e-17
1.8513e-14
-2.01505e-14
1.14353e-14
2.57849e-14
-2.32592e-14
2.14273e-14
1.79301e-14
-1.85962e-15
-5.19029e-15
1.16296e-14
1.97065e-14
2.47025e-15
-1.32117e-14
-9.4369e-16
-2.57849e-14
-1.79023e-14
-1.17684e-14
2.27873e-14
1.84575e-14
-1.20737e-14
2.14551e-14
-1.39888e-14
-1.4766e-14
-6.10623e-15
-2.11775e-14
6.85563e-15
-1.41553e-14
2.04836e-14
1.16018e-14
-5.93969e-15
-2.57017e-14
8.32667e-15
1.4877e-14
-2.14273e-14
-1.11855e-14
-2.15661e-14
-2.29816e-14
-2.57294e-14
2.08167e-15
2.77556e-16
-1.4988e-15
-7.46625e-15
-6.88338e-15
2.65066e-14
-6.16174e-15
-1.19349e-15
-1.76525e-14
-3.747e-15
1.13798e-14
3.44169e-15
-1.42664e-14
5.46785e-15
2.08167e-15
7.10543e-15
1.16851e-14
1.62648e-14
2.43972e-14
5.82867e-15
5.66214e-15
-1.06304e-14
-9.99201e-15
1.7597e-14
1.06304e-14
-2.59515e-14
4.44089e-15
-1.42386e-14
-3.83027e-15
1.0103e-14
-8.16014e-15
-1.1241e-14
-3.53328e-14
9.90874e-15
1.79856e-14
-7.74381e-15
6.91114e-15
1.82077e-14
6.7446e-15
-1.60427e-14
-2.29261e-14
2.15938e-14
-6.68909e-15
4.2466e-15
1.21014e-14
2.77556e-16
1.4766e-14
4.08007e-15
1.91236e-14
-5.55112e-17
-5.68989e-15
6.63358e-15
2.28706e-14
-9.49241e-15
-1.68754e-14
5.27356e-15
-1.01585e-14
-4.996e-16
1.64868e-14
2.04281e-14
2.83107e-15
2.44249e-15
-1.31561e-14
-7.77156e-16
7.10543e-15
-3.25295e-14
-4.77396e-15
1.32117e-14
6.99441e-15
-1.03806e-14
4.10783e-15
1.4877e-14
3.05311e-15
-3.10862e-14
-3.21965e-15
-8.77076e-15
1.09912e-14
-2.72005e-15
-2.59792e-14
-1.60982e-14
-1.72085e-15
1.4988e-14
-1.55431e-15
-1.61537e-14
-1.92069e-14
1.14353e-14
9.27036e-15
6.38378e-15
-7.04992e-15
-1.38778e-15
3.94129e-15
2.65343e-14
3.20854e-14
-1.72085e-14
-2.62013e-14
-2.22045e-16
-5.27356e-15
-6.05072e-15
-9.15934e-15
8.43769e-15
1.16573e-14
-1.33227e-15
1.17129e-14
1.11022e-15
-1.25455e-14
-9.4369e-16
-2.86438e-14
-2.60902e-15
-1.61537e-14
-1.44329e-14
-7.38298e-15
1.9984e-15
-2.69784e-14
-1.35447e-14
-8.21565e-15
-1.4988e-15
1.74305e-14
-5.71765e-15
-9.76996e-15
2.38698e-15
-8.16014e-15
1.29341e-14
2.18159e-14
3.94129e-15
8.10463e-15
1.38778e-14
-7.82707e-15
-3.38618e-15
-3.94129e-15
1.83187e-15
-7.27196e-15
-5.55112e-17
2.44249e-14
1.77081e-14
-1.38778e-15
1.57652e-14
-1.73195e-14
-7.54952e-15
1.90403e-14
1.13243e-14
-1.94289e-15
-3.83027e-15
1.69864e-14
8.88178e-16
1.13243e-14
-1.11022e-15
-5.55112e-15
-4.82947e-15
1.44884e-14
-1.67089e-14
-1.55431e-15
-3.40838e-14
-1.89848e-14
8.60423e-15
2.53131e-14
2.24265e-14
6.93889e-15
-9.54792e-15
1.38778e-14
-1.21014e-14
7.88258e-15
4.4964e-15
-2.15383e-14
-6.66134e-16
5.82867e-15
2.42029e-14
3.20854e-14
8.32667e-16
-1.9984e-14
6.88338e-15
3.33067e-15
-1.72085e-15
2.27596e-14
1.38778e-14
7.60503e-15
-3.4972e-15
-1.04361e-14
3.15858e-14
7.60503e-15
-1.41553e-14
3.83027e-15
-7.54952e-15
-1.20459e-14
4.60743e-15
2.01505e-14
8.04912e-15
8.27116e-15
1.83187e-15
-7.66054e-15
1.21014e-14
-3.44169e-15
7.16094e-15
-2.58682e-14
-8.60423e-15
1.07137e-14
-2.09832e-14
-5.71765e-15
1.80411e-14
-1.85407e-14
1.66533e-16
2.60902e-15
-1.29896e-14
-3.30846e-14
2.32037e-14
1.68754e-14
1.0103e-14
-1.16573e-15
2.77556e-15
-2.06501e-14
1.43219e-14
2.77556e-15
2.83107e-14
2.60902e-15
-1.14353e-14
-9.88098e-15
-1.48215e-14
-9.4369e-15
-2.22045e-15
-1.80411e-14
-7.21645e-16
-9.60343e-15
-8.65974e-15
1.92069e-14
8.71525e-15
-5.77316e-15
-2.38698e-15
-3.02536e-14
9.10383e-15
2.39253e-14
-1.12688e-14
-1.14908e-14
0
-1.15463e-14
9.99201e-16
1.76525e-14
1.22125e-14
3.33067e-15
-3.87468e-14
-7.32747e-15
-4.10783e-15
-4.32987e-15
-6.77236e-15
1.52101e-14
-1.09912e-14
-2.4758e-14
-2.58682e-14
1.13243e-14
-2.23155e-14
1.55431e-14
-5.44009e-15
2.05391e-14
-5.32907e-15
1.73195e-14
4.996e-15
-9.32587e-15
3.16414e-14
1.45439e-14
1.25455e-14
1.58762e-14
-5.10703e-15
-5.32907e-15
1.32117e-14
2.91989e-14
-2.43139e-14
-2.67564e-14
-8.43769e-15
8.65974e-15
9.88098e-15
2.81997e-14
1.33227e-15
1.88738e-15
-2.63123e-14
-4.44089e-16
4.44089e-16
4.996e-15
-3.44169e-15
7.77156e-15
-2.22045e-15
2.79776e-14
7.54952e-15
1.9984e-15
9.4369e-15
-4.88498e-15
-7.99361e-15
6.77236e-15
-2.75335e-14
1.34337e-14
-1.28786e-14
-2.60902e-14
2.09832e-14
7.54952e-15
2.77556e-15
3.44169e-15
1.22125e-15
-1.45439e-14
-2.03171e-14
-1.39888e-14
1.31006e-14
-3.44169e-15
2.07612e-14
3.33067e-16
-4.10783e-15
-1.4988e-14
-3.88578e-15
2.14273e-14
3.27516e-14
-4.10783e-15
1.12133e-14
1.33227e-15
7.43849e-15
-4.996e-15
6.77236e-15
-2.65343e-14
1.92069e-14
8.88178e-16
-1.43219e-14
-1.65423e-14
-1.86517e-14
-8.21565e-15
7.21645e-15
7.21645e-15
1.79856e-14
-2.52021e-14
1.4766e-14
1.11022e-14
2.22045e-15
7.32747e-15
1.33227e-15
-1.22125e-14
9.4369e-15
-1.85407e-14
3.26406e-14
2.10942e-15
2.34257e-14
-1.26565e-14
-1.11022e-15
-4.55191e-15
1.59872e-14
-2.93099e-14
4.996e-15
-4.21885e-15
1.08802e-14
-6.55032e-15
6.88338e-15
9.99201e-15
2.39808e-14
-8.88178e-15
2.55351e-15
2.44249e-15
-2.22045e-15
-1.22125e-15
-4.55191e-15
-1.11022e-15
-1.64313e-14
-1.25455e-14
1.96509e-14
1.08802e-14
6.66134e-15
1.88738e-15
-3.03091e-14
1.18794e-14
1.59872e-14
2.22045e-16
5.9952e-15
-2.23155e-14
-1.95399e-14
-1.52101e-14
-5.10703e-15
1.55431e-15
7.10543e-15
-8.77076e-15
2.9976e-15
4.4964e-14
-1.77636e-15
6.43929e-15
-1.22125e-14
-5.55112e-16
8.88178e-15
9.54792e-15
8.10463e-15
-8.65974e-15
-4.19664e-14
2.4869e-14
-6.55032e-15
-5.44009e-15
-9.99201e-15
-5.88418e-15
-1.44329e-15
4.44089e-16
6.66134e-15
-7.77156e-16
-1.9762e-14
-2.66454e-15
-2.498e-14
7.21645e-15
-4.77396e-15
1.85407e-14
-5.9952e-15
-4.88498e-15
-3.88578e-15
2.22045e-15
-2.06501e-14
3.44169e-15
-1.11022e-14
-2.9643e-14
-1.17684e-14
4.10783e-15
1.74305e-14
5.88418e-15
-1.22125e-14
4.66294e-15
-8.21565e-15
-1.04361e-14
1.69864e-14
1.04361e-14
-2.22045e-16
3.21965e-15
-6.99441e-15
2.66454e-15
1.34337e-14
-6.99441e-15
-6.43929e-15
1.0103e-14
3.33067e-15
1.22125e-15
1.55431e-14
1.09912e-14
-2.88658e-15
-1.78746e-14
-1.32117e-14
-1.9984e-15
0
-1.85407e-14
-8.32667e-15
-1.38778e-14
2.77556e-15
4.44089e-16
4.21885e-15
-1.66533e-15
-1.28786e-14
3.88578e-15
1.57652e-14
-1.22125e-14
4.44089e-15
1.0103e-14
9.88098e-15
4.44089e-16
5.66214e-15
4.44089e-16
-1.0103e-14
1.74305e-14
4.44089e-15
9.99201e-16
2.20934e-14
6.66134e-15
9.10383e-15
4.44089e-15
-1.28786e-14
1.4766e-14
-1.03251e-14
-1.44329e-15
1.06581e-14
-7.77156e-16
1.0103e-14
2.91989e-14
6.99441e-15
-1.39888e-14
-1.58762e-14
-5.32907e-15
1.11022e-15
-1.32117e-14
3.33067e-16
3.10862e-15
-1.11022e-16
7.77156e-16
-7.77156e-15
1.11022e-16
-4.44089e-16
6.43929e-15
8.21565e-15
-8.65974e-15
7.77156e-15
-1.21014e-14
-1.34337e-14
-1.67644e-14
-1.64313e-14
9.88098e-15
-1.9984e-15
5.66214e-15
1.4877e-14
1.67644e-14
-3.10862e-15
9.21485e-15
6.32827e-15
-3.77476e-15
1.22125e-15
7.77156e-15
-2.44249e-15
1.26565e-14
1.28786e-14
1.9984e-15
9.99201e-16
-1.55431e-15
-1.53211e-14
-9.99201e-15
-3.55271e-15
2.77556e-15
6.32827e-15
1.38778e-14
9.76996e-15
-1.72085e-14
9.99201e-16
-2.33147e-15
-8.88178e-16
-2.30926e-14
1.24345e-14
-2.03171e-14
2.55351e-15
-9.99201e-15
5.66214e-15
1.22125e-15
4.44089e-16
-1.23235e-14
-1.25455e-14
-2.15383e-14
-1.23235e-14
-9.4369e-15
1.5099e-14
-1.03251e-14
-1.05471e-14
9.65894e-15
9.54792e-15
8.99281e-15
0
1.13243e-14
-1.5099e-14
4.66294e-15
1.37668e-14
-1.26565e-14
-1.79856e-14
-5.55112e-15
-6.21725e-15
3.77476e-15
1.70974e-14
1.37668e-14
3.9968e-15
-1.35447e-14
9.10383e-15
1.9984e-15
-6.88338e-15
-1.44329e-14
2.13163e-14
-1.15463e-14
-6.66134e-16
2.44249e-15
7.10543e-15
2.22045e-15
1.31006e-14
-7.99361e-15
-1.42109e-14
-1.55431e-15
-5.55112e-15
1.39888e-14
-8.21565e-15
2.06501e-14
2.22045e-15
0
-5.55112e-15
-1.19904e-14
-4.66294e-15
8.65974e-15
-4.44089e-16
-2.22045e-15
2.22045e-16
1.84297e-14
-1.44329e-14
1.02141e-14
5.10703e-15
1.28786e-14
-2.22045e-15
-3.77476e-15
-6.43929e-15
1.44329e-14
2.02061e-14
2.39808e-14
1.39888e-14
4.44089e-15
-1.26565e-14
1.08802e-14
6.88338e-15
-1.24345e-14
-7.54952e-15
-1.86517e-14
-9.99201e-15
-5.10703e-15
2.84217e-14
-1.11022e-14
-7.54952e-15
1.93179e-14
1.37668e-14
1.17684e-14
-3.33067e-15
8.88178e-16
-4.21885e-15
2.22045e-15
8.21565e-15
-4.88498e-15
-9.10383e-15
5.32907e-15
-1.17684e-14
5.10703e-15
-2.4647e-14
2.4869e-14
1.24345e-14
8.88178e-15
-8.65974e-15
-6.43929e-15
-7.54952e-15
-1.9984e-15
1.28786e-14
1.75415e-14
-1.77636e-15
-6.43929e-15
1.90958e-14
-2.19824e-14
-2.22045e-15
1.95399e-14
-1.55431e-15
1.9762e-14
1.31006e-14
8.88178e-16
-9.76996e-15
6.66134e-16
1.15463e-14
-2.88658e-15
-2.22045e-16
-1.19904e-14
1.84297e-14
-1.70974e-14
-4.21885e-15
5.9952e-15
1.9984e-15
-1.35447e-14
-1.02141e-14
2.88658e-15
-7.32747e-15
0
4.44089e-15
-2.66454e-15
-1.11022e-15
-1.9984e-15
2.66454e-15
1.64313e-14
2.33147e-14
0
-1.5099e-14
9.10383e-15
-1.9984e-15
-9.54792e-15
8.88178e-16
-4.44089e-15
8.88178e-15
6.43929e-15
0
-5.32907e-15
-2.66454e-15
8.43769e-15
-1.33227e-15
-3.55271e-15
1.33227e-14
8.43769e-15
1.90958e-14
-6.43929e-15
-1.28786e-14
-1.86517e-14
1.66533e-14
1.88738e-14
-7.99361e-15
8.43769e-15
7.54952e-15
-1.37668e-14
-1.11022e-15
4.44089e-16
-2.4647e-14
1.57652e-14
1.22125e-14
-3.30846e-14
1.9762e-14
-2.59792e-14
5.32907e-15
-5.55112e-15
-7.32747e-15
7.77156e-15
-1.13243e-14
-1.22125e-14
1.26565e-14
1.93179e-14
-7.77156e-15
-6.66134e-16
1.55431e-14
-4.44089e-16
1.68754e-14
2.66454e-15
-9.10383e-15
-8.21565e-15
2.88658e-15
1.24345e-14
-2.66454e-15
-3.77476e-15
2.22045e-15
1.19904e-14
9.32587e-15
-2.44249e-15
-2.26485e-14
3.10862e-15
2.22045e-16
7.99361e-15
3.33067e-15
1.77636e-14
1.42109e-14
-8.88178e-15
-1.77636e-15
6.43929e-15
1.9762e-14
-3.33067e-15
-1.55431e-15
-2.44249e-15
2.66454e-15
8.88178e-16
9.10383e-15
-2.22045e-16
-1.15463e-14
-5.55112e-15
6.21725e-15
-8.88178e-16
-2.88658e-15
-1.37668e-14
7.54952e-15
-5.55112e-15
-4.88498e-15
-1.77636e-14
-1.04361e-14
-1.93179e-14
1.33227e-14
6.66134e-16
0
1.79856e-14
-7.77156e-15
8.88178e-16
-3.10862e-15
9.99201e-15
4.21885e-15
-2.44249e-15
-5.55112e-15
1.17684e-14
3.77476e-15
-2.4869e-14
-1.86517e-14
-6.66134e-16
-1.11022e-15
6.66134e-16
-5.9952e-15
3.77476e-15
1.53211e-14
-8.88178e-16
-1.55431e-15
-6.88338e-15
1.95399e-14
-1.33227e-15
-5.10703e-15
-2.19824e-14
-9.99201e-15
-6.21725e-15
5.9952e-15
-8.88178e-15
8.88178e-15
-1.55431e-15
1.33227e-14
-1.95399e-14
2.22045e-16
1.79856e-14
-1.57652e-14
-1.28786e-14
-2.70894e-14
6.66134e-16
1.02141e-14
-7.10543e-15
-8.88178e-16
-4.44089e-16
-2.90878e-14
6.43929e-15
6.21725e-15
3.9968e-15
-8.88178e-15
-9.99201e-15
-8.88178e-16
1.5099e-14
-1.26565e-14
1.35447e-14
-6.66134e-16
2.37588e-14
2.02061e-14
2.68674e-14
6.66134e-16
-9.54792e-15
4.21885e-15
-4.44089e-16
-5.55112e-15
-2.66454e-15
-3.9968e-15
5.10703e-15
1.26565e-14
-2.22045e-16
8.65974e-15
7.10543e-15
-1.15463e-14
1.9762e-14
1.46549e-14
1.37668e-14
-2.66454e-15
-6.66134e-16
-3.55271e-15
-9.10383e-15
4.88498e-15
1.15463e-14
3.10862e-15
-9.99201e-15
-2.4647e-14
1.11022e-15
1.02141e-14
1.84297e-14
-5.55112e-15
-2.88658e-15
1.33227e-15
1.73195e-14
-7.32747e-15
1.33227e-15
-1.22125e-14
1.24345e-14
-4.66294e-15
5.10703e-15
2.5091e-14
1.22125e-14
1.57652e-14
4.44089e-16
-1.31006e-14
2.66454e-15
5.9952e-15
3.10862e-15
2.19824e-14
-1.55431e-15
-1.22125e-14
2.22045e-15
1.9984e-14
1.22125e-14
3.77476e-15
-9.32587e-15
6.66134e-15
-1.64313e-14
4.88498e-15
-1.31006e-14
3.55271e-15
-2.24265e-14
4.66294e-15
9.99201e-15
-5.77316e-15
5.55112e-15
7.77156e-15
3.9968e-15
2.22045e-15
-1.31006e-14
2.22045e-16
7.77156e-15
-1.13243e-14
9.32587e-15
-4.88498e-15
-1.19904e-14
-6.66134e-15
-3.77476e-15
-1.26565e-14
-6.88338e-15
1.19904e-14
1.88738e-14
-1.33227e-15
-4.21885e-15
3.10862e-15
1.04361e-14
4.44089e-15
-1.02141e-14
1.33227e-15
-6.43929e-15
1.13243e-14
5.77316e-15
-4.44089e-16
-1.33227e-14
-1.55431e-15
8.65974e-15
8.65974e-15
-5.77316e-15
7.77156e-15
-5.55112e-15
-6.66134e-15
-2.59792e-14
-4.88498e-15
1.17684e-14
8.21565e-15
-3.33067e-15
-1.53211e-14
1.33227e-15
-9.54792e-15
-1.9984e-15
2.66454e-15
-1.55431e-15
-1.26565e-14
-2.04281e-14
-6.66134e-16
4.66294e-15
-1.4877e-14
2.44249e-15
2.22045e-15
2.88658e-15
-8.21565e-15
9.76996e-15
-2.22045e-15
2.88658e-15
-1.06581e-14
3.77476e-15
-6.21725e-15
-1.17684e-14
-1.44329e-14
1.06581e-14
-1.79856e-14
-2.22045e-15
3.55271e-15
-1.82077e-14
3.33067e-15
9.10383e-15
-1.17684e-14
-1.13243e-14
4.44089e-15
7.54952e-15
-7.77156e-15
-6.88338e-15
6.66134e-15
1.9984e-15
-1.11022e-14
7.32747e-15
1.26565e-14
-7.54952e-15
3.55271e-15
-1.9984e-15
-1.06581e-14
1.9984e-15
7.99361e-15
7.10543e-15
-6.66134e-15
-9.76996e-15
3.10862e-15
4.88498e-15
2.22045e-15
2.66454e-15
5.32907e-15
2.62013e-14
7.10543e-15
-7.99361e-15
-1.24345e-14
-1.33227e-15
1.46549e-14
2.22045e-15
4.44089e-16
-6.21725e-15
1.11022e-14
-1.15463e-14
4.44089e-15
1.24345e-14
4.44089e-15
-3.10862e-15
1.64313e-14
-1.77636e-15
3.10862e-15
7.99361e-15
1.77636e-15
-5.77316e-15
-1.06581e-14
-7.54952e-15
2.17604e-14
1.55431e-14
4.44089e-16
7.99361e-15
1.73195e-14
4.88498e-15
8.43769e-15
4.44089e-16
-3.9968e-15
4.44089e-16
-5.77316e-15
4.44089e-16
8.43769e-15
1.42109e-14
3.55271e-15
-1.73195e-14
1.02141e-14
-6.21725e-15
-7.99361e-15
-3.10862e-15
3.10862e-15
-1.28786e-14
0
1.5099e-14
-1.77636e-15
-1.59872e-14
-2.22045e-15
-9.32587e-15
-7.54952e-15
-1.28786e-14
2.66454e-15
1.42109e-14
4.44089e-16
5.32907e-15
-3.55271e-15
-3.55271e-15
-6.21725e-15
-3.9968e-15
-5.32907e-15
1.55431e-14
7.54952e-15
1.55431e-14
-1.06581e-14
-8.88178e-16
-3.10862e-15
7.10543e-15
-1.55431e-14
8.88178e-16
3.9968e-15
4.44089e-16
9.32587e-15
-1.5099e-14
-6.21725e-15
1.24345e-14
-2.22045e-15
-1.33227e-15
-2.04281e-14
5.32907e-15
1.77636e-15
8.88178e-15
-1.33227e-14
-5.77316e-15
-6.66134e-15
-9.76996e-15
-9.76996e-15
-7.10543e-15
3.10862e-15
1.77636e-14
3.55271e-15
0
4.44089e-15
4.88498e-15
9.32587e-15
-4.44089e-15
-1.77636e-15
7.10543e-15
-4.44089e-15
7.10543e-15
-3.10862e-15
-6.66134e-15
-4.44089e-16
1.06581e-14
-1.02141e-14
-6.21725e-15
8.88178e-15
8.88178e-16
0
-6.21725e-15
-8.88178e-16
1.46549e-14
-4.44089e-16
-7.10543e-15
2.66454e-15
9.32587e-15
-1.77636e-15
-2.66454e-15
-7.10543e-15
-1.37668e-14
1.24345e-14
-1.59872e-14
1.77636e-15
-8.43769e-15
-2.66454e-15
3.10862e-15
-4.88498e-15
-2.22045e-15
7.10543e-15
1.59872e-14
-6.21725e-15
-1.33227e-14
-4.88498e-15
7.54952e-15
5.77316e-15
-1.19904e-14
1.19904e-14
-1.46549e-14
2.04281e-14
4.44089e-16
8.88178e-16
-1.11022e-14
-4.44089e-16
1.77636e-15
6.66134e-15
9.32587e-15
1.59872e-14
8.88178e-16
-5.77316e-15
-2.26485e-14
-1.5099e-14
-4.88498e-15
-7.54952e-15
-4.88498e-15
-1.42109e-14
-3.9968e-15
3.55271e-15
3.9968e-15
3.9968e-15
1.77636e-15
-8.88178e-16
-4.44089e-16
-3.9968e-15
-6.21725e-15
1.77636e-15
-3.9968e-15
-3.55271e-15
1.24345e-14
6.21725e-15
7.10543e-15
-3.55271e-15
-1.11022e-14
1.15463e-14
9.76996e-15
-1.33227e-15
-7.10543e-15
-4.88498e-15
1.46549e-14
3.10862e-15
1.33227e-14
-5.32907e-15
1.19904e-14
-1.77636e-15
4.44089e-16
7.99361e-15
-1.11022e-14
5.77316e-15
7.10543e-15
-1.77636e-15
-1.33227e-14
-3.10862e-15
2.66454e-14
-1.19904e-14
-3.55271e-15
-9.76996e-15
3.55271e-15
-1.06581e-14
1.73195e-14
-3.55271e-15
-3.9968e-15
3.10862e-15
-6.21725e-15
-2.66454e-15
2.66454e-15
-4.44089e-15
4.44089e-16
-1.06581e-14
-7.54952e-15
-4.44089e-16
8.88178e-16
1.19904e-14
6.21725e-15
1.77636e-15
-6.21725e-15
5.77316e-15
5.77316e-15
-8.88178e-15
5.32907e-15
-4.44089e-16
4.88498e-15
-2.22045e-15
-1.77636e-15
8.43769e-15
-4.44089e-16
-8.88178e-16
3.9968e-15
-3.10862e-15
-1.73195e-14
-3.9968e-15
-7.10543e-15
3.10862e-15
3.9968e-15
-2.66454e-15
-3.55271e-15
-1.77636e-15
3.10862e-15
3.9968e-15
-1.11022e-14
7.10543e-15
-1.15463e-14
1.77636e-15
-5.32907e-15
-1.33227e-15
-3.10862e-15
-1.33227e-15
4.44089e-15
-4.44089e-16
-9.76996e-15
2.66454e-15
1.15463e-14