/*--------------------------------*- C++ -*----------------------------------*\
| =========                 |                                                 |
| \\      /  F ield         | foam-extend: Open Source CFD                    |
|  \\    /   O peration     | Version:     4.0                                |
|   \\  /    A nd           | Web:         http://www.foam-extend.org         |
|    \\/     M anipulation  |                                                 |
\*---------------------------------------------------------------------------*/
FoamFile
{
    version     2.0;
    format      ascii;
    class       volScalarField;
    location    "2";
    object      cMinus;
}
// * * * * * * * * * * * * * * * * * * * * * * * * * * * * * * * * * * * * * //

dimensions      [0 -3 0 0 0 0 0];

internalField   nonuniform List<scalar> 
6960
(
-9.44716e-07
-3.30879e-07
2.94531e-07
4.41335e-07
2.93472e-07
1.3614e-07
5.34625e-08
2.25521e-08
1.32835e-08
1.09113e-08
1.03679e-08
1.02537e-08
1.0232e-08
1.02274e-08
1.02255e-08
1.0227e-08
1.02271e-08
1.02276e-08
1.02281e-08
1.02261e-08
1.02246e-08
1.02248e-08
1.02255e-08
1.02272e-08
1.02249e-08
1.02301e-08
1.0229e-08
1.02246e-08
1.02262e-08
1.02248e-08
1.02238e-08
1.02279e-08
1.02287e-08
1.02257e-08
1.0228e-08
1.02258e-08
1.02254e-08
1.02248e-08
1.02234e-08
1.02265e-08
1.02267e-08
1.0225e-08
1.02259e-08
1.02244e-08
1.02258e-08
1.02269e-08
1.02273e-08
1.02303e-08
1.02556e-08
1.03694e-08
1.0912e-08
1.32846e-08
2.25479e-08
5.34632e-08
1.3614e-07
2.93473e-07
4.4134e-07
2.94529e-07
-3.30879e-07
-9.44712e-07
-1.04139e-06
-3.64748e-07
3.24663e-07
4.865e-07
3.23517e-07
1.50085e-07
5.89419e-08
2.48634e-08
1.46439e-08
1.2028e-08
1.14287e-08
1.13027e-08
1.12787e-08
1.12737e-08
1.12716e-08
1.12733e-08
1.12733e-08
1.12738e-08
1.12744e-08
1.12721e-08
1.12705e-08
1.12708e-08
1.12715e-08
1.12734e-08
1.12709e-08
1.12766e-08
1.12754e-08
1.12706e-08
1.12723e-08
1.12708e-08
1.12697e-08
1.12741e-08
1.12751e-08
1.12717e-08
1.12742e-08
1.12718e-08
1.12715e-08
1.12708e-08
1.12692e-08
1.12727e-08
1.12729e-08
1.12711e-08
1.1272e-08
1.12704e-08
1.12719e-08
1.12731e-08
1.12735e-08
1.12769e-08
1.13048e-08
1.14302e-08
1.20287e-08
1.46451e-08
2.48588e-08
5.89425e-08
1.50084e-07
3.23518e-07
4.86506e-07
3.24661e-07
-3.64747e-07
-1.04139e-06
-1.14129e-06
-3.99954e-07
3.55512e-07
5.3317e-07
3.5476e-07
1.64677e-07
6.47029e-08
2.72936e-08
1.60667e-08
1.31904e-08
1.25309e-08
1.23922e-08
1.23657e-08
1.23602e-08
1.23581e-08
1.23598e-08
1.23599e-08
1.23604e-08
1.23611e-08
1.23585e-08
1.23567e-08
1.23571e-08
1.23579e-08
1.23598e-08
1.23572e-08
1.23634e-08
1.2362e-08
1.23569e-08
1.23588e-08
1.23572e-08
1.2356e-08
1.23606e-08
1.23619e-08
1.2358e-08
1.23607e-08
1.23581e-08
1.23578e-08
1.23573e-08
1.23555e-08
1.23591e-08
1.23595e-08
1.23575e-08
1.23585e-08
1.23567e-08
1.23583e-08
1.23595e-08
1.236e-08
1.2364e-08
1.23946e-08
1.25326e-08
1.31912e-08
1.60679e-08
2.72888e-08
6.47034e-08
1.64676e-07
3.54761e-07
5.33176e-07
3.5551e-07
-3.99954e-07
-1.14129e-06
-1.24425e-06
-4.36473e-07
3.86982e-07
5.81263e-07
3.87182e-07
1.7992e-07
7.07526e-08
2.98456e-08
1.75522e-08
1.43979e-08
1.36736e-08
1.35212e-08
1.3492e-08
1.34861e-08
1.34838e-08
1.34856e-08
1.34858e-08
1.34862e-08
1.3487e-08
1.34841e-08
1.34821e-08
1.34827e-08
1.34835e-08
1.34855e-08
1.34828e-08
1.34893e-08
1.34877e-08
1.34825e-08
1.34846e-08
1.34829e-08
1.34816e-08
1.34864e-08
1.34879e-08
1.34837e-08
1.34865e-08
1.34837e-08
1.34834e-08
1.3483e-08
1.34812e-08
1.34849e-08
1.34854e-08
1.34833e-08
1.34844e-08
1.34823e-08
1.34841e-08
1.34851e-08
1.34857e-08
1.34905e-08
1.35239e-08
1.36757e-08
1.43988e-08
1.75535e-08
2.98406e-08
7.07531e-08
1.79919e-07
3.87183e-07
5.8127e-07
3.86979e-07
-4.36473e-07
-1.24424e-06
-1.35008e-06
-4.74275e-07
4.18967e-07
6.30697e-07
4.20758e-07
1.95821e-07
7.7098e-08
3.25225e-08
1.9101e-08
1.56501e-08
1.4856e-08
1.46888e-08
1.46564e-08
1.46501e-08
1.46478e-08
1.46495e-08
1.46498e-08
1.46503e-08
1.46511e-08
1.46479e-08
1.46456e-08
1.46465e-08
1.46472e-08
1.46493e-08
1.46467e-08
1.46533e-08
1.46515e-08
1.46463e-08
1.46485e-08
1.46467e-08
1.46456e-08
1.46503e-08
1.46519e-08
1.46475e-08
1.46503e-08
1.46475e-08
1.46473e-08
1.46469e-08
1.46451e-08
1.46487e-08
1.46494e-08
1.46472e-08
1.46484e-08
1.46462e-08
1.46481e-08
1.46489e-08
1.46496e-08
1.46553e-08
1.46916e-08
1.48584e-08
1.56509e-08
1.91023e-08
3.25176e-08
7.70983e-08
1.9582e-07
4.20759e-07
6.30703e-07
4.18965e-07
-4.74275e-07
-1.35007e-06
-1.45859e-06
-5.13328e-07
4.51362e-07
6.81376e-07
4.55462e-07
2.12382e-07
8.37463e-08
3.53275e-08
2.07135e-08
1.6946e-08
1.60769e-08
1.58937e-08
1.58579e-08
1.58512e-08
1.58486e-08
1.58503e-08
1.58507e-08
1.58512e-08
1.5852e-08
1.58486e-08
1.5846e-08
1.58473e-08
1.58479e-08
1.585e-08
1.58474e-08
1.5854e-08
1.58522e-08
1.58469e-08
1.58492e-08
1.58475e-08
1.58464e-08
1.58511e-08
1.58528e-08
1.58483e-08
1.5851e-08
1.58481e-08
1.58481e-08
1.58476e-08
1.58458e-08
1.58494e-08
1.58503e-08
1.5848e-08
1.58492e-08
1.58471e-08
1.58489e-08
1.58495e-08
1.58503e-08
1.5857e-08
1.58967e-08
1.60797e-08
1.69469e-08
2.07146e-08
3.53227e-08
8.37465e-08
2.12381e-07
4.55464e-07
6.81383e-07
4.51359e-07
-5.13327e-07
-1.45858e-06
-1.56957e-06
-5.53595e-07
4.8405e-07
7.33205e-07
4.91262e-07
2.29607e-07
9.07045e-08
3.82643e-08
2.23901e-08
1.82851e-08
1.73352e-08
1.71346e-08
1.70949e-08
1.70878e-08
1.7085e-08
1.70867e-08
1.7087e-08
1.70876e-08
1.70883e-08
1.70849e-08
1.70822e-08
1.70836e-08
1.70842e-08
1.70862e-08
1.70838e-08
1.70904e-08
1.70885e-08
1.70832e-08
1.70855e-08
1.70838e-08
1.70829e-08
1.70874e-08
1.70891e-08
1.70847e-08
1.70873e-08
1.70843e-08
1.70845e-08
1.70839e-08
1.70822e-08
1.70858e-08
1.70867e-08
1.70843e-08
1.70855e-08
1.70835e-08
1.70853e-08
1.70857e-08
1.70866e-08
1.70943e-08
1.71376e-08
1.73383e-08
1.82859e-08
2.23911e-08
3.82596e-08
9.07048e-08
2.29607e-07
4.91264e-07
7.33212e-07
4.84048e-07
-5.53594e-07
-1.56956e-06
-1.68281e-06
-5.95037e-07
5.16918e-07
7.86079e-07
5.28128e-07
2.47499e-07
9.79803e-08
4.1336e-08
2.4131e-08
1.96664e-08
1.86297e-08
1.84101e-08
1.83663e-08
1.83586e-08
1.83555e-08
1.83572e-08
1.83574e-08
1.83581e-08
1.83587e-08
1.83554e-08
1.83526e-08
1.83541e-08
1.83547e-08
1.83566e-08
1.83543e-08
1.83608e-08
1.8359e-08
1.83537e-08
1.83558e-08
1.83543e-08
1.83534e-08
1.83579e-08
1.83595e-08
1.83552e-08
1.83577e-08
1.83547e-08
1.8355e-08
1.83543e-08
1.83528e-08
1.83562e-08
1.83572e-08
1.83546e-08
1.83559e-08
1.8354e-08
1.83558e-08
1.83561e-08
1.83571e-08
1.83658e-08
1.84131e-08
1.86331e-08
1.96672e-08
2.4132e-08
4.13314e-08
9.79806e-08
2.47499e-07
5.2813e-07
7.86086e-07
5.16916e-07
-5.95036e-07
-1.6828e-06
-1.79808e-06
-6.37612e-07
5.49843e-07
8.39891e-07
5.6602e-07
2.6606e-07
1.05581e-07
4.45466e-08
2.5937e-08
2.1089e-08
1.99589e-08
1.97187e-08
1.96703e-08
1.9662e-08
1.96587e-08
1.96602e-08
1.96604e-08
1.96612e-08
1.96617e-08
1.96585e-08
1.96556e-08
1.96572e-08
1.96579e-08
1.96596e-08
1.96575e-08
1.96638e-08
1.96621e-08
1.96568e-08
1.96588e-08
1.96574e-08
1.96565e-08
1.96611e-08
1.96626e-08
1.96584e-08
1.96608e-08
1.96578e-08
1.96581e-08
1.96574e-08
1.96559e-08
1.96593e-08
1.96603e-08
1.96576e-08
1.96588e-08
1.9657e-08
1.96588e-08
1.96591e-08
1.96603e-08
1.967e-08
1.97216e-08
1.99625e-08
2.10897e-08
2.5938e-08
4.45421e-08
1.05581e-07
2.6606e-07
5.66022e-07
8.39898e-07
5.49841e-07
-6.37611e-07
-1.79808e-06
-1.91515e-06
-6.81273e-07
5.82703e-07
8.94523e-07
6.04901e-07
2.8529e-07
1.13513e-07
4.78997e-08
2.78084e-08
2.2552e-08
2.13215e-08
2.10587e-08
2.10055e-08
2.09963e-08
2.09928e-08
2.09943e-08
2.09944e-08
2.09952e-08
2.09957e-08
2.09925e-08
2.09897e-08
2.09913e-08
2.0992e-08
2.09936e-08
2.09916e-08
2.09978e-08
2.09961e-08
2.09908e-08
2.09927e-08
2.09915e-08
2.09905e-08
2.09951e-08
2.09965e-08
2.09926e-08
2.09949e-08
2.09919e-08
2.09922e-08
2.09914e-08
2.099e-08
2.09934e-08
2.09944e-08
2.09915e-08
2.09927e-08
2.0991e-08
2.09928e-08
2.09932e-08
2.09946e-08
2.10053e-08
2.10617e-08
2.13252e-08
2.25526e-08
2.78095e-08
4.78953e-08
1.13514e-07
2.8529e-07
6.04904e-07
8.94531e-07
5.82701e-07
-6.81273e-07
-1.91515e-06
-2.03378e-06
-7.25973e-07
6.15371e-07
9.49862e-07
6.44726e-07
3.05189e-07
1.21785e-07
5.13993e-08
2.97461e-08
2.40544e-08
2.27159e-08
2.24287e-08
2.23701e-08
2.23598e-08
2.23564e-08
2.23576e-08
2.23577e-08
2.23586e-08
2.2359e-08
2.23559e-08
2.23532e-08
2.23547e-08
2.23555e-08
2.23569e-08
2.2355e-08
2.23611e-08
2.23594e-08
2.23542e-08
2.2356e-08
2.23549e-08
2.23539e-08
2.23585e-08
2.23598e-08
2.23562e-08
2.23583e-08
2.23553e-08
2.23556e-08
2.23547e-08
2.23534e-08
2.23566e-08
2.23578e-08
2.23547e-08
2.2356e-08
2.23543e-08
2.23562e-08
2.23565e-08
2.23582e-08
2.237e-08
2.24316e-08
2.27196e-08
2.4055e-08
2.97471e-08
5.13951e-08
1.21786e-07
3.05189e-07
6.44729e-07
9.49869e-07
6.15369e-07
-7.25973e-07
-2.03377e-06
-2.15371e-06
-7.7166e-07
6.47722e-07
1.00578e-06
6.85452e-07
3.25755e-07
1.30404e-07
5.50495e-08
3.17506e-08
2.55953e-08
2.41406e-08
2.38268e-08
2.37624e-08
2.3751e-08
2.37474e-08
2.37485e-08
2.37485e-08
2.37494e-08
2.37499e-08
2.37467e-08
2.37441e-08
2.37457e-08
2.37465e-08
2.37478e-08
2.3746e-08
2.37519e-08
2.37502e-08
2.37452e-08
2.37468e-08
2.37459e-08
2.37448e-08
2.37494e-08
2.37506e-08
2.37472e-08
2.37492e-08
2.37462e-08
2.37464e-08
2.37455e-08
2.37443e-08
2.37474e-08
2.37487e-08
2.37455e-08
2.37468e-08
2.37451e-08
2.3747e-08
2.37473e-08
2.37494e-08
2.37623e-08
2.38297e-08
2.41444e-08
2.55958e-08
3.17516e-08
5.50455e-08
1.30405e-07
3.25756e-07
6.85455e-07
1.00579e-06
6.4772e-07
-7.7166e-07
-2.1537e-06
-2.27468e-06
-8.1828e-07
6.79623e-07
1.06215e-06
7.27027e-07
3.46988e-07
1.39378e-07
5.88548e-08
3.38228e-08
2.71736e-08
2.5594e-08
2.52513e-08
2.51806e-08
2.51678e-08
2.51642e-08
2.5165e-08
2.5165e-08
2.51659e-08
2.51665e-08
2.51633e-08
2.51608e-08
2.51623e-08
2.51633e-08
2.51645e-08
2.51628e-08
2.51684e-08
2.51667e-08
2.51619e-08
2.51634e-08
2.51626e-08
2.51614e-08
2.51659e-08
2.51672e-08
2.5164e-08
2.51659e-08
2.51629e-08
2.51631e-08
2.51621e-08
2.5161e-08
2.51639e-08
2.51652e-08
2.5162e-08
2.51633e-08
2.51617e-08
2.51636e-08
2.51639e-08
2.51664e-08
2.51806e-08
2.52542e-08
2.55978e-08
2.71741e-08
3.38237e-08
5.88509e-08
1.39379e-07
3.46989e-07
7.2703e-07
1.06216e-06
6.79621e-07
-8.1828e-07
-2.27468e-06
-2.39644e-06
-8.65775e-07
7.10948e-07
1.11885e-06
7.69402e-07
3.68883e-07
1.48714e-07
6.28195e-08
3.59634e-08
2.87885e-08
2.70745e-08
2.67005e-08
2.66229e-08
2.66085e-08
2.66048e-08
2.66054e-08
2.66053e-08
2.66063e-08
2.66069e-08
2.66036e-08
2.66013e-08
2.66029e-08
2.66039e-08
2.6605e-08
2.66034e-08
2.66088e-08
2.6607e-08
2.66025e-08
2.66037e-08
2.66032e-08
2.66019e-08
2.66063e-08
2.66075e-08
2.66047e-08
2.66063e-08
2.66034e-08
2.66035e-08
2.66024e-08
2.66014e-08
2.66043e-08
2.66057e-08
2.66023e-08
2.66036e-08
2.66021e-08
2.66039e-08
2.66043e-08
2.66072e-08
2.66229e-08
2.67034e-08
2.70783e-08
2.8789e-08
3.59643e-08
6.28157e-08
1.48715e-07
3.68884e-07
7.69405e-07
1.11886e-06
7.10946e-07
-8.65775e-07
-2.39644e-06
-2.51872e-06
-9.14086e-07
7.41565e-07
1.17573e-06
8.12519e-07
3.91437e-07
1.5842e-07
6.69487e-08
3.81736e-08
3.04392e-08
2.85805e-08
2.81724e-08
2.80873e-08
2.80712e-08
2.80674e-08
2.80678e-08
2.80676e-08
2.80686e-08
2.80694e-08
2.8066e-08
2.80638e-08
2.80654e-08
2.80665e-08
2.80675e-08
2.80659e-08
2.80712e-08
2.80693e-08
2.80651e-08
2.80661e-08
2.80656e-08
2.80643e-08
2.80686e-08
2.80698e-08
2.80673e-08
2.80688e-08
2.80659e-08
2.80658e-08
2.80647e-08
2.80638e-08
2.80666e-08
2.8068e-08
2.80646e-08
2.80659e-08
2.80644e-08
2.80663e-08
2.80666e-08
2.807e-08
2.80873e-08
2.81753e-08
2.85844e-08
3.04395e-08
3.81744e-08
6.69449e-08
1.58421e-07
3.91437e-07
8.12522e-07
1.17574e-06
7.41563e-07
-9.14087e-07
-2.51871e-06
-2.64124e-06
-9.63151e-07
7.71346e-07
1.23267e-06
8.56324e-07
4.14643e-07
1.68503e-07
7.12471e-08
4.04544e-08
3.21245e-08
3.01102e-08
2.96653e-08
2.95718e-08
2.9554e-08
2.955e-08
2.955e-08
2.95499e-08
2.95508e-08
2.95518e-08
2.95482e-08
2.95463e-08
2.95479e-08
2.9549e-08
2.95499e-08
2.95484e-08
2.95535e-08
2.95514e-08
2.95477e-08
2.95484e-08
2.9548e-08
2.95467e-08
2.95509e-08
2.95521e-08
2.95498e-08
2.95512e-08
2.95483e-08
2.95481e-08
2.9547e-08
2.95462e-08
2.95489e-08
2.95503e-08
2.95469e-08
2.95481e-08
2.95467e-08
2.95486e-08
2.95488e-08
2.95528e-08
2.95719e-08
2.9668e-08
3.01142e-08
3.21249e-08
4.04553e-08
7.12434e-08
1.68505e-07
4.14644e-07
8.56327e-07
1.23268e-06
7.71345e-07
-9.63152e-07
-2.64124e-06
-2.76374e-06
-1.01291e-06
8.00163e-07
1.28953e-06
9.00752e-07
4.38496e-07
1.78971e-07
7.57202e-08
4.28073e-08
3.38438e-08
3.16622e-08
3.11772e-08
3.10746e-08
3.10547e-08
3.10505e-08
3.10503e-08
3.10502e-08
3.10511e-08
3.10522e-08
3.10484e-08
3.10468e-08
3.10484e-08
3.10495e-08
3.10503e-08
3.1049e-08
3.10537e-08
3.10516e-08
3.10482e-08
3.10488e-08
3.10483e-08
3.1047e-08
3.10511e-08
3.10525e-08
3.10504e-08
3.10516e-08
3.10487e-08
3.10483e-08
3.10472e-08
3.10467e-08
3.10492e-08
3.10505e-08
3.10472e-08
3.10482e-08
3.1047e-08
3.10489e-08
3.1049e-08
3.10537e-08
3.10748e-08
3.11798e-08
3.16662e-08
3.38442e-08
4.28082e-08
7.57165e-08
1.78973e-07
4.38497e-07
9.00755e-07
1.28953e-06
8.00161e-07
-1.01291e-06
-2.76374e-06
-2.88594e-06
-1.06328e-06
8.2789e-07
1.34615e-06
9.45744e-07
4.62986e-07
1.89832e-07
8.03732e-08
4.52337e-08
3.55963e-08
3.32346e-08
3.27063e-08
3.25936e-08
3.25715e-08
3.2567e-08
3.25665e-08
3.25665e-08
3.25674e-08
3.25685e-08
3.25646e-08
3.25632e-08
3.25649e-08
3.2566e-08
3.25667e-08
3.25655e-08
3.25699e-08
3.25678e-08
3.25647e-08
3.2565e-08
3.25646e-08
3.25633e-08
3.25672e-08
3.25688e-08
3.25669e-08
3.25679e-08
3.25652e-08
3.25645e-08
3.25634e-08
3.25631e-08
3.25655e-08
3.25667e-08
3.25634e-08
3.25643e-08
3.25633e-08
3.25652e-08
3.25651e-08
3.25707e-08
3.25939e-08
3.27087e-08
3.32389e-08
3.55969e-08
4.52347e-08
8.03696e-08
1.89834e-07
4.62987e-07
9.45747e-07
1.34616e-06
8.27889e-07
-1.06328e-06
-2.88594e-06
-3.00757e-06
-1.11422e-06
8.54401e-07
1.40241e-06
9.91229e-07
4.88106e-07
2.01092e-07
8.52121e-08
4.77353e-08
3.73815e-08
3.48261e-08
3.42505e-08
3.41268e-08
3.41022e-08
3.40975e-08
3.40967e-08
3.40968e-08
3.40977e-08
3.40989e-08
3.40948e-08
3.40937e-08
3.40953e-08
3.40964e-08
3.40971e-08
3.4096e-08
3.41e-08
3.40979e-08
3.40951e-08
3.40953e-08
3.40948e-08
3.40936e-08
3.40973e-08
3.40991e-08
3.40974e-08
3.40982e-08
3.40955e-08
3.40947e-08
3.40936e-08
3.40935e-08
3.40957e-08
3.40968e-08
3.40937e-08
3.40944e-08
3.40936e-08
3.40955e-08
3.40953e-08
3.41018e-08
3.41273e-08
3.42528e-08
3.48304e-08
3.73821e-08
4.77365e-08
8.52087e-08
2.01094e-07
4.88107e-07
9.91232e-07
1.40242e-06
8.544e-07
-1.11422e-06
-3.00756e-06
-3.12834e-06
-1.16563e-06
8.79578e-07
1.45815e-06
1.03714e-06
5.13844e-07
2.12759e-07
9.02428e-08
5.03141e-08
3.91985e-08
3.6435e-08
3.58079e-08
3.56723e-08
3.5645e-08
3.56399e-08
3.56387e-08
3.5639e-08
3.56399e-08
3.56412e-08
3.56369e-08
3.5636e-08
3.56377e-08
3.56387e-08
3.56393e-08
3.56385e-08
3.5642e-08
3.564e-08
3.56374e-08
3.56375e-08
3.5637e-08
3.56358e-08
3.56392e-08
3.56414e-08
3.56397e-08
3.56404e-08
3.56378e-08
3.56367e-08
3.56357e-08
3.56357e-08
3.56379e-08
3.56388e-08
3.56359e-08
3.56363e-08
3.56357e-08
3.56377e-08
3.56374e-08
3.56448e-08
3.5673e-08
3.58102e-08
3.64394e-08
3.91993e-08
5.03154e-08
9.02395e-08
2.12762e-07
5.13845e-07
1.03715e-06
1.45816e-06
8.79577e-07
-1.16563e-06
-3.12834e-06
-3.248e-06
-1.21746e-06
9.03301e-07
1.51324e-06
1.08341e-06
5.40188e-07
2.24841e-07
9.54718e-08
5.29722e-08
4.10471e-08
3.80598e-08
3.73767e-08
3.72279e-08
3.71978e-08
3.71923e-08
3.71907e-08
3.71912e-08
3.7192e-08
3.71933e-08
3.71889e-08
3.71882e-08
3.71899e-08
3.71908e-08
3.71914e-08
3.71908e-08
3.71939e-08
3.7192e-08
3.71895e-08
3.71896e-08
3.7189e-08
3.71879e-08
3.7191e-08
3.71937e-08
3.71919e-08
3.71925e-08
3.719e-08
3.71888e-08
3.71878e-08
3.71879e-08
3.71899e-08
3.71906e-08
3.71881e-08
3.71881e-08
3.71877e-08
3.71897e-08
3.71894e-08
3.71978e-08
3.72289e-08
3.7379e-08
3.80642e-08
4.10481e-08
5.29736e-08
9.54686e-08
2.24843e-07
5.40189e-07
1.08341e-06
1.51325e-06
9.033e-07
-1.21746e-06
-3.248e-06
-3.36627e-06
-1.26962e-06
9.25459e-07
1.56753e-06
1.12996e-06
5.67123e-07
2.37343e-07
1.00905e-07
5.57121e-08
4.29269e-08
3.9699e-08
3.89549e-08
3.87919e-08
3.87586e-08
3.87525e-08
3.87506e-08
3.87513e-08
3.87519e-08
3.87534e-08
3.87488e-08
3.87482e-08
3.87501e-08
3.87508e-08
3.87514e-08
3.8751e-08
3.87536e-08
3.87518e-08
3.87495e-08
3.87496e-08
3.87489e-08
3.87479e-08
3.87506e-08
3.87538e-08
3.87519e-08
3.87525e-08
3.87501e-08
3.87488e-08
3.87478e-08
3.87479e-08
3.87498e-08
3.87504e-08
3.87481e-08
3.87479e-08
3.87475e-08
3.87494e-08
3.87495e-08
3.87587e-08
3.87931e-08
3.89572e-08
3.97034e-08
4.29281e-08
5.57134e-08
1.00902e-07
2.37346e-07
5.67125e-07
1.12996e-06
1.56753e-06
9.25458e-07
-1.26962e-06
-3.36627e-06
-3.48289e-06
-1.32205e-06
9.4594e-07
1.62087e-06
1.17671e-06
5.94636e-07
2.50273e-07
1.06551e-07
5.85362e-08
4.48378e-08
4.13513e-08
4.05408e-08
4.03621e-08
4.03253e-08
4.03186e-08
4.03164e-08
4.03172e-08
4.03178e-08
4.03193e-08
4.03146e-08
4.03142e-08
4.03161e-08
4.03166e-08
4.03173e-08
4.03171e-08
4.03193e-08
4.03176e-08
4.03154e-08
4.03156e-08
4.03145e-08
4.03137e-08
4.0316e-08
4.03197e-08
4.03177e-08
4.03184e-08
4.0316e-08
4.03147e-08
4.03136e-08
4.03138e-08
4.03155e-08
4.03159e-08
4.03141e-08
4.03135e-08
4.03131e-08
4.0315e-08
4.03154e-08
4.03256e-08
4.03636e-08
4.05431e-08
4.13556e-08
4.48391e-08
5.85374e-08
1.06548e-07
2.50276e-07
5.94638e-07
1.17671e-06
1.62088e-06
9.45939e-07
-1.32205e-06
-3.48288e-06
-3.59758e-06
-1.37466e-06
9.64644e-07
1.67313e-06
1.22359e-06
6.22708e-07
2.63637e-07
1.12415e-07
6.14475e-08
4.67796e-08
4.30153e-08
4.21325e-08
4.19368e-08
4.18961e-08
4.18886e-08
4.18861e-08
4.18871e-08
4.18875e-08
4.18892e-08
4.18843e-08
4.18841e-08
4.1886e-08
4.18863e-08
4.18871e-08
4.18869e-08
4.18888e-08
4.18873e-08
4.18852e-08
4.18853e-08
4.18841e-08
4.18834e-08
4.18854e-08
4.18893e-08
4.18872e-08
4.18882e-08
4.18857e-08
4.18845e-08
4.18834e-08
4.18835e-08
4.18851e-08
4.18854e-08
4.18839e-08
4.1883e-08
4.18826e-08
4.18845e-08
4.18852e-08
4.18963e-08
4.19384e-08
4.21349e-08
4.30194e-08
4.6781e-08
6.14486e-08
1.12412e-07
2.6364e-07
6.2271e-07
1.22359e-06
1.67313e-06
9.64643e-07
-1.37466e-06
-3.59758e-06
-3.71011e-06
-1.42738e-06
9.8147e-07
1.72416e-06
1.27051e-06
6.51321e-07
2.77441e-07
1.18506e-07
6.44492e-08
4.87528e-08
4.46897e-08
4.37286e-08
4.3514e-08
4.34689e-08
4.34606e-08
4.34576e-08
4.3459e-08
4.34593e-08
4.3461e-08
4.34559e-08
4.34559e-08
4.34579e-08
4.3458e-08
4.34589e-08
4.34587e-08
4.34604e-08
4.34589e-08
4.3457e-08
4.34571e-08
4.34556e-08
4.34549e-08
4.34566e-08
4.34609e-08
4.34586e-08
4.34599e-08
4.34574e-08
4.34562e-08
4.34551e-08
4.34553e-08
4.34567e-08
4.34567e-08
4.34556e-08
4.34544e-08
4.34539e-08
4.34559e-08
4.34569e-08
4.3469e-08
4.35157e-08
4.37309e-08
4.46936e-08
4.87541e-08
6.44501e-08
1.18503e-07
2.77444e-07
6.51323e-07
1.27051e-06
1.72416e-06
9.81468e-07
-1.42738e-06
-3.71011e-06
-3.82021e-06
-1.48012e-06
9.96328e-07
1.77382e-06
1.31739e-06
6.80453e-07
2.9169e-07
1.2483e-07
6.75447e-08
5.07573e-08
4.63734e-08
4.53272e-08
4.50918e-08
4.50419e-08
4.50326e-08
4.50291e-08
4.50309e-08
4.50311e-08
4.50328e-08
4.50274e-08
4.50277e-08
4.50297e-08
4.50294e-08
4.50306e-08
4.50305e-08
4.5032e-08
4.50305e-08
4.50287e-08
4.50288e-08
4.50271e-08
4.50265e-08
4.50278e-08
4.50323e-08
4.50299e-08
4.50315e-08
4.50291e-08
4.50279e-08
4.50268e-08
4.5027e-08
4.50282e-08
4.50281e-08
4.50273e-08
4.50257e-08
4.50252e-08
4.50273e-08
4.50286e-08
4.50417e-08
4.50934e-08
4.53293e-08
4.63771e-08
5.07586e-08
6.75456e-08
1.24827e-07
2.91694e-07
6.80455e-07
1.31739e-06
1.77382e-06
9.96327e-07
-1.48012e-06
-3.82021e-06
-3.92765e-06
-1.53281e-06
1.00913e-06
1.82197e-06
1.36415e-06
7.10083e-07
3.0639e-07
1.31396e-07
7.0738e-08
5.2794e-08
4.80654e-08
4.69267e-08
4.66684e-08
4.66131e-08
4.66028e-08
4.65986e-08
4.6601e-08
4.6601e-08
4.66027e-08
4.65971e-08
4.65976e-08
4.65996e-08
4.6599e-08
4.66004e-08
4.66004e-08
4.66019e-08
4.66002e-08
4.65985e-08
4.65987e-08
4.65968e-08
4.65962e-08
4.65971e-08
4.66018e-08
4.65993e-08
4.66014e-08
4.65989e-08
4.65978e-08
4.65966e-08
4.6597e-08
4.6598e-08
4.65975e-08
4.65971e-08
4.65951e-08
4.65948e-08
4.65967e-08
4.65984e-08
4.66127e-08
4.66701e-08
4.69286e-08
4.80688e-08
5.27952e-08
7.07388e-08
1.31394e-07
3.06394e-07
7.10086e-07
1.36415e-06
1.82198e-06
1.00913e-06
-1.53281e-06
-3.92765e-06
-4.0322e-06
-1.58536e-06
1.0198e-06
1.86848e-06
1.41069e-06
7.40184e-07
3.21545e-07
1.38212e-07
7.40333e-08
5.48635e-08
4.97647e-08
4.85254e-08
4.8242e-08
4.81807e-08
4.81693e-08
4.81645e-08
4.81673e-08
4.81673e-08
4.81689e-08
4.8163e-08
4.81638e-08
4.81657e-08
4.81648e-08
4.81664e-08
4.81666e-08
4.8168e-08
4.81661e-08
4.81646e-08
4.81647e-08
4.81628e-08
4.8162e-08
4.81627e-08
4.81675e-08
4.8165e-08
4.81675e-08
4.81652e-08
4.81639e-08
4.81627e-08
4.81632e-08
4.8164e-08
4.81632e-08
4.8163e-08
4.81608e-08
4.81607e-08
4.81624e-08
4.81645e-08
4.81801e-08
4.82437e-08
4.85273e-08
4.97679e-08
5.48644e-08
7.40341e-08
1.3821e-07
3.2155e-07
7.40187e-07
1.4107e-06
1.86849e-06
1.0198e-06
-1.58536e-06
-4.03219e-06
-4.13361e-06
-1.6377e-06
1.02827e-06
1.91323e-06
1.45693e-06
7.70733e-07
3.37159e-07
1.45287e-07
7.74352e-08
5.69668e-08
5.14706e-08
5.01219e-08
4.98111e-08
4.97429e-08
4.97303e-08
4.9725e-08
4.9728e-08
4.97279e-08
4.97296e-08
4.97233e-08
4.97244e-08
4.97262e-08
4.97253e-08
4.97269e-08
4.97273e-08
4.97287e-08
4.97265e-08
4.97252e-08
4.97253e-08
4.97232e-08
4.97223e-08
4.97228e-08
4.97278e-08
4.97253e-08
4.97281e-08
4.97259e-08
4.97247e-08
4.97232e-08
4.9724e-08
4.97244e-08
4.97233e-08
4.97234e-08
4.97212e-08
4.97212e-08
4.97227e-08
4.97251e-08
4.97424e-08
4.98127e-08
5.0124e-08
5.14735e-08
5.69674e-08
7.74358e-08
1.45286e-07
3.37164e-07
7.70736e-07
1.45694e-06
1.91323e-06
1.02827e-06
-1.63769e-06
-4.13361e-06
-4.23169e-06
-1.68973e-06
1.03448e-06
1.95607e-06
1.50278e-06
8.01696e-07
3.53236e-07
1.52628e-07
8.09486e-08
5.91049e-08
5.31823e-08
5.17147e-08
5.13738e-08
5.12983e-08
5.12841e-08
5.12785e-08
5.12814e-08
5.12813e-08
5.1283e-08
5.12764e-08
5.12777e-08
5.12794e-08
5.12786e-08
5.12802e-08
5.12807e-08
5.12821e-08
5.12796e-08
5.12786e-08
5.12784e-08
5.12763e-08
5.12754e-08
5.12759e-08
5.12808e-08
5.12785e-08
5.12813e-08
5.12793e-08
5.12781e-08
5.12764e-08
5.12773e-08
5.12776e-08
5.12763e-08
5.12765e-08
5.12743e-08
5.12745e-08
5.12757e-08
5.12786e-08
5.12976e-08
5.13754e-08
5.17172e-08
5.31849e-08
5.91054e-08
8.0949e-08
1.52628e-07
3.53241e-07
8.017e-07
1.50279e-06
1.95607e-06
1.03448e-06
-1.68973e-06
-4.23169e-06
-4.32622e-06
-1.74138e-06
1.03836e-06
1.99688e-06
1.54814e-06
8.33047e-07
3.69777e-07
1.60246e-07
8.45788e-08
6.12797e-08
5.48995e-08
5.33026e-08
5.29286e-08
5.2845e-08
5.28292e-08
5.28231e-08
5.28257e-08
5.28258e-08
5.28273e-08
5.28206e-08
5.28221e-08
5.28236e-08
5.28231e-08
5.28245e-08
5.28252e-08
5.28265e-08
5.28238e-08
5.28231e-08
5.28226e-08
5.28204e-08
5.28197e-08
5.282e-08
5.2825e-08
5.28229e-08
5.28257e-08
5.28239e-08
5.28227e-08
5.28205e-08
5.28217e-08
5.28218e-08
5.28205e-08
5.28206e-08
5.28184e-08
5.28188e-08
5.282e-08
5.28233e-08
5.28443e-08
5.29302e-08
5.33055e-08
5.49017e-08
6.128e-08
8.45788e-08
1.60246e-07
3.69783e-07
8.3305e-07
1.54815e-06
1.99689e-06
1.03836e-06
-1.74138e-06
-4.32622e-06
-4.41701e-06
-1.79256e-06
1.03988e-06
2.03556e-06
1.59293e-06
8.64748e-07
3.86786e-07
1.68149e-07
8.83314e-08
6.34927e-08
5.66216e-08
5.48843e-08
5.44741e-08
5.43815e-08
5.43636e-08
5.43572e-08
5.43595e-08
5.43598e-08
5.43611e-08
5.43544e-08
5.43557e-08
5.43573e-08
5.43571e-08
5.43583e-08
5.4359e-08
5.43603e-08
5.43575e-08
5.43571e-08
5.43562e-08
5.43539e-08
5.43535e-08
5.43537e-08
5.43589e-08
5.43569e-08
5.43596e-08
5.43579e-08
5.43568e-08
5.43543e-08
5.43555e-08
5.43554e-08
5.43542e-08
5.43541e-08
5.43521e-08
5.43525e-08
5.43537e-08
5.43577e-08
5.43808e-08
5.44756e-08
5.48876e-08
5.66236e-08
6.34932e-08
8.83311e-08
1.68149e-07
3.86791e-07
8.64752e-07
1.59294e-06
2.03556e-06
1.03988e-06
-1.79255e-06
-4.417e-06
-4.50387e-06
-1.84318e-06
1.03899e-06
2.07197e-06
1.63704e-06
8.96767e-07
4.04261e-07
1.76346e-07
9.22125e-08
6.57463e-08
5.83487e-08
5.64589e-08
5.60088e-08
5.59063e-08
5.58862e-08
5.5879e-08
5.58812e-08
5.58818e-08
5.58828e-08
5.58761e-08
5.58774e-08
5.58791e-08
5.58791e-08
5.58801e-08
5.58808e-08
5.58819e-08
5.58793e-08
5.58791e-08
5.58778e-08
5.58754e-08
5.58751e-08
5.58754e-08
5.58808e-08
5.58789e-08
5.58816e-08
5.58799e-08
5.58787e-08
5.58759e-08
5.58774e-08
5.58771e-08
5.58759e-08
5.58757e-08
5.58739e-08
5.58741e-08
5.58756e-08
5.58801e-08
5.59056e-08
5.60102e-08
5.64626e-08
5.83504e-08
6.57469e-08
9.22121e-08
1.76346e-07
4.04266e-07
8.9677e-07
1.63705e-06
2.07198e-06
1.03899e-06
-1.84318e-06
-4.50387e-06
-4.58664e-06
-1.89318e-06
1.03567e-06
2.10602e-06
1.68039e-06
9.29062e-07
4.22202e-07
1.84846e-07
9.62286e-08
6.80427e-08
6.00807e-08
5.80254e-08
5.75314e-08
5.74179e-08
5.73953e-08
5.73873e-08
5.73894e-08
5.73902e-08
5.73909e-08
5.73844e-08
5.73855e-08
5.73875e-08
5.73874e-08
5.73884e-08
5.73891e-08
5.73899e-08
5.73876e-08
5.73874e-08
5.73859e-08
5.73835e-08
5.73832e-08
5.73836e-08
5.73892e-08
5.73874e-08
5.73899e-08
5.73883e-08
5.73871e-08
5.73842e-08
5.73857e-08
5.73853e-08
5.73843e-08
5.73838e-08
5.73823e-08
5.73821e-08
5.73839e-08
5.73891e-08
5.74172e-08
5.75327e-08
5.80293e-08
6.00822e-08
6.80435e-08
9.62282e-08
1.84846e-07
4.22207e-07
9.29066e-07
1.6804e-06
2.10602e-06
1.03567e-06
-1.89317e-06
-4.58663e-06
-4.66515e-06
-1.94245e-06
1.0299e-06
2.1376e-06
1.72287e-06
9.61596e-07
4.40608e-07
1.93658e-07
1.00386e-07
7.0385e-08
6.18179e-08
5.95831e-08
5.90407e-08
5.89151e-08
5.88896e-08
5.88807e-08
5.88829e-08
5.88837e-08
5.88842e-08
5.88778e-08
5.88788e-08
5.8881e-08
5.88807e-08
5.88818e-08
5.88825e-08
5.8883e-08
5.8881e-08
5.88809e-08
5.88793e-08
5.88767e-08
5.88763e-08
5.88769e-08
5.88826e-08
5.8881e-08
5.88834e-08
5.88818e-08
5.88806e-08
5.88776e-08
5.88792e-08
5.88786e-08
5.88778e-08
5.88772e-08
5.88758e-08
5.88753e-08
5.88774e-08
5.88834e-08
5.89145e-08
5.9042e-08
5.95871e-08
6.18193e-08
7.03858e-08
1.00386e-07
1.93658e-07
4.40613e-07
9.616e-07
1.72288e-06
2.1376e-06
1.0299e-06
-1.94245e-06
-4.66514e-06
-4.73926e-06
-1.99092e-06
1.02166e-06
2.16661e-06
1.76439e-06
9.94322e-07
4.59477e-07
2.02792e-07
1.04693e-07
7.27759e-08
6.35608e-08
6.11313e-08
6.05357e-08
6.03965e-08
6.03679e-08
6.03581e-08
6.03602e-08
6.0361e-08
6.03613e-08
6.03551e-08
6.03559e-08
6.03583e-08
6.03578e-08
6.03589e-08
6.03597e-08
6.03598e-08
6.03582e-08
6.03581e-08
6.03564e-08
6.03538e-08
6.03534e-08
6.03539e-08
6.03596e-08
6.03583e-08
6.03606e-08
6.0359e-08
6.03578e-08
6.03547e-08
6.03561e-08
6.03556e-08
6.03552e-08
6.03543e-08
6.0353e-08
6.03523e-08
6.03546e-08
6.03617e-08
6.03959e-08
6.05369e-08
6.11352e-08
6.35621e-08
7.27767e-08
1.04693e-07
2.02792e-07
4.59482e-07
9.94326e-07
1.7644e-06
2.16661e-06
1.02166e-06
-1.99091e-06
-4.73925e-06
-4.80883e-06
-2.0385e-06
1.01096e-06
2.19296e-06
1.80485e-06
1.0272e-06
4.78803e-07
2.12257e-07
1.09157e-07
7.5219e-08
6.53101e-08
6.26694e-08
6.20152e-08
6.1861e-08
6.18288e-08
6.18182e-08
6.18201e-08
6.18208e-08
6.18209e-08
6.18149e-08
6.18155e-08
6.1818e-08
6.18173e-08
6.18186e-08
6.18193e-08
6.18194e-08
6.1818e-08
6.18179e-08
6.18161e-08
6.18134e-08
6.1813e-08
6.18136e-08
6.18191e-08
6.18181e-08
6.18203e-08
6.18186e-08
6.18174e-08
6.18144e-08
6.18156e-08
6.18152e-08
6.1815e-08
6.18139e-08
6.18128e-08
6.18118e-08
6.18143e-08
6.18226e-08
6.18605e-08
6.20164e-08
6.26731e-08
6.53113e-08
7.52198e-08
1.09157e-07
2.12257e-07
4.78807e-07
1.0272e-06
1.80486e-06
2.19297e-06
1.01096e-06
-2.03849e-06
-4.80882e-06
-4.87374e-06
-2.08511e-06
9.97802e-07
2.21657e-06
1.84416e-06
1.06017e-06
4.98581e-07
2.22061e-07
1.13785e-07
7.77181e-08
6.70667e-08
6.41968e-08
6.34783e-08
6.33075e-08
6.3271e-08
6.32597e-08
6.32613e-08
6.32618e-08
6.32618e-08
6.3256e-08
6.32565e-08
6.32589e-08
6.32583e-08
6.32595e-08
6.32603e-08
6.32602e-08
6.32591e-08
6.3259e-08
6.32571e-08
6.32545e-08
6.3254e-08
6.32546e-08
6.32599e-08
6.32591e-08
6.32612e-08
6.32597e-08
6.32583e-08
6.32553e-08
6.32564e-08
6.32561e-08
6.32561e-08
6.32548e-08
6.32539e-08
6.32528e-08
6.32554e-08
6.3265e-08
6.33069e-08
6.34796e-08
6.42004e-08
6.70679e-08
7.77189e-08
1.13785e-07
2.22061e-07
4.98585e-07
1.06018e-06
1.84417e-06
2.21658e-06
9.97802e-07
-2.08511e-06
-4.87374e-06
-4.9339e-06
-2.13067e-06
9.82205e-07
2.23737e-06
1.88222e-06
1.0932e-06
5.18803e-07
2.32214e-07
1.18586e-07
8.02773e-08
6.88317e-08
6.57134e-08
6.49243e-08
6.47349e-08
6.46937e-08
6.46814e-08
6.46827e-08
6.46831e-08
6.46829e-08
6.46774e-08
6.46778e-08
6.46801e-08
6.46796e-08
6.46807e-08
6.46814e-08
6.46812e-08
6.46804e-08
6.46803e-08
6.46784e-08
6.46757e-08
6.46753e-08
6.4676e-08
6.4681e-08
6.46804e-08
6.46824e-08
6.4681e-08
6.46795e-08
6.46765e-08
6.46775e-08
6.46774e-08
6.46774e-08
6.4676e-08
6.46753e-08
6.46741e-08
6.46769e-08
6.46878e-08
6.47343e-08
6.49255e-08
6.57168e-08
6.88329e-08
8.02781e-08
1.18586e-07
2.32214e-07
5.18807e-07
1.0932e-06
1.88222e-06
2.23738e-06
9.82205e-07
-2.13067e-06
-4.9339e-06
-4.9892e-06
-2.1751e-06
9.64198e-07
2.25528e-06
1.91893e-06
1.12622e-06
5.39461e-07
2.42723e-07
1.23569e-07
8.29012e-08
7.06066e-08
6.7219e-08
6.63523e-08
6.61423e-08
6.60957e-08
6.60825e-08
6.60834e-08
6.60836e-08
6.60832e-08
6.60779e-08
6.60783e-08
6.60805e-08
6.60801e-08
6.60812e-08
6.60818e-08
6.60815e-08
6.6081e-08
6.60809e-08
6.60788e-08
6.60762e-08
6.60758e-08
6.60766e-08
6.60814e-08
6.60809e-08
6.60828e-08
6.60815e-08
6.60798e-08
6.6077e-08
6.60778e-08
6.6078e-08
6.60779e-08
6.60765e-08
6.60759e-08
6.60748e-08
6.60777e-08
6.60899e-08
6.61417e-08
6.63535e-08
6.72223e-08
7.06078e-08
8.2902e-08
1.23569e-07
2.42723e-07
5.39465e-07
1.12622e-06
1.91894e-06
2.25529e-06
9.64199e-07
-2.1751e-06
-4.9892e-06
-5.03958e-06
-2.21832e-06
9.43813e-07
2.27025e-06
1.9542e-06
1.15918e-06
5.60542e-07
2.53597e-07
1.28742e-07
8.55949e-08
7.23931e-08
6.87136e-08
6.77618e-08
6.75289e-08
6.74762e-08
6.74619e-08
6.74623e-08
6.74624e-08
6.74619e-08
6.74568e-08
6.74571e-08
6.74593e-08
6.7459e-08
6.746e-08
6.74605e-08
6.74602e-08
6.74598e-08
6.74597e-08
6.74577e-08
6.7455e-08
6.74546e-08
6.74555e-08
6.746e-08
6.74596e-08
6.74615e-08
6.74602e-08
6.74585e-08