/*--------------------------------*- C++ -*----------------------------------*\
| =========                 |                                                 |
| \\      /  F ield         | foam-extend: Open Source CFD                    |
|  \\    /   O peration     | Version:     4.0                                |
|   \\  /    A nd           | Web:         http://www.foam-extend.org         |
|    \\/     M anipulation  |                                                 |
\*---------------------------------------------------------------------------*/
FoamFile
{
    version     2.0;
    format      ascii;
    class       volScalarField;
    location    "1010";
    object      cMinus;
}
// * * * * * * * * * * * * * * * * * * * * * * * * * * * * * * * * * * * * * //

dimensions      [0 0 0 0 0 0 0];

internalField   nonuniform List<scalar> 
6960
(
6.10458e-23
6.10056e-23
6.09784e-23
6.09472e-23
6.09178e-23
6.08911e-23
6.08673e-23
6.0846e-23
6.08269e-23
6.08096e-23
6.07939e-23
6.07796e-23
6.07664e-23
6.07544e-23
6.07434e-23
6.07333e-23
6.0724e-23
6.07156e-23
6.07079e-23
6.07009e-23
6.06947e-23
6.06892e-23
6.06843e-23
6.06801e-23
6.06766e-23
6.06736e-23
6.06713e-23
6.06695e-23
6.06684e-23
6.06678e-23
6.06678e-23
6.06684e-23
6.06695e-23
6.06713e-23
6.06736e-23
6.06766e-23
6.06801e-23
6.06843e-23
6.06892e-23
6.06947e-23
6.07009e-23
6.07079e-23
6.07156e-23
6.0724e-23
6.07333e-23
6.07434e-23
6.07544e-23
6.07664e-23
6.07796e-23
6.07939e-23
6.08096e-23
6.08269e-23
6.0846e-23
6.08673e-23
6.08911e-23
6.09178e-23
6.09472e-23
6.09784e-23
6.10056e-23
6.10458e-23
2.94318e-22
2.94322e-22
2.94188e-22
2.94039e-22
2.93904e-22
2.93786e-22
2.93686e-22
2.93601e-22
2.93528e-22
2.93466e-22
2.93413e-22
2.93366e-22
2.93326e-22
2.93291e-22
2.9326e-22
2.93233e-22
2.93209e-22
2.93188e-22
2.93169e-22
2.93153e-22
2.93138e-22
2.93126e-22
2.93115e-22
2.93106e-22
2.93098e-22
2.93092e-22
2.93087e-22
2.93083e-22
2.93081e-22
2.9308e-22
2.9308e-22
2.93081e-22
2.93083e-22
2.93087e-22
2.93092e-22
2.93098e-22
2.93106e-22
2.93115e-22
2.93126e-22
2.93138e-22
2.93153e-22
2.93169e-22
2.93188e-22
2.93209e-22
2.93233e-22
2.9326e-22
2.93291e-22
2.93326e-22
2.93366e-22
2.93413e-22
2.93466e-22
2.93528e-22
2.93601e-22
2.93686e-22
2.93786e-22
2.93904e-22
2.94039e-22
2.94188e-22
2.94322e-22
2.94318e-22
1.10388e-21
1.10412e-21
1.1038e-21
1.10341e-21
1.10303e-21
1.1027e-21
1.10241e-21
1.10215e-21
1.10193e-21
1.10174e-21
1.10158e-21
1.10143e-21
1.1013e-21
1.10118e-21
1.10108e-21
1.10099e-21
1.10091e-21
1.10084e-21
1.10078e-21
1.10072e-21
1.10068e-21
1.10063e-21
1.1006e-21
1.10057e-21
1.10054e-21
1.10052e-21
1.1005e-21
1.10049e-21
1.10048e-21
1.10048e-21
1.10048e-21
1.10048e-21
1.10049e-21
1.1005e-21
1.10052e-21
1.10054e-21
1.10057e-21
1.1006e-21
1.10063e-21
1.10068e-21
1.10072e-21
1.10078e-21
1.10084e-21
1.10091e-21
1.10099e-21
1.10108e-21
1.10118e-21
1.1013e-21
1.10143e-21
1.10158e-21
1.10174e-21
1.10193e-21
1.10215e-21
1.10241e-21
1.1027e-21
1.10303e-21
1.10341e-21
1.1038e-21
1.10412e-21
1.10388e-21
3.95935e-21
3.96102e-21
3.96067e-21
3.95992e-21
3.95914e-21
3.95839e-21
3.95769e-21
3.95706e-21
3.95647e-21
3.95594e-21
3.95546e-21
3.95503e-21
3.95463e-21
3.95427e-21
3.95395e-21
3.95366e-21
3.95339e-21
3.95316e-21
3.95295e-21
3.95276e-21
3.9526e-21
3.95246e-21
3.95233e-21
3.95223e-21
3.95214e-21
3.95206e-21
3.95201e-21
3.95196e-21
3.95194e-21
3.95192e-21
3.95192e-21
3.95194e-21
3.95196e-21
3.95201e-21
3.95206e-21
3.95214e-21
3.95223e-21
3.95233e-21
3.95246e-21
3.9526e-21
3.95276e-21
3.95295e-21
3.95316e-21
3.95339e-21
3.95366e-21
3.95395e-21
3.95427e-21
3.95463e-21
3.95503e-21
3.95546e-21
3.95594e-21
3.95647e-21
3.95706e-21
3.95769e-21
3.95839e-21
3.95914e-21
3.95992e-21
3.96067e-21
3.96102e-21
3.95935e-21
1.43246e-20
1.43337e-20
1.43355e-20
1.43355e-20
1.43348e-20
1.43338e-20
1.43326e-20
1.43314e-20
1.43301e-20
1.43288e-20
1.43275e-20
1.43263e-20
1.43251e-20
1.4324e-20
1.4323e-20
1.43221e-20
1.43212e-20
1.43205e-20
1.43198e-20
1.43191e-20
1.43186e-20
1.43181e-20
1.43177e-20
1.43173e-20
1.4317e-20
1.43167e-20
1.43165e-20
1.43164e-20
1.43163e-20
1.43163e-20
1.43163e-20
1.43163e-20
1.43164e-20
1.43165e-20
1.43167e-20
1.4317e-20
1.43173e-20
1.43177e-20
1.43181e-20
1.43186e-20
1.43191e-20
1.43198e-20
1.43205e-20
1.43212e-20
1.43221e-20
1.4323e-20
1.4324e-20
1.43251e-20
1.43263e-20
1.43275e-20
1.43288e-20
1.43301e-20
1.43314e-20
1.43326e-20
1.43338e-20
1.43348e-20
1.43355e-20
1.43355e-20
1.43337e-20
1.43246e-20
5.30986e-20
5.31441e-20
5.31624e-20
5.31725e-20
5.31785e-20
5.31815e-20
5.31825e-20
5.31819e-20
5.31802e-20
5.31778e-20
5.31749e-20
5.31717e-20
5.31685e-20
5.31653e-20
5.31622e-20
5.31593e-20
5.31565e-20
5.3154e-20
5.31517e-20
5.31496e-20
5.31477e-20
5.3146e-20
5.31446e-20
5.31433e-20
5.31422e-20
5.31414e-20
5.31407e-20
5.31402e-20
5.31398e-20
5.31396e-20
5.31396e-20
5.31398e-20
5.31402e-20
5.31407e-20
5.31414e-20
5.31422e-20
5.31433e-20
5.31446e-20
5.3146e-20
5.31477e-20
5.31496e-20
5.31517e-20
5.3154e-20
5.31565e-20
5.31593e-20
5.31622e-20
5.31653e-20
5.31685e-20
5.31717e-20
5.31749e-20
5.31778e-20
5.31802e-20
5.31819e-20
5.31825e-20
5.31815e-20
5.31785e-20
5.31725e-20
5.31624e-20
5.31441e-20
5.30986e-20
2.02617e-19
2.02838e-19
2.02954e-19
2.03032e-19
2.03088e-19
2.03126e-19
2.0315e-19
2.03164e-19
2.0317e-19
2.03171e-19
2.03167e-19
2.03161e-19
2.03153e-19
2.03144e-19
2.03135e-19
2.03126e-19
2.03117e-19
2.03109e-19
2.03101e-19
2.03094e-19
2.03088e-19
2.03082e-19
2.03077e-19
2.03072e-19
2.03069e-19
2.03066e-19
2.03063e-19
2.03061e-19
2.0306e-19
2.0306e-19
2.0306e-19
2.0306e-19
2.03061e-19
2.03063e-19
2.03066e-19
2.03069e-19
2.03072e-19
2.03077e-19
2.03082e-19
2.03088e-19
2.03094e-19
2.03101e-19
2.03109e-19
2.03117e-19
2.03126e-19
2.03135e-19
2.03144e-19
2.03153e-19
2.03161e-19
2.03167e-19
2.03171e-19
2.0317e-19
2.03164e-19
2.0315e-19
2.03126e-19
2.03088e-19
2.03032e-19
2.02954e-19
2.02838e-19
2.02617e-19
7.97053e-19
7.98115e-19
7.98755e-19
7.99226e-19
7.99578e-19
7.99835e-19
8.00014e-19
8.00134e-19
8.00209e-19
8.00249e-19
8.00265e-19
8.00263e-19
8.00251e-19
8.00231e-19
8.00206e-19
8.00179e-19
8.00152e-19
8.00125e-19
8.001e-19
8.00076e-19
8.00054e-19
8.00035e-19
8.00017e-19
8.00002e-19
7.99989e-19
7.99978e-19
7.9997e-19
7.99963e-19
7.99959e-19
7.99957e-19
7.99957e-19
7.99959e-19
7.99963e-19
7.9997e-19
7.99978e-19
7.99989e-19
8.00002e-19
8.00017e-19
8.00035e-19
8.00054e-19
8.00076e-19
8.001e-19
8.00125e-19
8.00152e-19
8.00179e-19
8.00206e-19
8.00231e-19
8.00251e-19
8.00263e-19
8.00265e-19
8.00249e-19
8.00209e-19
8.00134e-19
8.00014e-19
7.99835e-19
7.99578e-19
7.99226e-19
7.98755e-19
7.98115e-19
7.97053e-19
3.23357e-18
3.23868e-18
3.24204e-18
3.24462e-18
3.24661e-18
3.24809e-18
3.24917e-18
3.24992e-18
3.25044e-18
3.25076e-18
3.25095e-18
3.25105e-18
3.25107e-18
3.25105e-18
3.251e-18
3.25093e-18
3.25085e-18
3.25077e-18
3.25069e-18
3.25061e-18
3.25053e-18
3.25046e-18
3.2504e-18
3.25035e-18
3.2503e-18
3.25027e-18
3.25024e-18
3.25021e-18
3.2502e-18
3.25019e-18
3.25019e-18
3.2502e-18
3.25021e-18
3.25024e-18
3.25027e-18
3.2503e-18
3.25035e-18
3.2504e-18
3.25046e-18
3.25053e-18
3.25061e-18
3.25069e-18
3.25077e-18
3.25085e-18
3.25093e-18
3.251e-18
3.25105e-18
3.25107e-18
3.25105e-18
3.25095e-18
3.25076e-18
3.25044e-18
3.24992e-18
3.24917e-18
3.24809e-18
3.24661e-18
3.24462e-18
3.24204e-18
3.23868e-18
3.23357e-18
1.3528e-17
1.35528e-17
1.35701e-17
1.35838e-17
1.35944e-17
1.36025e-17
1.36085e-17
1.36129e-17
1.36159e-17
1.3618e-17
1.36193e-17
1.36201e-17
1.36206e-17
1.36207e-17
1.36207e-17
1.36206e-17
1.36204e-17
1.36202e-17
1.36199e-17
1.36196e-17
1.36194e-17
1.36192e-17
1.3619e-17
1.36188e-17
1.36186e-17
1.36185e-17
1.36184e-17
1.36183e-17
1.36182e-17
1.36182e-17
1.36182e-17
1.36182e-17
1.36183e-17
1.36184e-17
1.36185e-17
1.36186e-17
1.36188e-17
1.3619e-17
1.36192e-17
1.36194e-17
1.36196e-17
1.36199e-17
1.36202e-17
1.36204e-17
1.36206e-17
1.36207e-17
1.36207e-17
1.36206e-17
1.36201e-17
1.36193e-17
1.3618e-17
1.36159e-17
1.36129e-17
1.36085e-17
1.36025e-17
1.35944e-17
1.35838e-17
1.35701e-17
1.35528e-17
1.3528e-17
5.83422e-17
5.84635e-17
5.85526e-17
5.86242e-17
5.86805e-17
5.87237e-17
5.87562e-17
5.878e-17
5.87971e-17
5.88091e-17
5.88173e-17
5.88226e-17
5.88259e-17
5.88278e-17
5.88286e-17
5.88288e-17
5.88285e-17
5.8828e-17
5.88273e-17
5.88265e-17
5.88257e-17
5.88249e-17
5.88242e-17
5.88236e-17
5.8823e-17
5.88225e-17
5.88222e-17
5.88219e-17
5.88217e-17
5.88216e-17
5.88216e-17
5.88217e-17
5.88219e-17
5.88222e-17
5.88225e-17
5.8823e-17
5.88236e-17
5.88242e-17
5.88249e-17
5.88257e-17
5.88265e-17
5.88273e-17
5.8828e-17
5.88285e-17
5.88288e-17
5.88286e-17
5.88278e-17
5.88259e-17
5.88226e-17
5.88173e-17
5.88091e-17
5.87971e-17
5.878e-17
5.87562e-17
5.87237e-17
5.86805e-17
5.86242e-17
5.85526e-17
5.84635e-17
5.83422e-17
2.592e-16
2.59804e-16
2.60265e-16
2.6064e-16
2.60937e-16
2.61166e-16
2.6134e-16
2.61469e-16
2.61563e-16
2.6163e-16
2.61677e-16
2.61709e-16
2.6173e-16
2.61743e-16
2.61751e-16
2.61755e-16
2.61756e-16
2.61756e-16
2.61755e-16
2.61752e-16
2.6175e-16
2.61748e-16
2.61745e-16
2.61743e-16
2.61741e-16
2.61739e-16
2.61738e-16
2.61737e-16
2.61736e-16
2.61736e-16
2.61736e-16
2.61736e-16
2.61737e-16
2.61738e-16
2.61739e-16
2.61741e-16
2.61743e-16
2.61745e-16
2.61748e-16
2.6175e-16
2.61752e-16
2.61755e-16
2.61756e-16
2.61756e-16
2.61755e-16
2.61751e-16
2.61743e-16
2.6173e-16
2.61709e-16
2.61677e-16
2.6163e-16
2.61563e-16
2.61469e-16
2.6134e-16
2.61166e-16
2.60937e-16
2.6064e-16
2.60265e-16
2.59804e-16
2.592e-16
1.18509e-15
1.18815e-15
1.19055e-15
1.19253e-15
1.1941e-15
1.19533e-15
1.19626e-15
1.19695e-15
1.19747e-15
1.19784e-15
1.1981e-15
1.19828e-15
1.19841e-15
1.19849e-15
1.19854e-15
1.19858e-15
1.1986e-15
1.1986e-15
1.1986e-15
1.1986e-15
1.1986e-15
1.19859e-15
1.19858e-15
1.19857e-15
1.19857e-15
1.19856e-15
1.19856e-15
1.19855e-15
1.19855e-15
1.19855e-15
1.19855e-15
1.19855e-15
1.19855e-15
1.19856e-15
1.19856e-15
1.19857e-15
1.19857e-15
1.19858e-15
1.19859e-15
1.1986e-15
1.1986e-15
1.1986e-15
1.1986e-15
1.1986e-15
1.19858e-15
1.19854e-15
1.19849e-15
1.19841e-15
1.19828e-15
1.1981e-15
1.19784e-15
1.19747e-15
1.19695e-15
1.19626e-15
1.19533e-15
1.1941e-15
1.19253e-15
1.19055e-15
1.18815e-15
1.18509e-15
5.56828e-15
5.584e-15
5.5967e-15
5.60723e-15
5.61565e-15
5.62222e-15
5.62724e-15
5.63101e-15
5.6338e-15
5.63583e-15
5.6373e-15
5.63834e-15
5.63906e-15
5.63956e-15
5.63989e-15
5.64011e-15
5.64025e-15
5.64033e-15
5.64036e-15
5.64038e-15
5.64037e-15
5.64036e-15
5.64034e-15
5.64032e-15
5.6403e-15
5.64028e-15
5.64026e-15
5.64025e-15
5.64024e-15
5.64023e-15
5.64023e-15
5.64024e-15
5.64025e-15
5.64026e-15
5.64028e-15
5.6403e-15
5.64032e-15
5.64034e-15
5.64036e-15
5.64037e-15
5.64038e-15
5.64036e-15
5.64033e-15
5.64025e-15
5.64011e-15
5.63989e-15
5.63956e-15
5.63906e-15
5.63834e-15
5.6373e-15
5.63583e-15
5.6338e-15
5.63101e-15
5.62724e-15
5.62222e-15
5.61565e-15
5.60723e-15
5.5967e-15
5.584e-15
5.56828e-15
2.6837e-14
2.69192e-14
2.69872e-14
2.70439e-14
2.70894e-14
2.7125e-14
2.71523e-14
2.71729e-14
2.71881e-14
2.71994e-14
2.72075e-14
2.72134e-14
2.72175e-14
2.72204e-14
2.72224e-14
2.72238e-14
2.72246e-14
2.72252e-14
2.72256e-14
2.72257e-14
2.72258e-14
2.72258e-14
2.72258e-14
2.72258e-14
2.72257e-14
2.72256e-14
2.72256e-14
2.72255e-14
2.72255e-14
2.72255e-14
2.72255e-14
2.72255e-14
2.72255e-14
2.72256e-14
2.72256e-14
2.72257e-14
2.72258e-14
2.72258e-14
2.72258e-14
2.72258e-14
2.72257e-14
2.72256e-14
2.72252e-14
2.72246e-14
2.72238e-14
2.72224e-14
2.72204e-14
2.72175e-14
2.72134e-14
2.72075e-14
2.71994e-14
2.71881e-14
2.71729e-14
2.71523e-14
2.7125e-14
2.70894e-14
2.70439e-14
2.69872e-14
2.69192e-14
2.6837e-14
1.32361e-13
1.32798e-13
1.33167e-13
1.33475e-13
1.33724e-13
1.33918e-13
1.34068e-13
1.34181e-13
1.34265e-13
1.34328e-13
1.34373e-13
1.34406e-13
1.3443e-13
1.34446e-13
1.34458e-13
1.34466e-13
1.34472e-13
1.34475e-13
1.34478e-13
1.34479e-13
1.3448e-13
1.34481e-13
1.34481e-13
1.34481e-13
1.34481e-13
1.3448e-13
1.3448e-13
1.3448e-13
1.3448e-13
1.3448e-13
1.3448e-13
1.3448e-13
1.3448e-13
1.3448e-13
1.3448e-13
1.34481e-13
1.34481e-13
1.34481e-13
1.34481e-13
1.3448e-13
1.34479e-13
1.34478e-13
1.34475e-13
1.34472e-13
1.34466e-13
1.34458e-13
1.34446e-13
1.3443e-13
1.34406e-13
1.34373e-13
1.34328e-13
1.34265e-13
1.34181e-13
1.34068e-13
1.33918e-13
1.33724e-13
1.33475e-13
1.33167e-13
1.32798e-13
1.32361e-13
6.66076e-13
6.68427e-13
6.70445e-13
6.72142e-13
6.7351e-13
6.74583e-13
6.7541e-13
6.76036e-13
6.76505e-13
6.76852e-13
6.77107e-13
6.77292e-13
6.77425e-13
6.77521e-13
6.77589e-13
6.77637e-13
6.7767e-13
6.77693e-13
6.77708e-13
6.77718e-13
6.77725e-13
6.77729e-13
6.77731e-13
6.77732e-13
6.77733e-13
6.77733e-13
6.77732e-13
6.77732e-13
6.77732e-13
6.77732e-13
6.77732e-13
6.77732e-13
6.77732e-13
6.77732e-13
6.77733e-13
6.77733e-13
6.77732e-13
6.77731e-13
6.77729e-13
6.77725e-13
6.77718e-13
6.77708e-13
6.77693e-13
6.7767e-13
6.77637e-13
6.77589e-13
6.77521e-13
6.77425e-13
6.77292e-13
6.77107e-13
6.76852e-13
6.76505e-13
6.76036e-13
6.7541e-13
6.74583e-13
6.7351e-13
6.72142e-13
6.70445e-13
6.68427e-13
6.66076e-13
3.40771e-12
3.42049e-12
3.43162e-12
3.44101e-12
3.44859e-12
3.45454e-12
3.45914e-12
3.46263e-12
3.46524e-12
3.46719e-12
3.46861e-12
3.46966e-12
3.47041e-12
3.47096e-12
3.47135e-12
3.47163e-12
3.47183e-12
3.47196e-12
3.47206e-12
3.47212e-12
3.47217e-12
3.4722e-12
3.47221e-12
3.47223e-12
3.47223e-12
3.47223e-12
3.47224e-12
3.47224e-12
3.47224e-12
3.47224e-12
3.47224e-12
3.47224e-12
3.47224e-12
3.47224e-12
3.47223e-12
3.47223e-12
3.47223e-12
3.47221e-12
3.4722e-12
3.47217e-12
3.47212e-12
3.47206e-12
3.47196e-12
3.47183e-12
3.47163e-12
3.47135e-12
3.47096e-12
3.47041e-12
3.46966e-12
3.46861e-12
3.46719e-12
3.46524e-12
3.46263e-12
3.45914e-12
3.45454e-12
3.44859e-12
3.44101e-12
3.43162e-12
3.42049e-12
3.40771e-12
1.76483e-11
1.77182e-11
1.77798e-11
1.78319e-11
1.7874e-11
1.79072e-11
1.79328e-11
1.79522e-11
1.79668e-11
1.79777e-11
1.79857e-11
1.79916e-11
1.79959e-11
1.7999e-11
1.80012e-11
1.80029e-11
1.8004e-11
1.80048e-11
1.80054e-11
1.80058e-11
1.80061e-11
1.80063e-11
1.80064e-11
1.80065e-11
1.80065e-11
1.80065e-11
1.80066e-11
1.80066e-11
1.80066e-11
1.80066e-11
1.80066e-11
1.80066e-11
1.80066e-11
1.80066e-11
1.80065e-11
1.80065e-11
1.80065e-11
1.80064e-11
1.80063e-11
1.80061e-11
1.80058e-11
1.80054e-11
1.80048e-11
1.8004e-11
1.80029e-11
1.80012e-11
1.7999e-11
1.79959e-11
1.79916e-11
1.79857e-11
1.79777e-11
1.79668e-11
1.79522e-11
1.79328e-11
1.79072e-11
1.7874e-11
1.78319e-11
1.77798e-11
1.77182e-11
1.76483e-11
9.20507e-11
9.24331e-11
9.2774e-11
9.30627e-11
9.32963e-11
9.34803e-11
9.36224e-11
9.37306e-11
9.38121e-11
9.38728e-11
9.39176e-11
9.39506e-11
9.39747e-11
9.39923e-11
9.4005e-11
9.40141e-11
9.40207e-11
9.40255e-11
9.40288e-11
9.40312e-11
9.40329e-11
9.40341e-11
9.40349e-11
9.40354e-11
9.40357e-11
9.4036e-11
9.40361e-11
9.40362e-11
9.40363e-11
9.40363e-11
9.40363e-11
9.40363e-11
9.40362e-11
9.40361e-11
9.4036e-11
9.40357e-11
9.40354e-11
9.40349e-11
9.40341e-11
9.40329e-11
9.40312e-11
9.40288e-11
9.40255e-11
9.40207e-11
9.40141e-11
9.4005e-11
9.39923e-11
9.39747e-11
9.39506e-11
9.39176e-11
9.38728e-11
9.38121e-11
9.37306e-11
9.36224e-11
9.34803e-11
9.32963e-11
9.30627e-11
9.2774e-11
9.24331e-11
9.20507e-11
4.80661e-10
4.82743e-10
4.84616e-10
4.86203e-10
4.87488e-10
4.88501e-10
4.89285e-10
4.89882e-10
4.90332e-10
4.90667e-10
4.90916e-10
4.91099e-10
4.91233e-10
4.91331e-10
4.91403e-10
4.91454e-10
4.91492e-10
4.91519e-10
4.91538e-10
4.91552e-10
4.91562e-10
4.91569e-10
4.91574e-10
4.91577e-10
4.91579e-10
4.91581e-10
4.91582e-10
4.91583e-10
4.91583e-10
4.91583e-10
4.91583e-10
4.91583e-10
4.91583e-10
4.91582e-10
4.91581e-10
4.91579e-10
4.91577e-10
4.91574e-10
4.91569e-10
4.91562e-10
4.91552e-10
4.91538e-10
4.91519e-10
4.91492e-10
4.91454e-10
4.91403e-10
4.91331e-10
4.91233e-10
4.91099e-10
4.90916e-10
4.90667e-10
4.90332e-10
4.89882e-10
4.89285e-10
4.88501e-10
4.87488e-10
4.86203e-10
4.84616e-10
4.82743e-10
4.80661e-10
2.49539e-09
2.50659e-09
2.51673e-09
2.52534e-09
2.53231e-09
2.5378e-09
2.54206e-09
2.5453e-09
2.54775e-09
2.54957e-09
2.55093e-09
2.55193e-09
2.55266e-09
2.5532e-09
2.5536e-09
2.55388e-09
2.55409e-09
2.55424e-09
2.55435e-09
2.55443e-09
2.55448e-09
2.55452e-09
2.55455e-09
2.55457e-09
2.55459e-09
2.5546e-09
2.5546e-09
2.55461e-09
2.55461e-09
2.55461e-09
2.55461e-09
2.55461e-09
2.55461e-09
2.5546e-09
2.5546e-09
2.55459e-09
2.55457e-09
2.55455e-09
2.55452e-09
2.55448e-09
2.55443e-09
2.55435e-09
2.55424e-09
2.55409e-09
2.55388e-09
2.5536e-09
2.5532e-09
2.55266e-09
2.55193e-09
2.55093e-09
2.54957e-09
2.54775e-09
2.5453e-09
2.54206e-09
2.5378e-09
2.53231e-09
2.52534e-09
2.51673e-09
2.50659e-09
2.49539e-09
1.27792e-08
1.28382e-08
1.28919e-08
1.29375e-08
1.29744e-08
1.30035e-08
1.30261e-08
1.30433e-08
1.30563e-08
1.30661e-08
1.30733e-08
1.30786e-08
1.30825e-08
1.30854e-08
1.30875e-08
1.30891e-08
1.30902e-08
1.3091e-08
1.30916e-08
1.3092e-08
1.30924e-08
1.30926e-08
1.30927e-08
1.30928e-08
1.30929e-08
1.3093e-08
1.3093e-08
1.30931e-08
1.30931e-08
1.30931e-08
1.30931e-08
1.30931e-08
1.30931e-08
1.3093e-08
1.3093e-08
1.30929e-08
1.30928e-08
1.30927e-08
1.30926e-08
1.30924e-08
1.3092e-08
1.30916e-08
1.3091e-08
1.30902e-08
1.30891e-08
1.30875e-08
1.30854e-08
1.30825e-08
1.30786e-08
1.30733e-08
1.30661e-08
1.30563e-08
1.30433e-08
1.30261e-08
1.30035e-08
1.29744e-08
1.29375e-08
1.28919e-08
1.28382e-08
1.27792e-08
6.39826e-08
6.42844e-08
6.456e-08
6.4794e-08
6.49836e-08
6.51332e-08
6.52491e-08
6.53376e-08
6.54044e-08
6.54545e-08
6.54917e-08
6.55192e-08
6.55395e-08
6.55544e-08
6.55654e-08
6.55734e-08
6.55793e-08
6.55836e-08
6.55867e-08
6.5589e-08
6.55906e-08
6.55918e-08
6.55927e-08
6.55933e-08
6.55938e-08
6.55941e-08
6.55943e-08
6.55944e-08
6.55945e-08
6.55946e-08
6.55946e-08
6.55945e-08
6.55944e-08
6.55943e-08
6.55941e-08
6.55938e-08
6.55933e-08
6.55927e-08
6.55918e-08
6.55906e-08
6.5589e-08
6.55867e-08
6.55836e-08
6.55793e-08
6.55734e-08
6.55654e-08
6.55544e-08
6.55395e-08
6.55192e-08
6.54917e-08
6.54545e-08
6.54044e-08
6.53376e-08
6.52491e-08
6.51332e-08
6.49836e-08
6.4794e-08
6.456e-08
6.42844e-08
6.39826e-08
3.10099e-07
3.11581e-07
3.12937e-07
3.14088e-07
3.1502e-07
3.15756e-07
3.16326e-07
3.16762e-07
3.17092e-07
3.17338e-07
3.17522e-07
3.17658e-07
3.17758e-07
3.17832e-07
3.17887e-07
3.17926e-07
3.17956e-07
3.17977e-07
3.17993e-07
3.18004e-07
3.18013e-07
3.18019e-07
3.18023e-07
3.18027e-07
3.18029e-07
3.18031e-07
3.18032e-07
3.18033e-07
3.18033e-07
3.18033e-07
3.18033e-07
3.18033e-07
3.18033e-07
3.18032e-07
3.18031e-07
3.18029e-07
3.18027e-07
3.18023e-07
3.18019e-07
3.18013e-07
3.18004e-07
3.17993e-07
3.17977e-07
3.17956e-07
3.17926e-07
3.17887e-07
3.17832e-07
3.17758e-07
3.17658e-07
3.17522e-07
3.17338e-07
3.17092e-07
3.16762e-07
3.16326e-07
3.15756e-07
3.1502e-07
3.14088e-07
3.12937e-07
3.11581e-07
3.10099e-07
1.43894e-06
1.44585e-06
1.45217e-06
1.45753e-06
1.46187e-06
1.4653e-06
1.46795e-06
1.46998e-06
1.47152e-06
1.47267e-06
1.47353e-06
1.47417e-06
1.47463e-06
1.47498e-06
1.47524e-06
1.47542e-06
1.47556e-06
1.47566e-06
1.47574e-06
1.47579e-06
1.47583e-06
1.47586e-06
1.47588e-06
1.4759e-06
1.47591e-06
1.47592e-06
1.47593e-06
1.47593e-06
1.47593e-06
1.47593e-06
1.47593e-06
1.47593e-06
1.47593e-06
1.47593e-06
1.47592e-06
1.47591e-06
1.4759e-06
1.47588e-06
1.47586e-06
1.47583e-06
1.47579e-06
1.47574e-06
1.47566e-06
1.47556e-06
1.47542e-06
1.47524e-06
1.47498e-06
1.47463e-06
1.47417e-06
1.47353e-06
1.47267e-06
1.47152e-06
1.46998e-06
1.46795e-06
1.4653e-06
1.46187e-06
1.45753e-06
1.45217e-06
1.44585e-06
1.43894e-06
6.31609e-06
6.34621e-06
6.37375e-06
6.39708e-06
6.41598e-06
6.4309e-06
6.44246e-06
6.45131e-06
6.458e-06
6.46302e-06
6.46676e-06
6.46953e-06
6.47159e-06
6.4731e-06
6.47422e-06
6.47505e-06
6.47565e-06
6.4761e-06
6.47643e-06
6.47668e-06
6.47685e-06
6.47699e-06
6.47708e-06
6.47715e-06
6.4772e-06
6.47724e-06
6.47727e-06
6.47728e-06
6.47729e-06
6.4773e-06
6.4773e-06
6.47729e-06
6.47728e-06
6.47727e-06
6.47724e-06
6.4772e-06
6.47715e-06
6.47708e-06
6.47699e-06
6.47685e-06
6.47668e-06
6.47643e-06
6.4761e-06
6.47565e-06
6.47505e-06
6.47422e-06
6.4731e-06
6.47159e-06
6.46953e-06
6.46676e-06
6.46302e-06
6.458e-06
6.45131e-06
6.44246e-06
6.4309e-06
6.41598e-06
6.39708e-06
6.37375e-06
6.34621e-06
6.31609e-06
2.58816e-05
2.60028e-05
2.61133e-05
2.62068e-05
2.62826e-05
2.63423e-05
2.63887e-05
2.64241e-05
2.6451e-05
2.64711e-05
2.64861e-05
2.64973e-05
2.65055e-05
2.65116e-05
2.65162e-05
2.65195e-05
2.65219e-05
2.65238e-05
2.65251e-05
2.65261e-05
2.65268e-05
2.65274e-05
2.65278e-05
2.6528e-05
2.65283e-05
2.65284e-05
2.65285e-05
2.65286e-05
2.65286e-05
2.65287e-05
2.65287e-05
2.65286e-05
2.65286e-05
2.65285e-05
2.65284e-05
2.65283e-05
2.6528e-05
2.65278e-05
2.65274e-05
2.65268e-05
2.65261e-05
2.65251e-05
2.65238e-05
2.65219e-05
2.65195e-05
2.65162e-05
2.65116e-05
2.65055e-05
2.64973e-05
2.64861e-05
2.64711e-05
2.6451e-05
2.64241e-05
2.63887e-05
2.63423e-05
2.62826e-05
2.62068e-05
2.61133e-05
2.60028e-05
2.58816e-05
9.7598e-05
9.80402e-05
9.8442e-05
9.87814e-05
9.90561e-05
9.9273e-05
9.94411e-05
9.95698e-05
9.96672e-05
9.97403e-05
9.97949e-05
9.98355e-05
9.98656e-05
9.98878e-05
9.99043e-05
9.99165e-05
9.99255e-05
9.99321e-05
9.99371e-05
9.99407e-05
9.99434e-05
9.99454e-05
9.99469e-05
9.9948e-05
9.99488e-05
9.99493e-05
9.99497e-05
9.995e-05
9.99502e-05
9.99502e-05
9.99502e-05
9.99502e-05
9.995e-05
9.99497e-05
9.99493e-05
9.99488e-05
9.9948e-05
9.99469e-05
9.99454e-05
9.99434e-05
9.99407e-05
9.99371e-05
9.99321e-05
9.99255e-05
9.99165e-05
9.99043e-05
9.98878e-05
9.98656e-05
9.98355e-05
9.97949e-05
9.97403e-05
9.96672e-05
9.95698e-05
9.94411e-05
9.9273e-05
9.90561e-05
9.87814e-05
9.8442e-05
9.80402e-05
9.7598e-05
0.000333478
0.000334913
0.000336212
0.000337307
0.000338193
0.000338892
0.000339434
0.000339849
0.000340163
0.000340399
0.000340575
0.000340706
0.000340803
0.000340875
0.000340929
0.000340968
0.000340998
0.000341019
0.000341035
0.000341047
0.000341056
0.000341063
0.000341068
0.000341071
0.000341074
0.000341076
0.000341077
0.000341078
0.000341078
0.000341079
0.000341079
0.000341078
0.000341078
0.000341077
0.000341076
0.000341074
0.000341071
0.000341068
0.000341063
0.000341056
0.000341047
0.000341035
0.000341019
0.000340998
0.000340968
0.000340929
0.000340875
0.000340803
0.000340706
0.000340575
0.000340399
0.000340163
0.000339849
0.000339434
0.000338892
0.000338193
0.000337307
0.000336212
0.000334913
0.000333478
0.00101577
0.00101983
0.00102349
0.00102656
0.00102905
0.00103101
0.00103253
0.0010337
0.00103458
0.00103524
0.00103574
0.00103611
0.00103638
0.00103658
0.00103673
0.00103684
0.00103693
0.00103699
0.00103703
0.00103707
0.00103709
0.00103711
0.00103713
0.00103714
0.00103714
0.00103715
0.00103715
0.00103716
0.00103716
0.00103716
0.00103716
0.00103716
0.00103716
0.00103715
0.00103715
0.00103714
0.00103714
0.00103713
0.00103711
0.00103709
0.00103707
0.00103703
0.00103699
0.00103693
0.00103684
0.00103673
0.00103658
0.00103638
0.00103611
0.00103574
0.00103524
0.00103458
0.0010337
0.00103253
0.00103101
0.00102905
0.00102656
0.00102349
0.00101983
0.00101577
0.00271496
0.0027248
0.00273357
0.00274094
0.00274689
0.00275158
0.00275522
0.00275801
0.00276012
0.00276171
0.0027629
0.00276378
0.00276444
0.00276493
0.00276529
0.00276556
0.00276576
0.00276591
0.00276602
0.0027661
0.00276616
0.00276621
0.00276624
0.00276627
0.00276629
0.0027663
0.00276631
0.00276632
0.00276632
0.00276632
0.00276632
0.00276632
0.00276632
0.00276631
0.0027663
0.00276629
0.00276627
0.00276624
0.00276621
0.00276616
0.0027661
0.00276602
0.00276591
0.00276576
0.00276556
0.00276529
0.00276493
0.00276444
0.00276378
0.0027629
0.00276171
0.00276012
0.00275801
0.00275522
0.00275158
0.00274689
0.00274094
0.00273357
0.0027248
0.00271496
0.00628886
0.00630885
0.00632655
0.00634136
0.00635331
0.00636274
0.00637006
0.00637566
0.0063799
0.0063831
0.00638549
0.00638727
0.0063886
0.00638959
0.00639032
0.00639086
0.00639127
0.00639157
0.00639179
0.00639196
0.00639209
0.00639218
0.00639225
0.0063923
0.00639234
0.00639237
0.00639239
0.0063924
0.00639241
0.00639241
0.00639241
0.00639241
0.0063924
0.00639239
0.00639237
0.00639234
0.0063923
0.00639225
0.00639218
0.00639209
0.00639196
0.00639179
0.00639157
0.00639127
0.00639086
0.00639032
0.00638959
0.0063886
0.00638727
0.00638549
0.0063831
0.0063799
0.00637566
0.00637006
0.00636274
0.00635331
0.00634136
0.00632655
0.00630885
0.00628886
0.0125645
0.0125985
0.0126284
0.0126533
0.0126733
0.0126892
0.0127015
0.0127109
0.012718
0.0127234
0.0127274
0.0127304
0.0127327
0.0127343
0.0127356
0.0127365
0.0127372
0.0127377
0.0127381
0.0127384
0.0127386
0.0127387
0.0127389
0.012739
0.012739
0.0127391
0.0127391
0.0127391
0.0127391
0.0127391
0.0127391
0.0127391
0.0127391
0.0127391
0.0127391
0.012739
0.012739
0.0127389
0.0127387
0.0127386
0.0127384
0.0127381
0.0127377
0.0127372
0.0127365
0.0127356
0.0127343
0.0127327
0.0127304
0.0127274
0.0127234
0.012718
0.0127109
0.0127015
0.0126892
0.0126733
0.0126533
0.0126284
0.0125985
0.0125645
0.0217955
0.0218447
0.0218875
0.021923
0.0219517
0.0219742
0.0219918
0.0220052
0.0220154
0.0220231
0.0220289
0.0220332
0.0220364
0.0220388
0.0220406
0.0220419
0.0220429
0.0220436
0.0220442
0.0220446
0.0220449
0.0220451
0.0220453
0.0220454
0.0220455
0.0220456
0.0220457
0.0220457
0.0220457
0.0220457
0.0220457
0.0220457
0.0220457
0.0220457
0.0220456
0.0220455
0.0220454
0.0220453
0.0220451
0.0220449
0.0220446
0.0220442
0.0220436
0.0220429
0.0220419
0.0220406
0.0220388
0.0220364
0.0220332
0.0220289
0.0220231
0.0220154
0.0220052
0.0219918
0.0219742
0.0219517
0.021923
0.0218875
0.0218447
0.0217955
0.0334311
0.0334937
0.0335474
0.033592
0.0336279
0.0336562
0.0336782
0.033695
0.0337078
0.0337175
0.0337247
0.0337302
0.0337342
0.0337373
0.0337395
0.0337412
0.0337425
0.0337434
0.0337441
0.0337446
0.033745
0.0337453
0.0337456
0.0337457
0.0337459
0.0337459
0.033746
0.0337461
0.0337461
0.0337461
0.0337461
0.0337461
0.0337461
0.033746
0.0337459
0.0337459
0.0337457
0.0337456
0.0337453
0.033745
0.0337446
0.0337441
0.0337434
0.0337425
0.0337412
0.0337395
0.0337373
0.0337342
0.0337302
0.0337247
0.0337175
0.0337078
0.033695
0.0336782
0.0336562
0.0336279
0.033592
0.0335474
0.0334937
0.0334311
0.046502
0.046575
0.0466371
0.0466884
0.0467297
0.0467622
0.0467875
0.046807
0.0468217
0.0468329
0.0468413
0.0468476
0.0468523
0.0468558
0.0468584
0.0468604
0.0468619
0.046863
0.0468638
0.0468645
0.0468649
0.0468653
0.0468655
0.0468657
0.0468659
0.046866
0.0468661
0.0468661
0.0468662
0.0468662
0.0468662
0.0468662
0.0468661
0.0468661
0.046866
0.0468659
0.0468657
0.0468655
0.0468653
0.0468649
0.0468645
0.0468638
0.046863
0.0468619
0.0468604
0.0468584
0.0468558
0.0468523
0.0468476
0.0468413
0.0468329
0.0468217
0.046807
0.0467875
0.0467622
0.0467297
0.0466884
0.0466371
0.046575
0.046502
0.0601897
0.060271
0.0603394
0.0603958
0.0604412
0.060477
0.0605048
0.0605263
0.0605426
0.0605549
0.0605642
0.0605712
0.0605764
0.0605803
0.0605833
0.0605855
0.0605871
0.0605884
0.0605893
0.06059
0.0605905
0.0605909
0.0605912
0.0605915
0.0605916
0.0605918
0.0605919
0.0605919
0.060592
0.060592
0.060592
0.060592
0.0605919
0.0605919
0.0605918
0.0605916
0.0605915
0.0605912
0.0605909
0.0605905
0.06059
0.0605893
0.0605884
0.0605871
0.0605855
0.0605833
0.0605803
0.0605764
0.0605712
0.0605642
0.0605549
0.0605426
0.0605263
0.0605048
0.060477
0.0604412
0.0603958
0.0603394
0.060271
0.0601897
0.0740624
0.0741509
0.0742249
0.0742857
0.0743346
0.0743733
0.0744034
0.0744266
0.0744442
0.0744576
0.0744677
0.0744753
0.074481
0.0744853
0.0744885
0.074491
0.0744928
0.0744941
0.0744952
0.0744959
0.0744965
0.074497
0.0744973
0.0744976
0.0744978
0.0744979
0.074498
0.0744981
0.0744981
0.0744981
0.0744981
0.0744981
0.0744981
0.074498
0.0744979
0.0744978
0.0744976
0.0744973
0.074497
0.0744965
0.0744959
0.0744952
0.0744941
0.0744928
0.074491
0.0744885
0.0744853
0.074481
0.0744753
0.0744677
0.0744576
0.0744442
0.0744266
0.0744034
0.0743733
0.0743346
0.0742857
0.0742249
0.0741509
0.0740624
0.0879845
0.08808
0.0881593
0.0882244
0.0882768
0.0883182
0.0883505
0.0883754
0.0883945
0.0884089
0.0884198
0.0884281
0.0884343
0.0884389
0.0884424
0.088445
0.088447
0.0884485
0.0884497
0.0884505
0.0884512
0.0884517
0.088452
0.0884523
0.0884525
0.0884527
0.0884528
0.0884529
0.0884529
0.0884529
0.0884529
0.0884529
0.0884529
0.0884528
0.0884527
0.0884525
0.0884523
0.088452
0.0884517
0.0884512
0.0884505
0.0884497
0.0884485
0.088447
0.088445
0.0884424
0.0884389
0.0884343
0.0884281
0.0884198
0.0884089
0.0883945
0.0883754
0.0883505
0.0883182
0.0882768
0.0882244
0.0881593
0.08808
0.0879845
0.101952
0.102054
0.102139
0.102208
0.102264
0.102308
0.102343
0.10237
0.10239
0.102406
0.102417
0.102426
0.102433
0.102438
0.102442
0.102445
0.102447
0.102448
0.10245
0.102451
0.102451
0.102452
0.102452
0.102453
0.102453
0.102453
0.102453
0.102453
0.102453
0.102453
0.102453
0.102453
0.102453
0.102453
0.102453
0.102453
0.102453
0.102452
0.102452
0.102451
0.102451
0.10245
0.102448
0.102447
0.102445
0.102442
0.102438
0.102433
0.102426
0.102417
0.102406
0.10239
0.10237
0.102343
0.102308
0.102264
0.102208
0.102139
0.102054
0.101952
0.115989
0.116098
0.116188
0.116262
0.116322
0.116369
0.116406
0.116434
0.116456
0.116473
0.116486
0.116495
0.116502
0.116508
0.116512
0.116515
0.116518
0.116519
0.116521
0.116522
0.116522
0.116523
0.116524
0.116524
0.116524
0.116524
0.116524
0.116525
0.116525
0.116525
0.116525
0.116525
0.116525
0.116524
0.116524
0.116524
0.116524
0.116524
0.116523
0.116522
0.116522
0.116521
0.116519
0.116518
0.116515
0.116512
0.116508
0.116502
0.116495
0.116486
0.116473
0.116456
0.116434
0.116406
0.116369
0.116322
0.116262
0.116188
0.116098
0.115989
0.130115
0.130231
0.130327
0.130405
0.130468
0.130519
0.130558
0.130588
0.130612
0.13063
0.130643
0.130654
0.130661
0.130667
0.130672
0.130675
0.130678
0.13068
0.130681
0.130682
0.130683
0.130684
0.130684
0.130685
0.130685
0.130685
0.130685
0.130685
0.130685
0.130685
0.130685
0.130685
0.130685
0.130685
0.130685
0.130685
0.130685
0.130684
0.130684
0.130683
0.130682
0.130681
0.13068
0.130678
0.130675
0.130672
0.130667
0.130661
0.130654
0.130643
0.13063
0.130612
0.130588
0.130558
0.130519
0.130468
0.130405
0.130327
0.130231
0.130115
0.144338
0.14446
0.144562
0.144645