/*--------------------------------*- C++ -*----------------------------------*\
| =========                 |                                                 |
| \\      /  F ield         | foam-extend: Open Source CFD                    |
|  \\    /   O peration     | Version:     4.0                                |
|   \\  /    A nd           | Web:         http://www.foam-extend.org         |
|    \\/     M anipulation  |                                                 |
\*---------------------------------------------------------------------------*/
FoamFile
{
    version     2.0;
    format      ascii;
    class       volScalarField;
    location    "400";
    object      cPlus;
}
// * * * * * * * * * * * * * * * * * * * * * * * * * * * * * * * * * * * * * //

dimensions      [0 0 0 0 0 0 0];

internalField   nonuniform List<scalar> 
6960
(
0.183196
0.183108
0.183068
0.183053
0.183047
0.183045
0.183044
0.183044
0.183044
0.183044
0.183044
0.183045
0.183045
0.183045
0.183045
0.183046
0.183046
0.183046
0.183046
0.183046
0.183046
0.183046
0.183047
0.183047
0.183047
0.183047
0.183047
0.183047
0.183047
0.183047
0.183047
0.183047
0.183047
0.183047
0.183047
0.183047
0.183047
0.183047
0.183046
0.183046
0.183046
0.183046
0.183046
0.183046
0.183046
0.183045
0.183045
0.183045
0.183045
0.183044
0.183044
0.183044
0.183044
0.183044
0.183045
0.183047
0.183053
0.183068
0.183108
0.183196
0.0500421
0.0500301
0.0500236
0.050021
0.05002
0.0500197
0.0500197
0.0500198
0.0500199
0.05002
0.0500201
0.0500202
0.0500203
0.0500205
0.0500206
0.0500207
0.0500208
0.0500208
0.0500209
0.050021
0.0500211
0.0500211
0.0500212
0.0500212
0.0500213
0.0500213
0.0500213
0.0500214
0.0500214
0.0500214
0.0500214
0.0500214
0.0500214
0.0500213
0.0500213
0.0500213
0.0500212
0.0500212
0.0500211
0.0500211
0.050021
0.0500209
0.0500208
0.0500208
0.0500207
0.0500206
0.0500205
0.0500203
0.0500202
0.0500201
0.05002
0.0500199
0.0500198
0.0500197
0.0500197
0.05002
0.050021
0.0500236
0.0500301
0.0500421
0.0329295
0.0329412
0.0329452
0.0329468
0.0329474
0.0329477
0.0329479
0.032948
0.0329481
0.0329482
0.0329483
0.0329483
0.0329484
0.0329485
0.0329486
0.0329486
0.0329487
0.0329487
0.0329488
0.0329488
0.0329489
0.0329489
0.032949
0.032949
0.032949
0.032949
0.0329491
0.0329491
0.0329491
0.0329491
0.0329491
0.0329491
0.0329491
0.0329491
0.032949
0.032949
0.032949
0.032949
0.0329489
0.0329489
0.0329488
0.0329488
0.0329487
0.0329487
0.0329486
0.0329486
0.0329485
0.0329484
0.0329483
0.0329483
0.0329482
0.0329481
0.032948
0.0329479
0.0329477
0.0329474
0.0329468
0.0329452
0.0329412
0.0329295
0.0311693
0.0311867
0.0311933
0.0311959
0.0311969
0.0311973
0.0311975
0.0311977
0.0311978
0.0311979
0.0311979
0.031198
0.0311981
0.0311981
0.0311982
0.0311983
0.0311983
0.0311984
0.0311984
0.0311985
0.0311985
0.0311985
0.0311986
0.0311986
0.0311986
0.0311986
0.0311987
0.0311987
0.0311987
0.0311987
0.0311987
0.0311987
0.0311987
0.0311987
0.0311986
0.0311986
0.0311986
0.0311986
0.0311985
0.0311985
0.0311985
0.0311984
0.0311984
0.0311983
0.0311983
0.0311982
0.0311981
0.0311981
0.031198
0.0311979
0.0311979
0.0311978
0.0311977
0.0311975
0.0311973
0.0311969
0.0311959
0.0311933
0.0311867
0.0311693
0.0315828
0.031602
0.0316093
0.0316121
0.0316133
0.0316137
0.031614
0.0316141
0.0316142
0.0316143
0.0316144
0.0316145
0.0316145
0.0316146
0.0316147
0.0316147
0.0316148
0.0316149
0.0316149
0.0316149
0.031615
0.031615
0.0316151
0.0316151
0.0316151
0.0316151
0.0316151
0.0316152
0.0316152
0.0316152
0.0316152
0.0316152
0.0316152
0.0316151
0.0316151
0.0316151
0.0316151
0.0316151
0.031615
0.031615
0.0316149
0.0316149
0.0316149
0.0316148
0.0316147
0.0316147
0.0316146
0.0316145
0.0316145
0.0316144
0.0316143
0.0316142
0.0316141
0.031614
0.0316137
0.0316133
0.0316121
0.0316093
0.031602
0.0315828
0.0323665
0.0323868
0.0323945
0.0323975
0.0323987
0.0323992
0.0323994
0.0323996
0.0323997
0.0323998
0.0323999
0.0323999
0.0324
0.0324001
0.0324002
0.0324002
0.0324003
0.0324003
0.0324004
0.0324004
0.0324005
0.0324005
0.0324006
0.0324006
0.0324006
0.0324006
0.0324006
0.0324007
0.0324007
0.0324007
0.0324007
0.0324007
0.0324007
0.0324006
0.0324006
0.0324006
0.0324006
0.0324006
0.0324005
0.0324005
0.0324004
0.0324004
0.0324003
0.0324003
0.0324002
0.0324002
0.0324001
0.0324
0.0323999
0.0323999
0.0323998
0.0323997
0.0323996
0.0323994
0.0323992
0.0323987
0.0323975
0.0323945
0.0323868
0.0323665
0.0332888
0.03331
0.0333181
0.0333213
0.0333225
0.0333231
0.0333233
0.0333235
0.0333236
0.0333237
0.0333238
0.0333239
0.033324
0.0333241
0.0333241
0.0333242
0.0333243
0.0333243
0.0333244
0.0333244
0.0333245
0.0333245
0.0333245
0.0333246
0.0333246
0.0333246
0.0333246
0.0333247
0.0333247
0.0333247
0.0333247
0.0333247
0.0333247
0.0333246
0.0333246
0.0333246
0.0333246
0.0333245
0.0333245
0.0333245
0.0333244
0.0333244
0.0333243
0.0333243
0.0333242
0.0333241
0.0333241
0.033324
0.0333239
0.0333238
0.0333237
0.0333236
0.0333235
0.0333233
0.0333231
0.0333225
0.0333213
0.0333181
0.03331
0.0332888
0.0343358
0.0343582
0.0343668
0.0343701
0.0343714
0.034372
0.0343723
0.0343724
0.0343726
0.0343727
0.0343728
0.0343729
0.034373
0.0343731
0.0343731
0.0343732
0.0343733
0.0343733
0.0343734
0.0343735
0.0343735
0.0343736
0.0343736
0.0343736
0.0343737
0.0343737
0.0343737
0.0343737
0.0343737
0.0343737
0.0343737
0.0343737
0.0343737
0.0343737
0.0343737
0.0343737
0.0343736
0.0343736
0.0343736
0.0343735
0.0343735
0.0343734
0.0343733
0.0343733
0.0343732
0.0343731
0.0343731
0.034373
0.0343729
0.0343728
0.0343727
0.0343726
0.0343724
0.0343723
0.034372
0.0343714
0.0343701
0.0343668
0.0343582
0.0343358
0.0355281
0.0355519
0.035561
0.0355646
0.035566
0.0355666
0.0355669
0.0355671
0.0355672
0.0355673
0.0355674
0.0355675
0.0355676
0.0355677
0.0355678
0.0355679
0.035568
0.035568
0.0355681
0.0355681
0.0355682
0.0355682
0.0355683
0.0355683
0.0355684
0.0355684
0.0355684
0.0355684
0.0355684
0.0355684
0.0355684
0.0355684
0.0355684
0.0355684
0.0355684
0.0355684
0.0355683
0.0355683
0.0355682
0.0355682
0.0355681
0.0355681
0.035568
0.035568
0.0355679
0.0355678
0.0355677
0.0355676
0.0355675
0.0355674
0.0355673
0.0355672
0.0355671
0.0355669
0.0355666
0.035566
0.0355646
0.035561
0.0355519
0.0355281
0.0368977
0.0369232
0.0369329
0.0369367
0.0369382
0.0369389
0.0369392
0.0369394
0.0369396
0.0369397
0.0369398
0.0369399
0.03694
0.0369401
0.0369402
0.0369403
0.0369404
0.0369405
0.0369405
0.0369406
0.0369406
0.0369407
0.0369407
0.0369408
0.0369408
0.0369409
0.0369409
0.0369409
0.0369409
0.0369409
0.0369409
0.0369409
0.0369409
0.0369409
0.0369409
0.0369408
0.0369408
0.0369407
0.0369407
0.0369406
0.0369406
0.0369405
0.0369405
0.0369404
0.0369403
0.0369402
0.0369401
0.03694
0.0369399
0.0369398
0.0369397
0.0369396
0.0369394
0.0369392
0.0369389
0.0369382
0.0369367
0.0369329
0.0369232
0.0368977
0.038488
0.0385155
0.038526
0.0385302
0.0385318
0.0385325
0.0385328
0.0385331
0.0385332
0.0385334
0.0385335
0.0385336
0.0385337
0.0385339
0.038534
0.0385341
0.0385341
0.0385342
0.0385343
0.0385344
0.0385344
0.0385345
0.0385345
0.0385346
0.0385346
0.0385347
0.0385347
0.0385347
0.0385347
0.0385347
0.0385347
0.0385347
0.0385347
0.0385347
0.0385347
0.0385346
0.0385346
0.0385345
0.0385345
0.0385344
0.0385344
0.0385343
0.0385342
0.0385341
0.0385341
0.038534
0.0385339
0.0385337
0.0385336
0.0385335
0.0385334
0.0385332
0.0385331
0.0385328
0.0385325
0.0385318
0.0385302
0.038526
0.0385155
0.038488
0.0403587
0.0403887
0.0404001
0.0404046
0.0404064
0.0404072
0.0404076
0.0404078
0.040408
0.0404081
0.0404083
0.0404084
0.0404086
0.0404087
0.0404088
0.0404089
0.040409
0.0404091
0.0404092
0.0404093
0.0404093
0.0404094
0.0404095
0.0404095
0.0404096
0.0404096
0.0404096
0.0404096
0.0404097
0.0404097
0.0404097
0.0404097
0.0404096
0.0404096
0.0404096
0.0404096
0.0404095
0.0404095
0.0404094
0.0404093
0.0404093
0.0404092
0.0404091
0.040409
0.0404089
0.0404088
0.0404087
0.0404086
0.0404084
0.0404083
0.0404081
0.040408
0.0404078
0.0404076
0.0404072
0.0404064
0.0404046
0.0404001
0.0403887
0.0403587
0.0425934
0.0426265
0.0426392
0.0426442
0.0426462
0.042647
0.0426474
0.0426477
0.0426479
0.0426481
0.0426483
0.0426484
0.0426486
0.0426487
0.0426489
0.042649
0.0426491
0.0426492
0.0426493
0.0426494
0.0426495
0.0426495
0.0426496
0.0426497
0.0426497
0.0426498
0.0426498
0.0426498
0.0426498
0.0426498
0.0426498
0.0426498
0.0426498
0.0426498
0.0426498
0.0426497
0.0426497
0.0426496
0.0426495
0.0426495
0.0426494
0.0426493
0.0426492
0.0426491
0.042649
0.0426489
0.0426487
0.0426486
0.0426484
0.0426483
0.0426481
0.0426479
0.0426477
0.0426474
0.042647
0.0426462
0.0426442
0.0426392
0.0426265
0.0425934
0.0453137
0.045351
0.0453652
0.0453708
0.0453731
0.0453741
0.0453746
0.0453749
0.0453751
0.0453753
0.0453755
0.0453757
0.0453759
0.045376
0.0453762
0.0453763
0.0453765
0.0453766
0.0453767
0.0453768
0.0453769
0.045377
0.0453771
0.0453771
0.0453772
0.0453772
0.0453773
0.0453773
0.0453773
0.0453773
0.0453773
0.0453773
0.0453773
0.0453773
0.0453772
0.0453772
0.0453771
0.0453771
0.045377
0.0453769
0.0453768
0.0453767
0.0453766
0.0453765
0.0453763
0.0453762
0.045376
0.0453759
0.0453757
0.0453755
0.0453753
0.0453751
0.0453749
0.0453746
0.0453741
0.0453731
0.0453708
0.0453652
0.045351
0.0453137
0.0487015
0.0487443
0.0487607
0.0487671
0.0487697
0.0487709
0.0487715
0.0487718
0.0487721
0.0487724
0.0487726
0.0487728
0.048773
0.0487732
0.0487734
0.0487736
0.0487737
0.0487739
0.048774
0.0487741
0.0487742
0.0487743
0.0487744
0.0487745
0.0487746
0.0487746
0.0487747
0.0487747
0.0487747
0.0487748
0.0487748
0.0487747
0.0487747
0.0487747
0.0487746
0.0487746
0.0487745
0.0487744
0.0487743
0.0487742
0.0487741
0.048774
0.0487739
0.0487737
0.0487736
0.0487734
0.0487732
0.048773
0.0487728
0.0487726
0.0487724
0.0487721
0.0487718
0.0487715
0.0487709
0.0487697
0.0487671
0.0487607
0.0487443
0.0487015
0.0530343
0.0530848
0.0531042
0.0531118
0.0531149
0.0531163
0.053117
0.0531174
0.0531178
0.0531181
0.0531184
0.0531186
0.0531189
0.0531191
0.0531193
0.0531195
0.0531197
0.0531199
0.0531201
0.0531202
0.0531204
0.0531205
0.0531206
0.0531207
0.0531208
0.0531209
0.0531209
0.053121
0.053121
0.053121
0.053121
0.053121
0.053121
0.0531209
0.0531209
0.0531208
0.0531207
0.0531206
0.0531205
0.0531204
0.0531202
0.0531201
0.0531199
0.0531197
0.0531195
0.0531193
0.0531191
0.0531189
0.0531186
0.0531184
0.0531181
0.0531178
0.0531174
0.053117
0.0531163
0.0531149
0.0531118
0.0531042
0.0530848
0.0530343
0.0587347
0.058796
0.0588197
0.0588291
0.0588329
0.0588345
0.0588354
0.058836
0.0588364
0.0588368
0.0588371
0.0588375
0.0588378
0.0588381
0.0588384
0.0588386
0.0588389
0.0588391
0.0588393
0.0588395
0.0588397
0.0588398
0.05884
0.0588401
0.0588402
0.0588403
0.0588404
0.0588404
0.0588405
0.0588405
0.0588405
0.0588405
0.0588404
0.0588404
0.0588403
0.0588402
0.0588401
0.05884
0.0588398
0.0588397
0.0588395
0.0588393
0.0588391
0.0588389
0.0588386
0.0588384
0.0588381
0.0588378
0.0588375
0.0588371
0.0588368
0.0588364
0.058836
0.0588354
0.0588345
0.0588329
0.0588291
0.0588197
0.058796
0.0587347
0.0664137
0.0664906
0.0665204
0.0665323
0.0665371
0.0665392
0.0665403
0.066541
0.0665416
0.0665421
0.0665425
0.0665429
0.0665433
0.0665437
0.0665441
0.0665444
0.0665447
0.066545
0.0665453
0.0665456
0.0665458
0.066546
0.0665462
0.0665463
0.0665465
0.0665466
0.0665467
0.0665467
0.0665468
0.0665468
0.0665468
0.0665468
0.0665467
0.0665467
0.0665466
0.0665465
0.0665463
0.0665462
0.066546
0.0665458
0.0665456
0.0665453
0.066545
0.0665447
0.0665444
0.0665441
0.0665437
0.0665433
0.0665429
0.0665425
0.0665421
0.0665416
0.066541
0.0665403
0.0665392
0.0665371
0.0665323
0.0665204
0.0664906
0.0664137
0.0768566
0.076955
0.0769933
0.0770086
0.0770148
0.0770175
0.0770189
0.0770199
0.0770206
0.0770213
0.0770218
0.0770224
0.0770229
0.0770234
0.0770239
0.0770243
0.0770247
0.0770251
0.0770255
0.0770258
0.0770261
0.0770264
0.0770266
0.0770268
0.077027
0.0770271
0.0770273
0.0770274
0.0770274
0.0770274
0.0770274
0.0770274
0.0770274
0.0770273
0.0770271
0.077027
0.0770268
0.0770266
0.0770264
0.0770261
0.0770258
0.0770255
0.0770251
0.0770247
0.0770243
0.0770239
0.0770234
0.0770229
0.0770224
0.0770218
0.0770213
0.0770206
0.0770199
0.0770189
0.0770175
0.0770148
0.0770086
0.0769933
0.076955
0.0768566
0.0908724
0.0909985
0.091048
0.0910677
0.0910757
0.0910792
0.0910811
0.0910823
0.0910832
0.091084
0.0910848
0.0910855
0.0910862
0.0910868
0.0910874
0.091088
0.0910885
0.091089
0.0910895
0.0910899
0.0910903
0.0910906
0.0910909
0.0910912
0.0910914
0.0910916
0.0910917
0.0910919
0.0910919
0.091092
0.091092
0.0910919
0.0910919
0.0910917
0.0910916
0.0910914
0.0910912
0.0910909
0.0910906
0.0910903
0.0910899
0.0910895
0.091089
0.0910885
0.091088
0.0910874
0.0910868
0.0910862
0.0910855
0.0910848
0.091084
0.0910832
0.0910823
0.0910811
0.0910792
0.0910757
0.0910677
0.091048
0.0909985
0.0908724
0.108997
0.109156
0.109218
0.109243
0.109253
0.109258
0.10926
0.109262
0.109263
0.109264
0.109265
0.109266
0.109266
0.109267
0.109268
0.109269
0.109269
0.10927
0.10927
0.109271
0.109271
0.109272
0.109272
0.109273
0.109273
0.109273
0.109273
0.109273
0.109273
0.109274
0.109274
0.109273
0.109273
0.109273
0.109273
0.109273
0.109273
0.109272
0.109272
0.109271
0.109271
0.10927
0.10927
0.109269
0.109269
0.109268
0.109267
0.109266
0.109266
0.109265
0.109264
0.109263
0.109262
0.10926
0.109258
0.109253
0.109243
0.109218
0.109156
0.108997
0.1312
0.131393
0.131469
0.131499
0.131512
0.131517
0.13152
0.131522
0.131523
0.131524
0.131525
0.131527
0.131527
0.131528
0.131529
0.13153
0.131531
0.131532
0.131532
0.131533
0.131533
0.131534
0.131534
0.131535
0.131535
0.131535
0.131535
0.131536
0.131536
0.131536
0.131536
0.131536
0.131536
0.131535
0.131535
0.131535
0.131535
0.131534
0.131534
0.131533
0.131533
0.131532
0.131532
0.131531
0.13153
0.131529
0.131528
0.131527
0.131527
0.131525
0.131524
0.131523
0.131522
0.13152
0.131517
0.131512
0.131499
0.131469
0.131393
0.1312
0.156829
0.157054
0.157143
0.157179
0.157194
0.1572
0.157203
0.157205
0.157207
0.157208
0.15721
0.157211
0.157212
0.157213
0.157214
0.157215
0.157215
0.157216
0.157217
0.157218
0.157218
0.157219
0.157219
0.15722
0.15722
0.15722
0.157221
0.157221
0.157221
0.157221
0.157221
0.157221
0.157221
0.157221
0.15722
0.15722
0.15722
0.157219
0.157219
0.157218
0.157218
0.157217
0.157216
0.157215
0.157215
0.157214
0.157213
0.157212
0.157211
0.15721
0.157208
0.157207
0.157205
0.157203
0.1572
0.157194
0.157179
0.157143
0.157054
0.156829
0.184862
0.185115
0.185216
0.185257
0.185274
0.185281
0.185285
0.185287
0.185289
0.18529
0.185291
0.185293
0.185294
0.185295
0.185296
0.185297
0.185298
0.185298
0.185299
0.1853
0.1853
0.185301
0.185302
0.185302
0.185302
0.185303
0.185303
0.185303
0.185303
0.185303
0.185303
0.185303
0.185303
0.185303
0.185303
0.185302
0.185302
0.185302
0.185301
0.1853
0.1853
0.185299
0.185298
0.185298
0.185297
0.185296
0.185295
0.185294
0.185293
0.185291
0.18529
0.185289
0.185287
0.185285
0.185281
0.185274
0.185257
0.185216
0.185115
0.184862
0.214265
0.214542
0.214654
0.214699
0.214718
0.214726
0.21473
0.214732
0.214734
0.214735
0.214737
0.214738
0.214739
0.21474
0.214741
0.214742
0.214743
0.214744
0.214745
0.214745
0.214746
0.214747
0.214747
0.214748
0.214748
0.214748
0.214749
0.214749
0.214749
0.214749
0.214749
0.214749
0.214749
0.214749
0.214748
0.214748
0.214748
0.214747
0.214747
0.214746
0.214745
0.214745
0.214744
0.214743
0.214742
0.214741
0.21474
0.214739
0.214738
0.214737
0.214735
0.214734
0.214732
0.21473
0.214726
0.214718
0.214699
0.214654
0.214542
0.214265
0.244229
0.244525
0.244647
0.244696
0.244716
0.244725
0.24473
0.244732
0.244734
0.244735
0.244737
0.244738
0.244739
0.24474
0.244741
0.244742
0.244743
0.244744
0.244745
0.244745
0.244746
0.244747
0.244747
0.244748
0.244748
0.244748
0.244749
0.244749
0.244749
0.244749
0.244749
0.244749
0.244749
0.244749
0.244748
0.244748
0.244748
0.244747
0.244747
0.244746
0.244745
0.244745
0.244744
0.244743
0.244742
0.244741
0.24474
0.244739
0.244738
0.244737
0.244735
0.244734
0.244732
0.24473
0.244725
0.244716
0.244696
0.244647
0.244525
0.244229
0.274217
0.27453
0.27466
0.274713
0.274735
0.274745
0.274749
0.274752
0.274754
0.274755
0.274757
0.274758
0.274759
0.27476
0.274761
0.274762
0.274763
0.274764
0.274764
0.274765
0.274766
0.274766
0.274767
0.274767
0.274768
0.274768
0.274768
0.274769
0.274769
0.274769
0.274769
0.274769
0.274769
0.274768
0.274768
0.274768
0.274767
0.274767
0.274766
0.274766
0.274765
0.274764
0.274764
0.274763
0.274762
0.274761
0.27476
0.274759
0.274758
0.274757
0.274755
0.274754
0.274752
0.274749
0.274745
0.274735
0.274713
0.27466
0.27453
0.274217
0.303906
0.304234
0.304371
0.304429
0.304452
0.304462
0.304467
0.30447
0.304472
0.304473
0.304475
0.304476
0.304477
0.304478
0.304479
0.30448
0.304481
0.304482
0.304482
0.304483
0.304484
0.304484
0.304485
0.304485
0.304486
0.304486
0.304486
0.304486
0.304487
0.304487
0.304487
0.304487
0.304486
0.304486
0.304486
0.304486
0.304485
0.304485
0.304484
0.304484
0.304483
0.304482
0.304482
0.304481
0.30448
0.304479
0.304478
0.304477
0.304476
0.304475
0.304473
0.304472
0.30447
0.304467
0.304462
0.304452
0.304429
0.304371
0.304234
0.303906
0.33311
0.33345
0.333595
0.333656
0.333681
0.333692
0.333697
0.3337
0.333702
0.333704
0.333705
0.333706
0.333707
0.333708
0.333709
0.33371
0.333711
0.333712
0.333713
0.333713
0.333714
0.333714
0.333715
0.333715
0.333716
0.333716
0.333716
0.333716
0.333717
0.333717
0.333717
0.333717
0.333716
0.333716
0.333716
0.333716
0.333715
0.333715
0.333714
0.333714
0.333713
0.333713
0.333712
0.333711
0.33371
0.333709
0.333708
0.333707
0.333706
0.333705
0.333704
0.333702
0.3337
0.333697
0.333692
0.333681
0.333656
0.333595
0.33345
0.33311
0.361718
0.36207
0.362222
0.362286
0.362313
0.362324
0.36233
0.362333
0.362335
0.362336
0.362337
0.362339
0.36234
0.362341
0.362342
0.362342
0.362343
0.362344
0.362345
0.362345
0.362346
0.362347
0.362347
0.362347
0.362348
0.362348
0.362348
0.362349
0.362349
0.362349
0.362349
0.362349
0.362349
0.362348
0.362348
0.362348
0.362347
0.362347
0.362347
0.362346
0.362345
0.362345
0.362344
0.362343
0.362342
0.362342
0.362341
0.36234
0.362339
0.362337
0.362336
0.362335
0.362333
0.36233
0.362324
0.362313
0.362286
0.362222
0.36207
0.361718
0.389663
0.390024
0.390182
0.39025
0.390278
0.390291
0.390297
0.3903
0.390302
0.390303
0.390304
0.390305
0.390306
0.390307
0.390308
0.390309
0.39031
0.390311
0.390311
0.390312
0.390313
0.390313
0.390314
0.390314
0.390314
0.390315
0.390315
0.390315
0.390315
0.390315
0.390315
0.390315
0.390315
0.390315
0.390315
0.390314
0.390314
0.390314
0.390313
0.390313
0.390312
0.390311
0.390311
0.39031
0.390309
0.390308
0.390307
0.390306
0.390305
0.390304
0.390303
0.390302
0.3903
0.390297
0.390291
0.390278
0.39025
0.390182
0.390024
0.389663
0.4169
0.417269
0.417433
0.417504
0.417534
0.417548
0.417554
0.417557
0.417559
0.41756
0.417562
0.417563
0.417564
0.417565
0.417565
0.417566
0.417567
0.417568
0.417568
0.417569
0.41757
0.41757
0.41757
0.417571
0.417571
0.417571
0.417572
0.417572
0.417572
0.417572
0.417572
0.417572
0.417572
0.417572
0.417571
0.417571
0.417571
0.41757
0.41757
0.41757
0.417569
0.417568
0.417568
0.417567
0.417566
0.417565
0.417565
0.417564
0.417563
0.417562
0.41756
0.417559
0.417557
0.417554
0.417548
0.417534
0.417504
0.417433
0.417269
0.4169
0.443399
0.443775
0.443945
0.444019
0.444051
0.444065
0.444072
0.444075
0.444077
0.444078
0.44408
0.444081
0.444082
0.444082
0.444083
0.444084
0.444085
0.444085
0.444086
0.444087
0.444087
0.444088
0.444088
0.444088
0.444089
0.444089
0.444089
0.444089
0.44409
0.44409
0.44409
0.44409
0.444089
0.444089
0.444089
0.444089
0.444088
0.444088
0.444088
0.444087
0.444087
0.444086
0.444085
0.444085
0.444084
0.444083
0.444082
0.444082
0.444081
0.44408
0.444078
0.444077
0.444075
0.444072
0.444065
0.444051
0.444019
0.443945
0.443775
0.443399
0.469141
0.469522
0.469697
0.469775
0.469809
0.469823
0.46983
0.469834
0.469836
0.469837
0.469838
0.469839
0.46984
0.469841
0.469842
0.469843
0.469843
0.469844
0.469845
0.469845
0.469846
0.469846
0.469847
0.469847
0.469847
0.469847
0.469848
0.469848
0.469848
0.469848
0.469848
0.469848
0.469848
0.469848
0.469847
0.469847
0.469847
0.469847
0.469846
0.469846
0.469845
0.469845
0.469844
0.469843
0.469843
0.469842
0.469841
0.46984
0.469839
0.469838
0.469837
0.469836
0.469834
0.46983
0.469823
0.469809
0.469775
0.469697
0.469522
0.469141
0.494112
0.494497
0.494677
0.494758
0.494794
0.494809
0.494816
0.49482
0.494822
0.494823
0.494825
0.494826
0.494826
0.494827
0.494828
0.494829
0.494829
0.49483
0.494831
0.494831
0.494832
0.494832
0.494832
0.494833
0.494833
0.494833
0.494833
0.494834
0.494834
0.494834
0.494834
0.494834
0.494834
0.494833
0.494833
0.494833
0.494833
0.494832
0.494832
0.494832
0.494831
0.494831
0.49483
0.494829
0.494829
0.494828
0.494827
0.494826
0.494826
0.494825
0.494823
0.494822
0.49482
0.494816
0.494809
0.494794
0.494758
0.494677
0.494497
0.494112
0.518305
0.518692
0.518877
0.518961
0.518998
0.519014
0.519022
0.519026
0.519028
0.519029
0.51903
0.519031
0.519032
0.519033
0.519034
0.519034
0.519035
0.519035
0.519036
0.519037
0.519037
0.519037
0.519038
0.519038
0.519038
0.519039
0.519039
0.519039
0.519039
0.519039
0.519039
0.519039
0.519039
0.519039
0.519039
0.519038
0.519038
0.519038
0.519037
0.519037
0.519037
0.519036
0.519035
0.519035
0.519034
0.519034
0.519033
0.519032
0.519031
0.51903
0.519029
0.519028
0.519026
0.519022
0.519014
0.518998
0.518961
0.518877
0.518692
0.518305
0.541714
0.542103
0.542292
0.542378
0.542417
0.542435
0.542443
0.542447
0.542449
0.54245
0.542451
0.542452
0.542453
0.542454
0.542455
0.542455
0.542456
0.542456
0.542457
0.542457
0.542458
0.542458
0.542459
0.542459
0.542459
0.542459
0.542459
0.54246
0.54246
0.54246
0.54246
0.54246
0.54246
0.542459
0.542459
0.542459
0.542459
0.542459
0.542458
0.542458
0.542457
0.542457
0.542456
0.542456
0.542455
0.542455
0.542454
0.542453
0.542452
0.542451
0.54245
0.542449
0.542447
0.542443
0.542435
0.542417
0.542378
0.542292
0.542103
0.541714
0.564339
0.564729
0.564921
0.565011
0.565052
0.56507
0.565078
0.565083
0.565085
0.565086
0.565087
0.565088
0.565089
0.56509
0.56509
0.565091
0.565091
0.565092
0.565092
0.565093
0.565093
0.565094
0.565094
0.565094
0.565095
0.565095
0.565095
0.565095
0.565095
0.565095
0.565095
0.565095
0.565095
0.565095
0.565095
0.565095
0.565094
0.565094
0.565094
0.565093
0.565093
0.565092
0.565092
0.565091
0.565091
0.56509
0.56509
0.565089
0.565088
0.565087
0.565086
0.565085
0.565083
0.565078
0.56507
0.565052
0.565011
0.564921
0.564729
0.564339
0.586183
0.586573
0.586768
0.58686
0.586903
0.586922
0.586931
0.586935
0.586938
0.586939
0.58694
0.586941
0.586942
0.586942
0.586943
0.586943
0.586944
0.586944
0.586945
0.586945
0.586946
0.586946
0.586946
0.586947
0.586947
0.586947
0.586947
0.586947
0.586947
0.586947
0.586947
0.586947
0.586947
0.586947
0.586947
0.586947
0.586947
0.586946
0.586946
0.586946
0.586945
0.586945
0.586944
0.586944
0.586943
0.586943
0.586942
0.586942
0.586941
0.58694
0.586939
0.586938
0.586935
0.586931
0.586922
0.586903
0.58686
0.586768
0.586573
0.586183
0.60725
0.607638
0.607836
0.607931
0.607975
0.607995
0.608005
0.608009
0.608012
0.608013
0.608014
0.608015
0.608016
0.608016
0.608017
0.608017
0.608018
0.608018
0.608019
0.608019
0.608019
0.60802
0.60802
0.60802
0.608021
0.608021
0.608021
0.608021
0.608021
0.608021
0.608021
0.608021
0.608021
0.608021
0.608021
0.608021
0.60802
0.60802
0.60802
0.608019
0.608019
0.608019
0.608018
0.608018
0.608017
0.608017
0.608016
0.608016
0.608015
0.608014
0.608013
0.608012
0.608009
0.608005
0.607995
0.607975
0.607931
0.607836
0.607638
0.60725
0.627546
0.627932
0.628132
0.62823
0.628275
0.628297
0.628306
0.628311
0.628314
0.628315
0.628316
0.628317
0.628318
0.628318
0.628319
0.628319
0.62832
0.62832
0.628321
0.628321
0.628321
0.628322
0.628322
0.628322
0.628322
0.628322
0.628323
0.628323
0.628323
0.628323
0.628323
0.628323
0.628323
0.628323
0.628322
0.628322
0.628322
0.628322
0.628322
0.628321
0.628321
0.628321
0.62832
0.62832
0.628319
0.628319
0.628318
0.628318
0.628317
0.628316
0.628315
0.628314
0.628311
0.628306
0.628297
0.628275
0.62823
0.628132
0.627932
0.627546
0.647081
0.647463
0.647665
0.647764
0.647812
0.647834
0.647845
0.64785
0.647852
0.647854
0.647855
0.647855
0.647856
0.647857
0.647857
0.647858
0.647858
0.647858
0.647859
0.647859
0.647859
0.64786
0.64786
0.64786
0.64786
0.64786
0.647861
0.647861
0.647861
0.647861
0.647861
0.647861
0.647861
0.647861
0.64786
0.64786
0.64786
0.64786
0.64786
0.647859
0.647859
0.647859
0.647858
0.647858
0.647858
0.647857
0.647857
0.647856
0.647855
0.647855
0.647854
0.647852
0.64785
0.647845
0.647834
0.647812
0.647764
0.647665
0.647463
0.647081
0.665862
0.666241
0.666444
0.666546
0.666595
0.666618
0.666629
0.666634
0.666637
0.666639
0.66664
0.66664
0.666641
0.666641
0.666642
0.666642
0.666643
0.666643
0.666643
0.666644
0.666644
0.666644
0.666644
0.666645
0.666645
0.666645
0.666645
0.666645
0.666645
0.666645
0.666645
0.666645
0.666645
0.666645
0.666645
0.666645
0.666645
0.666644
0.666644
0.666644
0.666644
0.666643
0.666643
0.666643
0.666642
0.666642
0.666641
0.666641
0.66664
0.66664
0.666639
0.666637
0.666634
0.666629
0.666618
0.666595
0.666546
0.666444
0.666241
0.665862
0.683903
0.684278
0.684481
0.684585
0.684635
0.68466
0.684671
0.684677
0.68468
0.684681
0.684682
0.684683
0.684683
0.684684
0.684684
0.684685
0.684685
0.684685
0.684686
0.684686
0.684686
0.684686
0.684687
0.684687
0.684687
0.684687
0.684687
0.684687
0.684687
0.684687
0.684687
0.684687
0.684687
0.684687
0.684687
0.684687
0.684687
0.684687
0.684686
0.684686
0.684686
0.684686
0.684685
0.684685
0.684685
0.684684
0.684684
0.684683
0.684683
0.684682
0.684681
0.68468
0.684677
0.684671
0.68466
0.684635
0.684585
0.684481
0.684278
0.683903
0.701216
0.701585
0.701789
0.701894
0.701946
0.701971
0.701984
0.701989
0.701992
0.701994
0.701995
0.701996
0.701996
0.701997
0.701997
0.701997
0.701998
0.701998
0.701998
0.701998
0.701999
0.701999
0.701999
0.701999
0.701999
0.702
0.702
0.702
0.702
0.702
0.702
0.702
0.702
0.702
0.702
0.701999
0.701999
0.701999
0.701999
0.701999
0.701998
0.701998
0.701998
0.701998
0.701997
0.701997
0.701997
0.701996
0.701996
0.701995
0.701994
0.701992
0.701989
0.701984
0.701971
0.701946
0.701894
0.701789
0.701585
0.701216
0.717814
0.718177
0.718381
0.718488
0.718541
0.718567
0.71858
0.718586
0.718589
0.718591
0.718592
0.718593
0.718593
0.718594
0.718594
0.718594
0.718594
0.718595
0.718595
0.718595
0.718595
0.718596
0.718596
0.718596
0.718596
0.718596
0.718596
0.718596
0.718596
0.718596
0.718596
0.718596
0.718596
0.718596
0.718596
0.718596
0.718596
0.718596
0.718596
0.718595
0.718595
0.718595
0.718595
0.718594
0.718594
0.718594
0.718594
0.718593
0.718593
0.718592
0.718591
0.718589
0.718586
0.71858
0.718567
0.718541
0.718488
0.718381
0.718177
0.717814
0.733712
0.734069
0.734272
0.73438
0.734435
0.734462
0.734475
0.734482
0.734485
0.734487
0.734488
0.734488
0.734489
0.734489
0.73449
0.73449
0.73449
0.73449
0.73449
0.734491
0.734491
0.734491
0.734491
0.734491
0.734491
0.734492
0.734492
0.734492
0.734492
0.734492
0.734492
0.734492
0.734492
0.734492
0.734492
0.734491
0.734491
0.734491
0.734491
0.734491
0.734491
0.73449
0.73449
0.73449
0.73449
0.73449
0.734489
0.734489
0.734488
0.734488
0.734487
0.734485
0.734482
0.734475
0.734462
0.734435
0.73438
0.734272
0.734069
0.733712
0.748925
0.749275
0.749477
0.749586
0.749642
0.749671
0.749685
0.749692
0.749695
0.749697
0.749698
0.749698
0.749699
0.749699
0.749699
0.7497
0.7497
0.7497
0.7497
0.7497
0.7497
0.749701
0.749701
0.749701
0.749701
0.749701
0.749701
0.749701
0.749701
0.749701
0.749701
0.749701
0.749701
0.749701
0.749701
0.749701
0.749701
0.749701
0.749701
0.7497
0.7497
0.7497
0.7497
0.7497
0.7497
0.749699
0.749699
0.749699
0.749698
0.749698
0.749697
0.749695
0.749692
0.749685
0.749671
0.749642
0.749586
0.749477
0.749275
0.748925
0.76347
0.763812
0.764013
0.764123
0.76418
0.76421
0.764224
0.764231
0.764235
0.764237
0.764238
0.764239
0.764239
0.764239
0.764239
0.76424
0.76424
0.76424
0.76424
0.76424
0.76424
0.764241
0.764241
0.764241
0.764241
0.764241
0.764241
0.764241
0.764241
0.764241
0.764241
0.764241
0.764241
0.764241
0.764241
0.764241
0.764241
0.764241
0.764241
0.76424
0.76424
0.76424
0.76424
0.76424
0.76424
0.764239
0.764239
0.764239
0.764239
0.764238
0.764237
0.764235
0.764231
0.764224
0.76421
0.76418
0.764123
0.764013
0.763812
0.76347
0.777362
0.777697
0.777896
0.778007
0.778065
0.778096
0.778111
0.778118
0.778122
0.778124
0.778125
0.778126
0.778126
0.778126
0.778127
0.778127
0.778127
0.778127
0.778127
0.778127
0.778127
0.778127
0.778128
0.778128
0.778128
0.778128
0.778128
0.778128
0.778128
0.778128
0.778128
0.778128
0.778128
0.778128
0.778128
0.778128
0.778128
0.778128
0.778127
0.778127
0.778127
0.778127
0.778127
0.778127
0.778127
0.778127
0.778126
0.778126
0.778126
0.778125
0.778124
0.778122
0.778118
0.778111
0.778096
0.778065
0.778007
0.777896
0.777697
0.777362
0.79062
0.790947
0.791144
0.791255
0.791315
0.791346
0.791362
0.79137
0.791374
0.791376
0.791377
0.791377
0.791378
0.791378
0.791378
0.791378
0.791378
0.791378
0.791378
0.791379
0.791379
0.791379
0.791379
0.791379
0.791379
0.791379
0.791379
0.791379
0.791379
0.791379
0.791379
0.791379
0.791379
0.791379
0.791379
0.791379
0.791379
0.791379
0.791379
0.791379
0.791379
0.791378
0.791378
0.791378
0.791378
0.791378
0.791378
0.791378
0.791377
0.791377
0.791376
0.791374
0.79137
0.791362
0.791346
0.791315
0.791255
0.791144
0.790947
0.79062
0.803261
0.80358
0.803774
0.803885
0.803946
0.803978
0.803994
0.804003
0.804007
0.804009
0.80401
0.804011
0.804011
0.804011
0.804011
0.804011
0.804012
0.804012
0.804012
0.804012
0.804012
0.804012
0.804012
0.804012
0.804012
0.804012
0.804012
0.804012
0.804012
0.804012
0.804012
0.804012
0.804012
0.804012
0.804012
0.804012
0.804012
0.804012
0.804012
0.804012
0.804012
0.804012
0.804012
0.804012
0.804011
0.804011
0.804011
0.804011
0.804011
0.80401
0.804009
0.804007
0.804003
0.803994
0.803978
0.803946
0.803885
0.803774
0.80358
0.803261
0.815303
0.815613
0.815805
0.815916
0.815977
0.81601
0.816027
0.816036
0.81604
0.816043
0.816044
0.816044
0.816044
0.816045
0.816045
0.816045
0.816045
0.816045
0.816045
0.816045
0.816045
0.816045
0.816045
0.816045
0.816045
0.816045
0.816045
0.816045
0.816045
0.816045
0.816045
0.816045