/*--------------------------------*- C++ -*----------------------------------*\
| =========                 |                                                 |
| \\      /  F ield         | foam-extend: Open Source CFD                    |
|  \\    /   O peration     | Version:     4.0                                |
|   \\  /    A nd           | Web:         http://www.foam-extend.org         |
|    \\/     M anipulation  |                                                 |
\*---------------------------------------------------------------------------*/
FoamFile
{
    version     2.0;
    format      ascii;
    class       volScalarField;
    location    "1620";
    object      cPlus;
}
// * * * * * * * * * * * * * * * * * * * * * * * * * * * * * * * * * * * * * //

dimensions      [0 0 0 0 0 0 0];

internalField   nonuniform List<scalar> 
6960
(
0.273563
0.273528
0.273493
0.273462
0.273438
0.273419
0.273404
0.273393
0.273384
0.273378
0.273373
0.27337
0.273367
0.273365
0.273364
0.273363
0.273362
0.273361
0.273361
0.27336
0.27336
0.27336
0.27336
0.273359
0.273359
0.273359
0.273359
0.273359
0.273359
0.273359
0.273359
0.273359
0.273359
0.273359
0.273359
0.273359
0.273359
0.27336
0.27336
0.27336
0.27336
0.273361
0.273361
0.273362
0.273363
0.273364
0.273365
0.273367
0.27337
0.273373
0.273378
0.273384
0.273393
0.273404
0.273419
0.273438
0.273462
0.273493
0.273528
0.273563
0.0749275
0.07491
0.0748914
0.0748754
0.0748625
0.0748524
0.0748447
0.0748388
0.0748344
0.074831
0.0748286
0.0748267
0.0748253
0.0748243
0.0748235
0.0748229
0.0748224
0.0748221
0.0748218
0.0748216
0.0748214
0.0748213
0.0748212
0.0748211
0.0748211
0.074821
0.074821
0.074821
0.074821
0.074821
0.074821
0.074821
0.074821
0.074821
0.074821
0.0748211
0.0748211
0.0748212
0.0748213
0.0748214
0.0748216
0.0748218
0.0748221
0.0748224
0.0748229
0.0748235
0.0748243
0.0748253
0.0748267
0.0748286
0.074831
0.0748344
0.0748388
0.0748447
0.0748524
0.0748625
0.0748754
0.0748914
0.07491
0.0749275
0.0271613
0.0271557
0.0271493
0.0271437
0.0271391
0.0271356
0.0271328
0.0271307
0.0271291
0.0271279
0.027127
0.0271264
0.0271259
0.0271255
0.0271252
0.027125
0.0271248
0.0271247
0.0271246
0.0271245
0.0271244
0.0271244
0.0271244
0.0271243
0.0271243
0.0271243
0.0271243
0.0271243
0.0271243
0.0271243
0.0271243
0.0271243
0.0271243
0.0271243
0.0271243
0.0271243
0.0271243
0.0271244
0.0271244
0.0271244
0.0271245
0.0271246
0.0271247
0.0271248
0.027125
0.0271252
0.0271255
0.0271259
0.0271264
0.027127
0.0271279
0.0271291
0.0271307
0.0271328
0.0271356
0.0271391
0.0271437
0.0271493
0.0271557
0.0271613
0.014465
0.0144653
0.0144648
0.0144643
0.0144638
0.0144634
0.0144631
0.0144628
0.0144626
0.0144625
0.0144624
0.0144623
0.0144622
0.0144621
0.0144621
0.0144621
0.014462
0.014462
0.014462
0.014462
0.014462
0.014462
0.014462
0.014462
0.014462
0.014462
0.0144619
0.0144619
0.0144619
0.0144619
0.0144619
0.0144619
0.0144619
0.0144619
0.014462
0.014462
0.014462
0.014462
0.014462
0.014462
0.014462
0.014462
0.014462
0.014462
0.0144621
0.0144621
0.0144621
0.0144622
0.0144623
0.0144624
0.0144625
0.0144626
0.0144628
0.0144631
0.0144634
0.0144638
0.0144643
0.0144648
0.0144653
0.014465
0.011128
0.0111308
0.0111327
0.0111343
0.0111354
0.0111363
0.011137
0.0111375
0.0111379
0.0111382
0.0111384
0.0111385
0.0111386
0.0111387
0.0111388
0.0111388
0.0111388
0.0111389
0.0111389
0.0111389
0.0111389
0.0111389
0.0111389
0.0111389
0.0111389
0.0111389
0.0111389
0.0111389
0.0111389
0.0111389
0.0111389
0.0111389
0.0111389
0.0111389
0.0111389
0.0111389
0.0111389
0.0111389
0.0111389
0.0111389
0.0111389
0.0111389
0.0111389
0.0111388
0.0111388
0.0111388
0.0111387
0.0111386
0.0111385
0.0111384
0.0111382
0.0111379
0.0111375
0.011137
0.0111363
0.0111354
0.0111343
0.0111327
0.0111308
0.011128
0.0103311
0.0103347
0.0103376
0.0103398
0.0103416
0.010343
0.0103441
0.0103449
0.0103454
0.0103459
0.0103462
0.0103464
0.0103466
0.0103467
0.0103468
0.0103469
0.0103469
0.010347
0.010347
0.010347
0.010347
0.0103471
0.0103471
0.0103471
0.0103471
0.0103471
0.0103471
0.0103471
0.0103471
0.0103471
0.0103471
0.0103471
0.0103471
0.0103471
0.0103471
0.0103471
0.0103471
0.0103471
0.0103471
0.010347
0.010347
0.010347
0.010347
0.0103469
0.0103469
0.0103468
0.0103467
0.0103466
0.0103464
0.0103462
0.0103459
0.0103454
0.0103449
0.0103441
0.010343
0.0103416
0.0103398
0.0103376
0.0103347
0.0103311
0.0102138
0.0102178
0.010221
0.0102236
0.0102256
0.0102271
0.0102283
0.0102292
0.0102299
0.0102304
0.0102307
0.010231
0.0102312
0.0102313
0.0102314
0.0102315
0.0102316
0.0102316
0.0102317
0.0102317
0.0102317
0.0102317
0.0102317
0.0102317
0.0102317
0.0102318
0.0102318
0.0102318
0.0102318
0.0102318
0.0102318
0.0102318
0.0102318
0.0102318
0.0102318
0.0102317
0.0102317
0.0102317
0.0102317
0.0102317
0.0102317
0.0102317
0.0102316
0.0102316
0.0102315
0.0102314
0.0102313
0.0102312
0.010231
0.0102307
0.0102304
0.0102299
0.0102292
0.0102283
0.0102271
0.0102256
0.0102236
0.010221
0.0102178
0.0102138
0.0102777
0.0102819
0.0102852
0.0102879
0.01029
0.0102917
0.0102929
0.0102938
0.0102945
0.010295
0.0102954
0.0102957
0.0102959
0.0102961
0.0102962
0.0102963
0.0102963
0.0102964
0.0102964
0.0102964
0.0102965
0.0102965
0.0102965
0.0102965
0.0102965
0.0102965
0.0102965
0.0102965
0.0102965
0.0102965
0.0102965
0.0102965
0.0102965
0.0102965
0.0102965
0.0102965
0.0102965
0.0102965
0.0102965
0.0102965
0.0102964
0.0102964
0.0102964
0.0102963
0.0102963
0.0102962
0.0102961
0.0102959
0.0102957
0.0102954
0.010295
0.0102945
0.0102938
0.0102929
0.0102917
0.01029
0.0102879
0.0102852
0.0102819
0.0102777
0.0103936
0.0103978
0.0104013
0.0104041
0.0104062
0.0104079
0.0104092
0.0104102
0.0104109
0.0104114
0.0104118
0.0104121
0.0104123
0.0104125
0.0104126
0.0104127
0.0104127
0.0104128
0.0104128
0.0104128
0.0104129
0.0104129
0.0104129
0.0104129
0.0104129
0.0104129
0.0104129
0.0104129
0.0104129
0.0104129
0.0104129
0.0104129
0.0104129
0.0104129
0.0104129
0.0104129
0.0104129
0.0104129
0.0104129
0.0104129
0.0104128
0.0104128
0.0104128
0.0104127
0.0104127
0.0104126
0.0104125
0.0104123
0.0104121
0.0104118
0.0104114
0.0104109
0.0104102
0.0104092
0.0104079
0.0104062
0.0104041
0.0104013
0.0103978
0.0103936
0.0105296
0.0105339
0.0105375
0.0105403
0.0105425
0.0105443
0.0105456
0.0105466
0.0105473
0.0105478
0.0105482
0.0105485
0.0105487
0.0105489
0.010549
0.0105491
0.0105492
0.0105492
0.0105493
0.0105493
0.0105493
0.0105493
0.0105494
0.0105494
0.0105494
0.0105494
0.0105494
0.0105494
0.0105494
0.0105494
0.0105494
0.0105494
0.0105494
0.0105494
0.0105494
0.0105494
0.0105494
0.0105494
0.0105493
0.0105493
0.0105493
0.0105493
0.0105492
0.0105492
0.0105491
0.010549
0.0105489
0.0105487
0.0105485
0.0105482
0.0105478
0.0105473
0.0105466
0.0105456
0.0105443
0.0105425
0.0105403
0.0105375
0.0105339
0.0105296
0.0106788
0.0106832
0.0106868
0.0106898
0.010692
0.0106938
0.0106951
0.0106962
0.0106969
0.0106975
0.0106979
0.0106982
0.0106984
0.0106986
0.0106987
0.0106988
0.0106989
0.0106989
0.0106989
0.010699
0.010699
0.010699
0.010699
0.010699
0.0106991
0.0106991
0.0106991
0.0106991
0.0106991
0.0106991
0.0106991
0.0106991
0.0106991
0.0106991
0.0106991
0.0106991
0.010699
0.010699
0.010699
0.010699
0.010699
0.0106989
0.0106989
0.0106989
0.0106988
0.0106987
0.0106986
0.0106984
0.0106982
0.0106979
0.0106975
0.0106969
0.0106962
0.0106951
0.0106938
0.010692
0.0106898
0.0106868
0.0106832
0.0106788
0.0108405
0.0108451
0.0108488
0.0108517
0.0108541
0.0108559
0.0108573
0.0108583
0.0108591
0.0108597
0.0108601
0.0108604
0.0108606
0.0108608
0.0108609
0.010861
0.0108611
0.0108611
0.0108612
0.0108612
0.0108612
0.0108613
0.0108613
0.0108613
0.0108613
0.0108613
0.0108613
0.0108613
0.0108613
0.0108613
0.0108613
0.0108613
0.0108613
0.0108613
0.0108613
0.0108613
0.0108613
0.0108613
0.0108613
0.0108612
0.0108612
0.0108612
0.0108611
0.0108611
0.010861
0.0108609
0.0108608
0.0108606
0.0108604
0.0108601
0.0108597
0.0108591
0.0108583
0.0108573
0.0108559
0.0108541
0.0108517
0.0108488
0.0108451
0.0108405
0.0110157
0.0110204
0.0110242
0.0110273
0.0110297
0.0110316
0.011033
0.011034
0.0110348
0.0110354
0.0110358
0.0110362
0.0110364
0.0110366
0.0110367
0.0110368
0.0110369
0.0110369
0.011037
0.011037
0.011037
0.0110371
0.0110371
0.0110371
0.0110371
0.0110371
0.0110371
0.0110371
0.0110371
0.0110371
0.0110371
0.0110371
0.0110371
0.0110371
0.0110371
0.0110371
0.0110371
0.0110371
0.0110371
0.011037
0.011037
0.011037
0.0110369
0.0110369
0.0110368
0.0110367
0.0110366
0.0110364
0.0110362
0.0110358
0.0110354
0.0110348
0.011034
0.011033
0.0110316
0.0110297
0.0110273
0.0110242
0.0110204
0.0110157
0.011206
0.0112108
0.0112147
0.0112179
0.0112204
0.0112223
0.0112237
0.0112248
0.0112257
0.0112263
0.0112267
0.011227
0.0112273
0.0112275
0.0112276
0.0112277
0.0112278
0.0112278
0.0112279
0.0112279
0.0112279
0.011228
0.011228
0.011228
0.011228
0.011228
0.011228
0.011228
0.011228
0.011228
0.011228
0.011228
0.011228
0.011228
0.011228
0.011228
0.011228
0.011228
0.011228
0.0112279
0.0112279
0.0112279
0.0112278
0.0112278
0.0112277
0.0112276
0.0112275
0.0112273
0.011227
0.0112267
0.0112263
0.0112257
0.0112248
0.0112237
0.0112223
0.0112204
0.0112179
0.0112147
0.0112108
0.011206
0.0114132
0.0114182
0.0114222
0.0114255
0.011428
0.01143
0.0114315
0.0114326
0.0114335
0.0114341
0.0114346
0.0114349
0.0114352
0.0114354
0.0114355
0.0114356
0.0114357
0.0114357
0.0114358
0.0114358
0.0114358
0.0114359
0.0114359
0.0114359
0.0114359
0.0114359
0.0114359
0.0114359
0.0114359
0.0114359
0.0114359
0.0114359
0.0114359
0.0114359
0.0114359
0.0114359
0.0114359
0.0114359
0.0114359
0.0114358
0.0114358
0.0114358
0.0114357
0.0114357
0.0114356
0.0114355
0.0114354
0.0114352
0.0114349
0.0114346
0.0114341
0.0114335
0.0114326
0.0114315
0.01143
0.011428
0.0114255
0.0114222
0.0114182
0.0114132
0.0116396
0.0116448
0.0116489
0.0116523
0.011655
0.011657
0.0116586
0.0116597
0.0116606
0.0116612
0.0116617
0.0116621
0.0116623
0.0116625
0.0116627
0.0116628
0.0116629
0.0116629
0.011663
0.011663
0.011663
0.0116631
0.0116631
0.0116631
0.0116631
0.0116631
0.0116631
0.0116631
0.0116631
0.0116631
0.0116631
0.0116631
0.0116631
0.0116631
0.0116631
0.0116631
0.0116631
0.0116631
0.0116631
0.011663
0.011663
0.011663
0.0116629
0.0116629
0.0116628
0.0116627
0.0116625
0.0116623
0.0116621
0.0116617
0.0116612
0.0116606
0.0116597
0.0116586
0.011657
0.011655
0.0116523
0.0116489
0.0116448
0.0116396
0.0118879
0.0118933
0.0118976
0.0119011
0.0119039
0.011906
0.0119076
0.0119088
0.0119097
0.0119104
0.0119109
0.0119113
0.0119115
0.0119117
0.0119119
0.011912
0.0119121
0.0119122
0.0119122
0.0119122
0.0119123
0.0119123
0.0119123
0.0119123
0.0119123
0.0119123
0.0119124
0.0119124
0.0119124
0.0119124
0.0119124
0.0119124
0.0119124
0.0119124
0.0119123
0.0119123
0.0119123
0.0119123
0.0119123
0.0119123
0.0119122
0.0119122
0.0119122
0.0119121
0.011912
0.0119119
0.0119117
0.0119115
0.0119113
0.0119109
0.0119104
0.0119097
0.0119088
0.0119076
0.011906
0.0119039
0.0119011
0.0118976
0.0118933
0.0118879
0.0121615
0.0121671
0.0121716
0.0121752
0.0121781
0.0121803
0.012182
0.0121833
0.0121842
0.0121849
0.0121854
0.0121858
0.0121861
0.0121863
0.0121865
0.0121866
0.0121867
0.0121867
0.0121868
0.0121868
0.0121868
0.0121869
0.0121869
0.0121869
0.0121869
0.0121869
0.0121869
0.0121869
0.0121869
0.0121869
0.0121869
0.0121869
0.0121869
0.0121869
0.0121869
0.0121869
0.0121869
0.0121869
0.0121869
0.0121868
0.0121868
0.0121868
0.0121867
0.0121867
0.0121866
0.0121865
0.0121863
0.0121861
0.0121858
0.0121854
0.0121849
0.0121842
0.0121833
0.012182
0.0121803
0.0121781
0.0121752
0.0121716
0.0121671
0.0121615
0.0124643
0.0124701
0.0124749
0.0124787
0.0124816
0.0124839
0.0124857
0.012487
0.012488
0.0124887
0.0124893
0.0124897
0.01249
0.0124902
0.0124904
0.0124905
0.0124906
0.0124906
0.0124907
0.0124907
0.0124908
0.0124908
0.0124908
0.0124908
0.0124908
0.0124908
0.0124909
0.0124909
0.0124909
0.0124909
0.0124909
0.0124909
0.0124909
0.0124909
0.0124908
0.0124908
0.0124908
0.0124908
0.0124908
0.0124908
0.0124907
0.0124907
0.0124906
0.0124906
0.0124905
0.0124904
0.0124902
0.01249
0.0124897
0.0124893
0.0124887
0.012488
0.012487
0.0124857
0.0124839
0.0124816
0.0124787
0.0124749
0.0124701
0.0124643
0.0128013
0.0128074
0.0128123
0.0128163
0.0128194
0.0128219
0.0128237
0.0128251
0.0128261
0.0128269
0.0128275
0.0128279
0.0128282
0.0128284
0.0128286
0.0128287
0.0128288
0.0128289
0.012829
0.012829
0.012829
0.0128291
0.0128291
0.0128291
0.0128291
0.0128291
0.0128291
0.0128291
0.0128291
0.0128291
0.0128291
0.0128291
0.0128291
0.0128291
0.0128291
0.0128291
0.0128291
0.0128291
0.0128291
0.012829
0.012829
0.012829
0.0128289
0.0128288
0.0128287
0.0128286
0.0128284
0.0128282
0.0128279
0.0128275
0.0128269
0.0128261
0.0128251
0.0128237
0.0128219
0.0128194
0.0128163
0.0128123
0.0128074
0.0128013
0.0131785
0.013185
0.0131902
0.0131944
0.0131977
0.0132002
0.0132022
0.0132036
0.0132047
0.0132055
0.0132061
0.0132066
0.0132069
0.0132072
0.0132073
0.0132075
0.0132076
0.0132077
0.0132077
0.0132078
0.0132078
0.0132078
0.0132078
0.0132079
0.0132079
0.0132079
0.0132079
0.0132079
0.0132079
0.0132079
0.0132079
0.0132079
0.0132079
0.0132079
0.0132079
0.0132079
0.0132079
0.0132078
0.0132078
0.0132078
0.0132078
0.0132077
0.0132077
0.0132076
0.0132075
0.0132073
0.0132072
0.0132069
0.0132066
0.0132061
0.0132055
0.0132047
0.0132036
0.0132022
0.0132002
0.0131977
0.0131944
0.0131902
0.013185
0.0131785
0.0136039
0.0136107
0.0136162
0.0136207
0.0136242
0.0136269
0.0136289
0.0136305
0.0136316
0.0136325
0.0136331
0.0136336
0.013634
0.0136342
0.0136344
0.0136346
0.0136347
0.0136347
0.0136348
0.0136349
0.0136349
0.0136349
0.0136349
0.013635
0.013635
0.013635
0.013635
0.013635
0.013635
0.013635
0.013635
0.013635
0.013635
0.013635
0.013635
0.013635
0.013635
0.0136349
0.0136349
0.0136349
0.0136349
0.0136348
0.0136347
0.0136347
0.0136346
0.0136344
0.0136342
0.013634
0.0136336
0.0136331
0.0136325
0.0136316
0.0136305
0.0136289
0.0136269
0.0136242
0.0136207
0.0136162
0.0136107
0.0136039
0.0140873
0.0140946
0.0141005
0.0141052
0.014109
0.0141119
0.0141141
0.0141157
0.0141169
0.0141179
0.0141185
0.014119
0.0141194
0.0141197
0.0141199
0.01412
0.0141202
0.0141203
0.0141203
0.0141204
0.0141204
0.0141204
0.0141205
0.0141205
0.0141205
0.0141205
0.0141205
0.0141205
0.0141205
0.0141205
0.0141205
0.0141205
0.0141205
0.0141205
0.0141205
0.0141205
0.0141205
0.0141205
0.0141204
0.0141204
0.0141204
0.0141203
0.0141203
0.0141202
0.01412
0.0141199
0.0141197
0.0141194
0.014119
0.0141185
0.0141179
0.0141169
0.0141157
0.0141141
0.0141119
0.014109
0.0141052
0.0141005
0.0140946
0.0140873
0.0146419
0.0146498
0.0146561
0.0146612
0.0146652
0.0146683
0.0146707
0.0146724
0.0146738
0.0146748
0.0146755
0.014676
0.0146764
0.0146767
0.0146769
0.0146771
0.0146772
0.0146773
0.0146774
0.0146775
0.0146775
0.0146775
0.0146776
0.0146776
0.0146776
0.0146776
0.0146776
0.0146776
0.0146776
0.0146776
0.0146776
0.0146776
0.0146776
0.0146776
0.0146776
0.0146776
0.0146776
0.0146776
0.0146775
0.0146775
0.0146775
0.0146774
0.0146773
0.0146772
0.0146771
0.0146769
0.0146767
0.0146764
0.014676
0.0146755
0.0146748
0.0146738
0.0146724
0.0146707
0.0146683
0.0146652
0.0146612
0.0146561
0.0146498
0.0146419
0.0152851
0.0152937
0.0153005
0.015306
0.0153104
0.0153138
0.0153163
0.0153183
0.0153197
0.0153208
0.0153216
0.0153221
0.0153226
0.0153229
0.0153231
0.0153233
0.0153235
0.0153236
0.0153236
0.0153237
0.0153237
0.0153238
0.0153238
0.0153238
0.0153238
0.0153239
0.0153239
0.0153239
0.0153239
0.0153239
0.0153239
0.0153239
0.0153239
0.0153239
0.0153239
0.0153238
0.0153238
0.0153238
0.0153238
0.0153237
0.0153237
0.0153236
0.0153236
0.0153235
0.0153233
0.0153231
0.0153229
0.0153226
0.0153221
0.0153216
0.0153208
0.0153197
0.0153183
0.0153163
0.0153138
0.0153104
0.015306
0.0153005
0.0152937
0.0152851
0.0160408
0.0160502
0.0160577
0.0160637
0.0160685
0.0160722
0.016075
0.0160772
0.0160787
0.0160799
0.0160808
0.0160814
0.0160819
0.0160823
0.0160825
0.0160827
0.0160829
0.016083
0.0160831
0.0160831
0.0160832
0.0160832
0.0160833
0.0160833
0.0160833
0.0160833
0.0160833
0.0160833
0.0160833
0.0160833
0.0160833
0.0160833
0.0160833
0.0160833
0.0160833
0.0160833
0.0160833
0.0160833
0.0160832
0.0160832
0.0160831
0.0160831
0.016083
0.0160829
0.0160827
0.0160825
0.0160823
0.0160819
0.0160814
0.0160808
0.0160799
0.0160787
0.0160772
0.016075
0.0160722
0.0160685
0.0160637
0.0160577
0.0160502
0.0160408
0.0169424
0.0169528
0.0169612
0.0169679
0.0169732
0.0169773
0.0169805
0.0169828
0.0169846
0.0169859
0.0169869
0.0169876
0.0169881
0.0169885
0.0169888
0.0169891
0.0169892
0.0169893
0.0169894
0.0169895
0.0169896
0.0169896
0.0169896
0.0169897
0.0169897
0.0169897
0.0169897
0.0169897
0.0169897
0.0169897
0.0169897
0.0169897
0.0169897
0.0169897
0.0169897
0.0169897
0.0169897
0.0169896
0.0169896
0.0169896
0.0169895
0.0169894
0.0169893
0.0169892
0.0169891
0.0169888
0.0169885
0.0169881
0.0169876
0.0169869
0.0169859
0.0169846
0.0169828
0.0169805
0.0169773
0.0169732
0.0169679
0.0169612
0.0169528
0.0169424
0.0180381
0.0180499
0.0180594
0.018067
0.018073
0.0180777
0.0180813
0.0180839
0.0180859
0.0180874
0.0180885
0.0180894
0.01809
0.0180904
0.0180907
0.018091
0.0180912
0.0180913
0.0180914
0.0180915
0.0180916
0.0180916
0.0180917
0.0180917
0.0180917
0.0180917
0.0180917
0.0180917
0.0180918
0.0180918
0.0180918
0.0180918
0.0180917
0.0180917
0.0180917
0.0180917
0.0180917
0.0180917
0.0180916
0.0180916
0.0180915
0.0180914
0.0180913
0.0180912
0.018091
0.0180907
0.0180904
0.01809
0.0180894
0.0180885
0.0180874
0.0180859
0.0180839
0.0180813
0.0180777
0.018073
0.018067
0.0180594
0.0180499
0.0180381
0.0193996
0.0194131
0.0194241
0.0194329
0.0194399
0.0194453
0.0194495
0.0194526
0.0194549
0.0194566
0.0194579
0.0194588
0.0194595
0.0194601
0.0194604
0.0194607
0.019461
0.0194611
0.0194612
0.0194613
0.0194614
0.0194615
0.0194615
0.0194615
0.0194616
0.0194616
0.0194616
0.0194616
0.0194616
0.0194616
0.0194616
0.0194616
0.0194616
0.0194616
0.0194616
0.0194616
0.0194615
0.0194615
0.0194615
0.0194614
0.0194613
0.0194612
0.0194611
0.019461
0.0194607
0.0194604
0.0194601
0.0194595
0.0194588
0.0194579
0.0194566
0.0194549
0.0194526
0.0194495
0.0194453
0.0194399
0.0194329
0.0194241
0.0194131
0.0193996
0.0211344
0.0211504
0.0211635
0.021174
0.0211823
0.0211888
0.0211937
0.0211974
0.0212002
0.0212022
0.0212037
0.0212049
0.0212057
0.0212063
0.0212068
0.0212071
0.0212074
0.0212076
0.0212077
0.0212079
0.0212079
0.021208
0.0212081
0.0212081
0.0212081
0.0212081
0.0212082
0.0212082
0.0212082
0.0212082
0.0212082
0.0212082
0.0212082
0.0212082
0.0212081
0.0212081
0.0212081
0.0212081
0.021208
0.0212079
0.0212079
0.0212077
0.0212076
0.0212074
0.0212071
0.0212068
0.0212063
0.0212057
0.0212049
0.0212037
0.0212022
0.0212002
0.0211974
0.0211937
0.0211888
0.0211823
0.021174
0.0211635
0.0211504
0.0211344
0.0234043
0.0234238
0.0234398
0.0234527
0.0234629
0.0234708
0.0234769
0.0234814
0.0234848
0.0234873
0.0234892
0.0234906
0.0234916
0.0234924
0.0234929
0.0234934
0.0234937
0.0234939
0.0234941
0.0234942
0.0234944
0.0234944
0.0234945
0.0234945
0.0234946
0.0234946
0.0234946
0.0234946
0.0234947
0.0234947
0.0234947
0.0234947
0.0234946
0.0234946
0.0234946
0.0234946
0.0234945
0.0234945
0.0234944
0.0234944
0.0234942
0.0234941
0.0234939
0.0234937
0.0234934
0.0234929
0.0234924
0.0234916
0.0234906
0.0234892
0.0234873
0.0234848
0.0234814
0.0234769
0.0234708
0.0234629
0.0234527
0.0234398
0.0234238
0.0234043
0.0264414
0.0264659
0.026486
0.0265023
0.0265152
0.0265251
0.0265327
0.0265385
0.0265428
0.026546
0.0265483
0.0265501
0.0265514
0.0265523
0.0265531
0.0265536
0.026554
0.0265543
0.0265545
0.0265547
0.0265548
0.0265549
0.026555
0.0265551
0.0265551
0.0265552
0.0265552
0.0265552
0.0265552
0.0265552
0.0265552
0.0265552
0.0265552
0.0265552
0.0265552
0.0265551
0.0265551
0.026555
0.0265549
0.0265548
0.0265547
0.0265545
0.0265543
0.026554
0.0265536
0.0265531
0.0265523
0.0265514
0.0265501
0.0265483
0.026546
0.0265428
0.0265385
0.0265327
0.0265251
0.0265152
0.0265023
0.026486
0.0264659
0.0264414
0.0305481
0.0305794
0.0306052
0.0306261
0.0306426
0.0306555
0.0306653
0.0306726
0.0306782
0.0306823
0.0306853
0.0306876
0.0306892
0.0306905
0.0306914
0.0306921
0.0306926
0.030693
0.0306933
0.0306935
0.0306937
0.0306938
0.0306939
0.030694
0.0306941
0.0306941
0.0306941
0.0306942
0.0306942
0.0306942
0.0306942
0.0306942
0.0306942
0.0306941
0.0306941
0.0306941
0.030694
0.0306939
0.0306938
0.0306937
0.0306935
0.0306933
0.030693
0.0306926
0.0306921
0.0306914
0.0306905
0.0306892
0.0306876
0.0306853
0.0306823
0.0306782
0.0306726
0.0306653
0.0306555
0.0306426
0.0306261
0.0306052
0.0305794
0.0305481
0.0360547
0.0360949
0.0361281
0.036155
0.0361763
0.0361928
0.0362054
0.0362149
0.0362221
0.0362274
0.0362313
0.0362342
0.0362363
0.0362379
0.0362391
0.03624
0.0362407
0.0362412
0.0362416
0.0362419
0.0362421
0.0362423
0.0362424
0.0362425
0.0362426
0.0362426
0.0362427
0.0362427
0.0362427
0.0362427
0.0362427
0.0362427
0.0362427
0.0362427
0.0362426
0.0362426
0.0362425
0.0362424
0.0362423
0.0362421
0.0362419
0.0362416
0.0362412
0.0362407
0.03624
0.0362391
0.0362379
0.0362363
0.0362342
0.0362313
0.0362274
0.0362221
0.0362149
0.0362054
0.0361928
0.0361763
0.036155
0.0361281
0.0360949
0.0360547
0.0432251
0.0432759
0.0433178
0.0433518
0.0433788
0.0433996
0.0434156
0.0434276
0.0434367
0.0434434
0.0434484
0.0434521
0.0434548
0.0434568
0.0434583
0.0434595
0.0434603
0.043461
0.0434615
0.0434618
0.0434621
0.0434623
0.0434625
0.0434626
0.0434627
0.0434628
0.0434629
0.0434629
0.0434629
0.0434629
0.0434629
0.0434629
0.0434629
0.0434629
0.0434628
0.0434627
0.0434626
0.0434625
0.0434623
0.0434621
0.0434618
0.0434615
0.043461
0.0434603
0.0434595
0.0434583
0.0434568
0.0434548
0.0434521
0.0434484
0.0434434
0.0434367
0.0434276
0.0434156
0.0433996
0.0433788
0.0433518
0.0433178
0.0432759
0.0432251
0.0521457
0.0522081
0.0522594
0.052301
0.052334
0.0523596
0.0523791
0.0523939
0.052405
0.0524132
0.0524194
0.0524239
0.0524273
0.0524298
0.0524317
0.0524331
0.0524341
0.0524349
0.0524355
0.052436
0.0524364
0.0524366
0.0524368
0.052437
0.0524371
0.0524372
0.0524373
0.0524373
0.0524374
0.0524374
0.0524374
0.0524374
0.0524373
0.0524373
0.0524372
0.0524371
0.052437
0.0524368
0.0524366
0.0524364
0.052436
0.0524355
0.0524349
0.0524341
0.0524331
0.0524317
0.0524298
0.0524273
0.0524239
0.0524194
0.0524132
0.052405
0.0523939
0.0523791
0.0523596
0.052334
0.052301
0.0522594
0.0522081
0.0521457
0.0626775
0.0627513
0.062812
0.0628611
0.0629
0.0629302
0.0629533
0.0629707
0.0629839
0.0629936
0.0630009
0.0630063
0.0630103
0.0630133
0.0630156
0.0630172
0.0630185
0.0630194
0.0630202
0.0630207
0.0630211
0.0630215
0.0630217
0.0630219
0.0630221
0.0630222
0.0630222
0.0630223
0.0630223
0.0630224
0.0630224
0.0630223
0.0630223
0.0630222
0.0630222
0.0630221
0.0630219
0.0630217
0.0630215
0.0630211
0.0630207
0.0630202
0.0630194
0.0630185
0.0630172
0.0630156
0.0630133
0.0630103
0.0630063
0.0630009
0.0629936
0.0629839
0.0629707
0.0629533
0.0629302
0.0629
0.0628611
0.062812
0.0627513
0.0626775
0.0745136
0.0745981
0.0746673
0.0747233
0.0747676
0.0748021
0.0748285
0.0748485
0.0748635
0.0748748
0.0748831
0.0748893
0.074894
0.0748974
0.0749
0.0749019
0.0749034
0.0749045
0.0749053
0.074906
0.0749065
0.0749068
0.0749071
0.0749074
0.0749075
0.0749077
0.0749077
0.0749078
0.0749079
0.0749079
0.0749079
0.0749079
0.0749078
0.0749077
0.0749077
0.0749075
0.0749074
0.0749071
0.0749068
0.0749065
0.074906
0.0749053
0.0749045
0.0749034
0.0749019
0.0749
0.0748974
0.074894
0.0748893
0.0748831
0.0748748
0.0748635
0.0748485
0.0748285
0.0748021
0.0747676
0.0747233
0.0746673
0.0745981
0.0745136
0.0872995
0.0873937
0.0874707
0.0875329
0.0875822
0.0876205
0.0876499
0.0876722
0.087689
0.0877015
0.0877109
0.0877179
0.0877231
0.087727
0.0877299
0.0877321
0.0877337
0.087735
0.0877359
0.0877366
0.0877372
0.0877376
0.087738
0.0877382
0.0877384
0.0877386
0.0877387
0.0877387
0.0877388
0.0877388
0.0877388
0.0877388
0.0877387
0.0877387
0.0877386
0.0877384
0.0877382
0.087738
0.0877376
0.0877372
0.0877366
0.0877359
0.087735
0.0877337
0.0877321
0.0877299
0.087727
0.0877231
0.0877179
0.0877109
0.0877015
0.087689
0.0876722
0.0876499
0.0876205
0.0875822
0.0875329
0.0874707
0.0873937
0.0872995
0.100733
0.100836
0.10092
0.100988
0.101042
0.101084
0.101116
0.10114
0.101159
0.101173
0.101183
0.101191
0.101196
0.101201
0.101204
0.101206
0.101208
0.10121
0.101211
0.101212
0.101212
0.101213
0.101213
0.101213
0.101213
0.101214
0.101214
0.101214
0.101214
0.101214
0.101214
0.101214
0.101214
0.101214
0.101214
0.101213
0.101213
0.101213
0.101213
0.101212
0.101212
0.101211
0.10121
0.101208
0.101206
0.101204
0.101201
0.101196
0.101191
0.101183
0.101173
0.101159
0.10114
0.101116
0.101084
0.101042
0.100988
0.10092
0.100836
0.100733
0.114602
0.114714
0.114804
0.114877
0.114935
0.114981
0.115015
0.115042
0.115062
0.115077
0.115088
0.115096
0.115103
0.115107
0.115111
0.115114
0.115116
0.115117
0.115118
0.115119
0.11512
0.115121
0.115121
0.115121
0.115122
0.115122
0.115122
0.115122
0.115122
0.115122
0.115122
0.115122
0.115122
0.115122
0.115122
0.115122
0.115121
0.115121
0.115121
0.11512
0.115119
0.115118
0.115117
0.115116
0.115114
0.115111
0.115107
0.115103
0.115096
0.115088
0.115077
0.115062
0.115042
0.115015
0.114981
0.114935
0.114877
0.114804
0.114714
0.114602
0.128774
0.128893
0.12899
0.129068
0.12913
0.129178
0.129215
0.129244
0.129265
0.129282
0.129294
0.129303
0.12931
0.129315
0.129319
0.129322
0.129324
0.129326
0.129327
0.129328
0.129329
0.129329
0.12933
0.12933
0.12933
0.12933
0.129331
0.129331
0.129331
0.129331
0.129331
0.129331
0.129331
0.129331
0.12933
0.12933
0.12933
0.12933
0.129329
0.129329
0.129328
0.129327
0.129326
0.129324
0.129322
0.129319
0.129315
0.12931
0.129303
0.129294
0.129282
0.129265
0.129244
0.129215
0.129178
0.12913
0.129068
0.12899
0.128893
0.128774
0.143167
0.143293
0.143396
0.143479
0.143545
0.143597
0.143637
0.143667
0.14369
0.143708
0.143721
0.14373
0.143738
0.143743
0.143748
0.143751
0.143753
0.143755
0.143756
0.143758
0.143758
0.143759
0.143759
0.14376
0.14376
0.14376
0.143761
0.143761
0.143761
0.143761
0.143761
0.143761
0.143761
0.143761
0.14376
0.14376
0.14376
0.143759
0.143759
0.143758
0.143758
0.143756
0.143755
0.143753
0.143751
0.143748
0.143743
0.143738
0.14373
0.143721
0.143708
0.14369
0.143667
0.143637
0.143597
0.143545
0.143479
0.143396
0.143293
0.143167
0.157732
0.157866
0.157974
0.158062
0.158132
0.158187
0.158229
0.158262
0.158287
0.158305
0.158319
0.15833
0.158338
0.158344
0.158348
0.158352
0.158354
0.158356
0.158358
0.158359
0.15836
0.158361
0.158361
0.158362
0.158362
0.158362
0.158362
0.158362
0.158363
0.158363
0.158363
0.158363
0.158362
0.158362
0.158362
0.158362
0.158362
0.158361
0.158361
0.15836
0.158359
0.158358
0.158356
0.158354
0.158352
0.158348
0.158344
0.158338
0.15833
0.158319
0.158305
0.158287
0.158262
0.158229
0.158187
0.158132
0.158062
0.157974
0.157866
0.157732
0.172436
0.172577
0.172691
0.172784
0.172858
0.172916
0.172961
0.172995
0.173021
0.173041
0.173056
0.173067
0.173076
0.173082
0.173087
0.173091
0.173094
0.173096
0.173098
0.173099
0.1731
0.173101
0.173101
0.173102
0.173102
0.173102
0.173103
0.173103
0.173103
0.173103
0.173103
0.173103
0.173103
0.173103
0.173102
0.173102
0.173102
0.173101
0.173101
0.1731
0.173099
0.173098
0.173096
0.173094
0.173091
0.173087
0.173082
0.173076
0.173067
0.173056
0.173041
0.173021
0.172995
0.172961
0.172916
0.172858
0.172784
0.172691
0.172577
0.172436
0.187255
0.187402
0.187522
0.187619
0.187697
0.187758
0.187806
0.187842
0.18787
0.187891
0.187907
0.187919
0.187928
0.187935
0.187941
0.187945
0.187948
0.18795
0.187952
0.187953
0.187954
0.187955
0.187956
0.187956
0.187957
0.187957
0.187957
0.187957
0.187957
0.187957
0.187957
0.187957
0.187957
0.187957
0.187957
0.187957
0.187956
0.187956
0.187955
0.187954
0.187953
0.187952
0.18795
0.187948
0.187945
0.187941
0.187935
0.187928
0.187919
0.187907
0.187891
0.18787
0.187842
0.187806
0.187758
0.187697
0.187619
0.187522
0.187402
0.187255
0.202167
0.202321
0.202447
0.202549
0.20263
0.202694
0.202744
0.202783
0.202812
0.202835
0.202852
0.202865
0.202875
0.202882
0.202888
0.202892
0.202895
0.202898
0.2029
0.202901
0.202903
0.202903
0.202904
0.202905
0.202905
0.202905
0.202906
0.202906
0.202906
0.202906
0.202906
0.202906
0.202906
0.202906
0.202905
0.202905
0.202905
0.202904
0.202903
0.202903
0.202901
0.2029
0.202898
0.202895
0.202892
0.202888
0.202882
0.202875
0.202865
0.202852
0.202835
0.202812
0.202783
0.202744
0.202694
0.20263
0.202549
0.202447
0.202321
0.202167
0.217157
0.217317
0.217449
0.217555
0.21764
0.217708
0.21776
0.217801
0.217832
0.217856
0.217874
0.217888
0.217898
0.217906
0.217912
0.217917
0.21792
0.217923
0.217925
0.217927
0.217928
0.217929
0.21793
0.21793
0.217931
0.217931
0.217931
0.217932
0.217932
0.217932
0.217932
0.217932
0.217932
0.217931
0.217931
0.217931
0.21793
0.21793
0.217929
0.217928
0.217927
0.217925
0.217923
0.21792
0.217917
0.217912
0.217906
0.217898
0.217888
0.217874
0.217856
0.217832
0.217801
0.21776
0.217708
0.21764
0.217555
0.217449
0.217317
0.217157
0.232209
0.232375
0.232512
0.232623
0.232712
0.232782
0.232838
0.23288
0.232913
0.232938
0.232958
0.232972
0.232983
0.232992
0.232998
0.233003
0.233007
0.23301
0.233012
0.233014
0.233015
0.233016
0.233017
0.233018
0.233018
0.233019
0.233019
0.233019
0.233019
0.233019
0.233019
0.233019
0.233019
0.233019
0.233019
0.233018
0.233018
0.233017
0.233016
0.233015
0.233014
0.233012
0.23301
0.233007
0.233003
0.232998
0.232992
0.232983
0.232972
0.232958
0.232938
0.232913
0.23288
0.232838
0.232782
0.232712
0.232623
0.232512
0.232375
0.232209
0.247309
0.247481
0.247623
0.247738
0.247831
0.247904
0.247962
0.248007
0.248042
0.248068
0.248089
0.248104
0.248116
0.248125
0.248132
0.248137
0.248141
0.248145
0.248147
0.248149
0.24815
0.248151
0.248152
0.248153
0.248154
0.248154
0.248154
0.248155
0.248155
0.248155
0.248155
0.248155
0.248155
0.248154
0.248154
0.248154
0.248153
0.248152
0.248151
0.24815
0.248149
0.248147
0.248145
0.248141
0.248137
0.248132
0.248125
0.248116
0.248104
0.248089
0.248068
0.248042
0.248007
0.247962
0.247904
0.247831
0.247738
0.247623
0.247481
0.247309
0.262444
0.262621
0.262768
0.262887
0.262984
0.263061
0.263121
0.263168
0.263204
0.263232
0.263254
0.26327
0.263283
0.263293
0.2633
0.263306
0.26331
0.263313
0.263316
0.263318
0.26332
0.263321