/*--------------------------------*- C++ -*----------------------------------*\
| =========                 |                                                 |
| \\      /  F ield         | foam-extend: Open Source CFD                    |
|  \\    /   O peration     | Version:     4.0                                |
|   \\  /    A nd           | Web:         http://www.foam-extend.org         |
|    \\/     M anipulation  |                                                 |
\*---------------------------------------------------------------------------*/
FoamFile
{
    version     2.0;
    format      ascii;
    class       volScalarField;
    location    "19";
    object      dPhi;
}
// * * * * * * * * * * * * * * * * * * * * * * * * * * * * * * * * * * * * * //

dimensions      [0 -1 0 0 0 0 0];

internalField   nonuniform List<scalar> 
6960
(
-4.69769e-16
1.89002e-15
1.08288e-15
-1.1314e-15
8.22006e-16
-1.14009e-15
-1.43687e-15
1.01075e-16
1.16069e-15
1.7149e-15
-3.76308e-15
-7.25561e-16
-2.64271e-16
-2.10712e-15
5.44343e-16
-1.75345e-15
-6.90176e-16
-7.96689e-16
1.18364e-15
5.68093e-16
2.75397e-16
-1.84088e-15
2.34632e-15
1.55194e-16
-1.73417e-15
-1.29249e-16
-1.54257e-15
1.1054e-15
1.63762e-15
-1.17134e-15
-1.091e-15
1.47716e-15
7.41894e-16
-2.79415e-15
-1.1776e-15
1.22971e-16
-1.54031e-15
-2.25455e-15
1.79265e-15
-2.75248e-15
2.18437e-15
3.76262e-16
-7.1605e-16
9.25669e-16
-3.41145e-16
-2.48464e-15
1.72813e-15
1.14698e-15
2.41366e-16
-1.7049e-15
2.23723e-15
-9.35828e-17
1.27014e-15
-9.15598e-16
-1.95159e-15
-2.31018e-16
7.20116e-16
-2.56249e-16
-1.66994e-15
4.05556e-16
1.30063e-15
7.04752e-16
-1.16533e-15
-3.46103e-15
-2.19367e-15
1.88958e-15
1.74293e-15
-2.64917e-15
3.13666e-15
2.60584e-15
-8.72783e-16
-1.45733e-15
-3.77608e-16
1.40953e-17
-5.00229e-15
1.56422e-15
-1.71583e-15
-5.77323e-16
-5.9143e-16
5.66722e-16
-5.43892e-16
-5.78533e-15
3.22294e-15
1.50279e-15
1.30317e-15
1.71976e-15
-2.03143e-16
1.17466e-15
-1.10047e-15
5.1519e-16
-3.67679e-16
-1.10999e-16
-2.62463e-16
2.46794e-15
4.89868e-16
-1.35441e-15
-2.15375e-15
2.21577e-15
-2.78067e-15
2.57155e-15
3.66698e-15
-2.02774e-15
3.98097e-15
-3.28004e-15
-1.87325e-15
1.2178e-15
-1.44285e-15
-1.2653e-15
2.98314e-15
-2.99845e-15
-2.39239e-15
-1.64047e-15
-1.33654e-15
3.62422e-15
3.27327e-16
1.44445e-15
1.41047e-15
-3.98052e-15
2.70668e-15
-2.86718e-15
-2.45981e-15
-4.41364e-15
-2.03233e-15
-2.98754e-15
1.98705e-15
-1.68895e-15
-5.4038e-15
3.38924e-15
2.24651e-15
-2.18718e-15
2.11819e-15
-2.65341e-15
-3.45166e-15
3.48772e-15
3.23727e-15
3.60971e-15
5.5679e-15
1.06573e-15
1.42403e-15
1.56416e-15
5.58915e-15
1.6267e-15
-3.2107e-15
2.22919e-15
2.44465e-15
-1.06916e-15
2.79708e-15
2.6999e-15
1.03178e-15
3.76844e-15
9.54599e-16
4.33062e-15
1.10977e-15
2.65136e-15
-2.81869e-15
-1.53009e-15
2.36302e-15
-1.68313e-15
3.75856e-15
-2.7158e-15
2.4799e-15
-2.55078e-15
-5.79232e-16
6.81238e-15
3.48923e-16
8.05244e-16
-8.84964e-16
-2.72618e-15
-7.09247e-16
1.45734e-15
3.62462e-16
2.35094e-15
5.05019e-15
-1.69954e-15
2.56517e-15
-4.14061e-15
-2.46854e-15
8.57178e-16
-9.70161e-16
5.4206e-16
-1.80173e-15
4.05021e-15
2.34839e-15
1.37641e-15
-6.47624e-17
-5.58283e-16
6.62183e-15
-8.03508e-15
5.04915e-16
-1.2027e-16
-3.88207e-15
-5.27719e-15
6.97931e-16
-1.98649e-15
-2.93871e-15
1.09251e-15
6.59059e-17
7.08772e-16
3.31969e-15
4.36599e-15
-8.04601e-15
8.81568e-16
2.40119e-15
7.57192e-16
-3.82772e-15
-6.11456e-16
4.44348e-15
-1.51476e-15
1.79624e-16
-3.364e-15
-2.61713e-15
-3.35771e-16
-3.17427e-16
-6.29105e-15
-8.38732e-18
2.09461e-15
-8.75064e-15
2.89838e-15
-4.21417e-15
-1.18099e-15
-3.85856e-16
1.3035e-15
2.65756e-15
1.88105e-15
7.49833e-16
8.16748e-16
4.60348e-15
5.62975e-15
-6.34716e-15
-1.70243e-16
-2.34159e-15
7.46604e-16
-3.65446e-15
8.28528e-15
-3.79654e-16
1.80121e-15
-9.56422e-16
1.22891e-15
3.87715e-15
-1.72101e-15
1.96721e-15
-2.02764e-15
-4.5186e-15
-1.12973e-15
4.02395e-16
9.88338e-16
3.69161e-16
6.11879e-15
9.74813e-16
-2.07174e-15
1.92727e-15
7.09264e-15
-8.254e-16
-2.05717e-16
-3.38788e-15
-2.54164e-15
-2.14472e-15
-1.05868e-15
-1.07602e-15
-3.11314e-15
-6.03619e-16
-3.92124e-15
4.73952e-15
2.54179e-15
2.39684e-15
-2.68688e-15
-2.43818e-15
3.53137e-15
-4.07879e-15
3.48678e-15
7.19672e-15
3.39623e-15
-6.5373e-15
7.76146e-15
7.70241e-16
4.77398e-16
7.94062e-15
5.7708e-16
-1.95288e-15
1.27706e-15
-4.78575e-15
2.19318e-15
9.12661e-17
-1.51365e-15
6.32831e-15
-5.53301e-15
-3.12346e-15
-9.79035e-17
1.76677e-15
2.0566e-15
-3.76622e-15
-5.83121e-15
3.78527e-15
2.2247e-15
6.77885e-15
1.12366e-15
2.06133e-15
5.56625e-15
4.4147e-16
5.0957e-15
3.07875e-15
1.99871e-15
6.04621e-15
2.00518e-15
3.37183e-15
2.07621e-15
-6.44918e-15
-5.36381e-15
6.10211e-15
-3.31089e-15
-1.57869e-15
2.84849e-15
1.86473e-15
-1.30457e-14
5.13255e-15
-2.97307e-15
4.15435e-15
-3.55593e-15
5.93668e-16
-5.02946e-15
4.92867e-15
5.01254e-16
-6.99688e-15
5.93147e-16
-4.234e-15
-1.38568e-15
4.85113e-15
-4.42214e-15
9.3557e-15
5.7622e-16
1.69584e-15
-3.40027e-15
5.9643e-15
-3.46655e-15
2.57543e-15
-7.6005e-15
8.2562e-17
-1.2775e-14
8.90835e-15
3.07432e-16
-4.33098e-16
-1.14011e-15
-6.5626e-15
4.70228e-15
3.49398e-15
-1.65468e-15
7.38688e-15
3.47166e-15
1.43197e-15
-4.21458e-15
3.466e-15
2.28798e-15
1.62239e-15
-4.93769e-15
-6.22199e-15
8.11191e-15
3.30405e-15
-6.09053e-15
-1.01821e-15
-8.73554e-15
-7.16393e-15
2.01647e-15
-1.04306e-14
-2.25338e-15
3.24168e-15
-2.36734e-15
9.46793e-15
-7.39774e-15
-9.22714e-15
5.76243e-15
-3.18633e-16
2.73342e-15
-3.94282e-15
7.79545e-15
-4.66693e-15
-3.16065e-15
-8.89082e-15
7.93677e-16
9.83751e-16
9.28852e-15
-1.4822e-15
-6.12161e-15
1.26745e-15
9.9916e-16
1.58531e-15
4.54278e-15
-4.16359e-15
8.31195e-15
-5.04307e-15
5.51859e-16
-1.85592e-15
-2.92707e-15
-1.28531e-14
3.28628e-15
-1.08949e-16
5.84786e-15
-3.80047e-15
8.34616e-15
-7.00976e-15
6.47292e-15
-2.84409e-15
-2.0945e-15
2.51876e-15
-4.71696e-16
-1.05081e-14
-2.90196e-15
-2.9638e-16
-3.72512e-15
4.27519e-15
5.51371e-16
1.05376e-14
1.01948e-14
-4.58374e-15
-1.77255e-15
-2.08599e-15
-6.21017e-15
2.65291e-15
-1.06726e-15
5.11626e-15
1.23886e-14
1.11296e-14
-1.02164e-15
8.75331e-15
-3.13554e-15
-6.56121e-15
-4.48312e-15
-3.93476e-15
3.65311e-15
-5.02585e-15
-1.14555e-14
-8.8021e-16
-3.16264e-15
-1.60971e-15
-1.24274e-15
6.70658e-15
-1.33048e-14
2.28165e-15
2.13317e-17
-3.36298e-15
-3.51824e-15
-1.37414e-14
1.2013e-14
9.73093e-15
-1.5181e-15
1.28935e-14
2.27436e-15
2.23714e-15
-1.11758e-14
-4.09934e-15
-3.88245e-15
1.56567e-15
6.14529e-15
4.45466e-15
-1.68146e-15
-7.39645e-15
-4.70384e-15
-4.43656e-15
-7.40399e-15
7.94533e-15
-4.01578e-15
1.21741e-14
-1.74711e-15
9.96856e-15
-7.98187e-15
1.10919e-15
8.30954e-15
2.60995e-16
1.22688e-14
2.94513e-15
-4.27447e-15
-1.35591e-14
3.92487e-15
4.98288e-15
1.54687e-14
1.94813e-14
-2.47686e-16
-4.75583e-15
1.28904e-14
-1.32243e-14
-5.02541e-15
-1.9368e-14
-1.05313e-14
3.52328e-15
1.17213e-14
1.32635e-14
4.45298e-15
-5.35672e-15
1.2034e-14
9.09933e-15
8.59149e-15
8.83733e-16
-5.71537e-16
8.36841e-16
-3.64118e-15
-1.45424e-14
7.01538e-15
9.052e-16
-8.78301e-15
8.23733e-15
-4.20925e-15
2.5271e-14
-1.29593e-14
-5.75061e-15
-6.43647e-15
-2.19566e-14
8.9039e-15
2.34178e-14
1.7705e-16
1.22423e-14
1.00494e-14
-2.25601e-15
-7.84453e-15
-7.98406e-15
5.16747e-15
1.20813e-14
1.31264e-15
7.56795e-15
1.36733e-14
-1.7053e-14
-2.4961e-15
-2.06812e-15
-1.73337e-15
-1.51471e-14
1.01211e-14
1.07003e-14
-1.61e-14
7.21119e-15
-1.21955e-14
-6.73398e-16
8.78025e-15
4.35697e-15
-1.84293e-14
-1.14869e-14
-1.638e-14
-1.74277e-14
6.00372e-15
9.10703e-15
-1.39579e-14
9.76649e-16
-3.76636e-15
2.11218e-14
1.14272e-14
-8.33209e-15
-2.4648e-14
-1.31178e-15
1.60852e-15
-1.98702e-15
-9.14384e-15
-1.65493e-15
-5.29817e-15
4.07562e-15
-1.28308e-14
1.22708e-14
-1.64818e-14
1.12268e-14
-1.15971e-14
8.34088e-15
2.1974e-14
-1.32104e-14
-1.80837e-14
-4.64917e-15
6.53828e-15
-7.46701e-15
-8.03307e-15
9.35938e-15
-4.22351e-15
-1.82483e-14
1.06816e-14
-9.54185e-15
-9.25356e-15
4.91469e-16
1.53281e-14
-9.60896e-15
5.46785e-15
-4.8041e-15
1.44131e-14
-1.56643e-14
-1.81593e-14
1.8103e-14
4.2762e-15
1.13342e-14
-8.53777e-15
1.20736e-14
-1.17079e-14
-1.33406e-14
3.05268e-15
-6.41273e-15
1.55932e-14
5.11808e-15
2.56403e-15
1.2173e-14
1.92894e-14
-2.63027e-15
5.63341e-15
2.39092e-14
-3.66677e-16
1.1251e-14
-3.00161e-15
-9.19479e-15
3.66829e-15
-5.73803e-15
-1.5073e-14
-5.71548e-15
8.88612e-15
9.61167e-15
3.27841e-15
9.18276e-15
-4.24682e-15
-3.26085e-15
1.03433e-14
-2.06655e-14
2.2198e-14
-1.3005e-14
1.52244e-15
-5.19029e-15
6.30268e-15
7.01609e-15
-2.09173e-14
6.09907e-15
2.28908e-14
-1.54098e-14
7.99708e-15
9.08843e-15
1.30206e-14
8.70636e-15
1.14637e-14
8.5305e-16
-1.91795e-15
5.14367e-15
1.02147e-14
6.67565e-15
-4.56818e-15
7.45476e-15
-2.50017e-15
-6.13225e-16
-2.37026e-14
1.39238e-14
9.08475e-15
-4.94266e-15
-3.13161e-15
-2.48857e-14
5.40019e-15
-8.05584e-15
5.02246e-15
1.96603e-14
-8.10289e-15
1.44761e-14
2.44032e-15
4.61675e-15
-9.41066e-15
-2.93515e-15
-1.26568e-14
1.46311e-14
-1.29801e-15
-1.249e-15
9.92349e-15
-6.83047e-15
-9.36902e-15
7.08136e-15
-2.14499e-15
-2.38308e-15
2.93038e-15
-1.70046e-15
-1.27537e-14
5.63785e-18
-5.33427e-17
-3.92915e-15
1.12649e-14
3.33501e-16
-4.04147e-15
5.35553e-15
-1.08598e-14
2.08904e-15
8.32624e-15
7.9832e-15
-4.55538e-15
2.4967e-15
2.31499e-14
8.56693e-15
-1.35391e-14
1.79236e-14
1.27819e-14
1.00206e-14
-4.43005e-15
-2.21828e-15
-1.3242e-14
1.01594e-14
-9.42258e-15
1.14709e-15
-8.31106e-15
-2.66887e-15
-1.02978e-14
1.27333e-14
-8.28764e-15
1.99797e-15
1.18963e-14
-9.43299e-15
-9.03791e-16
-6.95451e-15
3.59565e-15
1.91206e-14
-3.01972e-15
1.85403e-14
-1.64916e-14
-1.08685e-14
1.3788e-14
-3.10862e-15
-5.5728e-15
-1.22198e-14
5.9063e-15
7.53521e-15
3.21835e-15
-5.37027e-15
8.61334e-15
3.23439e-15
-4.17548e-15
5.30565e-15
9.17669e-15
1.15021e-14
5.43445e-15
6.16e-15
-1.44156e-15
1.00414e-14
5.64652e-16
-1.79119e-14
-1.07553e-15
4.17461e-15
-3.43302e-15
1.04812e-14
-6.57634e-15
6.08281e-15
7.63625e-15
-1.19895e-14
6.95884e-15
2.62811e-16
-4.42181e-15
-1.98123e-14
-1.05818e-14
-1.26184e-14
-1.21257e-15
-6.27103e-16
-1.09886e-14
-1.2418e-14
-8.79592e-15
-3.41827e-15
1.90776e-14
3.29858e-15
9.24781e-15
7.45064e-16
6.22766e-15
-7.50962e-15
1.29376e-14
-1.10745e-14
-8.09249e-15
-1.24302e-14
-5.80785e-15
-2.77556e-15
-4.46691e-16
4.00027e-15
-2.47762e-14
1.31145e-15
-4.79738e-15
-1.4609e-14
3.72185e-15
3.989e-15
4.72365e-15
2.25514e-17
9.26256e-15
-7.1488e-15
3.42521e-15
-5.89546e-15
1.5786e-15
-1.10762e-15
-1.14058e-14
-1.53844e-14
3.70797e-15
-7.29885e-15
-1.62665e-14
-2.61562e-14
-7.38559e-15
-1.31006e-14
1.67713e-14
-7.2789e-15
7.49747e-15
2.5582e-14
-9.00321e-15
3.28383e-15
1.32342e-14
3.86496e-15
-1.22125e-15
-1.6152e-14
-1.68355e-14
2.88138e-15
-2.25427e-14
-1.20477e-14
-5.25621e-16
1.67696e-14
-6.23633e-15
1.63949e-14
2.82933e-14
-2.78076e-15
-2.01575e-15
7.74381e-15
2.08809e-14
1.06529e-14
-3.10533e-14
-1.87263e-14
-6.46358e-15
3.06352e-15
6.79491e-15
1.09183e-14
-6.2797e-16
2.21871e-15
1.41154e-14
2.16754e-14
2.09988e-14
1.94358e-14
-1.41206e-14
-5.55112e-16
2.50373e-14
-7.61023e-15
-4.63345e-15
3.19814e-14
1.57912e-14
6.97879e-15
-2.7877e-15
-7.42288e-15
-4.31599e-15
2.26572e-14
-2.38715e-14
1.08941e-15
-1.1274e-14
-8.00228e-15
1.23321e-14
1.64851e-14
-1.66533e-15
8.16881e-15
9.567e-15
1.28005e-14
-2.98893e-15
1.22125e-15
-7.21645e-15
-1.06963e-14
1.1411e-14
-7.05339e-15
-9.12465e-16
-2.48516e-14
-1.44225e-14
9.64853e-15
5.50601e-15
1.19904e-14
1.47209e-14
2.80123e-14
1.26218e-14
1.8055e-14
-4.96131e-16
-5.96051e-15
4.00374e-15
-1.28786e-14
-3.31159e-14
-1.4308e-14
-1.49845e-14
-1.33123e-14
-2.87062e-14
-1.53592e-14
5.905e-15
2.24577e-14
2.50043e-14
-4.35416e-15
-2.39114e-14
-1.37598e-14
6.17562e-16
1.26288e-15
-3.54231e-15
-7.76809e-15
-1.2268e-14
-1.6525e-14
1.35933e-14
8.56953e-15
1.11335e-14
2.22287e-14
2.55039e-14
-2.19581e-14
-5.66561e-15
-2.06779e-15
-6.64746e-15
8.02483e-15
1.14492e-14
-8.40647e-15
2.81615e-14
1.70523e-14
1.48839e-14
9.88445e-15
-7.33094e-15
4.17374e-15
-1.7146e-14
-5.59622e-15
4.38885e-15
2.95042e-14
-1.36662e-14
2.08167e-16
9.83935e-15
2.25514e-14
3.36189e-15
1.23825e-14
7.41074e-15
2.28983e-14
2.10908e-14
6.20337e-15
-9.87405e-15
-6.83828e-15
-1.33435e-14
-1.70211e-14
-4.79478e-15
1.49915e-14
2.5608e-14
-1.13902e-14
-1.19245e-14
1.1182e-14
4.18485e-14
2.1011e-14
2.7988e-14
-2.86576e-15
1.35066e-14
4.05231e-15
1.49429e-14
-5.08621e-15
-2.06467e-14
-2.11359e-14
1.33296e-14
1.19141e-14
-1.83187e-15
-1.26149e-14
-5.44703e-15
-1.36349e-15
9.56527e-15
4.16681e-15
-3.36536e-16
-1.24588e-14
-1.58172e-14
-2.43208e-14
-3.16136e-14
3.33067e-15
-4.09742e-15
9.80119e-15
8.32667e-17
4.96131e-16
-2.07057e-14
-1.54217e-14
-1.63099e-14
-1.77358e-14
-1.74166e-15
-3.01148e-15
1.42351e-14
-5.66214e-15
2.09589e-14
-1.35655e-15
-2.56843e-14
-3.12909e-14
1.05783e-14
4.89886e-15
-9.45077e-15
-2.95389e-14
-1.00128e-14
-3.05311e-15
-5.38458e-15
-1.35933e-14
-7.02216e-15
-1.6015e-14
1.51198e-14
1.71391e-14
2.21073e-14
-6.58501e-15
2.73392e-15
-2.23363e-14
-2.28845e-14
2.17881e-15
1.50643e-14
-1.40513e-14
-4.34583e-14
-1.27537e-14
1.65146e-15
1.96093e-14
-4.4062e-15
-1.7028e-14
-8.60423e-16
-2.95181e-14
1.60288e-14
2.68119e-14
1.84019e-14
-1.61052e-14
-1.215e-14
6.78624e-15
1.11022e-16
-1.84783e-14
-1.42802e-14
9.83241e-15
-8.97893e-15
-1.44121e-14
-1.68615e-15
1.91652e-14
7.63972e-15
3.18495e-15
2.93932e-14
-2.35922e-16
1.61468e-14
1.56125e-15
2.82621e-14
4.5311e-15
9.76302e-15
3.7817e-15
-9.17322e-15
1.97273e-14
-2.13371e-14
-1.66533e-15
-2.76168e-15
7.84095e-15
1.56403e-14
1.64382e-14
1.91513e-15
-1.69864e-14
2.1233e-15
1.65284e-14
1.90403e-14
-8.38218e-15
2.59515e-15
3.58047e-14
-8.88178e-16
1.50574e-14
-1.38084e-14
-9.20097e-15
-1.33921e-14
1.64313e-14
-8.5626e-15
9.15934e-15
2.7478e-15
6.93889e-15
-2.98372e-15
1.39194e-14
2.77139e-14
1.02279e-14
-1.24345e-14
-1.80828e-14
1.18239e-14
1.12271e-14
-1.8277e-14
2.18575e-14
-1.6237e-14
-2.3509e-14
-2.88658e-15
3.72063e-14
2.14828e-14
6.16174e-15
1.00198e-14
7.56339e-15
1.25039e-14
3.98293e-15
-2.46608e-14
1.02279e-14
2.09138e-14
2.12053e-14
1.05055e-14
4.2466e-15
-2.70339e-14
-3.11279e-14
4.44089e-16
-7.93809e-15
-2.32314e-14
-1.97065e-15
1.34615e-15
8.09075e-15
-1.35725e-14
-2.1691e-14
2.26208e-15
8.88178e-16
2.60902e-15
3.33067e-16
-7.75768e-15
-1.72085e-15
5.41234e-15
1.50019e-14
7.03604e-15
1.02973e-14
-2.06918e-14
8.09075e-15
-8.6875e-15
-2.00256e-14
-9.49241e-15
3.1225e-15
8.92342e-15
1.51823e-14
6.57807e-15
-8.95117e-15
1.7264e-14
1.14214e-14
-9.28424e-15
-1.21986e-14
-4.3715e-15
1.60011e-14
-8.59035e-15
5.38458e-15
8.89566e-15
1.95816e-14
-3.64986e-15
-1.79023e-15
8.04912e-15
-1.8277e-14
4.44089e-15
5.41234e-16
1.29063e-15
-2.56323e-14
-1.11022e-14
-1.61537e-14
-4.67681e-15
-1.46827e-14
-6.55032e-15
-6.66134e-15
3.71786e-14
1.83187e-15
1.02418e-14
-2.66592e-14
-4.73233e-15
9.45077e-15
2.48829e-14
7.95197e-15
6.27276e-15
-4.20497e-15
2.15244e-14
7.13318e-15
3.59435e-15
2.498e-15
1.37945e-14
1.10467e-14
-1.26704e-14
-3.81639e-15
2.83107e-15
-8.6875e-15
-1.113e-14
-2.98372e-15
4.21885e-15
-2.25098e-14
-2.29539e-14
-5.19029e-15
2.95042e-14
-1.00753e-14
-2.94209e-15
-1.13798e-14
9.15934e-15
-9.32587e-15
3.60822e-15
-1.27676e-15
-7.49401e-16
4.21885e-15
-1.8735e-14
-2.362e-14
8.32667e-17
1.49047e-14
2.37588e-14
-1.50158e-14
3.83027e-15
-1.13798e-14
-3.66374e-15
-8.13238e-15
-6.05072e-15
-1.45439e-14
-7.13318e-15
8.02136e-15
2.41474e-15
1.78746e-14
-1.15463e-14
-5.85643e-15
-4.55191e-15
2.3398e-14
9.9365e-15
2.64511e-14
-3.85803e-15
4.57967e-15
-1.61537e-14
1.52933e-14
-1.14908e-14
1.19627e-14
-1.26288e-14
-9.4369e-16
-1.55709e-14
1.7264e-14
2.72005e-15
-1.55431e-15
-2.64788e-14
9.71445e-16
4.55191e-15
-4.19109e-15
-2.75613e-14
7.13318e-15
2.13163e-14
1.09912e-14
-1.67089e-14
2.498e-16
1.76803e-14
-4.21885e-15
-3.05311e-16
1.09635e-14
1.65978e-14
-1.3517e-14
-1.29896e-14
2.69784e-14
3.19189e-15
1.3739e-14
-2.32869e-14
-1.52656e-15
8.18789e-15
1.42941e-14
-7.77156e-16
-5.52336e-15
2.31482e-14
-3.05311e-16
9.54792e-15
-1.83187e-15
-1.8513e-14
-4.19109e-15
-1.93179e-14
6.99441e-15
3.66374e-15
1.76525e-14
1.06581e-14
4.03844e-14
3.33067e-16
2.83107e-15
7.88258e-15
-6.02296e-15
2.00118e-14
1.60982e-14
3.27516e-15
-1.03528e-14
-9.15934e-15
-1.19904e-14
-3.52496e-15
-6.52256e-15
1.94289e-15
-1.36002e-14
1.13798e-14
3.80251e-15
1.17129e-14
-9.76996e-15
1.57652e-14
-4.44089e-15
-1.06304e-14
1.82909e-14
2.91434e-14
-1.1352e-14
3.63598e-15
1.37945e-14
1.13798e-14
-9.6867e-15
-3.58047e-15
-1.07137e-14
4.80171e-15
2.10942e-15
-6.60583e-15
6.85563e-15
-2.85882e-15
4.55191e-15
-2.22045e-15
2.03726e-14
-2.14273e-14
-3.28071e-14
-1.00475e-14
-2.2482e-14
3.03646e-14
6.93889e-15
-7.71605e-15
-2.18714e-14
3.10307e-14
5.60663e-15
-1.39333e-14
3.04201e-14
5.88418e-15
5.82867e-15
6.60583e-15
-2.9976e-15
2.52021e-14
-2.9976e-15
-3.21965e-15
-2.38698e-15
-1.63758e-14
-3.34177e-14
9.49241e-15
-1.7375e-14
-1.4766e-14
1.20459e-14
-4.4964e-15
-1.33227e-14
1.33782e-14
-2.34812e-14
4.996e-15
1.37113e-14
2.75335e-14
-2.22045e-16
2.55351e-15
-7.71605e-15
-6.77236e-15
1.18239e-14
8.9373e-15
-4.77396e-15
-5.55112e-16
9.99201e-15
3.21965e-15
-2.24265e-14
-1.87073e-14
1.93734e-14
-1.4877e-14
-1.11577e-14
-2.77556e-16
-1.38778e-14
-3.71925e-15
-1.16573e-15
7.77156e-15
1.4988e-15
2.15938e-14
1.77081e-14
-8.60423e-15
2.10942e-15
-2.22045e-15
-2.86993e-14
1.11022e-14
1.11022e-16
1.16018e-14
1.68199e-14
-9.21485e-15
-2.45359e-14
7.77156e-16
7.93809e-15
-2.69784e-14
-7.38298e-15
-3.9968e-15
-1.32117e-14
-1.90403e-14
1.27676e-15
-1.97065e-14
1.7264e-14
-2.04836e-14
-9.99201e-15
6.82787e-15
-1.30451e-14
-3.05311e-15
6.05072e-15
-8.60423e-15
1.59872e-14
-3.44169e-15
-1.44329e-14
4.71845e-15
2.44249e-14
-1.33782e-14
2.19824e-14
1.05471e-15
-7.93809e-15
-4.66294e-15
9.21485e-15
-2.77556e-15
1.60982e-14
-2.77556e-16
-8.99281e-15
-1.31006e-14
-2.22045e-15
-1.31561e-14
-2.14828e-14
1.52101e-14
4.66294e-15
1.61537e-14
-8.99281e-15
2.38143e-14
6.21725e-15
9.99201e-16
2.67564e-14
1.88183e-14
1.09912e-14
-9.9365e-15
3.66374e-15
-1.85962e-14
-1.56541e-14
3.4972e-15
-1.16573e-15
-1.21014e-14
2.95319e-14
2.22045e-15
1.52656e-14
-1.08802e-14
-1.18239e-14
7.71605e-15
2.81997e-14
4.82947e-15
2.22045e-15
1.9984e-14
8.49321e-15
-4.55191e-15
-2.59237e-14
-1.54876e-14
-2.04836e-14
2.35922e-14
1.13243e-14
1.4988e-15
7.71605e-15
-2.16493e-14
-4.996e-15
1.44329e-15
4.82947e-15
6.10623e-16
1.04916e-14
-7.43849e-15
8.82627e-15
-9.4369e-16
-3.61933e-14
1.84297e-14
-4.16334e-15
-5.71765e-15
1.17129e-14
-4.32987e-15
1.11022e-16
-1.85962e-14
-1.66533e-14
7.82707e-15
1.01585e-14
-1.55431e-15
-9.32587e-15
1.18794e-14
9.88098e-15
-5.55112e-15
-1.04916e-14
-3.31957e-14
1.34337e-14
-1.08802e-14
5.55112e-15
9.27036e-15
-2.09832e-14
-5.38458e-15
-3.44169e-15
1.79301e-14
-2.30371e-14
2.12608e-14
1.2601e-14
-9.21485e-15
-1.07692e-14
4.32987e-15
-2.42029e-14
-2.77556e-15
-1.06581e-14
2.39808e-14
4.44089e-15
-1.4766e-14
-6.99441e-15
-2.38698e-14
6.10623e-15
-2.14273e-14
-6.88338e-15
1.11022e-15
2.94209e-14
3.30846e-14
1.92069e-14
1.88738e-15
-1.92069e-14
6.66134e-15
-8.21565e-15
1.85407e-14
-3.33067e-15
5.66214e-15
-5.55112e-15
2.94209e-14
-9.32587e-15
-8.77076e-15
-2.66454e-15
-5.21805e-15
1.67644e-14
-7.88258e-15
1.88738e-15
7.77156e-16
-1.03251e-14
9.65894e-15
-1.63203e-14
2.25375e-14
3.88578e-15
-2.55351e-15
-7.43849e-15
2.55351e-15
8.43769e-15
3.77476e-15
1.13243e-14
9.10383e-15
1.94289e-14
1.46549e-14
-4.10783e-15
1.16573e-14
-1.83187e-14
-8.77076e-15
1.11022e-14
-1.22125e-14
-1.37668e-14
-1.92069e-14
1.39888e-14
-1.13243e-14
3.33067e-15
4.66294e-15
-2.77556e-15
4.88498e-15
1.4988e-14
-3.77476e-15
-2.10942e-15
-7.66054e-15
-1.16573e-14
6.10623e-15
3.66374e-15
7.32747e-15
-7.77156e-16
1.02141e-14
-1.22125e-15
3.33067e-16
-1.15463e-14
-2.60902e-14
-7.77156e-15
-1.88738e-15
1.68754e-14
-2.15383e-14
1.07692e-14
-7.32747e-15
7.43849e-15
5.10703e-15
-1.33227e-15
-2.93099e-14
-2.10942e-15
8.88178e-15
1.42109e-14
-5.88418e-15
7.88258e-15
1.22125e-15
-9.88098e-15
-1.05471e-14
1.15463e-14
-2.25375e-14
1.93179e-14
-9.54792e-15
-2.10942e-15
1.05471e-14
2.22045e-15
3.66374e-15
8.10463e-15
-4.88498e-15
-5.55112e-16
-1.57652e-14
-1.13243e-14
1.18794e-14
3.55271e-15
-2.39808e-14
2.02061e-14
1.0103e-14
7.77156e-16
8.10463e-15
9.88098e-15
-7.99361e-15
2.44249e-15
1.42109e-14
-5.21805e-15
8.21565e-15
1.60982e-14
7.32747e-15
-1.96509e-14
-9.65894e-15
-4.32987e-15
-1.84297e-14
-1.27676e-14
-3.88578e-15
-1.16573e-14
-1.21014e-14
6.32827e-15
-5.55112e-15
1.92069e-14
8.88178e-16
-6.99441e-15
2.63123e-14
8.21565e-15
-1.22125e-14
6.66134e-15
1.27676e-14
-1.34337e-14
-6.66134e-15
-1.9873e-14
-3.33067e-15
1.24345e-14
1.43219e-14
5.32907e-15
5.66214e-15
-1.89848e-14
-1.43219e-14
-1.12133e-14
-1.90958e-14
6.66134e-15
3.88578e-15
1.66533e-15
4.55191e-15
3.44169e-15
8.54872e-15
-8.43769e-15
-2.12053e-14
-2.77556e-15
-8.77076e-15
-3.29736e-14
1.14353e-14
-1.36557e-14
7.99361e-15
-5.77316e-15
-3.10862e-15
-5.10703e-15
8.77076e-15
-2.03171e-14
1.77636e-15
-2.9976e-15
-1.13243e-14
4.44089e-16
1.13243e-14
7.10543e-15
7.21645e-15
9.10383e-15
-2.28706e-14
-2.83107e-14
-8.88178e-16
1.16573e-14
1.16573e-14
-6.99441e-15
3.0087e-14
1.16573e-14
-1.06581e-14
2.12053e-14
6.66134e-15
-1.17684e-14
2.4647e-14
-6.88338e-15
-1.25455e-14
1.07692e-14
-3.14193e-14
-1.40998e-14
1.05471e-14
-1.85407e-14
-2.14273e-14
-8.54872e-15
4.44089e-16
1.64313e-14
-1.06581e-14
-1.95399e-14
-1.88738e-15
1.11022e-16
-8.99281e-15
-2.22045e-16
1.46549e-14
5.88418e-15
3.41949e-14
-6.21725e-15
-1.40998e-14
5.88418e-15
6.99441e-15
5.32907e-15
-1.9984e-14
5.55112e-16
2.88658e-15
-9.4369e-15
1.11022e-14
1.86517e-14
-1.80966e-14
-1.77636e-15
3.77476e-15
2.9976e-14
1.88738e-15
-1.66533e-15
1.05471e-14
-1.11022e-16
-6.77236e-15
2.54241e-14
1.02141e-14
-2.22045e-15
-6.10623e-15
2.5091e-14
-2.60902e-14
-8.43769e-15
3.33067e-14
2.58682e-14
1.31006e-14
9.99201e-15
-2.05391e-14
2.22045e-16
-2.63123e-14
5.88418e-15
-4.21885e-15
-1.35447e-14
4.55191e-15
2.36478e-14
-1.72085e-14
-1.77636e-15
-1.22125e-14
-5.44009e-15
2.88658e-15
-1.03251e-14
-1.22125e-15
-8.43769e-15
8.32667e-15
-6.66134e-16
-8.10463e-15
-1.04361e-14
4.32987e-15
-3.9968e-15
1.12133e-14
1.39888e-14
-3.21965e-15
2.32037e-14
3.9968e-15
9.88098e-15
-2.43139e-14
1.85407e-14
4.10783e-15
-4.44089e-15
5.21805e-15
-5.88418e-15
1.33227e-14
3.88578e-15
2.02061e-14
7.43849e-15
-2.29816e-14
-8.32667e-15
1.15463e-14
5.10703e-15
-6.66134e-15
-3.17524e-14
-1.66533e-15
7.32747e-15
-1.04361e-14
6.43929e-15
7.77156e-16
-1.79856e-14
-2.22045e-15
-5.55112e-16
5.55112e-15
-2.75335e-14
3.83027e-14
-5.44009e-15
-1.9984e-14
-1.44329e-14
-1.26565e-14
-1.44329e-14
1.73195e-14
1.77636e-15
2.15383e-14
8.21565e-15
2.30926e-14
6.66134e-15
-7.32747e-15
-1.42109e-14
-8.65974e-15
2.22045e-16
3.57492e-14
8.65974e-15
1.75415e-14
3.70814e-14
-8.43769e-15
9.99201e-15
8.88178e-15
2.22045e-16
1.86517e-14
-1.06581e-14
1.53211e-14
-4.44089e-16
-1.46549e-14
-9.54792e-15
1.06581e-14
-2.86438e-14
-1.75415e-14
-2.13163e-14
2.55351e-14
-3.44169e-14
-8.88178e-16
-1.33227e-15
-2.30926e-14
-1.02141e-14
3.10862e-15
1.62093e-14
-1.64313e-14
-1.84297e-14
5.55112e-15
1.13243e-14
-2.44249e-15
-1.9984e-15
-7.54952e-15
1.35447e-14
-6.43929e-15
-1.11022e-15
-5.55112e-15
8.65974e-15
1.46549e-14
1.46549e-14
-3.55271e-15
2.77556e-14
-9.76996e-15
9.54792e-15
-1.77636e-14
7.10543e-15
7.77156e-15
-3.33067e-15
1.75415e-14
1.55431e-15
-1.19904e-14
4.21885e-15
-1.93179e-14
-3.06422e-14
-1.11022e-15
-1.11022e-15
-1.11022e-14
3.55271e-15
2.13163e-14
-1.9762e-14
-2.53131e-14
-2.70894e-14
-2.15383e-14
-2.90878e-14
-1.90958e-14
8.65974e-15
3.55271e-15
-1.42109e-14
-1.24345e-14
5.10703e-15
-1.13243e-14
-1.39888e-14
1.42109e-14
1.4877e-14
-1.9762e-14
1.35447e-14
1.66533e-14
3.55271e-15
-1.79856e-14
4.84057e-14
-5.10703e-15
9.10383e-15
1.68754e-14
2.88658e-14
-1.9762e-14
-3.88578e-14
-6.66134e-16
5.9952e-15
1.11022e-14
-1.9984e-15
1.68754e-14
1.46549e-14
1.64313e-14
6.66134e-15
1.44329e-14
-1.66533e-14
1.35447e-14
-1.53211e-14
-3.59712e-14
-1.46549e-14
2.44249e-15
-3.88578e-14
1.24345e-14
-6.88338e-15
-8.65974e-15
2.44249e-15
-1.9984e-15
2.5091e-14
-2.10942e-14
-5.32907e-15
2.66454e-15
7.32747e-15
3.17524e-14
3.88578e-14
-1.77636e-14
-4.66294e-15
1.5099e-14
-4.88498e-15
-1.06581e-14
8.88178e-16
-2.22045e-16
8.21565e-15
2.57572e-14
7.10543e-15
2.57572e-14
-1.04361e-14
-1.11022e-15
2.22045e-14
-3.33067e-15
-4.44089e-15
6.66134e-15
1.06581e-14
-5.55112e-15
-9.76996e-15
1.13243e-14
-1.26565e-14
-4.44089e-16
1.70974e-14
1.55431e-15
-3.08642e-14
1.95399e-14
-2.22045e-16
-6.43929e-15
-2.79776e-14
5.77316e-15
3.75255e-14
5.9952e-15
5.9952e-15
-1.53211e-14
-1.42109e-14
-3.4639e-14
-3.57492e-14
-6.21725e-15
-9.10383e-15
-9.99201e-15
2.22045e-16
-8.88178e-16
-3.10862e-15
2.9976e-14
8.43769e-15
-1.9762e-14
8.65974e-15
-7.54952e-15
1.04361e-14
-2.44249e-15
5.10703e-15
3.9968e-15
-1.24345e-14
1.26565e-14
1.33227e-14
9.99201e-15
1.02141e-14
-1.33227e-15
-4.44089e-15
8.88178e-15
-3.77476e-15
1.9984e-15
1.53211e-14
9.32587e-15
4.21885e-15
2.04281e-14
7.10543e-15
-1.37668e-14
1.02141e-14
-1.24345e-14
2.66454e-15
4.21885e-15
0
5.32907e-15
1.08802e-14
1.53211e-14
-2.22045e-15
3.9968e-15
1.44329e-14
-1.24345e-14
2.10942e-14
-1.22125e-14
-2.42029e-14
1.08802e-14
1.59872e-14
-2.4869e-14
-1.46549e-14
0
1.24345e-14
3.77476e-15
-1.95399e-14
9.10383e-15
-2.22045e-16
-8.88178e-16
1.08802e-14
2.15383e-14
3.01981e-14
-3.55271e-15
2.66454e-15
9.99201e-15
1.31006e-14
-7.99361e-15
1.39888e-14
-1.90958e-14
8.43769e-15
1.93179e-14
4.21885e-15
-2.66454e-15
-1.9762e-14
2.44249e-14
-5.32907e-15
2.88658e-15
-1.06581e-14
-6.66134e-15
2.88658e-15
-1.90958e-14
-2.77556e-14
-4.21885e-15
-1.64313e-14
-9.54792e-15
-9.54792e-15
-2.86438e-14
-1.26565e-14
-2.66454e-15
6.66134e-15
8.65974e-15
-1.9984e-15
6.43929e-15
-9.99201e-15
3.75255e-14
5.55112e-15
4.21885e-15
-1.57652e-14
-2.66454e-15
-1.06581e-14
-1.35447e-14
8.43769e-15
-1.11022e-14
-1.88738e-14
1.33227e-15
-1.4877e-14
-1.33227e-15
2.66454e-15
-2.22045e-14
2.66454e-15
7.77156e-15
1.35447e-14
2.17604e-14
4.44089e-16
-1.33227e-14
-4.44089e-16
-5.77316e-15
-7.77156e-15
2.75335e-14
-6.66134e-15
9.54792e-15
-1.28786e-14
-2.26485e-14
9.76996e-15
-2.88658e-15
-1.70974e-14
1.57652e-14
-2.88658e-15
7.77156e-15
-8.65974e-15
-1.35447e-14
1.11022e-15
4.21885e-15
1.46549e-14
-1.82077e-14
6.66134e-15
-3.10862e-15
1.24345e-14
2.66454e-15
0
2.57572e-14
2.42029e-14
6.66134e-15
1.44329e-14
-2.22045e-16
1.35447e-14
2.59792e-14
2.08722e-14
-1.06581e-14
-2.02061e-14
-2.06501e-14
-9.32587e-15
-2.70894e-14
-1.08802e-14
-2.77556e-14
-5.9952e-15
-1.4877e-14
-2.66454e-15
-1.17684e-14
1.86517e-14
-5.77316e-15
-6.66134e-15
1.04361e-14
7.99361e-15
1.55431e-14
2.88658e-15
1.02141e-14
9.54792e-15
5.10703e-15
-1.62093e-14
-2.22045e-16
-9.32587e-15
-2.90878e-14
-3.77476e-15
-3.55271e-15
8.43769e-15
-9.54792e-15
6.88338e-15
-4.06342e-14
2.66454e-15
-3.33067e-15
3.10862e-15
4.08562e-14
-9.99201e-15
1.11022e-14
3.19744e-14
-2.33147e-14
8.88178e-16
2.88658e-15
-1.9762e-14
3.10862e-15
-1.35447e-14
-7.77156e-15
-7.10543e-15
1.88738e-14
1.08802e-14
7.54952e-15
-9.32587e-15
8.43769e-15
1.77636e-15
-7.54952e-15
-2.66454e-14
-8.88178e-15
-2.22045e-14
1.37668e-14
0
-4.44089e-15
-1.82077e-14
7.54952e-15
2.08722e-14
4.44089e-15
1.77636e-14
2.13163e-14
1.90958e-14
6.66134e-15
1.33227e-14
1.15463e-14
4.44089e-15
4.88498e-15
-9.32587e-15
1.24345e-14
5.32907e-15
-7.10543e-15
-5.77316e-15
-1.28786e-14
2.22045e-15
3.55271e-15
6.21725e-15
-3.10862e-15
1.19904e-14
-5.32907e-15
-8.43769e-15
0
-7.99361e-15
-1.15463e-14
-8.88178e-16
1.68754e-14
-1.06581e-14
3.55271e-14
1.5099e-14
1.06581e-14
-1.06581e-14
-2.57572e-14
5.32907e-15
7.99361e-15
-3.9968e-14
2.26485e-14
4.88498e-15
-9.32587e-15
2.9754e-14
-8.43769e-15
8.88178e-16
1.33227e-15
2.66454e-15
-7.10543e-15
-1.37668e-14
-3.10862e-15
4.44089e-15
-1.06581e-14
-1.77636e-15
-1.37668e-14
1.86517e-14
1.33227e-15
1.73195e-14
-1.02141e-14
-2.22045e-15
8.43769e-15
-9.76996e-15
-1.33227e-14
-3.55271e-15
7.99361e-15
-3.55271e-15
-1.55431e-14
-1.59872e-14
1.68754e-14
-1.95399e-14
8.88178e-15
9.32587e-15
3.55271e-15
3.55271e-15
5.77316e-15
-7.54952e-15
8.88178e-15
7.54952e-15
5.77316e-15
8.88178e-15
-1.33227e-15
-7.10543e-15
2.22045e-14
1.33227e-15
2.22045e-15
9.76996e-15
3.9968e-15
1.90958e-14
2.04281e-14
-6.66134e-15
6.21725e-15
6.21725e-15
-3.15303e-14
-1.9984e-14
-1.59872e-14
-2.66454e-15
6.66134e-15
-1.5099e-14
2.66454e-15
5.32907e-15
-1.5099e-14
3.10862e-15
9.32587e-15
-3.41949e-14
-5.32907e-15
9.76996e-15
-7.99361e-15
1.19904e-14
8.88178e-16
-1.33227e-15
2.22045e-15
2.66454e-15
1.19904e-14
-8.43769e-15
2.22045e-14
1.37668e-14
8.43769e-15
-7.54952e-15
5.77316e-15
-1.06581e-14
-2.22045e-14
1.59872e-14
1.59872e-14
3.9968e-15
-1.77636e-14
-7.99361e-15
2.08722e-14
5.77316e-15
-7.99361e-15
1.46549e-14
-1.68754e-14
-7.10543e-15
8.88178e-16
1.37668e-14
-1.15463e-14
1.86517e-14
8.43769e-15
5.77316e-15
-5.32907e-15
-1.33227e-14
-1.55431e-14
-4.44089e-16
-1.82077e-14
1.06581e-14
1.77636e-15
-2.22045e-15
-2.22045e-15
-1.02141e-14
9.32587e-15
3.55271e-15
-5.77316e-15
-6.21725e-15
1.59872e-14
3.9968e-15
1.59872e-14
1.24345e-14
-9.76996e-15
2.17604e-14
-1.95399e-14
8.88178e-15
-3.9968e-15
-3.9968e-15
9.76996e-15
1.02141e-14
1.11022e-14
1.24345e-14
-9.76996e-15
-2.04281e-14
4.44089e-16
1.64313e-14
0
-3.9968e-15
-6.66134e-15
1.33227e-15
-1.42109e-14
-4.88498e-15
2.22045e-15
-1.33227e-15
-2.75335e-14
5.77316e-15
1.15463e-14
-5.32907e-15
-2.53131e-14
6.21725e-15
2.08722e-14
-3.10862e-15
-8.88178e-15
2.66454e-15
-1.33227e-14
-1.24345e-14
1.55431e-14
-3.10862e-15
0
-1.77636e-14
1.15463e-14
-6.21725e-15
-2.62013e-14
-1.55431e-14
-7.54952e-15
4.44089e-15
1.9984e-14
-4.88498e-15
-3.9968e-15
-3.10862e-15
-3.10862e-15
8.43769e-15
1.68754e-14
7.99361e-15
-2.30926e-14
1.77636e-15
-7.54952e-15
8.88178e-16
-2.66454e-15
1.15463e-14
-5.32907e-15
-1.37668e-14
-4.44089e-15
3.9968e-15
5.77316e-15
-1.73195e-14
1.77636e-14
1.06581e-14
-1.28786e-14
4.88498e-15
-5.32907e-15
-1.68754e-14
1.42109e-14
4.44089e-15
-1.11022e-14
-3.55271e-15
-1.42109e-14
-1.33227e-15
-4.88498e-15
-3.55271e-15
7.10543e-15
-9.32587e-15
1.77636e-15
-7.10543e-15
3.19744e-14
-2.22045e-15
3.9968e-15
-3.55271e-15
2.57572e-14
-2.53131e-14
-1.06581e-14
3.55271e-15
-1.59872e-14