/*--------------------------------*- C++ -*----------------------------------*\
| =========                 |                                                 |
| \\      /  F ield         | foam-extend: Open Source CFD                    |
|  \\    /   O peration     | Version:     4.0                                |
|   \\  /    A nd           | Web:         http://www.foam-extend.org         |
|    \\/     M anipulation  |                                                 |
\*---------------------------------------------------------------------------*/
FoamFile
{
    version     2.0;
    format      ascii;
    class       volScalarField;
    location    "950";
    object      cMinus;
}
// * * * * * * * * * * * * * * * * * * * * * * * * * * * * * * * * * * * * * //

dimensions      [0 0 0 0 0 0 0];

internalField   nonuniform List<scalar> 
6960
(
9.15961e-23
9.14333e-23
9.14183e-23
9.13922e-23
9.13618e-23
9.13294e-23
9.1296e-23
9.12622e-23
9.12284e-23
9.1195e-23
9.11622e-23
9.11301e-23
9.10991e-23
9.10693e-23
9.10409e-23
9.10139e-23
9.09884e-23
9.09647e-23
9.09427e-23
9.09225e-23
9.09041e-23
9.08875e-23
9.08729e-23
9.086e-23
9.08491e-23
9.084e-23
9.08327e-23
9.08273e-23
9.08236e-23
9.08218e-23
9.08218e-23
9.08236e-23
9.08273e-23
9.08327e-23
9.084e-23
9.08491e-23
9.086e-23
9.08729e-23
9.08875e-23
9.09041e-23
9.09225e-23
9.09427e-23
9.09647e-23
9.09884e-23
9.10139e-23
9.10409e-23
9.10693e-23
9.10991e-23
9.11301e-23
9.11622e-23
9.1195e-23
9.12284e-23
9.12622e-23
9.1296e-23
9.13294e-23
9.13618e-23
9.13922e-23
9.14183e-23
9.14333e-23
9.15961e-23
4.24548e-22
4.24365e-22
4.24183e-22
4.23978e-22
4.23789e-22
4.23622e-22
4.23476e-22
4.23347e-22
4.23234e-22
4.23132e-22
4.23041e-22
4.22959e-22
4.22884e-22
4.22816e-22
4.22754e-22
4.22697e-22
4.22645e-22
4.22597e-22
4.22555e-22
4.22516e-22
4.22481e-22
4.22451e-22
4.22424e-22
4.224e-22
4.22381e-22
4.22364e-22
4.22351e-22
4.22342e-22
4.22335e-22
4.22332e-22
4.22332e-22
4.22335e-22
4.22342e-22
4.22351e-22
4.22364e-22
4.22381e-22
4.224e-22
4.22424e-22
4.22451e-22
4.22481e-22
4.22516e-22
4.22555e-22
4.22597e-22
4.22645e-22
4.22697e-22
4.22754e-22
4.22816e-22
4.22884e-22
4.22959e-22
4.23041e-22
4.23132e-22
4.23234e-22
4.23347e-22
4.23476e-22
4.23622e-22
4.23789e-22
4.23978e-22
4.24183e-22
4.24365e-22
4.24548e-22
1.645e-21
1.64478e-21
1.64433e-21
1.64375e-21
1.6432e-21
1.6427e-21
1.64225e-21
1.64184e-21
1.64148e-21
1.64115e-21
1.64085e-21
1.64058e-21
1.64033e-21
1.64011e-21
1.6399e-21
1.63971e-21
1.63953e-21
1.63937e-21
1.63923e-21
1.6391e-21
1.63898e-21
1.63888e-21
1.63879e-21
1.63872e-21
1.63865e-21
1.6386e-21
1.63855e-21
1.63852e-21
1.6385e-21
1.63849e-21
1.63849e-21
1.6385e-21
1.63852e-21
1.63855e-21
1.6386e-21
1.63865e-21
1.63872e-21
1.63879e-21
1.63888e-21
1.63898e-21
1.6391e-21
1.63923e-21
1.63937e-21
1.63953e-21
1.63971e-21
1.6399e-21
1.64011e-21
1.64033e-21
1.64058e-21
1.64085e-21
1.64115e-21
1.64148e-21
1.64184e-21
1.64225e-21
1.6427e-21
1.6432e-21
1.64375e-21
1.64433e-21
1.64478e-21
1.645e-21
6.14783e-21
6.14856e-21
6.1481e-21
6.14701e-21
6.14579e-21
6.14458e-21
6.14341e-21
6.14229e-21
6.14123e-21
6.14023e-21
6.13929e-21
6.13841e-21
6.13759e-21
6.13683e-21
6.13612e-21
6.13546e-21
6.13486e-21
6.13431e-21
6.13381e-21
6.13336e-21
6.13296e-21
6.1326e-21
6.13229e-21
6.13201e-21
6.13178e-21
6.13159e-21
6.13144e-21
6.13133e-21
6.13125e-21
6.13122e-21
6.13122e-21
6.13125e-21
6.13133e-21
6.13144e-21
6.13159e-21
6.13178e-21
6.13201e-21
6.13229e-21
6.1326e-21
6.13296e-21
6.13336e-21
6.13381e-21
6.13431e-21
6.13486e-21
6.13546e-21
6.13612e-21
6.13683e-21
6.13759e-21
6.13841e-21
6.13929e-21
6.14023e-21
6.14123e-21
6.14229e-21
6.14341e-21
6.14458e-21
6.14579e-21
6.14701e-21
6.1481e-21
6.14856e-21
6.14783e-21
2.32399e-20
2.32488e-20
2.32522e-20
2.32523e-20
2.32512e-20
2.32493e-20
2.32469e-20
2.32443e-20
2.32415e-20
2.32387e-20
2.32358e-20
2.32331e-20
2.32304e-20
2.32279e-20
2.32255e-20
2.32232e-20
2.32212e-20
2.32193e-20
2.32175e-20
2.3216e-20
2.32145e-20
2.32133e-20
2.32122e-20
2.32112e-20
2.32104e-20
2.32097e-20
2.32092e-20
2.32088e-20
2.32085e-20
2.32084e-20
2.32084e-20
2.32085e-20
2.32088e-20
2.32092e-20
2.32097e-20
2.32104e-20
2.32112e-20
2.32122e-20
2.32133e-20
2.32145e-20
2.3216e-20
2.32175e-20
2.32193e-20
2.32212e-20
2.32232e-20
2.32255e-20
2.32279e-20
2.32304e-20
2.32331e-20
2.32358e-20
2.32387e-20
2.32415e-20
2.32443e-20
2.32469e-20
2.32493e-20
2.32512e-20
2.32523e-20
2.32522e-20
2.32488e-20
2.32399e-20
9.0134e-20
9.01939e-20
9.02272e-20
9.02452e-20
9.02548e-20
9.02584e-20
9.02577e-20
9.02539e-20
9.02481e-20
9.02409e-20
9.02329e-20
9.02245e-20
9.0216e-20
9.02078e-20
9.01998e-20
9.01922e-20
9.01851e-20
9.01785e-20
9.01724e-20
9.01669e-20
9.0162e-20
9.01575e-20
9.01536e-20
9.01502e-20
9.01474e-20
9.0145e-20
9.01431e-20
9.01417e-20
9.01408e-20
9.01403e-20
9.01403e-20
9.01408e-20
9.01417e-20
9.01431e-20
9.0145e-20
9.01474e-20
9.01502e-20
9.01536e-20
9.01575e-20
9.0162e-20
9.01669e-20
9.01724e-20
9.01785e-20
9.01851e-20
9.01922e-20
9.01998e-20
9.02078e-20
9.0216e-20
9.02245e-20
9.02329e-20
9.02409e-20
9.02481e-20
9.02539e-20
9.02577e-20
9.02584e-20
9.02548e-20
9.02452e-20
9.02272e-20
9.01939e-20
9.0134e-20
3.60216e-19
3.6056e-19
3.60778e-19
3.60921e-19
3.61017e-19
3.61077e-19
3.61109e-19
3.61122e-19
3.61119e-19
3.61106e-19
3.61087e-19
3.61063e-19
3.61038e-19
3.61011e-19
3.60985e-19
3.60959e-19
3.60935e-19
3.60912e-19
3.60891e-19
3.60872e-19
3.60854e-19
3.60838e-19
3.60825e-19
3.60813e-19
3.60802e-19
3.60794e-19
3.60787e-19
3.60782e-19
3.60779e-19
3.60777e-19
3.60777e-19
3.60779e-19
3.60782e-19
3.60787e-19
3.60794e-19
3.60802e-19
3.60813e-19
3.60825e-19
3.60838e-19
3.60854e-19
3.60872e-19
3.60891e-19
3.60912e-19
3.60935e-19
3.60959e-19
3.60985e-19
3.61011e-19
3.61038e-19
3.61063e-19
3.61087e-19
3.61106e-19
3.61119e-19
3.61122e-19
3.61109e-19
3.61077e-19
3.61017e-19
3.60921e-19
3.60778e-19
3.6056e-19
3.60216e-19
1.48543e-18
1.48729e-18
1.48855e-18
1.48944e-18
1.49009e-18
1.49053e-18
1.49081e-18
1.49097e-18
1.49105e-18
1.49107e-18
1.49104e-18
1.49099e-18
1.49092e-18
1.49084e-18
1.49075e-18
1.49067e-18
1.49059e-18
1.49051e-18
1.49043e-18
1.49037e-18
1.4903e-18
1.49025e-18
1.4902e-18
1.49016e-18
1.49012e-18
1.49009e-18
1.49007e-18
1.49005e-18
1.49004e-18
1.49003e-18
1.49003e-18
1.49004e-18
1.49005e-18
1.49007e-18
1.49009e-18
1.49012e-18
1.49016e-18
1.4902e-18
1.49025e-18
1.4903e-18
1.49037e-18
1.49043e-18
1.49051e-18
1.49059e-18
1.49067e-18
1.49075e-18
1.49084e-18
1.49092e-18
1.49099e-18
1.49104e-18
1.49107e-18
1.49105e-18
1.49097e-18
1.49081e-18
1.49053e-18
1.49009e-18
1.48944e-18
1.48855e-18
1.48729e-18
1.48543e-18
6.32297e-18
6.33282e-18
6.33971e-18
6.34487e-18
6.34868e-18
6.3514e-18
6.35327e-18
6.35448e-18
6.3552e-18
6.35558e-18
6.35571e-18
6.35567e-18
6.35552e-18
6.3553e-18
6.35505e-18
6.35477e-18
6.3545e-18
6.35422e-18
6.35397e-18
6.35373e-18
6.35351e-18
6.35331e-18
6.35313e-18
6.35298e-18
6.35285e-18
6.35274e-18
6.35266e-18
6.35259e-18
6.35255e-18
6.35253e-18
6.35253e-18
6.35255e-18
6.35259e-18
6.35266e-18
6.35274e-18
6.35285e-18
6.35298e-18
6.35313e-18
6.35331e-18
6.35351e-18
6.35373e-18
6.35397e-18
6.35422e-18
6.3545e-18
6.35477e-18
6.35505e-18
6.3553e-18
6.35552e-18
6.35567e-18
6.35571e-18
6.35558e-18
6.3552e-18
6.35448e-18
6.35327e-18
6.3514e-18
6.34868e-18
6.34487e-18
6.33971e-18
6.33282e-18
6.32297e-18
2.77795e-17
2.78312e-17
2.78685e-17
2.78972e-17
2.79189e-17
2.79347e-17
2.79458e-17
2.79534e-17
2.79584e-17
2.79614e-17
2.7963e-17
2.79637e-17
2.79637e-17
2.79633e-17
2.79626e-17
2.79618e-17
2.79609e-17
2.796e-17
2.79591e-17
2.79583e-17
2.79575e-17
2.79568e-17
2.79561e-17
2.79556e-17
2.79551e-17
2.79547e-17
2.79544e-17
2.79542e-17
2.7954e-17
2.79539e-17
2.79539e-17
2.7954e-17
2.79542e-17
2.79544e-17
2.79547e-17
2.79551e-17
2.79556e-17
2.79561e-17
2.79568e-17
2.79575e-17
2.79583e-17
2.79591e-17
2.796e-17
2.79609e-17
2.79618e-17
2.79626e-17
2.79633e-17
2.79637e-17
2.79637e-17
2.7963e-17
2.79614e-17
2.79584e-17
2.79534e-17
2.79458e-17
2.79347e-17
2.79189e-17
2.78972e-17
2.78685e-17
2.78312e-17
2.77795e-17
1.25906e-16
1.26178e-16
1.2638e-16
1.26538e-16
1.26659e-16
1.26748e-16
1.26813e-16
1.26858e-16
1.26888e-16
1.26908e-16
1.2692e-16
1.26927e-16
1.2693e-16
1.2693e-16
1.26929e-16
1.26927e-16
1.26925e-16
1.26922e-16
1.26919e-16
1.26916e-16
1.26913e-16
1.26911e-16
1.26908e-16
1.26906e-16
1.26905e-16
1.26903e-16
1.26902e-16
1.26901e-16
1.26901e-16
1.269e-16
1.269e-16
1.26901e-16
1.26901e-16
1.26902e-16
1.26903e-16
1.26905e-16
1.26906e-16
1.26908e-16
1.26911e-16
1.26913e-16
1.26916e-16
1.26919e-16
1.26922e-16
1.26925e-16
1.26927e-16
1.26929e-16
1.2693e-16
1.2693e-16
1.26927e-16
1.2692e-16
1.26908e-16
1.26888e-16
1.26858e-16
1.26813e-16
1.26748e-16
1.26659e-16
1.26538e-16
1.2638e-16
1.26178e-16
1.25906e-16
5.88155e-16
5.89596e-16
5.90697e-16
5.91571e-16
5.92242e-16
5.92744e-16
5.9311e-16
5.9337e-16
5.9355e-16
5.93671e-16
5.9375e-16
5.93799e-16
5.93827e-16
5.93841e-16
5.93845e-16
5.93843e-16
5.93837e-16
5.93829e-16
5.93819e-16
5.9381e-16
5.938e-16
5.93791e-16
5.93783e-16
5.93776e-16
5.93769e-16
5.93764e-16
5.9376e-16
5.93757e-16
5.93755e-16
5.93754e-16
5.93754e-16
5.93755e-16
5.93757e-16
5.9376e-16
5.93764e-16
5.93769e-16
5.93776e-16
5.93783e-16
5.93791e-16
5.938e-16
5.9381e-16
5.93819e-16
5.93829e-16
5.93837e-16
5.93843e-16
5.93845e-16
5.93841e-16
5.93827e-16
5.93799e-16
5.9375e-16
5.93671e-16
5.9355e-16
5.9337e-16
5.9311e-16
5.92744e-16
5.92242e-16
5.91571e-16
5.90697e-16
5.89596e-16
5.88155e-16
2.82793e-15
2.83567e-15
2.84173e-15
2.84658e-15
2.85033e-15
2.85316e-15
2.85523e-15
2.85672e-15
2.85777e-15
2.85849e-15
2.85898e-15
2.85929e-15
2.85949e-15
2.85961e-15
2.85967e-15
2.85969e-15
2.85969e-15
2.85967e-15
2.85965e-15
2.85962e-15
2.85958e-15
2.85955e-15
2.85952e-15
2.8595e-15
2.85947e-15
2.85946e-15
2.85944e-15
2.85943e-15
2.85942e-15
2.85942e-15
2.85942e-15
2.85942e-15
2.85943e-15
2.85944e-15
2.85946e-15
2.85947e-15
2.8595e-15
2.85952e-15
2.85955e-15
2.85958e-15
2.85962e-15
2.85965e-15
2.85967e-15
2.85969e-15
2.85969e-15
2.85967e-15
2.85961e-15
2.85949e-15
2.85929e-15
2.85898e-15
2.85849e-15
2.85777e-15
2.85672e-15
2.85523e-15
2.85316e-15
2.85033e-15
2.84658e-15
2.84173e-15
2.83567e-15
2.82793e-15
1.39692e-14
1.40113e-14
1.4045e-14
1.40723e-14
1.40934e-14
1.41094e-14
1.41212e-14
1.41297e-14
1.41358e-14
1.414e-14
1.41429e-14
1.41449e-14
1.41462e-14
1.4147e-14
1.41475e-14
1.41477e-14
1.41478e-14
1.41479e-14
1.41478e-14
1.41477e-14
1.41476e-14
1.41475e-14
1.41474e-14
1.41473e-14
1.41473e-14
1.41472e-14
1.41471e-14
1.41471e-14
1.41471e-14
1.4147e-14
1.4147e-14
1.41471e-14
1.41471e-14
1.41471e-14
1.41472e-14
1.41473e-14
1.41473e-14
1.41474e-14
1.41475e-14
1.41476e-14
1.41477e-14
1.41478e-14
1.41479e-14
1.41478e-14
1.41477e-14
1.41475e-14
1.4147e-14
1.41462e-14
1.41449e-14
1.41429e-14
1.414e-14
1.41358e-14
1.41297e-14
1.41212e-14
1.41094e-14
1.40934e-14
1.40723e-14
1.4045e-14
1.40113e-14
1.39692e-14
7.07225e-14
7.0955e-14
7.11447e-14
7.12988e-14
7.1419e-14
7.151e-14
7.15775e-14
7.16266e-14
7.16618e-14
7.16866e-14
7.17039e-14
7.17157e-14
7.17237e-14
7.17289e-14
7.17322e-14
7.17343e-14
7.17354e-14
7.1736e-14
7.17361e-14
7.17361e-14
7.17359e-14
7.17356e-14
7.17352e-14
7.17349e-14
7.17346e-14
7.17343e-14
7.17341e-14
7.1734e-14
7.17339e-14
7.17338e-14
7.17338e-14
7.17339e-14
7.1734e-14
7.17341e-14
7.17343e-14
7.17346e-14
7.17349e-14
7.17352e-14
7.17356e-14
7.17359e-14
7.17361e-14
7.17361e-14
7.1736e-14
7.17354e-14
7.17343e-14
7.17322e-14
7.17289e-14
7.17237e-14
7.17157e-14
7.17039e-14
7.16866e-14
7.16618e-14
7.16266e-14
7.15775e-14
7.151e-14
7.1419e-14
7.12988e-14
7.11447e-14
7.0955e-14
7.07225e-14
3.65868e-13
3.67166e-13
3.68245e-13
3.69126e-13
3.69814e-13
3.70336e-13
3.70725e-13
3.71009e-13
3.71213e-13
3.71359e-13
3.71461e-13
3.71531e-13
3.7158e-13
3.71612e-13
3.71634e-13
3.71648e-13
3.71656e-13
3.71661e-13
3.71664e-13
3.71665e-13
3.71665e-13
3.71664e-13
3.71664e-13
3.71663e-13
3.71662e-13
3.71661e-13
3.7166e-13
3.71659e-13
3.71659e-13
3.71659e-13
3.71659e-13
3.71659e-13
3.71659e-13
3.7166e-13
3.71661e-13
3.71662e-13
3.71663e-13
3.71664e-13
3.71664e-13
3.71665e-13
3.71665e-13
3.71664e-13
3.71661e-13
3.71656e-13
3.71648e-13
3.71634e-13
3.71612e-13
3.7158e-13
3.71531e-13
3.71461e-13
3.71359e-13
3.71213e-13
3.71009e-13
3.70725e-13
3.70336e-13
3.69814e-13
3.69126e-13
3.68245e-13
3.67166e-13
3.65868e-13
1.92699e-12
1.93431e-12
1.94049e-12
1.94556e-12
1.94952e-12
1.95254e-12
1.95479e-12
1.95644e-12
1.95763e-12
1.95848e-12
1.95908e-12
1.9595e-12
1.95979e-12
1.95999e-12
1.96012e-12
1.96021e-12
1.96027e-12
1.96031e-12
1.96033e-12
1.96034e-12
1.96034e-12
1.96035e-12
1.96035e-12
1.96034e-12
1.96034e-12
1.96034e-12
1.96033e-12
1.96033e-12
1.96033e-12
1.96033e-12
1.96033e-12
1.96033e-12
1.96033e-12
1.96033e-12
1.96034e-12
1.96034e-12
1.96034e-12
1.96035e-12
1.96035e-12
1.96034e-12
1.96034e-12
1.96033e-12
1.96031e-12
1.96027e-12
1.96021e-12
1.96012e-12
1.95999e-12
1.95979e-12
1.9595e-12
1.95908e-12
1.95848e-12
1.95763e-12
1.95644e-12
1.95479e-12
1.95254e-12
1.94952e-12
1.94556e-12
1.94049e-12
1.93431e-12
1.92699e-12
1.02876e-11
1.03291e-11
1.03647e-11
1.03939e-11
1.04168e-11
1.04342e-11
1.04473e-11
1.04568e-11
1.04638e-11
1.04687e-11
1.04723e-11
1.04747e-11
1.04765e-11
1.04777e-11
1.04785e-11
1.04791e-11
1.04794e-11
1.04797e-11
1.04798e-11
1.04799e-11
1.048e-11
1.048e-11
1.048e-11
1.048e-11
1.048e-11
1.048e-11
1.048e-11
1.048e-11
1.048e-11
1.048e-11
1.048e-11
1.048e-11
1.048e-11
1.048e-11
1.048e-11
1.048e-11
1.048e-11
1.048e-11
1.048e-11
1.048e-11
1.04799e-11
1.04798e-11
1.04797e-11
1.04794e-11
1.04791e-11
1.04785e-11
1.04777e-11
1.04765e-11
1.04747e-11
1.04723e-11
1.04687e-11
1.04638e-11
1.04568e-11
1.04473e-11
1.04342e-11
1.04168e-11
1.03939e-11
1.03647e-11
1.03291e-11
1.02876e-11
5.53809e-11
5.56169e-11
5.58212e-11
5.59894e-11
5.61214e-11
5.62221e-11
5.62974e-11
5.63529e-11
5.63931e-11
5.6422e-11
5.64426e-11
5.64572e-11
5.64675e-11
5.64746e-11
5.64796e-11
5.6483e-11
5.64853e-11
5.64868e-11
5.64879e-11
5.64886e-11
5.6489e-11
5.64892e-11
5.64894e-11
5.64894e-11
5.64894e-11
5.64894e-11
5.64894e-11
5.64894e-11
5.64894e-11
5.64894e-11
5.64894e-11
5.64894e-11
5.64894e-11
5.64894e-11
5.64894e-11
5.64894e-11
5.64894e-11
5.64894e-11
5.64892e-11
5.6489e-11
5.64886e-11
5.64879e-11
5.64868e-11
5.64853e-11
5.6483e-11
5.64796e-11
5.64746e-11
5.64675e-11
5.64572e-11
5.64426e-11
5.6422e-11
5.63931e-11
5.63529e-11
5.62974e-11
5.62221e-11
5.61214e-11
5.59894e-11
5.58212e-11
5.56169e-11
5.53809e-11
2.98795e-10
3.00129e-10
3.01296e-10
3.02257e-10
3.03012e-10
3.03589e-10
3.04021e-10
3.04339e-10
3.0457e-10
3.04737e-10
3.04856e-10
3.04941e-10
3.05001e-10
3.05042e-10
3.05072e-10
3.05092e-10
3.05106e-10
3.05116e-10
3.05122e-10
3.05127e-10
3.05129e-10
3.05131e-10
3.05132e-10
3.05133e-10
3.05133e-10
3.05134e-10
3.05134e-10
3.05134e-10
3.05134e-10
3.05134e-10
3.05134e-10
3.05134e-10
3.05134e-10
3.05134e-10
3.05134e-10
3.05133e-10
3.05133e-10
3.05132e-10
3.05131e-10
3.05129e-10
3.05127e-10
3.05122e-10
3.05116e-10
3.05106e-10
3.05092e-10
3.05072e-10
3.05042e-10
3.05001e-10
3.04941e-10
3.04856e-10
3.04737e-10
3.0457e-10
3.04339e-10
3.04021e-10
3.03589e-10
3.03012e-10
3.02257e-10
3.01296e-10
3.00129e-10
2.98795e-10
1.60432e-09
1.61178e-09
1.61834e-09
1.62376e-09
1.62802e-09
1.63127e-09
1.63371e-09
1.63551e-09
1.63682e-09
1.63777e-09
1.63845e-09
1.63893e-09
1.63927e-09
1.63951e-09
1.63968e-09
1.6398e-09
1.63988e-09
1.63994e-09
1.63998e-09
1.64e-09
1.64002e-09
1.64003e-09
1.64004e-09
1.64005e-09
1.64005e-09
1.64005e-09
1.64005e-09
1.64005e-09
1.64005e-09
1.64005e-09
1.64005e-09
1.64005e-09
1.64005e-09
1.64005e-09
1.64005e-09
1.64005e-09
1.64005e-09
1.64004e-09
1.64003e-09
1.64002e-09
1.64e-09
1.63998e-09
1.63994e-09
1.63988e-09
1.6398e-09
1.63968e-09
1.63951e-09
1.63927e-09
1.63893e-09
1.63845e-09
1.63777e-09
1.63682e-09
1.63551e-09
1.63371e-09
1.63127e-09
1.62802e-09
1.62376e-09
1.61834e-09
1.61178e-09
1.60432e-09
8.5039e-09
8.54473e-09
8.58088e-09
8.61072e-09
8.6342e-09
8.65216e-09
8.66562e-09
8.67556e-09
8.68281e-09
8.68805e-09
8.69181e-09
8.6945e-09
8.6964e-09
8.69776e-09
8.69871e-09
8.69938e-09
8.69985e-09
8.70018e-09
8.70041e-09
8.70057e-09
8.70068e-09
8.70075e-09
8.7008e-09
8.70083e-09
8.70085e-09
8.70087e-09
8.70088e-09
8.70088e-09
8.70088e-09
8.70088e-09
8.70088e-09
8.70088e-09
8.70088e-09
8.70088e-09
8.70087e-09
8.70085e-09
8.70083e-09
8.7008e-09
8.70075e-09
8.70068e-09
8.70057e-09
8.70041e-09
8.70018e-09
8.69985e-09
8.69938e-09
8.69871e-09
8.69776e-09
8.6964e-09
8.6945e-09
8.69181e-09
8.68805e-09
8.68281e-09
8.67556e-09
8.66562e-09
8.65216e-09
8.6342e-09
8.61072e-09
8.58088e-09
8.54473e-09
8.5039e-09
4.4097e-08
4.4314e-08
4.45069e-08
4.46662e-08
4.47915e-08
4.48874e-08
4.49594e-08
4.50125e-08
4.50513e-08
4.50794e-08
4.50996e-08
4.51141e-08
4.51244e-08
4.51317e-08
4.51368e-08
4.51405e-08
4.51431e-08
4.51449e-08
4.51462e-08
4.51471e-08
4.51477e-08
4.51481e-08
4.51484e-08
4.51486e-08
4.51488e-08
4.51488e-08
4.51489e-08
4.51489e-08
4.5149e-08
4.5149e-08
4.5149e-08
4.5149e-08
4.51489e-08
4.51489e-08
4.51488e-08
4.51488e-08
4.51486e-08
4.51484e-08
4.51481e-08
4.51477e-08
4.51471e-08
4.51462e-08
4.51449e-08
4.51431e-08
4.51405e-08
4.51368e-08
4.51317e-08
4.51244e-08
4.51141e-08
4.50996e-08
4.50794e-08
4.50513e-08
4.50125e-08
4.49594e-08
4.48874e-08
4.47915e-08
4.46662e-08
4.45069e-08
4.4314e-08
4.4097e-08
2.21443e-07
2.2255e-07
2.23537e-07
2.24352e-07
2.24993e-07
2.25484e-07
2.25852e-07
2.26125e-07
2.26324e-07
2.26468e-07
2.26572e-07
2.26646e-07
2.26699e-07
2.26737e-07
2.26764e-07
2.26783e-07
2.26796e-07
2.26806e-07
2.26813e-07
2.26818e-07
2.26821e-07
2.26823e-07
2.26825e-07
2.26826e-07
2.26827e-07
2.26827e-07
2.26828e-07
2.26828e-07
2.26828e-07
2.26828e-07
2.26828e-07
2.26828e-07
2.26828e-07
2.26828e-07
2.26827e-07
2.26827e-07
2.26826e-07
2.26825e-07
2.26823e-07
2.26821e-07
2.26818e-07
2.26813e-07
2.26806e-07
2.26796e-07
2.26783e-07
2.26764e-07
2.26737e-07
2.26699e-07
2.26646e-07
2.26572e-07
2.26468e-07
2.26324e-07
2.26125e-07
2.25852e-07
2.25484e-07
2.24993e-07
2.24352e-07
2.23537e-07
2.2255e-07
2.21443e-07
1.06492e-06
1.07028e-06
1.07507e-06
1.07901e-06
1.08212e-06
1.0845e-06
1.08628e-06
1.0876e-06
1.08857e-06
1.08927e-06
1.08977e-06
1.09013e-06
1.09039e-06
1.09058e-06
1.09071e-06
1.0908e-06
1.09087e-06
1.09092e-06
1.09095e-06
1.09098e-06
1.09099e-06
1.09101e-06
1.09101e-06
1.09102e-06
1.09102e-06
1.09103e-06
1.09103e-06
1.09103e-06
1.09103e-06
1.09103e-06
1.09103e-06
1.09103e-06
1.09103e-06
1.09103e-06
1.09103e-06
1.09102e-06
1.09102e-06
1.09101e-06
1.09101e-06
1.09099e-06
1.09098e-06
1.09095e-06
1.09092e-06
1.09087e-06
1.0908e-06
1.09071e-06
1.09058e-06
1.09039e-06
1.09013e-06
1.08977e-06
1.08927e-06
1.08857e-06
1.0876e-06
1.08628e-06
1.0845e-06
1.08212e-06
1.07901e-06
1.07507e-06
1.07028e-06
1.06492e-06
4.84458e-06
4.86889e-06
4.89056e-06
4.90842e-06
4.92247e-06
4.93323e-06
4.94131e-06
4.94729e-06
4.95167e-06
4.95485e-06
4.95714e-06
4.95879e-06
4.95997e-06
4.96081e-06
4.96142e-06
4.96185e-06
4.96216e-06
4.96238e-06
4.96253e-06
4.96264e-06
4.96272e-06
4.96278e-06
4.96282e-06
4.96285e-06
4.96287e-06
4.96288e-06
4.96289e-06
4.9629e-06
4.9629e-06
4.9629e-06
4.9629e-06
4.9629e-06
4.9629e-06
4.96289e-06
4.96288e-06
4.96287e-06
4.96285e-06
4.96282e-06
4.96278e-06
4.96272e-06
4.96264e-06
4.96253e-06
4.96238e-06
4.96216e-06
4.96185e-06
4.96142e-06
4.96081e-06
4.95997e-06
4.95879e-06
4.95714e-06
4.95485e-06
4.95167e-06
4.94729e-06
4.94131e-06
4.93323e-06
4.92247e-06
4.90842e-06
4.89056e-06
4.86889e-06
4.84458e-06
2.05725e-05
2.06742e-05
2.07646e-05
2.0839e-05
2.08975e-05
2.09423e-05
2.0976e-05
2.10009e-05
2.10192e-05
2.10325e-05
2.1042e-05
2.10489e-05
2.10539e-05
2.10574e-05
2.106e-05
2.10618e-05
2.10631e-05
2.1064e-05
2.10647e-05
2.10652e-05
2.10655e-05
2.10657e-05
2.10659e-05
2.1066e-05
2.10661e-05
2.10662e-05
2.10662e-05
2.10663e-05
2.10663e-05
2.10663e-05
2.10663e-05
2.10663e-05
2.10663e-05
2.10662e-05
2.10662e-05
2.10661e-05
2.1066e-05
2.10659e-05
2.10657e-05
2.10655e-05
2.10652e-05
2.10647e-05
2.1064e-05
2.10631e-05
2.10618e-05
2.106e-05
2.10574e-05
2.10539e-05
2.10489e-05
2.1042e-05
2.10325e-05
2.10192e-05
2.10009e-05
2.0976e-05
2.09423e-05
2.08975e-05
2.0839e-05
2.07646e-05
2.06742e-05
2.05725e-05
8.03769e-05
8.07622e-05
8.11037e-05
8.13844e-05
8.16052e-05
8.17742e-05
8.19012e-05
8.19953e-05
8.20642e-05
8.21143e-05
8.21505e-05
8.21766e-05
8.21954e-05
8.22088e-05
8.22185e-05
8.22254e-05
8.22304e-05
8.2234e-05
8.22365e-05
8.22384e-05
8.22397e-05
8.22407e-05
8.22413e-05
8.22418e-05
8.22422e-05
8.22424e-05
8.22426e-05
8.22427e-05
8.22428e-05
8.22428e-05
8.22428e-05
8.22428e-05
8.22427e-05
8.22426e-05
8.22424e-05
8.22422e-05
8.22418e-05
8.22413e-05
8.22407e-05
8.22397e-05
8.22384e-05
8.22365e-05
8.2234e-05
8.22304e-05
8.22254e-05
8.22185e-05
8.22088e-05
8.21954e-05
8.21766e-05
8.21505e-05
8.21143e-05
8.20642e-05
8.19953e-05
8.19012e-05
8.17742e-05
8.16052e-05
8.13844e-05
8.11037e-05
8.07622e-05
8.03769e-05
0.000284454
0.000285753
0.0002869
0.000287841
0.000288581
0.000289147
0.000289573
0.000289888
0.00029012
0.000290288
0.000290409
0.000290497
0.00029056
0.000290605
0.000290638
0.000290662
0.000290678
0.000290691
0.000290699
0.000290706
0.00029071
0.000290714
0.000290716
0.000290718
0.000290719
0.00029072
0.00029072
0.000290721
0.000290721
0.000290721
0.000290721
0.000290721
0.000290721
0.00029072
0.00029072
0.000290719
0.000290718
0.000290716
0.000290714
0.00029071
0.000290706
0.000290699
0.000290691
0.000290678
0.000290662
0.000290638
0.000290605
0.00029056
0.000290497
0.000290409
0.000290288
0.00029012
0.000289888
0.000289573
0.000289147
0.000288581
0.000287841
0.0002869
0.000285753
0.000284454
0.000896973
0.000900795
0.000904149
0.000906895
0.000909052
0.000910704
0.000911945
0.000912865
0.00091354
0.000914032
0.000914387
0.000914644
0.000914829
0.000914962
0.000915058
0.000915127
0.000915177
0.000915213
0.000915239
0.000915257
0.000915271
0.000915281
0.000915288
0.000915293
0.000915297
0.0009153
0.000915301
0.000915303
0.000915303
0.000915304
0.000915304
0.000915303
0.000915303
0.000915301
0.0009153
0.000915297
0.000915293
0.000915288
0.000915281
0.000915271
0.000915257
0.000915239
0.000915213
0.000915177
0.000915127
0.000915058
0.000914962
0.000914829
0.000914644
0.000914387
0.000914032
0.00091354
0.000912865
0.000911945
0.000910704
0.000909052
0.000906895
0.000904149
0.000900795
0.000896973
0.00247965
0.00248925
0.00249761
0.00250444
0.0025098
0.00251391
0.002517
0.00251928
0.00252096
0.00252219
0.00252307
0.00252371
0.00252417
0.00252451
0.00252475
0.00252492
0.00252505
0.00252514
0.0025252
0.00252525
0.00252528
0.00252531
0.00252533
0.00252534
0.00252535
0.00252536
0.00252536
0.00252537
0.00252537
0.00252537
0.00252537
0.00252537
0.00252537
0.00252536
0.00252536
0.00252535
0.00252534
0.00252533
0.00252531
0.00252528
0.00252525
0.0025252
0.00252514
0.00252505
0.00252492
0.00252475
0.00252451
0.00252417
0.00252371
0.00252307
0.00252219
0.00252096
0.00251928
0.002517
0.00251391
0.0025098
0.00250444
0.00249761
0.00248925
0.00247965
0.00593012
0.00595033
0.0059678
0.00598204
0.00599321
0.00600175
0.00600818
0.00601295
0.00601645
0.006019
0.00602085
0.00602219
0.00602316
0.00602386
0.00602436
0.00602473
0.00602499
0.00602518
0.00602532
0.00602542
0.0060255
0.00602555
0.00602559
0.00602562
0.00602564
0.00602565
0.00602566
0.00602567
0.00602568
0.00602568
0.00602568
0.00602568
0.00602567
0.00602566
0.00602565
0.00602564
0.00602562
0.00602559
0.00602555
0.0060255
0.00602542
0.00602532
0.00602518
0.00602499
0.00602473
0.00602436
0.00602386
0.00602316
0.00602219
0.00602085
0.006019
0.00601645
0.00601295
0.00600818
0.00600175
0.00599321
0.00598204
0.0059678
0.00595033
0.00593012
0.0121937
0.0122292
0.0122596
0.0122844
0.0123037
0.0123185
0.0123297
0.012338
0.0123441
0.0123485
0.0123517
0.012354
0.0123557
0.012357
0.0123578
0.0123585
0.0123589
0.0123593
0.0123595
0.0123597
0.0123598
0.0123599
0.01236
0.0123601
0.0123601
0.0123601
0.0123601
0.0123601
0.0123602
0.0123602
0.0123602
0.0123602
0.0123601
0.0123601
0.0123601
0.0123601
0.0123601
0.01236
0.0123599
0.0123598
0.0123597
0.0123595
0.0123593
0.0123589
0.0123585
0.0123578
0.012357
0.0123557
0.012354
0.0123517
0.0123485
0.0123441
0.012338
0.0123297
0.0123185
0.0123037
0.0122844
0.0122596
0.0122292
0.0121937
0.0216709
0.0217236
0.0217682
0.0218044
0.0218327
0.0218544
0.0218707
0.0218828
0.0218917
0.0218983
0.021903
0.0219064
0.0219089
0.0219107
0.021912
0.021913
0.0219137
0.0219142
0.0219145
0.0219148
0.021915
0.0219151
0.0219152
0.0219153
0.0219154
0.0219154
0.0219154
0.0219155
0.0219155
0.0219155
0.0219155
0.0219155
0.0219155
0.0219154
0.0219154
0.0219154
0.0219153
0.0219152
0.0219151
0.021915
0.0219148
0.0219145
0.0219142
0.0219137
0.021913
0.021912
0.0219107
0.0219089
0.0219064
0.021903
0.0218983
0.0218917
0.0218828
0.0218707
0.0218544
0.0218327
0.0218044
0.0217682
0.0217236
0.0216709
0.0338713
0.0339394
0.0339965
0.0340426
0.0340787
0.0341064
0.0341272
0.0341427
0.0341541
0.0341624
0.0341685
0.0341729
0.0341761
0.0341784
0.0341801
0.0341813
0.0341822
0.0341828
0.0341833
0.0341837
0.0341839
0.0341841
0.0341843
0.0341844
0.0341844
0.0341845
0.0341845
0.0341846
0.0341846
0.0341846
0.0341846
0.0341846
0.0341846
0.0341845
0.0341845
0.0341844
0.0341844
0.0341843
0.0341841
0.0341839
0.0341837
0.0341833
0.0341828
0.0341822
0.0341813
0.0341801
0.0341784
0.0341761
0.0341729
0.0341685
0.0341624
0.0341541
0.0341427
0.0341272
0.0341064
0.0340787
0.0340426
0.0339965
0.0339394
0.0338713
0.0477573
0.0478375
0.047904
0.0479576
0.0479995
0.0480317
0.0480559
0.0480739
0.0480872
0.048097
0.0481041
0.0481092
0.048113
0.0481157
0.0481177
0.0481191
0.0481202
0.048121
0.0481216
0.048122
0.0481223
0.0481225
0.0481227
0.0481228
0.0481229
0.048123
0.048123
0.0481231
0.0481231
0.0481231
0.0481231
0.0481231
0.0481231
0.048123
0.048123
0.0481229
0.0481228
0.0481227
0.0481225
0.0481223
0.048122
0.0481216
0.048121
0.0481202
0.0481191
0.0481177
0.0481157
0.048113
0.0481092
0.0481041
0.048097
0.0480872
0.0480739
0.0480559
0.0480317
0.0479995
0.0479576
0.047904
0.0478375
0.0477573
0.0623882
0.0624777
0.0625514
0.0626106
0.0626569
0.0626925
0.0627193
0.0627392
0.062754
0.0627648
0.0627727
0.0627785
0.0627827
0.0627858
0.062788
0.0627896
0.0627908
0.0627917
0.0627924
0.0627928
0.0627932
0.0627935
0.0627936
0.0627938
0.0627939
0.062794
0.062794
0.0627941
0.0627941
0.0627941
0.0627941
0.0627941
0.0627941
0.062794
0.062794
0.0627939
0.0627938
0.0627936
0.0627935
0.0627932
0.0627928
0.0627924
0.0627917
0.0627908
0.0627896
0.062788
0.0627858
0.0627827
0.0627785
0.0627727
0.0627648
0.062754
0.0627392
0.0627193
0.0626925
0.0626569
0.0626106
0.0625514
0.0624777
0.0623882
0.0772401
0.0773377
0.0774175
0.0774814
0.0775315
0.0775699
0.0775989
0.0776206
0.0776366
0.0776484
0.077657
0.0776633
0.0776679
0.0776713
0.0776738
0.0776756
0.0776769
0.0776779
0.0776786
0.0776791
0.0776795
0.0776798
0.07768
0.0776802
0.0776803
0.0776804
0.0776805
0.0776805
0.0776805
0.0776805
0.0776805
0.0776805
0.0776805
0.0776805
0.0776804
0.0776803
0.0776802
0.07768
0.0776798
0.0776795
0.0776791
0.0776786
0.0776779
0.0776769
0.0776756
0.0776738
0.0776713
0.0776679
0.0776633
0.077657
0.0776484
0.0776366
0.0776206
0.0775989
0.0775699
0.0775315
0.0774814
0.0774175
0.0773377
0.0772401
0.0921354
0.0922407
0.0923263
0.0923948
0.0924484
0.0924896
0.0925208
0.0925442
0.0925615
0.0925742
0.0925835
0.0925904
0.0925954
0.0925991
0.0926018
0.0926037
0.0926052
0.0926063
0.0926071
0.0926077
0.0926081
0.0926084
0.0926087
0.0926088
0.092609
0.0926091
0.0926092
0.0926092
0.0926092
0.0926092
0.0926092
0.0926092
0.0926092
0.0926092
0.0926091
0.092609
0.0926088
0.0926087
0.0926084
0.0926081
0.0926077
0.0926071
0.0926063
0.0926052
0.0926037
0.0926018
0.0925991
0.0925954
0.0925904
0.0925835
0.0925742
0.0925615
0.0925442
0.0925208
0.0924896
0.0924484
0.0923948
0.0923263
0.0922407
0.0921354
0.107059
0.107172
0.107263
0.107336
0.107394
0.107438
0.107471
0.107496
0.107515
0.107529
0.107539
0.107546
0.107552
0.107556
0.107558
0.107561
0.107562
0.107563
0.107564
0.107565
0.107565
0.107566
0.107566
0.107566
0.107566
0.107566
0.107567
0.107567
0.107567
0.107567
0.107567
0.107567
0.107567
0.107567
0.107566
0.107566
0.107566
0.107566
0.107566
0.107565
0.107565
0.107564
0.107563
0.107562
0.107561
0.107558
0.107556
0.107552
0.107546
0.107539
0.107529
0.107515
0.107496
0.107471
0.107438
0.107394
0.107336
0.107263
0.107172
0.107059
0.122036
0.122157
0.122254
0.122332
0.122393
0.12244
0.122476
0.122503
0.122523
0.122537
0.122548
0.122556
0.122562
0.122566
0.12257
0.122572
0.122574
0.122575
0.122576
0.122577
0.122577
0.122578
0.122578
0.122578
0.122578
0.122578
0.122578
0.122579
0.122579
0.122579
0.122579
0.122579
0.122579
0.122578
0.122578
0.122578
0.122578
0.122578
0.122578
0.122577
0.122577
0.122576
0.122575
0.122574
0.122572
0.12257
0.122566
0.122562
0.122556
0.122548
0.122537
0.122523
0.122503
0.122476
0.12244
0.122393
0.122332
0.122254
0.122157
0.122036
0.137088
0.137216
0.137319
0.137402
0.137467
0.137517
0.137555
0.137584
0.137605
0.137621
0.137632
0.137641
0.137647
0.137652
0.137656
0.137658
0.13766
0.137662
0.137663
0.137663
0.137664
0.137664
0.137665
0.137665
0.137665
0.137665
0.137665
0.137665
0.137665
0.137666
0.137666
0.137665
0.137665
0.137665
0.137665
0.137665
0.137665
0.137665
0.137664
0.137664
0.137663
0.137663
0.137662
0.13766
0.137658
0.137656
0.137652
0.137647
0.137641
0.137632
0.137621
0.137605
0.137584
0.137555
0.137517
0.137467
0.137402
0.137319
0.137216
0.137088
0.152223
0.152358
0.152467
0.152554
0.152623
0.152676
0.152717
0.152747
0.15277
0.152787
0.1528
0.152809
0.152816
0.152821
0.152825
0.152827
0.152829
0.152831
0.152832
0.152833
0.152834
0.152834
0.152834
0.152835
0.152835
0.152835
0.152835
0.152835
0.152835
0.152835
0.152835
0.152835
0.152835
0.152835
0.152835
0.152835
0.152835
0.152834
0.152834
0.152834
0.152833
0.152832
0.152831
0.152829
0.152827
0.152825
0.152821
0.152816
0.152809
0.1528
0.152787
0.15277
0.152747
0.152717
0.152676
0.152623
0.152554
0.152467
0.152358
0.152223
0.167439
0.167581
0.167696
0.167788
0.167861
0.167917
0.16796
0.167992
0.168017
0.168035
0.168048
0.168058
0.168066
0.168071
0.168075
0.168078
0.168081
0.168082
0.168084
0.168085