/*--------------------------------*- C++ -*----------------------------------*\
| =========                 |                                                 |
| \\      /  F ield         | foam-extend: Open Source CFD                    |
|  \\    /   O peration     | Version:     4.0                                |
|   \\  /    A nd           | Web:         http://www.foam-extend.org         |
|    \\/     M anipulation  |                                                 |
\*---------------------------------------------------------------------------*/
FoamFile
{
    version     2.0;
    format      ascii;
    class       volScalarField;
    location    "950";
    object      cPlus;
}
// * * * * * * * * * * * * * * * * * * * * * * * * * * * * * * * * * * * * * //

dimensions      [0 0 0 0 0 0 0];

internalField   nonuniform List<scalar> 
6960
(
0.270337
0.270301
0.270264
0.270233
0.270209
0.27019
0.270175
0.270164
0.270156
0.27015
0.270146
0.270143
0.270141
0.270139
0.270138
0.270137
0.270136
0.270135
0.270135
0.270135
0.270135
0.270134
0.270134
0.270134
0.270134
0.270134
0.270134
0.270134
0.270134
0.270134
0.270134
0.270134
0.270134
0.270134
0.270134
0.270134
0.270134
0.270134
0.270134
0.270135
0.270135
0.270135
0.270135
0.270136
0.270137
0.270138
0.270139
0.270141
0.270143
0.270146
0.27015
0.270156
0.270164
0.270175
0.27019
0.270209
0.270233
0.270264
0.270301
0.270337
0.0732876
0.0732697
0.073251
0.0732351
0.0732224
0.0732126
0.0732052
0.0731996
0.0731955
0.0731925
0.0731902
0.0731886
0.0731873
0.0731865
0.0731858
0.0731853
0.0731849
0.0731846
0.0731844
0.0731843
0.0731842
0.0731841
0.073184
0.0731839
0.0731839
0.0731839
0.0731838
0.0731838
0.0731838
0.0731838
0.0731838
0.0731838
0.0731838
0.0731838
0.0731839
0.0731839
0.0731839
0.073184
0.0731841
0.0731842
0.0731843
0.0731844
0.0731846
0.0731849
0.0731853
0.0731858
0.0731865
0.0731873
0.0731886
0.0731902
0.0731925
0.0731955
0.0731996
0.0732052
0.0732126
0.0732224
0.0732351
0.073251
0.0732697
0.0732876
0.0266303
0.0266249
0.0266187
0.0266134
0.0266091
0.0266057
0.0266032
0.0266012
0.0265998
0.0265988
0.026598
0.0265974
0.026597
0.0265967
0.0265964
0.0265962
0.0265961
0.026596
0.0265959
0.0265959
0.0265958
0.0265958
0.0265958
0.0265958
0.0265957
0.0265957
0.0265957
0.0265957
0.0265957
0.0265957
0.0265957
0.0265957
0.0265957
0.0265957
0.0265957
0.0265957
0.0265958
0.0265958
0.0265958
0.0265958
0.0265959
0.0265959
0.026596
0.0265961
0.0265962
0.0265964
0.0265967
0.026597
0.0265974
0.026598
0.0265988
0.0265998
0.0266012
0.0266032
0.0266057
0.0266091
0.0266134
0.0266187
0.0266249
0.0266303
0.0144663
0.0144669
0.0144666
0.0144663
0.014466
0.0144657
0.0144655
0.0144653
0.0144652
0.0144651
0.014465
0.0144649
0.0144649
0.0144648
0.0144648
0.0144648
0.0144648
0.0144647
0.0144647
0.0144647
0.0144647
0.0144647
0.0144647
0.0144647
0.0144647
0.0144647
0.0144647
0.0144647
0.0144647
0.0144647
0.0144647
0.0144647
0.0144647
0.0144647
0.0144647
0.0144647
0.0144647
0.0144647
0.0144647
0.0144647
0.0144647
0.0144647
0.0144647
0.0144648
0.0144648
0.0144648
0.0144648
0.0144649
0.0144649
0.014465
0.0144651
0.0144652
0.0144653
0.0144655
0.0144657
0.014466
0.0144663
0.0144666
0.0144669
0.0144663
0.0113434
0.0113463
0.0113485
0.0113502
0.0113514
0.0113524
0.0113531
0.0113536
0.011354
0.0113543
0.0113545
0.0113546
0.0113547
0.0113548
0.0113549
0.0113549
0.0113549
0.0113549
0.011355
0.011355
0.011355
0.011355
0.011355
0.011355
0.011355
0.011355
0.011355
0.011355
0.011355
0.011355
0.011355
0.011355
0.011355
0.011355
0.011355
0.011355
0.011355
0.011355
0.011355
0.011355
0.011355
0.011355
0.0113549
0.0113549
0.0113549
0.0113549
0.0113548
0.0113547
0.0113546
0.0113545
0.0113543
0.011354
0.0113536
0.0113531
0.0113524
0.0113514
0.0113502
0.0113485
0.0113463
0.0113434
0.0106248
0.0106287
0.0106317
0.0106341
0.0106359
0.0106374
0.0106384
0.0106392
0.0106397
0.0106402
0.0106405
0.0106407
0.0106408
0.0106409
0.010641
0.0106411
0.0106411
0.0106412
0.0106412
0.0106412
0.0106412
0.0106412
0.0106412
0.0106412
0.0106412
0.0106412
0.0106412
0.0106412
0.0106412
0.0106412
0.0106412
0.0106412
0.0106412
0.0106412
0.0106412
0.0106412
0.0106412
0.0106412
0.0106412
0.0106412
0.0106412
0.0106412
0.0106412
0.0106411
0.0106411
0.010641
0.0106409
0.0106408
0.0106407
0.0106405
0.0106402
0.0106397
0.0106392
0.0106384
0.0106374
0.0106359
0.0106341
0.0106317
0.0106287
0.0106248
0.0105368
0.0105409
0.0105443
0.010547
0.010549
0.0105506
0.0105518
0.0105526
0.0105533
0.0105537
0.0105541
0.0105543
0.0105545
0.0105546
0.0105547
0.0105548
0.0105548
0.0105549
0.0105549
0.0105549
0.0105549
0.0105549
0.0105549
0.0105549
0.0105549
0.010555
0.010555
0.010555
0.010555
0.010555
0.010555
0.010555
0.010555
0.010555
0.010555
0.0105549
0.0105549
0.0105549
0.0105549
0.0105549
0.0105549
0.0105549
0.0105549
0.0105548
0.0105548
0.0105547
0.0105546
0.0105545
0.0105543
0.0105541
0.0105537
0.0105533
0.0105526
0.0105518
0.0105506
0.010549
0.010547
0.0105443
0.0105409
0.0105368
0.0106141
0.0106184
0.0106219
0.0106247
0.0106269
0.0106285
0.0106297
0.0106307
0.0106313
0.0106318
0.0106322
0.0106324
0.0106326
0.0106327
0.0106328
0.0106329
0.0106329
0.010633
0.010633
0.010633
0.0106331
0.0106331
0.0106331
0.0106331
0.0106331
0.0106331
0.0106331
0.0106331
0.0106331
0.0106331
0.0106331
0.0106331
0.0106331
0.0106331
0.0106331
0.0106331
0.0106331
0.0106331
0.0106331
0.0106331
0.010633
0.010633
0.010633
0.0106329
0.0106329
0.0106328
0.0106327
0.0106326
0.0106324
0.0106322
0.0106318
0.0106313
0.0106307
0.0106297
0.0106285
0.0106269
0.0106247
0.0106219
0.0106184
0.0106141
0.010739
0.0107435
0.0107471
0.01075
0.0107522
0.0107539
0.0107551
0.0107561
0.0107567
0.0107572
0.0107576
0.0107579
0.0107581
0.0107582
0.0107583
0.0107584
0.0107584
0.0107585
0.0107585
0.0107585
0.0107585
0.0107585
0.0107586
0.0107586
0.0107586
0.0107586
0.0107586
0.0107586
0.0107586
0.0107586
0.0107586
0.0107586
0.0107586
0.0107586
0.0107586
0.0107586
0.0107586
0.0107586
0.0107585
0.0107585
0.0107585
0.0107585
0.0107585
0.0107584
0.0107584
0.0107583
0.0107582
0.0107581
0.0107579
0.0107576
0.0107572
0.0107567
0.0107561
0.0107551
0.0107539
0.0107522
0.01075
0.0107471
0.0107435
0.010739
0.0108834
0.010888
0.0108916
0.0108946
0.0108968
0.0108986
0.0108999
0.0109008
0.0109015
0.010902
0.0109024
0.0109027
0.0109029
0.010903
0.0109031
0.0109032
0.0109033
0.0109033
0.0109033
0.0109034
0.0109034
0.0109034
0.0109034
0.0109034
0.0109034
0.0109034
0.0109034
0.0109034
0.0109034
0.0109034
0.0109034
0.0109034
0.0109034
0.0109034
0.0109034
0.0109034
0.0109034
0.0109034
0.0109034
0.0109034
0.0109034
0.0109033
0.0109033
0.0109033
0.0109032
0.0109031
0.010903
0.0109029
0.0109027
0.0109024
0.010902
0.0109015
0.0109008
0.0108999
0.0108986
0.0108968
0.0108946
0.0108916
0.010888
0.0108834
0.0110413
0.011046
0.0110498
0.0110528
0.0110551
0.0110569
0.0110582
0.0110592
0.0110599
0.0110604
0.0110608
0.0110611
0.0110613
0.0110615
0.0110616
0.0110616
0.0110617
0.0110617
0.0110618
0.0110618
0.0110618
0.0110618
0.0110618
0.0110618
0.0110618
0.0110618
0.0110618
0.0110618
0.0110618
0.0110618
0.0110618
0.0110618
0.0110618
0.0110618
0.0110618
0.0110618
0.0110618
0.0110618
0.0110618
0.0110618
0.0110618
0.0110618
0.0110617
0.0110617
0.0110616
0.0110616
0.0110615
0.0110613
0.0110611
0.0110608
0.0110604
0.0110599
0.0110592
0.0110582
0.0110569
0.0110551
0.0110528
0.0110498
0.011046
0.0110413
0.0112125
0.0112174
0.0112212
0.0112243
0.0112267
0.0112285
0.0112299
0.0112309
0.0112316
0.0112322
0.0112326
0.0112329
0.0112331
0.0112332
0.0112333
0.0112334
0.0112335
0.0112335
0.0112335
0.0112336
0.0112336
0.0112336
0.0112336
0.0112336
0.0112336
0.0112336
0.0112336
0.0112336
0.0112336
0.0112336
0.0112336
0.0112336
0.0112336
0.0112336
0.0112336
0.0112336
0.0112336
0.0112336
0.0112336
0.0112336
0.0112336
0.0112335
0.0112335
0.0112335
0.0112334
0.0112333
0.0112332
0.0112331
0.0112329
0.0112326
0.0112322
0.0112316
0.0112309
0.0112299
0.0112285
0.0112267
0.0112243
0.0112212
0.0112174
0.0112125
0.0113982
0.0114032
0.0114072
0.0114103
0.0114128
0.0114147
0.0114161
0.0114171
0.0114179
0.0114184
0.0114188
0.0114191
0.0114193
0.0114195
0.0114196
0.0114197
0.0114197
0.0114198
0.0114198
0.0114198
0.0114199
0.0114199
0.0114199
0.0114199
0.0114199
0.0114199
0.0114199
0.0114199
0.0114199
0.0114199
0.0114199
0.0114199
0.0114199
0.0114199
0.0114199
0.0114199
0.0114199
0.0114199
0.0114199
0.0114199
0.0114198
0.0114198
0.0114198
0.0114197
0.0114197
0.0114196
0.0114195
0.0114193
0.0114191
0.0114188
0.0114184
0.0114179
0.0114171
0.0114161
0.0114147
0.0114128
0.0114103
0.0114072
0.0114032
0.0113982
0.0116001
0.0116052
0.0116093
0.0116125
0.0116151
0.011617
0.0116185
0.0116195
0.0116203
0.0116209
0.0116213
0.0116216
0.0116218
0.011622
0.0116221
0.0116222
0.0116223
0.0116223
0.0116223
0.0116224
0.0116224
0.0116224
0.0116224
0.0116224
0.0116224
0.0116224
0.0116224
0.0116224
0.0116224
0.0116224
0.0116224
0.0116224
0.0116224
0.0116224
0.0116224
0.0116224
0.0116224
0.0116224
0.0116224
0.0116224
0.0116224
0.0116223
0.0116223
0.0116223
0.0116222
0.0116221
0.011622
0.0116218
0.0116216
0.0116213
0.0116209
0.0116203
0.0116195
0.0116185
0.011617
0.0116151
0.0116125
0.0116093
0.0116052
0.0116001
0.0118202
0.0118255
0.0118297
0.0118331
0.0118357
0.0118377
0.0118392
0.0118403
0.0118411
0.0118417
0.0118421
0.0118424
0.0118427
0.0118428
0.0118429
0.011843
0.0118431
0.0118431
0.0118432
0.0118432
0.0118432
0.0118432
0.0118433
0.0118433
0.0118433
0.0118433
0.0118433
0.0118433
0.0118433
0.0118433
0.0118433
0.0118433
0.0118433
0.0118433
0.0118433
0.0118433
0.0118433
0.0118433
0.0118432
0.0118432
0.0118432
0.0118432
0.0118431
0.0118431
0.011843
0.0118429
0.0118428
0.0118427
0.0118424
0.0118421
0.0118417
0.0118411
0.0118403
0.0118392
0.0118377
0.0118357
0.0118331
0.0118297
0.0118255
0.0118202
0.0120611
0.0120665
0.0120709
0.0120744
0.0120771
0.0120792
0.0120807
0.0120819
0.0120827
0.0120833
0.0120838
0.0120841
0.0120843
0.0120845
0.0120846
0.0120847
0.0120848
0.0120848
0.0120849
0.0120849
0.0120849
0.0120849
0.0120849
0.012085
0.012085
0.012085
0.012085
0.012085
0.012085
0.012085
0.012085
0.012085
0.012085
0.012085
0.012085
0.012085
0.012085
0.0120849
0.0120849
0.0120849
0.0120849
0.0120849
0.0120848
0.0120848
0.0120847
0.0120846
0.0120845
0.0120843
0.0120841
0.0120838
0.0120833
0.0120827
0.0120819
0.0120807
0.0120792
0.0120771
0.0120744
0.0120709
0.0120665
0.0120611
0.0123257
0.0123314
0.0123359
0.0123395
0.0123424
0.0123445
0.0123461
0.0123473
0.0123482
0.0123488
0.0123493
0.0123496
0.0123499
0.01235
0.0123502
0.0123503
0.0123503
0.0123504
0.0123504
0.0123504
0.0123505
0.0123505
0.0123505
0.0123505
0.0123505
0.0123505
0.0123505
0.0123505
0.0123505
0.0123505
0.0123505
0.0123505
0.0123505
0.0123505
0.0123505
0.0123505
0.0123505
0.0123505
0.0123505
0.0123505
0.0123504
0.0123504
0.0123504
0.0123503
0.0123503
0.0123502
0.01235
0.0123499
0.0123496
0.0123493
0.0123488
0.0123482
0.0123473
0.0123461
0.0123445
0.0123424
0.0123395
0.0123359
0.0123314
0.0123257
0.0126177
0.0126236
0.0126284
0.0126321
0.0126351
0.0126373
0.012639
0.0126402
0.0126411
0.0126418
0.0126423
0.0126426
0.0126429
0.0126431
0.0126432
0.0126433
0.0126434
0.0126434
0.0126435
0.0126435
0.0126435
0.0126436
0.0126436
0.0126436
0.0126436
0.0126436
0.0126436
0.0126436
0.0126436
0.0126436
0.0126436
0.0126436
0.0126436
0.0126436
0.0126436
0.0126436
0.0126436
0.0126436
0.0126436
0.0126435
0.0126435
0.0126435
0.0126434
0.0126434
0.0126433
0.0126432
0.0126431
0.0126429
0.0126426
0.0126423
0.0126418
0.0126411
0.0126402
0.012639
0.0126373
0.0126351
0.0126321
0.0126284
0.0126236
0.0126177
0.0129416
0.0129478
0.0129527
0.0129567
0.0129597
0.0129621
0.0129638
0.0129651
0.0129661
0.0129668
0.0129673
0.0129677
0.0129679
0.0129681
0.0129683
0.0129684
0.0129684
0.0129685
0.0129685
0.0129686
0.0129686
0.0129686
0.0129686
0.0129686
0.0129686
0.0129686
0.0129686
0.0129687
0.0129687
0.0129687
0.0129687
0.0129687
0.0129687
0.0129686
0.0129686
0.0129686
0.0129686
0.0129686
0.0129686
0.0129686
0.0129686
0.0129685
0.0129685
0.0129684
0.0129684
0.0129683
0.0129681
0.0129679
0.0129677
0.0129673
0.0129668
0.0129661
0.0129651
0.0129638
0.0129621
0.0129597
0.0129567
0.0129527
0.0129478
0.0129416
0.0133028
0.0133093
0.0133145
0.0133187
0.0133219
0.0133243
0.0133262
0.0133275
0.0133285
0.0133293
0.0133298
0.0133302
0.0133305
0.0133307
0.0133308
0.0133309
0.013331
0.0133311
0.0133311
0.0133312
0.0133312
0.0133312
0.0133312
0.0133312
0.0133312
0.0133312
0.0133312
0.0133312
0.0133312
0.0133312
0.0133312
0.0133312
0.0133312
0.0133312
0.0133312
0.0133312
0.0133312
0.0133312
0.0133312
0.0133312
0.0133312
0.0133311
0.0133311
0.013331
0.0133309
0.0133308
0.0133307
0.0133305
0.0133302
0.0133298
0.0133293
0.0133285
0.0133275
0.0133262
0.0133243
0.0133219
0.0133187
0.0133145
0.0133093
0.0133028
0.0137083
0.0137152
0.0137206
0.013725
0.0137284
0.013731
0.013733
0.0137344
0.0137355
0.0137362
0.0137368
0.0137372
0.0137375
0.0137377
0.0137379
0.013738
0.0137381
0.0137381
0.0137382
0.0137382
0.0137382
0.0137383
0.0137383
0.0137383
0.0137383
0.0137383
0.0137383
0.0137383
0.0137383
0.0137383
0.0137383
0.0137383
0.0137383
0.0137383
0.0137383
0.0137383
0.0137383
0.0137383
0.0137383
0.0137382
0.0137382
0.0137382
0.0137381
0.0137381
0.013738
0.0137379
0.0137377
0.0137375
0.0137372
0.0137368
0.0137362
0.0137355
0.0137344
0.013733
0.013731
0.0137284
0.013725
0.0137206
0.0137152
0.0137083
0.0141668
0.0141741
0.0141799
0.0141846
0.0141882
0.0141909
0.014193
0.0141945
0.0141957
0.0141965
0.0141971
0.0141975
0.0141978
0.0141981
0.0141982
0.0141984
0.0141984
0.0141985
0.0141986
0.0141986
0.0141986
0.0141986
0.0141987
0.0141987
0.0141987
0.0141987
0.0141987
0.0141987
0.0141987
0.0141987
0.0141987
0.0141987
0.0141987
0.0141987
0.0141987
0.0141987
0.0141987
0.0141987
0.0141986
0.0141986
0.0141986
0.0141986
0.0141985
0.0141984
0.0141984
0.0141982
0.0141981
0.0141978
0.0141975
0.0141971
0.0141965
0.0141957
0.0141945
0.014193
0.0141909
0.0141882
0.0141846
0.0141799
0.0141741
0.0141668
0.0146897
0.0146975
0.0147037
0.0147087
0.0147126
0.0147155
0.0147177
0.0147194
0.0147206
0.0147215
0.0147221
0.0147226
0.0147229
0.0147232
0.0147233
0.0147235
0.0147236
0.0147236
0.0147237
0.0147237
0.0147238
0.0147238
0.0147238
0.0147238
0.0147238
0.0147238
0.0147238
0.0147238
0.0147238
0.0147238
0.0147238
0.0147238
0.0147238
0.0147238
0.0147238
0.0147238
0.0147238
0.0147238
0.0147238
0.0147238
0.0147237
0.0147237
0.0147236
0.0147236
0.0147235
0.0147233
0.0147232
0.0147229
0.0147226
0.0147221
0.0147215
0.0147206
0.0147194
0.0147177
0.0147155
0.0147126
0.0147087
0.0147037
0.0146975
0.0146897
0.015292
0.0153004
0.0153071
0.0153125
0.0153166
0.0153198
0.0153222
0.015324
0.0153253
0.0153262
0.0153269
0.0153274
0.0153278
0.0153281
0.0153283
0.0153284
0.0153285
0.0153286
0.0153286
0.0153287
0.0153287
0.0153287
0.0153288
0.0153288
0.0153288
0.0153288
0.0153288
0.0153288
0.0153288
0.0153288
0.0153288
0.0153288
0.0153288
0.0153288
0.0153288
0.0153288
0.0153288
0.0153288
0.0153287
0.0153287
0.0153287
0.0153286
0.0153286
0.0153285
0.0153284
0.0153283
0.0153281
0.0153278
0.0153274
0.0153269
0.0153262
0.0153253
0.015324
0.0153222
0.0153198
0.0153166
0.0153125
0.0153071
0.0153004
0.015292
0.0159938
0.016003
0.0160103
0.0160161
0.0160207
0.0160241
0.0160267
0.0160287
0.0160301
0.0160311
0.0160319
0.0160324
0.0160328
0.0160331
0.0160333
0.0160335
0.0160336
0.0160337
0.0160337
0.0160338
0.0160338
0.0160338
0.0160339
0.0160339
0.0160339
0.0160339
0.0160339
0.0160339
0.0160339
0.0160339
0.0160339
0.0160339
0.0160339
0.0160339
0.0160339
0.0160339
0.0160339
0.0160339
0.0160338
0.0160338
0.0160338
0.0160337
0.0160337
0.0160336
0.0160335
0.0160333
0.0160331
0.0160328
0.0160324
0.0160319
0.0160311
0.0160301
0.0160287
0.0160267
0.0160241
0.0160207
0.0160161
0.0160103
0.016003
0.0159938
0.0168229
0.0168331
0.0168411
0.0168475
0.0168526
0.0168564
0.0168593
0.0168614
0.016863
0.0168641
0.0168649
0.0168655
0.016866
0.0168663
0.0168665
0.0168667
0.0168668
0.0168669
0.016867
0.016867
0.0168671
0.0168671
0.0168671
0.0168671
0.0168672
0.0168672
0.0168672
0.0168672
0.0168672
0.0168672
0.0168672
0.0168672
0.0168672
0.0168672
0.0168672
0.0168672
0.0168671
0.0168671
0.0168671
0.0168671
0.016867
0.016867
0.0168669
0.0168668
0.0168667
0.0168665
0.0168663
0.016866
0.0168655
0.0168649
0.0168641
0.016863
0.0168614
0.0168593
0.0168564
0.0168526
0.0168475
0.0168411
0.0168331
0.0168229
0.0178189
0.0178302
0.0178392
0.0178464
0.017852
0.0178563
0.0178595
0.0178619
0.0178637
0.017865
0.0178659
0.0178666
0.0178671
0.0178674
0.0178677
0.0178679
0.017868
0.0178681
0.0178682
0.0178683
0.0178683
0.0178683
0.0178684
0.0178684
0.0178684
0.0178684
0.0178684
0.0178684
0.0178684
0.0178684
0.0178684
0.0178684
0.0178684
0.0178684
0.0178684
0.0178684
0.0178684
0.0178684
0.0178683
0.0178683
0.0178683
0.0178682
0.0178681
0.017868
0.0178679
0.0178677
0.0178674
0.0178671
0.0178666
0.0178659
0.017865
0.0178637
0.0178619
0.0178595
0.0178563
0.017852
0.0178464
0.0178392
0.0178302
0.0178189
0.0190392
0.019052
0.0190623
0.0190706
0.019077
0.0190819
0.0190856
0.0190883
0.0190903
0.0190918
0.0190928
0.0190936
0.0190942
0.0190946
0.0190949
0.0190951
0.0190953
0.0190954
0.0190955
0.0190955
0.0190956
0.0190956
0.0190957
0.0190957
0.0190957
0.0190957
0.0190957
0.0190957
0.0190957
0.0190957
0.0190957
0.0190957
0.0190957
0.0190957
0.0190957
0.0190957
0.0190957
0.0190957
0.0190956
0.0190956
0.0190955
0.0190955
0.0190954
0.0190953
0.0190951
0.0190949
0.0190946
0.0190942
0.0190936
0.0190928
0.0190918
0.0190903
0.0190883
0.0190856
0.0190819
0.019077
0.0190706
0.0190623
0.019052
0.0190392
0.0205699
0.0205849
0.0205969
0.0206066
0.0206141
0.0206198
0.0206241
0.0206273
0.0206297
0.0206314
0.0206326
0.0206336
0.0206342
0.0206347
0.020635
0.0206353
0.0206355
0.0206356
0.0206357
0.0206358
0.0206359
0.0206359
0.0206359
0.0206359
0.020636
0.020636
0.020636
0.020636
0.020636
0.020636
0.020636
0.020636
0.020636
0.020636
0.020636
0.020636
0.0206359
0.0206359
0.0206359
0.0206359
0.0206358
0.0206357
0.0206356
0.0206355
0.0206353
0.020635
0.0206347
0.0206342
0.0206336
0.0206326
0.0206314
0.0206297
0.0206273
0.0206241
0.0206198
0.0206141
0.0206066
0.0205969
0.0205849
0.0205699
0.0225413
0.0225592
0.0225737
0.0225853
0.0225943
0.0226012
0.0226064
0.0226103
0.0226131
0.0226152
0.0226167
0.0226178
0.0226186
0.0226192
0.0226196
0.0226199
0.0226201
0.0226203
0.0226204
0.0226205
0.0226206
0.0226206
0.0226206
0.0226207
0.0226207
0.0226207
0.0226207
0.0226207
0.0226207
0.0226207
0.0226207
0.0226207
0.0226207
0.0226207
0.0226207
0.0226207
0.0226207
0.0226206
0.0226206
0.0226206
0.0226205
0.0226204
0.0226203
0.0226201
0.0226199
0.0226196
0.0226192
0.0226186
0.0226178
0.0226167
0.0226152
0.0226131
0.0226103
0.0226064
0.0226012
0.0225943
0.0225853
0.0225737
0.0225592
0.0225413
0.0251467
0.0251689
0.0251868
0.0252012
0.0252124
0.025221
0.0252274
0.0252322
0.0252357
0.0252383
0.0252402
0.0252415
0.0252425
0.0252433
0.0252438
0.0252442
0.0252444
0.0252446
0.0252448
0.0252449
0.025245
0.025245
0.0252451
0.0252451
0.0252452
0.0252452
0.0252452
0.0252452
0.0252452
0.0252452
0.0252452
0.0252452
0.0252452
0.0252452
0.0252452
0.0252452
0.0252451
0.0252451
0.025245
0.025245
0.0252449
0.0252448
0.0252446
0.0252444
0.0252442
0.0252438
0.0252433
0.0252425
0.0252415
0.0252402
0.0252383
0.0252357
0.0252322
0.0252274
0.025221
0.0252124
0.0252012
0.0251868
0.0251689
0.0251467
0.0286565
0.0286846
0.0287074
0.0287256
0.0287399
0.0287508
0.0287591
0.0287652
0.0287697
0.0287729
0.0287753
0.0287771
0.0287783
0.0287793
0.0287799
0.0287804
0.0287808
0.028781
0.0287812
0.0287814
0.0287815
0.0287815
0.0287816
0.0287816
0.0287817
0.0287817
0.0287817
0.0287817
0.0287817
0.0287817
0.0287817
0.0287817
0.0287817
0.0287817
0.0287817
0.0287817
0.0287816
0.0287816
0.0287815
0.0287815
0.0287814
0.0287812
0.028781
0.0287808
0.0287804
0.0287799
0.0287793
0.0287783
0.0287771
0.0287753
0.0287729
0.0287697
0.0287652
0.0287591
0.0287508
0.0287399
0.0287256
0.0287074
0.0286846
0.0286565
0.0334036
0.0334397
0.033469
0.0334926
0.033511
0.0335251
0.0335357
0.0335436
0.0335494
0.0335536
0.0335567
0.033559
0.0335606
0.0335618
0.0335627
0.0335633
0.0335638
0.0335641
0.0335644
0.0335645
0.0335647
0.0335648
0.0335648
0.0335649
0.0335649
0.033565
0.033565
0.033565
0.033565
0.033565
0.033565
0.033565
0.033565
0.033565
0.033565
0.0335649
0.0335649
0.0335648
0.0335648
0.0335647
0.0335645
0.0335644
0.0335641
0.0335638
0.0335633
0.0335627
0.0335618
0.0335606
0.033559
0.0335567
0.0335536
0.0335494
0.0335436
0.0335357
0.0335251
0.033511
0.0334926
0.033469
0.0334397
0.0334036
0.039718
0.039764
0.0398017
0.0398319
0.0398555
0.0398736
0.0398872
0.0398973
0.0399047
0.0399102
0.0399142
0.0399171
0.0399192
0.0399207
0.0399218
0.0399226
0.0399232
0.0399237
0.039924
0.0399242
0.0399244
0.0399245
0.0399246
0.0399247
0.0399247
0.0399248
0.0399248
0.0399248
0.0399248
0.0399248
0.0399248
0.0399248
0.0399248
0.0399248
0.0399248
0.0399247
0.0399247
0.0399246
0.0399245
0.0399244
0.0399242
0.039924
0.0399237
0.0399232
0.0399226
0.0399218
0.0399207
0.0399192
0.0399171
0.0399142
0.0399102
0.0399047
0.0398973
0.0398872
0.0398736
0.0398555
0.0398319
0.0398017
0.039764
0.039718
0.0478131
0.0478707
0.0479178
0.0479556
0.0479851
0.0480077
0.0480248
0.0480375
0.0480468
0.0480537
0.0480587
0.0480623
0.048065
0.0480669
0.0480683
0.0480693
0.0480701
0.0480706
0.048071
0.0480713
0.0480716
0.0480717
0.0480718
0.0480719
0.048072
0.048072
0.0480721
0.0480721
0.0480721
0.0480721
0.0480721
0.0480721
0.0480721
0.0480721
0.048072
0.048072
0.0480719
0.0480718
0.0480717
0.0480716
0.0480713
0.048071
0.0480706
0.0480701
0.0480693
0.0480683
0.0480669
0.048065
0.0480623
0.0480587
0.0480537
0.0480468
0.0480375
0.0480248
0.0480077
0.0479851
0.0479556
0.0479178
0.0478707
0.0478131
0.0576864
0.0577562
0.0578131
0.0578587
0.0578943
0.0579217
0.0579423
0.0579576
0.057969
0.0579773
0.0579834
0.0579878
0.057991
0.0579933
0.0579951
0.0579963
0.0579972
0.0579979
0.0579984
0.0579988
0.057999
0.0579993
0.0579994
0.0579995
0.0579996
0.0579997
0.0579997
0.0579997
0.0579997
0.0579997
0.0579997
0.0579997
0.0579997
0.0579997
0.0579997
0.0579996
0.0579995
0.0579994
0.0579993
0.057999
0.0579988
0.0579984
0.0579979
0.0579972
0.0579963
0.0579951
0.0579933
0.057991
0.0579878
0.0579834
0.0579773
0.057969
0.0579576
0.0579423
0.0579217
0.0578943
0.0578587
0.0578131
0.0577562
0.0576864
0.0691116
0.0691931
0.0692594
0.0693124
0.0693539
0.0693858
0.0694098
0.0694277
0.069441
0.0694507
0.0694578
0.069463
0.0694668
0.0694696
0.0694716
0.0694731
0.0694742
0.069475
0.0694756
0.069476
0.0694763
0.0694766
0.0694767
0.0694769
0.069477
0.069477
0.0694771
0.0694771
0.0694771
0.0694772
0.0694772
0.0694771
0.0694771
0.0694771
0.069477
0.069477
0.0694769
0.0694767
0.0694766
0.0694763
0.069476
0.0694756
0.069475
0.0694742
0.0694731
0.0694716
0.0694696
0.0694668
0.069463
0.0694578
0.0694507
0.069441
0.0694277
0.0694098
0.0693858
0.0693539
0.0693124
0.0692594
0.0691931
0.0691116
0.0817345
0.0818268
0.0819016
0.0819614
0.0820083
0.0820442
0.0820714
0.0820917
0.0821067
0.0821178
0.0821259
0.0821318
0.0821361
0.0821393
0.0821416
0.0821433
0.0821445
0.0821455
0.0821461
0.0821466
0.082147
0.0821473
0.0821475
0.0821477
0.0821478
0.0821479
0.0821479
0.082148
0.082148
0.082148
0.082148
0.082148
0.082148
0.0821479
0.0821479
0.0821478
0.0821477
0.0821475
0.0821473
0.082147
0.0821466
0.0821461
0.0821455
0.0821445
0.0821433
0.0821416
0.0821393
0.0821361
0.0821318
0.0821259
0.0821178
0.0821067
0.0820917
0.0820714
0.0820442
0.0820083
0.0819614
0.0819016
0.0818268
0.0817345
0.0951996
0.0953016
0.0953841
0.09545
0.0955017
0.0955414
0.0955714
0.0955939
0.0956105
0.0956228
0.0956318
0.0956384
0.0956433
0.0956468
0.0956494
0.0956513
0.0956527
0.0956538
0.0956545
0.0956551
0.0956555
0.0956559
0.0956561
0.0956563
0.0956564
0.0956565
0.0956566
0.0956566
0.0956566
0.0956567
0.0956567
0.0956566
0.0956566
0.0956566
0.0956565
0.0956564
0.0956563
0.0956561
0.0956559
0.0956555
0.0956551
0.0956545
0.0956538
0.0956527
0.0956513
0.0956494
0.0956468
0.0956433
0.0956384
0.0956318
0.0956228
0.0956105
0.0955939
0.0955714
0.0955414
0.0955017
0.09545
0.0953841
0.0953016
0.0951996
0.109229
0.10934
0.109429
0.109501
0.109557
0.1096
0.109633
0.109657
0.109676
0.109689
0.109699
0.109706
0.109712
0.109715
0.109718
0.10972
0.109722
0.109723
0.109724
0.109725
0.109725
0.109725
0.109726
0.109726
0.109726
0.109726
0.109726
0.109726
0.109726
0.109726
0.109726
0.109726
0.109726
0.109726
0.109726
0.109726
0.109726
0.109726
0.109725
0.109725
0.109725
0.109724
0.109723
0.109722
0.10972
0.109718
0.109715
0.109712
0.109706
0.109699
0.109689
0.109676
0.109657
0.109633
0.1096
0.109557
0.109501
0.109429
0.10934
0.109229
0.123638
0.123757
0.123853
0.12393
0.12399
0.124036
0.124072
0.124098
0.124118
0.124133
0.124143
0.124151
0.124157
0.124161
0.124164
0.124167
0.124169
0.12417
0.124171
0.124171
0.124172
0.124172
0.124173
0.124173
0.124173
0.124173
0.124173
0.124173
0.124173
0.124173
0.124173
0.124173
0.124173
0.124173
0.124173
0.124173
0.124173
0.124173
0.124172
0.124172
0.124171
0.124171
0.12417
0.124169
0.124167
0.124164
0.124161
0.124157
0.124151
0.124143
0.124133
0.124118
0.124098
0.124072
0.124036
0.12399
0.12393
0.123853
0.123757
0.123638
0.138312
0.138439
0.138542
0.138624
0.138688
0.138738
0.138776
0.138804
0.138825
0.138841
0.138853
0.138861
0.138868
0.138872
0.138876
0.138878
0.13888
0.138882
0.138883
0.138883
0.138884
0.138884
0.138885
0.138885
0.138885
0.138885
0.138885
0.138885
0.138885
0.138885
0.138885
0.138885
0.138885
0.138885
0.138885
0.138885
0.138885
0.138885
0.138884
0.138884
0.138883
0.138883
0.138882
0.13888
0.138878
0.138876
0.138872
0.138868
0.138861
0.138853
0.138841
0.138825
0.138804
0.138776
0.138738
0.138688
0.138624
0.138542
0.138439
0.138312
0.153185
0.15332
0.153428
0.153515
0.153583
0.153636
0.153677
0.153707
0.15373
0.153747
0.153759
0.153768
0.153775
0.15378
0.153784
0.153787
0.153789
0.15379
0.153792
0.153792
0.153793
0.153794
0.153794
0.153794
0.153794
0.153794
0.153795
0.153795
0.153795
0.153795
0.153795
0.153795
0.153795
0.153795
0.153794
0.153794
0.153794
0.153794
0.153794
0.153793
0.153792
0.153792
0.15379
0.153789
0.153787
0.153784
0.15378
0.153775
0.153768
0.153759
0.153747
0.15373
0.153707
0.153677
0.153636
0.153583
0.153515
0.153428
0.15332
0.153185
0.168212
0.168354
0.168468
0.16856
0.168632
0.168688
0.168731
0.168764
0.168788
0.168806
0.168819
0.168829
0.168837
0.168842
0.168846
0.168849
0.168851
0.168853
0.168854
0.168855
0.168856
0.168856
0.168857
0.168857
0.168857
0.168858
0.168858
0.168858
0.168858
0.168858
0.168858
0.168858
0.168858
0.168858
0.168858
0.168857
0.168857
0.168857
0.168856
0.168856
0.168855
0.168854
0.168853
0.168851
0.168849
0.168846
0.168842
0.168837
0.168829
0.168819
0.168806
0.168788
0.168764
0.168731
0.168688
0.168632
0.16856
0.168468
0.168354
0.168212
0.183362
0.183511
0.183632
0.183728
0.183804
0.183864
0.183909
0.183943
0.183969
0.183988
0.184003
0.184013
0.184021
0.184027
0.184032
0.184035
0.184037
0.184039
0.184041
0.184042
0.184042
0.184043
0.184043
0.184044
0.184044
0.184044
0.184044
0.184044
0.184044
0.184044
0.184044
0.184044
0.184044
0.184044
0.184044
0.184044
0.184044
0.184043
0.184043
0.184042
0.184042
0.184041
0.184039
0.184037
0.184035
0.184032
0.184027
0.184021
0.184013
0.184003
0.183988
0.183969
0.183943
0.183909
0.183864
0.183804
0.183728
0.183632
0.183511
0.183362
0.198613
0.198769
0.198895
0.198996
0.199076
0.199139
0.199187
0.199223
0.19925
0.199271
0.199286
0.199298
0.199306
0.199313
0.199317
0.199321
0.199323
0.199325
0.199327
0.199328
0.199329
0.19933
0.19933
0.19933
0.199331
0.199331
0.199331
0.199331
0.199331
0.199331
0.199331
0.199331
0.199331
0.199331
0.199331
0.199331
0.19933
0.19933
0.19933
0.199329
0.199328
0.199327
0.199325
0.199323
0.199321
0.199317
0.199313
0.199306
0.199298
0.199286
0.199271
0.19925
0.199223
0.199187
0.199139
0.199076
0.198996
0.198895
0.198769
0.198613
0.213944
0.214107
0.214239
0.214345
0.214429
0.214494
0.214545
0.214583
0.214612
0.214634
0.21465
0.214663
0.214672
0.214678
0.214684
0.214687
0.21469
0.214692
0.214694
0.214695
0.214696
0.214697
0.214697
0.214698
0.214698
0.214698
0.214698
0.214698
0.214699
0.214699
0.214699
0.214699
0.214698
0.214698
0.214698
0.214698
0.214698
0.214697
0.214697
0.214696
0.214695
0.214694
0.214692
0.21469
0.214687
0.214684
0.214678
0.214672
0.214663
0.21465
0.214634
0.214612
0.214583
0.214545
0.214494
0.214429
0.214345
0.214239
0.214107
0.213944
0.22934
0.229509
0.229646
0.229757
0.229845
0.229913
0.229966
0.230007
0.230037
0.230061
0.230078
0.230091
0.230101
0.230108
0.230113
0.230118
0.230121
0.230123
0.230125
0.230126
0.230127
0.230128
0.230128
0.230129
0.230129
0.230129
0.230129
0.23013
0.23013
0.23013
0.23013
0.23013
0.23013
0.230129
0.230129
0.230129
0.230129
0.230128
0.230128
0.230127
0.230126
0.230125
0.230123
0.230121
0.230118
0.230113
0.230108
0.230101
0.230091
0.230078
0.230061
0.230037
0.230007
0.229966
0.229913
0.229845
0.229757
0.229646
0.229509
0.22934
0.244783
0.244958
0.245101
0.245217
0.245308
0.24538
0.245436
0.245478
0.245511
0.245535
0.245553
0.245567
0.245578
0.245585
0.245591
0.245596
0.245599
0.245602
0.245603
0.245605
0.245606
0.245607
0.245607
0.245608
0.245608
0.245609
0.245609
0.245609
0.245609
0.245609
0.245609
0.245609
0.245609
0.245609
0.245609
0.245608
0.245608
0.245607
0.245607
0.245606
0.245605
0.245603
0.245602
0.245599
0.245596
0.245591
0.245585
0.245578
0.245567
0.245553
0.245535
0.245511
0.245478
0.245436
0.24538
0.245308
0.245217
0.245101
0.244958
0.244783
0.260261
0.260442
0.26059
0.26071
0.260805
0.26088
0.260938
0.260983
0.261017
0.261043
0.261063
0.261077
0.261088
0.261097
0.261103
0.261108
0.261111
0.261114
0.261116
0.261118
0.261119
0.26112
0.26112
0.261121
0.261121
0.261121
0.261122
0.261122
0.261122
0.261122
0.261122
0.261122
0.261122
0.261122
0.261121
0.261121
0.261121
0.26112
0.26112
0.261119
0.261118
0.261116
0.261114
0.261111
0.261108
0.261103
0.261097
0.261088
0.261077
0.261063
0.261043
0.261017
0.260983
0.260938
0.26088
0.260805
0.26071
0.26059
0.260442
0.260261
0.275759
0.275946
0.276099
0.276223
0.276322
0.2764
0.276461
0.276508
0.276544
0.276571
0.276591
0.276607
0.276619
0.276628
0.276634
0.276639