/*--------------------------------*- C++ -*----------------------------------*\
| =========                 |                                                 |
| \\      /  F ield         | foam-extend: Open Source CFD                    |
|  \\    /   O peration     | Version:     4.0                                |
|   \\  /    A nd           | Web:         http://www.foam-extend.org         |
|    \\/     M anipulation  |                                                 |
\*---------------------------------------------------------------------------*/
FoamFile
{
    version     2.0;
    format      ascii;
    class       volScalarField;
    location    "30";
    object      C1;
}
// * * * * * * * * * * * * * * * * * * * * * * * * * * * * * * * * * * * * * //

dimensions      [0 0 0 0 0 0 0];

internalField   nonuniform List<scalar> 
6960
(
0.118915
0.118915
0.118915
0.118916
0.118917
0.118918
0.118918
0.118919
0.118919
0.11892
0.11892
0.11892
0.11892
0.11892
0.11892
0.11892
0.118919
0.118919
0.118919
0.118919
0.118918
0.118918
0.118918
0.118918
0.118918
0.118918
0.118917
0.118917
0.118917
0.118917
0.118917
0.118917
0.118917
0.118917
0.118918
0.118918
0.118918
0.118918
0.118918
0.118918
0.118919
0.118919
0.118919
0.118919
0.11892
0.11892
0.11892
0.11892
0.11892
0.11892
0.11892
0.118919
0.118919
0.118918
0.118918
0.118917
0.118916
0.118915
0.118915
0.118915
0.0329754
0.0329756
0.0329759
0.0329762
0.0329766
0.0329771
0.0329774
0.0329777
0.032978
0.0329781
0.0329783
0.0329783
0.0329783
0.0329783
0.0329782
0.0329781
0.032978
0.0329779
0.0329778
0.0329777
0.0329776
0.0329774
0.0329773
0.0329772
0.0329771
0.032977
0.032977
0.0329769
0.0329769
0.0329769
0.0329769
0.0329769
0.0329769
0.032977
0.032977
0.0329771
0.0329772
0.0329773
0.0329774
0.0329776
0.0329777
0.0329778
0.0329779
0.032978
0.0329781
0.0329782
0.0329783
0.0329783
0.0329783
0.0329783
0.0329781
0.032978
0.0329777
0.0329774
0.0329771
0.0329766
0.0329762
0.0329759
0.0329756
0.0329754
0.0124056
0.0124056
0.0124058
0.012406
0.0124062
0.0124064
0.0124066
0.0124067
0.0124068
0.0124069
0.012407
0.012407
0.012407
0.012407
0.012407
0.0124069
0.0124069
0.0124068
0.0124068
0.0124067
0.0124066
0.0124066
0.0124065
0.0124065
0.0124064
0.0124064
0.0124063
0.0124063
0.0124063
0.0124063
0.0124063
0.0124063
0.0124063
0.0124063
0.0124064
0.0124064
0.0124065
0.0124065
0.0124066
0.0124066
0.0124067
0.0124068
0.0124068
0.0124069
0.0124069
0.012407
0.012407
0.012407
0.012407
0.012407
0.0124069
0.0124068
0.0124067
0.0124066
0.0124064
0.0124062
0.012406
0.0124058
0.0124056
0.0124056
0.00590135
0.00590138
0.00590143
0.0059015
0.00590157
0.00590164
0.00590171
0.00590176
0.0059018
0.00590183
0.00590185
0.00590186
0.00590187
0.00590186
0.00590185
0.00590184
0.00590182
0.0059018
0.00590178
0.00590175
0.00590173
0.00590171
0.00590169
0.00590167
0.00590165
0.00590164
0.00590163
0.00590162
0.00590161
0.00590161
0.00590161
0.00590161
0.00590162
0.00590163
0.00590164
0.00590165
0.00590167
0.00590169
0.00590171
0.00590173
0.00590175
0.00590178
0.0059018
0.00590182
0.00590184
0.00590185
0.00590186
0.00590187
0.00590186
0.00590185
0.00590183
0.0059018
0.00590176
0.00590171
0.00590164
0.00590157
0.0059015
0.00590143
0.00590138
0.00590135
0.00368422
0.00368422
0.00368422
0.00368421
0.00368421
0.00368421
0.00368421
0.00368421
0.00368421
0.00368421
0.00368421
0.00368421
0.00368421
0.00368421
0.00368421
0.00368421
0.00368421
0.00368421
0.00368421
0.00368421
0.00368421
0.00368421
0.00368421
0.00368421
0.00368421
0.00368421
0.00368421
0.00368421
0.00368421
0.00368421
0.00368421
0.00368421
0.00368421
0.00368421
0.00368421
0.00368421
0.00368421
0.00368421
0.00368421
0.00368421
0.00368421
0.00368421
0.00368421
0.00368421
0.00368421
0.00368421
0.00368421
0.00368421
0.00368421
0.00368421
0.00368421
0.00368421
0.00368421
0.00368421
0.00368421
0.00368421
0.00368421
0.00368422
0.00368422
0.00368422
0.00293287
0.00293285
0.00293282
0.00293278
0.00293274
0.0029327
0.00293267
0.00293264
0.00293261
0.0029326
0.00293259
0.00293258
0.00293258
0.00293258
0.00293259
0.0029326
0.00293261
0.00293262
0.00293263
0.00293264
0.00293266
0.00293267
0.00293268
0.00293269
0.0029327
0.0029327
0.00293271
0.00293272
0.00293272
0.00293272
0.00293272
0.00293272
0.00293272
0.00293271
0.0029327
0.0029327
0.00293269
0.00293268
0.00293267
0.00293266
0.00293264
0.00293263
0.00293262
0.00293261
0.0029326
0.00293259
0.00293258
0.00293258
0.00293258
0.00293259
0.0029326
0.00293261
0.00293264
0.00293267
0.0029327
0.00293274
0.00293278
0.00293282
0.00293285
0.00293287
0.00270072
0.00270069
0.00270065
0.0027006
0.00270054
0.00270048
0.00270043
0.00270038
0.00270035
0.00270033
0.00270031
0.0027003
0.0027003
0.00270031
0.00270032
0.00270033
0.00270034
0.00270036
0.00270038
0.00270039
0.00270041
0.00270043
0.00270044
0.00270046
0.00270047
0.00270048
0.00270049
0.0027005
0.0027005
0.00270051
0.00270051
0.0027005
0.0027005
0.00270049
0.00270048
0.00270047
0.00270046
0.00270044
0.00270043
0.00270041
0.00270039
0.00270038
0.00270036
0.00270034
0.00270033
0.00270032
0.00270031
0.0027003
0.0027003
0.00270031
0.00270033
0.00270035
0.00270038
0.00270043
0.00270048
0.00270054
0.0027006
0.00270065
0.00270069
0.00270072
0.00265476
0.00265474
0.00265468
0.00265462
0.00265455
0.00265449
0.00265443
0.00265438
0.00265434
0.00265431
0.00265429
0.00265428
0.00265428
0.00265428
0.00265429
0.00265431
0.00265433
0.00265434
0.00265437
0.00265439
0.00265441
0.00265443
0.00265444
0.00265446
0.00265448
0.00265449
0.0026545
0.00265451
0.00265451
0.00265452
0.00265452
0.00265451
0.00265451
0.0026545
0.00265449
0.00265448
0.00265446
0.00265444
0.00265443
0.00265441
0.00265439
0.00265437
0.00265434
0.00265433
0.00265431
0.00265429
0.00265428
0.00265428
0.00265428
0.00265429
0.00265431
0.00265434
0.00265438
0.00265443
0.00265449
0.00265455
0.00265462
0.00265468
0.00265474
0.00265476
0.00267724
0.00267721
0.00267715
0.00267708
0.00267701
0.00267694
0.00267687
0.00267682
0.00267678
0.00267674
0.00267672
0.00267672
0.00267671
0.00267672
0.00267673
0.00267675
0.00267676
0.00267678
0.00267681
0.00267683
0.00267685
0.00267687
0.00267689
0.00267691
0.00267693
0.00267694
0.00267695
0.00267696
0.00267697
0.00267697
0.00267697
0.00267697
0.00267696
0.00267695
0.00267694
0.00267693
0.00267691
0.00267689
0.00267687
0.00267685
0.00267683
0.00267681
0.00267678
0.00267676
0.00267675
0.00267673
0.00267672
0.00267671
0.00267672
0.00267672
0.00267674
0.00267678
0.00267682
0.00267687
0.00267694
0.00267701
0.00267708
0.00267715
0.00267721
0.00267724
0.00272715
0.00272712
0.00272706
0.00272699
0.00272691
0.00272684
0.00272677
0.00272671
0.00272667
0.00272663
0.00272661
0.0027266
0.0027266
0.00272661
0.00272662
0.00272664
0.00272665
0.00272668
0.0027267
0.00272672
0.00272675
0.00272677
0.00272679
0.00272681
0.00272683
0.00272684
0.00272685
0.00272686
0.00272687
0.00272687
0.00272687
0.00272687
0.00272686
0.00272685
0.00272684
0.00272683
0.00272681
0.00272679
0.00272677
0.00272675
0.00272672
0.0027267
0.00272668
0.00272665
0.00272664
0.00272662
0.00272661
0.0027266
0.0027266
0.00272661
0.00272663
0.00272667
0.00272671
0.00272677
0.00272684
0.00272691
0.00272699
0.00272706
0.00272712
0.00272715
0.00279086
0.00279082
0.00279076
0.00279069
0.0027906
0.00279052
0.00279045
0.00279039
0.00279035
0.00279031
0.00279029
0.00279028
0.00279028
0.00279028
0.0027903
0.00279031
0.00279033
0.00279036
0.00279038
0.0027904
0.00279043
0.00279045
0.00279048
0.0027905
0.00279051
0.00279053
0.00279054
0.00279055
0.00279056
0.00279056
0.00279056
0.00279056
0.00279055
0.00279054
0.00279053
0.00279051
0.0027905
0.00279048
0.00279045
0.00279043
0.0027904
0.00279038
0.00279036
0.00279033
0.00279031
0.0027903
0.00279028
0.00279028
0.00279028
0.00279029
0.00279031
0.00279035
0.00279039
0.00279045
0.00279052
0.0027906
0.00279069
0.00279076
0.00279082
0.00279086
0.0028644
0.00286436
0.0028643
0.00286422
0.00286413
0.00286405
0.00286397
0.00286391
0.00286386
0.00286382
0.0028638
0.00286379
0.00286379
0.0028638
0.00286381
0.00286383
0.00286385
0.00286387
0.0028639
0.00286392
0.00286395
0.00286397
0.002864
0.00286402
0.00286404
0.00286405
0.00286407
0.00286408
0.00286408
0.00286409
0.00286409
0.00286408
0.00286408
0.00286407
0.00286405
0.00286404
0.00286402
0.002864
0.00286397
0.00286395
0.00286392
0.0028639
0.00286387
0.00286385
0.00286383
0.00286381
0.0028638
0.00286379
0.00286379
0.0028638
0.00286382
0.00286386
0.00286391
0.00286397
0.00286405
0.00286413
0.00286422
0.0028643
0.00286436
0.0028644
0.00294736
0.00294732
0.00294725
0.00294717
0.00294708
0.00294699
0.00294691
0.00294684
0.00294679
0.00294676
0.00294673
0.00294672
0.00294672
0.00294673
0.00294674
0.00294676
0.00294678
0.0029468
0.00294683
0.00294686
0.00294689
0.00294691
0.00294694
0.00294696
0.00294698
0.002947
0.00294701
0.00294702
0.00294703
0.00294703
0.00294703
0.00294703
0.00294702
0.00294701
0.002947
0.00294698
0.00294696
0.00294694
0.00294691
0.00294689
0.00294686
0.00294683
0.0029468
0.00294678
0.00294676
0.00294674
0.00294673
0.00294672
0.00294672
0.00294673
0.00294676
0.00294679
0.00294684
0.00294691
0.00294699
0.00294708
0.00294717
0.00294725
0.00294732
0.00294736
0.00304077
0.00304073
0.00304066
0.00304057
0.00304047
0.00304038
0.0030403
0.00304023
0.00304017
0.00304013
0.00304011
0.0030401
0.00304009
0.0030401
0.00304011
0.00304013
0.00304016
0.00304018
0.00304021
0.00304024
0.00304027
0.0030403
0.00304032
0.00304035
0.00304037
0.00304039
0.0030404
0.00304041
0.00304042
0.00304042
0.00304042
0.00304042
0.00304041
0.0030404
0.00304039
0.00304037
0.00304035
0.00304032
0.0030403
0.00304027
0.00304024
0.00304021
0.00304018
0.00304016
0.00304013
0.00304011
0.0030401
0.00304009
0.0030401
0.00304011
0.00304013
0.00304017
0.00304023
0.0030403
0.00304038
0.00304047
0.00304057
0.00304066
0.00304073
0.00304077
0.00314646
0.00314642
0.00314635
0.00314625
0.00314615
0.00314605
0.00314597
0.00314589
0.00314583
0.00314579
0.00314577
0.00314575
0.00314575
0.00314576
0.00314577
0.00314579
0.00314582
0.00314585
0.00314588
0.00314591
0.00314594
0.00314597
0.00314599
0.00314602
0.00314604
0.00314606
0.00314608
0.00314609
0.0031461
0.0031461
0.0031461
0.0031461
0.00314609
0.00314608
0.00314606
0.00314604
0.00314602
0.00314599
0.00314597
0.00314594
0.00314591
0.00314588
0.00314585
0.00314582
0.00314579
0.00314577
0.00314576
0.00314575
0.00314575
0.00314577
0.00314579
0.00314583
0.00314589
0.00314597
0.00314605
0.00314615
0.00314625
0.00314635
0.00314642
0.00314646
0.003267
0.00326696
0.00326688
0.00326678
0.00326667
0.00326656
0.00326647
0.00326639
0.00326633
0.00326628
0.00326626
0.00326624
0.00326624
0.00326625
0.00326626
0.00326629
0.00326631
0.00326634
0.00326637
0.00326641
0.00326644
0.00326647
0.0032665
0.00326653
0.00326655
0.00326657
0.00326659
0.0032666
0.00326661
0.00326661
0.00326661
0.00326661
0.0032666
0.00326659
0.00326657
0.00326655
0.00326653
0.0032665
0.00326647
0.00326644
0.00326641
0.00326637
0.00326634
0.00326631
0.00326629
0.00326626
0.00326625
0.00326624
0.00326624
0.00326626
0.00326628
0.00326633
0.00326639
0.00326647
0.00326656
0.00326667
0.00326678
0.00326688
0.00326696
0.003267
0.00340579
0.00340574
0.00340566
0.00340555
0.00340543
0.00340532
0.00340522
0.00340513
0.00340507
0.00340502
0.00340499
0.00340497
0.00340497
0.00340498
0.003405
0.00340502
0.00340505
0.00340508
0.00340512
0.00340515
0.00340519
0.00340522
0.00340525
0.00340528
0.0034053
0.00340533
0.00340535
0.00340536
0.00340537
0.00340537
0.00340537
0.00340537
0.00340536
0.00340535
0.00340533
0.0034053
0.00340528
0.00340525
0.00340522
0.00340519
0.00340515
0.00340512
0.00340508
0.00340505
0.00340502
0.003405
0.00340498
0.00340497
0.00340497
0.00340499
0.00340502
0.00340507
0.00340513
0.00340522
0.00340532
0.00340543
0.00340555
0.00340566
0.00340574
0.00340579
0.00356741
0.00356736
0.00356726
0.00356715
0.00356702
0.0035669
0.00356679
0.00356669
0.00356662
0.00356657
0.00356654
0.00356652
0.00356652
0.00356653
0.00356655
0.00356657
0.0035666
0.00356664
0.00356668
0.00356671
0.00356675
0.00356679
0.00356682
0.00356685
0.00356688
0.00356691
0.00356693
0.00356694
0.00356695
0.00356696
0.00356696
0.00356695
0.00356694
0.00356693
0.00356691
0.00356688
0.00356685
0.00356682
0.00356679
0.00356675
0.00356671
0.00356668
0.00356664
0.0035666
0.00356657
0.00356655
0.00356653
0.00356652
0.00356652
0.00356654
0.00356657
0.00356662
0.00356669
0.00356679
0.0035669
0.00356702
0.00356715
0.00356726
0.00356736
0.00356741
0.00375809
0.00375804
0.00375793
0.0037578
0.00375766
0.00375753
0.00375741
0.00375731
0.00375723
0.00375717
0.00375713
0.00375712
0.00375711
0.00375712
0.00375714
0.00375717
0.00375721
0.00375725
0.00375729
0.00375733
0.00375737
0.00375741
0.00375745
0.00375748
0.00375751
0.00375754
0.00375756
0.00375758
0.00375759
0.00375759
0.00375759
0.00375759
0.00375758
0.00375756
0.00375754
0.00375751
0.00375748
0.00375745
0.00375741
0.00375737
0.00375733
0.00375729
0.00375725
0.00375721
0.00375717
0.00375714
0.00375712
0.00375711
0.00375712
0.00375713
0.00375717
0.00375723
0.00375731
0.00375741
0.00375753
0.00375766
0.0037578
0.00375793
0.00375804
0.00375809
0.00398645
0.00398639
0.00398627
0.00398613
0.00398597
0.00398582
0.00398569
0.00398558
0.00398549
0.00398542
0.00398538
0.00398536
0.00398536
0.00398537
0.00398539
0.00398543
0.00398546
0.00398551
0.00398555
0.0039856
0.00398565
0.00398569
0.00398573
0.00398577
0.00398581
0.00398583
0.00398586
0.00398588
0.00398589
0.0039859
0.0039859
0.00398589
0.00398588
0.00398586
0.00398583
0.00398581
0.00398577
0.00398573
0.00398569
0.00398565
0.0039856
0.00398555
0.00398551
0.00398546
0.00398543
0.00398539
0.00398537
0.00398536
0.00398536
0.00398538
0.00398542
0.00398549
0.00398558
0.00398569
0.00398582
0.00398597
0.00398613
0.00398627
0.00398639
0.00398645
0.00426449
0.00426442
0.00426429
0.00426413
0.00426395
0.00426378
0.00426363
0.0042635
0.0042634
0.00426332
0.00426328
0.00426325
0.00426325
0.00426326
0.00426329
0.00426333
0.00426337
0.00426342
0.00426347
0.00426352
0.00426358
0.00426363
0.00426367
0.00426372
0.00426376
0.00426379
0.00426382
0.00426384
0.00426385
0.00426386
0.00426386
0.00426385
0.00426384
0.00426382
0.00426379
0.00426376
0.00426372
0.00426367
0.00426363
0.00426358
0.00426352
0.00426347
0.00426342
0.00426337
0.00426333
0.00426329
0.00426326
0.00426325
0.00426325
0.00426328
0.00426332
0.0042634
0.0042635
0.00426363
0.00426378
0.00426395
0.00426413
0.00426429
0.00426442
0.00426449
0.00460893
0.00460885
0.0046087
0.00460851
0.0046083
0.00460811
0.00460793
0.00460778
0.00460767
0.00460758
0.00460753
0.0046075
0.0046075
0.00460751
0.00460754
0.00460758
0.00460763
0.00460769
0.00460775
0.00460781
0.00460787
0.00460793
0.00460799
0.00460804
0.00460808
0.00460812
0.00460815
0.00460818
0.00460819
0.0046082
0.0046082
0.00460819
0.00460818
0.00460815
0.00460812
0.00460808
0.00460804
0.00460799
0.00460793
0.00460787
0.00460781
0.00460775
0.00460769
0.00460763
0.00460758
0.00460754
0.00460751
0.0046075
0.0046075
0.00460753
0.00460758
0.00460767
0.00460778
0.00460793
0.00460811
0.0046083
0.00460851
0.0046087
0.00460885
0.00460893
0.00504266
0.00504256
0.00504238
0.00504216
0.00504192
0.00504168
0.00504147
0.0050413
0.00504116
0.00504106
0.005041
0.00504097
0.00504096
0.00504098
0.00504102
0.00504107
0.00504113
0.00504119
0.00504126
0.00504134
0.00504141
0.00504148
0.00504154
0.0050416
0.00504166
0.0050417
0.00504174
0.00504177
0.00504179
0.0050418
0.0050418
0.00504179
0.00504177
0.00504174
0.0050417
0.00504166
0.0050416
0.00504154
0.00504148
0.00504141
0.00504134
0.00504126
0.00504119
0.00504113
0.00504107
0.00504102
0.00504098
0.00504096
0.00504097
0.005041
0.00504106
0.00504116
0.0050413
0.00504147
0.00504168
0.00504192
0.00504216
0.00504238
0.00504256
0.00504266
0.00559577
0.00559565
0.00559543
0.00559516
0.00559488
0.00559459
0.00559434
0.00559413
0.00559397
0.00559385
0.00559377
0.00559374
0.00559373
0.00559375
0.00559379
0.00559385
0.00559393
0.00559401
0.00559409
0.00559418
0.00559426
0.00559435
0.00559443
0.0055945
0.00559456
0.00559462
0.00559466
0.0055947
0.00559472
0.00559473
0.00559473
0.00559472
0.0055947
0.00559466
0.00559462
0.00559456
0.0055945
0.00559443
0.00559435
0.00559426
0.00559418
0.00559409
0.00559401
0.00559393
0.00559385
0.00559379
0.00559375
0.00559373
0.00559374
0.00559377
0.00559385
0.00559397
0.00559413
0.00559434
0.00559459
0.00559488
0.00559516
0.00559543
0.00559565
0.00559577
0.00630518
0.00630503
0.00630477
0.00630444
0.00630409
0.00630374
0.00630344
0.00630318
0.00630298
0.00630284
0.00630274
0.0063027
0.00630269
0.00630271
0.00630277
0.00630284
0.00630293
0.00630302
0.00630313
0.00630323
0.00630334
0.00630344
0.00630354
0.00630362
0.0063037
0.00630377
0.00630382
0.00630387
0.00630389
0.00630391
0.00630391
0.00630389
0.00630387
0.00630382
0.00630377
0.0063037
0.00630362
0.00630354
0.00630344
0.00630334
0.00630323
0.00630313
0.00630302
0.00630293
0.00630284
0.00630277
0.00630271
0.00630269
0.0063027
0.00630274
0.00630284
0.00630298
0.00630318
0.00630344
0.00630374
0.00630409
0.00630444
0.00630477
0.00630503
0.00630518
0.00721145
0.00721126
0.00721094
0.00721054
0.00721011
0.00720969
0.00720931
0.007209
0.00720875
0.00720857
0.00720846
0.0072084
0.00720839
0.00720842
0.00720849
0.00720858
0.00720868
0.0072088
0.00720893
0.00720906
0.00720919
0.00720932
0.00720943
0.00720954
0.00720964
0.00720972
0.00720979
0.00720984
0.00720987
0.00720989
0.00720989
0.00720987
0.00720984
0.00720979
0.00720972
0.00720964
0.00720954
0.00720943
0.00720932
0.00720919
0.00720906
0.00720893
0.0072088
0.00720868
0.00720858
0.00720849
0.00720842
0.00720839
0.0072084
0.00720846
0.00720857
0.00720875
0.007209
0.00720931
0.00720969
0.00721011
0.00721054
0.00721094
0.00721126
0.00721145
0.00835216
0.00835193
0.00835154
0.00835105
0.00835052
0.00835001
0.00834955
0.00834916
0.00834886
0.00834864
0.0083485
0.00834843
0.00834842
0.00834846
0.00834854
0.00834865
0.00834878
0.00834892
0.00834908
0.00834924
0.0083494
0.00834955
0.00834969
0.00834983
0.00834994
0.00835005
0.00835013
0.00835019
0.00835023
0.00835026
0.00835026
0.00835023
0.00835019
0.00835013
0.00835005
0.00834994
0.00834983
0.00834969
0.00834955
0.0083494
0.00834924
0.00834908
0.00834892
0.00834878
0.00834865
0.00834854
0.00834846
0.00834842
0.00834843
0.0083485
0.00834864
0.00834886
0.00834916
0.00834955
0.00835001
0.00835052
0.00835105
0.00835154
0.00835193
0.00835216
0.00975306
0.00975279
0.00975232
0.00975173
0.00975109
0.00975047
0.00974991
0.00974944
0.00974908
0.00974881
0.00974864
0.00974856
0.00974855
0.00974859
0.00974869
0.00974882
0.00974898
0.00974915
0.00974934
0.00974953
0.00974973
0.00974991
0.00975008
0.00975024
0.00975039
0.00975051
0.00975061
0.00975069
0.00975074
0.00975076
0.00975076
0.00975074
0.00975069
0.00975061
0.00975051
0.00975039
0.00975024
0.00975009
0.00974991
0.00974973
0.00974953
0.00974934
0.00974915
0.00974898
0.00974882
0.00974869
0.00974859
0.00974855
0.00974856
0.00974864
0.00974881
0.00974908
0.00974944
0.00974991
0.00975047
0.00975109
0.00975173
0.00975232
0.00975279
0.00975306
0.0114207
0.0114204
0.0114199
0.0114192
0.0114184
0.0114177
0.011417
0.0114165
0.011416
0.0114157
0.0114155
0.0114154
0.0114154
0.0114154
0.0114155
0.0114157
0.0114159
0.0114161
0.0114163
0.0114166
0.0114168
0.011417
0.0114172
0.0114174
0.0114176
0.0114177
0.0114178
0.0114179
0.011418
0.011418
0.011418
0.011418
0.0114179
0.0114178
0.0114177
0.0114176
0.0114174
0.0114172
0.011417
0.0114168
0.0114166
0.0114163
0.0114161
0.0114159
0.0114157
0.0114155
0.0114154
0.0114154
0.0114154
0.0114155
0.0114157
0.011416
0.0114165
0.011417
0.0114177
0.0114184
0.0114192
0.0114199
0.0114204
0.0114207
0.013341
0.0133406
0.01334
0.0133391
0.0133383
0.0133374
0.0133367
0.013336
0.0133355
0.0133351
0.0133349
0.0133348
0.0133348
0.0133348
0.013335
0.0133351
0.0133354
0.0133356
0.0133359
0.0133361
0.0133364
0.0133366
0.0133369
0.0133371
0.0133373
0.0133375
0.0133376
0.0133377
0.0133378
0.0133378
0.0133378
0.0133378
0.0133377
0.0133376
0.0133375
0.0133373
0.0133371
0.0133369
0.0133366
0.0133364
0.0133361
0.0133359
0.0133356
0.0133354
0.0133351
0.013335
0.0133348
0.0133348
0.0133348
0.0133349
0.0133351
0.0133355
0.013336
0.0133367
0.0133374
0.0133383
0.0133391
0.01334
0.0133406
0.013341
0.0154842
0.0154838
0.0154831
0.0154821
0.0154812
0.0154802
0.0154793
0.0154786
0.015478
0.0154776
0.0154773
0.0154772
0.0154772
0.0154772
0.0154774
0.0154776
0.0154778
0.0154781
0.0154784
0.0154787
0.015479
0.0154793
0.0154796
0.0154798
0.0154801
0.0154802
0.0154804
0.0154805
0.0154806
0.0154806
0.0154806
0.0154806
0.0154805
0.0154804
0.0154802
0.0154801
0.0154798
0.0154796
0.0154793
0.015479
0.0154787
0.0154784
0.0154781
0.0154778
0.0154776
0.0154774
0.0154772
0.0154772
0.0154772
0.0154773
0.0154776
0.015478
0.0154786
0.0154793
0.0154802
0.0154812
0.0154821
0.0154831
0.0154838
0.0154842
0.0178151
0.0178147
0.0178139
0.0178128
0.0178117
0.0178107
0.0178097
0.0178089
0.0178082
0.0178078
0.0178075
0.0178073
0.0178073
0.0178074
0.0178075
0.0178078
0.017808
0.0178083
0.0178087
0.017809
0.0178093
0.0178097
0.01781
0.0178102
0.0178105
0.0178107
0.0178109
0.017811
0.0178111
0.0178112
0.0178112
0.0178111
0.017811
0.0178109
0.0178107
0.0178105
0.0178102
0.01781
0.0178097
0.0178093
0.017809
0.0178087
0.0178083
0.017808
0.0178078
0.0178075
0.0178074
0.0178073
0.0178073
0.0178075
0.0178078
0.0178082
0.0178089
0.0178097
0.0178107
0.0178117
0.0178128
0.0178139
0.0178147
0.0178151
0.0203013
0.0203008
0.0202999
0.0202988
0.0202976
0.0202964
0.0202953
0.0202945
0.0202937
0.0202932
0.0202929
0.0202927
0.0202927
0.0202928
0.020293
0.0202932
0.0202935
0.0202939
0.0202942
0.0202946
0.020295
0.0202953
0.0202956
0.0202959
0.0202962
0.0202965
0.0202967
0.0202968
0.0202969
0.0202969
0.0202969
0.0202969
0.0202968
0.0202967
0.0202965
0.0202962
0.0202959
0.0202956
0.0202953
0.020295
0.0202946
0.0202942
0.0202939
0.0202935
0.0202932
0.020293
0.0202928
0.0202927
0.0202927
0.0202929
0.0202932
0.0202937
0.0202945
0.0202953
0.0202964
0.0202976
0.0202988
0.0202999
0.0203008
0.0203013
0.022918
0.0229175
0.0229165
0.0229153
0.022914
0.0229127
0.0229116
0.0229106
0.0229098
0.0229093
0.0229089
0.0229087
0.0229087
0.0229088
0.022909
0.0229092
0.0229096
0.0229099
0.0229103
0.0229107
0.0229111
0.0229115
0.0229119
0.0229122
0.0229125
0.0229128
0.022913
0.0229131
0.0229133
0.0229133
0.0229133
0.0229133
0.0229131
0.022913
0.0229128
0.0229125
0.0229122
0.0229119
0.0229115
0.0229111
0.0229107
0.0229103
0.0229099
0.0229096
0.0229092
0.022909
0.0229088
0.0229087
0.0229087
0.0229089
0.0229093
0.0229098
0.0229106
0.0229116
0.0229127
0.022914
0.0229153
0.0229165
0.0229175
0.022918
0.025649
0.0256484
0.0256474
0.0256461
0.0256447
0.0256433
0.0256421
0.025641
0.0256402
0.0256396
0.0256392
0.025639
0.0256389
0.025639
0.0256392
0.0256395
0.0256399
0.0256403
0.0256407
0.0256411
0.0256416
0.025642
0.0256424
0.0256428
0.0256431
0.0256434
0.0256436
0.0256438
0.0256439
0.0256439
0.0256439
0.0256439
0.0256438
0.0256436
0.0256434
0.0256431
0.0256428
0.0256424
0.025642
0.0256416
0.0256411
0.0256407
0.0256403
0.0256399
0.0256395
0.0256392
0.025639
0.0256389
0.025639
0.0256392
0.0256396
0.0256402
0.025641
0.0256421
0.0256433
0.0256447
0.0256461
0.0256474
0.0256484
0.025649
0.0284848
0.0284842
0.0284831
0.0284817
0.0284802
0.0284787
0.0284774
0.0284763
0.0284754
0.0284747
0.0284743
0.0284741
0.028474
0.0284741
0.0284743
0.0284746
0.028475
0.0284755
0.0284759
0.0284764
0.0284769
0.0284773
0.0284777
0.0284781
0.0284785
0.0284788
0.028479
0.0284792
0.0284793
0.0284794
0.0284794
0.0284793
0.0284792
0.028479
0.0284788
0.0284785
0.0284781
0.0284777
0.0284773
0.0284769
0.0284764
0.0284759
0.0284755
0.028475
0.0284746
0.0284743
0.0284741
0.028474
0.0284741
0.0284743
0.0284747
0.0284754
0.0284763
0.0284774
0.0284787
0.0284802
0.0284817
0.0284831
0.0284842
0.0284848
0.0314208
0.0314201
0.0314189
0.0314175
0.0314158
0.0314143
0.0314128
0.0314116
0.0314106
0.0314099
0.0314095
0.0314092
0.0314092
0.0314093
0.0314095
0.0314099
0.0314103
0.0314107
0.0314112
0.0314117
0.0314122
0.0314127
0.0314132
0.0314136
0.031414
0.0314143
0.0314145
0.0314147
0.0314149
0.0314149
0.0314149
0.0314149
0.0314147
0.0314145
0.0314143
0.031414
0.0314136
0.0314132
0.0314127
0.0314122
0.0314117
0.0314112
0.0314107
0.0314103
0.0314099
0.0314095
0.0314093
0.0314092
0.0314092
0.0314095
0.0314099
0.0314106
0.0314116
0.0314128
0.0314143
0.0314158
0.0314175
0.0314189
0.0314201
0.0314208
0.0344549
0.0344542
0.034453
0.0344515
0.0344497
0.0344481
0.0344465
0.0344452
0.0344442
0.0344434
0.0344429
0.0344427
0.0344426
0.0344427
0.034443
0.0344433
0.0344438
0.0344443
0.0344448
0.0344453
0.0344459
0.0344464
0.0344469
0.0344473
0.0344477
0.0344481
0.0344483
0.0344486
0.0344487
0.0344488
0.0344488
0.0344487
0.0344486
0.0344483
0.0344481
0.0344477
0.0344473
0.0344469
0.0344464
0.0344459
0.0344453
0.0344448
0.0344443
0.0344438
0.0344433
0.034443
0.0344427
0.0344426
0.0344427
0.0344429
0.0344434
0.0344442
0.0344452
0.0344465
0.0344481
0.0344497
0.0344515
0.034453
0.0344542
0.0344549
0.0375873
0.0375866
0.0375853
0.0375837
0.0375819
0.0375801
0.0375785
0.0375771
0.037576
0.0375752
0.0375746
0.0375744
0.0375743
0.0375744
0.0375747
0.037575
0.0375755
0.037576
0.0375766
0.0375771
0.0375777
0.0375783
0.0375788
0.0375793
0.0375797
0.0375801
0.0375804
0.0375806
0.0375807
0.0375808
0.0375808
0.0375807
0.0375806
0.0375804
0.0375801
0.0375797
0.0375793
0.0375788
0.0375783
0.0375777
0.0375771
0.0375766
0.037576
0.0375755
0.037575
0.0375747
0.0375744
0.0375743
0.0375744
0.0375746
0.0375752
0.037576
0.0375771
0.0375785
0.0375801
0.0375819
0.0375837
0.0375853
0.0375866
0.0375873
0.040819
0.0408182
0.0408169
0.0408151
0.0408132
0.0408113
0.0408096
0.0408082
0.040807
0.0408061
0.0408056
0.0408052
0.0408052
0.0408053
0.0408056
0.040806
0.0408064
0.040807
0.0408076
0.0408082
0.0408088
0.0408094
0.0408099
0.0408104
0.0408109
0.0408113
0.0408116
0.0408118
0.040812
0.0408121
0.0408121
0.040812
0.0408118
0.0408116
0.0408113
0.0408109
0.0408104
0.0408099
0.0408094
0.0408088
0.0408082
0.0408076
0.040807
0.0408064
0.040806
0.0408056
0.0408053
0.0408052
0.0408052
0.0408056
0.0408061
0.040807
0.0408082
0.0408096
0.0408113
0.0408132
0.0408151
0.0408169
0.0408182
0.040819
0.0441515
0.0441507
0.0441493
0.0441475
0.0441455
0.0441435
0.0441417
0.0441401
0.0441389
0.044138
0.0441374
0.044137
0.0441369
0.0441371
0.0441373
0.0441378
0.0441383
0.0441389
0.0441395
0.0441401
0.0441408
0.0441414
0.044142
0.0441425
0.044143
0.0441434
0.0441437
0.044144
0.0441442
0.0441443
0.0441443
0.0441442
0.044144
0.0441437
0.0441434
0.044143
0.0441425
0.044142
0.0441414
0.0441408
0.0441401
0.0441395
0.0441389
0.0441383
0.0441378
0.0441373
0.0441371
0.0441369
0.044137
0.0441374
0.044138
0.0441389
0.0441401
0.0441417
0.0441435
0.0441455
0.0441475
0.0441493
0.0441507
0.0441515
0.047587
0.0475862
0.0475847
0.0475828
0.0475807
0.0475786
0.0475767
0.0475751
0.0475738
0.0475728
0.0475721
0.0475718
0.0475717
0.0475718
0.0475721
0.0475726
0.0475731
0.0475737
0.0475744
0.047575
0.0475757
0.0475764
0.047577
0.0475776
0.0475781
0.0475785
0.0475789
0.0475791
0.0475793
0.0475794
0.0475794
0.0475793
0.0475791
0.0475789
0.0475785
0.0475781
0.0475776
0.047577
0.0475764
0.0475757
0.047575
0.0475744
0.0475737
0.0475731
0.0475726
0.0475721
0.0475718
0.0475717
0.0475718
0.0475721
0.0475728
0.0475738
0.0475751
0.0475767
0.0475786
0.0475807
0.0475828
0.0475847
0.0475862
0.047587
0.051128
0.0511271
0.0511256
0.0511236
0.0511214
0.0511192
0.0511172
0.0511155
0.0511141
0.0511131
0.0511124
0.051112
0.0511119
0.051112
0.0511123
0.0511128
0.0511133
0.051114
0.0511147
0.0511154
0.0511161
0.0511168
0.0511175
0.0511181
0.0511186
0.051119
0.0511194
0.0511197
0.0511199
0.05112
0.05112
0.0511199
0.0511197
0.0511194
0.051119
0.0511186
0.0511181
0.0511175
0.0511168
0.0511161
0.0511154
0.0511147
0.051114
0.0511133
0.0511128
0.0511123
0.051112
0.0511119
0.051112
0.0511124
0.0511131
0.0511141
0.0511155
0.0511172
0.0511192
0.0511214
0.0511236
0.0511256
0.0511271
0.051128
0.054777
0.0547761
0.0547745
0.0547724
0.0547701
0.0547679
0.0547658
0.054764
0.0547625
0.0547614
0.0547607
0.0547603
0.0547602
0.0547603
0.0547606
0.0547611
0.0547617
0.0547624
0.0547631
0.0547638
0.0547646
0.0547653
0.054766
0.0547666
0.0547672
0.0547677
0.0547681
0.0547684
0.0547686
0.0547687
0.0547687
0.0547686
0.0547684
0.0547681
0.0547677
0.0547672
0.0547666
0.054766
0.0547653
0.0547646
0.0547638
0.0547631
0.0547624
0.0547617
0.0547611
0.0547606
0.0547603
0.0547602
0.0547603
0.0547607
0.0547614
0.0547625
0.054764
0.0547658
0.0547679
0.0547701
0.0547724
0.0547745
0.0547761
0.054777
0.058537
0.0585361
0.0585345
0.0585323
0.0585299
0.0585275
0.0585253
0.0585235
0.0585219
0.0585208
0.05852
0.0585196
0.0585195
0.0585196
0.0585199
0.0585204
0.058521
0.0585217
0.0585225
0.0585233
0.0585241
0.0585248
0.0585256
0.0585262
0.0585268
0.0585273
0.0585277
0.0585281
0.0585283
0.0585284
0.0585284
0.0585283
0.0585281
0.0585277
0.0585273
0.0585268
0.0585262
0.0585256
0.0585248
0.0585241
0.0585233
0.0585225
0.0585217
0.058521
0.0585204
0.0585199
0.0585196
0.0585195
0.0585196
0.05852
0.0585208
0.0585219
0.0585235
0.0585253
0.0585275
0.0585299
0.0585323
0.0585345
0.0585361
0.058537
0.0624111
0.0624102
0.0624084
0.0624062
0.0624037
0.0624013
0.062399
0.062397
0.0623954
0.0623942
0.0623934
0.0623929
0.0623928
0.0623929
0.0623932
0.0623938
0.0623944
0.0623951
0.0623959
0.0623968
0.0623976
0.0623984
0.0623991
0.0623998
0.0624005
0.062401
0.0624014
0.0624018
0.062402
0.0624021
0.0624021
0.062402
0.0624018
0.0624014
0.062401
0.0624005
0.0623998
0.0623991
0.0623984
0.0623976
0.0623968
0.0623959
0.0623951
0.0623944
0.0623938
0.0623932
0.0623929
0.0623928
0.0623929
0.0623934
0.0623942
0.0623954
0.062397
0.062399
0.0624013
0.0624037
0.0624062
0.0624084
0.0624102
0.0624111
0.0664024
0.0664014
0.0663997
0.0663974
0.0663948
0.0663922
0.0663898
0.0663878
0.0663861
0.0663848
0.066384
0.0663835
0.0663833
0.0663834
0.0663838
0.0663843
0.066385
0.0663858
0.0663866
0.0663875
0.0663883
0.0663892
0.06639
0.0663907
0.0663913
0.0663919
0.0663924
0.0663927
0.066393
0.0663931
0.0663931
0.066393
0.0663927
0.0663924
0.0663919
0.0663913
0.0663907
0.06639
0.0663892
0.0663883
0.0663875
0.0663866
0.0663858