/*--------------------------------*- C++ -*----------------------------------*\
| =========                 |                                                 |
| \\      /  F ield         | foam-extend: Open Source CFD                    |
|  \\    /   O peration     | Version:     4.0                                |
|   \\  /    A nd           | Web:         http://www.foam-extend.org         |
|    \\/     M anipulation  |                                                 |
\*---------------------------------------------------------------------------*/
FoamFile
{
    version     2.0;
    format      ascii;
    class       volScalarField;
    location    "30";
    object      dPhi;
}
// * * * * * * * * * * * * * * * * * * * * * * * * * * * * * * * * * * * * * //

dimensions      [0 -1 0 0 0 0 0];

internalField   nonuniform List<scalar> 
6960
(
-3.96304e-17
-2.67377e-15
-2.18196e-15
9.26618e-17
-1.18658e-15
-2.91651e-15
6.7345e-16
-3.29586e-15
7.19386e-16
-1.49042e-15
-1.53855e-16
2.51003e-15
2.85201e-16
-2.83053e-15
-1.50726e-15
2.58857e-16
-3.74891e-15
6.80711e-16
-2.43917e-15
-2.29712e-16
-1.12838e-15
2.41451e-15
-1.14725e-15
-2.04354e-15
-2.74291e-16
3.27239e-15
1.58878e-16
-1.62118e-15
4.14948e-15
-1.18083e-15
-7.36725e-16
2.37309e-15
5.99279e-16
-1.17337e-15
-2.05672e-15
-1.60654e-15
-2.48761e-15
-2.59106e-16
-1.13819e-15
1.09209e-15
-2.00611e-15
-1.10689e-15
2.36638e-16
1.13603e-15
1.59114e-15
-1.50724e-15
-1.05421e-15
-1.58871e-16
7.33694e-16
7.34286e-16
2.85957e-16
1.16349e-15
-1.96363e-15
1.56165e-15
-6.96041e-16
2.81019e-15
-2.57185e-15
-1.29376e-15
-9.27346e-18
-1.37188e-15
7.6812e-16
1.57375e-15
-8.94229e-17
1.71015e-16
4.31772e-16
2.55358e-15
2.63656e-15
5.1169e-15
2.00243e-15
6.2525e-16
-1.18846e-16
9.97645e-16
-2.56993e-15
3.72734e-15
-4.75317e-15
-1.36267e-15
4.68073e-16
-4.79731e-16
-2.8719e-15
-4.89538e-16
7.44803e-18
-6.70894e-15
3.45409e-15
7.43411e-16
-9.62597e-16
1.3342e-15
-9.14435e-16
2.85378e-16
3.81958e-16
1.92904e-15
-2.95587e-15
7.14886e-16
-1.15785e-15
1.08403e-15
-1.77457e-15
-1.2956e-15
2.40881e-15
-2.43024e-15
-2.60106e-15
-1.21374e-15
-2.48809e-15
-3.20491e-15
-3.55834e-17
-1.53047e-15
3.30033e-15
1.46414e-15
-1.15778e-15
-1.34863e-15
-2.66603e-15
-3.4103e-16
-2.62861e-16
3.37168e-16
6.75869e-16
-3.69164e-15
2.88672e-15
-2.45494e-15
-1.16117e-15
2.43731e-16
2.46179e-15
3.54377e-15
-7.58206e-16
-6.00709e-15
4.59198e-16
3.55833e-15
4.12331e-15
2.46499e-15
-1.14369e-15
4.98539e-15
-1.07485e-15
-2.04688e-15
-3.98853e-15
5.6152e-16
5.87962e-15
2.0492e-15
6.10207e-15
-5.98776e-16
6.38839e-16
-3.10828e-15
1.40809e-15
-2.43002e-15
9.17054e-15
6.59981e-15
-1.72772e-15
9.56387e-16
-8.74285e-15
-2.17906e-15
5.02367e-15
2.59722e-15
2.57216e-16
7.52459e-16
3.47271e-15
-1.82488e-15
8.76568e-16
-3.30281e-15
1.09565e-15
-2.02582e-15
-1.95777e-15
5.93237e-15
-4.89083e-15
2.39835e-15
3.7035e-15
-4.33715e-15
-6.71634e-15
-1.63758e-15
-6.92688e-15
-3.00159e-15
8.09947e-15
3.54833e-15
-3.35183e-15
-7.54245e-17
-1.26952e-15
2.85381e-16
-8.15932e-16
-3.3084e-15
-4.11284e-15
-6.23271e-16
3.58634e-15
1.12561e-15
2.98531e-15
-2.72857e-15
-5.07352e-15
4.03277e-15
4.99087e-15
-8.63701e-15
-5.64782e-15
3.20851e-15
1.86767e-15
5.57327e-15
5.08079e-15
2.42611e-15
3.99027e-15
-2.49978e-15
-6.88037e-16
-8.6678e-15
6.98881e-15
-4.98204e-15
-7.60809e-16
-3.91785e-17
-8.0694e-15
6.91752e-15
-6.26088e-15
-3.36852e-15
6.21806e-15
-8.46002e-15
1.15429e-15
-1.84312e-15
2.02761e-15
-3.2562e-15
5.59733e-15
-2.25826e-15
-1.0168e-14
4.36097e-15
4.77958e-15
-2.69031e-15
-1.48359e-15
-4.39635e-15
-5.36481e-15
-1.81852e-15
5.01411e-15
1.76091e-15
-7.44377e-16
3.15816e-15
4.83236e-15
4.44201e-15
5.67655e-15
-3.62724e-15
-9.82097e-15
-3.60187e-15
4.55066e-15
6.54255e-15
-1.00078e-14
-8.87964e-15
-2.94884e-15
1.20222e-15
-2.82761e-15
1.38168e-16
2.96559e-15
1.48065e-15
-5.80769e-15
3.81322e-16
-8.91503e-15
6.57318e-15
-2.89836e-15
1.84555e-14
-5.63829e-15
-6.96991e-15
6.76555e-15
-2.22145e-15
-1.62309e-14
6.19449e-15
-1.81944e-14
2.76837e-16
4.75225e-15
7.47569e-15
-1.34421e-14
3.41576e-15
-1.84782e-17
4.67906e-15
9.71059e-16
-4.10465e-15
1.58208e-14
-1.8718e-15
-5.0492e-16
4.67504e-15
1.68377e-15
-4.81666e-15
9.39726e-15
1.21668e-14
-3.06733e-15
7.38226e-15
6.25981e-15
4.86725e-15
-1.08272e-14
3.8892e-15
-6.83268e-15
-9.6531e-15
1.14347e-14
-2.04927e-15
-1.86767e-14
2.81841e-15
2.51106e-15
-4.23202e-15
-9.5862e-15
-2.70085e-15
5.29043e-15
3.01818e-15
1.01642e-14
3.95981e-16
2.42934e-15
-4.26468e-15
3.65651e-15
7.01612e-15
-3.00181e-15
1.0348e-14
6.86836e-15
-2.42698e-16
-1.063e-14
-3.32601e-15
1.1136e-14
2.80047e-15
9.71566e-15
-3.09577e-15
-1.16476e-15
1.82288e-15
3.72924e-15
7.33718e-15
1.22416e-14
-2.45365e-15
4.27226e-15
-4.00516e-15
1.0999e-14
7.20602e-15
4.05825e-15
-6.35485e-15
5.52298e-15
-5.19034e-15
1.93129e-15
-6.3009e-15
-4.72614e-15
6.24917e-15
6.20376e-15
-1.12291e-14
-9.48892e-15
-6.94261e-15
-2.89012e-16
1.54608e-14
3.43095e-15
-1.1305e-14
-1.492e-14
2.49511e-15
-6.28484e-15
-1.18006e-14
9.11338e-15
-5.82167e-15
1.35417e-14
1.98857e-14
-1.31497e-14
-5.52441e-15
1.09089e-14
-1.59277e-15
-3.57417e-15
2.42365e-15
-1.57212e-16
2.16946e-15
-2.12731e-15
-1.34656e-14
-1.37698e-14
1.03069e-14
1.04823e-15
1.6755e-14
-5.10223e-16
-7.10246e-15
1.42323e-14
-8.04179e-15
4.09608e-15
4.9496e-15
8.34549e-15
5.02552e-15
-8.46756e-15
3.0207e-15
-1.5254e-14
5.91286e-15
8.76507e-15
-2.24834e-15
-1.14246e-14
-1.15438e-14
-5.51189e-15
2.21754e-15
3.77631e-15
1.80775e-15
-4.12857e-15
-1.64577e-14
2.17303e-15
1.11566e-14
-1.49132e-15
2.94609e-16
1.64964e-15
-7.08691e-16
-6.45666e-15
-1.18038e-14
4.11262e-15
9.05696e-15
-8.77415e-15
-6.51246e-15
-2.22699e-15
-5.46124e-15
1.26133e-14
3.29035e-15
9.24799e-15
-1.0446e-14
5.43662e-15
8.18488e-15
1.30744e-16
6.91315e-15
-2.63434e-15
-1.1655e-14
-9.44629e-15
6.14941e-16
-1.54648e-14
-6.82154e-16
-5.23282e-15
6.59521e-15
-4.27535e-15
1.52779e-14
-2.51288e-14
2.08532e-14
1.02219e-14
-3.79842e-15
-1.9098e-15
-5.93445e-15
-5.60351e-15
1.60729e-14
1.58834e-15
-1.06043e-15
-3.58686e-15
5.32518e-15
-9.0342e-15
-2.99371e-15
-1.40859e-15
-3.78039e-15
6.45017e-15
1.06929e-14
-6.69979e-15
-2.4153e-15
1.88193e-15
2.14625e-14
-1.77357e-14
-1.02624e-14
-1.00745e-14
-2.23678e-14
6.10123e-15
1.51181e-14
-2.52427e-15
-1.79729e-14
1.35539e-14
9.42536e-15
4.12042e-15
1.35383e-14
-8.94076e-17
1.30054e-14
-4.45193e-15
8.97413e-15
-1.7513e-15
-1.39648e-15
3.58865e-15
4.42209e-15
-1.72305e-14
9.20821e-15
-1.1456e-15
9.51058e-16
1.18629e-14
-1.25831e-14
5.77096e-15
1.40482e-17
1.11347e-14
1.7053e-14
2.37507e-14
-6.00199e-15
2.50974e-14
-1.544e-14
2.03119e-14
4.57604e-15
1.09253e-14
-1.90474e-14
1.62725e-14
-7.35938e-15
-1.49889e-14
9.06284e-15
2.19555e-14
-6.14908e-15
2.43279e-14
-1.73241e-14
-1.14831e-15
2.83509e-15
7.42662e-15
-1.0751e-14
1.06807e-14
-3.24192e-15
1.04186e-14
-4.23034e-15
-5.24944e-15
-6.32759e-15
1.53948e-14
-1.47165e-14
8.96705e-15
-6.5411e-15
1.85445e-14
6.80612e-15
3.0446e-14
1.4838e-14
-1.34017e-14
-8.14808e-15
-1.63331e-15
1.33822e-14
-1.0064e-14
1.4472e-14
-3.01622e-14
1.0208e-14
2.4873e-15
-6.42582e-15
-2.0394e-15
-1.99879e-14
-1.37228e-14
7.7166e-15
-1.76053e-14
-4.47908e-15
-4.3738e-15
-6.3406e-15
-3.06322e-15
-2.21208e-15
-2.0564e-14
-6.21571e-15
1.26452e-14
-7.05441e-15
9.13052e-15
-1.31638e-14
-2.73109e-14
-6.29728e-15
-1.27063e-14
1.80619e-14
-7.76042e-15
4.469e-15
1.35958e-15
2.90912e-14
-3.02798e-15
1.17724e-14
2.11206e-14
-1.72692e-14
1.56614e-14
-3.19312e-15
-1.04876e-14
3.53681e-14
-3.60482e-15
2.49409e-14
-9.62456e-16
1.29151e-14
7.06379e-16
1.66836e-14
-2.04925e-14
3.39794e-15
1.98557e-14
-6.73577e-15
-5.40348e-15
1.62762e-14
-9.16274e-15
1.56024e-14
-7.12504e-15
-8.75376e-15
-6.6355e-15
-1.1708e-14
1.23368e-14
-1.42631e-14
-1.24264e-14
-1.15713e-14
7.38529e-15
-2.57319e-14
2.50486e-14
-1.68684e-14
2.32406e-15
6.568e-15
2.08999e-14
2.53694e-14
-7.78001e-15
2.61312e-14
-3.20268e-15
2.92651e-15
1.64857e-14
-6.40057e-15
-2.62851e-15
-1.85531e-14
1.84697e-14
-3.01666e-15
-1.60355e-14
4.73598e-15
-1.35614e-14
-2.11906e-15
1.90439e-14
1.43085e-14
3.28521e-15
-1.40374e-15
4.78102e-15
-4.69317e-15
7.93886e-16
-2.03137e-14
8.33322e-15
3.19763e-15
-1.09038e-14
-1.31252e-14
-4.23802e-15
4.00028e-15
-3.25939e-15
-2.4117e-14
-2.49336e-16
-2.33116e-14
-2.38777e-14
8.81172e-15
-7.46576e-15
2.60017e-14
9.88729e-15
6.5522e-15
4.2531e-15
4.58691e-15
-1.01404e-16
1.38406e-14
1.2319e-14
5.14495e-15
1.3372e-14
2.05324e-14
9.39454e-15
2.16672e-15
-3.69985e-16
1.74561e-14
1.88241e-14
-5.94014e-15
-1.36297e-14
1.61478e-14
-8.19901e-15
1.72614e-14
2.59167e-14
-1.31785e-14
-6.01154e-15
-7.03786e-15
-3.5894e-15
9.81572e-15
6.57136e-15
-6.18458e-15
-2.01493e-14
-6.12371e-15
7.4857e-16
2.23547e-14
-2.4564e-14
3.74355e-15
6.52893e-15
-3.34401e-15
1.48527e-15
1.48019e-14
-2.89227e-15
-2.06524e-14
-6.05677e-15
-1.05628e-14
-1.72496e-14
-4.44176e-15
2.21213e-15
-1.45247e-15
-8.43085e-15
-1.53902e-14
-1.2008e-14
2.54502e-14
1.11889e-14
1.13216e-14
2.39165e-14
-1.86142e-14
1.09107e-14
2.36625e-14
2.46703e-14
-2.70185e-14
-2.64592e-16
-2.11762e-14
-1.62561e-14
2.45591e-14
-1.38441e-15
6.09066e-15
-1.42327e-14
-1.57901e-14
3.49471e-15
1.25073e-15
1.44628e-14
-2.51599e-14
-7.01729e-15
-2.61714e-14
-2.55884e-15
-4.6481e-15
7.11182e-15
2.47148e-15
4.23878e-16
-3.14296e-15
6.72824e-16
-9.83146e-15
-1.28228e-14
1.97881e-14
1.07919e-14
-7.51428e-15
2.52552e-14
1.169e-14
-7.2192e-15
3.51781e-14
2.02572e-14
1.41447e-14
-2.63748e-15
7.01951e-16
8.35646e-15
8.92901e-15
3.60543e-15
-5.97874e-15
-3.51726e-16
-1.8436e-14
5.72406e-15
1.09385e-14
1.98352e-15
2.32245e-14
9.14583e-15
2.82235e-14
-3.2752e-14
-8.79944e-15
-6.97461e-15
1.03568e-14
-2.60901e-15
-3.45777e-14
-8.73098e-15
-3.89039e-14
1.227e-14
1.97826e-14
-1.43029e-14
-3.18661e-14
2.46972e-14
-2.7036e-14
-1.65134e-15
-1.15191e-15
-2.35781e-14
-1.7834e-14
-2.62768e-14
-2.11317e-14
7.04888e-15
3.15748e-15
2.0831e-14
3.36478e-16
2.63076e-15
3.78883e-15
2.95914e-16
7.37489e-15
-1.04716e-15
-3.38395e-16
-7.50956e-15
-2.78478e-14
9.91331e-15
-6.23465e-15
-2.00776e-14
-1.40137e-14
-6.68285e-16
1.46544e-14
-2.47682e-14
7.25029e-15
2.25943e-15
-1.1314e-14
7.97538e-15
-1.76241e-14
-1.52701e-14
-1.18624e-14
-1.5891e-15
-1.54632e-14
8.74233e-15
-7.1746e-15
-9.33529e-15
6.02065e-15
-3.61566e-15
2.98506e-15
1.71491e-14
1.27598e-14
-4.63482e-15
-1.80178e-14
-1.88712e-14
1.11699e-14
-1.81676e-15
2.90974e-14
-1.29741e-14
1.87553e-14
7.36743e-15
4.47488e-14
1.93076e-14
5.48996e-14
-3.03373e-15
-3.07297e-14
-2.72706e-14
1.40406e-14
-5.35018e-14
1.74054e-14
2.32269e-14
2.6439e-14
3.23036e-14
2.42819e-14
3.34638e-14
3.08932e-14
1.25736e-14
-2.09473e-14
-3.59051e-14
-2.68314e-14
-1.61304e-15
-1.96346e-14
1.13323e-14
-8.9296e-15
9.93103e-15
1.15752e-14
2.22466e-14
6.32202e-15
1.57326e-14
-1.08474e-14
-3.06244e-15
-1.53004e-14
-7.92837e-15
-2.55034e-14
-9.74936e-15
-2.23065e-15
5.5252e-15
1.12481e-14
-1.95608e-14
2.97323e-14
-2.69239e-14
1.82773e-15
-6.93193e-15
2.47557e-14
-3.3722e-14
1.00377e-14
1.05041e-14
8.05809e-15
-1.23351e-14
1.26872e-14
-1.73291e-14
-7.56607e-15
-9.99099e-15
1.41676e-14
-1.11408e-14
1.5784e-15
1.81791e-14
-3.5492e-14
6.66263e-15
4.71358e-15
-1.21169e-14
-1.82885e-14
-1.06054e-14
-2.0792e-14
1.977e-15
1.52062e-14
8.76673e-15
-2.87658e-14
-7.81535e-15
1.92928e-14
-2.47693e-14
-2.46351e-14
-2.08112e-14
-1.50969e-14
-2.78154e-14
-7.06144e-15
7.15801e-15
1.91194e-14
1.53016e-14
4.0244e-15
-1.27237e-14
2.25028e-14
1.68044e-15
-9.20327e-15
-4.24792e-14
-2.75576e-14
8.29835e-15
-1.95779e-14
2.38005e-14
1.08656e-14
1.9686e-14
1.28164e-14
3.3816e-14
1.96867e-14
1.97769e-14
-7.73926e-15
-9.86935e-15
1.53482e-14
1.30779e-14
-3.99798e-14
1.59189e-14
2.38199e-14
-2.75686e-14
-2.35247e-14
2.8519e-14
-1.51291e-14
5.90634e-15
-2.0458e-14
4.32969e-14
1.13005e-14
2.90219e-15
-7.36783e-16
2.33481e-14
3.57061e-15
3.45678e-14
-1.46737e-14
-1.37466e-14
2.63764e-15
-2.29361e-14
3.8846e-15
2.86782e-14
-7.9627e-15
6.56271e-15
1.15209e-14
-7.64142e-15
2.01348e-14
2.61488e-14
2.05818e-14
-3.02272e-17
-2.77288e-14
6.67577e-15
9.27758e-15
1.20367e-14
-2.17029e-14
2.29298e-14
-3.00797e-14
-1.89092e-14
-5.63361e-15
3.64154e-15
-6.25035e-15
1.71682e-15
-1.80662e-14
3.21291e-15
3.35537e-14
1.70261e-14
4.41012e-14
3.30228e-14
1.14441e-14
-3.76544e-15
-1.73459e-14
-8.59101e-15
-9.13578e-15
3.19194e-15
-5.00311e-15
6.29782e-15
-3.91705e-15
2.34772e-14
-1.68312e-14
5.48398e-15
4.22448e-14
-4.87282e-14
-5.6056e-14
-6.57619e-15
-2.18541e-14
-2.82781e-14
3.24245e-14
-1.57812e-14
1.94393e-14
2.01893e-15
-1.66589e-14
-5.00147e-15
1.24e-14
1.37215e-15
4.8486e-15
-3.47993e-14
1.43275e-15
-1.50778e-14
4.39063e-14
5.80804e-15
-2.25485e-14
3.21718e-15
2.87029e-14
1.0571e-14
2.41101e-14
2.10881e-15
-4.49505e-14
1.77842e-15
-7.84072e-15
-1.94838e-14
-1.11401e-14
-3.20578e-16
-5.75433e-14
-3.21368e-14
3.03792e-14
5.21795e-15
4.78281e-14
5.49537e-15
1.3684e-14
-1.45144e-15
5.13017e-14
2.07991e-15
1.96855e-14
2.01973e-14
1.54344e-14
-3.36856e-14
1.42861e-14
-1.65996e-14
-6.61361e-15
-2.08893e-15
2.47129e-14
-2.71031e-14
3.76282e-14
-2.30559e-14
1.6746e-14
-1.50207e-14
-2.18114e-14
6.08762e-15
1.76613e-14
-2.41193e-14
-3.08257e-14
5.39125e-14
4.27197e-14
-2.12525e-14
-5.28536e-15
3.5443e-14
4.43864e-15
5.74845e-15
-1.64894e-16
2.35655e-14
-1.14446e-14
-1.83491e-14
-1.19204e-14
1.29475e-14
4.99768e-15
2.3685e-14
-1.88607e-14
2.71073e-14
-6.92894e-14
2.83731e-14
-9.57162e-15
-3.60999e-14
1.31941e-15
1.43885e-14
1.47149e-15
1.98828e-14
3.7029e-15
-3.44045e-14
-1.52424e-15
6.13966e-15
-1.35213e-14
2.16565e-15
1.26048e-15
1.44021e-14
-1.63733e-14
-2.29194e-14
-3.9216e-14
2.1638e-14
7.33544e-16
-7.40095e-15
-1.97658e-14
8.18359e-15
-2.98853e-14
-1.54167e-14
-1.92823e-14
5.70927e-15
-2.8642e-14
-1.25818e-14
-1.87301e-15
-6.9122e-15
2.08194e-15
1.28921e-14
-2.62069e-14
4.25716e-14
3.24695e-14
1.36772e-14
1.57967e-14
-6.6258e-15
-2.73743e-14
5.07641e-14
3.78763e-15
-2.21988e-14
-1.48574e-14
1.50312e-14
4.01964e-14
-2.03785e-14
8.0058e-15
-3.90771e-14
-9.19038e-15
-3.29905e-14
3.99124e-14
1.43333e-14
-1.30727e-14
-1.95876e-14
1.59011e-14
-7.90953e-15
1.37841e-14
-5.17377e-14
4.66286e-14
-2.10813e-14
-5.8892e-15
2.19335e-14
2.71813e-14
-1.83466e-14
-5.78991e-15
-4.25048e-14
3.56864e-14
2.62716e-15
8.17296e-15
-1.45773e-14
-8.55747e-15
-1.04756e-14
-2.63515e-15
1.21988e-14
-1.48763e-14
2.08217e-14
9.23849e-16
-2.66562e-14
5.6681e-15
-1.24418e-14
3.00848e-14
-1.13927e-14
-2.39833e-14
5.16668e-14
2.91372e-14
2.50125e-16
9.66349e-16
2.90134e-14
-3.03688e-14
6.49415e-15
1.81115e-14
-1.11673e-16
4.81945e-14
-1.4498e-14
1.28543e-15
-4.52773e-14
-1.70006e-14
-1.44286e-14
3.16055e-14
-1.90088e-14
-3.46748e-14
-5.37547e-16
-1.41789e-14
-5.33231e-14
-1.44577e-14
2.55265e-15
-4.10995e-14
6.61895e-15
5.33438e-15
2.06495e-14
-3.33065e-14
5.03709e-15
-3.07521e-14
1.97379e-14
1.58267e-14
-7.90383e-15
3.50178e-14
2.88604e-14
-1.08251e-14
-5.06109e-14
5.99607e-15
-2.8297e-14
-1.73658e-14
-4.7073e-14
-2.13523e-15
1.39434e-14
-2.92278e-14
2.0832e-14
2.05018e-14
-1.01281e-14
-9.0571e-15
2.16819e-14
7.45541e-15
-1.27559e-14
-4.68397e-15
2.43093e-14
3.36348e-14
-7.0729e-15
-9.56765e-15
3.39117e-15
-3.1459e-14
-3.07167e-14
1.23855e-14
-9.34535e-14
2.25007e-14
-2.38965e-14
-1.66176e-14
-7.03287e-14
1.78644e-14
-1.0733e-14
-5.44508e-14
-3.03713e-14
-4.21139e-14
1.41384e-14
-1.86572e-14
3.38583e-14
-2.1652e-14
-6.2823e-15
-1.20589e-14
-8.68945e-15
2.48087e-14
2.06471e-14
-1.27027e-14
4.74443e-14
-1.90434e-14
-1.46595e-14
3.91774e-14
-4.31755e-14
-1.05953e-14
2.75268e-14
-2.371e-14
4.27718e-15
6.24925e-14
-3.49618e-14
1.84655e-14
-1.66785e-14
-1.86897e-14
-3.00068e-14
3.72241e-14
5.07081e-15
-4.87501e-14
4.2461e-14
1.86997e-14
8.56012e-14
4.62239e-15
-1.47256e-14
4.05058e-14
-3.42174e-16
-2.05272e-14
2.24651e-14
-2.20583e-14
-2.60757e-14
3.6852e-15
2.50151e-14
4.37532e-14
-4.60361e-14
7.16658e-15
2.83146e-14
1.53306e-15
-2.03483e-14
5.80625e-14
4.46171e-15
2.7491e-15
4.21273e-14
-1.29055e-14
4.97302e-15
1.29063e-14
2.70626e-14
-2.28892e-14
-1.20563e-15
-5.16384e-15
-2.32054e-14
4.11056e-14
-3.37573e-14
2.97726e-14
-2.32401e-14
2.9855e-14
8.95811e-15
5.34195e-14
3.09206e-14
-1.46758e-14
-9.5657e-15
8.37958e-15
-2.37015e-14
3.08742e-14
-1.45548e-14
-2.03023e-14
6.92025e-15
2.15015e-14
2.93424e-14
5.59015e-15
6.34475e-15
-4.36899e-14
4.88195e-14
1.25819e-14
4.51002e-14
-2.93069e-14
-1.8003e-14
-3.86336e-14
5.68729e-15
-1.40747e-14
2.18102e-14
-3.16019e-14
-3.48844e-14
-2.70001e-14
5.36268e-14
2.13067e-15
-5.04549e-14
1.47942e-14
-3.45435e-14
-4.2254e-14
2.26698e-14
4.91725e-14
1.74526e-14
-5.28848e-14
7.06189e-14
-7.74728e-15
1.30781e-14
-1.76664e-14
2.19061e-14
-5.30149e-14
-3.19536e-14
-2.74641e-14
5.26315e-15
-1.39888e-14
2.39409e-14
3.50241e-15
-3.04114e-14
-8.55913e-15
-8.89219e-15
8.59209e-15
1.63689e-14
3.07549e-14
3.80442e-14
1.06234e-14
1.0306e-14
-5.22967e-14
4.41314e-15
-6.9755e-14
-3.10516e-14
-4.87648e-14
1.26461e-15
-4.75505e-14
4.49293e-16
-2.65361e-14
-1.11716e-14
3.40769e-14
2.56999e-14
1.59976e-14
-1.00977e-13
5.01994e-14
-2.8472e-14
1.01048e-14
-2.20206e-14
4.38191e-14
-3.29355e-14
-7.88779e-15
2.03865e-14
3.36849e-14
-4.11442e-14
6.12687e-14
-4.10887e-14
-1.28075e-14
2.58508e-14
4.31356e-14
-4.17756e-14
8.65627e-16
3.44499e-14
-1.86483e-14
1.80654e-14
2.2744e-14
-5.36272e-14
-6.14682e-14
-4.91083e-14
3.31506e-15
-2.19269e-15
3.48402e-14
-3.01668e-14
-3.10828e-14
1.74097e-14
4.55712e-14
1.04396e-14
2.52957e-14
2.39184e-14
3.81604e-14
-1.6636e-14
-5.42275e-15
2.1174e-14
3.0493e-14
3.49616e-14
7.28584e-16
2.78944e-15
-8.75723e-14
-3.1232e-14
-2.81788e-14
2.37275e-14
-4.53457e-15
-2.45845e-14
1.0561e-14
2.30857e-14
4.08423e-14
4.35069e-14
2.58508e-14
-8.62158e-15
-2.80505e-14
2.2881e-14
1.51268e-15
-1.75207e-15
2.07404e-14
2.52853e-14
-7.52176e-15
-5.13131e-15
-3.31263e-14
-2.09451e-14
-4.35312e-14
3.41394e-14
6.37337e-15
-1.33227e-14
-5.92477e-14
3.67519e-14
-5.75581e-15
1.02453e-14
4.06966e-15
-9.33281e-15
-8.24965e-14
-2.95146e-14
2.08826e-14
-7.82707e-15
-9.92956e-15
-2.38594e-14
-1.50817e-14
7.22269e-14
4.71047e-14
5.46056e-14
-1.22333e-14
-1.20251e-14
-4.08562e-14
1.83881e-15
2.14412e-15
-2.36616e-14
-1.83742e-14
2.634e-14
4.6213e-14
-2.26902e-14
-4.43603e-14
1.79023e-14
4.77257e-14
5.35127e-14
9.66588e-15
1.41692e-14
1.06998e-14
4.00235e-14
-1.65493e-14
7.32053e-15
4.19526e-14
3.07046e-14
3.02328e-14
3.77545e-14
-1.52725e-14
3.30222e-14
-2.85466e-14
-4.57967e-14
-4.11268e-14
3.37369e-14
1.91513e-14
-4.40689e-14
1.30868e-14
-6.93126e-14
-9.71445e-15
3.46181e-14
6.34076e-14
-1.45023e-14
6.49411e-14
-2.04281e-14
-1.36002e-15
2.69715e-14
-1.31145e-15
-1.69934e-14
2.8727e-14
-6.72656e-14
-5.4283e-14
4.27228e-14
6.25888e-15
-4.33681e-15
-7.48707e-15
4.18138e-14
4.17305e-14
2.06987e-14
3.26336e-14
-2.75335e-14
3.52149e-14
-3.41602e-14
-3.12389e-14
-8.35443e-15
9.54098e-15
2.50494e-14
3.03507e-14
5.07927e-15
-6.3699e-15
5.20001e-14
8.04079e-14
-5.19029e-15
-4.94466e-14
-1.88322e-14
1.83603e-14
2.18714e-14
-8.76244e-14
-6.65301e-14
-3.4972e-14
1.85962e-15
3.76782e-14
1.11022e-16
-2.91434e-16
1.40721e-14
4.17721e-14
-1.1352e-14
-1.56403e-14
-3.19328e-14
2.64927e-14
-1.12965e-14
-3.78864e-15
1.67921e-15
-2.42861e-14
-8.92342e-15
-1.71113e-14
2.06779e-14
2.19269e-14
6.5753e-14
5.1209e-15
-7.29833e-14
2.80609e-14
-1.66256e-14
-2.97679e-14
7.61891e-15
-1.72778e-14
-7.88258e-14
-3.17246e-14
-1.72778e-14
3.25434e-14
1.36835e-14
9.97258e-14
-2.80748e-14
-1.46133e-14
1.11439e-14
3.82888e-14
-3.89272e-14
-1.43635e-14
5.41234e-16
-2.03726e-14
1.62093e-14
2.90185e-14
1.20598e-14
9.15934e-16
1.71113e-14
9.1871e-15
-1.15463e-14
-1.33227e-15
2.31343e-14
-1.53905e-14
-8.6306e-14
-3.89272e-14
2.90462e-14
4.4853e-14
-3.8608e-14
-1.45856e-14
3.16552e-14
4.21607e-14
3.36814e-14
5.76206e-14
5.15005e-14
4.11338e-14
-6.93889e-17
-1.03251e-14
-9.88098e-15
-6.09929e-14
1.51545e-14
9.45077e-15
-1.35725e-14
2.74364e-14
1.87766e-14
-1.44607e-14
1.96509e-14
-9.1871e-15
-6.4948e-15
-1.1019e-14
-8.11851e-15
-2.99899e-14
-9.54792e-15
-4.0204e-14
-8.24341e-15
-5.64271e-14
4.72816e-14
3.22242e-14
-5.89806e-14
-5.84255e-15
1.55431e-15
5.58997e-14
-1.40166e-14
-3.19189e-15
2.85327e-14
-2.81303e-14
9.17322e-15
-4.32709e-14
3.56382e-14
-3.4403e-14
3.83721e-14
7.84095e-15
6.46705e-15
-9.21485e-15
3.20716e-14
-1.03528e-14
8.14626e-15
2.21767e-14
2.02893e-14
-1.77636e-14
6.88338e-15
1.36002e-14
-3.78586e-14
6.4948e-15
3.79419e-14
-1.28231e-14
-7.10543e-15
1.20737e-14
5.9508e-14
-1.86795e-14
-2.33147e-14
-1.23235e-14
-4.68514e-14
-7.5745e-14
-4.41314e-14
-1.80134e-14
3.80251e-15
3.45834e-14
-1.95122e-14
2.80886e-14
-3.611e-14
-2.85882e-14
4.88498e-15
-3.40838e-14
-1.20459e-14
-1.80689e-14
3.25295e-14
-2.28983e-14
-1.38778e-15
-8.99281e-15
3.2141e-14
4.01346e-14
-1.37668e-14
4.00513e-14
-1.7486e-15
3.10862e-14
-1.0103e-14
-6.98885e-14
-1.03528e-14
5.68989e-14
-1.7264e-14
-2.47025e-15
2.60902e-15
2.76723e-14
-2.18714e-14
5.91194e-15
-3.58047e-14
-1.69587e-14
-2.53408e-14
2.28151e-14
6.99441e-15
-1.34337e-14
-2.5091e-14
1.21847e-14
-3.01703e-14
4.67959e-14
6.66134e-15
-3.09475e-14
-2.02338e-14
1.17406e-14
1.82632e-14
3.33067e-15
2.35922e-14
-2.24265e-14
-8.38218e-15
2.55906e-14
-1.99285e-14
1.84297e-14
-1.32672e-14
1.53766e-14
-4.60187e-14
1.78191e-14
1.25455e-14
4.97935e-14
5.701e-14
-3.00315e-14
1.11022e-16
-5.38458e-15
3.16969e-14
1.7486e-14
1.43774e-14
1.88183e-14
1.10467e-14
-6.88338e-15
1.41553e-14
-2.79221e-14
1.10467e-14
5.05151e-15
5.58442e-14
-1.78191e-14
-2.60347e-14
1.07692e-14
2.08722e-14
-1.60982e-14
-4.77396e-15
-2.47025e-14
2.34257e-14
3.46945e-14
2.12608e-14
-7.89369e-14
2.90323e-14
-4.95715e-14
-2.57572e-14
1.44329e-15
4.65183e-14
-6.86118e-14
3.91354e-14
3.94129e-14
-3.09752e-14
-4.47975e-14
-1.41553e-14
4.91274e-14
-4.90163e-14
5.71765e-15
-3.80251e-14
-2.4758e-14
1.53211e-14
4.95159e-14
2.226e-14
8.21565e-15
-6.38378e-14
3.28626e-14
-5.30131e-14
1.84297e-14
1.7375e-14
-4.43534e-14
-1.93179e-14
-3.57492e-14
1.84852e-14
-2.28706e-14
5.2347e-14
3.29181e-14
2.15938e-14
-7.27196e-15
1.01585e-14
4.16334e-14
2.01505e-14
1.16018e-14
-1.62093e-14
-9.49241e-15
2.94209e-15
-4.76841e-14
3.38618e-15
4.89053e-14
1.49325e-14
-1.27676e-14
-2.7256e-14
-1.77636e-15
-4.4964e-14
2.16493e-15
2.64788e-14
6.4948e-15
1.67089e-14
-1.13798e-14
-2.15383e-14
1.40443e-14
-3.05866e-14
1.31006e-14
-2.65898e-14
2.84772e-14
-2.17604e-14
2.77556e-15
-2.45914e-14
-3.21965e-14
-2.89213e-14
1.88183e-14
-6.10068e-14
-1.73195e-14
5.92304e-14
1.45994e-14
-3.38618e-15
-1.4988e-14
2.81442e-14
-1.9984e-15
1.68754e-14
-2.88658e-15
-2.4869e-14
2.2371e-14
4.07452e-14
-4.05231e-15
4.85167e-14
-6.36713e-14
3.65263e-14
-2.91989e-14
1.69864e-14
-8.88178e-16
-3.14748e-14
1.60427e-14
-2.67564e-14
3.55271e-14
4.66294e-15
1.12133e-14
1.03251e-14
-3.13083e-14
3.86913e-14
-1.44329e-15
1.02696e-14
-2.93099e-14
-4.14668e-14
1.7597e-14
8.88178e-16
1.33782e-14
-5.27356e-15
-5.973e-14
1.63203e-14
2.77556e-16
6.21725e-15
-3.34732e-14
5.09037e-14
-1.29896e-14
-4.36318e-14
4.71845e-15
-2.08722e-14
3.89688e-14
7.43849e-15
-4.01346e-14
2.02616e-14
-9.99201e-15
-6.77236e-15
-1.90403e-14
1.14908e-14
1.7486e-14
-5.38458e-15
2.52576e-14
-2.08722e-14
-1.9762e-14
1.25455e-14
2.23155e-14
-3.36953e-14
-2.10942e-15
-2.84772e-14
4.37428e-14
-1.21014e-14
-9.54792e-15
-1.70974e-14
-1.17684e-14
-3.83027e-15
1.92069e-14
-4.11338e-14
-1.60982e-15
3.51941e-14
8.14904e-14
1.19904e-14
1.90958e-14
-2.63123e-14
-2.55351e-14
5.02931e-14
-1.09912e-14
3.40838e-14
-3.4861e-14
-6.32827e-15
4.77396e-15
-1.62093e-14
4.51861e-14
-8.32667e-15
-4.55191e-15
-2.36478e-14
8.99281e-15
-7.66054e-15
-1.4877e-14
-7.32747e-15
-1.9873e-14
-1.19904e-14
2.68674e-14
3.33067e-16
-3.34177e-14
4.44089e-16
-1.12133e-14
-3.81917e-14
2.30926e-14
-3.9968e-15
-1.36557e-14
1.05471e-14
-1.11022e-15
1.55431e-14
-3.44169e-15
-4.39648e-14
-3.57492e-14
1.42109e-14
4.18554e-14
-1.89848e-14
-3.77476e-15
2.77556e-14
-1.26565e-14
3.43059e-14
2.4647e-14
2.10942e-14
2.32037e-14
-5.21805e-15
1.88738e-15
-1.32117e-14
-2.9643e-14
2.66454e-15
-3.39728e-14
-3.9968e-15
-1.95399e-14
2.38698e-14
-2.02061e-14
5.14033e-14
2.32037e-14
-3.55271e-14
-3.39728e-14
1.36557e-14
-5.30687e-14
-2.22045e-16
3.65263e-14
-6.10623e-15
1.02141e-14
-4.26326e-14
2.85327e-14
-3.10862e-15
2.09832e-14
-1.90958e-14
-3.0087e-14
3.73035e-14
-1.62093e-14
6.43929e-15
-3.33067e-15
9.21485e-15
4.87388e-14
1.16573e-14
1.26565e-14
3.21965e-15
-2.04281e-14
1.22125e-14
-8.54872e-15
-9.4369e-15
5.69544e-14
3.4861e-14
1.14353e-14
4.26326e-14
-6.4837e-14
4.55191e-15
-3.66374e-15
-4.21885e-14
-2.10942e-15
9.76996e-15
0
6.21725e-15
-3.13083e-14
2.29816e-14
2.10942e-14
7.54952e-15
8.88178e-15
8.88178e-16
-1.54321e-14
-1.68754e-14
-1.45439e-14
4.75175e-14
-1.44329e-14
1.55431e-14
4.07452e-14
8.54872e-15
3.44169e-15
-1.66533e-15
1.11022e-15
-7.77156e-16
6.66134e-15
4.32987e-15
-3.70814e-14
2.14273e-14
2.44249e-15
-1.4877e-14
8.88178e-15
9.88098e-15
-5.04041e-14
-1.04361e-14
4.50751e-14
5.52891e-14
-3.9968e-15
-2.25375e-14
2.66454e-14
9.76996e-15
-3.34177e-14
-3.57492e-14
1.36557e-14
5.32907e-15
-8.32667e-15
-3.44169e-14
-6.27276e-14
-4.32987e-15
4.44089e-16
4.66294e-15
-1.95399e-14
-1.64313e-14
2.57572e-14
1.18794e-14
-5.93969e-14
-2.60902e-14
2.77556e-15
-1.19904e-14
2.67564e-14
1.75415e-14
1.58762e-14
-3.27516e-14
-2.12053e-14
-8.43769e-15
4.4964e-14
-3.83027e-14
-1.33227e-14
-7.77156e-16
-5.77316e-15
-1.72085e-14
-4.996e-15
1.12133e-14
7.32747e-15
-1.9984e-15
-7.77156e-15
5.55112e-15
4.13003e-14
-1.9873e-14
-2.85327e-14
-8.77076e-15
-6.21725e-15
-2.54241e-14
-3.53051e-14
3.21965e-15
4.91829e-14
-1.67644e-14
9.76996e-15
2.10942e-14
9.54792e-15
-1.93179e-14
-1.04361e-14
-2.86438e-14
2.90878e-14
-2.42029e-14
-3.10862e-14
-4.95159e-14
1.26565e-14
1.55431e-14
-3.35287e-14
4.88498e-15
8.21565e-15
-3.33067e-15
-1.95399e-14
-8.65974e-15
4.66294e-15
8.88178e-16
1.90958e-14
-4.32987e-14
-2.06501e-14
-2.88658e-15
1.9984e-15
-6.88338e-15
-1.17684e-14
-9.54792e-15
-6.21725e-15
4.44089e-16
8.88178e-16
2.88658e-14
3.68594e-14
-5.35127e-14
-6.03961e-14
1.95399e-14
1.44329e-14
2.84217e-14
2.17604e-14
2.42029e-14
1.42109e-14
-7.54952e-15
8.88178e-16
3.24185e-14
1.73195e-14
-1.53211e-14
-3.04201e-14
-4.66294e-15
4.13003e-14
4.21885e-15
-4.17444e-14
-9.54792e-15
8.88178e-15
-2.66454e-15
1.31006e-14
-2.88658e-15
8.88178e-15
8.43769e-15
-4.9738e-14
3.28626e-14
2.02061e-14
-5.06262e-14
5.32907e-15
5.72875e-14
-2.17604e-14
2.08722e-14
-3.4861e-14
2.4647e-14
7.54952e-15
1.06581e-14
2.75335e-14
1.4877e-14
2.06501e-14
-2.42029e-14
-1.88738e-14
2.55351e-14
-1.31006e-14
-5.32907e-15
-1.04361e-14
4.19664e-14
-1.57652e-14
2.55351e-14
-4.86278e-14
7.77156e-15
-1.11022e-14
1.13243e-14
2.37588e-14
4.21885e-15
1.53211e-14
9.76996e-15
2.4869e-14
9.32587e-15
-6.88338e-15
4.24105e-14
3.44169e-14
-3.53051e-14
-3.06422e-14
-1.26565e-14
-2.9976e-14
-4.4631e-14
2.22045e-16
3.08642e-14
4.44089e-16
-5.10703e-15
-2.44249e-15
7.99361e-15
-2.13163e-14
-6.66134e-15
-3.30846e-14
1.70974e-14
4.44089e-14
4.44089e-15
4.44089e-15
-3.9968e-15
7.32747e-15
-1.33227e-14
2.22045e-16
-2.17604e-14
3.39728e-14
2.70894e-14
-1.46549e-14
3.19744e-14
6.66134e-16
-2.81997e-14
9.76996e-15
2.06501e-14
4.04121e-14
7.77156e-15
2.22045e-14
1.79856e-14
-1.39888e-14
-1.9984e-14
2.44249e-15
4.52971e-14
-1.33227e-15
-3.70814e-14
8.43769e-15
1.15463e-14
-2.22045e-15
-2.22045e-14
1.59872e-14
-8.88178e-15
4.28546e-14
0
-1.19904e-14
-3.55271e-15
-8.43769e-15
9.54792e-15
3.33067e-15
-1.42109e-14
-2.24265e-14
-4.50751e-14
-1.06581e-14
-2.08722e-14
-4.88498e-15
6.21725e-15
7.54952e-15
1.93179e-14
4.44089e-15
1.44329e-14
5.32907e-15
-4.28546e-14
7.99361e-15
1.77636e-15
-9.99201e-15
1.5099e-14
9.54792e-15
2.44249e-14
-1.17684e-14
-7.32747e-15
-3.33067e-15
1.57652e-14
-3.24185e-14
-2.68674e-14
2.02061e-14
5.08482e-14
1.37668e-14
2.10942e-14
-4.30767e-14
-4.55191e-14
-1.11022e-14
5.32907e-15
-1.28786e-14
-1.11022e-14
-2.33147e-14
-4.21885e-14
-4.01901e-14
9.54792e-15
2.73115e-14
1.33227e-15
4.59632e-14
1.55431e-15
-1.26565e-14
-1.13243e-14
7.99361e-15
5.973e-14
-2.66454e-14
-1.53211e-14
4.57412e-14
1.66533e-14
-1.26565e-14
-2.44249e-15
4.66294e-15
1.17684e-14
-9.76996e-15
-1.77636e-15
9.32587e-15
1.77636e-15
-4.44089e-16
-3.10862e-15
-3.55271e-15
2.70894e-14
1.37668e-14
2.22045e-15
1.24345e-14
1.37668e-14
-1.5099e-14
-1.24345e-14
-1.08802e-14
-3.10862e-15
-1.84297e-14
-5.10703e-15
-4.61853e-14
2.66454e-15
-3.55271e-15
1.77636e-15
-1.26565e-14
-3.73035e-14
-3.10862e-15
2.35367e-14
5.9952e-15
-3.79696e-14
-4.66294e-15
-7.10543e-15
-8.43769e-15
-2.81997e-14
-2.15383e-14
-2.44249e-15
2.06501e-14
5.08482e-14
1.79856e-14
3.17524e-14
-5.55112e-15
3.21965e-14
2.22045e-15
1.53211e-14
-2.57572e-14
-3.84137e-14
-1.42109e-14
-1.90958e-14
-3.21965e-14
1.33227e-15
-1.22125e-14
-4.39648e-14
2.66454e-15
1.04361e-14
2.68674e-14
-2.9754e-14
-5.04041e-14
-1.19904e-14
-3.41949e-14
3.79696e-14
-2.95319e-14
-6.43929e-15
5.77316e-15
0
-5.55112e-15
-4.66294e-15
1.17684e-14
2.84217e-14
-1.11022e-15
2.22045e-16
-2.64233e-14
2.17604e-14
1.26565e-14
-3.90799e-14
-2.73115e-14
5.9952e-15
-2.39808e-14
9.76996e-15
-1.88738e-14
1.04361e-14
5.66214e-14
-1.9984e-15
-1.11022e-14
1.70974e-14
4.21885e-15
1.17684e-14
1.33227e-14
-5.9952e-15
-2.66454e-15
7.77156e-15
-4.44089e-16
1.06581e-14
-6.43929e-15
1.11022e-14
4.66294e-15
-2.15383e-14
7.10543e-15
-3.13083e-14
-4.4631e-14
-2.17604e-14
-3.9968e-15
2.66454e-15
1.82077e-14
-1.9984e-14
5.24025e-14
9.76996e-15
5.24025e-14
1.59872e-14
3.55271e-14
1.5099e-14
7.10543e-15
3.01981e-14
-5.77316e-15
-1.73195e-14
1.33227e-14
3.81917e-14
4.88498e-14
2.93099e-14
3.90799e-14
-1.33227e-14
-1.5099e-14
-3.77476e-14
-3.9968e-15
1.24345e-14
3.06422e-14
2.17604e-14
-7.54952e-15
-4.88498e-15
-2.75335e-14
-7.54952e-15
2.44249e-14
-5.72875e-14
9.76996e-15
-4.88498e-15
1.28786e-14
1.11022e-14
2.22045e-14
-1.9984e-14
-3.9968e-15
-8.43769e-15
1.68754e-14
5.32907e-15
1.82077e-14
1.64313e-14
-3.33067e-14
2.22045e-14
-9.32587e-15
5.32907e-15
2.75335e-14
-6.66134e-15
2.22045e-15
2.66454e-15
1.9984e-14
1.68754e-14
2.26485e-14
4.75175e-14
-1.9984e-14
1.11022e-14
1.68754e-14
-1.33227e-14
2.62013e-14
-1.02141e-14
-5.32907e-15
2.08722e-14
-2.39808e-14
9.76996e-15
-6.21725e-15
5.77316e-15
-4.35207e-14
-4.61853e-14
5.77316e-15
-1.59872e-14
1.15463e-14