/*--------------------------------*- C++ -*----------------------------------*\
| =========                 |                                                 |
| \\      /  F ield         | foam-extend: Open Source CFD                    |
|  \\    /   O peration     | Version:     4.0                                |
|   \\  /    A nd           | Web:         http://www.foam-extend.org         |
|    \\/     M anipulation  |                                                 |
\*---------------------------------------------------------------------------*/
FoamFile
{
    version     2.0;
    format      ascii;
    class       volScalarField;
    location    "420";
    object      cMinus;
}
// * * * * * * * * * * * * * * * * * * * * * * * * * * * * * * * * * * * * * //

dimensions      [0 0 0 0 0 0 0];

internalField   nonuniform List<scalar> 
6960
(
4.20121e-15
4.1963e-15
4.20346e-15
4.20568e-15
4.20576e-15
4.20489e-15
4.20352e-15
4.20186e-15
4.19999e-15
4.19797e-15
4.19586e-15
4.19369e-15
4.19149e-15
4.1893e-15
4.18714e-15
4.18505e-15
4.18305e-15
4.18114e-15
4.17936e-15
4.1777e-15
4.17617e-15
4.17479e-15
4.17356e-15
4.17248e-15
4.17155e-15
4.17078e-15
4.17016e-15
4.16969e-15
4.16938e-15
4.16923e-15
4.16923e-15
4.16938e-15
4.16969e-15
4.17016e-15
4.17078e-15
4.17155e-15
4.17248e-15
4.17356e-15
4.17479e-15
4.17617e-15
4.1777e-15
4.17936e-15
4.18114e-15
4.18305e-15
4.18505e-15
4.18714e-15
4.1893e-15
4.19149e-15
4.19369e-15
4.19586e-15
4.19797e-15
4.19999e-15
4.20186e-15
4.20352e-15
4.20489e-15
4.20576e-15
4.20568e-15
4.20346e-15
4.1963e-15
4.20121e-15
7.31959e-15
7.31448e-15
7.32489e-15
7.32806e-15
7.32813e-15
7.32681e-15
7.32477e-15
7.32228e-15
7.31949e-15
7.31647e-15
7.3133e-15
7.31003e-15
7.30673e-15
7.30343e-15
7.30019e-15
7.29704e-15
7.29402e-15
7.29114e-15
7.28845e-15
7.28594e-15
7.28365e-15
7.28156e-15
7.2797e-15
7.27807e-15
7.27667e-15
7.27551e-15
7.27457e-15
7.27387e-15
7.27341e-15
7.27317e-15
7.27317e-15
7.27341e-15
7.27387e-15
7.27457e-15
7.27551e-15
7.27667e-15
7.27807e-15
7.2797e-15
7.28156e-15
7.28365e-15
7.28594e-15
7.28845e-15
7.29114e-15
7.29402e-15
7.29704e-15
7.30019e-15
7.30343e-15
7.30673e-15
7.31003e-15
7.3133e-15
7.31647e-15
7.31949e-15
7.32228e-15
7.32477e-15
7.32681e-15
7.32813e-15
7.32806e-15
7.32489e-15
7.31448e-15
7.31959e-15
2.75037e-14
2.74961e-14
2.75277e-14
2.75372e-14
2.75374e-14
2.75335e-14
2.75274e-14
2.75199e-14
2.75115e-14
2.75023e-14
2.74927e-14
2.74828e-14
2.74727e-14
2.74626e-14
2.74527e-14
2.7443e-14
2.74338e-14
2.7425e-14
2.74167e-14
2.7409e-14
2.7402e-14
2.73956e-14
2.73899e-14
2.73849e-14
2.73806e-14
2.7377e-14
2.73741e-14
2.7372e-14
2.73706e-14
2.73699e-14
2.73699e-14
2.73706e-14
2.7372e-14
2.73741e-14
2.7377e-14
2.73806e-14
2.73849e-14
2.73899e-14
2.73956e-14
2.7402e-14
2.7409e-14
2.74167e-14
2.7425e-14
2.74338e-14
2.7443e-14
2.74527e-14
2.74626e-14
2.74727e-14
2.74828e-14
2.74927e-14
2.75023e-14
2.75115e-14
2.75199e-14
2.75274e-14
2.75335e-14
2.75374e-14
2.75372e-14
2.75277e-14
2.74961e-14
2.75037e-14
1.25046e-13
1.25079e-13
1.25193e-13
1.25228e-13
1.25232e-13
1.25221e-13
1.25202e-13
1.25179e-13
1.25153e-13
1.25124e-13
1.25094e-13
1.25062e-13
1.25029e-13
1.24997e-13
1.24965e-13
1.24934e-13
1.24904e-13
1.24875e-13
1.24848e-13
1.24823e-13
1.24801e-13
1.2478e-13
1.24761e-13
1.24745e-13
1.24731e-13
1.24719e-13
1.2471e-13
1.24703e-13
1.24699e-13
1.24696e-13
1.24696e-13
1.24699e-13
1.24703e-13
1.2471e-13
1.24719e-13
1.24731e-13
1.24745e-13
1.24761e-13
1.2478e-13
1.24801e-13
1.24823e-13
1.24848e-13
1.24875e-13
1.24904e-13
1.24934e-13
1.24965e-13
1.24997e-13
1.25029e-13
1.25062e-13
1.25094e-13
1.25124e-13
1.25153e-13
1.25179e-13
1.25202e-13
1.25221e-13
1.25232e-13
1.25228e-13
1.25193e-13
1.25079e-13
1.25046e-13
6.6365e-13
6.6432e-13
6.64845e-13
6.65029e-13
6.65076e-13
6.65065e-13
6.65025e-13
6.64969e-13
6.649e-13
6.64821e-13
6.64736e-13
6.64647e-13
6.64554e-13
6.6446e-13
6.64367e-13
6.64275e-13
6.64187e-13
6.64103e-13
6.64023e-13
6.63949e-13
6.63881e-13
6.6382e-13
6.63765e-13
6.63717e-13
6.63675e-13
6.63641e-13
6.63613e-13
6.63592e-13
6.63579e-13
6.63572e-13
6.63572e-13
6.63579e-13
6.63592e-13
6.63613e-13
6.63641e-13
6.63675e-13
6.63717e-13
6.63765e-13
6.6382e-13
6.63881e-13
6.63949e-13
6.64023e-13
6.64103e-13
6.64187e-13
6.64275e-13
6.64367e-13
6.6446e-13
6.64554e-13
6.64647e-13
6.64736e-13
6.64821e-13
6.649e-13
6.64969e-13
6.65025e-13
6.65065e-13
6.65076e-13
6.65029e-13
6.64845e-13
6.6432e-13
6.6365e-13
4.08649e-12
4.09427e-12
4.09779e-12
4.09918e-12
4.09974e-12
4.09996e-12
4.10003e-12
4.10002e-12
4.09996e-12
4.09986e-12
4.09973e-12
4.09958e-12
4.09942e-12
4.09924e-12
4.09906e-12
4.09888e-12
4.09869e-12
4.09852e-12
4.09835e-12
4.0982e-12
4.09805e-12
4.09792e-12
4.09781e-12
4.0977e-12
4.09761e-12
4.09754e-12
4.09748e-12
4.09744e-12
4.09741e-12
4.0974e-12
4.0974e-12
4.09741e-12
4.09744e-12
4.09748e-12
4.09754e-12
4.09761e-12
4.0977e-12
4.09781e-12
4.09792e-12
4.09805e-12
4.0982e-12
4.09835e-12
4.09852e-12
4.09869e-12
4.09888e-12
4.09906e-12
4.09924e-12
4.09942e-12
4.09958e-12
4.09973e-12
4.09986e-12
4.09996e-12
4.10002e-12
4.10003e-12
4.09996e-12
4.09974e-12
4.09918e-12
4.09779e-12
4.09427e-12
4.08649e-12
2.80154e-11
2.80939e-11
2.81244e-11
2.81372e-11
2.81431e-11
2.81462e-11
2.81482e-11
2.81497e-11
2.81509e-11
2.81519e-11
2.81528e-11
2.81535e-11
2.81541e-11
2.81547e-11
2.81551e-11
2.81555e-11
2.81559e-11
2.81562e-11
2.81564e-11
2.81567e-11
2.81569e-11
2.81571e-11
2.81572e-11
2.81574e-11
2.81575e-11
2.81576e-11
2.81577e-11
2.81577e-11
2.81578e-11
2.81578e-11
2.81578e-11
2.81578e-11
2.81577e-11
2.81577e-11
2.81576e-11
2.81575e-11
2.81574e-11
2.81572e-11
2.81571e-11
2.81569e-11
2.81567e-11
2.81564e-11
2.81562e-11
2.81559e-11
2.81555e-11
2.81551e-11
2.81547e-11
2.81541e-11
2.81535e-11
2.81528e-11
2.81519e-11
2.81509e-11
2.81497e-11
2.81482e-11
2.81462e-11
2.81431e-11
2.81372e-11
2.81244e-11
2.80939e-11
2.80154e-11
2.02947e-10
2.03681e-10
2.03964e-10
2.04085e-10
2.04141e-10
2.04172e-10
2.04193e-10
2.0421e-10
2.04225e-10
2.04239e-10
2.04251e-10
2.04263e-10
2.04275e-10
2.04285e-10
2.04295e-10
2.04304e-10
2.04312e-10
2.0432e-10
2.04327e-10
2.04334e-10
2.0434e-10
2.04345e-10
2.0435e-10
2.04354e-10
2.04358e-10
2.04361e-10
2.04364e-10
2.04365e-10
2.04367e-10
2.04367e-10
2.04367e-10
2.04367e-10
2.04365e-10
2.04364e-10
2.04361e-10
2.04358e-10
2.04354e-10
2.0435e-10
2.04345e-10
2.0434e-10
2.04334e-10
2.04327e-10
2.0432e-10
2.04312e-10
2.04304e-10
2.04295e-10
2.04285e-10
2.04275e-10
2.04263e-10
2.04251e-10
2.04239e-10
2.04225e-10
2.0421e-10
2.04193e-10
2.04172e-10
2.04141e-10
2.04085e-10
2.03964e-10
2.03681e-10
2.02947e-10
1.48842e-09
1.49486e-09
1.4974e-09
1.49849e-09
1.49899e-09
1.49926e-09
1.49944e-09
1.49959e-09
1.49972e-09
1.49984e-09
1.49995e-09
1.50006e-09
1.50017e-09
1.50026e-09
1.50036e-09
1.50044e-09
1.50052e-09
1.5006e-09
1.50067e-09
1.50073e-09
1.50079e-09
1.50084e-09
1.50089e-09
1.50093e-09
1.50097e-09
1.501e-09
1.50102e-09
1.50104e-09
1.50105e-09
1.50106e-09
1.50106e-09
1.50105e-09
1.50104e-09
1.50102e-09
1.501e-09
1.50097e-09
1.50093e-09
1.50089e-09
1.50084e-09
1.50079e-09
1.50073e-09
1.50067e-09
1.5006e-09
1.50052e-09
1.50044e-09
1.50036e-09
1.50026e-09
1.50017e-09
1.50006e-09
1.49995e-09
1.49984e-09
1.49972e-09
1.49959e-09
1.49944e-09
1.49926e-09
1.49899e-09
1.49849e-09
1.4974e-09
1.49486e-09
1.48842e-09
1.07169e-08
1.07696e-08
1.07909e-08
1.08e-08
1.08042e-08
1.08063e-08
1.08078e-08
1.08089e-08
1.08099e-08
1.08108e-08
1.08117e-08
1.08125e-08
1.08133e-08
1.0814e-08
1.08148e-08
1.08154e-08
1.08161e-08
1.08166e-08
1.08172e-08
1.08177e-08
1.08182e-08
1.08186e-08
1.08189e-08
1.08193e-08
1.08195e-08
1.08198e-08
1.082e-08
1.08201e-08
1.08202e-08
1.08202e-08
1.08202e-08
1.08202e-08
1.08201e-08
1.082e-08
1.08198e-08
1.08195e-08
1.08193e-08
1.08189e-08
1.08186e-08
1.08182e-08
1.08177e-08
1.08172e-08
1.08166e-08
1.08161e-08
1.08154e-08
1.08148e-08
1.0814e-08
1.08133e-08
1.08125e-08
1.08117e-08
1.08108e-08
1.08099e-08
1.08089e-08
1.08078e-08
1.08063e-08
1.08042e-08
1.08e-08
1.07909e-08
1.07696e-08
1.07169e-08
7.4028e-08
7.44276e-08
7.45919e-08
7.46622e-08
7.46937e-08
7.47098e-08
7.472e-08
7.47278e-08
7.47347e-08
7.4741e-08
7.47471e-08
7.47528e-08
7.47583e-08
7.47635e-08
7.47685e-08
7.47731e-08
7.47775e-08
7.47816e-08
7.47854e-08
7.47888e-08
7.4792e-08
7.47949e-08
7.47975e-08
7.47997e-08
7.48016e-08
7.48032e-08
7.48045e-08
7.48055e-08
7.48061e-08
7.48065e-08
7.48065e-08
7.48061e-08
7.48055e-08
7.48045e-08
7.48032e-08
7.48016e-08
7.47997e-08
7.47975e-08
7.47949e-08
7.4792e-08
7.47888e-08
7.47854e-08
7.47816e-08
7.47775e-08
7.47731e-08
7.47685e-08
7.47635e-08
7.47583e-08
7.47528e-08
7.47471e-08
7.4741e-08
7.47347e-08
7.47278e-08
7.472e-08
7.47098e-08
7.46937e-08
7.46622e-08
7.45919e-08
7.44276e-08
7.4028e-08
4.81263e-07
4.84031e-07
4.85186e-07
4.85679e-07
4.85897e-07
4.86006e-07
4.86073e-07
4.86123e-07
4.86167e-07
4.86207e-07
4.86245e-07
4.86281e-07
4.86316e-07
4.86348e-07
4.86379e-07
4.86409e-07
4.86436e-07
4.86462e-07
4.86486e-07
4.86508e-07
4.86528e-07
4.86546e-07
4.86562e-07
4.86576e-07
4.86588e-07
4.86598e-07
4.86606e-07
4.86612e-07
4.86616e-07
4.86618e-07
4.86618e-07
4.86616e-07
4.86612e-07
4.86606e-07
4.86598e-07
4.86588e-07
4.86576e-07
4.86562e-07
4.86546e-07
4.86528e-07
4.86508e-07
4.86486e-07
4.86462e-07
4.86436e-07
4.86409e-07
4.86379e-07
4.86348e-07
4.86316e-07
4.86281e-07
4.86245e-07
4.86207e-07
4.86167e-07
4.86123e-07
4.86073e-07
4.86006e-07
4.85897e-07
4.85679e-07
4.85186e-07
4.84031e-07
4.81263e-07
2.89382e-06
2.91113e-06
2.91842e-06
2.92152e-06
2.92288e-06
2.92355e-06
2.92395e-06
2.92424e-06
2.92449e-06
2.92472e-06
2.92494e-06
2.92515e-06
2.92534e-06
2.92553e-06
2.92571e-06
2.92587e-06
2.92603e-06
2.92617e-06
2.92631e-06
2.92643e-06
2.92655e-06
2.92665e-06
2.92674e-06
2.92682e-06
2.92689e-06
2.92695e-06
2.92699e-06
2.92703e-06
2.92705e-06
2.92706e-06
2.92706e-06
2.92705e-06
2.92703e-06
2.92699e-06
2.92695e-06
2.92689e-06
2.92682e-06
2.92674e-06
2.92665e-06
2.92655e-06
2.92643e-06
2.92631e-06
2.92617e-06
2.92603e-06
2.92587e-06
2.92571e-06
2.92553e-06
2.92534e-06
2.92515e-06
2.92494e-06
2.92472e-06
2.92449e-06
2.92424e-06
2.92395e-06
2.92355e-06
2.92288e-06
2.92152e-06
2.91842e-06
2.91113e-06
2.89382e-06
1.58286e-05
1.59248e-05
1.59656e-05
1.59829e-05
1.59904e-05
1.59941e-05
1.59962e-05
1.59977e-05
1.5999e-05
1.60002e-05
1.60013e-05
1.60024e-05
1.60034e-05
1.60043e-05
1.60052e-05
1.6006e-05
1.60068e-05
1.60076e-05
1.60083e-05
1.60089e-05
1.60095e-05
1.601e-05
1.60105e-05
1.60109e-05
1.60112e-05
1.60115e-05
1.60117e-05
1.60119e-05
1.6012e-05
1.60121e-05
1.60121e-05
1.6012e-05
1.60119e-05
1.60117e-05
1.60115e-05
1.60112e-05
1.60109e-05
1.60105e-05
1.601e-05
1.60095e-05
1.60089e-05
1.60083e-05
1.60076e-05
1.60068e-05
1.6006e-05
1.60052e-05
1.60043e-05
1.60034e-05
1.60024e-05
1.60013e-05
1.60002e-05
1.5999e-05
1.59977e-05
1.59962e-05
1.59941e-05
1.59904e-05
1.59829e-05
1.59656e-05
1.59248e-05
1.58286e-05
7.7479e-05
7.79466e-05
7.81458e-05
7.82301e-05
7.82665e-05
7.82839e-05
7.82938e-05
7.83009e-05
7.83067e-05
7.8312e-05
7.8317e-05
7.83217e-05
7.83262e-05
7.83304e-05
7.83344e-05
7.83382e-05
7.83418e-05
7.83451e-05
7.83482e-05
7.8351e-05
7.83536e-05
7.83559e-05
7.8358e-05
7.83598e-05
7.83614e-05
7.83627e-05
7.83637e-05
7.83645e-05
7.8365e-05
7.83653e-05
7.83653e-05
7.8365e-05
7.83645e-05
7.83637e-05
7.83627e-05
7.83614e-05
7.83598e-05
7.8358e-05
7.83559e-05
7.83536e-05
7.8351e-05
7.83482e-05
7.83451e-05
7.83418e-05
7.83382e-05
7.83344e-05
7.83304e-05
7.83262e-05
7.83217e-05
7.8317e-05
7.8312e-05
7.83067e-05
7.83009e-05
7.82938e-05
7.82839e-05
7.82665e-05
7.82301e-05
7.81458e-05
7.79466e-05
7.7479e-05
0.000333849
0.000335803
0.000336637
0.000336989
0.00033714
0.000337212
0.000337252
0.00033728
0.000337303
0.000337323
0.000337343
0.000337361
0.000337378
0.000337395
0.00033741
0.000337425
0.000337439
0.000337452
0.000337463
0.000337474
0.000337484
0.000337493
0.000337501
0.000337508
0.000337514
0.000337519
0.000337524
0.000337527
0.000337529
0.00033753
0.00033753
0.000337529
0.000337527
0.000337524
0.000337519
0.000337514
0.000337508
0.000337501
0.000337493
0.000337484
0.000337474
0.000337463
0.000337452
0.000337439
0.000337425
0.00033741
0.000337395
0.000337378
0.000337361
0.000337343
0.000337323
0.000337303
0.00033728
0.000337252
0.000337212
0.00033714
0.000336989
0.000336637
0.000335803
0.000333849
0.00124546
0.00125234
0.00125528
0.00125652
0.00125705
0.0012573
0.00125744
0.00125753
0.00125761
0.00125767
0.00125774
0.0012578
0.00125785
0.00125791
0.00125796
0.00125801
0.00125805
0.00125809
0.00125813
0.00125817
0.0012582
0.00125823
0.00125826
0.00125828
0.0012583
0.00125832
0.00125833
0.00125834
0.00125835
0.00125835
0.00125835
0.00125835
0.00125834
0.00125833
0.00125832
0.0012583
0.00125828
0.00125826
0.00125823
0.0012582
0.00125817
0.00125813
0.00125809
0.00125805
0.00125801
0.00125796
0.00125791
0.00125785
0.0012578
0.00125774
0.00125767
0.00125761
0.00125753
0.00125744
0.0012573
0.00125705
0.00125652
0.00125528
0.00125234
0.00124546
0.00395878
0.00397882
0.00398737
0.00399097
0.0039925
0.00399321
0.0039936
0.00399386
0.00399407
0.00399425
0.00399443
0.00399459
0.00399474
0.00399489
0.00399503
0.00399516
0.00399528
0.00399539
0.0039955
0.0039956
0.00399568
0.00399576
0.00399583
0.0039959
0.00399595
0.003996
0.00399603
0.00399606
0.00399608
0.00399608
0.00399608
0.00399608
0.00399606
0.00399603
0.003996
0.00399595
0.0039959
0.00399583
0.00399576
0.00399568
0.0039956
0.0039955
0.00399539
0.00399528
0.00399516
0.00399503
0.00399489
0.00399474
0.00399459
0.00399443
0.00399425
0.00399407
0.00399386
0.0039936
0.00399321
0.0039925
0.00399097
0.00398737
0.00397882
0.00395878
0.0105828
0.0106302
0.0106504
0.0106589
0.0106625
0.0106642
0.010665
0.0106656
0.0106661
0.0106665
0.0106669
0.0106673
0.0106676
0.0106679
0.0106682
0.0106685
0.0106688
0.010669
0.0106693
0.0106695
0.0106697
0.0106699
0.01067
0.0106701
0.0106703
0.0106704
0.0106704
0.0106705
0.0106705
0.0106706
0.0106706
0.0106705
0.0106705
0.0106704
0.0106704
0.0106703
0.0106701
0.01067
0.0106699
0.0106697
0.0106695
0.0106693
0.010669
0.0106688
0.0106685
0.0106682
0.0106679
0.0106676
0.0106673
0.0106669
0.0106665
0.0106661
0.0106656
0.010665
0.0106642
0.0106625
0.0106589
0.0106504
0.0106302
0.0105828
0.0236663
0.0237568
0.0237953
0.0238115
0.0238183
0.0238214
0.0238231
0.0238242
0.023825
0.0238258
0.0238264
0.0238271
0.0238277
0.0238283
0.0238288
0.0238293
0.0238298
0.0238302
0.0238306
0.023831
0.0238314
0.0238317
0.023832
0.0238322
0.0238324
0.0238326
0.0238327
0.0238328
0.0238329
0.0238329
0.0238329
0.0238329
0.0238328
0.0238327
0.0238326
0.0238324
0.0238322
0.023832
0.0238317
0.0238314
0.023831
0.0238306
0.0238302
0.0238298
0.0238293
0.0238288
0.0238283
0.0238277
0.0238271
0.0238264
0.0238258
0.023825
0.0238242
0.0238231
0.0238214
0.0238183
0.0238115
0.0237953
0.0237568
0.0236663
0.0445966
0.0447382
0.0447982
0.0448234
0.0448341
0.044839
0.0448415
0.0448431
0.0448444
0.0448454
0.0448464
0.0448474
0.0448482
0.0448491
0.0448498
0.0448506
0.0448513
0.0448519
0.0448525
0.0448531
0.0448536
0.044854
0.0448544
0.0448548
0.0448551
0.0448553
0.0448555
0.0448557
0.0448558
0.0448558
0.0448558
0.0448558
0.0448557
0.0448555
0.0448553
0.0448551
0.0448548
0.0448544
0.044854
0.0448536
0.0448531
0.0448525
0.0448519
0.0448513
0.0448506
0.0448498
0.0448491
0.0448482
0.0448474
0.0448464
0.0448454
0.0448444
0.0448431
0.0448415
0.044839
0.0448341
0.0448234
0.0447982
0.0447382
0.0445966
0.0723305
0.0725186
0.0725982
0.0726318
0.0726459
0.0726523
0.0726556
0.0726576
0.0726592
0.0726605
0.0726617
0.0726629
0.072664
0.072665
0.0726659
0.0726668
0.0726677
0.0726684
0.0726692
0.0726698
0.0726705
0.072671
0.0726715
0.0726719
0.0726723
0.0726726
0.0726728
0.072673
0.0726731
0.0726732
0.0726732
0.0726731
0.072673
0.0726728
0.0726726
0.0726723
0.0726719
0.0726715
0.072671
0.0726705
0.0726698
0.0726692
0.0726684
0.0726677
0.0726668
0.0726659
0.072665
0.072664
0.0726629
0.0726617
0.0726605
0.0726592
0.0726576
0.0726556
0.0726523
0.0726459
0.0726318
0.0725982
0.0725186
0.0723305
0.104096
0.104319
0.104414
0.104454
0.10447
0.104478
0.104482
0.104484
0.104486
0.104487
0.104489
0.10449
0.104491
0.104492
0.104493
0.104494
0.104495
0.104496
0.104497
0.104497
0.104498
0.104499
0.104499
0.1045
0.1045
0.1045
0.104501
0.104501
0.104501
0.104501
0.104501
0.104501
0.104501
0.104501
0.1045
0.1045
0.1045
0.104499
0.104499
0.104498
0.104497
0.104497
0.104496
0.104495
0.104494
0.104493
0.104492
0.104491
0.10449
0.104489
0.104487
0.104486
0.104484
0.104482
0.104478
0.10447
0.104454
0.104414
0.104319
0.104096
0.137227
0.137475
0.137581
0.137625
0.137644
0.137653
0.137657
0.137659
0.137661
0.137663
0.137664
0.137665
0.137667
0.137668
0.137669
0.13767
0.137671
0.137671
0.137672
0.137673
0.137674
0.137674
0.137675
0.137675
0.137676
0.137676
0.137676
0.137677
0.137677
0.137677
0.137677
0.137677
0.137677
0.137676
0.137676
0.137676
0.137675
0.137675
0.137674
0.137674
0.137673
0.137672
0.137671
0.137671
0.13767
0.137669
0.137668
0.137667
0.137665
0.137664
0.137663
0.137661
0.137659
0.137657
0.137653
0.137644
0.137625
0.137581
0.137475
0.137227
0.170183
0.170451
0.170565
0.170614
0.170634
0.170643
0.170648
0.17065
0.170652
0.170654
0.170655
0.170656
0.170658
0.170659
0.17066
0.170661
0.170662
0.170663
0.170663
0.170664
0.170665
0.170665
0.170666
0.170666
0.170667
0.170667
0.170667
0.170668
0.170668
0.170668
0.170668
0.170668
0.170668
0.170667
0.170667
0.170667
0.170666
0.170666
0.170665
0.170665
0.170664
0.170663
0.170663
0.170662
0.170661
0.17066
0.170659
0.170658
0.170656
0.170655
0.170654
0.170652
0.17065
0.170648
0.170643
0.170634
0.170614
0.170565
0.170451
0.170183
0.202403
0.202688
0.202811
0.202863
0.202885
0.202895
0.202899
0.202902
0.202904
0.202906
0.202907
0.202908
0.202909
0.20291
0.202911
0.202912
0.202913
0.202914
0.202915
0.202916
0.202916
0.202917
0.202917
0.202918
0.202918
0.202919
0.202919
0.202919
0.202919
0.202919
0.202919
0.202919
0.202919
0.202919
0.202919
0.202918
0.202918
0.202917
0.202917
0.202916
0.202916
0.202915
0.202914
0.202913
0.202912
0.202911
0.20291
0.202909
0.202908
0.202907
0.202906
0.202904
0.202902
0.202899
0.202895
0.202885
0.202863
0.202811
0.202688
0.202403
0.2338
0.234101
0.234231
0.234286
0.23431
0.234321
0.234326
0.234328
0.23433
0.234332
0.234333
0.234335
0.234336
0.234337
0.234338
0.234339
0.23434
0.23434
0.234341
0.234342
0.234342
0.234343
0.234344
0.234344
0.234344
0.234345
0.234345
0.234345
0.234345
0.234345
0.234345
0.234345
0.234345
0.234345
0.234345
0.234344
0.234344
0.234344
0.234343
0.234342
0.234342
0.234341
0.23434
0.23434
0.234339
0.234338
0.234337
0.234336
0.234335
0.234333
0.234332
0.23433
0.234328
0.234326
0.234321
0.23431
0.234286
0.234231
0.234101
0.2338
0.264415
0.264731
0.264868
0.264928
0.264953
0.264964
0.26497
0.264973
0.264975
0.264976
0.264978
0.264979
0.26498
0.264981
0.264982
0.264983
0.264984
0.264984
0.264985
0.264986
0.264986
0.264987
0.264988
0.264988
0.264988
0.264989
0.264989
0.264989
0.264989
0.264989
0.264989
0.264989
0.264989
0.264989
0.264989
0.264988
0.264988
0.264988
0.264987
0.264986
0.264986
0.264985
0.264984
0.264984
0.264983
0.264982
0.264981
0.26498
0.264979
0.264978
0.264976
0.264975
0.264973
0.26497
0.264964
0.264953
0.264928
0.264868
0.264731
0.264415
0.294294
0.294622
0.294767
0.29483
0.294858
0.29487
0.294875
0.294878
0.29488
0.294882
0.294883
0.294884
0.294886
0.294887
0.294887
0.294888
0.294889
0.29489
0.294891
0.294891
0.294892
0.294893
0.294893
0.294893
0.294894
0.294894
0.294894
0.294895
0.294895
0.294895
0.294895
0.294895
0.294895
0.294894
0.294894
0.294894
0.294893
0.294893
0.294893
0.294892
0.294891
0.294891
0.29489
0.294889
0.294888
0.294887
0.294887
0.294886
0.294884
0.294883
0.294882
0.29488
0.294878
0.294875
0.29487
0.294858
0.29483
0.294767
0.294622
0.294294
0.323455
0.323796
0.323948
0.324015
0.324044
0.324057
0.324063
0.324066
0.324068
0.324069
0.324071
0.324072
0.324073
0.324074
0.324075
0.324076
0.324077
0.324077
0.324078
0.324079
0.324079
0.32408
0.32408
0.324081
0.324081
0.324081
0.324082
0.324082
0.324082
0.324082
0.324082
0.324082
0.324082
0.324082
0.324081
0.324081
0.324081
0.32408
0.32408
0.324079
0.324079
0.324078
0.324077
0.324077
0.324076
0.324075
0.324074
0.324073
0.324072
0.324071
0.324069
0.324068
0.324066
0.324063
0.324057
0.324044
0.324015
0.323948
0.323796
0.323455
0.351904
0.352255
0.352414
0.352484
0.352515
0.352529
0.352535
0.352539
0.352541
0.352542
0.352544
0.352545
0.352546
0.352547
0.352548
0.352548
0.352549
0.35255
0.352551
0.352551
0.352552
0.352552
0.352553
0.352553
0.352554
0.352554
0.352554
0.352554
0.352554
0.352554
0.352554
0.352554
0.352554
0.352554
0.352554
0.352554
0.352553
0.352553
0.352552
0.352552
0.352551
0.352551
0.35255
0.352549
0.352548
0.352548
0.352547
0.352546
0.352545
0.352544
0.352542
0.352541
0.352539
0.352535
0.352529
0.352515
0.352484
0.352414
0.352255
0.351904
0.379634
0.379994
0.38016
0.380234
0.380267
0.380282
0.380288
0.380292
0.380294
0.380296
0.380297
0.380298
0.380299
0.3803
0.380301
0.380302
0.380302
0.380303
0.380304
0.380304
0.380305
0.380305
0.380306
0.380306
0.380307
0.380307
0.380307
0.380307
0.380307
0.380307
0.380307
0.380307
0.380307
0.380307
0.380307
0.380307
0.380306
0.380306
0.380305
0.380305
0.380304
0.380304
0.380303
0.380302
0.380302
0.380301
0.3803
0.380299
0.380298
0.380297
0.380296
0.380294
0.380292
0.380288
0.380282
0.380267
0.380234
0.38016
0.379994
0.379634
0.406639
0.407007
0.407179
0.407257
0.407291
0.407307
0.407314
0.407318
0.40732
0.407322
0.407323
0.407324
0.407325
0.407326
0.407327
0.407328
0.407328
0.407329
0.40733
0.40733
0.407331
0.407331
0.407332
0.407332
0.407332
0.407333
0.407333
0.407333
0.407333
0.407333
0.407333
0.407333
0.407333
0.407333
0.407333
0.407332
0.407332
0.407332
0.407331
0.407331
0.40733
0.40733
0.407329
0.407328
0.407328
0.407327
0.407326
0.407325
0.407324
0.407323
0.407322
0.40732
0.407318
0.407314
0.407307
0.407291
0.407257
0.407179
0.407007
0.406639
0.43291
0.433285
0.433463
0.433544
0.433581
0.433597
0.433605
0.433609
0.433611
0.433613
0.433614
0.433615
0.433616
0.433617
0.433617
0.433618
0.433619
0.43362
0.43362
0.433621
0.433621
0.433622
0.433622
0.433622
0.433623
0.433623
0.433623
0.433623
0.433623
0.433624
0.433624
0.433623
0.433623
0.433623
0.433623
0.433623
0.433622
0.433622
0.433622
0.433621
0.433621
0.43362
0.43362
0.433619
0.433618
0.433617
0.433617
0.433616
0.433615
0.433614
0.433613
0.433611
0.433609
0.433605
0.433597
0.433581
0.433544
0.433463
0.433285
0.43291
0.458441
0.458821
0.459004
0.459089
0.459128
0.459145
0.459153
0.459157
0.45916
0.459161
0.459162
0.459163
0.459164
0.459165
0.459166
0.459167
0.459167
0.459168
0.459169
0.459169
0.45917
0.45917
0.45917
0.459171
0.459171
0.459171
0.459171
0.459172
0.459172
0.459172
0.459172
0.459172
0.459172
0.459171
0.459171
0.459171
0.459171
0.45917
0.45917
0.45917
0.459169
0.459169
0.459168
0.459167
0.459167
0.459166
0.459165
0.459164
0.459163
0.459162
0.459161
0.45916
0.459157
0.459153
0.459145
0.459128
0.459089
0.459004
0.458821
0.458441
0.483226
0.48361
0.483798
0.483886
0.483927
0.483945
0.483954
0.483958
0.483961
0.483962
0.483963
0.483964
0.483965
0.483966
0.483967
0.483968
0.483968
0.483969
0.483969
0.48397
0.48397
0.483971
0.483971
0.483971
0.483972
0.483972
0.483972
0.483972
0.483972
0.483972
0.483972
0.483972
0.483972
0.483972
0.483972
0.483972
0.483971
0.483971
0.483971
0.48397
0.48397
0.483969
0.483969
0.483968
0.483968
0.483967
0.483966
0.483965
0.483964
0.483963
0.483962
0.483961
0.483958
0.483954
0.483945
0.483927
0.483886
0.483798
0.48361
0.483226
0.507261
0.507649
0.507841
0.507933
0.507975
0.507994
0.508003
0.508008
0.508011
0.508012
0.508013
0.508014
0.508015
0.508016
0.508017
0.508017
0.508018
0.508018
0.508019
0.508019
0.50802
0.50802
0.508021
0.508021
0.508021
0.508021
0.508022
0.508022
0.508022
0.508022
0.508022
0.508022
0.508022
0.508022
0.508021
0.508021
0.508021
0.508021
0.50802
0.50802
0.508019
0.508019
0.508018
0.508018
0.508017
0.508017
0.508016
0.508015
0.508014
0.508013
0.508012
0.508011
0.508008
0.508003
0.507994
0.507975
0.507933
0.507841
0.507649
0.507261
0.530545
0.530935
0.531131
0.531226
0.53127
0.531291
0.5313
0.531305
0.531308
0.531309
0.531311
0.531311
0.531312
0.531313
0.531314
0.531314
0.531315
0.531315
0.531316
0.531316
0.531317
0.531317
0.531317
0.531318
0.531318
0.531318
0.531318
0.531319
0.531319
0.531319
0.531319
0.531319
0.531319
0.531318
0.531318
0.531318
0.531318
0.531317
0.531317
0.531317
0.531316
0.531316
0.531315
0.531315
0.531314
0.531314
0.531313
0.531312
0.531311
0.531311
0.531309
0.531308
0.531305
0.5313
0.531291
0.53127
0.531226
0.531131
0.530935
0.530545
0.553078
0.553469
0.553669
0.553767
0.553813
0.553834
0.553845
0.55385
0.553852
0.553854
0.553855
0.553856
0.553857
0.553858
0.553858
0.553859
0.553859
0.55386
0.55386
0.553861
0.553861
0.553861
0.553862
0.553862
0.553862
0.553863
0.553863
0.553863
0.553863
0.553863
0.553863
0.553863
0.553863
0.553863
0.553863
0.553862
0.553862
0.553862
0.553861
0.553861
0.553861
0.55386
0.55386
0.553859
0.553859
0.553858
0.553858
0.553857
0.553856
0.553855
0.553854
0.553852
0.55385
0.553845
0.553834
0.553813
0.553767
0.553669
0.553469
0.553078
0.574863
0.575253
0.575456
0.575557
0.575605
0.575628
0.575638
0.575644
0.575647
0.575648
0.575649
0.57565
0.575651
0.575652
0.575652
0.575653
0.575653
0.575654
0.575654
0.575655
0.575655
0.575655
0.575656
0.575656
0.575656
0.575656
0.575657
0.575657
0.575657
0.575657
0.575657
0.575657
0.575657
0.575657
0.575656
0.575656
0.575656
0.575656
0.575655
0.575655
0.575655
0.575654
0.575654
0.575653
0.575653
0.575652
0.575652
0.575651
0.57565
0.575649
0.575648
0.575647
0.575644
0.575638
0.575628
0.575605
0.575557
0.575456
0.575253
0.574863
0.595902
0.596291
0.596497
0.5966
0.59665
0.596674
0.596686
0.596691
0.596694
0.596696
0.596697
0.596698
0.596699
0.596699
0.5967
0.5967
0.596701
0.596701
0.596702
0.596702
0.596702
0.596703
0.596703
0.596703
0.596703
0.596704
0.596704
0.596704
0.596704
0.596704
0.596704
0.596704
0.596704
0.596704
0.596704
0.596703
0.596703
0.596703
0.596703
0.596702
0.596702
0.596702
0.596701
0.596701
0.5967
0.5967
0.596699
0.596699
0.596698
0.596697
0.596696
0.596694
0.596691
0.596686
0.596674
0.59665
0.5966
0.596497
0.596291
0.595902
0.616202
0.616589
0.616797
0.616903
0.616955
0.61698
0.616992
0.616998
0.617001
0.617003
0.617004
0.617004
0.617005
0.617006
0.617006
0.617007
0.617007
0.617008
0.617008
0.617008
0.617009
0.617009
0.617009
0.617009
0.61701
0.61701
0.61701
0.61701
0.61701
0.61701
0.61701
0.61701
0.61701
0.61701
0.61701
0.61701
0.617009
0.617009
0.617009
0.617009
0.617008
0.617008
0.617008
0.617007
0.617007
0.617006
0.617006
0.617005
0.617004
0.617004
0.617003
0.617001
0.616998
0.616992
0.61698
0.616955
0.616903
0.616797
0.616589
0.616202
0.635769
0.636153
0.636363
0.636471
0.636525
0.636551
0.636563
0.63657
0.636573
0.636575
0.636576
0.636577
0.636578
0.636578
0.636579
0.636579
0.636579
0.63658
0.63658
0.63658
0.636581
0.636581
0.636581
0.636581
0.636582
0.636582
0.636582
0.636582
0.636582
0.636582
0.636582
0.636582
0.636582
0.636582
0.636582
0.636582
0.636581
0.636581
0.636581
0.636581
0.63658
0.63658
0.63658
0.636579
0.636579
0.636579
0.636578
0.636578
0.636577
0.636576
0.636575
0.636573
0.63657
0.636563
0.636551
0.636525
0.636471
0.636363
0.636153
0.635769
0.654611
0.654992
0.655203
0.655314
0.655369
0.655396
0.65541
0.655416
0.65542
0.655421
0.655423
0.655423
0.655424
0.655425
0.655425
0.655425
0.655426
0.655426
0.655426
0.655427
0.655427
0.655427
0.655428
0.655428
0.655428
0.655428
0.655428
0.655428
0.655428
0.655428
0.655428
0.655428
0.655428
0.655428
0.655428
0.655428
0.655428
0.655428
0.655427
0.655427
0.655427
0.655426
0.655426
0.655426
0.655425
0.655425
0.655425
0.655424
0.655423
0.655423
0.655421
0.65542
0.655416
0.65541
0.655396
0.655369
0.655314
0.655203
0.654992
0.654611
0.672739
0.673116
0.673328
0.67344
0.673497
0.673525
0.673539
0.673546
0.67355
0.673552
0.673553
0.673554
0.673555
0.673555
0.673555
0.673556
0.673556
0.673556
0.673557
0.673557
0.673557
0.673557
0.673558
0.673558
0.673558
0.673558
0.673558
0.673558
0.673558
0.673558
0.673558
0.673558
0.673558
0.673558
0.673558
0.673558
0.673558
0.673558
0.673557
0.673557
0.673557
0.673557
0.673556
0.673556
0.673556
0.673555
0.673555
0.673555
0.673554
0.673553
0.673552
0.67355
0.673546
0.673539
0.673525
0.673497
0.67344
0.673328
0.673116
0.672739
0.690163
0.690535
0.690747
0.690861
0.69092
0.690949
0.690964
0.690971
0.690975
0.690977
0.690978
0.690979
0.69098
0.69098
0.69098
0.690981
0.690981
0.690981
0.690982
0.690982
0.690982
0.690982
0.690982
0.690983
0.690983
0.690983
0.690983
0.690983
0.690983
0.690983
0.690983
0.690983
0.690983
0.690983
0.690983
0.690983
0.690983
0.690982
0.690982
0.690982
0.690982
0.690982
0.690981
0.690981
0.690981
0.69098
0.69098
0.69098
0.690979
0.690978
0.690977
0.690975
0.690971
0.690964
0.690949
0.69092
0.690861
0.690747
0.690535
0.690163
0.706895
0.707261
0.707473
0.707589
0.707649
0.707679
0.707695
0.707703
0.707707
0.707709
0.70771
0.707711
0.707711
0.707712
0.707712
0.707712
0.707713
0.707713
0.707713
0.707713
0.707714
0.707714
0.707714
0.707714
0.707714
0.707714
0.707714
0.707714
0.707714
0.707715
0.707715
0.707714
0.707714
0.707714
0.707714
0.707714
0.707714
0.707714
0.707714
0.707714
0.707713
0.707713
0.707713
0.707713
0.707712
0.707712
0.707712
0.707711
0.707711
0.70771
0.707709
0.707707
0.707703
0.707695
0.707679
0.707649
0.707589
0.707473
0.707261
0.706895
0.722947
0.723307
0.723519
0.723636
0.723697
0.723729
0.723745
0.723753
0.723758
0.72376
0.723761
0.723762
0.723762
0.723763
0.723763
0.723763
0.723764
0.723764
0.723764
0.723764
0.723764
0.723765
0.723765
0.723765
0.723765
0.723765
0.723765
0.723765
0.723765
0.723765
0.723765
0.723765
0.723765
0.723765
0.723765
0.723765
0.723765
0.723765
0.723765
0.723764
0.723764
0.723764
0.723764
0.723764
0.723763
0.723763
0.723763
0.723762
0.723762
0.723761
0.72376
0.723758
0.723753
0.723745
0.723729
0.723697
0.723636
0.723519
0.723307
0.722947
0.738334
0.738687
0.738898
0.739016
0.739079
0.739112
0.739129
0.739137
0.739142
0.739144
0.739145
0.739146
0.739147
0.739147
0.739147
0.739147
0.739148
0.739148
0.739148
0.739148