/*--------------------------------*- C++ -*----------------------------------*\
| =========                 |                                                 |
| \\      /  F ield         | foam-extend: Open Source CFD                    |
|  \\    /   O peration     | Version:     4.0                                |
|   \\  /    A nd           | Web:         http://www.foam-extend.org         |
|    \\/     M anipulation  |                                                 |
\*---------------------------------------------------------------------------*/
FoamFile
{
    version     2.0;
    format      ascii;
    class       volScalarField;
    location    "420";
    object      psiE;
}
// * * * * * * * * * * * * * * * * * * * * * * * * * * * * * * * * * * * * * //

dimensions      [0 0 0 0 0 0 0];

internalField   nonuniform List<scalar> 
6960
(
0.416642
0.416694
0.416719
0.41673
0.416735
0.416737
0.416738
0.416739
0.41674
0.416741
0.416742
0.416742
0.416743
0.416744
0.416745
0.416746
0.416746
0.416747
0.416748
0.416748
0.416749
0.416749
0.41675
0.41675
0.416751
0.416751
0.416751
0.416751
0.416751
0.416751
0.416751
0.416751
0.416751
0.416751
0.416751
0.416751
0.41675
0.41675
0.416749
0.416749
0.416748
0.416748
0.416747
0.416746
0.416746
0.416745
0.416744
0.416743
0.416742
0.416742
0.416741
0.41674
0.416739
0.416738
0.416737
0.416735
0.41673
0.416719
0.416694
0.416642
1.16347
1.16368
1.16377
1.16382
1.16384
1.16384
1.16385
1.16385
1.16385
1.16386
1.16386
1.16386
1.16386
1.16387
1.16387
1.16387
1.16387
1.16387
1.16388
1.16388
1.16388
1.16388
1.16388
1.16388
1.16388
1.16389
1.16389
1.16389
1.16389
1.16389
1.16389
1.16389
1.16389
1.16389
1.16389
1.16388
1.16388
1.16388
1.16388
1.16388
1.16388
1.16388
1.16387
1.16387
1.16387
1.16387
1.16387
1.16386
1.16386
1.16386
1.16386
1.16385
1.16385
1.16385
1.16384
1.16384
1.16382
1.16377
1.16368
1.16347
1.90487
1.90524
1.90542
1.9055
1.90553
1.90554
1.90555
1.90556
1.90556
1.90556
1.90557
1.90557
1.90558
1.90558
1.90558
1.90559
1.90559
1.90559
1.9056
1.9056
1.9056
1.90561
1.90561
1.90561
1.90561
1.90561
1.90561
1.90562
1.90562
1.90562
1.90562
1.90562
1.90562
1.90561
1.90561
1.90561
1.90561
1.90561
1.90561
1.9056
1.9056
1.9056
1.90559
1.90559
1.90559
1.90558
1.90558
1.90558
1.90557
1.90557
1.90556
1.90556
1.90556
1.90555
1.90554
1.90553
1.9055
1.90542
1.90524
1.90487
2.64967
2.65021
2.65047
2.65058
2.65063
2.65065
2.65066
2.65067
2.65067
2.65068
2.65068
2.65069
2.6507
2.6507
2.65071
2.65071
2.65072
2.65072
2.65073
2.65073
2.65073
2.65074
2.65074
2.65074
2.65075
2.65075
2.65075
2.65075
2.65075
2.65075
2.65075
2.65075
2.65075
2.65075
2.65075
2.65075
2.65074
2.65074
2.65074
2.65073
2.65073
2.65073
2.65072
2.65072
2.65071
2.65071
2.6507
2.6507
2.65069
2.65068
2.65068
2.65067
2.65067
2.65066
2.65065
2.65063
2.65058
2.65047
2.65021
2.64967
3.39808
3.39877
3.39911
3.39926
3.39932
3.39935
3.39936
3.39937
3.39938
3.39939
3.39939
3.3994
3.39941
3.39942
3.39942
3.39943
3.39944
3.39944
3.39945
3.39945
3.39946
3.39946
3.39947
3.39947
3.39947
3.39948
3.39948
3.39948
3.39948
3.39948
3.39948
3.39948
3.39948
3.39948
3.39948
3.39947
3.39947
3.39947
3.39946
3.39946
3.39945
3.39945
3.39944
3.39944
3.39943
3.39942
3.39942
3.39941
3.3994
3.39939
3.39939
3.39938
3.39937
3.39936
3.39935
3.39932
3.39926
3.39911
3.39877
3.39808
4.14884
4.14969
4.15011
4.15029
4.15036
4.1504
4.15041
4.15043
4.15043
4.15044
4.15045
4.15046
4.15047
4.15048
4.15049
4.1505
4.1505
4.15051
4.15052
4.15053
4.15053
4.15054
4.15054
4.15055
4.15055
4.15055
4.15055
4.15056
4.15056
4.15056
4.15056
4.15056
4.15056
4.15055
4.15055
4.15055
4.15055
4.15054
4.15054
4.15053
4.15053
4.15052
4.15051
4.1505
4.1505
4.15049
4.15048
4.15047
4.15046
4.15045
4.15044
4.15043
4.15043
4.15041
4.1504
4.15036
4.15029
4.15011
4.14969
4.14884
4.90033
4.90132
4.90181
4.90202
4.90211
4.90215
4.90217
4.90218
4.9022
4.90221
4.90222
4.90223
4.90224
4.90225
4.90226
4.90227
4.90228
4.90229
4.90229
4.9023
4.90231
4.90232
4.90232
4.90233
4.90233
4.90233
4.90234
4.90234
4.90234
4.90234
4.90234
4.90234
4.90234
4.90234
4.90233
4.90233
4.90233
4.90232
4.90232
4.90231
4.9023
4.90229
4.90229
4.90228
4.90227
4.90226
4.90225
4.90224
4.90223
4.90222
4.90221
4.9022
4.90218
4.90217
4.90215
4.90211
4.90202
4.90181
4.90132
4.90033
5.65061
5.65175
5.6523
5.65254
5.65264
5.65269
5.65271
5.65273
5.65274
5.65275
5.65276
5.65277
5.65279
5.6528
5.65281
5.65282
5.65283
5.65284
5.65285
5.65286
5.65287
5.65288
5.65288
5.65289
5.6529
5.6529
5.6529
5.65291
5.65291
5.65291
5.65291
5.65291
5.65291
5.6529
5.6529
5.6529
5.65289
5.65288
5.65288
5.65287
5.65286
5.65285
5.65284
5.65283
5.65282
5.65281
5.6528
5.65279
5.65277
5.65276
5.65275
5.65274
5.65273
5.65271
5.65269
5.65264
5.65254
5.6523
5.65175
5.65061
6.39748
6.39874
6.39936
6.39963
6.39974
6.39979
6.39982
6.39983
6.39985
6.39986
6.39987
6.39989
6.3999
6.39992
6.39993
6.39994
6.39995
6.39997
6.39998
6.39999
6.4
6.4
6.40001
6.40002
6.40002
6.40003
6.40003
6.40004
6.40004
6.40004
6.40004
6.40004
6.40004
6.40003
6.40003
6.40002
6.40002
6.40001
6.4
6.4
6.39999
6.39998
6.39997
6.39995
6.39994
6.39993
6.39992
6.3999
6.39989
6.39987
6.39986
6.39985
6.39983
6.39982
6.39979
6.39974
6.39963
6.39936
6.39874
6.39748
7.13837
7.13975
7.14043
7.14072
7.14084
7.14089
7.14092
7.14094
7.14096
7.14097
7.14099
7.141
7.14102
7.14103
7.14105
7.14106
7.14108
7.14109
7.1411
7.14111
7.14112
7.14113
7.14114
7.14115
7.14115
7.14116
7.14116
7.14117
7.14117
7.14117
7.14117
7.14117
7.14117
7.14116
7.14116
7.14115
7.14115
7.14114
7.14113
7.14112
7.14111
7.1411
7.14109
7.14108
7.14106
7.14105
7.14103
7.14102
7.141
7.14099
7.14097
7.14096
7.14094
7.14092
7.14089
7.14084
7.14072
7.14043
7.13975
7.13837
7.87031
7.87179
7.87252
7.87283
7.87296
7.87302
7.87305
7.87307
7.87309
7.87311
7.87312
7.87314
7.87316
7.87317
7.87319
7.87321
7.87322
7.87324
7.87325
7.87326
7.87327
7.87328
7.87329
7.8733
7.87331
7.87332
7.87332
7.87332
7.87333
7.87333
7.87333
7.87333
7.87332
7.87332
7.87332
7.87331
7.8733
7.87329
7.87328
7.87327
7.87326
7.87325
7.87324
7.87322
7.87321
7.87319
7.87317
7.87316
7.87314
7.87312
7.87311
7.87309
7.87307
7.87305
7.87302
7.87296
7.87283
7.87252
7.87179
7.87031
8.58985
8.59141
8.59218
8.59251
8.59265
8.59271
8.59274
8.59276
8.59278
8.5928
8.59282
8.59284
8.59286
8.59287
8.59289
8.59291
8.59293
8.59294
8.59296
8.59297
8.59298
8.59299
8.593
8.59301
8.59302
8.59303
8.59303
8.59304
8.59304
8.59304
8.59304
8.59304
8.59304
8.59303
8.59303
8.59302
8.59301
8.593
8.59299
8.59298
8.59297
8.59296
8.59294
8.59293
8.59291
8.59289
8.59287
8.59286
8.59284
8.59282
8.5928
8.59278
8.59276
8.59274
8.59271
8.59265
8.59251
8.59218
8.59141
8.58985
9.29291
9.29453
9.29533
9.29567
9.29582
9.29588
9.29592
9.29594
9.29596
9.29598
9.296
9.29602
9.29604
9.29606
9.29608
9.2961
9.29611
9.29613
9.29615
9.29616
9.29618
9.29619
9.2962
9.29621
9.29622
9.29622
9.29623
9.29623
9.29624
9.29624
9.29624
9.29624
9.29623
9.29623
9.29622
9.29622
9.29621
9.2962
9.29619
9.29618
9.29616
9.29615
9.29613
9.29611
9.2961
9.29608
9.29606
9.29604
9.29602
9.296
9.29598
9.29596
9.29594
9.29592
9.29588
9.29582
9.29567
9.29533
9.29453
9.29291
9.97468
9.97635
9.97716
9.97751
9.97766
9.97773
9.97776
9.97779
9.97781
9.97783
9.97785
9.97787
9.97789
9.97791
9.97793
9.97795
9.97797
9.97799
9.97801
9.97802
9.97804
9.97805
9.97806
9.97808
9.97808
9.97809
9.9781
9.9781
9.9781
9.97811
9.97811
9.9781
9.9781
9.9781
9.97809
9.97808
9.97808
9.97806
9.97805
9.97804
9.97802
9.97801
9.97799
9.97797
9.97795
9.97793
9.97791
9.97789
9.97787
9.97785
9.97783
9.97781
9.97779
9.97776
9.97773
9.97766
9.97751
9.97716
9.97635
9.97468
10.6294
10.6311
10.6319
10.6323
10.6324
10.6325
10.6325
10.6326
10.6326
10.6326
10.6326
10.6326
10.6327
10.6327
10.6327
10.6327
10.6327
10.6328
10.6328
10.6328
10.6328
10.6328
10.6328
10.6329
10.6329
10.6329
10.6329
10.6329
10.6329
10.6329
10.6329
10.6329
10.6329
10.6329
10.6329
10.6329
10.6329
10.6328
10.6328
10.6328
10.6328
10.6328
10.6328
10.6327
10.6327
10.6327
10.6327
10.6327
10.6326
10.6326
10.6326
10.6326
10.6326
10.6325
10.6325
10.6324
10.6323
10.6319
10.6311
10.6294
11.2503
11.2519
11.2527
11.253
11.2532
11.2533
11.2533
11.2533
11.2533
11.2534
11.2534
11.2534
11.2534
11.2535
11.2535
11.2535
11.2535
11.2535
11.2536
11.2536
11.2536
11.2536
11.2536
11.2536
11.2536
11.2537
11.2537
11.2537
11.2537
11.2537
11.2537
11.2537
11.2537
11.2537
11.2537
11.2536
11.2536
11.2536
11.2536
11.2536
11.2536
11.2536
11.2535
11.2535
11.2535
11.2535
11.2535
11.2534
11.2534
11.2534
11.2534
11.2533
11.2533
11.2533
11.2533
11.2532
11.253
11.2527
11.2519
11.2503
11.8289
11.8304
11.8312
11.8315
11.8316
11.8317
11.8317
11.8318
11.8318
11.8318
11.8318
11.8318
11.8319
11.8319
11.8319
11.8319
11.832
11.832
11.832
11.832
11.832
11.8321
11.8321
11.8321
11.8321
11.8321
11.8321
11.8321
11.8321
11.8321
11.8321
11.8321
11.8321
11.8321
11.8321
11.8321
11.8321
11.8321
11.8321
11.832
11.832
11.832
11.832
11.832
11.8319
11.8319
11.8319
11.8319
11.8318
11.8318
11.8318
11.8318
11.8318
11.8317
11.8317
11.8316
11.8315
11.8312
11.8304
11.8289
12.3556
12.357
12.3577
12.358
12.3581
12.3582
12.3582
12.3582
12.3582
12.3583
12.3583
12.3583
12.3583
12.3584
12.3584
12.3584
12.3584
12.3585
12.3585
12.3585
12.3585
12.3585
12.3586
12.3586
12.3586
12.3586
12.3586
12.3586
12.3586
12.3586
12.3586
12.3586
12.3586
12.3586
12.3586
12.3586
12.3586
12.3586
12.3585
12.3585
12.3585
12.3585
12.3585
12.3584
12.3584
12.3584
12.3584
12.3583
12.3583
12.3583
12.3583
12.3582
12.3582
12.3582
12.3582
12.3581
12.358
12.3577
12.357
12.3556
12.8203
12.8216
12.8222
12.8224
12.8225
12.8226
12.8226
12.8226
12.8227
12.8227
12.8227
12.8227
12.8228
12.8228
12.8228
12.8228
12.8229
12.8229
12.8229
12.8229
12.8229
12.823
12.823
12.823
12.823
12.823
12.823
12.823
12.823
12.823
12.823
12.823
12.823
12.823
12.823
12.823
12.823
12.823
12.823
12.8229
12.8229
12.8229
12.8229
12.8229
12.8228
12.8228
12.8228
12.8228
12.8227
12.8227
12.8227
12.8227
12.8226
12.8226
12.8226
12.8225
12.8224
12.8222
12.8216
12.8203
13.215
13.216
13.2165
13.2167
13.2168
13.2168
13.2169
13.2169
13.2169
13.2169
13.2169
13.217
13.217
13.217
13.217
13.2171
13.2171
13.2171
13.2171
13.2172
13.2172
13.2172
13.2172
13.2172
13.2172
13.2173
13.2173
13.2173
13.2173
13.2173
13.2173
13.2173
13.2173
13.2173
13.2173
13.2172
13.2172
13.2172
13.2172
13.2172
13.2172
13.2171
13.2171
13.2171
13.2171
13.217
13.217
13.217
13.217
13.2169
13.2169
13.2169
13.2169
13.2169
13.2168
13.2168
13.2167
13.2165
13.216
13.215
13.5369
13.5376
13.5379
13.5381
13.5382
13.5382
13.5382
13.5382
13.5383
13.5383
13.5383
13.5383
13.5384
13.5384
13.5384
13.5384
13.5385
13.5385
13.5385
13.5385
13.5386
13.5386
13.5386
13.5386
13.5386
13.5386
13.5386
13.5386
13.5386
13.5387
13.5387
13.5386
13.5386
13.5386
13.5386
13.5386
13.5386
13.5386
13.5386
13.5386
13.5385
13.5385
13.5385
13.5385
13.5384
13.5384
13.5384
13.5384
13.5383
13.5383
13.5383
13.5383
13.5382
13.5382
13.5382
13.5382
13.5381
13.5379
13.5376
13.5369
13.7909
13.7913
13.7916
13.7917
13.7917
13.7918
13.7918
13.7918
13.7918
13.7919
13.7919
13.7919
13.7919
13.792
13.792
13.792
13.792
13.7921
13.7921
13.7921
13.7921
13.7922
13.7922
13.7922
13.7922
13.7922
13.7922
13.7922
13.7922
13.7922
13.7922
13.7922
13.7922
13.7922
13.7922
13.7922
13.7922
13.7922
13.7922
13.7921
13.7921
13.7921
13.7921
13.792
13.792
13.792
13.792
13.7919
13.7919
13.7919
13.7919
13.7918
13.7918
13.7918
13.7918
13.7917
13.7917
13.7916
13.7913
13.7909
13.9885
13.9888
13.9889
13.989
13.9891
13.9891
13.9891
13.9891
13.9891
13.9892
13.9892
13.9892
13.9892
13.9893
13.9893
13.9893
13.9894
13.9894
13.9894
13.9894
13.9895
13.9895
13.9895
13.9895
13.9895
13.9895
13.9895
13.9896
13.9896
13.9896
13.9896
13.9896
13.9896
13.9895
13.9895
13.9895
13.9895
13.9895
13.9895
13.9895
13.9894
13.9894
13.9894
13.9894
13.9893
13.9893
13.9893
13.9892
13.9892
13.9892
13.9892
13.9891
13.9891
13.9891
13.9891
13.9891
13.989
13.9889
13.9888
13.9885
14.1438
14.1439
14.144
14.1441
14.1441
14.1441
14.1441
14.1441
14.1442
14.1442
14.1442
14.1443
14.1443
14.1443
14.1443
14.1444
14.1444
14.1444
14.1445
14.1445
14.1445
14.1445
14.1446
14.1446
14.1446
14.1446
14.1446
14.1446
14.1446
14.1446
14.1446
14.1446
14.1446
14.1446
14.1446
14.1446
14.1446
14.1446
14.1445
14.1445
14.1445
14.1445
14.1444
14.1444
14.1444
14.1443
14.1443
14.1443
14.1443
14.1442
14.1442
14.1442
14.1441
14.1441
14.1441
14.1441
14.1441
14.144
14.1439
14.1438
14.2693
14.2693
14.2694
14.2694
14.2694
14.2694
14.2694
14.2694
14.2695
14.2695
14.2695
14.2696
14.2696
14.2696
14.2697
14.2697
14.2697
14.2698
14.2698
14.2698
14.2699
14.2699
14.2699
14.2699
14.2699
14.2699
14.27
14.27
14.27
14.27
14.27
14.27
14.27
14.27
14.2699
14.2699
14.2699
14.2699
14.2699
14.2699
14.2698
14.2698
14.2698
14.2697
14.2697
14.2697
14.2696
14.2696
14.2696
14.2695
14.2695
14.2695
14.2694
14.2694
14.2694
14.2694
14.2694
14.2694
14.2693
14.2693
14.3743
14.3743
14.3743
14.3743
14.3743
14.3743
14.3743
14.3744
14.3744
14.3744
14.3745
14.3745
14.3745
14.3746
14.3746
14.3746
14.3747
14.3747
14.3748
14.3748
14.3748
14.3748
14.3749
14.3749
14.3749
14.3749
14.3749
14.3749
14.3749
14.3749
14.3749
14.3749
14.3749
14.3749
14.3749
14.3749
14.3749
14.3749
14.3748
14.3748
14.3748
14.3748
14.3747
14.3747
14.3746
14.3746
14.3746
14.3745
14.3745
14.3745
14.3744
14.3744
14.3744
14.3743
14.3743
14.3743
14.3743
14.3743
14.3743
14.3743
14.4652
14.4651
14.4651
14.4651
14.4651
14.4651
14.4652
14.4652
14.4652
14.4652
14.4653
14.4653
14.4654
14.4654
14.4654
14.4655
14.4655
14.4656
14.4656
14.4656
14.4657
14.4657
14.4657
14.4657
14.4657
14.4658
14.4658
14.4658
14.4658
14.4658
14.4658
14.4658
14.4658
14.4658
14.4658
14.4657
14.4657
14.4657
14.4657
14.4657
14.4656
14.4656
14.4656
14.4655
14.4655
14.4654
14.4654
14.4654
14.4653
14.4653
14.4652
14.4652
14.4652
14.4652
14.4651
14.4651
14.4651
14.4651
14.4651
14.4652
14.5459
14.5458
14.5458
14.5458
14.5458
14.5458
14.5459
14.5459
14.5459
14.546
14.546
14.546
14.5461
14.5461
14.5462
14.5462
14.5463
14.5463
14.5463
14.5464
14.5464
14.5464
14.5465
14.5465
14.5465
14.5465
14.5465
14.5465
14.5465
14.5466
14.5466
14.5465
14.5465
14.5465
14.5465
14.5465
14.5465
14.5465
14.5464
14.5464
14.5464
14.5463
14.5463
14.5463
14.5462
14.5462
14.5461
14.5461
14.546
14.546
14.546
14.5459
14.5459
14.5459
14.5458
14.5458
14.5458
14.5458
14.5458
14.5459
14.6192
14.619
14.619
14.619
14.619
14.619
14.619
14.6191
14.6191
14.6191
14.6192
14.6192
14.6193
14.6193
14.6194
14.6194
14.6195
14.6195
14.6196
14.6196
14.6196
14.6197
14.6197
14.6197
14.6197
14.6198
14.6198
14.6198
14.6198
14.6198
14.6198
14.6198
14.6198
14.6198
14.6198
14.6197
14.6197
14.6197
14.6197
14.6196
14.6196
14.6196
14.6195
14.6195
14.6194
14.6194
14.6193
14.6193
14.6192
14.6192
14.6191
14.6191
14.6191
14.619
14.619
14.619
14.619
14.619
14.619
14.6192
14.6866
14.6864
14.6864
14.6864
14.6864
14.6864
14.6864
14.6865
14.6865
14.6865
14.6866
14.6866
14.6867
14.6867
14.6868
14.6869
14.6869
14.687
14.687
14.687
14.6871
14.6871
14.6871
14.6872
14.6872
14.6872
14.6872
14.6872
14.6872
14.6872
14.6872
14.6872
14.6872
14.6872
14.6872
14.6872
14.6872
14.6871
14.6871
14.6871
14.687
14.687
14.687
14.6869
14.6869
14.6868
14.6867
14.6867
14.6866
14.6866
14.6865
14.6865
14.6865
14.6864
14.6864
14.6864
14.6864
14.6864
14.6864
14.6866
14.7494
14.7493
14.7492
14.7492
14.7492
14.7492
14.7492
14.7493
14.7493
14.7494
14.7494
14.7495
14.7495
14.7496
14.7496
14.7497
14.7497
14.7498
14.7498
14.7499
14.7499
14.75
14.75
14.75
14.7501
14.7501
14.7501
14.7501
14.7501
14.7501
14.7501
14.7501
14.7501
14.7501
14.7501
14.7501
14.75
14.75
14.75
14.7499
14.7499
14.7498
14.7498
14.7497
14.7497
14.7496
14.7496
14.7495
14.7495
14.7494
14.7494
14.7493
14.7493
14.7492
14.7492
14.7492
14.7492
14.7492
14.7493
14.7494
14.8085
14.8084
14.8083
14.8083
14.8083
14.8083
14.8083
14.8084
14.8084
14.8085
14.8085
14.8086
14.8087
14.8087
14.8088
14.8088
14.8089
14.809
14.809
14.8091
14.8091
14.8091
14.8092
14.8092
14.8092
14.8092
14.8093
14.8093
14.8093
14.8093
14.8093
14.8093
14.8093
14.8093
14.8092
14.8092
14.8092
14.8092
14.8091
14.8091
14.8091
14.809
14.809
14.8089
14.8088
14.8088
14.8087
14.8087
14.8086
14.8085
14.8085
14.8084
14.8084
14.8083
14.8083
14.8083
14.8083
14.8083
14.8084
14.8085
14.8646
14.8644
14.8644
14.8644
14.8644
14.8644
14.8644
14.8645
14.8645
14.8646
14.8646
14.8647
14.8648
14.8648
14.8649
14.865
14.865
14.8651
14.8651
14.8652
14.8652
14.8653
14.8653
14.8653
14.8654
14.8654
14.8654
14.8654
14.8654
14.8654
14.8654
14.8654
14.8654
14.8654
14.8654
14.8654
14.8653
14.8653
14.8653
14.8652
14.8652
14.8651
14.8651
14.865
14.865
14.8649
14.8648
14.8648
14.8647
14.8646
14.8646
14.8645
14.8645
14.8644
14.8644
14.8644
14.8644
14.8644
14.8644
14.8646
14.9181
14.918
14.9179
14.9179
14.9179
14.9179
14.918
14.918
14.9181
14.9181
14.9182
14.9183
14.9183
14.9184
14.9185
14.9186
14.9186
14.9187
14.9187
14.9188
14.9188
14.9189
14.9189
14.919
14.919
14.919
14.919
14.9191
14.9191
14.9191
14.9191
14.9191
14.9191
14.919
14.919
14.919
14.919
14.9189
14.9189
14.9188
14.9188
14.9187
14.9187
14.9186
14.9186
14.9185
14.9184
14.9183
14.9183
14.9182
14.9181
14.9181
14.918
14.918
14.9179
14.9179
14.9179
14.9179
14.918
14.9181
14.9696
14.9695
14.9694
14.9694
14.9694
14.9694
14.9694
14.9695
14.9696
14.9696
14.9697
14.9698
14.9698
14.9699
14.97
14.9701
14.9701
14.9702
14.9703
14.9703
14.9704
14.9704
14.9705
14.9705
14.9705
14.9706
14.9706
14.9706
14.9706
14.9706
14.9706
14.9706
14.9706
14.9706
14.9706
14.9705
14.9705
14.9705
14.9704
14.9704
14.9703
14.9703
14.9702
14.9701
14.9701
14.97
14.9699
14.9698
14.9698
14.9697
14.9696
14.9696
14.9695
14.9694
14.9694
14.9694
14.9694
14.9694
14.9695
14.9696
15.0193
15.0192
15.0191
15.0191
15.0191
15.0191
15.0191
15.0192
15.0193
15.0193
15.0194
15.0195
15.0196
15.0196
15.0197
15.0198
15.0199
15.0199
15.02
15.0201
15.0201
15.0202
15.0202
15.0203
15.0203
15.0203
15.0204
15.0204
15.0204
15.0204
15.0204
15.0204
15.0204
15.0204
15.0203
15.0203
15.0203
15.0202
15.0202
15.0201
15.0201
15.02
15.0199
15.0199
15.0198
15.0197
15.0196
15.0196
15.0195
15.0194
15.0193
15.0193
15.0192
15.0191
15.0191
15.0191
15.0191
15.0191
15.0192
15.0193
15.0675
15.0674
15.0673
15.0673
15.0673
15.0673
15.0674
15.0674
15.0675
15.0676
15.0677
15.0677
15.0678
15.0679
15.068
15.0681
15.0682
15.0682
15.0683
15.0684
15.0684
15.0685
15.0685
15.0686
15.0686
15.0686
15.0687
15.0687
15.0687
15.0687
15.0687
15.0687
15.0687
15.0687
15.0686
15.0686
15.0686
15.0685
15.0685
15.0684
15.0684
15.0683
15.0682
15.0682
15.0681
15.068
15.0679
15.0678
15.0677
15.0677
15.0676
15.0675
15.0674
15.0674
15.0673
15.0673
15.0673
15.0673
15.0674
15.0675
15.1145
15.1144
15.1143
15.1143
15.1143
15.1143
15.1144
15.1144
15.1145
15.1146
15.1147
15.1147
15.1148
15.1149
15.115
15.1151
15.1152
15.1153
15.1153
15.1154
15.1155
15.1155
15.1156
15.1156
15.1157
15.1157
15.1157
15.1157
15.1158
15.1158
15.1158
15.1158
15.1157
15.1157
15.1157
15.1157
15.1156
15.1156
15.1155
15.1155
15.1154
15.1153
15.1153
15.1152
15.1151
15.115
15.1149
15.1148
15.1147
15.1147
15.1146
15.1145
15.1144
15.1144
15.1143
15.1143
15.1143
15.1143
15.1144
15.1145
15.1604
15.1603
15.1602
15.1602
15.1602
15.1602
15.1603
15.1604
15.1604
15.1605
15.1606
15.1607
15.1608
15.1609
15.161
15.1611
15.1612
15.1613
15.1613
15.1614
15.1615
15.1615
15.1616
15.1616
15.1617
15.1617
15.1617
15.1618
15.1618
15.1618
15.1618
15.1618
15.1618
15.1617
15.1617
15.1617
15.1616
15.1616
15.1615
15.1615
15.1614
15.1613
15.1613
15.1612
15.1611
15.161
15.1609
15.1608
15.1607
15.1606
15.1605
15.1604
15.1604
15.1603
15.1602
15.1602
15.1602
15.1602
15.1603
15.1604
15.2054
15.2053
15.2053
15.2052
15.2053
15.2053
15.2054
15.2054
15.2055
15.2056
15.2057
15.2058
15.2059
15.206
15.2061
15.2062
15.2063
15.2064
15.2065
15.2065
15.2066
15.2067
15.2067
15.2068
15.2068
15.2069
15.2069
15.2069
15.2069
15.2069
15.2069
15.2069
15.2069
15.2069
15.2069
15.2068
15.2068
15.2067
15.2067
15.2066
15.2065
15.2065
15.2064
15.2063
15.2062
15.2061
15.206
15.2059
15.2058
15.2057
15.2056
15.2055
15.2054
15.2054
15.2053
15.2053
15.2052
15.2053
15.2053
15.2054
15.2498
15.2497
15.2496
15.2496
15.2496
15.2496
15.2497
15.2498
15.2499
15.25
15.2501
15.2502
15.2503
15.2504
15.2505
15.2506
15.2507
15.2508
15.2509
15.251
15.251
15.2511
15.2512
15.2512
15.2513
15.2513
15.2513
15.2514
15.2514
15.2514
15.2514
15.2514
15.2514
15.2513
15.2513
15.2513
15.2512
15.2512
15.2511
15.251
15.251
15.2509
15.2508
15.2507
15.2506
15.2505
15.2504
15.2503
15.2502
15.2501
15.25
15.2499
15.2498
15.2497
15.2496
15.2496
15.2496
15.2496
15.2497
15.2498
15.2935
15.2934
15.2933
15.2933
15.2934
15.2934
15.2935
15.2935
15.2936
15.2937
15.2938
15.294
15.2941
15.2942
15.2943
15.2944
15.2945
15.2946
15.2947
15.2948
15.2949
15.2949
15.295
15.2951
15.2951
15.2952
15.2952
15.2952
15.2952
15.2952
15.2952
15.2952
15.2952
15.2952
15.2952
15.2951
15.2951
15.295
15.2949
15.2949
15.2948
15.2947
15.2946
15.2945
15.2944
15.2943
15.2942
15.2941
15.294
15.2938
15.2937
15.2936
15.2935
15.2935
15.2934
15.2934
15.2933
15.2933
15.2934
15.2935
15.3368
15.3367
15.3366
15.3366
15.3366
15.3367
15.3368
15.3368
15.3369
15.337
15.3372
15.3373
15.3374
15.3375
15.3376
15.3377
15.3379
15.338
15.3381
15.3381
15.3382
15.3383
15.3384
15.3384
15.3385
15.3385
15.3386
15.3386
15.3386
15.3386
15.3386
15.3386
15.3386
15.3386
15.3385
15.3385
15.3384
15.3384
15.3383
15.3382
15.3381
15.3381
15.338
15.3379
15.3377
15.3376
15.3375
15.3374
15.3373
15.3372
15.337
15.3369
15.3368
15.3368
15.3367
15.3366
15.3366
15.3366
15.3367
15.3368
15.3797
15.3796
15.3795
15.3795
15.3795
15.3796
15.3797
15.3798
15.3799
15.38
15.3801
15.3802
15.3803
15.3805
15.3806
15.3807
15.3808
15.3809
15.381
15.3811
15.3812
15.3813
15.3814
15.3814
15.3815
15.3815
15.3816
15.3816
15.3816
15.3816
15.3816
15.3816
15.3816
15.3816
15.3815
15.3815
15.3814
15.3814
15.3813
15.3812
15.3811
15.381
15.3809
15.3808
15.3807
15.3806
15.3805
15.3803
15.3802
15.3801
15.38
15.3799
15.3798
15.3797
15.3796
15.3795
15.3795
15.3795
15.3796
15.3797
15.4223
15.4222
15.4222
15.4222
15.4222
15.4222
15.4223
15.4224
15.4225
15.4226
15.4228
15.4229
15.423
15.4232
15.4233
15.4234
15.4235
15.4237
15.4238
15.4239
15.424
15.424
15.4241
15.4242
15.4242
15.4243
15.4243
15.4244
15.4244
15.4244
15.4244
15.4244
15.4244
15.4243
15.4243
15.4242
15.4242
15.4241
15.424
15.424
15.4239
15.4238
15.4237
15.4235
15.4234
15.4233
15.4232
15.423
15.4229
15.4228
15.4226
15.4225
15.4224
15.4223
15.4222
15.4222
15.4222
15.4222
15.4222
15.4223
15.4647
15.4647
15.4646
15.4646
15.4646
15.4647
15.4648
15.4649
15.465
15.4651
15.4653
15.4654
15.4655
15.4657
15.4658
15.466
15.4661
15.4662
15.4663
15.4664
15.4665
15.4666
15.4667
15.4668
15.4668
15.4669
15.4669
15.4669
15.4669
15.467
15.467
15.4669
15.4669
15.4669
15.4669
15.4668
15.4668
15.4667
15.4666
15.4665
15.4664
15.4663
15.4662
15.4661
15.466
15.4658
15.4657
15.4655
15.4654
15.4653
15.4651
15.465
15.4649
15.4648
15.4647
15.4646
15.4646
15.4646
15.4647
15.4647
15.5071
15.507
15.507
15.507
15.507
15.5071
15.5071
15.5073
15.5074
15.5075
15.5077
15.5078
15.5079
15.5081
15.5082
15.5084
15.5085
15.5086
15.5088
15.5089
15.509
15.5091
15.5091
15.5092
15.5093
15.5093
15.5094
15.5094
15.5094
15.5094
15.5094
15.5094
15.5094
15.5094
15.5093
15.5093
15.5092
15.5091
15.5091
15.509
15.5089
15.5088
15.5086
15.5085
15.5084
15.5082
15.5081
15.5079
15.5078
15.5077
15.5075
15.5074
15.5073
15.5071
15.5071
15.507
15.507
15.507
15.507
15.5071
15.5494
15.5493
15.5493
15.5493
15.5493
15.5494
15.5495
15.5496
15.5497
15.5499
15.55
15.5502
15.5503
15.5505
15.5506
15.5508
15.5509
15.5511
15.5512
15.5513
15.5514
15.5515
15.5516
15.5517
15.5517
15.5518
15.5518
15.5519
15.5519
15.5519
15.5519
15.5519
15.5519
15.5518
15.5518
15.5517
15.5517
15.5516
15.5515
15.5514
15.5513
15.5512
15.5511
15.5509
15.5508
15.5506
15.5505
15.5503
15.5502
15.55
15.5499
15.5497
15.5496
15.5495
15.5494
15.5493
15.5493
15.5493
15.5493
15.5494
15.5918
15.5917
15.5916
15.5916
15.5917
15.5918
15.5919
15.592
15.5921
15.5923
15.5924
15.5926
15.5927
15.5929
15.5931
15.5932
15.5934
15.5935
15.5936
15.5938
15.5939
15.594
15.5941
15.5941
15.5942
15.5943
15.5943
15.5943
15.5944
15.5944
15.5944
15.5944
15.5943
15.5943
15.5943
15.5942
15.5941
15.5941
15.594
15.5939
15.5938
15.5936
15.5935
15.5934
15.5932
15.5931
15.5929
15.5927
15.5926
15.5924
15.5923
15.5921
15.592
15.5919
15.5918
15.5917
15.5916
15.5916
15.5917
15.5918
15.6342
15.6342
15.6341
15.6341
15.6342
15.6342
15.6344
15.6345
15.6346
15.6348
15.6349
15.6351
15.6353
15.6355
15.6356
15.6358
15.6359
15.6361
15.6362
15.6363
15.6365
15.6366
15.6367
15.6367
15.6368
15.6369
15.6369
15.637
15.637
15.637
15.637
15.637
15.637
15.6369
15.6369
15.6368
15.6367
15.6367
15.6366
15.6365
15.6363
15.6362
15.6361
15.6359
15.6358
15.6356
15.6355
15.6353
15.6351
15.6349
15.6348
15.6346
15.6345
15.6344
15.6342
15.6342
15.6341
15.6341
15.6342
15.6342
15.6768
15.6768
15.6768
15.6768
15.6768
15.6769
15.677
15.6771
15.6773
15.6775
15.6776
15.6778
15.678
15.6782
15.6783
15.6785
15.6787
15.6788
15.679
15.6791
15.6792
15.6793
15.6794
15.6795
15.6796
15.6797
15.6797
15.6797
15.6798
15.6798
15.6798
15.6798
15.6797
15.6797
15.6797
15.6796
15.6795
15.6794
15.6793
15.6792
15.6791
15.679
15.6788
15.6787
15.6785
15.6783
15.6782
15.678
15.6778
15.6776
15.6775
15.6773
15.6771
15.677
15.6769
15.6768
15.6768
15.6768
15.6768
15.6768
15.7197
15.7197
15.7196
15.7196
15.7197
15.7198
15.7199
15.72
15.7202
15.7204
15.7206
15.7207
15.7209
15.7211
15.7213
15.7215
15.7216
15.7218
15.722
15.7221
15.7222
15.7223
15.7224
15.7225
15.7226
15.7227
15.7227
15.7228
15.7228
15.7228
15.7228
15.7228
15.7228
15.7227
15.7227
15.7226
15.7225
15.7224
15.7223
15.7222
15.7221
15.722
15.7218
15.7216
15.7215
15.7213
15.7211
15.7209
15.7207
15.7206
15.7204
15.7202
15.72
15.7199
15.7198
15.7197
15.7196
15.7196
15.7197
15.7197
15.7629
15.7628
15.7628
15.7628
15.7629
15.763
15.7631
15.7632
15.7634
15.7636
15.7638
15.764
15.7642
15.7643
15.7645
15.7647
15.7649
15.7651
15.7652
15.7654
15.7655
15.7656
15.7657
15.7658
15.7659
15.766
15.766
15.7661
15.7661
15.7661
15.7661
15.7661
15.7661
15.766
15.766
15.7659
15.7658
15.7657
15.7656
15.7655
15.7654
15.7652
15.7651
15.7649
15.7647
15.7645
15.7643
15.7642
15.764
15.7638
15.7636
15.7634
15.7632
15.7631
15.763
15.7629
15.7628
15.7628
15.7628
15.7629
15.8063
15.8063
15.8063
15.8063
15.8064
15.8065
15.8066
15.8068
15.8069
15.8071
15.8073
15.8075
15.8077
15.8079
15.8081
15.8083
15.8085
15.8087
15.8088
15.809
15.8091
15.8093
15.8094
15.8095
15.8096
15.8096
15.8097
15.8097
15.8098
15.8098
15.8098
15.8098
15.8097
15.8097
15.8096
15.8096
15.8095
15.8094
15.8093
15.8091
15.809
15.8088
15.8087
15.8085
15.8083
15.8081
15.8079
15.8077
15.8075
15.8073
15.8071
15.8069
15.8068
15.8066
15.8065
15.8064
15.8063
15.8063
15.8063
15.8063
15.8502
15.8502
15.8502
15.8502
15.8503
15.8504
15.8505
15.8507
15.8509
15.8511
15.8513
15.8515
15.8517
15.8519
15.8521
15.8523
15.8525
15.8527
15.8529
15.853
15.8532
15.8533
15.8534
15.8535
15.8536
15.8537
15.8537
15.8538
15.8538
15.8538
15.8538
15.8538
15.8538
15.8537
15.8537
15.8536
15.8535
15.8534
15.8533
15.8532
15.853
15.8529
15.8527
15.8525
15.8523
15.8521
15.8519
15.8517
15.8515
15.8513
15.8511
15.8509
15.8507
15.8505
15.8504
15.8503
15.8502
15.8502
15.8502
15.8502
15.8945
15.8945
15.8945
15.8945
15.8946
15.8947
15.8949
15.895
15.8952
15.8954
15.8957
15.8959
15.8961
15.8963
15.8966
15.8968
15.897
15.8972
15.8973
15.8975
15.8977
15.8978
15.8979
15.898
15.8981
15.8982
15.8983
15.8983
15.8983
15.8983
15.8983
15.8983
15.8983
15.8983
15.8982
15.8981
15.898
15.8979
15.8978
15.8977
15.8975
15.8973
15.8972
15.897
15.8968
15.8966
15.8963
15.8961
15.8959
15.8957
15.8954
15.8952
15.895
15.8949
15.8947
15.8946
15.8945
15.8945
15.8945
15.8945
15.9394
15.9393
15.9393
15.9394
15.9395
15.9396
15.9397
15.9399
15.9401
15.9403
15.9406
15.9408
15.941
15.9413
15.9415
15.9417
15.9419
15.9421
15.9423
15.9425
15.9426
15.9428
15.9429
15.943
15.9431
15.9432
15.9433
15.9433
15.9433
15.9434
15.9434
15.9433
15.9433
15.9433
15.9432
15.9431
15.943
15.9429
15.9428
15.9426
15.9425
15.9423
15.9421
15.9419
15.9417
15.9415
15.9413
15.941
15.9408
15.9406
15.9403
15.9401
15.9399
15.9397
15.9396
15.9395
15.9394
15.9393
15.9393
15.9394
15.9847
15.9847
15.9847
15.9848
15.9848
15.985
15.9851
15.9853
15.9855
15.9858
15.986
15.9863
15.9865
15.9867
15.987
15.9872
15.9874
15.9876
15.9878
15.988
15.9882
15.9883
15.9885
15.9886
15.9887
15.9888
15.9888
15.9889
15.9889
15.9889
15.9889
15.9889
15.9889
15.9888
15.9888
15.9887
15.9886
15.9885
15.9883
15.9882
15.988
15.9878
15.9876
15.9874
15.9872
15.987
15.9867
15.9865
15.9863
15.986
15.9858
15.9855
15.9853
15.9851
15.985
15.9848
15.9848
15.9847
15.9847
15.9847
16.0307
16.0307
16.0307
16.0307
16.0308
16.031
16.0311
16.0313
16.0316
16.0318
16.0321
16.0323
16.0326
16.0328
16.0331
16.0333
16.0335
16.0338
16.034
16.0342
16.0343
16.0345
16.0346
16.0347
16.0348
16.0349
16.035
16.0351
16.0351
16.0351
16.0351
16.0351
16.0351
16.035
16.0349
16.0348
16.0347
16.0346
16.0345
16.0343
16.0342
16.034
16.0338
16.0335
16.0333
16.0331
16.0328
16.0326
16.0323
16.0321
16.0318
16.0316
16.0313
16.0311
16.031
16.0308
16.0307
16.0307
16.0307
16.0307
16.0773
16.0773
16.0773
16.0774
16.0775
16.0776
16.0778
16.078
16.0782
16.0785
16.0787
16.079
16.0793
16.0796
16.0798
16.0801
16.0803
16.0805
16.0807
16.0809
16.0811
16.0813
16.0814
16.0816
16.0817
16.0818
16.0818
16.0819
16.0819
16.0819
16.0819
16.0819
16.0819
16.0818
16.0818
16.0817
16.0816
16.0814
16.0813
16.0811
16.0809
16.0807
16.0805
16.0803
16.0801
16.0798
16.0796
16.0793
16.079
16.0787
16.0785
16.0782
16.078
16.0778
16.0776
16.0775
16.0774
16.0773
16.0773
16.0773
16.1246
16.1246
16.1246
16.1247
16.1248
16.1249
16.1251
16.1254
16.1256
16.1259
16.1261
16.1264
16.1267
16.127
16.1273
16.1275
16.1278
16.128
16.1282
16.1284
16.1286
16.1288
16.1289
16.1291
16.1292
16.1293
16.1293
16.1294
16.1294
16.1295
16.1295
16.1294
16.1294
16.1293
16.1293
16.1292
16.1291
16.1289
16.1288
16.1286
16.1284
16.1282
16.128
16.1278
16.1275
16.1273
16.127
16.1267
16.1264
16.1261
16.1259
16.1256
16.1254
16.1251
16.1249
16.1248
16.1247
16.1246
16.1246
16.1246
16.1727
16.1727
16.1727
16.1727
16.1729
16.173
16.1732
16.1735
16.1737
16.174
16.1743
16.1746
16.1749
16.1752
16.1754
16.1757
16.176
16.1762
16.1765