/*--------------------------------*- C++ -*----------------------------------*\
| =========                 |                                                 |
| \\      /  F ield         | foam-extend: Open Source CFD                    |
|  \\    /   O peration     | Version:     4.0                                |
|   \\  /    A nd           | Web:         http://www.foam-extend.org         |
|    \\/     M anipulation  |                                                 |
\*---------------------------------------------------------------------------*/
FoamFile
{
    version     2.0;
    format      ascii;
    class       volScalarField;
    location    "990";
    object      cPlus;
}
// * * * * * * * * * * * * * * * * * * * * * * * * * * * * * * * * * * * * * //

dimensions      [0 0 0 0 0 0 0];

internalField   nonuniform List<scalar> 
6960
(
0.188893
0.188811
0.188779
0.188768
0.188764
0.188763
0.188763
0.188763
0.188763
0.188763
0.188764
0.188764
0.188764
0.188764
0.188765
0.188765
0.188765
0.188765
0.188766
0.188766
0.188766
0.188766
0.188766
0.188766
0.188766
0.188766
0.188767
0.188767
0.188767
0.188767
0.188767
0.188767
0.188767
0.188767
0.188766
0.188766
0.188766
0.188766
0.188766
0.188766
0.188766
0.188766
0.188765
0.188765
0.188765
0.188765
0.188764
0.188764
0.188764
0.188764
0.188763
0.188763
0.188763
0.188763
0.188763
0.188764
0.188768
0.188779
0.188811
0.188893
0.0561119
0.0561033
0.0560991
0.0560977
0.0560973
0.0560972
0.0560974
0.0560975
0.0560977
0.0560978
0.056098
0.0560981
0.0560983
0.0560984
0.0560985
0.0560987
0.0560988
0.0560989
0.056099
0.0560991
0.0560991
0.0560992
0.0560993
0.0560993
0.0560994
0.0560994
0.0560994
0.0560994
0.0560995
0.0560995
0.0560995
0.0560995
0.0560994
0.0560994
0.0560994
0.0560994
0.0560993
0.0560993
0.0560992
0.0560991
0.0560991
0.056099
0.0560989
0.0560988
0.0560987
0.0560985
0.0560984
0.0560983
0.0560981
0.056098
0.0560978
0.0560977
0.0560975
0.0560974
0.0560972
0.0560973
0.0560977
0.0560991
0.0561033
0.0561119
0.0389967
0.0390116
0.0390162
0.0390179
0.0390186
0.0390189
0.0390191
0.0390193
0.0390194
0.0390196
0.0390197
0.0390198
0.0390199
0.03902
0.03902
0.0390201
0.0390202
0.0390203
0.0390203
0.0390204
0.0390204
0.0390205
0.0390205
0.0390205
0.0390206
0.0390206
0.0390206
0.0390206
0.0390206
0.0390206
0.0390206
0.0390206
0.0390206
0.0390206
0.0390206
0.0390206
0.0390205
0.0390205
0.0390205
0.0390204
0.0390204
0.0390203
0.0390203
0.0390202
0.0390201
0.03902
0.03902
0.0390199
0.0390198
0.0390197
0.0390196
0.0390194
0.0390193
0.0390191
0.0390189
0.0390186
0.0390179
0.0390162
0.0390116
0.0389967
0.0374229
0.0374439
0.0374507
0.0374531
0.0374541
0.0374545
0.0374548
0.037455
0.0374551
0.0374552
0.0374553
0.0374554
0.0374555
0.0374556
0.0374557
0.0374558
0.0374558
0.0374559
0.0374559
0.037456
0.037456
0.0374561
0.0374561
0.0374561
0.0374561
0.0374562
0.0374562
0.0374562
0.0374562
0.0374562
0.0374562
0.0374562
0.0374562
0.0374562
0.0374562
0.0374561
0.0374561
0.0374561
0.0374561
0.037456
0.037456
0.0374559
0.0374559
0.0374558
0.0374558
0.0374557
0.0374556
0.0374555
0.0374554
0.0374553
0.0374552
0.0374551
0.037455
0.0374548
0.0374545
0.0374541
0.0374531
0.0374507
0.0374439
0.0374229
0.0381516
0.0381747
0.0381823
0.038185
0.0381861
0.0381866
0.0381869
0.038187
0.0381872
0.0381873
0.0381874
0.0381875
0.0381876
0.0381877
0.0381878
0.0381879
0.0381879
0.038188
0.038188
0.0381881
0.0381881
0.0381882
0.0381882
0.0381882
0.0381883
0.0381883
0.0381883
0.0381883
0.0381883
0.0381883
0.0381883
0.0381883
0.0381883
0.0381883
0.0381883
0.0381883
0.0381882
0.0381882
0.0381882
0.0381881
0.0381881
0.038188
0.038188
0.0381879
0.0381879
0.0381878
0.0381877
0.0381876
0.0381875
0.0381874
0.0381873
0.0381872
0.038187
0.0381869
0.0381866
0.0381861
0.038185
0.0381823
0.0381747
0.0381516
0.0393343
0.0393589
0.039367
0.0393699
0.0393711
0.0393716
0.0393719
0.0393721
0.0393722
0.0393724
0.0393725
0.0393726
0.0393727
0.0393728
0.0393729
0.0393729
0.039373
0.0393731
0.0393731
0.0393732
0.0393732
0.0393733
0.0393733
0.0393733
0.0393734
0.0393734
0.0393734
0.0393734
0.0393734
0.0393734
0.0393734
0.0393734
0.0393734
0.0393734
0.0393734
0.0393734
0.0393733
0.0393733
0.0393733
0.0393732
0.0393732
0.0393731
0.0393731
0.039373
0.0393729
0.0393729
0.0393728
0.0393727
0.0393726
0.0393725
0.0393724
0.0393722
0.0393721
0.0393719
0.0393716
0.0393711
0.0393699
0.039367
0.0393589
0.0393343
0.0407361
0.0407623
0.0407709
0.040774
0.0407753
0.0407758
0.0407761
0.0407763
0.0407765
0.0407766
0.0407768
0.0407769
0.040777
0.0407771
0.0407772
0.0407773
0.0407773
0.0407774
0.0407775
0.0407775
0.0407776
0.0407776
0.0407777
0.0407777
0.0407777
0.0407778
0.0407778
0.0407778
0.0407778
0.0407778
0.0407778
0.0407778
0.0407778
0.0407778
0.0407778
0.0407777
0.0407777
0.0407777
0.0407776
0.0407776
0.0407775
0.0407775
0.0407774
0.0407773
0.0407773
0.0407772
0.0407771
0.040777
0.0407769
0.0407768
0.0407766
0.0407765
0.0407763
0.0407761
0.0407758
0.0407753
0.040774
0.0407709
0.0407623
0.0407361
0.0423598
0.0423879
0.0423971
0.0424004
0.0424017
0.0424023
0.0424027
0.0424029
0.0424031
0.0424032
0.0424034
0.0424035
0.0424036
0.0424037
0.0424038
0.0424039
0.042404
0.0424041
0.0424042
0.0424042
0.0424043
0.0424043
0.0424044
0.0424044
0.0424044
0.0424045
0.0424045
0.0424045
0.0424045
0.0424045
0.0424045
0.0424045
0.0424045
0.0424045
0.0424045
0.0424044
0.0424044
0.0424044
0.0424043
0.0424043
0.0424042
0.0424042
0.0424041
0.042404
0.0424039
0.0424038
0.0424037
0.0424036
0.0424035
0.0424034
0.0424032
0.0424031
0.0424029
0.0424027
0.0424023
0.0424017
0.0424004
0.0423971
0.0423879
0.0423598
0.0442545
0.0442848
0.0442948
0.0442984
0.0442999
0.0443005
0.0443009
0.0443011
0.0443013
0.0443015
0.0443017
0.0443018
0.0443019
0.0443021
0.0443022
0.0443023
0.0443024
0.0443024
0.0443025
0.0443026
0.0443027
0.0443027
0.0443028
0.0443028
0.0443028
0.0443029
0.0443029
0.0443029
0.0443029
0.0443029
0.0443029
0.0443029
0.0443029
0.0443029
0.0443029
0.0443028
0.0443028
0.0443028
0.0443027
0.0443027
0.0443026
0.0443025
0.0443024
0.0443024
0.0443023
0.0443022
0.0443021
0.0443019
0.0443018
0.0443017
0.0443015
0.0443013
0.0443011
0.0443009
0.0443005
0.0442999
0.0442984
0.0442948
0.0442848
0.0442545
0.0464947
0.0465279
0.0465388
0.0465428
0.0465444
0.0465451
0.0465455
0.0465458
0.046546
0.0465462
0.0465464
0.0465465
0.0465467
0.0465468
0.0465469
0.0465471
0.0465472
0.0465473
0.0465473
0.0465474
0.0465475
0.0465476
0.0465476
0.0465477
0.0465477
0.0465477
0.0465478
0.0465478
0.0465478
0.0465478
0.0465478
0.0465478
0.0465478
0.0465478
0.0465477
0.0465477
0.0465477
0.0465476
0.0465476
0.0465475
0.0465474
0.0465473
0.0465473
0.0465472
0.0465471
0.0465469
0.0465468
0.0465467
0.0465465
0.0465464
0.0465462
0.046546
0.0465458
0.0465455
0.0465451
0.0465444
0.0465428
0.0465388
0.0465279
0.0464947
0.0491873
0.0492241
0.0492362
0.0492406
0.0492424
0.0492432
0.0492436
0.049244
0.0492442
0.0492445
0.0492447
0.0492448
0.049245
0.0492452
0.0492453
0.0492454
0.0492456
0.0492457
0.0492458
0.0492459
0.0492459
0.049246
0.0492461
0.0492461
0.0492462
0.0492462
0.0492463
0.0492463
0.0492463
0.0492463
0.0492463
0.0492463
0.0492463
0.0492463
0.0492462
0.0492462
0.0492461
0.0492461
0.049246
0.0492459
0.0492459
0.0492458
0.0492457
0.0492456
0.0492454
0.0492453
0.0492452
0.049245
0.0492448
0.0492447
0.0492445
0.0492442
0.049244
0.0492436
0.0492432
0.0492424
0.0492406
0.0492362
0.0492241
0.0491873
0.0524884
0.05253
0.0525437
0.0525487
0.0525507
0.0525516
0.0525521
0.0525525
0.0525528
0.0525531
0.0525533
0.0525535
0.0525537
0.0525539
0.0525541
0.0525542
0.0525544
0.0525545
0.0525546
0.0525547
0.0525548
0.0525549
0.052555
0.052555
0.0525551
0.0525551
0.0525552
0.0525552
0.0525552
0.0525552
0.0525552
0.0525552
0.0525552
0.0525552
0.0525551
0.0525551
0.052555
0.052555
0.0525549
0.0525548
0.0525547
0.0525546
0.0525545
0.0525544
0.0525542
0.0525541
0.0525539
0.0525537
0.0525535
0.0525533
0.0525531
0.0525528
0.0525525
0.0525521
0.0525516
0.0525507
0.0525487
0.0525437
0.05253
0.0524884
0.0566322
0.0566802
0.0566961
0.0567019
0.0567042
0.0567053
0.0567059
0.0567064
0.0567067
0.056707
0.0567073
0.0567076
0.0567078
0.056708
0.0567082
0.0567084
0.0567086
0.0567087
0.0567089
0.056709
0.0567091
0.0567092
0.0567093
0.0567094
0.0567095
0.0567095
0.0567096
0.0567096
0.0567096
0.0567096
0.0567096
0.0567096
0.0567096
0.0567096
0.0567095
0.0567095
0.0567094
0.0567093
0.0567092
0.0567091
0.056709
0.0567089
0.0567087
0.0567086
0.0567084
0.0567082
0.056708
0.0567078
0.0567076
0.0567073
0.056707
0.0567067
0.0567064
0.0567059
0.0567053
0.0567042
0.0567019
0.0566961
0.0566802
0.0566322
0.0619728
0.0620298
0.0620487
0.0620557
0.0620585
0.0620598
0.0620605
0.0620611
0.0620615
0.0620619
0.0620622
0.0620626
0.0620629
0.0620631
0.0620634
0.0620636
0.0620638
0.062064
0.0620642
0.0620643
0.0620645
0.0620646
0.0620647
0.0620648
0.0620649
0.062065
0.062065
0.0620651
0.0620651
0.0620651
0.0620651
0.0620651
0.0620651
0.062065
0.062065
0.0620649
0.0620648
0.0620647
0.0620646
0.0620645
0.0620643
0.0620642
0.062064
0.0620638
0.0620636
0.0620634
0.0620631
0.0620629
0.0620626
0.0620622
0.0620619
0.0620615
0.0620611
0.0620605
0.0620598
0.0620585
0.0620557
0.0620487
0.0620298
0.0619728
0.0690335
0.0691033
0.0691266
0.0691351
0.0691386
0.0691402
0.0691411
0.0691418
0.0691424
0.0691428
0.0691433
0.0691437
0.0691441
0.0691444
0.0691447
0.069145
0.0691453
0.0691455
0.0691457
0.0691459
0.0691461
0.0691463
0.0691464
0.0691465
0.0691466
0.0691467
0.0691468
0.0691468
0.0691469
0.0691469
0.0691469
0.0691469
0.0691468
0.0691468
0.0691467
0.0691466
0.0691465
0.0691464
0.0691463
0.0691461
0.0691459
0.0691457
0.0691455
0.0691453
0.069145
0.0691447
0.0691444
0.0691441
0.0691437
0.0691433
0.0691428
0.0691424
0.0691418
0.0691411
0.0691402
0.0691386
0.0691351
0.0691266
0.0691033
0.0690335
0.0785307
0.0786184
0.0786477
0.0786585
0.0786629
0.078665
0.0786662
0.0786671
0.0786678
0.0786684
0.078669
0.0786695
0.07867
0.0786704
0.0786708
0.0786712
0.0786715
0.0786718
0.0786721
0.0786724
0.0786726
0.0786728
0.078673
0.0786732
0.0786733
0.0786734
0.0786735
0.0786736
0.0786736
0.0786736
0.0786736
0.0786736
0.0786736
0.0786735
0.0786734
0.0786733
0.0786732
0.078673
0.0786728
0.0786726
0.0786724
0.0786721
0.0786718
0.0786715
0.0786712
0.0786708
0.0786704
0.07867
0.0786695
0.078669
0.0786684
0.0786678
0.0786671
0.0786662
0.078665
0.0786629
0.0786585
0.0786477
0.0786184
0.0785307
0.0913057
0.0914173
0.0914549
0.0914688
0.0914744
0.0914771
0.0914786
0.0914797
0.0914807
0.0914815
0.0914822
0.0914828
0.0914835
0.091484
0.0914845
0.091485
0.0914855
0.0914859
0.0914862
0.0914866
0.0914869
0.0914871
0.0914874
0.0914876
0.0914877
0.0914879
0.091488
0.0914881
0.0914882
0.0914882
0.0914882
0.0914882
0.0914881
0.091488
0.0914879
0.0914877
0.0914876
0.0914874
0.0914871
0.0914869
0.0914866
0.0914862
0.0914859
0.0914855
0.091485
0.0914845
0.091484
0.0914835
0.0914828
0.0914822
0.0914815
0.0914807
0.0914797
0.0914786
0.0914771
0.0914744
0.0914688
0.0914549
0.0914173
0.0913057
0.108104
0.108245
0.108293
0.108311
0.108318
0.108321
0.108323
0.108325
0.108326
0.108327
0.108328
0.108329
0.108329
0.10833
0.108331
0.108331
0.108332
0.108332
0.108333
0.108333
0.108334
0.108334
0.108334
0.108335
0.108335
0.108335
0.108335
0.108335
0.108335
0.108335
0.108335
0.108335
0.108335
0.108335
0.108335
0.108335
0.108335
0.108334
0.108334
0.108334
0.108333
0.108333
0.108332
0.108332
0.108331
0.108331
0.10833
0.108329
0.108329
0.108328
0.108327
0.108326
0.108325
0.108323
0.108321
0.108318
0.108311
0.108293
0.108245
0.108104
0.12925
0.129424
0.129484
0.129506
0.129515
0.129519
0.129521
0.129523
0.129524
0.129525
0.129527
0.129528
0.129529
0.129529
0.12953
0.129531
0.129532
0.129532
0.129533
0.129533
0.129534
0.129534
0.129534
0.129535
0.129535
0.129535
0.129535
0.129535
0.129536
0.129536
0.129536
0.129536
0.129535
0.129535
0.129535
0.129535
0.129535
0.129534
0.129534
0.129534
0.129533
0.129533
0.129532
0.129532
0.129531
0.12953
0.129529
0.129529
0.129528
0.129527
0.129525
0.129524
0.129523
0.129521
0.129519
0.129515
0.129506
0.129484
0.129424
0.12925
0.154421
0.154628
0.1547
0.154726
0.154737
0.154742
0.154745
0.154747
0.154749
0.15475
0.154751
0.154752
0.154753
0.154754
0.154755
0.154756
0.154757
0.154757
0.154758
0.154759
0.154759
0.15476
0.15476
0.15476
0.154761
0.154761
0.154761
0.154761
0.154761
0.154761
0.154761
0.154761
0.154761
0.154761
0.154761
0.154761
0.15476
0.15476
0.15476
0.154759
0.154759
0.154758
0.154757
0.154757
0.154756
0.154755
0.154754
0.154753
0.154752
0.154751
0.15475
0.154749
0.154747
0.154745
0.154742
0.154737
0.154726
0.1547
0.154628
0.154421
0.182722
0.18296
0.183043
0.183074
0.183086
0.183092
0.183095
0.183097
0.183099
0.1831
0.183102
0.183103
0.183104
0.183105
0.183106
0.183107
0.183108
0.183109
0.183109
0.18311
0.18311
0.183111
0.183111
0.183112
0.183112
0.183112
0.183113
0.183113
0.183113
0.183113
0.183113
0.183113
0.183113
0.183113
0.183112
0.183112
0.183112
0.183111
0.183111
0.18311
0.18311
0.183109
0.183109
0.183108
0.183107
0.183106
0.183105
0.183104
0.183103
0.183102
0.1831
0.183099
0.183097
0.183095
0.183092
0.183086
0.183074
0.183043
0.18296
0.182722
0.213016
0.213279
0.213372
0.213407
0.213421
0.213427
0.213431
0.213433
0.213435
0.213436
0.213438
0.213439
0.21344
0.213441
0.213442
0.213443
0.213444
0.213445
0.213446
0.213446
0.213447
0.213447
0.213448
0.213448
0.213448
0.213449
0.213449
0.213449
0.213449
0.213449
0.213449
0.213449
0.213449
0.213449
0.213449
0.213448
0.213448
0.213448
0.213447
0.213447
0.213446
0.213446
0.213445
0.213444
0.213443
0.213442
0.213441
0.21344
0.213439
0.213438
0.213436
0.213435
0.213433
0.213431
0.213427
0.213421
0.213407
0.213372
0.213279
0.213016
0.244264
0.244549
0.244651
0.244689
0.244704
0.244711
0.244715
0.244717
0.244719
0.244721
0.244722
0.244724
0.244725
0.244726
0.244727
0.244728
0.244729
0.244729
0.24473
0.244731
0.244731
0.244732
0.244732
0.244733
0.244733
0.244733
0.244734
0.244734
0.244734
0.244734
0.244734
0.244734
0.244734
0.244734
0.244733
0.244733
0.244733
0.244732
0.244732
0.244731
0.244731
0.24473
0.244729
0.244729
0.244728
0.244727
0.244726
0.244725
0.244724
0.244722
0.244721
0.244719
0.244717
0.244715
0.244711
0.244704
0.244689
0.244651
0.244549
0.244264
0.275706
0.276009
0.276118
0.27616
0.276176
0.276184
0.276188
0.27619
0.276192
0.276194
0.276195
0.276196
0.276198
0.276199
0.2762
0.276201
0.276201
0.276202
0.276203
0.276204
0.276204
0.276205
0.276205
0.276206
0.276206
0.276206
0.276206
0.276207
0.276207
0.276207
0.276207
0.276207
0.276207
0.276206
0.276206
0.276206
0.276206
0.276205
0.276205
0.276204
0.276204
0.276203
0.276202
0.276201
0.276201
0.2762
0.276199
0.276198
0.276196
0.276195
0.276194
0.276192
0.27619
0.276188
0.276184
0.276176
0.27616
0.276118
0.276009
0.275706
0.306858
0.307176
0.307292
0.307337
0.307355
0.307363
0.307367
0.307369
0.307371
0.307373
0.307374
0.307376
0.307377
0.307378
0.307379
0.30738
0.307381
0.307381
0.307382
0.307383
0.307383
0.307384
0.307384
0.307385
0.307385
0.307385
0.307385
0.307386
0.307386
0.307386
0.307386
0.307386
0.307386
0.307385
0.307385
0.307385
0.307385
0.307384
0.307384
0.307383
0.307383
0.307382
0.307381
0.307381
0.30738
0.307379
0.307378
0.307377
0.307376
0.307374
0.307373
0.307371
0.307369
0.307367
0.307363
0.307355
0.307337
0.307292
0.307176
0.306858
0.337439
0.337769
0.337893
0.33794
0.337959
0.337968
0.337972
0.337975
0.337977
0.337978
0.33798
0.337981
0.337982
0.337983
0.337984
0.337985
0.337986
0.337987
0.337987
0.337988
0.337988
0.337989
0.337989
0.33799
0.33799
0.33799
0.33799
0.337991
0.337991
0.337991
0.337991
0.337991
0.337991
0.33799
0.33799
0.33799
0.33799
0.337989
0.337989
0.337988
0.337988
0.337987
0.337987
0.337986
0.337985
0.337984
0.337983
0.337982
0.337981
0.33798
0.337978
0.337977
0.337975
0.337972
0.337968
0.337959
0.33794
0.337893
0.337769
0.337439
0.367292
0.367633
0.367763
0.367813
0.367834
0.367842
0.367847
0.36785
0.367852
0.367853
0.367855
0.367856
0.367857
0.367858
0.367859
0.36786
0.367861
0.367861
0.367862
0.367862
0.367863
0.367863
0.367864
0.367864
0.367865
0.367865
0.367865
0.367865
0.367865
0.367865
0.367865
0.367865
0.367865
0.367865
0.367865
0.367865
0.367864
0.367864
0.367863
0.367863
0.367862
0.367862
0.367861
0.367861
0.36786
0.367859
0.367858
0.367857
0.367856
0.367855
0.367853
0.367852
0.36785
0.367847
0.367842
0.367834
0.367813
0.367763
0.367633
0.367292
0.39633
0.39668
0.396815
0.396869
0.39689
0.3969
0.396904
0.396907
0.396909
0.396911
0.396912
0.396913
0.396914
0.396915
0.396916
0.396917
0.396918
0.396918
0.396919
0.396919
0.39692
0.39692
0.396921
0.396921
0.396921
0.396922
0.396922
0.396922
0.396922
0.396922
0.396922
0.396922
0.396922
0.396922
0.396922
0.396921
0.396921
0.396921
0.39692
0.39692
0.396919
0.396919
0.396918
0.396918
0.396917
0.396916
0.396915
0.396914
0.396913
0.396912
0.396911
0.396909
0.396907
0.396904
0.3969
0.39689
0.396869
0.396815
0.39668
0.39633
0.424503
0.424861
0.425002
0.425058
0.42508
0.42509
0.425095
0.425098
0.4251
0.425102
0.425103
0.425104
0.425105
0.425106
0.425107
0.425108
0.425108
0.425109
0.42511
0.42511
0.425111
0.425111
0.425111
0.425112
0.425112
0.425112
0.425113
0.425113
0.425113
0.425113
0.425113
0.425113
0.425113
0.425113
0.425112
0.425112
0.425112
0.425111
0.425111
0.425111
0.42511
0.42511
0.425109
0.425108
0.425108
0.425107
0.425106
0.425105
0.425104
0.425103
0.425102
0.4251
0.425098
0.425095
0.42509
0.42508
0.425058
0.425002
0.424861
0.424503
0.451786
0.452149
0.452295
0.452354
0.452378
0.452388
0.452393
0.452396
0.452398
0.4524
0.452401
0.452402
0.452403
0.452404
0.452405
0.452406
0.452406
0.452407
0.452408
0.452408
0.452409
0.452409
0.452409
0.45241
0.45241
0.45241
0.45241
0.452411
0.452411
0.452411
0.452411
0.452411
0.452411
0.45241
0.45241
0.45241
0.45241
0.452409
0.452409
0.452409
0.452408
0.452408
0.452407
0.452406
0.452406
0.452405
0.452404
0.452403
0.452402
0.452401
0.4524
0.452398
0.452396
0.452393
0.452388
0.452378
0.452354
0.452295
0.452149
0.451786
0.478164
0.478532
0.478683
0.478744
0.47877
0.478781
0.478786
0.478789
0.478791
0.478792
0.478794
0.478795
0.478796
0.478797
0.478797
0.478798
0.478799
0.478799
0.4788
0.4788
0.478801
0.478801
0.478802
0.478802
0.478802
0.478802
0.478803
0.478803
0.478803
0.478803
0.478803
0.478803
0.478803
0.478803
0.478802
0.478802
0.478802
0.478802
0.478801
0.478801
0.4788
0.4788
0.478799
0.478799
0.478798
0.478797
0.478797
0.478796
0.478795
0.478794
0.478792
0.478791
0.478789
0.478786
0.478781
0.47877
0.478744
0.478683
0.478532
0.478164
0.503635
0.504006
0.504161
0.504225
0.504252
0.504264
0.504269
0.504272
0.504274
0.504276
0.504277
0.504278
0.504279
0.504279
0.50428
0.504281
0.504282
0.504282
0.504283
0.504283
0.504284
0.504284
0.504284
0.504285
0.504285
0.504285
0.504285
0.504285
0.504285
0.504285
0.504285
0.504285
0.504285
0.504285
0.504285
0.504285
0.504285
0.504284
0.504284
0.504284
0.504283
0.504283
0.504282
0.504282
0.504281
0.50428
0.504279
0.504279
0.504278
0.504277
0.504276
0.504274
0.504272
0.504269
0.504264
0.504252
0.504225
0.504161
0.504006
0.503635
0.528199
0.528573
0.528732
0.528799
0.528827
0.528839
0.528845
0.528848
0.52885
0.528851
0.528852
0.528853
0.528854
0.528855
0.528856
0.528856
0.528857
0.528857
0.528858
0.528858
0.528859
0.528859
0.528859
0.52886
0.52886
0.52886
0.52886
0.52886
0.528861
0.528861
0.528861
0.528861
0.52886
0.52886
0.52886
0.52886
0.52886
0.528859
0.528859
0.528859
0.528858
0.528858
0.528857
0.528857
0.528856
0.528856
0.528855
0.528854
0.528853
0.528852
0.528851
0.52885
0.528848
0.528845
0.528839
0.528827
0.528799
0.528732
0.528573
0.528199
0.551865
0.552239
0.552402
0.552471
0.5525
0.552513
0.552519
0.552522
0.552524
0.552526
0.552527
0.552528
0.552529
0.55253
0.55253
0.552531
0.552531
0.552532
0.552532
0.552533
0.552533
0.552534
0.552534
0.552534
0.552534
0.552535
0.552535
0.552535
0.552535
0.552535
0.552535
0.552535
0.552535
0.552535
0.552535
0.552534
0.552534
0.552534
0.552534
0.552533
0.552533
0.552532
0.552532
0.552531
0.552531
0.55253
0.55253
0.552529
0.552528
0.552527
0.552526
0.552524
0.552522
0.552519
0.552513
0.5525
0.552471
0.552402
0.552239
0.551865
0.574641
0.575015
0.575181
0.575253
0.575283
0.575297
0.575303
0.575307
0.575309
0.57531
0.575311
0.575312
0.575313
0.575314
0.575314
0.575315
0.575315
0.575316
0.575316
0.575317
0.575317
0.575317
0.575318
0.575318
0.575318
0.575318
0.575318
0.575318
0.575319
0.575319
0.575319
0.575319
0.575318
0.575318
0.575318
0.575318
0.575318
0.575318
0.575317
0.575317
0.575317
0.575316
0.575316
0.575315
0.575315
0.575314
0.575314
0.575313
0.575312
0.575311
0.57531
0.575309
0.575307
0.575303
0.575297
0.575283
0.575253
0.575181
0.575015
0.574641
0.596541
0.596914
0.597083
0.597156
0.597188
0.597203
0.597209
0.597213
0.597215
0.597216
0.597217
0.597218
0.597219
0.597219
0.59722
0.597221
0.597221
0.597222
0.597222
0.597222
0.597223
0.597223
0.597223
0.597224
0.597224
0.597224
0.597224
0.597224
0.597224
0.597224
0.597224
0.597224
0.597224
0.597224
0.597224
0.597224
0.597224
0.597223
0.597223
0.597223
0.597222
0.597222
0.597222
0.597221
0.597221
0.59722
0.597219
0.597219
0.597218
0.597217
0.597216
0.597215
0.597213
0.597209
0.597203
0.597188
0.597156
0.597083
0.596914
0.596541
0.617578
0.617949
0.618121
0.618197
0.61823
0.618245
0.618252
0.618256
0.618258
0.618259
0.61826
0.618261
0.618262
0.618262
0.618263
0.618263
0.618264
0.618264
0.618265
0.618265
0.618265
0.618266
0.618266
0.618266
0.618266
0.618266
0.618267
0.618267
0.618267
0.618267
0.618267
0.618267
0.618267
0.618267
0.618266
0.618266
0.618266
0.618266
0.618266
0.618265
0.618265
0.618265
0.618264
0.618264
0.618263
0.618263
0.618262
0.618262
0.618261
0.61826
0.618259
0.618258
0.618256
0.618252
0.618245
0.61823
0.618197
0.618121
0.617949
0.617578
0.637771
0.638139
0.638312
0.63839
0.638425
0.638441
0.638448
0.638452
0.638454
0.638455
0.638456
0.638457
0.638458
0.638458
0.638459
0.638459
0.63846
0.63846
0.63846
0.638461
0.638461
0.638461
0.638462
0.638462
0.638462
0.638462
0.638462
0.638462
0.638462
0.638462
0.638462
0.638462
0.638462
0.638462
0.638462
0.638462
0.638462
0.638462
0.638461
0.638461
0.638461
0.63846
0.63846
0.63846
0.638459
0.638459
0.638458
0.638458
0.638457
0.638456
0.638455
0.638454
0.638452
0.638448
0.638441
0.638425
0.63839
0.638312
0.638139
0.637771
0.657135
0.657499
0.657674
0.657755
0.657791
0.657807
0.657815
0.657818
0.657821
0.657822
0.657823
0.657824
0.657824
0.657825
0.657825
0.657826
0.657826
0.657827
0.657827
0.657827
0.657828
0.657828
0.657828
0.657828
0.657828
0.657829
0.657829
0.657829
0.657829
0.657829
0.657829
0.657829
0.657829
0.657829
0.657829
0.657828
0.657828
0.657828
0.657828
0.657828
0.657827
0.657827
0.657827
0.657826
0.657826
0.657825
0.657825
0.657824
0.657824
0.657823
0.657822
0.657821
0.657818
0.657815
0.657807
0.657791
0.657755
0.657674
0.657499
0.657135
0.67569
0.67605
0.676226
0.676308
0.676346
0.676363
0.676371
0.676375
0.676377
0.676378
0.676379
0.67638
0.676381
0.676381
0.676382
0.676382
0.676383
0.676383
0.676383
0.676384
0.676384
0.676384
0.676384
0.676384
0.676385
0.676385
0.676385
0.676385
0.676385
0.676385
0.676385
0.676385
0.676385
0.676385
0.676385
0.676385
0.676384
0.676384
0.676384
0.676384
0.676384
0.676383
0.676383
0.676383
0.676382
0.676382
0.676381
0.676381
0.67638
0.676379
0.676378
0.676377
0.676375
0.676371
0.676363
0.676346
0.676308
0.676226
0.67605
0.67569
0.693455
0.69381
0.693988
0.694071
0.69411
0.694128
0.694136
0.69414
0.694143
0.694144
0.694145
0.694146
0.694146
0.694147
0.694147
0.694148
0.694148
0.694148
0.694149
0.694149
0.694149
0.694149
0.69415
0.69415
0.69415
0.69415
0.69415
0.69415
0.69415
0.69415
0.69415
0.69415
0.69415
0.69415
0.69415
0.69415
0.69415
0.69415
0.694149
0.694149
0.694149
0.694149
0.694148
0.694148
0.694148
0.694147
0.694147
0.694146
0.694146
0.694145
0.694144
0.694143
0.69414
0.694136
0.694128
0.69411
0.694071
0.693988
0.69381
0.693455
0.710451
0.710801
0.710978
0.711064
0.711104
0.711122
0.711131
0.711135
0.711138
0.711139
0.71114
0.711141
0.711141
0.711142
0.711142
0.711142
0.711143
0.711143
0.711143
0.711144
0.711144
0.711144
0.711144
0.711144
0.711145
0.711145
0.711145
0.711145
0.711145
0.711145
0.711145
0.711145
0.711145
0.711145
0.711145
0.711145
0.711144
0.711144
0.711144
0.711144
0.711144
0.711143
0.711143
0.711143
0.711142
0.711142
0.711142
0.711141
0.711141
0.71114
0.711139
0.711138
0.711135
0.711131
0.711122
0.711104
0.711064
0.710978
0.710801
0.710451
0.726698
0.727041
0.727219
0.727306
0.727347
0.727366
0.727376
0.72738
0.727383
0.727384
0.727385
0.727386
0.727386
0.727387
0.727387
0.727387
0.727388
0.727388
0.727388
0.727388
0.727389
0.727389
0.727389
0.727389
0.727389
0.727389
0.727389
0.72739
0.72739
0.72739
0.72739
0.72739
0.72739
0.727389
0.727389
0.727389
0.727389
0.727389
0.727389
0.727389
0.727388
0.727388
0.727388
0.727388
0.727387
0.727387
0.727387
0.727386
0.727386
0.727385
0.727384
0.727383
0.72738
0.727376
0.727366
0.727347
0.727306
0.727219
0.727041
0.726698
0.742216
0.742553
0.742731
0.742819
0.742861
0.742882
0.742891
0.742896
0.742899
0.7429
0.742901
0.742902
0.742902
0.742902
0.742903
0.742903
0.742903
0.742904
0.742904
0.742904
0.742904
0.742905
0.742905
0.742905
0.742905
0.742905
0.742905
0.742905
0.742905
0.742905
0.742905
0.742905
0.742905
0.742905
0.742905
0.742905
0.742905
0.742905
0.742905
0.742904
0.742904
0.742904
0.742904
0.742903
0.742903
0.742903
0.742902
0.742902
0.742902
0.742901
0.7429
0.742899
0.742896
0.742891
0.742882
0.742861
0.742819
0.742731
0.742553
0.742216
0.757028
0.757358
0.757535
0.757625
0.757668
0.757689
0.757699
0.757704
0.757707
0.757708
0.757709
0.75771
0.75771
0.757711
0.757711
0.757711
0.757712
0.757712
0.757712
0.757712
0.757712
0.757713
0.757713
0.757713
0.757713
0.757713
0.757713
0.757713
0.757713
0.757713
0.757713
0.757713
0.757713
0.757713
0.757713
0.757713
0.757713
0.757713
0.757713
0.757712
0.757712
0.757712
0.757712
0.757712
0.757711
0.757711
0.757711
0.75771
0.75771
0.757709
0.757708
0.757707
0.757704
0.757699
0.757689
0.757668
0.757625
0.757535
0.757358
0.757028
0.771155
0.771478
0.771654
0.771744
0.771788
0.77181
0.771821
0.771826
0.771829
0.77183
0.771831
0.771832
0.771832
0.771833
0.771833
0.771833
0.771834
0.771834
0.771834
0.771834
0.771834
0.771834
0.771835
0.771835
0.771835
0.771835
0.771835
0.771835
0.771835
0.771835
0.771835
0.771835
0.771835
0.771835
0.771835
0.771835
0.771835
0.771835
0.771834
0.771834
0.771834
0.771834
0.771834
0.771834
0.771833
0.771833
0.771833
0.771832
0.771832
0.771831
0.77183
0.771829
0.771826
0.771821
0.77181
0.771788
0.771744
0.771654
0.771478
0.771155
0.784617
0.784932
0.785107
0.785198
0.785244
0.785266
0.785277
0.785283
0.785286
0.785287
0.785288
0.785289
0.785289
0.78529
0.78529
0.78529
0.785291
0.785291
0.785291
0.785291
0.785291
0.785291
0.785292
0.785292
0.785292
0.785292
0.785292
0.785292
0.785292
0.785292
0.785292
0.785292
0.785292
0.785292
0.785292
0.785292
0.785292
0.785292
0.785291
0.785291
0.785291
0.785291
0.785291
0.785291
0.78529
0.78529
0.78529
0.785289
0.785289
0.785288
0.785287
0.785286
0.785283
0.785277
0.785266
0.785244
0.785198
0.785107
0.784932
0.784617
0.797438
0.797745
0.797918
0.798009
0.798056
0.798079
0.798091
0.798097
0.7981
0.798101
0.798102
0.798103
0.798103
0.798104
0.798104
0.798104
0.798104
0.798105
0.798105
0.798105
0.798105
0.798105
0.798105
0.798105
0.798105
0.798105
0.798106
0.798106
0.798106
0.798106
0.798106
0.798106
0.798106
0.798106
0.798105
0.798105
0.798105
0.798105
0.798105
0.798105
0.798105
0.798105
0.798105
0.798104
0.798104
0.798104
0.798104
0.798103
0.798103
0.798102
0.798101
0.7981
0.798097
0.798091
0.798079
0.798056
0.798009
0.797918
0.797745
0.797438
0.809636
0.809935
0.810107
0.810199
0.810246
0.81027
0.810282
0.810288
0.810291
0.810293
0.810294
0.810295
0.810295
0.810295
0.810296
0.810296
0.810296
0.810296
0.810296
0.810297
0.810297
0.810297
0.810297
0.810297
0.810297
0.810297
0.810297
0.810297
0.810297
0.810297
0.810297
0.810297
0.810297
0.810297
0.810297
0.810297
0.810297
0.810297
0.810297
0.810297
0.810297
0.810296
0.810296
0.810296
0.810296
0.810296
0.810295
0.810295
0.810295
0.810294
0.810293
0.810291
0.810288
0.810282
0.81027
0.810246
0.810199
0.810107
0.809935
0.809636
0.821235
0.821526
0.821695
0.821787
0.821836
0.82186
0.821873
0.821879
0.821882
0.821884
0.821885
0.821886
0.821886
0.821887
0.821887
0.821887
0.821887
0.821887
0.821888
0.821888
0.821888
0.821888
0.821888
0.821888
0.821888
0.821888
0.821888
0.821888
0.821888
0.821888
0.821888
0.821888
0.821888
0.821888
0.821888
0.821888
0.821888
0.821888
0.821888
0.821888
0.821888
0.821888
0.821887
0.821887
0.821887
0.821887
0.821887
0.821886
0.821886
0.821885
0.821884
0.821882
0.821879
0.821873
0.82186
0.821836
0.821787
0.821695
0.821526
0.821235
0.832255
0.832537
0.832704
0.832796
0.832845
0.832871
0.832884
0.83289
0.832894
0.832896
0.832897
0.832898
0.832898
0.832898
0.832898
0.832899
0.832899
0.832899
0.832899
0.832899
0.832899
0.832899
0.832899
0.832899
0.832899
0.8329
0.8329
0.8329
0.8329
0.8329
0.8329
0.8329
0.8329
0.8329
0.8329
0.832899
0.832899
0.832899
0.832899
0.832899
0.832899
0.832899
0.832899
0.832899
0.832899
0.832898
0.832898
0.832898
0.832898
0.832897
0.832896
0.832894
0.83289
0.832884
0.832871
0.832845
0.832796
0.832704
0.832537
0.832255
0.842717
0.84299
0.843154
0.843247
0.843296
0.843323
0.843336
0.843343
0.843347
0.843349
0.84335
0.84335
0.843351
0.843351
0.843351
0.843351
0.843352
0.843352
0.843352
0.843352
0.843352
0.843352
0.843352
0.843352
0.843352
0.843352
0.843352
0.843352
0.843352
0.843352
0.843352
0.843352
0.843352
0.843352
0.843352
0.843352
0.843352
0.843352
0.843352
0.843352
0.843352
0.843352
0.843352
0.843352
0.843351
0.843351
0.843351
0.843351
0.84335
0.84335
0.843349
0.843347
0.843343
0.843336
0.843323
0.843296
0.843247
0.843154
0.84299
0.842717
0.852642
0.852906
0.853067
0.853159
0.853209
0.853236
0.85325
0.853257
0.853261
0.853263
0.853264
0.853265
0.853265
0.853266
0.853266
0.853266
0.853266
0.853266
0.853266
0.853266
0.853266
0.853267
0.853267
0.853267
0.853267
0.853267
0.853267
0.853267
0.853267
0.853267
0.853267
0.853267
0.853267
0.853267
0.853267
0.853267
0.853267
0.853267
0.853267
0.853266
0.853266
0.853266
0.853266
0.853266
0.853266
0.853266