/*--------------------------------*- C++ -*----------------------------------*\
| =========                 |                                                 |
| \\      /  F ield         | foam-extend: Open Source CFD                    |
|  \\    /   O peration     | Version:     4.0                                |
|   \\  /    A nd           | Web:         http://www.foam-extend.org         |
|    \\/     M anipulation  |                                                 |
\*---------------------------------------------------------------------------*/
FoamFile
{
    version     2.0;
    format      ascii;
    class       volScalarField;
    location    "21";
    object      dC2;
}
// * * * * * * * * * * * * * * * * * * * * * * * * * * * * * * * * * * * * * //

dimensions      [0 -1 0 0 0 0 0];

internalField   nonuniform List<scalar> 
6960
(
7.94217e-17
7.94217e-17
7.94218e-17
7.9422e-17
7.94221e-17
7.94221e-17
7.94222e-17
7.94222e-17
7.94222e-17
7.94221e-17
7.94221e-17
7.94222e-17
7.94222e-17
7.94222e-17
7.94222e-17
7.94222e-17
7.94221e-17
7.94221e-17
7.94222e-17
7.94221e-17
7.94221e-17
7.94221e-17
7.94221e-17
7.94222e-17
7.9422e-17
7.94221e-17
7.94221e-17
7.94221e-17
7.94221e-17
7.94221e-17
7.9422e-17
7.94221e-17
7.9422e-17
7.94221e-17
7.9422e-17
7.9422e-17
7.9422e-17
7.94221e-17
7.94222e-17
7.94221e-17
7.94222e-17
7.94221e-17
7.94222e-17
7.94222e-17
7.94221e-17
7.94221e-17
7.94221e-17
7.94222e-17
7.94222e-17
7.94221e-17
7.94222e-17
7.94221e-17
7.94221e-17
7.94221e-17
7.94222e-17
7.9422e-17
7.9422e-17
7.94218e-17
7.94217e-17
7.94216e-17
2.37202e-16
2.37202e-16
2.37203e-16
2.37203e-16
2.37203e-16
2.37203e-16
2.37203e-16
2.37203e-16
2.37203e-16
2.37204e-16
2.37204e-16
2.37204e-16
2.37203e-16
2.37203e-16
2.37203e-16
2.37203e-16
2.37203e-16
2.37203e-16
2.37203e-16
2.37203e-16
2.37203e-16
2.37203e-16
2.37203e-16
2.37202e-16
2.37203e-16
2.37203e-16
2.37203e-16
2.37203e-16
2.37203e-16
2.37203e-16
2.37203e-16
2.37203e-16
2.37203e-16
2.37203e-16
2.37203e-16
2.37203e-16
2.37203e-16
2.37204e-16
2.37203e-16
2.37203e-16
2.37203e-16
2.37203e-16
2.37203e-16
2.37203e-16
2.37203e-16
2.37203e-16
2.37203e-16
2.37203e-16
2.37204e-16
2.37203e-16
2.37203e-16
2.37204e-16
2.37203e-16
2.37203e-16
2.37203e-16
2.37203e-16
2.37203e-16
2.37203e-16
2.37202e-16
2.37202e-16
5.68021e-16
5.68022e-16
5.68023e-16
5.68023e-16
5.68024e-16
5.68024e-16
5.68025e-16
5.68025e-16
5.68025e-16
5.68024e-16
5.68024e-16
5.68024e-16
5.68025e-16
5.68025e-16
5.68025e-16
5.68025e-16
5.68025e-16
5.68024e-16
5.68024e-16
5.68024e-16
5.68024e-16
5.68023e-16
5.68024e-16
5.68025e-16
5.68024e-16
5.68024e-16
5.68024e-16
5.68025e-16
5.68024e-16
5.68024e-16
5.68025e-16
5.68025e-16
5.68025e-16
5.68025e-16
5.68025e-16
5.68024e-16
5.68025e-16
5.68023e-16
5.68024e-16
5.68025e-16
5.68025e-16
5.68024e-16
5.68025e-16
5.68024e-16
5.68025e-16
5.68025e-16
5.68025e-16
5.68025e-16
5.68025e-16
5.68025e-16
5.68025e-16
5.68025e-16
5.68025e-16
5.68025e-16
5.68024e-16
5.68024e-16
5.68024e-16
5.68022e-16
5.68022e-16
5.6802e-16
1.19396e-15
1.19397e-15
1.19397e-15
1.19397e-15
1.19397e-15
1.19398e-15
1.19397e-15
1.19397e-15
1.19398e-15
1.19397e-15
1.19398e-15
1.19398e-15
1.19397e-15
1.19398e-15
1.19397e-15
1.19397e-15
1.19397e-15
1.19397e-15
1.19398e-15
1.19397e-15
1.19397e-15
1.19397e-15
1.19398e-15
1.19397e-15
1.19397e-15
1.19397e-15
1.19397e-15
1.19397e-15
1.19397e-15
1.19397e-15
1.19397e-15
1.19397e-15
1.19397e-15
1.19397e-15
1.19397e-15
1.19397e-15
1.19397e-15
1.19397e-15
1.19397e-15
1.19397e-15
1.19397e-15
1.19397e-15
1.19397e-15
1.19397e-15
1.19397e-15
1.19397e-15
1.19397e-15
1.19397e-15
1.19398e-15
1.19397e-15
1.19397e-15
1.19397e-15
1.19397e-15
1.19398e-15
1.19397e-15
1.19397e-15
1.19397e-15
1.19397e-15
1.19397e-15
1.19397e-15
2.33441e-15
2.33441e-15
2.33442e-15
2.33442e-15
2.33442e-15
2.33442e-15
2.33442e-15
2.33443e-15
2.33442e-15
2.33442e-15
2.33442e-15
2.33442e-15
2.33442e-15
2.33442e-15
2.33442e-15
2.33442e-15
2.33442e-15
2.33442e-15
2.33442e-15
2.33442e-15
2.33443e-15
2.33442e-15
2.33442e-15
2.33442e-15
2.33442e-15
2.33442e-15
2.33442e-15
2.33442e-15
2.33442e-15
2.33443e-15
2.33442e-15
2.33442e-15
2.33442e-15
2.33442e-15
2.33442e-15
2.33443e-15
2.33442e-15
2.33442e-15
2.33442e-15
2.33442e-15
2.33442e-15
2.33443e-15
2.33443e-15
2.33442e-15
2.33442e-15
2.33442e-15
2.33443e-15
2.33443e-15
2.33442e-15
2.33442e-15
2.33442e-15
2.33443e-15
2.33442e-15
2.33442e-15
2.33442e-15
2.33442e-15
2.33442e-15
2.33441e-15
2.33441e-15
2.33441e-15
4.36435e-15
4.36436e-15
4.36437e-15
4.36438e-15
4.36437e-15
4.36439e-15
4.36439e-15
4.36438e-15
4.36438e-15
4.36438e-15
4.36439e-15
4.36439e-15
4.36439e-15
4.36438e-15
4.36438e-15
4.36438e-15
4.36438e-15
4.36439e-15
4.36439e-15
4.36438e-15
4.36437e-15
4.36438e-15
4.36437e-15
4.36439e-15
4.36438e-15
4.36438e-15
4.36438e-15
4.36438e-15
4.36438e-15
4.36437e-15
4.36439e-15
4.36438e-15
4.36438e-15
4.36438e-15
4.36438e-15
4.36437e-15
4.36438e-15
4.36438e-15
4.36439e-15
4.36438e-15
4.36438e-15
4.36437e-15
4.36437e-15
4.36439e-15
4.36438e-15
4.36438e-15
4.36438e-15
4.36438e-15
4.36438e-15
4.36438e-15
4.36439e-15
4.36438e-15
4.36439e-15
4.36439e-15
4.36439e-15
4.36438e-15
4.36437e-15
4.36437e-15
4.36436e-15
4.36435e-15
7.91553e-15
7.91552e-15
7.91552e-15
7.91555e-15
7.91557e-15
7.91556e-15
7.91554e-15
7.91558e-15
7.91558e-15
7.91557e-15
7.91557e-15
7.91558e-15
7.91557e-15
7.91557e-15
7.91559e-15
7.91558e-15
7.91557e-15
7.91556e-15
7.91555e-15
7.91554e-15
7.91556e-15
7.91556e-15
7.91556e-15
7.91556e-15
7.91555e-15
7.91556e-15
7.91557e-15
7.91555e-15
7.91556e-15
7.91557e-15
7.91554e-15
7.91555e-15
7.91556e-15
7.91555e-15
7.91555e-15
7.91557e-15
7.91556e-15
7.91556e-15
7.91553e-15
7.91557e-15
7.91558e-15
7.91558e-15
7.91559e-15
7.91556e-15
7.91557e-15
7.91556e-15
7.91556e-15
7.91558e-15
7.91557e-15
7.91557e-15
7.91556e-15
7.91557e-15
7.91557e-15
7.91557e-15
7.91556e-15
7.91556e-15
7.91557e-15
7.91554e-15
7.91552e-15
7.91552e-15
1.40331e-14
1.40332e-14
1.40332e-14
1.40332e-14
1.40332e-14
1.40333e-14
1.40333e-14
1.40332e-14
1.40332e-14
1.40332e-14
1.40332e-14
1.40332e-14
1.40332e-14
1.40332e-14
1.40332e-14
1.40332e-14
1.40332e-14
1.40332e-14
1.40332e-14
1.40333e-14
1.40332e-14
1.40332e-14
1.40332e-14
1.40332e-14
1.40332e-14
1.40332e-14
1.40332e-14
1.40332e-14
1.40332e-14
1.40332e-14
1.40332e-14
1.40332e-14
1.40332e-14
1.40332e-14
1.40332e-14
1.40332e-14
1.40332e-14
1.40332e-14
1.40332e-14
1.40332e-14
1.40332e-14
1.40332e-14
1.40332e-14
1.40332e-14
1.40332e-14
1.40333e-14
1.40332e-14
1.40332e-14
1.40332e-14
1.40332e-14
1.40332e-14
1.40332e-14
1.40332e-14
1.40332e-14
1.40332e-14
1.40332e-14
1.40332e-14
1.40332e-14
1.40331e-14
1.40331e-14
2.44341e-14
2.44341e-14
2.44342e-14
2.44342e-14
2.44343e-14
2.44342e-14
2.44342e-14
2.44342e-14
2.44343e-14
2.44343e-14
2.44342e-14
2.44342e-14
2.44343e-14
2.44343e-14
2.44342e-14
2.44342e-14
2.44343e-14
2.44342e-14
2.44342e-14
2.44343e-14
2.44342e-14
2.44342e-14
2.44342e-14
2.44342e-14
2.44343e-14
2.44342e-14
2.44342e-14
2.44342e-14
2.44342e-14
2.44342e-14
2.44341e-14
2.44342e-14
2.44342e-14
2.44342e-14
2.44342e-14
2.44343e-14
2.44343e-14
2.44343e-14
2.44342e-14
2.44342e-14
2.44342e-14
2.44341e-14
2.44342e-14
2.44342e-14
2.44343e-14
2.44342e-14
2.44342e-14
2.44342e-14
2.44343e-14
2.44342e-14
2.44342e-14
2.44342e-14
2.44343e-14
2.44342e-14
2.44342e-14
2.44342e-14
2.44342e-14
2.44342e-14
2.44342e-14
2.44341e-14
4.18623e-14
4.18623e-14
4.18624e-14
4.18623e-14
4.18625e-14
4.18625e-14
4.18625e-14
4.18625e-14
4.18625e-14
4.18623e-14
4.18626e-14
4.18626e-14
4.18624e-14
4.18624e-14
4.18627e-14
4.18625e-14
4.18624e-14
4.18625e-14
4.18625e-14
4.18624e-14
4.18625e-14
4.18625e-14
4.18624e-14
4.18626e-14
4.18624e-14
4.18626e-14
4.18625e-14
4.18625e-14
4.18623e-14
4.18626e-14
4.18625e-14
4.18624e-14
4.18625e-14
4.18625e-14
4.18625e-14
4.18624e-14
4.18624e-14
4.18623e-14
4.18623e-14
4.18626e-14
4.18626e-14
4.18625e-14
4.18625e-14
4.18625e-14
4.18625e-14
4.18625e-14
4.18625e-14
4.18625e-14
4.18624e-14
4.18627e-14
4.18624e-14
4.18625e-14
4.18625e-14
4.18627e-14
4.18626e-14
4.18626e-14
4.18624e-14
4.18623e-14
4.18621e-14
4.18623e-14
6.98203e-14
6.98207e-14
6.98207e-14
6.98209e-14
6.98208e-14
6.98209e-14
6.98208e-14
6.98213e-14
6.98209e-14
6.98215e-14
6.9821e-14
6.98209e-14
6.98213e-14
6.98208e-14
6.98207e-14
6.98211e-14
6.98209e-14
6.98211e-14
6.98208e-14
6.98209e-14
6.9821e-14
6.98208e-14
6.98207e-14
6.98207e-14
6.98211e-14
6.98212e-14
6.98212e-14
6.98209e-14
6.98211e-14
6.9821e-14
6.98209e-14
6.9821e-14
6.9821e-14
6.98211e-14
6.98209e-14
6.9821e-14
6.9821e-14
6.98214e-14
6.98209e-14
6.98208e-14
6.98208e-14
6.98209e-14
6.98209e-14
6.98212e-14
6.9821e-14
6.98211e-14
6.98209e-14
6.9821e-14
6.98213e-14
6.98209e-14
6.98214e-14
6.9821e-14
6.98208e-14
6.98211e-14
6.98211e-14
6.98208e-14
6.98209e-14
6.98208e-14
6.98207e-14
6.98205e-14
1.07958e-13
1.07957e-13
1.07957e-13
1.07958e-13
1.07958e-13
1.07959e-13
1.07959e-13
1.07958e-13
1.07958e-13
1.07958e-13
1.07958e-13
1.07958e-13
1.07958e-13
1.07958e-13
1.07958e-13
1.07958e-13
1.07958e-13
1.07958e-13
1.07958e-13
1.07958e-13
1.07958e-13
1.07958e-13
1.07959e-13
1.07958e-13
1.07958e-13
1.07957e-13
1.07958e-13
1.07958e-13
1.07958e-13
1.07958e-13
1.07958e-13
1.07958e-13
1.07958e-13
1.07958e-13
1.07958e-13
1.07958e-13
1.07958e-13
1.07957e-13
1.07959e-13
1.07958e-13
1.07958e-13
1.07958e-13
1.07958e-13
1.07958e-13
1.07958e-13
1.07958e-13
1.07959e-13
1.07958e-13
1.07958e-13
1.07958e-13
1.07958e-13
1.07958e-13
1.07958e-13
1.07958e-13
1.07957e-13
1.07958e-13
1.07958e-13
1.07957e-13
1.07958e-13
1.07958e-13
1.34224e-13
1.34224e-13
1.34227e-13
1.34225e-13
1.34226e-13
1.34226e-13
1.34225e-13
1.34226e-13
1.34227e-13
1.34226e-13
1.34226e-13
1.34226e-13
1.34225e-13
1.34226e-13
1.34226e-13
1.34227e-13
1.34225e-13
1.34226e-13
1.34225e-13
1.34226e-13
1.34226e-13
1.34225e-13
1.34225e-13
1.34226e-13
1.34225e-13
1.34227e-13
1.34226e-13
1.34226e-13
1.34226e-13
1.34225e-13
1.34225e-13
1.34227e-13
1.34226e-13
1.34226e-13
1.34226e-13
1.34227e-13
1.34226e-13
1.34227e-13
1.34225e-13
1.34226e-13
1.34225e-13
1.34226e-13
1.34228e-13
1.34226e-13
1.34226e-13
1.34226e-13
1.34226e-13
1.34226e-13
1.34228e-13
1.34226e-13
1.34226e-13
1.34226e-13
1.34226e-13
1.34226e-13
1.34226e-13
1.34226e-13
1.34227e-13
1.34226e-13
1.34226e-13
1.34225e-13
7.47251e-14
7.47261e-14
7.47229e-14
7.47246e-14
7.47231e-14
7.4722e-14
7.47245e-14
7.47239e-14
7.47248e-14
7.47265e-14
7.47243e-14
7.47235e-14
7.47256e-14
7.47241e-14
7.47247e-14
7.47247e-14
7.47225e-14
7.47232e-14
7.4726e-14
7.47235e-14
7.47232e-14
7.47233e-14
7.47222e-14
7.47257e-14
7.47249e-14
7.47237e-14
7.47264e-14
7.47248e-14
7.47236e-14
7.47241e-14
7.47252e-14
7.47245e-14
7.47243e-14
7.47227e-14
7.47221e-14
7.47236e-14
7.4725e-14
7.47227e-14
7.47249e-14
7.4725e-14
7.47269e-14
7.47248e-14
7.47199e-14
7.47253e-14
7.47247e-14
7.47244e-14
7.47251e-14
7.47248e-14
7.4723e-14
7.47254e-14
7.47232e-14
7.47244e-14
7.4723e-14
7.47232e-14
7.4726e-14
7.47254e-14
7.47215e-14
7.47227e-14
7.47227e-14
7.47241e-14
-1.6923e-13
-1.69225e-13
-1.69224e-13
-1.69221e-13
-1.69221e-13
-1.69221e-13
-1.69222e-13
-1.69222e-13
-1.69224e-13
-1.69227e-13
-1.69228e-13
-1.69221e-13
-1.69226e-13
-1.69217e-13
-1.69219e-13
-1.69226e-13
-1.69218e-13
-1.69221e-13
-1.69222e-13
-1.69225e-13
-1.69224e-13
-1.69216e-13
-1.69221e-13
-1.69226e-13
-1.69224e-13
-1.69224e-13
-1.69227e-13
-1.69227e-13
-1.69223e-13
-1.69223e-13
-1.69221e-13
-1.69224e-13
-1.69223e-13
-1.69223e-13
-1.69216e-13
-1.69223e-13
-1.69223e-13
-1.69223e-13
-1.69222e-13
-1.69226e-13
-1.69226e-13
-1.69225e-13
-1.69218e-13
-1.69228e-13
-1.69224e-13
-1.6922e-13
-1.69225e-13
-1.69223e-13
-1.69224e-13
-1.6922e-13
-1.69221e-13
-1.69223e-13
-1.69223e-13
-1.69221e-13
-1.69225e-13
-1.69223e-13
-1.69223e-13
-1.69218e-13
-1.69221e-13
-1.69221e-13
-4.99335e-13
-4.99345e-13
-4.99347e-13
-4.99354e-13
-4.9935e-13
-4.99346e-13
-4.99351e-13
-4.99352e-13
-4.99353e-13
-4.99346e-13
-4.99342e-13
-4.99356e-13
-4.99345e-13
-4.99356e-13
-4.9936e-13
-4.99349e-13
-4.99353e-13
-4.99358e-13
-4.99352e-13
-4.99347e-13
-4.99349e-13
-4.99364e-13
-4.9935e-13
-4.99346e-13
-4.99345e-13
-4.9935e-13
-4.99354e-13
-4.99345e-13
-4.99347e-13
-4.99345e-13
-4.99353e-13
-4.99352e-13
-4.99351e-13
-4.99344e-13
-4.99358e-13
-4.99357e-13
-4.99347e-13
-4.9935e-13
-4.99351e-13
-4.99347e-13
-4.99355e-13
-4.99342e-13
-4.99354e-13
-4.99343e-13
-4.99351e-13
-4.99358e-13
-4.99343e-13
-4.99341e-13
-4.99353e-13
-4.99355e-13
-4.99347e-13
-4.99349e-13
-4.99348e-13
-4.99357e-13
-4.99348e-13
-4.99346e-13
-4.99347e-13
-4.99355e-13
-4.99347e-13
-4.99354e-13
-3.98651e-13
-3.98651e-13
-3.98635e-13
-3.98643e-13
-3.98645e-13
-3.98655e-13
-3.98658e-13
-3.98641e-13
-3.9864e-13
-3.98653e-13
-3.98646e-13
-3.98645e-13
-3.98653e-13
-3.9865e-13
-3.9864e-13
-3.98639e-13
-3.98654e-13
-3.98637e-13
-3.98638e-13
-3.98648e-13
-3.98654e-13
-3.98638e-13
-3.9865e-13
-3.98644e-13
-3.98652e-13
-3.98651e-13
-3.98635e-13
-3.98644e-13
-3.98654e-13
-3.98649e-13
-3.98646e-13
-3.98639e-13
-3.98645e-13
-3.98647e-13
-3.98642e-13
-3.98642e-13
-3.98648e-13
-3.98654e-13
-3.98652e-13
-3.98657e-13
-3.9863e-13
-3.98663e-13
-3.98653e-13
-3.98653e-13
-3.98655e-13
-3.98649e-13
-3.98657e-13
-3.98663e-13
-3.98645e-13
-3.98644e-13
-3.98659e-13
-3.9866e-13
-3.9865e-13
-3.98648e-13
-3.98641e-13
-3.9865e-13
-3.98646e-13
-3.98638e-13
-3.98646e-13
-3.98639e-13
4.70796e-13
4.70802e-13
4.70773e-13
4.70806e-13
4.70786e-13
4.70799e-13
4.70794e-13
4.708e-13
4.70798e-13
4.70794e-13
4.7079e-13
4.70785e-13
4.70784e-13
4.70814e-13
4.70786e-13
4.70779e-13
4.70798e-13
4.70797e-13
4.70805e-13
4.70793e-13
4.70804e-13
4.70801e-13
4.70795e-13
4.70789e-13
4.70806e-13
4.70824e-13
4.70777e-13
4.70795e-13
4.70807e-13
4.70798e-13
4.70812e-13
4.70801e-13
4.70808e-13
4.70791e-13
4.708e-13
4.70803e-13
4.70799e-13
4.70801e-13
4.70813e-13
4.70821e-13
4.70804e-13
4.70811e-13
4.708e-13
4.70785e-13
4.70794e-13
4.70813e-13
4.70807e-13
4.70798e-13
4.7079e-13
4.70801e-13
4.70809e-13
4.70798e-13
4.70803e-13
4.70825e-13
4.70773e-13
4.70798e-13
4.70799e-13
4.70798e-13
4.70801e-13
4.70804e-13
1.2106e-12
1.2106e-12
1.21063e-12
1.21061e-12
1.2106e-12
1.21063e-12
1.21062e-12
1.21059e-12
1.21059e-12
1.21061e-12
1.2106e-12
1.21063e-12
1.2106e-12
1.2106e-12
1.21062e-12
1.21065e-12
1.21061e-12
1.21059e-12
1.21057e-12
1.21063e-12
1.21061e-12
1.2106e-12
1.21062e-12
1.2106e-12
1.2106e-12
1.21059e-12
1.21063e-12
1.21062e-12
1.21057e-12
1.21059e-12
1.21057e-12
1.21058e-12
1.21061e-12
1.2106e-12
1.2106e-12
1.21062e-12
1.21062e-12
1.21061e-12
1.21059e-12
1.21062e-12
1.21059e-12
1.21061e-12
1.21062e-12
1.21064e-12
1.21063e-12
1.21059e-12
1.21061e-12
1.2106e-12
1.2106e-12
1.21061e-12
1.21061e-12
1.21061e-12
1.21063e-12
1.21056e-12
1.21063e-12
1.21061e-12
1.21059e-12
1.2106e-12
1.21062e-12
1.21059e-12
6.90313e-13
6.90274e-13
6.90252e-13
6.90279e-13
6.90324e-13
6.90243e-13
6.90305e-13
6.90325e-13
6.90299e-13
6.90273e-13
6.90334e-13
6.90303e-13
6.90289e-13
6.90279e-13
6.90259e-13
6.90217e-13
6.90263e-13
6.90279e-13
6.90277e-13
6.90294e-13
6.90282e-13
6.90286e-13
6.90272e-13
6.90289e-13
6.90277e-13
6.90293e-13
6.90236e-13
6.903e-13
6.90329e-13
6.90297e-13
6.90293e-13
6.90296e-13
6.90242e-13
6.903e-13
6.90284e-13
6.90279e-13
6.90249e-13
6.90266e-13
6.90281e-13
6.90312e-13
6.90284e-13
6.9027e-13
6.90273e-13
6.90231e-13
6.90273e-13
6.90303e-13
6.90299e-13
6.90323e-13
6.90334e-13
6.90291e-13
6.90292e-13
6.90301e-13
6.90242e-13
6.90322e-13
6.90247e-13
6.90298e-13
6.90305e-13
6.90292e-13
6.90275e-13
6.90295e-13
-3.95024e-13
-3.94932e-13
-3.94937e-13
-3.94954e-13
-3.94962e-13
-3.94974e-13
-3.94999e-13
-3.94994e-13
-3.94983e-13
-3.94965e-13
-3.95023e-13
-3.95013e-13
-3.95006e-13
-3.94925e-13
-3.94915e-13
-3.94884e-13
-3.9495e-13
-3.94964e-13
-3.94941e-13
-3.95008e-13
-3.94961e-13
-3.95025e-13
-3.94938e-13
-3.95005e-13
-3.94961e-13
-3.94993e-13
-3.94897e-13
-3.95025e-13
-3.95035e-13
-3.94969e-13
-3.94959e-13
-3.94906e-13
-3.94955e-13
-3.95022e-13
-3.94947e-13
-3.9499e-13
-3.94971e-13
-3.94975e-13
-3.9499e-13
-3.95034e-13
-3.94945e-13
-3.94968e-13
-3.94976e-13
-3.94949e-13
-3.94946e-13
-3.94972e-13
-3.94979e-13
-3.95003e-13
-3.95026e-13
-3.95015e-13
-3.94997e-13
-3.94932e-13
-3.94949e-13
-3.95004e-13
-3.94941e-13
-3.94982e-13
-3.94968e-13
-3.94983e-13
-3.9499e-13
-3.94979e-13
-7.12862e-13
-7.12895e-13
-7.12814e-13
-7.12807e-13
-7.12861e-13
-7.12835e-13
-7.12806e-13
-7.1275e-13
-7.12739e-13
-7.12892e-13
-7.12847e-13
-7.12816e-13
-7.1274e-13
-7.12814e-13
-7.12852e-13
-7.12977e-13
-7.12826e-13
-7.1287e-13
-7.12916e-13
-7.12878e-13
-7.12878e-13
-7.12847e-13
-7.1284e-13
-7.12804e-13
-7.1282e-13
-7.12786e-13
-7.12923e-13
-7.12725e-13
-7.12806e-13
-7.12865e-13
-7.12802e-13
-7.12905e-13
-7.12846e-13
-7.12823e-13
-7.12816e-13
-7.12825e-13
-7.12893e-13
-7.12744e-13
-7.12889e-13
-7.1281e-13
-7.12841e-13
-7.12819e-13
-7.12893e-13
-7.1292e-13
-7.1288e-13
-7.12768e-13
-7.12776e-13
-7.12797e-13
-7.12801e-13
-7.12858e-13
-7.12817e-13
-7.12932e-13
-7.12909e-13
-7.12757e-13
-7.12794e-13
-7.12861e-13
-7.12795e-13
-7.12788e-13
-7.12858e-13
-7.12836e-13
-3.67341e-13
-3.67383e-13
-3.67445e-13
-3.67384e-13
-3.67283e-13
-3.67361e-13
-3.67367e-13
-3.67505e-13
-3.67473e-13
-3.67236e-13
-3.67372e-13
-3.67426e-13
-3.67287e-13
-3.67437e-13
-3.67285e-13
-3.67281e-13
-3.67401e-13
-3.67341e-13
-3.67266e-13
-3.6729e-13
-3.67295e-13
-3.67452e-13
-3.67412e-13
-3.6745e-13
-3.67441e-13
-3.6736e-13
-3.67336e-13
-3.6742e-13
-3.67367e-13
-3.67414e-13
-3.67464e-13
-3.67449e-13
-3.67238e-13
-3.67279e-13
-3.67481e-13
-3.67315e-13
-3.67208e-13
-3.67388e-13
-3.67199e-13
-3.67456e-13
-3.67446e-13
-3.67337e-13
-3.67268e-13
-3.6725e-13
-3.67238e-13
-3.67396e-13
-3.67464e-13
-3.67364e-13
-3.67307e-13
-3.67292e-13
-3.6743e-13
-3.67271e-13
-3.67234e-13
-3.67348e-13
-3.67575e-13
-3.67363e-13
-3.6728e-13
-3.67406e-13
-3.6738e-13
-3.67484e-13
-8.44906e-14
-8.44488e-14
-8.4487e-14
-8.4605e-14
-8.47327e-14
-8.46365e-14
-8.43843e-14
-8.44529e-14
-8.46955e-14
-8.46678e-14
-8.44737e-14
-8.45725e-14
-8.46632e-14
-8.46138e-14
-8.48236e-14
-8.46656e-14
-8.45222e-14
-8.48053e-14
-8.47189e-14
-8.45195e-14
-8.46852e-14
-8.45012e-14
-8.46558e-14
-8.44839e-14
-8.45096e-14
-8.45128e-14
-8.4571e-14
-8.46723e-14
-8.46335e-14
-8.45296e-14
-8.43307e-14
-8.45526e-14
-8.46018e-14
-8.4817e-14
-8.44015e-14
-8.47068e-14
-8.46681e-14
-8.4662e-14
-8.47986e-14
-8.44452e-14
-8.44503e-14
-8.47677e-14
-8.46851e-14
-8.467e-14
-8.47572e-14
-8.46653e-14
-8.44464e-14
-8.46275e-14
-8.47425e-14
-8.45603e-14
-8.45756e-14
-8.44691e-14
-8.47241e-14
-8.47118e-14
-8.44857e-14
-8.45461e-14
-8.47312e-14
-8.46897e-14
-8.43623e-14
-8.43878e-14
-3.62969e-14
-3.62858e-14
-3.63824e-14
-3.62079e-14
-3.61747e-14
-3.6087e-14
-3.65501e-14
-3.62895e-14
-3.59977e-14
-3.62527e-14
-3.64257e-14
-3.61187e-14
-3.62234e-14
-3.60369e-14
-3.61501e-14
-3.61016e-14
-3.63987e-14
-3.60061e-14
-3.6047e-14
-3.6483e-14
-3.62651e-14
-3.61923e-14
-3.60519e-14
-3.60438e-14
-3.60515e-14
-3.61296e-14
-3.61393e-14
-3.60066e-14
-3.60525e-14
-3.61558e-14
-3.63777e-14
-3.60966e-14
-3.64605e-14
-3.61464e-14
-3.62359e-14
-3.61851e-14
-3.60822e-14
-3.61251e-14
-3.62439e-14
-3.61703e-14
-3.63853e-14
-3.59721e-14
-3.6221e-14
-3.62712e-14
-3.61744e-14
-3.62902e-14
-3.62149e-14
-3.60952e-14
-3.62178e-14
-3.6124e-14
-3.61297e-14
-3.63855e-14
-3.62068e-14
-3.63493e-14
-3.62979e-14
-3.64233e-14
-3.6136e-14
-3.59643e-14
-3.65187e-14
-3.63275e-14
-6.00217e-14
-6.01535e-14
-5.99172e-14
-6.02266e-14
-6.00166e-14
-6.01553e-14
-6.01512e-14
-6.02192e-14
-6.01587e-14
-6.01296e-14
-6.00242e-14
-6.00957e-14
-6.00726e-14
-6.0338e-14
-6.00623e-14
-6.01058e-14
-5.97831e-14
-6.01538e-14
-5.99561e-14
-5.9814e-14
-5.99392e-14
-5.99308e-14
-6.03093e-14
-6.02268e-14
-6.03274e-14
-6.01826e-14
-6.01246e-14
-6.04893e-14
-6.03193e-14
-6.02458e-14
-6.01761e-14
-6.03566e-14
-5.99822e-14
-5.99206e-14
-6.00017e-14
-6.02878e-14
-6.04591e-14
-5.99965e-14
-5.98285e-14
-6.02577e-14
-5.99916e-14
-6.01249e-14
-5.9922e-14
-5.99922e-14
-6.01116e-14
-6.00029e-14
-5.98833e-14
-6.01679e-14
-5.99639e-14
-6.03891e-14
-6.00054e-14
-6.00673e-14
-5.99275e-14
-5.97123e-14
-6.00304e-14
-5.97873e-14
-6.01521e-14
-6.01742e-14
-5.99625e-14
-6.01372e-14
-6.28022e-14
-6.30614e-14
-6.28245e-14
-6.28531e-14
-6.30063e-14
-6.30545e-14
-6.28323e-14
-6.28316e-14
-6.29218e-14
-6.28808e-14
-6.26314e-14
-6.29541e-14
-6.31294e-14
-6.30025e-14
-6.29657e-14
-6.3048e-14
-6.29193e-14
-6.28133e-14
-6.331e-14
-6.3168e-14
-6.29298e-14
-6.324e-14
-6.28417e-14
-6.3105e-14
-6.26909e-14
-6.28154e-14
-6.29168e-14
-6.25901e-14
-6.28931e-14
-6.28878e-14
-6.26701e-14
-6.30012e-14
-6.2866e-14
-6.31405e-14
-6.28458e-14
-6.28334e-14
-6.23458e-14
-6.29265e-14
-6.32475e-14
-6.25883e-14
-6.28479e-14
-6.29625e-14
-6.31016e-14
-6.27619e-14
-6.29168e-14
-6.29345e-14
-6.33393e-14
-6.28481e-14
-6.29559e-14
-6.28272e-14
-6.32262e-14
-6.30633e-14
-6.31437e-14
-6.34786e-14
-6.28888e-14
-6.30704e-14
-6.31171e-14
-6.32073e-14
-6.29527e-14
-6.29295e-14
-4.54127e-14
-4.5279e-14
-4.56323e-14
-4.54401e-14
-4.52876e-14
-4.54758e-14
-4.51278e-14
-4.52645e-14
-4.58248e-14
-4.55739e-14
-4.55523e-14
-4.55988e-14
-4.50916e-14
-4.55556e-14
-4.54302e-14
-4.52229e-14
-4.56848e-14
-4.56644e-14
-4.54246e-14
-4.53172e-14
-4.56228e-14
-4.52418e-14
-4.55525e-14
-4.54095e-14
-4.56825e-14
-4.51716e-14
-4.55922e-14
-4.54252e-14
-4.5425e-14
-4.55824e-14
-4.54714e-14
-4.49778e-14
-4.57469e-14
-4.54181e-14
-4.55373e-14
-4.55393e-14
-4.56292e-14
-4.54783e-14
-4.51445e-14
-4.55619e-14
-4.55514e-14
-4.5453e-14
-4.52243e-14
-4.56784e-14
-4.56657e-14
-4.55834e-14
-4.51875e-14
-4.56059e-14
-4.6005e-14
-4.54078e-14
-4.53048e-14
-4.52418e-14
-4.53388e-14
-4.53843e-14
-4.53384e-14
-4.54682e-14
-4.51351e-14
-4.50405e-14
-4.56351e-14
-4.54018e-14
-2.58223e-14
-2.60516e-14
-2.56974e-14
-2.54718e-14
-2.62496e-14
-2.54294e-14
-2.58936e-14
-2.59592e-14
-2.5407e-14
-2.54405e-14
-2.57883e-14
-2.56199e-14
-2.61371e-14
-2.55474e-14
-2.57895e-14
-2.61587e-14
-2.57836e-14
-2.54597e-14
-2.56477e-14
-2.56513e-14
-2.56567e-14
-2.59004e-14
-2.57197e-14
-2.56513e-14
-2.53785e-14
-2.58619e-14
-2.55296e-14
-2.59073e-14
-2.57227e-14
-2.54421e-14
-2.60312e-14
-2.62795e-14
-2.55442e-14
-2.5869e-14
-2.56356e-14
-2.57864e-14
-2.59697e-14
-2.60905e-14
-2.57463e-14
-2.5873e-14
-2.58136e-14
-2.55317e-14
-2.59159e-14
-2.55315e-14
-2.54712e-14
-2.56129e-14
-2.56133e-14
-2.55906e-14
-2.55096e-14
-2.56522e-14
-2.55226e-14
-2.60328e-14
-2.59128e-14
-2.54912e-14
-2.58112e-14
-2.55815e-14
-2.5782e-14
-2.61252e-14
-2.54266e-14
-2.57701e-14
-1.21757e-14
-1.17994e-14
-1.19149e-14
-1.22558e-14
-1.19164e-14
-1.20858e-14
-1.21856e-14
-1.22801e-14
-1.22882e-14
-1.19212e-14
-1.1956e-14
-1.20679e-14
-1.18931e-14
-1.18084e-14
-1.19295e-14
-1.20328e-14
-1.17064e-14
-1.22236e-14
-1.22314e-14
-1.24471e-14
-1.2222e-14
-1.15432e-14
-1.20365e-14
-1.19781e-14
-1.22344e-14
-1.21317e-14
-1.21405e-14
-1.1979e-14
-1.20487e-14
-1.22832e-14
-1.18003e-14
-1.18028e-14
-1.1795e-14
-1.21052e-14
-1.21498e-14
-1.19542e-14
-1.18568e-14
-1.15037e-14
-1.21264e-14
-1.2225e-14
-1.1942e-14
-1.23732e-14
-1.22622e-14
-1.23837e-14
-1.21508e-14
-1.23387e-14
-1.19226e-14
-1.20913e-14
-1.17164e-14
-1.23971e-14
-1.20958e-14
-1.15571e-14
-1.18571e-14
-1.2235e-14
-1.20714e-14
-1.20834e-14
-1.23713e-14
-1.20523e-14
-1.22053e-14
-1.23924e-14
-4.36062e-15
-4.42736e-15
-4.70647e-15
-4.33678e-15
-4.35185e-15
-4.45219e-15
-4.39305e-15
-4.29675e-15
-4.2534e-15
-4.40722e-15
-4.42303e-15
-4.90156e-15
-4.10711e-15
-4.98627e-15
-4.35392e-15
-4.2962e-15
-4.77956e-15
-4.41779e-15
-4.23974e-15
-4.09359e-15
-4.16421e-15
-4.74945e-15
-4.33752e-15
-5.21691e-15
-4.4061e-15
-4.4717e-15
-4.31891e-15
-4.79438e-15
-4.40648e-15
-4.4289e-15
-4.07806e-15
-4.5495e-15
-4.93883e-15
-4.60108e-15
-4.25611e-15
-4.55631e-15
-4.50566e-15
-4.85266e-15
-4.36481e-15
-4.06834e-15
-4.90271e-15
-4.61032e-15
-4.24888e-15
-3.89919e-15
-4.47903e-15
-4.43725e-15
-4.53413e-15
-4.34558e-15
-4.6139e-15
-4.14387e-15
-4.80849e-15
-5.27735e-15
-4.67017e-15
-4.34018e-15
-4.72358e-15
-4.42556e-15
-4.28013e-15
-4.2021e-15
-4.61653e-15
-4.2226e-15
-6.12685e-16
-6.33231e-16
-2.79473e-16
-8.77415e-16
-8.58719e-16
-7.83542e-16
-5.89473e-16
-4.46467e-16
-9.47013e-16
-1.06351e-15
-1.21021e-15
1.62808e-17
-7.13128e-16
-5.93312e-16
-9.24517e-16
-1.01026e-15
-5.17067e-16
-6.8074e-16
-6.23864e-16
-1.11536e-15
-8.95934e-16
-5.59785e-16
-5.65133e-16
4.53854e-16
-4.88678e-16
-4.02227e-16
-1.24116e-15
1.48381e-16
-4.10209e-16
-7.0839e-16
-1.07629e-15
-9.15414e-16
-5.19645e-16
-2.02495e-16
-6.72371e-16
-4.76595e-16
-7.70355e-16
-1.50001e-16
-5.30429e-16
-1.29032e-15
-7.5756e-16
-4.71773e-16
-6.8124e-16
-1.0486e-15
-5.46571e-16
-5.83173e-16
-6.99345e-16
-1.23872e-15
-9.2042e-16
-5.17827e-16
-5.13221e-16
-2.35019e-16
-8.73059e-16
-8.36599e-16
-3.31677e-16
-8.15467e-16
-4.82592e-16
-5.58745e-16
-3.59442e-16
-4.47966e-16
3.89129e-16
6.23532e-16
9.96183e-16
1.1691e-15
1.24183e-15
1.07964e-15
7.90317e-16
4.95882e-16
1.08857e-15
9.50212e-16
1.55421e-15
7.69724e-16
9.15972e-16
9.97238e-16
1.26558e-15
9.70024e-16
8.37234e-16
1.10471e-15
8.25239e-16
1.34597e-15
1.09979e-15
6.43231e-16
7.18346e-16
3.32321e-17
4.65312e-16
5.95528e-16
1.28376e-15
5.79301e-16
4.77814e-16
7.8711e-16
9.2691e-16
1.22326e-15
9.89088e-16
4.77982e-16
8.56846e-16
1.04446e-15
3.92662e-16
6.1275e-16
9.20715e-16
1.38579e-15
1.40692e-15
1.16971e-15
1.1931e-15
1.23859e-15
6.88016e-16
1.53308e-15
1.23958e-15
1.45324e-15
4.36359e-16
8.01816e-16
7.13026e-16
1.18033e-15
1.1265e-15
1.05148e-15
9.23668e-16
1.45974e-15
4.87065e-16
7.31129e-16
1.18912e-15
2.27409e-16
2.61179e-15
1.98476e-15
1.35394e-15
1.6247e-15
1.05505e-15
1.44034e-15
1.89882e-15
2.27098e-15
1.53982e-15
1.8295e-15
1.26786e-15
1.59256e-15
1.01172e-15
1.44882e-15
1.11379e-15
1.73153e-15
1.59252e-15
1.1787e-15
1.5056e-15
1.36742e-15
1.3353e-15
1.52583e-15
1.3922e-15
2.0068e-15
2.26818e-15
1.61793e-15
1.51926e-15
1.37513e-15
1.27337e-15
1.78731e-15
1.87363e-15
1.78057e-15
1.31769e-15
1.45961e-15
1.65375e-15
1.26756e-15
1.7709e-15
1.8356e-15
1.56931e-15
1.52822e-15
1.04903e-15
6.68155e-16
1.00612e-15
8.95698e-16
1.43936e-15
7.1831e-16
1.05412e-15
1.22578e-15
2.18812e-15
1.10973e-15
1.56947e-15
9.23208e-16
1.76723e-15
1.78618e-15
1.4381e-15
9.44117e-16
1.75172e-15
1.66046e-15
1.11243e-15
2.29476e-15
6.78712e-16
1.67214e-15
1.43066e-15
1.29695e-15
1.81626e-15
1.69643e-15
1.0227e-15
1.18188e-15
1.47039e-15
1.63522e-15
1.32671e-15
1.95896e-15
2.13695e-15
1.73528e-15
1.71721e-15
1.83865e-15
1.57526e-15
1.98231e-15
1.85872e-15
1.46972e-15
1.40935e-15
2.10772e-15
2.06178e-15
1.09797e-15
6.07497e-16
1.5047e-15
1.74056e-15
1.86719e-15
2.48639e-15
1.40851e-15
1.76041e-15
9.89408e-16
1.82711e-15
1.67859e-15
1.3878e-15
1.20204e-15
2.2487e-15
1.34689e-15
1.57035e-15
1.24826e-15
1.77797e-15
2.49047e-15
1.79112e-15
1.86628e-15
1.70624e-15
2.00266e-15
1.97266e-15
1.93545e-15
1.0472e-15
2.30341e-15
1.74701e-15
1.8991e-15
1.353e-15
1.69988e-15
1.8167e-15
1.63554e-15
1.77688e-15
1.5958e-15
2.12371e-15
1.19089e-15
2.28864e-15
1.20222e-15
1.71715e-15
1.94676e-15
1.90615e-15
1.19902e-15
1.86277e-15
1.94351e-15
1.60589e-15
1.56909e-15
2.31759e-15
1.46949e-15
2.15811e-15
2.11379e-15
1.92392e-15
1.06623e-15
1.62223e-15
1.36379e-15
1.31182e-15
1.95245e-15
1.59199e-15
1.39378e-15
1.24766e-15
2.11702e-15
2.42474e-15
2.13456e-15
1.1867e-15
1.23786e-15
8.45599e-16
1.75095e-15
1.30982e-15
2.02821e-15
1.54219e-15
1.25677e-15
2.02543e-15
2.33238e-15
1.23022e-15
1.95593e-15
1.62254e-15
2.04876e-15
1.40364e-15
6.77079e-16
1.31939e-15
2.08176e-15
1.45817e-15
1.65424e-15
1.76382e-15
1.31859e-15
2.34776e-15
7.66269e-16
1.57754e-15
1.88954e-15
1.74137e-15
1.55087e-15
1.34593e-15
1.76829e-15
1.24732e-15
1.74306e-15
1.17102e-15
1.50632e-15
9.7784e-16
1.16472e-15
1.8233e-15
1.67117e-15
1.09552e-15
2.10838e-15
1.3785e-15
9.63815e-16
1.55848e-15
1.92765e-15
9.76623e-16
1.30432e-15
5.03934e-16
7.10796e-16
1.13645e-15
2.10953e-15
1.91419e-15
1.41994e-15
1.9306e-15
1.38016e-15
1.7337e-15
1.66178e-15
1.68404e-15
1.07527e-15
1.41778e-15
8.42611e-16
1.44952e-15
1.39692e-15
1.82239e-15
1.77529e-15
1.47502e-15
1.44925e-15
1.60511e-15
1.95944e-15
5.45213e-16
7.72431e-16
1.68745e-15
1.14868e-15
1.99161e-15
1.0325e-15
1.31487e-15
2.10997e-15
2.01435e-15
9.19397e-16
1.8753e-15
1.52238e-15
1.27439e-15
1.8566e-15
1.10266e-15
2.24668e-15
1.31279e-15
1.14598e-15
1.25141e-15
1.07245e-15
1.63137e-15
1.69771e-15
1.42188e-15
1.30958e-15
1.93692e-15
1.47713e-15
9.85549e-16
1.9763e-15
1.19177e-15
1.39088e-15
1.52938e-15
1.44497e-15
1.74316e-15
1.75637e-15
1.366e-15
9.7412e-16
1.64099e-15
1.86963e-15
1.62062e-15
1.13619e-15
1.06453e-15
1.50738e-15
1.25671e-15
2.01927e-15
1.03982e-15
1.2716e-15
1.00691e-15
1.30248e-15
1.51028e-15
1.30085e-15
1.01021e-15
1.64925e-15
1.83993e-15
1.71456e-15
1.24337e-15
1.04961e-15
1.13231e-15
1.30007e-15
1.14664e-15
1.35082e-15
2.15829e-15
1.898e-15
1.0413e-15
1.80164e-15
6.41836e-16
1.58732e-15
1.96608e-15
9.13929e-16
5.00024e-16
1.55096e-15
8.43417e-16
6.43367e-16
1.58247e-15
5.90198e-16
1.2273e-15
5.52599e-16
1.04306e-15
1.4886e-15
1.37695e-15
1.5885e-15
1.38921e-15
7.26497e-16
1.31308e-15
1.34264e-15
1.28466e-15
1.48274e-15
1.81339e-15
4.78046e-16
9.03542e-16
7.49532e-16
1.22324e-15
3.69368e-16
8.64608e-16
1.18007e-15
1.26121e-15
1.09368e-15
1.1153e-15
3.6526e-16
1.66181e-15
1.74383e-15
1.81341e-15
5.61568e-16
7.07726e-16
9.14326e-17
1.15474e-15
1.1591e-15
1.01959e-15
7.84218e-16
1.15702e-15
8.63979e-16
1.4749e-15
1.21656e-15
9.3711e-16
1.17109e-15
1.32841e-15
1.35626e-15
1.29846e-15
8.70297e-16
8.43979e-16
1.00245e-15
1.14042e-15
6.59989e-16
1.33494e-15
6.42299e-16
1.62168e-15
1.0329e-15
6.76498e-16
1.29481e-15
1.4905e-15
7.3399e-16
1.7401e-15
1.77944e-15
9.80839e-16
1.76146e-15
7.45993e-16
1.47305e-15
1.48664e-15
8.6289e-16
1.17333e-15
1.27487e-15
1.16018e-15
1.86638e-15
1.06524e-15
8.6734e-16
1.0374e-15
1.12476e-15
1.01389e-15
1.78826e-15
1.09243e-15
1.63077e-15
1.28562e-15
1.89752e-15
1.02278e-15
8.40922e-16
1.59993e-15
1.4409e-15
9.30955e-16
1.74032e-15
2.64809e-16
7.15325e-16
4.68889e-16
1.20327e-15
1.44593e-15
1.67667e-15
9.68692e-16
1.20445e-15
1.25903e-15
1.42913e-15
8.41628e-16
1.733e-15
4.48101e-16
4.82224e-16
9.86823e-16
4.39588e-16
1.23289e-15
8.29009e-16
1.45779e-15