/*--------------------------------*- C++ -*----------------------------------*\
| =========                 |                                                 |
| \\      /  F ield         | foam-extend: Open Source CFD                    |
|  \\    /   O peration     | Version:     4.0                                |
|   \\  /    A nd           | Web:         http://www.foam-extend.org         |
|    \\/     M anipulation  |                                                 |
\*---------------------------------------------------------------------------*/
FoamFile
{
    version     2.0;
    format      ascii;
    class       surfaceScalarField;
    location    "21";
    object      phi;
}
// * * * * * * * * * * * * * * * * * * * * * * * * * * * * * * * * * * * * * //

dimensions      [0 3 -1 0 0 0 0];

internalField   nonuniform List<scalar> 
13744
(
-6.72855e-09
6.72824e-09
4.04732e-09
-1.07759e-08
3.78017e-10
3.6693e-09
1.96375e-10
1.81642e-10
1.07635e-10
8.87386e-11
6.1575e-11
4.60603e-11
3.45679e-11
2.70062e-11
1.8064e-11
1.65031e-11
7.46943e-12
1.05957e-11
4.24147e-13
7.0472e-12
-4.40579e-12
4.8303e-12
-7.7745e-12
3.36986e-12
-1.01311e-11
2.3575e-12
-1.17522e-11
1.62104e-12
-1.28099e-11
1.05976e-12
-1.34214e-11
6.10956e-13
-1.3667e-11
2.47635e-13
-1.36038e-11
-6.32827e-14
-1.32767e-11
-3.29237e-13
-1.27224e-11
-5.53779e-13
-1.19694e-11
-7.52676e-13
-1.10449e-11
-9.22484e-13
-9.97306e-12
-1.07481e-12
-8.77422e-12
-1.19643e-12
-7.46924e-12
-1.3064e-12
-6.07805e-12
-1.39061e-12
-4.61761e-12
-1.46072e-12
-3.10618e-12
-1.5114e-12
-1.56186e-12
-1.54377e-12
-1.0553e-15
-1.56258e-12
1.56385e-12
-1.56475e-12
3.10384e-12
-1.53877e-12
4.61726e-12
-1.51373e-12
6.07992e-12
-1.46222e-12
7.46682e-12
-1.38706e-12
8.7739e-12
-1.30523e-12
9.97491e-12
-1.20226e-12
1.10425e-11
-1.0672e-12
1.19692e-11
-9.27536e-13
1.27244e-11
-7.54286e-13
1.32745e-11
-5.50282e-13
1.36039e-11
-3.32567e-13
1.36695e-11
-6.41154e-14
1.34197e-11
2.48301e-13
1.28103e-11
6.09901e-13
1.17548e-11
1.05721e-12
1.01295e-11
1.62448e-12
7.77512e-12
2.35273e-12
4.40863e-12
3.36642e-12
-4.25549e-13
4.83535e-12
-7.46855e-12
7.04475e-12
-1.80608e-11
1.05926e-11
-3.45689e-11
1.65088e-11
-6.15739e-11
2.70048e-11
-1.07632e-10
4.60597e-11
-1.96376e-10
8.87435e-11
-3.78016e-10
1.81641e-10
-4.04732e-09
3.6693e-09
6.72855e-09
-1.07759e-08
6.72855e-09
3.57632e-08
-2.9035e-08
6.29918e-09
1.86882e-08
1.14282e-09
8.82566e-09
5.97919e-10
7.26545e-10
3.28556e-10
3.58104e-10
1.88533e-10
1.86081e-10
1.06098e-10
1.09444e-10
5.57775e-11
6.68261e-11
2.33665e-11
4.3001e-11
1.84484e-12
2.85652e-11
-1.29457e-11
1.9619e-11
-2.32492e-11
1.36717e-11
-3.04766e-11
9.58333e-12
-3.54397e-11
6.58312e-12
-3.86941e-11
4.31044e-12
-4.05804e-11
2.49728e-12
-4.13494e-11
1.01069e-12
-4.11783e-11
-2.31093e-13
-4.02046e-11
-1.30063e-12
-3.85333e-11
-2.22544e-12
-3.62619e-11
-3.02391e-12
-3.34677e-11
-3.71964e-12
-3.02213e-11
-4.31516e-12
-2.65923e-11
-4.82936e-12
-2.26405e-11
-5.25546e-12
-1.84221e-11
-5.60951e-12
-1.39974e-11
-5.88424e-12
-9.41753e-12
-6.09207e-12
-4.7328e-12
-6.22996e-12
1.3027e-16
-6.29036e-12
4.72729e-12
-6.2923e-12
9.42287e-12
-6.23557e-12
1.39963e-11
-6.08508e-12
1.84152e-11
-5.88207e-12
2.26458e-11
-5.61706e-12
2.65913e-11
-5.25452e-12
3.02143e-11
-4.82264e-12
3.3473e-11
-4.32748e-12
3.62614e-11
-3.71531e-12
3.85269e-11
-3.02408e-12
4.02105e-11
-2.23332e-12
4.11787e-11
-1.29263e-12
4.13443e-11
-2.32037e-13
4.05878e-11
1.00631e-12
3.86953e-11
2.50189e-12
3.5435e-11
4.31438e-12
3.04843e-11
6.57968e-12
2.32511e-11
9.58827e-12
1.29418e-11
1.36758e-11
-1.8365e-12
1.96099e-11
-2.33639e-11
2.85669e-11
-5.57803e-11
4.30083e-11
-1.06089e-10
6.68137e-11
-1.8853e-10
1.09446e-10
-3.28559e-10
1.86084e-10
-5.97909e-10
3.58093e-10
-1.14282e-09
7.26546e-10
-6.29919e-09
8.82567e-09
-3.57632e-08
1.86882e-08
-2.90347e-08
2.52037e-08
-5.42387e-08
1.07375e-08
3.31544e-08
1.90657e-09
1.76566e-08
1.00779e-09
1.62532e-09
5.56216e-10
8.09672e-10
3.20273e-10
4.22029e-10
1.80906e-10
2.48805e-10
9.57552e-11
1.51974e-10
4.07905e-11
9.7972e-11
4.28725e-12
6.50686e-11
-2.08412e-11
4.47531e-11
-3.83428e-11
3.11717e-11
-5.06387e-11
2.18805e-11
-5.90895e-11
1.50367e-11
-6.46464e-11
9.86969e-12
-6.78822e-11
5.73716e-12
-6.92314e-11
2.36694e-12
-6.89865e-11
-4.81087e-13
-6.73859e-11
-2.89843e-12
-6.46084e-11
-5.00333e-12
-6.08157e-11
-6.81841e-12
-5.61404e-11
-8.39431e-12
-5.07047e-11
-9.75253e-12
-4.46212e-11
-1.0914e-11
-3.79933e-11
-1.18851e-11
-3.09182e-11
-1.26834e-11
-2.34928e-11
-1.33119e-11
-1.5806e-11
-1.37774e-11
-7.94517e-12
-1.40893e-11
-1.2305e-15
-1.42403e-11
7.94207e-12
-1.42379e-11
1.58079e-11
-1.41028e-11
2.34911e-11
-1.37718e-11
3.09137e-11
-1.33027e-11
3.7995e-11
-1.26988e-11
4.46195e-11
-1.18777e-11
5.07001e-11
-1.09034e-11
5.61423e-11
-9.7676e-12
6.08149e-11
-8.3871e-12
6.46047e-11
-6.81025e-12
6.73887e-11
-5.01924e-12
6.89871e-11
-2.89699e-12
6.92301e-11
-4.76452e-13
6.78875e-11
2.35156e-12
6.46486e-11
5.74099e-12
5.90888e-11
9.87568e-12
5.06446e-11
1.50166e-11
3.8346e-11
2.18866e-11
2.08417e-11
3.11796e-11
-4.28031e-12
4.4734e-11
-4.0786e-11
6.50763e-11
-9.57529e-11
9.7975e-11
-1.80897e-10
1.51963e-10
-3.20267e-10
2.48817e-10
-5.56213e-10
4.22034e-10
-1.00778e-09
8.09661e-10
-1.90656e-09
1.62533e-09
-1.07375e-08
1.76566e-08
-2.52037e-08
3.31544e-08
-5.42384e-08
8.86567e-09
-6.31044e-08
1.04195e-08
3.16007e-08
2.65159e-09
2.54244e-08
1.41914e-09
2.85778e-09
7.87589e-10
1.44122e-09
4.55336e-10
7.54278e-10
2.58374e-10
4.45773e-10
1.3782e-10
2.72531e-10
5.98392e-11
1.7595e-10
8.00555e-12
1.16906e-10
-2.77243e-11
8.0478e-11
-5.26216e-11
5.60725e-11
-7.01365e-11
3.93957e-11
-8.21906e-11
2.70906e-11
-9.01407e-11
1.78169e-11
-9.4798e-11
1.03889e-11
-9.6786e-11
4.35195e-12
-9.65152e-11
-7.51097e-13
-9.43281e-11
-5.08938e-12
-9.04789e-11
-8.84917e-12
-8.5195e-11
-1.20995e-11
-7.86648e-11
-1.49278e-11
-7.10636e-11
-1.73549e-11
-6.25467e-11
-1.9428e-11
-5.32624e-11
-2.11691e-11
-4.33489e-11
-2.25986e-11
-3.294e-11
-2.37189e-11
-2.21627e-11
-2.45549e-11
-1.11421e-11
-2.51103e-11
-1.99815e-15
-2.53785e-11
1.1141e-11
-2.53753e-11
2.21608e-11
-2.51226e-11
3.29376e-11
-2.45451e-11
4.33469e-11
-2.37134e-11
5.32603e-11
-2.26144e-11
6.25444e-11
-2.11592e-11
7.10615e-11
-1.94255e-11
7.86631e-11
-1.73739e-11
8.51938e-11
-1.4918e-11
9.04782e-11
-1.20909e-11
9.43276e-11
-8.86672e-12
9.6516e-11
-5.08525e-12
9.67884e-11
-7.4727e-13
9.4801e-11
4.33829e-12
9.01437e-11
1.03997e-11
8.2194e-11
1.78245e-11
7.01403e-11
2.70753e-11
5.2626e-11
3.94005e-11
2.77293e-11
5.60759e-11
-8.00021e-12
8.04654e-11
-5.98329e-11
1.1691e-10
-1.37812e-10
1.75957e-10
-2.58366e-10
2.72512e-10
-4.55328e-10
4.45777e-10
-7.8758e-10
7.54285e-10
-1.41913e-09
1.44121e-09
-2.65159e-09
2.85779e-09
-1.04194e-08
2.54244e-08
-8.86567e-09
3.16007e-08
-6.31041e-08
8.22807e-09
-7.13325e-08
9.00911e-09
3.08196e-08
3.37632e-09
3.10572e-08
1.8283e-09
4.4058e-09
1.021e-09
2.24852e-09
5.92982e-10
1.1823e-09
3.38209e-10
7.00544e-10
1.81925e-10
4.28813e-10
8.06019e-11
2.77276e-10
1.31728e-11
1.84331e-10
-3.33685e-11
1.27024e-10
-6.58253e-11
8.85288e-11
-8.86885e-11
6.22583e-11
-1.04448e-10
4.28481e-11
-1.14876e-10
2.8248e-11
-1.21027e-10
1.65423e-11
-1.23715e-10
7.04208e-12
-1.23475e-10
-9.86804e-13
-1.20755e-10
-7.80643e-12
-1.15883e-10
-1.37287e-11
-1.09156e-10
-1.88308e-11
-1.00818e-10
-2.32591e-11
-9.10973e-11
-2.70737e-11
-8.01938e-11
-3.03318e-11
-6.82997e-11
-3.30635e-11
-5.55934e-11
-3.53034e-11
-4.22478e-11
-3.70621e-11
-2.84268e-11
-3.83766e-11
-1.42919e-11
-3.92454e-11
-1.9444e-15
-3.9664e-11
1.42899e-11
-3.96722e-11
2.84244e-11
-3.92578e-11
4.22447e-11
-3.83667e-11
5.55906e-11
-3.7058e-11
6.82972e-11
-3.53161e-11
8.01909e-11
-3.30594e-11
9.10944e-11
-3.03229e-11
1.00816e-10
-2.70904e-11
1.09154e-10
-2.32562e-11
1.15881e-10
-1.88257e-11
1.20754e-10
-1.37448e-11
1.23476e-10
-7.80589e-12
1.23718e-10
-9.8838e-13
1.21031e-10
7.02503e-12
1.1488e-10
1.65477e-11
1.04452e-10
2.82529e-11
8.86936e-11
4.2832e-11
6.58311e-11
6.22638e-11
3.33748e-11
8.85359e-11
-1.31657e-11
1.27005e-10
-8.05938e-11
1.84337e-10
-1.81915e-10
2.77275e-10
-3.38198e-10
4.28795e-10
-5.92971e-10
7.00553e-10
-1.02099e-09
1.18231e-09
-1.82829e-09
2.24851e-09
-3.37631e-09
4.40581e-09
-9.0091e-09
3.10572e-08
-8.22807e-09
3.08196e-08
-7.13321e-08
1.1935e-08
-8.32675e-08
9.23643e-09
3.35182e-08
4.07795e-09
3.62157e-08
2.23245e-09
6.25131e-09
1.25506e-09
3.22591e-09
7.32594e-10
1.70477e-09
4.20178e-10
1.01296e-09
2.28039e-10
6.20951e-10
1.03164e-10
4.0215e-10
1.99436e-11
2.67555e-10
-3.75778e-11
1.8454e-10
-7.77307e-11
1.28681e-10
-1.06054e-10
9.0581e-11
-1.25612e-10
6.24074e-11
-1.38598e-10
4.12359e-11
-1.46314e-10
2.42538e-11
-1.49769e-10
1.04943e-11
-1.49624e-10
-1.1343e-12
-1.46432e-10
-1.1e-11
-1.406e-10
-1.95545e-11
-1.32494e-10
-2.69295e-11
-1.22414e-10
-3.3342e-11
-1.10639e-10
-3.88522e-11
-9.74163e-11
-4.35517e-11
-8.29809e-11
-4.74949e-11
-6.75514e-11
-5.07315e-11
-5.13399e-11
-5.3276e-11
-3.45468e-11
-5.51697e-11
-1.73693e-11
-5.64241e-11
-2.01877e-15
-5.70373e-11
1.7366e-11
-5.70374e-11
3.45446e-11
-5.64336e-11
5.13361e-11
-5.51592e-11
6.75473e-11
-5.32692e-11
8.29787e-11
-5.07532e-11
9.74127e-11
-4.74887e-11
1.10635e-10
-4.35457e-11
1.22412e-10
-3.88673e-11
1.32493e-10
-3.33381e-11
1.40598e-10
-2.69264e-11
1.46433e-10
-1.9573e-11
1.49625e-10
-1.09999e-11
1.49772e-10
-1.13753e-12
1.46319e-10
1.04726e-11
1.38603e-10
2.42632e-11
1.25616e-10
4.12417e-11
1.06061e-10
6.23882e-11
7.77377e-11
9.05868e-11
3.75847e-11
1.28685e-10
-1.99341e-11
1.84522e-10
-1.03155e-10
2.6756e-10
-2.28028e-10
4.02151e-10
-4.20164e-10
6.20932e-10
-7.32581e-10
1.01297e-09
-1.25505e-09
1.70477e-09
-2.23243e-09
3.22589e-09
-4.07794e-09
6.25132e-09
-9.23642e-09
3.62157e-08
-1.1935e-08
3.35182e-08
-8.32671e-08
1.31914e-08
-9.64588e-08
1.02138e-08
3.64958e-08
4.74848e-09
4.1681e-08
2.62883e-09
8.37095e-09
1.48836e-09
4.36638e-09
8.73551e-10
2.31958e-09
5.04044e-10
1.38247e-09
2.76131e-10
8.48861e-10
1.27608e-10
5.50669e-10
2.84677e-11
3.66693e-10
-4.01603e-11
2.53169e-10
-8.81191e-11
1.76643e-10
-1.21998e-10
1.24463e-10
-1.45437e-10
8.58447e-11
-1.61058e-10
5.6857e-11
-1.7041e-10
3.36119e-11
-1.74703e-10
1.47891e-11
-1.74724e-10
-1.11011e-12
-1.71134e-10
-1.4592e-11
-1.64418e-10
-2.62744e-11
-1.55011e-10
-3.63433e-11
-1.43269e-10
-4.50803e-11
-1.29525e-10
-5.25971e-11
-1.14071e-10
-5.901e-11
-9.71849e-11
-6.43861e-11
-7.9125e-11
-6.87927e-11
-6.0142e-11
-7.2262e-11
-4.04725e-11
-7.48382e-11
-2.03495e-11
-7.65425e-11
-2.32074e-15
-7.73842e-11
2.03455e-11
-7.7382e-11
4.04698e-11
-7.65612e-11
6.01375e-11
-7.48221e-11
7.91201e-11
-7.22527e-11
9.71822e-11
-6.88106e-11
1.14067e-10
-6.43756e-11
1.2952e-10
-5.90019e-11
1.43268e-10
-5.26154e-11
1.55009e-10
-4.50765e-11
1.64415e-10
-3.63364e-11
1.71134e-10
-2.62947e-11
1.74726e-10
-1.45886e-11
1.74707e-10
-1.11576e-12
1.70417e-10
1.47665e-11
1.61064e-10
3.36179e-11
1.45442e-10
5.68598e-11
1.22006e-10
8.58241e-11
8.81273e-11
1.24465e-10
4.01684e-11
1.76643e-10
-2.84566e-11
2.53147e-10
-1.27597e-10
3.66696e-10
-2.76118e-10
5.50675e-10
-5.04028e-10
8.48842e-10
-8.73536e-10
1.38248e-09
-1.48835e-09
2.31959e-09
-2.62882e-09
4.36636e-09
-4.74846e-09
8.37096e-09
-1.02138e-08
4.1681e-08
-1.31914e-08
3.64958e-08
-9.64585e-08
1.2986e-08
-1.09445e-07
1.09836e-08
3.84982e-08
5.37972e-09
4.72848e-08
3.01451e-09
1.07362e-08
1.7195e-09
5.66139e-09
1.01523e-09
3.02385e-09
5.89567e-10
1.80812e-09
3.26164e-10
1.11227e-09
1.5401e-10
7.22831e-10
3.88884e-11
4.81816e-10
-4.09317e-11
3.32992e-10
-9.67804e-11
2.32486e-10
-1.36295e-10
1.63973e-10
-1.6369e-10
1.1324e-10
-1.82017e-10
7.51804e-11
-1.93078e-10
4.46697e-11
-1.98284e-10
1.99953e-11
-1.98548e-10
-8.5041e-13
-1.94642e-10
-1.84955e-11
-1.87129e-10
-3.37852e-11
-1.76514e-10
-4.69566e-11
-1.6321e-10
-5.83862e-11
-1.476e-10
-6.82013e-11
-1.30021e-10
-7.65891e-11
-1.10796e-10
-8.36095e-11
-9.022e-11
-8.9369e-11
-6.85828e-11
-9.38964e-11
-4.61563e-11
-9.7266e-11
-2.32084e-11
-9.94958e-11
-2.64998e-15
-1.00587e-10
2.3204e-11
-1.00595e-10
4.61528e-11
-9.9511e-11
6.85776e-11
-9.72473e-11
9.02147e-11
-9.38899e-11
1.10792e-10
-8.93897e-11
1.30017e-10
-8.3597e-11
1.47595e-10
-7.65786e-11
1.63207e-10
-6.82347e-11
1.76512e-10
-5.83816e-11
1.87126e-10
-4.69486e-11
1.94642e-10
-3.3811e-11
1.9855e-10
-1.85015e-11
1.98287e-10
-8.52905e-13
1.93086e-10
1.99667e-11
1.82023e-10
4.46816e-11
1.63696e-10
7.51894e-11
1.36303e-10
1.13217e-10
9.67898e-11
1.63978e-10
4.09413e-11
2.32494e-10
-3.8876e-11
3.32964e-10
-1.53997e-10
4.81821e-10
-3.26149e-10
7.22822e-10
-5.89549e-10
1.11224e-09
-1.01521e-09
1.80814e-09
-1.71948e-09
3.02386e-09
-3.01449e-09
5.66137e-09
-5.37971e-09
1.07362e-08
-1.09836e-08
4.72849e-08
-1.2986e-08
3.84983e-08
-1.09445e-07
1.28285e-08
-1.22273e-07
1.14766e-08
3.98502e-08
5.9654e-09
5.27961e-08
3.38642e-09
1.33151e-08
1.94707e-09
7.10073e-09
1.157e-09
3.81393e-09
6.76503e-10
2.28862e-09
3.78093e-10
1.41068e-09
1.82439e-10
9.1848e-10
5.13401e-11
6.1292e-10
-3.97174e-11
4.24048e-10
-1.03515e-10
2.9629e-10
-1.48729e-10
2.09189e-10
-1.80146e-10
1.44662e-10
-2.01248e-10
9.6284e-11
-2.14091e-10
5.75151e-11
-2.20286e-10
2.61934e-11
-2.20879e-10
-2.57069e-13
-2.1675e-10
-2.26297e-11
-2.08539e-10
-4.19971e-11
-1.96823e-10
-5.86695e-11
-1.8207e-10
-7.31393e-11
-1.64714e-10
-8.55601e-11
-1.45137e-10
-9.61633e-11
-1.23703e-10
-1.05044e-10
-1.00747e-10
-1.12327e-10
-7.65948e-11
-1.18047e-10
-5.15527e-11
-1.22307e-10
-2.59232e-11
-1.25122e-10
-2.94873e-15
-1.26507e-10
2.59182e-11
-1.26515e-10
5.15485e-11
-1.25136e-10
7.65889e-11
-1.22295e-10
1.00742e-10
-1.18042e-10
1.23699e-10
-1.12347e-10
1.45132e-10
-1.0503e-10
1.64708e-10
-9.61552e-11
1.82067e-10
-8.55851e-11
1.96821e-10
-7.31385e-11
2.08537e-10
-5.86618e-11
2.1675e-10
-4.20243e-11
2.20881e-10
-2.26257e-11
2.20291e-10
-2.66637e-13
2.14099e-10
2.61602e-11
2.01255e-10
5.7522e-11
1.80153e-10
9.6291e-11
1.48738e-10
1.44631e-10
1.03526e-10
2.09193e-10
3.97284e-11
2.96296e-10
-5.13264e-11
4.24019e-10
-1.82424e-10
6.1291e-10
-3.78076e-10
9.18475e-10
-6.76483e-10
1.41066e-09
-1.15698e-09
2.28863e-09
-1.94706e-09
3.81394e-09
-3.3864e-09
7.10072e-09
-5.96538e-09
1.33152e-08
-1.14766e-08
5.27961e-08
-1.28285e-08
3.98502e-08
-1.22273e-07
1.28492e-08
-1.35123e-07
1.18485e-08
4.08509e-08
6.50013e-09
5.81444e-08
3.74158e-09
1.60737e-08
2.16971e-09
8.67261e-09
1.29822e-09
4.68541e-09
7.646e-10
2.82224e-09
4.31868e-10
1.74341e-09
2.12953e-10
1.13739e-09
6.59461e-11
7.59919e-10
-3.63552e-11
5.2635e-10
-1.08137e-10
3.68068e-10
-1.59099e-10
2.60151e-10
-1.94596e-10
1.80156e-10
-2.18538e-10
1.20228e-10
-2.33236e-10
7.22156e-11
-2.40503e-10
3.34543e-11
-2.41515e-10
7.57183e-13
-2.37263e-10
-2.68744e-11
-2.28465e-10
-5.07955e-11
-2.15768e-10
-7.13665e-11
-1.99694e-10
-8.92145e-11
-1.80728e-10
-1.04529e-10
-1.59297e-10
-1.17598e-10
-1.35805e-10
-1.28537e-10
-1.10624e-10
-1.37505e-10
-8.41148e-11
-1.44558e-10
-5.66194e-11
-1.49802e-10
-2.84726e-11
-1.53269e-10
-3.22911e-15
-1.54978e-10
2.84671e-11
-1.54983e-10
5.66146e-11
-1.53283e-10
8.41083e-11
-1.49779e-10
1.10617e-10
-1.44551e-10
1.358e-10
-1.37533e-10
1.59292e-10
-1.28522e-10
1.80723e-10
-1.17588e-10
1.99691e-10
-1.04559e-10
2.15765e-10
-8.92101e-11
2.28463e-10
-7.13596e-11
2.37263e-10
-5.08247e-11
2.41518e-10
-2.68821e-11
2.40508e-10
7.45706e-13
2.33244e-10
3.34272e-11
2.18546e-10
7.22229e-11
1.94603e-10
1.20233e-10
1.5911e-10
1.80125e-10
1.08149e-10
2.60153e-10
3.63674e-11
3.68072e-10
-6.59311e-11
5.26319e-10
-2.12937e-10
7.59922e-10
-4.31849e-10
1.13739e-09
-7.64578e-10
1.74338e-09
-1.2982e-09
2.82225e-09
-2.16968e-09
4.68542e-09
-3.74155e-09
8.67259e-09
-6.50011e-09
1.60737e-08
-1.18485e-08
5.81445e-08
-1.28492e-08
4.08509e-08
-1.35122e-07
1.27972e-08
-1.4792e-07
1.21381e-08
4.151e-08
6.97876e-09
6.33038e-08
4.07715e-09
1.89753e-08
2.38604e-09
1.03637e-08
1.43829e-09
5.63315e-09
8.53604e-10
3.40693e-09
4.87426e-10
2.10958e-09
2.456e-10
1.37922e-09
8.28148e-11
9.22714e-10
-3.06994e-11
6.39862e-10
-1.10478e-10
4.47843e-10
-1.67225e-10
3.16894e-10
-2.0685e-10
2.19779e-10
-2.33695e-10
1.47071e-10
-2.50321e-10
8.88335e-11
-2.58746e-10
4.18899e-11
-2.60274e-10
2.28553e-12
-2.56008e-10
-3.11447e-11
-2.46743e-10
-6.00591e-11
-2.33196e-10
-8.49189e-11
-2.15942e-10
-1.06466e-10
-1.95519e-10
-1.24951e-10
-1.72392e-10
-1.40722e-10
-1.47008e-10
-1.5392e-10
-1.19774e-10
-1.64738e-10
-9.10859e-11
-1.7325e-10
-6.13181e-11
-1.79571e-10
-3.08374e-11
-1.83753e-10
-3.49201e-15
-1.85812e-10
3.08313e-11
-1.85823e-10
6.13127e-11
-1.83768e-10
9.10787e-11
-1.79551e-10
1.19767e-10
-1.73241e-10
1.47002e-10
-1.64765e-10
1.72386e-10
-1.53903e-10
1.95512e-10
-1.40715e-10
2.15939e-10
-1.24985e-10
2.33193e-10
-1.06465e-10
2.46741e-10
-8.4915e-11
2.56008e-10
-6.00914e-11
2.60276e-10
-3.11573e-11
2.58751e-10
2.26655e-12
2.5033e-10
4.1843e-11
2.33704e-10
8.8851e-11
2.06859e-10
1.47075e-10
1.67236e-10
2.1975e-10
1.10491e-10
3.16901e-10
3.07127e-11
4.47847e-10
-8.27985e-11
6.39828e-10
-2.45582e-10
9.22707e-10
-4.87406e-10
1.37921e-09
-8.5358e-10
2.10955e-09
-1.43827e-09
3.40695e-09
-2.38602e-09
5.63317e-09
-4.07712e-09
1.03637e-08
-6.97874e-09
1.89753e-08
-1.21381e-08
6.33038e-08
-1.27972e-08
4.151e-08
-1.4792e-07
1.25889e-08
-1.60509e-07
1.23203e-08
4.17786e-08
7.39672e-09
6.82274e-08
4.39051e-09
2.19815e-08
2.59481e-09
1.21594e-08
1.5766e-09
6.65137e-09
9.43264e-10
4.04026e-09
5.44699e-10
2.50815e-09
2.80409e-10
1.64351e-09
1.02034e-10
1.10108e-09
-2.2628e-11
7.64524e-10
-1.10396e-10
5.3562e-10
-1.7295e-10
3.79454e-10
-2.16749e-10
2.6358e-10
-2.46556e-10
1.76883e-10
-2.65183e-10
1.07462e-10
-2.74853e-10
5.15482e-11
-2.77e-10
4.42948e-12
-2.72835e-10
-3.53108e-11
-2.63233e-10
-6.96631e-11
-2.48977e-10
-9.917e-11
-2.30697e-10
-1.24747e-10
-2.08978e-10
-1.4667e-10
-1.8433e-10
-1.65368e-10
-1.57233e-10
-1.81018e-10
-1.28134e-10
-1.9384e-10
-9.746e-11
-2.03921e-10
-6.56166e-11
-2.11415e-10
-3.30015e-11
-2.16365e-10
-3.76368e-15
-2.18808e-10
3.29948e-11
-2.18816e-10
6.56106e-11
-2.16383e-10
9.74522e-11
-2.11391e-10
1.28126e-10
-2.0391e-10
1.57228e-10
-1.93864e-10
1.84323e-10
-1.81001e-10
2.08972e-10
-1.65363e-10
2.30694e-10
-1.46705e-10
2.48974e-10
-1.24748e-10
2.6323e-10
-9.91687e-11
2.72835e-10
-6.96944e-11
2.77003e-10
-3.53163e-11
2.74859e-10
4.41321e-12
2.65193e-10
5.15168e-11
2.46565e-10
1.07483e-10
2.16759e-10
1.76887e-10
1.72963e-10
2.6354e-10
1.1041e-10
3.79452e-10
2.26425e-11
5.35623e-10
-1.02017e-10
7.64495e-10
-2.8039e-10
1.10107e-09
-5.44677e-10
1.6435e-09
-9.43239e-10
2.50812e-09
-1.57657e-09
4.04028e-09
-2.59478e-09
6.65138e-09
-4.39049e-09
1.21594e-08
-7.39669e-09
2.19815e-08
-1.23202e-08
6.82274e-08
-1.25889e-08
4.17786e-08
-1.60508e-07
1.22484e-08
-1.72757e-07
1.23802e-08
4.16468e-08
7.75045e-09
7.28571e-08
4.67938e-09
2.50526e-08
2.79486e-09
1.40439e-08
1.71258e-09
7.73364e-09
1.03334e-09
4.71951e-09
6.03607e-10
2.93788e-09
3.17393e-10
1.92972e-09
1.23666e-10
1.29481e-09
-1.20506e-11
9.00236e-10
-1.07783e-10
6.31347e-10
-1.7616e-10
4.47831e-10
-2.2417e-10
3.11592e-10
-2.56996e-10
2.09701e-10
-2.777e-10
1.28173e-10
-2.88705e-10
6.2558e-11
-2.91576e-10
7.30054e-12
-2.87634e-10
-3.92473e-11
-2.7783e-10
-7.94763e-11
-2.63014e-10
-1.13988e-10
-2.43869e-10
-1.43889e-10
-2.21028e-10
-1.69512e-10
-1.9504e-10
-1.91355e-10
-1.66423e-10
-2.09634e-10
-1.35657e-10
-2.24609e-10
-1.03201e-10
-2.36375e-10
-6.94908e-11
-2.45121e-10
-3.49526e-11
-2.50901e-10
-4.01662e-15
-2.5376e-10
3.49454e-11
-2.53769e-10
6.94841e-11
-2.50921e-10
1.03193e-10
-2.45099e-10
1.35649e-10
-2.36371e-10
1.66417e-10
-2.24631e-10
1.95032e-10
-2.09619e-10
2.21022e-10
-1.91347e-10
2.43866e-10
-1.69551e-10
2.63011e-10
-1.4389e-10
2.77827e-10
-1.1398e-10
2.87634e-10
-7.95034e-11
2.91579e-10
-3.92597e-11
2.88711e-10
7.28297e-12
2.77709e-10
6.25194e-11
2.57005e-10
1.2818e-10
2.2418e-10
2.09713e-10
1.76173e-10
3.11554e-10
1.07798e-10
4.47829e-10
1.20661e-11
6.31348e-10
-1.23647e-10
9.00204e-10
-3.17373e-10
1.2948e-09
-6.03584e-10
1.92971e-09
-1.03331e-09
2.93785e-09
-1.71256e-09
4.71953e-09
-2.79483e-09
7.73365e-09
-4.67935e-09
1.40439e-08
-7.75043e-09
2.50526e-08
-1.23802e-08
7.28571e-08
-1.22483e-08
4.16468e-08
-1.72757e-07
1.18019e-08
-1.84559e-07
1.23213e-08
4.11274e-08
8.03781e-09
7.71406e-08
4.94188e-09
2.81485e-08
2.98522e-09
1.60006e-08
1.84576e-09
8.87311e-09
1.12361e-09
5.44166e-09
6.64064e-10
3.39743e-09
3.56539e-10
2.23725e-09
1.47737e-10
1.50362e-09
1.08302e-12
1.04689e-09
-1.02578e-10
7.35005e-10
-1.76783e-10
5.2203e-10
-2.2904e-10
3.63849e-10
-2.64942e-10
2.45607e-10
-2.87798e-10
1.51018e-10
-3.00231e-10
7.49988e-11
-3.03936e-10
1.10051e-11
-3.00341e-10
-4.2843e-11
-2.90473e-10
-8.93324e-11
-2.75252e-10
-1.29211e-10
-2.55409e-10
-1.63741e-10
-2.31624e-10
-1.93295e-10
-2.04484e-10
-2.18497e-10
-1.74544e-10
-2.39574e-10
-1.42316e-10
-2.56838e-10
-1.08289e-10
-2.70402e-10
-7.2927e-11
-2.80488e-10
-3.66841e-11
-2.87147e-10
-4.26636e-15
-2.90434e-10
3.66763e-11
-2.90449e-10
7.29198e-11
-2.87165e-10
1.0828e-10
-2.80459e-10
1.42308e-10
-2.70392e-10
1.74538e-10
-2.56865e-10
2.04476e-10
-2.39552e-10
2.31617e-10
-2.18491e-10
2.55405e-10
-1.93332e-10
2.75248e-10
-1.63732e-10
2.90471e-10
-1.292e-10
3.00341e-10
-8.93753e-11
3.03939e-10
-4.28616e-11
3.00238e-10
1.09828e-11
2.87808e-10
7.49453e-11
2.64953e-10
1.51035e-10
2.29051e-10
2.45606e-10
1.76797e-10
3.63803e-10
1.02593e-10
5.22029e-10
-1.06653e-12
7.35013e-10
-1.47717e-10
1.04685e-09
-3.56517e-10
1.50361e-09
-6.64039e-10
2.23723e-09
-1.12358e-09
3.39738e-09
-1.84573e-09
5.44168e-09
-2.9852e-09
8.87312e-09
-4.94185e-09
1.60006e-08
-8.03779e-09
2.81486e-08
-1.23213e-08
7.71406e-08
-1.18019e-08
4.11275e-08
-1.84559e-07
1.12663e-08
-1.95825e-07
1.21544e-08
4.02393e-08
8.25829e-09
8.10366e-08
5.17675e-09
3.12301e-08
3.16517e-09
1.80122e-08
1.97573e-09
1.00626e-08
1.21387e-09
6.20352e-09
7.25977e-10
3.88532e-09
3.97808e-10
2.56541e-09
1.74235e-10
1.72718e-09
1.67735e-11
1.20436e-09
-9.47723e-11
8.46552e-10
-1.74813e-10
6.02078e-10
-2.31352e-10
4.20386e-10
-2.70387e-10
2.84642e-10
-2.9547e-10
1.76109e-10
-3.09426e-10
8.89424e-11
-3.14073e-10
1.56539e-11
-3.10951e-10
-4.59699e-11
-3.01161e-10
-9.91248e-11
-2.85687e-10
-1.44686e-10
-2.65313e-10
-1.84106e-10
-2.40763e-10
-2.17846e-10
-2.1266e-10
-2.46605e-10
-1.81596e-10
-2.70637e-10
-1.4811e-10
-2.90317e-10
-1.12724e-10
-3.05788e-10
-7.59251e-11
-3.17282e-10
-3.81957e-11
-3.24875e-10
-4.51274e-15
-3.28633e-10
3.81874e-11
-3.28638e-10
7.59172e-11
-3.24895e-10
1.12714e-10
-3.17259e-10
1.48102e-10
-3.0578e-10
1.81589e-10
-2.90355e-10
2.12652e-10
-2.70614e-10
2.40756e-10
-2.4659e-10
2.65309e-10
-2.17894e-10
2.85684e-10
-1.84108e-10
3.01158e-10
-1.44686e-10
3.10951e-10
-9.91719e-11
3.14076e-10
-4.59865e-11
3.09432e-10
1.5621e-11
2.95481e-10
8.88978e-11
2.70398e-10
1.76121e-10
2.31363e-10
2.8465e-10
1.74827e-10
4.20345e-10
9.47882e-11
6.02072e-10
-1.67561e-11
8.46554e-10
-1.74215e-10
1.20431e-09
-3.97785e-10
1.72717e-09
-7.25951e-10
2.5654e-09
-1.21384e-09
3.88527e-09
-1.9757e-09
6.20354e-09
-3.16515e-09
1.00626e-08
-5.17672e-09
1.80121e-08
-8.25826e-09
3.12301e-08
-1.21543e-08
8.10367e-08
-1.12663e-08
4.02394e-08
-1.95825e-07
1.06642e-08
-2.06489e-07
1.18923e-08
3.90111e-08
8.41325e-09
8.45157e-08
5.38342e-09
3.42599e-08
3.33429e-09
2.00613e-08
2.10223e-09
1.12946e-08
1.30398e-09
7.00177e-09
7.8925e-10
4.40006e-09
4.41132e-10
2.91354e-09
2.03103e-10
1.96522e-09
3.49654e-11
1.37249e-09
-8.44245e-11
9.65946e-10
-1.70307e-10
6.87953e-10
-2.31166e-10
4.81247e-10
-2.73395e-10
3.26874e-10
-3.00783e-10
2.0349e-10
-3.16353e-10
1.04524e-10
-3.22053e-10
2.13478e-11
-3.19527e-10
-4.84933e-11
-3.09952e-10
-1.08702e-10
-2.94377e-10
-1.60258e-10
-2.73635e-10
-2.04847e-10
-2.48493e-10
-2.42989e-10
-2.19611e-10
-2.75478e-10
-1.87613e-10
-3.02635e-10
-1.53069e-10
-3.24863e-10
-1.16526e-10
-3.42335e-10
-7.84999e-11
-3.55314e-10
-3.9495e-11
-3.63881e-10
-4.72825e-15
-3.6812e-10
3.94862e-11
-3.68128e-10
7.84914e-11
-3.639e-10
1.16517e-10
-3.55283e-10
1.5306e-10
-3.42324e-10
1.87606e-10
-3.24898e-10
2.19603e-10
-3.02611e-10
2.48486e-10
-2.75479e-10
2.73631e-10
-2.4303e-10
2.94374e-10
-2.04857e-10
3.0995e-10
-1.60257e-10
3.19527e-10
-1.08741e-10
3.22056e-10
-4.85165e-11
3.16361e-10
2.13246e-11
3.00794e-10
1.04464e-10
2.73406e-10
2.03509e-10
2.31178e-10
3.26873e-10
1.70322e-10
4.81201e-10
8.4441e-11
6.87951e-10
-3.49472e-11
9.65942e-10
-2.03081e-10
1.37245e-09
-4.41108e-10
1.9652e-09
-7.89223e-10
2.91351e-09
-1.30396e-09
4.40001e-09
-2.1022e-09
7.00178e-09
-3.33426e-09
1.12946e-08
-5.3834e-09
2.00613e-08
-8.41323e-09
3.42599e-08
-1.18923e-08
8.45158e-08
-1.06642e-08
3.90112e-08
-2.06489e-07
1.00244e-08
-2.16514e-07
1.15483e-08
3.74872e-08
8.50607e-09
8.7558e-08
5.56214e-09
3.72038e-08
3.49248e-09
2.2131e-08
2.22512e-09
1.2562e-08
1.39384e-09
7.83304e-09
8.53786e-10
4.94011e-09
4.86414e-10
3.28091e-09
2.34236e-10
2.2174e-09
5.55453e-11
1.55118e-09
-7.16575e-11
1.09314e-09
-1.63399e-10
7.79695e-10
-2.28623e-10
5.46476e-10
-2.74108e-10
3.72358e-10
-3.03881e-10
2.33271e-10
-3.21159e-10
1.21793e-10
-3.28017e-10
2.82159e-11
-3.26206e-10
-5.03028e-11
-3.16978e-10
-1.17927e-10
-3.01444e-10
-1.75793e-10
-2.80487e-10
-2.25808e-10
-2.54915e-10
-2.68554e-10
-2.25425e-10
-3.04972e-10
-1.92672e-10
-3.35389e-10
-1.57254e-10
-3.60282e-10
-1.19744e-10
-3.79843e-10
-8.06825e-11
-3.94367e-10
-4.05976e-11
-4.03968e-10
-4.95044e-15
-4.08715e-10
4.05883e-11
-4.08732e-10
8.06735e-11
-4.03984e-10
1.19734e-10
-3.94346e-10
1.57244e-10
-3.79838e-10
1.92664e-10
-3.60312e-10
2.25416e-10
-3.35369e-10
2.54908e-10
-3.04965e-10
2.80482e-10
-2.68608e-10
3.01441e-10
-2.25809e-10
3.16975e-10
-1.75784e-10
3.26206e-10
-1.17974e-10
3.2802e-10
-5.03346e-11
3.21166e-10
2.81741e-11
3.03892e-10
1.21742e-10
2.7412e-10
2.33282e-10
2.28635e-10
3.72359e-10
1.63414e-10
5.46416e-10
7.16747e-11
7.79687e-10
-5.55264e-11
1.09314e-09
-2.34214e-10
1.55113e-09
-4.8639e-10
2.21738e-09
-8.53759e-10
3.28088e-09
-1.39381e-09
4.94006e-09
-2.22509e-09
7.83307e-09
-3.49245e-09
1.2562e-08
-5.56211e-09
2.21309e-08
-8.50604e-09
3.72039e-08
-1.15483e-08
8.7558e-08
-1.00244e-08
3.74873e-08
-2.16513e-07
9.36483e-09
-2.25879e-07
1.11315e-08
3.57205e-08
8.54193e-09
9.01476e-08
5.71393e-09
4.00318e-08
3.64e-09
2.42049e-08
2.34443e-09
1.38575e-08
1.4834e-09
8.69407e-09
9.19501e-10
5.50401e-09
5.3354e-10
3.66687e-09
2.67492e-10
2.48344e-09
7.83481e-11
1.74032e-09
-5.66548e-11
1.22815e-09
-1.54286e-10
8.77337e-10
-2.23928e-10
6.16114e-10
-2.7274e-10
4.21171e-10
-3.04979e-10
2.65506e-10
-3.24057e-10
1.40875e-10
-3.32175e-10
3.63226e-11
-3.31191e-10
-5.12878e-11
-3.2243e-10
-1.26692e-10
-3.07068e-10
-1.91151e-10
-2.86033e-10
-2.4684e-10
-2.60178e-10
-2.94415e-10
-2.30233e-10
-3.34911e-10
-1.96883e-10
-3.68738e-10
-1.60755e-10
-3.96406e-10
-1.22446e-10
-4.18151e-10
-8.25192e-11
-4.34298e-10
-4.15267e-11
-4.44964e-10
-5.17889e-15
-4.50236e-10
4.15169e-11
-4.50244e-10
8.25097e-11
-4.44975e-10
1.22435e-10
-4.34268e-10
1.60745e-10
-4.18145e-10
1.96875e-10
-3.96446e-10
2.30224e-10
-3.68713e-10
2.60171e-10
-3.34918e-10
2.86029e-10
-2.94464e-10
3.07065e-10
-2.46851e-10
3.22428e-10
-1.91155e-10
3.31192e-10
-1.26731e-10
3.32179e-10
-5.13155e-11
3.24065e-10
3.62883e-11
3.0499e-10
1.40814e-10
2.72752e-10
2.65519e-10
2.23941e-10
4.21173e-10
1.54301e-10
6.1606e-10
5.66724e-11
8.77322e-10
-7.83285e-11
1.22815e-09
-2.67469e-10
1.74027e-09
-5.33514e-10
2.48342e-09
-9.19473e-10
3.66684e-09
-1.48337e-09
5.50395e-09
-2.3444e-09
8.6941e-09
-3.63997e-09
1.38576e-08
-5.7139e-09
2.42049e-08
-8.54191e-09
4.00319e-08
-1.11315e-08
9.01477e-08
-9.36482e-09
3.57206e-08
-2.25878e-07
8.67196e-09
-2.34551e-07
1.06442e-08
3.37482e-08
8.52748e-09
9.22643e-08
5.84049e-09
4.27188e-08
3.77744e-09
2.62679e-08
2.46032e-09
1.51747e-08
1.57267e-09
9.58173e-09
9.86325e-10
6.09036e-09
5.82384e-10
4.0708e-09
3.02705e-10
2.76312e-09
1.03175e-10
1.93986e-09
-3.96407e-11
1.37097e-09
-1.43211e-10
9.80898e-10
-2.17341e-10
6.9024e-10
-2.69556e-10
4.7338e-10
-3.04347e-10
3.00297e-10
-3.25316e-10
1.61844e-10
-3.34791e-10
4.58016e-11
-3.34736e-10
-5.1339e-11
-3.26551e-10
-1.34879e-10
-3.11475e-10
-2.06227e-10
-2.90483e-10
-2.67838e-10
-2.64469e-10
-3.20427e-10
-2.34198e-10
-3.6519e-10
-2.00386e-10
-4.02554e-10
-1.63684e-10
-4.33116e-10
-1.24716e-10
-4.57116e-10
-8.40676e-11
-4.74942e-10
-4.23113e-11
-4.86717e-10
-5.38537e-15
-4.92541e-10
4.2301e-11
-4.92548e-10
8.40575e-11
-4.86734e-10
1.24705e-10
-4.74915e-10
1.63674e-10
-4.57111e-10
2.00377e-10
-4.33149e-10
2.34189e-10
-4.02529e-10
2.64462e-10
-3.65174e-10
2.90478e-10
-3.20486e-10
3.11472e-10
-2.67832e-10
3.26549e-10
-2.0623e-10
3.34737e-10
-1.3492e-10
3.34795e-10
-5.13796e-11
3.25323e-10
4.5762e-11
3.04358e-10
1.61767e-10
2.69569e-10
3.00315e-10
2.17354e-10
4.73383e-10
1.43227e-10
6.9019e-10
3.96589e-11
9.80884e-10
-1.03155e-10
1.37096e-09
-3.02681e-10
1.9398e-09
-5.82357e-10
2.7631e-09
-9.86295e-10
4.07078e-09
-1.57264e-09
6.0903e-09
-2.46029e-09
9.58174e-09
-3.77741e-09
1.51747e-08
-5.84046e-09
2.62679e-08
-8.52746e-09
4.27189e-08
-1.06442e-08
9.22644e-08
-8.67195e-09
3.37483e-08
-2.3455e-07
7.89708e-09
-2.42448e-07
1.00829e-08
3.15624e-08
8.47004e-09
9.38772e-08
5.944e-09
4.52449e-08
3.90557e-09
2.83064e-08
2.57305e-09
1.65072e-08
1.66174e-09
1.0493e-08
1.05421e-09
6.69788e-09
6.32834e-10
4.4922e-09
3.39709e-10
3.05624e-09
1.29821e-10
2.14974e-09
-2.0851e-11
1.52164e-09
-1.30433e-10
1.09048e-09
-2.09134e-10
7.68942e-10
-2.64842e-10
5.29092e-10
-3.02273e-10
3.37718e-10
-3.25223e-10
1.84795e-10
-3.36146e-10
5.67296e-11
-3.37114e-10
-5.0377e-11
-3.296e-10
-1.42384e-10
-3.14907e-10
-2.20926e-10
-2.94058e-10
-2.88683e-10
-2.67989e-10
-3.46503e-10
-2.37497e-10
-3.95677e-10
-2.0333e-10
-4.36711e-10
-1.66164e-10
-4.70273e-10
-1.26648e-10
-4.96637e-10
-8.53897e-11
-5.16214e-10
-4.29826e-11
-5.29114e-10
-5.57154e-15
-5.35516e-10
4.29718e-11
-5.3553e-10
8.53791e-11
-5.29139e-10
1.26637e-10
-5.16172e-10
1.66154e-10
-4.96633e-10
2.03321e-10
-4.7032e-10
2.37488e-10
-4.36697e-10
2.67982e-10
-3.95687e-10
2.94053e-10
-3.46551e-10
3.14904e-10
-2.887e-10
3.29598e-10
-2.20927e-10
3.37115e-10
-1.42448e-10
3.3615e-10
-5.04087e-11
3.25231e-10
5.66918e-11
3.02284e-10
1.84737e-10
2.64855e-10
3.37737e-10
2.09148e-10
5.29084e-10
1.30449e-10
7.68884e-10
2.08696e-11