/*--------------------------------*- C++ -*----------------------------------*\
| =========                 |                                                 |
| \\      /  F ield         | foam-extend: Open Source CFD                    |
|  \\    /   O peration     | Version:     4.0                                |
|   \\  /    A nd           | Web:         http://www.foam-extend.org         |
|    \\/     M anipulation  |                                                 |
\*---------------------------------------------------------------------------*/
FoamFile
{
    version     2.0;
    format      ascii;
    class       volVectorField;
    location    "21";
    object      U;
}
// * * * * * * * * * * * * * * * * * * * * * * * * * * * * * * * * * * * * * //

dimensions      [0 1 -1 0 0 0 0];

internalField   nonuniform List<vector> 
6960
(
(1.92035e-06 -217.583 0)
(5.17736e-06 -217.576 0)
(4.97142e-06 -217.576 0)
(2.57262e-06 -217.576 0)
(1.36229e-06 -217.576 0)
(7.85173e-07 -217.576 0)
(4.44464e-07 -217.576 0)
(2.4492e-07 -217.576 0)
(1.15857e-07 -217.576 0)
(3.31036e-08 -217.576 0)
(-2.43479e-08 -217.576 0)
(-6.34034e-08 -217.576 0)
(-9.13751e-08 -217.576 0)
(-1.10484e-07 -217.576 0)
(-1.23615e-07 -217.576 0)
(-1.31618e-07 -217.576 0)
(-1.3578e-07 -217.576 0)
(-1.36526e-07 -217.576 0)
(-1.34515e-07 -217.576 0)
(-1.30025e-07 -217.576 0)
(-1.23456e-07 -217.576 0)
(-1.15032e-07 -217.576 0)
(-1.05038e-07 -217.576 0)
(-9.367e-08 -217.576 0)
(-8.11547e-08 -217.576 0)
(-6.76744e-08 -217.576 0)
(-5.34254e-08 -217.576 0)
(-3.85803e-08 -217.576 0)
(-2.33159e-08 -217.576 0)
(-7.80042e-09 -217.576 0)
(7.79753e-09 -217.576 0)
(2.33137e-08 -217.576 0)
(3.85769e-08 -217.576 0)
(5.34221e-08 -217.576 0)
(6.76721e-08 -217.576 0)
(8.11515e-08 -217.576 0)
(9.36667e-08 -217.576 0)
(1.05035e-07 -217.576 0)
(1.1503e-07 -217.576 0)
(1.23454e-07 -217.576 0)
(1.30024e-07 -217.576 0)
(1.34514e-07 -217.576 0)
(1.36528e-07 -217.576 0)
(1.35785e-07 -217.576 0)
(1.31622e-07 -217.576 0)
(1.23619e-07 -217.576 0)
(1.10489e-07 -217.576 0)
(9.13808e-08 -217.576 0)
(6.341e-08 -217.576 0)
(2.4355e-08 -217.576 0)
(-3.30958e-08 -217.576 0)
(-1.15847e-07 -217.576 0)
(-2.44908e-07 -217.576 0)
(-4.44452e-07 -217.576 0)
(-7.85162e-07 -217.576 0)
(-1.36228e-06 -217.576 0)
(-2.57261e-06 -217.576 0)
(-4.97141e-06 -217.576 0)
(-5.17735e-06 -217.576 0)
(-1.92035e-06 -217.583 0)
(0.00021933 14.3436 0)
(0.000228896 14.3502 0)
(1.46012e-05 14.3502 0)
(7.57484e-06 14.3502 0)
(4.03366e-06 14.3502 0)
(2.32983e-06 14.3502 0)
(1.32249e-06 14.3502 0)
(7.3155e-07 14.3502 0)
(3.49015e-07 14.3502 0)
(1.03436e-07 14.3502 0)
(-6.70945e-08 14.3502 0)
(-1.83125e-07 14.3502 0)
(-2.66256e-07 14.3502 0)
(-3.23103e-07 14.3502 0)
(-3.62205e-07 14.3502 0)
(-3.86127e-07 14.3502 0)
(-3.98651e-07 14.3502 0)
(-4.01059e-07 14.3502 0)
(-3.95322e-07 14.3502 0)
(-3.8224e-07 14.3502 0)
(-3.63009e-07 14.3502 0)
(-3.38312e-07 14.3502 0)
(-3.08957e-07 14.3502 0)
(-2.75547e-07 14.3502 0)
(-2.38761e-07 14.3502 0)
(-1.99112e-07 14.3502 0)
(-1.57191e-07 14.3502 0)
(-1.13526e-07 14.3502 0)
(-6.86049e-08 14.3502 0)
(-2.2937e-08 14.3502 0)
(2.29083e-08 14.3502 0)
(6.86042e-08 14.3502 0)
(1.13559e-07 14.3502 0)
(1.57138e-07 14.3502 0)
(1.99105e-07 14.3502 0)
(2.38795e-07 14.3502 0)
(2.75494e-07 14.3502 0)
(3.08949e-07 14.3502 0)
(3.38349e-07 14.3502 0)
(3.62962e-07 14.3502 0)
(3.82237e-07 14.3502 0)
(3.95365e-07 14.3502 0)
(4.01023e-07 14.3502 0)
(3.98663e-07 14.3502 0)
(3.86183e-07 14.3502 0)
(3.62173e-07 14.3502 0)
(3.23117e-07 14.3502 0)
(2.66316e-07 14.3502 0)
(1.83101e-07 14.3502 0)
(6.71157e-08 14.3502 0)
(-1.0337e-07 14.3502 0)
(-3.4903e-07 14.3502 0)
(-7.31516e-07 14.3502 0)
(-1.32241e-06 14.3502 0)
(-2.32984e-06 14.3502 0)
(-4.03363e-06 14.3502 0)
(-7.57476e-06 14.3502 0)
(-1.46012e-05 14.3502 0)
(-0.000228896 14.3502 0)
(-0.00021933 14.3436 0)
(0.000195763 39.2537 0)
(0.000211038 39.2502 0)
(2.34718e-05 39.2501 0)
(1.23584e-05 39.2501 0)
(6.61946e-06 39.2501 0)
(3.8359e-06 39.2501 0)
(2.18478e-06 39.2501 0)
(1.21461e-06 39.2501 0)
(5.85465e-07 39.2501 0)
(1.81147e-07 39.2501 0)
(-9.98665e-08 39.2501 0)
(-2.91215e-07 39.2501 0)
(-4.28391e-07 39.2501 0)
(-5.2231e-07 39.2501 0)
(-5.87018e-07 39.2501 0)
(-6.26747e-07 39.2501 0)
(-6.47747e-07 39.2501 0)
(-6.52132e-07 39.2501 0)
(-6.43135e-07 39.2501 0)
(-6.22101e-07 39.2501 0)
(-5.90983e-07 39.2501 0)
(-5.50899e-07 39.2501 0)
(-5.03195e-07 39.2501 0)
(-4.48849e-07 39.2501 0)
(-3.88965e-07 39.2501 0)
(-3.24404e-07 39.2501 0)
(-2.56126e-07 39.2501 0)
(-1.84981e-07 39.2501 0)
(-1.11794e-07 39.2501 0)
(-3.73886e-08 39.2501 0)
(3.73571e-08 39.2501 0)
(1.11788e-07 39.2501 0)
(1.85002e-07 39.2501 0)
(2.56073e-07 39.2501 0)
(3.24392e-07 39.2501 0)
(3.88988e-07 39.2501 0)
(4.48796e-07 39.2501 0)
(5.03182e-07 39.2501 0)
(5.50927e-07 39.2501 0)
(5.9094e-07 39.2501 0)
(6.22095e-07 39.2501 0)
(6.43172e-07 39.2501 0)
(6.52106e-07 39.2501 0)
(6.47768e-07 39.2501 0)
(6.26805e-07 39.2501 0)
(5.87e-07 39.2501 0)
(5.22334e-07 39.2501 0)
(4.28457e-07 39.2501 0)
(2.91209e-07 39.2501 0)
(9.9901e-08 39.2501 0)
(-1.81071e-07 39.2501 0)
(-5.85457e-07 39.2501 0)
(-1.21455e-06 39.2501 0)
(-2.18468e-06 39.2501 0)
(-3.83588e-06 39.2501 0)
(-6.6194e-06 39.2501 0)
(-1.23583e-05 39.2501 0)
(-2.34718e-05 39.2501 0)
(-0.000211038 39.2502 0)
(-0.000195763 39.2537 0)
(0.000104088 9.36574 0)
(0.000124474 9.36211 0)
(3.15246e-05 9.36211 0)
(1.68403e-05 9.3621 0)
(9.08436e-06 9.3621 0)
(5.2858e-06 9.3621 0)
(3.0226e-06 9.3621 0)
(1.69035e-06 9.3621 0)
(8.24387e-07 9.3621 0)
(2.6724e-07 9.3621 0)
(-1.2047e-07 9.3621 0)
(-3.84678e-07 9.3621 0)
(-5.74253e-07 9.3621 0)
(-7.04214e-07 9.3621 0)
(-7.93938e-07 9.3621 0)
(-8.49251e-07 9.3621 0)
(-8.78815e-07 9.3621 0)
(-8.85537e-07 9.3621 0)
(-8.7387e-07 9.3621 0)
(-8.45694e-07 9.3621 0)
(-8.03691e-07 9.3621 0)
(-7.49384e-07 9.3621 0)
(-6.84649e-07 9.3621 0)
(-6.10817e-07 9.3621 0)
(-5.2939e-07 9.3621 0)
(-4.41571e-07 9.3621 0)
(-3.48666e-07 9.3621 0)
(-2.51824e-07 9.3621 0)
(-1.52201e-07 9.3621 0)
(-5.09149e-08 9.3621 0)
(5.08872e-08 9.3621 0)
(1.52188e-07 9.3621 0)
(2.5182e-07 9.3621 0)
(3.48625e-07 9.3621 0)
(4.41556e-07 9.3621 0)
(5.29388e-07 9.3621 0)
(6.10777e-07 9.3621 0)
(6.84632e-07 9.3621 0)
(7.4939e-07 9.3621 0)
(8.03665e-07 9.3621 0)
(8.45687e-07 9.3621 0)
(8.73888e-07 9.3621 0)
(8.85533e-07 9.3621 0)
(8.78843e-07 9.3621 0)
(8.49298e-07 9.3621 0)
(7.93946e-07 9.3621 0)
(7.04247e-07 9.3621 0)
(5.7431e-07 9.3621 0)
(3.84703e-07 9.3621 0)
(1.20517e-07 9.3621 0)
(-2.6717e-07 9.3621 0)
(-8.24343e-07 9.3621 0)
(-1.69028e-06 9.3621 0)
(-3.0225e-06 9.3621 0)
(-5.28574e-06 9.3621 0)
(-9.08428e-06 9.3621 0)
(-1.68402e-05 9.3621 0)
(-3.15246e-05 9.36211 0)
(-0.000124474 9.36211 0)
(-0.000104088 9.36574 0)
(7.7772e-05 -1.46501 0)
(0.000102755 -1.4655 0)
(3.88294e-05 -1.46551 0)
(2.09947e-05 -1.46551 0)
(1.14121e-05 -1.46551 0)
(6.67137e-06 -1.46551 0)
(3.83186e-06 -1.46551 0)
(2.15698e-06 -1.46551 0)
(1.0653e-06 -1.46551 0)
(3.62048e-07 -1.46551 0)
(-1.2804e-07 -1.46551 0)
(-4.62293e-07 -1.46551 0)
(-7.02389e-07 -1.46551 0)
(-8.67202e-07 -1.46551 0)
(-9.81249e-07 -1.46551 0)
(-1.05188e-06 -1.46551 0)
(-1.09008e-06 -1.46551 0)
(-1.09952e-06 -1.46551 0)
(-1.08583e-06 -1.46551 0)
(-1.05139e-06 -1.46551 0)
(-9.9959e-07 -1.46551 0)
(-9.32346e-07 -1.46551 0)
(-8.52025e-07 -1.46551 0)
(-7.60297e-07 -1.46551 0)
(-6.59046e-07 -1.46551 0)
(-5.49787e-07 -1.46551 0)
(-4.34155e-07 -1.46551 0)
(-3.13587e-07 -1.46551 0)
(-1.8954e-07 -1.46551 0)
(-6.34108e-08 -1.46551 0)
(6.33809e-08 -1.46551 0)
(1.89523e-07 -1.46551 0)
(3.13572e-07 -1.46551 0)
(4.34115e-07 -1.46551 0)
(5.49767e-07 -1.46551 0)
(6.59033e-07 -1.46551 0)
(7.60257e-07 -1.46551 0)
(8.52004e-07 -1.46551 0)
(9.32343e-07 -1.46551 0)
(9.99567e-07 -1.46551 0)
(1.05138e-06 -1.46551 0)
(1.08584e-06 -1.46551 0)
(1.09952e-06 -1.46551 0)
(1.09012e-06 -1.46551 0)
(1.05193e-06 -1.46551 0)
(9.8127e-07 -1.46551 0)
(8.67243e-07 -1.46551 0)
(7.02449e-07 -1.46551 0)
(4.62334e-07 -1.46551 0)
(1.28099e-07 -1.46551 0)
(-3.61971e-07 -1.46551 0)
(-1.06523e-06 -1.46551 0)
(-2.15688e-06 -1.46551 0)
(-3.83175e-06 -1.46551 0)
(-6.67129e-06 -1.46551 0)
(-1.1412e-05 -1.46551 0)
(-2.09946e-05 -1.46551 0)
(-3.88293e-05 -1.46551 0)
(-0.000102755 -1.4655 0)
(-7.77719e-05 -1.46501 0)
(8.60275e-05 -0.880162 0)
(0.000115051 -0.879679 0)
(4.53433e-05 -0.879678 0)
(2.48145e-05 -0.879686 0)
(1.35916e-05 -0.879687 0)
(7.98694e-06 -0.879688 0)
(4.60971e-06 -0.879688 0)
(2.61316e-06 -0.879688 0)
(1.30777e-06 -0.879688 0)
(4.6569e-07 -0.879688 0)
(-1.22107e-07 -0.879688 0)
(-5.23358e-07 -0.879688 0)
(-8.11941e-07 -0.879688 0)
(-1.01032e-06 -0.879688 0)
(-1.14793e-06 -0.879688 0)
(-1.23358e-06 -0.879688 0)
(-1.28048e-06 -0.879688 0)
(-1.29302e-06 -0.879688 0)
(-1.27797e-06 -0.879688 0)
(-1.2382e-06 -0.879688 0)
(-1.17775e-06 -0.879688 0)
(-1.09892e-06 -0.879688 0)
(-1.00454e-06 -0.879688 0)
(-8.96595e-07 -0.879688 0)
(-7.77331e-07 -0.879688 0)
(-6.48552e-07 -0.879688 0)
(-5.12201e-07 -0.879688 0)
(-3.69987e-07 -0.879688 0)
(-2.23641e-07 -0.879688 0)
(-7.48212e-08 -0.879688 0)
(7.47862e-08 -0.879688 0)
(2.2362e-07 -0.879688 0)
(3.69967e-07 -0.879688 0)
(5.12155e-07 -0.879688 0)
(6.48528e-07 -0.879688 0)
(7.77315e-07 -0.879688 0)
(8.9655e-07 -0.879688 0)
(1.00452e-06 -0.879688 0)
(1.09892e-06 -0.879688 0)
(1.17773e-06 -0.879688 0)
(1.23819e-06 -0.879688 0)
(1.27799e-06 -0.879688 0)
(1.29302e-06 -0.879688 0)
(1.28052e-06 -0.879688 0)
(1.23364e-06 -0.879688 0)
(1.14796e-06 -0.879688 0)
(1.01036e-06 -0.879688 0)
(8.12011e-07 -0.879688 0)
(5.23408e-07 -0.879688 0)
(1.22177e-07 -0.879688 0)
(-4.656e-07 -0.879688 0)
(-1.30769e-06 -0.879688 0)
(-2.61305e-06 -0.879688 0)
(-4.60959e-06 -0.879688 0)
(-7.98685e-06 -0.879688 0)
(-1.35915e-05 -0.879687 0)
(-2.48144e-05 -0.879686 0)
(-4.53432e-05 -0.879678 0)
(-0.000115051 -0.879679 0)
(-8.60274e-05 -0.880162 0)
(9.02409e-05 0.202654 0)
(0.000122692 0.202848 0)
(5.10042e-05 0.202849 0)
(2.82875e-05 0.20284 0)
(1.56137e-05 0.202839 0)
(9.22773e-06 0.202838 0)
(5.35371e-06 0.202838 0)
(3.05771e-06 0.202838 0)
(1.55136e-06 0.202838 0)
(5.78182e-07 0.202838 0)
(-1.02368e-07 0.202838 0)
(-5.67384e-07 0.202838 0)
(-9.02292e-07 0.202838 0)
(-1.13286e-06 0.202838 0)
(-1.29324e-06 0.202838 0)
(-1.39358e-06 0.202838 0)
(-1.44922e-06 0.202838 0)
(-1.46525e-06 0.202838 0)
(-1.44955e-06 0.202838 0)
(-1.40539e-06 0.202838 0)
(-1.33749e-06 0.202838 0)
(-1.24847e-06 0.202838 0)
(-1.14161e-06 0.202838 0)
(-1.01919e-06 0.202838 0)
(-8.83798e-07 0.202838 0)
(-7.37494e-07 0.202838 0)
(-5.82513e-07 0.202838 0)
(-4.2081e-07 0.202838 0)
(-2.54375e-07 0.202838 0)
(-8.51065e-08 0.202838 0)
(8.5067e-08 0.202838 0)
(2.54351e-07 0.202838 0)
(4.20787e-07 0.202838 0)
(5.82461e-07 0.202838 0)
(7.37466e-07 0.202838 0)
(8.83778e-07 0.202838 0)
(1.01914e-06 0.202838 0)
(1.14159e-06 0.202838 0)
(1.24847e-06 0.202838 0)
(1.33746e-06 0.202838 0)
(1.40538e-06 0.202838 0)
(1.44956e-06 0.202838 0)
(1.46526e-06 0.202838 0)
(1.44927e-06 0.202838 0)
(1.39364e-06 0.202838 0)
(1.29327e-06 0.202838 0)
(1.13291e-06 0.202838 0)
(9.02371e-07 0.202838 0)
(5.67443e-07 0.202838 0)
(1.02448e-07 0.202838 0)
(-5.7808e-07 0.202838 0)
(-1.55127e-06 0.202838 0)
(-3.05759e-06 0.202838 0)
(-5.35357e-06 0.202838 0)
(-9.22762e-06 0.202838 0)
(-1.56136e-05 0.202839 0)
(-2.82874e-05 0.20284 0)
(-5.10041e-05 0.202849 0)
(-0.000122692 0.202848 0)
(-9.02409e-05 0.202654 0)
(8.70807e-05 0.233028 0)
(0.000122336 0.233011 0)
(5.57925e-05 0.233013 0)
(3.13989e-05 0.233003 0)
(1.74706e-05 0.233002 0)
(1.03897e-05 0.233001 0)
(6.06173e-06 0.233001 0)
(3.48957e-06 0.233 0)
(1.79561e-06 0.233 0)
(6.99433e-07 0.233 0)
(-6.86776e-08 0.233 0)
(-5.94075e-07 0.233 0)
(-9.73045e-07 0.233 0)
(-1.23436e-06 0.233 0)
(-1.41665e-06 0.233 0)
(-1.53133e-06 0.233 0)
(-1.59577e-06 0.233 0)
(-1.61569e-06 0.233 0)
(-1.60003e-06 0.233 0)
(-1.55247e-06 0.233 0)
(-1.47833e-06 0.233 0)
(-1.38056e-06 0.233 0)
(-1.26284e-06 0.233 0)
(-1.12774e-06 0.233 0)
(-9.78137e-07 0.233 0)
(-8.16355e-07 0.233 0)
(-6.44885e-07 0.233 0)
(-4.65911e-07 0.233 0)
(-2.81656e-07 0.233 0)
(-9.42373e-08 0.233 0)
(9.41942e-08 0.233 0)
(2.81627e-07 0.233 0)
(4.65882e-07 0.233 0)
(6.4483e-07 0.233 0)
(8.16324e-07 0.233 0)
(9.78112e-07 0.233 0)
(1.12769e-06 0.233 0)
(1.26281e-06 0.233 0)
(1.38055e-06 0.233 0)
(1.4783e-06 0.233 0)
(1.55245e-06 0.233 0)
(1.60004e-06 0.233 0)
(1.61571e-06 0.233 0)
(1.59582e-06 0.233 0)
(1.53139e-06 0.233 0)
(1.41669e-06 0.233 0)
(1.23442e-06 0.233 0)
(9.7313e-07 0.233 0)
(5.94142e-07 0.233 0)
(6.87663e-08 0.233 0)
(-6.99322e-07 0.233 0)
(-1.79551e-06 0.233 0)
(-3.48943e-06 0.233 0)
(-6.06158e-06 0.233001 0)
(-1.03895e-05 0.233001 0)
(-1.74705e-05 0.233002 0)
(-3.13987e-05 0.233003 0)
(-5.57923e-05 0.233013 0)
(-0.000122336 0.233011 0)
(-8.70807e-05 0.233028 0)
(8.26293e-05 0.0628386 0)
(0.000120078 0.0628369 0)
(5.97118e-05 0.0628401 0)
(3.4137e-05 0.0628287 0)
(1.91563e-05 0.062827 0)
(1.14693e-05 0.0628261 0)
(6.73197e-06 0.0628257 0)
(3.90773e-06 0.0628255 0)
(2.04003e-06 0.0628254 0)
(8.29242e-07 0.0628253 0)
(-2.10515e-08 0.0628252 0)
(-6.03327e-07 0.0628252 0)
(-1.02402e-06 0.0628252 0)
(-1.31459e-06 0.0628252 0)
(-1.51792e-06 0.0628252 0)
(-1.64655e-06 0.0628251 0)
(-1.71982e-06 0.0628251 0)
(-1.74404e-06 0.0628251 0)
(-1.72912e-06 0.0628251 0)
(-1.67914e-06 0.0628251 0)
(-1.6e-06 0.0628251 0)
(-1.49493e-06 0.0628251 0)
(-1.368e-06 0.0628251 0)
(-1.22203e-06 0.0628251 0)
(-1.06017e-06 0.0628251 0)
(-8.8499e-07 0.0628251 0)
(-6.99205e-07 0.0628251 0)
(-5.05206e-07 0.0628251 0)
(-3.05432e-07 0.0628251 0)
(-1.02196e-07 0.0628251 0)
(1.0215e-07 0.0628251 0)
(3.054e-07 0.0628251 0)
(5.05172e-07 0.0628251 0)
(6.99146e-07 0.0628251 0)
(8.84956e-07 0.0628251 0)
(1.06014e-06 0.0628251 0)
(1.22197e-06 0.0628251 0)
(1.36797e-06 0.0628251 0)
(1.49492e-06 0.0628251 0)
(1.59997e-06 0.0628251 0)
(1.67913e-06 0.0628251 0)
(1.72913e-06 0.0628251 0)
(1.74406e-06 0.0628251 0)
(1.71987e-06 0.0628251 0)
(1.64662e-06 0.0628251 0)
(1.51797e-06 0.0628252 0)
(1.31466e-06 0.0628252 0)
(1.02411e-06 0.0628252 0)
(6.03403e-07 0.0628252 0)
(2.11481e-08 0.0628252 0)
(-8.29123e-07 0.0628253 0)
(-2.03992e-06 0.0628254 0)
(-3.90758e-06 0.0628255 0)
(-6.73181e-06 0.0628257 0)
(-1.14692e-05 0.0628261 0)
(-1.91561e-05 0.062827 0)
(-3.41368e-05 0.0628287 0)
(-5.97117e-05 0.0628401 0)
(-0.000120078 0.0628369 0)
(-8.26293e-05 0.0628386 0)
(7.87466e-05 0.00134978 0)
(0.000117789 0.00139443 0)
(6.27697e-05 0.00139897 0)
(3.64952e-05 0.00138671 0)
(2.06661e-05 0.00138467 0)
(1.24641e-05 0.00138358 0)
(7.36289e-06 0.00138307 0)
(4.31129e-06 0.00138278 0)
(2.28409e-06 0.00138261 0)
(9.67295e-07 0.00138251 0)
(4.03344e-08 0.00138245 0)
(-5.95232e-07 0.00138241 0)
(-1.05525e-06 0.00138238 0)
(-1.37355e-06 0.00138235 0)
(-1.59701e-06 0.00138234 0)
(-1.73921e-06 0.00138233 0)
(-1.82133e-06 0.00138231 0)
(-1.85023e-06 0.00138231 0)
(-1.83675e-06 0.0013823 0)
(-1.78535e-06 0.00138229 0)
(-1.70243e-06 0.00138229 0)
(-1.59152e-06 0.00138228 0)
(-1.45704e-06 0.00138228 0)
(-1.302e-06 0.00138227 0)
(-1.12986e-06 0.00138227 0)
(-9.43361e-07 0.00138227 0)
(-7.45441e-07 0.00138227 0)
(-5.38674e-07 0.00138226 0)
(-3.2569e-07 0.00138226 0)
(-1.08979e-07 0.00138226 0)
(1.0893e-07 0.00138226 0)
(3.25655e-07 0.00138226 0)
(5.38636e-07 0.00138226 0)
(7.4538e-07 0.00138227 0)
(9.43324e-07 0.00138227 0)
(1.12983e-06 0.00138227 0)
(1.30195e-06 0.00138227 0)
(1.457e-06 0.00138228 0)
(1.59151e-06 0.00138228 0)
(1.70241e-06 0.00138229 0)
(1.78533e-06 0.00138229 0)
(1.83677e-06 0.0013823 0)
(1.85025e-06 0.00138231 0)
(1.82139e-06 0.00138231 0)
(1.73929e-06 0.00138233 0)
(1.59706e-06 0.00138234 0)
(1.37362e-06 0.00138235 0)
(1.05534e-06 0.00138238 0)
(5.95315e-07 0.00138241 0)
(-4.02308e-08 0.00138245 0)
(-9.67169e-07 0.00138251 0)
(-2.28397e-06 0.00138261 0)
(-4.31113e-06 0.00138278 0)
(-7.36272e-06 0.00138307 0)
(-1.24639e-05 0.00138358 0)
(-2.06659e-05 0.00138467 0)
(-3.6495e-05 0.00138671 0)
(-6.27696e-05 0.00139897 0)
(-0.000117789 0.00139443 0)
(-7.87466e-05 0.00134978 0)
(7.47993e-05 -0.00382217 0)
(0.00011485 -0.00376236 0)
(6.49794e-05 -0.00375647 0)
(3.84709e-05 -0.00376946 0)
(2.19971e-05 -0.00377187 0)
(1.33718e-05 -0.00377317 0)
(7.95326e-06 -0.00377378 0)
(4.69942e-06 -0.00377414 0)
(2.52721e-06 -0.00377434 0)
(1.11315e-06 -0.00377446 0)
(1.15131e-07 -0.00377454 0)
(-5.70086e-07 -0.00377459 0)
(-1.06699e-06 -0.00377463 0)
(-1.41148e-06 -0.00377466 0)
(-1.65415e-06 -0.00377468 0)
(-1.80952e-06 -0.00377469 0)
(-1.90049e-06 -0.0037747 0)
(-1.93445e-06 -0.00377472 0)
(-1.92312e-06 -0.00377473 0)
(-1.87125e-06 -0.00377473 0)
(-1.78579e-06 -0.00377474 0)
(-1.67048e-06 -0.00377475 0)
(-1.53007e-06 -0.00377475 0)
(-1.36778e-06 -0.00377476 0)
(-1.1873e-06 -0.00377476 0)
(-9.91547e-07 -0.00377476 0)
(-7.83656e-07 -0.00377476 0)
(-5.66359e-07 -0.00377477 0)
(-3.42458e-07 -0.00377477 0)
(-1.14595e-07 -0.00377477 0)
(1.14543e-07 -0.00377477 0)
(3.42419e-07 -0.00377477 0)
(5.66317e-07 -0.00377477 0)
(7.83593e-07 -0.00377476 0)
(9.91508e-07 -0.00377476 0)
(1.18727e-06 -0.00377476 0)
(1.36772e-06 -0.00377476 0)
(1.53003e-06 -0.00377475 0)
(1.67046e-06 -0.00377475 0)
(1.78577e-06 -0.00377474 0)
(1.87124e-06 -0.00377473 0)
(1.92313e-06 -0.00377473 0)
(1.93448e-06 -0.00377472 0)
(1.90055e-06 -0.0037747 0)
(1.80959e-06 -0.00377469 0)
(1.6542e-06 -0.00377468 0)
(1.41156e-06 -0.00377466 0)
(1.06709e-06 -0.00377463 0)
(5.70174e-07 -0.00377459 0)
(-1.15022e-07 -0.00377454 0)
(-1.11302e-06 -0.00377446 0)
(-2.52707e-06 -0.00377434 0)
(-4.69925e-06 -0.00377414 0)
(-7.95308e-06 -0.00377378 0)
(-1.33717e-05 -0.00377317 0)
(-2.19969e-05 -0.00377187 0)
(-3.84707e-05 -0.00376946 0)
(-6.49793e-05 -0.00375647 0)
(-0.00011485 -0.00376236 0)
(-7.47993e-05 -0.00382217 0)
(7.03534e-05 -0.00599214 0)
(0.000110848 -0.00593023 0)
(6.63651e-05 -0.00592297 0)
(4.00652e-05 -0.00593659 0)
(2.31482e-05 -0.00593936 0)
(1.41914e-05 -0.00594089 0)
(8.5022e-06 -0.00594162 0)
(5.07136e-06 -0.00594204 0)
(2.76875e-06 -0.00594228 0)
(1.26624e-06 -0.00594243 0)
(2.02798e-07 -0.00594252 0)
(-5.28416e-07 -0.00594258 0)
(-1.05977e-06 -0.00594263 0)
(-1.4289e-06 -0.00594266 0)
(-1.68984e-06 -0.00594268 0)
(-1.85796e-06 -0.0059427 0)
(-1.9578e-06 -0.00594272 0)
(-1.99718e-06 -0.00594273 0)
(-1.98866e-06 -0.00594274 0)
(-1.93729e-06 -0.00594275 0)
(-1.85047e-06 -0.00594276 0)
(-1.73217e-06 -0.00594277 0)
(-1.58743e-06 -0.00594277 0)
(-1.41965e-06 -0.00594278 0)
(-1.23274e-06 -0.00594278 0)
(-1.02976e-06 -0.00594279 0)
(-8.14014e-07 -0.00594279 0)
(-5.8838e-07 -0.00594279 0)
(-3.55806e-07 -0.00594279 0)
(-1.19067e-07 -0.00594279 0)
(1.19013e-07 -0.00594279 0)
(3.55764e-07 -0.00594279 0)
(5.88335e-07 -0.00594279 0)
(8.13948e-07 -0.00594279 0)
(1.02972e-06 -0.00594279 0)
(1.2327e-06 -0.00594278 0)
(1.4196e-06 -0.00594278 0)
(1.58739e-06 -0.00594277 0)
(1.73215e-06 -0.00594277 0)
(1.85044e-06 -0.00594276 0)
(1.93727e-06 -0.00594275 0)
(1.98867e-06 -0.00594274 0)
(1.9972e-06 -0.00594273 0)
(1.95786e-06 -0.00594272 0)
(1.85803e-06 -0.0059427 0)
(1.6899e-06 -0.00594268 0)
(1.42897e-06 -0.00594266 0)
(1.05988e-06 -0.00594263 0)
(5.2851e-07 -0.00594258 0)
(-2.02683e-07 -0.00594252 0)
(-1.2661e-06 -0.00594243 0)
(-2.76861e-06 -0.00594228 0)
(-5.07119e-06 -0.00594204 0)
(-8.50202e-06 -0.00594162 0)
(-1.41912e-05 -0.00594089 0)
(-2.31481e-05 -0.00593936 0)
(-4.0065e-05 -0.00593659 0)
(-6.63649e-05 -0.00592297 0)
(-0.000110848 -0.00593023 0)
(-7.03534e-05 -0.00599214 0)
(6.54593e-05 -0.013733 0)
(0.000105869 -0.0136674 0)
(6.6964e-05 -0.0136587 0)
(4.12841e-05 -0.0136729 0)
(2.41206e-05 -0.013676 0)
(1.49225e-05 -0.0136778 0)
(9.00922e-06 -0.0136786 0)
(5.42649e-06 -0.0136791 0)
(3.00805e-06 -0.0136794 0)
(1.42583e-06 -0.0136796 0)
(3.02574e-07 -0.0136797 0)
(-4.71011e-07 -0.0136798 0)
(-1.0344e-06 -0.0136798 0)
(-1.42661e-06 -0.0136798 0)
(-1.70491e-06 -0.0136799 0)
(-1.88537e-06 -0.0136799 0)
(-1.99405e-06 -0.0136799 0)
(-2.03919e-06 -0.0136799 0)
(-2.03412e-06 -0.0136799 0)
(-1.98416e-06 -0.0136799 0)
(-1.89713e-06 -0.01368 0)
(-1.7772e-06 -0.01368 0)
(-1.62967e-06 -0.01368 0)
(-1.45812e-06 -0.01368 0)
(-1.2666e-06 -0.01368 0)
(-1.05834e-06 -0.01368 0)
(-8.36793e-07 -0.01368 0)
(-6.04937e-07 -0.01368 0)
(-3.65856e-07 -0.01368 0)
(-1.22436e-07 -0.01368 0)
(1.2238e-07 -0.01368 0)
(3.65811e-07 -0.01368 0)
(6.04889e-07 -0.01368 0)
(8.36726e-07 -0.01368 0)
(1.0583e-06 -0.01368 0)
(1.26656e-06 -0.01368 0)
(1.45806e-06 -0.01368 0)
(1.62964e-06 -0.01368 0)
(1.77718e-06 -0.01368 0)
(1.89711e-06 -0.01368 0)
(1.98415e-06 -0.0136799 0)
(2.03414e-06 -0.0136799 0)
(2.03922e-06 -0.0136799 0)
(1.99411e-06 -0.0136799 0)
(1.88544e-06 -0.0136799 0)
(1.70497e-06 -0.0136799 0)
(1.42669e-06 -0.0136798 0)
(1.0345e-06 -0.0136798 0)
(4.71109e-07 -0.0136798 0)
(-3.02456e-07 -0.0136797 0)
(-1.42569e-06 -0.0136796 0)
(-3.0079e-06 -0.0136794 0)
(-5.4263e-06 -0.0136791 0)
(-9.00903e-06 -0.0136786 0)
(-1.49223e-05 -0.0136778 0)
(-2.41205e-05 -0.013676 0)
(-4.12839e-05 -0.0136729 0)
(-6.69639e-05 -0.0136587 0)
(-0.000105869 -0.0136674 0)
(-6.54593e-05 -0.013733 0)
(6.02775e-05 -0.0251158 0)
(0.000100114 -0.0250435 0)
(6.68276e-05 -0.0250333 0)
(4.21388e-05 -0.0250479 0)
(2.49179e-05 -0.0250514 0)
(1.55659e-05 -0.0250534 0)
(9.47429e-06 -0.0250543 0)
(5.76428e-06 -0.0250549 0)
(3.24435e-06 -0.0250552 0)
(1.59103e-06 -0.0250555 0)
(4.13464e-07 -0.0250556 0)
(-3.98946e-07 -0.0250557 0)
(-9.91998e-07 -0.0250557 0)
(-1.4058e-06 -0.0250558 0)
(-1.70053e-06 -0.0250558 0)
(-1.89291e-06 -0.0250558 0)
(-2.01042e-06 -0.0250559 0)
(-2.06163e-06 -0.0250559 0)
(-2.06062e-06 -0.0250559 0)
(-2.01292e-06 -0.0250559 0)
(-1.92676e-06 -0.0250559 0)
(-1.80648e-06 -0.0250559 0)
(-1.65762e-06 -0.0250559 0)
(-1.48389e-06 -0.0250559 0)
(-1.28952e-06 -0.0250559 0)
(-1.07783e-06 -0.0250559 0)
(-8.52401e-07 -0.025056 0)
(-6.16325e-07 -0.025056 0)
(-3.72785e-07 -0.025056 0)
(-1.24762e-07 -0.025056 0)
(1.24704e-07 -0.025056 0)
(3.72737e-07 -0.025056 0)
(6.16273e-07 -0.025056 0)
(8.52334e-07 -0.025056 0)
(1.07778e-06 -0.0250559 0)
(1.28947e-06 -0.0250559 0)
(1.48383e-06 -0.0250559 0)
(1.65759e-06 -0.0250559 0)
(1.80646e-06 -0.0250559 0)
(1.92674e-06 -0.0250559 0)
(2.0129e-06 -0.0250559 0)
(2.06063e-06 -0.0250559 0)
(2.06166e-06 -0.0250559 0)
(2.01048e-06 -0.0250559 0)
(1.89299e-06 -0.0250558 0)
(1.7006e-06 -0.0250558 0)
(1.40588e-06 -0.0250558 0)
(9.92102e-07 -0.0250557 0)
(3.99048e-07 -0.0250557 0)
(-4.13342e-07 -0.0250556 0)
(-1.59089e-06 -0.0250555 0)
(-3.2442e-06 -0.0250552 0)
(-5.76409e-06 -0.0250549 0)
(-9.4741e-06 -0.0250543 0)
(-1.55657e-05 -0.0250534 0)
(-2.49177e-05 -0.0250514 0)
(-4.21386e-05 -0.0250479 0)
(-6.68275e-05 -0.0250333 0)
(-0.000100114 -0.0250435 0)
(-6.02774e-05 -0.0251158 0)
(5.49541e-05 -0.0397789 0)
(9.37835e-05 -0.0396978 0)
(6.60215e-05 -0.0396862 0)
(4.26464e-05 -0.039701 0)
(2.55461e-05 -0.0397048 0)
(1.61236e-05 -0.0397071 0)
(9.89789e-06 -0.0397082 0)
(6.08437e-06 -0.0397088 0)
(3.47688e-06 -0.0397092 0)
(1.76076e-06 -0.0397094 0)
(5.34213e-07 -0.0397096 0)
(-3.13605e-07 -0.0397097 0)
(-9.34039e-07 -0.0397098 0)
(-1.36797e-06 -0.0397098 0)
(-1.67828e-06 -0.0397098 0)
(-1.88217e-06 -0.0397099 0)
(-2.00845e-06 -0.0397099 0)
(-2.06602e-06 -0.0397099 0)
(-2.06959e-06 -0.0397099 0)
(-2.02494e-06 -0.03971 0)
(-1.94066e-06 -0.03971 0)
(-1.82121e-06 -0.03971 0)
(-1.67237e-06 -0.03971 0)
(-1.49794e-06 -0.03971 0)
(-1.30231e-06 -0.03971 0)
(-1.0889e-06 -0.03971 0)
(-8.61383e-07 -0.03971 0)
(-6.22935e-07 -0.03971 0)
(-3.76829e-07 -0.03971 0)
(-1.26123e-07 -0.03971 0)
(1.26064e-07 -0.03971 0)
(3.7678e-07 -0.03971 0)
(6.22881e-07 -0.03971 0)
(8.61315e-07 -0.03971 0)
(1.08885e-06 -0.03971 0)
(1.30227e-06 -0.03971 0)
(1.49788e-06 -0.03971 0)
(1.67233e-06 -0.03971 0)
(1.82119e-06 -0.03971 0)
(1.94064e-06 -0.03971 0)
(2.02493e-06 -0.03971 0)
(2.06961e-06 -0.0397099 0)
(2.06605e-06 -0.0397099 0)
(2.00851e-06 -0.0397099 0)
(1.88225e-06 -0.0397099 0)
(1.67835e-06 -0.0397098 0)
(1.36806e-06 -0.0397098 0)
(9.34144e-07 -0.0397098 0)
(3.1371e-07 -0.0397097 0)
(-5.34089e-07 -0.0397096 0)
(-1.76062e-06 -0.0397094 0)
(-3.47672e-06 -0.0397092 0)
(-6.08419e-06 -0.0397088 0)
(-9.8977e-06 -0.0397082 0)
(-1.61234e-05 -0.0397071 0)
(-2.5546e-05 -0.0397048 0)
(-4.26462e-05 -0.039701 0)
(-6.60213e-05 -0.0396862 0)
(-9.37834e-05 -0.0396978 0)
(-5.4954e-05 -0.0397789 0)
(4.96445e-05 -0.0559764 0)
(8.70965e-05 -0.0558852 0)
(6.46257e-05 -0.0558722 0)
(4.28301e-05 -0.0558873 0)
(2.60146e-05 -0.0558914 0)
(1.65988e-05 -0.0558939 0)
(1.02811e-05 -0.0558951 0)
(6.38659e-06 -0.0558959 0)
(3.70481e-06 -0.0558963 0)
(1.93379e-06 -0.0558965 0)
(6.6332e-07 -0.0558967 0)
(-2.16677e-07 -0.0558968 0)
(-8.62338e-07 -0.0558969 0)
(-1.31504e-06 -0.055897 0)
(-1.64008e-06 -0.055897 0)
(-1.85509e-06 -0.055897 0)
(-1.99009e-06 -0.0558971 0)
(-2.05423e-06 -0.0558971 0)
(-2.06289e-06 -0.0558971 0)
(-2.02198e-06 -0.0558971 0)
(-1.94045e-06 -0.0558971 0)
(-1.82289e-06 -0.0558972 0)
(-1.67527e-06 -0.0558972 0)
(-1.50148e-06 -0.0558972 0)
(-1.30604e-06 -0.0558972 0)
(-1.09243e-06 -0.0558972 0)
(-8.64422e-07 -0.0558972 0)
(-6.2526e-07 -0.0558972 0)
(-3.78287e-07 -0.0558972 0)
(-1.26619e-07 -0.0558972 0)
(1.26559e-07 -0.0558972 0)
(3.78235e-07 -0.0558972 0)
(6.25204e-07 -0.0558972 0)
(8.64354e-07 -0.0558972 0)
(1.09238e-06 -0.0558972 0)
(1.30599e-06 -0.0558972 0)
(1.50142e-06 -0.0558972 0)
(1.67524e-06 -0.0558972 0)
(1.82287e-06 -0.0558972 0)
(1.94043e-06 -0.0558971 0)
(2.02197e-06 -0.0558971 0)
(2.0629e-06 -0.0558971 0)
(2.05426e-06 -0.0558971 0)
(1.99015e-06 -0.0558971 0)
(1.85517e-06 -0.055897 0)
(1.64015e-06 -0.055897 0)
(1.31513e-06 -0.055897 0)
(8.62442e-07 -0.0558969 0)
(2.16784e-07 -0.0558968 0)
(-6.63194e-07 -0.0558967 0)
(-1.93364e-06 -0.0558965 0)
(-3.70465e-06 -0.0558963 0)
(-6.3864e-06 -0.0558959 0)
(-1.02809e-05 -0.0558951 0)
(-1.65986e-05 -0.0558939 0)
(-2.60144e-05 -0.0558914 0)
(-4.283e-05 -0.0558873 0)
(-6.46256e-05 -0.0558722 0)
(-8.70964e-05 -0.0558852 0)
(-4.96445e-05 -0.0559764 0)
(4.44997e-05 -0.0670202 0)
(8.02765e-05 -0.0669199 0)
(6.27331e-05 -0.0669055 0)
(4.27192e-05 -0.0669206 0)
(2.63352e-05 -0.066925 0)
(1.69961e-05 -0.0669277 0)
(1.06254e-05 -0.0669291 0)
(6.67093e-06 -0.0669299 0)
(3.9273e-06 -0.0669304 0)
(2.10874e-06 -0.0669307 0)
(7.99068e-07 -0.0669309 0)
(-1.10119e-07 -0.066931 0)
(-7.79011e-07 -0.0669311 0)
(-1.24923e-06 -0.0669312 0)
(-1.58822e-06 -0.0669312 0)
(-1.81398e-06 -0.0669312 0)
(-1.95761e-06 -0.0669313 0)
(-2.02852e-06 -0.0669313 0)
(-2.04265e-06 -0.0669313 0)
(-2.00609e-06 -0.0669313 0)
(-1.92808e-06 -0.0669314 0)
(-1.81332e-06 -0.0669314 0)
(-1.66795e-06 -0.0669314 0)
(-1.49594e-06 -0.0669314 0)
(-1.30192e-06 -0.0669314 0)
(-1.08944e-06 -0.0669314 0)
(-8.62328e-07 -0.0669314 0)
(-6.23884e-07 -0.0669314 0)
(-3.77511e-07 -0.0669314 0)
(-1.26368e-07 -0.0669314 0)
(1.26307e-07 -0.0669314 0)
(3.77457e-07 -0.0669314 0)
(6.23826e-07 -0.0669314 0)
(8.62259e-07 -0.0669314 0)
(1.08939e-06 -0.0669314 0)
(1.30187e-06 -0.0669314 0)
(1.49589e-06 -0.0669314 0)
(1.66791e-06 -0.0669314 0)
(1.8133e-06 -0.0669314 0)
(1.92806e-06 -0.0669314 0)
(2.00608e-06 -0.0669313 0)
(2.04266e-06 -0.0669313 0)
(2.02855e-06 -0.0669313 0)
(1.95766e-06 -0.0669313 0)
(1.81405e-06 -0.0669312 0)
(1.58829e-06 -0.0669312 0)
(1.24932e-06 -0.0669312 0)
(7.79116e-07 -0.0669311 0)
(1.10227e-07 -0.066931 0)
(-7.98942e-07 -0.0669309 0)
(-2.10859e-06 -0.0669307 0)
(-3.92714e-06 -0.0669304 0)
(-6.67074e-06 -0.0669299 0)
(-1.06252e-05 -0.0669291 0)
(-1.69959e-05 -0.0669277 0)
(-2.6335e-05 -0.066925 0)
(-4.2719e-05 -0.0669206 0)
(-6.27329e-05 -0.0669055 0)
(-8.02764e-05 -0.0669199 0)
(-4.44997e-05 -0.0670202 0)
(3.95882e-05 -0.0620081 0)
(7.34696e-05 -0.0619044 0)
(6.0445e-05 -0.0618887 0)
(4.23474e-05 -0.0619038 0)
(2.6522e-05 -0.0619084 0)
(1.73209e-05 -0.0619114 0)
(1.09331e-05 -0.0619129 0)
(6.93762e-06 -0.0619138 0)
(4.14358e-06 -0.0619143 0)
(2.28418e-06 -0.0619147 0)
(9.39609e-07 -0.0619149 0)
(3.93421e-09 -0.061915 0)
(-6.86386e-07 -0.0619151 0)
(-1.17299e-06 -0.0619152 0)
(-1.52523e-06 -0.0619153 0)
(-1.76138e-06 -0.0619153 0)
(-1.91355e-06 -0.0619153 0)
(-1.99137e-06 -0.0619154 0)
(-2.01129e-06 -0.0619154 0)
(-1.97956e-06 -0.0619154 0)
(-1.90569e-06 -0.0619154 0)
(-1.79447e-06 -0.0619154 0)
(-1.6522e-06 -0.0619155 0)
(-1.48293e-06 -0.0619155 0)
(-1.29135e-06 -0.0619155 0)
(-1.08107e-06 -0.0619155 0)
(-8.56001e-07 -0.0619155 0)
(-6.19456e-07 -0.0619155 0)
(-3.74892e-07 -0.0619155 0)
(-1.25501e-07 -0.0619155 0)
(1.25439e-07 -0.0619155 0)
(3.74836e-07 -0.0619155 0)
(6.19397e-07 -0.0619155 0)
(8.55933e-07 -0.0619155 0)
(1.08102e-06 -0.0619155 0)
(1.2913e-06 -0.0619155 0)
(1.48287e-06 -0.0619155 0)
(1.65217e-06 -0.0619155 0)
(1.79445e-06 -0.0619154 0)
(1.90567e-06 -0.0619154 0)
(1.97955e-06 -0.0619154 0)
(2.0113e-06 -0.0619154 0)
(1.9914e-06 -0.0619154 0)
(1.9136e-06 -0.0619153 0)
(1.76145e-06 -0.0619153 0)
(1.5253e-06 -0.0619153 0)
(1.17307e-06 -0.0619152 0)
(6.8649e-07 -0.0619151 0)
(-3.8251e-09 -0.061915 0)
(-9.39482e-07 -0.0619149 0)
(-2.28403e-06 -0.0619147 0)
(-4.14342e-06 -0.0619143 0)
(-6.93743e-06 -0.0619138 0)
(-1.09329e-05 -0.0619129 0)
(-1.73207e-05 -0.0619114 0)
(-2.65218e-05 -0.0619084 0)
(-4.23472e-05 -0.0619038 0)
(-6.04449e-05 -0.0618887 0)
(-7.34695e-05 -0.0619044 0)
(-3.95882e-05 -0.0620081 0)
(3.48183e-05 -0.0323682 0)
(6.66623e-05 -0.0322719 0)
(5.78648e-05 -0.032255 0)
(4.17516e-05 -0.03227 0)
(2.6591e-05 -0.0322748 0)
(1.75798e-05 -0.0322781 0)
(1.12067e-05 -0.0322797 0)
(7.1871e-06 -0.0322807 0)
(4.35296e-06 -0.0322813 0)
(2.45871e-06 -0.0322816 0)
(1.08309e-06 -0.0322819 0)
(1.23317e-07 -0.032282 0)
(-5.86839e-07 -0.0322821 0)
(-1.08883e-06 -0.0322822 0)
(-1.45369e-06 -0.0322823 0)
(-1.69992e-06 -0.0322823 0)
(-1.86052e-06 -0.0322824 0)
(-1.94534e-06 -0.0322824 0)
(-1.97129e-06 -0.0322824 0)
(-1.94475e-06 -0.0322824 0)
(-1.87549e-06 -0.0322825 0)
(-1.76839e-06 -0.0322825 0)
(-1.62989e-06 -0.0322825 0)
(-1.46408e-06 -0.0322825 0)
(-1.27574e-06 -0.0322825 0)
(-1.06852e-06 -0.0322825 0)
(-8.46376e-07 -0.0322825 0)
(-6.12649e-07 -0.0322825 0)
(-3.70836e-07 -0.0322825 0)
(-1.24154e-07 -0.0322825 0)
(1.24091e-07 -0.0322825 0)
(3.70779e-07 -0.0322825 0)
(6.12589e-07 -0.0322825 0)