/*--------------------------------*- C++ -*----------------------------------*\
| =========                 |                                                 |
| \\      /  F ield         | foam-extend: Open Source CFD                    |
|  \\    /   O peration     | Version:     4.0                                |
|   \\  /    A nd           | Web:         http://www.foam-extend.org         |
|    \\/     M anipulation  |                                                 |
\*---------------------------------------------------------------------------*/
FoamFile
{
    version     2.0;
    format      ascii;
    class       volVectorField;
    location    "13";
    object      bodyForce;
}
// * * * * * * * * * * * * * * * * * * * * * * * * * * * * * * * * * * * * * //

dimensions      [0 -1 0 0 0 0 0];

internalField   nonuniform List<vector> 
6960
(
(4.79839e-06 -4.44535e+08 -0)
(1.08842e-06 -4.44535e+08 -0)
(-9.1009e-06 -4.44535e+08 -0)
(-7.54503e-06 -4.44535e+08 -0)
(-3.54846e-06 -4.44535e+08 -0)
(-2.19845e-06 -4.44535e+08 -0)
(-1.37958e-06 -4.44535e+08 -0)
(-9.45119e-07 -4.44535e+08 -0)
(-6.38041e-07 -4.44535e+08 -0)
(-4.4697e-07 -4.44535e+08 -0)
(-3.08216e-07 -4.44535e+08 -0)
(-1.97895e-07 -4.44535e+08 -0)
(-1.13733e-07 -4.44535e+08 -0)
(-5.9141e-08 -4.44535e+08 -0)
(-4.54931e-09 -4.44535e+08 -0)
(3.07079e-08 -4.44535e+08 -0)
(5.9141e-08 -4.44535e+08 -0)
(7.73383e-08 -4.44535e+08 -0)
(8.52996e-08 -4.44535e+08 -0)
(9.66729e-08 -4.44535e+08 -0)
(1.03497e-07 -4.44535e+08 -0)
(9.78102e-08 -4.44535e+08 -0)
(8.64369e-08 -4.44535e+08 -0)
(7.73383e-08 -4.44535e+08 -0)
(7.96129e-08 -4.44535e+08 -0)
(7.6201e-08 -4.44535e+08 -0)
(6.14157e-08 -4.44535e+08 -0)
(4.32185e-08 -4.44535e+08 -0)
(2.27466e-08 -4.44535e+08 -0)
(1.0236e-08 -4.44535e+08 -0)
(-6.82397e-09 -4.44535e+08 -0)
(-2.61585e-08 -4.44535e+08 -0)
(-4.66304e-08 -4.44535e+08 -0)
(-5.80037e-08 -4.44535e+08 -0)
(-6.82397e-08 -4.44535e+08 -0)
(-7.96129e-08 -4.44535e+08 -0)
(-7.96129e-08 -4.44535e+08 -0)
(-9.43982e-08 -4.44535e+08 -0)
(-1.0236e-07 -4.44535e+08 -0)
(-9.66729e-08 -4.44535e+08 -0)
(-1.01222e-07 -4.44535e+08 -0)
(-8.87116e-08 -4.44535e+08 -0)
(-6.2553e-08 -4.44535e+08 -0)
(-5.57291e-08 -4.44535e+08 -0)
(-3.75318e-08 -4.44535e+08 -0)
(7.96129e-09 -4.44535e+08 -0)
(6.2553e-08 -4.44535e+08 -0)
(1.16007e-07 -4.44535e+08 -0)
(1.9562e-07 -4.44535e+08 -0)
(3.08216e-07 -4.44535e+08 -0)
(4.39009e-07 -4.44535e+08 -0)
(6.26668e-07 -4.44535e+08 -0)
(9.39433e-07 -4.44535e+08 -0)
(1.38072e-06 -4.44535e+08 -0)
(2.203e-06 -4.44535e+08 -0)
(3.54391e-06 -4.44535e+08 -0)
(7.53025e-06 -4.44535e+08 -0)
(9.10772e-06 -4.44535e+08 -0)
(-1.07705e-06 -4.44535e+08 -0)
(-4.80748e-06 -4.44535e+08 -0)
(8.65162e-06 -1.63211e+08 -0)
(2.17485e-06 -1.63211e+08 -0)
(-1.59797e-05 -1.63211e+08 -0)
(-1.32925e-05 -1.63211e+08 -0)
(-6.23339e-06 -1.63211e+08 -0)
(-3.85405e-06 -1.63211e+08 -0)
(-2.42268e-06 -1.63211e+08 -0)
(-1.66142e-06 -1.63211e+08 -0)
(-1.12021e-06 -1.63211e+08 -0)
(-7.89037e-07 -1.63211e+08 -0)
(-5.40101e-07 -1.63211e+08 -0)
(-3.44509e-07 -1.63211e+08 -0)
(-2.04483e-07 -1.63211e+08 -0)
(-1.04464e-07 -1.63211e+08 -0)
(-8.89055e-09 -1.63211e+08 -0)
(5.2232e-08 -1.63211e+08 -0)
(1.03353e-07 -1.63211e+08 -0)
(1.37804e-07 -1.63211e+08 -0)
(1.52251e-07 -1.63211e+08 -0)
(1.73366e-07 -1.63211e+08 -0)
(1.84479e-07 -1.63211e+08 -0)
(1.65587e-07 -1.63211e+08 -0)
(1.53362e-07 -1.63211e+08 -0)
(1.35581e-07 -1.63211e+08 -0)
(1.33358e-07 -1.63211e+08 -0)
(1.38915e-07 -1.63211e+08 -0)
(1.05575e-07 -1.63211e+08 -0)
(7.33471e-08 -1.63211e+08 -0)
(4.8898e-08 -1.63211e+08 -0)
(1.55585e-08 -1.63211e+08 -0)
(-1.33358e-08 -1.63211e+08 -0)
(-4.55641e-08 -1.63211e+08 -0)
(-8.22376e-08 -1.63211e+08 -0)
(-1.00019e-07 -1.63211e+08 -0)
(-1.14466e-07 -1.63211e+08 -0)
(-1.40026e-07 -1.63211e+08 -0)
(-1.46694e-07 -1.63211e+08 -0)
(-1.63364e-07 -1.63211e+08 -0)
(-1.75588e-07 -1.63211e+08 -0)
(-1.71143e-07 -1.63211e+08 -0)
(-1.81145e-07 -1.63211e+08 -0)
(-1.54473e-07 -1.63211e+08 -0)
(-1.12243e-07 -1.63211e+08 -0)
(-1.03353e-07 -1.63211e+08 -0)
(-5.88999e-08 -1.63211e+08 -0)
(1.66698e-08 -1.63211e+08 -0)
(1.02241e-07 -1.63211e+08 -0)
(2.01149e-07 -1.63211e+08 -0)
(3.50065e-07 -1.63211e+08 -0)
(5.40101e-07 -1.63211e+08 -0)
(7.6681e-07 -1.63211e+08 -0)
(1.10465e-06 -1.63211e+08 -0)
(1.65364e-06 -1.63211e+08 -0)
(2.42268e-06 -1.63211e+08 -0)
(3.87295e-06 -1.63211e+08 -0)
(6.22228e-06 -1.63211e+08 -0)
(1.32625e-05 -1.63211e+08 -0)
(1.59885e-05 -1.63211e+08 -0)
(-2.15374e-06 -1.63211e+08 -0)
(-8.65273e-06 -1.63211e+08 -0)
(1.04772e-05 -7.62819e+07 -0)
(2.92044e-06 -7.62819e+07 -0)
(-1.80579e-05 -7.62819e+07 -0)
(-1.4706e-05 -7.62819e+07 -0)
(-6.90632e-06 -7.62819e+07 -0)
(-4.27691e-06 -7.62819e+07 -0)
(-2.69015e-06 -7.62819e+07 -0)
(-1.84236e-06 -7.62819e+07 -0)
(-1.24511e-06 -7.62819e+07 -0)
(-8.76892e-07 -7.62819e+07 -0)
(-5.97248e-07 -7.62819e+07 -0)
(-3.84668e-07 -7.62819e+07 -0)
(-2.27764e-07 -7.62819e+07 -0)
(-1.12617e-07 -7.62819e+07 -0)
(-1.13882e-08 -7.62819e+07 -0)
(6.07371e-08 -7.62819e+07 -0)
(1.15147e-07 -7.62819e+07 -0)
(1.54373e-07 -7.62819e+07 -0)
(1.70823e-07 -7.62819e+07 -0)
(1.88538e-07 -7.62819e+07 -0)
(2.04988e-07 -7.62819e+07 -0)
(1.87273e-07 -7.62819e+07 -0)
(1.65762e-07 -7.62819e+07 -0)
(1.48047e-07 -7.62819e+07 -0)
(1.53108e-07 -7.62819e+07 -0)
(1.54373e-07 -7.62819e+07 -0)
(1.16413e-07 -7.62819e+07 -0)
(8.35135e-08 -7.62819e+07 -0)
(5.3145e-08 -7.62819e+07 -0)
(1.7715e-08 -7.62819e+07 -0)
(-1.64496e-08 -7.62819e+07 -0)
(-5.18796e-08 -7.62819e+07 -0)
(-9.2371e-08 -7.62819e+07 -0)
(-1.07555e-07 -7.62819e+07 -0)
(-1.27801e-07 -7.62819e+07 -0)
(-1.51843e-07 -7.62819e+07 -0)
(-1.61966e-07 -7.62819e+07 -0)
(-1.83477e-07 -7.62819e+07 -0)
(-1.99926e-07 -7.62819e+07 -0)
(-1.936e-07 -7.62819e+07 -0)
(-1.99926e-07 -7.62819e+07 -0)
(-1.68292e-07 -7.62819e+07 -0)
(-1.27801e-07 -7.62819e+07 -0)
(-1.15147e-07 -7.62819e+07 -0)
(-6.45332e-08 -7.62819e+07 -0)
(1.89803e-08 -7.62819e+07 -0)
(1.16413e-07 -7.62819e+07 -0)
(2.26499e-07 -7.62819e+07 -0)
(3.88464e-07 -7.62819e+07 -0)
(5.92187e-07 -7.62819e+07 -0)
(8.55381e-07 -7.62819e+07 -0)
(1.23119e-06 -7.62819e+07 -0)
(1.8335e-06 -7.62819e+07 -0)
(2.68888e-06 -7.62819e+07 -0)
(4.29082e-06 -7.62819e+07 -0)
(6.89366e-06 -7.62819e+07 -0)
(1.46756e-05 -7.62819e+07 -0)
(1.80718e-05 -7.62819e+07 -0)
(-2.90399e-06 -7.62819e+07 -0)
(-1.04797e-05 -7.62819e+07 -0)
(1.08722e-05 -4.12363e+07 -0)
(3.11266e-06 -4.12363e+07 -0)
(-1.82194e-05 -4.12363e+07 -0)
(-1.46801e-05 -4.12363e+07 -0)
(-6.93397e-06 -4.12363e+07 -0)
(-4.29374e-06 -4.12363e+07 -0)
(-2.70344e-06 -4.12363e+07 -0)
(-1.8518e-06 -4.12363e+07 -0)
(-1.25218e-06 -4.12363e+07 -0)
(-8.81658e-07 -4.12363e+07 -0)
(-6.02782e-07 -4.12363e+07 -0)
(-3.85528e-07 -4.12363e+07 -0)
(-2.29105e-07 -4.12363e+07 -0)
(-1.13762e-07 -4.12363e+07 -0)
(-1.10602e-08 -4.12363e+07 -0)
(6.24113e-08 -4.12363e+07 -0)
(1.13762e-07 -4.12363e+07 -0)
(1.54843e-07 -4.12363e+07 -0)
(1.74594e-07 -4.12363e+07 -0)
(1.90394e-07 -4.12363e+07 -0)
(2.01454e-07 -4.12363e+07 -0)
(1.88814e-07 -4.12363e+07 -0)
(1.70643e-07 -4.12363e+07 -0)
(1.50103e-07 -4.12363e+07 -0)
(1.56423e-07 -4.12363e+07 -0)
(1.51683e-07 -4.12363e+07 -0)
(1.16922e-07 -4.12363e+07 -0)
(8.45317e-08 -4.12363e+07 -0)
(5.60911e-08 -4.12363e+07 -0)
(1.97504e-08 -4.12363e+07 -0)
(-1.58003e-08 -4.12363e+07 -0)
(-5.68812e-08 -4.12363e+07 -0)
(-9.48019e-08 -4.12363e+07 -0)
(-1.08232e-07 -4.12363e+07 -0)
(-1.30353e-07 -4.12363e+07 -0)
(-1.50893e-07 -4.12363e+07 -0)
(-1.60373e-07 -4.12363e+07 -0)
(-1.87234e-07 -4.12363e+07 -0)
(-2.03034e-07 -4.12363e+07 -0)
(-1.95924e-07 -4.12363e+07 -0)
(-1.99084e-07 -4.12363e+07 -0)
(-1.70643e-07 -4.12363e+07 -0)
(-1.26403e-07 -4.12363e+07 -0)
(-1.16132e-07 -4.12363e+07 -0)
(-6.39913e-08 -4.12363e+07 -0)
(1.89604e-08 -4.12363e+07 -0)
(1.16132e-07 -4.12363e+07 -0)
(2.28315e-07 -4.12363e+07 -0)
(3.89478e-07 -4.12363e+07 -0)
(5.93302e-07 -4.12363e+07 -0)
(8.63488e-07 -4.12363e+07 -0)
(1.24112e-06 -4.12363e+07 -0)
(1.84469e-06 -4.12363e+07 -0)
(2.69791e-06 -4.12363e+07 -0)
(4.30559e-06 -4.12363e+07 -0)
(6.92449e-06 -4.12363e+07 -0)
(1.46532e-05 -4.12363e+07 -0)
(1.82328e-05 -4.12363e+07 -0)
(-3.09844e-06 -4.12363e+07 -0)
(-1.08762e-05 -4.12363e+07 -0)
(1.03914e-05 -2.46238e+07 -0)
(2.88967e-06 -2.46238e+07 -0)
(-1.74915e-05 -2.46238e+07 -0)
(-1.40677e-05 -2.46238e+07 -0)
(-6.69944e-06 -2.46238e+07 -0)
(-4.15679e-06 -2.46238e+07 -0)
(-2.61836e-06 -2.46238e+07 -0)
(-1.795e-06 -2.46238e+07 -0)
(-1.21665e-06 -2.46238e+07 -0)
(-8.5386e-07 -2.46238e+07 -0)
(-5.81508e-07 -2.46238e+07 -0)
(-3.73301e-07 -2.46238e+07 -0)
(-2.21877e-07 -2.46238e+07 -0)
(-1.11465e-07 -2.46238e+07 -0)
(-8.41242e-09 -2.46238e+07 -0)
(5.88869e-08 -2.46238e+07 -0)
(1.10413e-07 -2.46238e+07 -0)
(1.50372e-07 -2.46238e+07 -0)
(1.70351e-07 -2.46238e+07 -0)
(1.84022e-07 -2.46238e+07 -0)
(1.95589e-07 -2.46238e+07 -0)
(1.84022e-07 -2.46238e+07 -0)
(1.65094e-07 -2.46238e+07 -0)
(1.47217e-07 -2.46238e+07 -0)
(1.50372e-07 -2.46238e+07 -0)
(1.48269e-07 -2.46238e+07 -0)
(1.13568e-07 -2.46238e+07 -0)
(8.20211e-08 -2.46238e+07 -0)
(5.36292e-08 -2.46238e+07 -0)
(1.89279e-08 -2.46238e+07 -0)
(-1.57733e-08 -2.46238e+07 -0)
(-5.36292e-08 -2.46238e+07 -0)
(-9.25366e-08 -2.46238e+07 -0)
(-1.07258e-07 -2.46238e+07 -0)
(-1.24083e-07 -2.46238e+07 -0)
(-1.46166e-07 -2.46238e+07 -0)
(-1.56681e-07 -2.46238e+07 -0)
(-1.8297e-07 -2.46238e+07 -0)
(-1.98743e-07 -2.46238e+07 -0)
(-1.89279e-07 -2.46238e+07 -0)
(-1.91382e-07 -2.46238e+07 -0)
(-1.65094e-07 -2.46238e+07 -0)
(-1.24083e-07 -2.46238e+07 -0)
(-1.12516e-07 -2.46238e+07 -0)
(-6.20416e-08 -2.46238e+07 -0)
(1.68248e-08 -2.46238e+07 -0)
(1.12516e-07 -2.46238e+07 -0)
(2.21877e-07 -2.46238e+07 -0)
(3.78559e-07 -2.46238e+07 -0)
(5.75199e-07 -2.46238e+07 -0)
(8.37035e-07 -2.46238e+07 -0)
(1.20298e-06 -2.46238e+07 -0)
(1.78659e-06 -2.46238e+07 -0)
(2.61416e-06 -2.46238e+07 -0)
(4.1652e-06 -2.46238e+07 -0)
(6.69523e-06 -2.46238e+07 -0)
(1.40414e-05 -2.46238e+07 -0)
(1.7501e-05 -2.46238e+07 -0)
(-2.87599e-06 -2.46238e+07 -0)
(-1.03946e-05 -2.46238e+07 -0)
(9.53865e-06 -1.58402e+07 -0)
(2.476e-06 -1.58402e+07 -0)
(-1.64109e-05 -1.58402e+07 -0)
(-1.32247e-05 -1.58402e+07 -0)
(-6.37086e-06 -1.58402e+07 -0)
(-3.95661e-06 -1.58402e+07 -0)
(-2.49732e-06 -1.58402e+07 -0)
(-1.71144e-06 -1.58402e+07 -0)
(-1.16008e-06 -1.58402e+07 -0)
(-8.14553e-07 -1.58402e+07 -0)
(-5.52837e-07 -1.58402e+07 -0)
(-3.57286e-07 -1.58402e+07 -0)
(-2.13195e-07 -1.58402e+07 -0)
(-1.05127e-07 -1.58402e+07 -0)
(-8.82187e-09 -1.58402e+07 -0)
(5.51367e-08 -1.58402e+07 -0)
(1.04392e-07 -1.58402e+07 -0)
(1.46296e-07 -1.58402e+07 -0)
(1.63205e-07 -1.58402e+07 -0)
(1.75702e-07 -1.58402e+07 -0)
(1.8673e-07 -1.58402e+07 -0)
(1.77173e-07 -1.58402e+07 -0)
(1.58794e-07 -1.58402e+07 -0)
(1.38209e-07 -1.58402e+07 -0)
(1.43355e-07 -1.58402e+07 -0)
(1.4262e-07 -1.58402e+07 -0)
(1.08803e-07 -1.58402e+07 -0)
(7.86617e-08 -1.58402e+07 -0)
(4.99906e-08 -1.58402e+07 -0)
(2.05844e-08 -1.58402e+07 -0)
(-1.61734e-08 -1.58402e+07 -0)
(-5.14609e-08 -1.58402e+07 -0)
(-8.82187e-08 -1.58402e+07 -0)
(-1.02187e-07 -1.58402e+07 -0)
(-1.17625e-07 -1.58402e+07 -0)
(-1.4115e-07 -1.58402e+07 -0)
(-1.51442e-07 -1.58402e+07 -0)
(-1.74232e-07 -1.58402e+07 -0)
(-1.9114e-07 -1.58402e+07 -0)
(-1.80113e-07 -1.58402e+07 -0)
(-1.80113e-07 -1.58402e+07 -0)
(-1.58794e-07 -1.58402e+07 -0)
(-1.22771e-07 -1.58402e+07 -0)
(-1.05862e-07 -1.58402e+07 -0)
(-5.95476e-08 -1.58402e+07 -0)
(1.54383e-08 -1.58402e+07 -0)
(1.08803e-07 -1.58402e+07 -0)
(2.1393e-07 -1.58402e+07 -0)
(3.60961e-07 -1.58402e+07 -0)
(5.46956e-07 -1.58402e+07 -0)
(8.00585e-07 -1.58402e+07 -0)
(1.14831e-06 -1.58402e+07 -0)
(1.70336e-06 -1.58402e+07 -0)
(2.49144e-06 -1.58402e+07 -0)
(3.96322e-06 -1.58402e+07 -0)
(6.36718e-06 -1.58402e+07 -0)
(1.32049e-05 -1.58402e+07 -0)
(1.6416e-05 -1.58402e+07 -0)
(-2.46571e-06 -1.58402e+07 -0)
(-9.53791e-06 -1.58402e+07 -0)
(8.59911e-06 -1.08178e+07 -0)
(2.02026e-06 -1.08178e+07 -0)
(-1.52599e-05 -1.08178e+07 -0)
(-1.23412e-05 -1.08178e+07 -0)
(-6.02061e-06 -1.08178e+07 -0)
(-3.74641e-06 -1.08178e+07 -0)
(-2.36796e-06 -1.08178e+07 -0)
(-1.62328e-06 -1.08178e+07 -0)
(-1.10201e-06 -1.08178e+07 -0)
(-7.74139e-07 -1.08178e+07 -0)
(-5.23415e-07 -1.08178e+07 -0)
(-3.39121e-07 -1.08178e+07 -0)
(-2.03044e-07 -1.08178e+07 -0)
(-9.85755e-08 -1.08178e+07 -0)
(-8.03605e-09 -1.08178e+07 -0)
(5.25022e-08 -1.08178e+07 -0)
(9.69683e-08 -1.08178e+07 -0)
(1.37684e-07 -1.08178e+07 -0)
(1.56435e-07 -1.08178e+07 -0)
(1.68757e-07 -1.08178e+07 -0)
(1.77865e-07 -1.08178e+07 -0)
(1.68221e-07 -1.08178e+07 -0)
(1.52149e-07 -1.08178e+07 -0)
(1.31791e-07 -1.08178e+07 -0)
(1.36613e-07 -1.08178e+07 -0)
(1.3447e-07 -1.08178e+07 -0)
(1.03933e-07 -1.08178e+07 -0)
(7.44674e-08 -1.08178e+07 -0)
(4.76805e-08 -1.08178e+07 -0)
(1.92865e-08 -1.08178e+07 -0)
(-1.39291e-08 -1.08178e+07 -0)
(-4.8752e-08 -1.08178e+07 -0)
(-8.51821e-08 -1.08178e+07 -0)
(-9.7504e-08 -1.08178e+07 -0)
(-1.11969e-07 -1.08178e+07 -0)
(-1.35006e-07 -1.08178e+07 -0)
(-1.43577e-07 -1.08178e+07 -0)
(-1.66614e-07 -1.08178e+07 -0)
(-1.8215e-07 -1.08178e+07 -0)
(-1.70364e-07 -1.08178e+07 -0)
(-1.70364e-07 -1.08178e+07 -0)
(-1.51078e-07 -1.08178e+07 -0)
(-1.16255e-07 -1.08178e+07 -0)
(-9.9647e-08 -1.08178e+07 -0)
(-5.83953e-08 -1.08178e+07 -0)
(1.55364e-08 -1.08178e+07 -0)
(1.03397e-07 -1.08178e+07 -0)
(2.00901e-07 -1.08178e+07 -0)
(3.418e-07 -1.08178e+07 -0)
(5.18593e-07 -1.08178e+07 -0)
(7.59139e-07 -1.08178e+07 -0)
(1.0929e-06 -1.08178e+07 -0)
(1.61632e-06 -1.08178e+07 -0)
(2.36045e-06 -1.08178e+07 -0)
(3.7523e-06 -1.08178e+07 -0)
(6.02007e-06 -1.08178e+07 -0)
(1.23241e-05 -1.08178e+07 -0)
(1.52637e-05 -1.08178e+07 -0)
(-2.01169e-06 -1.08178e+07 -0)
(-8.60018e-06 -1.08178e+07 -0)
(7.7161e-06 -7.77308e+06 -0)
(1.59323e-06 -7.77308e+06 -0)
(-1.41786e-05 -7.77308e+06 -0)
(-1.1517e-05 -7.77308e+06 -0)
(-5.69528e-06 -7.77308e+06 -0)
(-3.55002e-06 -7.77308e+06 -0)
(-2.24739e-06 -7.77308e+06 -0)
(-1.54217e-06 -7.77308e+06 -0)
(-1.04689e-06 -7.77308e+06 -0)
(-7.3562e-07 -7.77308e+06 -0)
(-4.98519e-07 -7.77308e+06 -0)
(-3.21808e-07 -7.77308e+06 -0)
(-1.93328e-07 -7.77308e+06 -0)
(-9.48402e-08 -7.77308e+06 -0)
(-8.106e-09 -7.77308e+06 -0)
(5.02572e-08 -7.77308e+06 -0)
(9.15978e-08 -7.77308e+06 -0)
(1.31317e-07 -7.77308e+06 -0)
(1.4915e-07 -7.77308e+06 -0)
(1.62931e-07 -7.77308e+06 -0)
(1.69415e-07 -7.77308e+06 -0)
(1.58878e-07 -7.77308e+06 -0)
(1.44287e-07 -7.77308e+06 -0)
(1.26454e-07 -7.77308e+06 -0)
(1.31317e-07 -7.77308e+06 -0)
(1.29696e-07 -7.77308e+06 -0)
(9.92985e-08 -7.77308e+06 -0)
(6.93063e-08 -7.77308e+06 -0)
(4.29618e-08 -7.77308e+06 -0)
(1.94544e-08 -7.77308e+06 -0)
(-1.17537e-08 -7.77308e+06 -0)
(-4.57989e-08 -7.77308e+06 -0)
(-8.106e-08 -7.77308e+06 -0)
(-9.24084e-08 -7.77308e+06 -0)
(-1.09026e-07 -7.77308e+06 -0)
(-1.29696e-07 -7.77308e+06 -0)
(-1.34965e-07 -7.77308e+06 -0)
(-1.58878e-07 -7.77308e+06 -0)
(-1.74279e-07 -7.77308e+06 -0)
(-1.6212e-07 -7.77308e+06 -0)
(-1.61715e-07 -7.77308e+06 -0)
(-1.45097e-07 -7.77308e+06 -0)
(-1.11458e-07 -7.77308e+06 -0)
(-9.40296e-08 -7.77308e+06 -0)
(-5.47155e-08 -7.77308e+06 -0)
(1.41855e-08 -7.77308e+06 -0)
(9.76773e-08 -7.77308e+06 -0)
(1.90896e-07 -7.77308e+06 -0)
(3.25456e-07 -7.77308e+06 -0)
(4.9244e-07 -7.77308e+06 -0)
(7.22245e-07 -7.77308e+06 -0)
(1.03838e-06 -7.77308e+06 -0)
(1.53487e-06 -7.77308e+06 -0)
(2.2405e-06 -7.77308e+06 -0)
(3.55691e-06 -7.77308e+06 -0)
(5.69447e-06 -7.77308e+06 -0)
(1.15012e-05 -7.77308e+06 -0)
(1.41835e-05 -7.77308e+06 -0)
(-1.58675e-06 -7.77308e+06 -0)
(-7.71813e-06 -7.77308e+06 -0)
(6.94529e-06 -5.84157e+06 -0)
(1.22398e-06 -5.84157e+06 -0)
(-1.32348e-05 -5.84157e+06 -0)
(-1.08008e-05 -5.84157e+06 -0)
(-5.41516e-06 -5.84157e+06 -0)
(-3.3842e-06 -5.84157e+06 -0)
(-2.14593e-06 -5.84157e+06 -0)
(-1.47328e-06 -5.84157e+06 -0)
(-1.00135e-06 -5.84157e+06 -0)
(-7.03136e-07 -5.84157e+06 -0)
(-4.76697e-07 -5.84157e+06 -0)
(-3.09011e-07 -5.84157e+06 -0)
(-1.85153e-07 -5.84157e+06 -0)
(-9.05121e-08 -5.84157e+06 -0)
(-6.66931e-09 -5.84157e+06 -0)
(4.82731e-08 -5.84157e+06 -0)
(8.70186e-08 -5.84157e+06 -0)
(1.24494e-07 -5.84157e+06 -0)
(1.44184e-07 -5.84157e+06 -0)
(1.56252e-07 -5.84157e+06 -0)
(1.62604e-07 -5.84157e+06 -0)
(1.53077e-07 -5.84157e+06 -0)
(1.39103e-07 -5.84157e+06 -0)
(1.21318e-07 -5.84157e+06 -0)
(1.26399e-07 -5.84157e+06 -0)
(1.24176e-07 -5.84157e+06 -0)
(9.46407e-08 -5.84157e+06 -0)
(6.63755e-08 -5.84157e+06 -0)
(4.09686e-08 -5.84157e+06 -0)
(1.96903e-08 -5.84157e+06 -0)
(-1.07979e-08 -5.84157e+06 -0)
(-4.41445e-08 -5.84157e+06 -0)
(-7.7491e-08 -5.84157e+06 -0)
(-8.92417e-08 -5.84157e+06 -0)
(-1.06074e-07 -5.84157e+06 -0)
(-1.23541e-07 -5.84157e+06 -0)
(-1.3021e-07 -5.84157e+06 -0)
(-1.52124e-07 -5.84157e+06 -0)
(-1.66098e-07 -5.84157e+06 -0)
(-1.56252e-07 -5.84157e+06 -0)
(-1.54347e-07 -5.84157e+06 -0)
(-1.38468e-07 -5.84157e+06 -0)
(-1.07662e-07 -5.84157e+06 -0)
(-8.86066e-08 -5.84157e+06 -0)
(-5.24017e-08 -5.84157e+06 -0)
(1.27035e-08 -5.84157e+06 -0)
(9.24176e-08 -5.84157e+06 -0)
(1.82295e-07 -5.84157e+06 -0)
(3.10599e-07 -5.84157e+06 -0)
(4.70345e-07 -5.84157e+06 -0)
(6.9075e-07 -5.84157e+06 -0)
(9.93727e-07 -5.84157e+06 -0)
(1.46566e-06 -5.84157e+06 -0)
(2.13958e-06 -5.84157e+06 -0)
(3.39055e-06 -5.84157e+06 -0)
(5.41643e-06 -5.84157e+06 -0)
(1.07868e-05 -5.84157e+06 -0)
(1.32379e-05 -5.84157e+06 -0)
(-1.22017e-06 -5.84157e+06 -0)
(-6.94911e-06 -5.84157e+06 -0)
(6.30341e-06 -4.57041e+06 -0)
(9.18572e-07 -4.57041e+06 -0)
(-1.24473e-05 -4.57041e+06 -0)
(-1.02098e-05 -4.57041e+06 -0)
(-5.19238e-06 -4.57041e+06 -0)
(-3.25283e-06 -4.57041e+06 -0)
(-2.06666e-06 -4.57041e+06 -0)
(-1.4198e-06 -4.57041e+06 -0)
(-9.64887e-07 -4.57041e+06 -0)
(-6.78766e-07 -4.57041e+06 -0)
(-4.60058e-07 -4.57041e+06 -0)
(-2.98472e-07 -4.57041e+06 -0)
(-1.79083e-07 -4.57041e+06 -0)
(-8.79977e-08 -4.57041e+06 -0)
(-6.17528e-09 -4.57041e+06 -0)
(4.73438e-08 -4.57041e+06 -0)
(8.43955e-08 -4.57041e+06 -0)
(1.19903e-07 -4.57041e+06 -0)
(1.39458e-07 -4.57041e+06 -0)
(1.51809e-07 -4.57041e+06 -0)
(1.57984e-07 -4.57041e+06 -0)
(1.47692e-07 -4.57041e+06 -0)
(1.35341e-07 -4.57041e+06 -0)
(1.16301e-07 -4.57041e+06 -0)
(1.21962e-07 -4.57041e+06 -0)
(1.20418e-07 -4.57041e+06 -0)
(9.21145e-08 -4.57041e+06 -0)
(6.43258e-08 -4.57041e+06 -0)
(3.96247e-08 -4.57041e+06 -0)
(1.9555e-08 -4.57041e+06 -0)
(-9.77752e-09 -4.57041e+06 -0)
(-4.32269e-08 -4.57041e+06 -0)
(-7.46179e-08 -4.57041e+06 -0)
(-8.59393e-08 -4.57041e+06 -0)
(-1.03436e-07 -4.57041e+06 -0)
(-1.20418e-07 -4.57041e+06 -0)
(-1.26079e-07 -4.57041e+06 -0)
(-1.47177e-07 -4.57041e+06 -0)
(-1.59528e-07 -4.57041e+06 -0)
(-1.52838e-07 -4.57041e+06 -0)
(-1.49236e-07 -4.57041e+06 -0)
(-1.32768e-07 -4.57041e+06 -0)
(-1.0498e-07 -4.57041e+06 -0)
(-8.59393e-08 -4.57041e+06 -0)
(-4.99168e-08 -4.57041e+06 -0)
(1.13213e-08 -4.57041e+06 -0)
(8.85123e-08 -4.57041e+06 -0)
(1.7651e-07 -4.57041e+06 -0)
(3.0053e-07 -4.57041e+06 -0)
(4.52854e-07 -4.57041e+06 -0)
(6.65901e-07 -4.57041e+06 -0)
(9.59741e-07 -4.57041e+06 -0)
(1.41157e-06 -4.57041e+06 -0)
(2.05945e-06 -4.57041e+06 -0)
(3.26003e-06 -4.57041e+06 -0)
(5.19495e-06 -4.57041e+06 -0)
(1.0198e-05 -4.57041e+06 -0)
(1.24483e-05 -4.57041e+06 -0)
(-9.15999e-07 -4.57041e+06 -0)
(-6.30702e-06 -4.57041e+06 -0)
(5.78184e-06 -3.70681e+06 -0)
(6.71967e-07 -3.70681e+06 -0)
(-1.18067e-05 -3.70681e+06 -0)
(-9.74094e-06 -3.70681e+06 -0)
(-5.0234e-06 -3.70681e+06 -0)
(-3.15678e-06 -3.70681e+06 -0)
(-2.01031e-06 -3.70681e+06 -0)
(-1.38179e-06 -3.70681e+06 -0)
(-9.39549e-07 -3.70681e+06 -0)
(-6.61642e-07 -3.70681e+06 -0)
(-4.49555e-07 -3.70681e+06 -0)
(-2.91243e-07 -3.70681e+06 -0)
(-1.7595e-07 -3.70681e+06 -0)
(-8.51789e-08 -3.70681e+06 -0)
(-5.16236e-09 -3.70681e+06 -0)
(4.51706e-08 -3.70681e+06 -0)
(8.13071e-08 -3.70681e+06 -0)
(1.18304e-07 -3.70681e+06 -0)
(1.37233e-07 -3.70681e+06 -0)
(1.48848e-07 -3.70681e+06 -0)
(1.5315e-07 -3.70681e+06 -0)
(1.44116e-07 -3.70681e+06 -0)
(1.33791e-07 -3.70681e+06 -0)
(1.14862e-07 -3.70681e+06 -0)
(1.18734e-07 -3.70681e+06 -0)
(1.17874e-07 -3.70681e+06 -0)
(8.99111e-08 -3.70681e+06 -0)
(6.23785e-08 -3.70681e+06 -0)
(3.91479e-08 -3.70681e+06 -0)
(2.02192e-08 -3.70681e+06 -0)
(-1.03247e-08 -3.70681e+06 -0)
(-4.21593e-08 -3.70681e+06 -0)
(-7.2273e-08 -3.70681e+06 -0)
(-8.34581e-08 -3.70681e+06 -0)
(-1.01526e-07 -3.70681e+06 -0)
(-1.17444e-07 -3.70681e+06 -0)
(-1.23466e-07 -3.70681e+06 -0)
(-1.44546e-07 -3.70681e+06 -0)
(-1.56161e-07 -3.70681e+06 -0)
(-1.50569e-07 -3.70681e+06 -0)
(-1.47127e-07 -3.70681e+06 -0)
(-1.28199e-07 -3.70681e+06 -0)
(-1.02387e-07 -3.70681e+06 -0)
(-8.43185e-08 -3.70681e+06 -0)
(-4.90424e-08 -3.70681e+06 -0)
(1.11851e-08 -3.70681e+06 -0)
(8.56091e-08 -3.70681e+06 -0)
(1.71648e-07 -3.70681e+06 -0)
(2.94254e-07 -3.70681e+06 -0)
(4.40091e-07 -3.70681e+06 -0)
(6.48736e-07 -3.70681e+06 -0)
(9.36538e-07 -3.70681e+06 -0)
(1.37362e-06 -3.70681e+06 -0)
(2.00343e-06 -3.70681e+06 -0)
(3.1641e-06 -3.70681e+06 -0)
(5.02814e-06 -3.70681e+06 -0)
(9.72889e-06 -3.70681e+06 -0)
(1.18067e-05 -3.70681e+06 -0)
(-6.70676e-07 -3.70681e+06 -0)
(-5.78528e-06 -3.70681e+06 -0)
(5.36156e-06 -3.10212e+06 -0)
(4.79206e-07 -3.10212e+06 -0)
(-1.12871e-05 -3.10212e+06 -0)
(-9.37135e-06 -3.10212e+06 -0)
(-4.90382e-06 -3.10212e+06 -0)
(-3.09097e-06 -3.10212e+06 -0)
(-1.97344e-06 -3.10212e+06 -0)
(-1.35843e-06 -3.10212e+06 -0)
(-9.23999e-07 -3.10212e+06 -0)
(-6.50537e-07 -3.10212e+06 -0)
(-4.42202e-07 -3.10212e+06 -0)
(-2.87524e-07 -3.10212e+06 -0)
(-1.7392e-07 -3.10212e+06 -0)
(-8.43699e-08 -3.10212e+06 -0)
(-5.55065e-09 -3.10212e+06 -0)
(4.55154e-08 -3.10212e+06 -0)
(8.06695e-08 -3.10212e+06 -0)
(1.16564e-07 -3.10212e+06 -0)
(1.36176e-07 -3.10212e+06 -0)
(1.47277e-07 -3.10212e+06 -0)
(1.50608e-07 -3.10212e+06 -0)
(1.42467e-07 -3.10212e+06 -0)
(1.32106e-07 -3.10212e+06 -0)
(1.13603e-07 -3.10212e+06 -0)
(1.17304e-07 -3.10212e+06 -0)
(1.16934e-07 -3.10212e+06 -0)
(8.91805e-08 -3.10212e+06 -0)
(6.14272e-08 -3.10212e+06 -0)
(3.88546e-08 -3.10212e+06 -0)
(1.92423e-08 -3.10212e+06 -0)
(-8.511e-09 -3.10212e+06 -0)
(-4.10748e-08 -3.10212e+06 -0)
(-7.06783e-08 -3.10212e+06 -0)
(-8.28898e-08 -3.10212e+06 -0)
(-1.01392e-07 -3.10212e+06 -0)
(-1.15824e-07 -3.10212e+06 -0)
(-1.22484e-07 -3.10212e+06 -0)
(-1.44317e-07 -3.10212e+06 -0)
(-1.53568e-07 -3.10212e+06 -0)
(-1.49128e-07 -3.10212e+06 -0)
(-1.45057e-07 -3.10212e+06 -0)
(-1.25815e-07 -3.10212e+06 -0)
(-1.01392e-07 -3.10212e+06 -0)
(-8.32598e-08 -3.10212e+06 -0)
(-4.81057e-08 -3.10212e+06 -0)
(9.62113e-09 -3.10212e+06 -0)
(8.39999e-08 -3.10212e+06 -0)
(1.6874e-07 -3.10212e+06 -0)
(2.90484e-07 -3.10212e+06 -0)
(4.32581e-07 -3.10212e+06 -0)
(6.38325e-07 -3.10212e+06 -0)
(9.21409e-07 -3.10212e+06 -0)
(1.34955e-06 -3.10212e+06 -0)
(1.96641e-06 -3.10212e+06 -0)
(3.09949e-06 -3.10212e+06 -0)
(4.90863e-06 -3.10212e+06 -0)
(9.35951e-06 -3.10212e+06 -0)
(1.12856e-05 -3.10212e+06 -0)
(-4.78096e-07 -3.10212e+06 -0)
(-5.36563e-06 -3.10212e+06 -0)
(5.01932e-06 -2.66505e+06 -0)
(3.33186e-07 -2.66505e+06 -0)
(-1.08463e-05 -2.66505e+06 -0)
(-9.07041e-06 -2.66505e+06 -0)
(-4.8183e-06 -2.66505e+06 -0)
(-3.04762e-06 -2.66505e+06 -0)
(-1.95049e-06 -2.66505e+06 -0)
(-1.34449e-06 -2.66505e+06 -0)
(-9.15363e-07 -2.66505e+06 -0)
(-6.45812e-07 -2.66505e+06 -0)
(-4.3957e-07 -2.66505e+06 -0)
(-2.84562e-07 -2.66505e+06 -0)
(-1.7263e-07 -2.66505e+06 -0)
(-8.38675e-08 -2.66505e+06 -0)
(-5.22132e-09 -2.66505e+06 -0)
(4.50339e-08 -2.66505e+06 -0)
(7.92988e-08 -2.66505e+06 -0)
(1.16174e-07 -2.66505e+06 -0)
(1.36733e-07 -2.66505e+06 -0)
(1.4685e-07 -2.66505e+06 -0)
(1.50113e-07 -2.66505e+06 -0)
(1.40976e-07 -2.66505e+06 -0)
(1.31512e-07 -2.66505e+06 -0)
(1.12911e-07 -2.66505e+06 -0)
(1.17153e-07 -2.66505e+06 -0)
(1.1748e-07 -2.66505e+06 -0)
(8.94151e-08 -2.66505e+06 -0)
(6.16768e-08 -2.66505e+06 -0)
(3.78546e-08 -2.66505e+06 -0)
(1.958e-08 -2.66505e+06 -0)
(-8.81098e-09 -2.66505e+06 -0)
(-3.98126e-08 -2.66505e+06 -0)
(-7.04878e-08 -2.66505e+06 -0)
(-8.28885e-08 -2.66505e+06 -0)
(-1.01816e-07 -2.66505e+06 -0)
(-1.15195e-07 -2.66505e+06 -0)
(-1.22375e-07 -2.66505e+06 -0)
(-1.43586e-07 -2.66505e+06 -0)
(-1.5305e-07 -2.66505e+06 -0)
(-1.49787e-07 -2.66505e+06 -0)
(-1.43586e-07 -2.66505e+06 -0)
(-1.24985e-07 -2.66505e+06 -0)
(-1.01163e-07 -2.66505e+06 -0)
(-8.25621e-08 -2.66505e+06 -0)
(-4.86235e-08 -2.66505e+06 -0)
(9.46364e-09 -2.66505e+06 -0)
(8.32148e-08 -2.66505e+06 -0)
(1.68061e-07 -2.66505e+06 -0)
(2.87825e-07 -2.66505e+06 -0)
(4.28475e-07 -2.66505e+06 -0)
(6.32432e-07 -2.66505e+06 -0)
(9.13078e-07 -2.66505e+06 -0)
(1.33633e-06 -2.66505e+06 -0)
(1.94559e-06 -2.66505e+06 -0)
(3.05545e-06 -2.66505e+06 -0)
(4.82352e-06 -2.66505e+06 -0)
(9.05932e-06 -2.66505e+06 -0)
(1.08427e-05 -2.66505e+06 -0)
(-3.32207e-07 -2.66505e+06 -0)
(-5.02161e-06 -2.66505e+06 -0)
(4.72889e-06 -2.33746e+06 -0)
(2.32684e-07 -2.33746e+06 -0)
(-1.04358e-05 -2.33746e+06 -0)
(-8.80086e-06 -2.33746e+06 -0)
(-4.74769e-06 -2.33746e+06 -0)
(-3.01637e-06 -2.33746e+06 -0)
(-1.93668e-06 -2.33746e+06 -0)
(-1.33764e-06 -2.33746e+06 -0)
(-9.11052e-07 -2.33746e+06 -0)
(-6.42819e-07 -2.33746e+06 -0)
(-4.3687e-07 -2.33746e+06 -0)
(-2.84098e-07 -2.33746e+06 -0)
(-1.73925e-07 -2.33746e+06 -0)
(-8.40248e-08 -2.33746e+06 -0)
(-5.87586e-09 -2.33746e+06 -0)
(4.67131e-08 -2.33746e+06 -0)
(7.90303e-08 -2.33746e+06 -0)
(1.16636e-07 -2.33746e+06 -0)
(1.37495e-07 -2.33746e+06 -0)
(1.4719e-07 -2.33746e+06 -0)
(1.5101e-07 -2.33746e+06 -0)
(1.40727e-07 -2.33746e+06 -0)
(1.31325e-07 -2.33746e+06 -0)
(1.12816e-07 -2.33746e+06 -0)
(1.17223e-07 -2.33746e+06 -0)
(1.18986e-07 -2.33746e+06 -0)
(8.99006e-08 -2.33746e+06 -0)
(6.08151e-08 -2.33746e+06 -0)
(3.81931e-08 -2.33746e+06 -0)
(1.96841e-08 -2.33746e+06 -0)
(-8.2262e-09 -2.33746e+06 -0)
(-3.81931e-08 -2.33746e+06 -0)
(-7.08041e-08 -2.33746e+06 -0)
(-8.40248e-08 -2.33746e+06 -0)
(-1.01946e-07 -2.33746e+06 -0)
(-1.15167e-07 -2.33746e+06 -0)
(-1.22512e-07 -2.33746e+06 -0)
(-1.43665e-07 -2.33746e+06 -0)
(-1.54241e-07 -2.33746e+06 -0)
(-1.50422e-07 -2.33746e+06 -0)
(-1.43665e-07 -2.33746e+06 -0)
(-1.24274e-07 -2.33746e+06 -0)
(-1.00771e-07 -2.33746e+06 -0)
(-8.3731e-08 -2.33746e+06 -0)
(-4.93572e-08 -2.33746e+06 -0)
(8.81379e-09 -2.33746e+06 -0)
(8.34372e-08 -2.33746e+06 -0)
(1.67462e-07 -2.33746e+06 -0)
(2.8733e-07 -2.33746e+06 -0)
(4.26e-07 -2.33746e+06 -0)
(6.29011e-07 -2.33746e+06 -0)
(9.09289e-07 -2.33746e+06 -0)
(1.32941e-06 -2.33746e+06 -0)
(1.93169e-06 -2.33746e+06 -0)
(3.02401e-06 -2.33746e+06 -0)
(4.75386e-06 -2.33746e+06 -0)
(8.7897e-06 -2.33746e+06 -0)
(1.04305e-05 -2.33746e+06 -0)
(-2.30334e-07 -2.33746e+06 -0)
(-4.73095e-06 -2.33746e+06 -0)
(4.46785e-06 -2.08128e+06 -0)
(1.74446e-07 -2.08128e+06 -0)
(-1.00031e-05 -2.08128e+06 -0)
(-8.5215e-06 -2.08128e+06 -0)
(-4.67429e-06 -2.08128e+06 -0)
(-2.98278e-06 -2.08128e+06 -0)
(-1.92294e-06 -2.08128e+06 -0)
(-1.33052e-06 -2.08128e+06 -0)
(-9.06634e-07 -2.08128e+06 -0)
(-6.40799e-07 -2.08128e+06 -0)
(-4.36518e-07 -2.08128e+06 -0)
(-2.8465e-07 -2.08128e+06 -0)
(-1.73639e-07 -2.08128e+06 -0)
(-8.41318e-08 -2.08128e+06 -0)
(-6.18221e-09 -2.08128e+06 -0)
(4.70385e-08 -2.08128e+06 -0)
(7.98311e-08 -2.08128e+06 -0)
(1.17731e-07 -2.08128e+06 -0)
(1.3789e-07 -2.08128e+06 -0)
(1.47298e-07 -2.08128e+06 -0)
(1.51598e-07 -2.08128e+06 -0)
(1.41384e-07 -2.08128e+06 -0)
(1.3117e-07 -2.08128e+06 -0)
(1.1343e-07 -2.08128e+06 -0)
(1.18806e-07 -2.08128e+06 -0)
(1.19343e-07 -2.08128e+06 -0)
(9.0314e-08 -2.08128e+06 -0)
(6.15533e-08 -2.08128e+06 -0)
(3.8706e-08 -2.08128e+06 -0)
(1.82778e-08 -2.08128e+06 -0)
(-7.52617e-09 -2.08128e+06 -0)
(-3.76308e-08 -2.08128e+06 -0)
(-7.04234e-08 -2.08128e+06 -0)
(-8.46694e-08 -2.08128e+06 -0)
(-1.02947e-07 -2.08128e+06 -0)
(-1.15849e-07 -2.08128e+06 -0)
(-1.23375e-07 -2.08128e+06 -0)
(-1.44341e-07 -2.08128e+06 -0)
(-1.54555e-07 -2.08128e+06 -0)
(-1.50523e-07 -2.08128e+06 -0)
(-1.43804e-07 -2.08128e+06 -0)
(-1.24182e-07 -2.08128e+06 -0)
(-1.00797e-07 -2.08128e+06 -0)
(-8.49381e-08 -2.08128e+06 -0)
(-5.10704e-08 -2.08128e+06 -0)
(9.40771e-09 -2.08128e+06 -0)
(8.35942e-08 -2.08128e+06 -0)
(1.66651e-07 -2.08128e+06 -0)
(2.86263e-07 -2.08128e+06 -0)
(4.2496e-07 -2.08128e+06 -0)
(6.25747e-07 -2.08128e+06 -0)
(9.06365e-07 -2.08128e+06 -0)
(1.32272e-06 -2.08128e+06 -0)
(1.91783e-06 -2.08128e+06 -0)
(2.99111e-06 -2.08128e+06 -0)
(4.68074e-06 -2.08128e+06 -0)
(8.51075e-06 -2.08128e+06 -0)
(9.9977e-06 -2.08128e+06 -0)
(-1.72564e-07 -2.08128e+06 -0)
(-4.46974e-06 -2.08128e+06 -0)
(4.2153e-06 -1.87111e+06 -0)
(1.61706e-07 -1.87111e+06 -0)
(-9.49961e-06 -1.87111e+06 -0)
(-8.19377e-06 -1.87111e+06 -0)
(-4.57504e-06 -1.87111e+06 -0)
(-2.93484e-06 -1.87111e+06 -0)
(-1.90216e-06 -1.87111e+06 -0)
(-1.31753e-06 -1.87111e+06 -0)
(-8.99832e-07 -1.87111e+06 -0)
(-6.37371e-07 -1.87111e+06 -0)
(-4.3387e-07 -1.87111e+06 -0)
(-2.84603e-07 -1.87111e+06 -0)
(-1.73399e-07 -1.87111e+06 -0)
(-8.38384e-08 -1.87111e+06 -0)
(-6.21946e-09 -1.87111e+06 -0)
(4.75167e-08 -1.87111e+06 -0)
(8.06042e-08 -1.87111e+06 -0)
(1.17921e-07 -1.87111e+06 -0)
(1.39316e-07 -1.87111e+06 -0)
(1.47028e-07 -1.87111e+06 -0)
(1.52004e-07 -1.87111e+06 -0)
(1.42301e-07 -1.87111e+06 -0)
(1.31106e-07 -1.87111e+06 -0)
(1.12945e-07 -1.87111e+06 -0)
(1.18419e-07 -1.87111e+06 -0)
(1.2016e-07 -1.87111e+06 -0)
(9.13017e-08 -1.87111e+06 -0)
(6.24434e-08 -1.87111e+06 -0)
(3.78143e-08 -1.87111e+06 -0)
(1.79121e-08 -1.87111e+06 -0)
(-7.21458e-09 -1.87111e+06 -0)
(-3.63217e-08 -1.87111e+06 -0)
(-7.11507e-08 -1.87111e+06 -0)
(-8.60774e-08 -1.87111e+06 -0)
(-1.02746e-07 -1.87111e+06 -0)
(-1.15433e-07 -1.87111e+06 -0)
(-1.23394e-07 -1.87111e+06 -0)
(-1.44292e-07 -1.87111e+06 -0)
(-1.54989e-07 -1.87111e+06 -0)
(-1.5275e-07 -1.87111e+06 -0)
(-1.43545e-07 -1.87111e+06 -0)
(-1.22399e-07 -1.87111e+06 -0)
(-1.01004e-07 -1.87111e+06 -0)
(-8.60774e-08 -1.87111e+06 -0)
(-5.14972e-08 -1.87111e+06 -0)
(9.45358e-09 -1.87111e+06 -0)
(8.23457e-08 -1.87111e+06 -0)
(1.65935e-07 -1.87111e+06 -0)
(2.84603e-07 -1.87111e+06 -0)
(4.21928e-07 -1.87111e+06 -0)
(6.21449e-07 -1.87111e+06 -0)
(9.00329e-07 -1.87111e+06 -0)
(1.31081e-06 -1.87111e+06 -0)
(1.89544e-06 -1.87111e+06 -0)
(2.9438e-06 -1.87111e+06 -0)
(4.58225e-06 -1.87111e+06 -0)
(8.18357e-06 -1.87111e+06 -0)
(9.49239e-06 -1.87111e+06 -0)