/*--------------------------------*- C++ -*----------------------------------*\
| =========                 |                                                 |
| \\      /  F ield         | foam-extend: Open Source CFD                    |
|  \\    /   O peration     | Version:     4.0                                |
|   \\  /    A nd           | Web:         http://www.foam-extend.org         |
|    \\/     M anipulation  |                                                 |
\*---------------------------------------------------------------------------*/
FoamFile
{
    version     2.0;
    format      ascii;
    class       volScalarField;
    location    "730";
    object      cPlus;
}
// * * * * * * * * * * * * * * * * * * * * * * * * * * * * * * * * * * * * * //

dimensions      [0 0 0 0 0 0 0];

internalField   nonuniform List<scalar> 
6960
(
0.224597
0.224534
0.224484
0.22445
0.224429
0.224416
0.224409
0.224404
0.224401
0.224399
0.224398
0.224397
0.224397
0.224396
0.224396
0.224396
0.224396
0.224396
0.224396
0.224396
0.224396
0.224395
0.224395
0.224395
0.224395
0.224395
0.224395
0.224395
0.224395
0.224395
0.224395
0.224395
0.224395
0.224395
0.224395
0.224395
0.224395
0.224395
0.224395
0.224396
0.224396
0.224396
0.224396
0.224396
0.224396
0.224396
0.224396
0.224397
0.224397
0.224398
0.224399
0.224401
0.224404
0.224409
0.224416
0.224429
0.22445
0.224484
0.224534
0.224597
0.0543577
0.0543368
0.0543193
0.0543074
0.0542999
0.0542953
0.0542925
0.0542908
0.0542898
0.0542891
0.0542887
0.0542884
0.0542883
0.0542881
0.054288
0.054288
0.0542879
0.0542879
0.0542879
0.0542878
0.0542878
0.0542878
0.0542878
0.0542878
0.0542878
0.0542877
0.0542877
0.0542877
0.0542877
0.0542877
0.0542877
0.0542877
0.0542877
0.0542877
0.0542877
0.0542878
0.0542878
0.0542878
0.0542878
0.0542878
0.0542878
0.0542879
0.0542879
0.0542879
0.054288
0.054288
0.0542881
0.0542883
0.0542884
0.0542887
0.0542891
0.0542898
0.0542908
0.0542925
0.0542953
0.0542999
0.0543074
0.0543193
0.0543368
0.0543577
0.0231125
0.0231116
0.0231097
0.0231083
0.0231074
0.0231068
0.0231064
0.0231062
0.023106
0.0231059
0.0231059
0.0231058
0.0231058
0.0231058
0.0231058
0.0231058
0.0231058
0.0231058
0.0231058
0.0231058
0.0231058
0.0231058
0.0231058
0.0231058
0.0231058
0.0231058
0.0231058
0.0231058
0.0231058
0.0231058
0.0231058
0.0231058
0.0231058
0.0231058
0.0231058
0.0231058
0.0231058
0.0231058
0.0231058
0.0231058
0.0231058
0.0231058
0.0231058
0.0231058
0.0231058
0.0231058
0.0231058
0.0231058
0.0231058
0.0231059
0.0231059
0.023106
0.0231062
0.0231064
0.0231068
0.0231074
0.0231083
0.0231097
0.0231116
0.0231125
0.0171867
0.0171926
0.017196
0.0171981
0.0171994
0.0172001
0.0172006
0.0172008
0.017201
0.0172011
0.0172011
0.0172012
0.0172012
0.0172012
0.0172012
0.0172013
0.0172013
0.0172013
0.0172013
0.0172013
0.0172013
0.0172013
0.0172013
0.0172013
0.0172013
0.0172013
0.0172013
0.0172013
0.0172013
0.0172013
0.0172013
0.0172013
0.0172013
0.0172013
0.0172013
0.0172013
0.0172013
0.0172013
0.0172013
0.0172013
0.0172013
0.0172013
0.0172013
0.0172013
0.0172013
0.0172012
0.0172012
0.0172012
0.0172012
0.0172011
0.0172011
0.017201
0.0172008
0.0172006
0.0172001
0.0171994
0.0171981
0.017196
0.0171926
0.0171867
0.0162311
0.0162389
0.0162439
0.0162471
0.016249
0.0162501
0.0162508
0.0162512
0.0162514
0.0162516
0.0162517
0.0162517
0.0162518
0.0162518
0.0162519
0.0162519
0.0162519
0.0162519
0.0162519
0.0162519
0.0162519
0.0162519
0.016252
0.016252
0.016252
0.016252
0.016252
0.016252
0.016252
0.016252
0.016252
0.016252
0.016252
0.016252
0.016252
0.016252
0.016252
0.016252
0.0162519
0.0162519
0.0162519
0.0162519
0.0162519
0.0162519
0.0162519
0.0162519
0.0162518
0.0162518
0.0162517
0.0162517
0.0162516
0.0162514
0.0162512
0.0162508
0.0162501
0.016249
0.0162471
0.0162439
0.0162389
0.0162311
0.0162472
0.0162557
0.0162612
0.0162646
0.0162667
0.016268
0.0162688
0.0162692
0.0162695
0.0162696
0.0162698
0.0162698
0.0162699
0.0162699
0.0162699
0.01627
0.01627
0.01627
0.01627
0.01627
0.01627
0.01627
0.0162701
0.0162701
0.0162701
0.0162701
0.0162701
0.0162701
0.0162701
0.0162701
0.0162701
0.0162701
0.0162701
0.0162701
0.0162701
0.0162701
0.0162701
0.0162701
0.01627
0.01627
0.01627
0.01627
0.01627
0.01627
0.01627
0.0162699
0.0162699
0.0162699
0.0162698
0.0162698
0.0162696
0.0162695
0.0162692
0.0162688
0.016268
0.0162667
0.0162646
0.0162612
0.0162557
0.0162472
0.0164603
0.0164692
0.0164749
0.0164784
0.0164806
0.016482
0.0164827
0.0164832
0.0164835
0.0164837
0.0164838
0.0164839
0.0164839
0.016484
0.016484
0.016484
0.016484
0.016484
0.0164841
0.0164841
0.0164841
0.0164841
0.0164841
0.0164841
0.0164841
0.0164841
0.0164841
0.0164841
0.0164841
0.0164841
0.0164841
0.0164841
0.0164841
0.0164841
0.0164841
0.0164841
0.0164841
0.0164841
0.0164841
0.0164841
0.0164841
0.0164841
0.016484
0.016484
0.016484
0.016484
0.016484
0.0164839
0.0164839
0.0164838
0.0164837
0.0164835
0.0164832
0.0164827
0.016482
0.0164806
0.0164784
0.0164749
0.0164692
0.0164603
0.0167269
0.016736
0.0167419
0.0167456
0.0167479
0.0167492
0.01675
0.0167505
0.0167508
0.016751
0.0167511
0.0167512
0.0167513
0.0167513
0.0167513
0.0167514
0.0167514
0.0167514
0.0167514
0.0167514
0.0167514
0.0167514
0.0167515
0.0167515
0.0167515
0.0167515
0.0167515
0.0167515
0.0167515
0.0167515
0.0167515
0.0167515
0.0167515
0.0167515
0.0167515
0.0167515
0.0167515
0.0167515
0.0167514
0.0167514
0.0167514
0.0167514
0.0167514
0.0167514
0.0167514
0.0167513
0.0167513
0.0167513
0.0167512
0.0167511
0.016751
0.0167508
0.0167505
0.01675
0.0167492
0.0167479
0.0167456
0.0167419
0.016736
0.0167269
0.0170234
0.0170327
0.0170388
0.0170426
0.0170449
0.0170463
0.0170472
0.0170477
0.017048
0.0170482
0.0170483
0.0170484
0.0170484
0.0170485
0.0170485
0.0170485
0.0170485
0.0170486
0.0170486
0.0170486
0.0170486
0.0170486
0.0170486
0.0170486
0.0170486
0.0170487
0.0170487
0.0170487
0.0170487
0.0170487
0.0170487
0.0170487
0.0170487
0.0170487
0.0170487
0.0170486
0.0170486
0.0170486
0.0170486
0.0170486
0.0170486
0.0170486
0.0170486
0.0170485
0.0170485
0.0170485
0.0170485
0.0170484
0.0170484
0.0170483
0.0170482
0.017048
0.0170477
0.0170472
0.0170463
0.0170449
0.0170426
0.0170388
0.0170327
0.0170234
0.0173482
0.0173579
0.0173641
0.0173681
0.0173705
0.0173719
0.0173728
0.0173733
0.0173736
0.0173738
0.017374
0.017374
0.0173741
0.0173741
0.0173742
0.0173742
0.0173742
0.0173742
0.0173743
0.0173743
0.0173743
0.0173743
0.0173743
0.0173743
0.0173743
0.0173743
0.0173743
0.0173743
0.0173743
0.0173743
0.0173743
0.0173743
0.0173743
0.0173743
0.0173743
0.0173743
0.0173743
0.0173743
0.0173743
0.0173743
0.0173743
0.0173743
0.0173742
0.0173742
0.0173742
0.0173742
0.0173741
0.0173741
0.017374
0.017374
0.0173738
0.0173736
0.0173733
0.0173728
0.0173719
0.0173705
0.0173681
0.0173641
0.0173579
0.0173482
0.0177045
0.0177145
0.017721
0.0177251
0.0177276
0.0177291
0.01773
0.0177305
0.0177308
0.017731
0.0177312
0.0177313
0.0177313
0.0177314
0.0177314
0.0177314
0.0177314
0.0177315
0.0177315
0.0177315
0.0177315
0.0177315
0.0177315
0.0177315
0.0177316
0.0177316
0.0177316
0.0177316
0.0177316
0.0177316
0.0177316
0.0177316
0.0177316
0.0177316
0.0177316
0.0177316
0.0177315
0.0177315
0.0177315
0.0177315
0.0177315
0.0177315
0.0177315
0.0177314
0.0177314
0.0177314
0.0177314
0.0177313
0.0177313
0.0177312
0.017731
0.0177308
0.0177305
0.01773
0.0177291
0.0177276
0.0177251
0.017721
0.0177145
0.0177045
0.0180967
0.0181072
0.0181139
0.0181181
0.0181207
0.0181223
0.0181232
0.0181238
0.0181241
0.0181243
0.0181244
0.0181245
0.0181246
0.0181246
0.0181247
0.0181247
0.0181247
0.0181248
0.0181248
0.0181248
0.0181248
0.0181248
0.0181248
0.0181248
0.0181248
0.0181248
0.0181248
0.0181249
0.0181249
0.0181249
0.0181249
0.0181249
0.0181249
0.0181248
0.0181248
0.0181248
0.0181248
0.0181248
0.0181248
0.0181248
0.0181248
0.0181248
0.0181248
0.0181247
0.0181247
0.0181247
0.0181246
0.0181246
0.0181245
0.0181244
0.0181243
0.0181241
0.0181238
0.0181232
0.0181223
0.0181207
0.0181181
0.0181139
0.0181072
0.0180967
0.0185305
0.0185413
0.0185483
0.0185527
0.0185554
0.0185571
0.0185581
0.0185586
0.018559
0.0185592
0.0185594
0.0185594
0.0185595
0.0185596
0.0185596
0.0185596
0.0185596
0.0185597
0.0185597
0.0185597
0.0185597
0.0185597
0.0185597
0.0185597
0.0185598
0.0185598
0.0185598
0.0185598
0.0185598
0.0185598
0.0185598
0.0185598
0.0185598
0.0185598
0.0185598
0.0185598
0.0185597
0.0185597
0.0185597
0.0185597
0.0185597
0.0185597
0.0185597
0.0185596
0.0185596
0.0185596
0.0185596
0.0185595
0.0185594
0.0185594
0.0185592
0.018559
0.0185586
0.0185581
0.0185571
0.0185554
0.0185527
0.0185483
0.0185413
0.0185305
0.0190125
0.0190239
0.0190312
0.0190358
0.0190387
0.0190404
0.0190414
0.019042
0.0190424
0.0190426
0.0190428
0.0190429
0.0190429
0.019043
0.019043
0.0190431
0.0190431
0.0190431
0.0190431
0.0190431
0.0190431
0.0190432
0.0190432
0.0190432
0.0190432
0.0190432
0.0190432
0.0190432
0.0190432
0.0190432
0.0190432
0.0190432
0.0190432
0.0190432
0.0190432
0.0190432
0.0190432
0.0190432
0.0190432
0.0190431
0.0190431
0.0190431
0.0190431
0.0190431
0.0190431
0.019043
0.019043
0.0190429
0.0190429
0.0190428
0.0190426
0.0190424
0.019042
0.0190414
0.0190404
0.0190387
0.0190358
0.0190312
0.0190239
0.0190125
0.0195515
0.0195634
0.0195711
0.019576
0.0195789
0.0195807
0.0195818
0.0195825
0.0195829
0.0195831
0.0195832
0.0195834
0.0195834
0.0195835
0.0195835
0.0195835
0.0195836
0.0195836
0.0195836
0.0195836
0.0195836
0.0195837
0.0195837
0.0195837
0.0195837
0.0195837
0.0195837
0.0195837
0.0195837
0.0195837
0.0195837
0.0195837
0.0195837
0.0195837
0.0195837
0.0195837
0.0195837
0.0195837
0.0195837
0.0195836
0.0195836
0.0195836
0.0195836
0.0195836
0.0195835
0.0195835
0.0195835
0.0195834
0.0195834
0.0195832
0.0195831
0.0195829
0.0195825
0.0195818
0.0195807
0.0195789
0.019576
0.0195711
0.0195634
0.0195515
0.020158
0.0201706
0.0201787
0.0201839
0.020187
0.0201889
0.0201901
0.0201907
0.0201911
0.0201914
0.0201916
0.0201917
0.0201918
0.0201918
0.0201919
0.0201919
0.0201919
0.0201919
0.020192
0.020192
0.020192
0.020192
0.020192
0.020192
0.020192
0.0201921
0.0201921
0.0201921
0.0201921
0.0201921
0.0201921
0.0201921
0.0201921
0.0201921
0.0201921
0.020192
0.020192
0.020192
0.020192
0.020192
0.020192
0.020192
0.0201919
0.0201919
0.0201919
0.0201919
0.0201918
0.0201918
0.0201917
0.0201916
0.0201914
0.0201911
0.0201907
0.0201901
0.0201889
0.020187
0.0201839
0.0201787
0.0201706
0.020158
0.0208458
0.0208593
0.0208679
0.0208733
0.0208767
0.0208787
0.0208799
0.0208806
0.0208811
0.0208813
0.0208815
0.0208816
0.0208817
0.0208818
0.0208818
0.0208818
0.0208819
0.0208819
0.0208819
0.0208819
0.020882
0.020882
0.020882
0.020882
0.020882
0.020882
0.020882
0.020882
0.020882
0.020882
0.020882
0.020882
0.020882
0.020882
0.020882
0.020882
0.020882
0.020882
0.020882
0.020882
0.0208819
0.0208819
0.0208819
0.0208819
0.0208818
0.0208818
0.0208818
0.0208817
0.0208816
0.0208815
0.0208813
0.0208811
0.0208806
0.0208799
0.0208787
0.0208767
0.0208733
0.0208679
0.0208593
0.0208458
0.0216328
0.0216472
0.0216564
0.0216622
0.0216658
0.021668
0.0216693
0.0216701
0.0216705
0.0216708
0.021671
0.0216711
0.0216712
0.0216713
0.0216713
0.0216714
0.0216714
0.0216714
0.0216715
0.0216715
0.0216715
0.0216715
0.0216715
0.0216715
0.0216715
0.0216716
0.0216716
0.0216716
0.0216716
0.0216716
0.0216716
0.0216716
0.0216716
0.0216716
0.0216716
0.0216715
0.0216715
0.0216715
0.0216715
0.0216715
0.0216715
0.0216715
0.0216714
0.0216714
0.0216714
0.0216713
0.0216713
0.0216712
0.0216711
0.021671
0.0216708
0.0216705
0.0216701
0.0216693
0.021668
0.0216658
0.0216622
0.0216564
0.0216472
0.0216328
0.0225426
0.0225581
0.0225681
0.0225744
0.0225782
0.0225806
0.022582
0.0225828
0.0225833
0.0225836
0.0225839
0.022584
0.0225841
0.0225841
0.0225842
0.0225842
0.0225843
0.0225843
0.0225843
0.0225844
0.0225844
0.0225844
0.0225844
0.0225844
0.0225844
0.0225844
0.0225845
0.0225845
0.0225845
0.0225845
0.0225845
0.0225845
0.0225845
0.0225845
0.0225844
0.0225844
0.0225844
0.0225844
0.0225844
0.0225844
0.0225844
0.0225843
0.0225843
0.0225843
0.0225842
0.0225842
0.0225841
0.0225841
0.022584
0.0225839
0.0225836
0.0225833
0.0225828
0.022582
0.0225806
0.0225782
0.0225744
0.0225681
0.0225581
0.0225426
0.0236074
0.0236243
0.0236351
0.023642
0.0236462
0.0236488
0.0236503
0.0236512
0.0236518
0.0236521
0.0236524
0.0236525
0.0236526
0.0236527
0.0236527
0.0236528
0.0236528
0.0236529
0.0236529
0.0236529
0.0236529
0.0236529
0.023653
0.023653
0.023653
0.023653
0.023653
0.023653
0.023653
0.023653
0.023653
0.023653
0.023653
0.023653
0.023653
0.023653
0.023653
0.023653
0.0236529
0.0236529
0.0236529
0.0236529
0.0236529
0.0236528
0.0236528
0.0236527
0.0236527
0.0236526
0.0236525
0.0236524
0.0236521
0.0236518
0.0236512
0.0236503
0.0236488
0.0236462
0.023642
0.0236351
0.0236243
0.0236074
0.0248718
0.0248905
0.0249025
0.0249101
0.0249148
0.0249176
0.0249193
0.0249203
0.0249209
0.0249213
0.0249215
0.0249217
0.0249218
0.0249219
0.024922
0.024922
0.0249221
0.0249221
0.0249221
0.0249222
0.0249222
0.0249222
0.0249222
0.0249222
0.0249223
0.0249223
0.0249223
0.0249223
0.0249223
0.0249223
0.0249223
0.0249223
0.0249223
0.0249223
0.0249223
0.0249223
0.0249222
0.0249222
0.0249222
0.0249222
0.0249222
0.0249221
0.0249221
0.0249221
0.024922
0.024922
0.0249219
0.0249218
0.0249217
0.0249215
0.0249213
0.0249209
0.0249203
0.0249193
0.0249176
0.0249148
0.0249101
0.0249025
0.0248905
0.0248718
0.0264002
0.0264212
0.0264346
0.0264432
0.0264484
0.0264516
0.0264535
0.0264547
0.0264554
0.0264558
0.0264561
0.0264563
0.0264564
0.0264565
0.0264566
0.0264566
0.0264567
0.0264567
0.0264567
0.0264568
0.0264568
0.0264568
0.0264569
0.0264569
0.0264569
0.0264569
0.0264569
0.0264569
0.0264569
0.0264569
0.0264569
0.0264569
0.0264569
0.0264569
0.0264569
0.0264569
0.0264569
0.0264569
0.0264568
0.0264568
0.0264568
0.0264567
0.0264567
0.0264567
0.0264566
0.0264566
0.0264565
0.0264564
0.0264563
0.0264561
0.0264558
0.0264554
0.0264547
0.0264535
0.0264516
0.0264484
0.0264432
0.0264346
0.0264212
0.0264002
0.0282876
0.0283116
0.028327
0.0283369
0.0283429
0.0283466
0.0283488
0.0283501
0.0283509
0.0283514
0.0283517
0.0283519
0.0283521
0.0283522
0.0283522
0.0283523
0.0283524
0.0283524
0.0283525
0.0283525
0.0283525
0.0283526
0.0283526
0.0283526
0.0283526
0.0283526
0.0283527
0.0283527
0.0283527
0.0283527
0.0283527
0.0283527
0.0283527
0.0283527
0.0283526
0.0283526
0.0283526
0.0283526
0.0283526
0.0283525
0.0283525
0.0283525
0.0283524
0.0283524
0.0283523
0.0283522
0.0283522
0.0283521
0.0283519
0.0283517
0.0283514
0.0283509
0.0283501
0.0283488
0.0283466
0.0283429
0.0283369
0.028327
0.0283116
0.0282876
0.0306786
0.0307067
0.0307249
0.0307365
0.0307436
0.0307479
0.0307505
0.030752
0.030753
0.0307536
0.030754
0.0307542
0.0307544
0.0307545
0.0307546
0.0307547
0.0307547
0.0307548
0.0307548
0.0307549
0.0307549
0.030755
0.030755
0.030755
0.030755
0.0307551
0.0307551
0.0307551
0.0307551
0.0307551
0.0307551
0.0307551
0.0307551
0.0307551
0.0307551
0.030755
0.030755
0.030755
0.030755
0.0307549
0.0307549
0.0307548
0.0307548
0.0307547
0.0307547
0.0307546
0.0307545
0.0307544
0.0307542
0.030754
0.0307536
0.030753
0.030752
0.0307505
0.0307479
0.0307436
0.0307365
0.0307249
0.0307067
0.0306786
0.0337949
0.0338289
0.033851
0.033865
0.0338737
0.0338789
0.0338821
0.033884
0.0338851
0.0338859
0.0338863
0.0338866
0.0338868
0.033887
0.0338871
0.0338872
0.0338873
0.0338873
0.0338874
0.0338875
0.0338875
0.0338875
0.0338876
0.0338876
0.0338876
0.0338877
0.0338877
0.0338877
0.0338877
0.0338877
0.0338877
0.0338877
0.0338877
0.0338877
0.0338877
0.0338876
0.0338876
0.0338876
0.0338875
0.0338875
0.0338875
0.0338874
0.0338873
0.0338873
0.0338872
0.0338871
0.033887
0.0338868
0.0338866
0.0338863
0.0338859
0.0338851
0.033884
0.0338821
0.0338789
0.0338737
0.033865
0.033851
0.0338289
0.0337949
0.0379685
0.038011
0.0380387
0.0380563
0.0380672
0.0380738
0.0380778
0.0380802
0.0380816
0.0380825
0.0380831
0.0380835
0.0380837
0.0380839
0.0380841
0.0380842
0.0380843
0.0380844
0.0380844
0.0380845
0.0380846
0.0380846
0.0380847
0.0380847
0.0380848
0.0380848
0.0380848
0.0380848
0.0380848
0.0380848
0.0380848
0.0380848
0.0380848
0.0380848
0.0380848
0.0380848
0.0380847
0.0380847
0.0380846
0.0380846
0.0380845
0.0380844
0.0380844
0.0380843
0.0380842
0.0380841
0.0380839
0.0380837
0.0380835
0.0380831
0.0380825
0.0380816
0.0380802
0.0380778
0.0380738
0.0380672
0.0380563
0.0380387
0.038011
0.0379685
0.0436582
0.0437126
0.0437482
0.0437709
0.043785
0.0437935
0.0437986
0.0438017
0.0438035
0.0438047
0.0438054
0.0438059
0.0438063
0.0438065
0.0438067
0.0438069
0.043807
0.0438071
0.0438072
0.0438073
0.0438074
0.0438075
0.0438075
0.0438076
0.0438076
0.0438077
0.0438077
0.0438077
0.0438077
0.0438077
0.0438077
0.0438077
0.0438077
0.0438077
0.0438077
0.0438076
0.0438076
0.0438075
0.0438075
0.0438074
0.0438073
0.0438072
0.0438071
0.043807
0.0438069
0.0438067
0.0438065
0.0438063
0.0438059
0.0438054
0.0438047
0.0438035
0.0438017
0.0437986
0.0437935
0.043785
0.0437709
0.0437482
0.0437126
0.0436582
0.0514047
0.0514751
0.0515214
0.0515509
0.0515692
0.0515803
0.051587
0.051591
0.0515934
0.0515949
0.0515959
0.0515965
0.051597
0.0515973
0.0515976
0.0515978
0.0515979
0.0515981
0.0515982
0.0515983
0.0515984
0.0515985
0.0515986
0.0515987
0.0515987
0.0515988
0.0515988
0.0515988
0.0515989
0.0515989
0.0515989
0.0515989
0.0515988
0.0515988
0.0515988
0.0515987
0.0515987
0.0515986
0.0515985
0.0515984
0.0515983
0.0515982
0.0515981
0.0515979
0.0515978
0.0515976
0.0515973
0.051597
0.0515965
0.0515959
0.0515949
0.0515934
0.051591
0.051587
0.0515803
0.0515692
0.0515509
0.0515214
0.0514751
0.0514047
0.0616879
0.0617781
0.0618374
0.0618754
0.0618989
0.0619131
0.0619217
0.0619269
0.06193
0.061932
0.0619332
0.0619341
0.0619347
0.0619351
0.0619354
0.0619357
0.0619359
0.0619361
0.0619362
0.0619364
0.0619365
0.0619366
0.0619367
0.0619368
0.0619369
0.0619369
0.061937
0.061937
0.0619371
0.0619371
0.0619371
0.0619371
0.061937
0.061937
0.0619369
0.0619369
0.0619368
0.0619367
0.0619366
0.0619365
0.0619364
0.0619362
0.0619361
0.0619359
0.0619357
0.0619354
0.0619351
0.0619347
0.0619341
0.0619332
0.061932
0.06193
0.0619269
0.0619217
0.0619131
0.0618989
0.0618754
0.0618374
0.0617781
0.0616879
0.074723
0.0748352
0.074909
0.0749562
0.0749855
0.0750033
0.075014
0.0750205
0.0750244
0.0750269
0.0750284
0.0750295
0.0750302
0.0750307
0.0750311
0.0750314
0.0750317
0.0750319
0.0750321
0.0750323
0.0750325
0.0750326
0.0750327
0.0750329
0.0750329
0.075033
0.0750331
0.0750331
0.0750332
0.0750332
0.0750332
0.0750332
0.0750331
0.0750331
0.075033
0.0750329
0.0750329
0.0750327
0.0750326
0.0750325
0.0750323
0.0750321
0.0750319
0.0750317
0.0750314
0.0750311
0.0750307
0.0750302
0.0750295
0.0750284
0.0750269
0.0750244
0.0750205
0.075014
0.0750033
0.0749855
0.0749562
0.074909
0.0748352
0.074723
0.0903337
0.0904679
0.0905561
0.0906126
0.0906476
0.090669
0.0906819
0.0906897
0.0906945
0.0906974
0.0906993
0.0907006
0.0907014
0.0907021
0.0907025
0.0907029
0.0907032
0.0907035
0.0907037
0.0907039
0.0907041
0.0907043
0.0907044
0.0907046
0.0907047
0.0907048
0.0907048
0.0907049
0.0907049
0.090705
0.090705
0.0907049
0.0907049
0.0907048
0.0907048
0.0907047
0.0907046
0.0907044
0.0907043
0.0907041
0.0907039
0.0907037
0.0907035
0.0907032
0.0907029
0.0907025
0.0907021
0.0907014
0.0907006
0.0906993
0.0906974
0.0906945
0.0906897
0.0906819
0.090669
0.0906476
0.0906126
0.0905561
0.0904679
0.0903337
0.108017
0.108171
0.108273
0.108338
0.108378
0.108403
0.108418
0.108427
0.108433
0.108436
0.108438
0.10844
0.108441
0.108441
0.108442
0.108442
0.108443
0.108443
0.108443
0.108444
0.108444
0.108444
0.108444
0.108444
0.108444
0.108445
0.108445
0.108445
0.108445
0.108445
0.108445
0.108445
0.108445
0.108445
0.108445
0.108444
0.108444
0.108444
0.108444
0.108444
0.108444
0.108443
0.108443
0.108443
0.108442
0.108442
0.108441
0.108441
0.10844
0.108438
0.108436
0.108433
0.108427
0.108418
0.108403
0.108378
0.108338
0.108273
0.108171
0.108017
0.127151
0.127323
0.127436
0.127509
0.127554
0.127582
0.127599
0.127609
0.127615
0.127619
0.127622
0.127623
0.127625
0.127625
0.127626
0.127627
0.127627
0.127627
0.127628
0.127628
0.127628
0.127628
0.127628
0.127629
0.127629
0.127629
0.127629
0.127629
0.127629
0.127629
0.127629
0.127629
0.127629
0.127629
0.127629
0.127629
0.127629
0.127628
0.127628
0.127628
0.127628
0.127628
0.127627
0.127627
0.127627
0.127626
0.127625
0.127625
0.127623
0.127622
0.127619
0.127615
0.127609
0.127599
0.127582
0.127554
0.127509
0.127436
0.127323
0.127151
0.147188
0.147376
0.1475
0.14758
0.147629
0.14766
0.147678
0.14769
0.147697
0.147701
0.147704
0.147706
0.147707
0.147708
0.147709
0.147709
0.147709
0.14771
0.14771
0.14771
0.147711
0.147711
0.147711
0.147711
0.147711
0.147712
0.147712
0.147712
0.147712
0.147712
0.147712
0.147712
0.147712
0.147712
0.147712
0.147711
0.147711
0.147711
0.147711
0.147711
0.14771
0.14771
0.14771
0.147709
0.147709
0.147709
0.147708
0.147707
0.147706
0.147704
0.147701
0.147697
0.14769
0.147678
0.14766
0.147629
0.14758
0.1475
0.147376
0.147188
0.167739
0.167941
0.168075
0.168161
0.168214
0.168248
0.168268
0.16828
0.168288
0.168293
0.168296
0.168298
0.168299
0.1683
0.168301
0.168301
0.168302
0.168302
0.168303
0.168303
0.168303
0.168303
0.168304
0.168304
0.168304
0.168304
0.168304
0.168304
0.168304
0.168304
0.168304
0.168304
0.168304
0.168304
0.168304
0.168304
0.168304
0.168304
0.168303
0.168303
0.168303
0.168303
0.168302
0.168302
0.168301
0.168301
0.1683
0.168299
0.168298
0.168296
0.168293
0.168288
0.16828
0.168268
0.168248
0.168214
0.168161
0.168075
0.167941
0.167739
0.188558
0.188773
0.188915
0.189007
0.189065
0.189101
0.189123
0.189136
0.189144
0.18915
0.189153
0.189155
0.189157
0.189158
0.189158
0.189159
0.18916
0.18916
0.18916
0.189161
0.189161
0.189161
0.189161
0.189161
0.189162
0.189162
0.189162
0.189162
0.189162
0.189162
0.189162
0.189162
0.189162
0.189162
0.189162
0.189162
0.189161
0.189161
0.189161
0.189161
0.189161
0.18916
0.18916
0.18916
0.189159
0.189158
0.189158
0.189157
0.189155
0.189153
0.18915
0.189144
0.189136
0.189123
0.189101
0.189065
0.189007
0.188915
0.188773
0.188558
0.209496
0.209723
0.209874
0.209972
0.210033
0.210072
0.210095
0.21011
0.210119
0.210124
0.210128
0.210131
0.210132
0.210133
0.210134
0.210135
0.210135
0.210136
0.210136
0.210136
0.210137
0.210137
0.210137
0.210137
0.210137
0.210138
0.210138
0.210138
0.210138
0.210138
0.210138
0.210138
0.210138
0.210138
0.210138
0.210137
0.210137
0.210137
0.210137
0.210137
0.210136
0.210136
0.210136
0.210135
0.210135
0.210134
0.210133
0.210132
0.210131
0.210128
0.210124
0.210119
0.21011
0.210095
0.210072
0.210033
0.209972
0.209874
0.209723
0.209496
0.230463
0.230701
0.23086
0.230963
0.231029
0.23107
0.231095
0.23111
0.23112
0.231126
0.23113
0.231133
0.231135
0.231136
0.231137
0.231137
0.231138
0.231138
0.231139
0.231139
0.231139
0.23114
0.23114
0.23114
0.23114
0.23114
0.23114
0.23114
0.23114
0.231141
0.231141
0.23114
0.23114
0.23114
0.23114
0.23114
0.23114
0.23114
0.23114
0.231139
0.231139
0.231139
0.231138
0.231138
0.231137
0.231137
0.231136
0.231135
0.231133
0.23113
0.231126
0.23112
0.23111
0.231095
0.23107
0.231029
0.230963
0.23086
0.230701
0.230463
0.251396
0.251645
0.251811
0.25192
0.251989
0.252033
0.25206
0.252076
0.252087
0.252093
0.252098
0.2521
0.252102
0.252104
0.252105
0.252105
0.252106
0.252106
0.252107
0.252107
0.252107
0.252108
0.252108
0.252108
0.252108
0.252108
0.252108
0.252109
0.252109
0.252109
0.252109
0.252109
0.252109
0.252108
0.252108
0.252108
0.252108
0.252108
0.252108
0.252107
0.252107
0.252107
0.252106
0.252106
0.252105
0.252105
0.252104
0.252102
0.2521
0.252098
0.252093
0.252087
0.252076
0.25206
0.252033
0.251989
0.25192
0.251811
0.251645
0.251396
0.27225
0.272509
0.272683
0.272797
0.27287
0.272916
0.272944
0.272962
0.272974
0.272981
0.272985
0.272988
0.27299
0.272992
0.272993
0.272994
0.272994
0.272995
0.272995
0.272995
0.272996
0.272996
0.272996
0.272996
0.272996
0.272997
0.272997
0.272997
0.272997
0.272997
0.272997
0.272997
0.272997
0.272997
0.272997
0.272996
0.272996
0.272996
0.272996
0.272996
0.272995
0.272995
0.272995
0.272994
0.272994
0.272993
0.272992
0.27299
0.272988
0.272985
0.272981
0.272974
0.272962
0.272944
0.272916
0.27287
0.272797
0.272683
0.272509
0.27225
0.292989
0.293257
0.293438
0.293557
0.293634
0.293683
0.293713
0.293732
0.293744
0.293752
0.293757
0.29376
0.293762
0.293764
0.293765
0.293766
0.293766
0.293767
0.293767
0.293768
0.293768
0.293768
0.293768
0.293769
0.293769
0.293769
0.293769
0.293769
0.293769
0.293769
0.293769
0.293769
0.293769
0.293769
0.293769
0.293769
0.293769
0.293768
0.293768
0.293768
0.293768
0.293767
0.293767
0.293766
0.293766
0.293765
0.293764
0.293762
0.29376
0.293757
0.293752
0.293744
0.293732
0.293713
0.293683
0.293634
0.293557
0.293438
0.293257
0.292989
0.313583
0.313859
0.314047
0.314171
0.314252
0.314303
0.314335
0.314356
0.314369
0.314377
0.314382
0.314385
0.314388
0.314389
0.314391
0.314392
0.314392
0.314393
0.314393
0.314394
0.314394
0.314394
0.314394
0.314394
0.314395
0.314395
0.314395
0.314395
0.314395
0.314395
0.314395
0.314395
0.314395
0.314395
0.314395
0.314395
0.314394
0.314394
0.314394
0.314394
0.314394
0.314393
0.314393
0.314392
0.314392
0.314391
0.314389
0.314388
0.314385
0.314382
0.314377
0.314369
0.314356
0.314335
0.314303
0.314252
0.314171
0.314047
0.313859
0.313583
0.334004
0.334288
0.334483
0.334612
0.334697
0.33475
0.334785
0.334806
0.33482
0.334828
0.334834
0.334838
0.33484
0.334842
0.334843
0.334844
0.334845
0.334846
0.334846
0.334846
0.334847
0.334847
0.334847
0.334847
0.334847
0.334848
0.334848
0.334848
0.334848
0.334848
0.334848
0.334848
0.334848
0.334848
0.334848
0.334847
0.334847
0.334847
0.334847
0.334847
0.334846
0.334846
0.334846
0.334845
0.334844
0.334843
0.334842
0.33484
0.334838
0.334834
0.334828
0.33482
0.334806
0.334785
0.33475
0.334697
0.334612
0.334483
0.334288
0.334004
0.35423
0.354521
0.354722
0.354856
0.354944
0.355001
0.355037
0.355059
0.355074
0.355083
0.355089
0.355093
0.355096
0.355098
0.355099
0.3551
0.355101
0.355102
0.355102
0.355102
0.355103
0.355103
0.355103
0.355103
0.355104
0.355104
0.355104
0.355104
0.355104
0.355104
0.355104
0.355104
0.355104
0.355104
0.355104
0.355104
0.355103
0.355103
0.355103
0.355103
0.355102
0.355102
0.355102
0.355101
0.3551
0.355099
0.355098
0.355096
0.355093
0.355089
0.355083
0.355074
0.355059
0.355037
0.355001
0.354944
0.354856
0.354722
0.354521
0.35423
0.374239
0.374536
0.374742
0.374882
0.374973
0.375032
0.37507
0.375094
0.37511
0.37512
0.375126
0.37513
0.375133
0.375135
0.375137
0.375138
0.375139
0.375139
0.37514
0.37514
0.37514
0.375141
0.375141
0.375141
0.375141
0.375141
0.375141
0.375141
0.375142
0.375142
0.375142
0.375142
0.375141
0.375141
0.375141
0.375141
0.375141
0.375141
0.375141
0.37514
0.37514
0.37514
0.375139
0.375139
0.375138
0.375137
0.375135
0.375133
0.37513
0.375126
0.37512
0.37511
0.375094
0.37507
0.375032
0.374973
0.374882
0.374742
0.374536
0.374239
0.39401
0.394313
0.394525
0.394669
0.394764
0.394826
0.394865
0.394891
0.394907
0.394918
0.394925
0.394929
0.394932
0.394935
0.394936
0.394937
0.394938
0.394939
0.394939
0.39494
0.39494
0.39494
0.39494
0.394941
0.394941
0.394941
0.394941
0.394941
0.394941
0.394941
0.394941
0.394941
0.394941
0.394941
0.394941
0.394941
0.394941
0.39494
0.39494
0.39494
0.39494
0.394939
0.394939
0.394938
0.394937
0.394936
0.394935
0.394932
0.394929
0.394925
0.394918
0.394907
0.394891
0.394865
0.394826
0.394764
0.394669
0.394525
0.394313
0.39401
0.413527
0.413835
0.414052
0.414199
0.414298
0.414362
0.414404
0.414431
0.414448
0.41446
0.414467
0.414472
0.414475
0.414478
0.414479
0.41448
0.414481
0.414482
0.414482
0.414483
0.414483
0.414483
0.414484
0.414484
0.414484
0.414484
0.414484
0.414484
0.414484
0.414484
0.414484
0.414484
0.414484
0.414484
0.414484
0.414484
0.414484
0.414484
0.414483
0.414483
0.414483
0.414482
0.414482
0.414481
0.41448
0.414479
0.414478
0.414475
0.414472
0.414467
0.41446
0.414448
0.414431
0.414404
0.414362
0.414298
0.414199
0.414052
0.413835
0.413527
0.432771
0.433084
0.433305
0.433457
0.433559
0.433626
0.43367
0.433698
0.433717
0.433729
0.433737
0.433742
0.433745
0.433748
0.43375
0.433751
0.433752
0.433752
0.433753
0.433753
0.433754
0.433754
0.433754
0.433754
0.433755
0.433755
0.433755
0.433755
0.433755
0.433755
0.433755
0.433755
0.433755
0.433755
0.433755
0.433755
0.433754
0.433754
0.433754
0.433754
0.433753
0.433753
0.433752
0.433752
0.433751
0.43375
0.433748
0.433745
0.433742
0.433737
0.433729
0.433717
0.433698
0.43367
0.433626
0.433559
0.433457
0.433305
0.433084
0.432771
0.451729
0.452045
0.452271
0.452427
0.452532
0.452602
0.452648
0.452677
0.452697
0.45271
0.452718
0.452724
0.452728
0.45273
0.452732
0.452733
0.452734
0.452735
0.452735
0.452736
0.452736
0.452736
0.452737
0.452737
0.452737
0.452737
0.452737
0.452737
0.452737
0.452737
0.452737
0.452737
0.452737
0.452737
0.452737
0.452737
0.452737
0.452737
0.452736
0.452736
0.452736
0.452735
0.452735
0.452734
0.452733
0.452732
0.45273
0.452728
0.452724
0.452718
0.45271
0.452697
0.452677
0.452648
0.452602
0.452532
0.452427
0.452271
0.452045
0.451729
0.470386
0.470705
0.470935
0.471095
0.471203
0.471276
0.471323
0.471354
0.471375
0.471388
0.471397
0.471403
0.471407
0.47141
0.471412
0.471414
0.471415
0.471415
0.471416
0.471416
0.471417
0.471417
0.471417
0.471417
0.471417
0.471418
0.471418
0.471418
0.471418
0.471418
0.471418
0.471418
0.471418
0.471418
0.471418
0.471417
0.471417
0.471417
0.471417
0.471417
0.471416
0.471416
0.471415
0.471415
0.471414
0.471412
0.47141
0.471407
0.471403
0.471397
0.471388
0.471375
0.471354
0.471323
0.471276
0.471203
0.471095
0.470935
0.470705
0.470386
0.48873
0.489051
0.489284
0.489448
0.489559
0.489634
0.489684
0.489717
0.489738
0.489752
0.489762
0.489768
0.489773
0.489776
0.489778
0.489779
0.48978
0.489781
0.489782
0.489782
0.489782
0.489783
0.489783
0.489783
0.489783
0.489783
0.489783
0.489783
0.489783
0.489783
0.489783
0.489783
0.489783
0.489783
0.489783
0.489783
0.489783
0.489783
0.489783
0.489782
0.489782
0.489782
0.489781
0.48978
0.489779
0.489778
0.489776
0.489773
0.489768
0.489762
0.489752
0.489738
0.489717
0.489684
0.489634
0.489559
0.489448
0.489284
0.489051
0.48873
0.506748
0.507072
0.507308
0.507474
0.507589
0.507666
0.507718
0.507752
0.507775
0.50779
0.5078
0.507807
0.507811
0.507815
0.507817
0.507818
0.50782
0.50782