/*--------------------------------*- C++ -*----------------------------------*\
| =========                 |                                                 |
| \\      /  F ield         | foam-extend: Open Source CFD                    |
|  \\    /   O peration     | Version:     4.0                                |
|   \\  /    A nd           | Web:         http://www.foam-extend.org         |
|    \\/     M anipulation  |                                                 |
\*---------------------------------------------------------------------------*/
FoamFile
{
    version     2.0;
    format      ascii;
    class       volScalarField;
    location    "710";
    object      cPlus;
}
// * * * * * * * * * * * * * * * * * * * * * * * * * * * * * * * * * * * * * //

dimensions      [0 0 0 0 0 0 0];

internalField   nonuniform List<scalar> 
6960
(
0.291307
0.291281
0.291252
0.291226
0.291204
0.291185
0.29117
0.291158
0.291148
0.29114
0.291133
0.291128
0.291124
0.291121
0.291119
0.291117
0.291115
0.291114
0.291113
0.291112
0.291112
0.291111
0.291111
0.291111
0.291111
0.29111
0.29111
0.29111
0.29111
0.29111
0.29111
0.29111
0.29111
0.29111
0.29111
0.291111
0.291111
0.291111
0.291111
0.291112
0.291112
0.291113
0.291114
0.291115
0.291117
0.291119
0.291121
0.291124
0.291128
0.291133
0.29114
0.291148
0.291158
0.29117
0.291185
0.291204
0.291226
0.291252
0.291281
0.291307
0.0847488
0.084734
0.0847172
0.0847019
0.0846887
0.0846777
0.0846686
0.0846613
0.0846554
0.0846506
0.0846469
0.0846439
0.0846415
0.0846397
0.0846382
0.0846371
0.0846362
0.0846355
0.0846349
0.0846345
0.0846341
0.0846339
0.0846337
0.0846335
0.0846334
0.0846333
0.0846332
0.0846332
0.0846331
0.0846331
0.0846331
0.0846331
0.0846332
0.0846332
0.0846333
0.0846334
0.0846335
0.0846337
0.0846339
0.0846341
0.0846345
0.0846349
0.0846355
0.0846362
0.0846371
0.0846382
0.0846397
0.0846415
0.0846439
0.0846469
0.0846506
0.0846554
0.0846613
0.0846686
0.0846777
0.0846887
0.0847019
0.0847172
0.084734
0.0847488
0.0308765
0.0308707
0.0308636
0.0308571
0.0308515
0.0308468
0.0308429
0.0308398
0.0308372
0.0308352
0.0308336
0.0308323
0.0308313
0.0308305
0.0308298
0.0308293
0.030829
0.0308286
0.0308284
0.0308282
0.0308281
0.0308279
0.0308279
0.0308278
0.0308277
0.0308277
0.0308277
0.0308276
0.0308276
0.0308276
0.0308276
0.0308276
0.0308276
0.0308277
0.0308277
0.0308277
0.0308278
0.0308279
0.0308279
0.0308281
0.0308282
0.0308284
0.0308286
0.030829
0.0308293
0.0308298
0.0308305
0.0308313
0.0308323
0.0308336
0.0308352
0.0308372
0.0308398
0.0308429
0.0308468
0.0308515
0.0308571
0.0308636
0.0308707
0.0308765
0.0149901
0.0149892
0.0149875
0.0149859
0.0149845
0.0149833
0.0149823
0.0149815
0.0149808
0.0149803
0.0149799
0.0149795
0.0149793
0.0149791
0.0149789
0.0149787
0.0149786
0.0149786
0.0149785
0.0149784
0.0149784
0.0149784
0.0149783
0.0149783
0.0149783
0.0149783
0.0149783
0.0149783
0.0149783
0.0149783
0.0149783
0.0149783
0.0149783
0.0149783
0.0149783
0.0149783
0.0149783
0.0149783
0.0149784
0.0149784
0.0149784
0.0149785
0.0149786
0.0149786
0.0149787
0.0149789
0.0149791
0.0149793
0.0149795
0.0149799
0.0149803
0.0149808
0.0149815
0.0149823
0.0149833
0.0149845
0.0149859
0.0149875
0.0149892
0.0149901
0.0102573
0.0102587
0.0102596
0.0102603
0.0102608
0.0102613
0.0102616
0.0102619
0.0102621
0.0102622
0.0102624
0.0102625
0.0102625
0.0102626
0.0102626
0.0102627
0.0102627
0.0102627
0.0102627
0.0102627
0.0102627
0.0102627
0.0102627
0.0102627
0.0102627
0.0102628
0.0102628
0.0102628
0.0102628
0.0102628
0.0102628
0.0102628
0.0102628
0.0102628
0.0102628
0.0102627
0.0102627
0.0102627
0.0102627
0.0102627
0.0102627
0.0102627
0.0102627
0.0102627
0.0102627
0.0102626
0.0102626
0.0102625
0.0102625
0.0102624
0.0102622
0.0102621
0.0102619
0.0102616
0.0102613
0.0102608
0.0102603
0.0102596
0.0102587
0.0102573
0.00890954
0.00891192
0.00891384
0.00891546
0.0089168
0.00891791
0.0089188
0.00891952
0.00892009
0.00892055
0.0089209
0.00892118
0.0089214
0.00892157
0.0089217
0.0089218
0.00892188
0.00892194
0.00892199
0.00892202
0.00892205
0.00892208
0.00892209
0.00892211
0.00892212
0.00892212
0.00892213
0.00892213
0.00892213
0.00892214
0.00892214
0.00892213
0.00892213
0.00892213
0.00892212
0.00892212
0.00892211
0.00892209
0.00892208
0.00892205
0.00892202
0.00892199
0.00892194
0.00892188
0.0089218
0.0089217
0.00892157
0.0089214
0.00892118
0.0089209
0.00892055
0.00892009
0.00891952
0.0089188
0.00891791
0.0089168
0.00891546
0.00891384
0.00891192
0.00890954
0.0085807
0.00858347
0.00858581
0.0085878
0.00858946
0.00859083
0.00859195
0.00859284
0.00859356
0.00859412
0.00859457
0.00859492
0.00859519
0.00859541
0.00859557
0.0085957
0.00859581
0.00859588
0.00859595
0.00859599
0.00859603
0.00859606
0.00859608
0.0085961
0.00859611
0.00859612
0.00859613
0.00859613
0.00859613
0.00859614
0.00859614
0.00859613
0.00859613
0.00859613
0.00859612
0.00859611
0.0085961
0.00859608
0.00859606
0.00859603
0.00859599
0.00859595
0.00859588
0.00859581
0.0085957
0.00859557
0.00859541
0.00859519
0.00859492
0.00859457
0.00859412
0.00859356
0.00859284
0.00859195
0.00859083
0.00858946
0.0085878
0.00858581
0.00858347
0.0085807
0.00855406
0.008557
0.00855952
0.00856166
0.00856345
0.00856493
0.00856614
0.00856711
0.00856788
0.0085685
0.00856898
0.00856936
0.00856966
0.00856989
0.00857007
0.00857021
0.00857032
0.00857041
0.00857047
0.00857052
0.00857056
0.0085706
0.00857062
0.00857064
0.00857065
0.00857066
0.00857067
0.00857068
0.00857068
0.00857068
0.00857068
0.00857068
0.00857068
0.00857067
0.00857066
0.00857065
0.00857064
0.00857062
0.0085706
0.00857056
0.00857052
0.00857047
0.00857041
0.00857032
0.00857021
0.00857007
0.00856989
0.00856966
0.00856936
0.00856898
0.0085685
0.00856788
0.00856711
0.00856614
0.00856493
0.00856345
0.00856166
0.00855952
0.008557
0.00855406
0.00861781
0.00862085
0.00862345
0.00862567
0.00862753
0.00862907
0.00863032
0.00863133
0.00863213
0.00863277
0.00863327
0.00863366
0.00863397
0.00863421
0.0086344
0.00863455
0.00863466
0.00863475
0.00863482
0.00863488
0.00863492
0.00863495
0.00863498
0.008635
0.00863501
0.00863502
0.00863503
0.00863504
0.00863504
0.00863504
0.00863504
0.00863504
0.00863504
0.00863503
0.00863502
0.00863501
0.008635
0.00863498
0.00863495
0.00863492
0.00863488
0.00863482
0.00863475
0.00863466
0.00863455
0.0086344
0.00863421
0.00863397
0.00863366
0.00863327
0.00863277
0.00863213
0.00863133
0.00863032
0.00862907
0.00862753
0.00862567
0.00862345
0.00862085
0.00861781
0.00871149
0.00871461
0.00871727
0.00871955
0.00872145
0.00872303
0.00872431
0.00872534
0.00872617
0.00872682
0.00872734
0.00872774
0.00872806
0.00872831
0.0087285
0.00872865
0.00872877
0.00872886
0.00872893
0.00872899
0.00872903
0.00872907
0.00872909
0.00872911
0.00872913
0.00872914
0.00872915
0.00872915
0.00872916
0.00872916
0.00872916
0.00872916
0.00872915
0.00872915
0.00872914
0.00872913
0.00872911
0.00872909
0.00872907
0.00872903
0.00872899
0.00872893
0.00872886
0.00872877
0.00872865
0.0087285
0.00872831
0.00872806
0.00872774
0.00872734
0.00872682
0.00872617
0.00872534
0.00872431
0.00872303
0.00872145
0.00871955
0.00871727
0.00871461
0.00871149
0.00881876
0.00882194
0.00882466
0.00882699
0.00882894
0.00883055
0.00883186
0.00883292
0.00883376
0.00883443
0.00883496
0.00883538
0.0088357
0.00883595
0.00883615
0.00883631
0.00883643
0.00883652
0.0088366
0.00883665
0.0088367
0.00883673
0.00883676
0.00883678
0.00883679
0.00883681
0.00883681
0.00883682
0.00883682
0.00883683
0.00883683
0.00883682
0.00883682
0.00883681
0.00883681
0.00883679
0.00883678
0.00883676
0.00883673
0.0088367
0.00883665
0.0088366
0.00883652
0.00883643
0.00883631
0.00883615
0.00883595
0.0088357
0.00883538
0.00883496
0.00883443
0.00883376
0.00883292
0.00883186
0.00883055
0.00882894
0.00882699
0.00882466
0.00882194
0.00881876
0.00893578
0.00893903
0.00894182
0.0089442
0.00894619
0.00894784
0.00894918
0.00895026
0.00895112
0.00895181
0.00895235
0.00895277
0.00895311
0.00895337
0.00895357
0.00895373
0.00895385
0.00895395
0.00895402
0.00895408
0.00895413
0.00895416
0.00895419
0.00895421
0.00895423
0.00895424
0.00895425
0.00895425
0.00895426
0.00895426
0.00895426
0.00895426
0.00895425
0.00895425
0.00895424
0.00895423
0.00895421
0.00895419
0.00895416
0.00895413
0.00895408
0.00895402
0.00895395
0.00895385
0.00895373
0.00895357
0.00895337
0.00895311
0.00895277
0.00895235
0.00895181
0.00895112
0.00895026
0.00894918
0.00894784
0.00894619
0.0089442
0.00894182
0.00893903
0.00893578
0.00906221
0.00906554
0.00906839
0.00907083
0.00907287
0.00907456
0.00907593
0.00907704
0.00907792
0.00907862
0.00907918
0.00907961
0.00907996
0.00908022
0.00908043
0.00908059
0.00908072
0.00908082
0.0090809
0.00908096
0.009081
0.00908104
0.00908107
0.00908109
0.00908111
0.00908112
0.00908113
0.00908113
0.00908114
0.00908114
0.00908114
0.00908114
0.00908113
0.00908113
0.00908112
0.00908111
0.00908109
0.00908107
0.00908104
0.009081
0.00908096
0.0090809
0.00908082
0.00908072
0.00908059
0.00908043
0.00908022
0.00907996
0.00907961
0.00907918
0.00907862
0.00907792
0.00907704
0.00907593
0.00907456
0.00907287
0.00907083
0.00906839
0.00906554
0.00906221
0.00919875
0.00920217
0.0092051
0.00920759
0.00920969
0.00921142
0.00921282
0.00921396
0.00921487
0.00921559
0.00921616
0.0092166
0.00921695
0.00921723
0.00921744
0.00921761
0.00921774
0.00921784
0.00921792
0.00921798
0.00921803
0.00921807
0.0092181
0.00921812
0.00921814
0.00921815
0.00921816
0.00921816
0.00921817
0.00921817
0.00921817
0.00921817
0.00921816
0.00921816
0.00921815
0.00921814
0.00921812
0.0092181
0.00921807
0.00921803
0.00921798
0.00921792
0.00921784
0.00921774
0.00921761
0.00921744
0.00921723
0.00921695
0.0092166
0.00921616
0.00921559
0.00921487
0.00921396
0.00921282
0.00921142
0.00920969
0.00920759
0.0092051
0.00920217
0.00919875
0.00934648
0.00935
0.00935301
0.00935557
0.00935772
0.0093595
0.00936095
0.00936211
0.00936304
0.00936379
0.00936437
0.00936483
0.00936519
0.00936547
0.00936569
0.00936587
0.009366
0.0093661
0.00936619
0.00936625
0.0093663
0.00936634
0.00936637
0.00936639
0.00936641
0.00936642
0.00936643
0.00936644
0.00936644
0.00936644
0.00936644
0.00936644
0.00936644
0.00936643
0.00936642
0.00936641
0.00936639
0.00936637
0.00936634
0.0093663
0.00936625
0.00936619
0.0093661
0.009366
0.00936587
0.00936569
0.00936547
0.00936519
0.00936483
0.00936437
0.00936379
0.00936304
0.00936211
0.00936095
0.0093595
0.00935772
0.00935557
0.00935301
0.00935
0.00934648
0.00950674
0.00951037
0.00951346
0.0095161
0.00951832
0.00952014
0.00952163
0.00952283
0.00952379
0.00952456
0.00952516
0.00952563
0.00952601
0.0095263
0.00952652
0.0095267
0.00952684
0.00952695
0.00952703
0.0095271
0.00952715
0.00952719
0.00952722
0.00952724
0.00952726
0.00952727
0.00952728
0.00952729
0.00952729
0.0095273
0.0095273
0.00952729
0.00952729
0.00952728
0.00952727
0.00952726
0.00952724
0.00952722
0.00952719
0.00952715
0.0095271
0.00952703
0.00952695
0.00952684
0.0095267
0.00952652
0.0095263
0.00952601
0.00952563
0.00952516
0.00952456
0.00952379
0.00952283
0.00952163
0.00952014
0.00951832
0.0095161
0.00951346
0.00951037
0.00950674
0.00968112
0.00968486
0.00968805
0.00969077
0.00969306
0.00969494
0.00969648
0.00969772
0.00969871
0.0096995
0.00970012
0.00970061
0.00970099
0.00970129
0.00970153
0.00970171
0.00970185
0.00970197
0.00970205
0.00970212
0.00970217
0.00970221
0.00970224
0.00970227
0.00970229
0.0097023
0.00970231
0.00970232
0.00970232
0.00970233
0.00970233
0.00970232
0.00970232
0.00970231
0.0097023
0.00970229
0.00970227
0.00970224
0.00970221
0.00970217
0.00970212
0.00970205
0.00970197
0.00970185
0.00970171
0.00970153
0.00970129
0.00970099
0.00970061
0.00970012
0.0096995
0.00969871
0.00969772
0.00969648
0.00969494
0.00969306
0.00969077
0.00968805
0.00968486
0.00968112
0.00987148
0.00987536
0.00987865
0.00988147
0.00988383
0.00988578
0.00988737
0.00988865
0.00988968
0.00989049
0.00989114
0.00989164
0.00989204
0.00989235
0.00989259
0.00989278
0.00989293
0.00989305
0.00989314
0.00989321
0.00989326
0.0098933
0.00989334
0.00989336
0.00989338
0.0098934
0.00989341
0.00989341
0.00989342
0.00989342
0.00989342
0.00989342
0.00989341
0.00989341
0.0098934
0.00989338
0.00989336
0.00989334
0.0098933
0.00989326
0.00989321
0.00989314
0.00989305
0.00989293
0.00989278
0.00989259
0.00989235
0.00989204
0.00989164
0.00989114
0.00989049
0.00988968
0.00988865
0.00988737
0.00988578
0.00988383
0.00988147
0.00987865
0.00987536
0.00987148
0.0100801
0.0100841
0.0100875
0.0100904
0.0100929
0.0100949
0.0100966
0.0100979
0.010099
0.0100998
0.0101005
0.010101
0.0101014
0.0101017
0.010102
0.0101022
0.0101023
0.0101025
0.0101025
0.0101026
0.0101027
0.0101027
0.0101028
0.0101028
0.0101028
0.0101028
0.0101028
0.0101028
0.0101028
0.0101028
0.0101028
0.0101028
0.0101028
0.0101028
0.0101028
0.0101028
0.0101028
0.0101028
0.0101027
0.0101027
0.0101026
0.0101025
0.0101025
0.0101023
0.0101022
0.010102
0.0101017
0.0101014
0.010101
0.0101005
0.0100998
0.010099
0.0100979
0.0100966
0.0100949
0.0100929
0.0100904
0.0100875
0.0100841
0.0100801
0.0103096
0.0103138
0.0103174
0.0103204
0.0103229
0.0103251
0.0103268
0.0103281
0.0103293
0.0103301
0.0103308
0.0103314
0.0103318
0.0103321
0.0103324
0.0103326
0.0103328
0.0103329
0.010333
0.0103331
0.0103331
0.0103332
0.0103332
0.0103332
0.0103333
0.0103333
0.0103333
0.0103333
0.0103333
0.0103333
0.0103333
0.0103333
0.0103333
0.0103333
0.0103333
0.0103333
0.0103332
0.0103332
0.0103332
0.0103331
0.0103331
0.010333
0.0103329
0.0103328
0.0103326
0.0103324
0.0103321
0.0103318
0.0103314
0.0103308
0.0103301
0.0103293
0.0103281
0.0103268
0.0103251
0.0103229
0.0103204
0.0103174
0.0103138
0.0103096
0.0105634
0.0105678
0.0105715
0.0105746
0.0105773
0.0105795
0.0105813
0.0105827
0.0105839
0.0105848
0.0105855
0.0105861
0.0105866
0.0105869
0.0105872
0.0105874
0.0105876
0.0105877
0.0105878
0.0105879
0.0105879
0.010588
0.010588
0.0105881
0.0105881
0.0105881
0.0105881
0.0105881
0.0105881
0.0105881
0.0105881
0.0105881
0.0105881
0.0105881
0.0105881
0.0105881
0.0105881
0.010588
0.010588
0.0105879
0.0105879
0.0105878
0.0105877
0.0105876
0.0105874
0.0105872
0.0105869
0.0105866
0.0105861
0.0105855
0.0105848
0.0105839
0.0105827
0.0105813
0.0105795
0.0105773
0.0105746
0.0105715
0.0105678
0.0105634
0.0108454
0.01085
0.0108539
0.0108572
0.01086
0.0108623
0.0108642
0.0108657
0.0108669
0.0108679
0.0108686
0.0108692
0.0108697
0.0108701
0.0108704
0.0108706
0.0108708
0.0108709
0.010871
0.0108711
0.0108712
0.0108712
0.0108713
0.0108713
0.0108713
0.0108713
0.0108713
0.0108713
0.0108713
0.0108714
0.0108714
0.0108713
0.0108713
0.0108713
0.0108713
0.0108713
0.0108713
0.0108713
0.0108712
0.0108712
0.0108711
0.010871
0.0108709
0.0108708
0.0108706
0.0108704
0.0108701
0.0108697
0.0108692
0.0108686
0.0108679
0.0108669
0.0108657
0.0108642
0.0108623
0.01086
0.0108572
0.0108539
0.01085
0.0108454
0.0111608
0.0111656
0.0111697
0.0111732
0.0111761
0.0111785
0.0111805
0.0111821
0.0111834
0.0111844
0.0111852
0.0111858
0.0111863
0.0111867
0.011187
0.0111873
0.0111874
0.0111876
0.0111877
0.0111878
0.0111879
0.0111879
0.011188
0.011188
0.011188
0.011188
0.011188
0.0111881
0.0111881
0.0111881
0.0111881
0.0111881
0.0111881
0.011188
0.011188
0.011188
0.011188
0.011188
0.0111879
0.0111879
0.0111878
0.0111877
0.0111876
0.0111874
0.0111873
0.011187
0.0111867
0.0111863
0.0111858
0.0111852
0.0111844
0.0111834
0.0111821
0.0111805
0.0111785
0.0111761
0.0111732
0.0111697
0.0111656
0.0111608
0.0115157
0.0115208
0.0115252
0.0115289
0.011532
0.0115345
0.0115366
0.0115383
0.0115397
0.0115408
0.0115416
0.0115423
0.0115428
0.0115432
0.0115435
0.0115438
0.011544
0.0115441
0.0115443
0.0115444
0.0115444
0.0115445
0.0115445
0.0115446
0.0115446
0.0115446
0.0115446
0.0115446
0.0115446
0.0115446
0.0115446
0.0115446
0.0115446
0.0115446
0.0115446
0.0115446
0.0115446
0.0115445
0.0115445
0.0115444
0.0115444
0.0115443
0.0115441
0.011544
0.0115438
0.0115435
0.0115432
0.0115428
0.0115423
0.0115416
0.0115408
0.0115397
0.0115383
0.0115366
0.0115345
0.011532
0.0115289
0.0115252
0.0115208
0.0115157
0.0119184
0.0119239
0.0119285
0.0119324
0.0119358
0.0119385
0.0119407
0.0119425
0.011944
0.0119451
0.011946
0.0119467
0.0119473
0.0119477
0.0119481
0.0119484
0.0119486
0.0119487
0.0119489
0.011949
0.011949
0.0119491
0.0119491
0.0119492
0.0119492
0.0119492
0.0119492
0.0119492
0.0119493
0.0119493
0.0119493
0.0119493
0.0119492
0.0119492
0.0119492
0.0119492
0.0119492
0.0119491
0.0119491
0.011949
0.011949
0.0119489
0.0119487
0.0119486
0.0119484
0.0119481
0.0119477
0.0119473
0.0119467
0.011946
0.0119451
0.011944
0.0119425
0.0119407
0.0119385
0.0119358
0.0119324
0.0119285
0.0119239
0.0119184
0.0123795
0.0123853
0.0123903
0.0123945
0.0123981
0.012401
0.0124034
0.0124053
0.0124069
0.0124081
0.0124091
0.0124099
0.0124105
0.0124109
0.0124113
0.0124116
0.0124118
0.012412
0.0124121
0.0124122
0.0124123
0.0124124
0.0124124
0.0124125
0.0124125
0.0124125
0.0124125
0.0124126
0.0124126
0.0124126
0.0124126
0.0124126
0.0124126
0.0124125
0.0124125
0.0124125
0.0124125
0.0124124
0.0124124
0.0124123
0.0124122
0.0124121
0.012412
0.0124118
0.0124116
0.0124113
0.0124109
0.0124105
0.0124099
0.0124091
0.0124081
0.0124069
0.0124053
0.0124034
0.012401
0.0123981
0.0123945
0.0123903
0.0123853
0.0123795
0.0129129
0.0129192
0.0129246
0.0129292
0.012933
0.0129362
0.0129388
0.0129409
0.0129426
0.0129439
0.012945
0.0129458
0.0129465
0.012947
0.0129474
0.0129477
0.012948
0.0129481
0.0129483
0.0129484
0.0129485
0.0129486
0.0129486
0.0129487
0.0129487
0.0129487
0.0129487
0.0129487
0.0129488
0.0129488
0.0129488
0.0129488
0.0129487
0.0129487
0.0129487
0.0129487
0.0129487
0.0129486
0.0129486
0.0129485
0.0129484
0.0129483
0.0129481
0.012948
0.0129477
0.0129474
0.012947
0.0129465
0.0129458
0.012945
0.0129439
0.0129426
0.0129409
0.0129388
0.0129362
0.012933
0.0129292
0.0129246
0.0129192
0.0129129
0.0135378
0.0135447
0.0135506
0.0135556
0.0135598
0.0135633
0.0135662
0.0135685
0.0135703
0.0135718
0.013573
0.0135739
0.0135746
0.0135751
0.0135756
0.0135759
0.0135762
0.0135764
0.0135766
0.0135767
0.0135768
0.0135769
0.0135769
0.013577
0.013577
0.013577
0.0135771
0.0135771
0.0135771
0.0135771
0.0135771
0.0135771
0.0135771
0.0135771
0.013577
0.013577
0.013577
0.0135769
0.0135769
0.0135768
0.0135767
0.0135766
0.0135764
0.0135762
0.0135759
0.0135756
0.0135751
0.0135746
0.0135739
0.013573
0.0135718
0.0135703
0.0135685
0.0135662
0.0135633
0.0135598
0.0135556
0.0135506
0.0135447
0.0135378
0.0142808
0.0142885
0.014295
0.0143006
0.0143053
0.0143091
0.0143123
0.0143149
0.0143169
0.0143185
0.0143198
0.0143209
0.0143216
0.0143223
0.0143228
0.0143231
0.0143234
0.0143237
0.0143239
0.014324
0.0143241
0.0143242
0.0143243
0.0143243
0.0143244
0.0143244
0.0143244
0.0143244
0.0143244
0.0143244
0.0143244
0.0143244
0.0143244
0.0143244
0.0143244
0.0143244
0.0143243
0.0143243
0.0143242
0.0143241
0.014324
0.0143239
0.0143237
0.0143234
0.0143231
0.0143228
0.0143223
0.0143216
0.0143209
0.0143198
0.0143185
0.0143169
0.0143149
0.0143123
0.0143091
0.0143053
0.0143006
0.014295
0.0142885
0.0142808
0.01518
0.0151887
0.015196
0.0152024
0.0152077
0.015212
0.0152156
0.0152185
0.0152208
0.0152227
0.0152241
0.0152253
0.0152262
0.0152269
0.0152274
0.0152279
0.0152282
0.0152285
0.0152287
0.0152288
0.015229
0.0152291
0.0152291
0.0152292
0.0152292
0.0152293
0.0152293
0.0152293
0.0152293
0.0152293
0.0152293
0.0152293
0.0152293
0.0152293
0.0152293
0.0152292
0.0152292
0.0152291
0.0152291
0.015229
0.0152288
0.0152287
0.0152285
0.0152282
0.0152279
0.0152274
0.0152269
0.0152262
0.0152253
0.0152241
0.0152227
0.0152208
0.0152185
0.0152156
0.015212
0.0152077
0.0152024
0.015196
0.0151887
0.01518
0.0162915
0.0163015
0.01631
0.0163173
0.0163234
0.0163285
0.0163326
0.0163359
0.0163386
0.0163407
0.0163424
0.0163437
0.0163448
0.0163456
0.0163462
0.0163467
0.0163471
0.0163474
0.0163477
0.0163479
0.016348
0.0163481
0.0163482
0.0163483
0.0163483
0.0163484
0.0163484
0.0163484
0.0163484
0.0163484
0.0163484
0.0163484
0.0163484
0.0163484
0.0163484
0.0163483
0.0163483
0.0163482
0.0163481
0.016348
0.0163479
0.0163477
0.0163474
0.0163471
0.0163467
0.0163462
0.0163456
0.0163448
0.0163437
0.0163424
0.0163407
0.0163386
0.0163359
0.0163326
0.0163285
0.0163234
0.0163173
0.01631
0.0163015
0.0162915
0.0176992
0.017711
0.017721
0.0177296
0.0177369
0.0177429
0.0177477
0.0177517
0.0177549
0.0177574
0.0177594
0.017761
0.0177622
0.0177632
0.0177639
0.0177645
0.017765
0.0177653
0.0177656
0.0177658
0.017766
0.0177662
0.0177663
0.0177663
0.0177664
0.0177664
0.0177665
0.0177665
0.0177665
0.0177665
0.0177665
0.0177665
0.0177665
0.0177665
0.0177664
0.0177664
0.0177663
0.0177663
0.0177662
0.017766
0.0177658
0.0177656
0.0177653
0.017765
0.0177645
0.0177639
0.0177632
0.0177622
0.017761
0.0177594
0.0177574
0.0177549
0.0177517
0.0177477
0.0177429
0.0177369
0.0177296
0.017721
0.017711
0.0176992
0.0195281
0.0195424
0.0195546
0.019565
0.0195739
0.0195812
0.0195871
0.0195919
0.0195958
0.0195989
0.0196013
0.0196032
0.0196048
0.0196059
0.0196069
0.0196076
0.0196081
0.0196086
0.0196089
0.0196092
0.0196094
0.0196096
0.0196097
0.0196098
0.0196099
0.0196099
0.01961
0.01961
0.01961
0.01961
0.01961
0.01961
0.01961
0.01961
0.0196099
0.0196099
0.0196098
0.0196097
0.0196096
0.0196094
0.0196092
0.0196089
0.0196086
0.0196081
0.0196076
0.0196069
0.0196059
0.0196048
0.0196032
0.0196013
0.0195989
0.0195958
0.0195919
0.0195871
0.0195812
0.0195739
0.019565
0.0195546
0.0195424
0.0195281
0.021958
0.0219757
0.021991
0.0220041
0.0220151
0.0220243
0.0220317
0.0220378
0.0220426
0.0220465
0.0220495
0.022052
0.0220538
0.0220553
0.0220565
0.0220574
0.0220581
0.0220587
0.0220591
0.0220594
0.0220597
0.0220599
0.02206
0.0220602
0.0220603
0.0220603
0.0220604
0.0220604
0.0220604
0.0220604
0.0220604
0.0220604
0.0220604
0.0220604
0.0220603
0.0220603
0.0220602
0.02206
0.0220599
0.0220597
0.0220594
0.0220591
0.0220587
0.0220581
0.0220574
0.0220565
0.0220553
0.0220538
0.022052
0.0220495
0.0220465
0.0220426
0.0220378
0.0220317
0.0220243
0.0220151
0.0220041
0.021991
0.0219757
0.021958
0.0252257
0.0252482
0.0252676
0.0252844
0.0252985
0.0253102
0.0253197
0.0253274
0.0253336
0.0253385
0.0253425
0.0253455
0.025348
0.0253499
0.0253513
0.0253525
0.0253534
0.0253541
0.0253547
0.0253551
0.0253554
0.0253557
0.0253559
0.025356
0.0253562
0.0253562
0.0253563
0.0253564
0.0253564
0.0253564
0.0253564
0.0253564
0.0253564
0.0253563
0.0253562
0.0253562
0.025356
0.0253559
0.0253557
0.0253554
0.0253551
0.0253547
0.0253541
0.0253534
0.0253525
0.0253513
0.0253499
0.025348
0.0253455
0.0253425
0.0253385
0.0253336
0.0253274
0.0253197
0.0253102
0.0252985
0.0252844
0.0252676
0.0252482
0.0252257
0.0295981
0.0296268
0.0296518
0.0296732
0.0296913
0.0297063
0.0297185
0.0297284
0.0297364
0.0297427
0.0297477
0.0297517
0.0297548
0.0297572
0.0297592
0.0297606
0.0297618
0.0297627
0.0297634
0.029764
0.0297644
0.0297648
0.029765
0.0297652
0.0297654
0.0297655
0.0297656
0.0297656
0.0297657
0.0297657
0.0297657
0.0297657
0.0297656
0.0297656
0.0297655
0.0297654
0.0297652
0.029765
0.0297648
0.0297644
0.029764
0.0297634
0.0297627
0.0297618
0.0297606
0.0297592
0.0297572
0.0297548
0.0297517
0.0297477
0.0297427
0.0297364
0.0297284
0.0297185
0.0297063
0.0296913
0.0296732
0.0296518
0.0296268
0.0295981
0.0353046
0.0353409
0.0353725
0.0353997
0.0354225
0.0354415
0.0354569
0.0354695
0.0354795
0.0354876
0.0354939
0.0354989
0.0355029
0.035506
0.0355084
0.0355103
0.0355118
0.0355129
0.0355138
0.0355145
0.0355151
0.0355155
0.0355158
0.0355161
0.0355163
0.0355164
0.0355165
0.0355166
0.0355167
0.0355167
0.0355167
0.0355167
0.0355166
0.0355165
0.0355164
0.0355163
0.0355161
0.0355158
0.0355155
0.0355151
0.0355145
0.0355138
0.0355129
0.0355118
0.0355103
0.0355084
0.035506
0.0355029
0.0354989
0.0354939
0.0354876
0.0354795
0.0354695
0.0354569
0.0354415
0.0354225
0.0353997
0.0353725
0.0353409
0.0353046
0.0424503
0.042495
0.0425338
0.0425672
0.0425953
0.0426185
0.0426376
0.042653
0.0426653
0.0426752
0.042683
0.0426892
0.0426941
0.0426979
0.0427009
0.0427032
0.0427051
0.0427065
0.0427076
0.0427085
0.0427092
0.0427097
0.0427101
0.0427104
0.0427107
0.0427108
0.042711
0.0427111
0.0427111
0.0427112
0.0427112
0.0427111
0.0427111
0.042711
0.0427108
0.0427107
0.0427104
0.0427101
0.0427097
0.0427092
0.0427085
0.0427076
0.0427065
0.0427051
0.0427032
0.0427009
0.0426979
0.0426941
0.0426892
0.042683
0.0426752
0.0426653
0.042653
0.0426376
0.0426185
0.0425953
0.0425672
0.0425338
0.042495
0.0424503
0.0509644
0.0510177
0.0510638
0.0511033
0.0511366
0.0511642
0.0511868
0.0512051
0.0512198
0.0512315
0.0512408
0.0512482
0.051254
0.0512585
0.0512621
0.0512649
0.0512671
0.0512688
0.0512701
0.0512712
0.051272
0.0512726
0.0512731
0.0512735
0.0512738
0.051274
0.0512742
0.0512743
0.0512743
0.0512744
0.0512744
0.0512743
0.0512743
0.0512742
0.051274
0.0512738
0.0512735
0.0512731
0.0512726
0.051272
0.0512712
0.0512701
0.0512688
0.0512671
0.0512649
0.0512621
0.0512585
0.051254
0.0512482
0.0512408
0.0512315
0.0512198
0.0512051
0.0511868
0.0511642
0.0511366
0.0511033
0.0510638
0.0510177
0.0509644
0.0606286
0.0606899
0.0607428
0.0607882
0.0608263
0.060858
0.0608839
0.0609049
0.0609218
0.0609353
0.060946
0.0609545
0.0609612
0.0609664
0.0609706
0.0609738
0.0609763
0.0609783
0.0609799
0.0609811
0.060982
0.0609828
0.0609833
0.0609838
0.0609841
0.0609844
0.0609846
0.0609847
0.0609848
0.0609848
0.0609848
0.0609848
0.0609847
0.0609846
0.0609844
0.0609841
0.0609838
0.0609833
0.0609828
0.060982
0.0609811
0.0609799
0.0609783
0.0609763
0.0609738
0.0609706
0.0609664
0.0609612
0.0609545
0.060946
0.0609353
0.0609218
0.0609049
0.0608839
0.060858
0.0608263
0.0607882
0.0607428
0.0606899
0.0606286
0.0711641
0.0712329
0.071292
0.0713426
0.0713852
0.0714205
0.0714494
0.0714729
0.0714918
0.0715069
0.0715189
0.0715284
0.071536
0.0715419
0.0715465
0.0715502
0.071553
0.0715553
0.071557
0.0715584
0.0715595
0.0715603
0.071561
0.0715615
0.0715619
0.0715622
0.0715624
0.0715625
0.0715626
0.0715627
0.0715627
0.0715626
0.0715625
0.0715624
0.0715622
0.0715619
0.0715615
0.071561
0.0715603
0.0715595
0.0715584
0.071557
0.0715553
0.071553
0.0715502
0.0715465
0.0715419
0.071536
0.0715284
0.0715189
0.0715069
0.0714918
0.0714729
0.0714494
0.0714205
0.0713852
0.0713426
0.071292
0.0712329
0.0711641
0.0823175
0.0823931
0.0824579
0.0825133
0.0825599
0.0825985
0.0826303
0.082656
0.0826768
0.0826934
0.0827066
0.0827171
0.0827254
0.0827319
0.0827371
0.0827411
0.0827443
0.0827468
0.0827487
0.0827503
0.0827515
0.0827524
0.0827531
0.0827537
0.0827541
0.0827545
0.0827547
0.0827549
0.082755
0.082755
0.082755
0.082755
0.0827549
0.0827547
0.0827545
0.0827541
0.0827537
0.0827531
0.0827524
0.0827515
0.0827503
0.0827487
0.0827468
0.0827443
0.0827411
0.0827371
0.0827319
0.0827254
0.0827171
0.0827066
0.0826934
0.0826768
0.082656
0.0826303
0.0825985
0.0825599
0.0825133
0.0824579
0.0823931
0.0823175
0.0939023
0.0939842
0.0940543
0.0941141
0.0941645
0.0942062
0.0942406
0.0942685
0.094291
0.094309
0.0943234
0.0943348
0.0943439
0.094351
0.0943566
0.0943611
0.0943646
0.0943673
0.0943694
0.0943711
0.0943724
0.0943735
0.0943743
0.0943749
0.0943754
0.0943757
0.094376
0.0943762
0.0943763
0.0943764
0.0943764
0.0943763
0.0943762
0.094376
0.0943757
0.0943754
0.0943749
0.0943743
0.0943735
0.0943724
0.0943711
0.0943694
0.0943673
0.0943646
0.0943611
0.0943566
0.094351
0.0943439
0.0943348
0.0943234
0.094309
0.094291
0.0942685
0.0942406
0.0942062
0.0941645
0.0941141
0.0940543
0.0939842
0.0939023
0.105798
0.105886
0.105961
0.106025
0.106079
0.106124
0.106161
0.106191
0.106215
0.106234
0.10625
0.106262
0.106272
0.10628
0.106286
0.106291
0.106295
0.106298
0.1063
0.106302
0.106303
0.106304
0.106305
0.106306
0.106306
0.106307
0.106307
0.106307
0.106307
0.106308
0.106308
0.106307
0.106307
0.106307
0.106307
0.106306
0.106306
0.106305
0.106304
0.106303
0.106302
0.1063
0.106298
0.106295
0.106291
0.106286
0.10628
0.106272
0.106262
0.10625
0.106234
0.106215
0.106191
0.106161
0.106124
0.106079
0.106025
0.105961
0.105886
0.105798
0.117933
0.118026
0.118106
0.118175
0.118232
0.11828
0.118319
0.118351
0.118377
0.118398
0.118414
0.118428
0.118438
0.118447
0.118453
0.118458
0.118462
0.118466
0.118468
0.11847
0.118472
0.118473
0.118474
0.118475
0.118475
0.118476
0.118476
0.118476
0.118476
0.118477
0.118477
0.118476
0.118476
0.118476
0.118476
0.118475
0.118475
0.118474
0.118473
0.118472
0.11847
0.118468
0.118466
0.118462
0.118458
0.118453
0.118447
0.118438
0.118428
0.118414
0.118398
0.118377
0.118351
0.118319
0.11828
0.118232
0.118175
0.118106
0.118026
0.117933
0.130262
0.130361
0.130446
0.130518
0.130579
0.13063
0.130671
0.130705
0.130733
0.130755
0.130773
0.130787
0.130799
0.130808
0.130815
0.13082
0.130825
0.130828
0.130831
0.130833
0.130835
0.130836
0.130837
0.130838
0.130839
0.130839
0.13084
0.13084
0.13084
0.13084
0.13084
0.13084
0.13084
0.13084
0.130839
0.130839
0.130838
0.130837
0.130836
0.130835
0.130833
0.130831
0.130828
0.130825
0.13082
0.130815
0.130808
0.130799
0.130787
0.130773
0.130755
0.130733
0.130705
0.130671
0.13063
0.130579
0.130518
0.130446
0.130361
0.130262
0.142757
0.142862
0.142952
0.143028
0.143092
0.143146
0.14319
0.143226
0.143255
0.143279
0.143298
0.143313
0.143325
0.143335
0.143342
0.143348
0.143353
0.143357
0.14336
0.143362
0.143364
0.143366
0.143367
0.143368
0.143368
0.143369
0.143369
0.14337
0.14337
0.14337
0.14337
0.14337
0.14337
0.143369
0.143369
0.143368
0.143368
0.143367
0.143366
0.143364
0.143362
0.14336
0.143357
0.143353
0.143348
0.143342
0.143335
0.143325
0.143313
0.143298
0.143279
0.143255
0.143226
0.14319
0.143146
0.143092
0.143028
0.142952
0.142862
0.142757
0.1554
0.15551
0.155604
0.155684
0.155752
0.155808
0.155855
0.155893
0.155924
0.155949
0.155969
0.155986
0.155998
0.156009
0.156017
0.156023
0.156028
0.156032
0.156036
0.156038
0.15604
0.156042
0.156043
0.156044
0.156045
0.156045
0.156046
0.156046
0.156046
0.156046
0.156046
0.156046
0.156046
0.156046
0.156045
0.156045
0.156044
0.156043
0.156042
0.15604
0.156038
0.156036
0.156032
0.156028
0.156023
0.156017
0.156009
0.155998
0.155986
0.155969
0.155949
0.155924
0.155893
0.155855
0.155808
0.155752
0.155684
0.155604
0.15551
0.1554
0.168173
0.168289
0.168387
0.168471
0.168542
0.168602
0.168651
0.168691
0.168724
0.168751
0.168772
0.168789
0.168803
0.168814
0.168822
0.168829
0.168835
0.168839
0.168843
0.168845
0.168847
0.168849
0.168851
0.168852
0.168852
0.168853
0.168853