/*--------------------------------*- C++ -*----------------------------------*\
| =========                 |                                                 |
| \\      /  F ield         | foam-extend: Open Source CFD                    |
|  \\    /   O peration     | Version:     4.0                                |
|   \\  /    A nd           | Web:         http://www.foam-extend.org         |
|    \\/     M anipulation  |                                                 |
\*---------------------------------------------------------------------------*/
FoamFile
{
    version     2.0;
    format      ascii;
    class       volScalarField;
    location    "710";
    object      psiE;
}
// * * * * * * * * * * * * * * * * * * * * * * * * * * * * * * * * * * * * * //

dimensions      [0 0 0 0 0 0 0];

internalField   nonuniform List<scalar> 
6960
(
0.355221
0.355235
0.35525
0.355264
0.355276
0.355286
0.355294
0.355301
0.355307
0.355311
0.355315
0.355318
0.355321
0.355323
0.355325
0.355326
0.355327
0.355328
0.355329
0.35533
0.35533
0.355331
0.355331
0.355332
0.355332
0.355332
0.355332
0.355333
0.355333
0.355333
0.355333
0.355333
0.355333
0.355332
0.355332
0.355332
0.355332
0.355331
0.355331
0.35533
0.35533
0.355329
0.355328
0.355327
0.355326
0.355325
0.355323
0.355321
0.355318
0.355315
0.355311
0.355307
0.355301
0.355294
0.355286
0.355276
0.355264
0.35525
0.355235
0.355221
0.919313
0.919369
0.91943
0.919486
0.919535
0.919575
0.919609
0.919636
0.919659
0.919677
0.919692
0.919704
0.919714
0.919722
0.919728
0.919734
0.919738
0.919742
0.919745
0.919747
0.91975
0.919751
0.919753
0.919754
0.919755
0.919756
0.919757
0.919757
0.919757
0.919757
0.919757
0.919757
0.919757
0.919757
0.919756
0.919755
0.919754
0.919753
0.919751
0.91975
0.919747
0.919745
0.919742
0.919738
0.919734
0.919728
0.919722
0.919714
0.919704
0.919692
0.919677
0.919659
0.919636
0.919609
0.919575
0.919535
0.919486
0.91943
0.919369
0.919313
1.45187
1.45198
1.4521
1.45221
1.4523
1.45238
1.45245
1.4525
1.45254
1.45258
1.45261
1.45263
1.45265
1.45266
1.45267
1.45268
1.45269
1.4527
1.45271
1.45271
1.45271
1.45272
1.45272
1.45272
1.45272
1.45273
1.45273
1.45273
1.45273
1.45273
1.45273
1.45273
1.45273
1.45273
1.45273
1.45272
1.45272
1.45272
1.45272
1.45271
1.45271
1.45271
1.4527
1.45269
1.45268
1.45267
1.45266
1.45265
1.45263
1.45261
1.45258
1.45254
1.4525
1.45245
1.45238
1.4523
1.45221
1.4521
1.45198
1.45187
1.98169
1.98185
1.98204
1.9822
1.98235
1.98247
1.98256
1.98265
1.98271
1.98277
1.98281
1.98284
1.98287
1.9829
1.98291
1.98293
1.98294
1.98295
1.98296
1.98297
1.98297
1.98298
1.98298
1.98299
1.98299
1.98299
1.98299
1.98299
1.98299
1.98299
1.98299
1.98299
1.98299
1.98299
1.98299
1.98299
1.98299
1.98298
1.98298
1.98297
1.98297
1.98296
1.98295
1.98294
1.98293
1.98291
1.9829
1.98287
1.98284
1.98281
1.98277
1.98271
1.98265
1.98256
1.98247
1.98235
1.9822
1.98204
1.98185
1.98169
2.51776
2.51798
2.51823
2.51846
2.51865
2.51882
2.51895
2.51906
2.51915
2.51923
2.51929
2.51933
2.51937
2.5194
2.51943
2.51945
2.51947
2.51948
2.51949
2.5195
2.51951
2.51952
2.51952
2.51953
2.51953
2.51953
2.51953
2.51954
2.51954
2.51954
2.51954
2.51954
2.51954
2.51953
2.51953
2.51953
2.51953
2.51952
2.51952
2.51951
2.5195
2.51949
2.51948
2.51947
2.51945
2.51943
2.5194
2.51937
2.51933
2.51929
2.51923
2.51915
2.51906
2.51895
2.51882
2.51865
2.51846
2.51823
2.51798
2.51776
3.06292
3.0632
3.06352
3.06381
3.06406
3.06426
3.06444
3.06458
3.06469
3.06478
3.06486
3.06492
3.06497
3.06501
3.06504
3.06507
3.06509
3.06511
3.06512
3.06513
3.06514
3.06515
3.06516
3.06516
3.06517
3.06517
3.06517
3.06518
3.06518
3.06518
3.06518
3.06518
3.06518
3.06517
3.06517
3.06517
3.06516
3.06516
3.06515
3.06514
3.06513
3.06512
3.06511
3.06509
3.06507
3.06504
3.06501
3.06497
3.06492
3.06486
3.06478
3.06469
3.06458
3.06444
3.06426
3.06406
3.06381
3.06352
3.0632
3.06292
3.61798
3.61833
3.61871
3.61906
3.61937
3.61962
3.61983
3.62
3.62014
3.62025
3.62035
3.62042
3.62048
3.62053
3.62057
3.6206
3.62062
3.62064
3.62066
3.62068
3.62069
3.6207
3.62071
3.62071
3.62072
3.62072
3.62073
3.62073
3.62073
3.62073
3.62073
3.62073
3.62073
3.62073
3.62072
3.62072
3.62071
3.62071
3.6207
3.62069
3.62068
3.62066
3.62064
3.62062
3.6206
3.62057
3.62053
3.62048
3.62042
3.62035
3.62025
3.62014
3.62
3.61983
3.61962
3.61937
3.61906
3.61871
3.61833
3.61798
4.18312
4.18352
4.18398
4.18439
4.18475
4.18504
4.18529
4.18549
4.18566
4.18579
4.1859
4.18599
4.18606
4.18611
4.18616
4.1862
4.18623
4.18625
4.18627
4.18629
4.18631
4.18632
4.18633
4.18633
4.18634
4.18635
4.18635
4.18635
4.18635
4.18636
4.18636
4.18635
4.18635
4.18635
4.18635
4.18634
4.18633
4.18633
4.18632
4.18631
4.18629
4.18627
4.18625
4.18623
4.1862
4.18616
4.18611
4.18606
4.18599
4.1859
4.18579
4.18566
4.18549
4.18529
4.18504
4.18475
4.18439
4.18398
4.18352
4.18312
4.75823
4.7587
4.75922
4.7597
4.76011
4.76046
4.76074
4.76098
4.76117
4.76132
4.76144
4.76154
4.76162
4.76169
4.76174
4.76179
4.76182
4.76185
4.76187
4.76189
4.76191
4.76192
4.76194
4.76194
4.76195
4.76196
4.76196
4.76197
4.76197
4.76197
4.76197
4.76197
4.76197
4.76196
4.76196
4.76195
4.76194
4.76194
4.76192
4.76191
4.76189
4.76187
4.76185
4.76182
4.76179
4.76174
4.76169
4.76162
4.76154
4.76144
4.76132
4.76117
4.76098
4.76074
4.76046
4.76011
4.7597
4.75922
4.7587
4.75823
5.34316
5.34369
5.34428
5.34482
5.34529
5.34568
5.346
5.34626
5.34648
5.34665
5.34679
5.34691
5.347
5.34707
5.34713
5.34718
5.34722
5.34726
5.34728
5.3473
5.34732
5.34734
5.34735
5.34736
5.34737
5.34738
5.34738
5.34739
5.34739
5.34739
5.34739
5.34739
5.34739
5.34738
5.34738
5.34737
5.34736
5.34735
5.34734
5.34732
5.3473
5.34728
5.34726
5.34722
5.34718
5.34713
5.34707
5.347
5.34691
5.34679
5.34665
5.34648
5.34626
5.346
5.34568
5.34529
5.34482
5.34428
5.34369
5.34316
5.93765
5.93824
5.9389
5.9395
5.94002
5.94046
5.94082
5.94111
5.94135
5.94155
5.9417
5.94183
5.94193
5.94202
5.94208
5.94214
5.94218
5.94222
5.94225
5.94228
5.9423
5.94231
5.94233
5.94234
5.94235
5.94236
5.94236
5.94237
5.94237
5.94237
5.94237
5.94237
5.94237
5.94236
5.94236
5.94235
5.94234
5.94233
5.94231
5.9423
5.94228
5.94225
5.94222
5.94218
5.94214
5.94208
5.94202
5.94193
5.94183
5.9417
5.94155
5.94135
5.94111
5.94082
5.94046
5.94002
5.9395
5.9389
5.93824
5.93765
6.54139
6.54204
6.54277
6.54343
6.54401
6.54449
6.54489
6.54521
6.54548
6.54569
6.54587
6.54601
6.54612
6.54621
6.54629
6.54635
6.5464
6.54644
6.54647
6.5465
6.54652
6.54654
6.54656
6.54657
6.54658
6.54659
6.5466
6.5466
6.54661
6.54661
6.54661
6.54661
6.5466
6.5466
6.54659
6.54658
6.54657
6.54656
6.54654
6.54652
6.5465
6.54647
6.54644
6.5464
6.54635
6.54629
6.54621
6.54612
6.54601
6.54587
6.54569
6.54548
6.54521
6.54489
6.54449
6.54401
6.54343
6.54277
6.54204
6.54139
7.15403
7.15473
7.15553
7.15626
7.15688
7.15741
7.15785
7.1582
7.15849
7.15873
7.15892
7.15907
7.1592
7.1593
7.15938
7.15945
7.1595
7.15955
7.15958
7.15961
7.15964
7.15966
7.15968
7.15969
7.1597
7.15971
7.15972
7.15972
7.15973
7.15973
7.15973
7.15973
7.15972
7.15972
7.15971
7.1597
7.15969
7.15968
7.15966
7.15964
7.15961
7.15958
7.15955
7.1595
7.15945
7.15938
7.1593
7.1592
7.15907
7.15892
7.15873
7.15849
7.1582
7.15785
7.15741
7.15688
7.15626
7.15553
7.15473
7.15403
7.77511
7.77588
7.77674
7.77753
7.77821
7.77878
7.77926
7.77964
7.77996
7.78021
7.78042
7.78059
7.78072
7.78083
7.78092
7.78099
7.78105
7.7811
7.78114
7.78117
7.7812
7.78123
7.78124
7.78126
7.78127
7.78128
7.78129
7.7813
7.7813
7.7813
7.7813
7.7813
7.7813
7.78129
7.78128
7.78127
7.78126
7.78124
7.78123
7.7812
7.78117
7.78114
7.7811
7.78105
7.78099
7.78092
7.78083
7.78072
7.78059
7.78042
7.78021
7.77996
7.77964
7.77926
7.77878
7.77821
7.77753
7.77674
7.77588
7.77511
8.40415
8.40497
8.4059
8.40675
8.40748
8.4081
8.40861
8.40902
8.40936
8.40964
8.40986
8.41004
8.41019
8.4103
8.4104
8.41048
8.41054
8.41059
8.41064
8.41067
8.4107
8.41073
8.41075
8.41077
8.41078
8.41079
8.4108
8.41081
8.41081
8.41081
8.41081
8.41081
8.41081
8.4108
8.41079
8.41078
8.41077
8.41075
8.41073
8.4107
8.41067
8.41064
8.41059
8.41054
8.41048
8.4104
8.4103
8.41019
8.41004
8.40986
8.40964
8.40936
8.40902
8.40861
8.4081
8.40748
8.40675
8.4059
8.40497
8.40415
9.04053
9.04141
9.0424
9.04331
9.0441
9.04475
9.0453
9.04574
9.04611
9.0464
9.04664
9.04683
9.04699
9.04712
9.04722
9.0473
9.04737
9.04743
9.04748
9.04751
9.04755
9.04757
9.0476
9.04761
9.04763
9.04764
9.04765
9.04766
9.04766
9.04766
9.04766
9.04766
9.04766
9.04765
9.04764
9.04763
9.04761
9.0476
9.04757
9.04755
9.04751
9.04748
9.04743
9.04737
9.0473
9.04722
9.04712
9.04699
9.04683
9.04664
9.0464
9.04611
9.04574
9.0453
9.04475
9.0441
9.04331
9.0424
9.04141
9.04053
9.68357
9.68451
9.68556
9.68653
9.68736
9.68806
9.68864
9.68911
9.6895
9.68981
9.69007
9.69027
9.69044
9.69057
9.69068
9.69077
9.69085
9.69091
9.69096
9.691
9.69103
9.69106
9.69109
9.69111
9.69112
9.69114
9.69114
9.69115
9.69116
9.69116
9.69116
9.69116
9.69115
9.69114
9.69114
9.69112
9.69111
9.69109
9.69106
9.69103
9.691
9.69096
9.69091
9.69085
9.69077
9.69068
9.69057
9.69044
9.69027
9.69007
9.68981
9.6895
9.68911
9.68864
9.68806
9.68736
9.68653
9.68556
9.68451
9.68357
10.3325
10.3335
10.3346
10.3356
10.3365
10.3372
10.3378
10.3383
10.3387
10.3391
10.3393
10.3396
10.3397
10.3399
10.34
10.3401
10.3402
10.3402
10.3403
10.3403
10.3404
10.3404
10.3404
10.3404
10.3405
10.3405
10.3405
10.3405
10.3405
10.3405
10.3405
10.3405
10.3405
10.3405
10.3405
10.3405
10.3404
10.3404
10.3404
10.3404
10.3403
10.3403
10.3402
10.3402
10.3401
10.34
10.3399
10.3397
10.3396
10.3393
10.3391
10.3387
10.3383
10.3378
10.3372
10.3365
10.3356
10.3346
10.3335
10.3325
10.9863
10.9873
10.9885
10.9896
10.9905
10.9913
10.9919
10.9925
10.9929
10.9932
10.9935
10.9938
10.9939
10.9941
10.9942
10.9943
10.9944
10.9945
10.9945
10.9946
10.9946
10.9946
10.9947
10.9947
10.9947
10.9947
10.9947
10.9947
10.9947
10.9948
10.9948
10.9947
10.9947
10.9947
10.9947
10.9947
10.9947
10.9947
10.9946
10.9946
10.9946
10.9945
10.9945
10.9944
10.9943
10.9942
10.9941
10.9939
10.9938
10.9935
10.9932
10.9929
10.9925
10.9919
10.9913
10.9905
10.9896
10.9885
10.9873
10.9863
11.644
11.6451
11.6463
11.6474
11.6484
11.6492
11.6499
11.6504
11.6509
11.6513
11.6516
11.6518
11.652
11.6522
11.6523
11.6524
11.6525
11.6526
11.6526
11.6527
11.6527
11.6527
11.6528
11.6528
11.6528
11.6528
11.6528
11.6528
11.6529
11.6529
11.6529
11.6529
11.6528
11.6528
11.6528
11.6528
11.6528
11.6528
11.6527
11.6527
11.6527
11.6526
11.6526
11.6525
11.6524
11.6523
11.6522
11.652
11.6518
11.6516
11.6513
11.6509
11.6504
11.6499
11.6492
11.6484
11.6474
11.6463
11.6451
11.644
12.3043
12.3055
12.3067
12.3079
12.3089
12.3098
12.3105
12.3111
12.3115
12.3119
12.3122
12.3125
12.3127
12.3128
12.313
12.3131
12.3132
12.3133
12.3133
12.3134
12.3134
12.3135
12.3135
12.3135
12.3135
12.3135
12.3136
12.3136
12.3136
12.3136
12.3136
12.3136
12.3136
12.3136
12.3135
12.3135
12.3135
12.3135
12.3135
12.3134
12.3134
12.3133
12.3133
12.3132
12.3131
12.313
12.3128
12.3127
12.3125
12.3122
12.3119
12.3115
12.3111
12.3105
12.3098
12.3089
12.3079
12.3067
12.3055
12.3043
12.9659
12.9671
12.9684
12.9696
12.9707
12.9715
12.9723
12.9729
12.9734
12.9738
12.9741
12.9743
12.9746
12.9747
12.9749
12.975
12.9751
12.9752
12.9752
12.9753
12.9753
12.9754
12.9754
12.9754
12.9754
12.9755
12.9755
12.9755
12.9755
12.9755
12.9755
12.9755
12.9755
12.9755
12.9755
12.9754
12.9754
12.9754
12.9754
12.9753
12.9753
12.9752
12.9752
12.9751
12.975
12.9749
12.9747
12.9746
12.9743
12.9741
12.9738
12.9734
12.9729
12.9723
12.9715
12.9707
12.9696
12.9684
12.9671
12.9659
13.6271
13.6283
13.6297
13.6309
13.632
13.6329
13.6337
13.6343
13.6348
13.6352
13.6355
13.6358
13.636
13.6362
13.6363
13.6365
13.6366
13.6366
13.6367
13.6368
13.6368
13.6369
13.6369
13.6369
13.6369
13.637
13.637
13.637
13.637
13.637
13.637
13.637
13.637
13.637
13.637
13.6369
13.6369
13.6369
13.6369
13.6368
13.6368
13.6367
13.6366
13.6366
13.6365
13.6363
13.6362
13.636
13.6358
13.6355
13.6352
13.6348
13.6343
13.6337
13.6329
13.632
13.6309
13.6297
13.6283
13.6271
14.286
14.2872
14.2886
14.2899
14.291
14.292
14.2928
14.2934
14.2939
14.2943
14.2947
14.295
14.2952
14.2954
14.2955
14.2956
14.2957
14.2958
14.2959
14.296
14.296
14.2961
14.2961
14.2961
14.2961
14.2962
14.2962
14.2962
14.2962
14.2962
14.2962
14.2962
14.2962
14.2962
14.2962
14.2961
14.2961
14.2961
14.2961
14.296
14.296
14.2959
14.2958
14.2957
14.2956
14.2955
14.2954
14.2952
14.295
14.2947
14.2943
14.2939
14.2934
14.2928
14.292
14.291
14.2899
14.2886
14.2872
14.286
14.9405
14.9418
14.9432
14.9445
14.9456
14.9466
14.9474
14.948
14.9486
14.949
14.9494
14.9496
14.9499
14.9501
14.9502
14.9504
14.9505
14.9506
14.9506
14.9507
14.9507
14.9508
14.9508
14.9508
14.9509
14.9509
14.9509
14.9509
14.9509
14.9509
14.9509
14.9509
14.9509
14.9509
14.9509
14.9509
14.9508
14.9508
14.9508
14.9507
14.9507
14.9506
14.9506
14.9505
14.9504
14.9502
14.9501
14.9499
14.9496
14.9494
14.949
14.9486
14.948
14.9474
14.9466
14.9456
14.9445
14.9432
14.9418
14.9405
15.5881
15.5894
15.5908
15.5922
15.5933
15.5943
15.5951
15.5957
15.5963
15.5967
15.5971
15.5974
15.5976
15.5978
15.598
15.5981
15.5982
15.5983
15.5984
15.5984
15.5985
15.5985
15.5986
15.5986
15.5986
15.5986
15.5987
15.5987
15.5987
15.5987
15.5987
15.5987
15.5987
15.5987
15.5986
15.5986
15.5986
15.5986
15.5985
15.5985
15.5984
15.5984
15.5983
15.5982
15.5981
15.598
15.5978
15.5976
15.5974
15.5971
15.5967
15.5963
15.5957
15.5951
15.5943
15.5933
15.5922
15.5908
15.5894
15.5881
16.2258
16.2271
16.2286
16.2299
16.2311
16.232
16.2329
16.2335
16.2341
16.2345
16.2349
16.2352
16.2354
16.2356
16.2358
16.2359
16.236
16.2361
16.2362
16.2363
16.2363
16.2364
16.2364
16.2364
16.2365
16.2365
16.2365
16.2365
16.2365
16.2365
16.2365
16.2365
16.2365
16.2365
16.2365
16.2365
16.2364
16.2364
16.2364
16.2363
16.2363
16.2362
16.2361
16.236
16.2359
16.2358
16.2356
16.2354
16.2352
16.2349
16.2345
16.2341
16.2335
16.2329
16.232
16.2311
16.2299
16.2286
16.2271
16.2258
16.8503
16.8516
16.853
16.8544
16.8555
16.8565
16.8573
16.858
16.8585
16.859
16.8593
16.8596
16.8599
16.8601
16.8603
16.8604
16.8605
16.8606
16.8607
16.8607
16.8608
16.8609
16.8609
16.8609
16.861
16.861
16.861
16.861
16.861
16.861
16.861
16.861
16.861
16.861
16.861
16.861
16.8609
16.8609
16.8609
16.8608
16.8607
16.8607
16.8606
16.8605
16.8604
16.8603
16.8601
16.8599
16.8596
16.8593
16.859
16.8585
16.858
16.8573
16.8565
16.8555
16.8544
16.853
16.8516
16.8503
17.4574
17.4588
17.4602
17.4615
17.4627
17.4636
17.4644
17.4651
17.4656
17.4661
17.4664
17.4667
17.467
17.4672
17.4674
17.4675
17.4676
17.4677
17.4678
17.4679
17.4679
17.468
17.468
17.468
17.4681
17.4681
17.4681
17.4681
17.4681
17.4681
17.4681
17.4681
17.4681
17.4681
17.4681
17.4681
17.468
17.468
17.468
17.4679
17.4679
17.4678
17.4677
17.4676
17.4675
17.4674
17.4672
17.467
17.4667
17.4664
17.4661
17.4656
17.4651
17.4644
17.4636
17.4627
17.4615
17.4602
17.4588
17.4574
18.0425
18.0438
18.0452
18.0465
18.0477
18.0486
18.0494
18.05
18.0506
18.051
18.0514
18.0516
18.0519
18.0521
18.0523
18.0524
18.0525
18.0526
18.0527
18.0528
18.0528
18.0529
18.0529
18.0529
18.053
18.053
18.053
18.053
18.053
18.053
18.053
18.053
18.053
18.053
18.053
18.053
18.0529
18.0529
18.0529
18.0528
18.0528
18.0527
18.0526
18.0525
18.0524
18.0523
18.0521
18.0519
18.0516
18.0514
18.051
18.0506
18.05
18.0494
18.0486
18.0477
18.0465
18.0452
18.0438
18.0425
18.5998
18.6011
18.6024
18.6037
18.6047
18.6057
18.6064
18.607
18.6076
18.608
18.6083
18.6086
18.6088
18.609
18.6092
18.6093
18.6095
18.6096
18.6096
18.6097
18.6098
18.6098
18.6099
18.6099
18.6099
18.61
18.61
18.61
18.61
18.61
18.61
18.61
18.61
18.61
18.61
18.6099
18.6099
18.6099
18.6098
18.6098
18.6097
18.6096
18.6096
18.6095
18.6093
18.6092
18.609
18.6088
18.6086
18.6083
18.608
18.6076
18.607
18.6064
18.6057
18.6047
18.6037
18.6024
18.6011
18.5998
19.1225
19.1237
19.1249
19.1261
19.1271
19.128
19.1287
19.1293
19.1298
19.1302
19.1305
19.1308
19.131
19.1312
19.1314
19.1315
19.1316
19.1317
19.1318
19.1319
19.1319
19.132
19.132
19.1321
19.1321
19.1321
19.1321
19.1321
19.1322
19.1322
19.1322
19.1322
19.1321
19.1321
19.1321
19.1321
19.1321
19.132
19.132
19.1319
19.1319
19.1318
19.1317
19.1316
19.1315
19.1314
19.1312
19.131
19.1308
19.1305
19.1302
19.1298
19.1293
19.1287
19.128
19.1271
19.1261
19.1249
19.1237
19.1225
19.6027
19.6037
19.6049
19.606
19.6069
19.6077
19.6083
19.6089
19.6094
19.6097
19.61
19.6103
19.6105
19.6107
19.6108
19.611
19.6111
19.6112
19.6113
19.6113
19.6114
19.6114
19.6115
19.6115
19.6116
19.6116
19.6116
19.6116
19.6116
19.6116
19.6116
19.6116
19.6116
19.6116
19.6116
19.6116
19.6115
19.6115
19.6114
19.6114
19.6113
19.6113
19.6112
19.6111
19.611
19.6108
19.6107
19.6105
19.6103
19.61
19.6097
19.6094
19.6089
19.6083
19.6077
19.6069
19.606
19.6049
19.6037
19.6027
20.0319
20.0329
20.0339
20.0349
20.0357
20.0364
20.037
20.0374
20.0379
20.0382
20.0385
20.0387
20.0389
20.0391
20.0392
20.0394
20.0395
20.0396
20.0396
20.0397
20.0398
20.0398
20.0399
20.0399
20.0399
20.0399
20.04
20.04
20.04
20.04
20.04
20.04
20.04
20.04
20.0399
20.0399
20.0399
20.0399
20.0398
20.0398
20.0397
20.0396
20.0396
20.0395
20.0394
20.0392
20.0391
20.0389
20.0387
20.0385
20.0382
20.0379
20.0374
20.037
20.0364
20.0357
20.0349
20.0339
20.0329
20.0319
20.4029
20.4037
20.4046
20.4054
20.4061
20.4066
20.4071
20.4076
20.4079
20.4082
20.4085
20.4087
20.4089
20.409
20.4092
20.4093
20.4094
20.4095
20.4095
20.4096
20.4097
20.4097
20.4098
20.4098
20.4098
20.4098
20.4099
20.4099
20.4099
20.4099
20.4099
20.4099
20.4099
20.4099
20.4098
20.4098
20.4098
20.4098
20.4097
20.4097
20.4096
20.4095
20.4095
20.4094
20.4093
20.4092
20.409
20.4089
20.4087
20.4085
20.4082
20.4079
20.4076
20.4071
20.4066
20.4061
20.4054
20.4046
20.4037
20.4029
20.7116
20.7122
20.7129
20.7135
20.7141
20.7146
20.715
20.7153
20.7156
20.7159
20.7161
20.7163
20.7164
20.7166
20.7167
20.7168
20.7169
20.717
20.7171
20.7171
20.7172
20.7172
20.7173
20.7173
20.7173
20.7174
20.7174
20.7174
20.7174
20.7174
20.7174
20.7174
20.7174
20.7174
20.7174
20.7173
20.7173
20.7173
20.7172
20.7172
20.7171
20.7171
20.717
20.7169
20.7168
20.7167
20.7166
20.7164
20.7163
20.7161
20.7159
20.7156
20.7153
20.715
20.7146
20.7141
20.7135
20.7129
20.7122
20.7116
20.9595
20.96
20.9605
20.961
20.9614
20.9618
20.9621
20.9624
20.9626
20.9628
20.963
20.9632
20.9633
20.9635
20.9636
20.9637
20.9638
20.9638
20.9639
20.964
20.964
20.9641
20.9641
20.9641
20.9642
20.9642
20.9642
20.9642
20.9642
20.9643
20.9643
20.9642
20.9642
20.9642
20.9642
20.9642
20.9641
20.9641
20.9641
20.964
20.964
20.9639
20.9638
20.9638
20.9637
20.9636
20.9635
20.9633
20.9632
20.963
20.9628
20.9626
20.9624
20.9621
20.9618
20.9614
20.961
20.9605
20.96
20.9595
21.1541
21.1544
21.1548
21.1551
21.1555
21.1558
21.156
21.1562
21.1564
21.1566
21.1568
21.1569
21.157
21.1571
21.1572
21.1573
21.1574
21.1575
21.1576
21.1576
21.1577
21.1577
21.1578
21.1578
21.1578
21.1579
21.1579
21.1579
21.1579
21.1579
21.1579
21.1579
21.1579
21.1579
21.1579
21.1578
21.1578
21.1578
21.1577
21.1577
21.1576
21.1576
21.1575
21.1574
21.1573
21.1572
21.1571
21.157
21.1569
21.1568
21.1566
21.1564
21.1562
21.156
21.1558
21.1555
21.1551
21.1548
21.1544
21.1541
21.3062
21.3064
21.3067
21.3069
21.3072
21.3074
21.3076
21.3078
21.3079
21.3081
21.3082
21.3083
21.3084
21.3086
21.3086
21.3087
21.3088
21.3089
21.309
21.309
21.3091
21.3091
21.3092
21.3092
21.3092
21.3093
21.3093
21.3093
21.3093
21.3093
21.3093
21.3093
21.3093
21.3093
21.3093
21.3092
21.3092
21.3092
21.3091
21.3091
21.309
21.309
21.3089
21.3088
21.3087
21.3086
21.3086
21.3084
21.3083
21.3082
21.3081
21.3079
21.3078
21.3076
21.3074
21.3072
21.3069
21.3067
21.3064
21.3062
21.427
21.4271
21.4273
21.4275
21.4276
21.4278
21.428
21.4281
21.4283
21.4284
21.4285
21.4286
21.4287
21.4288
21.4289
21.429
21.4291
21.4292
21.4292
21.4293
21.4293
21.4294
21.4294
21.4295
21.4295
21.4295
21.4295
21.4296
21.4296
21.4296
21.4296
21.4296
21.4296
21.4295
21.4295
21.4295
21.4295
21.4294
21.4294
21.4293
21.4293
21.4292
21.4292
21.4291
21.429
21.4289
21.4288
21.4287
21.4286
21.4285
21.4284
21.4283
21.4281
21.428
21.4278
21.4276
21.4275
21.4273
21.4271
21.427
21.5256
21.5257
21.5258
21.5259
21.5261
21.5262
21.5263
21.5265
21.5266
21.5267
21.5268
21.5269
21.527
21.5271
21.5272
21.5273
21.5274
21.5274
21.5275
21.5276
21.5276
21.5277
21.5277
21.5278
21.5278
21.5278
21.5278
21.5279
21.5279
21.5279
21.5279
21.5279
21.5279
21.5278
21.5278
21.5278
21.5278
21.5277
21.5277
21.5276
21.5276
21.5275
21.5274
21.5274
21.5273
21.5272
21.5271
21.527
21.5269
21.5268
21.5267
21.5266
21.5265
21.5263
21.5262
21.5261
21.5259
21.5258
21.5257
21.5256
21.6087
21.6087
21.6088
21.6089
21.609
21.6092
21.6093
21.6094
21.6095
21.6096
21.6097
21.6098
21.6099
21.61
21.6101
21.6102
21.6102
21.6103
21.6104
21.6104
21.6105
21.6106
21.6106
21.6106
21.6107
21.6107
21.6107
21.6107
21.6108
21.6108
21.6108
21.6108
21.6107
21.6107
21.6107
21.6107
21.6106
21.6106
21.6106
21.6105
21.6104
21.6104
21.6103
21.6102
21.6102
21.6101
21.61
21.6099
21.6098
21.6097
21.6096
21.6095
21.6094
21.6093
21.6092
21.609
21.6089
21.6088
21.6087
21.6087
21.6806
21.6807
21.6807
21.6808
21.6809
21.681
21.6811
21.6812
21.6813
21.6814
21.6815
21.6816
21.6817
21.6818
21.6819
21.682
21.6821
21.6821
21.6822
21.6823
21.6823
21.6824
21.6824
21.6825
21.6825
21.6825
21.6826
21.6826
21.6826
21.6826
21.6826
21.6826
21.6826
21.6826
21.6825
21.6825
21.6825
21.6824
21.6824
21.6823
21.6823
21.6822
21.6821
21.6821
21.682
21.6819
21.6818
21.6817
21.6816
21.6815
21.6814
21.6813
21.6812
21.6811
21.681
21.6809
21.6808
21.6807
21.6807
21.6806
21.7443
21.7443
21.7444
21.7445
21.7445
21.7446
21.7447
21.7448
21.7449
21.745
21.7451
21.7452
21.7453
21.7454
21.7455
21.7456
21.7456
21.7457
21.7458
21.7459
21.7459
21.746
21.746
21.7461
21.7461
21.7461
21.7462
21.7462
21.7462
21.7462
21.7462
21.7462
21.7462
21.7462
21.7461
21.7461
21.7461
21.746
21.746
21.7459
21.7459
21.7458
21.7457
21.7456
21.7456
21.7455
21.7454
21.7453
21.7452
21.7451
21.745
21.7449
21.7448
21.7447
21.7446
21.7445
21.7445
21.7444
21.7443
21.7443
21.8016
21.8016
21.8016
21.8017
21.8018
21.8018
21.8019
21.802
21.8021
21.8022
21.8023
21.8024
21.8025
21.8026
21.8027
21.8028
21.8029
21.8029
21.803
21.8031
21.8031
21.8032
21.8032
21.8033
21.8033
21.8034
21.8034
21.8034
21.8034
21.8034
21.8034
21.8034
21.8034
21.8034
21.8034
21.8033
21.8033
21.8032
21.8032
21.8031
21.8031
21.803
21.8029
21.8029
21.8028
21.8027
21.8026
21.8025
21.8024
21.8023
21.8022
21.8021
21.802
21.8019
21.8018
21.8018
21.8017
21.8016
21.8016
21.8016
21.8538
21.8538
21.8538
21.8538
21.8539
21.854
21.854
21.8541
21.8542
21.8543
21.8544
21.8545
21.8546
21.8547
21.8548
21.8549
21.855
21.855
21.8551
21.8552
21.8553
21.8553
21.8554
21.8554
21.8555
21.8555
21.8555
21.8555
21.8555
21.8555
21.8555
21.8555
21.8555
21.8555
21.8555
21.8555
21.8554
21.8554
21.8553
21.8553
21.8552
21.8551
21.855
21.855
21.8549
21.8548
21.8547
21.8546
21.8545
21.8544
21.8543
21.8542
21.8541
21.854
21.854
21.8539
21.8538
21.8538
21.8538
21.8538
21.9017
21.9017
21.9017
21.9018
21.9018
21.9019
21.902
21.902
21.9021
21.9022
21.9023
21.9024
21.9025
21.9026
21.9027
21.9028
21.9029
21.903
21.9031
21.9031
21.9032
21.9033
21.9033
21.9034
21.9034
21.9034
21.9035
21.9035
21.9035
21.9035
21.9035
21.9035
21.9035
21.9035
21.9034
21.9034
21.9034
21.9033
21.9033
21.9032
21.9031
21.9031
21.903
21.9029
21.9028
21.9027
21.9026
21.9025
21.9024
21.9023
21.9022
21.9021
21.902
21.902
21.9019
21.9018
21.9018
21.9017
21.9017
21.9017
21.9461
21.9461
21.9461
21.9462
21.9462
21.9463
21.9464
21.9464
21.9465
21.9466
21.9467
21.9468
21.9469
21.947
21.9471
21.9472
21.9473
21.9474
21.9475
21.9476
21.9476
21.9477
21.9477
21.9478
21.9478
21.9479
21.9479
21.9479
21.9479
21.9479
21.9479
21.9479
21.9479
21.9479
21.9479
21.9478
21.9478
21.9477
21.9477
21.9476
21.9476
21.9475
21.9474
21.9473
21.9472
21.9471
21.947
21.9469
21.9468
21.9467
21.9466
21.9465
21.9464
21.9464
21.9463
21.9462
21.9462
21.9461
21.9461
21.9461
21.9876
21.9876
21.9876
21.9876
21.9877
21.9877
21.9878
21.9879
21.988
21.9881
21.9882
21.9883
21.9884
21.9885
21.9886
21.9887
21.9888
21.9889
21.9889
21.989
21.9891
21.9891
21.9892
21.9893
21.9893
21.9893
21.9894
21.9894
21.9894
21.9894
21.9894
21.9894
21.9894
21.9894
21.9893
21.9893
21.9893
21.9892
21.9891
21.9891
21.989
21.9889
21.9889
21.9888
21.9887
21.9886
21.9885
21.9884
21.9883
21.9882
21.9881
21.988
21.9879
21.9878
21.9877
21.9877
21.9876
21.9876
21.9876
21.9876
22.0265
22.0264
22.0264
22.0265
22.0265
22.0266
22.0266
22.0267
22.0268
22.0269
22.027
22.0271
22.0272
22.0273
22.0274
22.0275
22.0276
22.0277
22.0278
22.0279
22.028
22.028
22.0281
22.0281
22.0282
22.0282
22.0282
22.0283
22.0283
22.0283
22.0283
22.0283
22.0283
22.0282
22.0282
22.0282
22.0281
22.0281
22.028
22.028
22.0279
22.0278
22.0277
22.0276
22.0275
22.0274
22.0273
22.0272
22.0271
22.027
22.0269
22.0268
22.0267
22.0266
22.0266
22.0265
22.0265
22.0264
22.0264
22.0265
22.0631
22.0631
22.0631
22.0631
22.0631
22.0632
22.0632
22.0633
22.0634
22.0635
22.0636
22.0637
22.0638
22.0639
22.0641
22.0642
22.0643
22.0644
22.0644
22.0645
22.0646
22.0647
22.0647
22.0648
22.0648
22.0649
22.0649
22.0649
22.0649
22.0649
22.0649
22.0649
22.0649
22.0649
22.0649
22.0648
22.0648
22.0647
22.0647
22.0646
22.0645
22.0644
22.0644
22.0643
22.0642
22.0641
22.0639
22.0638
22.0637
22.0636
22.0635
22.0634
22.0633
22.0632
22.0632
22.0631
22.0631
22.0631
22.0631
22.0631
22.0977
22.0977
22.0977
22.0977
22.0977
22.0978
22.0979
22.098
22.098
22.0981
22.0983
22.0984
22.0985
22.0986
22.0987
22.0988
22.0989
22.099
22.0991
22.0992
22.0993
22.0993
22.0994
22.0995
22.0995
22.0995
22.0996
22.0996
22.0996
22.0996
22.0996
22.0996
22.0996
22.0996
22.0995
22.0995
22.0995
22.0994
22.0993
22.0993
22.0992
22.0991
22.099
22.0989
22.0988
22.0987
22.0986
22.0985
22.0984
22.0983
22.0981
22.098
22.098
22.0979
22.0978
22.0977
22.0977
22.0977
22.0977
22.0977
22.1306
22.1306
22.1306
22.1306
22.1306
22.1307
22.1307
22.1308
22.1309
22.131
22.1311
22.1312
22.1314
22.1315
22.1316
22.1317
22.1318
22.1319
22.132
22.1321
22.1322
22.1322
22.1323
22.1324
22.1324
22.1325
22.1325
22.1325
22.1325
22.1325
22.1325
22.1325
22.1325
22.1325
22.1325
22.1324
22.1324
22.1323
22.1322
22.1322
22.1321
22.132
22.1319
22.1318
22.1317
22.1316
22.1315
22.1314
22.1312
22.1311
22.131
22.1309
22.1308
22.1307
22.1307
22.1306
22.1306
22.1306
22.1306
22.1306
22.1619
22.1619
22.1619
22.1619
22.1619
22.162
22.162
22.1621
22.1622
22.1623
22.1624
22.1626
22.1627
22.1628
22.1629
22.163
22.1631
22.1632
22.1633
22.1634
22.1635
22.1636
22.1637
22.1637
22.1638
22.1638
22.1638
22.1639
22.1639
22.1639
22.1639
22.1639
22.1639
22.1638
22.1638
22.1638
22.1637
22.1637
22.1636
22.1635
22.1634
22.1633
22.1632
22.1631
22.163
22.1629
22.1628
22.1627
22.1626
22.1624
22.1623
22.1622
22.1621
22.162
22.162
22.1619
22.1619
22.1619
22.1619
22.1619
22.1918
22.1917
22.1917
22.1918
22.1918
22.1919
22.1919
22.192
22.1921
22.1922
22.1923
22.1925
22.1926
22.1927
22.1928
22.1929
22.1931
22.1932
22.1933
22.1934
22.1934
22.1935
22.1936
22.1936
22.1937
22.1937
22.1938
22.1938
22.1938
22.1938
22.1938
22.1938
22.1938
22.1938
22.1937
22.1937
22.1936
22.1936
22.1935
22.1934
22.1934
22.1933
22.1932
22.1931
22.1929
22.1928
22.1927
22.1926
22.1925
22.1923
22.1922
22.1921
22.192
22.1919
22.1919
22.1918
22.1918
22.1917
22.1917
22.1918
22.2203
22.2203
22.2203
22.2204
22.2204
22.2204
22.2205
22.2206
22.2207
22.2208
22.2209
22.2211
22.2212
22.2213
22.2214
22.2216
22.2217
22.2218
22.2219
22.222
22.2221
22.2222
22.2222
22.2223
22.2224
22.2224
22.2224
22.2225
22.2225
22.2225
22.2225
22.2225
22.2225
22.2224
22.2224
22.2224
22.2223
22.2222
22.2222
22.2221
22.222
22.2219
22.2218
22.2217
22.2216
22.2214
22.2213
22.2212
22.2211
22.2209
22.2208
22.2207
22.2206
22.2205
22.2204
22.2204
22.2204
22.2203
22.2203
22.2203
22.2478
22.2478
22.2478
22.2478
22.2478
22.2479
22.2479
22.248
22.2481
22.2483
22.2484
22.2485
22.2486
22.2488
22.2489
22.249
22.2491
22.2493
22.2494
22.2495
22.2496
22.2496
22.2497
22.2498
22.2498
22.2499
22.2499
22.25
22.25
22.25
22.25
22.25
22.25
22.2499
22.2499
22.2498
22.2498
22.2497
22.2496
22.2496
22.2495
22.2494
22.2493
22.2491
22.249
22.2489
22.2488
22.2486
22.2485
22.2484
22.2483
22.2481
22.248
22.2479
22.2479
22.2478
22.2478
22.2478
22.2478
22.2478
22.2741
22.2741
22.2741
22.2741
22.2742
22.2742
22.2743
22.2744
22.2745
22.2746
22.2747
22.2749
22.275
22.2751
22.2753
22.2754
22.2755
22.2757
22.2758
22.2759
22.276
22.2761
22.2761
22.2762
22.2763
22.2763
22.2763
22.2764
22.2764
22.2764
22.2764
22.2764
22.2764
22.2763
22.2763
22.2763
22.2762
22.2761
22.2761
22.276
22.2759
22.2758
22.2757
22.2755
22.2754
22.2753
22.2751
22.275
22.2749
22.2747
22.2746
22.2745
22.2744
22.2743
22.2742
22.2742
22.2741
22.2741
22.2741
22.2741
22.2995
22.2995
22.2995
22.2995
22.2995
22.2996
22.2997
22.2998
22.2999
22.3
22.3001
22.3003
22.3004
22.3005
22.3007
22.3008
22.3009
22.3011
22.3012
22.3013
22.3014
22.3015
22.3015
22.3016
22.3017
22.3017
22.3018
22.3018
22.3018
22.3018
22.3018
22.3018
22.3018
22.3018
22.3017
22.3017
22.3016
22.3015
22.3015
22.3014
22.3013
22.3012
22.3011
22.3009
22.3008
22.3007
22.3005
22.3004
22.3003
22.3001
22.3
22.2999
22.2998
22.2997
22.2996
22.2995
22.2995
22.2995
22.2995
22.2995
22.3239
22.3239
22.3239
22.3239
22.3239
22.324
22.3241
22.3242
22.3243
22.3244
22.3246
22.3247
22.3249
22.325
22.3252
22.3253
22.3254
22.3256
22.3257
22.3258
22.3259
22.326
22.3261
22.3261
22.3262
22.3262
22.3263
22.3263
22.3263
22.3263
22.3263
22.3263
22.3263
22.3263
22.3262
22.3262
22.3261
22.3261
22.326
22.3259
22.3258
22.3257
22.3256
22.3254
22.3253
22.3252
22.325
22.3249
22.3247
22.3246
22.3244
22.3243
22.3242
22.3241
22.324
22.3239
22.3239
22.3239
22.3239
22.3239
22.3475
22.3475
22.3475
22.3475
22.3475
22.3476
22.3477
22.3478
22.3479
22.348
22.3482
22.3483
22.3485
22.3486
22.3488
22.3489
22.3491
22.3492
22.3493
22.3494
22.3495
22.3496
22.3497
22.3498
22.3499
22.3499
22.3499
22.35
22.35
22.35
22.35
22.35
22.35
22.3499
22.3499
22.3499
22.3498
22.3497
22.3496
22.3495
22.3494
22.3493
22.3492
22.3491
22.3489
22.3488
22.3486
22.3485
22.3483
22.3482
22.348
22.3479
22.3478
22.3477
22.3476
22.3475
22.3475
22.3475
22.3475
22.3475
22.3702
22.3702
22.3702
22.3703
22.3703
22.3704
22.3705
22.3706
22.3707
22.3708
22.371
22.3711
22.3713
22.3715
22.3716
22.3718
22.3719
22.372
22.3722
22.3723