/*--------------------------------*- C++ -*----------------------------------*\
| =========                 |                                                 |
| \\      /  F ield         | foam-extend: Open Source CFD                    |
|  \\    /   O peration     | Version:     4.0                                |
|   \\  /    A nd           | Web:         http://www.foam-extend.org         |
|    \\/     M anipulation  |                                                 |
\*---------------------------------------------------------------------------*/
FoamFile
{
    version     2.0;
    format      ascii;
    class       volScalarField;
    location    "1930";
    object      cMinus;
}
// * * * * * * * * * * * * * * * * * * * * * * * * * * * * * * * * * * * * * //

dimensions      [0 0 0 0 0 0 0];

internalField   nonuniform List<scalar> 
6960
(
9.27345e-24
9.27838e-24
9.27941e-24
9.27964e-24
9.27968e-24
9.27968e-24
9.27969e-24
9.27973e-24
9.27979e-24
9.27988e-24
9.27999e-24
9.28012e-24
9.28025e-24
9.28039e-24
9.28053e-24
9.28068e-24
9.28082e-24
9.28095e-24
9.28108e-24
9.2812e-24
9.28131e-24
9.28142e-24
9.28151e-24
9.28159e-24
9.28166e-24
9.28172e-24
9.28177e-24
9.28181e-24
9.28183e-24
9.28184e-24
9.28184e-24
9.28183e-24
9.28181e-24
9.28177e-24
9.28172e-24
9.28166e-24
9.28159e-24
9.28151e-24
9.28142e-24
9.28131e-24
9.2812e-24
9.28108e-24
9.28095e-24
9.28082e-24
9.28068e-24
9.28053e-24
9.28039e-24
9.28025e-24
9.28012e-24
9.27999e-24
9.27988e-24
9.27979e-24
9.27973e-24
9.27969e-24
9.27968e-24
9.27968e-24
9.27964e-24
9.27941e-24
9.27838e-24
9.27345e-24
3.59373e-23
3.59576e-23
3.59631e-23
3.59654e-23
3.5967e-23
3.59684e-23
3.59697e-23
3.5971e-23
3.59723e-23
3.59737e-23
3.5975e-23
3.59763e-23
3.59775e-23
3.59787e-23
3.59798e-23
3.59809e-23
3.59819e-23
3.59828e-23
3.59837e-23
3.59845e-23
3.59852e-23
3.59858e-23
3.59864e-23
3.59869e-23
3.59873e-23
3.59876e-23
3.59879e-23
3.59881e-23
3.59882e-23
3.59883e-23
3.59883e-23
3.59882e-23
3.59881e-23
3.59879e-23
3.59876e-23
3.59873e-23
3.59869e-23
3.59864e-23
3.59858e-23
3.59852e-23
3.59845e-23
3.59837e-23
3.59828e-23
3.59819e-23
3.59809e-23
3.59798e-23
3.59787e-23
3.59775e-23
3.59763e-23
3.5975e-23
3.59737e-23
3.59723e-23
3.5971e-23
3.59697e-23
3.59684e-23
3.5967e-23
3.59654e-23
3.59631e-23
3.59576e-23
3.59373e-23
1.00774e-22
1.00835e-22
1.00855e-22
1.00866e-22
1.00875e-22
1.00884e-22
1.00891e-22
1.00899e-22
1.00906e-22
1.00913e-22
1.00919e-22
1.00925e-22
1.00931e-22
1.00937e-22
1.00942e-22
1.00946e-22
1.00951e-22
1.00955e-22
1.00958e-22
1.00961e-22
1.00964e-22
1.00967e-22
1.00969e-22
1.00971e-22
1.00973e-22
1.00974e-22
1.00975e-22
1.00976e-22
1.00976e-22
1.00977e-22
1.00977e-22
1.00976e-22
1.00976e-22
1.00975e-22
1.00974e-22
1.00973e-22
1.00971e-22
1.00969e-22
1.00967e-22
1.00964e-22
1.00961e-22
1.00958e-22
1.00955e-22
1.00951e-22
1.00946e-22
1.00942e-22
1.00937e-22
1.00931e-22
1.00925e-22
1.00919e-22
1.00913e-22
1.00906e-22
1.00899e-22
1.00891e-22
1.00884e-22
1.00875e-22
1.00866e-22
1.00855e-22
1.00835e-22
1.00774e-22
2.5845e-22
2.58617e-22
2.58682e-22
2.58726e-22
2.58764e-22
2.58798e-22
2.5883e-22
2.58861e-22
2.5889e-22
2.58917e-22
2.58942e-22
2.58966e-22
2.58988e-22
2.59008e-22
2.59026e-22
2.59043e-22
2.59059e-22
2.59073e-22
2.59086e-22
2.59097e-22
2.59107e-22
2.59116e-22
2.59123e-22
2.5913e-22
2.59136e-22
2.5914e-22
2.59144e-22
2.59146e-22
2.59148e-22
2.59149e-22
2.59149e-22
2.59148e-22
2.59146e-22
2.59144e-22
2.5914e-22
2.59136e-22
2.5913e-22
2.59123e-22
2.59116e-22
2.59107e-22
2.59097e-22
2.59086e-22
2.59073e-22
2.59059e-22
2.59043e-22
2.59026e-22
2.59008e-22
2.58988e-22
2.58966e-22
2.58942e-22
2.58917e-22
2.5889e-22
2.58861e-22
2.5883e-22
2.58798e-22
2.58764e-22
2.58726e-22
2.58682e-22
2.58617e-22
2.5845e-22
6.48848e-22
6.49298e-22
6.49501e-22
6.49652e-22
6.49786e-22
6.4991e-22
6.50026e-22
6.50134e-22
6.50236e-22
6.5033e-22
6.50418e-22
6.50499e-22
6.50574e-22
6.50643e-22
6.50705e-22
6.50762e-22
6.50814e-22
6.5086e-22
6.50901e-22
6.50938e-22
6.50971e-22
6.51e-22
6.51025e-22
6.51046e-22
6.51064e-22
6.51078e-22
6.5109e-22
6.51099e-22
6.51104e-22
6.51107e-22
6.51107e-22
6.51104e-22
6.51099e-22
6.5109e-22
6.51078e-22
6.51064e-22
6.51046e-22
6.51025e-22
6.51e-22
6.50971e-22
6.50938e-22
6.50901e-22
6.5086e-22
6.50814e-22
6.50762e-22
6.50705e-22
6.50643e-22
6.50574e-22
6.50499e-22
6.50418e-22
6.5033e-22
6.50236e-22
6.50134e-22
6.50026e-22
6.4991e-22
6.49786e-22
6.49652e-22
6.49501e-22
6.49298e-22
6.48848e-22
1.63656e-21
1.63778e-21
1.63839e-21
1.63889e-21
1.63933e-21
1.63975e-21
1.64013e-21
1.64049e-21
1.64083e-21
1.64114e-21
1.64143e-21
1.64169e-21
1.64193e-21
1.64216e-21
1.64236e-21
1.64254e-21
1.6427e-21
1.64285e-21
1.64298e-21
1.6431e-21
1.6432e-21
1.64329e-21
1.64337e-21
1.64344e-21
1.64349e-21
1.64354e-21
1.64357e-21
1.6436e-21
1.64362e-21
1.64363e-21
1.64363e-21
1.64362e-21
1.6436e-21
1.64357e-21
1.64354e-21
1.64349e-21
1.64344e-21
1.64337e-21
1.64329e-21
1.6432e-21
1.6431e-21
1.64298e-21
1.64285e-21
1.6427e-21
1.64254e-21
1.64236e-21
1.64216e-21
1.64193e-21
1.64169e-21
1.64143e-21
1.64114e-21
1.64083e-21
1.64049e-21
1.64013e-21
1.63975e-21
1.63933e-21
1.63889e-21
1.63839e-21
1.63778e-21
1.63656e-21
4.1925e-21
4.19584e-21
4.19771e-21
4.19928e-21
4.20071e-21
4.20204e-21
4.20328e-21
4.20444e-21
4.20551e-21
4.20651e-21
4.20742e-21
4.20826e-21
4.20902e-21
4.20972e-21
4.21035e-21
4.21092e-21
4.21144e-21
4.21189e-21
4.2123e-21
4.21266e-21
4.21298e-21
4.21326e-21
4.2135e-21
4.21371e-21
4.21388e-21
4.21402e-21
4.21413e-21
4.21421e-21
4.21426e-21
4.21429e-21
4.21429e-21
4.21426e-21
4.21421e-21
4.21413e-21
4.21402e-21
4.21388e-21
4.21371e-21
4.2135e-21
4.21326e-21
4.21298e-21
4.21266e-21
4.2123e-21
4.21189e-21
4.21144e-21
4.21092e-21
4.21035e-21
4.20972e-21
4.20902e-21
4.20826e-21
4.20742e-21
4.20651e-21
4.20551e-21
4.20444e-21
4.20328e-21
4.20204e-21
4.20071e-21
4.19928e-21
4.19771e-21
4.19584e-21
4.1925e-21
1.09606e-20
1.097e-20
1.09756e-20
1.09805e-20
1.09851e-20
1.09893e-20
1.09932e-20
1.09969e-20
1.10003e-20
1.10034e-20
1.10063e-20
1.10089e-20
1.10113e-20
1.10135e-20
1.10154e-20
1.10172e-20
1.10188e-20
1.10202e-20
1.10215e-20
1.10226e-20
1.10236e-20
1.10244e-20
1.10252e-20
1.10258e-20
1.10263e-20
1.10267e-20
1.10271e-20
1.10273e-20
1.10275e-20
1.10276e-20
1.10276e-20
1.10275e-20
1.10273e-20
1.10271e-20
1.10267e-20
1.10263e-20
1.10258e-20
1.10252e-20
1.10244e-20
1.10236e-20
1.10226e-20
1.10215e-20
1.10202e-20
1.10188e-20
1.10172e-20
1.10154e-20
1.10135e-20
1.10113e-20
1.10089e-20
1.10063e-20
1.10034e-20
1.10003e-20
1.09969e-20
1.09932e-20
1.09893e-20
1.09851e-20
1.09805e-20
1.09756e-20
1.097e-20
1.09606e-20
2.93062e-20
2.93329e-20
2.93501e-20
2.93654e-20
2.93797e-20
2.9393e-20
2.94055e-20
2.9417e-20
2.94276e-20
2.94375e-20
2.94465e-20
2.94547e-20
2.94622e-20
2.94689e-20
2.94751e-20
2.94806e-20
2.94855e-20
2.94899e-20
2.94938e-20
2.94973e-20
2.95003e-20
2.9503e-20
2.95053e-20
2.95072e-20
2.95088e-20
2.95102e-20
2.95112e-20
2.9512e-20
2.95125e-20
2.95127e-20
2.95127e-20
2.95125e-20
2.9512e-20
2.95112e-20
2.95102e-20
2.95088e-20
2.95072e-20
2.95053e-20
2.9503e-20
2.95003e-20
2.94973e-20
2.94938e-20
2.94899e-20
2.94855e-20
2.94806e-20
2.94751e-20
2.94689e-20
2.94622e-20
2.94547e-20
2.94465e-20
2.94375e-20
2.94276e-20
2.9417e-20
2.94055e-20
2.9393e-20
2.93797e-20
2.93654e-20
2.93501e-20
2.93329e-20
2.93062e-20
8.02243e-20
8.03018e-20
8.0355e-20
8.04031e-20
8.04481e-20
8.04903e-20
8.05296e-20
8.05661e-20
8.05997e-20
8.06307e-20
8.0659e-20
8.06849e-20
8.07084e-20
8.07297e-20
8.07489e-20
8.07662e-20
8.07817e-20
8.07954e-20
8.08077e-20
8.08185e-20
8.08279e-20
8.08362e-20
8.08433e-20
8.08493e-20
8.08543e-20
8.08585e-20
8.08617e-20
8.08641e-20
8.08657e-20
8.08664e-20
8.08664e-20
8.08657e-20
8.08641e-20
8.08617e-20
8.08585e-20
8.08543e-20
8.08493e-20
8.08433e-20
8.08362e-20
8.08279e-20
8.08185e-20
8.08077e-20
8.07954e-20
8.07817e-20
8.07662e-20
8.07489e-20
8.07297e-20
8.07084e-20
8.06849e-20
8.0659e-20
8.06307e-20
8.05997e-20
8.05661e-20
8.05296e-20
8.04903e-20
8.04481e-20
8.04031e-20
8.0355e-20
8.03018e-20
8.02243e-20
2.24967e-19
2.25198e-19
2.25364e-19
2.25517e-19
2.2566e-19
2.25795e-19
2.2592e-19
2.26036e-19
2.26144e-19
2.26242e-19
2.26332e-19
2.26415e-19
2.26489e-19
2.26557e-19
2.26618e-19
2.26672e-19
2.26721e-19
2.26765e-19
2.26803e-19
2.26837e-19
2.26867e-19
2.26893e-19
2.26916e-19
2.26935e-19
2.2695e-19
2.26963e-19
2.26974e-19
2.26981e-19
2.26986e-19
2.26988e-19
2.26988e-19
2.26986e-19
2.26981e-19
2.26974e-19
2.26963e-19
2.2695e-19
2.26935e-19
2.26916e-19
2.26893e-19
2.26867e-19
2.26837e-19
2.26803e-19
2.26765e-19
2.26721e-19
2.26672e-19
2.26618e-19
2.26557e-19
2.26489e-19
2.26415e-19
2.26332e-19
2.26242e-19
2.26144e-19
2.26036e-19
2.2592e-19
2.25795e-19
2.2566e-19
2.25517e-19
2.25364e-19
2.25198e-19
2.24967e-19
6.46472e-19
6.47172e-19
6.47699e-19
6.4819e-19
6.48653e-19
6.49088e-19
6.49493e-19
6.49868e-19
6.50214e-19
6.50531e-19
6.50821e-19
6.51086e-19
6.51326e-19
6.51543e-19
6.51738e-19
6.51913e-19
6.5207e-19
6.5221e-19
6.52333e-19
6.52442e-19
6.52538e-19
6.52621e-19
6.52692e-19
6.52753e-19
6.52804e-19
6.52845e-19
6.52878e-19
6.52902e-19
6.52917e-19
6.52925e-19
6.52925e-19
6.52917e-19
6.52902e-19
6.52878e-19
6.52845e-19
6.52804e-19
6.52753e-19
6.52692e-19
6.52621e-19
6.52538e-19
6.52442e-19
6.52333e-19
6.5221e-19
6.5207e-19
6.51913e-19
6.51738e-19
6.51543e-19
6.51326e-19
6.51086e-19
6.50821e-19
6.50531e-19
6.50214e-19
6.49868e-19
6.49493e-19
6.49088e-19
6.48653e-19
6.4819e-19
6.47699e-19
6.47172e-19
6.46472e-19
1.9041e-18
1.90627e-18
1.90797e-18
1.90957e-18
1.91109e-18
1.91252e-18
1.91384e-18
1.91507e-18
1.9162e-18
1.91724e-18
1.91819e-18
1.91905e-18
1.91983e-18
1.92054e-18
1.92118e-18
1.92175e-18
1.92226e-18
1.92271e-18
1.92312e-18
1.92347e-18
1.92378e-18
1.92405e-18
1.92428e-18
1.92448e-18
1.92464e-18
1.92478e-18
1.92488e-18
1.92496e-18
1.92501e-18
1.92504e-18
1.92504e-18
1.92501e-18
1.92496e-18
1.92488e-18
1.92478e-18
1.92464e-18
1.92448e-18
1.92428e-18
1.92405e-18
1.92378e-18
1.92347e-18
1.92312e-18
1.92271e-18
1.92226e-18
1.92175e-18
1.92118e-18
1.92054e-18
1.91983e-18
1.91905e-18
1.91819e-18
1.91724e-18
1.9162e-18
1.91507e-18
1.91384e-18
1.91252e-18
1.91109e-18
1.90957e-18
1.90797e-18
1.90627e-18
1.9041e-18
5.74896e-18
5.75587e-18
5.76146e-18
5.76678e-18
5.77182e-18
5.77656e-18
5.78097e-18
5.78506e-18
5.78882e-18
5.79227e-18
5.79542e-18
5.79829e-18
5.80089e-18
5.80323e-18
5.80535e-18
5.80724e-18
5.80893e-18
5.81044e-18
5.81177e-18
5.81294e-18
5.81397e-18
5.81486e-18
5.81563e-18
5.81628e-18
5.81682e-18
5.81726e-18
5.81761e-18
5.81787e-18
5.81804e-18
5.81812e-18
5.81812e-18
5.81804e-18
5.81787e-18
5.81761e-18
5.81726e-18
5.81682e-18
5.81628e-18
5.81563e-18
5.81486e-18
5.81397e-18
5.81294e-18
5.81177e-18
5.81044e-18
5.80893e-18
5.80724e-18
5.80535e-18
5.80323e-18
5.80089e-18
5.79829e-18
5.79542e-18
5.79227e-18
5.78882e-18
5.78506e-18
5.78097e-18
5.77656e-18
5.77182e-18
5.76678e-18
5.76146e-18
5.75587e-18
5.74896e-18
1.77936e-17
1.7816e-17
1.78348e-17
1.78527e-17
1.78698e-17
1.78859e-17
1.79008e-17
1.79146e-17
1.79274e-17
1.7939e-17
1.79497e-17
1.79594e-17
1.79682e-17
1.79761e-17
1.79832e-17
1.79896e-17
1.79953e-17
1.80004e-17
1.80049e-17
1.80088e-17
1.80123e-17
1.80153e-17
1.80179e-17
1.80201e-17
1.80219e-17
1.80234e-17
1.80246e-17
1.80254e-17
1.8026e-17
1.80263e-17
1.80263e-17
1.8026e-17
1.80254e-17
1.80246e-17
1.80234e-17
1.80219e-17
1.80201e-17
1.80179e-17
1.80153e-17
1.80123e-17
1.80088e-17
1.80049e-17
1.80004e-17
1.79953e-17
1.79896e-17
1.79832e-17
1.79761e-17
1.79682e-17
1.79594e-17
1.79497e-17
1.7939e-17
1.79274e-17
1.79146e-17
1.79008e-17
1.78859e-17
1.78698e-17
1.78527e-17
1.78348e-17
1.7816e-17
1.77936e-17
5.64524e-17
5.65271e-17
5.65911e-17
5.66529e-17
5.67118e-17
5.67672e-17
5.68187e-17
5.68664e-17
5.69103e-17
5.69505e-17
5.69872e-17
5.70206e-17
5.70508e-17
5.70781e-17
5.71026e-17
5.71246e-17
5.71442e-17
5.71617e-17
5.71771e-17
5.71907e-17
5.72025e-17
5.72129e-17
5.72217e-17
5.72292e-17
5.72355e-17
5.72406e-17
5.72446e-17
5.72476e-17
5.72495e-17
5.72505e-17
5.72505e-17
5.72495e-17
5.72476e-17
5.72446e-17
5.72406e-17
5.72355e-17
5.72292e-17
5.72217e-17
5.72129e-17
5.72025e-17
5.71907e-17
5.71771e-17
5.71617e-17
5.71442e-17
5.71246e-17
5.71026e-17
5.70781e-17
5.70508e-17
5.70206e-17
5.69872e-17
5.69505e-17
5.69103e-17
5.68664e-17
5.68187e-17
5.67672e-17
5.67118e-17
5.66529e-17
5.65911e-17
5.65271e-17
5.64524e-17
1.83556e-16
1.8381e-16
1.84034e-16
1.8425e-16
1.84457e-16
1.84652e-16
1.84833e-16
1.85001e-16
1.85155e-16
1.85296e-16
1.85425e-16
1.85542e-16
1.85648e-16
1.85744e-16
1.8583e-16
1.85907e-16
1.85976e-16
1.86037e-16
1.86091e-16
1.86138e-16
1.8618e-16
1.86216e-16
1.86247e-16
1.86273e-16
1.86295e-16
1.86313e-16
1.86327e-16
1.86338e-16
1.86344e-16
1.86348e-16
1.86348e-16
1.86344e-16
1.86338e-16
1.86327e-16
1.86313e-16
1.86295e-16
1.86273e-16
1.86247e-16
1.86216e-16
1.8618e-16
1.86138e-16
1.86091e-16
1.86037e-16
1.85976e-16
1.85907e-16
1.8583e-16
1.85744e-16
1.85648e-16
1.85542e-16
1.85425e-16
1.85296e-16
1.85155e-16
1.85001e-16
1.84833e-16
1.84652e-16
1.84457e-16
1.8425e-16
1.84034e-16
1.8381e-16
1.83556e-16
6.11489e-16
6.12374e-16
6.13168e-16
6.13944e-16
6.14685e-16
6.15382e-16
6.16031e-16
6.16631e-16
6.17183e-16
6.17689e-16
6.1815e-16
6.1857e-16
6.18949e-16
6.19292e-16
6.19599e-16
6.19875e-16
6.20121e-16
6.20339e-16
6.20532e-16
6.20702e-16
6.2085e-16
6.20979e-16
6.2109e-16
6.21184e-16
6.21262e-16
6.21326e-16
6.21376e-16
6.21413e-16
6.21437e-16
6.2145e-16
6.2145e-16
6.21437e-16
6.21413e-16
6.21376e-16
6.21326e-16
6.21262e-16
6.21184e-16
6.2109e-16
6.20979e-16
6.2085e-16
6.20702e-16
6.20532e-16
6.20339e-16
6.20121e-16
6.19875e-16
6.19599e-16
6.19292e-16
6.18949e-16
6.1857e-16
6.1815e-16
6.17689e-16
6.17183e-16
6.16631e-16
6.16031e-16
6.15382e-16
6.14685e-16
6.13944e-16
6.13168e-16
6.12374e-16
6.11489e-16
2.08614e-15
2.08929e-15
2.09217e-15
2.095e-15
2.09771e-15
2.10025e-15
2.10262e-15
2.10481e-15
2.10683e-15
2.10868e-15
2.11036e-15
2.11189e-15
2.11327e-15
2.11452e-15
2.11564e-15
2.11665e-15
2.11754e-15
2.11834e-15
2.11904e-15
2.11966e-15
2.1202e-15
2.12067e-15
2.12107e-15
2.12142e-15
2.1217e-15
2.12193e-15
2.12212e-15
2.12225e-15
2.12234e-15
2.12238e-15
2.12238e-15
2.12234e-15
2.12225e-15
2.12212e-15
2.12193e-15
2.1217e-15
2.12142e-15
2.12107e-15
2.12067e-15
2.1202e-15
2.11966e-15
2.11904e-15
2.11834e-15
2.11754e-15
2.11665e-15
2.11564e-15
2.11452e-15
2.11327e-15
2.11189e-15
2.11036e-15
2.10868e-15
2.10683e-15
2.10481e-15
2.10262e-15
2.10025e-15
2.09771e-15
2.095e-15
2.09217e-15
2.08929e-15
2.08614e-15
7.28382e-15
7.29525e-15
7.30593e-15
7.31644e-15
7.3265e-15
7.33597e-15
7.34479e-15
7.35295e-15
7.36045e-15
7.36731e-15
7.37357e-15
7.37926e-15
7.38441e-15
7.38905e-15
7.39321e-15
7.39695e-15
7.40027e-15
7.40323e-15
7.40584e-15
7.40814e-15
7.41015e-15
7.41189e-15
7.41338e-15
7.41465e-15
7.41571e-15
7.41657e-15
7.41725e-15
7.41775e-15
7.41807e-15
7.41824e-15
7.41824e-15
7.41807e-15
7.41775e-15
7.41725e-15
7.41657e-15
7.41571e-15
7.41465e-15
7.41338e-15
7.41189e-15
7.41015e-15
7.40814e-15
7.40584e-15
7.40323e-15
7.40027e-15
7.39695e-15
7.39321e-15
7.38905e-15
7.38441e-15
7.37926e-15
7.37357e-15
7.36731e-15
7.36045e-15
7.35295e-15
7.34479e-15
7.33597e-15
7.3265e-15
7.31644e-15
7.30593e-15
7.29525e-15
7.28382e-15
2.60058e-14
2.60481e-14
2.60884e-14
2.61282e-14
2.61664e-14
2.62023e-14
2.62357e-14
2.62666e-14
2.6295e-14
2.6321e-14
2.63447e-14
2.63663e-14
2.63857e-14
2.64033e-14
2.64191e-14
2.64332e-14
2.64458e-14
2.6457e-14
2.64669e-14
2.64755e-14
2.64831e-14
2.64897e-14
2.64954e-14
2.65002e-14
2.65042e-14
2.65074e-14
2.651e-14
2.65119e-14
2.65131e-14
2.65137e-14
2.65137e-14
2.65131e-14
2.65119e-14
2.651e-14
2.65074e-14
2.65042e-14
2.65002e-14
2.64954e-14
2.64897e-14
2.64831e-14
2.64755e-14
2.64669e-14
2.6457e-14
2.64458e-14
2.64332e-14
2.64191e-14
2.64033e-14
2.63857e-14
2.63663e-14
2.63447e-14
2.6321e-14
2.6295e-14
2.62666e-14
2.62357e-14
2.62023e-14
2.61664e-14
2.61282e-14
2.60884e-14
2.60481e-14
2.60058e-14
9.48438e-14
9.50042e-14
9.51589e-14
9.53122e-14
9.54592e-14
9.55977e-14
9.57265e-14
9.58457e-14
9.59552e-14
9.60555e-14
9.61468e-14
9.62298e-14
9.63049e-14
9.63726e-14
9.64333e-14
9.64877e-14
9.65362e-14
9.65792e-14
9.66173e-14
9.66507e-14
9.66799e-14
9.67053e-14
9.6727e-14
9.67455e-14
9.67609e-14
9.67734e-14
9.67832e-14
9.67904e-14
9.67952e-14
9.67976e-14
9.67976e-14
9.67952e-14
9.67904e-14
9.67832e-14
9.67734e-14
9.67609e-14
9.67455e-14
9.6727e-14
9.67053e-14
9.66799e-14
9.66507e-14
9.66173e-14
9.65792e-14
9.65362e-14
9.64877e-14
9.64333e-14
9.63726e-14
9.63049e-14
9.62298e-14
9.61468e-14
9.60555e-14
9.59552e-14
9.58457e-14
9.57265e-14
9.55977e-14
9.54592e-14
9.53122e-14
9.51589e-14
9.50042e-14
9.48438e-14
3.52852e-13
3.5347e-13
3.54074e-13
3.54674e-13
3.5525e-13
3.55793e-13
3.56298e-13
3.56765e-13
3.57194e-13
3.57586e-13
3.57944e-13
3.58269e-13
3.58563e-13
3.58828e-13
3.59066e-13
3.59279e-13
3.59469e-13
3.59637e-13
3.59786e-13
3.59917e-13
3.60031e-13
3.6013e-13
3.60215e-13
3.60287e-13
3.60348e-13
3.60396e-13
3.60435e-13
3.60463e-13
3.60482e-13
3.60491e-13
3.60491e-13
3.60482e-13
3.60463e-13
3.60435e-13
3.60396e-13
3.60348e-13
3.60287e-13
3.60215e-13
3.6013e-13
3.60031e-13
3.59917e-13
3.59786e-13
3.59637e-13
3.59469e-13
3.59279e-13
3.59066e-13
3.58828e-13
3.58563e-13
3.58269e-13
3.57944e-13
3.57586e-13
3.57194e-13
3.56765e-13
3.56298e-13
3.55793e-13
3.5525e-13
3.54674e-13
3.54074e-13
3.5347e-13
3.52852e-13
1.33691e-12
1.33932e-12
1.34172e-12
1.3441e-12
1.34639e-12
1.34855e-12
1.35056e-12
1.35241e-12
1.35412e-12
1.35568e-12
1.3571e-12
1.35839e-12
1.35956e-12
1.36061e-12
1.36156e-12
1.3624e-12
1.36316e-12
1.36383e-12
1.36442e-12
1.36494e-12
1.36539e-12
1.36578e-12
1.36612e-12
1.36641e-12
1.36664e-12
1.36684e-12
1.36699e-12
1.3671e-12
1.36718e-12
1.36721e-12
1.36721e-12
1.36718e-12
1.3671e-12
1.36699e-12
1.36684e-12
1.36664e-12
1.36641e-12
1.36612e-12
1.36578e-12
1.36539e-12
1.36494e-12
1.36442e-12
1.36383e-12
1.36316e-12
1.3624e-12
1.36156e-12
1.36061e-12
1.35956e-12
1.35839e-12
1.3571e-12
1.35568e-12
1.35412e-12
1.35241e-12
1.35056e-12
1.34855e-12
1.34639e-12
1.3441e-12
1.34172e-12
1.33932e-12
1.33691e-12
5.14822e-12
5.15782e-12
5.16744e-12
5.17703e-12
5.18625e-12
5.19493e-12
5.20301e-12
5.21048e-12
5.21734e-12
5.22362e-12
5.22935e-12
5.23454e-12
5.23924e-12
5.24347e-12
5.24727e-12
5.25067e-12
5.2537e-12
5.25639e-12
5.25876e-12
5.26085e-12
5.26267e-12
5.26425e-12
5.26561e-12
5.26676e-12
5.26772e-12
5.2685e-12
5.26911e-12
5.26956e-12
5.26986e-12
5.27001e-12
5.27001e-12
5.26986e-12
5.26956e-12
5.26911e-12
5.2685e-12
5.26772e-12
5.26676e-12
5.26561e-12
5.26425e-12
5.26267e-12
5.26085e-12
5.25876e-12
5.25639e-12
5.2537e-12
5.25067e-12
5.24727e-12
5.24347e-12
5.23924e-12
5.23454e-12
5.22935e-12
5.22362e-12
5.21734e-12
5.21048e-12
5.20301e-12
5.19493e-12
5.18625e-12
5.17703e-12
5.16744e-12
5.15782e-12
5.14822e-12
2.01007e-11
2.01392e-11
2.01783e-11
2.02173e-11
2.02547e-11
2.029e-11
2.03229e-11
2.03532e-11
2.03811e-11
2.04066e-11
2.04299e-11
2.0451e-11
2.04701e-11
2.04873e-11
2.05027e-11
2.05165e-11
2.05288e-11
2.05397e-11
2.05494e-11
2.05579e-11
2.05653e-11
2.05717e-11
2.05772e-11
2.05818e-11
2.05857e-11
2.05889e-11
2.05914e-11
2.05932e-11
2.05944e-11
2.0595e-11
2.0595e-11
2.05944e-11
2.05932e-11
2.05914e-11
2.05889e-11
2.05857e-11
2.05818e-11
2.05772e-11
2.05717e-11
2.05653e-11
2.05579e-11
2.05494e-11
2.05397e-11
2.05288e-11
2.05165e-11
2.05027e-11
2.04873e-11
2.04701e-11
2.0451e-11
2.04299e-11
2.04066e-11
2.03811e-11
2.03532e-11
2.03229e-11
2.029e-11
2.02547e-11
2.02173e-11
2.01783e-11
2.01392e-11
2.01007e-11
7.93434e-11
7.94997e-11
7.96593e-11
7.98188e-11
7.99722e-11
8.01166e-11
8.02511e-11
8.03753e-11
8.04895e-11
8.05939e-11
8.0689e-11
8.07754e-11
8.08534e-11
8.09238e-11
8.09869e-11
8.10434e-11
8.10937e-11
8.11383e-11
8.11777e-11
8.12124e-11
8.12426e-11
8.12689e-11
8.12914e-11
8.13105e-11
8.13264e-11
8.13393e-11
8.13494e-11
8.13569e-11
8.13619e-11
8.13643e-11
8.13643e-11
8.13619e-11
8.13569e-11
8.13494e-11
8.13393e-11
8.13264e-11
8.13105e-11
8.12914e-11
8.12689e-11
8.12426e-11
8.12124e-11
8.11777e-11
8.11383e-11
8.10937e-11
8.10434e-11
8.09869e-11
8.09238e-11
8.08534e-11
8.07754e-11
8.0689e-11
8.05939e-11
8.04895e-11
8.03753e-11
8.02511e-11
8.01166e-11
7.99722e-11
7.98188e-11
7.96593e-11
7.94997e-11
7.93434e-11
3.15562e-10
3.16198e-10
3.16853e-10
3.17509e-10
3.18138e-10
3.18731e-10
3.19283e-10
3.19794e-10
3.20262e-10
3.20691e-10
3.21082e-10
3.21436e-10
3.21756e-10
3.22045e-10
3.22304e-10
3.22536e-10
3.22742e-10
3.22925e-10
3.23087e-10
3.23229e-10
3.23353e-10
3.23461e-10
3.23553e-10
3.23631e-10
3.23697e-10
3.2375e-10
3.23791e-10
3.23822e-10
3.23842e-10
3.23852e-10
3.23852e-10
3.23842e-10
3.23822e-10
3.23791e-10
3.2375e-10
3.23697e-10
3.23631e-10
3.23553e-10
3.23461e-10
3.23353e-10
3.23229e-10
3.23087e-10
3.22925e-10
3.22742e-10
3.22536e-10
3.22304e-10
3.22045e-10
3.21756e-10
3.21436e-10
3.21082e-10
3.20691e-10
3.20262e-10
3.19794e-10
3.19283e-10
3.18731e-10
3.18138e-10
3.17509e-10
3.16853e-10
3.16198e-10
3.15562e-10
1.25954e-09
1.26213e-09
1.26482e-09
1.2675e-09
1.27009e-09
1.27252e-09
1.27479e-09
1.27688e-09
1.2788e-09
1.28056e-09
1.28216e-09
1.28361e-09
1.28493e-09
1.28611e-09
1.28717e-09
1.28812e-09
1.28897e-09
1.28972e-09
1.29038e-09
1.29096e-09
1.29147e-09
1.29191e-09
1.29229e-09
1.29261e-09
1.29288e-09
1.2931e-09
1.29327e-09
1.29339e-09
1.29347e-09
1.29352e-09
1.29352e-09
1.29347e-09
1.29339e-09
1.29327e-09
1.2931e-09
1.29288e-09
1.29261e-09
1.29229e-09
1.29191e-09
1.29147e-09
1.29096e-09
1.29038e-09
1.28972e-09
1.28897e-09
1.28812e-09
1.28717e-09
1.28611e-09
1.28493e-09
1.28361e-09
1.28216e-09
1.28056e-09
1.2788e-09
1.27688e-09
1.27479e-09
1.27252e-09
1.27009e-09
1.2675e-09
1.26482e-09
1.26213e-09
1.25954e-09
5.02217e-09
5.03269e-09
5.04365e-09
5.05462e-09
5.06515e-09
5.07508e-09
5.08431e-09
5.09284e-09
5.10068e-09
5.10785e-09
5.11438e-09
5.1203e-09
5.12565e-09
5.13048e-09
5.1348e-09
5.13867e-09
5.14212e-09
5.14518e-09
5.14788e-09
5.15025e-09
5.15232e-09
5.15412e-09
5.15566e-09
5.15696e-09
5.15805e-09
5.15893e-09
5.15963e-09
5.16014e-09
5.16048e-09
5.16064e-09
5.16064e-09
5.16048e-09
5.16014e-09
5.15963e-09
5.15893e-09
5.15805e-09
5.15696e-09
5.15566e-09
5.15412e-09
5.15232e-09
5.15025e-09
5.14788e-09
5.14518e-09
5.14212e-09
5.13867e-09
5.1348e-09
5.13048e-09
5.12565e-09
5.1203e-09
5.11438e-09
5.10785e-09
5.10068e-09
5.09284e-09
5.08431e-09
5.07508e-09
5.06515e-09
5.05462e-09
5.04365e-09
5.03269e-09
5.02217e-09
1.98988e-08
1.99411e-08
1.99853e-08
2.00295e-08
2.0072e-08
2.0112e-08
2.01492e-08
2.01836e-08
2.02152e-08
2.02441e-08
2.02704e-08
2.02942e-08
2.03158e-08
2.03352e-08
2.03526e-08
2.03682e-08
2.03821e-08
2.03944e-08
2.04053e-08
2.04148e-08
2.04232e-08
2.04304e-08
2.04366e-08
2.04419e-08
2.04462e-08
2.04498e-08
2.04526e-08
2.04546e-08
2.0456e-08
2.04567e-08
2.04567e-08
2.0456e-08
2.04546e-08
2.04526e-08
2.04498e-08
2.04462e-08
2.04419e-08
2.04366e-08
2.04304e-08
2.04232e-08
2.04148e-08
2.04053e-08
2.03944e-08
2.03821e-08
2.03682e-08
2.03526e-08
2.03352e-08
2.03158e-08
2.02942e-08
2.02704e-08
2.02441e-08
2.02152e-08
2.01836e-08
2.01492e-08
2.0112e-08
2.0072e-08
2.00295e-08
1.99853e-08
1.99411e-08
1.98988e-08
7.78736e-08
7.80405e-08
7.82157e-08
7.83908e-08
7.8559e-08
7.87172e-08
7.88645e-08
7.90005e-08
7.91255e-08
7.92397e-08
7.93437e-08
7.94381e-08
7.95234e-08
7.96002e-08
7.96691e-08
7.97307e-08
7.97856e-08
7.98343e-08
7.98773e-08
7.9915e-08
7.9948e-08
7.99765e-08
8.0001e-08
8.00218e-08
8.00391e-08
8.00531e-08
8.00642e-08
8.00723e-08
8.00777e-08
8.00803e-08
8.00803e-08
8.00777e-08
8.00723e-08
8.00642e-08
8.00531e-08
8.00391e-08
8.00218e-08
8.0001e-08
7.99765e-08
7.9948e-08
7.9915e-08
7.98773e-08
7.98343e-08
7.97856e-08
7.97307e-08
7.96691e-08
7.96002e-08
7.95234e-08
7.94381e-08
7.93437e-08
7.92397e-08
7.91255e-08
7.90005e-08
7.88645e-08
7.87172e-08
7.8559e-08
7.83908e-08
7.82157e-08
7.80405e-08
7.78736e-08
2.98943e-07
2.99587e-07
3.00263e-07
3.00939e-07
3.01588e-07
3.02198e-07
3.02766e-07
3.0329e-07
3.03772e-07
3.04212e-07
3.04613e-07
3.04977e-07
3.05306e-07
3.05602e-07
3.05867e-07
3.06104e-07
3.06316e-07
3.06503e-07
3.06669e-07
3.06814e-07
3.06941e-07
3.07051e-07
3.07145e-07
3.07225e-07
3.07292e-07
3.07346e-07
3.07389e-07
3.0742e-07
3.07441e-07
3.07451e-07
3.07451e-07
3.07441e-07
3.0742e-07
3.07389e-07
3.07346e-07
3.07292e-07
3.07225e-07
3.07145e-07
3.07051e-07
3.06941e-07
3.06814e-07
3.06669e-07
3.06503e-07
3.06316e-07
3.06104e-07
3.05867e-07
3.05602e-07
3.05306e-07
3.04977e-07
3.04613e-07
3.04212e-07
3.03772e-07
3.0329e-07
3.02766e-07
3.02198e-07
3.01588e-07
3.00939e-07
3.00263e-07
2.99587e-07
2.98943e-07
1.11697e-06
1.11937e-06
1.1219e-06
1.12442e-06
1.12684e-06
1.12911e-06
1.13122e-06
1.13318e-06
1.13497e-06
1.13661e-06
1.1381e-06
1.13946e-06
1.14068e-06
1.14178e-06
1.14277e-06
1.14365e-06
1.14444e-06
1.14514e-06
1.14575e-06
1.14629e-06
1.14676e-06
1.14717e-06
1.14752e-06
1.14782e-06
1.14807e-06
1.14827e-06
1.14843e-06
1.14855e-06
1.14862e-06
1.14866e-06
1.14866e-06
1.14862e-06
1.14855e-06
1.14843e-06
1.14827e-06
1.14807e-06
1.14782e-06
1.14752e-06
1.14717e-06
1.14676e-06
1.14629e-06
1.14575e-06
1.14514e-06
1.14444e-06
1.14365e-06
1.14277e-06
1.14178e-06
1.14068e-06
1.13946e-06
1.1381e-06
1.13661e-06
1.13497e-06
1.13318e-06
1.13122e-06
1.12911e-06
1.12684e-06
1.12442e-06
1.1219e-06
1.11937e-06
1.11697e-06
4.02665e-06
4.03523e-06
4.04425e-06
4.05324e-06
4.06186e-06
4.06996e-06
4.07749e-06
4.08445e-06
4.09083e-06
4.09667e-06
4.10198e-06
4.1068e-06
4.11116e-06
4.11508e-06
4.11859e-06
4.12173e-06
4.12453e-06
4.12702e-06
4.12921e-06
4.13113e-06
4.13281e-06
4.13426e-06
4.13551e-06
4.13657e-06
4.13745e-06
4.13817e-06
4.13873e-06
4.13914e-06
4.13942e-06
4.13955e-06
4.13955e-06
4.13942e-06
4.13914e-06
4.13873e-06
4.13817e-06
4.13745e-06
4.13657e-06
4.13551e-06
4.13426e-06
4.13281e-06
4.13113e-06
4.12921e-06
4.12702e-06
4.12453e-06
4.12173e-06
4.11859e-06
4.11508e-06
4.11116e-06
4.1068e-06
4.10198e-06
4.09667e-06
4.09083e-06
4.08445e-06
4.07749e-06
4.06996e-06
4.06186e-06
4.05324e-06
4.04425e-06
4.03523e-06
4.02665e-06
1.38681e-05
1.38972e-05
1.39277e-05
1.3958e-05
1.39871e-05
1.40143e-05
1.40397e-05
1.40631e-05
1.40846e-05
1.41043e-05
1.41222e-05
1.41384e-05
1.41531e-05
1.41662e-05
1.41781e-05
1.41887e-05
1.41981e-05
1.42064e-05
1.42138e-05
1.42203e-05
1.42259e-05
1.42308e-05
1.4235e-05
1.42386e-05
1.42415e-05
1.42439e-05
1.42458e-05
1.42472e-05
1.42481e-05
1.42486e-05
1.42486e-05
1.42481e-05
1.42472e-05
1.42458e-05
1.42439e-05
1.42415e-05
1.42386e-05
1.4235e-05
1.42308e-05
1.42259e-05
1.42203e-05
1.42138e-05
1.42064e-05
1.41981e-05
1.41887e-05
1.41781e-05
1.41662e-05
1.41531e-05
1.41384e-05
1.41222e-05
1.41043e-05
1.40846e-05
1.40631e-05
1.40397e-05
1.40143e-05
1.39871e-05
1.3958e-05
1.39277e-05
1.38972e-05
1.38681e-05
4.51316e-05
4.52237e-05
4.532e-05
4.54155e-05
4.55068e-05
4.55926e-05
4.56724e-05
4.5746e-05
4.58136e-05
4.58754e-05
4.59316e-05
4.59825e-05
4.60286e-05
4.607e-05
4.61072e-05
4.61404e-05
4.61699e-05
4.61962e-05
4.62193e-05
4.62396e-05
4.62573e-05
4.62727e-05
4.62859e-05
4.6297e-05
4.63063e-05
4.63139e-05
4.63198e-05
4.63242e-05
4.63271e-05
4.63285e-05
4.63285e-05
4.63271e-05
4.63242e-05
4.63198e-05
4.63139e-05
4.63063e-05
4.6297e-05
4.62859e-05
4.62727e-05
4.62573e-05
4.62396e-05
4.62193e-05
4.61962e-05
4.61699e-05
4.61404e-05
4.61072e-05
4.607e-05
4.60286e-05
4.59825e-05
4.59316e-05
4.58754e-05
4.58136e-05
4.5746e-05
4.56724e-05
4.55926e-05
4.55068e-05
4.54155e-05
4.532e-05
4.52237e-05
4.51316e-05
0.000137094
0.000137362
0.000137642
0.000137918
0.000138183
0.000138431
0.000138661
0.000138874
0.000139069
0.000139248
0.00013941
0.000139557
0.00013969
0.00013981
0.000139917
0.000140013
0.000140099
0.000140174
0.000140241
0.0001403
0.000140351
0.000140395
0.000140433
0.000140465
0.000140492
0.000140514
0.000140531
0.000140544
0.000140552
0.000140556
0.000140556
0.000140552
0.000140544
0.000140531
0.000140514
0.000140492
0.000140465
0.000140433
0.000140395
0.000140351
0.0001403
0.000140241
0.000140174
0.000140099
0.000140013
0.000139917
0.00013981
0.00013969
0.000139557
0.00013941
0.000139248
0.000139069
0.000138874
0.000138661
0.000138431
0.000138183
0.000137918
0.000137642
0.000137362
0.000137094
0.000383557
0.000384266
0.000385001
0.000385725
0.000386417
0.000387066
0.000387669
0.000388225
0.000388735
0.000389201
0.000389625
0.00039001
0.000390357
0.000390669
0.000390949
0.0003912
0.000391423
0.00039162
0.000391794
0.000391947
0.000392081
0.000392197
0.000392296
0.00039238
0.00039245
0.000392507
0.000392552
0.000392584
0.000392606
0.000392617
0.000392617
0.000392606
0.000392584
0.000392552
0.000392507
0.00039245
0.00039238
0.000392296
0.000392197
0.000392081
0.000391947
0.000391794
0.00039162
0.000391423
0.0003912
0.000390949
0.000390669
0.000390357
0.00039001
0.000389625
0.000389201
0.000388735
0.000388225
0.000387669
0.000387066
0.000386417
0.000385725
0.000385001
0.000384266
0.000383557
0.000974781
0.00097645
0.000978165
0.000979851
0.000981459
0.000982966
0.000984366
0.000985656
0.00098684
0.000987921
0.000988905
0.000989796
0.000990601
0.000991326
0.000991975
0.000992556
0.000993072
0.00099353
0.000993934
0.000994289
0.000994598
0.000994866
0.000995096
0.000995291
0.000995453
0.000995585
0.000995688
0.000995765
0.000995815
0.00099584
0.00099584
0.000995815
0.000995765
0.000995688
0.000995585
0.000995453
0.000995291
0.000995096
0.000994866
0.000994598
0.000994289
0.000993934
0.00099353
0.000993072
0.000992556
0.000991975
0.000991326
0.000990601
0.000989796
0.000988905
0.000987921
0.00098684
0.000985656
0.000984366
0.000982966
0.000981459
0.000979851
0.000978165
0.00097645
0.000974781
0.00222167
0.00222511
0.00222861
0.00223204
0.0022353
0.00223836
0.0022412
0.00224381
0.00224621
0.0022484
0.0022504
0.0022522
0.00225383
0.0022553
0.00225661
0.00225779
0.00225883
0.00225976
0.00226058
0.0022613
0.00226192
0.00226247
0.00226293
0.00226333
0.00226365
0.00226392
0.00226413
0.00226428
0.00226439
0.00226444
0.00226444
0.00226439
0.00226428
0.00226413
0.00226392
0.00226365
0.00226333
0.00226293
0.00226247
0.00226192
0.0022613
0.00226058
0.00225976
0.00225883
0.00225779
0.00225661
0.0022553
0.00225383
0.0022522
0.0022504
0.0022484
0.00224621
0.00224381