/*--------------------------------*- C++ -*----------------------------------*\
| =========                 |                                                 |
| \\      /  F ield         | foam-extend: Open Source CFD                    |
|  \\    /   O peration     | Version:     4.0                                |
|   \\  /    A nd           | Web:         http://www.foam-extend.org         |
|    \\/     M anipulation  |                                                 |
\*---------------------------------------------------------------------------*/
FoamFile
{
    version     2.0;
    format      ascii;
    class       volScalarField;
    location    "1930";
    object      psiE;
}
// * * * * * * * * * * * * * * * * * * * * * * * * * * * * * * * * * * * * * //

dimensions      [0 0 0 0 0 0 0];

internalField   nonuniform List<scalar> 
6960
(
0.332803
0.332807
0.332812
0.332817
0.332822
0.332827
0.332831
0.332835
0.332839
0.332843
0.332846
0.332848
0.332851
0.332853
0.332855
0.332857
0.332859
0.33286
0.332861
0.332863
0.332864
0.332864
0.332865
0.332866
0.332866
0.332867
0.332867
0.332867
0.332867
0.332867
0.332867
0.332867
0.332867
0.332867
0.332867
0.332866
0.332866
0.332865
0.332864
0.332864
0.332863
0.332861
0.33286
0.332859
0.332857
0.332855
0.332853
0.332851
0.332848
0.332846
0.332843
0.332839
0.332835
0.332831
0.332827
0.332822
0.332817
0.332812
0.332807
0.332803
0.827234
0.827251
0.827271
0.827293
0.827313
0.827333
0.827351
0.827368
0.827383
0.827397
0.827409
0.827421
0.827431
0.82744
0.827449
0.827456
0.827463
0.827469
0.827474
0.827478
0.827482
0.827486
0.827489
0.827491
0.827493
0.827495
0.827496
0.827497
0.827498
0.827498
0.827498
0.827498
0.827497
0.827496
0.827495
0.827493
0.827491
0.827489
0.827486
0.827482
0.827478
0.827474
0.827469
0.827463
0.827456
0.827449
0.82744
0.827431
0.827421
0.827409
0.827397
0.827383
0.827368
0.827351
0.827333
0.827313
0.827293
0.827271
0.827251
0.827234
1.27074
1.27077
1.27081
1.27085
1.27089
1.27093
1.27097
1.271
1.27103
1.27106
1.27108
1.27111
1.27113
1.27115
1.27116
1.27118
1.27119
1.2712
1.27121
1.27122
1.27123
1.27123
1.27124
1.27125
1.27125
1.27125
1.27126
1.27126
1.27126
1.27126
1.27126
1.27126
1.27126
1.27126
1.27125
1.27125
1.27125
1.27124
1.27123
1.27123
1.27122
1.27121
1.2712
1.27119
1.27118
1.27116
1.27115
1.27113
1.27111
1.27108
1.27106
1.27103
1.271
1.27097
1.27093
1.27089
1.27085
1.27081
1.27077
1.27074
1.69928
1.69933
1.6994
1.69946
1.69953
1.69959
1.69965
1.6997
1.69975
1.69979
1.69983
1.69987
1.6999
1.69993
1.69995
1.69998
1.7
1.70002
1.70003
1.70005
1.70006
1.70007
1.70008
1.70009
1.70009
1.7001
1.7001
1.7001
1.70011
1.70011
1.70011
1.70011
1.7001
1.7001
1.7001
1.70009
1.70009
1.70008
1.70007
1.70006
1.70005
1.70003
1.70002
1.7
1.69998
1.69995
1.69993
1.6999
1.69987
1.69983
1.69979
1.69975
1.6997
1.69965
1.69959
1.69953
1.69946
1.6994
1.69933
1.69928
2.12704
2.12711
2.1272
2.1273
2.12739
2.12747
2.12755
2.12762
2.12769
2.12775
2.12781
2.12786
2.1279
2.12794
2.12798
2.12801
2.12804
2.12807
2.12809
2.12811
2.12813
2.12814
2.12815
2.12817
2.12817
2.12818
2.12819
2.12819
2.12819
2.1282
2.1282
2.12819
2.12819
2.12819
2.12818
2.12817
2.12817
2.12815
2.12814
2.12813
2.12811
2.12809
2.12807
2.12804
2.12801
2.12798
2.12794
2.1279
2.12786
2.12781
2.12775
2.12769
2.12762
2.12755
2.12747
2.12739
2.1273
2.1272
2.12711
2.12704
2.55997
2.56007
2.56018
2.56031
2.56043
2.56054
2.56064
2.56074
2.56082
2.5609
2.56097
2.56104
2.5611
2.56115
2.5612
2.56124
2.56128
2.56131
2.56134
2.56137
2.56139
2.56141
2.56143
2.56144
2.56145
2.56146
2.56147
2.56147
2.56148
2.56148
2.56148
2.56148
2.56147
2.56147
2.56146
2.56145
2.56144
2.56143
2.56141
2.56139
2.56137
2.56134
2.56131
2.56128
2.56124
2.5612
2.56115
2.5611
2.56104
2.56097
2.5609
2.56082
2.56074
2.56064
2.56054
2.56043
2.56031
2.56018
2.56007
2.55997
3.00064
3.00076
3.0009
3.00105
3.0012
3.00134
3.00147
3.00159
3.00169
3.00179
3.00188
3.00196
3.00204
3.0021
3.00216
3.00221
3.00226
3.0023
3.00234
3.00237
3.0024
3.00242
3.00244
3.00246
3.00247
3.00249
3.0025
3.0025
3.00251
3.00251
3.00251
3.00251
3.0025
3.0025
3.00249
3.00247
3.00246
3.00244
3.00242
3.0024
3.00237
3.00234
3.0023
3.00226
3.00221
3.00216
3.0021
3.00204
3.00196
3.00188
3.00179
3.00169
3.00159
3.00147
3.00134
3.0012
3.00105
3.0009
3.00076
3.00064
3.45014
3.45027
3.45045
3.45063
3.45081
3.45097
3.45113
3.45127
3.4514
3.45152
3.45162
3.45172
3.45181
3.45189
3.45196
3.45202
3.45208
3.45213
3.45217
3.45221
3.45224
3.45227
3.45229
3.45231
3.45233
3.45235
3.45236
3.45237
3.45237
3.45237
3.45237
3.45237
3.45237
3.45236
3.45235
3.45233
3.45231
3.45229
3.45227
3.45224
3.45221
3.45217
3.45213
3.45208
3.45202
3.45196
3.45189
3.45181
3.45172
3.45162
3.45152
3.4514
3.45127
3.45113
3.45097
3.45081
3.45063
3.45045
3.45027
3.45014
3.90893
3.90909
3.90929
3.9095
3.90971
3.9099
3.91008
3.91025
3.9104
3.91054
3.91066
3.91078
3.91088
3.91097
3.91105
3.91113
3.91119
3.91125
3.9113
3.91134
3.91138
3.91142
3.91145
3.91147
3.91149
3.91151
3.91152
3.91153
3.91154
3.91154
3.91154
3.91154
3.91153
3.91152
3.91151
3.91149
3.91147
3.91145
3.91142
3.91138
3.91134
3.9113
3.91125
3.91119
3.91113
3.91105
3.91097
3.91088
3.91078
3.91066
3.91054
3.9104
3.91025
3.91008
3.9099
3.90971
3.9095
3.90929
3.90909
3.90893
4.3772
4.37739
4.37762
4.37786
4.3781
4.37832
4.37852
4.37871
4.37889
4.37904
4.37919
4.37932
4.37943
4.37954
4.37963
4.37972
4.37979
4.37986
4.37992
4.37997
4.38001
4.38005
4.38008
4.38011
4.38014
4.38015
4.38017
4.38018
4.38019
4.38019
4.38019
4.38019
4.38018
4.38017
4.38015
4.38014
4.38011
4.38008
4.38005
4.38001
4.37997
4.37992
4.37986
4.37979
4.37972
4.37963
4.37954
4.37943
4.37932
4.37919
4.37904
4.37889
4.37871
4.37852
4.37832
4.3781
4.37786
4.37762
4.37739
4.3772
4.85503
4.85523
4.85549
4.85577
4.85603
4.85628
4.85651
4.85673
4.85692
4.8571
4.85726
4.85741
4.85754
4.85766
4.85777
4.85786
4.85795
4.85802
4.85809
4.85814
4.85819
4.85824
4.85827
4.85831
4.85833
4.85835
4.85837
4.85838
4.85839
4.8584
4.8584
4.85839
4.85838
4.85837
4.85835
4.85833
4.85831
4.85827
4.85824
4.85819
4.85814
4.85809
4.85802
4.85795
4.85786
4.85777
4.85766
4.85754
4.85741
4.85726
4.8571
4.85692
4.85673
4.85651
4.85628
4.85603
4.85577
4.85549
4.85523
4.85503
5.3424
5.34263
5.34292
5.34322
5.34352
5.3438
5.34405
5.34429
5.34451
5.34471
5.34489
5.34505
5.3452
5.34533
5.34545
5.34556
5.34565
5.34573
5.34581
5.34587
5.34593
5.34598
5.34602
5.34605
5.34608
5.3461
5.34612
5.34614
5.34615
5.34615
5.34615
5.34615
5.34614
5.34612
5.3461
5.34608
5.34605
5.34602
5.34598
5.34593
5.34587
5.34581
5.34573
5.34565
5.34556
5.34545
5.34533
5.3452
5.34505
5.34489
5.34471
5.34451
5.34429
5.34405
5.3438
5.34352
5.34322
5.34292
5.34263
5.3424
5.83928
5.83953
5.83985
5.84019
5.84051
5.84082
5.8411
5.84137
5.84161
5.84183
5.84202
5.8422
5.84237
5.84251
5.84264
5.84276
5.84286
5.84295
5.84304
5.84311
5.84317
5.84322
5.84327
5.84331
5.84334
5.84336
5.84338
5.8434
5.84341
5.84341
5.84341
5.84341
5.8434
5.84338
5.84336
5.84334
5.84331
5.84327
5.84322
5.84317
5.84311
5.84304
5.84295
5.84286
5.84276
5.84264
5.84251
5.84237
5.8422
5.84202
5.84183
5.84161
5.84137
5.8411
5.84082
5.84051
5.84019
5.83985
5.83953
5.83928
6.34558
6.34586
6.34621
6.34658
6.34694
6.34727
6.34758
6.34787
6.34813
6.34837
6.34859
6.34879
6.34896
6.34912
6.34927
6.34939
6.34951
6.34961
6.3497
6.34977
6.34984
6.3499
6.34995
6.34999
6.35003
6.35006
6.35008
6.35009
6.35011
6.35011
6.35011
6.35011
6.35009
6.35008
6.35006
6.35003
6.34999
6.34995
6.3499
6.34984
6.34977
6.3497
6.34961
6.34951
6.34939
6.34927
6.34912
6.34896
6.34879
6.34859
6.34837
6.34813
6.34787
6.34758
6.34727
6.34694
6.34658
6.34621
6.34586
6.34558
6.86122
6.86151
6.8619
6.8623
6.86268
6.86305
6.86338
6.8637
6.86398
6.86424
6.86448
6.86469
6.86488
6.86506
6.86521
6.86535
6.86547
6.86558
6.86568
6.86576
6.86584
6.8659
6.86595
6.866
6.86604
6.86607
6.86609
6.86611
6.86612
6.86613
6.86613
6.86612
6.86611
6.86609
6.86607
6.86604
6.866
6.86595
6.8659
6.86584
6.86576
6.86568
6.86558
6.86547
6.86535
6.86521
6.86506
6.86488
6.86469
6.86448
6.86424
6.86398
6.8637
6.86338
6.86305
6.86268
6.8623
6.8619
6.86151
6.86122
7.38602
7.38634
7.38676
7.38719
7.3876
7.388
7.38836
7.3887
7.389
7.38929
7.38954
7.38977
7.38998
7.39017
7.39033
7.39048
7.39061
7.39073
7.39084
7.39093
7.391
7.39107
7.39113
7.39118
7.39122
7.39126
7.39128
7.3913
7.39131
7.39132
7.39132
7.39131
7.3913
7.39128
7.39126
7.39122
7.39118
7.39113
7.39107
7.391
7.39093
7.39084
7.39073
7.39061
7.39048
7.39033
7.39017
7.38998
7.38977
7.38954
7.38929
7.389
7.3887
7.38836
7.388
7.3876
7.38719
7.38676
7.38634
7.38602
7.91982
7.92016
7.9206
7.92107
7.92151
7.92193
7.92233
7.92269
7.92302
7.92332
7.92359
7.92384
7.92406
7.92426
7.92444
7.9246
7.92474
7.92487
7.92498
7.92508
7.92516
7.92524
7.9253
7.92535
7.9254
7.92543
7.92546
7.92548
7.9255
7.9255
7.9255
7.9255
7.92548
7.92546
7.92543
7.9254
7.92535
7.9253
7.92524
7.92516
7.92508
7.92498
7.92487
7.92474
7.9246
7.92444
7.92426
7.92406
7.92384
7.92359
7.92332
7.92302
7.92269
7.92233
7.92193
7.92151
7.92107
7.9206
7.92016
7.91982
8.46237
8.46274
8.46321
8.46371
8.46418
8.46463
8.46505
8.46544
8.46579
8.46611
8.4664
8.46667
8.4669
8.46712
8.46731
8.46748
8.46763
8.46777
8.46788
8.46799
8.46808
8.46816
8.46822
8.46828
8.46833
8.46837
8.4684
8.46842
8.46843
8.46844
8.46844
8.46843
8.46842
8.4684
8.46837
8.46833
8.46828
8.46822
8.46816
8.46808
8.46799
8.46788
8.46777
8.46763
8.46748
8.46731
8.46712
8.4669
8.46667
8.4664
8.46611
8.46579
8.46544
8.46505
8.46463
8.46418
8.46371
8.46321
8.46274
8.46237
9.01341
9.0138
9.0143
9.01483
9.01533
9.01581
9.01625
9.01666
9.01704
9.01738
9.01769
9.01797
9.01822
9.01845
9.01865
9.01884
9.019
9.01914
9.01927
9.01938
9.01947
9.01956
9.01963
9.01969
9.01974
9.01978
9.01981
9.01983
9.01985
9.01986
9.01986
9.01985
9.01983
9.01981
9.01978
9.01974
9.01969
9.01963
9.01956
9.01947
9.01938
9.01927
9.01914
9.019
9.01884
9.01865
9.01845
9.01822
9.01797
9.01769
9.01738
9.01704
9.01666
9.01625
9.01581
9.01533
9.01483
9.0143
9.0138
9.01341
9.5726
9.57301
9.57354
9.57409
9.57463
9.57513
9.5756
9.57604
9.57643
9.5768
9.57712
9.57742
9.57769
9.57793
9.57814
9.57834
9.57851
9.57866
9.57879
9.57891
9.57901
9.5791
9.57917
9.57924
9.57929
9.57933
9.57937
9.57939
9.57941
9.57942
9.57942
9.57941
9.57939
9.57937
9.57933
9.57929
9.57924
9.57917
9.5791
9.57901
9.57891
9.57879
9.57866
9.57851
9.57834
9.57814
9.57793
9.57769
9.57742
9.57712
9.5768
9.57643
9.57604
9.5756
9.57513
9.57463
9.57409
9.57354
9.57301
9.5726
10.1395
10.14
10.1405
10.1411
10.1417
10.1422
10.1427
10.1432
10.1436
10.144
10.1443
10.1446
10.1449
10.1452
10.1454
10.1456
10.1458
10.1459
10.1461
10.1462
10.1463
10.1464
10.1465
10.1465
10.1466
10.1466
10.1467
10.1467
10.1467
10.1467
10.1467
10.1467
10.1467
10.1467
10.1466
10.1466
10.1465
10.1465
10.1464
10.1463
10.1462
10.1461
10.1459
10.1458
10.1456
10.1454
10.1452
10.1449
10.1446
10.1443
10.144
10.1436
10.1432
10.1427
10.1422
10.1417
10.1411
10.1405
10.14
10.1395
10.7138
10.7142
10.7148
10.7154
10.716
10.7166
10.7171
10.7176
10.718
10.7184
10.7188
10.7191
10.7194
10.7197
10.7199
10.7201
10.7203
10.7205
10.7206
10.7207
10.7209
10.7209
10.721
10.7211
10.7212
10.7212
10.7212
10.7213
10.7213
10.7213
10.7213
10.7213
10.7213
10.7212
10.7212
10.7212
10.7211
10.721
10.7209
10.7209
10.7207
10.7206
10.7205
10.7203
10.7201
10.7199
10.7197
10.7194
10.7191
10.7188
10.7184
10.718
10.7176
10.7171
10.7166
10.716
10.7154
10.7148
10.7142
10.7138
11.2947
11.2952
11.2958
11.2965
11.2971
11.2977
11.2982
11.2987
11.2992
11.2996
11.3
11.3003
11.3006
11.3009
11.3011
11.3014
11.3016
11.3017
11.3019
11.302
11.3021
11.3022
11.3023
11.3024
11.3025
11.3025
11.3026
11.3026
11.3026
11.3026
11.3026
11.3026
11.3026
11.3026
11.3025
11.3025
11.3024
11.3023
11.3022
11.3021
11.302
11.3019
11.3017
11.3016
11.3014
11.3011
11.3009
11.3006
11.3003
11.3
11.2996
11.2992
11.2987
11.2982
11.2977
11.2971
11.2965
11.2958
11.2952
11.2947
11.8818
11.8823
11.8829
11.8836
11.8843
11.8849
11.8854
11.886
11.8864
11.8869
11.8873
11.8876
11.8879
11.8882
11.8885
11.8887
11.8889
11.8891
11.8893
11.8894
11.8895
11.8896
11.8897
11.8898
11.8899
11.8899
11.89
11.89
11.89
11.89
11.89
11.89
11.89
11.89
11.8899
11.8899
11.8898
11.8897
11.8896
11.8895
11.8894
11.8893
11.8891
11.8889
11.8887
11.8885
11.8882
11.8879
11.8876
11.8873
11.8869
11.8864
11.886
11.8854
11.8849
11.8843
11.8836
11.8829
11.8823
11.8818
12.4743
12.4748
12.4754
12.4761
12.4768
12.4774
12.478
12.4786
12.4791
12.4795
12.4799
12.4803
12.4806
12.4809
12.4812
12.4815
12.4817
12.4819
12.482
12.4822
12.4823
12.4824
12.4825
12.4826
12.4827
12.4827
12.4827
12.4828
12.4828
12.4828
12.4828
12.4828
12.4828
12.4827
12.4827
12.4827
12.4826
12.4825
12.4824
12.4823
12.4822
12.482
12.4819
12.4817
12.4815
12.4812
12.4809
12.4806
12.4803
12.4799
12.4795
12.4791
12.4786
12.478
12.4774
12.4768
12.4761
12.4754
12.4748
12.4743
13.0713
13.0718
13.0725
13.0732
13.0739
13.0746
13.0752
13.0757
13.0762
13.0767
13.0771
13.0775
13.0779
13.0782
13.0785
13.0787
13.0789
13.0791
13.0793
13.0794
13.0796
13.0797
13.0798
13.0799
13.0799
13.08
13.08
13.0801
13.0801
13.0801
13.0801
13.0801
13.0801
13.08
13.08
13.0799
13.0799
13.0798
13.0797
13.0796
13.0794
13.0793
13.0791
13.0789
13.0787
13.0785
13.0782
13.0779
13.0775
13.0771
13.0767
13.0762
13.0757
13.0752
13.0746
13.0739
13.0732
13.0725
13.0718
13.0713
13.6718
13.6724
13.6731
13.6738
13.6745
13.6752
13.6759
13.6764
13.677
13.6774
13.6779
13.6783
13.6786
13.679
13.6792
13.6795
13.6797
13.6799
13.6801
13.6803
13.6804
13.6805
13.6806
13.6807
13.6808
13.6808
13.6809
13.6809
13.6809
13.6809
13.6809
13.6809
13.6809
13.6809
13.6808
13.6808
13.6807
13.6806
13.6805
13.6804
13.6803
13.6801
13.6799
13.6797
13.6795
13.6792
13.679
13.6786
13.6783
13.6779
13.6774
13.677
13.6764
13.6759
13.6752
13.6745
13.6738
13.6731
13.6724
13.6718
14.2748
14.2754
14.2761
14.2769
14.2776
14.2783
14.279
14.2796
14.2801
14.2806
14.2811
14.2815
14.2818
14.2822
14.2825
14.2827
14.283
14.2832
14.2833
14.2835
14.2836
14.2838
14.2839
14.284
14.284
14.2841
14.2841
14.2842
14.2842
14.2842
14.2842
14.2842
14.2842
14.2841
14.2841
14.284
14.284
14.2839
14.2838
14.2836
14.2835
14.2833
14.2832
14.283
14.2827
14.2825
14.2822
14.2818
14.2815
14.2811
14.2806
14.2801
14.2796
14.279
14.2783
14.2776
14.2769
14.2761
14.2754
14.2748
14.879
14.8796
14.8803
14.8811
14.8819
14.8826
14.8832
14.8838
14.8844
14.8849
14.8854
14.8858
14.8862
14.8865
14.8868
14.8871
14.8873
14.8875
14.8877
14.8879
14.888
14.8881
14.8883
14.8883
14.8884
14.8885
14.8885
14.8886
14.8886
14.8886
14.8886
14.8886
14.8886
14.8885
14.8885
14.8884
14.8883
14.8883
14.8881
14.888
14.8879
14.8877
14.8875
14.8873
14.8871
14.8868
14.8865
14.8862
14.8858
14.8854
14.8849
14.8844
14.8838
14.8832
14.8826
14.8819
14.8811
14.8803
14.8796
14.879
15.4828
15.4834
15.4842
15.485
15.4858
15.4865
15.4872
15.4878
15.4883
15.4889
15.4893
15.4898
15.4901
15.4905
15.4908
15.4911
15.4913
15.4915
15.4917
15.4919
15.492
15.4922
15.4923
15.4924
15.4924
15.4925
15.4926
15.4926
15.4926
15.4926
15.4926
15.4926
15.4926
15.4926
15.4925
15.4924
15.4924
15.4923
15.4922
15.492
15.4919
15.4917
15.4915
15.4913
15.4911
15.4908
15.4905
15.4901
15.4898
15.4893
15.4889
15.4883
15.4878
15.4872
15.4865
15.4858
15.485
15.4842
15.4834
15.4828
16.0846
16.0852
16.086
16.0868
16.0876
16.0883
16.089
16.0897
16.0902
16.0908
16.0912
16.0917
16.0921
16.0924
16.0927
16.093
16.0933
16.0935
16.0937
16.0938
16.094
16.0941
16.0942
16.0943
16.0944
16.0945
16.0945
16.0945
16.0946
16.0946
16.0946
16.0946
16.0945
16.0945
16.0945
16.0944
16.0943
16.0942
16.0941
16.094
16.0938
16.0937
16.0935
16.0933
16.093
16.0927
16.0924
16.0921
16.0917
16.0912
16.0908
16.0902
16.0897
16.089
16.0883
16.0876
16.0868
16.086
16.0852
16.0846
16.6824
16.683
16.6838
16.6846
16.6854
16.6862
16.6869
16.6875
16.6881
16.6886
16.6891
16.6895
16.6899
16.6903
16.6906
16.6909
16.6911
16.6913
16.6915
16.6917
16.6919
16.692
16.6921
16.6922
16.6923
16.6923
16.6924
16.6924
16.6925
16.6925
16.6925
16.6925
16.6924
16.6924
16.6923
16.6923
16.6922
16.6921
16.692
16.6919
16.6917
16.6915
16.6913
16.6911
16.6909
16.6906
16.6903
16.6899
16.6895
16.6891
16.6886
16.6881
16.6875
16.6869
16.6862
16.6854
16.6846
16.6838
16.683
16.6824
17.2739
17.2745
17.2753
17.2761
17.2769
17.2777
17.2784
17.279
17.2796
17.2801
17.2806
17.281
17.2814
17.2818
17.2821
17.2824
17.2826
17.2829
17.2831
17.2832
17.2834
17.2835
17.2836
17.2837
17.2838
17.2839
17.2839
17.284
17.284
17.284
17.284
17.284
17.284
17.2839
17.2839
17.2838
17.2837
17.2836
17.2835
17.2834
17.2832
17.2831
17.2829
17.2826
17.2824
17.2821
17.2818
17.2814
17.281
17.2806
17.2801
17.2796
17.279
17.2784
17.2777
17.2769
17.2761
17.2753
17.2745
17.2739
17.8564
17.857
17.8578
17.8586
17.8594
17.8602
17.8609
17.8615
17.8621
17.8626
17.8631
17.8635
17.8639
17.8643
17.8646
17.8649
17.8651
17.8654
17.8656
17.8657
17.8659
17.866
17.8661
17.8662
17.8663
17.8663
17.8664
17.8664
17.8665
17.8665
17.8665
17.8665
17.8664
17.8664
17.8663
17.8663
17.8662
17.8661
17.866
17.8659
17.8657
17.8656
17.8654
17.8651
17.8649
17.8646
17.8643
17.8639
17.8635
17.8631
17.8626
17.8621
17.8615
17.8609
17.8602
17.8594
17.8586
17.8578
17.857
17.8564
18.4268
18.4274
18.4282
18.429
18.4298
18.4305
18.4312
18.4319
18.4324
18.433
18.4334
18.4339
18.4343
18.4346
18.4349
18.4352
18.4354
18.4357
18.4359
18.436
18.4362
18.4363
18.4364
18.4365
18.4366
18.4366
18.4367
18.4367
18.4368
18.4368
18.4368
18.4368
18.4367
18.4367
18.4366
18.4366
18.4365
18.4364
18.4363
18.4362
18.436
18.4359
18.4357
18.4354
18.4352
18.4349
18.4346
18.4343
18.4339
18.4334
18.433
18.4324
18.4319
18.4312
18.4305
18.4298
18.429
18.4282
18.4274
18.4268
18.9814
18.982
18.9828
18.9836
18.9844
18.9851
18.9858
18.9864
18.987
18.9875
18.9879
18.9884
18.9887
18.9891
18.9894
18.9897
18.9899
18.9901
18.9903
18.9905
18.9906
18.9907
18.9908
18.9909
18.991
18.9911
18.9911
18.9912
18.9912
18.9912
18.9912
18.9912
18.9912
18.9911
18.9911
18.991
18.9909
18.9908
18.9907
18.9906
18.9905
18.9903
18.9901
18.9899
18.9897
18.9894
18.9891
18.9887
18.9884
18.9879
18.9875
18.987
18.9864
18.9858
18.9851
18.9844
18.9836
18.9828
18.982
18.9814
19.5159
19.5165
19.5172
19.518
19.5188
19.5195
19.5201
19.5207
19.5212
19.5217
19.5222
19.5226
19.523
19.5233
19.5236
19.5239
19.5241
19.5243
19.5245
19.5246
19.5248
19.5249
19.525
19.5251
19.5252
19.5252
19.5253
19.5253
19.5253
19.5253
19.5253
19.5253
19.5253
19.5253
19.5252
19.5252
19.5251
19.525
19.5249
19.5248
19.5246
19.5245
19.5243
19.5241
19.5239
19.5236
19.5233
19.523
19.5226
19.5222
19.5217
19.5212
19.5207
19.5201
19.5195
19.5188
19.518
19.5172
19.5165
19.5159
20.025
20.0256
20.0263
20.0271
20.0278
20.0284
20.0291
20.0296
20.0301
20.0306
20.031
20.0314
20.0318
20.0321
20.0324
20.0326
20.0329
20.0331
20.0332
20.0334
20.0335
20.0336
20.0337
20.0338
20.0339
20.0339
20.034
20.034
20.034
20.034
20.034
20.034
20.034
20.034
20.0339
20.0339
20.0338
20.0337
20.0336
20.0335
20.0334
20.0332
20.0331
20.0329
20.0326
20.0324
20.0321
20.0318
20.0314
20.031
20.0306
20.0301
20.0296
20.0291
20.0284
20.0278
20.0271
20.0263
20.0256
20.025
20.5028
20.5033
20.504
20.5047
20.5053
20.506
20.5065
20.5071
20.5076
20.508
20.5084
20.5088
20.5091
20.5094
20.5096
20.5099
20.5101
20.5103
20.5104
20.5106
20.5107
20.5108
20.5109
20.511
20.511
20.5111
20.5111
20.5111
20.5112
20.5112
20.5112
20.5112
20.5111
20.5111
20.5111
20.511
20.511
20.5109
20.5108
20.5107
20.5106
20.5104
20.5103
20.5101
20.5099
20.5096
20.5094
20.5091
20.5088
20.5084
20.508
20.5076
20.5071
20.5065
20.506
20.5053
20.5047
20.504
20.5033
20.5028
20.9423
20.9428
20.9434
20.944
20.9446
20.9452
20.9457
20.9462
20.9466
20.947
20.9474
20.9477
20.948
20.9483
20.9485
20.9487
20.9489
20.9491
20.9492
20.9493
20.9494
20.9495
20.9496
20.9497
20.9498
20.9498
20.9498
20.9499
20.9499
20.9499
20.9499
20.9499
20.9499
20.9498
20.9498
20.9498
20.9497
20.9496
20.9495
20.9494
20.9493
20.9492
20.9491
20.9489
20.9487
20.9485
20.9483
20.948
20.9477
20.9474
20.947
20.9466
20.9462
20.9457
20.9452
20.9446
20.944
20.9434
20.9428
20.9423
21.3365
21.3369
21.3374
21.338
21.3385
21.339
21.3395
21.3399
21.3403
21.3406
21.3409
21.3412
21.3415
21.3417
21.3419
21.3421
21.3423
21.3424
21.3425
21.3426
21.3427
21.3428
21.3429
21.343
21.343
21.343
21.3431
21.3431
21.3431
21.3431
21.3431
21.3431
21.3431
21.3431
21.343
21.343
21.343
21.3429
21.3428
21.3427
21.3426
21.3425
21.3424
21.3423
21.3421
21.3419
21.3417
21.3415
21.3412
21.3409
21.3406
21.3403
21.3399
21.3395
21.339
21.3385
21.338
21.3374
21.3369
21.3365
21.6794
21.6797
21.6802
21.6806
21.6811
21.6815
21.6819
21.6822
21.6825
21.6828
21.6831
21.6833
21.6835
21.6837
21.6839
21.6841
21.6842
21.6843
21.6844
21.6845
21.6846
21.6847
21.6847
21.6848
21.6848
21.6848
21.6849
21.6849
21.6849
21.6849
21.6849
21.6849
21.6849
21.6849
21.6848
21.6848
21.6848
21.6847
21.6847
21.6846
21.6845
21.6844
21.6843
21.6842
21.6841
21.6839
21.6837
21.6835
21.6833
21.6831
21.6828
21.6825
21.6822
21.6819
21.6815
21.6811
21.6806
21.6802
21.6797
21.6794
21.9679
21.9682
21.9685
21.9689
21.9692
21.9696
21.9699
21.9701
21.9704
21.9706
21.9708
21.971
21.9712
21.9713
21.9715
21.9716
21.9717
21.9718
21.9719
21.9719
21.972
21.9721
21.9721
21.9722
21.9722
21.9722
21.9722
21.9722
21.9723
21.9723
21.9723
21.9723
21.9722
21.9722
21.9722
21.9722
21.9722
21.9721
21.9721
21.972
21.9719
21.9719
21.9718
21.9717
21.9716
21.9715
21.9713
21.9712
21.971
21.9708
21.9706
21.9704
21.9701
21.9699
21.9696
21.9692
21.9689
21.9685
21.9682
21.9679
22.2034
22.2036
22.2039
22.2042
22.2044
22.2047
22.2049
22.2051
22.2053
22.2055
22.2056
22.2058
22.2059
22.206
22.2061
22.2062
22.2063
22.2063
22.2064
22.2065
22.2065
22.2066
22.2066
22.2066
22.2066
22.2067
22.2067
22.2067
22.2067
22.2067
22.2067
22.2067
22.2067
22.2067
22.2067
22.2066
22.2066
22.2066
22.2066
22.2065
22.2065
22.2064
22.2063
22.2063
22.2062
22.2061
22.206
22.2059
22.2058
22.2056
22.2055
22.2053
22.2051
22.2049
22.2047
22.2044
22.2042
22.2039
22.2036
22.2034
22.3919
22.3921
22.3923
22.3925
22.3927
22.3928
22.393
22.3932
22.3933
22.3934
22.3935
22.3936
22.3937
22.3938
22.3939
22.3939
22.394
22.394
22.3941
22.3941
22.3942
22.3942
22.3942
22.3942
22.3943
22.3943
22.3943
22.3943
22.3943
22.3943
22.3943
22.3943
22.3943
22.3943
22.3943
22.3943
22.3942
22.3942
22.3942
22.3942
22.3941
22.3941
22.394
22.394
22.3939
22.3939
22.3938
22.3937
22.3936
22.3935
22.3934
22.3933
22.3932
22.393
22.3928
22.3927
22.3925
22.3923
22.3921
22.3919
22.5424
22.5425
22.5426
22.5427
22.5429
22.543
22.5431
22.5432
22.5433
22.5434
22.5435
22.5435
22.5436
22.5437
22.5437
22.5438
22.5438
22.5438
22.5439
22.5439
22.5439
22.5439
22.5439
22.544
22.544
22.544
22.544
22.544
22.544
22.544
22.544
22.544
22.544
22.544
22.544
22.544
22.544
22.5439
22.5439
22.5439
22.5439
22.5439
22.5438
22.5438
22.5438
22.5437
22.5437
22.5436
22.5435
22.5435
22.5434
22.5433
22.5432
22.5431
22.543
22.5429
22.5427
22.5426
22.5425
22.5424
22.6641
22.6641
22.6642
22.6643
22.6644
22.6645
22.6646
22.6646
22.6647
22.6648
22.6648
22.6649
22.6649
22.6649
22.665
22.665
22.665
22.665
22.6651
22.6651
22.6651
22.6651
22.6651
22.6651
22.6651
22.6651
22.6651
22.6651
22.6652
22.6652
22.6652
22.6652
22.6651
22.6651
22.6651
22.6651
22.6651
22.6651
22.6651
22.6651
22.6651
22.6651
22.665
22.665
22.665
22.665
22.6649
22.6649
22.6649
22.6648
22.6648
22.6647
22.6646
22.6646
22.6645
22.6644
22.6643
22.6642
22.6641
22.6641
22.765
22.7651
22.7651
22.7652
22.7653
22.7653
22.7654
22.7654
22.7655
22.7655
22.7655
22.7656
22.7656
22.7656
22.7656
22.7657
22.7657
22.7657
22.7657
22.7657
22.7657
22.7657
22.7657
22.7657
22.7657
22.7657
22.7658
22.7658
22.7658
22.7658
22.7658
22.7658
22.7658
22.7658
22.7657
22.7657
22.7657
22.7657
22.7657
22.7657
22.7657
22.7657
22.7657
22.7657
22.7657
22.7656
22.7656
22.7656
22.7656
22.7655
22.7655
22.7655
22.7654
22.7654
22.7653
22.7653
22.7652
22.7651
22.7651
22.765
22.8513
22.8513
22.8513
22.8514
22.8514
22.8515
22.8515
22.8515
22.8516
22.8516
22.8516
22.8516
22.8516
22.8517
22.8517
22.8517
22.8517
22.8517
22.8517
22.8517
22.8517
22.8517
22.8517
22.8517
22.8517
22.8517
22.8517
22.8517
22.8517
22.8517
22.8517
22.8517
22.8517
22.8517
22.8517
22.8517
22.8517
22.8517
22.8517
22.8517
22.8517
22.8517
22.8517
22.8517
22.8517
22.8517
22.8517
22.8516
22.8516
22.8516
22.8516
22.8516
22.8515
22.8515
22.8515
22.8514
22.8514
22.8513
22.8513
22.8513
22.9269
22.9269
22.9269
22.927
22.927
22.927
22.927
22.9271
22.9271
22.9271
22.9271
22.9271
22.9271
22.9271
22.9271
22.9271
22.9271
22.9271
22.9271
22.9271
22.9271
22.9271
22.9271
22.9271
22.9272
22.9272
22.9272
22.9272
22.9272
22.9272
22.9272
22.9272
22.9272
22.9272
22.9272
22.9272
22.9271
22.9271
22.9271
22.9271
22.9271
22.9271
22.9271
22.9271
22.9271
22.9271
22.9271
22.9271
22.9271
22.9271
22.9271
22.9271
22.9271
22.927
22.927
22.927
22.927
22.9269
22.9269
22.9269
22.9946
22.9946
22.9946
22.9946
22.9946
22.9947
22.9947
22.9947
22.9947
22.9947
22.9947
22.9947
22.9947
22.9947
22.9947
22.9947
22.9947
22.9947
22.9947
22.9947
22.9947
22.9947
22.9947
22.9947
22.9947
22.9947
22.9947
22.9947
22.9947
22.9947
22.9947
22.9947
22.9947
22.9947
22.9947
22.9947
22.9947
22.9947
22.9947
22.9947
22.9947
22.9947
22.9947
22.9947
22.9947
22.9947
22.9947
22.9947
22.9947
22.9947
22.9947
22.9947
22.9947
22.9947
22.9947
22.9946
22.9946
22.9946
22.9946
22.9946
23.0562
23.0562
23.0562
23.0562
23.0562
23.0562
23.0562
23.0562
23.0562
23.0562
23.0562
23.0562
23.0562
23.0562
23.0562
23.0562
23.0562
23.0562
23.0562
23.0562
23.0562
23.0562
23.0562
23.0562
23.0562
23.0562
23.0562
23.0562
23.0562
23.0562
23.0562
23.0562
23.0562
23.0562
23.0562
23.0562
23.0562
23.0562
23.0562
23.0562
23.0562
23.0562
23.0562
23.0562
23.0562
23.0562
23.0562
23.0562
23.0562
23.0562
23.0562
23.0562
23.0562
23.0562
23.0562
23.0562
23.0562
23.0562
23.0562
23.0562
23.1129
23.1129
23.1129
23.1129
23.1129
23.1129
23.1129
23.1129
23.1129
23.1129
23.1129
23.1129
23.1129
23.1129
23.1129
23.1129
23.1129
23.1129
23.1129
23.1129
23.1129
23.1129
23.1129
23.1129
23.1129
23.1129
23.1129
23.1129
23.1129
23.1129
23.1129
23.1129
23.1129
23.1129
23.1129
23.1129
23.1129
23.1129
23.1129
23.1129
23.1129
23.1129
23.1129
23.1129
23.1129
23.1129
23.1129
23.1129
23.1129
23.1129
23.1129
23.1129
23.1129
23.1129
23.1129
23.1129
23.1129
23.1129
23.1129
23.1129
23.1657
23.1657
23.1657
23.1657
23.1657
23.1657
23.1657
23.1657
23.1657
23.1657
23.1657
23.1657
23.1657
23.1657
23.1656
23.1656
23.1656
23.1656
23.1656
23.1656
23.1656
23.1656
23.1656
23.1656
23.1656
23.1656
23.1656
23.1656
23.1656
23.1656
23.1656
23.1656
23.1656
23.1656
23.1656
23.1656
23.1656
23.1656
23.1656
23.1656
23.1656
23.1656
23.1656
23.1656
23.1656
23.1656
23.1657
23.1657
23.1657
23.1657
23.1657
23.1657
23.1657
23.1657
23.1657
23.1657
23.1657
23.1657
23.1657
23.1657
23.2152
23.2152
23.2152
23.2152
23.2152
23.2152
23.2152
23.2152
23.2152
23.2152
23.2151
23.2151
23.2151
23.2151
23.2151
23.2151
23.2151
23.2151
23.2151
23.2151
23.2151
23.2151
23.2151
23.2151
23.215
23.215
23.215
23.215
23.215
23.215
23.215
23.215
23.215
23.215
23.215
23.215
23.2151
23.2151
23.2151
23.2151
23.2151
23.2151
23.2151
23.2151
23.2151
23.2151
23.2151
23.2151
23.2151
23.2151
23.2152
23.2152
23.2152
23.2152
23.2152
23.2152
23.2152
23.2152
23.2152
23.2152
23.262
23.262
23.2619
23.2619
23.2619
23.2619
23.2619
23.2619
23.2619
23.2619
23.2618
23.2618
23.2618
23.2618
23.2618
23.2618
23.2618
23.2618
23.2618
23.2618
23.2617
23.2617
23.2617
23.2617
23.2617
23.2617
23.2617
23.2617
23.2617
23.2617
23.2617
23.2617
23.2617
23.2617
23.2617
23.2617
23.2617
23.2617
23.2617
23.2617
23.2618
23.2618
23.2618
23.2618
23.2618
23.2618
23.2618
23.2618
23.2618
23.2618
23.2619
23.2619
23.2619
23.2619
23.2619
23.2619
23.2619
23.2619
23.262
23.262
23.3063
23.3063
23.3063
23.3063
23.3063
23.3062
23.3062
23.3062
23.3062
23.3062
23.3062
23.3062
23.3061
23.3061
23.3061
23.3061
23.3061
23.3061
23.3061
23.3061
23.3061
23.3061
23.3061
23.306
23.306
23.306
23.306
23.306
23.306
23.306
23.306
23.306
23.306
23.306
23.306
23.306
23.306
23.3061
23.3061
23.3061
23.3061
23.3061
23.3061
23.3061
23.3061
23.3061
23.3061
23.3061
23.3062
23.3062
23.3062
23.3062
23.3062
23.3062
23.3062
23.3063
23.3063
23.3063
23.3063
23.3063
23.3486
23.3486
23.3486
23.3486
23.3485
23.3485
23.3485
23.3485
23.3485
23.3485
23.3484
23.3484
23.3484
23.3484
23.3484
23.3484
23.3484
23.3484
23.3483
23.3483
23.3483
23.3483
23.3483
23.3483
23.3483
23.3483
23.3483
23.3483
23.3483
23.3483
23.3483
23.3483
23.3483
23.3483
23.3483
23.3483
23.3483
23.3483
23.3483
23.3483
23.3483
23.3483
23.3484
23.3484
23.3484
23.3484
23.3484
23.3484
23.3484
23.3484
23.3485
23.3485
23.3485
23.3485
23.3485
23.3485
23.3486
23.3486
23.3486
23.3486
23.3891
23.3891
23.3891
23.3891
23.389
23.389
23.389
23.389
23.389
23.389
23.3889
23.3889
23.3889
23.3889
23.3889
23.3889
23.3889
23.3888
23.3888
23.3888
23.3888
23.3888
23.3888
23.3888
23.3888
23.3888
23.3888
23.3888
23.3888
23.3888
23.3888
23.3888
23.3888
23.3888
23.3888
23.3888
23.3888
23.3888
23.3888
23.3888
23.3888
23.3888
23.3888
23.3889
23.3889
23.3889
23.3889
23.3889
23.3889
23.3889
23.389
23.389
23.389
23.389
23.389
23.389
23.3891
23.3891
23.3891
23.3891
23.4281
23.428
23.428
23.428
23.428
23.428
23.4279
23.4279
23.4279
23.4279
23.4279
23.4278
23.4278
23.4278
23.4278
23.4278
23.4278
23.4278
23.4278
23.4277
23.4277
23.4277
23.4277
23.4277
23.4277
23.4277
23.4277
23.4277
23.4277
23.4277
23.4277
23.4277
23.4277
23.4277
23.4277
23.4277
23.4277
23.4277
23.4277
23.4277
23.4277
23.4278
23.4278
23.4278
23.4278
23.4278
23.4278
23.4278
23.4278
23.4279
23.4279
23.4279
23.4279
23.4279
23.428
23.428
23.428
23.428
23.428
23.4281
23.4656
23.4656
23.4656
23.4656
23.4655
23.4655
23.4655
23.4655
23.4655
23.4654
23.4654
23.4654
23.4654
23.4654
23.4653
23.4653
23.4653
23.4653
23.4653
23.4653
23.4653
23.4653
23.4653
23.4653
23.4653
23.4653
23.4652
23.4652
23.4652
23.4652
23.4652
23.4652
23.4652
23.4652
23.4653
23.4653
23.4653
23.4653
23.4653
23.4653
23.4653
23.4653
23.4653
23.4653
23.4653
23.4653
23.4654
23.4654
23.4654
23.4654
23.4654
23.4655
23.4655
23.4655
23.4655
23.4655
23.4656
23.4656
23.4656
23.4656
23.5019
23.5019
23.5019
23.5019
23.5019
23.5018
23.5018
23.5018
23.5018
23.5018
23.5017
23.5017
23.5017
23.5017
23.5017
23.5017
23.5016
23.5016