/*--------------------------------*- C++ -*----------------------------------*\
| =========                 |                                                 |
| \\      /  F ield         | foam-extend: Open Source CFD                    |
|  \\    /   O peration     | Version:     4.0                                |
|   \\  /    A nd           | Web:         http://www.foam-extend.org         |
|    \\/     M anipulation  |                                                 |
\*---------------------------------------------------------------------------*/
FoamFile
{
    version     2.0;
    format      ascii;
    class       surfaceScalarField;
    location    "12";
    object      phi;
}
// * * * * * * * * * * * * * * * * * * * * * * * * * * * * * * * * * * * * * //

dimensions      [0 3 -1 0 0 0 0];

internalField   nonuniform List<scalar> 
13744
(
2.74062e-27
-2.73986e-27
1.21637e-27
1.52425e-27
-4.38839e-28
1.65521e-27
-1.78053e-28
-2.60786e-28
-1.44068e-28
-3.39911e-29
-1.19102e-28
-2.49536e-29
-1.53603e-28
3.45014e-29
-1.63089e-28
9.50747e-30
-1.94047e-28
3.09515e-29
-2.03917e-28
9.85045e-30
-2.18854e-28
1.49467e-29
-2.20324e-28
1.46261e-30
-2.25872e-28
5.55274e-30
-2.22661e-28
-3.19579e-30
-2.13475e-28
-9.18692e-30
-1.94585e-28
-1.88927e-29
-1.7414e-28
-2.04428e-29
-1.51301e-28
-2.2825e-29
-1.26402e-28
-2.49067e-29
-1.01935e-28
-2.44641e-29
-8.67359e-29
-1.52066e-29
-8.48448e-29
-1.90553e-30
-9.40891e-29
9.2241e-30
-1.09973e-28
1.5896e-29
-1.29092e-28
1.91291e-29
-1.44205e-28
1.51171e-29
-1.42868e-28
-1.33462e-30
-1.13871e-28
-2.90139e-29
-5.38855e-29
-5.99693e-29
3.21556e-29
-8.60518e-29
1.33262e-28
-1.01108e-28
2.31137e-28
-9.78661e-29
3.02204e-28
-7.10394e-29
3.23263e-28
-2.10531e-29
2.81023e-28
4.22417e-29
1.75322e-28
1.05694e-28
2.35466e-29
1.51796e-28
-1.41247e-28
1.64797e-28
-2.74202e-28
1.32956e-28
-3.31215e-28
5.70169e-29
-2.81469e-28
-4.97422e-29
-1.12405e-28
-1.69071e-28
1.53964e-28
-2.66367e-28
4.76717e-28
-3.22751e-28
7.71761e-28
-2.95047e-28
9.82785e-28
-2.11032e-28
1.01803e-27
-3.52476e-29
8.92563e-28
1.25471e-28
5.53783e-28
3.3878e-28
1.56141e-28
3.97637e-28
-3.23945e-28
4.80087e-28
-5.91555e-28
2.6761e-28
-7.78173e-28
1.8662e-28
-5.00764e-28
-2.77413e-28
-2.59788e-28
-2.40976e-28
4.74985e-28
-7.34774e-28
5.1124e-28
-3.62529e-29
8.16241e-28
-3.05001e-28
1.76867e-27
-9.52427e-28
1.76867e-27
1.13722e-27
-3.87708e-27
8.61973e-29
2.5753e-27
-6.88554e-28
2.42999e-27
-4.19034e-28
-5.30287e-28
-3.97473e-28
-5.55432e-29
-4.23956e-28
1.52444e-30
-4.93797e-28
1.04353e-28
-5.35167e-28
5.08546e-29
-5.8981e-28
8.55894e-29
-6.08723e-28
2.87906e-29
-6.26487e-28
3.26978e-29
-6.18e-28
-7.01866e-30
-6.08449e-28
-4.01916e-30
-5.7997e-28
-3.17152e-29
-5.37394e-28
-5.17656e-29
-4.76778e-28
-7.94353e-29
-4.10588e-28
-8.66341e-29
-3.40479e-28
-9.29513e-29
-2.69542e-28
-9.58273e-29
-2.0442e-28
-8.96012e-29
-1.58564e-28
-6.11017e-29
-1.37823e-28
-2.26856e-29
-1.36959e-28
8.37721e-30
-1.45729e-28
2.4685e-29
-1.53281e-28
2.66987e-29
-1.43591e-28
5.44212e-30
-9.50494e-29
-4.9913e-29
8.50346e-30
-1.32565e-28
1.67874e-28
-2.19374e-28
3.67235e-28
-2.85424e-28
5.78617e-28
-3.12521e-28
7.62591e-28
-2.81815e-28
8.75198e-28
-1.83679e-28
8.79261e-28
-2.50983e-29
7.60615e-28
1.60899e-28
5.33482e-28
3.3284e-28
2.44823e-28
4.40438e-28
-3.25443e-29
4.42168e-28
-2.12741e-28
3.13152e-28
-2.19628e-28
6.38923e-29
-1.222e-29
-2.57146e-28
4.09587e-28
-5.90884e-28
9.78951e-28
-8.35731e-28
1.59827e-27
-9.42075e-28
2.10561e-27
-8.02389e-28
2.39729e-27
-5.02724e-28
2.33462e-27
2.74192e-29
1.96143e-27
4.98671e-28
1.25104e-27
1.04917e-27
4.69377e-28
1.17931e-27
-3.24548e-28
1.27401e-27
-7.38962e-28
6.82025e-28
-8.32297e-28
2.7996e-28
-2.94224e-28
-8.15493e-28
3.48261e-28
-8.83456e-28
1.44477e-27
-1.83128e-27
1.35403e-27
5.44891e-29
1.85194e-27
-8.0292e-28
2.00915e-27
-1.10963e-27
3.77782e-27
4.32156e-27
-8.19864e-27
3.10562e-27
3.79125e-27
-7.15064e-28
6.25071e-27
-6.24175e-28
-6.2121e-28
-6.57663e-28
-2.20698e-29
-7.75005e-28
1.18874e-28
-8.72468e-28
2.01825e-28
-9.49956e-28
1.28391e-28
-1.01526e-27
1.50913e-28
-1.03744e-27
5.09569e-29
-1.04728e-27
4.25375e-29
-1.02204e-27
-3.22415e-29
-9.86827e-28
-3.92307e-29
-9.25779e-28
-9.27534e-29
-8.45927e-28
-1.31647e-28
-7.44886e-28
-1.8044e-28
-6.34433e-28
-1.97096e-28
-5.18487e-28
-2.08889e-28
-4.0223e-28
-2.12092e-28
-2.94297e-28
-1.97528e-28
-2.06991e-28
-1.4839e-28
-1.46128e-28
-8.35203e-29
-1.06486e-28
-3.12424e-29
-7.73712e-29
-4.45961e-30
-4.5189e-29
-5.5078e-30
8.1242e-30
-4.78839e-29
1.04454e-28
-1.4623e-28
2.58685e-28
-2.8682e-28
4.70196e-28
-4.30836e-28
7.20509e-28
-5.35779e-28
9.77774e-28
-5.69751e-28
1.19857e-27
-5.02629e-28
1.33717e-27
-3.22236e-28
1.35689e-27
-4.48312e-29
1.247e-27
2.70768e-28
1.0272e-27
5.52599e-28
7.52411e-28
7.15234e-28
5.02026e-28
6.92543e-28
3.67042e-28
4.48139e-28
4.23222e-28
7.72081e-30
7.08243e-28
-5.42162e-28
1.21109e-27
-1.09374e-27
1.85305e-27
-1.4777e-27
2.52154e-27
-1.61056e-27
3.04703e-27
-1.32789e-27
3.32049e-27
-7.76199e-28
3.20971e-27
1.38216e-28
2.76718e-27
9.41196e-28
1.99274e-27
1.82361e-27
1.15389e-27
2.01816e-27
3.61888e-28
2.06601e-27
-6.50595e-29
1.10897e-27
-5.48942e-29
2.69782e-28
4.47109e-28
-1.31749e-27
1.21036e-27
-1.6467e-27
2.17109e-27
-2.79201e-27
1.86501e-27
3.60574e-28
2.59072e-27
-1.52862e-27
1.06201e-27
4.19078e-28
4.83983e-27
3.145e-27
-1.13436e-26
1.66838e-27
5.26789e-27
-7.70974e-28
8.69004e-27
-8.43198e-28
-5.48967e-28
-9.23142e-28
5.78981e-29
-1.13944e-27
3.3515e-28
-1.26849e-27
3.30887e-28
-1.3893e-27
2.49172e-28
-1.46861e-27
2.30231e-28
-1.49778e-27
8.01162e-29
-1.50098e-27
4.57569e-29
-1.45985e-27
-7.33764e-29
-1.39798e-27
-1.01116e-28
-1.30209e-27
-1.8867e-28
-1.18059e-27
-2.53105e-28
-1.03336e-27
-3.27665e-28
-8.7189e-28
-3.58536e-28
-7.03409e-28
-3.77351e-28
-5.36049e-28
-3.7939e-28
-3.81708e-28
-3.51884e-28
-2.52442e-28
-2.77653e-28
-1.54184e-28
-1.8184e-28
-8.06946e-29
-1.04767e-28
-1.89269e-29
-6.62141e-29
4.99579e-29
-7.44676e-29
1.48828e-28
-1.46722e-28
3.02123e-28
-2.99481e-28
5.24293e-28
-5.08933e-28
8.11782e-28
-7.1836e-28
1.13971e-27
-8.63674e-28
1.46666e-27
-8.96718e-28
1.73889e-27
-7.74838e-28
1.90322e-27
-4.86595e-28
1.92051e-27
-6.2136e-29
1.78467e-27
4.06628e-28
1.52662e-27
8.10652e-28
1.21974e-27
1.02212e-27
9.61526e-28
9.50754e-28
8.6112e-28
5.48562e-28
9.99518e-28
-1.30666e-28
1.4151e-27
-9.57762e-28
2.07401e-27
-1.75261e-27
2.8771e-27
-2.28079e-27
3.66857e-27
-2.40202e-27
4.26229e-27
-1.92161e-27
4.51468e-27
-1.02858e-27
4.312e-27
3.40907e-28
3.70252e-27
1.55067e-27
2.75461e-27
2.77151e-27
1.74301e-27
3.02978e-27
8.83738e-28
2.92528e-27
4.30323e-28
1.56239e-27
6.02605e-28
9.75155e-29
1.19279e-27
-1.90768e-27
2.20747e-27
-2.66138e-27
3.14782e-27
-3.73235e-27
2.59447e-27
9.1392e-28
3.51704e-27
-2.45118e-27
9.79625e-29
3.83815e-27
4.93779e-27
1.96402e-27
-1.33077e-26
-1.26589e-27
8.4978e-27
-8.17402e-28
8.24156e-27
-1.08918e-27
-2.77215e-28
-1.22136e-27
1.90052e-28
-1.54395e-27
6.57743e-28
-1.70455e-27
4.9149e-28
-1.87045e-27
4.15117e-28
-1.96262e-27
3.22409e-28
-1.99823e-27
1.15778e-28
-1.99257e-27
4.00695e-29
-1.93335e-27
-1.32617e-28
-1.84168e-27
-1.92803e-28
-1.70786e-27
-3.22485e-28
-1.54128e-27
-4.19731e-28
-1.34452e-27
-5.24401e-28
-1.12854e-27
-5.7454e-28
-9.0415e-28
-6.01714e-28
-6.82304e-28
-6.01247e-28
-4.78161e-28
-5.5596e-28
-3.03299e-28
-4.52461e-28
-1.63686e-28
-3.21404e-28
-5.19384e-29
-2.16474e-28
4.73744e-29
-1.65472e-28
1.58314e-28
-1.85397e-28
3.08314e-28
-2.9673e-28
5.23961e-28
-5.15101e-28
8.18802e-28
-8.03812e-28
1.18594e-27
-1.08549e-27
1.59386e-27
-1.27156e-27
1.99162e-27
-1.2945e-27
2.31556e-27
-1.09878e-27
2.50576e-27
-6.76807e-28
2.52156e-27
-7.79082e-29
2.36232e-27
5.65886e-28
2.07074e-27
1.1022e-27
1.73857e-27
1.35429e-27
1.48076e-27
1.20856e-27
1.4233e-27
6.06023e-28
1.65078e-27
-3.58154e-28
2.20095e-27
-1.50792e-27
3.01567e-27
-2.56737e-27
3.97604e-27
-3.24116e-27
4.8827e-27
-3.30868e-27
5.5372e-27
-2.57611e-27
5.76056e-27
-1.25196e-27
5.46536e-27
6.36094e-28
4.68993e-27
2.32609e-27
3.58228e-27
3.87916e-27
2.40793e-27
4.20412e-27
1.50386e-27
3.82935e-27
1.02676e-27
2.03949e-27
1.37325e-27
-2.48978e-28
2.02279e-27
-2.55721e-27
3.27611e-27
-3.91469e-27
4.13861e-27
-4.59484e-27
3.32841e-27
1.72412e-27
4.43508e-27
-3.55786e-27
-9.37303e-28
9.21054e-27
4.00049e-27
3.7253e-27
-1.7033e-26
1.26883e-27
1.09543e-26
-8.71246e-28
1.03816e-26
-1.35308e-27
2.04622e-28
-1.54323e-27
3.80226e-28
-1.97808e-27
1.0926e-27
-2.17475e-27
6.88143e-28
-2.38846e-27
6.28789e-28
-2.49536e-27
4.29377e-28
-2.53779e-27
1.58225e-28
-2.5229e-27
2.52003e-29
-2.44412e-27
-2.11405e-28
-2.3205e-27
-3.16436e-28
-2.14584e-27
-4.97184e-28
-1.93071e-27
-6.3481e-28
-1.68043e-27
-7.74664e-28
-1.40566e-27
-8.49361e-28
-1.12094e-27
-8.86469e-28
-8.40258e-28
-8.81906e-28
-5.82198e-28
-8.14077e-28
-3.57993e-28
-6.76659e-28
-1.73673e-28
-5.0577e-28
-2.05996e-29
-3.69548e-28
1.19289e-28
-3.05387e-28
2.75614e-28
-3.41745e-28
4.8072e-28
-5.01825e-28
7.63603e-28
-7.97982e-28
1.13695e-27
-1.17715e-27
1.5903e-27
-1.5389e-27
2.08499e-27
-1.76628e-27
2.55976e-27
-1.76924e-27
2.94023e-27
-1.4792e-27
3.15904e-27
-8.95583e-28
3.17374e-27
-9.26132e-29
2.98939e-27
7.50282e-28
2.6614e-27
1.43021e-27
2.30118e-27
1.71448e-27
2.04292e-27
1.46682e-27
2.03063e-27
6.18311e-28
2.35368e-27
-6.81212e-28
3.04853e-27
-2.20276e-27
4.03224e-27
-3.55108e-27
5.16298e-27
-4.3719e-27
6.19639e-27
-4.34209e-27
6.91745e-27
-3.29716e-27
7.11202e-27
-1.44652e-27
6.71625e-27
1.03187e-27
5.76257e-27
3.27977e-27
4.47875e-27
5.16299e-27
3.12739e-27
5.55546e-27
2.16889e-27
4.78786e-27
1.66517e-27
2.54321e-27
2.19393e-27
-7.7775e-28
2.91124e-27
-3.27452e-27
4.42097e-27
-5.42443e-27
5.20466e-27
-5.37852e-27
4.13891e-27
2.78986e-27
5.38673e-27
-4.80568e-27
-1.96762e-27
1.65649e-26
2.03287e-27
5.6403e-28
-1.7597e-26
2.20733e-27
9.31099e-27
-9.40829e-28
1.35298e-26
-1.6345e-27
8.98334e-28
-1.89152e-27
6.37235e-28
-2.44444e-27
1.64551e-27
-2.68196e-27
9.25677e-28
-2.94608e-27
8.92958e-28
-3.06964e-27
5.52901e-28
-3.11914e-27
2.07653e-28
-3.0946e-27
6.32733e-31
-2.99462e-27
-3.11399e-28
-2.8368e-27
-4.74204e-28
-2.61818e-27
-7.15743e-28
-2.35086e-27
-9.02193e-28
-2.04288e-27
-1.08265e-27
-1.70479e-27
-1.18748e-27
-1.35501e-27
-1.2362e-27
-1.01077e-27
-1.22622e-27
-6.94267e-28
-1.13063e-27
-4.16559e-28
-9.54374e-28
-1.83781e-28
-7.38493e-28
1.40163e-29
-5.67325e-28
1.97722e-28
-4.89106e-28
4.0284e-28
-5.4689e-28
6.66989e-28
-7.66e-28
1.02189e-27
-1.15288e-27
1.47949e-27
-1.63473e-27
2.02566e-27
-2.08504e-27
2.61412e-27
-2.35472e-27
3.17266e-27
-2.3278e-27
3.61531e-27
-1.92183e-27
3.86656e-27
-1.14685e-27
3.88168e-27
-1.07717e-28
3.67148e-27
9.60488e-28
3.30474e-27
1.79693e-27
2.9137e-27
2.10549e-27
2.65338e-27
1.72712e-27
2.68723e-27
5.84461e-28
3.11064e-27
-1.10462e-27
3.9587e-27
-3.05084e-27
5.12332e-27
-4.71571e-27
6.43729e-27
-5.68588e-27
7.60968e-27
-5.51448e-27
8.40495e-27
-4.09244e-27
8.5736e-27
-1.61517e-27
8.07203e-27
1.53344e-27
6.9306e-27
4.42122e-27
5.45525e-27
6.63833e-27
3.91371e-27
7.097e-27
2.88824e-27
5.81332e-27
2.35451e-27
3.07694e-27
3.0669e-27
-1.49014e-27
3.86154e-27
-4.06915e-27
5.63701e-27
-7.19989e-27
6.34802e-27
-6.08954e-27
5.01755e-27
4.12034e-27
6.38312e-27
-6.17125e-27
-3.00102e-27
2.5949e-26
-9.68149e-28
-9.46581e-28
-1.66504e-26
1.58091e-27
6.78346e-27
-1.02645e-27
1.61371e-26
-1.93583e-27
1.8077e-27
-2.26782e-27
9.692e-28
-2.94477e-27
2.32247e-27
-3.22823e-27
1.20915e-27
-3.54556e-27
1.21024e-27
-3.68785e-27
6.95237e-28
-3.74472e-27
2.64545e-28
-3.71009e-27
-3.39791e-29
-3.58721e-27
-4.34274e-28
-3.39281e-27
-6.68637e-28
-3.12696e-27
-9.81603e-28
-2.8036e-27
-1.22553e-27
-2.43347e-27
-1.45277e-27
-2.02726e-27
-1.59366e-27
-1.60738e-27
-1.65608e-27
-1.19455e-27
-1.63895e-27
-8.14772e-28
-1.51042e-27
-4.79115e-28
-1.29003e-27
-1.93887e-28
-1.02375e-27
5.2233e-29
-8.13444e-28
2.83175e-28
-7.20015e-28
5.40642e-28
-8.04328e-28
8.67925e-28
-1.0933e-27
1.29982e-27
-1.5848e-27
1.84771e-27
-2.18266e-27
2.49367e-27
-2.73105e-27
3.1834e-27
-3.04444e-27
3.833e-27
-2.97738e-27
4.34403e-27
-2.4329e-27
4.63198e-27
-1.43481e-27
4.64931e-27
-1.25083e-28
4.4126e-27
1.19721e-27
4.00463e-27
2.20483e-27
3.57974e-27
2.53041e-27
3.3154e-27
1.99145e-27
3.39614e-27
5.03729e-28
3.92462e-27
-1.63314e-27
4.93482e-27
-4.06104e-27
6.2929e-27
-6.07378e-27
7.80404e-27
-7.19702e-27
9.12862e-27
-6.83906e-27
1.0007e-26
-4.97077e-27
1.0153e-26
-1.76118e-27
9.5407e-27
2.1457e-27
8.20116e-27
5.76077e-27
6.51799e-27
8.32151e-27
4.77135e-27
8.84366e-27
3.66486e-27
6.91981e-27
3.09669e-27
3.64512e-27
3.99319e-27
-2.38663e-27
4.87591e-27
-4.95188e-27
6.92671e-27
-9.25068e-27
7.57346e-27
-6.73628e-27
5.96885e-27
5.72493e-27
7.42925e-27
-7.63165e-27
-4.03695e-27
3.74152e-26
-5.0051e-27
-7.50537e-28
-1.58999e-26
1.29717e-27
4.7358e-27
-1.12462e-27
1.85589e-26
-2.259e-27
2.94207e-27
-2.67389e-27
1.38409e-27
-3.48116e-27
3.12973e-27
-3.81589e-27
1.54386e-27
-4.18938e-27
1.58376e-27
-4.35258e-27
8.58392e-28
-4.41717e-27
3.29087e-28
-4.37197e-27
-7.91274e-29
-4.22442e-27
-5.8183e-28
-3.99091e-27
-9.02142e-28
-3.67439e-27
-1.2981e-27
-3.29093e-27
-1.60899e-27
-2.85396e-27
-1.88977e-27
-2.37454e-27
-2.07304e-27
-1.8792e-27
-2.15148e-27
-1.39241e-27
-2.12577e-27
-9.44175e-28
-1.95863e-27
-5.45787e-28
-1.68837e-27
-2.03822e-28
-1.36563e-27
9.44573e-29
-1.11175e-27
3.76233e-28
-1.00184e-27
6.89748e-28
-1.11788e-27
1.08438e-27
-1.48788e-27
1.59841e-27
-2.09877e-27
2.24287e-27
-2.82712e-27
2.99596e-27
-3.48413e-27
3.79496e-27
-3.84344e-27
4.54351e-27
-3.7259e-27
5.12976e-27
-3.01918e-27
5.4593e-27
-1.76431e-27
5.48112e-27
-1.46917e-28
5.21747e-27
1.46085e-27
4.76573e-27
2.65662e-27
4.3036e-27
2.99254e-27
4.03276e-27
2.26231e-27
4.16061e-27
3.75866e-28
4.79852e-27
-2.27104e-27
5.97978e-27
-5.2423e-27
7.54426e-27
-7.63826e-27
9.26747e-27
-8.92023e-27
1.07586e-26
-8.33022e-27
1.17303e-26
-5.94243e-27
1.1858e-26
-1.88886e-27
1.11308e-26
2.87283e-27
9.58262e-27
7.309e-27
7.67465e-27
1.02295e-26
5.7063e-27
1.0812e-26
4.50312e-27
8.12299e-27
3.89426e-27
4.25399e-27
4.97441e-27
-3.46677e-27
5.95561e-27
-5.93308e-27
8.29229e-27
-1.15874e-26
8.8839e-27
-7.32788e-27
6.99793e-27
7.61091e-27
8.52824e-27
-9.16196e-27
-5.07202e-27
5.10155e-26
-1.00771e-26
-9.71095e-28
-1.49287e-26
1.24989e-27
2.51474e-27
-1.23672e-27
2.10455e-26
-2.60555e-27
4.3109e-27
-3.11163e-27
1.89014e-27
-4.05579e-27
4.07388e-27
-4.44738e-27
1.93546e-27
-4.88017e-27
2.01656e-27
-5.06657e-27
1.04486e-27
-5.13925e-27
4.01758e-28
-5.08298e-27
-1.3542e-28
-4.90889e-27
-7.55924e-28
-4.63362e-27
-1.17743e-27
-4.26284e-27
-1.66893e-27
-3.81499e-27
-2.05679e-27
-3.30622e-27
-2.39848e-27
-2.74822e-27
-2.63108e-27
-2.17173e-27
-2.72794e-27
-1.60523e-27
-2.69223e-27
-1.08298e-27
-2.48087e-27
-6.16708e-28
-2.15469e-27
-2.13381e-28
-1.76896e-27
1.41176e-28
-1.4663e-27
4.77591e-28
-1.33821e-27
8.50993e-28
-1.4912e-27
1.3173e-27
-1.95426e-27
1.9187e-27
-2.70019e-27
2.66618e-27
-3.57466e-27
3.53407e-27
-4.35207e-27
4.45079e-27
-4.76018e-27
5.30682e-27
-4.58191e-27
5.9759e-27
-3.68827e-27
6.35267e-27
-2.14108e-27
6.38189e-27
-1.76151e-28
6.0913e-27
1.75143e-27
5.59333e-27
3.15458e-27
5.09032e-27
3.49551e-27
4.80995e-27
2.54269e-27
4.98443e-27
2.01392e-28
5.73549e-27
-3.02211e-27
7.0964e-27
-6.60323e-27
8.8804e-27
-9.42226e-27
1.08313e-26
-1.08711e-26
1.25046e-26
-1.00036e-26
1.35814e-26
-7.01921e-27
1.36965e-26
-2.00397e-27
1.28515e-26
3.71788e-27
1.10843e-26
9.07615e-27
8.93402e-27
1.23798e-26
6.72599e-27
1.302e-26
5.40842e-27
9.44058e-27
4.75056e-27
4.91185e-27
6.01209e-27
-4.72831e-27
7.10154e-27
-7.02253e-27
9.73506e-27
-1.42209e-26
1.02817e-26
-7.87458e-27
8.10951e-27
9.78312e-27
9.68349e-27
-1.07359e-26
-6.10179e-27
6.68008e-26
-1.61789e-26
-1.50282e-27
-1.34259e-26
1.24107e-27
-2.29137e-28
-1.36504e-27
2.36517e-26
-2.97708e-27
5.92295e-27
-3.58304e-27
2.49608e-27
-4.6709e-27
5.16175e-27
-5.12532e-27
2.3899e-27
-5.62067e-27
2.51186e-27
-5.83272e-27
1.25687e-27
-5.91389e-27
4.82876e-28
-5.84603e-27
-2.03299e-28
-5.64342e-27
-9.58535e-28
-5.32361e-27
-1.49719e-27
-4.89477e-27
-2.09773e-27
-4.37804e-27
-2.57364e-27
-3.79224e-27
-2.98421e-27
-3.14996e-27
-3.27334e-27
-2.48629e-27
-3.39165e-27
-1.83397e-27
-3.34454e-27
-1.23171e-27
-3.08309e-27
-6.91986e-28
-2.6944e-27
-2.22315e-28
-2.23855e-27
1.92936e-28
-1.88158e-27
5.88025e-28
-1.73329e-27
1.02529e-27
-1.92854e-27
1.56768e-27
-2.49663e-27
2.26177e-27
-3.39421e-27
3.11888e-27
-4.43172e-27
4.10949e-27
-5.34269e-27
5.15285e-27
-5.80349e-27
6.12557e-27
-5.55468e-27
6.88589e-27
-4.4486e-27
7.31642e-27
-2.57164e-27
7.35676e-27
-2.16464e-28
7.03975e-27
2.06847e-27
6.49329e-27
3.70104e-27
5.94552e-27
4.04326e-27
5.65194e-27
2.83627e-27
5.87175e-27
-1.84138e-29
6.73887e-27
-3.88924e-27
8.28753e-27
-8.15188e-27
1.03042e-26
-1.14389e-26
1.2499e-26
-1.3066e-26
1.43715e-26
-1.1876e-26
1.55668e-26
-8.21457e-27
1.56769e-26
-2.11406e-27
1.47122e-26
4.68259e-27
1.27165e-26
1.10718e-26
1.03059e-26
1.47904e-26
7.83887e-27
1.54871e-26
6.38683e-27
1.08926e-26
5.66938e-27
5.62928e-27
7.10766e-27
-6.16662e-27
8.31432e-27
-8.22918e-27
1.12557e-26
-1.71622e-26
1.17691e-26
-8.38806e-27
9.30827e-27
1.2244e-26
1.08989e-26
-1.23266e-26
-7.12129e-27
8.4821e-26
-2.33002e-26
-2.12444e-27
-1.13015e-26
1.21108e-27
-3.56464e-27
-1.51139e-27
2.63741e-26
-3.3753e-27
7.78685e-27
-4.09027e-27
3.21105e-27
-5.32885e-27
6.40032e-27
-5.85245e-27
2.91349e-27
-6.41375e-27
3.07319e-27
-6.65406e-27
1.49717e-27
-6.74414e-27
5.72981e-28
-6.66414e-27
-2.83295e-28
-6.43095e-27
-1.19177e-27
-6.06369e-27
-1.86446e-27
-5.57281e-27
-2.58858e-27
-4.98246e-27
-3.16394e-27
-4.31412e-27
-3.65254e-27
-3.58154e-27
-4.00594e-27
-2.82429e-27
-4.14886e-27
-2.0796e-27
-4.08924e-27
-1.39091e-27
-3.77184e-27
-7.71737e-28
-3.31356e-27
-2.30325e-28
-2.77996e-27
2.5037e-28
-2.36219e-27
7.08397e-28
-2.19134e-27
1.21365e-27
-2.43386e-27
1.83656e-27
-3.11953e-27
2.62871e-27
-4.18638e-27
3.60214e-27
-5.40514e-27
4.72367e-27
-6.46425e-27
5.90308e-27
-6.98293e-27
7.00238e-27
-6.65391e-27
7.86327e-27
-5.3095e-27
8.35509e-27
-3.06347e-27
8.41118e-27
-2.72556e-28
8.06897e-27
2.41067e-27
7.47202e-27
4.29803e-27
6.87538e-27
4.6399e-27
6.56429e-27
3.14739e-27
6.82715e-27
-2.81279e-28
7.81224e-27
-4.8743e-27
9.55599e-27
-9.89568e-27
1.18182e-26
-1.37011e-26
1.42739e-26
-1.55217e-26
1.63637e-26
-1.39658e-26
1.7693e-26
-9.54381e-27
1.78077e-26
-2.22876e-27
1.67232e-26
5.76704e-27
1.44904e-26
1.33047e-26
1.18011e-26
1.74797e-26
9.05442e-27
1.82337e-26
7.44517e-27
1.25019e-26
6.65496e-27
6.4195e-27
8.26244e-27
-7.77409e-27
9.59421e-27
-9.56095e-27
1.28541e-26
-2.04221e-26
1.33479e-26
-8.88184e-27
1.05988e-26
1.49931e-26
1.2179e-26
-1.39067e-26
-8.12514e-27
1.05125e-25
-3.14253e-26
-2.76714e-27
-8.53434e-27
1.15286e-27
-7.48466e-27
-1.67732e-27
2.92043e-26
-3.80207e-27
9.91156e-27
-4.63563e-27
4.04462e-27
-6.03212e-27
7.79682e-27
-6.63165e-27
3.51302e-27
-7.2624e-27
3.70388e-27
-7.5338e-27
1.76856e-27
-7.63321e-27
6.72513e-28
-7.54052e-27
-3.75949e-28
-7.27455e-27
-1.45771e-27
-6.85679e-27
-2.28223e-27
-6.29969e-27
-3.14572e-27
-5.63076e-27
-3.83291e-27
-4.87408e-27
-4.40923e-27
-4.04486e-27
-4.83509e-27
-3.18723e-27
-5.00644e-27
-2.34321e-27
-4.93332e-27
-1.56117e-27
-4.55384e-27
-8.56056e-28
-4.01871e-27
-2.37066e-28
-3.39898e-27
3.14188e-28
-2.91345e-27
8.39682e-28
-2.71681e-27
1.41717e-27
-3.01126e-27
2.1251e-27
-3.82748e-27
3.02068e-27
-5.08192e-27
4.11719e-27
-6.50168e-27
5.37803e-27
-7.7251e-27
6.70335e-27
-8.30825e-27
7.93988e-27
-7.89042e-27
8.91165e-27
-6.28132e-27
9.47341e-27
-3.62518e-27
9.55097e-27
-3.50107e-28
9.1856e-27
2.7761e-27
8.53653e-27
4.94709e-27
7.88676e-27
5.2897e-27
7.55309e-27
3.48102e-27
7.85561e-27
-5.83814e-28
8.95938e-27
-5.97809e-27
1.09046e-26
-1.18409e-26
1.34251e-26
-1.62216e-26
1.6159e-26
-1.82556e-26
1.84858e-26
-1.62925e-26
1.99663e-26
-1.10243e-26
2.00976e-26
-2.36006e-27
1.88953e-26
6.96932e-27
1.6418e-26
1.57819e-26
1.34315e-26
2.04662e-26
1.03833e-26
2.12819e-26
8.59116e-27
1.4294e-26
7.71209e-27
7.29856e-27
9.47776e-27
-9.53974e-27
1.09411e-26
-1.10243e-26
1.45299e-26
-2.40109e-26
1.50194e-26
-9.37132e-27
1.19857e-26
1.80267e-26
1.35285e-26
-1.54495e-26
-9.10755e-27
1.27761e-25
-4.05329e-26
-3.42315e-27
-5.11119e-27
1.06808e-27
-1.19759e-26
-1.86444e-27
3.21368e-26
-4.25937e-27
1.23065e-26
-5.22153e-27
5.00678e-27
-6.78332e-27
9.35864e-27
-7.46597e-27
4.19568e-27
-8.16981e-27
4.40779e-27
-8.47529e-27
2.07405e-27
-8.58444e-27
7.81648e-28
-8.4785e-27
-4.81897e-28
-8.17745e-27
-1.75873e-27
-7.70599e-27
-2.75373e-27
-7.0783e-27
-3.77341e-27
-6.32558e-27
-4.58556e-27
-5.47447e-27
-5.2604e-27
-4.54192e-27
-5.76768e-27
-3.57671e-27
-5.97168e-27
-2.6259e-27
-5.88415e-27
-1.7431e-27
-5.43668e-27
-9.45036e-28
-4.81689e-27
-2.42147e-28
-4.10176e-27
3.85177e-28
-3.54078e-27
9.82946e-28
-3.31465e-27
1.63706e-27
-3.66539e-27
2.43453e-27
-4.62492e-27
3.43883e-27
-6.08625e-27
4.66521e-27
-7.72802e-27
6.07396e-27
-9.13388e-27
7.55547e-27
-9.7898e-27
8.94064e-27
-9.27571e-27
1.00347e-26
-7.37536e-27
1.06763e-26
-4.26683e-27
1.07823e-26
-4.56129e-28
1.03968e-26
3.16161e-27
9.6945e-27
5.64936e-27
8.9872e-27
5.99701e-27
8.62515e-27
3.84304e-27
8.96267e-27
-9.21333e-28
1.01844e-26
-7.19985e-27
1.23363e-26
-1.39928e-26
1.51271e-26
-1.90124e-26
1.81569e-26
-2.12854e-26
2.07418e-26
-1.88774e-26
2.23931e-26
-1.26756e-26
2.25557e-26
-2.52267e-27
2.12399e-26
8.28518e-27
1.85125e-26
1.85093e-26
1.52102e-26
2.37686e-26
1.18373e-26
2.46547e-26
9.83353e-27
1.62977e-26
8.84619e-27
8.2859e-27
1.0755e-26
-1.14486e-26
1.23546e-26
-1.26239e-26
1.62816e-26
-2.79379e-26
1.67841e-26
-9.87378e-27
1.34733e-26
2.13376e-26
1.49528e-26
-1.69289e-26
-1.00624e-26
1.52776e-25
-5.05952e-26
-4.09613e-27
-1.01505e-27
9.57407e-28
-1.70295e-26
-2.07442e-27
3.51686e-26
-4.74933e-27
1.49814e-26
-5.85058e-27
6.10804e-27
-7.58523e-27
1.10933e-26
-8.35861e-27
4.96906e-27
-9.13929e-27
5.1884e-27
-9.48205e-27
2.41686e-27
-9.60136e-27
9.00948e-28
-9.4816e-27
-6.017e-28
-9.14302e-27
-2.09734e-27
-8.61452e-27
-3.28218e-27
-7.91165e-27
-4.47625e-27
-7.0697e-27
-5.42748e-27
-6.11776e-27
-6.2122e-27
-5.07483e-27
-6.81053e-27
-3.99442e-27
-7.05204e-27
-2.9289e-27
-6.94972e-27
-1.93735e-27
-6.42823e-27
-1.03876e-27
-5.71555e-27
-2.45125e-28
-4.89547e-27
4.64227e-28
-4.2501e-27
1.13939e-27
-3.98982e-27
1.87467e-27
-4.40071e-27
2.76617e-27
-5.51643e-27
3.88445e-27
-7.20449e-27
5.24741e-27
-9.0911e-27
6.81276e-27
-1.06992e-26
8.46119e-27
-1.14382e-26
1.00072e-26
-1.08217e-26
1.1236e-26
-8.60422e-27
1.19688e-26
-4.99957e-27
1.21116e-26
-5.98994e-28
1.17102e-26
3.563e-27
1.09543e-26
6.40527e-27
1.0185e-26
6.76623e-27
9.78799e-27
4.24011e-27
1.01544e-26
-1.28779e-27
1.14917e-26
-8.53706e-27
1.38539e-26
-1.63551e-26
1.69263e-26
-2.20847e-26
2.02698e-26
-2.4629e-26
2.31354e-26
-2.1743e-26
2.49795e-26
-1.45198e-26
2.51912e-26
-2.73439e-27
2.37689e-26
9.7075e-27
2.07879e-26
2.14902e-26
1.71516e-26
2.74049e-26
1.34299e-26
2.83765e-26
1.11823e-26
1.85453e-26
1.00635e-26
9.40466e-27
1.20958e-26
-1.34809e-26
1.38338e-26
-1.43619e-26
1.81074e-26
-3.22115e-26
1.8642e-26
-1.04084e-26
1.50657e-26
2.49139e-26
1.64576e-26
-1.83208e-26
-1.09829e-26
1.80217e-25
-6.15782e-26
-4.78955e-27
3.77449e-27
8.20029e-28
-2.2639e-26
-2.30905e-27
3.82978e-26
-5.27423e-27
1.79466e-26
-6.5255e-27
7.35931e-27
-8.44075e-27
1.30085e-26
-9.31295e-27
5.84128e-27
-1.01743e-26
6.04981e-27
-1.05578e-26
2.80032e-27
-1.06877e-26
1.0308e-27
-1.05535e-26
-7.35787e-28
-1.01748e-26
-2.47602e-27
-9.5858e-27
-3.87119e-27
-8.80293e-27
-5.25913e-27
-7.86604e-27
-6.36435e-27
-6.80656e-27
-7.27172e-27
-5.64584e-27
-7.97127e-27
-4.44216e-27
-8.2557e-27
-3.25347e-27
-8.13839e-27
-2.14462e-27
-7.53714e-27
-1.13732e-27
-6.72277e-27
-2.45496e-28
-5.78729e-27
5.52332e-28
-5.04798e-27
1.31034e-27
-4.74781e-27
2.13148e-27
-5.22185e-27
3.12149e-27
-6.50645e-27
4.35883e-27
-8.44184e-27
5.86499e-27
-1.05973e-26
7.59571e-27
-1.24299e-26
9.42213e-27
-1.32646e-26
1.11419e-26
-1.25416e-26
1.25194e-26
-9.98165e-27
1.33561e-26
-5.83634e-27
1.35458e-26
-7.88737e-28
1.31342e-26
3.97468e-27
1.2325e-26
7.2144e-27
1.14894e-26
7.60186e-27
1.105e-26
4.67958e-27
1.14378e-26
-1.67561e-27
1.28862e-26
-9.98549e-27
1.54606e-26
-1.89295e-26
1.88246e-26
-2.54487e-26
2.24997e-26
-2.83041e-26
2.56698e-26
-2.4913e-26
2.77313e-26
-1.65813e-26
2.80133e-26
-3.01637e-27
2.64949e-26
1.12259e-26
2.32595e-26
2.47256e-26
1.92717e-26
3.13926e-26
1.51758e-26
3.24724e-26
1.26487e-26
2.10725e-26
1.13712e-26
1.06822e-26
1.3502e-26
-1.56117e-26
1.53775e-26
-1.62374e-26
2.00042e-26
-3.68382e-26
2.0592e-26
-1.09962e-26
1.67667e-26
2.87391e-26
1.80491e-26
-1.96032e-26
-1.18624e-26
2.10128e-25
-7.34406e-26
-5.50556e-27
9.28005e-27
6.54285e-28
-2.87989e-26
-2.57019e-27
4.15222e-26
-5.83651e-27
2.12129e-26
-7.24921e-27
8.772e-27
-9.35298e-27
1.51123e-26
-1.03325e-26
6.82086e-27
-1.12786e-26
6.99583e-27
-1.17064e-26
3.22808e-27
-1.18472e-26
1.17172e-27
-1.1698e-26
-8.84955e-28
-1.12766e-26
-2.89755e-27
-1.06234e-26
-4.52435e-27
-9.75547e-27
-6.12705e-27
-8.71769e-27
-7.40208e-27
-7.54362e-27
-8.44581e-27
-6.25732e-27
-9.2575e-27
-4.92186e-27
-9.59106e-27
-3.601e-27
-9.45921e-27
-2.36564e-27
-8.77251e-27
-1.24078e-27
-7.84758e-27
-2.42698e-28
-6.78545e-27
6.50595e-28
-5.94125e-27
1.49729e-27
-5.59453e-27
2.40913e-27
-6.13366e-27
3.50209e-27
-7.5994e-27
4.8634e-27
-9.80319e-27
6.51917e-27
-1.22531e-26
8.42399e-27
-1.43347e-26
1.04398e-26
-1.52804e-26
1.23472e-26
-1.4449e-26
1.38883e-26
-1.15227e-26
1.48436e-26
-6.79164e-27
1.5092e-26
-1.0372e-27
1.46774e-26
4.38929e-27
1.38165e-26
8.07529e-27
1.29105e-26
8.50792e-27
1.24204e-26
5.16962e-27
1.28202e-26
-2.0754e-27
1.43732e-26
-1.15385e-26
1.71593e-26
-2.17157e-26
2.08235e-26
-2.91129e-26
2.48479e-26
-3.23285e-26
2.83476e-26
-2.84127e-26
3.06537e-26
-1.88873e-26
3.1031e-26
-3.39367e-27
2.94307e-26
1.28261e-26
2.59432e-26
2.82131e-26
2.15877e-26
3.57481e-26
1.70918e-26
3.69684e-26
1.42457e-26
2.39185e-26
1.27776e-26
1.21503e-26
1.49758e-26
-1.78099e-26
1.69841e-26
-1.82457e-26
2.19683e-26
-4.18224e-26
2.26319e-26
-1.16597e-26
1.85794e-26
3.27916e-26
1.97337e-26
-2.07575e-26
-1.26933e-26
2.42555e-25
-8.61339e-26
-6.2457e-27
1.55257e-26
4.58175e-28
-3.55027e-26
-2.85985e-27
4.48402e-26
-6.43879e-27
2.47918e-26
-8.02481e-27
1.0358e-26
-1.03252e-26
1.74127e-26
-1.14211e-26
7.91682e-27
-1.24559e-26
8.03062e-27
-1.29319e-26
3.70403e-27
-1.30841e-26
1.32394e-27
-1.29193e-26
-1.04979e-27
-1.24522e-26
-3.36463e-27
-1.1731e-26
-5.24554e-27
-1.07728e-26
-7.08522e-27
-9.62787e-27
-8.547e-27
-8.33184e-27
-9.74183e-27
-6.91179e-27
-1.06776e-26
-5.43555e-27
-1.10673e-26
-3.97295e-27
-1.09218e-26
-2.60122e-27
-1.01443e-26
-1.34923e-27
-9.09954e-27
-2.36113e-28
-7.89858e-27
7.6024e-28
-6.93757e-27
1.70188e-27
-6.53623e-27
2.70945e-27
-7.14127e-27
3.90971e-27
-8.7996e-27
5.39968e-27
-1.12931e-26
7.21119e-27
-1.40646e-26
9.29872e-27
-1.64222e-26
1.15156e-26
-1.74973e-26
1.36252e-26
-1.65586e-26
1.53462e-26
-1.32438e-26
1.64365e-26
-7.88191e-27
1.67577e-26
-1.35832e-27
1.63493e-26
4.79773e-27
1.54396e-26
8.98509e-27
1.44592e-26
9.48826e-27
1.39095e-26
5.71932e-27
1.43102e-26
-2.47606e-27
1.59587e-26
-1.3187e-26
1.89536e-26
-2.47106e-26
2.29247e-26
-3.30839e-26
2.73151e-26
-3.6719e-26
3.11709e-26
-3.22685e-26
3.37516e-26
-2.1468e-26
3.42533e-26
-3.89538e-27
3.25898e-26
1.44896e-26
2.88565e-26
3.19465e-26
2.41186e-26
4.0486e-26
1.91962e-26
4.18908e-26
1.59881e-26
2.71267e-26
1.42924e-26
1.3846e-26
1.65201e-26
-2.00376e-26
1.8652e-26
-2.03777e-26
2.3995e-26
-4.71655e-26
2.47583e-26
-1.2423e-26
2.05064e-26
3.70435e-26
2.15181e-26
-2.17691e-26
-1.34681e-26
2.77541e-25
-9.9602e-26
-7.01129e-27
2.2537e-26
2.2956e-28
-4.27436e-26
-3.18009e-27
4.82499e-26
-7.08387e-27
2.86955e-26
-8.85558e-27
1.21297e-26
-1.13608e-26
1.99179e-26
-1.25827e-26
9.13871e-27
-1.37104e-26
9.15838e-27
-1.42386e-26
4.23223e-27
-1.44026e-26
1.48791e-27
-1.42215e-26
-1.23086e-27
-1.37057e-26
-3.88048e-27
-1.29125e-26
-6.03876e-27
-1.18585e-26
-8.13922e-27
-1.06e-26
-9.80547e-27
-9.17428e-27
-1.11675e-26
-7.61191e-27
-1.224e-26
-5.9854e-27
-1.26939e-26
-4.37089e-27
-1.25363e-26
-2.85222e-27
-1.16629e-26
-1.46277e-27
-1.0489e-26
-2.25074e-28
-9.13624e-27
8.82603e-28
-8.04528e-27
1.92592e-27
-7.57948e-27
3.03449e-27
-8.24984e-27
4.34633e-27
-1.01115e-26
5.9693e-27
-1.29161e-26
7.94232e-27
-1.60376e-26
1.0221e-26
-1.87009e-26
1.26507e-26
-1.9927e-26
1.49777e-26
-1.88857e-26
1.68967e-26
-1.51628e-26
1.81403e-26
-9.12546e-27
1.85504e-26
-1.7685e-27
1.81597e-26
5.18833e-27
1.72056e-26
9.93921e-27
1.61478e-26
1.0546e-26
1.55289e-26
6.33824e-27
1.59173e-26
-2.86456e-27
1.76494e-26
-1.4919e-26
2.08471e-26
-2.79083e-26
2.51292e-26
-3.7366e-26
2.99017e-26
-4.14915e-26
3.41407e-26
-3.65075e-26
3.7029e-26
-2.43563e-26
3.76888e-26
-4.55522e-27
3.59857e-26
1.61928e-26
3.20172e-26
3.5915e-26
2.68848e-26
4.56185e-26
2.15096e-26
4.72659e-26
1.78925e-26
3.07438e-26
1.59271e-26
1.58115e-26
1.81385e-26
-2.22491e-26
2.03792e-26
-2.26183e-26
2.60786e-26
-5.28649e-26
2.69665e-26
-1.33108e-26
2.25494e-26
4.14605e-26
2.34091e-26
-2.26288e-26
-1.41788e-26
3.15129e-25
-1.13781e-25
-7.80368e-27
3.03408e-26
-3.37627e-29
-5.05135e-26
-3.53313e-27
5.17492e-26
-7.77473e-27
3.29371e-26
-9.74502e-27
1.41e-26
-1.24635e-26
2.26363e-26
-1.38213e-26
1.04966e-26
-1.50462e-26
1.03833e-26
-1.5631e-26
4.817e-27
-1.58071e-26
1.66407e-27
-1.5609e-26
-1.42891e-27
-1.50413e-26
-4.44816e-27
-1.4172e-26
-6.90812e-27
-1.30164e-26
-9.2948e-27
-1.16376e-26
-1.11843e-26
-1.00742e-26
-1.27309e-26
-8.36048e-27
-1.39536e-26
-6.57372e-27
-1.44806e-26
-4.79651e-27
-1.43135e-26
-3.11957e-27
-1.33399e-26
-1.5815e-27
-1.20271e-26
-2.0886e-28
-1.05089e-26
1.01916e-27
-9.27327e-27
2.17145e-27
-8.73176e-27
3.3865e-27
-9.4649e-27
4.81413e-27
-1.15391e-26
6.57411e-27
-1.46761e-26
8.71393e-27
-1.81773e-26
1.11917e-26
-2.11786e-26
1.38462e-26
-2.25814e-26
1.64066e-26
-2.14463e-26
1.85427e-26
-1.72989e-26
1.99602e-26
-1.0543e-26
2.04781e-26
-2.28639e-27
2.0119e-26
5.54744e-27
1.91269e-26
1.09313e-26
1.79894e-26
1.16836e-26
1.7291e-26
7.03664e-27
1.76523e-26
-3.22579e-27
1.94529e-26
-1.67196e-26
2.28439e-26
-3.12994e-26
2.74384e-26
-4.19605e-26
3.26072e-26
-4.66603e-26
3.72574e-26
-4.11576e-26