/*--------------------------------*- C++ -*----------------------------------*\
| =========                 |                                                 |
| \\      /  F ield         | foam-extend: Open Source CFD                    |
|  \\    /   O peration     | Version:     4.0                                |
|   \\  /    A nd           | Web:         http://www.foam-extend.org         |
|    \\/     M anipulation  |                                                 |
\*---------------------------------------------------------------------------*/
FoamFile
{
    version     2.0;
    format      ascii;
    class       volScalarField;
    location    "1320";
    object      psiE;
}
// * * * * * * * * * * * * * * * * * * * * * * * * * * * * * * * * * * * * * //

dimensions      [0 0 0 0 0 0 0];

internalField   nonuniform List<scalar> 
6960
(
0.348434
0.348444
0.348456
0.348468
0.348478
0.348487
0.348495
0.348501
0.348507
0.348512
0.348516
0.348519
0.348522
0.348524
0.348526
0.348528
0.348529
0.34853
0.348531
0.348532
0.348533
0.348533
0.348534
0.348534
0.348534
0.348535
0.348535
0.348535
0.348535
0.348535
0.348535
0.348535
0.348535
0.348535
0.348535
0.348534
0.348534
0.348534
0.348533
0.348533
0.348532
0.348531
0.34853
0.348529
0.348528
0.348526
0.348524
0.348522
0.348519
0.348516
0.348512
0.348507
0.348501
0.348495
0.348487
0.348478
0.348468
0.348456
0.348444
0.348434
0.890777
0.890819
0.890868
0.890914
0.890956
0.890992
0.891024
0.891051
0.891074
0.891093
0.891109
0.891123
0.891134
0.891144
0.891151
0.891158
0.891163
0.891168
0.891171
0.891174
0.891177
0.891179
0.891181
0.891182
0.891183
0.891184
0.891184
0.891185
0.891185
0.891185
0.891185
0.891185
0.891185
0.891184
0.891184
0.891183
0.891182
0.891181
0.891179
0.891177
0.891174
0.891171
0.891168
0.891163
0.891158
0.891151
0.891144
0.891134
0.891123
0.891109
0.891093
0.891074
0.891051
0.891024
0.890992
0.890956
0.890914
0.890868
0.890819
0.890777
1.39574
1.39582
1.39592
1.39601
1.39609
1.39616
1.39622
1.39628
1.39632
1.39636
1.39639
1.39642
1.39644
1.39646
1.39647
1.39648
1.39649
1.3965
1.39651
1.39652
1.39652
1.39652
1.39653
1.39653
1.39653
1.39653
1.39653
1.39654
1.39654
1.39654
1.39654
1.39654
1.39654
1.39653
1.39653
1.39653
1.39653
1.39653
1.39652
1.39652
1.39652
1.39651
1.3965
1.39649
1.39648
1.39647
1.39646
1.39644
1.39642
1.39639
1.39636
1.39632
1.39628
1.39622
1.39616
1.39609
1.39601
1.39592
1.39582
1.39574
1.89466
1.89478
1.89493
1.89507
1.89519
1.8953
1.8954
1.89548
1.89555
1.89561
1.89566
1.8957
1.89573
1.89576
1.89578
1.8958
1.89582
1.89583
1.89584
1.89585
1.89586
1.89587
1.89587
1.89587
1.89588
1.89588
1.89588
1.89588
1.89588
1.89588
1.89588
1.89588
1.89588
1.89588
1.89588
1.89588
1.89587
1.89587
1.89587
1.89586
1.89585
1.89584
1.89583
1.89582
1.8958
1.89578
1.89576
1.89573
1.8957
1.89566
1.89561
1.89555
1.89548
1.8954
1.8953
1.89519
1.89507
1.89493
1.89478
1.89466
2.39815
2.39833
2.39853
2.39872
2.3989
2.39905
2.39918
2.39929
2.39938
2.39946
2.39953
2.39959
2.39963
2.39967
2.39971
2.39973
2.39975
2.39977
2.39979
2.3998
2.39981
2.39982
2.39982
2.39983
2.39983
2.39984
2.39984
2.39984
2.39984
2.39984
2.39984
2.39984
2.39984
2.39984
2.39984
2.39983
2.39983
2.39982
2.39982
2.39981
2.3998
2.39979
2.39977
2.39975
2.39973
2.39971
2.39967
2.39963
2.39959
2.39953
2.39946
2.39938
2.39929
2.39918
2.39905
2.3989
2.39872
2.39853
2.39833
2.39815
2.90996
2.91018
2.91044
2.91068
2.9109
2.9111
2.91127
2.91141
2.91153
2.91163
2.91172
2.91179
2.91185
2.9119
2.91194
2.91198
2.912
2.91203
2.91205
2.91206
2.91207
2.91209
2.91209
2.9121
2.91211
2.91211
2.91211
2.91212
2.91212
2.91212
2.91212
2.91212
2.91212
2.91211
2.91211
2.91211
2.9121
2.91209
2.91209
2.91207
2.91206
2.91205
2.91203
2.912
2.91198
2.91194
2.9119
2.91185
2.91179
2.91172
2.91163
2.91153
2.91141
2.91127
2.9111
2.9109
2.91068
2.91044
2.91018
2.90996
3.43132
3.43159
3.43191
3.43221
3.43248
3.43272
3.43293
3.4331
3.43325
3.43338
3.43348
3.43357
3.43364
3.4337
3.43375
3.43379
3.43383
3.43386
3.43388
3.4339
3.43392
3.43393
3.43394
3.43395
3.43395
3.43396
3.43396
3.43397
3.43397
3.43397
3.43397
3.43397
3.43397
3.43396
3.43396
3.43395
3.43395
3.43394
3.43393
3.43392
3.4339
3.43388
3.43386
3.43383
3.43379
3.43375
3.4337
3.43364
3.43357
3.43348
3.43338
3.43325
3.4331
3.43293
3.43272
3.43248
3.43221
3.43191
3.43159
3.43132
3.96264
3.96296
3.96334
3.96369
3.96402
3.9643
3.96454
3.96475
3.96492
3.96507
3.9652
3.9653
3.96539
3.96546
3.96552
3.96557
3.96561
3.96564
3.96567
3.96569
3.96571
3.96573
3.96574
3.96575
3.96576
3.96576
3.96577
3.96577
3.96578
3.96578
3.96578
3.96578
3.96577
3.96577
3.96576
3.96576
3.96575
3.96574
3.96573
3.96571
3.96569
3.96567
3.96564
3.96561
3.96557
3.96552
3.96546
3.96539
3.9653
3.9652
3.96507
3.96492
3.96475
3.96454
3.9643
3.96402
3.96369
3.96334
3.96296
3.96264
4.50398
4.50435
4.50478
4.50519
4.50556
4.50589
4.50617
4.50641
4.50662
4.50679
4.50693
4.50705
4.50715
4.50723
4.5073
4.50736
4.50741
4.50745
4.50748
4.50751
4.50753
4.50754
4.50756
4.50757
4.50758
4.50759
4.50759
4.5076
4.5076
4.5076
4.5076
4.5076
4.5076
4.50759
4.50759
4.50758
4.50757
4.50756
4.50754
4.50753
4.50751
4.50748
4.50745
4.50741
4.50736
4.5073
4.50723
4.50715
4.50705
4.50693
4.50679
4.50662
4.50641
4.50617
4.50589
4.50556
4.50519
4.50478
4.50435
4.50398
5.05526
5.05567
5.05616
5.05663
5.05706
5.05743
5.05775
5.05802
5.05825
5.05845
5.05861
5.05875
5.05886
5.05895
5.05903
5.0591
5.05915
5.0592
5.05923
5.05926
5.05929
5.05931
5.05932
5.05934
5.05935
5.05936
5.05936
5.05937
5.05937
5.05937
5.05937
5.05937
5.05937
5.05936
5.05936
5.05935
5.05934
5.05932
5.05931
5.05929
5.05926
5.05923
5.0592
5.05915
5.0591
5.05903
5.05895
5.05886
5.05875
5.05861
5.05845
5.05825
5.05802
5.05775
5.05743
5.05706
5.05663
5.05616
5.05567
5.05526
5.61634
5.6168
5.61735
5.61788
5.61835
5.61877
5.61912
5.61943
5.61969
5.61991
5.62009
5.62024
5.62037
5.62048
5.62057
5.62064
5.6207
5.62075
5.62079
5.62082
5.62085
5.62087
5.62089
5.62091
5.62092
5.62093
5.62094
5.62094
5.62094
5.62095
5.62095
5.62094
5.62094
5.62094
5.62093
5.62092
5.62091
5.62089
5.62087
5.62085
5.62082
5.62079
5.62075
5.6207
5.62064
5.62057
5.62048
5.62037
5.62024
5.62009
5.61991
5.61969
5.61943
5.61912
5.61877
5.61835
5.61788
5.61735
5.6168
5.61634
6.18703
6.18755
6.18815
6.18873
6.18926
6.18972
6.19011
6.19045
6.19074
6.19098
6.19118
6.19135
6.1915
6.19161
6.19171
6.19179
6.19186
6.19191
6.19196
6.19199
6.19202
6.19205
6.19207
6.19209
6.1921
6.19211
6.19212
6.19212
6.19213
6.19213
6.19213
6.19213
6.19212
6.19212
6.19211
6.1921
6.19209
6.19207
6.19205
6.19202
6.19199
6.19196
6.19191
6.19186
6.19179
6.19171
6.19161
6.1915
6.19135
6.19118
6.19098
6.19074
6.19045
6.19011
6.18972
6.18926
6.18873
6.18815
6.18755
6.18703
6.76709
6.76766
6.76832
6.76896
6.76953
6.77004
6.77047
6.77084
6.77116
6.77142
6.77164
6.77183
6.77198
6.77211
6.77222
6.77231
6.77238
6.77244
6.77249
6.77253
6.77257
6.77259
6.77262
6.77263
6.77265
6.77266
6.77267
6.77268
6.77268
6.77268
6.77268
6.77268
6.77268
6.77267
6.77266
6.77265
6.77263
6.77262
6.77259
6.77257
6.77253
6.77249
6.77244
6.77238
6.77231
6.77222
6.77211
6.77198
6.77183
6.77164
6.77142
6.77116
6.77084
6.77047
6.77004
6.76953
6.76896
6.76832
6.76766
6.76709
7.35622
7.35684
7.35756
7.35825
7.35888
7.35943
7.3599
7.3603
7.36064
7.36093
7.36117
7.36138
7.36155
7.36169
7.3618
7.3619
7.36198
7.36204
7.3621
7.36214
7.36218
7.36221
7.36223
7.36225
7.36227
7.36228
7.36229
7.3623
7.3623
7.3623
7.3623
7.3623
7.3623
7.36229
7.36228
7.36227
7.36225
7.36223
7.36221
7.36218
7.36214
7.3621
7.36204
7.36198
7.3619
7.3618
7.36169
7.36155
7.36138
7.36117
7.36093
7.36064
7.3603
7.3599
7.35943
7.35888
7.35825
7.35756
7.35684
7.35622
7.95408
7.95474
7.95552
7.95627
7.95694
7.95753
7.95804
7.95848
7.95885
7.95916
7.95942
7.95964
7.95982
7.95997
7.9601
7.9602
7.96029
7.96036
7.96042
7.96047
7.9605
7.96054
7.96056
7.96059
7.9606
7.96062
7.96063
7.96063
7.96064
7.96064
7.96064
7.96064
7.96063
7.96063
7.96062
7.9606
7.96059
7.96056
7.96054
7.9605
7.96047
7.96042
7.96036
7.96029
7.9602
7.9601
7.95997
7.95982
7.95964
7.95942
7.95916
7.95885
7.95848
7.95804
7.95753
7.95694
7.95627
7.95552
7.95474
7.95408
8.56023
8.56094
8.56178
8.56258
8.5633
8.56393
8.56448
8.56495
8.56535
8.56568
8.56596
8.5662
8.56639
8.56655
8.56669
8.5668
8.56689
8.56697
8.56703
8.56708
8.56712
8.56716
8.56719
8.56721
8.56723
8.56724
8.56725
8.56726
8.56727
8.56727
8.56727
8.56727
8.56726
8.56725
8.56724
8.56723
8.56721
8.56719
8.56716
8.56712
8.56708
8.56703
8.56697
8.56689
8.5668
8.56669
8.56655
8.56639
8.5662
8.56596
8.56568
8.56535
8.56495
8.56448
8.56393
8.5633
8.56258
8.56178
8.56094
8.56023
9.17419
9.17494
9.17584
9.17669
9.17746
9.17814
9.17872
9.17922
9.17964
9.18
9.1803
9.18055
9.18076
9.18093
9.18108
9.18119
9.18129
9.18137
9.18144
9.1815
9.18154
9.18158
9.18161
9.18163
9.18165
9.18167
9.18168
9.18169
9.1817
9.1817
9.1817
9.1817
9.18169
9.18168
9.18167
9.18165
9.18163
9.18161
9.18158
9.18154
9.1815
9.18144
9.18137
9.18129
9.18119
9.18108
9.18093
9.18076
9.18055
9.1803
9.18
9.17964
9.17922
9.17872
9.17814
9.17746
9.17669
9.17584
9.17494
9.17419
9.79538
9.79618
9.79712
9.79803
9.79885
9.79957
9.80018
9.80071
9.80116
9.80154
9.80186
9.80213
9.80235
9.80253
9.80268
9.80281
9.80291
9.803
9.80307
9.80313
9.80318
9.80322
9.80325
9.80328
9.8033
9.80331
9.80333
9.80334
9.80334
9.80334
9.80334
9.80334
9.80334
9.80333
9.80331
9.8033
9.80328
9.80325
9.80322
9.80318
9.80313
9.80307
9.803
9.80291
9.80281
9.80268
9.80253
9.80235
9.80213
9.80186
9.80154
9.80116
9.80071
9.80018
9.79957
9.79885
9.79803
9.79712
9.79618
9.79538
10.4231
10.424
10.425
10.4259
10.4268
10.4275
10.4282
10.4288
10.4292
10.4296
10.43
10.4302
10.4305
10.4307
10.4308
10.431
10.4311
10.4312
10.4312
10.4313
10.4314
10.4314
10.4314
10.4315
10.4315
10.4315
10.4315
10.4315
10.4315
10.4315
10.4315
10.4315
10.4315
10.4315
10.4315
10.4315
10.4315
10.4314
10.4314
10.4314
10.4313
10.4312
10.4312
10.4311
10.431
10.4308
10.4307
10.4305
10.4302
10.43
10.4296
10.4292
10.4288
10.4282
10.4275
10.4268
10.4259
10.425
10.424
10.4231
11.0567
11.0575
11.0586
11.0596
11.0605
11.0613
11.062
11.0626
11.0631
11.0635
11.0638
11.0641
11.0644
11.0646
11.0648
11.0649
11.065
11.0651
11.0652
11.0653
11.0653
11.0654
11.0654
11.0654
11.0654
11.0655
11.0655
11.0655
11.0655
11.0655
11.0655
11.0655
11.0655
11.0655
11.0655
11.0654
11.0654
11.0654
11.0654
11.0653
11.0653
11.0652
11.0651
11.065
11.0649
11.0648
11.0646
11.0644
11.0641
11.0638
11.0635
11.0631
11.0626
11.062
11.0613
11.0605
11.0596
11.0586
11.0575
11.0567
11.6951
11.696
11.6971
11.6982
11.6991
11.6999
11.7007
11.7013
11.7018
11.7022
11.7026
11.7029
11.7032
11.7034
11.7036
11.7037
11.7038
11.7039
11.704
11.7041
11.7041
11.7042
11.7042
11.7042
11.7043
11.7043
11.7043
11.7043
11.7043
11.7043
11.7043
11.7043
11.7043
11.7043
11.7043
11.7043
11.7042
11.7042
11.7042
11.7041
11.7041
11.704
11.7039
11.7038
11.7037
11.7036
11.7034
11.7032
11.7029
11.7026
11.7022
11.7018
11.7013
11.7007
11.6999
11.6991
11.6982
11.6971
11.696
11.6951
12.3373
12.3383
12.3395
12.3406
12.3415
12.3424
12.3432
12.3438
12.3443
12.3448
12.3452
12.3455
12.3458
12.346
12.3462
12.3463
12.3465
12.3466
12.3467
12.3467
12.3468
12.3468
12.3469
12.3469
12.3469
12.347
12.347
12.347
12.347
12.347
12.347
12.347
12.347
12.347
12.347
12.3469
12.3469
12.3469
12.3468
12.3468
12.3467
12.3467
12.3466
12.3465
12.3463
12.3462
12.346
12.3458
12.3455
12.3452
12.3448
12.3443
12.3438
12.3432
12.3424
12.3415
12.3406
12.3395
12.3383
12.3373
12.9823
12.9833
12.9845
12.9856
12.9866
12.9875
12.9883
12.989
12.9895
12.99
12.9904
12.9908
12.991
12.9913
12.9915
12.9916
12.9917
12.9919
12.9919
12.992
12.9921
12.9921
12.9922
12.9922
12.9922
12.9923
12.9923
12.9923
12.9923
12.9923
12.9923
12.9923
12.9923
12.9923
12.9923
12.9922
12.9922
12.9922
12.9921
12.9921
12.992
12.9919
12.9919
12.9917
12.9916
12.9915
12.9913
12.991
12.9908
12.9904
12.99
12.9895
12.989
12.9883
12.9875
12.9866
12.9856
12.9845
12.9833
12.9823
13.6285
13.6296
13.6308
13.632
13.633
13.634
13.6348
13.6354
13.636
13.6365
13.6369
13.6373
13.6376
13.6378
13.638
13.6382
13.6383
13.6384
13.6385
13.6386
13.6386
13.6387
13.6387
13.6388
13.6388
13.6388
13.6388
13.6389
13.6389
13.6389
13.6389
13.6389
13.6389
13.6388
13.6388
13.6388
13.6388
13.6387
13.6387
13.6386
13.6386
13.6385
13.6384
13.6383
13.6382
13.638
13.6378
13.6376
13.6373
13.6369
13.6365
13.636
13.6354
13.6348
13.634
13.633
13.632
13.6308
13.6296
13.6285
14.2745
14.2756
14.2768
14.278
14.2791
14.2801
14.2809
14.2816
14.2822
14.2827
14.2831
14.2835
14.2838
14.284
14.2842
14.2844
14.2845
14.2847
14.2848
14.2848
14.2849
14.285
14.285
14.285
14.2851
14.2851
14.2851
14.2851
14.2851
14.2851
14.2851
14.2851
14.2851
14.2851
14.2851
14.2851
14.285
14.285
14.285
14.2849
14.2848
14.2848
14.2847
14.2845
14.2844
14.2842
14.284
14.2838
14.2835
14.2831
14.2827
14.2822
14.2816
14.2809
14.2801
14.2791
14.278
14.2768
14.2756
14.2745
14.9184
14.9195
14.9208
14.922
14.9231
14.9241
14.9249
14.9257
14.9263
14.9268
14.9272
14.9276
14.9279
14.9281
14.9283
14.9285
14.9287
14.9288
14.9289
14.929
14.929
14.9291
14.9291
14.9292
14.9292
14.9292
14.9292
14.9292
14.9293
14.9293
14.9293
14.9293
14.9292
14.9292
14.9292
14.9292
14.9292
14.9291
14.9291
14.929
14.929
14.9289
14.9288
14.9287
14.9285
14.9283
14.9281
14.9279
14.9276
14.9272
14.9268
14.9263
14.9257
14.9249
14.9241
14.9231
14.922
14.9208
14.9195
14.9184
15.5581
15.5592
15.5605
15.5618
15.5629
15.5639
15.5647
15.5655
15.5661
15.5666
15.5671
15.5674
15.5677
15.568
15.5682
15.5684
15.5685
15.5687
15.5688
15.5688
15.5689
15.569
15.569
15.5691
15.5691
15.5691
15.5691
15.5691
15.5692
15.5692
15.5692
15.5692
15.5691
15.5691
15.5691
15.5691
15.5691
15.569
15.569
15.5689
15.5688
15.5688
15.5687
15.5685
15.5684
15.5682
15.568
15.5677
15.5674
15.5671
15.5666
15.5661
15.5655
15.5647
15.5639
15.5629
15.5618
15.5605
15.5592
15.5581
16.1912
16.1923
16.1936
16.1949
16.196
16.197
16.1979
16.1987
16.1993
16.1998
16.2003
16.2006
16.2009
16.2012
16.2014
16.2016
16.2018
16.2019
16.202
16.2021
16.2021
16.2022
16.2022
16.2023
16.2023
16.2023
16.2023
16.2024
16.2024
16.2024
16.2024
16.2024
16.2024
16.2023
16.2023
16.2023
16.2023
16.2022
16.2022
16.2021
16.2021
16.202
16.2019
16.2018
16.2016
16.2014
16.2012
16.2009
16.2006
16.2003
16.1998
16.1993
16.1987
16.1979
16.197
16.196
16.1949
16.1936
16.1923
16.1912
16.8148
16.816
16.8173
16.8186
16.8197
16.8207
16.8216
16.8223
16.823
16.8235
16.8239
16.8243
16.8246
16.8249
16.8251
16.8253
16.8254
16.8256
16.8257
16.8258
16.8258
16.8259
16.8259
16.826
16.826
16.826
16.826
16.8261
16.8261
16.8261
16.8261
16.8261
16.8261
16.826
16.826
16.826
16.826
16.8259
16.8259
16.8258
16.8258
16.8257
16.8256
16.8254
16.8253
16.8251
16.8249
16.8246
16.8243
16.8239
16.8235
16.823
16.8223
16.8216
16.8207
16.8197
16.8186
16.8173
16.816
16.8148
17.4257
17.4268
17.4282
17.4294
17.4306
17.4316
17.4324
17.4332
17.4338
17.4343
17.4348
17.4352
17.4355
17.4357
17.436
17.4361
17.4363
17.4364
17.4365
17.4366
17.4367
17.4367
17.4368
17.4368
17.4368
17.4369
17.4369
17.4369
17.4369
17.4369
17.4369
17.4369
17.4369
17.4369
17.4369
17.4368
17.4368
17.4368
17.4367
17.4367
17.4366
17.4365
17.4364
17.4363
17.4361
17.436
17.4357
17.4355
17.4352
17.4348
17.4343
17.4338
17.4332
17.4324
17.4316
17.4306
17.4294
17.4282
17.4268
17.4257
18.0199
18.021
18.0224
18.0236
18.0247
18.0257
18.0266
18.0273
18.0279
18.0284
18.0289
18.0293
18.0296
18.0298
18.03
18.0302
18.0304
18.0305
18.0306
18.0307
18.0307
18.0308
18.0309
18.0309
18.0309
18.0309
18.031
18.031
18.031
18.031
18.031
18.031
18.031
18.031
18.0309
18.0309
18.0309
18.0309
18.0308
18.0307
18.0307
18.0306
18.0305
18.0304
18.0302
18.03
18.0298
18.0296
18.0293
18.0289
18.0284
18.0279
18.0273
18.0266
18.0257
18.0247
18.0236
18.0224
18.021
18.0199
18.5928
18.5939
18.5952
18.5964
18.5975
18.5985
18.5993
18.6
18.6006
18.6011
18.6016
18.6019
18.6022
18.6025
18.6027
18.6029
18.603
18.6031
18.6032
18.6033
18.6034
18.6034
18.6035
18.6035
18.6035
18.6036
18.6036
18.6036
18.6036
18.6036
18.6036
18.6036
18.6036
18.6036
18.6036
18.6035
18.6035
18.6035
18.6034
18.6034
18.6033
18.6032
18.6031
18.603
18.6029
18.6027
18.6025
18.6022
18.6019
18.6016
18.6011
18.6006
18.6
18.5993
18.5985
18.5975
18.5964
18.5952
18.5939
18.5928
19.1388
19.1399
19.1411
19.1423
19.1434
19.1443
19.1451
19.1458
19.1463
19.1468
19.1472
19.1476
19.1479
19.1481
19.1483
19.1485
19.1486
19.1488
19.1489
19.1489
19.149
19.1491
19.1491
19.1491
19.1492
19.1492
19.1492
19.1492
19.1492
19.1492
19.1492
19.1492
19.1492
19.1492
19.1492
19.1492
19.1491
19.1491
19.1491
19.149
19.1489
19.1489
19.1488
19.1486
19.1485
19.1483
19.1481
19.1479
19.1476
19.1472
19.1468
19.1463
19.1458
19.1451
19.1443
19.1434
19.1423
19.1411
19.1399
19.1388
19.6515
19.6525
19.6536
19.6547
19.6557
19.6566
19.6573
19.658
19.6585
19.659
19.6594
19.6597
19.66
19.6602
19.6604
19.6605
19.6607
19.6608
19.6609
19.661
19.661
19.6611
19.6611
19.6612
19.6612
19.6612
19.6612
19.6612
19.6613
19.6613
19.6613
19.6613
19.6612
19.6612
19.6612
19.6612
19.6612
19.6611
19.6611
19.661
19.661
19.6609
19.6608
19.6607
19.6605
19.6604
19.6602
19.66
19.6597
19.6594
19.659
19.6585
19.658
19.6573
19.6566
19.6557
19.6547
19.6536
19.6525
19.6515
20.1231
20.1241
20.1251
20.1261
20.127
20.1278
20.1285
20.1291
20.1296
20.13
20.1304
20.1307
20.1309
20.1311
20.1313
20.1315
20.1316
20.1317
20.1318
20.1318
20.1319
20.132
20.132
20.132
20.1321
20.1321
20.1321
20.1321
20.1321
20.1321
20.1321
20.1321
20.1321
20.1321
20.1321
20.1321
20.132
20.132
20.132
20.1319
20.1318
20.1318
20.1317
20.1316
20.1315
20.1313
20.1311
20.1309
20.1307
20.1304
20.13
20.1296
20.1291
20.1285
20.1278
20.127
20.1261
20.1251
20.1241
20.1231
20.5459
20.5467
20.5476
20.5485
20.5493
20.55
20.5506
20.5511
20.5516
20.5519
20.5523
20.5525
20.5528
20.5529
20.5531
20.5532
20.5533
20.5534
20.5535
20.5536
20.5536
20.5537
20.5537
20.5538
20.5538
20.5538
20.5538
20.5538
20.5538
20.5538
20.5538
20.5538
20.5538
20.5538
20.5538
20.5538
20.5538
20.5537
20.5537
20.5536
20.5536
20.5535
20.5534
20.5533
20.5532
20.5531
20.5529
20.5528
20.5525
20.5523
20.5519
20.5516
20.5511
20.5506
20.55
20.5493
20.5485
20.5476
20.5467
20.5459
20.9127
20.9134
20.9142
20.9149
20.9156
20.9162
20.9167
20.9171
20.9175
20.9178
20.9181
20.9183
20.9185
20.9187
20.9188
20.919
20.9191
20.9191
20.9192
20.9193
20.9193
20.9194
20.9194
20.9194
20.9194
20.9195
20.9195
20.9195
20.9195
20.9195
20.9195
20.9195
20.9195
20.9195
20.9195
20.9194
20.9194
20.9194
20.9194
20.9193
20.9193
20.9192
20.9191
20.9191
20.919
20.9188
20.9187
20.9185
20.9183
20.9181
20.9178
20.9175
20.9171
20.9167
20.9162
20.9156
20.9149
20.9142
20.9134
20.9127
21.2199
21.2205
21.2211
21.2217
21.2222
21.2227
21.2231
21.2234
21.2238
21.224
21.2242
21.2244
21.2246
21.2247
21.2248
21.2249
21.225
21.2251
21.2251
21.2252
21.2252
21.2253
21.2253
21.2253
21.2254
21.2254
21.2254
21.2254
21.2254
21.2254
21.2254
21.2254
21.2254
21.2254
21.2254
21.2254
21.2253
21.2253
21.2253
21.2252
21.2252
21.2251
21.2251
21.225
21.2249
21.2248
21.2247
21.2246
21.2244
21.2242
21.224
21.2238
21.2234
21.2231
21.2227
21.2222
21.2217
21.2211
21.2205
21.2199
21.4689
21.4693
21.4697
21.4702
21.4706
21.4709
21.4713
21.4715
21.4718
21.472
21.4722
21.4723
21.4724
21.4725
21.4726
21.4727
21.4728
21.4728
21.4729
21.4729
21.473
21.473
21.473
21.4731
21.4731
21.4731
21.4731
21.4731
21.4731
21.4731
21.4731
21.4731
21.4731
21.4731
21.4731
21.4731
21.4731
21.473
21.473
21.473
21.4729
21.4729
21.4728
21.4728
21.4727
21.4726
21.4725
21.4724
21.4723
21.4722
21.472
21.4718
21.4715
21.4713
21.4709
21.4706
21.4702
21.4697
21.4693
21.4689
21.6664
21.6667
21.667
21.6673
21.6676
21.6679
21.6681
21.6683
21.6685
21.6687
21.6688
21.6689
21.669
21.6691
21.6692
21.6693
21.6693
21.6694
21.6694
21.6694
21.6695
21.6695
21.6695
21.6695
21.6696
21.6696
21.6696
21.6696
21.6696
21.6696
21.6696
21.6696
21.6696
21.6696
21.6696
21.6696
21.6695
21.6695
21.6695
21.6695
21.6694
21.6694
21.6694
21.6693
21.6693
21.6692
21.6691
21.669
21.6689
21.6688
21.6687
21.6685
21.6683
21.6681
21.6679
21.6676
21.6673
21.667
21.6667
21.6664
21.8227
21.8229
21.8231
21.8234
21.8236
21.8238
21.8239
21.8241
21.8242
21.8244
21.8245
21.8245
21.8246
21.8247
21.8248
21.8248
21.8249
21.8249
21.8249
21.825
21.825
21.825
21.825
21.825
21.8251
21.8251
21.8251
21.8251
21.8251
21.8251
21.8251
21.8251
21.8251
21.8251
21.8251
21.8251
21.825
21.825
21.825
21.825
21.825
21.8249
21.8249
21.8249
21.8248
21.8248
21.8247
21.8246
21.8245
21.8245
21.8244
21.8242
21.8241
21.8239
21.8238
21.8236
21.8234
21.8231
21.8229
21.8227
21.9484
21.9485
21.9487
21.9489
21.949
21.9492
21.9493
21.9494
21.9495
21.9496
21.9497
21.9497
21.9498
21.9499
21.9499
21.95
21.95
21.95
21.9501
21.9501
21.9501
21.9501
21.9502
21.9502
21.9502
21.9502
21.9502
21.9502
21.9502
21.9502
21.9502
21.9502
21.9502
21.9502
21.9502
21.9502
21.9502
21.9502
21.9501
21.9501
21.9501
21.9501
21.95
21.95
21.95
21.9499
21.9499
21.9498
21.9497
21.9497
21.9496
21.9495
21.9494
21.9493
21.9492
21.949
21.9489
21.9487
21.9485
21.9484
22.0524
22.0525
22.0526
22.0527
22.0528
22.0529
22.053
22.0531
22.0532
22.0533
22.0533
22.0534
22.0534
22.0535
22.0535
22.0536
22.0536
22.0536
22.0537
22.0537
22.0537
22.0537
22.0537
22.0538
22.0538
22.0538
22.0538
22.0538
22.0538
22.0538
22.0538
22.0538
22.0538
22.0538
22.0538
22.0538
22.0538
22.0537
22.0537
22.0537
22.0537
22.0537
22.0536
22.0536
22.0536
22.0535
22.0535
22.0534
22.0534
22.0533
22.0533
22.0532
22.0531
22.053
22.0529
22.0528
22.0527
22.0526
22.0525
22.0524
22.1411
22.1412
22.1412
22.1413
22.1414
22.1415
22.1416
22.1416
22.1417
22.1418
22.1418
22.1419
22.1419
22.142
22.142
22.142
22.1421
22.1421
22.1421
22.1421
22.1422
22.1422
22.1422
22.1422
22.1422
22.1422
22.1422
22.1422
22.1422
22.1422
22.1422
22.1422
22.1422
22.1422
22.1422
22.1422
22.1422
22.1422
22.1422
22.1422
22.1421
22.1421
22.1421
22.1421
22.142
22.142
22.142
22.1419
22.1419
22.1418
22.1418
22.1417
22.1416
22.1416
22.1415
22.1414
22.1413
22.1412
22.1412
22.1411
22.2189
22.219
22.219
22.2191
22.2191
22.2192
22.2193
22.2193
22.2194
22.2194
22.2195
22.2195
22.2196
22.2196
22.2196
22.2197
22.2197
22.2197
22.2197
22.2198
22.2198
22.2198
22.2198
22.2198
22.2198
22.2199
22.2199
22.2199
22.2199
22.2199
22.2199
22.2199
22.2199
22.2199
22.2199
22.2198
22.2198
22.2198
22.2198
22.2198
22.2198
22.2197
22.2197
22.2197
22.2197
22.2196
22.2196
22.2196
22.2195
22.2195
22.2194
22.2194
22.2193
22.2193
22.2192
22.2191
22.2191
22.219
22.219
22.2189
22.2887
22.2887
22.2887
22.2888
22.2888
22.2889
22.2889
22.289
22.289
22.2891
22.2891
22.2892
22.2892
22.2892
22.2893
22.2893
22.2893
22.2893
22.2894
22.2894
22.2894
22.2894
22.2894
22.2895
22.2895
22.2895
22.2895
22.2895
22.2895
22.2895
22.2895
22.2895
22.2895
22.2895
22.2895
22.2895
22.2895
22.2894
22.2894
22.2894
22.2894
22.2894
22.2893
22.2893
22.2893
22.2893
22.2892
22.2892
22.2892
22.2891
22.2891
22.289
22.289
22.2889
22.2889
22.2888
22.2888
22.2887
22.2887
22.2887
22.3523
22.3523
22.3523
22.3523
22.3524
22.3524
22.3524
22.3525
22.3525
22.3526
22.3526
22.3526
22.3527
22.3527
22.3527
22.3527
22.3528
22.3528
22.3528
22.3528
22.3529
22.3529
22.3529
22.3529
22.3529
22.3529
22.3529
22.3529
22.3529
22.353
22.353
22.3529
22.3529
22.3529
22.3529
22.3529
22.3529
22.3529
22.3529
22.3529
22.3528
22.3528
22.3528
22.3528
22.3527
22.3527
22.3527
22.3527
22.3526
22.3526
22.3526
22.3525
22.3525
22.3524
22.3524
22.3524
22.3523
22.3523
22.3523
22.3523
22.4109
22.4109
22.4109
22.411
22.411
22.411
22.411
22.4111
22.4111
22.4111
22.4112
22.4112
22.4112
22.4113
22.4113
22.4113
22.4114
22.4114
22.4114
22.4114
22.4114
22.4115
22.4115
22.4115
22.4115
22.4115
22.4115
22.4115
22.4115
22.4115
22.4115
22.4115
22.4115
22.4115
22.4115
22.4115
22.4115
22.4115
22.4115
22.4114
22.4114
22.4114
22.4114
22.4114
22.4113
22.4113
22.4113
22.4112
22.4112
22.4112
22.4111
22.4111
22.4111
22.411
22.411
22.411
22.411
22.4109
22.4109
22.4109
22.4656
22.4656
22.4656
22.4656
22.4656
22.4657
22.4657
22.4657
22.4657
22.4658
22.4658
22.4658
22.4659
22.4659
22.4659
22.4659
22.466
22.466
22.466
22.466
22.4661
22.4661
22.4661
22.4661
22.4661
22.4661
22.4661
22.4661
22.4661
22.4661
22.4661
22.4661
22.4661
22.4661
22.4661
22.4661
22.4661
22.4661
22.4661
22.4661
22.466
22.466
22.466
22.466
22.4659
22.4659
22.4659
22.4659
22.4658
22.4658
22.4658
22.4657
22.4657
22.4657
22.4657
22.4656
22.4656
22.4656
22.4656
22.4656
22.517
22.517
22.517
22.517
22.517
22.517
22.517
22.5171
22.5171
22.5171
22.5171
22.5172
22.5172
22.5172
22.5172
22.5173
22.5173
22.5173
22.5173
22.5174
22.5174
22.5174
22.5174
22.5174
22.5174
22.5175
22.5175
22.5175
22.5175
22.5175
22.5175
22.5175
22.5175
22.5175
22.5175
22.5174
22.5174
22.5174
22.5174
22.5174
22.5174
22.5173
22.5173
22.5173
22.5173
22.5172
22.5172
22.5172
22.5172
22.5171
22.5171
22.5171
22.5171
22.517
22.517
22.517
22.517
22.517
22.517
22.517
22.5656
22.5656
22.5656
22.5656
22.5656
22.5656
22.5656
22.5656
22.5657
22.5657
22.5657
22.5657
22.5658
22.5658
22.5658
22.5658
22.5659
22.5659
22.5659
22.5659
22.566
22.566
22.566
22.566
22.566
22.566
22.566
22.566
22.566
22.566
22.566
22.566
22.566
22.566
22.566
22.566
22.566
22.566
22.566
22.566
22.5659
22.5659
22.5659
22.5659
22.5658
22.5658
22.5658
22.5658
22.5657
22.5657
22.5657
22.5657
22.5656
22.5656
22.5656
22.5656
22.5656
22.5656
22.5656
22.5656
22.6118
22.6118
22.6118
22.6118
22.6118
22.6118
22.6118
22.6119
22.6119
22.6119
22.6119
22.612
22.612
22.612
22.612
22.6121
22.6121
22.6121
22.6121
22.6122
22.6122
22.6122
22.6122
22.6122
22.6122
22.6123
22.6123
22.6123
22.6123
22.6123
22.6123
22.6123
22.6123
22.6123
22.6123
22.6122
22.6122
22.6122
22.6122
22.6122
22.6122
22.6121
22.6121
22.6121
22.6121
22.612
22.612
22.612
22.612
22.6119
22.6119
22.6119
22.6119
22.6118
22.6118
22.6118
22.6118
22.6118
22.6118
22.6118
22.6561
22.6561
22.6561
22.6561
22.6561
22.6561
22.6561
22.6561
22.6561
22.6561
22.6562
22.6562
22.6562
22.6562
22.6563
22.6563
22.6563
22.6563
22.6564
22.6564
22.6564
22.6564
22.6564
22.6564
22.6565
22.6565
22.6565
22.6565
22.6565
22.6565
22.6565
22.6565
22.6565
22.6565
22.6565
22.6565
22.6564
22.6564
22.6564
22.6564
22.6564
22.6564
22.6563
22.6563
22.6563
22.6563
22.6562
22.6562
22.6562
22.6562
22.6561
22.6561
22.6561
22.6561
22.6561
22.6561
22.6561
22.6561
22.6561
22.6561
22.6986
22.6986
22.6985
22.6985
22.6985
22.6985
22.6985
22.6986
22.6986
22.6986
22.6986
22.6987
22.6987
22.6987
22.6987
22.6988
22.6988
22.6988
22.6988
22.6989
22.6989
22.6989
22.6989
22.6989
22.6989
22.6989
22.699
22.699
22.699
22.699
22.699
22.699
22.699
22.699
22.6989
22.6989
22.6989
22.6989
22.6989
22.6989
22.6989
22.6988
22.6988
22.6988
22.6988
22.6987
22.6987
22.6987
22.6987
22.6986
22.6986
22.6986
22.6986
22.6985
22.6985
22.6985
22.6985
22.6985
22.6986
22.6986
22.7395
22.7395
22.7395
22.7395
22.7395
22.7395
22.7395
22.7395
22.7395
22.7396
22.7396
22.7396
22.7396
22.7397
22.7397
22.7397
22.7397
22.7398
22.7398
22.7398
22.7398
22.7399
22.7399
22.7399
22.7399
22.7399
22.7399
22.7399
22.7399
22.7399
22.7399
22.7399
22.7399
22.7399
22.7399
22.7399
22.7399
22.7399
22.7399
22.7398
22.7398
22.7398
22.7398
22.7397
22.7397
22.7397
22.7397
22.7396
22.7396
22.7396
22.7396
22.7395
22.7395
22.7395
22.7395
22.7395
22.7395
22.7395
22.7395
22.7395
22.7792
22.7792
22.7792
22.7792
22.7791
22.7791
22.7792
22.7792
22.7792
22.7792
22.7792
22.7793
22.7793
22.7793
22.7793
22.7794
22.7794
22.7794
22.7794
22.7795
22.7795
22.7795
22.7795
22.7795
22.7795
22.7796
22.7796
22.7796
22.7796
22.7796
22.7796
22.7796
22.7796
22.7796
22.7796
22.7795
22.7795
22.7795
22.7795
22.7795
22.7795
22.7794
22.7794
22.7794
22.7794
22.7793
22.7793
22.7793
22.7793
22.7792
22.7792
22.7792
22.7792
22.7792
22.7791
22.7791
22.7792
22.7792
22.7792
22.7792
22.8177
22.8177
22.8176
22.8176
22.8176
22.8176
22.8176
22.8176
22.8177
22.8177
22.8177
22.8177
22.8178
22.8178
22.8178
22.8178
22.8179
22.8179
22.8179
22.8179
22.818
22.818
22.818
22.818
22.818
22.818
22.818
22.8181
22.8181
22.8181
22.8181
22.8181
22.8181
22.818
22.818
22.818
22.818
22.818
22.818
22.818
22.8179
22.8179
22.8179
22.8179
22.8178
22.8178
22.8178
22.8178
22.8177
22.8177
22.8177
22.8177
22.8176
22.8176
22.8176
22.8176
22.8176
22.8176
22.8177
22.8177
22.8551
22.8551
22.8551
22.8551
22.8551
22.8551
22.8551
22.8551
22.8551
22.8551
22.8552
22.8552
22.8552
22.8552
22.8553
22.8553
22.8553
22.8553
22.8554
22.8554
22.8554
22.8554
22.8555
22.8555
22.8555
22.8555
22.8555
22.8555
22.8555
22.8555
22.8555
22.8555
22.8555
22.8555
22.8555
22.8555
22.8555
22.8555
22.8554
22.8554
22.8554
22.8554
22.8553
22.8553
22.8553
22.8553
22.8552
22.8552
22.8552
22.8552
22.8551
22.8551
22.8551
22.8551
22.8551
22.8551
22.8551
22.8551
22.8551
22.8551
22.8917
22.8917
22.8917
22.8916
22.8916
22.8916
22.8916
22.8917
22.8917
22.8917
22.8917
22.8917
22.8918
22.8918
22.8918
22.8918
22.8919
22.8919
22.8919
22.892
22.892
22.892
22.892
22.892
22.892
22.8921
22.8921
22.8921
22.8921
22.8921
22.8921
22.8921
22.8921
22.8921
22.8921
22.892
22.892
22.892
22.892
22.892
22.892
22.8919
22.8919
22.8919
22.8918
22.8918
22.8918
22.8918
22.8917
22.8917
22.8917
22.8917
22.8917
22.8916
22.8916
22.8916
22.8916
22.8917
22.8917
22.8917
22.9274
22.9274
22.9274
22.9274
22.9274
22.9274
22.9274
22.9274
22.9274
22.9274
22.9275
22.9275
22.9275
22.9275
22.9276
22.9276
22.9276
22.9277
22.9277
22.9277
22.9277
22.9278
22.9278
22.9278
22.9278
22.9278
22.9278
22.9278
22.9278
22.9278
22.9278
22.9278
22.9278
22.9278
22.9278
22.9278
22.9278
22.9278
22.9278
22.9277
22.9277
22.9277
22.9277
22.9276
22.9276
22.9276
22.9275
22.9275
22.9275
22.9275
22.9274
22.9274
22.9274
22.9274
22.9274
22.9274
22.9274
22.9274
22.9274
22.9274
22.9625
22.9625
22.9625
22.9624
22.9624
22.9624
22.9624
22.9624
22.9625
22.9625
22.9625
22.9625
22.9626
22.9626
22.9626
22.9627
22.9627
22.9627
22.9627
22.9628
22.9628
22.9628
22.9628
22.9628
22.9629
22.9629
22.9629
22.9629
22.9629
22.9629
22.9629
22.9629
22.9629
22.9629
22.9629
22.9629
22.9628
22.9628
22.9628
22.9628
22.9628
22.9627
22.9627
22.9627
22.9627
22.9626
22.9626
22.9626
22.9625
22.9625
22.9625
22.9625
22.9624
22.9624
22.9624
22.9624
22.9624
22.9625
22.9625
22.9625
22.9969
22.9969
22.9969
22.9969
22.9969
22.9969
22.9969
22.9969
22.9969
22.9969
22.9969
22.997
22.997
22.997
22.9971
22.9971
22.9971
22.9971