/*--------------------------------*- C++ -*----------------------------------*\
| =========                 |                                                 |
| \\      /  F ield         | foam-extend: Open Source CFD                    |
|  \\    /   O peration     | Version:     4.0                                |
|   \\  /    A nd           | Web:         http://www.foam-extend.org         |
|    \\/     M anipulation  |                                                 |
\*---------------------------------------------------------------------------*/
FoamFile
{
    version     2.0;
    format      ascii;
    class       volScalarField;
    location    "24";
    object      p;
}
// * * * * * * * * * * * * * * * * * * * * * * * * * * * * * * * * * * * * * //

dimensions      [0 2 -2 0 0 0 0];

internalField   nonuniform List<scalar> 
6960
(
1.83495e-14
-5.65577e-14
-7.32704e-14
-6.94941e-14
-6.70003e-14
-6.47577e-14
-6.30673e-14
-6.09129e-14
-6.02149e-14
-6.01265e-14
-6.07794e-14
-6.16024e-14
-6.26808e-14
-6.34849e-14
-6.43179e-14
-6.48333e-14
-6.53294e-14
-6.56002e-14
-6.58935e-14
-6.60453e-14
-6.62171e-14
-6.62972e-14
-6.64086e-14
-6.65018e-14
-6.66746e-14
-6.69159e-14
-6.72792e-14
-6.77396e-14
-6.82878e-14
-6.88779e-14
-6.94708e-14
-7.00389e-14
-7.05603e-14
-7.10671e-14
-7.15632e-14
-7.21315e-14
-7.27354e-14
-7.34622e-14
-7.41518e-14
-7.48868e-14
-7.53617e-14
-7.57331e-14
-7.56336e-14
-7.54094e-14
-7.48002e-14
-7.42844e-14
-7.39414e-14
-7.38569e-14
-7.49641e-14
-7.55671e-14
-7.89423e-14
-7.87941e-14
-8.46353e-14
-8.00441e-14
-8.94433e-14
-7.53249e-14
-9.31474e-14
-6.5818e-14
-9.83904e-14
-6.70088e-14
-6.14735e-14
-5.50543e-14
-6.69841e-14
-6.30538e-14
-6.2062e-14
-6.19468e-14
-6.30144e-14
-6.32454e-14
-6.41492e-14
-6.4751e-14
-6.52878e-14
-6.54176e-14
-6.55356e-14
-6.53633e-14
-6.5406e-14
-6.53849e-14
-6.55981e-14
-6.57682e-14
-6.60586e-14
-6.62321e-14
-6.64093e-14
-6.6471e-14
-6.65542e-14
-6.6641e-14
-6.68525e-14
-6.71903e-14
-6.77026e-14
-6.83435e-14
-6.90751e-14
-6.98214e-14
-7.05169e-14
-7.11172e-14
-7.15931e-14
-7.19799e-14
-7.22901e-14
-7.26226e-14
-7.29565e-14
-7.33971e-14
-7.38001e-14
-7.42647e-14
-7.45031e-14
-7.46855e-14
-7.44749e-14
-7.42248e-14
-7.37218e-14
-7.34209e-14
-7.34594e-14
-7.38156e-14
-7.54776e-14
-7.65151e-14
-8.03005e-14
-8.01972e-14
-8.59709e-14
-8.0847e-14
-8.97971e-14
-7.49735e-14
-9.25692e-14
-6.50284e-14
-9.75141e-14
-6.64248e-14
-9.19367e-14
-5.59041e-14
-6.29035e-14
-5.83816e-14
-5.75718e-14
-5.83039e-14
-6.11974e-14
-6.32477e-14
-6.5666e-14
-6.72059e-14
-6.81277e-14
-6.81001e-14
-6.77329e-14
-6.69068e-14
-6.63096e-14
-6.5767e-14
-6.56325e-14
-6.56252e-14
-6.58758e-14
-6.60941e-14
-6.63572e-14
-6.65076e-14
-6.66645e-14
-6.6802e-14
-6.70446e-14
-6.74004e-14
-6.79266e-14
-6.85847e-14
-6.9343e-14
-7.01285e-14
-7.08752e-14
-7.1533e-14
-7.20611e-14
-7.24789e-14
-7.27805e-14
-7.30504e-14
-7.32584e-14
-7.35148e-14
-7.36918e-14
-7.39194e-14
-7.39469e-14
-7.39813e-14
-7.37168e-14
-7.3515e-14
-7.31657e-14
-7.30762e-14
-7.33699e-14
-7.39246e-14
-7.57562e-14
-7.67946e-14
-8.05604e-14
-8.02327e-14
-8.5916e-14
-8.05179e-14
-8.95542e-14
-7.45667e-14
-9.24269e-14
-6.46478e-14
-9.69657e-14
-6.59724e-14
-6.58957e-14
-5.64198e-14
-6.20439e-14
-5.72524e-14
-5.63555e-14
-5.72261e-14
-6.05341e-14
-6.30491e-14
-6.58999e-14
-6.76855e-14
-6.87402e-14
-6.86785e-14
-6.82003e-14
-6.72028e-14
-6.64482e-14
-6.57879e-14
-6.56026e-14
-6.56008e-14
-6.5903e-14
-6.6189e-14
-6.65103e-14
-6.66906e-14
-6.68391e-14
-6.69313e-14
-6.71017e-14
-6.73757e-14
-6.78294e-14
-6.84426e-14
-6.9196e-14
-7.00213e-14
-7.08491e-14
-7.16176e-14
-7.22668e-14
-7.2795e-14
-7.31732e-14
-7.34698e-14
-7.36429e-14
-7.38041e-14
-7.38346e-14
-7.3885e-14
-7.37282e-14
-7.3602e-14
-7.32234e-14
-7.29739e-14
-7.26541e-14
-7.26617e-14
-7.31192e-14
-7.38564e-14
-7.58929e-14
-7.70722e-14
-8.09697e-14
-8.06274e-14
-8.63228e-14
-8.07451e-14
-8.97527e-14
-7.45282e-14
-9.24495e-14
-6.44772e-14
-9.68598e-14
-6.59979e-14
-5.91188e-14
-5.68767e-14
-6.17591e-14
-5.67789e-14
-5.57625e-14
-5.6632e-14
-6.0103e-14
-6.28203e-14
-6.59128e-14
-6.78487e-14
-6.8995e-14
-6.89395e-14
-6.84108e-14
-6.73287e-14
-6.64865e-14
-6.57663e-14
-6.55594e-14
-6.55767e-14
-6.59278e-14
-6.62743e-14
-6.66501e-14
-6.68599e-14
-6.70064e-14
-6.70615e-14
-6.71684e-14
-6.73654e-14
-6.77447e-14
-6.83037e-14
-6.90359e-14
-6.9881e-14
-7.07679e-14
-7.16266e-14
-7.23817e-14
-7.30124e-14
-7.34698e-14
-7.38061e-14
-7.39696e-14
-7.40719e-14
-7.40009e-14
-7.39241e-14
-7.36345e-14
-7.33922e-14
-7.29307e-14
-7.26448e-14
-7.23353e-14
-7.23992e-14
-7.29417e-14
-7.37773e-14
-7.59168e-14
-7.71738e-14
-8.11458e-14
-8.08258e-14
-8.65664e-14
-8.0959e-14
-9.0003e-14
-7.47038e-14
-9.26278e-14
-6.45483e-14
-9.68458e-14
-6.60625e-14
-5.79806e-14
-5.75984e-14
-6.18243e-14
-5.65313e-14
-5.52406e-14
-5.60102e-14
-5.95121e-14
-6.23669e-14
-6.57362e-14
-6.78766e-14
-6.92006e-14
-6.92555e-14
-6.87492e-14
-6.76362e-14
-6.67286e-14
-6.59323e-14
-6.56604e-14
-6.56335e-14
-6.59651e-14
-6.63106e-14
-6.66972e-14
-6.69195e-14
-6.7072e-14
-6.71223e-14
-6.72144e-14
-6.73888e-14
-6.77436e-14
-6.82825e-14
-6.90043e-14
-6.98524e-14
-7.07571e-14
-7.16464e-14
-7.24406e-14
-7.31125e-14
-7.36062e-14
-7.39676e-14
-7.41397e-14
-7.4233e-14
-7.41353e-14
-7.402e-14
-7.36825e-14
-7.33914e-14
-7.28819e-14
-7.25557e-14
-7.2209e-14
-7.22455e-14
-7.27661e-14
-7.35946e-14
-7.5737e-14
-7.70211e-14
-8.10433e-14
-8.07974e-14
-8.66312e-14
-8.11062e-14
-9.02204e-14
-7.4921e-14
-9.27924e-14
-6.46165e-14
-9.67748e-14
-6.6148e-14
-5.80101e-14
-5.84461e-14
-6.20144e-14
-5.63813e-14
-5.47488e-14
-5.53441e-14
-5.88413e-14
-6.18588e-14
-6.54541e-14
-6.78272e-14
-6.93622e-14
-6.95515e-14
-6.91143e-14
-6.79943e-14
-6.70325e-14
-6.61591e-14
-6.58108e-14
-6.57238e-14
-6.60172e-14
-6.63459e-14
-6.67309e-14
-6.69579e-14
-6.71148e-14
-6.71643e-14
-6.72491e-14
-6.74108e-14
-6.77516e-14
-6.8278e-14
-6.89929e-14
-6.98421e-14
-7.07569e-14
-7.16641e-14
-7.2482e-14
-7.31801e-14
-7.36993e-14
-7.40816e-14
-7.42675e-14
-7.43657e-14
-7.42632e-14
-7.41344e-14
-7.37735e-14
-7.34523e-14
-7.29018e-14
-7.25299e-14
-7.21275e-14
-7.21098e-14
-7.25736e-14
-7.33638e-14
-7.54851e-14
-7.67915e-14
-8.08682e-14
-8.07178e-14
-8.66689e-14
-8.12519e-14
-9.04328e-14
-7.5138e-14
-9.29329e-14
-6.46527e-14
-9.66697e-14
-6.62383e-14
-5.89907e-14
-5.93023e-14
-6.22947e-14
-5.63447e-14
-5.427e-14
-5.46784e-14
-5.81694e-14
-6.12955e-14
-6.50952e-14
-6.77212e-14
-6.94765e-14
-6.98055e-14
-6.94416e-14
-6.8325e-14
-6.73176e-14
-6.63808e-14
-6.59631e-14
-6.58216e-14
-6.60809e-14
-6.6394e-14
-6.67774e-14
-6.70067e-14
-6.71644e-14
-6.72084e-14
-6.72804e-14
-6.74244e-14
-6.77461e-14
-6.82576e-14
-6.8965e-14
-6.98164e-14
-7.0744e-14
-7.1673e-14
-7.25187e-14
-7.32464e-14
-7.37937e-14
-7.41978e-14
-7.43978e-14
-7.45009e-14
-7.43941e-14
-7.4253e-14
-7.3872e-14
-7.3524e-14
-7.29379e-14
-7.25232e-14
-7.20668e-14
-7.19924e-14
-7.23936e-14
-7.31364e-14
-7.52251e-14
-7.65431e-14
-8.06661e-14
-8.06139e-14
-8.66825e-14
-8.13916e-14
-9.06571e-14
-7.53774e-14
-9.30976e-14
-6.47091e-14
-9.65808e-14
-6.63229e-14
-6.01351e-14
-6.01984e-14
-6.27376e-14
-5.63601e-14
-5.38838e-14
-5.40783e-14
-5.75014e-14
-6.0725e-14
-6.47147e-14
-6.75669e-14
-6.9523e-14
-7.0017e-14
-6.97328e-14
-6.8632e-14
-6.75931e-14
-6.65931e-14
-6.61133e-14
-6.59212e-14
-6.61512e-14
-6.64524e-14
-6.68351e-14
-6.7066e-14
-6.72226e-14
-6.72565e-14
-6.73106e-14
-6.74315e-14
-6.77297e-14
-6.82221e-14
-6.89204e-14
-6.97749e-14
-7.07178e-14
-7.16721e-14
-7.255e-14
-7.33118e-14
-7.38898e-14
-7.43181e-14
-7.45325e-14
-7.46405e-14
-7.45294e-14
-7.4377e-14
-7.39779e-14
-7.36068e-14
-7.29892e-14
-7.25356e-14
-7.20263e-14
-7.18941e-14
-7.22261e-14
-7.29127e-14
-7.49551e-14
-7.62735e-14
-8.04329e-14
-8.04787e-14
-8.66706e-14
-8.15214e-14
-9.08824e-14
-7.56415e-14
-9.3288e-14
-6.47935e-14
-9.65118e-14
-6.63967e-14
-6.09818e-14
-6.11073e-14
-6.32109e-14
-5.64839e-14
-5.35683e-14
-5.34631e-14
-5.68244e-14
-6.0124e-14
-6.42814e-14
-6.73701e-14
-6.95586e-14
-7.0194e-14
-7.00095e-14
-6.89341e-14
-6.78659e-14
-6.68059e-14
-6.62667e-14
-6.60249e-14
-6.6225e-14
-6.65151e-14
-6.68985e-14
-6.71337e-14
-6.7289e-14
-6.73126e-14
-6.73463e-14
-6.74407e-14
-6.77109e-14
-6.81808e-14
-6.88666e-14
-6.97218e-14
-7.06793e-14
-7.16598e-14
-7.25711e-14
-7.33688e-14
-7.39795e-14
-7.44342e-14
-7.46661e-14
-7.47822e-14
-7.4671e-14
-7.45117e-14
-7.40998e-14
-7.37106e-14
-7.30649e-14
-7.25741e-14
-7.20096e-14
-7.18124e-14
-7.20642e-14
-7.2681e-14
-7.46639e-14
-7.59719e-14
-8.0159e-14
-8.03081e-14
-8.66297e-14
-8.16437e-14
-9.11135e-14
-7.59363e-14
-9.35093e-14
-6.49007e-14
-9.64593e-14
-6.64593e-14
-6.18592e-14
-6.20806e-14
-6.37742e-14
-5.67007e-14
-5.32722e-14
-5.29099e-14
-5.61222e-14
-5.94713e-14
-6.38256e-14
-6.7123e-14
-6.95306e-14
-7.03563e-14
-7.0276e-14
-6.92325e-14
-6.81424e-14
-6.70281e-14
-6.64273e-14
-6.61347e-14
-6.63034e-14
-6.6582e-14
-6.69668e-14
-6.72075e-14
-6.73626e-14
-6.73768e-14
-6.73897e-14
-6.74549e-14
-6.76939e-14
-6.81375e-14
-6.88069e-14
-6.96599e-14
-7.06296e-14
-7.1635e-14
-7.25798e-14
-7.3414e-14
-7.40599e-14
-7.45434e-14
-7.47965e-14
-7.49254e-14
-7.48193e-14
-7.46593e-14
-7.42402e-14
-7.3838e-14
-7.31674e-14
-7.26401e-14
-7.20164e-14
-7.17474e-14
-7.19068e-14
-7.24411e-14
-7.43473e-14
-7.56356e-14
-7.98433e-14
-8.00981e-14
-8.65571e-14
-8.17551e-14
-9.13504e-14
-7.62525e-14
-9.37512e-14
-6.50323e-14
-9.64239e-14
-6.65133e-14
-6.28508e-14
-6.3072e-14
-6.44667e-14
-5.69605e-14
-5.30253e-14
-5.2366e-14
-5.54084e-14
-5.87939e-14
-6.33082e-14
-6.68259e-14
-6.94736e-14
-7.04892e-14
-7.05245e-14
-6.95261e-14
-6.84218e-14
-6.7255e-14
-6.65936e-14
-6.62498e-14
-6.63868e-14
-6.66534e-14
-6.70402e-14
-6.72866e-14
-6.74427e-14
-6.74469e-14
-6.74374e-14
-6.74716e-14
-6.76767e-14
-6.80904e-14
-6.87404e-14
-6.95886e-14
-7.0569e-14
-7.15986e-14
-7.25772e-14
-7.34494e-14
-7.41323e-14
-7.46473e-14
-7.49247e-14
-7.50697e-14
-7.49727e-14
-7.48168e-14
-7.43955e-14
-7.39853e-14
-7.32933e-14
-7.27312e-14
-7.20469e-14
-7.17016e-14
-7.17591e-14
-7.21981e-14
-7.40138e-14
-7.52699e-14
-7.94874e-14
-7.9849e-14
-8.64486e-14
-8.18477e-14
-9.15796e-14
-7.65855e-14
-9.40221e-14
-6.51896e-14
-9.64097e-14
-6.6559e-14
-6.37447e-14
-6.40893e-14
-6.52195e-14
-5.7356e-14
-5.28587e-14
-5.18687e-14
-5.46966e-14
-5.80945e-14
-6.27176e-14
-6.64774e-14
-6.93655e-14
-7.05839e-14
-7.07465e-14
-6.98069e-14
-6.86985e-14
-6.74859e-14
-6.67659e-14
-6.63707e-14
-6.64753e-14
-6.67292e-14
-6.71181e-14
-6.73702e-14
-6.75283e-14
-6.75219e-14
-6.74892e-14
-6.74901e-14
-6.76581e-14
-6.8039e-14
-6.86669e-14
-6.95076e-14
-7.04972e-14
-7.15506e-14
-7.25637e-14
-7.34751e-14
-7.4197e-14
-7.4746e-14
-7.50502e-14
-7.52144e-14
-7.51303e-14
-7.49825e-14
-7.45636e-14
-7.41505e-14
-7.3442e-14
-7.28479e-14
-7.21034e-14
-7.16776e-14
-7.16248e-14
-7.19585e-14
-7.36663e-14
-7.48776e-14
-7.90922e-14
-7.95584e-14
-8.63009e-14
-8.19171e-14
-9.1801e-14
-7.69373e-14
-9.4314e-14
-6.53732e-14
-9.64193e-14
-6.65945e-14
-6.45534e-14
-6.5141e-14
-6.61076e-14
-5.78339e-14
-5.27424e-14
-5.1384e-14
-5.39806e-14
-5.73596e-14
-6.20843e-14
-6.60712e-14
-6.91983e-14
-7.06382e-14
-7.09455e-14
-7.00759e-14
-6.89718e-14
-6.77198e-14
-6.69443e-14
-6.64984e-14
-6.65697e-14
-6.68101e-14
-6.72008e-14
-6.74593e-14
-6.76191e-14
-6.76024e-14
-6.75459e-14
-6.75117e-14
-6.76404e-14
-6.79851e-14
-6.85874e-14
-6.94179e-14
-7.04146e-14
-7.14907e-14
-7.25381e-14
-7.34896e-14
-7.42519e-14
-7.48372e-14
-7.51712e-14
-7.53584e-14
-7.52916e-14
-7.5157e-14
-7.47464e-14
-7.43356e-14
-7.36153e-14
-7.29926e-14
-7.21873e-14
-7.16778e-14
-7.15056e-14
-7.17221e-14
-7.3306e-14
-7.44591e-14
-7.86575e-14
-7.92254e-14
-8.61108e-14
-8.19617e-14
-9.2014e-14
-7.7302e-14
-9.46274e-14
-6.55864e-14
-9.6454e-14
-6.66194e-14
-6.53987e-14
-6.61913e-14
-6.70786e-14
-5.84175e-14
-5.27364e-14
-5.09314e-14
-5.32765e-14
-5.65737e-14
-6.14102e-14
-6.56104e-14
-6.89878e-14
-7.06416e-14
-7.11119e-14
-7.03303e-14
-6.92446e-14
-6.79565e-14
-6.71298e-14
-6.6633e-14
-6.66698e-14
-6.6896e-14
-6.72881e-14
-6.75535e-14
-6.77153e-14
-6.76892e-14
-6.76081e-14
-6.75379e-14
-6.76247e-14
-6.79301e-14
-6.85034e-14
-6.93205e-14
-7.03216e-14
-7.14185e-14
-7.24993e-14
-7.34913e-14
-7.42955e-14
-7.49192e-14
-7.52863e-14
-7.55005e-14
-7.5456e-14
-7.534e-14
-7.49436e-14
-7.45412e-14
-7.38134e-14
-7.31651e-14
-7.2299e-14
-7.17023e-14
-7.14017e-14
-7.14894e-14
-7.29351e-14
-7.40172e-14
-7.81847e-14
-7.88528e-14
-8.58768e-14
-8.19785e-14
-9.22098e-14
-7.76792e-14
-9.49623e-14
-6.58276e-14
-9.65154e-14
-6.66343e-14
-6.62502e-14
-6.72516e-14
-6.8167e-14
-5.91331e-14
-5.28e-14
-5.05728e-14
-5.25904e-14
-5.57949e-14
-6.06965e-14
-6.50932e-14
-6.8715e-14
-7.06093e-14
-7.12477e-14
-7.05648e-14
-6.95076e-14
-6.81955e-14
-6.73202e-14
-6.67723e-14
-6.67757e-14
-6.69869e-14
-6.73805e-14
-6.76527e-14
-6.78177e-14
-6.77823e-14
-6.7677e-14
-6.75691e-14
-6.7612e-14
-6.78747e-14
-6.84152e-14
-6.92153e-14
-7.02181e-14
-7.13337e-14
-7.24472e-14
-7.34795e-14
-7.4327e-14
-7.49916e-14
-7.53948e-14
-7.56399e-14
-7.56221e-14
-7.55299e-14
-7.51534e-14
-7.47648e-14
-7.40349e-14
-7.33646e-14
-7.24389e-14
-7.17526e-14
-7.13167e-14
-7.12662e-14
-7.25581e-14
-7.35555e-14
-7.76764e-14
-7.84368e-14
-8.55971e-14
-8.19629e-14
-9.23848e-14
-7.80612e-14
-9.53164e-14
-6.60955e-14
-9.66058e-14
-6.66398e-14
-6.7008e-14
-6.82991e-14
-6.93486e-14
-5.99535e-14
-5.29665e-14
-5.03009e-14
-5.19331e-14
-5.50265e-14
-5.99375e-14
-6.45245e-14
-6.83932e-14
-7.05151e-14
-7.13443e-14
-7.07773e-14
-6.97596e-14
-6.84329e-14
-6.75141e-14
-6.69182e-14
-6.68869e-14
-6.70823e-14
-6.74764e-14
-6.77568e-14
-6.79257e-14
-6.78817e-14
-6.77525e-14
-6.7606e-14
-6.76024e-14
-6.78197e-14
-6.83238e-14
-6.91031e-14
-7.01043e-14
-7.12365e-14
-7.23816e-14
-7.34543e-14
-7.4346e-14
-7.50533e-14
-7.54956e-14
-7.57752e-14
-7.57886e-14
-7.57251e-14
-7.53738e-14
-7.50047e-14
-7.42785e-14
-7.35906e-14
-7.26073e-14
-7.18314e-14
-7.12554e-14
-7.10571e-14
-7.21809e-14
-7.3078e-14
-7.71355e-14
-7.79799e-14
-8.52703e-14
-8.19105e-14
-9.25356e-14
-7.84467e-14
-9.56867e-14
-6.63942e-14
-9.67271e-14
-6.66353e-14
-6.76549e-14
-6.93145e-14
-7.06491e-14
-6.08787e-14
-5.32062e-14
-5.0061e-14
-5.13172e-14
-5.42118e-14
-5.9137e-14
-6.39015e-14
-6.80029e-14
-7.03703e-14
-7.1403e-14
-7.09639e-14
-6.99985e-14
-6.86677e-14
-6.77099e-14
-6.70682e-14
-6.70032e-14
-6.71822e-14
-6.75767e-14
-6.7865e-14
-6.80393e-14
-6.79876e-14
-6.78345e-14
-6.76488e-14
-6.75974e-14
-6.7766e-14
-6.82301e-14
-6.89849e-14
-6.99808e-14
-7.1127e-14
-7.23018e-14
-7.34148e-14
-7.43516e-14
-7.51034e-14
-7.55877e-14
-7.5905e-14
-7.59537e-14
-7.59238e-14
-7.56034e-14
-7.52596e-14
-7.45425e-14
-7.38425e-14
-7.2805e-14
-7.19401e-14
-7.12196e-14
-7.0866e-14
-7.18074e-14
-7.25901e-14
-7.65649e-14
-7.74837e-14
-8.48948e-14
-8.18169e-14
-9.26524e-14
-7.88275e-14
-9.60689e-14
-6.67226e-14
-9.68812e-14
-6.66205e-14
-6.82212e-14
-7.03114e-14
-7.19922e-14
-6.19049e-14
-5.3579e-14
-4.99656e-14
-5.07515e-14
-5.34212e-14
-5.83239e-14
-6.32276e-14
-6.75502e-14
-7.01792e-14
-7.1416e-14
-7.11195e-14
-7.02182e-14
-6.88974e-14
-6.79071e-14
-6.72226e-14
-6.71232e-14
-6.72858e-14
-6.76811e-14
-6.79774e-14
-6.81575e-14
-6.81002e-14
-6.79239e-14
-6.76988e-14
-6.75978e-14
-6.77149e-14
-6.81353e-14
-6.88617e-14
-6.98484e-14
-7.10053e-14
-7.22079e-14
-7.33602e-14
-7.43426e-14
-7.51406e-14
-7.56693e-14
-7.60278e-14
-7.61158e-14
-7.61241e-14
-7.58398e-14
-7.55273e-14
-7.48256e-14
-7.41193e-14
-7.30317e-14
-7.208e-14
-7.12126e-14
-7.06967e-14
-7.14433e-14
-7.20963e-14
-7.59681e-14
-7.69487e-14
-8.44665e-14
-8.16787e-14
-9.27317e-14
-7.9199e-14
-9.6462e-14
-6.70785e-14
-9.70697e-14
-6.65957e-14
-6.87137e-14
-7.12758e-14
-7.34442e-14
-6.30608e-14
-5.40723e-14
-4.98741e-14
-5.02368e-14
-5.26616e-14
-5.74894e-14
-6.251e-14
-6.70398e-14
-6.9911e-14
-7.13788e-14
-7.12417e-14
-7.04225e-14
-6.91168e-14
-6.81031e-14
-6.73797e-14
-6.72471e-14
-6.7393e-14
-6.77882e-14
-6.80937e-14
-6.82812e-14
-6.82188e-14
-6.80213e-14
-6.77569e-14
-6.76048e-14
-6.76677e-14
-6.80407e-14
-6.87341e-14
-6.97077e-14
-7.08717e-14
-7.20997e-14
-7.32901e-14
-7.43182e-14
-7.51639e-14
-7.57394e-14
-7.61421e-14
-7.62733e-14
-7.63242e-14
-7.6081e-14
-7.58059e-14
-7.51263e-14
-7.44199e-14
-7.32883e-14
-7.22523e-14
-7.12364e-14
-7.05538e-14
-7.1091e-14
-7.16019e-14
-7.53498e-14
-7.63789e-14
-8.39861e-14
-8.14922e-14
-9.27682e-14
-7.95565e-14
-9.68601e-14
-6.74601e-14
-9.72939e-14
-6.65612e-14
-6.91104e-14
-7.21724e-14
-7.4989e-14
-6.43223e-14
-5.46412e-14
-4.99879e-14
-4.98004e-14
-5.19257e-14
-5.66295e-14
-6.17509e-14
-6.64711e-14
-6.95942e-14
-7.12887e-14
-7.13267e-14
-7.06008e-14
-6.93258e-14
-6.82966e-14
-6.75375e-14
-6.73736e-14
-6.75026e-14
-6.78976e-14
-6.82127e-14
-6.84091e-14
-6.83442e-14
-6.81263e-14
-6.78234e-14
-6.76196e-14
-6.76259e-14
-6.79478e-14
-6.86038e-14
-6.95597e-14
-7.07268e-14
-7.19775e-14
-7.32045e-14
-7.42781e-14
-7.51723e-14
-7.57966e-14
-7.62462e-14
-7.64241e-14
-7.65215e-14
-7.63247e-14
-7.60922e-14
-7.54415e-14
-7.47426e-14
-7.35731e-14
-7.24589e-14
-7.12955e-14
-7.04424e-14
-7.07608e-14
-7.1113e-14
-7.4715e-14
-7.57744e-14
-8.34544e-14
-8.12538e-14
-9.27559e-14
-7.98926e-14
-9.72588e-14
-6.78698e-14
-9.75549e-14
-6.65169e-14
-6.93976e-14
-7.29883e-14
-7.66146e-14
-6.56353e-14
-5.53499e-14
-5.02029e-14
-4.94496e-14
-5.1225e-14
-5.57686e-14
-6.09563e-14
-6.58484e-14
-6.92153e-14
-7.11472e-14
-7.13685e-14
-7.07514e-14
-6.95204e-14
-6.84837e-14
-6.76954e-14
-6.75017e-14
-6.76139e-14
-6.80091e-14
-6.83343e-14
-6.8541e-14
-6.84756e-14
-6.82396e-14
-6.78991e-14
-6.76432e-14
-6.75906e-14
-6.78578e-14
-6.84719e-14
-6.94054e-14
-7.05714e-14
-7.18415e-14
-7.31032e-14
-7.42216e-14
-7.51648e-14
-7.58397e-14
-7.63385e-14
-7.65662e-14
-7.67138e-14
-7.65682e-14
-7.63842e-14
-7.57691e-14
-7.50852e-14
-7.3886e-14
-7.2699e-14
-7.13912e-14
-7.03664e-14
-7.04564e-14
-7.06353e-14
-7.40694e-14
-7.51411e-14
-8.28702e-14
-8.09602e-14
-9.26882e-14
-8.02001e-14
-9.76526e-14
-6.83004e-14
-9.78535e-14
-6.64632e-14
-6.95744e-14
-7.37141e-14
-7.82428e-14
-6.70686e-14
-5.61933e-14
-5.05048e-14
-4.9191e-14
-5.05715e-14
-5.49166e-14
-6.01279e-14
-6.51714e-14
-6.87834e-14
-7.09457e-14
-7.13666e-14
-7.0872e-14
-6.96963e-14
-6.86633e-14
-6.78506e-14
-6.76298e-14
-6.77259e-14
-6.81211e-14
-6.84575e-14
-6.86763e-14
-6.86131e-14
-6.83613e-14
-6.79849e-14
-6.76763e-14
-6.75636e-14
-6.77725e-14
-6.834e-14
-6.92462e-14
-7.04065e-14
-7.16918e-14
-7.29857e-14
-7.41483e-14
-7.51405e-14
-7.58673e-14
-7.64173e-14
-7.66975e-14
-7.68985e-14
-7.68083e-14
-7.66783e-14
-7.61058e-14
-7.54452e-14
-7.4225e-14
-7.29739e-14
-7.15272e-14
-7.03309e-14
-7.01839e-14
-7.01774e-14
-7.34195e-14
-7.44807e-14
-8.22362e-14
-8.06089e-14
-9.25585e-14
-8.04723e-14
-9.80363e-14
-6.87516e-14
-9.81904e-14
-6.64003e-14
-6.96511e-14
-7.43358e-14
-7.9939e-14
-6.8569e-14
-5.71457e-14
-5.09679e-14
-4.90393e-14
-4.99779e-14
-5.40808e-14
-5.92848e-14
-6.44537e-14
-6.82947e-14
-7.06897e-14
-7.13147e-14
-7.09571e-14
-6.98523e-14
-6.88323e-14
-6.80015e-14
-6.77558e-14
-6.7837e-14
-6.82327e-14
-6.85816e-14
-6.88145e-14
-6.8756e-14
-6.84912e-14
-6.80811e-14
-6.77207e-14
-6.7546e-14
-6.76936e-14
-6.82101e-14
-6.90833e-14
-7.02327e-14
-7.15294e-14
-7.28525e-14
-7.40575e-14
-7.50989e-14
-7.58783e-14
-7.64811e-14
-7.68159e-14
-7.7073e-14
-7.70419e-14
-7.6971e-14
-7.64485e-14
-7.58198e-14
-7.45889e-14
-7.3284e-14
-7.17052e-14
-7.03402e-14
-6.99506e-14
-6.97461e-14
-7.27719e-14
-7.38009e-14
-8.15524e-14
-8.01981e-14
-9.23632e-14
-8.07017e-14
-9.84017e-14
-6.92161e-14
-9.85653e-14
-6.63285e-14
-6.96262e-14
-7.4833e-14
-8.16366e-14
-7.01572e-14
-5.82235e-14
-5.15726e-14
-4.89945e-14
-4.94885e-14
-5.32888e-14
-5.84317e-14
-6.36872e-14
-6.77403e-14
-7.0369e-14
-7.12128e-14
-7.10069e-14
-6.99824e-14
-6.8986e-14
-6.81454e-14
-6.78784e-14
-6.79456e-14
-6.83429e-14
-6.87049e-14
-6.89544e-14
-6.89039e-14
-6.86296e-14
-6.81882e-14
-6.77771e-14
-6.75396e-14
-6.76227e-14
-6.80835e-14
-6.89185e-14
-7.00516e-14
-7.1355e-14
-7.27037e-14
-7.39494e-14
-7.5039e-14
-7.58716e-14
-7.65284e-14
-7.69194e-14
-7.72348e-14
-7.72661e-14
-7.72587e-14
-7.67927e-14
-7.62055e-14
-7.49749e-14
-7.36277e-14
-7.19262e-14
-7.03983e-14
-6.97623e-14
-6.93488e-14
-7.21343e-14
-7.31072e-14
-8.08215e-14
-7.97267e-14
-9.20944e-14
-8.08834e-14
-9.87422e-14
-6.96941e-14
-9.8978e-14
-6.62481e-14
-6.94983e-14
-7.51877e-14
-8.33272e-14
-7.17913e-14
-5.94022e-14
-5.22659e-14
-4.90768e-14
-4.90932e-14
-5.25322e-14
-5.75738e-14
-6.28852e-14
-6.71289e-14
-6.99912e-14
-7.1057e-14
-7.10128e-14
-7.00845e-14
-6.91235e-14
-6.828e-14
-6.79951e-14
-6.80503e-14
-6.84493e-14
-6.88262e-14
-6.90947e-14
-6.90557e-14
-6.87759e-14
-6.83068e-14
-6.78467e-14
-6.75456e-14
-6.75618e-14
-6.79622e-14
-6.87537e-14
-6.98647e-14
-7.11696e-14
-7.254e-14
-7.38239e-14
-7.49607e-14
-7.58464e-14
-7.65576e-14
-7.7006e-14
-7.73811e-14
-7.74772e-14
-7.75375e-14
-7.71352e-14
-7.65984e-14
-7.53804e-14
-7.4004e-14
-7.21921e-14
-7.05088e-14
-6.96243e-14
-6.89933e-14
-7.15151e-14
-7.24062e-14
-8.00481e-14
-7.91946e-14
-9.17495e-14
-8.10056e-14
-9.90508e-14
-7.01785e-14
-9.94272e-14
-6.61597e-14
-6.9276e-14
-7.53768e-14
-8.50085e-14
-7.34594e-14
-6.07338e-14
-5.31314e-14
-4.9294e-14
-4.87862e-14
-5.18246e-14
-5.67301e-14
-6.20523e-14
-6.64764e-14
-6.9552e-14
-7.08466e-14
-7.09743e-14
-7.01559e-14
-6.92402e-14
-6.84023e-14
-6.81041e-14
-6.81488e-14
-6.85507e-14
-6.89438e-14
-6.92341e-14
-6.92108e-14
-6.89299e-14
-6.84366e-14
-6.793e-14
-6.75659e-14
-6.75126e-14
-6.78485e-14
-6.85907e-14
-6.96734e-14
-7.09743e-14
-7.23623e-14
-7.36812e-14
-7.48638e-14
-7.58017e-14
-7.65674e-14
-7.70737e-14
-7.75094e-14
-7.76725e-14
-7.78038e-14
-7.74714e-14
-7.69944e-14
-7.58022e-14
-7.44107e-14
-7.25025e-14
-7.06744e-14
-6.95436e-14
-6.8687e-14
-7.09229e-14
-7.17052e-14
-7.92365e-14
-7.86027e-14
-9.13251e-14
-8.10633e-14
-9.93201e-14
-7.06621e-14
-9.99113e-14
-6.60635e-14
-6.89636e-14
-7.53929e-14
-8.66306e-14
-7.51532e-14
-6.21368e-14
-5.41239e-14
-4.96439e-14
-4.85707e-14
-5.11932e-14
-5.59069e-14
-6.12081e-14
-6.57726e-14
-6.90616e-14
-7.05807e-14
-7.08873e-14
-7.01921e-14
-6.93336e-14
-6.85089e-14
-6.8203e-14
-6.82393e-14
-6.86454e-14
-6.90562e-14
-6.93714e-14
-6.93677e-14
-6.90907e-14
-6.85778e-14
-6.80277e-14
-6.76012e-14
-6.74768e-14
-6.77441e-14
-6.84313e-14
-6.94797e-14
-7.07708e-14
-7.21713e-14
-7.35218e-14
-7.47478e-14
-7.57373e-14
-7.65568e-14
-7.7121e-14
-7.76173e-14
-7.78484e-14
-7.80535e-14
-7.77968e-14
-7.73891e-14
-7.62357e-14
-7.48465e-14
-7.28575e-14
-7.08973e-14
-6.95258e-14
-6.8438e-14
-7.03664e-14
-7.10132e-14
-7.8392e-14
-7.79529e-14
-9.08143e-14
-8.10504e-14
-9.954e-14
-7.1137e-14
-1.00428e-13
-6.59597e-14
-6.85666e-14
-7.52187e-14
-8.81969e-14
-7.68401e-14
-6.35943e-14
-5.52596e-14
-5.01324e-14
-4.85114e-14
-5.06344e-14
-5.5117e-14
-6.03528e-14
-6.50349e-14
-6.85185e-14
-7.02602e-14
-7.07522e-14
-7.019e-14
-6.94e-14
-6.85975e-14
-6.82884e-14
-6.83195e-14
-6.87312e-14
-6.91617e-14
-6.95044e-14
-6.95252e-14
-6.92574e-14
-6.87303e-14
-6.81406e-14
-6.76533e-14
-6.74565e-14
-6.76515e-14
-6.82781e-14
-6.92857e-14
-7.05605e-14
-7.19681e-14
-7.33464e-14
-7.46131e-14
-7.56527e-14
-7.65248e-14
-7.71461e-14
-7.77024e-14
-7.80017e-14
-7.82824e-14
-7.81067e-14
-7.77772e-14
-7.66769e-14
-7.5306e-14
-7.32558e-14
-7.11797e-14
-6.95743e-14
-6.82537e-14
-6.98549e-14
-7.034e-14
-7.75243e-14
-7.72486e-14
-9.0217e-14
-8.09604e-14
-9.97013e-14
-7.15961e-14
-1.00975e-13
-6.58486e-14
-6.80854e-14
-7.48375e-14
-8.96661e-14
-7.85045e-14
-6.51387e-14
-5.65242e-14
-5.07656e-14
-4.85645e-14
-5.01754e-14
-5.438e-14
-5.94946e-14
-6.4273e-14
-6.79198e-14
-6.98849e-14
-7.05683e-14
-7.01474e-14
-6.94364e-14
-6.86649e-14
-6.83584e-14
-6.83871e-14
-6.88057e-14
-6.9258e-14
-6.96316e-14
-6.96815e-14
-6.94289e-14
-6.88935e-14
-6.82689e-14
-6.77229e-14
-6.74533e-14
-6.75726e-14
-6.81332e-14
-6.90935e-14
-7.03454e-14
-7.17544e-14
-7.3156e-14
-7.44603e-14
-7.55476e-14
-7.64709e-14
-7.71479e-14
-7.77625e-14
-7.81296e-14
-7.84868e-14
-7.83963e-14
-7.81537e-14
-7.712e-14
-7.57862e-14
-7.3695e-14
-7.15221e-14
-6.96934e-14
-6.81408e-14
-6.9398e-14
-6.96942e-14
-7.6639e-14
-7.64949e-14
-8.95337e-14
-8.07884e-14
-9.97963e-14
-7.20294e-14
-1.01548e-13
-6.57305e-14
-6.75283e-14
-7.42456e-14
-9.10179e-14
-8.01197e-14
-6.67465e-14
-5.78812e-14
-5.15404e-14
-4.87607e-14
-4.98183e-14
-5.36992e-14
-5.86546e-14
-6.34873e-14
-6.72804e-14
-6.94576e-14
-7.03323e-14
-7.00636e-14
-6.94396e-14
-6.87086e-14
-6.84099e-14
-6.84393e-14
-6.88666e-14
-6.93423e-14
-6.97506e-14
-6.98345e-14
-6.96038e-14
-6.90668e-14
-6.84124e-14
-6.7811e-14
-6.74687e-14
-6.75097e-14
-6.79991e-14
-6.89055e-14
-7.01277e-14
-7.15318e-14
-7.29516e-14
-7.42898e-14
-7.54223e-14
-7.63945e-14
-7.71252e-14
-7.77962e-14
-7.82294e-14
-7.8663e-14
-7.86613e-14
-7.8513e-14
-7.75599e-14
-7.62822e-14
-7.41717e-14
-7.19228e-14
-6.98864e-14
-6.81062e-14
-6.90047e-14
-6.9088e-14
-7.57461e-14
-7.56978e-14
-8.87635e-14
-8.05271e-14
-9.98141e-14
-7.24281e-14
-1.02143e-13
-6.56052e-14
-6.69025e-14
-7.34184e-14
-9.22209e-14
-8.16643e-14
-6.84028e-14
-5.93508e-14
-5.24581e-14
-4.90923e-14
-4.95754e-14
-5.30928e-14
-5.78454e-14
-6.26893e-14
-6.6605e-14
-6.89814e-14
-7.00459e-14
-6.9936e-14
-6.94084e-14
-6.87258e-14
-6.84403e-14
-6.84737e-14
-6.89114e-14
-6.94127e-14
-6.98587e-14
-6.99825e-14
-6.97802e-14
-6.92487e-14
-6.85711e-14
-6.79182e-14
-6.75042e-14
-6.74646e-14
-6.7878e-14
-6.87241e-14
-6.99095e-14
-7.13021e-14
-7.27346e-14
-7.41026e-14
-7.52771e-14
-7.62957e-14
-7.70774e-14
-7.78019e-14
-7.82988e-14
-7.88073e-14
-7.88966e-14
-7.88496e-14
-7.79909e-14
-7.67878e-14
-7.46825e-14
-7.2381e-14
-7.01548e-14
-6.81553e-14
-6.8684e-14
-6.85313e-14
-7.48565e-14
-7.48653e-14
-8.79091e-14
-8.01763e-14
-9.97495e-14
-7.27808e-14
-1.02755e-13
-6.54724e-14
-6.62127e-14
-7.23566e-14
-9.32607e-14
-8.30965e-14
-7.00352e-14
-6.09017e-14
-5.35051e-14
-4.95799e-14
-4.94577e-14
-5.2575e-14
-5.70778e-14
-6.18919e-14
-6.58988e-14
-6.84603e-14
-6.97112e-14
-6.97627e-14
-6.93401e-14
-6.87137e-14
-6.8447e-14
-6.84879e-14
-6.89379e-14
-6.94666e-14
-6.99537e-14
-7.01229e-14
-6.99561e-14
-6.94379e-14
-6.87441e-14
-6.8045e-14
-6.75611e-14
-6.74395e-14
-6.77726e-14
-6.85518e-14
-6.96934e-14
-7.10676e-14
-7.25067e-14
-7.39e-14
-7.5113e-14
-7.61746e-14
-7.70043e-14
-7.77784e-14
-7.83358e-14
-7.89167e-14
-7.90981e-14
-7.91578e-14
-7.84061e-14
-7.72968e-14
-7.52214e-14
-7.2894e-14
-7.04993e-14
-6.8292e-14
-6.84445e-14
-6.80348e-14
-7.39818e-14
-7.40069e-14
-8.69743e-14
-7.97336e-14
-9.9592e-14
-7.30777e-14
-1.03378e-13
-6.53319e-14
-6.54665e-14
-7.10551e-14
-9.40965e-14
-8.44033e-14
-7.16611e-14
-6.25146e-14
-5.46723e-14
-5.02033e-14
-4.94663e-14
-5.21518e-14
-5.63585e-14
-6.11072e-14
-6.51729e-14
-6.79016e-14
-6.93315e-14
-6.95467e-14
-6.92339e-14
-6.86701e-14
-6.84279e-14
-6.84795e-14
-6.89435e-14
-6.95018e-14
-7.00332e-14
-7.02528e-14
-7.0129e-14
-6.96326e-14
-6.89307e-14
-6.81911e-14
-6.76403e-14
-6.74361e-14
-6.76849e-14
-6.83912e-14
-6.94817e-14
-7.08305e-14
-7.227e-14
-7.36832e-14
-7.49308e-14
-7.6032e-14
-7.69059e-14
-7.77254e-14
-7.83388e-14
-7.89887e-14
-7.92617e-14
-7.94321e-14
-7.87989e-14
-7.78025e-14
-7.57822e-14
-7.3457e-14
-7.09189e-14
-6.85206e-14
-6.8294e-14
-6.76106e-14
-7.31347e-14
-7.31337e-14
-8.59659e-14
-7.91986e-14
-9.93339e-14
-7.33077e-14
-1.04006e-13
-6.51827e-14
-6.4668e-14
-6.95188e-14
-9.47348e-14
-8.55557e-14
-7.32476e-14
-6.41558e-14
-5.59504e-14
-5.09727e-14
-4.96019e-14
-5.18349e-14
-5.57053e-14
-6.03468e-14
-6.44372e-14
-6.73107e-14
-6.89073e-14
-6.92875e-14
-6.9089e-14
-6.85944e-14
-6.8381e-14
-6.84462e-14
-6.89258e-14
-6.95153e-14
-7.00941e-14
-7.03696e-14
-7.02963e-14
-6.98309e-14
-6.91293e-14
-6.83562e-14
-6.77425e-14
-6.74561e-14
-6.76176e-14
-6.82452e-14
-6.92773e-14
-7.05931e-14
-7.20266e-14
-7.34542e-14
-7.47319e-14
-7.58686e-14
-7.67827e-14
-7.76429e-14
-7.83072e-14
-7.90211e-14
-7.93835e-14
-7.96672e-14
-7.91628e-14
-7.82961e-14
-7.63577e-14
-7.40641e-14
-7.14115e-14
-6.88429e-14
-6.82395e-14
-6.727e-14
-7.23278e-14
-7.2258e-14
-8.48887e-14
-7.85735e-14
-9.89691e-14
-7.34596e-14
-1.04633e-13
-6.50237e-14
-6.38236e-14
-6.7745e-14
-9.51264e-14
-8.65383e-14
-7.47548e-14
-6.58609e-14
-5.73257e-14
-5.18743e-14
-4.98971e-14
-5.16362e-14
-5.51325e-14
-5.96246e-14
-6.37002e-14
-6.66949e-14
-6.84466e-14
-6.8987e-14
-6.89047e-14
-6.8485e-14
-6.83046e-14
-6.83862e-14
-6.88824e-14
-6.95044e-14
-7.01334e-14
-7.047e-14
-7.04552e-14
-7.00297e-14
-6.93382e-14
-6.85395e-14
-6.78679e-14
-6.75006e-14
-6.75725e-14
-6.81163e-14
-6.90829e-14
-7.03581e-14
-7.17787e-14
-7.32148e-14
-7.4518e-14
-7.56859e-14
-7.66358e-14
-7.75311e-14
-7.82406e-14
-7.90124e-14
-7.94607e-14
-7.9858e-14
-7.94909e-14
-7.87702e-14
-7.69394e-14
-7.47087e-14
-7.19729e-14
-6.92592e-14
-6.82867e-14
-6.70226e-14
-7.15748e-14
-7.13939e-14
-8.37553e-14
-7.78627e-14
-9.84913e-14
-7.35232e-14
-1.05251e-13
-6.48534e-14
-6.29458e-14
-6.57531e-14
-9.52794e-14
-8.73051e-14
-7.61666e-14
-6.75289e-14
-5.87744e-14
-5.28926e-14
-5.03237e-14
-5.15592e-14
-5.46546e-14
-5.89527e-14
-6.29757e-14
-6.60648e-14
-6.79534e-14
-6.86492e-14
-6.86827e-14
-6.83419e-14
-6.81975e-14
-6.82977e-14
-6.88116e-14
-6.9467e-14
-7.01481e-14
-7.0551e-14
-7.06021e-14
-7.02264e-14
-6.95551e-14
-6.87398e-14
-6.80165e-14
-6.75708e-14
-6.75517e-14
-6.80069e-14
-6.89013e-14
-7.01285e-14
-7.15287e-14
-7.29674e-14
-7.42908e-14
-7.54855e-14
-7.64664e-14
-7.73912e-14
-7.81391e-14
-7.89618e-14
-7.94909e-14
-8.00003e-14
-7.97762e-14
-7.9217e-14
-7.75183e-14
-7.53821e-14
-7.25974e-14
-6.97679e-14
-6.84396e-14
-6.6878e-14
-7.0889e-14
-7.05567e-14
-8.25771e-14
-7.70717e-14
-9.78989e-14
-7.34876e-14
-1.05853e-13
-6.46698e-14
-6.20409e-14
-6.35522e-14
-9.51742e-14
-8.78633e-14
-7.74368e-14
-6.91771e-14
-6.02781e-14
-5.40127e-14
-5.08918e-14
-5.16115e-14
-5.42746e-14
-5.83444e-14
-6.22758e-14
-6.54286e-14
-6.74342e-14
-6.82771e-14
-6.8426e-14
-6.81648e-14
-6.80591e-14
-6.81797e-14
-6.87112e-14
-6.94006e-14
-7.0136e-14
-7.06095e-14
-7.07337e-14
-7.04176e-14
-6.9777e-14
-6.89552e-14
-6.81876e-14
-6.76671e-14
-6.75568e-14
-6.79194e-14
-6.87353e-14
-6.99068e-14
-7.12795e-14
-7.27143e-14
-7.40527e-14
-7.52694e-14
-7.62766e-14
-7.72247e-14