/*--------------------------------*- C++ -*----------------------------------*\
| =========                 |                                                 |
| \\      /  F ield         | foam-extend: Open Source CFD                    |
|  \\    /   O peration     | Version:     4.0                                |
|   \\  /    A nd           | Web:         http://www.foam-extend.org         |
|    \\/     M anipulation  |                                                 |
\*---------------------------------------------------------------------------*/
FoamFile
{
    version     2.0;
    format      ascii;
    class       volVectorField;
    location    "16";
    object      U;
}
// * * * * * * * * * * * * * * * * * * * * * * * * * * * * * * * * * * * * * //

dimensions      [0 1 -1 0 0 0 0];

internalField   nonuniform List<vector> 
6960
(
(-9.41728e-27 -1.9457e-25 0)
(-1.00114e-26 -1.47178e-26 0)
(-6.62698e-27 -1.52519e-26 0)
(-6.96971e-27 -1.58012e-26 0)
(-3.67808e-27 -1.6577e-26 0)
(-2.58928e-27 -1.43301e-26 0)
(-1.11684e-27 -8.92371e-27 0)
(5.57915e-28 -4.43969e-27 0)
(1.94127e-27 -3.49399e-27 0)
(2.86116e-27 -5.27246e-27 0)
(2.65602e-27 -7.4334e-27 0)
(1.54395e-27 -8.89735e-27 0)
(4.25251e-28 -1.03805e-26 0)
(4.99629e-28 -1.28605e-26 0)
(1.627e-27 -1.62447e-26 0)
(2.39742e-27 -1.90177e-26 0)
(2.35605e-27 -1.92036e-26 0)
(1.73406e-27 -1.57743e-26 0)
(4.88316e-28 -9.60773e-27 0)
(-7.64169e-28 -3.60183e-27 0)
(-1.17426e-27 -1.05708e-27 0)
(-9.59982e-28 -2.84698e-27 0)
(8.98919e-29 -6.88061e-27 0)
(1.99319e-27 -1.0453e-26 0)
(2.27671e-27 -1.18407e-26 0)
(6.32881e-29 -1.08276e-26 0)
(-1.2975e-27 -9.29082e-27 0)
(-8.75627e-28 -9.30663e-27 0)
(-1.18662e-27 -1.01639e-26 0)
(-1.74366e-27 -9.48586e-27 0)
(-1.20836e-27 -6.66382e-27 0)
(-1.15509e-27 -3.64888e-27 0)
(-1.54934e-27 -3.1898e-27 0)
(-8.55015e-28 -6.6104e-27 0)
(-4.98684e-28 -1.18399e-26 0)
(-1.2406e-27 -1.43676e-26 0)
(-1.00111e-27 -1.19751e-26 0)
(8.35955e-29 -6.76691e-27 0)
(2.39158e-28 -2.12351e-27 0)
(2.70667e-28 -5.09371e-28 0)
(1.02888e-27 -3.18289e-27 0)
(7.55274e-28 -9.00297e-27 0)
(-9.93943e-28 -1.46524e-26 0)
(-2.00056e-27 -1.74898e-26 0)
(-1.57263e-27 -1.69918e-26 0)
(-9.50935e-28 -1.36985e-26 0)
(-6.70624e-28 -8.68854e-27 0)
(-6.33217e-28 -3.78733e-27 0)
(-4.36955e-28 -9.85444e-28 0)
(4.3816e-28 -1.2351e-27 0)
(1.54743e-27 -4.01406e-27 0)
(1.66832e-27 -7.77505e-27 0)
(9.76556e-28 -1.06756e-26 0)
(4.77847e-28 -1.21179e-26 0)
(2.42531e-28 -1.27631e-26 0)
(-7.91204e-30 -1.32152e-26 0)
(-6.13116e-28 -1.28536e-26 0)
(3.20901e-31 -1.15199e-26 0)
(-6.46392e-28 -9.02261e-27 0)
(3.45157e-28 -3.34127e-27 0)
(-1.97894e-26 -4.15382e-25 0)
(-2.15764e-26 -3.53298e-26 0)
(-1.83546e-26 -3.46035e-26 0)
(-1.9103e-26 -3.38305e-26 0)
(-9.74968e-27 -3.39893e-26 0)
(-6.3794e-27 -2.82006e-26 0)
(-1.70458e-27 -1.68173e-26 0)
(3.36321e-27 -9.18532e-27 0)
(6.60293e-27 -1.0291e-26 0)
(8.01018e-27 -1.68993e-26 0)
(6.56916e-27 -2.27001e-26 0)
(3.3996e-27 -2.49885e-26 0)
(9.08184e-28 -2.58601e-26 0)
(1.50771e-27 -2.84287e-26 0)
(4.40867e-27 -3.34323e-26 0)
(6.22061e-27 -3.82702e-26 0)
(6.0871e-27 -3.91668e-26 0)
(4.57647e-27 -3.4055e-26 0)
(1.50855e-27 -2.42254e-26 0)
(-1.5405e-27 -1.45098e-26 0)
(-2.55101e-27 -1.04231e-26 0)
(-2.21848e-27 -1.30291e-26 0)
(2.99125e-28 -1.85311e-26 0)
(5.22154e-27 -2.30817e-26 0)
(5.7781e-27 -2.46717e-26 0)
(-2.87786e-28 -2.29759e-26 0)
(-3.81502e-27 -2.10766e-26 0)
(-2.53383e-27 -2.26768e-26 0)
(-3.44944e-27 -2.61708e-26 0)
(-5.28921e-27 -2.6599e-26 0)
(-4.25075e-27 -2.21634e-26 0)
(-4.11799e-27 -1.559e-26 0)
(-4.72062e-27 -1.16109e-26 0)
(-2.3203e-27 -1.39483e-26 0)
(-1.00176e-27 -2.09292e-26 0)
(-2.71716e-27 -2.55255e-26 0)
(-1.68825e-27 -2.36939e-26 0)
(1.43665e-27 -1.81933e-26 0)
(1.36291e-27 -1.30461e-26 0)
(5.64896e-28 -1.10575e-26 0)
(2.13761e-27 -1.47563e-26 0)
(1.49318e-27 -2.32544e-26 0)
(-2.92424e-27 -3.12338e-26 0)
(-5.22712e-27 -3.4418e-26 0)
(-3.58113e-27 -3.25511e-26 0)
(-1.76915e-27 -2.68575e-26 0)
(-1.38675e-27 -1.8882e-26 0)
(-1.59909e-27 -1.13131e-26 0)
(-1.10152e-27 -7.26595e-27 0)
(1.07436e-27 -8.19745e-27 0)
(3.76498e-27 -1.31428e-26 0)
(4.12553e-27 -1.93969e-26 0)
(2.55571e-27 -2.36648e-26 0)
(1.18648e-27 -2.52883e-26 0)
(3.6387e-28 -2.61625e-26 0)
(-1.19994e-28 -2.77769e-26 0)
(-1.14141e-27 -2.8363e-26 0)
(6.74286e-28 -2.68665e-26 0)
(-1.5614e-27 -2.21702e-26 0)
(1.06717e-27 -9.71866e-27 0)
(-2.74144e-26 -4.42489e-25 0)
(-3.03704e-26 -6.83652e-26 0)
(-2.84359e-26 -6.24249e-26 0)
(-2.93398e-26 -5.6076e-26 0)
(-1.43781e-26 -5.31027e-26 0)
(-8.6656e-27 -4.24332e-26 0)
(-8.21728e-28 -2.51433e-26 0)
(7.29829e-27 -1.64397e-26 0)
(1.14559e-26 -2.23637e-26 0)
(1.23528e-26 -3.55523e-26 0)
(9.23497e-27 -4.54123e-26 0)
(4.26018e-27 -4.84683e-26 0)
(1.0713e-27 -4.90174e-26 0)
(2.47618e-27 -5.21832e-26 0)
(6.8366e-27 -5.84976e-26 0)
(9.39258e-27 -6.36595e-26 0)
(9.16147e-27 -6.32217e-26 0)
(6.91804e-27 -5.62586e-26 0)
(2.39744e-27 -4.55166e-26 0)
(-1.97847e-27 -3.63664e-26 0)
(-3.35471e-27 -3.38178e-26 0)
(-2.92017e-27 -3.70475e-26 0)
(7.86635e-28 -4.07167e-26 0)
(8.11627e-27 -4.2486e-26 0)
(8.5653e-27 -4.26123e-26 0)
(-1.09076e-27 -4.06687e-26 0)
(-6.59862e-27 -3.99461e-26 0)
(-4.64699e-27 -4.55721e-26 0)
(-6.07619e-27 -5.45971e-26 0)
(-8.99805e-27 -5.85571e-26 0)
(-7.49657e-27 -5.36589e-26 0)
(-6.95547e-27 -4.20088e-26 0)
(-7.21353e-27 -2.9395e-26 0)
(-3.13774e-27 -2.38777e-26 0)
(-1.10201e-27 -2.78387e-26 0)
(-3.74272e-27 -3.4135e-26 0)
(-1.89464e-27 -3.7426e-26 0)
(3.19423e-27 -3.9313e-26 0)
(2.80148e-27 -4.00177e-26 0)
(8.75115e-28 -3.87698e-26 0)
(2.89841e-27 -3.9525e-26 0)
(2.00988e-27 -4.48783e-26 0)
(-4.53643e-27 -5.05032e-26 0)
(-7.77646e-27 -5.21162e-26 0)
(-4.81483e-27 -4.98884e-26 0)
(-1.86288e-27 -4.40804e-26 0)
(-1.59242e-27 -3.44614e-26 0)
(-2.16887e-27 -2.37999e-26 0)
(-1.43163e-27 -1.73605e-26 0)
(1.55286e-27 -1.87009e-26 0)
(5.15653e-27 -2.71212e-26 0)
(5.74104e-27 -3.77644e-26 0)
(3.84014e-27 -4.38826e-26 0)
(1.81583e-27 -4.39581e-26 0)
(2.50332e-28 -4.25059e-26 0)
(-4.40113e-28 -4.45667e-26 0)
(-1.39253e-27 -4.82941e-26 0)
(1.65624e-27 -5.03956e-26 0)
(-2.10279e-27 -4.56653e-26 0)
(1.74978e-27 -2.54755e-26 0)
(-3.34213e-26 -4.45695e-25 0)
(-3.74154e-26 -9.38057e-26 0)
(-3.68376e-26 -8.08953e-26 0)
(-3.77454e-26 -6.96655e-26 0)
(-1.76295e-26 -6.61949e-26 0)
(-9.55572e-27 -5.36768e-26 0)
(1.19132e-27 -3.24929e-26 0)
(1.17294e-26 -2.35526e-26 0)
(1.59201e-26 -3.47272e-26 0)
(1.57014e-26 -5.51863e-26 0)
(1.08935e-26 -6.97551e-26 0)
(4.53002e-27 -7.30849e-26 0)
(1.1987e-27 -7.06474e-26 0)
(3.58367e-27 -6.97351e-26 0)
(9.11583e-27 -7.26521e-26 0)
(1.20844e-26 -7.64935e-26 0)
(1.15712e-26 -7.81214e-26 0)
(8.56772e-27 -7.65467e-26 0)
(2.88035e-27 -7.195e-26 0)
(-2.33115e-27 -6.61553e-26 0)
(-3.71387e-27 -6.25697e-26 0)
(-3.03021e-27 -6.12041e-26 0)
(1.65641e-27 -5.95726e-26 0)
(1.07383e-26 -5.95468e-26 0)
(1.06543e-26 -6.25578e-26 0)
(-2.33583e-27 -6.40463e-26 0)
(-9.62779e-27 -6.39536e-26 0)
(-7.18597e-27 -6.87981e-26 0)
(-9.06589e-27 -7.78665e-26 0)
(-1.28702e-26 -8.36246e-26 0)
(-1.08334e-26 -8.1993e-26 0)
(-9.41122e-27 -7.1796e-26 0)
(-8.69096e-27 -5.48203e-26 0)
(-2.97862e-27 -4.01073e-26 0)
(-6.31817e-28 -3.50114e-26 0)
(-4.4906e-27 -3.65846e-26 0)
(-2.20331e-27 -4.26901e-26 0)
(4.57481e-27 -5.52933e-26 0)
(4.02474e-27 -6.84603e-26 0)
(1.20911e-27 -7.359e-26 0)
(3.7386e-27 -7.2805e-26 0)
(2.84672e-27 -7.1537e-26 0)
(-5.41942e-27 -6.83384e-26 0)
(-9.53649e-27 -6.21726e-26 0)
(-5.51833e-27 -5.658e-26 0)
(-1.65734e-27 -5.19247e-26 0)
(-1.62398e-27 -4.49321e-26 0)
(-2.51328e-27 -3.59002e-26 0)
(-1.47734e-27 -2.99695e-26 0)
(1.96037e-27 -3.19556e-26 0)
(5.91137e-27 -4.23755e-26 0)
(6.66904e-27 -5.60877e-26 0)
(4.89997e-27 -6.39426e-26 0)
(2.47092e-27 -6.28718e-26 0)
(5.9983e-29 -5.84299e-26 0)
(-9.23074e-28 -5.86596e-26 0)
(-1.59881e-27 -6.28612e-26 0)
(2.65829e-27 -6.72017e-26 0)
(-2.37971e-27 -6.33537e-26 0)
(2.3479e-27 -3.82403e-26 0)
(-3.78912e-26 -4.51139e-25 0)
(-4.27361e-26 -1.07558e-25 0)
(-4.37774e-26 -8.79269e-26 0)
(-4.46706e-26 -7.48405e-26 0)
(-1.98231e-26 -7.51584e-26 0)
(-9.32066e-27 -6.43127e-26 0)
(4.03977e-27 -4.04107e-26 0)
(1.62833e-26 -3.04213e-26 0)
(1.97147e-26 -4.58723e-26 0)
(1.80331e-26 -7.36645e-26 0)
(1.17942e-26 -9.34101e-26 0)
(4.58203e-27 -9.62751e-26 0)
(1.60288e-27 -8.78237e-26 0)
(5.06054e-27 -7.8165e-26 0)
(1.14159e-26 -7.40198e-26 0)
(1.4319e-26 -7.68697e-26 0)
(1.31557e-26 -8.55468e-26 0)
(9.31977e-27 -9.61266e-26 0)
(2.85695e-27 -1.01713e-25 0)
(-2.57487e-27 -9.81608e-26 0)
(-3.55988e-27 -8.89429e-26 0)
(-2.54974e-27 -7.91712e-26 0)
(2.76642e-27 -7.26472e-26 0)
(1.2875e-26 -7.54571e-26 0)
(1.1919e-26 -8.69614e-26 0)
(-3.96696e-27 -9.45362e-26 0)
(-1.26464e-26 -9.27747e-26 0)
(-9.77272e-27 -9.05871e-26 0)
(-1.21152e-26 -9.28734e-26 0)
(-1.68003e-26 -9.67779e-26 0)
(-1.43205e-26 -9.98954e-26 0)
(-1.1664e-26 -9.70358e-26 0)
(-9.35532e-27 -8.29045e-26 0)
(-1.90122e-27 -6.35889e-26 0)
(5.22049e-28 -4.89651e-26 0)
(-4.84028e-27 -4.08949e-26 0)
(-2.67573e-27 -4.36561e-26 0)
(5.29306e-27 -6.33096e-26 0)
(4.69152e-27 -8.97076e-26 0)
(1.38583e-27 -1.05413e-25 0)
(4.70584e-27 -1.07494e-25 0)
(4.2041e-27 -1.01009e-25 0)
(-5.3393e-27 -8.64777e-26 0)
(-1.03761e-26 -6.80185e-26 0)
(-5.78038e-27 -5.56e-26 0)
(-1.42475e-27 -5.16917e-26 0)
(-1.77676e-27 -4.98898e-26 0)
(-2.86261e-27 -4.62219e-26 0)
(-1.3643e-27 -4.34679e-26 0)
(2.35656e-27 -4.641e-26 0)
(6.24146e-27 -5.72674e-26 0)
(7.0736e-27 -7.25812e-26 0)
(5.74033e-27 -8.25083e-26 0)
(3.13989e-27 -8.21384e-26 0)
(-9.83823e-29 -7.5827e-26 0)
(-1.40198e-27 -7.24941e-26 0)
(-1.72159e-27 -7.28916e-26 0)
(3.62345e-27 -7.52157e-26 0)
(-2.4829e-27 -7.11792e-26 0)
(2.85011e-27 -4.33282e-26 0)
(-4.0899e-26 -4.54831e-25 0)
(-4.64193e-26 -1.13771e-25 0)
(-4.95543e-26 -8.86559e-26 0)
(-5.05071e-26 -7.56117e-26 0)
(-2.13007e-26 -8.15731e-26 0)
(-8.25439e-27 -7.3782e-26 0)
(7.47321e-27 -4.76777e-26 0)
(2.07528e-26 -3.61743e-26 0)
(2.27777e-26 -5.48519e-26 0)
(1.94756e-26 -8.88362e-26 0)
(1.22005e-26 -1.1262e-25 0)
(4.69691e-27 -1.13765e-25 0)
(2.45894e-27 -9.80589e-26 0)
(6.98025e-27 -7.90331e-26 0)
(1.37642e-26 -6.8541e-26 0)
(1.60782e-26 -7.23556e-26 0)
(1.38793e-26 -8.99755e-26 0)
(9.2114e-27 -1.12862e-25 0)
(2.45528e-27 -1.26438e-25 0)
(-2.59024e-27 -1.21995e-25 0)
(-2.89735e-27 -1.05684e-25 0)
(-1.66027e-27 -8.93766e-26 0)
(3.82156e-27 -8.24366e-26 0)
(1.42932e-26 -9.25894e-26 0)
(1.23182e-26 -1.14721e-25 0)
(-5.84676e-27 -1.27626e-25 0)
(-1.53812e-26 -1.21727e-25 0)
(-1.20496e-26 -1.09625e-25 0)
(-1.4911e-26 -1.02259e-25 0)
(-2.06063e-26 -1.01422e-25 0)
(-1.79327e-26 -1.07098e-25 0)
(-1.39236e-26 -1.11924e-25 0)
(-9.62228e-27 -1.04915e-25 0)
(-2.83042e-28 -8.80021e-26 0)
(2.22449e-27 -6.97891e-26 0)
(-4.67885e-27 -5.31276e-26 0)
(-3.08369e-27 -4.77695e-26 0)
(5.51131e-27 -6.6651e-26 0)
(4.80021e-27 -9.99583e-26 0)
(1.28285e-27 -1.24532e-25 0)
(5.64884e-27 -1.32245e-25 0)
(5.95252e-27 -1.25174e-25 0)
(-4.38102e-27 -1.03071e-25 0)
(-1.03379e-26 -7.40018e-26 0)
(-5.65176e-27 -5.45836e-26 0)
(-1.24822e-27 -5.02477e-26 0)
(-2.13662e-27 -5.2425e-26 0)
(-3.31336e-27 -5.35012e-26 0)
(-1.19336e-27 -5.39428e-26 0)
(2.73623e-27 -5.8055e-26 0)
(6.27158e-27 -6.92583e-26 0)
(7.06973e-27 -8.5874e-26 0)
(6.34895e-27 -9.81271e-26 0)
(3.77287e-27 -9.97806e-26 0)
(-1.84332e-28 -9.32503e-26 0)
(-1.74999e-27 -8.67264e-26 0)
(-1.66745e-27 -8.16054e-26 0)
(4.60075e-27 -7.89696e-26 0)
(-2.43008e-27 -7.29707e-26 0)
(3.26186e-27 -4.21152e-26 0)
(-4.26276e-26 -4.55109e-25 0)
(-4.86953e-26 -1.19293e-25 0)
(-5.44198e-26 -8.99156e-26 0)
(-5.55296e-26 -7.62368e-26 0)
(-2.22969e-26 -8.6322e-26 0)
(-6.6014e-27 -8.04992e-26 0)
(1.12722e-26 -5.20579e-26 0)
(2.50069e-26 -3.91675e-26 0)
(2.51543e-26 -6.04982e-26 0)
(2.02266e-26 -9.92288e-26 0)
(1.23506e-26 -1.25459e-25 0)
(5.03216e-27 -1.24389e-25 0)
(3.76328e-27 -1.03048e-25 0)
(9.23455e-27 -7.82412e-26 0)
(1.60827e-26 -6.51883e-26 0)
(1.74035e-26 -7.12692e-26 0)
(1.3929e-26 -9.48995e-26 0)
(8.52856e-27 -1.23843e-25 0)
(1.9114e-27 -1.39396e-25 0)
(-2.34389e-27 -1.3212e-25 0)
(-1.92071e-27 -1.12068e-25 0)
(-6.81814e-28 -9.55255e-26 0)
(4.55454e-27 -9.3204e-26 0)
(1.49408e-26 -1.1148e-25 0)
(1.19997e-26 -1.41187e-25 0)
(-7.7976e-27 -1.55872e-25 0)
(-1.77079e-26 -1.45114e-25 0)
(-1.39053e-26 -1.25654e-25 0)
(-1.73254e-26 -1.1165e-25 0)
(-2.41148e-26 -1.05944e-25 0)
(-2.14853e-26 -1.09928e-25 0)
(-1.61966e-26 -1.17078e-25 0)
(-9.81161e-27 -1.15477e-25 0)
(1.41124e-27 -1.0529e-25 0)
(4.12392e-27 -9.15946e-26 0)
(-4.08341e-27 -7.28732e-26 0)
(-3.20593e-27 -5.98012e-26 0)
(5.59421e-27 -7.16637e-26 0)
(4.62888e-27 -1.02685e-25 0)
(9.69744e-28 -1.29165e-25 0)
(6.43321e-27 -1.41128e-25 0)
(7.80412e-27 -1.37734e-25 0)
(-2.88421e-27 -1.15447e-25 0)
(-9.67517e-27 -8.27691e-26 0)
(-5.2349e-27 -6.01544e-26 0)
(-1.10098e-27 -5.50621e-26 0)
(-2.60697e-27 -5.78626e-26 0)
(-3.80269e-27 -5.95996e-26 0)
(-9.90337e-28 -6.04703e-26 0)
(3.07276e-27 -6.49e-26 0)
(6.06325e-27 -7.66178e-26 0)
(6.74552e-27 -9.45666e-26 0)
(6.73948e-27 -1.08925e-25 0)
(4.33398e-27 -1.12984e-25 0)
(-2.16695e-28 -1.07766e-25 0)
(-1.95623e-27 -1.0022e-25 0)
(-1.43082e-27 -9.13172e-26 0)
(5.62681e-27 -8.41045e-26 0)
(-2.17616e-27 -7.52405e-26 0)
(3.60913e-27 -3.90198e-26 0)
(-4.33158e-26 -4.5294e-25 0)
(-4.98479e-26 -1.28724e-25 0)
(-5.85361e-26 -9.56969e-26 0)
(-5.98764e-26 -7.8785e-26 0)
(-2.29272e-26 -8.94412e-26 0)
(-4.52812e-27 -8.30836e-26 0)
(1.5273e-26 -5.15661e-26 0)
(2.89677e-26 -3.7377e-26 0)
(2.6917e-26 -6.10262e-26 0)
(2.04552e-26 -1.03651e-25 0)
(1.23842e-26 -1.32076e-25 0)
(5.59971e-27 -1.30611e-25 0)
(5.37157e-27 -1.08032e-25 0)
(1.16293e-26 -8.29225e-26 0)
(1.83001e-26 -7.0721e-26 0)
(1.84448e-26 -7.76451e-26 0)
(1.36451e-26 -1.00909e-25 0)
(7.64387e-27 -1.27846e-25 0)
(1.40911e-27 -1.40491e-25 0)
(-1.94947e-27 -1.31579e-25 0)
(-9.40786e-28 -1.13652e-25 0)
(8.55722e-29 -1.02753e-25 0)
(4.86682e-27 -1.06556e-25 0)
(1.49889e-26 -1.29141e-25 0)
(1.12478e-26 -1.6037e-25 0)
(-9.67688e-27 -1.73294e-25 0)
(-1.96913e-26 -1.59517e-25 0)
(-1.54832e-26 -1.38911e-25 0)
(-1.94417e-26 -1.2478e-25 0)
(-2.72358e-26 -1.16677e-25 0)
(-2.47202e-26 -1.15666e-25 0)
(-1.8285e-26 -1.1809e-25 0)
(-1.00001e-26 -1.15621e-25 0)
(2.86418e-27 -1.10743e-25 0)
(5.83252e-27 -1.05974e-25 0)
(-3.31806e-27 -9.26056e-26 0)
(-3.02046e-27 -7.73605e-26 0)
(5.83018e-27 -8.21676e-26 0)
(4.53138e-27 -1.0532e-25 0)
(6.72809e-28 -1.26227e-25 0)
(7.05967e-27 -1.37735e-25 0)
(9.50643e-27 -1.38916e-25 0)
(-1.2621e-27 -1.22463e-25 0)
(-8.75646e-27 -9.40364e-26 0)
(-4.70306e-27 -7.40019e-26 0)
(-9.47864e-28 -6.95632e-26 0)
(-3.0239e-27 -7.0283e-26 0)
(-4.17509e-27 -6.80173e-26 0)
(-6.96322e-28 -6.51481e-26 0)
(3.3854e-27 -6.74307e-26 0)
(5.6856e-27 -7.85373e-26 0)
(6.19327e-27 -9.70766e-26 0)
(6.94837e-27 -1.12858e-25 0)
(4.80167e-27 -1.19252e-25 0)
(-2.48914e-28 -1.16576e-25 0)
(-2.10023e-27 -1.10687e-25 0)
(-1.11204e-27 -1.01624e-25 0)
(6.66689e-27 -9.30149e-26 0)
(-1.66947e-27 -8.22688e-26 0)
(3.93174e-27 -3.87607e-26 0)
(-4.32141e-26 -4.48366e-25 0)
(-5.01484e-26 -1.41657e-25 0)
(-6.19971e-26 -1.0494e-25 0)
(-6.36065e-26 -8.19713e-26 0)
(-2.32354e-26 -8.97324e-26 0)
(-2.13351e-27 -8.05335e-26 0)
(1.93822e-26 -4.518e-26 0)
(3.26202e-26 -2.9385e-26 0)
(2.81493e-26 -5.46279e-26 0)
(2.02591e-26 -1.00765e-25 0)
(1.22995e-26 -1.32956e-25 0)
(6.25982e-27 -1.35401e-25 0)
(7.05705e-27 -1.17472e-25 0)
(1.3991e-26 -9.6742e-26 0)
(2.04371e-26 -8.61236e-26 0)
(1.94431e-26 -8.9984e-26 0)
(1.33799e-26 -1.06561e-25 0)
(6.83178e-27 -1.26642e-25 0)
(9.83865e-28 -1.35812e-25 0)
(-1.60528e-27 -1.28625e-25 0)
(-2.13784e-28 -1.16854e-25 0)
(5.176e-28 -1.12615e-25 0)
(4.86103e-27 -1.19185e-25 0)
(1.47268e-26 -1.40203e-25 0)
(1.03367e-26 -1.68194e-25 0)
(-1.14394e-26 -1.78536e-25 0)
(-2.15108e-26 -1.65135e-25 0)
(-1.70269e-26 -1.49001e-25 0)
(-2.14398e-26 -1.39991e-25 0)
(-2.9986e-26 -1.32463e-25 0)
(-2.74569e-26 -1.26155e-25 0)
(-1.99487e-26 -1.20115e-25 0)
(-1.00608e-26 -1.1068e-25 0)
(4.03159e-27 -1.05283e-25 0)
(7.13629e-27 -1.0719e-25 0)
(-2.68529e-27 -1.02234e-25 0)
(-2.7261e-27 -9.15277e-26 0)
(6.24762e-27 -9.54001e-26 0)
(4.70567e-27 -1.12587e-25 0)
(6.23596e-28 -1.25251e-25 0)
(7.65777e-27 -1.31871e-25 0)
(1.09705e-26 -1.35041e-25 0)
(1.85848e-28 -1.25572e-25 0)
(-7.91912e-27 -1.0546e-25 0)
(-4.257e-27 -9.24011e-26 0)
(-8.00031e-28 -9.09342e-26 0)
(-3.25554e-27 -8.89685e-26 0)
(-4.26221e-27 -7.98793e-26 0)
(-1.90258e-28 -6.96165e-26 0)
(3.76466e-27 -6.64578e-26 0)
(5.24579e-27 -7.45462e-26 0)
(5.51108e-27 -9.21065e-26 0)
(7.01237e-27 -1.08424e-25 0)
(5.15679e-27 -1.17015e-25 0)
(-3.40067e-28 -1.17699e-25 0)
(-2.28711e-27 -1.15455e-25 0)
(-8.5906e-28 -1.09482e-25 0)
(7.62149e-27 -1.03171e-25 0)
(-9.25422e-28 -9.29845e-26 0)
(4.25001e-27 -4.32824e-26 0)
(-4.25341e-26 -4.40198e-25 0)
(-4.98034e-26 -1.53312e-25 0)
(-6.4875e-26 -1.12498e-25 0)
(-6.67806e-26 -8.18749e-26 0)
(-2.32661e-26 -8.51499e-26 0)
(5.09298e-28 -7.25116e-26 0)
(2.35652e-26 -3.34168e-26 0)
(3.60172e-26 -1.55359e-26 0)
(2.89555e-26 -4.10107e-26 0)
(1.96765e-26 -9.00891e-26 0)
(1.19786e-26 -1.28173e-25 0)
(6.77681e-27 -1.39271e-25 0)
(8.59304e-27 -1.30936e-25 0)
(1.62359e-26 -1.16834e-25 0)
(2.2604e-26 -1.0632e-25 0)
(2.06299e-26 -1.03562e-25 0)
(1.33428e-26 -1.10924e-25 0)
(6.1621e-27 -1.24692e-25 0)
(5.47422e-28 -1.33247e-25 0)
(-1.45196e-27 -1.30025e-25 0)
(2.15144e-28 -1.2336e-25 0)
(7.21702e-28 -1.2121e-25 0)
(4.75389e-27 -1.24819e-25 0)
(1.43912e-26 -1.40496e-25 0)
(9.39433e-27 -1.64999e-25 0)
(-1.31433e-26 -1.75129e-25 0)
(-2.33285e-26 -1.64749e-25 0)
(-1.86847e-26 -1.54382e-25 0)
(-2.3442e-26 -1.50885e-25 0)
(-3.24557e-26 -1.45066e-25 0)
(-2.96998e-26 -1.35879e-25 0)
(-2.10961e-26 -1.23272e-25 0)
(-9.83174e-27 -1.05481e-25 0)
(5.09482e-27 -9.41287e-26 0)
(8.10007e-27 -9.60448e-26 0)
(-2.33557e-27 -9.62313e-26 0)
(-2.59651e-27 -9.2841e-26 0)
(6.61882e-27 -1.03106e-25 0)
(5.05981e-27 -1.21975e-25 0)
(8.77212e-28 -1.30639e-25 0)
(8.36557e-27 -1.32172e-25 0)
(1.22753e-26 -1.3429e-25 0)
(1.38828e-27 -1.28517e-25 0)
(-7.32323e-27 -1.1499e-25 0)
(-4.02766e-27 -1.08969e-25 0)
(-6.98577e-28 -1.11433e-25 0)
(-3.25028e-27 -1.07538e-25 0)
(-3.95639e-27 -9.14215e-26 0)
(6.47555e-28 -7.23933e-26 0)
(4.33314e-27 -6.17008e-26 0)
(4.8695e-27 -6.4698e-26 0)
(4.7914e-27 -7.97109e-26 0)
(6.9578e-27 -9.56576e-26 0)
(5.37803e-27 -1.06195e-25 0)
(-5.35326e-28 -1.10527e-25 0)
(-2.58721e-27 -1.12626e-25 0)
(-7.76586e-28 -1.10972e-25 0)
(8.39628e-27 -1.0869e-25 0)
(-4.26076e-29 -1.01291e-25 0)
(4.5436e-27 -4.95268e-26 0)
(-4.13961e-26 -4.27209e-25 0)
(-4.89127e-26 -1.57624e-25 0)
(-6.72486e-26 -1.12294e-25 0)
(-6.95098e-26 -7.40204e-26 0)
(-2.31197e-26 -7.35132e-26 0)
(3.30413e-27 -5.90489e-26 0)
(2.78052e-26 -1.78237e-26 0)
(3.92505e-26 1.98131e-27 0)
(2.94614e-26 -2.22768e-26 0)
(1.87393e-26 -7.29798e-26 0)
(1.1295e-26 -1.17409e-25 0)
(6.94413e-27 -1.39066e-25 0)
(9.83141e-27 -1.41876e-25 0)
(1.83564e-26 -1.34309e-25 0)
(2.48986e-26 -1.22875e-25 0)
(2.20954e-26 -1.13667e-25 0)
(1.35296e-26 -1.14451e-25 0)
(5.54578e-27 -1.25883e-25 0)
(1.84721e-29 -1.36201e-25 0)
(-1.452e-27 -1.35226e-25 0)
(5.33768e-28 -1.28005e-25 0)
(9.39741e-28 -1.21419e-25 0)
(4.71705e-27 -1.18502e-25 0)
(1.40369e-26 -1.29922e-25 0)
(8.36989e-27 -1.55014e-25 0)
(-1.4886e-26 -1.68357e-25 0)
(-2.51788e-26 -1.60867e-25 0)
(-2.04006e-26 -1.5255e-25 0)
(-2.54207e-26 -1.50118e-25 0)
(-3.47403e-26 -1.44448e-25 0)
(-3.16245e-26 -1.35338e-25 0)
(-2.18684e-26 -1.2188e-25 0)
(-9.29637e-27 -1.00121e-25 0)
(6.26881e-27 -8.23719e-26 0)
(8.98837e-27 -7.8876e-26 0)
(-2.17024e-27 -7.73757e-26 0)
(-2.76668e-27 -7.78054e-26 0)
(6.65264e-27 -9.68602e-26 0)
(5.2754e-27 -1.2457e-25 0)
(1.23346e-27 -1.37371e-25 0)
(9.18056e-27 -1.38954e-25 0)
(1.35466e-26 -1.40243e-25 0)
(2.47115e-27 -1.34278e-25 0)
(-6.89329e-27 -1.21764e-25 0)
(-3.98037e-27 -1.18019e-25 0)
(-6.37996e-28 -1.21998e-25 0)
(-3.01215e-27 -1.16234e-25 0)
(-3.24875e-27 -9.46375e-26 0)
(1.84982e-27 -6.85985e-26 0)
(5.15374e-27 -5.14903e-26 0)
(4.64299e-27 -4.96254e-26 0)
(4.10739e-27 -6.15824e-26 0)
(6.81193e-27 -7.63228e-26 0)
(5.4551e-27 -8.81194e-26 0)
(-8.54409e-28 -9.56766e-26 0)
(-3.00893e-27 -1.0156e-25 0)
(-8.68482e-28 -1.03216e-25 0)
(8.97492e-27 -1.03766e-25 0)
(8.57529e-28 -9.96206e-26 0)
(4.77453e-27 -5.04204e-26 0)
(-3.98145e-26 -4.09025e-25 0)
(-4.74696e-26 -1.50626e-25 0)
(-6.9208e-26 -1.00769e-25 0)
(-7.19465e-26 -5.58526e-26 0)
(-2.29503e-26 -5.34262e-26 0)
(6.10928e-27 -4.00418e-26 0)
(3.20517e-26 2.20159e-28 0)
(4.23909e-26 2.0289e-26 0)
(2.97942e-26 -2.18203e-27 0)
(1.7532e-26 -5.24447e-26 0)
(1.02446e-26 -1.00584e-25 0)
(6.71543e-27 -1.29889e-25 0)
(1.0747e-26 -1.41067e-25 0)
(2.03514e-26 -1.38659e-25 0)
(2.7286e-26 -1.27866e-25 0)
(2.37266e-26 -1.16891e-25 0)
(1.37871e-26 -1.16793e-25 0)
(4.89078e-27 -1.2923e-25 0)
(-5.46004e-28 -1.40059e-25 0)
(-1.38914e-27 -1.36033e-25 0)
(1.02125e-27 -1.22039e-25 0)
(1.35357e-27 -1.07715e-25 0)
(4.74718e-27 -9.98934e-26 0)
(1.3533e-26 -1.12272e-25 0)
(7.12447e-27 -1.43054e-25 0)
(-1.67111e-26 -1.61139e-25 0)
(-2.69463e-26 -1.53461e-25 0)
(-2.19542e-26 -1.4116e-25 0)
(-2.72229e-26 -1.33827e-25 0)
(-3.68822e-26 -1.25165e-25 0)
(-3.34563e-26 -1.17306e-25 0)
(-2.25619e-26 -1.08256e-25 0)
(-8.65012e-27 -8.96806e-26 0)
(7.59825e-27 -7.0924e-26 0)
(1.00509e-26 -6.2408e-26 0)
(-1.91543e-27 -5.41776e-26 0)
(-3.1076e-27 -5.10264e-26 0)
(6.2467e-27 -7.38482e-26 0)
(5.04381e-27 -1.11021e-25 0)
(1.34026e-27 -1.33796e-25 0)
(9.90182e-27 -1.42762e-25 0)
(1.47995e-26 -1.47737e-25 0)
(3.60286e-27 -1.41004e-25 0)
(-6.39463e-27 -1.24402e-25 0)
(-3.89812e-27 -1.15988e-25 0)
(-4.96753e-28 -1.15982e-25 0)
(-2.54062e-27 -1.06514e-25 0)
(-2.22463e-27 -8.14608e-26 0)
(3.3068e-27 -5.2778e-26 0)
(6.15227e-27 -3.38364e-26 0)
(4.5585e-27 -3.02357e-26 0)
(3.49931e-27 -4.01767e-26 0)
(6.61951e-27 -5.30921e-26 0)
(5.41097e-27 -6.48696e-26 0)
(-1.28494e-27 -7.44424e-26 0)
(-3.51011e-27 -8.27698e-26 0)
(-1.04649e-27 -8.55362e-26 0)
(9.44168e-27 -8.57578e-26 0)
(1.71582e-27 -8.33045e-26 0)
(4.93829e-27 -3.89638e-26 0)
(-3.77315e-26 -3.86445e-25 0)
(-4.54079e-26 -1.32481e-25 0)
(-7.0846e-26 -7.8694e-26 0)
(-7.42354e-26 -2.80807e-26 0)
(-2.291e-26 -2.49944e-26 0)
(8.75868e-27 -1.522e-26 0)
(3.61928e-26 2.03817e-26 0)
(4.54372e-26 3.75276e-26 0)
(3.00526e-26 1.5991e-26 0)
(1.62097e-26 -3.16688e-26 0)
(8.99811e-27 -7.85806e-26 0)
(6.24759e-27 -1.08987e-25 0)
(1.14325e-26 -1.2286e-25 0)
(2.21846e-26 -1.23788e-25 0)
(2.95872e-26 -1.16809e-25 0)
(2.52864e-26 -1.10035e-25 0)
(1.3963e-26 -1.1359e-25 0)
(4.22862e-27 -1.27069e-25 0)
(-9.47064e-28 -1.34312e-25 0)
(-1.01182e-27 -1.2234e-25 0)
(1.83718e-27 -9.96223e-26 0)
(1.93575e-27 -8.01828e-26 0)
(4.66306e-27 -7.32313e-26 0)
(1.2687e-26 -9.20791e-26 0)
(5.57513e-27 -1.30791e-25 0)
(-1.85575e-26 -1.5195e-25 0)
(-2.84478e-26 -1.40108e-25 0)
(-2.31158e-26 -1.19611e-25 0)
(-2.86849e-26 -1.03937e-25 0)
(-3.8858e-26 -8.96509e-26 0)
(-3.53291e-26 -8.16474e-26 0)
(-2.34472e-26 -7.83065e-26 0)
(-8.20475e-27 -6.80467e-26 0)
(8.89304e-27 -5.5913e-26 0)
(1.13279e-26 -4.85071e-26 0)
(-1.32282e-27 -3.41138e-26 0)
(-3.29454e-27 -2.14589e-26 0)
(5.60875e-27 -3.88852e-26 0)
(4.31417e-27 -7.84545e-26 0)
(9.3088e-28 -1.09869e-25 0)
(1.02369e-26 -1.30195e-25 0)
(1.58834e-26 -1.44517e-25 0)
(4.8345e-27 -1.4029e-25 0)
(-5.60284e-27 -1.18404e-25 0)
(-3.48838e-27 -1.00516e-25 0)
(-6.29995e-29 -9.12122e-26 0)
(-1.80645e-27 -7.55949e-26 0)
(-1.03026e-27 -4.90282e-26 0)
(4.78916e-27 -2.29347e-26 0)
(7.12571e-27 -8.15563e-27 0)
(4.51105e-27 -7.35196e-27 0)
(2.96777e-27 -1.73172e-26 0)
(6.4421e-27 -2.81771e-26 0)
(5.30909e-27 -3.84382e-26 0)
(-1.78445e-27 -4.83401e-26 0)
(-4.03069e-27 -5.75801e-26 0)
(-1.18958e-27 -5.94677e-26 0)
(9.93943e-27 -5.62921e-26 0)
(2.57412e-27 -5.31675e-26 0)
(5.09936e-27 -1.27093e-26 0)
(-3.5087e-26 -3.61304e-25 0)
(-4.26697e-26 -1.07411e-25 0)
(-7.22386e-26 -5.05507e-26 0)
(-7.64586e-26 5.87448e-27 0)
(-2.30866e-26 1.0065e-26 0)
(1.11118e-26 1.52613e-26 0)
(4.008e-26 4.31937e-26 0)
(4.83156e-26 5.38478e-26 0)
(3.02845e-26 3.143e-26 0)
(1.49502e-26 -1.22703e-26 0)
(7.82161e-27 -5.33953e-26 0)
(5.80997e-27 -7.85933e-26 0)
(1.2048e-26 -8.9739e-26 0)
(2.38317e-26 -9.17894e-26 0)
(3.16342e-26 -8.97099e-26 0)
(2.66105e-26 -8.90557e-26 0)
(1.40341e-26 -9.61782e-26 0)
(3.69337e-27 -1.08149e-25 0)
(-1.00572e-27 -1.09189e-25 0)
(-2.40242e-28 -8.96673e-26 0)
(2.89011e-27 -6.27322e-26 0)
(2.46571e-27 -4.49119e-26 0)
(4.24752e-27 -4.42687e-26 0)
(1.14124e-26 -7.1107e-26 0)
(3.78168e-27 -1.15468e-25 0)
(-2.03015e-26 -1.36195e-25 0)
(-2.95698e-26 -1.18261e-25 0)
(-2.38051e-26 -8.99688e-26 0)
(-2.97489e-26 -6.70178e-26 0)
(-4.06141e-26 -4.65169e-26 0)
(-3.72204e-26 -3.54955e-26 0)
(-2.46122e-26 -3.47643e-26 0)
(-8.19621e-27 -3.27649e-26 0)
(9.85381e-27 -3.18388e-26 0)
(1.26196e-26 -3.29065e-26 0)
(-3.5513e-28 -1.80599e-26 0)
(-3.03418e-27 4.14972e-27 0)
(5.13955e-27 -1.2458e-27 0)
(3.36566e-27 -3.32152e-26 0)
(3.81871e-29 -6.49014e-26 0)
(1.00285e-26 -9.31748e-26 0)
(1.66004e-26 -1.18307e-25 0)
(6.06384e-27 -1.20285e-25 0)
(-4.45909e-27 -9.60132e-26 0)
(-2.57451e-27 -6.92994e-26 0)
(8.19603e-28 -4.99607e-26 0)
(-8.02769e-28 -2.81977e-26 0)
(1.71722e-28 -2.25616e-27 0)
(6.04775e-27 1.73184e-26 0)
(7.84407e-27 2.36366e-26 0)
(4.36115e-27 1.8293e-26 0)
(2.48503e-27 6.53716e-27 0)
(6.33601e-27 -2.43702e-27 0)
(5.22849e-27 -1.01615e-26 0)
(-2.29668e-27 -1.89113e-26 0)
(-4.52161e-27 -2.7849e-26 0)
(-1.21004e-27 -2.79749e-26 0)
(1.05891e-26 -2.02108e-26 0)
(3.53758e-27 -1.50568e-26 0)
(5.37889e-27 2.44099e-26 0)
(-3.18795e-26 -3.36e-25 0)
(-3.92514e-26 -8.16286e-26 0)
(-7.34172e-26 -2.21403e-26 0)
(-7.86099e-26 4.16647e-26 0)
(-2.34792e-26 4.89774e-26 0)
(1.30947e-26 5.01769e-26 0)
(4.35915e-26 6.89575e-26 0)
(5.09372e-26 7.07705e-26 0)
(3.04937e-26 4.59892e-26 0)
(1.38696e-26 6.40857e-27 0)
(6.90999e-27 -2.74119e-26 0)
(5.60892e-27 -4.52791e-26 0)
(1.27506e-26 -5.14348e-26 0)
(2.53836e-26 -5.18536e-26 0)
(3.34907e-26 -5.06632e-26 0)
(2.7793e-26 -5.08269e-26 0)
(1.41287e-26 -5.6428e-26 0)
(3.36928e-27 -6.46812e-26 0)
(-7.78758e-28 -6.23382e-26 0)
(7.03918e-28 -4.27741e-26 0)
(3.87817e-27 -2.05634e-26 0)
(2.7056e-27 -1.04542e-26 0)
(3.43994e-27 -1.67637e-26 0)
(9.82658e-27 -4.7498e-26 0)
(1.91609e-27 -9.21991e-26 0)
(-2.18625e-26 -1.09896e-25 0)
(-3.03688e-26 -8.76445e-26 0)
(-2.41492e-26 -5.62717e-26 0)
(-3.05019e-26 -3.05421e-26 0)
(-4.21194e-26 -5.33326e-27 0)
(-3.89964e-26 1.1132e-26 0)
(-2.59317e-26 1.43295e-26 0)
(-8.63505e-27 1.28882e-26 0)
(1.02902e-26 4.08466e-27 0)
(1.36372e-26 -8.8019e-27 0)
(7.77436e-28 -2.47595e-28 0)
(-2.28874e-27 2.54923e-26 0)
(5.15184e-27 3.12643e-26 0)
(2.638e-27 1.2781e-26 0)
(-9.72907e-28 -8.90797e-27 0)
(9.44674e-27 -3.50305e-26 0)
(1.69241e-26 -6.50262e-26 0)
(7.14971e-27 -7.29326e-26 0)
(-3.11257e-27 -5.04939e-26 0)
(-1.25531e-27 -2.11358e-26 0)
(2.07882e-27 2.31641e-27 0)
(3.71043e-28 2.57923e-26 0)
(1.24166e-27 4.84704e-26 0)
(6.93221e-27 6.03031e-26 0)
(8.17838e-27 5.76414e-26 0)
(4.02194e-27 4.57408e-26 0)
(2.02083e-27 3.16852e-26 0)
(6.32793e-27 2.42072e-26 0)
(5.22337e-27 1.91911e-26 0)
(-2.77859e-27 1.23392e-26 0)
(-4.96161e-27 4.24926e-27 0)
(-1.08984e-27 5.42023e-27 0)
(1.14258e-26 1.65879e-26 0)
(4.693e-27 2.31997e-26 0)
(5.89544e-27 6.40719e-26 0)
(-2.81818e-26 -3.12813e-25 0)
(-3.5206e-26 -6.04566e-26 0)
(-7.4355e-26 1.99132e-27 0)
(-8.06084e-26 7.57488e-26 0)
(-2.4024e-26 8.87495e-26 0)
(1.4701e-26 8.71015e-26 0)
(4.66818e-26 9.66112e-26 0)
(5.32737e-26 8.93253e-26 0)
(3.06786e-26 6.22766e-26 0)
(1.29729e-26 2.63852e-26 0)
(6.25428e-27 -2.15562e-27 0)
(5.64605e-27 -1.58663e-26 0)
(1.36312e-26 -1.88596e-26 0)
(2.70888e-26 -1.50433e-26 0)
(3.55398e-26 -6.80781e-27 0)
(2.92164e-26 2.49062e-27 0)
(1.44471e-26 5.59039e-27 0)
(3.15646e-27 8.44718e-28 0)
(-6.36242e-28 -1.21665e-27 0)
(1.35784e-27 7.27919e-27 0)
(4.47054e-27 1.6425e-26 0)
(2.59509e-27 1.72792e-26 0)
(2.42983e-27 8.92296e-27 0)
(8.2094e-27 -1.83277e-26 0)
(1.49791e-28 -5.83249e-26 0)
(-2.32837e-26 -7.29918e-26 0)
(-3.10605e-26 -5.08254e-26 0)
(-2.44062e-26 -2.23824e-26 0)
(-3.11192e-26 1.18361e-27 0)
(-4.33954e-26 2.86674e-26 0)
(-4.05209e-26 5.12194e-26 0)
(-2.71724e-26 6.07122e-26 0)
(-9.30827e-27 6.2035e-26 0)
(1.02592e-26 4.96714e-26 0)
(1.42113e-26 2.75655e-26 0)
(1.75232e-27 2.644e-26 0)
(-1.32662e-27 4.76109e-26 0)
(5.63794e-27 5.67194e-26 0)
(2.4409e-27 4.95929e-26 0)
(-1.59611e-27 4.36652e-26 0)
(8.98033e-27 3.09224e-26 0)
(1.71306e-26 7.15336e-27 0)
(8.07104e-27 -1.18958e-27 0)
(-1.82947e-27 1.71052e-26 0)
(9.49418e-29 4.08156e-26 0)
(3.37065e-27 5.84156e-26 0)
(1.48789e-27 7.629e-26 0)
(2.09009e-27 9.3157e-26 0)
(7.45067e-27 9.8661e-26 0)
(8.16143e-27 8.98976e-26 0)
(3.50044e-27 7.35631e-26 0)
(1.5597e-27 5.77892e-26 0)
(6.41103e-27 5.1385e-26 0)
(5.30592e-27 4.87007e-26 0)
(-3.21933e-27 4.38498e-26 0)
(-5.36737e-27 3.64219e-26 0)
(-8.80096e-28 3.73362e-26 0)
(1.23961e-26 4.91836e-26 0)
(6.05108e-27 5.53506e-26 0)
(6.69686e-27 9.79279e-26 0)
(-2.41034e-26 -2.93222e-25 0)
(-3.06103e-26 -4.62834e-26 0)
(-7.49788e-26 1.99965e-26 0)
(-8.23395e-26 1.06206e-25 0)
(-2.46471e-26 1.26756e-25 0)
(1.59521e-26 1.22847e-25 0)
(4.938e-26 1.23484e-25 0)
(5.53933e-26 1.08514e-25 0)
(3.08843e-26 8.11238e-26 0)
(1.21921e-26 4.91135e-26 0)
(5.65599e-27 2.25327e-26 0)
(5.71077e-27 7.13686e-27 0)
(1.46698e-26 2.72403e-27 0)
(2.92442e-26 1.13621e-26 0)
(3.83106e-26 3.30345e-26 0)
(3.137e-26 6.02747e-26 0)
(1.51567e-26 7.70353e-26 0)
(2.80699e-27 7.39177e-26 0)
(-1.0807e-27 6.02174e-26 0)
(1.26633e-27 5.015e-26 0)
(4.50239e-27 4.34091e-26 0)
(2.30183e-27 3.82732e-26 0)
(1.56069e-27 3.45821e-26 0)
(6.84787e-27 1.66778e-26 0)
(-1.44385e-27 -1.65324e-26 0)
(-2.47082e-26 -3.00063e-26 0)
(-3.18927e-26 -1.16955e-26 0)
(-2.48105e-26 1.025e-26 0)
(-3.17601e-26 2.90456e-26 0)
(-4.45077e-26 5.68657e-26 0)
(-4.17472e-26 8.43292e-26 0)
(-2.81525e-26 1.00808e-25 0)
(-9.93226e-27 1.08619e-25 0)
(1.00139e-26 9.90037e-26 0)
(1.4392e-26 7.36132e-26 0)
(2.33754e-27 6.42749e-26 0)
(-5.53082e-28 7.5892e-26 0)
(6.2722e-27 7.91515e-26 0)
(2.75881e-27 7.53253e-26 0)
(-1.48368e-27 8.31801e-26 0)
(9.17869e-27 8.91341e-26 0)
(1.76889e-26 8.07163e-26 0)