/*--------------------------------*- C++ -*----------------------------------*\
| =========                 |                                                 |
| \\      /  F ield         | foam-extend: Open Source CFD                    |
|  \\    /   O peration     | Version:     4.0                                |
|   \\  /    A nd           | Web:         http://www.foam-extend.org         |
|    \\/     M anipulation  |                                                 |
\*---------------------------------------------------------------------------*/
FoamFile
{
    version     2.0;
    format      ascii;
    class       volVectorField;
    location    "8";
    object      bodyForce;
}
// * * * * * * * * * * * * * * * * * * * * * * * * * * * * * * * * * * * * * //

dimensions      [0 -1 0 0 0 0 0];

internalField   nonuniform List<vector> 
6960
(
(9.17404e-05 -1.05005e+09 -0)
(0.000133101 -1.05005e+09 -0)
(4.17477e-05 -1.05005e+09 -0)
(1.86768e-06 -1.05005e+09 -0)
(1.84391e-06 -1.05005e+09 -0)
(6.45198e-07 -1.05005e+09 -0)
(3.76932e-07 -1.05005e+09 -0)
(1.35831e-07 -1.05005e+09 -0)
(3.39578e-09 -1.05005e+09 -0)
(-7.8103e-08 -1.05005e+09 -0)
(-1.12061e-07 -1.05005e+09 -0)
(-1.62997e-07 -1.05005e+09 -0)
(-1.96955e-07 -1.05005e+09 -0)
(-2.24122e-07 -1.05005e+09 -0)
(-2.47892e-07 -1.05005e+09 -0)
(-2.51288e-07 -1.05005e+09 -0)
(-2.51288e-07 -1.05005e+09 -0)
(-2.64871e-07 -1.05005e+09 -0)
(-2.58079e-07 -1.05005e+09 -0)
(-2.47892e-07 -1.05005e+09 -0)
(-2.27517e-07 -1.05005e+09 -0)
(-2.13934e-07 -1.05005e+09 -0)
(-2.00351e-07 -1.05005e+09 -0)
(-1.76581e-07 -1.05005e+09 -0)
(-1.56206e-07 -1.05005e+09 -0)
(-1.2904e-07 -1.05005e+09 -0)
(-1.01873e-07 -1.05005e+09 -0)
(-7.13114e-08 -1.05005e+09 -0)
(-4.41452e-08 -1.05005e+09 -0)
(-6.79156e-09 -1.05005e+09 -0)
(1.69789e-08 -1.05005e+09 -0)
(4.07494e-08 -1.05005e+09 -0)
(7.47072e-08 -1.05005e+09 -0)
(9.50819e-08 -1.05005e+09 -0)
(1.25644e-07 -1.05005e+09 -0)
(1.5281e-07 -1.05005e+09 -0)
(1.76581e-07 -1.05005e+09 -0)
(2.07143e-07 -1.05005e+09 -0)
(2.1733e-07 -1.05005e+09 -0)
(2.37705e-07 -1.05005e+09 -0)
(2.411e-07 -1.05005e+09 -0)
(2.47892e-07 -1.05005e+09 -0)
(2.51288e-07 -1.05005e+09 -0)
(2.61475e-07 -1.05005e+09 -0)
(2.411e-07 -1.05005e+09 -0)
(2.34309e-07 -1.05005e+09 -0)
(2.34309e-07 -1.05005e+09 -0)
(2.1733e-07 -1.05005e+09 -0)
(1.69789e-07 -1.05005e+09 -0)
(1.2904e-07 -1.05005e+09 -0)
(5.43325e-08 -1.05005e+09 -0)
(-2.71662e-08 -1.05005e+09 -0)
(-1.32435e-07 -1.05005e+09 -0)
(-3.76932e-07 -1.05005e+09 -0)
(-6.5199e-07 -1.05005e+09 -0)
(-1.8473e-06 -1.05005e+09 -0)
(-1.86768e-06 -1.05005e+09 -0)
(-4.17341e-05 -1.05005e+09 -0)
(-0.000133098 -1.05005e+09 -0)
(-9.1754e-05 -1.05005e+09 -0)
(0.000261725 -2.14776e+08 -0)
(0.000379 -2.14776e+08 -0)
(0.000117686 -2.14776e+08 -0)
(4.58409e-06 -2.14776e+08 -0)
(5.15869e-06 -2.14776e+08 -0)
(1.77719e-06 -2.14776e+08 -0)
(1.04242e-06 -2.14776e+08 -0)
(3.5849e-07 -2.14776e+08 -0)
(1.52549e-08 -2.14776e+08 -0)
(-2.33908e-07 -2.14776e+08 -0)
(-3.33065e-07 -2.14776e+08 -0)
(-4.65274e-07 -2.14776e+08 -0)
(-5.69515e-07 -2.14776e+08 -0)
(-6.40705e-07 -2.14776e+08 -0)
(-7.04267e-07 -2.14776e+08 -0)
(-7.27149e-07 -2.14776e+08 -0)
(-7.29691e-07 -2.14776e+08 -0)
(-7.32234e-07 -2.14776e+08 -0)
(-7.34776e-07 -2.14776e+08 -0)
(-7.11894e-07 -2.14776e+08 -0)
(-6.58502e-07 -2.14776e+08 -0)
(-6.1528e-07 -2.14776e+08 -0)
(-5.79685e-07 -2.14776e+08 -0)
(-5.16123e-07 -2.14776e+08 -0)
(-4.42391e-07 -2.14776e+08 -0)
(-3.55947e-07 -2.14776e+08 -0)
(-2.89843e-07 -2.14776e+08 -0)
(-2.05941e-07 -2.14776e+08 -0)
(-1.16954e-07 -2.14776e+08 -0)
(-4.32221e-08 -2.14776e+08 -0)
(5.08496e-08 -2.14776e+08 -0)
(1.22039e-07 -2.14776e+08 -0)
(1.93228e-07 -2.14776e+08 -0)
(2.82215e-07 -2.14776e+08 -0)
(3.71202e-07 -2.14776e+08 -0)
(4.44934e-07 -2.14776e+08 -0)
(5.13581e-07 -2.14776e+08 -0)
(5.77143e-07 -2.14776e+08 -0)
(6.17822e-07 -2.14776e+08 -0)
(6.78842e-07 -2.14776e+08 -0)
(6.96639e-07 -2.14776e+08 -0)
(7.11894e-07 -2.14776e+08 -0)
(7.24606e-07 -2.14776e+08 -0)
(7.22064e-07 -2.14776e+08 -0)
(7.14437e-07 -2.14776e+08 -0)
(6.81384e-07 -2.14776e+08 -0)
(6.50875e-07 -2.14776e+08 -0)
(6.0511e-07 -2.14776e+08 -0)
(5.13581e-07 -2.14776e+08 -0)
(3.63574e-07 -2.14776e+08 -0)
(1.67804e-07 -2.14776e+08 -0)
(-6.61045e-08 -2.14776e+08 -0)
(-3.50862e-07 -2.14776e+08 -0)
(-1.0475e-06 -2.14776e+08 -0)
(-1.79245e-06 -2.14776e+08 -0)
(-5.16123e-06 -2.14776e+08 -0)
(-4.579e-06 -2.14776e+08 -0)
(-0.000117661 -2.14776e+08 -0)
(-0.000378984 -2.14776e+08 -0)
(-0.000261723 -2.14776e+08 -0)
(0.000305097 -6.8854e+07 -0)
(0.00043788 -6.8854e+07 -0)
(0.000133358 -6.8854e+07 -0)
(5.38514e-06 -6.8854e+07 -0)
(5.94044e-06 -6.8854e+07 -0)
(2.03525e-06 -6.8854e+07 -0)
(1.19454e-06 -6.8854e+07 -0)
(4.05499e-07 -6.8854e+07 -0)
(1.80796e-08 -6.8854e+07 -0)
(-2.63445e-07 -6.8854e+07 -0)
(-3.90003e-07 -6.8854e+07 -0)
(-5.37222e-07 -6.8854e+07 -0)
(-6.50865e-07 -6.8854e+07 -0)
(-7.36098e-07 -6.8854e+07 -0)
(-8.13582e-07 -6.8854e+07 -0)
(-8.3941e-07 -6.8854e+07 -0)
(-8.41992e-07 -6.8854e+07 -0)
(-8.38118e-07 -6.8854e+07 -0)
(-8.45867e-07 -6.8854e+07 -0)
(-8.22621e-07 -6.8854e+07 -0)
(-7.59343e-07 -6.8854e+07 -0)
(-6.99938e-07 -6.8854e+07 -0)
(-6.65071e-07 -6.8854e+07 -0)
(-5.99209e-07 -6.8854e+07 -0)
(-5.12686e-07 -6.8854e+07 -0)
(-4.11956e-07 -6.8854e+07 -0)
(-3.33181e-07 -6.8854e+07 -0)
(-2.36326e-07 -6.8854e+07 -0)
(-1.35597e-07 -6.8854e+07 -0)
(-5.42388e-08 -6.8854e+07 -0)
(5.68216e-08 -6.8854e+07 -0)
(1.39471e-07 -6.8854e+07 -0)
(2.27286e-07 -6.8854e+07 -0)
(3.26724e-07 -6.8854e+07 -0)
(4.23579e-07 -6.8854e+07 -0)
(5.13977e-07 -6.8854e+07 -0)
(5.97918e-07 -6.8854e+07 -0)
(6.63779e-07 -6.8854e+07 -0)
(7.05104e-07 -6.8854e+07 -0)
(7.78714e-07 -6.8854e+07 -0)
(8.05833e-07 -6.8854e+07 -0)
(8.16164e-07 -6.8854e+07 -0)
(8.38118e-07 -6.8854e+07 -0)
(8.34244e-07 -6.8854e+07 -0)
(8.23913e-07 -6.8854e+07 -0)
(7.85171e-07 -6.8854e+07 -0)
(7.50303e-07 -6.8854e+07 -0)
(6.98647e-07 -6.8854e+07 -0)
(5.87587e-07 -6.8854e+07 -0)
(4.10665e-07 -6.8854e+07 -0)
(2.0275e-07 -6.8854e+07 -0)
(-6.84442e-08 -6.8854e+07 -0)
(-4.00334e-07 -6.8854e+07 -0)
(-1.20617e-06 -6.8854e+07 -0)
(-2.0572e-06 -6.8854e+07 -0)
(-5.94948e-06 -6.8854e+07 -0)
(-5.3761e-06 -6.8854e+07 -0)
(-0.000133327 -6.8854e+07 -0)
(-0.000437868 -6.8854e+07 -0)
(-0.000305098 -6.8854e+07 -0)
(0.000282024 -2.5878e+07 -0)
(0.000403842 -2.5878e+07 -0)
(0.000122679 -2.5878e+07 -0)
(5.32822e-06 -2.5878e+07 -0)
(5.52805e-06 -2.5878e+07 -0)
(1.89908e-06 -2.5878e+07 -0)
(1.11436e-06 -2.5878e+07 -0)
(3.80692e-07 -2.5878e+07 -0)
(2.18788e-08 -2.5878e+07 -0)
(-2.3775e-07 -2.5878e+07 -0)
(-3.55896e-07 -2.5878e+07 -0)
(-4.94462e-07 -2.5878e+07 -0)
(-6.02397e-07 -2.5878e+07 -0)
(-6.79702e-07 -2.5878e+07 -0)
(-7.46797e-07 -2.5878e+07 -0)
(-7.68676e-07 -2.5878e+07 -0)
(-7.77428e-07 -2.5878e+07 -0)
(-7.74511e-07 -2.5878e+07 -0)
(-7.73052e-07 -2.5878e+07 -0)
(-7.58466e-07 -2.5878e+07 -0)
(-7.0304e-07 -2.5878e+07 -0)
(-6.43238e-07 -2.5878e+07 -0)
(-6.08232e-07 -2.5878e+07 -0)
(-5.52805e-07 -2.5878e+07 -0)
(-4.68207e-07 -2.5878e+07 -0)
(-3.79233e-07 -2.5878e+07 -0)
(-3.10679e-07 -2.5878e+07 -0)
(-2.14413e-07 -2.5878e+07 -0)
(-1.2398e-07 -2.5878e+07 -0)
(-4.52163e-08 -2.5878e+07 -0)
(5.10506e-08 -2.5878e+07 -0)
(1.2398e-07 -2.5878e+07 -0)
(2.10037e-07 -2.5878e+07 -0)
(2.97552e-07 -2.5878e+07 -0)
(3.87985e-07 -2.5878e+07 -0)
(4.755e-07 -2.5878e+07 -0)
(5.52805e-07 -2.5878e+07 -0)
(6.12607e-07 -2.5878e+07 -0)
(6.46155e-07 -2.5878e+07 -0)
(7.14708e-07 -2.5878e+07 -0)
(7.40963e-07 -2.5878e+07 -0)
(7.5409e-07 -2.5878e+07 -0)
(7.70135e-07 -2.5878e+07 -0)
(7.643e-07 -2.5878e+07 -0)
(7.59925e-07 -2.5878e+07 -0)
(7.2346e-07 -2.5878e+07 -0)
(6.89912e-07 -2.5878e+07 -0)
(6.43238e-07 -2.5878e+07 -0)
(5.36761e-07 -2.5878e+07 -0)
(3.76316e-07 -2.5878e+07 -0)
(1.88158e-07 -2.5878e+07 -0)
(-6.56365e-08 -2.5878e+07 -0)
(-3.80692e-07 -2.5878e+07 -0)
(-1.12165e-06 -2.5878e+07 -0)
(-1.92096e-06 -2.5878e+07 -0)
(-5.53534e-06 -2.5878e+07 -0)
(-5.32093e-06 -2.5878e+07 -0)
(-0.000122647 -2.5878e+07 -0)
(-0.000403828 -2.5878e+07 -0)
(-0.000282024 -2.5878e+07 -0)
(0.000226242 -1.03893e+07 -0)
(0.000324422 -1.03893e+07 -0)
(9.93438e-05 -1.03893e+07 -0)
(4.81065e-06 -1.03893e+07 -0)
(4.52797e-06 -1.03893e+07 -0)
(1.56836e-06 -1.03893e+07 -0)
(9.17004e-07 -1.03893e+07 -0)
(3.1844e-07 -1.03893e+07 -0)
(2.21375e-08 -1.03893e+07 -0)
(-1.86466e-07 -1.03893e+07 -0)
(-2.8353e-07 -1.03893e+07 -0)
(-3.94218e-07 -1.03893e+07 -0)
(-4.81065e-07 -1.03893e+07 -0)
(-5.44072e-07 -1.03893e+07 -0)
(-5.98564e-07 -1.03893e+07 -0)
(-6.15593e-07 -1.03893e+07 -0)
(-6.24108e-07 -1.03893e+07 -0)
(-6.1985e-07 -1.03893e+07 -0)
(-6.18999e-07 -1.03893e+07 -0)
(-6.0793e-07 -1.03893e+07 -0)
(-5.62804e-07 -1.03893e+07 -0)
(-5.15974e-07 -1.03893e+07 -0)
(-4.87025e-07 -1.03893e+07 -0)
(-4.43602e-07 -1.03893e+07 -0)
(-3.73783e-07 -1.03893e+07 -0)
(-3.03114e-07 -1.03893e+07 -0)
(-2.49473e-07 -1.03893e+07 -0)
(-1.7114e-07 -1.03893e+07 -0)
(-9.70645e-08 -1.03893e+07 -0)
(-4.00178e-08 -1.03893e+07 -0)
(4.00178e-08 -1.03893e+07 -0)
(1.0047e-07 -1.03893e+07 -0)
(1.69437e-07 -1.03893e+07 -0)
(2.37553e-07 -1.03893e+07 -0)
(3.10777e-07 -1.03893e+07 -0)
(3.82298e-07 -1.03893e+07 -0)
(4.43602e-07 -1.03893e+07 -0)
(4.87877e-07 -1.03893e+07 -0)
(5.16826e-07 -1.03893e+07 -0)
(5.74724e-07 -1.03893e+07 -0)
(5.94307e-07 -1.03893e+07 -0)
(6.03673e-07 -1.03893e+07 -0)
(6.16445e-07 -1.03893e+07 -0)
(6.11336e-07 -1.03893e+07 -0)
(6.08782e-07 -1.03893e+07 -0)
(5.78981e-07 -1.03893e+07 -0)
(5.53438e-07 -1.03893e+07 -0)
(5.14271e-07 -1.03893e+07 -0)
(4.3083e-07 -1.03893e+07 -0)
(2.99708e-07 -1.03893e+07 -0)
(1.45597e-07 -1.03893e+07 -0)
(-6.13039e-08 -1.03893e+07 -0)
(-3.16737e-07 -1.03893e+07 -0)
(-9.22113e-07 -1.03893e+07 -0)
(-1.58709e-06 -1.03893e+07 -0)
(-4.53478e-06 -1.03893e+07 -0)
(-4.80469e-06 -1.03893e+07 -0)
(-9.93182e-05 -1.03893e+07 -0)
(-0.000324408 -1.03893e+07 -0)
(-0.000226242 -1.03893e+07 -0)
(0.000163706 -4.33602e+06 -0)
(0.000235511 -4.33602e+06 -0)
(7.31372e-05 -4.33602e+06 -0)
(4.04224e-06 -4.33602e+06 -0)
(3.38301e-06 -4.33602e+06 -0)
(1.18622e-06 -4.33602e+06 -0)
(6.87681e-07 -4.33602e+06 -0)
(2.4503e-07 -4.33602e+06 -0)
(2.19579e-08 -4.33602e+06 -0)
(-1.3025e-07 -4.33602e+06 -0)
(-2.00615e-07 -4.33602e+06 -0)
(-2.84953e-07 -4.33602e+06 -0)
(-3.47833e-07 -4.33602e+06 -0)
(-3.92746e-07 -4.33602e+06 -0)
(-4.3267e-07 -4.33602e+06 -0)
(-4.45645e-07 -4.33602e+06 -0)
(-4.51633e-07 -4.33602e+06 -0)
(-4.47142e-07 -4.33602e+06 -0)
(-4.47641e-07 -4.33602e+06 -0)
(-4.40655e-07 -4.33602e+06 -0)
(-4.0672e-07 -4.33602e+06 -0)
(-3.73284e-07 -4.33602e+06 -0)
(-3.52324e-07 -4.33602e+06 -0)
(-3.19886e-07 -4.33602e+06 -0)
(-2.7098e-07 -4.33602e+06 -0)
(-2.19579e-07 -4.33602e+06 -0)
(-1.78657e-07 -4.33602e+06 -0)
(-1.23264e-07 -4.33602e+06 -0)
(-7.0365e-08 -4.33602e+06 -0)
(-2.89445e-08 -4.33602e+06 -0)
(2.79464e-08 -4.33602e+06 -0)
(7.38583e-08 -4.33602e+06 -0)
(1.22265e-07 -4.33602e+06 -0)
(1.70174e-07 -4.33602e+06 -0)
(2.25068e-07 -4.33602e+06 -0)
(2.77967e-07 -4.33602e+06 -0)
(3.18888e-07 -4.33602e+06 -0)
(3.51825e-07 -4.33602e+06 -0)
(3.74781e-07 -4.33602e+06 -0)
(4.15203e-07 -4.33602e+06 -0)
(4.31173e-07 -4.33602e+06 -0)
(4.36163e-07 -4.33602e+06 -0)
(4.44148e-07 -4.33602e+06 -0)
(4.4315e-07 -4.33602e+06 -0)
(4.41653e-07 -4.33602e+06 -0)
(4.18697e-07 -4.33602e+06 -0)
(4.00232e-07 -4.33602e+06 -0)
(3.71787e-07 -4.33602e+06 -0)
(3.09406e-07 -4.33602e+06 -0)
(2.15087e-07 -4.33602e+06 -0)
(1.00308e-07 -4.33602e+06 -0)
(-5.23995e-08 -4.33602e+06 -0)
(-2.43533e-07 -4.33602e+06 -0)
(-6.91673e-07 -4.33602e+06 -0)
(-1.1997e-06 -4.33602e+06 -0)
(-3.39e-06 -4.33602e+06 -0)
(-4.03676e-06 -4.33602e+06 -0)
(-7.31177e-05 -4.33602e+06 -0)
(-0.000235501 -4.33602e+06 -0)
(-0.000163705 -4.33602e+06 -0)
(0.000109747 -1.88215e+06 -0)
(0.000158574 -1.88215e+06 -0)
(5.01421e-05 -1.88215e+06 -0)
(3.19366e-06 -1.88215e+06 -0)
(2.36572e-06 -1.88215e+06 -0)
(8.4278e-07 -1.88215e+06 -0)
(4.81755e-07 -1.88215e+06 -0)
(1.77749e-07 -1.88215e+06 -0)
(2.15277e-08 -1.88215e+06 -0)
(-8.32016e-08 -1.88215e+06 -0)
(-1.32948e-07 -1.88215e+06 -0)
(-1.89967e-07 -1.88215e+06 -0)
(-2.32441e-07 -1.88215e+06 -0)
(-2.62696e-07 -1.88215e+06 -0)
(-2.90042e-07 -1.88215e+06 -0)
(-2.98478e-07 -1.88215e+06 -0)
(-3.01969e-07 -1.88215e+06 -0)
(-2.99351e-07 -1.88215e+06 -0)
(-3.00224e-07 -1.88215e+06 -0)
(-2.9586e-07 -1.88215e+06 -0)
(-2.72005e-07 -1.88215e+06 -0)
(-2.50187e-07 -1.88215e+06 -0)
(-2.3535e-07 -1.88215e+06 -0)
(-2.14113e-07 -1.88215e+06 -0)
(-1.82404e-07 -1.88215e+06 -0)
(-1.46912e-07 -1.88215e+06 -0)
(-1.18402e-07 -1.88215e+06 -0)
(-8.23289e-08 -1.88215e+06 -0)
(-4.71282e-08 -1.88215e+06 -0)
(-1.97822e-08 -1.88215e+06 -0)
(1.86185e-08 -1.88215e+06 -0)
(4.91646e-08 -1.88215e+06 -0)
(8.14561e-08 -1.88215e+06 -0)
(1.14329e-07 -1.88215e+06 -0)
(1.50694e-07 -1.88215e+06 -0)
(1.86476e-07 -1.88215e+06 -0)
(2.13531e-07 -1.88215e+06 -0)
(2.35059e-07 -1.88215e+06 -0)
(2.51059e-07 -1.88215e+06 -0)
(2.78696e-07 -1.88215e+06 -0)
(2.88296e-07 -1.88215e+06 -0)
(2.91497e-07 -1.88215e+06 -0)
(2.97606e-07 -1.88215e+06 -0)
(2.96733e-07 -1.88215e+06 -0)
(2.96442e-07 -1.88215e+06 -0)
(2.80733e-07 -1.88215e+06 -0)
(2.68223e-07 -1.88215e+06 -0)
(2.48732e-07 -1.88215e+06 -0)
(2.05968e-07 -1.88215e+06 -0)
(1.41385e-07 -1.88215e+06 -0)
(6.28376e-08 -1.88215e+06 -0)
(-4.18917e-08 -1.88215e+06 -0)
(-1.76294e-07 -1.88215e+06 -0)
(-4.85246e-07 -1.88215e+06 -0)
(-8.51507e-07 -1.88215e+06 -0)
(-2.37008e-06 -1.88215e+06 -0)
(-3.18959e-06 -1.88215e+06 -0)
(-5.0129e-05 -1.88215e+06 -0)
(-0.000158567 -1.88215e+06 -0)
(-0.000109746 -1.88215e+06 -0)
(6.98047e-05 -859163 -0)
(0.00010139 -859163 -0)
(3.2744e-05 -859163 -0)
(2.40499e-06 -859163 -0)
(1.58244e-06 -859163 -0)
(5.73084e-07 -859163 -0)
(3.23954e-07 -859163 -0)
(1.23298e-07 -859163 -0)
(1.92548e-08 -859163 -0)
(-4.99949e-08 -859163 -0)
(-8.24241e-08 -859163 -0)
(-1.19751e-07 -859163 -0)
(-1.47282e-07 -859163 -0)
(-1.66706e-07 -859163 -0)
(-1.84103e-07 -859163 -0)
(-1.90015e-07 -859163 -0)
(-1.92041e-07 -859163 -0)
(-1.89677e-07 -859163 -0)
(-1.90352e-07 -859163 -0)
(-1.88494e-07 -859163 -0)
(-1.72955e-07 -859163 -0)
(-1.58599e-07 -859163 -0)
(-1.4914e-07 -859163 -0)
(-1.35628e-07 -859163 -0)
(-1.16204e-07 -859163 -0)
(-9.39094e-08 -859163 -0)
(-7.49924e-08 -859163 -0)
(-5.1515e-08 -859163 -0)
(-2.98956e-08 -859163 -0)
(-1.1992e-08 -859163 -0)
(1.18231e-08 -859163 -0)
(3.07401e-08 -859163 -0)
(5.11772e-08 -859163 -0)
(7.229e-08 -859163 -0)
(9.57673e-08 -859163 -0)
(1.184e-07 -859163 -0)
(1.35966e-07 -859163 -0)
(1.4914e-07 -859163 -0)
(1.59105e-07 -859163 -0)
(1.77009e-07 -859163 -0)
(1.8309e-07 -859163 -0)
(1.84947e-07 -859163 -0)
(1.88325e-07 -859163 -0)
(1.88494e-07 -859163 -0)
(1.89508e-07 -859163 -0)
(1.78867e-07 -859163 -0)
(1.69915e-07 -859163 -0)
(1.57416e-07 -859163 -0)
(1.30223e-07 -859163 -0)
(8.86734e-08 -859163 -0)
(3.66517e-08 -859163 -0)
(-3.27669e-08 -859163 -0)
(-1.22285e-07 -859163 -0)
(-3.25643e-07 -859163 -0)
(-5.79671e-07 -859163 -0)
(-1.58514e-06 -859163 -0)
(-2.40195e-06 -859163 -0)
(-3.27355e-05 -859163 -0)
(-0.000101386 -859163 -0)
(-6.98046e-05 -859163 -0)
(4.31775e-05 -417743 -0)
(6.30869e-05 -417743 -0)
(2.08582e-05 -417743 -0)
(1.75796e-06 -417743 -0)
(1.03729e-06 -417743 -0)
(3.81982e-07 -417743 -0)
(2.13176e-07 -417743 -0)
(8.36139e-08 -417743 -0)
(1.5579e-08 -417743 -0)
(-2.85944e-08 -417743 -0)
(-4.94979e-08 -417743 -0)
(-7.32608e-08 -417743 -0)
(-9.04174e-08 -417743 -0)
(-1.0225e-07 -417743 -0)
(-1.14082e-07 -417743 -0)
(-1.17237e-07 -417743 -0)
(-1.1842e-07 -417743 -0)
(-1.17237e-07 -417743 -0)
(-1.17829e-07 -417743 -0)
(-1.16547e-07 -417743 -0)
(-1.06785e-07 -417743 -0)
(-9.77139e-08 -417743 -0)
(-9.13048e-08 -417743 -0)
(-8.37125e-08 -417743 -0)
(-7.20776e-08 -417743 -0)
(-5.81748e-08 -417743 -0)
(-4.59482e-08 -417743 -0)
(-3.15524e-08 -417743 -0)
(-1.84384e-08 -417743 -0)
(-7.6909e-09 -417743 -0)
(7.1979e-09 -417743 -0)
(1.93259e-08 -417743 -0)
(3.1651e-08 -417743 -0)
(4.4272e-08 -417743 -0)
(5.91608e-08 -417743 -0)
(7.33594e-08 -417743 -0)
(8.36139e-08 -417743 -0)
(9.18964e-08 -417743 -0)
(9.82069e-08 -417743 -0)
(1.08856e-07 -417743 -0)
(1.13096e-07 -417743 -0)
(1.14279e-07 -417743 -0)
(1.16152e-07 -417743 -0)
(1.16645e-07 -417743 -0)
(1.16547e-07 -417743 -0)
(1.10532e-07 -417743 -0)
(1.0501e-07 -417743 -0)
(9.68265e-08 -417743 -0)
(7.99657e-08 -417743 -0)
(5.36391e-08 -417743 -0)
(2.00161e-08 -417743 -0)
(-2.44531e-08 -417743 -0)
(-8.35153e-08 -417743 -0)
(-2.13866e-07 -417743 -0)
(-3.85926e-07 -417743 -0)
(-1.03936e-06 -417743 -0)
(-1.75589e-06 -417743 -0)
(-2.08526e-05 -417743 -0)
(-6.30841e-05 -417743 -0)
(-4.31773e-05 -417743 -0)
(2.66998e-05 -218915 -0)
(3.92662e-05 -218915 -0)
(1.33154e-05 -218915 -0)
(1.27808e-06 -218915 -0)
(6.84371e-07 -218915 -0)
(2.56029e-07 -218915 -0)
(1.40995e-07 -218915 -0)
(5.70457e-08 -218915 -0)
(1.21274e-08 -218915 -0)
(-1.60128e-08 -218915 -0)
(-2.94942e-08 -218915 -0)
(-4.49772e-08 -218915 -0)
(-5.54562e-08 -218915 -0)
(-6.28739e-08 -218915 -0)
(-7.04682e-08 -218915 -0)
(-7.21754e-08 -218915 -0)
(-7.29996e-08 -218915 -0)
(-7.24109e-08 -218915 -0)
(-7.27641e-08 -218915 -0)
(-7.21166e-08 -218915 -0)
(-6.56408e-08 -218915 -0)
(-6.01658e-08 -218915 -0)
(-5.63981e-08 -218915 -0)
(-5.15707e-08 -218915 -0)
(-4.46828e-08 -218915 -0)
(-3.55579e-08 -218915 -0)
(-2.80224e-08 -218915 -0)
(-1.95451e-08 -218915 -0)
(-1.11854e-08 -218915 -0)
(-4.65078e-09 -218915 -0)
(4.29756e-09 -218915 -0)
(1.18919e-08 -218915 -0)
(1.93684e-08 -218915 -0)
(2.69039e-08 -218915 -0)
(3.66176e-08 -218915 -0)
(4.5507e-08 -218915 -0)
(5.16296e-08 -218915 -0)
(5.65158e-08 -218915 -0)
(6.02836e-08 -218915 -0)
(6.7348e-08 -218915 -0)
(6.98795e-08 -218915 -0)
(7.02327e-08 -218915 -0)
(7.1469e-08 -218915 -0)
(7.18222e-08 -218915 -0)
(7.21754e-08 -218915 -0)
(6.81722e-08 -218915 -0)
(6.464e-08 -218915 -0)
(5.97537e-08 -218915 -0)
(4.89215e-08 -218915 -0)
(3.21434e-08 -218915 -0)
(1.07145e-08 -218915 -0)
(-1.78967e-08 -218915 -0)
(-5.69868e-08 -218915 -0)
(-1.41702e-07 -218915 -0)
(-2.58678e-07 -218915 -0)
(-6.85372e-07 -218915 -0)
(-1.27637e-06 -218915 -0)
(-1.33119e-05 -218915 -0)
(-3.92647e-05 -218915 -0)
(-2.66998e-05 -218915 -0)
(1.70083e-05 -125057 -0)
(2.51892e-05 -125057 -0)
(8.77239e-06 -125057 -0)
(9.50181e-07 -125057 -0)
(4.67775e-07 -125057 -0)
(1.77382e-07 -125057 -0)
(9.63563e-08 -125057 -0)
(3.99248e-08 -125057 -0)
(9.70548e-09 -125057 -0)
(-8.93345e-09 -125057 -0)
(-1.8161e-08 -125057 -0)
(-2.82341e-08 -125057 -0)
(-3.49985e-08 -125057 -0)
(-3.98145e-08 -125057 -0)
(-4.48511e-08 -125057 -0)
(-4.59907e-08 -125057 -0)
(-4.61745e-08 -125057 -0)
(-4.59907e-08 -125057 -0)
(-4.63216e-08 -125057 -0)
(-4.58069e-08 -125057 -0)
(-4.17262e-08 -125057 -0)
(-3.81602e-08 -125057 -0)
(-3.58441e-08 -125057 -0)
(-3.26825e-08 -125057 -0)
(-2.84547e-08 -125057 -0)
(-2.26094e-08 -125057 -0)
(-1.77198e-08 -125057 -0)
(-1.22789e-08 -125057 -0)
(-7.13206e-09 -125057 -0)
(-2.94105e-09 -125057 -0)
(2.86753e-09 -125057 -0)
(7.35263e-09 -125057 -0)
(1.22421e-08 -125057 -0)
(1.71316e-08 -125057 -0)
(2.31976e-08 -125057 -0)
(2.89326e-08 -125057 -0)
(3.28295e-08 -125057 -0)
(3.58073e-08 -125057 -0)
(3.81969e-08 -125057 -0)
(4.27923e-08 -125057 -0)
(4.42629e-08 -125057 -0)
(4.46673e-08 -125057 -0)
(4.55128e-08 -125057 -0)
(4.55863e-08 -125057 -0)
(4.59172e-08 -125057 -0)
(4.33805e-08 -125057 -0)
(4.09542e-08 -125057 -0)
(3.78661e-08 -125057 -0)
(3.09546e-08 -125057 -0)
(1.97786e-08 -125057 -0)
(5.47771e-09 -125057 -0)
(-1.34921e-08 -125057 -0)
(-4.01821e-08 -125057 -0)
(-9.67607e-08 -125057 -0)
(-1.79e-07 -125057 -0)
(-4.68473e-07 -125057 -0)
(-9.49078e-07 -125057 -0)
(-8.77015e-06 -125057 -0)
(-2.51878e-05 -125057 -0)
(-1.7008e-05 -125057 -0)
(1.1463e-05 -78580 -0)
(1.71026e-05 -78580 -0)
(6.12265e-06 -78580 -0)
(7.41622e-07 -78580 -0)
(3.39695e-07 -78580 -0)
(1.30305e-07 -78580 -0)
(6.99357e-08 -78580 -0)
(2.96816e-08 -78580 -0)
(7.94779e-09 -78580 -0)
(-5.22494e-09 -78580 -0)
(-1.17009e-08 -78580 -0)
(-1.87166e-08 -78580 -0)
(-2.34754e-08 -78580 -0)
(-2.65662e-08 -78580 -0)
(-3.01722e-08 -78580 -0)
(-3.09817e-08 -78580 -0)
(-3.10307e-08 -78580 -0)
(-3.08836e-08 -78580 -0)
(-3.11289e-08 -78580 -0)
(-3.08836e-08 -78580 -0)
(-2.80135e-08 -78580 -0)
(-2.56096e-08 -78580 -0)
(-2.40151e-08 -78580 -0)
(-2.19791e-08 -78580 -0)
(-1.93053e-08 -78580 -0)
(-1.51597e-08 -78580 -0)
(-1.17009e-08 -78580 -0)
(-8.24215e-09 -78580 -0)
(-4.7098e-09 -78580 -0)
(-1.93789e-09 -78580 -0)
(1.79071e-09 -78580 -0)
(4.9551e-09 -78580 -0)
(8.21762e-09 -78580 -0)
(1.13575e-08 -78580 -0)
(1.56258e-08 -78580 -0)
(1.95506e-08 -78580 -0)
(2.20036e-08 -78580 -0)
(2.40151e-08 -78580 -0)
(2.56831e-08 -78580 -0)
(2.87249e-08 -78580 -0)
(2.98288e-08 -78580 -0)
(2.99759e-08 -78580 -0)
(3.0442e-08 -78580 -0)
(3.07609e-08 -78580 -0)
(3.09326e-08 -78580 -0)
(2.9191e-08 -78580 -0)
(2.74984e-08 -78580 -0)
(2.53152e-08 -78580 -0)
(2.05809e-08 -78580 -0)
(1.28538e-08 -78580 -0)
(2.79645e-09 -78580 -0)
(-1.06461e-08 -78580 -0)
(-2.98533e-08 -78580 -0)
(-7.01564e-08 -78580 -0)
(-1.31457e-07 -78580 -0)
(-3.40308e-07 -78580 -0)
(-7.4069e-07 -78580 -0)
(-6.12093e-06 -78580 -0)
(-1.71016e-05 -78580 -0)
(-1.14628e-05 -78580 -0)
(8.29177e-06 -54326.9 -0)
(1.24667e-05 -54326.9 -0)
(4.59017e-06 -54326.9 -0)
(6.16409e-07 -54326.9 -0)
(2.65938e-07 -54326.9 -0)
(1.02705e-07 -54326.9 -0)
(5.4517e-08 -54326.9 -0)
(2.3723e-08 -54326.9 -0)
(6.85881e-09 -54326.9 -0)
(-3.0405e-09 -54326.9 -0)
(-8.13158e-09 -54326.9 -0)
(-1.33641e-08 -54326.9 -0)
(-1.67228e-08 -54326.9 -0)
(-1.91976e-08 -54326.9 -0)
(-2.18492e-08 -54326.9 -0)
(-2.22735e-08 -54326.9 -0)
(-2.23088e-08 -54326.9 -0)
(-2.23088e-08 -54326.9 -0)
(-2.25563e-08 -54326.9 -0)
(-2.23795e-08 -54326.9 -0)
(-2.02229e-08 -54326.9 -0)
(-1.84198e-08 -54326.9 -0)
(-1.72177e-08 -54326.9 -0)
(-1.5945e-08 -54326.9 -0)
(-1.40358e-08 -54326.9 -0)
(-1.09246e-08 -54326.9 -0)
(-8.37907e-09 -54326.9 -0)
(-5.90424e-09 -54326.9 -0)
(-3.32334e-09 -54326.9 -0)
(-1.34348e-09 -54326.9 -0)
(1.30812e-09 -54326.9 -0)
(3.53547e-09 -54326.9 -0)
(5.86888e-09 -54326.9 -0)
(8.16694e-09 -54326.9 -0)
(1.13489e-08 -54326.9 -0)
(1.40358e-08 -54326.9 -0)
(1.58036e-08 -54326.9 -0)
(1.73592e-08 -54326.9 -0)
(1.84552e-08 -54326.9 -0)
(2.07179e-08 -54326.9 -0)
(2.15664e-08 -54326.9 -0)
(2.16371e-08 -54326.9 -0)
(2.19906e-08 -54326.9 -0)
(2.21674e-08 -54326.9 -0)
(2.23795e-08 -54326.9 -0)
(2.11068e-08 -54326.9 -0)
(1.97986e-08 -54326.9 -0)
(1.83137e-08 -54326.9 -0)
(1.46368e-08 -54326.9 -0)
(8.90939e-09 -54326.9 -0)
(1.27277e-09 -54326.9 -0)
(-8.83868e-09 -54326.9 -0)
(-2.37937e-08 -54326.9 -0)
(-5.46937e-08 -54326.9 -0)
(-1.03766e-07 -54326.9 -0)
(-2.66362e-07 -54326.9 -0)
(-6.15596e-07 -54326.9 -0)
(-4.58894e-06 -54326.9 -0)
(-1.24659e-05 -54326.9 -0)
(-8.29153e-06 -54326.9 -0)
(6.4191e-06 -40809 -0)
(9.72813e-06 -40809 -0)
(3.68518e-06 -40809 -0)
(5.44369e-07 -40809 -0)
(2.2354e-07 -40809 -0)
(8.68319e-08 -40809 -0)
(4.55512e-08 -40809 -0)
(2.0175e-08 -40809 -0)
(6.26876e-09 -40809 -0)
(-1.77934e-09 -40809 -0)
(-5.99501e-09 -40809 -0)
(-1.01559e-08 -40809 -0)
(-1.28934e-08 -40809 -0)
(-1.48096e-08 -40809 -0)
(-1.68901e-08 -40809 -0)
(-1.72186e-08 -40809 -0)
(-1.72186e-08 -40809 -0)
(-1.72459e-08 -40809 -0)
(-1.74376e-08 -40809 -0)
(-1.73828e-08 -40809 -0)
(-1.56582e-08 -40809 -0)
(-1.41526e-08 -40809 -0)
(-1.3304e-08 -40809 -0)
(-1.22638e-08 -40809 -0)
(-1.09224e-08 -40809 -0)
(-8.51347e-09 -40809 -0)
(-6.37826e-09 -40809 -0)
(-4.51679e-09 -40809 -0)
(-2.5732e-09 -40809 -0)
(-9.85482e-10 -40809 -0)
(9.85482e-10 -40809 -0)
(2.71007e-09 -40809 -0)
(4.48942e-09 -40809 -0)
(6.26876e-09 -40809 -0)
(8.81459e-09 -40809 -0)
(1.09224e-08 -40809 -0)
(1.2209e-08 -40809 -0)
(1.33588e-08 -40809 -0)
(1.42895e-08 -40809 -0)
(1.60688e-08 -40809 -0)
(1.66711e-08 -40809 -0)
(1.66711e-08 -40809 -0)
(1.69174e-08 -40809 -0)
(1.71091e-08 -40809 -0)
(1.73828e-08 -40809 -0)
(1.63152e-08 -40809 -0)
(1.53023e-08 -40809 -0)
(1.40705e-08 -40809 -0)
(1.12235e-08 -40809 -0)
(6.62463e-09 -40809 -0)
(3.83243e-10 -40809 -0)
(-7.88385e-09 -40809 -0)
(-2.02845e-08 -40809 -0)
(-4.56607e-08 -40809 -0)
(-8.75984e-08 -40809 -0)
(-2.23869e-07 -40809 -0)
(-5.43712e-07 -40809 -0)
(-3.68425e-06 -40809 -0)
(-9.72747e-06 -40809 -0)
(-6.41883e-06 -40809 -0)
(5.23853e-06 -32606.9 -0)
(8.004e-06 -32606.9 -0)
(3.12016e-06 -32606.9 -0)
(5.03586e-07 -32606.9 -0)
(1.98661e-07 -32606.9 -0)
(7.73904e-08 -32606.9 -0)
(4.014e-08 -32606.9 -0)
(1.8054e-08 -32606.9 -0)
(5.93587e-09 -32606.9 -0)
(-9.6318e-10 -32606.9 -0)
(-4.6367e-09 -32606.9 -0)
(-8.17583e-09 -32606.9 -0)
(-1.03934e-08 -32606.9 -0)
(-1.20285e-08 -32606.9 -0)
(-1.37981e-08 -32606.9 -0)
(-1.40893e-08 -32606.9 -0)
(-1.39997e-08 -32606.9 -0)
(-1.40221e-08 -32606.9 -0)
(-1.43133e-08 -32606.9 -0)
(-1.42237e-08 -32606.9 -0)
(-1.27229e-08 -32606.9 -0)
(-1.15582e-08 -32606.9 -0)
(-1.07966e-08 -32606.9 -0)
(-1.00126e-08 -32606.9 -0)
(-8.95981e-09 -32606.9 -0)
(-6.89905e-09 -32606.9 -0)
(-5.12949e-09 -32606.9 -0)
(-3.71832e-09 -32606.9 -0)
(-2.10556e-09 -32606.9 -0)
(-7.39184e-10 -32606.9 -0)
(7.83983e-10 -32606.9 -0)
(2.21755e-09 -32606.9 -0)
(3.62872e-09 -32606.9 -0)
(5.03989e-09 -32606.9 -0)
(7.21265e-09 -32606.9 -0)
(8.93741e-09 -32606.9 -0)
(9.90059e-09 -32606.9 -0)
(1.09086e-08 -32606.9 -0)
(1.16478e-08 -32606.9 -0)
(1.30813e-08 -32606.9 -0)
(1.36413e-08 -32606.9 -0)
(1.35965e-08 -32606.9 -0)
(1.37533e-08 -32606.9 -0)
(1.39997e-08 -32606.9 -0)
(1.41341e-08 -32606.9 -0)
(1.33501e-08 -32606.9 -0)
(1.24989e-08 -32606.9 -0)
(1.14014e-08 -32606.9 -0)
(9.02701e-09 -32606.9 -0)
(5.15189e-09 -32606.9 -0)
(-1.34397e-10 -32606.9 -0)
(-7.30225e-09 -32606.9 -0)
(-1.81884e-08 -32606.9 -0)
(-4.02743e-08 -32606.9 -0)
(-7.80399e-08 -32606.9 -0)
(-1.98953e-07 -32606.9 -0)
(-5.03004e-07 -32606.9 -0)
(-3.11934e-06 -32606.9 -0)
(-8.0034e-06 -32606.9 -0)
(-5.23831e-06 -32606.9 -0)
(4.42641e-06 -27123.1 -0)
(6.81988e-06 -27123.1 -0)
(2.73622e-06 -27123.1 -0)
(4.79621e-07 -27123.1 -0)
(1.83275e-07 -27123.1 -0)
(7.15534e-08 -27123.1 -0)
(3.67652e-08 -27123.1 -0)
(1.67288e-08 -27123.1 -0)
(5.72199e-09 -27123.1 -0)
(-3.99209e-10 -27123.1 -0)
(-3.68793e-09 -27123.1 -0)
(-6.80556e-09 -27123.1 -0)
(-8.72557e-09 -27123.1 -0)
(-1.01513e-08 -27123.1 -0)
(-1.16721e-08 -27123.1 -0)
(-1.18812e-08 -27123.1 -0)
(-1.18622e-08 -27123.1 -0)
(-1.19002e-08 -27123.1 -0)
(-1.20903e-08 -27123.1 -0)
(-1.20333e-08 -27123.1 -0)
(-1.07976e-08 -27123.1 -0)
(-9.73309e-09 -27123.1 -0)
(-9.12477e-09 -27123.1 -0)
(-8.45943e-09 -27123.1 -0)
(-7.62299e-09 -27123.1 -0)
(-5.83605e-09 -27123.1 -0)
(-4.25823e-09 -27123.1 -0)
(-3.15565e-09 -27123.1 -0)
(-1.76792e-09 -27123.1 -0)
(-6.46338e-10 -27123.1 -0)
(6.65348e-10 -27123.1 -0)
(1.88198e-09 -27123.1 -0)
(3.04159e-09 -27123.1 -0)
(4.22021e-09 -27123.1 -0)
(6.15922e-09 -27123.1 -0)
(7.56596e-09 -27123.1 -0)
(8.36438e-09 -27123.1 -0)
(9.20081e-09 -27123.1 -0)
(9.82814e-09 -27123.1 -0)
(1.10828e-08 -27123.1 -0)
(1.15771e-08 -27123.1 -0)
(1.1463e-08 -27123.1 -0)
(1.16531e-08 -27123.1 -0)
(1.18242e-08 -27123.1 -0)
(1.19192e-08 -27123.1 -0)
(1.13299e-08 -27123.1 -0)
(1.05505e-08 -27123.1 -0)
(9.61903e-09 -27123.1 -0)
(7.58497e-09 -27123.1 -0)
(4.10615e-09 -27123.1 -0)
(-6.08318e-10 -27123.1 -0)
(-6.93863e-09 -27123.1 -0)
(-1.68428e-08 -27123.1 -0)
(-3.68033e-08 -27123.1 -0)
(-7.21237e-08 -27123.1 -0)
(-1.83579e-07 -27123.1 -0)
(-4.79108e-07 -27123.1 -0)
(-2.73544e-06 -27123.1 -0)
(-6.8193e-06 -27123.1 -0)
(-4.42616e-06 -27123.1 -0)
(3.81706e-06 -23107 -0)
(5.93141e-06 -23107 -0)
(2.44944e-06 -23107 -0)
(4.64011e-07 -23107 -0)
(1.73124e-07 -23107 -0)
(6.75779e-08 -23107 -0)
(3.43412e-08 -23107 -0)
(1.5761e-08 -23107 -0)
(5.63836e-09 -23107 -0)
(8.24322e-11 -23107 -0)
(-2.95107e-09 -23107 -0)
(-5.78674e-09 -23107 -0)
(-7.48484e-09 -23107 -0)
(-8.73781e-09 -23107 -0)
(-1.00732e-08 -23107 -0)
(-1.0304e-08 -23107 -0)
(-1.02711e-08 -23107 -0)
(-1.02711e-08 -23107 -0)
(-1.04689e-08 -23107 -0)
(-1.04194e-08 -23107 -0)
(-9.34781e-09 -23107 -0)
(-8.3916e-09 -23107 -0)
(-7.88052e-09 -23107 -0)
(-7.31998e-09 -23107 -0)
(-6.61106e-09 -23107 -0)
(-5.04485e-09 -23107 -0)
(-3.61053e-09 -23107 -0)
(-2.68729e-09 -23107 -0)
(-1.5827e-09 -23107 -0)
(-5.1108e-10 -23107 -0)
(5.60539e-10 -23107 -0)
(1.56621e-09 -23107 -0)
(2.62134e-09 -23107 -0)
(3.6435e-09 -23107 -0)
(5.34161e-09 -23107 -0)
(6.5616e-09 -23107 -0)
(7.23755e-09 -23107 -0)
(7.92998e-09 -23107 -0)
(8.47403e-09 -23107 -0)
(9.59511e-09 -23107 -0)
(1.00073e-08 -23107 -0)
(9.92484e-09 -23107 -0)
(1.00897e-08 -23107 -0)
(1.01721e-08 -23107 -0)
(1.0337e-08 -23107 -0)
(9.82592e-09 -23107 -0)
(9.05105e-09 -23107 -0)
(8.29268e-09 -23107 -0)
(6.46268e-09 -23107 -0)
(3.34675e-09 -23107 -0)
(-9.06754e-10 -23107 -0)
(-6.74295e-09 -23107 -0)
(-1.58929e-08 -23107 -0)
(-3.43907e-08 -23107 -0)
(-6.8089e-08 -23107 -0)
(-1.73371e-07 -23107 -0)
(-4.63549e-07 -23107 -0)
(-2.44878e-06 -23107 -0)
(-5.93088e-06 -23107 -0)
(-3.81679e-06 -23107 -0)
(3.32762e-06 -19953.2 -0)
(5.2162e-06 -19953.2 -0)
(2.21745e-06 -19953.2 -0)
(4.52061e-07 -19953.2 -0)
(1.65655e-07 -19953.2 -0)
(6.46298e-08 -19953.2 -0)
(3.2532e-08 -19953.2 -0)
(1.50359e-08 -19953.2 -0)
(5.60047e-09 -19953.2 -0)
(4.7756e-10 -19953.2 -0)
(-2.41674e-09 -19953.2 -0)
(-4.94926e-09 -19953.2 -0)
(-6.45429e-09 -19953.2 -0)
(-7.64096e-09 -19953.2 -0)
(-8.87103e-09 -19953.2 -0)
(-9.03022e-09 -19953.2 -0)
(-8.95786e-09 -19953.2 -0)
(-9.00128e-09 -19953.2 -0)
(-9.20388e-09 -19953.2 -0)
(-9.11705e-09 -19953.2 -0)
(-8.1764e-09 -19953.2 -0)
(-7.35153e-09 -19953.2 -0)
(-6.88844e-09 -19953.2 -0)
(-6.41088e-09 -19953.2 -0)
(-5.83202e-09 -19953.2 -0)
(-4.41381e-09 -19953.2 -0)
(-3.11137e-09 -19953.2 -0)
(-2.35886e-09 -19953.2 -0)
(-1.38926e-09 -19953.2 -0)
(-3.90731e-10 -19953.2 -0)
(4.92031e-10 -19953.2 -0)
(1.37479e-09 -19953.2 -0)
(2.27203e-09 -19953.2 -0)
(3.14032e-09 -19953.2 -0)
(4.6743e-09 -19953.2 -0)
(5.80307e-09 -19953.2 -0)
(6.32405e-09 -19953.2 -0)
(6.91738e-09 -19953.2 -0)
(7.40941e-09 -19953.2 -0)
(8.39348e-09 -19953.2 -0)
(8.76973e-09 -19953.2 -0)
(8.74079e-09 -19953.2 -0)
(8.82762e-09 -19953.2 -0)
(8.87103e-09 -19953.2 -0)
(9.08811e-09 -19953.2 -0)
(8.62502e-09 -19953.2 -0)
(7.93039e-09 -19953.2 -0)
(7.17787e-09 -19953.2 -0)