/*--------------------------------*- C++ -*----------------------------------*\
| =========                 |                                                 |
| \\      /  F ield         | foam-extend: Open Source CFD                    |
|  \\    /   O peration     | Version:     4.0                                |
|   \\  /    A nd           | Web:         http://www.foam-extend.org         |
|    \\/     M anipulation  |                                                 |
\*---------------------------------------------------------------------------*/
FoamFile
{
    version     2.0;
    format      ascii;
    class       volScalarField;
    location    "8";
    object      p;
}
// * * * * * * * * * * * * * * * * * * * * * * * * * * * * * * * * * * * * * //

dimensions      [0 2 -2 0 0 0 0];

internalField   nonuniform List<scalar> 
6960
(
1.28284e-08
2.36633e-08
2.3334e-08
2.34595e-08
2.34481e-08
2.35513e-08
2.3574e-08
2.36263e-08
2.36228e-08
2.3613e-08
2.3567e-08
2.3516e-08
2.34558e-08
2.34081e-08
2.33754e-08
2.33679e-08
2.33827e-08
2.34179e-08
2.34637e-08
2.35113e-08
2.35505e-08
2.35748e-08
2.35804e-08
2.35683e-08
2.35424e-08
2.35094e-08
2.34764e-08
2.34495e-08
2.3433e-08
2.34283e-08
2.34344e-08
2.34484e-08
2.34663e-08
2.34839e-08
2.3498e-08
2.35066e-08
2.3509e-08
2.3506e-08
2.34989e-08
2.34901e-08
2.3481e-08
2.34735e-08
2.34676e-08
2.34645e-08
2.34625e-08
2.34627e-08
2.34619e-08
2.34628e-08
2.34609e-08
2.34615e-08
2.34578e-08
2.34598e-08
2.34545e-08
2.34609e-08
2.34508e-08
2.34657e-08
2.34427e-08
2.34695e-08
2.34297e-08
2.34638e-08
2.4169e-08
2.37319e-08
2.34007e-08
2.34923e-08
2.34248e-08
2.34762e-08
2.3459e-08
2.34905e-08
2.34886e-08
2.35033e-08
2.34984e-08
2.34975e-08
2.34856e-08
2.34757e-08
2.34628e-08
2.34543e-08
2.34485e-08
2.34485e-08
2.34524e-08
2.34603e-08
2.34693e-08
2.34781e-08
2.34847e-08
2.34882e-08
2.34881e-08
2.3485e-08
2.348e-08
2.34744e-08
2.34694e-08
2.34658e-08
2.34641e-08
2.34644e-08
2.34661e-08
2.34686e-08
2.34712e-08
2.34736e-08
2.34751e-08
2.3476e-08
2.34758e-08
2.34754e-08
2.34743e-08
2.34735e-08
2.34722e-08
2.34716e-08
2.34703e-08
2.34701e-08
2.34687e-08
2.34689e-08
2.34672e-08
2.34681e-08
2.34656e-08
2.34679e-08
2.34632e-08
2.34683e-08
2.34579e-08
2.34702e-08
2.34488e-08
2.34747e-08
2.34402e-08
2.34725e-08
2.75985e-08
2.37774e-08
2.34716e-08
2.35483e-08
2.34404e-08
2.34515e-08
2.33985e-08
2.34046e-08
2.33926e-08
2.34147e-08
2.34324e-08
2.34644e-08
2.3489e-08
2.35118e-08
2.35213e-08
2.3521e-08
2.35081e-08
2.34882e-08
2.3464e-08
2.34417e-08
2.34248e-08
2.34168e-08
2.3418e-08
2.34278e-08
2.3443e-08
2.34604e-08
2.34763e-08
2.34882e-08
2.34942e-08
2.34943e-08
2.34892e-08
2.3481e-08
2.34716e-08
2.34631e-08
2.34569e-08
2.34538e-08
2.34538e-08
2.34564e-08
2.34604e-08
2.34652e-08
2.34694e-08
2.34731e-08
2.3475e-08
2.34763e-08
2.34758e-08
2.34758e-08
2.34743e-08
2.34745e-08
2.34728e-08
2.34741e-08
2.34717e-08
2.34744e-08
2.34695e-08
2.34752e-08
2.34645e-08
2.34788e-08
2.34573e-08
2.34876e-08
2.34542e-08
2.34811e-08
2.39958e-08
2.37542e-08
2.34657e-08
2.35535e-08
2.34567e-08
2.34771e-08
2.34293e-08
2.34355e-08
2.34188e-08
2.34322e-08
2.34388e-08
2.34599e-08
2.34755e-08
2.3493e-08
2.35018e-08
2.35053e-08
2.34997e-08
2.34888e-08
2.34737e-08
2.34588e-08
2.34461e-08
2.34388e-08
2.34373e-08
2.34418e-08
2.34506e-08
2.34615e-08
2.34722e-08
2.34808e-08
2.34858e-08
2.34869e-08
2.34845e-08
2.34796e-08
2.34737e-08
2.34681e-08
2.34638e-08
2.34614e-08
2.3461e-08
2.34623e-08
2.34645e-08
2.34674e-08
2.34698e-08
2.34721e-08
2.34731e-08
2.3474e-08
2.34736e-08
2.34739e-08
2.34726e-08
2.34731e-08
2.34714e-08
2.34727e-08
2.34699e-08
2.34727e-08
2.34673e-08
2.34739e-08
2.34629e-08
2.3479e-08
2.34565e-08
2.34887e-08
2.34531e-08
2.34791e-08
2.22637e-08
2.37305e-08
2.34434e-08
2.35381e-08
2.34542e-08
2.34874e-08
2.345e-08
2.34633e-08
2.34485e-08
2.34584e-08
2.3457e-08
2.34672e-08
2.34714e-08
2.34793e-08
2.3482e-08
2.3484e-08
2.34816e-08
2.34779e-08
2.34721e-08
2.34665e-08
2.34616e-08
2.34587e-08
2.3458e-08
2.34597e-08
2.3463e-08
2.34672e-08
2.34714e-08
2.34748e-08
2.34768e-08
2.34773e-08
2.34764e-08
2.34747e-08
2.34724e-08
2.34703e-08
2.34685e-08
2.34676e-08
2.34673e-08
2.34678e-08
2.34684e-08
2.34695e-08
2.34702e-08
2.34711e-08
2.34712e-08
2.34716e-08
2.3471e-08
2.34713e-08
2.34701e-08
2.34707e-08
2.34689e-08
2.34702e-08
2.34673e-08
2.34701e-08
2.34647e-08
2.34712e-08
2.34601e-08
2.34757e-08
2.34529e-08
2.34837e-08
2.34479e-08
2.34752e-08
2.2733e-08
2.37182e-08
2.34338e-08
2.35315e-08
2.34522e-08
2.34901e-08
2.34569e-08
2.34732e-08
2.34595e-08
2.34685e-08
2.34646e-08
2.34709e-08
2.34709e-08
2.34749e-08
2.3475e-08
2.34761e-08
2.34746e-08
2.34732e-08
2.34707e-08
2.34687e-08
2.34667e-08
2.34659e-08
2.34658e-08
2.34667e-08
2.34681e-08
2.34699e-08
2.34716e-08
2.3473e-08
2.34738e-08
2.3474e-08
2.34735e-08
2.34728e-08
2.34719e-08
2.3471e-08
2.34703e-08
2.34699e-08
2.34698e-08
2.347e-08
2.34702e-08
2.34706e-08
2.34708e-08
2.34711e-08
2.34709e-08
2.34711e-08
2.34704e-08
2.34707e-08
2.34695e-08
2.34701e-08
2.34683e-08
2.34695e-08
2.34667e-08
2.34693e-08
2.3464e-08
2.34704e-08
2.34595e-08
2.34747e-08
2.3452e-08
2.34819e-08
2.34468e-08
2.3474e-08
2.30354e-08
2.37093e-08
2.34294e-08
2.35286e-08
2.34508e-08
2.34905e-08
2.34589e-08
2.34765e-08
2.34634e-08
2.34723e-08
2.34675e-08
2.34725e-08
2.3471e-08
2.34736e-08
2.34727e-08
2.34733e-08
2.3472e-08
2.34713e-08
2.34699e-08
2.34691e-08
2.34683e-08
2.34682e-08
2.34684e-08
2.34692e-08
2.34701e-08
2.34712e-08
2.3472e-08
2.34727e-08
2.3473e-08
2.3473e-08
2.34726e-08
2.34722e-08
2.34717e-08
2.34713e-08
2.34709e-08
2.34708e-08
2.34708e-08
2.34709e-08
2.3471e-08
2.34712e-08
2.34712e-08
2.34714e-08
2.3471e-08
2.34712e-08
2.34704e-08
2.34707e-08
2.34695e-08
2.347e-08
2.34682e-08
2.34695e-08
2.34666e-08
2.34693e-08
2.3464e-08
2.34703e-08
2.34594e-08
2.34745e-08
2.34518e-08
2.34813e-08
2.34467e-08
2.34736e-08
2.31457e-08
2.37017e-08
2.34275e-08
2.35277e-08
2.34501e-08
2.34904e-08
2.34591e-08
2.34771e-08
2.34642e-08
2.34731e-08
2.34683e-08
2.34731e-08
2.34712e-08
2.34734e-08
2.34723e-08
2.34727e-08
2.34713e-08
2.34708e-08
2.34696e-08
2.34691e-08
2.34686e-08
2.34687e-08
2.3469e-08
2.34698e-08
2.34707e-08
2.34715e-08
2.34722e-08
2.34727e-08
2.34729e-08
2.34728e-08
2.34725e-08
2.34721e-08
2.34717e-08
2.34713e-08
2.34711e-08
2.3471e-08
2.3471e-08
2.34711e-08
2.34712e-08
2.34714e-08
2.34713e-08
2.34715e-08
2.34711e-08
2.34712e-08
2.34705e-08
2.34707e-08
2.34695e-08
2.34701e-08
2.34683e-08
2.34695e-08
2.34666e-08
2.34693e-08
2.3464e-08
2.34704e-08
2.34594e-08
2.34744e-08
2.34518e-08
2.34811e-08
2.34468e-08
2.34734e-08
2.31835e-08
2.36945e-08
2.34266e-08
2.35275e-08
2.34499e-08
2.34902e-08
2.34589e-08
2.34769e-08
2.34641e-08
2.34731e-08
2.34683e-08
2.34731e-08
2.34713e-08
2.34736e-08
2.34724e-08
2.34728e-08
2.34714e-08
2.34708e-08
2.34696e-08
2.34691e-08
2.34685e-08
2.34686e-08
2.3469e-08
2.34698e-08
2.34707e-08
2.34715e-08
2.34722e-08
2.34728e-08
2.3473e-08
2.34729e-08
2.34725e-08
2.34722e-08
2.34717e-08
2.34714e-08
2.34711e-08
2.3471e-08
2.3471e-08
2.34711e-08
2.34712e-08
2.34714e-08
2.34714e-08
2.34716e-08
2.34712e-08
2.34713e-08
2.34705e-08
2.34708e-08
2.34696e-08
2.34701e-08
2.34683e-08
2.34695e-08
2.34666e-08
2.34693e-08
2.34641e-08
2.34704e-08
2.34595e-08
2.34744e-08
2.34518e-08
2.3481e-08
2.3447e-08
2.34734e-08
2.31992e-08
2.36874e-08
2.34261e-08
2.35276e-08
2.34499e-08
2.34901e-08
2.34587e-08
2.34766e-08
2.34637e-08
2.34728e-08
2.3468e-08
2.3473e-08
2.34713e-08
2.34737e-08
2.34726e-08
2.34731e-08
2.34716e-08
2.3471e-08
2.34697e-08
2.34691e-08
2.34684e-08
2.34684e-08
2.34688e-08
2.34696e-08
2.34705e-08
2.34714e-08
2.34722e-08
2.34728e-08
2.34731e-08
2.3473e-08
2.34727e-08
2.34723e-08
2.34718e-08
2.34714e-08
2.3471e-08
2.34709e-08
2.34709e-08
2.34711e-08
2.34711e-08
2.34714e-08
2.34713e-08
2.34715e-08
2.34712e-08
2.34713e-08
2.34706e-08
2.34708e-08
2.34696e-08
2.34701e-08
2.34683e-08
2.34695e-08
2.34666e-08
2.34693e-08
2.34641e-08
2.34704e-08
2.34595e-08
2.34745e-08
2.34519e-08
2.3481e-08
2.34471e-08
2.34733e-08
2.32089e-08
2.36804e-08
2.34257e-08
2.35277e-08
2.345e-08
2.34901e-08
2.34585e-08
2.34763e-08
2.34633e-08
2.34724e-08
2.34676e-08
2.34727e-08
2.34712e-08
2.34737e-08
2.34728e-08
2.34733e-08
2.3472e-08
2.34713e-08
2.34699e-08
2.34691e-08
2.34684e-08
2.34683e-08
2.34685e-08
2.34693e-08
2.34702e-08
2.34713e-08
2.34721e-08
2.34728e-08
2.34731e-08
2.34731e-08
2.34728e-08
2.34724e-08
2.34719e-08
2.34714e-08
2.3471e-08
2.34709e-08
2.34708e-08
2.3471e-08
2.3471e-08
2.34713e-08
2.34713e-08
2.34715e-08
2.34712e-08
2.34713e-08
2.34706e-08
2.34708e-08
2.34696e-08
2.34701e-08
2.34683e-08
2.34695e-08
2.34667e-08
2.34693e-08
2.34641e-08
2.34705e-08
2.34595e-08
2.34745e-08
2.34519e-08
2.34809e-08
2.34472e-08
2.34733e-08
2.32174e-08
2.36734e-08
2.34254e-08
2.35278e-08
2.34501e-08
2.34902e-08
2.34584e-08
2.34761e-08
2.34629e-08
2.34719e-08
2.34672e-08
2.34724e-08
2.3471e-08
2.34737e-08
2.34729e-08
2.34736e-08
2.34723e-08
2.34716e-08
2.34701e-08
2.34693e-08
2.34683e-08
2.34681e-08
2.34683e-08
2.3469e-08
2.347e-08
2.3471e-08
2.3472e-08
2.34728e-08
2.34732e-08
2.34732e-08
2.3473e-08
2.34725e-08
2.3472e-08
2.34715e-08
2.34711e-08
2.34709e-08
2.34708e-08
2.34709e-08
2.34709e-08
2.34712e-08
2.34712e-08
2.34715e-08
2.34712e-08
2.34713e-08
2.34706e-08
2.34708e-08
2.34696e-08
2.34701e-08
2.34683e-08
2.34695e-08
2.34667e-08
2.34694e-08
2.34641e-08
2.34705e-08
2.34595e-08
2.34746e-08
2.34519e-08
2.34809e-08
2.34473e-08
2.34732e-08
2.32254e-08
2.36665e-08
2.34252e-08
2.3528e-08
2.34504e-08
2.34903e-08
2.34583e-08
2.34758e-08
2.34626e-08
2.34715e-08
2.34667e-08
2.3472e-08
2.34707e-08
2.34737e-08
2.34731e-08
2.34739e-08
2.34727e-08
2.3472e-08
2.34705e-08
2.34695e-08
2.34684e-08
2.3468e-08
2.34681e-08
2.34687e-08
2.34697e-08
2.34708e-08
2.34718e-08
2.34727e-08
2.34732e-08
2.34734e-08
2.34731e-08
2.34727e-08
2.34722e-08
2.34716e-08
2.34711e-08
2.34708e-08
2.34707e-08
2.34708e-08
2.34708e-08
2.34711e-08
2.34711e-08
2.34714e-08
2.34711e-08
2.34713e-08
2.34706e-08
2.34709e-08
2.34696e-08
2.34701e-08
2.34683e-08
2.34695e-08
2.34667e-08
2.34694e-08
2.34641e-08
2.34706e-08
2.34596e-08
2.34746e-08
2.34519e-08
2.34809e-08
2.34474e-08
2.34732e-08
2.32333e-08
2.36596e-08
2.3425e-08
2.35281e-08
2.34507e-08
2.34905e-08
2.34583e-08
2.34757e-08
2.34622e-08
2.3471e-08
2.34662e-08
2.34715e-08
2.34704e-08
2.34735e-08
2.34731e-08
2.34742e-08
2.34731e-08
2.34724e-08
2.34708e-08
2.34697e-08
2.34685e-08
2.34679e-08
2.34678e-08
2.34684e-08
2.34693e-08
2.34705e-08
2.34716e-08
2.34726e-08
2.34732e-08
2.34735e-08
2.34733e-08
2.34729e-08
2.34723e-08
2.34717e-08
2.34711e-08
2.34708e-08
2.34706e-08
2.34707e-08
2.34707e-08
2.3471e-08
2.34711e-08
2.34714e-08
2.34711e-08
2.34713e-08
2.34706e-08
2.34709e-08
2.34697e-08
2.34701e-08
2.34683e-08
2.34695e-08
2.34666e-08
2.34694e-08
2.34641e-08
2.34706e-08
2.34596e-08
2.34747e-08
2.34519e-08
2.34809e-08
2.34475e-08
2.34731e-08
2.32409e-08
2.36528e-08
2.3425e-08
2.35282e-08
2.34511e-08
2.34908e-08
2.34584e-08
2.34755e-08
2.34618e-08
2.34705e-08
2.34657e-08
2.3471e-08
2.347e-08
2.34734e-08
2.34732e-08
2.34744e-08
2.34734e-08
2.34729e-08
2.34712e-08
2.347e-08
2.34686e-08
2.34679e-08
2.34676e-08
2.34681e-08
2.3469e-08
2.34702e-08
2.34714e-08
2.34725e-08
2.34732e-08
2.34735e-08
2.34734e-08
2.34731e-08
2.34725e-08
2.34719e-08
2.34712e-08
2.34708e-08
2.34706e-08
2.34706e-08
2.34706e-08
2.34709e-08
2.3471e-08
2.34713e-08
2.34711e-08
2.34713e-08
2.34706e-08
2.34709e-08
2.34697e-08
2.34702e-08
2.34683e-08
2.34695e-08
2.34666e-08
2.34694e-08
2.34642e-08
2.34706e-08
2.34596e-08
2.34747e-08
2.34519e-08
2.34809e-08
2.34476e-08
2.34731e-08
2.32484e-08
2.3646e-08
2.3425e-08
2.35283e-08
2.34515e-08
2.34911e-08
2.34586e-08
2.34754e-08
2.34615e-08
2.347e-08
2.34651e-08
2.34705e-08
2.34696e-08
2.34731e-08
2.34731e-08
2.34746e-08
2.34738e-08
2.34733e-08
2.34717e-08
2.34703e-08
2.34688e-08
2.34679e-08
2.34675e-08
2.34678e-08
2.34686e-08
2.34698e-08
2.34711e-08
2.34723e-08
2.34732e-08
2.34736e-08
2.34736e-08
2.34733e-08
2.34727e-08
2.3472e-08
2.34713e-08
2.34709e-08
2.34705e-08
2.34705e-08
2.34705e-08
2.34708e-08
2.34709e-08
2.34712e-08
2.3471e-08
2.34713e-08
2.34706e-08
2.34709e-08
2.34697e-08
2.34702e-08
2.34683e-08
2.34695e-08
2.34666e-08
2.34694e-08
2.34642e-08
2.34707e-08
2.34597e-08
2.34748e-08
2.3452e-08
2.3481e-08
2.34477e-08
2.3473e-08
2.32556e-08
2.36393e-08
2.34251e-08
2.35284e-08
2.3452e-08
2.34914e-08
2.34588e-08
2.34754e-08
2.34613e-08
2.34695e-08
2.34645e-08
2.34699e-08
2.34691e-08
2.34728e-08
2.34731e-08
2.34748e-08
2.34741e-08
2.34738e-08
2.34721e-08
2.34707e-08
2.3469e-08
2.3468e-08
2.34674e-08
2.34676e-08
2.34683e-08
2.34695e-08
2.34708e-08
2.34721e-08
2.34731e-08
2.34736e-08
2.34737e-08
2.34735e-08
2.34729e-08
2.34722e-08
2.34714e-08
2.34709e-08
2.34705e-08
2.34704e-08
2.34704e-08
2.34707e-08
2.34707e-08
2.34711e-08
2.3471e-08
2.34713e-08
2.34706e-08
2.34709e-08
2.34697e-08
2.34702e-08
2.34683e-08
2.34695e-08
2.34666e-08
2.34694e-08
2.34642e-08
2.34707e-08
2.34597e-08
2.34748e-08
2.3452e-08
2.3481e-08
2.34477e-08
2.3473e-08
2.32628e-08
2.36327e-08
2.34252e-08
2.35284e-08
2.34526e-08
2.34919e-08
2.34591e-08
2.34754e-08
2.3461e-08
2.3469e-08
2.34639e-08
2.34692e-08
2.34685e-08
2.34724e-08
2.34729e-08
2.34749e-08
2.34745e-08
2.34742e-08
2.34726e-08
2.34712e-08
2.34693e-08
2.34681e-08
2.34673e-08
2.34673e-08
2.34679e-08
2.34691e-08
2.34704e-08
2.34718e-08
2.3473e-08
2.34737e-08
2.34738e-08
2.34737e-08
2.34731e-08
2.34724e-08
2.34716e-08
2.3471e-08
2.34705e-08
2.34704e-08
2.34703e-08
2.34705e-08
2.34706e-08
2.3471e-08
2.34709e-08
2.34712e-08
2.34706e-08
2.34709e-08
2.34697e-08
2.34702e-08
2.34683e-08
2.34695e-08
2.34666e-08
2.34694e-08
2.34642e-08
2.34708e-08
2.34597e-08
2.34749e-08
2.3452e-08
2.34811e-08
2.34477e-08
2.3473e-08
2.32698e-08
2.36261e-08
2.34254e-08
2.35284e-08
2.34532e-08
2.34923e-08
2.34595e-08
2.34755e-08
2.34609e-08
2.34686e-08
2.34633e-08
2.34685e-08
2.34679e-08
2.34719e-08
2.34727e-08
2.34749e-08
2.34748e-08
2.34747e-08
2.34732e-08
2.34717e-08
2.34697e-08
2.34683e-08
2.34672e-08
2.34671e-08
2.34676e-08
2.34687e-08
2.347e-08
2.34715e-08
2.34728e-08
2.34736e-08
2.34739e-08
2.34738e-08
2.34733e-08
2.34726e-08
2.34718e-08
2.34711e-08
2.34705e-08
2.34703e-08
2.34702e-08
2.34704e-08
2.34705e-08
2.34709e-08
2.34708e-08
2.34712e-08
2.34706e-08
2.34709e-08
2.34697e-08
2.34702e-08
2.34683e-08
2.34695e-08
2.34666e-08
2.34694e-08
2.34642e-08
2.34708e-08
2.34598e-08
2.3475e-08
2.3452e-08
2.34811e-08
2.34477e-08
2.3473e-08
2.32768e-08
2.36195e-08
2.34256e-08
2.35283e-08
2.34539e-08
2.34928e-08
2.346e-08
2.34757e-08
2.34608e-08
2.34682e-08
2.34627e-08
2.34678e-08
2.34672e-08
2.34714e-08
2.34724e-08
2.34749e-08
2.3475e-08
2.34751e-08
2.34737e-08
2.34722e-08
2.34701e-08
2.34685e-08
2.34672e-08
2.34669e-08
2.34672e-08
2.34682e-08
2.34696e-08
2.34712e-08
2.34726e-08
2.34736e-08
2.3474e-08
2.3474e-08
2.34736e-08
2.34728e-08
2.34719e-08
2.34712e-08
2.34706e-08
2.34703e-08
2.34701e-08
2.34703e-08
2.34704e-08
2.34708e-08
2.34707e-08
2.34711e-08
2.34706e-08
2.34709e-08
2.34697e-08
2.34702e-08
2.34683e-08
2.34695e-08
2.34666e-08
2.34694e-08
2.34642e-08
2.34708e-08
2.34598e-08
2.34751e-08
2.3452e-08
2.34812e-08
2.34477e-08
2.3473e-08
2.32836e-08
2.3613e-08
2.34258e-08
2.35282e-08
2.34546e-08
2.34934e-08
2.34605e-08
2.34759e-08
2.34608e-08
2.34679e-08
2.34621e-08
2.34671e-08
2.34665e-08
2.34708e-08
2.3472e-08
2.34748e-08
2.34752e-08
2.34756e-08
2.34743e-08
2.34728e-08
2.34706e-08
2.34688e-08
2.34673e-08
2.34667e-08
2.34669e-08
2.34678e-08
2.34692e-08
2.34708e-08
2.34723e-08
2.34735e-08
2.34741e-08
2.34742e-08
2.34738e-08
2.34731e-08
2.34721e-08
2.34713e-08
2.34706e-08
2.34703e-08
2.347e-08
2.34702e-08
2.34702e-08
2.34707e-08
2.34706e-08
2.34711e-08
2.34705e-08
2.34709e-08
2.34697e-08
2.34702e-08
2.34683e-08
2.34695e-08
2.34666e-08
2.34694e-08
2.34642e-08
2.34709e-08
2.34599e-08
2.34752e-08
2.3452e-08
2.34814e-08
2.34477e-08
2.3473e-08
2.32904e-08
2.36066e-08
2.34261e-08
2.3528e-08
2.34553e-08
2.3494e-08
2.34612e-08
2.34763e-08
2.34609e-08
2.34676e-08
2.34616e-08
2.34664e-08
2.34657e-08
2.34701e-08
2.34716e-08
2.34746e-08
2.34753e-08
2.3476e-08
2.34748e-08
2.34734e-08
2.34711e-08
2.34691e-08
2.34674e-08
2.34666e-08
2.34666e-08
2.34674e-08
2.34687e-08
2.34704e-08
2.3472e-08
2.34733e-08
2.34741e-08
2.34743e-08
2.3474e-08
2.34733e-08
2.34724e-08
2.34715e-08
2.34707e-08
2.34703e-08
2.34699e-08
2.347e-08
2.34701e-08
2.34706e-08
2.34705e-08
2.3471e-08
2.34705e-08
2.34709e-08
2.34697e-08
2.34702e-08
2.34683e-08
2.34695e-08
2.34665e-08
2.34694e-08
2.34642e-08
2.34709e-08
2.34599e-08
2.34753e-08
2.34521e-08
2.34815e-08
2.34477e-08
2.3473e-08
2.32971e-08
2.36002e-08
2.34264e-08
2.35277e-08
2.3456e-08
2.34946e-08
2.34619e-08
2.34767e-08
2.34611e-08
2.34674e-08
2.34611e-08
2.34657e-08
2.3465e-08
2.34694e-08
2.3471e-08
2.34744e-08
2.34754e-08
2.34763e-08
2.34754e-08
2.3474e-08
2.34717e-08
2.34696e-08
2.34677e-08
2.34666e-08
2.34663e-08
2.3467e-08
2.34683e-08
2.347e-08
2.34717e-08
2.34731e-08
2.3474e-08
2.34744e-08
2.34742e-08
2.34736e-08
2.34726e-08
2.34717e-08
2.34708e-08
2.34703e-08
2.34699e-08
2.34699e-08
2.34699e-08
2.34704e-08
2.34704e-08
2.34709e-08
2.34704e-08
2.34709e-08
2.34697e-08
2.34702e-08
2.34683e-08
2.34695e-08
2.34665e-08
2.34694e-08
2.34642e-08
2.34709e-08
2.34599e-08
2.34753e-08
2.34521e-08
2.34817e-08
2.34476e-08
2.3473e-08
2.33038e-08
2.35939e-08
2.34266e-08
2.35273e-08
2.34568e-08
2.34953e-08
2.34627e-08
2.34772e-08
2.34614e-08
2.34673e-08
2.34607e-08
2.3465e-08
2.34641e-08
2.34686e-08
2.34704e-08
2.3474e-08
2.34754e-08
2.34766e-08
2.34759e-08
2.34747e-08
2.34723e-08
2.34701e-08
2.34679e-08
2.34666e-08
2.34661e-08
2.34666e-08
2.34678e-08
2.34695e-08
2.34713e-08
2.34729e-08
2.3474e-08
2.34745e-08
2.34744e-08
2.34738e-08
2.34729e-08
2.34719e-08
2.3471e-08
2.34703e-08
2.34698e-08
2.34698e-08
2.34698e-08
2.34703e-08
2.34703e-08
2.34708e-08
2.34704e-08
2.34708e-08
2.34697e-08
2.34702e-08
2.34683e-08
2.34694e-08
2.34665e-08
2.34693e-08
2.34642e-08
2.34709e-08
2.346e-08
2.34754e-08
2.34521e-08
2.34819e-08
2.34475e-08
2.34731e-08
2.33105e-08
2.35876e-08
2.34268e-08
2.35267e-08
2.34575e-08
2.34959e-08
2.34636e-08
2.34778e-08
2.34618e-08
2.34673e-08
2.34604e-08
2.34643e-08
2.34633e-08
2.34677e-08
2.34697e-08
2.34736e-08
2.34753e-08
2.34768e-08
2.34764e-08
2.34753e-08
2.3473e-08
2.34706e-08
2.34683e-08
2.34667e-08
2.3466e-08
2.34662e-08
2.34673e-08
2.3469e-08
2.34709e-08
2.34726e-08
2.34739e-08
2.34745e-08
2.34746e-08
2.34741e-08
2.34732e-08
2.34722e-08
2.34711e-08
2.34704e-08
2.34698e-08
2.34697e-08
2.34697e-08
2.34701e-08
2.34701e-08
2.34707e-08
2.34703e-08
2.34708e-08
2.34697e-08
2.34702e-08
2.34683e-08
2.34694e-08
2.34665e-08
2.34693e-08
2.34642e-08
2.34709e-08
2.346e-08
2.34755e-08
2.34521e-08
2.34821e-08
2.34473e-08
2.34731e-08
2.3317e-08
2.35814e-08
2.3427e-08
2.35261e-08
2.34583e-08
2.34966e-08
2.34645e-08
2.34786e-08
2.34623e-08
2.34674e-08
2.34601e-08
2.34637e-08
2.34625e-08
2.34668e-08
2.34689e-08
2.3473e-08
2.3475e-08
2.3477e-08
2.34768e-08
2.3476e-08
2.34737e-08
2.34713e-08
2.34687e-08
2.34669e-08
2.34659e-08
2.34659e-08
2.34668e-08
2.34685e-08
2.34704e-08
2.34723e-08
2.34737e-08
2.34745e-08
2.34747e-08
2.34743e-08
2.34735e-08
2.34724e-08
2.34713e-08
2.34705e-08
2.34698e-08
2.34697e-08
2.34696e-08
2.347e-08
2.347e-08
2.34706e-08
2.34702e-08
2.34708e-08
2.34697e-08
2.34702e-08
2.34683e-08
2.34694e-08
2.34664e-08
2.34693e-08
2.34641e-08
2.34709e-08
2.346e-08
2.34756e-08
2.34521e-08
2.34824e-08
2.34472e-08
2.34732e-08
2.33235e-08
2.35752e-08
2.34272e-08
2.35253e-08
2.3459e-08
2.34972e-08
2.34655e-08
2.34793e-08
2.34629e-08
2.34676e-08
2.346e-08
2.34632e-08
2.34617e-08
2.34659e-08
2.34681e-08
2.34724e-08
2.34747e-08
2.3477e-08
2.34772e-08
2.34766e-08
2.34744e-08
2.34719e-08
2.34692e-08
2.34672e-08
2.34658e-08
2.34656e-08
2.34664e-08
2.3468e-08
2.34699e-08
2.34719e-08
2.34735e-08
2.34745e-08
2.34748e-08
2.34746e-08
2.34737e-08
2.34727e-08
2.34716e-08
2.34707e-08
2.34699e-08
2.34696e-08
2.34694e-08
2.34698e-08
2.34698e-08
2.34704e-08
2.34701e-08
2.34707e-08
2.34696e-08
2.34702e-08
2.34683e-08
2.34694e-08
2.34664e-08
2.34693e-08
2.34641e-08
2.34709e-08
2.34601e-08
2.34757e-08
2.34521e-08
2.34827e-08
2.3447e-08
2.34733e-08
2.33298e-08
2.35691e-08
2.34273e-08
2.35243e-08
2.34596e-08
2.34978e-08
2.34666e-08
2.34802e-08
2.34637e-08
2.3468e-08
2.34599e-08
2.34627e-08
2.3461e-08
2.3465e-08
2.34671e-08
2.34716e-08
2.34743e-08
2.34769e-08
2.34775e-08
2.34772e-08
2.34752e-08
2.34727e-08
2.34698e-08
2.34675e-08
2.34659e-08
2.34654e-08
2.3466e-08
2.34674e-08
2.34694e-08
2.34714e-08
2.34732e-08
2.34744e-08
2.34749e-08
2.34748e-08
2.3474e-08
2.3473e-08
2.34718e-08
2.34708e-08
2.347e-08
2.34696e-08
2.34693e-08
2.34697e-08
2.34697e-08
2.34703e-08
2.347e-08
2.34706e-08
2.34696e-08
2.34702e-08
2.34682e-08
2.34694e-08
2.34664e-08
2.34692e-08
2.34641e-08
2.34709e-08
2.34601e-08
2.34758e-08
2.34521e-08
2.3483e-08
2.34467e-08
2.34735e-08
2.33361e-08
2.3563e-08
2.34273e-08
2.35232e-08
2.34602e-08
2.34984e-08
2.34676e-08
2.34811e-08
2.34646e-08
2.34685e-08
2.34601e-08
2.34624e-08
2.34603e-08
2.34641e-08
2.34662e-08
2.34708e-08
2.34738e-08
2.34768e-08
2.34777e-08
2.34777e-08
2.34759e-08
2.34734e-08
2.34705e-08
2.34679e-08
2.34661e-08
2.34653e-08
2.34656e-08
2.34669e-08
2.34688e-08
2.34709e-08
2.34728e-08
2.34742e-08
2.34749e-08
2.34749e-08
2.34743e-08
2.34733e-08
2.34721e-08
2.3471e-08
2.347e-08
2.34696e-08
2.34693e-08
2.34695e-08
2.34695e-08
2.34702e-08
2.34699e-08
2.34706e-08
2.34696e-08
2.34702e-08
2.34682e-08
2.34694e-08
2.34664e-08
2.34692e-08
2.34641e-08
2.34709e-08
2.34601e-08
2.34759e-08
2.34521e-08
2.34834e-08
2.34464e-08
2.34737e-08
2.33422e-08
2.35571e-08
2.34273e-08
2.35219e-08
2.34607e-08
2.34989e-08
2.34687e-08
2.34821e-08
2.34656e-08
2.34691e-08
2.34603e-08
2.34621e-08
2.34597e-08
2.34632e-08
2.34652e-08
2.34699e-08
2.34731e-08
2.34765e-08
2.34779e-08
2.34782e-08
2.34766e-08
2.34742e-08
2.34712e-08
2.34685e-08
2.34663e-08
2.34652e-08
2.34653e-08
2.34664e-08
2.34683e-08
2.34704e-08
2.34724e-08
2.3474e-08
2.34749e-08
2.34751e-08
2.34746e-08
2.34736e-08
2.34724e-08
2.34713e-08
2.34702e-08
2.34696e-08
2.34692e-08
2.34694e-08
2.34694e-08
2.347e-08
2.34698e-08
2.34705e-08
2.34695e-08
2.34702e-08
2.34682e-08
2.34694e-08
2.34664e-08
2.34691e-08
2.3464e-08
2.34708e-08
2.34601e-08
2.3476e-08
2.34521e-08
2.34838e-08
2.34461e-08
2.34739e-08
2.33482e-08
2.35512e-08
2.34272e-08
2.35205e-08
2.34611e-08
2.34992e-08
2.34698e-08
2.34831e-08
2.34667e-08
2.34699e-08
2.34607e-08
2.3462e-08
2.34592e-08
2.34623e-08
2.34642e-08
2.34689e-08
2.34723e-08
2.34761e-08
2.34779e-08
2.34785e-08
2.34773e-08
2.34751e-08
2.3472e-08
2.34691e-08
2.34666e-08
2.34653e-08
2.3465e-08
2.3466e-08
2.34677e-08
2.34699e-08
2.3472e-08
2.34737e-08
2.34748e-08
2.34752e-08
2.34748e-08
2.34739e-08
2.34727e-08
2.34715e-08
2.34703e-08
2.34697e-08
2.34692e-08
2.34693e-08
2.34692e-08
2.34699e-08
2.34696e-08
2.34704e-08
2.34695e-08
2.34701e-08
2.34682e-08
2.34694e-08
2.34663e-08
2.34691e-08
2.3464e-08
2.34708e-08
2.34601e-08
2.3476e-08
2.3452e-08
2.34842e-08
2.34457e-08
2.34741e-08
2.33541e-08
2.35455e-08
2.3427e-08
2.35188e-08
2.34614e-08
2.34995e-08
2.34708e-08
2.34842e-08
2.34679e-08
2.34707e-08
2.34613e-08
2.34621e-08
2.34588e-08
2.34615e-08
2.34632e-08
2.34679e-08
2.34715e-08
2.34755e-08
2.34777e-08
2.34788e-08
2.34779e-08
2.34759e-08
2.34728e-08
2.34698e-08
2.34671e-08
2.34654e-08
2.34649e-08
2.34655e-08
2.34671e-08
2.34693e-08
2.34715e-08
2.34734e-08
2.34747e-08
2.34752e-08
2.3475e-08
2.34742e-08
2.3473e-08
2.34718e-08
2.34705e-08
2.34698e-08
2.34691e-08
2.34692e-08
2.34691e-08
2.34697e-08
2.34695e-08
2.34703e-08
2.34694e-08
2.34701e-08
2.34682e-08
2.34694e-08
2.34663e-08
2.34691e-08
2.3464e-08
2.34707e-08
2.34601e-08
2.34761e-08
2.3452e-08
2.34847e-08
2.34453e-08
2.34744e-08
2.33598e-08
2.35399e-08
2.34267e-08
2.35169e-08
2.34616e-08
2.34996e-08
2.34717e-08
2.34852e-08
2.34691e-08
2.34718e-08
2.3462e-08
2.34623e-08
2.34585e-08
2.34608e-08
2.34622e-08
2.34668e-08
2.34705e-08
2.34749e-08
2.34775e-08
2.3479e-08
2.34784e-08
2.34767e-08
2.34737e-08
2.34706e-08
2.34676e-08
2.34656e-08
2.34648e-08
2.34652e-08
2.34666e-08
2.34687e-08
2.34709e-08
2.3473e-08
2.34745e-08
2.34752e-08
2.34752e-08
2.34745e-08
2.34733e-08
2.34721e-08
2.34708e-08
2.34699e-08
2.34692e-08
2.34691e-08
2.34689e-08
2.34695e-08
2.34694e-08
2.34702e-08
2.34693e-08
2.34701e-08
2.34682e-08
2.34694e-08
2.34663e-08
2.3469e-08
2.34639e-08
2.34706e-08
2.34601e-08
2.34761e-08
2.34519e-08
2.34853e-08
2.34448e-08
2.34747e-08
2.33653e-08
2.35345e-08
2.34263e-08
2.35149e-08
2.34616e-08
2.34996e-08
2.34726e-08
2.34862e-08
2.34704e-08
2.34729e-08
2.34629e-08
2.34627e-08
2.34584e-08
2.34602e-08
2.34612e-08
2.34656e-08
2.34695e-08
2.34741e-08
2.34771e-08
2.3479e-08
2.34789e-08
2.34774e-08
2.34746e-08
2.34714e-08
2.34683e-08
2.3466e-08
2.34648e-08
2.34649e-08
2.34661e-08
2.34681e-08
2.34703e-08
2.34725e-08
2.34742e-08
2.34752e-08
2.34753e-08
2.34748e-08
2.34737e-08
2.34724e-08
2.3471e-08
2.34701e-08
2.34692e-08
2.34691e-08
2.34688e-08
2.34694e-08
2.34692e-08
2.347e-08
2.34692e-08
2.347e-08
2.34682e-08
2.34694e-08
2.34663e-08
2.3469e-08
2.34639e-08
2.34705e-08
2.34601e-08
2.34761e-08
2.34518e-08
2.34859e-08
2.34442e-08
2.34751e-08
2.33706e-08
2.35293e-08
2.34259e-08
2.35126e-08
2.34615e-08
2.34994e-08
2.34734e-08
2.34871e-08
2.34718e-08
2.34741e-08
2.3464e-08
2.34633e-08
2.34585e-08
2.34597e-08
2.34604e-08
2.34645e-08
2.34683e-08
2.34731e-08
2.34765e-08
2.34789e-08
2.34792e-08
2.34781e-08
2.34755e-08
2.34723e-08
2.3469e-08
2.34665e-08
2.34649e-08
2.34647e-08
2.34656e-08
2.34675e-08
2.34697e-08
2.3472e-08
2.34738e-08
2.3475e-08
2.34753e-08
2.3475e-08
2.3474e-08
2.34727e-08
2.34713e-08
2.34703e-08
2.34693e-08
2.34691e-08
2.34687e-08
2.34693e-08
2.34691e-08
2.34699e-08
2.34692e-08
2.347e-08
2.34682e-08
2.34694e-08
2.34663e-08
2.34689e-08
2.34639e-08
2.34704e-08
2.34601e-08
2.34761e-08
2.34517e-08
2.34865e-08
2.34435e-08
2.34755e-08
2.33758e-08
2.35244e-08
2.34254e-08
2.35102e-08
2.34613e-08
2.3499e-08
2.3474e-08
2.3488e-08
2.34731e-08
2.34754e-08
2.34652e-08
2.3464e-08
2.34588e-08
2.34594e-08
2.34596e-08
2.34634e-08
2.34672e-08
2.34721e-08
2.34758e-08
2.34787e-08
2.34795e-08
2.34787e-08
2.34763e-08
2.34732e-08
2.34699e-08
2.3467e-08
2.34652e-08
2.34646e-08
2.34653e-08
2.34669e-08
2.34691e-08
2.34714e-08
2.34734e-08
2.34748e-08
2.34753e-08
2.34751e-08
2.34743e-08
2.34731e-08
2.34716e-08
2.34705e-08
2.34694e-08
2.34691e-08
2.34687e-08
2.34691e-08
2.34689e-08
2.34698e-08
2.34691e-08
2.347e-08
2.34682e-08
2.34694e-08
2.34663e-08
2.34689e-08
2.34639e-08
2.34703e-08
2.34601e-08
2.34761e-08
2.34515e-08
2.34872e-08
2.34428e-08
2.34759e-08
2.33807e-08
2.35197e-08
2.34248e-08
2.35076e-08
2.34608e-08
2.34983e-08
2.34745e-08
2.34887e-08
2.34745e-08
2.34768e-08
2.34665e-08
2.3465e-08
2.34592e-08
2.34593e-08
2.3459e-08
2.34624e-08
2.3466e-08
2.3471e-08
2.3475e-08
2.34783e-08
2.34795e-08
2.34792e-08
2.34772e-08
2.34742e-08
2.34708e-08
2.34677e-08
2.34655e-08
2.34646e-08
2.3465e-08
2.34664e-08
2.34685e-08
2.34708e-08
2.34729e-08
2.34745e-08
2.34753e-08
2.34753e-08
2.34745e-08
2.34734e-08
2.3472e-08
2.34708e-08
2.34696e-08
2.34691e-08
2.34686e-08
2.3469e-08
2.34688e-08
2.34696e-08
2.3469e-08
2.34699e-08
2.34682e-08
2.34694e-08
2.34664e-08
2.34688e-08
2.34639e-08
2.34702e-08
2.34601e-08
2.3476e-08
2.34514e-08
2.34879e-08
2.34419e-08
2.34765e-08
2.33855e-08
2.35153e-08
2.34242e-08
2.35048e-08
2.34603e-08
2.34975e-08
2.34748e-08
2.34894e-08
2.34758e-08
2.34781e-08
2.3468e-08
2.34661e-08
2.34599e-08
2.34593e-08
2.34585e-08
2.34615e-08
2.34648e-08
2.34698e-08
2.3474e-08
2.34777e-08
2.34794e-08
2.34796e-08
2.34779e-08
2.34751e-08
2.34717e-08
2.34685e-08
2.3466e-08
2.34648e-08
2.34647e-08
2.34659e-08
2.34678e-08
2.34702e-08
2.34724e-08
2.34742e-08
2.34751e-08
2.34753e-08
2.34748e-08
2.34737e-08
2.34723e-08
2.34711e-08
2.34698e-08
2.34692e-08
2.34686e-08
2.34689e-08
2.34686e-08
2.34695e-08
2.34689e-08
2.34698e-08
2.34682e-08
2.34694e-08
2.34664e-08
2.34688e-08
2.34639e-08
2.347e-08
2.346e-08
2.34759e-08
2.34512e-08
2.34886e-08
2.3441e-08
2.34771e-08
2.33901e-08
2.35113e-08
2.34236e-08
2.35019e-08
2.34596e-08
2.34964e-08
2.34749e-08
2.34898e-08
2.34769e-08
2.34795e-08
2.34695e-08
2.34673e-08
2.34608e-08
2.34596e-08
2.34582e-08
2.34606e-08
2.34636e-08
2.34685e-08
2.34729e-08
2.3477e-08
2.34792e-08
2.34798e-08
2.34786e-08
2.34761e-08
2.34727e-08
2.34694e-08
2.34666e-08
2.3465e-08
2.34646e-08
2.34655e-08
2.34673e-08
2.34695e-08
2.34718e-08
2.34737e-08
2.34749e-08
2.34753e-08
2.34749e-08
2.3474e-08
2.34726e-08
2.34714e-08
2.347e-08
2.34693e-08
2.34686e-08
2.34688e-08
2.34685e-08
2.34694e-08
2.34687e-08
2.34698e-08
2.34682e-08
2.34694e-08
2.34664e-08
2.34688e-08
2.34639e-08
2.34699e-08
2.346e-08
2.34758e-08
2.3451e-08
2.34894e-08
2.34399e-08
2.34778e-08
2.33945e-08
2.35077e-08
2.3423e-08
2.34989e-08
2.34587e-08
2.34952e-08
2.34748e-08
2.349e-08
2.3478e-08
2.34808e-08
2.34711e-08
2.34687e-08
2.34618e-08
2.34601e-08
2.3458e-08
2.34599e-08
2.34625e-08
2.34673e-08
2.34717e-08
2.34761e-08
2.34788e-08
2.34799e-08
2.34791e-08
2.34769e-08
2.34737e-08
2.34703e-08
2.34674e-08
2.34654e-08
2.34647e-08
2.34652e-08
2.34667e-08
2.34689e-08
2.34712e-08
2.34732e-08
2.34746e-08
2.34753e-08
2.34751e-08
2.34743e-08
2.3473e-08
2.34717e-08
2.34703e-08
2.34695e-08
2.34686e-08
2.34688e-08
2.34684e-08
2.34692e-08
2.34686e-08
2.34697e-08
2.34682e-08
2.34694e-08
2.34665e-08
2.34688e-08
2.34639e-08
2.34697e-08
2.346e-08
2.34757e-08
2.34508e-08
2.34902e-08
2.34387e-08
2.34785e-08
2.33986e-08
2.35046e-08
2.34225e-08
2.34958e-08
2.34578e-08
2.34937e-08
2.34745e-08
2.349e-08
2.34789e-08
2.34821e-08
2.34727e-08
2.34702e-08
2.34631e-08
2.34608e-08
2.34581e-08
2.34594e-08
2.34615e-08
2.3466e-08
2.34705e-08
2.3475e-08
2.34782e-08
2.34798e-08
2.34795e-08
2.34777e-08
2.34747e-08
2.34713e-08
2.34682e-08
2.34659e-08
2.34648e-08
2.3465e-08
2.34662e-08
2.34682e-08
2.34705e-08
2.34727e-08
2.34742e-08
2.34751e-08
2.34751e-08
2.34745e-08
2.34733e-08
2.34721e-08
2.34706e-08
2.34697e-08
2.34687e-08
2.34687e-08
2.34683e-08
2.34691e-08
2.34685e-08
2.34696e-08
2.34681e-08
2.34694e-08
2.34666e-08
2.34687e-08