/*--------------------------------*- C++ -*----------------------------------*\
| =========                 |                                                 |
| \\      /  F ield         | foam-extend: Open Source CFD                    |
|  \\    /   O peration     | Version:     4.0                                |
|   \\  /    A nd           | Web:         http://www.foam-extend.org         |
|    \\/     M anipulation  |                                                 |
\*---------------------------------------------------------------------------*/
FoamFile
{
    version     2.0;
    format      ascii;
    class       volVectorField;
    location    "8";
    object      U;
}
// * * * * * * * * * * * * * * * * * * * * * * * * * * * * * * * * * * * * * //

dimensions      [0 1 -1 0 0 0 0];

internalField   nonuniform List<vector> 
6960
(
(-1.10666e-12 -5.16391e-11 0)
(-8.53461e-13 -4.67032e-13 0)
(1.14765e-13 -4.97045e-13 0)
(-5.90787e-14 -3.39484e-13 0)
(2.05024e-14 -2.36064e-14 0)
(-2.56756e-14 2.89961e-13 0)
(7.12344e-15 5.54978e-13 0)
(-9.81024e-15 7.29006e-13 0)
(5.41911e-15 7.78874e-13 0)
(-1.24293e-15 6.92552e-13 0)
(4.87327e-15 4.94473e-13 0)
(2.8054e-16 2.2351e-13 0)
(7.46225e-16 -6.28406e-14 0)
(-3.79183e-15 -3.09289e-13 0)
(-5.70972e-15 -4.67404e-13 0)
(-9.15962e-15 -5.10632e-13 0)
(-1.03883e-14 -4.35482e-13 0)
(-1.12959e-14 -2.63951e-13 0)
(-1.03401e-14 -3.57539e-14 0)
(-8.79654e-15 1.99809e-13 0)
(-6.3399e-15 3.95806e-13 0)
(-3.97407e-15 5.16816e-13 0)
(-1.81115e-15 5.45847e-13 0)
(-4.61995e-16 4.85977e-13 0)
(1.11033e-16 3.57895e-13 0)
(-1.63417e-16 1.93592e-13 0)
(-9.75859e-16 2.84797e-14 0)
(-2.08685e-15 -1.064e-13 0)
(-3.11436e-15 -1.90159e-13 0)
(-3.78191e-15 -2.14969e-13 0)
(-3.88744e-15 -1.85693e-13 0)
(-3.37781e-15 -1.17001e-13 0)
(-2.33382e-15 -2.87456e-14 0)
(-8.57022e-16 5.88064e-14 0)
(8.21024e-16 1.29217e-13 0)
(2.57785e-15 1.72283e-13 0)
(4.14465e-15 1.85052e-13 0)
(5.5717e-15 1.70733e-13 0)
(6.64887e-15 1.37063e-13 0)
(7.65986e-15 9.35028e-14 0)
(8.32346e-15 4.93319e-14 0)
(9.16952e-15 1.14708e-14 0)
(9.70772e-15 -1.59973e-14 0)
(1.07461e-14 -3.23284e-14 0)
(1.13269e-14 -3.91687e-14 0)
(1.26556e-14 -3.97854e-14 0)
(1.30842e-14 -3.78129e-14 0)
(1.4586e-14 -3.61944e-14 0)
(1.43469e-14 -3.66733e-14 0)
(1.59529e-14 -3.94107e-14 0)
(1.4129e-14 -4.3124e-14 0)
(1.6594e-14 -4.66041e-14 0)
(1.14613e-14 -4.73228e-14 0)
(1.74651e-14 -4.69417e-14 0)
(5.61956e-15 -4.38059e-14 0)
(1.9346e-14 -4.49894e-14 0)
(-9.81029e-16 -4.6614e-14 0)
(1.51463e-14 -6.10332e-14 0)
(1.09228e-14 -8.20269e-14 0)
(-3.64638e-14 -5.08053e-14 0)
(-1.69293e-12 -9.95899e-11 0)
(-9.74804e-13 -1.02333e-12 0)
(3.17311e-13 -1.17113e-12 0)
(-1.61932e-13 -8.6405e-13 0)
(7.61156e-14 -1.88679e-13 0)
(-5.87723e-14 5.01437e-13 0)
(3.29219e-14 1.1045e-12 0)
(-2.24775e-14 1.52716e-12 0)
(1.41901e-14 1.68683e-12 0)
(-1.25464e-14 1.54775e-12 0)
(-3.14233e-16 1.15415e-12 0)
(-1.64299e-14 5.83991e-13 0)
(-1.45015e-14 -4.0555e-14 0)
(-2.40343e-14 -5.97917e-13 0)
(-2.36784e-14 -9.77438e-13 0)
(-2.6832e-14 -1.11353e-12 0)
(-2.40069e-14 -9.89795e-13 0)
(-2.20176e-14 -6.46483e-13 0)
(-1.72114e-14 -1.64907e-13 0)
(-1.35459e-14 3.4917e-13 0)
(-9.68383e-15 7.91706e-13 0)
(-7.66901e-15 1.08088e-12 0)
(-6.69594e-15 1.1736e-12 0)
(-7.43068e-15 1.07042e-12 0)
(-8.89531e-15 8.11585e-13 0)
(-1.0836e-14 4.64051e-13 0)
(-1.23602e-14 1.04614e-13 0)
(-1.31944e-14 -1.97421e-13 0)
(-1.29089e-14 -3.93504e-13 0)
(-1.14523e-14 -4.63071e-13 0)
(-8.90084e-15 -4.13535e-13 0)
(-5.55632e-15 -2.74576e-13 0)
(-1.83564e-15 -8.82985e-14 0)
(2.06083e-15 1.01174e-13 0)
(5.75673e-15 2.57258e-13 0)
(9.28861e-15 3.56451e-13 0)
(1.22624e-14 3.90999e-13 0)
(1.51416e-14 3.66628e-13 0)
(1.7509e-14 2.9936e-13 0)
(2.02415e-14 2.09113e-13 0)
(2.24428e-14 1.15982e-13 0)
(2.55007e-14 3.47694e-14 0)
(2.78106e-14 -2.51456e-14 0)
(3.15578e-14 -6.22963e-14 0)
(3.38288e-14 -7.91816e-14 0)
(3.80646e-14 -8.32831e-14 0)
(3.94733e-14 -8.07111e-14 0)
(4.38515e-14 -7.91439e-14 0)
(4.3086e-14 -7.97059e-14 0)
(4.76891e-14 -8.61929e-14 0)
(4.23544e-14 -9.15789e-14 0)
(4.95699e-14 -1.00589e-13 0)
(3.46836e-14 -9.94827e-14 0)
(5.21571e-14 -1.05415e-13 0)
(1.7505e-14 -9.69888e-14 0)
(5.71752e-14 -1.13602e-13 0)
(-2.64251e-15 -1.10636e-13 0)
(4.37062e-14 -1.58638e-13 0)
(3.20534e-14 -1.96249e-13 0)
(-1.05582e-13 -1.09974e-13 0)
(-2.37188e-12 -7.09518e-11 0)
(-1.22556e-12 -8.99194e-13 0)
(4.88508e-13 -1.14386e-12 0)
(-2.64804e-13 -9.4044e-13 0)
(1.30982e-13 -4.02521e-13 0)
(-8.76703e-14 1.91424e-13 0)
(6.18096e-14 7.45653e-13 0)
(-3.094e-14 1.18208e-12 0)
(2.5221e-14 1.41141e-12 0)
(-2.27861e-14 1.38659e-12 0)
(-6.73094e-15 1.12696e-12 0)
(-3.58928e-14 6.85639e-13 0)
(-3.38837e-14 1.59002e-13 0)
(-4.87566e-14 -3.48626e-13 0)
(-4.5816e-14 -7.34764e-13 0)
(-4.75265e-14 -9.29557e-13 0)
(-3.91304e-14 -9.0256e-13 0)
(-3.25673e-14 -6.72767e-13 0)
(-2.25223e-14 -2.98367e-13 0)
(-1.58461e-14 1.35201e-13 0)
(-1.037e-14 5.37267e-13 0)
(-9.12262e-15 8.30276e-13 0)
(-1.02467e-14 9.66232e-13 0)
(-1.42065e-14 9.33523e-13 0)
(-1.88257e-14 7.56264e-13 0)
(-2.32827e-14 4.85004e-13 0)
(-2.59631e-14 1.83259e-13 0)
(-2.65235e-14 -8.76077e-14 0)
(-2.45557e-14 -2.80785e-13 0)
(-2.03613e-14 -3.71834e-13 0)
(-1.44543e-14 -3.6029e-13 0)
(-7.6432e-15 -2.66137e-13 0)
(-7.89105e-16 -1.22126e-13 0)
(5.76225e-15 3.49032e-14 0)
(1.15071e-14 1.72599e-13 0)
(1.66891e-14 2.68378e-13 0)
(2.08635e-14 3.12631e-13 0)
(2.49706e-14 3.072e-13 0)
(2.84545e-14 2.63504e-13 0)
(3.28022e-14 1.9677e-13 0)
(3.65209e-14 1.23696e-13 0)
(4.18179e-14 5.65393e-14 0)
(4.59835e-14 4.46014e-15 0)
(5.25245e-14 -3.10963e-14 0)
(5.66001e-14 -4.99794e-14 0)
(6.38185e-14 -5.89262e-14 0)
(6.63139e-14 -5.99733e-14 0)
(7.36171e-14 -6.1982e-14 0)
(7.24272e-14 -6.15442e-14 0)
(8.00127e-14 -6.8077e-14 0)
(7.12469e-14 -6.84149e-14 0)
(8.30284e-14 -7.91484e-14 0)
(5.84888e-14 -7.41233e-14 0)
(8.69277e-14 -9.06497e-14 0)
(2.98247e-14 -7.97776e-14 0)
(9.45805e-14 -1.15554e-13 0)
(-3.88469e-15 -9.98147e-14 0)
(7.16161e-14 -1.6469e-13 0)
(5.34353e-14 -1.85957e-13 0)
(-1.72069e-13 -8.00002e-14 0)
(-3.73714e-12 -4.19006e-11 0)
(-2.1973e-12 -5.72927e-13 0)
(6.27734e-13 -7.58776e-13 0)
(-3.77448e-13 -6.84768e-13 0)
(1.71303e-13 -4.50483e-13 0)
(-1.25148e-13 -1.26803e-13 0)
(8.36124e-14 2.08131e-13 0)
(-4.09335e-14 5.2062e-13 0)
(3.83402e-14 7.40578e-13 0)
(-2.66367e-14 8.27861e-13 0)
(-4.81009e-15 7.71083e-13 0)
(-4.62785e-14 5.84886e-13 0)
(-4.57392e-14 3.11063e-13 0)
(-6.87587e-14 5.94827e-15 0)
(-6.7123e-14 -2.67867e-13 0)
(-7.12324e-14 -4.5805e-13 0)
(-6.0478e-14 -5.30684e-13 0)
(-5.11635e-14 -4.7877e-13 0)
(-3.61164e-14 -3.20731e-13 0)
(-2.50746e-14 -9.61942e-14 0)
(-1.54725e-14 1.44891e-13 0)
(-1.18908e-14 3.52997e-13 0)
(-1.21161e-14 4.90093e-13 0)
(-1.69839e-14 5.36261e-13 0)
(-2.35169e-14 4.92355e-13 0)
(-3.04357e-14 3.77291e-13 0)
(-3.52701e-14 2.22053e-13 0)
(-3.72669e-14 6.15258e-14 0)
(-3.56045e-14 -7.32359e-14 0)
(-3.0501e-14 -1.60992e-13 0)
(-2.25693e-14 -1.93125e-13 0)
(-1.29403e-14 -1.73447e-13 0)
(-2.90044e-15 -1.15167e-13 0)
(6.93578e-15 -3.66649e-14 0)
(1.57277e-14 4.34355e-14 0)
(2.36746e-14 1.09775e-13 0)
(3.00631e-14 1.5308e-13 0)
(3.61443e-14 1.70129e-13 0)
(4.11616e-14 1.63779e-13 0)
(4.72059e-14 1.399e-13 0)
(5.22759e-14 1.06878e-13 0)
(5.94786e-14 7.13672e-14 0)
(6.51447e-14 4.00308e-14 0)
(7.41566e-14 1.4707e-14 0)
(7.98571e-14 -1.78615e-15 0)
(8.99727e-14 -1.29088e-14 0)
(9.36292e-14 -1.6906e-14 0)
(1.03937e-13 -2.08409e-14 0)
(1.02491e-13 -1.95276e-14 0)
(1.13064e-13 -2.39456e-14 0)
(1.00964e-13 -2.10111e-14 0)
(1.17062e-13 -3.05187e-14 0)
(8.29974e-14 -2.54278e-14 0)
(1.21872e-13 -4.45e-14 0)
(4.29015e-14 -3.45779e-14 0)
(1.31924e-13 -6.90278e-14 0)
(-3.94307e-15 -4.6236e-14 0)
(9.98063e-14 -9.45434e-14 0)
(7.44476e-14 -1.04438e-13 0)
(-2.36732e-13 -1.28844e-14 0)
(-5.1974e-12 -4.18787e-11 0)
(-3.29684e-12 -4.52089e-13 0)
(7.38504e-13 -5.1793e-13 0)
(-4.9691e-13 -4.76728e-13 0)
(1.99691e-13 -4.21251e-13 0)
(-1.69415e-13 -2.53673e-13 0)
(9.87342e-14 -5.80523e-14 0)
(-5.345e-14 1.66709e-13 0)
(5.13108e-14 3.6071e-13 0)
(-2.71099e-14 4.94794e-13 0)
(2.2314e-15 5.41074e-13 0)
(-5.03788e-14 4.95743e-13 0)
(-5.19229e-14 3.69007e-13 0)
(-8.46379e-14 1.89413e-13 0)
(-8.68887e-14 -6.14939e-15 0)
(-9.61385e-14 -1.78218e-13 0)
(-8.55565e-14 -2.94392e-13 0)
(-7.51565e-14 -3.35207e-13 0)
(-5.57073e-14 -2.97881e-13 0)
(-3.97118e-14 -1.9575e-13 0)
(-2.44576e-14 -5.43137e-14 0)
(-1.64302e-14 9.50622e-14 0)
(-1.35641e-14 2.22355e-13 0)
(-1.75041e-14 3.04985e-13 0)
(-2.48168e-14 3.31843e-13 0)
(-3.39041e-14 3.04227e-13 0)
(-4.13989e-14 2.34117e-13 0)
(-4.59256e-14 1.40268e-13 0)
(-4.59468e-14 4.34641e-14 0)
(-4.12716e-14 -3.80546e-14 0)
(-3.23432e-14 -9.18625e-14 0)
(-2.04524e-14 -1.12923e-13 0)
(-7.2704e-15 -1.0327e-13 0)
(6.2447e-15 -7.03995e-14 0)
(1.87719e-14 -2.46727e-14 0)
(3.02795e-14 2.3117e-14 0)
(3.96249e-14 6.41412e-14 0)
(4.82374e-14 9.24679e-14 0)
(5.51159e-14 1.06021e-13 0)
(6.29417e-14 1.05387e-13 0)
(6.92793e-14 9.40757e-14 0)
(7.81825e-14 7.57588e-14 0)
(8.51424e-14 5.55525e-14 0)
(9.64327e-14 3.59316e-14 0)
(1.03679e-13 2.08841e-14 0)
(1.16649e-13 9.33069e-15 0)
(1.21545e-13 4.26337e-15 0)
(1.34883e-13 4.26625e-16 0)
(1.33307e-13 2.30925e-15 0)
(1.46803e-13 -1.34874e-16 0)
(1.3148e-13 3.30908e-15 0)
(1.51639e-13 -4.71452e-15 0)
(1.08317e-13 -1.94371e-15 0)
(1.57119e-13 -1.92504e-14 0)
(5.70489e-14 -1.23176e-14 0)
(1.69369e-13 -3.80935e-14 0)
(-2.59646e-15 -1.56528e-14 0)
(1.28273e-13 -4.37131e-14 0)
(9.45614e-14 -5.52079e-14 0)
(-2.99689e-13 2.37288e-14 0)
(-6.43048e-12 -4.93331e-11 0)
(-4.2026e-12 -4.86295e-13 0)
(8.21271e-13 -4.54017e-13 0)
(-6.20177e-13 -3.89173e-13 0)
(2.20234e-13 -4.17127e-13 0)
(-2.16646e-13 -3.09264e-13 0)
(1.10061e-13 -1.72596e-13 0)
(-6.70007e-14 1.98089e-14 0)
(6.38513e-14 2.04871e-13 0)
(-2.61375e-14 3.61826e-13 0)
(1.12298e-14 4.52748e-13 0)
(-5.19221e-14 4.67563e-13 0)
(-5.59759e-14 4.01923e-13 0)
(-9.90472e-14 2.736e-13 0)
(-1.06385e-13 1.0846e-13 0)
(-1.21943e-13 -5.86309e-14 0)
(-1.12633e-13 -1.95659e-13 0)
(-1.01812e-13 -2.77315e-13 0)
(-7.81718e-14 -2.91722e-13 0)
(-5.68983e-14 -2.40996e-13 0)
(-3.528e-14 -1.40516e-13 0)
(-2.18493e-14 -1.4261e-14 0)
(-1.49251e-14 1.10709e-13 0)
(-1.71412e-14 2.1032e-13 0)
(-2.47607e-14 2.68091e-13 0)
(-3.59142e-14 2.77722e-13 0)
(-4.63159e-14 2.43137e-13 0)
(-5.38654e-14 1.76406e-13 0)
(-5.61751e-14 9.41853e-14 0)
(-5.24998e-14 1.37087e-14 0)
(-4.29972e-14 -5.07462e-14 0)
(-2.90501e-14 -9.02077e-14 0)
(-1.27007e-14 -1.01877e-13 0)
(4.71225e-15 -8.86195e-14 0)
(2.13222e-14 -5.73623e-14 0)
(3.67803e-14 -1.70727e-14 0)
(4.94459e-14 2.34546e-14 0)
(6.08628e-14 5.70092e-14 0)
(6.97742e-14 7.92828e-14 0)
(7.94382e-14 8.85632e-14 0)
(8.70315e-14 8.6238e-14 0)
(9.75614e-14 7.47779e-14 0)
(1.05756e-13 5.86811e-14 0)
(1.19258e-13 4.08557e-14 0)
(1.28058e-13 2.58544e-14 0)
(1.4388e-13 1.37853e-14 0)
(1.50101e-13 8.15247e-15 0)
(1.66484e-13 4.56495e-15 0)
(1.64884e-13 7.01086e-15 0)
(1.81233e-13 5.89579e-15 0)
(1.62802e-13 9.72979e-15 0)
(1.86776e-13 2.56194e-15 0)
(1.34455e-13 3.62166e-15 0)
(1.92647e-13 -1.31494e-14 0)
(7.21787e-14 -9.18482e-15 0)
(2.06776e-13 -3.1486e-14 0)
(-1.02958e-16 -1.01116e-14 0)
(1.56743e-13 -3.07263e-14 0)
(1.13983e-13 -4.11541e-14 0)
(-3.60655e-13 3.22589e-14 0)
(-7.51582e-12 -5.24988e-11 0)
(-4.99452e-12 -5.87111e-13 0)
(8.75961e-13 -4.71854e-13 0)
(-7.46233e-13 -3.55313e-13 0)
(2.34371e-13 -4.33433e-13 0)
(-2.65334e-13 -3.47569e-13 0)
(1.18803e-13 -2.37891e-13 0)
(-8.08529e-14 -5.33827e-14 0)
(7.60128e-14 1.32887e-13 0)
(-2.43272e-14 3.07575e-13 0)
(2.10411e-14 4.23994e-13 0)
(-5.23413e-14 4.70155e-13 0)
(-5.93333e-14 4.33154e-13 0)
(-1.13137e-13 3.26595e-13 0)
(-1.26263e-13 1.71167e-13 0)
(-1.48689e-13 8.85115e-16 0)
(-1.41166e-13 -1.51543e-13 0)
(-1.30149e-13 -2.56848e-13 0)
(-1.02316e-13 -2.98205e-13 0)
(-7.54811e-14 -2.72027e-13 0)
(-4.70556e-14 -1.8909e-13 0)
(-2.76864e-14 -7.03879e-14 0)
(-1.62126e-14 5.76087e-14 0)
(-1.63336e-14 1.69272e-13 0)
(-2.40797e-14 2.44829e-13 0)
(-3.73137e-14 2.73887e-13 0)
(-5.0807e-14 2.5638e-13 0)
(-6.16677e-14 2.01342e-13 0)
(-6.65844e-14 1.23848e-13 0)
(-6.41829e-14 4.11655e-14 0)
(-5.42811e-14 -3.10304e-14 0)
(-3.83265e-14 -8.14613e-14 0)
(-1.8734e-14 -1.04748e-13 0)
(2.74903e-15 -1.01443e-13 0)
(2.3673e-14 -7.68991e-14 0)
(4.33222e-14 -3.93953e-14 0)
(5.95262e-14 2.03296e-15 0)
(7.39074e-14 3.9299e-14 0)
(8.49563e-14 6.67877e-14 0)
(9.64956e-14 8.15172e-14 0)
(1.05352e-13 8.37736e-14 0)
(1.17479e-13 7.54502e-14 0)
(1.269e-13 6.08441e-14 0)
(1.42594e-13 4.31817e-14 0)
(1.52986e-13 2.74963e-14 0)
(1.71677e-13 1.45503e-14 0)
(1.79312e-13 8.32335e-15 0)
(1.98753e-13 4.72599e-15 0)
(1.97232e-13 7.6951e-15 0)
(2.16365e-13 7.4524e-15 0)
(1.94941e-13 1.18678e-14 0)
(2.22492e-13 5.11542e-15 0)
(1.61425e-13 5.17079e-15 0)
(2.28466e-13 -1.20182e-14 0)
(8.82577e-14 -1.0267e-14 0)
(2.44112e-13 -3.23197e-14 0)
(3.41745e-15 -1.05121e-14 0)
(1.85168e-13 -3.16393e-14 0)
(1.32836e-13 -3.41452e-14 0)
(-4.19596e-13 3.15083e-14 0)
(-8.50909e-12 -5.32997e-11 0)
(-5.72846e-12 -7.23623e-13 0)
(9.02545e-13 -5.28931e-13 0)
(-8.74853e-13 -3.43834e-13 0)
(2.42482e-13 -4.63103e-13 0)
(-3.14938e-13 -3.85565e-13 0)
(1.25435e-13 -2.91902e-13 0)
(-9.46564e-14 -1.05261e-13 0)
(8.79019e-14 8.72776e-14 0)
(-2.18182e-14 2.80087e-13 0)
(3.13002e-14 4.17204e-13 0)
(-5.21433e-14 4.86284e-13 0)
(-6.25459e-14 4.67447e-13 0)
(-1.27388e-13 3.7247e-13 0)
(-1.46843e-13 2.18827e-13 0)
(-1.76483e-13 4.12405e-14 0)
(-1.7104e-13 -1.2628e-13 0)
(-1.59867e-13 -2.50801e-13 0)
(-1.27728e-13 -3.11715e-13 0)
(-9.50298e-14 -3.01427e-13 0)
(-5.94233e-14 -2.27943e-13 0)
(-3.37156e-14 -1.1083e-13 0)
(-1.73675e-14 2.30555e-14 0)
(-1.51825e-14 1.463e-13 0)
(-2.29961e-14 2.36322e-13 0)
(-3.83874e-14 2.79655e-13 0)
(-5.51557e-14 2.73501e-13 0)
(-6.95596e-14 2.25073e-13 0)
(-7.73097e-14 1.48762e-13 0)
(-7.63531e-14 6.23149e-14 0)
(-6.61355e-14 -1.72284e-14 0)
(-4.81594e-14 -7.67126e-14 0)
(-2.52195e-14 -1.08837e-13 0)
(5.00204e-16 -1.12554e-13 0)
(2.59384e-14 -9.22373e-14 0)
(4.99746e-14 -5.58617e-14 0)
(6.98886e-14 -1.28268e-14 0)
(8.73567e-14 2.79889e-14 0)
(1.00623e-13 5.99157e-14 0)
(1.14065e-13 7.89833e-14 0)
(1.24195e-13 8.46711e-14 0)
(1.379e-13 7.84566e-14 0)
(1.4855e-13 6.45679e-14 0)
(1.66427e-13 4.64953e-14 0)
(1.7846e-13 2.97721e-14 0)
(2.00041e-13 1.56413e-14 0)
(2.09181e-13 8.6419e-15 0)
(2.31694e-13 4.77691e-15 0)
(2.30359e-13 8.20386e-15 0)
(2.52213e-13 8.64409e-15 0)
(2.27912e-13 1.38102e-14 0)
(2.58806e-13 7.36198e-15 0)
(1.89237e-13 6.755e-15 0)
(2.64578e-13 -1.12737e-14 0)
(1.05268e-13 -1.15255e-14 0)
(2.81363e-13 -3.48777e-14 0)
(7.90557e-15 -1.18106e-14 0)
(2.13556e-13 -3.74747e-14 0)
(1.51168e-13 -2.68324e-14 0)
(-4.76545e-13 2.74167e-14 0)
(-9.43042e-12 -5.32632e-11 0)
(-6.42441e-12 -8.83787e-13 0)
(9.0119e-13 -6.05033e-13 0)
(-1.00616e-12 -3.38687e-13 0)
(2.44453e-13 -4.99606e-13 0)
(-3.65401e-13 -4.26823e-13 0)
(1.3004e-13 -3.4759e-13 0)
(-1.08298e-13 -1.55818e-13 0)
(9.95945e-14 4.47228e-14 0)
(-1.85766e-14 2.57176e-13 0)
(4.19779e-14 4.15231e-13 0)
(-5.1409e-14 5.06753e-13 0)
(-6.57355e-14 5.04682e-13 0)
(-1.41937e-13 4.19537e-13 0)
(-1.68254e-13 2.65808e-13 0)
(-2.05417e-13 7.94188e-14 0)
(-2.02301e-13 -1.04099e-13 0)
(-1.9096e-13 -2.47963e-13 0)
(-1.54358e-13 -3.27844e-13 0)
(-1.15465e-13 -3.32298e-13 0)
(-7.2294e-14 -2.66857e-13 0)
(-3.98574e-14 -1.49963e-13 0)
(-1.83354e-14 -9.12506e-15 0)
(-1.36658e-14 1.26292e-13 0)
(-2.1521e-14 2.3085e-13 0)
(-3.91725e-14 2.88082e-13 0)
(-5.94139e-14 2.92609e-13 0)
(-7.75957e-14 2.50009e-13 0)
(-8.83982e-14 1.74169e-13 0)
(-8.9042e-14 8.34413e-14 0)
(-7.85751e-14 -3.71309e-15 0)
(-5.85464e-14 -7.22686e-14 0)
(-3.21423e-14 -1.13062e-13 0)
(-2.01151e-15 -1.23526e-13 0)
(2.81435e-14 -1.07136e-13 0)
(5.67611e-14 -7.16265e-14 0)
(8.05538e-14 -2.6792e-14 0)
(1.01227e-13 1.76912e-14 0)
(1.16788e-13 5.41141e-14 0)
(1.32155e-13 7.7534e-14 0)
(1.43567e-13 8.66436e-14 0)
(1.58828e-13 8.25042e-14 0)
(1.70711e-13 6.92824e-14 0)
(1.90761e-13 5.07097e-14 0)
(2.0448e-13 3.28392e-14 0)
(2.28973e-13 1.73674e-14 0)
(2.39712e-13 9.45812e-15 0)
(2.65317e-13 5.17019e-15 0)
(2.64274e-13 8.99629e-15 0)
(2.88791e-13 1.00684e-14 0)
(2.61734e-13 1.60712e-14 0)
(2.95733e-13 9.97778e-15 0)
(2.17904e-13 8.80937e-15 0)
(3.00988e-13 -1.01104e-14 0)
(1.23202e-13 -1.24679e-14 0)
(3.18524e-13 -3.76528e-14 0)
(1.33323e-14 -1.30452e-14 0)
(2.41936e-13 -4.5232e-14 0)
(1.6901e-13 -1.76821e-14 0)
(-5.31536e-13 2.19503e-14 0)
(-1.02856e-11 -5.29557e-11 0)
(-7.08781e-12 -1.06372e-12 0)
(8.72255e-13 -6.9264e-13 0)
(-1.14038e-12 -3.33532e-13 0)
(2.3999e-13 -5.39237e-13 0)
(-4.16857e-13 -4.70901e-13 0)
(1.3254e-13 -4.07829e-13 0)
(-1.21778e-13 -2.10715e-13 0)
(1.11129e-13 -2.13598e-15 0)
(-1.45292e-14 2.31241e-13 0)
(5.31513e-14 4.11623e-13 0)
(-5.00712e-14 5.27413e-13 0)
(-6.88648e-14 5.43636e-13 0)
(-1.56784e-13 4.69537e-13 0)
(-1.90533e-13 3.16237e-13 0)
(-2.35561e-13 1.2091e-13 0)
(-2.35037e-13 -7.93988e-14 0)
(-2.23519e-13 -2.43815e-13 0)
(-1.82284e-13 -3.4406e-13 0)
(-1.36838e-13 -3.6454e-13 0)
(-8.56871e-14 -3.08087e-13 0)
(-4.60994e-14 -1.91856e-13 0)
(-1.90789e-14 -4.39779e-14 0)
(-1.17316e-14 1.04172e-13 0)
(-1.95989e-14 2.24145e-13 0)
(-3.96217e-14 2.96282e-13 0)
(-6.35508e-14 3.12424e-13 0)
(-8.57656e-14 2.76359e-13 0)
(-9.98585e-14 2.01371e-13 0)
(-1.02274e-13 1.06394e-13 0)
(-9.16331e-14 1.13548e-14 0)
(-6.9523e-14 -6.67609e-14 0)
(-3.95333e-14 -1.1681e-13 0)
(-4.80788e-15 -1.34591e-13 0)
(3.02787e-14 -1.22587e-13 0)
(6.36848e-14 -8.82274e-14 0)
(9.15354e-14 -4.16826e-14 0)
(1.15539e-13 6.56078e-15 0)
(1.33476e-13 4.77088e-14 0)
(1.50793e-13 7.57888e-14 0)
(1.63493e-13 8.86405e-14 0)
(1.80283e-13 8.6855e-14 0)
(1.93396e-13 7.44957e-14 0)
(2.15604e-13 5.55173e-14 0)
(2.31053e-13 3.64967e-14 0)
(2.58477e-13 1.96041e-14 0)
(2.70911e-13 1.06717e-14 0)
(2.99627e-13 5.84499e-15 0)
(2.9899e-13 9.99992e-15 0)
(3.26111e-13 1.16936e-14 0)
(2.9642e-13 1.8574e-14 0)
(3.33286e-13 1.29574e-14 0)
(2.47437e-13 1.12523e-14 0)
(3.37701e-13 -8.4239e-15 0)
(1.42059e-13 -1.3085e-14 0)
(3.556e-13 -4.02158e-14 0)
(1.96769e-14 -1.40217e-14 0)
(2.70344e-13 -5.40053e-14 0)
(1.8638e-13 -6.42413e-15 0)
(-5.84612e-13 1.55625e-14 0)
(-1.10758e-11 -5.25508e-11 0)
(-7.71934e-12 -1.26195e-12 0)
(8.1626e-13 -7.89144e-13 0)
(-1.27778e-12 -3.26137e-13 0)
(2.28754e-13 -5.80089e-13 0)
(-4.69508e-13 -5.16778e-13 0)
(1.32794e-13 -4.7267e-13 0)
(-1.35149e-13 -2.71107e-13 0)
(1.22516e-13 -5.53318e-14 0)
(-9.60488e-15 1.99773e-13 0)
(6.4923e-14 4.03866e-13 0)
(-4.80166e-14 5.46223e-13 0)
(-7.18399e-14 5.83101e-13 0)
(-1.71872e-13 5.22285e-13 0)
(-2.13678e-13 3.70921e-13 0)
(-2.66965e-13 1.67296e-13 0)
(-2.6934e-13 -5.02e-14 0)
(-2.57659e-13 -2.3641e-13 0)
(-2.11625e-13 -3.5885e-13 0)
(-1.59249e-13 -3.97355e-13 0)
(-9.96672e-14 -3.51673e-13 0)
(-5.24634e-14 -2.37332e-13 0)
(-1.95776e-14 -8.29027e-14 0)
(-9.32593e-15 7.82606e-14 0)
(-1.71574e-14 2.14568e-13 0)
(-3.96602e-14 3.02927e-13 0)
(-6.75048e-14 3.32107e-13 0)
(-9.40309e-14 3.03825e-13 0)
(-1.1168e-13 2.30554e-13 0)
(-1.16064e-13 1.31702e-13 0)
(-1.05346e-13 2.86563e-14 0)
(-8.11363e-14 -5.95407e-14 0)
(-4.74403e-14 -1.19615e-13 0)
(-7.92781e-15 -1.45551e-13 0)
(3.23187e-14 -1.3868e-13 0)
(7.07372e-14 -1.06008e-13 0)
(1.02842e-13 -5.80228e-14 0)
(1.30316e-13 -6.01516e-15 0)
(1.50718e-13 4.00843e-14 0)
(1.70013e-13 7.31977e-14 0)
(1.84002e-13 9.02152e-14 0)
(2.02291e-13 9.11796e-14 0)
(2.16625e-13 7.99811e-14 0)
(2.40968e-13 6.07715e-14 0)
(2.58184e-13 4.06417e-14 0)
(2.88558e-13 2.22696e-14 0)
(3.02779e-13 1.21927e-14 0)
(3.3463e-13 6.70445e-15 0)
(3.34514e-13 1.10959e-14 0)
(3.64187e-13 1.34092e-14 0)
(3.31986e-13 2.12007e-14 0)
(3.7148e-13 1.62322e-14 0)
(2.77848e-13 1.40191e-14 0)
(3.74722e-13 -6.18287e-15 0)
(1.61836e-13 -1.33674e-14 0)
(3.92593e-13 -4.24185e-14 0)
(2.69162e-14 -1.47016e-14 0)
(2.98818e-13 -6.35807e-14 0)
(2.03294e-13 6.94697e-15 0)
(-6.35825e-13 8.27173e-15 0)
(-1.18011e-11 -5.20944e-11 0)
(-8.31839e-12 -1.47747e-12 0)
(7.33873e-13 -8.93322e-13 0)
(-1.4186e-12 -3.15551e-13 0)
(2.10384e-13 -6.20955e-13 0)
(-5.23594e-13 -5.63512e-13 0)
(1.30626e-13 -5.41622e-13 0)
(-1.48498e-13 -3.37097e-13 0)
(1.33744e-13 -1.15547e-13 0)
(-3.74288e-15 1.61632e-13 0)
(7.74008e-14 3.90578e-13 0)
(-4.51153e-14 5.61822e-13 0)
(-7.45402e-14 6.21989e-13 0)
(-1.87116e-13 5.77162e-13 0)
(-2.37657e-13 4.29807e-13 0)
(-2.99658e-13 2.19065e-13 0)
(-3.05294e-13 -1.55968e-14 0)
(-2.93504e-13 -2.24632e-13 0)
(-2.42516e-13 -3.71126e-13 0)
(-1.82822e-13 -4.29898e-13 0)
(-1.14325e-13 -3.97165e-13 0)
(-5.89931e-14 -2.86396e-13 0)
(-1.98256e-14 -1.26324e-13 0)
(-6.4007e-15 4.78286e-14 0)
(-1.41203e-14 2.01245e-13 0)
(-3.9202e-14 3.07171e-13 0)
(-7.11981e-14 3.50984e-13 0)
(-1.02336e-13 3.32001e-13 0)
(-1.23838e-13 2.61607e-13 0)
(-1.30421e-13 1.59516e-13 0)
(-1.19746e-13 4.85294e-14 0)
(-9.34364e-14 -5.01854e-14 0)
(-5.59181e-14 -1.2107e-13 0)
(-1.14205e-14 -1.56096e-13 0)
(3.42284e-14 -1.55253e-13 0)
(7.79017e-14 -1.24967e-13 0)
(1.14475e-13 -7.5952e-14 0)
(1.45576e-13 -2.02781e-14 0)
(1.68542e-13 3.09466e-14 0)
(1.89847e-13 6.94622e-14 0)
(2.05129e-13 9.11015e-14 0)
(2.2488e-13 9.52663e-14 0)
(2.40417e-13 8.55868e-14 0)
(2.66866e-13 6.63739e-14 0)
(2.85879e-13 4.52118e-14 0)
(3.19217e-13 2.53209e-14 0)
(3.35318e-13 1.39784e-14 0)
(3.70329e-13 7.70015e-15 0)
(3.70853e-13 1.22231e-14 0)
(4.0303e-13 1.51537e-14 0)
(3.68447e-13 2.389e-14 0)
(4.10329e-13 1.97673e-14 0)
(3.09149e-13 1.70893e-14 0)
(4.12059e-13 -3.36113e-15 0)
(1.8253e-13 -1.32921e-14 0)
(4.29508e-13 -4.41925e-14 0)
(3.50215e-14 -1.50682e-14 0)
(3.27402e-13 -7.39259e-14 0)
(2.19768e-13 2.24284e-14 0)
(-6.8524e-13 1.55045e-17 0)
(-1.24614e-11 -5.15972e-11 0)
(-8.8841e-12 -1.70923e-12 0)
(6.25908e-13 -1.00419e-12 0)
(-1.56309e-12 -3.01091e-13 0)
(1.84516e-13 -6.60773e-13 0)
(-5.79379e-13 -6.10191e-13 0)
(1.25833e-13 -6.14093e-13 0)
(-1.61943e-13 -4.08591e-13 0)
(1.44781e-13 -1.832e-13 0)
(3.10573e-15 1.15954e-13 0)
(9.06938e-14 3.70613e-13 0)
(-4.12249e-14 5.7299e-13 0)
(-7.68239e-14 6.59233e-13 0)
(-2.02406e-13 6.33443e-13 0)
(-2.62416e-13 4.92627e-13 0)
(-3.33651e-13 2.76432e-13 0)
(-3.42976e-13 2.50318e-14 0)
(-3.31177e-13 -2.076e-13 0)
(-2.75105e-13 -3.79936e-13 0)
(-2.077e-13 -4.61341e-13 0)
(-1.29773e-13 -4.4401e-13 0)
(-6.57533e-14 -3.38858e-13 0)
(-1.98325e-14 -1.74424e-13 0)
(-2.91501e-15 1.23855e-14 0)
(-1.04099e-14 1.83495e-13 0)
(-3.81525e-14 3.08286e-13 0)
(-7.45404e-14 3.68414e-13 0)
(-1.10613e-13 3.60435e-13 0)
(-1.36296e-13 2.94321e-13 0)
(-1.45342e-13 1.89869e-13 0)
(-1.34863e-13 7.12039e-14 0)
(-1.06474e-13 -3.83433e-14 0)
(-6.50271e-14 -1.20787e-13 0)
(-1.53438e-14 -1.65883e-13 0)
(3.59642e-14 -1.72064e-13 0)
(8.51536e-14 -1.44993e-13 0)
(1.26432e-13 -9.54918e-14 0)
(1.61335e-13 -3.6359e-14 0)
(1.86978e-13 2.00924e-14 0)
(2.10333e-13 6.43495e-14 0)
(2.2691e-13 9.10742e-14 0)
(2.48083e-13 9.89268e-14 0)
(2.64797e-13 9.11738e-14 0)
(2.93313e-13 7.22371e-14 0)
(3.14146e-13 5.01605e-14 0)
(3.50455e-13 2.87391e-14 0)
(3.68529e-13 1.60185e-14 0)
(4.06727e-13 8.8211e-15 0)
(4.08014e-13 1.33589e-14 0)
(4.42651e-13 1.68987e-14 0)
(4.05816e-13 2.66091e-14 0)
(4.49848e-13 2.35445e-14 0)
(3.41353e-13 2.0459e-14 0)
(4.49717e-13 7.36219e-17 0)
(2.04137e-13 -1.28177e-14 0)
(4.66352e-13 -4.54683e-14 0)
(4.39573e-14 -1.50828e-14 0)
(3.56141e-13 -8.50304e-14 0)
(2.35819e-13 4.00525e-14 0)
(-7.3294e-13 -9.27849e-15 0)
(-1.3057e-11 -5.10629e-11 0)
(-9.4156e-12 -1.95616e-12 0)
(4.93325e-13 -1.1208e-12 0)
(-1.71145e-12 -2.82163e-13 0)
(1.50778e-13 -6.98495e-13 0)
(-6.37162e-13 -6.55858e-13 0)
(1.18183e-13 -6.89395e-13 0)
(-1.75633e-13 -4.85369e-13 0)
(1.55568e-13 -2.58572e-13 0)
(1.0975e-14 6.19928e-14 0)
(1.0491e-13 3.42899e-13 0)
(-3.61918e-14 5.78532e-13 0)
(-7.85278e-14 6.9373e-13 0)
(-2.17606e-13 6.90315e-13 0)
(-2.87874e-13 5.5899e-13 0)
(-3.68937e-13 3.39478e-13 0)
(-3.8245e-13 7.21932e-14 0)
(-3.70803e-13 -1.84508e-13 0)
(-3.09551e-13 -3.84353e-13 0)
(-2.34043e-13 -4.90822e-13 0)
(-1.46146e-13 -4.91577e-13 0)
(-7.28294e-14 -3.94422e-13 0)
(-1.96244e-14 -2.27273e-13 0)
(1.16321e-15 -2.84639e-14 0)
(-5.94954e-15 1.60702e-13 0)
(-3.64112e-14 3.05566e-13 0)
(-7.74293e-14 3.83738e-13 0)
(-1.18777e-13 3.88625e-13 0)
(-1.49002e-13 3.2842e-13 0)
(-1.60815e-13 2.22729e-13 0)
(-1.50721e-13 9.68575e-14 0)
(-1.20301e-13 -2.36923e-14 0)
(-7.48315e-14 -1.18383e-13 0)
(-1.97609e-14 -1.74547e-13 0)
(3.74741e-14 -1.88833e-13 0)
(9.24598e-14 -1.65928e-13 0)
(1.38702e-13 -1.16617e-13 0)
(1.77603e-13 -5.4349e-14 0)
(2.06055e-13 7.34793e-15 0)
(2.31508e-13 5.76453e-14 0)
(2.49385e-13 8.9919e-14 0)
(2.71933e-13 1.01978e-13 0)
(2.89792e-13 9.66075e-14 0)
(3.20327e-13 7.82799e-14 0)
(3.42991e-13 5.54499e-14 0)
(3.82277e-13 3.25151e-14 0)
(4.0241e-13 1.83124e-14 0)
(4.43824e-13 1.00623e-14 0)
(4.46001e-13 1.44831e-14 0)
(4.83059e-13 1.86144e-14 0)
(4.44109e-13 2.93225e-14 0)
(4.90052e-13 2.75449e-14 0)
(3.74472e-13 2.41297e-14 0)
(4.87708e-13 4.16589e-15 0)
(2.26648e-13 -1.18831e-14 0)
(5.03132e-13 -4.61547e-14 0)
(5.36812e-14 -1.46863e-14 0)
(3.8509e-13 -9.68749e-14 0)
(2.51462e-13 5.98711e-14 0)
(-7.79021e-13 -1.96789e-14 0)
(-1.3588e-11 -5.04944e-11 0)
(-9.91205e-12 -2.21719e-12 0)
(3.3723e-13 -1.24226e-12 0)
(-1.8639e-12 -2.58247e-13 0)
(1.08797e-13 -7.33076e-13 0)
(-6.97266e-13 -6.99496e-13 0)
(1.07411e-13 -7.6672e-13 0)
(-1.89751e-13 -5.67063e-13 0)
(1.66023e-13 -3.41798e-13 0)
(1.98812e-14 -8.83276e-16 0)
(1.20153e-13 3.06431e-13 0)
(-2.98536e-14 5.77249e-13 0)
(-7.94687e-14 7.24314e-13 0)
(-2.32551e-13 7.46855e-13 0)
(-3.13921e-13 6.28378e-13 0)
(-4.05482e-13 4.08161e-13 0)
(-4.23766e-13 1.26301e-13 0)
(-4.12503e-13 -1.54594e-13 0)
(-3.4602e-13 -3.83439e-13 0)
(-2.62032e-13 -5.17422e-13 0)
(-1.636e-13 -5.39141e-13 0)
(-8.03301e-14 -4.52685e-13 0)
(-1.92461e-14 -2.84843e-13 0)
(5.85373e-15 -7.50375e-14 0)
(-6.65496e-16 1.32288e-13 0)
(-3.38715e-14 2.98305e-13 0)
(-7.97508e-14 3.96261e-13 0)
(-1.2673e-13 4.16013e-13 0)
(-1.6189e-13 3.63561e-13 0)
(-1.76814e-13 2.57999e-13 0)
(-1.67336e-13 1.25621e-13 0)
(-1.34964e-13 -5.93281e-15 0)
(-8.53984e-14 -1.13471e-13 0)
(-2.47429e-14 -1.81701e-13 0)
(3.86961e-14 -2.05243e-13 0)
(9.97786e-14 -1.87575e-13 0)
(1.51269e-13 -1.39266e-13 0)
(1.94387e-13 -7.43104e-14 0)
(2.25796e-13 -7.44287e-15 0)
(2.53408e-13 4.91421e-14 0)
(2.72594e-13 8.74196e-14 0)
(2.96471e-13 1.04229e-13 0)
(3.15431e-13 1.01746e-13 0)
(3.47925e-13 8.4414e-14 0)
(3.72425e-13 6.10372e-14 0)
(4.14682e-13 3.66368e-14 0)
(4.3696e-13 2.08567e-14 0)
(4.8162e-13 1.14161e-14 0)
(4.84817e-13 1.55709e-14 0)
(5.24262e-13 2.02655e-14 0)
(4.83337e-13 3.19886e-14 0)
(5.30958e-13 3.17457e-14 0)
(4.0852e-13 2.81019e-14 0)
(5.26039e-13 8.96467e-15 0)
(2.50055e-13 -1.0419e-14 0)
(5.39854e-13 -4.61471e-14 0)
(6.41433e-14 -1.38094e-14 0)
(4.14306e-13 -1.09431e-13 0)
(2.66713e-13 8.19448e-14 0)
(-8.23601e-13 -3.12459e-14 0)
(-1.40548e-11 -4.98943e-11 0)
(-1.03726e-11 -2.49121e-12 0)
(1.58879e-13 -1.36769e-12 0)
(-2.0206e-12 -2.28864e-13 0)
(5.82028e-14 -7.63444e-13 0)
(-7.60039e-13 -7.40011e-13 0)
(9.32231e-14 -8.45129e-13 0)
(-2.0452e-13 -6.53159e-13 0)
(1.76032e-13 -4.32869e-13 0)
(2.98185e-14 -7.31998e-14 0)
(1.3652e-13 2.60251e-13 0)
(-2.20418e-14 5.67929e-13 0)
(-7.94429e-14 7.49745e-13 0)
(-2.4705e-13 8.02023e-13 0)
(-3.40419e-13 7.00133e-13 0)
(-4.43229e-13 4.82311e-13 0)
(-4.66957e-13 1.87676e-13 0)
(-4.56392e-13 -1.1714e-13 0)
(-3.84686e-13 -3.76243e-13 0)
(-2.91862e-13 -5.40155e-13 0)
(-1.82318e-13 -5.85878e-13 0)
(-8.83892e-14 -5.13128e-13 0)
(-1.87644e-14 -3.46996e-13 0)
(1.11624e-14 -1.27578e-13 0)
(5.51033e-15 9.77104e-14 0)
(-3.04233e-14 2.85789e-13 0)
(-8.13794e-14 4.05247e-13 0)
(-1.34357e-13 4.41968e-13 0)
(-1.74879e-13 3.99322e-13 0)
(-1.93301e-13 2.95511e-13 0)
(-1.84714e-13 1.57575e-13 0)
(-1.50509e-13 1.52085e-14 0)
(-9.67971e-14 -1.05666e-13 0)
(-3.03684e-14 -1.86935e-13 0)
(3.956e-14 -2.20941e-13 0)
(1.07059e-13 -2.09691e-13 0)
(1.64105e-13 -1.63334e-13 0)
(2.11687e-13 -9.62746e-14 0)
(2.46225e-13 -2.44186e-14 0)
(2.76071e-13 3.86369e-14 0)
(2.96583e-13 8.33526e-14 0)
(3.21737e-13 1.05478e-13 0)
(3.4175e-13 1.06429e-13 0)
(3.76133e-13 9.05361e-14 0)
(4.02458e-13 6.6868e-14 0)
(4.47673e-13 4.10851e-14 0)
(4.72174e-13 2.36454e-14 0)
(5.20111e-13 1.28742e-14 0)
(5.24461e-13 1.65974e-14 0)
(5.66269e-13 2.18152e-14 0)
(5.23513e-13 3.45624e-14 0)
(5.72581e-13 3.61192e-14 0)
(4.43512e-13 3.23709e-14 0)
(5.64723e-13 1.45171e-14 0)
(2.74349e-13 -8.35472e-15 0)
(5.76528e-13 -4.53325e-14 0)
(7.52862e-14 -1.23744e-14 0)
(4.43853e-13 -1.22658e-13 0)
(2.81587e-13 1.06343e-13 0)
(-8.66811e-13 -4.40336e-14 0)
(-1.44581e-11 -4.92653e-11 0)
(-1.07965e-11 -2.77709e-12 0)
(-4.03204e-14 -1.49622e-12 0)
(-2.1817e-12 -1.93567e-13 0)
(-1.36733e-15 -7.88494e-13 0)
(-8.25857e-13 -7.76217e-13 0)
(7.52921e-14 -9.23543e-13 0)
(-2.20199e-13 -7.42983e-13 0)
(1.85444e-13 -5.31629e-13 0)
(4.07539e-14 -1.55377e-13 0)
(1.54094e-13 2.03449e-13 0)
(-1.25836e-14 5.49337e-13 0)
(-7.82289e-14 7.68701e-13 0)
(-2.60883e-13 8.54651e-13 0)
(-3.67192e-13 7.73452e-13 0)
(-4.82085e-13 5.61619e-13 0)
(-5.12032e-13 2.56533e-13 0)
(-5.02575e-13 -7.14779e-14 0)
(-4.25725e-13 -3.61801e-13 0)
(-3.23745e-13 -5.57971e-13 0)
(-2.02504e-13 -6.30857e-13 0)
(-9.71682e-14 -5.75114e-13 0)
(-1.82711e-14 -4.13486e-13 0)
(1.70767e-14 -1.86242e-13 0)
(1.26382e-14 5.64703e-14 0)
(-2.59541e-14 2.673e-13 0)
(-8.21783e-14 4.09909e-13 0)
(-1.41527e-13 4.6579e-13 0)
(-1.87866e-13 4.35199e-13 0)
(-2.1022e-13 3.35021e-13 0)
(-2.0285e-13 1.92738e-13 0)
(-1.66973e-13 3.99738e-14 0)
(-1.09098e-13 -9.4582e-14 0)
(-3.672e-14 -1.89816e-13 0)
(3.99852e-14 -2.35532e-13 0)
(1.14238e-13 -2.31987e-13 0)
(1.77174e-13 -1.88673e-13 0)
(2.29495e-13 -1.20238e-13 0)
(2.6736e-13 -4.3697e-14 0)
(2.99533e-13 2.59314e-14 0)
(3.21395e-13 7.74871e-14 0)
(3.47778e-13 1.05504e-13 0)
(3.68784e-13 1.10478e-13 0)
(4.04974e-13 9.65242e-14 0)
(4.33103e-13 7.28741e-14 0)
(4.81254e-13 4.58333e-14 0)
(5.08049e-13 2.66693e-14 0)
(5.59293e-13 1.4429e-14 0)
(5.64932e-13 1.75385e-14 0)
(6.09084e-13 2.32262e-14 0)
(5.64651e-13 3.69948e-14 0)
(6.14941e-13 4.06319e-14 0)
(4.79462e-13 3.69245e-14 0)