/*--------------------------------*- C++ -*----------------------------------*\
| =========                 |                                                 |
| \\      /  F ield         | foam-extend: Open Source CFD                    |
|  \\    /   O peration     | Version:     4.0                                |
|   \\  /    A nd           | Web:         http://www.foam-extend.org         |
|    \\/     M anipulation  |                                                 |
\*---------------------------------------------------------------------------*/
FoamFile
{
    version     2.0;
    format      ascii;
    class       volScalarField;
    location    "1360";
    object      cPlus;
}
// * * * * * * * * * * * * * * * * * * * * * * * * * * * * * * * * * * * * * //

dimensions      [0 0 0 0 0 0 0];

internalField   nonuniform List<scalar> 
6960
(
0.201059
0.200985
0.200961
0.200953
0.200951
0.200951
0.200951
0.200952
0.200952
0.200953
0.200953
0.200953
0.200954
0.200954
0.200955
0.200955
0.200955
0.200956
0.200956
0.200956
0.200957
0.200957
0.200957
0.200957
0.200957
0.200957
0.200957
0.200958
0.200958
0.200958
0.200958
0.200958
0.200958
0.200957
0.200957
0.200957
0.200957
0.200957
0.200957
0.200957
0.200956
0.200956
0.200956
0.200955
0.200955
0.200955
0.200954
0.200954
0.200953
0.200953
0.200953
0.200952
0.200952
0.200951
0.200951
0.200951
0.200953
0.200961
0.200985
0.201059
0.0641626
0.0641569
0.0641543
0.0641536
0.0641536
0.0641538
0.0641541
0.0641544
0.0641546
0.0641549
0.0641551
0.0641553
0.0641555
0.0641557
0.0641559
0.0641561
0.0641562
0.0641563
0.0641565
0.0641566
0.0641567
0.0641568
0.0641568
0.0641569
0.064157
0.064157
0.0641571
0.0641571
0.0641571
0.0641571
0.0641571
0.0641571
0.0641571
0.0641571
0.064157
0.064157
0.0641569
0.0641568
0.0641568
0.0641567
0.0641566
0.0641565
0.0641563
0.0641562
0.0641561
0.0641559
0.0641557
0.0641555
0.0641553
0.0641551
0.0641549
0.0641546
0.0641544
0.0641541
0.0641538
0.0641536
0.0641536
0.0641543
0.0641569
0.0641626
0.0455655
0.0455828
0.0455877
0.0455893
0.04559
0.0455904
0.0455907
0.0455909
0.0455911
0.0455912
0.0455914
0.0455915
0.0455916
0.0455917
0.0455918
0.0455919
0.045592
0.0455921
0.0455921
0.0455922
0.0455922
0.0455923
0.0455923
0.0455923
0.0455924
0.0455924
0.0455924
0.0455924
0.0455924
0.0455924
0.0455924
0.0455924
0.0455924
0.0455924
0.0455924
0.0455924
0.0455923
0.0455923
0.0455923
0.0455922
0.0455922
0.0455921
0.0455921
0.045592
0.0455919
0.0455918
0.0455917
0.0455916
0.0455915
0.0455914
0.0455912
0.0455911
0.0455909
0.0455907
0.0455904
0.04559
0.0455893
0.0455877
0.0455828
0.0455655
0.0438767
0.0439006
0.0439076
0.0439099
0.0439108
0.0439112
0.0439115
0.0439117
0.0439119
0.043912
0.0439121
0.0439123
0.0439124
0.0439124
0.0439125
0.0439126
0.0439127
0.0439127
0.0439128
0.0439128
0.0439129
0.0439129
0.0439129
0.043913
0.043913
0.043913
0.043913
0.043913
0.043913
0.043913
0.043913
0.043913
0.043913
0.043913
0.043913
0.043913
0.043913
0.0439129
0.0439129
0.0439129
0.0439128
0.0439128
0.0439127
0.0439127
0.0439126
0.0439125
0.0439124
0.0439124
0.0439123
0.0439121
0.043912
0.0439119
0.0439117
0.0439115
0.0439112
0.0439108
0.0439099
0.0439076
0.0439006
0.0438767
0.0449449
0.0449715
0.0449793
0.0449819
0.0449829
0.0449834
0.0449836
0.0449839
0.044984
0.0449842
0.0449843
0.0449844
0.0449845
0.0449846
0.0449847
0.0449848
0.0449849
0.0449849
0.044985
0.044985
0.0449851
0.0449851
0.0449851
0.0449852
0.0449852
0.0449852
0.0449852
0.0449852
0.0449852
0.0449852
0.0449852
0.0449852
0.0449852
0.0449852
0.0449852
0.0449852
0.0449852
0.0449851
0.0449851
0.0449851
0.044985
0.044985
0.0449849
0.0449849
0.0449848
0.0449847
0.0449846
0.0449845
0.0449844
0.0449843
0.0449842
0.044984
0.0449839
0.0449836
0.0449834
0.0449829
0.0449819
0.0449793
0.0449715
0.0449449
0.0466514
0.0466802
0.0466886
0.0466914
0.0466925
0.046693
0.0466933
0.0466935
0.0466937
0.0466939
0.046694
0.0466942
0.0466943
0.0466944
0.0466945
0.0466946
0.0466946
0.0466947
0.0466948
0.0466948
0.0466949
0.0466949
0.0466949
0.046695
0.046695
0.046695
0.046695
0.046695
0.046695
0.0466951
0.0466951
0.046695
0.046695
0.046695
0.046695
0.046695
0.046695
0.0466949
0.0466949
0.0466949
0.0466948
0.0466948
0.0466947
0.0466946
0.0466946
0.0466945
0.0466944
0.0466943
0.0466942
0.046694
0.0466939
0.0466937
0.0466935
0.0466933
0.046693
0.0466925
0.0466914
0.0466886
0.0466802
0.0466514
0.0487186
0.0487497
0.0487589
0.0487619
0.0487631
0.0487637
0.048764
0.0487643
0.0487645
0.0487647
0.0487648
0.048765
0.0487651
0.0487652
0.0487653
0.0487654
0.0487655
0.0487655
0.0487656
0.0487657
0.0487657
0.0487658
0.0487658
0.0487658
0.0487659
0.0487659
0.0487659
0.0487659
0.0487659
0.0487659
0.0487659
0.0487659
0.0487659
0.0487659
0.0487659
0.0487659
0.0487658
0.0487658
0.0487658
0.0487657
0.0487657
0.0487656
0.0487655
0.0487655
0.0487654
0.0487653
0.0487652
0.0487651
0.048765
0.0487648
0.0487647
0.0487645
0.0487643
0.048764
0.0487637
0.0487631
0.0487619
0.0487589
0.0487497
0.0487186
0.0511752
0.0512092
0.0512192
0.0512225
0.0512238
0.0512244
0.0512248
0.0512251
0.0512253
0.0512256
0.0512257
0.0512259
0.051226
0.0512262
0.0512263
0.0512264
0.0512265
0.0512266
0.0512266
0.0512267
0.0512268
0.0512268
0.0512269
0.0512269
0.0512269
0.051227
0.051227
0.051227
0.051227
0.051227
0.051227
0.051227
0.051227
0.051227
0.051227
0.0512269
0.0512269
0.0512269
0.0512268
0.0512268
0.0512267
0.0512266
0.0512266
0.0512265
0.0512264
0.0512263
0.0512262
0.051226
0.0512259
0.0512257
0.0512256
0.0512253
0.0512251
0.0512248
0.0512244
0.0512238
0.0512225
0.0512192
0.0512092
0.0511752
0.0541291
0.0541667
0.0541777
0.0541815
0.0541829
0.0541836
0.0541841
0.0541844
0.0541847
0.0541849
0.0541851
0.0541853
0.0541855
0.0541856
0.0541857
0.0541859
0.054186
0.0541861
0.0541862
0.0541862
0.0541863
0.0541864
0.0541864
0.0541865
0.0541865
0.0541865
0.0541866
0.0541866
0.0541866
0.0541866
0.0541866
0.0541866
0.0541866
0.0541866
0.0541865
0.0541865
0.0541865
0.0541864
0.0541864
0.0541863
0.0541862
0.0541862
0.0541861
0.054186
0.0541859
0.0541857
0.0541856
0.0541855
0.0541853
0.0541851
0.0541849
0.0541847
0.0541844
0.0541841
0.0541836
0.0541829
0.0541815
0.0541777
0.0541667
0.0541291
0.0577486
0.057791
0.0578035
0.0578078
0.0578094
0.0578102
0.0578107
0.0578111
0.0578114
0.0578117
0.057812
0.0578122
0.0578124
0.0578125
0.0578127
0.0578128
0.057813
0.0578131
0.0578132
0.0578133
0.0578134
0.0578134
0.0578135
0.0578135
0.0578136
0.0578136
0.0578137
0.0578137
0.0578137
0.0578137
0.0578137
0.0578137
0.0578137
0.0578137
0.0578136
0.0578136
0.0578135
0.0578135
0.0578134
0.0578134
0.0578133
0.0578132
0.0578131
0.057813
0.0578128
0.0578127
0.0578125
0.0578124
0.0578122
0.057812
0.0578117
0.0578114
0.0578111
0.0578107
0.0578102
0.0578094
0.0578078
0.0578035
0.057791
0.0577486
0.0622865
0.0623354
0.0623498
0.0623547
0.0623567
0.0623576
0.0623582
0.0623586
0.062359
0.0623594
0.0623597
0.0623599
0.0623601
0.0623604
0.0623605
0.0623607
0.0623609
0.062361
0.0623611
0.0623612
0.0623613
0.0623614
0.0623615
0.0623616
0.0623616
0.0623617
0.0623617
0.0623617
0.0623618
0.0623618
0.0623618
0.0623618
0.0623617
0.0623617
0.0623617
0.0623616
0.0623616
0.0623615
0.0623614
0.0623613
0.0623612
0.0623611
0.062361
0.0623609
0.0623607
0.0623605
0.0623604
0.0623601
0.0623599
0.0623597
0.0623594
0.062359
0.0623586
0.0623582
0.0623576
0.0623567
0.0623547
0.0623498
0.0623354
0.0622865
0.0681204
0.0681782
0.0681954
0.0682012
0.0682035
0.0682047
0.0682054
0.068206
0.0682064
0.0682068
0.0682072
0.0682075
0.0682078
0.0682081
0.0682083
0.0682085
0.0682087
0.0682089
0.068209
0.0682092
0.0682093
0.0682094
0.0682095
0.0682096
0.0682097
0.0682097
0.0682098
0.0682098
0.0682098
0.0682098
0.0682098
0.0682098
0.0682098
0.0682098
0.0682097
0.0682097
0.0682096
0.0682095
0.0682094
0.0682093
0.0682092
0.068209
0.0682089
0.0682087
0.0682085
0.0682083
0.0682081
0.0682078
0.0682075
0.0682072
0.0682068
0.0682064
0.068206
0.0682054
0.0682047
0.0682035
0.0682012
0.0681954
0.0681782
0.0681204
0.0757988
0.0758691
0.07589
0.0758972
0.0759001
0.0759015
0.0759024
0.0759031
0.0759037
0.0759042
0.0759047
0.0759051
0.0759055
0.0759058
0.0759061
0.0759064
0.0759066
0.0759068
0.075907
0.0759072
0.0759074
0.0759075
0.0759076
0.0759077
0.0759078
0.0759079
0.0759079
0.075908
0.075908
0.075908
0.075908
0.075908
0.075908
0.0759079
0.0759079
0.0759078
0.0759077
0.0759076
0.0759075
0.0759074
0.0759072
0.075907
0.0759068
0.0759066
0.0759064
0.0759061
0.0759058
0.0759055
0.0759051
0.0759047
0.0759042
0.0759037
0.0759031
0.0759024
0.0759015
0.0759001
0.0758972
0.07589
0.0758691
0.0757988
0.0860555
0.0861433
0.0861696
0.0861786
0.0861822
0.086184
0.0861852
0.0861861
0.0861868
0.0861875
0.0861881
0.0861886
0.0861891
0.0861895
0.0861899
0.0861903
0.0861906
0.0861909
0.0861911
0.0861913
0.0861915
0.0861917
0.0861919
0.086192
0.0861921
0.0861922
0.0861923
0.0861923
0.0861924
0.0861924
0.0861924
0.0861924
0.0861923
0.0861923
0.0861922
0.0861921
0.086192
0.0861919
0.0861917
0.0861915
0.0861913
0.0861911
0.0861909
0.0861906
0.0861903
0.0861899
0.0861895
0.0861891
0.0861886
0.0861881
0.0861875
0.0861868
0.0861861
0.0861852
0.086184
0.0861822
0.0861786
0.0861696
0.0861433
0.0860555
0.0997307
0.0998415
0.099875
0.0998865
0.0998911
0.0998934
0.0998949
0.099896
0.099897
0.0998978
0.0998985
0.0998992
0.0998998
0.0999004
0.0999009
0.0999013
0.0999017
0.0999021
0.0999024
0.0999027
0.0999029
0.0999032
0.0999034
0.0999035
0.0999037
0.0999038
0.0999039
0.099904
0.099904
0.099904
0.099904
0.099904
0.099904
0.0999039
0.0999038
0.0999037
0.0999035
0.0999034
0.0999032
0.0999029
0.0999027
0.0999024
0.0999021
0.0999017
0.0999013
0.0999009
0.0999004
0.0998998
0.0998992
0.0998985
0.0998978
0.099897
0.099896
0.0998949
0.0998934
0.0998911
0.0998865
0.099875
0.0998415
0.0997307
0.117544
0.117683
0.117725
0.11774
0.117746
0.117748
0.11775
0.117752
0.117753
0.117754
0.117755
0.117756
0.117756
0.117757
0.117758
0.117758
0.117759
0.117759
0.11776
0.11776
0.11776
0.117761
0.117761
0.117761
0.117761
0.117761
0.117761
0.117762
0.117762
0.117762
0.117762
0.117762
0.117762
0.117761
0.117761
0.117761
0.117761
0.117761
0.117761
0.11776
0.11776
0.11776
0.117759
0.117759
0.117758
0.117758
0.117757
0.117756
0.117756
0.117755
0.117754
0.117753
0.117752
0.11775
0.117748
0.117746
0.11774
0.117725
0.117683
0.117544
0.139777
0.139948
0.14
0.140018
0.140025
0.140029
0.140031
0.140033
0.140034
0.140035
0.140036
0.140037
0.140038
0.140039
0.14004
0.140041
0.140041
0.140042
0.140042
0.140043
0.140043
0.140043
0.140044
0.140044
0.140044
0.140044
0.140044
0.140044
0.140045
0.140045
0.140045
0.140045
0.140044
0.140044
0.140044
0.140044
0.140044
0.140044
0.140043
0.140043
0.140043
0.140042
0.140042
0.140041
0.140041
0.14004
0.140039
0.140038
0.140037
0.140036
0.140035
0.140034
0.140033
0.140031
0.140029
0.140025
0.140018
0.14
0.139948
0.139777
0.166069
0.166271
0.166334
0.166356
0.166364
0.166368
0.166371
0.166373
0.166374
0.166376
0.166377
0.166378
0.166379
0.16638
0.166381
0.166382
0.166382
0.166383
0.166383
0.166384
0.166384
0.166385
0.166385
0.166385
0.166385
0.166386
0.166386
0.166386
0.166386
0.166386
0.166386
0.166386
0.166386
0.166386
0.166386
0.166385
0.166385
0.166385
0.166385
0.166384
0.166384
0.166383
0.166383
0.166382
0.166382
0.166381
0.16638
0.166379
0.166378
0.166377
0.166376
0.166374
0.166373
0.166371
0.166368
0.166364
0.166356
0.166334
0.166271
0.166069
0.195493
0.195724
0.195797
0.195822
0.195832
0.195836
0.195839
0.195841
0.195843
0.195845
0.195846
0.195847
0.195848
0.195849
0.19585
0.195851
0.195852
0.195852
0.195853
0.195853
0.195854
0.195854
0.195854
0.195855
0.195855
0.195855
0.195855
0.195855
0.195856
0.195856
0.195856
0.195856
0.195855
0.195855
0.195855
0.195855
0.195855
0.195854
0.195854
0.195854
0.195853
0.195853
0.195852
0.195852
0.195851
0.19585
0.195849
0.195848
0.195847
0.195846
0.195845
0.195843
0.195841
0.195839
0.195836
0.195832
0.195822
0.195797
0.195724
0.195493
0.226884
0.22714
0.227222
0.22725
0.227261
0.227266
0.227269
0.227271
0.227273
0.227275
0.227276
0.227277
0.227278
0.227279
0.22728
0.227281
0.227282
0.227282
0.227283
0.227284
0.227284
0.227284
0.227285
0.227285
0.227285
0.227286
0.227286
0.227286
0.227286
0.227286
0.227286
0.227286
0.227286
0.227286
0.227286
0.227285
0.227285
0.227285
0.227284
0.227284
0.227284
0.227283
0.227282
0.227282
0.227281
0.22728
0.227279
0.227278
0.227277
0.227276
0.227275
0.227273
0.227271
0.227269
0.227266
0.227261
0.22725
0.227222
0.22714
0.226884
0.259177
0.259454
0.259543
0.259575
0.259586
0.259592
0.259595
0.259597
0.259599
0.259601
0.259602
0.259603
0.259605
0.259606
0.259606
0.259607
0.259608
0.259609
0.259609
0.25961
0.25961
0.259611
0.259611
0.259611
0.259611
0.259612
0.259612
0.259612
0.259612
0.259612
0.259612
0.259612
0.259612
0.259612
0.259612
0.259611
0.259611
0.259611
0.259611
0.25961
0.25961
0.259609
0.259609
0.259608
0.259607
0.259606
0.259606
0.259605
0.259603
0.259602
0.259601
0.259599
0.259597
0.259595
0.259592
0.259586
0.259575
0.259543
0.259454
0.259177
0.291584
0.291878
0.291975
0.292008
0.292021
0.292027
0.29203
0.292033
0.292035
0.292036
0.292037
0.292039
0.29204
0.292041
0.292042
0.292042
0.292043
0.292044
0.292044
0.292045
0.292045
0.292046
0.292046
0.292046
0.292046
0.292047
0.292047
0.292047
0.292047
0.292047
0.292047
0.292047
0.292047
0.292047
0.292047
0.292046
0.292046
0.292046
0.292046
0.292045
0.292045
0.292044
0.292044
0.292043
0.292042
0.292042
0.292041
0.29204
0.292039
0.292037
0.292036
0.292035
0.292033
0.29203
0.292027
0.292021
0.292008
0.291975
0.291878
0.291584
0.323601
0.32391
0.324013
0.324049
0.324063
0.324069
0.324072
0.324075
0.324077
0.324078
0.324079
0.324081
0.324082
0.324082
0.324083
0.324084
0.324085
0.324085
0.324086
0.324086
0.324087
0.324087
0.324087
0.324088
0.324088
0.324088
0.324088
0.324088
0.324089
0.324089
0.324089
0.324089
0.324088
0.324088
0.324088
0.324088
0.324088
0.324087
0.324087
0.324087
0.324086
0.324086
0.324085
0.324085
0.324084
0.324083
0.324082
0.324082
0.324081
0.324079
0.324078
0.324077
0.324075
0.324072
0.324069
0.324063
0.324049
0.324013
0.32391
0.323601
0.354937
0.355258
0.355367
0.355405
0.35542
0.355427
0.35543
0.355432
0.355434
0.355436
0.355437
0.355438
0.355439
0.35544
0.355441
0.355441
0.355442
0.355443
0.355443
0.355444
0.355444
0.355444
0.355445
0.355445
0.355445
0.355445
0.355445
0.355446
0.355446
0.355446
0.355446
0.355446
0.355446
0.355445
0.355445
0.355445
0.355445
0.355445
0.355444
0.355444
0.355444
0.355443
0.355443
0.355442
0.355441
0.355441
0.35544
0.355439
0.355438
0.355437
0.355436
0.355434
0.355432
0.35543
0.355427
0.35542
0.355405
0.355367
0.355258
0.354937
0.385432
0.385762
0.385877
0.385918
0.385933
0.38594
0.385944
0.385946
0.385948
0.385949
0.38595
0.385951
0.385952
0.385953
0.385954
0.385955
0.385955
0.385956
0.385956
0.385957
0.385957
0.385957
0.385958
0.385958
0.385958
0.385958
0.385958
0.385959
0.385959
0.385959
0.385959
0.385959
0.385959
0.385958
0.385958
0.385958
0.385958
0.385958
0.385957
0.385957
0.385957
0.385956
0.385956
0.385955
0.385955
0.385954
0.385953
0.385952
0.385951
0.38595
0.385949
0.385948
0.385946
0.385944
0.38594
0.385933
0.385918
0.385877
0.385762
0.385432
0.414999
0.415338
0.415458
0.415502
0.415518
0.415525
0.415529
0.415531
0.415533
0.415534
0.415535
0.415536
0.415537
0.415538
0.415539
0.415539
0.41554
0.41554
0.415541
0.415541
0.415542
0.415542
0.415542
0.415542
0.415543
0.415543
0.415543
0.415543
0.415543
0.415543
0.415543
0.415543
0.415543
0.415543
0.415543
0.415543
0.415542
0.415542
0.415542
0.415542
0.415541
0.415541
0.41554
0.41554
0.415539
0.415539
0.415538
0.415537
0.415536
0.415535
0.415534
0.415533
0.415531
0.415529
0.415525
0.415518
0.415502
0.415458
0.415338
0.414999
0.443598
0.443943
0.444068
0.444114
0.444131
0.444139
0.444142
0.444145
0.444146
0.444148
0.444149
0.44415
0.444151
0.444151
0.444152
0.444153
0.444153
0.444154
0.444154
0.444154
0.444155
0.444155
0.444155
0.444156
0.444156
0.444156
0.444156
0.444156
0.444156
0.444156
0.444156
0.444156
0.444156
0.444156
0.444156
0.444156
0.444156
0.444155
0.444155
0.444155
0.444154
0.444154
0.444154
0.444153
0.444153
0.444152
0.444151
0.444151
0.44415
0.444149
0.444148
0.444146
0.444145
0.444142
0.444139
0.444131
0.444114
0.444068
0.443943
0.443598
0.471207
0.471558
0.471687
0.471736
0.471754
0.471762
0.471765
0.471768
0.471769
0.471771
0.471772
0.471773
0.471773
0.471774
0.471775
0.471775
0.471776
0.471776
0.471777
0.471777
0.471777
0.471778
0.471778
0.471778
0.471778
0.471778
0.471778
0.471778
0.471779
0.471779
0.471779
0.471779
0.471778
0.471778
0.471778
0.471778
0.471778
0.471778
0.471778
0.471777
0.471777
0.471777
0.471776
0.471776
0.471775
0.471775
0.471774
0.471773
0.471773
0.471772
0.471771
0.471769
0.471768
0.471765
0.471762
0.471754
0.471736
0.471687
0.471558
0.471207
0.497822
0.498177
0.498311
0.498361
0.498381
0.498389
0.498393
0.498395
0.498396
0.498398
0.498399
0.4984
0.4984
0.498401
0.498402
0.498402
0.498403
0.498403
0.498403
0.498404
0.498404
0.498404
0.498404
0.498405
0.498405
0.498405
0.498405
0.498405
0.498405
0.498405
0.498405
0.498405
0.498405
0.498405
0.498405
0.498405
0.498405
0.498404
0.498404
0.498404
0.498404
0.498403
0.498403
0.498403
0.498402
0.498402
0.498401
0.4984
0.4984
0.498399
0.498398
0.498396
0.498395
0.498393
0.498389
0.498381
0.498361
0.498311
0.498177
0.497822
0.523447
0.523805
0.523943
0.523995
0.524016
0.524024
0.524028
0.52403
0.524032
0.524033
0.524034
0.524035
0.524035
0.524036
0.524037
0.524037
0.524038
0.524038
0.524038
0.524039
0.524039
0.524039
0.524039
0.524039
0.52404
0.52404
0.52404
0.52404
0.52404
0.52404
0.52404
0.52404
0.52404
0.52404
0.52404
0.52404
0.524039
0.524039
0.524039
0.524039
0.524039
0.524038
0.524038
0.524038
0.524037
0.524037
0.524036
0.524035
0.524035
0.524034
0.524033
0.524032
0.52403
0.524028
0.524024
0.524016
0.523995
0.523943
0.523805
0.523447
0.548091
0.548451
0.548592
0.548647
0.548668
0.548677
0.548681
0.548683
0.548685
0.548686
0.548687
0.548688
0.548688
0.548689
0.548689
0.54869
0.54869
0.548691
0.548691
0.548691
0.548692
0.548692
0.548692
0.548692
0.548692
0.548692
0.548693
0.548693
0.548693
0.548693
0.548693
0.548693
0.548693
0.548693
0.548692
0.548692
0.548692
0.548692
0.548692
0.548692
0.548691
0.548691
0.548691
0.54869
0.54869
0.548689
0.548689
0.548688
0.548688
0.548687
0.548686
0.548685
0.548683
0.548681
0.548677
0.548668
0.548647
0.548592
0.548451
0.548091
0.571768
0.572129
0.572274
0.57233
0.572353
0.572362
0.572366
0.572368
0.57237
0.572371
0.572372
0.572373
0.572373
0.572374
0.572374
0.572375
0.572375
0.572375
0.572376
0.572376
0.572376
0.572376
0.572377
0.572377
0.572377
0.572377
0.572377
0.572377
0.572377
0.572377
0.572377
0.572377
0.572377
0.572377
0.572377
0.572377
0.572377
0.572377
0.572376
0.572376
0.572376
0.572376
0.572375
0.572375
0.572375
0.572374
0.572374
0.572373
0.572373
0.572372
0.572371
0.57237
0.572368
0.572366
0.572362
0.572353
0.57233
0.572274
0.572129
0.571768
0.594496
0.594856
0.595004
0.595062
0.595086
0.595095
0.5951
0.595102
0.595104
0.595105
0.595105
0.595106
0.595107
0.595107
0.595108
0.595108
0.595108
0.595109
0.595109
0.595109
0.59511
0.59511
0.59511
0.59511
0.59511
0.59511
0.59511
0.59511
0.59511
0.59511
0.59511
0.59511
0.59511
0.59511
0.59511
0.59511
0.59511
0.59511
0.59511
0.59511
0.595109
0.595109
0.595109
0.595108
0.595108
0.595108
0.595107
0.595107
0.595106
0.595105
0.595105
0.595104
0.595102
0.5951
0.595095
0.595086
0.595062
0.595004
0.594856
0.594496
0.616292
0.616651
0.616801
0.616862
0.616886
0.616897
0.616901
0.616903
0.616905
0.616906
0.616907
0.616907
0.616908
0.616908
0.616909
0.616909
0.616909
0.61691
0.61691
0.61691
0.61691
0.616911
0.616911
0.616911
0.616911
0.616911
0.616911
0.616911
0.616911
0.616911
0.616911
0.616911
0.616911
0.616911
0.616911
0.616911
0.616911
0.616911
0.616911
0.61691
0.61691
0.61691
0.61691
0.616909
0.616909
0.616909
0.616908
0.616908
0.616907
0.616907
0.616906
0.616905
0.616903
0.616901
0.616897
0.616886
0.616862
0.616801
0.616651
0.616292
0.637178
0.637534
0.637687
0.63775
0.637775
0.637786
0.63779
0.637793
0.637794
0.637795
0.637796
0.637797
0.637797
0.637798
0.637798
0.637798
0.637799
0.637799
0.637799
0.637799
0.6378
0.6378
0.6378
0.6378
0.6378
0.6378
0.6378
0.6378
0.6378
0.6378
0.6378
0.6378
0.6378
0.6378
0.6378
0.6378
0.6378
0.6378
0.6378
0.6378
0.637799
0.637799
0.637799
0.637799
0.637798
0.637798
0.637798
0.637797
0.637797
0.637796
0.637795
0.637794
0.637793
0.63779
0.637786
0.637775
0.63775
0.637687
0.637534
0.637178
0.657174
0.657528
0.657682
0.657747
0.657774
0.657785
0.65779
0.657792
0.657793
0.657794
0.657795
0.657796
0.657796
0.657797
0.657797
0.657797
0.657798
0.657798
0.657798
0.657798
0.657798
0.657799
0.657799
0.657799
0.657799
0.657799
0.657799
0.657799
0.657799
0.657799
0.657799
0.657799
0.657799
0.657799
0.657799
0.657799
0.657799
0.657799
0.657799
0.657798
0.657798
0.657798
0.657798
0.657798
0.657797
0.657797
0.657797
0.657796
0.657796
0.657795
0.657794
0.657793
0.657792
0.65779
0.657785
0.657774
0.657747
0.657682
0.657528
0.657174
0.676304
0.676654
0.67681
0.676877
0.676904
0.676916
0.676921
0.676924
0.676925
0.676926
0.676927
0.676927
0.676928
0.676928
0.676928
0.676929
0.676929
0.676929
0.676929
0.676929
0.67693
0.67693
0.67693
0.67693
0.67693
0.67693
0.67693
0.67693
0.67693
0.67693
0.67693
0.67693
0.67693
0.67693
0.67693
0.67693
0.67693
0.67693
0.67693
0.67693
0.676929
0.676929
0.676929
0.676929
0.676929
0.676928
0.676928
0.676928
0.676927
0.676927
0.676926
0.676925
0.676924
0.676921
0.676916
0.676904
0.676877
0.67681
0.676654
0.676304
0.69459
0.694936
0.695094
0.695162
0.69519
0.695202
0.695208
0.69521
0.695212
0.695213
0.695213
0.695214
0.695214
0.695215
0.695215
0.695215
0.695215
0.695216
0.695216
0.695216
0.695216
0.695216
0.695216
0.695216
0.695217
0.695217
0.695217
0.695217
0.695217
0.695217
0.695217
0.695217
0.695217
0.695217
0.695217
0.695217
0.695216
0.695216
0.695216
0.695216
0.695216
0.695216
0.695216
0.695215
0.695215
0.695215
0.695215
0.695214
0.695214
0.695213
0.695213
0.695212
0.69521
0.695208
0.695202
0.69519
0.695162
0.695094
0.694936
0.69459
0.712057
0.712397
0.712556
0.712625
0.712655
0.712668
0.712673
0.712676
0.712677
0.712678
0.712679
0.712679
0.71268
0.71268
0.71268
0.712681
0.712681
0.712681
0.712681
0.712681
0.712682
0.712682
0.712682
0.712682
0.712682
0.712682
0.712682
0.712682
0.712682
0.712682
0.712682
0.712682
0.712682
0.712682
0.712682
0.712682
0.712682
0.712682
0.712682
0.712682
0.712681
0.712681
0.712681
0.712681
0.712681
0.71268
0.71268
0.71268
0.712679
0.712679
0.712678
0.712677
0.712676
0.712673
0.712668
0.712655
0.712625
0.712556
0.712397
0.712057
0.728726
0.729061
0.729221
0.729292
0.729322
0.729336
0.729341
0.729344
0.729346
0.729347
0.729347
0.729348
0.729348
0.729348
0.729349
0.729349
0.729349
0.729349
0.729349
0.72935
0.72935
0.72935
0.72935
0.72935
0.72935
0.72935
0.72935
0.72935
0.72935
0.72935
0.72935
0.72935
0.72935
0.72935
0.72935
0.72935
0.72935
0.72935
0.72935
0.72935
0.72935
0.729349
0.729349
0.729349
0.729349
0.729349
0.729348
0.729348
0.729348
0.729347
0.729347
0.729346
0.729344
0.729341
0.729336
0.729322
0.729292
0.729221
0.729061
0.728726
0.744624
0.744953
0.745112
0.745184
0.745216
0.74523
0.745236
0.745239
0.745241
0.745241
0.745242
0.745242
0.745243
0.745243
0.745243
0.745244
0.745244
0.745244
0.745244
0.745244
0.745244
0.745244
0.745244
0.745245
0.745245
0.745245
0.745245
0.745245
0.745245
0.745245
0.745245
0.745245
0.745245
0.745245
0.745245
0.745245
0.745245
0.745244
0.745244
0.745244
0.745244
0.745244
0.745244
0.745244
0.745244
0.745243
0.745243
0.745243
0.745242
0.745242
0.745241
0.745241
0.745239
0.745236
0.74523
0.745216
0.745184
0.745112
0.744953
0.744624
0.759772
0.760095
0.760254
0.760328
0.76036
0.760375
0.760381
0.760384
0.760386
0.760387
0.760387
0.760388
0.760388
0.760388
0.760389
0.760389
0.760389
0.760389
0.760389
0.760389
0.760389
0.76039
0.76039
0.76039
0.76039
0.76039
0.76039
0.76039
0.76039
0.76039
0.76039
0.76039
0.76039
0.76039
0.76039
0.76039
0.76039
0.76039
0.76039
0.760389
0.760389
0.760389
0.760389
0.760389
0.760389
0.760389
0.760388
0.760388
0.760388
0.760387
0.760387
0.760386
0.760384
0.760381
0.760375
0.76036
0.760328
0.760254
0.760095
0.759772
0.774196
0.774512
0.774671
0.774745
0.774779
0.774794
0.774801
0.774804
0.774806
0.774807
0.774807
0.774808
0.774808
0.774808
0.774808
0.774809
0.774809
0.774809
0.774809
0.774809
0.774809
0.774809
0.774809
0.774809
0.774809
0.774809
0.774809
0.77481
0.77481
0.77481
0.77481
0.77481
0.77481
0.774809
0.774809
0.774809
0.774809
0.774809
0.774809
0.774809
0.774809
0.774809
0.774809
0.774809
0.774809
0.774808
0.774808
0.774808
0.774808
0.774807
0.774807
0.774806
0.774804
0.774801
0.774794
0.774779
0.774745
0.774671
0.774512
0.774196
0.787919
0.788228
0.788386
0.788462
0.788496
0.788512
0.788519
0.788522
0.788524
0.788525
0.788525
0.788526
0.788526
0.788526
0.788526
0.788527
0.788527
0.788527
0.788527
0.788527
0.788527
0.788527
0.788527
0.788527
0.788527
0.788527
0.788527
0.788528
0.788528
0.788528
0.788528
0.788528
0.788528
0.788527
0.788527
0.788527
0.788527
0.788527
0.788527
0.788527
0.788527
0.788527
0.788527
0.788527
0.788527
0.788526
0.788526
0.788526
0.788526
0.788525
0.788525
0.788524
0.788522
0.788519
0.788512
0.788496
0.788462
0.788386
0.788228
0.787919
0.800965
0.801266
0.801423
0.8015
0.801535
0.801551
0.801559
0.801562
0.801564
0.801565
0.801566
0.801566
0.801566
0.801566
0.801567
0.801567
0.801567
0.801567
0.801567
0.801567
0.801567
0.801567
0.801567
0.801567
0.801567
0.801567
0.801568
0.801568
0.801568
0.801568
0.801568
0.801568
0.801568
0.801568
0.801567
0.801567
0.801567
0.801567
0.801567
0.801567
0.801567
0.801567
0.801567
0.801567
0.801567
0.801567
0.801566
0.801566
0.801566
0.801566
0.801565
0.801564
0.801562
0.801559
0.801551
0.801535
0.8015
0.801423
0.801266
0.800965
0.813358
0.813651
0.813806
0.813883
0.81392
0.813936
0.813944
0.813948
0.81395
0.813951
0.813951
0.813952
0.813952
0.813952
0.813952
0.813952
0.813953
0.813953
0.813953
0.813953
0.813953
0.813953
0.813953
0.813953
0.813953
0.813953
0.813953
0.813953
0.813953
0.813953
0.813953
0.813953
0.813953
0.813953
0.813953
0.813953
0.813953
0.813953
0.813953
0.813953
0.813953
0.813953
0.813953
0.813953
0.813952
0.813952
0.813952
0.813952
0.813952
0.813951
0.813951
0.81395
0.813948
0.813944
0.813936
0.81392
0.813883
0.813806
0.813651
0.813358
0.825119
0.825404
0.825558
0.825636
0.825673
0.82569
0.825698
0.825702
0.825704
0.825705
0.825706
0.825706
0.825706
0.825707
0.825707
0.825707
0.825707
0.825707
0.825707
0.825707
0.825707
0.825707
0.825707
0.825707
0.825707
0.825707
0.825708
0.825708
0.825708
0.825708
0.825708
0.825708
0.825708
0.825708
0.825707
0.825707
0.825707
0.825707
0.825707
0.825707
0.825707
0.825707
0.825707
0.825707
0.825707
0.825707
0.825707
0.825706
0.825706
0.825706
0.825705
0.825704
0.825702
0.825698
0.82569
0.825673
0.825636
0.825558
0.825404
0.825119
0.836273
0.83655
0.836702
0.83678
0.836818
0.836836
0.836844
0.836848
0.83685
0.836851
0.836852
0.836852
0.836853
0.836853
0.836853
0.836853
0.836853
0.836853
0.836853
0.836853
0.836854
0.836854
0.836854
0.836854
0.836854
0.836854
0.836854
0.836854
0.836854
0.836854
0.836854
0.836854
0.836854
0.836854
0.836854
0.836854
0.836854
0.836854
0.836854
0.836854
0.836853
0.836853
0.836853
0.836853
0.836853
0.836853
0.836853
0.836853
0.836852
0.836852
0.836851
0.83685
0.836848
0.836844
0.836836
0.836818
0.83678
0.836702
0.83655
0.836273
0.846843
0.847111
0.847261
0.847339
0.847378
0.847396
0.847405
0.847409
0.847411
0.847412
0.847413
0.847413
0.847413
0.847414
0.847414
0.847414
0.847414
0.847414
0.847414
0.847414
0.847414
0.847414
0.847414
0.847414
0.847414
0.847414
0.847414
0.847414
0.847414
0.847414
0.847414
0.847414
0.847414
0.847414
0.847414
0.847414
0.847414
0.847414
0.847414
0.847414
0.847414
0.847414
0.847414
0.847414
0.847414
0.847414
0.847414
0.847413
0.847413
0.847413
0.847412
0.847411
0.847409
0.847405
0.847396
0.847378
0.847339
0.847261
0.847111
0.846843
0.856849
0.857109
0.857257
0.857335
0.857374
0.857393
0.857402
0.857407
0.857409
0.85741
0.85741
0.857411
0.857411
0.857411
0.857411
0.857411
0.857412
0.857412
0.857412
0.857412
0.857412
0.857412
0.857412
0.857412
0.857412
0.857412
0.857412
0.857412
0.857412
0.857412
0.857412
0.857412
0.857412
0.857412
0.857412
0.857412
0.857412
0.857412
0.857412
0.857412
0.857412
0.857412
0.857412
0.857412
0.857411
0.857411
0.857411
0.857411
0.857411
0.85741
0.85741
0.857409
0.857407
0.857402
0.857393
0.857374
0.857335
0.857257
0.857109
0.856849
0.866315
0.866566
0.866711
0.866789
0.866829
0.866849
0.866858
0.866863
0.866865
0.866866
0.866867
0.866867
0.866867
0.866868
0.866868
0.866868
0.866868
0.866868
0.866868
0.866868
0.866868
0.866868
0.866868
0.866868
0.866868
0.866868
0.866868
0.866868
0.866868
0.866868
0.866868
0.866868
0.866868
0.866868
0.866868
0.866868
0.866868
0.866868
0.866868
0.866868
0.866868
0.866868
0.866868
0.866868
0.866868
0.866868
0.866868
0.866867
0.866867
0.866867
0.866866
0.866865
0.866863
0.866858
0.866849
0.866829
0.866789
0.866711
0.866566
0.866315
0.875262
0.875504
0.875647
0.875724
0.875764
0.875785
0.875794
0.875799
0.875802
0.875803
0.875804
0.875804
0.875804
0.875804
0.875805
0.875805
0.875805
0.875805
0.875805
0.875805
0.875805
0.875805
0.875805
0.875805
0.875805
0.875805
0.875805
0.875805
0.875805
0.875805
0.875805
0.875805
0.875805
0.875805
0.875805
0.875805
0.875805
0.875805
0.875805
0.875805
0.875805
0.875805
0.875805
0.875805
0.875805
0.875805
0.875804
0.875804
0.875804
0.875804
0.875803
0.875802
0.875799
0.875794
0.875785
0.875764
0.875724
0.875647
0.875504
0.875262
0.883711
0.883945
0.884084
0.884161
0.884202
0.884222
0.884232
0.884238
0.88424
0.884241
0.884242
0.884243
0.884243
0.884243
0.884243
0.884243
0.884243
0.884243
0.884243
0.884243
0.884243
0.884243
0.884243
0.884243
0.884243
0.884243
0.884243
0.884243
0.884243
0.884243
0.884243
0.884243
0.884243
0.884243
0.884243
0.884243
0.884243
0.884243
0.884243
0.884243
0.884243
0.884243
0.884243
0.884243
0.884243
0.884243
0.884243
0.884243
0.884243
0.884242
0.884241
0.88424
0.884238
0.884232
0.884222
0.884202
0.884161
0.884084
0.883945
0.883711
0.891683
0.891908
0.892044
0.89212
0.892161
0.892182