/*--------------------------------*- C++ -*----------------------------------*\
| =========                 |                                                 |
| \\      /  F ield         | foam-extend: Open Source CFD                    |
|  \\    /   O peration     | Version:     4.0                                |
|   \\  /    A nd           | Web:         http://www.foam-extend.org         |
|    \\/     M anipulation  |                                                 |
\*---------------------------------------------------------------------------*/
FoamFile
{
    version     2.0;
    format      ascii;
    class       volScalarField;
    location    "790";
    object      psiE;
}
// * * * * * * * * * * * * * * * * * * * * * * * * * * * * * * * * * * * * * //

dimensions      [0 0 0 0 0 0 0];

internalField   nonuniform List<scalar> 
6960
(
0.379474
0.3795
0.379524
0.379543
0.379556
0.379565
0.379572
0.379576
0.379579
0.379582
0.379583
0.379584
0.379585
0.379586
0.379587
0.379588
0.379588
0.379588
0.379589
0.379589
0.37959
0.37959
0.37959
0.37959
0.379591
0.379591
0.379591
0.379591
0.379591
0.379591
0.379591
0.379591
0.379591
0.379591
0.379591
0.379591
0.37959
0.37959
0.37959
0.37959
0.379589
0.379589
0.379588
0.379588
0.379588
0.379587
0.379586
0.379585
0.379584
0.379583
0.379582
0.379579
0.379576
0.379572
0.379565
0.379556
0.379543
0.379524
0.3795
0.379474
1.01642
1.01653
1.01663
1.0167
1.01675
1.01679
1.01682
1.01684
1.01685
1.01686
1.01686
1.01687
1.01687
1.01687
1.01688
1.01688
1.01688
1.01688
1.01688
1.01688
1.01688
1.01689
1.01689
1.01689
1.01689
1.01689
1.01689
1.01689
1.01689
1.01689
1.01689
1.01689
1.01689
1.01689
1.01689
1.01689
1.01689
1.01689
1.01689
1.01688
1.01688
1.01688
1.01688
1.01688
1.01688
1.01688
1.01687
1.01687
1.01687
1.01686
1.01686
1.01685
1.01684
1.01682
1.01679
1.01675
1.0167
1.01663
1.01653
1.01642
1.63661
1.63681
1.63699
1.63713
1.63723
1.6373
1.63735
1.63738
1.63741
1.63742
1.63743
1.63744
1.63745
1.63745
1.63746
1.63746
1.63746
1.63747
1.63747
1.63747
1.63747
1.63747
1.63748
1.63748
1.63748
1.63748
1.63748
1.63748
1.63748
1.63748
1.63748
1.63748
1.63748
1.63748
1.63748
1.63748
1.63748
1.63748
1.63747
1.63747
1.63747
1.63747
1.63747
1.63746
1.63746
1.63746
1.63745
1.63745
1.63744
1.63743
1.63742
1.63741
1.63738
1.63735
1.6373
1.63723
1.63713
1.63699
1.63681
1.63661
2.2609
2.2612
2.26147
2.26168
2.26183
2.26194
2.26201
2.26206
2.2621
2.26212
2.26214
2.26215
2.26216
2.26217
2.26217
2.26218
2.26218
2.26219
2.26219
2.26219
2.2622
2.2622
2.2622
2.2622
2.2622
2.2622
2.26221
2.26221
2.26221
2.26221
2.26221
2.26221
2.26221
2.26221
2.2622
2.2622
2.2622
2.2622
2.2622
2.2622
2.26219
2.26219
2.26219
2.26218
2.26218
2.26217
2.26217
2.26216
2.26215
2.26214
2.26212
2.2621
2.26206
2.26201
2.26194
2.26183
2.26168
2.26147
2.2612
2.2609
2.89416
2.89456
2.89493
2.89521
2.89541
2.89555
2.89565
2.89572
2.89576
2.8958
2.89582
2.89584
2.89585
2.89586
2.89587
2.89587
2.89588
2.89588
2.89589
2.89589
2.8959
2.8959
2.8959
2.8959
2.89591
2.89591
2.89591
2.89591
2.89591
2.89591
2.89591
2.89591
2.89591
2.89591
2.89591
2.89591
2.8959
2.8959
2.8959
2.8959
2.89589
2.89589
2.89588
2.89588
2.89587
2.89587
2.89586
2.89585
2.89584
2.89582
2.8958
2.89576
2.89572
2.89565
2.89555
2.89541
2.89521
2.89493
2.89456
2.89416
3.53733
3.53783
3.53829
3.53865
3.5389
3.53908
3.5392
3.53928
3.53934
3.53938
3.53941
3.53943
3.53945
3.53946
3.53947
3.53948
3.53949
3.53949
3.5395
3.5395
3.53951
3.53951
3.53952
3.53952
3.53952
3.53952
3.53952
3.53953
3.53953
3.53953
3.53953
3.53953
3.53953
3.53952
3.53952
3.53952
3.53952
3.53952
3.53951
3.53951
3.5395
3.5395
3.53949
3.53949
3.53948
3.53947
3.53946
3.53945
3.53943
3.53941
3.53938
3.53934
3.53928
3.5392
3.53908
3.5389
3.53865
3.53829
3.53783
3.53733
4.19036
4.19096
4.19151
4.19194
4.19224
4.19246
4.1926
4.1927
4.19277
4.19282
4.19286
4.19288
4.1929
4.19292
4.19293
4.19294
4.19295
4.19296
4.19296
4.19297
4.19297
4.19298
4.19298
4.19298
4.19299
4.19299
4.19299
4.19299
4.19299
4.19299
4.19299
4.19299
4.19299
4.19299
4.19299
4.19299
4.19298
4.19298
4.19298
4.19297
4.19297
4.19296
4.19296
4.19295
4.19294
4.19293
4.19292
4.1929
4.19288
4.19286
4.19282
4.19277
4.1927
4.1926
4.19246
4.19224
4.19194
4.19151
4.19096
4.19036
4.8529
4.85359
4.85424
4.85474
4.85509
4.85534
4.85552
4.85563
4.85572
4.85577
4.85581
4.85584
4.85587
4.85588
4.8559
4.85591
4.85592
4.85593
4.85594
4.85594
4.85595
4.85595
4.85596
4.85596
4.85597
4.85597
4.85597
4.85597
4.85597
4.85597
4.85597
4.85597
4.85597
4.85597
4.85597
4.85597
4.85596
4.85596
4.85595
4.85595
4.85594
4.85594
4.85593
4.85592
4.85591
4.8559
4.85588
4.85587
4.85584
4.85581
4.85577
4.85572
4.85563
4.85552
4.85534
4.85509
4.85474
4.85424
4.85359
4.8529
5.52448
5.52528
5.52602
5.52658
5.52699
5.52727
5.52747
5.52761
5.5277
5.52777
5.52781
5.52785
5.52787
5.52789
5.52791
5.52792
5.52793
5.52794
5.52795
5.52796
5.52797
5.52797
5.52798
5.52798
5.52799
5.52799
5.52799
5.52799
5.528
5.528
5.528
5.528
5.52799
5.52799
5.52799
5.52799
5.52798
5.52798
5.52797
5.52797
5.52796
5.52795
5.52794
5.52793
5.52792
5.52791
5.52789
5.52787
5.52785
5.52781
5.52777
5.5277
5.52761
5.52747
5.52727
5.52699
5.52658
5.52602
5.52528
5.52448
6.20455
6.20545
6.20628
6.20691
6.20737
6.20769
6.20791
6.20806
6.20817
6.20824
6.2083
6.20833
6.20836
6.20839
6.20841
6.20842
6.20843
6.20845
6.20846
6.20846
6.20847
6.20848
6.20848
6.20849
6.20849
6.2085
6.2085
6.2085
6.2085
6.2085
6.2085
6.2085
6.2085
6.2085
6.2085
6.20849
6.20849
6.20848
6.20848
6.20847
6.20846
6.20846
6.20845
6.20843
6.20842
6.20841
6.20839
6.20836
6.20833
6.2083
6.20824
6.20817
6.20806
6.20791
6.20769
6.20737
6.20691
6.20628
6.20545
6.20455
6.89246
6.89345
6.89437
6.89507
6.89558
6.89594
6.89618
6.89635
6.89647
6.89655
6.89661
6.89665
6.89668
6.89671
6.89673
6.89675
6.89676
6.89677
6.89678
6.89679
6.8968
6.89681
6.89682
6.89682
6.89683
6.89683
6.89684
6.89684
6.89684
6.89684
6.89684
6.89684
6.89684
6.89684
6.89683
6.89683
6.89682
6.89682
6.89681
6.8968
6.89679
6.89678
6.89677
6.89676
6.89675
6.89673
6.89671
6.89668
6.89665
6.89661
6.89655
6.89647
6.89635
6.89618
6.89594
6.89558
6.89507
6.89437
6.89345
6.89246
7.58744
7.58853
7.58953
7.5903
7.59086
7.59125
7.59152
7.5917
7.59183
7.59192
7.59198
7.59203
7.59207
7.5921
7.59212
7.59214
7.59215
7.59217
7.59218
7.59219
7.5922
7.59221
7.59222
7.59222
7.59223
7.59223
7.59224
7.59224
7.59224
7.59224
7.59224
7.59224
7.59224
7.59224
7.59223
7.59223
7.59222
7.59222
7.59221
7.5922
7.59219
7.59218
7.59217
7.59215
7.59214
7.59212
7.5921
7.59207
7.59203
7.59198
7.59192
7.59183
7.5917
7.59152
7.59125
7.59086
7.5903
7.58953
7.58853
7.58744
8.28862
8.28979
8.29088
8.29172
8.29232
8.29275
8.29304
8.29324
8.29338
8.29348
8.29355
8.2936
8.29364
8.29367
8.29369
8.29371
8.29373
8.29375
8.29376
8.29377
8.29378
8.29379
8.2938
8.29381
8.29381
8.29382
8.29382
8.29383
8.29383
8.29383
8.29383
8.29383
8.29383
8.29382
8.29382
8.29381
8.29381
8.2938
8.29379
8.29378
8.29377
8.29376
8.29375
8.29373
8.29371
8.29369
8.29367
8.29364
8.2936
8.29355
8.29348
8.29338
8.29324
8.29304
8.29275
8.29232
8.29172
8.29088
8.28979
8.28862
8.99498
8.99624
8.99741
8.99831
8.99896
8.99941
8.99973
8.99994
9.00009
9.0002
9.00028
9.00033
9.00037
9.00041
9.00044
9.00046
9.00048
9.00049
9.00051
9.00052
9.00053
9.00054
9.00055
9.00056
9.00057
9.00057
9.00058
9.00058
9.00058
9.00058
9.00058
9.00058
9.00058
9.00058
9.00057
9.00057
9.00056
9.00055
9.00054
9.00053
9.00052
9.00051
9.00049
9.00048
9.00046
9.00044
9.00041
9.00037
9.00033
9.00028
9.0002
9.00009
8.99994
8.99973
8.99941
8.99896
8.99831
8.99741
8.99624
8.99498
9.70535
9.70669
9.70794
9.7089
9.70959
9.71008
9.71042
9.71065
9.71081
9.71092
9.711
9.71106
9.71111
9.71114
9.71117
9.7112
9.71122
9.71124
9.71125
9.71127
9.71128
9.71129
9.7113
9.71131
9.71132
9.71132
9.71133
9.71133
9.71133
9.71133
9.71133
9.71133
9.71133
9.71133
9.71132
9.71132
9.71131
9.7113
9.71129
9.71128
9.71127
9.71125
9.71124
9.71122
9.7112
9.71117
9.71114
9.71111
9.71106
9.711
9.71092
9.71081
9.71065
9.71042
9.71008
9.70959
9.7089
9.70794
9.70669
9.70535
10.4184
10.4198
10.4211
10.4221
10.4229
10.4234
10.4238
10.424
10.4242
10.4243
10.4244
10.4244
10.4245
10.4245
10.4246
10.4246
10.4246
10.4246
10.4246
10.4247
10.4247
10.4247
10.4247
10.4247
10.4247
10.4247
10.4247
10.4247
10.4247
10.4247
10.4247
10.4247
10.4247
10.4247
10.4247
10.4247
10.4247
10.4247
10.4247
10.4247
10.4247
10.4246
10.4246
10.4246
10.4246
10.4246
10.4245
10.4245
10.4244
10.4244
10.4243
10.4242
10.424
10.4238
10.4234
10.4229
10.4221
10.4211
10.4198
10.4184
11.1325
11.134
11.1354
11.1365
11.1373
11.1378
11.1382
11.1384
11.1386
11.1388
11.1388
11.1389
11.139
11.139
11.139
11.1391
11.1391
11.1391
11.1391
11.1392
11.1392
11.1392
11.1392
11.1392
11.1392
11.1392
11.1392
11.1392
11.1392
11.1392
11.1392
11.1392
11.1392
11.1392
11.1392
11.1392
11.1392
11.1392
11.1392
11.1392
11.1392
11.1391
11.1391
11.1391
11.1391
11.139
11.139
11.139
11.1389
11.1388
11.1388
11.1386
11.1384
11.1382
11.1378
11.1373
11.1365
11.1354
11.134
11.1325
11.846
11.8476
11.8491
11.8502
11.851
11.8515
11.8519
11.8522
11.8524
11.8525
11.8526
11.8527
11.8528
11.8528
11.8528
11.8529
11.8529
11.8529
11.8529
11.853
11.853
11.853
11.853
11.853
11.853
11.853
11.853
11.853
11.853
11.853
11.853
11.853
11.853
11.853
11.853
11.853
11.853
11.853
11.853
11.853
11.853
11.8529
11.8529
11.8529
11.8529
11.8528
11.8528
11.8528
11.8527
11.8526
11.8525
11.8524
11.8522
11.8519
11.8515
11.851
11.8502
11.8491
11.8476
11.846
12.5568
12.5584
12.56
12.5611
12.562
12.5625
12.5629
12.5632
12.5634
12.5636
12.5637
12.5637
12.5638
12.5638
12.5639
12.5639
12.5639
12.564
12.564
12.564
12.564
12.564
12.5641
12.5641
12.5641
12.5641
12.5641
12.5641
12.5641
12.5641
12.5641
12.5641
12.5641
12.5641
12.5641
12.5641
12.5641
12.5641
12.564
12.564
12.564
12.564
12.564
12.5639
12.5639
12.5639
12.5638
12.5638
12.5637
12.5637
12.5636
12.5634
12.5632
12.5629
12.5625
12.562
12.5611
12.56
12.5584
12.5568
13.2625
13.2642
13.2657
13.2669
13.2678
13.2684
13.2688
13.2691
13.2693
13.2695
13.2696
13.2697
13.2697
13.2698
13.2698
13.2698
13.2699
13.2699
13.2699
13.2699
13.27
13.27
13.27
13.27
13.27
13.27
13.27
13.27
13.27
13.27
13.27
13.27
13.27
13.27
13.27
13.27
13.27
13.27
13.27
13.27
13.2699
13.2699
13.2699
13.2699
13.2698
13.2698
13.2698
13.2697
13.2697
13.2696
13.2695
13.2693
13.2691
13.2688
13.2684
13.2678
13.2669
13.2657
13.2642
13.2625
13.9604
13.9621
13.9637
13.9649
13.9658
13.9664
13.9668
13.9671
13.9673
13.9675
13.9676
13.9677
13.9677
13.9678
13.9678
13.9679
13.9679
13.9679
13.9679
13.968
13.968
13.968
13.968
13.968
13.968
13.968
13.9681
13.9681
13.9681
13.9681
13.9681
13.9681
13.9681
13.9681
13.968
13.968
13.968
13.968
13.968
13.968
13.968
13.9679
13.9679
13.9679
13.9679
13.9678
13.9678
13.9677
13.9677
13.9676
13.9675
13.9673
13.9671
13.9668
13.9664
13.9658
13.9649
13.9637
13.9621
13.9604
14.6471
14.6489
14.6505
14.6517
14.6526
14.6533
14.6537
14.654
14.6542
14.6544
14.6545
14.6546
14.6546
14.6547
14.6547
14.6548
14.6548
14.6548
14.6549
14.6549
14.6549
14.6549
14.6549
14.6549
14.655
14.655
14.655
14.655
14.655
14.655
14.655
14.655
14.655
14.655
14.655
14.655
14.6549
14.6549
14.6549
14.6549
14.6549
14.6549
14.6548
14.6548
14.6548
14.6547
14.6547
14.6546
14.6546
14.6545
14.6544
14.6542
14.654
14.6537
14.6533
14.6526
14.6517
14.6505
14.6489
14.6471
15.3191
15.3208
15.3225
15.3237
15.3246
15.3252
15.3257
15.326
15.3262
15.3264
15.3265
15.3266
15.3266
15.3267
15.3267
15.3268
15.3268
15.3268
15.3269
15.3269
15.3269
15.3269
15.327
15.327
15.327
15.327
15.327
15.327
15.327
15.327
15.327
15.327
15.327
15.327
15.327
15.327
15.327
15.327
15.3269
15.3269
15.3269
15.3269
15.3268
15.3268
15.3268
15.3267
15.3267
15.3266
15.3266
15.3265
15.3264
15.3262
15.326
15.3257
15.3252
15.3246
15.3237
15.3225
15.3208
15.3191
15.9717
15.9735
15.9751
15.9763
15.9772
15.9779
15.9783
15.9786
15.9788
15.979
15.9791
15.9792
15.9793
15.9793
15.9794
15.9794
15.9795
15.9795
15.9795
15.9795
15.9796
15.9796
15.9796
15.9796
15.9796
15.9796
15.9796
15.9797
15.9797
15.9797
15.9797
15.9797
15.9797
15.9796
15.9796
15.9796
15.9796
15.9796
15.9796
15.9796
15.9795
15.9795
15.9795
15.9795
15.9794
15.9794
15.9793
15.9793
15.9792
15.9791
15.979
15.9788
15.9786
15.9783
15.9779
15.9772
15.9763
15.9751
15.9735
15.9717
16.5998
16.6015
16.6031
16.6043
16.6052
16.6058
16.6063
16.6066
16.6068
16.6069
16.607
16.6071
16.6072
16.6073
16.6073
16.6074
16.6074
16.6074
16.6075
16.6075
16.6075
16.6075
16.6076
16.6076
16.6076
16.6076
16.6076
16.6076
16.6076
16.6076
16.6076
16.6076
16.6076
16.6076
16.6076
16.6076
16.6076
16.6076
16.6075
16.6075
16.6075
16.6075
16.6074
16.6074
16.6074
16.6073
16.6073
16.6072
16.6071
16.607
16.6069
16.6068
16.6066
16.6063
16.6058
16.6052
16.6043
16.6031
16.6015
16.5998
17.1969
17.1985
17.2001
17.2012
17.2021
17.2027
17.2031
17.2034
17.2036
17.2038
17.2039
17.204
17.204
17.2041
17.2041
17.2042
17.2042
17.2043
17.2043
17.2043
17.2043
17.2044
17.2044
17.2044
17.2044
17.2044
17.2044
17.2044
17.2045
17.2045
17.2045
17.2045
17.2044
17.2044
17.2044
17.2044
17.2044
17.2044
17.2044
17.2043
17.2043
17.2043
17.2043
17.2042
17.2042
17.2041
17.2041
17.204
17.204
17.2039
17.2038
17.2036
17.2034
17.2031
17.2027
17.2021
17.2012
17.2001
17.1985
17.1969
17.7553
17.7569
17.7583
17.7594
17.7602
17.7608
17.7612
17.7614
17.7616
17.7618
17.7619
17.762
17.7621
17.7621
17.7622
17.7622
17.7623
17.7623
17.7623
17.7624
17.7624
17.7624
17.7624
17.7625
17.7625
17.7625
17.7625
17.7625
17.7625
17.7625
17.7625
17.7625
17.7625
17.7625
17.7625
17.7625
17.7625
17.7624
17.7624
17.7624
17.7624
17.7623
17.7623
17.7623
17.7622
17.7622
17.7621
17.7621
17.762
17.7619
17.7618
17.7616
17.7614
17.7612
17.7608
17.7602
17.7594
17.7583
17.7569
17.7553
18.2662
18.2676
18.2689
18.2699
18.2706
18.2712
18.2715
18.2718
18.272
18.2721
18.2722
18.2723
18.2724
18.2725
18.2725
18.2726
18.2726
18.2726
18.2727
18.2727
18.2727
18.2728
18.2728
18.2728
18.2728
18.2728
18.2728
18.2728
18.2728
18.2728
18.2728
18.2728
18.2728
18.2728
18.2728
18.2728
18.2728
18.2728
18.2728
18.2727
18.2727
18.2727
18.2726
18.2726
18.2726
18.2725
18.2725
18.2724
18.2723
18.2722
18.2721
18.272
18.2718
18.2715
18.2712
18.2706
18.2699
18.2689
18.2676
18.2662
18.72
18.7213
18.7224
18.7233
18.7239
18.7244
18.7247
18.725
18.7251
18.7253
18.7254
18.7255
18.7255
18.7256
18.7257
18.7257
18.7257
18.7258
18.7258
18.7259
18.7259
18.7259
18.7259
18.7259
18.726
18.726
18.726
18.726
18.726
18.726
18.726
18.726
18.726
18.726
18.726
18.726
18.7259
18.7259
18.7259
18.7259
18.7259
18.7258
18.7258
18.7257
18.7257
18.7257
18.7256
18.7255
18.7255
18.7254
18.7253
18.7251
18.725
18.7247
18.7244
18.7239
18.7233
18.7224
18.7213
18.72
19.1088
19.1098
19.1107
19.1114
19.112
19.1124
19.1127
19.1129
19.113
19.1132
19.1133
19.1133
19.1134
19.1135
19.1135
19.1136
19.1136
19.1137
19.1137
19.1137
19.1138
19.1138
19.1138
19.1138
19.1138
19.1139
19.1139
19.1139
19.1139
19.1139
19.1139
19.1139
19.1139
19.1139
19.1139
19.1138
19.1138
19.1138
19.1138
19.1138
19.1137
19.1137
19.1137
19.1136
19.1136
19.1135
19.1135
19.1134
19.1133
19.1133
19.1132
19.113
19.1129
19.1127
19.1124
19.112
19.1114
19.1107
19.1098
19.1088
19.4286
19.4294
19.4302
19.4307
19.4312
19.4315
19.4317
19.4319
19.432
19.4322
19.4322
19.4323
19.4324
19.4324
19.4325
19.4325
19.4326
19.4326
19.4327
19.4327
19.4327
19.4328
19.4328
19.4328
19.4328
19.4328
19.4328
19.4329
19.4329
19.4329
19.4329
19.4329
19.4329
19.4328
19.4328
19.4328
19.4328
19.4328
19.4328
19.4327
19.4327
19.4327
19.4326
19.4326
19.4325
19.4325
19.4324
19.4324
19.4323
19.4322
19.4322
19.432
19.4319
19.4317
19.4315
19.4312
19.4307
19.4302
19.4294
19.4286
19.6829
19.6834
19.684
19.6844
19.6847
19.685
19.6852
19.6853
19.6854
19.6855
19.6856
19.6857
19.6857
19.6858
19.6859
19.6859
19.686
19.686
19.686
19.6861
19.6861
19.6861
19.6861
19.6862
19.6862
19.6862
19.6862
19.6862
19.6862
19.6862
19.6862
19.6862
19.6862
19.6862
19.6862
19.6862
19.6862
19.6861
19.6861
19.6861
19.6861
19.686
19.686
19.686
19.6859
19.6859
19.6858
19.6857
19.6857
19.6856
19.6855
19.6854
19.6853
19.6852
19.685
19.6847
19.6844
19.684
19.6834
19.6829
19.8811
19.8815
19.8818
19.8822
19.8824
19.8826
19.8827
19.8829
19.883
19.8831
19.8831
19.8832
19.8833
19.8833
19.8834
19.8834
19.8835
19.8835
19.8836
19.8836
19.8836
19.8837
19.8837
19.8837
19.8837
19.8837
19.8838
19.8838
19.8838
19.8838
19.8838
19.8838
19.8838
19.8838
19.8837
19.8837
19.8837
19.8837
19.8837
19.8836
19.8836
19.8836
19.8835
19.8835
19.8834
19.8834
19.8833
19.8833
19.8832
19.8831
19.8831
19.883
19.8829
19.8827
19.8826
19.8824
19.8822
19.8818
19.8815
19.8811
20.0363
20.0365
20.0367
20.037
20.0372
20.0373
20.0374
20.0375
20.0376
20.0377
20.0378
20.0378
20.0379
20.038
20.038
20.0381
20.0381
20.0382
20.0382
20.0382
20.0383
20.0383
20.0383
20.0384
20.0384
20.0384
20.0384
20.0384
20.0384
20.0384
20.0384
20.0384
20.0384
20.0384
20.0384
20.0384
20.0384
20.0383
20.0383
20.0383
20.0382
20.0382
20.0382
20.0381
20.0381
20.038
20.038
20.0379
20.0378
20.0378
20.0377
20.0376
20.0375
20.0374
20.0373
20.0372
20.037
20.0367
20.0365
20.0363
20.1606
20.1608
20.1609
20.1611
20.1612
20.1614
20.1615
20.1616
20.1616
20.1617
20.1618
20.1619
20.1619
20.162
20.162
20.1621
20.1621
20.1622
20.1622
20.1623
20.1623
20.1623
20.1624
20.1624
20.1624
20.1624
20.1624
20.1625
20.1625
20.1625
20.1625
20.1625
20.1625
20.1624
20.1624
20.1624
20.1624
20.1624
20.1623
20.1623
20.1623
20.1622
20.1622
20.1621
20.1621
20.162
20.162
20.1619
20.1619
20.1618
20.1617
20.1616
20.1616
20.1615
20.1614
20.1612
20.1611
20.1609
20.1608
20.1606
20.2638
20.2638
20.264
20.2641
20.2642
20.2643
20.2644
20.2645
20.2646
20.2646
20.2647
20.2648
20.2648
20.2649
20.265
20.265
20.2651
20.2651
20.2652
20.2652
20.2652
20.2653
20.2653
20.2653
20.2653
20.2654
20.2654
20.2654
20.2654
20.2654
20.2654
20.2654
20.2654
20.2654
20.2654
20.2653
20.2653
20.2653
20.2653
20.2652
20.2652
20.2652
20.2651
20.2651
20.265
20.265
20.2649
20.2648
20.2648
20.2647
20.2646
20.2646
20.2645
20.2644
20.2643
20.2642
20.2641
20.264
20.2638
20.2638
20.3522
20.3523
20.3523
20.3524
20.3525
20.3526
20.3527
20.3528
20.3529
20.3529
20.353
20.3531
20.3531
20.3532
20.3533
20.3533
20.3534
20.3534
20.3535
20.3535
20.3535
20.3536
20.3536
20.3536
20.3537
20.3537
20.3537
20.3537
20.3537
20.3537
20.3537
20.3537
20.3537
20.3537
20.3537
20.3537
20.3536
20.3536
20.3536
20.3535
20.3535
20.3535
20.3534
20.3534
20.3533
20.3533
20.3532
20.3531
20.3531
20.353
20.3529
20.3529
20.3528
20.3527
20.3526
20.3525
20.3524
20.3523
20.3523
20.3522
20.4302
20.4302
20.4303
20.4303
20.4304
20.4305
20.4306
20.4306
20.4307
20.4308
20.4309
20.4309
20.431
20.4311
20.4311
20.4312
20.4312
20.4313
20.4313
20.4314
20.4314
20.4315
20.4315
20.4315
20.4316
20.4316
20.4316
20.4316
20.4316
20.4316
20.4316
20.4316
20.4316
20.4316
20.4316
20.4316
20.4315
20.4315
20.4315
20.4314
20.4314
20.4313
20.4313
20.4312
20.4312
20.4311
20.4311
20.431
20.4309
20.4309
20.4308
20.4307
20.4306
20.4306
20.4305
20.4304
20.4303
20.4303
20.4302
20.4302
20.5004
20.5004
20.5005
20.5005
20.5006
20.5006
20.5007
20.5008
20.5009
20.5009
20.501
20.5011
20.5011
20.5012
20.5013
20.5013
20.5014
20.5014
20.5015
20.5015
20.5016
20.5016
20.5017
20.5017
20.5017
20.5017
20.5017
20.5018
20.5018
20.5018
20.5018
20.5018
20.5018
20.5017
20.5017
20.5017
20.5017
20.5017
20.5016
20.5016
20.5015
20.5015
20.5014
20.5014
20.5013
20.5013
20.5012
20.5011
20.5011
20.501
20.5009
20.5009
20.5008
20.5007
20.5006
20.5006
20.5005
20.5005
20.5004
20.5004
20.5646
20.5646
20.5647
20.5647
20.5647
20.5648
20.5649
20.565
20.565
20.5651
20.5652
20.5652
20.5653
20.5654
20.5655
20.5655
20.5656
20.5656
20.5657
20.5657
20.5658
20.5658
20.5659
20.5659
20.5659
20.5659
20.5659
20.566
20.566
20.566
20.566
20.566
20.566
20.5659
20.5659
20.5659
20.5659
20.5659
20.5658
20.5658
20.5657
20.5657
20.5656
20.5656
20.5655
20.5655
20.5654
20.5653
20.5652
20.5652
20.5651
20.565
20.565
20.5649
20.5648
20.5647
20.5647
20.5647
20.5646
20.5646
20.6241
20.6241
20.6241
20.6241
20.6242
20.6242
20.6243
20.6244
20.6245
20.6245
20.6246
20.6247
20.6248
20.6248
20.6249
20.625
20.625
20.6251
20.6251
20.6252
20.6252
20.6253
20.6253
20.6253
20.6254
20.6254
20.6254
20.6254
20.6254
20.6254
20.6254
20.6254
20.6254
20.6254
20.6254
20.6254
20.6253
20.6253
20.6253
20.6252
20.6252
20.6251
20.6251
20.625
20.625
20.6249
20.6248
20.6248
20.6247
20.6246
20.6245
20.6245
20.6244
20.6243
20.6242
20.6242
20.6241
20.6241
20.6241
20.6241
20.6797
20.6797
20.6797
20.6797
20.6798
20.6798
20.6799
20.68
20.68
20.6801
20.6802
20.6803
20.6803
20.6804
20.6805
20.6806
20.6806
20.6807
20.6807
20.6808
20.6808
20.6809
20.6809
20.681
20.681
20.681
20.681
20.681
20.681
20.681
20.681
20.681
20.681
20.681
20.681
20.681
20.681
20.6809
20.6809
20.6808
20.6808
20.6807
20.6807
20.6806
20.6806
20.6805
20.6804
20.6803
20.6803
20.6802
20.6801
20.68
20.68
20.6799
20.6798
20.6798
20.6797
20.6797
20.6797
20.6797
20.7322
20.7321
20.7321
20.7321
20.7322
20.7322
20.7323
20.7324
20.7324
20.7325
20.7326
20.7327
20.7328
20.7328
20.7329
20.733
20.733
20.7331
20.7332
20.7332
20.7333
20.7333
20.7333
20.7334
20.7334
20.7334
20.7335
20.7335
20.7335
20.7335
20.7335
20.7335
20.7335
20.7335
20.7334
20.7334
20.7334
20.7333
20.7333
20.7333
20.7332
20.7332
20.7331
20.733
20.733
20.7329
20.7328
20.7328
20.7327
20.7326
20.7325
20.7324
20.7324
20.7323
20.7322
20.7322
20.7321
20.7321
20.7321
20.7322
20.7819
20.7819
20.7819
20.7819
20.7819
20.782
20.782
20.7821
20.7822
20.7823
20.7823
20.7824
20.7825
20.7826
20.7827
20.7827
20.7828
20.7829
20.7829
20.783
20.783
20.7831
20.7831
20.7832
20.7832
20.7832
20.7832
20.7832
20.7833
20.7833
20.7833
20.7833
20.7832
20.7832
20.7832
20.7832
20.7832
20.7831
20.7831
20.783
20.783
20.7829
20.7829
20.7828
20.7827
20.7827
20.7826
20.7825
20.7824
20.7823
20.7823
20.7822
20.7821
20.782
20.782
20.7819
20.7819
20.7819
20.7819
20.7819
20.8294
20.8294
20.8294
20.8294
20.8294
20.8294
20.8295
20.8296
20.8297
20.8297
20.8298
20.8299
20.83
20.8301
20.8302
20.8302
20.8303
20.8304
20.8304
20.8305
20.8305
20.8306
20.8306
20.8307
20.8307
20.8307
20.8307
20.8308
20.8308
20.8308
20.8308
20.8308
20.8308
20.8307
20.8307
20.8307
20.8307
20.8306
20.8306
20.8305
20.8305
20.8304
20.8304
20.8303
20.8302
20.8302
20.8301
20.83
20.8299
20.8298
20.8297
20.8297
20.8296
20.8295
20.8294
20.8294
20.8294
20.8294
20.8294
20.8294
20.875
20.8749
20.8749
20.8749
20.875
20.875
20.8751
20.8751
20.8752
20.8753
20.8754
20.8755
20.8756
20.8757
20.8757
20.8758
20.8759
20.876
20.876
20.8761
20.8761
20.8762
20.8762
20.8763
20.8763
20.8763
20.8764
20.8764
20.8764
20.8764
20.8764
20.8764
20.8764
20.8764
20.8763
20.8763
20.8763
20.8762
20.8762
20.8761
20.8761
20.876
20.876
20.8759
20.8758
20.8757
20.8757
20.8756
20.8755
20.8754
20.8753
20.8752
20.8751
20.8751
20.875
20.875
20.8749
20.8749
20.8749
20.875
20.9189
20.9189
20.9188
20.9188
20.9189
20.9189
20.919
20.9191
20.9191
20.9192
20.9193
20.9194
20.9195
20.9196
20.9197
20.9197
20.9198
20.9199
20.92
20.92
20.9201
20.9201
20.9202
20.9202
20.9203
20.9203
20.9203
20.9203
20.9203
20.9203
20.9203
20.9203
20.9203
20.9203
20.9203
20.9203
20.9202
20.9202
20.9201
20.9201
20.92
20.92
20.9199
20.9198
20.9197
20.9197
20.9196
20.9195
20.9194
20.9193
20.9192
20.9191
20.9191
20.919
20.9189
20.9189
20.9188
20.9188
20.9189
20.9189
20.9614
20.9613
20.9613
20.9613
20.9614
20.9614
20.9615
20.9616
20.9616
20.9617
20.9618
20.9619
20.962
20.9621
20.9622
20.9623
20.9623
20.9624
20.9625
20.9626
20.9626
20.9627
20.9627
20.9628
20.9628
20.9628
20.9628
20.9629
20.9629
20.9629
20.9629
20.9629
20.9629
20.9628
20.9628
20.9628
20.9628
20.9627
20.9627
20.9626
20.9626
20.9625
20.9624
20.9623
20.9623
20.9622
20.9621
20.962
20.9619
20.9618
20.9617
20.9616
20.9616
20.9615
20.9614
20.9614
20.9613
20.9613
20.9613
20.9614
21.0026
21.0026
21.0026
21.0026
21.0026
21.0027
21.0027
21.0028
21.0029
21.003
21.0031
21.0032
21.0033
21.0034
21.0035
21.0036
21.0036
21.0037
21.0038
21.0039
21.0039
21.004
21.004
21.0041
21.0041
21.0041
21.0042
21.0042
21.0042
21.0042
21.0042
21.0042
21.0042
21.0042
21.0041
21.0041
21.0041
21.004
21.004
21.0039
21.0039
21.0038
21.0037
21.0036
21.0036
21.0035
21.0034
21.0033
21.0032
21.0031
21.003
21.0029
21.0028
21.0027
21.0027
21.0026
21.0026
21.0026
21.0026
21.0026
21.0428
21.0428
21.0428
21.0428
21.0428
21.0429
21.0429
21.043
21.0431
21.0432
21.0433
21.0434
21.0435
21.0436
21.0437
21.0438
21.0439
21.044
21.044
21.0441
21.0442
21.0442
21.0443
21.0443
21.0444
21.0444
21.0444
21.0444
21.0444
21.0444
21.0444
21.0444
21.0444
21.0444
21.0444
21.0444
21.0443
21.0443
21.0442
21.0442
21.0441
21.044
21.044
21.0439
21.0438
21.0437
21.0436
21.0435
21.0434
21.0433
21.0432
21.0431
21.043
21.0429
21.0429
21.0428
21.0428
21.0428
21.0428
21.0428
21.0821
21.0821
21.0821
21.0821
21.0821
21.0822
21.0822
21.0823
21.0824
21.0825
21.0826
21.0827
21.0828
21.0829
21.083
21.0831
21.0832
21.0833
21.0833
21.0834
21.0835
21.0835
21.0836
21.0836
21.0837
21.0837
21.0837
21.0838
21.0838
21.0838
21.0838
21.0838
21.0838
21.0837
21.0837
21.0837
21.0836
21.0836
21.0835
21.0835
21.0834
21.0833
21.0833
21.0832
21.0831
21.083
21.0829
21.0828
21.0827
21.0826
21.0825
21.0824
21.0823
21.0822
21.0822
21.0821
21.0821
21.0821
21.0821
21.0821
21.1206
21.1206
21.1205
21.1206
21.1206
21.1206
21.1207
21.1208
21.1209
21.121
21.1211
21.1212
21.1213
21.1214
21.1215
21.1216
21.1217
21.1218
21.1219
21.1219
21.122
21.1221
21.1221
21.1222
21.1222
21.1222
21.1223
21.1223
21.1223
21.1223
21.1223
21.1223
21.1223
21.1223
21.1222
21.1222
21.1222
21.1221
21.1221
21.122
21.1219
21.1219
21.1218
21.1217
21.1216
21.1215
21.1214
21.1213
21.1212
21.1211
21.121
21.1209
21.1208
21.1207
21.1206
21.1206
21.1206
21.1205
21.1206
21.1206
21.1584
21.1583
21.1583
21.1583
21.1584
21.1584
21.1585
21.1586
21.1587
21.1588
21.1589
21.159
21.1591
21.1592
21.1593
21.1594
21.1595
21.1596
21.1597
21.1598
21.1598
21.1599
21.16
21.16
21.1601
21.1601
21.1601
21.1601
21.1602
21.1602
21.1602
21.1602
21.1601
21.1601
21.1601
21.1601
21.16
21.16
21.1599
21.1598
21.1598
21.1597
21.1596
21.1595
21.1594
21.1593
21.1592
21.1591
21.159
21.1589
21.1588
21.1587
21.1586
21.1585
21.1584
21.1584
21.1583
21.1583
21.1583
21.1584
21.1956
21.1955
21.1955
21.1955
21.1956
21.1956
21.1957
21.1958
21.1959
21.196
21.1961
21.1962
21.1963
21.1964
21.1965
21.1966
21.1967
21.1968
21.1969
21.197
21.1971
21.1971
21.1972
21.1973
21.1973
21.1973
21.1974
21.1974
21.1974
21.1974
21.1974
21.1974
21.1974
21.1974
21.1973
21.1973
21.1973
21.1972
21.1971
21.1971
21.197
21.1969
21.1968
21.1967
21.1966
21.1965
21.1964
21.1963
21.1962
21.1961
21.196
21.1959
21.1958
21.1957
21.1956
21.1956
21.1955
21.1955
21.1955
21.1956
21.2322
21.2322
21.2322
21.2322
21.2322
21.2323
21.2324
21.2325
21.2326
21.2327
21.2328
21.2329
21.233
21.2331
21.2333
21.2334
21.2335
21.2336
21.2337
21.2337
21.2338
21.2339
21.2339
21.234
21.234
21.2341
21.2341
21.2341
21.2342
21.2342
21.2342
21.2342
21.2341
21.2341
21.2341
21.234
21.234
21.2339
21.2339
21.2338
21.2337
21.2337
21.2336
21.2335
21.2334
21.2333
21.2331
21.233
21.2329
21.2328
21.2327
21.2326
21.2325
21.2324
21.2323
21.2322
21.2322
21.2322
21.2322
21.2322
21.2685
21.2685
21.2684
21.2685
21.2685
21.2685
21.2686
21.2687
21.2688
21.2689
21.2691
21.2692
21.2693
21.2694
21.2695
21.2696
21.2698
21.2699
21.27
21.27
21.2701
21.2702
21.2703
21.2703
21.2704
21.2704
21.2704
21.2705
21.2705
21.2705
21.2705
21.2705
21.2705
21.2704
21.2704
21.2704
21.2703
21.2703
21.2702
21.2701
21.27
21.27
21.2699
21.2698
21.2696
21.2695
21.2694
21.2693
21.2692
21.2691
21.2689
21.2688
21.2687
21.2686
21.2685
21.2685
21.2685
21.2684
21.2685
21.2685
21.3044
21.3043
21.3043
21.3043
21.3044
21.3044
21.3045
21.3046
21.3047
21.3048
21.305
21.3051
21.3052
21.3053
21.3055
21.3056
21.3057
21.3058
21.3059
21.306
21.3061
21.3061
21.3062
21.3063
21.3063
21.3064
21.3064
21.3064
21.3064
21.3064
21.3064
21.3064
21.3064
21.3064
21.3064
21.3063
21.3063
21.3062
21.3061
21.3061
21.306
21.3059
21.3058
21.3057
21.3056
21.3055
21.3053
21.3052
21.3051
21.305
21.3048
21.3047
21.3046
21.3045
21.3044
21.3044
21.3043
21.3043
21.3043
21.3044
21.3399
21.3399
21.3399
21.3399
21.34
21.34
21.3401
21.3402
21.3403
21.3404
21.3406
21.3407
21.3408
21.341
21.3411
21.3412
21.3413
21.3414
21.3415
21.3416
21.3417
21.3418
21.3419
21.3419
21.342
21.342
21.3421
21.3421
21.3421
21.3421
21.3421
21.3421
21.3421
21.3421
21.342
21.342
21.3419
21.3419
21.3418
21.3417
21.3416
21.3415
21.3414
21.3413
21.3412
21.3411
21.341
21.3408
21.3407
21.3406
21.3404
21.3403
21.3402
21.3401
21.34
21.34
21.3399
21.3399
21.3399
21.3399
21.3753
21.3753
21.3753
21.3753
21.3753
21.3754
21.3755
21.3756
21.3757
21.3758
21.376
21.3761
21.3762
21.3764
21.3765
21.3766
21.3767
21.3768
21.377
21.377
21.3771
21.3772
21.3773
21.3774
21.3774
21.3774
21.3775
21.3775
21.3775
21.3775
21.3775
21.3775
21.3775
21.3775
21.3774
21.3774
21.3774
21.3773
21.3772
21.3771
21.377
21.377
21.3768
21.3767
21.3766
21.3765
21.3764
21.3762
21.3761
21.376
21.3758
21.3757
21.3756
21.3755
21.3754
21.3753
21.3753
21.3753
21.3753
21.3753
21.4104
21.4104
21.4104
21.4105
21.4105
21.4106
21.4107
21.4108
21.4109
21.411
21.4111
21.4113
21.4114
21.4116
21.4117
21.4118
21.412
21.4121
21.4122
21.4123
21.4124
21.4125
21.4125
21.4126
21.4126
21.4127
21.4127
21.4128
21.4128
21.4128
21.4128
21.4128
21.4128
21.4127
21.4127
21.4126
21.4126
21.4125
21.4125
21.4124
21.4123
21.4122
21.4121
21.412
21.4118
21.4117
21.4116
21.4114
21.4113
21.4111
21.411
21.4109
21.4108
21.4107
21.4106
21.4105
21.4105
21.4104
21.4104
21.4104
21.4455
21.4455
21.4455
21.4455
21.4455
21.4456
21.4457
21.4458
21.4459
21.4461
21.4462
21.4463
21.4465
21.4466
21.4468
21.4469
21.447
21.4472
21.4473
21.4474
21.4475
21.4476
21.4476
21.4477
21.4478
21.4478
21.4478
21.4479
21.4479
21.4479
21.4479
21.4479
21.4479
21.4478
21.4478
21.4478
21.4477
21.4476
21.4476
21.4475
21.4474
21.4473
21.4472
21.447
21.4469
21.4468
21.4466
21.4465
21.4463
21.4462
21.4461
21.4459
21.4458
21.4457
21.4456
21.4455
21.4455
21.4455
21.4455
21.4455
21.4804
21.4804
21.4804
21.4804
21.4805
21.4806
21.4806
21.4808
21.4809
21.481
21.4812
21.4813
21.4815
21.4816
21.4818
21.4819
21.482
21.4822
21.4823
21.4824
21.4825
21.4826
21.4827
21.4827
21.4828
21.4828
21.4829
21.4829
21.4829
21.4829
21.4829
21.4829
21.4829
21.4829