/*--------------------------------*- C++ -*----------------------------------*\
| =========                 |                                                 |
| \\      /  F ield         | foam-extend: Open Source CFD                    |
|  \\    /   O peration     | Version:     4.0                                |
|   \\  /    A nd           | Web:         http://www.foam-extend.org         |
|    \\/     M anipulation  |                                                 |
\*---------------------------------------------------------------------------*/
FoamFile
{
    version     2.0;
    format      ascii;
    class       volScalarField;
    location    "12";
    object      p;
}
// * * * * * * * * * * * * * * * * * * * * * * * * * * * * * * * * * * * * * //

dimensions      [0 2 -2 0 0 0 0];

internalField   nonuniform List<scalar> 
6960
(
2.77376e-23
4.23204e-23
4.16532e-23
4.17808e-23
4.15873e-23
4.17267e-23
4.17118e-23
4.17354e-23
4.16107e-23
4.15105e-23
4.14639e-23
4.15455e-23
4.16558e-23
4.17616e-23
4.18041e-23
4.17981e-23
4.17679e-23
4.17444e-23
4.17346e-23
4.17373e-23
4.17412e-23
4.17413e-23
4.17334e-23
4.17174e-23
4.16953e-23
4.16736e-23
4.16608e-23
4.16628e-23
4.16787e-23
4.17004e-23
4.17176e-23
4.17232e-23
4.17172e-23
4.17047e-23
4.16915e-23
4.16818e-23
4.16762e-23
4.16738e-23
4.16729e-23
4.16725e-23
4.16724e-23
4.1673e-23
4.1675e-23
4.16789e-23
4.1685e-23
4.16923e-23
4.16992e-23
4.17034e-23
4.1703e-23
4.16986e-23
4.16905e-23
4.16813e-23
4.16732e-23
4.16676e-23
4.16679e-23
4.16738e-23
4.16835e-23
4.16944e-23
4.17011e-23
4.17018e-23
4.02121e-23
4.21906e-23
4.15312e-23
4.16599e-23
4.14695e-23
4.16145e-23
4.15989e-23
4.16169e-23
4.14871e-23
4.13861e-23
4.13427e-23
4.14292e-23
4.15432e-23
4.16507e-23
4.16944e-23
4.16901e-23
4.16628e-23
4.16425e-23
4.16355e-23
4.164e-23
4.16448e-23
4.16443e-23
4.16337e-23
4.16126e-23
4.15833e-23
4.15536e-23
4.15328e-23
4.15276e-23
4.15375e-23
4.15555e-23
4.15719e-23
4.15807e-23
4.15814e-23
4.15778e-23
4.15743e-23
4.1573e-23
4.15737e-23
4.1575e-23
4.15754e-23
4.15748e-23
4.15738e-23
4.15733e-23
4.15738e-23
4.15757e-23
4.15788e-23
4.15821e-23
4.15845e-23
4.15843e-23
4.15804e-23
4.15743e-23
4.15669e-23
4.15607e-23
4.15564e-23
4.15536e-23
4.15541e-23
4.15574e-23
4.15641e-23
4.15734e-23
4.15804e-23
4.15864e-23
4.23109e-23
4.20897e-23
4.14473e-23
4.15827e-23
4.13964e-23
4.15451e-23
4.15299e-23
4.15463e-23
4.14145e-23
4.13126e-23
4.12687e-23
4.1355e-23
4.14687e-23
4.15762e-23
4.16206e-23
4.16179e-23
4.15921e-23
4.1573e-23
4.15666e-23
4.15713e-23
4.1576e-23
4.15751e-23
4.15631e-23
4.15393e-23
4.1506e-23
4.1471e-23
4.14439e-23
4.14322e-23
4.14363e-23
4.14504e-23
4.14662e-23
4.14777e-23
4.14838e-23
4.14868e-23
4.14898e-23
4.14941e-23
4.1499e-23
4.15032e-23
4.15055e-23
4.15064e-23
4.15065e-23
4.15068e-23
4.15075e-23
4.15087e-23
4.15102e-23
4.15112e-23
4.1511e-23
4.15086e-23
4.15034e-23
4.14972e-23
4.14913e-23
4.14876e-23
4.14863e-23
4.14851e-23
4.1485e-23
4.1485e-23
4.14868e-23
4.14914e-23
4.14953e-23
4.15006e-23
4.11437e-23
4.20418e-23
4.14189e-23
4.1563e-23
4.13807e-23
4.15314e-23
4.15162e-23
4.15323e-23
4.14001e-23
4.12974e-23
4.12516e-23
4.1335e-23
4.14462e-23
4.15528e-23
4.15979e-23
4.15969e-23
4.15725e-23
4.1554e-23
4.15476e-23
4.1552e-23
4.15563e-23
4.15544e-23
4.15408e-23
4.15146e-23
4.14781e-23
4.14388e-23
4.14061e-23
4.13879e-23
4.13861e-23
4.13963e-23
4.14115e-23
4.14257e-23
4.14369e-23
4.1446e-23
4.14549e-23
4.1464e-23
4.14726e-23
4.14797e-23
4.14845e-23
4.14877e-23
4.149e-23
4.14917e-23
4.14931e-23
4.14938e-23
4.1494e-23
4.14932e-23
4.14913e-23
4.14876e-23
4.14822e-23
4.14771e-23
4.14732e-23
4.1472e-23
4.14728e-23
4.14728e-23
4.1472e-23
4.14691e-23
4.1466e-23
4.14649e-23
4.14642e-23
4.1466e-23
4.06886e-23
4.19858e-23
4.13804e-23
4.15319e-23
4.13531e-23
4.15054e-23
4.14901e-23
4.1506e-23
4.1374e-23
4.12713e-23
4.1224e-23
4.13044e-23
4.14125e-23
4.15176e-23
4.15633e-23
4.15638e-23
4.15407e-23
4.15226e-23
4.1516e-23
4.15204e-23
4.15245e-23
4.15219e-23
4.15069e-23
4.14789e-23
4.14406e-23
4.13988e-23
4.13627e-23
4.13399e-23
4.13333e-23
4.13404e-23
4.13549e-23
4.13712e-23
4.13864e-23
4.14e-23
4.14128e-23
4.14249e-23
4.1436e-23
4.14452e-23
4.14522e-23
4.14574e-23
4.14612e-23
4.14639e-23
4.14656e-23
4.1466e-23
4.14652e-23
4.14631e-23
4.14599e-23
4.14556e-23
4.14505e-23
4.14464e-23
4.14441e-23
4.14447e-23
4.1447e-23
4.14477e-23
4.14461e-23
4.14407e-23
4.14336e-23
4.14279e-23
4.14233e-23
4.14221e-23
4.06546e-23
4.19245e-23
4.13344e-23
4.14911e-23
4.1314e-23
4.14666e-23
4.14506e-23
4.14665e-23
4.13353e-23
4.12338e-23
4.1186e-23
4.12639e-23
4.13689e-23
4.14721e-23
4.15178e-23
4.15197e-23
4.14979e-23
4.14804e-23
4.1474e-23
4.14786e-23
4.14829e-23
4.148e-23
4.14641e-23
4.14354e-23
4.13969e-23
4.13556e-23
4.13194e-23
4.12954e-23
4.12866e-23
4.12917e-23
4.13056e-23
4.13229e-23
4.134e-23
4.13554e-23
4.13692e-23
4.13819e-23
4.13935e-23
4.14036e-23
4.14116e-23
4.14175e-23
4.14217e-23
4.14242e-23
4.14253e-23
4.14251e-23
4.14237e-23
4.1421e-23
4.14176e-23
4.14134e-23
4.14088e-23
4.14055e-23
4.14039e-23
4.14051e-23
4.14079e-23
4.14086e-23
4.14064e-23
4.13999e-23
4.13912e-23
4.13835e-23
4.13766e-23
4.13735e-23
4.06565e-23
4.18605e-23
4.12841e-23
4.14437e-23
4.12662e-23
4.14176e-23
4.13998e-23
4.14156e-23
4.12861e-23
4.11871e-23
4.11399e-23
4.1216e-23
4.1318e-23
4.1419e-23
4.14646e-23
4.14679e-23
4.14477e-23
4.14311e-23
4.14254e-23
4.14306e-23
4.14354e-23
4.14327e-23
4.14166e-23
4.13884e-23
4.13519e-23
4.13139e-23
4.12814e-23
4.12598e-23
4.12517e-23
4.12562e-23
4.12694e-23
4.12863e-23
4.1303e-23
4.13175e-23
4.13297e-23
4.13403e-23
4.13503e-23
4.13593e-23
4.13668e-23
4.1372e-23
4.1375e-23
4.1376e-23
4.13754e-23
4.1374e-23
4.13721e-23
4.13696e-23
4.13668e-23
4.13635e-23
4.13598e-23
4.13568e-23
4.1355e-23
4.13555e-23
4.13574e-23
4.13575e-23
4.13553e-23
4.13494e-23
4.13418e-23
4.1335e-23
4.13281e-23
4.13242e-23
4.06248e-23
4.17922e-23
4.12283e-23
4.13892e-23
4.121e-23
4.13583e-23
4.13378e-23
4.13533e-23
4.12264e-23
4.11312e-23
4.10857e-23
4.11604e-23
4.12594e-23
4.13581e-23
4.14036e-23
4.14085e-23
4.13903e-23
4.13752e-23
4.13704e-23
4.13765e-23
4.13821e-23
4.13797e-23
4.13642e-23
4.13376e-23
4.13051e-23
4.12732e-23
4.12473e-23
4.1231e-23
4.12257e-23
4.12307e-23
4.12429e-23
4.12582e-23
4.12727e-23
4.12843e-23
4.12928e-23
4.12996e-23
4.1306e-23
4.13123e-23
4.13176e-23
4.13207e-23
4.13212e-23
4.13195e-23
4.13164e-23
4.13132e-23
4.13107e-23
4.13089e-23
4.13074e-23
4.13056e-23
4.13028e-23
4.13e-23
4.12972e-23
4.12958e-23
4.12958e-23
4.12948e-23
4.12931e-23
4.12894e-23
4.12849e-23
4.12813e-23
4.12761e-23
4.12722e-23
4.05783e-23
4.17154e-23
4.11638e-23
4.13256e-23
4.11441e-23
4.12886e-23
4.12646e-23
4.12798e-23
4.11561e-23
4.10657e-23
4.10226e-23
4.10959e-23
4.11917e-23
4.12879e-23
4.13333e-23
4.13403e-23
4.13245e-23
4.13112e-23
4.13075e-23
4.13143e-23
4.13205e-23
4.13185e-23
4.1304e-23
4.12803e-23
4.12532e-23
4.1229e-23
4.12113e-23
4.12016e-23
4.12e-23
4.12058e-23
4.12168e-23
4.12297e-23
4.12411e-23
4.12489e-23
4.1253e-23
4.12551e-23
4.12569e-23
4.12592e-23
4.1261e-23
4.12611e-23
4.12585e-23
4.12535e-23
4.12476e-23
4.12425e-23
4.12395e-23
4.12382e-23
4.12382e-23
4.1238e-23
4.12364e-23
4.12336e-23
4.12295e-23
4.12257e-23
4.12233e-23
4.12211e-23
4.12202e-23
4.12193e-23
4.12189e-23
4.12191e-23
4.12164e-23
4.12128e-23
4.05236e-23
4.16272e-23
4.10878e-23
4.12512e-23
4.10684e-23
4.12093e-23
4.11817e-23
4.11965e-23
4.10762e-23
4.0991e-23
4.09505e-23
4.10224e-23
4.11146e-23
4.12081e-23
4.12536e-23
4.12629e-23
4.12498e-23
4.12381e-23
4.1235e-23
4.12419e-23
4.1248e-23
4.12465e-23
4.12333e-23
4.1213e-23
4.1192e-23
4.11759e-23
4.11664e-23
4.11631e-23
4.11648e-23
4.1171e-23
4.11803e-23
4.11905e-23
4.11989e-23
4.12033e-23
4.12035e-23
4.1201e-23
4.11981e-23
4.11959e-23
4.1194e-23
4.11907e-23
4.11851e-23
4.11773e-23
4.11692e-23
4.11628e-23
4.11592e-23
4.11584e-23
4.11594e-23
4.11605e-23
4.11599e-23
4.11571e-23
4.11517e-23
4.1146e-23
4.11415e-23
4.11384e-23
4.11383e-23
4.11398e-23
4.11426e-23
4.11457e-23
4.11453e-23
4.11415e-23
4.04589e-23
4.15264e-23
4.09996e-23
4.11658e-23
4.09833e-23
4.11218e-23
4.10914e-23
4.11059e-23
4.09889e-23
4.09084e-23
4.087e-23
4.09402e-23
4.10287e-23
4.11196e-23
4.11652e-23
4.11768e-23
4.11661e-23
4.11556e-23
4.11521e-23
4.11579e-23
4.11633e-23
4.11618e-23
4.11502e-23
4.11335e-23
4.11182e-23
4.11092e-23
4.11065e-23
4.1108e-23
4.11117e-23
4.11172e-23
4.11245e-23
4.11323e-23
4.11385e-23
4.11407e-23
4.11382e-23
4.11323e-23
4.11255e-23
4.11194e-23
4.11139e-23
4.11079e-23
4.11002e-23
4.10912e-23
4.10823e-23
4.10754e-23
4.10717e-23
4.1071e-23
4.10724e-23
4.10741e-23
4.10738e-23
4.1071e-23
4.1065e-23
4.10582e-23
4.10529e-23
4.10494e-23
4.10496e-23
4.10521e-23
4.10561e-23
4.106e-23
4.1061e-23
4.10564e-23
4.03842e-23
4.14138e-23
4.08998e-23
4.10702e-23
4.08901e-23
4.10278e-23
4.09957e-23
4.10102e-23
4.0896e-23
4.08196e-23
4.07825e-23
4.08504e-23
4.09353e-23
4.10238e-23
4.10696e-23
4.10833e-23
4.10745e-23
4.10642e-23
4.10591e-23
4.10627e-23
4.10664e-23
4.10645e-23
4.10542e-23
4.10406e-23
4.10299e-23
4.10261e-23
4.10279e-23
4.10319e-23
4.10357e-23
4.10394e-23
4.10443e-23
4.10502e-23
4.10554e-23
4.10571e-23
4.10538e-23
4.10463e-23
4.10371e-23
4.10283e-23
4.10203e-23
4.10127e-23
4.10046e-23
4.09961e-23
4.09882e-23
4.09822e-23
4.0979e-23
4.09782e-23
4.09792e-23
4.09803e-23
4.09795e-23
4.09764e-23
4.09706e-23
4.09643e-23
4.09594e-23
4.09562e-23
4.09561e-23
4.09578e-23
4.09605e-23
4.09628e-23
4.0964e-23
4.09583e-23
4.0302e-23
4.12925e-23
4.07914e-23
4.09667e-23
4.07904e-23
4.09287e-23
4.08958e-23
4.09105e-23
4.07989e-23
4.07257e-23
4.06892e-23
4.07545e-23
4.08361e-23
4.09225e-23
4.09687e-23
4.09843e-23
4.09766e-23
4.09656e-23
4.0958e-23
4.09583e-23
4.09593e-23
4.09565e-23
4.09469e-23
4.09355e-23
4.09277e-23
4.09266e-23
4.09302e-23
4.09342e-23
4.09363e-23
4.09374e-23
4.09397e-23
4.09443e-23
4.09496e-23
4.09524e-23
4.09503e-23
4.09432e-23
4.09335e-23
4.09236e-23
4.09148e-23
4.09073e-23
4.09005e-23
4.08943e-23
4.0889e-23
4.08851e-23
4.0883e-23
4.0882e-23
4.08817e-23
4.0881e-23
4.08788e-23
4.08754e-23
4.08704e-23
4.08657e-23
4.08623e-23
4.08597e-23
4.0859e-23
4.08585e-23
4.0858e-23
4.08568e-23
4.08575e-23
4.08509e-23
4.02162e-23
4.11667e-23
4.06781e-23
4.08582e-23
4.06864e-23
4.08258e-23
4.07923e-23
4.08074e-23
4.06984e-23
4.06282e-23
4.05919e-23
4.06544e-23
4.07327e-23
4.08176e-23
4.08644e-23
4.08816e-23
4.08748e-23
4.08626e-23
4.08519e-23
4.08483e-23
4.0846e-23
4.08413e-23
4.08316e-23
4.0821e-23
4.08142e-23
4.08135e-23
4.08162e-23
4.08182e-23
4.08172e-23
4.08151e-23
4.0815e-23
4.08188e-23
4.08251e-23
4.08304e-23
4.08311e-23
4.08264e-23
4.08181e-23
4.0809e-23
4.08011e-23
4.07953e-23
4.07913e-23
4.07886e-23
4.07869e-23
4.07859e-23
4.07851e-23
4.07836e-23
4.07814e-23
4.07783e-23
4.07743e-23
4.07704e-23
4.07663e-23
4.07635e-23
4.07619e-23
4.07601e-23
4.07586e-23
4.07556e-23
4.07513e-23
4.07463e-23
4.07463e-23
4.07392e-23
4.01304e-23
4.10409e-23
4.05644e-23
4.07483e-23
4.05803e-23
4.07201e-23
4.06857e-23
4.07011e-23
4.05948e-23
4.0528e-23
4.04922e-23
4.05521e-23
4.06273e-23
4.07105e-23
4.07581e-23
4.07772e-23
4.07717e-23
4.07587e-23
4.0745e-23
4.07373e-23
4.07309e-23
4.07234e-23
4.07125e-23
4.07015e-23
4.06941e-23
4.06918e-23
4.06917e-23
4.06901e-23
4.06854e-23
4.06801e-23
4.06779e-23
4.06814e-23
4.06893e-23
4.06977e-23
4.07024e-23
4.07015e-23
4.06965e-23
4.069e-23
4.06845e-23
4.06815e-23
4.0681e-23
4.06822e-23
4.06843e-23
4.06859e-23
4.06861e-23
4.06839e-23
4.06796e-23
4.06741e-23
4.06683e-23
4.06637e-23
4.06602e-23
4.06587e-23
4.06584e-23
4.06573e-23
4.06553e-23
4.06503e-23
4.06434e-23
4.06356e-23
4.06355e-23
4.06288e-23
4.00476e-23
4.09187e-23
4.0454e-23
4.064e-23
4.04744e-23
4.0613e-23
4.05768e-23
4.05922e-23
4.04891e-23
4.04265e-23
4.03919e-23
4.04495e-23
4.05215e-23
4.0603e-23
4.06512e-23
4.06728e-23
4.06694e-23
4.06567e-23
4.0641e-23
4.06292e-23
4.06183e-23
4.06072e-23
4.05941e-23
4.05817e-23
4.05726e-23
4.05673e-23
4.05634e-23
4.05577e-23
4.05494e-23
4.05413e-23
4.05376e-23
4.05409e-23
4.05505e-23
4.05621e-23
4.05712e-23
4.05753e-23
4.05747e-23
4.05721e-23
4.057e-23
4.05703e-23
4.05732e-23
4.05778e-23
4.05828e-23
4.05862e-23
4.05868e-23
4.05835e-23
4.05775e-23
4.05701e-23
4.05629e-23
4.05575e-23
4.05538e-23
4.05524e-23
4.05524e-23
4.05516e-23
4.05495e-23
4.05443e-23
4.05369e-23
4.05288e-23
4.05295e-23
4.0524e-23
3.99688e-23
4.08023e-23
4.03492e-23
4.05356e-23
4.03707e-23
4.05064e-23
4.04672e-23
4.04823e-23
4.03827e-23
4.03249e-23
4.02922e-23
4.03479e-23
4.04168e-23
4.04964e-23
4.05453e-23
4.05697e-23
4.05696e-23
4.05588e-23
4.0542e-23
4.05264e-23
4.05108e-23
4.04956e-23
4.04798e-23
4.04657e-23
4.04543e-23
4.0446e-23
4.04382e-23
4.04287e-23
4.04174e-23
4.04074e-23
4.04026e-23
4.0406e-23
4.04167e-23
4.04311e-23
4.04445e-23
4.04536e-23
4.04581e-23
4.04599e-23
4.04615e-23
4.04647e-23
4.04702e-23
4.0477e-23
4.04834e-23
4.04873e-23
4.04874e-23
4.04831e-23
4.04759e-23
4.04675e-23
4.04593e-23
4.04531e-23
4.04486e-23
4.04462e-23
4.04455e-23
4.04444e-23
4.04429e-23
4.04391e-23
4.04339e-23
4.0428e-23
4.04306e-23
4.04267e-23
3.98934e-23
4.06917e-23
4.02505e-23
4.04361e-23
4.02707e-23
4.04023e-23
4.03594e-23
4.03737e-23
4.02777e-23
4.0225e-23
4.01942e-23
4.02482e-23
4.03141e-23
4.03918e-23
4.04414e-23
4.04691e-23
4.04731e-23
4.0465e-23
4.04481e-23
4.04294e-23
4.0409e-23
4.03897e-23
4.03714e-23
4.03558e-23
4.03428e-23
4.03319e-23
4.03212e-23
4.03091e-23
4.02962e-23
4.02852e-23
4.02798e-23
4.02828e-23
4.02939e-23
4.03102e-23
4.0327e-23
4.03406e-23
4.035e-23
4.03558e-23
4.03604e-23
4.03656e-23
4.03723e-23
4.03797e-23
4.03861e-23
4.03894e-23
4.03885e-23
4.03834e-23
4.03756e-23
4.03668e-23
4.03582e-23
4.03513e-23
4.03455e-23
4.03418e-23
4.03397e-23
4.03382e-23
4.03377e-23
4.03365e-23
4.03352e-23
4.03333e-23
4.03383e-23
4.03364e-23
3.98194e-23
4.0585e-23
4.01564e-23
4.03411e-23
4.01752e-23
4.03024e-23
4.02554e-23
4.02688e-23
4.0176e-23
4.01278e-23
4.00988e-23
4.01509e-23
4.02138e-23
4.02897e-23
4.03402e-23
4.03711e-23
4.03792e-23
4.03742e-23
4.03574e-23
4.03359e-23
4.03114e-23
4.02886e-23
4.02686e-23
4.02526e-23
4.02393e-23
4.02274e-23
4.02153e-23
4.02023e-23
4.01892e-23
4.01782e-23
4.01725e-23
4.01747e-23
4.01851e-23
4.02018e-23
4.02206e-23
4.02376e-23
4.02505e-23
4.02593e-23
4.02656e-23
4.02714e-23
4.02779e-23
4.02846e-23
4.02898e-23
4.0292e-23
4.02902e-23
4.02847e-23
4.02768e-23
4.02681e-23
4.02595e-23
4.0252e-23
4.02454e-23
4.02403e-23
4.02372e-23
4.02355e-23
4.02362e-23
4.02378e-23
4.02408e-23
4.02431e-23
4.02502e-23
4.02498e-23
3.97435e-23
4.04789e-23
4.00642e-23
4.02487e-23
4.00836e-23
4.0207e-23
4.01566e-23
4.01688e-23
4.00786e-23
4.00341e-23
4.00061e-23
4.00558e-23
4.01155e-23
4.01897e-23
4.02409e-23
4.02746e-23
4.02862e-23
4.02834e-23
4.02665e-23
4.02424e-23
4.02145e-23
4.01894e-23
4.01691e-23
4.01543e-23
4.01426e-23
4.01318e-23
4.01204e-23
4.01083e-23
4.00963e-23
4.00862e-23
4.00804e-23
4.00811e-23
4.00898e-23
4.01053e-23
4.01243e-23
4.01426e-23
4.01573e-23
4.01673e-23
4.01738e-23
4.01789e-23
4.0184e-23
4.0189e-23
4.01929e-23
4.01941e-23
4.01919e-23
4.01864e-23
4.01789e-23
4.01707e-23
4.01623e-23
4.01549e-23
4.01479e-23
4.01426e-23
4.01393e-23
4.01379e-23
4.01396e-23
4.01432e-23
4.0149e-23
4.01542e-23
4.01621e-23
4.01621e-23
3.96624e-23
4.03697e-23
3.997e-23
4.01557e-23
3.99933e-23
4.01146e-23
4.00618e-23
4.00731e-23
3.99849e-23
3.99431e-23
3.9915e-23
3.99616e-23
4.00179e-23
4.009e-23
4.01414e-23
4.01771e-23
4.01909e-23
4.01892e-23
4.01714e-23
4.01449e-23
4.01144e-23
4.00883e-23
4.00694e-23
4.00578e-23
4.00497e-23
4.00421e-23
4.00334e-23
4.00237e-23
4.00139e-23
4.00051e-23
3.99992e-23
3.99983e-23
4.00042e-23
4.00169e-23
4.0034e-23
4.00514e-23
4.00657e-23
4.00752e-23
4.00805e-23
4.00838e-23
4.00869e-23
4.00903e-23
4.00931e-23
4.00938e-23
4.00918e-23
4.00869e-23
4.00804e-23
4.0073e-23
4.00653e-23
4.00584e-23
4.00521e-23
4.00477e-23
4.00453e-23
4.00447e-23
4.00469e-23
4.00508e-23
4.00569e-23
4.00625e-23
4.00695e-23
4.00684e-23
3.95732e-23
4.02537e-23
3.98699e-23
4.00582e-23
3.99005e-23
4.00215e-23
3.99677e-23
3.99787e-23
3.98923e-23
3.98523e-23
3.98233e-23
3.98663e-23
3.99186e-23
3.99879e-23
4.00385e-23
4.0075e-23
4.00897e-23
4.00879e-23
4.00684e-23
4.00393e-23
4.0007e-23
3.99812e-23
3.99653e-23
3.99586e-23
3.9956e-23
3.99533e-23
3.99486e-23
3.99421e-23
3.99349e-23
3.99279e-23
3.99221e-23
3.99193e-23
3.99218e-23
3.99305e-23
3.99438e-23
3.99582e-23
3.99702e-23
3.99775e-23
3.99808e-23
3.9982e-23
3.99833e-23
3.99854e-23
3.99876e-23
3.99885e-23
3.99872e-23
3.99836e-23
3.99785e-23
3.99725e-23
3.9966e-23
3.99603e-23
3.99556e-23
3.9953e-23
3.99524e-23
3.99527e-23
3.99545e-23
3.99568e-23
3.99608e-23
3.99641e-23
3.99684e-23
3.9965e-23
3.9474e-23
4.01281e-23
3.97603e-23
3.99517e-23
3.98001e-23
3.9922e-23
3.98687e-23
3.98804e-23
3.97962e-23
3.97578e-23
3.97275e-23
3.97662e-23
3.98138e-23
3.98795e-23
3.99284e-23
3.99644e-23
3.99789e-23
3.99761e-23
3.99545e-23
3.99229e-23
3.98893e-23
3.98648e-23
3.98531e-23
3.98523e-23
3.98561e-23
3.98591e-23
3.98588e-23
3.98558e-23
3.98512e-23
3.98458e-23
3.98402e-23
3.98358e-23
3.98347e-23
3.98387e-23
3.9847e-23
3.98569e-23
3.98652e-23
3.98698e-23
3.98707e-23
3.98702e-23
3.98702e-23
3.98717e-23
3.98738e-23
3.98752e-23
3.98751e-23
3.98732e-23
3.98701e-23
3.9866e-23
3.98613e-23
3.98574e-23
3.98549e-23
3.98545e-23
3.98555e-23
3.98561e-23
3.98566e-23
3.98561e-23
3.98562e-23
3.98555e-23
3.98564e-23
3.98503e-23
3.93645e-23
3.99918e-23
3.96391e-23
3.9833e-23
3.96875e-23
3.98105e-23
3.97587e-23
3.97722e-23
3.96911e-23
3.96548e-23
3.96231e-23
3.96573e-23
3.96997e-23
3.97611e-23
3.98075e-23
3.98423e-23
3.9856e-23
3.98517e-23
3.98279e-23
3.97941e-23
3.97598e-23
3.97371e-23
3.97298e-23
3.97351e-23
3.97452e-23
3.97534e-23
3.9757e-23
3.97567e-23
3.97542e-23
3.97502e-23
3.9745e-23
3.97393e-23
3.97351e-23
3.97344e-23
3.97375e-23
3.97426e-23
3.97469e-23
3.97487e-23
3.97479e-23
3.97463e-23
3.97458e-23
3.9747e-23
3.97493e-23
3.97515e-23
3.97527e-23
3.97527e-23
3.97518e-23
3.975e-23
3.97476e-23
3.97461e-23
3.97457e-23
3.9747e-23
3.97488e-23
3.97487e-23
3.97471e-23
3.97433e-23
3.97395e-23
3.9735e-23
3.97331e-23
3.97247e-23
3.92464e-23
3.98452e-23
3.95061e-23
3.97008e-23
3.95599e-23
3.96831e-23
3.96328e-23
3.96489e-23
3.95719e-23
3.95385e-23
3.95062e-23
3.9536e-23
3.95731e-23
3.963e-23
3.96738e-23
3.97073e-23
3.97199e-23
3.97141e-23
3.96884e-23
3.96531e-23
3.96187e-23
3.9598e-23
3.95945e-23
3.96048e-23
3.96197e-23
3.96318e-23
3.96379e-23
3.96392e-23
3.96379e-23
3.96349e-23
3.96302e-23
3.96238e-23
3.96173e-23
3.96128e-23
3.96114e-23
3.96124e-23
3.96137e-23
3.96136e-23
3.96119e-23
3.96101e-23
3.96095e-23
3.96107e-23
3.96132e-23
3.9616e-23
3.96185e-23
3.96204e-23
3.96216e-23
3.96221e-23
3.96222e-23
3.96227e-23
3.96239e-23
3.96259e-23
3.9627e-23
3.96252e-23
3.96214e-23
3.96152e-23
3.96091e-23
3.96026e-23
3.95998e-23
3.9591e-23
3.9123e-23
3.96911e-23
3.93635e-23
3.95565e-23
3.94182e-23
3.95395e-23
3.94897e-23
3.95083e-23
3.94361e-23
3.94066e-23
3.93744e-23
3.94006e-23
3.94331e-23
3.94862e-23
3.95277e-23
3.95603e-23
3.95721e-23
3.95651e-23
3.9538e-23
3.95019e-23
3.9468e-23
3.94491e-23
3.94483e-23
3.94616e-23
3.9479e-23
3.94929e-23
3.94998e-23
3.95014e-23
3.95002e-23
3.94976e-23
3.94933e-23
3.94868e-23
3.94791e-23
3.94724e-23
3.94683e-23
3.94668e-23
3.94667e-23
3.94662e-23
3.94649e-23
3.94634e-23
3.94629e-23
3.94639e-23
3.94664e-23
3.94697e-23
3.94733e-23
3.94766e-23
3.94796e-23
3.9482e-23
3.94839e-23
3.94858e-23
3.94874e-23
3.94886e-23
3.94879e-23
3.94841e-23
3.94787e-23
3.9472e-23
3.94664e-23
3.94608e-23
3.94594e-23
3.9453e-23
3.89989e-23
3.95337e-23
3.92159e-23
3.94048e-23
3.92667e-23
3.93838e-23
3.93327e-23
3.93527e-23
3.9285e-23
3.92598e-23
3.92289e-23
3.92529e-23
3.92821e-23
3.93324e-23
3.93728e-23
3.94051e-23
3.94166e-23
3.94089e-23
3.9381e-23
3.93449e-23
3.93119e-23
3.92943e-23
3.92948e-23
3.93087e-23
3.93261e-23
3.93395e-23
3.93456e-23
3.93461e-23
3.93441e-23
3.93413e-23
3.93371e-23
3.9331e-23
3.93234e-23
3.93162e-23
3.93114e-23
3.93097e-23
3.93101e-23
3.93109e-23
3.93109e-23
3.93102e-23
3.93098e-23
3.93104e-23
3.93125e-23
3.9316e-23
3.93203e-23
3.93247e-23
3.93289e-23
3.93322e-23
3.93345e-23
3.93363e-23
3.9337e-23
3.93364e-23
3.93336e-23
3.93284e-23
3.93233e-23
3.93185e-23
3.93162e-23
3.93141e-23
3.93162e-23
3.93155e-23
3.88786e-23
3.93782e-23
3.90697e-23
3.92528e-23
3.91132e-23
3.92238e-23
3.91694e-23
3.91889e-23
3.91246e-23
3.91034e-23
3.90745e-23
3.90977e-23
3.91254e-23
3.91746e-23
3.9215e-23
3.92478e-23
3.92594e-23
3.92514e-23
3.92235e-23
3.9188e-23
3.9156e-23
3.91392e-23
3.91393e-23
3.91517e-23
3.91671e-23
3.91781e-23
3.91821e-23
3.91809e-23
3.91774e-23
3.91736e-23
3.91694e-23
3.91639e-23
3.91574e-23
3.91513e-23
3.91478e-23
3.91477e-23
3.91504e-23
3.91536e-23
3.91558e-23
3.91563e-23
3.91559e-23
3.9156e-23
3.91574e-23
3.91606e-23
3.91653e-23
3.91703e-23
3.91748e-23
3.91779e-23
3.91791e-23
3.91792e-23
3.91776e-23
3.91749e-23
3.91709e-23
3.91661e-23
3.91634e-23
3.91626e-23
3.91655e-23
3.91686e-23
3.91751e-23
3.91821e-23
3.87648e-23
3.92294e-23
3.89305e-23
3.91074e-23
3.89659e-23
3.9069e-23
3.90097e-23
3.9027e-23
3.89643e-23
3.89461e-23
3.89192e-23
3.89427e-23
3.89705e-23
3.90201e-23
3.90615e-23
3.90954e-23
3.91076e-23
3.90996e-23
3.9072e-23
3.90374e-23
3.90064e-23
3.89897e-23
3.89883e-23
3.89979e-23
3.90098e-23
3.90177e-23
3.90192e-23
3.90157e-23
3.90105e-23
3.90054e-23
3.90008e-23
3.8996e-23
3.89911e-23
3.89872e-23
3.89862e-23
3.8989e-23
3.89947e-23
3.90012e-23
3.9006e-23
3.90081e-23
3.9008e-23
3.90074e-23
3.90079e-23
3.90106e-23
3.90153e-23
3.90203e-23
3.90242e-23
3.90257e-23
3.90246e-23
3.90218e-23
3.90177e-23
3.90135e-23
3.90098e-23
3.90075e-23
3.90089e-23
3.90133e-23
3.90217e-23
3.90299e-23
3.904e-23
3.90545e-23
3.86571e-23
3.9089e-23
3.88018e-23
3.89735e-23
3.88311e-23
3.89269e-23
3.88627e-23
3.88766e-23
3.88142e-23
3.87974e-23
3.87718e-23
3.87956e-23
3.88242e-23
3.88752e-23
3.89186e-23
3.8954e-23
3.89668e-23
3.8959e-23
3.89318e-23
3.88981e-23
3.88679e-23
3.88508e-23
3.88473e-23
3.88535e-23
3.88618e-23
3.88668e-23
3.88659e-23
3.88607e-23
3.88537e-23
3.88472e-23
3.8842e-23
3.88377e-23
3.88344e-23
3.8833e-23
3.88349e-23
3.88406e-23
3.88494e-23
3.88589e-23
3.88665e-23
3.88705e-23
3.88712e-23
3.88703e-23
3.88701e-23
3.8872e-23
3.88761e-23
3.88803e-23
3.88827e-23
3.88818e-23
3.88778e-23
3.88722e-23
3.88663e-23
3.8862e-23
3.88603e-23
3.88617e-23
3.88679e-23
3.88771e-23
3.88896e-23
3.8901e-23
3.89121e-23
3.89316e-23
3.85508e-23
3.89549e-23
3.86821e-23
3.88506e-23
3.87097e-23
3.88001e-23
3.87323e-23
3.87434e-23
3.86807e-23
3.8664e-23
3.86381e-23
3.86612e-23
3.86902e-23
3.87429e-23
3.87886e-23
3.88259e-23
3.88393e-23
3.88315e-23
3.88044e-23
3.87714e-23
3.87417e-23
3.87241e-23
3.87186e-23
3.87219e-23
3.87273e-23
3.87301e-23
3.8728e-23
3.87217e-23
3.87136e-23
3.87058e-23
3.86997e-23
3.86956e-23
3.86937e-23
3.86943e-23
3.86983e-23
3.87061e-23
3.87171e-23
3.8729e-23
3.87391e-23
3.87452e-23
3.87472e-23
3.87467e-23
3.87461e-23
3.87472e-23
3.87499e-23
3.87524e-23
3.87526e-23
3.87493e-23
3.87431e-23
3.8736e-23
3.873e-23
3.87272e-23
3.87283e-23
3.87335e-23
3.87432e-23
3.8755e-23
3.87689e-23
3.87805e-23
3.87893e-23
3.88089e-23
3.84386e-23
3.88205e-23
3.85647e-23
3.87326e-23
3.85962e-23
3.86841e-23
3.86156e-23
3.86257e-23
3.85634e-23
3.85463e-23
3.85186e-23
3.85392e-23
3.85673e-23
3.86209e-23
3.86687e-23
3.87077e-23
3.87218e-23
3.87137e-23
3.86864e-23
3.86536e-23
3.86244e-23
3.86065e-23
3.85996e-23
3.86008e-23
3.86046e-23
3.86066e-23
3.86045e-23
3.85983e-23
3.85897e-23
3.85811e-23
3.85742e-23
3.857e-23
3.85687e-23
3.85702e-23
3.85751e-23
3.85836e-23
3.85954e-23
3.86086e-23
3.86205e-23
3.86288e-23
3.86327e-23
3.86333e-23
3.86327e-23
3.86328e-23
3.86336e-23
3.86337e-23
3.86315e-23
3.86264e-23
3.86196e-23
3.86133e-23
3.86092e-23
3.86088e-23
3.86125e-23
3.86196e-23
3.86301e-23
3.86415e-23
3.86533e-23
3.86617e-23
3.86651e-23
3.86794e-23
3.83111e-23
3.86763e-23
3.84387e-23
3.86083e-23
3.84794e-23
3.85677e-23
3.85017e-23
3.85137e-23
3.84536e-23
3.84365e-23
3.84064e-23
3.84229e-23
3.84483e-23
3.85013e-23
3.85503e-23
3.85906e-23
3.86051e-23
3.85965e-23
3.85687e-23
3.8536e-23
3.85073e-23
3.84895e-23
3.84821e-23
3.84825e-23
3.84858e-23
3.84884e-23
3.84876e-23
3.84826e-23
3.84745e-23
3.84656e-23
3.84581e-23
3.84535e-23
3.84519e-23
3.84532e-23
3.84575e-23
3.84651e-23
3.84761e-23
3.84892e-23
3.85021e-23
3.85124e-23
3.85184e-23
3.85207e-23
3.85206e-23
3.85196e-23
3.85181e-23
3.85155e-23
3.85113e-23
3.8506e-23
3.85008e-23
3.84974e-23
3.84964e-23
3.84985e-23
3.8503e-23
3.85093e-23
3.85174e-23
3.85247e-23
3.85314e-23
3.85339e-23
3.85304e-23
3.8535e-23
3.81603e-23
3.85118e-23
3.8292e-23
3.84642e-23
3.83449e-23
3.84359e-23
3.8375e-23
3.83915e-23
3.8336e-23
3.83204e-23
3.82884e-23
3.83003e-23
3.83216e-23
3.83722e-23
3.84209e-23
3.84615e-23
3.84759e-23
3.84667e-23
3.84385e-23
3.8406e-23
3.8378e-23
3.83609e-23
3.83539e-23
3.83545e-23
3.83585e-23
3.83625e-23
3.83638e-23
3.83608e-23
3.83541e-23
3.83456e-23
3.83379e-23
3.83326e-23
3.83301e-23
3.83302e-23
3.83328e-23
3.83382e-23
3.83471e-23
3.83589e-23
3.83718e-23
3.83834e-23
3.83916e-23
3.83956e-23
3.83961e-23
3.8394e-23
3.83903e-23
3.83856e-23
3.83807e-23
3.83769e-23
3.8375e-23
3.83755e-23
3.83775e-23
3.83807e-23
3.83839e-23
3.83866e-23
3.83893e-23
3.83902e-23
3.83896e-23
3.83851e-23
3.83752e-23
3.83683e-23
3.79811e-23
3.83195e-23
3.8115e-23
3.82891e-23
3.81796e-23
3.82741e-23
3.82197e-23
3.82422e-23
3.81932e-23
3.81812e-23
3.81489e-23
3.81571e-23
3.8174e-23
3.82211e-23
3.82676e-23
3.83069e-23
3.83203e-23
3.83105e-23
3.82823e-23
3.82506e-23
3.82238e-23
3.82079e-23
3.82017e-23
3.82031e-23
3.82084e-23
3.82144e-23
3.82182e-23
3.82178e-23
3.82131e-23
3.82056e-23
3.81979e-23
3.81919e-23
3.81882e-23
3.81865e-23
3.81866e-23
3.81892e-23
3.81951e-23
3.82047e-23
3.82167e-23
3.82289e-23
3.82385e-23
3.82438e-23
3.82447e-23
3.82418e-23
3.82368e-23
3.82313e-23
3.82275e-23
3.82266e-23
3.82285e-23
3.82322e-23
3.82357e-23
3.82379e-23
3.82378e-23
3.82352e-23
3.82312e-23
3.82247e-23
3.82168e-23
3.8206e-23
3.81922e-23
3.81749e-23
3.77731e-23
3.80965e-23
3.79035e-23
3.80774e-23
3.79762e-23
3.80731e-23
3.80248e-23
3.80533e-23
3.80116e-23
3.80048e-23
3.79745e-23
3.79811e-23
3.79948e-23
3.80379e-23
3.80808e-23
3.81171e-23
3.81283e-23
3.81176e-23
3.809e-23
3.80598e-23
3.80348e-23
3.80205e-23
3.80155e-23
3.80179e-23
3.80244e-23
3.80324e-23
3.80387e-23
3.80411e-23
3.80387e-23
3.80326e-23
3.80252e-23
3.80186e-23
3.80136e-23
3.801e-23
3.80076e-23
3.80071e-23
3.80099e-23
3.80168e-23
3.80272e-23
3.80389e-23
3.80488e-23
3.80548e-23
3.80559e-23
3.80528e-23
3.80478e-23
3.80436e-23
3.80423e-23
3.80447e-23
3.80495e-23
3.80544e-23
3.80569e-23
3.80561e-23
3.80516e-23
3.80437e-23
3.80336e-23
3.80211e-23
3.80076e-23
3.79926e-23
3.79787e-23
3.79541e-23
3.75402e-23
3.78455e-23
3.766e-23
3.78306e-23
3.7735e-23
3.7832e-23
3.77879e-23
3.78208e-23
3.77859e-23
3.77848e-23
3.77585e-23
3.77658e-23
3.77783e-23
3.78183e-23
3.7857e-23
3.78889e-23
3.78969e-23
3.78849e-23
3.78581e-23
3.783e-23
3.78075e-23
3.7795e-23
3.77912e-23
3.77944e-23
3.78019e-23
3.78115e-23
3.782e-23
3.78249e-23
3.78247e-23
3.78202e-23
3.78133e-23
3.78063e-23
3.78001e-23
3.77948e-23
3.77903e-23
3.77873e-23
3.77872e-23
3.77913e-23
3.77995e-23
3.78098e-23
3.78191e-23
3.7825e-23
3.78263e-23
3.78239e-23
3.78206e-23
3.78191e-23
3.78211e-23
3.78261e-23
3.78317e-23
3.78352e-23
3.78345e-23
3.78297e-23
3.78212e-23
3.78093e-23
3.77955e-23
3.77797e-23
3.77638e-23
3.77477e-23
3.77373e-23
3.77096e-23
3.72894e-23
3.75736e-23
3.73928e-23
3.7557e-23
3.74639e-23
3.7558e-23
3.75156e-23
3.75506e-23
3.75207e-23
3.75246e-23
3.75029e-23
3.75128e-23
3.75263e-23
3.75647e-23
3.75997e-23
3.76269e-23
3.76308e-23
3.7617e-23
3.75908e-23
3.75651e-23
3.75453e-23
3.75348e-23
3.7532e-23
3.75358e-23
3.75439e-23
3.75545e-23
3.75647e-23
3.75716e-23
3.75733e-23
3.75701e-23
3.75638e-23
3.75565e-23
3.75496e-23
3.75432e-23
3.75372e-23
3.75323e-23
3.75299e-23
3.75315e-23
3.75372e-23
3.75454e-23
3.75535e-23
3.75589e-23
3.75607e-23
3.75601e-23
3.75597e-23
3.75617e-23
3.75665e-23
3.75725e-23
3.75765e-23
3.75765e-23
3.75717e-23
3.75633e-23
3.75521e-23
3.75388e-23
3.75243e-23
3.75085e-23
3.74938e-23
3.74794e-23
3.74751e-23
3.74482e-23
3.70282e-23
3.72899e-23
3.71124e-23
3.72682e-23
3.71753e-23
3.7264e-23
3.72209e-23
3.72555e-23
3.72284e-23
3.72356e-23
3.72177e-23
3.72306e-23
3.72464e-23
3.7285e-23
3.73178e-23
3.73409e-23
3.73408e-23
3.73247e-23
3.72987e-23
3.7275e-23
3.72577e-23
3.72492e-23
3.72475e-23
3.72515e-23
3.72598e-23
3.72708e-23
3.7282e-23
3.72902e-23
3.72933e-23
3.72912e-23
3.72854e-23
3.72781e-23
3.72707e-23
3.72636e-23
3.72568e-23
3.72508e-23
3.72469e-23
3.72465e-23
3.72498e-23
3.72558e-23
3.72623e-23
3.72674e-23
3.72704e-23
3.72725e-23
3.72755e-23
3.72804e-23
3.72866e-23
3.72914e-23
3.72923e-23
3.72882e-23
3.72799e-23
3.72693e-23
3.72577e-23
3.72452e-23
3.72327e-23
3.72198e-23
3.72089e-23
3.71983e-23
3.72012e-23
3.71777e-23
3.67635e-23
3.70028e-23
3.68291e-23
3.69757e-23
3.68818e-23
3.69637e-23
3.69184e-23
3.69509e-23
3.69246e-23
3.69329e-23
3.6917e-23
3.69319e-23
3.69502e-23
3.69903e-23
3.70227e-23
3.70433e-23
3.70399e-23
3.70214e-23
3.69951e-23
3.69727e-23
3.69573e-23
3.69505e-23
3.69496e-23
3.69539e-23
3.6962e-23
3.6973e-23
3.69843e-23
3.6993e-23
3.6997e-23
3.69957e-23
3.69903e-23
3.69831e-23
3.69755e-23
3.69681e-23
3.69611e-23
3.69548e-23
3.695e-23
3.69481e-23
3.69495e-23
3.69537e-23
3.6959e-23
3.69643e-23
3.69692e-23
3.69742e-23
3.69801e-23
3.69866e-23
3.6992e-23
3.69942e-23
3.69915e-23
3.69844e-23
3.69744e-23
3.69637e-23
3.69534e-23
3.69435e-23
3.69345e-23
3.69261e-23
3.69204e-23
3.69144e-23
3.69239e-23
3.69048e-23
3.64994e-23
3.67179e-23
3.65495e-23
3.66873e-23
3.65926e-23
3.66676e-23
3.66199e-23
3.66495e-23
3.66228e-23
3.66304e-23
3.66144e-23
3.66294e-23
3.66492e-23
3.66911e-23
3.67247e-23
3.67447e-23
3.67395e-23
3.67192e-23
3.66921e-23
3.66701e-23
3.66559e-23
3.66502e-23
3.66501e-23
3.66544e-23
3.66621e-23
3.66724e-23
3.66831e-23
3.66917e-23
3.66959e-23
3.66951e-23
3.66901e-23
3.6683e-23
3.66754e-23
3.66681e-23
3.66613e-23
3.66551e-23
3.66502e-23
3.66476e-23
3.66478e-23
3.66508e-23
3.66559e-23
3.66622e-23
3.66692e-23
3.66767e-23
3.66841e-23
3.66902e-23
3.66933e-23
3.66921e-23
3.66867e-23
3.66785e-23