/*--------------------------------*- C++ -*----------------------------------*\
| =========                 |                                                 |
| \\      /  F ield         | foam-extend: Open Source CFD                    |
|  \\    /   O peration     | Version:     4.0                                |
|   \\  /    A nd           | Web:         http://www.foam-extend.org         |
|    \\/     M anipulation  |                                                 |
\*---------------------------------------------------------------------------*/
FoamFile
{
    version     2.0;
    format      ascii;
    class       volVectorField;
    location    "11";
    object      bodyForce;
}
// * * * * * * * * * * * * * * * * * * * * * * * * * * * * * * * * * * * * * //

dimensions      [0 -1 0 0 0 0 0];

internalField   nonuniform List<vector> 
6960
(
(3.07788e-06 -4.42221e+08 -0)
(1.56362e-06 -4.42221e+08 -0)
(-4.27528e-06 -4.42221e+08 -0)
(-3.60598e-06 -4.42221e+08 -0)
(-1.29957e-06 -4.42221e+08 -0)
(-7.14077e-07 -4.42221e+08 -0)
(-4.44289e-07 -4.42221e+08 -0)
(-2.99637e-07 -4.42221e+08 -0)
(-2.02054e-07 -4.42221e+08 -0)
(-1.48096e-07 -4.42221e+08 -0)
(-1.01027e-07 -4.42221e+08 -0)
(-6.42899e-08 -4.42221e+08 -0)
(-4.13292e-08 -4.42221e+08 -0)
(-2.41087e-08 -4.42221e+08 -0)
(-2.29607e-09 -4.42221e+08 -0)
(1.14803e-08 -4.42221e+08 -0)
(2.75528e-08 -4.42221e+08 -0)
(3.78851e-08 -4.42221e+08 -0)
(3.90332e-08 -4.42221e+08 -0)
(4.47733e-08 -4.42221e+08 -0)
(4.13292e-08 -4.42221e+08 -0)
(4.59214e-08 -4.42221e+08 -0)
(4.82174e-08 -4.42221e+08 -0)
(4.24773e-08 -4.42221e+08 -0)
(3.78851e-08 -4.42221e+08 -0)
(2.87009e-08 -4.42221e+08 -0)
(2.98489e-08 -4.42221e+08 -0)
(2.18127e-08 -4.42221e+08 -0)
(9.18428e-09 -4.42221e+08 -0)
(-0 -4.42221e+08 -0)
(-5.74017e-09 -4.42221e+08 -0)
(-9.18427e-09 -4.42221e+08 -0)
(-1.60725e-08 -4.42221e+08 -0)
(-2.64048e-08 -4.42221e+08 -0)
(-3.2145e-08 -4.42221e+08 -0)
(-3.55891e-08 -4.42221e+08 -0)
(-3.90332e-08 -4.42221e+08 -0)
(-4.47733e-08 -4.42221e+08 -0)
(-4.47733e-08 -4.42221e+08 -0)
(-4.24773e-08 -4.42221e+08 -0)
(-4.13292e-08 -4.42221e+08 -0)
(-4.01812e-08 -4.42221e+08 -0)
(-3.3293e-08 -4.42221e+08 -0)
(-2.87009e-08 -4.42221e+08 -0)
(-2.64048e-08 -4.42221e+08 -0)
(-0 -4.42221e+08 -0)
(2.52568e-08 -4.42221e+08 -0)
(4.01812e-08 -4.42221e+08 -0)
(6.88821e-08 -4.42221e+08 -0)
(1.10211e-07 -4.42221e+08 -0)
(1.43504e-07 -4.42221e+08 -0)
(2.0435e-07 -4.42221e+08 -0)
(3.08821e-07 -4.42221e+08 -0)
(4.43141e-07 -4.42221e+08 -0)
(7.10633e-07 -4.42221e+08 -0)
(1.29843e-06 -4.42221e+08 -0)
(3.59909e-06 -4.42221e+08 -0)
(4.28217e-06 -4.42221e+08 -0)
(-1.55788e-06 -4.42221e+08 -0)
(-3.09166e-06 -4.42221e+08 -0)
(5.96267e-06 -1.62909e+08 -0)
(3.41602e-06 -1.62909e+08 -0)
(-7.48748e-06 -1.62909e+08 -0)
(-6.43149e-06 -1.62909e+08 -0)
(-2.29176e-06 -1.62909e+08 -0)
(-1.25512e-06 -1.62909e+08 -0)
(-7.78334e-07 -1.62909e+08 -0)
(-5.2913e-07 -1.62909e+08 -0)
(-3.53891e-07 -1.62909e+08 -0)
(-2.60582e-07 -1.62909e+08 -0)
(-1.80928e-07 -1.62909e+08 -0)
(-1.11516e-07 -1.62909e+08 -0)
(-7.62403e-08 -1.62909e+08 -0)
(-4.21028e-08 -1.62909e+08 -0)
(-3.41374e-09 -1.62909e+08 -0)
(1.93445e-08 -1.62909e+08 -0)
(4.77924e-08 -1.62909e+08 -0)
(6.7137e-08 -1.62909e+08 -0)
(6.94128e-08 -1.62909e+08 -0)
(7.9654e-08 -1.62909e+08 -0)
(7.73782e-08 -1.62909e+08 -0)
(7.51024e-08 -1.62909e+08 -0)
(8.30678e-08 -1.62909e+08 -0)
(7.62403e-08 -1.62909e+08 -0)
(6.14474e-08 -1.62909e+08 -0)
(5.23441e-08 -1.62909e+08 -0)
(5.23441e-08 -1.62909e+08 -0)
(4.21028e-08 -1.62909e+08 -0)
(1.93445e-08 -1.62909e+08 -0)
(-0 -1.62909e+08 -0)
(-9.10332e-09 -1.62909e+08 -0)
(-1.82066e-08 -1.62909e+08 -0)
(-3.07237e-08 -1.62909e+08 -0)
(-4.55166e-08 -1.62909e+08 -0)
(-5.00682e-08 -1.62909e+08 -0)
(-6.25853e-08 -1.62909e+08 -0)
(-7.28265e-08 -1.62909e+08 -0)
(-7.73782e-08 -1.62909e+08 -0)
(-7.85161e-08 -1.62909e+08 -0)
(-7.51024e-08 -1.62909e+08 -0)
(-7.39644e-08 -1.62909e+08 -0)
(-6.94128e-08 -1.62909e+08 -0)
(-6.14474e-08 -1.62909e+08 -0)
(-5.23441e-08 -1.62909e+08 -0)
(-3.9827e-08 -1.62909e+08 -0)
(3.41374e-09 -1.62909e+08 -0)
(3.64133e-08 -1.62909e+08 -0)
(6.82749e-08 -1.62909e+08 -0)
(1.28584e-07 -1.62909e+08 -0)
(1.88894e-07 -1.62909e+08 -0)
(2.52617e-07 -1.62909e+08 -0)
(3.62995e-07 -1.62909e+08 -0)
(5.39371e-07 -1.62909e+08 -0)
(7.82885e-07 -1.62909e+08 -0)
(1.25512e-06 -1.62909e+08 -0)
(2.28607e-06 -1.62909e+08 -0)
(6.42011e-06 -1.62909e+08 -0)
(7.49544e-06 -1.62909e+08 -0)
(-3.40919e-06 -1.62909e+08 -0)
(-5.97178e-06 -1.62909e+08 -0)
(8.03682e-06 -7.63349e+07 -0)
(4.93651e-06 -7.63349e+07 -0)
(-8.61812e-06 -7.63349e+07 -0)
(-7.18133e-06 -7.63349e+07 -0)
(-2.54932e-06 -7.63349e+07 -0)
(-1.39725e-06 -7.63349e+07 -0)
(-8.67349e-07 -7.63349e+07 -0)
(-5.87899e-07 -7.63349e+07 -0)
(-3.9413e-07 -7.63349e+07 -0)
(-2.89995e-07 -7.63349e+07 -0)
(-2.01678e-07 -7.63349e+07 -0)
(-1.26543e-07 -7.63349e+07 -0)
(-8.17259e-08 -7.63349e+07 -0)
(-4.61356e-08 -7.63349e+07 -0)
(-6.5908e-09 -7.63349e+07 -0)
(2.24087e-08 -7.63349e+07 -0)
(5.14082e-08 -7.63349e+07 -0)
(7.51351e-08 -7.63349e+07 -0)
(8.17259e-08 -7.63349e+07 -0)
(8.69985e-08 -7.63349e+07 -0)
(8.43622e-08 -7.63349e+07 -0)
(8.83167e-08 -7.63349e+07 -0)
(8.96348e-08 -7.63349e+07 -0)
(8.04077e-08 -7.63349e+07 -0)
(7.38169e-08 -7.63349e+07 -0)
(5.7999e-08 -7.63349e+07 -0)
(5.66808e-08 -7.63349e+07 -0)
(4.48174e-08 -7.63349e+07 -0)
(2.37269e-08 -7.63349e+07 -0)
(-1.31816e-09 -7.63349e+07 -0)
(-1.18634e-08 -7.63349e+07 -0)
(-1.97724e-08 -7.63349e+07 -0)
(-3.2954e-08 -7.63349e+07 -0)
(-4.61356e-08 -7.63349e+07 -0)
(-5.93172e-08 -7.63349e+07 -0)
(-7.11806e-08 -7.63349e+07 -0)
(-8.04077e-08 -7.63349e+07 -0)
(-8.43622e-08 -7.63349e+07 -0)
(-8.96348e-08 -7.63349e+07 -0)
(-8.83167e-08 -7.63349e+07 -0)
(-7.77714e-08 -7.63349e+07 -0)
(-7.64532e-08 -7.63349e+07 -0)
(-7.11806e-08 -7.63349e+07 -0)
(-5.66808e-08 -7.63349e+07 -0)
(-4.08629e-08 -7.63349e+07 -0)
(2.63632e-09 -7.63349e+07 -0)
(4.21811e-08 -7.63349e+07 -0)
(7.77714e-08 -7.63349e+07 -0)
(1.41043e-07 -7.63349e+07 -0)
(2.06951e-07 -7.63349e+07 -0)
(2.86041e-07 -7.63349e+07 -0)
(4.04675e-07 -7.63349e+07 -0)
(5.99762e-07 -7.63349e+07 -0)
(8.69985e-07 -7.63349e+07 -0)
(1.39461e-06 -7.63349e+07 -0)
(2.54009e-06 -7.63349e+07 -0)
(7.17079e-06 -7.63349e+07 -0)
(8.63262e-06 -7.63349e+07 -0)
(-4.93255e-06 -7.63349e+07 -0)
(-8.04868e-06 -7.63349e+07 -0)
(9.07202e-06 -4.13585e+07 -0)
(5.91059e-06 -4.13585e+07 -0)
(-8.70424e-06 -4.13585e+07 -0)
(-7.21547e-06 -4.13585e+07 -0)
(-2.57197e-06 -4.13585e+07 -0)
(-1.40648e-06 -4.13585e+07 -0)
(-8.74958e-07 -4.13585e+07 -0)
(-5.91982e-07 -4.13585e+07 -0)
(-3.97174e-07 -4.13585e+07 -0)
(-2.95571e-07 -4.13585e+07 -0)
(-2.04885e-07 -4.13585e+07 -0)
(-1.25954e-07 -4.13585e+07 -0)
(-8.39691e-08 -4.13585e+07 -0)
(-4.70227e-08 -4.13585e+07 -0)
(-4.19846e-09 -4.13585e+07 -0)
(2.26717e-08 -4.13585e+07 -0)
(5.20608e-08 -4.13585e+07 -0)
(7.30531e-08 -4.13585e+07 -0)
(8.31294e-08 -4.13585e+07 -0)
(8.73279e-08 -4.13585e+07 -0)
(8.145e-08 -4.13585e+07 -0)
(9.06866e-08 -4.13585e+07 -0)
(9.15263e-08 -4.13585e+07 -0)
(8.31294e-08 -4.13585e+07 -0)
(7.72516e-08 -4.13585e+07 -0)
(5.87784e-08 -4.13585e+07 -0)
(5.29005e-08 -4.13585e+07 -0)
(4.70227e-08 -4.13585e+07 -0)
(2.35113e-08 -4.13585e+07 -0)
(-0 -4.13585e+07 -0)
(-1.00763e-08 -4.13585e+07 -0)
(-2.4351e-08 -4.13585e+07 -0)
(-3.44273e-08 -4.13585e+07 -0)
(-4.70227e-08 -4.13585e+07 -0)
(-6.04578e-08 -4.13585e+07 -0)
(-6.96944e-08 -4.13585e+07 -0)
(-7.80913e-08 -4.13585e+07 -0)
(-8.64882e-08 -4.13585e+07 -0)
(-9.32057e-08 -4.13585e+07 -0)
(-8.90073e-08 -4.13585e+07 -0)
(-7.80913e-08 -4.13585e+07 -0)
(-7.72516e-08 -4.13585e+07 -0)
(-7.13737e-08 -4.13585e+07 -0)
(-5.7099e-08 -4.13585e+07 -0)
(-4.03052e-08 -4.13585e+07 -0)
(4.19846e-09 -4.13585e+07 -0)
(4.36639e-08 -4.13585e+07 -0)
(7.97706e-08 -4.13585e+07 -0)
(1.39389e-07 -4.13585e+07 -0)
(2.06564e-07 -4.13585e+07 -0)
(2.93052e-07 -4.13585e+07 -0)
(4.11449e-07 -4.13585e+07 -0)
(6.02058e-07 -4.13585e+07 -0)
(8.74118e-07 -4.13585e+07 -0)
(1.40648e-06 -4.13585e+07 -0)
(2.5619e-06 -4.13585e+07 -0)
(7.20623e-06 -4.13585e+07 -0)
(8.72355e-06 -4.13585e+07 -0)
(-5.90219e-06 -4.13585e+07 -0)
(-9.08462e-06 -4.13585e+07 -0)
(9.33179e-06 -2.47398e+07 -0)
(6.42689e-06 -2.47398e+07 -0)
(-8.2176e-06 -2.47398e+07 -0)
(-6.93885e-06 -2.47398e+07 -0)
(-2.49236e-06 -2.47398e+07 -0)
(-1.36903e-06 -2.47398e+07 -0)
(-8.51357e-07 -2.47398e+07 -0)
(-5.74809e-07 -2.47398e+07 -0)
(-3.87396e-07 -2.47398e+07 -0)
(-2.90261e-07 -2.47398e+07 -0)
(-1.99983e-07 -2.47398e+07 -0)
(-1.21133e-07 -2.47398e+07 -0)
(-8.22788e-08 -2.47398e+07 -0)
(-4.45677e-08 -2.47398e+07 -0)
(-4.57104e-09 -2.47398e+07 -0)
(2.17125e-08 -2.47398e+07 -0)
(5.02815e-08 -2.47398e+07 -0)
(7.1994e-08 -2.47398e+07 -0)
(7.88505e-08 -2.47398e+07 -0)
(8.68498e-08 -2.47398e+07 -0)
(8.22788e-08 -2.47398e+07 -0)
(8.68499e-08 -2.47398e+07 -0)
(8.79926e-08 -2.47398e+07 -0)
(7.99933e-08 -2.47398e+07 -0)
(7.54222e-08 -2.47398e+07 -0)
(5.59953e-08 -2.47398e+07 -0)
(5.37098e-08 -2.47398e+07 -0)
(4.68532e-08 -2.47398e+07 -0)
(2.3998e-08 -2.47398e+07 -0)
(-0 -2.47398e+07 -0)
(-1.25704e-08 -2.47398e+07 -0)
(-2.3998e-08 -2.47398e+07 -0)
(-3.42828e-08 -2.47398e+07 -0)
(-4.68532e-08 -2.47398e+07 -0)
(-5.71381e-08 -2.47398e+07 -0)
(-6.74229e-08 -2.47398e+07 -0)
(-7.77078e-08 -2.47398e+07 -0)
(-8.34216e-08 -2.47398e+07 -0)
(-8.91354e-08 -2.47398e+07 -0)
(-8.79926e-08 -2.47398e+07 -0)
(-7.6565e-08 -2.47398e+07 -0)
(-7.42795e-08 -2.47398e+07 -0)
(-6.97084e-08 -2.47398e+07 -0)
(-5.59953e-08 -2.47398e+07 -0)
(-3.77111e-08 -2.47398e+07 -0)
(4.57104e-09 -2.47398e+07 -0)
(4.34249e-08 -2.47398e+07 -0)
(7.77078e-08 -2.47398e+07 -0)
(1.34846e-07 -2.47398e+07 -0)
(2.02269e-07 -2.47398e+07 -0)
(2.8569e-07 -2.47398e+07 -0)
(4.01109e-07 -2.47398e+07 -0)
(5.85094e-07 -2.47398e+07 -0)
(8.50214e-07 -2.47398e+07 -0)
(1.36789e-06 -2.47398e+07 -0)
(2.48665e-06 -2.47398e+07 -0)
(6.92513e-06 -2.47398e+07 -0)
(8.23588e-06 -2.47398e+07 -0)
(-6.41775e-06 -2.47398e+07 -0)
(-9.34207e-06 -2.47398e+07 -0)
(9.19752e-06 -1.59208e+07 -0)
(6.6952e-06 -1.59208e+07 -0)
(-7.46772e-06 -1.59208e+07 -0)
(-6.5129e-06 -1.59208e+07 -0)
(-2.37643e-06 -1.59208e+07 -0)
(-1.30716e-06 -1.59208e+07 -0)
(-8.13397e-07 -1.59208e+07 -0)
(-5.49349e-07 -1.59208e+07 -0)
(-3.72773e-07 -1.59208e+07 -0)
(-2.78762e-07 -1.59208e+07 -0)
(-1.91291e-07 -1.59208e+07 -0)
(-1.16083e-07 -1.59208e+07 -0)
(-8.01135e-08 -1.59208e+07 -0)
(-4.25092e-08 -1.59208e+07 -0)
(-2.45245e-09 -1.59208e+07 -0)
(1.79847e-08 -1.59208e+07 -0)
(5.0684e-08 -1.59208e+07 -0)
(6.86687e-08 -1.59208e+07 -0)
(7.52086e-08 -1.59208e+07 -0)
(8.33834e-08 -1.59208e+07 -0)
(7.9296e-08 -1.59208e+07 -0)
(8.50184e-08 -1.59208e+07 -0)
(8.25659e-08 -1.59208e+07 -0)
(7.52086e-08 -1.59208e+07 -0)
(7.19386e-08 -1.59208e+07 -0)
(5.3954e-08 -1.59208e+07 -0)
(5.15015e-08 -1.59208e+07 -0)
(4.49616e-08 -1.59208e+07 -0)
(2.3707e-08 -1.59208e+07 -0)
(1.63497e-09 -1.59208e+07 -0)
(-1.30797e-08 -1.59208e+07 -0)
(-2.45245e-08 -1.59208e+07 -0)
(-3.26994e-08 -1.59208e+07 -0)
(-4.41442e-08 -1.59208e+07 -0)
(-5.47714e-08 -1.59208e+07 -0)
(-6.29463e-08 -1.59208e+07 -0)
(-7.6026e-08 -1.59208e+07 -0)
(-7.9296e-08 -1.59208e+07 -0)
(-8.58358e-08 -1.59208e+07 -0)
(-8.33834e-08 -1.59208e+07 -0)
(-7.35736e-08 -1.59208e+07 -0)
(-7.11211e-08 -1.59208e+07 -0)
(-6.70337e-08 -1.59208e+07 -0)
(-5.47714e-08 -1.59208e+07 -0)
(-3.35169e-08 -1.59208e+07 -0)
(1.63497e-09 -1.59208e+07 -0)
(4.25092e-08 -1.59208e+07 -0)
(7.9296e-08 -1.59208e+07 -0)
(1.2671e-07 -1.59208e+07 -0)
(1.93744e-07 -1.59208e+07 -0)
(2.74675e-07 -1.59208e+07 -0)
(3.834e-07 -1.59208e+07 -0)
(5.59977e-07 -1.59208e+07 -0)
(8.11762e-07 -1.59208e+07 -0)
(1.30716e-06 -1.59208e+07 -0)
(2.36907e-06 -1.59208e+07 -0)
(6.5039e-06 -1.59208e+07 -0)
(7.48407e-06 -1.59208e+07 -0)
(-6.68702e-06 -1.59208e+07 -0)
(-9.20651e-06 -1.59208e+07 -0)
(8.9176e-06 -1.08469e+07 -0)
(6.86738e-06 -1.08469e+07 -0)
(-6.62259e-06 -1.08469e+07 -0)
(-6.03255e-06 -1.08469e+07 -0)
(-2.24204e-06 -1.08469e+07 -0)
(-1.23793e-06 -1.08469e+07 -0)
(-7.69672e-07 -1.08469e+07 -0)
(-5.21234e-07 -1.08469e+07 -0)
(-3.5439e-07 -1.08469e+07 -0)
(-2.64879e-07 -1.08469e+07 -0)
(-1.83284e-07 -1.08469e+07 -0)
(-1.10823e-07 -1.08469e+07 -0)
(-7.61147e-08 -1.08469e+07 -0)
(-3.95797e-08 -1.08469e+07 -0)
(-4.87134e-09 -1.08469e+07 -0)
(1.82675e-08 -1.08469e+07 -0)
(4.68867e-08 -1.08469e+07 -0)
(6.51542e-08 -1.08469e+07 -0)
(7.18523e-08 -1.08469e+07 -0)
(8.03772e-08 -1.08469e+07 -0)
(7.67237e-08 -1.08469e+07 -0)
(7.97683e-08 -1.08469e+07 -0)
(7.79415e-08 -1.08469e+07 -0)
(7.24612e-08 -1.08469e+07 -0)
(6.88077e-08 -1.08469e+07 -0)
(4.93224e-08 -1.08469e+07 -0)
(4.93224e-08 -1.08469e+07 -0)
(4.38421e-08 -1.08469e+07 -0)
(2.1921e-08 -1.08469e+07 -0)
(2.43567e-09 -1.08469e+07 -0)
(-1.27873e-08 -1.08469e+07 -0)
(-2.31389e-08 -1.08469e+07 -0)
(-3.22727e-08 -1.08469e+07 -0)
(-4.32332e-08 -1.08469e+07 -0)
(-5.11491e-08 -1.08469e+07 -0)
(-5.9674e-08 -1.08469e+07 -0)
(-7.06345e-08 -1.08469e+07 -0)
(-7.55058e-08 -1.08469e+07 -0)
(-8.1595e-08 -1.08469e+07 -0)
(-7.85504e-08 -1.08469e+07 -0)
(-7.18523e-08 -1.08469e+07 -0)
(-6.81988e-08 -1.08469e+07 -0)
(-6.21096e-08 -1.08469e+07 -0)
(-5.11491e-08 -1.08469e+07 -0)
(-3.16637e-08 -1.08469e+07 -0)
(3.04459e-09 -1.08469e+07 -0)
(3.95797e-08 -1.08469e+07 -0)
(7.30702e-08 -1.08469e+07 -0)
(1.23001e-07 -1.08469e+07 -0)
(1.83893e-07 -1.08469e+07 -0)
(2.61835e-07 -1.08469e+07 -0)
(3.65351e-07 -1.08469e+07 -0)
(5.30368e-07 -1.08469e+07 -0)
(7.69063e-07 -1.08469e+07 -0)
(1.23793e-06 -1.08469e+07 -0)
(2.23656e-06 -1.08469e+07 -0)
(6.02159e-06 -1.08469e+07 -0)
(6.63964e-06 -1.08469e+07 -0)
(-6.86007e-06 -1.08469e+07 -0)
(-8.92674e-06 -1.08469e+07 -0)
(8.6202e-06 -7.73951e+06 -0)
(7.03442e-06 -7.73951e+06 -0)
(-5.76025e-06 -7.73951e+06 -0)
(-5.54062e-06 -7.73951e+06 -0)
(-2.10436e-06 -7.73951e+06 -0)
(-1.16669e-06 -7.73951e+06 -0)
(-7.26015e-07 -7.73951e+06 -0)
(-4.90893e-07 -7.73951e+06 -0)
(-3.36023e-07 -7.73951e+06 -0)
(-2.5014e-07 -7.73951e+06 -0)
(-1.75051e-07 -7.73951e+06 -0)
(-1.07002e-07 -7.73951e+06 -0)
(-7.08651e-08 -7.73951e+06 -0)
(-3.80137e-08 -7.73951e+06 -0)
(-4.22375e-09 -7.73951e+06 -0)
(1.83029e-08 -7.73951e+06 -0)
(4.41147e-08 -7.73951e+06 -0)
(6.05404e-08 -7.73951e+06 -0)
(6.85186e-08 -7.73951e+06 -0)
(7.64967e-08 -7.73951e+06 -0)
(7.32116e-08 -7.73951e+06 -0)
(7.60274e-08 -7.73951e+06 -0)
(7.2273e-08 -7.73951e+06 -0)
(6.80493e-08 -7.73951e+06 -0)
(6.6172e-08 -7.73951e+06 -0)
(4.83384e-08 -7.73951e+06 -0)
(4.69305e-08 -7.73951e+06 -0)
(4.08296e-08 -7.73951e+06 -0)
(1.97108e-08 -7.73951e+06 -0)
(1.40792e-09 -7.73951e+06 -0)
(-1.17326e-08 -7.73951e+06 -0)
(-2.20573e-08 -7.73951e+06 -0)
(-3.00355e-08 -7.73951e+06 -0)
(-4.12989e-08 -7.73951e+06 -0)
(-4.88077e-08 -7.73951e+06 -0)
(-5.49087e-08 -7.73951e+06 -0)
(-6.89879e-08 -7.73951e+06 -0)
(-7.2273e-08 -7.73951e+06 -0)
(-7.46195e-08 -7.73951e+06 -0)
(-7.50888e-08 -7.73951e+06 -0)
(-6.99265e-08 -7.73951e+06 -0)
(-6.38255e-08 -7.73951e+06 -0)
(-5.86631e-08 -7.73951e+06 -0)
(-4.78691e-08 -7.73951e+06 -0)
(-2.90969e-08 -7.73951e+06 -0)
(3.28514e-09 -7.73951e+06 -0)
(3.61365e-08 -7.73951e+06 -0)
(7.03958e-08 -7.73951e+06 -0)
(1.17796e-07 -7.73951e+06 -0)
(1.75051e-07 -7.73951e+06 -0)
(2.48262e-07 -7.73951e+06 -0)
(3.45878e-07 -7.73951e+06 -0)
(5.00749e-07 -7.73951e+06 -0)
(7.26015e-07 -7.73951e+06 -0)
(1.16669e-06 -7.73951e+06 -0)
(2.09873e-06 -7.73951e+06 -0)
(5.53029e-06 -7.73951e+06 -0)
(5.7748e-06 -7.73951e+06 -0)
(-7.02597e-06 -7.73951e+06 -0)
(-8.62771e-06 -7.73951e+06 -0)
(8.36194e-06 -5.73742e+06 -0)
(7.23805e-06 -5.73742e+06 -0)
(-4.90831e-06 -5.73742e+06 -0)
(-5.05919e-06 -5.73742e+06 -0)
(-1.96653e-06 -5.73742e+06 -0)
(-1.09595e-06 -5.73742e+06 -0)
(-6.832e-07 -5.73742e+06 -0)
(-4.62297e-07 -5.73742e+06 -0)
(-3.19622e-07 -5.73742e+06 -0)
(-2.36922e-07 -5.73742e+06 -0)
(-1.65026e-07 -5.73742e+06 -0)
(-1.0207e-07 -5.73742e+06 -0)
(-6.59359e-08 -5.73742e+06 -0)
(-3.61344e-08 -5.73742e+06 -0)
(-4.84275e-09 -5.73742e+06 -0)
(1.63909e-08 -5.73742e+06 -0)
(4.17222e-08 -5.73742e+06 -0)
(5.66229e-08 -5.73742e+06 -0)
(6.44458e-08 -5.73742e+06 -0)
(7.18962e-08 -5.73742e+06 -0)
(7.04062e-08 -5.73742e+06 -0)
(7.22688e-08 -5.73742e+06 -0)
(6.7426e-08 -5.73742e+06 -0)
(6.59359e-08 -5.73742e+06 -0)
(6.25832e-08 -5.73742e+06 -0)
(4.50748e-08 -5.73742e+06 -0)
(4.47023e-08 -5.73742e+06 -0)
(3.98596e-08 -5.73742e+06 -0)
(1.89985e-08 -5.73742e+06 -0)
(3.72519e-10 -5.73742e+06 -0)
(-1.08031e-08 -5.73742e+06 -0)
(-2.04886e-08 -5.73742e+06 -0)
(-2.90565e-08 -5.73742e+06 -0)
(-3.91145e-08 -5.73742e+06 -0)
(-4.61924e-08 -5.73742e+06 -0)
(-5.25252e-08 -5.73742e+06 -0)
(-6.55634e-08 -5.73742e+06 -0)
(-6.89161e-08 -5.73742e+06 -0)
(-7.04062e-08 -5.73742e+06 -0)
(-7.04062e-08 -5.73742e+06 -0)
(-6.59359e-08 -5.73742e+06 -0)
(-6.03481e-08 -5.73742e+06 -0)
(-5.40153e-08 -5.73742e+06 -0)
(-4.43298e-08 -5.73742e+06 -0)
(-2.71939e-08 -5.73742e+06 -0)
(2.60764e-09 -5.73742e+06 -0)
(3.27817e-08 -5.73742e+06 -0)
(6.55634e-08 -5.73742e+06 -0)
(1.13246e-07 -5.73742e+06 -0)
(1.67634e-07 -5.73742e+06 -0)
(2.35432e-07 -5.73742e+06 -0)
(3.26327e-07 -5.73742e+06 -0)
(4.71982e-07 -5.73742e+06 -0)
(6.83573e-07 -5.73742e+06 -0)
(1.09558e-06 -5.73742e+06 -0)
(1.96318e-06 -5.73742e+06 -0)
(5.04987e-06 -5.73742e+06 -0)
(4.91949e-06 -5.73742e+06 -0)
(-7.2306e-06 -5.73742e+06 -0)
(-8.36753e-06 -5.73742e+06 -0)
(8.16493e-06 -4.39037e+06 -0)
(7.50302e-06 -4.39037e+06 -0)
(-4.07276e-06 -4.39037e+06 -0)
(-4.59573e-06 -4.39037e+06 -0)
(-1.83041e-06 -4.39037e+06 -0)
(-1.02653e-06 -4.39037e+06 -0)
(-6.42492e-07 -4.39037e+06 -0)
(-4.35609e-07 -4.39037e+06 -0)
(-3.00315e-07 -4.39037e+06 -0)
(-2.23265e-07 -4.39037e+06 -0)
(-1.57135e-07 -4.39037e+06 -0)
(-9.64648e-08 -4.39037e+06 -0)
(-6.18831e-08 -4.39037e+06 -0)
(-3.45817e-08 -4.39037e+06 -0)
(-4.85358e-09 -4.39037e+06 -0)
(1.51674e-08 -4.39037e+06 -0)
(3.88286e-08 -4.39037e+06 -0)
(5.27827e-08 -4.39037e+06 -0)
(6.06697e-08 -4.39037e+06 -0)
(6.79501e-08 -4.39037e+06 -0)
(6.91635e-08 -4.39037e+06 -0)
(6.85568e-08 -4.39037e+06 -0)
(6.24898e-08 -4.39037e+06 -0)
(6.18831e-08 -4.39037e+06 -0)
(5.88496e-08 -4.39037e+06 -0)
(4.36822e-08 -4.39037e+06 -0)
(4.18621e-08 -4.39037e+06 -0)
(3.76152e-08 -4.39037e+06 -0)
(1.82009e-08 -4.39037e+06 -0)
(-0 -4.39037e+06 -0)
(-1.09205e-08 -4.39037e+06 -0)
(-1.82009e-08 -4.39037e+06 -0)
(-2.73014e-08 -4.39037e+06 -0)
(-3.76152e-08 -4.39037e+06 -0)
(-4.36822e-08 -4.39037e+06 -0)
(-5.09626e-08 -4.39037e+06 -0)
(-6.24898e-08 -4.39037e+06 -0)
(-6.43099e-08 -4.39037e+06 -0)
(-6.613e-08 -4.39037e+06 -0)
(-6.67367e-08 -4.39037e+06 -0)
(-6.18831e-08 -4.39037e+06 -0)
(-5.64228e-08 -4.39037e+06 -0)
(-5.09626e-08 -4.39037e+06 -0)
(-4.18621e-08 -4.39037e+06 -0)
(-2.42679e-08 -4.39037e+06 -0)
(1.82009e-09 -4.39037e+06 -0)
(2.97282e-08 -4.39037e+06 -0)
(6.37032e-08 -4.39037e+06 -0)
(1.09205e-07 -4.39037e+06 -0)
(1.58348e-07 -4.39037e+06 -0)
(2.22658e-07 -4.39037e+06 -0)
(3.07595e-07 -4.39037e+06 -0)
(4.44102e-07 -4.39037e+06 -0)
(6.41886e-07 -4.39037e+06 -0)
(1.02714e-06 -4.39037e+06 -0)
(1.82859e-06 -4.39037e+06 -0)
(4.58542e-06 -4.39037e+06 -0)
(4.08307e-06 -4.39037e+06 -0)
(-7.49514e-06 -4.39037e+06 -0)
(-8.16857e-06 -4.39037e+06 -0)
(8.03224e-06 -3.44827e+06 -0)
(7.83227e-06 -3.44827e+06 -0)
(-3.25158e-06 -3.44827e+06 -0)
(-4.14338e-06 -3.44827e+06 -0)
(-1.69522e-06 -3.44827e+06 -0)
(-9.57951e-07 -3.44827e+06 -0)
(-6.01938e-07 -3.44827e+06 -0)
(-4.08025e-07 -3.44827e+06 -0)
(-2.838e-07 -3.44827e+06 -0)
(-2.10577e-07 -3.44827e+06 -0)
(-1.4796e-07 -3.44827e+06 -0)
(-9.24117e-08 -3.44827e+06 -0)
(-5.85779e-08 -3.44827e+06 -0)
(-3.23188e-08 -3.44827e+06 -0)
(-5.5548e-09 -3.44827e+06 -0)
(1.41395e-08 -3.44827e+06 -0)
(3.58537e-08 -3.44827e+06 -0)
(4.99932e-08 -3.44827e+06 -0)
(5.75679e-08 -3.44827e+06 -0)
(6.41327e-08 -3.44827e+06 -0)
(6.51427e-08 -3.44827e+06 -0)
(6.51427e-08 -3.44827e+06 -0)
(5.95879e-08 -3.44827e+06 -0)
(5.80729e-08 -3.44827e+06 -0)
(5.6053e-08 -3.44827e+06 -0)
(4.09035e-08 -3.44827e+06 -0)
(3.93886e-08 -3.44827e+06 -0)
(3.48437e-08 -3.44827e+06 -0)
(1.76744e-08 -3.44827e+06 -0)
(5.04982e-10 -3.44827e+06 -0)
(-9.59465e-09 -3.44827e+06 -0)
(-1.76744e-08 -3.44827e+06 -0)
(-2.57541e-08 -3.44827e+06 -0)
(-3.53487e-08 -3.44827e+06 -0)
(-4.19135e-08 -3.44827e+06 -0)
(-4.84783e-08 -3.44827e+06 -0)
(-6.00928e-08 -3.44827e+06 -0)
(-6.05978e-08 -3.44827e+06 -0)
(-6.21128e-08 -3.44827e+06 -0)
(-6.21128e-08 -3.44827e+06 -0)
(-5.85779e-08 -3.44827e+06 -0)
(-5.30231e-08 -3.44827e+06 -0)
(-4.74683e-08 -3.44827e+06 -0)
(-3.88836e-08 -3.44827e+06 -0)
(-2.27242e-08 -3.44827e+06 -0)
(2.01993e-09 -3.44827e+06 -0)
(2.8784e-08 -3.44827e+06 -0)
(5.90829e-08 -3.44827e+06 -0)
(1.03521e-07 -3.44827e+06 -0)
(1.52e-07 -3.44827e+06 -0)
(2.11082e-07 -3.44827e+06 -0)
(2.8885e-07 -3.44827e+06 -0)
(4.1661e-07 -3.44827e+06 -0)
(6.01433e-07 -3.44827e+06 -0)
(9.58456e-07 -3.44827e+06 -0)
(1.69472e-06 -3.44827e+06 -0)
(4.13378e-06 -3.44827e+06 -0)
(3.26067e-06 -3.44827e+06 -0)
(-7.82267e-06 -3.44827e+06 -0)
(-8.03578e-06 -3.44827e+06 -0)
(7.9565e-06 -2.76526e+06 -0)
(8.21847e-06 -2.76526e+06 -0)
(-2.43742e-06 -2.76526e+06 -0)
(-3.69936e-06 -2.76526e+06 -0)
(-1.55731e-06 -2.76526e+06 -0)
(-8.89097e-07 -2.76526e+06 -0)
(-5.60769e-07 -2.76526e+06 -0)
(-3.81836e-07 -2.76526e+06 -0)
(-2.66686e-07 -2.76526e+06 -0)
(-1.97767e-07 -2.76526e+06 -0)
(-1.3955e-07 -2.76526e+06 -0)
(-8.64697e-08 -2.76526e+06 -0)
(-5.56488e-08 -2.76526e+06 -0)
(-3.1677e-08 -2.76526e+06 -0)
(-5.99295e-09 -2.76526e+06 -0)
(1.32701e-08 -2.76526e+06 -0)
(3.46735e-08 -2.76526e+06 -0)
(4.62313e-08 -2.76526e+06 -0)
(5.47927e-08 -2.76526e+06 -0)
(6.03576e-08 -2.76526e+06 -0)
(6.07856e-08 -2.76526e+06 -0)
(6.24979e-08 -2.76526e+06 -0)
(5.56488e-08 -2.76526e+06 -0)
(5.39365e-08 -2.76526e+06 -0)
(5.26523e-08 -2.76526e+06 -0)
(3.85261e-08 -2.76526e+06 -0)
(3.8098e-08 -2.76526e+06 -0)
(3.29612e-08 -2.76526e+06 -0)
(1.71227e-08 -2.76526e+06 -0)
(4.28068e-10 -2.76526e+06 -0)
(-1.02736e-08 -2.76526e+06 -0)
(-1.58385e-08 -2.76526e+06 -0)
(-2.39718e-08 -2.76526e+06 -0)
(-3.33893e-08 -2.76526e+06 -0)
(-4.02384e-08 -2.76526e+06 -0)
(-4.62313e-08 -2.76526e+06 -0)
(-5.6505e-08 -2.76526e+06 -0)
(-5.73611e-08 -2.76526e+06 -0)
(-5.73611e-08 -2.76526e+06 -0)
(-5.90734e-08 -2.76526e+06 -0)
(-5.39365e-08 -2.76526e+06 -0)
(-4.96559e-08 -2.76526e+06 -0)
(-4.49471e-08 -2.76526e+06 -0)
(-3.59577e-08 -2.76526e+06 -0)
(-2.01192e-08 -2.76526e+06 -0)
(2.14034e-09 -2.76526e+06 -0)
(2.61121e-08 -2.76526e+06 -0)
(5.60769e-08 -2.76526e+06 -0)
(9.80275e-08 -2.76526e+06 -0)
(1.44259e-07 -2.76526e+06 -0)
(1.9948e-07 -2.76526e+06 -0)
(2.70967e-07 -2.76526e+06 -0)
(3.88686e-07 -2.76526e+06 -0)
(5.59485e-07 -2.76526e+06 -0)
(8.90381e-07 -2.76526e+06 -0)
(1.55817e-06 -2.76526e+06 -0)
(3.68909e-06 -2.76526e+06 -0)
(2.44555e-06 -2.76526e+06 -0)
(-8.2082e-06 -2.76526e+06 -0)
(-7.95907e-06 -2.76526e+06 -0)
(7.91912e-06 -2.25298e+06 -0)
(8.64413e-06 -2.25298e+06 -0)
(-1.62492e-06 -2.25298e+06 -0)
(-3.25278e-06 -2.25298e+06 -0)
(-1.41577e-06 -2.25298e+06 -0)
(-8.17429e-07 -2.25298e+06 -0)
(-5.18442e-07 -2.25298e+06 -0)
(-3.53851e-07 -2.25298e+06 -0)
(-2.48543e-07 -2.25298e+06 -0)
(-1.84842e-07 -2.25298e+06 -0)
(-1.30347e-07 -2.25298e+06 -0)
(-8.24793e-08 -2.25298e+06 -0)
(-5.2286e-08 -2.25298e+06 -0)
(-2.83523e-08 -2.25298e+06 -0)
(-7.36423e-09 -2.25298e+06 -0)
(1.10463e-08 -2.25298e+06 -0)
(3.3139e-08 -2.25298e+06 -0)
(4.23443e-08 -2.25298e+06 -0)
(5.11814e-08 -2.25298e+06 -0)
(5.67045e-08 -2.25298e+06 -0)
(5.7441e-08 -2.25298e+06 -0)
(5.81774e-08 -2.25298e+06 -0)
(5.2286e-08 -2.25298e+06 -0)
(5.08132e-08 -2.25298e+06 -0)
(4.97085e-08 -2.25298e+06 -0)
(3.68211e-08 -2.25298e+06 -0)
(3.53483e-08 -2.25298e+06 -0)
(3.09298e-08 -2.25298e+06 -0)
(1.62013e-08 -2.25298e+06 -0)
(7.36423e-10 -2.25298e+06 -0)
(-9.94171e-09 -2.25298e+06 -0)
(-1.54649e-08 -2.25298e+06 -0)
(-2.20927e-08 -2.25298e+06 -0)
(-3.09298e-08 -2.25298e+06 -0)
(-3.79258e-08 -2.25298e+06 -0)
(-4.45536e-08 -2.25298e+06 -0)
(-5.30224e-08 -2.25298e+06 -0)
(-5.37589e-08 -2.25298e+06 -0)
(-5.44953e-08 -2.25298e+06 -0)
(-5.37589e-08 -2.25298e+06 -0)
(-4.93403e-08 -2.25298e+06 -0)
(-4.67628e-08 -2.25298e+06 -0)
(-4.23443e-08 -2.25298e+06 -0)
(-3.35072e-08 -2.25298e+06 -0)
(-1.76741e-08 -2.25298e+06 -0)
(2.94569e-09 -2.25298e+06 -0)
(2.39337e-08 -2.25298e+06 -0)
(5.26542e-08 -2.25298e+06 -0)
(9.27893e-08 -2.25298e+06 -0)
(1.3587e-07 -2.25298e+06 -0)
(1.87051e-07 -2.25298e+06 -0)
(2.52961e-07 -2.25298e+06 -0)
(3.61584e-07 -2.25298e+06 -0)
(5.18073e-07 -2.25298e+06 -0)
(8.18166e-07 -2.25298e+06 -0)
(1.4154e-06 -2.25298e+06 -0)
(3.24431e-06 -2.25298e+06 -0)
(1.63191e-06 -2.25298e+06 -0)
(-8.63345e-06 -2.25298e+06 -0)
(-7.91986e-06 -2.25298e+06 -0)
(7.8988e-06 -1.8563e+06 -0)
(9.08462e-06 -1.8563e+06 -0)
(-8.13705e-07 -1.8563e+06 -0)
(-2.80234e-06 -1.8563e+06 -0)
(-1.26523e-06 -1.8563e+06 -0)
(-7.41974e-07 -1.8563e+06 -0)
(-4.73621e-07 -1.8563e+06 -0)
(-3.25354e-07 -1.8563e+06 -0)
(-2.29605e-07 -1.8563e+06 -0)
(-1.71003e-07 -1.8563e+06 -0)
(-1.21047e-07 -1.8563e+06 -0)
(-7.71755e-08 -1.8563e+06 -0)
(-4.8675e-08 -1.8563e+06 -0)
(-2.786e-08 -1.8563e+06 -0)
(-7.3653e-09 -1.8563e+06 -0)
(1.05676e-08 -1.8563e+06 -0)
(2.88207e-08 -1.8563e+06 -0)
(4.00288e-08 -1.8563e+06 -0)
(4.73941e-08 -1.8563e+06 -0)
(5.31582e-08 -1.8563e+06 -0)
(5.41189e-08 -1.8563e+06 -0)
(5.41189e-08 -1.8563e+06 -0)
(4.89953e-08 -1.8563e+06 -0)
(4.73941e-08 -1.8563e+06 -0)
(4.54727e-08 -1.8563e+06 -0)
(3.45849e-08 -1.8563e+06 -0)
(3.36242e-08 -1.8563e+06 -0)
(2.81803e-08 -1.8563e+06 -0)
(1.53711e-08 -1.8563e+06 -0)
(1.92138e-09 -1.8563e+06 -0)
(-9.28668e-09 -1.8563e+06 -0)
(-1.56913e-08 -1.8563e+06 -0)
(-2.04947e-08 -1.8563e+06 -0)
(-2.81803e-08 -1.8563e+06 -0)
(-3.6186e-08 -1.8563e+06 -0)
(-4.19502e-08 -1.8563e+06 -0)
(-4.99559e-08 -1.8563e+06 -0)
(-4.93155e-08 -1.8563e+06 -0)
(-5.02762e-08 -1.8563e+06 -0)
(-5.02762e-08 -1.8563e+06 -0)
(-4.4512e-08 -1.8563e+06 -0)
(-4.19502e-08 -1.8563e+06 -0)
(-4.0349e-08 -1.8563e+06 -0)
(-3.13826e-08 -1.8563e+06 -0)
(-1.53711e-08 -1.8563e+06 -0)
(3.84277e-09 -1.8563e+06 -0)
(2.24161e-08 -1.8563e+06 -0)
(4.93155e-08 -1.8563e+06 -0)
(8.64622e-08 -1.8563e+06 -0)
(1.27452e-07 -1.8563e+06 -0)
(1.73245e-07 -1.8563e+06 -0)
(2.34088e-07 -1.8563e+06 -0)
(3.32079e-07 -1.8563e+06 -0)
(4.73941e-07 -1.8563e+06 -0)
(7.43255e-07 -1.8563e+06 -0)
(1.26587e-06 -1.8563e+06 -0)
(2.79305e-06 -1.8563e+06 -0)
(8.1979e-07 -1.8563e+06 -0)
(-9.07373e-06 -1.8563e+06 -0)
(-7.89912e-06 -1.8563e+06 -0)
(7.872e-06 -1.54014e+06 -0)
(9.50656e-06 -1.54014e+06 -0)
(-1.12245e-08 -1.54014e+06 -0)
(-2.34142e-06 -1.54014e+06 -0)
(-1.10701e-06 -1.54014e+06 -0)
(-6.61402e-07 -1.54014e+06 -0)
(-4.26249e-07 -1.54014e+06 -0)
(-2.96045e-07 -1.54014e+06 -0)
(-2.09617e-07 -1.54014e+06 -0)
(-1.56301e-07 -1.54014e+06 -0)
(-1.11122e-07 -1.54014e+06 -0)
(-7.1556e-08 -1.54014e+06 -0)
(-4.57397e-08 -1.54014e+06 -0)
(-2.49744e-08 -1.54014e+06 -0)
(-6.73468e-09 -1.54014e+06 -0)
(8.69896e-09 -1.54014e+06 -0)
(2.58163e-08 -1.54014e+06 -0)
(3.64795e-08 -1.54014e+06 -0)
(4.46173e-08 -1.54014e+06 -0)
(4.9107e-08 -1.54014e+06 -0)
(4.93877e-08 -1.54014e+06 -0)
(5.05101e-08 -1.54014e+06 -0)
(4.51785e-08 -1.54014e+06 -0)
(4.32142e-08 -1.54014e+06 -0)
(4.2653e-08 -1.54014e+06 -0)
(3.19897e-08 -1.54014e+06 -0)
(3.03061e-08 -1.54014e+06 -0)
(2.66581e-08 -1.54014e+06 -0)
(1.43112e-08 -1.54014e+06 -0)
(1.40306e-09 -1.54014e+06 -0)
(-8.69896e-09 -1.54014e+06 -0)
(-1.5153e-08 -1.54014e+06 -0)
(-1.85204e-08 -1.54014e+06 -0)
(-2.60969e-08 -1.54014e+06 -0)
(-3.31122e-08 -1.54014e+06 -0)
(-3.95662e-08 -1.54014e+06 -0)
(-4.60203e-08 -1.54014e+06 -0)
(-4.46173e-08 -1.54014e+06 -0)
(-4.74234e-08 -1.54014e+06 -0)
(-4.57397e-08 -1.54014e+06 -0)
(-3.95662e-08 -1.54014e+06 -0)
(-3.87244e-08 -1.54014e+06 -0)
(-3.59183e-08 -1.54014e+06 -0)
(-2.91836e-08 -1.54014e+06 -0)
(-1.375e-08 -1.54014e+06 -0)
(4.48979e-09 -1.54014e+06 -0)
(2.04847e-08 -1.54014e+06 -0)
(4.54591e-08 -1.54014e+06 -0)
(8.1658e-08 -1.54014e+06 -0)
(1.17857e-07 -1.54014e+06 -0)
(1.58265e-07 -1.54014e+06 -0)
(2.14107e-07 -1.54014e+06 -0)
(3.01658e-07 -1.54014e+06 -0)
(4.2681e-07 -1.54014e+06 -0)
(6.62805e-07 -1.54014e+06 -0)
(1.10701e-06 -1.54014e+06 -0)
(2.33301e-06 -1.54014e+06 -0)
(1.76785e-08 -1.54014e+06 -0)
(-9.49534e-06 -1.54014e+06 -0)
(-7.872e-06 -1.54014e+06 -0)
(7.81516e-06 -1.28186e+06 -0)
(9.87336e-06 -1.28186e+06 -0)
(7.67316e-07 -1.28186e+06 -0)
(-1.87445e-06 -1.28186e+06 -0)
(-9.39203e-07 -1.28186e+06 -0)
(-5.75919e-07 -1.28186e+06 -0)
(-3.75879e-07 -1.28186e+06 -0)
(-2.63016e-07 -1.28186e+06 -0)
(-1.88433e-07 -1.28186e+06 -0)
(-1.41757e-07 -1.28186e+06 -0)
(-1.01008e-07 -1.28186e+06 -0)
(-6.54454e-08 -1.28186e+06 -0)
(-4.14899e-08 -1.28186e+06 -0)
(-2.39555e-08 -1.28186e+06 -0)
(-7.16194e-09 -1.28186e+06 -0)
(7.40891e-09 -1.28186e+06 -0)
(2.29676e-08 -1.28186e+06 -0)
(3.30931e-08 -1.28186e+06 -0)
(4.0996e-08 -1.28186e+06 -0)
(4.47004e-08 -1.28186e+06 -0)
(4.39595e-08 -1.28186e+06 -0)
(4.69231e-08 -1.28186e+06 -0)
(4.14899e-08 -1.28186e+06 -0)
(3.97611e-08 -1.28186e+06 -0)
(3.87733e-08 -1.28186e+06 -0)
(2.86478e-08 -1.28186e+06 -0)
(2.7166e-08 -1.28186e+06 -0)
(2.54372e-08 -1.28186e+06 -0)
(1.383e-08 -1.28186e+06 -0)
(2.22267e-09 -1.28186e+06 -0)
(-8.1498e-09 -1.28186e+06 -0)
(-1.50648e-08 -1.28186e+06 -0)
(-1.77814e-08 -1.28186e+06 -0)
(-2.34615e-08 -1.28186e+06 -0)
(-3.03765e-08 -1.28186e+06 -0)
(-3.58097e-08 -1.28186e+06 -0)
(-4.17368e-08 -1.28186e+06 -0)
(-4.0749e-08 -1.28186e+06 -0)
(-4.27247e-08 -1.28186e+06 -0)
(-4.14899e-08 -1.28186e+06 -0)
(-3.60567e-08 -1.28186e+06 -0)
(-3.48219e-08 -1.28186e+06 -0)
(-3.23522e-08 -1.28186e+06 -0)
(-2.64251e-08 -1.28186e+06 -0)
(-1.16073e-08 -1.28186e+06 -0)
(5.18624e-09 -1.28186e+06 -0)
(1.82753e-08 -1.28186e+06 -0)
(4.24777e-08 -1.28186e+06 -0)
(7.53239e-08 -1.28186e+06 -0)
(1.07182e-07 -1.28186e+06 -0)
(1.44474e-07 -1.28186e+06 -0)
(1.91891e-07 -1.28186e+06 -0)
(2.68449e-07 -1.28186e+06 -0)
(3.76619e-07 -1.28186e+06 -0)
(5.78142e-07 -1.28186e+06 -0)
(9.39696e-07 -1.28186e+06 -0)
(1.8663e-06 -1.28186e+06 -0)
(-7.60895e-07 -1.28186e+06 -0)
(-9.86175e-06 -1.28186e+06 -0)
(-7.81368e-06 -1.28186e+06 -0)
(7.70482e-06 -1.06677e+06 -0)
(1.01475e-05 -1.06677e+06 -0)