/*--------------------------------*- C++ -*----------------------------------*\
| =========                 |                                                 |
| \\      /  F ield         | foam-extend: Open Source CFD                    |
|  \\    /   O peration     | Version:     4.0                                |
|   \\  /    A nd           | Web:         http://www.foam-extend.org         |
|    \\/     M anipulation  |                                                 |
\*---------------------------------------------------------------------------*/
FoamFile
{
    version     2.0;
    format      ascii;
    class       volVectorField;
    location    "11";
    object      bodyForce;
}
// * * * * * * * * * * * * * * * * * * * * * * * * * * * * * * * * * * * * * //

dimensions      [0 -1 0 0 0 0 0];

internalField   nonuniform List<vector> 
6960
(
(-6.70684e-06 -1.01195e+09 -0)
(-9.71218e-06 -1.01195e+09 -0)
(-4.55307e-06 -1.01195e+09 -0)
(-2.27498e-06 -1.01195e+09 -0)
(-9.38585e-07 -1.01195e+09 -0)
(-3.94703e-07 -1.01195e+09 -0)
(-2.54847e-07 -1.01195e+09 -0)
(-1.42963e-07 -1.01195e+09 -0)
(-8.70211e-08 -1.01195e+09 -0)
(-3.41869e-08 -1.01195e+09 -0)
(3.1079e-09 -1.01195e+09 -0)
(3.41869e-08 -1.01195e+09 -0)
(5.59421e-08 -1.01195e+09 -0)
(6.83737e-08 -1.01195e+09 -0)
(7.45895e-08 -1.01195e+09 -0)
(9.0129e-08 -1.01195e+09 -0)
(9.32369e-08 -1.01195e+09 -0)
(9.32369e-08 -1.01195e+09 -0)
(9.32369e-08 -1.01195e+09 -0)
(9.63448e-08 -1.01195e+09 -0)
(8.70211e-08 -1.01195e+09 -0)
(8.70211e-08 -1.01195e+09 -0)
(8.39132e-08 -1.01195e+09 -0)
(7.76974e-08 -1.01195e+09 -0)
(6.52658e-08 -1.01195e+09 -0)
(4.66184e-08 -1.01195e+09 -0)
(4.66184e-08 -1.01195e+09 -0)
(2.79711e-08 -1.01195e+09 -0)
(1.24316e-08 -1.01195e+09 -0)
(3.1079e-09 -1.01195e+09 -0)
(-9.32369e-09 -1.01195e+09 -0)
(-1.86474e-08 -1.01195e+09 -0)
(-2.17553e-08 -1.01195e+09 -0)
(-4.04027e-08 -1.01195e+09 -0)
(-4.66184e-08 -1.01195e+09 -0)
(-5.905e-08 -1.01195e+09 -0)
(-7.14816e-08 -1.01195e+09 -0)
(-8.08053e-08 -1.01195e+09 -0)
(-8.08053e-08 -1.01195e+09 -0)
(-8.39132e-08 -1.01195e+09 -0)
(-9.63448e-08 -1.01195e+09 -0)
(-1.05668e-07 -1.01195e+09 -0)
(-9.63448e-08 -1.01195e+09 -0)
(-9.63448e-08 -1.01195e+09 -0)
(-8.70211e-08 -1.01195e+09 -0)
(-8.39132e-08 -1.01195e+09 -0)
(-6.21579e-08 -1.01195e+09 -0)
(-4.66184e-08 -1.01195e+09 -0)
(-2.79711e-08 -1.01195e+09 -0)
(-0 -1.01195e+09 -0)
(2.79711e-08 -1.01195e+09 -0)
(7.76974e-08 -1.01195e+09 -0)
(1.49179e-07 -1.01195e+09 -0)
(2.57955e-07 -1.01195e+09 -0)
(3.79163e-07 -1.01195e+09 -0)
(9.35477e-07 -1.01195e+09 -0)
(2.27187e-06 -1.01195e+09 -0)
(4.55307e-06 -1.01195e+09 -0)
(9.71528e-06 -1.01195e+09 -0)
(6.69752e-06 -1.01195e+09 -0)
(-8.46186e-06 -2.18569e+08 -0)
(-1.28667e-05 -2.18569e+08 -0)
(-8.96844e-06 -2.18569e+08 -0)
(-6.39857e-06 -2.18569e+08 -0)
(-2.40898e-06 -2.18569e+08 -0)
(-1.03273e-06 -2.18569e+08 -0)
(-6.76166e-07 -2.18569e+08 -0)
(-3.73957e-07 -2.18569e+08 -0)
(-2.30462e-07 -2.18569e+08 -0)
(-1.0436e-07 -2.18569e+08 -0)
(-1.3045e-08 -2.18569e+08 -0)
(7.17475e-08 -2.18569e+08 -0)
(1.21753e-07 -2.18569e+08 -0)
(1.5654e-07 -2.18569e+08 -0)
(1.80456e-07 -2.18569e+08 -0)
(2.10894e-07 -2.18569e+08 -0)
(2.26113e-07 -2.18569e+08 -0)
(2.26113e-07 -2.18569e+08 -0)
(2.21765e-07 -2.18569e+08 -0)
(2.3481e-07 -2.18569e+08 -0)
(2.19591e-07 -2.18569e+08 -0)
(2.00023e-07 -2.18569e+08 -0)
(2.02197e-07 -2.18569e+08 -0)
(1.80456e-07 -2.18569e+08 -0)
(1.50017e-07 -2.18569e+08 -0)
(1.26102e-07 -2.18569e+08 -0)
(1.02186e-07 -2.18569e+08 -0)
(7.827e-08 -2.18569e+08 -0)
(4.34833e-08 -2.18569e+08 -0)
(2.17417e-09 -2.18569e+08 -0)
(-2.17417e-08 -2.18569e+08 -0)
(-4.34833e-08 -2.18569e+08 -0)
(-5.87025e-08 -2.18569e+08 -0)
(-9.56633e-08 -2.18569e+08 -0)
(-1.08708e-07 -2.18569e+08 -0)
(-1.43495e-07 -2.18569e+08 -0)
(-1.78282e-07 -2.18569e+08 -0)
(-1.91327e-07 -2.18569e+08 -0)
(-2.06546e-07 -2.18569e+08 -0)
(-2.10894e-07 -2.18569e+08 -0)
(-2.26113e-07 -2.18569e+08 -0)
(-2.41332e-07 -2.18569e+08 -0)
(-2.45681e-07 -2.18569e+08 -0)
(-2.30462e-07 -2.18569e+08 -0)
(-2.04372e-07 -2.18569e+08 -0)
(-1.80456e-07 -2.18569e+08 -0)
(-1.54366e-07 -2.18569e+08 -0)
(-1.10882e-07 -2.18569e+08 -0)
(-5.218e-08 -2.18569e+08 -0)
(1.73933e-08 -2.18569e+08 -0)
(8.91408e-08 -2.18569e+08 -0)
(2.19591e-07 -2.18569e+08 -0)
(3.80479e-07 -2.18569e+08 -0)
(6.84862e-07 -2.18569e+08 -0)
(1.01751e-06 -2.18569e+08 -0)
(2.39593e-06 -2.18569e+08 -0)
(6.38118e-06 -2.18569e+08 -0)
(8.94887e-06 -2.18569e+08 -0)
(1.28754e-05 -2.18569e+08 -0)
(8.46838e-06 -2.18569e+08 -0)
(8.08137e-07 -8.11679e+07 -0)
(-2.81223e-06 -8.11679e+07 -0)
(-8.87217e-06 -8.11679e+07 -0)
(-7.2884e-06 -8.11679e+07 -0)
(-2.69523e-06 -8.11679e+07 -0)
(-1.18296e-06 -8.11679e+07 -0)
(-7.71305e-07 -8.11679e+07 -0)
(-4.35484e-07 -8.11679e+07 -0)
(-2.70823e-07 -8.11679e+07 -0)
(-1.27829e-07 -8.11679e+07 -0)
(-2.81656e-08 -8.11679e+07 -0)
(6.06644e-08 -8.11679e+07 -0)
(1.25662e-07 -8.11679e+07 -0)
(1.58161e-07 -8.11679e+07 -0)
(1.9066e-07 -8.11679e+07 -0)
(2.23158e-07 -8.11679e+07 -0)
(2.38325e-07 -8.11679e+07 -0)
(2.38325e-07 -8.11679e+07 -0)
(2.36158e-07 -8.11679e+07 -0)
(2.46991e-07 -8.11679e+07 -0)
(2.33991e-07 -8.11679e+07 -0)
(2.14492e-07 -8.11679e+07 -0)
(2.20992e-07 -8.11679e+07 -0)
(1.88493e-07 -8.11679e+07 -0)
(1.60327e-07 -8.11679e+07 -0)
(1.38662e-07 -8.11679e+07 -0)
(1.08329e-07 -8.11679e+07 -0)
(8.44969e-08 -8.11679e+07 -0)
(4.11651e-08 -8.11679e+07 -0)
(6.49976e-09 -8.11679e+07 -0)
(-2.38325e-08 -8.11679e+07 -0)
(-5.19981e-08 -8.11679e+07 -0)
(-6.06644e-08 -8.11679e+07 -0)
(-9.31632e-08 -8.11679e+07 -0)
(-1.21329e-07 -8.11679e+07 -0)
(-1.53828e-07 -8.11679e+07 -0)
(-1.88493e-07 -8.11679e+07 -0)
(-2.01493e-07 -8.11679e+07 -0)
(-2.25325e-07 -8.11679e+07 -0)
(-2.27492e-07 -8.11679e+07 -0)
(-2.38325e-07 -8.11679e+07 -0)
(-2.55657e-07 -8.11679e+07 -0)
(-2.62157e-07 -8.11679e+07 -0)
(-2.40491e-07 -8.11679e+07 -0)
(-2.14492e-07 -8.11679e+07 -0)
(-1.8416e-07 -8.11679e+07 -0)
(-1.58161e-07 -8.11679e+07 -0)
(-1.08329e-07 -8.11679e+07 -0)
(-4.98315e-08 -8.11679e+07 -0)
(3.24988e-08 -8.11679e+07 -0)
(1.16996e-07 -8.11679e+07 -0)
(2.62157e-07 -8.11679e+07 -0)
(4.39817e-07 -8.11679e+07 -0)
(7.79971e-07 -8.11679e+07 -0)
(1.16129e-06 -8.11679e+07 -0)
(2.68007e-06 -8.11679e+07 -0)
(7.27107e-06 -8.11679e+07 -0)
(8.85484e-06 -8.11679e+07 -0)
(2.81223e-06 -8.11679e+07 -0)
(-8.0597e-07 -8.11679e+07 -0)
(9.74759e-06 -3.92317e+07 -0)
(8.78541e-06 -3.92317e+07 -0)
(-6.25158e-06 -3.92317e+07 -0)
(-7.2773e-06 -3.92317e+07 -0)
(-2.65831e-06 -3.92317e+07 -0)
(-1.1943e-06 -3.92317e+07 -0)
(-7.74153e-07 -3.92317e+07 -0)
(-4.44781e-07 -3.92317e+07 -0)
(-2.82689e-07 -3.92317e+07 -0)
(-1.42641e-07 -3.92317e+07 -0)
(-4.53859e-08 -3.92317e+07 -0)
(4.53859e-08 -3.92317e+07 -0)
(1.08926e-07 -3.92317e+07 -0)
(1.37454e-07 -3.92317e+07 -0)
(1.7117e-07 -3.92317e+07 -0)
(2.08775e-07 -3.92317e+07 -0)
(2.17852e-07 -3.92317e+07 -0)
(2.20446e-07 -3.92317e+07 -0)
(2.17852e-07 -3.92317e+07 -0)
(2.29523e-07 -3.92317e+07 -0)
(2.16555e-07 -3.92317e+07 -0)
(1.98401e-07 -3.92317e+07 -0)
(2.06182e-07 -3.92317e+07 -0)
(1.8284e-07 -3.92317e+07 -0)
(1.50422e-07 -3.92317e+07 -0)
(1.2708e-07 -3.92317e+07 -0)
(1.03739e-07 -3.92317e+07 -0)
(7.78043e-08 -3.92317e+07 -0)
(4.01989e-08 -3.92317e+07 -0)
(5.18696e-09 -3.92317e+07 -0)
(-2.20446e-08 -3.92317e+07 -0)
(-5.31663e-08 -3.92317e+07 -0)
(-5.70565e-08 -3.92317e+07 -0)
(-8.29913e-08 -3.92317e+07 -0)
(-1.12816e-07 -3.92317e+07 -0)
(-1.42641e-07 -3.92317e+07 -0)
(-1.76357e-07 -3.92317e+07 -0)
(-1.8673e-07 -3.92317e+07 -0)
(-2.10072e-07 -3.92317e+07 -0)
(-2.15259e-07 -3.92317e+07 -0)
(-2.20446e-07 -3.92317e+07 -0)
(-2.386e-07 -3.92317e+07 -0)
(-2.41193e-07 -3.92317e+07 -0)
(-2.23039e-07 -3.92317e+07 -0)
(-1.94511e-07 -3.92317e+07 -0)
(-1.62092e-07 -3.92317e+07 -0)
(-1.38751e-07 -3.92317e+07 -0)
(-9.59587e-08 -3.92317e+07 -0)
(-3.37152e-08 -3.92317e+07 -0)
(4.53859e-08 -3.92317e+07 -0)
(1.34861e-07 -3.92317e+07 -0)
(2.77502e-07 -3.92317e+07 -0)
(4.52562e-07 -3.92317e+07 -0)
(7.80637e-07 -3.92317e+07 -0)
(1.17355e-06 -3.92317e+07 -0)
(2.63886e-06 -3.92317e+07 -0)
(7.25915e-06 -3.92317e+07 -0)
(6.23602e-06 -3.92317e+07 -0)
(-8.78411e-06 -3.92317e+07 -0)
(-9.73981e-06 -3.92317e+07 -0)
(1.776e-05 -2.21993e+07 -0)
(2.02505e-05 -2.21993e+07 -0)
(-2.58027e-06 -2.21993e+07 -0)
(-6.91647e-06 -2.21993e+07 -0)
(-2.50874e-06 -2.21993e+07 -0)
(-1.16103e-06 -2.21993e+07 -0)
(-7.49306e-07 -2.21993e+07 -0)
(-4.38767e-07 -2.21993e+07 -0)
(-2.86115e-07 -2.21993e+07 -0)
(-1.49163e-07 -2.21993e+07 -0)
(-6.28057e-08 -2.21993e+07 -0)
(2.44244e-08 -2.21993e+07 -0)
(8.81024e-08 -2.21993e+07 -0)
(1.11655e-07 -2.21993e+07 -0)
(1.44802e-07 -2.21993e+07 -0)
(1.80566e-07 -2.21993e+07 -0)
(1.88417e-07 -2.21993e+07 -0)
(1.95395e-07 -2.21993e+07 -0)
(1.89289e-07 -2.21993e+07 -0)
(2.00629e-07 -2.21993e+07 -0)
(1.91034e-07 -2.21993e+07 -0)
(1.75332e-07 -2.21993e+07 -0)
(1.82311e-07 -2.21993e+07 -0)
(1.6312e-07 -2.21993e+07 -0)
(1.35207e-07 -2.21993e+07 -0)
(1.12527e-07 -2.21993e+07 -0)
(9.42085e-08 -2.21993e+07 -0)
(6.80395e-08 -2.21993e+07 -0)
(3.66366e-08 -2.21993e+07 -0)
(3.4892e-09 -2.21993e+07 -0)
(-2.09352e-08 -2.21993e+07 -0)
(-4.62319e-08 -2.21993e+07 -0)
(-4.97212e-08 -2.21993e+07 -0)
(-7.32733e-08 -2.21993e+07 -0)
(-9.68254e-08 -2.21993e+07 -0)
(-1.26484e-07 -2.21993e+07 -0)
(-1.57886e-07 -2.21993e+07 -0)
(-1.63993e-07 -2.21993e+07 -0)
(-1.84055e-07 -2.21993e+07 -0)
(-1.91034e-07 -2.21993e+07 -0)
(-1.92778e-07 -2.21993e+07 -0)
(-2.11969e-07 -2.21993e+07 -0)
(-2.11969e-07 -2.21993e+07 -0)
(-1.93651e-07 -2.21993e+07 -0)
(-1.67482e-07 -2.21993e+07 -0)
(-1.35207e-07 -2.21993e+07 -0)
(-1.14271e-07 -2.21993e+07 -0)
(-7.32733e-08 -2.21993e+07 -0)
(-1.30845e-08 -2.21993e+07 -0)
(6.01888e-08 -2.21993e+07 -0)
(1.43057e-07 -2.21993e+07 -0)
(2.78264e-07 -2.21993e+07 -0)
(4.4749e-07 -2.21993e+07 -0)
(7.58902e-07 -2.21993e+07 -0)
(1.1401e-06 -2.21993e+07 -0)
(2.48955e-06 -2.21993e+07 -0)
(6.89903e-06 -2.21993e+07 -0)
(2.56282e-06 -2.21993e+07 -0)
(-2.02505e-05 -2.21993e+07 -0)
(-1.77557e-05 -2.21993e+07 -0)
(2.51421e-05 -1.38699e+07 -0)
(3.12736e-05 -1.38699e+07 -0)
(1.43441e-06 -1.38699e+07 -0)
(-6.36797e-06 -1.38699e+07 -0)
(-2.30761e-06 -1.38699e+07 -0)
(-1.1053e-06 -1.38699e+07 -0)
(-7.10864e-07 -1.38699e+07 -0)
(-4.25504e-07 -1.38699e+07 -0)
(-2.80921e-07 -1.38699e+07 -0)
(-1.57899e-07 -1.38699e+07 -0)
(-7.67302e-08 -1.38699e+07 -0)
(3.17067e-09 -1.38699e+07 -0)
(6.1511e-08 -1.38699e+07 -0)
(8.49739e-08 -1.38699e+07 -0)
(1.17315e-07 -1.38699e+07 -0)
(1.46485e-07 -1.38699e+07 -0)
(1.57265e-07 -1.38699e+07 -0)
(1.64241e-07 -1.38699e+07 -0)
(1.54729e-07 -1.38699e+07 -0)
(1.69314e-07 -1.38699e+07 -0)
(1.63607e-07 -1.38699e+07 -0)
(1.5029e-07 -1.38699e+07 -0)
(1.56631e-07 -1.38699e+07 -0)
(1.40778e-07 -1.38699e+07 -0)
(1.14778e-07 -1.38699e+07 -0)
(9.57542e-08 -1.38699e+07 -0)
(8.0535e-08 -1.38699e+07 -0)
(6.08768e-08 -1.38699e+07 -0)
(2.91702e-08 -1.38699e+07 -0)
(1.9024e-09 -1.38699e+07 -0)
(-1.96581e-08 -1.38699e+07 -0)
(-3.93163e-08 -1.38699e+07 -0)
(-3.86822e-08 -1.38699e+07 -0)
(-5.89744e-08 -1.38699e+07 -0)
(-8.11691e-08 -1.38699e+07 -0)
(-1.09071e-07 -1.38699e+07 -0)
(-1.36339e-07 -1.38699e+07 -0)
(-1.36973e-07 -1.38699e+07 -0)
(-1.54729e-07 -1.38699e+07 -0)
(-1.63607e-07 -1.38699e+07 -0)
(-1.62972e-07 -1.38699e+07 -0)
(-1.80094e-07 -1.38699e+07 -0)
(-1.81362e-07 -1.38699e+07 -0)
(-1.60436e-07 -1.38699e+07 -0)
(-1.34436e-07 -1.38699e+07 -0)
(-1.06534e-07 -1.38699e+07 -0)
(-8.56081e-08 -1.38699e+07 -0)
(-4.88283e-08 -1.38699e+07 -0)
(6.97547e-09 -1.38699e+07 -0)
(7.6096e-08 -1.38699e+07 -0)
(1.5029e-07 -1.38699e+07 -0)
(2.76482e-07 -1.38699e+07 -0)
(4.33113e-07 -1.38699e+07 -0)
(7.2101e-07 -1.38699e+07 -0)
(1.08627e-06 -1.38699e+07 -0)
(2.28605e-06 -1.38699e+07 -0)
(6.35212e-06 -1.38699e+07 -0)
(-1.4528e-06 -1.38699e+07 -0)
(-3.12742e-05 -1.38699e+07 -0)
(-2.51364e-05 -1.38699e+07 -0)
(3.17035e-05 -9.19976e+06 -0)
(4.13258e-05 -9.19976e+06 -0)
(5.41284e-06 -9.19976e+06 -0)
(-5.67424e-06 -9.19976e+06 -0)
(-2.06406e-06 -9.19976e+06 -0)
(-1.03106e-06 -9.19976e+06 -0)
(-6.61236e-07 -9.19976e+06 -0)
(-4.05649e-07 -9.19976e+06 -0)
(-2.73982e-07 -9.19976e+06 -0)
(-1.6071e-07 -9.19976e+06 -0)
(-8.81003e-08 -9.19976e+06 -0)
(-1.74264e-08 -9.19976e+06 -0)
(3.87254e-08 -9.19976e+06 -0)
(5.42156e-08 -9.19976e+06 -0)
(8.22915e-08 -9.19976e+06 -0)
(1.15208e-07 -9.19976e+06 -0)
(1.24889e-07 -9.19976e+06 -0)
(1.28762e-07 -9.19976e+06 -0)
(1.22953e-07 -9.19976e+06 -0)
(1.35539e-07 -9.19976e+06 -0)
(1.32635e-07 -9.19976e+06 -0)
(1.20049e-07 -9.19976e+06 -0)
(1.2973e-07 -9.19976e+06 -0)
(1.16176e-07 -9.19976e+06 -0)
(9.39091e-08 -9.19976e+06 -0)
(7.93871e-08 -9.19976e+06 -0)
(6.48651e-08 -9.19976e+06 -0)
(5.13112e-08 -9.19976e+06 -0)
(2.51715e-08 -9.19976e+06 -0)
(-0 -9.19976e+06 -0)
(-1.93627e-08 -9.19976e+06 -0)
(-3.19485e-08 -9.19976e+06 -0)
(-3.00122e-08 -9.19976e+06 -0)
(-4.35661e-08 -9.19976e+06 -0)
(-6.58332e-08 -9.19976e+06 -0)
(-8.90685e-08 -9.19976e+06 -0)
(-1.10367e-07 -9.19976e+06 -0)
(-1.09399e-07 -9.19976e+06 -0)
(-1.23921e-07 -9.19976e+06 -0)
(-1.33603e-07 -9.19976e+06 -0)
(-1.2973e-07 -9.19976e+06 -0)
(-1.49093e-07 -9.19976e+06 -0)
(-1.4522e-07 -9.19976e+06 -0)
(-1.23921e-07 -9.19976e+06 -0)
(-1.0359e-07 -9.19976e+06 -0)
(-7.35783e-08 -9.19976e+06 -0)
(-5.61519e-08 -9.19976e+06 -0)
(-2.51715e-08 -9.19976e+06 -0)
(2.51715e-08 -9.19976e+06 -0)
(8.6164e-08 -9.19976e+06 -0)
(1.54902e-07 -9.19976e+06 -0)
(2.71078e-07 -9.19976e+06 -0)
(4.14362e-07 -9.19976e+06 -0)
(6.68982e-07 -9.19976e+06 -0)
(1.01461e-06 -9.19976e+06 -0)
(2.0447e-06 -9.19976e+06 -0)
(5.65778e-06 -9.19976e+06 -0)
(-5.43027e-06 -9.19976e+06 -0)
(-4.13287e-05 -9.19976e+06 -0)
(-3.16997e-05 -9.19976e+06 -0)
(3.68962e-05 -6.30076e+06 -0)
(4.95292e-05 -6.30076e+06 -0)
(9.01966e-06 -6.30076e+06 -0)
(-4.84839e-06 -6.30076e+06 -0)
(-1.78541e-06 -6.30076e+06 -0)
(-9.34455e-07 -6.30076e+06 -0)
(-5.99691e-07 -6.30076e+06 -0)
(-3.77274e-07 -6.30076e+06 -0)
(-2.60372e-07 -6.30076e+06 -0)
(-1.61689e-07 -6.30076e+06 -0)
(-9.86833e-08 -6.30076e+06 -0)
(-3.49187e-08 -6.30076e+06 -0)
(1.36638e-08 -6.30076e+06 -0)
(2.73277e-08 -6.30076e+06 -0)
(5.1619e-08 -6.30076e+06 -0)
(8.1224e-08 -6.30076e+06 -0)
(9.03332e-08 -6.30076e+06 -0)
(9.71651e-08 -6.30076e+06 -0)
(8.8815e-08 -6.30076e+06 -0)
(1.02479e-07 -6.30076e+06 -0)
(1.00202e-07 -6.30076e+06 -0)
(8.95741e-08 -6.30076e+06 -0)
(1.03238e-07 -6.30076e+06 -0)
(9.03332e-08 -6.30076e+06 -0)
(7.28738e-08 -6.30076e+06 -0)
(6.14873e-08 -6.30076e+06 -0)
(5.1619e-08 -6.30076e+06 -0)
(4.09915e-08 -6.30076e+06 -0)
(1.74594e-08 -6.30076e+06 -0)
(-4.55462e-09 -6.30076e+06 -0)
(-1.29047e-08 -6.30076e+06 -0)
(-2.58095e-08 -6.30076e+06 -0)
(-2.12549e-08 -6.30076e+06 -0)
(-3.03641e-08 -6.30076e+06 -0)
(-4.70644e-08 -6.30076e+06 -0)
(-6.52828e-08 -6.30076e+06 -0)
(-8.57786e-08 -6.30076e+06 -0)
(-8.42604e-08 -6.30076e+06 -0)
(-9.48878e-08 -6.30076e+06 -0)
(-1.00202e-07 -6.30076e+06 -0)
(-9.71651e-08 -6.30076e+06 -0)
(-1.15384e-07 -6.30076e+06 -0)
(-1.11588e-07 -6.30076e+06 -0)
(-8.95741e-08 -6.30076e+06 -0)
(-6.90783e-08 -6.30076e+06 -0)
(-4.32688e-08 -6.30076e+06 -0)
(-2.9605e-08 -6.30076e+06 -0)
(-1.51821e-09 -6.30076e+06 -0)
(4.25097e-08 -6.30076e+06 -0)
(9.71651e-08 -6.30076e+06 -0)
(1.57134e-07 -6.30076e+06 -0)
(2.58854e-07 -6.30076e+06 -0)
(3.87142e-07 -6.30076e+06 -0)
(6.05005e-07 -6.30076e+06 -0)
(9.20791e-07 -6.30076e+06 -0)
(1.76491e-06 -6.30076e+06 -0)
(4.83093e-06 -6.30076e+06 -0)
(-9.0356e-06 -6.30076e+06 -0)
(-4.95322e-05 -6.30076e+06 -0)
(-3.68924e-05 -6.30076e+06 -0)
(4.0106e-05 -4.3728e+06 -0)
(5.49612e-05 -4.3728e+06 -0)
(1.1914e-05 -4.3728e+06 -0)
(-3.92903e-06 -4.3728e+06 -0)
(-1.47572e-06 -4.3728e+06 -0)
(-8.21179e-07 -4.3728e+06 -0)
(-5.29405e-07 -4.3728e+06 -0)
(-3.4291e-07 -4.3728e+06 -0)
(-2.40037e-07 -4.3728e+06 -0)
(-1.57017e-07 -4.3728e+06 -0)
(-1.04678e-07 -4.3728e+06 -0)
(-4.99325e-08 -4.3728e+06 -0)
(-7.82075e-09 -4.3728e+06 -0)
(1.80479e-09 -4.3728e+06 -0)
(2.5267e-08 -4.3728e+06 -0)
(5.05341e-08 -4.3728e+06 -0)
(5.83549e-08 -4.3728e+06 -0)
(6.37692e-08 -4.3728e+06 -0)
(5.71517e-08 -4.3728e+06 -0)
(7.09884e-08 -4.3728e+06 -0)
(6.91836e-08 -4.3728e+06 -0)
(6.31676e-08 -4.3728e+06 -0)
(7.58011e-08 -4.3728e+06 -0)
(6.61756e-08 -4.3728e+06 -0)
(5.23389e-08 -4.3728e+06 -0)
(4.39165e-08 -4.3728e+06 -0)
(3.85022e-08 -4.3728e+06 -0)
(3.06814e-08 -4.3728e+06 -0)
(1.08287e-08 -4.3728e+06 -0)
(-5.41437e-09 -4.3728e+06 -0)
(-1.08287e-08 -4.3728e+06 -0)
(-1.74463e-08 -4.3728e+06 -0)
(-1.38367e-08 -4.3728e+06 -0)
(-1.86495e-08 -4.3728e+06 -0)
(-2.8275e-08 -4.3728e+06 -0)
(-4.69245e-08 -4.3728e+06 -0)
(-6.2566e-08 -4.3728e+06 -0)
(-5.71517e-08 -4.3728e+06 -0)
(-6.5574e-08 -4.3728e+06 -0)
(-7.159e-08 -4.3728e+06 -0)
(-6.67772e-08 -4.3728e+06 -0)
(-8.12155e-08 -4.3728e+06 -0)
(-7.76059e-08 -4.3728e+06 -0)
(-5.71517e-08 -4.3728e+06 -0)
(-3.66974e-08 -4.3728e+06 -0)
(-1.68447e-08 -4.3728e+06 -0)
(-6.01596e-09 -4.3728e+06 -0)
(1.92511e-08 -4.3728e+06 -0)
(5.59485e-08 -4.3728e+06 -0)
(1.02873e-07 -4.3728e+06 -0)
(1.53407e-07 -4.3728e+06 -0)
(2.39435e-07 -4.3728e+06 -0)
(3.51332e-07 -4.3728e+06 -0)
(5.34819e-07 -4.3728e+06 -0)
(8.07944e-07 -4.3728e+06 -0)
(1.45767e-06 -4.3728e+06 -0)
(3.91459e-06 -4.3728e+06 -0)
(-1.19285e-05 -4.3728e+06 -0)
(-5.49679e-05 -4.3728e+06 -0)
(-4.0106e-05 -4.3728e+06 -0)
(4.09812e-05 -3.04044e+06 -0)
(5.70456e-05 -3.04044e+06 -0)
(1.38319e-05 -3.04044e+06 -0)
(-2.97623e-06 -3.04044e+06 -0)
(-1.16084e-06 -3.04044e+06 -0)
(-6.97934e-07 -3.04044e+06 -0)
(-4.50034e-07 -3.04044e+06 -0)
(-3.00817e-07 -3.04044e+06 -0)
(-2.16436e-07 -3.04044e+06 -0)
(-1.49217e-07 -3.04044e+06 -0)
(-1.04881e-07 -3.04044e+06 -0)
(-5.91146e-08 -3.04044e+06 -0)
(-2.52667e-08 -3.04044e+06 -0)
(-1.85925e-08 -3.04044e+06 -0)
(3.33712e-09 -3.04044e+06 -0)
(2.57435e-08 -3.04044e+06 -0)
(2.95573e-08 -3.04044e+06 -0)
(3.57548e-08 -3.04044e+06 -0)
(2.86039e-08 -3.04044e+06 -0)
(4.19523e-08 -3.04044e+06 -0)
(4.48127e-08 -3.04044e+06 -0)
(3.76617e-08 -3.04044e+06 -0)
(5.10102e-08 -3.04044e+06 -0)
(4.33825e-08 -3.04044e+06 -0)
(3.48014e-08 -3.04044e+06 -0)
(2.95573e-08 -3.04044e+06 -0)
(2.479e-08 -3.04044e+06 -0)
(2.14529e-08 -3.04044e+06 -0)
(5.72077e-09 -3.04044e+06 -0)
(-6.1975e-09 -3.04044e+06 -0)
(-6.67423e-09 -3.04044e+06 -0)
(-1.2395e-08 -3.04044e+06 -0)
(-6.1975e-09 -3.04044e+06 -0)
(-6.67423e-09 -3.04044e+06 -0)
(-1.52554e-08 -3.04044e+06 -0)
(-2.81271e-08 -3.04044e+06 -0)
(-4.14756e-08 -3.04044e+06 -0)
(-3.43246e-08 -3.04044e+06 -0)
(-4.05221e-08 -3.04044e+06 -0)
(-4.52894e-08 -3.04044e+06 -0)
(-3.95687e-08 -3.04044e+06 -0)
(-5.24404e-08 -3.04044e+06 -0)
(-4.81498e-08 -3.04044e+06 -0)
(-2.86039e-08 -3.04044e+06 -0)
(-1.14415e-08 -3.04044e+06 -0)
(7.15097e-09 -3.04044e+06 -0)
(1.38252e-08 -3.04044e+06 -0)
(3.43246e-08 -3.04044e+06 -0)
(6.48354e-08 -3.04044e+06 -0)
(1.01544e-07 -3.04044e+06 -0)
(1.44926e-07 -3.04044e+06 -0)
(2.16913e-07 -3.04044e+06 -0)
(3.10352e-07 -3.04044e+06 -0)
(4.55755e-07 -3.04044e+06 -0)
(6.85539e-07 -3.04044e+06 -0)
(1.14558e-06 -3.04044e+06 -0)
(2.96336e-06 -3.04044e+06 -0)
(-1.38462e-05 -3.04044e+06 -0)
(-5.70518e-05 -3.04044e+06 -0)
(-4.09788e-05 -3.04044e+06 -0)
(3.95768e-05 -2.10658e+06 -0)
(5.57996e-05 -2.10658e+06 -0)
(1.46723e-05 -2.10658e+06 -0)
(-2.0689e-06 -2.10658e+06 -0)
(-8.61949e-07 -2.10658e+06 -0)
(-5.71004e-07 -2.10658e+06 -0)
(-3.7241e-07 -2.10658e+06 -0)
(-2.55657e-07 -2.10658e+06 -0)
(-1.88833e-07 -2.10658e+06 -0)
(-1.359e-07 -2.10658e+06 -0)
(-1.00986e-07 -2.10658e+06 -0)
(-6.34449e-08 -2.10658e+06 -0)
(-3.56643e-08 -2.10658e+06 -0)
(-3.19101e-08 -2.10658e+06 -0)
(-1.38903e-08 -2.10658e+06 -0)
(4.12955e-09 -2.10658e+06 -0)
(9.00992e-09 -2.10658e+06 -0)
(1.38903e-08 -2.10658e+06 -0)
(7.88368e-09 -2.10658e+06 -0)
(1.95215e-08 -2.10658e+06 -0)
(2.1774e-08 -2.10658e+06 -0)
(1.83953e-08 -2.10658e+06 -0)
(3.11593e-08 -2.10658e+06 -0)
(2.55281e-08 -2.10658e+06 -0)
(1.95215e-08 -2.10658e+06 -0)
(1.65182e-08 -2.10658e+06 -0)
(1.50165e-08 -2.10658e+06 -0)
(1.5392e-08 -2.10658e+06 -0)
(1.87707e-09 -2.10658e+06 -0)
(-7.88368e-09 -2.10658e+06 -0)
(-5.25579e-09 -2.10658e+06 -0)
(-7.50827e-09 -2.10658e+06 -0)
(-0 -2.10658e+06 -0)
(1.87707e-09 -2.10658e+06 -0)
(-3.75413e-09 -2.10658e+06 -0)
(-1.42657e-08 -2.10658e+06 -0)
(-2.40265e-08 -2.10658e+06 -0)
(-1.65182e-08 -2.10658e+06 -0)
(-2.02723e-08 -2.10658e+06 -0)
(-2.21494e-08 -2.10658e+06 -0)
(-1.87707e-08 -2.10658e+06 -0)
(-2.96577e-08 -2.10658e+06 -0)
(-2.40265e-08 -2.10658e+06 -0)
(-6.38203e-09 -2.10658e+06 -0)
(7.88368e-09 -2.10658e+06 -0)
(2.29002e-08 -2.10658e+06 -0)
(2.8156e-08 -2.10658e+06 -0)
(4.24217e-08 -2.10658e+06 -0)
(6.94515e-08 -2.10658e+06 -0)
(9.76075e-08 -2.10658e+06 -0)
(1.31019e-07 -2.10658e+06 -0)
(1.91085e-07 -2.10658e+06 -0)
(2.65417e-07 -2.10658e+06 -0)
(3.75414e-07 -2.10658e+06 -0)
(5.60492e-07 -2.10658e+06 -0)
(8.49561e-07 -2.10658e+06 -0)
(2.05652e-06 -2.10658e+06 -0)
(-1.46854e-05 -2.10658e+06 -0)
(-5.58041e-05 -2.10658e+06 -0)
(-3.95757e-05 -2.10658e+06 -0)
(3.63503e-05 -1.45318e+06 -0)
(5.18219e-05 -1.45318e+06 -0)
(1.45295e-05 -1.45318e+06 -0)
(-1.27123e-06 -1.45318e+06 -0)
(-6.00743e-07 -1.45318e+06 -0)
(-4.50411e-07 -1.45318e+06 -0)
(-2.98027e-07 -1.45318e+06 -0)
(-2.12458e-07 -1.45318e+06 -0)
(-1.60589e-07 -1.45318e+06 -0)
(-1.19856e-07 -1.45318e+06 -0)
(-9.23094e-08 -1.45318e+06 -0)
(-6.4177e-08 -1.45318e+06 -0)
(-4.16125e-08 -1.45318e+06 -0)
(-3.92681e-08 -1.45318e+06 -0)
(-2.40297e-08 -1.45318e+06 -0)
(-9.08441e-09 -1.45318e+06 -0)
(-7.03309e-09 -1.45318e+06 -0)
(-2.93046e-10 -1.45318e+06 -0)
(-6.74005e-09 -1.45318e+06 -0)
(2.93046e-09 -1.45318e+06 -0)
(7.61919e-09 -1.45318e+06 -0)
(4.10264e-09 -1.45318e+06 -0)
(1.52384e-08 -1.45318e+06 -0)
(1.20149e-08 -1.45318e+06 -0)
(8.20528e-09 -1.45318e+06 -0)
(6.74005e-09 -1.45318e+06 -0)
(7.61919e-09 -1.45318e+06 -0)
(9.6705e-09 -1.45318e+06 -0)
(-5.86091e-10 -1.45318e+06 -0)
(-8.49832e-09 -1.45318e+06 -0)
(-3.80959e-09 -1.45318e+06 -0)
(-4.10264e-09 -1.45318e+06 -0)
(4.10264e-09 -1.45318e+06 -0)
(7.32614e-09 -1.45318e+06 -0)
(3.80959e-09 -1.45318e+06 -0)
(-3.80959e-09 -1.45318e+06 -0)
(-9.6705e-09 -1.45318e+06 -0)
(-3.80959e-09 -1.45318e+06 -0)
(-6.447e-09 -1.45318e+06 -0)
(-6.74005e-09 -1.45318e+06 -0)
(-3.80959e-09 -1.45318e+06 -0)
(-1.11357e-08 -1.45318e+06 -0)
(-6.15396e-09 -1.45318e+06 -0)
(7.91223e-09 -1.45318e+06 -0)
(1.99271e-08 -1.45318e+06 -0)
(3.31142e-08 -1.45318e+06 -0)
(3.60446e-08 -1.45318e+06 -0)
(4.74734e-08 -1.45318e+06 -0)
(6.82796e-08 -1.45318e+06 -0)
(8.93789e-08 -1.45318e+06 -0)
(1.16046e-07 -1.45318e+06 -0)
(1.61468e-07 -1.45318e+06 -0)
(2.20956e-07 -1.45318e+06 -0)
(3.01837e-07 -1.45318e+06 -0)
(4.41327e-07 -1.45318e+06 -0)
(5.89315e-07 -1.45318e+06 -0)
(1.2601e-06 -1.45318e+06 -0)
(-1.454e-05 -1.45318e+06 -0)
(-5.1826e-05 -1.45318e+06 -0)
(-3.63491e-05 -1.45318e+06 -0)
(3.19936e-05 -1.00045e+06 -0)
(4.6074e-05 -1.00045e+06 -0)
(1.36351e-05 -1.00045e+06 -0)
(-6.22254e-07 -1.00045e+06 -0)
(-3.84967e-07 -1.00045e+06 -0)
(-3.44134e-07 -1.00045e+06 -0)
(-2.3275e-07 -1.00045e+06 -0)
(-1.72407e-07 -1.00045e+06 -0)
(-1.32481e-07 -1.00045e+06 -0)
(-1.01856e-07 -1.00045e+06 -0)
(-8.21203e-08 -1.00045e+06 -0)
(-6.07962e-08 -1.00045e+06 -0)
(-4.2875e-08 -1.00045e+06 -0)
(-4.15139e-08 -1.00045e+06 -0)
(-2.88102e-08 -1.00045e+06 -0)
(-1.74676e-08 -1.00045e+06 -0)
(-1.61065e-08 -1.00045e+06 -0)
(-1.04352e-08 -1.00045e+06 -0)
(-1.51991e-08 -1.00045e+06 -0)
(-6.80555e-09 -1.00045e+06 -0)
(-3.85648e-09 -1.00045e+06 -0)
(-4.08333e-09 -1.00045e+06 -0)
(4.53703e-09 -1.00045e+06 -0)
(2.26852e-09 -1.00045e+06 -0)
(1.81481e-09 -1.00045e+06 -0)
(1.36111e-09 -1.00045e+06 -0)
(2.26852e-09 -1.00045e+06 -0)
(4.76388e-09 -1.00045e+06 -0)
(-1.58796e-09 -1.00045e+06 -0)
(-8.39351e-09 -1.00045e+06 -0)
(-3.85648e-09 -1.00045e+06 -0)
(-2.26852e-10 -1.00045e+06 -0)
(6.5787e-09 -1.00045e+06 -0)
(1.04352e-08 -1.00045e+06 -0)
(8.62036e-09 -1.00045e+06 -0)
(2.72222e-09 -1.00045e+06 -0)
(-2.04167e-09 -1.00045e+06 -0)
(4.76388e-09 -1.00045e+06 -0)
(3.85648e-09 -1.00045e+06 -0)
(3.17592e-09 -1.00045e+06 -0)
(6.80555e-09 -1.00045e+06 -0)
(2.26852e-10 -1.00045e+06 -0)
(4.31018e-09 -1.00045e+06 -0)
(1.70139e-08 -1.00045e+06 -0)
(2.67685e-08 -1.00045e+06 -0)
(3.69768e-08 -1.00045e+06 -0)
(3.83379e-08 -1.00045e+06 -0)
(4.71851e-08 -1.00045e+06 -0)
(6.32916e-08 -1.00045e+06 -0)
(7.89444e-08 -1.00045e+06 -0)
(9.9361e-08 -1.00045e+06 -0)
(1.34523e-07 -1.00045e+06 -0)
(1.79667e-07 -1.00045e+06 -0)
(2.35472e-07 -1.00045e+06 -0)
(3.36875e-07 -1.00045e+06 -0)
(3.75666e-07 -1.00045e+06 -0)
(6.13634e-07 -1.00045e+06 -0)
(-1.36438e-05 -1.00045e+06 -0)
(-4.60779e-05 -1.00045e+06 -0)
(-3.19927e-05 -1.00045e+06 -0)
(2.72171e-05 -690397 -0)
(3.95742e-05 -690397 -0)
(1.22864e-05 -690397 -0)
(-1.3515e-07 -690397 -0)
(-2.17392e-07 -690397 -0)
(-2.55632e-07 -690397 -0)
(-1.78104e-07 -690397 -0)
(-1.37245e-07 -690397 -0)
(-1.0791e-07 -690397 -0)
(-8.48614e-08 -690397 -0)
(-7.03686e-08 -690397 -0)
(-5.44789e-08 -690397 -0)
(-4.06846e-08 -690397 -0)
(-4.06846e-08 -690397 -0)
(-3.02079e-08 -690397 -0)
(-2.0255e-08 -690397 -0)
(-2.04296e-08 -690397 -0)
(-1.58897e-08 -690397 -0)
(-1.86835e-08 -690397 -0)
(-1.29213e-08 -690397 -0)
(-9.07982e-09 -690397 -0)
(-9.42905e-09 -690397 -0)
(-1.22228e-09 -690397 -0)
(-2.44457e-09 -690397 -0)
(-2.9684e-09 -690397 -0)
(-2.61918e-09 -690397 -0)
(-8.7306e-10 -690397 -0)
(1.92073e-09 -690397 -0)
(-2.61918e-09 -690397 -0)
(-7.15909e-09 -690397 -0)
(-2.26996e-09 -690397 -0)
(1.74612e-09 -690397 -0)
(6.98448e-09 -690397 -0)
(1.06513e-08 -690397 -0)
(1.10006e-08 -690397 -0)
(6.80987e-09 -690397 -0)
(3.49224e-09 -690397 -0)
(8.7306e-09 -690397 -0)
(8.7306e-09 -690397 -0)
(8.90521e-09 -690397 -0)
(1.1699e-08 -690397 -0)
(7.50832e-09 -690397 -0)
(1.08259e-08 -690397 -0)
(2.06042e-08 -690397 -0)
(2.86364e-08 -690397 -0)
(3.68431e-08 -690397 -0)
(3.78908e-08 -690397 -0)
(4.38276e-08 -690397 -0)
(5.62251e-08 -690397 -0)
(6.80987e-08 -690397 -0)
(8.27661e-08 -690397 -0)
(1.09831e-07 -690397 -0)
(1.43531e-07 -690397 -0)
(1.802e-07 -690397 -0)
(2.48997e-07 -690397 -0)
(2.10233e-07 -690397 -0)
(1.27467e-07 -690397 -0)
(-1.2293e-05 -690397 -0)
(-3.95776e-05 -690397 -0)
(-2.72168e-05 -690397 -0)
(2.2587e-05 -480085 -0)
(3.31504e-05 -480085 -0)
(1.07563e-05 -480085 -0)
(2.07045e-07 -480085 -0)
(-9.4331e-08 -480085 -0)
(-1.84502e-07 -480085 -0)
(-1.34586e-07 -480085 -0)
(-1.07883e-07 -480085 -0)
(-8.68167e-08 -480085 -0)
(-6.99096e-08 -480085 -0)
(-5.94433e-08 -480085 -0)
(-4.72326e-08 -480085 -0)
(-3.71688e-08 -480085 -0)
(-3.66321e-08 -480085 -0)
(-2.87153e-08 -480085 -0)
(-2.1201e-08 -480085 -0)
(-2.10668e-08 -480085 -0)
(-1.69071e-08 -480085 -0)
(-2.03959e-08 -480085 -0)
(-1.4626e-08 -480085 -0)
(-1.14056e-08 -480085 -0)
(-1.18081e-08 -480085 -0)
(-4.8306e-09 -480085 -0)
(-5.36734e-09 -480085 -0)
(-4.8306e-09 -480085 -0)
(-3.48877e-09 -480085 -0)
(-3.2204e-09 -480085 -0)
(-1.34183e-10 -480085 -0)
(-2.14694e-09 -480085 -0)
(-6.70917e-09 -480085 -0)
(-2.14694e-09 -480085 -0)
(2.4153e-09 -480085 -0)
(7.11172e-09 -480085 -0)
(1.08689e-08 -480085 -0)
(1.18081e-08 -480085 -0)
(8.31937e-09 -480085 -0)
(6.03826e-09 -480085 -0)
(1.03321e-08 -480085 -0)
(1.14056e-08 -480085 -0)
(1.11372e-08 -480085 -0)
(1.36867e-08 -480085 -0)
(1.14056e-08 -480085 -0)
(1.30158e-08 -480085 -0)
(2.10668e-08 -480085 -0)
(2.83127e-08 -480085 -0)
(3.42168e-08 -480085 -0)
(3.47535e-08 -480085 -0)
(3.89132e-08 -480085 -0)
(4.84402e-08 -480085 -0)
(5.71621e-08 -480085 -0)
(6.87019e-08 -480085 -0)
(8.88294e-08 -480085 -0)
(1.12848e-07 -480085 -0)
(1.35928e-07 -480085 -0)
(1.79001e-07 -480085 -0)
(8.85611e-08 -480085 -0)
(-2.12144e-07 -480085 -0)
(-1.07627e-05 -480085 -0)
(-3.31536e-05 -480085 -0)
(-2.2586e-05 -480085 -0)
(1.84519e-05 -338135 -0)
(2.73363e-05 -338135 -0)
(9.24821e-06 -338135 -0)
(4.30171e-07 -338135 -0)
(-7.65392e-09 -338135 -0)
(-1.28979e-07 -338135 -0)
(-1.00432e-07 -338135 -0)
(-8.38828e-08 -338135 -0)
(-6.97127e-08 -338135 -0)
(-5.74044e-08 -338135 -0)
(-4.90265e-08 -338135 -0)
(-4.03382e-08 -338135 -0)
(-3.24774e-08 -338135 -0)
(-3.21671e-08 -338135 -0)
(-2.64784e-08 -338135 -0)
(-2.00657e-08 -338135 -0)
(-1.98588e-08 -338135 -0)
(-1.68593e-08 -338135 -0)
(-1.89279e-08 -338135 -0)
(-1.46873e-08 -338135 -0)
(-1.22049e-08 -338135 -0)
(-1.1998e-08 -338135 -0)
(-6.30931e-09 -338135 -0)
(-6.82647e-09 -338135 -0)
(-5.48186e-09 -338135 -0)
(-4.65441e-09 -338135 -0)
(-3.72353e-09 -338135 -0)
(-8.27451e-10 -338135 -0)
(-2.06863e-09 -338135 -0)
(-5.99902e-09 -338135 -0)
(-1.34461e-09 -338135 -0)
(2.89608e-09 -338135 -0)
(6.82647e-09 -338135 -0)
(9.92941e-09 -338135 -0)
(1.08603e-08 -338135 -0)
(8.8951e-09 -338135 -0)
(7.03333e-09 -338135 -0)
(1.04466e-08 -338135 -0)
(1.17912e-08 -338135 -0)
(1.17912e-08 -338135 -0)
(1.34461e-08 -338135 -0)
(1.15843e-08 -338135 -0)
(1.44804e-08 -338135 -0)
(2.0376e-08 -338135 -0)
(2.54441e-08 -338135 -0)
(3.07191e-08 -338135 -0)
(3.03054e-08 -338135 -0)
(3.37186e-08 -338135 -0)
(4.1476e-08 -338135 -0)
(4.79921e-08 -338135 -0)
(5.61632e-08 -338135 -0)
(7.06436e-08 -338135 -0)
(8.85372e-08 -338135 -0)
(1.0157e-07 -338135 -0)
(1.24635e-07 -338135 -0)
(2.79265e-09 -338135 -0)
(-4.35136e-07 -338135 -0)
(-9.25276e-06 -338135 -0)
(-2.7338e-05 -338135 -0)
(-1.84513e-05 -338135 -0)
(1.49604e-05 -242241 -0)
(2.23742e-05 -242241 -0)
(7.88056e-06 -242241 -0)
(5.66472e-07 -242241 -0)
(5.26147e-08 -242241 -0)
(-8.6754e-08 -242241 -0)
(-7.47048e-08 -242241 -0)
(-6.54671e-08 -242241 -0)
(-5.56672e-08 -242241 -0)
(-4.66704e-08 -242241 -0)
(-4.04852e-08 -242241 -0)
(-3.39787e-08 -242241 -0)
(-2.76328e-08 -242241 -0)
(-2.79541e-08 -242241 -0)
(-2.33754e-08 -242241 -0)
(-1.83951e-08 -242241 -0)
(-1.79934e-08 -242241 -0)
(-1.57442e-08 -242241 -0)
(-1.72705e-08 -242241 -0)
(-1.37361e-08 -242241 -0)
(-1.14869e-08 -242241 -0)
(-1.13262e-08 -242241 -0)
(-6.98852e-09 -242241 -0)
(-6.82786e-09 -242241 -0)
(-5.46229e-09 -242241 -0)
(-4.25737e-09 -242241 -0)
(-3.93606e-09 -242241 -0)
(-1.28524e-09 -242241 -0)
(-2.00819e-09 -242241 -0)
(-4.98032e-09 -242241 -0)
(-1.04426e-09 -242241 -0)
(2.57049e-09 -242241 -0)
(6.02458e-09 -242241 -0)
(9.2377e-09 -242241 -0)
(9.71966e-09 -242241 -0)
(8.03278e-09 -242241 -0)
(7.06884e-09 -242241 -0)