/*--------------------------------*- C++ -*----------------------------------*\
| =========                 |                                                 |
| \\      /  F ield         | foam-extend: Open Source CFD                    |
|  \\    /   O peration     | Version:     4.0                                |
|   \\  /    A nd           | Web:         http://www.foam-extend.org         |
|    \\/     M anipulation  |                                                 |
\*---------------------------------------------------------------------------*/
FoamFile
{
    version     2.0;
    format      ascii;
    class       volScalarField;
    location    "3";
    object      p;
}
// * * * * * * * * * * * * * * * * * * * * * * * * * * * * * * * * * * * * * //

dimensions      [0 2 -2 0 0 0 0];

internalField   nonuniform List<scalar> 
6960
(
6.86061e-08
1.09118e-07
1.05223e-07
1.12281e-07
1.09323e-07
1.05361e-07
1.07723e-07
1.0657e-07
1.0611e-07
1.04424e-07
1.03835e-07
1.04809e-07
1.05059e-07
1.05303e-07
1.05887e-07
1.0595e-07
1.06173e-07
1.05498e-07
1.04547e-07
1.0392e-07
1.03281e-07
1.02913e-07
1.02431e-07
1.0223e-07
1.02363e-07
1.02255e-07
1.0213e-07
1.02016e-07
1.02034e-07
1.02339e-07
1.02283e-07
1.02404e-07
1.02179e-07
1.01611e-07
1.01234e-07
1.00113e-07
9.98042e-08
9.92893e-08
9.9312e-08
1.00316e-07
1.00516e-07
1.02119e-07
1.02526e-07
1.03033e-07
1.03483e-07
1.02206e-07
1.02216e-07
1.00531e-07
9.97674e-08
9.92314e-08
9.85059e-08
9.93315e-08
9.97921e-08
1.00885e-07
1.02259e-07
1.02449e-07
1.03401e-07
1.02259e-07
1.02749e-07
1.01056e-07
9.82669e-08
1.091e-07
1.0521e-07
1.12282e-07
1.09329e-07
1.05362e-07
1.07726e-07
1.06567e-07
1.06106e-07
1.04422e-07
1.0383e-07
1.04806e-07
1.05057e-07
1.05302e-07
1.05889e-07
1.05952e-07
1.06176e-07
1.055e-07
1.04548e-07
1.03921e-07
1.0328e-07
1.02913e-07
1.02431e-07
1.0223e-07
1.02364e-07
1.02254e-07
1.0213e-07
1.02015e-07
1.02031e-07
1.02337e-07
1.02281e-07
1.02402e-07
1.02178e-07
1.01612e-07
1.01235e-07
1.00115e-07
9.9807e-08
9.92909e-08
9.93137e-08
1.00316e-07
1.00514e-07
1.02117e-07
1.02521e-07
1.03029e-07
1.03478e-07
1.02204e-07
1.02217e-07
1.00533e-07
9.97733e-08
9.92368e-08
9.85101e-08
9.93333e-08
9.97898e-08
1.0088e-07
1.02253e-07
1.02443e-07
1.03399e-07
1.0226e-07
1.02751e-07
1.0106e-07
1.0321e-07
1.09076e-07
1.05187e-07
1.12283e-07
1.09333e-07
1.0537e-07
1.07733e-07
1.06569e-07
1.06106e-07
1.04422e-07
1.03825e-07
1.048e-07
1.05051e-07
1.05298e-07
1.05888e-07
1.05953e-07
1.06181e-07
1.05506e-07
1.04553e-07
1.03926e-07
1.03283e-07
1.02915e-07
1.02432e-07
1.02231e-07
1.02365e-07
1.02255e-07
1.0213e-07
1.02013e-07
1.02028e-07
1.02333e-07
1.02277e-07
1.02401e-07
1.02179e-07
1.01617e-07
1.0124e-07
1.00121e-07
9.98127e-08
9.92918e-08
9.93141e-08
1.0031e-07
1.00507e-07
1.02109e-07
1.02511e-07
1.03025e-07
1.03474e-07
1.02207e-07
1.02224e-07
1.0054e-07
9.97852e-08
9.92431e-08
9.85141e-08
9.93312e-08
9.97807e-08
1.00869e-07
1.02241e-07
1.02434e-07
1.03395e-07
1.02263e-07
1.02754e-07
1.01063e-07
1.00819e-07
1.09059e-07
1.05154e-07
1.12283e-07
1.09334e-07
1.05387e-07
1.07744e-07
1.06575e-07
1.0611e-07
1.04426e-07
1.0382e-07
1.04792e-07
1.05041e-07
1.0529e-07
1.05886e-07
1.05954e-07
1.06187e-07
1.05515e-07
1.04564e-07
1.03935e-07
1.03288e-07
1.02919e-07
1.02435e-07
1.02234e-07
1.02367e-07
1.02256e-07
1.02131e-07
1.02011e-07
1.02025e-07
1.02327e-07
1.02272e-07
1.024e-07
1.0218e-07
1.01625e-07
1.01249e-07
1.00131e-07
9.9822e-08
9.9293e-08
9.93145e-08
1.00299e-07
1.00495e-07
1.02096e-07
1.02495e-07
1.0302e-07
1.03468e-07
1.02213e-07
1.02235e-07
1.00552e-07
9.98042e-08
9.92516e-08
9.85201e-08
9.93266e-08
9.97659e-08
1.00852e-07
1.0222e-07
1.02421e-07
1.03389e-07
1.02266e-07
1.02758e-07
1.01067e-07
9.98868e-08
1.0905e-07
1.05112e-07
1.12282e-07
1.09331e-07
1.05411e-07
1.0776e-07
1.06585e-07
1.06118e-07
1.04433e-07
1.03817e-07
1.04782e-07
1.05028e-07
1.05279e-07
1.05881e-07
1.05954e-07
1.06195e-07
1.05528e-07
1.04579e-07
1.03949e-07
1.03298e-07
1.02926e-07
1.02439e-07
1.02238e-07
1.0237e-07
1.02258e-07
1.02133e-07
1.02009e-07
1.02021e-07
1.02319e-07
1.02266e-07
1.02399e-07
1.02182e-07
1.01637e-07
1.01262e-07
1.00147e-07
9.98348e-08
9.92945e-08
9.93144e-08
1.00283e-07
1.00479e-07
1.02077e-07
1.02473e-07
1.03015e-07
1.0346e-07
1.02224e-07
1.02252e-07
1.0057e-07
9.98302e-08
9.92622e-08
9.85276e-08
9.93192e-08
9.97452e-08
1.00829e-07
1.02193e-07
1.02404e-07
1.03381e-07
1.0227e-07
1.02763e-07
1.01072e-07
1.00019e-07
1.09049e-07
1.0506e-07
1.12279e-07
1.09325e-07
1.05442e-07
1.0778e-07
1.066e-07
1.06129e-07
1.04444e-07
1.03814e-07
1.04771e-07
1.0501e-07
1.05263e-07
1.05873e-07
1.05952e-07
1.06203e-07
1.05543e-07
1.04599e-07
1.03968e-07
1.0331e-07
1.02935e-07
1.02445e-07
1.02243e-07
1.02374e-07
1.02261e-07
1.02135e-07
1.02006e-07
1.02016e-07
1.0231e-07
1.02258e-07
1.02397e-07
1.02185e-07
1.01652e-07
1.01277e-07
1.00167e-07
9.98511e-08
9.92964e-08
9.93141e-08
1.00261e-07
1.00458e-07
1.02053e-07
1.02446e-07
1.03009e-07
1.03451e-07
1.02239e-07
1.02273e-07
1.00593e-07
9.98632e-08
9.9275e-08
9.85371e-08
9.93092e-08
9.97191e-08
1.00801e-07
1.02158e-07
1.02383e-07
1.0337e-07
1.02275e-07
1.02768e-07
1.01076e-07
1.00222e-07
1.09052e-07
1.05001e-07
1.12273e-07
1.09315e-07
1.05481e-07
1.07805e-07
1.0662e-07
1.06145e-07
1.04459e-07
1.03813e-07
1.04758e-07
1.0499e-07
1.05243e-07
1.05862e-07
1.05949e-07
1.06213e-07
1.05562e-07
1.04623e-07
1.03991e-07
1.03327e-07
1.02947e-07
1.02453e-07
1.02249e-07
1.02378e-07
1.02264e-07
1.02138e-07
1.02004e-07
1.02011e-07
1.02299e-07
1.02249e-07
1.02395e-07
1.02188e-07
1.01671e-07
1.01297e-07
1.00192e-07
9.9871e-08
9.92992e-08
9.93138e-08
1.00235e-07
1.00432e-07
1.02022e-07
1.02413e-07
1.03001e-07
1.03441e-07
1.02259e-07
1.02299e-07
1.00621e-07
9.99029e-08
9.92903e-08
9.85487e-08
9.92969e-08
9.96882e-08
1.00766e-07
1.02116e-07
1.02358e-07
1.03356e-07
1.02279e-07
1.02773e-07
1.0108e-07
1.00331e-07
1.0906e-07
1.04934e-07
1.12265e-07
1.09302e-07
1.05527e-07
1.07833e-07
1.06645e-07
1.06165e-07
1.04479e-07
1.03814e-07
1.04744e-07
1.04966e-07
1.0522e-07
1.05849e-07
1.05944e-07
1.06223e-07
1.05583e-07
1.04651e-07
1.04019e-07
1.03347e-07
1.02961e-07
1.02463e-07
1.02257e-07
1.02384e-07
1.02268e-07
1.02143e-07
1.02002e-07
1.02006e-07
1.02287e-07
1.02239e-07
1.02393e-07
1.02191e-07
1.01693e-07
1.01319e-07
1.00221e-07
9.98944e-08
9.93031e-08
9.93135e-08
1.00203e-07
1.00402e-07
1.01986e-07
1.02375e-07
1.02993e-07
1.03429e-07
1.02283e-07
1.0233e-07
1.00655e-07
9.99493e-08
9.93084e-08
9.85628e-08
9.92826e-08
9.96527e-08
1.00726e-07
1.02068e-07
1.02329e-07
1.03339e-07
1.02284e-07
1.02779e-07
1.01085e-07
1.00422e-07
1.09073e-07
1.0486e-07
1.12253e-07
1.09286e-07
1.05578e-07
1.07867e-07
1.06674e-07
1.0619e-07
1.04505e-07
1.03818e-07
1.04731e-07
1.04939e-07
1.05194e-07
1.05832e-07
1.05937e-07
1.06233e-07
1.05606e-07
1.04683e-07
1.04051e-07
1.0337e-07
1.02979e-07
1.02475e-07
1.02267e-07
1.02391e-07
1.02274e-07
1.02148e-07
1.02001e-07
1.02001e-07
1.02274e-07
1.02228e-07
1.0239e-07
1.02195e-07
1.01717e-07
1.01344e-07
1.00255e-07
9.99213e-08
9.93084e-08
9.93136e-08
1.00168e-07
1.00369e-07
1.01944e-07
1.02332e-07
1.02983e-07
1.03415e-07
1.0231e-07
1.02364e-07
1.00694e-07
1.00002e-07
9.93295e-08
9.85796e-08
9.92668e-08
9.96134e-08
1.00682e-07
1.02013e-07
1.02295e-07
1.03319e-07
1.02289e-07
1.02785e-07
1.01089e-07
1.00526e-07
1.0909e-07
1.04781e-07
1.12239e-07
1.09266e-07
1.05635e-07
1.07904e-07
1.06707e-07
1.06219e-07
1.04535e-07
1.03824e-07
1.04717e-07
1.0491e-07
1.05165e-07
1.05813e-07
1.05928e-07
1.06244e-07
1.05631e-07
1.04719e-07
1.04087e-07
1.03397e-07
1.02999e-07
1.02489e-07
1.02278e-07
1.02399e-07
1.0228e-07
1.02154e-07
1.02e-07
1.01996e-07
1.0226e-07
1.02217e-07
1.02386e-07
1.02199e-07
1.01744e-07
1.01373e-07
1.00294e-07
9.99517e-08
9.93156e-08
9.93143e-08
1.0013e-07
1.00332e-07
1.01897e-07
1.02284e-07
1.0297e-07
1.03399e-07
1.0234e-07
1.02401e-07
1.00738e-07
1.00061e-07
9.93539e-08
9.85993e-08
9.92498e-08
9.95706e-08
1.00632e-07
1.01952e-07
1.02257e-07
1.03296e-07
1.02293e-07
1.0279e-07
1.01093e-07
1.00641e-07
1.09111e-07
1.04696e-07
1.1222e-07
1.09243e-07
1.05697e-07
1.07945e-07
1.06743e-07
1.06253e-07
1.04571e-07
1.03833e-07
1.04705e-07
1.04879e-07
1.05133e-07
1.05792e-07
1.05917e-07
1.06254e-07
1.05657e-07
1.04758e-07
1.04128e-07
1.03427e-07
1.03023e-07
1.02505e-07
1.02291e-07
1.02408e-07
1.02287e-07
1.02162e-07
1.02e-07
1.01991e-07
1.02246e-07
1.02204e-07
1.02383e-07
1.02204e-07
1.01774e-07
1.01404e-07
1.00336e-07
9.99857e-08
9.93249e-08
9.93158e-08
1.00088e-07
1.00292e-07
1.01845e-07
1.02231e-07
1.02955e-07
1.03382e-07
1.02374e-07
1.02442e-07
1.00788e-07
1.00126e-07
9.93819e-08
9.86221e-08
9.92322e-08
9.9525e-08
1.00578e-07
1.01884e-07
1.02215e-07
1.0327e-07
1.02297e-07
1.02795e-07
1.01097e-07
1.00762e-07
1.09136e-07
1.04606e-07
1.12198e-07
1.09217e-07
1.05763e-07
1.07991e-07
1.06784e-07
1.06291e-07
1.04613e-07
1.03845e-07
1.04694e-07
1.04847e-07
1.05098e-07
1.05768e-07
1.05903e-07
1.06263e-07
1.05684e-07
1.048e-07
1.04172e-07
1.03461e-07
1.03049e-07
1.02523e-07
1.02306e-07
1.02418e-07
1.02296e-07
1.02171e-07
1.02001e-07
1.01987e-07
1.02231e-07
1.02191e-07
1.02378e-07
1.02209e-07
1.01805e-07
1.01437e-07
1.00383e-07
1.00023e-07
9.93365e-08
9.93184e-08
1.00044e-07
1.00248e-07
1.01787e-07
1.02174e-07
1.02938e-07
1.03362e-07
1.02409e-07
1.02485e-07
1.00843e-07
1.00196e-07
9.94138e-08
9.86484e-08
9.92145e-08
9.94772e-08
1.00519e-07
1.01811e-07
1.02168e-07
1.03239e-07
1.02299e-07
1.028e-07
1.01101e-07
1.0089e-07
1.09165e-07
1.04512e-07
1.12173e-07
1.09187e-07
1.05833e-07
1.0804e-07
1.06828e-07
1.06334e-07
1.0466e-07
1.03861e-07
1.04685e-07
1.04814e-07
1.05062e-07
1.05742e-07
1.05887e-07
1.06272e-07
1.05712e-07
1.04845e-07
1.0422e-07
1.03499e-07
1.03079e-07
1.02544e-07
1.02323e-07
1.0243e-07
1.02305e-07
1.02181e-07
1.02003e-07
1.01984e-07
1.02215e-07
1.02178e-07
1.02373e-07
1.02213e-07
1.01838e-07
1.01473e-07
1.00434e-07
1.00064e-07
9.9351e-08
9.93224e-08
9.99978e-08
1.00203e-07
1.01724e-07
1.02112e-07
1.02917e-07
1.03339e-07
1.02446e-07
1.02531e-07
1.00902e-07
1.00272e-07
9.94498e-08
9.86785e-08
9.91971e-08
9.94278e-08
1.00457e-07
1.01733e-07
1.02117e-07
1.03205e-07
1.023e-07
1.02804e-07
1.01105e-07
1.01023e-07
1.09197e-07
1.04414e-07
1.12143e-07
1.09154e-07
1.05905e-07
1.08092e-07
1.06874e-07
1.06382e-07
1.04714e-07
1.03881e-07
1.04679e-07
1.04781e-07
1.05025e-07
1.05713e-07
1.05868e-07
1.0628e-07
1.0574e-07
1.04893e-07
1.04271e-07
1.03539e-07
1.03112e-07
1.02567e-07
1.02342e-07
1.02443e-07
1.02316e-07
1.02193e-07
1.02006e-07
1.01982e-07
1.022e-07
1.02164e-07
1.02368e-07
1.02218e-07
1.01872e-07
1.01511e-07
1.00489e-07
1.00109e-07
9.93684e-08
9.93281e-08
9.99506e-08
1.00155e-07
1.01657e-07
1.02046e-07
1.02893e-07
1.03314e-07
1.02483e-07
1.02578e-07
1.00966e-07
1.00353e-07
9.94902e-08
9.87125e-08
9.91807e-08
9.93774e-08
1.00392e-07
1.0165e-07
1.02061e-07
1.03167e-07
1.023e-07
1.02807e-07
1.01108e-07
1.01162e-07
1.09232e-07
1.04314e-07
1.12109e-07
1.09117e-07
1.0598e-07
1.08148e-07
1.06923e-07
1.06435e-07
1.04773e-07
1.03905e-07
1.04677e-07
1.04748e-07
1.04987e-07
1.05683e-07
1.05847e-07
1.06286e-07
1.05768e-07
1.04942e-07
1.04326e-07
1.03583e-07
1.03148e-07
1.02593e-07
1.02363e-07
1.02458e-07
1.02328e-07
1.02206e-07
1.0201e-07
1.01981e-07
1.02185e-07
1.0215e-07
1.02362e-07
1.02223e-07
1.01907e-07
1.01551e-07
1.00547e-07
1.00157e-07
9.93893e-08
9.93358e-08
9.99027e-08
1.00106e-07
1.01586e-07
1.01976e-07
1.02866e-07
1.03287e-07
1.02522e-07
1.02627e-07
1.01034e-07
1.00438e-07
9.95351e-08
9.87508e-08
9.91658e-08
9.93269e-08
1.00324e-07
1.01562e-07
1.02001e-07
1.03124e-07
1.02297e-07
1.02809e-07
1.01112e-07
1.01306e-07
1.0927e-07
1.04212e-07
1.12071e-07
1.09077e-07
1.06057e-07
1.08207e-07
1.06975e-07
1.06493e-07
1.04839e-07
1.03934e-07
1.04678e-07
1.04715e-07
1.04948e-07
1.05651e-07
1.05823e-07
1.06291e-07
1.05796e-07
1.04993e-07
1.04383e-07
1.0363e-07
1.03188e-07
1.02621e-07
1.02386e-07
1.02474e-07
1.02342e-07
1.02221e-07
1.02017e-07
1.01982e-07
1.02171e-07
1.02136e-07
1.02356e-07
1.02227e-07
1.01943e-07
1.01592e-07
1.00608e-07
1.00208e-07
9.94138e-08
9.93458e-08
9.9855e-08
1.00055e-07
1.01511e-07
1.01902e-07
1.02834e-07
1.03256e-07
1.02559e-07
1.02676e-07
1.01106e-07
1.00528e-07
9.95849e-08
9.87937e-08
9.9153e-08
9.92768e-08
1.00254e-07
1.0147e-07
1.01936e-07
1.03078e-07
1.02293e-07
1.0281e-07
1.01115e-07
1.01455e-07
1.09311e-07
1.04108e-07
1.1203e-07
1.09034e-07
1.06135e-07
1.08269e-07
1.07027e-07
1.06556e-07
1.04911e-07
1.03968e-07
1.04684e-07
1.04683e-07
1.0491e-07
1.05618e-07
1.05797e-07
1.06295e-07
1.05823e-07
1.05046e-07
1.04443e-07
1.03681e-07
1.03231e-07
1.02652e-07
1.02411e-07
1.02491e-07
1.02357e-07
1.02238e-07
1.02024e-07
1.01984e-07
1.02157e-07
1.02123e-07
1.02349e-07
1.02231e-07
1.01979e-07
1.01635e-07
1.00673e-07
1.00262e-07
9.94422e-08
9.93585e-08
9.9808e-08
1.00004e-07
1.01432e-07
1.01825e-07
1.02797e-07
1.03221e-07
1.02596e-07
1.02725e-07
1.01181e-07
1.00622e-07
9.96395e-08
9.88413e-08
9.9143e-08
9.9228e-08
1.00182e-07
1.01375e-07
1.01867e-07
1.03026e-07
1.02285e-07
1.02809e-07
1.01117e-07
1.0161e-07
1.09354e-07
1.04004e-07
1.11985e-07
1.08987e-07
1.06213e-07
1.08333e-07
1.07081e-07
1.06623e-07
1.04988e-07
1.04007e-07
1.04694e-07
1.04653e-07
1.04873e-07
1.05583e-07
1.05768e-07
1.06296e-07
1.05848e-07
1.05099e-07
1.04506e-07
1.03734e-07
1.03277e-07
1.02686e-07
1.02439e-07
1.0251e-07
1.02373e-07
1.02256e-07
1.02034e-07
1.01987e-07
1.02144e-07
1.0211e-07
1.02341e-07
1.02235e-07
1.02015e-07
1.01678e-07
1.0074e-07
1.0032e-07
9.94748e-08
9.93742e-08
9.97624e-08
9.99525e-08
1.01351e-07
1.01744e-07
1.02756e-07
1.03183e-07
1.02631e-07
1.02773e-07
1.01258e-07
1.00719e-07
9.96992e-08
9.88939e-08
9.91363e-08
9.91811e-08
1.00109e-07
1.01277e-07
1.01794e-07
1.02971e-07
1.02275e-07
1.02806e-07
1.01119e-07
1.01769e-07
1.09399e-07
1.039e-07
1.11937e-07
1.08936e-07
1.06291e-07
1.08398e-07
1.07136e-07
1.06695e-07
1.05072e-07
1.04051e-07
1.04711e-07
1.04625e-07
1.04837e-07
1.05548e-07
1.05737e-07
1.06296e-07
1.05872e-07
1.05154e-07
1.0457e-07
1.0379e-07
1.03326e-07
1.02723e-07
1.0247e-07
1.02531e-07
1.02391e-07
1.02276e-07
1.02046e-07
1.01993e-07
1.02133e-07
1.02098e-07
1.02334e-07
1.02238e-07
1.02051e-07
1.01723e-07
1.00809e-07
1.00381e-07
9.95117e-08
9.93931e-08
9.9719e-08
9.99016e-08
1.01266e-07
1.0166e-07
1.02711e-07
1.03141e-07
1.02664e-07
1.0282e-07
1.01338e-07
1.00819e-07
9.97641e-08
9.89516e-08
9.91335e-08
9.9137e-08
1.00035e-07
1.01176e-07
1.01717e-07
1.0291e-07
1.02261e-07
1.02801e-07
1.01121e-07
1.01932e-07
1.09445e-07
1.03797e-07
1.11885e-07
1.08881e-07
1.06369e-07
1.08466e-07
1.0719e-07
1.06771e-07
1.05161e-07
1.04101e-07
1.04733e-07
1.046e-07
1.04803e-07
1.05512e-07
1.05703e-07
1.06294e-07
1.05894e-07
1.05209e-07
1.04636e-07
1.03848e-07
1.03379e-07
1.02762e-07
1.02503e-07
1.02554e-07
1.0241e-07
1.02297e-07
1.02059e-07
1.02e-07
1.02123e-07
1.02086e-07
1.02326e-07
1.02241e-07
1.02086e-07
1.01767e-07
1.00881e-07
1.00445e-07
9.95532e-08
9.94156e-08
9.96783e-08
9.98515e-08
1.0118e-07
1.01574e-07
1.0266e-07
1.03096e-07
1.02694e-07
1.02866e-07
1.0142e-07
1.00921e-07
9.9834e-08
9.90148e-08
9.91352e-08
9.90964e-08
9.99623e-08
1.01073e-07
1.01635e-07
1.02845e-07
1.02244e-07
1.02795e-07
1.01122e-07
1.02098e-07
1.09492e-07
1.03696e-07
1.11831e-07
1.08822e-07
1.06447e-07
1.08535e-07
1.07245e-07
1.06852e-07
1.05255e-07
1.04156e-07
1.04761e-07
1.04578e-07
1.04772e-07
1.05476e-07
1.05668e-07
1.0629e-07
1.05914e-07
1.05263e-07
1.04703e-07
1.03909e-07
1.03435e-07
1.02805e-07
1.02539e-07
1.02578e-07
1.02431e-07
1.0232e-07
1.02075e-07
1.0201e-07
1.02114e-07
1.02076e-07
1.02317e-07
1.02244e-07
1.0212e-07
1.01812e-07
1.00954e-07
1.00512e-07
9.95995e-08
9.9442e-08
9.96412e-08
9.98031e-08
1.01093e-07
1.01485e-07
1.02604e-07
1.03045e-07
1.0272e-07
1.02908e-07
1.01503e-07
1.01026e-07
9.99091e-08
9.90835e-08
9.91421e-08
9.90599e-08
9.98905e-08
1.00969e-07
1.01551e-07
1.02775e-07
1.02223e-07
1.02785e-07
1.01122e-07
1.02269e-07
1.0954e-07
1.03597e-07
1.11775e-07
1.08759e-07
1.06522e-07
1.08604e-07
1.07297e-07
1.06937e-07
1.05354e-07
1.04218e-07
1.04797e-07
1.04559e-07
1.04744e-07
1.0544e-07
1.05631e-07
1.06284e-07
1.05931e-07
1.05318e-07
1.04771e-07
1.03972e-07
1.03494e-07
1.0285e-07
1.02577e-07
1.02605e-07
1.02454e-07
1.02346e-07
1.02093e-07
1.02022e-07
1.02108e-07
1.02066e-07
1.02309e-07
1.02246e-07
1.02154e-07
1.01857e-07
1.01029e-07
1.00581e-07
9.96505e-08
9.94726e-08
9.96082e-08
9.97567e-08
1.01004e-07
1.01394e-07
1.02543e-07
1.02991e-07
1.02741e-07
1.02948e-07
1.01586e-07
1.01131e-07
9.99891e-08
9.91577e-08
9.91546e-08
9.90285e-08
9.98204e-08
1.00865e-07
1.01463e-07
1.02701e-07
1.02198e-07
1.02774e-07
1.01122e-07
1.02443e-07
1.09588e-07
1.03502e-07
1.11717e-07
1.08692e-07
1.06597e-07
1.08673e-07
1.07349e-07
1.07026e-07
1.05457e-07
1.04285e-07
1.04839e-07
1.04545e-07
1.0472e-07
1.05404e-07
1.05593e-07
1.06276e-07
1.05946e-07
1.05372e-07
1.0484e-07
1.04038e-07
1.03557e-07
1.02899e-07
1.02619e-07
1.02633e-07
1.02479e-07
1.02372e-07
1.02113e-07
1.02036e-07
1.02103e-07
1.02058e-07
1.02301e-07
1.02247e-07
1.02186e-07
1.01902e-07
1.01105e-07
1.00653e-07
9.97064e-08
9.95077e-08
9.958e-08
9.97131e-08
1.00915e-07
1.01302e-07
1.02477e-07
1.02931e-07
1.02757e-07
1.02983e-07
1.01669e-07
1.01238e-07
1.00074e-07
9.92375e-08
9.91733e-08
9.90027e-08
9.97531e-08
1.00761e-07
1.01372e-07
1.02623e-07
1.02169e-07
1.02759e-07
1.01121e-07
1.02619e-07
1.09636e-07
1.03411e-07
1.11657e-07
1.0862e-07
1.06669e-07
1.08742e-07
1.07398e-07
1.07118e-07
1.05565e-07
1.04359e-07
1.04889e-07
1.04535e-07
1.04701e-07
1.0537e-07
1.05553e-07
1.06266e-07
1.05958e-07
1.05425e-07
1.04909e-07
1.04105e-07
1.03622e-07
1.0295e-07
1.02663e-07
1.02663e-07
1.02506e-07
1.02401e-07
1.02135e-07
1.02053e-07
1.02101e-07
1.02052e-07
1.02293e-07
1.02247e-07
1.02216e-07
1.01945e-07
1.01181e-07
1.00727e-07
9.97672e-08
9.95473e-08
9.95572e-08
9.96729e-08
1.00827e-07
1.01209e-07
1.02405e-07
1.02867e-07
1.02768e-07
1.03014e-07
1.0175e-07
1.01344e-07
1.00163e-07
9.9323e-08
9.91986e-08
9.89833e-08
9.96892e-08
1.00658e-07
1.01279e-07
1.0254e-07
1.02136e-07
1.02741e-07
1.01119e-07
1.02799e-07
1.09683e-07
1.03324e-07
1.11596e-07
1.08544e-07
1.0674e-07
1.0881e-07
1.07444e-07
1.07215e-07
1.05675e-07
1.04438e-07
1.04947e-07
1.04529e-07
1.04687e-07
1.05337e-07
1.05513e-07
1.06255e-07
1.05966e-07
1.05477e-07
1.04977e-07
1.04174e-07
1.0369e-07
1.03005e-07
1.02711e-07
1.02696e-07
1.02534e-07
1.02432e-07
1.0216e-07
1.02072e-07
1.02101e-07
1.02047e-07
1.02285e-07
1.02248e-07
1.02244e-07
1.01988e-07
1.01258e-07
1.00802e-07
9.98328e-08
9.95918e-08
9.95404e-08
9.96366e-08
1.0074e-07
1.01115e-07
1.02329e-07
1.02798e-07
1.02772e-07
1.03039e-07
1.0183e-07
1.0145e-07
1.00257e-07
9.94139e-08
9.9231e-08
9.8971e-08
9.96295e-08
1.00557e-07
1.01183e-07
1.02453e-07
1.02098e-07
1.02721e-07
1.01116e-07
1.02981e-07
1.09728e-07
1.03244e-07
1.11535e-07
1.08464e-07
1.06808e-07
1.08876e-07
1.07487e-07
1.07314e-07
1.05788e-07
1.04524e-07
1.05011e-07
1.04529e-07
1.0468e-07
1.05307e-07
1.05474e-07
1.06241e-07
1.05972e-07
1.05527e-07
1.05045e-07
1.04244e-07
1.03761e-07
1.03062e-07
1.02762e-07
1.02731e-07
1.02564e-07
1.02464e-07
1.02187e-07
1.02094e-07
1.02103e-07
1.02045e-07
1.02277e-07
1.02247e-07
1.02271e-07
1.0203e-07
1.01334e-07
1.0088e-07
9.99031e-08
9.96413e-08
9.95302e-08
9.96049e-08
1.00655e-07
1.01022e-07
1.02248e-07
1.02724e-07
1.02769e-07
1.03059e-07
1.01907e-07
1.01554e-07
1.00354e-07
9.95102e-08
9.92708e-08
9.89662e-08
9.9575e-08
1.00459e-07
1.01087e-07
1.02362e-07
1.02055e-07
1.02697e-07
1.01112e-07
1.03165e-07
1.09772e-07
1.0317e-07
1.11474e-07
1.08378e-07
1.06875e-07
1.0894e-07
1.07526e-07
1.07416e-07
1.05903e-07
1.04615e-07
1.05084e-07
1.04535e-07
1.04679e-07
1.05278e-07
1.05434e-07
1.06227e-07
1.05974e-07
1.05576e-07
1.05112e-07
1.04315e-07
1.03835e-07
1.03123e-07
1.02816e-07
1.02768e-07
1.02597e-07
1.02499e-07
1.02216e-07
1.02118e-07
1.02109e-07
1.02044e-07
1.0227e-07
1.02246e-07
1.02295e-07
1.02069e-07
1.0141e-07
1.00958e-07
9.99781e-08
9.96959e-08
9.95269e-08
9.95783e-08
1.00573e-07
1.00929e-07
1.02162e-07
1.02645e-07
1.02759e-07
1.03072e-07
1.01981e-07
1.01657e-07
1.00455e-07
9.96116e-08
9.93183e-08
9.89696e-08
9.95263e-08
1.00364e-07
1.0099e-07
1.02268e-07
1.02008e-07
1.0267e-07
1.01107e-07
1.03351e-07
1.09814e-07
1.03104e-07
1.11414e-07
1.08289e-07
1.06939e-07
1.09001e-07
1.07561e-07
1.07521e-07
1.06019e-07
1.04712e-07
1.05163e-07
1.04546e-07
1.04685e-07
1.05252e-07
1.05396e-07
1.06211e-07
1.05973e-07
1.05623e-07
1.05178e-07
1.04387e-07
1.0391e-07
1.03186e-07
1.02873e-07
1.02807e-07
1.02632e-07
1.02535e-07
1.02248e-07
1.02145e-07
1.02117e-07
1.02046e-07
1.02264e-07
1.02245e-07
1.02318e-07
1.02108e-07
1.01484e-07
1.01038e-07
1.00057e-07
9.97556e-08
9.95309e-08
9.95575e-08
1.00495e-07
1.00837e-07
1.02073e-07
1.02562e-07
1.02741e-07
1.03078e-07
1.0205e-07
1.01756e-07
1.00558e-07
9.97178e-08
9.93735e-08
9.89816e-08
9.94844e-08
1.00273e-07
1.00893e-07
1.0217e-07
1.01956e-07
1.0264e-07
1.011e-07
1.03539e-07
1.09853e-07
1.03047e-07
1.11356e-07
1.08194e-07
1.07002e-07
1.09059e-07
1.07591e-07
1.07627e-07
1.06135e-07
1.04815e-07
1.0525e-07
1.04564e-07
1.04699e-07
1.0523e-07
1.05359e-07
1.06194e-07
1.05969e-07
1.05668e-07
1.05241e-07
1.0446e-07
1.03988e-07
1.03252e-07
1.02933e-07
1.02849e-07
1.02668e-07
1.02573e-07
1.02282e-07
1.02175e-07
1.02128e-07
1.0205e-07
1.02258e-07
1.02244e-07
1.02338e-07
1.02144e-07
1.01558e-07
1.01118e-07
1.00141e-07
9.98205e-08
9.95428e-08
9.95429e-08
1.0042e-07
1.00748e-07
1.0198e-07
1.02474e-07
1.02716e-07
1.03077e-07
1.02114e-07
1.01852e-07
1.00664e-07
9.98284e-08
9.94367e-08
9.90027e-08
9.945e-08
1.00188e-07
1.00797e-07
1.02071e-07
1.01899e-07
1.02606e-07
1.01093e-07
1.03728e-07
1.09888e-07
1.02999e-07
1.11299e-07
1.08095e-07
1.07064e-07
1.09112e-07
1.07616e-07
1.07735e-07
1.0625e-07
1.04923e-07
1.05344e-07
1.04588e-07
1.04721e-07
1.05211e-07
1.05325e-07
1.06176e-07
1.05962e-07
1.05711e-07
1.05303e-07
1.04533e-07
1.04068e-07
1.0332e-07
1.02996e-07
1.02893e-07
1.02707e-07
1.02613e-07
1.02319e-07
1.02208e-07
1.02142e-07
1.02057e-07
1.02254e-07
1.02243e-07
1.02355e-07
1.02178e-07
1.01629e-07
1.01199e-07
1.00228e-07
9.98903e-08
9.95626e-08
9.95351e-08
1.00351e-07
1.00661e-07
1.01884e-07
1.02382e-07
1.02682e-07
1.03067e-07
1.02172e-07
1.01943e-07
1.00771e-07
9.99428e-08
9.95077e-08
9.90331e-08
9.94238e-08
1.00108e-07
1.00702e-07
1.01969e-07
1.01838e-07
1.02569e-07
1.01084e-07
1.0392e-07
1.09919e-07
1.02961e-07
1.11244e-07
1.07992e-07
1.07124e-07
1.0916e-07
1.07636e-07
1.07844e-07
1.06364e-07
1.05037e-07
1.05444e-07
1.04618e-07
1.04752e-07
1.05196e-07
1.05293e-07
1.06158e-07
1.05952e-07
1.05752e-07
1.05362e-07
1.04607e-07
1.04149e-07
1.03392e-07
1.03063e-07
1.0294e-07
1.02749e-07
1.02655e-07
1.02357e-07
1.02243e-07
1.0216e-07
1.02066e-07
1.02251e-07
1.02241e-07
1.02371e-07
1.0221e-07
1.01699e-07
1.01279e-07
1.00318e-07
9.99651e-08
9.95906e-08
9.95346e-08
1.00287e-07
1.00577e-07
1.01786e-07
1.02286e-07
1.0264e-07
1.0305e-07
1.02222e-07
1.02029e-07
1.00878e-07
1.00061e-07
9.95865e-08
9.9073e-08
9.94065e-08
1.00036e-07
1.0061e-07
1.01867e-07
1.01774e-07
1.02528e-07
1.01073e-07
1.04112e-07
1.09946e-07
1.02934e-07
1.11192e-07
1.07885e-07
1.07184e-07
1.09202e-07
1.07651e-07
1.07954e-07
1.06475e-07
1.05155e-07
1.05549e-07
1.04654e-07
1.04791e-07
1.05185e-07
1.05266e-07
1.0614e-07
1.0594e-07
1.0579e-07
1.05418e-07
1.0468e-07
1.04231e-07
1.03465e-07
1.03133e-07
1.02989e-07
1.02793e-07
1.02698e-07
1.02398e-07
1.0228e-07
1.0218e-07
1.02078e-07
1.0225e-07
1.0224e-07
1.02384e-07
1.02239e-07
1.01766e-07
1.01358e-07
1.00411e-07
1.00045e-07
9.96269e-08
9.95416e-08
1.00231e-07
1.00498e-07
1.01687e-07
1.02186e-07
1.0259e-07
1.03023e-07
1.02266e-07
1.02109e-07
1.00984e-07
1.00181e-07
9.96726e-08
9.91226e-08
9.93987e-08
9.99713e-08
1.00521e-07
1.01763e-07
1.01705e-07
1.02484e-07
1.01061e-07
1.04306e-07
1.09968e-07
1.0292e-07
1.11143e-07
1.07774e-07
1.07244e-07
1.09238e-07
1.0766e-07
1.08063e-07
1.06582e-07
1.05277e-07
1.05659e-07
1.04696e-07
1.0484e-07
1.05179e-07
1.05242e-07
1.06123e-07
1.05925e-07
1.05827e-07
1.05471e-07
1.04753e-07
1.04314e-07
1.03541e-07
1.03206e-07
1.03041e-07
1.02839e-07
1.02743e-07
1.02441e-07
1.02321e-07
1.02203e-07
1.02094e-07
1.0225e-07
1.02239e-07
1.02395e-07
1.02266e-07
1.0183e-07
1.01437e-07
1.00507e-07
1.00128e-07
9.96714e-08
9.95566e-08
1.00181e-07
1.00423e-07
1.01587e-07
1.02084e-07
1.02531e-07
1.02988e-07
1.02301e-07
1.02182e-07
1.01089e-07
1.00303e-07
9.97659e-08
9.91818e-08
9.94009e-08
9.99151e-08
1.00437e-07
1.0166e-07
1.01633e-07
1.02438e-07
1.01048e-07
1.04501e-07
1.09984e-07
1.02918e-07
1.11097e-07
1.07659e-07
1.07305e-07
1.09267e-07
1.07664e-07
1.08172e-07
1.06684e-07
1.05404e-07
1.05774e-07
1.04745e-07
1.04898e-07
1.05178e-07
1.05224e-07
1.06106e-07
1.05909e-07
1.05861e-07
1.05521e-07
1.04825e-07
1.04398e-07
1.03619e-07
1.03282e-07
1.03095e-07
1.02888e-07
1.02791e-07
1.02487e-07
1.02364e-07
1.0223e-07
1.02112e-07
1.02252e-07
1.02239e-07
1.02405e-07
1.0229e-07
1.0189e-07
1.01514e-07
1.00604e-07
1.00216e-07
9.97241e-08
9.95798e-08
1.0014e-07
1.00354e-07
1.01488e-07
1.01979e-07
1.02465e-07
1.02944e-07
1.02327e-07
1.02247e-07
1.01192e-07
1.00426e-07
9.98656e-08
9.92505e-08
9.94135e-08
9.98682e-08
1.00357e-07
1.01558e-07
1.01559e-07
1.02388e-07
1.01033e-07
1.04697e-07
1.09994e-07
1.0293e-07
1.11054e-07
1.07542e-07
1.07367e-07
1.09289e-07
1.07664e-07
1.08279e-07
1.06781e-07
1.05534e-07
1.05892e-07
1.04801e-07
1.04965e-07
1.05181e-07
1.05212e-07
1.0609e-07
1.05891e-07
1.05893e-07
1.05568e-07
1.04896e-07
1.04481e-07
1.03698e-07
1.03361e-07
1.03152e-07
1.02939e-07
1.02839e-07
1.02534e-07
1.02409e-07
1.0226e-07
1.02133e-07
1.02257e-07
1.0224e-07
1.02412e-07
1.02312e-07
1.01948e-07
1.01589e-07
1.00703e-07
1.00308e-07
9.97847e-08
9.96114e-08
1.00107e-07
1.00292e-07
1.0139e-07
1.01873e-07
1.02392e-07
1.02892e-07
1.02344e-07
1.02304e-07
1.01291e-07
1.0055e-07
9.99712e-08
9.93284e-08
9.94369e-08
9.98312e-08
1.00284e-07
1.01458e-07
1.01482e-07
1.02336e-07
1.01017e-07
1.04893e-07
1.09997e-07
1.02957e-07
1.11014e-07
1.07423e-07
1.0743e-07
1.09302e-07
1.07658e-07
1.08384e-07
1.06872e-07
1.05668e-07
1.06012e-07
1.04862e-07
1.05041e-07
1.05191e-07
1.05206e-07
1.06076e-07
1.05872e-07
1.05924e-07
1.05611e-07
1.04966e-07
1.04565e-07
1.03779e-07
1.03443e-07
1.03211e-07
1.02993e-07
1.0289e-07
1.02584e-07
1.02456e-07
1.02293e-07
1.02158e-07
1.02263e-07
1.02241e-07
1.02418e-07
1.0233e-07
1.02001e-07
1.01661e-07
1.00802e-07
1.00403e-07
9.9853e-08
9.96514e-08
1.00083e-07
1.00236e-07
1.01294e-07
1.01766e-07
1.02313e-07
1.02831e-07
1.0235e-07
1.02351e-07
1.01386e-07
1.00672e-07
1.00082e-07
9.94151e-08
9.94712e-08
9.98047e-08
1.00219e-07
1.01361e-07
1.01404e-07
1.02281e-07
1.00999e-07
1.05091e-07
1.09993e-07
1.03e-07
1.10978e-07
1.07302e-07
1.07496e-07
1.09306e-07
1.07649e-07
1.08487e-07
1.06956e-07
1.05805e-07
1.06134e-07
1.04928e-07
1.05125e-07
1.05205e-07
1.05207e-07
1.06064e-07
1.05853e-07
1.05953e-07
1.05651e-07
1.05036e-07
1.04648e-07
1.03862e-07
1.03527e-07
1.03273e-07
1.0305e-07
1.02943e-07
1.02635e-07
1.02506e-07
1.02328e-07
1.02186e-07
1.02272e-07
1.02244e-07
1.02422e-07
1.02347e-07
1.02051e-07
1.01731e-07
1.00901e-07
1.005e-07
9.99284e-08
9.96998e-08
1.00068e-07
1.00189e-07
1.01201e-07
1.01659e-07
1.02227e-07
1.02761e-07
1.02347e-07
1.02389e-07
1.01475e-07
1.00793e-07
1.00196e-07
9.951e-08
9.95164e-08
9.97891e-08
1.00161e-07
1.01267e-07
1.01325e-07
1.02225e-07
1.0098e-07
1.05288e-07
1.09981e-07
1.03058e-07
1.10945e-07
1.07181e-07
1.07565e-07
1.09301e-07
1.07636e-07
1.08586e-07
1.07032e-07
1.05943e-07
1.06255e-07
1.05001e-07
1.05218e-07
1.05225e-07
1.05215e-07
1.06055e-07
1.05834e-07
1.0598e-07
1.05686e-07
1.05103e-07
1.0473e-07
1.03946e-07
1.03613e-07
1.03337e-07
1.0311e-07
1.02997e-07
1.02689e-07
1.02558e-07
1.02367e-07
1.02217e-07
1.02284e-07
1.02249e-07
1.02426e-07
1.02361e-07
1.02097e-07
1.01798e-07
1.00999e-07
1.00599e-07
1.00011e-07
9.97565e-08
1.00064e-07
1.0015e-07
1.01113e-07
1.01553e-07
1.02136e-07
1.02683e-07
1.02334e-07
1.02417e-07
1.01557e-07
1.0091e-07
1.00314e-07
9.96124e-08
9.95725e-08
9.97849e-08
1.00112e-07
1.01179e-07
1.01246e-07
1.02167e-07
1.0096e-07
1.05486e-07
1.09962e-07
1.03133e-07
1.10914e-07
1.0706e-07
1.07638e-07
1.09286e-07
1.07621e-07
1.08681e-07
1.071e-07
1.06084e-07
1.06376e-07
1.05078e-07
1.05319e-07
1.0525e-07
1.05231e-07
1.06047e-07
1.05817e-07
1.06006e-07
1.05719e-07
1.0517e-07
1.04811e-07
1.04031e-07
1.03702e-07
1.03404e-07
1.03172e-07
1.03053e-07
1.02745e-07
1.02612e-07
1.02409e-07
1.02251e-07
1.02299e-07
1.02255e-07
1.02429e-07
1.02372e-07
1.02139e-07
1.01861e-07
1.01096e-07
1.007e-07
1.00099e-07
9.98213e-08
1.00069e-07
1.0012e-07
1.01031e-07
1.0145e-07
1.02041e-07
1.02598e-07
1.0231e-07
1.02434e-07
1.01632e-07
1.01023e-07
1.00434e-07
9.97215e-08
9.96391e-08
9.97923e-08
1.00073e-07
1.01096e-07
1.01169e-07
1.02109e-07
1.00939e-07
1.05683e-07
1.09934e-07
1.03225e-07
1.10886e-07
1.06941e-07
1.07714e-07
1.09262e-07
1.07604e-07
1.08772e-07
1.07159e-07
1.06225e-07
1.06494e-07
1.0516e-07
1.05427e-07
1.0528e-07
1.05256e-07
1.06043e-07
1.058e-07
1.06031e-07
1.05748e-07
1.05235e-07
1.0489e-07
1.04117e-07
1.03793e-07
1.03473e-07
1.03237e-07
1.0311e-07
1.02802e-07
1.02668e-07
1.02453e-07
1.02288e-07
1.02316e-07
1.02264e-07
1.02431e-07
1.02382e-07
1.02177e-07
1.0192e-07
1.01191e-07
1.00801e-07
1.00192e-07
9.98937e-08
1.00085e-07
1.001e-07
1.00955e-07
1.01349e-07
1.01943e-07
1.02507e-07
1.02276e-07
1.0244e-07
1.01698e-07
1.01131e-07
1.00554e-07
9.98364e-08
9.97157e-08
9.98113e-08
1.00044e-07
1.0102e-07
1.01093e-07
1.0205e-07
1.00918e-07
1.0588e-07
1.09898e-07
1.03335e-07
1.10858e-07
1.06825e-07
1.07796e-07
1.09228e-07
1.07586e-07
1.08856e-07
1.0721e-07
1.06368e-07
1.06608e-07
1.05247e-07
1.0554e-07
1.05315e-07
1.05289e-07
1.06042e-07
1.05786e-07
1.06056e-07
1.05774e-07
1.05298e-07
1.04967e-07
1.04203e-07
1.03885e-07
1.03544e-07
1.03305e-07
1.0317e-07
1.02861e-07
1.02726e-07
1.025e-07
1.02329e-07
1.02337e-07
1.02274e-07
1.02434e-07
1.0239e-07
1.0221e-07
1.01975e-07
1.01283e-07
1.00903e-07
1.0029e-07
9.99733e-08
1.00111e-07
1.0009e-07
1.00886e-07
1.01253e-07
1.01843e-07
1.0241e-07
1.02232e-07
1.02435e-07
1.01754e-07
1.01233e-07
1.00674e-07