/*--------------------------------*- C++ -*----------------------------------*\
| =========                 |                                                 |
| \\      /  F ield         | foam-extend: Open Source CFD                    |
|  \\    /   O peration     | Version:     4.0                                |
|   \\  /    A nd           | Web:         http://www.foam-extend.org         |
|    \\/     M anipulation  |                                                 |
\*---------------------------------------------------------------------------*/
FoamFile
{
    version     2.0;
    format      ascii;
    class       volScalarField;
    location    "1760";
    object      cPlus;
}
// * * * * * * * * * * * * * * * * * * * * * * * * * * * * * * * * * * * * * //

dimensions      [0 0 0 0 0 0 0];

internalField   nonuniform List<scalar> 
6960
(
0.330165
0.330155
0.330142
0.33013
0.330118
0.330106
0.330096
0.330086
0.330078
0.33007
0.330063
0.330057
0.330052
0.330047
0.330043
0.330039
0.330036
0.330033
0.33003
0.330028
0.330026
0.330025
0.330024
0.330022
0.330022
0.330021
0.33002
0.33002
0.33002
0.330019
0.330019
0.33002
0.33002
0.33002
0.330021
0.330022
0.330022
0.330024
0.330025
0.330026
0.330028
0.33003
0.330033
0.330036
0.330039
0.330043
0.330047
0.330052
0.330057
0.330063
0.33007
0.330078
0.330086
0.330096
0.330106
0.330118
0.33013
0.330142
0.330155
0.330165
0.110524
0.110517
0.110508
0.110498
0.110489
0.110481
0.110473
0.110466
0.11046
0.110454
0.110449
0.110444
0.11044
0.110437
0.110433
0.110431
0.110428
0.110426
0.110424
0.110423
0.110421
0.11042
0.110419
0.110418
0.110418
0.110417
0.110417
0.110416
0.110416
0.110416
0.110416
0.110416
0.110416
0.110417
0.110417
0.110418
0.110418
0.110419
0.11042
0.110421
0.110423
0.110424
0.110426
0.110428
0.110431
0.110433
0.110437
0.11044
0.110444
0.110449
0.110454
0.11046
0.110466
0.110473
0.110481
0.110489
0.110498
0.110508
0.110517
0.110524
0.0438987
0.0438945
0.043889
0.0438835
0.0438781
0.0438731
0.0438686
0.0438644
0.0438607
0.0438573
0.0438543
0.0438516
0.0438493
0.0438472
0.0438453
0.0438437
0.0438422
0.043841
0.0438399
0.043839
0.0438382
0.0438375
0.0438369
0.0438364
0.043836
0.0438357
0.0438354
0.0438352
0.0438351
0.0438351
0.0438351
0.0438351
0.0438352
0.0438354
0.0438357
0.043836
0.0438364
0.0438369
0.0438375
0.0438382
0.043839
0.0438399
0.043841
0.0438422
0.0438437
0.0438453
0.0438472
0.0438493
0.0438516
0.0438543
0.0438573
0.0438607
0.0438644
0.0438686
0.0438731
0.0438781
0.0438835
0.043889
0.0438945
0.0438987
0.0198591
0.0198573
0.0198547
0.019852
0.0198494
0.019847
0.0198448
0.0198428
0.0198409
0.0198393
0.0198378
0.0198365
0.0198354
0.0198343
0.0198334
0.0198326
0.0198319
0.0198313
0.0198308
0.0198303
0.0198299
0.0198296
0.0198293
0.0198291
0.0198289
0.0198287
0.0198286
0.0198285
0.0198284
0.0198284
0.0198284
0.0198284
0.0198285
0.0198286
0.0198287
0.0198289
0.0198291
0.0198293
0.0198296
0.0198299
0.0198303
0.0198308
0.0198313
0.0198319
0.0198326
0.0198334
0.0198343
0.0198354
0.0198365
0.0198378
0.0198393
0.0198409
0.0198428
0.0198448
0.019847
0.0198494
0.019852
0.0198547
0.0198573
0.0198591
0.0107285
0.0107281
0.0107273
0.0107264
0.0107255
0.0107246
0.0107239
0.0107232
0.0107225
0.0107219
0.0107214
0.010721
0.0107206
0.0107202
0.0107199
0.0107196
0.0107194
0.0107192
0.010719
0.0107188
0.0107187
0.0107185
0.0107184
0.0107184
0.0107183
0.0107182
0.0107182
0.0107182
0.0107181
0.0107181
0.0107181
0.0107181
0.0107182
0.0107182
0.0107182
0.0107183
0.0107184
0.0107184
0.0107185
0.0107187
0.0107188
0.010719
0.0107192
0.0107194
0.0107196
0.0107199
0.0107202
0.0107206
0.010721
0.0107214
0.0107219
0.0107225
0.0107232
0.0107239
0.0107246
0.0107255
0.0107264
0.0107273
0.0107281
0.0107285
0.00725277
0.00725315
0.00725329
0.00725336
0.0072534
0.00725343
0.00725346
0.00725348
0.00725349
0.00725351
0.00725352
0.00725353
0.00725354
0.00725355
0.00725355
0.00725356
0.00725356
0.00725356
0.00725357
0.00725357
0.00725357
0.00725357
0.00725357
0.00725358
0.00725358
0.00725358
0.00725358
0.00725358
0.00725358
0.00725358
0.00725358
0.00725358
0.00725358
0.00725358
0.00725358
0.00725358
0.00725358
0.00725357
0.00725357
0.00725357
0.00725357
0.00725357
0.00725356
0.00725356
0.00725356
0.00725355
0.00725355
0.00725354
0.00725353
0.00725352
0.00725351
0.00725349
0.00725348
0.00725346
0.00725343
0.0072534
0.00725336
0.00725329
0.00725315
0.00725277
0.00596233
0.00596312
0.00596375
0.00596432
0.00596484
0.00596531
0.00596574
0.00596612
0.00596647
0.00596678
0.00596706
0.00596731
0.00596753
0.00596772
0.00596789
0.00596804
0.00596817
0.00596829
0.00596838
0.00596847
0.00596854
0.00596861
0.00596866
0.0059687
0.00596874
0.00596877
0.00596879
0.00596881
0.00596882
0.00596882
0.00596882
0.00596882
0.00596881
0.00596879
0.00596877
0.00596874
0.0059687
0.00596866
0.00596861
0.00596854
0.00596847
0.00596838
0.00596829
0.00596817
0.00596804
0.00596789
0.00596772
0.00596753
0.00596731
0.00596706
0.00596678
0.00596647
0.00596612
0.00596574
0.00596531
0.00596484
0.00596432
0.00596375
0.00596312
0.00596233
0.00551075
0.00551174
0.00551261
0.00551342
0.00551416
0.00551484
0.00551546
0.00551602
0.00551653
0.00551699
0.00551739
0.00551775
0.00551807
0.00551836
0.00551861
0.00551882
0.00551902
0.00551918
0.00551933
0.00551945
0.00551956
0.00551965
0.00551973
0.00551979
0.00551985
0.00551989
0.00551992
0.00551995
0.00551996
0.00551997
0.00551997
0.00551996
0.00551995
0.00551992
0.00551989
0.00551985
0.00551979
0.00551973
0.00551965
0.00551956
0.00551945
0.00551933
0.00551918
0.00551902
0.00551882
0.00551861
0.00551836
0.00551807
0.00551775
0.00551739
0.00551699
0.00551653
0.00551602
0.00551546
0.00551484
0.00551416
0.00551342
0.00551261
0.00551174
0.00551075
0.00537621
0.00537729
0.00537827
0.00537919
0.00538004
0.00538082
0.00538153
0.00538218
0.00538276
0.00538328
0.00538375
0.00538416
0.00538453
0.00538485
0.00538514
0.00538539
0.00538561
0.0053858
0.00538597
0.00538611
0.00538623
0.00538634
0.00538643
0.0053865
0.00538656
0.00538661
0.00538665
0.00538668
0.0053867
0.00538671
0.00538671
0.0053867
0.00538668
0.00538665
0.00538661
0.00538656
0.0053865
0.00538643
0.00538634
0.00538623
0.00538611
0.00538597
0.0053858
0.00538561
0.00538539
0.00538514
0.00538485
0.00538453
0.00538416
0.00538375
0.00538328
0.00538276
0.00538218
0.00538153
0.00538082
0.00538004
0.00537919
0.00537827
0.00537729
0.00537621
0.00535986
0.00536099
0.00536203
0.005363
0.0053639
0.00536473
0.00536549
0.00536617
0.00536679
0.00536734
0.00536784
0.00536828
0.00536867
0.00536902
0.00536932
0.00536959
0.00536982
0.00537002
0.0053702
0.00537035
0.00537048
0.0053706
0.00537069
0.00537077
0.00537084
0.00537089
0.00537093
0.00537096
0.00537098
0.00537099
0.00537099
0.00537098
0.00537096
0.00537093
0.00537089
0.00537084
0.00537077
0.00537069
0.0053706
0.00537048
0.00537035
0.0053702
0.00537002
0.00536982
0.00536959
0.00536932
0.00536902
0.00536867
0.00536828
0.00536784
0.00536734
0.00536679
0.00536617
0.00536549
0.00536473
0.0053639
0.005363
0.00536203
0.00536099
0.00535986
0.00538776
0.00538892
0.00538999
0.00539099
0.00539192
0.00539278
0.00539356
0.00539427
0.00539491
0.00539548
0.00539599
0.00539644
0.00539685
0.0053972
0.00539752
0.00539779
0.00539804
0.00539825
0.00539843
0.00539859
0.00539872
0.00539884
0.00539894
0.00539902
0.00539909
0.00539914
0.00539918
0.00539922
0.00539924
0.00539925
0.00539925
0.00539924
0.00539922
0.00539918
0.00539914
0.00539909
0.00539902
0.00539894
0.00539884
0.00539872
0.00539859
0.00539843
0.00539825
0.00539804
0.00539779
0.00539752
0.0053972
0.00539685
0.00539644
0.00539599
0.00539548
0.00539491
0.00539427
0.00539356
0.00539278
0.00539192
0.00539099
0.00538999
0.00538892
0.00538776
0.00543321
0.00543439
0.00543549
0.00543651
0.00543747
0.00543834
0.00543914
0.00543986
0.00544051
0.0054411
0.00544162
0.00544209
0.0054425
0.00544287
0.00544319
0.00544347
0.00544372
0.00544393
0.00544412
0.00544428
0.00544442
0.00544454
0.00544464
0.00544472
0.00544479
0.00544485
0.00544489
0.00544492
0.00544494
0.00544495
0.00544495
0.00544494
0.00544492
0.00544489
0.00544485
0.00544479
0.00544472
0.00544464
0.00544454
0.00544442
0.00544428
0.00544412
0.00544393
0.00544372
0.00544347
0.00544319
0.00544287
0.0054425
0.00544209
0.00544162
0.0054411
0.00544051
0.00543986
0.00543914
0.00543834
0.00543747
0.00543651
0.00543549
0.00543439
0.00543321
0.00548696
0.00548817
0.00548929
0.00549033
0.0054913
0.00549219
0.00549301
0.00549374
0.00549441
0.005495
0.00549554
0.00549601
0.00549643
0.0054968
0.00549713
0.00549742
0.00549767
0.00549789
0.00549808
0.00549825
0.00549839
0.00549851
0.00549861
0.0054987
0.00549877
0.00549882
0.00549887
0.0054989
0.00549892
0.00549893
0.00549893
0.00549892
0.0054989
0.00549887
0.00549882
0.00549877
0.0054987
0.00549861
0.00549851
0.00549839
0.00549825
0.00549808
0.00549789
0.00549767
0.00549742
0.00549713
0.0054968
0.00549643
0.00549601
0.00549554
0.005495
0.00549441
0.00549374
0.00549301
0.00549219
0.0054913
0.00549033
0.00548929
0.00548817
0.00548696
0.00554605
0.00554728
0.00554842
0.00554948
0.00555047
0.00555138
0.00555221
0.00555296
0.00555363
0.00555424
0.00555478
0.00555527
0.0055557
0.00555607
0.00555641
0.0055567
0.00555696
0.00555718
0.00555738
0.00555754
0.00555769
0.00555781
0.00555792
0.005558
0.00555808
0.00555813
0.00555818
0.00555821
0.00555823
0.00555824
0.00555824
0.00555823
0.00555821
0.00555818
0.00555813
0.00555808
0.005558
0.00555792
0.00555781
0.00555769
0.00555754
0.00555738
0.00555718
0.00555696
0.0055567
0.00555641
0.00555607
0.0055557
0.00555527
0.00555478
0.00555424
0.00555363
0.00555296
0.00555221
0.00555138
0.00555047
0.00554948
0.00554842
0.00554728
0.00554605
0.00560972
0.00561098
0.00561213
0.00561322
0.00561422
0.00561515
0.00561599
0.00561676
0.00561745
0.00561806
0.00561862
0.00561911
0.00561955
0.00561993
0.00562027
0.00562057
0.00562083
0.00562106
0.00562126
0.00562143
0.00562158
0.00562171
0.00562181
0.0056219
0.00562198
0.00562203
0.00562208
0.00562211
0.00562214
0.00562215
0.00562215
0.00562214
0.00562211
0.00562208
0.00562203
0.00562198
0.0056219
0.00562181
0.00562171
0.00562158
0.00562143
0.00562126
0.00562106
0.00562083
0.00562057
0.00562027
0.00561993
0.00561955
0.00561911
0.00561862
0.00561806
0.00561745
0.00561676
0.00561599
0.00561515
0.00561422
0.00561322
0.00561213
0.00561098
0.00560972
0.005678
0.00567928
0.00568046
0.00568157
0.00568259
0.00568354
0.0056844
0.00568518
0.00568588
0.00568651
0.00568708
0.00568758
0.00568803
0.00568842
0.00568877
0.00568907
0.00568934
0.00568957
0.00568977
0.00568995
0.0056901
0.00569023
0.00569034
0.00569043
0.0056905
0.00569056
0.00569061
0.00569065
0.00569067
0.00569068
0.00569068
0.00569067
0.00569065
0.00569061
0.00569056
0.0056905
0.00569043
0.00569034
0.00569023
0.0056901
0.00568995
0.00568977
0.00568957
0.00568934
0.00568907
0.00568877
0.00568842
0.00568803
0.00568758
0.00568708
0.00568651
0.00568588
0.00568518
0.0056844
0.00568354
0.00568259
0.00568157
0.00568046
0.00567928
0.005678
0.00575122
0.00575253
0.00575374
0.00575487
0.00575591
0.00575688
0.00575776
0.00575855
0.00575927
0.00575992
0.00576049
0.00576101
0.00576146
0.00576186
0.00576222
0.00576253
0.0057628
0.00576304
0.00576325
0.00576343
0.00576358
0.00576371
0.00576382
0.00576392
0.00576399
0.00576405
0.0057641
0.00576414
0.00576416
0.00576417
0.00576417
0.00576416
0.00576414
0.0057641
0.00576405
0.00576399
0.00576392
0.00576382
0.00576371
0.00576358
0.00576343
0.00576325
0.00576304
0.0057628
0.00576253
0.00576222
0.00576186
0.00576146
0.00576101
0.00576049
0.00575992
0.00575927
0.00575855
0.00575776
0.00575688
0.00575591
0.00575487
0.00575374
0.00575253
0.00575122
0.00582985
0.00583119
0.00583243
0.00583358
0.00583465
0.00583564
0.00583654
0.00583735
0.00583809
0.00583874
0.00583933
0.00583986
0.00584033
0.00584074
0.0058411
0.00584142
0.0058417
0.00584194
0.00584215
0.00584234
0.00584249
0.00584263
0.00584274
0.00584284
0.00584292
0.00584298
0.00584303
0.00584306
0.00584309
0.0058431
0.0058431
0.00584309
0.00584306
0.00584303
0.00584298
0.00584292
0.00584284
0.00584274
0.00584263
0.00584249
0.00584234
0.00584215
0.00584194
0.0058417
0.00584142
0.0058411
0.00584074
0.00584033
0.00583986
0.00583933
0.00583874
0.00583809
0.00583735
0.00583654
0.00583564
0.00583465
0.00583358
0.00583243
0.00583119
0.00582985
0.00591446
0.00591584
0.0059171
0.00591828
0.00591938
0.00592039
0.00592131
0.00592214
0.0059229
0.00592357
0.00592417
0.00592471
0.00592519
0.00592561
0.00592598
0.00592631
0.0059266
0.00592685
0.00592706
0.00592725
0.00592741
0.00592755
0.00592767
0.00592776
0.00592784
0.00592791
0.00592796
0.005928
0.00592802
0.00592803
0.00592803
0.00592802
0.005928
0.00592796
0.00592791
0.00592784
0.00592776
0.00592767
0.00592755
0.00592741
0.00592725
0.00592706
0.00592685
0.0059266
0.00592631
0.00592598
0.00592561
0.00592519
0.00592471
0.00592417
0.00592357
0.0059229
0.00592214
0.00592131
0.00592039
0.00591938
0.00591828
0.0059171
0.00591584
0.00591446
0.00600572
0.00600713
0.00600842
0.00600964
0.00601076
0.0060118
0.00601274
0.0060136
0.00601437
0.00601506
0.00601568
0.00601623
0.00601672
0.00601715
0.00601754
0.00601787
0.00601817
0.00601842
0.00601864
0.00601884
0.006019
0.00601914
0.00601926
0.00601936
0.00601945
0.00601951
0.00601957
0.0060196
0.00601963
0.00601964
0.00601964
0.00601963
0.0060196
0.00601957
0.00601951
0.00601945
0.00601936
0.00601926
0.00601914
0.006019
0.00601884
0.00601864
0.00601842
0.00601817
0.00601787
0.00601754
0.00601715
0.00601672
0.00601623
0.00601568
0.00601506
0.00601437
0.0060136
0.00601274
0.0060118
0.00601076
0.00600964
0.00600842
0.00600713
0.00600572
0.00610439
0.00610584
0.00610717
0.00610842
0.00610957
0.00611064
0.00611161
0.00611249
0.00611328
0.00611399
0.00611463
0.0061152
0.0061157
0.00611615
0.00611654
0.00611688
0.00611718
0.00611745
0.00611768
0.00611787
0.00611804
0.00611819
0.00611831
0.00611842
0.0061185
0.00611857
0.00611862
0.00611866
0.00611869
0.0061187
0.0061187
0.00611869
0.00611866
0.00611862
0.00611857
0.0061185
0.00611842
0.00611831
0.00611819
0.00611804
0.00611787
0.00611768
0.00611745
0.00611718
0.00611688
0.00611654
0.00611615
0.0061157
0.0061152
0.00611463
0.00611399
0.00611328
0.00611249
0.00611161
0.00611064
0.00610957
0.00610842
0.00610717
0.00610584
0.00610439
0.00621138
0.00621288
0.00621425
0.00621553
0.00621672
0.00621782
0.00621882
0.00621972
0.00622054
0.00622127
0.00622193
0.00622251
0.00622303
0.00622349
0.0062239
0.00622425
0.00622456
0.00622483
0.00622507
0.00622527
0.00622545
0.0062256
0.00622573
0.00622583
0.00622592
0.00622599
0.00622605
0.00622609
0.00622611
0.00622613
0.00622613
0.00622611
0.00622609
0.00622605
0.00622599
0.00622592
0.00622583
0.00622573
0.0062256
0.00622545
0.00622527
0.00622507
0.00622483
0.00622456
0.00622425
0.0062239
0.00622349
0.00622303
0.00622251
0.00622193
0.00622127
0.00622054
0.00621972
0.00621882
0.00621782
0.00621672
0.00621553
0.00621425
0.00621288
0.00621138
0.00632776
0.00632931
0.00633073
0.00633205
0.00633328
0.00633441
0.00633544
0.00633638
0.00633722
0.00633798
0.00633865
0.00633926
0.00633979
0.00634027
0.00634068
0.00634105
0.00634137
0.00634165
0.0063419
0.00634211
0.00634229
0.00634244
0.00634257
0.00634268
0.00634278
0.00634285
0.00634291
0.00634295
0.00634297
0.00634299
0.00634299
0.00634297
0.00634295
0.00634291
0.00634285
0.00634278
0.00634268
0.00634257
0.00634244
0.00634229
0.00634211
0.0063419
0.00634165
0.00634137
0.00634105
0.00634068
0.00634027
0.00633979
0.00633926
0.00633865
0.00633798
0.00633722
0.00633638
0.00633544
0.00633441
0.00633328
0.00633205
0.00633073
0.00632931
0.00632776
0.00645479
0.0064564
0.00645786
0.00645923
0.00646051
0.00646168
0.00646274
0.00646371
0.00646458
0.00646537
0.00646607
0.00646669
0.00646725
0.00646774
0.00646817
0.00646855
0.00646888
0.00646917
0.00646942
0.00646964
0.00646983
0.00646999
0.00647013
0.00647024
0.00647033
0.00647041
0.00647047
0.00647051
0.00647054
0.00647056
0.00647056
0.00647054
0.00647051
0.00647047
0.00647041
0.00647033
0.00647024
0.00647013
0.00646999
0.00646983
0.00646964
0.00646942
0.00646917
0.00646888
0.00646855
0.00646817
0.00646774
0.00646725
0.00646669
0.00646607
0.00646537
0.00646458
0.00646371
0.00646274
0.00646168
0.00646051
0.00645923
0.00645786
0.0064564
0.00645479
0.00659398
0.00659565
0.00659717
0.00659859
0.00659991
0.00660113
0.00660223
0.00660324
0.00660414
0.00660496
0.00660568
0.00660633
0.00660691
0.00660742
0.00660787
0.00660826
0.00660861
0.00660891
0.00660917
0.0066094
0.00660959
0.00660976
0.0066099
0.00661002
0.00661012
0.00661019
0.00661026
0.0066103
0.00661033
0.00661035
0.00661035
0.00661033
0.0066103
0.00661026
0.00661019
0.00661012
0.00661002
0.0066099
0.00660976
0.00660959
0.0066094
0.00660917
0.00660891
0.00660861
0.00660826
0.00660787
0.00660742
0.00660691
0.00660633
0.00660568
0.00660496
0.00660414
0.00660324
0.00660223
0.00660113
0.00659991
0.00659859
0.00659717
0.00659565
0.00659398
0.00674714
0.00674888
0.00675047
0.00675195
0.00675332
0.00675459
0.00675574
0.00675678
0.00675773
0.00675857
0.00675933
0.00676001
0.00676061
0.00676114
0.0067616
0.00676202
0.00676238
0.00676269
0.00676296
0.0067632
0.0067634
0.00676358
0.00676372
0.00676385
0.00676395
0.00676403
0.00676409
0.00676414
0.00676417
0.00676419
0.00676419
0.00676417
0.00676414
0.00676409
0.00676403
0.00676395
0.00676385
0.00676372
0.00676358
0.0067634
0.0067632
0.00676296
0.00676269
0.00676238
0.00676202
0.0067616
0.00676114
0.00676061
0.00676001
0.00675933
0.00675857
0.00675773
0.00675678
0.00675574
0.00675459
0.00675332
0.00675195
0.00675047
0.00674888
0.00674714
0.00691649
0.00691831
0.00691997
0.00692152
0.00692295
0.00692427
0.00692547
0.00692657
0.00692755
0.00692844
0.00692923
0.00692994
0.00693056
0.00693112
0.00693161
0.00693204
0.00693241
0.00693274
0.00693303
0.00693327
0.00693349
0.00693367
0.00693382
0.00693395
0.00693406
0.00693414
0.00693421
0.00693426
0.00693429
0.00693431
0.00693431
0.00693429
0.00693426
0.00693421
0.00693414
0.00693406
0.00693395
0.00693382
0.00693367
0.00693349
0.00693327
0.00693303
0.00693274
0.00693241
0.00693204
0.00693161
0.00693112
0.00693056
0.00692994
0.00692923
0.00692844
0.00692755
0.00692657
0.00692547
0.00692427
0.00692295
0.00692152
0.00691997
0.00691831
0.00691649
0.00710474
0.00710665
0.00710839
0.00711002
0.00711153
0.00711291
0.00711417
0.00711532
0.00711635
0.00711728
0.00711812
0.00711886
0.00711951
0.0071201
0.00712061
0.00712106
0.00712146
0.0071218
0.0071221
0.00712236
0.00712258
0.00712278
0.00712294
0.00712307
0.00712319
0.00712328
0.00712335
0.0071234
0.00712343
0.00712345
0.00712345
0.00712343
0.0071234
0.00712335
0.00712328
0.00712319
0.00712307
0.00712294
0.00712278
0.00712258
0.00712236
0.0071221
0.0071218
0.00712146
0.00712106
0.00712061
0.0071201
0.00711951
0.00711886
0.00711812
0.00711728
0.00711635
0.00711532
0.00711417
0.00711291
0.00711153
0.00711002
0.00710839
0.00710665
0.00710474
0.00731529
0.00731731
0.00731914
0.00732086
0.00732244
0.0073239
0.00732524
0.00732645
0.00732754
0.00732852
0.00732939
0.00733018
0.00733087
0.00733148
0.00733203
0.0073325
0.00733292
0.00733328
0.0073336
0.00733387
0.00733411
0.00733431
0.00733448
0.00733463
0.00733474
0.00733484
0.00733491
0.00733497
0.007335
0.00733502
0.00733502
0.007335
0.00733497
0.00733491
0.00733484
0.00733474
0.00733463
0.00733448
0.00733431
0.00733411
0.00733387
0.0073336
0.00733328
0.00733292
0.0073325
0.00733203
0.00733148
0.00733087
0.00733018
0.00732939
0.00732852
0.00732754
0.00732645
0.00732524
0.0073239
0.00732244
0.00732086
0.00731914
0.00731731
0.00731529
0.00755241
0.00755455
0.00755649
0.00755831
0.00756
0.00756154
0.00756296
0.00756424
0.0075654
0.00756644
0.00756737
0.0075682
0.00756893
0.00756959
0.00757016
0.00757067
0.00757111
0.0075715
0.00757183
0.00757212
0.00757237
0.00757259
0.00757277
0.00757292
0.00757305
0.00757315
0.00757323
0.00757328
0.00757332
0.00757334
0.00757334
0.00757332
0.00757328
0.00757323
0.00757315
0.00757305
0.00757292
0.00757277
0.00757259
0.00757237
0.00757212
0.00757183
0.0075715
0.00757111
0.00757067
0.00757016
0.00756959
0.00756893
0.0075682
0.00756737
0.00756644
0.0075654
0.00756424
0.00756296
0.00756154
0.00756
0.00755831
0.00755649
0.00755455
0.00755241
0.00782158
0.00782387
0.00782594
0.00782788
0.00782968
0.00783134
0.00783284
0.00783421
0.00783545
0.00783656
0.00783755
0.00783844
0.00783923
0.00783992
0.00784054
0.00784108
0.00784155
0.00784196
0.00784232
0.00784263
0.0078429
0.00784313
0.00784332
0.00784349
0.00784362
0.00784373
0.00784381
0.00784387
0.00784391
0.00784393
0.00784393
0.00784391
0.00784387
0.00784381
0.00784373
0.00784362
0.00784349
0.00784332
0.00784313
0.0078429
0.00784263
0.00784232
0.00784196
0.00784155
0.00784108
0.00784054
0.00783992
0.00783923
0.00783844
0.00783755
0.00783656
0.00783545
0.00783421
0.00783284
0.00783134
0.00782968
0.00782788
0.00782594
0.00782387
0.00782158
0.00812997
0.00813242
0.00813466
0.00813674
0.00813868
0.00814046
0.00814208
0.00814356
0.00814489
0.00814608
0.00814715
0.0081481
0.00814895
0.0081497
0.00815036
0.00815094
0.00815145
0.0081519
0.00815229
0.00815262
0.00815291
0.00815315
0.00815336
0.00815354
0.00815368
0.0081538
0.00815389
0.00815396
0.008154
0.00815402
0.00815402
0.008154
0.00815396
0.00815389
0.0081538
0.00815368
0.00815354
0.00815336
0.00815315
0.00815291
0.00815262
0.00815229
0.0081519
0.00815145
0.00815094
0.00815036
0.0081497
0.00814895
0.0081481
0.00814715
0.00814608
0.00814489
0.00814356
0.00814208
0.00814046
0.00813868
0.00813674
0.00813466
0.00813242
0.00812997
0.00848708
0.00848974
0.00849217
0.00849443
0.00849653
0.00849847
0.00850023
0.00850183
0.00850328
0.00850458
0.00850574
0.00850678
0.0085077
0.00850851
0.00850923
0.00850986
0.00851042
0.0085109
0.00851132
0.00851169
0.008512
0.00851227
0.0085125
0.00851269
0.00851284
0.00851297
0.00851307
0.00851314
0.00851319
0.00851321
0.00851321
0.00851319
0.00851314
0.00851307
0.00851297
0.00851284
0.00851269
0.0085125
0.00851227
0.008512
0.00851169
0.00851132
0.0085109
0.00851042
0.00850986
0.00850923
0.00850851
0.0085077
0.00850678
0.00850574
0.00850458
0.00850328
0.00850183
0.00850023
0.00849847
0.00849653
0.00849443
0.00849217
0.00848974
0.00848708
0.00890585
0.00890878
0.00891144
0.00891393
0.00891624
0.00891836
0.0089203
0.00892206
0.00892365
0.00892508
0.00892636
0.0089275
0.00892851
0.00892941
0.0089302
0.00893089
0.0089315
0.00893203
0.0089325
0.0089329
0.00893324
0.00893354
0.00893379
0.008934
0.00893417
0.00893431
0.00893442
0.0089345
0.00893455
0.00893458
0.00893458
0.00893455
0.0089345
0.00893442
0.00893431
0.00893417
0.008934
0.00893379
0.00893354
0.00893324
0.0089329
0.0089325
0.00893203
0.0089315
0.00893089
0.0089302
0.00892941
0.00892851
0.0089275
0.00892636
0.00892508
0.00892365
0.00892206
0.0089203
0.00891836
0.00891624
0.00891393
0.00891144
0.00890878
0.00890585
0.00940433
0.00940758
0.00941054
0.00941331
0.00941588
0.00941825
0.00942041
0.00942238
0.00942415
0.00942574
0.00942716
0.00942844
0.00942957
0.00943057
0.00943145
0.00943222
0.0094329
0.0094335
0.00943401
0.00943446
0.00943485
0.00943517
0.00943545
0.00943569
0.00943588
0.00943604
0.00943616
0.00943625
0.00943631
0.00943634
0.00943634
0.00943631
0.00943625
0.00943616
0.00943604
0.00943588
0.00943569
0.00943545
0.00943517
0.00943485
0.00943446
0.00943401
0.0094335
0.0094329
0.00943222
0.00943145
0.00943057
0.00942957
0.00942844
0.00942716
0.00942574
0.00942415
0.00942238
0.00942041
0.00941825
0.00941588
0.00941331
0.00941054
0.00940758
0.00940433
0.0100082
0.0100119
0.0100152
0.0100184
0.0100213
0.010024
0.0100264
0.0100287
0.0100307
0.0100325
0.0100341
0.0100355
0.0100368
0.010038
0.010039
0.0100398
0.0100406
0.0100413
0.0100419
0.0100424
0.0100428
0.0100432
0.0100435
0.0100438
0.010044
0.0100442
0.0100443
0.0100444
0.0100445
0.0100445
0.0100445
0.0100445
0.0100444
0.0100443
0.0100442
0.010044
0.0100438
0.0100435
0.0100432
0.0100428
0.0100424
0.0100419
0.0100413
0.0100406
0.0100398
0.010039
0.010038
0.0100368
0.0100355
0.0100341
0.0100325
0.0100307
0.0100287
0.0100264
0.010024
0.0100213
0.0100184
0.0100152
0.0100119
0.0100082
0.010755
0.0107592
0.0107631
0.0107667
0.0107701
0.0107732
0.010776
0.0107786
0.0107809
0.010783
0.0107849
0.0107866
0.010788
0.0107894
0.0107905
0.0107915
0.0107924
0.0107932
0.0107939
0.0107945
0.010795
0.0107954
0.0107958
0.0107961
0.0107964
0.0107966
0.0107967
0.0107968
0.0107969
0.010797
0.010797
0.0107969
0.0107968
0.0107967
0.0107966
0.0107964
0.0107961
0.0107958
0.0107954
0.010795
0.0107945
0.0107939
0.0107932
0.0107924
0.0107915
0.0107905
0.0107894
0.010788
0.0107866
0.0107849
0.010783
0.0107809
0.0107786
0.010776
0.0107732
0.0107701
0.0107667
0.0107631
0.0107592
0.010755
0.0116995
0.0117045
0.0117091
0.0117134
0.0117174
0.0117211
0.0117245
0.0117275
0.0117303
0.0117328
0.011735
0.011737
0.0117387
0.0117403
0.0117417
0.0117429
0.011744
0.0117449
0.0117457
0.0117464
0.011747
0.0117475
0.011748
0.0117483
0.0117486
0.0117489
0.0117491
0.0117492
0.0117493
0.0117493
0.0117493
0.0117493
0.0117492
0.0117491
0.0117489
0.0117486
0.0117483
0.011748
0.0117475
0.011747
0.0117464
0.0117457
0.0117449
0.011744
0.0117429
0.0117417
0.0117403
0.0117387
0.011737
0.011735
0.0117328
0.0117303
0.0117275
0.0117245
0.0117211
0.0117174
0.0117134
0.0117091
0.0117045
0.0116995
0.0129217
0.0129277
0.0129333
0.0129385
0.0129434
0.0129479
0.012952
0.0129557
0.0129591
0.0129621
0.0129648
0.0129672
0.0129694
0.0129713
0.0129729
0.0129744
0.0129757
0.0129768
0.0129778
0.0129787
0.0129794
0.01298
0.0129806
0.012981
0.0129814
0.0129817
0.0129819
0.0129821
0.0129822
0.0129823
0.0129823
0.0129822
0.0129821
0.0129819
0.0129817
0.0129814
0.012981
0.0129806
0.01298
0.0129794
0.0129787
0.0129778
0.0129768
0.0129757
0.0129744
0.0129729
0.0129713
0.0129694
0.0129672
0.0129648
0.0129621
0.0129591
0.0129557
0.012952
0.0129479
0.0129434
0.0129385
0.0129333
0.0129277
0.0129217
0.0145318
0.0145393
0.0145462
0.0145527
0.0145588
0.0145644
0.0145695
0.0145742
0.0145784
0.0145821
0.0145855
0.0145885
0.0145912
0.0145936
0.0145957
0.0145975
0.0145991
0.0146006
0.0146018
0.0146029
0.0146038
0.0146046
0.0146052
0.0146058
0.0146062
0.0146066
0.0146069
0.0146071
0.0146073
0.0146073
0.0146073
0.0146073
0.0146071
0.0146069
0.0146066
0.0146062
0.0146058
0.0146052
0.0146046
0.0146038
0.0146029
0.0146018
0.0146006
0.0145991
0.0145975
0.0145957
0.0145936
0.0145912
0.0145885
0.0145855
0.0145821
0.0145784
0.0145742
0.0145695
0.0145644
0.0145588
0.0145527
0.0145462
0.0145393
0.0145318
0.0166698
0.0166792
0.0166879
0.0166962
0.0167039
0.0167109
0.0167174
0.0167233
0.0167286
0.0167334
0.0167377
0.0167415
0.0167449
0.0167479
0.0167505
0.0167529
0.0167549
0.0167567
0.0167583
0.0167596
0.0167608
0.0167618
0.0167626
0.0167633
0.0167639
0.0167644
0.0167647
0.016765
0.0167652
0.0167653
0.0167653
0.0167652
0.016765
0.0167647
0.0167644
0.0167639
0.0167633
0.0167626
0.0167618
0.0167608
0.0167596
0.0167583
0.0167567
0.0167549
0.0167529
0.0167505
0.0167479
0.0167449
0.0167415
0.0167377
0.0167334
0.0167286
0.0167233
0.0167174
0.0167109
0.0167039
0.0166962
0.0166879
0.0166792
0.0166698
0.0194871
0.0194989
0.01951
0.0195205
0.0195302
0.0195392
0.0195473
0.0195548
0.0195615
0.0195675
0.019573
0.0195778
0.0195821
0.0195859
0.0195893
0.0195922
0.0195948
0.0195971
0.0195991
0.0196008
0.0196022
0.0196035
0.0196046
0.0196055
0.0196062
0.0196068
0.0196073
0.0196076
0.0196078
0.019608
0.019608
0.0196078
0.0196076
0.0196073
0.0196068
0.0196062
0.0196055
0.0196046
0.0196035
0.0196022
0.0196008
0.0195991
0.0195971
0.0195948
0.0195922
0.0195893
0.0195859
0.0195821
0.0195778
0.019573
0.0195675
0.0195615
0.0195548
0.0195473
0.0195392
0.0195302
0.0195205
0.01951
0.0194989
0.0194871
0.02311
0.0231248
0.0231386
0.0231516
0.0231638
0.023175
0.0231852
0.0231944
0.0232028
0.0232104
0.0232171
0.0232232
0.0232285
0.0232333
0.0232375
0.0232412
0.0232444
0.0232472
0.0232497
0.0232518
0.0232537
0.0232552
0.0232566
0.0232577
0.0232586
0.0232594
0.0232599
0.0232604
0.0232606
0.0232608
0.0232608
0.0232606
0.0232604
0.0232599
0.0232594
0.0232586
0.0232577
0.0232566
0.0232552
0.0232537
0.0232518
0.0232497
0.0232472
0.0232444
0.0232412
0.0232375
0.0232333
0.0232285
0.0232232
0.0232171
0.0232104
0.0232028
0.0231944
0.0231852
0.023175
0.0231638
0.0231516
0.0231386
0.0231248
0.02311
0.0275955
0.0276135
0.0276303
0.0276462
0.0276609
0.0276745
0.0276869
0.0276981
0.0277083
0.0277175
0.0277257
0.027733
0.0277395
0.0277453
0.0277504
0.0277549
0.0277588
0.0277622
0.0277652
0.0277678
0.0277701
0.027772
0.0277736
0.027775
0.0277761
0.027777
0.0277777
0.0277782
0.0277786
0.0277787
0.0277787
0.0277786
0.0277782
0.0277777
0.027777
0.0277761
0.027775
0.0277736
0.027772
0.0277701
0.0277678
0.0277652
0.0277622
0.0277588
0.0277549
0.0277504
0.0277453
0.0277395
0.027733
0.0277257
0.0277175
0.0277083
0.0276981
0.0276869
0.0276745
0.0276609
0.0276462
0.0276303
0.0276135
0.0275955
0.0329072
0.0329285
0.0329483
0.032967
0.0329843
0.0330002
0.0330148
0.033028
0.03304
0.0330508
0.0330604
0.033069
0.0330767
0.0330835
0.0330895
0.0330947
0.0330994
0.0331034
0.0331069
0.03311
0.0331126
0.0331149
0.0331168
0.0331184
0.0331197
0.0331208
0.0331216
0.0331222
0.0331226
0.0331228
0.0331228
0.0331226
0.0331222
0.0331216
0.0331208
0.0331197
0.0331184
0.0331168
0.0331149
0.0331126
0.03311
0.0331069
0.0331034
0.0330994
0.0330947
0.0330895
0.0330835
0.0330767
0.033069
0.0330604
0.0330508
0.03304
0.033028
0.0330148
0.0330002
0.0329843
0.032967
0.0329483
0.0329285
0.0329072
0.0389301
0.0389545
0.0389772
0.0389985
0.0390183
0.0390364
0.039053
0.0390681
0.0390818
0.039094
0.039105
0.0391148
0.0391236
0.0391313
0.0391382
0.0391442
0.0391495
0.0391541
0.0391581
0.0391616
0.0391646
0.0391672
0.0391693
0.0391712
0.0391727
0.0391739
0.0391749
0.0391756
0.039176
0.0391763
0.0391763
0.039176
0.0391756
0.0391749
0.0391739
0.0391727
0.0391712
0.0391693
0.0391672
0.0391646
0.0391616
0.0391581
0.0391541
0.0391495
0.0391442
0.0391382
0.0391313
0.0391236
0.0391148
0.039105
0.039094
0.0390818
0.0390681
0.039053
0.0390364
0.0390183
0.0389985
0.0389772
0.0389545
0.0389301
0.0455152
0.0455426
0.0455679
0.0455916
0.0456136
0.0456338
0.0456522
0.045669
0.0456842
0.0456978
0.04571
0.0457209
0.0457307
0.0457393
0.0457469
0.0457536
0.0457595