/*--------------------------------*- C++ -*----------------------------------*\
| =========                 |                                                 |
| \\      /  F ield         | foam-extend: Open Source CFD                    |
|  \\    /   O peration     | Version:     4.0                                |
|   \\  /    A nd           | Web:         http://www.foam-extend.org         |
|    \\/     M anipulation  |                                                 |
\*---------------------------------------------------------------------------*/
FoamFile
{
    version     2.0;
    format      ascii;
    class       volScalarField;
    location    "420";
    object      cPlus;
}
// * * * * * * * * * * * * * * * * * * * * * * * * * * * * * * * * * * * * * //

dimensions      [0 0 0 0 0 0 0];

internalField   nonuniform List<scalar> 
6960
(
0.191254
0.191173
0.191143
0.191133
0.191129
0.191128
0.191128
0.191128
0.191129
0.191129
0.191129
0.19113
0.19113
0.19113
0.191131
0.191131
0.191131
0.191132
0.191132
0.191132
0.191132
0.191133
0.191133
0.191133
0.191133
0.191133
0.191133
0.191133
0.191133
0.191133
0.191133
0.191133
0.191133
0.191133
0.191133
0.191133
0.191133
0.191133
0.191133
0.191132
0.191132
0.191132
0.191132
0.191131
0.191131
0.191131
0.19113
0.19113
0.19113
0.191129
0.191129
0.191129
0.191128
0.191128
0.191128
0.191129
0.191133
0.191143
0.191173
0.191254
0.0575451
0.057537
0.0575331
0.0575319
0.0575315
0.0575316
0.0575318
0.057532
0.0575322
0.0575324
0.0575326
0.0575328
0.057533
0.0575332
0.0575334
0.0575336
0.0575337
0.0575339
0.057534
0.0575341
0.0575343
0.0575344
0.0575345
0.0575346
0.0575346
0.0575347
0.0575347
0.0575348
0.0575348
0.0575348
0.0575348
0.0575348
0.0575348
0.0575347
0.0575347
0.0575346
0.0575346
0.0575345
0.0575344
0.0575343
0.0575341
0.057534
0.0575339
0.0575337
0.0575336
0.0575334
0.0575332
0.057533
0.0575328
0.0575326
0.0575324
0.0575322
0.057532
0.0575318
0.0575316
0.0575315
0.0575319
0.0575331
0.057537
0.0575451
0.0401307
0.040146
0.0401506
0.0401523
0.040153
0.0401534
0.0401536
0.0401538
0.040154
0.0401542
0.0401543
0.0401545
0.0401546
0.0401548
0.0401549
0.040155
0.0401551
0.0401552
0.0401553
0.0401554
0.0401555
0.0401556
0.0401557
0.0401557
0.0401558
0.0401558
0.0401558
0.0401559
0.0401559
0.0401559
0.0401559
0.0401559
0.0401559
0.0401558
0.0401558
0.0401558
0.0401557
0.0401557
0.0401556
0.0401555
0.0401554
0.0401553
0.0401552
0.0401551
0.040155
0.0401549
0.0401548
0.0401546
0.0401545
0.0401543
0.0401542
0.040154
0.0401538
0.0401536
0.0401534
0.040153
0.0401523
0.0401506
0.040146
0.0401307
0.0385314
0.0385528
0.0385596
0.0385621
0.0385631
0.0385635
0.0385638
0.038564
0.0385642
0.0385644
0.0385645
0.0385647
0.0385648
0.038565
0.0385651
0.0385652
0.0385653
0.0385654
0.0385655
0.0385656
0.0385657
0.0385657
0.0385658
0.0385659
0.0385659
0.0385659
0.038566
0.038566
0.038566
0.038566
0.038566
0.038566
0.038566
0.038566
0.0385659
0.0385659
0.0385659
0.0385658
0.0385657
0.0385657
0.0385656
0.0385655
0.0385654
0.0385653
0.0385652
0.0385651
0.038565
0.0385648
0.0385647
0.0385645
0.0385644
0.0385642
0.038564
0.0385638
0.0385635
0.0385631
0.0385621
0.0385596
0.0385528
0.0385314
0.039315
0.0393386
0.0393462
0.039349
0.03935
0.0393506
0.0393509
0.0393511
0.0393513
0.0393515
0.0393516
0.0393518
0.0393519
0.039352
0.0393522
0.0393523
0.0393524
0.0393525
0.0393526
0.0393527
0.0393528
0.0393529
0.0393529
0.039353
0.039353
0.0393531
0.0393531
0.0393531
0.0393531
0.0393531
0.0393531
0.0393531
0.0393531
0.0393531
0.0393531
0.039353
0.039353
0.0393529
0.0393529
0.0393528
0.0393527
0.0393526
0.0393525
0.0393524
0.0393523
0.0393522
0.039352
0.0393519
0.0393518
0.0393516
0.0393515
0.0393513
0.0393511
0.0393509
0.0393506
0.03935
0.039349
0.0393462
0.0393386
0.039315
0.0405814
0.0406066
0.0406147
0.0406177
0.0406188
0.0406194
0.0406197
0.0406199
0.0406201
0.0406203
0.0406205
0.0406207
0.0406208
0.040621
0.0406211
0.0406212
0.0406214
0.0406215
0.0406216
0.0406217
0.0406218
0.0406218
0.0406219
0.040622
0.040622
0.0406221
0.0406221
0.0406221
0.0406221
0.0406221
0.0406221
0.0406221
0.0406221
0.0406221
0.0406221
0.040622
0.040622
0.0406219
0.0406218
0.0406218
0.0406217
0.0406216
0.0406215
0.0406214
0.0406212
0.0406211
0.040621
0.0406208
0.0406207
0.0406205
0.0406203
0.0406201
0.0406199
0.0406197
0.0406194
0.0406188
0.0406177
0.0406147
0.0406066
0.0405814
0.0420877
0.0421146
0.0421233
0.0421264
0.0421277
0.0421283
0.0421286
0.0421289
0.0421291
0.0421293
0.0421295
0.0421297
0.0421298
0.04213
0.0421301
0.0421303
0.0421304
0.0421305
0.0421306
0.0421308
0.0421308
0.0421309
0.042131
0.0421311
0.0421311
0.0421312
0.0421312
0.0421312
0.0421313
0.0421313
0.0421313
0.0421313
0.0421312
0.0421312
0.0421312
0.0421311
0.0421311
0.042131
0.0421309
0.0421308
0.0421308
0.0421306
0.0421305
0.0421304
0.0421303
0.0421301
0.04213
0.0421298
0.0421297
0.0421295
0.0421293
0.0421291
0.0421289
0.0421286
0.0421283
0.0421277
0.0421264
0.0421233
0.0421146
0.0420877
0.0438399
0.0438689
0.0438783
0.0438816
0.043883
0.0438836
0.043884
0.0438843
0.0438845
0.0438847
0.043885
0.0438851
0.0438853
0.0438855
0.0438857
0.0438858
0.043886
0.0438861
0.0438862
0.0438863
0.0438864
0.0438865
0.0438866
0.0438867
0.0438868
0.0438868
0.0438869
0.0438869
0.0438869
0.0438869
0.0438869
0.0438869
0.0438869
0.0438869
0.0438868
0.0438868
0.0438867
0.0438866
0.0438865
0.0438864
0.0438863
0.0438862
0.0438861
0.043886
0.0438858
0.0438857
0.0438855
0.0438853
0.0438851
0.043885
0.0438847
0.0438845
0.0438843
0.043884
0.0438836
0.043883
0.0438816
0.0438783
0.0438689
0.0438399
0.0458951
0.0459266
0.0459368
0.0459404
0.0459419
0.0459426
0.045943
0.0459433
0.0459436
0.0459438
0.0459441
0.0459443
0.0459445
0.0459447
0.0459449
0.045945
0.0459452
0.0459454
0.0459455
0.0459456
0.0459457
0.0459458
0.0459459
0.045946
0.0459461
0.0459461
0.0459462
0.0459462
0.0459462
0.0459463
0.0459463
0.0459462
0.0459462
0.0459462
0.0459461
0.0459461
0.045946
0.0459459
0.0459458
0.0459457
0.0459456
0.0459455
0.0459454
0.0459452
0.045945
0.0459449
0.0459447
0.0459445
0.0459443
0.0459441
0.0459438
0.0459436
0.0459433
0.045943
0.0459426
0.0459419
0.0459404
0.0459368
0.0459266
0.0458951
0.0483401
0.0483746
0.0483858
0.0483898
0.0483915
0.0483922
0.0483927
0.0483931
0.0483934
0.0483937
0.0483939
0.0483942
0.0483944
0.0483946
0.0483948
0.048395
0.0483952
0.0483954
0.0483955
0.0483957
0.0483958
0.0483959
0.048396
0.0483961
0.0483962
0.0483963
0.0483963
0.0483963
0.0483964
0.0483964
0.0483964
0.0483964
0.0483963
0.0483963
0.0483963
0.0483962
0.0483961
0.048396
0.0483959
0.0483958
0.0483957
0.0483955
0.0483954
0.0483952
0.048395
0.0483948
0.0483946
0.0483944
0.0483942
0.0483939
0.0483937
0.0483934
0.0483931
0.0483927
0.0483922
0.0483915
0.0483898
0.0483858
0.0483746
0.0483401
0.0513005
0.0513391
0.0513515
0.0513561
0.0513579
0.0513588
0.0513593
0.0513597
0.0513601
0.0513604
0.0513607
0.051361
0.0513612
0.0513615
0.0513617
0.051362
0.0513622
0.0513624
0.0513625
0.0513627
0.0513629
0.051363
0.0513631
0.0513632
0.0513633
0.0513634
0.0513634
0.0513635
0.0513635
0.0513635
0.0513635
0.0513635
0.0513635
0.0513634
0.0513634
0.0513633
0.0513632
0.0513631
0.051363
0.0513629
0.0513627
0.0513625
0.0513624
0.0513622
0.051362
0.0513617
0.0513615
0.0513612
0.051361
0.0513607
0.0513604
0.0513601
0.0513597
0.0513593
0.0513588
0.0513579
0.0513561
0.0513515
0.0513391
0.0513005
0.0549625
0.0550064
0.0550206
0.0550258
0.0550279
0.0550289
0.0550295
0.05503
0.0550304
0.0550308
0.0550312
0.0550315
0.0550318
0.0550321
0.0550324
0.0550327
0.0550329
0.0550331
0.0550333
0.0550335
0.0550337
0.0550339
0.055034
0.0550341
0.0550342
0.0550343
0.0550344
0.0550345
0.0550345
0.0550345
0.0550345
0.0550345
0.0550345
0.0550344
0.0550343
0.0550342
0.0550341
0.055034
0.0550339
0.0550337
0.0550335
0.0550333
0.0550331
0.0550329
0.0550327
0.0550324
0.0550321
0.0550318
0.0550315
0.0550312
0.0550308
0.0550304
0.05503
0.0550295
0.0550289
0.0550279
0.0550258
0.0550206
0.0550064
0.0549625
0.0596068
0.059658
0.0596747
0.0596808
0.0596833
0.0596845
0.0596852
0.0596858
0.0596863
0.0596867
0.0596872
0.0596876
0.0596879
0.0596883
0.0596886
0.059689
0.0596893
0.0596895
0.0596898
0.05969
0.0596902
0.0596904
0.0596906
0.0596908
0.0596909
0.059691
0.0596911
0.0596911
0.0596912
0.0596912
0.0596912
0.0596912
0.0596911
0.0596911
0.059691
0.0596909
0.0596908
0.0596906
0.0596904
0.0596902
0.05969
0.0596898
0.0596895
0.0596893
0.059689
0.0596886
0.0596883
0.0596879
0.0596876
0.0596872
0.0596867
0.0596863
0.0596858
0.0596852
0.0596845
0.0596833
0.0596808
0.0596747
0.059658
0.0596068
0.0656559
0.0657174
0.0657375
0.0657448
0.0657478
0.0657493
0.0657502
0.0657509
0.0657516
0.0657521
0.0657527
0.0657532
0.0657536
0.0657541
0.0657545
0.0657549
0.0657553
0.0657556
0.0657559
0.0657562
0.0657565
0.0657567
0.0657569
0.0657571
0.0657573
0.0657574
0.0657575
0.0657576
0.0657577
0.0657577
0.0657577
0.0657577
0.0657576
0.0657575
0.0657574
0.0657573
0.0657571
0.0657569
0.0657567
0.0657565
0.0657562
0.0657559
0.0657556
0.0657553
0.0657549
0.0657545
0.0657541
0.0657536
0.0657532
0.0657527
0.0657521
0.0657516
0.0657509
0.0657502
0.0657493
0.0657478
0.0657448
0.0657375
0.0657174
0.0656559
0.0737172
0.0737933
0.0738182
0.0738274
0.0738311
0.073833
0.0738341
0.073835
0.0738358
0.0738365
0.0738372
0.0738378
0.0738384
0.073839
0.0738395
0.07384
0.0738405
0.073841
0.0738414
0.0738417
0.0738421
0.0738424
0.0738427
0.0738429
0.0738431
0.0738433
0.0738434
0.0738435
0.0738436
0.0738436
0.0738436
0.0738436
0.0738435
0.0738434
0.0738433
0.0738431
0.0738429
0.0738427
0.0738424
0.0738421
0.0738417
0.0738414
0.073841
0.0738405
0.07384
0.0738395
0.073839
0.0738384
0.0738378
0.0738372
0.0738365
0.0738358
0.073835
0.0738341
0.073833
0.0738311
0.0738274
0.0738182
0.0737933
0.0737172
0.0845749
0.0846711
0.0847028
0.0847145
0.0847192
0.0847216
0.0847231
0.0847243
0.0847253
0.0847262
0.084727
0.0847279
0.0847286
0.0847294
0.08473
0.0847307
0.0847313
0.0847319
0.0847324
0.0847329
0.0847333
0.0847337
0.0847341
0.0847344
0.0847346
0.0847349
0.084735
0.0847352
0.0847353
0.0847353
0.0847353
0.0847353
0.0847352
0.084735
0.0847349
0.0847346
0.0847344
0.0847341
0.0847337
0.0847333
0.0847329
0.0847324
0.0847319
0.0847313
0.0847307
0.08473
0.0847294
0.0847286
0.0847279
0.084727
0.0847262
0.0847253
0.0847243
0.0847231
0.0847216
0.0847192
0.0847145
0.0847028
0.0846711
0.0845749
0.0990577
0.0991799
0.0992205
0.0992355
0.0992416
0.0992446
0.0992465
0.099248
0.0992493
0.0992504
0.0992515
0.0992526
0.0992536
0.0992545
0.0992554
0.0992562
0.099257
0.0992577
0.0992583
0.0992589
0.0992595
0.09926
0.0992605
0.0992609
0.0992612
0.0992615
0.0992617
0.0992619
0.099262
0.099262
0.099262
0.099262
0.0992619
0.0992617
0.0992615
0.0992612
0.0992609
0.0992605
0.09926
0.0992595
0.0992589
0.0992583
0.0992577
0.099257
0.0992562
0.0992554
0.0992545
0.0992536
0.0992526
0.0992515
0.0992504
0.0992493
0.099248
0.0992465
0.0992446
0.0992416
0.0992355
0.0992205
0.0991799
0.0990577
0.117759
0.117912
0.117963
0.117982
0.11799
0.117994
0.117996
0.117998
0.117999
0.118001
0.118002
0.118004
0.118005
0.118006
0.118007
0.118008
0.118009
0.11801
0.118011
0.118011
0.118012
0.118013
0.118013
0.118014
0.118014
0.118014
0.118015
0.118015
0.118015
0.118015
0.118015
0.118015
0.118015
0.118015
0.118014
0.118014
0.118014
0.118013
0.118013
0.118012
0.118011
0.118011
0.11801
0.118009
0.118008
0.118007
0.118006
0.118005
0.118004
0.118002
0.118001
0.117999
0.117998
0.117996
0.117994
0.11799
0.117982
0.117963
0.117912
0.117759
0.140732
0.140918
0.14098
0.141004
0.141013
0.141018
0.141021
0.141023
0.141025
0.141026
0.141028
0.141029
0.141031
0.141032
0.141033
0.141035
0.141036
0.141037
0.141038
0.141038
0.141039
0.14104
0.141041
0.141041
0.141042
0.141042
0.141042
0.141043
0.141043
0.141043
0.141043
0.141043
0.141043
0.141042
0.141042
0.141042
0.141041
0.141041
0.14104
0.141039
0.141038
0.141038
0.141037
0.141036
0.141035
0.141033
0.141032
0.141031
0.141029
0.141028
0.141026
0.141025
0.141023
0.141021
0.141018
0.141013
0.141004
0.14098
0.140918
0.140732
0.167384
0.167602
0.167676
0.167703
0.167714
0.16772
0.167723
0.167725
0.167727
0.167729
0.167731
0.167733
0.167734
0.167736
0.167737
0.167739
0.16774
0.167741
0.167742
0.167743
0.167744
0.167745
0.167745
0.167746
0.167747
0.167747
0.167747
0.167748
0.167748
0.167748
0.167748
0.167748
0.167748
0.167747
0.167747
0.167747
0.167746
0.167745
0.167745
0.167744
0.167743
0.167742
0.167741
0.16774
0.167739
0.167737
0.167736
0.167734
0.167733
0.167731
0.167729
0.167727
0.167725
0.167723
0.16772
0.167714
0.167703
0.167676
0.167602
0.167384
0.19668
0.196926
0.19701
0.197041
0.197054
0.19706
0.197064
0.197066
0.197069
0.197071
0.197073
0.197074
0.197076
0.197078
0.197079
0.19708
0.197082
0.197083
0.197084
0.197085
0.197086
0.197087
0.197088
0.197088
0.197089
0.197089
0.19709
0.19709
0.19709
0.19709
0.19709
0.19709
0.19709
0.19709
0.197089
0.197089
0.197088
0.197088
0.197087
0.197086
0.197085
0.197084
0.197083
0.197082
0.19708
0.197079
0.197078
0.197076
0.197074
0.197073
0.197071
0.197069
0.197066
0.197064
0.19706
0.197054
0.197041
0.19701
0.196926
0.19668
0.227498
0.227768
0.227861
0.227896
0.22791
0.227917
0.227921
0.227924
0.227926
0.227928
0.22793
0.227932
0.227934
0.227935
0.227937
0.227938
0.22794
0.227941
0.227942
0.227943
0.227944
0.227945
0.227946
0.227946
0.227947
0.227948
0.227948
0.227948
0.227948
0.227949
0.227949
0.227948
0.227948
0.227948
0.227948
0.227947
0.227946
0.227946
0.227945
0.227944
0.227943
0.227942
0.227941
0.22794
0.227938
0.227937
0.227935
0.227934
0.227932
0.22793
0.227928
0.227926
0.227924
0.227921
0.227917
0.22791
0.227896
0.227861
0.227768
0.227498
0.258913
0.259202
0.259304
0.259342
0.259357
0.259364
0.259369
0.259371
0.259374
0.259376
0.259378
0.25938
0.259382
0.259383
0.259385
0.259386
0.259388
0.259389
0.25939
0.259391
0.259392
0.259393
0.259394
0.259394
0.259395
0.259396
0.259396
0.259396
0.259396
0.259397
0.259397
0.259396
0.259396
0.259396
0.259396
0.259395
0.259394
0.259394
0.259393
0.259392
0.259391
0.25939
0.259389
0.259388
0.259386
0.259385
0.259383
0.259382
0.25938
0.259378
0.259376
0.259374
0.259371
0.259369
0.259364
0.259357
0.259342
0.259304
0.259202
0.258913
0.290285
0.29059
0.290699
0.290741
0.290757
0.290765
0.290769
0.290772
0.290775
0.290777
0.290779
0.29078
0.290782
0.290784
0.290785
0.290787
0.290788
0.290789
0.29079
0.290792
0.290793
0.290793
0.290794
0.290795
0.290795
0.290796
0.290796
0.290797
0.290797
0.290797
0.290797
0.290797
0.290797
0.290796
0.290796
0.290795
0.290795
0.290794
0.290793
0.290793
0.290792
0.29079
0.290789
0.290788
0.290787
0.290785
0.290784
0.290782
0.29078
0.290779
0.290777
0.290775
0.290772
0.290769
0.290765
0.290757
0.290741
0.290699
0.29059
0.290285
0.321224
0.321543
0.321659
0.321703
0.321721
0.321729
0.321733
0.321736
0.321739
0.321741
0.321743
0.321745
0.321746
0.321748
0.321749
0.321751
0.321752
0.321753
0.321755
0.321756
0.321757
0.321757
0.321758
0.321759
0.321759
0.32176
0.32176
0.321761
0.321761
0.321761
0.321761
0.321761
0.321761
0.32176
0.32176
0.321759
0.321759
0.321758
0.321757
0.321757
0.321756
0.321755
0.321753
0.321752
0.321751
0.321749
0.321748
0.321746
0.321745
0.321743
0.321741
0.321739
0.321736
0.321733
0.321729
0.321721
0.321703
0.321659
0.321543
0.321224
0.351508
0.351838
0.351961
0.352008
0.352027
0.352035
0.35204
0.352043
0.352045
0.352047
0.352049
0.352051
0.352053
0.352054
0.352056
0.352057
0.352058
0.352059
0.352061
0.352062
0.352063
0.352063
0.352064
0.352065
0.352065
0.352066
0.352066
0.352066
0.352067
0.352067
0.352067
0.352067
0.352066
0.352066
0.352066
0.352065
0.352065
0.352064
0.352063
0.352063
0.352062
0.352061
0.352059
0.352058
0.352057
0.352056
0.352054
0.352053
0.352051
0.352049
0.352047
0.352045
0.352043
0.35204
0.352035
0.352027
0.352008
0.351961
0.351838
0.351508
0.381013
0.381353
0.381482
0.381531
0.381552
0.381561
0.381565
0.381568
0.381571
0.381573
0.381575
0.381576
0.381578
0.381579
0.381581
0.381582
0.381583
0.381585
0.381586
0.381587
0.381587
0.381588
0.381589
0.38159
0.38159
0.381591
0.381591
0.381591
0.381591
0.381591
0.381591
0.381591
0.381591
0.381591
0.381591
0.38159
0.38159
0.381589
0.381588
0.381587
0.381587
0.381586
0.381585
0.381583
0.381582
0.381581
0.381579
0.381578
0.381576
0.381575
0.381573
0.381571
0.381568
0.381565
0.381561
0.381552
0.381531
0.381482
0.381353
0.381013
0.409671
0.41002
0.410154
0.410206
0.410228
0.410237
0.410242
0.410245
0.410247
0.410249
0.410251
0.410253
0.410254
0.410256
0.410257
0.410258
0.41026
0.410261
0.410262
0.410263
0.410264
0.410264
0.410265
0.410266
0.410266
0.410267
0.410267
0.410267
0.410267
0.410267
0.410267
0.410267
0.410267
0.410267
0.410267
0.410266
0.410266
0.410265
0.410264
0.410264
0.410263
0.410262
0.410261
0.41026
0.410258
0.410257
0.410256
0.410254
0.410253
0.410251
0.410249
0.410247
0.410245
0.410242
0.410237
0.410228
0.410206
0.410154
0.41002
0.409671
0.437446
0.437801
0.43794
0.437995
0.438018
0.438028
0.438033
0.438036
0.438038
0.43804
0.438042
0.438044
0.438045
0.438046
0.438048
0.438049
0.43805
0.438051
0.438052
0.438053
0.438054
0.438055
0.438055
0.438056
0.438056
0.438057
0.438057
0.438057
0.438057
0.438058
0.438058
0.438057
0.438057
0.438057
0.438057
0.438056
0.438056
0.438055
0.438055
0.438054
0.438053
0.438052
0.438051
0.43805
0.438049
0.438048
0.438046
0.438045
0.438044
0.438042
0.43804
0.438038
0.438036
0.438033
0.438028
0.438018
0.437995
0.43794
0.437801
0.437446
0.464317
0.464678
0.464822
0.46488
0.464903
0.464914
0.464919
0.464922
0.464924
0.464926
0.464928
0.46493
0.464931
0.464932
0.464934
0.464935
0.464936
0.464937
0.464938
0.464939
0.464939
0.46494
0.464941
0.464941
0.464942
0.464942
0.464942
0.464943
0.464943
0.464943
0.464943
0.464943
0.464943
0.464942
0.464942
0.464942
0.464941
0.464941
0.46494
0.464939
0.464939
0.464938
0.464937
0.464936
0.464935
0.464934
0.464932
0.464931
0.46493
0.464928
0.464926
0.464924
0.464922
0.464919
0.464914
0.464903
0.46488
0.464822
0.464678
0.464317
0.490278
0.490642
0.490791
0.490852
0.490877
0.490887
0.490893
0.490896
0.490898
0.4909
0.490902
0.490903
0.490905
0.490906
0.490907
0.490908
0.490909
0.49091
0.490911
0.490912
0.490913
0.490913
0.490914
0.490914
0.490915
0.490915
0.490916
0.490916
0.490916
0.490916
0.490916
0.490916
0.490916
0.490916
0.490915
0.490915
0.490914
0.490914
0.490913
0.490913
0.490912
0.490911
0.49091
0.490909
0.490908
0.490907
0.490906
0.490905
0.490903
0.490902
0.4909
0.490898
0.490896
0.490893
0.490887
0.490877
0.490852
0.490791
0.490642
0.490278
0.515328
0.515695
0.515848
0.515911
0.515937
0.515949
0.515954
0.515958
0.51596
0.515962
0.515963
0.515965
0.515966
0.515967
0.515968
0.515969
0.51597
0.515971
0.515972
0.515973
0.515974
0.515974
0.515975
0.515975
0.515976
0.515976
0.515976
0.515977
0.515977
0.515977
0.515977
0.515977
0.515977
0.515976
0.515976
0.515976
0.515975
0.515975
0.515974
0.515974
0.515973
0.515972
0.515971
0.51597
0.515969
0.515968
0.515967
0.515966
0.515965
0.515963
0.515962
0.51596
0.515958
0.515954
0.515949
0.515937
0.515911
0.515848
0.515695
0.515328
0.539472
0.539841
0.539998
0.540063
0.540091
0.540103
0.540109
0.540112
0.540114
0.540116
0.540117
0.540119
0.54012
0.540121
0.540122
0.540123
0.540124
0.540125
0.540126
0.540127
0.540127
0.540128
0.540128
0.540129
0.540129
0.54013
0.54013
0.54013
0.54013
0.54013
0.54013
0.54013
0.54013
0.54013
0.54013
0.540129
0.540129
0.540128
0.540128
0.540127
0.540127
0.540126
0.540125
0.540124
0.540123
0.540122
0.540121
0.54012
0.540119
0.540117
0.540116
0.540114
0.540112
0.540109
0.540103
0.540091
0.540063
0.539998
0.539841
0.539472
0.56272
0.56309
0.56325
0.563318
0.563346
0.563359
0.563365
0.563368
0.56337
0.563372
0.563374
0.563375
0.563376
0.563377
0.563378
0.563379
0.56338
0.563381
0.563382
0.563382
0.563383
0.563383
0.563384
0.563384
0.563385
0.563385
0.563385
0.563386
0.563386
0.563386
0.563386
0.563386
0.563386
0.563385
0.563385
0.563385
0.563384
0.563384
0.563383
0.563383
0.563382
0.563382
0.563381
0.56338
0.563379
0.563378
0.563377
0.563376
0.563375
0.563374
0.563372
0.56337
0.563368
0.563365
0.563359
0.563346
0.563318
0.56325
0.56309
0.56272
0.585083
0.585452
0.585616
0.585686
0.585716
0.585729
0.585735
0.585739
0.585741
0.585742
0.585744
0.585745
0.585746
0.585747
0.585748
0.585749
0.58575
0.585751
0.585751
0.585752
0.585753
0.585753
0.585754
0.585754
0.585754
0.585755
0.585755
0.585755
0.585755
0.585755
0.585755
0.585755
0.585755
0.585755
0.585755
0.585754
0.585754
0.585754
0.585753
0.585753
0.585752
0.585751
0.585751
0.58575
0.585749
0.585748
0.585747
0.585746
0.585745
0.585744
0.585742
0.585741
0.585739
0.585735
0.585729
0.585716
0.585686
0.585616
0.585452
0.585083
0.606576
0.606944
0.60711
0.607182
0.607213
0.607227
0.607234
0.607237
0.607239
0.607241
0.607242
0.607243
0.607244
0.607245
0.607246
0.607247
0.607248
0.607249
0.607249
0.60725
0.60725
0.607251
0.607251
0.607252
0.607252
0.607253
0.607253
0.607253
0.607253
0.607253
0.607253
0.607253
0.607253
0.607253
0.607253
0.607252
0.607252
0.607251
0.607251
0.60725
0.60725
0.607249
0.607249
0.607248
0.607247
0.607246
0.607245
0.607244
0.607243
0.607242
0.607241
0.607239
0.607237
0.607234
0.607227
0.607213
0.607182
0.60711
0.606944
0.606576
0.627214
0.62758
0.627748
0.627822
0.627855
0.627869
0.627876
0.62788
0.627882
0.627884
0.627885
0.627886
0.627887
0.627888
0.627889
0.62789
0.62789
0.627891
0.627892
0.627892
0.627893
0.627893
0.627894
0.627894
0.627894
0.627895
0.627895
0.627895
0.627895
0.627895
0.627895
0.627895
0.627895
0.627895
0.627895
0.627894
0.627894
0.627894
0.627893
0.627893
0.627892
0.627892
0.627891
0.62789
0.62789
0.627889
0.627888
0.627887
0.627886
0.627885
0.627884
0.627882
0.62788
0.627876
0.627869
0.627855
0.627822
0.627748
0.62758
0.627214
0.647016
0.647378
0.647548
0.647625
0.647658
0.647674
0.647681
0.647684
0.647687
0.647688
0.647689
0.64769
0.647691
0.647692
0.647693
0.647694
0.647694
0.647695
0.647696
0.647696
0.647697
0.647697
0.647698
0.647698
0.647698
0.647698
0.647699
0.647699
0.647699
0.647699
0.647699
0.647699
0.647699
0.647699
0.647698
0.647698
0.647698
0.647698
0.647697
0.647697
0.647696
0.647696
0.647695
0.647694
0.647694
0.647693
0.647692
0.647691
0.64769
0.647689
0.647688
0.647687
0.647684
0.647681
0.647674
0.647658
0.647625
0.647548
0.647378
0.647016
0.665999
0.666357
0.666529
0.666607
0.666642
0.666658
0.666665
0.666669
0.666671
0.666673
0.666674
0.666675
0.666676
0.666677
0.666677
0.666678
0.666679
0.666679
0.66668
0.66668
0.666681
0.666681
0.666682
0.666682
0.666682
0.666683
0.666683
0.666683
0.666683
0.666683
0.666683
0.666683
0.666683
0.666683
0.666683
0.666682
0.666682
0.666682
0.666681
0.666681
0.66668
0.66668
0.666679
0.666679
0.666678
0.666677
0.666677
0.666676
0.666675
0.666674
0.666673
0.666671
0.666669
0.666665
0.666658
0.666642
0.666607
0.666529
0.666357
0.665999
0.684182
0.684536
0.684709
0.684789
0.684825
0.684842
0.68485
0.684854
0.684856
0.684857
0.684858
0.684859
0.68486
0.684861
0.684862
0.684862
0.684863
0.684863
0.684864
0.684864
0.684865
0.684865
0.684866
0.684866
0.684866
0.684866
0.684867
0.684867
0.684867
0.684867
0.684867
0.684867
0.684867
0.684867
0.684866
0.684866
0.684866
0.684866
0.684865
0.684865
0.684864
0.684864
0.684863
0.684863
0.684862
0.684862
0.684861
0.68486
0.684859
0.684858
0.684857
0.684856
0.684854
0.68485
0.684842
0.684825
0.684789
0.684709
0.684536
0.684182
0.701587
0.701936
0.702109
0.702191
0.702228
0.702246
0.702254
0.702258
0.70226
0.702262
0.702263
0.702264
0.702264
0.702265
0.702266
0.702266
0.702267
0.702267
0.702268
0.702268
0.702269
0.702269
0.702269
0.70227
0.70227
0.70227
0.70227
0.70227
0.70227
0.70227
0.70227
0.70227
0.70227
0.70227
0.70227
0.70227
0.70227
0.702269
0.702269
0.702269
0.702268
0.702268
0.702267
0.702267
0.702266
0.702266
0.702265
0.702264
0.702264
0.702263
0.702262
0.70226
0.702258
0.702254
0.702246
0.702228
0.702191
0.702109
0.701936
0.701587
0.718233
0.718576
0.71875
0.718833
0.718872
0.71889
0.718898
0.718902
0.718905
0.718906
0.718907
0.718908
0.718909
0.718909
0.71891
0.71891
0.718911
0.718911
0.718912
0.718912
0.718913
0.718913
0.718913
0.718914
0.718914
0.718914
0.718914
0.718914
0.718914
0.718914
0.718914
0.718914
0.718914
0.718914
0.718914
0.718914
0.718914
0.718913
0.718913
0.718913
0.718912
0.718912
0.718911
0.718911
0.71891
0.71891
0.718909
0.718909
0.718908
0.718907
0.718906
0.718905
0.718902
0.718898
0.71889
0.718872
0.718833
0.71875
0.718576
0.718233
0.734141
0.734478
0.734652
0.734736
0.734776
0.734795
0.734804
0.734808
0.734811
0.734812
0.734813
0.734814
0.734814
0.734815
0.734816
0.734816
0.734817
0.734817
0.734817
0.734818
0.734818
0.734818
0.734819
0.734819
0.734819
0.734819
0.734819
0.73482
0.73482
0.73482
0.73482
0.73482
0.73482
0.734819
0.734819
0.734819
0.734819
0.734819
0.734818
0.734818
0.734818
0.734817
0.734817
0.734817
0.734816
0.734816
0.734815
0.734814
0.734814
0.734813
0.734812
0.734811
0.734808
0.734804
0.734795
0.734776
0.734736
0.734652
0.734478
0.734141
0.749332
0.749663
0.749837
0.749922
0.749963
0.749983
0.749992
0.749997
0.749999
0.750001
0.750001
0.750002
0.750003
0.750003
0.750004
0.750004
0.750005
0.750005
0.750005
0.750006
0.750006
0.750006
0.750007
0.750007
0.750007
0.750007
0.750007
0.750007
0.750007
0.750007
0.750007
0.750007
0.750007
0.750007
0.750007
0.750007
0.750007
0.750007
0.750006
0.750006
0.750006
0.750005
0.750005
0.750005
0.750004
0.750004
0.750003
0.750003
0.750002
0.750001
0.750001
0.749999
0.749997
0.749992
0.749983
0.749963
0.749922
0.749837
0.749663
0.749332
0.763829
0.764152
0.764326
0.764412
0.764455
0.764475
0.764484
0.764489
0.764492
0.764493
0.764494
0.764495
0.764495
0.764496
0.764496
0.764496
0.764497
0.764497
0.764498
0.764498
0.764498
0.764498
0.764499
0.764499
0.764499
0.764499
0.764499
0.764499
0.764499
0.764499
0.764499
0.764499
0.764499
0.764499
0.764499
0.764499
0.764499
0.764499
0.764498
0.764498
0.764498
0.764498
0.764497
0.764497
0.764496
0.764496
0.764496
0.764495
0.764495
0.764494
0.764493
0.764492
0.764489
0.764484
0.764475
0.764455
0.764412
0.764326
0.764152
0.763829
0.777652
0.777968
0.77814
0.778228
0.778271
0.778292
0.778302
0.778307
0.77831
0.778311
0.778312
0.778313
0.778313
0.778313
0.778314
0.778314
0.778315
0.778315
0.778315
0.778315
0.778316
0.778316
0.778316
0.778316
0.778316
0.778317
0.778317
0.778317
0.778317
0.778317
0.778317
0.778317
0.778317
0.778317
0.778317
0.778316
0.778316
0.778316
0.778316
0.778316
0.778315
0.778315
0.778315
0.778315
0.778314
0.778314
0.778313
0.778313
0.778313
0.778312
0.778311
0.77831
0.778307
0.778302
0.778292
0.778271
0.778228
0.77814
0.777968
0.777652
0.790823
0.791131
0.791302
0.791391
0.791435
0.791456
0.791467
0.791472
0.791475
0.791476
0.791477
0.791478
0.791478
0.791478
0.791479
0.791479
0.791479
0.79148
0.79148
0.79148
0.79148
0.791481
0.791481
0.791481
0.791481
0.791481
0.791481
0.791481
0.791481
0.791481
0.791481
0.791481
0.791481
0.791481
0.791481
0.791481
0.791481
0.791481
0.791481
0.79148
0.79148
0.79148
0.79148
0.791479
0.791479
0.791479
0.791478
0.791478
0.791478
0.791477
0.791476
0.791475
0.791472
0.791467
0.791456
0.791435
0.791391
0.791302
0.791131
0.790823
0.803363
0.803664
0.803833
0.803922
0.803967
0.803989
0.804
0.804005
0.804008
0.80401
0.80401
0.804011
0.804011
0.804012
0.804012
0.804012
0.804013
0.804013
0.804013
0.804013
0.804013
0.804014
0.804014
0.804014
0.804014
0.804014
0.804014
0.804014
0.804014
0.804014
0.804014
0.804014
0.804014
0.804014
0.804014
0.804014
0.804014
0.804014
0.804014
0.804013
0.804013
0.804013
0.804013
0.804013
0.804012
0.804012
0.804012
0.804011
0.804011
0.80401
0.80401
0.804008
0.804005
0.804
0.803989
0.803967
0.803922
0.803833
0.803664
0.803363
0.815294
0.815586
0.815754
0.815843
0.815889
0.815912
0.815923
0.815929
0.815932
0.815933
0.815934
0.815935
0.815935
0.815935
0.815935
0.815936
0.815936
0.815936
0.815936
0.815936
0.815937
0.815937
0.815937
0.815937
0.815937
0.815937
0.815937
0.815937
0.815937
0.815937
0.815937
0.815937
0.815937
0.815937
0.815937
0.815937
0.815937
0.815937
0.815937
0.815937
0.815936
0.815936
0.815936
0.815936
0.815936
0.815935
0.815935
0.815935
0.815935
0.815934
0.815933
0.815932
0.815929
0.815923
0.815912
0.815889
0.815843
0.815754
0.815586
0.815294
0.826637
0.826921
0.827086
0.827175
0.827222
0.827246
0.827257
0.827263
0.827266
0.827268
0.827269
0.827269
0.827269
0.82727
0.82727
0.82727
0.82727
0.82727
0.827271
0.827271
0.827271
0.827271
0.827271
0.827271
0.827271
0.827271
0.827271
0.827272
0.827272
0.827272
0.827272
0.827272
0.827272
0.827271
0.827271
0.827271
0.827271
0.827271
0.827271
0.827271
0.827271
0.827271
0.82727
0.82727
0.82727
0.82727
0.82727
0.827269
0.827269
0.827269
0.827268
0.827266
0.827263
0.827257
0.827246
0.827222
0.827175
0.827086
0.826921
0.826637
0.837413
0.837688
0.83785
0.83794
0.837987
0.838012
0.838024
0.83803
0.838033
0.838035
0.838035
0.838036
0.838036
0.838036
0.838037
0.838037
0.838037
0.838037
0.838037
0.838037
0.838037
0.838037
0.838038
0.838038
0.838038
0.838038
0.838038
0.838038
0.838038
0.838038
0.838038
0.838038
0.838038
0.838038
0.838038
0.838038
0.838038
0.838038
0.838037
0.838037
0.838037
0.838037
0.838037
0.838037
0.838037
0.838037
0.838036
0.838036
0.838036
0.838035
0.838035
0.838033
0.83803
0.838024
0.838012
0.837987
0.83794
0.83785
0.837688
0.837413
0.847642
0.847909
0.848068
0.848158
0.848206
0.84823
0.848243
0.84825
0.848253
0.848254
0.848255
0.848256
0.848256
0.848256
0.848256
0.848256
0.848257
0.848257
0.848257
0.848257
0.848257
0.848257
0.848257
0.848257
0.848257
0.848257
0.848257
0.848257
0.848257
0.848257
0.848257
0.848257
0.848257
0.848257
0.848257
0.848257
0.848257
0.848257
0.848257
0.848257
0.848257
0.848257
0.848257
0.848257
0.848256
0.848256
0.848256
0.848256
0.848256
0.848255
0.848254
0.848253
0.84825
0.848243
0.84823
0.848206
0.848158
0.848068
0.847909
0.847642
0.857345
0.857603
0.85776
0.857849
0.857898
0.857923
0.857936
0.857943
0.857946
0.857948
0.857949
0.857949
0.857949
0.857949
0.85795
0.85795
0.85795
0.85795
0.85795
0.85795
0.85795
0.85795
0.85795
0.85795
0.85795
0.85795
0.85795
0.85795
0.85795
0.85795
0.85795
0.85795
0.85795
0.85795
0.85795
0.85795
0.85795
0.85795
0.85795
0.85795
0.85795
0.85795
0.85795
0.85795
0.85795
0.85795
0.857949
0.857949
0.857949
0.857949
0.857948