/*--------------------------------*- C++ -*----------------------------------*\
| =========                 |                                                 |
| \\      /  F ield         | foam-extend: Open Source CFD                    |
|  \\    /   O peration     | Version:     4.0                                |
|   \\  /    A nd           | Web:         http://www.foam-extend.org         |
|    \\/     M anipulation  |                                                 |
\*---------------------------------------------------------------------------*/
FoamFile
{
    version     2.0;
    format      ascii;
    class       volScalarField;
    location    "15";
    object      dC1;
}
// * * * * * * * * * * * * * * * * * * * * * * * * * * * * * * * * * * * * * //

dimensions      [0 -1 0 0 0 0 0];

internalField   nonuniform List<scalar> 
6960
(
1.01918e-11
1.01894e-11
1.0195e-11
1.01801e-11
1.01761e-11
1.0182e-11
1.01872e-11
1.01855e-11
1.01771e-11
1.01803e-11
1.01902e-11
1.01867e-11
1.01943e-11
1.01732e-11
1.01926e-11
1.01876e-11
1.01895e-11
1.01784e-11
1.01913e-11
1.01944e-11
1.01827e-11
1.01854e-11
1.01872e-11
1.01946e-11
1.01929e-11
1.01823e-11
1.01953e-11
1.01899e-11
1.01837e-11
1.01791e-11
1.01825e-11
1.01828e-11
1.01889e-11
1.01777e-11
1.01797e-11
1.01829e-11
1.01881e-11
1.01924e-11
1.01936e-11
1.01824e-11
1.01832e-11
1.01829e-11
1.01889e-11
1.01917e-11
1.01879e-11
1.01866e-11
1.01907e-11
1.0192e-11
1.01896e-11
1.0197e-11
1.01876e-11
1.0182e-11
1.01831e-11
1.01891e-11
1.01971e-11
1.01901e-11
1.01879e-11
1.0184e-11
1.0192e-11
1.01875e-11
9.73895e-13
9.75286e-13
9.74037e-13
9.73967e-13
9.74207e-13
9.73565e-13
9.74661e-13
9.75445e-13
9.73187e-13
9.74793e-13
9.74568e-13
9.73721e-13
9.74418e-13
9.73697e-13
9.74772e-13
9.73527e-13
9.74065e-13
9.74797e-13
9.7429e-13
9.74033e-13
9.73742e-13
9.73988e-13
9.7488e-13
9.74484e-13
9.74398e-13
9.75438e-13
9.74269e-13
9.75477e-13
9.74436e-13
9.74856e-13
9.73634e-13
9.74002e-13
9.7302e-13
9.74117e-13
9.7506e-13
9.73395e-13
9.73797e-13
9.74384e-13
9.74575e-13
9.7421e-13
9.74054e-13
9.74304e-13
9.73614e-13
9.74779e-13
9.73156e-13
9.74394e-13
9.7421e-13
9.75033e-13
9.74252e-13
9.7412e-13
9.74457e-13
9.73655e-13
9.75067e-13
9.75522e-13
9.74516e-13
9.73735e-13
9.74006e-13
9.74127e-13
9.74828e-13
9.73173e-13
-2.88195e-12
-2.88287e-12
-2.88182e-12
-2.8819e-12
-2.88264e-12
-2.88222e-12
-2.88257e-12
-2.88218e-12
-2.882e-12
-2.88206e-12
-2.88235e-12
-2.88223e-12
-2.88241e-12
-2.88207e-12
-2.88215e-12
-2.88232e-12
-2.88242e-12
-2.88288e-12
-2.88212e-12
-2.88243e-12
-2.88217e-12
-2.88198e-12
-2.88287e-12
-2.88232e-12
-2.88198e-12
-2.88189e-12
-2.88191e-12
-2.88207e-12
-2.88275e-12
-2.88301e-12
-2.88136e-12
-2.88239e-12
-2.88186e-12
-2.88196e-12
-2.88272e-12
-2.88162e-12
-2.88155e-12
-2.88227e-12
-2.88194e-12
-2.88207e-12
-2.88264e-12
-2.88272e-12
-2.88257e-12
-2.88219e-12
-2.88253e-12
-2.88225e-12
-2.88199e-12
-2.88317e-12
-2.88228e-12
-2.88236e-12
-2.88272e-12
-2.8826e-12
-2.88216e-12
-2.88207e-12
-2.88199e-12
-2.88154e-12
-2.88213e-12
-2.88262e-12
-2.88212e-12
-2.88202e-12
-6.70404e-12
-6.70381e-12
-6.70398e-12
-6.70389e-12
-6.70375e-12
-6.70369e-12
-6.70415e-12
-6.70368e-12
-6.70362e-12
-6.7038e-12
-6.70364e-12
-6.70381e-12
-6.70343e-12
-6.70348e-12
-6.7038e-12
-6.70351e-12
-6.70359e-12
-6.70382e-12
-6.70395e-12
-6.70328e-12
-6.70375e-12
-6.70376e-12
-6.7033e-12
-6.70381e-12
-6.70371e-12
-6.70358e-12
-6.70419e-12
-6.7036e-12
-6.70396e-12
-6.70379e-12
-6.70353e-12
-6.70396e-12
-6.70374e-12
-6.70351e-12
-6.70386e-12
-6.70388e-12
-6.70424e-12
-6.70377e-12
-6.70397e-12
-6.70409e-12
-6.70401e-12
-6.70347e-12
-6.70374e-12
-6.70378e-12
-6.70382e-12
-6.7041e-12
-6.70404e-12
-6.70387e-12
-6.70359e-12
-6.70377e-12
-6.7036e-12
-6.70377e-12
-6.70407e-12
-6.70378e-12
-6.7037e-12
-6.7041e-12
-6.70387e-12
-6.70368e-12
-6.70361e-12
-6.70364e-12
-1.04326e-11
-1.04329e-11
-1.04332e-11
-1.04329e-11
-1.04327e-11
-1.04331e-11
-1.04331e-11
-1.04332e-11
-1.0433e-11
-1.04331e-11
-1.04329e-11
-1.0433e-11
-1.04329e-11
-1.04329e-11
-1.0433e-11
-1.0433e-11
-1.04329e-11
-1.04328e-11
-1.0433e-11
-1.04331e-11
-1.04328e-11
-1.0433e-11
-1.04329e-11
-1.04331e-11
-1.04328e-11
-1.04333e-11
-1.04328e-11
-1.0433e-11
-1.04327e-11
-1.04327e-11
-1.04329e-11
-1.04332e-11
-1.04329e-11
-1.0433e-11
-1.04331e-11
-1.0433e-11
-1.04327e-11
-1.04331e-11
-1.04328e-11
-1.04328e-11
-1.04328e-11
-1.04329e-11
-1.04331e-11
-1.0433e-11
-1.04329e-11
-1.04329e-11
-1.04331e-11
-1.04329e-11
-1.04331e-11
-1.04328e-11
-1.04332e-11
-1.04332e-11
-1.04329e-11
-1.04331e-11
-1.04331e-11
-1.04332e-11
-1.04328e-11
-1.04332e-11
-1.04329e-11
-1.04333e-11
-1.4008e-11
-1.40077e-11
-1.40077e-11
-1.40077e-11
-1.40079e-11
-1.40078e-11
-1.40078e-11
-1.40077e-11
-1.40076e-11
-1.40076e-11
-1.40079e-11
-1.40079e-11
-1.4008e-11
-1.40079e-11
-1.40075e-11
-1.40078e-11
-1.40077e-11
-1.40078e-11
-1.40077e-11
-1.40077e-11
-1.40078e-11
-1.40076e-11
-1.40077e-11
-1.40077e-11
-1.40078e-11
-1.40076e-11
-1.40079e-11
-1.40076e-11
-1.40079e-11
-1.40081e-11
-1.40079e-11
-1.40078e-11
-1.40078e-11
-1.40079e-11
-1.40078e-11
-1.40077e-11
-1.40078e-11
-1.40078e-11
-1.40077e-11
-1.40077e-11
-1.40077e-11
-1.40078e-11
-1.40076e-11
-1.40081e-11
-1.40078e-11
-1.40079e-11
-1.40078e-11
-1.40079e-11
-1.40078e-11
-1.40077e-11
-1.40075e-11
-1.40077e-11
-1.40078e-11
-1.40076e-11
-1.40078e-11
-1.40076e-11
-1.40079e-11
-1.40077e-11
-1.4008e-11
-1.40074e-11
-1.67289e-11
-1.67289e-11
-1.67289e-11
-1.67291e-11
-1.67291e-11
-1.67291e-11
-1.67291e-11
-1.6729e-11
-1.67291e-11
-1.67291e-11
-1.67291e-11
-1.6729e-11
-1.67288e-11
-1.67291e-11
-1.6729e-11
-1.67291e-11
-1.67291e-11
-1.67291e-11
-1.6729e-11
-1.67291e-11
-1.67291e-11
-1.67291e-11
-1.67292e-11
-1.6729e-11
-1.67289e-11
-1.67289e-11
-1.6729e-11
-1.67293e-11
-1.6729e-11
-1.67287e-11
-1.67289e-11
-1.67291e-11
-1.67291e-11
-1.67289e-11
-1.67288e-11
-1.67292e-11
-1.67289e-11
-1.67292e-11
-1.67292e-11
-1.67288e-11
-1.67289e-11
-1.6729e-11
-1.67291e-11
-1.6729e-11
-1.6729e-11
-1.67291e-11
-1.6729e-11
-1.67289e-11
-1.67291e-11
-1.6729e-11
-1.67291e-11
-1.67289e-11
-1.6729e-11
-1.67293e-11
-1.6729e-11
-1.6729e-11
-1.67289e-11
-1.67292e-11
-1.67287e-11
-1.6729e-11
-1.65359e-11
-1.65358e-11
-1.65358e-11
-1.65356e-11
-1.65359e-11
-1.65359e-11
-1.65359e-11
-1.65361e-11
-1.65358e-11
-1.6536e-11
-1.65356e-11
-1.6536e-11
-1.65361e-11
-1.65359e-11
-1.6536e-11
-1.65358e-11
-1.65358e-11
-1.65357e-11
-1.65357e-11
-1.65357e-11
-1.65358e-11
-1.65357e-11
-1.65355e-11
-1.65359e-11
-1.65361e-11
-1.65359e-11
-1.6536e-11
-1.65357e-11
-1.65356e-11
-1.65357e-11
-1.6536e-11
-1.65359e-11
-1.65358e-11
-1.65357e-11
-1.65359e-11
-1.65357e-11
-1.65361e-11
-1.6536e-11
-1.65357e-11
-1.65358e-11
-1.6536e-11
-1.65357e-11
-1.65358e-11
-1.65358e-11
-1.65357e-11
-1.65358e-11
-1.65358e-11
-1.65359e-11
-1.65358e-11
-1.65359e-11
-1.65358e-11
-1.65357e-11
-1.65357e-11
-1.65358e-11
-1.65359e-11
-1.65359e-11
-1.65359e-11
-1.65356e-11
-1.65359e-11
-1.65359e-11
-1.03406e-11
-1.03406e-11
-1.03403e-11
-1.03409e-11
-1.03404e-11
-1.03406e-11
-1.03405e-11
-1.03405e-11
-1.03403e-11
-1.03402e-11
-1.03408e-11
-1.03407e-11
-1.03402e-11
-1.03402e-11
-1.03404e-11
-1.03408e-11
-1.03405e-11
-1.03406e-11
-1.03412e-11
-1.03407e-11
-1.03406e-11
-1.03407e-11
-1.03407e-11
-1.03404e-11
-1.03403e-11
-1.03409e-11
-1.03402e-11
-1.0341e-11
-1.03406e-11
-1.03408e-11
-1.03404e-11
-1.03406e-11
-1.03405e-11
-1.03409e-11
-1.03406e-11
-1.03405e-11
-1.03403e-11
-1.03405e-11
-1.03407e-11
-1.03408e-11
-1.03405e-11
-1.03407e-11
-1.03405e-11
-1.03404e-11
-1.03408e-11
-1.03407e-11
-1.03409e-11
-1.03407e-11
-1.03402e-11
-1.03406e-11
-1.03406e-11
-1.03407e-11
-1.03407e-11
-1.03407e-11
-1.03405e-11
-1.03405e-11
-1.03404e-11
-1.0341e-11
-1.03404e-11
-1.03402e-11
3.36107e-12
3.36108e-12
3.36032e-12
3.36091e-12
3.36045e-12
3.36081e-12
3.36066e-12
3.36064e-12
3.36028e-12
3.36011e-12
3.36082e-12
3.36088e-12
3.3604e-12
3.36026e-12
3.36059e-12
3.36062e-12
3.36067e-12
3.36065e-12
3.36123e-12
3.36078e-12
3.36045e-12
3.3606e-12
3.36067e-12
3.36045e-12
3.36061e-12
3.36061e-12
3.3605e-12
3.36105e-12
3.36054e-12
3.36069e-12
3.36069e-12
3.36037e-12
3.3606e-12
3.36088e-12
3.36046e-12
3.36056e-12
3.36033e-12
3.36063e-12
3.36066e-12
3.36088e-12
3.36055e-12
3.36081e-12
3.36066e-12
3.36057e-12
3.36086e-12
3.36045e-12
3.36105e-12
3.36049e-12
3.36043e-12
3.36078e-12
3.36045e-12
3.36044e-12
3.36076e-12
3.36061e-12
3.36061e-12
3.36051e-12
3.36055e-12
3.36076e-12
3.36048e-12
3.36051e-12
2.01286e-11
2.01287e-11
2.01287e-11
2.01289e-11
2.01291e-11
2.01285e-11
2.01288e-11
2.01289e-11
2.01294e-11
2.01294e-11
2.01288e-11
2.01286e-11
2.01292e-11
2.01292e-11
2.01289e-11
2.0129e-11
2.01289e-11
2.01289e-11
2.01286e-11
2.01289e-11
2.0129e-11
2.0129e-11
2.01291e-11
2.0129e-11
2.01287e-11
2.01289e-11
2.0129e-11
2.01289e-11
2.01289e-11
2.01289e-11
2.01287e-11
2.01291e-11
2.01289e-11
2.01287e-11
2.01294e-11
2.01287e-11
2.01293e-11
2.01287e-11
2.01292e-11
2.01287e-11
2.01291e-11
2.01292e-11
2.0129e-11
2.01287e-11
2.01285e-11
2.01292e-11
2.01284e-11
2.01289e-11
2.01289e-11
2.01288e-11
2.01288e-11
2.01292e-11
2.01288e-11
2.01288e-11
2.01288e-11
2.01289e-11
2.0129e-11
2.01292e-11
2.01289e-11
2.0129e-11
2.81732e-11
2.81733e-11
2.81735e-11
2.8173e-11
2.81731e-11
2.81736e-11
2.81736e-11
2.81732e-11
2.81728e-11
2.81731e-11
2.81732e-11
2.81734e-11
2.81732e-11
2.81731e-11
2.81731e-11
2.81732e-11
2.81729e-11
2.81734e-11
2.81733e-11
2.81732e-11
2.8173e-11
2.81731e-11
2.81732e-11
2.81731e-11
2.81733e-11
2.81732e-11
2.81732e-11
2.81729e-11
2.8173e-11
2.8173e-11
2.81733e-11
2.81735e-11
2.81732e-11
2.8173e-11
2.81725e-11
2.81738e-11
2.81727e-11
2.81732e-11
2.81729e-11
2.81735e-11
2.81731e-11
2.81726e-11
2.81732e-11
2.81735e-11
2.81737e-11
2.81729e-11
2.81736e-11
2.81734e-11
2.81732e-11
2.81735e-11
2.81729e-11
2.8173e-11
2.81732e-11
2.81734e-11
2.81732e-11
2.81729e-11
2.81732e-11
2.81731e-11
2.81732e-11
2.81733e-11
1.62359e-11
1.62357e-11
1.62358e-11
1.62361e-11
1.6236e-11
1.62357e-11
1.62357e-11
1.62359e-11
1.6236e-11
1.62357e-11
1.62361e-11
1.62364e-11
1.62358e-11
1.62361e-11
1.62356e-11
1.62363e-11
1.62363e-11
1.62356e-11
1.62357e-11
1.62356e-11
1.62359e-11
1.62362e-11
1.62365e-11
1.62362e-11
1.6236e-11
1.62362e-11
1.62357e-11
1.62362e-11
1.62356e-11
1.62364e-11
1.62359e-11
1.62354e-11
1.62356e-11
1.62361e-11
1.62363e-11
1.62359e-11
1.62363e-11
1.62365e-11
1.6236e-11
1.62358e-11
1.62355e-11
1.62366e-11
1.62359e-11
1.62355e-11
1.62356e-11
1.62362e-11
1.6236e-11
1.62362e-11
1.62359e-11
1.6236e-11
1.62361e-11
1.6236e-11
1.62359e-11
1.62357e-11
1.62361e-11
1.62362e-11
1.62363e-11
1.62357e-11
1.62354e-11
1.62356e-11
-1.24794e-11
-1.2479e-11
-1.24797e-11
-1.2479e-11
-1.24795e-11
-1.24795e-11
-1.24794e-11
-1.24792e-11
-1.24796e-11
-1.24793e-11
-1.24803e-11
-1.24796e-11
-1.24791e-11
-1.24787e-11
-1.24791e-11
-1.24801e-11
-1.24804e-11
-1.24796e-11
-1.2479e-11
-1.24797e-11
-1.24789e-11
-1.24795e-11
-1.24796e-11
-1.24794e-11
-1.24795e-11
-1.24807e-11
-1.24793e-11
-1.24797e-11
-1.24789e-11
-1.24798e-11
-1.24793e-11
-1.2479e-11
-1.24793e-11
-1.24793e-11
-1.24796e-11
-1.24797e-11
-1.24797e-11
-1.24798e-11
-1.24791e-11
-1.24795e-11
-1.24793e-11
-1.24798e-11
-1.2479e-11
-1.24793e-11
-1.24797e-11
-1.24791e-11
-1.24793e-11
-1.24797e-11
-1.24793e-11
-1.24792e-11
-1.24789e-11
-1.24796e-11
-1.24796e-11
-1.24791e-11
-1.24795e-11
-1.24797e-11
-1.24798e-11
-1.24788e-11
-1.24789e-11
-1.24792e-11
-3.76454e-11
-3.76458e-11
-3.76451e-11
-3.76463e-11
-3.76456e-11
-3.76459e-11
-3.76459e-11
-3.76465e-11
-3.76451e-11
-3.76458e-11
-3.76454e-11
-3.76456e-11
-3.76455e-11
-3.76465e-11
-3.76461e-11
-3.76451e-11
-3.76451e-11
-3.7645e-11
-3.76461e-11
-3.76459e-11
-3.76463e-11
-3.76458e-11
-3.76459e-11
-3.76462e-11
-3.7646e-11
-3.76446e-11
-3.76453e-11
-3.7645e-11
-3.76458e-11
-3.76454e-11
-3.76455e-11
-3.76464e-11
-3.76456e-11
-3.76457e-11
-3.76455e-11
-3.76452e-11
-3.76455e-11
-3.7646e-11
-3.76457e-11
-3.76461e-11
-3.76452e-11
-3.7646e-11
-3.76461e-11
-3.76461e-11
-3.76454e-11
-3.7646e-11
-3.76456e-11
-3.76458e-11
-3.76462e-11
-3.7646e-11
-3.76466e-11
-3.76457e-11
-3.76455e-11
-3.76452e-11
-3.76461e-11
-3.7646e-11
-3.76457e-11
-3.76464e-11
-3.76459e-11
-3.76456e-11
-3.9763e-11
-3.97625e-11
-3.97625e-11
-3.97621e-11
-3.97627e-11
-3.9762e-11
-3.97617e-11
-3.9762e-11
-3.97633e-11
-3.97622e-11
-3.97625e-11
-3.97621e-11
-3.97625e-11
-3.97615e-11
-3.97632e-11
-3.97621e-11
-3.97623e-11
-3.97633e-11
-3.9762e-11
-3.97616e-11
-3.9762e-11
-3.97626e-11
-3.97623e-11
-3.97616e-11
-3.97622e-11
-3.97627e-11
-3.97623e-11
-3.97629e-11
-3.97629e-11
-3.97624e-11
-3.97631e-11
-3.97621e-11
-3.97622e-11
-3.97619e-11
-3.97629e-11
-3.97622e-11
-3.97626e-11
-3.97621e-11
-3.9763e-11
-3.97619e-11
-3.9763e-11
-3.97616e-11
-3.97626e-11
-3.97615e-11
-3.97626e-11
-3.97618e-11
-3.97626e-11
-3.97624e-11
-3.97622e-11
-3.9762e-11
-3.97621e-11
-3.97621e-11
-3.97625e-11
-3.97628e-11
-3.97619e-11
-3.97623e-11
-3.97625e-11
-3.97621e-11
-3.97615e-11
-3.97625e-11
-1.92564e-11
-1.92566e-11
-1.92565e-11
-1.92566e-11
-1.92567e-11
-1.92572e-11
-1.92572e-11
-1.92569e-11
-1.92568e-11
-1.92576e-11
-1.92565e-11
-1.92583e-11
-1.92567e-11
-1.92573e-11
-1.92559e-11
-1.92572e-11
-1.92563e-11
-1.92554e-11
-1.92571e-11
-1.92573e-11
-1.92577e-11
-1.92572e-11
-1.9257e-11
-1.92577e-11
-1.92568e-11
-1.92571e-11
-1.92571e-11
-1.92573e-11
-1.92569e-11
-1.92573e-11
-1.92569e-11
-1.9256e-11
-1.92575e-11
-1.92573e-11
-1.92561e-11
-1.92577e-11
-1.92567e-11
-1.92567e-11
-1.92562e-11
-1.92577e-11
-1.9257e-11
-1.9257e-11
-1.92567e-11
-1.92572e-11
-1.92567e-11
-1.92571e-11
-1.92571e-11
-1.92568e-11
-1.92573e-11
-1.92569e-11
-1.92566e-11
-1.92568e-11
-1.92576e-11
-1.92568e-11
-1.92575e-11
-1.92565e-11
-1.92568e-11
-1.9257e-11
-1.92576e-11
-1.92562e-11
6.7684e-12
6.7667e-12
6.7674e-12
6.76691e-12
6.76738e-12
6.76715e-12
6.76725e-12
6.76742e-12
6.76824e-12
6.76827e-12
6.76715e-12
6.76877e-12
6.76767e-12
6.76732e-12
6.76812e-12
6.76756e-12
6.76739e-12
6.76661e-12
6.76743e-12
6.76719e-12
6.76901e-12
6.76809e-12
6.76703e-12
6.7677e-12
6.76846e-12
6.76785e-12
6.76813e-12
6.76786e-12
6.76724e-12
6.76808e-12
6.76793e-12
6.76595e-12
6.76799e-12
6.76702e-12
6.76756e-12
6.76872e-12
6.76736e-12
6.76731e-12
6.76765e-12
6.76859e-12
6.76785e-12
6.76672e-12
6.76783e-12
6.76699e-12
6.76765e-12
6.76708e-12
6.76817e-12
6.76749e-12
6.76773e-12
6.76733e-12
6.76715e-12
6.76702e-12
6.76774e-12
6.76801e-12
6.7674e-12
6.76734e-12
6.76736e-12
6.76825e-12
6.76884e-12
6.76846e-12
2.29405e-11
2.29419e-11
2.29414e-11
2.29415e-11
2.29417e-11
2.29422e-11
2.29419e-11
2.2942e-11
2.29411e-11
2.29408e-11
2.29412e-11
2.29412e-11
2.29412e-11
2.29422e-11
2.29401e-11
2.29412e-11
2.2941e-11
2.29415e-11
2.2942e-11
2.29418e-11
2.29401e-11
2.29419e-11
2.29418e-11
2.29416e-11
2.29403e-11
2.29414e-11
2.29406e-11
2.29415e-11
2.2942e-11
2.29414e-11
2.29411e-11
2.29421e-11
2.29406e-11
2.29418e-11
2.29408e-11
2.2941e-11
2.29417e-11
2.29414e-11
2.29406e-11
2.29404e-11
2.2941e-11
2.29429e-11
2.29406e-11
2.29417e-11
2.29407e-11
2.29421e-11
2.29412e-11
2.29412e-11
2.29418e-11
2.29409e-11
2.29416e-11
2.29426e-11
2.29411e-11
2.29407e-11
2.29417e-11
2.29407e-11
2.29412e-11
2.29406e-11
2.29406e-11
2.294e-11
2.60208e-11
2.60209e-11
2.60207e-11
2.60205e-11
2.60202e-11
2.60201e-11
2.60204e-11
2.602e-11
2.60208e-11
2.60212e-11
2.60206e-11
2.60204e-11
2.60209e-11
2.602e-11
2.60201e-11
2.60203e-11
2.60212e-11
2.60201e-11
2.60201e-11
2.60198e-11
2.60225e-11
2.60207e-11
2.6021e-11
2.60216e-11
2.60221e-11
2.60211e-11
2.60219e-11
2.60211e-11
2.60211e-11
2.60195e-11
2.60209e-11
2.60209e-11
2.6021e-11
2.60201e-11
2.60209e-11
2.60215e-11
2.60207e-11
2.60211e-11
2.60216e-11
2.6021e-11
2.60207e-11
2.60203e-11
2.60215e-11
2.6021e-11
2.60213e-11
2.60204e-11
2.60205e-11
2.60214e-11
2.60212e-11
2.60209e-11
2.60216e-11
2.60196e-11
2.60213e-11
2.60217e-11
2.602e-11
2.6021e-11
2.60204e-11
2.602e-11
2.60206e-11
2.60214e-11
2.11611e-11
2.11615e-11
2.11611e-11
2.11619e-11
2.11613e-11
2.1162e-11
2.11616e-11
2.11624e-11
2.11617e-11
2.11613e-11
2.1162e-11
2.11611e-11
2.11603e-11
2.11621e-11
2.11636e-11
2.11624e-11
2.11615e-11
2.11605e-11
2.11606e-11
2.11626e-11
2.11602e-11
2.11605e-11
2.11602e-11
2.116e-11
2.11599e-11
2.116e-11
2.11603e-11
2.11608e-11
2.11606e-11
2.11626e-11
2.11605e-11
2.11621e-11
2.11609e-11
2.11612e-11
2.11608e-11
2.11615e-11
2.11616e-11
2.1161e-11
2.11608e-11
2.11607e-11
2.11612e-11
2.11604e-11
2.11607e-11
2.11614e-11
2.11602e-11
2.11608e-11
2.11616e-11
2.11617e-11
2.11617e-11
2.11622e-11
2.116e-11
2.11618e-11
2.11613e-11
2.11614e-11
2.1162e-11
2.11623e-11
2.11614e-11
2.1163e-11
2.11611e-11
2.11607e-11
1.43078e-11
1.43065e-11
1.43072e-11
1.43072e-11
1.4308e-11
1.43064e-11
1.43084e-11
1.43076e-11
1.43066e-11
1.43062e-11
1.4307e-11
1.43077e-11
1.43089e-11
1.43075e-11
1.43063e-11
1.43083e-11
1.43071e-11
1.43086e-11
1.43081e-11
1.43066e-11
1.43083e-11
1.43069e-11
1.43082e-11
1.43082e-11
1.43083e-11
1.43079e-11
1.43075e-11
1.43083e-11
1.43078e-11
1.43073e-11
1.43075e-11
1.43056e-11
1.43087e-11
1.43072e-11
1.43083e-11
1.43072e-11
1.43075e-11
1.43078e-11
1.43081e-11
1.4308e-11
1.43059e-11
1.43082e-11
1.43076e-11
1.43065e-11
1.43088e-11
1.43078e-11
1.43081e-11
1.43065e-11
1.43069e-11
1.43068e-11
1.43082e-11
1.43056e-11
1.43061e-11
1.43067e-11
1.43069e-11
1.43067e-11
1.43073e-11
1.4306e-11
1.43078e-11
1.43076e-11
8.6215e-12
8.62314e-12
8.62332e-12
8.62475e-12
8.62286e-12
8.62349e-12
8.62209e-12
8.62358e-12
8.62221e-12
8.62336e-12
8.62211e-12
8.62272e-12
8.62156e-12
8.62289e-12
8.62245e-12
8.62039e-12
8.62184e-12
8.62112e-12
8.62243e-12
8.62278e-12
8.62299e-12
8.62226e-12
8.62348e-12
8.6218e-12
8.62138e-12
8.62195e-12
8.62196e-12
8.62186e-12
8.62212e-12
8.62148e-12
8.62189e-12
8.62345e-12
8.62181e-12
8.6225e-12
8.62167e-12
8.62216e-12
8.62304e-12
8.62354e-12
8.62321e-12
8.62276e-12
8.62462e-12
8.62279e-12
8.62197e-12
8.62405e-12
8.62102e-12
8.62241e-12
8.62275e-12
8.62308e-12
8.6228e-12
8.62321e-12
8.62386e-12
8.625e-12
8.62291e-12
8.62335e-12
8.62304e-12
8.62284e-12
8.62248e-12
8.6232e-12
8.62217e-12
8.62316e-12
4.82315e-12
4.82297e-12
4.82183e-12
4.82026e-12
4.82057e-12
4.82198e-12
4.82159e-12
4.82113e-12
4.82365e-12
4.8208e-12
4.82326e-12
4.82207e-12
4.82329e-12
4.82172e-12
4.82073e-12
4.82296e-12
4.82265e-12
4.82361e-12
4.8217e-12
4.8224e-12
4.82164e-12
4.82241e-12
4.82121e-12
4.82226e-12
4.82425e-12
4.82278e-12
4.82267e-12
4.82214e-12
4.82156e-12
4.82312e-12
4.82408e-12
4.82303e-12
4.82207e-12
4.82264e-12
4.82284e-12
4.82224e-12
4.82146e-12
4.82243e-12
4.82064e-12
4.82191e-12
4.82157e-12
4.82185e-12
4.82332e-12
4.82137e-12
4.82237e-12
4.82192e-12
4.82139e-12
4.82097e-12
4.8219e-12
4.82243e-12
4.82052e-12
4.82068e-12
4.82191e-12
4.82213e-12
4.82061e-12
4.82209e-12
4.82251e-12
4.8208e-12
4.82249e-12
4.82169e-12
2.54862e-12
2.54901e-12
2.54973e-12
2.55008e-12
2.55018e-12
2.55018e-12
2.55107e-12
2.55026e-12
2.5489e-12
2.55021e-12
2.54854e-12
2.55016e-12
2.54925e-12
2.5506e-12
2.55255e-12
2.54943e-12
2.55239e-12
2.54974e-12
2.55216e-12
2.54939e-12
2.55039e-12
2.54983e-12
2.54981e-12
2.55012e-12
2.54807e-12
2.54985e-12
2.55114e-12
2.5504e-12
2.55049e-12
2.54911e-12
2.54924e-12
2.54845e-12
2.54962e-12
2.54843e-12
2.54902e-12
2.55023e-12
2.5513e-12
2.54891e-12
2.55115e-12
2.55036e-12
2.55022e-12
2.55046e-12
2.54927e-12
2.54989e-12
2.55072e-12
2.54978e-12
2.55058e-12
2.55079e-12
2.5501e-12
2.54915e-12
2.55078e-12
2.55154e-12
2.55007e-12
2.54943e-12
2.55152e-12
2.54883e-12
2.55005e-12
2.5508e-12
2.54942e-12
2.54994e-12
1.27432e-12
1.27274e-12
1.27386e-12
1.27238e-12
1.27396e-12
1.27169e-12
1.2708e-12
1.27151e-12
1.27277e-12
1.27269e-12
1.27334e-12
1.27138e-12
1.27184e-12
1.27039e-12
1.27092e-12
1.27322e-12
1.26895e-12
1.27149e-12
1.2699e-12
1.27261e-12
1.27118e-12
1.27294e-12
1.27358e-12
1.27184e-12
1.27359e-12
1.27134e-12
1.27055e-12
1.27127e-12
1.27164e-12
1.27248e-12
1.27236e-12
1.2736e-12
1.27197e-12
1.27318e-12
1.27239e-12
1.27117e-12
1.27049e-12
1.27162e-12
1.27082e-12
1.27199e-12
1.27155e-12
1.2708e-12
1.27261e-12
1.27311e-12
1.27193e-12
1.27253e-12
1.27151e-12
1.27348e-12
1.27223e-12
1.27382e-12
1.27074e-12
1.27101e-12
1.27179e-12
1.27215e-12
1.27252e-12
1.27385e-12
1.27188e-12
1.27069e-12
1.27214e-12
1.27199e-12
5.78964e-13
5.80543e-13
5.77621e-13
5.79391e-13
5.77406e-13
5.7912e-13
5.79429e-13
5.78777e-13
5.78832e-13
5.78058e-13
5.78794e-13
5.80196e-13
5.79349e-13
5.81403e-13
5.78294e-13
5.79807e-13
5.80293e-13
5.78409e-13
5.81805e-13
5.78034e-13
5.7853e-13
5.76685e-13
5.77836e-13
5.79401e-13
5.77927e-13
5.79647e-13
5.79627e-13
5.79162e-13
5.79425e-13
5.78797e-13
5.77153e-13
5.78954e-13
5.78541e-13
5.80324e-13
5.79106e-13
5.78978e-13
5.79859e-13
5.78433e-13
5.78756e-13
5.79273e-13
5.7853e-13
5.80064e-13
5.79831e-13
5.79245e-13
5.7742e-13
5.78988e-13
5.80012e-13
5.78832e-13
5.77188e-13
5.77847e-13
5.81105e-13
5.78343e-13
5.78614e-13
5.7794e-13
5.77097e-13
5.76792e-13
5.78756e-13
5.81101e-13
5.79547e-13
5.79519e-13
2.14887e-13
2.13725e-13
2.15491e-13
2.13912e-13
2.16226e-13
2.15186e-13
2.16195e-13
2.17153e-13
2.14915e-13
2.15602e-13
2.13579e-13
2.14009e-13
2.16091e-13
2.12635e-13
2.16889e-13
2.13732e-13
2.13916e-13
2.15196e-13
2.12854e-13
2.16598e-13
2.15845e-13
2.15893e-13
2.1539e-13
2.15137e-13
2.15956e-13
2.14575e-13
2.15054e-13
2.14918e-13
2.147e-13
2.15966e-13
2.17947e-13
2.14426e-13
2.1733e-13
2.13222e-13
2.1403e-13
2.16865e-13
2.15029e-13
2.1684e-13
2.15938e-13
2.14273e-13
2.15702e-13
2.14346e-13
2.153e-13
2.14762e-13
2.17732e-13
2.14318e-13
2.14245e-13
2.15106e-13
2.17274e-13
2.1598e-13
2.13937e-13
2.17108e-13
2.16101e-13
2.15696e-13
2.15286e-13
2.18124e-13
2.14734e-13
2.15085e-13
2.14745e-13
2.15213e-13
3.13742e-14
3.09926e-14
3.30985e-14
3.19779e-14
2.91538e-14
3.0153e-14
2.9414e-14
2.92578e-14
3.05207e-14
3.04583e-14
3.13048e-14
3.06213e-14
2.85293e-14
3.26093e-14
2.86576e-14
3.05173e-14
3.1565e-14
3.0944e-14
3.27759e-14
2.81268e-14
2.94209e-14
2.96811e-14
3.09058e-14
3.00072e-14
2.93758e-14
3.08677e-14
3.12216e-14
3.11105e-14
3.11938e-14
2.84148e-14
2.95076e-14
3.11383e-14
2.85605e-14
3.20369e-14
3.29285e-14
2.98719e-14
3.03021e-14
3.0323e-14
2.9983e-14
3.12111e-14
3.20126e-14
3.13811e-14
2.95736e-14
3.19016e-14
2.76133e-14
3.15477e-14
3.16136e-14
3.01495e-14
3.16552e-14
3.02466e-14
3.05311e-14
2.9695e-14
2.84564e-14
3.1735e-14
3.07046e-14
2.85709e-14
3.08815e-14
3.04999e-14
3.05762e-14
3.19918e-14
-5.871e-14
-5.90847e-14
-6.04967e-14
-5.90777e-14
-5.98722e-14
-5.86094e-14
-5.91194e-14
-5.83249e-14
-5.93033e-14
-5.91124e-14
-5.92512e-14
-5.87169e-14
-5.66422e-14
-6.00665e-14
-5.96849e-14
-5.93518e-14
-5.98445e-14
-5.93137e-14
-5.92824e-14
-5.91506e-14
-5.96953e-14
-5.8873e-14
-5.9841e-14
-5.83179e-14
-5.83422e-14
-5.79502e-14
-5.79189e-14
-5.94767e-14
-5.93726e-14
-5.81341e-14
-5.92339e-14
-5.91784e-14
-5.95322e-14
-6.21447e-14
-6.18637e-14
-5.82555e-14
-5.76553e-14
-5.78045e-14
-5.90777e-14
-6.10796e-14
-6.05245e-14
-5.93484e-14
-5.95912e-14
-5.96224e-14
-5.76657e-14
-6.19435e-14
-5.8252e-14
-5.79814e-14
-6.12149e-14
-5.95739e-14
-5.87586e-14
-5.88696e-14
-5.99937e-14
-6.06876e-14
-6.11629e-14
-5.82659e-14
-6.06112e-14
-5.95253e-14
-6.05141e-14
-6.02123e-14
-9.99444e-14
-9.7946e-14
-1.00676e-13
-1.00319e-13
-9.67976e-14
-9.89694e-14
-1.0042e-13
-9.97986e-14
-9.80362e-14
-9.88515e-14
-1.00822e-13
-9.92782e-14
-1.01398e-13
-9.7318e-14
-9.76615e-14
-9.83102e-14
-9.9809e-14
-9.89729e-14
-1.00368e-13
-9.59822e-14
-9.98368e-14
-9.93199e-14
-1.00035e-13
-1.00569e-13
-1.00146e-13
-1.00503e-13
-9.98923e-14
-9.98472e-14
-1.00295e-13
-9.62529e-14
-1.00007e-13
-9.87786e-14
-9.86849e-14
-9.86607e-14
-9.82825e-14
-9.63049e-14
-1.0044e-13
-1.00316e-13
-9.79911e-14
-9.75157e-14
-9.88376e-14
-9.90839e-14
-9.86503e-14
-9.93962e-14
-9.92678e-14
-9.76198e-14
-1.00153e-13
-9.9528e-14
-9.69606e-14
-9.92782e-14
-9.98333e-14
-1.00177e-13
-9.72278e-14
-9.97639e-14
-9.53022e-14
-9.9306e-14
-9.72937e-14
-9.79876e-14
-9.59996e-14
-1.00569e-13
-1.12174e-13
-1.14665e-13
-1.13319e-13
-1.12344e-13
-1.14603e-13
-1.15019e-13
-1.11931e-13
-1.13642e-13
-1.13336e-13
-1.11376e-13
-1.08483e-13
-1.14957e-13
-1.11366e-13
-1.15338e-13
-1.13812e-13
-1.13673e-13
-1.11508e-13
-1.15647e-13
-1.12077e-13
-1.17517e-13
-1.13493e-13
-1.13728e-13
-1.13291e-13
-1.13212e-13
-1.1259e-13
-1.13996e-13
-1.13302e-13
-1.14235e-13
-1.12854e-13
-1.16348e-13
-1.13801e-13
-1.14235e-13
-1.12781e-13
-1.13087e-13
-1.13583e-13
-1.14835e-13
-1.12018e-13
-1.13121e-13
-1.15446e-13
-1.14957e-13
-1.14637e-13
-1.14266e-13
-1.12993e-13
-1.10828e-13
-1.13576e-13
-1.13489e-13
-1.14343e-13
-1.1471e-13
-1.14752e-13
-1.15331e-13
-1.12847e-13
-1.15647e-13
-1.14766e-13
-1.11744e-13
-1.15952e-13
-1.14915e-13
-1.13649e-13
-1.14884e-13
-1.1538e-13
-1.10301e-13
-1.17493e-13
-1.14127e-13
-1.16501e-13
-1.16226e-13
-1.14915e-13
-1.13597e-13
-1.17024e-13
-1.14544e-13
-1.15082e-13
-1.18332e-13
-1.20376e-13
-1.13094e-13
-1.18804e-13
-1.17826e-13
-1.18242e-13
-1.18846e-13
-1.18679e-13
-1.14398e-13
-1.16383e-13
-1.15595e-13
-1.17024e-13
-1.15487e-13
-1.13465e-13
-1.15193e-13
-1.1639e-13
-1.15359e-13
-1.14665e-13
-1.12767e-13
-1.17597e-13
-1.14915e-13
-1.15571e-13
-1.14748e-13
-1.15349e-13
-1.13711e-13
-1.12715e-13
-1.15269e-13
-1.1675e-13
-1.12424e-13
-1.15463e-13
-1.13697e-13
-1.11681e-13
-1.13819e-13
-1.1462e-13
-1.18267e-13
-1.1479e-13
-1.16948e-13
-1.15668e-13
-1.15269e-13
-1.14103e-13
-1.15987e-13
-1.17677e-13
-1.12934e-13
-1.16452e-13
-1.18253e-13
-1.15723e-13
-1.1342e-13
-1.15342e-13
-1.14322e-13
-1.13735e-13
-1.1675e-13
-1.12459e-13
-1.12785e-13
-1.11966e-13
-1.11466e-13
-1.11491e-13
-1.10526e-13
-1.13087e-13
-1.11376e-13
-1.09763e-13
-1.10575e-13
-1.08694e-13
-1.13288e-13
-1.10977e-13
-1.06158e-13
-1.10786e-13
-1.10509e-13
-1.09114e-13
-1.1157e-13
-1.12351e-13
-1.10034e-13
-1.09086e-13
-1.11782e-13
-1.12806e-13
-1.11251e-13
-1.10106e-13
-1.13347e-13
-1.13042e-13
-1.11498e-13
-1.08961e-13
-1.08979e-13
-1.08569e-13
-1.11904e-13
-1.11616e-13
-1.12188e-13
-1.13864e-13
-1.10533e-13
-1.11185e-13
-1.13954e-13
-1.10419e-13
-1.13787e-13
-1.16927e-13
-1.13628e-13
-1.11147e-13
-1.11525e-13
-1.10412e-13
-1.1206e-13
-1.07622e-13
-1.09482e-13
-1.11047e-13
-1.12219e-13
-1.10058e-13
-1.12264e-13
-1.10179e-13
-1.09697e-13
-1.1079e-13
-1.12424e-13
-1.11643e-13
-1.09635e-13
-1.11338e-13
-1.09284e-13
-1.03331e-13
-1.01957e-13
-1.00177e-13
-1.02775e-13
-1.03466e-13
-1.034e-13
-1.01259e-13
-1.04885e-13
-1.04871e-13
-1.02862e-13
-1.03903e-13
-1.05076e-13
-1.01318e-13
-1.06536e-13
-1.039e-13
-1.00923e-13
-1.05506e-13
-1.02914e-13
-1.01377e-13
-1.03986e-13
-1.03133e-13
-1.02959e-13
-1.04354e-13
-1.06224e-13
-1.03095e-13
-1.03025e-13
-1.01818e-13
-1.05548e-13
-1.04989e-13
-1.06359e-13
-1.06238e-13
-1.00774e-13
-1.02768e-13
-1.0349e-13
-1.02106e-13
-1.03646e-13
-1.02654e-13
-1.03691e-13
-1.02404e-13
-1.04666e-13
-1.00475e-13
-1.02054e-13
-1.04833e-13
-1.02009e-13
-1.07227e-13
-1.02925e-13
-1.06904e-13
-1.04586e-13
-1.04482e-13
-1.02869e-13
-1.05051e-13
-1.03154e-13
-1.02883e-13
-1.03185e-13
-1.02668e-13
-1.04455e-13
-1.03192e-13
-1.04635e-13
-1.03671e-13
-1.05152e-13
-9.50386e-14
-9.58573e-14
-9.64333e-14
-9.54792e-14
-9.50316e-14
-9.5892e-14
-9.63847e-14
-9.40081e-14
-9.41539e-14
-9.52294e-14
-9.41365e-14
-9.38e-14
-9.72555e-14
-9.41851e-14
-9.25232e-14
-9.71272e-14
-9.4251e-14
-9.5042e-14
-9.62147e-14
-9.62737e-14
-9.49484e-14
-9.53057e-14
-9.47957e-14
-8.84674e-14
-9.71445e-14
-9.59406e-14
-9.61106e-14
-9.20305e-14
-9.36855e-14
-9.24608e-14
-9.29881e-14
-9.73215e-14
-9.61592e-14
-9.39214e-14
-9.34565e-14
-9.37757e-14
-9.49761e-14
-9.50316e-14
-9.67074e-14
-9.56527e-14
-9.64888e-14
-9.82929e-14
-9.36161e-14
-9.48026e-14
-9.17807e-14
-9.79286e-14
-9.25718e-14
-9.37375e-14
-9.42163e-14
-9.48963e-14
-9.21797e-14
-9.5219e-14
-9.56735e-14
-9.60551e-14
-9.72e-14
-9.35259e-14
-9.38381e-14
-9.37549e-14
-9.44037e-14
-9.26967e-14
-8.59868e-14
-8.48939e-14
-8.73052e-14
-8.68021e-14
-8.64933e-14
-8.68229e-14
-8.70796e-14
-8.78533e-14
-8.79054e-14
-8.57751e-14
-9.1753e-14
-8.55913e-14
-8.70068e-14
-8.60215e-14
-8.88629e-14
-8.54455e-14
-8.81899e-14
-8.83842e-14
-8.55011e-14
-8.53241e-14
-8.62227e-14
-8.72843e-14
-8.48314e-14
-9.1975e-14
-8.46372e-14
-8.40612e-14
-8.64725e-14
-8.72288e-14
-8.89393e-14
-8.69131e-14
-8.74821e-14
-8.71594e-14
-8.48523e-14
-8.74613e-14
-8.75515e-14
-8.95048e-14
-8.68958e-14
-8.77354e-14
-8.65384e-14
-8.63962e-14
-8.37837e-14
-8.15216e-14
-8.83738e-14
-8.57092e-14
-9.0726e-14
-8.50466e-14
-8.80754e-14
-9.04728e-14
-8.50257e-14
-8.69027e-14
-8.67258e-14
-8.54768e-14
-8.66703e-14
-8.74127e-14
-8.51923e-14
-8.67674e-14
-8.81586e-14
-8.73399e-14
-8.70484e-14
-8.90607e-14
-7.69003e-14
-7.9426e-14
-7.56999e-14
-7.84962e-14
-7.69072e-14
-7.58144e-14
-7.78613e-14
-7.65395e-14
-7.83054e-14
-7.95336e-14
-7.45862e-14
-8.0505e-14
-7.65499e-14
-7.69176e-14
-7.8916e-14
-7.82291e-14
-7.53841e-14
-7.68968e-14
-7.82083e-14
-7.60642e-14
-7.99603e-14
-7.60642e-14
-7.93983e-14
-7.70009e-14
-7.8583e-14
-8.01581e-14
-7.88328e-14
-7.70425e-14
-7.69454e-14
-7.79307e-14
-7.79064e-14
-7.67615e-14
-8.03593e-14
-7.65499e-14
-7.5509e-14
-7.42566e-14
-8.01442e-14
-7.47076e-14
-7.58664e-14
-7.84199e-14
-7.70078e-14
-7.93948e-14
-7.65776e-14
-7.66991e-14
-7.53494e-14
-7.8694e-14
-7.5627e-14
-7.56513e-14
-7.87079e-14
-7.82534e-14
-8.03003e-14
-7.91381e-14
-7.71883e-14
-7.87356e-14
-7.63938e-14
-8.28296e-14
-7.66331e-14
-8.04565e-14
-7.65117e-14
-7.73479e-14
-7.20014e-14
-6.77132e-14
-7.38264e-14
-7.103e-14
-7.24247e-14
-7.25635e-14
-6.89795e-14
-7.13214e-14
-7.23206e-14
-6.78659e-14
-7.56999e-14
-6.88373e-14
-7.018e-14
-7.33302e-14
-6.89691e-14
-7.03049e-14
-7.24039e-14
-7.10404e-14
-7.25565e-14
-7.32747e-14
-6.99996e-14
-7.03361e-14
-7.00447e-14
-7.01245e-14
-6.8983e-14
-6.94861e-14
-6.9042e-14
-6.87055e-14
-6.96908e-14
-6.89761e-14
-6.84244e-14
-7.0971e-14
-6.81469e-14
-6.85667e-14
-7.29104e-14
-7.13353e-14
-6.81365e-14
-7.12971e-14
-7.31221e-14
-6.98226e-14
-7.51031e-14
-7.28965e-14
-7.18973e-14
-7.11653e-14
-6.90281e-14
-6.83724e-14
-7.1311e-14
-6.80289e-14
-7.22131e-14
-6.94618e-14
-7.06206e-14
-6.98677e-14
-6.80532e-14
-6.84626e-14
-7.45896e-14
-6.5687e-14
-7.17273e-14
-6.69673e-14
-7.24525e-14
-6.95589e-14
-6.28386e-14
-6.55864e-14
-6.09582e-14
-6.22662e-14