/*--------------------------------*- C++ -*----------------------------------*\
| =========                 |                                                 |
| \\      /  F ield         | foam-extend: Open Source CFD                    |
|  \\    /   O peration     | Version:     4.0                                |
|   \\  /    A nd           | Web:         http://www.foam-extend.org         |
|    \\/     M anipulation  |                                                 |
\*---------------------------------------------------------------------------*/
FoamFile
{
    version     2.0;
    format      ascii;
    class       volScalarField;
    location    "1950";
    object      cPlus;
}
// * * * * * * * * * * * * * * * * * * * * * * * * * * * * * * * * * * * * * //

dimensions      [0 0 0 0 0 0 0];

internalField   nonuniform List<scalar> 
6960
(
0.336719
0.336711
0.336702
0.336692
0.336682
0.336674
0.336665
0.336657
0.33665
0.336644
0.336638
0.336633
0.336628
0.336624
0.33662
0.336616
0.336613
0.336611
0.336608
0.336606
0.336604
0.336603
0.336601
0.3366
0.336599
0.336598
0.336598
0.336597
0.336597
0.336597
0.336597
0.336597
0.336597
0.336598
0.336598
0.336599
0.3366
0.336601
0.336603
0.336604
0.336606
0.336608
0.336611
0.336613
0.336616
0.33662
0.336624
0.336628
0.336633
0.336638
0.336644
0.33665
0.336657
0.336665
0.336674
0.336682
0.336692
0.336702
0.336711
0.336719
0.115483
0.115478
0.11547
0.115463
0.115455
0.115448
0.115442
0.115436
0.115431
0.115426
0.115421
0.115417
0.115413
0.11541
0.115407
0.115404
0.115402
0.1154
0.115398
0.115396
0.115395
0.115394
0.115393
0.115392
0.115391
0.115391
0.11539
0.11539
0.11539
0.115389
0.115389
0.11539
0.11539
0.11539
0.115391
0.115391
0.115392
0.115393
0.115394
0.115395
0.115396
0.115398
0.1154
0.115402
0.115404
0.115407
0.11541
0.115413
0.115417
0.115421
0.115426
0.115431
0.115436
0.115442
0.115448
0.115455
0.115463
0.11547
0.115478
0.115483
0.0468843
0.046881
0.0468765
0.0468718
0.0468673
0.046863
0.046859
0.0468554
0.046852
0.0468489
0.0468461
0.0468436
0.0468413
0.0468393
0.0468374
0.0468358
0.0468343
0.046833
0.0468319
0.0468309
0.04683
0.0468292
0.0468286
0.0468281
0.0468276
0.0468272
0.0468269
0.0468267
0.0468266
0.0468265
0.0468265
0.0468266
0.0468267
0.0468269
0.0468272
0.0468276
0.0468281
0.0468286
0.0468292
0.04683
0.0468309
0.0468319
0.046833
0.0468343
0.0468358
0.0468374
0.0468393
0.0468413
0.0468436
0.0468461
0.0468489
0.046852
0.0468554
0.046859
0.046863
0.0468673
0.0468718
0.0468765
0.046881
0.0468843
0.0213566
0.021355
0.0213527
0.0213503
0.0213479
0.0213457
0.0213436
0.0213417
0.0213399
0.0213383
0.0213369
0.0213355
0.0213343
0.0213333
0.0213323
0.0213315
0.0213307
0.02133
0.0213294
0.0213289
0.0213284
0.021328
0.0213277
0.0213274
0.0213272
0.021327
0.0213268
0.0213267
0.0213266
0.0213266
0.0213266
0.0213266
0.0213267
0.0213268
0.021327
0.0213272
0.0213274
0.0213277
0.021328
0.0213284
0.0213289
0.0213294
0.02133
0.0213307
0.0213315
0.0213323
0.0213333
0.0213343
0.0213355
0.0213369
0.0213383
0.0213399
0.0213417
0.0213436
0.0213457
0.0213479
0.0213503
0.0213527
0.021355
0.0213566
0.011281
0.0112805
0.0112796
0.0112787
0.0112777
0.0112768
0.011276
0.0112752
0.0112745
0.0112738
0.0112732
0.0112727
0.0112722
0.0112718
0.0112714
0.011271
0.0112707
0.0112704
0.0112702
0.01127
0.0112698
0.0112696
0.0112695
0.0112694
0.0112693
0.0112692
0.0112691
0.0112691
0.0112691
0.0112691
0.0112691
0.0112691
0.0112691
0.0112691
0.0112692
0.0112693
0.0112694
0.0112695
0.0112696
0.0112698
0.01127
0.0112702
0.0112704
0.0112707
0.011271
0.0112714
0.0112718
0.0112722
0.0112727
0.0112732
0.0112738
0.0112745
0.0112752
0.011276
0.0112768
0.0112777
0.0112787
0.0112796
0.0112805
0.011281
0.00727036
0.00727053
0.00727047
0.00727036
0.00727022
0.00727009
0.00726997
0.00726985
0.00726974
0.00726964
0.00726955
0.00726947
0.00726939
0.00726933
0.00726927
0.00726921
0.00726917
0.00726912
0.00726909
0.00726905
0.00726902
0.007269
0.00726898
0.00726896
0.00726894
0.00726893
0.00726892
0.00726891
0.00726891
0.00726891
0.00726891
0.00726891
0.00726891
0.00726892
0.00726893
0.00726894
0.00726896
0.00726898
0.007269
0.00726902
0.00726905
0.00726909
0.00726912
0.00726917
0.00726921
0.00726927
0.00726933
0.00726939
0.00726947
0.00726955
0.00726964
0.00726974
0.00726985
0.00726997
0.00727009
0.00727022
0.00727036
0.00727047
0.00727053
0.00727036
0.00570174
0.00570226
0.00570265
0.00570298
0.00570329
0.00570356
0.00570382
0.00570406
0.00570427
0.00570447
0.00570465
0.00570481
0.00570495
0.00570508
0.0057052
0.0057053
0.00570539
0.00570548
0.00570555
0.00570561
0.00570567
0.00570571
0.00570575
0.00570579
0.00570582
0.00570584
0.00570586
0.00570587
0.00570588
0.00570589
0.00570589
0.00570588
0.00570587
0.00570586
0.00570584
0.00570582
0.00570579
0.00570575
0.00570571
0.00570567
0.00570561
0.00570555
0.00570548
0.00570539
0.0057053
0.0057052
0.00570508
0.00570495
0.00570481
0.00570465
0.00570447
0.00570427
0.00570406
0.00570382
0.00570356
0.00570329
0.00570298
0.00570265
0.00570226
0.00570174
0.00511377
0.00511447
0.00511508
0.00511564
0.00511616
0.00511665
0.0051171
0.00511751
0.00511789
0.00511823
0.00511854
0.00511882
0.00511908
0.00511931
0.00511951
0.0051197
0.00511986
0.00512
0.00512013
0.00512024
0.00512034
0.00512042
0.00512049
0.00512055
0.0051206
0.00512065
0.00512068
0.0051207
0.00512072
0.00512073
0.00512073
0.00512072
0.0051207
0.00512068
0.00512065
0.0051206
0.00512055
0.00512049
0.00512042
0.00512034
0.00512024
0.00512013
0.00512
0.00511986
0.0051197
0.00511951
0.00511931
0.00511908
0.00511882
0.00511854
0.00511823
0.00511789
0.00511751
0.0051171
0.00511665
0.00511616
0.00511564
0.00511508
0.00511447
0.00511377
0.00491416
0.00491495
0.00491566
0.00491633
0.00491696
0.00491755
0.00491809
0.00491859
0.00491904
0.00491946
0.00491984
0.00492018
0.00492049
0.00492076
0.00492101
0.00492123
0.00492143
0.0049216
0.00492176
0.00492189
0.00492201
0.00492211
0.0049222
0.00492227
0.00492233
0.00492238
0.00492242
0.00492245
0.00492247
0.00492248
0.00492248
0.00492247
0.00492245
0.00492242
0.00492238
0.00492233
0.00492227
0.0049222
0.00492211
0.00492201
0.00492189
0.00492176
0.0049216
0.00492143
0.00492123
0.00492101
0.00492076
0.00492049
0.00492018
0.00491984
0.00491946
0.00491904
0.00491859
0.00491809
0.00491755
0.00491696
0.00491633
0.00491566
0.00491495
0.00491416
0.00486597
0.0048668
0.00486757
0.0048683
0.00486898
0.00486961
0.0048702
0.00487074
0.00487123
0.00487169
0.00487209
0.00487246
0.0048728
0.0048731
0.00487337
0.00487361
0.00487382
0.00487401
0.00487418
0.00487432
0.00487445
0.00487456
0.00487466
0.00487474
0.0048748
0.00487486
0.0048749
0.00487493
0.00487495
0.00487496
0.00487496
0.00487495
0.00487493
0.0048749
0.00487486
0.0048748
0.00487474
0.00487466
0.00487456
0.00487445
0.00487432
0.00487418
0.00487401
0.00487382
0.00487361
0.00487337
0.0048731
0.0048728
0.00487246
0.00487209
0.00487169
0.00487123
0.00487074
0.0048702
0.00486961
0.00486898
0.0048683
0.00486757
0.0048668
0.00486597
0.00487644
0.0048773
0.00487809
0.00487885
0.00487956
0.00488022
0.00488083
0.00488139
0.00488191
0.00488237
0.0048828
0.00488319
0.00488353
0.00488385
0.00488413
0.00488438
0.0048846
0.0048848
0.00488497
0.00488512
0.00488525
0.00488537
0.00488547
0.00488555
0.00488562
0.00488568
0.00488572
0.00488575
0.00488578
0.00488579
0.00488579
0.00488578
0.00488575
0.00488572
0.00488568
0.00488562
0.00488555
0.00488547
0.00488537
0.00488525
0.00488512
0.00488497
0.0048848
0.0048846
0.00488438
0.00488413
0.00488385
0.00488353
0.00488319
0.0048828
0.00488237
0.00488191
0.00488139
0.00488083
0.00488022
0.00487956
0.00487885
0.00487809
0.0048773
0.00487644
0.00491018
0.00491106
0.00491187
0.00491265
0.00491337
0.00491405
0.00491468
0.00491525
0.00491578
0.00491626
0.0049167
0.00491709
0.00491745
0.00491777
0.00491806
0.00491831
0.00491854
0.00491874
0.00491892
0.00491908
0.00491921
0.00491933
0.00491943
0.00491952
0.00491959
0.00491965
0.00491969
0.00491973
0.00491975
0.00491976
0.00491976
0.00491975
0.00491973
0.00491969
0.00491965
0.00491959
0.00491952
0.00491943
0.00491933
0.00491921
0.00491908
0.00491892
0.00491874
0.00491854
0.00491831
0.00491806
0.00491777
0.00491745
0.00491709
0.0049167
0.00491626
0.00491578
0.00491525
0.00491468
0.00491405
0.00491337
0.00491265
0.00491187
0.00491106
0.00491018
0.00495415
0.00495504
0.00495587
0.00495666
0.0049574
0.00495809
0.00495872
0.00495931
0.00495985
0.00496034
0.00496079
0.00496119
0.00496155
0.00496188
0.00496217
0.00496243
0.00496267
0.00496287
0.00496305
0.00496321
0.00496335
0.00496347
0.00496358
0.00496366
0.00496374
0.00496379
0.00496384
0.00496388
0.0049639
0.00496391
0.00496391
0.0049639
0.00496388
0.00496384
0.00496379
0.00496374
0.00496366
0.00496358
0.00496347
0.00496335
0.00496321
0.00496305
0.00496287
0.00496267
0.00496243
0.00496217
0.00496188
0.00496155
0.00496119
0.00496079
0.00496034
0.00495985
0.00495931
0.00495872
0.00495809
0.0049574
0.00495666
0.00495587
0.00495504
0.00495415
0.00500375
0.00500466
0.00500551
0.00500631
0.00500706
0.00500776
0.00500841
0.00500901
0.00500956
0.00501006
0.00501051
0.00501092
0.00501129
0.00501162
0.00501192
0.00501219
0.00501243
0.00501263
0.00501282
0.00501298
0.00501312
0.00501325
0.00501335
0.00501344
0.00501351
0.00501357
0.00501362
0.00501366
0.00501368
0.00501369
0.00501369
0.00501368
0.00501366
0.00501362
0.00501357
0.00501351
0.00501344
0.00501335
0.00501325
0.00501312
0.00501298
0.00501282
0.00501263
0.00501243
0.00501219
0.00501192
0.00501162
0.00501129
0.00501092
0.00501051
0.00501006
0.00500956
0.00500901
0.00500841
0.00500776
0.00500706
0.00500631
0.00500551
0.00500466
0.00500375
0.00505757
0.0050585
0.00505936
0.00506017
0.00506094
0.00506165
0.00506231
0.00506292
0.00506348
0.00506399
0.00506445
0.00506487
0.00506524
0.00506558
0.00506589
0.00506616
0.0050664
0.00506661
0.0050668
0.00506697
0.00506711
0.00506723
0.00506734
0.00506743
0.00506751
0.00506757
0.00506762
0.00506765
0.00506768
0.00506769
0.00506769
0.00506768
0.00506765
0.00506762
0.00506757
0.00506751
0.00506743
0.00506734
0.00506723
0.00506711
0.00506697
0.0050668
0.00506661
0.0050664
0.00506616
0.00506589
0.00506558
0.00506524
0.00506487
0.00506445
0.00506399
0.00506348
0.00506292
0.00506231
0.00506165
0.00506094
0.00506017
0.00505936
0.0050585
0.00505757
0.00511532
0.00511626
0.00511714
0.00511797
0.00511875
0.00511948
0.00512015
0.00512077
0.00512134
0.00512185
0.00512232
0.00512275
0.00512313
0.00512348
0.00512379
0.00512406
0.00512431
0.00512453
0.00512472
0.00512489
0.00512503
0.00512516
0.00512527
0.00512536
0.00512544
0.0051255
0.00512555
0.00512559
0.00512561
0.00512562
0.00512562
0.00512561
0.00512559
0.00512555
0.0051255
0.00512544
0.00512536
0.00512527
0.00512516
0.00512503
0.00512489
0.00512472
0.00512453
0.00512431
0.00512406
0.00512379
0.00512348
0.00512313
0.00512275
0.00512232
0.00512185
0.00512134
0.00512077
0.00512015
0.00511948
0.00511875
0.00511797
0.00511714
0.00511626
0.00511532
0.00517714
0.0051781
0.005179
0.00517985
0.00518064
0.00518138
0.00518207
0.0051827
0.00518328
0.00518381
0.00518429
0.00518472
0.00518511
0.00518546
0.00518578
0.00518606
0.00518631
0.00518653
0.00518673
0.0051869
0.00518705
0.00518718
0.00518729
0.00518739
0.00518746
0.00518753
0.00518758
0.00518762
0.00518764
0.00518765
0.00518765
0.00518764
0.00518762
0.00518758
0.00518753
0.00518746
0.00518739
0.00518729
0.00518718
0.00518705
0.0051869
0.00518673
0.00518653
0.00518631
0.00518606
0.00518578
0.00518546
0.00518511
0.00518472
0.00518429
0.00518381
0.00518328
0.0051827
0.00518207
0.00518138
0.00518064
0.00517985
0.005179
0.0051781
0.00517714
0.00524337
0.00524436
0.00524527
0.00524613
0.00524695
0.0052477
0.0052484
0.00524905
0.00524964
0.00525018
0.00525067
0.00525111
0.00525151
0.00525187
0.00525219
0.00525248
0.00525273
0.00525296
0.00525316
0.00525334
0.00525349
0.00525362
0.00525374
0.00525383
0.00525391
0.00525398
0.00525403
0.00525407
0.00525409
0.0052541
0.0052541
0.00525409
0.00525407
0.00525403
0.00525398
0.00525391
0.00525383
0.00525374
0.00525362
0.00525349
0.00525334
0.00525316
0.00525296
0.00525273
0.00525248
0.00525219
0.00525187
0.00525151
0.00525111
0.00525067
0.00525018
0.00524964
0.00524905
0.0052484
0.0052477
0.00524695
0.00524613
0.00524527
0.00524436
0.00524337
0.00531444
0.00531544
0.00531638
0.00531726
0.00531809
0.00531886
0.00531958
0.00532024
0.00532084
0.00532139
0.00532189
0.00532235
0.00532276
0.00532312
0.00532345
0.00532375
0.00532401
0.00532424
0.00532444
0.00532462
0.00532478
0.00532492
0.00532503
0.00532513
0.00532521
0.00532528
0.00532533
0.00532537
0.0053254
0.00532541
0.00532541
0.0053254
0.00532537
0.00532533
0.00532528
0.00532521
0.00532513
0.00532503
0.00532492
0.00532478
0.00532462
0.00532444
0.00532424
0.00532401
0.00532375
0.00532345
0.00532312
0.00532276
0.00532235
0.00532189
0.00532139
0.00532084
0.00532024
0.00531958
0.00531886
0.00531809
0.00531726
0.00531638
0.00531544
0.00531444
0.00539084
0.00539187
0.00539283
0.00539373
0.00539458
0.00539538
0.00539611
0.00539678
0.0053974
0.00539797
0.00539848
0.00539894
0.00539936
0.00539974
0.00540007
0.00540037
0.00540064
0.00540088
0.00540109
0.00540127
0.00540143
0.00540157
0.00540169
0.00540179
0.00540188
0.00540194
0.005402
0.00540204
0.00540206
0.00540208
0.00540208
0.00540206
0.00540204
0.005402
0.00540194
0.00540188
0.00540179
0.00540169
0.00540157
0.00540143
0.00540127
0.00540109
0.00540088
0.00540064
0.00540037
0.00540007
0.00539974
0.00539936
0.00539894
0.00539848
0.00539797
0.0053974
0.00539678
0.00539611
0.00539538
0.00539458
0.00539373
0.00539283
0.00539187
0.00539084
0.00547318
0.00547424
0.00547522
0.00547615
0.00547702
0.00547783
0.00547858
0.00547927
0.00547991
0.00548048
0.00548101
0.00548148
0.00548191
0.0054823
0.00548265
0.00548295
0.00548323
0.00548347
0.00548369
0.00548388
0.00548404
0.00548418
0.00548431
0.00548441
0.0054845
0.00548457
0.00548462
0.00548466
0.00548469
0.0054847
0.0054847
0.00548469
0.00548466
0.00548462
0.00548457
0.0054845
0.00548441
0.00548431
0.00548418
0.00548404
0.00548388
0.00548369
0.00548347
0.00548323
0.00548295
0.00548265
0.0054823
0.00548191
0.00548148
0.00548101
0.00548048
0.00547991
0.00547927
0.00547858
0.00547783
0.00547702
0.00547615
0.00547522
0.00547424
0.00547318
0.00556213
0.00556322
0.00556423
0.00556518
0.00556607
0.00556691
0.00556768
0.00556839
0.00556904
0.00556964
0.00557017
0.00557066
0.0055711
0.0055715
0.00557186
0.00557217
0.00557246
0.00557271
0.00557293
0.00557312
0.00557329
0.00557344
0.00557356
0.00557367
0.00557376
0.00557383
0.00557389
0.00557393
0.00557396
0.00557397
0.00557397
0.00557396
0.00557393
0.00557389
0.00557383
0.00557376
0.00557367
0.00557356
0.00557344
0.00557329
0.00557312
0.00557293
0.00557271
0.00557246
0.00557217
0.00557186
0.0055715
0.0055711
0.00557066
0.00557017
0.00556964
0.00556904
0.00556839
0.00556768
0.00556691
0.00556607
0.00556518
0.00556423
0.00556322
0.00556213
0.00565849
0.00565962
0.00566066
0.00566164
0.00566256
0.00566342
0.00566421
0.00566494
0.00566561
0.00566622
0.00566678
0.00566728
0.00566774
0.00566815
0.00566851
0.00566884
0.00566913
0.00566939
0.00566961
0.00566981
0.00566999
0.00567014
0.00567027
0.00567038
0.00567047
0.00567054
0.0056706
0.00567065
0.00567067
0.00567069
0.00567069
0.00567067
0.00567065
0.0056706
0.00567054
0.00567047
0.00567038
0.00567027
0.00567014
0.00566999
0.00566981
0.00566961
0.00566939
0.00566913
0.00566884
0.00566851
0.00566815
0.00566774
0.00566728
0.00566678
0.00566622
0.00566561
0.00566494
0.00566421
0.00566342
0.00566256
0.00566164
0.00566066
0.00565962
0.00565849
0.00576322
0.00576438
0.00576545
0.00576646
0.00576741
0.0057683
0.00576912
0.00576987
0.00577056
0.00577119
0.00577177
0.00577228
0.00577275
0.00577317
0.00577355
0.00577389
0.00577419
0.00577446
0.00577469
0.0057749
0.00577508
0.00577523
0.00577537
0.00577548
0.00577557
0.00577565
0.00577571
0.00577575
0.00577578
0.0057758
0.0057758
0.00577578
0.00577575
0.00577571
0.00577565
0.00577557
0.00577548
0.00577537
0.00577523
0.00577508
0.0057749
0.00577469
0.00577446
0.00577419
0.00577389
0.00577355
0.00577317
0.00577275
0.00577228
0.00577177
0.00577119
0.00577056
0.00576987
0.00576912
0.0057683
0.00576741
0.00576646
0.00576545
0.00576438
0.00576322
0.0058774
0.00587861
0.00587971
0.00588076
0.00588174
0.00588266
0.00588351
0.00588429
0.005885
0.00588565
0.00588625
0.00588678
0.00588727
0.0058877
0.00588809
0.00588844
0.00588875
0.00588903
0.00588927
0.00588949
0.00588967
0.00588983
0.00588997
0.00589009
0.00589019
0.00589027
0.00589033
0.00589037
0.0058904
0.00589042
0.00589042
0.0058904
0.00589037
0.00589033
0.00589027
0.00589019
0.00589009
0.00588997
0.00588983
0.00588967
0.00588949
0.00588927
0.00588903
0.00588875
0.00588844
0.00588809
0.0058877
0.00588727
0.00588678
0.00588625
0.00588565
0.005885
0.00588429
0.00588351
0.00588266
0.00588174
0.00588076
0.00587971
0.00587861
0.0058774
0.00600238
0.00600363
0.00600478
0.00600586
0.00600688
0.00600783
0.00600871
0.00600952
0.00601026
0.00601094
0.00601155
0.00601211
0.00601261
0.00601307
0.00601347
0.00601383
0.00601416
0.00601444
0.00601469
0.00601491
0.00601511
0.00601528
0.00601542
0.00601554
0.00601564
0.00601572
0.00601579
0.00601584
0.00601587
0.00601588
0.00601588
0.00601587
0.00601584
0.00601579
0.00601572
0.00601564
0.00601554
0.00601542
0.00601528
0.00601511
0.00601491
0.00601469
0.00601444
0.00601416
0.00601383
0.00601347
0.00601307
0.00601261
0.00601211
0.00601155
0.00601094
0.00601026
0.00600952
0.00600871
0.00600783
0.00600688
0.00600586
0.00600478
0.00600363
0.00600238
0.00613974
0.00614104
0.00614224
0.00614337
0.00614443
0.00614541
0.00614633
0.00614717
0.00614794
0.00614864
0.00614928
0.00614986
0.00615039
0.00615086
0.00615128
0.00615166
0.00615199
0.00615229
0.00615255
0.00615278
0.00615298
0.00615316
0.00615331
0.00615343
0.00615354
0.00615362
0.00615369
0.00615374
0.00615377
0.00615379
0.00615379
0.00615377
0.00615374
0.00615369
0.00615362
0.00615354
0.00615343
0.00615331
0.00615316
0.00615298
0.00615278
0.00615255
0.00615229
0.00615199
0.00615166
0.00615128
0.00615086
0.00615039
0.00614986
0.00614928
0.00614864
0.00614794
0.00614717
0.00614633
0.00614541
0.00614443
0.00614337
0.00614224
0.00614104
0.00613974
0.00629141
0.00629277
0.00629402
0.0062952
0.00629631
0.00629734
0.00629829
0.00629917
0.00629998
0.00630071
0.00630138
0.00630198
0.00630253
0.00630302
0.00630346
0.00630386
0.00630421
0.00630452
0.00630479
0.00630503
0.00630524
0.00630543
0.00630558
0.00630571
0.00630582
0.00630591
0.00630598
0.00630604
0.00630607
0.00630609
0.00630609
0.00630607
0.00630604
0.00630598
0.00630591
0.00630582
0.00630571
0.00630558
0.00630543
0.00630524
0.00630503
0.00630479
0.00630452
0.00630421
0.00630386
0.00630346
0.00630302
0.00630253
0.00630198
0.00630138
0.00630071
0.00629998
0.00629917
0.00629829
0.00629734
0.00629631
0.0062952
0.00629402
0.00629277
0.00629141
0.00645977
0.0064612
0.00646251
0.00646374
0.0064649
0.00646598
0.00646699
0.00646791
0.00646875
0.00646952
0.00647022
0.00647086
0.00647143
0.00647195
0.00647241
0.00647282
0.00647319
0.00647351
0.0064738
0.00647405
0.00647427
0.00647447
0.00647463
0.00647477
0.00647488
0.00647498
0.00647505
0.00647511
0.00647514
0.00647516
0.00647516
0.00647514
0.00647511
0.00647505
0.00647498
0.00647488
0.00647477
0.00647463
0.00647447
0.00647427
0.00647405
0.0064738
0.00647351
0.00647319
0.00647282
0.00647241
0.00647195
0.00647143
0.00647086
0.00647022
0.00646952
0.00646875
0.00646791
0.00646699
0.00646598
0.0064649
0.00646374
0.00646251
0.0064612
0.00645977
0.00664776
0.00664926
0.00665064
0.00665194
0.00665317
0.00665431
0.00665536
0.00665633
0.00665722
0.00665803
0.00665877
0.00665944
0.00666004
0.00666059
0.00666107
0.00666151
0.0066619
0.00666224
0.00666254
0.00666281
0.00666304
0.00666324
0.00666342
0.00666356
0.00666368
0.00666378
0.00666386
0.00666392
0.00666396
0.00666397
0.00666397
0.00666396
0.00666392
0.00666386
0.00666378
0.00666368
0.00666356
0.00666342
0.00666324
0.00666304
0.00666281
0.00666254
0.00666224
0.0066619
0.00666151
0.00666107
0.00666059
0.00666004
0.00665944
0.00665877
0.00665803
0.00665722
0.00665633
0.00665536
0.00665431
0.00665317
0.00665194
0.00665064
0.00664926
0.00664776
0.00685908
0.00686068
0.00686214
0.00686352
0.00686481
0.00686602
0.00686713
0.00686816
0.0068691
0.00686996
0.00687075
0.00687146
0.00687209
0.00687267
0.00687319
0.00687365
0.00687406
0.00687442
0.00687474
0.00687503
0.00687527
0.00687549
0.00687567
0.00687582
0.00687595
0.00687606
0.00687614
0.0068762
0.00687624
0.00687626
0.00687626
0.00687624
0.0068762
0.00687614
0.00687606
0.00687595
0.00687582
0.00687567
0.00687549
0.00687527
0.00687503
0.00687474
0.00687442
0.00687406
0.00687365
0.00687319
0.00687267
0.00687209
0.00687146
0.00687075
0.00686996
0.0068691
0.00686816
0.00686713
0.00686602
0.00686481
0.00686352
0.00686214
0.00686068
0.00685908
0.00709847
0.00710017
0.00710173
0.0071032
0.00710458
0.00710586
0.00710706
0.00710815
0.00710916
0.00711007
0.00711091
0.00711166
0.00711234
0.00711296
0.00711351
0.007114
0.00711444
0.00711483
0.00711517
0.00711547
0.00711573
0.00711596
0.00711616
0.00711632
0.00711646
0.00711657
0.00711666
0.00711673
0.00711677
0.00711679
0.00711679
0.00711677
0.00711673
0.00711666
0.00711657
0.00711646
0.00711632
0.00711616
0.00711596
0.00711573
0.00711547
0.00711517
0.00711483
0.00711444
0.007114
0.00711351
0.00711296
0.00711234
0.00711166
0.00711091
0.00711007
0.00710916
0.00710815
0.00710706
0.00710586
0.00710458
0.0071032
0.00710173
0.00710017
0.00709847
0.00737207
0.0073739
0.00737557
0.00737715
0.00737863
0.00738001
0.00738129
0.00738247
0.00738355
0.00738453
0.00738543
0.00738624
0.00738697
0.00738763
0.00738822
0.00738875
0.00738922
0.00738964
0.00739001
0.00739033
0.00739062
0.00739086
0.00739107
0.00739125
0.0073914
0.00739152
0.00739161
0.00739168
0.00739173
0.00739175
0.00739175
0.00739173
0.00739168
0.00739161
0.00739152
0.0073914
0.00739125
0.00739107
0.00739086
0.00739062
0.00739033
0.00739001
0.00738964
0.00738922
0.00738875
0.00738822
0.00738763
0.00738697
0.00738624
0.00738543
0.00738453
0.00738355
0.00738247
0.00738129
0.00738001
0.00737863
0.00737715
0.00737557
0.0073739
0.00737207
0.00768801
0.00768999
0.0076918
0.00769351
0.00769512
0.00769661
0.007698
0.00769928
0.00770045
0.00770151
0.00770249
0.00770337
0.00770416
0.00770488
0.00770552
0.00770609
0.0077066
0.00770706
0.00770746
0.00770781
0.00770811
0.00770838
0.00770861
0.0077088
0.00770896
0.00770909
0.0077092
0.00770927
0.00770932
0.00770935
0.00770935
0.00770932
0.00770927
0.0077092
0.00770909
0.00770896
0.0077088
0.00770861
0.00770838
0.00770811
0.00770781
0.00770746
0.00770706
0.0077066
0.00770609
0.00770552
0.00770488
0.00770416
0.00770337
0.00770249
0.00770151
0.00770045
0.00769928
0.007698
0.00769661
0.00769512
0.00769351
0.0076918
0.00768999
0.00768801
0.00805729
0.00805945
0.00806143
0.00806331
0.00806507
0.00806671
0.00806823
0.00806963
0.00807091
0.00807208
0.00807314
0.00807411
0.00807498
0.00807577
0.00807647
0.0080771
0.00807766
0.00807816
0.00807859
0.00807898
0.00807932
0.00807961
0.00807986
0.00808007
0.00808025
0.00808039
0.0080805
0.00808059
0.00808064
0.00808067
0.00808067
0.00808064
0.00808059
0.0080805
0.00808039
0.00808025
0.00808007
0.00807986
0.00807961
0.00807932
0.00807898
0.00807859
0.00807816
0.00807766
0.0080771
0.00807647
0.00807577
0.00807498
0.00807411
0.00807314
0.00807208
0.00807091
0.00806963
0.00806823
0.00806671
0.00806507
0.00806331
0.00806143
0.00805945
0.00805729
0.00849512
0.00849751
0.00849971
0.00850179
0.00850374
0.00850556
0.00850725
0.00850881
0.00851023
0.00851153
0.00851272
0.00851379
0.00851476
0.00851563
0.00851641
0.00851711
0.00851773
0.00851829
0.00851877
0.0085192
0.00851958
0.0085199
0.00852018
0.00852041
0.00852061
0.00852077
0.0085209
0.00852099
0.00852105
0.00852108
0.00852108
0.00852105
0.00852099
0.0085209
0.00852077
0.00852061
0.00852041
0.00852018
0.0085199
0.00851958
0.0085192
0.00851877
0.00851829
0.00851773
0.00851711
0.00851641
0.00851563
0.00851476
0.00851379
0.00851272
0.00851153
0.00851023
0.00850881
0.00850725
0.00850556
0.00850374
0.00850179
0.00849971
0.00849751
0.00849512
0.00902305
0.00902574
0.00902822
0.00903056
0.00903277
0.00903483
0.00903673
0.00903849
0.0090401
0.00904157
0.0090429
0.00904412
0.00904521
0.0090462
0.00904708
0.00904787
0.00904857
0.0090492
0.00904975
0.00905023
0.00905066
0.00905102
0.00905134
0.0090516
0.00905183
0.00905201
0.00905215
0.00905225
0.00905232
0.00905236
0.00905236
0.00905232
0.00905225
0.00905215
0.00905201
0.00905183
0.0090516
0.00905134
0.00905102
0.00905066
0.00905023
0.00904975
0.0090492
0.00904857
0.00904787
0.00904708
0.0090462
0.00904521
0.00904412
0.0090429
0.00904157
0.0090401
0.00903849
0.00903673
0.00903483
0.00903277
0.00903056
0.00902822
0.00902574
0.00902305
0.00967228
0.00967536
0.0096782
0.00968091
0.00968345
0.00968582
0.00968801
0.00969003
0.00969189
0.00969358
0.00969512
0.00969652
0.00969778
0.00969891
0.00969993
0.00970085
0.00970166
0.00970238
0.00970301
0.00970357
0.00970406
0.00970448
0.00970484
0.00970515
0.00970541
0.00970562
0.00970578
0.0097059
0.00970598
0.00970602
0.00970602
0.00970598
0.0097059
0.00970578
0.00970562
0.00970541
0.00970515
0.00970484
0.00970448
0.00970406
0.00970357
0.00970301
0.00970238
0.00970166
0.00970085
0.00969993
0.00969891
0.00969778
0.00969652
0.00969512
0.00969358
0.00969189
0.00969003
0.00968801
0.00968582
0.00968345
0.0096809
0.0096782
0.00967536
0.00967228
0.0104884
0.010492
0.0104954
0.0104986
0.0105015
0.0105043
0.0105069
0.0105093
0.0105115
0.0105135
0.0105153
0.010517
0.0105185
0.0105198
0.010521
0.0105221
0.010523
0.0105239
0.0105246
0.0105253
0.0105259
0.0105264
0.0105268
0.0105272
0.0105275
0.0105277
0.0105279
0.010528
0.0105281
0.0105282
0.0105282
0.0105281
0.010528
0.0105279
0.0105277
0.0105275
0.0105272
0.0105268
0.0105264
0.0105259
0.0105253
0.0105246
0.0105239
0.010523
0.0105221
0.010521
0.0105198
0.0105185
0.010517
0.0105153
0.0105135
0.0105115
0.0105093
0.0105069
0.0105043
0.0105015
0.0104986
0.0104954
0.010492
0.0104884
0.0115377
0.011542
0.0115461
0.0115499
0.0115535
0.0115569
0.01156
0.0115629
0.0115656
0.011568
0.0115702
0.0115722
0.011574
0.0115756
0.0115771
0.0115784
0.0115795
0.0115805
0.0115815
0.0115823
0.011583
0.0115836
0.0115841
0.0115845
0.0115849
0.0115852
0.0115854
0.0115856
0.0115857
0.0115858
0.0115858
0.0115857
0.0115856
0.0115854
0.0115852
0.0115849
0.0115845
0.0115841
0.0115836
0.011583
0.0115823
0.0115815
0.0115805
0.0115795
0.0115784
0.0115771
0.0115756
0.011574
0.0115722
0.0115702
0.011568
0.0115656
0.0115629
0.01156
0.0115569
0.0115535
0.0115499
0.0115461
0.011542
0.0115377
0.0129128
0.0129181
0.0129231
0.0129278
0.0129323
0.0129365
0.0129404
0.012944
0.0129472
0.0129502
0.012953
0.0129554
0.0129577
0.0129597
0.0129615
0.0129631
0.0129645
0.0129658
0.0129669
0.0129679
0.0129688
0.0129695
0.0129702
0.0129707
0.0129712
0.0129716
0.0129719
0.0129721
0.0129722
0.0129723
0.0129723
0.0129722
0.0129721
0.0129719
0.0129716
0.0129712
0.0129707
0.0129702
0.0129695
0.0129688
0.0129679
0.0129669
0.0129658
0.0129645
0.0129631
0.0129615
0.0129597
0.0129577
0.0129554
0.012953
0.0129502
0.0129472
0.012944
0.0129404
0.0129365
0.0129323
0.0129278
0.0129231
0.0129181
0.0129128
0.0147335
0.0147402
0.0147464
0.0147524
0.0147581
0.0147633
0.0147682
0.0147727
0.0147769
0.0147806
0.0147841
0.0147872
0.01479
0.0147925
0.0147948
0.0147968
0.0147986
0.0148003
0.0148017
0.0148029
0.014804
0.014805
0.0148058
0.0148065
0.014807
0.0148075
0.0148079
0.0148081
0.0148083
0.0148084
0.0148084
0.0148083
0.0148081
0.0148079
0.0148075
0.014807
0.0148065
0.0148058
0.014805
0.014804
0.0148029
0.0148017
0.0148003
0.0147986
0.0147968
0.0147948
0.0147925
0.01479
0.0147872
0.0147841
0.0147806
0.0147769
0.0147727
0.0147682
0.0147633
0.0147581
0.0147524
0.0147464
0.0147402
0.0147335
0.0171352
0.0171436
0.0171516
0.0171591
0.0171663
0.0171729
0.0171791
0.0171848
0.01719
0.0171948
0.0171992
0.0172031
0.0172067
0.0172099
0.0172127
0.0172153
0.0172176
0.0172196
0.0172214
0.017223
0.0172244
0.0172256
0.0172266
0.0172275
0.0172282
0.0172288
0.0172293
0.0172296
0.0172299
0.01723
0.01723
0.0172299
0.0172296
0.0172293
0.0172288
0.0172282
0.0172275
0.0172266
0.0172256
0.0172244
0.017223
0.0172214
0.0172196
0.0172176
0.0172153
0.0172127
0.0172099
0.0172067
0.0172031
0.0171992
0.0171948
0.01719
0.0171848
0.0171791
0.0171729
0.0171663
0.0171591
0.0171516
0.0171436
0.0171352
0.0202402
0.0202507
0.0202606
0.0202701
0.0202791
0.0202874
0.0202951
0.0203022
0.0203088
0.0203147
0.0203202
0.0203251
0.0203296
0.0203336
0.0203372
0.0203404
0.0203433
0.0203458
0.0203481
0.02035
0.0203518
0.0203533
0.0203545
0.0203556
0.0203565
0.0203573
0.0203579
0.0203583
0.0203586
0.0203587
0.0203587
0.0203586
0.0203583
0.0203579
0.0203573
0.0203565
0.0203556
0.0203545
0.0203533
0.0203518
0.02035
0.0203481
0.0203458
0.0203433
0.0203404
0.0203372
0.0203336
0.0203296
0.0203251
0.0203202
0.0203147
0.0203088
0.0203022
0.0202951
0.0202874
0.0202791
0.0202701
0.0202606
0.0202507
0.0202402
0.0241186
0.0241314
0.0241436
0.0241552
0.0241661
0.0241763
0.0241857
0.0241944
0.0242024
0.0242096
0.0242163
0.0242223
0.0242277
0.0242326
0.024237
0.024241
0.0242445
0.0242476
0.0242503
0.0242527
0.0242549
0.0242567
0.0242583
0.0242596
0.0242607
0.0242616
0.0242623
0.0242628
0.0242632
0.0242634
0.0242634
0.0242632
0.0242628
0.0242623
0.0242616
0.0242607
0.0242596
0.0242583
0.0242567
0.0242549
0.0242527
0.0242503
0.0242476
0.0242445
0.024241
0.024237
0.0242326
0.0242277
0.0242223
0.0242163
0.0242096
0.0242024
0.0241944
0.0241857
0.0241763
0.0241661
0.0241552
0.0241436
0.0241314
0.0241186
0.0287607
0.028776
0.0287904
0.0288042
0.0288171
0.0288291
0.0288403
0.0288506
0.02886
0.0288686
0.0288765
0.0288836
0.02889
0.0288958
0.028901
0.0289057
0.0289098
0.0289135
0.0289168
0.0289196
0.0289221
0.0289243
0.0289261
0.0289277
0.028929
0.0289301
0.028931
0.0289316
0.028932
0.0289322
0.0289322
0.028932
0.0289316
0.028931
0.0289301
0.028929
0.0289277
0.0289261
0.0289243
0.0289221
0.0289196
0.0289168
0.0289135
0.0289098
0.0289057
0.028901
0.0288958
0.02889
0.0288836
0.0288765
0.0288686
0.02886
0.0288506
0.0288403
0.0288291
0.0288171
0.0288042
0.0287904