/*--------------------------------*- C++ -*----------------------------------*\
| =========                 |                                                 |
| \\      /  F ield         | foam-extend: Open Source CFD                    |
|  \\    /   O peration     | Version:     4.0                                |
|   \\  /    A nd           | Web:         http://www.foam-extend.org         |
|    \\/     M anipulation  |                                                 |
\*---------------------------------------------------------------------------*/
FoamFile
{
    version     2.0;
    format      ascii;
    class       volScalarField;
    location    "1750";
    object      cPlus;
}
// * * * * * * * * * * * * * * * * * * * * * * * * * * * * * * * * * * * * * //

dimensions      [0 0 0 0 0 0 0];

internalField   nonuniform List<scalar> 
6960
(
0.351421
0.35142
0.351418
0.351416
0.351414
0.351412
0.35141
0.351408
0.351406
0.351405
0.351403
0.351402
0.3514
0.351399
0.351398
0.351397
0.351396
0.351395
0.351394
0.351393
0.351393
0.351392
0.351392
0.351391
0.351391
0.35139
0.35139
0.35139
0.35139
0.35139
0.35139
0.35139
0.35139
0.35139
0.35139
0.351391
0.351391
0.351392
0.351392
0.351393
0.351393
0.351394
0.351395
0.351396
0.351397
0.351398
0.351399
0.3514
0.351402
0.351403
0.351405
0.351406
0.351408
0.35141
0.351412
0.351414
0.351416
0.351418
0.35142
0.351421
0.12728
0.127279
0.127277
0.127276
0.127274
0.127272
0.127271
0.127269
0.127268
0.127266
0.127265
0.127264
0.127263
0.127262
0.127261
0.12726
0.127259
0.127258
0.127258
0.127257
0.127256
0.127256
0.127255
0.127255
0.127255
0.127254
0.127254
0.127254
0.127254
0.127254
0.127254
0.127254
0.127254
0.127254
0.127254
0.127255
0.127255
0.127255
0.127256
0.127256
0.127257
0.127258
0.127258
0.127259
0.12726
0.127261
0.127262
0.127263
0.127264
0.127265
0.127266
0.127268
0.127269
0.127271
0.127272
0.127274
0.127276
0.127277
0.127279
0.12728
0.0545626
0.0545618
0.0545607
0.0545596
0.0545584
0.0545573
0.0545562
0.0545551
0.0545542
0.0545532
0.0545523
0.0545515
0.0545508
0.05455
0.0545494
0.0545488
0.0545482
0.0545477
0.0545472
0.0545468
0.0545464
0.054546
0.0545457
0.0545455
0.0545452
0.054545
0.0545449
0.0545448
0.0545447
0.0545447
0.0545447
0.0545447
0.0545448
0.0545449
0.054545
0.0545452
0.0545455
0.0545457
0.054546
0.0545464
0.0545468
0.0545472
0.0545477
0.0545482
0.0545488
0.0545494
0.05455
0.0545508
0.0545515
0.0545523
0.0545532
0.0545542
0.0545551
0.0545562
0.0545573
0.0545584
0.0545596
0.0545607
0.0545618
0.0545626
0.0256716
0.0256711
0.0256705
0.0256698
0.0256691
0.0256684
0.0256677
0.0256671
0.0256665
0.0256659
0.0256654
0.0256649
0.0256644
0.025664
0.0256636
0.0256632
0.0256629
0.0256626
0.0256623
0.025662
0.0256618
0.0256616
0.0256614
0.0256612
0.0256611
0.025661
0.0256609
0.0256608
0.0256608
0.0256608
0.0256608
0.0256608
0.0256608
0.0256609
0.025661
0.0256611
0.0256612
0.0256614
0.0256616
0.0256618
0.025662
0.0256623
0.0256626
0.0256629
0.0256632
0.0256636
0.025664
0.0256644
0.0256649
0.0256654
0.0256659
0.0256665
0.0256671
0.0256677
0.0256684
0.0256691
0.0256698
0.0256705
0.0256711
0.0256716
0.0132747
0.0132745
0.0132742
0.0132739
0.0132735
0.0132731
0.0132728
0.0132725
0.0132722
0.0132719
0.0132716
0.0132713
0.0132711
0.0132709
0.0132707
0.0132705
0.0132703
0.0132701
0.01327
0.0132698
0.0132697
0.0132696
0.0132695
0.0132694
0.0132694
0.0132693
0.0132693
0.0132692
0.0132692
0.0132692
0.0132692
0.0132692
0.0132692
0.0132693
0.0132693
0.0132694
0.0132694
0.0132695
0.0132696
0.0132697
0.0132698
0.01327
0.0132701
0.0132703
0.0132705
0.0132707
0.0132709
0.0132711
0.0132713
0.0132716
0.0132719
0.0132722
0.0132725
0.0132728
0.0132731
0.0132735
0.0132739
0.0132742
0.0132745
0.0132747
0.00783078
0.00783073
0.00783062
0.00783049
0.00783035
0.00783021
0.00783007
0.00782995
0.00782983
0.00782971
0.0078296
0.0078295
0.00782941
0.00782932
0.00782924
0.00782916
0.00782909
0.00782903
0.00782897
0.00782892
0.00782887
0.00782883
0.00782879
0.00782876
0.00782873
0.00782871
0.00782869
0.00782868
0.00782867
0.00782867
0.00782867
0.00782867
0.00782868
0.00782869
0.00782871
0.00782873
0.00782876
0.00782879
0.00782883
0.00782887
0.00782892
0.00782897
0.00782903
0.00782909
0.00782916
0.00782924
0.00782932
0.00782941
0.0078295
0.0078296
0.00782971
0.00782983
0.00782995
0.00783007
0.00783021
0.00783035
0.00783049
0.00783062
0.00783073
0.00783078
0.00544835
0.00544841
0.00544842
0.00544842
0.00544841
0.0054484
0.0054484
0.00544839
0.00544838
0.00544837
0.00544837
0.00544836
0.00544835
0.00544835
0.00544834
0.00544834
0.00544833
0.00544833
0.00544833
0.00544832
0.00544832
0.00544832
0.00544831
0.00544831
0.00544831
0.00544831
0.00544831
0.00544831
0.00544831
0.00544831
0.00544831
0.00544831
0.00544831
0.00544831
0.00544831
0.00544831
0.00544831
0.00544831
0.00544832
0.00544832
0.00544832
0.00544833
0.00544833
0.00544833
0.00544834
0.00544834
0.00544835
0.00544835
0.00544836
0.00544837
0.00544837
0.00544838
0.00544839
0.0054484
0.0054484
0.00544841
0.00544842
0.00544842
0.00544841
0.00544835
0.00442674
0.00442685
0.00442693
0.00442701
0.00442708
0.00442714
0.0044272
0.00442726
0.00442732
0.00442737
0.00442742
0.00442747
0.00442751
0.00442755
0.00442759
0.00442762
0.00442766
0.00442769
0.00442771
0.00442774
0.00442776
0.00442778
0.0044278
0.00442781
0.00442783
0.00442784
0.00442784
0.00442785
0.00442785
0.00442786
0.00442786
0.00442785
0.00442785
0.00442784
0.00442784
0.00442783
0.00442781
0.0044278
0.00442778
0.00442776
0.00442774
0.00442771
0.00442769
0.00442766
0.00442762
0.00442759
0.00442755
0.00442751
0.00442747
0.00442742
0.00442737
0.00442732
0.00442726
0.0044272
0.00442714
0.00442708
0.00442701
0.00442693
0.00442685
0.00442674
0.00400575
0.00400589
0.00400601
0.00400613
0.00400624
0.00400634
0.00400644
0.00400654
0.00400663
0.00400671
0.00400679
0.00400687
0.00400694
0.004007
0.00400706
0.00400712
0.00400717
0.00400722
0.00400726
0.0040073
0.00400734
0.00400737
0.0040074
0.00400742
0.00400744
0.00400746
0.00400747
0.00400748
0.00400749
0.00400749
0.00400749
0.00400749
0.00400748
0.00400747
0.00400746
0.00400744
0.00400742
0.0040074
0.00400737
0.00400734
0.0040073
0.00400726
0.00400722
0.00400717
0.00400712
0.00400706
0.004007
0.00400694
0.00400687
0.00400679
0.00400671
0.00400663
0.00400654
0.00400644
0.00400634
0.00400624
0.00400613
0.00400601
0.00400589
0.00400575
0.00384615
0.0038463
0.00384644
0.00384658
0.00384671
0.00384683
0.00384695
0.00384707
0.00384718
0.00384728
0.00384737
0.00384746
0.00384755
0.00384762
0.0038477
0.00384776
0.00384783
0.00384788
0.00384794
0.00384798
0.00384803
0.00384806
0.0038481
0.00384813
0.00384815
0.00384817
0.00384819
0.0038482
0.00384821
0.00384821
0.00384821
0.00384821
0.0038482
0.00384819
0.00384817
0.00384815
0.00384813
0.0038481
0.00384806
0.00384803
0.00384798
0.00384794
0.00384788
0.00384783
0.00384776
0.0038477
0.00384762
0.00384755
0.00384746
0.00384737
0.00384728
0.00384718
0.00384707
0.00384695
0.00384683
0.00384671
0.00384658
0.00384644
0.0038463
0.00384615
0.00379859
0.00379875
0.0037989
0.00379905
0.00379919
0.00379932
0.00379945
0.00379958
0.00379969
0.0037998
0.00379991
0.00380001
0.0038001
0.00380018
0.00380026
0.00380033
0.0038004
0.00380046
0.00380052
0.00380057
0.00380062
0.00380066
0.00380069
0.00380073
0.00380075
0.00380077
0.00380079
0.0038008
0.00380081
0.00380082
0.00380082
0.00380081
0.0038008
0.00380079
0.00380077
0.00380075
0.00380073
0.00380069
0.00380066
0.00380062
0.00380057
0.00380052
0.00380046
0.0038004
0.00380033
0.00380026
0.00380018
0.0038001
0.00380001
0.00379991
0.0037998
0.00379969
0.00379958
0.00379945
0.00379932
0.00379919
0.00379905
0.0037989
0.00379875
0.00379859
0.00379861
0.00379878
0.00379894
0.00379909
0.00379924
0.00379938
0.00379951
0.00379964
0.00379976
0.00379988
0.00379999
0.00380009
0.00380018
0.00380027
0.00380036
0.00380043
0.0038005
0.00380057
0.00380063
0.00380068
0.00380073
0.00380077
0.00380081
0.00380084
0.00380087
0.00380089
0.00380091
0.00380092
0.00380093
0.00380094
0.00380094
0.00380093
0.00380092
0.00380091
0.00380089
0.00380087
0.00380084
0.00380081
0.00380077
0.00380073
0.00380068
0.00380063
0.00380057
0.0038005
0.00380043
0.00380036
0.00380027
0.00380018
0.00380009
0.00379999
0.00379988
0.00379976
0.00379964
0.00379951
0.00379938
0.00379924
0.00379909
0.00379894
0.00379878
0.00379861
0.00381906
0.00381923
0.00381939
0.00381955
0.0038197
0.00381984
0.00381998
0.00382012
0.00382024
0.00382036
0.00382047
0.00382057
0.00382067
0.00382076
0.00382085
0.00382092
0.003821
0.00382106
0.00382112
0.00382118
0.00382123
0.00382127
0.00382131
0.00382134
0.00382137
0.0038214
0.00382141
0.00382143
0.00382144
0.00382144
0.00382144
0.00382144
0.00382143
0.00382141
0.0038214
0.00382137
0.00382134
0.00382131
0.00382127
0.00382123
0.00382118
0.00382112
0.00382106
0.003821
0.00382092
0.00382085
0.00382076
0.00382067
0.00382057
0.00382047
0.00382036
0.00382024
0.00382012
0.00381998
0.00381984
0.0038197
0.00381955
0.00381939
0.00381923
0.00381906
0.00384879
0.00384897
0.00384913
0.00384929
0.00384945
0.00384959
0.00384974
0.00384987
0.00385
0.00385012
0.00385023
0.00385034
0.00385044
0.00385053
0.00385062
0.0038507
0.00385077
0.00385084
0.0038509
0.00385095
0.003851
0.00385105
0.00385109
0.00385112
0.00385115
0.00385118
0.00385119
0.00385121
0.00385122
0.00385122
0.00385122
0.00385122
0.00385121
0.00385119
0.00385118
0.00385115
0.00385112
0.00385109
0.00385105
0.003851
0.00385095
0.0038509
0.00385084
0.00385077
0.0038507
0.00385062
0.00385053
0.00385044
0.00385034
0.00385023
0.00385012
0.00385
0.00384987
0.00384974
0.00384959
0.00384945
0.00384929
0.00384913
0.00384897
0.00384879
0.00388343
0.00388361
0.00388377
0.00388394
0.00388409
0.00388424
0.00388439
0.00388452
0.00388465
0.00388478
0.00388489
0.003885
0.0038851
0.00388519
0.00388528
0.00388536
0.00388544
0.00388551
0.00388557
0.00388562
0.00388568
0.00388572
0.00388576
0.0038858
0.00388583
0.00388585
0.00388587
0.00388588
0.00388589
0.0038859
0.0038859
0.00388589
0.00388588
0.00388587
0.00388585
0.00388583
0.0038858
0.00388576
0.00388572
0.00388568
0.00388562
0.00388557
0.00388551
0.00388544
0.00388536
0.00388528
0.00388519
0.0038851
0.003885
0.00388489
0.00388478
0.00388465
0.00388452
0.00388439
0.00388424
0.00388409
0.00388394
0.00388377
0.00388361
0.00388343
0.00392135
0.00392153
0.0039217
0.00392187
0.00392203
0.00392218
0.00392232
0.00392246
0.00392259
0.00392272
0.00392283
0.00392294
0.00392305
0.00392314
0.00392323
0.00392331
0.00392339
0.00392346
0.00392352
0.00392358
0.00392363
0.00392368
0.00392372
0.00392375
0.00392378
0.00392381
0.00392383
0.00392384
0.00392385
0.00392386
0.00392386
0.00392385
0.00392384
0.00392383
0.00392381
0.00392378
0.00392375
0.00392372
0.00392368
0.00392363
0.00392358
0.00392352
0.00392346
0.00392339
0.00392331
0.00392323
0.00392314
0.00392305
0.00392294
0.00392283
0.00392272
0.00392259
0.00392246
0.00392232
0.00392218
0.00392203
0.00392187
0.0039217
0.00392153
0.00392135
0.00396206
0.00396225
0.00396242
0.00396258
0.00396275
0.0039629
0.00396305
0.00396319
0.00396332
0.00396345
0.00396357
0.00396368
0.00396378
0.00396388
0.00396397
0.00396406
0.00396413
0.0039642
0.00396427
0.00396433
0.00396438
0.00396443
0.00396447
0.0039645
0.00396453
0.00396456
0.00396458
0.00396459
0.0039646
0.00396461
0.00396461
0.0039646
0.00396459
0.00396458
0.00396456
0.00396453
0.0039645
0.00396447
0.00396443
0.00396438
0.00396433
0.00396427
0.0039642
0.00396413
0.00396406
0.00396397
0.00396388
0.00396378
0.00396368
0.00396357
0.00396345
0.00396332
0.00396319
0.00396305
0.0039629
0.00396275
0.00396258
0.00396242
0.00396225
0.00396206
0.00400552
0.00400571
0.00400588
0.00400605
0.00400622
0.00400637
0.00400652
0.00400667
0.0040068
0.00400693
0.00400705
0.00400716
0.00400727
0.00400737
0.00400746
0.00400755
0.00400762
0.0040077
0.00400776
0.00400782
0.00400788
0.00400792
0.00400797
0.004008
0.00400803
0.00400806
0.00400808
0.00400809
0.0040081
0.00400811
0.00400811
0.0040081
0.00400809
0.00400808
0.00400806
0.00400803
0.004008
0.00400797
0.00400792
0.00400788
0.00400782
0.00400776
0.0040077
0.00400762
0.00400755
0.00400746
0.00400737
0.00400727
0.00400716
0.00400705
0.00400693
0.0040068
0.00400667
0.00400652
0.00400637
0.00400622
0.00400605
0.00400588
0.00400571
0.00400552
0.00405187
0.00405206
0.00405224
0.00405241
0.00405258
0.00405274
0.00405289
0.00405304
0.00405318
0.00405331
0.00405343
0.00405354
0.00405365
0.00405375
0.00405385
0.00405393
0.00405401
0.00405408
0.00405415
0.00405421
0.00405427
0.00405432
0.00405436
0.0040544
0.00405443
0.00405445
0.00405447
0.00405449
0.0040545
0.00405451
0.00405451
0.0040545
0.00405449
0.00405447
0.00405445
0.00405443
0.0040544
0.00405436
0.00405432
0.00405427
0.00405421
0.00405415
0.00405408
0.00405401
0.00405393
0.00405385
0.00405375
0.00405365
0.00405354
0.00405343
0.00405331
0.00405318
0.00405304
0.00405289
0.00405274
0.00405258
0.00405241
0.00405224
0.00405206
0.00405187
0.00410135
0.00410154
0.00410172
0.0041019
0.00410207
0.00410223
0.00410239
0.00410254
0.00410268
0.00410281
0.00410294
0.00410305
0.00410316
0.00410327
0.00410336
0.00410345
0.00410353
0.00410361
0.00410367
0.00410374
0.00410379
0.00410384
0.00410388
0.00410392
0.00410395
0.00410398
0.004104
0.00410402
0.00410403
0.00410403
0.00410403
0.00410403
0.00410402
0.004104
0.00410398
0.00410395
0.00410392
0.00410388
0.00410384
0.00410379
0.00410374
0.00410367
0.00410361
0.00410353
0.00410345
0.00410336
0.00410327
0.00410316
0.00410305
0.00410294
0.00410281
0.00410268
0.00410254
0.00410239
0.00410223
0.00410207
0.0041019
0.00410172
0.00410154
0.00410135
0.00415425
0.00415445
0.00415463
0.00415481
0.00415499
0.00415516
0.00415531
0.00415547
0.00415561
0.00415575
0.00415587
0.00415599
0.00415611
0.00415621
0.00415631
0.0041564
0.00415648
0.00415656
0.00415663
0.00415669
0.00415674
0.0041568
0.00415684
0.00415688
0.00415691
0.00415694
0.00415696
0.00415698
0.00415699
0.00415699
0.00415699
0.00415699
0.00415698
0.00415696
0.00415694
0.00415691
0.00415688
0.00415684
0.0041568
0.00415674
0.00415669
0.00415663
0.00415656
0.00415648
0.0041564
0.00415631
0.00415621
0.00415611
0.00415599
0.00415587
0.00415575
0.00415561
0.00415547
0.00415531
0.00415516
0.00415499
0.00415481
0.00415463
0.00415445
0.00415425
0.00421093
0.00421113
0.00421132
0.0042115
0.00421168
0.00421185
0.00421201
0.00421217
0.00421231
0.00421245
0.00421258
0.00421271
0.00421282
0.00421293
0.00421303
0.00421312
0.0042132
0.00421328
0.00421335
0.00421342
0.00421347
0.00421353
0.00421357
0.00421361
0.00421364
0.00421367
0.00421369
0.00421371
0.00421372
0.00421373
0.00421373
0.00421372
0.00421371
0.00421369
0.00421367
0.00421364
0.00421361
0.00421357
0.00421353
0.00421347
0.00421342
0.00421335
0.00421328
0.0042132
0.00421312
0.00421303
0.00421293
0.00421282
0.00421271
0.00421258
0.00421245
0.00421231
0.00421217
0.00421201
0.00421185
0.00421168
0.0042115
0.00421132
0.00421113
0.00421093
0.00427177
0.00427198
0.00427217
0.00427236
0.00427254
0.00427272
0.00427288
0.00427304
0.00427319
0.00427333
0.00427347
0.00427359
0.00427371
0.00427382
0.00427392
0.00427401
0.0042741
0.00427418
0.00427425
0.00427432
0.00427438
0.00427443
0.00427448
0.00427452
0.00427455
0.00427458
0.0042746
0.00427462
0.00427463
0.00427464
0.00427464
0.00427463
0.00427462
0.0042746
0.00427458
0.00427455
0.00427452
0.00427448
0.00427443
0.00427438
0.00427432
0.00427425
0.00427418
0.0042741
0.00427401
0.00427392
0.00427382
0.00427371
0.00427359
0.00427347
0.00427333
0.00427319
0.00427304
0.00427288
0.00427272
0.00427254
0.00427236
0.00427217
0.00427198
0.00427177
0.00433724
0.00433746
0.00433766
0.00433785
0.00433803
0.00433821
0.00433838
0.00433855
0.0043387
0.00433885
0.00433898
0.00433911
0.00433923
0.00433934
0.00433945
0.00433954
0.00433963
0.00433971
0.00433979
0.00433986
0.00433992
0.00433997
0.00434002
0.00434006
0.00434009
0.00434012
0.00434015
0.00434016
0.00434018
0.00434018
0.00434018
0.00434018
0.00434016
0.00434015
0.00434012
0.00434009
0.00434006
0.00434002
0.00433997
0.00433992
0.00433986
0.00433979
0.00433971
0.00433963
0.00433954
0.00433945
0.00433934
0.00433923
0.00433911
0.00433898
0.00433885
0.0043387
0.00433855
0.00433838
0.00433821
0.00433803
0.00433785
0.00433766
0.00433746
0.00433724
0.00440788
0.0044081
0.0044083
0.0044085
0.00440869
0.00440888
0.00440905
0.00440922
0.00440938
0.00440953
0.00440967
0.0044098
0.00440992
0.00441004
0.00441014
0.00441024
0.00441033
0.00441042
0.00441049
0.00441056
0.00441063
0.00441068
0.00441073
0.00441077
0.00441081
0.00441084
0.00441086
0.00441088
0.00441089
0.0044109
0.0044109
0.00441089
0.00441088
0.00441086
0.00441084
0.00441081
0.00441077
0.00441073
0.00441068
0.00441063
0.00441056
0.00441049
0.00441042
0.00441033
0.00441024
0.00441014
0.00441004
0.00440992
0.0044098
0.00440967
0.00440953
0.00440938
0.00440922
0.00440905
0.00440888
0.00440869
0.0044085
0.0044083
0.0044081
0.00440788
0.0044843
0.00448453
0.00448474
0.00448494
0.00448514
0.00448533
0.00448551
0.00448568
0.00448584
0.004486
0.00448614
0.00448628
0.0044864
0.00448652
0.00448663
0.00448673
0.00448683
0.00448691
0.00448699
0.00448706
0.00448713
0.00448718
0.00448723
0.00448728
0.00448732
0.00448735
0.00448737
0.00448739
0.0044874
0.00448741
0.00448741
0.0044874
0.00448739
0.00448737
0.00448735
0.00448732
0.00448728
0.00448723
0.00448718
0.00448713
0.00448706
0.00448699
0.00448691
0.00448683
0.00448673
0.00448663
0.00448652
0.0044864
0.00448628
0.00448614
0.004486
0.00448584
0.00448568
0.00448551
0.00448533
0.00448514
0.00448494
0.00448474
0.00448453
0.0044843
0.00456724
0.00456747
0.00456769
0.0045679
0.0045681
0.0045683
0.00456848
0.00456866
0.00456883
0.00456898
0.00456913
0.00456927
0.0045694
0.00456953
0.00456964
0.00456974
0.00456984
0.00456993
0.00457001
0.00457008
0.00457015
0.00457021
0.00457026
0.00457031
0.00457034
0.00457038
0.0045704
0.00457042
0.00457043
0.00457044
0.00457044
0.00457043
0.00457042
0.0045704
0.00457038
0.00457034
0.00457031
0.00457026
0.00457021
0.00457015
0.00457008
0.00457001
0.00456993
0.00456984
0.00456974
0.00456964
0.00456953
0.0045694
0.00456927
0.00456913
0.00456898
0.00456883
0.00456866
0.00456848
0.0045683
0.0045681
0.0045679
0.00456769
0.00456747
0.00456724
0.00465755
0.00465779
0.00465801
0.00465823
0.00465844
0.00465864
0.00465883
0.00465901
0.00465919
0.00465935
0.0046595
0.00465965
0.00465978
0.00465991
0.00466003
0.00466014
0.00466024
0.00466033
0.00466041
0.00466049
0.00466056
0.00466062
0.00466067
0.00466072
0.00466076
0.00466079
0.00466082
0.00466084
0.00466085
0.00466085
0.00466085
0.00466085
0.00466084
0.00466082
0.00466079
0.00466076
0.00466072
0.00466067
0.00466062
0.00466056
0.00466049
0.00466041
0.00466033
0.00466024
0.00466014
0.00466003
0.00465991
0.00465978
0.00465965
0.0046595
0.00465935
0.00465919
0.00465901
0.00465883
0.00465864
0.00465844
0.00465823
0.00465801
0.00465779
0.00465755
0.00475625
0.0047565
0.00475673
0.00475696
0.00475717
0.00475738
0.00475758
0.00475777
0.00475795
0.00475812
0.00475828
0.00475843
0.00475857
0.0047587
0.00475882
0.00475893
0.00475904
0.00475913
0.00475922
0.0047593
0.00475937
0.00475943
0.00475949
0.00475954
0.00475958
0.00475961
0.00475964
0.00475966
0.00475967
0.00475968
0.00475968
0.00475967
0.00475966
0.00475964
0.00475961
0.00475958
0.00475954
0.00475949
0.00475943
0.00475937
0.0047593
0.00475922
0.00475913
0.00475904
0.00475893
0.00475882
0.0047587
0.00475857
0.00475843
0.00475828
0.00475812
0.00475795
0.00475777
0.00475758
0.00475738
0.00475717
0.00475696
0.00475673
0.0047565
0.00475625
0.00486458
0.00486484
0.00486508
0.00486531
0.00486554
0.00486575
0.00486596
0.00486616
0.00486635
0.00486652
0.00486669
0.00486684
0.00486699
0.00486712
0.00486725
0.00486737
0.00486747
0.00486757
0.00486766
0.00486775
0.00486782
0.00486789
0.00486794
0.00486799
0.00486804
0.00486807
0.0048681
0.00486812
0.00486814
0.00486814
0.00486814
0.00486814
0.00486812
0.0048681
0.00486807
0.00486804
0.00486799
0.00486794
0.00486789
0.00486782
0.00486775
0.00486766
0.00486757
0.00486747
0.00486737
0.00486725
0.00486712
0.00486699
0.00486684
0.00486669
0.00486652
0.00486635
0.00486616
0.00486596
0.00486575
0.00486554
0.00486531
0.00486508
0.00486484
0.00486458
0.00498401
0.00498428
0.00498454
0.00498478
0.00498502
0.00498524
0.00498546
0.00498566
0.00498586
0.00498604
0.00498622
0.00498638
0.00498653
0.00498667
0.0049868
0.00498693
0.00498704
0.00498714
0.00498724
0.00498732
0.0049874
0.00498747
0.00498753
0.00498758
0.00498762
0.00498766
0.00498769
0.00498771
0.00498773
0.00498773
0.00498773
0.00498773
0.00498771
0.00498769
0.00498766
0.00498762
0.00498758
0.00498753
0.00498747
0.0049874
0.00498732
0.00498724
0.00498714
0.00498704
0.00498693
0.0049868
0.00498667
0.00498653
0.00498638
0.00498622
0.00498604
0.00498586
0.00498566
0.00498546
0.00498524
0.00498502
0.00498478
0.00498454
0.00498428
0.00498401
0.00511638
0.00511667
0.00511693
0.00511719
0.00511743
0.00511767
0.0051179
0.00511811
0.00511832
0.00511851
0.00511869
0.00511886
0.00511902
0.00511917
0.00511931
0.00511943
0.00511955
0.00511966
0.00511976
0.00511985
0.00511993
0.00512
0.00512006
0.00512012
0.00512017
0.0051202
0.00512023
0.00512026
0.00512027
0.00512028
0.00512028
0.00512027
0.00512026
0.00512023
0.0051202
0.00512017
0.00512012
0.00512006
0.00512
0.00511993
0.00511985
0.00511976
0.00511966
0.00511955
0.00511943
0.00511931
0.00511917
0.00511902
0.00511886
0.00511869
0.00511851
0.00511832
0.00511811
0.0051179
0.00511767
0.00511743
0.00511719
0.00511693
0.00511667
0.00511638
0.00526393
0.00526423
0.00526451
0.00526478
0.00526504
0.00526529
0.00526553
0.00526576
0.00526597
0.00526617
0.00526636
0.00526654
0.00526671
0.00526687
0.00526701
0.00526715
0.00526727
0.00526739
0.00526749
0.00526758
0.00526767
0.00526774
0.00526781
0.00526787
0.00526792
0.00526796
0.00526799
0.00526802
0.00526803
0.00526804
0.00526804
0.00526803
0.00526802
0.00526799
0.00526796
0.00526792
0.00526787
0.00526781
0.00526774
0.00526767
0.00526758
0.00526749
0.00526739
0.00526727
0.00526715
0.00526701
0.00526687
0.00526671
0.00526654
0.00526636
0.00526617
0.00526597
0.00526576
0.00526553
0.00526529
0.00526504
0.00526478
0.00526451
0.00526423
0.00526393
0.0054295
0.00542982
0.00543011
0.0054304
0.00543067
0.00543094
0.00543119
0.00543143
0.00543166
0.00543187
0.00543207
0.00543226
0.00543244
0.0054326
0.00543276
0.0054329
0.00543303
0.00543315
0.00543326
0.00543336
0.00543345
0.00543353
0.0054336
0.00543366
0.00543372
0.00543376
0.00543379
0.00543382
0.00543384
0.00543385
0.00543385
0.00543384
0.00543382
0.00543379
0.00543376
0.00543372
0.00543366
0.0054336
0.00543353
0.00543345
0.00543336
0.00543326
0.00543315
0.00543303
0.0054329
0.00543276
0.0054326
0.00543244
0.00543226
0.00543207
0.00543187
0.00543166
0.00543143
0.00543119
0.00543094
0.00543067
0.0054304
0.00543011
0.00542982
0.0054295
0.00561668
0.00561702
0.00561733
0.00561763
0.00561793
0.00561821
0.00561848
0.00561873
0.00561897
0.0056192
0.00561942
0.00561962
0.00561981
0.00561998
0.00562015
0.0056203
0.00562044
0.00562057
0.00562068
0.00562079
0.00562089
0.00562097
0.00562105
0.00562111
0.00562117
0.00562121
0.00562125
0.00562128
0.0056213
0.00562131
0.00562131
0.0056213
0.00562128
0.00562125
0.00562121
0.00562117
0.00562111
0.00562105
0.00562097
0.00562089
0.00562079
0.00562068
0.00562057
0.00562044
0.0056203
0.00562015
0.00561998
0.00561981
0.00561962
0.00561942
0.0056192
0.00561897
0.00561873
0.00561848
0.00561821
0.00561793
0.00561763
0.00561733
0.00561702
0.00561668
0.00583012
0.00583048
0.00583082
0.00583115
0.00583146
0.00583176
0.00583205
0.00583232
0.00583258
0.00583283
0.00583306
0.00583328
0.00583348
0.00583367
0.00583384
0.00583401
0.00583416
0.00583429
0.00583442
0.00583453
0.00583464
0.00583473
0.00583481
0.00583488
0.00583494
0.00583499
0.00583503
0.00583506
0.00583508
0.00583509
0.00583509
0.00583508
0.00583506
0.00583503
0.00583499
0.00583494
0.00583488
0.00583481
0.00583473
0.00583464
0.00583453
0.00583442
0.00583429
0.00583416
0.00583401
0.00583384
0.00583367
0.00583348
0.00583328
0.00583306
0.00583283
0.00583258
0.00583232
0.00583205
0.00583176
0.00583146
0.00583115
0.00583082
0.00583048
0.00583012
0.00607596
0.00607636
0.00607672
0.00607707
0.00607741
0.00607774
0.00607805
0.00607835
0.00607863
0.00607889
0.00607914
0.00607938
0.00607959
0.0060798
0.00607999
0.00608017
0.00608033
0.00608048
0.00608061
0.00608074
0.00608085
0.00608095
0.00608103
0.00608111
0.00608117
0.00608123
0.00608127
0.0060813
0.00608132
0.00608133
0.00608133
0.00608132
0.0060813
0.00608127
0.00608123
0.00608117
0.00608111
0.00608103
0.00608095
0.00608085
0.00608074
0.00608061
0.00608048
0.00608033
0.00608017
0.00607999
0.0060798
0.00607959
0.00607938
0.00607914
0.00607889
0.00607863
0.00607835
0.00607805
0.00607774
0.00607741
0.00607707
0.00607672
0.00607636
0.00607596
0.00636245
0.00636288
0.00636328
0.00636366
0.00636403
0.00636439
0.00636473
0.00636505
0.00636536
0.00636565
0.00636592
0.00636618
0.00636642
0.00636664
0.00636685
0.00636704
0.00636722
0.00636738
0.00636753
0.00636767
0.00636779
0.0063679
0.00636799
0.00636808
0.00636815
0.00636821
0.00636825
0.00636829
0.00636831
0.00636832
0.00636832
0.00636831
0.00636829
0.00636825
0.00636821
0.00636815
0.00636808
0.00636799
0.0063679
0.00636779
0.00636767
0.00636753
0.00636738
0.00636722
0.00636704
0.00636685
0.00636664
0.00636642
0.00636618
0.00636592
0.00636565
0.00636536
0.00636505
0.00636473
0.00636439
0.00636403
0.00636366
0.00636328
0.00636288
0.00636245
0.00670092
0.00670139
0.00670183
0.00670226
0.00670267
0.00670306
0.00670344
0.0067038
0.00670414
0.00670446
0.00670476
0.00670505
0.00670531
0.00670556
0.00670579
0.006706
0.0067062
0.00670638
0.00670655
0.0067067
0.00670683
0.00670695
0.00670706
0.00670715
0.00670723
0.00670729
0.00670735
0.00670738
0.00670741
0.00670742
0.00670742
0.00670741
0.00670738
0.00670735
0.00670729
0.00670723
0.00670715
0.00670706
0.00670695
0.00670683
0.0067067
0.00670655
0.00670638
0.0067062
0.006706
0.00670579
0.00670556
0.00670531
0.00670505
0.00670476
0.00670446
0.00670414
0.0067038
0.00670344
0.00670306
0.00670267
0.00670226
0.00670183
0.00670139
0.00670092
0.00710731
0.00710784
0.00710834
0.00710882
0.00710928
0.00710972
0.00711015
0.00711055
0.00711094
0.0071113
0.00711164
0.00711196
0.00711226
0.00711254
0.0071128
0.00711304
0.00711326
0.00711346
0.00711365
0.00711382
0.00711397
0.0071141
0.00711422
0.00711433
0.00711441
0.00711449
0.00711455
0.00711459
0.00711462
0.00711463
0.00711463
0.00711462
0.00711459
0.00711455
0.00711449
0.00711441
0.00711433
0.00711422
0.0071141
0.00711397
0.00711382
0.00711365
0.00711346
0.00711326
0.00711304
0.0071128
0.00711254
0.00711226
0.00711196
0.00711164
0.0071113
0.00711094
0.00711055
0.00711015
0.00710972
0.00710928
0.00710882
0.00710834
0.00710784
0.00710731
0.00760452
0.00760512
0.00760569
0.00760624
0.00760677
0.00760728
0.00760776
0.00760823
0.00760867
0.00760908
0.00760947
0.00760984
0.00761018
0.0076105
0.0076108
0.00761108
0.00761133
0.00761156
0.00761178
0.00761197
0.00761214
0.0076123
0.00761244
0.00761256
0.00761266
0.00761274
0.00761281
0.00761286
0.00761289
0.00761291
0.00761291
0.00761289
0.00761286
0.00761281
0.00761274
0.00761266
0.00761256
0.00761244
0.0076123
0.00761214
0.00761197
0.00761178
0.00761156
0.00761133
0.00761108
0.0076108
0.0076105
0.00761018
0.00760984
0.00760947
0.00760908
0.00760867
0.00760823
0.00760776
0.00760728
0.00760677
0.00760624
0.00760569
0.00760512
0.00760452
0.00822573
0.00822643
0.0082271
0.00822774
0.00822836
0.00822896
0.00822953
0.00823007
0.00823059
0.00823107
0.00823153
0.00823196
0.00823237
0.00823274
0.00823309
0.00823341
0.00823371
0.00823399
0.00823424
0.00823446
0.00823467
0.00823485
0.00823501
0.00823515
0.00823527
0.00823537
0.00823545
0.00823551
0.00823555
0.00823556
0.00823556
0.00823555
0.00823551
0.00823545
0.00823537
0.00823527
0.00823515
0.00823501
0.00823485
0.00823467
0.00823446
0.00823424
0.00823399
0.00823371
0.00823341
0.00823309
0.00823274
0.00823237
0.00823196
0.00823153
0.00823107
0.00823059
0.00823007
0.00822953
0.00822896
0.00822836
0.00822774
0.0082271
0.00822643
0.00822573
0.00901891
0.00901974
0.00902053
0.0090213
0.00902205
0.00902277
0.00902346
0.00902411
0.00902473
0.00902531
0.00902586
0.00902638
0.00902686
0.00902732
0.00902774
0.00902812
0.00902848
0.00902881
0.00902911
0.00902939
0.00902963
0.00902985
0.00903005
0.00903021
0.00903036
0.00903048
0.00903057
0.00903064
0.00903069
0.00903071
0.00903071
0.00903069
0.00903064
0.00903057
0.00903048
0.00903036
0.00903021
0.00903005
0.00902985
0.00902963
0.00902939
0.00902911
0.00902881
0.00902848
0.00902812
0.00902774
0.00902732
0.00902686
0.00902638
0.00902586
0.00902531
0.00902473
0.00902411
0.00902346
0.00902277
0.00902205
0.0090213
0.00902053
0.00901974
0.00901891
0.0100512
0.0100522
0.0100531
0.0100541
0.010055
0.0100559
0.0100567
0.0100575
0.0100583
0.010059
0.0100597
0.0100603
0.0100609
0.0100615
0.010062
0.0100625
0.0100629
0.0100633
0.0100637
0.010064
0.0100643
0.0100646
0.0100648
0.010065
0.0100652
0.0100654
0.0100655
0.0100656
0.0100656
0.0100657
0.0100657
0.0100656
0.0100656
0.0100655
0.0100654
0.0100652
0.010065
0.0100648
0.0100646
0.0100643
0.010064
0.0100637
0.0100633
0.0100629
0.0100625
0.010062
0.0100615
0.0100609
0.0100603
0.0100597
0.010059
0.0100583
0.0100575
0.0100567
0.0100559
0.010055
0.0100541
0.0100531
0.0100522
0.0100512
0.0114103
0.0114115
0.0114127
0.0114139
0.0114151
0.0114162
0.0114172
0.0114182
0.0114192
0.0114201
0.0114209
0.0114217
0.0114225
0.0114232
0.0114238
0.0114244
0.011425
0.0114255
0.011426
0.0114264
0.0114268
0.0114271
0.0114274
0.0114277
0.0114279
0.0114281
0.0114282
0.0114283
0.0114284
0.0114284
0.0114284
0.0114284
0.0114283
0.0114282
0.0114281
0.0114279
0.0114277
0.0114274
0.0114271
0.0114268
0.0114264
0.011426
0.0114255
0.011425
0.0114244
0.0114238
0.0114232
0.0114225
0.0114217
0.0114209
0.0114201
0.0114192
0.0114182
0.0114172
0.0114162
0.0114151
0.0114139
0.0114127
0.0114115
0.0114103
0.0131984
0.0132
0.0132015
0.013203
0.0132045
0.0132059
0.0132072
0.0132085
0.0132097
0.0132108
0.0132119
0.0132129
0.0132138
0.0132147
0.0132155
0.0132163
0.013217
0.0132176
0.0132182
0.0132187
0.0132192
0.0132196
0.01322
0.0132203
0.0132206
0.0132208