/*--------------------------------*- C++ -*----------------------------------*\
| =========                 |                                                 |
| \\      /  F ield         | foam-extend: Open Source CFD                    |
|  \\    /   O peration     | Version:     4.0                                |
|   \\  /    A nd           | Web:         http://www.foam-extend.org         |
|    \\/     M anipulation  |                                                 |
\*---------------------------------------------------------------------------*/
FoamFile
{
    version     2.0;
    format      ascii;
    class       volVectorField;
    location    "16";
    object      bodyForce;
}
// * * * * * * * * * * * * * * * * * * * * * * * * * * * * * * * * * * * * * //

dimensions      [0 -1 0 0 0 0 0];

internalField   nonuniform List<vector> 
6960
(
(1.58853e-05 -4.4698e+08 -0)
(1.26588e-05 -4.4698e+08 -0)
(-1.28241e-05 -4.4698e+08 -0)
(-1.44307e-05 -4.4698e+08 -0)
(-8.41068e-06 -4.4698e+08 -0)
(-5.75112e-06 -4.4698e+08 -0)
(-3.76433e-06 -4.4698e+08 -0)
(-2.63481e-06 -4.4698e+08 -0)
(-1.81241e-06 -4.4698e+08 -0)
(-1.27465e-06 -4.4698e+08 -0)
(-8.68518e-07 -4.4698e+08 -0)
(-5.90637e-07 -4.4698e+08 -0)
(-3.76883e-07 -4.4698e+08 -0)
(-2.2388e-07 -4.4698e+08 -0)
(-9.90021e-08 -4.4698e+08 -0)
(-2.25005e-09 -4.4698e+08 -0)
(6.63764e-08 -4.4698e+08 -0)
(1.02377e-07 -4.4698e+08 -0)
(1.40628e-07 -4.4698e+08 -0)
(1.75504e-07 -4.4698e+08 -0)
(1.82254e-07 -4.4698e+08 -0)
(1.85629e-07 -4.4698e+08 -0)
(1.92379e-07 -4.4698e+08 -0)
(1.76629e-07 -4.4698e+08 -0)
(1.57503e-07 -4.4698e+08 -0)
(1.24878e-07 -4.4698e+08 -0)
(1.00127e-07 -4.4698e+08 -0)
(7.76266e-08 -4.4698e+08 -0)
(4.16259e-08 -4.4698e+08 -0)
(1.57503e-08 -4.4698e+08 -0)
(-2.13754e-08 -4.4698e+08 -0)
(-4.7251e-08 -4.4698e+08 -0)
(-7.42516e-08 -4.4698e+08 -0)
(-1.00127e-07 -4.4698e+08 -0)
(-1.27128e-07 -4.4698e+08 -0)
(-1.62003e-07 -4.4698e+08 -0)
(-1.72129e-07 -4.4698e+08 -0)
(-1.77754e-07 -4.4698e+08 -0)
(-1.87879e-07 -4.4698e+08 -0)
(-1.84504e-07 -4.4698e+08 -0)
(-1.68754e-07 -4.4698e+08 -0)
(-1.55253e-07 -4.4698e+08 -0)
(-1.14752e-07 -4.4698e+08 -0)
(-5.62512e-08 -4.4698e+08 -0)
(7.87516e-09 -4.4698e+08 -0)
(9.4502e-08 -4.4698e+08 -0)
(2.1938e-07 -4.4698e+08 -0)
(3.81383e-07 -4.4698e+08 -0)
(5.94012e-07 -4.4698e+08 -0)
(8.77518e-07 -4.4698e+08 -0)
(1.27015e-06 -4.4698e+08 -0)
(1.79554e-06 -4.4698e+08 -0)
(2.6348e-06 -4.4698e+08 -0)
(3.77445e-06 -4.4698e+08 -0)
(5.75e-06 -4.4698e+08 -0)
(8.40505e-06 -4.4698e+08 -0)
(1.44183e-05 -4.4698e+08 -0)
(1.2823e-05 -4.4698e+08 -0)
(-1.26621e-05 -4.4698e+08 -0)
(-1.58955e-05 -4.4698e+08 -0)
(2.76205e-05 -1.63332e+08 -0)
(2.20203e-05 -1.63332e+08 -0)
(-2.22841e-05 -1.63332e+08 -0)
(-2.50929e-05 -1.63332e+08 -0)
(-1.46265e-05 -1.63332e+08 -0)
(-9.99499e-06 -1.63332e+08 -0)
(-6.55053e-06 -1.63332e+08 -0)
(-4.58396e-06 -1.63332e+08 -0)
(-3.15039e-06 -1.63332e+08 -0)
(-2.22171e-06 -1.63332e+08 -0)
(-1.51357e-06 -1.63332e+08 -0)
(-1.02491e-06 -1.63332e+08 -0)
(-6.59485e-07 -1.63332e+08 -0)
(-3.89205e-07 -1.63332e+08 -0)
(-1.71899e-07 -1.63332e+08 -0)
(-5.40562e-09 -1.63332e+08 -0)
(1.17842e-07 -1.63332e+08 -0)
(1.80548e-07 -1.63332e+08 -0)
(2.45415e-07 -1.63332e+08 -0)
(3.02715e-07 -1.63332e+08 -0)
(3.20013e-07 -1.63332e+08 -0)
(3.21094e-07 -1.63332e+08 -0)
(3.29743e-07 -1.63332e+08 -0)
(3.07039e-07 -1.63332e+08 -0)
(2.73524e-07 -1.63332e+08 -0)
(2.22711e-07 -1.63332e+08 -0)
(1.7298e-07 -1.63332e+08 -0)
(1.32978e-07 -1.63332e+08 -0)
(7.78409e-08 -1.63332e+08 -0)
(2.70281e-08 -1.63332e+08 -0)
(-3.4596e-08 -1.63332e+08 -0)
(-8.97333e-08 -1.63332e+08 -0)
(-1.31897e-07 -1.63332e+08 -0)
(-1.70818e-07 -1.63332e+08 -0)
(-2.17306e-07 -1.63332e+08 -0)
(-2.82173e-07 -1.63332e+08 -0)
(-3.02715e-07 -1.63332e+08 -0)
(-3.07039e-07 -1.63332e+08 -0)
(-3.21094e-07 -1.63332e+08 -0)
(-3.20013e-07 -1.63332e+08 -0)
(-2.99471e-07 -1.63332e+08 -0)
(-2.692e-07 -1.63332e+08 -0)
(-2.03251e-07 -1.63332e+08 -0)
(-9.83823e-08 -1.63332e+08 -0)
(1.83791e-08 -1.63332e+08 -0)
(1.61087e-07 -1.63332e+08 -0)
(3.79474e-07 -1.63332e+08 -0)
(6.58404e-07 -1.63332e+08 -0)
(1.04112e-06 -1.63332e+08 -0)
(1.52547e-06 -1.63332e+08 -0)
(2.2109e-06 -1.63332e+08 -0)
(3.12877e-06 -1.63332e+08 -0)
(4.58396e-06 -1.63332e+08 -0)
(6.56458e-06 -1.63332e+08 -0)
(1.00026e-05 -1.63332e+08 -0)
(1.46146e-05 -1.63332e+08 -0)
(2.50669e-05 -1.63332e+08 -0)
(2.22744e-05 -1.63332e+08 -0)
(-2.20192e-05 -1.63332e+08 -0)
(-2.76216e-05 -1.63332e+08 -0)
(3.07435e-05 -7.59641e+07 -0)
(2.42296e-05 -7.59641e+07 -0)
(-2.4677e-05 -7.59641e+07 -0)
(-2.73653e-05 -7.59641e+07 -0)
(-1.60019e-05 -7.59641e+07 -0)
(-1.09389e-05 -7.59641e+07 -0)
(-7.16998e-06 -7.59641e+07 -0)
(-5.02321e-06 -7.59641e+07 -0)
(-3.45052e-06 -7.59641e+07 -0)
(-2.4314e-06 -7.59641e+07 -0)
(-1.6547e-06 -7.59641e+07 -0)
(-1.12645e-06 -7.59641e+07 -0)
(-7.23632e-07 -7.59641e+07 -0)
(-4.24531e-07 -7.59641e+07 -0)
(-1.85732e-07 -7.59641e+07 -0)
(-7.23632e-09 -7.59641e+07 -0)
(1.26636e-07 -7.59641e+07 -0)
(2.03823e-07 -7.59641e+07 -0)
(2.6895e-07 -7.59641e+07 -0)
(3.29252e-07 -7.59641e+07 -0)
(3.50961e-07 -7.59641e+07 -0)
(3.55786e-07 -7.59641e+07 -0)
(3.55786e-07 -7.59641e+07 -0)
(3.36489e-07 -7.59641e+07 -0)
(3.00307e-07 -7.59641e+07 -0)
(2.44829e-07 -7.59641e+07 -0)
(1.90556e-07 -7.59641e+07 -0)
(1.4352e-07 -7.59641e+07 -0)
(8.68358e-08 -7.59641e+07 -0)
(2.89453e-08 -7.59641e+07 -0)
(-3.73876e-08 -7.59641e+07 -0)
(-1.00102e-07 -7.59641e+07 -0)
(-1.45932e-07 -7.59641e+07 -0)
(-1.84526e-07 -7.59641e+07 -0)
(-2.44829e-07 -7.59641e+07 -0)
(-3.06337e-07 -7.59641e+07 -0)
(-3.29252e-07 -7.59641e+07 -0)
(-3.37695e-07 -7.59641e+07 -0)
(-3.53373e-07 -7.59641e+07 -0)
(-3.52167e-07 -7.59641e+07 -0)
(-3.28046e-07 -7.59641e+07 -0)
(-2.91865e-07 -7.59641e+07 -0)
(-2.2312e-07 -7.59641e+07 -0)
(-1.06133e-07 -7.59641e+07 -0)
(2.05029e-08 -7.59641e+07 -0)
(1.78496e-07 -7.59641e+07 -0)
(4.1247e-07 -7.59641e+07 -0)
(7.23632e-07 -7.59641e+07 -0)
(1.13972e-06 -7.59641e+07 -0)
(1.66556e-06 -7.59641e+07 -0)
(2.42417e-06 -7.59641e+07 -0)
(3.42881e-06 -7.59641e+07 -0)
(5.02321e-06 -7.59641e+07 -0)
(7.18807e-06 -7.59641e+07 -0)
(1.09401e-05 -7.59641e+07 -0)
(1.5985e-05 -7.59641e+07 -0)
(2.73424e-05 -7.59641e+07 -0)
(2.4671e-05 -7.59641e+07 -0)
(-2.42368e-05 -7.59641e+07 -0)
(-3.07495e-05 -7.59641e+07 -0)
(3.03367e-05 -4.08083e+07 -0)
(2.37091e-05 -4.08083e+07 -0)
(-2.44248e-05 -4.08083e+07 -0)
(-2.68814e-05 -4.08083e+07 -0)
(-1.57955e-05 -4.08083e+07 -0)
(-1.08e-05 -4.08083e+07 -0)
(-7.08686e-06 -4.08083e+07 -0)
(-4.96315e-06 -4.08083e+07 -0)
(-3.41336e-06 -4.08083e+07 -0)
(-2.40368e-06 -4.08083e+07 -0)
(-1.63797e-06 -4.08083e+07 -0)
(-1.11329e-06 -4.08083e+07 -0)
(-7.1574e-07 -4.08083e+07 -0)
(-4.20332e-07 -4.08083e+07 -0)
(-1.84446e-07 -4.08083e+07 -0)
(-6.61362e-09 -4.08083e+07 -0)
(1.26394e-07 -4.08083e+07 -0)
(2.00613e-07 -4.08083e+07 -0)
(2.66749e-07 -4.08083e+07 -0)
(3.24067e-07 -4.08083e+07 -0)
(3.48317e-07 -4.08083e+07 -0)
(3.51256e-07 -4.08083e+07 -0)
(3.52726e-07 -4.08083e+07 -0)
(3.3215e-07 -4.08083e+07 -0)
(2.98348e-07 -4.08083e+07 -0)
(2.43969e-07 -4.08083e+07 -0)
(1.86651e-07 -4.08083e+07 -0)
(1.4403e-07 -4.08083e+07 -0)
(8.30376e-08 -4.08083e+07 -0)
(3.01287e-08 -4.08083e+07 -0)
(-3.52726e-08 -4.08083e+07 -0)
(-1.00674e-07 -4.08083e+07 -0)
(-1.4403e-07 -4.08083e+07 -0)
(-1.84446e-07 -4.08083e+07 -0)
(-2.43234e-07 -4.08083e+07 -0)
(-3.01287e-07 -4.08083e+07 -0)
(-3.23332e-07 -4.08083e+07 -0)
(-3.35825e-07 -4.08083e+07 -0)
(-3.49787e-07 -4.08083e+07 -0)
(-3.50522e-07 -4.08083e+07 -0)
(-3.26272e-07 -4.08083e+07 -0)
(-2.8659e-07 -4.08083e+07 -0)
(-2.17514e-07 -4.08083e+07 -0)
(-1.08757e-07 -4.08083e+07 -0)
(2.42499e-08 -4.08083e+07 -0)
(1.75628e-07 -4.08083e+07 -0)
(4.05635e-07 -4.08083e+07 -0)
(7.1574e-07 -4.08083e+07 -0)
(1.12652e-06 -4.08083e+07 -0)
(1.64606e-06 -4.08083e+07 -0)
(2.39854e-06 -4.08083e+07 -0)
(3.39425e-06 -4.08083e+07 -0)
(4.96536e-06 -4.08083e+07 -0)
(7.10008e-06 -4.08083e+07 -0)
(1.0803e-05 -4.08083e+07 -0)
(1.57801e-05 -4.08083e+07 -0)
(2.68586e-05 -4.08083e+07 -0)
(2.44197e-05 -4.08083e+07 -0)
(-2.37142e-05 -4.08083e+07 -0)
(-3.03403e-05 -4.08083e+07 -0)
(2.83153e-05 -2.41765e+07 -0)
(2.19899e-05 -2.41765e+07 -0)
(-2.30317e-05 -2.41765e+07 -0)
(-2.53177e-05 -2.41765e+07 -0)
(-1.4973e-05 -2.41765e+07 -0)
(-1.02458e-05 -2.41765e+07 -0)
(-6.72874e-06 -2.41765e+07 -0)
(-4.71383e-06 -2.41765e+07 -0)
(-3.24022e-06 -2.41765e+07 -0)
(-2.28319e-06 -2.41765e+07 -0)
(-1.55732e-06 -2.41765e+07 -0)
(-1.05693e-06 -2.41765e+07 -0)
(-6.79248e-07 -2.41765e+07 -0)
(-4.00509e-07 -2.41765e+07 -0)
(-1.74093e-07 -2.41765e+07 -0)
(-4.75664e-09 -2.41765e+07 -0)
(1.18916e-07 -2.41765e+07 -0)
(1.94071e-07 -2.41765e+07 -0)
(2.53053e-07 -2.41765e+07 -0)
(3.06328e-07 -2.41765e+07 -0)
(3.32013e-07 -2.41765e+07 -0)
(3.35819e-07 -2.41765e+07 -0)
(3.33916e-07 -2.41765e+07 -0)
(3.12987e-07 -2.41765e+07 -0)
(2.83496e-07 -2.41765e+07 -0)
(2.32124e-07 -2.41765e+07 -0)
(1.79801e-07 -2.41765e+07 -0)
(1.37943e-07 -2.41765e+07 -0)
(7.89602e-08 -2.41765e+07 -0)
(2.75885e-08 -2.41765e+07 -0)
(-3.42478e-08 -2.41765e+07 -0)
(-9.70355e-08 -2.41765e+07 -0)
(-1.35089e-07 -2.41765e+07 -0)
(-1.75996e-07 -2.41765e+07 -0)
(-2.32124e-07 -2.41765e+07 -0)
(-2.84447e-07 -2.41765e+07 -0)
(-3.0823e-07 -2.41765e+07 -0)
(-3.21549e-07 -2.41765e+07 -0)
(-3.32965e-07 -2.41765e+07 -0)
(-3.30111e-07 -2.41765e+07 -0)
(-3.11084e-07 -2.41765e+07 -0)
(-2.73031e-07 -2.41765e+07 -0)
(-2.06438e-07 -2.41765e+07 -0)
(-1.03695e-07 -2.41765e+07 -0)
(2.09292e-08 -2.41765e+07 -0)
(1.66482e-07 -2.41765e+07 -0)
(3.86239e-07 -2.41765e+07 -0)
(6.81151e-07 -2.41765e+07 -0)
(1.0731e-06 -2.41765e+07 -0)
(1.56303e-06 -2.41765e+07 -0)
(2.27748e-06 -2.41765e+07 -0)
(3.22215e-06 -2.41765e+07 -0)
(4.71478e-06 -2.41765e+07 -0)
(6.74206e-06 -2.41765e+07 -0)
(1.02487e-05 -2.41765e+07 -0)
(1.49577e-05 -2.41765e+07 -0)
(2.52939e-05 -2.41765e+07 -0)
(2.30269e-05 -2.41765e+07 -0)
(-2.19928e-05 -2.41765e+07 -0)
(-2.83201e-05 -2.41765e+07 -0)
(2.57501e-05 -1.54119e+07 -0)
(1.98733e-05 -1.54119e+07 -0)
(-2.12488e-05 -1.54119e+07 -0)
(-2.3391e-05 -1.54119e+07 -0)
(-1.39417e-05 -1.54119e+07 -0)
(-9.54488e-06 -1.54119e+07 -0)
(-6.27634e-06 -1.54119e+07 -0)
(-4.39615e-06 -1.54119e+07 -0)
(-3.02263e-06 -1.54119e+07 -0)
(-2.13321e-06 -1.54119e+07 -0)
(-1.4529e-06 -1.54119e+07 -0)
(-9.84953e-07 -1.54119e+07 -0)
(-6.35766e-07 -1.54119e+07 -0)
(-3.73714e-07 -1.54119e+07 -0)
(-1.62653e-07 -1.54119e+07 -0)
(-5.80903e-09 -1.54119e+07 -0)
(1.12953e-07 -1.54119e+07 -0)
(1.83307e-07 -1.54119e+07 -0)
(2.35588e-07 -1.54119e+07 -0)
(2.84643e-07 -1.54119e+07 -0)
(3.1046e-07 -1.54119e+07 -0)
(3.15624e-07 -1.54119e+07 -0)
(3.13042e-07 -1.54119e+07 -0)
(2.91097e-07 -1.54119e+07 -0)
(2.62052e-07 -1.54119e+07 -0)
(2.18161e-07 -1.54119e+07 -0)
(1.68462e-07 -1.54119e+07 -0)
(1.27153e-07 -1.54119e+07 -0)
(7.42265e-08 -1.54119e+07 -0)
(2.64634e-08 -1.54119e+07 -0)
(-3.29178e-08 -1.54119e+07 -0)
(-8.97173e-08 -1.54119e+07 -0)
(-1.24571e-07 -1.54119e+07 -0)
(-1.63298e-07 -1.54119e+07 -0)
(-2.18807e-07 -1.54119e+07 -0)
(-2.65925e-07 -1.54119e+07 -0)
(-2.8787e-07 -1.54119e+07 -0)
(-3.00133e-07 -1.54119e+07 -0)
(-3.1046e-07 -1.54119e+07 -0)
(-3.08524e-07 -1.54119e+07 -0)
(-2.89806e-07 -1.54119e+07 -0)
(-2.54306e-07 -1.54119e+07 -0)
(-1.94925e-07 -1.54119e+07 -0)
(-9.74626e-08 -1.54119e+07 -0)
(2.19452e-08 -1.54119e+07 -0)
(1.52326e-07 -1.54119e+07 -0)
(3.59514e-07 -1.54119e+07 -0)
(6.39639e-07 -1.54119e+07 -0)
(1.00044e-06 -1.54119e+07 -0)
(1.45807e-06 -1.54119e+07 -0)
(2.12546e-06 -1.54119e+07 -0)
(3.0065e-06 -1.54119e+07 -0)
(4.39808e-06 -1.54119e+07 -0)
(6.2886e-06 -1.54119e+07 -0)
(9.54876e-06 -1.54119e+07 -0)
(1.39268e-05 -1.54119e+07 -0)
(2.33704e-05 -1.54119e+07 -0)
(2.12443e-05 -1.54119e+07 -0)
(-1.98772e-05 -1.54119e+07 -0)
(-2.57534e-05 -1.54119e+07 -0)
(2.32018e-05 -1.04311e+07 -0)
(1.77861e-05 -1.04311e+07 -0)
(-1.94744e-05 -1.04311e+07 -0)
(-2.1483e-05 -1.04311e+07 -0)
(-1.29093e-05 -1.04311e+07 -0)
(-8.84606e-06 -1.04311e+07 -0)
(-5.82315e-06 -1.04311e+07 -0)
(-4.07876e-06 -1.04311e+07 -0)
(-2.80663e-06 -1.04311e+07 -0)
(-1.97938e-06 -1.04311e+07 -0)
(-1.35061e-06 -1.04311e+07 -0)
(-9.15771e-07 -1.04311e+07 -0)
(-5.89981e-07 -1.04311e+07 -0)
(-3.45867e-07 -1.04311e+07 -0)
(-1.51944e-07 -1.04311e+07 -0)
(-5.47546e-09 -1.04311e+07 -0)
(1.05859e-07 -1.04311e+07 -0)
(1.69739e-07 -1.04311e+07 -0)
(2.20844e-07 -1.04311e+07 -0)
(2.62822e-07 -1.04311e+07 -0)
(2.87918e-07 -1.04311e+07 -0)
(2.94306e-07 -1.04311e+07 -0)
(2.92025e-07 -1.04311e+07 -0)
(2.71035e-07 -1.04311e+07 -0)
(2.42289e-07 -1.04311e+07 -0)
(2.02136e-07 -1.04311e+07 -0)
(1.57419e-07 -1.04311e+07 -0)
(1.18635e-07 -1.04311e+07 -0)
(6.88995e-08 -1.04311e+07 -0)
(2.46396e-08 -1.04311e+07 -0)
(-3.0115e-08 -1.04311e+07 -0)
(-8.30445e-08 -1.04311e+07 -0)
(-1.15897e-07 -1.04311e+07 -0)
(-1.524e-07 -1.04311e+07 -0)
(-2.04417e-07 -1.04311e+07 -0)
(-2.46396e-07 -1.04311e+07 -0)
(-2.66472e-07 -1.04311e+07 -0)
(-2.79248e-07 -1.04311e+07 -0)
(-2.88831e-07 -1.04311e+07 -0)
(-2.87918e-07 -1.04311e+07 -0)
(-2.70123e-07 -1.04311e+07 -0)
(-2.34532e-07 -1.04311e+07 -0)
(-1.80234e-07 -1.04311e+07 -0)
(-9.1714e-08 -1.04311e+07 -0)
(1.87078e-08 -1.04311e+07 -0)
(1.42818e-07 -1.04311e+07 -0)
(3.32634e-07 -1.04311e+07 -0)
(5.94087e-07 -1.04311e+07 -0)
(9.29916e-07 -1.04311e+07 -0)
(1.35335e-06 -1.04311e+07 -0)
(1.97208e-06 -1.04311e+07 -0)
(2.79294e-06 -1.04311e+07 -0)
(4.08059e-06 -1.04311e+07 -0)
(5.8341e-06 -1.04311e+07 -0)
(8.85154e-06 -1.04311e+07 -0)
(1.28952e-05 -1.04311e+07 -0)
(2.14643e-05 -1.04311e+07 -0)
(1.94694e-05 -1.04311e+07 -0)
(-1.77907e-05 -1.04311e+07 -0)
(-2.32032e-05 -1.04311e+07 -0)
(2.09528e-05 -7.44305e+06 -0)
(1.59433e-05 -7.44305e+06 -0)
(-1.79141e-05 -7.44305e+06 -0)
(-1.98034e-05 -7.44305e+06 -0)
(-1.19991e-05 -7.44305e+06 -0)
(-8.23102e-06 -7.44305e+06 -0)
(-5.42483e-06 -7.44305e+06 -0)
(-3.8003e-06 -7.44305e+06 -0)
(-2.61562e-06 -7.44305e+06 -0)
(-1.84597e-06 -7.44305e+06 -0)
(-1.2595e-06 -7.44305e+06 -0)
(-8.53868e-07 -7.44305e+06 -0)
(-5.50233e-07 -7.44305e+06 -0)
(-3.22759e-07 -7.44305e+06 -0)
(-1.40913e-07 -7.44305e+06 -0)
(-6.03915e-09 -7.44305e+06 -0)
(9.93104e-08 -7.44305e+06 -0)
(1.59702e-07 -7.44305e+06 -0)
(2.07008e-07 -7.44305e+06 -0)
(2.45256e-07 -7.44305e+06 -0)
(2.68406e-07 -7.44305e+06 -0)
(2.74781e-07 -7.44305e+06 -0)
(2.71762e-07 -7.44305e+06 -0)
(2.53309e-07 -7.44305e+06 -0)
(2.26132e-07 -7.44305e+06 -0)
(1.88891e-07 -7.44305e+06 -0)
(1.48295e-07 -7.44305e+06 -0)
(1.08705e-07 -7.44305e+06 -0)
(6.50886e-08 -7.44305e+06 -0)
(2.21435e-08 -7.44305e+06 -0)
(-2.88537e-08 -7.44305e+06 -0)
(-7.64958e-08 -7.44305e+06 -0)
(-1.07363e-07 -7.44305e+06 -0)
(-1.42591e-07 -7.44305e+06 -0)
(-1.9124e-07 -7.44305e+06 -0)
(-2.29488e-07 -7.44305e+06 -0)
(-2.48947e-07 -7.44305e+06 -0)
(-2.61361e-07 -7.44305e+06 -0)
(-2.68742e-07 -7.44305e+06 -0)
(-2.68742e-07 -7.44305e+06 -0)
(-2.52973e-07 -7.44305e+06 -0)
(-2.19087e-07 -7.44305e+06 -0)
(-1.6809e-07 -7.44305e+06 -0)
(-8.55546e-08 -7.44305e+06 -0)
(1.77819e-08 -7.44305e+06 -0)
(1.32861e-07 -7.44305e+06 -0)
(3.09338e-07 -7.44305e+06 -0)
(5.54259e-07 -7.44305e+06 -0)
(8.67959e-07 -7.44305e+06 -0)
(1.26151e-06 -7.44305e+06 -0)
(1.83892e-06 -7.44305e+06 -0)
(2.60254e-06 -7.44305e+06 -0)
(3.80198e-06 -7.44305e+06 -0)
(5.43456e-06 -7.44305e+06 -0)
(8.23605e-06 -7.44305e+06 -0)
(1.19857e-05 -7.44305e+06 -0)
(1.97856e-05 -7.44305e+06 -0)
(1.79088e-05 -7.44305e+06 -0)
(-1.5945e-05 -7.44305e+06 -0)
(-2.09532e-05 -7.44305e+06 -0)
(1.91226e-05 -5.5789e+06 -0)
(1.44312e-05 -5.5789e+06 -0)
(-1.66709e-05 -5.5789e+06 -0)
(-1.84609e-05 -5.5789e+06 -0)
(-1.12789e-05 -5.5789e+06 -0)
(-7.74666e-06 -5.5789e+06 -0)
(-5.11123e-06 -5.5789e+06 -0)
(-3.5815e-06 -5.5789e+06 -0)
(-2.46604e-06 -5.5789e+06 -0)
(-1.74122e-06 -5.5789e+06 -0)
(-1.18887e-06 -5.5789e+06 -0)
(-8.05415e-07 -5.5789e+06 -0)
(-5.18977e-07 -5.5789e+06 -0)
(-3.04405e-07 -5.5789e+06 -0)
(-1.33466e-07 -5.5789e+06 -0)
(-4.61997e-09 -5.5789e+06 -0)
(9.29127e-08 -5.5789e+06 -0)
(1.51432e-07 -5.5789e+06 -0)
(1.96092e-07 -5.5789e+06 -0)
(2.32539e-07 -5.5789e+06 -0)
(2.53072e-07 -5.5789e+06 -0)
(2.59232e-07 -5.5789e+06 -0)
(2.56152e-07 -5.5789e+06 -0)
(2.40238e-07 -5.5789e+06 -0)
(2.12005e-07 -5.5789e+06 -0)
(1.79152e-07 -5.5789e+06 -0)
(1.40139e-07 -5.5789e+06 -0)
(1.02153e-07 -5.5789e+06 -0)
(6.21129e-08 -5.5789e+06 -0)
(2.10465e-08 -5.5789e+06 -0)
(-2.72065e-08 -5.5789e+06 -0)
(-7.23795e-08 -5.5789e+06 -0)
(-1.01639e-07 -5.5789e+06 -0)
(-1.34492e-07 -5.5789e+06 -0)
(-1.81206e-07 -5.5789e+06 -0)
(-2.16625e-07 -5.5789e+06 -0)
(-2.35105e-07 -5.5789e+06 -0)
(-2.46398e-07 -5.5789e+06 -0)
(-2.53072e-07 -5.5789e+06 -0)
(-2.54612e-07 -5.5789e+06 -0)
(-2.39212e-07 -5.5789e+06 -0)
(-2.05332e-07 -5.5789e+06 -0)
(-1.58619e-07 -5.5789e+06 -0)
(-8.11061e-08 -5.5789e+06 -0)
(1.53999e-08 -5.5789e+06 -0)
(1.25253e-07 -5.5789e+06 -0)
(2.91058e-07 -5.5789e+06 -0)
(5.23597e-07 -5.5789e+06 -0)
(8.18248e-07 -5.5789e+06 -0)
(1.19093e-06 -5.5789e+06 -0)
(1.73454e-06 -5.5789e+06 -0)
(2.4532e-06 -5.5789e+06 -0)
(3.58356e-06 -5.5789e+06 -0)
(5.12098e-06 -5.5789e+06 -0)
(7.75026e-06 -5.5789e+06 -0)
(1.12661e-05 -5.5789e+06 -0)
(1.84445e-05 -5.5789e+06 -0)
(1.66663e-05 -5.5789e+06 -0)
(-1.44343e-05 -5.5789e+06 -0)
(-1.91231e-05 -5.5789e+06 -0)
(1.7744e-05 -4.38225e+06 -0)
(1.3269e-05 -4.38225e+06 -0)
(-1.57855e-05 -4.38225e+06 -0)
(-1.75024e-05 -4.38225e+06 -0)
(-1.07794e-05 -4.38225e+06 -0)
(-7.41466e-06 -4.38225e+06 -0)
(-4.89732e-06 -4.38225e+06 -0)
(-3.43385e-06 -4.38225e+06 -0)
(-2.36486e-06 -4.38225e+06 -0)
(-1.6695e-06 -4.38225e+06 -0)
(-1.14094e-06 -4.38225e+06 -0)
(-7.73434e-07 -4.38225e+06 -0)
(-4.98726e-07 -4.38225e+06 -0)
(-2.91877e-07 -4.38225e+06 -0)
(-1.26725e-07 -4.38225e+06 -0)
(-4.9055e-09 -4.38225e+06 -0)
(8.99342e-08 -4.38225e+06 -0)
(1.46347e-07 -4.38225e+06 -0)
(1.88044e-07 -4.38225e+06 -0)
(2.22383e-07 -4.38225e+06 -0)
(2.44457e-07 -4.38225e+06 -0)
(2.48954e-07 -4.38225e+06 -0)
(2.45275e-07 -4.38225e+06 -0)
(2.3015e-07 -4.38225e+06 -0)
(2.04396e-07 -4.38225e+06 -0)
(1.73328e-07 -4.38225e+06 -0)
(1.3531e-07 -4.38225e+06 -0)
(9.811e-08 -4.38225e+06 -0)
(5.92748e-08 -4.38225e+06 -0)
(1.83956e-08 -4.38225e+06 -0)
(-2.69802e-08 -4.38225e+06 -0)
(-6.78594e-08 -4.38225e+06 -0)
(-9.72924e-08 -4.38225e+06 -0)
(-1.30813e-07 -4.38225e+06 -0)
(-1.74145e-07 -4.38225e+06 -0)
(-2.08075e-07 -4.38225e+06 -0)
(-2.25244e-07 -4.38225e+06 -0)
(-2.36282e-07 -4.38225e+06 -0)
(-2.42005e-07 -4.38225e+06 -0)
(-2.45684e-07 -4.38225e+06 -0)
(-2.30558e-07 -4.38225e+06 -0)
(-1.96629e-07 -4.38225e+06 -0)
(-1.52888e-07 -4.38225e+06 -0)
(-7.8488e-08 -4.38225e+06 -0)
(1.47165e-08 -4.38225e+06 -0)
(1.20594e-07 -4.38225e+06 -0)
(2.78796e-07 -4.38225e+06 -0)
(5.02405e-07 -4.38225e+06 -0)
(7.85697e-07 -4.38225e+06 -0)
(1.14257e-06 -4.38225e+06 -0)
(1.66337e-06 -4.38225e+06 -0)
(2.35423e-06 -4.38225e+06 -0)
(3.43508e-06 -4.38225e+06 -0)
(4.90673e-06 -4.38225e+06 -0)
(7.41671e-06 -4.38225e+06 -0)
(1.07672e-05 -4.38225e+06 -0)
(1.74885e-05 -4.38225e+06 -0)
(1.57798e-05 -4.38225e+06 -0)
(-1.32718e-05 -4.38225e+06 -0)
(-1.7744e-05 -4.38225e+06 -0)
(1.67905e-05 -3.59764e+06 -0)
(1.24302e-05 -3.59764e+06 -0)
(-1.52551e-05 -3.59764e+06 -0)
(-1.6927e-05 -3.59764e+06 -0)
(-1.05066e-05 -3.59764e+06 -0)
(-7.23836e-06 -3.59764e+06 -0)
(-4.78775e-06 -3.59764e+06 -0)
(-3.35871e-06 -3.59764e+06 -0)
(-2.31411e-06 -3.59764e+06 -0)
(-1.63431e-06 -3.59764e+06 -0)
(-1.11641e-06 -3.59764e+06 -0)
(-7.5703e-07 -3.59764e+06 -0)
(-4.89106e-07 -3.59764e+06 -0)
(-2.85538e-07 -3.59764e+06 -0)
(-1.23631e-07 -3.59764e+06 -0)
(-5.41946e-09 -3.59764e+06 -0)
(8.84049e-08 -3.59764e+06 -0)
(1.43954e-07 -3.59764e+06 -0)
(1.84939e-07 -3.59764e+06 -0)
(2.17794e-07 -3.59764e+06 -0)
(2.4015e-07 -3.59764e+06 -0)
(2.43876e-07 -3.59764e+06 -0)
(2.40488e-07 -3.59764e+06 -0)
(2.26262e-07 -3.59764e+06 -0)
(2.00181e-07 -3.59764e+06 -0)
(1.70035e-07 -3.59764e+06 -0)
(1.33793e-07 -3.59764e+06 -0)
(9.58567e-08 -3.59764e+06 -0)
(5.79204e-08 -3.59764e+06 -0)
(1.72745e-08 -3.59764e+06 -0)
(-2.67586e-08 -3.59764e+06 -0)
(-6.53722e-08 -3.59764e+06 -0)
(-9.61954e-08 -3.59764e+06 -0)
(-1.29051e-07 -3.59764e+06 -0)
(-1.70374e-07 -3.59764e+06 -0)
(-2.02552e-07 -3.59764e+06 -0)
(-2.2152e-07 -3.59764e+06 -0)
(-2.32021e-07 -3.59764e+06 -0)
(-2.3744e-07 -3.59764e+06 -0)
(-2.41166e-07 -3.59764e+06 -0)
(-2.26262e-07 -3.59764e+06 -0)
(-1.93068e-07 -3.59764e+06 -0)
(-1.49374e-07 -3.59764e+06 -0)
(-7.7566e-08 -3.59764e+06 -0)
(1.45648e-08 -3.59764e+06 -0)
(1.17534e-07 -3.59764e+06 -0)
(2.73344e-07 -3.59764e+06 -0)
(4.91138e-07 -3.59764e+06 -0)
(7.69224e-07 -3.59764e+06 -0)
(1.11776e-06 -3.59764e+06 -0)
(1.62922e-06 -3.59764e+06 -0)
(2.30496e-06 -3.59764e+06 -0)
(3.35972e-06 -3.59764e+06 -0)
(4.79588e-06 -3.59764e+06 -0)
(7.23938e-06 -3.59764e+06 -0)
(1.04968e-05 -3.59764e+06 -0)
(1.69134e-05 -3.59764e+06 -0)
(1.5249e-05 -3.59764e+06 -0)
(-1.24333e-05 -3.59764e+06 -0)
(-1.67918e-05 -3.59764e+06 -0)
(1.62082e-05 -3.07453e+06 -0)
(1.1866e-05 -3.07453e+06 -0)
(-1.50519e-05 -3.07453e+06 -0)
(-1.67053e-05 -3.07453e+06 -0)
(-1.04489e-05 -3.07453e+06 -0)
(-7.20967e-06 -3.07453e+06 -0)
(-4.77693e-06 -3.07453e+06 -0)
(-3.35282e-06 -3.07453e+06 -0)
(-2.31155e-06 -3.07453e+06 -0)
(-1.63213e-06 -3.07453e+06 -0)
(-1.11615e-06 -3.07453e+06 -0)
(-7.5692e-07 -3.07453e+06 -0)
(-4.88589e-07 -3.07453e+06 -0)
(-2.85229e-07 -3.07453e+06 -0)
(-1.22948e-07 -3.07453e+06 -0)
(-4.66155e-09 -3.07453e+06 -0)
(8.82782e-08 -3.07453e+06 -0)
(1.44217e-07 -3.07453e+06 -0)
(1.85297e-07 -3.07453e+06 -0)
(2.18219e-07 -3.07453e+06 -0)
(2.40361e-07 -3.07453e+06 -0)
(2.45023e-07 -3.07453e+06 -0)
(2.40361e-07 -3.07453e+06 -0)
(2.25503e-07 -3.07453e+06 -0)
(2.00447e-07 -3.07453e+06 -0)
(1.70729e-07 -3.07453e+06 -0)
(1.34602e-07 -3.07453e+06 -0)
(9.61445e-08 -3.07453e+06 -0)
(5.76867e-08 -3.07453e+06 -0)
(1.71895e-08 -3.07453e+06 -0)
(-2.73866e-08 -3.07453e+06 -0)
(-6.61358e-08 -3.07453e+06 -0)
(-9.58532e-08 -3.07453e+06 -0)
(-1.29358e-07 -3.07453e+06 -0)
(-1.70438e-07 -3.07453e+06 -0)
(-2.02778e-07 -3.07453e+06 -0)
(-2.20841e-07 -3.07453e+06 -0)
(-2.33369e-07 -3.07453e+06 -0)
(-2.37157e-07 -3.07453e+06 -0)
(-2.41235e-07 -3.07453e+06 -0)
(-2.26377e-07 -3.07453e+06 -0)
(-1.93746e-07 -3.07453e+06 -0)
(-1.49752e-07 -3.07453e+06 -0)
(-7.77897e-08 -3.07453e+06 -0)
(1.36933e-08 -3.07453e+06 -0)
(1.18287e-07 -3.07453e+06 -0)
(2.7241e-07 -3.07453e+06 -0)
(4.90046e-07 -3.07453e+06 -0)
(7.69448e-07 -3.07453e+06 -0)
(1.11702e-06 -3.07453e+06 -0)
(1.62805e-06 -3.07453e+06 -0)
(2.30281e-06 -3.07453e+06 -0)
(3.35282e-06 -3.07453e+06 -0)
(4.78363e-06 -3.07453e+06 -0)
(7.21055e-06 -3.07453e+06 -0)
(1.04387e-05 -3.07453e+06 -0)
(1.66916e-05 -3.07453e+06 -0)
(1.50469e-05 -3.07453e+06 -0)
(-1.18683e-05 -3.07453e+06 -0)
(-1.621e-05 -3.07453e+06 -0)
(1.59221e-05 -2.72041e+06 -0)
(1.15102e-05 -2.72041e+06 -0)
(-1.51308e-05 -2.72041e+06 -0)
(-1.67849e-05 -2.72041e+06 -0)
(-1.05782e-05 -2.72041e+06 -0)
(-7.31252e-06 -2.72041e+06 -0)
(-4.85265e-06 -2.72041e+06 -0)
(-3.40947e-06 -2.72041e+06 -0)
(-2.3508e-06 -2.72041e+06 -0)
(-1.6603e-06 -2.72041e+06 -0)
(-1.1364e-06 -2.72041e+06 -0)
(-7.71076e-07 -2.72041e+06 -0)
(-4.97727e-07 -2.72041e+06 -0)
(-2.89412e-07 -2.72041e+06 -0)
(-1.25403e-07 -2.72041e+06 -0)
(-4.40467e-09 -2.72041e+06 -0)
(9.09434e-08 -2.72041e+06 -0)
(1.47168e-07 -2.72041e+06 -0)
(1.88882e-07 -2.72041e+06 -0)
(2.22824e-07 -2.72041e+06 -0)
(2.44848e-07 -2.72041e+06 -0)
(2.5003e-07 -2.72041e+06 -0)
(2.45366e-07 -2.72041e+06 -0)
(2.29561e-07 -2.72041e+06 -0)
(2.04428e-07 -2.72041e+06 -0)
(1.74891e-07 -2.72041e+06 -0)
(1.37581e-07 -2.72041e+06 -0)
(9.7939e-08 -2.72041e+06 -0)
(5.88152e-08 -2.72041e+06 -0)
(1.65823e-08 -2.72041e+06 -0)
(-2.79826e-08 -2.72041e+06 -0)
(-6.65882e-08 -2.72041e+06 -0)
(-9.84572e-08 -2.72041e+06 -0)
(-1.32399e-07 -2.72041e+06 -0)
(-1.74114e-07 -2.72041e+06 -0)
(-2.06242e-07 -2.72041e+06 -0)
(-2.25415e-07 -2.72041e+06 -0)
(-2.37852e-07 -2.72041e+06 -0)
(-2.41479e-07 -2.72041e+06 -0)
(-2.46143e-07 -2.72041e+06 -0)
(-2.31374e-07 -2.72041e+06 -0)
(-1.96914e-07 -2.72041e+06 -0)
(-1.52609e-07 -2.72041e+06 -0)
(-8.03204e-08 -2.72041e+06 -0)
(1.34731e-08 -2.72041e+06 -0)
(1.20221e-07 -2.72041e+06 -0)
(2.76717e-07 -2.72041e+06 -0)
(4.99023e-07 -2.72041e+06 -0)
(7.83253e-07 -2.72041e+06 -0)
(1.13718e-06 -2.72041e+06 -0)
(1.65719e-06 -2.72041e+06 -0)
(2.34302e-06 -2.72041e+06 -0)
(3.40792e-06 -2.72041e+06 -0)
(4.85964e-06 -2.72041e+06 -0)
(7.31304e-06 -2.72041e+06 -0)
(1.05681e-05 -2.72041e+06 -0)
(1.67714e-05 -2.72041e+06 -0)
(1.51248e-05 -2.72041e+06 -0)
(-1.1512e-05 -2.72041e+06 -0)
(-1.59221e-05 -2.72041e+06 -0)
(1.58471e-05 -2.47647e+06 -0)
(1.12947e-05 -2.47647e+06 -0)
(-1.54352e-05 -2.47647e+06 -0)
(-1.71055e-05 -2.47647e+06 -0)
(-1.08601e-05 -2.47647e+06 -0)
(-7.52199e-06 -2.47647e+06 -0)
(-5.00171e-06 -2.47647e+06 -0)
(-3.51679e-06 -2.47647e+06 -0)
(-2.42644e-06 -2.47647e+06 -0)
(-1.71384e-06 -2.47647e+06 -0)
(-1.17376e-06 -2.47647e+06 -0)
(-7.97202e-07 -2.47647e+06 -0)
(-5.15432e-07 -2.47647e+06 -0)
(-2.99069e-07 -2.47647e+06 -0)
(-1.29154e-07 -2.47647e+06 -0)
(-3.79169e-09 -2.47647e+06 -0)
(9.43182e-08 -2.47647e+06 -0)
(1.53563e-07 -2.47647e+06 -0)
(1.95983e-07 -2.47647e+06 -0)
(2.30345e-07 -2.47647e+06 -0)
(2.54043e-07 -2.47647e+06 -0)
(2.58783e-07 -2.47647e+06 -0)
(2.53569e-07 -2.47647e+06 -0)
(2.38165e-07 -2.47647e+06 -0)
(2.11623e-07 -2.47647e+06 -0)
(1.81053e-07 -2.47647e+06 -0)
(1.42662e-07 -2.47647e+06 -0)
(1.00954e-07 -2.47647e+06 -0)
(6.13779e-08 -2.47647e+06 -0)
(1.70626e-08 -2.47647e+06 -0)
(-2.91486e-08 -2.47647e+06 -0)
(-6.87243e-08 -2.47647e+06 -0)
(-1.01902e-07 -2.47647e+06 -0)
(-1.37686e-07 -2.47647e+06 -0)
(-1.80579e-07 -2.47647e+06 -0)
(-2.13045e-07 -2.47647e+06 -0)
(-2.32952e-07 -2.47647e+06 -0)
(-2.4646e-07 -2.47647e+06 -0)
(-2.49777e-07 -2.47647e+06 -0)
(-2.54517e-07 -2.47647e+06 -0)
(-2.40061e-07 -2.47647e+06 -0)
(-2.04514e-07 -2.47647e+06 -0)
(-1.57592e-07 -2.47647e+06 -0)
(-8.36541e-08 -2.47647e+06 -0)
(1.35079e-08 -2.47647e+06 -0)
(1.24178e-07 -2.47647e+06 -0)
(2.86272e-07 -2.47647e+06 -0)
(5.15906e-07 -2.47647e+06 -0)
(8.08577e-07 -2.47647e+06 -0)
(1.174e-06 -2.47647e+06 -0)
(1.71052e-06 -2.47647e+06 -0)
(2.4191e-06 -2.47647e+06 -0)
(3.51537e-06 -2.47647e+06 -0)
(5.00811e-06 -2.47647e+06 -0)
(7.52318e-06 -2.47647e+06 -0)
(1.08509e-05 -2.47647e+06 -0)
(1.70908e-05 -2.47647e+06 -0)
(1.54281e-05 -2.47647e+06 -0)
(-1.12952e-05 -2.47647e+06 -0)
(-1.58476e-05 -2.47647e+06 -0)
(1.58981e-05 -2.30428e+06 -0)
(1.11454e-05 -2.30428e+06 -0)
(-1.59016e-05 -2.30428e+06 -0)
(-1.75936e-05 -2.30428e+06 -0)
(-1.12558e-05 -2.30428e+06 -0)
(-7.81284e-06 -2.30428e+06 -0)
(-5.2056e-06 -2.30428e+06 -0)
(-3.66458e-06 -2.30428e+06 -0)
(-2.52943e-06 -2.30428e+06 -0)
(-1.78751e-06 -2.30428e+06 -0)
(-1.22515e-06 -2.30428e+06 -0)
(-8.32355e-07 -2.30428e+06 -0)
(-5.37983e-07 -2.30428e+06 -0)
(-3.10997e-07 -2.30428e+06 -0)
(-1.3433e-07 -2.30428e+06 -0)
(-4.21165e-09 -2.30428e+06 -0)
(9.90847e-08 -2.30428e+06 -0)
(1.60708e-07 -2.30428e+06 -0)
(2.05928e-07 -2.30428e+06 -0)
(2.40951e-07 -2.30428e+06 -0)
(2.65334e-07 -2.30428e+06 -0)
(2.71762e-07 -2.30428e+06 -0)
(2.64891e-07 -2.30428e+06 -0)
(2.48044e-07 -2.30428e+06 -0)
(2.22331e-07 -2.30428e+06 -0)
(1.89968e-07 -2.30428e+06 -0)
(1.48959e-07 -2.30428e+06 -0)
(1.05956e-07 -2.30428e+06 -0)
(6.38398e-08 -2.30428e+06 -0)
(1.83983e-08 -2.30428e+06 -0)
(-3.10332e-08 -2.30428e+06 -0)
(-7.22631e-08 -2.30428e+06 -0)
(-1.06178e-07 -2.30428e+06 -0)
(-1.44526e-07 -2.30428e+06 -0)
(-1.89081e-07 -2.30428e+06 -0)
(-2.22553e-07 -2.30428e+06 -0)
(-2.43611e-07 -2.30428e+06 -0)
(-2.58019e-07 -2.30428e+06 -0)
(-2.61566e-07 -2.30428e+06 -0)
(-2.65999e-07 -2.30428e+06 -0)
(-2.51147e-07 -2.30428e+06 -0)
(-2.14351e-07 -2.30428e+06 -0)
(-1.64476e-07 -2.30428e+06 -0)
(-8.80014e-08 -2.30428e+06 -0)
(1.28566e-08 -2.30428e+06 -0)
(1.29453e-07 -2.30428e+06 -0)
(2.98584e-07 -2.30428e+06 -0)
(5.37983e-07 -2.30428e+06 -0)
(8.44547e-07 -2.30428e+06 -0)
(1.22515e-06 -2.30428e+06 -0)
(1.78441e-06 -2.30428e+06 -0)
(2.52234e-06 -2.30428e+06 -0)
(3.66192e-06 -2.30428e+06 -0)
(5.21181e-06 -2.30428e+06 -0)
(7.81417e-06 -2.30428e+06 -0)
(1.12462e-05 -2.30428e+06 -0)
(1.75788e-05 -2.30428e+06 -0)
(1.58946e-05 -2.30428e+06 -0)
(-1.1146e-05 -2.30428e+06 -0)
(-1.58983e-05 -2.30428e+06 -0)
(1.59883e-05 -2.17811e+06 -0)
(1.09936e-05 -2.17811e+06 -0)
(-1.64666e-05 -2.17811e+06 -0)
(-1.81766e-05 -2.17811e+06 -0)
(-1.17208e-05 -2.17811e+06 -0)
(-8.15442e-06 -2.17811e+06 -0)
(-5.44598e-06 -2.17811e+06 -0)
(-3.83847e-06 -2.17811e+06 -0)
(-2.65107e-06 -2.17811e+06 -0)
(-1.87494e-06 -2.17811e+06 -0)
(-1.28694e-06 -2.17811e+06 -0)
(-8.73567e-07 -2.17811e+06 -0)
(-5.64381e-07 -2.17811e+06 -0)
(-3.26059e-07 -2.17811e+06 -0)
(-1.41306e-07 -2.17811e+06 -0)
(-2.95267e-09 -2.17811e+06 -0)
(1.05452e-07 -2.17811e+06 -0)
(1.69567e-07 -2.17811e+06 -0)
(2.17232e-07 -2.17811e+06 -0)
(2.53507e-07 -2.17811e+06 -0)
(2.78816e-07 -2.17811e+06 -0)
(2.85565e-07 -2.17811e+06 -0)
(2.79238e-07 -2.17811e+06 -0)
(2.611e-07 -2.17811e+06 -0)
(2.33682e-07 -2.17811e+06 -0)
(2.00359e-07 -2.17811e+06 -0)
(1.56913e-07 -2.17811e+06 -0)
(1.1178e-07 -2.17811e+06 -0)
(6.83331e-08 -2.17811e+06 -0)
(1.85596e-08 -2.17811e+06 -0)
(-3.37448e-08 -2.17811e+06 -0)
(-7.59257e-08 -2.17811e+06 -0)
(-1.1178e-07 -2.17811e+06 -0)
(-1.52695e-07 -2.17811e+06 -0)
(-1.99094e-07 -2.17811e+06 -0)
(-2.34104e-07 -2.17811e+06 -0)
(-2.55617e-07 -2.17811e+06 -0)
(-2.70802e-07 -2.17811e+06 -0)
(-2.75863e-07 -2.17811e+06 -0)
(-2.80081e-07 -2.17811e+06 -0)
(-2.65318e-07 -2.17811e+06 -0)
(-2.24824e-07 -2.17811e+06 -0)
(-1.7252e-07 -2.17811e+06 -0)
(-9.36417e-08 -2.17811e+06 -0)
(1.22325e-08 -2.17811e+06 -0)
(1.35823e-07 -2.17811e+06 -0)
(3.12983e-07 -2.17811e+06 -0)
(5.65225e-07 -2.17811e+06 -0)
(8.85378e-07 -2.17811e+06 -0)
(1.2861e-06 -2.17811e+06 -0)
(1.87199e-06 -2.17811e+06 -0)
(2.64432e-06 -2.17811e+06 -0)
(3.83467e-06 -2.17811e+06 -0)
(5.45189e-06 -2.17811e+06 -0)
(8.15611e-06 -2.17811e+06 -0)
(1.17111e-05 -2.17811e+06 -0)
(1.81606e-05 -2.17811e+06 -0)
(1.64598e-05 -2.17811e+06 -0)
(-1.09932e-05 -2.17811e+06 -0)
(-1.59878e-05 -2.17811e+06 -0)
(1.60304e-05 -2.08029e+06 -0)
(1.07695e-05 -2.08029e+06 -0)