/*--------------------------------*- C++ -*----------------------------------*\
| =========                 |                                                 |
| \\      /  F ield         | foam-extend: Open Source CFD                    |
|  \\    /   O peration     | Version:     4.0                                |
|   \\  /    A nd           | Web:         http://www.foam-extend.org         |
|    \\/     M anipulation  |                                                 |
\*---------------------------------------------------------------------------*/
FoamFile
{
    version     2.0;
    format      ascii;
    class       surfaceScalarField;
    location    "16";
    object      phi;
}
// * * * * * * * * * * * * * * * * * * * * * * * * * * * * * * * * * * * * * //

dimensions      [0 3 -1 0 0 0 0];

internalField   nonuniform List<scalar> 
13744
(
-7.51205e-09
7.51263e-09
3.58518e-09
-1.10972e-08
8.86208e-11
3.49656e-09
3.0955e-11
5.76641e-11
1.37326e-11
1.72228e-11
7.68193e-12
6.04916e-12
4.66158e-12
3.02092e-12
3.06011e-12
1.60205e-12
2.1003e-12
9.60343e-13
1.5043e-12
5.96079e-13
1.10612e-12
3.98792e-13
8.3448e-13
2.70339e-13
6.40413e-13
1.94067e-13
4.98443e-13
1.41887e-13
3.92648e-13
1.05915e-13
3.12324e-13
8.17124e-14
2.49319e-13
6.12843e-14
2.00569e-13
4.9627e-14
1.61854e-13
3.93019e-14
1.30138e-13
3.15303e-14
1.05137e-13
2.27596e-14
8.47736e-14
1.89848e-14
6.72316e-14
1.4988e-14
5.33431e-14
1.37668e-14
4.16941e-14
1.17684e-14
3.10091e-14
1.15463e-14
2.23696e-14
8.88178e-15
1.47221e-14
1.04361e-14
6.84465e-15
8.54872e-15
-9.4254e-16
8.77076e-15
-4.54888e-15
4.10783e-15
-1.68733e-14
1.26565e-14
-2.23649e-14
6.32827e-15
-2.87557e-14
5.77316e-15
-4.39711e-14
1.4877e-14
-5.34e-14
1.11022e-14
-6.5013e-14
1.25455e-14
-8.69913e-14
2.09832e-14
-1.05136e-13
2.08722e-14
-1.27906e-13
2.44249e-14
-1.64094e-13
3.4972e-14
-2.00541e-13
3.61933e-14
-2.47044e-13
4.82947e-14
-3.14547e-13
6.71685e-14
-3.92653e-13
7.70495e-14
-4.96205e-13
1.03806e-13
-6.42639e-13
1.47438e-13
-8.34472e-13
1.89959e-13
-1.10386e-12
2.68674e-13
-1.50649e-12
4.02012e-13
-2.10025e-12
5.9297e-13
-3.05784e-12
9.55902e-13
-4.66384e-12
1.60749e-12
-7.68199e-12
3.01803e-12
-1.37303e-11
6.04783e-12
-3.09572e-11
1.72263e-11
-8.86209e-11
5.76624e-11
-3.58517e-09
3.49655e-09
7.51205e-09
-1.10972e-08
7.51205e-09
3.45683e-08
-2.70556e-08
4.59143e-09
1.88796e-08
2.68037e-10
7.81995e-09
9.52987e-11
2.30404e-10
4.26394e-11
6.98835e-11
2.38951e-11
2.47961e-11
1.45167e-11
1.2399e-11
9.53256e-12
6.58773e-12
6.54925e-12
3.9424e-12
4.68661e-12
2.45559e-12
3.45233e-12
1.63392e-12
2.60158e-12
1.12188e-12
1.99693e-12
7.97584e-13
1.55584e-12
5.84865e-13
1.22535e-12
4.36207e-13
9.72721e-13
3.31402e-13
7.7953e-13
2.57461e-13
6.25692e-13
2.01617e-13
5.03679e-13
1.58873e-13
4.07486e-13
1.27676e-13
3.28114e-13
1.06914e-13
2.63056e-13
8.51541e-14
2.11296e-13
7.32747e-14
1.66462e-13
6.02851e-14
1.2867e-13
5.04041e-14
9.82211e-14
3.83027e-14
6.98242e-14
3.76366e-14
4.43957e-14
3.33067e-14
2.33232e-14
2.88658e-14
5.71748e-16
2.85327e-14
-2.8218e-14
3.16414e-14
-3.82062e-14
1.92069e-14
-6.98144e-14
3.69704e-14
-1.04277e-13
4.04121e-14
-1.22695e-13
3.43059e-14
-1.66632e-13
5.29576e-14
-2.17433e-13
6.07292e-14
-2.56912e-13
6.22835e-14
-3.28103e-13
8.58202e-14
-4.13604e-13
1.06248e-13
-4.97584e-13
1.22014e-13
-6.25623e-13
1.63647e-13
-7.8551e-13
2.00062e-13
-9.6659e-13
2.4758e-13
-1.22536e-12
3.36065e-13
-1.56193e-12
4.39093e-13
-1.9908e-12
5.75096e-13
-2.60156e-12
8.06466e-13
-3.45835e-12
1.12743e-12
-4.68037e-12
1.62703e-12
-6.54912e-12
2.46247e-12
-9.53856e-12
3.95184e-12
-1.45107e-11
6.57652e-12
-2.38953e-11
1.24052e-11
-4.26456e-11
2.47969e-11
-9.52924e-11
6.98775e-11
-2.68037e-10
2.30409e-10
-4.59144e-09
7.81996e-09
-3.45683e-08
1.88796e-08
-2.70562e-08
2.20845e-08
-4.91401e-08
7.89765e-09
3.30664e-08
4.44937e-10
1.52727e-08
1.62986e-10
5.12356e-10
7.38703e-11
1.58995e-10
4.14627e-11
5.72033e-11
2.52204e-11
2.86389e-11
1.65651e-11
1.52412e-11
1.13895e-11
9.1164e-12
8.15036e-12
5.70069e-12
6.00552e-12
3.7742e-12
4.5253e-12
2.60283e-12
3.47579e-12
1.84908e-12
2.70595e-12
1.35106e-12
2.13245e-12
1.00839e-12
1.69334e-12
7.74103e-13
1.35575e-12
5.9483e-13
1.08872e-12
4.69264e-13
8.77396e-13
3.73118e-13
7.082e-13
2.9643e-13
5.7097e-13
2.42112e-13
4.58569e-13
1.98092e-13
3.66831e-13
1.56264e-13
2.89641e-13
1.35947e-13
2.24736e-13
1.14631e-13
1.70044e-13
9.65061e-14
1.21494e-13
8.48766e-14
7.80946e-14
7.44405e-14
3.92006e-14
7.00273e-14
-5.27074e-16
7.14706e-14
-4.10709e-14
7.21923e-14
-7.50173e-14
5.79536e-14
-1.21479e-13
8.36275e-14
-1.72898e-13
9.36196e-14
-2.22027e-13
8.07132e-14
-2.89924e-13
1.19432e-13
-3.69808e-13
1.44051e-13
-4.55582e-13
1.44773e-13
-5.70949e-13
2.06113e-13
-7.11139e-13
2.47302e-13
-8.7448e-13
2.82663e-13
-1.08862e-12
3.82361e-13
-1.35848e-12
4.80949e-13
-1.69037e-12
5.83172e-13
-2.13247e-12
7.80986e-13
-2.70885e-12
1.01824e-12
-3.47281e-12
1.33735e-12
-4.52528e-12
1.85349e-12
-6.00831e-12
2.61299e-12
-8.1472e-12
3.76316e-12
-1.13893e-11
5.70458e-12
-1.65679e-11
9.12093e-12
-2.52176e-11
1.52283e-11
-4.1463e-11
2.86468e-11
-7.38732e-11
5.72117e-11
-1.62983e-10
1.5898e-10
-4.44937e-10
5.12362e-10
-7.89765e-09
1.52727e-08
-2.20845e-08
3.30664e-08
-4.91407e-08
3.66152e-09
-5.28016e-08
6.33069e-09
3.03973e-08
6.14897e-10
2.09885e-08
2.33633e-10
8.93617e-10
1.07506e-10
2.85124e-10
6.04481e-11
1.04262e-10
3.68188e-11
5.22733e-11
2.41941e-11
2.78641e-11
1.66449e-11
1.66694e-11
1.19132e-11
1.043e-11
8.78012e-12
6.91305e-12
6.6165e-12
4.76581e-12
5.08357e-12
3.37916e-12
3.95658e-12
2.47966e-12
3.11884e-12
1.8475e-12
2.47701e-12
1.41324e-12
1.98237e-12
1.08861e-12
1.59226e-12
8.6154e-13
1.28377e-12
6.80851e-13
1.0352e-12
5.46029e-13
8.35026e-13
4.39433e-13
6.71118e-13
3.65451e-13
5.3594e-13
2.9874e-13
4.23549e-13
2.47163e-13
3.29157e-13
2.08493e-13
2.48116e-13
1.79613e-13
1.77649e-13
1.56784e-13
1.14642e-13
1.41331e-13
5.61931e-14
1.23596e-13
-1.01725e-15
1.27322e-13
-5.53732e-14
1.31881e-13
-1.15031e-13
1.17704e-13
-1.7763e-13
1.46133e-13
-2.47565e-13
1.57978e-13
-3.29928e-13
1.6219e-13
-4.23941e-13
2.16722e-13
-5.35543e-13
2.52943e-13
-6.71503e-13
2.82989e-13
-8.35001e-13
3.66936e-13
-1.03475e-12
4.47323e-13
-1.28425e-12
5.33941e-13
-1.59212e-12
6.85216e-13
-1.98165e-12
8.64246e-13
-2.47741e-12
1.07672e-12
-3.11886e-12
1.41995e-12
-3.95607e-12
1.85407e-12
-5.08397e-12
2.46508e-12
-6.61645e-12
3.38918e-12
-8.77946e-12
4.7703e-12
-1.19133e-11
6.8951e-12
-1.66446e-11
1.04373e-11
-2.41934e-11
1.66795e-11
-3.68195e-11
2.78524e-11
-6.04484e-11
5.22772e-11
-1.07505e-10
1.04264e-10
-2.33634e-10
2.85112e-10
-6.14897e-10
8.93623e-10
-6.33069e-09
2.09885e-08
-3.66151e-09
3.03972e-08
-5.28022e-08
1.53677e-09
-5.43384e-08
3.67121e-09
2.82628e-08
7.84179e-10
2.38755e-08
3.07132e-10
1.37067e-09
1.43616e-10
4.48646e-10
8.09165e-11
1.6696e-10
4.93605e-11
8.38287e-11
3.24551e-11
4.47733e-11
2.2341e-11
2.67837e-11
1.59937e-11
1.67756e-11
1.17909e-11
1.11117e-11
8.8862e-12
7.66885e-12
6.82845e-12
5.44362e-12
5.31488e-12
3.99591e-12
4.18986e-12
2.97292e-12
3.32758e-12
2.27715e-12
2.66323e-12
1.75374e-12
2.13908e-12
1.38115e-12
1.72463e-12
1.09647e-12
1.39072e-12
8.83862e-13
1.12174e-12
7.14234e-13
9.0147e-13
5.8064e-13
7.19954e-13
4.80414e-13
5.68931e-13
4.01533e-13
4.42091e-13
3.35974e-13
3.33284e-13
2.8591e-13
2.38606e-13
2.5209e-13
1.53863e-13
2.25535e-13
7.52679e-14
2.0741e-13
-6.50495e-16
2.00978e-13
-7.49316e-14
1.96759e-13
-1.54246e-13
1.9245e-13
-2.38593e-13
2.2727e-13
-3.32851e-13
2.61402e-13
-4.4281e-13
2.76328e-13
-5.69429e-13
3.41581e-13
-7.19709e-13
4.04281e-13
-9.0171e-13
4.65523e-13
-1.1217e-12
5.90215e-13
-1.3904e-12
7.17405e-13
-1.72499e-12
8.66508e-13
-2.13891e-12
1.09932e-12
-2.66259e-12
1.39293e-12
-3.32786e-12
1.73996e-12
-4.1899e-12
2.2859e-12
-5.31449e-12
2.97762e-12
-6.82869e-12
3.98243e-12
-8.88614e-12
5.44279e-12
-1.17903e-11
7.67542e-12
-1.59936e-11
1.11018e-11
-2.23407e-11
1.67855e-11
-3.24545e-11
2.67885e-11
-4.93611e-11
4.47618e-11
-8.09169e-11
8.38341e-11
-1.43616e-10
1.66966e-10
-3.07132e-10
4.48623e-10
-7.84178e-10
1.37068e-09
-3.67121e-09
2.38755e-08
-1.53677e-09
2.82628e-08
-5.4339e-08
4.00078e-09
-5.83392e-08
2.78183e-09
2.94818e-08
9.56408e-10
2.57009e-08
3.8369e-10
1.94339e-09
1.82263e-10
6.50071e-10
1.02933e-10
2.46292e-10
6.28957e-11
1.2386e-10
4.13841e-11
6.62797e-11
2.85048e-11
3.9661e-11
2.04123e-11
2.48678e-11
1.50527e-11
1.64705e-11
1.1346e-11
1.13807e-11
8.71979e-12
8.06722e-12
6.78766e-12
5.92553e-12
5.35119e-12
4.4113e-12
4.24993e-12
3.37878e-12
3.40166e-12
2.60404e-12
2.73212e-12
2.05486e-12
2.20269e-12
1.62778e-12
1.77634e-12
1.30375e-12
1.43266e-12
1.05344e-12
1.15121e-12
8.6206e-13
9.19564e-13
7.04339e-13
7.26578e-13
5.92852e-13
5.64479e-13
5.01502e-13
4.25698e-13
4.23099e-13
3.04696e-13
3.74825e-13
1.96354e-13
3.29639e-13
9.61453e-14
3.0384e-13
-4.18055e-16
3.04159e-13
-9.66046e-14
3.0053e-13
-1.96109e-13
2.93487e-13
-3.04676e-13
3.42705e-13
-4.2596e-13
3.72528e-13
-5.64586e-13
4.11733e-13
-7.27178e-13
5.03687e-13
-9.20038e-13
5.97973e-13
-1.15073e-12
6.96013e-13
-1.43262e-12
8.69756e-13
-1.77674e-12
1.06078e-12
-2.20235e-12
1.29225e-12
-2.73191e-12
1.63135e-12
-3.40168e-12
2.05697e-12
-4.2495e-12
2.59245e-12
-5.35124e-12
3.38423e-12
-6.78796e-12
4.41681e-12
-8.71932e-12
5.91263e-12
-1.13459e-11
8.07525e-12
-1.50527e-11
1.13873e-11
-2.04114e-11
1.64644e-11
-2.85043e-11
2.48754e-11
-4.13842e-11
3.96699e-11
-6.28956e-11
6.6269e-11
-1.02933e-10
1.23869e-10
-1.82263e-10
2.46288e-10
-3.83689e-10
6.50057e-10
-9.56408e-10
1.94339e-09
-2.78183e-09
2.57009e-08
-4.00078e-09
2.94817e-08
-5.83397e-08
4.025e-09
-6.23642e-08
2.76776e-09
3.0739e-08
1.12967e-09
2.7339e-08
4.63616e-10
2.60944e-09
2.235e-10
8.90181e-10
1.2656e-10
3.43227e-10
7.74748e-11
1.72952e-10
5.10185e-11
9.27417e-11
3.51638e-11
5.55139e-11
2.51897e-11
3.48418e-11
1.85811e-11
2.30845e-11
1.40082e-11
1.59518e-11
1.07673e-11
1.13107e-11
8.38233e-12
8.31013e-12
6.60882e-12
6.18091e-12
5.249e-12
4.73325e-12
4.2014e-12
3.64627e-12
3.37452e-12
2.87963e-12
2.7206e-12
2.27718e-12
2.194e-12
1.83511e-12
1.76946e-12
1.4793e-12
1.42181e-12
1.21077e-12
1.13571e-12
9.9792e-13
8.97355e-13
8.31377e-13
6.97123e-13
7.01866e-13
5.25718e-13
5.97012e-13
3.76272e-13
5.20708e-13
2.4247e-13
4.69798e-13
1.18694e-13
4.30437e-13
-4.34818e-16
4.1931e-13
-1.19273e-13
4.1548e-13
-2.42243e-13
4.14946e-13
-3.76279e-13
4.70568e-13
-5.26002e-13
5.30923e-13
-6.97284e-13
5.8736e-13
-8.98039e-13
7.05519e-13
-1.13623e-12
8.36487e-13
-1.42129e-12
9.79404e-13
-1.76941e-12
1.21429e-12
-2.19443e-12
1.48283e-12
-2.72025e-12
1.82129e-12
-3.37428e-12
2.28174e-12
-4.2014e-12
2.88345e-12
-5.24854e-12
3.63864e-12
-6.60889e-12
4.74517e-12
-8.38265e-12
6.1845e-12
-1.07668e-11
8.29339e-12
-1.40081e-11
1.13055e-11
-1.85812e-11
1.59528e-11
-2.51888e-11
2.30644e-11
-3.51633e-11
3.48489e-11
-5.10186e-11
5.55218e-11
-7.74748e-11
9.27321e-11
-1.26561e-10
1.72955e-10
-2.23501e-10
3.43236e-10
-4.63615e-10
8.90164e-10
-1.12967e-09
2.60945e-09
-2.76776e-09
2.7339e-08
-4.02499e-09
3.0739e-08
-6.23647e-08
2.67512e-09
-6.50393e-08
2.65389e-09
3.07602e-08
1.30172e-09
2.86912e-08
5.46992e-10
3.36416e-09
2.67369e-10
1.16981e-09
1.51859e-10
4.58741e-10
9.31485e-11
2.31658e-10
6.13966e-11
1.24492e-10
4.23469e-11
7.45667e-11
3.03478e-11
4.68447e-11
2.23929e-11
3.10319e-11
1.68856e-11
2.14567e-11
1.2981e-11
1.52056e-11
1.01069e-11
1.11923e-11
7.96911e-12
8.31901e-12
6.32984e-12
6.38022e-12
5.0666e-12
4.91326e-12
4.0696e-12
3.8775e-12
3.28105e-12
3.06628e-12
2.64593e-12
2.46746e-12
2.13391e-12
1.99393e-12
1.71467e-12
1.63413e-12
1.36958e-12
1.33614e-12
1.08217e-12
1.11976e-12
8.40696e-13
9.39263e-13
6.33921e-13
8.05651e-13
4.53741e-13
7.01744e-13
2.92396e-13
6.26107e-13
1.43037e-13
5.78409e-13
-4.88517e-16
5.59972e-13
-1.43533e-13
5.5914e-13
-2.9246e-13
5.70214e-13
-4.53752e-13
6.3799e-13
-6.33986e-13
7.07143e-13
-8.41171e-13
7.88737e-13
-1.08293e-12
9.42892e-13
-1.36989e-12
1.1266e-12
-1.71436e-12
1.32599e-12
-2.13385e-12
1.64417e-12
-2.64613e-12
1.99863e-12
-3.28094e-12
2.45109e-12
-4.06934e-12
3.07388e-12
-5.06632e-12
3.88314e-12
-6.32963e-12
4.89985e-12
-7.9692e-12
6.38424e-12
-1.0107e-11
8.32678e-12
-1.29807e-11
1.11712e-11
-1.68855e-11
1.52191e-11
-2.23927e-11
2.14728e-11
-3.0347e-11
3.1022e-11
-4.23464e-11
4.68545e-11
-6.13965e-11
7.4574e-11
-9.31488e-11
1.24479e-10
-1.5186e-10
2.31665e-10
-2.67369e-10
4.58746e-10
-5.46991e-10
1.16979e-09
-1.30172e-09
3.36417e-09
-2.65389e-09
2.86912e-08
-2.67512e-09
3.07602e-08
-6.50399e-08
1.57184e-09
-6.66111e-08
2.3947e-09
2.99374e-08
1.47202e-09
2.96139e-08
6.3374e-10
4.20244e-09
3.13896e-10
1.48965e-09
1.78887e-10
5.93752e-10
1.09967e-10
3.0058e-10
7.25574e-11
1.61901e-10
5.00838e-11
9.70401e-11
3.59089e-11
6.10151e-11
2.65054e-11
4.04409e-11
1.99917e-11
2.79736e-11
1.53714e-11
1.9839e-11
1.19698e-11
1.45806e-11
9.43876e-12
1.0852e-11
7.4978e-12
8.31744e-12
6.00165e-12
6.41106e-12
4.82089e-12
5.05538e-12
3.88685e-12
4.00273e-12
3.1345e-12
3.22236e-12
2.52791e-12
2.59986e-12
2.03125e-12
2.12675e-12
1.62246e-12
1.75228e-12
1.28199e-12
1.46139e-12
9.95933e-13
1.2248e-12
7.50932e-13
1.04828e-12
5.37502e-13
9.13845e-13
3.46372e-13
8.15563e-13
1.69371e-13
7.55028e-13
-5.02777e-16
7.3596e-13
-1.69865e-13
7.26086e-13
-3.46651e-13
7.43256e-13
-5.37541e-13
8.2194e-13
-7.50867e-13
9.20163e-13
-9.9663e-13
1.03722e-12
-1.28282e-12
1.23363e-12
-1.62264e-12
1.46142e-12
-2.0311e-12
1.73304e-12
-2.52786e-12
2.13346e-12
-3.13456e-12
2.60002e-12
-3.88689e-12
3.20627e-12
-4.82062e-12
4.00431e-12
-6.0012e-12
5.06413e-12
-7.49775e-12
6.39517e-12
-9.43885e-12
8.32227e-12
-1.19697e-11
1.08607e-11
-1.53712e-11
1.45687e-11
-1.99915e-11
1.98355e-11
-2.65049e-11
2.79731e-11
-3.59082e-11
4.04223e-11
-5.00832e-11
6.10277e-11
-7.25572e-11
9.705e-11
-1.09968e-10
1.61894e-10
-1.78888e-10
3.00587e-10
-3.13896e-10
5.93751e-10
-6.3374e-10
1.48963e-09
-1.47202e-09
4.20246e-09
-2.3947e-09
2.96139e-08
-1.57183e-09
2.99374e-08
-6.66117e-08
9.05298e-10
-6.75164e-08
2.1845e-09
2.86582e-08
1.64062e-09
3.01577e-08
7.23772e-10
5.11929e-09
3.63093e-10
1.85033e-09
2.07698e-10
7.49143e-10
1.27981e-10
3.80294e-10
8.45407e-11
2.05338e-10
5.84049e-11
1.23176e-10
4.18967e-11
7.75196e-11
3.09366e-11
5.13954e-11
2.33406e-11
3.55681e-11
1.79496e-11
2.52269e-11
1.39798e-11
1.85537e-11
1.10248e-11
1.38057e-11
8.7586e-12
1.05868e-11
7.01116e-12
8.15744e-12
5.63215e-12
6.43572e-12
4.54104e-12
5.09384e-12
3.6622e-12
4.09786e-12
2.95347e-12
3.30812e-12
2.37324e-12
2.71118e-12
1.89564e-12
2.22364e-12
1.49788e-12
1.85574e-12
1.16364e-12
1.56693e-12
8.77368e-13
1.33078e-12
6.28004e-13
1.16684e-12
4.04686e-13
1.0447e-12
1.97863e-13
9.63396e-13
-5.18073e-16
9.28965e-13
-1.98407e-13
9.26554e-13
-4.0511e-13
9.5016e-13
-6.2807e-13
1.04741e-12
-8.77259e-13
1.17146e-12
-1.16448e-12
1.32752e-12
-1.49878e-12
1.56805e-12
-1.89577e-12
1.85852e-12
-2.37314e-12
2.21392e-12
-2.95343e-12
2.70899e-12
-3.66218e-12
3.31962e-12
-4.54118e-12
4.08298e-12
-5.63186e-12
5.09684e-12
-7.01063e-12
6.44063e-12
-8.75864e-12
8.14965e-12
-1.10249e-11
1.0588e-11
-1.39797e-11
1.38082e-11
-1.79495e-11
1.85419e-11
-2.33404e-11
2.52259e-11
-3.0936e-11
3.55755e-11
-4.1896e-11
5.13867e-11
-5.84043e-11
7.75384e-11
-8.45404e-11
1.23184e-10
-1.27981e-10
2.05332e-10
-2.07699e-10
3.80304e-10
-3.63093e-10
7.49149e-10
-7.23772e-10
1.85031e-09
-1.64062e-09
5.1193e-09
-2.1845e-09
3.01577e-08
-9.05294e-10
2.86581e-08
-6.7517e-08
4.77188e-10
-6.79936e-08
2.09627e-09
2.70391e-08
1.80724e-09
3.04468e-08
8.17004e-10
6.10952e-09
4.14956e-10
2.25238e-09
2.38339e-10
9.25766e-10
1.47238e-10
4.71401e-10
9.73864e-11
2.55195e-10
6.73416e-11
1.53223e-10
4.83352e-11
9.65315e-11
3.57055e-11
6.40237e-11
2.6947e-11
4.43233e-11
2.07273e-11
3.14393e-11
1.61463e-11
2.31416e-11
1.27348e-11
1.72238e-11
1.01183e-11
1.32034e-11
8.10002e-12
1.01745e-11
6.50736e-12
8.02756e-12
5.24689e-12
6.3539e-12
4.23166e-12
5.11004e-12
3.41276e-12
4.12483e-12
2.74234e-12
3.37931e-12
2.19054e-12
2.77822e-12
1.73096e-12
2.31851e-12
1.34469e-12
1.94455e-12
1.01391e-12
1.65958e-12
7.25735e-13
1.45024e-12
4.67649e-13
1.30087e-12
2.28636e-13
1.1999e-12
-5.38289e-16
1.15562e-12
-2.29252e-13
1.15641e-12
-4.68197e-13
1.1877e-12
-7.25824e-13
1.30122e-12
-1.01377e-12
1.45697e-12
-1.34566e-12
1.65765e-12
-1.73191e-12
1.95228e-12
-2.19063e-12
2.31895e-12
-2.74232e-12
2.76447e-12
-3.41268e-12
3.38692e-12
-4.2316e-12
4.12565e-12
-5.24709e-12
5.10074e-12
-6.50705e-12
6.3588e-12
-8.09942e-12
8.03334e-12
-1.01184e-11
1.01668e-11
-1.27349e-11
1.32125e-11
-1.61461e-11
1.72273e-11
-2.07273e-11
2.31235e-11
-2.69468e-11
3.14501e-11
-3.57048e-11
4.43286e-11
-4.83345e-11
6.40164e-11
-6.7341e-11
9.65422e-11
-9.73861e-11
1.53227e-10
-1.47239e-10
2.55186e-10
-2.3834e-10
4.71407e-10
-4.14956e-10
9.25764e-10
-8.17003e-10
2.25236e-09
-1.80724e-09
6.10953e-09
-2.09627e-09
3.04468e-08
-4.77185e-10
2.70391e-08
-6.79942e-08
2.68894e-10
-6.82625e-08
2.13221e-09
2.51758e-08
1.97135e-09
3.06076e-08
9.13305e-10
7.16757e-09
4.6946e-10
2.69623e-09
2.70852e-10
1.12437e-09
1.67786e-10
5.74462e-10
1.11135e-10
3.11841e-10
7.69259e-11
1.87428e-10
5.52495e-11
1.18203e-10
4.08316e-11
7.84432e-11
3.08265e-11
5.43326e-11
2.37168e-11
3.85569e-11
1.84791e-11
2.83761e-11
1.45765e-11
2.11208e-11
1.15831e-11
1.61937e-11
9.27339e-12
1.24797e-11
7.45071e-12
9.85346e-12
6.0078e-12
7.79582e-12
4.84568e-12
6.27621e-12
3.90805e-12
5.06765e-12
3.14045e-12
4.14641e-12
2.50866e-12
3.4093e-12
1.98241e-12
2.84359e-12
1.54004e-12
2.39139e-12
1.16125e-12
2.05174e-12
8.31205e-13
1.78016e-12
5.35597e-13
1.60076e-12
2.6187e-13
1.47749e-12
-5.58699e-16
1.4212e-12
-2.62561e-13
1.41085e-12
-5.36255e-13
1.46325e-12
-8.31318e-13
1.60181e-12
-1.1611e-12
1.78554e-12
-1.54111e-12
2.03531e-12
-1.9834e-12
2.40001e-12
-2.50872e-12
2.84961e-12
-3.14046e-12
3.39563e-12
-3.90798e-12
4.15232e-12
-4.84559e-12
5.07123e-12
-6.00806e-12
6.25966e-12
-7.4504e-12
7.79423e-12
-9.27276e-12
9.85836e-12
-1.15833e-11
1.24779e-11
-1.45767e-11
1.62031e-11
-1.84788e-11
2.11255e-11
-2.37168e-11
2.83542e-11
-3.08262e-11
3.85555e-11
-4.08308e-11
5.43392e-11
-5.52488e-11
7.84282e-11
-7.69253e-11
1.18221e-10
-1.11134e-10
1.8744e-10
-1.67787e-10
3.11836e-10
-2.70853e-10
5.74466e-10
-4.6946e-10
1.12437e-09
-9.13304e-10
2.69621e-09
-1.97135e-09
7.16758e-09
-2.13221e-09
3.06076e-08
-2.6889e-10
2.51757e-08
-6.82631e-08
3.57737e-10
-6.86203e-08
2.29484e-09
2.32387e-08
2.13235e-09
3.07701e-08
1.01246e-09
8.28746e-09
5.26558e-10
3.18213e-09
3.0527e-10
1.34567e-09
1.8967e-10
6.9006e-10
1.25826e-10
3.75691e-10
8.71903e-11
2.26067e-10
6.26653e-11
1.42731e-10
4.63352e-11
9.47761e-11
3.4995e-11
6.56661e-11
2.69308e-11
4.66212e-11
2.09883e-11
3.43162e-11
1.65583e-11
2.55453e-11
1.31599e-11
1.95869e-11
1.05367e-11
1.51136e-11
8.46666e-12
1.19198e-11
6.82746e-12
9.43232e-12
5.50725e-12
7.59821e-12
4.44176e-12
6.13046e-12
3.56951e-12
5.02427e-12
2.85158e-12
4.12679e-12
2.25352e-12
3.43649e-12
1.75071e-12
2.88674e-12
1.32014e-12
2.47498e-12
9.44964e-13
2.15912e-12
6.08888e-13
1.93285e-12
2.97732e-13
1.78723e-12
-6.07349e-16
1.71651e-12
-2.98502e-13
1.71944e-12
-6.09604e-13
1.77102e-12
-9.45117e-13
1.93724e-12
-1.32004e-12
2.16797e-12
-1.7518e-12
2.47573e-12
-2.25454e-12
2.90189e-12
-2.85167e-12
3.43529e-12
-3.56953e-12
4.11444e-12
-4.44171e-12
5.02827e-12
-5.50716e-12
6.13706e-12
-6.82774e-12
7.57821e-12
-8.46633e-12
9.43824e-12
-1.05361e-11
1.19322e-11
-1.31601e-11
1.51005e-11
-1.65585e-11
1.96022e-11
-2.09881e-11
2.55542e-11
-2.69308e-11
3.43025e-11
-3.49946e-11
4.66213e-11
-4.63344e-11
6.56741e-11
-6.26647e-11
9.47657e-11
-8.71897e-11
1.4274e-10
-1.25825e-10
2.2607e-10
-1.89671e-10
3.75685e-10
-3.05271e-10
6.90072e-10
-5.26558e-10
1.34565e-09
-1.01246e-09
3.1821e-09
-2.13235e-09
8.28747e-09
-2.29483e-09
3.07701e-08
-3.57732e-10
2.32386e-08
-6.86208e-08
7.75751e-10
-6.9396e-08
2.58538e-09
2.14291e-08
2.28953e-09
3.1066e-08
1.11416e-09
9.46282e-09
5.86181e-10
3.71011e-09
3.41617e-10
1.59022e-09
2.12933e-10
8.18748e-10
1.41498e-10
4.47126e-10
9.81678e-11
2.69393e-10
7.06091e-11
1.70292e-10
5.22373e-11
1.13147e-10
3.94692e-11
7.84407e-11
3.03827e-11
5.57049e-11
2.36848e-11
4.10175e-11
1.86888e-11
3.05497e-11
1.48557e-11
2.34302e-11
1.18958e-11
1.80651e-11
9.5599e-12
1.4258e-11
7.70968e-12
1.12894e-11
6.21951e-12
9.08553e-12
5.01651e-12
7.33146e-12
4.03164e-12
6.00789e-12
3.221e-12
4.93987e-12
2.54564e-12
4.11061e-12
1.97772e-12
3.46027e-12
1.49142e-12
2.96118e-12
1.06758e-12
2.57816e-12
6.87905e-13
2.32133e-12
3.36415e-13
2.13533e-12
-6.35948e-16
2.05157e-12
-3.3731e-13
2.0439e-12
-6.88623e-13
2.12716e-12
-1.06777e-12
2.31222e-12
-1.49139e-12
2.58728e-12
-1.97882e-12
2.95629e-12
-2.54669e-12
3.46162e-12
-3.22113e-12
4.12051e-12
-4.03163e-12
4.9229e-12
-5.01645e-12
6.00701e-12
-6.21948e-12
7.3348e-12
-7.70993e-12
9.07373e-12
-9.55957e-12
1.12938e-11
-1.18952e-11
1.42666e-11
-1.48559e-11
1.80598e-11
-1.8689e-11
2.34374e-11
-2.36846e-11
3.05554e-11
-3.03826e-11
4.09972e-11
-3.94688e-11
5.57048e-11
-5.22364e-11
7.84503e-11
-7.06084e-11
1.13135e-10
-9.81672e-11
1.70301e-10
-1.41498e-10
2.6941e-10
-2.12934e-10
4.47119e-10
-3.41618e-10
8.18754e-10
-5.86181e-10
1.59022e-09
-1.11416e-09
3.71009e-09
-2.28953e-09
9.46284e-09
-2.58537e-09
3.1066e-08
-7.75746e-10
2.1429e-08
-6.93965e-08
1.47449e-09
-7.08705e-08
2.98498e-09
1.99186e-08
2.44194e-09
3.1609e-08
1.21799e-09
1.06868e-08
6.48232e-10
4.27988e-09
3.79908e-10
1.85855e-09
2.37612e-10
9.61044e-10
1.58192e-10
5.26544e-10
1.09891e-10
3.17695e-10
7.91078e-11
2.01072e-10
5.85595e-11
1.33693e-10
4.42666e-11
9.27292e-11
3.40864e-11
6.58885e-11
2.65797e-11
4.85255e-11
2.09771e-11
3.61502e-11
1.66779e-11
2.77236e-11
1.33566e-11
2.13876e-11
1.07354e-11
1.68764e-11
8.65852e-12
1.33594e-11
6.9858e-12
1.07606e-11
5.63498e-12
8.68248e-12
4.52906e-12
7.1079e-12
3.61871e-12
5.84759e-12
2.86021e-12
4.88266e-12
2.22223e-12
4.09857e-12
1.67592e-12
3.50471e-12
1.19972e-12
3.05696e-12
7.73017e-13
2.73529e-12
3.78127e-13
2.53207e-12
-6.87124e-16
2.43647e-12
-3.79108e-13
2.43502e-12
-7.73755e-13
2.51746e-12
-1.19991e-12
2.74325e-12
-1.67603e-12
3.05957e-12
-2.22329e-12
3.50648e-12
-2.86125e-12
4.10928e-12
-3.61895e-12
4.873e-12
-4.52899e-12
5.8368e-12
-5.63492e-12
7.11802e-12
-6.98583e-12
8.69059e-12
-8.65871e-12
1.07381e-11
-1.07351e-11
1.33605e-11
-1.33561e-11
1.68814e-11
-1.6678e-11
2.13887e-11
-2.09773e-11
2.77369e-11
-2.65796e-11
3.61548e-11
-3.40862e-11
4.8508e-11
-4.42661e-11
6.588e-11
-5.85586e-11
9.27302e-11
-7.9107e-11
1.33686e-10
-1.09891e-10
2.01091e-10
-1.58192e-10
3.17707e-10
-2.37613e-10
5.26536e-10
-3.79908e-10
9.61049e-10
-6.48232e-10
1.85855e-09
-1.21799e-09
4.27985e-09
-2.44194e-09
1.06868e-08
-2.98498e-09
3.1609e-08
-1.47449e-09
1.99185e-08
-7.0871e-08
2.34082e-09
-7.32113e-08
3.45067e-09
1.88087e-08
2.58844e-09
3.24712e-08
1.3234e-09
1.19518e-08
7.12585e-10
4.89069e-09
4.20142e-10
2.15099e-09
2.63743e-10
1.11744e-09
1.75944e-10
6.14343e-10
1.22394e-10
3.71246e-10
8.81887e-11
2.35282e-10
6.5324e-11
1.56556e-10
4.94049e-11
1.08646e-10
3.80564e-11
7.7232e-11
2.96848e-11
5.6891e-11
2.34327e-11
4.24014e-11
1.86342e-11
3.2523e-11
1.49256e-11
2.51012e-11
1.19984e-11
1.98106e-11
9.67829e-12
1.56851e-11
7.80962e-12
1.26299e-11
6.30006e-12
1.01953e-11
5.06411e-12
8.3478e-12
4.04666e-12
6.86114e-12
3.19873e-12
5.71865e-12
2.4854e-12
4.81561e-12
1.87458e-12
4.1174e-12
1.34198e-12
3.58771e-12
8.6471e-13
3.2164e-12
4.2307e-13
2.97127e-12
-7.34935e-16
2.85952e-12
-4.24169e-13
2.84768e-12
-8.65389e-13
2.96014e-12
-1.34222e-12
3.2228e-12
-1.87481e-12
3.59884e-12
-2.48641e-12
4.11119e-12
-3.19979e-12
4.81376e-12
-4.04697e-12
5.72603e-12
-5.06396e-12
6.85124e-12
-6.30001e-12
8.34978e-12
-7.80977e-12
1.02012e-11
-9.67839e-12
1.26177e-11
-1.19981e-11
1.56835e-11
-1.49252e-11
1.98146e-11
-1.86343e-11
2.50887e-11
-2.34329e-11
3.25333e-11
-2.96848e-11
4.24048e-11
-3.80561e-11
5.68711e-11
-4.94045e-11
7.72417e-11
-6.53232e-11
1.0866e-10
-8.81879e-11
1.56546e-10
-1.22394e-10
2.35291e-10
-1.75944e-10
3.71259e-10
-2.63743e-10
6.14342e-10
-4.20143e-10
1.11745e-09
-7.12585e-10
2.15099e-09
-1.3234e-09
4.89066e-09
-2.58844e-09
1.19518e-08
-3.45067e-09
3.24712e-08
-2.34082e-09
1.88087e-08
-7.32118e-08
3.22897e-09
-7.64403e-08
3.92475e-09
1.81129e-08
2.72763e-09
3.36683e-08
1.42975e-09
1.32497e-08
7.79084e-10
5.54135e-09
4.62308e-10
2.46777e-09
2.91353e-10
1.28839e-09
1.94789e-10
7.10908e-10
1.35709e-10
4.30322e-10
9.78797e-11
2.73106e-10
7.25536e-11
1.81886e-10
5.49029e-11
1.26307e-10
4.23076e-11
8.9838e-11
3.30124e-11
6.61971e-11
2.60656e-11
4.93477e-11
2.07329e-11
3.78579e-11
1.66094e-11
2.92261e-11
1.33543e-11
2.3055e-11
1.07735e-11
1.82638e-11
8.69468e-12
1.47116e-11
7.01477e-12
1.18746e-11
5.63926e-12
9.72292e-12
4.50678e-12
7.9995e-12
3.56285e-12
6.67107e-12
2.76851e-12
5.60023e-12
2.08834e-12
4.80243e-12
1.49508e-12
4.18349e-12
9.63393e-13
3.75553e-12
4.71464e-13
3.46971e-12
-7.9334e-16
3.32575e-12
-4.72644e-13
3.32294e-12
-9.64019e-13
3.45359e-12
-1.49536e-12
3.7545e-12
-2.08872e-12
4.18234e-12
-2.76946e-12
4.79876e-12
-3.56385e-12
5.61638e-12
-4.50721e-12
6.66596e-12
-5.63904e-12
7.98398e-12
-7.01473e-12
9.73196e-12
-8.69491e-12
1.18794e-11
-1.07735e-11
1.46904e-11
-1.3354e-11
1.8262e-11
-1.66091e-11
2.30612e-11
-2.07328e-11
2.92201e-11
-2.60658e-11
3.78669e-11
-3.30124e-11
4.93567e-11
-4.23073e-11
6.61705e-11
-5.49023e-11
8.98272e-11
-7.25529e-11
1.26295e-10
-9.78788e-11
1.8187e-10
-1.35709e-10
2.73121e-10
-1.9479e-10
4.30331e-10
-2.91354e-10
7.10906e-10
-4.62309e-10
1.2884e-09
-7.79084e-10
2.46776e-09
-1.42974e-09
5.54133e-09
-2.72763e-09
1.32497e-08
-3.92474e-09
3.36683e-08
-3.22896e-09
1.81129e-08
-7.64408e-08
4.00112e-09
-8.04414e-08
4.34972e-09
1.77643e-08
2.85803e-09
3.516e-08
1.53626e-09
1.45715e-08
8.4754e-10
6.23007e-09
5.06378e-10
2.80894e-09
3.20466e-10
1.47431e-09
2.14762e-10
8.16612e-10
1.49869e-10
4.95222e-10
1.08209e-10
3.14769e-10
8.02716e-11
2.09825e-10
6.07793e-11
1.45796e-10
4.68557e-11
1.0375e-10
3.65749e-11
7.64661e-11
2.88861e-11
5.70399e-11
2.29823e-11
4.37672e-11
1.84148e-11
3.37891e-11
1.4809e-11
2.66694e-11
1.19488e-11
2.11226e-11
9.64483e-12
1.70084e-11
7.78231e-12
1.37373e-11
6.25712e-12
1.12532e-11
5.00121e-12
9.25201e-12
3.95419e-12
7.70962e-12
3.07294e-12
6.48383e-12
2.3182e-12
5.54992e-12
1.65975e-12
4.84563e-12
1.06954e-12
4.34056e-12
5.23491e-13
4.01271e-12
-8.19421e-16
3.85436e-12
-5.24763e-13
3.85117e-12
-1.07013e-12
3.99535e-12
-1.6601e-12
4.33696e-12
-2.31869e-12
4.85116e-12
-3.0738e-12
5.55044e-12
-3.95519e-12
6.49969e-12
-5.00172e-12
7.71069e-12
-6.25683e-12
9.24401e-12
-7.78228e-12
1.12511e-11
-9.64515e-12
1.37401e-11
-1.19487e-11
1.69905e-11
-1.48086e-11
2.11308e-11
-1.84146e-11
2.66736e-11
-2.29822e-11
3.37775e-11
-2.88864e-11
4.3776e-11
-3.65751e-11
5.70399e-11
-4.68553e-11
7.64471e-11
-6.07788e-11
1.03751e-10
-8.02709e-11
1.45802e-10
-1.08208e-10
2.0981e-10
-1.49868e-10
3.14782e-10
-2.14762e-10
4.95239e-10
-3.20467e-10
8.16615e-10
-5.06379e-10
1.47431e-09
-8.47541e-10
2.80891e-09
-1.53626e-09
6.23005e-09
-2.85803e-09
1.45715e-08
-4.34972e-09
3.516e-08
-4.00111e-09
1.77643e-08
-8.04419e-08
4.56262e-09
-8.5004e-08
4.68171e-09
1.76453e-08
2.97811e-09
3.68636e-08
1.64214e-09
1.59074e-08
9.17732e-10
6.95449e-09
5.52305e-10
3.17435e-09
3.51097e-10
1.67552e-09
2.35892e-10
9.31815e-10
1.64904e-10
5.66202e-10
1.19203e-10
3.60462e-10
8.85014e-11
2.4052e-10
6.70538e-11
1.6724e-10
5.17166e-11
1.19092e-10
4.03858e-11
8.78017e-11
3.19051e-11
6.55149e-11
2.53914e-11
5.02753e-11
2.03494e-11
3.88327e-11
1.63682e-11
3.06427e-11
1.32091e-11
2.42831e-11
1.06642e-11
1.956e-11
8.606e-12
1.5792e-11
6.92039e-12
1.29387e-11
5.53213e-12
1.06456e-11
4.37457e-12
8.86861e-12
3.40001e-12
7.46307e-12
2.56525e-12
6.38903e-12
1.83676e-12
5.57059e-12
1.18368e-12
4.99557e-12
5.79446e-13
4.61479e-12
-8.37892e-16
4.43627e-12
-5.80802e-13
4.42322e-12
-1.18426e-12
4.60613e-12
-1.83711e-12
4.9992e-12
-2.56583e-12
5.57273e-12
-3.40079e-12
6.38337e-12
-4.37555e-12
7.46628e-12
-5.5327e-12
8.87027e-12
-6.9201e-12
1.06256e-11
-8.60597e-12
1.29434e-11
-1.06645e-11
1.5797e-11
-1.3209e-11
1.95372e-11
-1.63679e-11
2.42846e-11
-2.03493e-11
3.06518e-11
-2.53912e-11
3.88239e-11
-3.19054e-11
5.0284e-11
-4.0386e-11
6.55227e-11
-5.17161e-11
8.77783e-11
-6.70532e-11
1.19097e-10
-8.85008e-11
1.67238e-10
-1.19202e-10
2.40507e-10
-1.64904e-10
3.60485e-10
-2.35892e-10
5.66221e-10
-3.51097e-10
9.31811e-10
-5.52306e-10
1.67553e-09
-9.17733e-10
3.17435e-09
-1.64214e-09
6.95445e-09
-2.97811e-09
1.59074e-08
-4.68171e-09
3.68636e-08
-4.56262e-09
1.76452e-08
-8.50045e-08
4.8762e-09
-8.98802e-08
4.89756e-09
1.76239e-08
3.08641e-09
3.86748e-08
1.74649e-09
1.72473e-08
9.89402e-10
7.71157e-09
6.00026e-10
3.56373e-09
3.83252e-10
1.89229e-09
2.58206e-10
1.05686e-09
1.80845e-10
6.43563e-10
1.30892e-10
4.10421e-10
9.72669e-11
2.74152e-10
7.37463e-11
1.90764e-10
5.69068e-11
1.35937e-10
4.44584e-11
1.00255e-10
3.51337e-11
7.48396e-11
2.79693e-11
5.74479e-11
2.24206e-11
4.43787e-11
1.80385e-11
3.50328e-11
1.45597e-11
2.7761e-11
1.17569e-11
2.23599e-11
9.48937e-12
1.80653e-11
7.63196e-12
1.4786e-11
6.10186e-12
1.21702e-11
4.82585e-12
1.01517e-11
3.75121e-12
8.53436e-12
2.83056e-12
7.30642e-12
2.0269e-12
6.37594e-12
1.30628e-12
5.71566e-12
6.39581e-13
5.28585e-12
-8.68238e-16
5.07669e-12
-6.40924e-13
5.06431e-12
-1.30689e-12
5.25933e-12
-2.02732e-12
5.70784e-12
-2.83121e-12
6.37622e-12
-3.75195e-12
7.3047e-12
-4.82676e-12
8.54955e-12
-6.10248e-12
1.0145e-11
-7.63168e-12
1.21585e-11
-9.48934e-12
1.47912e-11
-1.17573e-11
1.80684e-11
-1.45596e-11
2.23383e-11
-1.80382e-11
2.77654e-11
-2.24205e-11
3.50368e-11
-2.79691e-11
4.43804e-11
-3.5134e-11
5.74478e-11
-4.44586e-11
7.48484e-11
-5.69063e-11
1.0023e-10
-7.37457e-11
1.35921e-10
-9.72663e-11
1.90758e-10
-1.30891e-10
2.74142e-10
-1.80845e-10
4.10439e-10
-2.58207e-10
6.43586e-10
-3.83252e-10
1.05687e-09
-6.00027e-10
1.89229e-09
-9.89403e-10
3.56372e-09
-1.74649e-09
7.71154e-09
-3.08641e-09
1.72474e-08
-4.89756e-09
3.86748e-08
-4.87619e-09
1.76238e-08
-8.98807e-08
4.95335e-09
-9.48336e-08
4.99423e-09
1.7583e-08
3.18163e-09
4.04874e-08
1.84845e-09
1.85805e-08
1.06226e-09
8.49776e-09
6.49456e-10
3.97654e-09
4.16928e-10
2.12483e-09
2.81728e-10
1.19205e-09