/*--------------------------------*- C++ -*----------------------------------*\
| =========                 |                                                 |
| \\      /  F ield         | foam-extend: Open Source CFD                    |
|  \\    /   O peration     | Version:     4.0                                |
|   \\  /    A nd           | Web:         http://www.foam-extend.org         |
|    \\/     M anipulation  |                                                 |
\*---------------------------------------------------------------------------*/
FoamFile
{
    version     2.0;
    format      ascii;
    class       surfaceScalarField;
    location    "16";
    object      phi;
}
// * * * * * * * * * * * * * * * * * * * * * * * * * * * * * * * * * * * * * //

dimensions      [0 3 -1 0 0 0 0];

internalField   nonuniform List<scalar> 
13744
(
-3.87532e-09
3.87556e-09
1.7214e-09
-5.59671e-09
4.00936e-11
1.6813e-09
1.52951e-11
2.47995e-11
1.09937e-11
4.30156e-12
6.66862e-12
4.32449e-12
4.88229e-12
1.78541e-12
3.35007e-12
1.53211e-12
2.46135e-12
8.89122e-13
1.81956e-12
6.40654e-13
1.37596e-12
4.44089e-13
1.06394e-12
3.10918e-13
8.27559e-13
2.35756e-13
6.57343e-13
1.69864e-13
5.22292e-13
1.34615e-13
4.22026e-13
9.91984e-14
3.39794e-13
8.33777e-14
2.76976e-13
6.23945e-14
2.24964e-13
5.25135e-14
1.83556e-13
4.16334e-14
1.49208e-13
3.52496e-14
1.21376e-13
2.7589e-14
9.74547e-14
2.48135e-14
7.78861e-14
1.92624e-14
6.10065e-14
1.77636e-14
4.61441e-14
1.4988e-14
3.32511e-14
1.36557e-14
2.1666e-14
1.17684e-14
1.04282e-14
1.14353e-14
-4.86654e-16
1.13243e-14
-9.31809e-15
1.06581e-14
-2.27702e-14
1.27676e-14
-3.32523e-14
1.08802e-14
-4.50017e-14
1.27676e-14
-6.21193e-14
1.70974e-14
-7.78294e-14
1.60982e-14
-9.62672e-14
1.80411e-14
-1.22478e-13
2.59237e-14
-1.4919e-13
2.76446e-14
-1.82419e-13
3.2474e-14
-2.26106e-13
4.29101e-14
-2.76984e-13
5.14033e-14
-3.38655e-13
6.27831e-14
-4.2313e-13
8.42104e-14
-5.22289e-13
9.90874e-14
-6.56233e-13
1.34115e-13
-8.28711e-13
1.73028e-13
-1.06394e-12
2.36478e-13
-1.37484e-12
3.10807e-13
-1.82072e-12
4.47864e-13
-2.46135e-12
6.39988e-13
-3.34894e-12
8.8779e-13
-4.88341e-12
1.53394e-12
-6.66862e-12
1.78618e-12
-1.09926e-11
4.32332e-12
-1.52963e-11
4.30311e-12
-4.00937e-11
2.47974e-11
-1.7214e-09
1.6813e-09
3.87531e-09
-5.59671e-09
3.87531e-09
1.60316e-08
-1.2156e-08
2.55141e-09
7.88346e-09
1.23127e-10
4.10959e-09
4.50972e-11
1.02827e-10
3.4643e-11
1.47547e-11
2.01448e-11
1.88231e-11
1.54157e-11
6.51745e-12
1.02105e-11
6.73778e-12
7.77174e-12
3.32634e-12
5.57509e-12
2.83851e-12
4.33848e-12
1.68049e-12
3.27437e-12
1.37629e-12
2.6027e-12
9.09051e-13
2.03084e-12
7.42961e-13
1.63971e-12
5.27578e-13
1.30631e-12
4.34763e-13
1.06565e-12
3.2202e-13
8.59604e-13
2.69729e-13
7.03468e-13
2.06557e-13
5.71243e-13
1.73306e-13
4.66599e-13
1.37557e-13
3.7699e-13
1.15852e-13
3.05264e-13
9.40359e-14
2.42538e-13
8.199e-14
1.89889e-13
6.89448e-14
1.44455e-13
6.13953e-14
1.03856e-13
5.22915e-14
6.67923e-14
4.85723e-14
3.35323e-14
4.4631e-14
1.27501e-16
4.44644e-14
-3.58012e-14
4.10227e-14
-6.40444e-14
4.32432e-14
-1.03861e-13
4.99045e-14
-1.4716e-13
5.41789e-14
-1.87094e-13
5.66214e-14
-2.42371e-13
7.08877e-14
-3.07831e-13
8.40994e-14
-3.74164e-13
9.37583e-14
-4.66543e-13
1.18627e-13
-5.73958e-13
1.40554e-13
-7.0076e-13
1.7164e-13
-8.59629e-13
2.08056e-13
-1.06836e-12
2.69895e-13
-1.30351e-12
3.18301e-13
-1.6397e-12
4.35207e-13
-2.03364e-12
5.2669e-13
-2.60002e-12
7.38076e-13
-3.27436e-12
9.09994e-13
-4.34125e-12
1.37657e-12
-5.57244e-12
1.6746e-12
-7.77174e-12
2.84217e-12
-1.02132e-11
3.32873e-12
-1.54129e-11
6.73284e-12
-2.01448e-11
6.51629e-12
-3.46459e-11
1.88261e-11
-4.50946e-11
1.4754e-11
-1.23127e-10
1.02828e-10
-2.55141e-09
4.10959e-09
-1.60316e-08
7.88346e-09
-1.21563e-08
1.25395e-08
-2.46955e-08
4.20281e-09
1.62201e-08
2.0406e-10
8.10834e-09
7.54689e-11
2.31418e-10
6.00963e-11
3.01295e-11
3.44906e-11
4.44303e-11
2.68534e-11
1.41505e-11
1.75707e-11
1.602e-11
1.35592e-11
7.3424e-12
9.62267e-12
6.77428e-12
7.57031e-12
3.73251e-12
5.66344e-12
3.28562e-12
4.54037e-12
2.03099e-12
3.51804e-12
1.76437e-12
2.85874e-12
1.18455e-12
2.26632e-12
1.02574e-12
1.8567e-12
7.28084e-13
1.49251e-12
6.33799e-13
1.22578e-12
4.75814e-13
9.9217e-13
4.03594e-13
8.12592e-13
3.1844e-13
6.55661e-13
2.78694e-13
5.31193e-13
2.21989e-13
4.21743e-13
1.94206e-13
3.30948e-13
1.5965e-13
2.50902e-13
1.37695e-13
1.80813e-13
1.22707e-13
1.1653e-13
1.1216e-13
5.78262e-14
1.04555e-13
-3.55667e-16
1.02446e-13
-5.91287e-14
1.04555e-13
-1.14816e-13
9.57567e-14
-1.80822e-13
1.15907e-13
-2.5255e-13
1.25427e-13
-3.29144e-13
1.34753e-13
-4.21466e-13
1.62453e-13
-5.32605e-13
1.95011e-13
-6.5381e-13
2.12219e-13
-8.12488e-13
2.79332e-13
-9.93827e-13
3.21798e-13
-1.22413e-12
4.03344e-13
-1.49255e-12
4.81004e-13
-1.85834e-12
6.33077e-13
-2.26451e-12
7.27918e-13
-2.85874e-12
1.02873e-12
-3.51984e-12
1.19149e-12
-4.53875e-12
1.75751e-12
-5.66343e-12
2.03065e-12
-7.57207e-12
3.28601e-12
-9.6211e-12
3.72669e-12
-1.35592e-11
6.77405e-12
-1.75724e-11
7.34302e-12
-2.68517e-11
1.60176e-11
-3.44906e-11
1.41529e-11
-6.00982e-11
4.44315e-11
-7.54674e-11
3.01198e-11
-2.0406e-10
2.31424e-10
-4.20282e-09
8.10834e-09
-1.25395e-08
1.62201e-08
-2.46957e-08
3.60985e-09
-2.83054e-08
3.6178e-09
1.62122e-08
2.7894e-10
1.14472e-08
1.06661e-10
4.037e-10
8.70691e-11
4.972e-11
4.99307e-11
8.15665e-11
3.91235e-11
2.49638e-11
2.55327e-11
2.96083e-11
1.98032e-11
1.30642e-11
1.40117e-11
1.25679e-11
1.10672e-11
6.67386e-12
8.25724e-12
6.08853e-12
6.64064e-12
3.64803e-12
5.13373e-12
3.27165e-12
4.18149e-12
2.14096e-12
3.30979e-12
1.89981e-12
2.71563e-12
1.33103e-12
2.1806e-12
1.16809e-12
1.79332e-12
8.62505e-13
1.44983e-12
7.5473e-13
1.18866e-12
5.82298e-13
9.58797e-13
4.99878e-13
7.76763e-13
4.04232e-13
6.16661e-13
3.50144e-13
4.84399e-13
2.96374e-13
3.66638e-13
2.58703e-13
2.64513e-13
2.28012e-13
1.70673e-13
2.07771e-13
8.4029e-14
1.86282e-13
-6.65527e-16
1.86177e-13
-8.40529e-14
1.90195e-13
-1.707e-13
1.84033e-13
-2.64527e-13
2.10956e-13
-3.66574e-13
2.30385e-13
-4.84239e-13
2.4955e-13
-6.16271e-13
2.92814e-13
-7.76373e-13
3.54779e-13
-9.58562e-13
3.98223e-13
-1.1885e-12
5.07094e-13
-1.44977e-12
5.83061e-13
-1.79337e-12
7.39228e-13
-2.18066e-12
8.64558e-13
-2.71554e-12
1.17552e-12
-3.30964e-12
1.31931e-12
-4.18149e-12
1.90253e-12
-5.13389e-12
2.14143e-12
-6.64075e-12
3.26789e-12
-8.25723e-12
3.64837e-12
-1.10673e-11
6.09671e-12
-1.40119e-11
6.67108e-12
-1.98032e-11
1.25728e-11
-2.55327e-11
1.30707e-11
-3.91235e-11
2.96009e-11
-4.99307e-11
2.49669e-11
-8.70693e-11
8.15731e-11
-1.06661e-10
4.9713e-11
-2.78941e-10
4.03703e-10
-3.6178e-09
1.14472e-08
-3.60985e-09
1.62122e-08
-2.83056e-08
1.29206e-09
-2.95974e-08
2.23504e-09
1.52692e-08
3.50202e-10
1.3332e-08
1.38518e-10
6.1538e-10
1.15582e-10
7.26559e-11
6.65107e-11
1.30638e-10
5.22629e-11
3.9207e-11
3.41296e-11
4.77451e-11
2.65289e-11
2.06734e-11
1.87626e-11
2.03346e-11
1.48454e-11
1.05968e-11
1.10687e-11
9.87201e-12
8.91353e-12
5.80425e-12
6.88653e-12
5.29674e-12
5.61467e-12
3.40891e-12
4.44204e-12
3.07084e-12
3.64716e-12
2.11868e-12
2.92759e-12
1.88904e-12
2.40889e-12
1.38199e-12
1.94695e-12
1.21084e-12
1.59681e-12
9.29215e-13
1.28783e-12
8.14911e-13
1.04354e-12
6.44727e-13
8.28375e-13
5.68774e-13
6.50847e-13
4.66287e-13
4.9254e-13
4.16368e-13
3.55414e-13
3.62717e-13
2.29293e-13
3.32824e-13
1.12751e-13
3.07622e-13
-5.62904e-16
3.03001e-13
-1.12881e-13
2.98331e-13
-2.29593e-13
3.00121e-13
-3.55434e-13
3.35558e-13
-4.92269e-13
3.65784e-13
-6.50828e-13
4.08736e-13
-8.2786e-13
4.74329e-13
-1.04285e-12
5.73673e-13
-1.2877e-12
6.38045e-13
-1.5966e-12
8.17346e-13
-1.94668e-12
9.35377e-13
-2.40913e-12
1.2106e-12
-2.92765e-12
1.38141e-12
-3.64686e-12
1.8846e-12
-4.44203e-12
2.11341e-12
-5.61468e-12
3.07498e-12
-6.88654e-12
3.40981e-12
-8.91386e-12
5.28814e-12
-1.10687e-11
5.80853e-12
-1.48454e-11
9.87726e-12
-1.8763e-11
1.05868e-11
-2.65289e-11
2.03332e-11
-3.41294e-11
2.06734e-11
-5.2263e-11
4.77404e-11
-6.65107e-11
3.92086e-11
-1.15582e-10
1.30642e-10
-1.38518e-10
7.26517e-11
-3.50202e-10
6.15385e-10
-2.23504e-09
1.3332e-08
-1.29206e-09
1.52692e-08
-2.95977e-08
1.72137e-09
-3.13188e-08
1.52278e-09
1.54678e-08
4.19643e-10
1.44352e-08
1.71057e-10
8.6397e-10
1.4565e-10
9.80638e-11
8.42759e-11
1.92014e-10
6.63088e-11
5.71758e-11
4.33948e-11
7.06606e-11
3.37622e-11
3.03019e-11
2.38968e-11
3.01943e-11
1.89214e-11
1.5565e-11
1.41115e-11
1.46821e-11
1.13699e-11
8.54406e-12
8.78514e-12
7.88472e-12
7.16538e-12
5.02755e-12
5.66899e-12
4.56525e-12
4.65593e-12
3.13813e-12
3.73737e-12
2.8049e-12
3.07579e-12
2.04432e-12
2.48604e-12
1.80483e-12
2.03922e-12
1.37559e-12
1.64461e-12
1.20669e-12
1.33285e-12
9.57637e-13
1.058e-12
8.36692e-13
8.31314e-13
6.96835e-13
6.29165e-13
6.22363e-13
4.54014e-13
5.36078e-13
2.92863e-13
4.99299e-13
1.44028e-13
4.56215e-13
-4.78379e-16
4.4514e-13
-1.44556e-13
4.40158e-13
-2.92989e-13
4.48065e-13
-4.54038e-13
4.99212e-13
-6.29106e-13
5.38573e-13
-8.30997e-13
6.13561e-13
-1.05737e-12
6.93615e-13
-1.33228e-12
8.43339e-13
-1.64417e-12
9.53539e-13
-2.03894e-12
1.21099e-12
-2.48597e-12
1.37822e-12
-3.07581e-12
1.79485e-12
-3.73744e-12
2.04661e-12
-4.65583e-12
2.81255e-12
-5.66872e-12
3.12856e-12
-7.1654e-12
4.57061e-12
-8.78543e-12
5.03625e-12
-1.137e-11
7.87622e-12
-1.41115e-11
8.54472e-12
-1.89216e-11
1.46846e-11
-2.3897e-11
1.55673e-11
-3.37622e-11
3.02028e-11
-4.33948e-11
3.03052e-11
-6.63087e-11
7.06512e-11
-8.42759e-11
5.71818e-11
-1.4565e-10
1.92014e-10
-1.71058e-10
9.80558e-11
-4.19643e-10
8.6397e-10
-1.52278e-09
1.44352e-08
-1.72137e-09
1.54678e-08
-3.1319e-08
1.41661e-09
-3.27354e-08
1.2551e-09
1.56293e-08
4.86487e-10
1.52038e-08
2.04369e-10
1.14608e-09
1.77283e-10
1.25152e-10
1.0327e-10
2.66023e-10
8.12984e-11
7.91509e-11
5.33626e-11
9.85907e-11
4.15297e-11
4.21325e-11
2.94365e-11
4.22917e-11
2.33125e-11
2.16944e-11
1.73998e-11
2.05926e-11
1.40211e-11
1.19221e-11
1.08387e-11
1.10673e-11
8.84107e-12
7.02816e-12
6.9969e-12
6.415e-12
5.74685e-12
4.38386e-12
4.6141e-12
3.94197e-12
3.79748e-12
2.85833e-12
3.06981e-12
2.52823e-12
2.51815e-12
1.9319e-12
2.0311e-12
1.69915e-12
1.6461e-12
1.34731e-12
1.30677e-12
1.19059e-12
1.02681e-12
9.82509e-13
7.77156e-13
8.66612e-13
5.60834e-13
7.51441e-13
3.61776e-13
6.91523e-13
1.779e-13
6.36394e-13
-4.98511e-16
6.25208e-13
-1.78571e-13
6.23362e-13
-3.61963e-13
6.33375e-13
-5.60865e-13
6.94365e-13
-7.77071e-13
7.59989e-13
-1.02645e-12
8.6087e-13
-1.30601e-12
9.832e-13
-1.6454e-12
1.18433e-12
-2.03058e-12
1.33936e-12
-2.5178e-12
1.69973e-12
-3.0697e-12
1.93637e-12
-3.7975e-12
2.52497e-12
-4.61415e-12
2.86032e-12
-5.74672e-12
3.94378e-12
-6.9966e-12
4.37752e-12
-8.8411e-12
6.41424e-12
-1.08391e-11
7.02478e-12
-1.40213e-11
1.10588e-11
-1.73998e-11
1.1924e-11
-2.33127e-11
2.05964e-11
-2.94368e-11
2.1686e-11
-4.15297e-11
4.22976e-11
-5.33626e-11
4.21369e-11
-8.12983e-11
9.85873e-11
-1.0327e-10
7.91496e-11
-1.77283e-10
2.66033e-10
-2.04369e-10
1.25144e-10
-4.86488e-10
1.14609e-09
-1.2551e-09
1.52038e-08
-1.41661e-09
1.56293e-08
-3.27356e-08
4.21e-10
-3.31564e-08
9.80686e-10
1.50696e-08
5.49499e-10
1.5635e-08
2.38456e-10
1.45713e-09
2.10483e-10
1.53119e-10
1.23537e-10
3.52971e-10
9.72683e-11
1.05414e-10
6.4068e-11
1.31796e-10
4.98588e-11
5.63466e-11
3.54048e-11
5.67433e-11
2.80367e-11
2.90648e-11
2.09484e-11
2.7683e-11
1.6879e-11
1.59934e-11
1.30571e-11
1.48836e-11
1.06496e-11
9.43483e-12
8.43221e-12
8.62315e-12
6.92523e-12
5.8939e-12
5.56211e-12
5.301e-12
4.57752e-12
3.8435e-12
3.70123e-12
3.40705e-12
3.03602e-12
2.59201e-12
2.44926e-12
2.281e-12
1.98492e-12
1.80354e-12
1.57595e-12
1.58908e-12
1.23832e-12
1.31494e-12
9.37308e-13
1.16787e-12
6.7642e-13
1.0192e-12
4.36385e-13
9.33038e-13
2.1454e-13
8.61235e-13
-5.44462e-16
8.36501e-13
-2.15234e-13
8.34562e-13
-4.36776e-13
8.5703e-13
-6.76449e-13
9.36591e-13
-9.37057e-13
1.01816e-12
-1.23804e-12
1.1634e-12
-1.57507e-12
1.31556e-12
-1.98394e-12
1.59622e-12
-2.44879e-12
1.79853e-12
-3.03558e-12
2.28205e-12
-3.70094e-12
2.59288e-12
-4.57769e-12
3.40145e-12
-5.56216e-12
3.85331e-12
-6.92492e-12
5.29873e-12
-8.43203e-12
5.88432e-12
-1.06496e-11
8.63207e-12
-1.30573e-11
9.44251e-12
-1.68794e-11
1.48788e-11
-2.09484e-11
1.59934e-11
-2.80367e-11
2.76846e-11
-3.54052e-11
2.90603e-11
-4.98588e-11
5.67463e-11
-6.40678e-11
5.63487e-11
-9.72683e-11
1.31788e-10
-1.23537e-10
1.0542e-10
-2.10484e-10
3.52979e-10
-2.38456e-10
1.53119e-10
-5.495e-10
1.45713e-09
-9.80686e-10
1.5635e-08
-4.20999e-10
1.50696e-08
-3.31566e-08
-6.01613e-10
-3.25548e-08
6.18149e-10
1.38499e-08
6.08145e-10
1.5645e-08
2.73247e-10
1.79203e-09
2.45245e-10
1.81119e-10
1.45116e-10
4.531e-10
1.14254e-10
1.36278e-10
7.55461e-11
1.70504e-10
5.87774e-11
7.31158e-11
4.18254e-11
7.3698e-11
3.31127e-11
3.77691e-11
2.47729e-11
3.60187e-11
1.99559e-11
2.0809e-11
1.54504e-11
1.93961e-11
1.25992e-11
1.22846e-11
9.98176e-12
1.12483e-11
8.19664e-12
7.67332e-12
6.58605e-12
6.91449e-12
5.41967e-12
5.01447e-12
4.38343e-12
4.44462e-12
3.59536e-12
3.38547e-12
2.90114e-12
2.97048e-12
2.351e-12
2.35567e-12
1.8669e-12
2.07818e-12
1.46691e-12
1.71124e-12
1.11045e-12
1.52606e-12
8.01353e-13
1.32241e-12
5.17053e-13
1.21816e-12
2.54153e-13
1.12504e-12
-5.76003e-16
1.09564e-12
-2.54885e-13
1.08932e-12
-5.17637e-13
1.11262e-12
-8.01394e-13
1.21882e-12
-1.11003e-12
1.32772e-12
-1.46671e-12
1.51805e-12
-1.86589e-12
1.71842e-12
-2.34977e-12
2.0757e-12
-2.90071e-12
2.35355e-12
-3.59484e-12
2.97676e-12
-4.38295e-12
3.38913e-12
-5.41996e-12
4.43806e-12
-6.5861e-12
5.00637e-12
-8.19616e-12
6.91546e-12
-9.98167e-12
7.66958e-12
-1.25993e-11
1.12507e-11
-1.54505e-11
1.22926e-11
-1.99564e-11
1.93876e-11
-2.47729e-11
2.08073e-11
-3.31126e-11
3.6027e-11
-4.18259e-11
3.77658e-11
-5.87774e-11
7.36966e-11
-7.55457e-11
7.31133e-11
-1.14254e-10
1.70495e-10
-1.45116e-10
1.36281e-10
-2.45246e-10
4.53103e-10
-2.73248e-10
1.8112e-10
-6.08145e-10
1.79203e-09
-6.18149e-10
1.5645e-08
6.01615e-10
1.38498e-08
-3.2555e-08
-1.51945e-09
-3.10353e-08
2.27281e-10
1.21031e-08
6.62241e-10
1.521e-08
3.08672e-10
2.1456e-09
2.81556e-10
2.08243e-10
1.68046e-10
5.66616e-10
1.32291e-10
1.72032e-10
8.78325e-11
2.14963e-10
6.83139e-11
9.26307e-11
4.87226e-11
9.32872e-11
3.85599e-11
4.79371e-11
2.88893e-11
4.56967e-11
2.32648e-11
2.64309e-11
1.80293e-11
2.4629e-11
1.46985e-11
1.56179e-11
1.16527e-11
1.42937e-11
9.56694e-12
9.76504e-12
7.69076e-12
8.79223e-12
6.3279e-12
6.37214e-12
5.1197e-12
5.64806e-12
4.19888e-12
4.3031e-12
3.38899e-12
3.78883e-12
2.74614e-12
3.00525e-12
2.18105e-12
2.63806e-12
1.71371e-12
2.1856e-12
1.29743e-12
1.94071e-12
9.36274e-13
1.68952e-12
6.04172e-13
1.54736e-12
2.96948e-13
1.42969e-12
-6.02605e-16
1.38666e-12
-2.97749e-13
1.38701e-12
-6.04928e-13
1.42478e-12
-9.36315e-13
1.55473e-12
-1.29688e-12
1.68339e-12
-1.71353e-12
1.93732e-12
-2.17994e-12
2.17504e-12
-2.74466e-12
2.64717e-12
-3.38856e-12
2.99703e-12
-4.19826e-12
3.79215e-12
-5.11908e-12
4.30491e-12
-6.3283e-12
5.64344e-12
-7.69077e-12
6.3775e-12
-9.56632e-12
8.78724e-12
-1.16527e-11
9.75594e-12
-1.46986e-11
1.42932e-11
-1.80294e-11
1.56199e-11
-2.32654e-11
2.46175e-11
-2.88893e-11
2.64327e-11
-3.85598e-11
4.56935e-11
-4.87233e-11
4.79347e-11
-6.83139e-11
9.32961e-11
-8.7832e-11
9.2635e-11
-1.32292e-10
2.14954e-10
-1.68046e-10
1.72034e-10
-2.81556e-10
5.6662e-10
-3.08673e-10
2.08234e-10
-6.62242e-10
2.1456e-09
-2.2728e-10
1.521e-08
1.51945e-09
1.21031e-08
-3.10356e-08
-2.42455e-09
-2.86108e-08
-1.66591e-10
9.84516e-09
7.11571e-10
1.43319e-08
3.44686e-10
2.51248e-09
3.19392e-10
2.33533e-10
1.92363e-10
6.93638e-10
1.51413e-10
2.1298e-10
1.00963e-10
2.65412e-10
7.84972e-11
1.15098e-10
5.61216e-11
1.15663e-10
4.43985e-11
5.96611e-11
3.33144e-11
5.67756e-11
2.6819e-11
3.29312e-11
2.08052e-11
3.0646e-11
1.69567e-11
1.94612e-11
1.34525e-11
1.77962e-11
1.10423e-11
1.21719e-11
8.88134e-12
1.09528e-11
7.30643e-12
7.94999e-12
5.91354e-12
7.04477e-12
4.84944e-12
5.36322e-12
3.91511e-12
4.71992e-12
3.17221e-12
3.74615e-12
2.51995e-12
3.29423e-12
1.97989e-12
2.72425e-12
1.49917e-12
2.42218e-12
1.08182e-12
2.10299e-12
6.98189e-13
1.93074e-12
3.43125e-13
1.78561e-12
-6.19209e-16
1.73013e-12
-3.43996e-13
1.72647e-12
-6.99101e-13
1.77705e-12
-1.08189e-12
1.93503e-12
-1.49848e-12
2.10517e-12
-1.97976e-12
2.41567e-12
-2.51868e-12
2.71753e-12
-3.17052e-12
3.29234e-12
-3.91466e-12
3.74503e-12
-4.84872e-12
4.72472e-12
-5.91275e-12
5.37374e-12
-7.30691e-12
7.04366e-12
-8.88134e-12
7.95189e-12
-1.10415e-11
1.09484e-11
-1.34526e-11
1.21688e-11
-1.69568e-11
1.7804e-11
-2.08052e-11
1.94708e-11
-2.68197e-11
3.06397e-11
-3.33144e-11
3.29262e-11
-4.43983e-11
5.67807e-11
-5.61224e-11
5.96577e-11
-7.84972e-11
1.15664e-10
-1.00962e-10
1.15097e-10
-1.51413e-10
2.65411e-10
-1.92363e-10
2.12986e-10
-3.19392e-10
6.93646e-10
-3.44688e-10
2.33532e-10
-7.11572e-10
2.51249e-09
1.66591e-10
1.43319e-08
2.42455e-09
9.84515e-09
-2.8611e-08
-3.3621e-09
-2.52487e-08
-5.69842e-10
7.0529e-09
7.55877e-10
1.30061e-08
3.8126e-10
2.8871e-09
3.58723e-10
2.56067e-10
2.18098e-10
8.34267e-10
1.7165e-10
2.5943e-10
1.14972e-10
3.22089e-10
8.93565e-11
1.40715e-10
6.40481e-11
1.40973e-10
5.0649e-11
7.30575e-11
3.80657e-11
6.93601e-11
3.06327e-11
4.03633e-11
2.37895e-11
3.7483e-11
1.93832e-11
2.38738e-11
1.53892e-11
2.17826e-11
1.26292e-11
1.49315e-11
1.01632e-11
1.34178e-11
8.35968e-12
9.74223e-12
6.76857e-12
8.63689e-12
5.55003e-12
6.5848e-12
4.482e-12
5.79208e-12
3.63123e-12
4.5944e-12
2.88518e-12
4.03978e-12
2.26673e-12
3.33436e-12
1.71664e-12
2.97119e-12
1.23869e-12
2.58006e-12
7.99548e-13
2.3724e-12
3.92906e-13
2.19357e-12
-6.32097e-16
2.13098e-12
-3.93842e-13
2.12368e-12
-8.0063e-13
2.18486e-12
-1.23878e-12
2.37224e-12
-1.71581e-12
2.58371e-12
-2.26666e-12
2.96538e-12
-2.88377e-12
3.3452e-12
-3.62929e-12
4.04092e-12
-4.48153e-12
4.5927e-12
-5.54919e-12
5.79323e-12
-6.76763e-12
6.58582e-12
-8.36025e-12
8.6345e-12
-1.01632e-11
9.74977e-12
-1.26283e-11
1.34167e-11
-1.53894e-11
1.49281e-11
-1.93834e-11
2.17948e-11
-2.37895e-11
2.38736e-11
-3.06335e-11
3.74791e-11
-3.80657e-11
4.0366e-11
-5.06487e-11
6.93651e-11
-6.4049e-11
7.30604e-11
-8.93565e-11
1.40976e-10
-1.14972e-10
1.40718e-10
-1.71651e-10
3.22088e-10
-2.18098e-10
2.59428e-10
-3.58724e-10
8.3427e-10
-3.81261e-10
2.56071e-10
-7.55878e-10
2.8871e-09
5.69842e-10
1.30061e-08
3.3621e-09
7.05289e-09
-2.52489e-08
-4.32654e-09
-2.09221e-08
-9.88672e-10
3.71503e-09
7.94968e-10
1.12225e-08
4.18377e-10
3.26369e-09
3.99508e-10
2.7494e-10
2.45281e-10
9.88492e-10
1.93033e-10
3.11676e-10
1.29896e-10
3.85226e-10
1.00921e-10
1.69689e-10
7.25283e-11
1.69359e-10
5.73327e-11
8.82555e-11
4.31611e-11
8.35267e-11
3.47204e-11
4.88035e-11
2.69946e-11
4.52132e-11
2.1988e-11
2.88757e-11
1.74711e-11
2.63083e-11
1.43344e-11
1.80675e-11
1.1542e-11
1.62098e-11
9.49235e-12
1.18069e-11
7.6887e-12
1.044e-11
6.30383e-12
7.97215e-12
5.09224e-12
7.00214e-12
4.12531e-12
5.56128e-12
3.27843e-12
4.88548e-12
2.5756e-12
4.04612e-12
1.95085e-12
3.59943e-12
1.40766e-12
3.12514e-12
9.0873e-13
2.87236e-12
4.4654e-13
2.656e-12
-6.51936e-16
2.57645e-12
-4.47534e-13
2.56984e-12
-9.09988e-13
2.64967e-12
-1.40775e-12
2.86767e-12
-1.94989e-12
3.11828e-12
-2.57552e-12
3.5949e-12
-3.27692e-12
4.04384e-12
-4.12314e-12
4.88071e-12
-5.09176e-12
5.55949e-12
-6.30288e-12
7.00167e-12
-7.68758e-12
7.97473e-12
-9.49298e-12
1.04422e-11
-1.15419e-11
1.18014e-11
-1.43334e-11
1.62029e-11
-1.74714e-11
1.80697e-11
-2.19882e-11
2.63044e-11
-2.69945e-11
2.8882e-11
-3.47214e-11
4.52086e-11
-4.31611e-11
4.87939e-11
-5.73323e-11
8.35296e-11
-7.25293e-11
8.82548e-11
-1.00921e-10
1.69363e-10
-1.29896e-10
1.69686e-10
-1.93034e-10
3.85222e-10
-2.45281e-10
3.11682e-10
-3.99509e-10
9.88496e-10
-4.18379e-10
2.74939e-10
-7.94969e-10
3.26369e-09
9.88672e-10
1.12225e-08
4.32654e-09
3.71501e-09
-2.09224e-08
-5.30688e-09
-1.56153e-08
-1.42258e-09
-1.69279e-10
8.28759e-10
8.97116e-09
4.5604e-10
3.63641e-09
4.41696e-10
2.89281e-10
2.73934e-10
1.15625e-09
2.15588e-10
3.70031e-10
1.45769e-10
4.55045e-10
1.1322e-10
2.02241e-10
8.15889e-11
2.01006e-10
6.44714e-11
1.05368e-10
4.86192e-11
9.93823e-11
3.90972e-11
5.83231e-11
3.04331e-11
5.38729e-11
2.47814e-11
3.45305e-11
1.97068e-11
3.13821e-11
1.61652e-11
2.16164e-11
1.30237e-11
1.93521e-11
1.07093e-11
1.41163e-11
8.67798e-12
1.24738e-11
7.11418e-12
9.53725e-12
5.7486e-12
8.36677e-12
4.65669e-12
6.64842e-12
3.70154e-12
5.83735e-12
2.90788e-12
4.83916e-12
2.20289e-12
4.30132e-12
1.58947e-12
3.73584e-12
1.02624e-12
3.43733e-12
5.04276e-13
3.17194e-12
-6.66099e-16
3.08037e-12
-5.05311e-13
3.07053e-12
-1.02769e-12
3.16651e-12
-1.58957e-12
3.43203e-12
-2.20178e-12
3.73401e-12
-2.90783e-12
4.29922e-12
-3.69992e-12
4.83022e-12
-4.65428e-12
5.84062e-12
-5.74809e-12
6.66046e-12
-7.1131e-12
8.36658e-12
-8.67669e-12
9.53394e-12
-1.071e-11
1.24684e-11
-1.30236e-11
1.41118e-11
-1.61639e-11
1.93462e-11
-1.97072e-11
2.16099e-11
-2.47817e-11
3.13891e-11
-3.04329e-11
3.45371e-11
-3.90983e-11
5.38717e-11
-4.86192e-11
5.83172e-11
-6.44709e-11
9.93861e-11
-8.159e-11
1.05374e-10
-1.1322e-10
2.00994e-10
-1.45768e-10
2.02235e-10
-2.15589e-10
4.55053e-10
-2.73934e-10
3.70026e-10
-4.41697e-10
1.15626e-09
-4.56042e-10
2.89292e-10
-8.28761e-10
3.63641e-09
1.42258e-09
8.97115e-09
5.30688e-09
-1.69297e-10
-1.56155e-08
-6.29716e-09
-9.31809e-09
-1.86825e-09
-4.59818e-09
8.57283e-10
6.24563e-09
4.9428e-10
3.99941e-09
4.85225e-10
2.98331e-10
3.04076e-10
1.33742e-09
2.39339e-10
4.34754e-10
1.62623e-10
5.31771e-10
1.26283e-10
2.38579e-10
9.12568e-11
2.36012e-10
7.20874e-11
1.24542e-10
5.44592e-11
1.17018e-10
4.37789e-11
6.90044e-11
3.41182e-11
6.35398e-11
2.77744e-11
4.08701e-11
2.21054e-11
3.70477e-11
1.81289e-11
2.55895e-11
1.46145e-11
2.28641e-11
1.20157e-11
1.67165e-11
9.74072e-12
1.47413e-11
7.9846e-12
1.12903e-11
6.45397e-12
9.89434e-12
5.22772e-12
7.87758e-12
4.1564e-12
6.91719e-12
3.26506e-12
5.72727e-12
2.47391e-12
5.0912e-12
1.78498e-12
4.4258e-12
1.15261e-12
4.05957e-12
5.66378e-13
3.76554e-12
-6.83678e-16
3.64752e-12
-5.67442e-13
3.64212e-12
-1.15426e-12
3.76135e-12
-1.78508e-12
4.06651e-12
-2.47265e-12
4.42103e-12
-3.26504e-12
5.0906e-12
-4.15464e-12
5.72203e-12
-5.22506e-12
6.90868e-12
-6.45346e-12
7.88132e-12
-7.9834e-12
9.89796e-12
-9.73923e-12
1.12963e-11
-1.20164e-11
1.47547e-11
-1.46144e-11
1.67214e-11
-1.81275e-11
2.28604e-11
-2.21059e-11
2.55919e-11
-2.77747e-11
3.70554e-11
-3.4118e-11
4.0874e-11
-4.37802e-11
6.35313e-11
-5.44592e-11
6.90005e-11
-7.20867e-11
1.17015e-10
-9.1258e-11
1.24544e-10
-1.26283e-10
2.3602e-10
-1.62622e-10
2.38576e-10
-2.39339e-10
5.31762e-10
-3.04077e-10
4.3476e-10
-4.85226e-10
1.33741e-09
-4.94283e-10
2.98342e-10
-8.57284e-10
3.99941e-09
1.86825e-09
6.24562e-09
6.29716e-09
-4.5982e-09
-9.31831e-09
-7.29076e-09
-2.02734e-09
-2.32125e-09
-9.5677e-09
8.8069e-10
3.04369e-09
5.3316e-10
4.34694e-09
5.30023e-10
3.01476e-10
3.3572e-10
1.5317e-09
2.64303e-10
5.0618e-10
1.8049e-10
6.15579e-10
1.40137e-10
2.78934e-10
1.01559e-10
2.74598e-10
8.02033e-11
1.45898e-10
6.07007e-11
1.36508e-10
4.87816e-11
8.09247e-11
3.80637e-11
7.42551e-11
3.09782e-11
4.79549e-11
2.46763e-11
4.33524e-11
2.02333e-11
3.00306e-11
1.63211e-11
2.6783e-11
1.34169e-11
1.96189e-11
1.08814e-11
1.72856e-11
8.91882e-12
1.32512e-11
7.21143e-12
1.15998e-11
5.8409e-12
9.25274e-12
4.64499e-12
8.11098e-12
3.64875e-12
6.72529e-12
2.76513e-12
5.98242e-12
1.99502e-12
5.197e-12
1.28846e-12
4.78044e-12
6.33107e-13
4.41695e-12
-6.86388e-16
4.2736e-12
-6.34209e-13
4.27994e-12
-1.29027e-12
4.41023e-12
-1.99516e-12
4.76654e-12
-2.76371e-12
5.19014e-12
-3.64875e-12
5.98093e-12
-4.64312e-12
6.71692e-12
-5.838e-12
8.10701e-12
-7.21087e-12
9.25554e-12
-8.91747e-12
1.16012e-11
-1.08797e-11
1.32551e-11
-1.34177e-11
1.7288e-11
-1.63209e-11
1.96061e-11
-2.02318e-11
2.67699e-11
-2.4677e-11
3.00358e-11
-3.09785e-11
4.33532e-11
-3.80634e-11
4.79658e-11
-4.8783e-11
7.42537e-11
-6.07007e-11
8.09197e-11
-8.02025e-11
1.36513e-10
-1.01561e-10
1.45904e-10
-1.40137e-10
2.74601e-10
-1.80489e-10
2.78929e-10
-2.64304e-10
6.15579e-10
-3.3572e-10
5.06171e-10
-5.30023e-10
1.53172e-09
-5.33163e-10
3.0148e-10
-8.80691e-10
4.34694e-09
2.32125e-09
3.04367e-09
7.29076e-09
-9.56772e-09
-2.02756e-09
-8.2764e-09
6.24906e-09
-2.7753e-09
-1.50688e-08
8.99277e-10
-6.30881e-10
5.72783e-10
4.67344e-09
5.76006e-10
2.98256e-10
3.68871e-10
1.73885e-09
2.90497e-10
5.84549e-10
1.99401e-10
7.06672e-10
1.54812e-10
3.23524e-10
1.12523e-10
3.1689e-10
8.88421e-11
1.69577e-10
6.73639e-11
1.57993e-10
5.4122e-11
9.41675e-11
4.22838e-11
8.60933e-11
3.44045e-11
5.58447e-11
2.74296e-11
5.03299e-11
2.24868e-11
3.49819e-11
1.81502e-11
3.11167e-11
1.49187e-11
2.28575e-11
1.21048e-11
2.00915e-11
9.92073e-12
1.54365e-11
8.0242e-12
1.35005e-11
6.49884e-12
1.07726e-11
5.16944e-12
9.43787e-12
4.0606e-12
7.83554e-12
3.07779e-12
6.95371e-12
2.22057e-12
6.0563e-12
1.43431e-12
5.55513e-12
7.04769e-13
5.14388e-12
-6.50654e-16
4.99098e-12
-7.05929e-13
4.97137e-12
-1.43631e-12
5.14092e-12
-2.22072e-12
5.55721e-12
-3.07623e-12
6.04781e-12
-4.06062e-12
6.96477e-12
-5.16745e-12
7.82576e-12
-6.49571e-12
9.43304e-12
-8.02359e-12
1.07847e-11
-9.91923e-12
1.3502e-11
-1.21029e-11
1.54404e-11
-1.49196e-11
2.01024e-11
-1.81499e-11
2.28548e-11
-2.24851e-11
3.11086e-11
-2.74303e-11
3.49755e-11
-3.44049e-11
5.03386e-11
-4.22834e-11
5.58358e-11
-5.41235e-11
8.6098e-11
-6.73639e-11
9.41525e-11
-8.88411e-11
1.57988e-10
-1.12525e-10
1.69585e-10
-1.54811e-10
3.16887e-10
-1.994e-10
3.23514e-10
-2.90498e-10
7.06675e-10
-3.68871e-10
5.84555e-10
-5.76006e-10
1.73885e-09
-5.72786e-10
2.98264e-10
-8.99278e-10
4.67344e-09
2.7753e-09
-6.30914e-10
8.2764e-09
-1.50688e-08
6.24884e-09
-9.23688e-09
1.54859e-08
-3.22132e-09
-2.10843e-08
9.135e-10
-4.76572e-09
6.13294e-10
4.97364e-09
6.23078e-10
2.88466e-10
4.03526e-10
1.9584e-09
3.1793e-10
6.70145e-10
2.19382e-10
8.05221e-10
1.70332e-10
3.72574e-10
1.24176e-10
3.63052e-10
9.80269e-11
1.95728e-10
7.44693e-11
1.81551e-10
5.98172e-11
1.08818e-10
4.6793e-11
9.91197e-11
3.80655e-11
6.45613e-11
3.03754e-11
5.80105e-11
2.48978e-11
4.04508e-11
2.0109e-11
3.59009e-11
1.6527e-11
2.64219e-11
1.34158e-11
2.32085e-11
1.09944e-11
1.7857e-11
8.89564e-12
1.56086e-11
7.20431e-12
1.24641e-11
5.732e-12
1.09106e-11
4.50237e-12
9.06727e-12
3.41331e-12
8.05627e-12
2.46255e-12
7.00774e-12
1.59086e-12
6.43015e-12
7.81722e-13
5.96033e-12
-6.85419e-16
5.7677e-12
-7.82866e-13
5.76346e-12
-1.59302e-12
5.96098e-12
-2.46274e-12
6.42334e-12
-3.41157e-12
6.99456e-12
-4.50241e-12
8.04562e-12
-5.72989e-12
9.05221e-12
-7.20095e-12
1.09043e-11
-8.89499e-12
1.24807e-11
-1.09928e-11
1.55952e-11
-1.34138e-11
1.78601e-11
-1.65279e-11
2.32222e-11
-2.01086e-11
2.64289e-11
-2.4896e-11
3.5888e-11
-3.03762e-11
4.04575e-11
-3.8066e-11
5.80153e-11
-4.67925e-11
6.45666e-11
-5.98188e-11
9.91171e-11
-7.44692e-11
1.08809e-10
-9.80258e-11
1.8155e-10
-1.24177e-10
1.95737e-10
-1.70332e-10
3.63033e-10
-2.19381e-10
3.72568e-10
-3.17931e-10
8.05228e-10
-4.03526e-10
6.70148e-10
-6.23078e-10
1.9584e-09
-6.13297e-10
2.88482e-10
-9.13502e-10
4.97364e-09
3.22133e-09
-4.76573e-09
9.23688e-09
-2.10844e-08
1.54857e-08
-1.01478e-08
2.56337e-08
-3.64663e-09
-2.75855e-08
9.23997e-10
-9.33634e-09
6.54886e-10
5.24276e-09
6.71133e-10
2.7222e-10
4.39675e-10
2.18984e-09
3.46605e-10
7.63219e-10
2.40458e-10
9.11363e-10
1.86725e-10
4.263e-10
1.36544e-10
4.13215e-10
1.07781e-10
2.24482e-10
8.20377e-11
2.07293e-10
6.58848e-11
1.24968e-10
5.16066e-11
1.13397e-10
4.19738e-11
7.41941e-11
3.35244e-11
6.6466e-11
2.74751e-11
4.6503e-11
2.2205e-11
4.11781e-11
1.8248e-11
3.03965e-11
1.48197e-11
2.66333e-11
1.21443e-11
2.05346e-11
9.8293e-12
1.79058e-11
7.96021e-12
1.43425e-11
6.33502e-12
1.25392e-11
4.97594e-12
1.04201e-11
3.77304e-12
9.25325e-12
2.72204e-12
8.05199e-12
1.75878e-12
7.39283e-12
8.64224e-13
6.85099e-12
-6.74589e-16
6.6317e-12
-8.65371e-13
6.62997e-12
-1.7611e-12
6.84764e-12
-2.72225e-12
7.38866e-12
-3.77118e-12
8.04446e-12
-4.97596e-12
9.25843e-12
-6.33278e-12
1.04047e-11
-7.95662e-12
1.25253e-11
-9.82865e-12
1.43518e-11
-1.21424e-11
1.79177e-11
-1.48175e-11
2.0533e-11
-1.82489e-11
2.66445e-11
-2.22046e-11
3.0383e-11
-2.74732e-11
4.1159e-11
-3.35254e-11
4.6512e-11
-4.19743e-11
6.64715e-11
-5.1606e-11
7.42031e-11
-6.58865e-11
1.13402e-10
-8.20377e-11
1.24957e-10
-1.0778e-10
2.07288e-10
-1.36545e-10
2.24508e-10
-1.86725e-10
4.1322e-10
-2.40457e-10
4.26293e-10
-3.46606e-10
9.11378e-10
-4.39676e-10
7.63211e-10
-6.71133e-10
2.18986e-09
-6.54889e-10
2.72238e-10
-9.23999e-10
5.24275e-09
3.64663e-09
-9.33636e-09
1.01478e-08
-2.75855e-08
2.56335e-08
-1.09758e-08
3.66095e-08
-4.0344e-09
-3.45269e-08
9.31592e-10
-1.43023e-08
6.97799e-10
5.47655e-09
7.20051e-10
2.49971e-10
4.77298e-10
2.43261e-09
3.76518e-10
8.63999e-10
2.62651e-10
1.02524e-09
2.04014e-10
4.84951e-10
1.49653e-10
4.67593e-10
1.18128e-10
2.56021e-10
9.00904e-11
2.35327e-10
7.23427e-11
1.42727e-10
5.674e-11
1.28994e-10
4.61424e-11
8.47994e-11
3.68878e-11
7.57244e-11
3.02282e-11
5.31646e-11
2.44462e-11
4.69596e-11
2.00882e-11
3.47421e-11
1.6322e-11
3.04038e-11
1.33747e-11
2.34867e-11
1.0829e-11
2.0461e-11
8.76958e-12
1.6391e-11
6.98093e-12
1.43288e-11
5.48325e-12
1.19159e-11
4.15851e-12
1.05738e-11
3.00011e-12
9.2163e-12
1.93874e-12
8.46172e-12
9.52673e-13
7.83776e-12
-6.54103e-16
7.58286e-12
-9.5384e-13
7.57729e-12
-1.9412e-12
7.83411e-12
-3.00035e-12
8.44066e-12
-4.15652e-12
9.19846e-12
-5.48327e-12
1.05868e-11
-6.97859e-12
1.1914e-11
-8.76579e-12
1.43164e-11
-1.08283e-11
1.64134e-11
-1.33727e-11
2.04559e-11
-1.63195e-11
2.34784e-11
-2.00892e-11
3.0421e-11
-2.44456e-11
3.47403e-11
-3.02261e-11
4.69454e-11
-3.68889e-11
5.31772e-11
-4.6143e-11
7.57205e-11
-5.67394e-11
8.47955e-11
-7.23444e-11
1.29003e-10
-9.00903e-11
1.42701e-10
-1.18126e-10
2.35328e-10
-1.49655e-10
2.56033e-10
-2.04014e-10
4.67581e-10
-2.62649e-10
4.84932e-10
-3.7652e-10
1.02525e-09
-4.77298e-10
8.63994e-10
-7.20051e-10
2.43261e-09
-6.97802e-10
2.4999e-10
-9.31594e-10
5.47654e-09
4.0344e-09
-1.43024e-08
1.09758e-08
-3.45269e-08
3.66093e-08
-1.16778e-08
4.82873e-08
-4.36335e-09
-4.18413e-08
9.373e-10
-1.9603e-08
7.42315e-10
5.67154e-09
7.69701e-10
2.22579e-10
5.16362e-10
2.68594e-09
4.0766e-10
9.72697e-10
2.85977e-10
1.14692e-09
2.22219e-10
5.48689e-10