/*--------------------------------*- C++ -*----------------------------------*\
| =========                 |                                                 |
| \\      /  F ield         | foam-extend: Open Source CFD                    |
|  \\    /   O peration     | Version:     4.0                                |
|   \\  /    A nd           | Web:         http://www.foam-extend.org         |
|    \\/     M anipulation  |                                                 |
\*---------------------------------------------------------------------------*/
FoamFile
{
    version     2.0;
    format      ascii;
    class       volVectorField;
    location    "16";
    object      U;
}
// * * * * * * * * * * * * * * * * * * * * * * * * * * * * * * * * * * * * * //

dimensions      [0 1 -1 0 0 0 0];

internalField   nonuniform List<vector> 
6960
(
(-3.12188e-06 -98.7754 0)
(-2.29546e-06 -98.7718 0)
(7.38086e-07 -98.7718 0)
(1.08573e-07 -98.7718 0)
(1.77403e-07 -98.7718 0)
(5.41749e-08 -98.7718 0)
(7.14268e-08 -98.7718 0)
(3.02299e-08 -98.7718 0)
(3.36914e-08 -98.7718 0)
(1.71568e-08 -98.7718 0)
(1.78661e-08 -98.7718 0)
(1.03567e-08 -98.7718 0)
(1.0282e-08 -98.7718 0)
(6.57458e-09 -98.7718 0)
(6.26443e-09 -98.7718 0)
(4.31452e-09 -98.7718 0)
(3.969e-09 -98.7718 0)
(2.88444e-09 -98.7718 0)
(2.57612e-09 -98.7718 0)
(1.94162e-09 -98.7718 0)
(1.69046e-09 -98.7718 0)
(1.30006e-09 -98.7718 0)
(1.10271e-09 -98.7718 0)
(8.49627e-10 -98.7718 0)
(6.95929e-10 -98.7718 0)
(5.20925e-10 -98.7718 0)
(3.97943e-10 -98.7718 0)
(2.66165e-10 -98.7718 0)
(1.61501e-10 -98.7718 0)
(4.86465e-11 -98.7718 0)
(-4.90577e-11 -98.7718 0)
(-1.61758e-10 -98.7718 0)
(-2.67074e-10 -98.7718 0)
(-3.97063e-10 -98.7718 0)
(-5.20859e-10 -98.7718 0)
(-6.9633e-10 -98.7718 0)
(-8.48158e-10 -98.7718 0)
(-1.10233e-09 -98.7718 0)
(-1.30061e-09 -98.7718 0)
(-1.68955e-09 -98.7718 0)
(-1.94166e-09 -98.7718 0)
(-2.577e-09 -98.7718 0)
(-2.88373e-09 -98.7718 0)
(-3.96873e-09 -98.7718 0)
(-4.3151e-09 -98.7718 0)
(-6.26383e-09 -98.7718 0)
(-6.57488e-09 -98.7718 0)
(-1.02828e-08 -98.7718 0)
(-1.03558e-08 -98.7718 0)
(-1.78665e-08 -98.7718 0)
(-1.71577e-08 -98.7718 0)
(-3.36905e-08 -98.7718 0)
(-3.02299e-08 -98.7718 0)
(-7.14275e-08 -98.7718 0)
(-5.41743e-08 -98.7718 0)
(-1.77403e-07 -98.7718 0)
(-1.08574e-07 -98.7718 0)
(-7.38086e-07 -98.7718 0)
(2.29546e-06 -98.7718 0)
(3.12188e-06 -98.7754 0)
(9.91531e-05 -2.72668 0)
(0.000101557 -2.72292 0)
(2.14586e-06 -2.72292 0)
(3.19429e-07 -2.72292 0)
(5.25136e-07 -2.72292 0)
(1.64957e-07 -2.72292 0)
(2.13156e-07 -2.72292 0)
(9.19918e-08 -2.72292 0)
(1.01012e-07 -2.72292 0)
(5.21817e-08 -2.72292 0)
(5.37113e-08 -2.72292 0)
(3.14799e-08 -2.72292 0)
(3.09679e-08 -2.72292 0)
(1.99663e-08 -2.72292 0)
(1.88989e-08 -2.72292 0)
(1.30911e-08 -2.72292 0)
(1.19858e-08 -2.72292 0)
(8.75132e-09 -2.72292 0)
(7.78378e-09 -2.72292 0)
(5.88696e-09 -2.72292 0)
(5.11502e-09 -2.72292 0)
(3.93828e-09 -2.72292 0)
(3.33654e-09 -2.72292 0)
(2.57743e-09 -2.72292 0)
(2.10394e-09 -2.72292 0)
(1.5787e-09 -2.72292 0)
(1.2071e-09 -2.72292 0)
(8.04312e-10 -2.72292 0)
(4.90289e-10 -2.72292 0)
(1.56058e-10 -2.72292 0)
(-1.67475e-10 -2.72292 0)
(-4.88127e-10 -2.72292 0)
(-7.85033e-10 -2.72292 0)
(-1.22647e-09 -2.72292 0)
(-1.5785e-09 -2.72292 0)
(-2.08318e-09 -2.72292 0)
(-2.59507e-09 -2.72292 0)
(-3.33543e-09 -2.72292 0)
(-3.91792e-09 -2.72292 0)
(-5.13424e-09 -2.72292 0)
(-5.88705e-09 -2.72292 0)
(-7.76443e-09 -2.72292 0)
(-8.77113e-09 -2.72292 0)
(-1.1985e-08 -2.72292 0)
(-1.30709e-08 -2.72292 0)
(-1.89191e-08 -2.72292 0)
(-1.99672e-08 -2.72292 0)
(-3.09483e-08 -2.72292 0)
(-3.14994e-08 -2.72292 0)
(-5.37122e-08 -2.72292 0)
(-5.21624e-08 -2.72292 0)
(-1.01032e-07 -2.72292 0)
(-9.19917e-08 -2.72292 0)
(-2.13136e-07 -2.72292 0)
(-1.64977e-07 -2.72292 0)
(-5.25138e-07 -2.72292 0)
(-3.19411e-07 -2.72292 0)
(-2.14588e-06 -2.72292 0)
(-0.000101557 -2.72292 0)
(-9.91531e-05 -2.72668 0)
(9.37371e-05 17.5369 0)
(9.75382e-05 17.5357 0)
(3.37152e-06 17.5357 0)
(5.20487e-07 17.5357 0)
(8.70299e-07 17.5357 0)
(2.79637e-07 17.5357 0)
(3.55754e-07 17.5357 0)
(1.55936e-07 17.5357 0)
(1.69237e-07 17.5357 0)
(8.84357e-08 17.5357 0)
(9.01946e-08 17.5357 0)
(5.33215e-08 17.5357 0)
(5.20866e-08 17.5357 0)
(3.38009e-08 17.5357 0)
(3.18223e-08 17.5357 0)
(2.21517e-08 17.5357 0)
(2.02013e-08 17.5357 0)
(1.47996e-08 17.5357 0)
(1.31299e-08 17.5357 0)
(9.95382e-09 17.5357 0)
(8.62981e-09 17.5357 0)
(6.6593e-09 17.5357 0)
(5.63242e-09 17.5357 0)
(4.35495e-09 17.5357 0)
(3.5542e-09 17.5357 0)
(2.66835e-09 17.5357 0)
(2.03683e-09 17.5357 0)
(1.36128e-09 17.5357 0)
(8.26879e-10 17.5357 0)
(2.5858e-10 17.5357 0)
(-2.70769e-10 17.5357 0)
(-8.25218e-10 17.5357 0)
(-1.34359e-09 17.5357 0)
(-2.05468e-09 17.5357 0)
(-2.66802e-09 17.5357 0)
(-3.53405e-09 17.5357 0)
(-4.36997e-09 17.5357 0)
(-5.63059e-09 17.5357 0)
(-6.63978e-09 17.5357 0)
(-8.64735e-09 17.5357 0)
(-9.95393e-09 17.5357 0)
(-1.31121e-08 17.5357 0)
(-1.48181e-08 17.5357 0)
(-2.02e-08 17.5357 0)
(-2.21326e-08 17.5357 0)
(-3.18415e-08 17.5357 0)
(-3.38022e-08 17.5357 0)
(-5.20684e-08 17.5357 0)
(-5.33395e-08 17.5357 0)
(-9.01961e-08 17.5357 0)
(-8.84179e-08 17.5357 0)
(-1.69255e-07 17.5357 0)
(-1.55936e-07 17.5357 0)
(-3.55735e-07 17.5357 0)
(-2.79656e-07 17.5357 0)
(-8.70302e-07 17.5357 0)
(-5.2047e-07 17.5357 0)
(-3.37155e-06 17.5357 0)
(-9.75382e-05 17.5357 0)
(-9.37371e-05 17.5369 0)
(4.34322e-05 6.452 0)
(4.84848e-05 6.45011 0)
(4.44126e-06 6.45011 0)
(7.02366e-07 6.45011 0)
(1.21218e-06 6.45011 0)
(3.98087e-07 6.45011 0)
(4.99114e-07 6.45011 0)
(2.22056e-07 6.45011 0)
(2.38353e-07 6.45011 0)
(1.25927e-07 6.45011 0)
(1.2732e-07 6.45011 0)
(7.58935e-08 6.45011 0)
(7.36428e-08 6.45011 0)
(4.80865e-08 6.45011 0)
(4.50415e-08 6.45011 0)
(3.15011e-08 6.45011 0)
(2.86198e-08 6.45011 0)
(2.10348e-08 6.45011 0)
(1.86163e-08 6.45011 0)
(1.41451e-08 6.45011 0)
(1.22385e-08 6.45011 0)
(9.4637e-09 6.45011 0)
(7.99191e-09 6.45011 0)
(6.18492e-09 6.45011 0)
(5.04633e-09 6.45011 0)
(3.79072e-09 6.45011 0)
(2.88915e-09 6.45011 0)
(1.93609e-09 6.45011 0)
(1.17236e-09 6.45011 0)
(3.61105e-10 6.45011 0)
(-3.69763e-10 6.45011 0)
(-1.17242e-09 6.45011 0)
(-1.92903e-09 6.45011 0)
(-2.89643e-09 6.45011 0)
(-3.79025e-09 6.45011 0)
(-5.03586e-09 6.45011 0)
(-6.18831e-09 6.45011 0)
(-7.98937e-09 6.45011 0)
(-9.45403e-09 6.45011 0)
(-1.22453e-08 6.45011 0)
(-1.41452e-08 6.45011 0)
(-1.8609e-08 6.45011 0)
(-2.10429e-08 6.45011 0)
(-2.8618e-08 6.45011 0)
(-3.14921e-08 6.45011 0)
(-4.50506e-08 6.45011 0)
(-4.80883e-08 6.45011 0)
(-7.3635e-08 6.45011 0)
(-7.59011e-08 6.45011 0)
(-1.27322e-07 6.45011 0)
(-1.2592e-07 6.45011 0)
(-2.38361e-07 6.45011 0)
(-2.22056e-07 6.45011 0)
(-4.99105e-07 6.45011 0)
(-3.98096e-07 6.45011 0)
(-1.21218e-06 6.45011 0)
(-7.0236e-07 6.45011 0)
(-4.44127e-06 6.45011 0)
(-4.84848e-05 6.45011 0)
(-4.34322e-05 6.452 0)
(1.80957e-05 0.550487 0)
(2.43154e-05 0.54995 0)
(5.417e-06 0.549949 0)
(8.65175e-07 0.549945 0)
(1.55008e-06 0.549945 0)
(5.20161e-07 0.549945 0)
(6.4312e-07 0.549945 0)
(2.90337e-07 0.549945 0)
(3.08344e-07 0.549945 0)
(1.64663e-07 0.549945 0)
(1.65089e-07 0.549945 0)
(9.92074e-08 0.549945 0)
(9.5641e-08 0.549945 0)
(6.2831e-08 0.549945 0)
(5.85637e-08 0.549945 0)
(4.11433e-08 0.549945 0)
(3.72456e-08 0.549945 0)
(2.74627e-08 0.549945 0)
(2.42445e-08 0.549945 0)
(1.84637e-08 0.549945 0)
(1.59449e-08 0.549945 0)
(1.23519e-08 0.549945 0)
(1.04166e-08 0.549945 0)
(8.07023e-09 0.549945 0)
(6.57978e-09 0.549945 0)
(4.94664e-09 0.549945 0)
(3.76623e-09 0.549945 0)
(2.5276e-09 0.549945 0)
(1.52794e-09 0.549945 0)
(4.6906e-10 0.549945 0)
(-4.76476e-10 0.549945 0)
(-1.52904e-09 0.549945 0)
(-2.5261e-09 0.549945 0)
(-3.76803e-09 0.549945 0)
(-4.94603e-09 0.549945 0)
(-6.57395e-09 0.549945 0)
(-8.06715e-09 0.549945 0)
(-1.04134e-08 0.549945 0)
(-1.2347e-08 0.549945 0)
(-1.5946e-08 0.549945 0)
(-1.84639e-08 0.549945 0)
(-2.42427e-08 0.549945 0)
(-2.74655e-08 0.549945 0)
(-3.72434e-08 0.549945 0)
(-4.11395e-08 0.549945 0)
(-5.85677e-08 0.549945 0)
(-6.28332e-08 0.549945 0)
(-9.56386e-08 0.549945 0)
(-9.92097e-08 0.549945 0)
(-1.65091e-07 0.549945 0)
(-1.64662e-07 0.549945 0)
(-3.08346e-07 0.549945 0)
(-2.90337e-07 0.549945 0)
(-6.43116e-07 0.549945 0)
(-5.20165e-07 0.549945 0)
(-1.55008e-06 0.549945 0)
(-8.65176e-07 0.549945 0)
(-5.41701e-06 0.549949 0)
(-2.43154e-05 0.54995 0)
(-1.80957e-05 0.550487 0)
(1.17902e-05 0.0762294 0)
(1.90888e-05 0.0763002 0)
(6.30126e-06 0.0762999 0)
(1.01449e-06 0.0762959 0)
(1.88329e-06 0.0762957 0)
(6.45696e-07 0.0762957 0)
(7.87648e-07 0.0762957 0)
(3.60755e-07 0.0762957 0)
(3.79188e-07 0.0762957 0)
(2.04648e-07 0.0762957 0)
(2.03503e-07 0.0762957 0)
(1.23272e-07 0.0762957 0)
(1.18087e-07 0.0762957 0)
(7.8042e-08 0.0762957 0)
(7.23939e-08 0.0762957 0)
(5.10844e-08 0.0762957 0)
(4.6083e-08 0.0762957 0)
(3.40874e-08 0.0762957 0)
(3.0018e-08 0.0762957 0)
(2.29127e-08 0.0762957 0)
(1.97513e-08 0.0762957 0)
(1.53261e-08 0.0762957 0)
(1.29081e-08 0.0762957 0)
(1.00121e-08 0.0762957 0)
(8.15577e-09 0.0762957 0)
(6.13698e-09 0.0762957 0)
(4.66859e-09 0.0762957 0)
(3.13641e-09 0.0762957 0)
(1.89378e-09 0.0762957 0)
(5.82082e-10 0.0762957 0)
(-5.89976e-10 0.0762957 0)
(-1.89542e-09 0.0762957 0)
(-3.1366e-09 0.0762957 0)
(-4.66878e-09 0.0762957 0)
(-6.13622e-09 0.0762957 0)
(-8.1507e-09 0.0762957 0)
(-1.00065e-08 0.0762957 0)
(-1.29042e-08 0.0762957 0)
(-1.53221e-08 0.0762957 0)
(-1.97505e-08 0.0762957 0)
(-2.29128e-08 0.0762957 0)
(-3.00177e-08 0.0762957 0)
(-3.40886e-08 0.0762957 0)
(-4.60805e-08 0.0762957 0)
(-5.10819e-08 0.0762957 0)
(-7.23968e-08 0.0762957 0)
(-7.80446e-08 0.0762957 0)
(-1.18086e-07 0.0762957 0)
(-1.23272e-07 0.0762957 0)
(-2.03506e-07 0.0762957 0)
(-2.04648e-07 0.0762957 0)
(-3.79189e-07 0.0762957 0)
(-3.60755e-07 0.0762957 0)
(-7.87646e-07 0.0762957 0)
(-6.45699e-07 0.0762957 0)
(-1.88329e-06 0.0762957 0)
(-1.01449e-06 0.0762959 0)
(-6.30126e-06 0.0762999 0)
(-1.90888e-05 0.0763002 0)
(-1.17902e-05 0.0762294 0)
(6.56974e-06 0.387696 0)
(1.48388e-05 0.387722 0)
(7.07709e-06 0.387722 0)
(1.15299e-06 0.387718 0)
(2.21105e-06 0.387717 0)
(7.74505e-07 0.387717 0)
(9.32563e-07 0.387717 0)
(4.33279e-07 0.387717 0)
(4.50862e-07 0.387717 0)
(2.45883e-07 0.387717 0)
(2.42564e-07 0.387717 0)
(1.48093e-07 0.387717 0)
(1.40986e-07 0.387717 0)
(9.37265e-08 0.387717 0)
(8.6537e-08 0.387717 0)
(6.13301e-08 0.387717 0)
(5.51363e-08 0.387717 0)
(4.09124e-08 0.387717 0)
(3.59403e-08 0.387717 0)
(2.74948e-08 0.387717 0)
(2.36596e-08 0.387717 0)
(1.83888e-08 0.387717 0)
(1.54681e-08 0.387717 0)
(1.20116e-08 0.387717 0)
(9.7758e-09 0.387717 0)
(7.36262e-09 0.387717 0)
(5.59646e-09 0.387717 0)
(3.76337e-09 0.387717 0)
(2.26991e-09 0.387717 0)
(6.98877e-10 0.387717 0)
(-7.07293e-10 0.387717 0)
(-2.27205e-09 0.387717 0)
(-3.76501e-09 0.387717 0)
(-5.59529e-09 0.387717 0)
(-7.36169e-09 0.387717 0)
(-9.77126e-09 0.387717 0)
(-1.20037e-08 0.387717 0)
(-1.54635e-08 0.387717 0)
(-1.83853e-08 0.387717 0)
(-2.36571e-08 0.387717 0)
(-2.74949e-08 0.387717 0)
(-3.59412e-08 0.387717 0)
(-4.09123e-08 0.387717 0)
(-5.51334e-08 0.387717 0)
(-6.13287e-08 0.387717 0)
(-8.6539e-08 0.387717 0)
(-9.37294e-08 0.387717 0)
(-1.40986e-07 0.387717 0)
(-1.48093e-07 0.387717 0)
(-2.42567e-07 0.387717 0)
(-2.45885e-07 0.387717 0)
(-4.50861e-07 0.387717 0)
(-4.33279e-07 0.387717 0)
(-9.32562e-07 0.387717 0)
(-7.74507e-07 0.387717 0)
(-2.21106e-06 0.387717 0)
(-1.15299e-06 0.387718 0)
(-7.07709e-06 0.387722 0)
(-1.48388e-05 0.387722 0)
(-6.56973e-06 0.387696 0)
(-1.13482e-06 0.361383 0)
(7.99253e-06 0.361323 0)
(7.74117e-06 0.361323 0)
(1.28024e-06 0.361318 0)
(2.53261e-06 0.361318 0)
(9.06381e-07 0.361318 0)
(1.07772e-06 0.361318 0)
(5.07868e-07 0.361318 0)
(5.23336e-07 0.361318 0)
(2.88368e-07 0.361318 0)
(2.8227e-07 0.361318 0)
(1.73678e-07 0.361318 0)
(1.64342e-07 0.361318 0)
(1.09891e-07 0.361318 0)
(1.00998e-07 0.361318 0)
(7.18858e-08 0.361318 0)
(6.44097e-08 0.361318 0)
(4.79417e-08 0.361318 0)
(4.20147e-08 0.361318 0)
(3.22131e-08 0.361318 0)
(2.76721e-08 0.361318 0)
(2.15421e-08 0.361318 0)
(1.80982e-08 0.361318 0)
(1.407e-08 0.361318 0)
(1.14411e-08 0.361318 0)
(8.62445e-09 0.361318 0)
(6.55041e-09 0.361318 0)
(4.40902e-09 0.361318 0)
(2.65656e-09 0.361318 0)
(8.19272e-10 0.361318 0)
(-8.27909e-10 0.361318 0)
(-2.65925e-09 0.361318 0)
(-4.41259e-09 0.361318 0)
(-6.54741e-09 0.361318 0)
(-8.62334e-09 0.361318 0)
(-1.14375e-08 0.361318 0)
(-1.40594e-08 0.361318 0)
(-1.8093e-08 0.361318 0)
(-2.15397e-08 0.361318 0)
(-2.76674e-08 0.361318 0)
(-3.22131e-08 0.361318 0)
(-4.20174e-08 0.361318 0)
(-4.79398e-08 0.361318 0)
(-6.44065e-08 0.361318 0)
(-7.18861e-08 0.361318 0)
(-1.00999e-07 0.361318 0)
(-1.09894e-07 0.361318 0)
(-1.64344e-07 0.361318 0)
(-1.73676e-07 0.361318 0)
(-2.82273e-07 0.361318 0)
(-2.88371e-07 0.361318 0)
(-5.23333e-07 0.361318 0)
(-5.07868e-07 0.361318 0)
(-1.07772e-06 0.361318 0)
(-9.06381e-07 0.361318 0)
(-2.53262e-06 0.361318 0)
(-1.28024e-06 0.361318 0)
(-7.74117e-06 0.361323 0)
(-7.99252e-06 0.361323 0)
(1.13483e-06 0.361383 0)
(-9.13386e-06 0.235583 0)
(7.44576e-07 0.235526 0)
(8.29856e-06 0.235527 0)
(1.39568e-06 0.235522 0)
(2.84716e-06 0.235522 0)
(1.04109e-06 0.235522 0)
(1.22294e-06 0.235522 0)
(5.84471e-07 0.235522 0)
(5.96576e-07 0.235522 0)
(3.32095e-07 0.235522 0)
(3.22617e-07 0.235522 0)
(2.0003e-07 0.235522 0)
(1.88161e-07 0.235522 0)
(1.26541e-07 0.235522 0)
(1.15782e-07 0.235522 0)
(8.27566e-08 0.235522 0)
(7.39073e-08 0.235522 0)
(5.51792e-08 0.235522 0)
(4.82446e-08 0.235522 0)
(3.70705e-08 0.235522 0)
(3.17912e-08 0.235522 0)
(2.4788e-08 0.235522 0)
(2.08002e-08 0.235522 0)
(1.61888e-08 0.235522 0)
(1.31526e-08 0.235522 0)
(9.92337e-09 0.235522 0)
(7.53117e-09 0.235522 0)
(5.07381e-09 0.235522 0)
(3.05404e-09 0.235522 0)
(9.43527e-10 0.235522 0)
(-9.52289e-10 0.235522 0)
(-3.05727e-09 0.235522 0)
(-5.07935e-09 0.235522 0)
(-7.52632e-09 0.235522 0)
(-9.92207e-09 0.235522 0)
(-1.31502e-08 0.235522 0)
(-1.61756e-08 0.235522 0)
(-2.07944e-08 0.235522 0)
(-2.47866e-08 0.235522 0)
(-3.17843e-08 0.235522 0)
(-3.70704e-08 0.235522 0)
(-4.82489e-08 0.235522 0)
(-5.51755e-08 0.235522 0)
(-7.39039e-08 0.235522 0)
(-8.27586e-08 0.235522 0)
(-1.15781e-07 0.235522 0)
(-1.26545e-07 0.235522 0)
(-1.88165e-07 0.235522 0)
(-2.00026e-07 0.235522 0)
(-3.22621e-07 0.235522 0)
(-3.321e-07 0.235522 0)
(-5.96572e-07 0.235522 0)
(-5.8447e-07 0.235522 0)
(-1.22295e-06 0.235522 0)
(-1.04109e-06 0.235522 0)
(-2.84717e-06 0.235522 0)
(-1.39569e-06 0.235522 0)
(-8.29856e-06 0.235527 0)
(-7.44568e-07 0.235526 0)
(9.13387e-06 0.235583 0)
(-1.64163e-05 0.156437 0)
(-5.89068e-06 0.156406 0)
(8.75358e-06 0.156407 0)
(1.49963e-06 0.156403 0)
(3.1539e-06 0.156402 0)
(1.17839e-06 0.156403 0)
(1.36807e-06 0.156402 0)
(6.63023e-07 0.156402 0)
(6.70545e-07 0.156402 0)
(3.77055e-07 0.156402 0)
(3.63601e-07 0.156402 0)
(2.27153e-07 0.156402 0)
(2.12445e-07 0.156402 0)
(1.43682e-07 0.156402 0)
(1.30893e-07 0.156402 0)
(9.39472e-08 0.156402 0)
(8.36333e-08 0.156402 0)
(6.26289e-08 0.156402 0)
(5.4633e-08 0.156402 0)
(4.20697e-08 0.156402 0)
(3.60194e-08 0.156402 0)
(2.81286e-08 0.156402 0)
(2.35757e-08 0.156402 0)
(1.83694e-08 0.156402 0)
(1.49116e-08 0.156402 0)
(1.12603e-08 0.156402 0)
(8.53948e-09 0.156402 0)
(5.75817e-09 0.156402 0)
(3.46263e-09 0.156402 0)
(1.07182e-09 0.156402 0)
(-1.0807e-09 0.156402 0)
(-3.46636e-09 0.156402 0)
(-5.76555e-09 0.156402 0)
(-8.53293e-09 0.156402 0)
(-1.12588e-08 0.156402 0)
(-1.49102e-08 0.156402 0)
(-1.83537e-08 0.156402 0)
(-2.35692e-08 0.156402 0)
(-2.81281e-08 0.156402 0)
(-3.60104e-08 0.156402 0)
(-4.20695e-08 0.156402 0)
(-5.46388e-08 0.156402 0)
(-6.26234e-08 0.156402 0)
(-8.36296e-08 0.156402 0)
(-9.39508e-08 0.156402 0)
(-1.30891e-07 0.156402 0)
(-1.43686e-07 0.156402 0)
(-2.1245e-07 0.156402 0)
(-2.27148e-07 0.156402 0)
(-3.63605e-07 0.156402 0)
(-3.77061e-07 0.156402 0)
(-6.70538e-07 0.156402 0)
(-6.63023e-07 0.156402 0)
(-1.36808e-06 0.156402 0)
(-1.17839e-06 0.156403 0)
(-3.15391e-06 0.156402 0)
(-1.49964e-06 0.156403 0)
(-8.75358e-06 0.156407 0)
(5.89068e-06 0.156406 0)
(1.64163e-05 0.156437 0)
(-2.31681e-05 0.112295 0)
(-1.20977e-05 0.112278 0)
(9.10912e-06 0.112279 0)
(1.59282e-06 0.112275 0)
(3.45201e-06 0.112275 0)
(1.31801e-06 0.112275 0)
(1.51291e-06 0.112275 0)
(7.43453e-07 0.112275 0)
(7.45197e-07 0.112275 0)
(4.23232e-07 0.112275 0)
(4.05216e-07 0.112275 0)
(2.55048e-07 0.112275 0)
(2.37196e-07 0.112275 0)
(1.61319e-07 0.112275 0)
(1.46336e-07 0.112275 0)
(1.05462e-07 0.112275 0)
(9.35914e-08 0.112275 0)
(7.02943e-08 0.112275 0)
(6.11831e-08 0.112275 0)
(4.72137e-08 0.112275 0)
(4.0359e-08 0.112275 0)
(3.15659e-08 0.112275 0)
(2.64265e-08 0.112275 0)
(2.06133e-08 0.112275 0)
(1.67192e-08 0.112275 0)
(1.26362e-08 0.112275 0)
(9.57601e-09 0.112275 0)
(6.46262e-09 0.112275 0)
(3.88262e-09 0.112275 0)
(1.20424e-09 0.112275 0)
(-1.21319e-09 0.112275 0)
(-3.88683e-09 0.112275 0)
(-6.47172e-09 0.112275 0)
(-9.56791e-09 0.112275 0)
(-1.26344e-08 0.112275 0)
(-1.67187e-08 0.112275 0)
(-2.05954e-08 0.112275 0)
(-2.64194e-08 0.112275 0)
(-3.15661e-08 0.112275 0)
(-4.0348e-08 0.112275 0)
(-4.72134e-08 0.112275 0)
(-6.11902e-08 0.112275 0)
(-7.02871e-08 0.112275 0)
(-9.35875e-08 0.112275 0)
(-1.05467e-07 0.112275 0)
(-1.46332e-07 0.112275 0)
(-1.61322e-07 0.112275 0)
(-2.37202e-07 0.112275 0)
(-2.55041e-07 0.112275 0)
(-4.0522e-07 0.112275 0)
(-4.2324e-07 0.112275 0)
(-7.45189e-07 0.112275 0)
(-7.43453e-07 0.112275 0)
(-1.51292e-06 0.112275 0)
(-1.31801e-06 0.112275 0)
(-3.45202e-06 0.112275 0)
(-1.59283e-06 0.112275 0)
(-9.10912e-06 0.112279 0)
(1.20977e-05 0.112278 0)
(2.31681e-05 0.112295 0)
(-2.96196e-05 0.0774435 0)
(-1.81051e-05 0.0774322 0)
(9.36855e-06 0.0774337 0)
(1.67616e-06 0.0774304 0)
(3.74069e-06 0.0774297 0)
(1.45965e-06 0.0774298 0)
(1.65726e-06 0.0774297 0)
(8.25673e-07 0.0774297 0)
(8.20482e-07 0.0774297 0)
(4.70608e-07 0.0774297 0)
(4.47452e-07 0.0774296 0)
(2.83713e-07 0.0774296 0)
(2.62416e-07 0.0774296 0)
(1.79454e-07 0.0774296 0)
(1.62114e-07 0.0774296 0)
(1.17305e-07 0.0774296 0)
(1.03786e-07 0.0774296 0)
(7.81789e-08 0.0774296 0)
(6.7898e-08 0.0774296 0)
(5.25051e-08 0.0774296 0)
(4.48124e-08 0.0774296 0)
(3.5102e-08 0.0774296 0)
(2.93543e-08 0.0774296 0)
(2.29218e-08 0.0774296 0)
(1.85766e-08 0.0774296 0)
(1.40519e-08 0.0774296 0)
(1.06415e-08 0.0774296 0)
(7.18767e-09 0.0774296 0)
(4.31432e-09 0.0774296 0)
(1.34087e-09 0.0774296 0)
(-1.34984e-09 0.0774296 0)
(-4.31899e-09 0.0774296 0)
(-7.19839e-09 0.0774296 0)
(-1.06319e-08 0.0774296 0)
(-1.40499e-08 0.0774296 0)
(-1.85768e-08 0.0774296 0)
(-2.29018e-08 0.0774296 0)
(-2.93466e-08 0.0774296 0)
(-3.51029e-08 0.0774296 0)
(-4.47995e-08 0.0774296 0)
(-5.25047e-08 0.0774296 0)
(-6.79063e-08 0.0774296 0)
(-7.81702e-08 0.0774296 0)
(-1.03781e-07 0.0774296 0)
(-1.17312e-07 0.0774296 0)
(-1.62109e-07 0.0774296 0)
(-1.79458e-07 0.0774296 0)
(-2.62424e-07 0.0774296 0)
(-2.83705e-07 0.0774296 0)
(-4.47455e-07 0.0774296 0)
(-4.70617e-07 0.0774297 0)
(-8.20473e-07 0.0774297 0)
(-8.25673e-07 0.0774297 0)
(-1.65726e-06 0.0774297 0)
(-1.45964e-06 0.0774298 0)
(-3.7407e-06 0.0774297 0)
(-1.67617e-06 0.0774304 0)
(-9.36855e-06 0.0774337 0)
(1.81051e-05 0.0774322 0)
(2.96196e-05 0.0774435 0)
(-3.57997e-05 0.044378 0)
(-2.39392e-05 0.0443725 0)
(9.53628e-06 0.0443745 0)
(1.75076e-06 0.0443718 0)
(4.01911e-06 0.0443709 0)
(1.60299e-06 0.0443711 0)
(1.80088e-06 0.0443709 0)
(9.09585e-07 0.044371 0)
(8.96344e-07 0.0443709 0)
(5.19157e-07 0.0443709 0)
(4.90296e-07 0.0443709 0)
(3.13145e-07 0.0443709 0)
(2.88105e-07 0.0443709 0)
(1.9809e-07 0.0443709 0)
(1.7823e-07 0.0443709 0)
(1.2948e-07 0.0443709 0)
(1.14219e-07 0.0443709 0)
(8.62862e-08 0.0443709 0)
(7.47807e-08 0.0443709 0)
(5.79468e-08 0.0443709 0)
(4.93819e-08 0.0443709 0)
(3.87389e-08 0.0443709 0)
(3.23607e-08 0.0443709 0)
(2.52965e-08 0.0443709 0)
(2.0485e-08 0.0443709 0)
(1.55085e-08 0.0443709 0)
(1.17365e-08 0.0443709 0)
(7.93381e-09 0.0443709 0)
(4.75798e-09 0.0443709 0)
(1.4818e-09 0.0443709 0)
(-1.49072e-09 0.0443709 0)
(-4.76311e-09 0.0443709 0)
(-7.94607e-09 0.0443709 0)
(-1.17256e-08 0.0443709 0)
(-1.55062e-08 0.0443709 0)
(-2.04859e-08 0.0443709 0)
(-2.52746e-08 0.0443709 0)
(-3.23525e-08 0.0443709 0)
(-3.87403e-08 0.0443709 0)
(-4.93672e-08 0.0443709 0)
(-5.79461e-08 0.0443709 0)
(-7.47901e-08 0.0443709 0)
(-8.62759e-08 0.0443709 0)
(-1.14215e-07 0.0443709 0)
(-1.29488e-07 0.0443709 0)
(-1.78225e-07 0.0443709 0)
(-1.98095e-07 0.0443709 0)
(-2.88115e-07 0.0443709 0)
(-3.13135e-07 0.0443709 0)
(-4.903e-07 0.0443709 0)
(-5.19168e-07 0.0443709 0)
(-8.96333e-07 0.0443709 0)
(-9.09585e-07 0.044371 0)
(-1.80089e-06 0.0443709 0)
(-1.60299e-06 0.0443711 0)
(-4.01912e-06 0.0443709 0)
(-1.75077e-06 0.0443718 0)
(-9.53628e-06 0.0443745 0)
(2.39392e-05 0.0443725 0)
(3.57997e-05 0.044378 0)
(-4.16712e-05 0.0122145 0)
(-2.95594e-05 0.0122159 0)
(9.61758e-06 0.0122184 0)
(1.81802e-06 0.0122164 0)
(4.28645e-06 0.0122154 0)
(1.74771e-06 0.0122157 0)
(1.94355e-06 0.0122155 0)
(9.95076e-07 0.0122155 0)
(9.72718e-07 0.0122154 0)
(5.6885e-07 0.0122154 0)
(5.33735e-07 0.0122154 0)
(3.43339e-07 0.0122154 0)
(3.14263e-07 0.0122154 0)
(2.1723e-07 0.0122154 0)
(1.94688e-07 0.0122154 0)
(1.4199e-07 0.0122154 0)
(1.24896e-07 0.0122154 0)
(9.46192e-08 0.0122154 0)
(8.18341e-08 0.0122154 0)
(6.35412e-08 0.0122154 0)
(5.40699e-08 0.0122154 0)
(4.24787e-08 0.0122154 0)
(3.54476e-08 0.0122154 0)
(2.77388e-08 0.0122154 0)
(2.24454e-08 0.0122154 0)
(1.70068e-08 0.0122154 0)
(1.2862e-08 0.0122154 0)
(8.70151e-09 0.0122154 0)
(5.21392e-09 0.0122154 0)
(1.62712e-09 0.0122154 0)
(-1.63592e-09 0.0122154 0)
(-5.21947e-09 0.0122154 0)
(-8.71527e-09 0.0122154 0)
(-1.28497e-08 0.0122154 0)
(-1.70042e-08 0.0122154 0)
(-2.24471e-08 0.0122154 0)
(-2.77151e-08 0.0122154 0)
(-3.54388e-08 0.0122154 0)
(-4.24805e-08 0.0122154 0)
(-5.40534e-08 0.0122154 0)
(-6.35403e-08 0.0122154 0)
(-8.18445e-08 0.0122154 0)
(-9.46074e-08 0.0122154 0)
(-1.24891e-07 0.0122154 0)
(-1.42e-07 0.0122154 0)
(-1.94682e-07 0.0122154 0)
(-2.17234e-07 0.0122154 0)
(-3.14274e-07 0.0122154 0)
(-3.43328e-07 0.0122154 0)
(-5.33738e-07 0.0122154 0)
(-5.68861e-07 0.0122154 0)
(-9.72706e-07 0.0122154 0)
(-9.95076e-07 0.0122155 0)
(-1.94356e-06 0.0122155 0)
(-1.74771e-06 0.0122157 0)
(-4.28646e-06 0.0122154 0)
(-1.81804e-06 0.0122164 0)
(-9.61758e-06 0.0122184 0)
(2.95594e-05 0.0122159 0)
(4.16712e-05 0.0122145 0)
(-4.71994e-05 -0.0200538 0)
(-3.49276e-05 -0.0200444 0)
(9.61839e-06 -0.0200414 0)
(1.87973e-06 -0.0200426 0)
(4.54192e-06 -0.0200436 0)
(1.89345e-06 -0.0200433 0)
(2.085e-06 -0.0200436 0)
(1.08202e-06 -0.0200436 0)
(1.04953e-06 -0.0200436 0)
(6.19648e-07 -0.0200436 0)
(5.7775e-07 -0.0200437 0)
(3.74287e-07 -0.0200437 0)
(3.40888e-07 -0.0200437 0)
(2.36873e-07 -0.0200437 0)
(2.1149e-07 -0.0200437 0)
(1.54839e-07 -0.0200437 0)
(1.35818e-07 -0.0200437 0)
(1.03181e-07 -0.0200437 0)
(8.90612e-08 -0.0200437 0)
(6.92909e-08 -0.0200437 0)
(5.88785e-08 -0.0200437 0)
(4.63232e-08 -0.0200437 0)
(3.86167e-08 -0.0200437 0)
(3.02501e-08 -0.0200437 0)
(2.44592e-08 -0.0200437 0)
(1.85478e-08 -0.0200437 0)
(1.40185e-08 -0.0200437 0)
(9.49133e-09 -0.0200437 0)
(5.68247e-09 -0.0200437 0)
(1.77694e-09 -0.0200437 0)
(-1.78555e-09 -0.0200437 0)
(-5.6884e-09 -0.0200437 0)
(-9.50649e-09 -0.0200437 0)
(-1.4005e-08 -0.0200437 0)
(-1.85449e-08 -0.0200437 0)
(-2.44616e-08 -0.0200437 0)
(-3.02247e-08 -0.0200437 0)
(-3.86073e-08 -0.0200437 0)
(-4.63254e-08 -0.0200437 0)
(-5.88604e-08 -0.0200437 0)
(-6.92898e-08 -0.0200437 0)
(-8.90723e-08 -0.0200437 0)
(-1.03168e-07 -0.0200437 0)
(-1.35814e-07 -0.0200437 0)
(-1.5485e-07 -0.0200437 0)
(-2.11483e-07 -0.0200437 0)
(-2.36877e-07 -0.0200437 0)
(-3.40899e-07 -0.0200437 0)
(-3.74274e-07 -0.0200437 0)
(-5.77753e-07 -0.0200437 0)
(-6.19661e-07 -0.0200436 0)
(-1.04952e-06 -0.0200436 0)
(-1.08202e-06 -0.0200436 0)
(-2.08501e-06 -0.0200436 0)
(-1.89344e-06 -0.0200433 0)
(-4.54193e-06 -0.0200436 0)
(-1.87975e-06 -0.0200426 0)
(-9.61839e-06 -0.0200414 0)
(3.49276e-05 -0.0200444 0)
(4.71994e-05 -0.0200538 0)
(-5.23456e-05 -0.0539416 0)
(-4.00012e-05 -0.0539226 0)
(9.54534e-06 -0.0539191 0)
(1.93801e-06 -0.0539193 0)
(4.78472e-06 -0.0539205 0)
(2.03983e-06 -0.0539201 0)
(2.22497e-06 -0.0539204 0)
(1.17028e-06 -0.0539204 0)
(1.1267e-06 -0.0539205 0)
(6.7151e-07 -0.0539205 0)
(6.22319e-07 -0.0539205 0)
(4.05977e-07 -0.0539205 0)
(3.67974e-07 -0.0539205 0)
(2.57018e-07 -0.0539205 0)
(2.28637e-07 -0.0539205 0)
(1.68027e-07 -0.0539205 0)
(1.46989e-07 -0.0539205 0)
(1.11974e-07 -0.0539205 0)
(9.64644e-08 -0.0539206 0)
(7.51982e-08 -0.0539206 0)
(6.38101e-08 -0.0539206 0)
(5.02744e-08 -0.0539206 0)
(4.18695e-08 -0.0539206 0)
(3.28318e-08 -0.0539206 0)
(2.65275e-08 -0.0539206 0)
(2.01324e-08 -0.0539206 0)
(1.52068e-08 -0.0539206 0)
(1.03038e-08 -0.0539206 0)
(6.16394e-09 -0.0539206 0)
(1.93138e-09 -0.0539206 0)
(-1.93974e-09 -0.0539206 0)
(-6.1702e-09 -0.0539206 0)
(-1.03202e-08 -0.0539206 0)
(-1.51922e-08 -0.0539206 0)
(-2.01292e-08 -0.0539206 0)
(-2.65305e-08 -0.0539206 0)
(-3.28049e-08 -0.0539206 0)
(-4.18596e-08 -0.0539206 0)
(-5.02769e-08 -0.0539206 0)
(-6.37904e-08 -0.0539206 0)
(-7.51969e-08 -0.0539206 0)
(-9.64762e-08 -0.0539206 0)
(-1.11959e-07 -0.0539205 0)
(-1.46985e-07 -0.0539205 0)
(-1.68039e-07 -0.0539205 0)
(-2.28629e-07 -0.0539205 0)
(-2.57023e-07 -0.0539205 0)
(-3.67987e-07 -0.0539205 0)
(-4.05963e-07 -0.0539205 0)
(-6.22322e-07 -0.0539205 0)
(-6.71524e-07 -0.0539205 0)
(-1.12669e-06 -0.0539205 0)
(-1.17028e-06 -0.0539204 0)
(-2.22498e-06 -0.0539204 0)
(-2.03982e-06 -0.0539201 0)
(-4.78473e-06 -0.0539205 0)
(-1.93803e-06 -0.0539193 0)
(-9.54534e-06 -0.0539191 0)
(4.00012e-05 -0.0539226 0)
(5.23456e-05 -0.0539416 0)
(-5.70507e-05 -0.0909195 0)
(-4.47167e-05 -0.0908887 0)
(9.4058e-06 -0.0908847 0)
(1.99538e-06 -0.0908837 0)
(5.0141e-06 -0.090885 0)
(2.18646e-06 -0.0908846 0)
(2.36315e-06 -0.0908849 0)
(1.25969e-06 -0.0908849 0)
(1.20415e-06 -0.090885 0)
(7.24386e-07 -0.090885 0)
(6.67418e-07 -0.090885 0)
(4.38395e-07 -0.090885 0)
(3.95519e-07 -0.090885 0)
(2.77664e-07 -0.090885 0)
(2.4613e-07 -0.090885 0)
(1.81556e-07 -0.090885 0)
(1.58411e-07 -0.0908851 0)
(1.21e-07 -0.0908851 0)
(1.04046e-07 -0.0908851 0)
(8.12656e-08 -0.0908851 0)
(6.88668e-08 -0.0908851 0)
(5.43342e-08 -0.0908851 0)
(4.52077e-08 -0.0908851 0)
(3.54853e-08 -0.0908851 0)
(2.86515e-08 -0.0908851 0)
(2.17616e-08 -0.0908851 0)
(1.64276e-08 -0.0908851 0)
(1.11393e-08 -0.0908851 0)
(6.6586e-09 -0.0908851 0)
(2.09051e-09 -0.0908851 0)
(-2.09859e-09 -0.0908851 0)
(-6.66516e-09 -0.0908851 0)
(-1.11569e-08 -0.0908851 0)
(-1.64121e-08 -0.0908851 0)
(-2.17581e-08 -0.0908851 0)
(-2.8655e-08 -0.0908851 0)
(-3.54571e-08 -0.0908851 0)
(-4.51973e-08 -0.0908851 0)
(-5.43368e-08 -0.0908851 0)
(-6.88456e-08 -0.0908851 0)
(-8.12639e-08 -0.0908851 0)
(-1.04059e-07 -0.0908851 0)
(-1.20985e-07 -0.0908851 0)
(-1.58407e-07 -0.0908851 0)
(-1.8157e-07 -0.090885 0)
(-2.46122e-07 -0.090885 0)
(-2.77668e-07 -0.090885 0)
(-3.95532e-07 -0.090885 0)
(-4.38381e-07 -0.090885 0)
(-6.67421e-07 -0.090885 0)
(-7.244e-07 -0.090885 0)
(-1.20413e-06 -0.090885 0)
(-1.25969e-06 -0.0908849 0)
(-2.36316e-06 -0.0908849 0)
(-2.18645e-06 -0.0908846 0)
(-5.01411e-06 -0.090885 0)
(-1.9954e-06 -0.0908837 0)
(-9.4058e-06 -0.0908847 0)
(4.47167e-05 -0.0908887 0)
(5.70507e-05 -0.0909195 0)
(-6.12285e-05 -0.132247 0)
(-4.89834e-05 -0.132201 0)
(9.20786e-06 -0.132197 0)
(2.05471e-06 -0.132195 0)
(5.22932e-06 -0.132196 0)
(2.33293e-06 -0.132195 0)
(2.49924e-06 -0.132196 0)
(1.35008e-06 -0.132196 0)
(1.28176e-06 -0.132196 0)
(7.78218e-07 -0.132196 0)
(7.13015e-07 -0.132196 0)
(4.71524e-07 -0.132196 0)
(4.23512e-07 -0.132196 0)
(2.98806e-07 -0.132196 0)
(2.63969e-07 -0.132196 0)
(1.95428e-07 -0.132196 0)
(1.70086e-07 -0.132196 0)
(1.30262e-07 -0.132196 0)
(1.11809e-07 -0.132196 0)
(8.74949e-08 -0.132196 0)
(7.40506e-08 -0.132196 0)
(5.85042e-08 -0.132196 0)
(4.8633e-08 -0.132196 0)
(3.8212e-08 -0.132196 0)
(3.08323e-08 -0.132196 0)
(2.34363e-08 -0.132196 0)
(1.76817e-08 -0.132196 0)
(1.19985e-08 -0.132196 0)
(7.1668e-09 -0.132196 0)
(2.25444e-09 -0.132196 0)
(-2.2622e-09 -0.132196 0)
(-7.17357e-09 -0.132196 0)
(-1.20171e-08 -0.132196 0)
(-1.76653e-08 -0.132196 0)
(-2.34324e-08 -0.132196 0)
(-3.08362e-08 -0.132196 0)
(-3.81827e-08 -0.132196 0)
(-4.86222e-08 -0.132196 0)
(-5.8507e-08 -0.132196 0)
(-7.4028e-08 -0.132196 0)
(-8.74929e-08 -0.132196 0)
(-1.11822e-07 -0.132196 0)
(-1.30246e-07 -0.132196 0)
(-1.70082e-07 -0.132196 0)
(-1.95442e-07 -0.132196 0)
(-2.63959e-07 -0.132196 0)
(-2.98811e-07 -0.132196 0)
(-4.23527e-07 -0.132196 0)
(-4.71509e-07 -0.132196 0)
(-7.13018e-07 -0.132196 0)
(-7.78233e-07 -0.132196 0)
(-1.28174e-06 -0.132196 0)
(-1.35008e-06 -0.132196 0)
(-2.49925e-06 -0.132196 0)
(-2.33292e-06 -0.132195 0)
(-5.22933e-06 -0.132196 0)
(-2.05473e-06 -0.132195 0)
(-9.20785e-06 -0.132197 0)
(4.89834e-05 -0.132201 0)
(6.12285e-05 -0.132247 0)
(-6.47619e-05 -0.178878 0)
(-5.2679e-05 -0.178813 0)
(8.96025e-06 -0.178807 0)
(2.11921e-06 -0.178804 0)
(5.42968e-06 -0.178805 0)
(2.47879e-06 -0.178805 0)
(2.6329e-06 -0.178805 0)
(1.44126e-06 -0.178805 0)
(1.35943e-06 -0.178805 0)
(8.32941e-07 -0.178805 0)
(7.59077e-07 -0.178805 0)
(5.05344e-07 -0.178805 0)
(4.51946e-07 -0.178805 0)
(3.2044e-07 -0.178805 0)
(2.82152e-07 -0.178805 0)
(2.09641e-07 -0.178805 0)
(1.82015e-07 -0.178805 0)
(1.39762e-07 -0.178805 0)
(1.19755e-07 -0.178805 0)
(9.38882e-08 -0.178805 0)
(7.93633e-08 -0.178805 0)
(6.27863e-08 -0.178805 0)
(5.2147e-08 -0.178805 0)
(4.10132e-08 -0.178805 0)
(3.30711e-08 -0.178805 0)
(2.51575e-08 -0.178805 0)
(1.89698e-08 -0.178805 0)
(1.28818e-08 -0.178805 0)
(7.68882e-09 -0.178805 0)
(2.4233e-09 -0.178805 0)
(-2.43071e-09 -0.178805 0)
(-7.69577e-09 -0.178805 0)
(-1.29013e-08 -0.178805 0)
(-1.89527e-08 -0.178805 0)
(-2.51532e-08 -0.178805 0)
(-3.30753e-08 -0.178805 0)
(-4.09829e-08 -0.178805 0)
(-5.21358e-08 -0.178805 0)
(-6.2789e-08 -0.178805 0)
(-7.93396e-08 -0.178805 0)
(-9.38859e-08 -0.178805 0)
(-1.19768e-07 -0.178805 0)
(-1.39744e-07 -0.178805 0)
(-1.82011e-07 -0.178805 0)
(-2.09657e-07 -0.178805 0)