/*--------------------------------*- C++ -*----------------------------------*\
| =========                 |                                                 |
| \\      /  F ield         | foam-extend: Open Source CFD                    |
|  \\    /   O peration     | Version:     4.0                                |
|   \\  /    A nd           | Web:         http://www.foam-extend.org         |
|    \\/     M anipulation  |                                                 |
\*---------------------------------------------------------------------------*/
FoamFile
{
    version     2.0;
    format      ascii;
    class       volScalarField;
    location    "1540";
    object      cPlus;
}
// * * * * * * * * * * * * * * * * * * * * * * * * * * * * * * * * * * * * * //

dimensions      [0 0 0 0 0 0 0];

internalField   nonuniform List<scalar> 
6960
(
0.319961
0.319947
0.31993
0.319913
0.319898
0.319883
0.31987
0.319859
0.319849
0.31984
0.319833
0.319826
0.319821
0.319816
0.319811
0.319808
0.319805
0.319802
0.3198
0.319798
0.319796
0.319795
0.319794
0.319793
0.319792
0.319792
0.319791
0.319791
0.319791
0.319791
0.319791
0.319791
0.319791
0.319791
0.319792
0.319792
0.319793
0.319794
0.319795
0.319796
0.319798
0.3198
0.319802
0.319805
0.319808
0.319811
0.319816
0.319821
0.319826
0.319833
0.31984
0.319849
0.319859
0.31987
0.319883
0.319898
0.319913
0.31993
0.319947
0.319961
0.10316
0.103151
0.103139
0.103127
0.103116
0.103106
0.103097
0.103089
0.103082
0.103076
0.10307
0.103066
0.103062
0.103058
0.103055
0.103053
0.103051
0.103049
0.103047
0.103046
0.103045
0.103044
0.103043
0.103043
0.103042
0.103042
0.103041
0.103041
0.103041
0.103041
0.103041
0.103041
0.103041
0.103041
0.103042
0.103042
0.103043
0.103043
0.103044
0.103045
0.103046
0.103047
0.103049
0.103051
0.103053
0.103055
0.103058
0.103062
0.103066
0.10307
0.103076
0.103082
0.103089
0.103097
0.103106
0.103116
0.103127
0.103139
0.103151
0.10316
0.0397379
0.0397328
0.0397264
0.0397199
0.0397139
0.0397084
0.0397035
0.0396992
0.0396954
0.039692
0.0396891
0.0396866
0.0396844
0.0396825
0.0396809
0.0396795
0.0396783
0.0396773
0.0396765
0.0396757
0.0396751
0.0396746
0.0396742
0.0396739
0.0396736
0.0396733
0.0396732
0.0396731
0.039673
0.0396729
0.0396729
0.039673
0.0396731
0.0396732
0.0396733
0.0396736
0.0396739
0.0396742
0.0396746
0.0396751
0.0396757
0.0396765
0.0396773
0.0396783
0.0396795
0.0396809
0.0396825
0.0396844
0.0396866
0.0396891
0.039692
0.0396954
0.0396992
0.0397035
0.0397084
0.0397139
0.0397199
0.0397264
0.0397328
0.0397379
0.0179696
0.0179677
0.017965
0.0179623
0.0179597
0.0179573
0.0179552
0.0179533
0.0179517
0.0179502
0.017949
0.0179479
0.0179469
0.0179461
0.0179454
0.0179448
0.0179443
0.0179438
0.0179435
0.0179432
0.0179429
0.0179427
0.0179425
0.0179423
0.0179422
0.0179421
0.017942
0.017942
0.017942
0.0179419
0.0179419
0.017942
0.017942
0.017942
0.0179421
0.0179422
0.0179423
0.0179425
0.0179427
0.0179429
0.0179432
0.0179435
0.0179438
0.0179443
0.0179448
0.0179454
0.0179461
0.0179469
0.0179479
0.017949
0.0179502
0.0179517
0.0179533
0.0179552
0.0179573
0.0179597
0.0179623
0.017965
0.0179677
0.0179696
0.0101925
0.0101924
0.0101919
0.0101912
0.0101906
0.01019
0.0101895
0.0101891
0.0101887
0.0101883
0.010188
0.0101877
0.0101875
0.0101873
0.0101871
0.010187
0.0101868
0.0101867
0.0101866
0.0101865
0.0101865
0.0101864
0.0101864
0.0101863
0.0101863
0.0101863
0.0101863
0.0101862
0.0101862
0.0101862
0.0101862
0.0101862
0.0101862
0.0101863
0.0101863
0.0101863
0.0101863
0.0101864
0.0101864
0.0101865
0.0101865
0.0101866
0.0101867
0.0101868
0.010187
0.0101871
0.0101873
0.0101875
0.0101877
0.010188
0.0101883
0.0101887
0.0101891
0.0101895
0.01019
0.0101906
0.0101912
0.0101919
0.0101924
0.0101925
0.00743513
0.00743595
0.0074365
0.00743694
0.00743733
0.00743767
0.00743796
0.00743823
0.00743845
0.00743865
0.00743882
0.00743897
0.0074391
0.0074392
0.00743929
0.00743937
0.00743944
0.00743949
0.00743954
0.00743958
0.00743961
0.00743964
0.00743966
0.00743968
0.0074397
0.00743971
0.00743972
0.00743973
0.00743973
0.00743973
0.00743973
0.00743973
0.00743973
0.00743972
0.00743971
0.0074397
0.00743968
0.00743966
0.00743964
0.00743961
0.00743958
0.00743954
0.00743949
0.00743944
0.00743937
0.00743929
0.0074392
0.0074391
0.00743897
0.00743882
0.00743865
0.00743845
0.00743823
0.00743796
0.00743767
0.00743733
0.00743694
0.0074365
0.00743595
0.00743513
0.00649582
0.00649708
0.00649814
0.00649909
0.00649995
0.00650072
0.0065014
0.006502
0.00650253
0.00650298
0.00650338
0.00650373
0.00650402
0.00650428
0.0065045
0.00650468
0.00650484
0.00650497
0.00650509
0.00650518
0.00650526
0.00650533
0.00650538
0.00650543
0.00650547
0.0065055
0.00650552
0.00650554
0.00650555
0.00650555
0.00650555
0.00650555
0.00650554
0.00650552
0.0065055
0.00650547
0.00650543
0.00650538
0.00650533
0.00650526
0.00650518
0.00650509
0.00650497
0.00650484
0.00650468
0.0065045
0.00650428
0.00650402
0.00650373
0.00650338
0.00650298
0.00650253
0.006502
0.0065014
0.00650072
0.00649995
0.00649909
0.00649814
0.00649708
0.00649582
0.00620738
0.00620884
0.00621013
0.00621131
0.00621238
0.00621334
0.0062142
0.00621495
0.00621561
0.00621619
0.00621669
0.00621712
0.00621749
0.00621781
0.00621809
0.00621832
0.00621852
0.00621869
0.00621883
0.00621895
0.00621906
0.00621914
0.00621921
0.00621927
0.00621932
0.00621935
0.00621938
0.0062194
0.00621942
0.00621942
0.00621942
0.00621942
0.0062194
0.00621938
0.00621935
0.00621932
0.00621927
0.00621921
0.00621914
0.00621906
0.00621895
0.00621883
0.00621869
0.00621852
0.00621832
0.00621809
0.00621781
0.00621749
0.00621712
0.00621669
0.00621619
0.00621561
0.00621495
0.0062142
0.00621334
0.00621238
0.00621131
0.00621013
0.00620884
0.00620738
0.00614823
0.00614978
0.00615118
0.00615247
0.00615364
0.00615468
0.00615561
0.00615644
0.00615716
0.00615779
0.00615833
0.00615881
0.00615922
0.00615957
0.00615987
0.00616012
0.00616034
0.00616053
0.00616068
0.00616082
0.00616093
0.00616102
0.0061611
0.00616116
0.00616121
0.00616125
0.00616128
0.00616131
0.00616132
0.00616133
0.00616133
0.00616132
0.00616131
0.00616128
0.00616125
0.00616121
0.00616116
0.0061611
0.00616102
0.00616093
0.00616082
0.00616068
0.00616053
0.00616034
0.00616012
0.00615987
0.00615957
0.00615922
0.00615881
0.00615833
0.00615779
0.00615716
0.00615644
0.00615561
0.00615468
0.00615364
0.00615247
0.00615118
0.00614978
0.00614823
0.00616942
0.00617102
0.00617248
0.00617382
0.00617503
0.00617613
0.0061771
0.00617795
0.00617871
0.00617936
0.00617993
0.00618043
0.00618085
0.00618122
0.00618153
0.0061818
0.00618203
0.00618222
0.00618239
0.00618252
0.00618264
0.00618274
0.00618282
0.00618288
0.00618294
0.00618298
0.00618301
0.00618304
0.00618305
0.00618306
0.00618306
0.00618305
0.00618304
0.00618301
0.00618298
0.00618294
0.00618288
0.00618282
0.00618274
0.00618264
0.00618252
0.00618239
0.00618222
0.00618203
0.0061818
0.00618153
0.00618122
0.00618085
0.00618043
0.00617993
0.00617936
0.00617871
0.00617795
0.0061771
0.00617613
0.00617503
0.00617382
0.00617248
0.00617102
0.00616942
0.00621981
0.00622145
0.00622295
0.00622432
0.00622557
0.00622669
0.00622768
0.00622856
0.00622933
0.00623001
0.00623059
0.0062311
0.00623154
0.00623191
0.00623224
0.00623251
0.00623274
0.00623294
0.00623311
0.00623325
0.00623337
0.00623347
0.00623355
0.00623362
0.00623368
0.00623372
0.00623376
0.00623378
0.0062338
0.0062338
0.0062338
0.0062338
0.00623378
0.00623376
0.00623372
0.00623368
0.00623362
0.00623355
0.00623347
0.00623337
0.00623325
0.00623311
0.00623294
0.00623274
0.00623251
0.00623224
0.00623191
0.00623154
0.0062311
0.00623059
0.00623001
0.00622933
0.00622856
0.00622768
0.00622669
0.00622557
0.00622432
0.00622295
0.00622145
0.00621981
0.0062825
0.00628418
0.0062857
0.0062871
0.00628837
0.00628952
0.00629053
0.00629143
0.00629222
0.00629291
0.0062935
0.00629402
0.00629447
0.00629485
0.00629518
0.00629546
0.0062957
0.0062959
0.00629608
0.00629622
0.00629634
0.00629645
0.00629653
0.0062966
0.00629666
0.0062967
0.00629674
0.00629676
0.00629678
0.00629679
0.00629679
0.00629678
0.00629676
0.00629674
0.0062967
0.00629666
0.0062966
0.00629653
0.00629645
0.00629634
0.00629622
0.00629608
0.0062959
0.0062957
0.00629546
0.00629518
0.00629485
0.00629447
0.00629402
0.0062935
0.00629291
0.00629222
0.00629143
0.00629053
0.00628952
0.00628837
0.0062871
0.0062857
0.00628418
0.0062825
0.00635225
0.00635396
0.00635551
0.00635694
0.00635824
0.0063594
0.00636044
0.00636135
0.00636216
0.00636286
0.00636347
0.006364
0.00636445
0.00636484
0.00636518
0.00636547
0.00636571
0.00636592
0.00636609
0.00636624
0.00636636
0.00636647
0.00636656
0.00636663
0.00636668
0.00636673
0.00636677
0.00636679
0.00636681
0.00636682
0.00636682
0.00636681
0.00636679
0.00636677
0.00636673
0.00636668
0.00636663
0.00636656
0.00636647
0.00636636
0.00636624
0.00636609
0.00636592
0.00636571
0.00636547
0.00636518
0.00636484
0.00636445
0.006364
0.00636347
0.00636286
0.00636216
0.00636135
0.00636044
0.0063594
0.00635824
0.00635694
0.00635551
0.00635396
0.00635225
0.00642771
0.00642945
0.00643103
0.00643249
0.00643381
0.006435
0.00643606
0.00643699
0.00643781
0.00643853
0.00643915
0.00643969
0.00644015
0.00644055
0.00644089
0.00644119
0.00644144
0.00644165
0.00644183
0.00644198
0.00644211
0.00644221
0.0064423
0.00644237
0.00644243
0.00644248
0.00644251
0.00644254
0.00644256
0.00644257
0.00644257
0.00644256
0.00644254
0.00644251
0.00644248
0.00644243
0.00644237
0.0064423
0.00644221
0.00644211
0.00644198
0.00644183
0.00644165
0.00644144
0.00644119
0.00644089
0.00644055
0.00644015
0.00643969
0.00643915
0.00643853
0.00643781
0.00643699
0.00643606
0.006435
0.00643381
0.00643249
0.00643103
0.00642945
0.00642771
0.00650881
0.00651059
0.00651221
0.00651369
0.00651504
0.00651625
0.00651733
0.00651828
0.00651912
0.00651985
0.00652049
0.00652104
0.00652151
0.00652192
0.00652227
0.00652257
0.00652283
0.00652304
0.00652323
0.00652338
0.00652351
0.00652362
0.00652371
0.00652378
0.00652384
0.00652389
0.00652393
0.00652396
0.00652397
0.00652398
0.00652398
0.00652397
0.00652396
0.00652393
0.00652389
0.00652384
0.00652378
0.00652371
0.00652362
0.00652351
0.00652338
0.00652323
0.00652304
0.00652283
0.00652257
0.00652227
0.00652192
0.00652151
0.00652104
0.00652049
0.00651985
0.00651912
0.00651828
0.00651733
0.00651625
0.00651504
0.00651369
0.00651221
0.00651059
0.00650881
0.00659594
0.00659776
0.00659942
0.00660093
0.00660231
0.00660355
0.00660466
0.00660563
0.00660649
0.00660723
0.00660788
0.00660845
0.00660893
0.00660935
0.00660971
0.00661001
0.00661027
0.0066105
0.00661068
0.00661084
0.00661097
0.00661109
0.00661118
0.00661125
0.00661132
0.00661136
0.0066114
0.00661143
0.00661145
0.00661146
0.00661146
0.00661145
0.00661143
0.0066114
0.00661136
0.00661132
0.00661125
0.00661118
0.00661109
0.00661097
0.00661084
0.00661068
0.0066105
0.00661027
0.00661001
0.00660971
0.00660935
0.00660893
0.00660845
0.00660788
0.00660723
0.00660649
0.00660563
0.00660466
0.00660355
0.00660231
0.00660093
0.00659942
0.00659776
0.00659594
0.00668969
0.00669156
0.00669325
0.0066948
0.00669622
0.00669748
0.00669861
0.00669961
0.00670049
0.00670125
0.00670192
0.0067025
0.00670299
0.00670342
0.00670379
0.0067041
0.00670437
0.0067046
0.00670479
0.00670495
0.00670509
0.0067052
0.00670529
0.00670537
0.00670544
0.00670549
0.00670552
0.00670555
0.00670557
0.00670558
0.00670558
0.00670557
0.00670555
0.00670552
0.00670549
0.00670544
0.00670537
0.00670529
0.0067052
0.00670509
0.00670495
0.00670479
0.0067046
0.00670437
0.0067041
0.00670379
0.00670342
0.00670299
0.0067025
0.00670192
0.00670125
0.00670049
0.00669961
0.00669861
0.00669748
0.00669622
0.0066948
0.00669325
0.00669156
0.00668969
0.00679077
0.00679269
0.00679443
0.00679602
0.00679747
0.00679877
0.00679993
0.00680095
0.00680185
0.00680263
0.00680332
0.00680391
0.00680442
0.00680486
0.00680523
0.00680555
0.00680583
0.00680606
0.00680626
0.00680642
0.00680656
0.00680668
0.00680678
0.00680686
0.00680692
0.00680698
0.00680702
0.00680704
0.00680706
0.00680707
0.00680707
0.00680706
0.00680704
0.00680702
0.00680698
0.00680692
0.00680686
0.00680678
0.00680668
0.00680656
0.00680642
0.00680626
0.00680606
0.00680583
0.00680555
0.00680523
0.00680486
0.00680442
0.00680391
0.00680332
0.00680263
0.00680185
0.00680095
0.00679993
0.00679877
0.00679747
0.00679602
0.00679443
0.00679269
0.00679077
0.00690003
0.006902
0.00690379
0.00690542
0.00690691
0.00690825
0.00690943
0.00691048
0.00691141
0.00691222
0.00691292
0.00691352
0.00691405
0.0069145
0.00691489
0.00691522
0.0069155
0.00691574
0.00691594
0.00691611
0.00691626
0.00691638
0.00691648
0.00691656
0.00691663
0.00691668
0.00691672
0.00691675
0.00691677
0.00691678
0.00691678
0.00691677
0.00691675
0.00691672
0.00691668
0.00691663
0.00691656
0.00691648
0.00691638
0.00691626
0.00691611
0.00691594
0.00691574
0.0069155
0.00691522
0.00691489
0.0069145
0.00691405
0.00691352
0.00691292
0.00691222
0.00691141
0.00691048
0.00690943
0.00690825
0.00690691
0.00690542
0.00690379
0.006902
0.00690003
0.00701844
0.00702048
0.00702231
0.007024
0.00702553
0.0070269
0.00702813
0.00702921
0.00703016
0.00703099
0.00703171
0.00703234
0.00703288
0.00703334
0.00703374
0.00703408
0.00703437
0.00703462
0.00703483
0.00703501
0.00703515
0.00703528
0.00703538
0.00703547
0.00703554
0.00703559
0.00703563
0.00703566
0.00703568
0.00703569
0.00703569
0.00703568
0.00703566
0.00703563
0.00703559
0.00703554
0.00703547
0.00703538
0.00703528
0.00703515
0.00703501
0.00703483
0.00703462
0.00703437
0.00703408
0.00703374
0.00703334
0.00703288
0.00703234
0.00703171
0.00703099
0.00703016
0.00702921
0.00702813
0.0070269
0.00702553
0.007024
0.00702231
0.00702048
0.00701844
0.00714718
0.00714928
0.00715117
0.00715291
0.00715449
0.00715591
0.00715717
0.00715828
0.00715926
0.00716012
0.00716087
0.00716151
0.00716207
0.00716255
0.00716296
0.00716331
0.00716361
0.00716387
0.00716408
0.00716426
0.00716442
0.00716455
0.00716465
0.00716474
0.00716481
0.00716487
0.00716491
0.00716494
0.00716496
0.00716497
0.00716497
0.00716496
0.00716494
0.00716491
0.00716487
0.00716481
0.00716474
0.00716465
0.00716455
0.00716442
0.00716426
0.00716408
0.00716387
0.00716361
0.00716331
0.00716296
0.00716255
0.00716207
0.00716151
0.00716087
0.00716012
0.00715926
0.00715828
0.00715717
0.00715591
0.00715449
0.00715291
0.00715117
0.00714928
0.00714718
0.00728759
0.00728977
0.00729173
0.00729352
0.00729516
0.00729662
0.00729793
0.00729908
0.00730009
0.00730098
0.00730175
0.00730242
0.007303
0.00730349
0.00730392
0.00730428
0.00730459
0.00730486
0.00730508
0.00730527
0.00730543
0.00730556
0.00730567
0.00730576
0.00730583
0.00730589
0.00730594
0.00730597
0.00730599
0.007306
0.007306
0.00730599
0.00730597
0.00730594
0.00730589
0.00730583
0.00730576
0.00730567
0.00730556
0.00730543
0.00730527
0.00730508
0.00730486
0.00730459
0.00730428
0.00730392
0.00730349
0.007303
0.00730242
0.00730175
0.00730098
0.00730009
0.00729908
0.00729793
0.00729662
0.00729516
0.00729352
0.00729173
0.00728977
0.00728759
0.00744132
0.00744358
0.00744561
0.00744748
0.00744917
0.00745069
0.00745204
0.00745324
0.00745429
0.00745521
0.00745601
0.0074567
0.0074573
0.00745781
0.00745826
0.00745863
0.00745896
0.00745923
0.00745946
0.00745966
0.00745982
0.00745996
0.00746007
0.00746017
0.00746025
0.00746031
0.00746035
0.00746039
0.00746041
0.00746042
0.00746042
0.00746041
0.00746039
0.00746035
0.00746031
0.00746025
0.00746017
0.00746007
0.00745996
0.00745982
0.00745966
0.00745946
0.00745923
0.00745896
0.00745863
0.00745826
0.00745781
0.0074573
0.0074567
0.00745601
0.00745521
0.00745429
0.00745324
0.00745204
0.00745069
0.00744917
0.00744748
0.00744561
0.00744358
0.00744132
0.00761033
0.00761268
0.00761479
0.00761673
0.00761849
0.00762007
0.00762148
0.00762272
0.00762382
0.00762477
0.00762561
0.00762633
0.00762695
0.00762749
0.00762795
0.00762834
0.00762868
0.00762896
0.0076292
0.00762941
0.00762958
0.00762972
0.00762984
0.00762994
0.00763002
0.00763008
0.00763013
0.00763017
0.00763019
0.0076302
0.0076302
0.00763019
0.00763017
0.00763013
0.00763008
0.00763002
0.00762994
0.00762984
0.00762972
0.00762958
0.00762941
0.0076292
0.00762896
0.00762868
0.00762834
0.00762795
0.00762749
0.00762695
0.00762633
0.00762561
0.00762477
0.00762382
0.00762272
0.00762148
0.00762007
0.00761849
0.00761673
0.00761479
0.00761268
0.00761033
0.00779699
0.00779945
0.00780166
0.00780368
0.00780551
0.00780716
0.00780863
0.00780993
0.00781108
0.00781207
0.00781294
0.0078137
0.00781435
0.00781491
0.00781539
0.0078158
0.00781615
0.00781645
0.0078167
0.00781691
0.00781709
0.00781724
0.00781737
0.00781747
0.00781755
0.00781762
0.00781767
0.00781771
0.00781773
0.00781774
0.00781774
0.00781773
0.00781771
0.00781767
0.00781762
0.00781755
0.00781747
0.00781737
0.00781724
0.00781709
0.00781691
0.0078167
0.00781645
0.00781615
0.0078158
0.00781539
0.00781491
0.00781435
0.0078137
0.00781294
0.00781207
0.00781108
0.00780993
0.00780863
0.00780716
0.00780551
0.00780368
0.00780166
0.00779945
0.00779699
0.00800423
0.00800681
0.00800912
0.00801124
0.00801317
0.0080149
0.00801644
0.0080178
0.008019
0.00802004
0.00802096
0.00802175
0.00802243
0.00802302
0.00802352
0.00802395
0.00802432
0.00802463
0.00802489
0.00802512
0.00802531
0.00802546
0.00802559
0.0080257
0.00802579
0.00802586
0.00802591
0.00802595
0.00802598
0.00802599
0.00802599
0.00802598
0.00802595
0.00802591
0.00802586
0.00802579
0.0080257
0.00802559
0.00802546
0.00802531
0.00802512
0.00802489
0.00802463
0.00802432
0.00802395
0.00802352
0.00802302
0.00802243
0.00802175
0.00802096
0.00802004
0.008019
0.0080178
0.00801644
0.0080149
0.00801317
0.00801124
0.00800912
0.00800681
0.00800423
0.00823568
0.0082384
0.00824083
0.00824307
0.00824509
0.00824691
0.00824854
0.00824997
0.00825123
0.00825233
0.00825329
0.00825413
0.00825485
0.00825546
0.00825599
0.00825645
0.00825684
0.00825717
0.00825744
0.00825768
0.00825788
0.00825804
0.00825818
0.0082583
0.00825839
0.00825846
0.00825852
0.00825856
0.00825859
0.0082586
0.0082586
0.00825859
0.00825856
0.00825852
0.00825846
0.00825839
0.0082583
0.00825818
0.00825804
0.00825788
0.00825768
0.00825744
0.00825717
0.00825684
0.00825645
0.00825599
0.00825546
0.00825485
0.00825413
0.00825329
0.00825233
0.00825123
0.00824997
0.00824854
0.00824691
0.00824509
0.00824307
0.00824083
0.0082384
0.00823568
0.0084959
0.00849878
0.00850136
0.00850372
0.00850587
0.00850779
0.00850951
0.00851103
0.00851237
0.00851353
0.00851455
0.00851543
0.00851619
0.00851685
0.00851741
0.00851789
0.0085183
0.00851865
0.00851895
0.0085192
0.00851941
0.00851958
0.00851973
0.00851985
0.00851995
0.00852003
0.00852009
0.00852013
0.00852016
0.00852017
0.00852017
0.00852016
0.00852013
0.00852009
0.00852003
0.00851995
0.00851985
0.00851973
0.00851958
0.00851941
0.0085192
0.00851895
0.00851865
0.0085183
0.00851789
0.00851741
0.00851685
0.00851619
0.00851543
0.00851455
0.00851353
0.00851237
0.00851103
0.00850951
0.00850779
0.00850587
0.00850372
0.00850136
0.00849878
0.0084959
0.00879072
0.00879379
0.00879654
0.00879905
0.00880134
0.00880339
0.00880522
0.00880684
0.00880827
0.00880951
0.0088106
0.00881154
0.00881235
0.00881305
0.00881365
0.00881416
0.0088146
0.00881497
0.00881528
0.00881555
0.00881577
0.00881596
0.00881612
0.00881625
0.00881635
0.00881644
0.0088165
0.00881655
0.00881658
0.00881659
0.00881659
0.00881658
0.00881655
0.0088165
0.00881644
0.00881635
0.00881625
0.00881612
0.00881596
0.00881577
0.00881555
0.00881528
0.00881497
0.0088146
0.00881416
0.00881365
0.00881305
0.00881235
0.00881154
0.0088106
0.00880951
0.00880827
0.00880684
0.00880522
0.00880339
0.00880134
0.00879905
0.00879654
0.00879379
0.00879072
0.00912772
0.00913101
0.00913396
0.00913666
0.00913911
0.00914132
0.00914328
0.00914502
0.00914655
0.00914789
0.00914905
0.00915006
0.00915093
0.00915168
0.00915233
0.00915288
0.00915335
0.00915375
0.00915409
0.00915438
0.00915462
0.00915482
0.00915499
0.00915513
0.00915524
0.00915533
0.0091554
0.00915545
0.00915548
0.00915549
0.00915549
0.00915548
0.00915545
0.0091554
0.00915533
0.00915524
0.00915513
0.00915499
0.00915482
0.00915462
0.00915438
0.00915409
0.00915375
0.00915335
0.00915288
0.00915233
0.00915168
0.00915093
0.00915006
0.00914905
0.00914789
0.00914655
0.00914502
0.00914328
0.00914132
0.00913911
0.00913666
0.00913396
0.00913101
0.00912772
0.00951691
0.00952047
0.00952366
0.00952659
0.00952925
0.00953164
0.00953377
0.00953565
0.00953731
0.00953876
0.00954002
0.00954111
0.00954206
0.00954287
0.00954357
0.00954417
0.00954468
0.00954511
0.00954548
0.00954579
0.00954605
0.00954627
0.00954645
0.0095466
0.00954673
0.00954682
0.0095469
0.00954695
0.00954699
0.00954701
0.00954701
0.00954699
0.00954695
0.0095469
0.00954682
0.00954673
0.0095466
0.00954645
0.00954627
0.00954605
0.00954579
0.00954548
0.00954511
0.00954468
0.00954417
0.00954357
0.00954287
0.00954206
0.00954111
0.00954002
0.00953876
0.00953731
0.00953565
0.00953377
0.00953164
0.00952925
0.00952659
0.00952366
0.00952047
0.00951691
0.00997187
0.00997576
0.00997926
0.00998246
0.00998537
0.00998799
0.00999032
0.00999238
0.0099942
0.00999579
0.00999717
0.00999837
0.00999941
0.0100003
0.0100011
0.0100017
0.0100023
0.0100028
0.0100032
0.0100035
0.0100038
0.010004
0.0100042
0.0100044
0.0100045
0.0100046
0.0100047
0.0100048
0.0100048
0.0100048
0.0100048
0.0100048
0.0100048
0.0100047
0.0100046
0.0100045
0.0100044
0.0100042
0.010004
0.0100038
0.0100035
0.0100032
0.0100028
0.0100023
0.0100017
0.0100011
0.0100003
0.00999941
0.00999837
0.00999717
0.00999579
0.0099942
0.00999238
0.00999032
0.00998799
0.00998537
0.00998246
0.00997926
0.00997576
0.00997187
0.0105114
0.0105157
0.0105196
0.0105231
0.0105264
0.0105293
0.0105319
0.0105341
0.0105362
0.0105379
0.0105395
0.0105408
0.0105419
0.0105429
0.0105438
0.0105445
0.0105451
0.0105457
0.0105461
0.0105465
0.0105468
0.0105471
0.0105473
0.0105475
0.0105476
0.0105477
0.0105478
0.0105479
0.0105479
0.010548
0.010548
0.0105479
0.0105479
0.0105478
0.0105477
0.0105476
0.0105475
0.0105473
0.0105471
0.0105468
0.0105465
0.0105461
0.0105457
0.0105451
0.0105445
0.0105438
0.0105429
0.0105419
0.0105408
0.0105395
0.0105379
0.0105362
0.0105341
0.0105319
0.0105293
0.0105264
0.0105231
0.0105196
0.0105157
0.0105114
0.0111622
0.011167
0.0111714
0.0111754
0.0111791
0.0111823
0.0111853
0.0111878
0.0111901
0.0111921
0.0111938
0.0111953
0.0111966
0.0111978
0.0111987
0.0111995
0.0112002
0.0112008
0.0112014
0.0112018
0.0112021
0.0112024
0.0112027
0.0112029
0.0112031
0.0112032
0.0112033
0.0112034
0.0112034
0.0112035
0.0112035
0.0112034
0.0112034
0.0112033
0.0112032
0.0112031
0.0112029
0.0112027
0.0112024
0.0112021
0.0112018
0.0112014
0.0112008
0.0112002
0.0111995
0.0111987
0.0111978
0.0111966
0.0111953
0.0111938
0.0111921
0.0111901
0.0111878
0.0111853
0.0111823
0.0111791
0.0111754
0.0111714
0.011167
0.0111622
0.0119631
0.0119687
0.0119737
0.0119783
0.0119825
0.0119863
0.0119896
0.0119926
0.0119952
0.0119975
0.0119995
0.0120012
0.0120027
0.012004
0.0120051
0.0120061
0.0120069
0.0120076
0.0120082
0.0120087
0.0120091
0.0120094
0.0120097
0.01201
0.0120102
0.0120103
0.0120104
0.0120105
0.0120106
0.0120106
0.0120106
0.0120106
0.0120105
0.0120104
0.0120103
0.0120102
0.01201
0.0120097
0.0120094
0.0120091
0.0120087
0.0120082
0.0120076
0.0120069
0.0120061
0.0120051
0.012004
0.0120027
0.0120012
0.0119995
0.0119975
0.0119952
0.0119926
0.0119896
0.0119863
0.0119825
0.0119783
0.0119737
0.0119687
0.0119631
0.0129714
0.0129779
0.0129838
0.0129893
0.0129942
0.0129987
0.0130026
0.0130061
0.0130092
0.0130119
0.0130143
0.0130163
0.0130181
0.0130196
0.0130209
0.0130221
0.013023
0.0130238
0.0130245
0.0130251
0.0130256
0.013026
0.0130264
0.0130266
0.0130269
0.013027
0.0130272
0.0130273
0.0130274
0.0130274
0.0130274
0.0130274
0.0130273
0.0130272
0.013027
0.0130269
0.0130266
0.0130264
0.013026
0.0130256
0.0130251
0.0130245
0.0130238
0.013023
0.0130221
0.0130209
0.0130196
0.0130181
0.0130163
0.0130143
0.0130119
0.0130092
0.0130061
0.0130026
0.0129987
0.0129942
0.0129893
0.0129838
0.0129779
0.0129714
0.0142713
0.0142791
0.0142862
0.0142928
0.0142988
0.0143042
0.014309
0.0143132
0.014317
0.0143203
0.0143231
0.0143256
0.0143277
0.0143296
0.0143312
0.0143325
0.0143337
0.0143347
0.0143355
0.0143362
0.0143368
0.0143373
0.0143377
0.0143381
0.0143383
0.0143386
0.0143387
0.0143389
0.0143389
0.014339
0.014339
0.0143389
0.0143389
0.0143387
0.0143386
0.0143383
0.0143381
0.0143377
0.0143373
0.0143368
0.0143362
0.0143355
0.0143347
0.0143337
0.0143325
0.0143312
0.0143296
0.0143277
0.0143256
0.0143231
0.0143203
0.014317
0.0143132
0.014309
0.0143042
0.0142988
0.0142928
0.0142862
0.0142791
0.0142713
0.0159819
0.0159915
0.0160004
0.0160085
0.016016
0.0160227
0.0160286
0.0160339
0.0160386
0.0160426
0.0160462
0.0160493
0.0160519
0.0160542
0.0160562
0.0160579
0.0160593
0.0160606
0.0160616
0.0160625
0.0160632
0.0160639
0.0160644
0.0160648
0.0160651
0.0160654
0.0160656
0.0160658
0.0160659
0.0160659
0.0160659
0.0160659
0.0160658
0.0160656
0.0160654
0.0160651
0.0160648
0.0160644
0.0160639
0.0160632
0.0160625
0.0160616
0.0160606
0.0160593
0.0160579
0.0160562
0.0160542
0.0160519
0.0160493
0.0160462
0.0160426
0.0160386
0.0160339
0.0160286
0.0160227
0.016016
0.0160085
0.0160004
0.0159915
0.0159819
0.0182595
0.0182717
0.0182828
0.0182932
0.0183026
0.018311
0.0183186
0.0183253
0.0183312
0.0183363
0.0183408
0.0183448
0.0183481
0.018351
0.0183535
0.0183557
0.0183575
0.0183591
0.0183604
0.0183615
0.0183624
0.0183632
0.0183639
0.0183644
0.0183649
0.0183652
0.0183655
0.0183657
0.0183658
0.0183659
0.0183659
0.0183658
0.0183657
0.0183655
0.0183652
0.0183649
0.0183644
0.0183639
0.0183632
0.0183624
0.0183615
0.0183604
0.0183591
0.0183575
0.0183557
0.0183535
0.018351
0.0183481
0.0183448
0.0183408
0.0183363
0.0183312
0.0183253
0.0183186
0.018311
0.0183026
0.0182932
0.0182828
0.0182717
0.0182595
0.0212826
0.0212979
0.0213121
0.0213253
0.0213372
0.021348
0.0213576
0.0213661
0.0213736
0.0213802
0.0213859
0.0213909
0.0213952
0.0213989
0.0214021
0.0214048
0.0214071
0.0214091
0.0214108
0.0214122
0.0214134
0.0214144
0.0214152
0.0214159
0.0214165
0.0214169
0.0214173
0.0214175
0.0214177
0.0214178
0.0214178
0.0214177
0.0214175
0.0214173
0.0214169
0.0214165
0.0214159
0.0214152
0.0214144
0.0214134
0.0214122
0.0214108
0.0214091
0.0214071
0.0214048
0.0214021
0.0213989
0.0213952
0.0213909
0.0213859
0.0213802
0.0213736
0.0213661
0.0213576
0.021348
0.0213372
0.0213253
0.0213121
0.0212979
0.0212826
0.0252119
0.0252312
0.0252491
0.0252656
0.0252806
0.0252942
0.0253062
0.025317
0.0253264
0.0253346
0.0253418
0.0253481
0.0253535
0.0253582
0.0253622
0.0253656
0.0253685
0.025371
0.0253732
0.025375
0.0253765
0.0253777
0.0253788
0.0253797
0.0253804
0.0253809
0.0253814
0.0253817
0.0253819
0.025382
0.025382
0.0253819
0.0253817
0.0253814
0.0253809
0.0253804
0.0253797
0.0253788
0.0253777
0.0253765
0.025375
0.0253732
0.025371
0.0253685
0.0253656
0.0253622
0.0253582
0.0253535
0.0253481
0.0253418
0.0253346
0.0253264
0.025317
0.0253062
0.0252942
0.0252806
0.0252656
0.0252491
0.0252312
0.0252119
0.0301369
0.0301607
0.0301827
0.0302029
0.0302214
0.030238
0.0302528
0.0302659
0.0302775
0.0302876
0.0302965
0.0303041
0.0303108
0.0303165
0.0303214
0.0303256
0.0303292
0.0303323
0.0303349
0.0303371
0.030339
0.0303405
0.0303418
0.0303429
0.0303437
0.0303444
0.030345
0.0303454
0.0303456
0.0303457
0.0303457
0.0303456
0.0303454
0.030345
0.0303444
0.0303437
0.0303429
0.0303418
0.0303405
0.030339
0.0303371
0.0303349
0.0303323
0.0303292
0.0303256
0.0303214
0.0303165
0.0303108
0.0303041
0.0302965
0.0302876
0.0302775
0.0302659
0.0302528
0.030238
0.0302214
0.0302029
0.0301827
0.0301607
0.0301369
0.0360377
0.0360661
0.0360922
0.0361163
0.0361382
0.0361579
0.0361755
0.036191
0.0362048
0.0362168
0.0362273
0.0362364
0.0362443
0.0362511
0.036257
0.036262
0.0362662
0.0362699
0.036273
0.0362756
0.0362778
0.0362797
0.0362812
0.0362825
0.0362835
0.0362844
0.036285
0.0362854
0.0362857
0.0362859
0.0362859
0.0362857
0.0362854
0.036285
0.0362844
0.0362835
0.0362825
0.0362812
0.0362797
0.0362778
0.0362756
0.036273
0.0362699
0.0362662
0.036262
0.036257
0.0362511
0.0362443
0.0362364
0.0362273
0.0362168
0.0362048
0.036191
0.0361755
0.0361579
0.0361382
0.0361163
0.0360922
0.0360661
0.0360377
0.0427917
0.0428245
0.0428546
0.0428823
0.0429074
0.0429301
0.0429503
0.0429682
0.042984
0.0429978
0.0430099
0.0430204
0.0430294
0.0430373
0.043044
0.0430498
0.0430547
0.0430589
0.0430625
0.0430655
0.0430681
0.0430702
0.043072
0.0430734
0.0430746
0.0430756
0.0430763
0.0430769
0.0430772
0.0430774
0.0430774
0.0430772
0.0430769
0.0430763
0.0430756
0.0430746
0.0430734
0.043072
0.0430702
0.0430681
0.0430655
0.0430625
0.0430589
0.0430547
0.0430498
0.043044
0.0430373
0.0430294
0.0430204
0.0430099
0.0429978
0.042984
0.0429682
0.0429503
0.0429301
0.0429074
0.0428823
0.0428546
0.0428245
0.0427917
0.0502229
0.0502599
0.0502937
0.0503247
0.0503528
0.0503781
0.0504007
0.0504208
0.0504384
0.0504539
0.0504674
0.0504792
0.0504893
0.0504981
0.0505057
0.0505121
0.0505177
0.0505224
0.0505264
0.0505298
0.0505327
0.0505351
0.0505371
0.0505387
0.0505401
0.0505411
0.050542
0.0505426
0.050543
0.0505432
0.0505432
0.050543
0.0505426
0.050542
0.0505411
0.0505401
0.0505387
0.0505371
0.0505351
0.0505327
0.0505298
0.0505264
0.0505224
0.0505177
0.0505121
0.0505057
0.0504981
0.0504893
0.0504792
0.0504674
0.0504539
0.0504384
0.0504208
0.0504007
0.0503781
0.0503528
0.0503247
0.0502937
0.0502599
0.0502229
0.0581596
0.0582003
0.0582375
0.0582715
0.0583024
0.0583301
0.0583549
0.0583769
0.0583962
0.0584132
0.0584281
0.058441
0.0584521
0.0584618
0.0584701
0.0584772
0.0584833
0.0584885
0.0584929
0.0584967
0.0584998
0.0585025
0.0585047
0.0585065
0.058508
0.0585092
0.0585101
0.0585108
0.0585112
0.0585114
0.0585114
0.0585112
0.0585108
0.0585101
0.0585092
0.058508
0.0585065
0.0585047
0.0585025
0.0584998
0.0584967
0.0584929
0.0584885
0.0584833
0.0584772
0.0584701
0.0584618
0.0584521
0.058441
0.0584281
0.0584132
0.0583962
0.0583769
0.0583549
0.0583301
0.0583024
0.0582715
0.0582375
0.0582003
0.0581596
0.0664678
0.0665121
0.0665525
0.0665893
0.0666227
0.0666527
0.0666795
0.0667033
0.0667242
0.0667426
0.0667587
0.0667727
0.0667848
0.0667953
0.0668043
0.066812
0.0668186
0.0668243
0.0668291
0.0668332
0.0668366
0.0668395
0.0668419
0.0668439
0.0668455
0.0668468
0.0668478
0.0668485
0.066849
0.0668492
0.0668492
0.066849
0.0668485