/*--------------------------------*- C++ -*----------------------------------*\
| =========                 |                                                 |
| \\      /  F ield         | foam-extend: Open Source CFD                    |
|  \\    /   O peration     | Version:     4.0                                |
|   \\  /    A nd           | Web:         http://www.foam-extend.org         |
|    \\/     M anipulation  |                                                 |
\*---------------------------------------------------------------------------*/
FoamFile
{
    version     2.0;
    format      ascii;
    class       volScalarField;
    location    "980";
    object      cMinus;
}
// * * * * * * * * * * * * * * * * * * * * * * * * * * * * * * * * * * * * * //

dimensions      [0 0 0 0 0 0 0];

internalField   nonuniform List<scalar> 
6960
(
1.50334e-12
1.50336e-12
1.50277e-12
1.50266e-12
1.50276e-12
1.50292e-12
1.50311e-12
1.50329e-12
1.50347e-12
1.50365e-12
1.50381e-12
1.50396e-12
1.50411e-12
1.50424e-12
1.50437e-12
1.50449e-12
1.50459e-12
1.50469e-12
1.50479e-12
1.50487e-12
1.50494e-12
1.50501e-12
1.50507e-12
1.50512e-12
1.50517e-12
1.50521e-12
1.50524e-12
1.50526e-12
1.50527e-12
1.50528e-12
1.50528e-12
1.50527e-12
1.50526e-12
1.50524e-12
1.50521e-12
1.50517e-12
1.50512e-12
1.50507e-12
1.50501e-12
1.50494e-12
1.50487e-12
1.50479e-12
1.50469e-12
1.50459e-12
1.50449e-12
1.50437e-12
1.50424e-12
1.50411e-12
1.50396e-12
1.50381e-12
1.50365e-12
1.50347e-12
1.50329e-12
1.50311e-12
1.50292e-12
1.50276e-12
1.50266e-12
1.50277e-12
1.50336e-12
1.50334e-12
1.04869e-11
1.04941e-11
1.04928e-11
1.0493e-11
1.0494e-11
1.04953e-11
1.04966e-11
1.04979e-11
1.04991e-11
1.05003e-11
1.05014e-11
1.05025e-11
1.05035e-11
1.05044e-11
1.05053e-11
1.05061e-11
1.05068e-11
1.05075e-11
1.05081e-11
1.05087e-11
1.05092e-11
1.05097e-11
1.05101e-11
1.05104e-11
1.05107e-11
1.0511e-11
1.05112e-11
1.05113e-11
1.05114e-11
1.05115e-11
1.05115e-11
1.05114e-11
1.05113e-11
1.05112e-11
1.0511e-11
1.05107e-11
1.05104e-11
1.05101e-11
1.05097e-11
1.05092e-11
1.05087e-11
1.05081e-11
1.05075e-11
1.05068e-11
1.05061e-11
1.05053e-11
1.05044e-11
1.05035e-11
1.05025e-11
1.05014e-11
1.05003e-11
1.04991e-11
1.04979e-11
1.04966e-11
1.04953e-11
1.0494e-11
1.0493e-11
1.04928e-11
1.04941e-11
1.04869e-11
6.74972e-11
6.75908e-11
6.7601e-11
6.7609e-11
6.76175e-11
6.76262e-11
6.76348e-11
6.7643e-11
6.76509e-11
6.76584e-11
6.76655e-11
6.76721e-11
6.76783e-11
6.76841e-11
6.76895e-11
6.76945e-11
6.76992e-11
6.77034e-11
6.77074e-11
6.77109e-11
6.77142e-11
6.77171e-11
6.77196e-11
6.77218e-11
6.77237e-11
6.77253e-11
6.77266e-11
6.77275e-11
6.77282e-11
6.77285e-11
6.77285e-11
6.77282e-11
6.77275e-11
6.77266e-11
6.77253e-11
6.77237e-11
6.77218e-11
6.77196e-11
6.77171e-11
6.77142e-11
6.77109e-11
6.77074e-11
6.77034e-11
6.76992e-11
6.76945e-11
6.76895e-11
6.76841e-11
6.76783e-11
6.76721e-11
6.76655e-11
6.76584e-11
6.76509e-11
6.7643e-11
6.76348e-11
6.76262e-11
6.76175e-11
6.7609e-11
6.7601e-11
6.75908e-11
6.74972e-11
4.27883e-10
4.28765e-10
4.28944e-10
4.29034e-10
4.29101e-10
4.2916e-10
4.29215e-10
4.29267e-10
4.29316e-10
4.29363e-10
4.29406e-10
4.29447e-10
4.29485e-10
4.29521e-10
4.29554e-10
4.29585e-10
4.29613e-10
4.29639e-10
4.29664e-10
4.29685e-10
4.29705e-10
4.29723e-10
4.29739e-10
4.29752e-10
4.29764e-10
4.29774e-10
4.29781e-10
4.29787e-10
4.29791e-10
4.29793e-10
4.29793e-10
4.29791e-10
4.29787e-10
4.29781e-10
4.29774e-10
4.29764e-10
4.29752e-10
4.29739e-10
4.29723e-10
4.29705e-10
4.29685e-10
4.29664e-10
4.29639e-10
4.29613e-10
4.29585e-10
4.29554e-10
4.29521e-10
4.29485e-10
4.29447e-10
4.29406e-10
4.29363e-10
4.29316e-10
4.29267e-10
4.29215e-10
4.2916e-10
4.29101e-10
4.29034e-10
4.28944e-10
4.28765e-10
4.27883e-10
2.67702e-09
2.68422e-09
2.68602e-09
2.68681e-09
2.68731e-09
2.6877e-09
2.68805e-09
2.68836e-09
2.68866e-09
2.68894e-09
2.68921e-09
2.68945e-09
2.68969e-09
2.6899e-09
2.6901e-09
2.69029e-09
2.69046e-09
2.69062e-09
2.69076e-09
2.69089e-09
2.69101e-09
2.69112e-09
2.69121e-09
2.6913e-09
2.69137e-09
2.69143e-09
2.69147e-09
2.69151e-09
2.69153e-09
2.69154e-09
2.69154e-09
2.69153e-09
2.69151e-09
2.69147e-09
2.69143e-09
2.69137e-09
2.6913e-09
2.69121e-09
2.69112e-09
2.69101e-09
2.69089e-09
2.69076e-09
2.69062e-09
2.69046e-09
2.69029e-09
2.6901e-09
2.6899e-09
2.68969e-09
2.68945e-09
2.68921e-09
2.68894e-09
2.68866e-09
2.68836e-09
2.68805e-09
2.6877e-09
2.68731e-09
2.68681e-09
2.68602e-09
2.68422e-09
2.67702e-09
1.6388e-08
1.64414e-08
1.64562e-08
1.64624e-08
1.64658e-08
1.64683e-08
1.64704e-08
1.64723e-08
1.64741e-08
1.64758e-08
1.64773e-08
1.64788e-08
1.64801e-08
1.64814e-08
1.64826e-08
1.64837e-08
1.64847e-08
1.64856e-08
1.64865e-08
1.64872e-08
1.64879e-08
1.64886e-08
1.64891e-08
1.64896e-08
1.649e-08
1.64903e-08
1.64906e-08
1.64908e-08
1.6491e-08
1.6491e-08
1.6491e-08
1.6491e-08
1.64908e-08
1.64906e-08
1.64903e-08
1.649e-08
1.64896e-08
1.64891e-08
1.64886e-08
1.64879e-08
1.64872e-08
1.64865e-08
1.64856e-08
1.64847e-08
1.64837e-08
1.64826e-08
1.64814e-08
1.64801e-08
1.64788e-08
1.64773e-08
1.64758e-08
1.64741e-08
1.64723e-08
1.64704e-08
1.64683e-08
1.64658e-08
1.64624e-08
1.64562e-08
1.64414e-08
1.6388e-08
9.70705e-08
9.74347e-08
9.75422e-08
9.75855e-08
9.7608e-08
9.76232e-08
9.76356e-08
9.76466e-08
9.76567e-08
9.76662e-08
9.7675e-08
9.76832e-08
9.76909e-08
9.7698e-08
9.77046e-08
9.77108e-08
9.77165e-08
9.77217e-08
9.77265e-08
9.77309e-08
9.77348e-08
9.77384e-08
9.77415e-08
9.77442e-08
9.77465e-08
9.77484e-08
9.775e-08
9.77511e-08
9.77519e-08
9.77522e-08
9.77522e-08
9.77519e-08
9.77511e-08
9.775e-08
9.77484e-08
9.77465e-08
9.77442e-08
9.77415e-08
9.77384e-08
9.77348e-08
9.77309e-08
9.77265e-08
9.77217e-08
9.77165e-08
9.77108e-08
9.77046e-08
9.7698e-08
9.76909e-08
9.76832e-08
9.7675e-08
9.76662e-08
9.76567e-08
9.76466e-08
9.76356e-08
9.76232e-08
9.7608e-08
9.75855e-08
9.75422e-08
9.74347e-08
9.70705e-08
5.49478e-07
5.51767e-07
5.5247e-07
5.52747e-07
5.52884e-07
5.52971e-07
5.5304e-07
5.531e-07
5.53155e-07
5.53206e-07
5.53253e-07
5.53297e-07
5.53339e-07
5.53377e-07
5.53412e-07
5.53445e-07
5.53476e-07
5.53504e-07
5.5353e-07
5.53553e-07
5.53574e-07
5.53593e-07
5.53609e-07
5.53624e-07
5.53636e-07
5.53647e-07
5.53655e-07
5.53661e-07
5.53665e-07
5.53667e-07
5.53667e-07
5.53665e-07
5.53661e-07
5.53655e-07
5.53647e-07
5.53636e-07
5.53624e-07
5.53609e-07
5.53593e-07
5.53574e-07
5.53553e-07
5.5353e-07
5.53504e-07
5.53476e-07
5.53445e-07
5.53412e-07
5.53377e-07
5.53339e-07
5.53297e-07
5.53253e-07
5.53206e-07
5.53155e-07
5.531e-07
5.5304e-07
5.52971e-07
5.52884e-07
5.52747e-07
5.5247e-07
5.51767e-07
5.49478e-07
2.93329e-06
2.94644e-06
2.9506e-06
2.95222e-06
2.95298e-06
2.95345e-06
2.95381e-06
2.95411e-06
2.95439e-06
2.95465e-06
2.95488e-06
2.95511e-06
2.95531e-06
2.9555e-06
2.95568e-06
2.95585e-06
2.956e-06
2.95614e-06
2.95627e-06
2.95639e-06
2.95649e-06
2.95658e-06
2.95667e-06
2.95674e-06
2.9568e-06
2.95685e-06
2.95689e-06
2.95693e-06
2.95695e-06
2.95696e-06
2.95696e-06
2.95695e-06
2.95693e-06
2.95689e-06
2.95685e-06
2.9568e-06
2.95674e-06
2.95667e-06
2.95658e-06
2.95649e-06
2.95639e-06
2.95627e-06
2.95614e-06
2.956e-06
2.95585e-06
2.95568e-06
2.9555e-06
2.95531e-06
2.95511e-06
2.95488e-06
2.95465e-06
2.95439e-06
2.95411e-06
2.95381e-06
2.95345e-06
2.95298e-06
2.95222e-06
2.9506e-06
2.94644e-06
2.93329e-06
1.45616e-05
1.46301e-05
1.46521e-05
1.46606e-05
1.46645e-05
1.46668e-05
1.46685e-05
1.467e-05
1.46712e-05
1.46724e-05
1.46735e-05
1.46746e-05
1.46755e-05
1.46764e-05
1.46772e-05
1.4678e-05
1.46787e-05
1.46793e-05
1.46799e-05
1.46805e-05
1.4681e-05
1.46814e-05
1.46818e-05
1.46821e-05
1.46824e-05
1.46826e-05
1.46828e-05
1.4683e-05
1.4683e-05
1.46831e-05
1.46831e-05
1.4683e-05
1.4683e-05
1.46828e-05
1.46826e-05
1.46824e-05
1.46821e-05
1.46818e-05
1.46814e-05
1.4681e-05
1.46805e-05
1.46799e-05
1.46793e-05
1.46787e-05
1.4678e-05
1.46772e-05
1.46764e-05
1.46755e-05
1.46746e-05
1.46735e-05
1.46724e-05
1.46712e-05
1.467e-05
1.46685e-05
1.46668e-05
1.46645e-05
1.46606e-05
1.46521e-05
1.46301e-05
1.45616e-05
6.62379e-05
6.65563e-05
6.66605e-05
6.67001e-05
6.6718e-05
6.67281e-05
6.67355e-05
6.67416e-05
6.67471e-05
6.67521e-05
6.67567e-05
6.6761e-05
6.6765e-05
6.67687e-05
6.67721e-05
6.67753e-05
6.67782e-05
6.67809e-05
6.67834e-05
6.67856e-05
6.67876e-05
6.67894e-05
6.6791e-05
6.67924e-05
6.67936e-05
6.67946e-05
6.67954e-05
6.6796e-05
6.67964e-05
6.67966e-05
6.67966e-05
6.67964e-05
6.6796e-05
6.67954e-05
6.67946e-05
6.67936e-05
6.67924e-05
6.6791e-05
6.67894e-05
6.67876e-05
6.67856e-05
6.67834e-05
6.67809e-05
6.67782e-05
6.67753e-05
6.67721e-05
6.67687e-05
6.6765e-05
6.6761e-05
6.67567e-05
6.67521e-05
6.67471e-05
6.67416e-05
6.67355e-05
6.67281e-05
6.6718e-05
6.67001e-05
6.66605e-05
6.65563e-05
6.62379e-05
0.00027184
0.000273143
0.000273574
0.000273737
0.000273809
0.000273849
0.000273877
0.0002739
0.000273921
0.000273939
0.000273956
0.000273972
0.000273987
0.000274001
0.000274014
0.000274026
0.000274036
0.000274046
0.000274056
0.000274064
0.000274071
0.000274078
0.000274084
0.000274089
0.000274094
0.000274097
0.0002741
0.000274102
0.000274104
0.000274105
0.000274105
0.000274104
0.000274102
0.0002741
0.000274097
0.000274094
0.000274089
0.000274084
0.000274078
0.000274071
0.000274064
0.000274056
0.000274046
0.000274036
0.000274026
0.000274014
0.000274001
0.000273987
0.000273972
0.000273956
0.000273939
0.000273921
0.0002739
0.000273877
0.000273849
0.000273809
0.000273737
0.000273574
0.000273143
0.00027184
0.000990337
0.00099495
0.000996487
0.000997065
0.000997316
0.000997452
0.000997546
0.000997622
0.000997688
0.000997749
0.000997805
0.000997857
0.000997905
0.000997949
0.000997991
0.000998029
0.000998064
0.000998096
0.000998126
0.000998153
0.000998177
0.000998199
0.000998218
0.000998234
0.000998249
0.00099826
0.00099827
0.000998277
0.000998282
0.000998284
0.000998284
0.000998282
0.000998277
0.00099827
0.00099826
0.000998249
0.000998234
0.000998218
0.000998199
0.000998177
0.000998153
0.000998126
0.000998096
0.000998064
0.000998029
0.000997991
0.000997949
0.000997905
0.000997857
0.000997805
0.000997749
0.000997688
0.000997622
0.000997546
0.000997452
0.000997316
0.000997065
0.000996487
0.00099495
0.000990337
0.00315033
0.00316417
0.00316881
0.00317054
0.00317128
0.00317168
0.00317194
0.00317216
0.00317234
0.00317251
0.00317267
0.00317281
0.00317294
0.00317307
0.00317318
0.00317328
0.00317338
0.00317347
0.00317355
0.00317363
0.00317369
0.00317375
0.0031738
0.00317385
0.00317389
0.00317392
0.00317395
0.00317397
0.00317398
0.00317399
0.00317399
0.00317398
0.00317397
0.00317395
0.00317392
0.00317389
0.00317385
0.0031738
0.00317375
0.00317369
0.00317363
0.00317355
0.00317347
0.00317338
0.00317328
0.00317318
0.00317307
0.00317294
0.00317281
0.00317267
0.00317251
0.00317234
0.00317216
0.00317194
0.00317168
0.00317128
0.00317054
0.00316881
0.00316417
0.00315033
0.00861879
0.00865335
0.00866497
0.0086693
0.00867113
0.00867208
0.00867271
0.00867321
0.00867364
0.00867403
0.00867439
0.00867472
0.00867503
0.00867531
0.00867557
0.00867581
0.00867604
0.00867624
0.00867643
0.0086766
0.00867675
0.00867689
0.00867701
0.00867711
0.0086772
0.00867728
0.00867734
0.00867738
0.00867741
0.00867743
0.00867743
0.00867741
0.00867738
0.00867734
0.00867728
0.0086772
0.00867711
0.00867701
0.00867689
0.00867675
0.0086766
0.00867643
0.00867624
0.00867604
0.00867581
0.00867557
0.00867531
0.00867503
0.00867472
0.00867439
0.00867403
0.00867364
0.00867321
0.00867271
0.00867208
0.00867113
0.0086693
0.00866497
0.00865335
0.00861879
0.0200695
0.0201404
0.0201643
0.0201732
0.0201769
0.0201788
0.02018
0.020181
0.0201818
0.0201826
0.0201832
0.0201839
0.0201844
0.020185
0.0201855
0.0201859
0.0201864
0.0201867
0.0201871
0.0201874
0.0201877
0.020188
0.0201882
0.0201884
0.0201886
0.0201887
0.0201888
0.0201889
0.0201889
0.020189
0.020189
0.0201889
0.0201889
0.0201888
0.0201887
0.0201886
0.0201884
0.0201882
0.020188
0.0201877
0.0201874
0.0201871
0.0201867
0.0201864
0.0201859
0.0201855
0.020185
0.0201844
0.0201839
0.0201832
0.0201826
0.0201818
0.020181
0.02018
0.0201788
0.0201769
0.0201732
0.0201643
0.0201404
0.0200695
0.0397402
0.0398598
0.0399003
0.0399153
0.0399215
0.0399246
0.0399266
0.0399281
0.0399294
0.0399306
0.0399316
0.0399326
0.0399335
0.0399343
0.0399351
0.0399358
0.0399365
0.0399371
0.0399376
0.0399381
0.0399385
0.0399389
0.0399393
0.0399396
0.0399399
0.0399401
0.0399403
0.0399404
0.0399405
0.0399405
0.0399405
0.0399405
0.0399404
0.0399403
0.0399401
0.0399399
0.0399396
0.0399393
0.0399389
0.0399385
0.0399381
0.0399376
0.0399371
0.0399365
0.0399358
0.0399351
0.0399343
0.0399335
0.0399326
0.0399316
0.0399306
0.0399294
0.0399281
0.0399266
0.0399246
0.0399215
0.0399153
0.0399003
0.0398598
0.0397402
0.0677128
0.0678829
0.0679406
0.0679619
0.0679707
0.067975
0.0679777
0.0679797
0.0679814
0.0679829
0.0679843
0.0679856
0.0679867
0.0679878
0.0679888
0.0679897
0.0679906
0.0679914
0.0679921
0.0679927
0.0679933
0.0679938
0.0679943
0.0679947
0.067995
0.0679953
0.0679955
0.0679957
0.0679958
0.0679958
0.0679958
0.0679958
0.0679957
0.0679955
0.0679953
0.067995
0.0679947
0.0679943
0.0679938
0.0679933
0.0679927
0.0679921
0.0679914
0.0679906
0.0679897
0.0679888
0.0679878
0.0679867
0.0679856
0.0679843
0.0679829
0.0679814
0.0679797
0.0679777
0.067975
0.0679707
0.0679619
0.0679406
0.0678829
0.0677128
0.101618
0.10183
0.101902
0.101929
0.10194
0.101945
0.101948
0.101951
0.101953
0.101954
0.101956
0.101957
0.101959
0.10196
0.101961
0.101962
0.101963
0.101964
0.101965
0.101966
0.101966
0.101967
0.101967
0.101968
0.101968
0.101968
0.101969
0.101969
0.101969
0.101969
0.101969
0.101969
0.101969
0.101969
0.101968
0.101968
0.101968
0.101967
0.101967
0.101966
0.101966
0.101965
0.101964
0.101963
0.101962
0.101961
0.10196
0.101959
0.101957
0.101956
0.101954
0.101953
0.101951
0.101948
0.101945
0.10194
0.101929
0.101902
0.10183
0.101618
0.138232
0.138474
0.138557
0.138588
0.1386
0.138606
0.138609
0.138612
0.138614
0.138616
0.138618
0.138619
0.13862
0.138622
0.138623
0.138624
0.138625
0.138626
0.138627
0.138627
0.138628
0.138629
0.138629
0.13863
0.13863
0.13863
0.138631
0.138631
0.138631
0.138631
0.138631
0.138631
0.138631
0.138631
0.13863
0.13863
0.13863
0.138629
0.138629
0.138628
0.138627
0.138627
0.138626
0.138625
0.138624
0.138623
0.138622
0.13862
0.138619
0.138618
0.138616
0.138614
0.138612
0.138609
0.138606
0.1386
0.138588
0.138557
0.138474
0.138232
0.175146
0.17541
0.175501
0.175535
0.175549
0.175555
0.175559
0.175561
0.175563
0.175565
0.175567
0.175568
0.17557
0.175571
0.175572
0.175573
0.175574
0.175575
0.175576
0.175577
0.175577
0.175578
0.175578
0.175579
0.175579
0.17558
0.17558
0.17558
0.17558
0.17558
0.17558
0.17558
0.17558
0.17558
0.17558
0.175579
0.175579
0.175578
0.175578
0.175577
0.175577
0.175576
0.175575
0.175574
0.175573
0.175572
0.175571
0.17557
0.175568
0.175567
0.175565
0.175563
0.175561
0.175559
0.175555
0.175549
0.175535
0.175501
0.17541
0.175146
0.211199
0.211481
0.21158
0.211616
0.211631
0.211638
0.211641
0.211644
0.211646
0.211648
0.211649
0.211651
0.211652
0.211653
0.211655
0.211656
0.211657
0.211657
0.211658
0.211659
0.21166
0.21166
0.211661
0.211661
0.211662
0.211662
0.211662
0.211662
0.211662
0.211662
0.211662
0.211662
0.211662
0.211662
0.211662
0.211662
0.211661
0.211661
0.21166
0.21166
0.211659
0.211658
0.211657
0.211657
0.211656
0.211655
0.211653
0.211652
0.211651
0.211649
0.211648
0.211646
0.211644
0.211641
0.211638
0.211631
0.211616
0.21158
0.211481
0.211199
0.246054
0.246352
0.246457
0.246496
0.246511
0.246519
0.246522
0.246525
0.246527
0.246529
0.24653
0.246532
0.246533
0.246534
0.246535
0.246536
0.246537
0.246538
0.246539
0.24654
0.24654
0.246541
0.246541
0.246542
0.246542
0.246542
0.246543
0.246543
0.246543
0.246543
0.246543
0.246543
0.246543
0.246543
0.246542
0.246542
0.246542
0.246541
0.246541
0.24654
0.24654
0.246539
0.246538
0.246537
0.246536
0.246535
0.246534
0.246533
0.246532
0.24653
0.246529
0.246527
0.246525
0.246522
0.246519
0.246511
0.246496
0.246457
0.246352
0.246054
0.279705
0.280017
0.280128
0.28017
0.280187
0.280194
0.280198
0.280201
0.280203
0.280205
0.280206
0.280207
0.280209
0.28021
0.280211
0.280212
0.280213
0.280214
0.280214
0.280215
0.280216
0.280216
0.280217
0.280217
0.280217
0.280218
0.280218
0.280218
0.280218
0.280218
0.280218
0.280218
0.280218
0.280218
0.280218
0.280217
0.280217
0.280217
0.280216
0.280216
0.280215
0.280214
0.280214
0.280213
0.280212
0.280211
0.28021
0.280209
0.280207
0.280206
0.280205
0.280203
0.280201
0.280198
0.280194
0.280187
0.28017
0.280128
0.280017
0.279705
0.312221
0.312545
0.312663
0.312707
0.312725
0.312733
0.312737
0.31274
0.312742
0.312744
0.312745
0.312746
0.312748
0.312749
0.31275
0.312751
0.312751
0.312752
0.312753
0.312754
0.312754
0.312755
0.312755
0.312756
0.312756
0.312756
0.312756
0.312757
0.312757
0.312757
0.312757
0.312757
0.312757
0.312756
0.312756
0.312756
0.312756
0.312755
0.312755
0.312754
0.312754
0.312753
0.312752
0.312751
0.312751
0.31275
0.312749
0.312748
0.312746
0.312745
0.312744
0.312742
0.31274
0.312737
0.312733
0.312725
0.312707
0.312663
0.312545
0.312221
0.343659
0.343994
0.344118
0.344165
0.344184
0.344192
0.344197
0.344199
0.344201
0.344203
0.344204
0.344206
0.344207
0.344208
0.344209
0.34421
0.344211
0.344211
0.344212
0.344213
0.344213
0.344214
0.344214
0.344215
0.344215
0.344215
0.344215
0.344216
0.344216
0.344216
0.344216
0.344216
0.344216
0.344215
0.344215
0.344215
0.344215
0.344214
0.344214
0.344213
0.344213
0.344212
0.344211
0.344211
0.34421
0.344209
0.344208
0.344207
0.344206
0.344204
0.344203
0.344201
0.344199
0.344197
0.344192
0.344184
0.344165
0.344118
0.343994
0.343659
0.374056
0.3744
0.374529
0.37458
0.3746
0.374608
0.374613
0.374616
0.374618
0.374619
0.374621
0.374622
0.374623
0.374624
0.374625
0.374626
0.374627
0.374627
0.374628
0.374629
0.374629
0.37463
0.37463
0.37463
0.374631
0.374631
0.374631
0.374631
0.374631
0.374631
0.374631
0.374631
0.374631
0.374631
0.374631
0.374631
0.37463
0.37463
0.37463
0.374629
0.374629
0.374628
0.374627
0.374627
0.374626
0.374625
0.374624
0.374623
0.374622
0.374621
0.374619
0.374618
0.374616
0.374613
0.374608
0.3746
0.37458
0.374529
0.3744
0.374056
0.403433
0.403785
0.40392
0.403973
0.403994
0.404004
0.404008
0.404011
0.404013
0.404015
0.404016
0.404017
0.404018
0.404019
0.40402
0.404021
0.404022
0.404022
0.404023
0.404024
0.404024
0.404024
0.404025
0.404025
0.404026
0.404026
0.404026
0.404026
0.404026
0.404026
0.404026
0.404026
0.404026
0.404026
0.404026
0.404026
0.404025
0.404025
0.404024
0.404024
0.404024
0.404023
0.404022
0.404022
0.404021
0.40402
0.404019
0.404018
0.404017
0.404016
0.404015
0.404013
0.404011
0.404008
0.404004
0.403994
0.403973
0.40392
0.403785
0.403433
0.431807
0.432166
0.432306
0.432362
0.432384
0.432394
0.432399
0.432401
0.432403
0.432405
0.432406
0.432407
0.432408
0.432409
0.43241
0.432411
0.432412
0.432412
0.432413
0.432414
0.432414
0.432414
0.432415
0.432415
0.432415
0.432416
0.432416
0.432416
0.432416
0.432416
0.432416
0.432416
0.432416
0.432416
0.432416
0.432415
0.432415
0.432415
0.432414
0.432414
0.432414
0.432413
0.432412
0.432412
0.432411
0.43241
0.432409
0.432408
0.432407
0.432406
0.432405
0.432403
0.432401
0.432399
0.432394
0.432384
0.432362
0.432306
0.432166
0.431807
0.459191
0.459555
0.459701
0.459759
0.459783
0.459793
0.459798
0.459801
0.459803
0.459804
0.459805
0.459806
0.459807
0.459808
0.459809
0.45981
0.459811
0.459811
0.459812
0.459812
0.459813
0.459813
0.459814
0.459814
0.459814
0.459814
0.459815
0.459815
0.459815
0.459815
0.459815
0.459815
0.459815
0.459815
0.459814
0.459814
0.459814
0.459814
0.459813
0.459813
0.459812
0.459812
0.459811
0.459811
0.45981
0.459809
0.459808
0.459807
0.459806
0.459805
0.459804
0.459803
0.459801
0.459798
0.459793
0.459783
0.459759
0.459701
0.459555
0.459191
0.4856
0.485968
0.486118
0.486178
0.486203
0.486214
0.486219
0.486222
0.486224
0.486226
0.486227
0.486228
0.486229
0.48623
0.48623
0.486231
0.486232
0.486232
0.486233
0.486233
0.486234
0.486234
0.486235
0.486235
0.486235
0.486235
0.486236
0.486236
0.486236
0.486236
0.486236
0.486236
0.486236
0.486236
0.486235
0.486235
0.486235
0.486235
0.486234
0.486234
0.486233
0.486233
0.486232
0.486232
0.486231
0.48623
0.48623
0.486229
0.486228
0.486227
0.486226
0.486224
0.486222
0.486219
0.486214
0.486203
0.486178
0.486118
0.485968
0.4856
0.511046
0.511417
0.511571
0.511634
0.51166
0.511672
0.511677
0.51168
0.511682
0.511683
0.511684
0.511686
0.511686
0.511687
0.511688
0.511689
0.511689
0.51169
0.51169
0.511691
0.511691
0.511692
0.511692
0.511692
0.511693
0.511693
0.511693
0.511693
0.511693
0.511693
0.511693
0.511693
0.511693
0.511693
0.511693
0.511693
0.511692
0.511692
0.511692
0.511691
0.511691
0.51169
0.51169
0.511689
0.511689
0.511688
0.511687
0.511686
0.511686
0.511684
0.511683
0.511682
0.51168
0.511677
0.511672
0.51166
0.511634
0.511571
0.511417
0.511046
0.535545
0.535917
0.536075
0.536141
0.536168
0.53618
0.536186
0.536189
0.536191
0.536192
0.536194
0.536195
0.536195
0.536196
0.536197
0.536198
0.536198
0.536199
0.536199
0.5362
0.5362
0.5362
0.536201
0.536201
0.536201
0.536201
0.536202
0.536202
0.536202
0.536202
0.536202
0.536202
0.536202
0.536202
0.536201
0.536201
0.536201
0.536201
0.5362
0.5362
0.5362
0.536199
0.536199
0.536198
0.536198
0.536197
0.536196
0.536195
0.536195
0.536194
0.536192
0.536191
0.536189
0.536186
0.53618
0.536168
0.536141
0.536075
0.535917
0.535545
0.559112
0.559486
0.559647
0.559715
0.559744
0.559757
0.559763
0.559766
0.559768
0.559769
0.55977
0.559771
0.559772
0.559773
0.559773
0.559774
0.559774
0.559775
0.559775
0.559776
0.559776
0.559777
0.559777
0.559777
0.559777
0.559778
0.559778
0.559778
0.559778
0.559778
0.559778
0.559778
0.559778
0.559778
0.559778
0.559777
0.559777
0.559777
0.559777
0.559776
0.559776
0.559775
0.559775
0.559774
0.559774
0.559773
0.559773
0.559772
0.559771
0.55977
0.559769
0.559768
0.559766
0.559763
0.559757
0.559744
0.559715
0.559647
0.559486
0.559112
0.581766
0.582139
0.582304
0.582374
0.582404
0.582417
0.582424
0.582427
0.582429
0.58243
0.582431
0.582432
0.582433
0.582434
0.582434
0.582435
0.582435
0.582436
0.582436
0.582437
0.582437
0.582437
0.582438
0.582438
0.582438
0.582438
0.582438
0.582439
0.582439
0.582439
0.582439
0.582439
0.582439
0.582438
0.582438
0.582438
0.582438
0.582438
0.582437
0.582437
0.582437
0.582436
0.582436
0.582435
0.582435
0.582434
0.582434
0.582433
0.582432
0.582431
0.58243
0.582429
0.582427
0.582424
0.582417
0.582404
0.582374
0.582304
0.582139
0.581766
0.603524
0.603896
0.604063
0.604136
0.604167
0.604181
0.604188
0.604191
0.604193
0.604194
0.604195
0.604196
0.604197
0.604197
0.604198
0.604199
0.604199
0.6042
0.6042
0.6042
0.604201
0.604201
0.604201
0.604202
0.604202
0.604202
0.604202
0.604202
0.604202
0.604202
0.604202
0.604202
0.604202
0.604202
0.604202
0.604202
0.604202
0.604201
0.604201
0.604201
0.6042
0.6042
0.6042
0.604199
0.604199
0.604198
0.604197
0.604197
0.604196
0.604195
0.604194
0.604193
0.604191
0.604188
0.604181
0.604167
0.604136
0.604063
0.603896
0.603524
0.624406
0.624775
0.624944
0.625019
0.625052
0.625067
0.625073
0.625077
0.625079
0.62508
0.625081
0.625082
0.625083
0.625083
0.625084
0.625084
0.625085
0.625085
0.625086
0.625086
0.625086
0.625087
0.625087
0.625087
0.625087
0.625087
0.625087
0.625088
0.625088
0.625088
0.625088
0.625088
0.625088
0.625087
0.625087
0.625087
0.625087
0.625087
0.625087
0.625086
0.625086
0.625086
0.625085
0.625085
0.625084
0.625084
0.625083
0.625083
0.625082
0.625081
0.62508
0.625079
0.625077
0.625073
0.625067
0.625052
0.625019
0.624944
0.624775
0.624406
0.64443
0.644796
0.644967
0.645044
0.645078
0.645094
0.645101
0.645104
0.645106
0.645108
0.645109
0.645109
0.64511
0.645111
0.645111
0.645112
0.645112
0.645112
0.645113
0.645113
0.645113
0.645114
0.645114
0.645114
0.645114
0.645115
0.645115
0.645115
0.645115
0.645115
0.645115
0.645115
0.645115
0.645115
0.645115
0.645114
0.645114
0.645114
0.645114
0.645113
0.645113
0.645113
0.645112
0.645112
0.645112
0.645111
0.645111
0.64511
0.645109
0.645109
0.645108
0.645106
0.645104
0.645101
0.645094
0.645078
0.645044
0.644967
0.644796
0.64443
0.663617
0.66398
0.664153
0.664232
0.664267
0.664283
0.66429
0.664294
0.664296
0.664297
0.664298
0.664299
0.6643
0.6643
0.664301
0.664301
0.664302
0.664302
0.664302
0.664303
0.664303
0.664303
0.664303
0.664304
0.664304
0.664304
0.664304
0.664304
0.664304
0.664304
0.664304
0.664304
0.664304
0.664304
0.664304
0.664304
0.664304
0.664303
0.664303
0.664303
0.664303
0.664302
0.664302
0.664302
0.664301
0.664301
0.6643
0.6643
0.664299
0.664298
0.664297
0.664296
0.664294
0.66429
0.664283
0.664267
0.664232
0.664153
0.66398
0.663617
0.681989
0.682347
0.682521
0.682602
0.682638
0.682655
0.682663
0.682667
0.682669
0.68267
0.682671
0.682672
0.682672
0.682673
0.682673
0.682674
0.682674
0.682674
0.682675
0.682675
0.682675
0.682676
0.682676
0.682676
0.682676
0.682676
0.682676
0.682676
0.682676
0.682676
0.682676
0.682676
0.682676
0.682676
0.682676
0.682676
0.682676
0.682676
0.682676
0.682675
0.682675
0.682675
0.682674
0.682674
0.682674
0.682673
0.682673
0.682672
0.682672
0.682671
0.68267
0.682669
0.682667
0.682663
0.682655
0.682638
0.682602
0.682521
0.682347
0.681989
0.699566
0.699919
0.700094
0.700176
0.700214
0.700232
0.70024
0.700244
0.700246
0.700247
0.700248
0.700249
0.700249
0.70025
0.70025
0.700251
0.700251
0.700251
0.700252
0.700252
0.700252
0.700253
0.700253
0.700253
0.700253
0.700253
0.700253
0.700253
0.700253
0.700253
0.700253
0.700253
0.700253
0.700253
0.700253
0.700253
0.700253
0.700253
0.700253
0.700252
0.700252
0.700252
0.700251
0.700251
0.700251
0.70025
0.70025
0.700249
0.700249
0.700248
0.700247
0.700246
0.700244
0.70024
0.700232
0.700214
0.700176
0.700094
0.699919
0.699566
0.716371
0.716718
0.716893
0.716977
0.717016
0.717034
0.717043
0.717047
0.717049
0.717051
0.717052
0.717052
0.717053
0.717053
0.717054
0.717054
0.717054
0.717055
0.717055
0.717055
0.717056
0.717056
0.717056
0.717056
0.717056
0.717056
0.717056
0.717056
0.717056
0.717057
0.717057
0.717056
0.717056
0.717056
0.717056
0.717056
0.717056
0.717056
0.717056
0.717056
0.717055
0.717055
0.717055
0.717054
0.717054
0.717054
0.717053
0.717053
0.717052
0.717052
0.717051
0.717049
0.717047
0.717043
0.717034
0.717016
0.716977
0.716893
0.716718
0.716371
0.732425
0.732765
0.732941
0.733026
0.733067
0.733085
0.733094
0.733099
0.733101
0.733102
0.733103
0.733104
0.733104
0.733105
0.733105
0.733106
0.733106
0.733106
0.733106
0.733107
0.733107
0.733107
0.733107
0.733107
0.733108
0.733108
0.733108
0.733108
0.733108
0.733108
0.733108
0.733108
0.733108
0.733108
0.733108
0.733108
0.733107
0.733107
0.733107
0.733107
0.733107
0.733106
0.733106
0.733106
0.733106
0.733105
0.733105
0.733104
0.733104
0.733103
0.733102
0.733101
0.733099
0.733094
0.733085
0.733067
0.733026
0.732941
0.732765
0.732425
0.74775
0.748084
0.748259
0.748346
0.748387
0.748407
0.748416
0.74842
0.748423
0.748424
0.748425
0.748426
0.748426
0.748427
0.748427
0.748427
0.748428
0.748428
0.748428
0.748428
0.748429
0.748429
0.748429
0.748429
0.748429
0.748429
0.748429
0.748429
0.748429
0.748429
0.748429
0.748429
0.748429
0.748429
0.748429
0.748429
0.748429
0.748429
0.748429
0.748429
0.748428
0.748428
0.748428
0.748428
0.748427
0.748427
0.748427
0.748426
0.748426
0.748425
0.748424
0.748423
0.74842
0.748416
0.748407
0.748387
0.748346
0.748259
0.748084
0.74775
0.762368
0.762695
0.76287
0.762957
0.763
0.76302
0.76303
0.763035
0.763037
0.763039
0.763039
0.76304
0.763041
0.763041
0.763041
0.763042
0.763042
0.763042
0.763042
0.763043
0.763043
0.763043
0.763043
0.763043
0.763043
0.763043
0.763043
0.763043
0.763043
0.763043
0.763043
0.763043
0.763043
0.763043
0.763043
0.763043
0.763043
0.763043
0.763043
0.763043
0.763043
0.763042
0.763042
0.763042
0.763042
0.763041
0.763041
0.763041
0.76304
0.763039
0.763039
0.763037
0.763035
0.76303
0.76302
0.763
0.762957
0.76287
0.762695
0.762368
0.776302
0.776621
0.776795
0.776884
0.776927
0.776948
0.776958
0.776963
0.776966
0.776968
0.776968
0.776969
0.776969
0.77697
0.77697
0.77697
0.776971
0.776971
0.776971
0.776971
0.776971
0.776972
0.776972
0.776972
0.776972
0.776972
0.776972
0.776972
0.776972
0.776972
0.776972
0.776972
0.776972
0.776972
0.776972
0.776972
0.776972
0.776972
0.776972
0.776971
0.776971
0.776971
0.776971
0.776971
0.77697
0.77697
0.77697
0.776969
0.776969
0.776968
0.776968
0.776966
0.776963
0.776958
0.776948
0.776927
0.776884
0.776795
0.776621
0.776302
0.789573
0.789885
0.790057
0.790147
0.790191
0.790213
0.790224
0.790229
0.790232
0.790233
0.790234
0.790235
0.790235
0.790235
0.790236
0.790236
0.790236
0.790236
0.790237
0.790237
0.790237
0.790237
0.790237
0.790237
0.790237
0.790237
0.790237
0.790237
0.790238
0.790238
0.790238
0.790238
0.790237
0.790237
0.790237
0.790237
0.790237
0.790237
0.790237
0.790237
0.790237
0.790237
0.790236
0.790236
0.790236
0.790236
0.790235
0.790235
0.790235
0.790234
0.790233
0.790232
0.790229
0.790224
0.790213
0.790191
0.790147
0.790057
0.789885
0.789573
0.802204
0.802508
0.802678
0.802768
0.802814
0.802836
0.802848
0.802853
0.802856
0.802858
0.802858
0.802859
0.802859
0.80286
0.80286
0.80286
0.80286
0.802861
0.802861
0.802861
0.802861
0.802861
0.802861
0.802861
0.802861
0.802862
0.802862
0.802862
0.802862
0.802862
0.802862
0.802862
0.802862
0.802862
0.802862
0.802861
0.802861
0.802861
0.802861
0.802861
0.802861
0.802861
0.802861
0.80286
0.80286
0.80286
0.80286
0.802859
0.802859
0.802858
0.802858
0.802856
0.802853
0.802848
0.802836
0.802814
0.802768
0.802678
0.802508
0.802204
0.814216
0.814511
0.81468
0.814771
0.814817
0.81484
0.814852
0.814858
0.814861
0.814862
0.814863
0.814864
0.814864
0.814865
0.814865
0.814865
0.814865
0.814865
0.814866
0.814866
0.814866
0.814866
0.814866
0.814866
0.814866
0.814866
0.814866
0.814866
0.814866
0.814866
0.814866
0.814866
0.814866
0.814866
0.814866
0.814866
0.814866
0.814866
0.814866
0.814866
0.814866
0.814866
0.814865
0.814865
0.814865
0.814865
0.814865
0.814864
0.814864
0.814863
0.814862
0.814861
0.814858
0.814852
0.81484
0.814817
0.814771
0.81468
0.814511
0.814216
0.825631
0.825918
0.826085
0.826175
0.826223
0.826247
0.826259
0.826265
0.826268
0.82627
0.826271
0.826271
0.826272
0.826272
0.826272
0.826272
0.826272
0.826273
0.826273
0.826273
0.826273
0.826273
0.826273
0.826273
0.826273