/*--------------------------------*- C++ -*----------------------------------*\
| =========                 |                                                 |
| \\      /  F ield         | foam-extend: Open Source CFD                    |
|  \\    /   O peration     | Version:     4.0                                |
|   \\  /    A nd           | Web:         http://www.foam-extend.org         |
|    \\/     M anipulation  |                                                 |
\*---------------------------------------------------------------------------*/
FoamFile
{
    version     2.0;
    format      ascii;
    class       volScalarField;
    location    "570";
    object      cPlus;
}
// * * * * * * * * * * * * * * * * * * * * * * * * * * * * * * * * * * * * * //

dimensions      [0 0 0 0 0 0 0];

internalField   nonuniform List<scalar> 
6960
(
0.20673
0.206656
0.206604
0.206574
0.206557
0.206548
0.206543
0.206541
0.206539
0.206539
0.206538
0.206538
0.206538
0.206538
0.206538
0.206537
0.206537
0.206537
0.206537
0.206537
0.206537
0.206537
0.206537
0.206537
0.206537
0.206537
0.206537
0.206537
0.206537
0.206537
0.206537
0.206537
0.206537
0.206537
0.206537
0.206537
0.206537
0.206537
0.206537
0.206537
0.206537
0.206537
0.206537
0.206537
0.206537
0.206538
0.206538
0.206538
0.206538
0.206538
0.206539
0.206539
0.206541
0.206543
0.206548
0.206557
0.206574
0.206604
0.206656
0.20673
0.0495056
0.0494858
0.0494709
0.049462
0.0494571
0.0494544
0.049453
0.0494522
0.0494518
0.0494516
0.0494515
0.0494514
0.0494514
0.0494513
0.0494513
0.0494513
0.0494513
0.0494513
0.0494513
0.0494513
0.0494513
0.0494513
0.0494513
0.0494513
0.0494513
0.0494513
0.0494513
0.0494513
0.0494513
0.0494513
0.0494513
0.0494513
0.0494513
0.0494513
0.0494513
0.0494513
0.0494513
0.0494513
0.0494513
0.0494513
0.0494513
0.0494513
0.0494513
0.0494513
0.0494513
0.0494513
0.0494513
0.0494514
0.0494514
0.0494515
0.0494516
0.0494518
0.0494522
0.049453
0.0494544
0.0494571
0.049462
0.0494709
0.0494858
0.0495056
0.0239838
0.0239861
0.0239864
0.0239865
0.0239864
0.0239864
0.0239864
0.0239864
0.0239864
0.0239864
0.0239864
0.0239864
0.0239864
0.0239864
0.0239864
0.0239864
0.0239864
0.0239865
0.0239865
0.0239865
0.0239865
0.0239865
0.0239865
0.0239865
0.0239865
0.0239865
0.0239865
0.0239865
0.0239865
0.0239865
0.0239865
0.0239865
0.0239865
0.0239865
0.0239865
0.0239865
0.0239865
0.0239865
0.0239865
0.0239865
0.0239865
0.0239865
0.0239865
0.0239864
0.0239864
0.0239864
0.0239864
0.0239864
0.0239864
0.0239864
0.0239864
0.0239864
0.0239864
0.0239864
0.0239864
0.0239864
0.0239865
0.0239864
0.0239861
0.0239838
0.0198651
0.0198739
0.0198787
0.0198813
0.0198827
0.0198835
0.0198838
0.0198841
0.0198842
0.0198842
0.0198843
0.0198843
0.0198844
0.0198844
0.0198844
0.0198844
0.0198844
0.0198845
0.0198845
0.0198845
0.0198845
0.0198845
0.0198845
0.0198845
0.0198845
0.0198846
0.0198846
0.0198846
0.0198846
0.0198846
0.0198846
0.0198846
0.0198846
0.0198846
0.0198846
0.0198845
0.0198845
0.0198845
0.0198845
0.0198845
0.0198845
0.0198845
0.0198845
0.0198844
0.0198844
0.0198844
0.0198844
0.0198844
0.0198843
0.0198843
0.0198842
0.0198842
0.0198841
0.0198838
0.0198835
0.0198827
0.0198813
0.0198787
0.0198739
0.0198651
0.0194322
0.0194428
0.0194488
0.0194521
0.0194539
0.0194548
0.0194553
0.0194556
0.0194557
0.0194558
0.0194559
0.0194559
0.0194559
0.019456
0.019456
0.019456
0.019456
0.0194561
0.0194561
0.0194561
0.0194561
0.0194561
0.0194561
0.0194561
0.0194562
0.0194562
0.0194562
0.0194562
0.0194562
0.0194562
0.0194562
0.0194562
0.0194562
0.0194562
0.0194562
0.0194562
0.0194561
0.0194561
0.0194561
0.0194561
0.0194561
0.0194561
0.0194561
0.019456
0.019456
0.019456
0.019456
0.0194559
0.0194559
0.0194559
0.0194558
0.0194557
0.0194556
0.0194553
0.0194548
0.0194539
0.0194521
0.0194488
0.0194428
0.0194322
0.0196387
0.0196499
0.0196563
0.0196598
0.0196617
0.0196627
0.0196632
0.0196635
0.0196637
0.0196638
0.0196638
0.0196639
0.0196639
0.0196639
0.019664
0.019664
0.019664
0.019664
0.0196641
0.0196641
0.0196641
0.0196641
0.0196641
0.0196641
0.0196641
0.0196641
0.0196641
0.0196641
0.0196642
0.0196642
0.0196642
0.0196642
0.0196641
0.0196641
0.0196641
0.0196641
0.0196641
0.0196641
0.0196641
0.0196641
0.0196641
0.0196641
0.019664
0.019664
0.019664
0.019664
0.0196639
0.0196639
0.0196639
0.0196638
0.0196638
0.0196637
0.0196635
0.0196632
0.0196627
0.0196617
0.0196598
0.0196563
0.0196499
0.0196387
0.0199736
0.0199852
0.0199918
0.0199954
0.0199974
0.0199985
0.019999
0.0199993
0.0199995
0.0199996
0.0199997
0.0199997
0.0199997
0.0199998
0.0199998
0.0199998
0.0199998
0.0199999
0.0199999
0.0199999
0.0199999
0.0199999
0.0199999
0.0199999
0.02
0.02
0.02
0.02
0.02
0.02
0.02
0.02
0.02
0.02
0.02
0.02
0.0199999
0.0199999
0.0199999
0.0199999
0.0199999
0.0199999
0.0199999
0.0199998
0.0199998
0.0199998
0.0199998
0.0199997
0.0199997
0.0199997
0.0199996
0.0199995
0.0199993
0.019999
0.0199985
0.0199974
0.0199954
0.0199918
0.0199852
0.0199736
0.0203571
0.0203691
0.0203759
0.0203797
0.0203817
0.0203828
0.0203834
0.0203837
0.0203839
0.020384
0.0203841
0.0203841
0.0203841
0.0203842
0.0203842
0.0203842
0.0203842
0.0203843
0.0203843
0.0203843
0.0203843
0.0203843
0.0203843
0.0203844
0.0203844
0.0203844
0.0203844
0.0203844
0.0203844
0.0203844
0.0203844
0.0203844
0.0203844
0.0203844
0.0203844
0.0203844
0.0203844
0.0203843
0.0203843
0.0203843
0.0203843
0.0203843
0.0203843
0.0203842
0.0203842
0.0203842
0.0203842
0.0203841
0.0203841
0.0203841
0.020384
0.0203839
0.0203837
0.0203834
0.0203828
0.0203817
0.0203797
0.0203759
0.0203691
0.0203571
0.0207807
0.0207932
0.0208002
0.0208042
0.0208063
0.0208074
0.020808
0.0208083
0.0208085
0.0208086
0.0208087
0.0208087
0.0208088
0.0208088
0.0208088
0.0208089
0.0208089
0.0208089
0.0208089
0.0208089
0.020809
0.020809
0.020809
0.020809
0.020809
0.020809
0.020809
0.020809
0.020809
0.020809
0.020809
0.020809
0.020809
0.020809
0.020809
0.020809
0.020809
0.020809
0.020809
0.020809
0.0208089
0.0208089
0.0208089
0.0208089
0.0208089
0.0208088
0.0208088
0.0208088
0.0208087
0.0208087
0.0208086
0.0208085
0.0208083
0.020808
0.0208074
0.0208063
0.0208042
0.0208002
0.0207932
0.0207807
0.0212482
0.0212611
0.0212684
0.0212725
0.0212747
0.0212759
0.0212765
0.0212768
0.021277
0.0212771
0.0212772
0.0212773
0.0212773
0.0212773
0.0212774
0.0212774
0.0212774
0.0212774
0.0212775
0.0212775
0.0212775
0.0212775
0.0212775
0.0212775
0.0212776
0.0212776
0.0212776
0.0212776
0.0212776
0.0212776
0.0212776
0.0212776
0.0212776
0.0212776
0.0212776
0.0212776
0.0212775
0.0212775
0.0212775
0.0212775
0.0212775
0.0212775
0.0212774
0.0212774
0.0212774
0.0212774
0.0212773
0.0212773
0.0212773
0.0212772
0.0212771
0.021277
0.0212768
0.0212765
0.0212759
0.0212747
0.0212725
0.0212684
0.0212611
0.0212482
0.0217659
0.0217794
0.0217871
0.0217913
0.0217936
0.0217948
0.0217955
0.0217958
0.021796
0.0217962
0.0217962
0.0217963
0.0217963
0.0217964
0.0217964
0.0217964
0.0217965
0.0217965
0.0217965
0.0217965
0.0217965
0.0217966
0.0217966
0.0217966
0.0217966
0.0217966
0.0217966
0.0217966
0.0217966
0.0217966
0.0217966
0.0217966
0.0217966
0.0217966
0.0217966
0.0217966
0.0217966
0.0217966
0.0217966
0.0217965
0.0217965
0.0217965
0.0217965
0.0217965
0.0217964
0.0217964
0.0217964
0.0217963
0.0217963
0.0217962
0.0217962
0.021796
0.0217958
0.0217955
0.0217948
0.0217936
0.0217913
0.0217871
0.0217794
0.0217659
0.0223425
0.0223566
0.0223646
0.022369
0.0223715
0.0223727
0.0223734
0.0223738
0.022374
0.0223741
0.0223742
0.0223743
0.0223743
0.0223743
0.0223744
0.0223744
0.0223744
0.0223745
0.0223745
0.0223745
0.0223745
0.0223745
0.0223745
0.0223746
0.0223746
0.0223746
0.0223746
0.0223746
0.0223746
0.0223746
0.0223746
0.0223746
0.0223746
0.0223746
0.0223746
0.0223746
0.0223746
0.0223745
0.0223745
0.0223745
0.0223745
0.0223745
0.0223745
0.0223744
0.0223744
0.0223744
0.0223743
0.0223743
0.0223743
0.0223742
0.0223741
0.022374
0.0223738
0.0223734
0.0223727
0.0223715
0.022369
0.0223646
0.0223566
0.0223425
0.0229883
0.0230031
0.0230115
0.0230162
0.0230188
0.0230201
0.0230208
0.0230212
0.0230214
0.0230216
0.0230217
0.0230217
0.0230218
0.0230218
0.0230218
0.0230219
0.0230219
0.0230219
0.0230219
0.023022
0.023022
0.023022
0.023022
0.023022
0.023022
0.0230221
0.0230221
0.0230221
0.0230221
0.0230221
0.0230221
0.0230221
0.0230221
0.0230221
0.0230221
0.023022
0.023022
0.023022
0.023022
0.023022
0.023022
0.0230219
0.0230219
0.0230219
0.0230219
0.0230218
0.0230218
0.0230218
0.0230217
0.0230217
0.0230216
0.0230214
0.0230212
0.0230208
0.0230201
0.0230188
0.0230162
0.0230115
0.0230031
0.0229883
0.0237167
0.0237324
0.0237413
0.0237462
0.0237489
0.0237503
0.0237511
0.0237515
0.0237517
0.0237519
0.023752
0.023752
0.0237521
0.0237521
0.0237522
0.0237522
0.0237522
0.0237523
0.0237523
0.0237523
0.0237523
0.0237523
0.0237524
0.0237524
0.0237524
0.0237524
0.0237524
0.0237524
0.0237524
0.0237524
0.0237524
0.0237524
0.0237524
0.0237524
0.0237524
0.0237524
0.0237524
0.0237524
0.0237523
0.0237523
0.0237523
0.0237523
0.0237523
0.0237522
0.0237522
0.0237522
0.0237521
0.0237521
0.023752
0.023752
0.0237519
0.0237517
0.0237515
0.0237511
0.0237503
0.0237489
0.0237462
0.0237413
0.0237324
0.0237167
0.0245448
0.0245615
0.0245709
0.0245762
0.0245791
0.0245806
0.0245814
0.0245818
0.0245821
0.0245822
0.0245823
0.0245824
0.0245825
0.0245825
0.0245826
0.0245826
0.0245826
0.0245827
0.0245827
0.0245827
0.0245827
0.0245827
0.0245828
0.0245828
0.0245828
0.0245828
0.0245828
0.0245828
0.0245828
0.0245828
0.0245828
0.0245828
0.0245828
0.0245828
0.0245828
0.0245828
0.0245828
0.0245828
0.0245827
0.0245827
0.0245827
0.0245827
0.0245827
0.0245826
0.0245826
0.0245826
0.0245825
0.0245825
0.0245824
0.0245823
0.0245822
0.0245821
0.0245818
0.0245814
0.0245806
0.0245791
0.0245762
0.0245709
0.0245615
0.0245448
0.025495
0.0255129
0.025523
0.0255287
0.0255317
0.0255334
0.0255342
0.0255347
0.025535
0.0255351
0.0255352
0.0255353
0.0255354
0.0255354
0.0255355
0.0255355
0.0255355
0.0255356
0.0255356
0.0255356
0.0255357
0.0255357
0.0255357
0.0255357
0.0255357
0.0255357
0.0255358
0.0255358
0.0255358
0.0255358
0.0255358
0.0255358
0.0255358
0.0255358
0.0255357
0.0255357
0.0255357
0.0255357
0.0255357
0.0255357
0.0255356
0.0255356
0.0255356
0.0255355
0.0255355
0.0255355
0.0255354
0.0255354
0.0255353
0.0255352
0.0255351
0.025535
0.0255347
0.0255342
0.0255334
0.0255317
0.0255287
0.025523
0.0255129
0.025495
0.0265971
0.0266165
0.0266274
0.0266335
0.0266369
0.0266386
0.0266396
0.0266401
0.0266404
0.0266406
0.0266407
0.0266408
0.0266408
0.0266409
0.0266409
0.026641
0.026641
0.026641
0.0266411
0.0266411
0.0266411
0.0266411
0.0266412
0.0266412
0.0266412
0.0266412
0.0266412
0.0266412
0.0266412
0.0266412
0.0266412
0.0266412
0.0266412
0.0266412
0.0266412
0.0266412
0.0266412
0.0266412
0.0266411
0.0266411
0.0266411
0.0266411
0.026641
0.026641
0.026641
0.0266409
0.0266409
0.0266408
0.0266408
0.0266407
0.0266406
0.0266404
0.0266401
0.0266396
0.0266386
0.0266369
0.0266335
0.0266274
0.0266165
0.0265971
0.027892
0.0279132
0.0279252
0.0279319
0.0279355
0.0279374
0.0279385
0.027939
0.0279393
0.0279395
0.0279397
0.0279398
0.0279398
0.0279399
0.0279399
0.02794
0.02794
0.0279401
0.0279401
0.0279401
0.0279402
0.0279402
0.0279402
0.0279402
0.0279403
0.0279403
0.0279403
0.0279403
0.0279403
0.0279403
0.0279403
0.0279403
0.0279403
0.0279403
0.0279403
0.0279403
0.0279402
0.0279402
0.0279402
0.0279402
0.0279401
0.0279401
0.0279401
0.02794
0.02794
0.0279399
0.0279399
0.0279398
0.0279398
0.0279397
0.0279395
0.0279393
0.027939
0.0279385
0.0279374
0.0279355
0.0279319
0.0279252
0.0279132
0.027892
0.0294371
0.0294605
0.0294738
0.0294812
0.0294852
0.0294874
0.0294885
0.0294892
0.0294895
0.0294897
0.0294899
0.02949
0.0294901
0.0294901
0.0294902
0.0294902
0.0294903
0.0294903
0.0294904
0.0294904
0.0294904
0.0294905
0.0294905
0.0294905
0.0294905
0.0294906
0.0294906
0.0294906
0.0294906
0.0294906
0.0294906
0.0294906
0.0294906
0.0294906
0.0294906
0.0294905
0.0294905
0.0294905
0.0294905
0.0294904
0.0294904
0.0294904
0.0294903
0.0294903
0.0294902
0.0294902
0.0294901
0.0294901
0.02949
0.0294899
0.0294897
0.0294895
0.0294892
0.0294885
0.0294874
0.0294852
0.0294812
0.0294738
0.0294605
0.0294371
0.0313153
0.0313417
0.0313567
0.0313651
0.0313696
0.031372
0.0313734
0.0313741
0.0313745
0.0313747
0.0313749
0.031375
0.0313751
0.0313751
0.0313752
0.0313753
0.0313753
0.0313754
0.0313754
0.0313755
0.0313755
0.0313755
0.0313756
0.0313756
0.0313756
0.0313756
0.0313757
0.0313757
0.0313757
0.0313757
0.0313757
0.0313757
0.0313757
0.0313757
0.0313756
0.0313756
0.0313756
0.0313756
0.0313755
0.0313755
0.0313755
0.0313754
0.0313754
0.0313753
0.0313753
0.0313752
0.0313751
0.0313751
0.031375
0.0313749
0.0313747
0.0313745
0.0313741
0.0313734
0.031372
0.0313696
0.0313651
0.0313567
0.0313417
0.0313153
0.0336509
0.0336813
0.0336985
0.0337082
0.0337135
0.0337163
0.0337178
0.0337186
0.0337191
0.0337194
0.0337196
0.0337197
0.0337198
0.0337199
0.03372
0.03372
0.0337201
0.0337202
0.0337202
0.0337203
0.0337203
0.0337204
0.0337204
0.0337204
0.0337205
0.0337205
0.0337205
0.0337205
0.0337205
0.0337205
0.0337205
0.0337205
0.0337205
0.0337205
0.0337205
0.0337205
0.0337204
0.0337204
0.0337204
0.0337203
0.0337203
0.0337202
0.0337202
0.0337201
0.03372
0.03372
0.0337199
0.0337198
0.0337197
0.0337196
0.0337194
0.0337191
0.0337186
0.0337178
0.0337163
0.0337135
0.0337082
0.0336985
0.0336813
0.0336509
0.0366341
0.03667
0.0366905
0.036702
0.0367083
0.0367116
0.0367134
0.0367144
0.0367149
0.0367153
0.0367155
0.0367156
0.0367158
0.0367159
0.036716
0.0367161
0.0367161
0.0367162
0.0367163
0.0367163
0.0367164
0.0367164
0.0367165
0.0367165
0.0367166
0.0367166
0.0367166
0.0367166
0.0367166
0.0367167
0.0367167
0.0367166
0.0367166
0.0367166
0.0367166
0.0367166
0.0367165
0.0367165
0.0367164
0.0367164
0.0367163
0.0367163
0.0367162
0.0367161
0.0367161
0.036716
0.0367159
0.0367158
0.0367156
0.0367155
0.0367153
0.0367149
0.0367144
0.0367134
0.0367116
0.0367083
0.036702
0.0366905
0.03667
0.0366341
0.0405574
0.0406012
0.0406263
0.0406404
0.0406481
0.0406522
0.0406544
0.0406556
0.0406563
0.0406567
0.0406569
0.0406571
0.0406573
0.0406574
0.0406575
0.0406577
0.0406578
0.0406578
0.0406579
0.040658
0.0406581
0.0406581
0.0406582
0.0406582
0.0406583
0.0406583
0.0406584
0.0406584
0.0406584
0.0406584
0.0406584
0.0406584
0.0406584
0.0406584
0.0406583
0.0406583
0.0406582
0.0406582
0.0406581
0.0406581
0.040658
0.0406579
0.0406578
0.0406578
0.0406577
0.0406575
0.0406574
0.0406573
0.0406571
0.0406569
0.0406567
0.0406563
0.0406556
0.0406544
0.0406522
0.0406481
0.0406404
0.0406263
0.0406012
0.0405574
0.0458534
0.0459085
0.0459402
0.0459581
0.0459678
0.045973
0.0459758
0.0459774
0.0459782
0.0459787
0.0459791
0.0459793
0.0459796
0.0459797
0.0459799
0.04598
0.0459801
0.0459802
0.0459804
0.0459805
0.0459805
0.0459806
0.0459807
0.0459808
0.0459808
0.0459809
0.0459809
0.0459809
0.045981
0.045981
0.045981
0.045981
0.0459809
0.0459809
0.0459809
0.0459808
0.0459808
0.0459807
0.0459806
0.0459805
0.0459805
0.0459804
0.0459802
0.0459801
0.04598
0.0459799
0.0459797
0.0459796
0.0459793
0.0459791
0.0459787
0.0459782
0.0459774
0.0459758
0.045973
0.0459678
0.0459581
0.0459402
0.0459085
0.0458534
0.0531003
0.0531713
0.0532123
0.0532354
0.0532481
0.0532548
0.0532585
0.0532605
0.0532616
0.0532623
0.0532627
0.0532631
0.0532633
0.0532635
0.0532637
0.0532639
0.0532641
0.0532642
0.0532644
0.0532645
0.0532646
0.0532647
0.0532648
0.0532649
0.053265
0.053265
0.0532651
0.0532651
0.0532651
0.0532652
0.0532652
0.0532651
0.0532651
0.0532651
0.053265
0.053265
0.0532649
0.0532648
0.0532647
0.0532646
0.0532645
0.0532644
0.0532642
0.0532641
0.0532639
0.0532637
0.0532635
0.0532633
0.0532631
0.0532627
0.0532623
0.0532616
0.0532605
0.0532585
0.0532548
0.0532481
0.0532354
0.0532123
0.0531713
0.0531003
0.0629359
0.0630278
0.0630811
0.0631112
0.0631276
0.0631365
0.0631412
0.0631438
0.0631453
0.0631462
0.0631468
0.0631472
0.0631475
0.0631478
0.0631481
0.0631483
0.0631485
0.0631487
0.0631489
0.0631491
0.0631492
0.0631493
0.0631495
0.0631496
0.0631497
0.0631498
0.0631498
0.0631499
0.0631499
0.0631499
0.0631499
0.0631499
0.0631499
0.0631498
0.0631498
0.0631497
0.0631496
0.0631495
0.0631493
0.0631492
0.0631491
0.0631489
0.0631487
0.0631485
0.0631483
0.0631481
0.0631478
0.0631475
0.0631472
0.0631468
0.0631462
0.0631453
0.0631438
0.0631412
0.0631365
0.0631276
0.0631112
0.0630811
0.0630278
0.0629359
0.0758517
0.0759686
0.0760366
0.076075
0.076096
0.0761073
0.0761134
0.0761167
0.0761186
0.0761197
0.0761205
0.076121
0.0761215
0.0761218
0.0761222
0.0761224
0.0761227
0.076123
0.0761232
0.0761234
0.0761236
0.0761238
0.0761239
0.0761241
0.0761242
0.0761243
0.0761244
0.0761244
0.0761245
0.0761245
0.0761245
0.0761245
0.0761244
0.0761244
0.0761243
0.0761242
0.0761241
0.0761239
0.0761238
0.0761236
0.0761234
0.0761232
0.076123
0.0761227
0.0761224
0.0761222
0.0761218
0.0761215
0.076121
0.0761205
0.0761197
0.0761186
0.0761167
0.0761134
0.0761073
0.076096
0.076075
0.0760366
0.0759686
0.0758517
0.0919542
0.0920979
0.0921816
0.0922289
0.0922548
0.0922688
0.0922763
0.0922804
0.0922828
0.0922842
0.0922851
0.0922858
0.0922863
0.0922868
0.0922871
0.0922875
0.0922878
0.0922881
0.0922884
0.0922886
0.0922889
0.0922891
0.0922892
0.0922894
0.0922896
0.0922897
0.0922898
0.0922898
0.0922899
0.0922899
0.0922899
0.0922899
0.0922898
0.0922898
0.0922897
0.0922896
0.0922894
0.0922892
0.0922891
0.0922889
0.0922886
0.0922884
0.0922881
0.0922878
0.0922875
0.0922871
0.0922868
0.0922863
0.0922858
0.0922851
0.0922842
0.0922828
0.0922804
0.0922763
0.0922688
0.0922548
0.0922289
0.0921816
0.0920979
0.0919542
0.110876
0.111046
0.111145
0.111201
0.111232
0.111248
0.111257
0.111262
0.111265
0.111267
0.111268
0.111269
0.111269
0.11127
0.11127
0.11127
0.111271
0.111271
0.111271
0.111272
0.111272
0.111272
0.111272
0.111273
0.111273
0.111273
0.111273
0.111273
0.111273
0.111273
0.111273
0.111273
0.111273
0.111273
0.111273
0.111273
0.111273
0.111272
0.111272
0.111272
0.111272
0.111271
0.111271
0.111271
0.11127
0.11127
0.11127
0.111269
0.111269
0.111268
0.111267
0.111265
0.111262
0.111257
0.111248
0.111232
0.111201
0.111145
0.111046
0.110876
0.131929
0.132122
0.132235
0.132298
0.132334
0.132353
0.132363
0.132369
0.132372
0.132374
0.132375
0.132376
0.132377
0.132377
0.132378
0.132378
0.132379
0.132379
0.132379
0.13238
0.13238
0.13238
0.13238
0.132381
0.132381
0.132381
0.132381
0.132381
0.132381
0.132381
0.132381
0.132381
0.132381
0.132381
0.132381
0.132381
0.132381
0.13238
0.13238
0.13238
0.13238
0.132379
0.132379
0.132379
0.132378
0.132378
0.132377
0.132377
0.132376
0.132375
0.132374
0.132372
0.132369
0.132363
0.132353
0.132334
0.132298
0.132235
0.132122
0.131929
0.154368
0.154581
0.154706
0.154777
0.154816
0.154837
0.154849
0.154855
0.154859
0.154861
0.154862
0.154863
0.154864
0.154865
0.154865
0.154866
0.154866
0.154867
0.154867
0.154867
0.154868
0.154868
0.154868
0.154868
0.154868
0.154869
0.154869
0.154869
0.154869
0.154869
0.154869
0.154869
0.154869
0.154869
0.154869
0.154868
0.154868
0.154868
0.154868
0.154868
0.154867
0.154867
0.154867
0.154866
0.154866
0.154865
0.154865
0.154864
0.154863
0.154862
0.154861
0.154859
0.154855
0.154849
0.154837
0.154816
0.154777
0.154706
0.154581
0.154368
0.17759
0.177821
0.177957
0.178034
0.178077
0.1781
0.178113
0.17812
0.178124
0.178127
0.178128
0.178129
0.17813
0.178131
0.178131
0.178132
0.178132
0.178132
0.178133
0.178133
0.178133
0.178134
0.178134
0.178134
0.178134
0.178134
0.178135
0.178135
0.178135
0.178135
0.178135
0.178135
0.178135
0.178135
0.178134
0.178134
0.178134
0.178134
0.178134
0.178133
0.178133
0.178133
0.178132
0.178132
0.178132
0.178131
0.178131
0.17813
0.178129
0.178128
0.178127
0.178124
0.17812
0.178113
0.1781
0.178077
0.178034
0.177957
0.177821
0.17759
0.201189
0.201435
0.20158
0.201664
0.20171
0.201735
0.201749
0.201757
0.201761
0.201764
0.201765
0.201767
0.201767
0.201768
0.201769
0.201769
0.20177
0.20177
0.20177
0.201771
0.201771
0.201771
0.201772
0.201772
0.201772
0.201772
0.201772
0.201772
0.201772
0.201773
0.201773
0.201772
0.201772
0.201772
0.201772
0.201772
0.201772
0.201772
0.201771
0.201771
0.201771
0.20177
0.20177
0.20177
0.201769
0.201769
0.201768
0.201767
0.201767
0.201765
0.201764
0.201761
0.201757
0.201749
0.201735
0.20171
0.201664
0.20158
0.201435
0.201189
0.224912
0.225173
0.225327
0.225416
0.225466
0.225493
0.225508
0.225517
0.225521
0.225524
0.225526
0.225527
0.225528
0.225529
0.225529
0.22553
0.22553
0.225531
0.225531
0.225531
0.225532
0.225532
0.225532
0.225532
0.225533
0.225533
0.225533
0.225533
0.225533
0.225533
0.225533
0.225533
0.225533
0.225533
0.225533
0.225533
0.225532
0.225532
0.225532
0.225532
0.225531
0.225531
0.225531
0.22553
0.22553
0.225529
0.225529
0.225528
0.225527
0.225526
0.225524
0.225521
0.225517
0.225508
0.225493
0.225466
0.225416
0.225327
0.225173
0.224912
0.248611
0.248885
0.249048
0.249142
0.249195
0.249225
0.249241
0.24925
0.249255
0.249258
0.24926
0.249261
0.249262
0.249263
0.249263
0.249264
0.249264
0.249265
0.249265
0.249265
0.249266
0.249266
0.249266
0.249266
0.249267
0.249267
0.249267
0.249267
0.249267
0.249267
0.249267
0.249267
0.249267
0.249267
0.249267
0.249267
0.249266
0.249266
0.249266
0.249266
0.249265
0.249265
0.249265
0.249264
0.249264
0.249263
0.249263
0.249262
0.249261
0.24926
0.249258
0.249255
0.24925
0.249241
0.249225
0.249195
0.249142
0.249048
0.248885
0.248611
0.272191
0.272477
0.272648
0.272747
0.272804
0.272835
0.272852
0.272862
0.272868
0.272871
0.272873
0.272874
0.272875
0.272876
0.272877
0.272877
0.272878
0.272878
0.272878
0.272879
0.272879
0.272879
0.27288
0.27288
0.27288
0.27288
0.27288
0.27288
0.27288
0.272881
0.272881
0.27288
0.27288
0.27288
0.27288
0.27288
0.27288
0.27288
0.272879
0.272879
0.272879
0.272878
0.272878
0.272878
0.272877
0.272877
0.272876
0.272875
0.272874
0.272873
0.272871
0.272868
0.272862
0.272852
0.272835
0.272804
0.272747
0.272648
0.272477
0.272191
0.295587
0.295884
0.296063
0.296168
0.296227
0.296261
0.296279
0.29629
0.296296
0.296299
0.296301
0.296303
0.296304
0.296305
0.296305
0.296306
0.296306
0.296307
0.296307
0.296307
0.296308
0.296308
0.296308
0.296308
0.296309
0.296309
0.296309
0.296309
0.296309
0.296309
0.296309
0.296309
0.296309
0.296309
0.296309
0.296309
0.296308
0.296308
0.296308
0.296308
0.296307
0.296307
0.296307
0.296306
0.296306
0.296305
0.296305
0.296304
0.296303
0.296301
0.296299
0.296296
0.29629
0.296279
0.296261
0.296227
0.296168
0.296063
0.295884
0.295587
0.318752
0.319059
0.319245
0.319355
0.319418
0.319454
0.319473
0.319484
0.319491
0.319495
0.319497
0.319498
0.3195
0.3195
0.319501
0.319502
0.319502
0.319502
0.319503
0.319503
0.319503
0.319504
0.319504
0.319504
0.319504
0.319504
0.319505
0.319505
0.319505
0.319505
0.319505
0.319505
0.319505
0.319505
0.319504
0.319504
0.319504
0.319504
0.319504
0.319503
0.319503
0.319503
0.319502
0.319502
0.319502
0.319501
0.3195
0.3195
0.319498
0.319497
0.319495
0.319491
0.319484
0.319473
0.319454
0.319418
0.319355
0.319245
0.319059
0.318752
0.341647
0.341963
0.342157
0.342272
0.342338
0.342375
0.342396
0.342408
0.342415
0.342419
0.342422
0.342423
0.342424
0.342425
0.342426
0.342426
0.342427
0.342427
0.342428
0.342428
0.342428
0.342428
0.342429
0.342429
0.342429
0.342429
0.342429
0.342429
0.34243
0.34243
0.34243
0.34243
0.342429
0.342429
0.342429
0.342429
0.342429
0.342429
0.342428
0.342428
0.342428
0.342428
0.342427
0.342427
0.342426
0.342426
0.342425
0.342424
0.342423
0.342422
0.342419
0.342415
0.342408
0.342396
0.342375
0.342338
0.342272
0.342157
0.341963
0.341647
0.364241
0.364565
0.364765
0.364885
0.364954
0.364994
0.365016
0.365029
0.365036
0.365041
0.365043
0.365045
0.365046
0.365047
0.365048
0.365048
0.365049
0.365049
0.36505
0.36505
0.36505
0.36505
0.365051
0.365051
0.365051
0.365051
0.365051
0.365051
0.365051
0.365052
0.365052
0.365051
0.365051
0.365051
0.365051
0.365051
0.365051
0.365051
0.36505
0.36505
0.36505
0.36505
0.365049
0.365049
0.365048
0.365048
0.365047
0.365046
0.365045
0.365043
0.365041
0.365036
0.365029
0.365016
0.364994
0.364954
0.364885
0.364765
0.364565
0.364241
0.386506
0.386837
0.387044
0.387168
0.387241
0.387283
0.387306
0.38732
0.387328
0.387332
0.387335
0.387337
0.387338
0.387339
0.38734
0.38734
0.387341
0.387341
0.387342
0.387342
0.387342
0.387342
0.387343
0.387343
0.387343
0.387343
0.387343
0.387343
0.387343
0.387343
0.387343
0.387343
0.387343
0.387343
0.387343
0.387343
0.387343
0.387343
0.387342
0.387342
0.387342
0.387342
0.387341
0.387341
0.38734
0.38734
0.387339
0.387338
0.387337
0.387335
0.387332
0.387328
0.38732
0.387306
0.387283
0.387241
0.387168
0.387044
0.386837
0.386506
0.408419
0.408756
0.408969
0.409097
0.409173
0.409217
0.409242
0.409257
0.409265
0.40927
0.409273
0.409275
0.409276
0.409277
0.409278
0.409279
0.409279
0.409279
0.40928
0.40928
0.40928
0.409281
0.409281
0.409281
0.409281
0.409281
0.409281
0.409281
0.409281
0.409282
0.409282
0.409281
0.409281
0.409281
0.409281
0.409281
0.409281
0.409281
0.409281
0.40928
0.40928
0.40928
0.409279
0.409279
0.409279
0.409278
0.409277
0.409276
0.409275
0.409273
0.40927
0.409265
0.409257
0.409242
0.409217
0.409173
0.409097
0.408969
0.408756
0.408419
0.429958
0.430301
0.430519
0.430652
0.430731
0.430777
0.430804
0.430819
0.430828
0.430833
0.430836
0.430838
0.43084
0.430841
0.430841
0.430842
0.430842
0.430843
0.430843
0.430843
0.430844
0.430844
0.430844
0.430844
0.430844
0.430845
0.430845
0.430845
0.430845
0.430845
0.430845
0.430845
0.430845
0.430845
0.430845
0.430844
0.430844
0.430844
0.430844
0.430844
0.430843
0.430843
0.430843
0.430842
0.430842
0.430841
0.430841
0.43084
0.430838
0.430836
0.430833
0.430828
0.430819
0.430804
0.430777
0.430731
0.430652
0.430519
0.430301
0.429958
0.451105
0.451453
0.451676
0.451813
0.451895
0.451943
0.451971
0.451988
0.451997
0.452003
0.452006
0.452008
0.45201
0.452011
0.452012
0.452012
0.452013
0.452013
0.452013
0.452013
0.452014
0.452014
0.452014
0.452014
0.452014
0.452015
0.452015
0.452015
0.452015
0.452015
0.452015
0.452015
0.452015
0.452015
0.452015
0.452014
0.452014
0.452014
0.452014
0.452014
0.452013
0.452013
0.452013
0.452013
0.452012
0.452012
0.452011
0.45201
0.452008
0.452006
0.452003
0.451997
0.451988
0.451971
0.451943
0.451895
0.451813
0.451676
0.451453
0.451105
0.471845
0.472196
0.472423
0.472564
0.47265
0.4727
0.472729
0.472747
0.472757
0.472763
0.472767
0.472769
0.47277
0.472771
0.472772
0.472773
0.472773
0.472773
0.472774
0.472774
0.472774
0.472774
0.472775
0.472775
0.472775
0.472775
0.472775
0.472775
0.472775
0.472775
0.472775
0.472775
0.472775
0.472775
0.472775
0.472775
0.472775
0.472775
0.472774
0.472774
0.472774
0.472774
0.472773
0.472773
0.472773
0.472772
0.472771
0.47277
0.472769
0.472767
0.472763
0.472757
0.472747
0.472729
0.4727
0.47265
0.472564
0.472423
0.472196
0.471845
0.492161
0.492515
0.492747
0.492892
0.49298
0.493033
0.493064
0.493082
0.493093
0.493099
0.493103
0.493105
0.493107
0.493108
0.493109
0.493109
0.49311
0.49311
0.49311
0.493111
0.493111
0.493111
0.493111
0.493111
0.493112
0.493112
0.493112
0.493112
0.493112
0.493112
0.493112
0.493112
0.493112
0.493112
0.493112
0.493112
0.493111
0.493111
0.493111
0.493111
0.493111
0.49311
0.49311
0.49311
0.493109
0.493109
0.493108
0.493107
0.493105
0.493103
0.493099
0.493093
0.493082
0.493064
0.493033
0.49298
0.492892
0.492747
0.492515
0.492161
0.512043
0.512399
0.512634
0.512783
0.512874
0.512929
0.512961
0.51298
0.512992
0.512999
0.513003
0.513006
0.513007
0.513008
0.513009
0.51301
0.51301
0.51301
0.513011
0.513011
0.513011
0.513011
0.513011
0.513012
0.513012
0.513012
0.513012
0.513012
0.513012
0.513012
0.513012
0.513012
0.513012
0.513012
0.513012
0.513012
0.513012
0.513011
0.513011
0.513011
0.513011
0.513011
0.51301
0.51301
0.51301
0.513009
0.513008
0.513007
0.513006
0.513003
0.512999
0.512992
0.51298
0.512961
0.512929
0.512874
0.512783
0.512634
0.512399
0.512043
0.531479
0.531837
0.532075
0.532227
0.532321
0.532377
0.532412
0.532432
0.532444
0.532451
0.532456
0.532459
0.53246
0.532461
0.532462
0.532463
0.532463
0.532464
0.532464
0.532464
0.532464
0.532464
0.532465
0.532465
0.532465
0.532465
0.532465
0.532465
0.532465
0.532465
0.532465
0.532465
0.532465
0.532465
0.532465
0.532465
0.532465
0.532465
0.532464
0.532464
0.532464
0.532464
0.532464
0.532463
0.532463
0.532462
0.532461
0.53246
0.532459
0.532456
0.532451
0.532444
0.532432
0.532412
0.532377
0.532321
0.532227
0.532075
0.531837
0.531479
0.55046
0.550818
0.551059
0.551214
0.551311
0.55137
0.551405
0.551427
0.55144
0.551447
0.551452
0.551455
0.551457
0.551458
0.551459
0.55146
0.55146
0.55146
0.551461
0.551461
0.551461
0.551461
0.551461
0.551461
0.551461
0.551462
0.551462
0.551462
0.551462
0.551462
0.551462
0.551462
0.551462
0.551462
0.551462
0.551461
0.551461
0.551461
0.551461
0.551461
0.551461
0.551461
0.55146
0.55146
0.55146
0.551459
0.551458
0.551457
0.551455
0.551452
0.551447
0.55144
0.551427
0.551405
0.55137
0.551311
0.551214
0.551059
0.550818
0.55046
0.568978
0.569337
0.56958
0.569737
0.569837
0.569898
0.569935
0.569958
0.569971
0.56998
0.569985
0.569988
0.56999
0.569991
0.569992
0.569992
0.569993
0.569993
0.569993
0.569994
0.569994
0.569994
0.569994
0.569994
0.569994
0.569994
0.569994
0.569994
0.569994
0.569994
0.569994
0.569994
0.569994
0.569994
0.569994
0.569994
0.569994
0.569994
0.569994
0.569994
0.569994
0.569993
0.569993
0.569993
0.569992
0.569992
0.569991
0.56999
0.569988
0.569985
0.56998
0.569971
0.569958
0.569935
0.569898
0.569837
0.569737
0.56958
0.569337
0.568978
0.587028
0.587386
0.58763
0.587791
0.587893
0.587956
0.587995
0.588018
0.588033
0.588041
0.588047
0.58805
0.588052
0.588054
0.588054
0.588055
0.588055
0.588056
0.588056
0.588056
0.588056
0.588056
0.588057
0.588057
0.588057
0.588057
0.588057
0.588057
0.588057
0.588057
0.588057
0.588057
0.588057
0.588057
0.588057
0.588057
0.588057
0.588057
0.588056
0.588056
0.588056
0.588056
0.588056
0.588055
0.588055
0.588054
0.588054
0.588052
0.58805
0.588047
0.588041
0.588033
0.588018
0.587995
0.587956
0.587893
0.587791
0.58763
0.587386
0.587028
0.604604
0.604961
0.605207
0.605369
0.605473
0.605539
0.605579
0.605604
0.605619
0.605628
0.605634
0.605637
0.60564
0.605641
0.605642
0.605643
0.605643
0.605643
0.605644
0.605644
0.605644
0.605644
0.605644
0.605644
0.605644
0.605644
0.605644
0.605644
0.605644
0.605644
0.605644
0.605644
0.605644
0.605644
0.605644
0.605644