/*--------------------------------*- C++ -*----------------------------------*\
| =========                 |                                                 |
| \\      /  F ield         | foam-extend: Open Source CFD                    |
|  \\    /   O peration     | Version:     4.0                                |
|   \\  /    A nd           | Web:         http://www.foam-extend.org         |
|    \\/     M anipulation  |                                                 |
\*---------------------------------------------------------------------------*/
FoamFile
{
    version     2.0;
    format      ascii;
    class       volScalarField;
    location    "570";
    object      psiE;
}
// * * * * * * * * * * * * * * * * * * * * * * * * * * * * * * * * * * * * * //

dimensions      [0 0 0 0 0 0 0];

internalField   nonuniform List<scalar> 
6960
(
0.40193
0.401972
0.402
0.402018
0.402027
0.402033
0.402036
0.402038
0.402039
0.40204
0.402041
0.402042
0.402043
0.402043
0.402044
0.402045
0.402045
0.402046
0.402047
0.402047
0.402048
0.402048
0.402048
0.402049
0.402049
0.402049
0.402049
0.40205
0.40205
0.40205
0.40205
0.40205
0.40205
0.402049
0.402049
0.402049
0.402049
0.402048
0.402048
0.402048
0.402047
0.402047
0.402046
0.402045
0.402045
0.402044
0.402043
0.402043
0.402042
0.402041
0.40204
0.402039
0.402038
0.402036
0.402033
0.402027
0.402018
0.402
0.401972
0.40193
1.10643
1.10659
1.10671
1.10678
1.10682
1.10684
1.10685
1.10686
1.10686
1.10687
1.10687
1.10687
1.10687
1.10688
1.10688
1.10688
1.10688
1.10688
1.10689
1.10689
1.10689
1.10689
1.10689
1.10689
1.10689
1.10689
1.10689
1.10689
1.10689
1.10689
1.10689
1.10689
1.10689
1.10689
1.10689
1.10689
1.10689
1.10689
1.10689
1.10689
1.10689
1.10689
1.10688
1.10688
1.10688
1.10688
1.10688
1.10687
1.10687
1.10687
1.10687
1.10686
1.10686
1.10685
1.10684
1.10682
1.10678
1.10671
1.10659
1.10643
1.80376
1.80407
1.80428
1.80441
1.80448
1.80452
1.80454
1.80455
1.80456
1.80457
1.80457
1.80458
1.80458
1.80459
1.80459
1.80459
1.8046
1.8046
1.8046
1.80461
1.80461
1.80461
1.80461
1.80461
1.80462
1.80462
1.80462
1.80462
1.80462
1.80462
1.80462
1.80462
1.80462
1.80462
1.80462
1.80462
1.80461
1.80461
1.80461
1.80461
1.80461
1.8046
1.8046
1.8046
1.80459
1.80459
1.80459
1.80458
1.80458
1.80457
1.80457
1.80456
1.80455
1.80454
1.80452
1.80448
1.80441
1.80428
1.80407
1.80376
2.50748
2.50793
2.50824
2.50843
2.50853
2.50859
2.50862
2.50864
2.50866
2.50866
2.50867
2.50868
2.50868
2.50869
2.5087
2.5087
2.5087
2.50871
2.50871
2.50872
2.50872
2.50872
2.50873
2.50873
2.50873
2.50873
2.50873
2.50873
2.50874
2.50874
2.50874
2.50874
2.50873
2.50873
2.50873
2.50873
2.50873
2.50873
2.50872
2.50872
2.50872
2.50871
2.50871
2.5087
2.5087
2.5087
2.50869
2.50868
2.50868
2.50867
2.50866
2.50866
2.50864
2.50862
2.50859
2.50853
2.50843
2.50824
2.50793
2.50748
3.21953
3.22013
3.22054
3.22078
3.22092
3.221
3.22104
3.22107
3.22108
3.2211
3.22111
3.22111
3.22112
3.22113
3.22114
3.22114
3.22115
3.22115
3.22116
3.22116
3.22117
3.22117
3.22118
3.22118
3.22118
3.22118
3.22119
3.22119
3.22119
3.22119
3.22119
3.22119
3.22119
3.22119
3.22118
3.22118
3.22118
3.22118
3.22117
3.22117
3.22116
3.22116
3.22115
3.22115
3.22114
3.22114
3.22113
3.22112
3.22111
3.22111
3.2211
3.22108
3.22107
3.22104
3.221
3.22092
3.22078
3.22054
3.22013
3.21953
3.93969
3.94042
3.94094
3.94124
3.94141
3.94151
3.94156
3.94159
3.94161
3.94163
3.94164
3.94165
3.94166
3.94167
3.94168
3.94168
3.94169
3.9417
3.94171
3.94171
3.94172
3.94172
3.94173
3.94173
3.94173
3.94174
3.94174
3.94174
3.94174
3.94174
3.94174
3.94174
3.94174
3.94174
3.94174
3.94173
3.94173
3.94173
3.94172
3.94172
3.94171
3.94171
3.9417
3.94169
3.94168
3.94168
3.94167
3.94166
3.94165
3.94164
3.94163
3.94161
3.94159
3.94156
3.94151
3.94141
3.94124
3.94094
3.94042
3.93969
4.66724
4.66811
4.66872
4.66908
4.66928
4.66939
4.66946
4.6695
4.66952
4.66954
4.66955
4.66957
4.66958
4.66959
4.6696
4.66961
4.66962
4.66963
4.66963
4.66964
4.66965
4.66965
4.66966
4.66966
4.66967
4.66967
4.66967
4.66968
4.66968
4.66968
4.66968
4.66968
4.66968
4.66967
4.66967
4.66967
4.66966
4.66966
4.66965
4.66965
4.66964
4.66963
4.66963
4.66962
4.66961
4.6696
4.66959
4.66958
4.66957
4.66955
4.66954
4.66952
4.6695
4.66946
4.66939
4.66928
4.66908
4.66872
4.66811
4.66724
5.40127
5.40227
5.40298
5.4034
5.40363
5.40376
5.40384
5.40388
5.40391
5.40393
5.40395
5.40396
5.40398
5.40399
5.404
5.40401
5.40402
5.40403
5.40404
5.40405
5.40406
5.40406
5.40407
5.40407
5.40408
5.40408
5.40409
5.40409
5.40409
5.40409
5.40409
5.40409
5.40409
5.40409
5.40408
5.40408
5.40407
5.40407
5.40406
5.40406
5.40405
5.40404
5.40403
5.40402
5.40401
5.404
5.40399
5.40398
5.40396
5.40395
5.40393
5.40391
5.40388
5.40384
5.40376
5.40363
5.4034
5.40298
5.40227
5.40127
6.14073
6.14186
6.14266
6.14314
6.1434
6.14355
6.14364
6.14369
6.14372
6.14374
6.14376
6.14378
6.14379
6.14381
6.14382
6.14383
6.14385
6.14386
6.14387
6.14388
6.14389
6.14389
6.1439
6.14391
6.14391
6.14392
6.14392
6.14392
6.14393
6.14393
6.14393
6.14393
6.14392
6.14392
6.14392
6.14391
6.14391
6.1439
6.14389
6.14389
6.14388
6.14387
6.14386
6.14385
6.14383
6.14382
6.14381
6.14379
6.14378
6.14376
6.14374
6.14372
6.14369
6.14364
6.14355
6.1434
6.14314
6.14266
6.14186
6.14073
6.88441
6.88567
6.88656
6.88709
6.88738
6.88755
6.88764
6.8877
6.88773
6.88776
6.88778
6.8878
6.88782
6.88783
6.88785
6.88786
6.88788
6.88789
6.8879
6.88791
6.88792
6.88793
6.88794
6.88795
6.88795
6.88796
6.88796
6.88796
6.88797
6.88797
6.88797
6.88797
6.88796
6.88796
6.88796
6.88795
6.88795
6.88794
6.88793
6.88792
6.88791
6.8879
6.88789
6.88788
6.88786
6.88785
6.88783
6.88782
6.8878
6.88778
6.88776
6.88773
6.8877
6.88764
6.88755
6.88738
6.88709
6.88656
6.88567
6.88441
7.63091
7.63229
7.63326
7.63384
7.63416
7.63435
7.63445
7.63451
7.63455
7.63458
7.63461
7.63463
7.63465
7.63466
7.63468
7.6347
7.63471
7.63472
7.63474
7.63475
7.63476
7.63477
7.63478
7.63479
7.63479
7.6348
7.6348
7.63481
7.63481
7.63481
7.63481
7.63481
7.63481
7.6348
7.6348
7.63479
7.63479
7.63478
7.63477
7.63476
7.63475
7.63474
7.63472
7.63471
7.6347
7.63468
7.63466
7.63465
7.63463
7.63461
7.63458
7.63455
7.63451
7.63445
7.63435
7.63416
7.63384
7.63326
7.63229
7.63091
8.37861
8.38011
8.38116
8.38179
8.38214
8.38234
8.38245
8.38252
8.38256
8.38259
8.38262
8.38264
8.38266
8.38268
8.3827
8.38272
8.38274
8.38275
8.38277
8.38278
8.38279
8.3828
8.38281
8.38282
8.38283
8.38284
8.38284
8.38284
8.38285
8.38285
8.38285
8.38285
8.38284
8.38284
8.38284
8.38283
8.38282
8.38281
8.3828
8.38279
8.38278
8.38277
8.38275
8.38274
8.38272
8.3827
8.38268
8.38266
8.38264
8.38262
8.38259
8.38256
8.38252
8.38245
8.38234
8.38214
8.38179
8.38116
8.38011
8.37861
9.12568
9.12728
9.12841
9.12908
9.12946
9.12967
9.12979
9.12986
9.12991
9.12994
9.12997
9.13
9.13002
9.13004
9.13006
9.13008
9.1301
9.13012
9.13013
9.13015
9.13016
9.13017
9.13018
9.13019
9.1302
9.13021
9.13021
9.13022
9.13022
9.13022
9.13022
9.13022
9.13022
9.13021
9.13021
9.1302
9.13019
9.13018
9.13017
9.13016
9.13015
9.13013
9.13012
9.1301
9.13008
9.13006
9.13004
9.13002
9.13
9.12997
9.12994
9.12991
9.12986
9.12979
9.12967
9.12946
9.12908
9.12841
9.12728
9.12568
9.86997
9.87166
9.87286
9.87357
9.87397
9.8742
9.87433
9.8744
9.87446
9.87449
9.87453
9.87455
9.87458
9.8746
9.87462
9.87464
9.87466
9.87468
9.8747
9.87472
9.87473
9.87474
9.87476
9.87477
9.87477
9.87478
9.87479
9.87479
9.87479
9.8748
9.8748
9.87479
9.87479
9.87479
9.87478
9.87477
9.87477
9.87476
9.87474
9.87473
9.87472
9.8747
9.87468
9.87466
9.87464
9.87462
9.8746
9.87458
9.87455
9.87453
9.87449
9.87446
9.8744
9.87433
9.8742
9.87397
9.87357
9.87286
9.87166
9.86997
10.609
10.6108
10.6121
10.6128
10.6132
10.6135
10.6136
10.6137
10.6137
10.6138
10.6138
10.6138
10.6139
10.6139
10.6139
10.6139
10.614
10.614
10.614
10.614
10.614
10.614
10.6141
10.6141
10.6141
10.6141
10.6141
10.6141
10.6141
10.6141
10.6141
10.6141
10.6141
10.6141
10.6141
10.6141
10.6141
10.6141
10.614
10.614
10.614
10.614
10.614
10.614
10.6139
10.6139
10.6139
10.6139
10.6138
10.6138
10.6138
10.6137
10.6137
10.6136
10.6135
10.6132
10.6128
10.6121
10.6108
10.609
11.34
11.3418
11.3431
11.3439
11.3443
11.3446
11.3447
11.3448
11.3449
11.3449
11.3449
11.345
11.345
11.345
11.3451
11.3451
11.3451
11.3451
11.3452
11.3452
11.3452
11.3452
11.3452
11.3452
11.3452
11.3452
11.3453
11.3453
11.3453
11.3453
11.3453
11.3453
11.3453
11.3453
11.3452
11.3452
11.3452
11.3452
11.3452
11.3452
11.3452
11.3452
11.3451
11.3451
11.3451
11.3451
11.345
11.345
11.345
11.3449
11.3449
11.3449
11.3448
11.3447
11.3446
11.3443
11.3439
11.3431
11.3418
11.34
12.0595
12.0614
12.0627
12.0635
12.064
12.0642
12.0644
12.0645
12.0645
12.0646
12.0646
12.0646
12.0647
12.0647
12.0647
12.0648
12.0648
12.0648
12.0648
12.0648
12.0649
12.0649
12.0649
12.0649
12.0649
12.0649
12.0649
12.0649
12.0649
12.065
12.065
12.0649
12.0649
12.0649
12.0649
12.0649
12.0649
12.0649
12.0649
12.0649
12.0648
12.0648
12.0648
12.0648
12.0648
12.0647
12.0647
12.0647
12.0646
12.0646
12.0646
12.0645
12.0645
12.0644
12.0642
12.064
12.0635
12.0627
12.0614
12.0595
12.7636
12.7656
12.767
12.7678
12.7682
12.7685
12.7686
12.7687
12.7688
12.7688
12.7689
12.7689
12.769
12.769
12.769
12.769
12.7691
12.7691
12.7691
12.7691
12.7692
12.7692
12.7692
12.7692
12.7692
12.7692
12.7692
12.7692
12.7692
12.7692
12.7692
12.7692
12.7692
12.7692
12.7692
12.7692
12.7692
12.7692
12.7692
12.7692
12.7691
12.7691
12.7691
12.7691
12.769
12.769
12.769
12.769
12.7689
12.7689
12.7688
12.7688
12.7687
12.7686
12.7685
12.7682
12.7678
12.767
12.7656
12.7636
13.4478
13.4498
13.4512
13.452
13.4525
13.4527
13.4529
13.453
13.453
13.4531
13.4531
13.4532
13.4532
13.4532
13.4533
13.4533
13.4533
13.4534
13.4534
13.4534
13.4534
13.4534
13.4535
13.4535
13.4535
13.4535
13.4535
13.4535
13.4535
13.4535
13.4535
13.4535
13.4535
13.4535
13.4535
13.4535
13.4535
13.4535
13.4534
13.4534
13.4534
13.4534
13.4534
13.4533
13.4533
13.4533
13.4532
13.4532
13.4532
13.4531
13.4531
13.453
13.453
13.4529
13.4527
13.4525
13.452
13.4512
13.4498
13.4478
14.1066
14.1085
14.1099
14.1107
14.1112
14.1114
14.1116
14.1117
14.1117
14.1118
14.1118
14.1119
14.1119
14.112
14.112
14.112
14.112
14.1121
14.1121
14.1121
14.1121
14.1122
14.1122
14.1122
14.1122
14.1122
14.1122
14.1122
14.1122
14.1122
14.1122
14.1122
14.1122
14.1122
14.1122
14.1122
14.1122
14.1122
14.1122
14.1121
14.1121
14.1121
14.1121
14.112
14.112
14.112
14.112
14.1119
14.1119
14.1118
14.1118
14.1117
14.1117
14.1116
14.1114
14.1112
14.1107
14.1099
14.1085
14.1066
14.7332
14.7351
14.7365
14.7372
14.7377
14.738
14.7381
14.7382
14.7383
14.7383
14.7384
14.7384
14.7384
14.7385
14.7385
14.7385
14.7386
14.7386
14.7386
14.7387
14.7387
14.7387
14.7387
14.7387
14.7388
14.7388
14.7388
14.7388
14.7388
14.7388
14.7388
14.7388
14.7388
14.7388
14.7388
14.7388
14.7387
14.7387
14.7387
14.7387
14.7387
14.7386
14.7386
14.7386
14.7385
14.7385
14.7385
14.7384
14.7384
14.7384
14.7383
14.7383
14.7382
14.7381
14.738
14.7377
14.7372
14.7365
14.7351
14.7332
15.3198
15.3216
15.3229
15.3236
15.324
15.3243
15.3244
15.3245
15.3246
15.3246
15.3247
15.3247
15.3248
15.3248
15.3248
15.3249
15.3249
15.3249
15.325
15.325
15.325
15.325
15.3251
15.3251
15.3251
15.3251
15.3251
15.3251
15.3251
15.3251
15.3251
15.3251
15.3251
15.3251
15.3251
15.3251
15.3251
15.3251
15.325
15.325
15.325
15.325
15.3249
15.3249
15.3249
15.3248
15.3248
15.3248
15.3247
15.3247
15.3246
15.3246
15.3245
15.3244
15.3243
15.324
15.3236
15.3229
15.3216
15.3198
15.8569
15.8585
15.8597
15.8604
15.8608
15.861
15.8611
15.8612
15.8613
15.8614
15.8614
15.8614
15.8615
15.8615
15.8616
15.8616
15.8616
15.8617
15.8617
15.8617
15.8617
15.8618
15.8618
15.8618
15.8618
15.8618
15.8618
15.8619
15.8619
15.8619
15.8619
15.8619
15.8619
15.8618
15.8618
15.8618
15.8618
15.8618
15.8618
15.8617
15.8617
15.8617
15.8617
15.8616
15.8616
15.8616
15.8615
15.8615
15.8614
15.8614
15.8614
15.8613
15.8612
15.8611
15.861
15.8608
15.8604
15.8597
15.8585
15.8569
16.3343
16.3357
16.3367
16.3373
16.3377
16.3379
16.338
16.3381
16.3382
16.3382
16.3383
16.3383
16.3384
16.3384
16.3385
16.3385
16.3385
16.3386
16.3386
16.3386
16.3386
16.3387
16.3387
16.3387
16.3387
16.3387
16.3387
16.3388
16.3388
16.3388
16.3388
16.3388
16.3388
16.3387
16.3387
16.3387
16.3387
16.3387
16.3387
16.3386
16.3386
16.3386
16.3386
16.3385
16.3385
16.3385
16.3384
16.3384
16.3383
16.3383
16.3382
16.3382
16.3381
16.338
16.3379
16.3377
16.3373
16.3367
16.3357
16.3343
16.743
16.7442
16.745
16.7455
16.7458
16.746
16.7461
16.7462
16.7463
16.7463
16.7464
16.7464
16.7465
16.7465
16.7465
16.7466
16.7466
16.7466
16.7467
16.7467
16.7467
16.7468
16.7468
16.7468
16.7468
16.7468
16.7468
16.7468
16.7469
16.7469
16.7469
16.7469
16.7468
16.7468
16.7468
16.7468
16.7468
16.7468
16.7468
16.7467
16.7467
16.7467
16.7466
16.7466
16.7466
16.7465
16.7465
16.7465
16.7464
16.7464
16.7463
16.7463
16.7462
16.7461
16.746
16.7458
16.7455
16.745
16.7442
16.743
17.0786
17.0795
17.0802
17.0806
17.0808
17.081
17.0811
17.0811
17.0812
17.0812
17.0813
17.0813
17.0814
17.0814
17.0815
17.0815
17.0816
17.0816
17.0816
17.0817
17.0817
17.0817
17.0817
17.0817
17.0818
17.0818
17.0818
17.0818
17.0818
17.0818
17.0818
17.0818
17.0818
17.0818
17.0818
17.0818
17.0817
17.0817
17.0817
17.0817
17.0817
17.0816
17.0816
17.0816
17.0815
17.0815
17.0814
17.0814
17.0813
17.0813
17.0812
17.0812
17.0811
17.0811
17.081
17.0808
17.0806
17.0802
17.0795
17.0786
17.3443
17.3449
17.3454
17.3457
17.3459
17.346
17.3461
17.3461
17.3462
17.3463
17.3463
17.3464
17.3464
17.3464
17.3465
17.3465
17.3466
17.3466
17.3466
17.3467
17.3467
17.3467
17.3468
17.3468
17.3468
17.3468
17.3468
17.3468
17.3468
17.3468
17.3468
17.3468
17.3468
17.3468
17.3468
17.3468
17.3468
17.3468
17.3467
17.3467
17.3467
17.3466
17.3466
17.3466
17.3465
17.3465
17.3464
17.3464
17.3464
17.3463
17.3463
17.3462
17.3461
17.3461
17.346
17.3459
17.3457
17.3454
17.3449
17.3443
17.5504
17.5508
17.5511
17.5513
17.5515
17.5516
17.5517
17.5517
17.5518
17.5518
17.5519
17.5519
17.552
17.552
17.5521
17.5521
17.5521
17.5522
17.5522
17.5523
17.5523
17.5523
17.5523
17.5524
17.5524
17.5524
17.5524
17.5524
17.5524
17.5524
17.5524
17.5524
17.5524
17.5524
17.5524
17.5524
17.5524
17.5523
17.5523
17.5523
17.5523
17.5522
17.5522
17.5521
17.5521
17.5521
17.552
17.552
17.5519
17.5519
17.5518
17.5518
17.5517
17.5517
17.5516
17.5515
17.5513
17.5511
17.5508
17.5504
17.7109
17.7112
17.7114
17.7115
17.7116
17.7117
17.7118
17.7118
17.7119
17.7119
17.712
17.712
17.7121
17.7121
17.7122
17.7122
17.7123
17.7123
17.7124
17.7124
17.7124
17.7125
17.7125
17.7125
17.7125
17.7125
17.7126
17.7126
17.7126
17.7126
17.7126
17.7126
17.7126
17.7126
17.7125
17.7125
17.7125
17.7125
17.7125
17.7124
17.7124
17.7124
17.7123
17.7123
17.7122
17.7122
17.7121
17.7121
17.712
17.712
17.7119
17.7119
17.7118
17.7118
17.7117
17.7116
17.7115
17.7114
17.7112
17.7109
17.8392
17.8393
17.8394
17.8395
17.8396
17.8397
17.8397
17.8398
17.8398
17.8399
17.8399
17.84
17.84
17.8401
17.8401
17.8402
17.8402
17.8403
17.8403
17.8404
17.8404
17.8404
17.8405
17.8405
17.8405
17.8405
17.8405
17.8405
17.8406
17.8406
17.8406
17.8406
17.8405
17.8405
17.8405
17.8405
17.8405
17.8405
17.8404
17.8404
17.8404
17.8403
17.8403
17.8402
17.8402
17.8401
17.8401
17.84
17.84
17.8399
17.8399
17.8398
17.8398
17.8397
17.8397
17.8396
17.8395
17.8394
17.8393
17.8392
17.9452
17.9453
17.9454
17.9455
17.9455
17.9456
17.9456
17.9457
17.9458
17.9458
17.9459
17.9459
17.946
17.946
17.9461
17.9461
17.9462
17.9462
17.9463
17.9463
17.9463
17.9464
17.9464
17.9464
17.9465
17.9465
17.9465
17.9465
17.9465
17.9465
17.9465
17.9465
17.9465
17.9465
17.9465
17.9465
17.9464
17.9464
17.9464
17.9463
17.9463
17.9463
17.9462
17.9462
17.9461
17.9461
17.946
17.946
17.9459
17.9459
17.9458
17.9458
17.9457
17.9456
17.9456
17.9455
17.9455
17.9454
17.9453
17.9452
18.0361
18.0362
18.0362
18.0363
18.0363
18.0364
18.0364
18.0365
18.0365
18.0366
18.0367
18.0367
18.0368
18.0368
18.0369
18.0369
18.037
18.037
18.0371
18.0371
18.0372
18.0372
18.0372
18.0373
18.0373
18.0373
18.0373
18.0373
18.0373
18.0373
18.0373
18.0373
18.0373
18.0373
18.0373
18.0373
18.0373
18.0372
18.0372
18.0372
18.0371
18.0371
18.037
18.037
18.0369
18.0369
18.0368
18.0368
18.0367
18.0367
18.0366
18.0365
18.0365
18.0364
18.0364
18.0363
18.0363
18.0362
18.0362
18.0361
18.1163
18.1162
18.1163
18.1163
18.1164
18.1164
18.1165
18.1165
18.1166
18.1166
18.1167
18.1168
18.1168
18.1169
18.1169
18.117
18.1171
18.1171
18.1172
18.1172
18.1172
18.1173
18.1173
18.1173
18.1174
18.1174
18.1174
18.1174
18.1174
18.1174
18.1174
18.1174
18.1174
18.1174
18.1174
18.1174
18.1173
18.1173
18.1173
18.1172
18.1172
18.1172
18.1171
18.1171
18.117
18.1169
18.1169
18.1168
18.1168
18.1167
18.1166
18.1166
18.1165
18.1165
18.1164
18.1164
18.1163
18.1163
18.1162
18.1163
18.1884
18.1884
18.1884
18.1884
18.1885
18.1885
18.1886
18.1886
18.1887
18.1888
18.1888
18.1889
18.189
18.189
18.1891
18.1891
18.1892
18.1892
18.1893
18.1893
18.1894
18.1894
18.1895
18.1895
18.1895
18.1895
18.1896
18.1896
18.1896
18.1896
18.1896
18.1896
18.1896
18.1896
18.1895
18.1895
18.1895
18.1895
18.1894
18.1894
18.1893
18.1893
18.1892
18.1892
18.1891
18.1891
18.189
18.189
18.1889
18.1888
18.1888
18.1887
18.1886
18.1886
18.1885
18.1885
18.1884
18.1884
18.1884
18.1884
18.2545
18.2544
18.2544
18.2544
18.2545
18.2545
18.2546
18.2546
18.2547
18.2548
18.2548
18.2549
18.255
18.255
18.2551
18.2552
18.2552
18.2553
18.2553
18.2554
18.2554
18.2555
18.2555
18.2556
18.2556
18.2556
18.2556
18.2556
18.2556
18.2556
18.2556
18.2556
18.2556
18.2556
18.2556
18.2556
18.2556
18.2555
18.2555
18.2554
18.2554
18.2553
18.2553
18.2552
18.2552
18.2551
18.255
18.255
18.2549
18.2548
18.2548
18.2547
18.2546
18.2546
18.2545
18.2545
18.2544
18.2544
18.2544
18.2545
18.3157
18.3156
18.3156
18.3156
18.3157
18.3157
18.3158
18.3158
18.3159
18.316
18.316
18.3161
18.3162
18.3163
18.3163
18.3164
18.3165
18.3165
18.3166
18.3166
18.3167
18.3167
18.3168
18.3168
18.3168
18.3168
18.3169
18.3169
18.3169
18.3169
18.3169
18.3169
18.3169
18.3169
18.3168
18.3168
18.3168
18.3168
18.3167
18.3167
18.3166
18.3166
18.3165
18.3165
18.3164
18.3163
18.3163
18.3162
18.3161
18.316
18.316
18.3159
18.3158
18.3158
18.3157
18.3157
18.3156
18.3156
18.3156
18.3157
18.373
18.373
18.3729
18.3729
18.373
18.373
18.3731
18.3731
18.3732
18.3733
18.3734
18.3734
18.3735
18.3736
18.3737
18.3737
18.3738
18.3739
18.3739
18.374
18.374
18.3741
18.3741
18.3741
18.3742
18.3742
18.3742
18.3742
18.3742
18.3743
18.3743
18.3742
18.3742
18.3742
18.3742
18.3742
18.3741
18.3741
18.3741
18.374
18.374
18.3739
18.3739
18.3738
18.3737
18.3737
18.3736
18.3735
18.3734
18.3734
18.3733
18.3732
18.3731
18.3731
18.373
18.373
18.3729
18.3729
18.373
18.373
18.4271
18.4271
18.427
18.427
18.4271
18.4271
18.4272
18.4272
18.4273
18.4274
18.4275
18.4275
18.4276
18.4277
18.4278
18.4279
18.4279
18.428
18.4281
18.4281
18.4282
18.4282
18.4283
18.4283
18.4283
18.4284
18.4284
18.4284
18.4284
18.4284
18.4284
18.4284
18.4284
18.4284
18.4284
18.4283
18.4283
18.4283
18.4282
18.4282
18.4281
18.4281
18.428
18.4279
18.4279
18.4278
18.4277
18.4276
18.4275
18.4275
18.4274
18.4273
18.4272
18.4272
18.4271
18.4271
18.427
18.427
18.4271
18.4271
18.4786
18.4785
18.4785
18.4785
18.4785
18.4785
18.4786
18.4787
18.4788
18.4788
18.4789
18.479
18.4791
18.4792
18.4792
18.4793
18.4794
18.4795
18.4795
18.4796
18.4797
18.4797
18.4797
18.4798
18.4798
18.4799
18.4799
18.4799
18.4799
18.4799
18.4799
18.4799
18.4799
18.4799
18.4799
18.4798
18.4798
18.4797
18.4797
18.4797
18.4796
18.4795
18.4795
18.4794
18.4793
18.4792
18.4792
18.4791
18.479
18.4789
18.4788
18.4788
18.4787
18.4786
18.4785
18.4785
18.4785
18.4785
18.4785
18.4786
18.5278
18.5277
18.5277
18.5277
18.5277
18.5277
18.5278
18.5279
18.528
18.528
18.5281
18.5282
18.5283
18.5284
18.5285
18.5286
18.5286
18.5287
18.5288
18.5288
18.5289
18.529
18.529
18.529
18.5291
18.5291
18.5291
18.5291
18.5292
18.5292
18.5292
18.5292
18.5291
18.5291
18.5291
18.5291
18.529
18.529
18.529
18.5289
18.5288
18.5288
18.5287
18.5286
18.5286
18.5285
18.5284
18.5283
18.5282
18.5281
18.528
18.528
18.5279
18.5278
18.5277
18.5277
18.5277
18.5277
18.5277
18.5278
18.5751
18.575
18.575
18.575
18.575
18.575
18.5751
18.5752
18.5753
18.5754
18.5754
18.5755
18.5756
18.5757
18.5758
18.5759
18.576
18.5761
18.5761
18.5762
18.5763
18.5763
18.5764
18.5764
18.5764
18.5765
18.5765
18.5765
18.5765
18.5765
18.5765
18.5765
18.5765
18.5765
18.5765
18.5764
18.5764
18.5764
18.5763
18.5763
18.5762
18.5761
18.5761
18.576
18.5759
18.5758
18.5757
18.5756
18.5755
18.5754
18.5754
18.5753
18.5752
18.5751
18.575
18.575
18.575
18.575
18.575
18.5751
18.6208
18.6207
18.6207
18.6206
18.6207
18.6207
18.6208
18.6209
18.621
18.6211
18.6211
18.6212
18.6213
18.6214
18.6215
18.6216
18.6217
18.6218
18.6219
18.6219
18.622
18.6221
18.6221
18.6222
18.6222
18.6222
18.6223
18.6223
18.6223
18.6223
18.6223
18.6223
18.6223
18.6223
18.6222
18.6222
18.6222
18.6221
18.6221
18.622
18.6219
18.6219
18.6218
18.6217
18.6216
18.6215
18.6214
18.6213
18.6212
18.6211
18.6211
18.621
18.6209
18.6208
18.6207
18.6207
18.6206
18.6207
18.6207
18.6208
18.6651
18.665
18.665
18.665
18.665
18.665
18.6651
18.6652
18.6653
18.6654
18.6655
18.6656
18.6657
18.6658
18.6659
18.666
18.6661
18.6661
18.6662
18.6663
18.6664
18.6664
18.6665
18.6665
18.6666
18.6666
18.6666
18.6667
18.6667
18.6667
18.6667
18.6667
18.6667
18.6666
18.6666
18.6666
18.6665
18.6665
18.6664
18.6664
18.6663
18.6662
18.6661
18.6661
18.666
18.6659
18.6658
18.6657
18.6656
18.6655
18.6654
18.6653
18.6652
18.6651
18.665
18.665
18.665
18.665
18.665
18.6651
18.7082
18.7081
18.7081
18.7081
18.7081
18.7082
18.7083
18.7083
18.7084
18.7085
18.7086
18.7087
18.7088
18.709
18.7091
18.7092
18.7092
18.7093
18.7094
18.7095
18.7096
18.7096
18.7097
18.7097
18.7098
18.7098
18.7098
18.7099
18.7099
18.7099
18.7099
18.7099
18.7099
18.7098
18.7098
18.7098
18.7097
18.7097
18.7096
18.7096
18.7095
18.7094
18.7093
18.7092
18.7092
18.7091
18.709
18.7088
18.7087
18.7086
18.7085
18.7084
18.7083
18.7083
18.7082
18.7081
18.7081
18.7081
18.7081
18.7082
18.7503
18.7503
18.7502
18.7502
18.7503
18.7503
18.7504
18.7505
18.7506
18.7507
18.7508
18.7509
18.751
18.7511
18.7512
18.7513
18.7514
18.7515
18.7516
18.7517
18.7518
18.7518
18.7519
18.7519
18.752
18.752
18.7521
18.7521
18.7521
18.7521
18.7521
18.7521
18.7521
18.7521
18.752
18.752
18.7519
18.7519
18.7518
18.7518
18.7517
18.7516
18.7515
18.7514
18.7513
18.7512
18.7511
18.751
18.7509
18.7508
18.7507
18.7506
18.7505
18.7504
18.7503
18.7503
18.7502
18.7502
18.7503
18.7503
18.7916
18.7915
18.7915
18.7915
18.7915
18.7916
18.7917
18.7918
18.7919
18.792
18.7921
18.7922
18.7923
18.7924
18.7925
18.7927
18.7928
18.7929
18.7929
18.793
18.7931
18.7932
18.7932
18.7933
18.7933
18.7934
18.7934
18.7934
18.7935
18.7935
18.7935
18.7935
18.7934
18.7934
18.7934
18.7933
18.7933
18.7932
18.7932
18.7931
18.793
18.7929
18.7929
18.7928
18.7927
18.7925
18.7924
18.7923
18.7922
18.7921
18.792
18.7919
18.7918
18.7917
18.7916
18.7915
18.7915
18.7915
18.7915
18.7916
18.8321
18.8321
18.8321
18.8321
18.8321
18.8321
18.8322
18.8323
18.8324
18.8325
18.8327
18.8328
18.8329
18.833
18.8331
18.8333
18.8334
18.8335
18.8336
18.8337
18.8337
18.8338
18.8339
18.8339
18.834
18.834
18.8341
18.8341
18.8341
18.8341
18.8341
18.8341
18.8341
18.8341
18.834
18.834
18.8339
18.8339
18.8338
18.8337
18.8337
18.8336
18.8335
18.8334
18.8333
18.8331
18.833
18.8329
18.8328
18.8327
18.8325
18.8324
18.8323
18.8322
18.8321
18.8321
18.8321
18.8321
18.8321
18.8321
18.8721
18.872
18.872
18.872
18.872
18.8721
18.8722
18.8723
18.8724
18.8725
18.8726
18.8728
18.8729
18.873
18.8731
18.8732
18.8734
18.8735
18.8736
18.8737
18.8737
18.8738
18.8739
18.874
18.874
18.874
18.8741
18.8741
18.8741
18.8741
18.8741
18.8741
18.8741
18.8741
18.874
18.874
18.874
18.8739
18.8738
18.8737
18.8737
18.8736
18.8735
18.8734
18.8732
18.8731
18.873
18.8729
18.8728
18.8726
18.8725
18.8724
18.8723
18.8722
18.8721
18.872
18.872
18.872
18.872
18.8721
18.9115
18.9115
18.9114
18.9114
18.9115
18.9115
18.9116
18.9117
18.9118
18.912
18.9121
18.9122
18.9123
18.9125
18.9126
18.9127
18.9129
18.913
18.9131
18.9132
18.9133
18.9133
18.9134
18.9135
18.9135
18.9136
18.9136
18.9136
18.9136
18.9137
18.9137
18.9136
18.9136
18.9136
18.9136
18.9135
18.9135
18.9134
18.9133
18.9133
18.9132
18.9131
18.913
18.9129
18.9127
18.9126
18.9125
18.9123
18.9122
18.9121
18.912
18.9118
18.9117
18.9116
18.9115
18.9115
18.9114
18.9114
18.9115
18.9115
18.9505
18.9505
18.9504
18.9504
18.9505
18.9505
18.9506
18.9507
18.9509
18.951
18.9511
18.9513
18.9514
18.9515
18.9517
18.9518
18.9519
18.952
18.9522
18.9523
18.9523
18.9524
18.9525
18.9526
18.9526
18.9527
18.9527
18.9527
18.9528
18.9528
18.9528
18.9528
18.9527
18.9527
18.9527
18.9526
18.9526
18.9525
18.9524
18.9523
18.9523
18.9522
18.952
18.9519
18.9518
18.9517
18.9515
18.9514
18.9513
18.9511
18.951
18.9509
18.9507
18.9506
18.9505
18.9505
18.9504
18.9504
18.9505
18.9505
18.9892
18.9891
18.9891
18.9891
18.9891
18.9892
18.9893
18.9894
18.9896
18.9897
18.9898
18.99
18.9901
18.9903
18.9904
18.9905
18.9907
18.9908
18.9909
18.991
18.9911
18.9912
18.9913
18.9913
18.9914
18.9914
18.9915
18.9915
18.9915
18.9915
18.9915
18.9915
18.9915
18.9915
18.9914
18.9914
18.9913
18.9913
18.9912
18.9911
18.991
18.9909
18.9908
18.9907
18.9905
18.9904
18.9903
18.9901
18.99
18.9898
18.9897
18.9896
18.9894
18.9893
18.9892
18.9891
18.9891
18.9891
18.9891
18.9892
19.0276
19.0275
19.0275
19.0275
19.0276
19.0276
19.0277
19.0279
19.028
19.0281
19.0283
19.0284
19.0286
19.0287
19.0289
19.029
19.0291
19.0293
19.0294
19.0295
19.0296
19.0297
19.0298
19.0299
19.0299
19.03
19.03
19.03
19.0301
19.0301
19.0301
19.0301
19.03
19.03
19.03
19.0299
19.0299
19.0298
19.0297
19.0296
19.0295
19.0294
19.0293
19.0291
19.029
19.0289
19.0287
19.0286
19.0284
19.0283
19.0281
19.028
19.0279
19.0277
19.0276
19.0276
19.0275
19.0275
19.0275
19.0276
19.0658
19.0658
19.0657
19.0657
19.0658
19.0659
19.066
19.0661
19.0662
19.0664
19.0665
19.0667
19.0668
19.067
19.0672
19.0673
19.0674
19.0676
19.0677
19.0678
19.0679
19.068
19.0681
19.0682
19.0682
19.0683
19.0683
19.0684
19.0684
19.0684
19.0684
19.0684
19.0684
19.0683
19.0683
19.0682
19.0682
19.0681
19.068
19.0679
19.0678
19.0677
19.0676
19.0674
19.0673
19.0672
19.067
19.0668
19.0667
19.0665
19.0664
19.0662
19.0661
19.066
19.0659
19.0658
19.0657
19.0657
19.0658
19.0658
19.1039
19.1038
19.1038
19.1038
19.1039
19.104
19.1041
19.1042
19.1044
19.1045
19.1047
19.1048
19.105
19.1052
19.1053
19.1055
19.1056
19.1058
19.1059
19.106
19.1061
19.1062
19.1063
19.1064
19.1064
19.1065
19.1065
19.1066
19.1066
19.1066
19.1066
19.1066
19.1066
19.1065
19.1065
19.1064
19.1064
19.1063
19.1062
19.1061
19.106
19.1059
19.1058
19.1056
19.1055
19.1053
19.1052
19.105
19.1048
19.1047
19.1045
19.1044
19.1042
19.1041
19.104
19.1039
19.1038
19.1038
19.1038
19.1039
19.1419
19.1419
19.1419
19.1419
19.1419
19.142
19.1421
19.1423
19.1424
19.1426
19.1427
19.1429
19.1431
19.1433
19.1434
19.1436
19.1437
19.1439
19.144
19.1441
19.1442
19.1443
19.1444
19.1445
19.1446
19.1446
19.1447
19.1447
19.1448
19.1448
19.1448
19.1448
19.1447
19.1447
19.1446
19.1446
19.1445
19.1444
19.1443
19.1442
19.1441
19.144
19.1439
19.1437
19.1436
19.1434
19.1433
19.1431
19.1429
19.1427
19.1426
19.1424
19.1423
19.1421
19.142
19.1419
19.1419
19.1419
19.1419
19.1419
19.1799
19.1799
19.1799
19.1799
19.18
19.18
19.1802
19.1803
19.1805
19.1806
19.1808
19.181
19.1812
19.1813
19.1815
19.1817
19.1818
19.182
19.1821
19.1823
19.1824
19.1825
19.1826
19.1827
19.1827
19.1828
19.1828
19.1829
19.1829
19.1829
19.1829
19.1829
19.1829
19.1828
19.1828
19.1827
19.1827
19.1826
19.1825
19.1824
19.1823
19.1821
19.182
19.1818
19.1817
19.1815
19.1813
19.1812
19.181
19.1808
19.1806
19.1805
19.1803
19.1802
19.18
19.18
19.1799
19.1799
19.1799
19.1799
19.218
19.2179
19.2179
19.218
19.218
19.2181
19.2182
19.2184
19.2185
19.2187
19.2189
19.2191
19.2193
19.2195
19.2196
19.2198
19.22
19.2201
19.2203
19.2204
19.2205
19.2207
19.2208
19.2208
19.2209
19.221
19.221
19.2211
19.2211
19.2211
19.2211
19.2211
19.2211
19.221
19.221
19.2209
19.2208
19.2208
19.2207
19.2205
19.2204
19.2203
19.2201
19.22
19.2198
19.2196
19.2195
19.2193
19.2191
19.2189
19.2187
19.2185
19.2184
19.2182
19.2181
19.218
19.218
19.2179
19.2179
19.218
19.2561
19.2561
19.2561
19.2561
19.2562
19.2563
19.2564
19.2566
19.2567
19.2569
19.2571
19.2573
19.2575
19.2577
19.2579
19.2581
19.2582
19.2584
19.2585
19.2587
19.2588
19.2589
19.259
19.2591
19.2592
19.2593
19.2593
19.2594
19.2594
19.2594
19.2594
19.2594
19.2594
19.2593
19.2593
19.2592
19.2591
19.259
19.2589
19.2588
19.2587
19.2585
19.2584
19.2582
19.2581
19.2579
19.2577
19.2575
19.2573
19.2571
19.2569
19.2567
19.2566
19.2564
19.2563
19.2562
19.2561
19.2561
19.2561
19.2561
19.2944
19.2944
19.2944
19.2944
19.2945
19.2946
19.2947
19.2949
19.2951
19.2952
19.2954
19.2956
19.2958
19.296
19.2962
19.2964
19.2966
19.2968
19.2969
19.2971
19.2972
19.2973
19.2974
19.2975
19.2976
19.2977
19.2977
19.2978
19.2978
19.2978
19.2978
19.2978
19.2978
19.2977
19.2977
19.2976
19.2975
19.2974
19.2973
19.2972
19.2971
19.2969
19.2968
19.2966
19.2964
19.2962
19.296
19.2958
19.2956
19.2954
19.2952
19.2951
19.2949
19.2947
19.2946
19.2945
19.2944
19.2944
19.2944
19.2944
19.3329
19.3329
19.3329
19.3329
19.333
19.3331
19.3332
19.3334
19.3336
19.3338
19.334
19.3342
19.3344
19.3346
19.3348
19.335
19.3352
19.3354
19.3355
19.3357
19.3358
19.3359
19.3361
19.3362
19.3362
19.3363
19.3364
19.3364
19.3364
19.3365
19.3365
19.3364
19.3364
19.3364
19.3363
19.3362
19.3362
19.3361
19.3359
19.3358
19.3357
19.3355
19.3354
19.3352
19.335
19.3348
19.3346
19.3344
19.3342
19.334
19.3338
19.3336
19.3334
19.3332
19.3331
19.333
19.3329
19.3329
19.3329
19.3329
19.3716
19.3716
19.3716
19.3716
19.3717
19.3718
19.372
19.3721
19.3723
19.3725
19.3727
19.373
19.3732
19.3734
19.3736
19.3738
19.374
19.3742
19.3744
19.3745
19.3747
19.3748
19.3749
19.375
19.3751
19.3752
19.3752
19.3753
19.3753
19.3753
19.3753
19.3753
19.3753
19.3752
19.3752
19.3751
19.375
19.3749
19.3748
19.3747
19.3745
19.3744
19.3742
19.374
19.3738
19.3736
19.3734
19.3732
19.373
19.3727
19.3725
19.3723
19.3721
19.372
19.3718
19.3717
19.3716
19.3716
19.3716
19.3716
19.4105
19.4105
19.4106
19.4106
19.4107
19.4108
19.411
19.4111
19.4113
19.4116
19.4118
19.412
19.4122
19.4125
19.4127
19.4129
19.4131
19.4133
19.4135
19.4136
19.4138
19.4139
19.414