/*--------------------------------*- C++ -*----------------------------------*\
| =========                 |                                                 |
| \\      /  F ield         | foam-extend: Open Source CFD                    |
|  \\    /   O peration     | Version:     4.0                                |
|   \\  /    A nd           | Web:         http://www.foam-extend.org         |
|    \\/     M anipulation  |                                                 |
\*---------------------------------------------------------------------------*/
FoamFile
{
    version     2.0;
    format      ascii;
    class       volVectorField;
    location    "25";
    object      U;
}
// * * * * * * * * * * * * * * * * * * * * * * * * * * * * * * * * * * * * * //

dimensions      [0 1 -1 0 0 0 0];

internalField   nonuniform List<vector> 
6960
(
(-3.60754e-27 -1.31039e-25 0)
(-2.3378e-27 -3.66115e-27 0)
(4.8999e-28 -3.50351e-27 0)
(-2.55147e-28 -3.3896e-27 0)
(1.18967e-28 -3.45345e-27 0)
(-8.95768e-29 -3.54238e-27 0)
(7.48554e-29 -3.6924e-27 0)
(-1.35993e-29 -3.84358e-27 0)
(5.23334e-29 -3.96611e-27 0)
(2.21732e-29 -4.05e-27 0)
(4.92377e-29 -4.08208e-27 0)
(2.29475e-29 -4.06503e-27 0)
(2.88333e-29 -4.016e-27 0)
(3.53644e-29 -3.97947e-27 0)
(6.18432e-29 -4.00337e-27 0)
(6.04564e-29 -4.08909e-27 0)
(3.45554e-29 -4.19169e-27 0)
(-1.13483e-29 -4.25347e-27 0)
(-4.3234e-29 -4.25293e-27 0)
(-5.01894e-29 -4.20132e-27 0)
(-3.3634e-29 -4.12601e-27 0)
(-1.26856e-29 -4.04758e-27 0)
(2.51408e-30 -3.992e-27 0)
(1.06801e-29 -3.97012e-27 0)
(1.77723e-29 -3.96548e-27 0)
(2.43463e-29 -3.94738e-27 0)
(2.44935e-29 -3.89184e-27 0)
(1.05523e-29 -3.80632e-27 0)
(-1.69036e-29 -3.71268e-27 0)
(-4.7317e-29 -3.63695e-27 0)
(-6.56741e-29 -3.59796e-27 0)
(-6.30738e-29 -3.60968e-27 0)
(-4.22651e-29 -3.6574e-27 0)
(-1.53229e-29 -3.71147e-27 0)
(4.57057e-30 -3.74125e-27 0)
(1.0945e-29 -3.75103e-27 0)
(6.15811e-30 -3.76695e-27 0)
(-1.78737e-30 -3.80923e-27 0)
(-5.28536e-30 -3.875e-27 0)
(-2.00207e-30 -3.96163e-27 0)
(4.36017e-30 -4.07208e-27 0)
(7.70613e-30 -4.1858e-27 0)
(4.64781e-30 -4.25386e-27 0)
(-3.47553e-30 -4.23652e-27 0)
(-1.30641e-29 -4.15255e-27 0)
(-2.20828e-29 -4.07267e-27 0)
(-3.17937e-29 -4.05333e-27 0)
(-4.38338e-29 -4.08804e-27 0)
(-5.85209e-29 -4.12703e-27 0)
(-7.15247e-29 -4.12146e-27 0)
(-8.06295e-29 -4.06168e-27 0)
(-8.38098e-29 -3.9526e-27 0)
(-8.17379e-29 -3.80737e-27 0)
(-8.16202e-29 -3.63076e-27 0)
(-7.0141e-29 -3.43906e-27 0)
(-6.89782e-29 -3.29036e-27 0)
(-5.3463e-29 -3.1832e-27 0)
(-1.07407e-29 -3.18389e-27 0)
(-1.13002e-28 -3.20815e-27 0)
(8.46862e-29 -3.10914e-27 0)
(-6.50408e-27 -2.74884e-25 0)
(-2.90511e-27 -8.73445e-27 0)
(1.31939e-27 -8.36822e-27 0)
(-8.07883e-28 -8.10994e-27 0)
(3.30923e-28 -8.26401e-27 0)
(-2.78063e-28 -8.4211e-27 0)
(1.85703e-28 -8.7077e-27 0)
(-8.17287e-29 -9.00911e-27 0)
(1.02193e-28 -9.2557e-27 0)
(1.58688e-29 -9.39472e-27 0)
(1.02031e-28 -9.3936e-27 0)
(4.20895e-29 -9.29759e-27 0)
(7.52557e-29 -9.20272e-27 0)
(9.7558e-29 -9.21552e-27 0)
(1.62268e-28 -9.37779e-27 0)
(1.40739e-28 -9.62195e-27 0)
(5.88579e-29 -9.82413e-27 0)
(-6.23805e-29 -9.88902e-27 0)
(-1.29689e-28 -9.81251e-27 0)
(-1.24692e-28 -9.65598e-27 0)
(-6.2098e-29 -9.49695e-27 0)
(-2.90352e-31 -9.37916e-27 0)
(3.46554e-29 -9.31793e-27 0)
(4.47718e-29 -9.29533e-27 0)
(5.17957e-29 -9.26964e-27 0)
(5.95078e-29 -9.20301e-27 0)
(5.20939e-29 -9.07207e-27 0)
(9.90243e-30 -8.88495e-27 0)
(-6.30422e-29 -8.67379e-27 0)
(-1.37114e-28 -8.49211e-27 0)
(-1.74871e-28 -8.39848e-27 0)
(-1.58632e-28 -8.43019e-27 0)
(-1.01175e-28 -8.55409e-27 0)
(-3.61181e-29 -8.69163e-27 0)
(4.13792e-30 -8.76812e-27 0)
(7.07824e-30 -8.77959e-27 0)
(-1.57755e-29 -8.78065e-27 0)
(-3.92752e-29 -8.82763e-27 0)
(-4.19599e-29 -8.94458e-27 0)
(-1.97541e-29 -9.13916e-27 0)
(1.32833e-29 -9.40412e-27 0)
(3.58882e-29 -9.68296e-27 0)
(3.4314e-29 -9.87017e-27 0)
(9.98e-30 -9.87837e-27 0)
(-2.47315e-29 -9.72067e-27 0)
(-5.72788e-29 -9.52112e-27 0)
(-8.41641e-29 -9.41034e-27 0)
(-1.08596e-28 -9.42726e-27 0)
(-1.36566e-28 -9.50207e-27 0)
(-1.62715e-28 -9.52462e-27 0)
(-1.8487e-28 -9.43219e-27 0)
(-1.95296e-28 -9.21696e-27 0)
(-1.95169e-28 -8.91486e-27 0)
(-2.01367e-28 -8.56009e-27 0)
(-1.78951e-28 -8.17682e-27 0)
(-1.91979e-28 -7.86978e-27 0)
(-1.47471e-28 -7.60732e-27 0)
(-6.04978e-29 -7.56779e-27 0)
(-3.07615e-28 -7.59036e-27 0)
(2.23725e-28 -7.36736e-27 0)
(-8.90817e-27 -2.76262e-25 0)
(-3.18181e-27 -1.74154e-26 0)
(2.01355e-27 -1.68538e-26 0)
(-1.40281e-27 -1.63292e-26 0)
(5.13272e-28 -1.65949e-26 0)
(-4.81888e-28 -1.68048e-26 0)
(2.60853e-28 -1.72301e-26 0)
(-1.83269e-28 -1.76634e-26 0)
(1.12113e-28 -1.80119e-26 0)
(-2.39857e-29 -1.8184e-26 0)
(1.27814e-28 -1.81271e-26 0)
(4.80197e-29 -1.79192e-26 0)
(1.14069e-28 -1.77565e-26 0)
(1.44041e-28 -1.78459e-26 0)
(2.28639e-28 -1.82353e-26 0)
(1.75521e-28 -1.87498e-26 0)
(4.43829e-29 -1.91185e-26 0)
(-1.28582e-28 -1.91729e-26 0)
(-2.04515e-28 -1.89458e-26 0)
(-1.70782e-28 -1.86091e-26 0)
(-5.97106e-29 -1.83352e-26 0)
(3.65335e-29 -1.81893e-26 0)
(8.29809e-29 -1.81259e-26 0)
(8.80682e-29 -1.80601e-26 0)
(8.79951e-29 -1.79358e-26 0)
(8.89091e-29 -1.7753e-26 0)
(6.79742e-29 -1.75177e-26 0)
(-2.12636e-30 -1.72216e-26 0)
(-1.12508e-28 -1.68816e-26 0)
(-2.18016e-28 -1.65651e-26 0)
(-2.65274e-28 -1.63805e-26 0)
(-2.32934e-28 -1.63939e-26 0)
(-1.45328e-28 -1.65702e-26 0)
(-5.52461e-29 -1.68056e-26 0)
(-8.77228e-30 -1.69989e-26 0)
(-1.87287e-29 -1.71005e-26 0)
(-6.16741e-29 -1.71329e-26 0)
(-9.71319e-29 -1.71625e-26 0)
(-9.45727e-29 -1.72878e-26 0)
(-5.11413e-29 -1.76006e-26 0)
(1.04116e-29 -1.81104e-26 0)
(5.77534e-29 -1.86901e-26 0)
(6.78774e-29 -1.91072e-26 0)
(3.80968e-29 -1.91766e-26 0)
(-1.65591e-29 -1.89001e-26 0)
(-7.48309e-29 -1.8502e-26 0)
(-1.23287e-28 -1.82449e-26 0)
(-1.59323e-28 -1.82445e-26 0)
(-1.91738e-28 -1.83826e-26 0)
(-2.18773e-28 -1.84444e-26 0)
(-2.45224e-28 -1.82907e-26 0)
(-2.60248e-28 -1.79223e-26 0)
(-2.6564e-28 -1.74347e-26 0)
(-2.81221e-28 -1.69176e-26 0)
(-2.54307e-28 -1.63684e-26 0)
(-2.88844e-28 -1.59013e-26 0)
(-2.16224e-28 -1.53775e-26 0)
(-1.21442e-28 -1.51829e-26 0)
(-4.61776e-28 -1.51101e-26 0)
(3.3061e-28 -1.46482e-26 0)
(-1.1586e-26 -2.66178e-25 0)
(-3.9363e-27 -2.70944e-26 0)
(2.57902e-27 -2.62286e-26 0)
(-2.0222e-27 -2.52686e-26 0)
(6.69284e-28 -2.55076e-26 0)
(-6.95937e-28 -2.56271e-26 0)
(3.08123e-28 -2.60986e-26 0)
(-3.04547e-28 -2.65751e-26 0)
(1.01184e-28 -2.6936e-26 0)
(-7.7474e-29 -2.70706e-26 0)
(1.41802e-28 -2.69605e-26 0)
(4.64984e-29 -2.67333e-26 0)
(1.42048e-28 -2.66326e-26 0)
(1.69169e-28 -2.68763e-26 0)
(2.61001e-28 -2.74588e-26 0)
(1.74046e-28 -2.81279e-26 0)
(6.00638e-30 -2.8553e-26 0)
(-1.97084e-28 -2.85615e-26 0)
(-2.63227e-28 -2.82313e-26 0)
(-1.93805e-28 -2.77976e-26 0)
(-3.83705e-29 -2.74629e-26 0)
(8.4598e-29 -2.72812e-26 0)
(1.3728e-28 -2.71684e-26 0)
(1.34802e-28 -2.70257e-26 0)
(1.24513e-28 -2.68218e-26 0)
(1.13693e-28 -2.65844e-26 0)
(7.57315e-29 -2.6324e-26 0)
(-2.03727e-29 -2.60006e-26 0)
(-1.60523e-28 -2.56053e-26 0)
(-2.88009e-28 -2.51987e-26 0)
(-3.38998e-28 -2.49128e-26 0)
(-2.91784e-28 -2.48484e-26 0)
(-1.8189e-28 -2.50111e-26 0)
(-7.74606e-29 -2.53064e-26 0)
(-3.27565e-29 -2.55979e-26 0)
(-5.72313e-29 -2.57662e-26 0)
(-1.16594e-28 -2.57936e-26 0)
(-1.60057e-28 -2.57795e-26 0)
(-1.52674e-28 -2.59142e-26 0)
(-9.26975e-29 -2.63457e-26 0)
(-7.2733e-30 -2.70585e-26 0)
(6.5044e-29 -2.78551e-26 0)
(9.3662e-29 -2.84438e-26 0)
(6.91387e-29 -2.86098e-26 0)
(3.84733e-30 -2.83438e-26 0)
(-7.63599e-29 -2.78716e-26 0)
(-1.47881e-28 -2.74882e-26 0)
(-1.97803e-28 -2.73745e-26 0)
(-2.32885e-28 -2.74507e-26 0)
(-2.54588e-28 -2.74883e-26 0)
(-2.78237e-28 -2.72884e-26 0)
(-2.93528e-28 -2.68224e-26 0)
(-3.0544e-28 -2.62076e-26 0)
(-3.31647e-28 -2.56006e-26 0)
(-3.04579e-28 -2.50017e-26 0)
(-3.61416e-28 -2.45437e-26 0)
(-2.60387e-28 -2.39284e-26 0)
(-1.82647e-28 -2.37029e-26 0)
(-5.71353e-28 -2.35667e-26 0)
(4.06364e-28 -2.28453e-26 0)
(-1.43448e-26 -2.69059e-25 0)
(-4.96857e-27 -3.71887e-26 0)
(3.02367e-27 -3.58857e-26 0)
(-2.64889e-27 -3.4334e-26 0)
(8.0544e-28 -3.44165e-26 0)
(-9.13838e-28 -3.43165e-26 0)
(3.35195e-28 -3.47532e-26 0)
(-4.34409e-28 -3.51939e-26 0)
(8.32509e-29 -3.54966e-26 0)
(-1.32531e-28 -3.55604e-26 0)
(1.50113e-28 -3.54473e-26 0)
(3.65177e-29 -3.53287e-26 0)
(1.55557e-28 -3.54188e-26 0)
(1.7393e-28 -3.5847e-26 0)
(2.69007e-28 -3.65227e-26 0)
(1.5191e-28 -3.71735e-26 0)
(-4.21191e-29 -3.75189e-26 0)
(-2.61708e-28 -3.74553e-26 0)
(-3.09156e-28 -3.7102e-26 0)
(-2.02914e-28 -3.66838e-26 0)
(-7.75206e-30 -3.63551e-26 0)
(1.36465e-28 -3.61306e-26 0)
(1.91713e-28 -3.59409e-26 0)
(1.79245e-28 -3.57374e-26 0)
(1.56068e-28 -3.55324e-26 0)
(1.30777e-28 -3.53418e-26 0)
(7.50662e-29 -3.5144e-26 0)
(-4.36435e-29 -3.48696e-26 0)
(-2.06317e-28 -3.44881e-26 0)
(-3.47861e-28 -3.40456e-26 0)
(-3.98524e-28 -3.36756e-26 0)
(-3.38969e-28 -3.35173e-26 0)
(-2.14301e-28 -3.36289e-26 0)
(-1.02844e-28 -3.3926e-26 0)
(-6.24504e-29 -3.4226e-26 0)
(-9.86467e-29 -3.43688e-26 0)
(-1.69862e-28 -3.43414e-26 0)
(-2.19596e-28 -3.42932e-26 0)
(-2.10227e-28 -3.44544e-26 0)
(-1.392e-28 -3.4957e-26 0)
(-3.50108e-29 -3.57453e-26 0)
(5.95981e-29 -3.66048e-26 0)
(1.07405e-28 -3.72779e-26 0)
(9.25219e-29 -3.75784e-26 0)
(2.39566e-29 -3.7473e-26 0)
(-7.02449e-29 -3.70926e-26 0)
(-1.59753e-28 -3.66579e-26 0)
(-2.22842e-28 -3.63696e-26 0)
(-2.6199e-28 -3.62528e-26 0)
(-2.78433e-28 -3.6164e-26 0)
(-2.96591e-28 -3.5907e-26 0)
(-3.08419e-28 -3.54039e-26 0)
(-3.25846e-28 -3.4744e-26 0)
(-3.62637e-28 -3.41143e-26 0)
(-3.40003e-28 -3.35422e-26 0)
(-4.19024e-28 -3.32274e-26 0)
(-2.90963e-28 -3.27199e-26 0)
(-2.43605e-28 -3.26774e-26 0)
(-6.41077e-28 -3.25898e-26 0)
(4.5483e-28 -3.16351e-26 0)
(-1.70955e-26 -2.75702e-25 0)
(-6.18015e-27 -4.75954e-26 0)
(3.35223e-27 -4.58141e-26 0)
(-3.27203e-27 -4.36367e-26 0)
(9.25541e-28 -4.35521e-26 0)
(-1.13148e-27 -4.31845e-26 0)
(3.47427e-28 -4.35464e-26 0)
(-5.66517e-28 -4.39166e-26 0)
(6.44182e-29 -4.41666e-26 0)
(-1.85529e-28 -4.42115e-26 0)
(1.53211e-28 -4.41794e-26 0)
(1.65918e-29 -4.42428e-26 0)
(1.54919e-28 -4.4544e-26 0)
(1.6403e-28 -4.51015e-26 0)
(2.64048e-28 -4.57685e-26 0)
(1.22483e-28 -4.62896e-26 0)
(-9.02947e-29 -4.64775e-26 0)
(-3.20187e-28 -4.63234e-26 0)
(-3.46983e-28 -4.59846e-26 0)
(-2.05836e-28 -4.56406e-26 0)
(2.5357e-29 -4.53705e-26 0)
(1.87515e-28 -4.5144e-26 0)
(2.42544e-28 -4.49201e-26 0)
(2.17386e-28 -4.4708e-26 0)
(1.78873e-28 -4.4555e-26 0)
(1.37933e-28 -4.44639e-26 0)
(6.55821e-29 -4.4381e-26 0)
(-7.1581e-29 -4.4209e-26 0)
(-2.50292e-28 -4.38895e-26 0)
(-3.99651e-28 -4.34575e-26 0)
(-4.47398e-28 -4.30492e-26 0)
(-3.78034e-28 -4.28309e-26 0)
(-2.43856e-28 -4.28779e-26 0)
(-1.28851e-28 -4.3104e-26 0)
(-9.21406e-29 -4.33122e-26 0)
(-1.36805e-28 -4.33633e-26 0)
(-2.1711e-28 -4.32789e-26 0)
(-2.72852e-28 -4.32228e-26 0)
(-2.63517e-28 -4.3388e-26 0)
(-1.84874e-28 -4.38561e-26 0)
(-6.63038e-29 -4.45695e-26 0)
(4.56292e-29 -4.53668e-26 0)
(1.0845e-28 -4.60677e-26 0)
(1.0215e-28 -4.65175e-26 0)
(3.41971e-29 -4.66416e-26 0)
(-6.58346e-29 -4.64598e-26 0)
(-1.64619e-28 -4.60864e-26 0)
(-2.35879e-28 -4.56823e-26 0)
(-2.78859e-28 -4.53414e-26 0)
(-2.92175e-28 -4.5028e-26 0)
(-3.05965e-28 -4.46333e-26 0)
(-3.13484e-28 -4.40849e-26 0)
(-3.35667e-28 -4.34428e-26 0)
(-3.82069e-28 -4.28618e-26 0)
(-3.6781e-28 -4.23579e-26 0)
(-4.68841e-28 -4.22128e-26 0)
(-3.17892e-28 -4.18626e-26 0)
(-3.0674e-28 -4.21099e-26 0)
(-6.80253e-28 -4.21641e-26 0)
(4.79634e-28 -4.10438e-26 0)
(-1.98485e-26 -2.81686e-25 0)
(-7.57395e-27 -5.84278e-26 0)
(3.5642e-27 -5.62407e-26 0)
(-3.88985e-27 -5.35471e-26 0)
(1.0282e-27 -5.34342e-26 0)
(-1.34806e-27 -5.28663e-26 0)
(3.47486e-28 -5.31915e-26 0)
(-6.99098e-28 -5.35291e-26 0)
(4.44822e-29 -5.38084e-26 0)
(-2.38008e-28 -5.39354e-26 0)
(1.50544e-28 -5.40457e-26 0)
(-1.14835e-29 -5.42616e-26 0)
(1.44675e-28 -5.46741e-26 0)
(1.46252e-28 -5.5251e-26 0)
(2.54e-28 -5.58467e-26 0)
(9.3198e-29 -5.62224e-26 0)
(-1.33589e-28 -5.62505e-26 0)
(-3.71557e-28 -5.59947e-26 0)
(-3.79446e-28 -5.56538e-26 0)
(-2.07329e-28 -5.53853e-26 0)
(5.58822e-29 -5.52188e-26 0)
(2.33436e-28 -5.50822e-26 0)
(2.86787e-28 -5.49219e-26 0)
(2.47768e-28 -5.47581e-26 0)
(1.92605e-28 -5.46621e-26 0)
(1.35324e-28 -5.46642e-26 0)
(4.76068e-29 -5.47112e-26 0)
(-1.03943e-28 -5.46742e-26 0)
(-2.93115e-28 -5.4452e-26 0)
(-4.45944e-28 -5.4069e-26 0)
(-4.89677e-28 -5.36709e-26 0)
(-4.1221e-28 -5.34305e-26 0)
(-2.70675e-28 -5.34073e-26 0)
(-1.52706e-28 -5.35148e-26 0)
(-1.18568e-28 -5.35928e-26 0)
(-1.70071e-28 -5.35548e-26 0)
(-2.58162e-28 -5.34374e-26 0)
(-3.1901e-28 -5.33622e-26 0)
(-3.09433e-28 -5.34521e-26 0)
(-2.24739e-28 -5.37641e-26 0)
(-9.61884e-29 -5.42877e-26 0)
(2.64798e-29 -5.4952e-26 0)
(9.79741e-29 -5.56436e-26 0)
(9.69904e-29 -5.62177e-26 0)
(3.09989e-29 -5.65502e-26 0)
(-6.93713e-29 -5.65873e-26 0)
(-1.69757e-28 -5.63683e-26 0)
(-2.4219e-28 -5.59823e-26 0)
(-2.8499e-28 -5.55042e-26 0)
(-2.9511e-28 -5.49509e-26 0)
(-3.06837e-28 -5.43386e-26 0)
(-3.12508e-28 -5.36831e-26 0)
(-3.40828e-28 -5.30628e-26 0)
(-3.95646e-28 -5.25645e-26 0)
(-3.91406e-28 -5.21213e-26 0)
(-5.12358e-28 -5.20625e-26 0)
(-3.44167e-28 -5.17455e-26 0)
(-3.71919e-28 -5.22124e-26 0)
(-6.98492e-28 -5.23977e-26 0)
(4.82804e-28 -5.11585e-26 0)
(-2.26039e-26 -2.8717e-25 0)
(-9.14564e-27 -6.99668e-26 0)
(3.65519e-27 -6.75378e-26 0)
(-4.50779e-27 -6.45096e-26 0)
(1.1071e-27 -6.45964e-26 0)
(-1.5669e-27 -6.40012e-26 0)
(3.34321e-28 -6.44313e-26 0)
(-8.34179e-28 -6.48552e-26 0)
(2.01002e-29 -6.52769e-26 0)
(-2.92494e-28 -6.55591e-26 0)
(1.43313e-28 -6.58025e-26 0)
(-4.27466e-29 -6.60655e-26 0)
(1.31173e-28 -6.64419e-26 0)
(1.25981e-28 -6.69305e-26 0)
(2.4244e-28 -6.7427e-26 0)
(6.63887e-29 -6.7694e-26 0)
(-1.70407e-28 -6.76051e-26 0)
(-4.15148e-28 -6.72511e-26 0)
(-4.0741e-28 -6.68765e-26 0)
(-2.10185e-28 -6.66689e-26 0)
(7.94961e-29 -6.66503e-26 0)
(2.6992e-28 -6.67019e-26 0)
(3.22088e-28 -6.66987e-26 0)
(2.70698e-28 -6.66244e-26 0)
(1.99194e-28 -6.65719e-26 0)
(1.24855e-28 -6.66349e-26 0)
(2.22628e-29 -6.67946e-26 0)
(-1.40528e-28 -6.68992e-26 0)
(-3.35751e-28 -6.68016e-26 0)
(-4.89038e-28 -6.64972e-26 0)
(-5.28259e-28 -6.61266e-26 0)
(-4.43532e-28 -6.58622e-26 0)
(-2.95182e-28 -6.57694e-26 0)
(-1.74133e-28 -6.5785e-26 0)
(-1.42081e-28 -6.57942e-26 0)
(-1.99405e-28 -6.57235e-26 0)
(-2.93317e-28 -6.5576e-26 0)
(-3.56659e-28 -6.54131e-26 0)
(-3.45222e-28 -6.53234e-26 0)
(-2.55748e-28 -6.53907e-26 0)
(-1.22e-28 -6.56695e-26 0)
(4.54787e-30 -6.61661e-26 0)
(7.84574e-29 -6.68063e-26 0)
(7.93445e-29 -6.74464e-26 0)
(1.5228e-29 -6.79259e-26 0)
(-8.30723e-29 -6.81521e-26 0)
(-1.80696e-28 -6.81221e-26 0)
(-2.48386e-28 -6.78629e-26 0)
(-2.84892e-28 -6.7385e-26 0)
(-2.88373e-28 -6.66904e-26 0)
(-2.98647e-28 -6.58758e-26 0)
(-3.05935e-28 -6.50706e-26 0)
(-3.43385e-28 -6.44142e-26 0)
(-4.0555e-28 -6.39439e-26 0)
(-4.10293e-28 -6.34752e-26 0)
(-5.46265e-28 -6.33479e-26 0)
(-3.66357e-28 -6.28553e-26 0)
(-4.34685e-28 -6.33519e-26 0)
(-7.01346e-28 -6.35161e-26 0)
(4.6534e-28 -6.20927e-26 0)
(-2.53411e-26 -2.92592e-25 0)
(-1.08731e-26 -8.24242e-26 0)
(3.61925e-27 -7.99771e-26 0)
(-5.13443e-27 -7.67884e-26 0)
(1.15337e-27 -7.72962e-26 0)
(-1.79502e-27 -7.68808e-26 0)
(3.03049e-28 -7.76193e-26 0)
(-9.76146e-28 -7.82889e-26 0)
(-1.20087e-29 -7.89418e-26 0)
(-3.49693e-28 -7.93749e-26 0)
(1.34463e-28 -7.96747e-26 0)
(-7.17886e-29 -7.9874e-26 0)
(1.19797e-28 -8.01081e-26 0)
(1.06853e-28 -8.04402e-26 0)
(2.3087e-28 -8.08176e-26 0)
(4.20565e-29 -8.1007e-26 0)
(-2.0117e-28 -8.08545e-26 0)
(-4.51302e-28 -8.04365e-26 0)
(-4.3176e-28 -8.00326e-26 0)
(-2.16612e-28 -7.98907e-26 0)
(9.29908e-29 -8.00486e-26 0)
(2.94185e-28 -8.03317e-26 0)
(3.47414e-28 -8.05226e-26 0)
(2.87105e-28 -8.05557e-26 0)
(2.0087e-28 -8.05446e-26 0)
(1.09072e-28 -8.06434e-26 0)
(-8.6324e-30 -8.08812e-26 0)
(-1.81045e-28 -8.11084e-26 0)
(-3.79279e-28 -8.11417e-26 0)
(-5.30281e-28 -8.09206e-26 0)
(-5.6392e-28 -8.05566e-26 0)
(-4.72699e-28 -8.02396e-26 0)
(-3.19201e-28 -8.0098e-26 0)
(-1.96352e-28 -8.01151e-26 0)
(-1.65987e-28 -8.01749e-26 0)
(-2.26344e-28 -8.01395e-26 0)
(-3.21723e-28 -7.99411e-26 0)
(-3.83653e-28 -7.96113e-26 0)
(-3.69049e-28 -7.92666e-26 0)
(-2.76832e-28 -7.90517e-26 0)
(-1.42582e-28 -7.90746e-26 0)
(-1.79222e-29 -7.93826e-26 0)
(5.32936e-29 -7.99228e-26 0)
(5.27542e-29 -8.05612e-26 0)
(-1.0675e-29 -8.11276e-26 0)
(-1.06486e-28 -8.15e-26 0)
(-1.99598e-28 -8.16372e-26 0)
(-2.59196e-28 -8.15294e-26 0)
(-2.84508e-28 -8.11506e-26 0)
(-2.76706e-28 -8.04737e-26 0)
(-2.83355e-28 -7.95926e-26 0)
(-2.93288e-28 -7.86782e-26 0)
(-3.4154e-28 -7.79096e-26 0)
(-4.09503e-28 -7.73252e-26 0)
(-4.20704e-28 -7.66735e-26 0)
(-5.654e-28 -7.63125e-26 0)
(-3.78396e-28 -7.54632e-26 0)
(-4.87311e-28 -7.57847e-26 0)
(-6.87611e-28 -7.56722e-26 0)
(4.28671e-28 -7.38714e-26 0)
(-2.80366e-26 -2.97801e-25 0)
(-1.27335e-26 -9.56816e-26 0)
(3.45022e-27 -9.3463e-26 0)
(-5.7783e-27 -9.02505e-26 0)
(1.15887e-27 -9.1326e-26 0)
(-2.04013e-27 -9.12271e-26 0)
(2.47254e-28 -9.24296e-26 0)
(-1.12977e-27 -9.34642e-26 0)
(-5.35156e-29 -9.43851e-26 0)
(-4.08193e-28 -9.49107e-26 0)
(1.27156e-28 -9.51756e-26 0)
(-9.52741e-29 -9.52466e-26 0)
(1.13385e-28 -9.53066e-26 0)
(9.11744e-29 -9.54611e-26 0)
(2.20614e-28 -9.57039e-26 0)
(1.98616e-29 -9.58278e-26 0)
(-2.27657e-28 -9.56638e-26 0)
(-4.82348e-28 -9.52479e-26 0)
(-4.54755e-28 -9.48652e-26 0)
(-2.2843e-28 -9.48046e-26 0)
(9.54335e-29 -9.51226e-26 0)
(3.06252e-28 -9.56031e-26 0)
(3.63304e-28 -9.59674e-26 0)
(2.97751e-28 -9.61113e-26 0)
(1.98924e-28 -9.61553e-26 0)
(8.9987e-29 -9.6286e-26 0)
(-4.31722e-29 -9.65719e-26 0)
(-2.24711e-28 -9.68835e-26 0)
(-4.23881e-28 -9.70109e-26 0)
(-5.69786e-28 -9.68384e-26 0)
(-5.96457e-28 -9.64514e-26 0)
(-5.00472e-28 -9.60812e-26 0)
(-3.4574e-28 -9.59405e-26 0)
(-2.23877e-28 -9.60523e-26 0)
(-1.93964e-28 -9.62496e-26 0)
(-2.52077e-28 -9.62915e-26 0)
(-3.42546e-28 -9.60344e-26 0)
(-3.9887e-28 -9.55139e-26 0)
(-3.80544e-28 -9.49015e-26 0)
(-2.87997e-28 -9.44067e-26 0)
(-1.57148e-28 -9.41816e-26 0)
(-3.86435e-29 -9.42923e-26 0)
(2.58719e-29 -9.47018e-26 0)
(2.05756e-29 -9.52888e-26 0)
(-4.41609e-29 -9.58904e-26 0)
(-1.37747e-28 -9.63555e-26 0)
(-2.25462e-28 -9.65999e-26 0)
(-2.75832e-28 -9.65959e-26 0)
(-2.88548e-28 -9.63394e-26 0)
(-2.67035e-28 -9.58119e-26 0)
(-2.6641e-28 -9.50508e-26 0)
(-2.75339e-28 -9.41427e-26 0)
(-3.31311e-28 -9.32232e-26 0)
(-4.01796e-28 -9.23694e-26 0)
(-4.17277e-28 -9.13734e-26 0)
(-5.65566e-28 -9.06638e-26 0)
(-3.75238e-28 -8.93623e-26 0)
(-5.21519e-28 -8.93624e-26 0)
(-6.5078e-28 -8.87105e-26 0)
(3.75345e-28 -8.63152e-26 0)
(-3.06709e-26 -3.02435e-25 0)
(-1.47091e-26 -1.09233e-25 0)
(3.14192e-27 -1.07459e-25 0)
(-6.44691e-27 -1.04319e-25 0)
(1.11892e-27 -1.06013e-25 0)
(-2.30636e-27 -1.06227e-25 0)
(1.63048e-28 -1.07901e-25 0)
(-1.29818e-27 -1.09306e-25 0)
(-1.05093e-28 -1.1048e-25 0)
(-4.66521e-28 -1.1105e-25 0)
(1.23164e-28 -1.11235e-25 0)
(-1.12325e-28 -1.11167e-25 0)
(1.12523e-28 -1.11073e-25 0)
(8.00152e-29 -1.11066e-25 0)
(2.1258e-28 -1.11187e-25 0)
(-8.85053e-31 -1.11271e-25 0)
(-2.52627e-28 -1.1115e-25 0)
(-5.11948e-28 -1.10807e-25 0)
(-4.78996e-28 -1.10493e-25 0)
(-2.45909e-28 -1.10498e-25 0)
(8.85255e-29 -1.10907e-25 0)
(3.08183e-28 -1.11508e-25 0)
(3.70842e-28 -1.12009e-25 0)
(3.02848e-28 -1.12271e-25 0)
(1.93636e-28 -1.12391e-25 0)
(6.86609e-29 -1.12562e-25 0)
(-7.96691e-29 -1.12873e-25 0)
(-2.69714e-28 -1.13213e-25 0)
(-4.68117e-28 -1.13357e-25 0)
(-6.07042e-28 -1.13175e-25 0)
(-6.26742e-28 -1.12761e-25 0)
(-5.29035e-28 -1.12389e-25 0)
(-3.77623e-28 -1.1231e-25 0)
(-2.59225e-28 -1.12551e-25 0)
(-2.27678e-28 -1.1289e-25 0)
(-2.77635e-28 -1.13016e-25 0)
(-3.56707e-28 -1.12729e-25 0)
(-4.03363e-28 -1.12063e-25 0)
(-3.80556e-28 -1.11225e-25 0)
(-2.89572e-28 -1.10479e-25 0)
(-1.65256e-28 -1.10033e-25 0)
(-5.62538e-29 -1.0997e-25 0)
(-1.59081e-30 -1.10259e-25 0)
(-1.44162e-29 -1.10774e-25 0)
(-8.22898e-29 -1.11356e-25 0)
(-1.73902e-28 -1.11838e-25 0)
(-2.5556e-28 -1.12112e-25 0)
(-2.96988e-28 -1.12145e-25 0)
(-2.99058e-28 -1.11985e-25 0)
(-2.65098e-28 -1.11653e-25 0)
(-2.5412e-28 -1.11133e-25 0)
(-2.54461e-28 -1.10343e-25 0)
(-3.09662e-28 -1.09302e-25 0)
(-3.77106e-28 -1.0812e-25 0)
(-3.95861e-28 -1.06713e-25 0)
(-5.4481e-28 -1.05625e-25 0)
(-3.53947e-28 -1.03852e-25 0)
(-5.30754e-28 -1.03457e-25 0)
(-5.83703e-28 -1.02092e-25 0)
(3.08632e-28 -9.90089e-26 0)
(-3.32275e-26 -3.06169e-25 0)
(-1.67831e-26 -1.22332e-25 0)
(2.68933e-27 -1.21111e-25 0)
(-7.14622e-27 -1.18067e-25 0)
(1.03311e-27 -1.20344e-25 0)
(-2.59191e-27 -1.20745e-25 0)
(5.19868e-29 -1.22745e-25 0)
(-1.48142e-27 -1.24395e-25 0)
(-1.67349e-28 -1.25758e-25 0)
(-5.25149e-28 -1.26358e-25 0)
(1.2209e-28 -1.26486e-25 0)
(-1.23637e-28 -1.26313e-25 0)
(1.16433e-28 -1.26108e-25 0)
(7.273e-29 -1.25989e-25 0)
(2.05801e-28 -1.26053e-25 0)
(-2.20712e-29 -1.26159e-25 0)
(-2.78966e-28 -1.26134e-25 0)
(-5.42784e-28 -1.25894e-25 0)
(-5.05093e-28 -1.25639e-25 0)
(-2.66987e-28 -1.25646e-25 0)
(7.54165e-29 -1.26053e-25 0)
(3.02065e-28 -1.26706e-25 0)
(3.70336e-28 -1.27324e-25 0)
(3.01863e-28 -1.27719e-25 0)
(1.84735e-28 -1.27935e-25 0)
(4.57323e-29 -1.28153e-25 0)
(-1.16256e-28 -1.28462e-25 0)
(-3.13284e-28 -1.28764e-25 0)
(-5.0972e-28 -1.28845e-25 0)
(-6.42028e-28 -1.28612e-25 0)
(-6.57235e-28 -1.28196e-25 0)
(-5.61412e-28 -1.27882e-25 0)
(-4.1621e-28 -1.27899e-25 0)
(-3.0187e-28 -1.28246e-25 0)
(-2.66538e-28 -1.28678e-25 0)
(-3.04045e-28 -1.28873e-25 0)
(-3.66659e-28 -1.28596e-25 0)
(-3.99618e-28 -1.27853e-25 0)
(-3.707e-28 -1.26857e-25 0)
(-2.82568e-28 -1.25924e-25 0)
(-1.67827e-28 -1.25321e-25 0)
(-7.13196e-29 -1.25153e-25 0)
(-2.84586e-29 -1.25364e-25 0)
(-4.98089e-29 -1.25805e-25 0)
(-1.21345e-28 -1.26308e-25 0)
(-2.11191e-28 -1.26724e-25 0)
(-2.86978e-28 -1.26954e-25 0)
(-3.20845e-28 -1.26977e-25 0)
(-3.15633e-28 -1.26872e-25 0)
(-2.7253e-28 -1.26694e-25 0)
(-2.49635e-28 -1.26397e-25 0)
(-2.33403e-28 -1.25764e-25 0)
(-2.77461e-28 -1.24692e-25 0)
(-3.34992e-28 -1.23283e-25 0)
(-3.55995e-28 -1.21545e-25 0)
(-5.03178e-28 -1.20128e-25 0)
(-3.13015e-28 -1.17909e-25 0)
(-5.11447e-28 -1.17113e-25 0)
(-4.83252e-28 -1.15005e-25 0)
(2.31897e-28 -1.11342e-25 0)
(-3.56899e-26 -3.08765e-25 0)
(-1.89342e-26 -1.34215e-25 0)
(2.09192e-27 -1.33467e-25 0)
(-7.87935e-27 -1.30415e-25 0)
(9.04003e-28 -1.33169e-25 0)
(-2.89086e-27 -1.33593e-25 0)
(-7.95918e-29 -1.35712e-25 0)
(-1.67591e-27 -1.37404e-25 0)
(-2.40139e-28 -1.38839e-25 0)
(-5.86117e-28 -1.39457e-25 0)
(1.21558e-28 -1.39586e-25 0)
(-1.31277e-28 -1.39376e-25 0)
(1.22904e-28 -1.39135e-25 0)
(6.65354e-29 -1.38994e-25 0)
(1.97085e-28 -1.39097e-25 0)
(-4.64783e-29 -1.39302e-25 0)
(-3.08302e-28 -1.39397e-25 0)
(-5.74713e-28 -1.39231e-25 0)
(-5.30908e-28 -1.38966e-25 0)
(-2.88346e-28 -1.38895e-25 0)
(5.89016e-29 -1.39235e-25 0)
(2.89001e-28 -1.39903e-25 0)
(3.61363e-28 -1.40623e-25 0)
(2.93864e-28 -1.41157e-25 0)
(1.71811e-28 -1.41482e-25 0)
(2.19629e-29 -1.41745e-25 0)
(-1.50873e-28 -1.42022e-25 0)
(-3.52988e-28 -1.4224e-25 0)
(-5.47438e-28 -1.42226e-25 0)
(-6.75606e-28 -1.41937e-25 0)
(-6.90172e-28 -1.41533e-25 0)
(-5.99237e-28 -1.41285e-25 0)
(-4.61122e-28 -1.41381e-25 0)
(-3.5e-28 -1.41794e-25 0)
(-3.09192e-28 -1.42281e-25 0)
(-3.31736e-28 -1.42519e-25 0)
(-3.74363e-28 -1.4226e-25 0)
(-3.90103e-28 -1.41486e-25 0)
(-3.53557e-28 -1.40412e-25 0)
(-2.69776e-28 -1.39398e-25 0)
(-1.67771e-28 -1.38747e-25 0)
(-8.59666e-29 -1.38562e-25 0)
(-5.49216e-29 -1.38743e-25 0)
(-8.34415e-29 -1.39108e-25 0)
(-1.57669e-28 -1.3949e-25 0)
(-2.46135e-28 -1.39783e-25 0)
(-3.17477e-28 -1.39923e-25 0)
(-3.45852e-28 -1.39907e-25 0)
(-3.35974e-28 -1.39807e-25 0)
(-2.86292e-28 -1.39679e-25 0)
(-2.51358e-28 -1.39486e-25 0)
(-2.14253e-28 -1.38975e-25 0)
(-2.40082e-28 -1.37987e-25 0)
(-2.81267e-28 -1.36561e-25 0)
(-3.01309e-28 -1.3468e-25 0)
(-4.42165e-28 -1.3304e-25 0)
(-2.52194e-28 -1.30442e-25 0)
(-4.63801e-28 -1.29309e-25 0)
(-3.52419e-28 -1.26574e-25 0)
(1.48377e-28 -1.22613e-25 0)
(-3.80405e-26 -3.10062e-25 0)
(-2.11347e-26 -1.44269e-25 0)
(1.35708e-27 -1.43723e-25 0)
(-8.64482e-27 -1.4041e-25 0)
(7.35267e-28 -1.43483e-25 0)
(-3.19735e-27 -1.438e-25 0)
(-2.24159e-28 -1.45875e-25 0)
(-1.87554e-27 -1.47411e-25 0)
(-3.20995e-28 -1.48768e-25 0)
(-6.50772e-28 -1.4935e-25 0)
(1.18123e-28 -1.49522e-25 0)
(-1.39263e-28 -1.4937e-25 0)
(1.2764e-28 -1.49202e-25 0)
(5.70237e-29 -1.49152e-25 0)
(1.82721e-28 -1.49383e-25 0)
(-7.596e-29 -1.49726e-25 0)
(-3.40088e-28 -1.49917e-25 0)
(-6.05354e-28 -1.49759e-25 0)
(-5.53557e-28 -1.49417e-25 0)
(-3.0772e-28 -1.49235e-25 0)
(4.04136e-29 -1.49494e-25 0)
(2.69864e-28 -1.50155e-25 0)
(3.44303e-28 -1.50938e-25 0)
(2.78645e-28 -1.51576e-25 0)
(1.54638e-28 -1.51999e-25 0)
(-2.24541e-30 -1.52305e-25 0)
(-1.82664e-28 -1.52558e-25 0)
(-3.88505e-28 -1.52701e-25 0)
(-5.81874e-28 -1.52614e-25 0)
(-7.08452e-28 -1.52274e-25 0)
(-7.25309e-28 -1.51852e-25 0)
(-6.41286e-28 -1.51611e-25 0)
(-5.10915e-28 -1.51735e-25 0)
(-4.02504e-28 -1.52188e-25 0)
(-3.54736e-28 -1.52713e-25 0)
(-3.60002e-28 -1.52965e-25 0)
(-3.80034e-28 -1.527e-25 0)
(-3.76838e-28 -1.51915e-25 0)
(-3.33089e-28 -1.50856e-25 0)
(-2.5594e-28 -1.49893e-25 0)
(-1.69025e-28 -1.4931e-25 0)
(-1.02269e-28 -1.49176e-25 0)
(-8.10141e-29 -1.4935e-25 0)
(-1.13908e-28 -1.49641e-25 0)
(-1.89317e-28 -1.49901e-25 0)
(-2.76929e-28 -1.50068e-25 0)
(-3.45527e-28 -1.50107e-25 0)
(-3.69944e-28 -1.50019e-25 0)
(-3.56173e-28 -1.49853e-25 0)
(-3.00827e-28 -1.49662e-25 0)
(-2.55328e-28 -1.49447e-25 0)
(-1.9854e-28 -1.49015e-25 0)
(-2.04772e-28 -1.48202e-25 0)
(-2.24756e-28 -1.4695e-25 0)
(-2.3776e-28 -1.45119e-25 0)
(-3.64985e-28 -1.43389e-25 0)
(-1.73723e-28 -1.40547e-25 0)
(-3.92261e-28 -1.39222e-25 0)
(-1.995e-28 -1.36079e-25 0)
(6.12071e-29 -1.32173e-25 0)
(-4.02604e-26 -3.09963e-25 0)
(-2.33511e-26 -1.52104e-25 0)
(4.99755e-28 -1.51393e-25 0)
(-9.43638e-27 -1.47486e-25 0)
(5.30956e-28 -1.50684e-25 0)
(-3.50784e-27 -1.50793e-25 0)
(-3.76258e-28 -1.52733e-25 0)
(-2.07405e-27 -1.53984e-25 0)
(-4.05436e-28 -1.5514e-25 0)
(-7.18478e-28 -1.55615e-25 0)
(1.08528e-28 -1.55839e-25 0)
(-1.53025e-28 -1.55827e-25 0)
(1.24959e-28 -1.55839e-25 0)
(3.98679e-29 -1.55971e-25 0)
(1.60801e-28 -1.56368e-25 0)
(-1.0997e-28 -1.56829e-25 0)
(-3.72265e-28 -1.57058e-25 0)
(-6.32742e-28 -1.56863e-25 0)
(-5.72371e-28 -1.5644e-25 0)
(-3.25392e-28 -1.56182e-25 0)
(2.03358e-29 -1.56384e-25 0)
(2.46607e-28 -1.57009e-25 0)
(3.21847e-28 -1.57776e-25 0)
(2.57965e-28 -1.58433e-25 0)
(1.33339e-28 -1.58913e-25 0)
(-2.81544e-29 -1.59282e-25 0)
(-2.1378e-28 -1.59574e-25 0)
(-4.22104e-28 -1.59713e-25 0)
(-6.14206e-28 -1.59586e-25 0)
(-7.39524e-28 -1.59174e-25 0)
(-7.59674e-28 -1.58665e-25 0)
(-6.84406e-28 -1.58356e-25 0)
(-5.63811e-28 -1.58455e-25 0)
(-4.58812e-28 -1.58919e-25 0)
(-4.02439e-28 -1.59459e-25 0)
(-3.87618e-28 -1.59696e-25 0)
(-3.83486e-28 -1.59414e-25 0)
(-3.62327e-28 -1.5866e-25 0)
(-3.14162e-28 -1.57713e-25 0)
(-2.45984e-28 -1.56909e-25 0)
(-1.74421e-28 -1.56465e-25 0)
(-1.20847e-28 -1.56398e-25 0)
(-1.06527e-28 -1.56568e-25 0)
(-1.41411e-28 -1.56804e-25 0)
(-2.1698e-28 -1.56989e-25 0)
(-3.03729e-28 -1.57071e-25 0)
(-3.69739e-28 -1.5701e-25 0)
(-3.89864e-28 -1.56803e-25 0)
(-3.71697e-28 -1.56498e-25 0)
(-3.11594e-28 -1.56176e-25 0)
(-2.59053e-28 -1.55897e-25 0)
(-1.87496e-28 -1.55533e-25 0)
(-1.76443e-28 -1.54916e-25 0)
(-1.7207e-28 -1.53906e-25 0)
(-1.71369e-28 -1.52239e-25 0)
(-2.77404e-28 -1.50573e-25 0)
(-8.36215e-29 -1.47689e-25 0)
(-3.05083e-28 -1.46375e-25 0)
(-3.56093e-29 -1.43089e-25 0)
(-2.68028e-29 -1.39559e-25 0)
(-4.233e-26 -3.0842e-25 0)
(-2.55489e-26 -1.57546e-25 0)
(-4.62517e-28 -1.56356e-25 0)
(-1.02454e-26 -1.51568e-25 0)
(2.96451e-28 -1.54688e-25 0)
(-3.81952e-27 -1.54468e-25 0)
(-5.32956e-28 -1.56204e-25 0)
(-2.26787e-27 -1.57122e-25 0)
(-4.90216e-28 -1.58047e-25 0)
(-7.88059e-28 -1.58394e-25 0)
(9.08844e-29 -1.58668e-25 0)
(-1.76645e-28 -1.58815e-25 0)
(1.10763e-28 -1.59038e-25 0)
(1.29525e-29 -1.59368e-25 0)
(1.31914e-28 -1.59914e-25 0)
(-1.46454e-28 -1.60445e-25 0)
(-4.03499e-28 -1.60678e-25 0)
(-6.57789e-28 -1.60458e-25 0)
(-5.90049e-28 -1.60022e-25 0)
(-3.43623e-28 -1.5976e-25 0)
(-8.72353e-31 -1.59932e-25 0)
(2.22801e-28 -1.60469e-25 0)
(2.9893e-28 -1.61121e-25 0)
(2.35366e-28 -1.61696e-25 0)
(1.08011e-28 -1.6219e-25 0)
(-5.91918e-29 -1.62661e-25 0)
(-2.49077e-28 -1.63084e-25 0)
(-4.56954e-28 -1.63295e-25 0)
(-6.44254e-28 -1.63132e-25 0)
(-7.65906e-28 -1.62594e-25 0)
(-7.89597e-28 -1.61935e-25 0)
(-7.25732e-28 -1.61515e-25 0)
(-6.17888e-28 -1.61557e-25 0)
(-5.17318e-28 -1.6199e-25 0)
(-4.50914e-28 -1.62491e-25 0)
(-4.14319e-28 -1.62694e-25 0)
(-3.86611e-28 -1.62433e-25 0)
(-3.50566e-28 -1.61796e-25 0)
(-3.01147e-28 -1.61049e-25 0)
(-2.42551e-28 -1.60452e-25 0)
(-1.84116e-28 -1.60144e-25 0)
(-1.40842e-28 -1.60117e-25 0)
(-1.31705e-28 -1.60283e-25 0)
(-1.67947e-28 -1.6051e-25 0)
(-2.43072e-28 -1.60685e-25 0)
(-3.2734e-28 -1.60719e-25 0)
(-3.88388e-28 -1.60549e-25 0)
(-4.02305e-28 -1.60184e-25 0)
(-3.79798e-28 -1.59717e-25 0)
(-3.17687e-28 -1.59282e-25 0)
(-2.6287e-28 -1.58974e-25 0)
(-1.81246e-28 -1.58673e-25 0)
(-1.55089e-28 -1.58197e-25 0)
(-1.24891e-28 -1.57375e-25 0)
(-1.06992e-28 -1.55907e-25 0)
(-1.87599e-28 -1.54448e-25 0)
(8.83259e-30 -1.5175e-25 0)
(-2.12674e-28 -1.50661e-25 0)
(1.28265e-28 -1.47478e-25 0)
(-1.13613e-28 -1.44532e-25 0)
(-4.42295e-26 -3.05426e-25 0)
(-2.76976e-26 -1.60616e-25 0)
(-1.51573e-27 -1.5878e-25 0)
(-1.10642e-26 -1.52949e-25 0)
(3.90859e-29 -1.55824e-25 0)
(-4.12744e-27 -1.55119e-25 0)
(-6.92142e-28 -1.56562e-25 0)
(-2.45751e-27 -1.5715e-25 0)
(-5.76829e-28 -1.57921e-25 0)
(-8.60457e-28 -1.58213e-25 0)
(6.52004e-29 -1.58545e-25 0)
(-2.09651e-28 -1.5879e-25 0)
(8.58438e-29 -1.59139e-25 0)
(-2.24726e-29 -1.59591e-25 0)
(9.75828e-29 -1.60237e-25 0)
(-1.84741e-28 -1.60822e-25 0)
(-4.35393e-28 -1.61088e-25 0)
(-6.84458e-28 -1.60917e-25 0)
(-6.10961e-28 -1.60556e-25 0)
(-3.64507e-28 -1.60344e-25 0)
(-2.16604e-29 -1.60476e-25 0)
(2.02893e-28 -1.60864e-25 0)
(2.80644e-28 -1.61322e-25 0)
(2.13979e-28 -1.61763e-25 0)
(7.79971e-29 -1.62264e-25 0)
(-9.92619e-29 -1.62871e-25 0)
(-2.92784e-28 -1.63469e-25 0)
(-4.94469e-28 -1.63762e-25 0)