/*--------------------------------*- C++ -*----------------------------------*\
| =========                 |                                                 |
| \\      /  F ield         | foam-extend: Open Source CFD                    |
|  \\    /   O peration     | Version:     4.0                                |
|   \\  /    A nd           | Web:         http://www.foam-extend.org         |
|    \\/     M anipulation  |                                                 |
\*---------------------------------------------------------------------------*/
FoamFile
{
    version     2.0;
    format      ascii;
    class       volScalarField;
    location    "22";
    object      dC2;
}
// * * * * * * * * * * * * * * * * * * * * * * * * * * * * * * * * * * * * * //

dimensions      [0 -1 0 0 0 0 0];

internalField   nonuniform List<scalar> 
6960
(
2.26999e-17
2.26999e-17
2.27e-17
2.27001e-17
2.27001e-17
2.27001e-17
2.27002e-17
2.27002e-17
2.27002e-17
2.27002e-17
2.27002e-17
2.27002e-17
2.27001e-17
2.27002e-17
2.27001e-17
2.27001e-17
2.27002e-17
2.27001e-17
2.27002e-17
2.27001e-17
2.27001e-17
2.27001e-17
2.27001e-17
2.27001e-17
2.27001e-17
2.27001e-17
2.27001e-17
2.27001e-17
2.27001e-17
2.27001e-17
2.27001e-17
2.27001e-17
2.27001e-17
2.27001e-17
2.27001e-17
2.27001e-17
2.27001e-17
2.27001e-17
2.27001e-17
2.27001e-17
2.27001e-17
2.27001e-17
2.27001e-17
2.27002e-17
2.27001e-17
2.27001e-17
2.27001e-17
2.27002e-17
2.27002e-17
2.27002e-17
2.27002e-17
2.27002e-17
2.27002e-17
2.27002e-17
2.27001e-17
2.27001e-17
2.27001e-17
2.27e-17
2.26999e-17
2.26998e-17
6.90611e-17
6.90614e-17
6.90618e-17
6.90617e-17
6.9062e-17
6.90621e-17
6.9062e-17
6.90622e-17
6.90622e-17
6.90621e-17
6.90622e-17
6.9062e-17
6.90622e-17
6.90621e-17
6.90622e-17
6.90622e-17
6.9062e-17
6.9062e-17
6.90619e-17
6.90621e-17
6.90619e-17
6.90621e-17
6.90621e-17
6.9062e-17
6.9062e-17
6.90619e-17
6.90619e-17
6.90621e-17
6.9062e-17
6.90619e-17
6.9062e-17
6.90621e-17
6.90619e-17
6.9062e-17
6.9062e-17
6.9062e-17
6.90621e-17
6.90619e-17
6.90621e-17
6.9062e-17
6.90621e-17
6.90621e-17
6.90621e-17
6.9062e-17
6.90623e-17
6.90621e-17
6.90621e-17
6.9062e-17
6.9062e-17
6.90621e-17
6.90622e-17
6.90621e-17
6.9062e-17
6.9062e-17
6.9062e-17
6.90619e-17
6.90618e-17
6.90615e-17
6.90614e-17
6.90614e-17
1.6967e-16
1.6967e-16
1.6967e-16
1.6967e-16
1.69671e-16
1.69671e-16
1.69671e-16
1.69671e-16
1.69671e-16
1.69671e-16
1.69671e-16
1.69671e-16
1.69671e-16
1.69671e-16
1.69671e-16
1.69671e-16
1.69671e-16
1.69671e-16
1.69671e-16
1.69671e-16
1.69671e-16
1.69671e-16
1.69671e-16
1.69671e-16
1.69671e-16
1.69671e-16
1.69671e-16
1.6967e-16
1.69671e-16
1.69671e-16
1.6967e-16
1.6967e-16
1.69671e-16
1.69671e-16
1.69671e-16
1.69671e-16
1.69671e-16
1.6967e-16
1.69671e-16
1.69671e-16
1.69671e-16
1.69671e-16
1.69671e-16
1.69671e-16
1.69671e-16
1.69671e-16
1.69671e-16
1.69671e-16
1.69671e-16
1.69671e-16
1.69671e-16
1.69671e-16
1.69671e-16
1.69671e-16
1.69671e-16
1.69671e-16
1.6967e-16
1.6967e-16
1.69669e-16
1.69669e-16
3.68971e-16
3.68972e-16
3.68974e-16
3.68975e-16
3.68976e-16
3.68976e-16
3.68975e-16
3.68976e-16
3.68976e-16
3.68976e-16
3.68976e-16
3.68976e-16
3.68976e-16
3.68976e-16
3.68976e-16
3.68977e-16
3.68975e-16
3.68976e-16
3.68976e-16
3.68976e-16
3.68975e-16
3.68976e-16
3.68976e-16
3.68975e-16
3.68976e-16
3.68975e-16
3.68975e-16
3.68976e-16
3.68976e-16
3.68976e-16
3.68976e-16
3.68975e-16
3.68976e-16
3.68975e-16
3.68975e-16
3.68976e-16
3.68975e-16
3.68976e-16
3.68976e-16
3.68976e-16
3.68976e-16
3.68976e-16
3.68976e-16
3.68976e-16
3.68976e-16
3.68976e-16
3.68976e-16
3.68976e-16
3.68976e-16
3.68976e-16
3.68976e-16
3.68976e-16
3.68976e-16
3.68976e-16
3.68976e-16
3.68975e-16
3.68975e-16
3.68974e-16
3.68973e-16
3.68972e-16
7.52652e-16
7.52653e-16
7.52656e-16
7.52657e-16
7.52659e-16
7.52659e-16
7.5266e-16
7.52661e-16
7.5266e-16
7.52662e-16
7.5266e-16
7.52661e-16
7.52662e-16
7.52661e-16
7.52662e-16
7.52659e-16
7.52661e-16
7.52659e-16
7.5266e-16
7.5266e-16
7.52661e-16
7.52659e-16
7.52658e-16
7.52659e-16
7.5266e-16
7.52659e-16
7.5266e-16
7.52659e-16
7.52659e-16
7.52658e-16
7.52659e-16
7.52659e-16
7.52658e-16
7.52659e-16
7.52659e-16
7.52658e-16
7.52661e-16
7.52659e-16
7.5266e-16
7.52659e-16
7.52659e-16
7.52659e-16
7.52661e-16
7.5266e-16
7.5266e-16
7.5266e-16
7.52662e-16
7.52661e-16
7.52661e-16
7.52661e-16
7.5266e-16
7.52662e-16
7.5266e-16
7.5266e-16
7.5266e-16
7.52659e-16
7.52657e-16
7.52655e-16
7.52652e-16
7.52652e-16
1.47893e-15
1.47893e-15
1.47893e-15
1.47894e-15
1.47894e-15
1.47894e-15
1.47894e-15
1.47895e-15
1.47895e-15
1.47894e-15
1.47895e-15
1.47895e-15
1.47895e-15
1.47895e-15
1.47894e-15
1.47895e-15
1.47894e-15
1.47894e-15
1.47894e-15
1.47894e-15
1.47894e-15
1.47894e-15
1.47895e-15
1.47894e-15
1.47894e-15
1.47894e-15
1.47894e-15
1.47894e-15
1.47894e-15
1.47894e-15
1.47894e-15
1.47894e-15
1.47894e-15
1.47894e-15
1.47894e-15
1.47894e-15
1.47894e-15
1.47894e-15
1.47894e-15
1.47895e-15
1.47894e-15
1.47895e-15
1.47894e-15
1.47895e-15
1.47895e-15
1.47895e-15
1.47895e-15
1.47894e-15
1.47895e-15
1.47895e-15
1.47895e-15
1.47895e-15
1.47895e-15
1.47895e-15
1.47895e-15
1.47894e-15
1.47894e-15
1.47894e-15
1.47893e-15
1.47893e-15
2.83275e-15
2.83276e-15
2.83276e-15
2.83277e-15
2.83277e-15
2.83279e-15
2.83279e-15
2.83278e-15
2.83279e-15
2.8328e-15
2.83279e-15
2.83279e-15
2.83279e-15
2.83279e-15
2.83279e-15
2.83278e-15
2.83278e-15
2.83278e-15
2.83278e-15
2.83278e-15
2.83279e-15
2.83278e-15
2.83278e-15
2.83278e-15
2.83278e-15
2.83277e-15
2.83278e-15
2.83278e-15
2.83278e-15
2.83278e-15
2.83278e-15
2.83279e-15
2.83279e-15
2.83278e-15
2.83278e-15
2.83279e-15
2.83278e-15
2.83279e-15
2.83279e-15
2.83278e-15
2.83278e-15
2.83278e-15
2.83278e-15
2.83278e-15
2.83278e-15
2.83278e-15
2.83279e-15
2.83279e-15
2.83278e-15
2.83278e-15
2.83279e-15
2.83278e-15
2.83279e-15
2.83279e-15
2.83278e-15
2.83278e-15
2.83277e-15
2.83277e-15
2.83275e-15
2.83275e-15
5.30827e-15
5.30828e-15
5.30829e-15
5.3083e-15
5.30833e-15
5.30832e-15
5.30834e-15
5.30833e-15
5.30832e-15
5.30832e-15
5.30834e-15
5.30832e-15
5.30834e-15
5.30833e-15
5.30833e-15
5.30832e-15
5.30834e-15
5.30833e-15
5.30834e-15
5.30833e-15
5.30832e-15
5.30832e-15
5.30833e-15
5.30832e-15
5.30832e-15
5.30833e-15
5.30832e-15
5.30832e-15
5.30834e-15
5.30832e-15
5.30833e-15
5.3083e-15
5.30831e-15
5.30833e-15
5.30832e-15
5.30831e-15
5.30832e-15
5.30833e-15
5.30833e-15
5.30833e-15
5.30832e-15
5.30832e-15
5.30832e-15
5.30833e-15
5.30834e-15
5.30833e-15
5.30832e-15
5.30833e-15
5.30835e-15
5.30834e-15
5.30833e-15
5.30835e-15
5.30832e-15
5.30832e-15
5.30832e-15
5.30832e-15
5.30831e-15
5.30829e-15
5.30829e-15
5.30828e-15
9.73173e-15
9.73171e-15
9.73182e-15
9.73184e-15
9.73183e-15
9.7318e-15
9.73181e-15
9.73185e-15
9.73187e-15
9.73186e-15
9.73184e-15
9.73185e-15
9.73181e-15
9.73183e-15
9.73184e-15
9.73186e-15
9.73183e-15
9.73179e-15
9.73181e-15
9.73183e-15
9.73183e-15
9.73182e-15
9.73182e-15
9.73182e-15
9.73181e-15
9.73179e-15
9.73179e-15
9.73179e-15
9.73179e-15
9.73183e-15
9.73177e-15
9.73183e-15
9.73178e-15
9.7318e-15
9.73182e-15
9.73182e-15
9.73184e-15
9.73179e-15
9.73184e-15
9.73183e-15
9.73185e-15
9.73179e-15
9.73184e-15
9.73182e-15
9.73184e-15
9.73182e-15
9.73187e-15
9.73183e-15
9.73184e-15
9.73181e-15
9.73188e-15
9.73186e-15
9.73186e-15
9.73186e-15
9.73185e-15
9.73184e-15
9.73182e-15
9.73175e-15
9.73175e-15
9.73171e-15
1.74515e-14
1.74516e-14
1.74515e-14
1.74517e-14
1.74517e-14
1.74518e-14
1.74518e-14
1.74518e-14
1.74518e-14
1.74518e-14
1.74517e-14
1.74518e-14
1.74518e-14
1.74519e-14
1.74517e-14
1.74518e-14
1.74517e-14
1.74518e-14
1.74518e-14
1.74517e-14
1.74517e-14
1.74517e-14
1.74517e-14
1.74517e-14
1.74517e-14
1.74517e-14
1.74517e-14
1.74518e-14
1.74517e-14
1.74517e-14
1.74518e-14
1.74518e-14
1.74518e-14
1.74517e-14
1.74517e-14
1.74517e-14
1.74516e-14
1.74518e-14
1.74517e-14
1.74518e-14
1.74518e-14
1.74518e-14
1.74518e-14
1.74518e-14
1.74517e-14
1.74518e-14
1.74518e-14
1.74518e-14
1.74518e-14
1.74519e-14
1.74516e-14
1.74517e-14
1.74518e-14
1.74517e-14
1.74517e-14
1.74517e-14
1.74517e-14
1.74516e-14
1.74516e-14
1.74515e-14
3.05797e-14
3.05797e-14
3.058e-14
3.05798e-14
3.05799e-14
3.05799e-14
3.058e-14
3.058e-14
3.05799e-14
3.05798e-14
3.058e-14
3.05799e-14
3.058e-14
3.05798e-14
3.058e-14
3.05799e-14
3.058e-14
3.05798e-14
3.05798e-14
3.05799e-14
3.05801e-14
3.058e-14
3.05799e-14
3.05799e-14
3.058e-14
3.058e-14
3.058e-14
3.058e-14
3.05799e-14
3.05799e-14
3.05799e-14
3.05799e-14
3.05799e-14
3.05799e-14
3.058e-14
3.05799e-14
3.05801e-14
3.058e-14
3.058e-14
3.05798e-14
3.05799e-14
3.05799e-14
3.05799e-14
3.058e-14
3.05799e-14
3.058e-14
3.05797e-14
3.058e-14
3.058e-14
3.05799e-14
3.05801e-14
3.058e-14
3.05799e-14
3.058e-14
3.058e-14
3.05799e-14
3.05799e-14
3.05798e-14
3.05795e-14
3.05797e-14
5.16912e-14
5.16913e-14
5.16911e-14
5.16914e-14
5.16914e-14
5.16916e-14
5.16918e-14
5.16917e-14
5.16919e-14
5.16921e-14
5.16918e-14
5.16915e-14
5.16918e-14
5.16919e-14
5.16918e-14
5.16918e-14
5.16918e-14
5.16918e-14
5.16918e-14
5.16918e-14
5.16914e-14
5.16917e-14
5.16918e-14
5.16916e-14
5.16918e-14
5.16917e-14
5.16913e-14
5.16915e-14
5.16917e-14
5.16919e-14
5.16916e-14
5.16914e-14
5.16916e-14
5.16916e-14
5.16916e-14
5.16917e-14
5.16915e-14
5.16915e-14
5.16914e-14
5.16917e-14
5.16916e-14
5.16919e-14
5.1692e-14
5.16916e-14
5.16919e-14
5.16919e-14
5.1692e-14
5.16915e-14
5.16916e-14
5.16919e-14
5.16915e-14
5.16918e-14
5.16919e-14
5.16919e-14
5.16915e-14
5.16917e-14
5.16914e-14
5.16914e-14
5.16914e-14
5.16912e-14
7.98794e-14
7.98796e-14
7.98797e-14
7.98799e-14
7.98801e-14
7.98808e-14
7.98807e-14
7.98801e-14
7.98798e-14
7.98804e-14
7.98801e-14
7.98813e-14
7.98808e-14
7.98807e-14
7.98799e-14
7.98805e-14
7.98806e-14
7.98803e-14
7.98798e-14
7.98806e-14
7.98804e-14
7.98803e-14
7.98798e-14
7.988e-14
7.98798e-14
7.98798e-14
7.98806e-14
7.98805e-14
7.98804e-14
7.98803e-14
7.98798e-14
7.98803e-14
7.98802e-14
7.98803e-14
7.98804e-14
7.98807e-14
7.98806e-14
7.98803e-14
7.98808e-14
7.98808e-14
7.9881e-14
7.98807e-14
7.98807e-14
7.98803e-14
7.98803e-14
7.98797e-14
7.98804e-14
7.98804e-14
7.98802e-14
7.98806e-14
7.98812e-14
7.98806e-14
7.98795e-14
7.98803e-14
7.98811e-14
7.98799e-14
7.988e-14
7.98799e-14
7.98797e-14
7.98794e-14
9.5726e-14
9.57251e-14
9.57275e-14
9.57262e-14
9.57261e-14
9.57261e-14
9.57257e-14
9.57262e-14
9.57252e-14
9.57262e-14
9.57272e-14
9.57267e-14
9.57253e-14
9.57245e-14
9.57273e-14
9.5726e-14
9.57258e-14
9.57263e-14
9.5727e-14
9.57251e-14
9.5727e-14
9.57259e-14
9.57271e-14
9.57264e-14
9.57262e-14
9.57258e-14
9.57247e-14
9.57253e-14
9.57249e-14
9.57258e-14
9.57267e-14
9.57261e-14
9.57253e-14
9.57265e-14
9.57256e-14
9.57243e-14
9.57249e-14
9.57261e-14
9.57268e-14
9.57257e-14
9.57249e-14
9.5726e-14
9.57245e-14
9.57265e-14
9.57261e-14
9.57267e-14
9.57261e-14
9.5726e-14
9.57262e-14
9.57262e-14
9.57265e-14
9.57265e-14
9.57276e-14
9.57263e-14
9.57243e-14
9.57269e-14
9.57267e-14
9.57253e-14
9.5725e-14
9.57246e-14
3.74928e-14
3.74969e-14
3.74951e-14
3.74967e-14
3.74984e-14
3.74946e-14
3.74971e-14
3.74991e-14
3.74992e-14
3.74937e-14
3.74962e-14
3.74934e-14
3.74979e-14
3.74995e-14
3.74964e-14
3.74978e-14
3.7496e-14
3.74978e-14
3.74945e-14
3.74968e-14
3.74949e-14
3.74962e-14
3.74934e-14
3.74975e-14
3.74966e-14
3.7497e-14
3.74983e-14
3.74961e-14
3.74995e-14
3.74942e-14
3.7497e-14
3.74959e-14
3.74986e-14
3.74958e-14
3.74977e-14
3.74982e-14
3.74994e-14
3.74977e-14
3.74935e-14
3.74944e-14
3.74957e-14
3.74949e-14
3.74986e-14
3.74968e-14
3.74957e-14
3.7498e-14
3.74963e-14
3.74983e-14
3.74972e-14
3.74957e-14
3.74964e-14
3.74951e-14
3.74968e-14
3.74955e-14
3.74983e-14
3.74956e-14
3.7494e-14
3.74986e-14
3.7497e-14
3.7496e-14
-1.65825e-13
-1.65828e-13
-1.65833e-13
-1.6583e-13
-1.6583e-13
-1.65825e-13
-1.65831e-13
-1.65833e-13
-1.65832e-13
-1.65825e-13
-1.6583e-13
-1.65826e-13
-1.65831e-13
-1.65828e-13
-1.65826e-13
-1.6583e-13
-1.65823e-13
-1.65828e-13
-1.65824e-13
-1.65828e-13
-1.65826e-13
-1.6583e-13
-1.65822e-13
-1.65832e-13
-1.65824e-13
-1.65828e-13
-1.65827e-13
-1.6583e-13
-1.65832e-13
-1.65825e-13
-1.6583e-13
-1.65828e-13
-1.6583e-13
-1.65827e-13
-1.6583e-13
-1.65832e-13
-1.65829e-13
-1.65827e-13
-1.65823e-13
-1.65822e-13
-1.65824e-13
-1.65823e-13
-1.65831e-13
-1.65832e-13
-1.65829e-13
-1.65828e-13
-1.65826e-13
-1.65831e-13
-1.65825e-13
-1.65826e-13
-1.65827e-13
-1.65824e-13
-1.65831e-13
-1.65827e-13
-1.65829e-13
-1.65825e-13
-1.65828e-13
-1.65832e-13
-1.65827e-13
-1.65825e-13
-3.92874e-13
-3.92869e-13
-3.92867e-13
-3.92867e-13
-3.92873e-13
-3.92876e-13
-3.92871e-13
-3.92869e-13
-3.92876e-13
-3.92878e-13
-3.92877e-13
-3.92866e-13
-3.92877e-13
-3.9287e-13
-3.92879e-13
-3.92868e-13
-3.92882e-13
-3.92877e-13
-3.92876e-13
-3.92877e-13
-3.92868e-13
-3.92875e-13
-3.92885e-13
-3.92874e-13
-3.92879e-13
-3.92871e-13
-3.92876e-13
-3.92876e-13
-3.92869e-13
-3.92873e-13
-3.92875e-13
-3.92871e-13
-3.92874e-13
-3.92875e-13
-3.92868e-13
-3.9287e-13
-3.92877e-13
-3.92879e-13
-3.92876e-13
-3.92881e-13
-3.92882e-13
-3.92873e-13
-3.92874e-13
-3.92868e-13
-3.92877e-13
-3.9288e-13
-3.92885e-13
-3.92873e-13
-3.92882e-13
-3.92871e-13
-3.92874e-13
-3.92877e-13
-3.92877e-13
-3.92881e-13
-3.92878e-13
-3.9287e-13
-3.92866e-13
-3.92862e-13
-3.92868e-13
-3.92871e-13
-1.96097e-13
-1.96114e-13
-1.96108e-13
-1.96133e-13
-1.96102e-13
-1.96121e-13
-1.9611e-13
-1.9612e-13
-1.96107e-13
-1.96137e-13
-1.96106e-13
-1.96136e-13
-1.96106e-13
-1.96126e-13
-1.9612e-13
-1.96117e-13
-1.96119e-13
-1.96119e-13
-1.96114e-13
-1.96118e-13
-1.96134e-13
-1.9611e-13
-1.96102e-13
-1.9611e-13
-1.96106e-13
-1.96127e-13
-1.96115e-13
-1.96107e-13
-1.96128e-13
-1.96121e-13
-1.96112e-13
-1.96121e-13
-1.9611e-13
-1.96117e-13
-1.96121e-13
-1.96116e-13
-1.96113e-13
-1.96108e-13
-1.96126e-13
-1.96117e-13
-1.96103e-13
-1.96121e-13
-1.96121e-13
-1.96109e-13
-1.96096e-13
-1.96101e-13
-1.96109e-13
-1.96109e-13
-1.9611e-13
-1.96131e-13
-1.96134e-13
-1.96118e-13
-1.96121e-13
-1.96117e-13
-1.96113e-13
-1.96125e-13
-1.96123e-13
-1.96139e-13
-1.9612e-13
-1.96111e-13
5.56343e-13
5.56354e-13
5.56346e-13
5.56356e-13
5.56338e-13
5.56347e-13
5.56338e-13
5.56334e-13
5.56324e-13
5.5638e-13
5.56342e-13
5.5637e-13
5.56336e-13
5.56351e-13
5.56354e-13
5.56341e-13
5.56354e-13
5.56361e-13
5.56352e-13
5.56366e-13
5.56377e-13
5.5634e-13
5.56335e-13
5.56331e-13
5.56348e-13
5.56359e-13
5.56339e-13
5.56348e-13
5.56373e-13
5.56329e-13
5.56341e-13
5.56341e-13
5.56336e-13
5.56355e-13
5.56344e-13
5.56345e-13
5.56353e-13
5.56345e-13
5.56364e-13
5.56347e-13
5.56342e-13
5.56353e-13
5.56353e-13
5.56323e-13
5.56339e-13
5.5632e-13
5.56355e-13
5.56345e-13
5.56361e-13
5.56353e-13
5.56363e-13
5.56355e-13
5.56361e-13
5.56362e-13
5.5636e-13
5.56336e-13
5.56348e-13
5.56367e-13
5.56345e-13
5.56356e-13
9.4736e-13
9.47326e-13
9.47343e-13
9.47338e-13
9.47341e-13
9.47388e-13
9.47356e-13
9.47403e-13
9.47379e-13
9.47322e-13
9.47323e-13
9.47347e-13
9.47396e-13
9.47364e-13
9.47362e-13
9.47371e-13
9.47369e-13
9.47358e-13
9.47374e-13
9.47335e-13
9.47334e-13
9.47363e-13
9.47349e-13
9.47409e-13
9.47331e-13
9.47341e-13
9.47358e-13
9.47374e-13
9.47353e-13
9.47384e-13
9.47387e-13
9.4739e-13
9.4737e-13
9.47373e-13
9.47394e-13
9.47347e-13
9.4734e-13
9.47388e-13
9.47356e-13
9.47354e-13
9.47369e-13
9.4736e-13
9.47354e-13
9.47396e-13
9.47379e-13
9.47408e-13
9.47372e-13
9.47328e-13
9.47339e-13
9.47332e-13
9.47341e-13
9.47349e-13
9.47346e-13
9.47335e-13
9.47369e-13
9.47383e-13
9.47364e-13
9.4735e-13
9.47388e-13
9.47329e-13
2.94651e-13
2.9469e-13
2.947e-13
2.9471e-13
2.94757e-13
2.94695e-13
2.94734e-13
2.94644e-13
2.94684e-13
2.94753e-13
2.9475e-13
2.94727e-13
2.94669e-13
2.9468e-13
2.94751e-13
2.94699e-13
2.94703e-13
2.94696e-13
2.94678e-13
2.94744e-13
2.94681e-13
2.9474e-13
2.94731e-13
2.94737e-13
2.94758e-13
2.94712e-13
2.94701e-13
2.94699e-13
2.9476e-13
2.94674e-13
2.94712e-13
2.94736e-13
2.94767e-13
2.94707e-13
2.94617e-13
2.94707e-13
2.9474e-13
2.94657e-13
2.94737e-13
2.94714e-13
2.94663e-13
2.94765e-13
2.94759e-13
2.94723e-13
2.94723e-13
2.94667e-13
2.94667e-13
2.94753e-13
2.94731e-13
2.94756e-13
2.94754e-13
2.94753e-13
2.94732e-13
2.94724e-13
2.94718e-13
2.94687e-13
2.94698e-13
2.94756e-13
2.94648e-13
2.94708e-13
-4.85413e-13
-4.85355e-13
-4.85372e-13
-4.85453e-13
-4.85396e-13
-4.85433e-13
-4.85496e-13
-4.85422e-13
-4.85406e-13
-4.85481e-13
-4.85438e-13
-4.85468e-13
-4.85407e-13
-4.85319e-13
-4.85551e-13
-4.85335e-13
-4.85476e-13
-4.85486e-13
-4.8536e-13
-4.85427e-13
-4.85308e-13
-4.85511e-13
-4.85531e-13
-4.85522e-13
-4.85497e-13
-4.85358e-13
-4.85429e-13
-4.85418e-13
-4.85584e-13
-4.85448e-13
-4.85434e-13
-4.85448e-13
-4.85521e-13
-4.85486e-13
-4.85326e-13
-4.85443e-13
-4.85446e-13
-4.85405e-13
-4.85478e-13
-4.85449e-13
-4.85434e-13
-4.85432e-13
-4.85496e-13
-4.8552e-13
-4.855e-13
-4.8539e-13
-4.854e-13
-4.85456e-13
-4.85455e-13
-4.85473e-13
-4.85372e-13
-4.8545e-13
-4.85469e-13
-4.85412e-13
-4.85444e-13
-4.85355e-13
-4.85414e-13
-4.85492e-13
-4.85338e-13
-4.85448e-13
-5.16876e-13
-5.16843e-13
-5.16852e-13
-5.16918e-13
-5.16939e-13
-5.16853e-13
-5.16687e-13
-5.16755e-13
-5.16847e-13
-5.1672e-13
-5.16941e-13
-5.16763e-13
-5.16829e-13
-5.16947e-13
-5.16678e-13
-5.1692e-13
-5.16726e-13
-5.16825e-13
-5.1685e-13
-5.16909e-13
-5.16917e-13
-5.16861e-13
-5.16638e-13
-5.16783e-13
-5.16701e-13
-5.16959e-13
-5.1691e-13
-5.16786e-13
-5.16692e-13
-5.16783e-13
-5.16848e-13
-5.16814e-13
-5.16742e-13
-5.16729e-13
-5.16993e-13
-5.16867e-13
-5.16745e-13
-5.16801e-13
-5.16668e-13
-5.16849e-13
-5.16807e-13
-5.16807e-13
-5.16799e-13
-5.16691e-13
-5.16775e-13
-5.16958e-13
-5.16744e-13
-5.16814e-13
-5.16891e-13
-5.1678e-13
-5.17007e-13
-5.16842e-13
-5.16924e-13
-5.169e-13
-5.16907e-13
-5.16843e-13
-5.16867e-13
-5.16758e-13
-5.16961e-13
-5.16807e-13
-1.91306e-13
-1.91258e-13
-1.91312e-13
-1.91117e-13
-1.91275e-13
-1.91268e-13
-1.91414e-13
-1.91501e-13
-1.91299e-13
-1.91377e-13
-1.91177e-13
-1.91236e-13
-1.91225e-13
-1.91219e-13
-1.91465e-13
-1.91297e-13
-1.91612e-13
-1.91225e-13
-1.91395e-13
-1.91242e-13
-1.91187e-13
-1.91288e-13
-1.91544e-13
-1.9118e-13
-1.91532e-13
-1.91268e-13
-1.9119e-13
-1.91295e-13
-1.91405e-13
-1.91353e-13
-1.91335e-13
-1.91363e-13
-1.91209e-13
-1.91557e-13
-1.91136e-13
-1.91341e-13
-1.91345e-13
-1.91389e-13
-1.91532e-13
-1.91195e-13
-1.91385e-13
-1.91364e-13
-1.91184e-13
-1.91398e-13
-1.91301e-13
-1.91189e-13
-1.91555e-13
-1.91413e-13
-1.9118e-13
-1.91491e-13
-1.91185e-13
-1.91296e-13
-1.91126e-13
-1.91122e-13
-1.91197e-13
-1.91371e-13
-1.91209e-13
-1.91483e-13
-1.91302e-13
-1.91195e-13
-2.90553e-14
-2.89503e-14
-2.89512e-14
-2.91666e-14
-2.9057e-14
-2.89718e-14
-2.89742e-14
-2.87128e-14
-2.88393e-14
-2.89281e-14
-2.89119e-14
-2.89035e-14
-2.9025e-14
-2.8982e-14
-2.87409e-14
-2.90294e-14
-2.86473e-14
-2.89515e-14
-2.87748e-14
-2.89689e-14
-2.89392e-14
-2.87937e-14
-2.87228e-14
-2.90775e-14
-2.86994e-14
-2.89103e-14
-2.89241e-14
-2.89848e-14
-2.8741e-14
-2.88696e-14
-2.89171e-14
-2.86694e-14
-2.91343e-14
-2.87096e-14
-2.90464e-14
-2.85782e-14
-2.89187e-14
-2.88127e-14
-2.88304e-14
-2.88454e-14
-2.87861e-14
-2.89058e-14
-2.9064e-14
-2.88596e-14
-2.88809e-14
-2.88393e-14
-2.86505e-14
-2.88265e-14
-2.90047e-14
-2.85381e-14
-2.8933e-14
-2.89544e-14
-2.9022e-14
-2.92328e-14
-2.91309e-14
-2.87751e-14
-2.91763e-14
-2.87896e-14
-2.87497e-14
-2.9009e-14
-2.79978e-14
-2.83996e-14
-2.8243e-14
-2.80586e-14
-2.81134e-14
-2.83162e-14
-2.83026e-14
-2.83324e-14
-2.83688e-14
-2.79349e-14
-2.83088e-14
-2.83878e-14
-2.82583e-14
-2.82065e-14
-2.83793e-14
-2.81588e-14
-2.81409e-14
-2.84135e-14
-2.82604e-14
-2.8299e-14
-2.82304e-14
-2.82841e-14
-2.82222e-14
-2.79656e-14
-2.85153e-14
-2.81462e-14
-2.83551e-14
-2.80305e-14
-2.85377e-14
-2.83444e-14
-2.82236e-14
-2.86368e-14
-2.79476e-14
-2.82952e-14
-2.83094e-14
-2.86711e-14
-2.83956e-14
-2.83151e-14
-2.82308e-14
-2.86323e-14
-2.83043e-14
-2.80314e-14
-2.81361e-14
-2.82401e-14
-2.82952e-14
-2.84101e-14
-2.83952e-14
-2.82969e-14
-2.8278e-14
-2.86532e-14
-2.8322e-14
-2.82051e-14
-2.82564e-14
-2.79896e-14
-2.78846e-14
-2.84183e-14
-2.80778e-14
-2.81576e-14
-2.8357e-14
-2.8228e-14
-4.78744e-14
-4.74612e-14
-4.77146e-14
-4.76464e-14
-4.75884e-14
-4.75381e-14
-4.75181e-14
-4.73908e-14
-4.7607e-14
-4.81903e-14
-4.77026e-14
-4.78674e-14
-4.7524e-14
-4.74798e-14
-4.73748e-14
-4.75951e-14
-4.79947e-14
-4.7705e-14
-4.75472e-14
-4.77899e-14
-4.78745e-14
-4.78321e-14
-4.76957e-14
-4.7805e-14
-4.75543e-14
-4.78562e-14
-4.77376e-14
-4.80538e-14
-4.74958e-14
-4.73681e-14
-4.77749e-14
-4.72405e-14
-4.77777e-14
-4.79025e-14
-4.74075e-14
-4.74811e-14
-4.74261e-14
-4.78167e-14
-4.7697e-14
-4.72215e-14
-4.76482e-14
-4.78447e-14
-4.7664e-14
-4.75619e-14
-4.78141e-14
-4.74109e-14
-4.77376e-14
-4.76828e-14
-4.74275e-14
-4.75126e-14
-4.76243e-14
-4.76005e-14
-4.769e-14
-4.77189e-14
-4.78054e-14
-4.75166e-14
-4.78899e-14
-4.78729e-14
-4.77598e-14
-4.75462e-14
-4.33846e-14
-4.32713e-14
-4.3603e-14
-4.34024e-14
-4.3254e-14
-4.34158e-14
-4.33718e-14
-4.3539e-14
-4.33519e-14
-4.30321e-14
-4.33145e-14
-4.31852e-14
-4.34445e-14
-4.35498e-14
-4.38511e-14
-4.378e-14
-4.32753e-14
-4.31625e-14
-4.35713e-14
-4.33121e-14
-4.29644e-14
-4.31061e-14
-4.32918e-14
-4.33534e-14
-4.33026e-14
-4.32166e-14
-4.3329e-14
-4.29018e-14
-4.34293e-14
-4.35776e-14
-4.31488e-14
-4.33881e-14
-4.36934e-14
-4.29862e-14
-4.33087e-14
-4.34151e-14
-4.3754e-14
-4.33658e-14
-4.32533e-14
-4.35566e-14
-4.32928e-14
-4.33964e-14
-4.34728e-14
-4.3521e-14
-4.31661e-14
-4.32519e-14
-4.31746e-14
-4.34258e-14
-4.35647e-14
-4.3163e-14
-4.33458e-14
-4.34934e-14
-4.33106e-14
-4.34048e-14
-4.34781e-14
-4.36564e-14
-4.31379e-14
-4.32533e-14
-4.32912e-14
-4.34442e-14
-2.78643e-14
-2.82135e-14
-2.76336e-14
-2.78547e-14
-2.78199e-14
-2.77352e-14
-2.81916e-14
-2.76833e-14
-2.80193e-14
-2.81164e-14
-2.79349e-14
-2.78876e-14
-2.80091e-14
-2.78933e-14
-2.75971e-14
-2.77247e-14
-2.78733e-14
-2.80222e-14
-2.7824e-14
-2.81488e-14
-2.80516e-14
-2.8142e-14
-2.81594e-14
-2.77832e-14
-2.81035e-14
-2.74347e-14
-2.80899e-14
-2.8228e-14
-2.76933e-14
-2.77708e-14
-2.80534e-14
-2.7933e-14
-2.79406e-14
-2.79118e-14
-2.83713e-14
-2.80307e-14
-2.73451e-14
-2.77598e-14
-2.81172e-14
-2.7705e-14
-2.79512e-14
-2.77399e-14
-2.7645e-14
-2.78633e-14
-2.81058e-14
-2.80715e-14
-2.78901e-14
-2.79143e-14
-2.75937e-14
-2.8089e-14
-2.78356e-14
-2.77969e-14
-2.77479e-14
-2.80329e-14
-2.79219e-14
-2.77364e-14
-2.79607e-14
-2.78641e-14
-2.78883e-14
-2.81369e-14
-1.46036e-14
-1.44469e-14
-1.45197e-14
-1.41633e-14
-1.47436e-14
-1.45581e-14
-1.43067e-14
-1.47972e-14
-1.43456e-14
-1.39338e-14
-1.43026e-14
-1.44462e-14
-1.44668e-14
-1.45147e-14
-1.43522e-14
-1.44877e-14
-1.45903e-14
-1.42e-14
-1.44188e-14
-1.40118e-14
-1.4501e-14
-1.41091e-14
-1.42525e-14
-1.45576e-14
-1.39944e-14
-1.5438e-14
-1.3975e-14
-1.43531e-14
-1.45901e-14
-1.4457e-14
-1.42514e-14
-1.43304e-14
-1.39627e-14
-1.46686e-14
-1.39472e-14
-1.43217e-14
-1.48046e-14
-1.4382e-14
-1.40233e-14
-1.43857e-14
-1.46025e-14
-1.42535e-14
-1.50413e-14
-1.41961e-14
-1.43276e-14
-1.40067e-14
-1.43759e-14
-1.4327e-14
-1.43955e-14
-1.44168e-14
-1.41402e-14
-1.45237e-14
-1.47478e-14
-1.44192e-14
-1.43548e-14
-1.44442e-14
-1.45345e-14
-1.44957e-14
-1.46501e-14
-1.42952e-14
-5.87855e-15
-5.59836e-15
-5.71386e-15
-5.98211e-15
-5.68217e-15
-6.11285e-15
-5.72348e-15
-5.41124e-15
-5.89878e-15
-6.15366e-15
-5.58415e-15
-5.92064e-15
-5.92018e-15
-5.72886e-15
-5.59693e-15
-6.20962e-15
-6.07341e-15
-6.20571e-15
-5.71171e-15
-6.07881e-15
-5.91688e-15
-5.97784e-15
-5.97475e-15
-5.93048e-15
-6.40594e-15
-5.39038e-15
-6.53246e-15
-5.95728e-15
-5.9647e-15
-5.57377e-15
-5.78387e-15
-5.56098e-15
-6.11965e-15
-5.81869e-15
-6.08539e-15
-5.75142e-15
-6.09966e-15
-6.08177e-15
-6.054e-15
-6.33605e-15
-5.41217e-15
-6.49045e-15
-5.41526e-15
-6.44877e-15
-6.19176e-15
-6.22787e-15
-6.26637e-15
-6.10004e-15
-6.0301e-15
-6.01757e-15
-6.21531e-15
-5.87427e-15
-5.74909e-15
-5.67911e-15
-5.98113e-15
-5.87694e-15
-5.5498e-15
-5.98471e-15
-5.84859e-15
-5.67051e-15
-1.65037e-15
-1.8141e-15
-2.19004e-15
-1.85575e-15
-1.49615e-15
-1.4955e-15
-1.58635e-15
-2.25582e-15
-1.42106e-15
-2.13189e-15
-1.84157e-15
-1.16645e-15
-1.63657e-15
-1.76247e-15
-2.05026e-15
-1.38297e-15
-1.4489e-15
-1.7027e-15
-1.84419e-15
-1.61156e-15
-1.20202e-15
-1.72467e-15
-1.44962e-15
-1.93919e-15
-1.48327e-15
-1.50938e-15
-1.17895e-15
-1.43297e-15
-1.53791e-15
-2.07793e-15
-1.60559e-15
-1.95029e-15
-1.42231e-15
-1.64568e-15
-1.57041e-15
-1.56598e-15
-1.43157e-15
-1.33578e-15
-1.3958e-15
-1.57088e-15
-2.45206e-15
-1.51122e-15
-1.54008e-15
-1.17962e-15
-1.19394e-15
-1.55419e-15
-1.7162e-15
-1.46043e-15
-1.46267e-15
-1.407e-15
-1.3049e-15
-1.5084e-15
-1.54415e-15
-1.72736e-15
-1.38814e-15
-1.61951e-15
-1.78595e-15
-1.56483e-15
-1.73611e-15
-1.8779e-15
2.8839e-16
8.17952e-17
7.98994e-16
8.02038e-17
1.85166e-16
-5.64818e-17
7.03195e-17
8.53451e-16
-5.76013e-18
8.35115e-16
-3.17219e-16
-4.78352e-16
2.50233e-16
2.34324e-16
8.90016e-17
1.26683e-16
4.32295e-16
6.11751e-16
1.54795e-16
4.39892e-16
-4.05424e-17
5.25627e-17
-1.96964e-16
7.56465e-16
9.63706e-17
2.92929e-17
-2.72511e-16
2.14177e-16
2.40607e-16
3.34997e-16
4.01581e-16
2.5055e-16
6.33025e-17
8.67301e-16
3.97065e-16
-7.13865e-17
3.99009e-16
-1.05125e-16
1.05997e-16
3.14058e-16
8.93123e-16
3.65348e-16
-2.81296e-17
3.41171e-16
6.28699e-17
5.84049e-16
7.49561e-16
8.34017e-17
4.95693e-16
5.03359e-17
1.39077e-16
1.98012e-16
3.97194e-17
2.21337e-16
5.06509e-17
-9.89497e-18
1.67986e-16
3.04544e-16
3.36019e-16
7.10601e-16
1.49718e-15
1.00398e-15
5.99337e-16
1.91129e-15
9.02275e-16
1.52859e-15
1.47875e-15
8.54257e-16
8.48162e-16
1.25347e-15
1.44173e-15
1.63385e-15
9.80276e-16
9.71356e-16
1.56497e-15
8.39509e-16
9.30939e-16
7.53284e-16
1.21975e-15
1.08217e-15
9.90445e-16
1.26636e-15
1.42491e-15
1.03025e-15
1.67063e-15
1.28898e-15
1.71237e-15
1.21956e-15
1.32305e-15
9.0557e-16
8.6845e-16
1.18653e-15
1.18065e-15
7.45554e-17
1.0216e-15
1.12325e-15
7.45688e-16
1.31407e-15
1.02417e-15
1.11485e-15
9.17212e-16
1.18474e-15
1.23846e-15
5.42488e-16
1.05711e-15
9.25954e-16
8.70684e-16
1.4486e-15
1.02226e-15
9.23507e-16
1.01816e-15
9.09194e-16
1.57797e-15
9.98023e-16
1.1046e-15
1.34946e-15
1.39778e-15
5.99344e-16
1.31999e-15
5.54397e-16
8.97313e-16
1.39611e-15
2.31568e-15
8.33539e-16
1.60568e-15
3.56383e-16
7.96492e-16
1.25324e-15
1.49776e-15
6.70198e-16
1.53264e-15
1.00889e-15
1.58387e-15
1.38209e-15
1.15946e-15
2.03544e-15
1.16955e-15
1.32312e-15
1.6432e-15
1.11822e-15
1.3112e-15
1.65233e-15
1.21742e-15
9.37242e-16
6.41475e-16
1.21326e-15
1.29634e-15
9.35361e-16
1.22e-15
1.04062e-15
1.40995e-15
1.35517e-15
1.23115e-15
1.71535e-15
1.12522e-15
1.515e-15
1.2149e-15
1.07462e-15
1.49118e-15
1.28508e-15
9.51226e-16
1.13466e-15
1.09037e-15
1.86296e-15
1.0793e-15
1.22115e-15
1.3251e-15
7.29409e-16
1.01404e-15
1.35931e-15
1.14173e-15
1.41909e-15
6.87687e-16
1.62598e-15
1.59657e-15
1.0294e-15
1.13671e-15
1.66324e-15
7.34395e-16
1.14845e-15
9.19737e-16
1.16944e-15
1.81338e-16
1.05458e-15
1.21582e-15
2.11703e-15
1.34993e-15
1.01403e-15
1.53107e-15
1.1573e-15
1.34836e-15
1.14672e-15
1.1447e-15
1.21464e-15
9.60083e-16
1.09849e-15
9.60076e-16
1.41002e-15
7.04287e-16
1.37609e-15
1.52823e-15
7.72501e-16
1.72913e-15
1.47339e-15
1.27465e-15
4.80849e-16
6.84519e-16
1.5501e-15
6.1259e-16
1.36562e-15
9.51246e-16
9.42206e-16
1.48785e-15
1.28411e-15
1.31728e-15
9.93539e-16
9.8636e-16
1.34606e-15
1.06071e-15
1.0213e-15
1.348e-15
1.40014e-15
1.62744e-15
7.83232e-16
1.75153e-15
9.23432e-16
9.73627e-16
1.52589e-15
1.05847e-15
1.44959e-15
1.48037e-15
1.38959e-15
9.20484e-16
1.16709e-15
1.07565e-15
1.33159e-15
8.42824e-16
8.32366e-16
2.07691e-15
1.40449e-15
1.69953e-15
1.46808e-15
1.55221e-15
1.91349e-15
7.23236e-16
9.40802e-16
1.38031e-15
1.36226e-15
1.46185e-15
1.38302e-15
6.17418e-16
1.65431e-15
9.59944e-16
1.01109e-15
1.24345e-15
5.8553e-16
1.74236e-15
1.5774e-15
1.61397e-15
9.67266e-16
8.0968e-16
1.48064e-15
9.01111e-16
1.35567e-15
8.68592e-16
2.37198e-15
1.52362e-15
1.45188e-15
1.68638e-15
1.80044e-15
1.23117e-15
1.34095e-15
5.83884e-16
1.1472e-15
8.29967e-16
1.47747e-15
1.42892e-15
1.09495e-15
7.35719e-16
1.13529e-15
7.88949e-16
1.24711e-15
1.20418e-15
1.74764e-15
7.34748e-16
1.42497e-15
1.07391e-15
9.26348e-16
1.72583e-15
8.50862e-16
8.98632e-16
1.15543e-15
1.65312e-15
5.79537e-16
1.21935e-15
8.71327e-16
1.86471e-15
1.64435e-15
4.02e-16
1.12557e-15
5.04052e-16
7.89189e-16
8.9171e-16
3.37021e-16
1.89135e-15
8.22426e-16
1.0573e-15
1.38143e-15
5.93783e-16
9.83566e-16
1.40644e-15
8.96304e-16
2.00314e-15
1.21098e-15
1.24381e-15
1.78073e-15
7.02544e-16
3.88303e-16
3.97201e-16
1.80532e-15
1.26162e-15
9.77566e-16
9.47594e-16
1.26634e-15
1.48786e-15
7.53991e-16
1.31271e-15
3.26894e-16
8.85882e-16
7.77589e-16
1.10684e-15
8.81456e-16
1.52592e-15
1.21379e-15
1.91711e-15
5.62433e-16
1.17475e-15
1.08099e-15
1.87133e-15
1.22594e-15
1.60059e-15
5.17252e-16
1.71752e-16
5.40096e-16
1.34321e-15
8.97392e-16
1.47646e-15
8.18445e-16
2.57932e-16
1.10329e-15
1.0581e-15
8.86866e-16
1.37731e-15
1.96401e-15
1.25942e-15
1.0931e-15
9.0311e-16
8.5551e-16
1.04711e-15
1.11356e-15
8.40238e-16
1.16831e-15
9.93599e-16
1.12109e-15
3.9084e-16
3.28766e-16
9.82357e-16
6.1114e-16
9.85409e-16
1.3924e-15
1.18441e-15
5.8537e-16
3.7399e-16
4.41849e-16
6.26651e-16
1.18078e-15
1.14009e-15
1.57347e-15
1.59013e-15
8.20029e-16
9.94262e-16
1.10235e-15
1.22597e-15
1.1971e-15
9.17519e-16
1.39129e-15
6.12281e-16
8.71368e-16
9.41908e-16
1.15236e-15
6.10136e-16
9.6694e-16
7.57351e-16
9.11831e-16
1.21251e-16
1.34712e-15
1.0312e-15
9.84571e-16
8.92309e-16
1.25271e-15
4.26983e-16
1.51062e-15
1.55241e-15
1.27824e-15
9.79942e-16
8.35363e-16
2.59127e-16
1.32171e-15
8.68227e-16
1.09168e-15
6.0097e-16
1.29324e-15
6.04258e-16
6.96894e-16
2.99951e-16
1.10629e-15
8.24685e-16
8.0606e-16
6.9803e-16
1.10799e-15
9.52223e-16
8.22106e-16
6.47913e-16
6.77872e-16
9.76261e-16
1.50981e-15
5.54317e-16
1.05961e-15
6.13968e-16
2.04698e-16
4.31928e-16
1.11886e-15
1.09641e-15
1.07224e-15
7.68708e-16
6.80821e-16
6.2543e-16
9.14244e-17
4.55452e-16
7.5983e-16
7.36021e-16
1.02999e-15
6.94186e-16
2.80893e-16
7.15666e-16
-1.74966e-16
1.09615e-15
1.27028e-15
8.72285e-16
6.68557e-16
1.48114e-15
7.56164e-16
7.13263e-16
1.15855e-15
1.71828e-15
6.25139e-16
3.05307e-16
1.31801e-15
1.24128e-17
6.85031e-16
8.03864e-16
6.85351e-16