/*--------------------------------*- C++ -*----------------------------------*\
| =========                 |                                                 |
| \\      /  F ield         | foam-extend: Open Source CFD                    |
|  \\    /   O peration     | Version:     4.0                                |
|   \\  /    A nd           | Web:         http://www.foam-extend.org         |
|    \\/     M anipulation  |                                                 |
\*---------------------------------------------------------------------------*/
FoamFile
{
    version     2.0;
    format      ascii;
    class       volScalarField;
    location    "22";
    object      dPhi;
}
// * * * * * * * * * * * * * * * * * * * * * * * * * * * * * * * * * * * * * //

dimensions      [0 -1 0 0 0 0 0];

internalField   nonuniform List<scalar> 
6960
(
6.81961e-16
1.44474e-15
1.93797e-15
4.95656e-16
-2.49183e-16
-8.80741e-16
8.38988e-17
9.07362e-16
1.34241e-15
-1.40702e-15
1.5543e-15
1.49242e-15
-3.99701e-16
-2.34386e-15
-1.52908e-15
5.69772e-16
-9.30584e-16
2.99691e-15
1.10737e-15
2.72779e-15
2.23017e-15
8.03709e-16
2.25676e-16
-1.57958e-15
1.29597e-16
-1.30755e-15
2.66496e-17
4.35843e-16
-2.74421e-15
-1.3757e-15
-3.00804e-15
7.63697e-17
3.24439e-15
-2.49388e-15
-1.15151e-15
-1.05866e-15
-9.91484e-16
3.81713e-16
-1.27273e-15
1.04191e-15
-2.00115e-15
1.25137e-15
4.76374e-16
5.57718e-16
7.13782e-16
1.27947e-15
2.69717e-15
-2.55677e-16
-1.47218e-15
3.78092e-16
-8.18894e-16
-2.06627e-15
-1.157e-15
2.27956e-16
1.03968e-15
-5.37164e-16
-1.13661e-15
-1.45625e-15
2.01616e-15
3.96405e-16
-1.05499e-17
-1.37951e-15
-4.78096e-16
-1.67646e-16
1.41453e-15
1.33155e-15
3.35624e-15
-3.75274e-15
2.14804e-15
1.976e-15
-9.89267e-16
-1.01465e-15
1.09455e-15
-4.24887e-16
1.14965e-15
-1.10832e-15
-1.30698e-15
-1.8331e-15
-6.2132e-16
-2.20232e-16
-3.12855e-15
3.77825e-16
1.53193e-15
-6.12153e-16
-4.39366e-16
2.82987e-15
1.36504e-15
-1.4406e-15
-1.589e-15
4.15512e-16
5.68355e-15
5.9715e-15
8.29824e-16
1.52602e-15
-1.48904e-15
4.49557e-15
2.14959e-16
1.6539e-15
1.98208e-15
-1.85734e-15
2.78832e-15
-5.71386e-16
-1.89419e-15
-1.74013e-15
-3.2788e-15
8.9408e-17
-2.19024e-15
-1.85304e-15
-1.87464e-16
3.90676e-15
-1.08257e-15
1.0879e-15
1.44171e-16
-2.0337e-15
4.93553e-16
1.31474e-15
6.59785e-16
1.62003e-15
-1.35594e-15
9.77474e-16
-2.70443e-15
7.25698e-17
1.08621e-15
3.2889e-15
7.55528e-16
2.47381e-15
-3.01953e-15
-1.77907e-15
7.66582e-16
1.42473e-15
5.16533e-16
5.61414e-16
1.70083e-15
5.88211e-16
-5.29654e-15
-5.15126e-15
1.05085e-15
-5.5507e-15
1.71688e-15
7.2158e-16
-1.19999e-15
-2.80557e-15
-2.52811e-15
2.07879e-15
4.59262e-15
-6.1363e-15
-1.79755e-15
3.85447e-15
-6.67035e-16
-6.15162e-15
-3.43867e-15
-6.5298e-16
2.01544e-15
-1.47167e-15
-6.82246e-16
-3.74127e-15
2.84872e-15
-1.45948e-15
1.68356e-15
-2.48399e-15
1.95673e-15
1.15447e-15
2.38008e-15
-2.76552e-15
4.55599e-15
-1.47343e-15
6.59749e-15
8.39555e-17
-1.9436e-15
-6.96325e-15
2.13947e-15
1.981e-15
-8.209e-16
4.7107e-16
1.96771e-15
-1.83867e-15
-1.03502e-16
1.15714e-15
5.929e-15
-5.2374e-16
1.28475e-16
9.90248e-16
-1.71054e-15
-7.06516e-15
4.94084e-15
-1.07625e-15
1.81487e-15
3.2573e-16
-2.59761e-15
5.85244e-15
2.82612e-15
1.14212e-15
-2.23636e-15
2.37331e-15
3.84576e-15
3.05689e-15
4.23952e-16
5.71238e-15
2.73397e-15
1.31109e-15
-7.40759e-16
2.29665e-15
-9.73261e-16
4.32637e-16
-1.02009e-15
3.18614e-15
2.64988e-15
-3.82063e-15
1.60582e-15
4.60172e-15
4.61582e-15
4.01971e-15
-4.48281e-16
9.15091e-16
1.68621e-15
5.71047e-15
-1.94067e-15
-1.4186e-15
2.36573e-15
-4.89048e-15
-1.54905e-15
-2.6094e-15
-3.48903e-15
1.81039e-15
-8.28141e-15
1.72244e-15
-8.34116e-15
-1.68246e-16
2.21114e-15
-3.64133e-15
5.64503e-15
-1.72232e-15
-3.55967e-15
6.21576e-15
-2.86456e-15
-3.59114e-16
4.58104e-15
1.03659e-16
8.40074e-16
-5.0508e-15
-7.27159e-15
7.46032e-16
8.99759e-17
1.70332e-15
-3.4799e-15
-6.44817e-15
-6.47844e-15
-2.85183e-15
-9.30837e-16
-7.13831e-15
-2.74639e-15
1.21854e-15
1.06209e-15
-9.28387e-17
2.79223e-15
-8.41055e-16
1.70297e-15
1.47537e-15
7.85455e-15
2.34133e-15
1.08476e-15
-2.05691e-15
-3.00372e-15
-3.47295e-15
1.47076e-15
2.19648e-15
6.9697e-15
3.93712e-15
4.26326e-15
-5.74898e-15
-3.82865e-15
1.57336e-15
2.901e-15
-1.29709e-15
-4.38737e-16
-1.16536e-14
1.7074e-15
6.53149e-15
-5.0509e-15
8.2772e-15
-9.18997e-16
4.7491e-16
4.23947e-16
-1.73775e-15
6.85129e-15
1.40889e-15
5.34959e-15
-1.91626e-15
-2.07869e-15
6.84669e-15
4.52566e-15
1.31077e-15
1.65363e-16
-5.83099e-15
4.40027e-15
2.45437e-15
-3.39162e-15
3.84928e-15
-8.96894e-15
3.85923e-15
1.07638e-14
1.34502e-16
-6.34207e-16
-3.78555e-15
3.45691e-15
8.72471e-15
6.35953e-15
5.87502e-15
-4.37896e-15
1.24572e-14
2.61652e-15
1.04977e-15
5.93663e-15
-5.15851e-15
-4.06183e-15
1.82271e-15
-4.17111e-15
1.1971e-15
-1.03289e-14
-2.33827e-15
3.14802e-15
1.36526e-15
3.51369e-15
-6.10635e-15
6.94684e-15
1.01272e-14
2.77307e-15
-3.51077e-15
-2.68991e-15
3.15759e-15
-3.25752e-15
-9.92983e-15
-1.57281e-15
6.72238e-15
-1.0285e-14
1.9302e-15
2.70311e-16
-1.05714e-14
1.77357e-15
2.11993e-16
2.97709e-15
3.37362e-15
1.24375e-15
-9.64999e-16
-5.66432e-15
-5.96899e-15
8.68382e-16
1.08992e-15
-1.63113e-15
-9.49153e-15
-8.51533e-16
4.43542e-15
1.41732e-14
3.77111e-15
-2.95145e-15
9.69463e-15
1.22524e-15
-1.9575e-15
1.42981e-15
-3.64008e-15
-1.96701e-14
-6.93344e-15
-5.38991e-15
-1.28196e-15
1.02516e-15
-7.24492e-15
3.50877e-15
-1.36189e-15
-9.51788e-15
1.36946e-14
-5.45518e-15
4.92117e-15
5.4756e-16
1.85521e-15
2.70753e-15
1.19246e-15
-2.46716e-15
-7.98484e-15
1.22997e-15
6.55198e-15
-8.15647e-15
-2.38517e-15
8.44764e-16
-3.02629e-15
-6.46747e-15
-7.23114e-15
-1.09026e-14
-6.31905e-15
9.65893e-15
-9.45013e-15
-2.65588e-15
1.10511e-14
-1.51133e-14
-9.47127e-15
3.30525e-16
8.82516e-15
1.35737e-15
5.04473e-15
8.72681e-15
-5.64825e-15
-1.49378e-14
8.30158e-15
-4.53547e-15
-8.53801e-15
3.67532e-15
4.52692e-15
1.7194e-15
2.06824e-15
-1.00803e-15
-5.80409e-15
1.22687e-14
4.32688e-15
2.27372e-15
1.10654e-14
-3.41558e-15
-5.65759e-16
-7.01305e-15
3.05238e-15
9.83e-16
-1.56711e-15
1.7228e-14
-6.04476e-15
-1.08833e-14
3.63525e-16
-7.71973e-15
7.04979e-15
8.0727e-15
-6.87965e-16
-4.70358e-15
-2.9269e-14
9.92772e-16
-1.90634e-14
2.24271e-15
-1.04151e-17
7.27248e-15
-1.11471e-14
-5.56082e-15
4.18485e-15
-6.56978e-15
2.62134e-15
1.56685e-14
1.39546e-15
6.02799e-15
-2.81301e-15
1.44753e-15
1.12133e-14
1.13514e-14
1.88183e-14
4.67826e-16
1.57695e-14
-2.69231e-15
-2.00114e-14
9.03431e-15
2.78224e-15
-8.08872e-15
-1.02094e-14
-2.13555e-15
-3.62393e-15
-4.96948e-15
8.52716e-15
1.20878e-14
-3.8774e-15
-4.39183e-15
8.66773e-15
-3.89068e-15
-1.13324e-14
-6.65226e-17
1.61983e-14
6.34807e-15
1.07716e-14
-4.00646e-15
4.77291e-16
-1.04644e-14
-6.62887e-15
-1.13421e-14
4.89681e-15
1.15704e-14
-1.05157e-14
-9.23213e-16
8.04534e-15
2.19563e-15
-2.15444e-15
8.69299e-15
1.11644e-14
3.62922e-15
-7.36417e-16
-3.12228e-15
1.53093e-14
1.08865e-14
1.27149e-14
3.85941e-15
1.21367e-14
-4.79799e-15
-7.17121e-15
-7.87576e-15
5.24484e-15
1.10013e-14
-1.09775e-14
-4.63643e-15
-3.21805e-17
-1.73986e-15
-1.23808e-15
-4.27407e-15
-4.46774e-15
4.99537e-15
-3.4007e-15
-5.76581e-15
-9.70267e-15
-8.67494e-16
4.96416e-15
-1.88047e-15
2.03131e-14
-1.71835e-14
2.39132e-15
2.14004e-15
3.80274e-16
2.13666e-15
-6.44485e-15
7.90377e-15
3.15637e-15
1.41976e-16
-1.23134e-14
-4.83263e-15
-2.97371e-15
1.45437e-14
-6.69024e-16
9.59563e-15
-1.13848e-14
-2.30101e-15
-9.07653e-16
1.24912e-14
1.16133e-14
1.32529e-14
-2.21753e-15
2.20365e-14
3.19767e-15
-2.86544e-15
3.57357e-15
8.01676e-16
-3.63193e-15
-2.59989e-15
3.209e-15
-1.79803e-15
5.26407e-16
-6.44396e-15
-8.96002e-15
3.42407e-15
-1.69584e-14
-1.64689e-14
4.74236e-15
9.69597e-15
-6.24227e-15
1.85272e-14
7.75463e-15
6.99911e-15
1.06599e-14
5.36444e-15
2.04611e-14
6.06737e-15
2.23632e-15
-2.45938e-14
7.16097e-15
-4.95133e-15
8.95985e-15
-4.91402e-15
3.45822e-15
-4.79598e-15
4.85805e-15
-1.07115e-14
-5.85832e-15
9.53779e-16
-1.53551e-14
1.01216e-14
-4.73455e-15
-1.20717e-14
-3.41634e-15
-8.69868e-15
1.14046e-14
-1.64222e-14
5.39171e-15
-1.45518e-15
1.38005e-14
6.57444e-15
9.19727e-15
-2.30375e-14
1.43264e-15
-1.26251e-14
-1.58732e-15
-5.43972e-15
-1.1808e-15
-1.78249e-14
-1.43679e-15
4.71244e-15
2.10009e-15
-1.87647e-14
-3.12687e-15
-5.99743e-15
-4.61392e-15
-4.43693e-15
-1.39025e-15
5.28868e-15
5.69575e-15
1.16112e-14
1.59191e-15
1.07198e-14
3.12681e-15
1.57797e-15
1.0935e-14
-3.84043e-15
-1.89427e-14
-9.33121e-15
-7.74912e-15
-1.56369e-14
-1.33475e-14
-6.88105e-15
3.93186e-16
-1.01968e-14
-2.77092e-15
-8.0524e-15
9.08832e-16
2.5043e-14
-3.69867e-15
2.8778e-15
-3.7164e-15
2.65513e-15
6.54723e-16
8.05337e-15
-1.63284e-14
4.53064e-15
8.5801e-16
-7.7283e-15
8.02486e-15
3.85038e-15
2.98668e-15
1.20837e-14
-6.30572e-16
1.1768e-14
-9.75711e-15
6.79006e-15
-3.28673e-15
-6.99958e-15
-1.15102e-14
6.86354e-15
-4.82025e-15
1.05694e-14
1.70887e-15
-1.44869e-14
-2.08338e-15
1.58638e-14
-4.29965e-15
4.6196e-15
-1.07466e-14
3.1624e-15
8.27363e-15
1.75484e-14
-6.52635e-15
3.86101e-15
-2.65814e-15
-7.46666e-15
2.73994e-15
-1.31158e-14
-8.28222e-16
-1.61897e-14
-5.66615e-15
-1.63731e-15
2.07153e-15
1.39279e-14
-1.25703e-14
-1.22341e-15
2.23053e-14
9.51984e-16
-1.42605e-14
2.12048e-15
8.01307e-15
4.58818e-15
8.7983e-16
1.4576e-15
-1.12941e-15
6.20711e-15
-2.73078e-15
-1.16318e-14
-9.10779e-15
-2.46347e-15
9.74215e-15
5.05135e-15
6.13962e-15
-5.60207e-15
7.56795e-15
-2.4748e-15
1.57791e-14
1.37607e-14
-6.75344e-15
-2.12266e-14
-7.8326e-15
-5.36311e-15
4.33898e-16
1.01887e-14
-7.60622e-16
-1.64286e-14
6.53497e-15
-8.30727e-15
-2.21226e-15
-5.63563e-15
1.49515e-14
4.98771e-15
-2.42975e-15
2.66439e-14
-1.52432e-14
-7.37398e-15
-1.38503e-14
-9.67602e-15
1.50379e-15
1.56244e-15
-1.99565e-14
-1.51943e-14
-1.07116e-14
5.20525e-16
-1.73237e-14
3.39216e-14
-7.93701e-15
-4.36532e-15
-2.03224e-14
-1.07331e-14
7.09068e-17
-9.43353e-15
-7.9188e-15
-1.08931e-14
1.24982e-14
-9.78633e-15
-4.2491e-15
-1.45753e-14
2.09989e-14
-4.17093e-16
1.60291e-14
-1.96828e-14
9.61709e-15
2.98307e-15
-2.38199e-16
-1.15473e-14
5.30392e-15
5.81946e-15
1.16014e-14
-4.20345e-15
-1.91287e-14
-6.57243e-15
-1.72421e-15
6.62957e-15
7.55689e-17
9.97997e-15
2.31206e-15
-1.76534e-14
2.77447e-16
1.20529e-14
1.37083e-14
2.82088e-15
6.21172e-15
2.37711e-15
-2.98513e-15
1.23554e-14
-9.85702e-15
2.04967e-14
-5.53214e-15
2.27504e-14
-1.8315e-14
-5.88743e-15
-6.90203e-15
-1.95697e-14
-5.41971e-15
3.06504e-16
1.16208e-14
3.25784e-14
1.92348e-14
-1.2347e-14
1.4796e-14
1.80425e-14
-5.20699e-15
8.77987e-16
6.55032e-15
-1.46275e-14
1.61947e-15
2.16578e-14
1.53154e-15
2.2412e-14
2.08644e-15
-3.45123e-15
1.81476e-14
-1.15218e-14
-2.90479e-15
-4.20974e-15
1.92771e-16
1.38524e-14
6.34302e-15
-3.73941e-15
-2.335e-14
2.1542e-14
-9.3649e-15
-9.09385e-15
1.15249e-14
1.48785e-14
1.26498e-14
2.30556e-14
1.04875e-14
3.15464e-14
1.19191e-14
-2.31096e-14
-8.179e-15
-9.69992e-15
-9.75869e-15
-2.12458e-14
-4.99275e-15
3.23801e-14
2.18814e-15
1.26943e-14
-3.57288e-15
-1.19837e-14
-1.83404e-14
-2.38813e-14
-3.00194e-15
9.59302e-15
2.57346e-15
-1.44541e-14
7.13687e-15
-3.58676e-14
-4.85549e-15
-1.03613e-14
1.82168e-15
1.93075e-15
1.96796e-14
-2.54788e-16
8.9618e-15
-1.66447e-14
1.20693e-15
4.86373e-15
-3.37751e-15
-2.18874e-14
9.48438e-15
2.85147e-14
3.21249e-15
-3.0735e-15
-3.23049e-15
-1.98405e-14
2.38212e-14
7.06163e-15
2.33407e-15
1.75346e-14
-1.75294e-14
1.59612e-14
1.96054e-14
2.22543e-14
-3.40743e-15
-7.32704e-15
-1.91431e-14
7.78023e-15
2.79551e-14
-4.15249e-15
1.51454e-14
-1.38257e-15
4.41747e-15
-1.50661e-15
1.72605e-15
-3.23539e-14
-1.62726e-14
-3.67258e-14
1.02665e-14
1.05935e-14
-6.94323e-16
1.9719e-14
1.90781e-14
1.78971e-14
-7.84182e-15
-7.41204e-15
-1.10393e-14
-8.15407e-15
-1.37954e-15
1.29905e-14
8.88178e-15
3.6385e-14
1.91639e-14
-1.62166e-14
-3.01044e-14
-1.25546e-14
-1.1571e-14
2.56501e-14
4.60439e-15
1.25342e-14
-4.12517e-15
-7.01479e-15
5.18249e-15
-1.21431e-16
-5.80308e-15
-1.16599e-14
-5.67862e-15
7.7334e-15
9.1949e-15
2.56969e-14
-1.29992e-14
-1.51454e-14
-4.64125e-15
8.93079e-15
-3.47508e-15
-3.8745e-15
-2.06276e-14
-2.9329e-14
-4.62564e-15
-7.76549e-15
2.41925e-14
-2.56522e-14
-2.59905e-14
-1.58042e-14
2.37397e-15
-6.12271e-15
8.78377e-15
-2.02173e-14
2.94036e-15
5.48953e-15
-1.63749e-14
1.7015e-14
-6.67608e-15
1.10797e-14
-1.07258e-14
2.14308e-14
5.02029e-15
4.54949e-14
-2.09008e-14
2.37284e-14
1.09617e-14
-9.822e-15
-1.45274e-14
-2.3175e-14
8.6953e-15
-5.16254e-15
-9.44123e-15
-1.53419e-14
1.34441e-16
-5.07927e-15
-1.26401e-14
-1.42239e-14
2.89786e-15
1.95009e-14
5.45024e-14
1.455e-14
4.77309e-15
-1.48302e-14
-2.29703e-14
-6.63445e-15
2.7426e-15
3.23266e-15
-1.18733e-14
6.48613e-15
-1.77289e-15
-6.34388e-15
1.08177e-14
-4.82774e-15
5.40019e-15
-3.76262e-15
1.96093e-14
3.27516e-15
-2.2678e-14
5.13912e-15
3.81466e-15
1.59421e-15
1.53402e-14
3.21444e-15
1.93977e-14
-1.24536e-14
-1.71911e-15
2.69958e-14
2.10457e-14
-2.27249e-15
-1.79336e-14
-8.14453e-15
2.23085e-15
6.51909e-15
-5.64479e-15
-1.39957e-14
1.88113e-14
-2.20449e-14
-1.42386e-14
-1.73628e-14
-9.92262e-16
-8.01442e-16
6.37511e-15
-3.76487e-14
7.97626e-15
-2.77573e-14
-1.55986e-14
1.73472e-15
-5.8252e-15
1.14284e-14
-2.47025e-15
-7.78891e-16
1.70766e-14
8.66321e-15
2.70617e-16
6.81746e-15
4.26569e-15
-9.58782e-15
-2.70218e-14
-1.90212e-14
-3.96037e-14
-1.69691e-14
-5.30305e-15
-2.9178e-15
3.22433e-14
2.72525e-15
-1.21431e-15
-2.38698e-14
6.14959e-15
-2.58786e-14
2.31759e-14
2.91434e-15
3.43649e-15
-7.52697e-15
-1.72189e-14
-9.41781e-15
-2.1684e-15
8.33882e-15
3.07775e-14
3.74527e-15
4.48079e-15
1.49498e-14
-1.18655e-15
1.99736e-14
-2.87548e-14
2.64823e-14
-1.13139e-14
7.82707e-15
-4.69416e-15
2.62707e-14
-5.92582e-15
2.96915e-14
-1.67297e-14
4.11476e-15
-1.27086e-14
2.08167e-16
3.25781e-15
1.20667e-14
-7.42462e-16
9.79772e-15
-2.95944e-15
-1.23894e-14
4.04191e-15
2.16112e-14
5.91194e-15
1.75901e-14
8.76035e-15
2.83107e-15
3.22138e-14
1.04604e-14
1.15533e-15
-5.64826e-15
-1.61746e-14
4.60049e-15
1.25941e-15
-2.11983e-15
5.73153e-15
1.2667e-14
2.52298e-14
-1.43635e-15
2.13718e-14
2.13579e-14
1.80411e-16
6.84175e-15
1.39819e-15
1.20043e-14
1.62891e-14
6.47052e-15
1.64486e-14
-2.00881e-15
-8.20177e-15
-1.57721e-14
-2.158e-15
-2.63678e-15
1.41796e-14
1.13277e-14
-6.25888e-15
-1.38778e-14
-3.31922e-14
2.87964e-16
-4.16334e-17
-6.99441e-15
6.93889e-16
-1.03806e-14
9.04832e-15
-2.42792e-14
-4.04538e-15
-1.2379e-14
-9.00668e-15
-2.86784e-14
3.18426e-14
-1.10259e-14
1.17961e-14
-2.04767e-14
6.88338e-15
5.75928e-16
-8.97893e-15
4.48946e-15
1.89293e-14
7.67442e-15
2.24543e-14
2.24959e-14
-3.19883e-15
-1.86101e-14
-1.54807e-14
-1.51962e-15
1.05124e-14
-1.37668e-14
-2.11706e-14
3.19189e-15
-2.76168e-14
5.7801e-15
-8.95117e-15
-2.09624e-14
4.33681e-15
-6.52256e-15
-7.36217e-15
-1.59595e-14
3.33067e-15
1.00822e-14
-1.04708e-14
-1.64244e-14
-2.71311e-15
-5.47479e-15
-2.59515e-14
-2.18922e-14
-3.08503e-14
1.47174e-14
-8.54178e-15
2.59653e-14
4.57967e-15
4.44783e-15
5.25274e-15
2.05391e-14
4.22579e-15
-8.16014e-15
-1.26635e-14
-3.1225e-15
2.6916e-14
-6.66134e-16
1.09704e-14
1.16712e-14
-1.50296e-14
-1.49603e-14
-1.2032e-14
8.88178e-16
2.73392e-15
-8.29892e-15
2.36061e-14
2.19269e-14
-1.72223e-14
-2.81858e-14
-1.31561e-14
1.74027e-14
1.36141e-14
-6.23113e-15
1.88738e-15
5.07927e-15
-8.29892e-15
3.48332e-15
-1.60011e-14
-2.2829e-14
2.20657e-15
6.10623e-15
2.96013e-14
-1.60011e-14
-1.0561e-14
-4.95437e-15
1.32533e-14
-8.60423e-15
4.02733e-14
3.13638e-15
2.77556e-15
9.76996e-15
3.3723e-15
2.16771e-14
-1.81799e-15
-8.40994e-15
1.01169e-14
-1.40443e-14
-6.7446e-15
1.26704e-14
-3.09475e-15
-3.63598e-15
3.02536e-14
9.67282e-15
2.40502e-14
4.996e-16
-1.2379e-14
-1.87489e-14
-7.06379e-15
-1.89154e-14
-1.27953e-14
-1.32949e-14
-2.92821e-15
2.20657e-15
1.57513e-14
5.59275e-15
-4.38538e-15
1.45023e-14
-1.52517e-14
-1.71252e-14
1.34615e-15
-6.91114e-15
1.45162e-14
2.33702e-14
4.52416e-15
2.24265e-14
-2.38698e-14
-1.90126e-14
1.20182e-14
1.77913e-14
1.30451e-14
-1.94011e-14
-3.19605e-14
2.79915e-14
-9.58955e-15
-3.52496e-15
3.33067e-15
-2.28706e-14
1.23096e-14
-5.78704e-15
7.84095e-15
1.30868e-14
6.45317e-15
2.66454e-14
-7.00828e-15
3.31679e-15
-1.31006e-14
1.9526e-14
-2.3509e-14
-1.52656e-15
6.18949e-15
1.81244e-14
-6.245e-16
-3.74284e-14
1.13798e-15
6.7446e-15
-1.78746e-14
1.29341e-14
4.27436e-15
-1.25316e-14
3.63598e-15
1.83603e-14
-4.16334e-15
2.05669e-14
-1.02696e-14
-1.03528e-14
1.62093e-14
1.10467e-14
2.27734e-14
2.80193e-14
2.5091e-14
1.58623e-14
7.66054e-15
-7.82707e-15
-2.02754e-14
-1.04916e-14
1.19627e-14
-2.95736e-14
7.02216e-15
1.46272e-14
2.34257e-14
2.0095e-14
7.21645e-16
-1.80411e-15
-6.05072e-15
-1.73472e-14
1.89015e-14
2.3509e-14
-1.70974e-14
5.71765e-15
-4.96825e-15
6.02296e-15
4.39371e-14
-4.17721e-14
1.95399e-14
-6.60583e-15
-1.95677e-14
2.55906e-14
4.69069e-15
4.25493e-14
-1.17129e-14
-3.14748e-14
-1.87628e-14
-1.91513e-14
2.03171e-14
9.04832e-15
1.03806e-14
-6.03684e-14
1.31284e-14
-2.52576e-15
-1.09079e-14
-1.9762e-14
-1.10467e-14
4.48808e-14
9.27036e-15
-1.27121e-14
1.25733e-14
-2.57849e-14
-8.21565e-15
9.35363e-15
-2.72005e-15
-2.45914e-14
-2.65343e-14
-3.28071e-14
-2.05391e-15
1.08247e-14
-1.1019e-14
-9.04832e-15
-1.06304e-14
1.5099e-14
-1.66533e-14
-4.46865e-15
1.64591e-14
-8.49321e-15
2.8838e-14
1.03251e-14
-1.19071e-14
2.7589e-14
4.19109e-15
-8.32667e-15
-4.46865e-15
-5.68989e-15
-1.43496e-14
-2.35367e-14
-2.2482e-15
4.81282e-14
1.67921e-14
-6.38378e-15
3.2141e-14
-2.89213e-14
1.16018e-14
1.19349e-14
-3.35287e-14
3.18079e-14
-2.69229e-14
2.67286e-14
5.96745e-15
-5.30131e-15
-1.34615e-14
-3.81639e-14
-1.15186e-14
5.27911e-14
2.20934e-14
3.14748e-14
-3.05311e-14
-7.96585e-15
9.15934e-15
3.63043e-14
1.21847e-14
-7.07767e-15
9.99201e-15
3.22797e-14
2.41751e-14
-4.42979e-14
-2.04559e-14
2.18159e-14
1.36002e-14
3.36953e-14
-9.15934e-16
7.43849e-15
7.24421e-15
9.99201e-15
3.14471e-14
1.07414e-14
-1.17684e-14
2.27041e-14
1.31839e-14
-6.18949e-15
5.27356e-15
-3.48055e-14
-6.93889e-15
-2.21767e-14
-1.18794e-14
-7.18869e-15
-9.79772e-15
-1.4877e-14
2.20379e-14
-3.10307e-14
2.33147e-15
1.4988e-15
-7.43849e-15
-2.16493e-15
3.96905e-14
1.28231e-14
6.88338e-15
-3.69149e-14
-3.51386e-14
6.43929e-15
-1.55986e-14
3.11973e-14
9.38138e-15
6.66134e-15
1.08802e-14
-3.9857e-14
1.06026e-14
-6.25056e-14
8.9373e-15
-2.74225e-14
2.11497e-14
8.27116e-15
1.9984e-15
-5.21805e-14
9.04832e-15
-5.34572e-14
6.93889e-15
2.39253e-14
-1.02696e-14
-1.55431e-14
-1.40998e-14
9.71445e-15
-8.16014e-15
2.83107e-15
-5.08482e-14
3.63598e-14
-1.60982e-15
-9.4369e-15
-2.90878e-14
-4.04676e-14
1.12133e-14
-2.56462e-14
-2.40918e-14
1.04916e-14
-7.71605e-15
-7.60503e-15
3.11418e-14
-4.69069e-14
-1.66533e-14
1.77636e-14
-2.30926e-14
2.44249e-14
1.2379e-14
3.41949e-14
1.84297e-14
1.76525e-14
-1.64868e-14
2.69784e-14
-4.15779e-14
3.66374e-15
7.77156e-15
-1.249e-14
-1.51545e-14
-1.66533e-16
-4.17999e-14
-2.2482e-14
-9.10383e-15
-1.77636e-15
1.83187e-14
4.27436e-15
-9.4369e-15
-7.16094e-15
-3.10862e-15
-8.82627e-15
-1.80411e-14
3.39173e-14
-1.4877e-14
3.44169e-14
-2.33147e-15
2.07612e-14
-1.44329e-14
1.52656e-14
1.39333e-14
2.9754e-14
-3.50275e-14
3.58047e-14
2.77556e-16
-2.22045e-16
-2.02061e-14
2.60902e-14
8.88178e-16
-1.7597e-14
2.14828e-14
-4.27436e-14
3.27516e-14
-2.30371e-14
4.724e-14
2.16493e-15
2.39253e-14
1.2379e-14
1.18239e-14
2.04281e-14
1.08247e-14
-2.65343e-14
2.05391e-15
1.26565e-14
-3.71925e-15
3.15858e-14
1.69864e-14
-1.36557e-14
5.86198e-14
-2.10942e-15
-2.22045e-15
-2.80331e-14
-4.61298e-14
-3.17524e-14
1.76525e-14
-3.81362e-14
2.13718e-14
1.47105e-14
-2.38143e-14
2.9754e-14
-4.71845e-15
1.66533e-16
2.09832e-14
1.9873e-14
4.996e-16
3.38618e-15
-1.18239e-14
-1.42664e-14
3.76366e-14
-3.44169e-15
-4.88498e-15
1.09912e-14
1.30451e-14
-1.11022e-14
1.83742e-14
2.04836e-14
-1.36557e-14
6.38378e-15
6.10623e-16
-6.55032e-15
-4.05231e-15
6.93889e-15
2.91434e-14
-1.9873e-14
1.74305e-14
-9.4369e-16
2.33702e-14
-3.10307e-14
-2.10387e-14
1.18794e-14
-5.37348e-14
4.39093e-14
-1.05471e-15
-6.71685e-15
-6.35603e-14
-8.77076e-15
-2.77556e-16
2.77556e-15
-4.60743e-14
-9.04832e-15
2.7145e-14
1.92069e-14
-6.4948e-15
0
-2.7367e-14
-1.74305e-14
-9.60343e-15
-5.93969e-15
-5.68989e-14
-8.32667e-15
-3.33067e-16
-8.32667e-16
5.20695e-14
5.52891e-14
-1.98175e-14
2.64233e-14
1.07692e-14
-2.18714e-14
1.9984e-15
-2.04281e-14
2.25375e-14
6.77236e-15
-4.10783e-15
5.21805e-15
2.06501e-14
9.88098e-15
2.85327e-14
4.88498e-15
-5.01821e-14
-7.88258e-15
-2.63123e-14
5.21805e-15
2.36478e-14
3.25295e-14
-4.21885e-15
-3.30846e-14
-3.10862e-15
1.42109e-14
-1.5099e-14
-2.93099e-14
-1.64313e-14
-1.76525e-14
-2.04281e-14
1.31006e-14
-1.62093e-14
-4.44089e-15
-4.07452e-14
2.29816e-14
3.9746e-14
-8.77076e-15
3.83027e-14
-1.43219e-14
-2.54241e-14
3.09752e-14
3.13083e-14
2.60902e-14
-1.53211e-14
-4.10783e-15
5.34017e-14
2.9976e-15
-1.95399e-14
-4.996e-15
1.77636e-15
-1.60982e-14
1.28786e-14
-5.21805e-15
-5.9952e-15
2.23155e-14
8.43769e-15
-1.11022e-15
4.77396e-15
-5.55112e-16
-1.14353e-14
-2.56462e-14
2.36478e-14
-2.43139e-14
-1.28786e-14
-1.21014e-14
1.22125e-14
-6.43929e-15
7.54952e-15
-1.65423e-14
-3.33067e-15
4.44089e-16
-1.56541e-14
6.77236e-15
-1.78746e-14
-9.99201e-15
2.54241e-14
-6.66134e-16
2.30926e-14
-1.66533e-15
-7.77156e-15
-4.82947e-14
-2.65343e-14
1.33227e-14
1.27676e-14
-2.76446e-14
2.28706e-14
2.9643e-14
2.18714e-14
8.99281e-15
1.80966e-14
1.25455e-14
2.66454e-15
2.44249e-15
4.71845e-14
4.44089e-16
-2.56462e-14
1.66533e-14
-2.4647e-14
-2.89768e-14
2.91989e-14
-6.21725e-15
-3.10862e-15
-3.43059e-14
-7.10543e-15
1.24345e-14
-2.18714e-14
-3.9968e-15
-9.99201e-15
-3.21965e-15
-1.15463e-14
2.17604e-14
-6.21725e-15
1.05471e-14
7.66054e-15
-2.36478e-14
2.57572e-14
-2.33147e-15
-8.54872e-15
9.99201e-15
-2.10942e-15
-5.88418e-15
-1.93179e-14
2.66454e-14
1.05471e-14
2.05391e-14
-5.77316e-15
7.77156e-16
-1.38778e-14
3.30846e-14
1.11022e-15
6.43929e-15
2.5091e-14
-2.14273e-14
8.77076e-15
-1.02141e-14
-1.04361e-14
-2.33147e-15
5.55112e-15
-7.66054e-15
-3.77476e-15
2.83107e-14
2.9976e-14
1.79856e-14
-4.21885e-15
5.44009e-15
-2.53131e-14
-1.46549e-14
-1.82077e-14
-6.88338e-15
9.32587e-15
-1.96509e-14
4.40759e-14
-7.77156e-15
-3.71925e-14
1.83187e-14
9.88098e-15
-1.27676e-14
-7.43849e-15
1.31006e-14
-4.32987e-15
-3.65263e-14
-3.21965e-15
5.19584e-14
1.33227e-14
-2.81997e-14
6.10623e-15
-1.66533e-15
2.02061e-14
3.64153e-14
4.32987e-15
-9.4369e-15
-7.54952e-15
4.88498e-15
-3.33067e-15
3.87468e-14
-6.32827e-15
4.55191e-15
-2.9976e-15
1.66533e-14
-1.33227e-15
7.66054e-15
3.17524e-14
-1.60982e-14
2.55351e-15
5.9952e-15
-6.55032e-15
-1.26565e-14
-3.10862e-15
-8.65974e-15
9.88098e-15
-2.83107e-14
-2.29816e-14
1.67644e-14
-2.22045e-14
1.66533e-15
2.86438e-14
1.11022e-15
-1.02141e-14
-1.29896e-14
-3.9968e-15
-8.43769e-15
-3.10862e-15
-1.22125e-14
2.22045e-15
2.10942e-15
3.88578e-14
-1.25455e-14
2.498e-14
1.13243e-14
-1.28786e-14
1.96509e-14
-7.06102e-14
2.17604e-14
2.9976e-15
-2.53131e-14
-7.21645e-15
2.22045e-15
-7.54952e-15
2.85327e-14
-2.65343e-14
1.82077e-14
1.88738e-15
-3.86358e-14
-9.76996e-15
2.86438e-14
-2.44249e-15
-2.27596e-14
5.32907e-15
-4.51861e-14
2.33147e-14
2.9976e-15
2.57572e-14
1.66533e-15
6.55032e-15
-3.66374e-15
-8.65974e-15
6.77236e-15
-2.10942e-14
-2.39808e-14
-2.44249e-15
-2.9976e-15
-1.75415e-14
-1.31006e-14
-1.08802e-14
-1.09912e-14
6.66134e-16
1.66533e-14
1.75415e-14
5.55112e-15
-2.44249e-15
1.19904e-14
-4.88498e-15
5.9952e-15
4.13003e-14
2.22045e-16
-9.54792e-15
1.77636e-14
-8.21565e-15
8.65974e-15
1.06581e-14
2.57572e-14
-1.22125e-14
-1.55431e-15
-2.39808e-14
2.10942e-14
-1.26565e-14
-6.66134e-16
-5.32907e-15
-5.32907e-15
1.9984e-15
-3.19744e-14
4.26326e-14
-3.59712e-14
-2.88658e-15
-7.99361e-15
2.81997e-14
2.66454e-15
1.93179e-14
-1.39888e-14
1.46549e-14
-6.43929e-15
1.59872e-14
-7.32747e-15
-2.66454e-15
-6.43929e-15
-1.59872e-14
3.88578e-14
-2.62013e-14
2.04281e-14
-3.15303e-14
-1.90958e-14
-2.15383e-14
-1.22125e-14
-1.62093e-14
-1.62093e-14
-6.88338e-15
-2.13163e-14
1.46549e-14
1.37668e-14
9.32587e-15
-1.08802e-14
7.10543e-15
2.37588e-14
2.22045e-15
1.19904e-14
1.11022e-14
-2.66454e-15
-3.77476e-15
-3.9746e-14
-7.77156e-15
6.88338e-15
9.32587e-15
5.77316e-15
-4.57412e-14
1.77636e-14
-2.64233e-14
-1.90958e-14
1.4877e-14
-4.66294e-15
6.88338e-15
-2.24265e-14
1.4877e-14
5.77316e-15
6.88338e-15
-1.28786e-14
5.32907e-15
2.77556e-14
-3.33067e-15
5.55112e-15
-1.11022e-14
1.44329e-14
6.66134e-16
2.68674e-14
-2.88658e-15
9.54792e-15
-1.64313e-14
-6.21725e-15
-1.46549e-14
1.9984e-15
-6.66134e-15
-5.32907e-15
2.66454e-15
6.21725e-15
1.93179e-14
5.9952e-15
4.66294e-15
-3.88578e-14
1.28786e-14
9.32587e-15
2.15383e-14
1.77636e-14
5.55112e-15
-1.17684e-14
1.17684e-14
3.9968e-15
2.77556e-14
2.06501e-14
7.10543e-15
8.65974e-15
-4.88498e-15
1.33227e-14
2.22045e-15
-1.17684e-14
-3.55271e-15
-1.19904e-14
-1.17684e-14
2.22045e-16
-1.68754e-14
1.95399e-14
-1.02141e-14
-1.59872e-14
-8.43769e-15
-2.06501e-14
3.30846e-14
-1.66533e-14
3.26406e-14
-3.15303e-14
-3.37508e-14
-1.55431e-15
-1.77636e-15
-4.21885e-15
-5.32907e-15
1.42109e-14
1.26565e-14
-7.99361e-15
3.77476e-15
-2.26485e-14
-1.62093e-14
-2.10942e-14
1.33227e-14
-1.37668e-14
-1.73195e-14
-2.24265e-14
-3.33067e-15
-1.55431e-15
-5.32907e-15
4.21885e-15
-4.44089e-15
-1.42109e-14
3.33067e-14
1.24345e-14
-1.86517e-14
1.11022e-14
-1.88738e-14
-8.65974e-15
4.21885e-15
3.5083e-14
1.11022e-15
-7.77156e-15
2.44249e-15
-7.10543e-15
1.42109e-14
1.24345e-14
-9.10383e-15
1.13243e-14
-1.55431e-14
-1.66533e-14
-5.77316e-15
-8.43769e-15
0
-1.57652e-14
-1.46549e-14
-6.66134e-15
3.77476e-15
9.10383e-15
1.66533e-14
1.4877e-14
3.55271e-15
-1.66533e-14
4.15223e-14
-1.31006e-14
3.33067e-14
1.9762e-14
-9.99201e-15
-1.02141e-14
1.68754e-14
1.9984e-14
3.55271e-14
-7.32747e-15
5.32907e-15
3.10862e-14
-9.32587e-15
-7.32747e-15
-1.75415e-14
4.21885e-15
1.33227e-15
-6.66134e-15
7.99361e-15
9.32587e-15
-2.66454e-15
4.41869e-14
1.68754e-14
2.30926e-14
8.43769e-15
2.22045e-14
-4.88498e-15
-3.33067e-15
3.33067e-15
4.44089e-15
-3.84137e-14
5.77316e-15
4.66294e-15
-1.46549e-14
1.17684e-14
-5.9952e-15
3.9968e-15
-9.54792e-15
7.10543e-15
4.44089e-15
-1.95399e-14
6.66134e-15
-6.21725e-15
-3.9968e-15
1.70974e-14
-4.66294e-15
-7.32747e-15
2.44249e-15
-4.44089e-15
2.22045e-14
-4.44089e-15
-8.88178e-16
1.84297e-14
7.54952e-15
-1.75415e-14
9.99201e-15
-2.44249e-14
-2.06501e-14
7.77156e-15
4.86278e-14
-1.86517e-14
1.59872e-14
-3.64153e-14
-2.24265e-14
-5.10703e-15
1.04361e-14
-2.44249e-14
1.4877e-14
-1.35447e-14
1.37668e-14
3.33067e-15
-1.22125e-14
3.90799e-14
-3.9968e-15
1.9984e-15
1.4877e-14
-7.54952e-15
1.33227e-15
1.31006e-14
-2.88658e-15
-1.64313e-14
-1.88738e-14
8.88178e-16
-1.33227e-15
-1.39888e-14
1.33227e-15
-1.5099e-14
1.17684e-14
7.77156e-15
6.66134e-16
3.06422e-14
-4.44089e-16
1.13243e-14
7.32747e-15
-1.77636e-15
1.4877e-14
8.88178e-16
-6.66134e-15
-1.08802e-14
-1.11022e-14
1.75415e-14
-2.22045e-15
2.88658e-15
7.32747e-15
-2.39808e-14
-8.65974e-15
6.88338e-15
-1.55431e-15
1.33227e-14
-3.10862e-14
9.54792e-15
1.79856e-14
-8.43769e-15
-5.32907e-15
1.86517e-14
-1.77636e-14
1.33227e-15
-9.76996e-15
-2.88658e-15
-4.81837e-14
-7.77156e-15
-1.77636e-15
3.26406e-14
1.19904e-14
-7.54952e-15
1.19904e-14
-4.21885e-15
-1.9984e-15
4.44089e-16
-2.22045e-16
4.66294e-15
-1.06581e-14
-5.77316e-15
-1.46549e-14
-1.77636e-15
-2.35367e-14
4.44089e-15
1.37668e-14
-2.06501e-14
1.62093e-14
7.77156e-15
5.77316e-15
-4.06342e-14
-2.4647e-14
1.24345e-14
-2.64233e-14
7.77156e-15
-9.99201e-15
-9.54792e-15
4.66294e-15
-1.77636e-15
1.33227e-15
-1.62093e-14
-1.06581e-14
1.33227e-15
-1.17684e-14
-1.44329e-14
7.54952e-15
-1.77636e-15
2.06501e-14
-2.30926e-14
2.26485e-14
-1.46549e-14
-1.55431e-14
8.65974e-15
-5.10703e-15
3.10862e-15
6.88338e-15
-8.88178e-16
-1.70974e-14
-4.44089e-15
-1.02141e-14
1.66533e-14
-1.79856e-14
-1.9984e-14
2.93099e-14
1.42109e-14
2.26485e-14
8.88178e-15
2.35367e-14
1.95399e-14
-1.82077e-14
-1.15463e-14
8.88178e-16
1.77636e-15
6.66134e-15
1.33227e-15
-2.57572e-14
1.37668e-14
-5.77316e-15
-4.88498e-15
-2.22045e-15
-2.66454e-14
2.93099e-14
1.42109e-14
1.73195e-14
-1.42109e-14
-1.90958e-14
8.43769e-15
-1.15463e-14
5.32907e-15
-1.15463e-14
4.84057e-14
9.76996e-15
6.21725e-15
2.17604e-14
1.86517e-14
-3.55271e-15
5.77316e-15
-2.4869e-14
-5.32907e-15
-1.86517e-14
1.5099e-14
9.76996e-15
-1.11022e-14
-1.86517e-14
1.77636e-15
-8.43769e-15
-3.10862e-15
9.32587e-15
2.66454e-14
-1.64313e-14
6.66134e-15
-5.32907e-15
-1.55431e-14
3.10862e-14
-1.06581e-14
-5.77316e-15
-2.22045e-15
2.44249e-14
-2.30926e-14
2.22045e-15
-2.26485e-14
2.35367e-14
2.44249e-14
-2.4869e-14
3.10862e-15
-1.02141e-14
-1.02141e-14
6.21725e-15
-2.35367e-14
3.15303e-14
-7.10543e-15
-1.77636e-15
4.44089e-15
-2.08722e-14
-4.44089e-16
1.02141e-14
4.44089e-16
3.28626e-14
1.55431e-14
2.08722e-14
1.46549e-14
-1.33227e-14
-2.08722e-14
-9.32587e-15
1.90958e-14
7.54952e-15
-5.32907e-15
-1.82077e-14
-4.44089e-15
1.5099e-14
-9.76996e-15
2.66454e-15
-1.59872e-14
-7.99361e-15
-9.32587e-15
-2.66454e-15
-7.99361e-15
2.22045e-14
3.10862e-15
2.57572e-14
-1.46549e-14
1.46549e-14
7.10543e-15
4.66294e-14
4.44089e-15
1.64313e-14
-1.33227e-14
-3.06422e-14
-1.82077e-14
1.11022e-14
2.22045e-15
2.57572e-14
-3.55271e-15
-2.88658e-14
6.21725e-15
5.32907e-15
-7.54952e-15
9.76996e-15
3.37508e-14
5.32907e-15
1.06581e-14
-1.77636e-15
-1.68754e-14
1.77636e-15
4.44089e-16
-5.77316e-15
-5.77316e-15
-6.21725e-15
3.55271e-15
-9.76996e-15
-2.26485e-14
-8.88178e-16
-4.44089e-16
-1.33227e-15
6.66134e-15
1.28786e-14
-8.88178e-15
-3.41949e-14
-1.19904e-14
-2.04281e-14
-4.88498e-15
-6.66134e-15
1.73195e-14
1.82077e-14
-1.06581e-14
8.43769e-15
3.55271e-15
1.55431e-14
6.66134e-15
-2.66454e-15
2.04281e-14
-1.82077e-14
1.06581e-14
-3.55271e-15
1.77636e-14
-1.15463e-14
3.55271e-15
-1.37668e-14
2.22045e-15
-1.73195e-14
1.24345e-14
1.77636e-15
-9.32587e-15
-1.37668e-14
3.10862e-15
-1.46549e-14
1.11022e-14
1.59872e-14
3.55271e-15
-8.88178e-16
2.22045e-15
-3.01981e-14
1.9984e-14
1.55431e-14
-1.02141e-14
-5.77316e-15
8.88178e-16
-7.10543e-15
-1.06581e-14
-3.19744e-14
-4.44089e-15
3.9968e-15
-1.42109e-14
-1.37668e-14
1.55431e-14
-8.88178e-16
-4.44089e-15
-1.06581e-14
-7.99361e-15
5.32907e-15
2.13163e-14
-9.76996e-15
1.33227e-15
3.55271e-15
-3.4639e-14