/*--------------------------------*- C++ -*----------------------------------*\
| =========                 |                                                 |
| \\      /  F ield         | foam-extend: Open Source CFD                    |
|  \\    /   O peration     | Version:     4.0                                |
|   \\  /    A nd           | Web:         http://www.foam-extend.org         |
|    \\/     M anipulation  |                                                 |
\*---------------------------------------------------------------------------*/
FoamFile
{
    version     2.0;
    format      ascii;
    class       volScalarField;
    location    "840";
    object      cPlus;
}
// * * * * * * * * * * * * * * * * * * * * * * * * * * * * * * * * * * * * * //

dimensions      [0 0 0 0 0 0 0];

internalField   nonuniform List<scalar> 
6960
(
0.219607
0.219545
0.219527
0.219523
0.219522
0.219522
0.219523
0.219524
0.219525
0.219525
0.219526
0.219527
0.219528
0.219528
0.219529
0.219529
0.21953
0.21953
0.21953
0.219531
0.219531
0.219531
0.219532
0.219532
0.219532
0.219532
0.219532
0.219533
0.219533
0.219533
0.219533
0.219533
0.219533
0.219532
0.219532
0.219532
0.219532
0.219532
0.219531
0.219531
0.219531
0.21953
0.21953
0.21953
0.219529
0.219529
0.219528
0.219528
0.219527
0.219526
0.219525
0.219525
0.219524
0.219523
0.219522
0.219522
0.219523
0.219527
0.219545
0.219607
0.0748753
0.0748723
0.074871
0.074871
0.0748714
0.0748718
0.0748723
0.0748727
0.0748732
0.0748735
0.0748739
0.0748743
0.0748746
0.0748749
0.0748751
0.0748754
0.0748756
0.0748758
0.074876
0.0748762
0.0748764
0.0748765
0.0748766
0.0748767
0.0748768
0.0748769
0.074877
0.074877
0.074877
0.074877
0.074877
0.074877
0.074877
0.074877
0.0748769
0.0748768
0.0748767
0.0748766
0.0748765
0.0748764
0.0748762
0.074876
0.0748758
0.0748756
0.0748754
0.0748751
0.0748749
0.0748746
0.0748743
0.0748739
0.0748735
0.0748732
0.0748727
0.0748723
0.0748718
0.0748714
0.074871
0.074871
0.0748723
0.0748753
0.0533409
0.0533602
0.0533653
0.053367
0.0533677
0.0533682
0.0533686
0.0533689
0.0533692
0.0533694
0.0533696
0.0533699
0.0533701
0.0533702
0.0533704
0.0533705
0.0533707
0.0533708
0.0533709
0.053371
0.0533711
0.0533712
0.0533713
0.0533713
0.0533714
0.0533714
0.0533715
0.0533715
0.0533715
0.0533715
0.0533715
0.0533715
0.0533715
0.0533715
0.0533714
0.0533714
0.0533713
0.0533713
0.0533712
0.0533711
0.053371
0.0533709
0.0533708
0.0533707
0.0533705
0.0533704
0.0533702
0.0533701
0.0533699
0.0533696
0.0533694
0.0533692
0.0533689
0.0533686
0.0533682
0.0533677
0.053367
0.0533653
0.0533602
0.0533409
0.0512057
0.0512325
0.0512396
0.0512419
0.0512428
0.0512433
0.0512437
0.051244
0.0512442
0.0512445
0.0512447
0.0512449
0.051245
0.0512452
0.0512453
0.0512454
0.0512456
0.0512457
0.0512458
0.0512458
0.0512459
0.051246
0.051246
0.0512461
0.0512461
0.0512462
0.0512462
0.0512462
0.0512462
0.0512463
0.0512463
0.0512462
0.0512462
0.0512462
0.0512462
0.0512461
0.0512461
0.051246
0.051246
0.0512459
0.0512458
0.0512458
0.0512457
0.0512456
0.0512454
0.0512453
0.0512452
0.051245
0.0512449
0.0512447
0.0512445
0.0512442
0.051244
0.0512437
0.0512433
0.0512428
0.0512419
0.0512396
0.0512325
0.0512057
0.0526809
0.0527113
0.0527194
0.052722
0.052723
0.0527236
0.052724
0.0527243
0.0527245
0.0527248
0.052725
0.0527252
0.0527254
0.0527255
0.0527257
0.0527258
0.0527259
0.052726
0.0527261
0.0527262
0.0527263
0.0527264
0.0527264
0.0527265
0.0527265
0.0527266
0.0527266
0.0527266
0.0527266
0.0527266
0.0527266
0.0527266
0.0527266
0.0527266
0.0527266
0.0527265
0.0527265
0.0527264
0.0527264
0.0527263
0.0527262
0.0527261
0.052726
0.0527259
0.0527258
0.0527257
0.0527255
0.0527254
0.0527252
0.052725
0.0527248
0.0527245
0.0527243
0.052724
0.0527236
0.052723
0.052722
0.0527194
0.0527113
0.0526809
0.0551442
0.0551776
0.0551866
0.0551895
0.0551906
0.0551912
0.0551916
0.055192
0.0551923
0.0551925
0.0551928
0.055193
0.0551932
0.0551933
0.0551935
0.0551936
0.0551938
0.0551939
0.055194
0.0551941
0.0551942
0.0551943
0.0551943
0.0551944
0.0551945
0.0551945
0.0551945
0.0551946
0.0551946
0.0551946
0.0551946
0.0551946
0.0551946
0.0551945
0.0551945
0.0551945
0.0551944
0.0551943
0.0551943
0.0551942
0.0551941
0.055194
0.0551939
0.0551938
0.0551936
0.0551935
0.0551933
0.0551932
0.055193
0.0551928
0.0551925
0.0551923
0.055192
0.0551916
0.0551912
0.0551906
0.0551895
0.0551866
0.0551776
0.0551442
0.0582336
0.0582705
0.0582805
0.0582837
0.058285
0.0582857
0.0582861
0.0582865
0.0582868
0.0582871
0.0582874
0.0582877
0.0582879
0.0582881
0.0582883
0.0582884
0.0582886
0.0582887
0.0582888
0.058289
0.0582891
0.0582892
0.0582892
0.0582893
0.0582894
0.0582894
0.0582895
0.0582895
0.0582895
0.0582895
0.0582895
0.0582895
0.0582895
0.0582895
0.0582894
0.0582894
0.0582893
0.0582892
0.0582892
0.0582891
0.058289
0.0582888
0.0582887
0.0582886
0.0582884
0.0582883
0.0582881
0.0582879
0.0582877
0.0582874
0.0582871
0.0582868
0.0582865
0.0582861
0.0582857
0.058285
0.0582837
0.0582805
0.0582705
0.0582336
0.0620335
0.062075
0.0620861
0.0620898
0.0620912
0.062092
0.0620926
0.062093
0.0620934
0.0620937
0.0620941
0.0620943
0.0620946
0.0620948
0.062095
0.0620952
0.0620954
0.0620956
0.0620957
0.0620959
0.062096
0.0620961
0.0620962
0.0620963
0.0620963
0.0620964
0.0620964
0.0620965
0.0620965
0.0620965
0.0620965
0.0620965
0.0620965
0.0620964
0.0620964
0.0620963
0.0620963
0.0620962
0.0620961
0.062096
0.0620959
0.0620957
0.0620956
0.0620954
0.0620952
0.062095
0.0620948
0.0620946
0.0620943
0.0620941
0.0620937
0.0620934
0.062093
0.0620926
0.062092
0.0620912
0.0620898
0.0620861
0.062075
0.0620335
0.0667818
0.0668294
0.0668422
0.0668464
0.0668481
0.066849
0.0668497
0.0668502
0.0668507
0.0668511
0.0668515
0.0668518
0.0668521
0.0668524
0.0668527
0.0668529
0.0668531
0.0668533
0.0668535
0.0668537
0.0668538
0.0668539
0.066854
0.0668541
0.0668542
0.0668543
0.0668544
0.0668544
0.0668544
0.0668544
0.0668544
0.0668544
0.0668544
0.0668544
0.0668543
0.0668542
0.0668541
0.066854
0.0668539
0.0668538
0.0668537
0.0668535
0.0668533
0.0668531
0.0668529
0.0668527
0.0668524
0.0668521
0.0668518
0.0668515
0.0668511
0.0668507
0.0668502
0.0668497
0.066849
0.0668481
0.0668464
0.0668422
0.0668294
0.0667818
0.0728518
0.0729076
0.0729227
0.0729277
0.0729297
0.0729309
0.0729317
0.0729323
0.0729329
0.0729334
0.0729338
0.0729343
0.0729346
0.072935
0.0729353
0.0729356
0.0729359
0.0729361
0.0729363
0.0729365
0.0729367
0.0729369
0.072937
0.0729371
0.0729373
0.0729373
0.0729374
0.0729375
0.0729375
0.0729375
0.0729375
0.0729375
0.0729375
0.0729374
0.0729373
0.0729373
0.0729371
0.072937
0.0729369
0.0729367
0.0729365
0.0729363
0.0729361
0.0729359
0.0729356
0.0729353
0.072935
0.0729346
0.0729343
0.0729338
0.0729334
0.0729329
0.0729323
0.0729317
0.0729309
0.0729297
0.0729277
0.0729227
0.0729076
0.0728518
0.0807818
0.0808492
0.0808675
0.0808736
0.0808761
0.0808775
0.0808785
0.0808793
0.08088
0.0808806
0.0808812
0.0808817
0.0808822
0.0808827
0.0808831
0.0808834
0.0808838
0.0808841
0.0808843
0.0808846
0.0808848
0.080885
0.0808852
0.0808854
0.0808855
0.0808856
0.0808857
0.0808857
0.0808858
0.0808858
0.0808858
0.0808858
0.0808857
0.0808857
0.0808856
0.0808855
0.0808854
0.0808852
0.080885
0.0808848
0.0808846
0.0808843
0.0808841
0.0808838
0.0808834
0.0808831
0.0808827
0.0808822
0.0808817
0.0808812
0.0808806
0.08088
0.0808793
0.0808785
0.0808775
0.0808761
0.0808736
0.0808675
0.0808492
0.0807818
0.0912853
0.0913686
0.0913914
0.0913989
0.0914021
0.0914038
0.091405
0.0914061
0.091407
0.0914078
0.0914085
0.0914092
0.0914098
0.0914104
0.0914109
0.0914114
0.0914118
0.0914122
0.0914125
0.0914129
0.0914131
0.0914134
0.0914136
0.0914138
0.091414
0.0914141
0.0914142
0.0914143
0.0914144
0.0914144
0.0914144
0.0914144
0.0914143
0.0914142
0.0914141
0.091414
0.0914138
0.0914136
0.0914134
0.0914131
0.0914129
0.0914125
0.0914122
0.0914118
0.0914114
0.0914109
0.0914104
0.0914098
0.0914092
0.0914085
0.0914078
0.091407
0.0914061
0.091405
0.0914038
0.0914021
0.0913989
0.0913914
0.0913686
0.0912853
0.105174
0.105279
0.105307
0.105317
0.105321
0.105323
0.105325
0.105326
0.105327
0.105328
0.105329
0.10533
0.105331
0.105331
0.105332
0.105333
0.105333
0.105334
0.105334
0.105334
0.105335
0.105335
0.105335
0.105336
0.105336
0.105336
0.105336
0.105336
0.105336
0.105336
0.105336
0.105336
0.105336
0.105336
0.105336
0.105336
0.105336
0.105335
0.105335
0.105335
0.105334
0.105334
0.105334
0.105333
0.105333
0.105332
0.105331
0.105331
0.10533
0.105329
0.105328
0.105327
0.105326
0.105325
0.105323
0.105321
0.105317
0.105307
0.105279
0.105174
0.123151
0.123281
0.123318
0.12333
0.123335
0.123337
0.123339
0.123341
0.123342
0.123344
0.123345
0.123346
0.123347
0.123348
0.123348
0.123349
0.12335
0.12335
0.123351
0.123351
0.123352
0.123352
0.123353
0.123353
0.123353
0.123353
0.123354
0.123354
0.123354
0.123354
0.123354
0.123354
0.123354
0.123354
0.123353
0.123353
0.123353
0.123353
0.123352
0.123352
0.123351
0.123351
0.12335
0.12335
0.123349
0.123348
0.123348
0.123347
0.123346
0.123345
0.123344
0.123342
0.123341
0.123339
0.123337
0.123335
0.12333
0.123318
0.123281
0.123151
0.145516
0.145675
0.14572
0.145735
0.145741
0.145744
0.145746
0.145748
0.14575
0.145751
0.145753
0.145754
0.145755
0.145756
0.145757
0.145758
0.145759
0.14576
0.14576
0.145761
0.145761
0.145762
0.145762
0.145763
0.145763
0.145763
0.145763
0.145763
0.145764
0.145764
0.145764
0.145764
0.145763
0.145763
0.145763
0.145763
0.145763
0.145762
0.145762
0.145761
0.145761
0.14576
0.14576
0.145759
0.145758
0.145757
0.145756
0.145755
0.145754
0.145753
0.145751
0.14575
0.145748
0.145746
0.145744
0.145741
0.145735
0.14572
0.145675
0.145516
0.171959
0.172148
0.172202
0.172219
0.172226
0.17223
0.172233
0.172235
0.172237
0.172239
0.17224
0.172242
0.172243
0.172244
0.172245
0.172246
0.172247
0.172248
0.172249
0.172249
0.17225
0.17225
0.172251
0.172251
0.172252
0.172252
0.172252
0.172252
0.172252
0.172252
0.172252
0.172252
0.172252
0.172252
0.172252
0.172252
0.172251
0.172251
0.17225
0.17225
0.172249
0.172249
0.172248
0.172247
0.172246
0.172245
0.172244
0.172243
0.172242
0.17224
0.172239
0.172237
0.172235
0.172233
0.17223
0.172226
0.172219
0.172202
0.172148
0.171959
0.201613
0.201829
0.201891
0.201912
0.20192
0.201924
0.201927
0.20193
0.201932
0.201933
0.201935
0.201937
0.201938
0.201939
0.20194
0.201941
0.201942
0.201943
0.201944
0.201945
0.201945
0.201946
0.201946
0.201947
0.201947
0.201948
0.201948
0.201948
0.201948
0.201948
0.201948
0.201948
0.201948
0.201948
0.201948
0.201947
0.201947
0.201946
0.201946
0.201945
0.201945
0.201944
0.201943
0.201942
0.201941
0.20194
0.201939
0.201938
0.201937
0.201935
0.201933
0.201932
0.20193
0.201927
0.201924
0.20192
0.201912
0.201891
0.201829
0.201613
0.233337
0.233578
0.233647
0.233671
0.23368
0.233684
0.233687
0.23369
0.233692
0.233694
0.233696
0.233697
0.233699
0.2337
0.233701
0.233702
0.233703
0.233704
0.233705
0.233705
0.233706
0.233707
0.233707
0.233708
0.233708
0.233708
0.233709
0.233709
0.233709
0.233709
0.233709
0.233709
0.233709
0.233709
0.233708
0.233708
0.233708
0.233707
0.233707
0.233706
0.233705
0.233705
0.233704
0.233703
0.233702
0.233701
0.2337
0.233699
0.233697
0.233696
0.233694
0.233692
0.23369
0.233687
0.233684
0.23368
0.233671
0.233647
0.233578
0.233337
0.266051
0.266311
0.266388
0.266414
0.266424
0.266429
0.266432
0.266434
0.266436
0.266438
0.26644
0.266441
0.266443
0.266444
0.266445
0.266446
0.266447
0.266448
0.266449
0.26645
0.26645
0.266451
0.266452
0.266452
0.266452
0.266453
0.266453
0.266453
0.266453
0.266453
0.266453
0.266453
0.266453
0.266453
0.266453
0.266452
0.266452
0.266452
0.266451
0.26645
0.26645
0.266449
0.266448
0.266447
0.266446
0.266445
0.266444
0.266443
0.266441
0.26644
0.266438
0.266436
0.266434
0.266432
0.266429
0.266424
0.266414
0.266388
0.266311
0.266051
0.298924
0.299202
0.299285
0.299313
0.299324
0.299329
0.299332
0.299334
0.299337
0.299338
0.29934
0.299342
0.299343
0.299344
0.299345
0.299346
0.299347
0.299348
0.299349
0.29935
0.29935
0.299351
0.299351
0.299352
0.299352
0.299353
0.299353
0.299353
0.299353
0.299353
0.299353
0.299353
0.299353
0.299353
0.299353
0.299352
0.299352
0.299351
0.299351
0.29935
0.29935
0.299349
0.299348
0.299347
0.299346
0.299345
0.299344
0.299343
0.299342
0.29934
0.299338
0.299337
0.299334
0.299332
0.299329
0.299324
0.299313
0.299285
0.299202
0.298924
0.331413
0.331705
0.331794
0.331824
0.331835
0.331841
0.331844
0.331846
0.331848
0.33185
0.331852
0.331853
0.331855
0.331856
0.331857
0.331858
0.331859
0.33186
0.33186
0.331861
0.331862
0.331862
0.331863
0.331863
0.331864
0.331864
0.331864
0.331864
0.331864
0.331864
0.331864
0.331864
0.331864
0.331864
0.331864
0.331864
0.331863
0.331863
0.331862
0.331862
0.331861
0.33186
0.33186
0.331859
0.331858
0.331857
0.331856
0.331855
0.331853
0.331852
0.33185
0.331848
0.331846
0.331844
0.331841
0.331835
0.331824
0.331794
0.331705
0.331413
0.363196
0.363499
0.363594
0.363626
0.363637
0.363643
0.363646
0.363649
0.363651
0.363652
0.363654
0.363655
0.363657
0.363658
0.363659
0.36366
0.363661
0.363661
0.363662
0.363663
0.363663
0.363664
0.363664
0.363665
0.363665
0.363665
0.363666
0.363666
0.363666
0.363666
0.363666
0.363666
0.363666
0.363666
0.363665
0.363665
0.363665
0.363664
0.363664
0.363663
0.363663
0.363662
0.363661
0.363661
0.36366
0.363659
0.363658
0.363657
0.363655
0.363654
0.363652
0.363651
0.363649
0.363646
0.363643
0.363637
0.363626
0.363594
0.363499
0.363196
0.394094
0.394407
0.394507
0.394541
0.394554
0.394559
0.394563
0.394565
0.394567
0.394569
0.39457
0.394571
0.394573
0.394574
0.394575
0.394576
0.394576
0.394577
0.394578
0.394578
0.394579
0.39458
0.39458
0.39458
0.394581
0.394581
0.394581
0.394581
0.394581
0.394582
0.394582
0.394581
0.394581
0.394581
0.394581
0.394581
0.39458
0.39458
0.39458
0.394579
0.394578
0.394578
0.394577
0.394576
0.394576
0.394575
0.394574
0.394573
0.394571
0.39457
0.394569
0.394567
0.394565
0.394563
0.394559
0.394554
0.394541
0.394507
0.394407
0.394094
0.424017
0.424338
0.424443
0.424479
0.424492
0.424498
0.424501
0.424504
0.424505
0.424507
0.424508
0.42451
0.424511
0.424512
0.424513
0.424514
0.424515
0.424515
0.424516
0.424517
0.424517
0.424518
0.424518
0.424518
0.424519
0.424519
0.424519
0.424519
0.424519
0.424519
0.424519
0.424519
0.424519
0.424519
0.424519
0.424519
0.424518
0.424518
0.424518
0.424517
0.424517
0.424516
0.424515
0.424515
0.424514
0.424513
0.424512
0.424511
0.42451
0.424508
0.424507
0.424505
0.424504
0.424501
0.424498
0.424492
0.424479
0.424443
0.424338
0.424017
0.45292
0.453248
0.453358
0.453395
0.453409
0.453415
0.453418
0.45342
0.453422
0.453424
0.453425
0.453426
0.453427
0.453428
0.453429
0.45343
0.453431
0.453432
0.453432
0.453433
0.453433
0.453434
0.453434
0.453434
0.453435
0.453435
0.453435
0.453435
0.453435
0.453435
0.453435
0.453435
0.453435
0.453435
0.453435
0.453435
0.453434
0.453434
0.453434
0.453433
0.453433
0.453432
0.453432
0.453431
0.45343
0.453429
0.453428
0.453427
0.453426
0.453425
0.453424
0.453422
0.45342
0.453418
0.453415
0.453409
0.453395
0.453358
0.453248
0.45292
0.480785
0.481119
0.481232
0.481272
0.481286
0.481293
0.481296
0.481298
0.4813
0.481301
0.481302
0.481304
0.481305
0.481306
0.481306
0.481307
0.481308
0.481309
0.481309
0.48131
0.48131
0.481311
0.481311
0.481311
0.481312
0.481312
0.481312
0.481312
0.481312
0.481312
0.481312
0.481312
0.481312
0.481312
0.481312
0.481312
0.481311
0.481311
0.481311
0.48131
0.48131
0.481309
0.481309
0.481308
0.481307
0.481306
0.481306
0.481305
0.481304
0.481302
0.481301
0.4813
0.481298
0.481296
0.481293
0.481286
0.481272
0.481232
0.481119
0.480785
0.50761
0.507948
0.508066
0.508107
0.508123
0.508129
0.508132
0.508134
0.508136
0.508137
0.508138
0.50814
0.50814
0.508141
0.508142
0.508143
0.508144
0.508144
0.508145
0.508145
0.508146
0.508146
0.508146
0.508147
0.508147
0.508147
0.508147
0.508148
0.508148
0.508148
0.508148
0.508148
0.508148
0.508147
0.508147
0.508147
0.508147
0.508146
0.508146
0.508146
0.508145
0.508145
0.508144
0.508144
0.508143
0.508142
0.508141
0.50814
0.50814
0.508138
0.508137
0.508136
0.508134
0.508132
0.508129
0.508123
0.508107
0.508066
0.507948
0.50761
0.533403
0.533744
0.533866
0.533909
0.533925
0.533931
0.533934
0.533937
0.533938
0.533939
0.533941
0.533942
0.533943
0.533943
0.533944
0.533945
0.533945
0.533946
0.533947
0.533947
0.533947
0.533948
0.533948
0.533948
0.533949
0.533949
0.533949
0.533949
0.533949
0.533949
0.533949
0.533949
0.533949
0.533949
0.533949
0.533949
0.533948
0.533948
0.533948
0.533947
0.533947
0.533947
0.533946
0.533945
0.533945
0.533944
0.533943
0.533943
0.533942
0.533941
0.533939
0.533938
0.533937
0.533934
0.533931
0.533925
0.533909
0.533866
0.533744
0.533403
0.558177
0.558519
0.558645
0.55869
0.558706
0.558713
0.558716
0.558718
0.55872
0.558721
0.558722
0.558723
0.558724
0.558725
0.558726
0.558726
0.558727
0.558727
0.558728
0.558728
0.558729
0.558729
0.558729
0.55873
0.55873
0.55873
0.55873
0.55873
0.55873
0.55873
0.55873
0.55873
0.55873
0.55873
0.55873
0.55873
0.55873
0.558729
0.558729
0.558729
0.558728
0.558728
0.558727
0.558727
0.558726
0.558726
0.558725
0.558724
0.558723
0.558722
0.558721
0.55872
0.558718
0.558716
0.558713
0.558706
0.55869
0.558645
0.558519
0.558177
0.581948
0.582292
0.582421
0.582467
0.582485
0.582492
0.582495
0.582497
0.582499
0.5825
0.582501
0.582502
0.582502
0.582503
0.582504
0.582504
0.582505
0.582506
0.582506
0.582506
0.582507
0.582507
0.582507
0.582508
0.582508
0.582508
0.582508
0.582508
0.582508
0.582508
0.582508
0.582508
0.582508
0.582508
0.582508
0.582508
0.582508
0.582507
0.582507
0.582507
0.582506
0.582506
0.582506
0.582505
0.582504
0.582504
0.582503
0.582502
0.582502
0.582501
0.5825
0.582499
0.582497
0.582495
0.582492
0.582485
0.582467
0.582421
0.582292
0.581948
0.604738
0.605082
0.605213
0.605262
0.60528
0.605287
0.605291
0.605293
0.605294
0.605295
0.605296
0.605297
0.605298
0.605298
0.605299
0.6053
0.6053
0.605301
0.605301
0.605301
0.605302
0.605302
0.605302
0.605303
0.605303
0.605303
0.605303
0.605303
0.605303
0.605303
0.605303
0.605303
0.605303
0.605303
0.605303
0.605303
0.605303
0.605302
0.605302
0.605302
0.605301
0.605301
0.605301
0.6053
0.6053
0.605299
0.605298
0.605298
0.605297
0.605296
0.605295
0.605294
0.605293
0.605291
0.605287
0.60528
0.605262
0.605213
0.605082
0.604738
0.626568
0.626911
0.627045
0.627095
0.627114
0.627121
0.627125
0.627127
0.627128
0.627129
0.62713
0.627131
0.627132
0.627132
0.627133
0.627133
0.627134
0.627134
0.627135
0.627135
0.627135
0.627136
0.627136
0.627136
0.627136
0.627136
0.627137
0.627137
0.627137
0.627137
0.627137
0.627137
0.627137
0.627137
0.627136
0.627136
0.627136
0.627136
0.627136
0.627135
0.627135
0.627135
0.627134
0.627134
0.627133
0.627133
0.627132
0.627132
0.627131
0.62713
0.627129
0.627128
0.627127
0.627125
0.627121
0.627114
0.627095
0.627045
0.626911
0.626568
0.64746
0.647801
0.647937
0.647989
0.648009
0.648017
0.648021
0.648023
0.648024
0.648025
0.648026
0.648026
0.648027
0.648028
0.648028
0.648029
0.648029
0.64803
0.64803
0.64803
0.648031
0.648031
0.648031
0.648031
0.648031
0.648032
0.648032
0.648032
0.648032
0.648032
0.648032
0.648032
0.648032
0.648032
0.648032
0.648031
0.648031
0.648031
0.648031
0.648031
0.64803
0.64803
0.64803
0.648029
0.648029
0.648028
0.648028
0.648027
0.648026
0.648026
0.648025
0.648024
0.648023
0.648021
0.648017
0.648009
0.647989
0.647937
0.647801
0.64746
0.667439
0.667778
0.667916
0.667969
0.66799
0.667998
0.668002
0.668004
0.668005
0.668006
0.668007
0.668008
0.668008
0.668009
0.668009
0.66801
0.66801
0.66801
0.668011
0.668011
0.668011
0.668012
0.668012
0.668012
0.668012
0.668012
0.668012
0.668013
0.668013
0.668013
0.668013
0.668013
0.668013
0.668012
0.668012
0.668012
0.668012
0.668012
0.668012
0.668011
0.668011
0.668011
0.66801
0.66801
0.66801
0.668009
0.668009
0.668008
0.668008
0.668007
0.668006
0.668005
0.668004
0.668002
0.667998
0.66799
0.667969
0.667916
0.667778
0.667439
0.686529
0.686864
0.687004
0.687059
0.687081
0.687089
0.687093
0.687095
0.687096
0.687097
0.687098
0.687099
0.687099
0.6871
0.6871
0.687101
0.687101
0.687101
0.687102
0.687102
0.687102
0.687102
0.687103
0.687103
0.687103
0.687103
0.687103
0.687103
0.687103
0.687103
0.687103
0.687103
0.687103
0.687103
0.687103
0.687103
0.687103
0.687103
0.687102
0.687102
0.687102
0.687102
0.687101
0.687101
0.687101
0.6871
0.6871
0.687099
0.687099
0.687098
0.687097
0.687096
0.687095
0.687093
0.687089
0.687081
0.687059
0.687004
0.686864
0.686529
0.704755
0.705086
0.705228
0.705284
0.705306
0.705315
0.705319
0.705321
0.705322
0.705323
0.705324
0.705325
0.705325
0.705326
0.705326
0.705326
0.705327
0.705327
0.705327
0.705328
0.705328
0.705328
0.705328
0.705328
0.705329
0.705329
0.705329
0.705329
0.705329
0.705329
0.705329
0.705329
0.705329
0.705329
0.705329
0.705329
0.705328
0.705328
0.705328
0.705328
0.705328
0.705327
0.705327
0.705327
0.705326
0.705326
0.705326
0.705325
0.705325
0.705324
0.705323
0.705322
0.705321
0.705319
0.705315
0.705306
0.705284
0.705228
0.705086
0.704755
0.722142
0.722468
0.722611
0.722669
0.722692
0.722701
0.722705
0.722707
0.722708
0.722709
0.72271
0.72271
0.722711
0.722711
0.722712
0.722712
0.722712
0.722713
0.722713
0.722713
0.722713
0.722714
0.722714
0.722714
0.722714
0.722714
0.722714
0.722714
0.722714
0.722714
0.722714
0.722714
0.722714
0.722714
0.722714
0.722714
0.722714
0.722714
0.722714
0.722713
0.722713
0.722713
0.722713
0.722712
0.722712
0.722712
0.722711
0.722711
0.72271
0.72271
0.722709
0.722708
0.722707
0.722705
0.722701
0.722692
0.722669
0.722611
0.722468
0.722142
0.738714
0.739036
0.739179
0.739238
0.739262
0.739272
0.739276
0.739278
0.739279
0.73928
0.739281
0.739281
0.739282
0.739282
0.739282
0.739283
0.739283
0.739283
0.739284
0.739284
0.739284
0.739284
0.739284
0.739285
0.739285
0.739285
0.739285
0.739285
0.739285
0.739285
0.739285
0.739285
0.739285
0.739285
0.739285
0.739285
0.739285
0.739284
0.739284
0.739284
0.739284
0.739284
0.739283
0.739283
0.739283
0.739282
0.739282
0.739282
0.739281
0.739281
0.73928
0.739279
0.739278
0.739276
0.739272
0.739262
0.739238
0.739179
0.739036
0.738714
0.754498
0.754814
0.754957
0.755018
0.755043
0.755053
0.755057
0.755059
0.75506
0.755061
0.755062
0.755062
0.755063
0.755063
0.755063
0.755064
0.755064
0.755064
0.755064
0.755065
0.755065
0.755065
0.755065
0.755065
0.755065
0.755066
0.755066
0.755066
0.755066
0.755066
0.755066
0.755066
0.755066
0.755066
0.755066
0.755065
0.755065
0.755065
0.755065
0.755065
0.755065
0.755064
0.755064
0.755064
0.755064
0.755063
0.755063
0.755063
0.755062
0.755062
0.755061
0.75506
0.755059
0.755057
0.755053
0.755043
0.755018
0.754957
0.754814
0.754498
0.769518
0.769828
0.769971
0.770033
0.770059
0.770069
0.770074
0.770076
0.770077
0.770078
0.770078
0.770079
0.770079
0.770079
0.77008
0.77008
0.77008
0.77008
0.770081
0.770081
0.770081
0.770081
0.770081
0.770081
0.770082
0.770082
0.770082
0.770082
0.770082
0.770082
0.770082
0.770082
0.770082
0.770082
0.770082
0.770082
0.770081
0.770081
0.770081
0.770081
0.770081
0.770081
0.77008
0.77008
0.77008
0.77008
0.770079
0.770079
0.770079
0.770078
0.770078
0.770077
0.770076
0.770074
0.770069
0.770059
0.770033
0.769971
0.769828
0.769518
0.783799
0.784102
0.784246
0.784308
0.784335
0.784346
0.78435
0.784352
0.784354
0.784354
0.784355
0.784355
0.784356
0.784356
0.784356
0.784357
0.784357
0.784357
0.784357
0.784357
0.784358
0.784358
0.784358
0.784358
0.784358
0.784358
0.784358
0.784358
0.784358
0.784358
0.784358
0.784358
0.784358
0.784358
0.784358
0.784358
0.784358
0.784358
0.784358
0.784358
0.784357
0.784357
0.784357
0.784357
0.784357
0.784356
0.784356
0.784356
0.784355
0.784355
0.784354
0.784354
0.784352
0.78435
0.784346
0.784335
0.784308
0.784246
0.784102
0.783799
0.797366
0.797662
0.797805
0.797869
0.797896
0.797907
0.797912
0.797914
0.797916
0.797916
0.797917
0.797917
0.797918
0.797918
0.797918
0.797918
0.797919
0.797919
0.797919
0.797919
0.797919
0.797919
0.79792
0.79792
0.79792
0.79792
0.79792
0.79792
0.79792
0.79792
0.79792
0.79792
0.79792
0.79792
0.79792
0.79792
0.79792
0.79792
0.797919
0.797919
0.797919
0.797919
0.797919
0.797919
0.797918
0.797918
0.797918
0.797918
0.797917
0.797917
0.797916
0.797916
0.797914
0.797912
0.797907
0.797896
0.797869
0.797805
0.797662
0.797366
0.810243
0.810532
0.810675
0.810739
0.810767
0.810779
0.810784
0.810786
0.810788
0.810788
0.810789
0.810789
0.810789
0.81079
0.81079
0.81079
0.81079
0.81079
0.810791
0.810791
0.810791
0.810791
0.810791
0.810791
0.810791
0.810791
0.810791
0.810792
0.810792
0.810792
0.810792
0.810792
0.810792
0.810791
0.810791
0.810791
0.810791
0.810791
0.810791
0.810791
0.810791
0.810791
0.81079
0.81079
0.81079
0.81079
0.81079
0.810789
0.810789
0.810789
0.810788
0.810788
0.810786
0.810784
0.810779
0.810767
0.810739
0.810675
0.810532
0.810243
0.822456
0.822738
0.822879
0.822944
0.822972
0.822985
0.82299
0.822993
0.822994
0.822994
0.822995
0.822995
0.822995
0.822996
0.822996
0.822996
0.822996
0.822996
0.822997
0.822997
0.822997
0.822997
0.822997
0.822997
0.822997
0.822997
0.822997
0.822997
0.822997
0.822997
0.822997
0.822997
0.822997
0.822997
0.822997
0.822997
0.822997
0.822997
0.822997
0.822997
0.822997
0.822997
0.822996
0.822996
0.822996
0.822996
0.822996
0.822995
0.822995
0.822995
0.822994
0.822994
0.822993
0.82299
0.822985
0.822972
0.822944
0.822879
0.822738
0.822456
0.834027
0.834301
0.834441
0.834507
0.834536
0.834549
0.834555
0.834557
0.834558
0.834559
0.83456
0.83456
0.83456
0.83456
0.834561
0.834561
0.834561
0.834561
0.834561
0.834561
0.834561
0.834561
0.834562
0.834562
0.834562
0.834562
0.834562
0.834562
0.834562
0.834562
0.834562
0.834562
0.834562
0.834562
0.834562
0.834562
0.834562
0.834562
0.834561
0.834561
0.834561
0.834561
0.834561
0.834561
0.834561
0.834561
0.83456
0.83456
0.83456
0.83456
0.834559
0.834558
0.834557
0.834555
0.834549
0.834536
0.834507
0.834441
0.834301
0.834027
0.844982
0.845248
0.845387
0.845453
0.845483
0.845496
0.845502
0.845504
0.845505
0.845506
0.845507
0.845507
0.845507
0.845507
0.845507
0.845508
0.845508
0.845508
0.845508
0.845508
0.845508
0.845508
0.845508
0.845508
0.845509
0.845509
0.845509
0.845509
0.845509
0.845509
0.845509
0.845509
0.845509
0.845509
0.845509
0.845509
0.845508
0.845508
0.845508
0.845508
0.845508
0.845508
0.845508
0.845508
0.845508
0.845507
0.845507
0.845507
0.845507
0.845507
0.845506
0.845505
0.845504
0.845502
0.845496
0.845483
0.845453
0.845387
0.845248
0.844982
0.855343
0.855601
0.855738
0.855804
0.855835
0.855848
0.855854
0.855857
0.855858
0.855859
0.85586
0.85586
0.85586
0.85586
0.85586
0.855861
0.855861
0.855861
0.855861
0.855861
0.855861
0.855861
0.855861
0.855861
0.855861
0.855861
0.855861
0.855861
0.855861
0.855861
0.855861
0.855861
0.855861
0.855861
0.855861
0.855861
0.855861
0.855861
0.855861
0.855861
0.855861
0.855861
0.855861
0.855861
0.855861
0.85586
0.85586
0.85586
0.85586
0.85586
0.855859
0.855858
0.855857
0.855854
0.855848
0.855835
0.855804
0.855738
0.855601
0.855343
0.865134
0.865384
0.865518
0.865585
0.865616
0.86563
0.865636
0.865639
0.865641
0.865641
0.865642
0.865642
0.865642
0.865642
0.865642
0.865643
0.865643
0.865643
0.865643
0.865643
0.865643
0.865643
0.865643
0.865643
0.865643
0.865643
0.865643
0.865643
0.865643
0.865643
0.865643
0.865643
0.865643
0.865643
0.865643
0.865643
0.865643
0.865643
0.865643
0.865643
0.865643
0.865643
0.865643
0.865643
0.865643
0.865642
0.865642
0.865642
0.865642
0.865642
0.865641
0.865641
0.865639
0.865636
0.86563
0.865616
0.865585
0.865518
0.865384
0.865134
0.874377
0.874619
0.874751
0.874818
0.874849
0.874864
0.87487
0.874873
0.874875
0.874876
0.874876
0.874876
0.874876
0.874877
0.874877
0.874877
0.874877
0.874877
0.874877
0.874877
0.874877
0.874877
0.874877
0.874877
0.874877
0.874877
0.874877
0.874877
0.874877
0.874877
0.874877
0.874877
0.874877
0.874877
0.874877
0.874877
0.874877
0.874877
0.874877
0.874877
0.874877
0.874877
0.874877
0.874877
0.874877
0.874877
0.874877
0.874876
0.874876
0.874876
0.874876
0.874875
0.874873
0.87487
0.874864
0.874849
0.874818
0.874751
0.874619
0.874377
0.883096
0.883329
0.883459
0.883525
0.883557
0.883572
0.883579
0.883582
0.883584
0.883584
0.883585
0.883585
0.883585
0.883585
0.883585
0.883585
0.883585
0.883586
0.883586
0.883586
0.883586
0.883586
0.883586
0.883586
0.883586
0.883586
0.883586
0.883586
0.883586
0.883586
0.883586
0.883586
0.883586
0.883586
0.883586
0.883586
0.883586
0.883586
0.883586
0.883586
0.883586
0.883586
0.883586
0.883585
0.883585
0.883585
0.883585
0.883585
0.883585
0.883585
0.883584
0.883584
0.883582
0.883579
0.883572
0.883557
0.883525
0.883459
0.883329
0.883096
0.891311
0.891536
0.891663
0.891729
0.891762
0.891777
0.891784
0.891787
0.891789
0.89179
0.89179
0.89179
0.89179
0.891791
0.891791
0.891791
0.891791
0.891791
0.891791
0.891791
0.891791
0.891791
0.891791
0.891791
0.891791
0.891791
0.891791
0.891791
0.891791
0.891791
0.891791
0.891791
0.891791
0.891791
0.891791
0.891791
0.891791
0.891791
0.891791
0.891791
0.891791
0.891791
0.891791
0.891791
0.891791
0.891791
0.891791
0.89179
0.89179
0.89179
0.89179
0.891789
0.891787
0.891784
0.891777
0.891762
0.891729
0.891663
0.891536
0.891311
0.899046
0.899262
0.899386
0.899452
0.899484
0.8995
0.899507
0.899511
0.899512
0.899513
0.899514
0.899514
0.899514
0.899514
0.899514
0.899514
0.899514
0.899514
0.899514
0.899514
0.899515
0.899515
0.899515
0.899515
0.899515
0.899515
0.899515
0.899515
0.899515
0.899515
0.899515
0.899515
0.899515
0.899515
0.899515
0.899515
0.899515
0.899515
0.899515
0.899515
0.899514
0.899514
0.899514
0.899514
0.899514
0.899514
0.899514
0.899514
0.899514
0.899514
0.899513
0.899512
0.899511
0.899507
0.8995
0.899484
0.899452
0.899386
0.899262
0.899046
0.90632
0.906527
0.906648
0.906714
0.906746
0.906763
0.90677
0.906774
0.906776
0.906776
0.906777
0.906777
0.906777
0.906777
0.906777
0.906777
0.906777
0.906777
0.906777
0.906777
0.906777
0.906778
0.906778
0.906778
0.906778
0.906778
0.906778
0.906778
0.906778
0.906778
0.906778
0.906778
0.906778
0.906778
0.906778
0.906778
0.906778
0.906778
0.906778
0.906777
0.906777
0.906777
0.906777
0.906777
0.906777
0.906777
0.906777
0.906777
0.906777
0.906777
0.906776
0.906776
0.906774
0.90677
0.906763
0.906746
0.906714
0.906648
0.906527
0.90632
0.913154
0.913353
0.913471
0.913536
0.913569
0.913585
0.913593
0.913597
0.913599
0.9136
0.9136
0.9136
0.9136
0.913601
0.913601
0.913601
0.913601
0.913601
0.913601
0.913601