/*--------------------------------*- C++ -*----------------------------------*\
| =========                 |                                                 |
| \\      /  F ield         | foam-extend: Open Source CFD                    |
|  \\    /   O peration     | Version:     4.0                                |
|   \\  /    A nd           | Web:         http://www.foam-extend.org         |
|    \\/     M anipulation  |                                                 |
\*---------------------------------------------------------------------------*/
FoamFile
{
    version     2.0;
    format      ascii;
    class       volVectorField;
    location    "1";
    object      bodyForce;
}
// * * * * * * * * * * * * * * * * * * * * * * * * * * * * * * * * * * * * * //

dimensions      [1 -2 -2 0 0 0 0];

internalField   nonuniform List<vector> 
1740
(
(1.13303e-30 -1.0603e-14 -0)
(5.85401e-31 -1.0603e-14 -0)
(1.32187e-31 -1.0603e-14 -0)
(-8.30891e-31 -1.0603e-14 -0)
(-1.88839e-31 -1.0603e-14 -0)
(1.07638e-30 -1.0603e-14 -0)
(-0 -1.0603e-14 -0)
(-8.12007e-31 -1.0603e-14 -0)
(5.66517e-32 -1.0603e-14 -0)
(4.72097e-31 -1.0603e-14 -0)
(-6.23168e-31 -1.0603e-14 -0)
(-1.07638e-30 -1.0603e-14 -0)
(-1.7562e-30 -1.0603e-14 -0)
(-1.41629e-30 -1.0603e-14 -0)
(-1.88841e-31 -1.06031e-14 -0)
(3.45323e-30 -1.10951e-14 -0)
(1.76498e-30 -1.10951e-14 -0)
(7.67384e-31 -1.10951e-14 -0)
(-2.30215e-30 -1.10951e-14 -0)
(-6.90646e-31 -1.10951e-14 -0)
(3.22301e-30 -1.10951e-14 -0)
(-7.67384e-32 -1.10951e-14 -0)
(-2.68585e-30 -1.10951e-14 -0)
(3.06954e-31 -1.10951e-14 -0)
(1.22781e-30 -1.10951e-14 -0)
(-2.07194e-30 -1.10951e-14 -0)
(-3.14628e-30 -1.10951e-14 -0)
(-5.67865e-30 -1.10952e-14 -0)
(-4.29737e-30 -1.10952e-14 -0)
(-7.67412e-32 -1.10955e-14 -0)
(5.75966e-30 -1.15912e-14 -0)
(2.64633e-30 -1.15912e-14 -0)
(1.55667e-30 -1.15912e-14 -0)
(-3.89166e-30 -1.15912e-14 -0)
(-2.02366e-30 -1.15912e-14 -0)
(5.44833e-30 -1.15912e-14 -0)
(9.33999e-31 -1.15912e-14 -0)
(-4.203e-30 -1.15912e-14 -0)
(-1.55667e-31 -1.15912e-14 -0)
(2.02366e-30 -1.15912e-14 -0)
(-4.203e-30 -1.15912e-14 -0)
(-5.60399e-30 -1.15912e-14 -0)
(-9.33999e-30 -1.15912e-14 -0)
(-7.47203e-30 -1.15913e-14 -0)
(-9.34053e-31 -1.15919e-14 -0)
(8.51378e-30 -1.20923e-14 -0)
(4.25689e-30 -1.20923e-14 -0)
(1.73429e-30 -1.20923e-14 -0)
(-5.67585e-30 -1.20923e-14 -0)
(-1.89195e-30 -1.20923e-14 -0)
(8.19845e-30 -1.20923e-14 -0)
(3.15325e-31 -1.20923e-14 -0)
(-6.62183e-30 -1.20923e-14 -0)
(3.15325e-31 -1.20923e-14 -0)
(3.31091e-30 -1.20923e-14 -0)
(-5.99118e-30 -1.20923e-14 -0)
(-8.51378e-30 -1.20923e-14 -0)
(-1.37166e-29 -1.20923e-14 -0)
(-1.04058e-29 -1.20924e-14 -0)
(-7.88374e-31 -1.20932e-14 -0)
(1.1164e-29 -1.25993e-14 -0)
(5.74149e-30 -1.25993e-14 -0)
(2.87074e-30 -1.25993e-14 -0)
(-7.97429e-30 -1.25993e-14 -0)
(-3.18972e-30 -1.25993e-14 -0)
(9.88812e-30 -1.25993e-14 -0)
(1.91383e-30 -1.25993e-14 -0)
(-7.97429e-30 -1.25993e-14 -0)
(-0 -1.25993e-14 -0)
(4.4656e-30 -1.25993e-14 -0)
(-8.29326e-30 -1.25993e-14 -0)
(-1.0845e-29 -1.25993e-14 -0)
(-1.94573e-29 -1.25993e-14 -0)
(-1.65867e-29 -1.25994e-14 -0)
(-2.23302e-30 -1.26005e-14 -0)
(1.41817e-29 -1.31133e-14 -0)
(8.05778e-30 -1.31133e-14 -0)
(3.22311e-30 -1.31133e-14 -0)
(-8.7024e-30 -1.31133e-14 -0)
(-2.9008e-30 -1.31133e-14 -0)
(1.41817e-29 -1.31133e-14 -0)
(3.22311e-30 -1.31133e-14 -0)
(-1.19255e-29 -1.31133e-14 -0)
(-1.93387e-30 -1.31133e-14 -0)
(4.51235e-30 -1.31133e-14 -0)
(-1.12809e-29 -1.31133e-14 -0)
(-1.35371e-29 -1.31133e-14 -0)
(-2.3851e-29 -1.31134e-14 -0)
(-2.03058e-29 -1.31135e-14 -0)
(-3.22349e-30 -1.31149e-14 -0)
(1.98482e-29 -1.36356e-14 -0)
(9.76139e-30 -1.36356e-14 -0)
(2.27766e-30 -1.36356e-14 -0)
(-1.10629e-29 -1.36356e-14 -0)
(-3.90456e-30 -1.36356e-14 -0)
(1.59436e-29 -1.36356e-14 -0)
(2.92842e-30 -1.36356e-14 -0)
(-1.49675e-29 -1.36356e-14 -0)
(-0 -1.36356e-14 -0)
(7.15835e-30 -1.36356e-14 -0)
(-1.49675e-29 -1.36356e-14 -0)
(-1.75705e-29 -1.36356e-14 -0)
(-2.89588e-29 -1.36356e-14 -0)
(-2.57054e-29 -1.36358e-14 -0)
(-3.9051e-30 -1.36375e-14 -0)
(2.42877e-29 -1.41671e-14 -0)
(1.05028e-29 -1.41671e-14 -0)
(1.96927e-30 -1.41671e-14 -0)
(-1.44413e-29 -1.41671e-14 -0)
(-5.25139e-30 -1.41671e-14 -0)
(1.96927e-29 -1.41671e-14 -0)
(4.59496e-30 -1.41671e-14 -0)
(-1.83798e-29 -1.41671e-14 -0)
(-1.31285e-30 -1.41671e-14 -0)
(8.5335e-30 -1.41671e-14 -0)
(-1.96927e-29 -1.41671e-14 -0)
(-2.03491e-29 -1.41671e-14 -0)
(-3.28212e-29 -1.41671e-14 -0)
(-3.08524e-29 -1.41674e-14 -0)
(-5.25223e-30 -1.41694e-14 -0)
(2.77904e-29 -1.47092e-14 -0)
(1.32335e-29 -1.47092e-14 -0)
(5.29341e-30 -1.47092e-14 -0)
(-1.52186e-29 -1.47092e-14 -0)
(-8.6018e-30 -1.47092e-14 -0)
(2.18353e-29 -1.47092e-14 -0)
(8.6018e-30 -1.47092e-14 -0)
(-2.18353e-29 -1.47092e-14 -0)
(-6.61677e-31 -1.47092e-14 -0)
(1.12485e-29 -1.47092e-14 -0)
(-2.51437e-29 -1.47092e-14 -0)
(-2.64671e-29 -1.47092e-14 -0)
(-4.1024e-29 -1.47092e-14 -0)
(-3.57313e-29 -1.47095e-14 -0)
(-6.61798e-30 -1.47119e-14 -0)
(3.39956e-29 -1.5263e-14 -0)
(1.53313e-29 -1.5263e-14 -0)
(2.66632e-30 -1.5263e-14 -0)
(-1.79977e-29 -1.5263e-14 -0)
(-8.66554e-30 -1.5263e-14 -0)
(2.79964e-29 -1.5263e-14 -0)
(1.06653e-29 -1.5263e-14 -0)
(-2.53301e-29 -1.5263e-14 -0)
(-3.3329e-30 -1.5263e-14 -0)
(1.06653e-29 -1.5263e-14 -0)
(-2.79964e-29 -1.5263e-14 -0)
(-2.8663e-29 -1.5263e-14 -0)
(-4.79939e-29 -1.5263e-14 -0)
(-4.19956e-29 -1.52633e-14 -0)
(-7.3339e-30 -1.52661e-14 -0)
(4.09426e-29 -1.58298e-14 -0)
(1.67798e-29 -1.58298e-14 -0)
(2.01357e-30 -1.58298e-14 -0)
(-1.74509e-29 -1.58298e-14 -0)
(-8.05428e-30 -1.58298e-14 -0)
(2.55052e-29 -1.58298e-14 -0)
(9.39666e-30 -1.58298e-14 -0)
(-2.34917e-29 -1.58298e-14 -0)
(-6.7119e-31 -1.58298e-14 -0)
(7.38309e-30 -1.58298e-14 -0)
(-3.08748e-29 -1.58298e-14 -0)
(-3.02036e-29 -1.58298e-14 -0)
(-5.36953e-29 -1.58299e-14 -0)
(-4.96695e-29 -1.58303e-14 -0)
(-1.27556e-29 -1.58335e-14 -0)
(4.86403e-29 -1.64112e-14 -0)
(1.89157e-29 -1.64112e-14 -0)
(-1.35112e-30 -1.64112e-14 -0)
(-2.16179e-29 -1.64112e-14 -0)
(-1.0809e-29 -1.64112e-14 -0)
(3.51291e-29 -1.64112e-14 -0)
(1.62134e-29 -1.64112e-14 -0)
(-3.51291e-29 -1.64112e-14 -0)
(-5.40448e-30 -1.64112e-14 -0)
(1.21601e-29 -1.64112e-14 -0)
(-3.3778e-29 -1.64112e-14 -0)
(-3.78314e-29 -1.64112e-14 -0)
(-5.94495e-29 -1.64112e-14 -0)
(-5.6749e-29 -1.64117e-14 -0)
(-1.62176e-29 -1.64154e-14 -0)
(4.75818e-29 -1.70084e-14 -0)
(2.58301e-29 -1.70084e-14 -0)
(-1.35948e-30 -1.70084e-14 -0)
(-2.58301e-29 -1.70084e-14 -0)
(-1.49543e-29 -1.70084e-14 -0)
(3.53465e-29 -1.70084e-14 -0)
(2.44707e-29 -1.70084e-14 -0)
(-2.99086e-29 -1.70084e-14 -0)
(-8.15689e-30 -1.70084e-14 -0)
(1.49543e-29 -1.70084e-14 -0)
(-4.07844e-29 -1.70084e-14 -0)
(-4.75819e-29 -1.70084e-14 -0)
(-6.66148e-29 -1.70085e-14 -0)
(-6.52577e-29 -1.70091e-14 -0)
(-2.44777e-29 -1.70133e-14 -0)
(5.47024e-29 -1.7623e-14 -0)
(3.28214e-29 -1.7623e-14 -0)
(2.73512e-30 -1.7623e-14 -0)
(-3.14539e-29 -1.7623e-14 -0)
(-2.32485e-29 -1.7623e-14 -0)
(4.78646e-29 -1.7623e-14 -0)
(2.59836e-29 -1.7623e-14 -0)
(-4.10268e-29 -1.7623e-14 -0)
(-0 -1.7623e-14 -0)
(1.09405e-29 -1.7623e-14 -0)
(-4.6497e-29 -1.7623e-14 -0)
(-4.51295e-29 -1.7623e-14 -0)
(-8.20539e-29 -1.76231e-14 -0)
(-7.24839e-29 -1.76238e-14 -0)
(-2.32559e-29 -1.76286e-14 -0)
(6.18949e-29 -1.82567e-14 -0)
(3.7137e-29 -1.82567e-14 -0)
(-2.75089e-30 -1.82567e-14 -0)
(-4.12633e-29 -1.82567e-14 -0)
(-2.4758e-29 -1.82567e-14 -0)
(4.95159e-29 -1.82567e-14 -0)
(3.7137e-29 -1.82567e-14 -0)
(-3.43861e-29 -1.82567e-14 -0)
(1.37544e-30 -1.82567e-14 -0)
(6.87721e-30 -1.82567e-14 -0)
(-6.05195e-29 -1.82567e-14 -0)
(-4.81405e-29 -1.82567e-14 -0)
(-8.66533e-29 -1.82568e-14 -0)
(-7.97799e-29 -1.82576e-14 -0)
(-2.88944e-29 -1.8263e-14 -0)
(6.22448e-29 -1.8911e-14 -0)
(3.87301e-29 -1.8911e-14 -0)
(5.53288e-30 -1.8911e-14 -0)
(-4.97959e-29 -1.8911e-14 -0)
(-4.01133e-29 -1.8911e-14 -0)
(5.25623e-29 -1.8911e-14 -0)
(5.25623e-29 -1.8911e-14 -0)
(-3.73469e-29 -1.8911e-14 -0)
(-0 -1.8911e-14 -0)
(5.53288e-30 -1.8911e-14 -0)
(-7.19274e-29 -1.8911e-14 -0)
(-4.84127e-29 -1.8911e-14 -0)
(-9.40595e-29 -1.89111e-14 -0)
(-8.7148e-29 -1.89121e-14 -0)
(-2.90587e-29 -1.89183e-14 -0)
(7.51122e-29 -1.95878e-14 -0)
(4.86838e-29 -1.95878e-14 -0)
(4.1729e-30 -1.95878e-14 -0)
(-5.42477e-29 -1.95878e-14 -0)
(-5.14657e-29 -1.95878e-14 -0)
(5.00748e-29 -1.95878e-14 -0)
(6.25935e-29 -1.95878e-14 -0)
(-2.78193e-29 -1.95878e-14 -0)
(5.56386e-30 -1.95878e-14 -0)
(-6.95483e-30 -1.95878e-14 -0)
(-8.0676e-29 -1.95878e-14 -0)
(-4.72929e-29 -1.95878e-14 -0)
(-9.73684e-29 -1.95879e-14 -0)
(-9.45923e-29 -1.95891e-14 -0)
(-3.47888e-29 -1.9596e-14 -0)
(8.39256e-29 -2.02888e-14 -0)
(5.87479e-29 -2.02888e-14 -0)
(-0 -2.02888e-14 -0)
(-5.59504e-29 -2.02888e-14 -0)
(-6.71405e-29 -2.02888e-14 -0)
(5.03554e-29 -2.02888e-14 -0)
(8.11281e-29 -2.02888e-14 -0)
(-2.23802e-29 -2.02888e-14 -0)
(2.79752e-30 -2.02888e-14 -0)
(-8.39256e-30 -2.02888e-14 -0)
(-8.67231e-29 -2.02888e-14 -0)
(-5.31529e-29 -2.02888e-14 -0)
(-1.09104e-28 -2.0289e-14 -0)
(-1.03517e-28 -2.02904e-14 -0)
(-3.63845e-29 -2.02981e-14 -0)
(8.15868e-29 -2.1016e-14 -0)
(6.75201e-29 -2.1016e-14 -0)
(1.12534e-29 -2.1016e-14 -0)
(-7.87735e-29 -2.1016e-14 -0)
(-6.75201e-29 -2.1016e-14 -0)
(5.90801e-29 -2.1016e-14 -0)
(7.87735e-29 -2.1016e-14 -0)
(-1.12534e-29 -2.1016e-14 -0)
(-5.62668e-30 -2.1016e-14 -0)
(-1.688e-29 -2.1016e-14 -0)
(-9.28402e-29 -2.1016e-14 -0)
(-6.18935e-29 -2.1016e-14 -0)
(-1.15348e-28 -2.10162e-14 -0)
(-1.04103e-28 -2.10179e-14 -0)
(-3.37771e-29 -2.10266e-14 -0)
(8.77151e-29 -2.17713e-14 -0)
(7.0738e-29 -2.17713e-14 -0)
(2.82952e-30 -2.17713e-14 -0)
(-6.79085e-29 -2.17713e-14 -0)
(-8.77151e-29 -2.17713e-14 -0)
(3.96133e-29 -2.17713e-14 -0)
(1.13181e-28 -2.17713e-14 -0)
(-5.65904e-30 -2.17713e-14 -0)
(-1.41476e-29 -2.17713e-14 -0)
(-1.69771e-29 -2.17713e-14 -0)
(-1.01863e-28 -2.17713e-14 -0)
(-5.942e-29 -2.17713e-14 -0)
(-1.18841e-28 -2.17716e-14 -0)
(-1.30172e-28 -2.17736e-14 -0)
(-4.52973e-29 -2.17833e-14 -0)
(8.82316e-29 -2.25569e-14 -0)
(6.83084e-29 -2.25569e-14 -0)
(1.99233e-29 -2.25569e-14 -0)
(-7.40007e-29 -2.25569e-14 -0)
(-1.05309e-28 -2.25569e-14 -0)
(3.98466e-29 -2.25569e-14 -0)
(1.22386e-28 -2.25569e-14 -0)
(5.69236e-30 -2.25569e-14 -0)
(-1.42309e-29 -2.25569e-14 -0)
(-1.99233e-29 -2.25569e-14 -0)
(-1.08155e-28 -2.25569e-14 -0)
(-6.83085e-29 -2.25569e-14 -0)
(-1.25234e-28 -2.25572e-14 -0)
(-1.25247e-28 -2.25596e-14 -0)
(-5.12622e-29 -2.25705e-14 -0)
(8.59031e-29 -2.33748e-14 -0)
(7.73128e-29 -2.33748e-14 -0)
(1.71806e-29 -2.33748e-14 -0)
(-6.29956e-29 -2.33748e-14 -0)
(-1.20264e-28 -2.33748e-14 -0)
(3.43612e-29 -2.33748e-14 -0)
(1.37445e-28 -2.33748e-14 -0)
(8.59031e-30 -2.33748e-14 -0)
(-2.00441e-29 -2.33748e-14 -0)
(-2.29075e-29 -2.33748e-14 -0)
(-1.14538e-28 -2.33748e-14 -0)
(-8.30399e-29 -2.33749e-14 -0)
(-1.28857e-28 -2.33753e-14 -0)
(-1.40328e-28 -2.33781e-14 -0)
(-6.01718e-29 -2.33902e-14 -0)
(8.35602e-29 -2.42274e-14 -0)
(9.22044e-29 -2.42274e-14 -0)
(3.45766e-29 -2.42274e-14 -0)
(-9.50858e-29 -2.42274e-14 -0)
(-1.21018e-28 -2.42274e-14 -0)
(4.61022e-29 -2.42274e-14 -0)
(1.41188e-28 -2.42274e-14 -0)
(2.59325e-29 -2.42274e-14 -0)
(-2.88139e-30 -2.42274e-14 -0)
(-5.47464e-29 -2.42274e-14 -0)
(-1.38307e-28 -2.42274e-14 -0)
(-8.06791e-29 -2.42275e-14 -0)
(-1.35428e-28 -2.4228e-14 -0)
(-1.38328e-28 -2.42312e-14 -0)
(-4.32518e-29 -2.42448e-14 -0)
(9.2804e-29 -2.51169e-14 -0)
(9.2804e-29 -2.51169e-14 -0)
(2.61011e-29 -2.51169e-14 -0)
(-9.2804e-29 -2.51169e-14 -0)
(-1.42106e-28 -2.51169e-14 -0)
(4.35019e-29 -2.51169e-14 -0)
(1.59507e-28 -2.51169e-14 -0)
(2.61011e-29 -2.51169e-14 -0)
(-5.80025e-30 -2.51169e-14 -0)
(-5.22023e-29 -2.51169e-14 -0)
(-1.59507e-28 -2.5117e-14 -0)
(-9.28043e-29 -2.5117e-14 -0)
(-1.24709e-28 -2.51176e-14 -0)
(-1.42132e-28 -2.51215e-14 -0)
(-6.38527e-29 -2.51366e-14 -0)
(9.34317e-29 -2.60459e-14 -0)
(1.05111e-28 -2.60459e-14 -0)
(1.75184e-29 -2.60459e-14 -0)
(-1.05111e-28 -2.60459e-14 -0)
(-1.40148e-28 -2.60459e-14 -0)
(4.67159e-29 -2.60459e-14 -0)
(1.69345e-28 -2.60459e-14 -0)
(3.50369e-29 -2.60459e-14 -0)
(1.1679e-29 -2.60459e-14 -0)
(-5.25553e-29 -2.60459e-14 -0)
(-1.98543e-28 -2.60459e-14 -0)
(-1.10951e-28 -2.6046e-14 -0)
(-1.22633e-28 -2.60467e-14 -0)
(-1.46017e-28 -2.60512e-14 -0)
(-7.5978e-29 -2.60681e-14 -0)
(9.40901e-29 -2.70167e-14 -0)
(1.29374e-28 -2.70167e-14 -0)
(2.94031e-29 -2.70167e-14 -0)
(-1.17613e-28 -2.70167e-14 -0)
(-1.58777e-28 -2.70167e-14 -0)
(5.29257e-29 -2.70167e-14 -0)
(1.70538e-28 -2.70167e-14 -0)
(4.7045e-29 -2.70167e-14 -0)
(1.76419e-29 -2.70167e-14 -0)
(-8.82094e-29 -2.70167e-14 -0)
(-1.99942e-28 -2.70167e-14 -0)
(-8.82099e-29 -2.70169e-14 -0)
(-1.58783e-28 -2.70178e-14 -0)
(-1.4705e-28 -2.7023e-14 -0)
(-3.53165e-29 -2.70418e-14 -0)
(9.47815e-29 -2.80322e-14 -0)
(1.24401e-28 -2.80322e-14 -0)
(1.77715e-29 -2.80322e-14 -0)
(-1.12553e-28 -2.80322e-14 -0)
(-1.71791e-28 -2.80322e-14 -0)
(4.14669e-29 -2.80322e-14 -0)
(1.89563e-28 -2.80322e-14 -0)
(5.33146e-29 -2.80322e-14 -0)
(2.36954e-29 -2.80322e-14 -0)
(-1.00705e-28 -2.80322e-14 -0)
(-2.25106e-28 -2.80322e-14 -0)
(-8.88582e-29 -2.80324e-14 -0)
(-1.59951e-28 -2.80335e-14 -0)
(-1.65912e-28 -2.80396e-14 -0)
(-4.74385e-29 -2.80604e-14 -0)
(1.07447e-28 -2.9095e-14 -0)
(1.13416e-28 -2.9095e-14 -0)
(5.96926e-30 -2.9095e-14 -0)
(-8.95389e-29 -2.9095e-14 -0)
(-1.96986e-28 -2.9095e-14 -0)
(2.3877e-29 -2.9095e-14 -0)
(2.26832e-28 -2.9095e-14 -0)
(8.35697e-29 -2.9095e-14 -0)
(1.79078e-29 -2.9095e-14 -0)
(-1.13416e-28 -2.9095e-14 -0)
(-2.38771e-28 -2.90951e-14 -0)
(-1.07448e-28 -2.90953e-14 -0)
(-1.5521e-28 -2.90967e-14 -0)
(-1.55248e-28 -2.91038e-14 -0)
(-4.78064e-29 -2.91269e-14 -0)
(1.26358e-28 -3.02082e-14 -0)
(1.50426e-28 -3.02082e-14 -0)
(1.20341e-29 -3.02082e-14 -0)
(-9.62724e-29 -3.02082e-14 -0)
(-2.04579e-28 -3.02082e-14 -0)
(-1.20341e-29 -3.02082e-14 -0)
(2.28647e-28 -3.02082e-14 -0)
(1.20341e-28 -3.02082e-14 -0)
(3.00851e-29 -3.02082e-14 -0)
(-1.38392e-28 -3.02082e-14 -0)
(-2.70767e-28 -3.02082e-14 -0)
(-1.02291e-28 -3.02085e-14 -0)
(-1.56454e-28 -3.02103e-14 -0)
(-1.68535e-28 -3.02185e-14 -0)
(-5.42177e-29 -3.02441e-14 -0)
(1.27413e-28 -3.13747e-14 -0)
(1.69883e-28 -3.13747e-14 -0)
(3.64036e-29 -3.13747e-14 -0)
(-9.70763e-29 -3.13747e-14 -0)
(-2.36623e-28 -3.13747e-14 -0)
(-0 -3.13747e-14 -0)
(2.36623e-28 -3.13747e-14 -0)
(1.57749e-28 -3.13747e-14 -0)
(6.06727e-29 -3.13747e-14 -0)
(-2.0022e-28 -3.13747e-14 -0)
(-3.03364e-28 -3.13748e-14 -0)
(-8.49429e-29 -3.13752e-14 -0)
(-1.88101e-28 -3.13773e-14 -0)
(-2.00298e-28 -3.13869e-14 -0)
(-3.64506e-29 -3.14153e-14 -0)
(1.10162e-28 -3.2598e-14 -0)
(1.83603e-28 -3.2598e-14 -0)
(5.5081e-29 -3.2598e-14 -0)
(-9.18016e-29 -3.2598e-14 -0)
(-2.20324e-28 -3.2598e-14 -0)
(-2.44804e-29 -3.2598e-14 -0)
(2.01964e-28 -3.2598e-14 -0)
(1.89723e-28 -3.2598e-14 -0)
(9.18016e-29 -3.2598e-14 -0)
(-2.32564e-28 -3.2598e-14 -0)
(-3.12126e-28 -3.25981e-14 -0)
(-8.5683e-29 -3.25985e-14 -0)
(-2.08104e-28 -3.26012e-14 -0)
(-2.08175e-28 -3.26123e-14 -0)
(-4.29008e-29 -3.26437e-14 -0)
(1.29689e-28 -3.38814e-14 -0)
(2.09973e-28 -3.38814e-14 -0)
(5.55811e-29 -3.38814e-14 -0)
(-8.02838e-29 -3.38814e-14 -0)
(-2.59378e-28 -3.38814e-14 -0)
(-4.32297e-29 -3.38814e-14 -0)
(2.40851e-28 -3.38814e-14 -0)
(1.91446e-28 -3.38814e-14 -0)
(1.11162e-28 -3.38814e-14 -0)
(-2.16149e-28 -3.38814e-14 -0)
(-3.64366e-28 -3.38815e-14 -0)
(-9.26372e-29 -3.38821e-14 -0)
(-2.77938e-28 -3.38853e-14 -0)
(-1.85362e-28 -3.38982e-14 -0)
(2.47403e-29 -3.39329e-14 -0)
(1.3715e-28 -3.52285e-14 -0)
(1.99491e-28 -3.52285e-14 -0)
(7.48092e-29 -3.52285e-14 -0)
(-6.2341e-29 -3.52285e-14 -0)
(-3.11705e-28 -3.52285e-14 -0)
(-6.2341e-29 -3.52285e-14 -0)
(2.61832e-28 -3.52285e-14 -0)
(2.49364e-28 -3.52285e-14 -0)
(9.97457e-29 -3.52285e-14 -0)
(-2.49364e-28 -3.52286e-14 -0)
(-3.49111e-28 -3.52287e-14 -0)
(-1.24685e-28 -3.52295e-14 -0)
(-2.49399e-28 -3.52334e-14 -0)
(-2.24554e-28 -3.52483e-14 -0)
(-0 -3.52866e-14 -0)
(1.76274e-28 -3.66434e-14 -0)
(2.26638e-28 -3.66434e-14 -0)
(7.55461e-29 -3.66434e-14 -0)
(-7.55461e-29 -3.66434e-14 -0)
(-3.27367e-28 -3.66434e-14 -0)
(-5.03641e-29 -3.66434e-14 -0)
(2.39229e-28 -3.66434e-14 -0)
(2.5182e-28 -3.66434e-14 -0)
(1.76274e-28 -3.66434e-14 -0)
(-2.89594e-28 -3.66435e-14 -0)
(-4.28097e-28 -3.66437e-14 -0)
(-7.55487e-29 -3.66447e-14 -0)
(-2.39268e-28 -3.66494e-14 -0)
(-2.26782e-28 -3.66666e-14 -0)
(1.26135e-29 -3.67088e-14 -0)
(2.03521e-28 -3.81302e-14 -0)
(2.28961e-28 -3.81302e-14 -0)
(8.90405e-29 -3.81302e-14 -0)
(-3.81602e-29 -3.81302e-14 -0)
(-3.43442e-28 -3.81302e-14 -0)
(-1.14481e-28 -3.81302e-14 -0)
(2.92562e-28 -3.81302e-14 -0)
(3.30722e-28 -3.81302e-14 -0)
(2.03521e-28 -3.81302e-14 -0)
(-3.18002e-28 -3.81303e-14 -0)
(-5.21527e-28 -3.81305e-14 -0)
(-1.14485e-28 -3.81318e-14 -0)
(-2.29005e-28 -3.81375e-14 -0)
(-2.29124e-28 -3.81573e-14 -0)
(1.27446e-29 -3.82039e-14 -0)
(2.57112e-28 -3.96933e-14 -0)
(2.57112e-28 -3.96933e-14 -0)
(1.02845e-28 -3.96933e-14 -0)
(2.57112e-29 -3.96933e-14 -0)
(-3.85668e-28 -3.96933e-14 -0)
(-1.54267e-28 -3.96933e-14 -0)
(3.2139e-28 -3.96933e-14 -0)
(3.08534e-28 -3.96933e-14 -0)
(1.92834e-28 -3.96933e-14 -0)
(-2.57112e-28 -3.96933e-14 -0)
(-5.52796e-28 -3.96937e-14 -0)
(-1.28563e-28 -3.96953e-14 -0)
(-2.31453e-28 -3.97022e-14 -0)
(-2.83049e-28 -3.97249e-14 -0)
(1.28825e-29 -3.97763e-14 -0)
(2.4696e-28 -4.13373e-14 -0)
(3.50944e-28 -4.13373e-14 -0)
(1.42977e-28 -4.13373e-14 -0)
(-2.59958e-29 -4.13373e-14 -0)
(-4.15933e-28 -4.13373e-14 -0)
(-1.42977e-28 -4.13373e-14 -0)
(2.59958e-28 -4.13373e-14 -0)
(3.50944e-28 -4.13373e-14 -0)
(2.98952e-28 -4.13373e-14 -0)
(-2.46961e-28 -4.13374e-14 -0)
(-6.23908e-28 -4.13379e-14 -0)
(-1.55985e-28 -4.13399e-14 -0)
(-2.34024e-28 -4.13483e-14 -0)
(-2.34172e-28 -4.13743e-14 -0)
(1.30273e-29 -4.14308e-14 -0)
(2.62946e-28 -4.30675e-14 -0)
(3.28682e-28 -4.30675e-14 -0)
(1.70915e-28 -4.30675e-14 -0)
(-1.31473e-29 -4.30675e-14 -0)
(-4.47008e-28 -4.30675e-14 -0)
(-1.18326e-28 -4.30675e-14 -0)
(3.15535e-28 -4.30675e-14 -0)
(3.54977e-28 -4.30675e-14 -0)
(3.41829e-28 -4.30675e-14 -0)
(-2.49799e-28 -4.30676e-14 -0)
(-6.8367e-28 -4.30682e-14 -0)
(-1.97225e-28 -4.30708e-14 -0)
(-2.63027e-28 -4.30808e-14 -0)
(-2.23728e-28 -4.31106e-14 -0)
(5.27177e-29 -4.31728e-14 -0)
(3.05992e-28 -4.48891e-14 -0)
(3.59208e-28 -4.48891e-14 -0)
(1.46344e-28 -4.48891e-14 -0)
(1.3304e-29 -4.48891e-14 -0)
(-4.39032e-28 -4.48891e-14 -0)
(-1.86256e-28 -4.48891e-14 -0)
(3.72512e-28 -4.48891e-14 -0)
(4.52336e-28 -4.48891e-14 -0)
(3.59209e-28 -4.48891e-14 -0)
(-2.66081e-28 -4.48892e-14 -0)
(-7.45041e-28 -4.489e-14 -0)
(-2.39495e-28 -4.48933e-14 -0)
(-2.39559e-28 -4.49053e-14 -0)
(-2.93016e-28 -4.49393e-14 -0)
(-1.33392e-29 -4.50077e-14 -0)
(2.82837e-28 -4.68079e-14 -0)
(4.44458e-28 -4.68079e-14 -0)
(2.28963e-28 -4.68079e-14 -0)
(-0 -4.68079e-14 -0)
(-4.57926e-28 -4.68079e-14 -0)
(-1.88558e-28 -4.68079e-14 -0)
(3.23242e-28 -4.68079e-14 -0)
(4.84863e-28 -4.68079e-14 -0)
(4.84863e-28 -4.68079e-14 -0)
(-3.23244e-28 -4.68081e-14 -0)
(-8.35064e-28 -4.68091e-14 -0)
(-2.1552e-28 -4.68133e-14 -0)
(-2.56008e-28 -4.68276e-14 -0)
(-2.42735e-28 -4.68664e-14 -0)
(4.05206e-29 -4.69415e-14 -0)
(3.81943e-28 -4.88301e-14 -0)
(4.63788e-28 -4.88301e-14 -0)
(2.18253e-28 -4.88301e-14 -0)
(-1.36408e-29 -4.88301e-14 -0)
(-4.63788e-28 -4.88301e-14 -0)
(-2.04612e-28 -4.88301e-14 -0)
(4.36506e-28 -4.88301e-14 -0)
(6.13837e-28 -4.88301e-14 -0)
(3.81943e-28 -4.88301e-14 -0)
(-4.22869e-28 -4.88304e-14 -0)
(-8.59401e-28 -4.88318e-14 -0)
(-2.31926e-28 -4.88369e-14 -0)
(-2.45655e-28 -4.8854e-14 -0)
(-2.59537e-28 -4.88981e-14 -0)
(-0 -4.89806e-14 -0)
(4.28468e-28 -5.09622e-14 -0)
(5.80505e-28 -5.09622e-14 -0)
(1.7968e-28 -5.09622e-14 -0)
(-1.38216e-29 -5.09622e-14 -0)
(-4.83754e-28 -5.09622e-14 -0)
(-1.93502e-28 -5.09622e-14 -0)
(4.97576e-28 -5.09622e-14 -0)
(6.49613e-28 -5.09622e-14 -0)
(4.42291e-28 -5.09623e-14 -0)
(-5.11403e-28 -5.09628e-14 -0)
(-8.98441e-28 -5.09645e-14 -0)
(-1.93535e-28 -5.09709e-14 -0)
(-2.351e-28 -5.09911e-14 -0)
(-2.7686e-28 -5.10412e-14 -0)
(-2.7735e-29 -5.11317e-14 -0)
(5.04396e-28 -5.32114e-14 -0)
(6.16484e-28 -5.32114e-14 -0)
(1.96154e-28 -5.32114e-14 -0)
(2.8022e-29 -5.32114e-14 -0)
(-5.32418e-28 -5.32114e-14 -0)
(-3.08242e-28 -5.32114e-14 -0)
(5.6044e-28 -5.32114e-14 -0)
(7.84616e-28 -5.32115e-14 -0)
(4.20331e-28 -5.32116e-14 -0)
(-5.04403e-28 -5.32122e-14 -0)
(-9.52801e-28 -5.32144e-14 -0)
(-2.80277e-28 -5.32224e-14 -0)
(-2.52363e-28 -5.32463e-14 -0)
(-1.40351e-28 -5.33031e-14 -0)
(5.6245e-29 -5.34023e-14 -0)
(6.53637e-28 -5.55852e-14 -0)
(6.82056e-28 -5.55852e-14 -0)
(1.42095e-28 -5.55852e-14 -0)
(-2.8419e-29 -5.55852e-14 -0)
(-5.11542e-28 -5.55852e-14 -0)
(-2.8419e-28 -5.55852e-14 -0)
(5.39961e-28 -5.55852e-14 -0)
(7.67313e-28 -5.55852e-14 -0)
(5.39963e-28 -5.55854e-14 -0)
(-5.3997e-28 -5.55862e-14 -0)
(-9.94734e-28 -5.55891e-14 -0)
(-2.55834e-28 -5.55989e-14 -0)
(-2.55964e-28 -5.56272e-14 -0)
(-1.7084e-28 -5.56914e-14 -0)
(-0 -5.58002e-14 -0)
(6.92037e-28 -5.80916e-14 -0)
(7.49707e-28 -5.80916e-14 -0)
(2.30679e-28 -5.80916e-14 -0)
(-5.76698e-29 -5.80916e-14 -0)
(-5.47863e-28 -5.80916e-14 -0)
(-4.03688e-28 -5.80916e-14 -0)
(5.76698e-28 -5.80916e-14 -0)
(8.36213e-28 -5.80917e-14 -0)
(5.47866e-28 -5.80919e-14 -0)
(-5.1904e-28 -5.8093e-14 -0)
(-1.00931e-27 -5.80967e-14 -0)
(-2.88434e-28 -5.81088e-14 -0)
(-2.59739e-28 -5.8142e-14 -0)
(-2.02271e-28 -5.82145e-14 -0)
(8.68651e-29 -5.83337e-14 -0)
(7.61033e-28 -6.07393e-14 -0)
(9.07385e-28 -6.07393e-14 -0)
(1.17082e-28 -6.07393e-14 -0)
(2.92705e-29 -6.07393e-14 -0)
(-4.68328e-28 -6.07393e-14 -0)
(-4.97598e-28 -6.07393e-14 -0)
(4.97599e-28 -6.07393e-14 -0)
(8.48846e-28 -6.07394e-14 -0)
(5.26873e-28 -6.07398e-14 -0)
(-4.97614e-28 -6.07411e-14 -0)
(-1.02458e-27 -6.07459e-14 -0)
(-3.22089e-28 -6.07608e-14 -0)
(-1.75798e-28 -6.07997e-14 -0)
(-1.46695e-28 -6.08813e-14 -0)
(2.94019e-29 -6.10119e-14 -0)
(7.72892e-28 -6.35374e-14 -0)
(8.91798e-28 -6.35374e-14 -0)
(2.08086e-28 -6.35374e-14 -0)
(-5.94532e-29 -6.35374e-14 -0)
(-4.45899e-28 -6.35374e-14 -0)
(-5.35079e-28 -6.35374e-14 -0)
(5.35079e-28 -6.35375e-14 -0)
(8.62074e-28 -6.35376e-14 -0)
(4.16177e-28 -6.35381e-14 -0)
(-5.05373e-28 -6.354e-14 -0)
(-8.9192e-28 -6.35461e-14 -0)
(-3.2713e-28 -6.35642e-14 -0)
(-2.08323e-28 -6.36096e-14 -0)
(-1.49017e-28 -6.37014e-14 -0)
(-5.97405e-29 -6.38444e-14 -0)
(7.55103e-28 -6.64959e-14 -0)
(1.05714e-27 -6.64959e-14 -0)
(3.92654e-28 -6.64959e-14 -0)
(-3.02041e-29 -6.64959e-14 -0)
(-5.73878e-28 -6.64959e-14 -0)
(-4.22858e-28 -6.64959e-14 -0)
(5.13471e-28 -6.6496e-14 -0)
(9.06127e-28 -6.64962e-14 -0)
(4.53068e-28 -6.64969e-14 -0)
(-5.43702e-28 -6.64993e-14 -0)
(-9.06276e-28 -6.65071e-14 -0)
(-3.02192e-28 -6.65291e-14 -0)
(-3.32676e-28 -6.6582e-14 -0)
(-1.2116e-28 -6.66851e-14 -0)
(2.12528e-28 -6.68416e-14 -0)
(8.90413e-28 -6.96253e-14 -0)
(1.13604e-27 -6.96253e-14 -0)
(3.37743e-28 -6.96253e-14 -0)
(-3.07039e-29 -6.96253e-14 -0)
(-5.5267e-28 -6.96253e-14 -0)
(-4.29855e-28 -6.96253e-14 -0)
(3.99151e-28 -6.96254e-14 -0)
(8.59714e-28 -6.96256e-14 -0)
(5.21976e-28 -6.96266e-14 -0)
(-4.91295e-28 -6.96298e-14 -0)
(-9.52018e-28 -6.96396e-14 -0)
(-2.45776e-28 -6.96663e-14 -0)
(-2.76742e-28 -6.97277e-14 -0)
(-1.232e-28 -6.98432e-14 -0)
(6.17511e-29 -7.00145e-14 -0)
(9.36805e-28 -7.29367e-14 -0)
(1.18662e-27 -7.29367e-14 -0)
(1.87361e-28 -7.29367e-14 -0)
(1.24907e-28 -7.29367e-14 -0)
(-3.12268e-28 -7.29367e-14 -0)
(-5.62083e-28 -7.29367e-14 -0)
(4.9963e-28 -7.29368e-14 -0)
(6.24541e-28 -7.29372e-14 -0)
(4.05959e-28 -7.29385e-14 -0)
(-2.18606e-28 -7.29427e-14 -0)
(-9.99511e-28 -7.29551e-14 -0)
(-3.74982e-28 -7.29872e-14 -0)
(-1.87674e-28 -7.30583e-14 -0)
(-9.40027e-29 -7.31875e-14 -0)
(1.57072e-28 -7.33749e-14 -0)
(9.8499e-28 -7.64421e-14 -0)
(1.20741e-27 -7.64421e-14 -0)
(3.81287e-28 -7.64421e-14 -0)
(-6.35478e-29 -7.64421e-14 -0)
(-3.17739e-28 -7.64421e-14 -0)
(-4.13061e-28 -7.64421e-14 -0)
(2.85966e-28 -7.64423e-14 -0)
(5.08387e-28 -7.64428e-14 -0)
(4.76624e-28 -7.64446e-14 -0)
(-3.17772e-28 -7.64501e-14 -0)
(-8.58158e-28 -7.64656e-14 -0)
(-1.27199e-28 -7.65041e-14 -0)
(-2.5467e-28 -7.65862e-14 -0)
(-6.37875e-29 -7.67305e-14 -0)
(1.59895e-28 -7.69355e-14 -0)
(1.06742e-27 -8.01542e-14 -0)
(1.1968e-27 -8.01542e-14 -0)
(3.23459e-28 -8.01543e-14 -0)
(1.94076e-28 -8.01543e-14 -0)
(-4.20497e-28 -8.01543e-14 -0)
(-5.49882e-28 -8.01543e-14 -0)
(2.58769e-28 -8.01546e-14 -0)
(3.88156e-28 -8.01553e-14 -0)
(4.8521e-28 -8.01578e-14 -0)
(-0 -8.01649e-14 -0)
(-6.79518e-28 -8.01841e-14 -0)
(-3.23766e-28 -8.02301e-14 -0)
(-2.91732e-28 -8.03247e-14 -0)
(-0 -8.04855e-14 -0)
(1.9542e-28 -8.07097e-14 -0)
(9.88319e-28 -8.40867e-14 -0)
(1.18598e-27 -8.40867e-14 -0)
(5.27104e-28 -8.40867e-14 -0)
(1.31776e-28 -8.40867e-14 -0)
(-2.63552e-28 -8.40867e-14 -0)
(-6.5888e-28 -8.40868e-14 -0)
(-0 -8.40872e-14 -0)
(3.95335e-28 -8.40882e-14 -0)
(4.61242e-28 -8.40915e-14 -0)
(-0 -8.41007e-14 -0)
(-5.2734e-28 -8.41245e-14 -0)
(-1.97881e-28 -8.41792e-14 -0)
(-2.64182e-28 -8.42877e-14 -0)
(6.61857e-29 -8.44667e-14 -0)
(1.32755e-28 -8.47118e-14 -0)
(9.3993e-28 -8.82538e-14 -0)
(1.20848e-27 -8.82538e-14 -0)
(3.35689e-28 -8.82538e-14 -0)
(4.02827e-28 -8.82538e-14 -0)
(-1.34276e-28 -8.82538e-14 -0)
(-6.7138e-28 -8.8254e-14 -0)
(1.34277e-28 -8.82545e-14 -0)
(-6.71395e-29 -8.82559e-14 -0)
(4.02857e-28 -8.82603e-14 -0)
(1.34303e-28 -8.8272e-14 -0)
(-4.03044e-28 -8.83013e-14 -0)
(-1.34447e-28 -8.83662e-14 -0)
(-1.34635e-28 -8.84902e-14 -0)
(6.74691e-29 -8.86892e-14 -0)
(2.03019e-28 -8.89571e-14 -0)
(8.89765e-28 -9.26707e-14 -0)
(1.23198e-27 -9.26707e-14 -0)
(4.79104e-28 -9.26707e-14 -0)
(3.42217e-28 -9.26707e-14 -0)
(-3.42218e-28 -9.26708e-14 -0)
(-6.84437e-28 -9.2671e-14 -0)
(1.36888e-28 -9.26717e-14 -0)
(1.36891e-28 -9.26737e-14 -0)
(3.42249e-28 -9.26794e-14 -0)
(6.84609e-29 -9.26944e-14 -0)
(-4.79412e-28 -9.27302e-14 -0)
(-6.8544e-29 -9.28068e-14 -0)
(-0 -9.29482e-14 -0)
(6.88115e-29 -9.3169e-14 -0)
(6.90277e-29 -9.34617e-14 -0)
(9.77291e-28 -9.73534e-14 -0)
(1.25652e-27 -9.73534e-14 -0)
(6.28259e-28 -9.73534e-14 -0)
(2.0942e-28 -9.73534e-14 -0)
(-3.49033e-28 -9.73535e-14 -0)
(-4.88648e-28 -9.73538e-14 -0)
(-0 -9.73548e-14 -0)
(-0 -9.73575e-14 -0)
(2.7926e-28 -9.7365e-14 -0)
(2.09485e-28 -9.7384e-14 -0)
(-2.79439e-28 -9.74277e-14 -0)
(-6.99243e-29 -9.75176e-14 -0)
(-7.00396e-29 -9.76784e-14 -0)
(1.4043e-28 -9.7923e-14 -0)
(1.40888e-28 -9.82426e-14 -0)
(9.97203e-28 -1.02319e-13 -0)
(1.21089e-27 -1.02319e-13 -0)
(4.98601e-28 -1.02319e-13 -0)
(2.13686e-28 -1.02319e-13 -0)
(-2.84916e-28 -1.02319e-13 -0)
(-3.56146e-28 -1.02319e-13 -0)
(-2.1369e-28 -1.02321e-13 -0)
(-7.12327e-29 -1.02324e-13 -0)
(2.13719e-28 -1.02334e-13 -0)
(3.5628e-28 -1.02358e-13 -0)
(-0 -1.02411e-13 -0)
(-7.13662e-29 -1.02516e-13 -0)
(-1.42986e-28 -1.02698e-13 -0)
(2.15044e-28 -1.02969e-13 -0)
(7.19242e-29 -1.03318e-13 -0)
(8.72539e-28 -1.07584e-13 -0)
(1.01796e-27 -1.07584e-13 -0)
(4.3627e-28 -1.07584e-13 -0)
(2.18135e-28 -1.07584e-13 -0)
(-4.36271e-28 -1.07584e-13 -0)
(-3.63561e-28 -1.07585e-13 -0)
(2.1814e-28 -1.07587e-13 -0)
(-2.90867e-28 -1.07592e-13 -0)
(7.27254e-29 -1.07604e-13 -0)
(5.09218e-28 -1.07634e-13 -0)
(-7.27885e-29 -1.07698e-13 -0)
(-2.18614e-28 -1.0782e-13 -0)
(2.19031e-28 -1.08026e-13 -0)
(-0 -1.08325e-13 -0)
(-2.20408e-28 -1.08705e-13 -0)
(8.91073e-28 -1.13167e-13 -0)
(6.68305e-28 -1.13167e-13 -0)
(5.94049e-28 -1.13167e-13 -0)
(4.45537e-28 -1.13167e-13 -0)
(-4.45539e-28 -1.13168e-13 -0)
(-4.45542e-28 -1.13169e-13 -0)
(-7.42587e-29 -1.13171e-13 -0)
(-1.48526e-28 -1.13178e-13 -0)
(7.42736e-29 -1.13194e-13 -0)
(5.94382e-28 -1.13231e-13 -0)
(2.97391e-28 -1.13307e-13 -0)
(-2.97763e-28 -1.13449e-13 -0)
(-0 -1.1368e-13 -0)
(-2.24426e-28 -1.14009e-13 -0)
(-5.25563e-28 -1.14424e-13 -0)
(5.31041e-28 -1.19087e-13 -0)
(6.82767e-28 -1.19087e-13 -0)
(5.31041e-28 -1.19087e-13 -0)
(3.79316e-28 -1.19087e-13 -0)
(-7.58634e-29 -1.19087e-13 -0)
(-3.79321e-28 -1.19089e-13 -0)
(-1.51733e-28 -1.19092e-13 -0)
(-3.03488e-28 -1.19101e-13 -0)
(-0 -1.19121e-13 -0)
(3.79569e-28 -1.19166e-13 -0)
(1.51943e-28 -1.19257e-13 -0)
(7.60757e-29 -1.19421e-13 -0)
(3.81205e-28 -1.1968e-13 -0)
(-7.64713e-29 -1.20042e-13 -0)
(-3.8379e-28 -1.20492e-13 -0)
(6.97788e-28 -1.2536e-13 -0)
(4.65192e-28 -1.2536e-13 -0)
(3.8766e-28 -1.2536e-13 -0)
(2.32597e-28 -1.2536e-13 -0)
(7.75326e-29 -1.25361e-13 -0)
(-3.87668e-28 -1.25363e-13 -0)
(-3.10146e-28 -1.25367e-13 -0)
(-7.75435e-29 -1.25378e-13 -0)
(-0 -1.25404e-13 -0)
(4.65561e-28 -1.25459e-13 -0)
(7.76598e-29 -1.25567e-13 -0)
(-7.77756e-29 -1.25754e-13 -0)
(3.11819e-28 -1.26044e-13 -0)
(-3.12799e-28 -1.26439e-13 -0)
(-5.4951e-28 -1.26927e-13 -0)
(4.75571e-28 -1.32004e-13 -0)
(2.37785e-28 -1.32004e-13 -0)
(8.7188e-28 -1.32004e-13 -0)
(4.75572e-28 -1.32004e-13 -0)
(-2.37788e-28 -1.32005e-13 -0)
(-1.58528e-28 -1.32007e-13 -0)
(-3.96338e-28 -1.32013e-13 -0)
(-4.75658e-28 -1.32028e-13 -0)
(2.37887e-28 -1.3206e-13 -0)
(6.34685e-28 -1.32127e-13 -0)
(-0 -1.32252e-13 -0)
(-0 -1.32465e-13 -0)
(-0 -1.32787e-13 -0)
(-3.99958e-28 -1.33219e-13 -0)
(-3.21232e-28 -1.33746e-13 -0)
(3.24197e-28 -1.39032e-13 -0)
(4.86296e-28 -1.39032e-13 -0)
(9.72592e-28 -1.39032e-13 -0)
(-0 -1.39033e-13 -0)
(-0 -1.39034e-13 -0)
(-1.62104e-28 -1.39037e-13 -0)
(-4.86341e-28 -1.39045e-13 -0)
(-3.2427e-28 -1.39064e-13 -0)
(4.86544e-28 -1.39103e-13 -0)
(3.24548e-28 -1.39183e-13 -0)
(3.24889e-28 -1.39329e-13 -0)
(1.62725e-28 -1.3957e-13 -0)
(-4.89418e-28 -1.39925e-13 -0)
(-6.54742e-28 -1.40393e-13 -0)
(-1.64345e-28 -1.40959e-13 -0)
(6.63111e-28 -1.46456e-13 -0)
(-0 -1.46456e-13 -0)
(6.63112e-28 -1.46456e-13 -0)
(6.63115e-28 -1.46457e-13 -0)
(-4.97342e-28 -1.46459e-13 -0)
(-1.65785e-28 -1.46463e-13 -0)
(-1.65797e-28 -1.46473e-13 -0)
(-1.65823e-28 -1.46496e-13 -0)
(-1.65878e-28 -1.46544e-13 -0)
(1.65984e-28 -1.46639e-13 -0)
(4.98523e-28 -1.46806e-13 -0)
(-0 -1.47076e-13 -0)
(-3.3384e-28 -1.47465e-13 -0)
(-3.34983e-28 -1.4797e-13 -0)
(-3.3635e-28 -1.48574e-13 -0)
(8.47715e-28 -1.54278e-13 -0)
(-0 -1.54279e-13 -0)
(6.78173e-28 -1.54279e-13 -0)
(3.39088e-28 -1.5428e-13 -0)
(-5.0864e-28 -1.54282e-13 -0)
(-3.39105e-28 -1.54287e-13 -0)
(1.69567e-28 -1.543e-13 -0)
(-6.78391e-28 -1.54328e-13 -0)
(-1.69662e-28 -1.54387e-13 -0)
(6.79131e-28 -1.54497e-13 -0)