/*--------------------------------*- C++ -*----------------------------------*\
| =========                 |                                                 |
| \\      /  F ield         | foam-extend: Open Source CFD                    |
|  \\    /   O peration     | Version:     4.0                                |
|   \\  /    A nd           | Web:         http://www.foam-extend.org         |
|    \\/     M anipulation  |                                                 |
\*---------------------------------------------------------------------------*/
FoamFile
{
    version     2.0;
    format      ascii;
    class       volScalarField;
    location    "1";
    object      p;
}
// * * * * * * * * * * * * * * * * * * * * * * * * * * * * * * * * * * * * * //

dimensions      [0 2 -2 0 0 0 0];

internalField   nonuniform List<scalar> 
1740
(
0.918198
-1.51101
-0.94573
0.139838
0.207318
0.573492
0.310286
0.191687
0.0759214
0.0285838
0.00849135
0.00228226
0.000519392
0.000106144
2.15589e-05
0.863652
-1.47059
-0.918185
0.174967
0.210831
0.553688
0.294968
0.181226
0.0715656
0.0270001
0.00806334
0.00218574
0.00050332
0.000104346
2.16263e-05
0.834411
-1.43007
-0.900508
0.160506
0.196673
0.543532
0.294344
0.184797
0.0749562
0.0290871
0.00898892
0.00252253
0.000603936
0.000130231
2.83358e-05
0.800986
-1.37225
-0.878545
0.123613
0.17061
0.531863
0.29814
0.194547
0.0825138
0.0334401
0.0108604
0.00319568
0.000804731
0.000182185
4.19853e-05
0.75762
-1.29533
-0.849515
0.0723284
0.134848
0.516035
0.303458
0.208223
0.0932707
0.0397577
0.0136418
0.00422204
0.0011197
0.000266151
6.48893e-05
0.703742
-1.2005
-0.812949
0.00975334
0.0903642
0.495149
0.3091
0.225009
0.107017
0.0481169
0.0174562
0.00568066
0.00158433
0.000394777
0.00010162
0.639768
-1.08982
-0.768805
-0.0614132
0.0381177
0.468557
0.314005
0.244182
0.123609
0.0586636
0.022482
0.00768483
0.00225057
0.000587218
0.000159424
0.56637
-0.96571
-0.717146
-0.138316
-0.020814
0.435667
0.317046
0.26492
0.142851
0.0715544
0.0289357
0.0103813
0.00318958
0.000871114
0.0002494
0.484389
-0.830884
-0.658116
-0.217938
-0.0852226
0.395957
0.317054
0.286278
0.164454
0.086927
0.037062
0.0139522
0.00449592
0.00128549
0.000388273
0.394866
-0.688297
-0.591978
-0.297168
-0.15377
0.349035
0.312865
0.307189
0.188004
0.10487
0.0471224
0.0186161
0.00629238
0.00188449
0.00060094
0.299083
-0.541151
-0.519158
-0.372875
-0.224992
0.294692
0.303381
0.326496
0.212942
0.125391
0.0593776
0.0246272
0.00873501
0.00274214
0.000924026
0.198599
-0.392868
-0.440288
-0.441978
-0.297307
0.232934
0.287627
0.342975
0.238553
0.14838
0.0740645
0.0322698
0.0120176
0.00395794
0.00141075
0.0952757
-0.247056
-0.356255
-0.501514
-0.36902
0.164007
0.264796
0.35539
0.263962
0.173579
0.091367
0.0418488
0.0163748
0.0056634
0.00213746
-0.008718
-0.107443
-0.268239
-0.548716
-0.438328
0.0884085
0.234288
0.362547
0.288154
0.200556
0.111381
0.0536729
0.0220829
0.00802907
0.00321207
-0.11093
0.0222254
-0.177758
-0.581096
-0.503313
0.00688898
0.195724
0.363344
0.310011
0.228684
0.134075
0.0680302
0.0294559
0.0112716
0.00478482
-0.208673
0.13832
-0.0866886
-0.596546
-0.561935
-0.0795422
0.148951
0.35683
0.328364
0.257143
0.159256
0.0851558
0.038836
0.0156596
0.00706119
-0.299117
0.237508
0.00272055
-0.593464
-0.612036
-0.169603
0.0940232
0.342233
0.342056
0.284941
0.186531
0.105192
0.0505765
0.0215177
0.0103169
-0.379404
0.316969
0.0878788
-0.570901
-0.651344
-0.261708
0.0311837
0.318977
0.350011
0.310957
0.215293
0.128146
0.0650161
0.0292262
0.0149139
-0.446805
0.374626
0.165924
-0.528727
-0.67752
-0.353918
-0.039148
0.286664
0.351293
0.334001
0.244718
0.153842
0.0824431
0.0392145
0.0213158
-0.498897
0.40938
0.233854
-0.467793
-0.688254
-0.443875
-0.116364
0.245039
0.345143
0.3529
0.27379
0.181889
0.103053
0.0519471
0.0300997
-0.533749
0.421315
0.288722
-0.390079
-0.681423
-0.528753
-0.199614
0.193941
0.330981
0.366578
0.301357
0.211658
0.126901
0.0678994
0.0419603
-0.550103
0.411832
0.327893
-0.298764
-0.65532
-0.605225
-0.287705
0.133269
0.308367
0.374129
0.326217
0.242291
0.153858
0.0875232
0.0577012
-0.547516
0.383692
0.349348
-0.198207
-0.608947
-0.669515
-0.378945
0.0629762
0.276926
0.374852
0.347215
0.27274
0.183581
0.111203
0.0782052
-0.526464
0.340927
0.352
-0.0937885
-0.542344
-0.717546
-0.470973
-0.0168573
0.236253
0.368237
0.363354
0.301851
0.2155
0.139206
0.104379
-0.488361
0.288609
0.335979
0.00841384
-0.456896
-0.745225
-0.560594
-0.105871
0.185826
0.353895
0.37388
0.328479
0.248851
0.171632
0.137064
-0.435506
0.232483
0.302841
0.102105
-0.355566
-0.748871
-0.643697
-0.203177
0.124981
0.331428
0.378313
0.351628
0.282745
0.208375
0.176916
-0.370938
0.178483
0.255638
0.181388
-0.24296
-0.72575
-0.715307
-0.307045
0.0529799
0.300269
0.376417
0.370595
0.316285
0.249098
0.22425
-0.298225
0.132186
0.198815
0.241445
-0.125175
-0.674669
-0.76985
-0.414583
-0.0307729
0.259544
0.368079
0.385064
0.348712
0.293239
0.278876
-0.221198
0.0982554
0.137915
0.279196
-0.00938039
-0.596506
-0.801645
-0.521502
-0.126381
0.208008
0.353111
0.395133
0.37956
0.340049
0.33994
-0.143657
0.0799525
0.0790974
0.293822
0.0968716
-0.494574
-0.80561
-0.622054
-0.232983
0.144135
0.331012
0.401222
0.408768
0.388655
0.40582
-0.0690958
0.078781
0.0285034
0.287045
0.186524
-0.374667
-0.778095
-0.709249
-0.348242
0.0663954
0.300757
0.403846
0.436691
0.438137
0.474111
-0.000456297
0.0943134
-0.00844443
0.263074
0.253983
-0.244717
-0.717706
-0.775383
-0.4679
-0.026237
0.260688
0.403253
0.463967
0.487588
0.541764
0.0600599
0.124238
-0.0277343
0.228173
0.29599
-0.114042
-0.625944
-0.812875
-0.585541
-0.133589
0.208611
0.398994
0.491168
0.536127
0.605382
0.111122
0.164635
-0.0273327
0.189877
0.312231
0.00773945
-0.507489
-0.815316
-0.692669
-0.253484
0.142197
0.389515
0.518279
0.582814
0.661682
0.152336
0.210467
-0.00752743
0.155946
0.305517
0.111978
-0.37003
-0.778596
-0.779233
-0.380998
0.0597072
0.371947
0.544038
0.626451
0.708017
0.184248
0.256239
0.0290363
0.133211
0.281454
0.192203
-0.223575
-0.701911
-0.834641
-0.508008
-0.0389936
0.342266
0.565377
0.665277
0.742825
0.208256
0.296751
0.0776705
0.126539
0.247634
0.245066
-0.0793312
-0.58845
-0.849229
-0.623329
-0.151349
0.295968
0.577157
0.696644
0.765797
0.226412
0.327836
0.132291
0.138079
0.212469
0.270823
0.0517384
-0.445549
-0.816023
-0.713653
-0.271299
0.22923
0.572495
0.716802
0.777675
0.241101
0.346957
0.186312
0.166985
0.183886
0.273263
0.160458
-0.284156
-0.732472
-0.765405
-0.389161
0.140325
0.543789
0.720984
0.779739
0.254627
0.35356
0.233646
0.209649
0.168129
0.259104
0.240852
-0.117554
-0.601709
-0.767281
-0.492554
0.0308658
0.484346
0.70397
0.773189
0.268762
0.349117
0.269639
0.260407
0.16889
0.23694
0.291171
0.0405641
-0.432905
-0.712987
-0.568418
-0.0936121
0.390307
0.661157
0.758693
0.284341
0.336862
0.291813
0.312602
0.186905
0.215915
0.314273
0.178329
-0.240405
-0.603432
-0.605768
-0.22399
0.262424
0.589996
0.736111
0.300906
0.321247
0.300306
0.359834
0.220076
0.204309
0.317209
0.287759
-0.0417082
-0.447619
-0.598375
-0.348699
0.107259
0.491328
0.704025
0.316353
0.307128
0.297956
0.397221
0.264125
0.208277
0.309925
0.366034
0.145317
-0.261769
-0.546377
-0.455137
-0.0624913
0.369979
0.65855
0.326516
0.298638
0.289915
0.422516
0.313713
0.230966
0.303253
0.415525
0.305257
-0.0666349
-0.456015
-0.530749
-0.228801
0.233988
0.591308
0.324779
0.297737
0.282681
0.4368
0.363869
0.272242
0.306556
0.442441
0.427326
0.116503
-0.337346
-0.563585
-0.370479
0.0922567
0.487436
0.302061
0.302624
0.2824
0.444456
0.411441
0.329146
0.32562
0.454463
0.506464
0.270266
-0.200669
-0.542777
-0.466869
-0.0488249
0.325608
0.247715
0.306504
0.292569
0.452059
0.456078
0.396993
0.361439
0.458272
0.543419
0.384922
-0.0531875
-0.45996
-0.502909
-0.188415
0.0822648
0.151839
0.29751
0.31161
0.466051
0.500159
0.470783
0.410443
0.458021
0.544204
0.460385
0.102341
-0.312415
-0.474626
-0.332169
-0.259146
0.00894814
0.260566
0.331258
0.489522
0.547264
0.546353
0.466254
0.455602
0.519392
0.505705
0.265869
-0.107692
-0.393269
-0.48982
-0.695887
-0.177839
0.181431
0.33685
0.519045
0.599284
0.620735
0.52252
0.452718
0.48335
0.535845
0.435519
0.132089
-0.285818
-0.669473
-1.19551
-0.393738
0.0521935
0.310252
0.542969
0.653042
0.691448
0.575796
0.453792
0.453069
0.56635
0.602132
0.369098
-0.190209
-0.870479
-1.69331
-0.612147
-0.123539
0.235184
0.542516
0.697951
0.755018
0.627187
0.467915
0.445946
0.60733
0.745826
0.55433
-0.145434
-1.07804
-2.10187
-0.798502
-0.328004
0.103576
0.496255
0.716342
0.805495
0.681732
0.508074
0.476189
0.658768
0.837222
0.638363
-0.179037
-1.26262
-2.33192
-0.917777
-0.53095
-0.0792965
0.387187
0.68735
0.833978
0.745301
0.586842
0.550231
0.709076
0.844332
0.585942
-0.296361
-1.38566
-2.31868
-0.943631
-0.695886
-0.293107
0.210345
0.5938
0.829778
0.819885
0.709418
0.662505
0.737915
0.743553
0.389544
-0.476007
-1.41034
-2.04415
-0.866215
-0.789323
-0.505389
-0.0219254
0.42996
0.783186
0.899086
0.866624
0.793458
0.722798
0.530943
0.0764583
-0.673987
-1.31383
-1.54647
-0.695837
-0.790012
-0.678551
-0.279411
0.207077
0.688878
0.965918
1.03123
0.911387
0.647362
0.229079
-0.294263
-0.835765
-1.09642
-0.912193
-0.461001
-0.694942
-0.77893
-0.519174
-0.0460313
0.548592
0.994456
1.1603
0.97856
0.508313
-0.114055
-0.64503
-0.912158
-0.783826
-0.2537
-0.201341
-0.519961
-0.78499
-0.695351
-0.288458
0.371806
0.955547
1.20425
0.960426
0.318309
-0.434908
-0.89931
-0.873526
-0.421533
0.320149
0.042289
-0.294913
-0.692199
-0.770835
-0.477535
0.173989
0.825233
1.12045
0.835372
0.103486
-0.670321
-1.00138
-0.717461
-0.0632231
0.730349
0.237439
-0.055202
-0.513405
-0.727319
-0.580782
-0.0269931
0.593291
0.887253
0.601928
-0.103595
-0.774554
-0.930048
-0.467871
0.24278
0.942975
0.366631
0.167182
-0.275146
-0.570658
-0.585396
-0.214938
0.269034
0.513502
0.281012
-0.273069
-0.73174
-0.702469
-0.166662
0.4645
0.970186
0.429299
0.350224
-0.0115287
-0.330016
-0.501987
-0.378314
-0.117788
0.0399805
-0.0876883
-0.385694
-0.559754
-0.367677
0.138342
0.591562
0.859033
0.439135
0.484333
0.242346
-0.0511901
-0.361299
-0.51124
-0.521593
-0.468151
-0.454181
-0.436926
-0.30448
0.00729993
0.404912
0.633849
0.673615
0.41818
0.570673
0.455824
0.213874
-0.205134
-0.612423
-0.889961
-0.935816
-0.76899
-0.436119
-0.0266917
0.35407
0.604099
0.614961
0.476968
0.389674
0.6168
0.606268
0.418452
-0.0745953
-0.682881
-1.17452
-1.29503
-0.993299
-0.401637
0.214015
0.617524
0.722854
0.56335
0.317507
0.371676
0.631694
0.680804
0.530451
0.000569316
-0.723684
-1.34078
-1.49952
-1.10581
-0.354056
0.373336
0.765199
0.762317
0.504126
0.222233
0.372944
0.622036
0.676637
0.537791
0.0084351
-0.734745
-1.37436
-1.53303
-1.10498
-0.309972
0.43068
0.790098
0.733648
0.453746
0.196422
0.391761
0.590738
0.600388
0.448958
-0.0442133
-0.715048
-1.28239
-1.40978
-1.00667
-0.2783
0.390406
0.707648
0.653382
0.418382
0.22796
0.417611
0.537711
0.466654
0.28916
-0.136098
-0.663996
-1.09012
-1.16786
-0.83854
-0.259743
0.276703
0.54871
0.539626
0.395511
0.294039
0.434961
0.462041
0.295841
0.0934876
-0.238821
-0.583096
-0.834224
-0.858242
-0.633097
-0.248919
0.124608
0.350994
0.409567
0.37744
0.368235
0.428
0.364446
0.11132
-0.101042
-0.32487
-0.477109
-0.554685
-0.532999
-0.421155
-0.237839
-0.0297574
0.150996
0.278077
0.355263
0.426562
0.385096
0.248978
-0.0638385
-0.262705
-0.374004
-0.354148
-0.287481
-0.235547
-0.227142
-0.21931
-0.157115
-0.022073
0.156995
0.322061
0.451746
0.301902
0.1234
-0.210088
-0.37014
-0.376686
-0.224661
-0.0593797
0.00514524
-0.0667402
-0.189229
-0.239602
-0.149667
0.0547265
0.274698
0.435396
0.182463
-0.00178247
-0.313994
-0.414575
-0.334313
-0.0996725
0.114414
0.17604
0.0532288
-0.147358
-0.271709
-0.224591
-0.0239519
0.214126
0.378132
0.0382399
-0.115227
-0.36965
-0.399218
-0.256877
0.0111157
0.229918
0.277975
0.133287
-0.0967598
-0.258327
-0.249512
-0.0777974
0.144563
0.288042
-0.114537
-0.206951
-0.37868
-0.336465
-0.159239
0.1008
0.292067
0.321499
0.178936
-0.0424572
-0.211128
-0.234085
-0.108642
0.0720546
0.178022
-0.258369
-0.270156
-0.34891
-0.243916
-0.0572086
0.165988
0.311427
0.322096
0.198167
0.0100958
-0.144577
-0.19158
-0.120559
0.00295095
0.0626977
-0.377922
-0.302254
-0.292118
-0.140239
0.0356166
0.206686
0.300838
0.296005
0.199374
0.0562488
-0.0725558
-0.135741
-0.118799
-0.0573209
-0.0443989
-0.462619
-0.304914
-0.221442
-0.0417592
0.109771
0.225571
0.272677
0.257279
0.189925
0.0928706
-0.00610853
-0.0784184
-0.108717
-0.105011
-0.132899
-0.507919
-0.28326
-0.149021
0.0397207
0.160523
0.226931
0.237084
0.216279
0.175431
0.118537
0.0475717
-0.0281892
-0.0949154
-0.138303
-0.196656
-0.51521
-0.244525
-0.084309
0.0977423
0.18743
0.215615
0.201171
0.179376
0.159591
0.133328
0.0851369
0.0100442
-0.0807377
-0.157169
-0.233815
-0.490606
-0.196559
-0.0332402
0.130841
0.193239
0.196196
0.169044
0.149479
0.144428
0.138409
0.106407
0.0347044
-0.0681415
-0.162977
-0.246128
-0.443106
-0.146519
0.00178745
0.141416
0.182567
0.172463
0.142343
0.126969
0.130713
0.135576
0.113392
0.046731
-0.0578725
-0.157998
-0.237829
-0.382634
-0.0999799
0.0213089
0.134255
0.160686
0.147221
0.121007
0.110704
0.118433
0.126854
0.109293
0.0486153
-0.0498127
-0.144922
-0.214427
-0.318388
-0.0605461
0.0278552
0.115105
0.132585
0.122335
0.104027
0.0988759
0.107186
0.114208
0.097683
0.0435041
-0.0433712
-0.126472
-0.181639
-0.257731
-0.0299026
0.0249518
0.0895263
0.102415
0.0989067
0.0900674
0.0896245
0.0964765
0.0993679
0.0819104
0.0345071
-0.0378216
-0.105121
-0.144621
-0.205683
-0.00818286
0.016255
0.0621486
0.0732376
0.0774942
0.0778775
0.0814017
0.085893
0.0837466
0.0647579
0.0242524
-0.0325336
-0.0829344
-0.107511
-0.164934
0.0055192
0.00494206
0.0363282
0.047033
0.0583194
0.0665156
0.0731327
0.0751934
0.0684161
0.0482915
0.0146718
-0.0270939
-0.0614972
-0.0732663
-0.136203
0.0126382
-0.00661826
0.0141145
0.0248508
0.0414193
0.0554187
0.0642324
0.0643188
0.0541283
0.0338543
0.00696467
-0.0213331
-0.0419181
-0.0437023
-0.118768
0.0147289
-0.0169487
-0.00357663
0.00702268
0.0267412
0.0443723
0.0545364
0.0533673
0.041354
0.022149
0.00167759
-0.0152919
-0.0248735
-0.0196572
-0.111006
0.0132054
-0.0253685
-0.0166892
-0.00662121
0.0141892
0.0334252
0.0441916
0.0425479
0.0303328
0.013366
-0.0011538
-0.00915648
-0.0106789
-0.00121855
-0.110855
0.00922322
-0.0317991
-0.0257336
-0.0165642
0.00363847
0.0227887
0.0335404
0.0321274
0.0211234
0.00732617
-0.00184411
-0.00318695
0.00063188
0.0120443
-0.116161
0.00367068
-0.036537
-0.0315245
-0.0234556
-0.00506546
0.012742
0.0230133
0.0223817
0.0136532
0.00361774
-0.00090575
0.00234647
0.00922793
0.0208691
-0.124899
-0.00277885
-0.040045
-0.0349725
-0.0280006
-0.0121092
0.0035577
0.0130428
0.013556
0.00776135
0.00171455
0.00107909
0.00721069
0.0154085
0.0261276
-0.135306
-0.00959634
-0.04279
-0.036935
-0.030881
-0.0177086
-0.00454928
0.00399975
0.00583601
0.00323726
0.00107067
0.00355478
0.0112389
0.0195418
0.028696
-0.145939
-0.0163385
-0.0451379
-0.0381233
-0.0327
-0.0220991
-0.0114491
-0.00384665
-0.000668302
-0.00014876
0.00118842
0.0060557
0.0143424
0.0220152
0.0293678
-0.155706
-0.0226155
-0.0473044
-0.039055
-0.0339462
-0.0255196
-0.0171047
-0.0103462
-0.00592665
-0.00262179
0.00166038
0.00823957
0.0165098
0.0232004
0.0288051
-0.163854
-0.028086
-0.049352
-0.0400446
-0.0349748
-0.0281949
-0.0215632
-0.0154666
-0.00998304
-0.00438647
0.00218814
0.00989539
0.0177954
0.0234291
0.0275198
-0.169956
-0.0324713
-0.0512188
-0.0412211
-0.0360051
-0.0303182
-0.024937
-0.0192774
-0.0129426
-0.00561824
0.00258195
0.0109325
0.0183029
0.0229816
0.0258782
-0.173871
-0.0355777
-0.0527653
-0.0425655
-0.0371306
-0.0320391
-0.0273792
-0.021924
-0.0149537
-0.00646049
0.00274683
0.0113571
0.018167
0.0220831
0.0241203
-0.175701
-0.0373144
-0.0538254
-0.0439578
-0.0383422
-0.0334574
-0.029058
-0.0235982
-0.0161885
-0.0070257
0.00266107
0.0112435
0.0175347
0.0209063
0.0223859
-0.175732
-0.0377023
-0.0542517
-0.0452263
-0.0395575
-0.0346248
-0.0301356
-0.0245081
-0.0168241
-0.00739897
0.00235232
0.0107051
0.0165508
0.0195783
0.0207431
-0.174373
-0.0368671
-0.0539487
-0.0461937
-0.0406547
-0.0355534
-0.0307523
-0.0248534
-0.0170261
-0.00764228
0.00187564
0.0098693
0.015347
0.0181889
0.0192141
-0.172094
-0.0350212
-0.0528915
-0.0467131
-0.041505
-0.0362279
-0.0310178
-0.0248067
-0.0169368
-0.00779846
0.00129613
0.00885956
0.0140353
0.0168005
0.0177967
-0.169369
-0.0324364
-0.0511299
-0.0466931
-0.0419994
-0.0366204
-0.0310096
-0.0245032
-0.0166674
-0.00789435
0.000677157
0.00778334
0.012706
0.0154559
0.0164808
-0.166631
-0.0294129
-0.0487806
-0.0461089
-0.0420674
-0.0367042
-0.0307766
-0.0240374
-0.0162959
-0.00794306
7.39916e-05
0.00672717
0.0114288
0.0141863
0.0152588
-0.164233
-0.0262512
-0.0460118
-0.0450019
-0.0416863
-0.0364645
-0.0303464
-0.0234657
-0.0158675
-0.00794583
-0.0004682
0.00575622
0.0102551
0.0130162
0.0141298
-0.162431
-0.0232296
-0.0430245
-0.0434707
-0.040882
-0.0359052
-0.0297328
-0.0228137
-0.0153995
-0.0078938
-0.00091361
0.00491703
0.00922209
0.0119662
0.0131011
-0.161357
-0.0205946
-0.0400372
-0.0416573
-0.0397226
-0.0350506
-0.0289434
-0.022084
-0.0148875
-0.00776996
-0.0012337
0.00424162
0.00835589
0.0110549
0.0121862
-0.16099
-0.0185714
-0.0372792
-0.0397324
-0.0383071
-0.0339425
-0.0279844
-0.0212651
-0.014312
-0.00755145
-0.00140493
0.00375177
0.007675
0.010299
0.0114013
-0.161091
-0.0174137
-0.0350016
-0.0378833
-0.0367508
-0.0326327
-0.0268619
-0.0203374
-0.0136447
-0.00721189
-0.00140694
0.00346268
0.00719267
0.00971367
0.0107625
-0.161032
-0.0175453
-0.0335179
-0.0363057
-0.0351708
-0.0311764
-0.0255841
-0.0192814
-0.0128568
-0.00672614
-0.00122315
0.0033847
0.00691843
0.00931195
0.0102841
-0.159343
-0.0197553
-0.0332258
-0.0352168
-0.0337475
-0.0297272
-0.0242709
-0.0181846
-0.0120136
-0.00614749
-0.000899403
0.00348117
0.00682878
0.00908475
0.00995843
-0.153758
-0.0221488
-0.033964
-0.03505
-0.0335195
-0.0296362
-0.0243368
-0.0183736
-0.0122872
-0.00647727
-0.00126761
0.00308454
0.00640768
0.00863614
0.00944338
)
;

boundaryField
{
    top
    {
        type            zeroGradient;
    }
    bottom
    {
        type            zeroGradient;
    }
    wall
    {
        type            zeroGradient;
    }
    frontAndBack
    {
        type            empty;
    }
    procBoundary3to2
    {
        type            processor;
        value           nonuniform List<scalar> 
116
(
0.918214
0.863667
0.834431
0.801016
0.757665
0.703811
0.639875
0.566532
0.484637
0.39524
0.299644
0.199434
0.0965058
-0.00692456
-0.108343
-0.204987
-0.293928
-0.372198
-0.436943
-0.485608
-0.51614
-0.527184
-0.518262
-0.489897
-0.443676
-0.382225
-0.309078
-0.228457
-0.144961
-0.0631839
0.0126977
0.0793237
0.134494
0.177391
0.208614
0.229992
0.244127
0.253743
0.260932
0.266514
0.269659
0.267847
0.257107
0.232381
0.187932
0.117915
0.0174229
-0.115744
-0.27867
-0.461008
-0.643986
-0.801908
-0.906636
-0.93428
-0.872132
-0.723413
-0.507913
-0.25801
-0.0112248
0.198372
0.347332
0.426727
0.442182
0.410649
0.355258
0.299711
0.263405
0.257989
0.285697
0.339511
0.405027
0.463673
0.496686
0.489094
0.432857
0.328502
0.184946
0.0175988
-0.154711
-0.313237
-0.442449
-0.532209
-0.578676
-0.583967
-0.554874
-0.501043
-0.433075
-0.360896
-0.292607
-0.233883
-0.187877
-0.155491
-0.135879
-0.127024
-0.126301
-0.13095
-0.138422
-0.146605
-0.153939
-0.159438
-0.162638
-0.163512
-0.162351
-0.15965
-0.155996
-0.151982
-0.148134
-0.144874
-0.142493
-0.14115
-0.14087
-0.141525
-0.142789
-0.143965
-0.143461
-0.138052
)
;
    }
}


// ************************************************************************* //
