/*--------------------------------*- C++ -*----------------------------------*\
| =========                 |                                                 |
| \\      /  F ield         | foam-extend: Open Source CFD                    |
|  \\    /   O peration     | Version:     4.0                                |
|   \\  /    A nd           | Web:         http://www.foam-extend.org         |
|    \\/     M anipulation  |                                                 |
\*---------------------------------------------------------------------------*/
FoamFile
{
    version     2.0;
    format      ascii;
    class       volScalarField;
    location    "1830";
    object      cMinus;
}
// * * * * * * * * * * * * * * * * * * * * * * * * * * * * * * * * * * * * * //

dimensions      [0 0 0 0 0 0 0];

internalField   nonuniform List<scalar> 
6960
(
1.03216e-23
1.03274e-23
1.03283e-23
1.03283e-23
1.03281e-23
1.03278e-23
1.03276e-23
1.03274e-23
1.03272e-23
1.03271e-23
1.0327e-23
1.0327e-23
1.0327e-23
1.0327e-23
1.03271e-23
1.03271e-23
1.03271e-23
1.03272e-23
1.03273e-23
1.03273e-23
1.03274e-23
1.03274e-23
1.03275e-23
1.03275e-23
1.03276e-23
1.03276e-23
1.03276e-23
1.03277e-23
1.03277e-23
1.03277e-23
1.03277e-23
1.03277e-23
1.03277e-23
1.03276e-23
1.03276e-23
1.03276e-23
1.03275e-23
1.03275e-23
1.03274e-23
1.03274e-23
1.03273e-23
1.03273e-23
1.03272e-23
1.03271e-23
1.03271e-23
1.03271e-23
1.0327e-23
1.0327e-23
1.0327e-23
1.0327e-23
1.03271e-23
1.03272e-23
1.03274e-23
1.03276e-23
1.03278e-23
1.03281e-23
1.03283e-23
1.03283e-23
1.03274e-23
1.03216e-23
4.05568e-23
4.0581e-23
4.05866e-23
4.05885e-23
4.05894e-23
4.05901e-23
4.05907e-23
4.05914e-23
4.05922e-23
4.0593e-23
4.05939e-23
4.05947e-23
4.05956e-23
4.05964e-23
4.05972e-23
4.0598e-23
4.05987e-23
4.05994e-23
4.06001e-23
4.06007e-23
4.06012e-23
4.06017e-23
4.06022e-23
4.06025e-23
4.06029e-23
4.06031e-23
4.06034e-23
4.06035e-23
4.06036e-23
4.06037e-23
4.06037e-23
4.06036e-23
4.06035e-23
4.06034e-23
4.06031e-23
4.06029e-23
4.06025e-23
4.06022e-23
4.06017e-23
4.06012e-23
4.06007e-23
4.06001e-23
4.05994e-23
4.05987e-23
4.0598e-23
4.05972e-23
4.05964e-23
4.05956e-23
4.05947e-23
4.05939e-23
4.0593e-23
4.05922e-23
4.05914e-23
4.05907e-23
4.05901e-23
4.05894e-23
4.05885e-23
4.05866e-23
4.0581e-23
4.05568e-23
1.15531e-22
1.15605e-22
1.15627e-22
1.15639e-22
1.15648e-22
1.15656e-22
1.15663e-22
1.1567e-22
1.15676e-22
1.15683e-22
1.15689e-22
1.15694e-22
1.157e-22
1.15705e-22
1.15709e-22
1.15713e-22
1.15717e-22
1.15721e-22
1.15724e-22
1.15727e-22
1.15729e-22
1.15732e-22
1.15734e-22
1.15735e-22
1.15737e-22
1.15738e-22
1.15739e-22
1.1574e-22
1.1574e-22
1.1574e-22
1.1574e-22
1.1574e-22
1.1574e-22
1.15739e-22
1.15738e-22
1.15737e-22
1.15735e-22
1.15734e-22
1.15732e-22
1.15729e-22
1.15727e-22
1.15724e-22
1.15721e-22
1.15717e-22
1.15713e-22
1.15709e-22
1.15705e-22
1.157e-22
1.15694e-22
1.15689e-22
1.15683e-22
1.15676e-22
1.1567e-22
1.15663e-22
1.15656e-22
1.15648e-22
1.15639e-22
1.15627e-22
1.15605e-22
1.15531e-22
3.01813e-22
3.02021e-22
3.02098e-22
3.02148e-22
3.0219e-22
3.02228e-22
3.02263e-22
3.02296e-22
3.02326e-22
3.02355e-22
3.02382e-22
3.02406e-22
3.02429e-22
3.0245e-22
3.02469e-22
3.02486e-22
3.02502e-22
3.02516e-22
3.02528e-22
3.02539e-22
3.02549e-22
3.02558e-22
3.02565e-22
3.02572e-22
3.02577e-22
3.02582e-22
3.02585e-22
3.02588e-22
3.02589e-22
3.0259e-22
3.0259e-22
3.02589e-22
3.02588e-22
3.02585e-22
3.02582e-22
3.02577e-22
3.02572e-22
3.02565e-22
3.02558e-22
3.02549e-22
3.02539e-22
3.02528e-22
3.02516e-22
3.02502e-22
3.02486e-22
3.02469e-22
3.0245e-22
3.02429e-22
3.02406e-22
3.02382e-22
3.02355e-22
3.02326e-22
3.02296e-22
3.02263e-22
3.02228e-22
3.0219e-22
3.02148e-22
3.02098e-22
3.02021e-22
3.01813e-22
7.7346e-22
7.74036e-22
7.74288e-22
7.74473e-22
7.74634e-22
7.74781e-22
7.74917e-22
7.75044e-22
7.75161e-22
7.7527e-22
7.75369e-22
7.75461e-22
7.75544e-22
7.7562e-22
7.75689e-22
7.75751e-22
7.75806e-22
7.75856e-22
7.759e-22
7.75939e-22
7.75973e-22
7.76003e-22
7.76029e-22
7.76051e-22
7.7607e-22
7.76085e-22
7.76097e-22
7.76105e-22
7.76111e-22
7.76114e-22
7.76114e-22
7.76111e-22
7.76105e-22
7.76097e-22
7.76085e-22
7.7607e-22
7.76051e-22
7.76029e-22
7.76003e-22
7.75973e-22
7.75939e-22
7.759e-22
7.75856e-22
7.75806e-22
7.75751e-22
7.75689e-22
7.7562e-22
7.75544e-22
7.75461e-22
7.75369e-22
7.7527e-22
7.75161e-22
7.75044e-22
7.74917e-22
7.74781e-22
7.74634e-22
7.74473e-22
7.74288e-22
7.74036e-22
7.7346e-22
1.99443e-21
1.99604e-21
1.99684e-21
1.99747e-21
1.99804e-21
1.99855e-21
1.99903e-21
1.99948e-21
1.99989e-21
2.00026e-21
2.00061e-21
2.00092e-21
2.00121e-21
2.00147e-21
2.0017e-21
2.00191e-21
2.00209e-21
2.00226e-21
2.00241e-21
2.00254e-21
2.00265e-21
2.00275e-21
2.00283e-21
2.00291e-21
2.00297e-21
2.00302e-21
2.00305e-21
2.00308e-21
2.0031e-21
2.00311e-21
2.00311e-21
2.0031e-21
2.00308e-21
2.00305e-21
2.00302e-21
2.00297e-21
2.00291e-21
2.00283e-21
2.00275e-21
2.00265e-21
2.00254e-21
2.00241e-21
2.00226e-21
2.00209e-21
2.00191e-21
2.0017e-21
2.00147e-21
2.00121e-21
2.00092e-21
2.00061e-21
2.00026e-21
1.99989e-21
1.99948e-21
1.99903e-21
1.99855e-21
1.99804e-21
1.99747e-21
1.99684e-21
1.99604e-21
1.99443e-21
5.22904e-21
5.23357e-21
5.23608e-21
5.23816e-21
5.24005e-21
5.2418e-21
5.24341e-21
5.2449e-21
5.24627e-21
5.24752e-21
5.24867e-21
5.24971e-21
5.25065e-21
5.25149e-21
5.25226e-21
5.25294e-21
5.25355e-21
5.25409e-21
5.25456e-21
5.25498e-21
5.25535e-21
5.25567e-21
5.25594e-21
5.25617e-21
5.25636e-21
5.25652e-21
5.25665e-21
5.25674e-21
5.2568e-21
5.25683e-21
5.25683e-21
5.2568e-21
5.25674e-21
5.25665e-21
5.25652e-21
5.25636e-21
5.25617e-21
5.25594e-21
5.25567e-21
5.25535e-21
5.25498e-21
5.25456e-21
5.25409e-21
5.25355e-21
5.25294e-21
5.25226e-21
5.25149e-21
5.25065e-21
5.24971e-21
5.24867e-21
5.24752e-21
5.24627e-21
5.2449e-21
5.24341e-21
5.2418e-21
5.24005e-21
5.23816e-21
5.23608e-21
5.23357e-21
5.22904e-21
1.4002e-20
1.40151e-20
1.40229e-20
1.40297e-20
1.40359e-20
1.40416e-20
1.40469e-20
1.40518e-20
1.40563e-20
1.40604e-20
1.40641e-20
1.40675e-20
1.40705e-20
1.40733e-20
1.40758e-20
1.4078e-20
1.40799e-20
1.40817e-20
1.40832e-20
1.40845e-20
1.40857e-20
1.40867e-20
1.40876e-20
1.40883e-20
1.40889e-20
1.40894e-20
1.40898e-20
1.40901e-20
1.40903e-20
1.40904e-20
1.40904e-20
1.40903e-20
1.40901e-20
1.40898e-20
1.40894e-20
1.40889e-20
1.40883e-20
1.40876e-20
1.40867e-20
1.40857e-20
1.40845e-20
1.40832e-20
1.40817e-20
1.40799e-20
1.4078e-20
1.40758e-20
1.40733e-20
1.40705e-20
1.40675e-20
1.40641e-20
1.40604e-20
1.40563e-20
1.40518e-20
1.40469e-20
1.40416e-20
1.40359e-20
1.40297e-20
1.40229e-20
1.40151e-20
1.4002e-20
3.83706e-20
3.84089e-20
3.84336e-20
3.84554e-20
3.84756e-20
3.84943e-20
3.85116e-20
3.85275e-20
3.85421e-20
3.85554e-20
3.85675e-20
3.85785e-20
3.85884e-20
3.85972e-20
3.86052e-20
3.86123e-20
3.86186e-20
3.86241e-20
3.86291e-20
3.86334e-20
3.86371e-20
3.86404e-20
3.86431e-20
3.86455e-20
3.86475e-20
3.86491e-20
3.86503e-20
3.86512e-20
3.86518e-20
3.86521e-20
3.86521e-20
3.86518e-20
3.86512e-20
3.86503e-20
3.86491e-20
3.86475e-20
3.86455e-20
3.86431e-20
3.86404e-20
3.86371e-20
3.86334e-20
3.86291e-20
3.86241e-20
3.86186e-20
3.86123e-20
3.86052e-20
3.85972e-20
3.85884e-20
3.85785e-20
3.85675e-20
3.85554e-20
3.85421e-20
3.85275e-20
3.85116e-20
3.84943e-20
3.84756e-20
3.84554e-20
3.84336e-20
3.84089e-20
3.83706e-20
1.07712e-19
1.07827e-19
1.07905e-19
1.07976e-19
1.08042e-19
1.08103e-19
1.0816e-19
1.08211e-19
1.08259e-19
1.08302e-19
1.08342e-19
1.08377e-19
1.08409e-19
1.08438e-19
1.08464e-19
1.08487e-19
1.08507e-19
1.08525e-19
1.08541e-19
1.08555e-19
1.08567e-19
1.08577e-19
1.08586e-19
1.08594e-19
1.086e-19
1.08605e-19
1.08609e-19
1.08612e-19
1.08614e-19
1.08615e-19
1.08615e-19
1.08614e-19
1.08612e-19
1.08609e-19
1.08605e-19
1.086e-19
1.08594e-19
1.08586e-19
1.08577e-19
1.08567e-19
1.08555e-19
1.08541e-19
1.08525e-19
1.08507e-19
1.08487e-19
1.08464e-19
1.08438e-19
1.08409e-19
1.08377e-19
1.08342e-19
1.08302e-19
1.08259e-19
1.08211e-19
1.0816e-19
1.08103e-19
1.08042e-19
1.07976e-19
1.07905e-19
1.07827e-19
1.07712e-19
3.09893e-19
3.10243e-19
3.10496e-19
3.10728e-19
3.10944e-19
3.11145e-19
3.11331e-19
3.11502e-19
3.11658e-19
3.11801e-19
3.1193e-19
3.12047e-19
3.12152e-19
3.12246e-19
3.1233e-19
3.12405e-19
3.12471e-19
3.1253e-19
3.12582e-19
3.12627e-19
3.12666e-19
3.127e-19
3.12729e-19
3.12754e-19
3.12774e-19
3.12791e-19
3.12804e-19
3.12813e-19
3.1282e-19
3.12823e-19
3.12823e-19
3.1282e-19
3.12813e-19
3.12804e-19
3.12791e-19
3.12774e-19
3.12754e-19
3.12729e-19
3.127e-19
3.12666e-19
3.12627e-19
3.12582e-19
3.1253e-19
3.12471e-19
3.12405e-19
3.1233e-19
3.12246e-19
3.12152e-19
3.12047e-19
3.1193e-19
3.11801e-19
3.11658e-19
3.11502e-19
3.11331e-19
3.11145e-19
3.10944e-19
3.10728e-19
3.10496e-19
3.10243e-19
3.09893e-19
9.14049e-19
9.15144e-19
9.15972e-19
9.16739e-19
9.17459e-19
9.18128e-19
9.18747e-19
9.19315e-19
9.19835e-19
9.20307e-19
9.20736e-19
9.21123e-19
9.21471e-19
9.21783e-19
9.22062e-19
9.22309e-19
9.22529e-19
9.22723e-19
9.22894e-19
9.23043e-19
9.23173e-19
9.23285e-19
9.23381e-19
9.23462e-19
9.23529e-19
9.23584e-19
9.23626e-19
9.23658e-19
9.23679e-19
9.23689e-19
9.23689e-19
9.23679e-19
9.23658e-19
9.23626e-19
9.23584e-19
9.23529e-19
9.23462e-19
9.23381e-19
9.23285e-19
9.23173e-19
9.23043e-19
9.22894e-19
9.22723e-19
9.22529e-19
9.22309e-19
9.22062e-19
9.21783e-19
9.21471e-19
9.21123e-19
9.20736e-19
9.20307e-19
9.19835e-19
9.19315e-19
9.18747e-19
9.18128e-19
9.17459e-19
9.16739e-19
9.15972e-19
9.15144e-19
9.14049e-19
2.76449e-18
2.768e-18
2.77075e-18
2.77333e-18
2.77575e-18
2.77801e-18
2.7801e-18
2.78201e-18
2.78377e-18
2.78536e-18
2.7868e-18
2.78811e-18
2.78928e-18
2.79033e-18
2.79126e-18
2.79209e-18
2.79283e-18
2.79348e-18
2.79405e-18
2.79455e-18
2.79499e-18
2.79536e-18
2.79569e-18
2.79596e-18
2.79618e-18
2.79636e-18
2.79651e-18
2.79661e-18
2.79668e-18
2.79672e-18
2.79672e-18
2.79668e-18
2.79661e-18
2.79651e-18
2.79636e-18
2.79618e-18
2.79596e-18
2.79569e-18
2.79536e-18
2.79499e-18
2.79455e-18
2.79405e-18
2.79348e-18
2.79283e-18
2.79209e-18
2.79126e-18
2.79033e-18
2.78928e-18
2.78811e-18
2.7868e-18
2.78536e-18
2.78377e-18
2.78201e-18
2.7801e-18
2.77801e-18
2.77575e-18
2.77333e-18
2.77075e-18
2.768e-18
2.76449e-18
8.57399e-18
8.58545e-18
8.59477e-18
8.60358e-18
8.61189e-18
8.61963e-18
8.62679e-18
8.63336e-18
8.63936e-18
8.64481e-18
8.64975e-18
8.65421e-18
8.65821e-18
8.6618e-18
8.665e-18
8.66784e-18
8.67036e-18
8.67258e-18
8.67453e-18
8.67623e-18
8.67772e-18
8.67899e-18
8.68009e-18
8.68101e-18
8.68178e-18
8.6824e-18
8.68289e-18
8.68324e-18
8.68348e-18
8.6836e-18
8.6836e-18
8.68348e-18
8.68324e-18
8.68289e-18
8.6824e-18
8.68178e-18
8.68101e-18
8.68009e-18
8.67899e-18
8.67772e-18
8.67623e-18
8.67453e-18
8.67258e-18
8.67036e-18
8.66784e-18
8.665e-18
8.6618e-18
8.65821e-18
8.65421e-18
8.64975e-18
8.64481e-18
8.63936e-18
8.63336e-18
8.62679e-18
8.61963e-18
8.61189e-18
8.60358e-18
8.59477e-18
8.58545e-18
8.57399e-18
2.72686e-17
2.7307e-17
2.73391e-17
2.73698e-17
2.73988e-17
2.74258e-17
2.74507e-17
2.74736e-17
2.74945e-17
2.75135e-17
2.75308e-17
2.75463e-17
2.75602e-17
2.75727e-17
2.75838e-17
2.75937e-17
2.76024e-17
2.76102e-17
2.76169e-17
2.76229e-17
2.7628e-17
2.76324e-17
2.76362e-17
2.76394e-17
2.76421e-17
2.76442e-17
2.76459e-17
2.76472e-17
2.7648e-17
2.76484e-17
2.76484e-17
2.7648e-17
2.76472e-17
2.76459e-17
2.76442e-17
2.76421e-17
2.76394e-17
2.76362e-17
2.76324e-17
2.7628e-17
2.76229e-17
2.76169e-17
2.76102e-17
2.76024e-17
2.75937e-17
2.75838e-17
2.75727e-17
2.75602e-17
2.75463e-17
2.75308e-17
2.75135e-17
2.74945e-17
2.74736e-17
2.74507e-17
2.74258e-17
2.73988e-17
2.73698e-17
2.73391e-17
2.7307e-17
2.72686e-17
8.89204e-17
8.90518e-17
8.91649e-17
8.92735e-17
8.93764e-17
8.94722e-17
8.95609e-17
8.96422e-17
8.97164e-17
8.97839e-17
8.98449e-17
8.99e-17
8.99494e-17
8.99936e-17
9.0033e-17
9.00681e-17
9.0099e-17
9.01264e-17
9.01504e-17
9.01713e-17
9.01895e-17
9.02052e-17
9.02186e-17
9.02299e-17
9.02393e-17
9.02469e-17
9.02529e-17
9.02573e-17
9.02602e-17
9.02616e-17
9.02616e-17
9.02602e-17
9.02573e-17
9.02529e-17
9.02469e-17
9.02393e-17
9.02299e-17
9.02186e-17
9.02052e-17
9.01895e-17
9.01713e-17
9.01504e-17
9.01264e-17
9.0099e-17
9.00681e-17
9.0033e-17
8.99936e-17
8.99494e-17
8.99e-17
8.98449e-17
8.97839e-17
8.97164e-17
8.96422e-17
8.95609e-17
8.94722e-17
8.93764e-17
8.92735e-17
8.91649e-17
8.90518e-17
8.89204e-17
2.97227e-16
2.97687e-16
2.98093e-16
2.98485e-16
2.98857e-16
2.99204e-16
2.99525e-16
2.99819e-16
3.00088e-16
3.00332e-16
3.00552e-16
3.00751e-16
3.0093e-16
3.0109e-16
3.01232e-16
3.01358e-16
3.0147e-16
3.01569e-16
3.01656e-16
3.01731e-16
3.01797e-16
3.01853e-16
3.01902e-16
3.01942e-16
3.01976e-16
3.02004e-16
3.02025e-16
3.02041e-16
3.02051e-16
3.02057e-16
3.02057e-16
3.02051e-16
3.02041e-16
3.02025e-16
3.02004e-16
3.01976e-16
3.01942e-16
3.01902e-16
3.01853e-16
3.01797e-16
3.01731e-16
3.01656e-16
3.01569e-16
3.0147e-16
3.01358e-16
3.01232e-16
3.0109e-16
3.0093e-16
3.00751e-16
3.00552e-16
3.00332e-16
3.00088e-16
2.99819e-16
2.99525e-16
2.99204e-16
2.98857e-16
2.98485e-16
2.98093e-16
2.97687e-16
2.97227e-16
1.01801e-15
1.01965e-15
1.02114e-15
1.02259e-15
1.02396e-15
1.02524e-15
1.02642e-15
1.0275e-15
1.02849e-15
1.02939e-15
1.03021e-15
1.03094e-15
1.0316e-15
1.03219e-15
1.03271e-15
1.03318e-15
1.03359e-15
1.03395e-15
1.03427e-15
1.03455e-15
1.03479e-15
1.035e-15
1.03517e-15
1.03532e-15
1.03545e-15
1.03555e-15
1.03563e-15
1.03569e-15
1.03572e-15
1.03574e-15
1.03574e-15
1.03572e-15
1.03569e-15
1.03563e-15
1.03555e-15
1.03545e-15
1.03532e-15
1.03517e-15
1.035e-15
1.03479e-15
1.03455e-15
1.03427e-15
1.03395e-15
1.03359e-15
1.03318e-15
1.03271e-15
1.03219e-15
1.0316e-15
1.03094e-15
1.03021e-15
1.02939e-15
1.02849e-15
1.0275e-15
1.02642e-15
1.02524e-15
1.02396e-15
1.02259e-15
1.02114e-15
1.01965e-15
1.01801e-15
3.57062e-15
3.57665e-15
3.58221e-15
3.58763e-15
3.59278e-15
3.59759e-15
3.60203e-15
3.60611e-15
3.60983e-15
3.61321e-15
3.61626e-15
3.61901e-15
3.62148e-15
3.62369e-15
3.62566e-15
3.62741e-15
3.62895e-15
3.63031e-15
3.63151e-15
3.63255e-15
3.63345e-15
3.63423e-15
3.6349e-15
3.63546e-15
3.63593e-15
3.6363e-15
3.6366e-15
3.63682e-15
3.63696e-15
3.63703e-15
3.63703e-15
3.63696e-15
3.63682e-15
3.6366e-15
3.6363e-15
3.63593e-15
3.63546e-15
3.6349e-15
3.63423e-15
3.63345e-15
3.63255e-15
3.63151e-15
3.63031e-15
3.62895e-15
3.62741e-15
3.62566e-15
3.62369e-15
3.62148e-15
3.61901e-15
3.61626e-15
3.61321e-15
3.60983e-15
3.60611e-15
3.60203e-15
3.59759e-15
3.59278e-15
3.58763e-15
3.58221e-15
3.57665e-15
3.57062e-15
1.28155e-14
1.28381e-14
1.28592e-14
1.288e-14
1.28997e-14
1.29181e-14
1.29351e-14
1.29507e-14
1.29649e-14
1.29778e-14
1.29895e-14
1.30001e-14
1.30095e-14
1.3018e-14
1.30255e-14
1.30322e-14
1.30381e-14
1.30433e-14
1.30478e-14
1.30518e-14
1.30553e-14
1.30582e-14
1.30608e-14
1.30629e-14
1.30647e-14
1.30661e-14
1.30673e-14
1.30681e-14
1.30686e-14
1.30689e-14
1.30689e-14
1.30686e-14
1.30681e-14
1.30673e-14
1.30661e-14
1.30647e-14
1.30629e-14
1.30608e-14
1.30582e-14
1.30553e-14
1.30518e-14
1.30478e-14
1.30433e-14
1.30381e-14
1.30322e-14
1.30255e-14
1.3018e-14
1.30095e-14
1.30001e-14
1.29895e-14
1.29778e-14
1.29649e-14
1.29507e-14
1.29351e-14
1.29181e-14
1.28997e-14
1.288e-14
1.28592e-14
1.28381e-14
1.28155e-14
4.70215e-14
4.71077e-14
4.71898e-14
4.72704e-14
4.73472e-14
4.74189e-14
4.74852e-14
4.7546e-14
4.76014e-14
4.76518e-14
4.76973e-14
4.77383e-14
4.77751e-14
4.7808e-14
4.78372e-14
4.78632e-14
4.78862e-14
4.79065e-14
4.79242e-14
4.79397e-14
4.79531e-14
4.79647e-14
4.79746e-14
4.79829e-14
4.79899e-14
4.79955e-14
4.79998e-14
4.80031e-14
4.80052e-14
4.80062e-14
4.80062e-14
4.80052e-14
4.80031e-14
4.79998e-14
4.79955e-14
4.79899e-14
4.79829e-14
4.79746e-14
4.79647e-14
4.79531e-14
4.79397e-14
4.79242e-14
4.79065e-14
4.78862e-14
4.78632e-14
4.78372e-14
4.7808e-14
4.77751e-14
4.77383e-14
4.76973e-14
4.76518e-14
4.76014e-14
4.7546e-14
4.74852e-14
4.74189e-14
4.73472e-14
4.72704e-14
4.71898e-14
4.71077e-14
4.70215e-14
1.7615e-13
1.76485e-13
1.76809e-13
1.77128e-13
1.77432e-13
1.77716e-13
1.77979e-13
1.7822e-13
1.78439e-13
1.78639e-13
1.78819e-13
1.78982e-13
1.79127e-13
1.79257e-13
1.79373e-13
1.79476e-13
1.79567e-13
1.79647e-13
1.79717e-13
1.79779e-13
1.79832e-13
1.79877e-13
1.79917e-13
1.7995e-13
1.79977e-13
1.79999e-13
1.80016e-13
1.80029e-13
1.80037e-13
1.80042e-13
1.80042e-13
1.80037e-13
1.80029e-13
1.80016e-13
1.79999e-13
1.79977e-13
1.7995e-13
1.79917e-13
1.79877e-13
1.79832e-13
1.79779e-13
1.79717e-13
1.79647e-13
1.79567e-13
1.79476e-13
1.79373e-13
1.79257e-13
1.79127e-13
1.78982e-13
1.78819e-13
1.78639e-13
1.78439e-13
1.7822e-13
1.77979e-13
1.77716e-13
1.77432e-13
1.77128e-13
1.76809e-13
1.76485e-13
1.7615e-13
6.72693e-13
6.74018e-13
6.75317e-13
6.766e-13
6.77823e-13
6.78965e-13
6.80021e-13
6.8099e-13
6.81874e-13
6.82676e-13
6.83401e-13
6.84053e-13
6.84639e-13
6.85162e-13
6.85628e-13
6.86041e-13
6.86406e-13
6.86728e-13
6.8701e-13
6.87256e-13
6.8747e-13
6.87653e-13
6.8781e-13
6.87943e-13
6.88053e-13
6.88141e-13
6.88211e-13
6.88262e-13
6.88296e-13
6.88312e-13
6.88312e-13
6.88296e-13
6.88262e-13
6.88211e-13
6.88141e-13
6.88053e-13
6.87943e-13
6.8781e-13
6.87653e-13
6.8747e-13
6.87256e-13
6.8701e-13
6.86728e-13
6.86406e-13
6.86041e-13
6.85628e-13
6.85162e-13
6.84639e-13
6.84053e-13
6.83401e-13
6.82676e-13
6.81874e-13
6.8099e-13
6.80021e-13
6.78965e-13
6.77823e-13
6.766e-13
6.75317e-13
6.74018e-13
6.72693e-13
2.6138e-12
2.61912e-12
2.6244e-12
2.62963e-12
2.63461e-12
2.63927e-12
2.64357e-12
2.64752e-12
2.65112e-12
2.65439e-12
2.65734e-12
2.66e-12
2.66239e-12
2.66452e-12
2.66641e-12
2.6681e-12
2.66958e-12
2.67089e-12
2.67204e-12
2.67304e-12
2.67391e-12
2.67466e-12
2.6753e-12
2.67584e-12
2.67629e-12
2.67665e-12
2.67693e-12
2.67714e-12
2.67728e-12
2.67734e-12
2.67734e-12
2.67728e-12
2.67714e-12
2.67693e-12
2.67665e-12
2.67629e-12
2.67584e-12
2.6753e-12
2.67466e-12
2.67391e-12
2.67304e-12
2.67204e-12
2.67089e-12
2.66958e-12
2.6681e-12
2.66641e-12
2.66452e-12
2.66239e-12
2.66e-12
2.65734e-12
2.65439e-12
2.65112e-12
2.64752e-12
2.64357e-12
2.63927e-12
2.63461e-12
2.62963e-12
2.6244e-12
2.61912e-12
2.6138e-12
1.03097e-11
1.03314e-11
1.03531e-11
1.03746e-11
1.03952e-11
1.04144e-11
1.04321e-11
1.04484e-11
1.04632e-11
1.04767e-11
1.04888e-11
1.04998e-11
1.05096e-11
1.05184e-11
1.05262e-11
1.05331e-11
1.05393e-11
1.05447e-11
1.05494e-11
1.05535e-11
1.05571e-11
1.05602e-11
1.05628e-11
1.0565e-11
1.05668e-11
1.05683e-11
1.05695e-11
1.05704e-11
1.05709e-11
1.05712e-11
1.05712e-11
1.05709e-11
1.05704e-11
1.05695e-11
1.05683e-11
1.05668e-11
1.0565e-11
1.05628e-11
1.05602e-11
1.05571e-11
1.05535e-11
1.05494e-11
1.05447e-11
1.05393e-11
1.05331e-11
1.05262e-11
1.05184e-11
1.05096e-11
1.04998e-11
1.04888e-11
1.04767e-11
1.04632e-11
1.04484e-11
1.04321e-11
1.04144e-11
1.03952e-11
1.03746e-11
1.03531e-11
1.03314e-11
1.03097e-11
4.11673e-11
4.12563e-11
4.13464e-11
4.14358e-11
4.1521e-11
4.16008e-11
4.16745e-11
4.1742e-11
4.18037e-11
4.18596e-11
4.19101e-11
4.19556e-11
4.19964e-11
4.20328e-11
4.20653e-11
4.2094e-11
4.21195e-11
4.21418e-11
4.21615e-11
4.21786e-11
4.21934e-11
4.22062e-11
4.22171e-11
4.22263e-11
4.22339e-11
4.22401e-11
4.22449e-11
4.22485e-11
4.22508e-11
4.2252e-11
4.2252e-11
4.22508e-11
4.22485e-11
4.22449e-11
4.22401e-11
4.22339e-11
4.22263e-11
4.22171e-11
4.22062e-11
4.21934e-11
4.21786e-11
4.21615e-11
4.21418e-11
4.21195e-11
4.2094e-11
4.20653e-11
4.20328e-11
4.19964e-11
4.19556e-11
4.19101e-11
4.18596e-11
4.18037e-11
4.1742e-11
4.16745e-11
4.16008e-11
4.1521e-11
4.14358e-11
4.13464e-11
4.12563e-11
4.11673e-11
1.65872e-10
1.6624e-10
1.66615e-10
1.66988e-10
1.67344e-10
1.67677e-10
1.67985e-10
1.68267e-10
1.68524e-10
1.68757e-10
1.68968e-10
1.69158e-10
1.69328e-10
1.6948e-10
1.69615e-10
1.69735e-10
1.69841e-10
1.69935e-10
1.70016e-10
1.70088e-10
1.7015e-10
1.70203e-10
1.70248e-10
1.70287e-10
1.70318e-10
1.70344e-10
1.70364e-10
1.70379e-10
1.70389e-10
1.70394e-10
1.70394e-10
1.70389e-10
1.70379e-10
1.70364e-10
1.70344e-10
1.70318e-10
1.70287e-10
1.70248e-10
1.70203e-10
1.7015e-10
1.70088e-10
1.70016e-10
1.69935e-10
1.69841e-10
1.69735e-10
1.69615e-10
1.6948e-10
1.69328e-10
1.69158e-10
1.68968e-10
1.68757e-10
1.68524e-10
1.68267e-10
1.67985e-10
1.67677e-10
1.67344e-10
1.66988e-10
1.66615e-10
1.6624e-10
1.65872e-10
6.71819e-10
6.73343e-10
6.74911e-10
6.76469e-10
6.77955e-10
6.79345e-10
6.80629e-10
6.81807e-10
6.82881e-10
6.83855e-10
6.84735e-10
6.85527e-10
6.86238e-10
6.86872e-10
6.87437e-10
6.87937e-10
6.8838e-10
6.88769e-10
6.89111e-10
6.89408e-10
6.89666e-10
6.89888e-10
6.90078e-10
6.90238e-10
6.9037e-10
6.90478e-10
6.90561e-10
6.90623e-10
6.90664e-10
6.90684e-10
6.90684e-10
6.90664e-10
6.90623e-10
6.90561e-10
6.90478e-10
6.9037e-10
6.90238e-10
6.90078e-10
6.89888e-10
6.89666e-10
6.89408e-10
6.89111e-10
6.88769e-10
6.8838e-10
6.87937e-10
6.87437e-10
6.86872e-10
6.86238e-10
6.85527e-10
6.84735e-10
6.83855e-10
6.82881e-10
6.81807e-10
6.80629e-10
6.79345e-10
6.77955e-10
6.76469e-10
6.74911e-10
6.73343e-10
6.71819e-10
2.7231e-09
2.7294e-09
2.73592e-09
2.7424e-09
2.74858e-09
2.75436e-09
2.7597e-09
2.7646e-09
2.76906e-09
2.77312e-09
2.77677e-09
2.78007e-09
2.78302e-09
2.78566e-09
2.788e-09
2.79008e-09
2.79192e-09
2.79354e-09
2.79496e-09
2.7962e-09
2.79727e-09
2.79819e-09
2.79898e-09
2.79964e-09
2.80019e-09
2.80064e-09
2.80099e-09
2.80124e-09
2.80141e-09
2.80149e-09
2.80149e-09
2.80141e-09
2.80124e-09
2.80099e-09
2.80064e-09
2.80019e-09
2.79964e-09
2.79898e-09
2.79819e-09
2.79727e-09
2.7962e-09
2.79496e-09
2.79354e-09
2.79192e-09
2.79008e-09
2.788e-09
2.78566e-09
2.78302e-09
2.78007e-09
2.77677e-09
2.77312e-09
2.76906e-09
2.7646e-09
2.7597e-09
2.75436e-09
2.74858e-09
2.7424e-09
2.73592e-09
2.7294e-09
2.7231e-09
1.09896e-08
1.10154e-08
1.10423e-08
1.1069e-08
1.10945e-08
1.11183e-08
1.11403e-08
1.11604e-08
1.11788e-08
1.11955e-08
1.12106e-08
1.12241e-08
1.12363e-08
1.12471e-08
1.12568e-08
1.12653e-08
1.12729e-08
1.12796e-08
1.12854e-08
1.12905e-08
1.12949e-08
1.12987e-08
1.13019e-08
1.13047e-08
1.13069e-08
1.13088e-08
1.13102e-08
1.13112e-08
1.13119e-08
1.13123e-08
1.13123e-08
1.13119e-08
1.13112e-08
1.13102e-08
1.13088e-08
1.13069e-08
1.13047e-08
1.13019e-08
1.12987e-08
1.12949e-08
1.12905e-08
1.12854e-08
1.12796e-08
1.12729e-08
1.12653e-08
1.12568e-08
1.12471e-08
1.12363e-08
1.12241e-08
1.12106e-08
1.11955e-08
1.11788e-08
1.11604e-08
1.11403e-08
1.11183e-08
1.10945e-08
1.1069e-08
1.10423e-08
1.10154e-08
1.09896e-08
4.38991e-08
4.40036e-08
4.41125e-08
4.42208e-08
4.4324e-08
4.44205e-08
4.45096e-08
4.45913e-08
4.46658e-08
4.47334e-08
4.47944e-08
4.48493e-08
4.48985e-08
4.49425e-08
4.49816e-08
4.50163e-08
4.50469e-08
4.50739e-08
4.50975e-08
4.51181e-08
4.5136e-08
4.51513e-08
4.51644e-08
4.51755e-08
4.51846e-08
4.51921e-08
4.51978e-08
4.52021e-08
4.52049e-08
4.52063e-08
4.52063e-08
4.52049e-08
4.52021e-08
4.51978e-08
4.51921e-08
4.51846e-08
4.51755e-08
4.51644e-08
4.51513e-08
4.5136e-08
4.51181e-08
4.50975e-08
4.50739e-08
4.50469e-08
4.50163e-08
4.49816e-08
4.49425e-08
4.48985e-08
4.48493e-08
4.47944e-08
4.47334e-08
4.46658e-08
4.45913e-08
4.45096e-08
4.44205e-08
4.4324e-08
4.42208e-08
4.41125e-08
4.40036e-08
4.38991e-08
1.72417e-07
1.7283e-07
1.73262e-07
1.73691e-07
1.741e-07
1.74482e-07
1.74835e-07
1.75158e-07
1.75453e-07
1.7572e-07
1.75962e-07
1.76179e-07
1.76374e-07
1.76548e-07
1.76702e-07
1.7684e-07
1.76961e-07
1.77067e-07
1.77161e-07
1.77242e-07
1.77313e-07
1.77374e-07
1.77425e-07
1.77469e-07
1.77505e-07
1.77535e-07
1.77558e-07
1.77574e-07
1.77586e-07
1.77591e-07
1.77591e-07
1.77586e-07
1.77574e-07
1.77558e-07
1.77535e-07
1.77505e-07
1.77469e-07
1.77425e-07
1.77374e-07
1.77313e-07
1.77242e-07
1.77161e-07
1.77067e-07
1.76961e-07
1.7684e-07
1.76702e-07
1.76548e-07
1.76374e-07
1.76179e-07
1.75962e-07
1.7572e-07
1.75453e-07
1.75158e-07
1.74835e-07
1.74482e-07
1.741e-07
1.73691e-07
1.73262e-07
1.7283e-07
1.72417e-07
6.60796e-07
6.62383e-07
6.64043e-07
6.65689e-07
6.67257e-07
6.68722e-07
6.70074e-07
6.71314e-07
6.72444e-07
6.73469e-07
6.74395e-07
6.75227e-07
6.75974e-07
6.7664e-07
6.77233e-07
6.77758e-07
6.78222e-07
6.78631e-07
6.78989e-07
6.79301e-07
6.79571e-07
6.79804e-07
6.80002e-07
6.80169e-07
6.80308e-07
6.8042e-07
6.80508e-07
6.80573e-07
6.80615e-07
6.80636e-07
6.80636e-07
6.80615e-07
6.80573e-07
6.80508e-07
6.8042e-07
6.80308e-07
6.80169e-07
6.80002e-07
6.79804e-07
6.79571e-07
6.79301e-07
6.78989e-07
6.78631e-07
6.78222e-07
6.77758e-07
6.77233e-07
6.7664e-07
6.75974e-07
6.75227e-07
6.74395e-07
6.73469e-07
6.72444e-07
6.71314e-07
6.70074e-07
6.68722e-07
6.67257e-07
6.65689e-07
6.64043e-07
6.62383e-07
6.60796e-07
2.45026e-06
2.45611e-06
2.46223e-06
2.4683e-06
2.47407e-06
2.47946e-06
2.48443e-06
2.48899e-06
2.49315e-06
2.49692e-06
2.50032e-06
2.50338e-06
2.50613e-06
2.50858e-06
2.51075e-06
2.51269e-06
2.51439e-06
2.51589e-06
2.51721e-06
2.51835e-06
2.51935e-06
2.5202e-06
2.52093e-06
2.52155e-06
2.52206e-06
2.52247e-06
2.52279e-06
2.52303e-06
2.52318e-06
2.52326e-06
2.52326e-06
2.52318e-06
2.52303e-06
2.52279e-06
2.52247e-06
2.52206e-06
2.52155e-06
2.52093e-06
2.5202e-06
2.51935e-06
2.51835e-06
2.51721e-06
2.51589e-06
2.51439e-06
2.51269e-06
2.51075e-06
2.50858e-06
2.50613e-06
2.50338e-06
2.50032e-06
2.49692e-06
2.49315e-06
2.48899e-06
2.48443e-06
2.47946e-06
2.47407e-06
2.4683e-06
2.46223e-06
2.45611e-06
2.45026e-06
8.7067e-06
8.72723e-06
8.74867e-06
8.76986e-06
8.79002e-06
8.80884e-06
8.82621e-06
8.84213e-06
8.85663e-06
8.86978e-06
8.88166e-06
8.89234e-06
8.90191e-06
8.91045e-06
8.91805e-06
8.92479e-06
8.93074e-06
8.93597e-06
8.94056e-06
8.94455e-06
8.94802e-06
8.951e-06
8.95354e-06
8.95568e-06
8.95746e-06
8.95889e-06
8.96002e-06
8.96084e-06
8.96138e-06
8.96165e-06
8.96165e-06
8.96138e-06
8.96084e-06
8.96002e-06
8.95889e-06
8.95746e-06
8.95568e-06
8.95354e-06
8.951e-06
8.94802e-06
8.94455e-06
8.94056e-06
8.93597e-06
8.93074e-06
8.92479e-06
8.91805e-06
8.91045e-06
8.90191e-06
8.89234e-06
8.88166e-06
8.86978e-06
8.85663e-06
8.84213e-06
8.82621e-06
8.80884e-06
8.79002e-06
8.76986e-06
8.74867e-06
8.72723e-06
8.7067e-06
2.93317e-05
2.93993e-05
2.94697e-05
2.95391e-05
2.96051e-05
2.96667e-05
2.97235e-05
2.97756e-05
2.9823e-05
2.9866e-05
2.99049e-05
2.99398e-05
2.99711e-05
2.9999e-05
3.00238e-05
3.00458e-05
3.00653e-05
3.00824e-05
3.00974e-05
3.01104e-05
3.01217e-05
3.01315e-05
3.01398e-05
3.01468e-05
3.01526e-05
3.01573e-05
3.01609e-05
3.01636e-05
3.01654e-05
3.01663e-05
3.01663e-05
3.01654e-05
3.01636e-05
3.01609e-05
3.01573e-05
3.01526e-05
3.01468e-05
3.01398e-05
3.01315e-05
3.01217e-05
3.01104e-05
3.00974e-05
3.00824e-05
3.00653e-05
3.00458e-05
3.00238e-05
2.9999e-05
2.99711e-05
2.99398e-05
2.99049e-05
2.9866e-05
2.9823e-05
2.97756e-05
2.97235e-05
2.96667e-05
2.96051e-05
2.95391e-05
2.94697e-05
2.93993e-05
2.93317e-05
9.25714e-05
9.27774e-05
9.2991e-05
9.32012e-05
9.34008e-05
9.3587e-05
9.37587e-05
9.3916e-05
9.40593e-05
9.41892e-05
9.43065e-05
9.44119e-05
9.45064e-05
9.45907e-05
9.46656e-05
9.47321e-05
9.47908e-05
9.48424e-05
9.48876e-05
9.4927e-05
9.49612e-05
9.49905e-05
9.50156e-05
9.50367e-05
9.50542e-05
9.50684e-05
9.50794e-05
9.50876e-05
9.50929e-05
9.50956e-05
9.50956e-05
9.50929e-05
9.50876e-05
9.50794e-05
9.50684e-05
9.50542e-05
9.50367e-05
9.50156e-05
9.49905e-05
9.49612e-05
9.4927e-05
9.48876e-05
9.48424e-05
9.47908e-05
9.47321e-05
9.46656e-05
9.45907e-05
9.45064e-05
9.44119e-05
9.43065e-05
9.41892e-05
9.40593e-05
9.3916e-05
9.37587e-05
9.3587e-05
9.34008e-05
9.32012e-05
9.2991e-05
9.27774e-05
9.25714e-05
0.000270128
0.000270699
0.000271289
0.000271867
0.000272416
0.000272928
0.000273399
0.000273831
0.000274225
0.000274581
0.000274903
0.000275192
0.000275451
0.000275683
0.000275888
0.000276071
0.000276232
0.000276373
0.000276497
0.000276605
0.000276699
0.000276779
0.000276848
0.000276906
0.000276954
0.000276993
0.000277023
0.000277045
0.00027706
0.000277067
0.000277067
0.00027706
0.000277045
0.000277023
0.000276993
0.000276954
0.000276906
0.000276848
0.000276779
0.000276699
0.000276605
0.000276497
0.000276373
0.000276232
0.000276071
0.000275888
0.000275683
0.000275451
0.000275192
0.000274903
0.000274581
0.000274225
0.000273831
0.000273399
0.000272928
0.000272416
0.000271867
0.000271289
0.000270699
0.000270128
0.000718722
0.000720139
0.000721593
0.000723015
0.000724362
0.000725616
0.000726773
0.000727831
0.000728795
0.000729669
0.000730457
0.000731166
0.000731801
0.000732367
0.000732871
0.000733317
0.000733711
0.000734058
0.000734361
0.000734626
0.000734855
0.000735052
0.00073522
0.000735362
0.00073548
0.000735575
0.000735649
0.000735703
0.000735739
0.000735757
0.000735757
0.000735739
0.000735703
0.000735649
0.000735575
0.00073548
0.000735362
0.00073522
0.000735052
0.000734855
0.000734626
0.000734361
0.000734058
0.000733711
0.000733317
0.000732871
0.000732367
0.000731801
0.000731166
0.000730457
0.000729669
0.000728795
0.000727831
0.000726773
0.000725616
0.000724362
0.000723015
0.000721593
0.000720139
0.000718722
0.00172005
0.00172314
0.00172628
0.00172935
0.00173225
0.00173495
0.00173744
0.00173971
0.00174178
0.00174366
0.00174535
0.00174688
0.00174824
0.00174946
0.00175054
0.0017515
0.00175234
0.00175309
0.00175374
0.00175431
0.0017548
0.00175522
0.00175558
0.00175589
0.00175614
0.00175634
0.0017565
0.00175662
0.0017567
0.00175673
0.00175673
0.0017567
0.00175662
0.0017565
0.00175634
0.00175614
0.00175589
0.00175558
0.00175522
0.0017548
0.00175431
0.00175374
0.00175309
0.00175234
0.0017515
0.00175054
0.00174946
0.00174824
0.00174688
0.00174535
0.00174366
0.00174178
0.00173971
0.00173744
0.00173495
0.00173225
0.00172935
0.00172628
0.00172314
0.00172005
0.00366216
0.003668
0.00367389
0.00367961
0.00368501
0.00369003
0.00369466
0.00369889
0.00370274
0.00370623
0.00370938
0.00371221
0.00371474
0.003717
0.00371901
0.00372079
0.00372236
0.00372374
0.00372495
0.00372601
0.00372692
0.00372771
0.00372838
0.00372894
0.00372941
0.00372979
0.00373008
0.0037303
0.00373044
0.00373051
0.00373051
0.00373044
0.0037303
0.00373008
0.00372979
0.00372941
0.00372894
0.00372838
0.00372771
0.00372692
0.00372601
0.00372495
0.00372374
0.00372236
0.00372079
0.00371901
0.003717
0.00371474
0.00371221
0.00370938
0.00370623
0.00370274
0.00369889
0.00369466
0.00369003
0.00368501
0.00367961
0.00367389
0.003668
0.00366216
0.00690129