/*--------------------------------*- C++ -*----------------------------------*\
| =========                 |                                                 |
| \\      /  F ield         | foam-extend: Open Source CFD                    |
|  \\    /   O peration     | Version:     4.0                                |
|   \\  /    A nd           | Web:         http://www.foam-extend.org         |
|    \\/     M anipulation  |                                                 |
\*---------------------------------------------------------------------------*/
FoamFile
{
    version     2.0;
    format      ascii;
    class       volScalarField;
    location    "1830";
    object      cPlus;
}
// * * * * * * * * * * * * * * * * * * * * * * * * * * * * * * * * * * * * * //

dimensions      [0 0 0 0 0 0 0];

internalField   nonuniform List<scalar> 
6960
(
0.332795
0.332786
0.332775
0.332763
0.332752
0.332741
0.332732
0.332723
0.332715
0.332708
0.332701
0.332695
0.33269
0.332686
0.332681
0.332678
0.332675
0.332672
0.332669
0.332667
0.332665
0.332664
0.332662
0.332661
0.33266
0.332659
0.332659
0.332658
0.332658
0.332658
0.332658
0.332658
0.332658
0.332659
0.332659
0.33266
0.332661
0.332662
0.332664
0.332665
0.332667
0.332669
0.332672
0.332675
0.332678
0.332681
0.332686
0.33269
0.332695
0.332701
0.332708
0.332715
0.332723
0.332732
0.332741
0.332752
0.332763
0.332775
0.332786
0.332795
0.112492
0.112486
0.112477
0.112469
0.11246
0.112452
0.112445
0.112438
0.112432
0.112427
0.112422
0.112417
0.112414
0.11241
0.112407
0.112404
0.112402
0.1124
0.112398
0.112396
0.112395
0.112393
0.112392
0.112392
0.112391
0.11239
0.11239
0.11239
0.112389
0.112389
0.112389
0.112389
0.11239
0.11239
0.11239
0.112391
0.112392
0.112392
0.112393
0.112395
0.112396
0.112398
0.1124
0.112402
0.112404
0.112407
0.11241
0.112414
0.112417
0.112422
0.112427
0.112432
0.112438
0.112445
0.112452
0.11246
0.112469
0.112477
0.112486
0.112492
0.0450662
0.0450624
0.0450573
0.045052
0.045047
0.0450422
0.0450379
0.0450339
0.0450302
0.045027
0.045024
0.0450214
0.045019
0.0450169
0.045015
0.0450134
0.0450119
0.0450106
0.0450095
0.0450085
0.0450077
0.045007
0.0450063
0.0450058
0.0450054
0.045005
0.0450048
0.0450046
0.0450044
0.0450044
0.0450044
0.0450044
0.0450046
0.0450048
0.045005
0.0450054
0.0450058
0.0450063
0.045007
0.0450077
0.0450085
0.0450095
0.0450106
0.0450119
0.0450134
0.045015
0.0450169
0.045019
0.0450214
0.045024
0.045027
0.0450302
0.0450339
0.0450379
0.0450422
0.045047
0.045052
0.0450573
0.0450624
0.0450662
0.0204316
0.0204298
0.0204273
0.0204247
0.0204222
0.0204198
0.0204176
0.0204156
0.0204138
0.0204122
0.0204107
0.0204093
0.0204082
0.0204071
0.0204062
0.0204053
0.0204046
0.020404
0.0204034
0.0204029
0.0204025
0.0204021
0.0204018
0.0204015
0.0204013
0.0204012
0.020401
0.0204009
0.0204008
0.0204008
0.0204008
0.0204008
0.0204009
0.020401
0.0204012
0.0204013
0.0204015
0.0204018
0.0204021
0.0204025
0.0204029
0.0204034
0.020404
0.0204046
0.0204053
0.0204062
0.0204071
0.0204082
0.0204093
0.0204107
0.0204122
0.0204138
0.0204156
0.0204176
0.0204198
0.0204222
0.0204247
0.0204273
0.0204298
0.0204316
0.0109288
0.0109283
0.0109275
0.0109265
0.0109256
0.0109247
0.0109239
0.0109231
0.0109225
0.0109218
0.0109213
0.0109208
0.0109204
0.01092
0.0109196
0.0109193
0.010919
0.0109188
0.0109186
0.0109184
0.0109182
0.0109181
0.010918
0.0109179
0.0109178
0.0109177
0.0109177
0.0109176
0.0109176
0.0109176
0.0109176
0.0109176
0.0109176
0.0109177
0.0109177
0.0109178
0.0109179
0.010918
0.0109181
0.0109182
0.0109184
0.0109186
0.0109188
0.010919
0.0109193
0.0109196
0.01092
0.0109204
0.0109208
0.0109213
0.0109218
0.0109225
0.0109231
0.0109239
0.0109247
0.0109256
0.0109265
0.0109275
0.0109283
0.0109288
0.00724564
0.00724593
0.00724599
0.00724597
0.00724594
0.0072459
0.00724586
0.00724582
0.00724578
0.00724575
0.00724572
0.00724569
0.00724566
0.00724564
0.00724562
0.0072456
0.00724558
0.00724557
0.00724556
0.00724555
0.00724554
0.00724553
0.00724552
0.00724551
0.00724551
0.00724551
0.0072455
0.0072455
0.0072455
0.0072455
0.0072455
0.0072455
0.0072455
0.0072455
0.00724551
0.00724551
0.00724551
0.00724552
0.00724553
0.00724554
0.00724555
0.00724556
0.00724557
0.00724558
0.0072456
0.00724562
0.00724564
0.00724566
0.00724569
0.00724572
0.00724575
0.00724578
0.00724582
0.00724586
0.0072459
0.00724594
0.00724597
0.00724599
0.00724593
0.00724564
0.00584902
0.0058497
0.00585023
0.0058507
0.00585113
0.00585152
0.00585188
0.00585221
0.0058525
0.00585277
0.00585301
0.00585322
0.00585341
0.00585358
0.00585374
0.00585387
0.00585399
0.00585409
0.00585418
0.00585426
0.00585432
0.00585438
0.00585443
0.00585447
0.00585451
0.00585453
0.00585455
0.00585457
0.00585458
0.00585459
0.00585459
0.00585458
0.00585457
0.00585455
0.00585453
0.00585451
0.00585447
0.00585443
0.00585438
0.00585432
0.00585426
0.00585418
0.00585409
0.00585399
0.00585387
0.00585374
0.00585358
0.00585341
0.00585322
0.00585301
0.00585277
0.0058525
0.00585221
0.00585188
0.00585152
0.00585113
0.0058507
0.00585023
0.0058497
0.00584902
0.00534612
0.00534699
0.00534775
0.00534846
0.00534911
0.00534972
0.00535027
0.00535078
0.00535123
0.00535165
0.00535202
0.00535235
0.00535265
0.00535291
0.00535315
0.00535335
0.00535354
0.00535369
0.00535383
0.00535396
0.00535406
0.00535415
0.00535423
0.00535429
0.00535434
0.00535439
0.00535442
0.00535445
0.00535446
0.00535447
0.00535447
0.00535446
0.00535445
0.00535442
0.00535439
0.00535434
0.00535429
0.00535423
0.00535415
0.00535406
0.00535396
0.00535383
0.00535369
0.00535354
0.00535335
0.00535315
0.00535291
0.00535265
0.00535235
0.00535202
0.00535165
0.00535123
0.00535078
0.00535027
0.00534972
0.00534911
0.00534846
0.00534775
0.00534699
0.00534612
0.00518733
0.00518829
0.00518917
0.00518999
0.00519075
0.00519146
0.0051921
0.00519269
0.00519323
0.00519371
0.00519414
0.00519453
0.00519488
0.00519519
0.00519546
0.0051957
0.00519592
0.0051961
0.00519627
0.00519641
0.00519653
0.00519664
0.00519673
0.0051968
0.00519686
0.00519691
0.00519695
0.00519698
0.005197
0.00519701
0.00519701
0.005197
0.00519698
0.00519695
0.00519691
0.00519686
0.0051968
0.00519673
0.00519664
0.00519653
0.00519641
0.00519627
0.0051961
0.00519592
0.0051957
0.00519546
0.00519519
0.00519488
0.00519453
0.00519414
0.00519371
0.00519323
0.00519269
0.0051921
0.00519146
0.00519075
0.00518999
0.00518917
0.00518829
0.00518733
0.00515912
0.00516013
0.00516106
0.00516193
0.00516275
0.0051635
0.00516419
0.00516482
0.0051654
0.00516591
0.00516638
0.00516679
0.00516716
0.0051675
0.00516779
0.00516805
0.00516828
0.00516848
0.00516865
0.0051688
0.00516893
0.00516905
0.00516914
0.00516922
0.00516929
0.00516934
0.00516939
0.00516942
0.00516944
0.00516945
0.00516945
0.00516944
0.00516942
0.00516939
0.00516934
0.00516929
0.00516922
0.00516914
0.00516905
0.00516893
0.0051688
0.00516865
0.00516848
0.00516828
0.00516805
0.00516779
0.0051675
0.00516716
0.00516679
0.00516638
0.00516591
0.0051654
0.00516482
0.00516419
0.0051635
0.00516275
0.00516193
0.00516106
0.00516013
0.00515912
0.0051804
0.00518144
0.0051824
0.00518331
0.00518415
0.00518493
0.00518565
0.0051863
0.0051869
0.00518743
0.00518791
0.00518834
0.00518873
0.00518907
0.00518937
0.00518964
0.00518988
0.00519009
0.00519027
0.00519042
0.00519056
0.00519068
0.00519078
0.00519086
0.00519093
0.00519099
0.00519103
0.00519106
0.00519108
0.00519109
0.00519109
0.00519108
0.00519106
0.00519103
0.00519099
0.00519093
0.00519086
0.00519078
0.00519068
0.00519056
0.00519042
0.00519027
0.00519009
0.00518988
0.00518964
0.00518937
0.00518907
0.00518873
0.00518834
0.00518791
0.00518743
0.0051869
0.0051863
0.00518565
0.00518493
0.00518415
0.00518331
0.0051824
0.00518144
0.0051804
0.00522127
0.00522233
0.00522331
0.00522424
0.0052251
0.0052259
0.00522663
0.0052273
0.00522791
0.00522846
0.00522895
0.00522939
0.00522978
0.00523013
0.00523044
0.00523072
0.00523096
0.00523117
0.00523136
0.00523152
0.00523166
0.00523178
0.00523188
0.00523197
0.00523204
0.0052321
0.00523214
0.00523217
0.0052322
0.00523221
0.00523221
0.0052322
0.00523217
0.00523214
0.0052321
0.00523204
0.00523197
0.00523188
0.00523178
0.00523166
0.00523152
0.00523136
0.00523117
0.00523096
0.00523072
0.00523044
0.00523013
0.00522978
0.00522939
0.00522895
0.00522846
0.00522791
0.0052273
0.00522663
0.0052259
0.0052251
0.00522424
0.00522331
0.00522233
0.00522127
0.00527108
0.00527216
0.00527316
0.0052741
0.00527498
0.0052758
0.00527654
0.00527722
0.00527784
0.0052784
0.0052789
0.00527935
0.00527975
0.00528011
0.00528043
0.00528071
0.00528095
0.00528117
0.00528136
0.00528152
0.00528167
0.00528179
0.00528189
0.00528198
0.00528205
0.00528211
0.00528216
0.00528219
0.00528221
0.00528222
0.00528222
0.00528221
0.00528219
0.00528216
0.00528211
0.00528205
0.00528198
0.00528189
0.00528179
0.00528167
0.00528152
0.00528136
0.00528117
0.00528095
0.00528071
0.00528043
0.00528011
0.00527975
0.00527935
0.0052789
0.0052784
0.00527784
0.00527722
0.00527654
0.0052758
0.00527498
0.0052741
0.00527316
0.00527216
0.00527108
0.00532628
0.00532738
0.0053284
0.00532936
0.00533026
0.00533109
0.00533184
0.00533254
0.00533317
0.00533373
0.00533424
0.0053347
0.00533511
0.00533548
0.0053358
0.00533608
0.00533634
0.00533656
0.00533675
0.00533692
0.00533706
0.00533719
0.00533729
0.00533738
0.00533746
0.00533752
0.00533756
0.0053376
0.00533762
0.00533763
0.00533763
0.00533762
0.0053376
0.00533756
0.00533752
0.00533746
0.00533738
0.00533729
0.00533719
0.00533706
0.00533692
0.00533675
0.00533656
0.00533634
0.00533608
0.0053358
0.00533548
0.00533511
0.0053347
0.00533424
0.00533373
0.00533317
0.00533254
0.00533184
0.00533109
0.00533026
0.00532936
0.0053284
0.00532738
0.00532628
0.00538588
0.005387
0.00538804
0.00538902
0.00538993
0.00539077
0.00539155
0.00539225
0.00539289
0.00539347
0.00539399
0.00539446
0.00539487
0.00539525
0.00539557
0.00539587
0.00539612
0.00539635
0.00539654
0.00539671
0.00539686
0.00539699
0.0053971
0.00539719
0.00539726
0.00539732
0.00539737
0.00539741
0.00539743
0.00539744
0.00539744
0.00539743
0.00539741
0.00539737
0.00539732
0.00539726
0.00539719
0.0053971
0.00539699
0.00539686
0.00539671
0.00539654
0.00539635
0.00539612
0.00539587
0.00539557
0.00539525
0.00539487
0.00539446
0.00539399
0.00539347
0.00539289
0.00539225
0.00539155
0.00539077
0.00538993
0.00538902
0.00538804
0.005387
0.00538588
0.00544979
0.00545094
0.005452
0.00545299
0.00545392
0.00545478
0.00545557
0.00545629
0.00545694
0.00545753
0.00545806
0.00545854
0.00545896
0.00545934
0.00545968
0.00545997
0.00546024
0.00546047
0.00546067
0.00546084
0.00546099
0.00546112
0.00546123
0.00546132
0.0054614
0.00546146
0.00546151
0.00546155
0.00546157
0.00546158
0.00546158
0.00546157
0.00546155
0.00546151
0.00546146
0.0054614
0.00546132
0.00546123
0.00546112
0.00546099
0.00546084
0.00546067
0.00546047
0.00546024
0.00545997
0.00545968
0.00545934
0.00545896
0.00545854
0.00545806
0.00545753
0.00545694
0.00545629
0.00545557
0.00545478
0.00545392
0.00545299
0.005452
0.00545094
0.00544979
0.00551828
0.00551945
0.00552053
0.00552155
0.0055225
0.00552338
0.00552418
0.00552491
0.00552558
0.00552618
0.00552672
0.00552721
0.00552764
0.00552803
0.00552837
0.00552867
0.00552894
0.00552918
0.00552938
0.00552956
0.00552971
0.00552984
0.00552996
0.00553005
0.00553013
0.00553019
0.00553024
0.00553028
0.0055303
0.00553032
0.00553032
0.0055303
0.00553028
0.00553024
0.00553019
0.00553013
0.00553005
0.00552996
0.00552984
0.00552971
0.00552956
0.00552938
0.00552918
0.00552894
0.00552867
0.00552837
0.00552803
0.00552764
0.00552721
0.00552672
0.00552618
0.00552558
0.00552491
0.00552418
0.00552338
0.0055225
0.00552155
0.00552053
0.00551945
0.00551828
0.00559176
0.00559295
0.00559406
0.0055951
0.00559607
0.00559696
0.00559779
0.00559854
0.00559922
0.00559983
0.00560039
0.00560088
0.00560132
0.00560172
0.00560207
0.00560238
0.00560265
0.00560289
0.0056031
0.00560328
0.00560344
0.00560358
0.00560369
0.00560379
0.00560387
0.00560393
0.00560398
0.00560402
0.00560405
0.00560406
0.00560406
0.00560405
0.00560402
0.00560398
0.00560393
0.00560387
0.00560379
0.00560369
0.00560358
0.00560344
0.00560328
0.0056031
0.00560289
0.00560265
0.00560238
0.00560207
0.00560172
0.00560132
0.00560088
0.00560039
0.00559983
0.00559922
0.00559854
0.00559779
0.00559696
0.00559607
0.0055951
0.00559406
0.00559295
0.00559176
0.00567073
0.00567196
0.00567309
0.00567415
0.00567514
0.00567606
0.0056769
0.00567767
0.00567836
0.00567899
0.00567956
0.00568007
0.00568052
0.00568093
0.00568128
0.0056816
0.00568188
0.00568213
0.00568234
0.00568253
0.00568269
0.00568283
0.00568294
0.00568304
0.00568313
0.00568319
0.00568324
0.00568328
0.00568331
0.00568332
0.00568332
0.00568331
0.00568328
0.00568324
0.00568319
0.00568313
0.00568304
0.00568294
0.00568283
0.00568269
0.00568253
0.00568234
0.00568213
0.00568188
0.0056816
0.00568128
0.00568093
0.00568052
0.00568007
0.00567956
0.00567899
0.00567836
0.00567767
0.0056769
0.00567606
0.00567514
0.00567415
0.00567309
0.00567196
0.00567073
0.0057558
0.00575705
0.00575821
0.0057593
0.00576032
0.00576126
0.00576212
0.00576291
0.00576362
0.00576427
0.00576485
0.00576537
0.00576583
0.00576625
0.00576662
0.00576694
0.00576723
0.00576748
0.0057677
0.00576789
0.00576806
0.0057682
0.00576832
0.00576842
0.00576851
0.00576857
0.00576863
0.00576867
0.00576869
0.0057687
0.0057687
0.00576869
0.00576867
0.00576863
0.00576857
0.00576851
0.00576842
0.00576832
0.0057682
0.00576806
0.00576789
0.0057677
0.00576748
0.00576723
0.00576694
0.00576662
0.00576625
0.00576583
0.00576537
0.00576485
0.00576427
0.00576362
0.00576291
0.00576212
0.00576126
0.00576032
0.0057593
0.00575821
0.00575705
0.0057558
0.00584765
0.00584894
0.00585014
0.00585126
0.0058523
0.00585326
0.00585415
0.00585496
0.00585569
0.00585635
0.00585695
0.00585748
0.00585796
0.00585839
0.00585876
0.0058591
0.00585939
0.00585965
0.00585988
0.00586007
0.00586024
0.00586039
0.00586051
0.00586062
0.0058607
0.00586077
0.00586083
0.00586087
0.0058609
0.00586091
0.00586091
0.0058609
0.00586087
0.00586083
0.00586077
0.0058607
0.00586062
0.00586051
0.00586039
0.00586024
0.00586007
0.00585988
0.00585965
0.00585939
0.0058591
0.00585876
0.00585839
0.00585796
0.00585748
0.00585695
0.00585635
0.00585569
0.00585496
0.00585415
0.00585326
0.0058523
0.00585126
0.00585014
0.00584894
0.00584765
0.00594711
0.00594844
0.00594966
0.00595082
0.00595189
0.00595288
0.00595379
0.00595462
0.00595538
0.00595606
0.00595667
0.00595722
0.00595771
0.00595815
0.00595854
0.00595888
0.00595919
0.00595945
0.00595969
0.00595989
0.00596006
0.00596021
0.00596034
0.00596045
0.00596054
0.00596061
0.00596067
0.00596071
0.00596074
0.00596075
0.00596075
0.00596074
0.00596071
0.00596067
0.00596061
0.00596054
0.00596045
0.00596034
0.00596021
0.00596006
0.00595989
0.00595969
0.00595945
0.00595919
0.00595888
0.00595854
0.00595815
0.00595771
0.00595722
0.00595667
0.00595606
0.00595538
0.00595462
0.00595379
0.00595288
0.00595189
0.00595082
0.00594966
0.00594844
0.00594711
0.00605511
0.00605649
0.00605775
0.00605894
0.00606005
0.00606107
0.00606201
0.00606286
0.00606364
0.00606434
0.00606498
0.00606554
0.00606605
0.0060665
0.0060669
0.00606726
0.00606757
0.00606785
0.00606809
0.00606829
0.00606848
0.00606863
0.00606876
0.00606887
0.00606897
0.00606904
0.0060691
0.00606914
0.00606917
0.00606918
0.00606918
0.00606917
0.00606914
0.0060691
0.00606904
0.00606897
0.00606887
0.00606876
0.00606863
0.00606848
0.00606829
0.00606809
0.00606785
0.00606757
0.00606726
0.0060669
0.0060665
0.00606605
0.00606554
0.00606498
0.00606434
0.00606364
0.00606286
0.00606201
0.00606107
0.00606005
0.00605894
0.00605775
0.00605649
0.00605511
0.00617279
0.00617422
0.00617552
0.00617675
0.00617789
0.00617895
0.00617992
0.00618081
0.00618161
0.00618234
0.00618299
0.00618358
0.0061841
0.00618457
0.00618498
0.00618535
0.00618567
0.00618596
0.0061862
0.00618642
0.00618661
0.00618677
0.0061869
0.00618702
0.00618711
0.00618719
0.00618725
0.0061873
0.00618733
0.00618734
0.00618734
0.00618733
0.0061873
0.00618725
0.00618719
0.00618711
0.00618702
0.0061869
0.00618677
0.00618661
0.00618642
0.0061862
0.00618596
0.00618567
0.00618535
0.00618498
0.00618457
0.0061841
0.00618358
0.00618299
0.00618234
0.00618161
0.00618081
0.00617992
0.00617895
0.00617789
0.00617675
0.00617552
0.00617422
0.00617279
0.00630148
0.00630296
0.00630431
0.00630558
0.00630677
0.00630786
0.00630887
0.00630979
0.00631062
0.00631137
0.00631205
0.00631266
0.0063132
0.00631369
0.00631412
0.0063145
0.00631483
0.00631513
0.00631538
0.00631561
0.0063158
0.00631597
0.00631611
0.00631623
0.00631633
0.00631641
0.00631647
0.00631652
0.00631655
0.00631656
0.00631656
0.00631655
0.00631652
0.00631647
0.00631641
0.00631633
0.00631623
0.00631611
0.00631597
0.0063158
0.00631561
0.00631538
0.00631513
0.00631483
0.0063145
0.00631412
0.00631369
0.0063132
0.00631266
0.00631205
0.00631137
0.00631062
0.00630979
0.00630887
0.00630786
0.00630677
0.00630558
0.00630431
0.00630296
0.00630148
0.00644278
0.00644432
0.00644572
0.00644705
0.00644828
0.00644942
0.00645046
0.00645141
0.00645228
0.00645306
0.00645377
0.0064544
0.00645497
0.00645547
0.00645592
0.00645631
0.00645666
0.00645697
0.00645723
0.00645747
0.00645767
0.00645784
0.00645799
0.00645811
0.00645822
0.0064583
0.00645836
0.00645841
0.00645844
0.00645846
0.00645846
0.00645844
0.00645841
0.00645836
0.0064583
0.00645822
0.00645811
0.00645799
0.00645784
0.00645767
0.00645747
0.00645723
0.00645697
0.00645666
0.00645631
0.00645592
0.00645547
0.00645497
0.0064544
0.00645377
0.00645306
0.00645228
0.00645141
0.00645046
0.00644942
0.00644828
0.00644705
0.00644572
0.00644432
0.00644278
0.00659863
0.00660023
0.0066017
0.00660308
0.00660437
0.00660555
0.00660664
0.00660764
0.00660854
0.00660936
0.00661009
0.00661075
0.00661134
0.00661187
0.00661233
0.00661275
0.00661311
0.00661343
0.00661371
0.00661395
0.00661416
0.00661434
0.0066145
0.00661463
0.00661474
0.00661482
0.00661489
0.00661494
0.00661497
0.00661499
0.00661499
0.00661497
0.00661494
0.00661489
0.00661482
0.00661474
0.00661463
0.0066145
0.00661434
0.00661416
0.00661395
0.00661371
0.00661343
0.00661311
0.00661275
0.00661233
0.00661187
0.00661134
0.00661075
0.00661009
0.00660936
0.00660854
0.00660764
0.00660664
0.00660555
0.00660437
0.00660308
0.0066017
0.00660023
0.00659863
0.0067714
0.00677308
0.00677462
0.00677607
0.00677741
0.00677866
0.0067798
0.00678084
0.00678179
0.00678264
0.00678341
0.0067841
0.00678472
0.00678527
0.00678576
0.00678619
0.00678657
0.00678691
0.0067872
0.00678745
0.00678768
0.00678787
0.00678803
0.00678816
0.00678828
0.00678837
0.00678844
0.00678849
0.00678852
0.00678854
0.00678854
0.00678852
0.00678849
0.00678844
0.00678837
0.00678828
0.00678816
0.00678803
0.00678787
0.00678768
0.00678745
0.0067872
0.00678691
0.00678657
0.00678619
0.00678576
0.00678527
0.00678472
0.0067841
0.00678341
0.00678264
0.00678179
0.00678084
0.0067798
0.00677866
0.00677741
0.00677607
0.00677462
0.00677308
0.0067714
0.00696404
0.00696581
0.00696743
0.00696895
0.00697036
0.00697167
0.00697287
0.00697397
0.00697497
0.00697587
0.00697668
0.0069774
0.00697805
0.00697863
0.00697915
0.0069796
0.00698
0.00698036
0.00698066
0.00698093
0.00698116
0.00698136
0.00698153
0.00698168
0.0069818
0.00698189
0.00698197
0.00698202
0.00698206
0.00698208
0.00698208
0.00698206
0.00698202
0.00698197
0.00698189
0.0069818
0.00698168
0.00698153
0.00698136
0.00698116
0.00698093
0.00698066
0.00698036
0.00698
0.0069796
0.00697915
0.00697863
0.00697805
0.0069774
0.00697668
0.00697587
0.00697497
0.00697397
0.00697287
0.00697167
0.00697036
0.00696895
0.00696743
0.00696581
0.00696404
0.00718023
0.0071821
0.00718381
0.00718542
0.00718692
0.0071883
0.00718957
0.00719073
0.00719178
0.00719273
0.00719359
0.00719436
0.00719505
0.00719566
0.00719621
0.00719669
0.00719711
0.00719749
0.00719781
0.0071981
0.00719834
0.00719855
0.00719873
0.00719889
0.00719901
0.00719911
0.00719919
0.00719925
0.00719929
0.00719931
0.00719931
0.00719929
0.00719925
0.00719919
0.00719911
0.00719901
0.00719889
0.00719873
0.00719855
0.00719834
0.0071981
0.00719781
0.00719749
0.00719711
0.00719669
0.00719621
0.00719566
0.00719505
0.00719436
0.00719359
0.00719273
0.00719178
0.00719073
0.00718957
0.0071883
0.00718692
0.00718542
0.00718381
0.0071821
0.00718023
0.00742465
0.00742665
0.00742847
0.00743018
0.00743177
0.00743324
0.0074346
0.00743583
0.00743695
0.00743796
0.00743888
0.00743969
0.00744043
0.00744108
0.00744166
0.00744217
0.00744262
0.00744302
0.00744337
0.00744367
0.00744393
0.00744416
0.00744435
0.00744451
0.00744465
0.00744475
0.00744484
0.0074449
0.00744494
0.00744496
0.00744496
0.00744494
0.0074449
0.00744484
0.00744475
0.00744465
0.00744451
0.00744435
0.00744416
0.00744393
0.00744367
0.00744337
0.00744302
0.00744262
0.00744217
0.00744166
0.00744108
0.00744043
0.00743969
0.00743888
0.00743796
0.00743695
0.00743583
0.0074346
0.00743324
0.00743177
0.00743018
0.00742847
0.00742665
0.00742465
0.00770338
0.00770552
0.00770747
0.0077093
0.00771101
0.00771259
0.00771404
0.00771536
0.00771656
0.00771765
0.00771862
0.0077195
0.00772029
0.00772099
0.00772161
0.00772216
0.00772265
0.00772307
0.00772344
0.00772377
0.00772405
0.00772429
0.0077245
0.00772467
0.00772481
0.00772493
0.00772502
0.00772509
0.00772513
0.00772515
0.00772515
0.00772513
0.00772509
0.00772502
0.00772493
0.00772481
0.00772467
0.0077245
0.00772429
0.00772405
0.00772377
0.00772344
0.00772307
0.00772265
0.00772216
0.00772161
0.00772099
0.00772029
0.0077195
0.00771862
0.00771765
0.00771656
0.00771536
0.00771404
0.00771259
0.00771101
0.0077093
0.00770747
0.00770552
0.00770338
0.00802439
0.0080267
0.00802881
0.00803079
0.00803264
0.00803435
0.00803591
0.00803734
0.00803864
0.00803982
0.00804088
0.00804183
0.00804267
0.00804343
0.0080441
0.0080447
0.00804522
0.00804569
0.00804609
0.00804644
0.00804674
0.00804701
0.00804723
0.00804742
0.00804757
0.0080477
0.0080478
0.00804787
0.00804792
0.00804794
0.00804794
0.00804792
0.00804787
0.0080478
0.0080477
0.00804757
0.00804742
0.00804723
0.00804701
0.00804674
0.00804644
0.00804609
0.00804569
0.00804522
0.0080447
0.0080441
0.00804343
0.00804267
0.00804183
0.00804088
0.00803982
0.00803864
0.00803734
0.00803591
0.00803435
0.00803264
0.00803079
0.00802881
0.0080267
0.00802439
0.00839844
0.00840096
0.00840326
0.00840542
0.00840744
0.0084093
0.00841101
0.00841258
0.008414
0.00841528
0.00841644
0.00841748
0.00841841
0.00841923
0.00841997
0.00842062
0.00842119
0.0084217
0.00842214
0.00842252
0.00842286
0.00842314
0.00842339
0.00842359
0.00842376
0.0084239
0.00842401
0.00842409
0.00842414
0.00842416
0.00842416
0.00842414
0.00842409
0.00842401
0.0084239
0.00842376
0.00842359
0.00842339
0.00842314
0.00842286
0.00842252
0.00842214
0.0084217
0.00842119
0.00842062
0.00841997
0.00841923
0.00841841
0.00841748
0.00841644
0.00841528
0.008414
0.00841258
0.00841101
0.0084093
0.00840744
0.00840542
0.00840326
0.00840096
0.00839844
0.00884029
0.00884307
0.00884562
0.00884801
0.00885024
0.0088523
0.0088542
0.00885593
0.0088575
0.00885892
0.0088602
0.00886135
0.00886238
0.0088633
0.00886411
0.00886483
0.00886547
0.00886603
0.00886652
0.00886694
0.00886731
0.00886763
0.0088679
0.00886812
0.00886831
0.00886847
0.00886858
0.00886867
0.00886873
0.00886876
0.00886876
0.00886873
0.00886867
0.00886858
0.00886847
0.00886831
0.00886812
0.0088679
0.00886763
0.00886731
0.00886694
0.00886652
0.00886603
0.00886547
0.00886483
0.00886411
0.0088633
0.00886238
0.00886135
0.0088602
0.00885892
0.0088575
0.00885593
0.0088542
0.0088523
0.00885024
0.00884801
0.00884562
0.00884307
0.00884029
0.00937079
0.00937391
0.00937677
0.00937945
0.00938196
0.00938428
0.00938641
0.00938835
0.00939012
0.00939172
0.00939316
0.00939445
0.00939561
0.00939664
0.00939756
0.00939837
0.00939908
0.00939971
0.00940026
0.00940074
0.00940116
0.00940151
0.00940182
0.00940207
0.00940229
0.00940246
0.00940259
0.00940269
0.00940276
0.00940279
0.00940279
0.00940276
0.00940269
0.00940259
0.00940246
0.00940229
0.00940207
0.00940182
0.00940151
0.00940116
0.00940074
0.00940026
0.00939971
0.00939908
0.00939837
0.00939756
0.00939664
0.00939561
0.00939445
0.00939316
0.00939172
0.00939012
0.00938835
0.00938641
0.00938428
0.00938196
0.00937945
0.00937677
0.00937391
0.00937079
0.01002
0.0100235
0.0100268
0.0100299
0.0100328
0.0100354
0.0100379
0.0100401
0.0100421
0.0100439
0.0100456
0.0100471
0.0100484
0.0100496
0.0100506
0.0100516
0.0100524
0.0100531
0.0100537
0.0100543
0.0100548
0.0100552
0.0100555
0.0100558
0.0100561
0.0100563
0.0100564
0.0100565
0.0100566
0.0100566
0.0100566
0.0100566
0.0100565
0.0100564
0.0100563
0.0100561
0.0100558
0.0100555
0.0100552
0.0100548
0.0100543
0.0100537
0.0100531
0.0100524
0.0100516
0.0100506
0.0100496
0.0100484
0.0100471
0.0100456
0.0100439
0.0100421
0.0100401
0.0100379
0.0100354
0.0100328
0.0100299
0.0100268
0.0100235
0.01002
0.0108319
0.010836
0.0108398
0.0108434
0.0108468
0.0108499
0.0108528
0.0108554
0.0108577
0.0108599
0.0108618
0.0108636
0.0108651
0.0108665
0.0108677
0.0108688
0.0108698
0.0108706
0.0108714
0.010872
0.0108726
0.0108731
0.0108735
0.0108738
0.0108741
0.0108743
0.0108745
0.0108747
0.0108747
0.0108748
0.0108748
0.0108747
0.0108747
0.0108745
0.0108743
0.0108741
0.0108738
0.0108735
0.0108731
0.0108726
0.010872
0.0108714
0.0108706
0.0108698
0.0108688
0.0108677
0.0108665
0.0108651
0.0108636
0.0108618
0.0108599
0.0108577
0.0108554
0.0108528
0.0108499
0.0108468
0.0108434
0.0108398
0.010836
0.0108319
0.0118707
0.0118756
0.0118802
0.0118845
0.0118885
0.0118923
0.0118957
0.0118989
0.0119017
0.0119043
0.0119066
0.0119087
0.0119106
0.0119123
0.0119138
0.0119151
0.0119162
0.0119172
0.0119181
0.0119189
0.0119196
0.0119202
0.0119207
0.0119211
0.0119214
0.0119217
0.0119219
0.0119221
0.0119222
0.0119222
0.0119222
0.0119222
0.0119221
0.0119219
0.0119217
0.0119214
0.0119211
0.0119207
0.0119202
0.0119196
0.0119189
0.0119181
0.0119172
0.0119162
0.0119151
0.0119138
0.0119123
0.0119106
0.0119087
0.0119066
0.0119043
0.0119017
0.0118989
0.0118957
0.0118923
0.0118885
0.0118845
0.0118802
0.0118756
0.0118707
0.0132277
0.0132337
0.0132393
0.0132447
0.0132497
0.0132543
0.0132585
0.0132624
0.0132659
0.0132691
0.013272
0.0132745
0.0132769
0.0132789
0.0132807
0.0132824
0.0132838
0.0132851
0.0132862
0.0132871
0.0132879
0.0132887
0.0132893
0.0132898
0.0132902
0.0132906
0.0132908
0.013291
0.0132911
0.0132912
0.0132912
0.0132911
0.013291
0.0132908
0.0132906
0.0132902
0.0132898
0.0132893
0.0132887
0.0132879
0.0132871
0.0132862
0.0132851
0.0132838
0.0132824
0.0132807
0.0132789
0.0132769
0.0132745
0.013272
0.0132691
0.0132659
0.0132624
0.0132585
0.0132543
0.0132497
0.0132447
0.0132393
0.0132337
0.0132277
0.0150242
0.0150317
0.0150388
0.0150455
0.0150518
0.0150576
0.0150629
0.0150678
0.0150722
0.0150762
0.0150798
0.0150831
0.015086
0.0150885
0.0150909
0.0150929
0.0150947
0.0150963
0.0150977
0.0150989
0.0150999
0.0151008
0.0151016
0.0151022
0.0151028
0.0151032
0.0151035
0.0151038
0.0151039
0.015104
0.015104
0.0151039
0.0151038
0.0151035
0.0151032
0.0151028
0.0151022
0.0151016
0.0151008
0.0150999
0.0150989
0.0150977
0.0150963
0.0150947
0.0150929
0.0150909
0.0150885
0.015086
0.0150831
0.0150798
0.0150762
0.0150722
0.0150678
0.0150629
0.0150576
0.0150518
0.0150455
0.0150388
0.0150317
0.0150242
0.0174031
0.0174126
0.0174216
0.01743
0.017438
0.0174453
0.0174521
0.0174582
0.0174638
0.0174689
0.0174735
0.0174776
0.0174813
0.0174846
0.0174875
0.0174901
0.0174924
0.0174944
0.0174961
0.0174977
0.017499
0.0175001
0.0175011
0.0175019
0.0175026
0.0175032
0.0175036
0.0175039
0.0175041
0.0175042
0.0175042
0.0175041
0.0175039
0.0175036
0.0175032
0.0175026
0.0175019
0.0175011
0.0175001
0.017499
0.0174977
0.0174961
0.0174944
0.0174924
0.0174901
0.0174875
0.0174846
0.0174813
0.0174776
0.0174735
0.0174689
0.0174638
0.0174582
0.0174521
0.0174453
0.017438
0.01743
0.0174216
0.0174126
0.0174031
0.0205023
0.0205142
0.0205255
0.0205361
0.0205461
0.0205554
0.0205638
0.0205716
0.0205787
0.020585
0.0205908
0.020596
0.0206006
0.0206047
0.0206084
0.0206117
0.0206145
0.0206171
0.0206193
0.0206212
0.0206229
0.0206243
0.0206255
0.0206266
0.0206274
0.0206281
0.0206286
0.020629
0.0206293
0.0206294
0.0206294
0.0206293
0.020629
0.0206286
0.0206281
0.0206274
0.0206266
0.0206255
0.0206243
0.0206229
0.0206212
0.0206193
0.0206171
0.0206145
0.0206117
0.0206084
0.0206047
0.0206006
0.020596
0.0205908
0.020585
0.0205787
0.0205716
0.0205638
0.0205554
0.0205461
0.0205361
0.0205255
0.0205142
0.0205023
0.0244135
0.0244283
0.0244422
0.0244553
0.0244676
0.0244789
0.0244894
0.0244989
0.0245076
0.0245154
0.0245225
0.0245289
0.0245346
0.0245397
0.0245442
0.0245482
0.0245517
0.0245549
0.0245576
0.0245599
0.024562
0.0245638
0.0245653
0.0245666
0.0245676
0.0245685
0.0245691
0.0245696
0.0245699
0.0245701
0.0245701
0.0245699
0.0245696
0.0245691
0.0245685
0.0245676
0.0245666
0.0245653
0.0245638
0.024562
0.0245599
0.0245576
0.0245549
0.0245517
0.0245482
0.0245442
0.0245397
0.0245346
0.0245289
0.0245225
0.0245154
0.0245076
0.0244989
0.0244894
0.0244789
0.0244676
0.0244553
0.0244422
0.0244283
0.0244135
0.0291471
0.0291648
0.0291814
0.029197
0.0292117
0.0292253
0.0292377
0.0292491
0.0292595
0.0292689
0.0292773
0.0292849
0.0292917
0.0292978
0.0293032
0.029308
0.0293122
0.0293159
0.0293192
0.029322
0.0293245
0.0293266
0.0293284
0.0293299
0.0293312
0.0293322
0.029333
0.0293336
0.0293339
0.0293341
0.0293341
0.0293339
0.0293336
0.029333
0.0293322
0.0293312
0.0293299
0.0293284
0.0293266
0.0293245
0.029322
0.0293192
0.0293159
0.0293122
0.029308
0.0293032
0.0292978
0.0292917
0.0292849
0.0292773
0.0292689
0.0292595
0.0292491
0.0292377
0.0292253
0.0292117
0.029197
0.0291814
0.0291648
0.0291471
0.0346266
0.0346472
0.0346665
0.0346846
0.0347016
0.0347173
0.0347317
0.0347449
0.0347568
0.0347677
0.0347774
0.0347862
0.0347941
0.0348011
0.0348074
0.0348129
0.0348178
0.0348221
0.0348258
0.0348291
0.034832
0.0348344
0.0348365
0.0348383
0.0348397
0.0348409
0.0348418
0.0348425
0.034843
0.0348432
0.0348432
0.034843
0.0348425
0.0348418
0.0348409
0.0348397
0.0348383
0.0348365
0.0348344
0.034832
0.0348291
0.0348258
0.0348221
0.0348178
0.0348129
0.0348074
0.0348011
0.0347941
0.0347862
0.0347774
0.0347677
0.0347568
0.0347449
0.0347317
0.0347173
0.0347016
0.0346846
0.0346665
0.0346472
0.0346266
0.0407207
0.040744
0.0407658
0.0407862
0.0408053
0.0408229
0.0408391
0.0408539
0.0408674
0.0408796