/*--------------------------------*- C++ -*----------------------------------*\
| =========                 |                                                 |
| \\      /  F ield         | foam-extend: Open Source CFD                    |
|  \\    /   O peration     | Version:     4.0                                |
|   \\  /    A nd           | Web:         http://www.foam-extend.org         |
|    \\/     M anipulation  |                                                 |
\*---------------------------------------------------------------------------*/
FoamFile
{
    version     2.0;
    format      ascii;
    class       volScalarField;
    location    "1860";
    object      psiE;
}
// * * * * * * * * * * * * * * * * * * * * * * * * * * * * * * * * * * * * * //

dimensions      [0 0 0 0 0 0 0];

internalField   nonuniform List<scalar> 
6960
(
0.400605
0.400644
0.400655
0.400657
0.400657
0.400657
0.400657
0.400656
0.400656
0.400655
0.400655
0.400655
0.400654
0.400654
0.400654
0.400653
0.400653
0.400653
0.400653
0.400653
0.400652
0.400652
0.400652
0.400652
0.400652
0.400652
0.400652
0.400652
0.400652
0.400652
0.400652
0.400652
0.400652
0.400652
0.400652
0.400652
0.400652
0.400652
0.400652
0.400652
0.400653
0.400653
0.400653
0.400653
0.400653
0.400654
0.400654
0.400654
0.400655
0.400655
0.400655
0.400656
0.400656
0.400657
0.400657
0.400657
0.400657
0.400655
0.400644
0.400605
1.08812
1.08827
1.0883
1.08831
1.08831
1.08831
1.08831
1.08831
1.08831
1.08831
1.0883
1.0883
1.0883
1.0883
1.0883
1.0883
1.0883
1.0883
1.0883
1.08829
1.08829
1.08829
1.08829
1.08829
1.08829
1.08829
1.08829
1.08829
1.08829
1.08829
1.08829
1.08829
1.08829
1.08829
1.08829
1.08829
1.08829
1.08829
1.08829
1.08829
1.08829
1.0883
1.0883
1.0883
1.0883
1.0883
1.0883
1.0883
1.0883
1.0883
1.08831
1.08831
1.08831
1.08831
1.08831
1.08831
1.08831
1.0883
1.08827
1.08812
1.74881
1.74907
1.74914
1.74915
1.74916
1.74915
1.74915
1.74915
1.74914
1.74914
1.74914
1.74913
1.74913
1.74913
1.74913
1.74912
1.74912
1.74912
1.74912
1.74912
1.74912
1.74911
1.74911
1.74911
1.74911
1.74911
1.74911
1.74911
1.74911
1.74911
1.74911
1.74911
1.74911
1.74911
1.74911
1.74911
1.74911
1.74911
1.74911
1.74912
1.74912
1.74912
1.74912
1.74912
1.74912
1.74913
1.74913
1.74913
1.74913
1.74914
1.74914
1.74914
1.74915
1.74915
1.74915
1.74916
1.74915
1.74914
1.74907
1.74881
2.39345
2.39382
2.39391
2.39394
2.39394
2.39393
2.39393
2.39392
2.39392
2.39391
2.39391
2.3939
2.3939
2.39389
2.39389
2.39389
2.39388
2.39388
2.39388
2.39388
2.39387
2.39387
2.39387
2.39387
2.39387
2.39387
2.39387
2.39387
2.39387
2.39387
2.39387
2.39387
2.39387
2.39387
2.39387
2.39387
2.39387
2.39387
2.39387
2.39387
2.39388
2.39388
2.39388
2.39388
2.39389
2.39389
2.39389
2.3939
2.3939
2.39391
2.39391
2.39392
2.39392
2.39393
2.39393
2.39394
2.39394
2.39391
2.39382
2.39345
3.02103
3.02148
3.0216
3.02163
3.02163
3.02162
3.02161
3.0216
3.0216
3.02159
3.02158
3.02158
3.02157
3.02157
3.02156
3.02156
3.02155
3.02155
3.02154
3.02154
3.02154
3.02154
3.02153
3.02153
3.02153
3.02153
3.02153
3.02153
3.02153
3.02153
3.02153
3.02153
3.02153
3.02153
3.02153
3.02153
3.02153
3.02153
3.02154
3.02154
3.02154
3.02154
3.02155
3.02155
3.02156
3.02156
3.02157
3.02157
3.02158
3.02158
3.02159
3.0216
3.0216
3.02161
3.02162
3.02163
3.02163
3.0216
3.02148
3.02103
3.62759
3.62812
3.62825
3.62828
3.62828
3.62827
3.62826
3.62825
3.62824
3.62823
3.62822
3.62821
3.6282
3.6282
3.62819
3.62818
3.62818
3.62817
3.62817
3.62817
3.62816
3.62816
3.62816
3.62815
3.62815
3.62815
3.62815
3.62815
3.62815
3.62815
3.62815
3.62815
3.62815
3.62815
3.62815
3.62815
3.62815
3.62816
3.62816
3.62816
3.62817
3.62817
3.62817
3.62818
3.62818
3.62819
3.6282
3.6282
3.62821
3.62822
3.62823
3.62824
3.62825
3.62826
3.62827
3.62828
3.62828
3.62825
3.62812
3.62759
4.20789
4.20846
4.20861
4.20864
4.20863
4.20862
4.20861
4.20859
4.20858
4.20857
4.20856
4.20855
4.20854
4.20853
4.20852
4.20851
4.20851
4.2085
4.20849
4.20849
4.20848
4.20848
4.20848
4.20847
4.20847
4.20847
4.20847
4.20847
4.20847
4.20847
4.20847
4.20847
4.20847
4.20847
4.20847
4.20847
4.20847
4.20848
4.20848
4.20848
4.20849
4.20849
4.2085
4.20851
4.20851
4.20852
4.20853
4.20854
4.20855
4.20856
4.20857
4.20858
4.20859
4.20861
4.20862
4.20863
4.20864
4.20861
4.20846
4.20789
4.75558
4.75617
4.75632
4.75635
4.75634
4.75632
4.75631
4.75629
4.75627
4.75626
4.75625
4.75623
4.75622
4.75621
4.7562
4.75619
4.75618
4.75618
4.75617
4.75616
4.75616
4.75615
4.75615
4.75615
4.75614
4.75614
4.75614
4.75614
4.75614
4.75614
4.75614
4.75614
4.75614
4.75614
4.75614
4.75614
4.75615
4.75615
4.75615
4.75616
4.75616
4.75617
4.75618
4.75618
4.75619
4.7562
4.75621
4.75622
4.75623
4.75625
4.75626
4.75627
4.75629
4.75631
4.75632
4.75634
4.75635
4.75632
4.75617
4.75558
5.26332
5.2639
5.26405
5.26407
5.26405
5.26403
5.26401
5.26399
5.26397
5.26395
5.26394
5.26392
5.26391
5.2639
5.26388
5.26387
5.26386
5.26385
5.26385
5.26384
5.26383
5.26383
5.26382
5.26382
5.26381
5.26381
5.26381
5.26381
5.26381
5.26381
5.26381
5.26381
5.26381
5.26381
5.26381
5.26381
5.26382
5.26382
5.26383
5.26383
5.26384
5.26385
5.26385
5.26386
5.26387
5.26388
5.2639
5.26391
5.26392
5.26394
5.26395
5.26397
5.26399
5.26401
5.26403
5.26405
5.26407
5.26405
5.2639
5.26332
5.72322
5.72375
5.72387
5.72389
5.72387
5.72384
5.72382
5.72379
5.72377
5.72375
5.72373
5.72371
5.72369
5.72368
5.72366
5.72365
5.72364
5.72363
5.72362
5.72361
5.7236
5.7236
5.72359
5.72359
5.72358
5.72358
5.72358
5.72357
5.72357
5.72357
5.72357
5.72357
5.72357
5.72358
5.72358
5.72358
5.72359
5.72359
5.7236
5.7236
5.72361
5.72362
5.72363
5.72364
5.72365
5.72366
5.72368
5.72369
5.72371
5.72373
5.72375
5.72377
5.72379
5.72382
5.72384
5.72387
5.72389
5.72387
5.72375
5.72322
6.12801
6.12845
6.12855
6.12855
6.12853
6.1285
6.12847
6.12844
6.12841
6.12838
6.12836
6.12834
6.12832
6.1283
6.12829
6.12827
6.12826
6.12825
6.12824
6.12823
6.12822
6.12821
6.1282
6.1282
6.12819
6.12819
6.12818
6.12818
6.12818
6.12818
6.12818
6.12818
6.12818
6.12818
6.12819
6.12819
6.1282
6.1282
6.12821
6.12822
6.12823
6.12824
6.12825
6.12826
6.12827
6.12829
6.1283
6.12832
6.12834
6.12836
6.12838
6.12841
6.12844
6.12847
6.1285
6.12853
6.12855
6.12855
6.12845
6.12801
6.47315
6.47347
6.47354
6.47352
6.47349
6.47345
6.47342
6.47338
6.47335
6.47332
6.4733
6.47327
6.47325
6.47323
6.47321
6.47319
6.47318
6.47317
6.47315
6.47314
6.47313
6.47312
6.47312
6.47311
6.4731
6.4731
6.4731
6.47309
6.47309
6.47309
6.47309
6.47309
6.47309
6.4731
6.4731
6.4731
6.47311
6.47312
6.47312
6.47313
6.47314
6.47315
6.47317
6.47318
6.47319
6.47321
6.47323
6.47325
6.47327
6.4733
6.47332
6.47335
6.47338
6.47342
6.47345
6.47349
6.47352
6.47354
6.47347
6.47315
6.75885
6.75905
6.75908
6.75905
6.75901
6.75896
6.75892
6.75889
6.75885
6.75882
6.75879
6.75876
6.75874
6.75872
6.7587
6.75868
6.75866
6.75865
6.75863
6.75862
6.75861
6.7586
6.75859
6.75858
6.75858
6.75857
6.75857
6.75857
6.75856
6.75856
6.75856
6.75856
6.75857
6.75857
6.75857
6.75858
6.75858
6.75859
6.7586
6.75861
6.75862
6.75863
6.75865
6.75866
6.75868
6.7587
6.75872
6.75874
6.75876
6.75879
6.75882
6.75885
6.75889
6.75892
6.75896
6.75901
6.75905
6.75908
6.75905
6.75885
6.99078
6.99087
6.99086
6.99082
6.99077
6.99072
6.99068
6.99064
6.9906
6.99056
6.99053
6.9905
6.99048
6.99045
6.99043
6.99041
6.99039
6.99038
6.99036
6.99035
6.99034
6.99033
6.99032
6.99031
6.9903
6.9903
6.99029
6.99029
6.99029
6.99029
6.99029
6.99029
6.99029
6.99029
6.9903
6.9903
6.99031
6.99032
6.99033
6.99034
6.99035
6.99036
6.99038
6.99039
6.99041
6.99043
6.99045
6.99048
6.9905
6.99053
6.99056
6.9906
6.99064
6.99068
6.99072
6.99077
6.99082
6.99086
6.99087
6.99078
7.17848
7.17847
7.17843
7.17838
7.17833
7.17827
7.17823
7.17818
7.17814
7.1781
7.17807
7.17804
7.17801
7.17799
7.17796
7.17794
7.17792
7.17791
7.17789
7.17788
7.17787
7.17785
7.17784
7.17784
7.17783
7.17782
7.17782
7.17782
7.17781
7.17781
7.17781
7.17781
7.17782
7.17782
7.17782
7.17783
7.17784
7.17784
7.17785
7.17787
7.17788
7.17789
7.17791
7.17792
7.17794
7.17796
7.17799
7.17801
7.17804
7.17807
7.1781
7.17814
7.17818
7.17823
7.17827
7.17833
7.17838
7.17843
7.17847
7.17848
7.33255
7.33248
7.33242
7.33236
7.3323
7.33224
7.33219
7.33215
7.33211
7.33207
7.33203
7.332
7.33197
7.33194
7.33192
7.3319
7.33188
7.33186
7.33185
7.33183
7.33182
7.33181
7.3318
7.33179
7.33178
7.33178
7.33177
7.33177
7.33176
7.33176
7.33176
7.33176
7.33177
7.33177
7.33178
7.33178
7.33179
7.3318
7.33181
7.33182
7.33183
7.33185
7.33186
7.33188
7.3319
7.33192
7.33194
7.33197
7.332
7.33203
7.33207
7.33211
7.33215
7.33219
7.33224
7.3323
7.33236
7.33242
7.33248
7.33255
7.4624
7.46228
7.4622
7.46213
7.46207
7.46201
7.46196
7.46192
7.46187
7.46183
7.4618
7.46176
7.46173
7.46171
7.46168
7.46166
7.46164
7.46162
7.46161
7.46159
7.46158
7.46157
7.46156
7.46155
7.46154
7.46153
7.46153
7.46153
7.46152
7.46152
7.46152
7.46152
7.46153
7.46153
7.46153
7.46154
7.46155
7.46156
7.46157
7.46158
7.46159
7.46161
7.46162
7.46164
7.46166
7.46168
7.46171
7.46173
7.46176
7.4618
7.46183
7.46187
7.46192
7.46196
7.46201
7.46207
7.46213
7.4622
7.46228
7.4624
7.57518
7.57502
7.57493
7.57486
7.5748
7.57474
7.57468
7.57464
7.57459
7.57455
7.57452
7.57448
7.57445
7.57443
7.5744
7.57438
7.57436
7.57434
7.57432
7.57431
7.57429
7.57428
7.57427
7.57426
7.57425
7.57425
7.57424
7.57424
7.57424
7.57424
7.57424
7.57424
7.57424
7.57424
7.57425
7.57425
7.57426
7.57427
7.57428
7.57429
7.57431
7.57432
7.57434
7.57436
7.57438
7.5744
7.57443
7.57445
7.57448
7.57452
7.57455
7.57459
7.57464
7.57468
7.57474
7.5748
7.57486
7.57493
7.57502
7.57518
7.67587
7.67569
7.6756
7.67552
7.67546
7.6754
7.67534
7.67529
7.67525
7.67521
7.67517
7.67514
7.67511
7.67508
7.67506
7.67503
7.67501
7.67499
7.67498
7.67496
7.67495
7.67493
7.67492
7.67492
7.67491
7.6749
7.6749
7.67489
7.67489
7.67489
7.67489
7.67489
7.67489
7.6749
7.6749
7.67491
7.67492
7.67492
7.67493
7.67495
7.67496
7.67498
7.67499
7.67501
7.67503
7.67506
7.67508
7.67511
7.67514
7.67517
7.67521
7.67525
7.67529
7.67534
7.6754
7.67546
7.67552
7.6756
7.67569
7.67587
7.76783
7.76764
7.76754
7.76746
7.76739
7.76733
7.76728
7.76723
7.76718
7.76714
7.76711
7.76707
7.76704
7.76701
7.76699
7.76696
7.76694
7.76692
7.76691
7.76689
7.76688
7.76687
7.76686
7.76685
7.76684
7.76683
7.76683
7.76682
7.76682
7.76682
7.76682
7.76682
7.76682
7.76683
7.76683
7.76684
7.76685
7.76686
7.76687
7.76688
7.76689
7.76691
7.76692
7.76694
7.76696
7.76699
7.76701
7.76704
7.76707
7.76711
7.76714
7.76718
7.76723
7.76728
7.76733
7.76739
7.76746
7.76754
7.76764
7.76783
7.85329
7.8531
7.85299
7.85291
7.85284
7.85278
7.85273
7.85268
7.85263
7.85259
7.85255
7.85252
7.85249
7.85246
7.85243
7.85241
7.85239
7.85237
7.85235
7.85234
7.85232
7.85231
7.8523
7.85229
7.85228
7.85228
7.85227
7.85227
7.85227
7.85226
7.85226
7.85227
7.85227
7.85227
7.85228
7.85228
7.85229
7.8523
7.85231
7.85232
7.85234
7.85235
7.85237
7.85239
7.85241
7.85243
7.85246
7.85249
7.85252
7.85255
7.85259
7.85263
7.85268
7.85273
7.85278
7.85284
7.85291
7.85299
7.8531
7.85329
7.9338
7.93361
7.93349
7.93341
7.93334
7.93328
7.93323
7.93318
7.93313
7.93309
7.93305
7.93302
7.93299
7.93296
7.93293
7.93291
7.93289
7.93287
7.93285
7.93284
7.93282
7.93281
7.9328
7.93279
7.93278
7.93278
7.93277
7.93277
7.93277
7.93276
7.93276
7.93277
7.93277
7.93277
7.93278
7.93278
7.93279
7.9328
7.93281
7.93282
7.93284
7.93285
7.93287
7.93289
7.93291
7.93293
7.93296
7.93299
7.93302
7.93305
7.93309
7.93313
7.93318
7.93323
7.93328
7.93334
7.93341
7.93349
7.93361
7.9338
8.01047
8.01027
8.01015
8.01007
8.01
8.00994
8.00989
8.00984
8.00979
8.00975
8.00971
8.00968
8.00965
8.00962
8.00959
8.00957
8.00955
8.00953
8.00951
8.00949
8.00948
8.00947
8.00946
8.00945
8.00944
8.00943
8.00943
8.00942
8.00942
8.00942
8.00942
8.00942
8.00942
8.00943
8.00943
8.00944
8.00945
8.00946
8.00947
8.00948
8.00949
8.00951
8.00953
8.00955
8.00957
8.00959
8.00962
8.00965
8.00968
8.00971
8.00975
8.00979
8.00984
8.00989
8.00994
8.01
8.01007
8.01015
8.01027
8.01047
8.0841
8.08391
8.08379
8.0837
8.08363
8.08357
8.08352
8.08347
8.08342
8.08338
8.08334
8.08331
8.08328
8.08325
8.08322
8.0832
8.08318
8.08316
8.08314
8.08312
8.08311
8.0831
8.08309
8.08308
8.08307
8.08306
8.08306
8.08306
8.08305
8.08305
8.08305
8.08305
8.08306
8.08306
8.08306
8.08307
8.08308
8.08309
8.0831
8.08311
8.08312
8.08314
8.08316
8.08318
8.0832
8.08322
8.08325
8.08328
8.08331
8.08334
8.08338
8.08342
8.08347
8.08352
8.08357
8.08363
8.0837
8.08379
8.08391
8.0841
8.15534
8.15515
8.15502
8.15494
8.15487
8.15481
8.15475
8.1547
8.15466
8.15462
8.15458
8.15454
8.15451
8.15448
8.15446
8.15443
8.15441
8.15439
8.15437
8.15436
8.15435
8.15433
8.15432
8.15431
8.1543
8.1543
8.15429
8.15429
8.15429
8.15429
8.15429
8.15429
8.15429
8.15429
8.1543
8.1543
8.15431
8.15432
8.15433
8.15435
8.15436
8.15437
8.15439
8.15441
8.15443
8.15446
8.15448
8.15451
8.15454
8.15458
8.15462
8.15466
8.1547
8.15475
8.15481
8.15487
8.15494
8.15502
8.15515
8.15534
8.22468
8.22448
8.22436
8.22428
8.2242
8.22414
8.22409
8.22404
8.22399
8.22395
8.22391
8.22388
8.22385
8.22382
8.22379
8.22377
8.22375
8.22373
8.22371
8.22369
8.22368
8.22367
8.22366
8.22365
8.22364
8.22363
8.22363
8.22362
8.22362
8.22362
8.22362
8.22362
8.22362
8.22363
8.22363
8.22364
8.22365
8.22366
8.22367
8.22368
8.22369
8.22371
8.22373
8.22375
8.22377
8.22379
8.22382
8.22385
8.22388
8.22391
8.22395
8.22399
8.22404
8.22409
8.22414
8.2242
8.22428
8.22436
8.22448
8.22468
8.29251
8.29233
8.2922
8.29211
8.29204
8.29198
8.29193
8.29188
8.29183
8.29179
8.29175
8.29172
8.29168
8.29166
8.29163
8.29161
8.29158
8.29156
8.29155
8.29153
8.29152
8.29151
8.29149
8.29149
8.29148
8.29147
8.29147
8.29146
8.29146
8.29146
8.29146
8.29146
8.29146
8.29147
8.29147
8.29148
8.29149
8.29149
8.29151
8.29152
8.29153
8.29155
8.29156
8.29158
8.29161
8.29163
8.29166
8.29168
8.29172
8.29175
8.29179
8.29183
8.29188
8.29193
8.29198
8.29204
8.29211
8.2922
8.29233
8.29251
8.35918
8.359
8.35888
8.35879
8.35872
8.35866
8.3586
8.35855
8.3585
8.35846
8.35842
8.35839
8.35836
8.35833
8.3583
8.35828
8.35826
8.35824
8.35822
8.35821
8.35819
8.35818
8.35817
8.35816
8.35815
8.35814
8.35814
8.35814
8.35813
8.35813
8.35813
8.35813
8.35814
8.35814
8.35814
8.35815
8.35816
8.35817
8.35818
8.35819
8.35821
8.35822
8.35824
8.35826
8.35828
8.3583
8.35833
8.35836
8.35839
8.35842
8.35846
8.3585
8.35855
8.3586
8.35866
8.35872
8.35879
8.35888
8.359
8.35918
8.42497
8.42479
8.42467
8.42458
8.42451
8.42445
8.42439
8.42434
8.42429
8.42425
8.42421
8.42418
8.42415
8.42412
8.42409
8.42407
8.42405
8.42403
8.42401
8.424
8.42398
8.42397
8.42396
8.42395
8.42394
8.42393
8.42393
8.42393
8.42392
8.42392
8.42392
8.42392
8.42393
8.42393
8.42393
8.42394
8.42395
8.42396
8.42397
8.42398
8.424
8.42401
8.42403
8.42405
8.42407
8.42409
8.42412
8.42415
8.42418
8.42421
8.42425
8.42429
8.42434
8.42439
8.42445
8.42451
8.42458
8.42467
8.42479
8.42497
8.49011
8.48994
8.48981
8.48972
8.48965
8.48959
8.48954
8.48949
8.48944
8.4894
8.48936
8.48933
8.48929
8.48927
8.48924
8.48922
8.48919
8.48917
8.48916
8.48914
8.48913
8.48911
8.4891
8.48909
8.48909
8.48908
8.48907
8.48907
8.48907
8.48907
8.48907
8.48907
8.48907
8.48907
8.48908
8.48909
8.48909
8.4891
8.48911
8.48913
8.48914
8.48916
8.48917
8.48919
8.48922
8.48924
8.48927
8.48929
8.48933
8.48936
8.4894
8.48944
8.48949
8.48954
8.48959
8.48965
8.48972
8.48981
8.48994
8.49011
8.55482
8.55465
8.55452
8.55443
8.55436
8.5543
8.55424
8.55419
8.55415
8.55411
8.55407
8.55403
8.554
8.55397
8.55395
8.55392
8.5539
8.55388
8.55387
8.55385
8.55384
8.55382
8.55381
8.5538
8.55379
8.55379
8.55378
8.55378
8.55378
8.55378
8.55378
8.55378
8.55378
8.55378
8.55379
8.55379
8.5538
8.55381
8.55382
8.55384
8.55385
8.55387
8.55388
8.5539
8.55392
8.55395
8.55397
8.554
8.55403
8.55407
8.55411
8.55415
8.55419
8.55424
8.5543
8.55436
8.55443
8.55452
8.55465
8.55482
8.61926
8.6191
8.61898
8.61889
8.61882
8.61875
8.6187
8.61865
8.6186
8.61856
8.61852
8.61849
8.61846
8.61843
8.6184
8.61838
8.61836
8.61834
8.61832
8.6183
8.61829
8.61828
8.61827
8.61826
8.61825
8.61824
8.61824
8.61823
8.61823
8.61823
8.61823
8.61823
8.61823
8.61824
8.61824
8.61825
8.61826
8.61827
8.61828
8.61829
8.6183
8.61832
8.61834
8.61836
8.61838
8.6184
8.61843
8.61846
8.61849
8.61852
8.61856
8.6186
8.61865
8.6187
8.61875
8.61882
8.61889
8.61898
8.6191
8.61926
8.68362
8.68347
8.68334
8.68325
8.68318
8.68312
8.68306
8.68301
8.68297
8.68293
8.68289
8.68285
8.68282
8.68279
8.68277
8.68274
8.68272
8.6827
8.68268
8.68267
8.68265
8.68264
8.68263
8.68262
8.68261
8.68261
8.6826
8.6826
8.6826
8.68259
8.68259
8.6826
8.6826
8.6826
8.68261
8.68261
8.68262
8.68263
8.68264
8.68265
8.68267
8.68268
8.6827
8.68272
8.68274
8.68277
8.68279
8.68282
8.68285
8.68289
8.68293
8.68297
8.68301
8.68306
8.68312
8.68318
8.68325
8.68334
8.68347
8.68362
8.74804
8.74789
8.74776
8.74767
8.7476
8.74754
8.74748
8.74743
8.74739
8.74735
8.74731
8.74727
8.74724
8.74721
8.74719
8.74716
8.74714
8.74712
8.74711
8.74709
8.74708
8.74706
8.74705
8.74704
8.74703
8.74703
8.74702
8.74702
8.74702
8.74702
8.74702
8.74702
8.74702
8.74702
8.74703
8.74703
8.74704
8.74705
8.74706
8.74708
8.74709
8.74711
8.74712
8.74714
8.74716
8.74719
8.74721
8.74724
8.74727
8.74731
8.74735
8.74739
8.74743
8.74748
8.74754
8.7476
8.74767
8.74776
8.74789
8.74804
8.81264
8.81249
8.81237
8.81228
8.81221
8.81215
8.8121
8.81205
8.812
8.81196
8.81192
8.81189
8.81185
8.81183
8.8118
8.81178
8.81175
8.81173
8.81172
8.8117
8.81169
8.81167
8.81166
8.81165
8.81165
8.81164
8.81163
8.81163
8.81163
8.81163
8.81163
8.81163
8.81163
8.81163
8.81164
8.81165
8.81165
8.81166
8.81167
8.81169
8.8117
8.81172
8.81173
8.81175
8.81178
8.8118
8.81183
8.81185
8.81189
8.81192
8.81196
8.812
8.81205
8.8121
8.81215
8.81221
8.81228
8.81237
8.81249
8.81264
8.87756
8.87742
8.8773
8.87721
8.87714
8.87708
8.87702
8.87697
8.87693
8.87688
8.87685
8.87681
8.87678
8.87675
8.87672
8.8767
8.87668
8.87666
8.87664
8.87663
8.87661
8.8766
8.87659
8.87658
8.87657
8.87657
8.87656
8.87656
8.87655
8.87655
8.87655
8.87655
8.87656
8.87656
8.87657
8.87657
8.87658
8.87659
8.8766
8.87661
8.87663
8.87664
8.87666
8.87668
8.8767
8.87672
8.87675
8.87678
8.87681
8.87685
8.87688
8.87693
8.87697
8.87702
8.87708
8.87714
8.87721
8.8773
8.87742
8.87756
8.94291
8.94277
8.94265
8.94256
8.94249
8.94243
8.94237
8.94233
8.94228
8.94224
8.9422
8.94217
8.94213
8.94211
8.94208
8.94206
8.94203
8.94201
8.942
8.94198
8.94197
8.94195
8.94194
8.94193
8.94193
8.94192
8.94191
8.94191
8.94191
8.94191
8.94191
8.94191
8.94191
8.94191
8.94192
8.94193
8.94193
8.94194
8.94195
8.94197
8.94198
8.942
8.94201
8.94203
8.94206
8.94208
8.94211
8.94213
8.94217
8.9422
8.94224
8.94228
8.94233
8.94237
8.94243
8.94249
8.94256
8.94265
8.94277
8.94291
9.00879
9.00866
9.00854
9.00846
9.00838
9.00832
9.00827
9.00822
9.00817
9.00813
9.00809
9.00806
9.00803
9.008
9.00797
9.00795
9.00793
9.00791
9.00789
9.00787
9.00786
9.00785
9.00784
9.00783
9.00782
9.00781
9.00781
9.0078
9.0078
9.0078
9.0078
9.0078
9.0078
9.00781
9.00781
9.00782
9.00783
9.00784
9.00785
9.00786
9.00787
9.00789
9.00791
9.00793
9.00795
9.00797
9.008
9.00803
9.00806
9.00809
9.00813
9.00817
9.00822
9.00827
9.00832
9.00838
9.00846
9.00854
9.00866
9.00879
9.07532
9.07519
9.07508
9.07499
9.07491
9.07485
9.0748
9.07475
9.0747
9.07466
9.07462
9.07459
9.07456
9.07453
9.0745
9.07448
9.07446
9.07444
9.07442
9.07441
9.07439
9.07438
9.07437
9.07436
9.07435
9.07434
9.07434
9.07434
9.07433
9.07433
9.07433
9.07433
9.07434
9.07434
9.07434
9.07435
9.07436
9.07437
9.07438
9.07439
9.07441
9.07442
9.07444
9.07446
9.07448
9.0745
9.07453
9.07456
9.07459
9.07462
9.07466
9.0747
9.07475
9.0748
9.07485
9.07491
9.07499
9.07508
9.07519
9.07532
9.14258
9.14246
9.14234
9.14225
9.14218
9.14212
9.14207
9.14202
9.14197
9.14193
9.14189
9.14186
9.14183
9.1418
9.14177
9.14175
9.14173
9.14171
9.14169
9.14168
9.14166
9.14165
9.14164
9.14163
9.14162
9.14161
9.14161
9.1416
9.1416
9.1416
9.1416
9.1416
9.1416
9.14161
9.14161
9.14162
9.14163
9.14164
9.14165
9.14166
9.14168
9.14169
9.14171
9.14173
9.14175
9.14177
9.1418
9.14183
9.14186
9.14189
9.14193
9.14197
9.14202
9.14207
9.14212
9.14218
9.14225
9.14234
9.14246
9.14258
9.21067
9.21055
9.21044
9.21036
9.21028
9.21022
9.21017
9.21012
9.21007
9.21003
9.20999
9.20996
9.20993
9.2099
9.20987
9.20985
9.20983
9.20981
9.20979
9.20978
9.20976
9.20975
9.20974
9.20973
9.20972
9.20971
9.20971
9.20971
9.2097
9.2097
9.2097
9.2097
9.20971
9.20971
9.20971
9.20972
9.20973
9.20974
9.20975
9.20976
9.20978
9.20979
9.20981
9.20983
9.20985
9.20987
9.2099
9.20993
9.20996
9.20999
9.21003
9.21007
9.21012
9.21017
9.21022
9.21028
9.21036
9.21044
9.21055
9.21067
9.27969
9.27957
9.27947
9.27938
9.27931
9.27924
9.27919
9.27914
9.2791
9.27906
9.27902
9.27898
9.27895
9.27892
9.2789
9.27887
9.27885
9.27883
9.27882
9.2788
9.27879
9.27877
9.27876
9.27875
9.27875
9.27874
9.27873
9.27873
9.27873
9.27873
9.27873
9.27873
9.27873
9.27873
9.27874
9.27875
9.27875
9.27876
9.27877
9.27879
9.2788
9.27882
9.27883
9.27885
9.27887
9.2789
9.27892
9.27895
9.27898
9.27902
9.27906
9.2791
9.27914
9.27919
9.27924
9.27931
9.27938
9.27947
9.27957
9.27969
9.34971
9.34961
9.3495
9.34941
9.34934
9.34928
9.34922
9.34918
9.34913
9.34909
9.34905
9.34902
9.34899
9.34896
9.34893
9.34891
9.34889
9.34887
9.34885
9.34884
9.34882
9.34881
9.3488
9.34879
9.34878
9.34877
9.34877
9.34876
9.34876
9.34876
9.34876
9.34876
9.34876
9.34877
9.34877
9.34878
9.34879
9.3488
9.34881
9.34882
9.34884
9.34885
9.34887
9.34889
9.34891
9.34893
9.34896
9.34899
9.34902
9.34905
9.34909
9.34913
9.34918
9.34922
9.34928
9.34934
9.34941
9.3495
9.34961
9.34971
9.42084
9.42073
9.42063
9.42054
9.42047
9.42041
9.42036
9.42031
9.42026
9.42022
9.42019
9.42015
9.42012
9.42009
9.42007
9.42004
9.42002
9.42
9.41998
9.41997
9.41995
9.41994
9.41993
9.41992
9.41991
9.41991
9.4199
9.4199
9.4199
9.41989
9.41989
9.4199
9.4199
9.4199
9.41991
9.41991
9.41992
9.41993
9.41994
9.41995
9.41997
9.41998
9.42
9.42002
9.42004
9.42007
9.42009
9.42012
9.42015
9.42019
9.42022
9.42026
9.42031
9.42036
9.42041
9.42047
9.42054
9.42063
9.42073
9.42084
9.49315
9.49305
9.49294
9.49286
9.49279
9.49273
9.49267
9.49262
9.49258
9.49254
9.4925
9.49247
9.49244
9.49241
9.49238
9.49236
9.49234
9.49232
9.4923
9.49228
9.49227
9.49226
9.49225
9.49224
9.49223
9.49222
9.49222
9.49221
9.49221
9.49221
9.49221
9.49221
9.49221
9.49222
9.49222
9.49223
9.49224
9.49225
9.49226
9.49227
9.49228
9.4923
9.49232
9.49234
9.49236
9.49238
9.49241
9.49244
9.49247
9.4925
9.49254
9.49258
9.49262
9.49267
9.49273
9.49279
9.49286
9.49294
9.49305
9.49315
9.56672
9.56663
9.56653
9.56644
9.56637
9.56631
9.56626
9.56621
9.56616
9.56612
9.56609
9.56605
9.56602
9.56599
9.56597
9.56594
9.56592
9.5659
9.56589
9.56587
9.56586
9.56584
9.56583
9.56582
9.56582
9.56581
9.5658
9.5658
9.5658
9.5658
9.5658
9.5658
9.5658
9.5658
9.56581
9.56582
9.56582
9.56583
9.56584
9.56586
9.56587
9.56589
9.5659
9.56592
9.56594
9.56597
9.56599
9.56602
9.56605
9.56609
9.56612
9.56616
9.56621
9.56626
9.56631
9.56637
9.56644
9.56653
9.56663
9.56672
9.64165
9.64156
9.64146
9.64138
9.64131
9.64125
9.64119
9.64114
9.6411
9.64106
9.64102
9.64099
9.64096
9.64093
9.6409
9.64088
9.64086
9.64084
9.64082
9.64081
9.64079
9.64078
9.64077
9.64076
9.64075
9.64075
9.64074
9.64074
9.64073
9.64073
9.64073
9.64073
9.64074
9.64074
9.64075
9.64075
9.64076
9.64077
9.64078
9.64079
9.64081
9.64082
9.64084
9.64086
9.64088
9.6409
9.64093
9.64096
9.64099
9.64102
9.64106
9.6411
9.64114
9.64119
9.64125
9.64131
9.64138
9.64146
9.64156
9.64165
9.71801
9.71793
9.71783
9.71775
9.71768
9.71762
9.71756
9.71752
9.71747
9.71743
9.71739
9.71736
9.71733
9.7173
9.71728
9.71725
9.71723
9.71721
9.71719
9.71718
9.71716
9.71715
9.71714
9.71713
9.71712
9.71712
9.71711
9.71711
9.71711
9.7171
9.7171
9.71711
9.71711
9.71711
9.71712
9.71712
9.71713
9.71714
9.71715
9.71716
9.71718
9.71719
9.71721
9.71723
9.71725
9.71728
9.7173
9.71733
9.71736
9.71739
9.71743
9.71747
9.71752
9.71756
9.71762
9.71768
9.71775
9.71783
9.71793
9.71801
9.7959
9.79581
9.79572
9.79564
9.79557
9.79551
9.79545
9.79541
9.79536
9.79532
9.79529
9.79525
9.79522
9.79519
9.79517
9.79514
9.79512
9.7951
9.79509
9.79507
9.79506
9.79504
9.79503
9.79502
9.79502
9.79501
9.795
9.795
9.795
9.795
9.795
9.795
9.795
9.795
9.79501
9.79502
9.79502
9.79503
9.79504
9.79506
9.79507
9.79509
9.7951
9.79512
9.79514
9.79517
9.79519
9.79522
9.79525
9.79529
9.79532
9.79536
9.79541
9.79545
9.79551
9.79557
9.79564
9.79572
9.79581
9.7959
9.87538
9.8753
9.87521
9.87513
9.87506
9.875
9.87495
9.8749
9.87486
9.87482
9.87478
9.87475
9.87472
9.87469
9.87466
9.87464
9.87462
9.8746
9.87458
9.87457
9.87455
9.87454
9.87453
9.87452
9.87451
9.8745
9.8745
9.8745
9.87449
9.87449
9.87449
9.87449
9.8745
9.8745
9.8745
9.87451
9.87452
9.87453
9.87454
9.87455
9.87457
9.87458
9.8746
9.87462
9.87464
9.87466
9.87469
9.87472
9.87475
9.87478
9.87482
9.87486
9.8749
9.87495
9.875
9.87506
9.87513
9.87521
9.8753
9.87538
9.95655
9.95648
9.95639
9.95631
9.95624
9.95618
9.95613
9.95608
9.95604
9.956
9.95596
9.95593
9.9559
9.95587
9.95584
9.95582
9.9558
9.95578
9.95576
9.95575
9.95573
9.95572
9.95571
9.9557
9.95569
9.95569
9.95568
9.95568
9.95567
9.95567
9.95567
9.95567
9.95568
9.95568
9.95569
9.95569
9.9557
9.95571
9.95572
9.95573
9.95575
9.95576
9.95578
9.9558
9.95582
9.95584
9.95587
9.9559
9.95593
9.95596
9.956
9.95604
9.95608
9.95613
9.95618
9.95624
9.95631
9.95639
9.95648
9.95655
10.0395
10.0394
10.0393
10.0393
10.0392
10.0391
10.0391
10.039
10.039
10.039
10.0389
10.0389
10.0389
10.0388
10.0388
10.0388
10.0388
10.0387
10.0387
10.0387
10.0387
10.0387
10.0387
10.0387
10.0386
10.0386
10.0386
10.0386
10.0386
10.0386
10.0386
10.0386
10.0386
10.0386
10.0386
10.0386
10.0387
10.0387
10.0387
10.0387
10.0387
10.0387
10.0387
10.0388
10.0388
10.0388
10.0388
10.0389
10.0389
10.0389
10.039
10.039
10.039
10.0391
10.0391
10.0392
10.0393
10.0393
10.0394
10.0395
10.1243
10.1242
10.1241
10.1241
10.124
10.1239
10.1239
10.1238
10.1238
10.1238
10.1237
10.1237
10.1237
10.1236
10.1236
10.1236
10.1236
10.1235
10.1235
10.1235
10.1235
10.1235
10.1235
10.1235
10.1235
10.1235
10.1234
10.1234
10.1234
10.1234
10.1234
10.1234
10.1234
10.1234
10.1235
10.1235
10.1235
10.1235
10.1235
10.1235
10.1235
10.1235
10.1235
10.1236
10.1236
10.1236
10.1236
10.1237
10.1237
10.1237
10.1238
10.1238
10.1238
10.1239
10.1239
10.124
10.1241
10.1241
10.1242
10.1243
10.211
10.211
10.2109
10.2108
10.2108
10.2107
10.2106
10.2106
10.2106
10.2105
10.2105
10.2104
10.2104
10.2104
10.2104
10.2103
10.2103
10.2103
10.2103
10.2103
10.2103
10.2102
10.2102
10.2102
10.2102
10.2102
10.2102
10.2102
10.2102
10.2102
10.2102
10.2102
10.2102
10.2102
10.2102
10.2102
10.2102
10.2102
10.2102
10.2103
10.2103
10.2103
10.2103
10.2103
10.2103
10.2104
10.2104
10.2104
10.2104
10.2105
10.2105
10.2106
10.2106
10.2106
10.2107
10.2108
10.2108
10.2109
10.211
10.211
10.2998
10.2998
10.2997
10.2996
10.2995
10.2995
10.2994
10.2994
10.2993
10.2993
10.2993
10.2992
10.2992
10.2992
10.2992
10.2991
10.2991
10.2991
10.2991
10.2991
10.299
10.299
10.299
10.299
10.299
10.299
10.299
10.299
10.299
10.299
10.299
10.299
10.299
10.299
10.299
10.299
10.299
10.299
10.299
10.299
10.2991
10.2991
10.2991
10.2991
10.2991
10.2992
10.2992
10.2992
10.2992
10.2993
10.2993
10.2993
10.2994
10.2994
10.2995
10.2995
10.2996
10.2997
10.2998
10.2998
10.3907
10.3907
10.3906
10.3905
10.3904
10.3904
10.3903
10.3903
10.3903
10.3902
10.3902
10.3901
10.3901
10.3901
10.3901
10.39
10.39
10.39
10.39
10.39
10.39
10.3899
10.3899
10.3899
10.3899
10.3899
10.3899
10.3899
10.3899
10.3899
10.3899
10.3899
10.3899
10.3899
10.3899
10.3899
10.3899
10.3899
10.3899
10.39
10.39
10.39
10.39
10.39
10.39
10.3901
10.3901
10.3901
10.3901
10.3902
10.3902
10.3903
10.3903
10.3903
10.3904
10.3904
10.3905
10.3906
10.3907
10.3907
10.4838
10.4838
10.4837
10.4836
10.4836
10.4835
10.4835
10.4834
10.4834
10.4833
10.4833
10.4833
10.4832
10.4832
10.4832
10.4832
10.4831
10.4831
10.4831
10.4831
10.4831
10.4831
10.4831
10.483
10.483
10.483
10.483
10.483
10.483
10.483
10.483
10.483
10.483
10.483
10.483
10.483
10.483
10.4831
10.4831
10.4831
10.4831
10.4831
10.4831
10.4831
10.4832
10.4832
10.4832
10.4832
10.4833
10.4833
10.4833
10.4834
10.4834
10.4835
10.4835
10.4836
10.4836
10.4837
10.4838
10.4838
10.5792
10.5792
10.5791
10.5791
10.579
10.5789
10.5789
10.5788
10.5788
10.5788
10.5787
10.5787
10.5787
10.5786
10.5786
10.5786
10.5786
10.5785
10.5785
10.5785
10.5785
10.5785
10.5785
10.5785
10.5785
10.5785
10.5784
10.5784
10.5784
10.5784
10.5784
10.5784
10.5784
10.5784
10.5785
10.5785
10.5785
10.5785
10.5785
10.5785
10.5785
10.5785
10.5785
10.5786
10.5786
10.5786
10.5786
10.5787
10.5787
10.5787
10.5788
10.5788
10.5788
10.5789
10.5789
10.579
10.5791
10.5791
10.5792
10.5792
10.6771
10.677
10.6769
10.6769
10.6768
10.6768
10.6767
10.6767
10.6766
10.6766
10.6765
10.6765
10.6765
10.6765
10.6764
10.6764
10.6764
10.6764
10.6763
10.6763
10.6763
10.6763
10.6763
10.6763
10.6763
10.6763
10.6763
10.6763
10.6763
10.6763
10.6763
10.6763
10.6763
10.6763
10.6763
10.6763
10.6763
10.6763
10.6763
10.6763
10.6763
10.6763
10.6764
10.6764
10.6764
10.6764
10.6765
10.6765
10.6765
10.6765
10.6766
10.6766
10.6767
10.6767
10.6768
10.6768
10.6769
10.6769
10.677
10.6771
10.7774
10.7773
10.7772
10.7772
10.7771
10.7771
10.777
10.777
10.7769
10.7769
10.7769
10.7768
10.7768
10.7768
10.7767
10.7767
10.7767
10.7767
10.7767
10.7766
10.7766
10.7766
10.7766
10.7766
10.7766
10.7766
10.7766
10.7766
10.7766
10.7766
10.7766
10.7766
10.7766
10.7766
10.7766
10.7766
10.7766
10.7766
10.7766
10.7766
10.7766
10.7767
10.7767
10.7767
10.7767
10.7767
10.7768
10.7768
10.7768
10.7769
10.7769
10.7769
10.777
10.777
10.7771
10.7771
10.7772
10.7772
10.7773
10.7774
10.8803
10.8802
10.8801
10.8801
10.88
10.88
10.8799
10.8799
10.8798
10.8798
10.8798
10.8797
10.8797
10.8797
10.8796
10.8796
10.8796
10.8796
10.8796
10.8796
10.8795
10.8795
10.8795
10.8795
10.8795
10.8795
10.8795
10.8795
10.8795
10.8795
10.8795
10.8795
10.8795
10.8795
10.8795
10.8795
10.8795
10.8795
10.8795
10.8795
10.8796
10.8796
10.8796
10.8796
10.8796
10.8796
10.8797
10.8797
10.8797
10.8798
10.8798
10.8798
10.8799
10.8799
10.88
10.88
10.8801
10.8801
10.8802
10.8803
10.9858
10.9858
10.9857
10.9857
10.9856
10.9856
10.9855
10.9855
10.9854
10.9854
10.9854
10.9853
10.9853
10.9853
10.9852
10.9852
10.9852
10.9852
10.9852
10.9851
10.9851
10.9851
10.9851
10.9851
10.9851
10.9851