/*--------------------------------*- C++ -*----------------------------------*\
| =========                 |                                                 |
| \\      /  F ield         | foam-extend: Open Source CFD                    |
|  \\    /   O peration     | Version:     4.0                                |
|   \\  /    A nd           | Web:         http://www.foam-extend.org         |
|    \\/     M anipulation  |                                                 |
\*---------------------------------------------------------------------------*/
FoamFile
{
    version     2.0;
    format      ascii;
    class       volScalarField;
    location    "750";
    object      cMinus;
}
// * * * * * * * * * * * * * * * * * * * * * * * * * * * * * * * * * * * * * //

dimensions      [0 0 0 0 0 0 0];

internalField   nonuniform List<scalar> 
6960
(
1.47309e-06
1.47522e-06
1.47572e-06
1.47606e-06
1.47635e-06
1.47661e-06
1.47684e-06
1.47706e-06
1.47725e-06
1.47743e-06
1.47759e-06
1.47774e-06
1.47787e-06
1.478e-06
1.47811e-06
1.47821e-06
1.47831e-06
1.4784e-06
1.47847e-06
1.47855e-06
1.47861e-06
1.47867e-06
1.47872e-06
1.47876e-06
1.4788e-06
1.47883e-06
1.47885e-06
1.47887e-06
1.47888e-06
1.47889e-06
1.47889e-06
1.47888e-06
1.47887e-06
1.47885e-06
1.47883e-06
1.4788e-06
1.47876e-06
1.47872e-06
1.47867e-06
1.47861e-06
1.47855e-06
1.47847e-06
1.4784e-06
1.47831e-06
1.47821e-06
1.47811e-06
1.478e-06
1.47787e-06
1.47774e-06
1.47759e-06
1.47743e-06
1.47725e-06
1.47706e-06
1.47684e-06
1.47661e-06
1.47635e-06
1.47606e-06
1.47572e-06
1.47522e-06
1.47309e-06
6.99872e-06
7.01086e-06
7.01378e-06
7.01548e-06
7.01684e-06
7.01802e-06
7.01909e-06
7.02005e-06
7.02092e-06
7.02172e-06
7.02244e-06
7.02311e-06
7.02372e-06
7.02427e-06
7.02478e-06
7.02525e-06
7.02568e-06
7.02607e-06
7.02642e-06
7.02674e-06
7.02702e-06
7.02728e-06
7.0275e-06
7.02769e-06
7.02786e-06
7.02799e-06
7.0281e-06
7.02818e-06
7.02824e-06
7.02826e-06
7.02826e-06
7.02824e-06
7.02818e-06
7.0281e-06
7.02799e-06
7.02786e-06
7.02769e-06
7.0275e-06
7.02728e-06
7.02702e-06
7.02674e-06
7.02642e-06
7.02607e-06
7.02568e-06
7.02525e-06
7.02478e-06
7.02427e-06
7.02372e-06
7.02311e-06
7.02244e-06
7.02172e-06
7.02092e-06
7.02005e-06
7.01909e-06
7.01802e-06
7.01684e-06
7.01548e-06
7.01378e-06
7.01086e-06
6.99872e-06
2.82139e-05
2.82704e-05
2.82842e-05
2.82913e-05
2.82967e-05
2.83012e-05
2.83052e-05
2.83089e-05
2.83122e-05
2.83152e-05
2.83179e-05
2.83204e-05
2.83227e-05
2.83248e-05
2.83267e-05
2.83285e-05
2.83301e-05
2.83315e-05
2.83329e-05
2.83341e-05
2.83351e-05
2.83361e-05
2.83369e-05
2.83376e-05
2.83383e-05
2.83388e-05
2.83392e-05
2.83395e-05
2.83397e-05
2.83398e-05
2.83398e-05
2.83397e-05
2.83395e-05
2.83392e-05
2.83388e-05
2.83383e-05
2.83376e-05
2.83369e-05
2.83361e-05
2.83351e-05
2.83341e-05
2.83329e-05
2.83315e-05
2.83301e-05
2.83285e-05
2.83267e-05
2.83248e-05
2.83227e-05
2.83204e-05
2.83179e-05
2.83152e-05
2.83122e-05
2.83089e-05
2.83052e-05
2.83012e-05
2.82967e-05
2.82913e-05
2.82842e-05
2.82704e-05
2.82139e-05
0.000104358
0.000104591
0.000104648
0.000104675
0.000104694
0.000104709
0.000104723
0.000104736
0.000104747
0.000104757
0.000104767
0.000104775
0.000104783
0.00010479
0.000104797
0.000104803
0.000104808
0.000104813
0.000104818
0.000104822
0.000104825
0.000104829
0.000104832
0.000104834
0.000104836
0.000104838
0.000104839
0.00010484
0.000104841
0.000104841
0.000104841
0.000104841
0.00010484
0.000104839
0.000104838
0.000104836
0.000104834
0.000104832
0.000104829
0.000104825
0.000104822
0.000104818
0.000104813
0.000104808
0.000104803
0.000104797
0.00010479
0.000104783
0.000104775
0.000104767
0.000104757
0.000104747
0.000104736
0.000104723
0.000104709
0.000104694
0.000104675
0.000104648
0.000104591
0.000104358
0.000356958
0.00035781
0.00035802
0.000358113
0.000358175
0.000358225
0.000358269
0.000358308
0.000358343
0.000358375
0.000358404
0.000358431
0.000358455
0.000358477
0.000358497
0.000358516
0.000358533
0.000358548
0.000358562
0.000358575
0.000358586
0.000358596
0.000358605
0.000358613
0.000358619
0.000358625
0.000358629
0.000358632
0.000358635
0.000358636
0.000358636
0.000358635
0.000358632
0.000358629
0.000358625
0.000358619
0.000358613
0.000358605
0.000358596
0.000358586
0.000358575
0.000358562
0.000358548
0.000358533
0.000358516
0.000358497
0.000358477
0.000358455
0.000358431
0.000358404
0.000358375
0.000358343
0.000358308
0.000358269
0.000358225
0.000358175
0.000358113
0.00035802
0.00035781
0.000356958
0.00111992
0.00112269
0.00112337
0.00112366
0.00112384
0.00112399
0.00112411
0.00112422
0.00112432
0.00112441
0.00112449
0.00112457
0.00112463
0.0011247
0.00112475
0.00112481
0.00112485
0.0011249
0.00112494
0.00112497
0.001125
0.00112503
0.00112506
0.00112508
0.0011251
0.00112511
0.00112512
0.00112513
0.00112514
0.00112514
0.00112514
0.00112514
0.00112513
0.00112512
0.00112511
0.0011251
0.00112508
0.00112506
0.00112503
0.001125
0.00112497
0.00112494
0.0011249
0.00112485
0.00112481
0.00112475
0.0011247
0.00112463
0.00112457
0.00112449
0.00112441
0.00112432
0.00112422
0.00112411
0.00112399
0.00112384
0.00112366
0.00112337
0.00112269
0.00111992
0.0031825
0.00319037
0.00319233
0.00319312
0.00319359
0.00319395
0.00319426
0.00319454
0.00319479
0.00319502
0.00319522
0.00319541
0.00319558
0.00319573
0.00319587
0.003196
0.00319612
0.00319623
0.00319633
0.00319641
0.00319649
0.00319656
0.00319662
0.00319668
0.00319672
0.00319676
0.00319679
0.00319681
0.00319683
0.00319684
0.00319684
0.00319683
0.00319681
0.00319679
0.00319676
0.00319672
0.00319668
0.00319662
0.00319656
0.00319649
0.00319641
0.00319633
0.00319623
0.00319612
0.003196
0.00319587
0.00319573
0.00319558
0.00319541
0.00319522
0.00319502
0.00319479
0.00319454
0.00319426
0.00319395
0.00319359
0.00319312
0.00319233
0.00319037
0.0031825
0.0080829
0.00810226
0.00810709
0.00810895
0.00811002
0.00811083
0.00811151
0.00811212
0.00811266
0.00811315
0.0081136
0.008114
0.00811437
0.00811471
0.00811501
0.00811529
0.00811555
0.00811578
0.008116
0.00811619
0.00811636
0.00811651
0.00811664
0.00811676
0.00811686
0.00811694
0.00811701
0.00811705
0.00811709
0.0081171
0.0081171
0.00811709
0.00811705
0.00811701
0.00811694
0.00811686
0.00811676
0.00811664
0.00811651
0.00811636
0.00811619
0.008116
0.00811578
0.00811555
0.00811529
0.00811501
0.00811471
0.00811437
0.008114
0.0081136
0.00811315
0.00811266
0.00811212
0.00811151
0.00811083
0.00811002
0.00810895
0.00810709
0.00810226
0.0080829
0.0181408
0.0181815
0.0181916
0.0181954
0.0181975
0.0181991
0.0182003
0.0182015
0.0182025
0.0182034
0.0182042
0.018205
0.0182057
0.0182063
0.0182069
0.0182074
0.0182079
0.0182083
0.0182087
0.0182091
0.0182094
0.0182097
0.0182099
0.0182101
0.0182103
0.0182105
0.0182106
0.0182107
0.0182107
0.0182108
0.0182108
0.0182107
0.0182107
0.0182106
0.0182105
0.0182103
0.0182101
0.0182099
0.0182097
0.0182094
0.0182091
0.0182087
0.0182083
0.0182079
0.0182074
0.0182069
0.0182063
0.0182057
0.018205
0.0182042
0.0182034
0.0182025
0.0182015
0.0182003
0.0181991
0.0181975
0.0181954
0.0181916
0.0181815
0.0181408
0.0357598
0.0358323
0.0358505
0.0358571
0.0358606
0.0358631
0.0358651
0.0358669
0.0358686
0.03587
0.0358713
0.0358725
0.0358736
0.0358746
0.0358755
0.0358763
0.0358771
0.0358778
0.0358784
0.0358789
0.0358794
0.0358799
0.0358803
0.0358806
0.0358809
0.0358812
0.0358813
0.0358815
0.0358816
0.0358816
0.0358816
0.0358816
0.0358815
0.0358813
0.0358812
0.0358809
0.0358806
0.0358803
0.0358799
0.0358794
0.0358789
0.0358784
0.0358778
0.0358771
0.0358763
0.0358755
0.0358746
0.0358736
0.0358725
0.0358713
0.03587
0.0358686
0.0358669
0.0358651
0.0358631
0.0358606
0.0358571
0.0358505
0.0358323
0.0357598
0.0620516
0.0621625
0.0621905
0.0622003
0.0622052
0.0622087
0.0622116
0.062214
0.0622162
0.0622182
0.06222
0.0622216
0.062223
0.0622244
0.0622256
0.0622267
0.0622277
0.0622287
0.0622295
0.0622303
0.0622309
0.0622315
0.0622321
0.0622325
0.0622329
0.0622332
0.0622335
0.0622337
0.0622338
0.0622339
0.0622339
0.0622338
0.0622337
0.0622335
0.0622332
0.0622329
0.0622325
0.0622321
0.0622315
0.0622309
0.0622303
0.0622295
0.0622287
0.0622277
0.0622267
0.0622256
0.0622244
0.062223
0.0622216
0.06222
0.0622182
0.0622162
0.062214
0.0622116
0.0622087
0.0622052
0.0622003
0.0621905
0.0621625
0.0620516
0.0958871
0.0960357
0.0960734
0.0960863
0.0960925
0.0960967
0.0961001
0.0961031
0.0961057
0.096108
0.0961101
0.096112
0.0961137
0.0961153
0.0961167
0.096118
0.0961192
0.0961203
0.0961213
0.0961222
0.096123
0.0961237
0.0961243
0.0961249
0.0961253
0.0961257
0.096126
0.0961262
0.0961264
0.0961264
0.0961264
0.0961264
0.0961262
0.096126
0.0961257
0.0961253
0.0961249
0.0961243
0.0961237
0.096123
0.0961222
0.0961213
0.0961203
0.0961192
0.096118
0.0961167
0.0961153
0.0961137
0.096112
0.0961101
0.096108
0.0961057
0.0961031
0.0961001
0.0960967
0.0960925
0.0960863
0.0960734
0.0960357
0.0958871
0.134443
0.134624
0.13467
0.134685
0.134692
0.134697
0.1347
0.134704
0.134706
0.134709
0.134711
0.134713
0.134715
0.134717
0.134718
0.13472
0.134721
0.134722
0.134723
0.134724
0.134725
0.134726
0.134726
0.134727
0.134727
0.134728
0.134728
0.134728
0.134728
0.134728
0.134728
0.134728
0.134728
0.134728
0.134728
0.134727
0.134727
0.134726
0.134726
0.134725
0.134724
0.134723
0.134722
0.134721
0.13472
0.134718
0.134717
0.134715
0.134713
0.134711
0.134709
0.134706
0.134704
0.1347
0.134697
0.134692
0.134685
0.13467
0.134624
0.134443
0.174733
0.174938
0.174991
0.175008
0.175015
0.17502
0.175024
0.175027
0.17503
0.175032
0.175035
0.175037
0.175038
0.17504
0.175041
0.175043
0.175044
0.175045
0.175046
0.175047
0.175048
0.175049
0.175049
0.17505
0.17505
0.175051
0.175051
0.175051
0.175052
0.175052
0.175052
0.175052
0.175051
0.175051
0.175051
0.17505
0.17505
0.175049
0.175049
0.175048
0.175047
0.175046
0.175045
0.175044
0.175043
0.175041
0.17504
0.175038
0.175037
0.175035
0.175032
0.17503
0.175027
0.175024
0.17502
0.175015
0.175008
0.174991
0.174938
0.174733
0.214708
0.214932
0.21499
0.215009
0.215017
0.215022
0.215025
0.215028
0.215031
0.215033
0.215035
0.215037
0.215039
0.215041
0.215042
0.215043
0.215045
0.215046
0.215047
0.215047
0.215048
0.215049
0.21505
0.21505
0.215051
0.215051
0.215051
0.215051
0.215052
0.215052
0.215052
0.215052
0.215051
0.215051
0.215051
0.215051
0.21505
0.21505
0.215049
0.215048
0.215047
0.215047
0.215046
0.215045
0.215043
0.215042
0.215041
0.215039
0.215037
0.215035
0.215033
0.215031
0.215028
0.215025
0.215022
0.215017
0.215009
0.21499
0.214932
0.214708
0.253396
0.253635
0.253699
0.253719
0.253727
0.253732
0.253735
0.253738
0.253741
0.253743
0.253745
0.253747
0.253748
0.25375
0.253751
0.253752
0.253753
0.253755
0.253755
0.253756
0.253757
0.253758
0.253758
0.253759
0.253759
0.25376
0.25376
0.25376
0.25376
0.25376
0.25376
0.25376
0.25376
0.25376
0.25376
0.253759
0.253759
0.253758
0.253758
0.253757
0.253756
0.253755
0.253755
0.253753
0.253752
0.253751
0.25375
0.253748
0.253747
0.253745
0.253743
0.253741
0.253738
0.253735
0.253732
0.253727
0.253719
0.253699
0.253635
0.253396
0.290513
0.290766
0.290835
0.290856
0.290864
0.290869
0.290872
0.290875
0.290878
0.29088
0.290882
0.290883
0.290885
0.290886
0.290887
0.290889
0.29089
0.290891
0.290891
0.290892
0.290893
0.290893
0.290894
0.290894
0.290895
0.290895
0.290895
0.290896
0.290896
0.290896
0.290896
0.290896
0.290896
0.290895
0.290895
0.290895
0.290894
0.290894
0.290893
0.290893
0.290892
0.290891
0.290891
0.29089
0.290889
0.290887
0.290886
0.290885
0.290883
0.290882
0.29088
0.290878
0.290875
0.290872
0.290869
0.290864
0.290856
0.290835
0.290766
0.290513
0.326073
0.326338
0.326411
0.326434
0.326442
0.326447
0.32645
0.326453
0.326455
0.326457
0.326459
0.32646
0.326462
0.326463
0.326464
0.326465
0.326466
0.326467
0.326468
0.326469
0.326469
0.32647
0.326471
0.326471
0.326471
0.326472
0.326472
0.326472
0.326472
0.326472
0.326472
0.326472
0.326472
0.326472
0.326472
0.326471
0.326471
0.326471
0.32647
0.326469
0.326469
0.326468
0.326467
0.326466
0.326465
0.326464
0.326463
0.326462
0.32646
0.326459
0.326457
0.326455
0.326453
0.32645
0.326447
0.326442
0.326434
0.326411
0.326338
0.326073
0.360165
0.360442
0.360519
0.360543
0.360552
0.360556
0.36056
0.360562
0.360564
0.360566
0.360568
0.360569
0.36057
0.360572
0.360573
0.360574
0.360575
0.360576
0.360576
0.360577
0.360578
0.360578
0.360579
0.360579
0.360579
0.36058
0.36058
0.36058
0.36058
0.36058
0.36058
0.36058
0.36058
0.36058
0.36058
0.360579
0.360579
0.360579
0.360578
0.360578
0.360577
0.360576
0.360576
0.360575
0.360574
0.360573
0.360572
0.36057
0.360569
0.360568
0.360566
0.360564
0.360562
0.36056
0.360556
0.360552
0.360543
0.360519
0.360442
0.360165
0.392879
0.393165
0.393246
0.393271
0.393281
0.393285
0.393288
0.393291
0.393293
0.393294
0.393296
0.393297
0.393299
0.3933
0.393301
0.393302
0.393303
0.393303
0.393304
0.393305
0.393305
0.393306
0.393306
0.393307
0.393307
0.393307
0.393307
0.393308
0.393308
0.393308
0.393308
0.393308
0.393308
0.393307
0.393307
0.393307
0.393307
0.393306
0.393306
0.393305
0.393305
0.393304
0.393303
0.393303
0.393302
0.393301
0.3933
0.393299
0.393297
0.393296
0.393294
0.393293
0.393291
0.393288
0.393285
0.393281
0.393271
0.393246
0.393165
0.392879
0.424281
0.424576
0.424661
0.424688
0.424697
0.424702
0.424705
0.424707
0.424709
0.424711
0.424712
0.424713
0.424714
0.424716
0.424716
0.424717
0.424718
0.424719
0.42472
0.42472
0.424721
0.424721
0.424722
0.424722
0.424722
0.424722
0.424723
0.424723
0.424723
0.424723
0.424723
0.424723
0.424723
0.424723
0.424722
0.424722
0.424722
0.424722
0.424721
0.424721
0.42472
0.42472
0.424719
0.424718
0.424717
0.424716
0.424716
0.424714
0.424713
0.424712
0.424711
0.424709
0.424707
0.424705
0.424702
0.424697
0.424688
0.424661
0.424576
0.424281
0.454426
0.454727
0.454817
0.454845
0.454854
0.454859
0.454862
0.454864
0.454866
0.454867
0.454869
0.45487
0.454871
0.454872
0.454873
0.454874
0.454874
0.454875
0.454876
0.454876
0.454877
0.454877
0.454878
0.454878
0.454878
0.454878
0.454879
0.454879
0.454879
0.454879
0.454879
0.454879
0.454879
0.454879
0.454878
0.454878
0.454878
0.454878
0.454877
0.454877
0.454876
0.454876
0.454875
0.454874
0.454874
0.454873
0.454872
0.454871
0.45487
0.454869
0.454867
0.454866
0.454864
0.454862
0.454859
0.454854
0.454845
0.454817
0.454727
0.454426
0.483355
0.483662
0.483755
0.483785
0.483795
0.4838
0.483802
0.483804
0.483806
0.483807
0.483809
0.48381
0.483811
0.483812
0.483813
0.483813
0.483814
0.483815
0.483815
0.483816
0.483816
0.483817
0.483817
0.483817
0.483818
0.483818
0.483818
0.483818
0.483818
0.483818
0.483818
0.483818
0.483818
0.483818
0.483818
0.483818
0.483817
0.483817
0.483817
0.483816
0.483816
0.483815
0.483815
0.483814
0.483813
0.483813
0.483812
0.483811
0.48381
0.483809
0.483807
0.483806
0.483804
0.483802
0.4838
0.483795
0.483785
0.483755
0.483662
0.483355
0.511106
0.511418
0.511515
0.511545
0.511556
0.511561
0.511563
0.511565
0.511567
0.511568
0.511569
0.51157
0.511571
0.511572
0.511573
0.511574
0.511574
0.511575
0.511576
0.511576
0.511576
0.511577
0.511577
0.511577
0.511578
0.511578
0.511578
0.511578
0.511578
0.511578
0.511578
0.511578
0.511578
0.511578
0.511578
0.511578
0.511577
0.511577
0.511577
0.511576
0.511576
0.511576
0.511575
0.511574
0.511574
0.511573
0.511572
0.511571
0.51157
0.511569
0.511568
0.511567
0.511565
0.511563
0.511561
0.511556
0.511545
0.511515
0.511418
0.511106
0.537712
0.538028
0.538129
0.538161
0.538172
0.538176
0.538179
0.538181
0.538182
0.538184
0.538185
0.538186
0.538187
0.538187
0.538188
0.538189
0.538189
0.53819
0.53819
0.538191
0.538191
0.538192
0.538192
0.538192
0.538192
0.538193
0.538193
0.538193
0.538193
0.538193
0.538193
0.538193
0.538193
0.538193
0.538193
0.538192
0.538192
0.538192
0.538192
0.538191
0.538191
0.53819
0.53819
0.538189
0.538189
0.538188
0.538187
0.538187
0.538186
0.538185
0.538184
0.538182
0.538181
0.538179
0.538176
0.538172
0.538161
0.538129
0.538028
0.537712
0.563207
0.563525
0.563629
0.563662
0.563674
0.563679
0.563681
0.563683
0.563684
0.563685
0.563686
0.563687
0.563688
0.563689
0.56369
0.56369
0.563691
0.563691
0.563692
0.563692
0.563693
0.563693
0.563693
0.563693
0.563694
0.563694
0.563694
0.563694
0.563694
0.563694
0.563694
0.563694
0.563694
0.563694
0.563694
0.563694
0.563693
0.563693
0.563693
0.563693
0.563692
0.563692
0.563691
0.563691
0.56369
0.56369
0.563689
0.563688
0.563687
0.563686
0.563685
0.563684
0.563683
0.563681
0.563679
0.563674
0.563662
0.563629
0.563525
0.563207
0.587619
0.58794
0.588046
0.588081
0.588093
0.588098
0.5881
0.588102
0.588103
0.588104
0.588105
0.588106
0.588107
0.588108
0.588108
0.588109
0.588109
0.58811
0.58811
0.588111
0.588111
0.588111
0.588112
0.588112
0.588112
0.588112
0.588112
0.588112
0.588112
0.588113
0.588113
0.588112
0.588112
0.588112
0.588112
0.588112
0.588112
0.588112
0.588111
0.588111
0.588111
0.58811
0.58811
0.588109
0.588109
0.588108
0.588108
0.588107
0.588106
0.588105
0.588104
0.588103
0.588102
0.5881
0.588098
0.588093
0.588081
0.588046
0.58794
0.587619
0.61098
0.611301
0.61141
0.611446
0.611459
0.611464
0.611466
0.611468
0.611469
0.61147
0.611471
0.611472
0.611472
0.611473
0.611474
0.611474
0.611475
0.611475
0.611475
0.611476
0.611476
0.611476
0.611477
0.611477
0.611477
0.611477
0.611477
0.611477
0.611478
0.611478
0.611478
0.611478
0.611477
0.611477
0.611477
0.611477
0.611477
0.611477
0.611476
0.611476
0.611476
0.611475
0.611475
0.611475
0.611474
0.611474
0.611473
0.611472
0.611472
0.611471
0.61147
0.611469
0.611468
0.611466
0.611464
0.611459
0.611446
0.61141
0.611301
0.61098
0.633317
0.633638
0.63375
0.633787
0.6338
0.633805
0.633808
0.633809
0.63381
0.633811
0.633812
0.633813
0.633814
0.633814
0.633815
0.633815
0.633816
0.633816
0.633816
0.633817
0.633817
0.633817
0.633818
0.633818
0.633818
0.633818
0.633818
0.633818
0.633818
0.633818
0.633818
0.633818
0.633818
0.633818
0.633818
0.633818
0.633818
0.633818
0.633817
0.633817
0.633817
0.633816
0.633816
0.633816
0.633815
0.633815
0.633814
0.633814
0.633813
0.633812
0.633811
0.63381
0.633809
0.633808
0.633805
0.6338
0.633787
0.63375
0.633638
0.633317
0.65466
0.65498
0.655094
0.655133
0.655146
0.655151
0.655154
0.655155
0.655156
0.655157
0.655158
0.655158
0.655159
0.65516
0.65516
0.655161
0.655161
0.655161
0.655162
0.655162
0.655162
0.655163
0.655163
0.655163
0.655163
0.655163
0.655163
0.655164
0.655164
0.655164
0.655164
0.655164
0.655164
0.655163
0.655163
0.655163
0.655163
0.655163
0.655163
0.655162
0.655162
0.655162
0.655161
0.655161
0.655161
0.65516
0.65516
0.655159
0.655158
0.655158
0.655157
0.655156
0.655155
0.655154
0.655151
0.655146
0.655133
0.655094
0.65498
0.65466
0.675036
0.675354
0.67547
0.67551
0.675524
0.675529
0.675532
0.675533
0.675534
0.675535
0.675536
0.675537
0.675537
0.675538
0.675538
0.675539
0.675539
0.675539
0.67554
0.67554
0.67554
0.67554
0.675541
0.675541
0.675541
0.675541
0.675541
0.675541
0.675541
0.675541
0.675541
0.675541
0.675541
0.675541
0.675541
0.675541
0.675541
0.675541
0.67554
0.67554
0.67554
0.67554
0.675539
0.675539
0.675539
0.675538
0.675538
0.675537
0.675537
0.675536
0.675535
0.675534
0.675533
0.675532
0.675529
0.675524
0.67551
0.67547
0.675354
0.675036
0.694473
0.694789
0.694907
0.694948
0.694963
0.694968
0.694971
0.694972
0.694973
0.694974
0.694974
0.694975
0.694975
0.694976
0.694976
0.694977
0.694977
0.694977
0.694978
0.694978
0.694978
0.694979
0.694979
0.694979
0.694979
0.694979
0.694979
0.694979
0.694979
0.694979
0.694979
0.694979
0.694979
0.694979
0.694979
0.694979
0.694979
0.694979
0.694979
0.694978
0.694978
0.694978
0.694977
0.694977
0.694977
0.694976
0.694976
0.694975
0.694975
0.694974
0.694974
0.694973
0.694972
0.694971
0.694968
0.694963
0.694948
0.694907
0.694789
0.694473
0.712999
0.713312
0.713432
0.713474
0.713489
0.713495
0.713497
0.713498
0.713499
0.7135
0.713501
0.713501
0.713502
0.713502
0.713503
0.713503
0.713503
0.713504
0.713504
0.713504
0.713504
0.713505
0.713505
0.713505
0.713505
0.713505
0.713505
0.713505
0.713505
0.713505
0.713505
0.713505
0.713505
0.713505
0.713505
0.713505
0.713505
0.713505
0.713505
0.713504
0.713504
0.713504
0.713504
0.713503
0.713503
0.713503
0.713502
0.713502
0.713501
0.713501
0.7135
0.713499
0.713498
0.713497
0.713495
0.713489
0.713474
0.713432
0.713312
0.712999
0.730642
0.730951
0.731072
0.731115
0.731131
0.731137
0.731139
0.73114
0.731141
0.731142
0.731142
0.731143
0.731143
0.731144
0.731144
0.731145
0.731145
0.731145
0.731145
0.731146
0.731146
0.731146
0.731146
0.731146
0.731146
0.731147
0.731147
0.731147
0.731147
0.731147
0.731147
0.731147
0.731147
0.731147
0.731147
0.731146
0.731146
0.731146
0.731146
0.731146
0.731146
0.731145
0.731145
0.731145
0.731145
0.731144
0.731144
0.731143
0.731143
0.731142
0.731142
0.731141
0.73114
0.731139
0.731137
0.731131
0.731115
0.731072
0.730951
0.730642
0.747428
0.747733
0.747854
0.747899
0.747915
0.747921
0.747924
0.747925
0.747926
0.747926
0.747927
0.747927
0.747928
0.747928
0.747928
0.747929
0.747929
0.747929
0.74793
0.74793
0.74793
0.74793
0.74793
0.74793
0.747931
0.747931
0.747931
0.747931
0.747931
0.747931
0.747931
0.747931
0.747931
0.747931
0.747931
0.747931
0.74793
0.74793
0.74793
0.74793
0.74793
0.74793
0.747929
0.747929
0.747929
0.747928
0.747928
0.747928
0.747927
0.747927
0.747926
0.747926
0.747925
0.747924
0.747921
0.747915
0.747899
0.747854
0.747733
0.747428
0.763384
0.763684
0.763807
0.763852
0.763869
0.763875
0.763878
0.763879
0.76388
0.76388
0.763881
0.763881
0.763882
0.763882
0.763882
0.763883
0.763883
0.763883
0.763883
0.763884
0.763884
0.763884
0.763884
0.763884
0.763884
0.763884
0.763884
0.763884
0.763885
0.763885
0.763885
0.763885
0.763884
0.763884
0.763884
0.763884
0.763884
0.763884
0.763884
0.763884
0.763884
0.763883
0.763883
0.763883
0.763883
0.763882
0.763882
0.763882
0.763881
0.763881
0.76388
0.76388
0.763879
0.763878
0.763875
0.763869
0.763852
0.763807
0.763684
0.763384
0.778538
0.778833
0.778955
0.779002
0.779019
0.779026
0.779028
0.77903
0.77903
0.779031
0.779031
0.779032
0.779032
0.779032
0.779033
0.779033
0.779033
0.779033
0.779034
0.779034
0.779034
0.779034
0.779034
0.779034
0.779035
0.779035
0.779035
0.779035
0.779035
0.779035
0.779035
0.779035
0.779035
0.779035
0.779035
0.779035
0.779034
0.779034
0.779034
0.779034
0.779034
0.779034
0.779033
0.779033
0.779033
0.779033
0.779032
0.779032
0.779032
0.779031
0.779031
0.77903
0.77903
0.779028
0.779026
0.779019
0.779002
0.778955
0.778833
0.778538
0.792916
0.793205
0.793327
0.793375
0.793393
0.7934
0.793402
0.793404
0.793404
0.793405
0.793405
0.793406
0.793406
0.793406
0.793406
0.793407
0.793407
0.793407
0.793407
0.793408
0.793408
0.793408
0.793408
0.793408
0.793408
0.793408
0.793408
0.793408
0.793408
0.793408
0.793408
0.793408
0.793408
0.793408
0.793408
0.793408
0.793408
0.793408
0.793408
0.793408
0.793408
0.793407
0.793407
0.793407
0.793407
0.793406
0.793406
0.793406
0.793406
0.793405
0.793405
0.793404
0.793404
0.793402
0.7934
0.793393
0.793375
0.793327
0.793205
0.792916
0.806544
0.806827
0.80695
0.806998
0.807016
0.807023
0.807026
0.807027
0.807028
0.807029
0.807029
0.807029
0.80703
0.80703
0.80703
0.80703
0.807031
0.807031
0.807031
0.807031
0.807031
0.807031
0.807031
0.807032
0.807032
0.807032
0.807032
0.807032
0.807032
0.807032
0.807032
0.807032
0.807032
0.807032
0.807032
0.807032
0.807032
0.807031
0.807031
0.807031
0.807031
0.807031
0.807031
0.807031
0.80703
0.80703
0.80703
0.80703
0.807029
0.807029
0.807029
0.807028
0.807027
0.807026
0.807023
0.807016
0.806998
0.80695
0.806827
0.806544
0.819449
0.819725
0.819848
0.819897
0.819916
0.819923
0.819926
0.819927
0.819928
0.819929
0.819929
0.819929
0.819929
0.81993
0.81993
0.81993
0.81993
0.819931
0.819931
0.819931
0.819931
0.819931
0.819931
0.819931
0.819931
0.819931
0.819931
0.819932
0.819932
0.819932
0.819932
0.819932
0.819932
0.819931
0.819931
0.819931
0.819931
0.819931
0.819931
0.819931
0.819931
0.819931
0.819931
0.81993
0.81993
0.81993
0.81993
0.819929
0.819929
0.819929
0.819929
0.819928
0.819927
0.819926
0.819923
0.819916
0.819897
0.819848
0.819725
0.819449
0.831658
0.831927
0.832049
0.832099
0.832118
0.832126
0.832128
0.83213
0.832131
0.832131
0.832131
0.832132
0.832132
0.832132
0.832132
0.832132
0.832133
0.832133
0.832133
0.832133
0.832133
0.832133
0.832133
0.832133
0.832134
0.832134
0.832134
0.832134
0.832134
0.832134
0.832134
0.832134
0.832134
0.832134
0.832134
0.832134
0.832133
0.832133
0.832133
0.832133
0.832133
0.832133
0.832133
0.832133
0.832132
0.832132
0.832132
0.832132
0.832132
0.832131
0.832131
0.832131
0.83213
0.832128
0.832126
0.832118
0.832099
0.832049
0.831927
0.831658
0.843195
0.843457
0.843578
0.843628
0.843648
0.843656
0.843659
0.843661
0.843661
0.843662
0.843662
0.843662
0.843663
0.843663
0.843663
0.843663
0.843663
0.843663
0.843664
0.843664
0.843664
0.843664
0.843664
0.843664
0.843664
0.843664
0.843664
0.843664
0.843664
0.843664
0.843664
0.843664
0.843664
0.843664
0.843664
0.843664
0.843664
0.843664
0.843664
0.843664
0.843664
0.843664
0.843663
0.843663
0.843663
0.843663
0.843663
0.843663
0.843662
0.843662
0.843662
0.843661
0.843661
0.843659
0.843656
0.843648
0.843628
0.843578
0.843457
0.843195
0.854087
0.854342
0.854461
0.854512
0.854533
0.854541
0.854544
0.854545
0.854546
0.854547
0.854547
0.854547
0.854547
0.854547
0.854548
0.854548
0.854548
0.854548
0.854548
0.854548
0.854548
0.854549
0.854549
0.854549
0.854549
0.854549
0.854549
0.854549
0.854549
0.854549
0.854549
0.854549
0.854549
0.854549
0.854549
0.854549
0.854549
0.854549
0.854549
0.854548
0.854548
0.854548
0.854548
0.854548
0.854548
0.854548
0.854547
0.854547
0.854547
0.854547
0.854547
0.854546
0.854545
0.854544
0.854541
0.854533
0.854512
0.854461
0.854342
0.854087
0.864359
0.864606
0.864724
0.864776
0.864797
0.864805
0.864808
0.86481
0.86481
0.864811
0.864811
0.864811
0.864812
0.864812
0.864812
0.864812
0.864812
0.864812
0.864812
0.864812
0.864813
0.864813
0.864813
0.864813
0.864813
0.864813
0.864813
0.864813
0.864813
0.864813
0.864813
0.864813
0.864813
0.864813
0.864813
0.864813
0.864813
0.864813
0.864813
0.864813
0.864812
0.864812
0.864812
0.864812
0.864812
0.864812
0.864812
0.864812
0.864811
0.864811
0.864811
0.86481
0.86481
0.864808
0.864805
0.864797
0.864776
0.864724
0.864606
0.864359
0.874037
0.874275
0.874392
0.874444
0.874465
0.874474
0.874477
0.874479
0.874479
0.87448
0.87448
0.87448
0.87448
0.874481
0.874481
0.874481
0.874481
0.874481
0.874481
0.874481
0.874481
0.874481
0.874481
0.874481
0.874482
0.874482
0.874482
0.874482
0.874482
0.874482
0.874482
0.874482
0.874482
0.874482
0.874482
0.874482
0.874481
0.874481
0.874481
0.874481
0.874481
0.874481
0.874481
0.874481
0.874481
0.874481
0.874481
0.87448
0.87448
0.87448
0.87448
0.874479
0.874479
0.874477
0.874474
0.874465
0.874444
0.874392
0.874275
0.874037
0.883144
0.883374
0.883489
0.883541
0.883563
0.883572
0.883575
0.883577
0.883578
0.883578
0.883578
0.883578
0.883579
0.883579
0.883579
0.883579
0.883579
0.883579
0.883579
0.883579
0.883579
0.883579
0.883579
0.88358
0.88358
0.88358
0.88358
0.88358
0.88358
0.88358
0.88358
0.88358
0.88358
0.88358
0.88358
0.88358
0.88358
0.883579
0.883579
0.883579
0.883579
0.883579
0.883579
0.883579
0.883579
0.883579
0.883579
0.883579
0.883578
0.883578
0.883578
0.883578
0.883577
0.883575
0.883572
0.883563
0.883541
0.883489
0.883374
0.883144
0.891705
0.891927
0.89204
0.892092
0.892114
0.892123
0.892127
0.892129
0.89213
0.89213
0.89213
0.89213
0.89213
0.892131
0.892131
0.892131
0.892131
0.892131
0.892131
0.892131
0.892131
0.892131
0.892131
0.892131
0.892131
0.892131
0.892131
0.892131
0.892131
0.892131
0.892131
0.892131
0.892131
0.892131
0.892131
0.892131
0.892131
0.892131
0.892131
0.892131
0.892131
0.892131
0.892131
0.892131
0.892131
0.892131
0.892131
0.89213
0.89213
0.89213
0.89213
0.89213
0.892129
0.892127
0.892123
0.892114
0.892092
0.89204
0.891927
0.891705
0.899744
0.899958
0.900069
0.900121
0.900143
0.900153
0.900157
0.900159
0.900159
0.90016
0.90016
0.90016
0.90016
0.90016
0.90016
0.90016
0.90016
0.900161
0.900161
0.900161
0.900161
0.900161
0.900161
0.900161
0.900161
0.900161
0.900161
0.900161
0.900161
0.900161
0.900161
0.900161
0.900161
0.900161
0.900161
0.900161
0.900161
0.900161
0.900161
0.900161
0.900161
0.900161
0.900161
0.90016
0.90016
0.90016
0.90016
0.90016
0.90016
0.90016
0.90016
0.900159
0.900159
0.900157
0.900153
0.900143
0.900121
0.900069
0.899958
0.899744
0.907285
0.907491
0.907599
0.907651
0.907674
0.907684
0.907688
0.907689
0.90769
0.907691
0.907691
0.907691
0.907691
0.907691
0.907691
0.907691
0.907691
0.907691
0.907691
0.907691
0.907692
0.907692
0.907692
0.907692
0.907692
0.907692
0.907692
0.907692
0.907692
0.907692
0.907692
0.907692
0.907692
0.907692
0.907692
0.907692
0.907692
0.907692
0.907692
0.907692
0.907691
0.907691
0.907691
0.907691
0.907691
0.907691
0.907691
0.907691
0.907691
0.907691
0.907691
0.90769
0.907689
0.907688
0.907684
0.907674
0.907651
0.907599
0.907491
0.907285
0.914351
0.914548
0.914654
0.914705
0.914729
0.914739
0.914743
0.914745
0.914746
0.914746
0.914746
0.914746
0.914746
0.914746
0.914746
0.914746
0.914747
0.914747
0.914747
0.914747
0.914747
0.914747
0.914747
0.914747
0.914747
0.914747
0.914747
0.914747
0.914747
0.914747
0.914747
0.914747
0.914747
0.914747
0.914747
0.914747
0.914747
0.914747
0.914747
0.914747
0.914747
0.914747
0.914747
0.914747
0.914746
0.914746
0.914746
0.914746
0.914746
0.914746
0.914746
0.914746
0.914745
0.914743
0.914739
0.914729
0.914705
0.914654
0.914548
0.914351
0.920964
0.921153
0.921256
0.921307
0.92133
0.921341
0.921345
0.921347
0.921348
0.921348
0.921348
0.921348
0.921348
0.921349
0.921349
0.921349
0.921349
0.921349
0.921349
0.921349
0.921349
0.921349
0.921349
0.921349
0.921349
0.921349
0.921349
0.921349
0.921349
0.921349
0.921349
0.921349
0.921349
0.921349
0.921349
0.921349
0.921349
0.921349
0.921349
0.921349
0.921349
0.921349
0.921349
0.921349
0.921349
0.921349
0.921349
0.921348
0.921348
0.921348
0.921348
0.921348
0.921347
0.921345
0.921341
0.92133
0.921307
0.921256
0.921153
0.920964
0.927146
0.927327
0.927427
0.927477
0.927501
0.927512
0.927516
0.927518
0.927519
0.927519
0.92752
0.92752
0.92752
0.92752
0.92752
0.92752
0.92752
0.92752
0.92752
0.92752
0.92752
0.92752
0.92752
0.92752
0.92752
0.92752
0.92752
0.92752
0.92752
0.92752
0.92752
0.92752
0.92752
0.92752
0.92752
0.92752
0.92752
0.92752
0.92752
0.92752
0.92752
0.92752
0.92752
0.92752
0.92752
0.92752
0.92752
0.92752
0.92752
0.92752