/*--------------------------------*- C++ -*----------------------------------*\
| =========                 |                                                 |
| \\      /  F ield         | foam-extend: Open Source CFD                    |
|  \\    /   O peration     | Version:     4.0                                |
|   \\  /    A nd           | Web:         http://www.foam-extend.org         |
|    \\/     M anipulation  |                                                 |
\*---------------------------------------------------------------------------*/
FoamFile
{
    version     2.0;
    format      ascii;
    class       volScalarField;
    location    "1020";
    object      cMinus;
}
// * * * * * * * * * * * * * * * * * * * * * * * * * * * * * * * * * * * * * //

dimensions      [0 0 0 0 0 0 0];

internalField   nonuniform List<scalar> 
6960
(
5.78486e-23
5.78176e-23
5.77907e-23
5.77603e-23
5.77318e-23
5.77063e-23
5.76837e-23
5.76636e-23
5.76458e-23
5.76299e-23
5.76156e-23
5.76027e-23
5.7591e-23
5.75803e-23
5.75706e-23
5.75618e-23
5.75537e-23
5.75464e-23
5.75398e-23
5.75339e-23
5.75286e-23
5.75239e-23
5.75198e-23
5.75162e-23
5.75132e-23
5.75107e-23
5.75087e-23
5.75072e-23
5.75063e-23
5.75058e-23
5.75058e-23
5.75063e-23
5.75072e-23
5.75087e-23
5.75107e-23
5.75132e-23
5.75162e-23
5.75198e-23
5.75239e-23
5.75286e-23
5.75339e-23
5.75398e-23
5.75464e-23
5.75537e-23
5.75618e-23
5.75706e-23
5.75803e-23
5.7591e-23
5.76027e-23
5.76156e-23
5.76299e-23
5.76458e-23
5.76636e-23
5.76837e-23
5.77063e-23
5.77318e-23
5.77603e-23
5.77907e-23
5.78176e-23
5.78486e-23
2.79278e-22
2.79295e-22
2.79169e-22
2.79029e-22
2.78901e-22
2.78791e-22
2.78696e-22
2.78616e-22
2.78548e-22
2.7849e-22
2.7844e-22
2.78397e-22
2.7836e-22
2.78327e-22
2.78299e-22
2.78274e-22
2.78253e-22
2.78234e-22
2.78217e-22
2.78202e-22
2.78189e-22
2.78178e-22
2.78169e-22
2.78161e-22
2.78154e-22
2.78148e-22
2.78144e-22
2.78141e-22
2.78139e-22
2.78138e-22
2.78138e-22
2.78139e-22
2.78141e-22
2.78144e-22
2.78148e-22
2.78154e-22
2.78161e-22
2.78169e-22
2.78178e-22
2.78189e-22
2.78202e-22
2.78217e-22
2.78234e-22
2.78253e-22
2.78274e-22
2.78299e-22
2.78327e-22
2.7836e-22
2.78397e-22
2.7844e-22
2.7849e-22
2.78548e-22
2.78616e-22
2.78696e-22
2.78791e-22
2.78901e-22
2.79029e-22
2.79169e-22
2.79295e-22
2.79278e-22
1.04163e-21
1.0419e-21
1.04161e-21
1.04124e-21
1.04089e-21
1.04058e-21
1.04031e-21
1.04007e-21
1.03987e-21
1.03969e-21
1.03953e-21
1.0394e-21
1.03928e-21
1.03917e-21
1.03908e-21
1.039e-21
1.03893e-21
1.03887e-21
1.03881e-21
1.03876e-21
1.03872e-21
1.03868e-21
1.03865e-21
1.03862e-21
1.0386e-21
1.03858e-21
1.03856e-21
1.03855e-21
1.03855e-21
1.03854e-21
1.03854e-21
1.03855e-21
1.03855e-21
1.03856e-21
1.03858e-21
1.0386e-21
1.03862e-21
1.03865e-21
1.03868e-21
1.03872e-21
1.03876e-21
1.03881e-21
1.03887e-21
1.03893e-21
1.039e-21
1.03908e-21
1.03917e-21
1.03928e-21
1.0394e-21
1.03953e-21
1.03969e-21
1.03987e-21
1.04007e-21
1.04031e-21
1.04058e-21
1.04089e-21
1.04124e-21
1.04161e-21
1.0419e-21
1.04163e-21
3.71126e-21
3.71294e-21
3.71263e-21
3.71194e-21
3.71121e-21
3.71052e-21
3.70988e-21
3.7093e-21
3.70877e-21
3.70828e-21
3.70785e-21
3.70745e-21
3.70709e-21
3.70677e-21
3.70648e-21
3.70622e-21
3.70599e-21
3.70578e-21
3.70559e-21
3.70543e-21
3.70528e-21
3.70516e-21
3.70505e-21
3.70495e-21
3.70488e-21
3.70481e-21
3.70476e-21
3.70473e-21
3.7047e-21
3.70469e-21
3.70469e-21
3.7047e-21
3.70473e-21
3.70476e-21
3.70481e-21
3.70488e-21
3.70495e-21
3.70505e-21
3.70516e-21
3.70528e-21
3.70543e-21
3.70559e-21
3.70578e-21
3.70599e-21
3.70622e-21
3.70648e-21
3.70677e-21
3.70709e-21
3.70745e-21
3.70785e-21
3.70828e-21
3.70877e-21
3.7093e-21
3.70988e-21
3.71052e-21
3.71121e-21
3.71194e-21
3.71263e-21
3.71294e-21
3.71126e-21
1.33318e-20
1.33406e-20
1.33423e-20
1.33423e-20
1.33417e-20
1.33408e-20
1.33398e-20
1.33387e-20
1.33376e-20
1.33364e-20
1.33353e-20
1.33342e-20
1.33331e-20
1.33322e-20
1.33313e-20
1.33305e-20
1.33297e-20
1.3329e-20
1.33284e-20
1.33279e-20
1.33274e-20
1.3327e-20
1.33266e-20
1.33263e-20
1.3326e-20
1.33258e-20
1.33256e-20
1.33255e-20
1.33254e-20
1.33254e-20
1.33254e-20
1.33254e-20
1.33255e-20
1.33256e-20
1.33258e-20
1.3326e-20
1.33263e-20
1.33266e-20
1.3327e-20
1.33274e-20
1.33279e-20
1.33284e-20
1.3329e-20
1.33297e-20
1.33305e-20
1.33313e-20
1.33322e-20
1.33331e-20
1.33342e-20
1.33353e-20
1.33364e-20
1.33376e-20
1.33387e-20
1.33398e-20
1.33408e-20
1.33417e-20
1.33423e-20
1.33423e-20
1.33406e-20
1.33318e-20
4.90563e-20
4.90994e-20
4.91163e-20
4.91257e-20
4.91313e-20
4.91343e-20
4.91354e-20
4.91351e-20
4.91338e-20
4.91317e-20
4.91293e-20
4.91266e-20
4.91239e-20
4.91211e-20
4.91184e-20
4.91159e-20
4.91135e-20
4.91113e-20
4.91093e-20
4.91074e-20
4.91058e-20
4.91044e-20
4.91031e-20
4.9102e-20
4.91011e-20
4.91004e-20
4.90998e-20
4.90993e-20
4.9099e-20
4.90989e-20
4.90989e-20
4.9099e-20
4.90993e-20
4.90998e-20
4.91004e-20
4.91011e-20
4.9102e-20
4.91031e-20
4.91044e-20
4.91058e-20
4.91074e-20
4.91093e-20
4.91113e-20
4.91135e-20
4.91159e-20
4.91184e-20
4.91211e-20
4.91239e-20
4.91266e-20
4.91293e-20
4.91317e-20
4.91338e-20
4.91351e-20
4.91354e-20
4.91343e-20
4.91313e-20
4.91257e-20
4.91163e-20
4.90994e-20
4.90563e-20
1.85791e-19
1.85997e-19
1.86102e-19
1.86174e-19
1.86226e-19
1.86261e-19
1.86285e-19
1.86298e-19
1.86305e-19
1.86306e-19
1.86304e-19
1.86299e-19
1.86293e-19
1.86285e-19
1.86278e-19
1.8627e-19
1.86263e-19
1.86255e-19
1.86249e-19
1.86243e-19
1.86237e-19
1.86232e-19
1.86228e-19
1.86224e-19
1.86221e-19
1.86218e-19
1.86216e-19
1.86215e-19
1.86214e-19
1.86213e-19
1.86213e-19
1.86214e-19
1.86215e-19
1.86216e-19
1.86218e-19
1.86221e-19
1.86224e-19
1.86228e-19
1.86232e-19
1.86237e-19
1.86243e-19
1.86249e-19
1.86255e-19
1.86263e-19
1.8627e-19
1.86278e-19
1.86285e-19
1.86293e-19
1.86299e-19
1.86304e-19
1.86306e-19
1.86305e-19
1.86298e-19
1.86285e-19
1.86261e-19
1.86226e-19
1.86174e-19
1.86102e-19
1.85997e-19
1.85791e-19
7.25299e-19
7.26272e-19
7.2685e-19
7.27278e-19
7.276e-19
7.27836e-19
7.28004e-19
7.28117e-19
7.2819e-19
7.28231e-19
7.28249e-19
7.28252e-19
7.28243e-19
7.28228e-19
7.28208e-19
7.28187e-19
7.28164e-19
7.28142e-19
7.2812e-19
7.281e-19
7.28081e-19
7.28065e-19
7.2805e-19
7.28037e-19
7.28026e-19
7.28017e-19
7.28009e-19
7.28004e-19
7.28e-19
7.27998e-19
7.27998e-19
7.28e-19
7.28004e-19
7.28009e-19
7.28017e-19
7.28026e-19
7.28037e-19
7.2805e-19
7.28065e-19
7.28081e-19
7.281e-19
7.2812e-19
7.28142e-19
7.28164e-19
7.28187e-19
7.28208e-19
7.28228e-19
7.28243e-19
7.28252e-19
7.28249e-19
7.28231e-19
7.2819e-19
7.28117e-19
7.28004e-19
7.27836e-19
7.276e-19
7.27278e-19
7.2685e-19
7.26272e-19
7.25299e-19
2.91972e-18
2.92433e-18
2.92735e-18
2.92967e-18
2.93147e-18
2.93282e-18
2.93381e-18
2.93451e-18
2.935e-18
2.93531e-18
2.9355e-18
2.9356e-18
2.93564e-18
2.93563e-18
2.93559e-18
2.93554e-18
2.93548e-18
2.93541e-18
2.93534e-18
2.93528e-18
2.93521e-18
2.93516e-18
2.93511e-18
2.93506e-18
2.93502e-18
2.93499e-18
2.93496e-18
2.93494e-18
2.93493e-18
2.93493e-18
2.93493e-18
2.93493e-18
2.93494e-18
2.93496e-18
2.93499e-18
2.93502e-18
2.93506e-18
2.93511e-18
2.93516e-18
2.93521e-18
2.93528e-18
2.93534e-18
2.93541e-18
2.93548e-18
2.93554e-18
2.93559e-18
2.93563e-18
2.93564e-18
2.9356e-18
2.9355e-18
2.93531e-18
2.935e-18
2.93451e-18
2.93381e-18
2.93282e-18
2.93147e-18
2.92967e-18
2.92735e-18
2.92433e-18
2.91972e-18
1.21192e-17
1.21413e-17
1.21567e-17
1.21689e-17
1.21784e-17
1.21857e-17
1.21912e-17
1.21952e-17
1.2198e-17
1.21999e-17
1.22012e-17
1.2202e-17
1.22025e-17
1.22027e-17
1.22027e-17
1.22026e-17
1.22025e-17
1.22023e-17
1.22021e-17
1.22019e-17
1.22017e-17
1.22015e-17
1.22013e-17
1.22012e-17
1.2201e-17
1.22009e-17
1.22008e-17
1.22008e-17
1.22007e-17
1.22007e-17
1.22007e-17
1.22007e-17
1.22008e-17
1.22008e-17
1.22009e-17
1.2201e-17
1.22012e-17
1.22013e-17
1.22015e-17
1.22017e-17
1.22019e-17
1.22021e-17
1.22023e-17
1.22025e-17
1.22026e-17
1.22027e-17
1.22027e-17
1.22025e-17
1.2202e-17
1.22012e-17
1.21999e-17
1.2198e-17
1.21952e-17
1.21912e-17
1.21857e-17
1.21784e-17
1.21689e-17
1.21567e-17
1.21413e-17
1.21192e-17
5.18514e-17
5.19586e-17
5.20371e-17
5.21004e-17
5.21505e-17
5.21892e-17
5.22184e-17
5.224e-17
5.22556e-17
5.22667e-17
5.22743e-17
5.22794e-17
5.22826e-17
5.22845e-17
5.22854e-17
5.22858e-17
5.22857e-17
5.22853e-17
5.22848e-17
5.22842e-17
5.22835e-17
5.22829e-17
5.22823e-17
5.22818e-17
5.22813e-17
5.22809e-17
5.22806e-17
5.22804e-17
5.22802e-17
5.22801e-17
5.22801e-17
5.22802e-17
5.22804e-17
5.22806e-17
5.22809e-17
5.22813e-17
5.22818e-17
5.22823e-17
5.22829e-17
5.22835e-17
5.22842e-17
5.22848e-17
5.22853e-17
5.22857e-17
5.22858e-17
5.22854e-17
5.22845e-17
5.22826e-17
5.22794e-17
5.22743e-17
5.22667e-17
5.22556e-17
5.224e-17
5.22184e-17
5.21892e-17
5.21505e-17
5.21004e-17
5.20371e-17
5.19586e-17
5.18514e-17
2.28521e-16
2.29049e-16
2.29451e-16
2.2978e-16
2.30042e-16
2.30246e-16
2.30401e-16
2.30516e-16
2.30601e-16
2.30662e-16
2.30705e-16
2.30735e-16
2.30755e-16
2.30768e-16
2.30775e-16
2.3078e-16
2.30781e-16
2.30782e-16
2.30781e-16
2.30779e-16
2.30778e-16
2.30776e-16
2.30774e-16
2.30772e-16
2.3077e-16
2.30769e-16
2.30768e-16
2.30767e-16
2.30767e-16
2.30766e-16
2.30766e-16
2.30767e-16
2.30767e-16
2.30768e-16
2.30769e-16
2.3077e-16
2.30772e-16
2.30774e-16
2.30776e-16
2.30778e-16
2.30779e-16
2.30781e-16
2.30782e-16
2.30781e-16
2.3078e-16
2.30775e-16
2.30768e-16
2.30755e-16
2.30735e-16
2.30705e-16
2.30662e-16
2.30601e-16
2.30516e-16
2.30401e-16
2.30246e-16
2.30042e-16
2.2978e-16
2.29451e-16
2.29049e-16
2.28521e-16
1.03644e-15
1.03909e-15
1.04117e-15
1.04289e-15
1.04427e-15
1.04535e-15
1.04617e-15
1.04679e-15
1.04724e-15
1.04758e-15
1.04782e-15
1.04798e-15
1.0481e-15
1.04818e-15
1.04823e-15
1.04826e-15
1.04828e-15
1.04829e-15
1.04829e-15
1.04829e-15
1.04829e-15
1.04828e-15
1.04828e-15
1.04827e-15
1.04827e-15
1.04826e-15
1.04826e-15
1.04825e-15
1.04825e-15
1.04825e-15
1.04825e-15
1.04825e-15
1.04825e-15
1.04826e-15
1.04826e-15
1.04827e-15
1.04827e-15
1.04828e-15
1.04828e-15
1.04829e-15
1.04829e-15
1.04829e-15
1.04829e-15
1.04828e-15
1.04826e-15
1.04823e-15
1.04818e-15
1.0481e-15
1.04798e-15
1.04782e-15
1.04758e-15
1.04724e-15
1.04679e-15
1.04617e-15
1.04535e-15
1.04427e-15
1.04289e-15
1.04117e-15
1.03909e-15
1.03644e-15
4.83098e-15
4.84448e-15
4.85539e-15
4.86448e-15
4.87178e-15
4.8775e-15
4.8819e-15
4.88522e-15
4.88769e-15
4.8895e-15
4.89081e-15
4.89175e-15
4.89242e-15
4.89288e-15
4.89319e-15
4.8934e-15
4.89353e-15
4.89361e-15
4.89365e-15
4.89367e-15
4.89367e-15
4.89367e-15
4.89365e-15
4.89364e-15
4.89362e-15
4.89361e-15
4.89359e-15
4.89358e-15
4.89357e-15
4.89357e-15
4.89357e-15
4.89357e-15
4.89358e-15
4.89359e-15
4.89361e-15
4.89362e-15
4.89364e-15
4.89365e-15
4.89367e-15
4.89367e-15
4.89367e-15
4.89365e-15
4.89361e-15
4.89353e-15
4.8934e-15
4.89319e-15
4.89288e-15
4.89242e-15
4.89175e-15
4.89081e-15
4.8895e-15
4.88769e-15
4.88522e-15
4.8819e-15
4.8775e-15
4.87178e-15
4.86448e-15
4.85539e-15
4.84448e-15
4.83098e-15
2.31002e-14
2.31702e-14
2.32282e-14
2.32768e-14
2.33159e-14
2.33466e-14
2.33703e-14
2.33883e-14
2.34017e-14
2.34116e-14
2.34189e-14
2.34241e-14
2.34278e-14
2.34305e-14
2.34323e-14
2.34336e-14
2.34344e-14
2.3435e-14
2.34353e-14
2.34355e-14
2.34356e-14
2.34356e-14
2.34356e-14
2.34356e-14
2.34356e-14
2.34355e-14
2.34355e-14
2.34354e-14
2.34354e-14
2.34354e-14
2.34354e-14
2.34354e-14
2.34354e-14
2.34355e-14
2.34355e-14
2.34356e-14
2.34356e-14
2.34356e-14
2.34356e-14
2.34356e-14
2.34355e-14
2.34353e-14
2.3435e-14
2.34344e-14
2.34336e-14
2.34323e-14
2.34305e-14
2.34278e-14
2.34241e-14
2.34189e-14
2.34116e-14
2.34017e-14
2.33883e-14
2.33703e-14
2.33466e-14
2.33159e-14
2.32768e-14
2.32282e-14
2.31702e-14
2.31002e-14
1.13057e-13
1.13426e-13
1.13738e-13
1.14e-13
1.14212e-13
1.14379e-13
1.14508e-13
1.14606e-13
1.14679e-13
1.14734e-13
1.14774e-13
1.14803e-13
1.14824e-13
1.14839e-13
1.14849e-13
1.14857e-13
1.14862e-13
1.14865e-13
1.14868e-13
1.14869e-13
1.1487e-13
1.14871e-13
1.14871e-13
1.14871e-13
1.14871e-13
1.14871e-13
1.14871e-13
1.14871e-13
1.14871e-13
1.14871e-13
1.14871e-13
1.14871e-13
1.14871e-13
1.14871e-13
1.14871e-13
1.14871e-13
1.14871e-13
1.14871e-13
1.14871e-13
1.1487e-13
1.14869e-13
1.14868e-13
1.14865e-13
1.14862e-13
1.14857e-13
1.14849e-13
1.14839e-13
1.14824e-13
1.14803e-13
1.14774e-13
1.14734e-13
1.14679e-13
1.14606e-13
1.14508e-13
1.14379e-13
1.14212e-13
1.14e-13
1.13738e-13
1.13426e-13
1.13057e-13
5.64735e-13
5.66705e-13
5.684e-13
5.69831e-13
5.70989e-13
5.71902e-13
5.72609e-13
5.73148e-13
5.73553e-13
5.73854e-13
5.74077e-13
5.74239e-13
5.74357e-13
5.74443e-13
5.74504e-13
5.74547e-13
5.74577e-13
5.74598e-13
5.74613e-13
5.74623e-13
5.74629e-13
5.74633e-13
5.74635e-13
5.74637e-13
5.74637e-13
5.74637e-13
5.74637e-13
5.74637e-13
5.74637e-13
5.74637e-13
5.74637e-13
5.74637e-13
5.74637e-13
5.74637e-13
5.74637e-13
5.74637e-13
5.74637e-13
5.74635e-13
5.74633e-13
5.74629e-13
5.74623e-13
5.74613e-13
5.74598e-13
5.74577e-13
5.74547e-13
5.74504e-13
5.74443e-13
5.74357e-13
5.74239e-13
5.74077e-13
5.73854e-13
5.73553e-13
5.73148e-13
5.72609e-13
5.71902e-13
5.70989e-13
5.69831e-13
5.684e-13
5.66705e-13
5.64735e-13
2.86911e-12
2.87974e-12
2.88902e-12
2.89689e-12
2.90326e-12
2.9083e-12
2.9122e-12
2.91517e-12
2.91742e-12
2.91909e-12
2.92033e-12
2.92124e-12
2.92191e-12
2.92239e-12
2.92274e-12
2.92299e-12
2.92316e-12
2.92329e-12
2.92338e-12
2.92344e-12
2.92348e-12
2.92351e-12
2.92353e-12
2.92354e-12
2.92354e-12
2.92355e-12
2.92355e-12
2.92355e-12
2.92355e-12
2.92355e-12
2.92355e-12
2.92355e-12
2.92355e-12
2.92355e-12
2.92355e-12
2.92354e-12
2.92354e-12
2.92353e-12
2.92351e-12
2.92348e-12
2.92344e-12
2.92338e-12
2.92329e-12
2.92316e-12
2.92299e-12
2.92274e-12
2.92239e-12
2.92191e-12
2.92124e-12
2.92033e-12
2.91909e-12
2.91742e-12
2.91517e-12
2.9122e-12
2.9083e-12
2.90326e-12
2.89689e-12
2.88902e-12
2.87974e-12
2.86911e-12
1.47634e-11
1.48212e-11
1.48723e-11
1.49157e-11
1.49509e-11
1.49787e-11
1.50003e-11
1.50168e-11
1.50292e-11
1.50386e-11
1.50455e-11
1.50506e-11
1.50543e-11
1.5057e-11
1.5059e-11
1.50604e-11
1.50615e-11
1.50622e-11
1.50627e-11
1.50631e-11
1.50633e-11
1.50635e-11
1.50636e-11
1.50637e-11
1.50638e-11
1.50638e-11
1.50638e-11
1.50638e-11
1.50638e-11
1.50638e-11
1.50638e-11
1.50638e-11
1.50638e-11
1.50638e-11
1.50638e-11
1.50638e-11
1.50637e-11
1.50636e-11
1.50635e-11
1.50633e-11
1.50631e-11
1.50627e-11
1.50622e-11
1.50615e-11
1.50604e-11
1.5059e-11
1.5057e-11
1.50543e-11
1.50506e-11
1.50455e-11
1.50386e-11
1.50292e-11
1.50168e-11
1.50003e-11
1.49787e-11
1.49509e-11
1.49157e-11
1.48723e-11
1.48212e-11
1.47634e-11
7.65616e-11
7.68759e-11
7.7157e-11
7.73959e-11
7.75901e-11
7.77437e-11
7.78631e-11
7.79544e-11
7.80234e-11
7.80751e-11
7.81136e-11
7.8142e-11
7.81629e-11
7.81781e-11
7.81893e-11
7.81974e-11
7.82032e-11
7.82074e-11
7.82105e-11
7.82126e-11
7.82142e-11
7.82152e-11
7.8216e-11
7.82165e-11
7.82168e-11
7.82171e-11
7.82172e-11
7.82173e-11
7.82174e-11
7.82174e-11
7.82174e-11
7.82174e-11
7.82173e-11
7.82172e-11
7.82171e-11
7.82168e-11
7.82165e-11
7.8216e-11
7.82152e-11
7.82142e-11
7.82126e-11
7.82105e-11
7.82074e-11
7.82032e-11
7.81974e-11
7.81893e-11
7.81781e-11
7.81629e-11
7.8142e-11
7.81136e-11
7.80751e-11
7.80234e-11
7.79544e-11
7.78631e-11
7.77437e-11
7.75901e-11
7.73959e-11
7.7157e-11
7.68759e-11
7.65616e-11
3.97824e-10
3.99527e-10
4.01064e-10
4.02372e-10
4.03436e-10
4.04279e-10
4.04933e-10
4.05435e-10
4.05814e-10
4.06099e-10
4.06311e-10
4.06468e-10
4.06584e-10
4.06669e-10
4.06731e-10
4.06776e-10
4.06809e-10
4.06833e-10
4.0685e-10
4.06863e-10
4.06872e-10
4.06878e-10
4.06883e-10
4.06886e-10
4.06888e-10
4.06889e-10
4.0689e-10
4.06891e-10
4.06891e-10
4.06892e-10
4.06892e-10
4.06891e-10
4.06891e-10
4.0689e-10
4.06889e-10
4.06888e-10
4.06886e-10
4.06883e-10
4.06878e-10
4.06872e-10
4.06863e-10
4.0685e-10
4.06833e-10
4.06809e-10
4.06776e-10
4.06731e-10
4.06669e-10
4.06584e-10
4.06468e-10
4.06311e-10
4.06099e-10
4.05814e-10
4.05435e-10
4.04933e-10
4.04279e-10
4.03436e-10
4.02372e-10
4.01064e-10
3.99527e-10
3.97824e-10
2.05733e-09
2.06646e-09
2.07475e-09
2.08182e-09
2.08757e-09
2.09212e-09
2.09567e-09
2.09838e-09
2.10044e-09
2.10199e-09
2.10314e-09
2.10399e-09
2.10462e-09
2.10509e-09
2.10543e-09
2.10568e-09
2.10586e-09
2.10599e-09
2.10609e-09
2.10616e-09
2.10621e-09
2.10625e-09
2.10627e-09
2.10629e-09
2.10631e-09
2.10631e-09
2.10632e-09
2.10632e-09
2.10633e-09
2.10633e-09
2.10633e-09
2.10633e-09
2.10632e-09
2.10632e-09
2.10631e-09
2.10631e-09
2.10629e-09
2.10627e-09
2.10625e-09
2.10621e-09
2.10616e-09
2.10609e-09
2.10599e-09
2.10586e-09
2.10568e-09
2.10543e-09
2.10509e-09
2.10462e-09
2.10399e-09
2.10314e-09
2.10199e-09
2.10044e-09
2.09838e-09
2.09567e-09
2.09212e-09
2.08757e-09
2.08182e-09
2.07475e-09
2.06646e-09
2.05733e-09
1.05076e-08
1.05556e-08
1.05994e-08
1.06368e-08
1.06672e-08
1.06913e-08
1.07101e-08
1.07245e-08
1.07354e-08
1.07436e-08
1.07497e-08
1.07543e-08
1.07576e-08
1.07601e-08
1.07619e-08
1.07633e-08
1.07643e-08
1.0765e-08
1.07655e-08
1.07659e-08
1.07662e-08
1.07664e-08
1.07665e-08
1.07666e-08
1.07667e-08
1.07668e-08
1.07668e-08
1.07668e-08
1.07668e-08
1.07668e-08
1.07668e-08
1.07668e-08
1.07668e-08
1.07668e-08
1.07668e-08
1.07667e-08
1.07666e-08
1.07665e-08
1.07664e-08
1.07662e-08
1.07659e-08
1.07655e-08
1.0765e-08
1.07643e-08
1.07633e-08
1.07619e-08
1.07601e-08
1.07576e-08
1.07543e-08
1.07497e-08
1.07436e-08
1.07354e-08
1.07245e-08
1.07101e-08
1.06913e-08
1.06672e-08
1.06368e-08
1.05994e-08
1.05556e-08
1.05076e-08
5.25419e-08
5.27873e-08
5.30122e-08
5.32039e-08
5.336e-08
5.34837e-08
5.358e-08
5.36539e-08
5.371e-08
5.37522e-08
5.37838e-08
5.38072e-08
5.38246e-08
5.38374e-08
5.38469e-08
5.38539e-08
5.3859e-08
5.38628e-08
5.38655e-08
5.38675e-08
5.3869e-08
5.38701e-08
5.38709e-08
5.38715e-08
5.38719e-08
5.38722e-08
5.38724e-08
5.38725e-08
5.38726e-08
5.38726e-08
5.38726e-08
5.38726e-08
5.38725e-08
5.38724e-08
5.38722e-08
5.38719e-08
5.38715e-08
5.38709e-08
5.38701e-08
5.3869e-08
5.38675e-08
5.38655e-08
5.38628e-08
5.3859e-08
5.38539e-08
5.38469e-08
5.38374e-08
5.38246e-08
5.38072e-08
5.37838e-08
5.37522e-08
5.371e-08
5.36539e-08
5.358e-08
5.34837e-08
5.336e-08
5.32039e-08
5.30122e-08
5.27873e-08
5.25419e-08
2.5473e-07
2.55937e-07
2.57045e-07
2.57989e-07
2.58757e-07
2.59367e-07
2.59841e-07
2.60206e-07
2.60482e-07
2.60691e-07
2.60847e-07
2.60963e-07
2.61049e-07
2.61112e-07
2.61159e-07
2.61194e-07
2.6122e-07
2.61239e-07
2.61253e-07
2.61263e-07
2.6127e-07
2.61276e-07
2.6128e-07
2.61283e-07
2.61285e-07
2.61286e-07
2.61287e-07
2.61288e-07
2.61288e-07
2.61289e-07
2.61289e-07
2.61288e-07
2.61288e-07
2.61287e-07
2.61286e-07
2.61285e-07
2.61283e-07
2.6128e-07
2.61276e-07
2.6127e-07
2.61263e-07
2.61253e-07
2.61239e-07
2.6122e-07
2.61194e-07
2.61159e-07
2.61112e-07
2.61049e-07
2.60963e-07
2.60847e-07
2.60691e-07
2.60482e-07
2.60206e-07
2.59841e-07
2.59367e-07
2.58757e-07
2.57989e-07
2.57045e-07
2.55937e-07
2.5473e-07
1.18451e-06
1.19015e-06
1.19533e-06
1.19974e-06
1.20333e-06
1.20618e-06
1.2084e-06
1.2101e-06
1.2114e-06
1.21237e-06
1.2131e-06
1.21365e-06
1.21405e-06
1.21435e-06
1.21457e-06
1.21474e-06
1.21486e-06
1.21495e-06
1.21501e-06
1.21506e-06
1.2151e-06
1.21512e-06
1.21514e-06
1.21516e-06
1.21517e-06
1.21518e-06
1.21518e-06
1.21518e-06
1.21519e-06
1.21519e-06
1.21519e-06
1.21519e-06
1.21518e-06
1.21518e-06
1.21518e-06
1.21517e-06
1.21516e-06
1.21514e-06
1.21512e-06
1.2151e-06
1.21506e-06
1.21501e-06
1.21495e-06
1.21486e-06
1.21474e-06
1.21457e-06
1.21435e-06
1.21405e-06
1.21365e-06
1.2131e-06
1.21237e-06
1.2114e-06
1.2101e-06
1.2084e-06
1.20618e-06
1.20333e-06
1.19974e-06
1.19533e-06
1.19015e-06
1.18451e-06
5.22065e-06
5.24538e-06
5.26809e-06
5.28741e-06
5.30313e-06
5.31559e-06
5.3253e-06
5.33277e-06
5.33844e-06
5.34272e-06
5.34592e-06
5.34831e-06
5.35008e-06
5.3514e-06
5.35238e-06
5.3531e-06
5.35364e-06
5.35403e-06
5.35433e-06
5.35454e-06
5.3547e-06
5.35482e-06
5.35491e-06
5.35497e-06
5.35502e-06
5.35505e-06
5.35508e-06
5.35509e-06
5.3551e-06
5.35511e-06
5.35511e-06
5.3551e-06
5.35509e-06
5.35508e-06
5.35505e-06
5.35502e-06
5.35497e-06
5.35491e-06
5.35482e-06
5.3547e-06
5.35454e-06
5.35433e-06
5.35403e-06
5.35364e-06
5.3531e-06
5.35238e-06
5.3514e-06
5.35008e-06
5.34831e-06
5.34592e-06
5.34272e-06
5.33844e-06
5.33277e-06
5.3253e-06
5.31559e-06
5.30313e-06
5.28741e-06
5.26809e-06
5.24538e-06
5.22065e-06
2.15281e-05
2.16284e-05
2.17203e-05
2.17983e-05
2.18618e-05
2.19122e-05
2.19514e-05
2.19816e-05
2.20045e-05
2.20218e-05
2.20348e-05
2.20445e-05
2.20517e-05
2.2057e-05
2.2061e-05
2.20639e-05
2.20661e-05
2.20677e-05
2.20689e-05
2.20698e-05
2.20705e-05
2.2071e-05
2.20713e-05
2.20716e-05
2.20718e-05
2.20719e-05
2.2072e-05
2.20721e-05
2.20721e-05
2.20722e-05
2.20722e-05
2.20721e-05
2.20721e-05
2.2072e-05
2.20719e-05
2.20718e-05
2.20716e-05
2.20713e-05
2.2071e-05
2.20705e-05
2.20698e-05
2.20689e-05
2.20677e-05
2.20661e-05
2.20639e-05
2.2061e-05
2.2057e-05
2.20517e-05
2.20445e-05
2.20348e-05
2.20218e-05
2.20045e-05
2.19816e-05
2.19514e-05
2.19122e-05
2.18618e-05
2.17983e-05
2.17203e-05
2.16284e-05
2.15281e-05
8.18917e-05
8.22616e-05
8.25994e-05
8.28858e-05
8.31188e-05
8.33034e-05
8.34474e-05
8.3558e-05
8.36422e-05
8.37057e-05
8.37534e-05
8.3789e-05
8.38155e-05
8.38352e-05
8.38498e-05
8.38607e-05
8.38688e-05
8.38748e-05
8.38792e-05
8.38825e-05
8.3885e-05
8.38868e-05
8.38882e-05
8.38892e-05
8.38899e-05
8.38904e-05
8.38908e-05
8.38911e-05
8.38912e-05
8.38913e-05
8.38913e-05
8.38912e-05
8.38911e-05
8.38908e-05
8.38904e-05
8.38899e-05
8.38892e-05
8.38882e-05
8.38868e-05
8.3885e-05
8.38825e-05
8.38792e-05
8.38748e-05
8.38688e-05
8.38607e-05
8.38498e-05
8.38352e-05
8.38155e-05
8.3789e-05
8.37534e-05
8.37057e-05
8.36422e-05
8.3558e-05
8.34474e-05
8.33034e-05
8.31188e-05
8.28858e-05
8.25994e-05
8.22616e-05
8.18917e-05
0.000282996
0.000284214
0.000285321
0.000286258
0.00028702
0.000287624
0.000288094
0.000288456
0.000288731
0.000288939
0.000289095
0.000289212
0.000289299
0.000289364
0.000289412
0.000289447
0.000289474
0.000289494
0.000289509
0.00028952
0.000289528
0.000289534
0.000289538
0.000289542
0.000289544
0.000289546
0.000289547
0.000289548
0.000289549
0.000289549
0.000289549
0.000289549
0.000289548
0.000289547
0.000289546
0.000289544
0.000289542
0.000289538
0.000289534
0.000289528
0.00028952
0.000289509
0.000289494
0.000289474
0.000289447
0.000289412
0.000289364
0.000289299
0.000289212
0.000289095
0.000288939
0.000288731
0.000288456
0.000288094
0.000287624
0.00028702
0.000286258
0.000285321
0.000284214
0.000282996
0.000874167
0.000877678
0.000880848
0.000883527
0.000885702
0.000887427
0.00088877
0.000889804
0.000890591
0.000891185
0.000891631
0.000891965
0.000892214
0.0008924
0.000892538
0.000892641
0.000892717
0.000892774
0.000892817
0.000892849
0.000892872
0.00089289
0.000892903
0.000892913
0.00089292
0.000892925
0.000892929
0.000892932
0.000892933
0.000892934
0.000892934
0.000892933
0.000892932
0.000892929
0.000892925
0.00089292
0.000892913
0.000892903
0.00089289
0.000892872
0.000892849
0.000892817
0.000892774
0.000892717
0.000892641
0.000892538
0.0008924
0.000892214
0.000891965
0.000891631
0.000891185
0.000890591
0.000889804
0.00088877
0.000887427
0.000885702
0.000883527
0.000880848
0.000877678
0.000874167
0.0023755
0.00238416
0.00239194
0.00239849
0.0024038
0.00240802
0.0024113
0.00241383
0.00241575
0.0024172
0.00241829
0.00241911
0.00241972
0.00242018
0.00242052
0.00242077
0.00242096
0.0024211
0.0024212
0.00242128
0.00242134
0.00242139
0.00242142
0.00242144
0.00242146
0.00242147
0.00242148
0.00242149
0.00242149
0.0024215
0.0024215
0.00242149
0.00242149
0.00242148
0.00242147
0.00242146
0.00242144
0.00242142
0.00242139
0.00242134
0.00242128
0.0024212
0.0024211
0.00242096
0.00242077
0.00242052
0.00242018
0.00241972
0.00241911
0.00241829
0.0024172
0.00241575
0.00241383
0.0024113
0.00240802
0.0024038
0.00239849
0.00239194
0.00238416
0.0023755
0.00560486
0.00562289
0.00563893
0.00565241
0.00566334
0.005672
0.00567875
0.00568394
0.0056879
0.00569089
0.00569314
0.00569483
0.00569609
0.00569703
0.00569773
0.00569825
0.00569864
0.00569894
0.00569915
0.00569932
0.00569944
0.00569953
0.0056996
0.00569965
0.00569969
0.00569972
0.00569974
0.00569975
0.00569976
0.00569976
0.00569976
0.00569976
0.00569975
0.00569974
0.00569972
0.00569969
0.00569965
0.0056996
0.00569953
0.00569944
0.00569932
0.00569915
0.00569894
0.00569864
0.00569825
0.00569773
0.00569703
0.00569609
0.00569483
0.00569314
0.00569089
0.0056879
0.00568394
0.00567875
0.005672
0.00566334
0.00565241
0.00563893
0.00562289
0.00560486
0.0114124
0.0114438
0.0114715
0.0114947
0.0115135
0.0115284
0.01154
0.0115489
0.0115557
0.0115609
0.0115648
0.0115677
0.0115698
0.0115715
0.0115727
0.0115736
0.0115743
0.0115748
0.0115752
0.0115754
0.0115757
0.0115758
0.0115759
0.011576
0.0115761
0.0115761
0.0115762
0.0115762
0.0115762
0.0115762
0.0115762
0.0115762
0.0115762
0.0115762
0.0115761
0.0115761
0.011576
0.0115759
0.0115758
0.0115757
0.0115754
0.0115752
0.0115748
0.0115743
0.0115736
0.0115727
0.0115715
0.0115698
0.0115677
0.0115648
0.0115609
0.0115557
0.0115489
0.01154
0.0115284
0.0115135
0.0114947
0.0114715
0.0114438
0.0114124
0.0201522
0.0201986
0.0202391
0.0202728
0.0203002
0.0203219
0.0203387
0.0203518
0.0203617
0.0203692
0.0203749
0.0203791
0.0203823
0.0203847
0.0203864
0.0203878
0.0203888
0.0203895
0.0203901
0.0203905
0.0203908
0.0203911
0.0203912
0.0203914
0.0203915
0.0203916
0.0203916
0.0203916
0.0203917
0.0203917
0.0203917
0.0203917
0.0203916
0.0203916
0.0203916
0.0203915
0.0203914
0.0203912
0.0203911
0.0203908
0.0203905
0.0203901
0.0203895
0.0203888
0.0203878
0.0203864
0.0203847
0.0203823
0.0203791
0.0203749
0.0203692
0.0203617
0.0203518
0.0203387
0.0203219
0.0203002
0.0202728
0.0202391
0.0201986
0.0201522
0.0313801
0.0314399
0.0314916
0.0315346
0.0315694
0.0315969
0.0316184
0.031635
0.0316476
0.0316572
0.0316644
0.0316699
0.0316739
0.031677
0.0316793
0.031681
0.0316823
0.0316832
0.031684
0.0316845
0.0316849
0.0316852
0.0316855
0.0316857
0.0316858
0.0316859
0.031686
0.031686
0.031686
0.031686
0.031686
0.031686
0.031686
0.031686
0.0316859
0.0316858
0.0316857
0.0316855
0.0316852
0.0316849
0.0316845
0.031684
0.0316832
0.0316823
0.031681
0.0316793
0.031677
0.0316739
0.0316699
0.0316644
0.0316572
0.0316476
0.031635
0.0316184
0.0315969
0.0315694
0.0315346
0.0314916
0.0314399
0.0313801
0.0441611
0.0442316
0.0442918
0.0443417
0.0443821
0.0444141
0.0444391
0.0444583
0.0444731
0.0444842
0.0444927
0.044499
0.0445038
0.0445074
0.0445101
0.0445121
0.0445136
0.0445147
0.0445156
0.0445162
0.0445167
0.0445171
0.0445174
0.0445176
0.0445177
0.0445179
0.0445179
0.044518
0.044518
0.0445181
0.0445181
0.044518
0.044518
0.0445179
0.0445179
0.0445177
0.0445176
0.0445174
0.0445171
0.0445167
0.0445162
0.0445156
0.0445147
0.0445136
0.0445121
0.0445101
0.0445074
0.0445038
0.044499
0.0444927
0.0444842
0.0444731
0.0444583
0.0444391
0.0444141
0.0443821
0.0443417
0.0442918
0.0442316
0.0441611
0.0576439
0.0577227
0.0577894
0.0578446
0.0578891
0.0579245
0.0579521
0.0579734
0.0579897
0.0580021
0.0580115
0.0580186
0.0580239
0.0580279
0.0580309
0.0580332
0.0580349
0.0580362
0.0580371
0.0580379
0.0580384
0.0580389
0.0580392
0.0580394
0.0580396
0.0580397
0.0580398
0.0580399
0.0580399
0.0580399
0.0580399
0.0580399
0.0580399
0.0580398
0.0580397
0.0580396
0.0580394
0.0580392
0.0580389
0.0580384
0.0580379
0.0580371
0.0580362
0.0580349
0.0580332
0.0580309
0.0580279
0.0580239
0.0580186
0.0580115
0.0580021
0.0579897
0.0579734
0.0579521
0.0579245
0.0578891
0.0578446
0.0577894
0.0577227
0.0576439
0.0713501
0.0714361
0.0715083
0.0715679
0.071616
0.0716542
0.0716841
0.0717072
0.0717249
0.0717384
0.0717486
0.0717563
0.0717621
0.0717665
0.0717698
0.0717723
0.0717741
0.0717756
0.0717766
0.0717775
0.0717781
0.0717785
0.0717789
0.0717792
0.0717794
0.0717795
0.0717796
0.0717797
0.0717797
0.0717798
0.0717798
0.0717797
0.0717797
0.0717796
0.0717795
0.0717794
0.0717792
0.0717789
0.0717785
0.0717781
0.0717775
0.0717766
0.0717756
0.0717741
0.0717723
0.0717698
0.0717665
0.0717621
0.0717563
0.0717486
0.0717384
0.0717249
0.0717072
0.0716841
0.0716542
0.071616
0.0715679
0.0715083
0.0714361
0.0713501
0.0851152
0.0852081
0.0852855
0.0853493
0.0854009
0.0854419
0.085474
0.0854988
0.0855179
0.0855324
0.0855435
0.0855518
0.0855581
0.0855629
0.0855664
0.0855692
0.0855712
0.0855728
0.0855739
0.0855748
0.0855755
0.085576
0.0855764
0.0855767
0.0855769
0.0855771
0.0855772
0.0855773
0.0855774
0.0855774
0.0855774
0.0855774
0.0855773
0.0855772
0.0855771
0.0855769
0.0855767
0.0855764
0.085576
0.0855755
0.0855748
0.0855739
0.0855728
0.0855712
0.0855692
0.0855664
0.0855629
0.0855581
0.0855518
0.0855435
0.0855324
0.0855179
0.0854988
0.085474
0.0854419
0.0854009
0.0853493
0.0852855
0.0852081
0.0851152
0.0989246
0.0990243
0.0991071
0.0991752
0.0992303
0.099274
0.0993084
0.099335
0.0993555
0.0993711
0.099383
0.099392
0.0993989
0.099404
0.0994079
0.0994109
0.0994131
0.0994148
0.0994161
0.0994171
0.0994178
0.0994184
0.0994188
0.0994191
0.0994194
0.0994196
0.0994197
0.0994198
0.0994199
0.0994199
0.0994199
0.0994199
0.0994198
0.0994197
0.0994196
0.0994194
0.0994191
0.0994188
0.0994184
0.0994178
0.0994171
0.0994161
0.0994148
0.0994131
0.0994109
0.0994079
0.099404
0.0993989
0.099392
0.099383
0.0993711
0.0993555
0.099335
0.0993084
0.099274
0.0992303
0.0991752
0.0991071
0.0990243
0.0989246
0.112803
0.112909
0.112997
0.11307
0.113128
0.113175
0.113212
0.11324
0.113262
0.113279
0.113292
0.113301
0.113309
0.113314
0.113319
0.113322
0.113324
0.113326
0.113327
0.113329
0.113329
0.11333
0.11333
0.113331
0.113331
0.113331
0.113331
0.113332
0.113332
0.113332
0.113332
0.113332
0.113332
0.113331
0.113331
0.113331
0.113331
0.11333
0.11333
0.113329
0.113329
0.113327
0.113326
0.113324
0.113322
0.113319
0.113314
0.113309
0.113301
0.113292
0.113279
0.113262
0.11324
0.113212
0.113175
0.113128
0.11307
0.112997
0.112909
0.112803
0.126769
0.126882
0.126976
0.127053
0.127115
0.127165
0.127204
0.127234
0.127258
0.127276
0.12729
0.1273
0.127308
0.127314
0.127319
0.127322
0.127325
0.127327
0.127328
0.127329
0.12733
0.127331
0.127332
0.127332
0.127332
0.127332
0.127333
0.127333
0.127333
0.127333
0.127333
0.127333
0.127333
0.127333
0.127332
0.127332
0.127332
0.127332
0.127331
0.12733
0.127329
0.127328
0.127327
0.127325
0.127322
0.127319
0.127314
0.127308