/*--------------------------------*- C++ -*----------------------------------*\
| =========                 |                                                 |
| \\      /  F ield         | foam-extend: Open Source CFD                    |
|  \\    /   O peration     | Version:     4.0                                |
|   \\  /    A nd           | Web:         http://www.foam-extend.org         |
|    \\/     M anipulation  |                                                 |
\*---------------------------------------------------------------------------*/
FoamFile
{
    version     2.0;
    format      ascii;
    class       volScalarField;
    location    "2";
    object      dC2;
}
// * * * * * * * * * * * * * * * * * * * * * * * * * * * * * * * * * * * * * //

dimensions      [0 -1 0 0 0 0 0];

internalField   nonuniform List<scalar> 
6960
(
3.19714e-10
-3.15979e-10
-8.34765e-12
2.86685e-12
9.79373e-13
2.32513e-13
1.27834e-13
5.80978e-14
3.42564e-14
2.22426e-14
1.49284e-14
9.75139e-15
1.206e-14
2.67229e-15
5.26352e-15
1.76726e-15
3.64333e-15
1.55166e-16
1.50355e-15
3.35204e-15
1.01169e-15
-7.60675e-16
-1.43177e-15
1.92367e-15
-1.87414e-15
-1.71031e-15
9.7837e-16
-3.33623e-15
2.93619e-15
-1.15208e-15
2.84732e-15
-3.87459e-16
-9.24159e-16
8.20851e-16
-3.6207e-16
1.81868e-15
-1.64928e-15
1.89919e-15
-1.94945e-15
6.94828e-16
-5.66901e-16
-2.01275e-15
2.1438e-15
1.86456e-15
3.32014e-15
2.67297e-15
3.71324e-15
3.92764e-15
8.31853e-15
1.40639e-14
1.86539e-14
3.80609e-14
5.35146e-14
1.31315e-13
2.32338e-13
9.84435e-13
2.8652e-12
-8.34919e-12
-3.1598e-10
3.19942e-10
2.72475e-10
-2.97972e-10
1.86099e-11
4.48781e-12
1.55655e-12
3.73296e-13
2.10163e-13
8.92607e-14
6.41015e-14
3.44403e-14
2.36208e-14
1.48903e-14
1.60717e-15
6.91874e-15
4.24903e-15
5.95003e-15
1.32067e-15
4.45849e-15
7.26902e-15
-3.27644e-15
1.10865e-16
1.15062e-15
3.97153e-15
-2.25743e-15
4.51671e-15
1.80974e-15
2.93999e-15
5.53545e-15
-1.12441e-15
1.83691e-15
-2.30243e-15
4.82996e-15
3.90696e-15
-2.99302e-15
-1.70846e-15
-4.02156e-15
2.74992e-15
7.39406e-15
1.32901e-15
4.16633e-15
1.12772e-15
6.40477e-16
4.27467e-15
5.42735e-15
3.5541e-15
9.61629e-15
7.67093e-15
1.56542e-14
2.4189e-14
2.36804e-14
3.86573e-14
5.58049e-14
9.62425e-14
2.06494e-13
3.67256e-13
1.54672e-12
4.48381e-12
1.86102e-11
-2.97973e-10
2.72483e-10
-8.52303e-11
4.23611e-11
3.94788e-11
2.1795e-12
7.84358e-13
1.79156e-13
1.02439e-13
4.8424e-14
2.98683e-14
1.5501e-14
1.36813e-14
1.20918e-14
1.16316e-14
5.23909e-15
1.02548e-14
2.6065e-15
7.04139e-16
-2.93228e-15
-9.44724e-16
1.3785e-15
1.33735e-15
1.17455e-15
1.23666e-15
2.3403e-15
-4.48243e-15
2.96806e-15
4.85412e-16
-1.83699e-15
1.77492e-15
2.15088e-16
-1.38936e-15
5.88638e-16
-1.22115e-15
6.20663e-15
8.96341e-15
8.79755e-15
-3.65067e-16
-3.10809e-15
-7.11189e-16
5.01202e-15
-2.91075e-15
6.51269e-15
1.31672e-16
3.85285e-15
6.31867e-15
6.98282e-16
5.45387e-15
7.78043e-15
8.42746e-15
1.2184e-14
1.67794e-14
3.45069e-14
4.89874e-14
1.05159e-13
1.78803e-13
7.82307e-13
2.17861e-12
3.94789e-11
4.23604e-11
-8.52232e-11
-4.63752e-11
2.43061e-11
2.0327e-11
1.10926e-12
4.1112e-13
9.74369e-14
5.80806e-14
2.31276e-14
1.88253e-14
1.05774e-14
7.17417e-15
5.66324e-15
1.21671e-15
1.37692e-15
-4.32531e-15
1.09148e-15
2.05416e-15
-2.13286e-15
1.25087e-15
-1.24632e-15
5.22908e-15
6.59369e-16
-3.13464e-15
-3.27724e-15
7.72258e-16
3.43287e-15
-1.20032e-15
-1.88832e-15
-1.52666e-16
4.05504e-15
2.36928e-15
4.23917e-15
6.76812e-16
-5.28758e-15
-4.52829e-15
-2.18165e-15
-1.1347e-15
-5.81123e-16
4.29657e-15
-2.33503e-16
1.70057e-15
-3.32359e-15
2.08908e-15
8.45863e-16
-1.47518e-15
4.53876e-15
3.98944e-16
-1.60596e-15
2.07937e-15
1.0106e-14
6.63272e-15
1.09879e-14
2.31477e-14
5.38067e-14
1.01498e-13
4.1184e-13
1.10474e-12
2.03257e-11
2.4308e-11
-4.63819e-11
-4.26115e-11
2.14913e-11
1.9229e-11
1.17986e-12
4.46916e-13
1.07562e-13
5.98638e-14
3.07824e-14
1.98045e-14
1.26415e-14
8.0627e-15
1.9139e-15
4.1189e-15
3.17448e-15
7.71699e-15
4.68099e-15
6.1099e-16
5.31014e-15
2.01237e-15
3.16353e-15
-1.67948e-15
3.32775e-15
-4.40568e-15
3.55549e-15
-8.27214e-16
-3.75818e-15
1.90883e-15
-1.85253e-16
1.47965e-15
-3.91769e-15
-1.01002e-15
-2.85374e-15
-1.1119e-15
2.16349e-15
-3.24863e-15
1.4054e-15
3.29801e-15
1.10359e-15
-2.00368e-15
3.24998e-15
-1.97607e-15
-3.42915e-16
5.00075e-15
-5.14493e-15
-1.61e-17
-1.5266e-15
5.95287e-15
4.94301e-15
7.66162e-15
4.34181e-15
1.19455e-14
1.72507e-14
3.06187e-14
6.45254e-14
1.04248e-13
4.48133e-13
1.18667e-12
1.92299e-11
2.14888e-11
-4.26116e-11
-5.23275e-11
2.55596e-11
2.40537e-11
1.6822e-12
6.49993e-13
1.62608e-13
9.3726e-14
4.03789e-14
2.75745e-14
1.34527e-14
1.03642e-14
9.70232e-16
5.85426e-15
2.10069e-15
3.18622e-15
-3.0906e-15
3.44901e-17
-8.46412e-16
-5.15938e-15
-1.34293e-15
2.30965e-15
-2.5514e-15
-1.53335e-15
1.1918e-15
1.23335e-15
-2.76903e-15
-1.41272e-16
8.32463e-17
-1.80395e-16
6.30228e-16
3.77327e-15
2.93451e-15
3.33003e-15
-3.97646e-15
-2.567e-15
3.42652e-15
1.56878e-15
4.98196e-15
1.15564e-15
-5.16501e-15
2.94453e-15
-6.41246e-15
-3.69233e-15
7.05584e-15
2.25077e-15
4.18965e-15
1.9016e-15
6.66115e-15
6.57088e-15
8.96517e-15
1.73348e-14
3.00372e-14
3.84863e-14
9.35178e-14
1.64155e-13
6.52258e-13
1.67861e-12
2.40523e-11
2.55633e-11
-5.23247e-11
-6.46138e-11
3.07235e-11
3.00486e-11
2.37033e-12
9.38357e-13
2.31154e-13
1.40961e-13
5.28483e-14
4.17663e-14
2.12665e-14
1.2565e-14
1.89117e-14
7.68802e-15
1.45237e-14
1.71942e-15
6.47281e-15
-2.53165e-15
-3.30667e-16
2.48846e-15
4.47016e-15
-1.8354e-15
2.37503e-15
2.98266e-15
-2.81185e-15
4.15692e-15
3.97621e-15
1.10684e-15
6.91201e-16
-6.33949e-16
-1.45609e-15
1.74024e-15
2.1673e-15
-3.73857e-15
1.24621e-15
3.94966e-15
-2.98529e-15
-1.53361e-15
1.09753e-15
3.39979e-15
9.44383e-15
3.32886e-16
7.77298e-15
1.19914e-15
-3.03046e-15
5.70387e-15
5.51842e-15
8.93073e-15
8.74119e-15
5.9413e-15
1.53786e-14
1.38067e-14
3.66577e-14
5.83823e-14
1.42e-13
2.342e-13
9.368e-13
2.36664e-12
3.00497e-11
3.07161e-11
-6.46126e-11
-7.74074e-11
3.58912e-11
3.62485e-11
3.20681e-12
1.28429e-12
3.28598e-13
1.93476e-13
8.33798e-14
5.43596e-14
2.58821e-14
1.93177e-14
4.5072e-15
1.431e-14
9.40937e-16
4.42315e-15
7.46727e-15
3.27637e-15
7.00055e-15
2.67989e-15
-1.33915e-15
2.8982e-15
-3.1829e-15
-6.10438e-16
1.97264e-15
-7.94115e-16
3.2024e-15
2.73288e-15
-3.82901e-15
5.35129e-15
9.52182e-16
-4.66844e-15
4.16396e-16
5.54554e-16
4.31249e-15
-3.55774e-15
4.13465e-15
-2.22148e-15
-3.69648e-17
2.15333e-15
1.33234e-15
2.67619e-15
3.67953e-15
1.41448e-15
6.11997e-16
1.84151e-15
4.12952e-15
2.916e-15
1.11144e-14
1.43982e-14
2.69134e-14
3.33111e-14
5.90438e-14
8.36743e-14
1.86831e-13
3.30039e-13
1.29233e-12
3.20913e-12
3.62489e-11
3.58953e-11
-7.74056e-11
-9.03735e-11
4.09315e-11
4.24992e-11
4.19053e-12
1.7136e-12
4.50767e-13
2.56691e-13
1.11299e-13
7.82326e-14
4.15499e-14
2.7366e-14
2.51338e-14
1.4811e-14
1.10921e-14
5.41037e-15
5.64905e-17
6.58321e-15
-1.70684e-16
1.26677e-15
9.03221e-16
-1.70496e-15
4.5574e-15
-2.38977e-15
-2.91565e-15
1.62653e-15
2.21397e-16
2.26999e-15
3.29665e-15
-2.63379e-15
2.95526e-15
1.36563e-15
-3.36386e-15
2.57556e-15
5.14548e-16
3.27832e-15
1.92265e-15
1.11854e-15
2.90417e-16
1.37017e-15
-1.86467e-15
-1.49479e-15
3.6363e-15
5.01784e-15
2.74245e-15
5.66748e-15
8.5685e-15
1.48049e-14
1.27976e-14
1.98243e-14
2.75945e-14
4.21511e-14
7.56275e-14
1.12405e-13
2.56123e-13
4.46009e-13
1.71181e-12
4.18579e-12
4.24993e-11
4.09325e-11
-9.03753e-11
-1.03465e-10
4.57862e-11
4.87645e-11
5.31501e-12
2.21153e-12
5.87167e-13
3.45605e-13
1.43484e-13
1.04451e-13
5.35924e-14
4.26285e-14
1.38404e-14
2.06244e-14
1.23869e-14
1.00144e-14
1.02857e-14
6.13406e-15
1.00203e-14
5.86447e-15
1.07993e-15
3.69834e-15
-6.81142e-16
4.27349e-15
3.22654e-15
-4.4316e-15
-1.34124e-16
2.43213e-16
1.28343e-16
5.08102e-15
2.4099e-15
2.01174e-15
-5.55804e-16
-8.20247e-16
3.58502e-15
6.0748e-15
2.93414e-15
-1.68339e-15
3.91272e-16
2.50959e-15
5.44484e-16
9.07685e-15
4.9644e-15
4.93858e-15
7.77918e-15
5.83027e-15
1.00486e-14
7.20819e-15
1.85908e-14
2.47731e-14
3.52285e-14
5.10308e-14
9.85783e-14
1.42403e-13
3.47815e-13
5.90836e-13
2.20757e-12
5.31521e-12
4.87667e-11
4.57815e-11
-1.03462e-10
-1.16619e-10
5.04361e-11
5.50156e-11
6.60191e-12
2.78843e-12
7.59326e-13
4.41764e-13
1.96283e-13
1.28511e-13
7.12768e-14
4.68413e-14
3.92417e-14
2.73662e-14
1.65966e-14
1.23443e-14
1.25587e-14
5.93644e-15
3.09269e-15
3.54304e-15
6.88599e-15
1.59715e-15
5.58223e-15
-4.35411e-15
1.62038e-15
4.73823e-15
1.75398e-15
4.33555e-15
1.36135e-15
-5.96778e-15
-7.79754e-16
-4.64166e-15
3.03197e-15
3.32259e-15
4.11402e-16
-1.38569e-15
2.00948e-16
5.65638e-15
3.13177e-15
1.42196e-16
1.96267e-15
1.2808e-16
1.84506e-15
2.63279e-15
4.71738e-15
1.09359e-14
1.17878e-14
1.62157e-14
2.39519e-14
3.32106e-14
5.19978e-14
6.98602e-14
1.3211e-13
1.93288e-13
4.40195e-13
7.59545e-13
2.78877e-12
6.59946e-12
5.5013e-11
5.04324e-11
-1.16622e-10
-1.2981e-10
5.48395e-11
6.1223e-11
8.03302e-12
3.45549e-12
9.59071e-13
5.59069e-13
2.41269e-13
1.65718e-13
9.2932e-14
6.97448e-14
3.86893e-14
2.98212e-14
2.04052e-14
1.70661e-14
8.78564e-15
1.36103e-14
5.14743e-15
1.18139e-14
1.03007e-15
8.79271e-15
-2.9976e-16
9.06112e-15
1.67176e-15
3.49499e-15
-1.04063e-15
-1.12814e-15
4.10045e-15
3.44234e-15
1.95556e-15
-7.91407e-16
1.63711e-15
2.71805e-15
-6.18711e-16
7.36908e-15
2.82567e-15
-1.76123e-15
-2.29927e-15
-5.57125e-16
5.20895e-15
1.87704e-15
8.52448e-15
1.20113e-14
1.05805e-14
1.0263e-14
1.79447e-14
2.27664e-14
3.16939e-14
3.95278e-14
6.86705e-14
9.11636e-14
1.63373e-13
2.40047e-13
5.60424e-13
9.65417e-13
3.45839e-12
8.0361e-12
6.12209e-11
5.48386e-11
-1.29808e-10
-1.42993e-10
5.89746e-11
6.73625e-11
9.63707e-12
4.20194e-12
1.19836e-12
6.97987e-13
3.0813e-13
2.12528e-13
1.12036e-13
7.99947e-14
5.57896e-14
4.02715e-14
2.57634e-14
1.75055e-14
1.75647e-14
8.30849e-15
1.04306e-14
6.12551e-15
7.22238e-15
4.39538e-15
4.97649e-15
8.15426e-16
6.34154e-15
3.03341e-16
-7.71119e-16
6.41831e-15
5.27271e-16
-1.13118e-15
-2.13515e-15
-1.74069e-15
-2.11452e-15
8.61054e-16
1.0085e-15
2.64039e-16
-5.74174e-15
1.55409e-15
3.99385e-15
9.22887e-15
6.56947e-15
1.08832e-14
3.99668e-15
8.78903e-15
1.48116e-14
1.35456e-14
2.45844e-14
2.77103e-14
3.93019e-14
5.36009e-14
8.53115e-14
1.15217e-13
2.10352e-13
3.06795e-13
6.96812e-13
1.20076e-12
4.20517e-12
9.63731e-12
6.73686e-11
5.89747e-11
-1.42997e-10
-1.56132e-10
6.28119e-11
7.34122e-11
1.13858e-11
5.05265e-12
1.46888e-12
8.53709e-13
3.80089e-13
2.54377e-13
1.439e-13
1.03533e-13
6.23557e-14
4.51342e-14
3.61685e-14
2.91644e-14
1.77226e-14
1.90025e-14
1.01538e-14
1.2542e-14
6.23361e-15
9.61947e-16
3.88423e-15
4.87414e-15
4.02953e-15
5.07019e-15
-9.29929e-16
4.40024e-15
6.59112e-15
5.12194e-15
-1.09286e-16
1.3456e-15
-1.20573e-15
2.37725e-15
5.87815e-15
1.87461e-15
7.156e-15
4.68351e-15
3.34063e-15
5.35696e-15
9.59837e-15
6.23636e-15
8.18613e-15
1.21525e-14
1.45512e-14
2.04043e-14
2.78932e-14
2.91648e-14
4.90287e-14
6.69987e-14
1.01803e-13
1.32647e-13
2.56998e-13
3.77885e-13
8.54993e-13
1.46874e-12
5.05303e-12
1.13886e-11
7.34088e-11
6.28086e-11
-1.56128e-10
-1.69172e-10
6.63181e-11
7.93301e-11
1.32998e-11
5.99474e-12
1.79388e-12
1.03801e-12
4.60343e-13
3.11113e-13
1.65772e-13
1.26943e-13
7.37107e-14
6.30058e-14
3.67437e-14
2.8859e-14
2.603e-14
1.85317e-14
1.41269e-14
1.35868e-14
8.25156e-15
9.99507e-15
6.30724e-15
7.84366e-15
2.79275e-16
2.3242e-15
6.14061e-15
2.81315e-15
-3.26373e-15
-3.56743e-15
2.37666e-15
2.51674e-15
1.91231e-15
1.93527e-15
3.7981e-15
4.17593e-15
4.26811e-15
1.66897e-15
2.12807e-15
4.74038e-15
4.35252e-15
6.13568e-15
1.40404e-14
1.51053e-14
2.05723e-14
2.21303e-14
3.04419e-14
3.67806e-14
6.16856e-14
7.31335e-14
1.29535e-13
1.73944e-13
3.09878e-13
4.61154e-13
1.03763e-12
1.79038e-12
5.99504e-12
1.32981e-11
7.93266e-11
6.6319e-11
-1.69175e-10
-1.8208e-10
6.94798e-11
8.5102e-11
1.5372e-11
7.04224e-12
2.14847e-12
1.25037e-12
5.52132e-13
3.76073e-13
2.099e-13
1.49611e-13
9.89246e-14
7.57366e-14
5.2115e-14
4.02616e-14
2.8204e-14
2.36783e-14
1.89825e-14
1.51583e-14
1.03108e-14
6.28233e-15
5.5503e-15
3.62004e-15
9.05873e-15
5.96323e-15
2.22571e-15
2.93814e-15
1.06613e-16
9.62562e-15
2.95532e-15
-7.50619e-18
1.02397e-15
2.48826e-15
2.42783e-15
5.39571e-15
4.22241e-15
5.86533e-15
9.29627e-15
7.37071e-15
1.31922e-14
1.23014e-14
1.52535e-14
1.39671e-14
2.2354e-14
2.87007e-14
4.12784e-14
5.12341e-14
7.35834e-14
9.32437e-14
1.48344e-13
2.09088e-13
3.76596e-13
5.59331e-13
1.24553e-12
2.15554e-12
7.0412e-12
1.53727e-11
8.51077e-11
6.94761e-11
-1.82082e-10
-1.94811e-10
7.22611e-11
9.06846e-11
1.75916e-11
8.19251e-12
2.56187e-12
1.48441e-12
6.72955e-13
4.51621e-13
2.46329e-13
1.84078e-13
1.13954e-13
8.88642e-14
5.52341e-14
4.62913e-14
3.36331e-14
2.84121e-14
1.98156e-14
1.70449e-14
1.72248e-14
1.01188e-14
1.0106e-14
1.03211e-14
6.01703e-15
1.3714e-15
8.14399e-15
2.20875e-15
5.01309e-15
2.72727e-15
2.05313e-15
7.70879e-15
6.9843e-16
2.66513e-15
1.56753e-15
3.30822e-15
4.12956e-15
8.36598e-15
2.51719e-15
7.53891e-15
8.99131e-15
1.19752e-14
1.69605e-14
2.20995e-14
2.63973e-14
3.36254e-14
4.69944e-14
5.82736e-14
8.80654e-14
1.15452e-13
1.85383e-13
2.47604e-13
4.51926e-13
6.70673e-13
1.48742e-12
2.56012e-12
8.19197e-12
1.75965e-11
9.06806e-11
7.22594e-11
-1.94811e-10
-2.07318e-10
7.4637e-11
9.60568e-11
1.99699e-11
9.44609e-12
3.02402e-12
1.7563e-12
7.97173e-13
5.3996e-13
3.00871e-13
2.1866e-13
1.35745e-13
1.05637e-13
7.31727e-14
5.60959e-14
3.95022e-14
3.44798e-14
2.2872e-14
2.16028e-14
1.33812e-14
1.31166e-14
1.07438e-14
5.78725e-15
9.07201e-15
1.04046e-14
2.59514e-15
7.82707e-15
2.52096e-15
3.98588e-15
4.38735e-15
2.31121e-15
5.309e-15
3.65475e-15
8.19204e-15
6.12416e-15
7.16001e-15
3.90646e-15
1.27977e-14
1.05532e-14
1.20737e-14
1.72315e-14
2.00642e-14
2.10821e-14
3.48038e-14
4.17244e-14
5.69827e-14
7.50109e-14
1.08399e-13
1.3414e-13
2.16513e-13
2.96627e-13
5.35713e-13
7.97846e-13
1.75558e-12
3.02982e-12
9.4442e-12
1.99673e-11
9.60607e-11
7.46388e-11
-2.07317e-10
-2.19555e-10
7.65916e-11
1.01187e-10
2.24836e-11
1.08156e-11
3.55322e-12
2.06189e-12
9.45048e-13
6.32481e-13
3.47942e-13
2.59651e-13
1.63797e-13
1.21999e-13
8.46563e-14
6.6662e-14
4.78877e-14
3.89275e-14
2.92255e-14
2.72963e-14
1.83132e-14
1.59977e-14
1.03586e-14
1.14454e-14
6.95897e-15
5.38326e-15
8.53142e-15
5.38424e-16
2.74524e-15
8.10134e-16
2.92062e-15
4.3105e-15
5.08665e-15
3.28128e-15
1.0447e-15
5.9339e-15
3.26474e-15
1.35842e-14
1.01325e-14
1.22442e-14
1.54442e-14
2.0314e-14
2.46428e-14
3.38255e-14
3.68588e-14
4.36289e-14
7.22541e-14
7.89793e-14
1.22662e-13
1.60919e-13
2.5912e-13
3.52135e-13
6.3788e-13
9.46165e-13
2.06231e-12
3.54566e-12
1.08134e-11
2.24878e-11
1.01187e-10
7.65931e-11
-2.19555e-10
-2.31475e-10
7.81001e-11
1.06043e-10
2.51344e-11
1.22908e-11
4.12528e-12
2.40147e-12
1.11154e-12
7.4585e-13
4.1542e-13
3.03819e-13
1.87965e-13
1.49186e-13
9.63213e-14
7.76467e-14
5.55449e-14
4.61661e-14
3.6777e-14
2.48346e-14
2.40915e-14
2.01798e-14
1.71716e-14
1.40612e-14
9.79791e-15
8.54099e-15
6.30547e-15
1.34254e-14
4.05758e-15
8.82024e-15
8.03135e-15
5.19592e-15
6.16177e-15
5.45906e-15
5.63482e-15
7.20505e-15
1.21929e-14
7.58684e-15
1.28271e-14
1.58112e-14
1.91866e-14
1.85252e-14
3.20935e-14
3.32669e-14
4.41173e-14
6.03879e-14
7.79749e-14
1.01796e-13
1.44686e-13
1.89752e-13
3.02849e-13
4.13164e-13
7.41717e-13
1.11127e-12
2.40267e-12
4.13201e-12
1.22883e-11
2.51357e-11
1.0604e-10
7.81034e-11
-2.3147e-10
-2.43031e-10
7.91459e-11
1.10591e-10
2.79119e-11
1.38765e-11
4.77898e-12
2.78432e-12
1.29998e-12
8.69082e-13
4.86597e-13
3.57649e-13
2.2755e-13
1.70229e-13
1.18719e-13
9.39953e-14
6.86886e-14
5.59886e-14
3.86664e-14
3.51168e-14
2.62999e-14
2.06053e-14
1.63745e-14
1.10994e-14
1.23436e-14
1.31861e-14
9.73593e-15
7.0756e-15
1.12527e-14
4.52355e-15
2.27338e-15
6.79811e-15
4.40479e-15
5.11534e-15
9.08655e-15
5.76593e-15
1.0799e-14
1.43376e-14
1.42158e-14
1.82108e-14
1.55078e-14
2.90791e-14
3.27668e-14
4.20074e-14
5.68412e-14
6.59375e-14
9.21882e-14
1.15532e-13
1.74413e-13
2.23915e-13
3.55141e-13
4.88653e-13
8.6998e-13
1.29863e-12
2.78206e-12
4.77547e-12
1.38791e-11
2.79143e-11
1.10589e-10
7.91389e-11
-2.43035e-10
-2.54186e-10
7.96972e-11
1.14805e-10
3.08071e-11
1.5574e-11
5.48899e-12
3.20428e-12
1.50894e-12
1.01347e-12
5.68443e-13
4.14523e-13
2.55463e-13
2.0114e-13
1.35679e-13
1.09943e-13
7.66173e-14
6.15684e-14
4.81896e-14
3.55918e-14
2.78637e-14
2.6389e-14
2.15043e-14
1.73494e-14
1.35597e-14
9.95221e-15
7.95409e-15
8.87653e-15
5.28597e-15
8.87807e-15
1.02505e-14
9.91929e-15
8.19567e-15
7.62223e-15
1.04155e-14
1.19461e-14
1.52129e-14
1.10975e-14
1.43224e-14
1.61694e-14
2.84642e-14
2.95358e-14
3.81394e-14
4.73149e-14
6.10304e-14
7.81418e-14
1.09482e-13
1.34835e-13
2.01224e-13
2.60724e-13
4.13862e-13
5.6786e-13
1.0093e-12
1.5078e-12
3.20495e-12
5.48819e-12
1.55754e-11
3.08046e-11
1.1481e-10
7.97095e-11
-2.54184e-10
-2.64892e-10
7.97824e-11
1.18665e-10
3.37987e-11
1.73827e-11
6.27113e-12
3.67528e-12
1.74574e-12
1.16565e-12
6.60105e-13
4.81125e-13
3.04978e-13
2.37459e-13
1.56532e-13
1.25703e-13
9.04982e-14
7.31156e-14
5.38738e-14
4.80042e-14
3.53751e-14
2.99032e-14
2.38611e-14
2.1217e-14
1.63994e-14
1.19143e-14
1.4477e-14
8.7614e-15
6.25919e-15
5.20596e-15
1.77773e-15
7.1044e-15
7.74902e-15
1.01899e-14
7.00439e-15
1.34477e-14
1.25818e-14
1.47527e-14
2.10096e-14
2.67429e-14
2.82987e-14
3.54587e-14
4.79514e-14
5.35466e-14
7.6876e-14
9.0508e-14
1.28694e-13
1.60294e-13
2.29021e-13
3.01335e-13
4.83118e-13
6.59252e-13
1.1662e-12
1.74569e-12
3.6697e-12
6.27499e-12
1.73803e-11
3.37994e-11
1.18658e-10
7.97742e-11
-2.64893e-10
-2.75106e-10
7.93377e-11
1.22118e-10
3.68767e-11
1.92967e-11
7.13962e-12
4.18991e-12
2.01543e-12
1.34083e-12
7.62174e-13
5.57934e-13
3.52797e-13
2.66383e-13
1.82963e-13
1.46617e-13
1.05981e-13
8.70317e-14
6.52855e-14
5.21943e-14
4.58998e-14
3.4197e-14
2.50837e-14
1.96322e-14
1.63139e-14
1.73981e-14
1.16113e-14
1.13428e-14
1.4473e-14
1.30105e-14
1.48232e-14
6.23982e-15
7.68251e-15
9.00921e-15
1.55979e-14
1.23237e-14
1.54881e-14
2.25214e-14
2.22311e-14
2.56326e-14
3.81123e-14
4.14947e-14
5.27662e-14
6.40716e-14
8.26367e-14
1.05426e-13
1.42088e-13
1.84238e-13
2.73817e-13
3.52332e-13
5.5291e-13
7.65504e-13
1.34193e-12
2.01421e-12
4.19359e-12
7.13678e-12
1.92984e-11
3.68775e-11
1.2212e-10
7.93407e-11
-2.75105e-10
-2.84791e-10
7.8392e-11
1.25165e-10
4.00242e-11
2.13076e-11
8.07218e-12
4.75855e-12
2.30754e-12
1.54463e-12
8.78078e-13
6.35187e-13
4.03801e-13
3.10964e-13
2.14705e-13
1.67257e-13
1.24488e-13
9.78512e-14
7.36769e-14
6.26049e-14
4.39883e-14
3.75564e-14
3.23179e-14
2.63431e-14
2.51194e-14
1.37652e-14
1.63562e-14
1.71133e-14
1.10185e-14
6.34129e-15
7.94637e-15
1.27964e-14
1.19343e-14
1.46952e-14
1.27774e-14
1.6131e-14
2.0311e-14
1.45799e-14
2.63934e-14
3.06486e-14
3.5977e-14
4.62052e-14
6.23542e-14
7.75754e-14
1.02497e-13
1.23434e-13
1.74061e-13
2.15281e-13
3.09452e-13
4.0389e-13
6.38813e-13
8.76798e-13
1.53822e-12
2.30693e-12
4.75654e-12
8.07163e-12
2.13077e-11
4.00266e-11
1.25164e-10
7.83888e-11
-2.8479e-10
-2.93899e-10
7.69255e-11
1.27765e-10
4.32265e-11
2.34271e-11
9.09076e-12
5.37863e-12
2.63534e-12
1.75303e-12
1.00565e-12
7.31439e-13
4.68438e-13
3.59801e-13
2.46064e-13
1.92348e-13
1.36796e-13
1.15105e-13
8.88128e-14
7.10417e-14
5.722e-14
4.9291e-14
3.77822e-14
3.09943e-14
2.54392e-14
2.44189e-14
2.00197e-14
1.35899e-14
1.32267e-14
1.52217e-14
1.55731e-14
1.25288e-14
1.26124e-14
1.52638e-14
1.61956e-14
1.98768e-14
2.1637e-14
2.90789e-14
2.83582e-14
3.73748e-14
4.79715e-14
5.36645e-14
7.07404e-14
8.11502e-14
1.14198e-13
1.42385e-13
1.92754e-13
2.41529e-13
3.55638e-13
4.6677e-13
7.32294e-13
1.01236e-12
1.75621e-12
2.63655e-12
5.38238e-12
9.08987e-12
2.34248e-11
4.32241e-11
1.27765e-10
7.69283e-11
-2.93897e-10
-3.02404e-10
7.49483e-11
1.299e-10
4.64511e-11
2.5628e-11
1.01947e-11
6.05447e-12
3.00001e-12
2.00034e-12
1.15674e-12
8.37142e-13
5.31315e-13
4.09336e-13
2.75156e-13
2.18657e-13
1.62768e-13
1.30397e-13
9.79672e-14
7.76557e-14
6.0134e-14
4.9266e-14
4.0027e-14
3.62779e-14
2.68126e-14
2.32273e-14
1.95378e-14
1.8421e-14
1.80319e-14
1.45325e-14
1.2554e-14
1.21336e-14
1.46726e-14
1.34753e-14
1.86004e-14
1.72554e-14
2.47212e-14
2.73818e-14
3.57055e-14
4.18918e-14
5.33367e-14
6.56239e-14
8.00894e-14
1.00213e-13
1.26465e-13
1.58545e-13
2.20708e-13
2.77801e-13
4.1001e-13
5.34559e-13
8.30747e-13
1.15428e-12
1.99768e-12
2.99379e-12
6.05042e-12
1.01919e-11
2.563e-11
4.64479e-11
1.299e-10
7.4947e-11
-3.02409e-10
-3.10276e-10
7.24482e-11
1.31548e-10
4.96905e-11
2.79196e-11
1.13717e-11
6.78822e-12
3.39457e-12
2.26161e-12
1.31742e-12
9.53401e-13
6.13301e-13
4.6079e-13
3.25367e-13
2.57969e-13
1.81893e-13
1.50129e-13
1.12763e-13
9.6187e-14
7.51485e-14
5.94727e-14
4.76933e-14
3.77057e-14
3.14575e-14
2.92007e-14
2.42761e-14
1.93977e-14
1.7319e-14
1.79424e-14
1.7157e-14
2.0671e-14
1.8938e-14
1.62956e-14
1.98406e-14
2.62611e-14
2.4307e-14
3.24014e-14
3.8069e-14
4.75084e-14
5.68737e-14
7.12801e-14
9.50132e-14
1.09763e-13
1.48718e-13
1.85988e-13
2.5385e-13
3.28051e-13
4.66651e-13
6.09791e-13
9.5266e-13
1.31379e-12
2.26581e-12
3.40004e-12
6.79209e-12
1.13733e-11
2.79186e-11
4.96944e-11
1.31548e-10
7.24501e-11
-3.1027e-10
-3.17474e-10
6.94519e-11
1.32694e-10
5.29116e-11
3.02858e-11
1.26441e-11
7.58979e-12
3.83527e-12
2.55842e-12
1.49233e-12
1.07419e-12
6.99898e-13
5.33078e-13
3.64423e-13
2.88263e-13
2.11513e-13
1.6962e-13
1.28177e-13
1.00767e-13
8.16408e-14
6.85251e-14
5.2035e-14
4.78024e-14
3.74818e-14
3.2497e-14
2.76943e-14
2.33911e-14
2.42881e-14
1.87505e-14
1.73262e-14
1.7055e-14
2.0334e-14
2.79141e-14
2.56987e-14
2.27116e-14
3.31416e-14
3.70736e-14
4.69602e-14
5.39724e-14
6.87899e-14
8.35796e-14
1.03254e-13
1.34743e-13
1.66876e-13
2.10857e-13
2.90882e-13
3.63861e-13
5.29006e-13
6.95515e-13
1.07589e-12
1.49576e-12
2.55682e-12
3.83552e-12
7.58832e-12
1.26423e-11
3.02882e-11
5.2909e-11
1.32697e-10
6.94525e-11
-3.17473e-10
-3.23975e-10
6.59546e-11
1.33324e-10
5.60916e-11
3.27121e-11
1.3998e-11
8.44712e-12
4.32303e-12
2.88289e-12
1.69239e-12
1.22602e-12
7.87407e-13
6.01143e-13
4.17698e-13
3.27524e-13
2.3791e-13
1.94173e-13
1.48576e-13
1.20588e-13
9.34909e-14
7.58514e-14
6.69651e-14
5.25935e-14
4.44406e-14
3.64507e-14
3.03352e-14
2.91569e-14
2.62908e-14
2.36288e-14
2.09764e-14
2.21002e-14
1.85458e-14
2.22491e-14
2.70609e-14
3.61959e-14
3.36594e-14
4.73418e-14
4.94727e-14
6.34455e-14
7.94839e-14
9.23528e-14
1.21957e-13
1.45477e-13
1.94176e-13
2.39254e-13
3.28053e-13
4.16217e-13
6.00878e-13
7.92091e-13
1.222e-12
1.69572e-12
2.88061e-12
4.31778e-12
8.44618e-12
1.3998e-11
3.2712e-11
5.60956e-11
1.33319e-10
6.59571e-11
-3.23973e-10
-3.29755e-10
6.19795e-11
1.33419e-10
5.92114e-11
3.51963e-11
1.54275e-11
9.37534e-12
4.8449e-12
3.23518e-12
1.9115e-12
1.37756e-12
8.99925e-13
6.78476e-13
4.74946e-13
3.73299e-13
2.75338e-13
2.19961e-13
1.64403e-13
1.38789e-13
1.04458e-13
9.22036e-14
6.57951e-14
5.65958e-14
4.76699e-14
4.47671e-14
3.45366e-14
3.09649e-14
2.85182e-14
2.80764e-14
2.65052e-14
2.63274e-14
2.88014e-14
2.34721e-14
3.05568e-14
3.5975e-14
4.67585e-14
4.35505e-14
6.15691e-14
6.98815e-14
8.46175e-14
1.1156e-13
1.32787e-13
1.65182e-13
2.14867e-13
2.73626e-13
3.70305e-13
4.80326e-13
6.85828e-13
8.98434e-13
1.38156e-12
1.91336e-12
3.23871e-12
4.84433e-12
9.372e-12
1.54254e-11
3.51943e-11
5.92068e-11
1.33417e-10
6.19818e-11
-3.29754e-10
-3.34802e-10
5.75407e-11
1.32971e-10
6.2232e-11
3.77161e-11
1.69493e-11
1.0354e-11
5.42106e-12
3.6252e-12
2.16096e-12
1.55149e-12
1.01283e-12
7.69584e-13
5.37969e-13
4.18014e-13
3.06265e-13
2.48637e-13
1.8818e-13
1.52934e-13
1.23731e-13
9.90979e-14
8.10704e-14
6.47129e-14
5.61237e-14
4.51337e-14
3.76064e-14
3.76972e-14
2.93574e-14
2.7486e-14
2.58323e-14
2.74844e-14
3.11081e-14
3.57211e-14
3.65102e-14
3.67378e-14
4.00777e-14
5.92445e-14
6.78356e-14
8.04221e-14
1.04747e-13
1.16765e-13
1.60544e-13
1.90026e-13
2.50629e-13
3.04115e-13
4.25179e-13
5.31299e-13
7.66772e-13
1.01119e-12
1.54941e-12
2.15469e-12
3.62515e-12
5.42388e-12
1.03549e-11
1.69517e-11
3.7715e-11
6.22354e-11
1.32977e-10
5.7539e-11
-3.34803e-10
-3.39089e-10
5.26611e-11
1.31988e-10
6.51416e-11
4.02597e-11
1.85461e-11
1.14183e-11
6.03626e-12
4.04196e-12
2.41904e-12
1.74811e-12
1.14399e-12
8.66573e-13
6.04902e-13
4.79035e-13
3.51152e-13
2.77371e-13
2.16476e-13
1.77807e-13
1.35796e-13
1.16388e-13
8.85347e-14
8.1095e-14
6.38589e-14
5.49576e-14
4.58644e-14
3.81322e-14
3.99355e-14
3.34196e-14
3.60463e-14
2.97469e-14
2.84148e-14
3.39864e-14
3.89452e-14
5.04243e-14
5.83023e-14
6.08545e-14
7.80169e-14
9.07135e-14
1.08811e-13
1.37071e-13
1.71053e-13
2.15696e-13
2.83284e-13
3.51212e-13
4.74343e-13
6.05707e-13
8.69357e-13
1.14169e-12
1.7459e-12
2.42348e-12
4.04095e-12
6.03385e-12
1.14187e-11
1.85454e-11
4.02636e-11
6.51421e-11
1.31983e-10
5.26616e-11
-3.39092e-10
-3.42621e-10
4.73695e-11
1.30447e-10
6.78983e-11
4.28145e-11
2.02165e-11
1.25363e-11
6.71578e-12
4.50625e-12
2.71595e-12
1.95527e-12
1.2853e-12
9.72245e-13
6.78515e-13
5.32265e-13
3.9293e-13
3.19952e-13
2.41732e-13
1.95378e-13
1.57677e-13
1.29421e-13
1.10519e-13
8.11361e-14
6.88529e-14
6.13946e-14
5.16044e-14
4.93337e-14
3.97139e-14
3.95763e-14
3.3018e-14
3.44679e-14
3.85712e-14
3.9302e-14
4.27393e-14
4.69798e-14
5.50667e-14
6.88915e-14
8.43161e-14
1.08709e-13
1.28109e-13
1.60293e-13
2.00054e-13
2.39129e-13
3.13742e-13
3.94513e-13
5.35498e-13
6.83111e-13
9.77379e-13
1.29159e-12
1.95466e-12
2.71538e-12
4.50731e-12
6.71573e-12
1.2534e-11
2.02142e-11
4.2814e-11
6.7899e-11
1.30452e-10
4.73721e-11
-3.42614e-10
-3.45375e-10
4.17e-11
1.28373e-10
7.04833e-11
4.53574e-11
2.19538e-11
1.37187e-11
7.43855e-12
5.00099e-12
3.03227e-12
2.18338e-12
1.44162e-12
1.09415e-12
7.7462e-13
6.01173e-13
4.46503e-13
3.53768e-13
2.7259e-13
2.25979e-13
1.69126e-13
1.43531e-13
1.125e-13
9.99351e-14
8.37624e-14
6.8628e-14
5.4986e-14
4.81793e-14
4.81373e-14
4.27199e-14
4.40791e-14
4.34357e-14
4.33363e-14
4.6634e-14
5.46511e-14
5.9251e-14
7.24073e-14
8.54839e-14
1.01517e-13
1.1049e-13
1.44503e-13
1.7063e-13
2.18688e-13
2.77446e-13
3.58337e-13
4.43823e-13
6.01651e-13
7.69567e-13
1.08756e-12
1.43942e-12
2.18217e-12
3.03516e-12
5.00072e-12
7.43583e-12
1.37231e-11
2.19611e-11
4.53569e-11
7.04846e-11
1.2837e-10
4.16948e-11
-3.45376e-10
-3.47364e-10
3.56653e-11
1.25752e-10
7.28643e-11
4.78778e-11
2.37631e-11
1.49765e-11
8.21832e-12
5.54189e-12
3.3843e-12
2.43602e-12
1.61273e-12
1.22444e-12
8.60378e-13
6.79826e-13
5.04381e-13
4.04603e-13
3.067e-13
2.45487e-13
2.04412e-13
1.67447e-13
1.31484e-13
1.06567e-13
8.72332e-14
7.4185e-14
6.42812e-14
5.58421e-14
4.94697e-14
4.70689e-14
4.46281e-14
4.74369e-14
4.65366e-14
5.43468e-14
5.73908e-14
6.78953e-14
7.20436e-14
8.8315e-14
1.08617e-13
1.34898e-13
1.63545e-13
1.99972e-13
2.5728e-13
3.05175e-13
4.01186e-13
4.99472e-13
6.75791e-13
8.64466e-13
1.22595e-12
1.61863e-12
2.44008e-12
3.38276e-12
5.54258e-12
8.22147e-12
1.49741e-11
2.37628e-11
4.78723e-11
7.28637e-11
1.25757e-10
3.5671e-11
-3.47361e-10
-3.48572e-10
2.93314e-11
1.22619e-10
7.50149e-11
5.03466e-11
2.56288e-11
1.62892e-11
9.05233e-12
6.12307e-12
3.76902e-12
2.71316e-12
1.81327e-12
1.36265e-12
9.6695e-13
7.56225e-13
5.56711e-13
4.48537e-13
3.4986e-13
2.83945e-13
2.16958e-13
1.79245e-13
1.51164e-13
1.29482e-13
1.04266e-13
8.80494e-14
7.51441e-14
7.06861e-14
5.73163e-14
5.35725e-14
5.32132e-14
5.18083e-14
5.32611e-14
5.85418e-14
6.5862e-14
7.1269e-14
8.87344e-14
1.0415e-13
1.23196e-13
1.50872e-13
1.82885e-13
2.21227e-13
2.74936e-13
3.45995e-13
4.48322e-13
5.62742e-13
7.54879e-13
9.69721e-13
1.36109e-12
1.80465e-12
2.71281e-12
3.76339e-12
6.12017e-12
9.05331e-12
1.62892e-11
2.56274e-11
5.03473e-11
7.50155e-11
1.22615e-10
2.9332e-11
-3.48579e-10
-3.49045e-10
2.27181e-11
1.18952e-10
7.69157e-11
5.27458e-11
2.75375e-11
1.76607e-11
9.94427e-12
6.74241e-12
4.17142e-12
3.012e-12
2.01657e-12
1.52519e-12
1.08556e-12
8.44593e-13
6.29456e-13
5.06979e-13
3.79677e-13
3.13675e-13
2.47305e-13
2.08218e-13
1.62413e-13
1.39951e-13
1.16595e-13
9.61128e-14
8.32789e-14
6.97108e-14
7.00424e-14
5.92988e-14
5.65799e-14
6.24601e-14
6.13346e-14
6.13976e-14
7.30659e-14
8.94628e-14
9.85441e-14
1.1247e-13
1.3418e-13
1.60922e-13
2.10355e-13
2.51119e-13
3.18213e-13
3.87036e-13
5.04785e-13
6.26286e-13
8.47136e-13
1.0806e-12
1.53053e-12
2.02066e-12
3.01321e-12
4.1813e-12
6.74531e-12
9.94211e-12
1.76663e-11
2.75362e-11
5.27451e-11
7.69142e-11
1.18959e-10
2.27201e-11
-3.49041e-10
-3.48751e-10
1.58735e-11
1.14814e-10
7.85319e-11
5.50598e-11
2.94858e-11
1.91047e-11
1.08941e-11
7.4094e-12
4.63003e-12
3.33915e-12
2.2408e-12
1.6974e-12
1.20789e-12
9.44203e-13
7.05792e-13
5.61745e-13
4.36171e-13
3.5434e-13
2.84404e-13
2.2817e-13
1.89558e-13
1.53996e-13
1.27734e-13
1.11792e-13
9.5595e-14
8.58714e-14
7.11291e-14
7.05352e-14
6.77231e-14
6.30504e-14
6.78449e-14
7.29348e-14
8.02444e-14
9.13918e-14
1.07952e-13
1.31366e-13
1.56797e-13
1.89171e-13
2.29522e-13
2.81681e-13
3.5158e-13
4.32948e-13
5.60333e-13
7.07642e-13
9.44005e-13
1.20847e-12
1.69617e-12
2.23776e-12
3.33914e-12
4.63217e-12
7.40977e-12
1.08953e-11
1.90969e-11
2.9489e-11
5.50629e-11
7.85293e-11
1.14814e-10
1.58653e-11
-3.4875e-10
-3.47729e-10
8.827e-12
1.10194e-10
7.98404e-11
5.72636e-11
3.14659e-11
2.05758e-11
1.18939e-11
8.13746e-12
5.11097e-12
3.69229e-12
2.49215e-12
1.88057e-12
1.35098e-12
1.05652e-12
7.86034e-13
6.27438e-13
4.82134e-13
3.91613e-13
3.08085e-13
2.55649e-13
2.04221e-13
1.76062e-13
1.45594e-13
1.1904e-13
1.03618e-13
9.20941e-14
7.83392e-14
7.26554e-14
7.14557e-14
7.13258e-14
7.62333e-14
8.56111e-14
9.80534e-14
1.05442e-13
1.20763e-13
1.41858e-13
1.74895e-13
2.10811e-13
2.56253e-13
3.0976e-13
3.98488e-13
4.87143e-13
6.28383e-13
7.80938e-13
1.05149e-12
1.34716e-12
1.88403e-12
2.50016e-12
3.69054e-12
5.1076e-12
8.13182e-12
1.18955e-11
2.058e-11
3.14625e-11
5.72589e-11
7.98445e-11
1.10193e-10
8.8272e-12
-3.47731e-10
-3.46009e-10
1.64251e-12
1.05137e-10
8.08387e-11
5.93389e-11
3.34484e-11
2.21196e-11
1.29566e-11
8.88495e-12
5.63232e-12
4.07575e-12
2.76993e-12
2.0911e-12
1.49703e-12
1.1717e-12
8.75736e-13
7.01911e-13
5.46778e-13
4.40861e-13
3.48845e-13
2.89539e-13
2.34564e-13
1.98922e-13
1.61431e-13
1.42107e-13
1.20548e-13
1.02166e-13
9.71115e-14
8.25956e-14
8.49128e-14
8.34521e-14
8.82769e-14
9.29396e-14