/*--------------------------------*- C++ -*----------------------------------*\
| =========                 |                                                 |
| \\      /  F ield         | foam-extend: Open Source CFD                    |
|  \\    /   O peration     | Version:     4.0                                |
|   \\  /    A nd           | Web:         http://www.foam-extend.org         |
|    \\/     M anipulation  |                                                 |
\*---------------------------------------------------------------------------*/
FoamFile
{
    version     2.0;
    format      ascii;
    class       volScalarField;
    location    "17";
    object      cMinus;
}
// * * * * * * * * * * * * * * * * * * * * * * * * * * * * * * * * * * * * * //

dimensions      [0 -3 0 0 0 0 0];

internalField   nonuniform List<scalar> 
6960
(
3.64756e-08
3.64754e-08
3.64752e-08
3.64751e-08
3.6475e-08
3.64749e-08
3.64748e-08
3.64746e-08
3.64745e-08
3.64745e-08
3.64744e-08
3.64743e-08
3.64742e-08
3.64741e-08
3.6474e-08
3.6474e-08
3.64739e-08
3.64738e-08
3.64738e-08
3.64737e-08
3.64737e-08
3.64736e-08
3.64736e-08
3.64736e-08
3.64735e-08
3.64735e-08
3.64735e-08
3.64735e-08
3.64735e-08
3.64735e-08
3.64735e-08
3.64735e-08
3.64735e-08
3.64735e-08
3.64736e-08
3.64736e-08
3.64736e-08
3.64737e-08
3.64737e-08
3.64738e-08
3.64738e-08
3.64739e-08
3.6474e-08
3.6474e-08
3.64741e-08
3.64742e-08
3.64743e-08
3.64744e-08
3.64745e-08
3.64746e-08
3.64747e-08
3.64748e-08
3.64749e-08
3.6475e-08
3.64751e-08
3.64752e-08
3.64753e-08
3.64755e-08
3.64756e-08
3.64758e-08
3.71129e-08
3.71127e-08
3.71125e-08
3.71124e-08
3.71123e-08
3.71121e-08
3.7112e-08
3.71119e-08
3.71118e-08
3.71117e-08
3.71116e-08
3.71115e-08
3.71115e-08
3.71114e-08
3.71113e-08
3.71112e-08
3.71112e-08
3.71111e-08
3.7111e-08
3.7111e-08
3.71109e-08
3.71109e-08
3.71109e-08
3.71108e-08
3.71108e-08
3.71108e-08
3.71108e-08
3.71108e-08
3.71107e-08
3.71107e-08
3.71107e-08
3.71108e-08
3.71108e-08
3.71108e-08
3.71108e-08
3.71109e-08
3.71109e-08
3.71109e-08
3.7111e-08
3.7111e-08
3.71111e-08
3.71112e-08
3.71112e-08
3.71113e-08
3.71114e-08
3.71115e-08
3.71116e-08
3.71116e-08
3.71117e-08
3.71118e-08
3.71119e-08
3.7112e-08
3.71121e-08
3.71122e-08
3.71124e-08
3.71125e-08
3.71126e-08
3.71128e-08
3.71129e-08
3.71131e-08
3.77809e-08
3.77807e-08
3.77806e-08
3.77804e-08
3.77803e-08
3.77802e-08
3.77801e-08
3.778e-08
3.77799e-08
3.77798e-08
3.77797e-08
3.77796e-08
3.77795e-08
3.77794e-08
3.77793e-08
3.77793e-08
3.77792e-08
3.77791e-08
3.77791e-08
3.7779e-08
3.7779e-08
3.77789e-08
3.77789e-08
3.77789e-08
3.77788e-08
3.77788e-08
3.77788e-08
3.77788e-08
3.77788e-08
3.77788e-08
3.77788e-08
3.77788e-08
3.77788e-08
3.77788e-08
3.77789e-08
3.77789e-08
3.77789e-08
3.7779e-08
3.7779e-08
3.77791e-08
3.77791e-08
3.77792e-08
3.77793e-08
3.77793e-08
3.77794e-08
3.77795e-08
3.77796e-08
3.77797e-08
3.77798e-08
3.77799e-08
3.778e-08
3.77801e-08
3.77802e-08
3.77803e-08
3.77804e-08
3.77805e-08
3.77807e-08
3.77808e-08
3.7781e-08
3.77811e-08
3.84816e-08
3.84814e-08
3.84813e-08
3.84811e-08
3.8481e-08
3.84809e-08
3.84807e-08
3.84806e-08
3.84805e-08
3.84804e-08
3.84803e-08
3.84802e-08
3.84802e-08
3.84801e-08
3.848e-08
3.84799e-08
3.84799e-08
3.84798e-08
3.84797e-08
3.84797e-08
3.84796e-08
3.84796e-08
3.84795e-08
3.84795e-08
3.84795e-08
3.84795e-08
3.84794e-08
3.84794e-08
3.84794e-08
3.84794e-08
3.84794e-08
3.84794e-08
3.84794e-08
3.84795e-08
3.84795e-08
3.84795e-08
3.84796e-08
3.84796e-08
3.84797e-08
3.84797e-08
3.84798e-08
3.84799e-08
3.84799e-08
3.848e-08
3.84801e-08
3.84802e-08
3.84802e-08
3.84803e-08
3.84804e-08
3.84805e-08
3.84806e-08
3.84807e-08
3.84809e-08
3.8481e-08
3.84811e-08
3.84812e-08
3.84814e-08
3.84815e-08
3.84816e-08
3.84818e-08
3.92169e-08
3.92167e-08
3.92166e-08
3.92164e-08
3.92163e-08
3.92162e-08
3.9216e-08
3.92159e-08
3.92158e-08
3.92157e-08
3.92156e-08
3.92155e-08
3.92154e-08
3.92154e-08
3.92153e-08
3.92152e-08
3.92151e-08
3.92151e-08
3.9215e-08
3.92149e-08
3.92149e-08
3.92148e-08
3.92148e-08
3.92148e-08
3.92147e-08
3.92147e-08
3.92147e-08
3.92147e-08
3.92147e-08
3.92147e-08
3.92147e-08
3.92147e-08
3.92147e-08
3.92147e-08
3.92148e-08
3.92148e-08
3.92148e-08
3.92149e-08
3.92149e-08
3.9215e-08
3.92151e-08
3.92151e-08
3.92152e-08
3.92153e-08
3.92154e-08
3.92154e-08
3.92155e-08
3.92156e-08
3.92157e-08
3.92158e-08
3.92159e-08
3.9216e-08
3.92161e-08
3.92163e-08
3.92164e-08
3.92165e-08
3.92167e-08
3.92168e-08
3.9217e-08
3.92171e-08
3.9989e-08
3.99888e-08
3.99886e-08
3.99885e-08
3.99883e-08
3.99882e-08
3.99881e-08
3.9988e-08
3.99879e-08
3.99878e-08
3.99877e-08
3.99876e-08
3.99875e-08
3.99874e-08
3.99873e-08
3.99872e-08
3.99872e-08
3.99871e-08
3.9987e-08
3.9987e-08
3.99869e-08
3.99869e-08
3.99868e-08
3.99868e-08
3.99868e-08
3.99867e-08
3.99867e-08
3.99867e-08
3.99867e-08
3.99867e-08
3.99867e-08
3.99867e-08
3.99867e-08
3.99868e-08
3.99868e-08
3.99868e-08
3.99869e-08
3.99869e-08
3.9987e-08
3.9987e-08
3.99871e-08
3.99872e-08
3.99872e-08
3.99873e-08
3.99874e-08
3.99875e-08
3.99876e-08
3.99877e-08
3.99878e-08
3.99879e-08
3.9988e-08
3.99881e-08
3.99882e-08
3.99883e-08
3.99885e-08
3.99886e-08
3.99887e-08
3.99889e-08
3.9989e-08
3.99892e-08
4.08001e-08
4.07999e-08
4.07998e-08
4.07996e-08
4.07995e-08
4.07993e-08
4.07992e-08
4.07991e-08
4.0799e-08
4.07989e-08
4.07988e-08
4.07987e-08
4.07986e-08
4.07985e-08
4.07984e-08
4.07983e-08
4.07983e-08
4.07982e-08
4.07981e-08
4.07981e-08
4.0798e-08
4.0798e-08
4.07979e-08
4.07979e-08
4.07979e-08
4.07978e-08
4.07978e-08
4.07978e-08
4.07978e-08
4.07978e-08
4.07978e-08
4.07978e-08
4.07978e-08
4.07979e-08
4.07979e-08
4.07979e-08
4.0798e-08
4.0798e-08
4.07981e-08
4.07981e-08
4.07982e-08
4.07983e-08
4.07983e-08
4.07984e-08
4.07985e-08
4.07986e-08
4.07987e-08
4.07988e-08
4.07989e-08
4.0799e-08
4.07991e-08
4.07992e-08
4.07993e-08
4.07995e-08
4.07996e-08
4.07997e-08
4.07999e-08
4.08e-08
4.08002e-08
4.08003e-08
4.16528e-08
4.16526e-08
4.16524e-08
4.16523e-08
4.16521e-08
4.1652e-08
4.16519e-08
4.16518e-08
4.16516e-08
4.16515e-08
4.16514e-08
4.16513e-08
4.16512e-08
4.16512e-08
4.16511e-08
4.1651e-08
4.16509e-08
4.16508e-08
4.16508e-08
4.16507e-08
4.16507e-08
4.16506e-08
4.16506e-08
4.16505e-08
4.16505e-08
4.16505e-08
4.16505e-08
4.16504e-08
4.16504e-08
4.16504e-08
4.16504e-08
4.16505e-08
4.16505e-08
4.16505e-08
4.16505e-08
4.16506e-08
4.16506e-08
4.16507e-08
4.16507e-08
4.16508e-08
4.16508e-08
4.16509e-08
4.1651e-08
4.16511e-08
4.16512e-08
4.16512e-08
4.16513e-08
4.16514e-08
4.16515e-08
4.16517e-08
4.16518e-08
4.16519e-08
4.1652e-08
4.16521e-08
4.16523e-08
4.16524e-08
4.16525e-08
4.16527e-08
4.16529e-08
4.1653e-08
4.25497e-08
4.25495e-08
4.25493e-08
4.25492e-08
4.2549e-08
4.25489e-08
4.25488e-08
4.25487e-08
4.25485e-08
4.25484e-08
4.25483e-08
4.25482e-08
4.25481e-08
4.2548e-08
4.2548e-08
4.25479e-08
4.25478e-08
4.25477e-08
4.25477e-08
4.25476e-08
4.25475e-08
4.25475e-08
4.25474e-08
4.25474e-08
4.25474e-08
4.25474e-08
4.25473e-08
4.25473e-08
4.25473e-08
4.25473e-08
4.25473e-08
4.25473e-08
4.25473e-08
4.25474e-08
4.25474e-08
4.25474e-08
4.25475e-08
4.25475e-08
4.25476e-08
4.25477e-08
4.25477e-08
4.25478e-08
4.25479e-08
4.2548e-08
4.2548e-08
4.25481e-08
4.25482e-08
4.25483e-08
4.25484e-08
4.25485e-08
4.25487e-08
4.25488e-08
4.25489e-08
4.2549e-08
4.25492e-08
4.25493e-08
4.25495e-08
4.25496e-08
4.25498e-08
4.25499e-08
4.34937e-08
4.34935e-08
4.34934e-08
4.34932e-08
4.34931e-08
4.34929e-08
4.34928e-08
4.34927e-08
4.34925e-08
4.34924e-08
4.34923e-08
4.34922e-08
4.34921e-08
4.3492e-08
4.3492e-08
4.34919e-08
4.34918e-08
4.34917e-08
4.34917e-08
4.34916e-08
4.34915e-08
4.34915e-08
4.34914e-08
4.34914e-08
4.34914e-08
4.34913e-08
4.34913e-08
4.34913e-08
4.34913e-08
4.34913e-08
4.34913e-08
4.34913e-08
4.34913e-08
4.34914e-08
4.34914e-08
4.34914e-08
4.34915e-08
4.34915e-08
4.34916e-08
4.34916e-08
4.34917e-08
4.34918e-08
4.34919e-08
4.3492e-08
4.3492e-08
4.34921e-08
4.34922e-08
4.34923e-08
4.34924e-08
4.34926e-08
4.34927e-08
4.34928e-08
4.34929e-08
4.3493e-08
4.34932e-08
4.34933e-08
4.34935e-08
4.34936e-08
4.34938e-08
4.3494e-08
4.4488e-08
4.44878e-08
4.44876e-08
4.44875e-08
4.44873e-08
4.44872e-08
4.4487e-08
4.44869e-08
4.44868e-08
4.44867e-08
4.44866e-08
4.44865e-08
4.44864e-08
4.44863e-08
4.44862e-08
4.44861e-08
4.4486e-08
4.44859e-08
4.44859e-08
4.44858e-08
4.44858e-08
4.44857e-08
4.44857e-08
4.44856e-08
4.44856e-08
4.44856e-08
4.44855e-08
4.44855e-08
4.44855e-08
4.44855e-08
4.44855e-08
4.44855e-08
4.44856e-08
4.44856e-08
4.44856e-08
4.44857e-08
4.44857e-08
4.44858e-08
4.44858e-08
4.44859e-08
4.44859e-08
4.4486e-08
4.44861e-08
4.44862e-08
4.44863e-08
4.44864e-08
4.44865e-08
4.44866e-08
4.44867e-08
4.44868e-08
4.44869e-08
4.4487e-08
4.44872e-08
4.44873e-08
4.44874e-08
4.44876e-08
4.44877e-08
4.44879e-08
4.44881e-08
4.44883e-08
4.55359e-08
4.55357e-08
4.55355e-08
4.55353e-08
4.55352e-08
4.5535e-08
4.55349e-08
4.55348e-08
4.55347e-08
4.55345e-08
4.55344e-08
4.55343e-08
4.55342e-08
4.55341e-08
4.5534e-08
4.55339e-08
4.55339e-08
4.55338e-08
4.55337e-08
4.55337e-08
4.55336e-08
4.55335e-08
4.55335e-08
4.55335e-08
4.55334e-08
4.55334e-08
4.55334e-08
4.55334e-08
4.55333e-08
4.55333e-08
4.55334e-08
4.55334e-08
4.55334e-08
4.55334e-08
4.55334e-08
4.55335e-08
4.55335e-08
4.55336e-08
4.55337e-08
4.55337e-08
4.55338e-08
4.55339e-08
4.55339e-08
4.5534e-08
4.55341e-08
4.55342e-08
4.55343e-08
4.55344e-08
4.55345e-08
4.55347e-08
4.55348e-08
4.55349e-08
4.5535e-08
4.55352e-08
4.55353e-08
4.55355e-08
4.55356e-08
4.55358e-08
4.5536e-08
4.55362e-08
4.6641e-08
4.66408e-08
4.66406e-08
4.66405e-08
4.66403e-08
4.66402e-08
4.664e-08
4.66399e-08
4.66398e-08
4.66397e-08
4.66395e-08
4.66394e-08
4.66393e-08
4.66392e-08
4.66391e-08
4.6639e-08
4.6639e-08
4.66389e-08
4.66388e-08
4.66387e-08
4.66387e-08
4.66386e-08
4.66386e-08
4.66385e-08
4.66385e-08
4.66385e-08
4.66385e-08
4.66384e-08
4.66384e-08
4.66384e-08
4.66384e-08
4.66385e-08
4.66385e-08
4.66385e-08
4.66385e-08
4.66386e-08
4.66386e-08
4.66387e-08
4.66387e-08
4.66388e-08
4.66389e-08
4.6639e-08
4.6639e-08
4.66391e-08
4.66392e-08
4.66393e-08
4.66394e-08
4.66395e-08
4.66397e-08
4.66398e-08
4.66399e-08
4.664e-08
4.66402e-08
4.66403e-08
4.66405e-08
4.66406e-08
4.66408e-08
4.66409e-08
4.66411e-08
4.66413e-08
4.78074e-08
4.78072e-08
4.7807e-08
4.78068e-08
4.78067e-08
4.78065e-08
4.78064e-08
4.78062e-08
4.78061e-08
4.7806e-08
4.78059e-08
4.78058e-08
4.78057e-08
4.78056e-08
4.78055e-08
4.78054e-08
4.78053e-08
4.78052e-08
4.78051e-08
4.78051e-08
4.7805e-08
4.78049e-08
4.78049e-08
4.78049e-08
4.78048e-08
4.78048e-08
4.78048e-08
4.78048e-08
4.78047e-08
4.78047e-08
4.78048e-08
4.78048e-08
4.78048e-08
4.78048e-08
4.78049e-08
4.78049e-08
4.78049e-08
4.7805e-08
4.78051e-08
4.78051e-08
4.78052e-08
4.78053e-08
4.78054e-08
4.78055e-08
4.78056e-08
4.78057e-08
4.78058e-08
4.78059e-08
4.7806e-08
4.78061e-08
4.78062e-08
4.78064e-08
4.78065e-08
4.78067e-08
4.78068e-08
4.7807e-08
4.78071e-08
4.78073e-08
4.78075e-08
4.78077e-08
4.90393e-08
4.90391e-08
4.90389e-08
4.90387e-08
4.90385e-08
4.90384e-08
4.90382e-08
4.90381e-08
4.9038e-08
4.90378e-08
4.90377e-08
4.90376e-08
4.90375e-08
4.90374e-08
4.90373e-08
4.90372e-08
4.90371e-08
4.9037e-08
4.9037e-08
4.90369e-08
4.90368e-08
4.90368e-08
4.90367e-08
4.90367e-08
4.90366e-08
4.90366e-08
4.90366e-08
4.90366e-08
4.90366e-08
4.90366e-08
4.90366e-08
4.90366e-08
4.90366e-08
4.90366e-08
4.90367e-08
4.90367e-08
4.90368e-08
4.90368e-08
4.90369e-08
4.9037e-08
4.9037e-08
4.90371e-08
4.90372e-08
4.90373e-08
4.90374e-08
4.90375e-08
4.90376e-08
4.90377e-08
4.90378e-08
4.9038e-08
4.90381e-08
4.90382e-08
4.90384e-08
4.90385e-08
4.90387e-08
4.90388e-08
4.9039e-08
4.90392e-08
4.90394e-08
4.90396e-08
5.03413e-08
5.03411e-08
5.03409e-08
5.03407e-08
5.03406e-08
5.03404e-08
5.03403e-08
5.03401e-08
5.034e-08
5.03398e-08
5.03397e-08
5.03396e-08
5.03395e-08
5.03394e-08
5.03393e-08
5.03392e-08
5.03391e-08
5.0339e-08
5.03389e-08
5.03389e-08
5.03388e-08
5.03388e-08
5.03387e-08
5.03387e-08
5.03386e-08
5.03386e-08
5.03386e-08
5.03386e-08
5.03385e-08
5.03385e-08
5.03386e-08
5.03386e-08
5.03386e-08
5.03386e-08
5.03387e-08
5.03387e-08
5.03388e-08
5.03388e-08
5.03389e-08
5.03389e-08
5.0339e-08
5.03391e-08
5.03392e-08
5.03393e-08
5.03394e-08
5.03395e-08
5.03396e-08
5.03397e-08
5.03399e-08
5.034e-08
5.03401e-08
5.03403e-08
5.03404e-08
5.03405e-08
5.03407e-08
5.03409e-08
5.0341e-08
5.03412e-08
5.03414e-08
5.03416e-08
5.17186e-08
5.17184e-08
5.17182e-08
5.1718e-08
5.17178e-08
5.17177e-08
5.17175e-08
5.17174e-08
5.17172e-08
5.17171e-08
5.1717e-08
5.17168e-08
5.17167e-08
5.17166e-08
5.17165e-08
5.17164e-08
5.17163e-08
5.17163e-08
5.17162e-08
5.17161e-08
5.1716e-08
5.1716e-08
5.17159e-08
5.17159e-08
5.17158e-08
5.17158e-08
5.17158e-08
5.17158e-08
5.17158e-08
5.17158e-08
5.17158e-08
5.17158e-08
5.17158e-08
5.17158e-08
5.17159e-08
5.17159e-08
5.1716e-08
5.1716e-08
5.17161e-08
5.17162e-08
5.17163e-08
5.17163e-08
5.17164e-08
5.17165e-08
5.17166e-08
5.17167e-08
5.17169e-08
5.1717e-08
5.17171e-08
5.17172e-08
5.17174e-08
5.17175e-08
5.17177e-08
5.17178e-08
5.1718e-08
5.17181e-08
5.17183e-08
5.17185e-08
5.17187e-08
5.17189e-08
5.31766e-08
5.31764e-08
5.31762e-08
5.3176e-08
5.31758e-08
5.31757e-08
5.31755e-08
5.31754e-08
5.31752e-08
5.31751e-08
5.3175e-08
5.31748e-08
5.31747e-08
5.31746e-08
5.31745e-08
5.31744e-08
5.31743e-08
5.31742e-08
5.31741e-08
5.31741e-08
5.3174e-08
5.31739e-08
5.31739e-08
5.31738e-08
5.31738e-08
5.31738e-08
5.31737e-08
5.31737e-08
5.31737e-08
5.31737e-08
5.31737e-08
5.31737e-08
5.31738e-08
5.31738e-08
5.31738e-08
5.31739e-08
5.31739e-08
5.3174e-08
5.31741e-08
5.31741e-08
5.31742e-08
5.31743e-08
5.31744e-08
5.31745e-08
5.31746e-08
5.31747e-08
5.31748e-08
5.3175e-08
5.31751e-08
5.31752e-08
5.31754e-08
5.31755e-08
5.31757e-08
5.31758e-08
5.3176e-08
5.31762e-08
5.31763e-08
5.31765e-08
5.31767e-08
5.31769e-08
5.47214e-08
5.47212e-08
5.4721e-08
5.47208e-08
5.47206e-08
5.47204e-08
5.47203e-08
5.47201e-08
5.472e-08
5.47198e-08
5.47197e-08
5.47196e-08
5.47194e-08
5.47193e-08
5.47192e-08
5.47191e-08
5.4719e-08
5.47189e-08
5.47189e-08
5.47188e-08
5.47187e-08
5.47186e-08
5.47186e-08
5.47185e-08
5.47185e-08
5.47185e-08
5.47184e-08
5.47184e-08
5.47184e-08
5.47184e-08
5.47184e-08
5.47184e-08
5.47185e-08
5.47185e-08
5.47185e-08
5.47186e-08
5.47186e-08
5.47187e-08
5.47188e-08
5.47189e-08
5.47189e-08
5.4719e-08
5.47191e-08
5.47192e-08
5.47193e-08
5.47194e-08
5.47196e-08
5.47197e-08
5.47198e-08
5.472e-08
5.47201e-08
5.47203e-08
5.47204e-08
5.47206e-08
5.47207e-08
5.47209e-08
5.47211e-08
5.47213e-08
5.47215e-08
5.47217e-08
5.63595e-08
5.63592e-08
5.6359e-08
5.63588e-08
5.63586e-08
5.63585e-08
5.63583e-08
5.63581e-08
5.6358e-08
5.63578e-08
5.63577e-08
5.63576e-08
5.63575e-08
5.63573e-08
5.63572e-08
5.63571e-08
5.6357e-08
5.63569e-08
5.63569e-08
5.63568e-08
5.63567e-08
5.63566e-08
5.63566e-08
5.63565e-08
5.63565e-08
5.63565e-08
5.63564e-08
5.63564e-08
5.63564e-08
5.63564e-08
5.63564e-08
5.63564e-08
5.63565e-08
5.63565e-08
5.63565e-08
5.63566e-08
5.63566e-08
5.63567e-08
5.63568e-08
5.63569e-08
5.63569e-08
5.6357e-08
5.63571e-08
5.63572e-08
5.63574e-08
5.63575e-08
5.63576e-08
5.63577e-08
5.63579e-08
5.6358e-08
5.63581e-08
5.63583e-08
5.63585e-08
5.63586e-08
5.63588e-08
5.6359e-08
5.63592e-08
5.63594e-08
5.63596e-08
5.63598e-08
5.8098e-08
5.80978e-08
5.80975e-08
5.80973e-08
5.80971e-08
5.8097e-08
5.80968e-08
5.80966e-08
5.80965e-08
5.80963e-08
5.80962e-08
5.80961e-08
5.80959e-08
5.80958e-08
5.80957e-08
5.80956e-08
5.80955e-08
5.80954e-08
5.80953e-08
5.80952e-08
5.80952e-08
5.80951e-08
5.8095e-08
5.8095e-08
5.80949e-08
5.80949e-08
5.80949e-08
5.80949e-08
5.80949e-08
5.80949e-08
5.80949e-08
5.80949e-08
5.80949e-08
5.80949e-08
5.8095e-08
5.8095e-08
5.80951e-08
5.80952e-08
5.80952e-08
5.80953e-08
5.80954e-08
5.80955e-08
5.80956e-08
5.80957e-08
5.80958e-08
5.80959e-08
5.80961e-08
5.80962e-08
5.80963e-08
5.80965e-08
5.80966e-08
5.80968e-08
5.8097e-08
5.80971e-08
5.80973e-08
5.80975e-08
5.80977e-08
5.80979e-08
5.80981e-08
5.80983e-08
5.99448e-08
5.99445e-08
5.99443e-08
5.99441e-08
5.99439e-08
5.99437e-08
5.99435e-08
5.99434e-08
5.99432e-08
5.99431e-08
5.99429e-08
5.99428e-08
5.99427e-08
5.99425e-08
5.99424e-08
5.99423e-08
5.99422e-08
5.99421e-08
5.9942e-08
5.99419e-08
5.99419e-08
5.99418e-08
5.99417e-08
5.99417e-08
5.99416e-08
5.99416e-08
5.99416e-08
5.99416e-08
5.99416e-08
5.99416e-08
5.99416e-08
5.99416e-08
5.99416e-08
5.99416e-08
5.99417e-08
5.99417e-08
5.99418e-08
5.99419e-08
5.99419e-08
5.9942e-08
5.99421e-08
5.99422e-08
5.99423e-08
5.99424e-08
5.99425e-08
5.99427e-08
5.99428e-08
5.99429e-08
5.99431e-08
5.99432e-08
5.99434e-08
5.99435e-08
5.99437e-08
5.99439e-08
5.99441e-08
5.99443e-08
5.99445e-08
5.99447e-08
5.99449e-08
5.99451e-08
6.19084e-08
6.19081e-08
6.19079e-08
6.19077e-08
6.19075e-08
6.19073e-08
6.19071e-08
6.19069e-08
6.19068e-08
6.19066e-08
6.19065e-08
6.19064e-08
6.19062e-08
6.19061e-08
6.1906e-08
6.19059e-08
6.19058e-08
6.19057e-08
6.19056e-08
6.19055e-08
6.19054e-08
6.19053e-08
6.19053e-08
6.19052e-08
6.19052e-08
6.19051e-08
6.19051e-08
6.19051e-08
6.19051e-08
6.19051e-08
6.19051e-08
6.19051e-08
6.19051e-08
6.19052e-08
6.19052e-08
6.19053e-08
6.19053e-08
6.19054e-08
6.19055e-08
6.19056e-08
6.19057e-08
6.19058e-08
6.19059e-08
6.1906e-08
6.19061e-08
6.19062e-08
6.19064e-08
6.19065e-08
6.19066e-08
6.19068e-08
6.1907e-08
6.19071e-08
6.19073e-08
6.19075e-08
6.19077e-08
6.19079e-08
6.19081e-08
6.19083e-08
6.19085e-08
6.19088e-08
6.39982e-08
6.3998e-08
6.39977e-08
6.39975e-08
6.39973e-08
6.39971e-08
6.39969e-08
6.39967e-08
6.39966e-08
6.39964e-08
6.39963e-08
6.39961e-08
6.3996e-08
6.39959e-08
6.39957e-08
6.39956e-08
6.39955e-08
6.39954e-08
6.39953e-08
6.39952e-08
6.39951e-08
6.39951e-08
6.3995e-08
6.3995e-08
6.39949e-08
6.39949e-08
6.39948e-08
6.39948e-08
6.39948e-08
6.39948e-08
6.39948e-08
6.39948e-08
6.39949e-08
6.39949e-08
6.3995e-08
6.3995e-08
6.39951e-08
6.39951e-08
6.39952e-08
6.39953e-08
6.39954e-08
6.39955e-08
6.39956e-08
6.39957e-08
6.39959e-08
6.3996e-08
6.39961e-08
6.39963e-08
6.39964e-08
6.39966e-08
6.39967e-08
6.39969e-08
6.39971e-08
6.39973e-08
6.39975e-08
6.39977e-08
6.39979e-08
6.39981e-08
6.39983e-08
6.39986e-08
6.62246e-08
6.62243e-08
6.6224e-08
6.62238e-08
6.62236e-08
6.62234e-08
6.62232e-08
6.6223e-08
6.62228e-08
6.62227e-08
6.62225e-08
6.62224e-08
6.62222e-08
6.62221e-08
6.6222e-08
6.62219e-08
6.62218e-08
6.62217e-08
6.62216e-08
6.62215e-08
6.62214e-08
6.62213e-08
6.62212e-08
6.62212e-08
6.62211e-08
6.62211e-08
6.62211e-08
6.62211e-08
6.6221e-08
6.6221e-08
6.62211e-08
6.62211e-08
6.62211e-08
6.62211e-08
6.62212e-08
6.62212e-08
6.62213e-08
6.62214e-08
6.62215e-08
6.62216e-08
6.62217e-08
6.62218e-08
6.62219e-08
6.6222e-08
6.62221e-08
6.62223e-08
6.62224e-08
6.62225e-08
6.62227e-08
6.62229e-08
6.6223e-08
6.62232e-08
6.62234e-08
6.62236e-08
6.62238e-08
6.6224e-08
6.62242e-08
6.62244e-08
6.62247e-08
6.62249e-08
6.85987e-08
6.85984e-08
6.85982e-08
6.85979e-08
6.85977e-08
6.85975e-08
6.85973e-08
6.85971e-08
6.8597e-08
6.85968e-08
6.85966e-08
6.85965e-08
6.85963e-08
6.85962e-08
6.85961e-08
6.85959e-08
6.85958e-08
6.85957e-08
6.85956e-08
6.85955e-08
6.85954e-08
6.85954e-08
6.85953e-08
6.85952e-08
6.85952e-08
6.85952e-08
6.85951e-08
6.85951e-08
6.85951e-08
6.85951e-08
6.85951e-08
6.85951e-08
6.85952e-08
6.85952e-08
6.85952e-08
6.85953e-08
6.85954e-08
6.85954e-08
6.85955e-08
6.85956e-08
6.85957e-08
6.85958e-08
6.85959e-08
6.85961e-08
6.85962e-08
6.85963e-08
6.85965e-08
6.85966e-08
6.85968e-08
6.8597e-08
6.85971e-08
6.85973e-08
6.85975e-08
6.85977e-08
6.85979e-08
6.85981e-08
6.85983e-08
6.85986e-08
6.85988e-08
6.85991e-08
7.11331e-08
7.11328e-08
7.11326e-08
7.11323e-08
7.11321e-08
7.11319e-08
7.11317e-08
7.11315e-08
7.11313e-08
7.11312e-08
7.1131e-08
7.11308e-08
7.11307e-08
7.11306e-08
7.11304e-08
7.11303e-08
7.11302e-08
7.11301e-08
7.113e-08
7.11299e-08
7.11298e-08
7.11297e-08
7.11296e-08
7.11296e-08
7.11295e-08
7.11295e-08
7.11295e-08
7.11294e-08
7.11294e-08
7.11294e-08
7.11294e-08
7.11295e-08
7.11295e-08
7.11295e-08
7.11296e-08
7.11296e-08
7.11297e-08
7.11298e-08
7.11299e-08
7.113e-08
7.11301e-08
7.11302e-08
7.11303e-08
7.11304e-08
7.11306e-08
7.11307e-08
7.11309e-08
7.1131e-08
7.11312e-08
7.11313e-08
7.11315e-08
7.11317e-08
7.11319e-08
7.11321e-08
7.11323e-08
7.11325e-08
7.11328e-08
7.1133e-08
7.11333e-08
7.11335e-08
7.38416e-08
7.38413e-08
7.3841e-08
7.38408e-08
7.38405e-08
7.38403e-08
7.38401e-08
7.38399e-08
7.38397e-08
7.38395e-08
7.38394e-08
7.38392e-08
7.38391e-08
7.38389e-08
7.38388e-08
7.38386e-08
7.38385e-08
7.38384e-08
7.38383e-08
7.38382e-08
7.38381e-08
7.3838e-08
7.3838e-08
7.38379e-08
7.38379e-08
7.38378e-08
7.38378e-08
7.38378e-08
7.38377e-08
7.38377e-08
7.38378e-08
7.38378e-08
7.38378e-08
7.38379e-08
7.38379e-08
7.3838e-08
7.3838e-08
7.38381e-08
7.38382e-08
7.38383e-08
7.38384e-08
7.38385e-08
7.38387e-08
7.38388e-08
7.38389e-08
7.38391e-08
7.38392e-08
7.38394e-08
7.38396e-08
7.38397e-08
7.38399e-08
7.38401e-08
7.38403e-08
7.38405e-08
7.38407e-08
7.3841e-08
7.38412e-08
7.38414e-08
7.38417e-08
7.3842e-08
7.67392e-08
7.67389e-08
7.67386e-08
7.67383e-08
7.67381e-08
7.67379e-08
7.67376e-08
7.67374e-08
7.67373e-08
7.67371e-08
7.67369e-08
7.67367e-08
7.67366e-08
7.67364e-08
7.67363e-08
7.67362e-08
7.6736e-08
7.67359e-08
7.67358e-08
7.67357e-08
7.67356e-08
7.67355e-08
7.67354e-08
7.67354e-08
7.67353e-08
7.67353e-08
7.67353e-08
7.67352e-08
7.67352e-08
7.67352e-08
7.67352e-08
7.67353e-08
7.67353e-08
7.67353e-08
7.67354e-08
7.67354e-08
7.67355e-08
7.67356e-08
7.67357e-08
7.67358e-08
7.67359e-08
7.6736e-08
7.67362e-08
7.67363e-08
7.67364e-08
7.67366e-08
7.67367e-08
7.67369e-08
7.67371e-08
7.67373e-08
7.67375e-08
7.67377e-08
7.67379e-08
7.67381e-08
7.67383e-08
7.67385e-08
7.67388e-08
7.6739e-08
7.67393e-08
7.67396e-08
7.98427e-08
7.98423e-08
7.9842e-08
7.98418e-08
7.98415e-08
7.98413e-08
7.98411e-08
7.98409e-08
7.98407e-08
7.98405e-08
7.98403e-08
7.98401e-08
7.984e-08
7.98398e-08
7.98397e-08
7.98395e-08
7.98394e-08
7.98393e-08
7.98392e-08
7.98391e-08
7.9839e-08
7.98389e-08
7.98388e-08
7.98388e-08
7.98387e-08
7.98387e-08
7.98386e-08
7.98386e-08
7.98386e-08
7.98386e-08
7.98386e-08
7.98386e-08
7.98387e-08
7.98387e-08
7.98388e-08
7.98388e-08
7.98389e-08
7.9839e-08
7.98391e-08
7.98392e-08
7.98393e-08
7.98394e-08
7.98395e-08
7.98397e-08
7.98398e-08
7.984e-08
7.98402e-08
7.98403e-08
7.98405e-08
7.98407e-08
7.98409e-08
7.98411e-08
7.98413e-08
7.98415e-08
7.98418e-08
7.9842e-08
7.98422e-08
7.98425e-08
7.98428e-08
7.98431e-08
8.31706e-08
8.31702e-08
8.31699e-08
8.31697e-08
8.31694e-08
8.31692e-08
8.3169e-08
8.31687e-08
8.31685e-08
8.31683e-08
8.31682e-08
8.3168e-08
8.31678e-08
8.31677e-08
8.31675e-08
8.31674e-08
8.31672e-08
8.31671e-08
8.3167e-08
8.31669e-08
8.31668e-08
8.31667e-08
8.31666e-08
8.31665e-08
8.31665e-08
8.31664e-08
8.31664e-08
8.31664e-08
8.31664e-08
8.31664e-08
8.31664e-08
8.31664e-08
8.31664e-08
8.31665e-08
8.31665e-08
8.31666e-08
8.31667e-08
8.31668e-08
8.31669e-08
8.3167e-08
8.31671e-08
8.31672e-08
8.31674e-08
8.31675e-08
8.31677e-08
8.31678e-08
8.3168e-08
8.31682e-08
8.31684e-08
8.31686e-08
8.31688e-08
8.3169e-08
8.31692e-08
8.31694e-08
8.31696e-08
8.31699e-08
8.31702e-08
8.31704e-08
8.31707e-08
8.3171e-08
8.67435e-08
8.67431e-08
8.67428e-08
8.67425e-08
8.67423e-08
8.6742e-08
8.67418e-08
8.67416e-08
8.67414e-08
8.67412e-08
8.6741e-08
8.67408e-08
8.67406e-08
8.67405e-08
8.67403e-08
8.67401e-08
8.674e-08
8.67399e-08
8.67398e-08
8.67396e-08
8.67395e-08
8.67395e-08
8.67394e-08
8.67393e-08
8.67393e-08
8.67392e-08
8.67392e-08
8.67391e-08
8.67391e-08
8.67391e-08
8.67391e-08
8.67392e-08
8.67392e-08
8.67392e-08
8.67393e-08
8.67394e-08
8.67395e-08
8.67395e-08
8.67396e-08
8.67398e-08
8.67399e-08
8.674e-08
8.67402e-08
8.67403e-08
8.67405e-08
8.67406e-08
8.67408e-08
8.6741e-08
8.67412e-08
8.67414e-08
8.67416e-08
8.67418e-08
8.6742e-08
8.67423e-08
8.67425e-08
8.67428e-08
8.6743e-08
8.67433e-08
8.67436e-08
8.67439e-08
9.05841e-08
9.05838e-08
9.05835e-08
9.05832e-08
9.05829e-08
9.05827e-08
9.05824e-08
9.05822e-08
9.0582e-08
9.05818e-08
9.05816e-08
9.05814e-08
9.05812e-08
9.0581e-08
9.05809e-08
9.05807e-08
9.05806e-08
9.05804e-08
9.05803e-08
9.05802e-08
9.05801e-08
9.058e-08
9.05799e-08
9.05798e-08
9.05798e-08
9.05797e-08
9.05797e-08
9.05797e-08
9.05797e-08
9.05797e-08
9.05797e-08
9.05797e-08
9.05797e-08
9.05798e-08
9.05798e-08
9.05799e-08
9.058e-08
9.05801e-08
9.05802e-08
9.05803e-08
9.05804e-08
9.05806e-08
9.05807e-08
9.05809e-08
9.0581e-08
9.05812e-08
9.05814e-08
9.05816e-08
9.05818e-08
9.0582e-08
9.05822e-08
9.05824e-08
9.05827e-08
9.05829e-08
9.05831e-08
9.05834e-08
9.05837e-08
9.0584e-08
9.05843e-08
9.05846e-08
9.4718e-08
9.47176e-08
9.47173e-08
9.4717e-08
9.47167e-08
9.47164e-08
9.47162e-08
9.47159e-08
9.47157e-08
9.47155e-08
9.47153e-08
9.47151e-08
9.47149e-08
9.47147e-08
9.47146e-08
9.47144e-08
9.47143e-08
9.47141e-08
9.4714e-08
9.47139e-08
9.47138e-08
9.47137e-08
9.47136e-08
9.47135e-08
9.47135e-08
9.47134e-08
9.47134e-08
9.47133e-08
9.47133e-08
9.47133e-08
9.47133e-08
9.47134e-08
9.47134e-08
9.47135e-08
9.47135e-08
9.47136e-08
9.47137e-08
9.47138e-08
9.47139e-08
9.4714e-08
9.47141e-08
9.47143e-08
9.47144e-08
9.47146e-08
9.47148e-08
9.47149e-08
9.47151e-08
9.47153e-08
9.47155e-08
9.47157e-08
9.4716e-08
9.47162e-08
9.47164e-08
9.47167e-08
9.47169e-08
9.47172e-08
9.47175e-08
9.47178e-08
9.47181e-08
9.47185e-08
9.91732e-08
9.91728e-08
9.91725e-08
9.91722e-08
9.91719e-08
9.91716e-08
9.91713e-08
9.91711e-08
9.91709e-08
9.91706e-08
9.91704e-08
9.91702e-08
9.917e-08
9.91699e-08
9.91697e-08
9.91695e-08
9.91694e-08
9.91692e-08
9.91691e-08
9.9169e-08
9.91689e-08
9.91688e-08
9.91687e-08
9.91686e-08
9.91685e-08
9.91685e-08
9.91684e-08
9.91684e-08
9.91684e-08
9.91684e-08
9.91684e-08
9.91684e-08
9.91685e-08
9.91685e-08
9.91686e-08
9.91687e-08
9.91688e-08
9.91689e-08
9.9169e-08
9.91691e-08
9.91692e-08
9.91694e-08
9.91695e-08
9.91697e-08
9.91699e-08
9.91701e-08
9.91703e-08
9.91705e-08
9.91707e-08
9.91709e-08
9.91711e-08
9.91714e-08
9.91716e-08
9.91719e-08
9.91721e-08
9.91724e-08
9.91727e-08
9.9173e-08
9.91734e-08
9.91737e-08
1.03981e-07
1.03981e-07
1.03981e-07
1.0398e-07
1.0398e-07
1.0398e-07
1.03979e-07
1.03979e-07
1.03979e-07
1.03979e-07
1.03978e-07
1.03978e-07
1.03978e-07
1.03978e-07
1.03978e-07
1.03978e-07
1.03977e-07
1.03977e-07
1.03977e-07
1.03977e-07
1.03977e-07
1.03977e-07
1.03977e-07
1.03977e-07
1.03977e-07
1.03976e-07
1.03976e-07
1.03976e-07
1.03976e-07
1.03976e-07
1.03976e-07
1.03976e-07
1.03976e-07
1.03977e-07
1.03977e-07
1.03977e-07
1.03977e-07
1.03977e-07
1.03977e-07
1.03977e-07
1.03977e-07
1.03977e-07
1.03978e-07
1.03978e-07
1.03978e-07
1.03978e-07
1.03978e-07
1.03979e-07
1.03979e-07
1.03979e-07
1.03979e-07
1.03979e-07
1.0398e-07
1.0398e-07
1.0398e-07
1.03981e-07
1.03981e-07
1.03981e-07
1.03982e-07
1.03982e-07
1.09178e-07
1.09177e-07
1.09177e-07
1.09177e-07
1.09176e-07
1.09176e-07
1.09176e-07
1.09175e-07
1.09175e-07
1.09175e-07
1.09175e-07
1.09175e-07
1.09174e-07
1.09174e-07
1.09174e-07
1.09174e-07
1.09174e-07
1.09173e-07
1.09173e-07
1.09173e-07
1.09173e-07
1.09173e-07
1.09173e-07
1.09173e-07
1.09173e-07
1.09173e-07
1.09173e-07
1.09173e-07
1.09173e-07
1.09173e-07
1.09173e-07
1.09173e-07
1.09173e-07
1.09173e-07
1.09173e-07
1.09173e-07
1.09173e-07
1.09173e-07
1.09173e-07
1.09173e-07
1.09173e-07
1.09174e-07
1.09174e-07
1.09174e-07
1.09174e-07
1.09174e-07
1.09175e-07
1.09175e-07
1.09175e-07
1.09175e-07
1.09175e-07
1.09176e-07
1.09176e-07
1.09176e-07
1.09177e-07
1.09177e-07
1.09177e-07
1.09177e-07
1.09178e-07
1.09178e-07
1.14802e-07
1.14801e-07
1.14801e-07
1.148e-07
1.148e-07
1.148e-07
1.148e-07
1.14799e-07
1.14799e-07
1.14799e-07
1.14799e-07
1.14798e-07
1.14798e-07
1.14798e-07
1.14798e-07
1.14798e-07
1.14797e-07
1.14797e-07
1.14797e-07
1.14797e-07
1.14797e-07
1.14797e-07
1.14797e-07
1.14797e-07
1.14796e-07
1.14796e-07
1.14796e-07
1.14796e-07
1.14796e-07
1.14796e-07
1.14796e-07
1.14796e-07
1.14796e-07
1.14796e-07
1.14797e-07
1.14797e-07
1.14797e-07
1.14797e-07
1.14797e-07
1.14797e-07
1.14797e-07
1.14797e-07
1.14798e-07
1.14798e-07
1.14798e-07
1.14798e-07
1.14798e-07
1.14799e-07
1.14799e-07
1.14799e-07
1.14799e-07
1.148e-07
1.148e-07
1.148e-07
1.148e-07
1.14801e-07
1.14801e-07
1.14801e-07
1.14802e-07
1.14802e-07
1.20897e-07
1.20897e-07
1.20897e-07
1.20896e-07
1.20896e-07
1.20896e-07
1.20895e-07
1.20895e-07
1.20895e-07
1.20894e-07
1.20894e-07
1.20894e-07
1.20894e-07
1.20894e-07
1.20893e-07
1.20893e-07
1.20893e-07
1.20893e-07
1.20893e-07
1.20893e-07
1.20892e-07
1.20892e-07
1.20892e-07
1.20892e-07
1.20892e-07
1.20892e-07
1.20892e-07
1.20892e-07
1.20892e-07
1.20892e-07
1.20892e-07
1.20892e-07
1.20892e-07
1.20892e-07
1.20892e-07
1.20892e-07
1.20892e-07
1.20892e-07
1.20893e-07
1.20893e-07
1.20893e-07
1.20893e-07
1.20893e-07
1.20893e-07
1.20894e-07
1.20894e-07
1.20894e-07
1.20894e-07
1.20894e-07
1.20895e-07
1.20895e-07
1.20895e-07
1.20896e-07
1.20896e-07
1.20896e-07
1.20897e-07
1.20897e-07
1.20897e-07
1.20898e-07
1.20898e-07
1.27515e-07
1.27514e-07
1.27514e-07
1.27514e-07
1.27513e-07
1.27513e-07
1.27513e-07
1.27512e-07
1.27512e-07
1.27512e-07
1.27511e-07
1.27511e-07
1.27511e-07
1.27511e-07
1.27511e-07
1.2751e-07
1.2751e-07
1.2751e-07
1.2751e-07
1.2751e-07
1.2751e-07
1.27509e-07
1.27509e-07
1.27509e-07
1.27509e-07
1.27509e-07
1.27509e-07
1.27509e-07
1.27509e-07
1.27509e-07
1.27509e-07
1.27509e-07
1.27509e-07
1.27509e-07
1.27509e-07
1.27509e-07
1.27509e-07
1.2751e-07
1.2751e-07
1.2751e-07
1.2751e-07
1.2751e-07
1.2751e-07
1.27511e-07
1.27511e-07
1.27511e-07
1.27511e-07
1.27511e-07
1.27512e-07
1.27512e-07
1.27512e-07
1.27513e-07
1.27513e-07
1.27513e-07
1.27513e-07
1.27514e-07
1.27514e-07
1.27515e-07
1.27515e-07
1.27515e-07
1.3471e-07
1.34709e-07
1.34709e-07
1.34708e-07
1.34708e-07
1.34708e-07
1.34707e-07
1.34707e-07
1.34707e-07
1.34706e-07
1.34706e-07
1.34706e-07
1.34706e-07
1.34706e-07
1.34705e-07
1.34705e-07
1.34705e-07
1.34705e-07
1.34705e-07
1.34704e-07
1.34704e-07
1.34704e-07
1.34704e-07
1.34704e-07
1.34704e-07
1.34704e-07
1.34704e-07
1.34704e-07
1.34704e-07
1.34704e-07
1.34704e-07
1.34704e-07
1.34704e-07
1.34704e-07
1.34704e-07
1.34704e-07
1.34704e-07
1.34704e-07
1.34704e-07
1.34705e-07
1.34705e-07
1.34705e-07
1.34705e-07
1.34705e-07
1.34706e-07
1.34706e-07
1.34706e-07
1.34706e-07
1.34707e-07