/*--------------------------------*- C++ -*----------------------------------*\
| =========                 |                                                 |
| \\      /  F ield         | foam-extend: Open Source CFD                    |
|  \\    /   O peration     | Version:     4.0                                |
|   \\  /    A nd           | Web:         http://www.foam-extend.org         |
|    \\/     M anipulation  |                                                 |
\*---------------------------------------------------------------------------*/
FoamFile
{
    version     2.0;
    format      ascii;
    class       volScalarField;
    location    "17";
    object      p;
}
// * * * * * * * * * * * * * * * * * * * * * * * * * * * * * * * * * * * * * //

dimensions      [0 2 -2 0 0 0 0];

internalField   nonuniform List<scalar> 
6960
(
-6.42055e-12
-9.63382e-12
-9.37166e-12
-9.27803e-12
-9.06903e-12
-8.98657e-12
-8.92105e-12
-8.93197e-12
-8.96198e-12
-9.03058e-12
-9.09919e-12
-9.15056e-12
-9.16349e-12
-9.16e-12
-9.15721e-12
-9.15393e-12
-9.13932e-12
-9.12556e-12
-9.13016e-12
-9.14451e-12
-9.14121e-12
-9.11571e-12
-9.09032e-12
-9.0754e-12
-9.05416e-12
-9.01867e-12
-8.9916e-12
-8.99316e-12
-9.00837e-12
-9.01272e-12
-9.01184e-12
-9.02666e-12
-9.05094e-12
-9.05772e-12
-9.04383e-12
-9.03452e-12
-9.03959e-12
-9.03878e-12
-9.02e-12
-9.00284e-12
-9.00507e-12
-9.01381e-12
-9.00896e-12
-8.99862e-12
-9.00192e-12
-9.0163e-12
-9.0219e-12
-9.01841e-12
-9.02213e-12
-9.04032e-12
-9.05761e-12
-9.06876e-12
-9.07729e-12
-9.09456e-12
-9.10186e-12
-9.10657e-12
-9.09013e-12
-9.09557e-12
-9.07309e-12
-9.10407e-12
-9.08509e-12
-9.63218e-12
-9.37125e-12
-9.27816e-12
-9.0686e-12
-8.98604e-12
-8.92061e-12
-8.93176e-12
-8.962e-12
-9.03078e-12
-9.09947e-12
-9.15082e-12
-9.16366e-12
-9.16003e-12
-9.1571e-12
-9.15374e-12
-9.13913e-12
-9.12542e-12
-9.13009e-12
-9.14451e-12
-9.14128e-12
-9.11581e-12
-9.09042e-12
-9.07546e-12
-9.05419e-12
-9.01869e-12
-8.99161e-12
-8.99316e-12
-9.00838e-12
-9.01276e-12
-9.01191e-12
-9.02673e-12
-9.05101e-12
-9.0578e-12
-9.04391e-12
-9.03458e-12
-9.03963e-12
-9.03881e-12
-9.02003e-12
-9.00286e-12
-9.00508e-12
-9.01381e-12
-9.00896e-12
-8.99863e-12
-9.00193e-12
-9.01631e-12
-9.02191e-12
-9.01842e-12
-9.0221e-12
-9.04026e-12
-9.0575e-12
-9.06865e-12
-9.07716e-12
-9.09446e-12
-9.10181e-12
-9.10659e-12
-9.09019e-12
-9.09568e-12
-9.07316e-12
-9.10407e-12
-9.51241e-12
-9.63013e-12
-9.37204e-12
-9.27947e-12
-9.06909e-12
-8.98609e-12
-8.92033e-12
-8.93141e-12
-8.9617e-12
-9.03064e-12
-9.09948e-12
-9.15096e-12
-9.16385e-12
-9.16018e-12
-9.15714e-12
-9.15367e-12
-9.13901e-12
-9.12531e-12
-9.13002e-12
-9.14452e-12
-9.14141e-12
-9.11606e-12
-9.09071e-12
-9.07572e-12
-9.05441e-12
-9.01886e-12
-8.99171e-12
-8.99318e-12
-9.00835e-12
-9.01274e-12
-9.01192e-12
-9.02675e-12
-9.05104e-12
-9.05786e-12
-9.04403e-12
-9.03472e-12
-9.03976e-12
-9.03894e-12
-9.02018e-12
-9.00301e-12
-9.00518e-12
-9.01387e-12
-9.00902e-12
-8.99869e-12
-9.00196e-12
-9.01632e-12
-9.02191e-12
-9.01842e-12
-9.02207e-12
-9.04017e-12
-9.05737e-12
-9.0685e-12
-9.07701e-12
-9.09435e-12
-9.10173e-12
-9.10664e-12
-9.09027e-12
-9.09583e-12
-9.07324e-12
-9.10405e-12
-9.32693e-12
-9.62844e-12
-9.37392e-12
-9.28187e-12
-9.07051e-12
-8.98678e-12
-8.92029e-12
-8.93098e-12
-8.96112e-12
-9.03017e-12
-9.09921e-12
-9.15094e-12
-9.16403e-12
-9.16042e-12
-9.15729e-12
-9.15369e-12
-9.13896e-12
-9.12524e-12
-9.12998e-12
-9.14456e-12
-9.14161e-12
-9.11644e-12
-9.09118e-12
-9.07617e-12
-9.05479e-12
-9.01917e-12
-8.99192e-12
-8.99323e-12
-9.00828e-12
-9.01265e-12
-9.01186e-12
-9.02671e-12
-9.05102e-12
-9.05792e-12
-9.04419e-12
-9.03494e-12
-9.03997e-12
-9.03916e-12
-9.02043e-12
-9.00326e-12
-9.00537e-12
-9.014e-12
-9.00913e-12
-8.99881e-12
-9.00204e-12
-9.01635e-12
-9.02192e-12
-9.01843e-12
-9.02202e-12
-9.04003e-12
-9.05713e-12
-9.06825e-12
-9.07674e-12
-9.09415e-12
-9.1016e-12
-9.10669e-12
-9.09038e-12
-9.09602e-12
-9.07332e-12
-9.10401e-12
-9.25067e-12
-9.62731e-12
-9.37673e-12
-9.28536e-12
-9.07289e-12
-8.98814e-12
-8.92055e-12
-8.93052e-12
-8.9603e-12
-9.02938e-12
-9.09865e-12
-9.15075e-12
-9.16418e-12
-9.16074e-12
-9.15755e-12
-9.1538e-12
-9.13896e-12
-9.12521e-12
-9.12994e-12
-9.1446e-12
-9.14185e-12
-9.11694e-12
-9.09183e-12
-9.0768e-12
-9.05535e-12
-9.01963e-12
-8.99223e-12
-8.9933e-12
-9.00816e-12
-9.01249e-12
-9.01174e-12
-9.02661e-12
-9.05094e-12
-9.05795e-12
-9.04439e-12
-9.03523e-12
-9.04026e-12
-9.03945e-12
-9.02078e-12
-9.00362e-12
-9.00565e-12
-9.01419e-12
-9.00931e-12
-8.999e-12
-9.00219e-12
-9.01643e-12
-9.02196e-12
-9.01846e-12
-9.02197e-12
-9.03985e-12
-9.05682e-12
-9.06791e-12
-9.0764e-12
-9.09388e-12
-9.10144e-12
-9.10675e-12
-9.09053e-12
-9.09626e-12
-9.07342e-12
-9.10398e-12
-9.2614e-12
-9.62658e-12
-9.3804e-12
-9.28988e-12
-9.07622e-12
-8.99021e-12
-8.92116e-12
-8.93009e-12
-8.95929e-12
-9.02831e-12
-9.09783e-12
-9.15039e-12
-9.16429e-12
-9.16113e-12
-9.15792e-12
-9.154e-12
-9.13902e-12
-9.12521e-12
-9.12992e-12
-9.14464e-12
-9.14214e-12
-9.11756e-12
-9.09265e-12
-9.07762e-12
-9.05607e-12
-9.02026e-12
-8.99266e-12
-8.99342e-12
-9.00801e-12
-9.01226e-12
-9.01156e-12
-9.02646e-12
-9.05081e-12
-9.05796e-12
-9.04462e-12
-9.03559e-12
-9.04063e-12
-9.03983e-12
-9.02123e-12
-9.0041e-12
-9.00603e-12
-9.01445e-12
-9.00955e-12
-8.99927e-12
-9.0024e-12
-9.01654e-12
-9.02202e-12
-9.01851e-12
-9.02193e-12
-9.03964e-12
-9.05645e-12
-9.0675e-12
-9.07598e-12
-9.09356e-12
-9.10123e-12
-9.10681e-12
-9.09071e-12
-9.09654e-12
-9.07355e-12
-9.10394e-12
-9.27593e-12
-9.62606e-12
-9.38489e-12
-9.29538e-12
-9.0805e-12
-8.99301e-12
-8.92215e-12
-8.92972e-12
-8.95813e-12
-9.02699e-12
-9.09675e-12
-9.14986e-12
-9.16436e-12
-9.16157e-12
-9.15839e-12
-9.15428e-12
-9.13915e-12
-9.12525e-12
-9.12991e-12
-9.14469e-12
-9.14247e-12
-9.11828e-12
-9.09363e-12
-9.07861e-12
-9.05697e-12
-9.02103e-12
-8.99321e-12
-8.9936e-12
-9.00784e-12
-9.01198e-12
-9.01132e-12
-9.02625e-12
-9.05062e-12
-9.05794e-12
-9.04487e-12
-9.03601e-12
-9.04106e-12
-9.04028e-12
-9.02178e-12
-9.00469e-12
-9.0065e-12
-9.01479e-12
-9.00987e-12
-8.99961e-12
-9.00268e-12
-9.01671e-12
-9.02212e-12
-9.0186e-12
-9.02189e-12
-9.0394e-12
-9.05601e-12
-9.06701e-12
-9.07548e-12
-9.09317e-12
-9.10098e-12
-9.10687e-12
-9.09091e-12
-9.09687e-12
-9.0737e-12
-9.1039e-12
-9.28146e-12
-9.62568e-12
-9.39013e-12
-9.30183e-12
-9.08571e-12
-8.99656e-12
-8.92358e-12
-8.92948e-12
-8.95686e-12
-9.02544e-12
-9.09542e-12
-9.14914e-12
-9.16437e-12
-9.16206e-12
-9.15894e-12
-9.15464e-12
-9.13934e-12
-9.12534e-12
-9.12992e-12
-9.14473e-12
-9.14282e-12
-9.1191e-12
-9.09477e-12
-9.07978e-12
-9.05803e-12
-9.02197e-12
-8.99389e-12
-8.99383e-12
-9.00766e-12
-9.01165e-12
-9.01104e-12
-9.02598e-12
-9.05037e-12
-9.05788e-12
-9.04514e-12
-9.0365e-12
-9.04156e-12
-9.0408e-12
-9.02242e-12
-9.00539e-12
-9.00707e-12
-9.01519e-12
-9.01025e-12
-9.00004e-12
-9.00304e-12
-9.01692e-12
-9.02225e-12
-9.01872e-12
-9.02187e-12
-9.03914e-12
-9.05551e-12
-9.06645e-12
-9.07491e-12
-9.09273e-12
-9.10069e-12
-9.10694e-12
-9.09114e-12
-9.09724e-12
-9.07387e-12
-9.10386e-12
-9.28452e-12
-9.62536e-12
-9.39602e-12
-9.30915e-12
-9.09185e-12
-9.00089e-12
-8.92549e-12
-8.92941e-12
-8.95553e-12
-9.02368e-12
-9.09385e-12
-9.14824e-12
-9.1643e-12
-9.16259e-12
-9.15957e-12
-9.15508e-12
-9.13959e-12
-9.12547e-12
-9.12994e-12
-9.14478e-12
-9.1432e-12
-9.12002e-12
-9.09605e-12
-9.0811e-12
-9.05925e-12
-9.02307e-12
-8.99471e-12
-8.99413e-12
-9.00747e-12
-9.01128e-12
-9.01072e-12
-9.02567e-12
-9.05007e-12
-9.05779e-12
-9.04543e-12
-9.03703e-12
-9.04212e-12
-9.04138e-12
-9.02315e-12
-9.00619e-12
-9.00773e-12
-9.01567e-12
-9.01071e-12
-9.00056e-12
-9.00347e-12
-9.01718e-12
-9.02242e-12
-9.01887e-12
-9.02186e-12
-9.03885e-12
-9.05494e-12
-9.06582e-12
-9.07427e-12
-9.09222e-12
-9.10035e-12
-9.107e-12
-9.0914e-12
-9.09765e-12
-9.07406e-12
-9.10383e-12
-9.28764e-12
-9.62503e-12
-9.4025e-12
-9.31729e-12
-9.09888e-12
-9.006e-12
-8.92791e-12
-8.92956e-12
-8.95417e-12
-9.02177e-12
-9.09206e-12
-9.14716e-12
-9.16415e-12
-9.16313e-12
-9.16027e-12
-9.15559e-12
-9.13991e-12
-9.12566e-12
-9.12999e-12
-9.14482e-12
-9.1436e-12
-9.12101e-12
-9.09747e-12
-9.08258e-12
-9.06063e-12
-9.02433e-12
-8.99567e-12
-8.99452e-12
-9.0073e-12
-9.01089e-12
-9.01036e-12
-9.02532e-12
-9.04971e-12
-9.05767e-12
-9.04574e-12
-9.03762e-12
-9.04274e-12
-9.04203e-12
-9.02397e-12
-9.00711e-12
-9.00849e-12
-9.01623e-12
-9.01124e-12
-9.00115e-12
-9.00398e-12
-9.0175e-12
-9.02263e-12
-9.01905e-12
-9.02187e-12
-9.03855e-12
-9.05434e-12
-9.06513e-12
-9.07356e-12
-9.09165e-12
-9.09996e-12
-9.10705e-12
-9.09167e-12
-9.0981e-12
-9.07428e-12
-9.10381e-12
-9.29062e-12
-9.62461e-12
-9.40947e-12
-9.32618e-12
-9.1068e-12
-9.01192e-12
-8.93089e-12
-8.92999e-12
-8.95285e-12
-9.01972e-12
-9.09007e-12
-9.14589e-12
-9.16391e-12
-9.16368e-12
-9.16103e-12
-9.15618e-12
-9.14029e-12
-9.1259e-12
-9.13006e-12
-9.14486e-12
-9.14401e-12
-9.12208e-12
-9.09901e-12
-9.08421e-12
-9.06216e-12
-9.02576e-12
-8.99678e-12
-8.99499e-12
-9.00714e-12
-9.01048e-12
-9.00997e-12
-9.02492e-12
-9.04929e-12
-9.0575e-12
-9.04605e-12
-9.03825e-12
-9.04341e-12
-9.04274e-12
-9.02488e-12
-9.00813e-12
-9.00934e-12
-9.01685e-12
-9.01185e-12
-9.00183e-12
-9.00456e-12
-9.01787e-12
-9.02287e-12
-9.01928e-12
-9.0219e-12
-9.03825e-12
-9.05369e-12
-9.06439e-12
-9.07279e-12
-9.09102e-12
-9.09952e-12
-9.10709e-12
-9.09195e-12
-9.09858e-12
-9.07452e-12
-9.10379e-12
-9.29315e-12
-9.62403e-12
-9.41685e-12
-9.33573e-12
-9.11555e-12
-9.01864e-12
-8.93445e-12
-8.93074e-12
-8.95161e-12
-9.01757e-12
-9.08788e-12
-9.14445e-12
-9.16358e-12
-9.16422e-12
-9.16184e-12
-9.15682e-12
-9.14074e-12
-9.12619e-12
-9.13016e-12
-9.1449e-12
-9.14444e-12
-9.12321e-12
-9.10067e-12
-9.08598e-12
-9.06385e-12
-9.02735e-12
-8.99804e-12
-8.99556e-12
-9.00701e-12
-9.01006e-12
-9.00957e-12
-9.02449e-12
-9.04883e-12
-9.0573e-12
-9.04637e-12
-9.03892e-12
-9.04413e-12
-9.04351e-12
-9.02587e-12
-9.00925e-12
-9.01029e-12
-9.01755e-12
-9.01253e-12
-9.0026e-12
-9.00522e-12
-9.01829e-12
-9.02317e-12
-9.01956e-12
-9.02197e-12
-9.03794e-12
-9.053e-12
-9.06359e-12
-9.07196e-12
-9.09033e-12
-9.09902e-12
-9.1071e-12
-9.09223e-12
-9.09908e-12
-9.07477e-12
-9.10378e-12
-9.29515e-12
-9.62321e-12
-9.42453e-12
-9.34588e-12
-9.12511e-12
-9.02616e-12
-8.93864e-12
-8.93186e-12
-8.95049e-12
-9.01537e-12
-9.08554e-12
-9.14284e-12
-9.16314e-12
-9.16475e-12
-9.16268e-12
-9.15753e-12
-9.14125e-12
-9.12654e-12
-9.13028e-12
-9.14494e-12
-9.14486e-12
-9.12439e-12
-9.10243e-12
-9.08787e-12
-9.06568e-12
-9.0291e-12
-8.99946e-12
-8.99624e-12
-9.00693e-12
-9.00965e-12
-9.00916e-12
-9.02402e-12
-9.04831e-12
-9.05706e-12
-9.04669e-12
-9.03963e-12
-9.04489e-12
-9.04432e-12
-9.02693e-12
-9.01047e-12
-9.01132e-12
-9.01833e-12
-9.01328e-12
-9.00345e-12
-9.00595e-12
-9.01878e-12
-9.0235e-12
-9.01988e-12
-9.02208e-12
-9.03764e-12
-9.05229e-12
-9.06276e-12
-9.07107e-12
-9.08958e-12
-9.09847e-12
-9.10708e-12
-9.09251e-12
-9.09962e-12
-9.07505e-12
-9.10377e-12
-9.29662e-12
-9.62206e-12
-9.43242e-12
-9.35652e-12
-9.13544e-12
-9.03448e-12
-8.94347e-12
-8.9334e-12
-8.94956e-12
-9.01316e-12
-9.08306e-12
-9.14106e-12
-9.16258e-12
-9.16524e-12
-9.16356e-12
-9.15829e-12
-9.14183e-12
-9.12695e-12
-9.13044e-12
-9.14497e-12
-9.14529e-12
-9.12562e-12
-9.10429e-12
-9.08988e-12
-9.06765e-12
-9.03102e-12
-9.00104e-12
-8.99703e-12
-9.0069e-12
-9.00925e-12
-9.00874e-12
-9.02354e-12
-9.04774e-12
-9.05678e-12
-9.047e-12
-9.04036e-12
-9.04568e-12
-9.04519e-12
-9.02808e-12
-9.01179e-12
-9.01245e-12
-9.01917e-12
-9.0141e-12
-9.00438e-12
-9.00677e-12
-9.01932e-12
-9.02389e-12
-9.02025e-12
-9.02222e-12
-9.03735e-12
-9.05156e-12
-9.06189e-12
-9.07014e-12
-9.08877e-12
-9.09786e-12
-9.10703e-12
-9.09279e-12
-9.10017e-12
-9.07534e-12
-9.10377e-12
-9.29753e-12
-9.62053e-12
-9.44043e-12
-9.36758e-12
-9.14648e-12
-9.0436e-12
-8.94899e-12
-8.93542e-12
-8.94886e-12
-9.01097e-12
-9.08046e-12
-9.13912e-12
-9.16192e-12
-9.1657e-12
-9.16445e-12
-9.15909e-12
-9.14248e-12
-9.12742e-12
-9.13062e-12
-9.145e-12
-9.14572e-12
-9.12688e-12
-9.10622e-12
-9.09201e-12
-9.06976e-12
-9.0331e-12
-9.00279e-12
-8.99796e-12
-9.00694e-12
-9.00888e-12
-9.00833e-12
-9.02303e-12
-9.04713e-12
-9.05646e-12
-9.04731e-12
-9.04112e-12
-9.04651e-12
-9.04609e-12
-9.02929e-12
-9.01319e-12
-9.01366e-12
-9.02009e-12
-9.015e-12
-9.00539e-12
-9.00765e-12
-9.01991e-12
-9.02433e-12
-9.02068e-12
-9.02241e-12
-9.03708e-12
-9.05082e-12
-9.061e-12
-9.06916e-12
-9.0879e-12
-9.0972e-12
-9.10694e-12
-9.09306e-12
-9.10073e-12
-9.07564e-12
-9.10377e-12
-9.29785e-12
-9.61854e-12
-9.44844e-12
-9.37896e-12
-9.15818e-12
-9.05348e-12
-8.9552e-12
-8.93794e-12
-8.94844e-12
-9.00886e-12
-9.07778e-12
-9.13704e-12
-9.16113e-12
-9.1661e-12
-9.16534e-12
-9.15994e-12
-9.14318e-12
-9.12795e-12
-9.13084e-12
-9.14502e-12
-9.14613e-12
-9.12817e-12
-9.10823e-12
-9.09423e-12
-9.07199e-12
-9.03533e-12
-9.00471e-12
-8.99901e-12
-9.00706e-12
-9.00856e-12
-9.00795e-12
-9.02252e-12
-9.04649e-12
-9.0561e-12
-9.04762e-12
-9.04189e-12
-9.04736e-12
-9.04703e-12
-9.03057e-12
-9.01469e-12
-9.01496e-12
-9.02108e-12
-9.01598e-12
-9.00649e-12
-9.00862e-12
-9.02057e-12
-9.02481e-12
-9.02116e-12
-9.02265e-12
-9.03684e-12
-9.05008e-12
-9.06009e-12
-9.06815e-12
-9.08699e-12
-9.09647e-12
-9.10681e-12
-9.0933e-12
-9.1013e-12
-9.07596e-12
-9.10378e-12
-9.29759e-12
-9.61602e-12
-9.45636e-12
-9.39055e-12
-9.17047e-12
-9.06412e-12
-8.96212e-12
-8.94102e-12
-8.94836e-12
-9.00686e-12
-9.07505e-12
-9.13483e-12
-9.16022e-12
-9.16645e-12
-9.16623e-12
-9.16082e-12
-9.14395e-12
-9.12855e-12
-9.13109e-12
-9.14504e-12
-9.14654e-12
-9.12948e-12
-9.11028e-12
-9.09654e-12
-9.07435e-12
-9.03773e-12
-9.00679e-12
-9.00021e-12
-9.00728e-12
-9.00829e-12
-9.00759e-12
-9.022e-12
-9.0458e-12
-9.0557e-12
-9.0479e-12
-9.04268e-12
-9.04824e-12
-9.04801e-12
-9.0319e-12
-9.01627e-12
-9.01634e-12
-9.02214e-12
-9.01702e-12
-9.00766e-12
-9.00966e-12
-9.02129e-12
-9.02536e-12
-9.02171e-12
-9.02295e-12
-9.03663e-12
-9.04935e-12
-9.05916e-12
-9.06711e-12
-9.08602e-12
-9.09567e-12
-9.10662e-12
-9.09352e-12
-9.10187e-12
-9.07628e-12
-9.1038e-12
-9.29672e-12
-9.6129e-12
-9.46408e-12
-9.40224e-12
-9.18329e-12
-9.07547e-12
-8.96977e-12
-8.94468e-12
-8.94866e-12
-9.00502e-12
-9.0723e-12
-9.1325e-12
-9.15919e-12
-9.16672e-12
-9.16711e-12
-9.16173e-12
-9.14477e-12
-9.12921e-12
-9.13138e-12
-9.14506e-12
-9.14693e-12
-9.13079e-12
-9.11239e-12
-9.09892e-12
-9.07681e-12
-9.04027e-12
-9.00905e-12
-9.00156e-12
-9.0076e-12
-9.00809e-12
-9.00727e-12
-9.02149e-12
-9.04509e-12
-9.05527e-12
-9.04817e-12
-9.04347e-12
-9.04913e-12
-9.04901e-12
-9.03329e-12
-9.01792e-12
-9.01779e-12
-9.02327e-12
-9.01814e-12
-9.00892e-12
-9.01077e-12
-9.02207e-12
-9.02596e-12
-9.02231e-12
-9.0233e-12
-9.03647e-12
-9.04864e-12
-9.05824e-12
-9.06604e-12
-9.085e-12
-9.09482e-12
-9.10638e-12
-9.09371e-12
-9.10244e-12
-9.07661e-12
-9.10382e-12
-9.29525e-12
-9.60914e-12
-9.4715e-12
-9.41394e-12
-9.19656e-12
-9.0875e-12
-8.97815e-12
-8.94898e-12
-8.94939e-12
-9.0034e-12
-9.06957e-12
-9.13008e-12
-9.15805e-12
-9.16691e-12
-9.16796e-12
-9.16266e-12
-9.14564e-12
-9.12993e-12
-9.13171e-12
-9.14507e-12
-9.14729e-12
-9.1321e-12
-9.11452e-12
-9.10137e-12
-9.07938e-12
-9.04297e-12
-9.01149e-12
-9.00307e-12
-9.00804e-12
-9.00797e-12
-9.00701e-12
-9.021e-12
-9.04436e-12
-9.0548e-12
-9.04843e-12
-9.04426e-12
-9.05002e-12
-9.05004e-12
-9.03474e-12
-9.01965e-12
-9.01933e-12
-9.02447e-12
-9.01932e-12
-9.01025e-12
-9.01196e-12
-9.0229e-12
-9.02662e-12
-9.02298e-12
-9.02372e-12
-9.03635e-12
-9.04796e-12
-9.05733e-12
-9.06496e-12
-9.08394e-12
-9.0939e-12
-9.10608e-12
-9.09386e-12
-9.103e-12
-9.07695e-12
-9.10384e-12
-9.29319e-12
-9.60467e-12
-9.4785e-12
-9.42553e-12
-9.21019e-12
-9.10017e-12
-8.98726e-12
-8.95393e-12
-8.9506e-12
-9.00203e-12
-9.0669e-12
-9.12759e-12
-9.1568e-12
-9.16702e-12
-9.16877e-12
-9.16361e-12
-9.14657e-12
-9.13071e-12
-9.13207e-12
-9.14509e-12
-9.14764e-12
-9.1334e-12
-9.11667e-12
-9.10387e-12
-9.08204e-12
-9.0458e-12
-9.01409e-12
-9.00475e-12
-9.00861e-12
-9.00795e-12
-9.00681e-12
-9.02052e-12
-9.04361e-12
-9.05429e-12
-9.04866e-12
-9.04505e-12
-9.05092e-12
-9.05107e-12
-9.03622e-12
-9.02145e-12
-9.02093e-12
-9.02573e-12
-9.02058e-12
-9.01166e-12
-9.01322e-12
-9.0238e-12
-9.02733e-12
-9.02372e-12
-9.02421e-12
-9.03629e-12
-9.04732e-12
-9.05643e-12
-9.06387e-12
-9.08284e-12
-9.09292e-12
-9.10571e-12
-9.09396e-12
-9.10353e-12
-9.07728e-12
-9.10388e-12
-9.29053e-12
-9.59946e-12
-9.48499e-12
-9.43689e-12
-9.22411e-12
-9.11342e-12
-8.99708e-12
-8.95957e-12
-8.95234e-12
-9.00097e-12
-9.06431e-12
-9.12505e-12
-9.15544e-12
-9.16705e-12
-9.16954e-12
-9.16455e-12
-9.14754e-12
-9.13156e-12
-9.13248e-12
-9.1451e-12
-9.14796e-12
-9.13468e-12
-9.11883e-12
-9.1064e-12
-9.08478e-12
-9.04878e-12
-9.01687e-12
-9.00659e-12
-9.00932e-12
-9.00804e-12
-9.00669e-12
-9.02009e-12
-9.04285e-12
-9.05376e-12
-9.04887e-12
-9.04582e-12
-9.05182e-12
-9.05212e-12
-9.03774e-12
-9.02331e-12
-9.0226e-12
-9.02706e-12
-9.0219e-12
-9.01314e-12
-9.01455e-12
-9.02476e-12
-9.02811e-12
-9.02453e-12
-9.02478e-12
-9.0363e-12
-9.04672e-12
-9.05556e-12
-9.06278e-12
-9.08171e-12
-9.09188e-12
-9.10528e-12
-9.09401e-12
-9.10405e-12
-9.07761e-12
-9.10391e-12
-9.28732e-12
-9.59346e-12
-9.49087e-12
-9.44791e-12
-9.23821e-12
-9.12718e-12
-9.0076e-12
-8.9659e-12
-8.95464e-12
-9.00027e-12
-9.06187e-12
-9.12249e-12
-9.15399e-12
-9.16698e-12
-9.17026e-12
-9.1655e-12
-9.14855e-12
-9.13247e-12
-9.13293e-12
-9.14512e-12
-9.14825e-12
-9.13593e-12
-9.12097e-12
-9.10897e-12
-9.0876e-12
-9.05187e-12
-9.01981e-12
-9.00861e-12
-9.01019e-12
-9.00825e-12
-9.00665e-12
-9.01969e-12
-9.04209e-12
-9.05321e-12
-9.04906e-12
-9.04659e-12
-9.0527e-12
-9.05318e-12
-9.03929e-12
-9.02522e-12
-9.02433e-12
-9.02844e-12
-9.02329e-12
-9.01469e-12
-9.01595e-12
-9.02578e-12
-9.02895e-12
-9.02541e-12
-9.02542e-12
-9.03637e-12
-9.04618e-12
-9.05473e-12
-9.06171e-12
-9.08055e-12
-9.09079e-12
-9.10477e-12
-9.09401e-12
-9.10453e-12
-9.07794e-12
-9.10395e-12
-9.28356e-12
-9.58664e-12
-9.49604e-12
-9.45847e-12
-9.2524e-12
-9.14139e-12
-9.01879e-12
-8.97294e-12
-8.95754e-12
-8.99996e-12
-9.0596e-12
-9.11993e-12
-9.15246e-12
-9.16682e-12
-9.17092e-12
-9.16644e-12
-9.14961e-12
-9.13343e-12
-9.13342e-12
-9.14514e-12
-9.14852e-12
-9.13715e-12
-9.1231e-12
-9.11154e-12
-9.09047e-12
-9.05509e-12
-9.02292e-12
-9.0108e-12
-9.01121e-12
-9.0086e-12
-9.00672e-12
-9.01936e-12
-9.04134e-12
-9.05263e-12
-9.04922e-12
-9.04733e-12
-9.05358e-12
-9.05423e-12
-9.04087e-12
-9.02718e-12
-9.02612e-12
-9.02989e-12
-9.02474e-12
-9.01631e-12
-9.01742e-12
-9.02686e-12
-9.02984e-12
-9.02635e-12
-9.02613e-12
-9.03652e-12
-9.0457e-12
-9.05395e-12
-9.06065e-12
-9.07937e-12
-9.08963e-12
-9.10418e-12
-9.09394e-12
-9.10497e-12
-9.07825e-12
-9.10398e-12
-9.27929e-12
-9.57898e-12
-9.50041e-12
-9.46846e-12
-9.26657e-12
-9.15597e-12
-9.03062e-12
-8.98069e-12
-8.96107e-12
-9.0001e-12
-9.05756e-12
-9.11741e-12
-9.15086e-12
-9.16656e-12
-9.17151e-12
-9.16736e-12
-9.15069e-12
-9.13446e-12
-9.13395e-12
-9.14517e-12
-9.14875e-12
-9.13832e-12
-9.1252e-12
-9.11411e-12
-9.09339e-12
-9.05842e-12
-9.02619e-12
-9.01318e-12
-9.01241e-12
-9.00909e-12
-9.0069e-12
-9.01909e-12
-9.04061e-12
-9.05205e-12
-9.04936e-12
-9.04805e-12
-9.05443e-12
-9.05528e-12
-9.04246e-12
-9.02918e-12
-9.02796e-12
-9.03139e-12
-9.02625e-12
-9.018e-12
-9.01894e-12
-9.028e-12
-9.0308e-12
-9.02737e-12
-9.02693e-12
-9.03675e-12
-9.0453e-12
-9.05322e-12
-9.05962e-12
-9.07817e-12
-9.08843e-12
-9.10352e-12
-9.09381e-12
-9.10536e-12
-9.07855e-12
-9.10402e-12
-9.27455e-12
-9.57048e-12
-9.5039e-12
-9.47777e-12
-9.28061e-12
-9.17084e-12
-9.04304e-12
-8.98916e-12
-8.96527e-12
-9.00072e-12
-9.05577e-12
-9.11497e-12
-9.14921e-12
-9.16622e-12
-9.17204e-12
-9.16826e-12
-9.1518e-12
-9.13553e-12
-9.13454e-12
-9.1452e-12
-9.14896e-12
-9.13945e-12
-9.12726e-12
-9.11666e-12
-9.09634e-12
-9.06184e-12
-9.02961e-12
-9.01573e-12
-9.01378e-12
-9.00974e-12
-9.00721e-12
-9.0189e-12
-9.03991e-12
-9.05145e-12
-9.04948e-12
-9.04874e-12
-9.05526e-12
-9.05631e-12
-9.04407e-12
-9.03121e-12
-9.02985e-12
-9.03294e-12
-9.02781e-12
-9.01975e-12
-9.02053e-12
-9.02919e-12
-9.03182e-12
-9.02846e-12
-9.02782e-12
-9.03707e-12
-9.04498e-12
-9.05256e-12
-9.05863e-12
-9.07697e-12
-9.08718e-12
-9.10278e-12
-9.09361e-12
-9.10569e-12
-9.07884e-12
-9.10406e-12
-9.26937e-12
-9.56111e-12
-9.50643e-12
-9.48628e-12
-9.29441e-12
-9.18589e-12
-9.056e-12
-8.99832e-12
-8.97014e-12
-9.00186e-12
-9.0543e-12
-9.11262e-12
-9.14754e-12
-9.1658e-12
-9.17248e-12
-9.16913e-12
-9.15293e-12
-9.13666e-12
-9.13516e-12
-9.14525e-12
-9.14914e-12
-9.14053e-12
-9.12926e-12
-9.11919e-12
-9.09932e-12
-9.06535e-12
-9.03318e-12
-9.01846e-12
-9.01534e-12
-9.01056e-12
-9.00766e-12
-9.0188e-12
-9.03924e-12
-9.05086e-12
-9.04958e-12
-9.04941e-12
-9.05607e-12
-9.05733e-12
-9.04568e-12
-9.03327e-12
-9.03178e-12
-9.03454e-12
-9.02944e-12
-9.02156e-12
-9.02218e-12
-9.03044e-12
-9.0329e-12
-9.02962e-12
-9.02879e-12
-9.03748e-12
-9.04476e-12
-9.05198e-12
-9.05769e-12
-9.07577e-12
-9.08589e-12
-9.10197e-12
-9.09332e-12
-9.10597e-12
-9.07909e-12
-9.10409e-12
-9.2638e-12
-9.55091e-12
-9.50793e-12
-9.4939e-12
-9.30786e-12
-9.20103e-12
-9.06944e-12
-9.00815e-12
-8.9757e-12
-9.00356e-12
-9.05317e-12
-9.11043e-12
-9.14586e-12
-9.16531e-12
-9.17286e-12
-9.16996e-12
-9.15408e-12
-9.13784e-12
-9.13584e-12
-9.14531e-12
-9.14929e-12
-9.14155e-12
-9.1312e-12
-9.12167e-12
-9.1023e-12
-9.06893e-12
-9.03688e-12
-9.02137e-12
-9.01709e-12
-9.01157e-12
-9.00825e-12
-9.0188e-12
-9.03864e-12
-9.05028e-12
-9.04967e-12
-9.05005e-12
-9.05684e-12
-9.05832e-12
-9.04728e-12
-9.03535e-12
-9.03374e-12
-9.03618e-12
-9.03111e-12
-9.02342e-12
-9.02389e-12
-9.03174e-12
-9.03404e-12
-9.03085e-12
-9.02984e-12
-9.03798e-12
-9.04463e-12
-9.05148e-12
-9.05681e-12
-9.07459e-12
-9.08457e-12
-9.10107e-12
-9.09297e-12
-9.10618e-12
-9.07933e-12
-9.10412e-12
-9.25788e-12
-9.53988e-12
-9.50836e-12
-9.50053e-12
-9.32085e-12
-9.21615e-12
-9.08329e-12
-9.01863e-12
-8.98195e-12
-9.00584e-12
-9.05243e-12
-9.10841e-12
-9.1442e-12
-9.16475e-12
-9.17316e-12
-9.17076e-12
-9.15524e-12
-9.13907e-12
-9.13656e-12
-9.14538e-12
-9.14941e-12
-9.14251e-12
-9.13307e-12
-9.12411e-12
-9.10527e-12
-9.07257e-12
-9.0407e-12
-9.02446e-12
-9.01904e-12
-9.01276e-12
-9.00901e-12
-9.01892e-12
-9.03809e-12
-9.04971e-12
-9.04974e-12
-9.05066e-12
-9.05758e-12
-9.05929e-12
-9.04888e-12
-9.03744e-12
-9.03573e-12
-9.03787e-12
-9.03283e-12
-9.02533e-12
-9.02564e-12
-9.03309e-12
-9.03523e-12
-9.03215e-12
-9.03098e-12
-9.03858e-12
-9.0446e-12
-9.05108e-12
-9.05599e-12
-9.07342e-12
-9.08322e-12
-9.10011e-12
-9.09252e-12
-9.10631e-12
-9.07953e-12
-9.10414e-12
-9.25167e-12
-9.52805e-12
-9.50765e-12
-9.50608e-12
-9.33326e-12
-9.23115e-12
-9.09747e-12
-9.0297e-12
-8.9889e-12
-9.00873e-12
-9.05212e-12
-9.1066e-12
-9.14258e-12
-9.16414e-12
-9.17339e-12
-9.17152e-12
-9.15641e-12
-9.14034e-12
-9.13732e-12
-9.14548e-12
-9.14952e-12
-9.1434e-12
-9.13486e-12
-9.12647e-12
-9.10823e-12
-9.07625e-12
-9.04464e-12
-9.02771e-12
-9.02118e-12
-9.01414e-12
-9.00993e-12
-9.01917e-12
-9.03762e-12
-9.04918e-12
-9.0498e-12
-9.05124e-12
-9.05828e-12
-9.06023e-12
-9.05046e-12
-9.03953e-12
-9.03775e-12
-9.03959e-12
-9.0346e-12
-9.0273e-12
-9.02745e-12
-9.03449e-12
-9.03648e-12
-9.03352e-12
-9.0322e-12
-9.03928e-12
-9.04468e-12
-9.05078e-12
-9.05526e-12
-9.07228e-12
-9.08185e-12
-9.09907e-12
-9.092e-12
-9.10636e-12
-9.07969e-12
-9.10415e-12
-9.24523e-12
-9.51548e-12
-9.50579e-12
-9.51046e-12
-9.34498e-12
-9.24591e-12
-9.1119e-12
-9.04133e-12
-8.99654e-12
-9.01225e-12
-9.05226e-12
-9.10505e-12
-9.14104e-12
-9.16349e-12
-9.17355e-12
-9.17223e-12
-9.15758e-12
-9.14164e-12
-9.13814e-12
-9.1456e-12
-9.1496e-12
-9.14424e-12
-9.13656e-12
-9.12877e-12
-9.11115e-12
-9.07997e-12
-9.04868e-12
-9.03112e-12
-9.02351e-12
-9.01573e-12
-9.01104e-12
-9.01956e-12
-9.03724e-12
-9.04868e-12
-9.04986e-12
-9.05179e-12
-9.05894e-12
-9.06113e-12
-9.05201e-12
-9.04162e-12
-9.03977e-12
-9.04134e-12
-9.0364e-12
-9.0293e-12
-9.0293e-12
-9.03594e-12
-9.03777e-12
-9.03494e-12
-9.0335e-12
-9.04007e-12
-9.04488e-12
-9.05058e-12
-9.05462e-12
-9.07119e-12
-9.08047e-12
-9.09797e-12
-9.0914e-12
-9.10633e-12
-9.07981e-12
-9.10414e-12
-9.23859e-12
-9.50221e-12
-9.50275e-12
-9.51362e-12
-9.35592e-12
-9.26032e-12
-9.12647e-12
-9.05345e-12
-9.00483e-12
-9.0164e-12
-9.0529e-12
-9.10379e-12
-9.1396e-12
-9.16283e-12
-9.17365e-12
-9.1729e-12
-9.15875e-12
-9.14298e-12
-9.139e-12
-9.14575e-12
-9.14966e-12
-9.14501e-12
-9.13817e-12
-9.13097e-12
-9.11403e-12
-9.08369e-12
-9.05281e-12
-9.03468e-12
-9.02605e-12
-9.01753e-12
-9.01233e-12
-9.02009e-12
-9.03697e-12
-9.04824e-12
-9.04993e-12
-9.05232e-12
-9.05957e-12
-9.062e-12
-9.05354e-12
-9.0437e-12
-9.04181e-12
-9.04311e-12
-9.03824e-12
-9.03134e-12
-9.03119e-12
-9.03743e-12
-9.03912e-12
-9.03643e-12
-9.03488e-12
-9.04097e-12
-9.0452e-12
-9.05051e-12
-9.05407e-12
-9.07015e-12
-9.0791e-12
-9.09681e-12
-9.09071e-12
-9.10621e-12
-9.07989e-12
-9.10412e-12
-9.23183e-12
-9.48831e-12
-9.49854e-12
-9.5155e-12
-9.36596e-12
-9.27425e-12
-9.14109e-12
-9.06599e-12
-9.01375e-12
-9.0212e-12
-9.05406e-12
-9.10286e-12
-9.13829e-12
-9.16217e-12
-9.17369e-12
-9.17353e-12
-9.15992e-12
-9.14436e-12
-9.13991e-12
-9.14594e-12
-9.14972e-12
-9.14571e-12
-9.13969e-12
-9.13308e-12
-9.11684e-12
-9.08742e-12
-9.057e-12
-9.03838e-12
-9.02877e-12
-9.01953e-12
-9.01382e-12
-9.02079e-12
-9.0368e-12
-9.04785e-12
-9.05001e-12
-9.05282e-12
-9.06016e-12
-9.06283e-12
-9.05504e-12
-9.04575e-12
-9.04385e-12
-9.04491e-12
-9.04011e-12
-9.03342e-12
-9.03311e-12
-9.03896e-12
-9.04052e-12
-9.03796e-12
-9.03634e-12
-9.04196e-12
-9.04563e-12
-9.05055e-12
-9.05364e-12
-9.06918e-12
-9.07775e-12
-9.0956e-12
-9.08995e-12
-9.10599e-12
-9.07992e-12
-9.10409e-12
-9.225e-12
-9.47386e-12
-9.49315e-12
-9.51605e-12
-9.37502e-12
-9.2876e-12
-9.15566e-12
-9.07887e-12
-9.02326e-12
-9.02663e-12
-9.05575e-12
-9.10227e-12
-9.13715e-12
-9.16152e-12
-9.1737e-12
-9.17411e-12
-9.16107e-12
-9.14576e-12
-9.14087e-12
-9.14615e-12
-9.14976e-12
-9.14635e-12
-9.1411e-12
-9.13509e-12
-9.11959e-12
-9.09113e-12
-9.06124e-12
-9.04221e-12
-9.03168e-12
-9.02174e-12
-9.0155e-12
-9.02166e-12
-9.03677e-12
-9.04754e-12
-9.05011e-12
-9.05331e-12
-9.06072e-12
-9.06361e-12
-9.05649e-12
-9.04778e-12
-9.04588e-12
-9.04672e-12
-9.04201e-12
-9.03553e-12
-9.03508e-12
-9.04053e-12
-9.04196e-12
-9.03955e-12
-9.03787e-12
-9.04305e-12
-9.04619e-12
-9.05072e-12
-9.05331e-12
-9.06828e-12
-9.07642e-12
-9.09434e-12
-9.08911e-12
-9.10568e-12
-9.0799e-12
-9.10403e-12
-9.21816e-12
-9.45894e-12
-9.48662e-12
-9.51525e-12
-9.38302e-12
-9.30025e-12
-9.17007e-12
-9.09201e-12
-9.03331e-12
-9.03268e-12
-9.058e-12
-9.10208e-12
-9.1362e-12
-9.16093e-12
-9.17367e-12
-9.17466e-12
-9.16222e-12
-9.14719e-12
-9.14187e-12
-9.14641e-12
-9.14981e-12
-9.14694e-12
-9.14242e-12
-9.13699e-12
-9.12224e-12
-9.0948e-12
-9.06553e-12
-9.04615e-12
-9.03477e-12
-9.02416e-12
-9.0174e-12
-9.02271e-12
-9.03687e-12
-9.04732e-12
-9.05023e-12
-9.05379e-12
-9.06124e-12
-9.06436e-12
-9.05791e-12
-9.04978e-12
-9.0479e-12
-9.04853e-12
-9.04392e-12
-9.03765e-12
-9.03706e-12
-9.04213e-12
-9.04343e-12
-9.04119e-12
-9.03946e-12
-9.04423e-12
-9.04686e-12
-9.05101e-12
-9.05312e-12
-9.06746e-12
-9.07513e-12
-9.09306e-12
-9.0882e-12
-9.10527e-12
-9.07983e-12
-9.10395e-12
-9.21137e-12
-9.44366e-12
-9.479e-12
-9.5131e-12
-9.38988e-12
-9.31209e-12
-9.1842e-12
-9.10532e-12
-9.04385e-12
-9.03932e-12
-9.0608e-12
-9.10229e-12
-9.13548e-12
-9.1604e-12
-9.17363e-12
-9.17518e-12
-9.16336e-12
-9.14864e-12
-9.14292e-12
-9.14671e-12
-9.14986e-12
-9.14747e-12
-9.14363e-12
-9.13878e-12
-9.1248e-12
-9.09842e-12
-9.06982e-12
-9.0502e-12
-9.03803e-12
-9.02679e-12
-9.01949e-12
-9.02394e-12
-9.03713e-12
-9.0472e-12
-9.0504e-12
-9.05425e-12
-9.06173e-12
-9.06506e-12
-9.05928e-12
-9.05173e-12
-9.0499e-12
-9.05035e-12
-9.04585e-12
-9.0398e-12
-9.03908e-12
-9.04377e-12
-9.04494e-12
-9.04286e-12
-9.04111e-12
-9.0455e-12
-9.04766e-12
-9.05144e-12
-9.05305e-12
-9.06675e-12
-9.07389e-12
-9.09175e-12
-9.08723e-12
-9.10476e-12
-9.0797e-12
-9.10384e-12
-9.20469e-12
-9.42813e-12
-9.47034e-12
-9.50959e-12
-9.39554e-12
-9.32303e-12
-9.19795e-12
-9.11869e-12
-9.0548e-12
-9.04653e-12
-9.06417e-12
-9.10293e-12
-9.135e-12
-9.15996e-12
-9.17358e-12
-9.17567e-12
-9.16448e-12
-9.15012e-12
-9.14402e-12
-9.14707e-12
-9.14992e-12
-9.14795e-12
-9.14474e-12
-9.14044e-12
-9.12726e-12
-9.10197e-12
-9.07412e-12
-9.05432e-12
-9.04144e-12
-9.02961e-12
-9.02179e-12
-9.02536e-12
-9.03755e-12
-9.04718e-12
-9.05062e-12
-9.05472e-12
-9.06219e-12
-9.06573e-12
-9.06059e-12
-9.05364e-12
-9.05187e-12
-9.05217e-12
-9.04779e-12
-9.04196e-12
-9.04111e-12
-9.04542e-12
-9.04648e-12
-9.04457e-12
-9.04282e-12
-9.04685e-12
-9.04857e-12
-9.05199e-12
-9.05311e-12
-9.06613e-12
-9.07272e-12
-9.09043e-12
-9.08621e-12
-9.10416e-12
-9.07952e-12
-9.1037e-12
-9.19819e-12
-9.41244e-12
-9.46071e-12
-9.50476e-12
-9.39995e-12
-9.33297e-12
-9.2112e-12
-9.13203e-12
-9.06608e-12
-9.05427e-12
-9.06809e-12
-9.10401e-12
-9.1348e-12
-9.15964e-12
-9.17355e-12
-9.17614e-12
-9.1656e-12
-9.15161e-12
-9.14517e-12
-9.14747e-12
-9.15001e-12
-9.14839e-12
-9.14575e-12
-9.14198e-12
-9.1296e-12
-9.10545e-12
-9.0784e-12
-9.05851e-12
-9.045e-12
-9.03263e-12
-9.0243e-12
-9.02699e-12
-9.03814e-12
-9.04729e-12
-9.05089e-12
-9.0552e-12
-9.06264e-12
-9.06635e-12
-9.06186e-12
-9.0555e-12
-9.05381e-12
-9.05398e-12
-9.04974e-12
-9.04413e-12
-9.04316e-12
-9.04711e-12
-9.04805e-12
-9.0463e-12
-9.04457e-12
-9.04828e-12
-9.04959e-12
-9.05267e-12
-9.05332e-12
-9.06564e-12
-9.07162e-12
-9.08912e-12
-9.08514e-12
-9.10346e-12
-9.07928e-12
-9.10353e-12
-9.19191e-12
-9.39673e-12
-9.45021e-12
-9.49865e-12
-9.4031e-12
-9.34184e-12
-9.22385e-12
-9.14523e-12
-9.07763e-12
-9.06248e-12
-9.07256e-12
-9.10556e-12
-9.1349e-12
-9.15945e-12
-9.17356e-12
-9.17661e-12
-9.16672e-12
-9.15312e-12
-9.14636e-12
-9.14793e-12
-9.15011e-12
-9.14879e-12
-9.14667e-12
-9.14341e-12
-9.13182e-12
-9.10882e-12
-9.08263e-12
-9.06275e-12
-9.04869e-12
-9.03582e-12
-9.02701e-12
-9.02881e-12
-9.0389e-12
-9.04753e-12
-9.05124e-12
-9.05569e-12
-9.06307e-12
-9.06694e-12
-9.06307e-12
-9.0573e-12
-9.05572e-12