/*--------------------------------*- C++ -*----------------------------------*\
| =========                 |                                                 |
| \\      /  F ield         | foam-extend: Open Source CFD                    |
|  \\    /   O peration     | Version:     4.0                                |
|   \\  /    A nd           | Web:         http://www.foam-extend.org         |
|    \\/     M anipulation  |                                                 |
\*---------------------------------------------------------------------------*/
FoamFile
{
    version     2.0;
    format      ascii;
    class       volScalarField;
    location    "17";
    object      p;
}
// * * * * * * * * * * * * * * * * * * * * * * * * * * * * * * * * * * * * * //

dimensions      [0 2 -2 0 0 0 0];

internalField   nonuniform List<scalar> 
6960
(
2.50883e-07
3.58659e-07
3.64025e-07
3.71256e-07
3.57362e-07
3.70519e-07
3.60742e-07
3.68366e-07
3.65483e-07
3.65145e-07
3.68687e-07
3.65507e-07
3.65879e-07
3.65066e-07
3.65721e-07
3.66713e-07
3.64612e-07
3.64035e-07
3.64603e-07
3.65451e-07
3.65065e-07
3.63223e-07
3.6358e-07
3.64932e-07
3.64617e-07
3.62643e-07
3.61708e-07
3.63006e-07
3.63339e-07
3.61571e-07
3.60504e-07
3.61855e-07
3.63387e-07
3.62676e-07
3.61505e-07
3.62752e-07
3.64788e-07
3.65074e-07
3.63476e-07
3.62794e-07
3.63562e-07
3.62334e-07
3.60689e-07
3.58763e-07
3.60384e-07
3.62663e-07
3.63208e-07
3.66396e-07
3.66603e-07
3.69512e-07
3.67789e-07
3.64863e-07
3.63378e-07
3.60287e-07
3.59974e-07
3.59344e-07
3.59316e-07
3.61813e-07
3.61093e-07
3.63953e-07
3.56596e-07
3.58544e-07
3.64014e-07
3.71265e-07
3.57344e-07
3.70531e-07
3.60727e-07
3.68372e-07
3.65483e-07
3.65143e-07
3.6869e-07
3.65501e-07
3.65877e-07
3.65062e-07
3.65717e-07
3.66714e-07
3.64613e-07
3.6404e-07
3.64607e-07
3.65455e-07
3.6507e-07
3.63223e-07
3.63577e-07
3.64927e-07
3.64612e-07
3.62638e-07
3.61702e-07
3.63003e-07
3.63339e-07
3.61576e-07
3.6051e-07
3.61862e-07
3.63393e-07
3.62681e-07
3.61506e-07
3.62748e-07
3.64783e-07
3.6507e-07
3.63473e-07
3.62792e-07
3.63563e-07
3.62336e-07
3.60691e-07
3.58762e-07
3.60384e-07
3.62661e-07
3.63208e-07
3.66399e-07
3.66603e-07
3.69521e-07
3.67794e-07
3.64871e-07
3.63384e-07
3.60286e-07
3.59977e-07
3.59343e-07
3.59316e-07
3.61816e-07
3.61095e-07
3.63955e-07
3.73752e-07
3.58351e-07
3.64074e-07
3.71251e-07
3.57351e-07
3.70549e-07
3.60704e-07
3.6839e-07
3.65476e-07
3.65146e-07
3.68695e-07
3.65497e-07
3.65883e-07
3.65059e-07
3.65716e-07
3.66719e-07
3.64618e-07
3.6405e-07
3.64614e-07
3.65461e-07
3.65076e-07
3.63227e-07
3.63579e-07
3.64924e-07
3.6461e-07
3.62638e-07
3.61702e-07
3.63003e-07
3.63342e-07
3.61584e-07
3.60519e-07
3.61868e-07
3.63398e-07
3.62684e-07
3.61506e-07
3.62742e-07
3.64774e-07
3.65065e-07
3.63473e-07
3.62798e-07
3.63568e-07
3.62345e-07
3.60699e-07
3.58762e-07
3.60379e-07
3.62642e-07
3.63195e-07
3.66385e-07
3.66595e-07
3.69533e-07
3.67805e-07
3.64901e-07
3.63406e-07
3.603e-07
3.59987e-07
3.5934e-07
3.59314e-07
3.61813e-07
3.61094e-07
3.63957e-07
3.65986e-07
3.58119e-07
3.64203e-07
3.71211e-07
3.57384e-07
3.70573e-07
3.60675e-07
3.68419e-07
3.65463e-07
3.65155e-07
3.68701e-07
3.65492e-07
3.65895e-07
3.65059e-07
3.65718e-07
3.66726e-07
3.64627e-07
3.64067e-07
3.64624e-07
3.6547e-07
3.65085e-07
3.63235e-07
3.63584e-07
3.64923e-07
3.64611e-07
3.62645e-07
3.61709e-07
3.63007e-07
3.63347e-07
3.61595e-07
3.60531e-07
3.61875e-07
3.634e-07
3.62685e-07
3.61506e-07
3.62735e-07
3.64762e-07
3.65059e-07
3.63476e-07
3.62811e-07
3.6358e-07
3.62361e-07
3.60711e-07
3.58762e-07
3.60369e-07
3.62607e-07
3.6317e-07
3.66354e-07
3.66577e-07
3.69545e-07
3.6782e-07
3.6495e-07
3.63442e-07
3.60326e-07
3.60005e-07
3.59336e-07
3.59311e-07
3.61806e-07
3.6109e-07
3.63958e-07
3.62896e-07
3.57863e-07
3.64396e-07
3.71143e-07
3.57445e-07
3.706e-07
3.60639e-07
3.68459e-07
3.65443e-07
3.65172e-07
3.68708e-07
3.65488e-07
3.65913e-07
3.65061e-07
3.65723e-07
3.66736e-07
3.64638e-07
3.64091e-07
3.64637e-07
3.6548e-07
3.65097e-07
3.63247e-07
3.63593e-07
3.64923e-07
3.64615e-07
3.62656e-07
3.61722e-07
3.63015e-07
3.63354e-07
3.61609e-07
3.60547e-07
3.61882e-07
3.634e-07
3.62685e-07
3.61506e-07
3.62726e-07
3.64747e-07
3.65051e-07
3.63482e-07
3.6283e-07
3.63596e-07
3.62384e-07
3.60728e-07
3.58765e-07
3.60357e-07
3.62558e-07
3.63134e-07
3.66306e-07
3.6655e-07
3.69556e-07
3.67837e-07
3.65018e-07
3.63492e-07
3.60368e-07
3.60031e-07
3.59332e-07
3.59308e-07
3.61794e-07
3.61084e-07
3.63959e-07
3.63313e-07
3.57583e-07
3.64651e-07
3.71049e-07
3.57535e-07
3.7063e-07
3.60598e-07
3.6851e-07
3.65417e-07
3.65194e-07
3.68715e-07
3.65483e-07
3.65938e-07
3.65065e-07
3.65732e-07
3.66748e-07
3.64652e-07
3.64121e-07
3.64654e-07
3.65493e-07
3.6511e-07
3.63262e-07
3.63606e-07
3.64925e-07
3.64622e-07
3.62674e-07
3.61741e-07
3.63026e-07
3.63362e-07
3.61626e-07
3.60566e-07
3.6189e-07
3.63397e-07
3.62683e-07
3.61507e-07
3.62716e-07
3.64729e-07
3.65041e-07
3.6349e-07
3.62856e-07
3.63618e-07
3.62414e-07
3.60751e-07
3.58771e-07
3.6034e-07
3.62494e-07
3.63086e-07
3.66241e-07
3.66514e-07
3.69566e-07
3.67857e-07
3.65106e-07
3.63556e-07
3.60424e-07
3.60066e-07
3.59327e-07
3.59305e-07
3.61778e-07
3.61076e-07
3.63959e-07
3.63943e-07
3.57278e-07
3.64964e-07
3.70929e-07
3.57654e-07
3.70663e-07
3.60552e-07
3.68571e-07
3.65383e-07
3.65224e-07
3.68723e-07
3.65479e-07
3.6597e-07
3.65071e-07
3.65743e-07
3.66763e-07
3.64669e-07
3.64157e-07
3.64673e-07
3.65507e-07
3.65125e-07
3.63281e-07
3.63624e-07
3.64929e-07
3.64631e-07
3.62697e-07
3.61768e-07
3.63042e-07
3.63372e-07
3.61646e-07
3.60589e-07
3.61898e-07
3.63393e-07
3.62679e-07
3.61508e-07
3.62705e-07
3.64707e-07
3.6503e-07
3.63501e-07
3.62888e-07
3.63645e-07
3.62451e-07
3.60779e-07
3.5878e-07
3.60322e-07
3.62416e-07
3.63028e-07
3.6616e-07
3.66468e-07
3.69573e-07
3.67879e-07
3.6521e-07
3.63633e-07
3.60495e-07
3.6011e-07
3.59324e-07
3.59302e-07
3.61757e-07
3.61065e-07
3.63958e-07
3.64246e-07
3.56953e-07
3.65331e-07
3.70783e-07
3.57801e-07
3.70696e-07
3.60503e-07
3.68642e-07
3.65343e-07
3.6526e-07
3.6873e-07
3.65475e-07
3.66008e-07
3.65079e-07
3.65758e-07
3.66779e-07
3.64689e-07
3.64199e-07
3.64696e-07
3.65524e-07
3.65143e-07
3.63303e-07
3.63645e-07
3.64934e-07
3.64643e-07
3.62726e-07
3.61801e-07
3.63061e-07
3.63385e-07
3.6167e-07
3.60615e-07
3.61907e-07
3.63386e-07
3.62675e-07
3.6151e-07
3.62692e-07
3.64683e-07
3.65016e-07
3.63514e-07
3.62925e-07
3.63677e-07
3.62495e-07
3.60813e-07
3.58792e-07
3.60301e-07
3.62327e-07
3.62958e-07
3.66062e-07
3.66411e-07
3.69575e-07
3.67901e-07
3.6533e-07
3.63723e-07
3.6058e-07
3.60163e-07
3.59322e-07
3.59299e-07
3.61734e-07
3.61053e-07
3.63958e-07
3.64471e-07
3.56614e-07
3.65745e-07
3.70612e-07
3.57977e-07
3.7073e-07
3.60451e-07
3.68721e-07
3.65297e-07
3.65302e-07
3.68736e-07
3.65472e-07
3.66052e-07
3.65089e-07
3.65777e-07
3.66797e-07
3.64713e-07
3.64247e-07
3.64721e-07
3.65542e-07
3.65162e-07
3.6333e-07
3.6367e-07
3.64941e-07
3.64658e-07
3.62761e-07
3.6184e-07
3.63085e-07
3.63399e-07
3.61697e-07
3.60644e-07
3.61917e-07
3.63378e-07
3.62668e-07
3.61512e-07
3.62678e-07
3.64655e-07
3.65001e-07
3.63528e-07
3.62968e-07
3.63713e-07
3.62545e-07
3.60852e-07
3.58809e-07
3.60278e-07
3.62227e-07
3.62878e-07
3.65948e-07
3.66345e-07
3.69572e-07
3.67923e-07
3.65464e-07
3.63824e-07
3.60679e-07
3.60225e-07
3.59323e-07
3.59298e-07
3.61707e-07
3.6104e-07
3.63957e-07
3.64721e-07
3.56266e-07
3.66203e-07
3.70418e-07
3.58183e-07
3.70763e-07
3.60399e-07
3.68808e-07
3.65245e-07
3.65351e-07
3.68742e-07
3.6547e-07
3.66102e-07
3.65101e-07
3.65799e-07
3.66818e-07
3.64739e-07
3.64302e-07
3.64749e-07
3.65562e-07
3.65183e-07
3.6336e-07
3.63699e-07
3.64949e-07
3.64676e-07
3.62801e-07
3.61886e-07
3.63112e-07
3.63415e-07
3.61727e-07
3.60678e-07
3.61927e-07
3.63367e-07
3.6266e-07
3.61515e-07
3.62664e-07
3.64624e-07
3.64983e-07
3.63545e-07
3.63016e-07
3.63753e-07
3.62601e-07
3.60898e-07
3.58831e-07
3.60255e-07
3.62117e-07
3.62789e-07
3.65819e-07
3.66268e-07
3.69562e-07
3.67944e-07
3.65609e-07
3.63936e-07
3.60793e-07
3.60295e-07
3.59328e-07
3.59299e-07
3.61678e-07
3.61025e-07
3.63956e-07
3.64984e-07
3.55913e-07
3.66699e-07
3.70201e-07
3.58417e-07
3.70794e-07
3.60348e-07
3.68903e-07
3.65187e-07
3.65407e-07
3.68747e-07
3.65469e-07
3.66158e-07
3.65115e-07
3.65825e-07
3.6684e-07
3.64768e-07
3.64361e-07
3.6478e-07
3.65584e-07
3.65205e-07
3.63393e-07
3.63731e-07
3.64959e-07
3.64696e-07
3.62847e-07
3.61939e-07
3.63144e-07
3.63434e-07
3.61761e-07
3.60715e-07
3.61938e-07
3.63354e-07
3.62652e-07
3.61518e-07
3.62648e-07
3.6459e-07
3.64963e-07
3.63563e-07
3.63068e-07
3.63798e-07
3.62664e-07
3.6095e-07
3.58859e-07
3.60232e-07
3.61998e-07
3.62691e-07
3.65675e-07
3.6618e-07
3.69543e-07
3.67962e-07
3.65764e-07
3.64057e-07
3.6092e-07
3.60375e-07
3.59338e-07
3.59302e-07
3.61646e-07
3.61008e-07
3.63954e-07
3.65245e-07
3.5556e-07
3.67227e-07
3.69962e-07
3.58679e-07
3.70822e-07
3.60298e-07
3.69004e-07
3.65124e-07
3.65469e-07
3.6875e-07
3.65469e-07
3.66219e-07
3.65131e-07
3.65855e-07
3.66863e-07
3.64801e-07
3.64426e-07
3.64813e-07
3.65608e-07
3.6523e-07
3.6343e-07
3.63768e-07
3.6497e-07
3.64718e-07
3.62898e-07
3.61998e-07
3.6318e-07
3.63455e-07
3.61799e-07
3.60756e-07
3.6195e-07
3.6334e-07
3.62641e-07
3.61521e-07
3.62631e-07
3.64553e-07
3.64941e-07
3.63582e-07
3.63124e-07
3.63845e-07
3.62732e-07
3.61008e-07
3.58893e-07
3.6021e-07
3.61873e-07
3.62585e-07
3.65517e-07
3.66082e-07
3.69516e-07
3.67977e-07
3.65926e-07
3.64187e-07
3.6106e-07
3.60464e-07
3.59353e-07
3.59308e-07
3.61613e-07
3.60991e-07
3.63952e-07
3.65497e-07
3.55213e-07
3.67782e-07
3.69702e-07
3.58971e-07
3.70847e-07
3.60252e-07
3.69111e-07
3.65056e-07
3.65538e-07
3.68752e-07
3.65471e-07
3.66286e-07
3.65149e-07
3.65888e-07
3.66888e-07
3.64837e-07
3.64497e-07
3.64849e-07
3.65634e-07
3.65256e-07
3.63471e-07
3.63808e-07
3.64983e-07
3.64743e-07
3.62955e-07
3.62064e-07
3.6322e-07
3.63479e-07
3.6184e-07
3.60801e-07
3.61964e-07
3.63324e-07
3.6263e-07
3.61525e-07
3.62614e-07
3.64513e-07
3.64916e-07
3.63601e-07
3.63183e-07
3.63896e-07
3.62806e-07
3.61072e-07
3.58934e-07
3.60189e-07
3.61742e-07
3.62472e-07
3.65345e-07
3.65973e-07
3.69478e-07
3.67988e-07
3.66095e-07
3.64324e-07
3.61213e-07
3.60561e-07
3.59375e-07
3.59317e-07
3.61578e-07
3.60973e-07
3.6395e-07
3.6574e-07
3.54876e-07
3.68359e-07
3.69423e-07
3.5929e-07
3.70866e-07
3.60211e-07
3.69222e-07
3.64983e-07
3.65612e-07
3.68752e-07
3.65474e-07
3.66359e-07
3.6517e-07
3.65926e-07
3.66915e-07
3.64875e-07
3.64572e-07
3.64888e-07
3.65662e-07
3.65284e-07
3.63516e-07
3.63851e-07
3.64997e-07
3.6477e-07
3.63016e-07
3.62135e-07
3.63264e-07
3.63505e-07
3.61886e-07
3.6085e-07
3.61979e-07
3.63307e-07
3.62619e-07
3.6153e-07
3.62596e-07
3.64469e-07
3.64888e-07
3.63622e-07
3.63245e-07
3.6395e-07
3.62885e-07
3.61143e-07
3.58982e-07
3.60171e-07
3.61608e-07
3.62352e-07
3.65161e-07
3.65854e-07
3.69429e-07
3.67994e-07
3.66267e-07
3.64468e-07
3.61378e-07
3.60668e-07
3.59404e-07
3.5933e-07
3.61543e-07
3.60954e-07
3.63948e-07
3.65971e-07
3.54554e-07
3.68952e-07
3.69126e-07
3.59636e-07
3.70879e-07
3.60176e-07
3.69338e-07
3.64906e-07
3.65694e-07
3.68749e-07
3.65479e-07
3.66436e-07
3.65192e-07
3.65967e-07
3.66942e-07
3.64917e-07
3.64653e-07
3.64929e-07
3.65692e-07
3.65313e-07
3.63564e-07
3.63898e-07
3.65013e-07
3.648e-07
3.63082e-07
3.62213e-07
3.63312e-07
3.63534e-07
3.61935e-07
3.60904e-07
3.61995e-07
3.63289e-07
3.62606e-07
3.61536e-07
3.62577e-07
3.64424e-07
3.64857e-07
3.63642e-07
3.63309e-07
3.64006e-07
3.62969e-07
3.6122e-07
3.59038e-07
3.60156e-07
3.61471e-07
3.62227e-07
3.64966e-07
3.65724e-07
3.69367e-07
3.67993e-07
3.6644e-07
3.64617e-07
3.61554e-07
3.60783e-07
3.59442e-07
3.59347e-07
3.61508e-07
3.60935e-07
3.63945e-07
3.66187e-07
3.54251e-07
3.69554e-07
3.68811e-07
3.6001e-07
3.70885e-07
3.60148e-07
3.69457e-07
3.64825e-07
3.65781e-07
3.68744e-07
3.65487e-07
3.66517e-07
3.65216e-07
3.66013e-07
3.66971e-07
3.64962e-07
3.64737e-07
3.64972e-07
3.65723e-07
3.65345e-07
3.63616e-07
3.63949e-07
3.6503e-07
3.64832e-07
3.63153e-07
3.62296e-07
3.63364e-07
3.63565e-07
3.61988e-07
3.60961e-07
3.62013e-07
3.6327e-07
3.62594e-07
3.61543e-07
3.62558e-07
3.64375e-07
3.64824e-07
3.63661e-07
3.63374e-07
3.64064e-07
3.63056e-07
3.61304e-07
3.59103e-07
3.60145e-07
3.61333e-07
3.62097e-07
3.64761e-07
3.65585e-07
3.69291e-07
3.67986e-07
3.66613e-07
3.64769e-07
3.61741e-07
3.60907e-07
3.59488e-07
3.59369e-07
3.61474e-07
3.60915e-07
3.63942e-07
3.66384e-07
3.53973e-07
3.70161e-07
3.68482e-07
3.60409e-07
3.70882e-07
3.6013e-07
3.69577e-07
3.6474e-07
3.65875e-07
3.68735e-07
3.65496e-07
3.66603e-07
3.65242e-07
3.66062e-07
3.67e-07
3.6501e-07
3.64827e-07
3.65018e-07
3.65757e-07
3.65378e-07
3.63672e-07
3.64003e-07
3.65049e-07
3.64866e-07
3.63228e-07
3.62385e-07
3.6342e-07
3.636e-07
3.62045e-07
3.61023e-07
3.62033e-07
3.63251e-07
3.62581e-07
3.61551e-07
3.62538e-07
3.64324e-07
3.64788e-07
3.63681e-07
3.63439e-07
3.64123e-07
3.63148e-07
3.61394e-07
3.59176e-07
3.60139e-07
3.61197e-07
3.61964e-07
3.64546e-07
3.65435e-07
3.69202e-07
3.67969e-07
3.66783e-07
3.64925e-07
3.61937e-07
3.61039e-07
3.59544e-07
3.59396e-07
3.61441e-07
3.60896e-07
3.63939e-07
3.66562e-07
3.53723e-07
3.70766e-07
3.68138e-07
3.60834e-07
3.7087e-07
3.60122e-07
3.69699e-07
3.64652e-07
3.65975e-07
3.68723e-07
3.65509e-07
3.66692e-07
3.65269e-07
3.66116e-07
3.6703e-07
3.65061e-07
3.6492e-07
3.65066e-07
3.65794e-07
3.65412e-07
3.63731e-07
3.6406e-07
3.65069e-07
3.64902e-07
3.63308e-07
3.62479e-07
3.63479e-07
3.63637e-07
3.62106e-07
3.61089e-07
3.62055e-07
3.63231e-07
3.62569e-07
3.6156e-07
3.62519e-07
3.6427e-07
3.64748e-07
3.63698e-07
3.63505e-07
3.64183e-07
3.63243e-07
3.6149e-07
3.59258e-07
3.60139e-07
3.61062e-07
3.61829e-07
3.64324e-07
3.65276e-07
3.69097e-07
3.67944e-07
3.66947e-07
3.65081e-07
3.62143e-07
3.61178e-07
3.59611e-07
3.59429e-07
3.6141e-07
3.60877e-07
3.63935e-07
3.66716e-07
3.53506e-07
3.71363e-07
3.67781e-07
3.61282e-07
3.70846e-07
3.60126e-07
3.69821e-07
3.64561e-07
3.66081e-07
3.68707e-07
3.65524e-07
3.66785e-07
3.65298e-07
3.66173e-07
3.67061e-07
3.65116e-07
3.65017e-07
3.65116e-07
3.65832e-07
3.65449e-07
3.63794e-07
3.64121e-07
3.6509e-07
3.64939e-07
3.63391e-07
3.62578e-07
3.63542e-07
3.63678e-07
3.62172e-07
3.6116e-07
3.6208e-07
3.63213e-07
3.62558e-07
3.61571e-07
3.62499e-07
3.64214e-07
3.64706e-07
3.63715e-07
3.6357e-07
3.64242e-07
3.6334e-07
3.61593e-07
3.59349e-07
3.60145e-07
3.60932e-07
3.61693e-07
3.64095e-07
3.65108e-07
3.68977e-07
3.67909e-07
3.67105e-07
3.65236e-07
3.62355e-07
3.61326e-07
3.59689e-07
3.59469e-07
3.61382e-07
3.60859e-07
3.63931e-07
3.66845e-07
3.53324e-07
3.71947e-07
3.67414e-07
3.61753e-07
3.70811e-07
3.60144e-07
3.69943e-07
3.64468e-07
3.66193e-07
3.68687e-07
3.65542e-07
3.66881e-07
3.65327e-07
3.66234e-07
3.67091e-07
3.65173e-07
3.65117e-07
3.65168e-07
3.65873e-07
3.65488e-07
3.63861e-07
3.64184e-07
3.65113e-07
3.64979e-07
3.63477e-07
3.62681e-07
3.63609e-07
3.63721e-07
3.62241e-07
3.61236e-07
3.62108e-07
3.63195e-07
3.62547e-07
3.61584e-07
3.6248e-07
3.64155e-07
3.6466e-07
3.63729e-07
3.63634e-07
3.64302e-07
3.6344e-07
3.61701e-07
3.5945e-07
3.60159e-07
3.60808e-07
3.61557e-07
3.63861e-07
3.64931e-07
3.68841e-07
3.67862e-07
3.67253e-07
3.6539e-07
3.62574e-07
3.6148e-07
3.59777e-07
3.59515e-07
3.61357e-07
3.60843e-07
3.63927e-07
3.66947e-07
3.53182e-07
3.72511e-07
3.67038e-07
3.62245e-07
3.70761e-07
3.60176e-07
3.70062e-07
3.64373e-07
3.66311e-07
3.68662e-07
3.65564e-07
3.66978e-07
3.65358e-07
3.66299e-07
3.67121e-07
3.65233e-07
3.6522e-07
3.65222e-07
3.65916e-07
3.65528e-07
3.63931e-07
3.64251e-07
3.65137e-07
3.6502e-07
3.63566e-07
3.62788e-07
3.63679e-07
3.63767e-07
3.62315e-07
3.61316e-07
3.62139e-07
3.63178e-07
3.62538e-07
3.61598e-07
3.62461e-07
3.64095e-07
3.64611e-07
3.63741e-07
3.63695e-07
3.6436e-07
3.63541e-07
3.61815e-07
3.59561e-07
3.6018e-07
3.60691e-07
3.61424e-07
3.63624e-07
3.64747e-07
3.68689e-07
3.67804e-07
3.6739e-07
3.6554e-07
3.62797e-07
3.6164e-07
3.59878e-07
3.59568e-07
3.61337e-07
3.60827e-07
3.63923e-07
3.67021e-07
3.53082e-07
3.73051e-07
3.66654e-07
3.62755e-07
3.70698e-07
3.60224e-07
3.70178e-07
3.64276e-07
3.66435e-07
3.68632e-07
3.65589e-07
3.67078e-07
3.6539e-07
3.66368e-07
3.67151e-07
3.65296e-07
3.65326e-07
3.65278e-07
3.65962e-07
3.6557e-07
3.64004e-07
3.64321e-07
3.65163e-07
3.65063e-07
3.63658e-07
3.62899e-07
3.63752e-07
3.63817e-07
3.62393e-07
3.614e-07
3.62173e-07
3.63163e-07
3.6253e-07
3.61614e-07
3.62442e-07
3.64033e-07
3.6456e-07
3.63751e-07
3.63754e-07
3.64416e-07
3.63642e-07
3.61934e-07
3.59681e-07
3.60211e-07
3.60583e-07
3.61293e-07
3.63385e-07
3.64556e-07
3.68521e-07
3.67734e-07
3.67514e-07
3.65686e-07
3.63024e-07
3.61807e-07
3.5999e-07
3.59629e-07
3.6132e-07
3.60813e-07
3.63919e-07
3.67066e-07
3.53027e-07
3.73559e-07
3.66265e-07
3.63283e-07
3.70618e-07
3.60289e-07
3.7029e-07
3.64179e-07
3.66564e-07
3.68596e-07
3.65618e-07
3.67179e-07
3.65423e-07
3.66441e-07
3.6718e-07
3.65361e-07
3.65434e-07
3.65335e-07
3.6601e-07
3.65614e-07
3.64082e-07
3.64393e-07
3.6519e-07
3.65107e-07
3.63752e-07
3.63012e-07
3.63828e-07
3.63869e-07
3.62475e-07
3.6149e-07
3.62211e-07
3.6315e-07
3.62525e-07
3.61632e-07
3.62425e-07
3.6397e-07
3.64505e-07
3.63757e-07
3.63809e-07
3.6447e-07
3.63744e-07
3.62057e-07
3.59811e-07
3.6025e-07
3.60485e-07
3.61167e-07
3.63146e-07
3.64359e-07
3.68337e-07
3.6765e-07
3.67623e-07
3.65825e-07
3.63253e-07
3.61978e-07
3.60114e-07
3.59697e-07
3.6131e-07
3.60802e-07
3.63915e-07
3.6708e-07
3.5302e-07
3.74032e-07
3.65873e-07
3.63824e-07
3.70522e-07
3.60373e-07
3.70397e-07
3.64081e-07
3.66698e-07
3.68553e-07
3.65651e-07
3.6728e-07
3.65456e-07
3.66517e-07
3.67208e-07
3.6543e-07
3.65544e-07
3.65395e-07
3.66061e-07
3.6566e-07
3.64163e-07
3.64468e-07
3.65219e-07
3.65152e-07
3.63848e-07
3.63129e-07
3.63906e-07
3.63924e-07
3.62561e-07
3.61584e-07
3.62252e-07
3.6314e-07
3.62522e-07
3.61653e-07
3.62409e-07
3.63905e-07
3.64447e-07
3.63761e-07
3.6386e-07
3.64521e-07
3.63844e-07
3.62185e-07
3.5995e-07
3.603e-07
3.60399e-07
3.61047e-07
3.62908e-07
3.64157e-07
3.68137e-07
3.67554e-07
3.67715e-07
3.65956e-07
3.63482e-07
3.62154e-07
3.60249e-07
3.59773e-07
3.61305e-07
3.60792e-07
3.63911e-07
3.67064e-07
3.53061e-07
3.74463e-07
3.6548e-07
3.64378e-07
3.70407e-07
3.60476e-07
3.70496e-07
3.63984e-07
3.66837e-07
3.68505e-07
3.65689e-07
3.67381e-07
3.6549e-07
3.66596e-07
3.67234e-07
3.65501e-07
3.65656e-07
3.65455e-07
3.66114e-07
3.65707e-07
3.64248e-07
3.64546e-07
3.65249e-07
3.65199e-07
3.63945e-07
3.63248e-07
3.63986e-07
3.63981e-07
3.62652e-07
3.61683e-07
3.62298e-07
3.63133e-07
3.62523e-07
3.61677e-07
3.62394e-07
3.6384e-07
3.64386e-07
3.6376e-07
3.63907e-07
3.64569e-07
3.63944e-07
3.62316e-07
3.60099e-07
3.60359e-07
3.60326e-07
3.60934e-07
3.62674e-07
3.63951e-07
3.67922e-07
3.67444e-07
3.6779e-07
3.66078e-07
3.63709e-07
3.62333e-07
3.60396e-07
3.59858e-07
3.61307e-07
3.60786e-07
3.63907e-07
3.67017e-07
3.53153e-07
3.74848e-07
3.65088e-07
3.64941e-07
3.70274e-07
3.60598e-07
3.70588e-07
3.63887e-07
3.66981e-07
3.68449e-07
3.65731e-07
3.67481e-07
3.65524e-07
3.66678e-07
3.67259e-07
3.65575e-07
3.65769e-07
3.65517e-07
3.6617e-07
3.65757e-07
3.64336e-07
3.64627e-07
3.6528e-07
3.65246e-07
3.64043e-07
3.63369e-07
3.64068e-07
3.64041e-07
3.62746e-07
3.61787e-07
3.62348e-07
3.6313e-07
3.62526e-07
3.61704e-07
3.62381e-07
3.63774e-07
3.64323e-07
3.63756e-07
3.63948e-07
3.64612e-07
3.6404e-07
3.6245e-07
3.60256e-07
3.60429e-07
3.60267e-07
3.60829e-07
3.62445e-07
3.63743e-07
3.67692e-07
3.6732e-07
3.67844e-07
3.66189e-07
3.63933e-07
3.62514e-07
3.60554e-07
3.5995e-07
3.61316e-07
3.60782e-07
3.63903e-07
3.6694e-07
3.53295e-07
3.75181e-07
3.64699e-07
3.6551e-07
3.70121e-07
3.60742e-07
3.7067e-07
3.63792e-07
3.67129e-07
3.68387e-07
3.65779e-07
3.67579e-07
3.65559e-07
3.66764e-07
3.67282e-07
3.65651e-07
3.65882e-07
3.65581e-07
3.66229e-07
3.65808e-07
3.64427e-07
3.64709e-07
3.65313e-07
3.65295e-07
3.64142e-07
3.6349e-07
3.64152e-07
3.64104e-07
3.62844e-07
3.61896e-07
3.62403e-07
3.63131e-07
3.62534e-07
3.61734e-07
3.6237e-07
3.63707e-07
3.64257e-07
3.63748e-07
3.63984e-07
3.64649e-07
3.64134e-07
3.62586e-07
3.6042e-07
3.60509e-07
3.60223e-07
3.60735e-07
3.62223e-07
3.63533e-07
3.6745e-07
3.67182e-07
3.67878e-07
3.66288e-07
3.64152e-07
3.62696e-07
3.60722e-07
3.6005e-07
3.61333e-07
3.60782e-07
3.639e-07
3.66832e-07
3.53489e-07
3.75459e-07
3.64317e-07
3.66081e-07
3.69948e-07
3.60908e-07
3.70741e-07
3.637e-07
3.67281e-07
3.68317e-07
3.65832e-07
3.67675e-07
3.65593e-07
3.66851e-07
3.67303e-07
3.65729e-07
3.65995e-07
3.65646e-07
3.6629e-07
3.65861e-07
3.64523e-07
3.64795e-07
3.65347e-07
3.65344e-07
3.64241e-07
3.63613e-07
3.64237e-07
3.64168e-07
3.62945e-07
3.62009e-07
3.62463e-07
3.63136e-07
3.62546e-07
3.61768e-07
3.62362e-07
3.63642e-07
3.64189e-07
3.63736e-07
3.64013e-07
3.64682e-07
3.64223e-07
3.62723e-07
3.60593e-07
3.606e-07
3.60195e-07
3.60652e-07
3.62011e-07
3.63324e-07
3.67195e-07
3.67031e-07
3.67891e-07
3.66373e-07
3.64364e-07
3.62878e-07
3.60899e-07
3.60159e-07
3.61358e-07
3.60786e-07
3.63897e-07
3.66695e-07
3.53734e-07
3.75677e-07
3.63943e-07
3.66652e-07
3.69754e-07
3.61095e-07
3.70799e-07
3.63611e-07
3.67436e-07
3.68239e-07
3.6589e-07
3.67768e-07
3.65627e-07
3.66941e-07
3.67321e-07
3.6581e-07
3.66108e-07
3.65711e-07
3.66354e-07
3.65915e-07
3.64621e-07
3.64882e-07
3.65384e-07
3.65394e-07
3.64341e-07
3.63736e-07
3.64323e-07
3.64235e-07
3.6305e-07
3.62126e-07
3.62528e-07
3.63146e-07
3.62562e-07
3.61805e-07
3.62356e-07
3.63577e-07
3.64119e-07
3.6372e-07
3.64036e-07
3.64708e-07
3.64308e-07
3.6286e-07
3.60771e-07
3.60702e-07
3.60183e-07
3.60582e-07
3.61808e-07
3.63116e-07
3.6693e-07
3.66866e-07
3.67881e-07
3.66444e-07
3.64567e-07
3.63059e-07
3.61085e-07
3.60275e-07
3.61392e-07
3.60793e-07
3.63895e-07
3.6653e-07
3.5403e-07
3.75832e-07
3.63581e-07
3.67217e-07
3.69538e-07
3.61304e-07
3.70843e-07
3.63527e-07
3.67593e-07
3.68152e-07
3.65954e-07
3.67857e-07
3.65662e-07
3.67033e-07
3.67336e-07
3.65892e-07
3.66219e-07
3.65777e-07
3.66419e-07
3.65971e-07
3.64723e-07
3.64972e-07
3.65421e-07
3.65445e-07
3.64439e-07
3.63859e-07
3.64409e-07
3.64303e-07
3.63158e-07
3.62248e-07
3.62598e-07
3.63162e-07
3.62583e-07
3.61848e-07
3.62354e-07
3.63513e-07
3.64048e-07
3.637e-07
3.64052e-07
3.64727e-07
3.64387e-07
3.62997e-07
3.60956e-07
3.60814e-07
3.60189e-07
3.60525e-07
3.61619e-07
3.62912e-07
3.66655e-07
3.66689e-07
3.67849e-07
3.66499e-07
3.64759e-07
3.63238e-07
3.61278e-07
3.60399e-07
3.61434e-07
3.60805e-07
3.63893e-07
3.66337e-07
3.54375e-07
3.75921e-07
3.63233e-07
3.67774e-07
3.69301e-07
3.61536e-07
3.70871e-07
3.63447e-07
3.67752e-07
3.68058e-07
3.66023e-07
3.67941e-07
3.65696e-07
3.67127e-07
3.67347e-07
3.65977e-07
3.6633e-07
3.65845e-07
3.66487e-07
3.66029e-07
3.64828e-07
3.65063e-07
3.65461e-07
3.65496e-07
3.64537e-07
3.63982e-07
3.64495e-07
3.64373e-07
3.63268e-07
3.62373e-07
3.62673e-07
3.63183e-07
3.6261e-07
3.61894e-07
3.62355e-07
3.63451e-07
3.63976e-07
3.63676e-07
3.64062e-07
3.6474e-07
3.64459e-07
3.63132e-07
3.61144e-07
3.60935e-07
3.60211e-07
3.60482e-07
3.61443e-07
3.62714e-07
3.66373e-07
3.66501e-07
3.67794e-07
3.66538e-07
3.64939e-07
3.63412e-07
3.61476e-07
3.60529e-07
3.61486e-07
3.60822e-07
3.63893e-07
3.66119e-07
3.54766e-07
3.75941e-07
3.62901e-07
3.68317e-07
3.69043e-07
3.61789e-07
3.70881e-07
3.63374e-07
3.67911e-07
3.67955e-07
3.66099e-07
3.68019e-07
3.65731e-07
3.67221e-07
3.67356e-07
3.66063e-07
3.66438e-07
3.65912e-07
3.66557e-07
3.66087e-07
3.64936e-07
3.65157e-07
3.65502e-07
3.65549e-07
3.64634e-07
3.64103e-07
3.64581e-07
3.64443e-07
3.63381e-07
3.62502e-07
3.62753e-07
3.6321e-07
3.62643e-07
3.61946e-07
3.62361e-07
3.63392e-07
3.63903e-07
3.63648e-07
3.64063e-07
3.64745e-07
3.64524e-07
3.63264e-07
3.61336e-07
3.61066e-07
3.60251e-07
3.60455e-07
3.61283e-07
3.62521e-07
3.66086e-07
3.66301e-07
3.67716e-07
3.66559e-07
3.65105e-07
3.63582e-07
3.6168e-07
3.60666e-07
3.61546e-07
3.60843e-07
3.63893e-07
3.65877e-07
3.55203e-07
3.75889e-07
3.6259e-07
3.68842e-07
3.68764e-07
3.62065e-07
3.70873e-07
3.63309e-07
3.6807e-07
3.67844e-07
3.66181e-07
3.6809e-07
3.65766e-07
3.67316e-07
3.6736e-07
3.66151e-07
3.66543e-07
3.6598e-07
3.66629e-07
3.66147e-07
3.65047e-07
3.65252e-07
3.65546e-07
3.65602e-07
3.64729e-07
3.64223e-07
3.64666e-07
3.64515e-07
3.63495e-07
3.62634e-07
3.62838e-07
3.63243e-07
3.62682e-07
3.62002e-07
3.62371e-07
3.63336e-07
3.63831e-07
3.63616e-07
3.64058e-07
3.64742e-07
3.64581e-07
3.63392e-07
3.61531e-07
3.61205e-07
3.60309e-07
3.60444e-07
3.6114e-07
3.62338e-07
3.65795e-07
3.66092e-07
3.67616e-07
3.66562e-07
3.65255e-07
3.63744e-07
3.61886e-07
3.60808e-07
3.61615e-07
3.60869e-07
3.63894e-07
3.65613e-07
3.55682e-07
3.75765e-07
3.62301e-07
3.69345e-07
3.68464e-07
3.62361e-07
3.70844e-07
3.63252e-07
3.68227e-07
3.67725e-07
3.66269e-07
3.68154e-07
3.65801e-07
3.67411e-07
3.67361e-07
3.6624e-07
3.66645e-07
3.66048e-07
3.66702e-07
3.66207e-07
3.65161e-07
3.65349e-07
3.65591e-07
3.65655e-07
3.64823e-07
3.64341e-07
3.6475e-07
3.64586e-07
3.63611e-07
3.62769e-07
3.62928e-07
3.63282e-07
3.62726e-07
3.62065e-07
3.62386e-07
3.63283e-07
3.63759e-07
3.63582e-07
3.64046e-07
3.64731e-07
3.64629e-07
3.63514e-07
3.61725e-07
3.61351e-07
3.60382e-07
3.60449e-07
3.61016e-07
3.62164e-07
3.65504e-07
3.65875e-07
3.67494e-07
3.66547e-07
3.65387e-07
3.63898e-07
3.62094e-07
3.60955e-07
3.61693e-07
3.609e-07
3.63897e-07
3.65328e-07
3.56199e-07
3.75568e-07
3.62039e-07
3.69821e-07
3.68146e-07
3.62676e-07
3.70793e-07
3.63205e-07
3.6838e-07
3.67597e-07
3.66364e-07
3.68209e-07
3.65837e-07
3.67505e-07
3.67357e-07
3.66331e-07
3.66742e-07
3.66116e-07
3.66776e-07
3.66268e-07
3.65277e-07
3.65447e-07
3.65639e-07
3.6571e-07
3.64915e-07
3.64457e-07
3.64832e-07
3.64658e-07
3.63728e-07
3.62907e-07
3.63023e-07
3.63327e-07
3.62778e-07
3.62132e-07
3.62406e-07
3.63235e-07
3.63689e-07
3.63544e-07
3.64027e-07
3.64712e-07
3.64668e-07
3.63631e-07
3.61919e-07
3.61504e-07
3.60473e-07
3.60472e-07
3.60911e-07
3.62002e-07
3.65215e-07
3.65651e-07
3.67352e-07
3.66514e-07
3.65501e-07
3.64043e-07
3.62301e-07
3.61106e-07
3.6178e-07
3.60936e-07
3.63901e-07
3.65026e-07
3.56752e-07
3.75297e-07
3.61804e-07
3.70266e-07
3.67809e-07
3.6301e-07
3.70718e-07
3.63168e-07
3.6853e-07
3.67462e-07
3.66464e-07
3.68255e-07
3.65874e-07
3.67598e-07
3.67349e-07
3.66422e-07
3.66836e-07
3.66184e-07
3.66851e-07
3.6633e-07
3.65396e-07
3.65546e-07
3.65689e-07
3.65765e-07
3.65005e-07
3.64571e-07
3.64913e-07
3.64729e-07
3.63845e-07
3.63046e-07
3.63122e-07
3.63379e-07
3.62835e-07
3.62206e-07
3.62432e-07
3.63192e-07
3.63621e-07
3.63505e-07
3.64001e-07
3.64684e-07
3.64697e-07
3.6374e-07
3.6211e-07
3.61663e-07
3.60578e-07
3.60511e-07
3.60826e-07
3.61854e-07
3.64929e-07
3.65422e-07
3.67191e-07
3.66463e-07
3.65595e-07
3.64177e-07
3.62505e-07
3.6126e-07
3.61874e-07
3.60977e-07
3.63907e-07
3.64708e-07
3.57334e-07
3.74954e-07
3.61601e-07
3.70674e-07
3.67456e-07
3.63361e-07
3.70617e-07
3.63144e-07
3.68673e-07
3.6732e-07
3.66571e-07
3.68291e-07
3.65911e-07
3.67688e-07
3.67337e-07
3.66513e-07
3.66924e-07
3.66252e-07
3.66927e-07
3.66391e-07
3.65517e-07
3.65646e-07
3.65742e-07
3.65821e-07
3.65094e-07
3.64682e-07
3.64991e-07
3.648e-07
3.63962e-07
3.63186e-07
3.63226e-07
3.63437e-07
3.62899e-07
3.62285e-07
3.62465e-07
3.63154e-07
3.63556e-07
3.63464e-07
3.63969e-07
3.64649e-07
3.64715e-07
3.63841e-07
3.62298e-07
3.61825e-07
3.60697e-07
3.60566e-07
3.60763e-07
3.6172e-07
3.64649e-07
3.6519e-07
3.67012e-07
3.66393e-07
3.65668e-07
3.64299e-07
3.62705e-07
3.61416e-07
3.61976e-07
3.61022e-07
3.63913e-07
3.64377e-07
3.57943e-07
3.74539e-07
3.61431e-07
3.71041e-07
3.67088e-07
3.63727e-07
3.70491e-07
3.63133e-07
3.68808e-07
3.6717e-07
3.66683e-07
3.68315e-07
3.6595e-07
3.67776e-07
3.67321e-07
3.66605e-07
3.67006e-07
3.66319e-07
3.67001e-07
3.66453e-07
3.65639e-07
3.65747e-07
3.65797e-07
3.65878e-07
3.6518e-07
3.64791e-07
3.65067e-07
3.64869e-07
3.64078e-07
3.63326e-07
3.63333e-07
3.63501e-07
3.6297e-07
3.62371e-07
3.62504e-07
3.63123e-07
3.63494e-07
3.63422e-07
3.63932e-07
3.64605e-07
3.64723e-07
3.63932e-07
3.6248e-07
3.61989e-07
3.6083e-07
3.60638e-07
3.60722e-07
3.61603e-07
3.64379e-07
3.64957e-07
3.66817e-07
3.66306e-07
3.6572e-07
3.64407e-07
3.62898e-07
3.61572e-07
3.62084e-07
3.61073e-07
3.63922e-07
3.64036e-07
3.58571e-07
3.74055e-07
3.61297e-07
3.71362e-07
3.66708e-07
3.64105e-07
3.70337e-07
3.63136e-07
3.68933e-07
3.67015e-07
3.668e-07
3.68327e-07
3.65991e-07
3.67861e-07
3.673e-07
3.66697e-07
3.67082e-07
3.66385e-07
3.67076e-07
3.66513e-07
3.65762e-07
3.65848e-07
3.65854e-07
3.65936e-07
3.65265e-07
3.64897e-07
3.65141e-07
3.64937e-07
3.64193e-07
3.63466e-07
3.63443e-07
3.6357e-07
3.63047e-07
3.62462e-07
3.62549e-07
3.63099e-07
3.63437e-07
3.6338e-07
3.6389e-07
3.64555e-07
3.64721e-07
3.64014e-07
3.62655e-07
3.62154e-07
3.60974e-07
3.60726e-07
3.60702e-07
3.61503e-07
3.64119e-07
3.64725e-07
3.66608e-07
3.66202e-07
3.6575e-07
3.64501e-07
3.63082e-07
3.61727e-07
3.62197e-07
3.61128e-07
3.63932e-07
3.63686e-07
3.59215e-07
3.73504e-07
3.612e-07
3.71633e-07
3.6632e-07
3.64492e-07
3.70156e-07
3.63155e-07
3.69046e-07
3.66854e-07
3.66921e-07
3.68327e-07
3.66033e-07
3.67941e-07
3.67275e-07
3.66789e-07
3.67151e-07
3.66451e-07
3.67149e-07
3.66573e-07
3.65887e-07
3.65949e-07
3.65915e-07
3.65995e-07
3.65348e-07
3.65e-07
3.65212e-07
3.65004e-07
3.64306e-07
3.63606e-07
3.63555e-07
3.63645e-07
3.6313e-07
3.6256e-07
3.62602e-07
3.63082e-07
3.63386e-07
3.63339e-07
3.63844e-07
3.64497e-07
3.64708e-07
3.64084e-07
3.62821e-07
3.62318e-07
3.61127e-07
3.60828e-07
3.60704e-07
3.61421e-07
3.63873e-07
3.64496e-07
3.66388e-07
3.66083e-07
3.65758e-07
3.6458e-07
3.63257e-07
3.6188e-07
3.62315e-07
3.61187e-07
3.63944e-07
3.63331e-07
3.59868e-07
3.72892e-07
3.61143e-07
3.71851e-07
3.65925e-07
3.64887e-07
3.69945e-07
3.6319e-07
3.69145e-07
3.66689e-07
3.67047e-07
3.68314e-07
3.66078e-07
3.68016e-07
3.67246e-07
3.6688e-07
3.67212e-07
3.66515e-07
3.67219e-07
3.66632e-07
3.66011e-07
3.66049e-07
3.65978e-07
3.66055e-07
3.65429e-07
3.651e-07
3.6528e-07
3.65068e-07
3.64416e-07
3.63744e-07
3.63669e-07
3.63724e-07
3.63219e-07
3.62663e-07
3.62662e-07
3.63074e-07
3.6334e-07
3.63299e-07
3.63794e-07
3.64433e-07
3.64684e-07
3.64142e-07
3.62978e-07
3.6248e-07
3.61288e-07
3.60944e-07
3.60728e-07
3.61358e-07