/*--------------------------------*- C++ -*----------------------------------*\
| =========                 |                                                 |
| \\      /  F ield         | foam-extend: Open Source CFD                    |
|  \\    /   O peration     | Version:     4.0                                |
|   \\  /    A nd           | Web:         http://www.foam-extend.org         |
|    \\/     M anipulation  |                                                 |
\*---------------------------------------------------------------------------*/
FoamFile
{
    version     2.0;
    format      ascii;
    class       surfaceScalarField;
    location    "17";
    object      phi;
}
// * * * * * * * * * * * * * * * * * * * * * * * * * * * * * * * * * * * * * //

dimensions      [0 3 -1 0 0 0 0];

internalField   nonuniform List<scalar> 
13744
(
-1.81717e-25
-3.56925e-22
-1.33721e-25
-1.16392e-25
-1.72935e-26
-1.65972e-25
2.77118e-27
5.82553e-26
-5.2904e-26
-5.79546e-26
-1.4107e-27
-2.663e-27
-5.14914e-26
1.05455e-26
-3.51897e-26
-2.14002e-26
-4.17419e-26
1.75782e-26
-4.84788e-26
-1.20047e-26
-3.58799e-26
-3.48048e-28
-4.16055e-26
-6.26687e-27
-3.02642e-26
-1.23788e-26
-2.69345e-26
-2.36227e-27
-2.97684e-26
-4.71292e-27
-2.96565e-26
-2.39109e-27
-3.51344e-26
-6.04392e-28
-3.80302e-26
-1.86893e-27
-4.45884e-26
2.63089e-27
-5.25763e-26
-1.33138e-27
-5.33845e-26
-4.66457e-27
-4.93954e-26
-7.40556e-27
-4.03777e-26
-9.15187e-27
-3.09001e-26
-1.00875e-26
-1.93203e-26
-1.41859e-26
-5.62223e-27
-1.35813e-26
2.85806e-27
-8.59552e-27
2.15754e-27
-2.53868e-27
-5.79295e-27
8.22556e-28
-1.49239e-26
2.82934e-27
-2.44576e-26
6.75052e-27
-3.58063e-26
8.45016e-27
-4.46479e-26
5.13168e-27
-4.52606e-26
-3.86594e-28
-3.74997e-26
-3.3346e-27
-2.7401e-26
-2.51076e-27
-1.79812e-26
-3.58231e-27
-5.55857e-27
-6.25145e-27
8.80283e-27
-7.09603e-27
2.15726e-26
-7.49255e-27
2.66281e-26
-5.20776e-27
2.55925e-26
-8.08548e-27
2.23755e-26
-3.7338e-27
1.04725e-26
3.64925e-27
-3.25566e-27
1.11565e-26
-2.39292e-26
2.40147e-26
-3.52128e-26
1.78742e-26
-3.41815e-26
2.57031e-26
-2.99486e-26
1.23879e-26
-4.1542e-27
-1.21448e-27
1.44803e-26
-6.16458e-27
4.02499e-26
-3.24265e-26
5.40134e-26
-1.65044e-26
4.53085e-26
-2.20653e-26
3.62248e-26
-7.99621e-27
1.41228e-26
7.73612e-27
1.72011e-27
5.38319e-27
-6.49044e-28
1.16549e-26
-5.55362e-27
1.04884e-26
4.15698e-27
-2.31911e-25
-3.56563e-22
-4.08751e-25
-2.25668e-25
-5.10298e-26
-5.45744e-25
-2.05579e-26
2.05166e-25
-1.45018e-25
-2.28829e-25
-2.37289e-26
2.35617e-26
-1.47489e-25
-1.2048e-27
-1.14011e-25
-5.31199e-26
-1.30964e-25
5.75644e-26
-1.45761e-25
-4.52088e-26
-1.17151e-25
8.85225e-27
-1.28487e-25
-2.80738e-26
-9.64773e-26
-3.88453e-26
-8.36879e-26
-1.33955e-26
-9.07397e-26
-2.19495e-26
-9.43919e-26
-1.89263e-27
-1.09506e-25
3.04021e-27
-1.18624e-25
2.88203e-27
-1.39539e-25
1.53273e-26
-1.66273e-25
2.75823e-27
-1.71937e-25
-5.84838e-27
-1.58202e-25
-2.25055e-26
-1.29995e-25
-3.47204e-26
-1.0204e-25
-4.1285e-26
-6.71734e-26
-5.33835e-26
-2.30265e-26
-5.14274e-26
6.94678e-27
-3.79989e-26
5.24946e-27
-1.44145e-26
-2.06777e-26
5.65915e-27
-4.8685e-26
1.91269e-26
-7.69363e-26
3.20824e-26
-1.12899e-25
3.58758e-26
-1.43681e-25
2.60716e-26
-1.47224e-25
5.79416e-27
-1.2136e-25
-1.26922e-26
-8.90224e-26
-1.89355e-26
-6.03614e-26
-2.4494e-26
-2.34368e-26
-2.76795e-26
2.19611e-26
-2.78802e-26
6.26452e-26
-2.68653e-26
7.60335e-26
-1.60225e-26
7.34847e-26
-2.23189e-26
6.27812e-26
-5.87774e-27
3.21377e-26
7.58564e-27
-8.31764e-27
3.17378e-26
-7.20118e-26
6.93052e-26
-1.02117e-25
5.20593e-26
-1.05806e-25
8.56342e-26
-8.96737e-26
3.67959e-26
-2.03366e-26
1.30445e-26
3.37113e-26
-9.03053e-27
1.13965e-25
-8.9575e-26
1.53003e-25
-4.13851e-26
1.32655e-25
-7.33167e-26
1.05198e-25
-2.34946e-26
3.91277e-26
2.04994e-26
5.30967e-27
1.21471e-26
-6.8102e-27
3.84584e-26
-1.57528e-26
3.02729e-26
1.41814e-26
-3.23051e-25
-3.55894e-22
-6.76119e-25
-4.50962e-25
-9.14167e-26
-1.00631e-24
-6.31373e-26
3.95573e-25
-2.39105e-25
-4.82423e-25
-5.79279e-26
9.20135e-26
-2.46975e-25
-5.75661e-26
-2.01615e-25
-7.27036e-26
-2.27999e-25
1.07237e-25
-2.49097e-25
-9.06013e-26
-2.08029e-25
3.14847e-26
-2.23248e-25
-6.71709e-26
-1.7033e-25
-6.99372e-26
-1.45981e-25
-3.22584e-26
-1.56771e-25
-4.85119e-26
-1.65987e-25
6.8454e-27
-1.90469e-25
1.54399e-26
-2.05843e-25
2.45318e-26
-2.42282e-25
4.35215e-26
-2.90508e-25
1.66733e-26
-3.0334e-25
3.17031e-28
-2.79028e-25
-4.23025e-26
-2.30611e-25
-7.42847e-26
-1.84217e-25
-9.47287e-26
-1.25422e-25
-1.1722e-25
-4.764e-26
-1.10263e-25
7.78678e-27
-8.42035e-26
5.9942e-27
-3.32911e-26
-3.91151e-26
1.61709e-26
-8.64233e-26
5.298e-26
-1.33383e-25
8.01934e-26
-1.96003e-25
8.30027e-26
-2.52514e-25
6.03088e-26
-2.6073e-25
1.50379e-26
-2.1521e-25
-3.18308e-26
-1.58988e-25
-5.66545e-26
-1.10548e-25
-7.20476e-26
-4.84819e-26
-6.99526e-26
3.0757e-26
-6.22181e-26
1.02133e-25
-5.09367e-26
1.23903e-25
-2.61615e-26
1.20205e-25
-3.37353e-26
1.02059e-25
-1.36641e-27
5.53193e-26
8.34361e-27
-1.20467e-26
5.18457e-26
-1.20638e-25
1.07849e-25
-1.6913e-25
8.25107e-26
-1.80928e-25
1.54816e-25
-1.51916e-25
5.94223e-26
-4.25496e-26
4.94883e-26
4.65951e-26
-1.60208e-27
1.84069e-25
-1.37672e-25
2.48817e-25
-5.4044e-26
2.20016e-25
-1.36136e-25
1.74104e-25
-3.83764e-26
6.34654e-26
2.99928e-26
8.83768e-27
1.28699e-26
-1.57825e-26
6.98359e-26
-2.65166e-26
4.97964e-26
2.81299e-26
-4.65298e-25
-3.55204e-22
-9.57987e-25
-8.34677e-25
-1.42357e-25
-1.5432e-24
-1.19381e-25
6.17705e-25
-3.42873e-25
-8.13091e-25
-9.95811e-26
1.99785e-25
-3.54726e-25
-1.59626e-25
-2.97121e-25
-7.95719e-26
-3.32939e-25
1.64378e-25
-3.6057e-25
-1.46065e-25
-3.07513e-25
6.70875e-26
-3.27167e-25
-1.24073e-25
-2.52237e-25
-1.05037e-25
-2.14948e-25
-5.84519e-26
-2.29414e-25
-8.3096e-26
-2.44475e-25
2.37117e-26
-2.78432e-25
3.63893e-26
-2.99796e-25
6.40167e-26
-3.52593e-25
8.79518e-26
-4.24512e-25
4.01161e-26
-4.46087e-25
1.20292e-26
-4.11224e-25
-6.82495e-26
-3.42142e-25
-1.28608e-25
-2.77385e-25
-1.7206e-25
-1.9407e-25
-2.08254e-25
-8.0053e-26
-1.9194e-25
3.92334e-27
-1.47318e-25
3.36096e-27
-5.91361e-26
-6.10329e-26
3.11813e-26
-1.27499e-25
1.03102e-25
-1.93053e-25
1.50815e-25
-2.83925e-25
1.49501e-25
-3.69076e-25
1.05743e-25
-3.83647e-25
2.40692e-26
-3.18068e-25
-6.32282e-26
-2.37143e-25
-1.17455e-25
-1.68647e-25
-1.48546e-25
-8.06047e-26
-1.36054e-25
3.49229e-26
-1.12057e-25
1.39454e-25
-7.98649e-26
1.70718e-25
-3.59794e-26
1.66388e-25
-4.30693e-26
1.41731e-25
8.14225e-27
8.03871e-26
4.98559e-27
-1.41119e-26
7.01116e-26
-1.6882e-25
1.36253e-25
-2.36918e-25
1.06751e-25
-2.58267e-25
2.29551e-25
-2.1714e-25
7.89515e-26
-6.93197e-26
1.06576e-25
5.49813e-26
1.45792e-26
2.51347e-25
-1.75918e-25
3.43456e-25
-5.49179e-26
3.08209e-25
-2.09789e-25
2.44255e-25
-5.36482e-26
8.87848e-26
3.45314e-26
1.26609e-26
5.67295e-27
-2.58806e-26
1.03224e-25
-3.83235e-26
6.63322e-26
4.46305e-26
-6.18492e-25
-3.54308e-22
-1.25988e-24
-1.37008e-24
-2.04254e-25
-2.15659e-24
-1.90153e-25
8.63602e-25
-4.56927e-25
-1.21673e-24
-1.49237e-25
3.45929e-25
-4.71431e-25
-3.10131e-25
-4.00905e-25
-7.23362e-26
-4.46393e-25
2.26786e-25
-4.80831e-25
-2.10329e-25
-4.16112e-25
1.15739e-25
-4.40838e-25
-1.99118e-25
-3.4288e-25
-1.43299e-25
-2.91471e-25
-9.25734e-26
-3.09457e-25
-1.2584e-25
-3.30353e-25
4.82081e-26
-3.73784e-25
6.56575e-26
-4.00854e-25
1.22113e-25
-4.70757e-25
1.49159e-25
-5.68312e-25
7.37638e-26
-6.00088e-25
2.99078e-26
-5.54948e-25
-9.96738e-26
-4.65027e-25
-1.97281e-25
-3.82036e-25
-2.7382e-25
-2.73613e-25
-3.27464e-25
-1.20959e-25
-2.97447e-25
-5.51207e-27
-2.28345e-25
-3.28873e-27
-9.32238e-26
-8.65972e-26
4.94366e-26
-1.71797e-25
1.69019e-25
-2.55762e-25
2.44279e-25
-3.76313e-25
2.3594e-25
-4.92746e-25
1.62834e-25
-5.15372e-25
3.34061e-26
-4.29728e-25
-1.06381e-25
-3.2365e-25
-2.01527e-25
-2.34916e-25
-2.55054e-25
-1.20065e-25
-2.27453e-25
3.4043e-26
-1.78445e-25
1.74119e-25
-1.14199e-25
2.16235e-25
-4.58883e-26
2.12151e-25
-5.03162e-26
1.82183e-25
2.26017e-26
1.07742e-25
-2.43515e-27
-1.39888e-26
8.56723e-26
-2.15892e-25
1.52751e-25
-3.04943e-25
1.23365e-25
-3.37416e-25
3.0784e-25
-2.85223e-25
9.48696e-26
-1.00605e-25
1.84067e-25
5.89154e-26
4.01846e-26
3.1573e-25
-2.01822e-25
4.37001e-25
-4.24572e-26
3.97571e-25
-2.92098e-25
3.1623e-25
-6.84084e-26
1.15869e-25
3.39946e-26
1.74964e-26
-9.52316e-27
-3.65842e-26
1.37535e-25
-5.09641e-26
7.89377e-26
6.26708e-26
-7.76365e-25
-3.53221e-22
-1.57848e-24
-2.04548e-24
-2.77661e-25
-2.84339e-24
-2.76629e-25
1.12489e-24
-5.81946e-25
-1.68828e-24
-2.07573e-25
5.2901e-25
-5.97777e-25
-5.11528e-25
-5.13411e-25
-4.96979e-26
-5.68969e-25
2.91929e-25
-6.10502e-25
-2.81955e-25
-5.34392e-25
1.77404e-25
-5.6492e-25
-2.924e-25
-4.4298e-25
-1.8383e-25
-3.76385e-25
-1.35317e-25
-3.97656e-25
-1.7691e-25
-4.24157e-25
7.96867e-26
-4.76959e-25
1.02879e-25
-5.09383e-25
1.99378e-25
-5.97069e-25
2.27521e-25
-7.22063e-25
1.18362e-25
-7.65471e-25
5.47362e-26
-7.10546e-25
-1.35719e-25
-5.99858e-25
-2.79716e-25
-4.98877e-25
-4.00323e-25
-3.64816e-25
-4.7562e-25
-1.71237e-25
-4.27772e-25
-2.14421e-26
-3.28487e-25
-1.46409e-26
-1.37082e-25
-1.16093e-25
6.94419e-26
-2.19319e-25
2.49973e-25
-3.21377e-25
3.60605e-25
-4.72905e-25
3.4273e-25
-6.23135e-25
2.32142e-25
-6.55606e-25
4.38132e-26
-5.50222e-25
-1.60543e-25
-4.18848e-25
-3.08826e-25
-3.09829e-25
-3.92398e-25
-1.67379e-25
-3.45458e-25
2.75175e-26
-2.62499e-25
2.0552e-25
-1.54715e-25
2.60066e-25
-5.65195e-26
2.57403e-25
-5.56153e-26
2.2359e-25
4.19121e-26
1.37686e-25
-1.39308e-26
-1.12259e-26
9.76987e-26
-2.61251e-25
1.55691e-25
-3.72696e-25
1.30978e-25
-4.18008e-25
3.87761e-25
-3.56062e-25
1.0662e-25
-1.36524e-25
2.81671e-25
5.82031e-26
7.58799e-26
3.76887e-25
-2.1305e-25
5.29244e-25
-1.51492e-26
4.88187e-25
-3.808e-25
3.90349e-25
-8.16633e-26
1.45275e-25
2.85439e-26
2.38731e-26
-3.26794e-26
-4.7546e-26
1.71768e-25
-6.43118e-26
8.67513e-26
8.1197e-26
-9.42306e-25
-3.51928e-22
-1.91222e-24
-2.85277e-24
-3.63181e-25
-3.59837e-24
-3.80165e-25
1.39266e-24
-7.18663e-25
-2.22189e-24
-2.75351e-25
7.47312e-25
-7.34484e-25
-7.66117e-25
-6.35125e-25
-1.02382e-26
-7.0129e-25
3.56953e-25
-7.50204e-25
-3.59295e-25
-6.62957e-25
2.51976e-25
-7.00126e-25
-4.03889e-25
-5.5329e-25
-2.25658e-25
-4.70541e-25
-1.87459e-25
-4.94784e-25
-2.36446e-25
-5.26467e-25
1.17399e-25
-5.88425e-25
1.47572e-25
-6.25764e-25
2.96248e-25
-7.31836e-25
3.23337e-25
-8.85977e-25
1.74746e-25
-9.42457e-25
8.74258e-26
-8.7845e-25
-1.7538e-25
-7.47307e-25
-3.75148e-25
-6.2873e-25
-5.51694e-25
-4.68591e-25
-6.53357e-25
-2.31889e-25
-5.83935e-25
-4.4864e-26
-4.49098e-25
-3.1448e-26
-1.92424e-25
-1.4989e-25
8.94972e-26
-2.70132e-25
3.44965e-25
-3.89792e-25
4.99601e-25
-5.73463e-25
4.70215e-25
-7.59935e-25
3.1433e-25
-8.04157e-25
5.62362e-26
-6.79673e-25
-2.24781e-25
-5.23161e-25
-4.39125e-25
-3.93969e-25
-5.61256e-25
-2.23201e-25
-4.91355e-25
1.46295e-26
-3.65481e-25
2.32959e-25
-2.02426e-25
3.01723e-25
-6.87041e-26
3.01932e-25
-5.92352e-26
2.66013e-25
6.59258e-26
1.70468e-25
-2.94786e-26
-5.40369e-27
1.05497e-25
-3.04309e-25
1.43625e-25
-4.39667e-25
1.28356e-25
-4.9967e-25
4.67429e-25
-4.29545e-25
1.13588e-25
-1.77255e-25
3.98914e-25
5.25393e-26
1.22105e-25
4.34356e-25
-2.07456e-25
6.19825e-25
2.83874e-26
5.80012e-25
-4.7355e-25
4.66815e-25
-9.22575e-26
1.77469e-25
1.85484e-26
3.22474e-26
-6.35667e-26
-5.84866e-26
2.04986e-25
-7.82712e-26
8.89629e-26
9.90756e-26
-1.11804e-24
-3.50425e-22
-2.2611e-24
-3.78359e-24
-4.61437e-25
-4.41582e-24
-5.02242e-25
1.65748e-24
-8.67849e-25
-2.81078e-24
-3.53401e-25
9.9869e-25
-8.82313e-25
-1.07594e-24
-7.66563e-25
4.74811e-26
-8.4401e-25
4.18689e-25
-9.00572e-25
-4.40497e-25
-8.02436e-25
3.39231e-25
-8.47212e-25
-5.33416e-25
-6.74605e-25
-2.67737e-25
-5.74816e-25
-2.4984e-25
-6.01647e-25
-3.04546e-25
-6.37904e-25
1.60474e-25
-7.08692e-25
1.99146e-25
-7.5039e-25
4.13052e-25
-8.75374e-25
4.36824e-25
-1.06029e-24
2.4382e-25
-1.13131e-24
1.28991e-25
-1.05913e-24
-2.17495e-25
-9.08093e-25
-4.82627e-25
-7.72493e-25
-7.27882e-25
-5.8596e-25
-8.61182e-25
-3.04023e-25
-7.66966e-25
-7.68591e-26
-5.91642e-25
-5.45399e-26
-2.61136e-25
-1.88435e-25
1.07683e-25
-3.24358e-25
4.52755e-25
-4.60915e-25
6.60865e-25
-6.77754e-25
6.18661e-25
-9.02858e-25
4.10125e-25
-9.60876e-25
7.17795e-26
-8.18243e-25
-2.97968e-25
-6.37053e-25
-5.91993e-25
-4.87987e-25
-7.62152e-25
-2.88279e-25
-6.66396e-25
-5.42972e-27
-4.88762e-25
2.55656e-25
-2.58538e-25
3.40631e-25
-8.34516e-26
3.45435e-25
-6.15608e-26
3.09436e-25
9.4444e-26
2.06295e-25
-4.90104e-26
3.87796e-27
1.08446e-25
-3.44476e-25
1.15223e-25
-5.0533e-25
1.14302e-25
-5.8201e-25
5.44895e-25
-5.05538e-25
1.15087e-25
-2.23002e-25
5.35078e-25
4.15605e-26
1.79143e-25
4.87591e-25
-1.83016e-25
7.08292e-25
8.94692e-26
6.7292e-25
-5.67809e-25
5.45759e-25
-9.88772e-26
2.12866e-25
4.61121e-27
4.30457e-26
-1.01784e-25
-6.91522e-26
2.36294e-25
-9.2758e-26
8.47996e-26
1.15081e-25
-1.30373e-24
-3.4871e-22
-2.62522e-24
-4.82752e-24
-5.73036e-25
-5.28968e-24
-6.44434e-25
1.90946e-24
-1.03031e-24
-3.44717e-24
-4.42618e-25
1.28055e-24
-1.04208e-24
-1.44273e-24
-9.08268e-25
1.24914e-25
-9.97819e-25
4.73662e-25
-1.06226e-24
-5.23484e-25
-9.53488e-25
4.3882e-25
-1.00697e-24
-6.80665e-25
-8.0775e-25
-3.08925e-25
-6.90132e-25
-3.23358e-25
-7.19091e-25
-3.81277e-25
-7.59135e-25
2.0789e-25
-8.3831e-25
2.56885e-25
-8.83676e-25
5.49992e-25
-1.02801e-24
5.68106e-25
-1.24524e-24
3.26542e-25
-1.3323e-24
1.80543e-25
-1.25309e-24
-2.60732e-25
-1.08296e-24
-6.01003e-25
-9.31123e-25
-9.28649e-25
-7.18027e-25
-1.09947e-24
-3.88844e-25
-9.7788e-25
-1.186e-25
-7.57681e-25
-8.48328e-26
-3.45278e-25
-2.32252e-25
1.21849e-25
-3.82171e-25
5.71844e-25
-5.34676e-25
8.43775e-25
-7.85545e-25
7.88223e-25
-1.05162e-24
5.20289e-25
-1.12561e-24
9.16921e-26
-9.66099e-25
-3.78772e-25
-7.61007e-25
-7.66788e-25
-5.92582e-25
-9.95443e-25
-3.63434e-25
-8.71796e-25
-3.35504e-26
-6.3381e-25
2.72746e-25
-3.24444e-25
3.76132e-25
-1.01947e-25
3.87525e-25
-6.309e-26
3.53769e-25
1.27225e-25
2.45334e-25
-7.23916e-26
1.70013e-26
1.05999e-25
-3.81158e-25
6.9277e-26
-5.69134e-25
8.76521e-26
-6.64605e-25
6.18106e-25
-5.83882e-25
1.10323e-25
-2.7397e-25
6.89148e-25
2.48701e-26
2.47081e-25
5.35994e-25
-1.37856e-25
7.94122e-25
1.69343e-25
7.66721e-25
-6.6084e-25
6.27264e-25
-1.00032e-25
2.51858e-25
-1.24101e-26
5.6683e-26
-1.46733e-25
-7.92952e-26
2.64858e-25
-1.07688e-25
7.35207e-26
1.27872e-25
-1.49951e-24
-3.46781e-22
-3.00448e-24
-5.97212e-24
-6.98557e-25
-6.21333e-24
-8.08389e-25
2.13835e-24
-1.20689e-24
-4.12231e-24
-5.4395e-25
1.58981e-24
-1.21464e-24
-1.86783e-24
-1.06081e-24
2.23512e-25
-1.16344e-24
5.18091e-25
-1.23593e-24
-6.05959e-25
-1.11679e-24
5.50255e-25
-1.18025e-24
-8.45156e-25
-9.53584e-25
-3.47986e-25
-8.17458e-25
-4.08959e-25
-8.48012e-25
-4.66657e-25
-8.90875e-25
2.5848e-25
-9.77873e-25
3.19941e-25
-1.02606e-24
7.07136e-25
-1.19008e-24
7.17199e-25
-1.4411e-24
4.23916e-25
-1.54572e-24
2.43287e-25
-1.46081e-24
-3.03588e-25
-1.27269e-24
-7.28914e-25
-1.10562e-24
-1.15355e-24
-8.65969e-25
-1.36842e-24
-4.87643e-25
-1.21767e-24
-1.71357e-25
-9.48858e-25
-1.23337e-25
-4.47082e-25
-2.8195e-25
1.29609e-25
-4.43804e-25
7.00466e-25
-6.11025e-25
1.04747e-24
-8.96594e-25
9.7894e-25
-1.2059e-24
6.45608e-25
-1.2982e-24
1.17362e-25
-1.1234e-24
-4.65655e-25
-8.95516e-25
-9.62645e-25
-7.08488e-25
-1.26131e-24
-4.49549e-25
-1.10872e-24
-7.06978e-26
-8.02185e-25
2.83288e-25
-4.01729e-25
4.07485e-25
-1.25559e-25
4.27738e-25
-6.44406e-26
3.98857e-25
1.63981e-25
2.87707e-25
-9.94073e-26
3.4328e-26
9.77091e-26
-4.1376e-25
4.72277e-27
-6.30505e-25
4.72799e-26
-7.47001e-25
6.84904e-25
-6.64386e-25
9.8378e-26
-3.30356e-25
8.59775e-25
2.05475e-27
3.25779e-25
5.78924e-25
-7.02817e-26
8.76738e-25
2.69164e-25
8.6117e-25
-7.4971e-25
7.11373e-25
-9.40438e-26
2.94815e-25
-3.13756e-26
7.35724e-26
-1.97595e-25
-8.86629e-26
2.89935e-25
-1.22971e-25
5.44214e-26
1.35977e-25
-1.70582e-24
-3.4464e-22
-3.39866e-24
-7.2031e-24
-8.38526e-25
-7.17959e-24
-9.95811e-25
2.33362e-24
-1.39842e-24
-4.8264e-24
-6.58405e-25
1.92287e-24
-1.40093e-24
-2.35211e-24
-1.22476e-24
3.44707e-25
-1.34165e-24
5.47905e-25
-1.42227e-24
-6.85397e-25
-1.29304e-24
6.7289e-25
-1.3679e-24
-1.02623e-24
-1.113e-24
-3.83584e-25
-9.5781e-25
-5.07625e-25
-9.89356e-25
-5.60642e-25
-1.03389e-24
3.10927e-25
-1.12802e-24
3.87345e-25
-1.17801e-24
8.84414e-25
-1.36193e-24
8.84004e-25
-1.64809e-24
5.36985e-25
-1.77184e-24
3.18509e-25
-1.68281e-24
-3.44382e-25
-1.47804e-24
-8.64782e-25
-1.29702e-24
-1.40194e-24
-1.03103e-24
-1.6681e-24
-6.01801e-25
-1.48728e-24
-2.365e-25
-1.16688e-24
-1.71166e-25
-5.68938e-25
-3.38225e-25
1.28341e-25
-5.09552e-25
8.36576e-25
-6.89943e-25
1.27082e-24
-1.01066e-24
1.19071e-24
-1.36539e-24
7.86869e-25
-1.47845e-24
1.50302e-25
-1.29027e-24
-5.56878e-25
-1.04107e-24
-1.17847e-24
-8.36458e-25
-1.55974e-24
-5.47554e-25
-1.37829e-24
-1.17908e-25
-9.95527e-25
2.86252e-25
-4.9216e-25
4.33862e-25
-1.55846e-25
4.65524e-25
-6.63596e-26
4.44472e-25
2.04374e-25
3.33482e-25
-1.29763e-25
5.61933e-26
8.32239e-26
-4.41685e-25
-7.93541e-26
-6.88846e-25
-7.89645e-27
-8.28706e-25
7.43025e-25
-7.46821e-25
7.82046e-26
-3.9233e-25
1.04525e-24
-2.73041e-26
4.14846e-25
6.15711e-25
2.11877e-26
9.55515e-25
3.89985e-25
9.55971e-25
-8.31298e-25
7.98091e-25
-7.90506e-26
3.42097e-25
-5.08502e-26
9.41295e-26
-2.53312e-25
-9.69902e-26
3.10897e-25
-1.38504e-25
2.68404e-26
1.37793e-25
-1.92318e-24
-3.42287e-22
-3.8075e-24
-8.50442e-24
-9.9341e-25
-8.18073e-24
-1.20845e-24
2.48467e-24
-1.60578e-24
-5.54866e-24
-7.87046e-25
2.27562e-24
-1.60193e-24
-2.8959e-24
-1.40074e-24
4.89891e-25
-1.53326e-24
5.58759e-25
-1.62199e-24
-7.59044e-25
-1.48295e-24
8.059e-25
-1.57083e-24
-1.22305e-24
-1.2869e-24
-4.14292e-25
-1.11226e-24
-6.20366e-25
-1.14412e-24
-6.63116e-25
-1.189e-24
3.63762e-25
-1.28945e-24
4.58002e-25
-1.34001e-24
1.08161e-24
-1.54395e-24
1.0683e-24
-1.86649e-24
6.66819e-25
-2.01093e-24
4.07573e-25
-1.91958e-24
-3.81254e-25
-1.69981e-24
-1.0068e-24
-1.50639e-24
-1.67291e-24
-1.21449e-24
-1.99834e-24
-7.32781e-25
-1.7876e-24
-3.15503e-25
-1.41352e-24
-2.29541e-25
-7.13388e-25
-4.01875e-25
1.15187e-25
-5.79784e-25
9.77845e-25
-7.71448e-25
1.51246e-24
-1.1275e-24
1.42326e-24
-1.52971e-24
9.44844e-25
-1.66611e-24
1.92141e-25
-1.46683e-24
-6.50496e-25
-1.19813e-24
-1.41291e-24
-9.7726e-25
-1.89052e-24
-6.58423e-25
-1.68151e-24
-1.76286e-25
-1.21554e-24
2.8053e-25
-5.97693e-25
4.54344e-25
-1.94557e-25
5.00246e-25
-6.97332e-26
4.90308e-25
2.48002e-25
3.82672e-25
-1.63083e-25
8.28986e-26
6.23027e-26
-4.64344e-25
-1.83697e-25
-7.43542e-25
-7.89021e-26
-9.09192e-25
7.90103e-25
-8.30918e-25
4.86121e-26
-4.60035e-25
1.2435e-24
-6.36208e-26
5.13615e-25
6.45662e-25
1.37782e-25
1.02979e-24
5.3273e-25
1.05078e-24
-9.0233e-25
8.87387e-25
-5.3005e-26
3.94046e-25
-6.90873e-26
1.18774e-25
-3.12575e-25
-1.03994e-25
3.27272e-25
-1.54172e-25
-9.82673e-27
1.31588e-25
-2.1522e-24
-3.39724e-22
-4.23071e-24
-9.85824e-24
-1.16359e-24
-9.20862e-24
-1.44806e-24
2.5809e-24
-1.82983e-24
-6.27733e-24
-9.30985e-25
2.64336e-24
-1.81866e-24
-3.49887e-24
-1.58936e-24
6.60388e-25
-1.73913e-24
5.46065e-25
-1.8358e-24
-8.2392e-25
-1.68725e-24
9.4826e-25
-1.78997e-24
-1.43457e-24
-1.47624e-24
-4.38594e-25
-1.28193e-24
-7.48206e-25
-1.31336e-24
-7.73878e-25
-1.35707e-24
4.15364e-25
-1.4629e-24
5.307e-25
-1.51261e-24
1.29833e-24
-1.73651e-24
1.26972e-24
-2.09653e-24
8.14506e-25
-2.26325e-24
5.11904e-25
-2.17159e-24
-4.1217e-25
-1.93875e-24
-1.15292e-24
-1.73478e-24
-1.96533e-24
-1.4177e-24
-2.35879e-24
-8.82123e-25
-2.11943e-24
-4.09948e-25
-1.69055e-24
-2.99801e-25
-8.83111e-25
-4.73808e-25
8.70553e-26
-6.54956e-25
1.12165e-24
-8.55609e-25
1.77071e-24
-1.24689e-24
1.67616e-24
-1.6985e-24
1.12027e-24
-1.86092e-24
2.44601e-25
-1.65311e-24
-7.44366e-25
-1.36715e-24
-1.66438e-24
-1.13166e-24
-2.2532e-24
-7.83162e-25
-2.01933e-24
-2.46997e-25
-1.464e-24
2.64927e-25
-7.20463e-25
4.6792e-25
-2.43642e-25
5.31172e-25
-7.56005e-26
5.35972e-25
2.94399e-25
4.35214e-25
-1.9891e-25
1.14702e-25
3.48263e-26
-4.81161e-25
-3.08858e-25
-7.93958e-25
-1.66688e-25
-9.87894e-25
8.23693e-25
-9.16369e-25
8.26434e-27
-5.33573e-25
1.45205e-24
-1.07297e-25
6.21117e-25
6.68069e-25
2.80431e-25
1.09886e-24
6.9817e-25
1.14519e-24
-9.59406e-25
9.79193e-25
-1.36834e-26
4.5099e-25
-8.40149e-26
1.47929e-25
-3.73796e-25
-1.09371e-25
3.38785e-25
-1.69839e-25
-5.61104e-26
1.15504e-25
-2.39348e-24
-3.36954e-22
-4.66784e-24
-1.12449e-23
-1.34937e-24
-1.02547e-23
-1.71641e-24
2.61199e-24
-2.0714e-24
-6.99968e-24
-1.09139e-24
3.02083e-24
-2.05221e-24
-4.15994e-24
-1.79124e-24
8.57424e-25
-1.96017e-24
5.05023e-25
-2.06444e-24
-8.76817e-25
-1.90669e-24
1.09873e-24
-2.02627e-24
-1.65952e-24
-1.68197e-24
-4.54891e-25
-1.46798e-24
-8.92172e-25
-1.49817e-24
-8.92627e-25
-1.53905e-24
4.63959e-25
-1.64919e-24
6.04106e-25
-1.69637e-24
1.53402e-24
-1.94003e-24
1.48777e-24
-2.33847e-24
9.81136e-25
-2.52902e-24
6.32978e-25
-2.4393e-24
-4.34916e-25
-2.19562e-24
-1.30088e-24
-1.9833e-24
-2.2778e-24
-1.64203e-24
-2.74886e-24
-1.05144e-24
-2.48346e-24
-5.21522e-25
-1.99977e-24
-3.83405e-25
-1.08091e-24
-5.55047e-25
4.06287e-26
-7.35621e-25
1.26506e-24
-9.42558e-25
2.04358e-24
-1.36861e-24
1.94875e-24
-1.87134e-24
1.31382e-24
-2.06255e-24
3.09489e-25
-1.84914e-24
-8.36154e-25
-1.54854e-24
-1.93102e-24
-1.30042e-24
-2.64708e-24
-9.22801e-25
-2.39255e-24
-3.3127e-25
-1.7427e-24
2.38164e-25
-8.62779e-25
4.7348e-25
-3.05253e-25
5.57473e-25
-8.51677e-26
5.80977e-25
3.43013e-25
4.90968e-25
-2.36715e-25
1.51809e-25
8.07992e-28
-4.91585e-25
-4.55172e-25
-8.3945e-25
-2.72109e-25
-1.06421e-24
8.41295e-25
-1.00282e-24
-4.43217e-26
-6.13e-25
1.66802e-24
-1.58714e-25
7.3605e-25
6.82217e-25
4.49714e-25
1.16198e-24
8.86885e-25
1.23875e-24
-9.99046e-25
1.0734e-24
4.13014e-26
5.13236e-25
-9.32256e-26
1.82023e-25
-4.35098e-25
-1.12792e-25
3.45398e-25
-1.85344e-25
-1.12445e-25
8.75649e-26
-2.64765e-24
-3.3398e-22
-5.11838e-24
-1.2643e-23
-1.55091e-24
-1.13104e-23
-2.01525e-24
2.56806e-24
-2.33131e-24
-7.70209e-24
-1.26947e-24
3.40216e-24
-2.30373e-24
-4.87715e-24
-2.00704e-24
1.08209e-24
-2.19735e-24
4.30672e-25
-2.30865e-24
-9.14305e-25
-2.14201e-24
1.25581e-24
-2.28072e-24
-1.89638e-24
-1.90506e-24
-4.61515e-25
-1.67165e-24
-1.05327e-24
-1.69971e-24
-1.01895e-24
-1.73593e-24
5.07621e-25
-1.84919e-24
6.76784e-25
-1.89191e-24
1.78795e-24
-2.15496e-24
1.72177e-24
-2.59256e-24
1.16779e-24
-2.80846e-24
7.72306e-25
-2.72313e-24
-4.47111e-25
-2.47115e-24
-1.44813e-24
-2.253e-24
-2.60865e-24
-1.88888e-24
-3.1677e-24
-1.24242e-24
-2.88025e-24
-6.52018e-25
-2.34297e-24
-4.81943e-25
-1.30968e-24
-6.46751e-25
-2.76283e-26
-8.22445e-25
1.40484e-24
-1.0325e-24
2.32878e-24
-1.49248e-24
2.24015e-24
-2.04781e-24
1.52608e-24
-2.27063e-24
3.88669e-25
-2.05486e-24
-9.23342e-25
-1.74266e-24
-2.21072e-24
-1.48427e-24
-3.07121e-24
-1.07839e-24
-2.80183e-24
-4.30382e-25
-2.05346e-24
1.98881e-25
-1.02712e-24
4.69812e-25
-3.81752e-25
5.78209e-25
-9.98231e-26
6.24731e-25
3.93199e-25
5.49698e-25
-2.75897e-25
1.94359e-25
-3.95959e-26
-4.95099e-25
-6.22735e-25
-8.7937e-25
-3.95903e-25
-1.13751e-24
8.40378e-25
-1.08986e-24
-1.10772e-25
-6.98316e-25
1.88815e-24
-2.18223e-25
8.56758e-25
6.8739e-25
6.45809e-25
1.2184e-24
1.09923e-24
1.33096e-24
-1.01775e-24
1.16985e-24
1.14481e-25
5.81068e-25
-9.39715e-26
2.21485e-25
-4.94289e-25
-1.13899e-25
3.47361e-25
-2.00503e-25
-1.79146e-25
4.56966e-26
-2.91535e-24
-3.30805e-22
-5.58166e-24
-1.40295e-23
-1.76829e-24
-1.23668e-23
-2.34629e-24
2.4399e-24
-2.61031e-24
-8.37013e-24
-1.4665e-24
3.7809e-24
-2.57439e-24
-5.64756e-24
-2.23738e-24
1.33532e-24
-2.45169e-24
3.17939e-25
-2.56916e-24
-9.32736e-25
-2.39398e-24
1.41776e-24
-2.55432e-24
-2.14338e-24
-2.14648e-24
-4.5674e-25
-1.89421e-24
-1.23249e-24
-1.91919e-24
-1.1523e-24
-1.94876e-24
5.44281e-25
-2.06384e-24
7.47196e-25
-2.09989e-24
2.05917e-24
-2.38179e-24
1.97087e-24
-2.85904e-24
1.37552e-24
-3.10177e-24
9.31418e-25
-3.02348e-24
-4.46206e-25
-2.76603e-24
-1.59193e-24
-2.54494e-24
-2.9559e-24
-2.15966e-24
-3.61419e-24
-1.4568e-24
-3.31022e-24
-8.03337e-25
-2.72189e-24
-5.97135e-25
-1.57242e-24
-7.50216e-25
-1.21457e-25
-9.16219e-25
1.53745e-24
-1.12574e-24
2.62367e-24
-1.61835e-24
2.54922e-24
-2.22749e-24
1.75752e-24
-2.48473e-24
4.8404e-25
-2.27016e-24
-1.00324e-24
-1.94982e-24
-2.50108e-24
-1.68393e-24
-3.52435e-24
-1.25097e-24
-3.24767e-24
-5.45659e-25
-2.39811e-24
1.45635e-25
-1.21612e-24
4.55601e-25
-4.75709e-25
5.92328e-25
-1.21154e-25
6.66525e-25
4.44202e-25
6.11061e-25
-3.15803e-25
2.42412e-25
-8.60781e-26
-4.91233e-25
-8.11376e-25
-9.13073e-25
-5.3866e-25
-1.20712e-24
8.18426e-25
-1.17705e-24
-1.92845e-25
-7.8946e-25
2.10876e-24
-2.86139e-25
9.81207e-25
6.82878e-25
8.68432e-25
1.26733e-24
1.33531e-24
1.42125e-24
-1.01203e-24
1.26833e-24
2.08504e-25
6.54741e-25
-8.31656e-26
2.66742e-25
-5.48857e-25
-1.12305e-25
3.45261e-25
-2.15099e-25
-2.56375e-25
-1.22553e-26
-3.19718e-24
-3.27434e-22
-6.05682e-24
-1.53797e-23
-2.0014e-24
-1.34153e-23
-2.71115e-24
2.21921e-24
-2.90909e-24
-8.98862e-24
-1.68376e-24
4.14995e-24
-2.86542e-24
-6.46712e-24
-2.48292e-24
1.61779e-24
-2.72426e-24
1.61711e-25
-2.84672e-24
-9.28255e-25
-2.66336e-24
1.58253e-24
-2.84805e-24
-2.39845e-24
-2.40721e-24
-4.38802e-25
-2.13695e-24
-1.43074e-24
-2.15786e-24
-1.29198e-24
-2.17867e-24
5.71721e-25
-2.29415e-24
8.13721e-25
-2.32105e-24
2.34652e-24
-2.62103e-24
2.23406e-24
-3.13817e-24
1.60534e-24
-3.4091e-24
1.11184e-24
-3.34069e-24
-4.295e-25
-3.0809e-24
-1.72926e-24
-2.86015e-24
-3.31727e-24
-2.45579e-24
-4.08689e-24
-1.69638e-24
-3.77358e-24
-9.77475e-25
-3.13818e-24
-7.30839e-25
-1.87217e-24
-8.66891e-25
-2.44789e-25
-1.01788e-24
1.65906e-24
-1.22268e-24
2.92525e-24
-1.74615e-24
2.87457e-24
-2.40993e-24
2.00849e-24
-2.70438e-24
5.97509e-25
-2.49486e-24
-1.07302e-24
-2.17025e-24
-2.79945e-24
-1.90004e-24
-4.00494e-24
-1.44158e-24
-3.73036e-24
-6.78465e-25
-2.77843e-24
7.69081e-26
-1.43256e-24
4.29426e-25
-5.89907e-25
5.98656e-25
-1.50964e-25
7.05524e-25
4.95132e-25
6.74594e-25
-3.55741e-25
2.95938e-25
-1.38175e-25
-4.79573e-25
-1.02064e-24
-9.39926e-25
-7.00795e-25
-1.27236e-24
7.72973e-25
-1.26389e-24
-2.92417e-25
-8.86304e-25
2.32579e-24
-3.62735e-25
1.10697e-24
6.67986e-25
1.11679e-24
1.30796e-24
1.5949e-24
1.50899e-24
-9.78551e-25
1.36859e-24
3.26102e-25
7.34474e-25
-5.73904e-26
3.18218e-25
-5.95951e-25
-1.07591e-25
3.40074e-25
-2.28883e-25
-3.44115e-25
-8.84945e-26
-3.4937e-24
-3.23868e-22
-6.54285e-24
-1.66676e-23
-2.25003e-24
-1.44473e-23
-3.11137e-24
1.89889e-24
-3.22823e-24
-9.54177e-24
-1.92261e-24
4.50163e-24
-3.17803e-24
-7.33053e-24
-2.74428e-24
1.92995e-24
-3.01617e-24
-4.30893e-26
-3.14205e-24
-8.96809e-25
-2.95094e-24
1.74777e-24
-3.16294e-24
-2.65923e-24
-2.68822e-24
-4.05917e-25
-2.40124e-24
-1.64887e-24
-2.417e-24
-1.43716e-24
-2.42685e-24
5.87594e-25
-2.54122e-24
8.74667e-25
-2.55616e-24
2.64863e-24
-2.87326e-24
2.51009e-24
-3.43023e-24
1.85817e-24
-3.73062e-24
1.31505e-24
-3.67509e-24
-3.9415e-25
-3.41635e-24
-1.85689e-24
-3.19961e-24
-3.69017e-24
-2.77866e-24
-4.58406e-24
-1.96298e-24
-4.27036e-24
-1.17653e-24
-3.59343e-24
-8.85048e-25
-2.21199e-24
-9.98388e-25
-4.01722e-25
-1.12852e-24
1.7655e-24
-1.32387e-24
3.23019e-24
-1.87587e-24
3.21447e-24
-2.59472e-24
2.27914e-24
-2.92909e-24
7.30957e-25
-2.72869e-24
-1.12971e-24
-2.40413e-24
-3.10289e-24
-2.13322e-24
-4.51113e-24
-1.65126e-24
-4.24998e-24
-8.3019e-25
-3.19618e-24
-8.89024e-27
-1.67935e-24
3.89758e-25
-7.2734e-25
5.95891e-25
-1.9129e-25
7.40754e-25
5.4495e-25
7.39697e-25
-3.95e-25
3.54797e-25
-1.95263e-25
-4.59785e-25
-1.24976e-24
-9.59323e-25
-8.82515e-25
-1.33251e-24
7.0166e-25
-1.34983e-24
-4.1146e-25
-9.88646e-25
2.5348e-24
-4.48228e-25
1.2312e-24
6.4204e-25
1.38951e-24
1.33947e-24
1.87742e-24
1.5935e-24
-9.14118e-25
1.47031e-24
4.70047e-25
8.20444e-25
-1.29161e-26
3.76326e-25
-6.32379e-25
-9.93017e-26
3.33216e-25
-2.41566e-25
-4.42126e-25
-1.85237e-25
-3.80536e-24
-3.20114e-22
-7.03849e-24
-1.78656e-23
-2.51376e-24
-1.5455e-23
-3.54834e-24
1.47326e-24
-3.5682e-24
-1.00133e-23
-2.18442e-24
4.82765e-24
-3.51349e-24
-8.23114e-24
-3.02211e-24
2.2719e-24
-3.32861e-24
-3.01408e-25
-3.45587e-24
-8.34162e-25
-3.25747e-24
1.91079e-24
-3.49997e-24
-2.92299e-24
-2.99045e-24
-3.56307e-25
-2.68846e-24
-1.88761e-24
-2.69793e-24
-1.58678e-24
-2.69455e-24
5.89424e-25
-2.8062e-24
9.28294e-25
-2.80608e-24
2.96388e-24
-3.1391e-24
2.79754e-24
-3.73549e-24
2.13488e-24
-4.06645e-24
1.54251e-24
-4.02693e-24
-3.37185e-25
-3.77291e-24
-1.97134e-24
-3.56425e-24
-4.07166e-24
-3.12965e-24
-5.10359e-24
-2.25845e-24
-4.80033e-24
-1.40267e-24
-4.08905e-24
-1.0619e-24
-2.59495e-24
-1.14649e-24
-5.965e-25
-1.24941e-24
1.85234e-24
-1.42999e-24
3.53474e-24
-2.00758e-24
3.56688e-24
-2.78145e-24
2.56941e-24
-3.1583e-24
8.86205e-25
-2.97134e-24
-1.17024e-24
-2.65152e-24
-3.40822e-24
-2.38399e-24
-5.04071e-24
-1.88096e-24
-4.80632e-24
-1.00224e-24
-3.65301e-24
-1.13415e-25
-1.95948e-24
3.34962e-25
-8.91203e-25
5.82599e-25
-2.44419e-25
7.71094e-25
5.92439e-25
8.05622e-25
-4.32879e-25
4.18727e-25
-2.56564e-25
-4.31622e-25
-1.49764e-24
-9.7069e-25
-1.08379e-24
-1.38685e-24
6.02285e-25
-1.43428e-24
-5.52008e-25
-1.09621e-24
2.73105e-24
-5.42778e-25
1.35066e-24
6.04395e-25
1.68461e-24
1.361e-24
2.18189e-24
1.67402e-24
-8.15836e-25
1.57309e-24
6.431e-25
9.12778e-25
5.42713e-26
4.41466e-25
-6.54605e-25
-8.69495e-26
3.26591e-25
-2.52817e-25
-5.49909e-25
-3.04665e-25
-4.13253e-24
-3.16173e-22
-7.54224e-24
-1.89453e-23
-2.79203e-24
-1.64312e-23
-4.0233e-24
9.3838e-25
-3.9293e-24
-1.03866e-23
-2.47057e-24
5.11912e-24
-3.87302e-24
-9.16082e-24
-3.31699e-24
2.64336e-24
-3.66281e-24
-6.17956e-25
-3.78885e-24
-7.35916e-25
-3.58375e-24
2.06855e-24
-3.86015e-24
-3.18665e-24
-3.31482e-24
-2.88229e-25
-3.00001e-24
-2.14754e-24
-3.00202e-24
-1.73961e-24
-2.98308e-24
5.74624e-25
-3.09036e-24
9.72839e-25
-3.07172e-24
3.2904e-24
-3.41924e-24
3.09476e-24
-4.05425e-24
2.43619e-24
-4.41671e-24
1.79554e-24
-4.39643e-24
-2.55533e-25
-4.15102e-24
-2.06894e-24
-3.9549e-24
-4.45849e-24
-3.51008e-24
-5.64302e-24
-2.58465e-24
-5.36297e-24
-1.65817e-24
-4.62627e-24
-1.26365e-24
-3.02407e-24
-1.31316e-24