/*--------------------------------*- C++ -*----------------------------------*\
| =========                 |                                                 |
| \\      /  F ield         | foam-extend: Open Source CFD                    |
|  \\    /   O peration     | Version:     4.0                                |
|   \\  /    A nd           | Web:         http://www.foam-extend.org         |
|    \\/     M anipulation  |                                                 |
\*---------------------------------------------------------------------------*/
FoamFile
{
    version     2.0;
    format      ascii;
    class       volVectorField;
    location    "3";
    object      bodyForce;
}
// * * * * * * * * * * * * * * * * * * * * * * * * * * * * * * * * * * * * * //

dimensions      [0 -1 0 0 0 0 0];

internalField   nonuniform List<vector> 
6960
(
(0.000375321 -2.47746e+08 -0)
(0.000550947 -2.47746e+08 -0)
(0.000183029 -2.47746e+08 -0)
(1.55529e-05 -2.47746e+08 -0)
(1.0103e-05 -2.47746e+08 -0)
(3.61048e-06 -2.47746e+08 -0)
(2.214e-06 -2.47746e+08 -0)
(8.92542e-07 -2.47746e+08 -0)
(3.32604e-07 -2.47746e+08 -0)
(-1.09748e-07 -2.47746e+08 -0)
(-3.14126e-07 -2.47746e+08 -0)
(-4.75388e-07 -2.47746e+08 -0)
(-6.04174e-07 -2.47746e+08 -0)
(-6.81445e-07 -2.47746e+08 -0)
(-7.21201e-07 -2.47746e+08 -0)
(-7.47518e-07 -2.47746e+08 -0)
(-7.54237e-07 -2.47746e+08 -0)
(-7.48638e-07 -2.47746e+08 -0)
(-7.46398e-07 -2.47746e+08 -0)
(-7.34639e-07 -2.47746e+08 -0)
(-7.18401e-07 -2.47746e+08 -0)
(-6.70806e-07 -2.47746e+08 -0)
(-5.90175e-07 -2.47746e+08 -0)
(-5.39781e-07 -2.47746e+08 -0)
(-4.92746e-07 -2.47746e+08 -0)
(-4.05955e-07 -2.47746e+08 -0)
(-3.11326e-07 -2.47746e+08 -0)
(-2.45253e-07 -2.47746e+08 -0)
(-1.40545e-07 -2.47746e+08 -0)
(-4.5355e-08 -2.47746e+08 -0)
(2.68771e-08 -2.47746e+08 -0)
(1.36065e-07 -2.47746e+08 -0)
(2.45253e-07 -2.47746e+08 -0)
(3.24204e-07 -2.47746e+08 -0)
(3.94757e-07 -2.47746e+08 -0)
(4.68109e-07 -2.47746e+08 -0)
(5.41461e-07 -2.47746e+08 -0)
(6.00254e-07 -2.47746e+08 -0)
(6.54008e-07 -2.47746e+08 -0)
(7.20081e-07 -2.47746e+08 -0)
(7.53677e-07 -2.47746e+08 -0)
(7.55357e-07 -2.47746e+08 -0)
(7.69916e-07 -2.47746e+08 -0)
(7.70476e-07 -2.47746e+08 -0)
(7.56477e-07 -2.47746e+08 -0)
(7.41359e-07 -2.47746e+08 -0)
(7.08322e-07 -2.47746e+08 -0)
(6.23212e-07 -2.47746e+08 -0)
(5.10104e-07 -2.47746e+08 -0)
(3.23645e-07 -2.47746e+08 -0)
(9.40697e-08 -2.47746e+08 -0)
(-3.6564e-07 -2.47746e+08 -0)
(-9.20539e-07 -2.47746e+08 -0)
(-2.22408e-06 -2.47746e+08 -0)
(-3.62112e-06 -2.47746e+08 -0)
(-1.00671e-05 -2.47746e+08 -0)
(-1.55025e-05 -2.47746e+08 -0)
(-0.000182983 -2.47746e+08 -0)
(-0.00055092 -2.47746e+08 -0)
(-0.000375325 -2.47746e+08 -0)
(0.000469168 -6.631e+07 -0)
(0.000691364 -6.631e+07 -0)
(0.000233288 -6.631e+07 -0)
(2.17527e-05 -6.631e+07 -0)
(1.33654e-05 -6.631e+07 -0)
(4.9066e-06 -6.631e+07 -0)
(2.97744e-06 -6.631e+07 -0)
(1.24427e-06 -6.631e+07 -0)
(4.97707e-07 -6.631e+07 -0)
(-8.69887e-08 -6.631e+07 -0)
(-3.6337e-07 -6.631e+07 -0)
(-5.75887e-07 -6.631e+07 -0)
(-7.47662e-07 -6.631e+07 -0)
(-8.50067e-07 -6.631e+07 -0)
(-9.01819e-07 -6.631e+07 -0)
(-9.40359e-07 -6.631e+07 -0)
(-9.48066e-07 -6.631e+07 -0)
(-9.42561e-07 -6.631e+07 -0)
(-9.4146e-07 -6.631e+07 -0)
(-9.30448e-07 -6.631e+07 -0)
(-9.06224e-07 -6.631e+07 -0)
(-8.50067e-07 -6.631e+07 -0)
(-7.48763e-07 -6.631e+07 -0)
(-6.83797e-07 -6.631e+07 -0)
(-6.25438e-07 -6.631e+07 -0)
(-5.10921e-07 -6.631e+07 -0)
(-3.96404e-07 -6.631e+07 -0)
(-3.08314e-07 -6.631e+07 -0)
(-1.77281e-07 -6.631e+07 -0)
(-5.94606e-08 -6.631e+07 -0)
(3.41348e-08 -6.631e+07 -0)
(1.69573e-07 -6.631e+07 -0)
(3.09415e-07 -6.631e+07 -0)
(4.15123e-07 -6.631e+07 -0)
(5.04314e-07 -6.631e+07 -0)
(5.93505e-07 -6.631e+07 -0)
(6.80494e-07 -6.631e+07 -0)
(7.59774e-07 -6.631e+07 -0)
(8.29145e-07 -6.631e+07 -0)
(9.09527e-07 -6.631e+07 -0)
(9.5137e-07 -6.631e+07 -0)
(9.56875e-07 -6.631e+07 -0)
(9.68988e-07 -6.631e+07 -0)
(9.65684e-07 -6.631e+07 -0)
(9.53572e-07 -6.631e+07 -0)
(9.29347e-07 -6.631e+07 -0)
(8.80898e-07 -6.631e+07 -0)
(7.69685e-07 -6.631e+07 -0)
(6.22134e-07 -6.631e+07 -0)
(3.73281e-07 -6.631e+07 -0)
(6.71685e-08 -6.631e+07 -0)
(-5.35146e-07 -6.631e+07 -0)
(-1.28281e-06 -6.631e+07 -0)
(-2.98955e-06 -6.631e+07 -0)
(-4.91761e-06 -6.631e+07 -0)
(-1.33214e-05 -6.631e+07 -0)
(-2.16899e-05 -6.631e+07 -0)
(-0.00023323 -6.631e+07 -0)
(-0.000691327 -6.631e+07 -0)
(-0.000469167 -6.631e+07 -0)
(0.000346834 -1.82942e+07 -0)
(0.000512569 -1.82942e+07 -0)
(0.000175229 -1.82942e+07 -0)
(1.77235e-05 -1.82942e+07 -0)
(1.04271e-05 -1.82942e+07 -0)
(3.9181e-06 -1.82942e+07 -0)
(2.35686e-06 -1.82942e+07 -0)
(1.01692e-06 -1.82942e+07 -0)
(4.28672e-07 -1.82942e+07 -0)
(-2.61318e-08 -1.82942e+07 -0)
(-2.4575e-07 -1.82942e+07 -0)
(-4.10881e-07 -1.82942e+07 -0)
(-5.43764e-07 -1.82942e+07 -0)
(-6.23827e-07 -1.82942e+07 -0)
(-6.66639e-07 -1.82942e+07 -0)
(-6.96106e-07 -1.82942e+07 -0)
(-7.05558e-07 -1.82942e+07 -0)
(-7.0111e-07 -1.82942e+07 -0)
(-7.02222e-07 -1.82942e+07 -0)
(-6.93882e-07 -1.82942e+07 -0)
(-6.75534e-07 -1.82942e+07 -0)
(-6.34947e-07 -1.82942e+07 -0)
(-5.60443e-07 -1.82942e+07 -0)
(-5.11516e-07 -1.82942e+07 -0)
(-4.67036e-07 -1.82942e+07 -0)
(-3.82525e-07 -1.82942e+07 -0)
(-2.94678e-07 -1.82942e+07 -0)
(-2.30738e-07 -1.82942e+07 -0)
(-1.33439e-07 -1.82942e+07 -0)
(-4.44796e-08 -1.82942e+07 -0)
(2.50198e-08 -1.82942e+07 -0)
(1.26211e-07 -1.82942e+07 -0)
(2.3185e-07 -1.82942e+07 -0)
(3.12469e-07 -1.82942e+07 -0)
(3.76409e-07 -1.82942e+07 -0)
(4.43128e-07 -1.82942e+07 -0)
(5.0818e-07 -1.82942e+07 -0)
(5.66559e-07 -1.82942e+07 -0)
(6.18823e-07 -1.82942e+07 -0)
(6.79426e-07 -1.82942e+07 -0)
(7.11674e-07 -1.82942e+07 -0)
(7.12786e-07 -1.82942e+07 -0)
(7.21126e-07 -1.82942e+07 -0)
(7.16122e-07 -1.82942e+07 -0)
(7.07782e-07 -1.82942e+07 -0)
(6.88322e-07 -1.82942e+07 -0)
(6.48291e-07 -1.82942e+07 -0)
(5.61555e-07 -1.82942e+07 -0)
(4.44796e-07 -1.82942e+07 -0)
(2.49642e-07 -1.82942e+07 -0)
(1.11199e-08 -1.82942e+07 -0)
(-4.5536e-07 -1.82942e+07 -0)
(-1.04527e-06 -1.82942e+07 -0)
(-2.3652e-06 -1.82942e+07 -0)
(-3.927e-06 -1.82942e+07 -0)
(-1.0396e-05 -1.82942e+07 -0)
(-1.76762e-05 -1.82942e+07 -0)
(-0.000175182 -1.82942e+07 -0)
(-0.000512542 -1.82942e+07 -0)
(-0.000346834 -1.82942e+07 -0)
(0.000213407 -4.98402e+06 -0)
(0.000316479 -4.98402e+06 -0)
(0.00010987 -4.98402e+06 -0)
(1.21302e-05 -4.98402e+06 -0)
(6.83173e-06 -4.98402e+06 -0)
(2.63135e-06 -4.98402e+06 -0)
(1.56959e-06 -4.98402e+06 -0)
(6.99645e-07 -4.98402e+06 -0)
(3.10178e-07 -4.98402e+06 -0)
(1.3401e-08 -4.98402e+06 -0)
(-1.32893e-07 -4.98402e+06 -0)
(-2.42056e-07 -4.98402e+06 -0)
(-3.27767e-07 -4.98402e+06 -0)
(-3.80533e-07 -4.98402e+06 -0)
(-4.10127e-07 -4.98402e+06 -0)
(-4.2967e-07 -4.98402e+06 -0)
(-4.36929e-07 -4.98402e+06 -0)
(-4.34416e-07 -4.98402e+06 -0)
(-4.36371e-07 -4.98402e+06 -0)
(-4.31904e-07 -4.98402e+06 -0)
(-4.21015e-07 -4.98402e+06 -0)
(-3.9533e-07 -4.98402e+06 -0)
(-3.48985e-07 -4.98402e+06 -0)
(-3.19391e-07 -4.98402e+06 -0)
(-2.90635e-07 -4.98402e+06 -0)
(-2.37589e-07 -4.98402e+06 -0)
(-1.83985e-07 -4.98402e+06 -0)
(-1.43782e-07 -4.98402e+06 -0)
(-8.29188e-08 -4.98402e+06 -0)
(-2.84772e-08 -4.98402e+06 -0)
(1.53553e-08 -4.98402e+06 -0)
(7.81726e-08 -4.98402e+06 -0)
(1.45178e-07 -4.98402e+06 -0)
(1.94873e-07 -4.98402e+06 -0)
(2.34518e-07 -4.98402e+06 -0)
(2.76954e-07 -4.98402e+06 -0)
(3.1632e-07 -4.98402e+06 -0)
(3.52335e-07 -4.98402e+06 -0)
(3.85279e-07 -4.98402e+06 -0)
(4.24366e-07 -4.98402e+06 -0)
(4.42513e-07 -4.98402e+06 -0)
(4.42513e-07 -4.98402e+06 -0)
(4.4698e-07 -4.98402e+06 -0)
(4.43071e-07 -4.98402e+06 -0)
(4.37487e-07 -4.98402e+06 -0)
(4.24086e-07 -4.98402e+06 -0)
(3.96447e-07 -4.98402e+06 -0)
(3.39213e-07 -4.98402e+06 -0)
(2.62157e-07 -4.98402e+06 -0)
(1.34289e-07 -4.98402e+06 -0)
(-2.26142e-08 -4.98402e+06 -0)
(-3.25812e-07 -4.98402e+06 -0)
(-7.16954e-07 -4.98402e+06 -0)
(-1.5749e-06 -4.98402e+06 -0)
(-2.63777e-06 -4.98402e+06 -0)
(-6.81302e-06 -4.98402e+06 -0)
(-1.21003e-05 -4.98402e+06 -0)
(-0.00010984 -4.98402e+06 -0)
(-0.000316461 -4.98402e+06 -0)
(-0.000213407 -4.98402e+06 -0)
(0.00011827 -1.32964e+06 -0)
(0.000176166 -1.32964e+06 -0)
(6.2315e-05 -1.32964e+06 -0)
(7.56091e-06 -1.32964e+06 -0)
(4.07443e-06 -1.32964e+06 -0)
(1.6104e-06 -1.32964e+06 -0)
(9.52325e-07 -1.32964e+06 -0)
(4.39174e-07 -1.32964e+06 -0)
(2.03715e-07 -1.32964e+06 -0)
(2.77416e-08 -1.32964e+06 -0)
(-6.128e-08 -1.32964e+06 -0)
(-1.26287e-07 -1.32964e+06 -0)
(-1.76801e-07 -1.32964e+06 -0)
(-2.09373e-07 -1.32964e+06 -0)
(-2.27178e-07 -1.32964e+06 -0)
(-2.38495e-07 -1.32964e+06 -0)
(-2.44292e-07 -1.32964e+06 -0)
(-2.43188e-07 -1.32964e+06 -0)
(-2.44568e-07 -1.32964e+06 -0)
(-2.42498e-07 -1.32964e+06 -0)
(-2.36563e-07 -1.32964e+06 -0)
(-2.22623e-07 -1.32964e+06 -0)
(-1.96676e-07 -1.32964e+06 -0)
(-1.797e-07 -1.32964e+06 -0)
(-1.63966e-07 -1.32964e+06 -0)
(-1.33602e-07 -1.32964e+06 -0)
(-1.03238e-07 -1.32964e+06 -0)
(-8.07406e-08 -1.32964e+06 -0)
(-4.72022e-08 -1.32964e+06 -0)
(-1.60101e-08 -1.32964e+06 -0)
(8.41911e-09 -1.32964e+06 -0)
(4.36137e-08 -1.32964e+06 -0)
(8.21208e-08 -1.32964e+06 -0)
(1.10276e-07 -1.32964e+06 -0)
(1.32359e-07 -1.32964e+06 -0)
(1.5596e-07 -1.32964e+06 -0)
(1.77629e-07 -1.32964e+06 -0)
(1.98056e-07 -1.32964e+06 -0)
(2.17103e-07 -1.32964e+06 -0)
(2.39047e-07 -1.32964e+06 -0)
(2.48433e-07 -1.32964e+06 -0)
(2.48157e-07 -1.32964e+06 -0)
(2.50227e-07 -1.32964e+06 -0)
(2.47052e-07 -1.32964e+06 -0)
(2.43464e-07 -1.32964e+06 -0)
(2.35183e-07 -1.32964e+06 -0)
(2.18069e-07 -1.32964e+06 -0)
(1.83702e-07 -1.32964e+06 -0)
(1.3719e-07 -1.32964e+06 -0)
(6.128e-08 -1.32964e+06 -0)
(-3.28483e-08 -1.32964e+06 -0)
(-2.12134e-07 -1.32964e+06 -0)
(-4.48835e-07 -1.32964e+06 -0)
(-9.55361e-07 -1.32964e+06 -0)
(-1.61371e-06 -1.32964e+06 -0)
(-4.06422e-06 -1.32964e+06 -0)
(-7.54476e-06 -1.32964e+06 -0)
(-6.22974e-05 -1.32964e+06 -0)
(-0.000176156 -1.32964e+06 -0)
(-0.000118271 -1.32964e+06 -0)
(6.11136e-05 -349775 -0)
(9.15185e-05 -349775 -0)
(3.3093e-05 -349775 -0)
(4.43006e-06 -349775 -0)
(2.28757e-06 -349775 -0)
(9.27975e-07 -349775 -0)
(5.44225e-07 -349775 -0)
(2.59292e-07 -349775 -0)
(1.25462e-07 -349775 -0)
(2.7315e-08 -349775 -0)
(-2.39676e-08 -349775 -0)
(-6.01868e-08 -349775 -0)
(-8.84391e-08 -349775 -0)
(-1.07118e-07 -349775 -0)
(-1.1716e-07 -349775 -0)
(-1.23453e-07 -349775 -0)
(-1.27269e-07 -349775 -0)
(-1.27336e-07 -349775 -0)
(-1.28274e-07 -349775 -0)
(-1.27269e-07 -349775 -0)
(-1.24123e-07 -349775 -0)
(-1.17294e-07 -349775 -0)
(-1.03636e-07 -349775 -0)
(-9.47992e-08 -349775 -0)
(-8.62298e-08 -349775 -0)
(-7.01621e-08 -349775 -0)
(-5.43623e-08 -349775 -0)
(-4.24454e-08 -349775 -0)
(-2.50388e-08 -349775 -0)
(-8.56942e-09 -349775 -0)
(4.35166e-09 -349775 -0)
(2.27625e-08 -349775 -0)
(4.35835e-08 -349775 -0)
(5.81783e-08 -349775 -0)
(6.99613e-08 -349775 -0)
(8.22129e-08 -349775 -0)
(9.31925e-08 -349775 -0)
(1.04172e-07 -349775 -0)
(1.14415e-07 -349775 -0)
(1.25863e-07 -349775 -0)
(1.30416e-07 -349775 -0)
(1.30014e-07 -349775 -0)
(1.30684e-07 -349775 -0)
(1.28809e-07 -349775 -0)
(1.26533e-07 -349775 -0)
(1.21579e-07 -349775 -0)
(1.11469e-07 -349775 -0)
(9.22552e-08 -349775 -0)
(6.58774e-08 -349775 -0)
(2.32981e-08 -349775 -0)
(-2.9926e-08 -349775 -0)
(-1.29746e-07 -349775 -0)
(-2.6438e-07 -349775 -0)
(-5.45899e-07 -349775 -0)
(-9.29715e-07 -349775 -0)
(-2.28241e-06 -349775 -0)
(-4.42162e-06 -349775 -0)
(-3.30834e-05 -349775 -0)
(-9.15127e-05 -349775 -0)
(-6.11137e-05 -349775 -0)
(3.00048e-05 -92535.8 -0)
(4.52127e-05 -92535.8 -0)
(1.67589e-05 -92535.8 -0)
(2.4756e-06 -92535.8 -0)
(1.2298e-06 -92535.8 -0)
(5.11503e-07 -92535.8 -0)
(2.97775e-07 -92535.8 -0)
(1.46389e-07 -92535.8 -0)
(7.34492e-08 -92535.8 -0)
(2.10037e-08 -92535.8 -0)
(-7.12852e-09 -92535.8 -0)
(-2.66365e-08 -92535.8 -0)
(-4.15618e-08 -92535.8 -0)
(-5.18727e-08 -92535.8 -0)
(-5.73782e-08 -92535.8 -0)
(-6.07834e-08 -92535.8 -0)
(-6.31065e-08 -92535.8 -0)
(-6.34247e-08 -92535.8 -0)
(-6.41249e-08 -92535.8 -0)
(-6.34884e-08 -92535.8 -0)
(-6.212e-08 -92535.8 -0)
(-5.89376e-08 -92535.8 -0)
(-5.19045e-08 -92535.8 -0)
(-4.75765e-08 -92535.8 -0)
(-4.3153e-08 -92535.8 -0)
(-3.51016e-08 -92535.8 -0)
(-2.73048e-08 -92535.8 -0)
(-2.12583e-08 -92535.8 -0)
(-1.27295e-08 -92535.8 -0)
(-4.39168e-09 -92535.8 -0)
(2.13219e-09 -92535.8 -0)
(1.13929e-08 -92535.8 -0)
(2.19266e-08 -92535.8 -0)
(2.93097e-08 -92535.8 -0)
(3.51016e-08 -92535.8 -0)
(4.13391e-08 -92535.8 -0)
(4.66218e-08 -92535.8 -0)
(5.21273e-08 -92535.8 -0)
(5.75055e-08 -92535.8 -0)
(6.31065e-08 -92535.8 -0)
(6.5175e-08 -92535.8 -0)
(6.48568e-08 -92535.8 -0)
(6.51432e-08 -92535.8 -0)
(6.36793e-08 -92535.8 -0)
(6.247e-08 -92535.8 -0)
(5.97014e-08 -92535.8 -0)
(5.40685e-08 -92535.8 -0)
(4.35349e-08 -92535.8 -0)
(2.93415e-08 -92535.8 -0)
(6.65116e-09 -92535.8 -0)
(-2.23084e-08 -92535.8 -0)
(-7.55814e-08 -92535.8 -0)
(-1.48744e-07 -92535.8 -0)
(-2.98634e-07 -92535.8 -0)
(-5.1249e-07 -92535.8 -0)
(-1.22725e-06 -92535.8 -0)
(-2.4714e-06 -92535.8 -0)
(-1.6754e-05 -92535.8 -0)
(-4.52096e-05 -92535.8 -0)
(-3.00048e-05 -92535.8 -0)
(1.41551e-05 -25467.3 -0)
(2.14782e-05 -25467.3 -0)
(8.17811e-06 -25467.3 -0)
(1.32939e-06 -25467.3 -0)
(6.38731e-07 -25467.3 -0)
(2.72017e-07 -25467.3 -0)
(1.57364e-07 -25467.3 -0)
(7.94821e-08 -25467.3 -0)
(4.12299e-08 -25467.3 -0)
(1.41334e-08 -25467.3 -0)
(-8.00006e-10 -25467.3 -0)
(-1.09186e-08 -25467.3 -0)
(-1.86075e-08 -25467.3 -0)
(-2.40298e-08 -25467.3 -0)
(-2.69632e-08 -25467.3 -0)
(-2.87261e-08 -25467.3 -0)
(-3.00891e-08 -25467.3 -0)
(-3.03854e-08 -25467.3 -0)
(-3.08299e-08 -25467.3 -0)
(-3.05039e-08 -25467.3 -0)
(-2.99113e-08 -25467.3 -0)
(-2.85187e-08 -25467.3 -0)
(-2.51113e-08 -25467.3 -0)
(-2.29631e-08 -25467.3 -0)
(-2.08002e-08 -25467.3 -0)
(-1.69335e-08 -25467.3 -0)
(-1.32149e-08 -25467.3 -0)
(-1.02667e-08 -25467.3 -0)
(-6.19264e-09 -25467.3 -0)
(-2.22224e-09 -25467.3 -0)
(1.03704e-09 -25467.3 -0)
(5.49634e-09 -25467.3 -0)
(1.06519e-08 -25467.3 -0)
(1.42075e-08 -25467.3 -0)
(1.69779e-08 -25467.3 -0)
(1.99853e-08 -25467.3 -0)
(2.24742e-08 -25467.3 -0)
(2.51706e-08 -25467.3 -0)
(2.77928e-08 -25467.3 -0)
(3.04447e-08 -25467.3 -0)
(3.14076e-08 -25467.3 -0)
(3.11113e-08 -25467.3 -0)
(3.11558e-08 -25467.3 -0)
(3.03558e-08 -25467.3 -0)
(2.96299e-08 -25467.3 -0)
(2.8178e-08 -25467.3 -0)
(2.50965e-08 -25467.3 -0)
(1.95705e-08 -25467.3 -0)
(1.21482e-08 -25467.3 -0)
(4.44448e-10 -25467.3 -0)
(-1.47853e-08 -25467.3 -0)
(-4.21781e-08 -25467.3 -0)
(-8.05784e-08 -25467.3 -0)
(-1.57779e-07 -25467.3 -0)
(-2.72521e-07 -25467.3 -0)
(-6.37516e-07 -25467.3 -0)
(-1.32737e-06 -25467.3 -0)
(-8.17569e-06 -25467.3 -0)
(-2.14767e-05 -25467.3 -0)
(-1.41551e-05 -25467.3 -0)
(6.46192e-06 -7603.65 -0)
(9.87914e-06 -7603.65 -0)
(3.86971e-06 -7603.65 -0)
(6.88941e-07 -7603.65 -0)
(3.22064e-07 -7603.65 -0)
(1.40165e-07 -7603.65 -0)
(8.06443e-08 -7603.65 -0)
(4.17741e-08 -7603.65 -0)
(2.22579e-08 -7603.65 -0)
(8.68436e-09 -7603.65 -0)
(9.99444e-10 -7603.65 -0)
(-4.10582e-09 -7603.65 -0)
(-7.92802e-09 -7603.65 -0)
(-1.07238e-08 -7603.65 -0)
(-1.22499e-08 -7603.65 -0)
(-1.31278e-08 -7603.65 -0)
(-1.38842e-08 -7603.65 -0)
(-1.41003e-08 -7603.65 -0)
(-1.43569e-08 -7603.65 -0)
(-1.42083e-08 -7603.65 -0)
(-1.39652e-08 -7603.65 -0)
(-1.33574e-08 -7603.65 -0)
(-1.17637e-08 -7603.65 -0)
(-1.07643e-08 -7603.65 -0)
(-9.71081e-09 -7603.65 -0)
(-7.94153e-09 -7603.65 -0)
(-6.17224e-09 -7603.65 -0)
(-4.79463e-09 -7603.65 -0)
(-2.9173e-09 -7603.65 -0)
(-1.08048e-09 -7603.65 -0)
(4.59204e-10 -7603.65 -0)
(2.56614e-09 -7603.65 -0)
(5.01073e-09 -7603.65 -0)
(6.67196e-09 -7603.65 -0)
(7.98205e-09 -7603.65 -0)
(9.35966e-09 -7603.65 -0)
(1.05077e-08 -7603.65 -0)
(1.17772e-08 -7603.65 -0)
(1.30198e-08 -7603.65 -0)
(1.42353e-08 -7603.65 -0)
(1.4654e-08 -7603.65 -0)
(1.44514e-08 -7603.65 -0)
(1.44649e-08 -7603.65 -0)
(1.39922e-08 -7603.65 -0)
(1.3587e-08 -7603.65 -0)
(1.28577e-08 -7603.65 -0)
(1.12235e-08 -7603.65 -0)
(8.40073e-09 -7603.65 -0)
(4.64606e-09 -7603.65 -0)
(-1.21554e-09 -7603.65 -0)
(-8.995e-09 -7603.65 -0)
(-2.26901e-08 -7603.65 -0)
(-4.22468e-08 -7603.65 -0)
(-8.08469e-08 -7603.65 -0)
(-1.40422e-07 -7603.65 -0)
(-3.21537e-07 -7603.65 -0)
(-6.87996e-07 -7603.65 -0)
(-3.86854e-06 -7603.65 -0)
(-9.87841e-06 -7603.65 -0)
(-6.46192e-06 -7603.65 -0)
(2.86854e-06 -2535.2 -0)
(4.42072e-06 -2535.2 -0)
(1.78296e-06 -2535.2 -0)
(3.45671e-07 -2535.2 -0)
(1.58175e-07 -2535.2 -0)
(7.02077e-08 -2535.2 -0)
(4.02298e-08 -2535.2 -0)
(2.12878e-08 -2535.2 -0)
(1.16028e-08 -2535.2 -0)
(4.98123e-09 -2535.2 -0)
(1.15183e-09 -2535.2 -0)
(-1.37497e-09 -2535.2 -0)
(-3.23841e-09 -2535.2 -0)
(-4.63146e-09 -2535.2 -0)
(-5.37925e-09 -2535.2 -0)
(-5.83757e-09 -2535.2 -0)
(-6.22956e-09 -2535.2 -0)
(-6.36223e-09 -2535.2 -0)
(-6.50696e-09 -2535.2 -0)
(-6.4346e-09 -2535.2 -0)
(-6.35017e-09 -2535.2 -0)
(-6.09689e-09 -2535.2 -0)
(-5.37322e-09 -2535.2 -0)
(-4.90284e-09 -2535.2 -0)
(-4.41436e-09 -2535.2 -0)
(-3.6123e-09 -2535.2 -0)
(-2.8223e-09 -2535.2 -0)
(-2.18306e-09 -2535.2 -0)
(-1.34481e-09 -2535.2 -0)
(-5.12597e-10 -2535.2 -0)
(2.05039e-10 -2535.2 -0)
(1.18199e-09 -2535.2 -0)
(2.27955e-09 -2535.2 -0)
(3.05146e-09 -2535.2 -0)
(3.66054e-09 -2535.2 -0)
(4.26963e-09 -2535.2 -0)
(4.7762e-09 -2535.2 -0)
(5.36116e-09 -2535.2 -0)
(5.95215e-09 -2535.2 -0)
(6.48887e-09 -2535.2 -0)
(6.6336e-09 -2535.2 -0)
(6.53712e-09 -2535.2 -0)
(6.52505e-09 -2535.2 -0)
(6.28383e-09 -2535.2 -0)
(6.05467e-09 -2535.2 -0)
(5.68078e-09 -2535.2 -0)
(4.84856e-09 -2535.2 -0)
(3.4555e-09 -2535.2 -0)
(1.60413e-09 -2535.2 -0)
(-1.24832e-09 -2535.2 -0)
(-5.12597e-09 -2535.2 -0)
(-1.18078e-08 -2535.2 -0)
(-2.14868e-08 -2535.2 -0)
(-4.03203e-08 -2535.2 -0)
(-7.03283e-08 -2535.2 -0)
(-1.57946e-07 -2535.2 -0)
(-3.45261e-07 -2535.2 -0)
(-1.78241e-06 -2535.2 -0)
(-4.42037e-06 -2535.2 -0)
(-2.86854e-06 -2535.2 -0)
(1.24389e-06 -939.82 -0)
(1.93307e-06 -939.82 -0)
(8.03132e-07 -939.82 -0)
(1.68564e-07 -939.82 -0)
(7.59106e-08 -939.82 -0)
(3.42968e-08 -939.82 -0)
(1.95887e-08 -939.82 -0)
(1.05673e-08 -939.82 -0)
(5.87424e-09 -939.82 -0)
(2.71119e-09 -939.82 -0)
(8.42952e-10 -939.82 -0)
(-3.7259e-10 -939.82 -0)
(-1.26311e-09 -939.82 -0)
(-1.9343e-09 -939.82 -0)
(-2.30953e-09 -939.82 -0)
(-2.52886e-09 -939.82 -0)
(-2.72704e-09 -939.82 -0)
(-2.80896e-09 -939.82 -0)
(-2.88031e-09 -939.82 -0)
(-2.8486e-09 -939.82 -0)
(-2.81953e-09 -939.82 -0)
(-2.71647e-09 -939.82 -0)
(-2.39937e-09 -939.82 -0)
(-2.19062e-09 -939.82 -0)
(-1.96072e-09 -939.82 -0)
(-1.61191e-09 -939.82 -0)
(-1.26046e-09 -939.82 -0)
(-9.72433e-10 -939.82 -0)
(-6.05128e-10 -939.82 -0)
(-2.32538e-10 -939.82 -0)
(8.98444e-11 -939.82 -0)
(5.28496e-10 -939.82 -0)
(1.01471e-09 -939.82 -0)
(1.36616e-09 -939.82 -0)
(1.63834e-09 -939.82 -0)
(1.91051e-09 -939.82 -0)
(2.12456e-09 -939.82 -0)
(2.38352e-09 -939.82 -0)
(2.65569e-09 -939.82 -0)
(2.89088e-09 -939.82 -0)
(2.94373e-09 -939.82 -0)
(2.88559e-09 -939.82 -0)
(2.87502e-09 -939.82 -0)
(2.75347e-09 -939.82 -0)
(2.63455e-09 -939.82 -0)
(2.4443e-09 -939.82 -0)
(2.03207e-09 -939.82 -0)
(1.35824e-09 -939.82 -0)
(4.70362e-10 -939.82 -0)
(-8.93159e-10 -939.82 -0)
(-2.77725e-09 -939.82 -0)
(-5.9588e-09 -939.82 -0)
(-1.06492e-08 -939.82 -0)
(-1.96336e-08 -939.82 -0)
(-3.4347e-08 -939.82 -0)
(-7.58102e-08 -939.82 -0)
(-1.68387e-07 -939.82 -0)
(-8.02884e-07 -939.82 -0)
(-1.9329e-06 -939.82 -0)
(-1.24389e-06 -939.82 -0)
(5.30457e-07 -376.279 -0)
(8.31518e-07 -376.279 -0)
(3.55938e-07 -376.279 -0)
(8.04104e-08 -376.279 -0)
(3.58092e-08 -376.279 -0)
(1.64398e-08 -376.279 -0)
(9.37002e-09 -376.279 -0)
(5.14072e-09 -376.279 -0)
(2.90443e-09 -376.279 -0)
(1.41738e-09 -376.279 -0)
(5.27663e-10 -376.279 -0)
(-5.25379e-11 -376.279 -0)
(-4.68273e-10 -376.279 -0)
(-7.90353e-10 -376.279 -0)
(-9.71951e-10 -376.279 -0)
(-1.07474e-09 -376.279 -0)
(-1.16954e-09 -376.279 -0)
(-1.21865e-09 -376.279 -0)
(-1.2552e-09 -376.279 -0)
(-1.24035e-09 -376.279 -0)
(-1.23121e-09 -376.279 -0)
(-1.19352e-09 -376.279 -0)
(-1.05647e-09 -376.279 -0)
(-9.61672e-10 -376.279 -0)
(-8.55454e-10 -376.279 -0)
(-7.06978e-10 -376.279 -0)
(-5.53932e-10 -376.279 -0)
(-4.28298e-10 -376.279 -0)
(-2.684e-10 -376.279 -0)
(-1.05076e-10 -376.279 -0)
(3.88324e-11 -376.279 -0)
(2.34136e-10 -376.279 -0)
(4.46572e-10 -376.279 -0)
(6.01902e-10 -376.279 -0)
(7.2411e-10 -376.279 -0)
(8.39465e-10 -376.279 -0)
(9.29693e-10 -376.279 -0)
(1.04162e-09 -376.279 -0)
(1.16611e-09 -376.279 -0)
(1.26662e-09 -376.279 -0)
(1.28261e-09 -376.279 -0)
(1.25292e-09 -376.279 -0)
(1.2472e-09 -376.279 -0)
(1.18667e-09 -376.279 -0)
(1.125e-09 -376.279 -0)
(1.0302e-09 -376.279 -0)
(8.3147e-10 -376.279 -0)
(5.10531e-10 -376.279 -0)
(9.13703e-11 -376.279 -0)
(-5.49364e-10 -376.279 -0)
(-1.44822e-09 -376.279 -0)
(-2.94212e-09 -376.279 -0)
(-5.1727e-09 -376.279 -0)
(-9.38716e-09 -376.279 -0)
(-1.64615e-08 -376.279 -0)
(-3.57692e-08 -376.279 -0)
(-8.0335e-08 -376.279 -0)
(-3.55827e-07 -376.279 -0)
(-8.31444e-07 -376.279 -0)
(-5.30454e-07 -376.279 -0)
(2.25521e-07 -158.762 -0)
(3.56671e-07 -158.762 -0)
(1.57296e-07 -158.762 -0)
(3.80477e-08 -158.762 -0)
(1.68251e-08 -158.762 -0)
(7.83728e-09 -158.762 -0)
(4.46062e-09 -158.762 -0)
(2.48305e-09 -158.762 -0)
(1.42326e-09 -158.762 -0)
(7.27902e-10 -158.762 -0)
(3.03293e-10 -158.762 -0)
(2.90964e-11 -158.762 -0)
(-1.65208e-10 -158.762 -0)
(-3.18087e-10 -158.762 -0)
(-4.05376e-10 -158.762 -0)
(-4.54692e-10 -158.762 -0)
(-5.01049e-10 -158.762 -0)
(-5.27186e-10 -158.762 -0)
(-5.43954e-10 -158.762 -0)
(-5.38036e-10 -158.762 -0)
(-5.3705e-10 -158.762 -0)
(-5.22255e-10 -158.762 -0)
(-4.63076e-10 -158.762 -0)
(-4.21651e-10 -158.762 -0)
(-3.74307e-10 -158.762 -0)
(-3.0921e-10 -158.762 -0)
(-2.42141e-10 -158.762 -0)
(-1.874e-10 -158.762 -0)
(-1.17865e-10 -158.762 -0)
(-4.73432e-11 -158.762 -0)
(1.62742e-11 -158.762 -0)
(1.02577e-10 -158.762 -0)
(1.95291e-10 -158.762 -0)
(2.64826e-10 -158.762 -0)
(3.1858e-10 -158.762 -0)
(3.68389e-10 -158.762 -0)
(4.05869e-10 -158.762 -0)
(4.54692e-10 -158.762 -0)
(5.11405e-10 -158.762 -0)
(5.53817e-10 -158.762 -0)
(5.57762e-10 -158.762 -0)
(5.41981e-10 -158.762 -0)
(5.37543e-10 -158.762 -0)
(5.09926e-10 -158.762 -0)
(4.78364e-10 -158.762 -0)
(4.30527e-10 -158.762 -0)
(3.34855e-10 -158.762 -0)
(1.84441e-10 -158.762 -0)
(-1.2329e-11 -158.762 -0)
(-3.14635e-10 -158.762 -0)
(-7.40724e-10 -158.762 -0)
(-1.43953e-09 -158.762 -0)
(-2.49588e-09 -158.762 -0)
(-4.469e-09 -158.762 -0)
(-7.84566e-09 -158.762 -0)
(-1.68078e-08 -158.762 -0)
(-3.80171e-08 -158.762 -0)
(-1.57248e-07 -158.762 -0)
(-3.56637e-07 -158.762 -0)
(-2.25519e-07 -158.762 -0)
(9.84229e-08 -70.7809 -0)
(1.57081e-07 -70.7809 -0)
(7.13598e-08 -70.7809 -0)
(1.83945e-08 -70.7809 -0)
(8.10567e-09 -70.7809 -0)
(3.8258e-09 -70.7809 -0)
(2.17616e-09 -70.7809 -0)
(1.2271e-09 -70.7809 -0)
(7.12836e-10 -70.7809 -0)
(3.77873e-10 -70.7809 -0)
(1.71203e-10 -70.7809 -0)
(3.78749e-11 -70.7809 -0)
(-5.53893e-11 -70.7809 -0)
(-1.29826e-10 -70.7809 -0)
(-1.72298e-10 -70.7809 -0)
(-1.97037e-10 -70.7809 -0)
(-2.20025e-10 -70.7809 -0)
(-2.34036e-10 -70.7809 -0)
(-2.41918e-10 -70.7809 -0)
(-2.39728e-10 -70.7809 -0)
(-2.40385e-10 -70.7809 -0)
(-2.34693e-10 -70.7809 -0)
(-2.0864e-10 -70.7809 -0)
(-1.89593e-10 -70.7809 -0)
(-1.677e-10 -70.7809 -0)
(-1.3924e-10 -70.7809 -0)
(-1.09246e-10 -70.7809 -0)
(-8.40691e-11 -70.7809 -0)
(-5.32e-11 -70.7809 -0)
(-2.14551e-11 -70.7809 -0)
(7.00576e-12 -70.7809 -0)
(4.61942e-11 -70.7809 -0)
(8.80099e-11 -70.7809 -0)
(1.19317e-10 -70.7809 -0)
(1.44275e-10 -70.7809 -0)
(1.6573e-10 -70.7809 -0)
(1.8215e-10 -70.7809 -0)
(2.03386e-10 -70.7809 -0)
(2.30096e-10 -70.7809 -0)
(2.48486e-10 -70.7809 -0)
(2.48923e-10 -70.7809 -0)
(2.40604e-10 -70.7809 -0)
(2.37977e-10 -70.7809 -0)
(2.24841e-10 -70.7809 -0)
(2.07984e-10 -70.7809 -0)
(1.84339e-10 -70.7809 -0)
(1.36612e-10 -70.7809 -0)
(6.43654e-11 -70.7809 -0)
(-3.10881e-11 -70.7809 -0)
(-1.76895e-10 -70.7809 -0)
(-3.84003e-10 -70.7809 -0)
(-7.19185e-10 -70.7809 -0)
(-1.23236e-09 -70.7809 -0)
(-2.17989e-09 -70.7809 -0)
(-3.82887e-09 -70.7809 -0)
(-8.09822e-09 -70.7809 -0)
(-1.83814e-08 -70.7809 -0)
(-7.13379e-08 -70.7809 -0)
(-1.57065e-07 -70.7809 -0)
(-9.84215e-08 -70.7809 -0)
(4.65992e-08 -34.7208 -0)
(7.5064e-08 -34.7208 -0)
(3.51197e-08 -34.7208 -0)
(9.60682e-09 -34.7208 -0)
(4.23099e-09 -34.7208 -0)
(2.02153e-09 -34.7208 -0)
(1.1497e-09 -34.7208 -0)
(6.55826e-10 -34.7208 -0)
(3.85451e-10 -34.7208 -0)
(2.10409e-10 -34.7208 -0)
(1.01773e-10 -34.7208 -0)
(3.14611e-11 -34.7208 -0)
(-1.75253e-11 -34.7208 -0)
(-5.6271e-11 -34.7208 -0)
(-7.91806e-11 -34.7208 -0)
(-9.22718e-11 -34.7208 -0)
(-1.04729e-10 -34.7208 -0)
(-1.12542e-10 -34.7208 -0)
(-1.16554e-10 -34.7208 -0)
(-1.15604e-10 -34.7208 -0)
(-1.16659e-10 -34.7208 -0)
(-1.14653e-10 -34.7208 -0)
(-1.02301e-10 -34.7208 -0)
(-9.24829e-11 -34.7208 -0)
(-8.16088e-11 -34.7208 -0)
(-6.77786e-11 -34.7208 -0)
(-5.34205e-11 -34.7208 -0)
(-4.11739e-11 -34.7208 -0)
(-2.59712e-11 -34.7208 -0)
(-1.0663e-11 -34.7208 -0)
(3.16722e-12 -34.7208 -0)
(2.26984e-11 -34.7208 -0)
(4.29687e-11 -34.7208 -0)
(5.8488e-11 -34.7208 -0)
(7.07346e-11 -34.7208 -0)
(8.09753e-11 -34.7208 -0)
(8.86822e-11 -34.7208 -0)
(9.90285e-11 -34.7208 -0)
(1.12225e-10 -34.7208 -0)
(1.20988e-10 -34.7208 -0)
(1.20566e-10 -34.7208 -0)
(1.15815e-10 -34.7208 -0)
(1.14337e-10 -34.7208 -0)
(1.07052e-10 -34.7208 -0)
(9.79728e-11 -34.7208 -0)
(8.46704e-11 -34.7208 -0)
(5.93326e-11 -34.7208 -0)
(2.2065e-11 -34.7208 -0)
(-2.81883e-11 -34.7208 -0)
(-1.04624e-10 -34.7208 -0)
(-2.13576e-10 -34.7208 -0)
(-3.88196e-10 -34.7208 -0)
(-6.58254e-10 -34.7208 -0)
(-1.1516e-09 -34.7208 -0)
(-2.02259e-09 -34.7208 -0)
(-4.22761e-09 -34.7208 -0)
(-9.6007e-09 -34.7208 -0)
(-3.51088e-08 -34.7208 -0)
(-7.50564e-08 -34.7208 -0)
(-4.65987e-08 -34.7208 -0)
(2.57707e-08 -20.0301 -0)
(4.19059e-08 -20.0301 -0)
(2.01872e-08 -20.0301 -0)
(5.83838e-09 -20.0301 -0)
(2.57624e-09 -20.0301 -0)
(1.24499e-09 -20.0301 -0)
(7.08402e-10 -20.0301 -0)
(4.08229e-10 -20.0301 -0)
(2.42425e-10 -20.0301 -0)
(1.35798e-10 -20.0301 -0)
(6.90601e-11 -20.0301 -0)
(2.57785e-11 -20.0301 -0)
(-4.22695e-12 -20.0301 -0)
(-2.79813e-11 -20.0301 -0)
(-4.20314e-11 -20.0301 -0)
(-5.02472e-11 -20.0301 -0)
(-5.81057e-11 -20.0301 -0)
(-6.31662e-11 -20.0301 -0)
(-6.55476e-11 -20.0301 -0)
(-6.50713e-11 -20.0301 -0)
(-6.63215e-11 -20.0301 -0)
(-6.5369e-11 -20.0301 -0)
(-5.8463e-11 -20.0301 -0)
(-5.26286e-11 -20.0301 -0)
(-4.6556e-11 -20.0301 -0)
(-3.85784e-11 -20.0301 -0)
(-3.04222e-11 -20.0301 -0)
(-2.35757e-11 -20.0301 -0)
(-1.48836e-11 -20.0301 -0)
(-6.07253e-12 -20.0301 -0)
(1.7265e-12 -20.0301 -0)
(1.28595e-11 -20.0301 -0)
(2.45878e-11 -20.0301 -0)
(3.35775e-11 -20.0301 -0)
(4.0424e-11 -20.0301 -0)
(4.60798e-11 -20.0301 -0)
(5.04853e-11 -20.0301 -0)
(5.63197e-11 -20.0301 -0)
(6.39401e-11 -20.0301 -0)
(6.8822e-11 -20.0301 -0)
(6.81671e-11 -20.0301 -0)
(6.51308e-11 -20.0301 -0)
(6.41187e-11 -20.0301 -0)
(5.9475e-11 -20.0301 -0)
(5.38788e-11 -20.0301 -0)
(4.51272e-11 -20.0301 -0)
(2.9291e-11 -20.0301 -0)
(6.78694e-12 -20.0301 -0)
(-2.38734e-11 -20.0301 -0)
(-7.07271e-11 -20.0301 -0)
(-1.37644e-10 -20.0301 -0)
(-2.43854e-10 -20.0301 -0)
(-4.09538e-10 -20.0301 -0)
(-7.09414e-10 -20.0301 -0)
(-1.24528e-09 -20.0301 -0)
(-2.57451e-09 -20.0301 -0)
(-5.83528e-09 -20.0301 -0)
(-2.01808e-08 -20.0301 -0)
(-4.19013e-08 -20.0301 -0)
(-2.57703e-08 -20.0301 -0)
(1.73605e-08 -14.1246 -0)
(2.85021e-08 -14.1246 -0)
(1.41333e-08 -14.1246 -0)
(4.30776e-09 -14.1246 -0)
(1.90861e-09 -14.1246 -0)
(9.32157e-10 -14.1246 -0)
(5.30988e-10 -14.1246 -0)
(3.08808e-10 -14.1246 -0)
(1.85048e-10 -14.1246 -0)
(1.05911e-10 -14.1246 -0)
(5.62103e-11 -14.1246 -0)
(2.3745e-11 -14.1246 -0)
(1.18725e-12 -14.1246 -0)
(-1.63759e-11 -14.1246 -0)
(-2.69383e-11 -14.1246 -0)
(-3.32431e-11 -14.1246 -0)
(-3.90565e-11 -14.1246 -0)
(-4.31095e-11 -14.1246 -0)
(-4.49109e-11 -14.1246 -0)
(-4.47062e-11 -14.1246 -0)
(-4.57706e-11 -14.1246 -0)
(-4.54022e-11 -14.1246 -0)
(-4.0735e-11 -14.1246 -0)
(-3.64773e-11 -14.1246 -0)
(-3.23833e-11 -14.1246 -0)
(-2.68565e-11 -14.1246 -0)
(-2.1084e-11 -14.1246 -0)
(-1.64987e-11 -14.1246 -0)
(-1.03578e-11 -14.1246 -0)
(-4.21679e-12 -14.1246 -0)
(1.18725e-12 -14.1246 -0)
(8.9658e-12 -14.1246 -0)
(1.71538e-11 -14.1246 -0)
(2.34585e-11 -14.1246 -0)
(2.81256e-11 -14.1246 -0)
(3.1933e-11 -14.1246 -0)
(3.50854e-11 -14.1246 -0)
(3.89746e-11 -14.1246 -0)
(4.44606e-11 -14.1246 -0)
(4.76948e-11 -14.1246 -0)
(4.69579e-11 -14.1246 -0)
(4.45834e-11 -14.1246 -0)
(4.36008e-11 -14.1246 -0)
(4.02028e-11 -14.1246 -0)
(3.57813e-11 -14.1246 -0)
(2.90672e-11 -14.1246 -0)
(1.71537e-11 -14.1246 -0)
(4.91277e-13 -14.1246 -0)
(-2.2394e-11 -14.1246 -0)
(-5.73156e-11 -14.1246 -0)
(-1.07221e-10 -14.1246 -0)
(-1.8603e-10 -14.1246 -0)
(-3.09627e-10 -14.1246 -0)
(-5.31725e-10 -14.1246 -0)
(-9.32239e-10 -14.1246 -0)
(-1.90738e-09 -14.1246 -0)
(-4.30576e-09 -14.1246 -0)
(-1.41288e-08 -14.1246 -0)
(-2.84989e-08 -14.1246 -0)
(-1.73602e-08 -14.1246 -0)
(1.37959e-08 -11.7732 -0)
(2.28719e-08 -11.7732 -0)
(1.16713e-08 -11.7732 -0)
(3.73841e-09 -11.7732 -0)
(1.66602e-09 -11.7732 -0)
(8.21973e-10 -11.7732 -0)
(4.68801e-10 -11.7732 -0)
(2.74944e-10 -11.7732 -0)
(1.66163e-10 -11.7732 -0)
(9.69785e-11 -11.7732 -0)
(5.31603e-11 -11.7732 -0)
(2.4469e-11 -11.7732 -0)
(4.68768e-12 -11.7732 -0)
(-1.07717e-11 -11.7732 -0)
(-2.01138e-11 -11.7732 -0)
(-2.57656e-11 -11.7732 -0)
(-3.09187e-11 -11.7732 -0)
(-3.46423e-11 -11.7732 -0)
(-3.62381e-11 -11.7732 -0)
(-3.62713e-11 -11.7732 -0)
(-3.72687e-11 -11.7732 -0)
(-3.7169e-11 -11.7732 -0)
(-3.34454e-11 -11.7732 -0)
(-2.99214e-11 -11.7732 -0)
(-2.65635e-11 -11.7732 -0)
(-2.20088e-11 -11.7732 -0)
(-1.72547e-11 -11.7732 -0)
(-1.35644e-11 -11.7732 -0)
(-8.51096e-12 -11.7732 -0)
(-3.42433e-12 -11.7732 -0)
(9.64133e-13 -11.7732 -0)
(7.28086e-12 -11.7732 -0)
(1.40963e-11 -11.7732 -0)
(1.92827e-11 -11.7732 -0)
(2.31059e-11 -11.7732 -0)
(2.62311e-11 -11.7732 -0)
(2.87578e-11 -11.7732 -0)
(3.18496e-11 -11.7732 -0)
(3.63046e-11 -11.7732 -0)
(3.89975e-11 -11.7732 -0)
(3.81664e-11 -11.7732 -0)
(3.59721e-11 -11.7732 -0)
(3.5008e-11 -11.7732 -0)
(3.19161e-11 -11.7732 -0)
(2.80263e-11 -11.7732 -0)
(2.17761e-11 -11.7732 -0)
(1.12039e-11 -11.7732 -0)
(-3.29135e-12 -11.7732 -0)
(-2.34052e-11 -11.7732 -0)
(-5.40912e-11 -11.7732 -0)