/*--------------------------------*- C++ -*----------------------------------*\
| =========                 |                                                 |
| \\      /  F ield         | foam-extend: Open Source CFD                    |
|  \\    /   O peration     | Version:     4.0                                |
|   \\  /    A nd           | Web:         http://www.foam-extend.org         |
|    \\/     M anipulation  |                                                 |
\*---------------------------------------------------------------------------*/
FoamFile
{
    version     2.0;
    format      ascii;
    class       surfaceScalarField;
    location    "3";
    object      phi;
}
// * * * * * * * * * * * * * * * * * * * * * * * * * * * * * * * * * * * * * //

dimensions      [0 3 -1 0 0 0 0];

internalField   nonuniform List<scalar> 
13744
(
-4.53754e-09
4.53754e-09
2.72091e-09
-7.25845e-09
5.069e-11
2.67022e-09
1.74675e-11
3.32225e-11
5.82013e-12
1.16471e-11
3.28556e-12
2.53383e-12
1.8735e-12
1.41237e-12
1.22912e-12
6.44068e-13
8.29541e-13
3.99264e-13
5.90612e-13
2.39059e-13
4.31889e-13
1.59484e-13
3.23339e-13
1.07997e-13
2.47542e-13
7.51343e-14
1.90944e-13
5.50671e-14
1.49978e-13
4.11893e-14
1.18313e-13
3.18356e-14
9.3885e-14
2.51466e-14
7.48702e-14
1.82632e-14
6.00959e-14
1.52378e-14
4.77073e-14
1.14353e-14
3.83017e-14
9.46465e-15
3.0626e-14
8.63198e-15
2.39609e-14
6.4948e-15
1.88803e-14
5.77316e-15
1.47071e-14
4.996e-15
1.07217e-14
4.08007e-15
7.75081e-15
4.08007e-15
5.16021e-15
3.27516e-15
2.29176e-15
2.69229e-15
-6.53488e-16
2.83107e-15
-7.40389e-16
-3.33067e-16
-6.5541e-15
5.21805e-15
-7.74616e-15
1.36002e-15
-9.23943e-15
2.63678e-15
-1.61731e-14
7.29972e-15
-1.88615e-14
2.72005e-15
-2.24835e-14
4.80171e-15
-3.20806e-14
1.02418e-14
-3.82811e-14
6.18949e-15
-4.62416e-14
6.68909e-15
-6.15668e-14
1.54876e-14
-7.48648e-14
1.3517e-14
-9.24155e-14
1.74027e-14
-1.19797e-13
2.73392e-14
-1.49987e-13
3.09197e-14
-1.89451e-13
4.00791e-14
-2.4899e-13
5.79259e-14
-3.23351e-13
7.33025e-14
-4.30454e-13
1.0722e-13
-5.92092e-13
1.60122e-13
-8.29518e-13
2.36922e-13
-1.22763e-12
3.98848e-13
-1.87495e-12
6.46538e-13
-3.28555e-12
1.41048e-12
-5.81867e-12
2.53331e-12
-1.74689e-11
1.165e-11
-5.06901e-11
3.32203e-11
-2.72091e-09
2.67022e-09
4.53754e-09
-7.25845e-09
4.53754e-09
2.48179e-08
-2.02804e-08
4.15556e-09
1.34039e-08
1.5702e-10
6.66876e-09
5.41549e-11
1.36087e-10
1.80521e-11
4.77503e-11
1.03289e-11
1.02604e-11
5.8078e-12
5.93253e-12
3.86018e-12
2.59298e-12
2.57439e-12
1.68651e-12
1.85201e-12
9.61398e-13
1.34323e-12
6.66411e-13
1.01409e-12
4.36623e-13
7.69794e-13
3.20438e-13
5.99951e-13
2.26819e-13
4.6807e-13
1.72223e-13
3.70506e-13
1.27454e-13
2.94745e-13
1.00725e-13
2.35476e-13
8.02414e-14
1.87721e-13
6.0757e-14
1.51452e-13
4.9627e-14
1.20693e-13
3.95795e-14
9.59091e-14
3.27516e-14
7.6803e-14
2.44249e-14
5.99353e-14
2.18159e-14
4.57261e-14
1.65978e-14
3.51124e-14
1.40721e-14
2.46685e-14
1.34059e-14
1.54253e-14
1.05749e-14
8.67365e-15
1.05194e-14
2.92343e-16
1.05749e-14
-1.19062e-14
1.31839e-14
-1.11327e-14
5.30131e-15
-2.46673e-14
1.51823e-14
-3.93008e-14
1.6237e-14
-4.15405e-14
9.10383e-15
-5.99074e-14
2.08999e-14
-8.0966e-14
2.3842e-14
-9.17023e-14
2.1122e-14
-1.20664e-13
3.47222e-14
-1.55626e-13
4.31044e-14
-1.83521e-13
4.32432e-14
-2.35473e-13
6.56419e-14
-2.98945e-13
8.17124e-14
-3.66331e-13
9.45632e-14
-4.68078e-13
1.32255e-13
-6.04111e-13
1.74222e-13
-7.65558e-13
2.21101e-13
-1.01409e-12
3.24213e-13
-1.34745e-12
4.40564e-13
-1.84782e-12
6.63025e-13
-2.57436e-12
9.63785e-13
-3.86435e-12
1.68765e-12
-5.80359e-12
2.58638e-12
-1.03289e-11
5.93695e-12
-1.80563e-11
1.02615e-11
-5.41507e-11
4.77461e-11
-1.5702e-10
1.36092e-10
-4.15556e-09
6.66876e-09
-2.48179e-08
1.34039e-08
-2.02804e-08
1.57406e-08
-3.6021e-08
6.10789e-09
2.30366e-08
2.62201e-10
1.25144e-08
9.3121e-11
3.05168e-10
3.13696e-11
1.095e-10
1.80144e-11
2.36112e-11
1.00875e-11
1.38612e-11
6.73299e-12
5.94813e-12
4.47214e-12
3.94388e-12
3.23074e-12
2.20302e-12
2.33398e-12
1.5653e-12
1.76853e-12
1.00334e-12
1.33941e-12
7.49394e-13
1.04575e-12
5.20507e-13
8.14728e-13
4.05433e-13
6.46958e-13
2.97755e-13
5.12917e-13
2.33272e-13
4.11014e-13
1.7766e-13
3.28027e-13
1.4835e-13
2.63988e-13
1.12042e-13
2.1077e-13
9.5278e-14
1.68313e-13
7.48394e-14
1.33705e-13
6.02157e-14
1.04925e-13
5.06123e-14
8.06551e-14
4.35554e-14
6.09269e-14
3.53016e-14
4.32191e-14
3.08538e-14
2.76402e-14
2.63053e-14
1.41983e-14
2.23398e-14
-4.08117e-16
2.75023e-14
-1.53288e-14
2.63053e-14
-2.55329e-14
1.46064e-14
-4.32277e-14
3.2252e-14
-6.29039e-14
3.44828e-14
-7.8708e-14
2.39878e-14
-1.04895e-13
4.80102e-14
-1.35627e-13
5.50671e-14
-1.66335e-13
5.10841e-14
-2.10731e-13
7.97626e-14
-2.65918e-13
1.0001e-13
-3.26035e-13
1.04999e-13
-4.11016e-13
1.49474e-13
-5.14899e-13
1.84828e-13
-6.45007e-13
2.23922e-13
-8.14736e-13
3.00891e-13
-1.04767e-12
4.09572e-13
-1.33738e-12
5.12475e-13
-1.76851e-12
7.52863e-13
-2.33597e-12
1.00842e-12
-3.22878e-12
1.55314e-12
-4.47211e-12
2.20948e-12
-6.73492e-12
3.95158e-12
-1.00855e-11
5.93649e-12
-1.80144e-11
1.38647e-11
-3.13716e-11
2.36162e-11
-9.3119e-11
1.09491e-10
-2.62201e-10
3.05173e-10
-6.10789e-09
1.25145e-08
-1.57406e-08
2.30366e-08
-3.6021e-08
5.60815e-09
-4.16291e-08
4.84105e-09
2.38037e-08
3.62402e-10
1.69931e-08
1.33383e-10
5.34187e-10
4.58683e-11
1.97015e-10
2.6337e-11
4.31449e-11
1.4748e-11
2.54482e-11
9.85375e-12
1.08419e-11
6.53839e-12
7.26416e-12
4.7298e-12
4.01313e-12
3.41278e-12
2.88063e-12
2.58928e-12
1.82653e-12
1.9596e-12
1.37889e-12
1.53099e-12
9.49137e-13
1.19228e-12
7.4235e-13
9.47874e-13
5.44064e-13
7.50665e-13
4.31493e-13
6.02228e-13
3.29041e-13
4.80854e-13
2.63452e-13
3.86701e-13
2.05597e-13
3.08977e-13
1.70129e-13
2.47189e-13
1.36694e-13
1.95843e-13
1.13374e-13
1.54012e-13
9.24807e-14
1.18702e-13
7.77503e-14
8.91722e-14
6.34041e-14
6.34736e-14
5.73144e-14
4.08556e-14
5.0719e-14
2.01665e-14
4.38538e-14
-5.934e-16
4.66129e-14
-1.99181e-14
4.70925e-14
-4.05856e-14
3.66981e-14
-6.34925e-14
5.41043e-14
-8.93773e-14
6.11846e-14
-1.18555e-13
5.47453e-14
-1.53971e-13
8.31297e-14
-1.95965e-13
9.65079e-14
-2.46995e-13
1.01226e-13
-3.08928e-13
1.39356e-13
-3.86822e-13
1.74717e-13
-4.80642e-13
1.98275e-13
-6.02225e-13
2.7434e-13
-7.50871e-13
3.34498e-13
-9.47715e-13
4.23087e-13
-1.19229e-12
5.45643e-13
-1.53112e-12
7.45191e-13
-1.95934e-12
9.3752e-13
-2.58924e-12
1.38411e-12
-3.41297e-12
1.83154e-12
-4.72961e-12
2.87113e-12
-6.53835e-12
4.01475e-12
-9.8539e-12
7.26622e-12
-1.47478e-11
1.08314e-11
-2.6337e-11
2.54554e-11
-4.58685e-11
4.3149e-11
-1.33383e-10
1.97008e-10
-3.62402e-10
5.34191e-10
-4.84105e-09
1.69931e-08
-5.60815e-09
2.38037e-08
-4.16291e-08
4.88016e-09
-4.65093e-08
3.77508e-09
2.49088e-08
4.62237e-10
2.03059e-08
1.74881e-10
8.21541e-10
6.15889e-11
3.10309e-10
3.5327e-11
6.94075e-11
1.9812e-11
4.09663e-11
1.32379e-11
1.74147e-11
8.78414e-12
1.17144e-11
6.35691e-12
6.43779e-12
4.5857e-12
4.65374e-12
3.48078e-12
2.93157e-12
2.63366e-12
2.2257e-12
2.05852e-12
1.52262e-12
1.60286e-12
1.19723e-12
1.27478e-12
8.6807e-13
1.0095e-12
6.97654e-13
8.10177e-13
5.29085e-13
6.46927e-13
4.28982e-13
5.20442e-13
3.33609e-13
4.15882e-13
2.7609e-13
3.32828e-13
2.20779e-13
2.63733e-13
1.80409e-13
2.07469e-13
1.48865e-13
1.59928e-13
1.24581e-13
1.20173e-13
1.01288e-13
8.55489e-14
9.18365e-14
5.50375e-14
8.01115e-14
2.70479e-14
7.14678e-14
-4.31601e-16
7.46066e-14
-2.70164e-14
7.4298e-14
-5.47405e-14
6.42036e-14
-8.55768e-14
8.71308e-14
-1.20468e-13
9.60714e-14
-1.59722e-13
9.45184e-14
-2.07421e-13
1.2933e-13
-2.63922e-13
1.54026e-13
-3.32555e-13
1.72654e-13
-4.15819e-13
2.26914e-13
-5.20616e-13
2.80344e-13
-6.4662e-13
3.21978e-13
-8.10182e-13
4.35681e-13
-1.00979e-12
5.30737e-13
-1.27455e-12
6.84873e-13
-1.60286e-12
8.76252e-13
-2.05872e-12
1.20413e-12
-2.6333e-12
1.51522e-12
-3.48072e-12
2.22977e-12
-4.58596e-12
2.93763e-12
-6.35665e-12
4.64318e-12
-8.78411e-12
6.4425e-12
-1.32382e-11
1.17207e-11
-1.98117e-11
1.74033e-11
-3.5327e-11
4.09685e-11
-6.15892e-11
6.94139e-11
-1.74881e-10
3.10295e-10
-4.62237e-10
8.21549e-10
-3.77508e-09
2.03059e-08
-4.88016e-09
2.49088e-08
-4.65093e-08
5.60549e-09
-5.21148e-08
3.46374e-09
2.70506e-08
5.62821e-10
2.32069e-08
2.17728e-10
1.16664e-09
7.85668e-11
4.49467e-10
4.50141e-11
1.02957e-10
2.53033e-11
6.0676e-11
1.69012e-11
2.58174e-11
1.12209e-11
1.7394e-11
8.12055e-12
9.54058e-12
5.85878e-12
6.91594e-12
4.44774e-12
4.34369e-12
3.36545e-12
3.30868e-12
2.631e-12
2.25605e-12
2.04871e-12
1.78032e-12
1.62967e-12
1.29078e-12
1.29068e-12
1.03583e-12
1.03604e-12
7.81865e-13
8.27377e-13
6.39695e-13
6.65786e-13
4.94266e-13
5.321e-13
4.07839e-13
4.25915e-13
3.2615e-13
3.37588e-13
2.69255e-13
2.65615e-13
2.22286e-13
2.04771e-13
1.8736e-13
1.53928e-13
1.5599e-13
1.09578e-13
1.36443e-13
7.04724e-14
1.20753e-13
3.46092e-14
1.09781e-13
-3.4531e-16
1.05935e-13
-3.48393e-14
1.0906e-13
-6.99838e-14
9.80288e-14
-1.09617e-13
1.27552e-13
-1.54453e-13
1.43139e-13
-2.04367e-13
1.44074e-13
-2.65559e-13
1.90643e-13
-3.3798e-13
2.25787e-13
-4.25423e-13
2.57328e-13
-5.32025e-13
3.28996e-13
-6.66157e-13
4.14434e-13
-8.26833e-13
4.86588e-13
-1.03605e-12
6.45521e-13
-1.2912e-12
7.89403e-13
-1.62923e-12
1.0265e-12
-2.04871e-12
1.29402e-12
-2.63141e-12
1.78691e-12
-3.36484e-12
2.24616e-12
-4.44767e-12
3.31384e-12
-5.85925e-12
4.34943e-12
-8.12006e-12
6.90092e-12
-1.12208e-11
9.54464e-12
-1.69016e-11
1.74011e-11
-2.53028e-11
2.58071e-11
-4.50141e-11
6.06823e-11
-7.85673e-11
1.02966e-10
-2.17728e-10
4.49459e-10
-5.62821e-10
1.16664e-09
-3.46374e-09
2.32069e-08
-5.60549e-09
2.70506e-08
-5.21148e-08
5.61198e-09
-5.77268e-08
3.39905e-09
2.92635e-08
6.63123e-10
2.59428e-08
2.61964e-10
1.5678e-09
9.68322e-11
6.14597e-10
5.54275e-11
1.44362e-10
3.12455e-11
8.48561e-11
2.08598e-11
3.62026e-11
1.38606e-11
2.43953e-11
1.00294e-11
1.33707e-11
7.23853e-12
9.70586e-12
5.49513e-12
6.08491e-12
4.15884e-12
4.64377e-12
3.2514e-12
3.16608e-12
2.53225e-12
2.49909e-12
2.01449e-12
1.80595e-12
1.5957e-12
1.45308e-12
1.28105e-12
1.09762e-12
1.02323e-12
8.94899e-13
8.23499e-13
6.93025e-13
6.58284e-13
5.78496e-13
5.27016e-13
4.56376e-13
4.17789e-13
3.77826e-13
3.28785e-13
3.0898e-13
2.5353e-13
2.61173e-13
1.90585e-13
2.17152e-13
1.357e-13
1.91296e-13
8.72815e-14
1.64976e-13
4.28008e-14
1.5139e-13
-3.25749e-16
1.53172e-13
-4.31073e-14
1.5026e-13
-8.67868e-14
1.44593e-13
-1.35753e-13
1.7363e-13
-1.91152e-13
1.96741e-13
-2.5312e-13
2.03548e-13
-3.28722e-13
2.66407e-13
-4.1819e-13
3.17056e-13
-5.26501e-13
3.6666e-13
-6.5819e-13
4.65347e-13
-8.23868e-13
5.8397e-13
-1.02266e-12
6.83191e-13
-1.28106e-12
9.02243e-13
-1.59625e-12
1.10253e-12
-2.01403e-12
1.44032e-12
-2.53224e-12
1.81099e-12
-3.25182e-12
2.50457e-12
-4.15819e-12
3.15399e-12
-5.49503e-12
4.64902e-12
-7.23901e-12
6.09145e-12
-1.00289e-11
9.69358e-12
-1.38605e-11
1.33748e-11
-2.08602e-11
2.44014e-11
-3.1245e-11
3.61895e-11
-5.54275e-11
8.48634e-11
-9.68327e-11
1.4437e-10
-2.61964e-10
6.14589e-10
-6.63124e-10
1.5678e-09
-3.39905e-09
2.59428e-08
-5.61198e-09
2.92635e-08
-5.77268e-08
5.29417e-09
-6.30209e-08
3.33844e-09
3.12192e-08
7.6219e-10
2.8519e-08
3.0751e-10
2.02247e-09
1.16409e-10
8.05702e-10
6.65951e-11
1.94179e-10
3.76629e-11
1.1379e-10
2.51306e-11
4.87339e-11
1.67156e-11
3.28084e-11
1.20925e-11
1.79927e-11
8.73183e-12
1.30643e-11
6.62815e-12
8.18964e-12
5.01791e-12
6.2528e-12
3.92292e-12
4.26072e-12
3.05598e-12
3.36686e-12
2.43123e-12
2.43095e-12
1.92619e-12
1.96078e-12
1.54651e-12
1.47841e-12
1.23555e-12
1.20807e-12
9.94459e-13
9.36189e-13
7.95116e-13
7.73331e-13
6.36674e-13
6.16424e-13
5.04793e-13
5.10898e-13
3.9733e-13
4.18907e-13
3.06464e-13
3.51167e-13
2.30375e-13
2.90439e-13
1.64062e-13
2.58772e-13
1.05543e-13
2.2733e-13
5.1695e-14
2.05873e-13
-3.29635e-16
2.04435e-13
-5.20083e-14
2.00509e-13
-1.05116e-13
1.96481e-13
-1.64129e-13
2.35407e-13
-2.30918e-13
2.63751e-13
-3.06114e-13
2.79565e-13
-3.97257e-13
3.59285e-13
-5.0514e-13
4.22763e-13
-6.36194e-13
4.98346e-13
-7.95011e-13
6.21111e-13
-9.94758e-13
7.81468e-13
-1.235e-12
9.24923e-13
-1.54652e-12
1.21704e-12
-1.92671e-12
1.48348e-12
-2.43082e-12
1.94837e-12
-3.05597e-12
2.43834e-12
-3.92328e-12
3.37207e-12
-5.01728e-12
4.24627e-12
-6.62803e-12
6.2636e-12
-8.73226e-12
8.19809e-12
-1.2092e-11
1.30531e-11
-1.67156e-11
1.79985e-11
-2.5131e-11
3.28144e-11
-3.76625e-11
4.87245e-11
-6.65951e-11
1.13797e-10
-1.1641e-10
1.94186e-10
-3.07509e-10
8.05689e-10
-7.6219e-10
2.02248e-09
-3.33844e-09
2.8519e-08
-5.29417e-09
3.12192e-08
-6.30209e-08
4.95951e-09
-6.79805e-08
3.26311e-09
3.29156e-08
8.59467e-10
3.09227e-08
3.54241e-10
2.5277e-09
1.37315e-10
1.02263e-09
7.85435e-11
2.52947e-10
4.45797e-11
1.47754e-10
2.97308e-11
6.35857e-11
1.9799e-11
4.27413e-11
1.43194e-11
2.34749e-11
1.03459e-11
1.70381e-11
7.85231e-12
1.06837e-11
5.94694e-12
8.15973e-12
4.64892e-12
5.55736e-12
3.6226e-12
4.3916e-12
2.88203e-12
3.17046e-12
2.28389e-12
2.55795e-12
1.83381e-12
1.92738e-12
1.46543e-12
1.57499e-12
1.17957e-12
1.2218e-12
9.43349e-13
1.01044e-12
7.55472e-13
8.01658e-13
5.99086e-13
6.64906e-13
4.71623e-13
5.45472e-13
3.63857e-13
4.61994e-13
2.73531e-13
3.86066e-13
1.94829e-13
3.36361e-13
1.25347e-13
2.98567e-13
6.13432e-14
2.72248e-13
-3.35094e-16
2.66011e-13
-6.16664e-14
2.63026e-13
-1.24988e-13
2.60164e-13
-1.94912e-13
3.05301e-13
-2.74043e-13
3.44088e-13
-3.63568e-13
3.69249e-13
-4.71551e-13
4.65198e-13
-5.99376e-13
5.51214e-13
-7.55033e-13
6.51953e-13
-9.43223e-13
8.08924e-13
-1.1798e-12
1.01734e-12
-1.46491e-12
1.20774e-12
-1.83382e-12
1.58324e-12
-2.28437e-12
1.93427e-12
-2.88166e-12
2.54267e-12
-3.62259e-12
3.17624e-12
-4.64922e-12
4.39935e-12
-5.94632e-12
5.54379e-12
-7.85216e-12
8.16687e-12
-1.03463e-11
1.06916e-11
-1.43189e-11
1.70252e-11
-1.97989e-11
2.34813e-11
-2.97312e-11
4.27499e-11
-4.45793e-11
6.35672e-11
-7.85435e-11
1.47761e-10
-1.37315e-10
2.52958e-10
-3.54241e-10
1.02262e-09
-8.59467e-10
2.52771e-09
-3.26311e-09
3.09227e-08
-4.95951e-09
3.29156e-08
-6.79805e-08
4.63782e-09
-7.26183e-08
3.18071e-09
3.43728e-08
9.54483e-10
3.31489e-08
4.02018e-10
3.08016e-09
1.59557e-10
1.26509e-09
9.12971e-11
3.21211e-10
5.20202e-11
1.87032e-10
3.46781e-11
8.09283e-11
2.3124e-11
5.42965e-11
1.67198e-11
2.9878e-11
1.20883e-11
2.1675e-11
9.17335e-12
1.35993e-11
6.95043e-12
1.03825e-11
5.43294e-12
7.07652e-12
4.23493e-12
5.5915e-12
3.36913e-12
4.04021e-12
2.67061e-12
3.25459e-12
2.14441e-12
2.45357e-12
1.71408e-12
2.0066e-12
1.3798e-12
1.55606e-12
1.10375e-12
1.28414e-12
8.84041e-13
1.0218e-12
7.01178e-13
8.52349e-13
5.52075e-13
6.94126e-13
4.26026e-13
5.85724e-13
3.20274e-13
4.89463e-13
2.2817e-13
4.3077e-13
1.46808e-13
3.75889e-13
7.17966e-14
3.42845e-13
-3.38326e-16
3.41512e-13
-7.21416e-14
3.36121e-13
-1.46514e-13
3.3639e-13
-2.28266e-13
3.89515e-13
-3.20771e-13
4.33133e-13
-4.25794e-13
4.75271e-13
-5.51993e-13
5.92575e-13
-7.01415e-13
7.00676e-13
-8.83636e-13
8.37298e-13
-1.10361e-12
1.0334e-12
-1.37996e-12
1.2957e-12
-1.71358e-12
1.54108e-12
-2.14442e-12
2.01429e-12
-2.67106e-12
2.4582e-12
-3.36881e-12
3.24098e-12
-4.2349e-12
4.04536e-12
-5.43319e-12
5.59862e-12
-6.94982e-12
7.0613e-12
-9.17318e-12
1.03907e-11
-1.20886e-11
1.36067e-11
-1.67194e-11
2.16558e-11
-2.31239e-11
2.98823e-11
-3.46784e-11
5.43043e-11
-5.20198e-11
8.09125e-11
-9.12971e-11
1.87035e-10
-1.59558e-10
3.21219e-10
-4.02017e-10
1.26507e-09
-9.54483e-10
3.08017e-09
-3.18072e-09
3.31489e-08
-4.63782e-09
3.43727e-08
-7.26183e-08
4.31735e-09
-7.69356e-08
3.09339e-09
3.55967e-08
1.04675e-09
3.51955e-08
4.50681e-10
3.67623e-09
1.83138e-10
1.53263e-09
1.04878e-10
3.99465e-10
6.00082e-11
2.31901e-10
3.99904e-11
1.00942e-10
2.67044e-11
6.75811e-11
1.9304e-11
3.72774e-11
1.39668e-11
2.70072e-11
1.05973e-11
1.69687e-11
8.03313e-12
1.29468e-11
6.27872e-12
8.8313e-12
4.89594e-12
6.97101e-12
3.89492e-12
5.04073e-12
3.08828e-12
4.06017e-12
2.47987e-12
3.06267e-12
1.98275e-12
2.50408e-12
1.59617e-12
1.94107e-12
1.27716e-12
1.6057e-12
1.02306e-12
1.278e-12
8.11592e-13
1.05978e-12
6.39103e-13
8.65552e-13
4.93301e-13
7.34643e-13
3.70872e-13
6.07707e-13
2.64254e-13
5.34088e-13
1.70039e-13
4.72402e-13
8.31295e-14
4.32179e-13
-3.44507e-16
4.20599e-13
-8.34863e-14
4.17335e-13
-1.69812e-13
4.17905e-13
-2.64382e-13
4.79929e-13
-3.71342e-13
5.43562e-13
-4.93125e-13
5.96875e-13
-6.39017e-13
7.36033e-13
-8.11781e-13
8.75057e-13
-1.02267e-12
1.04459e-12
-1.277e-12
1.28264e-12
-1.59627e-12
1.61475e-12
-1.98227e-12
1.929e-12
-2.47988e-12
2.51103e-12
-3.0887e-12
3.06924e-12
-3.89464e-12
4.04909e-12
-4.89591e-12
5.04491e-12
-6.27891e-12
6.97915e-12
-8.03253e-12
8.81453e-12
-1.05971e-11
1.29579e-11
-1.39671e-11
1.69741e-11
-1.93036e-11
2.69923e-11
-2.67043e-11
3.7286e-11
-3.99907e-11
6.75886e-11
-6.00079e-11
1.0093e-10
-1.04878e-10
2.31909e-10
-1.83138e-10
3.99482e-10
-4.50681e-10
1.53262e-09
-1.04675e-09
3.67624e-09
-3.09339e-09
3.51955e-08
-4.31735e-09
3.55967e-08
-7.69356e-08
3.99298e-09
-8.09286e-08
3.00062e-09
3.65891e-08
1.13575e-09
3.70604e-08
5.00055e-10
4.31193e-09
2.08045e-10
1.82464e-09
1.19306e-10
4.88209e-10
6.85675e-11
2.82638e-10
4.56858e-11
1.23827e-10
3.05544e-11
8.27116e-11
2.20826e-11
4.57517e-11
1.59898e-11
3.31036e-11
1.21305e-11
2.083e-11
9.20003e-12
1.58766e-11
7.19017e-12
1.08375e-11
5.60879e-12
8.55621e-12
4.46191e-12
6.18566e-12
3.53894e-12
4.98732e-12
2.84183e-12
3.75796e-12
2.27278e-12
3.07322e-12
1.82976e-12
2.38185e-12
1.46445e-12
1.9714e-12
1.17321e-12
1.56843e-12
9.30913e-13
1.30251e-12
7.33168e-13
1.06367e-12
5.66024e-13
8.96915e-13
4.25587e-13
7.5266e-13
3.03293e-13
6.58852e-13
1.95167e-13
5.80817e-13
9.53763e-14
5.3127e-13
-3.49763e-16
5.1989e-13
-9.5765e-14
5.14172e-13
-1.95005e-13
5.22167e-13
-3.03431e-13
5.90956e-13
-4.26033e-13
6.65568e-13
-5.6592e-13
7.36978e-13
-7.33066e-13
9.06757e-13
-9.31057e-13
1.06724e-12
-1.17287e-12
1.28802e-12
-1.46427e-12
1.5755e-12
-1.82981e-12
1.97731e-12
-2.27232e-12
2.36848e-12
-2.84184e-12
3.08208e-12
-3.53931e-12
3.76794e-12
-4.46169e-12
4.96967e-12
-5.60875e-12
6.19212e-12
-7.19031e-12
8.563e-12
-9.19944e-12
1.0826e-11
-1.21303e-11
1.58871e-11
-1.599e-11
2.08365e-11
-2.20823e-11
3.30849e-11
-3.05544e-11
4.57564e-11
-4.5686e-11
8.27221e-11
-6.85672e-11
1.23811e-10
-1.19306e-10
2.82644e-10
-2.08045e-10
4.88218e-10
-5.00055e-10
1.82463e-09
-1.13575e-09
4.31194e-09
-3.00062e-09
3.70604e-08
-3.99298e-09
3.65891e-08
-8.09286e-08
3.66452e-09
-8.45931e-08
2.9018e-09
3.73518e-08
1.22097e-09
3.87412e-08
5.49944e-10
4.98296e-09
2.34259e-10
2.14032e-09
1.34595e-10
5.8787e-10
7.77207e-11
3.39514e-10
5.17823e-11
1.49765e-10
3.46885e-11
9.98061e-11
2.50667e-11
5.53685e-11
1.81657e-11
4.00018e-11
1.37796e-11
2.52144e-11
1.04563e-11
1.92033e-11
8.17144e-12
1.31246e-11
6.37676e-12
1.03503e-11
5.07277e-12
7.49033e-12
4.02471e-12
6.03541e-12
3.23203e-12
4.55136e-12
2.58557e-12
3.71549e-12
2.08174e-12
2.88694e-12
1.66655e-12
2.38208e-12
1.33527e-12
1.89864e-12
1.05974e-12
1.57793e-12
8.34735e-13
1.28886e-12
6.44598e-13
1.08864e-12
4.84696e-13
9.13784e-13
3.45476e-13
8.01411e-13
2.22322e-13
7.04591e-13
1.08624e-13
6.45551e-13
-3.58487e-16
6.24636e-13
-1.09033e-13
6.22636e-13
-2.22233e-13
6.32245e-13
-3.45634e-13
7.1338e-13
-4.85123e-13
8.06453e-13
-6.44544e-13
8.9356e-13
-8.3464e-13
1.09917e-12
-1.05983e-12
1.29769e-12
-1.33496e-12
1.55957e-12
-1.66635e-12
1.90842e-12
-2.08171e-12
2.39535e-12
-2.58514e-12
2.87251e-12
-3.23204e-12
3.72828e-12
-4.02506e-12
4.56271e-12
-5.07259e-12
6.01812e-12
-6.37672e-12
7.49663e-12
-8.17151e-12
1.03585e-11
-1.04558e-11
1.31052e-11
-1.37794e-11
1.92086e-11
-1.81659e-11
2.52212e-11
-2.50664e-11
3.99862e-11
-3.46884e-11
5.53803e-11
-5.17825e-11
9.9813e-11
-7.77204e-11
1.49748e-10
-1.34595e-10
3.39522e-10
-2.34259e-10
5.87882e-10
-5.49944e-10
2.14031e-09
-1.22097e-09
4.98297e-09
-2.9018e-09
3.87412e-08
-3.66452e-09
3.73518e-08
-8.45931e-08
3.33309e-09
-8.79262e-08
2.79664e-09
3.78882e-08
1.30189e-09
4.0236e-08
6.00132e-10
5.68472e-09
2.61746e-10
2.47871e-09
1.50759e-10
6.98861e-10
8.74896e-11
4.02781e-10
5.82981e-11
1.78958e-10
3.91215e-11
1.18981e-10
2.82674e-11
6.62292e-11
2.05035e-11
4.77639e-11
1.55515e-11
3.01648e-11
1.18075e-11
2.29447e-11
9.22683e-12
1.57065e-11
7.20335e-12
1.23684e-11
5.73027e-12
8.96448e-12
4.54788e-12
7.21711e-12
3.6523e-12
5.44804e-12
2.92264e-12
4.44932e-12
2.35329e-12
3.46119e-12
1.88446e-12
2.85299e-12
1.51003e-12
2.27304e-12
1.19871e-12
1.88934e-12
9.44329e-13
1.54291e-12
7.29405e-13
1.30558e-12
5.48511e-13
1.09217e-12
3.91018e-13
9.5607e-13
2.51641e-13
8.43212e-13
1.22922e-13
7.7291e-13
-3.60775e-16
7.49046e-13
-1.23367e-13
7.45176e-13
-2.51627e-13
7.61559e-13
-3.91198e-13
8.54461e-13
-5.48924e-13
9.60614e-13
-7.2939e-13
1.07684e-12
-9.44231e-13
1.30878e-12
-1.19876e-12
1.54941e-12
-1.50974e-12
1.87496e-12
-1.88423e-12
2.28005e-12
-2.3532e-12
2.86362e-12
-2.92222e-12
3.44318e-12
-3.6523e-12
4.45802e-12
-4.54821e-12
5.45533e-12
-5.73013e-12
7.19798e-12
-7.2033e-12
8.97504e-12
-9.22684e-12
1.23828e-11
-1.1807e-11
1.5688e-11
-1.55512e-11
2.29527e-11
-2.05036e-11
3.01742e-11
-2.82671e-11
4.77506e-11
-3.91214e-11
6.62349e-11
-5.82983e-11
1.18992e-10
-8.74894e-11
1.7894e-10
-1.50759e-10
4.02791e-10
-2.61746e-10
6.98871e-10
-6.00132e-10
2.4787e-09
-1.30189e-09
5.68473e-09
-2.79664e-09
4.0236e-08
-3.33309e-09
3.78882e-08
-8.79262e-08
2.99995e-09
-9.09262e-08
2.68514e-09
3.82031e-08
1.37799e-09
4.15431e-08
6.50387e-10
6.41232e-09
2.9046e-10
2.83864e-09
1.67803e-10
8.21518e-10
9.78945e-11
4.7269e-10
6.5251e-11
2.116e-10
4.38682e-11
1.40366e-10
3.16965e-11
7.83977e-11
2.30122e-11
5.64477e-11
1.74532e-11
3.57261e-11
1.32593e-11
2.71389e-11
1.03609e-11
1.86043e-11
8.09222e-12
1.46428e-11
6.43736e-12
1.06154e-11
5.11084e-12
8.54128e-12
4.10458e-12
6.45542e-12
3.28556e-12
5.26775e-12
2.6457e-12
4.09538e-12
2.11921e-12
3.38316e-12
1.69833e-12
2.69502e-12
1.34852e-12
2.24182e-12
1.06249e-12
1.83239e-12
8.20857e-13
1.54792e-12
6.17346e-13
1.29893e-12
4.40161e-13
1.13261e-12
2.83276e-13
1.00163e-12
1.38359e-13
9.18969e-13
-3.69228e-16
8.88441e-13
-1.38836e-13
8.81311e-13
-2.83337e-13
9.07398e-13
-4.40367e-13
1.0089e-12
-6.17735e-13
1.138e-12
-8.20906e-13
1.27507e-12
-1.06238e-12
1.55545e-12
-1.34851e-12
1.83755e-12
-1.69808e-12
2.22326e-12
-2.11895e-12
2.70265e-12
-2.64555e-12
3.39004e-12
-3.28515e-12
4.08289e-12
-4.10457e-12
5.27757e-12
-5.11113e-12
6.4609e-12
-6.43725e-12
8.52815e-12
-8.09215e-12
1.06209e-11
-1.03608e-11
1.46501e-11
-1.32588e-11
1.85849e-11
-1.74529e-11
2.71467e-11
-2.30123e-11
3.57336e-11
-3.16962e-11
5.6435e-11
-4.38681e-11
7.84045e-11
-6.52511e-11
1.40376e-10
-9.78943e-11
2.11585e-10
-1.67803e-10
4.72699e-10
-2.90461e-10
8.21529e-10
-6.50387e-10
2.83863e-09
-1.37799e-09
6.41233e-09
-2.68514e-09
4.15431e-08
-2.99995e-09
3.8203e-08
-9.09262e-08
2.66628e-09
-9.35924e-08
2.56741e-09
3.83019e-08
1.44875e-09
4.26618e-08
7.00455e-10
7.16061e-09
3.20342e-10
3.21875e-09
1.85729e-10
9.56126e-10
1.08954e-10
5.49465e-10
7.26585e-11
2.47897e-10
4.89438e-11
1.64082e-10
3.53657e-11
9.1975e-11
2.57015e-11
6.6116e-11
1.94924e-11
4.19347e-11
1.48177e-11
3.1812e-11
1.15783e-11
2.18415e-11
9.04716e-12
1.71731e-11
7.19712e-12
1.24731e-11
5.71609e-12
1.00246e-11
4.5909e-12
7.57904e-12
3.67597e-12
6.18311e-12
2.96035e-12
4.81229e-12
2.3719e-12
3.96953e-12
1.90107e-12
3.16377e-12
1.50987e-12
2.62989e-12
1.18978e-12
2.15075e-12
9.19418e-13
1.8145e-12
6.91533e-13
1.52277e-12
4.93145e-13
1.3304e-12
3.17383e-13
1.17499e-12
1.55005e-13
1.08014e-12
-3.82719e-16
1.04501e-12
-1.55512e-13
1.04112e-12
-3.17531e-13
1.06888e-12
-4.93375e-13
1.18629e-12
-6.91915e-13
1.33802e-12
-9.19504e-13
1.50631e-12
-1.18966e-12
1.82193e-12
-1.50982e-12
2.15452e-12
-1.90084e-12
2.61171e-12
-2.37163e-12
3.17434e-12
-2.96013e-12
3.98036e-12
-3.67558e-12
4.79322e-12
-4.5909e-12
6.19261e-12
-5.71634e-12
7.59097e-12
-7.19706e-12
1.00074e-11
-9.04709e-12
1.24769e-11
-1.15782e-11
1.71796e-11
-1.48171e-11
2.18257e-11
-1.9492e-11
3.18245e-11
-2.57015e-11
4.19448e-11
-3.53654e-11
6.60952e-11
-4.89437e-11
9.19834e-11
-7.26586e-11
1.64092e-10
-1.08954e-10
2.47879e-10
-1.85729e-10
5.49473e-10
-3.20342e-10
9.56143e-10
-7.00455e-10
3.21874e-09
-1.44875e-09
7.16062e-09
-2.56741e-09
4.26618e-08
-2.66628e-09
3.83019e-08
-9.35924e-08
2.33326e-09
-9.59257e-08
2.44363e-09
3.81916e-08
1.51367e-09
4.35917e-08
7.50067e-10
7.92422e-09
3.51315e-10
3.6175e-09
2.04532e-10
1.10291e-09
1.20684e-10
6.33312e-10
8.05374e-11
2.88044e-10
5.43633e-11
1.90254e-10
3.92871e-11
1.07056e-10
2.8581e-11
7.68212e-11
2.16766e-11
4.88379e-11
1.64888e-11
3.70001e-11
1.28842e-11
2.54503e-11
1.00722e-11
1.99864e-11
8.01279e-12
1.4526e-11
6.36627e-12
1.16711e-11
5.11342e-12
8.83061e-12
4.09566e-12
7.20255e-12
3.29864e-12
5.61257e-12
2.64369e-12
4.62102e-12
2.1192e-12
3.68955e-12
1.68354e-12
3.06644e-12
1.32681e-12
2.50558e-12
1.02555e-12
2.11985e-12
7.71449e-13
1.78005e-12
5.50227e-13
1.55558e-12
3.54135e-13
1.37146e-12
1.72949e-13
1.26167e-12
-3.91888e-16
1.21538e-12
-1.73496e-13
1.21033e-12
-3.54363e-13
1.25193e-12
-5.50482e-13
1.38343e-12
-7.71813e-13
1.56193e-12
-1.0257e-12
1.75806e-12
-1.32669e-12
2.12409e-12
-1.68343e-12
2.51407e-12
-2.11898e-12
3.05071e-12
-2.64341e-12
3.69774e-12
-3.29837e-12
4.63464e-12
-4.09527e-12
5.59781e-12
-5.11341e-12
7.21002e-12
-6.36649e-12
8.84156e-12
-8.01278e-12
1.1652e-11
-1.00721e-11
1.4534e-11
-1.2884e-11
1.99965e-11
-1.64882e-11
2.54269e-11
-2.16762e-11
3.70088e-11
-2.85809e-11
4.88497e-11
-3.92868e-11
7.68043e-11
-5.43632e-11
1.0706e-10
-8.05374e-11
1.90262e-10
-1.20684e-10
2.88024e-10
-2.04532e-10
6.3332e-10
-3.51315e-10
1.10292e-09
-7.50067e-10
3.61749e-09
-1.51367e-09
7.92423e-09
-2.44363e-09
4.35917e-08
-2.33326e-09
3.81915e-08
-9.59257e-08
2.00203e-09
-9.79277e-08
2.31404e-09
3.78795e-08
1.57226e-09
4.43335e-08
7.98935e-10
8.69754e-09
3.83289e-10
4.03315e-09
2.24201e-10
1.262e-09
1.33099e-10
7.24415e-10
8.89036e-11
3.3224e-10
6.01419e-11
2.19017e-10
4.34729e-11
1.23719e-10
3.16607e-11
8.86347e-11
2.40139e-11
5.64872e-11
1.82791e-11
4.27344e-11
1.42835e-11
2.94412e-11
1.11716e-11
2.30962e-11
8.88778e-12
1.68168e-11
7.06416e-12
1.34946e-11
5.67441e-12
1.02234e-11
4.54646e-12
8.32595e-12
3.66207e-12
6.4941e-12
2.93585e-12
5.35151e-12
2.3537e-12
4.27262e-12
1.87031e-12
3.5513e-12
1.47423e-12
2.90292e-12
1.13977e-12
2.45061e-12
8.57469e-13
2.06036e-12
6.11673e-13
1.79649e-12
3.93701e-13
1.58842e-12
1.92267e-13
1.45864e-12
-4.01994e-16
1.41019e-12
-1.92849e-13
1.40665e-12
-3.94022e-13
1.45072e-12
-6.1196e-13
1.60248e-12
-8.57828e-13
1.80164e-12
-1.13995e-12
2.04485e-12
-1.47409e-12
2.4601e-12
-1.87017e-12
2.90761e-12
-2.35352e-12
3.53176e-12
-2.93554e-12
4.27977e-12
-3.66176e-12
5.36069e-12
-4.54609e-12
6.47829e-12
-5.67438e-12
8.33587e-12
-7.06435e-12
1.02306e-11
-8.8878e-12
1.34779e-11
-1.11715e-11
1.68153e-11
-1.42833e-11
2.31039e-11
-1.82785e-11
2.94239e-11
-2.40135e-11
4.27467e-11
-3.16606e-11
5.64976e-11
-4.34727e-11
8.8614e-11
-6.01417e-11
1.2373e-10
-8.89035e-11
2.19025e-10
-1.33099e-10
3.32223e-10
-2.24201e-10
7.2443e-10
-3.83289e-10
1.26201e-09
-7.98935e-10
4.03314e-09
-1.57226e-09
8.69756e-09
-2.31404e-09
4.43335e-08
-2.00203e-09
3.78795e-08
-9.79277e-08
1.67377e-09
-9.96015e-08
2.17894e-09
3.73744e-08
1.62406e-09
4.48884e-08
8.46757e-10
9.47485e-09
4.16155e-10
4.46375e-09
2.44716e-10
1.43344e-09
1.4621e-10
8.22922e-10
9.7772e-11
3.80678e-10
6.6294e-11
2.50494e-10
4.79355e-11
1.42081e-10
3.49509e-11
1.01617e-10
2.65124e-11
6.49267e-11
2.01953e-11
4.90515e-11
1.57818e-11
3.38572e-11
1.23496e-11
2.65267e-11
9.82563e-12
1.93356e-11
7.81267e-12
1.55064e-11
6.27621e-12
1.17587e-11
5.03033e-12
9.57793e-12
4.05227e-12
7.46901e-12
3.24964e-12
6.15223e-12
2.60564e-12
4.91559e-12
2.07106e-12
4.08368e-12
1.63271e-12
3.34094e-12
1.2626e-12
2.82133e-12
9.49989e-13
2.37281e-12
6.77796e-13
2.07039e-12
4.36266e-13
1.83005e-12
2.13073e-13
1.68582e-12
-4.11297e-16
1.62078e-12
-2.13691e-13
1.61356e-12
-4.36683e-13
1.67147e-12
-6.78121e-13
1.8421e-12
-9.50325e-13
2.08174e-12
-1.26283e-12
2.35242e-12
-1.63257e-12
2.82932e-12
-2.07086e-12
3.35065e-12
-2.60548e-12
4.06548e-12
-3.2493e-12
4.92587e-12
-4.05191e-12
6.16216e-12
-5.02997e-12
7.45634e-12
-6.27617e-12
9.58516e-12
-7.81282e-12
1.17678e-11
-9.8257e-12
1.54925e-11
-1.23495e-11
1.93421e-11
-1.57815e-11
2.65402e-11
-2.01947e-11
3.38376e-11
-2.6512e-11
4.90625e-11
-3.49508e-11
6.49294e-11
-4.79353e-11
1.01601e-10
-6.62939e-11
1.42084e-10
-9.77719e-11
2.50504e-10
-1.4621e-10
3.80659e-10
-2.44716e-10
8.22925e-10
-4.16155e-10
1.43345e-09
-8.46758e-10
4.46374e-09
-1.62406e-09
9.47486e-09
-2.17894e-09
4.48884e-08
-1.67377e-09
3.73744e-08
-9.96015e-08
1.34965e-09
-1.00951e-07
2.03865e-09
3.66854e-08
1.66862e-09
4.52584e-08
8.93217e-10
1.02503e-08
4.49789e-10
4.90718e-09
2.66049e-10
1.61718e-09
1.60022e-10
9.28949e-10
1.07156e-10
4.33544e-10
7.28343e-11
2.8482e-10
5.26871e-11
1.62226e-10
3.84619e-11
1.15841e-10
2.91806e-11
7.42054e-11
2.22442e-11
5.59873e-11
1.73846e-11
3.87163e-11
1.36109e-11
3.03016e-11
1.08301e-11
2.21162e-11
8.61484e-12
1.77235e-11
6.92136e-12
1.34528e-11
5.54927e-12
1.09458e-11
4.4709e-12
8.55145e-12
3.58645e-12
7.04081e-12
2.87612e-12
5.62646e-12
2.28668e-12
4.6748e-12
1.80297e-12
3.8242e-12
1.3946e-12
3.22888e-12
1.04944e-12
2.72036e-12
7.48886e-13
2.37085e-12
4.82045e-13
2.097e-12
2.35433e-13
1.93164e-12
-4.31896e-16
1.85648e-12
-2.36099e-13
1.85666e-12
-4.82548e-13
1.91909e-12
-7.49232e-13
2.10893e-12
-1.04979e-12
2.37646e-12
-1.39487e-12
2.69881e-12
-1.80282e-12
3.23482e-12
-2.28644e-12
3.83184e-12
-2.87597e-12
4.65614e-12
-3.5861e-12
5.63459e-12
-4.47048e-12
7.04856e-12
-5.54894e-12
8.53482e-12
-6.92129e-12
1.09589e-11
-8.61495e-12
1.34618e-11
-1.08302e-11
1.77009e-11
-1.36108e-11
2.21225e-11
-1.73842e-11
3.03134e-11
-2.22436e-11
3.86963e-11
-2.91801e-11
5.59996e-11
-3.84617e-11
7.42183e-11
-5.2687e-11
1.15827e-10
-7.28341e-11
1.62234e-10
-1.07156e-10
2.84824e-10
-1.60022e-10
4.33526e-10
-2.66049e-10
9.2896e-10
-4.4979e-10
1.61719e-09
-8.93217e-10
4.90717e-09
-1.66862e-09
1.02503e-08
-2.03865e-09
4.52584e-08
-1.34965e-09
3.66854e-08
-1.00951e-07
1.03083e-09
-1.01982e-07
1.89354e-09
3.58227e-08
1.70553e-09
4.54464e-08
9.37985e-10
1.10178e-08
4.84049e-10
5.36111e-09
2.88164e-10
1.81306e-09
1.74539e-10
1.04257e-09
1.17068e-10