/*--------------------------------*- C++ -*----------------------------------*\
| =========                 |                                                 |
| \\      /  F ield         | foam-extend: Open Source CFD                    |
|  \\    /   O peration     | Version:     4.0                                |
|   \\  /    A nd           | Web:         http://www.foam-extend.org         |
|    \\/     M anipulation  |                                                 |
\*---------------------------------------------------------------------------*/
FoamFile
{
    version     2.0;
    format      ascii;
    class       surfaceScalarField;
    location    "3";
    object      phi;
}
// * * * * * * * * * * * * * * * * * * * * * * * * * * * * * * * * * * * * * //

dimensions      [0 3 -1 0 0 0 0];

internalField   nonuniform List<scalar> 
13744
(
-1.94127e-09
1.94124e-09
1.35014e-09
-3.29141e-09
2.84592e-11
1.32168e-09
1.00615e-11
1.83982e-11
3.34712e-12
6.71468e-12
1.88972e-12
1.45703e-12
1.07944e-12
8.09922e-13
7.07562e-13
3.72077e-13
4.78748e-13
2.29164e-13
3.40648e-13
1.3807e-13
2.49881e-13
9.08856e-14
1.87073e-13
6.26305e-14
1.43628e-13
4.34652e-14
1.10911e-13
3.22381e-14
8.73651e-14
2.37449e-14
6.89843e-14
1.74999e-14
5.49355e-14
1.42247e-14
4.38619e-14
1.05194e-14
3.52751e-14
8.53484e-15
2.80885e-14
7.20257e-15
2.25723e-14
5.56499e-15
1.80644e-14
4.38538e-15
1.42106e-14
3.01148e-15
1.11835e-14
2.72005e-15
8.69283e-15
2.60902e-15
6.38236e-15
2.48412e-15
4.59498e-15
1.67921e-15
3.03691e-15
1.94289e-15
1.39332e-15
2.13718e-15
-3.18273e-16
1.67921e-15
-6.85236e-16
8.18789e-16
-3.67171e-15
2.96985e-15
-4.59436e-15
6.10623e-16
-5.72044e-15
9.71445e-16
-9.37069e-15
3.41394e-15
-1.1188e-14
1.56819e-15
-1.35429e-14
2.44249e-15
-1.87308e-14
5.48173e-15
-2.2577e-14
4.08007e-15
-2.74112e-14
4.66294e-15
-3.5936e-14
8.21565e-15
-4.38493e-14
7.61891e-15
-5.42579e-14
1.0783e-14
-6.96383e-14
1.54737e-14
-8.73541e-14
1.79579e-14
-1.10224e-13
2.17742e-14
-1.44276e-13
3.48749e-14
-1.87056e-13
4.25215e-14
-2.49202e-13
6.18394e-14
-3.41319e-13
9.22318e-14
-4.78755e-13
1.3714e-13
-7.06913e-13
2.28095e-13
-1.0801e-12
3.73396e-13
-1.88973e-12
8.09575e-13
-3.34645e-12
1.45625e-12
-1.00621e-11
6.71549e-12
-2.84592e-11
1.8397e-11
-1.35014e-09
1.32168e-09
1.94127e-09
-3.29141e-09
1.94127e-09
1.07336e-08
-8.79238e-09
2.39932e-09
5.0429e-09
8.95035e-11
3.6315e-09
3.13909e-11
7.651e-11
1.03784e-11
2.77268e-11
5.95577e-12
5.88062e-12
3.34279e-12
3.42276e-12
2.22697e-12
1.48771e-12
1.48411e-12
9.71029e-13
1.07037e-12
5.51836e-13
7.76155e-13
3.84956e-13
5.87514e-13
2.50591e-13
4.46271e-13
1.85574e-13
3.48553e-13
1.30104e-13
2.72235e-13
1.0017e-13
2.16094e-13
7.56617e-14
1.71945e-13
5.85088e-14
1.3772e-13
4.51444e-14
1.0997e-13
3.59435e-14
8.87117e-14
2.7367e-14
7.08071e-14
2.3162e-14
5.64361e-14
1.8735e-14
4.50866e-14
1.5668e-14
3.52701e-14
1.33782e-14
2.69839e-14
1.02002e-14
2.05811e-14
7.50788e-15
1.4513e-14
7.72993e-15
9.16808e-15
6.27276e-15
4.97354e-15
6.16174e-15
1.51393e-17
6.84175e-15
-6.22153e-15
5.77316e-15
-7.42306e-15
3.94129e-15
-1.45156e-14
8.32667e-15
-2.22873e-14
8.57647e-15
-2.53175e-14
6.56419e-15
-3.52752e-14
1.19488e-14
-4.67701e-14
1.43496e-14
-5.47505e-14
1.25316e-14
-7.08108e-14
2.00256e-14
-9.03812e-14
2.49384e-14
-1.08263e-13
2.66315e-14
-1.37694e-13
3.78308e-14
-1.73602e-13
4.56996e-14
-2.14375e-13
5.63716e-14
-2.72207e-13
7.50788e-14
-3.50196e-13
1.01613e-13
-4.44544e-13
1.27495e-13
-5.87489e-13
1.84894e-13
-7.77827e-13
2.53395e-13
-1.06868e-12
3.82708e-13
-1.48412e-12
5.53307e-13
-2.22869e-12
9.72694e-13
-3.34111e-12
1.4848e-12
-5.95578e-12
3.42451e-12
-1.038e-11
5.88042e-12
-3.13891e-11
2.77246e-11
-8.95035e-11
7.65116e-11
-2.39932e-09
3.6315e-09
-1.07336e-08
5.0429e-09
-8.79235e-09
9.72409e-09
-1.85165e-08
3.37364e-09
1.13934e-08
1.50843e-10
6.85429e-09
5.40334e-11
1.73319e-10
1.80346e-11
6.37248e-11
1.0397e-11
1.35175e-11
5.80336e-12
8.01835e-12
3.88757e-12
3.40421e-12
2.57699e-12
2.28274e-12
1.86842e-12
1.25982e-12
1.3483e-12
9.04589e-13
1.02524e-12
5.74603e-13
7.76128e-13
4.33653e-13
6.08017e-13
2.99497e-13
4.73763e-13
2.33792e-13
3.77305e-13
1.71384e-13
2.9933e-13
1.35905e-13
2.40436e-13
1.057e-13
1.91956e-13
8.45296e-14
1.54804e-13
6.62317e-14
1.23629e-13
5.44217e-14
9.88682e-14
4.44367e-14
7.86229e-14
3.54092e-14
6.17371e-14
2.93029e-14
4.74196e-14
2.57502e-14
3.58743e-14
2.07959e-14
2.54288e-14
1.72154e-14
1.62544e-14
1.57929e-14
8.37591e-15
1.39611e-14
-1.92867e-16
1.52794e-14
-9.19566e-15
1.57166e-14
-1.48859e-14
9.4022e-15
-2.54389e-14
1.90264e-14
-3.71922e-14
2.06432e-14
-4.616e-14
1.53488e-14
-6.17386e-14
2.64858e-14
-7.9906e-14
3.17038e-14
-9.75822e-14
3.1114e-14
-1.23629e-13
4.57065e-14
-1.56065e-13
5.72875e-14
-1.9064e-13
6.05974e-14
-2.40404e-13
8.70276e-14
-3.00572e-13
1.06672e-13
-3.75972e-13
1.31839e-13
-4.73717e-13
1.73146e-13
-6.09242e-13
2.37518e-13
-7.7479e-13
2.94105e-13
-1.02521e-12
4.36477e-13
-1.34957e-12
5.76733e-13
-1.86712e-12
9.00564e-13
-2.57701e-12
1.26226e-12
-3.88889e-12
2.2831e-12
-5.80207e-12
3.4001e-12
-1.0397e-11
8.01935e-12
-1.80358e-11
1.35211e-11
-5.4032e-11
6.37217e-11
-1.50843e-10
1.73322e-10
-3.37364e-09
6.85429e-09
-9.72409e-09
1.13933e-08
-1.85164e-08
5.07877e-09
-2.35952e-08
3.04441e-09
1.34277e-08
2.09712e-10
9.68899e-09
7.74474e-11
3.05584e-10
2.63715e-11
1.14802e-10
1.52052e-11
2.46834e-11
8.48321e-12
1.47392e-11
5.69108e-12
6.19488e-12
3.76707e-12
4.20594e-12
2.7361e-12
2.2927e-12
1.97132e-12
1.66989e-12
1.50145e-12
1.04463e-12
1.13548e-12
7.99857e-13
8.90417e-13
5.42804e-13
6.93364e-13
4.31521e-13
5.52965e-13
3.11222e-13
4.3817e-13
2.49946e-13
3.52415e-13
1.89303e-13
2.81462e-13
1.5603e-13
2.26879e-13
1.19599e-13
1.81323e-13
1.01917e-13
1.4527e-13
7.91936e-14
1.15237e-13
6.63254e-14
9.06841e-14
5.37712e-14
6.98386e-14
4.61697e-14
5.25676e-14
3.64101e-14
3.73876e-14
3.34906e-14
2.40465e-14
2.95059e-14
1.19559e-14
2.59619e-14
-3.18113e-16
2.71901e-14
-1.20749e-14
2.69958e-14
-2.35631e-14
2.09468e-14
-3.7405e-14
3.25556e-14
-5.30314e-14
3.56295e-14
-6.94565e-14
3.14852e-14
-9.06802e-14
4.94448e-14
-1.15645e-13
5.68399e-14
-1.44856e-13
6.02643e-14
-1.81317e-13
8.31089e-14
-2.27263e-13
1.0239e-13
-2.81011e-13
1.14376e-13
-3.52375e-13
1.58462e-13
-4.38523e-13
1.9334e-13
-5.5249e-13
2.46369e-13
-6.93304e-13
3.14511e-13
-8.90755e-13
4.33474e-13
-1.13501e-12
5.37835e-13
-1.50142e-12
8.01659e-13
-1.97172e-12
1.0472e-12
-2.73568e-12
1.66465e-12
-3.76708e-12
2.2939e-12
-5.69152e-12
4.20871e-12
-8.48279e-12
6.19093e-12
-1.52052e-11
1.4742e-11
-2.63719e-11
2.46841e-11
-7.74469e-11
1.14795e-10
-2.09712e-10
3.05587e-10
-3.04441e-09
9.689e-09
-5.07877e-09
1.34277e-08
-2.35952e-08
3.49499e-09
-2.70902e-08
2.46331e-09
1.44594e-08
2.67631e-10
1.18847e-08
1.01552e-10
4.71665e-10
3.5413e-11
1.8094e-10
2.0398e-11
3.96989e-11
1.13956e-11
2.37416e-11
7.64645e-12
9.94522e-12
5.0607e-12
6.79229e-12
3.67785e-12
3.67451e-12
2.64875e-12
2.6993e-12
2.01869e-12
1.67416e-12
1.52618e-12
1.29288e-12
1.19741e-12
8.7163e-13
9.32242e-13
6.96475e-13
7.43891e-13
5.01108e-13
5.89339e-13
4.06088e-13
4.74259e-13
3.04623e-13
3.78837e-13
2.51136e-13
3.05446e-13
1.93759e-13
2.44181e-13
1.61004e-13
1.95755e-13
1.27756e-13
1.55242e-13
1.06548e-13
1.22255e-13
8.63268e-14
9.42179e-14
7.4705e-14
7.08734e-14
6.01233e-14
5.04456e-14
5.35496e-14
3.24712e-14
4.69282e-14
1.59879e-14
4.25766e-14
-2.73566e-16
4.33074e-14
-1.6015e-14
4.20198e-14
-3.22081e-14
3.7581e-14
-5.04724e-14
5.01574e-14
-7.1153e-14
5.66695e-14
-9.40408e-14
5.48554e-14
-1.22248e-13
7.58733e-14
-1.55447e-13
8.93968e-14
-1.95539e-13
1.00781e-13
-2.44174e-13
1.3078e-13
-3.0562e-13
1.63993e-13
-3.78581e-13
1.87552e-13
-4.74212e-13
2.53991e-13
-5.89478e-13
3.0749e-13
-7.43605e-13
3.99137e-13
-9.32169e-13
5.02412e-13
-1.19753e-12
7.00282e-13
-1.52589e-12
8.66808e-13
-2.01867e-12
1.29489e-12
-2.64895e-12
1.67831e-12
-3.67762e-12
2.6941e-12
-5.0607e-12
3.67605e-12
-7.64669e-12
6.79463e-12
-1.13954e-11
9.93888e-12
-2.03981e-11
2.37444e-11
-3.54132e-11
3.97024e-11
-1.01551e-10
1.80933e-10
-2.67631e-10
4.71668e-10
-2.46331e-09
1.18847e-08
-3.49499e-09
1.44594e-08
-2.70902e-08
3.30116e-09
-3.03914e-08
2.14742e-09
1.56131e-08
3.25514e-10
1.37066e-08
1.26374e-10
6.70803e-10
4.51796e-11
2.62133e-10
2.59927e-11
5.88861e-11
1.45542e-11
3.51789e-11
9.76279e-12
1.47368e-11
6.46452e-12
1.00921e-11
4.69847e-12
5.43996e-12
3.38413e-12
4.0122e-12
2.57967e-12
2.47884e-12
1.95037e-12
1.9224e-12
1.53057e-12
1.29232e-12
1.19169e-12
1.0358e-12
9.51157e-13
7.40001e-13
7.53612e-13
6.03369e-13
6.06623e-13
4.52796e-13
4.84659e-13
3.72793e-13
3.90875e-13
2.87973e-13
3.1255e-13
2.39891e-13
2.50642e-13
1.9035e-13
1.98806e-13
1.57639e-13
1.56622e-13
1.28848e-13
1.20742e-13
1.09227e-13
9.08405e-14
9.2031e-14
6.46716e-14
7.99368e-14
4.16266e-14
7.05691e-14
2.04433e-14
6.4695e-14
-2.20448e-16
6.46418e-14
-2.05466e-14
6.19987e-14
-4.13513e-14
5.80394e-14
-6.47086e-14
7.45287e-14
-9.11628e-14
8.30471e-14
-1.20542e-13
8.46415e-14
-1.56606e-13
1.12779e-13
-1.99034e-13
1.32985e-13
-2.50399e-13
1.51519e-13
-3.12538e-13
1.93694e-13
-3.91069e-13
2.43014e-13
-4.84367e-13
2.79965e-13
-6.06568e-13
3.75502e-13
-7.53765e-13
4.55196e-13
-9.50835e-13
5.9746e-13
-1.1916e-12
7.44327e-13
-1.5307e-12
1.03784e-12
-1.95005e-12
1.28501e-12
-2.57966e-12
1.92498e-12
-3.38437e-12
2.48411e-12
-4.69821e-12
4.00685e-12
-6.46451e-12
5.44387e-12
-9.76305e-12
1.00927e-11
-1.45539e-11
1.47311e-11
-2.59927e-11
3.51826e-11
-4.51798e-11
5.88886e-11
-1.26373e-10
2.62127e-10
-3.25513e-10
6.70808e-10
-2.14742e-09
1.37066e-08
-3.30116e-09
1.56131e-08
-3.03914e-08
3.20697e-09
-3.35984e-08
2.01505e-09
1.68051e-08
3.83195e-10
1.53384e-08
1.51945e-10
9.02054e-10
5.56891e-11
3.58391e-10
3.20059e-11
8.25686e-11
1.79727e-11
4.92144e-11
1.20495e-11
2.06593e-11
7.98544e-12
1.41551e-11
5.803e-12
7.62275e-12
4.18122e-12
5.6331e-12
3.18726e-12
3.47339e-12
2.4103e-12
2.69784e-12
1.89161e-12
1.81073e-12
1.47309e-12
1.45442e-12
1.17589e-12
1.03878e-12
9.31841e-13
8.45892e-13
7.5021e-13
6.32596e-13
5.99523e-13
5.23106e-13
4.836e-13
4.02228e-13
3.86799e-13
3.36745e-13
3.10253e-13
2.67379e-13
2.46138e-13
2.22772e-13
1.93962e-13
1.81688e-13
1.49582e-13
1.54904e-13
1.12544e-13
1.26185e-13
8.0146e-14
1.11542e-13
5.15913e-14
9.78711e-14
2.52995e-14
9.02282e-14
-1.96561e-16
9.01867e-14
-2.54417e-14
8.78218e-14
-5.13143e-14
8.43361e-14
-8.01937e-14
1.02992e-13
-1.12896e-13
1.14905e-13
-1.49374e-13
1.20986e-13
-1.93943e-13
1.57618e-13
-2.46373e-13
1.83732e-13
-3.09999e-13
2.15202e-13
-3.86779e-13
2.69483e-13
-4.83799e-13
3.3876e-13
-5.99215e-13
3.96948e-13
-7.50149e-13
5.26894e-13
-9.3199e-13
6.37588e-13
-1.17554e-12
8.38816e-13
-1.47299e-12
1.0418e-12
-1.89174e-12
1.45562e-12
-2.40996e-12
1.80386e-12
-3.18725e-12
2.70118e-12
-4.18148e-12
3.47703e-12
-5.80271e-12
5.62856e-12
-7.98544e-12
7.62625e-12
-1.20498e-11
1.41578e-11
-1.79724e-11
2.06522e-11
-3.20059e-11
4.92157e-11
-5.56894e-11
8.25716e-11
-1.51945e-10
3.58383e-10
-3.83195e-10
9.02057e-10
-2.01505e-09
1.53384e-08
-3.20697e-09
1.6805e-08
-3.35983e-08
3.03446e-09
-3.66328e-08
1.94122e-09
1.78983e-08
4.40237e-10
1.68394e-08
1.78243e-10
1.16405e-09
6.69557e-11
4.69676e-10
3.84539e-11
1.11071e-10
2.16652e-11
6.60006e-11
1.45163e-11
2.78082e-11
9.63068e-12
1.90409e-11
6.99666e-12
1.02573e-11
5.044e-12
7.58829e-12
3.84447e-12
4.6728e-12
2.90834e-12
3.63421e-12
2.28237e-12
2.43766e-12
1.7779e-12
1.95829e-12
1.41925e-12
1.39712e-12
1.12497e-12
1.14151e-12
9.05782e-13
8.52866e-13
7.24047e-13
7.05178e-13
5.84112e-13
5.43972e-13
4.67324e-13
4.5359e-13
3.74911e-13
3.60093e-13
2.97497e-13
2.99331e-13
2.34486e-13
2.42654e-13
1.80892e-13
2.08143e-13
1.3611e-13
1.7063e-13
9.69482e-14
1.52114e-13
6.24176e-14
1.34732e-13
3.05759e-14
1.21626e-13
-1.84615e-16
1.19715e-13
-3.07281e-14
1.17639e-13
-6.21645e-14
1.16082e-13
-9.70102e-14
1.38904e-13
-1.3646e-13
1.56377e-13
-1.80708e-13
1.65637e-13
-2.34465e-13
2.11078e-13
-2.97708e-13
2.48513e-13
-3.74672e-13
2.92589e-13
-4.67299e-13
3.6312e-13
-5.84283e-13
4.56084e-13
-7.23749e-13
5.33989e-13
-9.05708e-13
7.07583e-13
-1.12509e-12
8.5612e-13
-1.4189e-12
1.13489e-12
-1.77779e-12
1.39967e-12
-2.28246e-12
1.96226e-12
-2.90801e-12
2.42901e-12
-3.84446e-12
3.63771e-12
-5.04424e-12
4.67673e-12
-6.99639e-12
7.57972e-12
-9.63066e-12
1.02605e-11
-1.45165e-11
1.90429e-11
-2.16649e-11
2.78015e-11
-3.84539e-11
6.60057e-11
-6.69559e-11
1.11074e-10
-1.78243e-10
4.69669e-10
-4.40237e-10
1.16405e-09
-1.94122e-09
1.68394e-08
-3.03446e-09
1.78983e-08
-3.66328e-08
2.84645e-09
-3.94793e-08
1.88317e-09
1.88616e-08
4.96289e-10
1.82263e-08
2.05212e-10
1.45512e-09
7.89892e-11
5.95899e-10
4.53518e-11
1.44707e-10
2.56457e-11
8.5709e-11
1.71731e-11
3.62827e-11
1.14077e-11
2.4805e-11
8.28492e-12
1.33807e-11
5.97664e-12
9.89584e-12
4.55446e-12
6.0949e-12
3.44697e-12
4.74403e-12
2.7048e-12
3.17993e-12
2.10769e-12
2.55482e-12
1.68247e-12
1.82221e-12
1.33399e-12
1.49057e-12
1.07413e-12
1.11148e-12
8.5888e-13
9.19733e-13
6.92941e-13
7.06962e-13
5.54558e-13
5.92199e-13
4.44957e-13
4.67396e-13
3.53154e-13
3.91036e-13
2.78414e-13
3.17039e-13
2.14842e-13
2.71681e-13
1.61667e-13
2.25839e-13
1.15177e-13
1.97174e-13
7.4158e-14
1.74167e-13
3.62984e-14
1.60131e-13
-1.7587e-16
1.56645e-13
-3.6454e-14
1.55296e-13
-7.39389e-14
1.53852e-13
-1.15253e-13
1.79063e-13
-1.6201e-13
2.01396e-13
-2.14688e-13
2.18539e-13
-2.78384e-13
2.7503e-13
-3.53341e-13
3.2491e-13
-4.44743e-13
3.84505e-13
-5.54526e-13
4.73161e-13
-6.9308e-13
5.93756e-13
-8.58595e-13
7.00945e-13
-1.07405e-12
9.2471e-13
-1.33407e-12
1.11596e-12
-1.68214e-12
1.4809e-12
-2.10756e-12
1.82561e-12
-2.70485e-12
2.55829e-12
-3.44666e-12
3.17122e-12
-4.55447e-12
4.74608e-12
-5.97686e-12
6.09946e-12
-8.28467e-12
9.88797e-12
-1.14077e-11
1.33824e-11
-1.71733e-11
2.48083e-11
-2.56454e-11
3.62737e-11
-4.53518e-11
8.57106e-11
-7.89894e-11
1.44712e-10
-2.05211e-10
5.95891e-10
-4.96289e-10
1.45513e-09
-1.88317e-09
1.82263e-08
-2.84645e-09
1.88616e-08
-3.94793e-08
2.66104e-09
-4.21403e-08
1.82954e-09
1.96931e-08
5.51051e-10
1.95048e-08
2.32775e-10
1.7734e-09
9.1795e-11
7.36879e-10
5.27139e-11
1.83789e-10
2.99282e-11
1.08494e-10
2.00302e-11
4.61788e-11
1.33242e-11
3.15124e-11
9.67347e-12
1.70301e-11
6.9835e-12
1.25852e-11
5.32059e-12
7.75692e-12
4.02881e-12
6.03351e-12
3.16095e-12
4.04644e-12
2.46408e-12
3.25268e-12
1.96687e-12
2.31728e-12
1.55997e-12
1.89684e-12
1.25613e-12
1.41637e-12
1.00471e-12
1.17153e-12
8.10657e-13
9.03969e-13
6.48947e-13
7.52875e-13
5.20767e-13
5.97427e-13
4.13411e-13
4.98237e-13
3.25976e-13
4.06146e-13
2.51619e-13
3.46123e-13
1.89349e-13
2.85502e-13
1.3493e-13
2.53186e-13
8.68821e-14
2.21807e-13
4.25044e-14
2.05429e-13
-1.68638e-16
1.99346e-13
-4.26624e-14
1.9682e-13
-8.66984e-14
1.9682e-13
-1.35017e-13
2.27716e-13
-1.89685e-13
2.54744e-13
-2.51494e-13
2.79373e-13
-3.25937e-13
3.50379e-13
-4.13574e-13
4.09624e-13
-5.20568e-13
4.90153e-13
-6.48914e-13
6.02037e-13
-8.10758e-13
7.56717e-13
-1.00444e-12
8.94088e-13
-1.25605e-12
1.17594e-12
-1.56002e-12
1.42059e-12
-1.96656e-12
1.88815e-12
-2.46394e-12
2.32235e-12
-3.16095e-12
3.25525e-12
-4.0285e-12
4.03801e-12
-5.3206e-12
6.03887e-12
-6.9837e-12
7.76124e-12
-9.67323e-12
1.25783e-11
-1.33242e-11
1.70333e-11
-2.00304e-11
3.1515e-11
-2.9928e-11
4.61715e-11
-5.27139e-11
1.08499e-10
-9.17952e-11
1.83794e-10
-2.32775e-10
7.3687e-10
-5.51051e-10
1.7734e-09
-1.82954e-09
1.95048e-08
-2.66104e-09
1.96931e-08
-4.21403e-08
2.4763e-09
-4.46166e-08
1.77636e-09
2.0393e-08
6.0423e-10
2.06769e-08
2.60845e-10
2.11678e-09
1.05373e-10
8.92352e-10
6.05528e-11
2.28609e-10
3.45267e-11
1.34519e-10
2.30978e-11
5.76086e-11
1.53882e-11
3.92213e-11
1.11682e-11
2.12503e-11
8.06915e-12
1.56839e-11
6.14634e-12
9.68035e-12
4.6566e-12
7.52428e-12
3.65299e-12
5.05137e-12
2.84882e-12
4.05616e-12
2.27384e-12
2.89495e-12
1.80403e-12
2.36724e-12
1.45268e-12
1.76814e-12
1.16229e-12
1.46211e-12
9.37848e-13
1.12851e-12
7.5099e-13
9.41611e-13
6.0272e-13
7.4519e-13
4.78585e-13
6.23853e-13
3.77423e-13
5.07056e-13
2.9141e-13
4.31259e-13
2.19311e-13
3.60009e-13
1.56308e-13
3.16074e-13
1.00658e-13
2.78817e-13
4.92241e-14
2.5576e-13
-1.64878e-16
2.47755e-13
-4.93846e-14
2.46266e-13
-1.00506e-13
2.49291e-13
-1.56414e-13
2.82039e-13
-2.19639e-13
3.20649e-13
-2.91313e-13
3.52301e-13
-3.77381e-13
4.35625e-13
-4.78718e-13
5.12458e-13
-6.02544e-13
6.1559e-13
-7.5095e-13
7.48286e-13
-9.37919e-13
9.42825e-13
-1.16203e-12
1.11863e-12
-1.45258e-12
1.46553e-12
-1.80405e-12
1.77234e-12
-2.27353e-12
2.35863e-12
-2.84866e-12
2.89799e-12
-3.65295e-12
4.06068e-12
-4.65631e-12
5.04255e-12
-6.14636e-12
7.52695e-12
-8.06933e-12
9.68604e-12
-1.1168e-11
1.56769e-11
-1.53882e-11
2.12545e-11
-2.30979e-11
3.92269e-11
-3.45265e-11
5.75995e-11
-6.05528e-11
1.34524e-10
-1.05373e-10
2.28613e-10
-2.60845e-10
8.92342e-10
-6.0423e-10
2.11679e-09
-1.77636e-09
2.06769e-08
-2.4763e-09
2.0393e-08
-4.46166e-08
2.28967e-09
-4.69063e-08
1.72153e-09
2.09611e-08
6.55527e-10
2.17429e-08
2.8932e-10
2.48299e-09
1.19718e-10
1.06195e-09
6.88796e-11
2.79447e-10
3.94547e-11
1.63946e-10
2.63863e-11
7.0677e-11
1.76078e-11
4.79989e-11
1.27753e-11
2.60839e-11
9.23835e-12
1.92207e-11
7.03537e-12
1.18837e-11
5.33324e-12
9.22687e-12
4.18319e-12
6.20024e-12
3.26373e-12
4.97624e-12
2.60484e-12
3.55295e-12
2.06737e-12
2.90351e-12
1.66473e-12
2.17006e-12
1.33239e-12
1.79497e-12
1.07515e-12
1.38306e-12
8.61194e-13
1.15338e-12
6.91244e-13
9.16248e-13
5.49006e-13
7.64943e-13
4.33017e-13
6.22365e-13
3.34435e-13
5.31517e-13
2.51707e-13
4.41141e-13
1.79429e-13
3.8813e-13
1.15552e-13
3.41258e-13
5.6495e-14
3.14962e-13
-1.56542e-16
3.0689e-13
-5.66562e-14
3.0214e-13
-1.15444e-13
3.07545e-13
-1.79547e-13
3.47402e-13
-2.52029e-13
3.92252e-13
-3.34361e-13
4.33756e-13
-4.32975e-13
5.33697e-13
-5.4911e-13
6.28678e-13
-6.91092e-13
7.5805e-13
-8.61147e-13
9.21367e-13
-1.07519e-12
1.1579e-12
-1.33214e-12
1.37604e-12
-1.66463e-12
1.79904e-12
-2.06734e-12
2.17492e-12
-2.60453e-12
2.89543e-12
-3.26355e-12
3.55801e-12
-4.18311e-12
4.97964e-12
-5.33297e-12
6.19176e-12
-7.03539e-12
9.22964e-12
-9.23851e-12
1.18888e-11
-1.27751e-11
1.92135e-11
-1.76078e-11
2.60874e-11
-2.63864e-11
4.80029e-11
-3.94545e-11
7.06679e-11
-6.88796e-11
1.63948e-10
-1.19718e-10
2.79452e-10
-2.89319e-10
1.06194e-09
-6.55527e-10
2.483e-09
-1.72153e-09
2.17429e-08
-2.28967e-09
2.09611e-08
-4.69063e-08
2.10068e-09
-4.9007e-08
1.66389e-09
2.13979e-08
7.04641e-10
2.27022e-08
3.18087e-10
2.86954e-09
1.34818e-10
1.24522e-09
7.77033e-11
3.36564e-10
4.47255e-11
1.96921e-10
2.99062e-11
8.54969e-11
1.99915e-11
5.79155e-11
1.45011e-11
3.15738e-11
1.0496e-11
2.32269e-11
7.99151e-12
1.43891e-11
6.06177e-12
1.11562e-11
4.75395e-12
7.5087e-12
3.71074e-12
6.02049e-12
2.9614e-12
4.30334e-12
2.35122e-12
3.5129e-12
1.89331e-12
2.6274e-12
1.51583e-12
2.17188e-12
1.22325e-12
1.67713e-12
9.80114e-13
1.39815e-12
7.86771e-13
1.10705e-12
6.25036e-13
9.27065e-13
4.93053e-13
7.53064e-13
3.809e-13
6.40894e-13
2.86702e-13
5.35035e-13
2.04412e-13
4.70139e-13
1.31651e-13
4.16165e-13
6.43552e-14
3.81911e-13
-1.57657e-16
3.68739e-13
-6.4517e-14
3.68015e-13
-1.31576e-13
3.73314e-13
-2.04545e-13
4.21043e-13
-2.87022e-13
4.73738e-13
-3.80858e-13
5.28973e-13
-4.93e-13
6.47039e-13
-6.25109e-13
7.61955e-13
-7.86639e-13
9.17868e-13
-9.80059e-13
1.1133e-12
-1.22325e-12
1.4e-12
-1.5156e-12
1.66795e-12
-1.89319e-12
2.17529e-12
-2.35116e-12
2.63115e-12
-2.96111e-12
3.50491e-12
-3.71055e-12
4.30619e-12
-4.75383e-12
6.02334e-12
-6.06152e-12
7.49919e-12
-7.99154e-12
1.11608e-11
-1.04962e-11
1.43933e-11
-1.45009e-11
2.32188e-11
-1.99915e-11
3.15784e-11
-2.99063e-11
5.79188e-11
-4.47253e-11
8.54873e-11
-7.77033e-11
1.96927e-10
-1.34818e-10
3.36568e-10
-3.18087e-10
1.24521e-09
-7.04641e-10
2.86955e-09
-1.6639e-09
2.27022e-08
-2.10068e-09
2.13979e-08
-4.90069e-08
1.90988e-09
-5.09169e-08
1.60291e-09
2.17049e-08
7.51271e-10
2.35538e-08
3.47023e-10
3.27379e-09
1.50653e-10
1.44159e-09
8.70305e-11
4.00185e-10
5.03516e-11
2.33603e-10
3.3668e-11
1.0218e-10
2.25478e-11
6.90344e-11
1.6352e-11
3.77694e-11
1.18474e-11
2.773e-11
9.01875e-12
1.72152e-11
6.84536e-12
1.33309e-11
5.36779e-12
8.98632e-12
4.19188e-12
7.1941e-12
3.34516e-12
5.14795e-12
2.65692e-12
4.20301e-12
2.13948e-12
3.14507e-12
1.7135e-12
2.59885e-12
1.38284e-12
2.00743e-12
1.10832e-12
1.67156e-12
8.8978e-13
1.32836e-12
7.07043e-13
1.11083e-12
5.57816e-13
9.03048e-13
4.31053e-13
7.6996e-13
3.2448e-13
6.42462e-13
2.31388e-13
5.61697e-13
1.49027e-13
4.96858e-13
7.28448e-14
4.5875e-13
-1.49253e-16
4.40933e-13
-7.30119e-14
4.40784e-13
-1.4899e-13
4.50881e-13
-2.3154e-13
5.03807e-13
-3.2479e-13
5.67262e-13
-4.31042e-13
6.33449e-13
-5.57759e-13
7.73163e-13
-7.07095e-13
9.10281e-13
-8.89665e-13
1.10123e-12
-1.10826e-12
1.33147e-12
-1.3828e-12
1.67648e-12
-1.71329e-12
1.99888e-12
-2.13936e-12
2.60224e-12
-2.65681e-12
3.15014e-12
-3.34487e-12
4.1951e-12
-4.19165e-12
5.15403e-12
-5.36762e-12
7.19839e-12
-6.84511e-12
8.97791e-12
-9.01879e-12
1.33344e-11
-1.18475e-11
1.72216e-11
-1.63519e-11
2.77222e-11
-2.25477e-11
3.77732e-11
-3.36681e-11
6.90378e-11
-5.03514e-11
1.0217e-10
-8.70305e-11
2.33606e-10
-1.50654e-10
4.00191e-10
-3.47023e-10
1.44158e-09
-7.51271e-10
3.2738e-09
-1.60291e-09
2.35538e-08
-1.90988e-09
2.17049e-08
-5.09168e-08
1.71801e-09
-5.26349e-08
1.5384e-09
2.18845e-08
7.95115e-10
2.42971e-08
3.75993e-10
3.69291e-09
1.67198e-10
1.65039e-09
9.68651e-11
4.7052e-10
5.63448e-11
2.74121e-10
3.7682e-11
1.20844e-10
2.52853e-11
8.14322e-11
1.83349e-11
4.47218e-11
1.32977e-11
3.27674e-11
1.01213e-11
2.0394e-11
7.68732e-12
1.57648e-11
6.02732e-12
1.06456e-11
4.70925e-12
8.51339e-12
3.75784e-12
6.10171e-12
2.98585e-12
4.97634e-12
2.40438e-12
3.72517e-12
1.92632e-12
3.07739e-12
1.55468e-12
2.38017e-12
1.24643e-12
1.98134e-12
1.00076e-12
1.57274e-12
7.95432e-13
1.31457e-12
6.27641e-13
1.07291e-12
4.85134e-13
9.11407e-13
3.65222e-13
7.62977e-13
2.60491e-13
6.67584e-13
1.67776e-13
5.89567e-13
8.19998e-14
5.43069e-13
-1.44351e-16
5.24597e-13
-8.21775e-14
5.22679e-13
-1.67776e-13
5.34042e-13
-2.60656e-13
5.97803e-13
-3.65526e-13
6.7279e-13
-4.8515e-13
7.55089e-13
-6.27577e-13
9.17217e-13
-7.95462e-13
1.07745e-12
-1.00066e-12
1.30589e-12
-1.24636e-12
1.57867e-12
-1.55461e-12
1.98319e-12
-1.92612e-12
2.36923e-12
-2.40425e-12
3.08015e-12
-2.9857e-12
3.73201e-12
-3.75755e-12
4.96578e-12
-4.70901e-12
6.10371e-12
-6.02711e-12
8.51743e-12
-7.68709e-12
1.06376e-11
-1.01213e-11
1.57671e-11
-1.32978e-11
2.0399e-11
-1.83347e-11
3.27606e-11
-2.52852e-11
4.47222e-11
-3.7682e-11
8.14362e-11
-5.63446e-11
1.20834e-10
-9.68651e-11
2.74127e-10
-1.67198e-10
4.70523e-10
-3.75993e-10
1.65038e-09
-7.95115e-10
3.69292e-09
-1.5384e-09
2.42971e-08
-1.71801e-09
2.18845e-08
-5.26348e-08
1.52582e-09
-5.41607e-08
1.47035e-09
2.194e-08
8.35879e-10
2.49316e-08
4.04851e-10
4.12394e-09
1.84418e-10
1.87082e-09
1.07208e-10
5.47727e-10
6.27159e-11
3.18614e-10
4.19581e-11
1.41602e-10
2.82128e-11
9.51748e-11
2.04565e-11
5.24754e-11
1.48524e-11
3.83723e-11
1.13033e-11
2.39412e-11
8.59111e-12
1.84757e-11
6.73532e-12
1.2501e-11
5.26512e-12
9.98432e-12
4.20122e-12
7.16409e-12
3.33948e-12
5.83594e-12
2.6892e-12
4.37833e-12
2.15526e-12
3.60978e-12
1.73956e-12
2.79508e-12
1.39509e-12
2.32448e-12
1.12024e-12
1.84823e-12
8.90635e-13
1.54589e-12
7.02847e-13
1.25733e-12
5.43415e-13
1.07112e-12
4.09133e-13
8.96108e-13
2.91859e-13
7.85975e-13
1.87988e-13
6.94015e-13
9.18816e-14
6.39268e-13
-1.41692e-16
6.1534e-13
-9.2063e-14
6.15003e-13
-1.88019e-13
6.33078e-13
-2.92049e-13
6.99925e-13
-4.09436e-13
7.91022e-13
-5.43457e-13
8.88339e-13
-7.02786e-13
1.0756e-12
-8.90631e-13
1.26608e-12
-1.12016e-12
1.536e-12
-1.39502e-12
1.85098e-12
-1.73945e-12
2.32718e-12
-2.15507e-12
2.78628e-12
-2.68906e-12
3.6143e-12
-3.33931e-12
4.38345e-12
-4.20094e-12
5.82867e-12
-5.26485e-12
7.16936e-12
-6.73506e-12
9.98771e-12
-8.59089e-12
1.24942e-11
-1.13033e-11
1.84801e-11
-1.48525e-11
2.39479e-11
-2.04564e-11
3.83634e-11
-2.82127e-11
5.24793e-11
-4.1958e-11
9.51817e-11
-6.27157e-11
1.41589e-10
-1.07208e-10
3.1862e-10
-1.84418e-10
5.47733e-10
-4.04851e-10
1.87081e-09
-8.35879e-10
4.12395e-09
-1.47035e-09
2.49316e-08
-1.52582e-09
2.194e-08
-5.41607e-08
1.33399e-09
-5.54947e-08
1.39886e-09
2.18751e-08
8.7327e-10
2.54572e-08
4.33442e-10
4.56377e-09
2.02268e-10
2.10199e-09
1.18056e-10
6.31941e-10
6.94743e-11
3.67195e-10
4.65061e-11
1.6457e-10
3.13389e-11
1.10344e-10
2.27238e-11
6.10927e-11
1.65173e-11
4.45801e-11
1.25694e-11
2.78909e-11
9.56032e-12
2.14865e-11
7.49466e-12
1.4567e-11
5.86179e-12
1.16156e-11
4.6772e-12
8.34983e-12
3.71937e-12
6.79373e-12
2.99519e-12
5.10073e-12
2.40135e-12
4.2038e-12
1.93832e-12
3.2583e-12
1.55499e-12
2.70983e-12
1.24877e-12
2.15314e-12
9.93084e-13
1.79807e-12
7.83809e-13
1.46933e-12
6.06168e-13
1.24769e-12
4.56433e-13
1.04483e-12
3.25649e-13
9.15544e-13
2.09763e-13
8.10835e-13
1.02523e-13
7.4613e-13
-1.36341e-16
7.20526e-13
-1.02713e-13
7.17152e-13
-2.09839e-13
7.38731e-13
-3.25855e-13
8.16222e-13
-4.56728e-13
9.19995e-13
-6.06239e-13
1.03848e-12
-7.83744e-13
1.25197e-12
-9.93062e-13
1.47305e-12
-1.24871e-12
1.79337e-12
-1.5549e-12
2.15859e-12
-1.93818e-12
2.71194e-12
-2.40118e-12
3.24807e-12
-2.99504e-12
4.20879e-12
-3.71915e-12
5.10699e-12
-4.67692e-12
6.78416e-12
-5.86149e-12
8.35348e-12
-7.49435e-12
1.16188e-11
-9.56012e-12
1.45574e-11
-1.25694e-11
2.14905e-11
-1.65173e-11
2.78964e-11
-2.27237e-11
4.45691e-11
-3.13389e-11
6.10948e-11
-4.65061e-11
1.10347e-10
-6.94741e-11
1.64559e-10
-1.18056e-10
3.672e-10
-2.02268e-10
6.31947e-10
-4.33442e-10
2.10198e-09
-8.7327e-10
4.56378e-09
-1.39886e-09
2.54572e-08
-1.33399e-09
2.18751e-08
-5.54946e-08
1.14321e-09
-5.66379e-08
1.32403e-09
2.16943e-08
9.07008e-10
2.58742e-08
4.616e-10
5.00918e-09
2.20698e-10
2.3429e-09
1.29403e-10
7.23234e-10
7.66281e-11
4.19973e-10
5.13353e-11
1.89863e-10
3.46725e-11
1.27005e-10
2.51439e-11
7.06208e-11
1.8298e-11
5.14253e-11
1.39242e-11
3.22643e-11
1.05987e-11
2.48099e-11
8.30834e-12
1.68561e-11
6.50173e-12
1.34229e-11
5.18775e-12
9.66111e-12
4.12712e-12
7.85556e-12
3.32367e-12
5.90511e-12
2.66568e-12
4.86191e-12
2.15186e-12
3.77073e-12
1.72684e-12
3.13441e-12
1.38694e-12
2.49255e-12
1.10327e-12
2.08558e-12
8.70884e-13
1.70026e-12
6.73693e-13
1.44578e-12
5.07341e-13
1.21469e-12
3.62028e-13
1.06024e-12
2.33201e-13
9.39838e-13
1.13989e-13
8.65377e-13
-1.38912e-16
8.31892e-13
-1.14183e-13
8.30457e-13
-2.33318e-13
8.58877e-13
-3.62253e-13
9.45803e-13
-5.07619e-13
1.06573e-12
-6.738e-13
1.20229e-12
-8.70827e-13
1.4503e-12
-1.10321e-12
1.70882e-12
-1.3869e-12
2.07515e-12
-1.72675e-12
2.49879e-12
-2.15168e-12
3.13688e-12
-2.66551e-12
3.76244e-12
-3.32352e-12
4.86622e-12
-4.12687e-12
5.91145e-12
-5.18747e-12
7.84596e-12
-6.5014e-12
9.66689e-12
-8.30798e-12
1.34288e-11
-1.05985e-11
1.68486e-11
-1.39242e-11
2.48156e-11
-1.82981e-11
3.22687e-11
-2.51438e-11
5.14162e-11
-3.46724e-11
7.06234e-11
-5.13352e-11
1.27009e-10
-7.66279e-11
1.89851e-10
-1.29403e-10
4.19974e-10
-2.20698e-10
7.2324e-10
-4.616e-10
2.34288e-09
-9.07008e-10
5.00919e-09
-1.32403e-09
2.58742e-08
-1.14321e-09
2.16943e-08
-5.66379e-08
9.54154e-10
-5.7592e-08
1.24604e-09
2.14024e-08
9.36824e-10
2.61834e-08
4.89149e-10
5.45685e-09
2.39644e-10
2.5924e-09
1.41237e-10
8.21643e-10
8.41834e-11
4.77024e-10
5.64541e-11
2.17592e-10
3.8222e-11
1.45239e-10
2.77239e-11
8.11179e-11
2.02006e-11
5.895e-11
1.53723e-11
3.70918e-11
1.17101e-11
2.84721e-11
9.17949e-12
1.93899e-11
7.18746e-12
1.5415e-11
5.73496e-12
1.11162e-11
4.56443e-12
9.02443e-12
3.67604e-12
6.79314e-12
2.94937e-12
5.58931e-12
2.38109e-12
4.34213e-12
1.91142e-12
3.60213e-12
1.53539e-12
2.87238e-12
1.22168e-12
2.3967e-12
9.64494e-13
1.95922e-12
7.4631e-13
1.66325e-12
5.62082e-13
1.39668e-12
4.01169e-13
1.22062e-12
2.58414e-13
1.08166e-12
1.26323e-13
9.99257e-13
-1.365e-16
9.60642e-13
-1.26524e-13
9.58668e-13
-2.58578e-13
9.90472e-13
-4.0141e-13
1.08691e-12
-5.62364e-13
1.22481e-12
-7.46437e-13
1.38727e-12
-9.64432e-13
1.66776e-12
-1.22161e-12
1.96469e-12
-1.53535e-12
2.38853e-12
-1.91131e-12
2.87368e-12
-2.38088e-12
3.60508e-12
-2.94922e-12
4.33117e-12
-3.67588e-12
5.59228e-12
-4.56414e-12
6.79654e-12
-5.73467e-12
9.0159e-12
-7.18709e-12
1.11214e-11
-9.17908e-12
1.5419e-11
-1.171e-11
1.93802e-11
-1.53723e-11
2.84775e-11
-2.02006e-11
3.70955e-11
-2.77238e-11
5.89373e-11
-3.82219e-11
8.11216e-11
-5.6454e-11
1.45242e-10
-8.41832e-11
2.17582e-10
-1.41237e-10
4.77031e-10
-2.39644e-10
8.21648e-10
-4.89149e-10
2.59239e-09
-9.36824e-10
5.45686e-09
-1.24604e-09
2.61834e-08
-9.54154e-10
2.14024e-08
-5.7592e-08
7.67497e-10
-5.83595e-08
1.16508e-09
2.10048e-08
9.62461e-10
2.6386e-08
5.15909e-10
5.90341e-09
2.59035e-10
2.84928e-09
1.53543e-10
9.27133e-10
9.21442e-11
5.38425e-10
6.18705e-11
2.47866e-10
4.19957e-11
1.65113e-10
3.04709e-11
9.26431e-11
2.2231e-11
6.71873e-11
1.69187e-11
4.24057e-11
1.28986e-11
3.24938e-11
1.01113e-11
2.21745e-11
7.92166e-12
1.76045e-11
6.32099e-12
1.27161e-11
5.03309e-12
1.03125e-11
4.05374e-12
7.77213e-12
3.25365e-12
6.38965e-12
2.62699e-12
4.96618e-12
2.10953e-12
4.12112e-12
1.69473e-12
3.28312e-12
1.34886e-12
2.74475e-12
1.06505e-12
2.24136e-12
8.24341e-13
1.904e-12
6.20921e-13
1.60171e-12
4.43245e-13
1.39955e-12
2.85534e-13
1.23963e-12
1.39592e-13
1.14344e-12
-1.3627e-16
1.09866e-12
-1.39803e-13
1.09593e-12
-2.85739e-13
1.13536e-12
-4.43507e-13
1.24621e-12
-6.21203e-13
1.40544e-12
-8.24493e-13
1.59124e-12
-1.06499e-12
1.9081e-12
-1.34877e-12
2.24755e-12
-1.69471e-12
2.73574e-12
-2.10941e-12
3.28856e-12
-2.62674e-12
4.12205e-12
-3.2535e-12
4.95509e-12
-4.05357e-12
6.39445e-12
-5.03276e-12
7.77824e-12
-6.32068e-12
1.0302e-11
-7.92126e-12
1.272e-11
-1.01109e-11
1.76095e-11
-1.28984e-11
2.21665e-11
-1.69187e-11
3.24984e-11
-2.2231e-11
4.24095e-11
-3.04709e-11
6.71779e-11
-4.19956e-11
9.26464e-11
-6.18703e-11
1.65117e-10
-9.2144e-11
2.47854e-10
-1.53543e-10
5.38428e-10
-2.59035e-10
9.27138e-10
-5.15909e-10
2.84926e-09
-9.62461e-10
5.90341e-09
-1.16508e-09
2.6386e-08
-7.67497e-10
2.10048e-08
-5.83595e-08
5.83913e-10
-5.89435e-08
1.08135e-09
2.05074e-08
9.83681e-10
2.64837e-08
5.41687e-10
6.3454e-09
2.78787e-10
3.11217e-09
1.66299e-10
1.03962e-09
1.00512e-10
6.04211e-10
6.75911e-11
2.80786e-10
4.60016e-11