/*--------------------------------*- C++ -*----------------------------------*\
| =========                 |                                                 |
| \\      /  F ield         | foam-extend: Open Source CFD                    |
|  \\    /   O peration     | Version:     4.0                                |
|   \\  /    A nd           | Web:         http://www.foam-extend.org         |
|    \\/     M anipulation  |                                                 |
\*---------------------------------------------------------------------------*/
FoamFile
{
    version     2.0;
    format      ascii;
    class       volScalarField;
    location    "1600";
    object      cPlus;
}
// * * * * * * * * * * * * * * * * * * * * * * * * * * * * * * * * * * * * * //

dimensions      [0 0 0 0 0 0 0];

internalField   nonuniform List<scalar> 
6960
(
0.349484
0.349481
0.349478
0.349475
0.349472
0.349469
0.349466
0.349463
0.349461
0.349458
0.349456
0.349454
0.349452
0.34945
0.349448
0.349447
0.349445
0.349444
0.349443
0.349442
0.349441
0.34944
0.349439
0.349438
0.349438
0.349437
0.349437
0.349437
0.349437
0.349437
0.349437
0.349437
0.349437
0.349437
0.349437
0.349438
0.349438
0.349439
0.34944
0.349441
0.349442
0.349443
0.349444
0.349445
0.349447
0.349448
0.34945
0.349452
0.349454
0.349456
0.349458
0.349461
0.349463
0.349466
0.349469
0.349472
0.349475
0.349478
0.349481
0.349484
0.125672
0.12567
0.125668
0.125665
0.125663
0.12566
0.125658
0.125655
0.125653
0.125651
0.125649
0.125647
0.125646
0.125644
0.125643
0.125642
0.12564
0.125639
0.125638
0.125637
0.125637
0.125636
0.125635
0.125635
0.125634
0.125634
0.125634
0.125633
0.125633
0.125633
0.125633
0.125633
0.125633
0.125634
0.125634
0.125634
0.125635
0.125635
0.125636
0.125637
0.125637
0.125638
0.125639
0.12564
0.125642
0.125643
0.125644
0.125646
0.125647
0.125649
0.125651
0.125653
0.125655
0.125658
0.12566
0.125663
0.125665
0.125668
0.12567
0.125672
0.0534694
0.0534681
0.0534665
0.0534648
0.053463
0.0534613
0.0534596
0.0534581
0.0534566
0.0534553
0.053454
0.0534528
0.0534516
0.0534506
0.0534497
0.0534488
0.053448
0.0534472
0.0534466
0.053446
0.0534454
0.0534449
0.0534445
0.0534441
0.0534438
0.0534436
0.0534434
0.0534432
0.0534431
0.0534431
0.0534431
0.0534431
0.0534432
0.0534434
0.0534436
0.0534438
0.0534441
0.0534445
0.0534449
0.0534454
0.053446
0.0534466
0.0534472
0.053448
0.0534488
0.0534497
0.0534506
0.0534516
0.0534528
0.053454
0.0534553
0.0534566
0.0534581
0.0534596
0.0534613
0.053463
0.0534648
0.0534665
0.0534681
0.0534694
0.0250198
0.0250191
0.0250182
0.0250171
0.0250161
0.0250151
0.0250141
0.0250132
0.0250123
0.0250115
0.0250108
0.02501
0.0250094
0.0250088
0.0250082
0.0250077
0.0250072
0.0250068
0.0250064
0.025006
0.0250057
0.0250054
0.0250052
0.0250049
0.0250048
0.0250046
0.0250045
0.0250044
0.0250043
0.0250043
0.0250043
0.0250043
0.0250044
0.0250045
0.0250046
0.0250048
0.0250049
0.0250052
0.0250054
0.0250057
0.025006
0.0250064
0.0250068
0.0250072
0.0250077
0.0250082
0.0250088
0.0250094
0.02501
0.0250108
0.0250115
0.0250123
0.0250132
0.0250141
0.0250151
0.0250161
0.0250171
0.0250182
0.0250191
0.0250198
0.0129432
0.0129429
0.0129425
0.012942
0.0129414
0.0129409
0.0129404
0.01294
0.0129395
0.0129391
0.0129387
0.0129384
0.0129381
0.0129377
0.0129375
0.0129372
0.012937
0.0129367
0.0129365
0.0129364
0.0129362
0.012936
0.0129359
0.0129358
0.0129357
0.0129356
0.0129356
0.0129355
0.0129355
0.0129355
0.0129355
0.0129355
0.0129355
0.0129356
0.0129356
0.0129357
0.0129358
0.0129359
0.012936
0.0129362
0.0129364
0.0129365
0.0129367
0.012937
0.0129372
0.0129375
0.0129377
0.0129381
0.0129384
0.0129387
0.0129391
0.0129395
0.01294
0.0129404
0.0129409
0.0129414
0.012942
0.0129425
0.0129429
0.0129432
0.00770733
0.00770728
0.00770713
0.00770695
0.00770676
0.00770657
0.00770639
0.00770623
0.00770606
0.00770591
0.00770577
0.00770564
0.00770552
0.00770541
0.0077053
0.0077052
0.00770512
0.00770504
0.00770496
0.0077049
0.00770484
0.00770478
0.00770474
0.0077047
0.00770466
0.00770464
0.00770461
0.0077046
0.00770459
0.00770458
0.00770458
0.00770459
0.0077046
0.00770461
0.00770464
0.00770466
0.0077047
0.00770474
0.00770478
0.00770484
0.0077049
0.00770496
0.00770504
0.00770512
0.0077052
0.0077053
0.00770541
0.00770552
0.00770564
0.00770577
0.00770591
0.00770606
0.00770623
0.00770639
0.00770657
0.00770676
0.00770695
0.00770713
0.00770728
0.00770733
0.0054491
0.00544919
0.00544923
0.00544925
0.00544926
0.00544926
0.00544927
0.00544927
0.00544927
0.00544928
0.00544928
0.00544928
0.00544929
0.00544929
0.00544929
0.00544929
0.0054493
0.0054493
0.0054493
0.0054493
0.0054493
0.0054493
0.0054493
0.00544931
0.00544931
0.00544931
0.00544931
0.00544931
0.00544931
0.00544931
0.00544931
0.00544931
0.00544931
0.00544931
0.00544931
0.00544931
0.00544931
0.0054493
0.0054493
0.0054493
0.0054493
0.0054493
0.0054493
0.0054493
0.00544929
0.00544929
0.00544929
0.00544929
0.00544928
0.00544928
0.00544928
0.00544927
0.00544927
0.00544927
0.00544926
0.00544926
0.00544925
0.00544923
0.00544919
0.0054491
0.00449687
0.00449704
0.00449718
0.00449731
0.00449743
0.00449754
0.00449765
0.00449775
0.00449784
0.00449793
0.00449801
0.00449809
0.00449816
0.00449823
0.00449829
0.00449835
0.0044984
0.00449845
0.00449849
0.00449853
0.00449856
0.00449859
0.00449862
0.00449865
0.00449867
0.00449868
0.0044987
0.00449871
0.00449871
0.00449871
0.00449871
0.00449871
0.00449871
0.0044987
0.00449868
0.00449867
0.00449865
0.00449862
0.00449859
0.00449856
0.00449853
0.00449849
0.00449845
0.0044984
0.00449835
0.00449829
0.00449823
0.00449816
0.00449809
0.00449801
0.00449793
0.00449784
0.00449775
0.00449765
0.00449754
0.00449743
0.00449731
0.00449718
0.00449704
0.00449687
0.00411277
0.00411299
0.00411318
0.00411337
0.00411354
0.00411371
0.00411387
0.00411402
0.00411416
0.0041143
0.00411442
0.00411454
0.00411465
0.00411475
0.00411484
0.00411493
0.00411501
0.00411508
0.00411514
0.0041152
0.00411525
0.0041153
0.00411534
0.00411538
0.00411541
0.00411543
0.00411545
0.00411547
0.00411548
0.00411548
0.00411548
0.00411548
0.00411547
0.00411545
0.00411543
0.00411541
0.00411538
0.00411534
0.0041153
0.00411525
0.0041152
0.00411514
0.00411508
0.00411501
0.00411493
0.00411484
0.00411475
0.00411465
0.00411454
0.00411442
0.0041143
0.00411416
0.00411402
0.00411387
0.00411371
0.00411354
0.00411337
0.00411318
0.00411299
0.00411277
0.00397223
0.00397247
0.00397269
0.00397291
0.00397311
0.00397331
0.0039735
0.00397367
0.00397384
0.003974
0.00397414
0.00397428
0.00397441
0.00397453
0.00397463
0.00397473
0.00397483
0.00397491
0.00397499
0.00397506
0.00397512
0.00397517
0.00397522
0.00397526
0.0039753
0.00397533
0.00397535
0.00397537
0.00397538
0.00397539
0.00397539
0.00397538
0.00397537
0.00397535
0.00397533
0.0039753
0.00397526
0.00397522
0.00397517
0.00397512
0.00397506
0.00397499
0.00397491
0.00397483
0.00397473
0.00397463
0.00397453
0.00397441
0.00397428
0.00397414
0.003974
0.00397384
0.00397367
0.0039735
0.00397331
0.00397311
0.00397291
0.00397269
0.00397247
0.00397223
0.00393456
0.00393482
0.00393505
0.00393529
0.00393551
0.00393572
0.00393592
0.00393611
0.00393629
0.00393646
0.00393662
0.00393676
0.0039369
0.00393703
0.00393714
0.00393725
0.00393735
0.00393744
0.00393752
0.0039376
0.00393767
0.00393772
0.00393778
0.00393782
0.00393786
0.00393789
0.00393792
0.00393793
0.00393795
0.00393795
0.00393795
0.00393795
0.00393793
0.00393792
0.00393789
0.00393786
0.00393782
0.00393778
0.00393772
0.00393767
0.0039376
0.00393752
0.00393744
0.00393735
0.00393725
0.00393714
0.00393703
0.0039369
0.00393676
0.00393662
0.00393646
0.00393629
0.00393611
0.00393592
0.00393572
0.00393551
0.00393529
0.00393505
0.00393482
0.00393456
0.00394005
0.00394031
0.00394056
0.0039408
0.00394103
0.00394125
0.00394146
0.00394165
0.00394184
0.00394202
0.00394218
0.00394233
0.00394248
0.00394261
0.00394273
0.00394284
0.00394295
0.00394304
0.00394312
0.0039432
0.00394327
0.00394333
0.00394339
0.00394343
0.00394347
0.00394351
0.00394353
0.00394355
0.00394356
0.00394357
0.00394357
0.00394356
0.00394355
0.00394353
0.00394351
0.00394347
0.00394343
0.00394339
0.00394333
0.00394327
0.0039432
0.00394312
0.00394304
0.00394295
0.00394284
0.00394273
0.00394261
0.00394248
0.00394233
0.00394218
0.00394202
0.00394184
0.00394165
0.00394146
0.00394125
0.00394103
0.0039408
0.00394056
0.00394031
0.00394005
0.00396395
0.00396422
0.00396447
0.00396471
0.00396495
0.00396517
0.00396539
0.00396559
0.00396578
0.00396596
0.00396613
0.00396629
0.00396643
0.00396657
0.00396669
0.00396681
0.00396691
0.00396701
0.0039671
0.00396718
0.00396725
0.00396731
0.00396736
0.00396741
0.00396745
0.00396749
0.00396751
0.00396753
0.00396755
0.00396755
0.00396755
0.00396755
0.00396753
0.00396751
0.00396749
0.00396745
0.00396741
0.00396736
0.00396731
0.00396725
0.00396718
0.0039671
0.00396701
0.00396691
0.00396681
0.00396669
0.00396657
0.00396643
0.00396629
0.00396613
0.00396596
0.00396578
0.00396559
0.00396539
0.00396517
0.00396495
0.00396471
0.00396447
0.00396422
0.00396395
0.00399631
0.00399659
0.00399684
0.00399709
0.00399733
0.00399756
0.00399778
0.00399799
0.00399818
0.00399836
0.00399853
0.00399869
0.00399884
0.00399898
0.00399911
0.00399922
0.00399933
0.00399943
0.00399952
0.0039996
0.00399967
0.00399973
0.00399979
0.00399984
0.00399988
0.00399992
0.00399994
0.00399996
0.00399998
0.00399998
0.00399998
0.00399998
0.00399996
0.00399994
0.00399992
0.00399988
0.00399984
0.00399979
0.00399973
0.00399967
0.0039996
0.00399952
0.00399943
0.00399933
0.00399922
0.00399911
0.00399898
0.00399884
0.00399869
0.00399853
0.00399836
0.00399818
0.00399799
0.00399778
0.00399756
0.00399733
0.00399709
0.00399684
0.00399659
0.00399631
0.00403331
0.00403359
0.00403385
0.0040341
0.00403435
0.00403458
0.0040348
0.00403501
0.00403521
0.00403539
0.00403557
0.00403573
0.00403588
0.00403602
0.00403615
0.00403627
0.00403638
0.00403648
0.00403657
0.00403665
0.00403672
0.00403679
0.00403685
0.00403689
0.00403694
0.00403697
0.004037
0.00403702
0.00403703
0.00403704
0.00403704
0.00403703
0.00403702
0.004037
0.00403697
0.00403694
0.00403689
0.00403685
0.00403679
0.00403672
0.00403665
0.00403657
0.00403648
0.00403638
0.00403627
0.00403615
0.00403602
0.00403588
0.00403573
0.00403557
0.00403539
0.00403521
0.00403501
0.0040348
0.00403458
0.00403435
0.0040341
0.00403385
0.00403359
0.00403331
0.00407358
0.00407386
0.00407413
0.00407439
0.00407464
0.00407487
0.0040751
0.00407531
0.00407551
0.0040757
0.00407588
0.00407604
0.00407619
0.00407634
0.00407647
0.00407659
0.0040767
0.0040768
0.00407689
0.00407698
0.00407705
0.00407712
0.00407717
0.00407722
0.00407727
0.0040773
0.00407733
0.00407735
0.00407736
0.00407737
0.00407737
0.00407736
0.00407735
0.00407733
0.0040773
0.00407727
0.00407722
0.00407717
0.00407712
0.00407705
0.00407698
0.00407689
0.0040768
0.0040767
0.00407659
0.00407647
0.00407634
0.00407619
0.00407604
0.00407588
0.0040757
0.00407551
0.00407531
0.0040751
0.00407487
0.00407464
0.00407439
0.00407413
0.00407386
0.00407358
0.00411675
0.00411704
0.00411731
0.00411757
0.00411782
0.00411806
0.00411829
0.00411851
0.00411871
0.00411891
0.00411908
0.00411925
0.00411941
0.00411955
0.00411969
0.00411981
0.00411992
0.00412002
0.00412012
0.0041202
0.00412028
0.00412035
0.0041204
0.00412046
0.0041205
0.00412053
0.00412056
0.00412058
0.0041206
0.00412061
0.00412061
0.0041206
0.00412058
0.00412056
0.00412053
0.0041205
0.00412046
0.0041204
0.00412035
0.00412028
0.0041202
0.00412012
0.00412002
0.00411992
0.00411981
0.00411969
0.00411955
0.00411941
0.00411925
0.00411908
0.00411891
0.00411871
0.00411851
0.00411829
0.00411806
0.00411782
0.00411757
0.00411731
0.00411704
0.00411675
0.00416284
0.00416313
0.00416341
0.00416368
0.00416393
0.00416418
0.00416441
0.00416463
0.00416484
0.00416503
0.00416521
0.00416538
0.00416554
0.00416569
0.00416583
0.00416595
0.00416607
0.00416617
0.00416627
0.00416635
0.00416643
0.0041665
0.00416656
0.00416661
0.00416665
0.00416669
0.00416672
0.00416674
0.00416675
0.00416676
0.00416676
0.00416675
0.00416674
0.00416672
0.00416669
0.00416665
0.00416661
0.00416656
0.0041665
0.00416643
0.00416635
0.00416627
0.00416617
0.00416607
0.00416595
0.00416583
0.00416569
0.00416554
0.00416538
0.00416521
0.00416503
0.00416484
0.00416463
0.00416441
0.00416418
0.00416393
0.00416368
0.00416341
0.00416313
0.00416284
0.00421203
0.00421233
0.00421261
0.00421288
0.00421314
0.00421339
0.00421363
0.00421385
0.00421406
0.00421426
0.00421445
0.00421462
0.00421478
0.00421493
0.00421507
0.0042152
0.00421532
0.00421542
0.00421552
0.00421561
0.00421569
0.00421576
0.00421582
0.00421587
0.00421591
0.00421595
0.00421598
0.004216
0.00421602
0.00421603
0.00421603
0.00421602
0.004216
0.00421598
0.00421595
0.00421591
0.00421587
0.00421582
0.00421576
0.00421569
0.00421561
0.00421552
0.00421542
0.00421532
0.0042152
0.00421507
0.00421493
0.00421478
0.00421462
0.00421445
0.00421426
0.00421406
0.00421385
0.00421363
0.00421339
0.00421314
0.00421288
0.00421261
0.00421233
0.00421203
0.0042646
0.0042649
0.00426519
0.00426546
0.00426573
0.00426598
0.00426622
0.00426645
0.00426667
0.00426687
0.00426706
0.00426724
0.0042674
0.00426755
0.00426769
0.00426782
0.00426794
0.00426805
0.00426815
0.00426824
0.00426832
0.00426839
0.00426845
0.00426851
0.00426855
0.00426859
0.00426862
0.00426864
0.00426866
0.00426867
0.00426867
0.00426866
0.00426864
0.00426862
0.00426859
0.00426855
0.00426851
0.00426845
0.00426839
0.00426832
0.00426824
0.00426815
0.00426805
0.00426794
0.00426782
0.00426769
0.00426755
0.0042674
0.00426724
0.00426706
0.00426687
0.00426667
0.00426645
0.00426622
0.00426598
0.00426573
0.00426546
0.00426519
0.0042649
0.0042646
0.00432086
0.00432117
0.00432146
0.00432174
0.00432201
0.00432227
0.00432252
0.00432275
0.00432297
0.00432318
0.00432337
0.00432355
0.00432372
0.00432388
0.00432402
0.00432415
0.00432428
0.00432439
0.00432449
0.00432458
0.00432466
0.00432473
0.0043248
0.00432485
0.0043249
0.00432494
0.00432497
0.00432499
0.00432501
0.00432501
0.00432501
0.00432501
0.00432499
0.00432497
0.00432494
0.0043249
0.00432485
0.0043248
0.00432473
0.00432466
0.00432458
0.00432449
0.00432439
0.00432428
0.00432415
0.00432402
0.00432388
0.00432372
0.00432355
0.00432337
0.00432318
0.00432297
0.00432275
0.00432252
0.00432227
0.00432201
0.00432174
0.00432146
0.00432117
0.00432086
0.0043812
0.00438152
0.00438181
0.0043821
0.00438238
0.00438265
0.0043829
0.00438314
0.00438336
0.00438357
0.00438377
0.00438395
0.00438413
0.00438428
0.00438443
0.00438457
0.00438469
0.00438481
0.00438491
0.004385
0.00438509
0.00438516
0.00438523
0.00438528
0.00438533
0.00438537
0.0043854
0.00438542
0.00438544
0.00438545
0.00438545
0.00438544
0.00438542
0.0043854
0.00438537
0.00438533
0.00438528
0.00438523
0.00438516
0.00438509
0.004385
0.00438491
0.00438481
0.00438469
0.00438457
0.00438443
0.00438428
0.00438413
0.00438395
0.00438377
0.00438357
0.00438336
0.00438314
0.0043829
0.00438265
0.00438238
0.0043821
0.00438181
0.00438152
0.0043812
0.00444606
0.00444638
0.00444669
0.00444698
0.00444727
0.00444754
0.0044478
0.00444804
0.00444827
0.00444849
0.00444869
0.00444888
0.00444906
0.00444922
0.00444937
0.00444951
0.00444964
0.00444975
0.00444986
0.00444995
0.00445004
0.00445012
0.00445018
0.00445024
0.00445029
0.00445033
0.00445036
0.00445039
0.0044504
0.00445041
0.00445041
0.0044504
0.00445039
0.00445036
0.00445033
0.00445029
0.00445024
0.00445018
0.00445012
0.00445004
0.00444995
0.00444986
0.00444975
0.00444964
0.00444951
0.00444937
0.00444922
0.00444906
0.00444888
0.00444869
0.00444849
0.00444827
0.00444804
0.0044478
0.00444754
0.00444727
0.00444698
0.00444669
0.00444638
0.00444606
0.00451594
0.00451628
0.00451659
0.0045169
0.00451719
0.00451747
0.00451773
0.00451798
0.00451822
0.00451844
0.00451865
0.00451884
0.00451902
0.00451919
0.00451934
0.00451948
0.00451962
0.00451974
0.00451984
0.00451994
0.00452003
0.00452011
0.00452018
0.00452024
0.00452029
0.00452033
0.00452036
0.00452038
0.0045204
0.00452041
0.00452041
0.0045204
0.00452038
0.00452036
0.00452033
0.00452029
0.00452024
0.00452018
0.00452011
0.00452003
0.00451994
0.00451984
0.00451974
0.00451962
0.00451948
0.00451934
0.00451919
0.00451902
0.00451884
0.00451865
0.00451844
0.00451822
0.00451798
0.00451773
0.00451747
0.00451719
0.0045169
0.00451659
0.00451628
0.00451594
0.00459145
0.00459179
0.00459212
0.00459243
0.00459273
0.00459301
0.00459328
0.00459354
0.00459378
0.00459401
0.00459423
0.00459442
0.00459461
0.00459478
0.00459494
0.00459509
0.00459522
0.00459535
0.00459546
0.00459556
0.00459565
0.00459573
0.0045958
0.00459586
0.00459591
0.00459595
0.00459599
0.00459601
0.00459603
0.00459604
0.00459604
0.00459603
0.00459601
0.00459599
0.00459595
0.00459591
0.00459586
0.0045958
0.00459573
0.00459565
0.00459556
0.00459546
0.00459535
0.00459522
0.00459509
0.00459494
0.00459478
0.00459461
0.00459442
0.00459423
0.00459401
0.00459378
0.00459354
0.00459328
0.00459301
0.00459273
0.00459243
0.00459212
0.00459179
0.00459145
0.00467326
0.00467362
0.00467395
0.00467427
0.00467458
0.00467487
0.00467515
0.00467542
0.00467567
0.0046759
0.00467612
0.00467633
0.00467652
0.00467669
0.00467686
0.00467701
0.00467715
0.00467727
0.00467739
0.00467749
0.00467759
0.00467767
0.00467774
0.0046778
0.00467786
0.0046779
0.00467793
0.00467796
0.00467798
0.00467799
0.00467799
0.00467798
0.00467796
0.00467793
0.0046779
0.00467786
0.0046778
0.00467774
0.00467767
0.00467759
0.00467749
0.00467739
0.00467727
0.00467715
0.00467701
0.00467686
0.00467669
0.00467652
0.00467633
0.00467612
0.0046759
0.00467567
0.00467542
0.00467515
0.00467487
0.00467458
0.00467427
0.00467395
0.00467362
0.00467326
0.00476219
0.00476256
0.0047629
0.00476323
0.00476355
0.00476385
0.00476414
0.00476442
0.00476467
0.00476492
0.00476514
0.00476535
0.00476555
0.00476573
0.0047659
0.00476606
0.0047662
0.00476633
0.00476645
0.00476656
0.00476665
0.00476674
0.00476681
0.00476688
0.00476693
0.00476698
0.00476702
0.00476704
0.00476706
0.00476707
0.00476707
0.00476706
0.00476704
0.00476702
0.00476698
0.00476693
0.00476688
0.00476681
0.00476674
0.00476665
0.00476656
0.00476645
0.00476633
0.0047662
0.00476606
0.0047659
0.00476573
0.00476555
0.00476535
0.00476514
0.00476492
0.00476467
0.00476442
0.00476414
0.00476385
0.00476355
0.00476323
0.0047629
0.00476256
0.00476219
0.0048592
0.00485958
0.00485993
0.00486028
0.00486061
0.00486092
0.00486122
0.0048615
0.00486177
0.00486202
0.00486225
0.00486247
0.00486268
0.00486287
0.00486304
0.0048632
0.00486335
0.00486349
0.00486361
0.00486372
0.00486382
0.00486391
0.00486399
0.00486405
0.00486411
0.00486416
0.00486419
0.00486422
0.00486424
0.00486425
0.00486425
0.00486424
0.00486422
0.00486419
0.00486416
0.00486411
0.00486405
0.00486399
0.00486391
0.00486382
0.00486372
0.00486361
0.00486349
0.00486335
0.0048632
0.00486304
0.00486287
0.00486268
0.00486247
0.00486225
0.00486202
0.00486177
0.0048615
0.00486122
0.00486092
0.00486061
0.00486028
0.00485993
0.00485958
0.0048592
0.00496543
0.00496583
0.0049662
0.00496655
0.0049669
0.00496722
0.00496753
0.00496783
0.0049681
0.00496836
0.00496861
0.00496883
0.00496905
0.00496924
0.00496942
0.00496959
0.00496975
0.00496989
0.00497001
0.00497013
0.00497023
0.00497032
0.0049704
0.00497047
0.00497053
0.00497058
0.00497062
0.00497065
0.00497067
0.00497068
0.00497068
0.00497067
0.00497065
0.00497062
0.00497058
0.00497053
0.00497047
0.0049704
0.00497032
0.00497023
0.00497013
0.00497001
0.00496989
0.00496975
0.00496959
0.00496942
0.00496924
0.00496905
0.00496883
0.00496861
0.00496836
0.0049681
0.00496783
0.00496753
0.00496722
0.0049669
0.00496655
0.0049662
0.00496583
0.00496543
0.00508228
0.00508269
0.00508308
0.00508345
0.0050838
0.00508414
0.00508447
0.00508477
0.00508506
0.00508533
0.00508558
0.00508582
0.00508604
0.00508625
0.00508643
0.00508661
0.00508677
0.00508692
0.00508705
0.00508717
0.00508728
0.00508737
0.00508745
0.00508753
0.00508759
0.00508764
0.00508768
0.00508771
0.00508773
0.00508774
0.00508774
0.00508773
0.00508771
0.00508768
0.00508764
0.00508759
0.00508753
0.00508745
0.00508737
0.00508728
0.00508717
0.00508705
0.00508692
0.00508677
0.00508661
0.00508643
0.00508625
0.00508604
0.00508582
0.00508558
0.00508533
0.00508506
0.00508477
0.00508447
0.00508414
0.0050838
0.00508345
0.00508308
0.00508269
0.00508228
0.00521142
0.00521185
0.00521225
0.00521264
0.00521301
0.00521337
0.0052137
0.00521402
0.00521432
0.00521461
0.00521487
0.00521512
0.00521535
0.00521556
0.00521576
0.00521594
0.00521611
0.00521626
0.0052164
0.00521653
0.00521664
0.00521674
0.00521683
0.0052169
0.00521697
0.00521702
0.00521706
0.0052171
0.00521712
0.00521713
0.00521713
0.00521712
0.0052171
0.00521706
0.00521702
0.00521697
0.0052169
0.00521683
0.00521674
0.00521664
0.00521653
0.0052164
0.00521626
0.00521611
0.00521594
0.00521576
0.00521556
0.00521535
0.00521512
0.00521487
0.00521461
0.00521432
0.00521402
0.0052137
0.00521337
0.00521301
0.00521264
0.00521225
0.00521185
0.00521142
0.00535492
0.00535537
0.0053558
0.0053562
0.00535659
0.00535697
0.00535732
0.00535766
0.00535797
0.00535827
0.00535855
0.00535881
0.00535905
0.00535927
0.00535948
0.00535967
0.00535985
0.00536001
0.00536016
0.00536029
0.00536041
0.00536051
0.0053606
0.00536068
0.00536075
0.0053608
0.00536085
0.00536088
0.0053609
0.00536091
0.00536091
0.0053609
0.00536088
0.00536085
0.0053608
0.00536075
0.00536068
0.0053606
0.00536051
0.00536041
0.00536029
0.00536016
0.00536001
0.00535985
0.00535967
0.00535948
0.00535927
0.00535905
0.00535881
0.00535855
0.00535827
0.00535797
0.00535766
0.00535732
0.00535697
0.00535659
0.0053562
0.0053558
0.00535537
0.00535492
0.00551537
0.00551585
0.00551629
0.00551672
0.00551713
0.00551753
0.0055179
0.00551826
0.00551859
0.0055189
0.0055192
0.00551947
0.00551973
0.00551996
0.00552018
0.00552038
0.00552057
0.00552074
0.00552089
0.00552103
0.00552116
0.00552127
0.00552136
0.00552145
0.00552152
0.00552158
0.00552162
0.00552166
0.00552168
0.00552169
0.00552169
0.00552168
0.00552166
0.00552162
0.00552158
0.00552152
0.00552145
0.00552136
0.00552127
0.00552116
0.00552103
0.00552089
0.00552074
0.00552057
0.00552038
0.00552018
0.00551996
0.00551973
0.00551947
0.0055192
0.0055189
0.00551859
0.00551826
0.0055179
0.00551753
0.00551713
0.00551672
0.00551629
0.00551585
0.00551537
0.00569602
0.00569653
0.005697
0.00569746
0.00569789
0.00569831
0.00569871
0.00569908
0.00569944
0.00569977
0.00570008
0.00570037
0.00570064
0.00570089
0.00570113
0.00570134
0.00570154
0.00570172
0.00570188
0.00570203
0.00570216
0.00570228
0.00570238
0.00570247
0.00570255
0.00570261
0.00570266
0.0057027
0.00570272
0.00570273
0.00570273
0.00570272
0.0057027
0.00570266
0.00570261
0.00570255
0.00570247
0.00570238
0.00570228
0.00570216
0.00570203
0.00570188
0.00570172
0.00570154
0.00570134
0.00570113
0.00570089
0.00570064
0.00570037
0.00570008
0.00569977
0.00569944
0.00569908
0.00569871
0.00569831
0.00569789
0.00569746
0.005697
0.00569653
0.00569602
0.00590105
0.00590159
0.0059021
0.00590258
0.00590305
0.0059035
0.00590392
0.00590432
0.0059047
0.00590505
0.00590539
0.0059057
0.00590599
0.00590626
0.00590651
0.00590673
0.00590694
0.00590714
0.00590731
0.00590747
0.00590761
0.00590773
0.00590785
0.00590794
0.00590802
0.00590809
0.00590814
0.00590818
0.00590821
0.00590822
0.00590822
0.00590821
0.00590818
0.00590814
0.00590809
0.00590802
0.00590794
0.00590785
0.00590773
0.00590761
0.00590747
0.00590731
0.00590714
0.00590694
0.00590673
0.00590651
0.00590626
0.00590599
0.0059057
0.00590539
0.00590505
0.0059047
0.00590432
0.00590392
0.0059035
0.00590305
0.00590258
0.0059021
0.00590159
0.00590105
0.0061359
0.00613649
0.00613703
0.00613755
0.00613806
0.00613854
0.00613899
0.00613943
0.00613983
0.00614022
0.00614057
0.00614091
0.00614122
0.00614151
0.00614178
0.00614202
0.00614225
0.00614246
0.00614265
0.00614282
0.00614297
0.0061431
0.00614322
0.00614332
0.00614341
0.00614348
0.00614354
0.00614358
0.00614361
0.00614363
0.00614363
0.00614361
0.00614358
0.00614354
0.00614348
0.00614341
0.00614332
0.00614322
0.0061431
0.00614297
0.00614282
0.00614265
0.00614246
0.00614225
0.00614202
0.00614178
0.00614151
0.00614122
0.00614091
0.00614057
0.00614022
0.00613983
0.00613943
0.00613899
0.00613854
0.00613806
0.00613755
0.00613703
0.00613649
0.0061359
0.00640783
0.00640846
0.00640905
0.00640962
0.00641016
0.00641069
0.00641118
0.00641165
0.0064121
0.00641251
0.0064129
0.00641327
0.00641361
0.00641392
0.00641421
0.00641448
0.00641473
0.00641495
0.00641516
0.00641534
0.00641551
0.00641565
0.00641578
0.00641589
0.00641599
0.00641607
0.00641613
0.00641617
0.00641621
0.00641622
0.00641622
0.00641621
0.00641617
0.00641613
0.00641607
0.00641599
0.00641589
0.00641578
0.00641565
0.00641551
0.00641534
0.00641516
0.00641495
0.00641473
0.00641448
0.00641421
0.00641392
0.00641361
0.00641327
0.0064129
0.00641251
0.0064121
0.00641165
0.00641118
0.00641069
0.00641016
0.00640962
0.00640905
0.00640846
0.00640783
0.00672666
0.00672735
0.006728
0.00672863
0.00672923
0.0067298
0.00673035
0.00673086
0.00673135
0.00673181
0.00673224
0.00673264
0.00673301
0.00673336
0.00673368
0.00673397
0.00673424
0.00673449
0.00673472
0.00673492
0.0067351
0.00673526
0.00673541
0.00673553
0.00673563
0.00673572
0.00673579
0.00673584
0.00673587
0.00673589
0.00673589
0.00673587
0.00673584
0.00673579
0.00673572
0.00673563
0.00673553
0.00673541
0.00673526
0.0067351
0.00673492
0.00673472
0.00673449
0.00673424
0.00673397
0.00673368
0.00673336
0.00673301
0.00673264
0.00673224
0.00673181
0.00673135
0.00673086
0.00673035
0.0067298
0.00672923
0.00672863
0.006728
0.00672735
0.00672666
0.00710607
0.00710685
0.00710757
0.00710827
0.00710894
0.00710958
0.00711019
0.00711076
0.00711131
0.00711182
0.00711229
0.00711274
0.00711316
0.00711354
0.0071139
0.00711423
0.00711453
0.00711481
0.00711506
0.00711529
0.00711549
0.00711567
0.00711583
0.00711597
0.00711608
0.00711618
0.00711626
0.00711631
0.00711635
0.00711637
0.00711637
0.00711635
0.00711631
0.00711626
0.00711618
0.00711608
0.00711597
0.00711583
0.00711567
0.00711549
0.00711529
0.00711506
0.00711481
0.00711453
0.00711423
0.0071139
0.00711354
0.00711316
0.00711274
0.00711229
0.00711182
0.00711131
0.00711076
0.00711019
0.00710958
0.00710894
0.00710827
0.00710757
0.00710685
0.00710607
0.00756552
0.00756639
0.00756721
0.007568
0.00756876
0.00756948
0.00757018
0.00757083
0.00757145
0.00757203
0.00757257
0.00757308
0.00757355
0.00757399
0.00757439
0.00757477
0.00757511
0.00757542
0.00757571
0.00757597
0.0075762
0.0075764
0.00757658
0.00757674
0.00757687
0.00757698
0.00757707
0.00757713
0.00757717
0.0075772
0.0075772
0.00757717
0.00757713
0.00757707
0.00757698
0.00757687
0.00757674
0.00757658
0.0075764
0.0075762
0.00757597
0.00757571
0.00757542
0.00757511
0.00757477
0.00757439
0.00757399
0.00757355
0.00757308
0.00757257
0.00757203
0.00757145
0.00757083
0.00757018
0.00756948
0.00756876
0.007568
0.00756721
0.00756639
0.00756552
0.00813308
0.00813409
0.00813503
0.00813595
0.00813683
0.00813767
0.00813847
0.00813923
0.00813994
0.00814061
0.00814124
0.00814183
0.00814238
0.00814289
0.00814336
0.00814379
0.00814419
0.00814455
0.00814488
0.00814518
0.00814545
0.00814569
0.00814589
0.00814608
0.00814623
0.00814635
0.00814646
0.00814653
0.00814658
0.00814661
0.00814661
0.00814658
0.00814653
0.00814646
0.00814635
0.00814623
0.00814608
0.00814589
0.00814569
0.00814545
0.00814518
0.00814488
0.00814455
0.00814419
0.00814379
0.00814336
0.00814289
0.00814238
0.00814183
0.00814124
0.00814061
0.00813994
0.00813923
0.00813847
0.00813767
0.00813683
0.00813595
0.00813503
0.00813409
0.00813308
0.00884961
0.00885079
0.00885191
0.00885299
0.00885403
0.00885503
0.00885598
0.00885688
0.00885773
0.00885852
0.00885927
0.00885997
0.00886062
0.00886122
0.00886178
0.00886229
0.00886276
0.0088632
0.00886359
0.00886394
0.00886426
0.00886454
0.00886479
0.008865
0.00886519
0.00886534
0.00886546
0.00886554
0.0088656
0.00886563
0.00886563
0.0088656
0.00886554
0.00886546
0.00886534
0.00886519
0.008865
0.00886479
0.00886454
0.00886426
0.00886394
0.00886359
0.0088632
0.00886276
0.00886229
0.00886178
0.00886122
0.00886062
0.00885997
0.00885927
0.00885852
0.00885773
0.00885688
0.00885598
0.00885503
0.00885403
0.00885299
0.00885191
0.00885079
0.00884961
0.00977351
0.00977493
0.00977629
0.0097776
0.00977887
0.00978008
0.00978123
0.00978232
0.00978335
0.00978432
0.00978523
0.00978608
0.00978687
0.0097876
0.00978828
0.00978891
0.00978948
0.00979001
0.00979048
0.00979091
0.0097913
0.00979164
0.00979194
0.00979221
0.00979243
0.00979261
0.00979275
0.00979286
0.00979294
0.00979297
0.00979297
0.00979294
0.00979286
0.00979275
0.00979261
0.00979243
0.00979221
0.00979194
0.00979164
0.0097913
0.00979091
0.00979048
0.00979001
0.00978948
0.00978891
0.00978828
0.0097876
0.00978687
0.00978608
0.00978523
0.00978432
0.00978335
0.00978232
0.00978123
0.00978008
0.00977887
0.0097776
0.00977629
0.00977493
0.00977351
0.0109845
0.0109863
0.010988
0.0109896
0.0109912
0.0109927
0.0109941
0.0109955
0.0109967
0.0109979
0.0109991
0.0110001
0.0110011
0.011002
0.0110029
0.0110036
0.0110043
0.011005
0.0110056
0.0110061
0.0110066
0.011007
0.0110074
0.0110077
0.011008
0.0110082
0.0110084
0.0110085
0.0110086
0.0110087
0.0110087
0.0110086
0.0110085
0.0110084
0.0110082
0.011008
0.0110077
0.0110074
0.011007
0.0110066
0.0110061
0.0110056
0.011005
0.0110043
0.0110036
0.0110029
0.011002
0.0110011
0.0110001
0.0109991
0.0109979
0.0109967
0.0109955
0.0109941
0.0109927
0.0109912
0.0109896
0.010988
0.0109863
0.0109845
0.0125822
0.0125844
0.0125865
0.0125886
0.0125906
0.0125925
0.0125943
0.012596
0.0125976
0.0125991
0.0126005
0.0126018
0.0126031
0.0126042
0.0126053
0.0126063
0.0126072
0.012608
0.0126087
0.0126094
0.01261
0.0126105
0.012611
0.0126114
0.0126118
0.0126121
0.0126123
0.0126125
0.0126126
0.0126126
0.0126126
0.0126126
0.0126125
0.0126123
0.0126121
0.0126118
0.0126114
0.012611
0.0126105
0.01261
0.0126094
0.0126087
0.012608
0.0126072
0.0126063
0.0126053
0.0126042
0.0126031
0.0126018
0.0126005
0.0125991
0.0125976
0.012596
0.0125943
0.0125925
0.0125906
0.0125886
0.0125865
0.0125844
0.0125822
0.0146739
0.0146767
0.0146793
0.0146819
0.0146844
0.0146868
0.0146891
0.0146912
0.0146932
0.0146951
0.0146969
0.0146986
0.0147001
0.0147016
0.0147029
0.0147041
0.0147053
0.0147063
0.0147072
0.0147081
0.0147089
0.0147095
0.0147101
0.0147106
0.0147111
0.0147114