/*--------------------------------*- C++ -*----------------------------------*\
| =========                 |                                                 |
| \\      /  F ield         | foam-extend: Open Source CFD                    |
|  \\    /   O peration     | Version:     4.0                                |
|   \\  /    A nd           | Web:         http://www.foam-extend.org         |
|    \\/     M anipulation  |                                                 |
\*---------------------------------------------------------------------------*/
FoamFile
{
    version     2.0;
    format      ascii;
    class       volScalarField;
    location    "600";
    object      cPlus;
}
// * * * * * * * * * * * * * * * * * * * * * * * * * * * * * * * * * * * * * //

dimensions      [0 0 0 0 0 0 0];

internalField   nonuniform List<scalar> 
6960
(
0.342386
0.342381
0.342374
0.342368
0.342361
0.342355
0.342349
0.342343
0.342338
0.342334
0.342329
0.342325
0.342322
0.342318
0.342315
0.342313
0.34231
0.342308
0.342306
0.342304
0.342303
0.342302
0.3423
0.342299
0.342299
0.342298
0.342297
0.342297
0.342297
0.342297
0.342297
0.342297
0.342297
0.342297
0.342298
0.342299
0.342299
0.3423
0.342302
0.342303
0.342304
0.342306
0.342308
0.34231
0.342313
0.342315
0.342318
0.342322
0.342325
0.342329
0.342334
0.342338
0.342343
0.342349
0.342355
0.342361
0.342368
0.342374
0.342381
0.342386
0.119931
0.119927
0.119922
0.119916
0.119911
0.119906
0.119902
0.119897
0.119893
0.119889
0.119886
0.119883
0.11988
0.119877
0.119875
0.119873
0.119871
0.119869
0.119868
0.119866
0.119865
0.119864
0.119863
0.119862
0.119862
0.119861
0.119861
0.11986
0.11986
0.11986
0.11986
0.11986
0.11986
0.119861
0.119861
0.119862
0.119862
0.119863
0.119864
0.119865
0.119866
0.119868
0.119869
0.119871
0.119873
0.119875
0.119877
0.11988
0.119883
0.119886
0.119889
0.119893
0.119897
0.119902
0.119906
0.119911
0.119916
0.119922
0.119927
0.119931
0.0496905
0.049688
0.0496848
0.0496814
0.049678
0.0496748
0.0496718
0.049669
0.0496664
0.049664
0.0496618
0.0496597
0.0496579
0.0496562
0.0496547
0.0496533
0.0496521
0.049651
0.04965
0.0496491
0.0496483
0.0496477
0.0496471
0.0496466
0.0496462
0.0496458
0.0496455
0.0496453
0.0496452
0.0496451
0.0496451
0.0496452
0.0496453
0.0496455
0.0496458
0.0496462
0.0496466
0.0496471
0.0496477
0.0496483
0.0496491
0.04965
0.049651
0.0496521
0.0496533
0.0496547
0.0496562
0.0496579
0.0496597
0.0496618
0.049664
0.0496664
0.049669
0.0496718
0.0496748
0.049678
0.0496814
0.0496848
0.049688
0.0496905
0.0228634
0.0228622
0.0228604
0.0228585
0.0228567
0.0228549
0.0228532
0.0228517
0.0228502
0.0228489
0.0228477
0.0228466
0.0228455
0.0228446
0.0228438
0.022843
0.0228423
0.0228417
0.0228412
0.0228407
0.0228402
0.0228399
0.0228395
0.0228393
0.022839
0.0228388
0.0228387
0.0228386
0.0228385
0.0228385
0.0228385
0.0228385
0.0228386
0.0228387
0.0228388
0.022839
0.0228393
0.0228395
0.0228399
0.0228402
0.0228407
0.0228412
0.0228417
0.0228423
0.022843
0.0228438
0.0228446
0.0228455
0.0228466
0.0228477
0.0228489
0.0228502
0.0228517
0.0228532
0.0228549
0.0228567
0.0228585
0.0228604
0.0228622
0.0228634
0.0119208
0.0119203
0.0119196
0.0119187
0.0119179
0.0119171
0.0119164
0.0119157
0.011915
0.0119144
0.0119139
0.0119134
0.0119129
0.0119125
0.0119121
0.0119118
0.0119114
0.0119112
0.0119109
0.0119107
0.0119105
0.0119103
0.0119102
0.0119101
0.01191
0.0119099
0.0119098
0.0119098
0.0119097
0.0119097
0.0119097
0.0119097
0.0119098
0.0119098
0.0119099
0.01191
0.0119101
0.0119102
0.0119103
0.0119105
0.0119107
0.0119109
0.0119112
0.0119114
0.0119118
0.0119121
0.0119125
0.0119129
0.0119134
0.0119139
0.0119144
0.011915
0.0119157
0.0119164
0.0119171
0.0119179
0.0119187
0.0119196
0.0119203
0.0119208
0.00739379
0.00739382
0.00739367
0.00739347
0.00739326
0.00739306
0.00739286
0.00739268
0.00739251
0.00739235
0.00739221
0.00739208
0.00739196
0.00739185
0.00739175
0.00739166
0.00739158
0.00739151
0.00739145
0.00739139
0.00739134
0.00739129
0.00739126
0.00739122
0.00739119
0.00739117
0.00739115
0.00739114
0.00739113
0.00739113
0.00739113
0.00739113
0.00739114
0.00739115
0.00739117
0.00739119
0.00739122
0.00739126
0.00739129
0.00739134
0.00739139
0.00739145
0.00739151
0.00739158
0.00739166
0.00739175
0.00739185
0.00739196
0.00739208
0.00739221
0.00739235
0.00739251
0.00739268
0.00739286
0.00739306
0.00739326
0.00739347
0.00739367
0.00739382
0.00739379
0.00554273
0.00554303
0.00554322
0.00554338
0.00554351
0.00554364
0.00554375
0.00554386
0.00554396
0.00554405
0.00554413
0.00554421
0.00554428
0.00554434
0.0055444
0.00554445
0.0055445
0.00554454
0.00554458
0.00554461
0.00554464
0.00554467
0.00554469
0.00554471
0.00554472
0.00554474
0.00554475
0.00554475
0.00554476
0.00554476
0.00554476
0.00554476
0.00554475
0.00554475
0.00554474
0.00554472
0.00554471
0.00554469
0.00554467
0.00554464
0.00554461
0.00554458
0.00554454
0.0055445
0.00554445
0.0055444
0.00554434
0.00554428
0.00554421
0.00554413
0.00554405
0.00554396
0.00554386
0.00554375
0.00554364
0.00554351
0.00554338
0.00554322
0.00554303
0.00554273
0.00480966
0.0048101
0.00481047
0.00481081
0.00481113
0.00481143
0.0048117
0.00481196
0.0048122
0.00481242
0.00481262
0.00481281
0.00481298
0.00481313
0.00481327
0.0048134
0.00481351
0.00481361
0.0048137
0.00481378
0.00481385
0.00481392
0.00481397
0.00481402
0.00481405
0.00481409
0.00481411
0.00481413
0.00481414
0.00481415
0.00481415
0.00481414
0.00481413
0.00481411
0.00481409
0.00481405
0.00481402
0.00481397
0.00481392
0.00481385
0.00481378
0.0048137
0.00481361
0.00481351
0.0048134
0.00481327
0.00481313
0.00481298
0.00481281
0.00481262
0.00481242
0.0048122
0.00481196
0.0048117
0.00481143
0.00481113
0.00481081
0.00481047
0.0048101
0.00480966
0.00453831
0.00453881
0.00453928
0.00453971
0.00454012
0.00454051
0.00454086
0.0045412
0.00454151
0.00454179
0.00454205
0.00454229
0.00454251
0.00454271
0.00454289
0.00454305
0.0045432
0.00454333
0.00454345
0.00454355
0.00454365
0.00454373
0.0045438
0.00454386
0.00454391
0.00454395
0.00454398
0.004544
0.00454402
0.00454403
0.00454403
0.00454402
0.004544
0.00454398
0.00454395
0.00454391
0.00454386
0.0045438
0.00454373
0.00454365
0.00454355
0.00454345
0.00454333
0.0045432
0.00454305
0.00454289
0.00454271
0.00454251
0.00454229
0.00454205
0.00454179
0.00454151
0.0045412
0.00454086
0.00454051
0.00454012
0.00453971
0.00453928
0.00453881
0.00453831
0.00445469
0.00445524
0.00445575
0.00445623
0.00445668
0.00445711
0.00445751
0.00445788
0.00445822
0.00445854
0.00445883
0.0044591
0.00445934
0.00445956
0.00445976
0.00445995
0.00446011
0.00446026
0.00446039
0.0044605
0.00446061
0.0044607
0.00446077
0.00446084
0.00446089
0.00446094
0.00446098
0.004461
0.00446102
0.00446103
0.00446103
0.00446102
0.004461
0.00446098
0.00446094
0.00446089
0.00446084
0.00446077
0.0044607
0.00446061
0.0044605
0.00446039
0.00446026
0.00446011
0.00445995
0.00445976
0.00445956
0.00445934
0.0044591
0.00445883
0.00445854
0.00445822
0.00445788
0.00445751
0.00445711
0.00445668
0.00445623
0.00445575
0.00445524
0.00445469
0.00444653
0.0044471
0.00444763
0.00444814
0.00444862
0.00444907
0.00444949
0.00444988
0.00445024
0.00445057
0.00445088
0.00445116
0.00445142
0.00445165
0.00445186
0.00445205
0.00445223
0.00445238
0.00445252
0.00445264
0.00445275
0.00445284
0.00445292
0.00445299
0.00445305
0.0044531
0.00445314
0.00445317
0.00445319
0.00445319
0.00445319
0.00445319
0.00445317
0.00445314
0.0044531
0.00445305
0.00445299
0.00445292
0.00445284
0.00445275
0.00445264
0.00445252
0.00445238
0.00445223
0.00445205
0.00445186
0.00445165
0.00445142
0.00445116
0.00445088
0.00445057
0.00445024
0.00444988
0.00444949
0.00444907
0.00444862
0.00444814
0.00444763
0.0044471
0.00444653
0.00446889
0.00446947
0.00447002
0.00447053
0.00447103
0.00447149
0.00447192
0.00447233
0.0044727
0.00447304
0.00447336
0.00447365
0.00447391
0.00447415
0.00447437
0.00447457
0.00447474
0.0044749
0.00447504
0.00447517
0.00447528
0.00447538
0.00447546
0.00447553
0.00447559
0.00447564
0.00447568
0.00447571
0.00447573
0.00447574
0.00447574
0.00447573
0.00447571
0.00447568
0.00447564
0.00447559
0.00447553
0.00447546
0.00447538
0.00447528
0.00447517
0.00447504
0.0044749
0.00447474
0.00447457
0.00447437
0.00447415
0.00447391
0.00447365
0.00447336
0.00447304
0.0044727
0.00447233
0.00447192
0.00447149
0.00447103
0.00447053
0.00447002
0.00446947
0.00446889
0.00450426
0.00450486
0.00450541
0.00450594
0.00450644
0.00450692
0.00450736
0.00450777
0.00450815
0.0045085
0.00450882
0.00450912
0.00450939
0.00450963
0.00450985
0.00451005
0.00451024
0.0045104
0.00451054
0.00451067
0.00451079
0.00451088
0.00451097
0.00451104
0.00451111
0.00451116
0.0045112
0.00451123
0.00451124
0.00451125
0.00451125
0.00451124
0.00451123
0.0045112
0.00451116
0.00451111
0.00451104
0.00451097
0.00451088
0.00451079
0.00451067
0.00451054
0.0045104
0.00451024
0.00451005
0.00450985
0.00450963
0.00450939
0.00450912
0.00450882
0.0045085
0.00450815
0.00450777
0.00450736
0.00450692
0.00450644
0.00450594
0.00450541
0.00450486
0.00450426
0.00454611
0.00454671
0.00454728
0.00454781
0.00454833
0.00454881
0.00454926
0.00454967
0.00455006
0.00455042
0.00455075
0.00455105
0.00455132
0.00455157
0.0045518
0.004552
0.00455218
0.00455235
0.0045525
0.00455263
0.00455274
0.00455284
0.00455293
0.00455301
0.00455307
0.00455312
0.00455316
0.00455319
0.00455321
0.00455322
0.00455322
0.00455321
0.00455319
0.00455316
0.00455312
0.00455307
0.00455301
0.00455293
0.00455284
0.00455274
0.00455263
0.0045525
0.00455235
0.00455218
0.004552
0.0045518
0.00455157
0.00455132
0.00455105
0.00455075
0.00455042
0.00455006
0.00454967
0.00454926
0.00454881
0.00454833
0.00454781
0.00454728
0.00454671
0.00454611
0.00459213
0.00459274
0.00459332
0.00459387
0.00459439
0.00459487
0.00459533
0.00459576
0.00459615
0.00459651
0.00459685
0.00459715
0.00459743
0.00459768
0.00459791
0.00459812
0.00459831
0.00459848
0.00459863
0.00459876
0.00459888
0.00459898
0.00459907
0.00459915
0.00459921
0.00459926
0.0045993
0.00459933
0.00459935
0.00459936
0.00459936
0.00459935
0.00459933
0.0045993
0.00459926
0.00459921
0.00459915
0.00459907
0.00459898
0.00459888
0.00459876
0.00459863
0.00459848
0.00459831
0.00459812
0.00459791
0.00459768
0.00459743
0.00459715
0.00459685
0.00459651
0.00459615
0.00459576
0.00459533
0.00459487
0.00459439
0.00459387
0.00459332
0.00459274
0.00459213
0.00464166
0.00464229
0.00464287
0.00464343
0.00464396
0.00464446
0.00464492
0.00464535
0.00464575
0.00464612
0.00464646
0.00464677
0.00464705
0.00464731
0.00464755
0.00464776
0.00464795
0.00464812
0.00464827
0.00464841
0.00464853
0.00464863
0.00464872
0.0046488
0.00464887
0.00464892
0.00464896
0.00464899
0.00464901
0.00464902
0.00464902
0.00464901
0.00464899
0.00464896
0.00464892
0.00464887
0.0046488
0.00464872
0.00464863
0.00464853
0.00464841
0.00464827
0.00464812
0.00464795
0.00464776
0.00464755
0.00464731
0.00464705
0.00464677
0.00464646
0.00464612
0.00464575
0.00464535
0.00464492
0.00464446
0.00464396
0.00464343
0.00464287
0.00464229
0.00464166
0.00469466
0.0046953
0.00469589
0.00469646
0.004697
0.00469751
0.00469798
0.00469842
0.00469883
0.0046992
0.00469955
0.00469986
0.00470015
0.00470042
0.00470065
0.00470087
0.00470106
0.00470124
0.00470139
0.00470153
0.00470165
0.00470176
0.00470185
0.00470193
0.004702
0.00470205
0.00470209
0.00470213
0.00470215
0.00470216
0.00470216
0.00470215
0.00470213
0.00470209
0.00470205
0.004702
0.00470193
0.00470185
0.00470176
0.00470165
0.00470153
0.00470139
0.00470124
0.00470106
0.00470087
0.00470065
0.00470042
0.00470015
0.00469986
0.00469955
0.0046992
0.00469883
0.00469842
0.00469798
0.00469751
0.004697
0.00469646
0.00469589
0.0046953
0.00469466
0.00475133
0.00475198
0.00475259
0.00475316
0.00475371
0.00475423
0.00475471
0.00475516
0.00475558
0.00475596
0.00475631
0.00475663
0.00475693
0.00475719
0.00475744
0.00475766
0.00475786
0.00475803
0.00475819
0.00475833
0.00475846
0.00475857
0.00475866
0.00475874
0.00475881
0.00475886
0.00475891
0.00475894
0.00475896
0.00475897
0.00475897
0.00475896
0.00475894
0.00475891
0.00475886
0.00475881
0.00475874
0.00475866
0.00475857
0.00475846
0.00475833
0.00475819
0.00475803
0.00475786
0.00475766
0.00475744
0.00475719
0.00475693
0.00475663
0.00475631
0.00475596
0.00475558
0.00475516
0.00475471
0.00475423
0.00475371
0.00475316
0.00475259
0.00475198
0.00475133
0.00481198
0.00481265
0.00481327
0.00481386
0.00481442
0.00481494
0.00481544
0.00481589
0.00481632
0.00481671
0.00481707
0.0048174
0.0048177
0.00481797
0.00481822
0.00481844
0.00481864
0.00481883
0.00481899
0.00481913
0.00481926
0.00481937
0.00481946
0.00481955
0.00481962
0.00481967
0.00481972
0.00481975
0.00481977
0.00481978
0.00481978
0.00481977
0.00481975
0.00481972
0.00481967
0.00481962
0.00481955
0.00481946
0.00481937
0.00481926
0.00481913
0.00481899
0.00481883
0.00481864
0.00481844
0.00481822
0.00481797
0.0048177
0.0048174
0.00481707
0.00481671
0.00481632
0.00481589
0.00481544
0.00481494
0.00481442
0.00481386
0.00481327
0.00481265
0.00481198
0.00487701
0.00487769
0.00487833
0.00487893
0.0048795
0.00488004
0.00488054
0.00488101
0.00488144
0.00488184
0.00488221
0.00488255
0.00488285
0.00488313
0.00488339
0.00488362
0.00488382
0.00488401
0.00488417
0.00488432
0.00488445
0.00488456
0.00488466
0.00488475
0.00488482
0.00488487
0.00488492
0.00488495
0.00488498
0.00488499
0.00488499
0.00488498
0.00488495
0.00488492
0.00488487
0.00488482
0.00488475
0.00488466
0.00488456
0.00488445
0.00488432
0.00488417
0.00488401
0.00488382
0.00488362
0.00488339
0.00488313
0.00488285
0.00488255
0.00488221
0.00488184
0.00488144
0.00488101
0.00488054
0.00488004
0.0048795
0.00487893
0.00487833
0.00487769
0.00487701
0.00494688
0.00494758
0.00494823
0.00494885
0.00494943
0.00494998
0.0049505
0.00495098
0.00495142
0.00495183
0.0049522
0.00495255
0.00495286
0.00495315
0.00495341
0.00495364
0.00495385
0.00495404
0.00495421
0.00495436
0.00495449
0.00495461
0.00495471
0.0049548
0.00495487
0.00495493
0.00495498
0.00495501
0.00495503
0.00495504
0.00495504
0.00495503
0.00495501
0.00495498
0.00495493
0.00495487
0.0049548
0.00495471
0.00495461
0.00495449
0.00495436
0.00495421
0.00495404
0.00495385
0.00495364
0.00495341
0.00495315
0.00495286
0.00495255
0.0049522
0.00495183
0.00495142
0.00495098
0.0049505
0.00494998
0.00494943
0.00494885
0.00494823
0.00494758
0.00494688
0.00502212
0.00502284
0.0050235
0.00502414
0.00502474
0.0050253
0.00502583
0.00502632
0.00502677
0.00502719
0.00502758
0.00502793
0.00502825
0.00502854
0.00502881
0.00502905
0.00502927
0.00502946
0.00502964
0.00502979
0.00502993
0.00503005
0.00503015
0.00503024
0.00503031
0.00503037
0.00503042
0.00503045
0.00503048
0.00503049
0.00503049
0.00503048
0.00503045
0.00503042
0.00503037
0.00503031
0.00503024
0.00503015
0.00503005
0.00502993
0.00502979
0.00502964
0.00502946
0.00502927
0.00502905
0.00502881
0.00502854
0.00502825
0.00502793
0.00502758
0.00502719
0.00502677
0.00502632
0.00502583
0.0050253
0.00502474
0.00502414
0.0050235
0.00502284
0.00502212
0.00510335
0.00510408
0.00510477
0.00510542
0.00510603
0.00510661
0.00510716
0.00510766
0.00510813
0.00510856
0.00510895
0.00510931
0.00510964
0.00510994
0.00511022
0.00511047
0.00511069
0.00511089
0.00511107
0.00511122
0.00511136
0.00511149
0.00511159
0.00511168
0.00511176
0.00511182
0.00511187
0.00511191
0.00511193
0.00511194
0.00511194
0.00511193
0.00511191
0.00511187
0.00511182
0.00511176
0.00511168
0.00511159
0.00511149
0.00511136
0.00511122
0.00511107
0.00511089
0.00511069
0.00511047
0.00511022
0.00510994
0.00510964
0.00510931
0.00510895
0.00510856
0.00510813
0.00510766
0.00510716
0.00510661
0.00510603
0.00510542
0.00510477
0.00510408
0.00510335
0.00519128
0.00519204
0.00519274
0.00519341
0.00519405
0.00519464
0.0051952
0.00519572
0.0051962
0.00519664
0.00519705
0.00519742
0.00519776
0.00519807
0.00519835
0.00519861
0.00519884
0.00519904
0.00519922
0.00519939
0.00519953
0.00519966
0.00519977
0.00519986
0.00519994
0.0052
0.00520005
0.00520009
0.00520012
0.00520013
0.00520013
0.00520012
0.00520009
0.00520005
0.0052
0.00519994
0.00519986
0.00519977
0.00519966
0.00519953
0.00519939
0.00519922
0.00519904
0.00519884
0.00519861
0.00519835
0.00519807
0.00519776
0.00519742
0.00519705
0.00519664
0.0051962
0.00519572
0.0051952
0.00519464
0.00519405
0.00519341
0.00519274
0.00519204
0.00519128
0.00528676
0.00528755
0.00528827
0.00528896
0.00528962
0.00529023
0.00529081
0.00529134
0.00529184
0.00529229
0.00529271
0.0052931
0.00529345
0.00529377
0.00529406
0.00529432
0.00529456
0.00529477
0.00529496
0.00529513
0.00529528
0.00529541
0.00529552
0.00529562
0.0052957
0.00529576
0.00529581
0.00529585
0.00529588
0.00529589
0.00529589
0.00529588
0.00529585
0.00529581
0.00529576
0.0052957
0.00529562
0.00529552
0.00529541
0.00529528
0.00529513
0.00529496
0.00529477
0.00529456
0.00529432
0.00529406
0.00529377
0.00529345
0.0052931
0.00529271
0.00529229
0.00529184
0.00529134
0.00529081
0.00529023
0.00528962
0.00528896
0.00528827
0.00528755
0.00528676
0.0053908
0.00539161
0.00539236
0.00539307
0.00539375
0.00539439
0.00539498
0.00539553
0.00539604
0.00539652
0.00539695
0.00539735
0.00539771
0.00539804
0.00539834
0.00539861
0.00539886
0.00539908
0.00539927
0.00539945
0.0053996
0.00539973
0.00539985
0.00539995
0.00540003
0.0054001
0.00540016
0.0054002
0.00540022
0.00540023
0.00540023
0.00540022
0.0054002
0.00540016
0.0054001
0.00540003
0.00539995
0.00539985
0.00539973
0.0053996
0.00539945
0.00539927
0.00539908
0.00539886
0.00539861
0.00539834
0.00539804
0.00539771
0.00539735
0.00539695
0.00539652
0.00539604
0.00539553
0.00539498
0.00539439
0.00539375
0.00539307
0.00539236
0.00539161
0.0053908
0.00550457
0.00550541
0.00550619
0.00550693
0.00550763
0.00550829
0.0055089
0.00550948
0.00551001
0.00551049
0.00551094
0.00551136
0.00551173
0.00551208
0.00551239
0.00551267
0.00551292
0.00551315
0.00551335
0.00551353
0.00551369
0.00551383
0.00551395
0.00551406
0.00551414
0.00551421
0.00551427
0.00551431
0.00551434
0.00551435
0.00551435
0.00551434
0.00551431
0.00551427
0.00551421
0.00551414
0.00551406
0.00551395
0.00551383
0.00551369
0.00551353
0.00551335
0.00551315
0.00551292
0.00551267
0.00551239
0.00551208
0.00551173
0.00551136
0.00551094
0.00551049
0.00551001
0.00550948
0.0055089
0.00550829
0.00550763
0.00550693
0.00550619
0.00550541
0.00550457
0.00562949
0.00563037
0.00563118
0.00563195
0.00563268
0.00563337
0.00563401
0.0056346
0.00563515
0.00563566
0.00563613
0.00563656
0.00563695
0.00563731
0.00563763
0.00563792
0.00563819
0.00563842
0.00563863
0.00563882
0.00563899
0.00563913
0.00563926
0.00563936
0.00563945
0.00563953
0.00563959
0.00563963
0.00563966
0.00563967
0.00563967
0.00563966
0.00563963
0.00563959
0.00563953
0.00563945
0.00563936
0.00563926
0.00563913
0.00563899
0.00563882
0.00563863
0.00563842
0.00563819
0.00563792
0.00563763
0.00563731
0.00563695
0.00563656
0.00563613
0.00563566
0.00563515
0.0056346
0.00563401
0.00563337
0.00563268
0.00563195
0.00563118
0.00563037
0.00562949
0.00576731
0.00576823
0.00576907
0.00576988
0.00577064
0.00577135
0.00577202
0.00577264
0.00577322
0.00577375
0.00577424
0.00577468
0.00577509
0.00577546
0.0057758
0.00577611
0.00577638
0.00577663
0.00577685
0.00577705
0.00577722
0.00577737
0.0057775
0.00577761
0.00577771
0.00577778
0.00577785
0.00577789
0.00577792
0.00577794
0.00577794
0.00577792
0.00577789
0.00577785
0.00577778
0.00577771
0.00577761
0.0057775
0.00577737
0.00577722
0.00577705
0.00577685
0.00577663
0.00577638
0.00577611
0.0057758
0.00577546
0.00577509
0.00577468
0.00577424
0.00577375
0.00577322
0.00577264
0.00577202
0.00577135
0.00577064
0.00576988
0.00576907
0.00576823
0.00576731
0.00592013
0.00592109
0.00592198
0.00592282
0.00592362
0.00592437
0.00592507
0.00592572
0.00592632
0.00592688
0.00592739
0.00592786
0.00592828
0.00592867
0.00592903
0.00592935
0.00592964
0.0059299
0.00593013
0.00593033
0.00593051
0.00593067
0.00593081
0.00593093
0.00593103
0.00593111
0.00593117
0.00593122
0.00593125
0.00593127
0.00593127
0.00593125
0.00593122
0.00593117
0.00593111
0.00593103
0.00593093
0.00593081
0.00593067
0.00593051
0.00593033
0.00593013
0.0059299
0.00592964
0.00592935
0.00592903
0.00592867
0.00592828
0.00592786
0.00592739
0.00592688
0.00592632
0.00592572
0.00592507
0.00592437
0.00592362
0.00592282
0.00592198
0.00592109
0.00592013
0.00609058
0.00609159
0.00609252
0.00609341
0.00609425
0.00609503
0.00609577
0.00609646
0.00609709
0.00609768
0.00609822
0.00609871
0.00609916
0.00609957
0.00609994
0.00610028
0.00610058
0.00610086
0.0061011
0.00610132
0.00610151
0.00610167
0.00610182
0.00610194
0.00610205
0.00610213
0.0061022
0.00610225
0.00610228
0.0061023
0.0061023
0.00610228
0.00610225
0.0061022
0.00610213
0.00610205
0.00610194
0.00610182
0.00610167
0.00610151
0.00610132
0.0061011
0.00610086
0.00610058
0.00610028
0.00609994
0.00609957
0.00609916
0.00609871
0.00609822
0.00609768
0.00609709
0.00609646
0.00609577
0.00609503
0.00609425
0.00609341
0.00609252
0.00609159
0.00609058
0.00628194
0.00628301
0.006284
0.00628493
0.00628582
0.00628666
0.00628744
0.00628816
0.00628883
0.00628945
0.00629002
0.00629054
0.00629102
0.00629146
0.00629185
0.00629221
0.00629253
0.00629282
0.00629308
0.00629331
0.00629351
0.00629368
0.00629384
0.00629397
0.00629408
0.00629417
0.00629424
0.00629429
0.00629433
0.00629435
0.00629435
0.00629433
0.00629429
0.00629424
0.00629417
0.00629408
0.00629397
0.00629384
0.00629368
0.00629351
0.00629331
0.00629308
0.00629282
0.00629253
0.00629221
0.00629185
0.00629146
0.00629102
0.00629054
0.00629002
0.00628945
0.00628883
0.00628816
0.00628744
0.00628666
0.00628582
0.00628493
0.006284
0.00628301
0.00628194
0.0064984
0.00649955
0.0065006
0.0065016
0.00650254
0.00650343
0.00650426
0.00650503
0.00650575
0.00650641
0.00650702
0.00650757
0.00650808
0.00650854
0.00650896
0.00650934
0.00650969
0.00650999
0.00651027
0.00651051
0.00651073
0.00651092
0.00651108
0.00651122
0.00651134
0.00651143
0.00651151
0.00651157
0.0065116
0.00651162
0.00651162
0.0065116
0.00651157
0.00651151
0.00651143
0.00651134
0.00651122
0.00651108
0.00651092
0.00651073
0.00651051
0.00651027
0.00650999
0.00650969
0.00650934
0.00650896
0.00650854
0.00650808
0.00650757
0.00650702
0.00650641
0.00650575
0.00650503
0.00650426
0.00650343
0.00650254
0.0065016
0.0065006
0.00649955
0.0064984
0.00674541
0.00674663
0.00674776
0.00674883
0.00674984
0.0067508
0.00675169
0.00675252
0.00675329
0.00675399
0.00675465
0.00675524
0.00675579
0.00675628
0.00675674
0.00675714
0.00675751
0.00675784
0.00675814
0.0067584
0.00675863
0.00675883
0.00675901
0.00675916
0.00675929
0.00675939
0.00675947
0.00675953
0.00675957
0.00675959
0.00675959
0.00675957
0.00675953
0.00675947
0.00675939
0.00675929
0.00675916
0.00675901
0.00675883
0.00675863
0.0067584
0.00675814
0.00675784
0.00675751
0.00675714
0.00675674
0.00675628
0.00675579
0.00675524
0.00675465
0.00675399
0.00675329
0.00675252
0.00675169
0.0067508
0.00674984
0.00674883
0.00674776
0.00674663
0.00674541
0.0070301
0.00703143
0.00703265
0.00703381
0.00703491
0.00703594
0.0070369
0.0070378
0.00703863
0.0070394
0.0070401
0.00704075
0.00704134
0.00704188
0.00704237
0.00704281
0.00704321
0.00704357
0.00704389
0.00704417
0.00704442
0.00704464
0.00704483
0.00704499
0.00704513
0.00704524
0.00704533
0.00704539
0.00704544
0.00704546
0.00704546
0.00704544
0.00704539
0.00704533
0.00704524
0.00704513
0.00704499
0.00704483
0.00704464
0.00704442
0.00704417
0.00704389
0.00704357
0.00704321
0.00704281
0.00704237
0.00704188
0.00704134
0.00704075
0.0070401
0.0070394
0.00703863
0.0070378
0.0070369
0.00703594
0.00703491
0.00703381
0.00703265
0.00703143
0.0070301
0.00736214
0.00736359
0.00736492
0.00736619
0.00736739
0.00736852
0.00736958
0.00737056
0.00737147
0.00737231
0.00737308
0.00737378
0.00737443
0.00737502
0.00737556
0.00737604
0.00737648
0.00737687
0.00737722
0.00737753
0.0073778
0.00737804
0.00737825
0.00737843
0.00737858
0.0073787
0.0073788
0.00737887
0.00737892
0.00737894
0.00737894
0.00737892
0.00737887
0.0073788
0.0073787
0.00737858
0.00737843
0.00737825
0.00737804
0.0073778
0.00737753
0.00737722
0.00737687
0.00737648
0.00737604
0.00737556
0.00737502
0.00737443
0.00737378
0.00737308
0.00737231
0.00737147
0.00737056
0.00736958
0.00736852
0.00736739
0.00736619
0.00736492
0.00736359
0.00736214
0.00775481
0.00775641
0.00775788
0.00775929
0.00776062
0.00776187
0.00776304
0.00776413
0.00776514
0.00776607
0.00776692
0.00776771
0.00776843
0.00776908
0.00776967
0.00777021
0.00777069
0.00777113
0.00777152
0.00777186
0.00777217
0.00777243
0.00777266
0.00777286
0.00777303
0.00777316
0.00777327
0.00777335
0.0077734
0.00777343
0.00777343
0.0077734
0.00777335
0.00777327
0.00777316
0.00777303
0.00777286
0.00777266
0.00777243
0.00777217
0.00777186
0.00777152
0.00777113
0.00777069
0.00777021
0.00776967
0.00776908
0.00776843
0.00776771
0.00776692
0.00776607
0.00776514
0.00776413
0.00776304
0.00776187
0.00776062
0.00775929
0.00775788
0.00775641
0.00775481
0.00822686
0.00822865
0.00823031
0.00823189
0.00823339
0.0082348
0.00823612
0.00823734
0.00823848
0.00823953
0.00824049
0.00824137
0.00824218
0.00824292
0.00824359
0.00824419
0.00824474
0.00824523
0.00824567
0.00824606
0.0082464
0.0082467
0.00824696
0.00824718
0.00824737
0.00824752
0.00824764
0.00824773
0.00824779
0.00824782
0.00824782
0.00824779
0.00824773
0.00824764
0.00824752
0.00824737
0.00824718
0.00824696
0.0082467
0.0082464
0.00824606
0.00824567
0.00824523
0.00824474
0.00824419
0.00824359
0.00824292
0.00824218
0.00824137
0.00824049
0.00823953
0.00823848
0.00823734
0.00823612
0.0082348
0.00823339
0.00823189
0.00823031
0.00822865
0.00822686
0.00880531
0.00880736
0.00880926
0.00881107
0.00881279
0.00881441
0.00881592
0.00881733
0.00881863
0.00881983
0.00882094
0.00882196
0.00882288
0.00882373
0.0088245
0.00882519
0.00882582
0.00882638
0.00882689
0.00882733
0.00882773
0.00882807
0.00882837
0.00882863
0.00882884
0.00882902
0.00882916
0.00882926
0.00882933
0.00882936
0.00882936
0.00882933
0.00882926
0.00882916
0.00882902
0.00882884
0.00882863
0.00882837
0.00882807
0.00882773
0.00882733
0.00882689
0.00882638
0.00882582
0.00882519
0.0088245
0.00882373
0.00882288
0.00882196
0.00882094
0.00881983
0.00881863
0.00881733
0.00881592
0.00881441
0.00881279
0.00881107
0.00880926
0.00880736
0.00880531
0.00952956
0.00953195
0.00953417
0.0095363
0.00953832
0.00954022
0.009542
0.00954365
0.00954518
0.0095466
0.0095479
0.00954909
0.00955018
0.00955118
0.00955208
0.0095529
0.00955363
0.00955429
0.00955489
0.00955541
0.00955587
0.00955628
0.00955663
0.00955693
0.00955719
0.00955739
0.00955756
0.00955768
0.00955776
0.0095578
0.0095578
0.00955776
0.00955768
0.00955756
0.00955739
0.00955719
0.00955693
0.00955663
0.00955628
0.00955587
0.00955541
0.00955489
0.00955429
0.00955363
0.0095529
0.00955208
0.00955118
0.00955018
0.00954909
0.0095479
0.0095466
0.00954518
0.00954365
0.009542
0.00954022
0.00953832
0.0095363
0.00953417
0.00953195
0.00952956
0.0104568
0.0104597
0.0104623
0.0104649
0.0104673
0.0104696
0.0104718
0.0104738
0.0104756
0.0104773
0.0104789
0.0104803
0.0104816
0.0104828
0.0104839
0.0104849
0.0104858
0.0104866
0.0104873
0.0104879
0.0104885
0.010489
0.0104894
0.0104898
0.0104901
0.0104903
0.0104905
0.0104907
0.0104908
0.0104908
0.0104908
0.0104908
0.0104907
0.0104905
0.0104903
0.0104901
0.0104898
0.0104894
0.010489
0.0104885
0.0104879
0.0104873
0.0104866
0.0104858
0.0104849
0.0104839
0.0104828
0.0104816
0.0104803
0.0104789
0.0104773
0.0104756
0.0104738
0.0104718
0.0104696
0.0104673
0.0104649
0.0104623
0.0104597
0.0104568
0.0116675
0.011671
0.0116743
0.0116774
0.0116804
0.0116832
0.0116859
0.0116883
0.0116906
0.0116927
0.0116946
0.0116964
0.011698
0.0116995
0.0117009
0.0117021
0.0117032
0.0117042
0.011705
0.0117058
0.0117065
0.0117071
0.0117076
0.0117081
0.0117085
0.0117088
0.011709
0.0117092
0.0117093
0.0117094
0.0117094
0.0117093
0.0117092
0.011709
0.0117088
0.0117085
0.0117081
0.0117076
0.0117071
0.0117065
0.0117058
0.011705
0.0117042
0.0117032
0.0117021
0.0117009
0.0116995
0.011698
0.0116964
0.0116946
0.0116927
0.0116906
0.0116883
0.0116859
0.0116832
0.0116804
0.0116774
0.0116743
0.011671
0.0116675
0.0132667
0.0132711
0.0132752
0.0132791
0.0132829
0.0132864
0.0132898
0.0132928
0.0132957
0.0132983
0.0133008
0.013303
0.013305
0.0133069
0.0133086
0.0133101
0.0133115
0.0133127
0.0133138
0.0133148
0.0133157
0.0133164
0.0133171
0.0133177
0.0133181
0.0133185
0.0133188
0.0133191
0.0133192
0.0133193
0.0133193
0.0133192
0.0133191
0.0133188
0.0133185
0.0133181
0.0133177
0.0133171
0.0133164
0.0133157
0.0133148
0.0133138
0.0133127
0.0133115
0.0133101
0.0133086
0.0133069
0.013305
0.013303
0.0133008
0.0132983
0.0132957
0.0132928
0.0132898
0.0132864
0.0132829
0.0132791
0.0132752
0.0132711
0.0132667
0.015376
0.0153815
0.0153867
0.0153917
0.0153964
0.0154009
0.0154051
0.015409
0.0154126
0.0154159
0.015419
0.0154218
0.0154244
0.0154267
0.0154289
0.0154308
0.0154325
0.0154341
0.0154355
0.0154368
0.0154379
0.0154388
0.0154396
0.0154404
0.015441
0.0154414
0.0154418
0.0154421
0.0154423
0.0154424
0.0154424
0.0154423
0.0154421
0.0154418
0.0154414
0.015441
0.0154404
0.0154396
0.0154388
0.0154379
0.0154368
0.0154355
0.0154341
0.0154325
0.0154308
0.0154289
0.0154267
0.0154244
0.0154218
0.015419
0.0154159
0.0154126
0.015409
0.0154051
0.0154009
0.0153964
0.0153917
0.0153867
0.0153815
0.015376
0.0181099
0.0181168
0.0181233
0.0181296
0.0181355
0.0181411
0.0181463
0.0181512
0.0181557
0.0181599
0.0181638
0.0181673
0.0181705
0.0181735
0.0181761
0.0181785
0.0181807
0.0181827
0.0181844
0.018186
0.0181874
0.0181886
0.0181896
0.0181905
0.0181912
0.0181919
0.0181923
0.0181927
0.0181929
0.0181931
0.0181931
0.0181929
0.0181927
0.0181923
0.0181919
0.0181912
0.0181905
0.0181896
0.0181886
0.0181874
0.018186
0.0181844
0.0181827
0.0181807
0.0181785
0.0181761
0.0181735
0.0181705
0.0181673
0.0181638
0.0181599
0.0181557
0.0181512
0.0181463
0.0181411
0.0181355
0.0181296
0.0181233
0.0181168
0.0181099
0.021542
0.0215505
0.0215585
0.0215661
0.0215734
0.0215803
0.0215867
0.0215927
0.0215982
0.0216033
0.021608
0.0216123
0.0216163
0.0216199
0.0216232
0.0216261
0.0216288
0.0216312
0.0216333
0.0216352
0.0216369
0.0216384
0.0216397
0.0216407
0.0216417
0.0216424
0.021643
0.0216434
0.0216437
0.0216439
0.0216439
0.0216437
0.0216434
0.021643
0.0216424
0.0216417
0.0216407
0.0216397
0.0216384
0.0216369
0.0216352