/*--------------------------------*- C++ -*----------------------------------*\
| =========                 |                                                 |
| \\      /  F ield         | foam-extend: Open Source CFD                    |
|  \\    /   O peration     | Version:     4.0                                |
|   \\  /    A nd           | Web:         http://www.foam-extend.org         |
|    \\/     M anipulation  |                                                 |
\*---------------------------------------------------------------------------*/
FoamFile
{
    version     2.0;
    format      ascii;
    class       volScalarField;
    location    "1110";
    object      psiE;
}
// * * * * * * * * * * * * * * * * * * * * * * * * * * * * * * * * * * * * * //

dimensions      [0 0 0 0 0 0 0];

internalField   nonuniform List<scalar> 
6960
(
0.36157
0.361587
0.361604
0.361619
0.361632
0.361642
0.361651
0.361657
0.361662
0.361666
0.361669
0.361672
0.361673
0.361675
0.361676
0.361677
0.361678
0.361678
0.361679
0.361679
0.36168
0.36168
0.36168
0.36168
0.361681
0.361681
0.361681
0.361681
0.361681
0.361681
0.361681
0.361681
0.361681
0.361681
0.361681
0.361681
0.36168
0.36168
0.36168
0.36168
0.361679
0.361679
0.361678
0.361678
0.361677
0.361676
0.361675
0.361673
0.361672
0.361669
0.361666
0.361662
0.361657
0.361651
0.361642
0.361632
0.361619
0.361604
0.361587
0.36157
0.944025
0.944091
0.944161
0.944223
0.944274
0.944316
0.944349
0.944375
0.944395
0.944411
0.944423
0.944433
0.94444
0.944446
0.94445
0.944454
0.944457
0.944459
0.944461
0.944463
0.944464
0.944465
0.944466
0.944467
0.944467
0.944468
0.944468
0.944468
0.944468
0.944469
0.944469
0.944468
0.944468
0.944468
0.944468
0.944467
0.944467
0.944466
0.944465
0.944464
0.944463
0.944461
0.944459
0.944457
0.944454
0.94445
0.944446
0.94444
0.944433
0.944423
0.944411
0.944395
0.944375
0.944349
0.944316
0.944274
0.944223
0.944161
0.944091
0.944025
1.4988
1.49893
1.49906
1.49918
1.49928
1.49936
1.49942
1.49947
1.49951
1.49954
1.49956
1.49958
1.4996
1.49961
1.49962
1.49962
1.49963
1.49963
1.49964
1.49964
1.49964
1.49964
1.49965
1.49965
1.49965
1.49965
1.49965
1.49965
1.49965
1.49965
1.49965
1.49965
1.49965
1.49965
1.49965
1.49965
1.49965
1.49965
1.49964
1.49964
1.49964
1.49964
1.49963
1.49963
1.49962
1.49962
1.49961
1.4996
1.49958
1.49956
1.49954
1.49951
1.49947
1.49942
1.49936
1.49928
1.49918
1.49906
1.49893
1.4988
2.05288
2.05307
2.05328
2.05346
2.05361
2.05373
2.05383
2.0539
2.05396
2.05401
2.05404
2.05407
2.05409
2.05411
2.05412
2.05413
2.05414
2.05415
2.05415
2.05416
2.05416
2.05416
2.05417
2.05417
2.05417
2.05417
2.05417
2.05417
2.05417
2.05417
2.05417
2.05417
2.05417
2.05417
2.05417
2.05417
2.05417
2.05417
2.05416
2.05416
2.05416
2.05415
2.05415
2.05414
2.05413
2.05412
2.05411
2.05409
2.05407
2.05404
2.05401
2.05396
2.0539
2.05383
2.05373
2.05361
2.05346
2.05328
2.05307
2.05288
2.6142
2.61447
2.61475
2.61499
2.6152
2.61536
2.61549
2.61559
2.61568
2.61574
2.61579
2.61582
2.61585
2.61588
2.61589
2.61591
2.61592
2.61593
2.61593
2.61594
2.61595
2.61595
2.61595
2.61595
2.61596
2.61596
2.61596
2.61596
2.61596
2.61596
2.61596
2.61596
2.61596
2.61596
2.61596
2.61596
2.61595
2.61595
2.61595
2.61595
2.61594
2.61593
2.61593
2.61592
2.61591
2.61589
2.61588
2.61585
2.61582
2.61579
2.61574
2.61568
2.61559
2.61549
2.61536
2.6152
2.61499
2.61475
2.61447
2.6142
3.18508
3.18541
3.18576
3.18608
3.18633
3.18654
3.18671
3.18684
3.18694
3.18702
3.18708
3.18713
3.18717
3.1872
3.18722
3.18724
3.18725
3.18726
3.18727
3.18728
3.18729
3.18729
3.18729
3.1873
3.1873
3.1873
3.1873
3.18731
3.18731
3.18731
3.18731
3.18731
3.18731
3.1873
3.1873
3.1873
3.1873
3.18729
3.18729
3.18729
3.18728
3.18727
3.18726
3.18725
3.18724
3.18722
3.1872
3.18717
3.18713
3.18708
3.18702
3.18694
3.18684
3.18671
3.18654
3.18633
3.18608
3.18576
3.18541
3.18508
3.76607
3.76647
3.7669
3.76728
3.7676
3.76785
3.76805
3.76821
3.76834
3.76843
3.76851
3.76856
3.76861
3.76864
3.76867
3.76869
3.76871
3.76872
3.76874
3.76874
3.76875
3.76876
3.76876
3.76877
3.76877
3.76877
3.76877
3.76877
3.76878
3.76878
3.76878
3.76878
3.76877
3.76877
3.76877
3.76877
3.76877
3.76876
3.76876
3.76875
3.76874
3.76874
3.76872
3.76871
3.76869
3.76867
3.76864
3.76861
3.76856
3.76851
3.76843
3.76834
3.76821
3.76805
3.76785
3.7676
3.76728
3.7669
3.76647
3.76607
4.35721
4.35769
4.35819
4.35864
4.35901
4.35931
4.35954
4.35973
4.35988
4.35999
4.36008
4.36015
4.3602
4.36024
4.36027
4.3603
4.36032
4.36033
4.36035
4.36036
4.36037
4.36037
4.36038
4.36038
4.36039
4.36039
4.36039
4.36039
4.3604
4.3604
4.3604
4.3604
4.36039
4.36039
4.36039
4.36039
4.36038
4.36038
4.36037
4.36037
4.36036
4.36035
4.36033
4.36032
4.3603
4.36027
4.36024
4.3602
4.36015
4.36008
4.35999
4.35988
4.35973
4.35954
4.35931
4.35901
4.35864
4.35819
4.35769
4.35721
4.95834
4.95889
4.95947
4.95998
4.9604
4.96075
4.96102
4.96124
4.9614
4.96153
4.96164
4.96171
4.96177
4.96182
4.96186
4.96189
4.96191
4.96193
4.96195
4.96196
4.96197
4.96198
4.96198
4.96199
4.96199
4.962
4.962
4.962
4.962
4.962
4.962
4.962
4.962
4.962
4.962
4.96199
4.96199
4.96198
4.96198
4.96197
4.96196
4.96195
4.96193
4.96191
4.96189
4.96186
4.96182
4.96177
4.96171
4.96164
4.96153
4.9614
4.96124
4.96102
4.96075
4.9604
4.95998
4.95947
4.95889
4.95834
5.5692
5.56981
5.57047
5.57105
5.57153
5.57192
5.57223
5.57247
5.57266
5.57281
5.57292
5.57301
5.57308
5.57313
5.57318
5.57321
5.57324
5.57326
5.57327
5.57329
5.5733
5.57331
5.57332
5.57332
5.57333
5.57333
5.57333
5.57334
5.57334
5.57334
5.57334
5.57334
5.57334
5.57333
5.57333
5.57333
5.57332
5.57332
5.57331
5.5733
5.57329
5.57327
5.57326
5.57324
5.57321
5.57318
5.57313
5.57308
5.57301
5.57292
5.57281
5.57266
5.57247
5.57223
5.57192
5.57153
5.57105
5.57047
5.56981
5.5692
6.18947
6.19015
6.19088
6.19153
6.19206
6.1925
6.19284
6.19311
6.19332
6.19349
6.19362
6.19371
6.19379
6.19385
6.1939
6.19394
6.19397
6.19399
6.19401
6.19402
6.19404
6.19405
6.19405
6.19406
6.19407
6.19407
6.19407
6.19408
6.19408
6.19408
6.19408
6.19408
6.19408
6.19407
6.19407
6.19407
6.19406
6.19405
6.19405
6.19404
6.19402
6.19401
6.19399
6.19397
6.19394
6.1939
6.19385
6.19379
6.19371
6.19362
6.19349
6.19332
6.19311
6.19284
6.1925
6.19206
6.19153
6.19088
6.19015
6.18947
6.81876
6.81951
6.82031
6.82102
6.82161
6.82209
6.82247
6.82277
6.823
6.82318
6.82332
6.82343
6.82352
6.82359
6.82364
6.82368
6.82371
6.82374
6.82376
6.82378
6.82379
6.8238
6.82381
6.82382
6.82382
6.82383
6.82383
6.82383
6.82384
6.82384
6.82384
6.82384
6.82383
6.82383
6.82383
6.82382
6.82382
6.82381
6.8238
6.82379
6.82378
6.82376
6.82374
6.82371
6.82368
6.82364
6.82359
6.82352
6.82343
6.82332
6.82318
6.823
6.82277
6.82247
6.82209
6.82161
6.82102
6.82031
6.81951
6.81876
7.4566
7.45742
7.4583
7.45907
7.45972
7.46024
7.46066
7.46098
7.46124
7.46143
7.46159
7.46171
7.4618
7.46187
7.46193
7.46198
7.46201
7.46204
7.46206
7.46208
7.4621
7.46211
7.46212
7.46213
7.46213
7.46214
7.46214
7.46215
7.46215
7.46215
7.46215
7.46215
7.46215
7.46214
7.46214
7.46213
7.46213
7.46212
7.46211
7.4621
7.46208
7.46206
7.46204
7.46201
7.46198
7.46193
7.46187
7.4618
7.46171
7.46159
7.46143
7.46124
7.46098
7.46066
7.46024
7.45972
7.45907
7.4583
7.45742
7.4566
8.10247
8.10335
8.1043
8.10514
8.10584
8.10641
8.10686
8.10721
8.10748
8.1077
8.10787
8.10799
8.1081
8.10817
8.10824
8.10828
8.10832
8.10835
8.10838
8.1084
8.10842
8.10843
8.10844
8.10845
8.10846
8.10846
8.10847
8.10847
8.10847
8.10847
8.10847
8.10847
8.10847
8.10847
8.10846
8.10846
8.10845
8.10844
8.10843
8.10842
8.1084
8.10838
8.10835
8.10832
8.10828
8.10824
8.10817
8.1081
8.10799
8.10787
8.1077
8.10748
8.10721
8.10686
8.10641
8.10584
8.10514
8.1043
8.10335
8.10247
8.75573
8.75667
8.75769
8.7586
8.75935
8.75995
8.76044
8.76082
8.76111
8.76134
8.76152
8.76166
8.76177
8.76186
8.76192
8.76198
8.76202
8.76205
8.76208
8.7621
8.76212
8.76213
8.76214
8.76215
8.76216
8.76217
8.76217
8.76218
8.76218
8.76218
8.76218
8.76218
8.76218
8.76217
8.76217
8.76216
8.76215
8.76214
8.76213
8.76212
8.7621
8.76208
8.76205
8.76202
8.76198
8.76192
8.76186
8.76177
8.76166
8.76152
8.76134
8.76111
8.76082
8.76044
8.75995
8.75935
8.7586
8.75769
8.75667
8.75573
9.41564
9.41665
9.41774
9.41871
9.41951
9.42015
9.42067
9.42107
9.42139
9.42164
9.42183
9.42198
9.42209
9.42219
9.42226
9.42231
9.42236
9.42239
9.42242
9.42245
9.42247
9.42248
9.42249
9.4225
9.42251
9.42252
9.42252
9.42253
9.42253
9.42253
9.42253
9.42253
9.42253
9.42252
9.42252
9.42251
9.4225
9.42249
9.42248
9.42247
9.42245
9.42242
9.42239
9.42236
9.42231
9.42226
9.42219
9.42209
9.42198
9.42183
9.42164
9.42139
9.42107
9.42067
9.42015
9.41951
9.41871
9.41774
9.41665
9.41564
10.0814
10.0824
10.0836
10.0846
10.0855
10.0862
10.0867
10.0871
10.0875
10.0877
10.0879
10.0881
10.0882
10.0883
10.0884
10.0885
10.0885
10.0885
10.0886
10.0886
10.0886
10.0886
10.0886
10.0887
10.0887
10.0887
10.0887
10.0887
10.0887
10.0887
10.0887
10.0887
10.0887
10.0887
10.0887
10.0887
10.0887
10.0886
10.0886
10.0886
10.0886
10.0886
10.0885
10.0885
10.0885
10.0884
10.0883
10.0882
10.0881
10.0879
10.0877
10.0875
10.0871
10.0867
10.0862
10.0855
10.0846
10.0836
10.0824
10.0814
10.7519
10.7531
10.7543
10.7554
10.7563
10.757
10.7576
10.758
10.7584
10.7587
10.7589
10.759
10.7592
10.7593
10.7593
10.7594
10.7595
10.7595
10.7595
10.7596
10.7596
10.7596
10.7596
10.7596
10.7596
10.7596
10.7596
10.7597
10.7597
10.7597
10.7597
10.7597
10.7597
10.7596
10.7596
10.7596
10.7596
10.7596
10.7596
10.7596
10.7596
10.7595
10.7595
10.7595
10.7594
10.7593
10.7593
10.7592
10.759
10.7589
10.7587
10.7584
10.758
10.7576
10.757
10.7563
10.7554
10.7543
10.7531
10.7519
11.4262
11.4274
11.4287
11.4298
11.4308
11.4315
11.4321
11.4326
11.433
11.4333
11.4335
11.4337
11.4338
11.4339
11.434
11.4341
11.4341
11.4342
11.4342
11.4342
11.4342
11.4343
11.4343
11.4343
11.4343
11.4343
11.4343
11.4343
11.4343
11.4343
11.4343
11.4343
11.4343
11.4343
11.4343
11.4343
11.4343
11.4343
11.4343
11.4342
11.4342
11.4342
11.4342
11.4341
11.4341
11.434
11.4339
11.4338
11.4337
11.4335
11.4333
11.433
11.4326
11.4321
11.4315
11.4308
11.4298
11.4287
11.4274
11.4262
12.1029
12.1042
12.1055
12.1067
12.1077
12.1085
12.1091
12.1096
12.11
12.1103
12.1105
12.1107
12.1108
12.111
12.111
12.1111
12.1112
12.1112
12.1113
12.1113
12.1113
12.1113
12.1113
12.1114
12.1114
12.1114
12.1114
12.1114
12.1114
12.1114
12.1114
12.1114
12.1114
12.1114
12.1114
12.1114
12.1114
12.1113
12.1113
12.1113
12.1113
12.1113
12.1112
12.1112
12.1111
12.111
12.111
12.1108
12.1107
12.1105
12.1103
12.11
12.1096
12.1091
12.1085
12.1077
12.1067
12.1055
12.1042
12.1029
12.7806
12.7818
12.7832
12.7845
12.7855
12.7863
12.787
12.7875
12.7879
12.7882
12.7884
12.7886
12.7888
12.7889
12.789
12.7891
12.7891
12.7892
12.7892
12.7892
12.7893
12.7893
12.7893
12.7893
12.7893
12.7893
12.7894
12.7894
12.7894
12.7894
12.7894
12.7894
12.7894
12.7894
12.7893
12.7893
12.7893
12.7893
12.7893
12.7893
12.7892
12.7892
12.7892
12.7891
12.7891
12.789
12.7889
12.7888
12.7886
12.7884
12.7882
12.7879
12.7875
12.787
12.7863
12.7855
12.7845
12.7832
12.7818
12.7806
13.4574
13.4587
13.4602
13.4614
13.4625
13.4633
13.464
13.4646
13.465
13.4653
13.4656
13.4658
13.4659
13.466
13.4661
13.4662
13.4663
13.4663
13.4664
13.4664
13.4664
13.4664
13.4665
13.4665
13.4665
13.4665
13.4665
13.4665
13.4665
13.4665
13.4665
13.4665
13.4665
13.4665
13.4665
13.4665
13.4665
13.4665
13.4664
13.4664
13.4664
13.4664
13.4663
13.4663
13.4662
13.4661
13.466
13.4659
13.4658
13.4656
13.4653
13.465
13.4646
13.464
13.4633
13.4625
13.4614
13.4602
13.4587
13.4574
14.1315
14.1329
14.1344
14.1357
14.1367
14.1376
14.1383
14.1389
14.1393
14.1396
14.1399
14.1401
14.1403
14.1404
14.1405
14.1406
14.1406
14.1407
14.1407
14.1407
14.1408
14.1408
14.1408
14.1408
14.1408
14.1409
14.1409
14.1409
14.1409
14.1409
14.1409
14.1409
14.1409
14.1409
14.1409
14.1408
14.1408
14.1408
14.1408
14.1408
14.1407
14.1407
14.1407
14.1406
14.1406
14.1405
14.1404
14.1403
14.1401
14.1399
14.1396
14.1393
14.1389
14.1383
14.1376
14.1367
14.1357
14.1344
14.1329
14.1315
14.8006
14.802
14.8035
14.8048
14.8059
14.8068
14.8075
14.8081
14.8085
14.8089
14.8091
14.8093
14.8095
14.8096
14.8097
14.8098
14.8099
14.8099
14.81
14.81
14.81
14.8101
14.8101
14.8101
14.8101
14.8101
14.8101
14.8101
14.8101
14.8101
14.8101
14.8101
14.8101
14.8101
14.8101
14.8101
14.8101
14.8101
14.8101
14.81
14.81
14.81
14.8099
14.8099
14.8098
14.8097
14.8096
14.8095
14.8093
14.8091
14.8089
14.8085
14.8081
14.8075
14.8068
14.8059
14.8048
14.8035
14.802
14.8006
15.4619
15.4633
15.4649
15.4662
15.4673
15.4682
15.469
15.4695
15.47
15.4703
15.4706
15.4708
15.471
15.4711
15.4712
15.4713
15.4714
15.4714
15.4715
15.4715
15.4715
15.4716
15.4716
15.4716
15.4716
15.4716
15.4716
15.4716
15.4716
15.4716
15.4716
15.4716
15.4716
15.4716
15.4716
15.4716
15.4716
15.4716
15.4716
15.4715
15.4715
15.4715
15.4714
15.4714
15.4713
15.4712
15.4711
15.471
15.4708
15.4706
15.4703
15.47
15.4695
15.469
15.4682
15.4673
15.4662
15.4649
15.4633
15.4619
16.1125
16.1139
16.1155
16.1168
16.1179
16.1189
16.1196
16.1202
16.1206
16.121
16.1212
16.1215
16.1216
16.1218
16.1219
16.122
16.122
16.1221
16.1221
16.1222
16.1222
16.1222
16.1222
16.1223
16.1223
16.1223
16.1223
16.1223
16.1223
16.1223
16.1223
16.1223
16.1223
16.1223
16.1223
16.1223
16.1223
16.1222
16.1222
16.1222
16.1222
16.1221
16.1221
16.122
16.122
16.1219
16.1218
16.1216
16.1215
16.1212
16.121
16.1206
16.1202
16.1196
16.1189
16.1179
16.1168
16.1155
16.1139
16.1125
16.7486
16.7501
16.7516
16.7529
16.7541
16.755
16.7557
16.7563
16.7567
16.7571
16.7574
16.7576
16.7578
16.7579
16.758
16.7581
16.7582
16.7582
16.7583
16.7583
16.7583
16.7584
16.7584
16.7584
16.7584
16.7584
16.7584
16.7584
16.7584
16.7584
16.7584
16.7584
16.7584
16.7584
16.7584
16.7584
16.7584
16.7584
16.7584
16.7583
16.7583
16.7583
16.7582
16.7582
16.7581
16.758
16.7579
16.7578
16.7576
16.7574
16.7571
16.7567
16.7563
16.7557
16.755
16.7541
16.7529
16.7516
16.7501
16.7486
17.366
17.3675
17.369
17.3703
17.3714
17.3723
17.373
17.3736
17.3741
17.3744
17.3747
17.3749
17.3751
17.3752
17.3753
17.3754
17.3755
17.3755
17.3756
17.3756
17.3756
17.3757
17.3757
17.3757
17.3757
17.3757
17.3757
17.3758
17.3758
17.3758
17.3758
17.3758
17.3758
17.3757
17.3757
17.3757
17.3757
17.3757
17.3757
17.3756
17.3756
17.3756
17.3755
17.3755
17.3754
17.3753
17.3752
17.3751
17.3749
17.3747
17.3744
17.3741
17.3736
17.373
17.3723
17.3714
17.3703
17.369
17.3675
17.366
17.9596
17.961
17.9625
17.9638
17.9649
17.9657
17.9664
17.967
17.9674
17.9678
17.968
17.9683
17.9684
17.9686
17.9687
17.9688
17.9688
17.9689
17.9689
17.969
17.969
17.969
17.969
17.9691
17.9691
17.9691
17.9691
17.9691
17.9691
17.9691
17.9691
17.9691
17.9691
17.9691
17.9691
17.9691
17.9691
17.969
17.969
17.969
17.969
17.9689
17.9689
17.9688
17.9688
17.9687
17.9686
17.9684
17.9683
17.968
17.9678
17.9674
17.967
17.9664
17.9657
17.9649
17.9638
17.9625
17.961
17.9596
18.5232
18.5245
18.526
18.5272
18.5282
18.5291
18.5297
18.5303
18.5307
18.531
18.5313
18.5315
18.5317
18.5318
18.5319
18.532
18.5321
18.5321
18.5322
18.5322
18.5322
18.5323
18.5323
18.5323
18.5323
18.5323
18.5323
18.5323
18.5323
18.5324
18.5324
18.5323
18.5323
18.5323
18.5323
18.5323
18.5323
18.5323
18.5323
18.5322
18.5322
18.5322
18.5321
18.5321
18.532
18.5319
18.5318
18.5317
18.5315
18.5313
18.531
18.5307
18.5303
18.5297
18.5291
18.5282
18.5272
18.526
18.5245
18.5232
19.0495
19.0508
19.0521
19.0533
19.0543
19.055
19.0557
19.0562
19.0566
19.0569
19.0571
19.0573
19.0575
19.0576
19.0577
19.0578
19.0579
19.0579
19.058
19.058
19.058
19.0581
19.0581
19.0581
19.0581
19.0581
19.0581
19.0582
19.0582
19.0582
19.0582
19.0582
19.0582
19.0581
19.0581
19.0581
19.0581
19.0581
19.0581
19.058
19.058
19.058
19.0579
19.0579
19.0578
19.0577
19.0576
19.0575
19.0573
19.0571
19.0569
19.0566
19.0562
19.0557
19.055
19.0543
19.0533
19.0521
19.0508
19.0495
19.5303
19.5315
19.5327
19.5337
19.5346
19.5353
19.5359
19.5363
19.5367
19.537
19.5372
19.5374
19.5375
19.5377
19.5378
19.5378
19.5379
19.538
19.538
19.538
19.5381
19.5381
19.5381
19.5381
19.5382
19.5382
19.5382
19.5382
19.5382
19.5382
19.5382
19.5382
19.5382
19.5382
19.5382
19.5382
19.5381
19.5381
19.5381
19.5381
19.538
19.538
19.538
19.5379
19.5378
19.5378
19.5377
19.5375
19.5374
19.5372
19.537
19.5367
19.5363
19.5359
19.5353
19.5346
19.5337
19.5327
19.5315
19.5303
19.9569
19.9579
19.9589
19.9599
19.9606
19.9613
19.9618
19.9622
19.9625
19.9627
19.963
19.9631
19.9633
19.9634
19.9635
19.9635
19.9636
19.9636
19.9637
19.9637
19.9637
19.9638
19.9638
19.9638
19.9638
19.9638
19.9639
19.9639
19.9639
19.9639
19.9639
19.9639
19.9639
19.9639
19.9638
19.9638
19.9638
19.9638
19.9638
19.9637
19.9637
19.9637
19.9636
19.9636
19.9635
19.9635
19.9634
19.9633
19.9631
19.963
19.9627
19.9625
19.9622
19.9618
19.9613
19.9606
19.9599
19.9589
19.9579
19.9569
20.3223
20.3231
20.324
20.3248
20.3254
20.3259
20.3264
20.3267
20.327
20.3272
20.3274
20.3275
20.3276
20.3277
20.3278
20.3279
20.3279
20.328
20.328
20.3281
20.3281
20.3281
20.3281
20.3282
20.3282
20.3282
20.3282
20.3282
20.3282
20.3282
20.3282
20.3282
20.3282
20.3282
20.3282
20.3282
20.3282
20.3281
20.3281
20.3281
20.3281
20.328
20.328
20.3279
20.3279
20.3278
20.3277
20.3276
20.3275
20.3274
20.3272
20.327
20.3267
20.3264
20.3259
20.3254
20.3248
20.324
20.3231
20.3223
20.6238
20.6244
20.6251
20.6257
20.6262
20.6266
20.6269
20.6272
20.6275
20.6276
20.6278
20.6279
20.628
20.6281
20.6282
20.6282
20.6283
20.6283
20.6284
20.6284
20.6284
20.6285
20.6285
20.6285
20.6285
20.6285
20.6285
20.6285
20.6285
20.6285
20.6285
20.6285
20.6285
20.6285
20.6285
20.6285
20.6285
20.6285
20.6285
20.6284
20.6284
20.6284
20.6283
20.6283
20.6282
20.6282
20.6281
20.628
20.6279
20.6278
20.6276
20.6275
20.6272
20.6269
20.6266
20.6262
20.6257
20.6251
20.6244
20.6238
20.8647
20.8651
20.8656
20.8661
20.8664
20.8668
20.867
20.8672
20.8674
20.8676
20.8677
20.8678
20.8679
20.868
20.868
20.8681
20.8681
20.8682
20.8682
20.8682
20.8683
20.8683
20.8683
20.8683
20.8683
20.8684
20.8684
20.8684
20.8684
20.8684
20.8684
20.8684
20.8684
20.8684
20.8684
20.8683
20.8683
20.8683
20.8683
20.8683
20.8682
20.8682
20.8682
20.8681
20.8681
20.868
20.868
20.8679
20.8678
20.8677
20.8676
20.8674
20.8672
20.867
20.8668
20.8664
20.8661
20.8656
20.8651
20.8647
21.0539
21.0542
21.0546
21.0549
21.0552
21.0554
21.0556
21.0558
21.0559
21.0561
21.0562
21.0563
21.0563
21.0564
21.0565
21.0565
21.0565
21.0566
21.0566
21.0567
21.0567
21.0567
21.0567
21.0567
21.0568
21.0568
21.0568
21.0568
21.0568
21.0568
21.0568
21.0568
21.0568
21.0568
21.0568
21.0568
21.0567
21.0567
21.0567
21.0567
21.0567
21.0566
21.0566
21.0565
21.0565
21.0565
21.0564
21.0563
21.0563
21.0562
21.0561
21.0559
21.0558
21.0556
21.0554
21.0552
21.0549
21.0546
21.0542
21.0539
21.2033
21.2035
21.2037
21.204
21.2042
21.2043
21.2045
21.2046
21.2047
21.2048
21.2049
21.205
21.2051
21.2051
21.2052
21.2052
21.2053
21.2053
21.2054
21.2054
21.2054
21.2054
21.2055
21.2055
21.2055
21.2055
21.2055
21.2055
21.2055
21.2055
21.2055
21.2055
21.2055
21.2055
21.2055
21.2055
21.2055
21.2055
21.2054
21.2054
21.2054
21.2054
21.2053
21.2053
21.2052
21.2052
21.2051
21.2051
21.205
21.2049
21.2048
21.2047
21.2046
21.2045
21.2043
21.2042
21.204
21.2037
21.2035
21.2033
21.3239
21.324
21.3241
21.3243
21.3245
21.3246
21.3247
21.3248
21.3249
21.325
21.3251
21.3252
21.3252
21.3253
21.3253
21.3254
21.3254
21.3254
21.3255
21.3255
21.3255
21.3256
21.3256
21.3256
21.3256
21.3256
21.3256
21.3256
21.3256
21.3257
21.3257
21.3256
21.3256
21.3256
21.3256
21.3256
21.3256
21.3256
21.3256
21.3255
21.3255
21.3255
21.3254
21.3254
21.3254
21.3253
21.3253
21.3252
21.3252
21.3251
21.325
21.3249
21.3248
21.3247
21.3246
21.3245
21.3243
21.3241
21.324
21.3239
21.4244
21.4244
21.4246
21.4247
21.4248
21.4249
21.425
21.4251
21.4252
21.4252
21.4253
21.4254
21.4254
21.4255
21.4255
21.4256
21.4256
21.4256
21.4257
21.4257
21.4257
21.4258
21.4258
21.4258
21.4258
21.4258
21.4258
21.4258
21.4259
21.4259
21.4259
21.4259
21.4258
21.4258
21.4258
21.4258
21.4258
21.4258
21.4258
21.4257
21.4257
21.4257
21.4256
21.4256
21.4256
21.4255
21.4255
21.4254
21.4254
21.4253
21.4252
21.4252
21.4251
21.425
21.4249
21.4248
21.4247
21.4246
21.4244
21.4244
21.5108
21.5109
21.511
21.5111
21.5111
21.5112
21.5113
21.5114
21.5115
21.5115
21.5116
21.5116
21.5117
21.5118
21.5118
21.5118
21.5119
21.5119
21.512
21.512
21.512
21.512
21.5121
21.5121
21.5121
21.5121
21.5121
21.5121
21.5121
21.5121
21.5121
21.5121
21.5121
21.5121
21.5121
21.5121
21.5121
21.5121
21.512
21.512
21.512
21.512
21.5119
21.5119
21.5118
21.5118
21.5118
21.5117
21.5116
21.5116
21.5115
21.5115
21.5114
21.5113
21.5112
21.5111
21.5111
21.511
21.5109
21.5108
21.5873
21.5873
21.5873
21.5874
21.5875
21.5875
21.5876
21.5877
21.5877
21.5878
21.5879
21.5879
21.588
21.588
21.5881
21.5881
21.5882
21.5882
21.5882
21.5883
21.5883
21.5883
21.5883
21.5884
21.5884
21.5884
21.5884
21.5884
21.5884
21.5884
21.5884
21.5884
21.5884
21.5884
21.5884
21.5884
21.5884
21.5883
21.5883
21.5883
21.5883
21.5882
21.5882
21.5882
21.5881
21.5881
21.588
21.588
21.5879
21.5879
21.5878
21.5877
21.5877
21.5876
21.5875
21.5875
21.5874
21.5873
21.5873
21.5873
21.6562
21.6562
21.6562
21.6563
21.6563
21.6564
21.6564
21.6565
21.6566
21.6566
21.6567
21.6567
21.6568
21.6568
21.6569
21.6569
21.657
21.657
21.657
21.6571
21.6571
21.6571
21.6571
21.6572
21.6572
21.6572
21.6572
21.6572
21.6572
21.6572
21.6572
21.6572
21.6572
21.6572
21.6572
21.6572
21.6572
21.6571
21.6571
21.6571
21.6571
21.657
21.657
21.657
21.6569
21.6569
21.6568
21.6568
21.6567
21.6567
21.6566
21.6566
21.6565
21.6564
21.6564
21.6563
21.6563
21.6562
21.6562
21.6562
21.7193
21.7193
21.7193
21.7193
21.7194
21.7194
21.7195
21.7195
21.7196
21.7196
21.7197
21.7197
21.7198
21.7198
21.7199
21.7199
21.72
21.72
21.7201
21.7201
21.7201
21.7201
21.7202
21.7202
21.7202
21.7202
21.7202
21.7202
21.7202
21.7202
21.7202
21.7202
21.7202
21.7202
21.7202
21.7202
21.7202
21.7202
21.7201
21.7201
21.7201
21.7201
21.72
21.72
21.7199
21.7199
21.7198
21.7198
21.7197
21.7197
21.7196
21.7196
21.7195
21.7195
21.7194
21.7194
21.7193
21.7193
21.7193
21.7193
21.7777
21.7777
21.7777
21.7778
21.7778
21.7778
21.7779
21.7779
21.778
21.778
21.7781
21.7782
21.7782
21.7783
21.7783
21.7783
21.7784
21.7784
21.7785
21.7785
21.7785
21.7786
21.7786
21.7786
21.7786
21.7786
21.7786
21.7787
21.7787
21.7787
21.7787
21.7787
21.7787
21.7786
21.7786
21.7786
21.7786
21.7786
21.7786
21.7785
21.7785
21.7785
21.7784
21.7784
21.7783
21.7783
21.7783
21.7782
21.7782
21.7781
21.778
21.778
21.7779
21.7779
21.7778
21.7778
21.7778
21.7777
21.7777
21.7777
21.8324
21.8324
21.8324
21.8324
21.8325
21.8325
21.8325
21.8326
21.8326
21.8327
21.8327
21.8328
21.8328
21.8329
21.8329
21.833
21.833
21.8331
21.8331
21.8331
21.8332
21.8332
21.8332
21.8333
21.8333
21.8333
21.8333
21.8333
21.8333
21.8333
21.8333
21.8333
21.8333
21.8333
21.8333
21.8333
21.8333
21.8332
21.8332
21.8332
21.8331
21.8331
21.8331
21.833
21.833
21.8329
21.8329
21.8328
21.8328
21.8327
21.8327
21.8326
21.8326
21.8325
21.8325
21.8325
21.8324
21.8324
21.8324
21.8324
21.884
21.884
21.884
21.884
21.884
21.884
21.8841
21.8841
21.8842
21.8842
21.8843
21.8843
21.8844
21.8844
21.8845
21.8845
21.8846
21.8846
21.8846
21.8847
21.8847
21.8847
21.8848
21.8848
21.8848
21.8848
21.8848
21.8848
21.8849
21.8849
21.8849
21.8849
21.8848
21.8848
21.8848
21.8848
21.8848
21.8848
21.8847
21.8847
21.8847
21.8846
21.8846
21.8846
21.8845
21.8845
21.8844
21.8844
21.8843
21.8843
21.8842
21.8842
21.8841
21.8841
21.884
21.884
21.884
21.884
21.884
21.884
21.9329
21.9329
21.9329
21.9329
21.9329
21.933
21.933
21.933
21.9331
21.9331
21.9332
21.9332
21.9333
21.9333
21.9334
21.9334
21.9335
21.9335
21.9336
21.9336
21.9336
21.9337
21.9337
21.9337
21.9337
21.9337
21.9338
21.9338
21.9338
21.9338
21.9338
21.9338
21.9338
21.9338
21.9337
21.9337
21.9337
21.9337
21.9337
21.9336
21.9336
21.9336
21.9335
21.9335
21.9334
21.9334
21.9333
21.9333
21.9332
21.9332
21.9331
21.9331
21.933
21.933
21.933
21.9329
21.9329
21.9329
21.9329
21.9329
21.9796
21.9796
21.9796
21.9796
21.9796
21.9796
21.9797
21.9797
21.9798
21.9798
21.9799
21.9799
21.98
21.98
21.9801
21.9801
21.9802
21.9802
21.9803
21.9803
21.9803
21.9804
21.9804
21.9804
21.9804
21.9804
21.9805
21.9805
21.9805
21.9805
21.9805
21.9805
21.9805
21.9805
21.9804
21.9804
21.9804
21.9804
21.9804
21.9803
21.9803
21.9803
21.9802
21.9802
21.9801
21.9801
21.98
21.98
21.9799
21.9799
21.9798
21.9798
21.9797
21.9797
21.9796
21.9796
21.9796
21.9796
21.9796
21.9796
22.0244
22.0244
22.0244
22.0244
22.0244
22.0244
22.0245
22.0245
22.0245
22.0246
22.0246
22.0247
22.0247
22.0248
22.0249
22.0249
22.0249
22.025
22.025
22.0251
22.0251
22.0251
22.0252
22.0252
22.0252
22.0252
22.0252
22.0253
22.0253
22.0253
22.0253
22.0253
22.0253
22.0252
22.0252
22.0252
22.0252
22.0252
22.0251
22.0251
22.0251
22.025
22.025
22.0249
22.0249
22.0249
22.0248
22.0247
22.0247
22.0246
22.0246
22.0245
22.0245
22.0245
22.0244
22.0244
22.0244
22.0244
22.0244
22.0244
22.0676
22.0675
22.0675
22.0675
22.0675
22.0676
22.0676
22.0676
22.0677
22.0677
22.0678
22.0678
22.0679
22.0679
22.068
22.068
22.0681
22.0681
22.0682
22.0682
22.0683
22.0683
22.0683
22.0683
22.0684
22.0684
22.0684
22.0684
22.0684
22.0684
22.0684
22.0684
22.0684
22.0684
22.0684
22.0684
22.0683
22.0683
22.0683
22.0683
22.0682
22.0682
22.0681
22.0681
22.068
22.068
22.0679
22.0679
22.0678
22.0678
22.0677
22.0677
22.0676
22.0676
22.0676
22.0675
22.0675
22.0675
22.0675
22.0676
22.1093
22.1093
22.1092
22.1092
22.1092
22.1093
22.1093
22.1093
22.1094
22.1094
22.1095
22.1095
22.1096
22.1097
22.1097
22.1098
22.1098
22.1099
22.1099
22.1099
22.11
22.11
22.11
22.1101
22.1101
22.1101
22.1101
22.1101
22.1101
22.1101
22.1101
22.1101
22.1101
22.1101
22.1101
22.1101
22.1101
22.11
22.11
22.11
22.1099
22.1099
22.1099
22.1098
22.1098
22.1097
22.1097
22.1096
22.1095
22.1095
22.1094
22.1094
22.1093
22.1093
22.1093
22.1092
22.1092
22.1092
22.1093
22.1093
22.1497
22.1497
22.1497
22.1497
22.1497
22.1497
22.1498
22.1498
22.1499
22.1499
22.15
22.15
22.1501
22.1501
22.1502
22.1502
22.1503
22.1503
22.1504
22.1504
22.1505
22.1505
22.1505
22.1505
22.1506
22.1506
22.1506
22.1506
22.1506
22.1506
22.1506
22.1506
22.1506
22.1506
22.1506
22.1506
22.1505
22.1505
22.1505
22.1505
22.1504
22.1504
22.1503
22.1503
22.1502
22.1502
22.1501
22.1501
22.15
22.15
22.1499
22.1499
22.1498
22.1498
22.1497
22.1497
22.1497
22.1497
22.1497
22.1497
22.1891
22.1891
22.1891
22.1891
22.1891
22.1891
22.1892
22.1892
22.1892
22.1893
22.1893
22.1894
22.1895
22.1895
22.1896
22.1896
22.1897
22.1897
22.1898
22.1898
22.1899
22.1899
22.1899
22.19
22.19
22.19
22.19
22.19
22.19
22.19
22.19
22.19
22.19
22.19
22.19
22.19
22.19
22.1899
22.1899
22.1899
22.1898
22.1898
22.1897
22.1897
22.1896
22.1896
22.1895
22.1895
22.1894
22.1893
22.1893
22.1892
22.1892
22.1892
22.1891
22.1891
22.1891
22.1891
22.1891
22.1891
22.2276
22.2276
22.2276
22.2276
22.2276
22.2276
22.2276
22.2276
22.2277
22.2277
22.2278
22.2279
22.2279
22.228
22.228
22.2281
22.2281
22.2282
22.2282
22.2283
22.2283
22.2284
22.2284
22.2284
22.2284
22.2285
22.2285
22.2285
22.2285
22.2285
22.2285
22.2285
22.2285
22.2285
22.2285
22.2284
22.2284
22.2284
22.2284
22.2283
22.2283
22.2282
22.2282
22.2281
22.2281
22.228
22.228
22.2279
22.2279
22.2278
22.2277
22.2277
22.2276
22.2276
22.2276
22.2276
22.2276
22.2276
22.2276
22.2276
22.2652
22.2652
22.2652
22.2652
22.2652
22.2652
22.2652
22.2653
22.2653
22.2654
22.2654
22.2655
22.2655
22.2656
22.2657
22.2657
22.2658
22.2658
22.2659
22.2659
22.266
22.266
22.266
22.2661
22.2661
22.2661
22.2661
22.2661
22.2661
22.2662
22.2662
22.2661
22.2661
22.2661
22.2661
22.2661
22.2661
22.266
22.266
22.266
22.2659
22.2659
22.2658
22.2658
22.2657
22.2657
22.2656
22.2655
22.2655
22.2654
22.2654
22.2653
22.2653
22.2652
22.2652
22.2652
22.2652
22.2652
22.2652
22.2652
22.3021
22.3021
22.3021
22.3021
22.3021
22.3021
22.3021
22.3022
22.3022
22.3023
22.3023
22.3024
22.3025
22.3025
22.3026
22.3026
22.3027
22.3027
22.3028
22.3028
22.3029
22.3029
22.303
22.303
22.303
22.303
22.3031
22.3031
22.3031
22.3031
22.3031
22.3031
22.3031
22.3031
22.303
22.303
22.303
22.303
22.3029
22.3029
22.3028
22.3028
22.3027
22.3027
22.3026
22.3026
22.3025
22.3025
22.3024
22.3023
22.3023
22.3022
22.3022
22.3021
22.3021
22.3021
22.3021
22.3021
22.3021
22.3021
22.3384
22.3384
22.3384
22.3384
22.3384
22.3384
22.3384
22.3384
22.3385
22.3386
22.3386
22.3387
22.3387
22.3388
22.3389
22.3389
22.339
22.339
22.3391
22.3391
22.3392
22.3392
22.3393
22.3393
22.3393
22.3393
22.3394
22.3394
22.3394
22.3394
22.3394
22.3394
22.3394
22.3394
22.3393
22.3393
22.3393
22.3393
22.3392
22.3392
22.3391
22.3391
22.339
22.339
22.3389
22.3389
22.3388
22.3387
22.3387
22.3386
22.3386
22.3385
22.3384
22.3384
22.3384
22.3384
22.3384
22.3384
22.3384
22.3384
22.3741
22.3741
22.3741
22.3741
22.3741
22.3741
22.3741
22.3742
22.3742
22.3743
22.3743
22.3744
22.3745
22.3745
22.3746
22.3747
22.3747
22.3748
22.3748
22.3749
22.3749
22.375
22.375
22.375
22.3751
22.3751
22.3751
22.3751
22.3751
22.3751
22.3751
22.3751
22.3751
22.3751
22.3751
22.3751
22.375
22.375
22.375
22.3749
22.3749
22.3748
22.3748
22.3747
22.3747
22.3746
22.3745
22.3745
22.3744
22.3743
22.3743
22.3742
22.3742
22.3741
22.3741
22.3741
22.3741
22.3741
22.3741
22.3741
22.4094
22.4093
22.4093
22.4093
22.4093
22.4094
22.4094
22.4094
22.4095
22.4095
22.4096
22.4097
22.4097
22.4098
22.4099
22.4099
22.41
22.4101
22.4101
22.4102
22.4102
22.4103
22.4103
22.4103
22.4103
22.4104
22.4104
22.4104
22.4104
22.4104
22.4104
22.4104
22.4104
22.4104
22.4104
22.4103
22.4103
22.4103
22.4103
22.4102
22.4102
22.4101
22.4101
22.41
22.4099
22.4099
22.4098
22.4097
22.4097
22.4096
22.4095
22.4095
22.4094
22.4094
22.4094
22.4093
22.4093
22.4093
22.4093
22.4094
22.4442
22.4442
22.4442
22.4442
22.4442
22.4442
22.4442
22.4443
22.4443
22.4444
22.4445
22.4445
22.4446
22.4447
22.4447
22.4448
22.4449
22.4449
22.445
22.445
22.4451
22.4451
22.4452
22.4452
22.4452
22.4452
22.4453
22.4453
22.4453
22.4453
22.4453
22.4453
22.4453
22.4453
22.4452
22.4452
22.4452
22.4452
22.4451
22.4451
22.445
22.445
22.4449
22.4449
22.4448
22.4447
22.4447
22.4446
22.4445
22.4445
22.4444
22.4443
22.4443
22.4442
22.4442
22.4442
22.4442
22.4442
22.4442
22.4442
22.4787
22.4787
22.4787
22.4787
22.4787
22.4787
22.4787
22.4788
22.4788
22.4789
22.479
22.479
22.4791
22.4792
22.4793
22.4793