/*--------------------------------*- C++ -*----------------------------------*\
| =========                 |                                                 |
| \\      /  F ield         | foam-extend: Open Source CFD                    |
|  \\    /   O peration     | Version:     4.0                                |
|   \\  /    A nd           | Web:         http://www.foam-extend.org         |
|    \\/     M anipulation  |                                                 |
\*---------------------------------------------------------------------------*/
FoamFile
{
    version     2.0;
    format      ascii;
    class       volScalarField;
    location    "19";
    object      p;
}
// * * * * * * * * * * * * * * * * * * * * * * * * * * * * * * * * * * * * * //

dimensions      [0 2 -2 0 0 0 0];

internalField   nonuniform List<scalar> 
6960
(
-2.88141e-11
-4.46649e-11
-4.39801e-11
-4.42339e-11
-4.41272e-11
-4.42431e-11
-4.41906e-11
-4.42586e-11
-4.42236e-11
-4.41862e-11
-4.41211e-11
-4.4127e-11
-4.41174e-11
-4.40845e-11
-4.40588e-11
-4.40911e-11
-4.41278e-11
-4.41351e-11
-4.41366e-11
-4.41578e-11
-4.41706e-11
-4.4165e-11
-4.41631e-11
-4.41628e-11
-4.4139e-11
-4.41095e-11
-4.41071e-11
-4.41079e-11
-4.40721e-11
-4.40271e-11
-4.40212e-11
-4.40332e-11
-4.40152e-11
-4.39852e-11
-4.39895e-11
-4.40169e-11
-4.40282e-11
-4.40272e-11
-4.40355e-11
-4.40432e-11
-4.40364e-11
-4.40285e-11
-4.40229e-11
-4.40027e-11
-4.39772e-11
-4.39846e-11
-4.40198e-11
-4.40436e-11
-4.40528e-11
-4.40904e-11
-4.41475e-11
-4.41744e-11
-4.41534e-11
-4.41284e-11
-4.41153e-11
-4.40893e-11
-4.40525e-11
-4.40283e-11
-4.40296e-11
-4.40331e-11
-4.29818e-11
-4.4649e-11
-4.39747e-11
-4.42333e-11
-4.41269e-11
-4.42437e-11
-4.41914e-11
-4.42595e-11
-4.42242e-11
-4.41861e-11
-4.41203e-11
-4.41255e-11
-4.41155e-11
-4.40825e-11
-4.4057e-11
-4.40897e-11
-4.41269e-11
-4.41348e-11
-4.41367e-11
-4.41582e-11
-4.41711e-11
-4.41654e-11
-4.41633e-11
-4.41627e-11
-4.41387e-11
-4.4109e-11
-4.41065e-11
-4.41074e-11
-4.40718e-11
-4.4027e-11
-4.40213e-11
-4.40335e-11
-4.40157e-11
-4.39857e-11
-4.39899e-11
-4.40171e-11
-4.40281e-11
-4.40269e-11
-4.40351e-11
-4.40427e-11
-4.4036e-11
-4.40284e-11
-4.4023e-11
-4.4003e-11
-4.39776e-11
-4.3985e-11
-4.40199e-11
-4.40435e-11
-4.40524e-11
-4.40898e-11
-4.41467e-11
-4.41737e-11
-4.41529e-11
-4.41283e-11
-4.41154e-11
-4.40898e-11
-4.40529e-11
-4.40288e-11
-4.40302e-11
-4.40336e-11
-4.56644e-11
-4.46276e-11
-4.39702e-11
-4.42328e-11
-4.41263e-11
-4.42442e-11
-4.41921e-11
-4.42606e-11
-4.42251e-11
-4.41868e-11
-4.41204e-11
-4.4125e-11
-4.41145e-11
-4.40812e-11
-4.40557e-11
-4.40885e-11
-4.4126e-11
-4.41343e-11
-4.41366e-11
-4.41584e-11
-4.41714e-11
-4.41657e-11
-4.41636e-11
-4.41628e-11
-4.41386e-11
-4.41088e-11
-4.41063e-11
-4.41072e-11
-4.40717e-11
-4.4027e-11
-4.40214e-11
-4.40337e-11
-4.4016e-11
-4.39861e-11
-4.39902e-11
-4.40172e-11
-4.40282e-11
-4.40269e-11
-4.40351e-11
-4.40427e-11
-4.40361e-11
-4.40285e-11
-4.40233e-11
-4.40033e-11
-4.39778e-11
-4.39851e-11
-4.40199e-11
-4.40432e-11
-4.4052e-11
-4.40893e-11
-4.41462e-11
-4.41734e-11
-4.41528e-11
-4.41286e-11
-4.41158e-11
-4.40904e-11
-4.40534e-11
-4.40293e-11
-4.40308e-11
-4.40341e-11
-4.39219e-11
-4.46084e-11
-4.39678e-11
-4.42325e-11
-4.41256e-11
-4.4244e-11
-4.4192e-11
-4.42607e-11
-4.42254e-11
-4.41874e-11
-4.41211e-11
-4.41255e-11
-4.41148e-11
-4.40815e-11
-4.40558e-11
-4.40884e-11
-4.41257e-11
-4.4134e-11
-4.41364e-11
-4.41581e-11
-4.41712e-11
-4.41656e-11
-4.41635e-11
-4.41628e-11
-4.41387e-11
-4.4109e-11
-4.41064e-11
-4.41074e-11
-4.40719e-11
-4.40273e-11
-4.40216e-11
-4.40337e-11
-4.4016e-11
-4.39861e-11
-4.39901e-11
-4.40171e-11
-4.40282e-11
-4.4027e-11
-4.40353e-11
-4.40431e-11
-4.40366e-11
-4.40291e-11
-4.40238e-11
-4.40037e-11
-4.39781e-11
-4.3985e-11
-4.40194e-11
-4.40426e-11
-4.40513e-11
-4.40886e-11
-4.41456e-11
-4.41731e-11
-4.41529e-11
-4.41289e-11
-4.41162e-11
-4.40908e-11
-4.40536e-11
-4.40295e-11
-4.40308e-11
-4.40341e-11
-4.32164e-11
-4.45912e-11
-4.3965e-11
-4.42317e-11
-4.41245e-11
-4.42435e-11
-4.41917e-11
-4.42608e-11
-4.42256e-11
-4.4188e-11
-4.41218e-11
-4.41261e-11
-4.41152e-11
-4.40818e-11
-4.40561e-11
-4.40884e-11
-4.41254e-11
-4.41337e-11
-4.4136e-11
-4.41578e-11
-4.41708e-11
-4.41653e-11
-4.41633e-11
-4.41626e-11
-4.41387e-11
-4.41091e-11
-4.41065e-11
-4.41074e-11
-4.40722e-11
-4.40276e-11
-4.40219e-11
-4.40338e-11
-4.40161e-11
-4.39862e-11
-4.39901e-11
-4.40169e-11
-4.4028e-11
-4.40269e-11
-4.40354e-11
-4.40433e-11
-4.40371e-11
-4.40297e-11
-4.40245e-11
-4.40043e-11
-4.39786e-11
-4.39852e-11
-4.40191e-11
-4.40419e-11
-4.40505e-11
-4.40877e-11
-4.41447e-11
-4.41724e-11
-4.41527e-11
-4.41291e-11
-4.41165e-11
-4.40911e-11
-4.40539e-11
-4.40295e-11
-4.40307e-11
-4.4034e-11
-4.32946e-11
-4.45743e-11
-4.39617e-11
-4.42303e-11
-4.4123e-11
-4.42428e-11
-4.41914e-11
-4.42609e-11
-4.42261e-11
-4.41889e-11
-4.41227e-11
-4.41267e-11
-4.41155e-11
-4.4082e-11
-4.40561e-11
-4.40881e-11
-4.41249e-11
-4.41332e-11
-4.41357e-11
-4.41574e-11
-4.41705e-11
-4.41651e-11
-4.41631e-11
-4.41625e-11
-4.41386e-11
-4.41092e-11
-4.41066e-11
-4.41075e-11
-4.40724e-11
-4.4028e-11
-4.40222e-11
-4.40339e-11
-4.40161e-11
-4.39863e-11
-4.399e-11
-4.40166e-11
-4.40277e-11
-4.40268e-11
-4.40354e-11
-4.40436e-11
-4.40376e-11
-4.40305e-11
-4.40253e-11
-4.40051e-11
-4.39793e-11
-4.39854e-11
-4.40187e-11
-4.40411e-11
-4.40495e-11
-4.40866e-11
-4.41435e-11
-4.41716e-11
-4.41525e-11
-4.41295e-11
-4.41171e-11
-4.40917e-11
-4.40544e-11
-4.40297e-11
-4.40307e-11
-4.4034e-11
-4.34036e-11
-4.45571e-11
-4.39581e-11
-4.42284e-11
-4.41212e-11
-4.42418e-11
-4.4191e-11
-4.4261e-11
-4.42266e-11
-4.419e-11
-4.41239e-11
-4.41276e-11
-4.41159e-11
-4.40822e-11
-4.40561e-11
-4.40877e-11
-4.41242e-11
-4.41326e-11
-4.41352e-11
-4.41569e-11
-4.41701e-11
-4.41648e-11
-4.41629e-11
-4.41623e-11
-4.41386e-11
-4.41093e-11
-4.41066e-11
-4.41075e-11
-4.40726e-11
-4.40284e-11
-4.40225e-11
-4.4034e-11
-4.40162e-11
-4.39864e-11
-4.39899e-11
-4.40163e-11
-4.40273e-11
-4.40267e-11
-4.40355e-11
-4.40439e-11
-4.40383e-11
-4.40314e-11
-4.40263e-11
-4.40062e-11
-4.39801e-11
-4.39858e-11
-4.40184e-11
-4.40402e-11
-4.40484e-11
-4.40853e-11
-4.41422e-11
-4.41707e-11
-4.41523e-11
-4.41299e-11
-4.41177e-11
-4.40924e-11
-4.40549e-11
-4.403e-11
-4.40308e-11
-4.40341e-11
-4.34361e-11
-4.45398e-11
-4.39545e-11
-4.42261e-11
-4.4119e-11
-4.42405e-11
-4.41905e-11
-4.42611e-11
-4.42272e-11
-4.41912e-11
-4.41254e-11
-4.41286e-11
-4.41163e-11
-4.40825e-11
-4.40562e-11
-4.40872e-11
-4.41234e-11
-4.41318e-11
-4.41346e-11
-4.41564e-11
-4.41696e-11
-4.41646e-11
-4.41627e-11
-4.41621e-11
-4.41386e-11
-4.41095e-11
-4.41067e-11
-4.41075e-11
-4.40728e-11
-4.40289e-11
-4.40228e-11
-4.4034e-11
-4.40162e-11
-4.39864e-11
-4.39898e-11
-4.40158e-11
-4.40269e-11
-4.40264e-11
-4.40355e-11
-4.40442e-11
-4.4039e-11
-4.40324e-11
-4.40275e-11
-4.40074e-11
-4.39812e-11
-4.39862e-11
-4.4018e-11
-4.40393e-11
-4.40471e-11
-4.40838e-11
-4.41407e-11
-4.41696e-11
-4.41521e-11
-4.41304e-11
-4.41185e-11
-4.40932e-11
-4.40556e-11
-4.40303e-11
-4.40309e-11
-4.40342e-11
-4.34487e-11
-4.45223e-11
-4.39507e-11
-4.42234e-11
-4.41165e-11
-4.42389e-11
-4.41897e-11
-4.42611e-11
-4.42279e-11
-4.41927e-11
-4.41271e-11
-4.41298e-11
-4.41169e-11
-4.40829e-11
-4.40563e-11
-4.40867e-11
-4.41224e-11
-4.4131e-11
-4.4134e-11
-4.41558e-11
-4.41691e-11
-4.41643e-11
-4.41625e-11
-4.41619e-11
-4.41386e-11
-4.41097e-11
-4.41068e-11
-4.41074e-11
-4.4073e-11
-4.40294e-11
-4.40231e-11
-4.4034e-11
-4.40161e-11
-4.39865e-11
-4.39896e-11
-4.40153e-11
-4.40264e-11
-4.40261e-11
-4.40354e-11
-4.40445e-11
-4.40398e-11
-4.40336e-11
-4.40288e-11
-4.40087e-11
-4.39824e-11
-4.39868e-11
-4.40176e-11
-4.40382e-11
-4.40458e-11
-4.40822e-11
-4.41389e-11
-4.41683e-11
-4.41518e-11
-4.4131e-11
-4.41193e-11
-4.40942e-11
-4.40563e-11
-4.40306e-11
-4.4031e-11
-4.40343e-11
-4.3465e-11
-4.4505e-11
-4.39469e-11
-4.42204e-11
-4.41136e-11
-4.4237e-11
-4.41888e-11
-4.4261e-11
-4.42285e-11
-4.41942e-11
-4.4129e-11
-4.41311e-11
-4.41176e-11
-4.40833e-11
-4.40564e-11
-4.40862e-11
-4.41214e-11
-4.413e-11
-4.41332e-11
-4.4155e-11
-4.41685e-11
-4.41639e-11
-4.41622e-11
-4.41616e-11
-4.41385e-11
-4.41099e-11
-4.41069e-11
-4.41074e-11
-4.40732e-11
-4.403e-11
-4.40235e-11
-4.4034e-11
-4.40161e-11
-4.39865e-11
-4.39894e-11
-4.40147e-11
-4.40257e-11
-4.40258e-11
-4.40354e-11
-4.40449e-11
-4.40407e-11
-4.40349e-11
-4.40302e-11
-4.40103e-11
-4.39838e-11
-4.39874e-11
-4.40172e-11
-4.4037e-11
-4.40443e-11
-4.40805e-11
-4.4137e-11
-4.41669e-11
-4.41514e-11
-4.41316e-11
-4.41202e-11
-4.40952e-11
-4.40571e-11
-4.40311e-11
-4.40311e-11
-4.40345e-11
-4.34839e-11
-4.44878e-11
-4.39431e-11
-4.42169e-11
-4.41105e-11
-4.42348e-11
-4.41877e-11
-4.42607e-11
-4.42291e-11
-4.41959e-11
-4.41311e-11
-4.41327e-11
-4.41185e-11
-4.4084e-11
-4.40567e-11
-4.40857e-11
-4.41203e-11
-4.41289e-11
-4.41324e-11
-4.41542e-11
-4.41678e-11
-4.41635e-11
-4.41619e-11
-4.41613e-11
-4.41385e-11
-4.41101e-11
-4.4107e-11
-4.41073e-11
-4.40735e-11
-4.40306e-11
-4.40239e-11
-4.4034e-11
-4.4016e-11
-4.39866e-11
-4.39892e-11
-4.40141e-11
-4.4025e-11
-4.40254e-11
-4.40353e-11
-4.40452e-11
-4.40416e-11
-4.40363e-11
-4.40318e-11
-4.40119e-11
-4.39853e-11
-4.39882e-11
-4.40168e-11
-4.40358e-11
-4.40427e-11
-4.40786e-11
-4.41349e-11
-4.41654e-11
-4.4151e-11
-4.41322e-11
-4.41211e-11
-4.40963e-11
-4.4058e-11
-4.40316e-11
-4.40312e-11
-4.40346e-11
-4.35029e-11
-4.44707e-11
-4.39393e-11
-4.42132e-11
-4.4107e-11
-4.42323e-11
-4.41864e-11
-4.42603e-11
-4.42296e-11
-4.41976e-11
-4.41333e-11
-4.41344e-11
-4.41195e-11
-4.40847e-11
-4.40571e-11
-4.40852e-11
-4.41191e-11
-4.41278e-11
-4.41315e-11
-4.41533e-11
-4.4167e-11
-4.4163e-11
-4.41616e-11
-4.4161e-11
-4.41385e-11
-4.41103e-11
-4.41071e-11
-4.41072e-11
-4.40737e-11
-4.40313e-11
-4.40244e-11
-4.40339e-11
-4.4016e-11
-4.39866e-11
-4.39889e-11
-4.40133e-11
-4.40243e-11
-4.40249e-11
-4.40352e-11
-4.40455e-11
-4.40426e-11
-4.40378e-11
-4.40335e-11
-4.40138e-11
-4.3987e-11
-4.39891e-11
-4.40165e-11
-4.40345e-11
-4.40411e-11
-4.40765e-11
-4.41326e-11
-4.41637e-11
-4.41505e-11
-4.41328e-11
-4.41221e-11
-4.40975e-11
-4.4059e-11
-4.40321e-11
-4.40313e-11
-4.40347e-11
-4.35216e-11
-4.44538e-11
-4.39356e-11
-4.42091e-11
-4.41033e-11
-4.42295e-11
-4.41849e-11
-4.42597e-11
-4.42301e-11
-4.41994e-11
-4.41358e-11
-4.41363e-11
-4.41206e-11
-4.40856e-11
-4.40576e-11
-4.40847e-11
-4.41179e-11
-4.41266e-11
-4.41305e-11
-4.41523e-11
-4.41661e-11
-4.41625e-11
-4.41612e-11
-4.41606e-11
-4.41384e-11
-4.41106e-11
-4.41072e-11
-4.41072e-11
-4.4074e-11
-4.4032e-11
-4.40249e-11
-4.40339e-11
-4.40159e-11
-4.39867e-11
-4.39886e-11
-4.40125e-11
-4.40234e-11
-4.40244e-11
-4.4035e-11
-4.40459e-11
-4.40436e-11
-4.40393e-11
-4.40353e-11
-4.40157e-11
-4.39889e-11
-4.39901e-11
-4.40161e-11
-4.40332e-11
-4.40393e-11
-4.40744e-11
-4.41302e-11
-4.41618e-11
-4.41499e-11
-4.41334e-11
-4.41232e-11
-4.40987e-11
-4.40601e-11
-4.40327e-11
-4.40315e-11
-4.40349e-11
-4.35403e-11
-4.44372e-11
-4.3932e-11
-4.42047e-11
-4.40993e-11
-4.42264e-11
-4.41831e-11
-4.42589e-11
-4.42304e-11
-4.42012e-11
-4.41384e-11
-4.41383e-11
-4.41218e-11
-4.40866e-11
-4.40582e-11
-4.40842e-11
-4.41166e-11
-4.41253e-11
-4.41294e-11
-4.41512e-11
-4.41652e-11
-4.41619e-11
-4.41607e-11
-4.41602e-11
-4.41383e-11
-4.41109e-11
-4.41073e-11
-4.41071e-11
-4.40743e-11
-4.40328e-11
-4.40254e-11
-4.40339e-11
-4.40158e-11
-4.39868e-11
-4.39884e-11
-4.40117e-11
-4.40225e-11
-4.40239e-11
-4.40348e-11
-4.40462e-11
-4.40447e-11
-4.4041e-11
-4.40372e-11
-4.40178e-11
-4.39909e-11
-4.39912e-11
-4.40158e-11
-4.40319e-11
-4.40375e-11
-4.40721e-11
-4.41275e-11
-4.41597e-11
-4.41492e-11
-4.4134e-11
-4.41242e-11
-4.41001e-11
-4.40612e-11
-4.40335e-11
-4.40317e-11
-4.4035e-11
-4.35591e-11
-4.44208e-11
-4.39285e-11
-4.42001e-11
-4.40951e-11
-4.4223e-11
-4.41811e-11
-4.42579e-11
-4.42307e-11
-4.42031e-11
-4.41411e-11
-4.41405e-11
-4.41232e-11
-4.40877e-11
-4.40589e-11
-4.40838e-11
-4.41153e-11
-4.4124e-11
-4.41283e-11
-4.415e-11
-4.41641e-11
-4.41612e-11
-4.41602e-11
-4.41597e-11
-4.41382e-11
-4.41112e-11
-4.41074e-11
-4.41069e-11
-4.40746e-11
-4.40336e-11
-4.4026e-11
-4.40338e-11
-4.40157e-11
-4.39869e-11
-4.39881e-11
-4.40108e-11
-4.40216e-11
-4.40233e-11
-4.40346e-11
-4.40464e-11
-4.40457e-11
-4.40426e-11
-4.40392e-11
-4.402e-11
-4.39931e-11
-4.39925e-11
-4.40156e-11
-4.40306e-11
-4.40357e-11
-4.40697e-11
-4.41247e-11
-4.41574e-11
-4.41483e-11
-4.41345e-11
-4.41253e-11
-4.41014e-11
-4.40625e-11
-4.40343e-11
-4.40319e-11
-4.40352e-11
-4.3578e-11
-4.44047e-11
-4.39252e-11
-4.41952e-11
-4.40907e-11
-4.42193e-11
-4.41788e-11
-4.42566e-11
-4.42308e-11
-4.42049e-11
-4.41439e-11
-4.41428e-11
-4.41247e-11
-4.4089e-11
-4.40598e-11
-4.40835e-11
-4.4114e-11
-4.41226e-11
-4.41271e-11
-4.41488e-11
-4.41629e-11
-4.41604e-11
-4.41596e-11
-4.41591e-11
-4.41381e-11
-4.41115e-11
-4.41076e-11
-4.41068e-11
-4.40749e-11
-4.40345e-11
-4.40266e-11
-4.40338e-11
-4.40157e-11
-4.3987e-11
-4.39878e-11
-4.40099e-11
-4.40206e-11
-4.40226e-11
-4.40343e-11
-4.40467e-11
-4.40468e-11
-4.40443e-11
-4.40412e-11
-4.40223e-11
-4.39954e-11
-4.39939e-11
-4.40155e-11
-4.40293e-11
-4.40339e-11
-4.40673e-11
-4.41218e-11
-4.4155e-11
-4.41474e-11
-4.4135e-11
-4.41263e-11
-4.41029e-11
-4.40638e-11
-4.40351e-11
-4.40322e-11
-4.40354e-11
-4.35968e-11
-4.4389e-11
-4.39221e-11
-4.41902e-11
-4.40861e-11
-4.42153e-11
-4.41763e-11
-4.42552e-11
-4.42307e-11
-4.42067e-11
-4.41468e-11
-4.41452e-11
-4.41264e-11
-4.40905e-11
-4.40608e-11
-4.40833e-11
-4.41127e-11
-4.41212e-11
-4.41258e-11
-4.41474e-11
-4.41617e-11
-4.41596e-11
-4.4159e-11
-4.41585e-11
-4.41379e-11
-4.41117e-11
-4.41077e-11
-4.41067e-11
-4.40753e-11
-4.40354e-11
-4.40272e-11
-4.40338e-11
-4.40156e-11
-4.39872e-11
-4.39876e-11
-4.4009e-11
-4.40195e-11
-4.40219e-11
-4.4034e-11
-4.40468e-11
-4.40478e-11
-4.40461e-11
-4.40433e-11
-4.40247e-11
-4.39978e-11
-4.39954e-11
-4.40154e-11
-4.4028e-11
-4.4032e-11
-4.40648e-11
-4.41187e-11
-4.41524e-11
-4.41463e-11
-4.41354e-11
-4.41273e-11
-4.41043e-11
-4.40652e-11
-4.40361e-11
-4.40325e-11
-4.40356e-11
-4.36156e-11
-4.43737e-11
-4.39192e-11
-4.41851e-11
-4.40814e-11
-4.42111e-11
-4.41735e-11
-4.42534e-11
-4.42305e-11
-4.42084e-11
-4.41497e-11
-4.41477e-11
-4.41281e-11
-4.4092e-11
-4.40619e-11
-4.40831e-11
-4.41114e-11
-4.41197e-11
-4.41245e-11
-4.4146e-11
-4.41603e-11
-4.41587e-11
-4.41583e-11
-4.41579e-11
-4.41377e-11
-4.4112e-11
-4.41078e-11
-4.41065e-11
-4.40756e-11
-4.40364e-11
-4.40279e-11
-4.40338e-11
-4.40156e-11
-4.39874e-11
-4.39874e-11
-4.40081e-11
-4.40184e-11
-4.40212e-11
-4.40336e-11
-4.4047e-11
-4.40488e-11
-4.40478e-11
-4.40454e-11
-4.40272e-11
-4.40004e-11
-4.3997e-11
-4.40154e-11
-4.40268e-11
-4.40302e-11
-4.40622e-11
-4.41154e-11
-4.41496e-11
-4.41451e-11
-4.41357e-11
-4.41283e-11
-4.41058e-11
-4.40667e-11
-4.40372e-11
-4.40329e-11
-4.40358e-11
-4.36345e-11
-4.43588e-11
-4.39166e-11
-4.41798e-11
-4.40765e-11
-4.42066e-11
-4.41705e-11
-4.42514e-11
-4.423e-11
-4.42101e-11
-4.41527e-11
-4.41503e-11
-4.413e-11
-4.40938e-11
-4.40632e-11
-4.4083e-11
-4.41101e-11
-4.41182e-11
-4.41231e-11
-4.41445e-11
-4.41589e-11
-4.41577e-11
-4.41575e-11
-4.41571e-11
-4.41374e-11
-4.41123e-11
-4.41079e-11
-4.41063e-11
-4.4076e-11
-4.40374e-11
-4.40287e-11
-4.40339e-11
-4.40157e-11
-4.39877e-11
-4.39872e-11
-4.40071e-11
-4.40173e-11
-4.40204e-11
-4.40331e-11
-4.4047e-11
-4.40497e-11
-4.40495e-11
-4.40476e-11
-4.40297e-11
-4.40031e-11
-4.39988e-11
-4.40155e-11
-4.40256e-11
-4.40284e-11
-4.40595e-11
-4.4112e-11
-4.41467e-11
-4.41437e-11
-4.41359e-11
-4.41292e-11
-4.41073e-11
-4.40683e-11
-4.40384e-11
-4.40334e-11
-4.4036e-11
-4.36533e-11
-4.43443e-11
-4.39144e-11
-4.41744e-11
-4.40716e-11
-4.42018e-11
-4.41673e-11
-4.42491e-11
-4.42293e-11
-4.42116e-11
-4.41556e-11
-4.4153e-11
-4.4132e-11
-4.40957e-11
-4.40647e-11
-4.4083e-11
-4.41088e-11
-4.41168e-11
-4.41217e-11
-4.41429e-11
-4.41574e-11
-4.41566e-11
-4.41566e-11
-4.41563e-11
-4.41372e-11
-4.41126e-11
-4.4108e-11
-4.41061e-11
-4.40763e-11
-4.40384e-11
-4.40294e-11
-4.4034e-11
-4.40157e-11
-4.39881e-11
-4.39871e-11
-4.40062e-11
-4.40162e-11
-4.40195e-11
-4.40326e-11
-4.4047e-11
-4.40506e-11
-4.40512e-11
-4.40497e-11
-4.40323e-11
-4.4006e-11
-4.40008e-11
-4.40158e-11
-4.40246e-11
-4.40266e-11
-4.40569e-11
-4.41085e-11
-4.41435e-11
-4.41421e-11
-4.41359e-11
-4.41301e-11
-4.41087e-11
-4.40699e-11
-4.40396e-11
-4.40339e-11
-4.40362e-11
-4.3672e-11
-4.43304e-11
-4.39125e-11
-4.4169e-11
-4.40666e-11
-4.41968e-11
-4.41638e-11
-4.42465e-11
-4.42284e-11
-4.42129e-11
-4.41585e-11
-4.41556e-11
-4.4134e-11
-4.40977e-11
-4.40663e-11
-4.40831e-11
-4.41076e-11
-4.41153e-11
-4.41203e-11
-4.41412e-11
-4.41557e-11
-4.41554e-11
-4.41557e-11
-4.41555e-11
-4.41368e-11
-4.41128e-11
-4.4108e-11
-4.41059e-11
-4.40767e-11
-4.40395e-11
-4.40303e-11
-4.40341e-11
-4.40159e-11
-4.39884e-11
-4.3987e-11
-4.40052e-11
-4.4015e-11
-4.40187e-11
-4.4032e-11
-4.40469e-11
-4.40514e-11
-4.40528e-11
-4.40519e-11
-4.4035e-11
-4.40089e-11
-4.40029e-11
-4.40162e-11
-4.40236e-11
-4.40249e-11
-4.40542e-11
-4.41049e-11
-4.41402e-11
-4.41403e-11
-4.41358e-11
-4.41308e-11
-4.41102e-11
-4.40715e-11
-4.4041e-11
-4.40344e-11
-4.40365e-11
-4.36906e-11
-4.4317e-11
-4.3911e-11
-4.41636e-11
-4.40616e-11
-4.41917e-11
-4.41601e-11
-4.42436e-11
-4.42272e-11
-4.42141e-11
-4.41614e-11
-4.41583e-11
-4.41362e-11
-4.40999e-11
-4.40681e-11
-4.40834e-11
-4.41065e-11
-4.41138e-11
-4.41189e-11
-4.41395e-11
-4.41541e-11
-4.41542e-11
-4.41546e-11
-4.41545e-11
-4.41364e-11
-4.4113e-11
-4.41081e-11
-4.41056e-11
-4.4077e-11
-4.40406e-11
-4.40311e-11
-4.40342e-11
-4.4016e-11
-4.39889e-11
-4.3987e-11
-4.40044e-11
-4.40139e-11
-4.40178e-11
-4.40313e-11
-4.40467e-11
-4.40522e-11
-4.40544e-11
-4.4054e-11
-4.40377e-11
-4.40119e-11
-4.40051e-11
-4.40167e-11
-4.40228e-11
-4.40233e-11
-4.40516e-11
-4.41012e-11
-4.41367e-11
-4.41384e-11
-4.41356e-11
-4.41314e-11
-4.41116e-11
-4.40732e-11
-4.40424e-11
-4.4035e-11
-4.40368e-11
-4.37092e-11
-4.43041e-11
-4.391e-11
-4.41583e-11
-4.40566e-11
-4.41863e-11
-4.41561e-11
-4.42404e-11
-4.42258e-11
-4.42151e-11
-4.41642e-11
-4.4161e-11
-4.41384e-11
-4.41021e-11
-4.407e-11
-4.40838e-11
-4.41054e-11
-4.41124e-11
-4.41174e-11
-4.41377e-11
-4.41523e-11
-4.41529e-11
-4.41535e-11
-4.41535e-11
-4.4136e-11
-4.41132e-11
-4.41081e-11
-4.41054e-11
-4.40774e-11
-4.40418e-11
-4.4032e-11
-4.40344e-11
-4.40162e-11
-4.39895e-11
-4.39871e-11
-4.40035e-11
-4.40128e-11
-4.40169e-11
-4.40306e-11
-4.40465e-11
-4.40528e-11
-4.40558e-11
-4.4056e-11
-4.40404e-11
-4.40151e-11
-4.40074e-11
-4.40174e-11
-4.40221e-11
-4.40218e-11
-4.40489e-11
-4.40974e-11
-4.41331e-11
-4.41363e-11
-4.41351e-11
-4.41319e-11
-4.4113e-11
-4.4075e-11
-4.4044e-11
-4.40357e-11
-4.40371e-11
-4.37276e-11
-4.42918e-11
-4.39094e-11
-4.4153e-11
-4.40517e-11
-4.41808e-11
-4.4152e-11
-4.42369e-11
-4.4224e-11
-4.42159e-11
-4.41669e-11
-4.41637e-11
-4.41406e-11
-4.41046e-11
-4.40721e-11
-4.40843e-11
-4.41044e-11
-4.41111e-11
-4.4116e-11
-4.41359e-11
-4.41504e-11
-4.41515e-11
-4.41523e-11
-4.41524e-11
-4.41355e-11
-4.41133e-11
-4.41081e-11
-4.41051e-11
-4.40777e-11
-4.4043e-11
-4.4033e-11
-4.40346e-11
-4.40165e-11
-4.39901e-11
-4.39872e-11
-4.40027e-11
-4.40116e-11
-4.4016e-11
-4.40299e-11
-4.40461e-11
-4.40533e-11
-4.40572e-11
-4.4058e-11
-4.40431e-11
-4.40182e-11
-4.40099e-11
-4.40182e-11
-4.40215e-11
-4.40204e-11
-4.40464e-11
-4.40936e-11
-4.41293e-11
-4.4134e-11
-4.41345e-11
-4.41322e-11
-4.41143e-11
-4.40768e-11
-4.40456e-11
-4.40365e-11
-4.40374e-11
-4.37458e-11
-4.42801e-11
-4.39092e-11
-4.41479e-11
-4.40469e-11
-4.41753e-11
-4.41477e-11
-4.42331e-11
-4.4222e-11
-4.42164e-11
-4.41694e-11
-4.41663e-11
-4.41429e-11
-4.41071e-11
-4.40744e-11
-4.40849e-11
-4.41036e-11
-4.41097e-11
-4.41146e-11
-4.41341e-11
-4.41485e-11
-4.415e-11
-4.41511e-11
-4.41512e-11
-4.41349e-11
-4.41134e-11
-4.4108e-11
-4.41048e-11
-4.40781e-11
-4.40442e-11
-4.40339e-11
-4.40349e-11
-4.40169e-11
-4.39908e-11
-4.39874e-11
-4.4002e-11
-4.40105e-11
-4.4015e-11
-4.40291e-11
-4.40457e-11
-4.40538e-11
-4.40585e-11
-4.40599e-11
-4.40458e-11
-4.40215e-11
-4.40125e-11
-4.40192e-11
-4.40211e-11
-4.40192e-11
-4.40438e-11
-4.40897e-11
-4.41254e-11
-4.41315e-11
-4.41336e-11
-4.41324e-11
-4.41155e-11
-4.40785e-11
-4.40474e-11
-4.40373e-11
-4.40377e-11
-4.37639e-11
-4.4269e-11
-4.39096e-11
-4.41429e-11
-4.40422e-11
-4.41696e-11
-4.41432e-11
-4.42291e-11
-4.42197e-11
-4.42166e-11
-4.41718e-11
-4.41688e-11
-4.41452e-11
-4.41097e-11
-4.40768e-11
-4.40857e-11
-4.41028e-11
-4.41085e-11
-4.41132e-11
-4.41322e-11
-4.41465e-11
-4.41484e-11
-4.41497e-11
-4.415e-11
-4.41343e-11
-4.41135e-11
-4.41079e-11
-4.41044e-11
-4.40784e-11
-4.40454e-11
-4.40349e-11
-4.40352e-11
-4.40173e-11
-4.39916e-11
-4.39877e-11
-4.40013e-11
-4.40095e-11
-4.40141e-11
-4.40282e-11
-4.40451e-11
-4.40541e-11
-4.40597e-11
-4.40618e-11
-4.40484e-11
-4.40248e-11
-4.40152e-11
-4.40203e-11
-4.40209e-11
-4.40181e-11
-4.40414e-11
-4.40858e-11
-4.41213e-11
-4.41288e-11
-4.41325e-11
-4.41323e-11
-4.41165e-11
-4.40803e-11
-4.40492e-11
-4.40382e-11
-4.40381e-11
-4.37817e-11
-4.42586e-11
-4.39105e-11
-4.41381e-11
-4.40378e-11
-4.41639e-11
-4.41386e-11
-4.42247e-11
-4.42171e-11
-4.42166e-11
-4.4174e-11
-4.41712e-11
-4.41475e-11
-4.41124e-11
-4.40793e-11
-4.40867e-11
-4.41021e-11
-4.41073e-11
-4.41118e-11
-4.41304e-11
-4.41445e-11
-4.41468e-11
-4.41483e-11
-4.41486e-11
-4.41336e-11
-4.41135e-11
-4.41078e-11
-4.4104e-11
-4.40787e-11
-4.40466e-11
-4.4036e-11
-4.40356e-11
-4.40178e-11
-4.39925e-11
-4.39881e-11
-4.40007e-11
-4.40085e-11
-4.40132e-11
-4.40273e-11
-4.40445e-11
-4.40542e-11
-4.40607e-11
-4.40635e-11
-4.4051e-11
-4.40281e-11
-4.4018e-11
-4.40217e-11
-4.40209e-11
-4.40172e-11
-4.40391e-11
-4.40819e-11
-4.41171e-11
-4.41259e-11
-4.41312e-11
-4.41321e-11
-4.41175e-11
-4.4082e-11
-4.4051e-11
-4.40391e-11
-4.40385e-11
-4.37993e-11
-4.42487e-11
-4.3912e-11
-4.41336e-11
-4.40336e-11
-4.41582e-11
-4.41338e-11
-4.42201e-11
-4.42142e-11
-4.42163e-11
-4.41759e-11
-4.41735e-11
-4.41498e-11
-4.41151e-11
-4.4082e-11
-4.40878e-11
-4.41016e-11
-4.41063e-11
-4.41105e-11
-4.41285e-11
-4.41424e-11
-4.41451e-11
-4.41468e-11
-4.41472e-11
-4.41328e-11
-4.41134e-11
-4.41076e-11
-4.41036e-11
-4.4079e-11
-4.40479e-11
-4.40371e-11
-4.4036e-11
-4.40183e-11
-4.39935e-11
-4.39886e-11
-4.40002e-11
-4.40075e-11
-4.40123e-11
-4.40264e-11
-4.40438e-11
-4.40543e-11
-4.40616e-11
-4.40651e-11
-4.40535e-11
-4.40314e-11
-4.4021e-11
-4.40231e-11
-4.40211e-11
-4.40165e-11
-4.40369e-11
-4.40781e-11
-4.41128e-11
-4.41228e-11
-4.41296e-11
-4.41316e-11
-4.41183e-11
-4.40837e-11
-4.4053e-11
-4.40401e-11
-4.40389e-11
-4.38167e-11
-4.42395e-11
-4.3914e-11
-4.41293e-11
-4.40297e-11
-4.41525e-11
-4.4129e-11
-4.42153e-11
-4.4211e-11
-4.42157e-11
-4.41776e-11
-4.41757e-11
-4.4152e-11
-4.41179e-11
-4.40847e-11
-4.4089e-11
-4.41013e-11
-4.41053e-11
-4.41092e-11
-4.41266e-11
-4.41403e-11
-4.41433e-11
-4.41452e-11
-4.41457e-11
-4.4132e-11
-4.41133e-11
-4.41074e-11
-4.41032e-11
-4.40793e-11
-4.40491e-11
-4.40382e-11
-4.40365e-11
-4.4019e-11
-4.39946e-11
-4.39893e-11
-4.39998e-11
-4.40067e-11
-4.40114e-11
-4.40254e-11
-4.4043e-11
-4.40542e-11
-4.40623e-11
-4.40665e-11
-4.4056e-11
-4.40348e-11
-4.4024e-11
-4.40248e-11
-4.40215e-11
-4.4016e-11
-4.40348e-11
-4.40743e-11
-4.41085e-11
-4.41195e-11
-4.41278e-11
-4.41309e-11
-4.41189e-11
-4.40854e-11
-4.40549e-11
-4.40412e-11
-4.40394e-11
-4.38337e-11
-4.42309e-11
-4.39165e-11
-4.41254e-11
-4.40261e-11
-4.41469e-11
-4.41242e-11
-4.42102e-11
-4.42075e-11
-4.42147e-11
-4.4179e-11
-4.41776e-11
-4.41542e-11
-4.41207e-11
-4.40876e-11
-4.40904e-11
-4.4101e-11
-4.41044e-11
-4.4108e-11
-4.41248e-11
-4.41382e-11
-4.41415e-11
-4.41436e-11
-4.41441e-11
-4.41311e-11
-4.41131e-11
-4.41072e-11
-4.41027e-11
-4.40796e-11
-4.40503e-11
-4.40393e-11
-4.4037e-11
-4.40197e-11
-4.39958e-11
-4.399e-11
-4.39995e-11
-4.40059e-11
-4.40106e-11
-4.40245e-11
-4.40421e-11
-4.40539e-11
-4.40628e-11
-4.40678e-11
-4.40583e-11
-4.4038e-11
-4.4027e-11
-4.40266e-11
-4.40221e-11
-4.40157e-11
-4.4033e-11
-4.40705e-11
-4.41041e-11
-4.4116e-11
-4.41258e-11
-4.41299e-11
-4.41193e-11
-4.40869e-11
-4.40569e-11
-4.40423e-11
-4.40399e-11
-4.38505e-11
-4.4223e-11
-4.39196e-11
-4.41218e-11
-4.40228e-11
-4.41414e-11
-4.41194e-11
-4.4205e-11
-4.42038e-11
-4.42134e-11
-4.41802e-11
-4.41794e-11
-4.41562e-11
-4.41236e-11
-4.40906e-11
-4.40919e-11
-4.41009e-11
-4.41037e-11
-4.41069e-11
-4.4123e-11
-4.41361e-11
-4.41396e-11
-4.41418e-11
-4.41425e-11
-4.41301e-11
-4.41129e-11
-4.41068e-11
-4.41022e-11
-4.40798e-11
-4.40515e-11
-4.40404e-11
-4.40376e-11
-4.40205e-11
-4.39971e-11
-4.39909e-11
-4.39994e-11
-4.40052e-11
-4.40098e-11
-4.40235e-11
-4.40411e-11
-4.40536e-11
-4.40632e-11
-4.40689e-11
-4.40605e-11
-4.40413e-11
-4.40301e-11
-4.40285e-11
-4.4023e-11
-4.40156e-11
-4.40313e-11
-4.40669e-11
-4.40996e-11
-4.41124e-11
-4.41235e-11
-4.41287e-11
-4.41195e-11
-4.40884e-11
-4.40589e-11
-4.40434e-11
-4.40404e-11
-4.38668e-11
-4.42156e-11
-4.39233e-11
-4.41185e-11
-4.402e-11
-4.4136e-11
-4.41145e-11
-4.41996e-11
-4.41998e-11
-4.42118e-11
-4.41811e-11
-4.41809e-11
-4.41582e-11
-4.41264e-11
-4.40936e-11
-4.40935e-11
-4.4101e-11
-4.41031e-11
-4.41059e-11
-4.41212e-11
-4.4134e-11
-4.41377e-11
-4.41401e-11
-4.41408e-11
-4.4129e-11
-4.41126e-11
-4.41065e-11
-4.41016e-11
-4.408e-11
-4.40527e-11
-4.40416e-11
-4.40382e-11
-4.40214e-11
-4.39985e-11
-4.39918e-11
-4.39993e-11
-4.40046e-11
-4.40091e-11
-4.40225e-11
-4.404e-11
-4.40531e-11
-4.40634e-11
-4.40698e-11
-4.40625e-11
-4.40444e-11
-4.40333e-11
-4.40306e-11
-4.4024e-11
-4.40158e-11
-4.40298e-11
-4.40633e-11
-4.40952e-11
-4.41087e-11
-4.41209e-11
-4.41272e-11
-4.41195e-11
-4.40897e-11
-4.40609e-11
-4.40446e-11
-4.40409e-11
-4.38828e-11
-4.42089e-11
-4.39275e-11
-4.41156e-11
-4.40176e-11
-4.41309e-11
-4.41098e-11
-4.41941e-11
-4.41955e-11
-4.42099e-11
-4.41816e-11
-4.41821e-11
-4.416e-11
-4.41291e-11
-4.40966e-11
-4.40952e-11
-4.41012e-11
-4.41026e-11
-4.4105e-11
-4.41195e-11
-4.41318e-11
-4.41358e-11
-4.41382e-11
-4.4139e-11
-4.41279e-11
-4.41122e-11
-4.4106e-11
-4.4101e-11
-4.40802e-11
-4.40539e-11
-4.40427e-11
-4.40389e-11
-4.40223e-11
-4.4e-11
-4.39929e-11
-4.39994e-11
-4.40042e-11
-4.40084e-11
-4.40215e-11
-4.40389e-11
-4.40524e-11
-4.40635e-11
-4.40706e-11
-4.40644e-11
-4.40475e-11
-4.40364e-11
-4.40329e-11
-4.40253e-11
-4.40162e-11
-4.40285e-11
-4.40599e-11
-4.40907e-11
-4.41048e-11
-4.41181e-11
-4.41255e-11
-4.41193e-11
-4.40909e-11
-4.40628e-11
-4.40457e-11
-4.40414e-11
-4.38984e-11
-4.42027e-11
-4.39322e-11
-4.41131e-11
-4.40156e-11
-4.4126e-11
-4.41052e-11
-4.41884e-11
-4.41911e-11
-4.42076e-11
-4.41818e-11
-4.41831e-11
-4.41616e-11
-4.41318e-11
-4.40997e-11
-4.40971e-11
-4.41015e-11
-4.41022e-11
-4.41042e-11
-4.41178e-11
-4.41297e-11
-4.41338e-11
-4.41364e-11
-4.41372e-11
-4.41267e-11
-4.41117e-11
-4.41055e-11
-4.41004e-11
-4.40803e-11
-4.40551e-11
-4.40439e-11
-4.40396e-11
-4.40233e-11
-4.40015e-11
-4.39942e-11
-4.39997e-11
-4.40039e-11
-4.40079e-11
-4.40206e-11
-4.40378e-11
-4.40516e-11
-4.40633e-11
-4.40711e-11
-4.40661e-11
-4.40504e-11
-4.40396e-11
-4.40352e-11
-4.40267e-11
-4.40169e-11
-4.40275e-11
-4.40567e-11
-4.40863e-11
-4.41008e-11
-4.41151e-11
-4.41234e-11
-4.41188e-11
-4.40919e-11
-4.40647e-11
-4.40469e-11
-4.4042e-11
-4.39135e-11
-4.41971e-11
-4.39374e-11
-4.4111e-11
-4.40141e-11
-4.41213e-11
-4.41007e-11
-4.41828e-11
-4.41865e-11
-4.42051e-11
-4.41817e-11
-4.41839e-11
-4.41631e-11
-4.41344e-11
-4.41028e-11
-4.4099e-11
-4.4102e-11
-4.4102e-11
-4.41035e-11
-4.41163e-11
-4.41277e-11
-4.41318e-11
-4.41345e-11
-4.41354e-11
-4.41255e-11
-4.41112e-11
-4.4105e-11
-4.40997e-11
-4.40804e-11
-4.40562e-11
-4.4045e-11
-4.40403e-11
-4.40244e-11
-4.40032e-11
-4.39955e-11
-4.40001e-11
-4.40037e-11
-4.40074e-11
-4.40196e-11
-4.40366e-11
-4.40508e-11
-4.4063e-11
-4.40715e-11
-4.40676e-11
-4.40532e-11
-4.40427e-11
-4.40376e-11
-4.40284e-11
-4.40178e-11
-4.40267e-11
-4.40537e-11
-4.4082e-11
-4.40968e-11
-4.41119e-11
-4.41211e-11
-4.4118e-11
-4.40927e-11
-4.40665e-11
-4.40481e-11
-4.40426e-11
-4.39282e-11
-4.4192e-11
-4.39432e-11
-4.41093e-11
-4.40132e-11
-4.4117e-11
-4.40965e-11
-4.41771e-11
-4.41818e-11
-4.42022e-11
-4.41813e-11
-4.41843e-11
-4.41643e-11
-4.41368e-11
-4.41058e-11
-4.4101e-11
-4.41026e-11
-4.4102e-11
-4.41029e-11
-4.41148e-11
-4.41257e-11
-4.41299e-11
-4.41325e-11
-4.41334e-11
-4.41241e-11
-4.41105e-11
-4.41044e-11
-4.4099e-11
-4.40805e-11
-4.40572e-11
-4.40461e-11
-4.40411e-11
-4.40255e-11
-4.4005e-11
-4.3997e-11
-4.40006e-11
-4.40036e-11
-4.4007e-11
-4.40188e-11
-4.40354e-11
-4.40498e-11
-4.40625e-11
-4.40716e-11
-4.40689e-11
-4.40559e-11
-4.40457e-11
-4.40401e-11
-4.40302e-11
-4.4019e-11
-4.40262e-11
-4.4051e-11
-4.40778e-11
-4.40927e-11
-4.41085e-11
-4.41186e-11
-4.41169e-11
-4.40933e-11
-4.40683e-11
-4.40493e-11
-4.40431e-11
-4.39424e-11
-4.41874e-11
-4.39493e-11
-4.4108e-11
-4.40127e-11
-4.4113e-11
-4.40924e-11
-4.41714e-11
-4.41769e-11
-4.41991e-11
-4.41805e-11
-4.41844e-11
-4.41654e-11
-4.41391e-11
-4.41088e-11
-4.4103e-11
-4.41033e-11
-4.4102e-11
-4.41024e-11
-4.41134e-11
-4.41237e-11
-4.41279e-11
-4.41306e-11
-4.41315e-11
-4.41228e-11
-4.41099e-11
-4.41037e-11
-4.40982e-11
-4.40805e-11
-4.40583e-11
-4.40472e-11
-4.40419e-11
-4.40267e-11
-4.40068e-11
-4.39985e-11
-4.40013e-11
-4.40037e-11
-4.40068e-11
-4.4018e-11
-4.40342e-11
-4.40487e-11
-4.40618e-11
-4.40716e-11
-4.407e-11
-4.40584e-11
-4.40487e-11
-4.40426e-11
-4.40322e-11
-4.40204e-11
-4.4026e-11
-4.40484e-11
-4.40738e-11
-4.40886e-11
-4.41049e-11
-4.41157e-11
-4.41155e-11
-4.40937e-11
-4.40698e-11
-4.40504e-11
-4.40437e-11
-4.39561e-11
-4.41833e-11
-4.39559e-11
-4.4107e-11
-4.40128e-11
-4.41094e-11
-4.40887e-11
-4.41659e-11
-4.4172e-11
-4.41958e-11
-4.41794e-11
-4.41842e-11
-4.41662e-11
-4.41413e-11
-4.41118e-11
-4.41051e-11
-4.41042e-11
-4.41022e-11
-4.41021e-11
-4.41122e-11
-4.41218e-11
-4.4126e-11
-4.41286e-11
-4.41295e-11
-4.41214e-11
-4.41091e-11
-4.4103e-11
-4.40974e-11
-4.40805e-11
-4.40592e-11
-4.40483e-11
-4.40427e-11
-4.40279e-11
-4.40087e-11
-4.40002e-11
-4.40021e-11
-4.40039e-11
-4.40067e-11
-4.40173e-11
-4.4033e-11
-4.40475e-11
-4.4061e-11