/*--------------------------------*- C++ -*----------------------------------*\
| =========                 |                                                 |
| \\      /  F ield         | foam-extend: Open Source CFD                    |
|  \\    /   O peration     | Version:     4.0                                |
|   \\  /    A nd           | Web:         http://www.foam-extend.org         |
|    \\/     M anipulation  |                                                 |
\*---------------------------------------------------------------------------*/
FoamFile
{
    version     2.0;
    format      ascii;
    class       volVectorField;
    location    "10";
    object      bodyForce;
}
// * * * * * * * * * * * * * * * * * * * * * * * * * * * * * * * * * * * * * //

dimensions      [0 -1 0 0 0 0 0];

internalField   nonuniform List<vector> 
6960
(
(9.65937e-06 -1.02247e+09 -0)
(1.44128e-05 -1.02247e+09 -0)
(3.8288e-06 -1.02247e+09 -0)
(-1.17882e-06 -1.02247e+09 -0)
(-3.27275e-07 -1.02247e+09 -0)
(-1.30274e-07 -1.02247e+09 -0)
(-1.04855e-07 -1.02247e+09 -0)
(-6.67259e-08 -1.02247e+09 -0)
(-4.44839e-08 -1.02247e+09 -0)
(-2.54194e-08 -1.02247e+09 -0)
(-1.58871e-08 -1.02247e+09 -0)
(-3.17742e-09 -1.02247e+09 -0)
(3.17742e-09 -1.02247e+09 -0)
(9.53227e-09 -1.02247e+09 -0)
(1.58871e-08 -1.02247e+09 -0)
(2.2242e-08 -1.02247e+09 -0)
(1.58871e-08 -1.02247e+09 -0)
(2.54194e-08 -1.02247e+09 -0)
(2.54194e-08 -1.02247e+09 -0)
(2.2242e-08 -1.02247e+09 -0)
(1.90645e-08 -1.02247e+09 -0)
(2.54194e-08 -1.02247e+09 -0)
(2.2242e-08 -1.02247e+09 -0)
(2.2242e-08 -1.02247e+09 -0)
(2.2242e-08 -1.02247e+09 -0)
(9.53227e-09 -1.02247e+09 -0)
(1.27097e-08 -1.02247e+09 -0)
(9.53227e-09 -1.02247e+09 -0)
(-3.17742e-09 -1.02247e+09 -0)
(-0 -1.02247e+09 -0)
(-3.17742e-09 -1.02247e+09 -0)
(-0 -1.02247e+09 -0)
(-1.27097e-08 -1.02247e+09 -0)
(-6.35485e-09 -1.02247e+09 -0)
(-1.90645e-08 -1.02247e+09 -0)
(-2.2242e-08 -1.02247e+09 -0)
(-6.35485e-09 -1.02247e+09 -0)
(-1.90645e-08 -1.02247e+09 -0)
(-1.58871e-08 -1.02247e+09 -0)
(-1.58871e-08 -1.02247e+09 -0)
(-3.81291e-08 -1.02247e+09 -0)
(-3.49517e-08 -1.02247e+09 -0)
(-2.2242e-08 -1.02247e+09 -0)
(-2.54194e-08 -1.02247e+09 -0)
(-2.2242e-08 -1.02247e+09 -0)
(-9.53227e-09 -1.02247e+09 -0)
(-1.27097e-08 -1.02247e+09 -0)
(-0 -1.02247e+09 -0)
(3.17742e-09 -1.02247e+09 -0)
(2.2242e-08 -1.02247e+09 -0)
(3.17742e-08 -1.02247e+09 -0)
(4.76614e-08 -1.02247e+09 -0)
(5.71936e-08 -1.02247e+09 -0)
(1.04855e-07 -1.02247e+09 -0)
(1.33452e-07 -1.02247e+09 -0)
(3.27275e-07 -1.02247e+09 -0)
(1.17882e-06 -1.02247e+09 -0)
(-3.83197e-06 -1.02247e+09 -0)
(-1.44096e-05 -1.02247e+09 -0)
(-9.67208e-06 -1.02247e+09 -0)
(4.01261e-05 -2.19974e+08 -0)
(5.84416e-05 -2.19974e+08 -0)
(1.53236e-05 -2.19974e+08 -0)
(-3.54516e-06 -2.19974e+08 -0)
(-7.14951e-07 -2.19974e+08 -0)
(-3.14214e-07 -2.19974e+08 -0)
(-2.61845e-07 -2.19974e+08 -0)
(-1.68492e-07 -2.19974e+08 -0)
(-1.20677e-07 -2.19974e+08 -0)
(-9.33535e-08 -2.19974e+08 -0)
(-6.14767e-08 -2.19974e+08 -0)
(-3.64306e-08 -2.19974e+08 -0)
(-2.95999e-08 -2.19974e+08 -0)
(-1.59384e-08 -2.19974e+08 -0)
(6.83075e-09 -2.19974e+08 -0)
(1.82153e-08 -2.19974e+08 -0)
(1.59384e-08 -2.19974e+08 -0)
(2.04922e-08 -2.19974e+08 -0)
(1.82153e-08 -2.19974e+08 -0)
(2.04922e-08 -2.19974e+08 -0)
(2.50461e-08 -2.19974e+08 -0)
(1.82153e-08 -2.19974e+08 -0)
(3.41537e-08 -2.19974e+08 -0)
(2.95999e-08 -2.19974e+08 -0)
(2.50461e-08 -2.19974e+08 -0)
(9.10766e-09 -2.19974e+08 -0)
(1.13846e-08 -2.19974e+08 -0)
(2.27692e-08 -2.19974e+08 -0)
(-0 -2.19974e+08 -0)
(-6.83075e-09 -2.19974e+08 -0)
(-9.10766e-09 -2.19974e+08 -0)
(-2.27692e-09 -2.19974e+08 -0)
(-1.36615e-08 -2.19974e+08 -0)
(-1.36615e-08 -2.19974e+08 -0)
(-1.59384e-08 -2.19974e+08 -0)
(-1.82153e-08 -2.19974e+08 -0)
(-2.27692e-09 -2.19974e+08 -0)
(-1.36615e-08 -2.19974e+08 -0)
(-1.36615e-08 -2.19974e+08 -0)
(-2.7323e-08 -2.19974e+08 -0)
(-4.78152e-08 -2.19974e+08 -0)
(-4.09845e-08 -2.19974e+08 -0)
(-3.41537e-08 -2.19974e+08 -0)
(-3.41537e-08 -2.19974e+08 -0)
(-9.10766e-09 -2.19974e+08 -0)
(1.13846e-08 -2.19974e+08 -0)
(2.27692e-09 -2.19974e+08 -0)
(1.82153e-08 -2.19974e+08 -0)
(5.4646e-08 -2.19974e+08 -0)
(7.9692e-08 -2.19974e+08 -0)
(1.02461e-07 -2.19974e+08 -0)
(1.34338e-07 -2.19974e+08 -0)
(1.52553e-07 -2.19974e+08 -0)
(2.55015e-07 -2.19974e+08 -0)
(3.36983e-07 -2.19974e+08 -0)
(7.24059e-07 -2.19974e+08 -0)
(3.53377e-06 -2.19974e+08 -0)
(-1.53373e-05 -2.19974e+08 -0)
(-5.8437e-05 -2.19974e+08 -0)
(-4.01215e-05 -2.19974e+08 -0)
(6.11363e-05 -8.02997e+07 -0)
(8.51826e-05 -8.02997e+07 -0)
(2.05155e-05 -8.02997e+07 -0)
(-4.04517e-06 -8.02997e+07 -0)
(-6.97364e-07 -8.02997e+07 -0)
(-3.47523e-07 -8.02997e+07 -0)
(-2.84969e-07 -8.02997e+07 -0)
(-2.01564e-07 -8.02997e+07 -0)
(-1.48277e-07 -8.02997e+07 -0)
(-1.25108e-07 -8.02997e+07 -0)
(-8.80393e-08 -8.02997e+07 -0)
(-6.71879e-08 -8.02997e+07 -0)
(-6.25542e-08 -8.02997e+07 -0)
(-4.40196e-08 -8.02997e+07 -0)
(-2.08514e-08 -8.02997e+07 -0)
(-9.26729e-09 -8.02997e+07 -0)
(-1.85346e-08 -8.02997e+07 -0)
(-9.26729e-09 -8.02997e+07 -0)
(-1.15841e-08 -8.02997e+07 -0)
(-4.63364e-09 -8.02997e+07 -0)
(-0 -8.02997e+07 -0)
(-2.31682e-09 -8.02997e+07 -0)
(9.26729e-09 -8.02997e+07 -0)
(9.26729e-09 -8.02997e+07 -0)
(1.39009e-08 -8.02997e+07 -0)
(-6.95047e-09 -8.02997e+07 -0)
(-0 -8.02997e+07 -0)
(1.62178e-08 -8.02997e+07 -0)
(-4.63364e-09 -8.02997e+07 -0)
(-1.15841e-08 -8.02997e+07 -0)
(-6.95047e-09 -8.02997e+07 -0)
(-0 -8.02997e+07 -0)
(-4.63365e-09 -8.02997e+07 -0)
(-4.63365e-09 -8.02997e+07 -0)
(-4.63364e-09 -8.02997e+07 -0)
(2.31682e-09 -8.02997e+07 -0)
(1.85346e-08 -8.02997e+07 -0)
(1.39009e-08 -8.02997e+07 -0)
(4.63365e-09 -8.02997e+07 -0)
(-2.31682e-09 -8.02997e+07 -0)
(-1.85346e-08 -8.02997e+07 -0)
(-1.39009e-08 -8.02997e+07 -0)
(-9.26729e-09 -8.02997e+07 -0)
(-4.63364e-09 -8.02997e+07 -0)
(1.85346e-08 -8.02997e+07 -0)
(3.9386e-08 -8.02997e+07 -0)
(3.47523e-08 -8.02997e+07 -0)
(5.09701e-08 -8.02997e+07 -0)
(8.80393e-08 -8.02997e+07 -0)
(1.06574e-07 -8.02997e+07 -0)
(1.34376e-07 -8.02997e+07 -0)
(1.64494e-07 -8.02997e+07 -0)
(1.85346e-07 -8.02997e+07 -0)
(2.73385e-07 -8.02997e+07 -0)
(3.63741e-07 -8.02997e+07 -0)
(7.11264e-07 -8.02997e+07 -0)
(4.04054e-06 -8.02997e+07 -0)
(-2.05317e-05 -8.02997e+07 -0)
(-8.51826e-05 -8.02997e+07 -0)
(-6.11386e-05 -8.02997e+07 -0)
(7.38365e-05 -3.73576e+07 -0)
(0.000102013 -3.73576e+07 -0)
(2.46336e-05 -3.73576e+07 -0)
(-3.93601e-06 -3.73576e+07 -0)
(-5.75049e-07 -3.73576e+07 -0)
(-3.29397e-07 -3.73576e+07 -0)
(-2.72171e-07 -3.73576e+07 -0)
(-2.05175e-07 -3.73576e+07 -0)
(-1.60511e-07 -3.73576e+07 -0)
(-1.40971e-07 -3.73576e+07 -0)
(-1.07473e-07 -3.73576e+07 -0)
(-9.21194e-08 -3.73576e+07 -0)
(-9.07237e-08 -3.73576e+07 -0)
(-7.39747e-08 -3.73576e+07 -0)
(-5.0247e-08 -3.73576e+07 -0)
(-3.62895e-08 -3.73576e+07 -0)
(-5.16427e-08 -3.73576e+07 -0)
(-4.04767e-08 -3.73576e+07 -0)
(-4.60597e-08 -3.73576e+07 -0)
(-3.48937e-08 -3.73576e+07 -0)
(-2.93107e-08 -3.73576e+07 -0)
(-2.93107e-08 -3.73576e+07 -0)
(-1.39575e-08 -3.73576e+07 -0)
(-1.39575e-08 -3.73576e+07 -0)
(-1.39575e-09 -3.73576e+07 -0)
(-2.37277e-08 -3.73576e+07 -0)
(-1.53532e-08 -3.73576e+07 -0)
(8.37449e-09 -3.73576e+07 -0)
(-9.77024e-09 -3.73576e+07 -0)
(-9.77024e-09 -3.73576e+07 -0)
(-6.97875e-09 -3.73576e+07 -0)
(4.18725e-09 -3.73576e+07 -0)
(5.583e-09 -3.73576e+07 -0)
(6.97875e-09 -3.73576e+07 -0)
(8.37449e-09 -3.73576e+07 -0)
(2.2332e-08 -3.73576e+07 -0)
(4.60597e-08 -3.73576e+07 -0)
(3.76852e-08 -3.73576e+07 -0)
(2.51235e-08 -3.73576e+07 -0)
(2.51235e-08 -3.73576e+07 -0)
(1.39575e-08 -3.73576e+07 -0)
(1.53532e-08 -3.73576e+07 -0)
(2.37277e-08 -3.73576e+07 -0)
(2.7915e-08 -3.73576e+07 -0)
(5.0247e-08 -3.73576e+07 -0)
(7.11832e-08 -3.73576e+07 -0)
(6.28087e-08 -3.73576e+07 -0)
(7.67662e-08 -3.73576e+07 -0)
(1.10264e-07 -3.73576e+07 -0)
(1.27013e-07 -3.73576e+07 -0)
(1.54928e-07 -3.73576e+07 -0)
(1.7726e-07 -3.73576e+07 -0)
(1.85635e-07 -3.73576e+07 -0)
(2.58214e-07 -3.73576e+07 -0)
(3.48937e-07 -3.73576e+07 -0)
(5.86215e-07 -3.73576e+07 -0)
(3.93322e-06 -3.73576e+07 -0)
(-2.46517e-05 -3.73576e+07 -0)
(-0.000102013 -3.73576e+07 -0)
(-7.38351e-05 -3.73576e+07 -0)
(8.03063e-05 -1.98304e+07 -0)
(0.000111322 -1.98304e+07 -0)
(2.77701e-05 -1.98304e+07 -0)
(-3.4976e-06 -1.98304e+07 -0)
(-4.20452e-07 -1.98304e+07 -0)
(-2.98475e-07 -1.98304e+07 -0)
(-2.42106e-07 -1.98304e+07 -0)
(-1.95903e-07 -1.98304e+07 -0)
(-1.65409e-07 -1.98304e+07 -0)
(-1.49699e-07 -1.98304e+07 -0)
(-1.18281e-07 -1.98304e+07 -0)
(-1.09964e-07 -1.98304e+07 -0)
(-1.12737e-07 -1.98304e+07 -0)
(-9.61033e-08 -1.98304e+07 -0)
(-7.39256e-08 -1.98304e+07 -0)
(-6.09886e-08 -1.98304e+07 -0)
(-8.03941e-08 -1.98304e+07 -0)
(-7.02293e-08 -1.98304e+07 -0)
(-7.02293e-08 -1.98304e+07 -0)
(-6.09886e-08 -1.98304e+07 -0)
(-5.63683e-08 -1.98304e+07 -0)
(-5.17479e-08 -1.98304e+07 -0)
(-3.41906e-08 -1.98304e+07 -0)
(-3.04943e-08 -1.98304e+07 -0)
(-2.12536e-08 -1.98304e+07 -0)
(-3.88109e-08 -1.98304e+07 -0)
(-2.49499e-08 -1.98304e+07 -0)
(-9.2407e-10 -1.98304e+07 -0)
(-1.20129e-08 -1.98304e+07 -0)
(-1.10888e-08 -1.98304e+07 -0)
(-5.54442e-09 -1.98304e+07 -0)
(6.46849e-09 -1.98304e+07 -0)
(1.47851e-08 -1.98304e+07 -0)
(1.57092e-08 -1.98304e+07 -0)
(2.21777e-08 -1.98304e+07 -0)
(4.15831e-08 -1.98304e+07 -0)
(6.5609e-08 -1.98304e+07 -0)
(5.72923e-08 -1.98304e+07 -0)
(4.89757e-08 -1.98304e+07 -0)
(5.17479e-08 -1.98304e+07 -0)
(3.78869e-08 -1.98304e+07 -0)
(4.34313e-08 -1.98304e+07 -0)
(4.98998e-08 -1.98304e+07 -0)
(5.54442e-08 -1.98304e+07 -0)
(7.66978e-08 -1.98304e+07 -0)
(9.51792e-08 -1.98304e+07 -0)
(8.50144e-08 -1.98304e+07 -0)
(1.00724e-07 -1.98304e+07 -0)
(1.27522e-07 -1.98304e+07 -0)
(1.41383e-07 -1.98304e+07 -0)
(1.61712e-07 -1.98304e+07 -0)
(1.74649e-07 -1.98304e+07 -0)
(1.76497e-07 -1.98304e+07 -0)
(2.32866e-07 -1.98304e+07 -0)
(3.16032e-07 -1.98304e+07 -0)
(4.33389e-07 -1.98304e+07 -0)
(3.49206e-06 -1.98304e+07 -0)
(-2.77896e-05 -1.98304e+07 -0)
(-0.000111321 -1.98304e+07 -0)
(-8.03044e-05 -1.98304e+07 -0)
(8.16055e-05 -1.13437e+07 -0)
(0.000113827 -1.13437e+07 -0)
(2.94774e-05 -1.13437e+07 -0)
(-2.85963e-06 -1.13437e+07 -0)
(-2.63191e-07 -1.13437e+07 -0)
(-2.55451e-07 -1.13437e+07 -0)
(-2.10295e-07 -1.13437e+07 -0)
(-1.81267e-07 -1.13437e+07 -0)
(-1.58044e-07 -1.13437e+07 -0)
(-1.50948e-07 -1.13437e+07 -0)
(-1.22565e-07 -1.13437e+07 -0)
(-1.19984e-07 -1.13437e+07 -0)
(-1.26435e-07 -1.13437e+07 -0)
(-1.10953e-07 -1.13437e+07 -0)
(-8.96657e-08 -1.13437e+07 -0)
(-8.25699e-08 -1.13437e+07 -0)
(-9.93419e-08 -1.13437e+07 -0)
(-8.96657e-08 -1.13437e+07 -0)
(-8.90207e-08 -1.13437e+07 -0)
(-7.93445e-08 -1.13437e+07 -0)
(-7.35388e-08 -1.13437e+07 -0)
(-6.90233e-08 -1.13437e+07 -0)
(-5.22513e-08 -1.13437e+07 -0)
(-4.64456e-08 -1.13437e+07 -0)
(-3.54792e-08 -1.13437e+07 -0)
(-4.77357e-08 -1.13437e+07 -0)
(-3.09637e-08 -1.13437e+07 -0)
(-7.74093e-09 -1.13437e+07 -0)
(-1.61269e-08 -1.13437e+07 -0)
(-1.09663e-08 -1.13437e+07 -0)
(-3.22539e-09 -1.13437e+07 -0)
(1.03212e-08 -1.13437e+07 -0)
(2.12875e-08 -1.13437e+07 -0)
(2.19326e-08 -1.13437e+07 -0)
(3.16088e-08 -1.13437e+07 -0)
(5.61217e-08 -1.13437e+07 -0)
(7.67642e-08 -1.13437e+07 -0)
(7.28937e-08 -1.13437e+07 -0)
(6.90233e-08 -1.13437e+07 -0)
(6.90233e-08 -1.13437e+07 -0)
(5.93471e-08 -1.13437e+07 -0)
(6.12823e-08 -1.13437e+07 -0)
(7.03134e-08 -1.13437e+07 -0)
(7.5474e-08 -1.13437e+07 -0)
(9.54714e-08 -1.13437e+07 -0)
(1.10308e-07 -1.13437e+07 -0)
(1.03212e-07 -1.13437e+07 -0)
(1.14179e-07 -1.13437e+07 -0)
(1.34821e-07 -1.13437e+07 -0)
(1.48368e-07 -1.13437e+07 -0)
(1.6385e-07 -1.13437e+07 -0)
(1.6514e-07 -1.13437e+07 -0)
(1.59979e-07 -1.13437e+07 -0)
(1.99329e-07 -1.13437e+07 -0)
(2.70287e-07 -1.13437e+07 -0)
(2.79318e-07 -1.13437e+07 -0)
(2.85769e-06 -1.13437e+07 -0)
(-2.94994e-05 -1.13437e+07 -0)
(-0.000113828 -1.13437e+07 -0)
(-8.16016e-05 -1.13437e+07 -0)
(7.83835e-05 -6.77012e+06 -0)
(0.000110069 -6.77012e+06 -0)
(2.95455e-05 -6.77012e+06 -0)
(-2.13595e-06 -6.77012e+06 -0)
(-1.20824e-07 -6.77012e+06 -0)
(-2.10169e-07 -6.77012e+06 -0)
(-1.74524e-07 -6.77012e+06 -0)
(-1.60636e-07 -6.77012e+06 -0)
(-1.49526e-07 -6.77012e+06 -0)
(-1.43508e-07 -6.77012e+06 -0)
(-1.19898e-07 -6.77012e+06 -0)
(-1.24065e-07 -6.77012e+06 -0)
(-1.2962e-07 -6.77012e+06 -0)
(-1.16658e-07 -6.77012e+06 -0)
(-9.99925e-08 -6.77012e+06 -0)
(-9.25856e-08 -6.77012e+06 -0)
(-1.06011e-07 -6.77012e+06 -0)
(-1.00918e-07 -6.77012e+06 -0)
(-9.86037e-08 -6.77012e+06 -0)
(-8.98081e-08 -6.77012e+06 -0)
(-8.56417e-08 -6.77012e+06 -0)
(-7.86978e-08 -6.77012e+06 -0)
(-5.92548e-08 -6.77012e+06 -0)
(-5.46255e-08 -6.77012e+06 -0)
(-4.39782e-08 -6.77012e+06 -0)
(-5.23109e-08 -6.77012e+06 -0)
(-3.65713e-08 -6.77012e+06 -0)
(-1.24991e-08 -6.77012e+06 -0)
(-1.80542e-08 -6.77012e+06 -0)
(-1.06473e-08 -6.77012e+06 -0)
(-1.85171e-09 -6.77012e+06 -0)
(1.20361e-08 -6.77012e+06 -0)
(2.5924e-08 -6.77012e+06 -0)
(2.63869e-08 -6.77012e+06 -0)
(3.65713e-08 -6.77012e+06 -0)
(6.20324e-08 -6.77012e+06 -0)
(8.47159e-08 -6.77012e+06 -0)
(8.00866e-08 -6.77012e+06 -0)
(7.63832e-08 -6.77012e+06 -0)
(8.05495e-08 -6.77012e+06 -0)
(7.22168e-08 -6.77012e+06 -0)
(7.31427e-08 -6.77012e+06 -0)
(8.14754e-08 -6.77012e+06 -0)
(8.74934e-08 -6.77012e+06 -0)
(1.05548e-07 -6.77012e+06 -0)
(1.16658e-07 -6.77012e+06 -0)
(1.10177e-07 -6.77012e+06 -0)
(1.17584e-07 -6.77012e+06 -0)
(1.36101e-07 -6.77012e+06 -0)
(1.45359e-07 -6.77012e+06 -0)
(1.56007e-07 -6.77012e+06 -0)
(1.52303e-07 -6.77012e+06 -0)
(1.42582e-07 -6.77012e+06 -0)
(1.6434e-07 -6.77012e+06 -0)
(2.22206e-07 -6.77012e+06 -0)
(1.38416e-07 -6.77012e+06 -0)
(2.13456e-06 -6.77012e+06 -0)
(-2.95644e-05 -6.77012e+06 -0)
(-0.000110069 -6.77012e+06 -0)
(-7.83802e-05 -6.77012e+06 -0)
(7.15551e-05 -4.14112e+06 -0)
(0.000101155 -4.14112e+06 -0)
(2.80841e-05 -4.14112e+06 -0)
(-1.4226e-06 -4.14112e+06 -0)
(-6.72624e-09 -4.14112e+06 -0)
(-1.65465e-07 -4.14112e+06 -0)
(-1.41251e-07 -4.14112e+06 -0)
(-1.37888e-07 -4.14112e+06 -0)
(-1.32507e-07 -4.14112e+06 -0)
(-1.31162e-07 -4.14112e+06 -0)
(-1.12328e-07 -4.14112e+06 -0)
(-1.16364e-07 -4.14112e+06 -0)
(-1.26453e-07 -4.14112e+06 -0)
(-1.14346e-07 -4.14112e+06 -0)
(-9.95483e-08 -4.14112e+06 -0)
(-9.484e-08 -4.14112e+06 -0)
(-1.06275e-07 -4.14112e+06 -0)
(-1.00894e-07 -4.14112e+06 -0)
(-1.01566e-07 -4.14112e+06 -0)
(-9.14768e-08 -4.14112e+06 -0)
(-8.60959e-08 -4.14112e+06 -0)
(-8.07149e-08 -4.14112e+06 -0)
(-6.45719e-08 -4.14112e+06 -0)
(-5.65004e-08 -4.14112e+06 -0)
(-4.57384e-08 -4.14112e+06 -0)
(-5.31373e-08 -4.14112e+06 -0)
(-3.90122e-08 -4.14112e+06 -0)
(-1.41251e-08 -4.14112e+06 -0)
(-1.68156e-08 -4.14112e+06 -0)
(-1.14346e-08 -4.14112e+06 -0)
(-2.01787e-09 -4.14112e+06 -0)
(1.41251e-08 -4.14112e+06 -0)
(2.6905e-08 -4.14112e+06 -0)
(2.95954e-08 -4.14112e+06 -0)
(3.83396e-08 -4.14112e+06 -0)
(6.2554e-08 -4.14112e+06 -0)
(8.34054e-08 -4.14112e+06 -0)
(8.00422e-08 -4.14112e+06 -0)
(7.93696e-08 -4.14112e+06 -0)
(8.4078e-08 -4.14112e+06 -0)
(7.53339e-08 -4.14112e+06 -0)
(7.73517e-08 -4.14112e+06 -0)
(8.4078e-08 -4.14112e+06 -0)
(9.01316e-08 -4.14112e+06 -0)
(1.05602e-07 -4.14112e+06 -0)
(1.15691e-07 -4.14112e+06 -0)
(1.0762e-07 -4.14112e+06 -0)
(1.15019e-07 -4.14112e+06 -0)
(1.29816e-07 -4.14112e+06 -0)
(1.35197e-07 -4.14112e+06 -0)
(1.39906e-07 -4.14112e+06 -0)
(1.3318e-07 -4.14112e+06 -0)
(1.23763e-07 -4.14112e+06 -0)
(1.33852e-07 -4.14112e+06 -0)
(1.74882e-07 -4.14112e+06 -0)
(1.95061e-08 -4.14112e+06 -0)
(1.41991e-06 -4.14112e+06 -0)
(-2.80995e-05 -4.14112e+06 -0)
(-0.000101155 -4.14112e+06 -0)
(-7.15517e-05 -4.14112e+06 -0)
(6.24057e-05 -2.57449e+06 -0)
(8.88128e-05 -2.57449e+06 -0)
(2.54656e-05 -2.57449e+06 -0)
(-7.85897e-07 -2.57449e+06 -0)
(7.75105e-08 -2.57449e+06 -0)
(-1.23624e-07 -2.57449e+06 -0)
(-1.10379e-07 -2.57449e+06 -0)
(-1.15775e-07 -2.57449e+06 -0)
(-1.14303e-07 -2.57449e+06 -0)
(-1.16266e-07 -2.57449e+06 -0)
(-1.01058e-07 -2.57449e+06 -0)
(-1.04983e-07 -2.57449e+06 -0)
(-1.14794e-07 -2.57449e+06 -0)
(-1.04983e-07 -2.57449e+06 -0)
(-9.32088e-08 -2.57449e+06 -0)
(-8.87936e-08 -2.57449e+06 -0)
(-9.95862e-08 -2.57449e+06 -0)
(-9.56617e-08 -2.57449e+06 -0)
(-9.36994e-08 -2.57449e+06 -0)
(-8.58502e-08 -2.57449e+06 -0)
(-8.19256e-08 -2.57449e+06 -0)
(-7.65293e-08 -2.57449e+06 -0)
(-6.18121e-08 -2.57449e+06 -0)
(-5.3963e-08 -2.57449e+06 -0)
(-4.46421e-08 -2.57449e+06 -0)
(-4.95478e-08 -2.57449e+06 -0)
(-3.77741e-08 -2.57449e+06 -0)
(-1.56983e-08 -2.57449e+06 -0)
(-1.47172e-08 -2.57449e+06 -0)
(-9.81145e-09 -2.57449e+06 -0)
(-4.90573e-10 -2.57449e+06 -0)
(1.32455e-08 -2.57449e+06 -0)
(2.64909e-08 -2.57449e+06 -0)
(2.64909e-08 -2.57449e+06 -0)
(3.82647e-08 -2.57449e+06 -0)
(5.88687e-08 -2.57449e+06 -0)
(7.55482e-08 -2.57449e+06 -0)
(7.55482e-08 -2.57449e+06 -0)
(7.50576e-08 -2.57449e+06 -0)
(7.94728e-08 -2.57449e+06 -0)
(7.35859e-08 -2.57449e+06 -0)
(7.40765e-08 -2.57449e+06 -0)
(8.04539e-08 -2.57449e+06 -0)
(8.58502e-08 -2.57449e+06 -0)
(9.86051e-08 -2.57449e+06 -0)
(1.06454e-07 -2.57449e+06 -0)
(1.00077e-07 -2.57449e+06 -0)
(1.04001e-07 -2.57449e+06 -0)
(1.17737e-07 -2.57449e+06 -0)
(1.197e-07 -2.57449e+06 -0)
(1.22643e-07 -2.57449e+06 -0)
(1.14794e-07 -2.57449e+06 -0)
(1.0302e-07 -2.57449e+06 -0)
(1.03511e-07 -2.57449e+06 -0)
(1.31964e-07 -2.57449e+06 -0)
(-6.62273e-08 -2.57449e+06 -0)
(7.85407e-07 -2.57449e+06 -0)
(-2.54779e-05 -2.57449e+06 -0)
(-8.88123e-05 -2.57449e+06 -0)
(-6.24033e-05 -2.57449e+06 -0)
(5.23472e-05 -1.62322e+06 -0)
(7.50034e-05 -1.62322e+06 -0)
(2.21936e-05 -1.62322e+06 -0)
(-2.74976e-07 -1.62322e+06 -0)
(1.33192e-07 -1.62322e+06 -0)
(-8.80783e-08 -1.62322e+06 -0)
(-8.34238e-08 -1.62322e+06 -0)
(-9.48811e-08 -1.62322e+06 -0)
(-9.59553e-08 -1.62322e+06 -0)
(-9.88196e-08 -1.62322e+06 -0)
(-8.62881e-08 -1.62322e+06 -0)
(-9.09427e-08 -1.62322e+06 -0)
(-9.91776e-08 -1.62322e+06 -0)
(-9.20168e-08 -1.62322e+06 -0)
(-8.19916e-08 -1.62322e+06 -0)
(-7.91273e-08 -1.62322e+06 -0)
(-8.80783e-08 -1.62322e+06 -0)
(-8.4856e-08 -1.62322e+06 -0)
(-8.37818e-08 -1.62322e+06 -0)
(-7.6979e-08 -1.62322e+06 -0)
(-7.26825e-08 -1.62322e+06 -0)
(-6.8028e-08 -1.62322e+06 -0)
(-5.54965e-08 -1.62322e+06 -0)
(-4.83357e-08 -1.62322e+06 -0)
(-4.04588e-08 -1.62322e+06 -0)
(-4.40392e-08 -1.62322e+06 -0)
(-3.32979e-08 -1.62322e+06 -0)
(-1.43217e-08 -1.62322e+06 -0)
(-1.39636e-08 -1.62322e+06 -0)
(-7.16084e-09 -1.62322e+06 -0)
(-0 -1.62322e+06 -0)
(1.18154e-08 -1.62322e+06 -0)
(2.21986e-08 -1.62322e+06 -0)
(2.47049e-08 -1.62322e+06 -0)
(3.4014e-08 -1.62322e+06 -0)
(5.22741e-08 -1.62322e+06 -0)
(6.73119e-08 -1.62322e+06 -0)
(6.69539e-08 -1.62322e+06 -0)
(6.69539e-08 -1.62322e+06 -0)
(7.01762e-08 -1.62322e+06 -0)
(6.69539e-08 -1.62322e+06 -0)
(6.76699e-08 -1.62322e+06 -0)
(7.12504e-08 -1.62322e+06 -0)
(7.55469e-08 -1.62322e+06 -0)
(8.77203e-08 -1.62322e+06 -0)
(9.41651e-08 -1.62322e+06 -0)
(8.77203e-08 -1.62322e+06 -0)
(9.05846e-08 -1.62322e+06 -0)
(1.00968e-07 -1.62322e+06 -0)
(1.02042e-07 -1.62322e+06 -0)
(1.03832e-07 -1.62322e+06 -0)
(9.66714e-08 -1.62322e+06 -0)
(8.41399e-08 -1.62322e+06 -0)
(7.6979e-08 -1.62322e+06 -0)
(9.48811e-08 -1.62322e+06 -0)
(-1.2245e-07 -1.62322e+06 -0)
(2.73544e-07 -1.62322e+06 -0)
(-2.2204e-05 -1.62322e+06 -0)
(-7.50019e-05 -1.62322e+06 -0)
(-5.2345e-05 -1.62322e+06 -0)
(4.25823e-05 -1.03972e+06 -0)
(6.14373e-05 -1.03972e+06 -0)
(1.87556e-05 -1.03972e+06 -0)
(1.02821e-07 -1.03972e+06 -0)
(1.66136e-07 -1.03972e+06 -0)
(-5.8867e-08 -1.03972e+06 -0)
(-6.33148e-08 -1.03972e+06 -0)
(-7.63963e-08 -1.03972e+06 -0)
(-7.79661e-08 -1.03972e+06 -0)
(-8.18906e-08 -1.03972e+06 -0)
(-7.14253e-08 -1.03972e+06 -0)
(-7.58731e-08 -1.03972e+06 -0)
(-8.3722e-08 -1.03972e+06 -0)
(-7.74429e-08 -1.03972e+06 -0)
(-6.93323e-08 -1.03972e+06 -0)
(-6.72392e-08 -1.03972e+06 -0)
(-7.378e-08 -1.03972e+06 -0)
(-7.22102e-08 -1.03972e+06 -0)
(-7.06404e-08 -1.03972e+06 -0)
(-6.51462e-08 -1.03972e+06 -0)
(-6.30531e-08 -1.03972e+06 -0)
(-5.80821e-08 -1.03972e+06 -0)
(-4.70936e-08 -1.03972e+06 -0)
(-4.13377e-08 -1.03972e+06 -0)
(-3.42737e-08 -1.03972e+06 -0)
(-3.689e-08 -1.03972e+06 -0)
(-2.85178e-08 -1.03972e+06 -0)
(-1.25583e-08 -1.03972e+06 -0)
(-1.12501e-08 -1.03972e+06 -0)
(-7.06404e-09 -1.03972e+06 -0)
(-5.23263e-10 -1.03972e+06 -0)
(1.07269e-08 -1.03972e+06 -0)
(2.01456e-08 -1.03972e+06 -0)
(2.11921e-08 -1.03972e+06 -0)
(2.85178e-08 -1.03972e+06 -0)
(4.47389e-08 -1.03972e+06 -0)
(5.62507e-08 -1.03972e+06 -0)
(5.62507e-08 -1.03972e+06 -0)
(5.75589e-08 -1.03972e+06 -0)
(5.96519e-08 -1.03972e+06 -0)
(5.65124e-08 -1.03972e+06 -0)
(5.75589e-08 -1.03972e+06 -0)
(6.09601e-08 -1.03972e+06 -0)
(6.54078e-08 -1.03972e+06 -0)
(7.43033e-08 -1.03972e+06 -0)
(7.95359e-08 -1.03972e+06 -0)
(7.32568e-08 -1.03972e+06 -0)
(7.56114e-08 -1.03972e+06 -0)
(8.50302e-08 -1.03972e+06 -0)
(8.50302e-08 -1.03972e+06 -0)
(8.52918e-08 -1.03972e+06 -0)
(7.84894e-08 -1.03972e+06 -0)
(6.77625e-08 -1.03972e+06 -0)
(5.80821e-08 -1.03972e+06 -0)
(6.33148e-08 -1.03972e+06 -0)
(-1.56979e-07 -1.03972e+06 -0)
(-1.02821e-07 -1.03972e+06 -0)
(-1.87647e-05 -1.03972e+06 -0)
(-6.1437e-05 -1.03972e+06 -0)
(-4.25808e-05 -1.03972e+06 -0)
(3.39126e-05 -679086 -0)
(4.92809e-05 -679086 -0)
(1.55242e-05 -679086 -0)
(3.57718e-07 -679086 -0)
(1.80299e-07 -679086 -0)
(-3.55222e-08 -679086 -0)
(-4.64669e-08 -679086 -0)
(-6.02918e-08 -679086 -0)
(-6.3364e-08 -679086 -0)
(-6.64362e-08 -679086 -0)
(-5.79876e-08 -679086 -0)
(-6.22119e-08 -679086 -0)
(-6.85483e-08 -679086 -0)
(-6.27879e-08 -679086 -0)
(-5.66436e-08 -679086 -0)
(-5.60675e-08 -679086 -0)
(-6.06758e-08 -679086 -0)
(-5.97158e-08 -679086 -0)
(-5.77956e-08 -679086 -0)
(-5.37634e-08 -679086 -0)
(-5.18433e-08 -679086 -0)
(-4.7427e-08 -679086 -0)
(-3.89785e-08 -679086 -0)
(-3.45622e-08 -679086 -0)
(-2.84178e-08 -679086 -0)
(-3.01459e-08 -679086 -0)
(-2.36175e-08 -679086 -0)
(-1.05607e-08 -679086 -0)
(-8.83256e-09 -679086 -0)
(-5.95237e-09 -679086 -0)
(-1.92012e-10 -679086 -0)
(8.64054e-09 -679086 -0)
(1.6513e-08 -679086 -0)
(1.72811e-08 -679086 -0)
(2.41935e-08 -679086 -0)
(3.62903e-08 -679086 -0)
(4.58909e-08 -679086 -0)
(4.60829e-08 -679086 -0)
(4.7235e-08 -679086 -0)
(5.03072e-08 -679086 -0)
(4.66589e-08 -679086 -0)
(4.7619e-08 -679086 -0)
(5.03072e-08 -679086 -0)
(5.33794e-08 -679086 -0)
(6.10598e-08 -679086 -0)
(6.50921e-08 -679086 -0)
(6.04838e-08 -679086 -0)
(6.27879e-08 -679086 -0)
(6.91243e-08 -679086 -0)
(6.93164e-08 -679086 -0)
(6.89323e-08 -679086 -0)
(6.25959e-08 -679086 -0)
(5.35714e-08 -679086 -0)
(4.22427e-08 -679086 -0)
(3.93625e-08 -679086 -0)
(-1.73579e-07 -679086 -0)
(-3.57911e-07 -679086 -0)
(-1.55309e-05 -679086 -0)
(-4.92799e-05 -679086 -0)
(-3.39113e-05 -679086 -0)
(2.67034e-05 -454236 -0)
(3.90949e-05 -454236 -0)
(1.27123e-05 -454236 -0)
(5.15561e-07 -454236 -0)
(1.85408e-07 -454236 -0)
(-1.87683e-08 -454236 -0)
(-3.38399e-08 -454236 -0)
(-4.72052e-08 -454236 -0)
(-5.01911e-08 -454236 -0)
(-5.33191e-08 -454236 -0)
(-4.69208e-08 -454236 -0)
(-5.01911e-08 -454236 -0)
(-5.53097e-08 -454236 -0)
(-5.06176e-08 -454236 -0)
(-4.59256e-08 -454236 -0)
(-4.50724e-08 -454236 -0)
(-4.87692e-08 -454236 -0)
(-4.84849e-08 -454236 -0)
(-4.67787e-08 -454236 -0)
(-4.29397e-08 -454236 -0)
(-4.25131e-08 -454236 -0)
(-3.8532e-08 -454236 -0)
(-3.15649e-08 -454236 -0)
(-2.7726e-08 -454236 -0)
(-2.34604e-08 -454236 -0)
(-2.47401e-08 -454236 -0)
(-1.87683e-08 -454236 -0)
(-8.24669e-09 -454236 -0)
(-6.68267e-09 -454236 -0)
(-4.97645e-09 -454236 -0)
(-4.26553e-10 -454236 -0)
(6.96703e-09 -454236 -0)
(1.33653e-08 -454236 -0)
(1.40763e-08 -454236 -0)
(1.91949e-08 -454236 -0)
(2.97165e-08 -454236 -0)
(3.73945e-08 -454236 -0)
(3.71101e-08 -454236 -0)
(3.82476e-08 -454236 -0)
(3.99538e-08 -454236 -0)
(3.79632e-08 -454236 -0)
(3.88163e-08 -454236 -0)
(4.06647e-08 -454236 -0)
(4.35084e-08 -454236 -0)
(4.97645e-08 -454236 -0)
(5.20395e-08 -454236 -0)
(4.84849e-08 -454236 -0)
(5.07598e-08 -454236 -0)
(5.65894e-08 -454236 -0)
(5.57363e-08 -454236 -0)
(5.50254e-08 -454236 -0)
(4.91958e-08 -454236 -0)
(4.19444e-08 -454236 -0)
(3.0854e-08 -454236 -0)
(2.17542e-08 -454236 -0)
(-1.80005e-07 -454236 -0)
(-5.15703e-07 -454236 -0)
(-1.27173e-05 -454236 -0)
(-3.90947e-05 -454236 -0)
(-2.67028e-05 -454236 -0)
(2.09825e-05 -312328 -0)
(3.09587e-05 -312328 -0)
(1.03961e-05 -312328 -0)
(6.04749e-07 -312328 -0)
(1.84467e-07 -312328 -0)
(-5.5511e-09 -312328 -0)
(-2.38057e-08 -312328 -0)
(-3.68294e-08 -312328 -0)
(-4.03522e-08 -312328 -0)
(-4.2594e-08 -312328 -0)
(-3.76834e-08 -312328 -0)
(-4.06725e-08 -312328 -0)
(-4.4729e-08 -312328 -0)
(-4.10995e-08 -312328 -0)
(-3.68294e-08 -312328 -0)
(-3.59754e-08 -312328 -0)
(-3.94982e-08 -312328 -0)
(-3.90712e-08 -312328 -0)
(-3.71497e-08 -312328 -0)
(-3.43741e-08 -312328 -0)
(-3.40539e-08 -312328 -0)
(-3.0531e-08 -312328 -0)
(-2.53002e-08 -312328 -0)
(-2.27382e-08 -312328 -0)
(-1.87883e-08 -312328 -0)
(-1.96423e-08 -312328 -0)
(-1.52655e-08 -312328 -0)
(-7.15238e-09 -312328 -0)
(-5.44435e-09 -312328 -0)
(-3.94982e-09 -312328 -0)
(-2.13504e-10 -312328 -0)
(5.97811e-09 -312328 -0)
(1.07819e-08 -312328 -0)
(1.07819e-08 -312328 -0)
(1.55858e-08 -312328 -0)
(2.41259e-08 -312328 -0)
(2.97838e-08 -312328 -0)
(3.0104e-08 -312328 -0)
(3.06378e-08 -312328 -0)
(3.22391e-08 -312328 -0)
(3.0104e-08 -312328 -0)
(3.11716e-08 -312328 -0)
(3.28796e-08 -312328 -0)
(3.48011e-08 -312328 -0)
(4.0032e-08 -312328 -0)
(4.2167e-08 -312328 -0)
(3.90712e-08 -312328 -0)
(4.07792e-08 -312328 -0)
(4.53696e-08 -312328 -0)
(4.49425e-08 -312328 -0)
(4.40885e-08 -312328 -0)
(3.93914e-08 -312328 -0)
(3.28796e-08 -312328 -0)
(2.14571e-08 -312328 -0)
(8.00639e-09 -312328 -0)
(-1.79877e-07 -312328 -0)
(-6.05176e-07 -312328 -0)
(-1.04004e-05 -312328 -0)
(-3.09585e-05 -312328 -0)
(-2.09817e-05 -312328 -0)
(1.65764e-05 -221245 -0)
(2.46561e-05 -221245 -0)
(8.55413e-06 -221245 -0)
(6.49745e-07 -221245 -0)
(1.81527e-07 -221245 -0)
(4.16085e-09 -221245 -0)
(-1.62355e-08 -221245 -0)
(-2.8718e-08 -221245 -0)
(-3.23078e-08 -221245 -0)
(-3.42658e-08 -221245 -0)
(-3.05945e-08 -221245 -0)
(-3.28789e-08 -221245 -0)
(-3.62239e-08 -221245 -0)
(-3.32868e-08 -221245 -0)
(-2.9697e-08 -221245 -0)
(-2.91259e-08 -221245 -0)
(-3.17367e-08 -221245 -0)
(-3.14103e-08 -221245 -0)
(-3.0105e-08 -221245 -0)
(-2.7739e-08 -221245 -0)
(-2.74942e-08 -221245 -0)
(-2.48019e-08 -221245 -0)
(-2.03147e-08 -221245 -0)
(-1.80303e-08 -221245 -0)
(-1.50933e-08 -221245 -0)
(-1.59091e-08 -221245 -0)
(-1.23194e-08 -221245 -0)
(-5.5478e-09 -221245 -0)
(-4.32402e-09 -221245 -0)
(-3.01865e-09 -221245 -0)
(-4.07926e-10 -221245 -0)
(4.56877e-09 -221245 -0)
(8.97438e-09 -221245 -0)
(8.89279e-09 -221245 -0)
(1.21562e-08 -221245 -0)
(1.95805e-08 -221245 -0)
(2.40677e-08 -221245 -0)
(2.38229e-08 -221245 -0)
(2.47203e-08 -221245 -0)
(2.59441e-08 -221245 -0)
(2.4394e-08 -221245 -0)
(2.52914e-08 -221245 -0)
(2.65968e-08 -221245 -0)
(2.82285e-08 -221245 -0)
(3.21446e-08 -221245 -0)
(3.36131e-08 -221245 -0)
(3.14919e-08 -221245 -0)
(3.31236e-08 -221245 -0)
(3.6795e-08 -221245 -0)
(3.62239e-08 -221245 -0)
(3.55712e-08 -221245 -0)
(3.17367e-08 -221245 -0)
(2.58625e-08 -221245 -0)
(1.47669e-08 -221245 -0)
(-2.36597e-09 -221245 -0)
(-1.78182e-07 -221245 -0)
(-6.50071e-07 -221245 -0)
(-8.5578e-06 -221245 -0)
(-2.46562e-05 -221245 -0)
(-1.65757e-05 -221245 -0)
(1.32319e-05 -161489 -0)
(1.98468e-05 -161489 -0)
(7.1172e-06 -161489 -0)
(6.68736e-07 -161489 -0)
(1.78219e-07 -161489 -0)
(1.19576e-08 -161489 -0)
(-1.03675e-08 -161489 -0)
(-2.2834e-08 -161489 -0)
(-2.63322e-08 -161489 -0)
(-2.79223e-08 -161489 -0)
(-2.48057e-08 -161489 -0)
(-2.69046e-08 -161489 -0)
(-2.96396e-08 -161489 -0)
(-2.70954e-08 -161489 -0)
(-2.4106e-08 -161489 -0)
(-2.36608e-08 -161489 -0)
(-2.56325e-08 -161489 -0)
(-2.57598e-08 -161489 -0)
(-2.46149e-08 -161489 -0)
(-2.25795e-08 -161489 -0)
(-2.25159e-08 -161489 -0)
(-2.01626e-08 -161489 -0)
(-1.62827e-08 -161489 -0)
(-1.4947e-08 -161489 -0)
(-1.23392e-08 -161489 -0)
(-1.25937e-08 -161489 -0)
(-9.98588e-09 -161489 -0)
(-4.57951e-09 -161489 -0)
(-3.24382e-09 -161489 -0)
(-2.54417e-09 -161489 -0)
(-5.08835e-10 -161489 -0)
(3.81626e-09 -161489 -0)
(7.3781e-09 -161489 -0)
(6.80566e-09 -161489 -0)
(1.00495e-08 -161489 -0)
(1.61555e-08 -161489 -0)
(1.94629e-08 -161489 -0)
(1.95901e-08 -161489 -0)
(2.00354e-08 -161489 -0)
(2.09258e-08 -161489 -0)
(1.98446e-08 -161489 -0)
(2.05442e-08 -161489 -0)
(2.15619e-08 -161489 -0)
(2.30248e-08 -161489 -0)
(2.63322e-08 -161489 -0)
(2.72227e-08 -161489 -0)
(2.55689e-08 -161489 -0)
(2.72863e-08 -161489 -0)
(3.02757e-08 -161489 -0)
(2.9576e-08 -161489 -0)
(2.88764e-08 -161489 -0)
(2.55053e-08 -161489 -0)
(2.05442e-08 -161489 -0)
(9.34984e-09 -161489 -0)
(-1.05583e-08 -161489 -0)
(-1.75739e-07 -161489 -0)
(-6.69118e-07 -161489 -0)
(-7.12006e-06 -161489 -0)
(-1.98469e-05 -161489 -0)
(-1.3231e-05 -161489 -0)
(1.06954e-05 -121231 -0)
(1.61825e-05 -121231 -0)
(6.00032e-06 -121231 -0)
(6.73334e-07 -121231 -0)
(1.75883e-07 -121231 -0)
(1.80588e-08 -121231 -0)
(-5.81725e-09 -121231 -0)
(-1.79576e-08 -121231 -0)
(-2.16503e-08 -121231 -0)
(-2.31678e-08 -121231 -0)
(-2.04868e-08 -121231 -0)
(-2.21561e-08 -121231 -0)
(-2.45842e-08 -121231 -0)
(-2.24596e-08 -121231 -0)
(-1.98292e-08 -121231 -0)
(-1.96775e-08 -121231 -0)
(-2.12962e-08 -121231 -0)
(-2.10939e-08 -121231 -0)
(-2.02339e-08 -121231 -0)
(-1.8514e-08 -121231 -0)
(-1.8514e-08 -121231 -0)
(-1.64906e-08 -121231 -0)
(-1.36579e-08 -121231 -0)
(-1.20898e-08 -121231 -0)
(-1.01675e-08 -121231 -0)
(-1.0471e-08 -121231 -0)
(-8.34649e-09 -121231 -0)
(-3.74327e-09 -121231 -0)
(-2.52924e-09 -121231 -0)
(-2.07398e-09 -121231 -0)
(-4.55263e-10 -121231 -0)
(3.03509e-09 -121231 -0)
(6.17134e-09 -121231 -0)
(5.61491e-09 -121231 -0)
(7.99239e-09 -121231 -0)
(1.33544e-08 -121231 -0)
(1.6086e-08 -121231 -0)
(1.60354e-08 -121231 -0)
(1.6693e-08 -121231 -0)
(1.73e-08 -121231 -0)
(1.62377e-08 -121231 -0)
(1.71988e-08 -121231 -0)
(1.80588e-08 -121231 -0)
(1.86658e-08 -121231 -0)
(2.12962e-08 -121231 -0)
(2.27126e-08 -121231 -0)
(2.1195e-08 -121231 -0)
(2.25608e-08 -121231 -0)
(2.50395e-08 -121231 -0)
(2.4483e-08 -121231 -0)
(2.39266e-08 -121231 -0)
(2.08915e-08 -121231 -0)
(1.59848e-08 -121231 -0)
(5.10906e-09 -121231 -0)
(-1.69965e-08 -121231 -0)
(-1.73759e-07 -121231 -0)
(-6.73385e-07 -121231 -0)
(-6.0029e-06 -121231 -0)
(-1.61826e-05 -121231 -0)