/*--------------------------------*- C++ -*----------------------------------*\
| =========                 |                                                 |
| \\      /  F ield         | foam-extend: Open Source CFD                    |
|  \\    /   O peration     | Version:     4.0                                |
|   \\  /    A nd           | Web:         http://www.foam-extend.org         |
|    \\/     M anipulation  |                                                 |
\*---------------------------------------------------------------------------*/
FoamFile
{
    version     2.0;
    format      ascii;
    class       volVectorField;
    location    "10";
    object      bodyForce;
}
// * * * * * * * * * * * * * * * * * * * * * * * * * * * * * * * * * * * * * //

dimensions      [0 -1 0 0 0 0 0];

internalField   nonuniform List<vector> 
6960
(
(5.42255e-06 -4.40567e+08 -0)
(6.24258e-06 -4.40567e+08 -0)
(-8.67378e-07 -4.40567e+08 -0)
(-2.07893e-06 -4.40567e+08 -0)
(-5.52073e-07 -4.40567e+08 -0)
(-2.52937e-07 -4.40567e+08 -0)
(-1.5592e-07 -4.40567e+08 -0)
(-1.10877e-07 -4.40567e+08 -0)
(-8.54673e-08 -4.40567e+08 -0)
(-6.00581e-08 -4.40567e+08 -0)
(-4.38886e-08 -4.40567e+08 -0)
(-3.58039e-08 -4.40567e+08 -0)
(-2.07893e-08 -4.40567e+08 -0)
(-1.03947e-08 -4.40567e+08 -0)
(-1.15496e-09 -4.40567e+08 -0)
(9.23971e-09 -4.40567e+08 -0)
(1.03947e-08 -4.40567e+08 -0)
(5.77482e-09 -4.40567e+08 -0)
(1.27046e-08 -4.40567e+08 -0)
(2.07893e-08 -4.40567e+08 -0)
(1.84794e-08 -4.40567e+08 -0)
(1.84794e-08 -4.40567e+08 -0)
(1.61695e-08 -4.40567e+08 -0)
(2.19443e-08 -4.40567e+08 -0)
(1.73245e-08 -4.40567e+08 -0)
(1.50145e-08 -4.40567e+08 -0)
(1.61695e-08 -4.40567e+08 -0)
(4.61985e-09 -4.40567e+08 -0)
(3.46489e-09 -4.40567e+08 -0)
(4.61985e-09 -4.40567e+08 -0)
(-1.15496e-09 -4.40567e+08 -0)
(-0 -4.40567e+08 -0)
(-5.77482e-09 -4.40567e+08 -0)
(-1.15496e-08 -4.40567e+08 -0)
(-1.50145e-08 -4.40567e+08 -0)
(-1.61695e-08 -4.40567e+08 -0)
(-1.96344e-08 -4.40567e+08 -0)
(-2.42542e-08 -4.40567e+08 -0)
(-2.30993e-08 -4.40567e+08 -0)
(-1.96344e-08 -4.40567e+08 -0)
(-1.61695e-08 -4.40567e+08 -0)
(-1.84794e-08 -4.40567e+08 -0)
(-9.23971e-09 -4.40567e+08 -0)
(-6.92978e-09 -4.40567e+08 -0)
(-8.08475e-09 -4.40567e+08 -0)
(-1.15496e-09 -4.40567e+08 -0)
(1.61695e-08 -4.40567e+08 -0)
(2.88741e-08 -4.40567e+08 -0)
(2.77191e-08 -4.40567e+08 -0)
(4.50436e-08 -4.40567e+08 -0)
(5.65932e-08 -4.40567e+08 -0)
(7.73826e-08 -4.40567e+08 -0)
(1.12031e-07 -4.40567e+08 -0)
(1.61695e-07 -4.40567e+08 -0)
(2.56402e-07 -4.40567e+08 -0)
(5.46298e-07 -4.40567e+08 -0)
(2.07316e-06 -4.40567e+08 -0)
(8.75463e-07 -4.40567e+08 -0)
(-6.24951e-06 -4.40567e+08 -0)
(-5.43872e-06 -4.40567e+08 -0)
(1.04192e-05 -1.62562e+08 -0)
(1.2108e-05 -1.62562e+08 -0)
(-1.37575e-06 -1.62562e+08 -0)
(-3.75531e-06 -1.62562e+08 -0)
(-9.72616e-07 -1.62562e+08 -0)
(-4.42413e-07 -1.62562e+08 -0)
(-2.71455e-07 -1.62562e+08 -0)
(-1.91751e-07 -1.62562e+08 -0)
(-1.46701e-07 -1.62562e+08 -0)
(-1.12047e-07 -1.62562e+08 -0)
(-7.62383e-08 -1.62562e+08 -0)
(-5.89114e-08 -1.62562e+08 -0)
(-3.92743e-08 -1.62562e+08 -0)
(-1.96371e-08 -1.62562e+08 -0)
(-3.46538e-09 -1.62562e+08 -0)
(1.38615e-08 -1.62562e+08 -0)
(1.96371e-08 -1.62562e+08 -0)
(1.15513e-08 -1.62562e+08 -0)
(1.96371e-08 -1.62562e+08 -0)
(3.46538e-08 -1.62562e+08 -0)
(3.6964e-08 -1.62562e+08 -0)
(3.00333e-08 -1.62562e+08 -0)
(2.54128e-08 -1.62562e+08 -0)
(3.6964e-08 -1.62562e+08 -0)
(2.7723e-08 -1.62562e+08 -0)
(2.65679e-08 -1.62562e+08 -0)
(2.7723e-08 -1.62562e+08 -0)
(1.15513e-08 -1.62562e+08 -0)
(1.03961e-08 -1.62562e+08 -0)
(8.08588e-09 -1.62562e+08 -0)
(-0 -1.62562e+08 -0)
(-2.31025e-09 -1.62562e+08 -0)
(-1.38615e-08 -1.62562e+08 -0)
(-1.73269e-08 -1.62562e+08 -0)
(-2.42576e-08 -1.62562e+08 -0)
(-2.65679e-08 -1.62562e+08 -0)
(-3.6964e-08 -1.62562e+08 -0)
(-4.15845e-08 -1.62562e+08 -0)
(-3.6964e-08 -1.62562e+08 -0)
(-3.34987e-08 -1.62562e+08 -0)
(-2.7723e-08 -1.62562e+08 -0)
(-3.6964e-08 -1.62562e+08 -0)
(-1.96371e-08 -1.62562e+08 -0)
(-1.15513e-08 -1.62562e+08 -0)
(-9.24101e-09 -1.62562e+08 -0)
(-0 -1.62562e+08 -0)
(2.31025e-08 -1.62562e+08 -0)
(4.73602e-08 -1.62562e+08 -0)
(5.42909e-08 -1.62562e+08 -0)
(7.97037e-08 -1.62562e+08 -0)
(1.02806e-07 -1.62562e+08 -0)
(1.32839e-07 -1.62562e+08 -0)
(1.92906e-07 -1.62562e+08 -0)
(2.86471e-07 -1.62562e+08 -0)
(4.53964e-07 -1.62562e+08 -0)
(9.61065e-07 -1.62562e+08 -0)
(3.74492e-06 -1.62562e+08 -0)
(1.38384e-06 -1.62562e+08 -0)
(-1.21219e-05 -1.62562e+08 -0)
(-1.04285e-05 -1.62562e+08 -0)
(1.35464e-05 -7.6194e+07 -0)
(1.53487e-05 -7.6194e+07 -0)
(-1.65493e-06 -7.6194e+07 -0)
(-4.21845e-06 -7.6194e+07 -0)
(-1.07219e-06 -7.6194e+07 -0)
(-4.89449e-07 -7.6194e+07 -0)
(-3.00159e-07 -7.6194e+07 -0)
(-2.10923e-07 -7.6194e+07 -0)
(-1.636e-07 -7.6194e+07 -0)
(-1.23038e-07 -7.6194e+07 -0)
(-8.78844e-08 -7.6194e+07 -0)
(-6.48993e-08 -7.6194e+07 -0)
(-4.19141e-08 -7.6194e+07 -0)
(-2.16331e-08 -7.6194e+07 -0)
(-5.40827e-09 -7.6194e+07 -0)
(1.62248e-08 -7.6194e+07 -0)
(2.16331e-08 -7.6194e+07 -0)
(1.21686e-08 -7.6194e+07 -0)
(2.29852e-08 -7.6194e+07 -0)
(3.38017e-08 -7.6194e+07 -0)
(4.05621e-08 -7.6194e+07 -0)
(3.51538e-08 -7.6194e+07 -0)
(2.70414e-08 -7.6194e+07 -0)
(3.78579e-08 -7.6194e+07 -0)
(3.10976e-08 -7.6194e+07 -0)
(3.10976e-08 -7.6194e+07 -0)
(3.24496e-08 -7.6194e+07 -0)
(9.46448e-09 -7.6194e+07 -0)
(9.46448e-09 -7.6194e+07 -0)
(8.11241e-09 -7.6194e+07 -0)
(-1.35207e-09 -7.6194e+07 -0)
(-4.0562e-09 -7.6194e+07 -0)
(-1.21686e-08 -7.6194e+07 -0)
(-1.62248e-08 -7.6194e+07 -0)
(-2.97455e-08 -7.6194e+07 -0)
(-2.83934e-08 -7.6194e+07 -0)
(-3.78579e-08 -7.6194e+07 -0)
(-4.59703e-08 -7.6194e+07 -0)
(-4.59703e-08 -7.6194e+07 -0)
(-3.65058e-08 -7.6194e+07 -0)
(-2.70414e-08 -7.6194e+07 -0)
(-3.65058e-08 -7.6194e+07 -0)
(-2.43372e-08 -7.6194e+07 -0)
(-1.35207e-08 -7.6194e+07 -0)
(-6.76034e-09 -7.6194e+07 -0)
(-0 -7.6194e+07 -0)
(2.43372e-08 -7.6194e+07 -0)
(5.40827e-08 -7.6194e+07 -0)
(6.35472e-08 -7.6194e+07 -0)
(8.38282e-08 -7.6194e+07 -0)
(1.16278e-07 -7.6194e+07 -0)
(1.51432e-07 -7.6194e+07 -0)
(2.13627e-07 -7.6194e+07 -0)
(3.1368e-07 -7.6194e+07 -0)
(4.96209e-07 -7.6194e+07 -0)
(1.05597e-06 -7.6194e+07 -0)
(4.21305e-06 -7.6194e+07 -0)
(1.6671e-06 -7.6194e+07 -0)
(-1.53676e-05 -7.6194e+07 -0)
(-1.35599e-05 -7.6194e+07 -0)
(1.53091e-05 -4.12363e+07 -0)
(1.73154e-05 -4.12363e+07 -0)
(-1.47838e-06 -4.12363e+07 -0)
(-4.23824e-06 -4.12363e+07 -0)
(-1.06805e-06 -4.12363e+07 -0)
(-4.85242e-07 -4.12363e+07 -0)
(-2.98811e-07 -4.12363e+07 -0)
(-2.11694e-07 -4.12363e+07 -0)
(-1.61166e-07 -4.12363e+07 -0)
(-1.23706e-07 -4.12363e+07 -0)
(-8.97305e-08 -4.12363e+07 -0)
(-6.53377e-08 -4.12363e+07 -0)
(-4.53008e-08 -4.12363e+07 -0)
(-2.35216e-08 -4.12363e+07 -0)
(-5.22702e-09 -4.12363e+07 -0)
(1.74234e-08 -4.12363e+07 -0)
(1.91657e-08 -4.12363e+07 -0)
(8.7117e-09 -4.12363e+07 -0)
(2.35216e-08 -4.12363e+07 -0)
(3.31045e-08 -4.12363e+07 -0)
(3.74603e-08 -4.12363e+07 -0)
(3.48468e-08 -4.12363e+07 -0)
(2.78774e-08 -4.12363e+07 -0)
(4.0945e-08 -4.12363e+07 -0)
(3.13621e-08 -4.12363e+07 -0)
(2.78774e-08 -4.12363e+07 -0)
(2.96198e-08 -4.12363e+07 -0)
(1.48099e-08 -4.12363e+07 -0)
(8.7117e-09 -4.12363e+07 -0)
(5.22702e-09 -4.12363e+07 -0)
(-0 -4.12363e+07 -0)
(-5.22702e-09 -4.12363e+07 -0)
(-1.39387e-08 -4.12363e+07 -0)
(-1.74234e-08 -4.12363e+07 -0)
(-2.78774e-08 -4.12363e+07 -0)
(-2.78774e-08 -4.12363e+07 -0)
(-3.31045e-08 -4.12363e+07 -0)
(-4.70432e-08 -4.12363e+07 -0)
(-4.70432e-08 -4.12363e+07 -0)
(-3.74603e-08 -4.12363e+07 -0)
(-2.78774e-08 -4.12363e+07 -0)
(-3.31045e-08 -4.12363e+07 -0)
(-2.17792e-08 -4.12363e+07 -0)
(-1.30675e-08 -4.12363e+07 -0)
(-4.35585e-09 -4.12363e+07 -0)
(-0 -4.12363e+07 -0)
(2.35216e-08 -4.12363e+07 -0)
(5.31414e-08 -4.12363e+07 -0)
(6.44666e-08 -4.12363e+07 -0)
(8.27611e-08 -4.12363e+07 -0)
(1.20221e-07 -4.12363e+07 -0)
(1.54197e-07 -4.12363e+07 -0)
(2.10823e-07 -4.12363e+07 -0)
(3.11879e-07 -4.12363e+07 -0)
(4.94824e-07 -4.12363e+07 -0)
(1.05237e-06 -4.12363e+07 -0)
(4.23563e-06 -4.12363e+07 -0)
(1.48883e-06 -4.12363e+07 -0)
(-1.73354e-05 -4.12363e+07 -0)
(-1.53204e-05 -4.12363e+07 -0)
(1.61092e-05 -2.45904e+07 -0)
(1.84913e-05 -2.45904e+07 -0)
(-9.41534e-07 -2.45904e+07 -0)
(-4.0468e-06 -2.45904e+07 -0)
(-1.0171e-06 -2.45904e+07 -0)
(-4.6537e-07 -2.45904e+07 -0)
(-2.85459e-07 -2.45904e+07 -0)
(-2.03899e-07 -2.45904e+07 -0)
(-1.54723e-07 -2.45904e+07 -0)
(-1.19941e-07 -2.45904e+07 -0)
(-8.75567e-08 -2.45904e+07 -0)
(-6.35686e-08 -2.45904e+07 -0)
(-4.4378e-08 -2.45904e+07 -0)
(-2.51875e-08 -2.45904e+07 -0)
(-2.39881e-09 -2.45904e+07 -0)
(1.43929e-08 -2.45904e+07 -0)
(1.43929e-08 -2.45904e+07 -0)
(1.07947e-08 -2.45904e+07 -0)
(2.15893e-08 -2.45904e+07 -0)
(2.99852e-08 -2.45904e+07 -0)
(3.59822e-08 -2.45904e+07 -0)
(3.35834e-08 -2.45904e+07 -0)
(2.63869e-08 -2.45904e+07 -0)
(3.71816e-08 -2.45904e+07 -0)
(2.87858e-08 -2.45904e+07 -0)
(2.63869e-08 -2.45904e+07 -0)
(2.87858e-08 -2.45904e+07 -0)
(1.43929e-08 -2.45904e+07 -0)
(9.59525e-09 -2.45904e+07 -0)
(3.59822e-09 -2.45904e+07 -0)
(-1.19941e-09 -2.45904e+07 -0)
(-4.79763e-09 -2.45904e+07 -0)
(-1.31935e-08 -2.45904e+07 -0)
(-1.55923e-08 -2.45904e+07 -0)
(-2.63869e-08 -2.45904e+07 -0)
(-2.51875e-08 -2.45904e+07 -0)
(-3.35834e-08 -2.45904e+07 -0)
(-4.67769e-08 -2.45904e+07 -0)
(-4.4378e-08 -2.45904e+07 -0)
(-3.2384e-08 -2.45904e+07 -0)
(-2.75864e-08 -2.45904e+07 -0)
(-3.11846e-08 -2.45904e+07 -0)
(-1.79911e-08 -2.45904e+07 -0)
(-1.19941e-08 -2.45904e+07 -0)
(-2.39881e-09 -2.45904e+07 -0)
(-0 -2.45904e+07 -0)
(2.03899e-08 -2.45904e+07 -0)
(5.39733e-08 -2.45904e+07 -0)
(6.23692e-08 -2.45904e+07 -0)
(8.39585e-08 -2.45904e+07 -0)
(1.15143e-07 -2.45904e+07 -0)
(1.45128e-07 -2.45904e+07 -0)
(2.03899e-07 -2.45904e+07 -0)
(3.01051e-07 -2.45904e+07 -0)
(4.73766e-07 -2.45904e+07 -0)
(1.0015e-06 -2.45904e+07 -0)
(4.0408e-06 -2.45904e+07 -0)
(9.54728e-07 -2.45904e+07 -0)
(-1.85116e-05 -2.45904e+07 -0)
(-1.61212e-05 -2.45904e+07 -0)
(1.63854e-05 -1.57302e+07 -0)
(1.92218e-05 -1.57302e+07 -0)
(-2.28057e-07 -1.57302e+07 -0)
(-3.73389e-06 -1.57302e+07 -0)
(-9.48648e-07 -1.57302e+07 -0)
(-4.3617e-07 -1.57302e+07 -0)
(-2.66211e-07 -1.57302e+07 -0)
(-1.89036e-07 -1.57302e+07 -0)
(-1.46546e-07 -1.57302e+07 -0)
(-1.15329e-07 -1.57302e+07 -0)
(-8.2378e-08 -1.57302e+07 -0)
(-6.15667e-08 -1.57302e+07 -0)
(-4.33569e-08 -1.57302e+07 -0)
(-2.68813e-08 -1.57302e+07 -0)
(-2.60141e-09 -1.57302e+07 -0)
(1.30071e-08 -1.57302e+07 -0)
(1.21399e-08 -1.57302e+07 -0)
(1.04056e-08 -1.57302e+07 -0)
(1.9077e-08 -1.57302e+07 -0)
(2.68813e-08 -1.57302e+07 -0)
(3.38183e-08 -1.57302e+07 -0)
(3.03498e-08 -1.57302e+07 -0)
(2.5147e-08 -1.57302e+07 -0)
(3.20841e-08 -1.57302e+07 -0)
(2.68813e-08 -1.57302e+07 -0)
(2.42798e-08 -1.57302e+07 -0)
(2.77484e-08 -1.57302e+07 -0)
(1.47413e-08 -1.57302e+07 -0)
(6.9371e-09 -1.57302e+07 -0)
(5.20282e-09 -1.57302e+07 -0)
(-3.46855e-09 -1.57302e+07 -0)
(-4.33569e-09 -1.57302e+07 -0)
(-8.67137e-09 -1.57302e+07 -0)
(-1.38742e-08 -1.57302e+07 -0)
(-2.42798e-08 -1.57302e+07 -0)
(-2.5147e-08 -1.57302e+07 -0)
(-3.12169e-08 -1.57302e+07 -0)
(-4.33569e-08 -1.57302e+07 -0)
(-4.07554e-08 -1.57302e+07 -0)
(-3.03498e-08 -1.57302e+07 -0)
(-2.42798e-08 -1.57302e+07 -0)
(-2.68813e-08 -1.57302e+07 -0)
(-1.99442e-08 -1.57302e+07 -0)
(-1.21399e-08 -1.57302e+07 -0)
(-8.67137e-10 -1.57302e+07 -0)
(-0 -1.57302e+07 -0)
(2.25456e-08 -1.57302e+07 -0)
(5.28954e-08 -1.57302e+07 -0)
(6.06996e-08 -1.57302e+07 -0)
(7.97766e-08 -1.57302e+07 -0)
(1.11861e-07 -1.57302e+07 -0)
(1.36141e-07 -1.57302e+07 -0)
(1.9077e-07 -1.57302e+07 -0)
(2.80952e-07 -1.57302e+07 -0)
(4.43107e-07 -1.57302e+07 -0)
(9.31305e-07 -1.57302e+07 -0)
(3.73216e-06 -1.57302e+07 -0)
(2.36728e-07 -1.57302e+07 -0)
(-1.92392e-05 -1.57302e+07 -0)
(-1.63932e-05 -1.57302e+07 -0)
(1.63976e-05 -1.06108e+07 -0)
(1.97065e-05 -1.06108e+07 -0)
(5.55508e-07 -1.06108e+07 -0)
(-3.36301e-06 -1.06108e+07 -0)
(-8.6615e-07 -1.06108e+07 -0)
(-4.02467e-07 -1.06108e+07 -0)
(-2.45518e-07 -1.06108e+07 -0)
(-1.75184e-07 -1.06108e+07 -0)
(-1.36761e-07 -1.06108e+07 -0)
(-1.08106e-07 -1.06108e+07 -0)
(-7.81489e-08 -1.06108e+07 -0)
(-5.79604e-08 -1.06108e+07 -0)
(-4.29819e-08 -1.06108e+07 -0)
(-2.53984e-08 -1.06108e+07 -0)
(-3.2562e-09 -1.06108e+07 -0)
(1.17223e-08 -1.06108e+07 -0)
(8.46613e-09 -1.06108e+07 -0)
(8.46613e-09 -1.06108e+07 -0)
(1.82347e-08 -1.06108e+07 -0)
(2.34447e-08 -1.06108e+07 -0)
(2.93058e-08 -1.06108e+07 -0)
(2.67009e-08 -1.06108e+07 -0)
(2.34447e-08 -1.06108e+07 -0)
(3.06083e-08 -1.06108e+07 -0)
(2.34447e-08 -1.06108e+07 -0)
(2.14909e-08 -1.06108e+07 -0)
(2.53984e-08 -1.06108e+07 -0)
(1.56298e-08 -1.06108e+07 -0)
(6.51241e-09 -1.06108e+07 -0)
(1.95372e-09 -1.06108e+07 -0)
(-1.95372e-09 -1.06108e+07 -0)
(-2.60496e-09 -1.06108e+07 -0)
(-8.46613e-09 -1.06108e+07 -0)
(-1.23736e-08 -1.06108e+07 -0)
(-2.34447e-08 -1.06108e+07 -0)
(-2.27934e-08 -1.06108e+07 -0)
(-2.60496e-08 -1.06108e+07 -0)
(-4.10282e-08 -1.06108e+07 -0)
(-3.71207e-08 -1.06108e+07 -0)
(-2.73521e-08 -1.06108e+07 -0)
(-2.14909e-08 -1.06108e+07 -0)
(-2.40959e-08 -1.06108e+07 -0)
(-1.75835e-08 -1.06108e+07 -0)
(-1.04199e-08 -1.06108e+07 -0)
(6.51241e-10 -1.06108e+07 -0)
(2.60496e-09 -1.06108e+07 -0)
(2.08397e-08 -1.06108e+07 -0)
(4.94943e-08 -1.06108e+07 -0)
(5.79604e-08 -1.06108e+07 -0)
(7.55439e-08 -1.06108e+07 -0)
(1.04199e-07 -1.06108e+07 -0)
(1.28294e-07 -1.06108e+07 -0)
(1.74533e-07 -1.06108e+07 -0)
(2.60496e-07 -1.06108e+07 -0)
(4.10282e-07 -1.06108e+07 -0)
(8.48567e-07 -1.06108e+07 -0)
(3.36171e-06 -1.06108e+07 -0)
(-5.47694e-07 -1.06108e+07 -0)
(-1.97241e-05 -1.06108e+07 -0)
(-1.64048e-05 -1.06108e+07 -0)
(1.62806e-05 -7.45794e+06 -0)
(2.00539e-05 -7.45794e+06 -0)
(1.35168e-06 -7.45794e+06 -0)
(-2.96553e-06 -7.45794e+06 -0)
(-7.77934e-07 -7.45794e+06 -0)
(-3.65523e-07 -7.45794e+06 -0)
(-2.22843e-07 -7.45794e+06 -0)
(-1.59822e-07 -7.45794e+06 -0)
(-1.27555e-07 -7.45794e+06 -0)
(-1.00834e-07 -7.45794e+06 -0)
(-7.31046e-08 -7.45794e+06 -0)
(-5.44503e-08 -7.45794e+06 -0)
(-4.23503e-08 -7.45794e+06 -0)
(-2.57127e-08 -7.45794e+06 -0)
(-3.02502e-09 -7.45794e+06 -0)
(9.57922e-09 -7.45794e+06 -0)
(7.05838e-09 -7.45794e+06 -0)
(6.55421e-09 -7.45794e+06 -0)
(1.46209e-08 -7.45794e+06 -0)
(2.16793e-08 -7.45794e+06 -0)
(2.6721e-08 -7.45794e+06 -0)
(2.21835e-08 -7.45794e+06 -0)
(2.01668e-08 -7.45794e+06 -0)
(2.72252e-08 -7.45794e+06 -0)
(2.26876e-08 -7.45794e+06 -0)
(2.01668e-08 -7.45794e+06 -0)
(2.26876e-08 -7.45794e+06 -0)
(1.41168e-08 -7.45794e+06 -0)
(5.0417e-09 -7.45794e+06 -0)
(1.51251e-09 -7.45794e+06 -0)
(-1.00834e-09 -7.45794e+06 -0)
(-2.01668e-09 -7.45794e+06 -0)
(-8.57089e-09 -7.45794e+06 -0)
(-1.05876e-08 -7.45794e+06 -0)
(-2.16793e-08 -7.45794e+06 -0)
(-1.86543e-08 -7.45794e+06 -0)
(-2.26876e-08 -7.45794e+06 -0)
(-3.83169e-08 -7.45794e+06 -0)
(-3.37794e-08 -7.45794e+06 -0)
(-2.3696e-08 -7.45794e+06 -0)
(-1.76459e-08 -7.45794e+06 -0)
(-2.21835e-08 -7.45794e+06 -0)
(-1.71418e-08 -7.45794e+06 -0)
(-8.06672e-09 -7.45794e+06 -0)
(1.51251e-09 -7.45794e+06 -0)
(4.03336e-09 -7.45794e+06 -0)
(2.21835e-08 -7.45794e+06 -0)
(4.7392e-08 -7.45794e+06 -0)
(5.54587e-08 -7.45794e+06 -0)
(6.95754e-08 -7.45794e+06 -0)
(9.62964e-08 -7.45794e+06 -0)
(1.16967e-07 -7.45794e+06 -0)
(1.60326e-07 -7.45794e+06 -0)
(2.38976e-07 -7.45794e+06 -0)
(3.72077e-07 -7.45794e+06 -0)
(7.61296e-07 -7.45794e+06 -0)
(2.96301e-06 -7.45794e+06 -0)
(-1.34462e-06 -7.45794e+06 -0)
(-2.0071e-05 -7.45794e+06 -0)
(-1.62872e-05 -7.45794e+06 -0)
(1.60908e-05 -5.41325e+06 -0)
(2.03052e-05 -5.41325e+06 -0)
(2.13099e-06 -5.41325e+06 -0)
(-2.56014e-06 -5.41325e+06 -0)
(-6.85931e-07 -5.41325e+06 -0)
(-3.27967e-07 -5.41325e+06 -0)
(-1.9878e-07 -5.41325e+06 -0)
(-1.44385e-07 -5.41325e+06 -0)
(-1.17588e-07 -5.41325e+06 -0)
(-9.31906e-08 -5.41325e+06 -0)
(-6.79931e-08 -5.41325e+06 -0)
(-5.19948e-08 -5.41325e+06 -0)
(-3.9996e-08 -5.41325e+06 -0)
(-2.43975e-08 -5.41325e+06 -0)
(-3.19968e-09 -5.41325e+06 -0)
(7.19927e-09 -5.41325e+06 -0)
(3.59964e-09 -5.41325e+06 -0)
(4.79952e-09 -5.41325e+06 -0)
(1.23987e-08 -5.41325e+06 -0)
(1.83981e-08 -5.41325e+06 -0)
(2.43975e-08 -5.41325e+06 -0)
(1.87981e-08 -5.41325e+06 -0)
(1.71983e-08 -5.41325e+06 -0)
(2.43975e-08 -5.41325e+06 -0)
(1.9598e-08 -5.41325e+06 -0)
(1.71983e-08 -5.41325e+06 -0)
(2.11979e-08 -5.41325e+06 -0)
(1.35986e-08 -5.41325e+06 -0)
(3.19968e-09 -5.41325e+06 -0)
(1.59984e-09 -5.41325e+06 -0)
(7.99919e-10 -5.41325e+06 -0)
(-1.9998e-09 -5.41325e+06 -0)
(-6.79931e-09 -5.41325e+06 -0)
(-1.07989e-08 -5.41325e+06 -0)
(-1.87981e-08 -5.41325e+06 -0)
(-1.59984e-08 -5.41325e+06 -0)
(-2.11979e-08 -5.41325e+06 -0)
(-3.47965e-08 -5.41325e+06 -0)
(-2.91971e-08 -5.41325e+06 -0)
(-1.9598e-08 -5.41325e+06 -0)
(-1.47985e-08 -5.41325e+06 -0)
(-1.9598e-08 -5.41325e+06 -0)
(-1.55984e-08 -5.41325e+06 -0)
(-5.59944e-09 -5.41325e+06 -0)
(2.39976e-09 -5.41325e+06 -0)
(5.99939e-09 -5.41325e+06 -0)
(2.15978e-08 -5.41325e+06 -0)
(4.39956e-08 -5.41325e+06 -0)
(5.15948e-08 -5.41325e+06 -0)
(6.47935e-08 -5.41325e+06 -0)
(8.8791e-08 -5.41325e+06 -0)
(1.06389e-07 -5.41325e+06 -0)
(1.45185e-07 -5.41325e+06 -0)
(2.15178e-07 -5.41325e+06 -0)
(3.33566e-07 -5.41325e+06 -0)
(6.70732e-07 -5.41325e+06 -0)
(2.55654e-06 -5.41325e+06 -0)
(-2.12539e-06 -5.41325e+06 -0)
(-2.032e-05 -5.41325e+06 -0)
(-1.60964e-05 -5.41325e+06 -0)
(1.5845e-05 -4.02876e+06 -0)
(2.04636e-05 -4.02876e+06 -0)
(2.87212e-06 -4.02876e+06 -0)
(-2.15384e-06 -4.02876e+06 -0)
(-5.90794e-07 -4.02876e+06 -0)
(-2.87309e-07 -4.02876e+06 -0)
(-1.74715e-07 -4.02876e+06 -0)
(-1.30065e-07 -4.02876e+06 -0)
(-1.06123e-07 -4.02876e+06 -0)
(-8.50925e-08 -4.02876e+06 -0)
(-6.3415e-08 -4.02876e+06 -0)
(-4.88554e-08 -4.02876e+06 -0)
(-3.75313e-08 -4.02876e+06 -0)
(-2.42659e-08 -4.02876e+06 -0)
(-4.85319e-09 -4.02876e+06 -0)
(5.17673e-09 -4.02876e+06 -0)
(1.94127e-09 -4.02876e+06 -0)
(3.23546e-09 -4.02876e+06 -0)
(9.38283e-09 -4.02876e+06 -0)
(1.55302e-08 -4.02876e+06 -0)
(2.10305e-08 -4.02876e+06 -0)
(1.58537e-08 -4.02876e+06 -0)
(1.45596e-08 -4.02876e+06 -0)
(1.97363e-08 -4.02876e+06 -0)
(1.74715e-08 -4.02876e+06 -0)
(1.68244e-08 -4.02876e+06 -0)
(1.87657e-08 -4.02876e+06 -0)
(1.19712e-08 -4.02876e+06 -0)
(2.26482e-09 -4.02876e+06 -0)
(1.94127e-09 -4.02876e+06 -0)
(9.70637e-10 -4.02876e+06 -0)
(-2.58837e-09 -4.02876e+06 -0)
(-5.82382e-09 -4.02876e+06 -0)
(-9.38283e-09 -4.02876e+06 -0)
(-1.71479e-08 -4.02876e+06 -0)
(-1.26183e-08 -4.02876e+06 -0)
(-1.90892e-08 -4.02876e+06 -0)
(-3.07368e-08 -4.02876e+06 -0)
(-2.39424e-08 -4.02876e+06 -0)
(-1.65008e-08 -4.02876e+06 -0)
(-1.19712e-08 -4.02876e+06 -0)
(-1.65008e-08 -4.02876e+06 -0)
(-1.4236e-08 -4.02876e+06 -0)
(-4.85319e-09 -4.02876e+06 -0)
(4.20609e-09 -4.02876e+06 -0)
(7.44155e-09 -4.02876e+06 -0)
(2.10305e-08 -4.02876e+06 -0)
(4.14139e-08 -4.02876e+06 -0)
(4.88554e-08 -4.02876e+06 -0)
(5.9856e-08 -4.02876e+06 -0)
(7.99158e-08 -4.02876e+06 -0)
(9.51224e-08 -4.02876e+06 -0)
(1.3136e-07 -4.02876e+06 -0)
(1.90892e-07 -4.02876e+06 -0)
(2.92809e-07 -4.02876e+06 -0)
(5.76235e-07 -4.02876e+06 -0)
(2.14931e-06 -4.02876e+06 -0)
(-2.86791e-06 -4.02876e+06 -0)
(-2.04772e-05 -4.02876e+06 -0)
(-1.58489e-05 -4.02876e+06 -0)
(1.55367e-05 -3.05637e+06 -0)
(2.05135e-05 -3.05637e+06 -0)
(3.56021e-06 -3.05637e+06 -0)
(-1.75087e-06 -3.05637e+06 -0)
(-4.92732e-07 -3.05637e+06 -0)
(-2.46632e-07 -3.05637e+06 -0)
(-1.50956e-07 -3.05637e+06 -0)
(-1.1428e-07 -3.05637e+06 -0)
(-9.4613e-08 -3.05637e+06 -0)
(-7.70724e-08 -3.05637e+06 -0)
(-5.84687e-08 -3.05637e+06 -0)
(-4.62434e-08 -3.05637e+06 -0)
(-3.56128e-08 -3.05637e+06 -0)
(-2.33875e-08 -3.05637e+06 -0)
(-5.31534e-09 -3.05637e+06 -0)
(2.65767e-09 -3.05637e+06 -0)
(-5.31534e-10 -3.05637e+06 -0)
(2.65767e-09 -3.05637e+06 -0)
(6.90994e-09 -3.05637e+06 -0)
(1.16937e-08 -3.05637e+06 -0)
(1.75406e-08 -3.05637e+06 -0)
(1.27568e-08 -3.05637e+06 -0)
(1.22253e-08 -3.05637e+06 -0)
(1.5946e-08 -3.05637e+06 -0)
(1.54145e-08 -3.05637e+06 -0)
(1.54145e-08 -3.05637e+06 -0)
(1.64775e-08 -3.05637e+06 -0)
(1.11622e-08 -3.05637e+06 -0)
(1.5946e-09 -3.05637e+06 -0)
(1.5946e-09 -3.05637e+06 -0)
(5.31534e-10 -3.05637e+06 -0)
(-1.5946e-09 -3.05637e+06 -0)
(-5.31534e-09 -3.05637e+06 -0)
(-8.50454e-09 -3.05637e+06 -0)
(-1.38199e-08 -3.05637e+06 -0)
(-1.00991e-08 -3.05637e+06 -0)
(-1.70091e-08 -3.05637e+06 -0)
(-2.71082e-08 -3.05637e+06 -0)
(-2.01983e-08 -3.05637e+06 -0)
(-1.32883e-08 -3.05637e+06 -0)
(-9.56761e-09 -3.05637e+06 -0)
(-1.32883e-08 -3.05637e+06 -0)
(-1.27568e-08 -3.05637e+06 -0)
(-3.1892e-09 -3.05637e+06 -0)
(6.90994e-09 -3.05637e+06 -0)
(8.50454e-09 -3.05637e+06 -0)
(2.01983e-08 -3.05637e+06 -0)
(3.82704e-08 -3.05637e+06 -0)
(4.46488e-08 -3.05637e+06 -0)
(5.4748e-08 -3.05637e+06 -0)
(7.17571e-08 -3.05637e+06 -0)
(8.50454e-08 -3.05637e+06 -0)
(1.16406e-07 -3.05637e+06 -0)
(1.6637e-07 -3.05637e+06 -0)
(2.51415e-07 -3.05637e+06 -0)
(4.79443e-07 -3.05637e+06 -0)
(1.74662e-06 -3.05637e+06 -0)
(-3.55702e-06 -3.05637e+06 -0)
(-2.05268e-05 -3.05637e+06 -0)
(-1.5541e-05 -3.05637e+06 -0)
(1.51532e-05 -2.35183e+06 -0)
(2.04288e-05 -2.35183e+06 -0)
(4.1802e-06 -2.35183e+06 -0)
(-1.35777e-06 -2.35183e+06 -0)
(-3.93108e-07 -2.35183e+06 -0)
(-2.05388e-07 -2.35183e+06 -0)
(-1.2765e-07 -2.35183e+06 -0)
(-9.80562e-08 -2.35183e+06 -0)
(-8.43636e-08 -2.35183e+06 -0)
(-6.9346e-08 -2.35183e+06 -0)
(-5.30033e-08 -2.35183e+06 -0)
(-4.28444e-08 -2.35183e+06 -0)
(-3.31271e-08 -2.35183e+06 -0)
(-2.20847e-08 -2.35183e+06 -0)
(-6.62542e-09 -2.35183e+06 -0)
(4.41695e-10 -2.35183e+06 -0)
(-2.20847e-09 -2.35183e+06 -0)
(1.32508e-09 -2.35183e+06 -0)
(5.30033e-09 -2.35183e+06 -0)
(8.3922e-09 -2.35183e+06 -0)
(1.36925e-08 -2.35183e+06 -0)
(1.06007e-08 -2.35183e+06 -0)
(9.71728e-09 -2.35183e+06 -0)
(1.28091e-08 -2.35183e+06 -0)
(1.28091e-08 -2.35183e+06 -0)
(1.32508e-08 -2.35183e+06 -0)
(1.36925e-08 -2.35183e+06 -0)
(1.06007e-08 -2.35183e+06 -0)
(1.32508e-09 -2.35183e+06 -0)
(8.83389e-10 -2.35183e+06 -0)
(1.76678e-09 -2.35183e+06 -0)
(-1.32508e-09 -2.35183e+06 -0)
(-4.85864e-09 -2.35183e+06 -0)
(-7.9505e-09 -2.35183e+06 -0)
(-1.14841e-08 -2.35183e+06 -0)
(-7.50881e-09 -2.35183e+06 -0)
(-1.41342e-08 -2.35183e+06 -0)
(-2.42932e-08 -2.35183e+06 -0)
(-1.67844e-08 -2.35183e+06 -0)
(-1.0159e-08 -2.35183e+06 -0)
(-7.06711e-09 -2.35183e+06 -0)
(-1.0159e-08 -2.35183e+06 -0)
(-1.0159e-08 -2.35183e+06 -0)
(-8.83389e-10 -2.35183e+06 -0)
(7.50881e-09 -2.35183e+06 -0)
(8.83389e-09 -2.35183e+06 -0)
(2.03179e-08 -2.35183e+06 -0)
(3.40105e-08 -2.35183e+06 -0)
(4.15193e-08 -2.35183e+06 -0)
(5.07949e-08 -2.35183e+06 -0)
(6.3604e-08 -2.35183e+06 -0)
(7.3763e-08 -2.35183e+06 -0)
(1.00706e-07 -2.35183e+06 -0)
(1.43109e-07 -2.35183e+06 -0)
(2.09805e-07 -2.35183e+06 -0)
(3.81182e-07 -2.35183e+06 -0)
(1.35247e-06 -2.35183e+06 -0)
(-4.17843e-06 -2.35183e+06 -0)
(-2.04412e-05 -2.35183e+06 -0)
(-1.51572e-05 -2.35183e+06 -0)
(1.46769e-05 -1.8279e+06 -0)
(2.01771e-05 -1.8279e+06 -0)
(4.71454e-06 -1.8279e+06 -0)
(-9.7666e-07 -1.8279e+06 -0)
(-2.94219e-07 -1.8279e+06 -0)
(-1.63578e-07 -1.8279e+06 -0)
(-1.03994e-07 -1.8279e+06 -0)
(-8.32696e-08 -1.8279e+06 -0)
(-7.29071e-08 -1.8279e+06 -0)
(-6.14344e-08 -1.8279e+06 -0)
(-4.84814e-08 -1.8279e+06 -0)
(-3.88591e-08 -1.8279e+06 -0)
(-3.07172e-08 -1.8279e+06 -0)
(-2.1465e-08 -1.8279e+06 -0)
(-7.40174e-09 -1.8279e+06 -0)
(-1.11026e-09 -1.8279e+06 -0)
(-4.44104e-09 -1.8279e+06 -0)
(-3.70087e-10 -1.8279e+06 -0)
(2.9607e-09 -1.8279e+06 -0)
(5.92139e-09 -1.8279e+06 -0)
(9.99235e-09 -1.8279e+06 -0)
(8.88209e-09 -1.8279e+06 -0)
(7.77183e-09 -1.8279e+06 -0)
(8.512e-09 -1.8279e+06 -0)
(1.14727e-08 -1.8279e+06 -0)
(1.11026e-08 -1.8279e+06 -0)
(1.2583e-08 -1.8279e+06 -0)
(9.25218e-09 -1.8279e+06 -0)
(-3.70087e-10 -1.8279e+06 -0)
(7.40174e-10 -1.8279e+06 -0)
(1.85044e-09 -1.8279e+06 -0)
(-3.70087e-10 -1.8279e+06 -0)
(-3.70087e-09 -1.8279e+06 -0)
(-6.66157e-09 -1.8279e+06 -0)
(-9.62226e-09 -1.8279e+06 -0)
(-5.18122e-09 -1.8279e+06 -0)
(-1.2953e-08 -1.8279e+06 -0)
(-2.07249e-08 -1.8279e+06 -0)
(-1.2583e-08 -1.8279e+06 -0)
(-7.40174e-09 -1.8279e+06 -0)
(-4.07096e-09 -1.8279e+06 -0)
(-7.40174e-09 -1.8279e+06 -0)
(-7.77183e-09 -1.8279e+06 -0)
(7.40174e-10 -1.8279e+06 -0)
(8.14191e-09 -1.8279e+06 -0)
(8.512e-09 -1.8279e+06 -0)
(1.92445e-08 -1.8279e+06 -0)
(3.21976e-08 -1.8279e+06 -0)
(3.73788e-08 -1.8279e+06 -0)
(4.55207e-08 -1.8279e+06 -0)
(5.66233e-08 -1.8279e+06 -0)
(6.29148e-08 -1.8279e+06 -0)
(8.54901e-08 -1.8279e+06 -0)
(1.18428e-07 -1.8279e+06 -0)
(1.6802e-07 -1.8279e+06 -0)
(2.82746e-07 -1.8279e+06 -0)
(9.71478e-07 -1.8279e+06 -0)
(-4.71306e-06 -1.8279e+06 -0)
(-2.01886e-05 -1.8279e+06 -0)
(-1.46802e-05 -1.8279e+06 -0)
(1.40924e-05 -1.42999e+06 -0)
(1.9735e-05 -1.42999e+06 -0)
(5.14652e-06 -1.42999e+06 -0)
(-6.14165e-07 -1.42999e+06 -0)
(-1.96408e-07 -1.42999e+06 -0)
(-1.22833e-07 -1.42999e+06 -0)
(-8.04338e-08 -1.42999e+06 -0)
(-6.79634e-08 -1.42999e+06 -0)
(-6.26635e-08 -1.42999e+06 -0)
(-5.36225e-08 -1.42999e+06 -0)
(-4.30227e-08 -1.42999e+06 -0)
(-3.55405e-08 -1.42999e+06 -0)
(-2.89936e-08 -1.42999e+06 -0)
(-2.05761e-08 -1.42999e+06 -0)
(-7.17045e-09 -1.42999e+06 -0)
(-3.11759e-09 -1.42999e+06 -0)
(-5.61166e-09 -1.42999e+06 -0)
(-2.18231e-09 -1.42999e+06 -0)
(6.23518e-10 -1.42999e+06 -0)
(3.74111e-09 -1.42999e+06 -0)
(7.48221e-09 -1.42999e+06 -0)
(5.92342e-09 -1.42999e+06 -0)
(5.92342e-09 -1.42999e+06 -0)
(7.17045e-09 -1.42999e+06 -0)
(8.72925e-09 -1.42999e+06 -0)
(9.04101e-09 -1.42999e+06 -0)
(1.09116e-08 -1.42999e+06 -0)
(7.17045e-09 -1.42999e+06 -0)
(-9.35277e-10 -1.42999e+06 -0)
(9.35277e-10 -1.42999e+06 -0)
(2.49407e-09 -1.42999e+06 -0)
(3.11759e-10 -1.42999e+06 -0)
(-3.42935e-09 -1.42999e+06 -0)
(-5.61166e-09 -1.42999e+06 -0)
(-7.79397e-09 -1.42999e+06 -0)
(-3.11759e-09 -1.42999e+06 -0)
(-1.12233e-08 -1.42999e+06 -0)
(-1.65232e-08 -1.42999e+06 -0)
(-8.72925e-09 -1.42999e+06 -0)
(-5.61166e-09 -1.42999e+06 -0)
(-2.49407e-09 -1.42999e+06 -0)
(-4.98814e-09 -1.42999e+06 -0)
(-4.67638e-09 -1.42999e+06 -0)
(1.87055e-09 -1.42999e+06 -0)
(8.72925e-09 -1.42999e+06 -0)
(9.35277e-09 -1.42999e+06 -0)
(1.8082e-08 -1.42999e+06 -0)
(2.96171e-08 -1.42999e+06 -0)
(3.33582e-08 -1.42999e+06 -0)
(4.11522e-08 -1.42999e+06 -0)
(4.80109e-08 -1.42999e+06 -0)
(5.26873e-08 -1.42999e+06 -0)
(7.1081e-08 -1.42999e+06 -0)
(9.41512e-08 -1.42999e+06 -0)
(1.27198e-07 -1.42999e+06 -0)
(1.85497e-07 -1.42999e+06 -0)
(6.11047e-07 -1.42999e+06 -0)
(-5.1462e-06 -1.42999e+06 -0)
(-1.97462e-05 -1.42999e+06 -0)
(-1.40956e-05 -1.42999e+06 -0)
(1.33949e-05 -1.12284e+06 -0)
(1.90863e-05 -1.12284e+06 -0)
(5.46389e-06 -1.12284e+06 -0)
(-2.78396e-07 -1.12284e+06 -0)
(-1.02983e-07 -1.12284e+06 -0)
(-8.29657e-08 -1.12284e+06 -0)
(-5.79443e-08 -1.12284e+06 -0)
(-5.37302e-08 -1.12284e+06 -0)
(-5.21499e-08 -1.12284e+06 -0)
(-4.63555e-08 -1.12284e+06 -0)
(-3.76638e-08 -1.12284e+06 -0)
(-3.23961e-08 -1.12284e+06 -0)
(-2.66017e-08 -1.12284e+06 -0)
(-1.89636e-08 -1.12284e+06 -0)
(-8.16488e-09 -1.12284e+06 -0)
(-3.1606e-09 -1.12284e+06 -0)
(-7.37473e-09 -1.12284e+06 -0)
(-4.47752e-09 -1.12284e+06 -0)
(-7.9015e-10 -1.12284e+06 -0)
(1.31692e-09 -1.12284e+06 -0)
(4.7409e-09 -1.12284e+06 -0)
(4.21413e-09 -1.12284e+06 -0)
(4.21413e-09 -1.12284e+06 -0)
(4.21413e-09 -1.12284e+06 -0)
(6.3212e-09 -1.12284e+06 -0)
(7.63812e-09 -1.12284e+06 -0)
(8.95503e-09 -1.12284e+06 -0)
(6.58458e-09 -1.12284e+06 -0)
(-1.31692e-09 -1.12284e+06 -0)
(-0 -1.12284e+06 -0)
(2.37045e-09 -1.12284e+06 -0)
(1.05353e-09 -1.12284e+06 -0)
(-2.37045e-09 -1.12284e+06 -0)
(-4.47752e-09 -1.12284e+06 -0)
(-5.26767e-09 -1.12284e+06 -0)
(-1.31692e-09 -1.12284e+06 -0)
(-9.21842e-09 -1.12284e+06 -0)
(-1.44861e-08 -1.12284e+06 -0)
(-6.05782e-09 -1.12284e+06 -0)
(-2.63383e-09 -1.12284e+06 -0)
(-0 -1.12284e+06 -0)
(-2.63383e-09 -1.12284e+06 -0)
(-2.63383e-09 -1.12284e+06 -0)
(2.89722e-09 -1.12284e+06 -0)
(8.42827e-09 -1.12284e+06 -0)
(1.00086e-08 -1.12284e+06 -0)
(1.73833e-08 -1.12284e+06 -0)
(2.60749e-08 -1.12284e+06 -0)
(3.02891e-08 -1.12284e+06 -0)
(3.58201e-08 -1.12284e+06 -0)
(4.08244e-08 -1.12284e+06 -0)
(4.24047e-08 -1.12284e+06 -0)
(5.6364e-08 -1.12284e+06 -0)
(7.16403e-08 -1.12284e+06 -0)
(8.71799e-08 -1.12284e+06 -0)
(9.32377e-08 -1.12284e+06 -0)
(2.76289e-07 -1.12284e+06 -0)
(-5.46415e-06 -1.12284e+06 -0)
(-1.90974e-05 -1.12284e+06 -0)
(-1.33975e-05 -1.12284e+06 -0)
(1.25849e-05 -882992 -0)
(1.823e-05 -882992 -0)
(5.65696e-06 -882992 -0)
(2.40513e-08 -882992 -0)
(-1.44753e-08 -882992 -0)
(-4.54303e-08 -882992 -0)
(-3.69678e-08 -882992 -0)
(-4.1199e-08 -882992 -0)
(-4.20898e-08 -882992 -0)
(-3.91948e-08 -882992 -0)
(-3.25138e-08 -882992 -0)
(-2.82826e-08 -882992 -0)
(-2.44967e-08 -882992 -0)
(-1.80385e-08 -882992 -0)
(-8.4625e-09 -882992 -0)
(-3.78586e-09 -882992 -0)
(-8.23981e-09 -882992 -0)
(-6.01283e-09 -882992 -0)
(-1.78158e-09 -882992 -0)
(-1.11349e-09 -882992 -0)
(1.11349e-09 -882992 -0)
(3.11776e-09 -882992 -0)
(3.11776e-09 -882992 -0)
(2.00428e-09 -882992 -0)
(5.12204e-09 -882992 -0)
(5.79013e-09 -882992 -0)
(6.90362e-09 -882992 -0)
(5.56744e-09 -882992 -0)
(-1.33618e-09 -882992 -0)
(2.22697e-10 -882992 -0)
(2.22697e-09 -882992 -0)
(6.68092e-10 -882992 -0)
(-1.78158e-09 -882992 -0)
(-3.34046e-09 -882992 -0)
(-4.00855e-09 -882992 -0)
(2.22697e-10 -882992 -0)
(-7.57171e-09 -882992 -0)
(-1.11349e-08 -882992 -0)
(-3.11776e-09 -882992 -0)
(-8.9079e-10 -882992 -0)
(1.55888e-09 -882992 -0)
(-1.11349e-09 -882992 -0)
(-1.11349e-09 -882992 -0)
(4.67665e-09 -882992 -0)
(9.1306e-09 -882992 -0)
(1.00214e-08 -882992 -0)
(1.58115e-08 -882992 -0)
(2.38286e-08 -882992 -0)
(2.62783e-08 -882992 -0)
(3.09549e-08 -882992 -0)
(3.385e-08 -882992 -0)
(3.385e-08 -882992 -0)
(4.32033e-08 -882992 -0)
(4.92161e-08 -882992 -0)
(4.92161e-08 -882992 -0)
(6.45823e-09 -882992 -0)
(-2.62783e-08 -882992 -0)
(-5.65696e-06 -882992 -0)
(-1.82398e-05 -882992 -0)
(-1.25875e-05 -882992 -0)
(1.16746e-05 -694325 -0)
(1.71789e-05 -694325 -0)
(5.7231e-06 -694325 -0)
(2.89175e-07 -694325 -0)
(6.52854e-08 -694325 -0)
(-1.09123e-08 -694325 -0)
(-1.88142e-08 -694325 -0)
(-2.87858e-08 -694325 -0)
(-3.25486e-08 -694325 -0)
(-3.1796e-08 -694325 -0)
(-2.78451e-08 -694325 -0)
(-2.48348e-08 -694325 -0)
(-2.23889e-08 -694325 -0)
(-1.76854e-08 -694325 -0)
(-8.4664e-09 -694325 -0)
(-4.13913e-09 -694325 -0)
(-8.4664e-09 -694325 -0)
(-6.39684e-09 -694325 -0)