/*--------------------------------*- C++ -*----------------------------------*\
| =========                 |                                                 |
| \\      /  F ield         | foam-extend: Open Source CFD                    |
|  \\    /   O peration     | Version:     4.0                                |
|   \\  /    A nd           | Web:         http://www.foam-extend.org         |
|    \\/     M anipulation  |                                                 |
\*---------------------------------------------------------------------------*/
FoamFile
{
    version     2.0;
    format      ascii;
    class       surfaceScalarField;
    location    "10";
    object      phi;
}
// * * * * * * * * * * * * * * * * * * * * * * * * * * * * * * * * * * * * * //

dimensions      [0 3 -1 0 0 0 0];

internalField   nonuniform List<scalar> 
13744
(
-7.76927e-09
7.76911e-09
3.90458e-09
-1.16739e-08
1.0104e-10
3.80354e-09
3.45824e-11
6.64571e-11
1.27835e-11
2.17983e-11
7.18285e-12
5.60341e-12
4.16331e-12
3.02103e-12
2.73874e-12
1.42397e-12
1.85718e-12
8.84626e-13
1.32882e-12
5.26468e-13
9.74005e-13
3.54827e-13
7.33257e-13
2.39253e-13
5.624e-13
1.70419e-13
4.36594e-13
1.24012e-13
3.43835e-13
9.61453e-14
2.72789e-13
7.4829e-14
2.17474e-13
5.77316e-14
1.74502e-13
4.16334e-14
1.40665e-13
3.35287e-14
1.12688e-13
2.81997e-14
9.08704e-14
1.95399e-14
7.308e-14
1.95399e-14
5.77805e-14
1.52101e-14
4.57575e-14
1.28786e-14
3.57258e-14
9.88098e-15
2.64104e-14
9.21485e-15
1.90685e-14
8.54872e-15
1.25833e-14
4.21885e-15
5.77214e-15
7.21645e-15
-9.97178e-16
8.77076e-15
-3.35492e-15
5.10703e-15
-1.48288e-14
1.18794e-14
-1.90538e-14
2.9976e-15
-2.40609e-14
3.21965e-15
-3.80629e-14
1.39888e-14
-4.57101e-14
8.43769e-15
-5.53857e-14
5.10703e-15
-7.54159e-14
2.07612e-14
-9.08651e-14
1.4988e-14
-1.10332e-13
1.83187e-14
-1.43044e-13
3.31957e-14
-1.74516e-13
3.21965e-14
-2.15151e-13
4.32987e-14
-2.75153e-13
5.81757e-14
-3.43814e-13
6.9833e-14
-4.34227e-13
9.21485e-14
-5.64773e-13
1.29674e-13
-7.33259e-13
1.68643e-13
-9.71634e-13
2.39142e-13
-1.33117e-12
3.60267e-13
-1.85717e-12
5.24247e-13
-2.7364e-12
8.78075e-13
-4.16568e-12
1.43219e-12
-7.18284e-12
3.01803e-12
-1.27811e-11
5.5963e-12
-3.45848e-11
2.18013e-11
-1.0104e-10
6.64576e-11
-3.90458e-09
3.80354e-09
7.76927e-09
-1.16738e-08
7.76927e-09
3.63868e-08
-2.86177e-08
5.09626e-09
1.96167e-08
3.05613e-10
8.59418e-09
1.0716e-10
2.64911e-10
3.96505e-11
8.93127e-11
2.24699e-11
2.27781e-11
1.29322e-11
1.25524e-11
8.57193e-12
5.78526e-12
5.77502e-12
3.67928e-12
4.1557e-12
2.14961e-12
3.03267e-12
1.47449e-12
2.29312e-12
9.80882e-13
1.74996e-12
7.13873e-13
1.36639e-12
5.06484e-13
1.0715e-12
3.81362e-13
8.51023e-13
2.8344e-13
6.79625e-13
2.2371e-13
5.45278e-13
1.78857e-13
4.3731e-13
1.42109e-13
3.53638e-13
1.13354e-13
2.83613e-13
9.79217e-14
2.26835e-13
7.12763e-14
1.81929e-13
6.09512e-14
1.42989e-13
5.07372e-14
1.10048e-13
4.61853e-14
8.40728e-14
3.4861e-14
5.95661e-14
2.9865e-14
3.77156e-14
3.08642e-14
2.00945e-14
2.14273e-14
5.9222e-16
2.37588e-14
-2.51876e-14
2.79776e-14
-3.12026e-14
1.42109e-14
-5.95385e-14
3.5083e-14
-9.04416e-14
4.10783e-14
-1.03637e-13
2.20934e-14
-1.4286e-13
4.67404e-14
-1.88155e-13
6.05072e-14
-2.20423e-13
4.86278e-14
-2.83585e-13
7.52731e-14
-3.59995e-13
9.84768e-14
-4.31007e-13
1.02029e-13
-5.45333e-13
1.44662e-13
-6.86067e-13
1.78635e-13
-8.44688e-13
2.15827e-13
-1.07144e-12
2.91656e-13
-1.37271e-12
3.93241e-13
-1.74365e-12
5.02043e-13
-2.29313e-12
7.20091e-13
-3.03898e-12
9.84546e-13
-4.14933e-12
1.47238e-12
-5.77502e-12
2.15605e-12
-8.57831e-12
3.68416e-12
-1.29259e-11
5.7756e-12
-2.24699e-11
1.25613e-11
-3.96568e-11
2.27839e-11
-1.07154e-10
8.9302e-11
-3.05613e-10
2.64918e-10
-5.09626e-09
8.59418e-09
-3.63868e-08
1.96167e-08
-2.86176e-08
2.4035e-08
-5.26527e-08
8.85406e-09
3.47976e-08
5.08568e-10
1.69397e-08
1.8383e-10
5.8965e-10
6.87889e-11
2.04348e-10
3.90925e-11
5.24752e-11
2.24639e-11
2.91886e-11
1.4927e-11
1.33177e-11
1.00363e-11
8.56507e-12
7.23936e-12
4.94604e-12
5.27164e-12
3.44466e-12
3.99419e-12
2.25969e-12
3.04442e-12
1.66758e-12
2.37903e-12
1.17667e-12
1.86416e-12
9.03638e-13
1.48316e-12
6.70519e-13
1.18189e-12
5.26468e-13
9.49771e-13
4.07757e-13
7.62171e-13
3.3118e-13
6.15153e-13
2.57711e-13
4.93847e-13
2.15605e-13
3.96081e-13
1.73639e-13
3.15991e-13
1.36391e-13
2.4915e-13
1.19793e-13
1.92601e-13
9.66727e-14
1.45635e-13
7.97695e-14
1.038e-13
7.79932e-14
6.6614e-14
6.5975e-14
3.36115e-14
5.95912e-14
-5.5605e-16
6.18394e-14
-3.55638e-14
6.10068e-14
-6.32373e-14
4.67959e-14
-1.03749e-13
7.20257e-14
-1.48773e-13
7.50511e-14
-1.89398e-13
6.84452e-14
-2.48929e-13
1.01752e-13
-3.18896e-13
1.19044e-13
-3.92875e-13
1.26454e-13
-4.93802e-13
1.85518e-13
-6.18258e-13
2.1852e-13
-7.59139e-13
2.45526e-13
-9.49865e-13
3.35648e-13
-1.18512e-12
4.19637e-13
-1.48008e-12
5.17891e-13
-1.86406e-12
6.82399e-13
-2.3821e-12
9.06608e-13
-3.04138e-12
1.15782e-12
-3.99422e-12
1.66414e-12
-5.27467e-12
2.26455e-12
-7.23622e-12
3.42926e-12
-1.00363e-11
4.9469e-12
-1.49302e-11
8.58411e-12
-2.24609e-11
1.33034e-11
-3.90925e-11
2.91903e-11
-6.8792e-11
5.24872e-11
-1.83826e-10
2.0433e-10
-5.08569e-10
5.89654e-10
-8.85407e-09
1.69397e-08
-2.4035e-08
3.47976e-08
-5.26525e-08
5.8574e-09
-5.85101e-08
7.66534e-09
3.29897e-08
7.05257e-10
2.38998e-08
2.63912e-10
1.03099e-09
1.00366e-10
3.67889e-10
5.70751e-11
9.5771e-11
3.28233e-11
5.34405e-11
2.18257e-11
2.43239e-11
1.46705e-11
1.57229e-11
1.05906e-11
9.0242e-12
7.7074e-12
6.33487e-12
5.84403e-12
4.12264e-12
4.45302e-12
3.05385e-12
3.48072e-12
2.15375e-12
2.72695e-12
1.65735e-12
2.17112e-12
1.23147e-12
1.72877e-12
9.73322e-13
1.39019e-12
7.52669e-13
1.11599e-12
6.00294e-13
9.0002e-13
4.76091e-13
7.22936e-13
3.86149e-13
5.80495e-13
3.1692e-13
4.62148e-13
2.61645e-13
3.64873e-13
2.11914e-13
2.82615e-13
1.84415e-13
2.12797e-13
1.54588e-13
1.52039e-13
1.34882e-13
9.80592e-14
1.20692e-13
4.81067e-14
1.08746e-13
-1.0788e-15
1.05783e-13
-4.72806e-14
1.09589e-13
-9.8139e-14
9.93546e-14
-1.51983e-13
1.29913e-13
-2.12498e-13
1.41293e-13
-2.82805e-13
1.36034e-13
-3.64579e-13
1.95059e-13
-4.61537e-13
2.33587e-13
-5.80669e-13
2.48863e-13
-7.22873e-13
3.19581e-13
-8.99685e-13
4.02928e-13
-1.11641e-12
4.61426e-13
-1.3903e-12
6.17877e-13
-1.72861e-12
7.53862e-13
-2.17149e-12
9.51825e-13
-2.72684e-12
1.23547e-12
-3.48035e-12
1.66875e-12
-4.45345e-12
2.13888e-12
-5.84406e-12
3.0682e-12
-7.70698e-12
4.12372e-12
-1.05909e-11
6.3192e-12
-1.46705e-11
9.03814e-12
-2.18255e-11
1.57265e-11
-3.28237e-11
2.4306e-11
-5.70751e-11
5.34519e-11
-1.00366e-10
9.57791e-11
-2.63912e-10
3.67884e-10
-7.05257e-10
1.031e-09
-7.66534e-09
2.38998e-08
-5.85741e-09
3.29897e-08
-5.85099e-08
4.90703e-09
-6.34171e-08
5.4305e-09
3.24662e-08
9.01883e-10
2.84284e-08
3.47173e-10
1.58571e-09
1.34458e-10
5.8061e-10
7.64806e-11
1.53751e-10
4.40574e-11
8.5859e-11
2.93012e-11
3.90767e-11
1.97013e-11
2.53302e-11
1.42263e-11
1.44942e-11
1.03534e-11
1.02005e-11
7.85253e-12
6.62019e-12
5.98306e-12
4.92786e-12
4.67793e-12
3.44586e-12
3.6647e-12
2.67141e-12
2.91834e-12
1.9743e-12
2.3238e-12
1.56107e-12
1.86901e-12
1.20362e-12
1.50038e-12
9.74821e-13
1.21032e-12
7.63082e-13
9.72216e-13
6.28088e-13
7.80737e-13
5.00251e-13
6.21675e-13
4.16717e-13
4.90871e-13
3.41348e-13
3.80196e-13
2.93826e-13
2.86388e-13
2.45134e-13
2.04595e-13
2.16742e-13
1.31856e-13
1.94638e-13
6.45589e-14
1.77604e-13
-7.1007e-16
1.71011e-13
-6.42791e-14
1.72633e-13
-1.31722e-13
1.59305e-13
-2.04526e-13
2.06968e-13
-2.86364e-13
2.29032e-13
-3.8006e-13
2.35633e-13
-4.90488e-13
2.98315e-13
-6.21276e-13
3.46924e-13
-7.80603e-13
3.96058e-13
-9.72109e-13
5.06968e-13
-1.21025e-12
6.36992e-13
-1.50054e-12
7.54579e-13
-1.86917e-12
9.71187e-13
-2.32395e-12
1.20878e-12
-2.91843e-12
1.55442e-12
-3.66455e-12
1.98055e-12
-4.67783e-12
2.67269e-12
-5.98323e-12
3.43344e-12
-7.85258e-12
4.92673e-12
-1.03532e-11
6.63598e-12
-1.42263e-11
1.0191e-11
-1.97013e-11
1.45066e-11
-2.93013e-11
2.53299e-11
-4.40576e-11
3.90588e-11
-7.64805e-11
8.58638e-11
-1.34458e-10
1.53749e-10
-3.47173e-10
5.80597e-10
-9.01883e-10
1.58572e-09
-5.4305e-09
2.84284e-08
-4.90703e-09
3.24662e-08
-6.3417e-08
8.68265e-09
-7.20998e-08
5.08767e-09
3.60612e-08
1.10178e-09
3.24143e-08
4.33658e-10
2.25383e-09
1.71132e-10
8.43141e-10
9.73708e-11
2.27507e-10
5.62156e-11
1.2701e-10
3.73871e-11
5.79033e-11
2.51535e-11
3.75553e-11
1.8165e-11
2.14939e-11
1.3223e-11
1.51415e-11
1.00301e-11
9.82543e-12
7.64299e-12
7.31013e-12
5.97672e-12
5.12208e-12
4.68247e-12
3.96476e-12
3.72922e-12
2.92786e-12
2.96992e-12
2.32474e-12
2.38892e-12
1.78857e-12
1.91783e-12
1.44037e-12
1.54745e-12
1.13751e-12
1.24308e-12
9.33137e-13
9.98309e-13
7.51224e-13
7.95167e-13
6.24317e-13
6.27866e-13
5.1417e-13
4.86259e-13
4.32761e-13
3.66501e-13
3.65256e-13
2.61772e-13
3.17319e-13
1.68599e-13
2.88448e-13
8.26767e-14
2.55889e-13
-4.81391e-16
2.61461e-13
-8.32409e-14
2.60219e-13
-1.67611e-13
2.45325e-13
-2.61688e-13
2.86869e-13
-3.67321e-13
3.25956e-13
-4.85239e-13
3.5171e-13
-6.27413e-13
4.36914e-13
-7.95551e-13
5.20682e-13
-9.97273e-13
6.14182e-13
-1.24294e-12
7.67575e-13
-1.54822e-12
9.38636e-13
-1.91717e-12
1.12855e-12
-2.38908e-12
1.45514e-12
-2.97094e-12
1.79304e-12
-3.72848e-12
2.30861e-12
-4.6823e-12
2.93505e-12
-5.97745e-12
3.97235e-12
-7.64235e-12
5.10963e-12
-1.00302e-11
7.32035e-12
-1.32237e-11
9.81579e-12
-1.81641e-11
1.51221e-11
-2.51536e-11
2.1495e-11
-3.73881e-11
3.75686e-11
-5.62149e-11
5.78915e-11
-9.73708e-11
1.27024e-10
-1.71132e-10
2.27515e-10
-4.33658e-10
8.43125e-10
-1.10179e-09
2.25384e-09
-5.08768e-09
3.24143e-08
-8.68265e-09
3.60612e-08
-7.20996e-08
9.76879e-09
-8.18685e-08
5.61117e-09
4.02188e-08
1.30242e-09
3.6723e-08
5.23476e-10
3.03277e-09
2.10444e-10
1.15617e-09
1.19806e-10
3.18152e-10
6.93474e-11
1.7748e-10
4.61183e-11
8.11333e-11
3.1053e-11
5.2625e-11
2.24256e-11
3.01135e-11
1.63304e-11
2.1238e-11
1.23878e-11
1.37572e-11
9.44159e-12
1.0258e-11
7.38367e-12
7.18099e-12
5.78565e-12
5.56028e-12
4.60821e-12
4.10183e-12
3.67046e-12
3.25914e-12
2.95269e-12
2.49535e-12
2.37079e-12
2.02989e-12
1.91313e-12
1.59952e-12
1.53707e-12
1.3074e-12
1.23456e-12
1.05534e-12
9.83454e-13
8.72242e-13
7.76625e-13
7.22805e-13
6.01566e-13
6.09944e-13
4.53445e-13
5.11679e-13
3.23911e-13
4.53722e-13
2.08614e-13
4.01297e-13
1.023e-13
3.68101e-13
-5.1408e-16
3.59547e-13
-1.02975e-13
3.50343e-13
-2.07505e-13
3.54475e-13
-3.23796e-13
4.11915e-13
-4.54381e-13
4.61348e-13
-6.00376e-13
4.96173e-13
-7.761e-13
6.16712e-13
-9.8389e-13
7.29007e-13
-1.23334e-12
8.56383e-13
-1.5369e-12
1.06165e-12
-1.914e-12
1.3182e-12
-2.37001e-12
1.57555e-12
-2.95288e-12
2.03446e-12
-3.67163e-12
2.50817e-12
-4.60735e-12
3.24215e-12
-5.78546e-12
4.11294e-12
-7.38451e-12
5.56781e-12
-9.44084e-12
7.1559e-12
-1.23879e-11
1.02615e-11
-1.63312e-11
1.37664e-11
-2.24246e-11
2.12259e-11
-3.10531e-11
3.01277e-11
-4.61193e-11
5.26363e-11
-6.93466e-11
8.11144e-11
-1.19806e-10
1.77486e-10
-2.10445e-10
3.18152e-10
-5.23475e-10
1.15615e-09
-1.30242e-09
3.03278e-09
-5.61117e-09
3.6723e-08
-9.76879e-09
4.02188e-08
-8.18684e-08
9.30501e-09
-9.11736e-08
5.9462e-09
4.35776e-08
1.5009e-09
4.11683e-08
6.16463e-10
3.91721e-09
2.52438e-10
1.52019e-09
1.43845e-10
4.26732e-10
8.35028e-11
2.37817e-10
5.55306e-11
1.09109e-10
3.74266e-11
7.07244e-11
2.7028e-11
4.05189e-11
1.96908e-11
2.85783e-11
1.49372e-11
1.85061e-11
1.13878e-11
1.38067e-11
8.90594e-12
9.66128e-12
6.97992e-12
7.48563e-12
5.55982e-12
5.52641e-12
4.42914e-12
4.39342e-12
3.56335e-12
3.37012e-12
2.86162e-12
2.73074e-12
2.30935e-12
2.14108e-12
1.85576e-12
1.76578e-12
1.49072e-12
1.41403e-12
1.18763e-12
1.16854e-12
9.37982e-13
9.70588e-13
7.26704e-13
8.25433e-13
5.47774e-13
6.87152e-13
3.91341e-13
6.04927e-13
2.52089e-13
5.39171e-13
1.2353e-13
4.98558e-13
-5.86307e-16
4.83092e-13
-1.24084e-13
4.86645e-13
-2.51122e-13
4.70578e-13
-3.91214e-13
5.52906e-13
-5.48541e-13
6.17294e-13
-7.25614e-13
6.7771e-13
-9.37394e-13
8.21646e-13
-1.18785e-12
9.78556e-13
-1.48961e-12
1.15467e-12
-1.85555e-12
1.42346e-12
-2.31007e-12
1.77194e-12
-2.86097e-12
2.13104e-12
-3.56353e-12
2.7317e-12
-4.43018e-12
3.37408e-12
-5.55911e-12
4.37148e-12
-6.97972e-12
5.53395e-12
-8.90664e-12
7.49667e-12
-1.13872e-11
9.64325e-12
-1.49373e-11
1.38108e-11
-1.96914e-11
1.85198e-11
-2.70272e-11
2.85587e-11
-3.74266e-11
4.05253e-11
-5.55316e-11
7.07448e-11
-8.35022e-11
1.09087e-10
-1.43845e-10
2.37826e-10
-2.52439e-10
4.26749e-10
-6.16462e-10
1.52017e-09
-1.5009e-09
3.91722e-09
-5.9462e-09
4.11683e-08
-9.30501e-09
4.35776e-08
-9.11734e-08
8.93109e-09
-1.00105e-07
6.03923e-09
4.64695e-08
1.69607e-09
4.55115e-08
7.12264e-10
4.90102e-09
2.97143e-10
1.93531e-09
1.6954e-10
5.54346e-10
9.87318e-11
3.08626e-10
6.56611e-11
1.42169e-10
4.43019e-11
9.20867e-11
3.19928e-11
5.28193e-11
2.33199e-11
3.72489e-11
1.76903e-11
2.4145e-11
1.34912e-11
1.80122e-11
1.05511e-11
1.26008e-11
8.27128e-12
9.76806e-12
6.5888e-12
7.20081e-12
5.24989e-12
5.72924e-12
4.224e-12
4.39285e-12
3.39281e-12
3.554e-12
2.73827e-12
2.7945e-12
2.20083e-12
2.29367e-12
1.76813e-12
1.85525e-12
1.40884e-12
1.54362e-12
1.11282e-12
1.26256e-12
8.62306e-13
1.06974e-12
6.50035e-13
9.13979e-13
4.64454e-13
7.949e-13
2.9922e-13
7.03643e-13
1.46551e-13
6.50316e-13
-5.92783e-16
6.3259e-13
-1.47104e-13
6.27177e-13
-2.98314e-13
6.34244e-13
-4.64311e-13
7.15328e-13
-6.50685e-13
8.06778e-13
-8.6128e-13
8.76809e-13
-1.11215e-12
1.08788e-12
-1.40891e-12
1.27101e-12
-1.76706e-12
1.51657e-12
-2.20058e-12
1.86422e-12
-2.73886e-12
2.30898e-12
-3.39226e-12
2.77219e-12
-4.22418e-12
3.56701e-12
-5.25087e-12
4.40365e-12
-6.58818e-12
5.71148e-12
-8.27106e-12
7.20795e-12
-1.05517e-11
9.77766e-12
-1.34907e-11
1.25742e-11
-1.76904e-11
1.80161e-11
-2.33205e-11
2.415e-11
-3.1992e-11
3.72337e-11
-4.43019e-11
5.28358e-11
-6.5662e-11
9.20915e-11
-9.87313e-11
1.42156e-10
-1.6954e-10
3.08632e-10
-2.97143e-10
5.54352e-10
-7.12263e-10
1.9353e-09
-1.69607e-09
4.90102e-09
-6.03923e-09
4.55115e-08
-8.93109e-09
4.64695e-08
-1.00104e-07
8.75887e-09
-1.08864e-07
6.0688e-09
4.91595e-08
1.88731e-09
4.9693e-08
8.10511e-10
5.97781e-09
3.44569e-10
2.40125e-09
1.96942e-10
7.0197e-10
1.15084e-10
3.90483e-10
7.6547e-11
1.80715e-10
5.17075e-11
1.16917e-10
3.73413e-11
6.71841e-11
2.72343e-11
4.73521e-11
2.066e-11
3.07208e-11
1.57616e-11
2.2899e-11
1.2327e-11
1.60306e-11
9.66603e-12
1.2437e-11
7.70025e-12
9.18003e-12
6.13681e-12
7.29531e-12
4.93798e-12
5.5912e-12
3.9671e-12
4.53637e-12
3.20206e-12
3.56248e-12
2.57411e-12
2.92585e-12
2.06825e-12
2.35179e-12
1.6482e-12
1.95323e-12
1.30206e-12
1.61988e-12
1.00914e-12
1.36009e-12
7.60755e-13
1.14852e-12
5.43628e-13
1.01871e-12
3.50259e-13
9.03431e-13
1.71509e-13
8.26871e-13
-5.88058e-16
7.9852e-13
-1.72074e-13
8.01329e-13
-3.49391e-13
8.10676e-13
-5.43466e-13
9.2008e-13
-7.6138e-13
1.01779e-12
-1.00805e-12
1.13604e-12
-1.30135e-12
1.37528e-12
-1.64819e-12
1.61721e-12
-2.06715e-12
1.93626e-12
-2.5738e-12
2.36914e-12
-3.2026e-12
2.93996e-12
-3.96656e-12
3.54737e-12
-4.93815e-12
4.54234e-12
-6.13777e-12
5.59928e-12
-7.69966e-12
7.27429e-12
-9.6658e-12
9.18848e-12
-1.23276e-11
1.24395e-11
-1.57612e-11
1.60158e-11
-2.06601e-11
2.29138e-11
-2.72348e-11
3.07327e-11
-3.73406e-11
4.73323e-11
-5.17076e-11
6.7205e-11
-7.65479e-11
1.16943e-10
-1.15084e-10
1.80692e-10
-1.96942e-10
3.90495e-10
-3.4457e-10
7.01972e-10
-8.10511e-10
2.40124e-09
-1.88731e-09
5.97783e-09
-6.0688e-09
4.9693e-08
-8.75887e-09
4.91595e-08
-1.08863e-07
8.52333e-09
-1.17387e-07
6.07851e-09
5.16044e-08
2.07367e-09
5.36978e-08
9.10846e-10
7.14064e-09
3.94712e-10
2.91739e-09
2.26096e-10
8.70576e-10
1.32609e-10
4.83966e-10
8.82262e-11
2.25099e-10
5.9673e-11
1.45491e-10
4.30958e-11
8.37717e-11
3.14512e-11
5.90033e-11
2.38594e-11
3.82975e-11
1.82097e-11
2.85522e-11
1.4242e-11
1.99996e-11
1.11709e-11
1.54937e-11
8.8995e-12
1.14454e-11
7.09424e-12
9.09669e-12
5.70882e-12
6.98338e-12
4.58735e-12
5.63514e-12
3.70305e-12
4.4607e-12
2.97744e-12
3.65398e-12
2.39262e-12
2.94549e-12
1.907e-12
2.44235e-12
1.50666e-12
2.00689e-12
1.16795e-12
1.70895e-12
8.80567e-13
1.4406e-12
6.29293e-13
1.25174e-12
4.05478e-13
1.12162e-12
1.98508e-13
1.03754e-12
-5.69104e-16
1.00714e-12
-1.99097e-13
9.94051e-13
-4.04649e-13
1.01263e-12
-6.29137e-13
1.13325e-12
-8.81089e-13
1.27693e-12
-1.16684e-12
1.41645e-12
-1.50592e-12
1.71004e-12
-1.90687e-12
2.02928e-12
-2.39149e-12
2.41466e-12
-2.97709e-12
2.9526e-12
-3.70352e-12
3.6716e-12
-4.58685e-12
4.42383e-12
-5.70898e-12
5.66845e-12
-7.09517e-12
6.99426e-12
-8.89895e-12
9.07935e-12
-1.11706e-11
1.14544e-11
-1.42426e-11
1.55174e-11
-1.82093e-11
1.99784e-11
-2.38596e-11
2.85658e-11
-3.14517e-11
3.83154e-11
-4.30952e-11
5.89778e-11
-5.96732e-11
8.37801e-11
-8.82272e-11
1.45488e-10
-1.32609e-10
2.2507e-10
-2.26096e-10
4.83985e-10
-3.94712e-10
8.70604e-10
-9.10845e-10
2.91737e-09
-2.07367e-09
7.14065e-09
-6.07851e-09
5.36978e-08
-8.52333e-09
5.16044e-08
-1.17387e-07
8.16049e-09
-1.25547e-07
6.04814e-09
5.37167e-08
2.25397e-09
5.7492e-08
1.01288e-09
8.38174e-09
4.47543e-10
3.48272e-09
2.5704e-10
1.06109e-09
1.51354e-10
5.89654e-10
1.00737e-10
2.75713e-10
6.82286e-11
1.77986e-10
4.92794e-11
1.02714e-10
3.59884e-11
7.22976e-11
2.73027e-11
4.70014e-11
2.08464e-11
3.50101e-11
1.63048e-11
2.45458e-11
1.27928e-11
1.90046e-11
1.01922e-11
1.40392e-11
8.12676e-12
1.11665e-11
6.54018e-12
8.57398e-12
5.25666e-12
6.9399e-12
4.24368e-12
5.45366e-12
3.41288e-12
4.48778e-12
2.74284e-12
3.60364e-12
2.1865e-12
2.99514e-12
1.72773e-12
2.46385e-12
1.33954e-12
2.08895e-12
1.01001e-12
1.77387e-12
7.21914e-13
1.54819e-12
4.65185e-13
1.37985e-12
2.27707e-13
1.27256e-12
-5.68719e-16
1.22204e-12
-2.28288e-13
1.22481e-12
-4.64414e-13
1.24146e-12
-7.21716e-13
1.39229e-12
-1.01047e-12
1.5584e-12
-1.33843e-12
1.75282e-12
-1.72691e-12
2.09917e-12
-2.1863e-12
2.48181e-12
-2.74172e-12
2.97745e-12
-3.41245e-12
3.62754e-12
-4.24409e-12
4.48931e-12
-5.25613e-12
5.44991e-12
-6.54037e-12
6.94612e-12
-8.12763e-12
8.57209e-12
-1.01917e-11
1.11365e-11
-1.27925e-11
1.40551e-11
-1.63053e-11
1.90237e-11
-2.08461e-11
2.45211e-11
-2.73028e-11
3.50225e-11
-3.5989e-11
4.69996e-11
-4.92788e-11
7.22659e-11
-6.82287e-11
1.02734e-10
-1.00738e-10
1.78005e-10
-1.51354e-10
2.75693e-10
-2.5704e-10
5.89655e-10
-4.47543e-10
1.06109e-09
-1.01288e-09
3.4827e-09
-2.25397e-09
8.38174e-09
-6.04814e-09
5.7492e-08
-8.1605e-09
5.37167e-08
-1.25547e-07
7.71355e-09
-1.33261e-07
5.97031e-09
5.546e-08
2.42708e-09
6.10352e-08
1.11618e-09
9.69264e-09
5.03013e-10
4.09589e-09
2.89803e-10
1.2743e-09
1.71366e-10
7.08099e-10
1.14118e-10
3.32954e-10
7.7405e-11
2.14698e-10
5.59158e-11
1.24201e-10
4.08647e-11
8.73358e-11
3.10041e-11
5.68639e-11
2.36833e-11
4.2339e-11
1.85246e-11
2.97012e-11
1.45391e-11
2.29966e-11
1.15844e-11
1.70006e-11
9.2392e-12
1.35102e-11
7.43607e-12
1.03656e-11
5.9781e-12
8.39979e-12
4.82663e-12
6.61484e-12
3.88251e-12
5.42354e-12
3.12068e-12
4.37428e-12
2.48813e-12
3.62592e-12
1.96632e-12
2.99525e-12
1.52483e-12
2.53186e-12
1.14979e-12
2.13683e-12
8.21941e-13
1.88395e-12
5.29667e-13
1.67013e-12
2.59235e-13
1.53563e-12
-5.36997e-16
1.49929e-12
-2.59841e-13
1.47776e-12
-5.28958e-13
1.51609e-12
-8.21715e-13
1.68499e-12
-1.15014e-12
1.89104e-12
-1.52371e-12
2.11466e-12
-1.96543e-12
2.54914e-12
-2.4878e-12
3.00619e-12
-3.11954e-12
3.60581e-12
-3.88206e-12
4.38644e-12
-4.82688e-12
5.44492e-12
-5.97765e-12
6.59273e-12
-7.43625e-12
8.40535e-12
-9.24e-12
1.0378e-11
-1.15839e-11
1.34921e-11
-1.45389e-11
1.7012e-11
-1.8525e-11
2.30114e-11
-2.36831e-11
2.96759e-11
-3.10043e-11
4.23336e-11
-4.08652e-11
5.68674e-11
-5.59153e-11
8.73236e-11
-7.74051e-11
1.24224e-10
-1.14119e-10
2.1471e-10
-1.71365e-10
3.32934e-10
-2.89803e-10
7.08105e-10
-5.03013e-10
1.27432e-09
-1.11618e-09
4.09587e-09
-2.42709e-09
9.69266e-09
-5.97031e-09
6.10352e-08
-7.71355e-09
5.54599e-08
-1.33261e-07
7.21515e-09
-1.40476e-07
5.85167e-09
5.68234e-08
2.59191e-09
6.4295e-08
1.22027e-09
1.10643e-08
5.61047e-10
4.75511e-09
3.24407e-10
1.51093e-09
1.92687e-10
8.39815e-10
1.28406e-10
3.97243e-10
8.72335e-11
2.55871e-10
6.30293e-11
1.48413e-10
4.60993e-11
1.04266e-10
3.4979e-11
6.7968e-11
2.67324e-11
5.05806e-11
2.09109e-11
3.55323e-11
1.64177e-11
2.74915e-11
1.30821e-11
2.03241e-11
1.04366e-11
1.61552e-11
8.40061e-12
1.24048e-11
6.75514e-12
1.00435e-11
5.45459e-12
7.91952e-12
4.38862e-12
6.49594e-12
3.52791e-12
5.23496e-12
2.81336e-12
4.34496e-12
2.22362e-12
3.58441e-12
1.72466e-12
3.03539e-12
1.30063e-12
2.55921e-12
9.29859e-13
2.25131e-12
5.99247e-13
2.00565e-12
2.93306e-13
1.85076e-12
-5.43667e-16
1.78711e-12
-2.93867e-13
1.77559e-12
-5.98622e-13
1.82655e-12
-9.2962e-13
2.02009e-12
-1.30086e-12
2.26341e-12
-1.72354e-12
2.54908e-12
-2.22268e-12
3.0295e-12
-2.81291e-12
3.59246e-12
-3.52679e-12
4.317e-12
-4.3881e-12
5.25379e-12
-5.45473e-12
6.5072e-12
-6.75475e-12
7.88888e-12
-8.40076e-12
1.00494e-11
-1.04373e-11
1.24177e-11
-1.30818e-11
1.61301e-11
-1.64175e-11
2.03476e-11
-2.09113e-11
2.75018e-11
-2.67323e-11
3.54955e-11
-3.49792e-11
5.0591e-11
-4.60997e-11
6.79831e-11
-6.30289e-11
1.04242e-10
-8.72337e-11
1.48432e-10
-1.28407e-10
2.5589e-10
-1.92686e-10
3.97226e-10
-3.24407e-10
8.39819e-10
-5.61047e-10
1.51094e-09
-1.22027e-09
4.75509e-09
-2.59191e-09
1.10643e-08
-5.85167e-09
6.4295e-08
-7.21515e-09
5.68234e-08
-1.40476e-07
6.67785e-09
-1.47154e-07
5.6997e-09
5.78016e-08
2.74736e-09
6.72473e-08
1.32465e-09
1.2487e-08
6.21544e-10
5.45821e-09
3.60864e-10
1.77162e-09
2.15358e-10
9.85317e-10
1.43639e-10
4.68958e-10
9.77458e-11
3.0177e-10
7.06449e-11
1.75498e-10
5.1712e-11
1.23205e-10
3.9243e-11
8.04465e-11
3.00064e-11
5.98099e-11
2.34739e-11
4.20523e-11
1.84366e-11
3.25216e-11
1.46922e-11
2.40867e-11
1.17244e-11
1.91241e-11
9.43815e-12
1.46903e-11
7.59135e-12
1.18797e-11
6.1305e-12
9.38021e-12
4.93358e-12
7.68782e-12
3.96651e-12
6.20199e-12
3.16373e-12
5.14813e-12
2.50088e-12
4.24188e-12
1.94004e-12
3.58741e-12
1.46325e-12
3.05241e-12
1.04623e-12
2.66299e-12
6.74294e-13
2.37782e-12
3.30025e-13
2.18624e-12
-5.24021e-16
2.11378e-12
-3.30572e-13
2.10605e-12
-6.73745e-13
2.16304e-12
-1.04597e-12
2.38977e-12
-1.46333e-12
2.67812e-12
-1.93899e-12
3.01172e-12
-2.49986e-12
3.60965e-12
-3.16315e-12
4.2663e-12
-3.96537e-12
5.12436e-12
-4.933e-12
6.21246e-12
-6.13053e-12
7.7047e-12
-7.59099e-12
9.35249e-12
-9.43826e-12
1.18976e-11
-1.17251e-11
1.47003e-11
-1.46919e-11
1.90954e-11
-1.84364e-11
2.40846e-11
-2.34743e-11
3.2556e-11
-3.00063e-11
4.20396e-11
-3.92433e-11
5.98277e-11
-5.17124e-11
8.04511e-11
-7.06446e-11
1.2318e-10
-9.7746e-11
1.75523e-10
-1.4364e-10
3.01783e-10
-2.15358e-10
4.68915e-10
-3.60864e-10
9.85342e-10
-6.21544e-10
1.77164e-09
-1.32465e-09
5.4582e-09
-2.74736e-09
1.2487e-08
-5.6997e-09
6.72473e-08
-6.67785e-09
5.78016e-08
-1.47154e-07
6.10991e-09
-1.53264e-07
5.51946e-09
5.8392e-08
2.89239e-09
6.98744e-08
1.42879e-09
1.39506e-08
6.84374e-10
6.20263e-09
3.99172e-10
2.05682e-09
2.39415e-10
1.14509e-09
1.59854e-10
5.48527e-10
1.08974e-10
3.52645e-10
7.87882e-11
2.057e-10
5.77234e-11
1.44268e-10
4.38124e-11
9.43548e-11
3.35182e-11
7.01088e-11
2.62241e-11
4.93605e-11
2.06044e-11
3.8156e-11
1.64214e-11
2.82604e-11
1.31082e-11
2.24389e-11
1.05533e-11
1.72511e-11
8.4905e-12
1.39516e-11
6.85743e-12
1.10008e-11
5.51991e-12
9.02964e-12
4.4385e-12
7.27915e-12
3.54089e-12
6.05213e-12
2.7994e-12
4.98902e-12
2.17207e-12
4.22502e-12
1.63837e-12
3.5724e-12
1.17164e-12
3.13411e-12
7.55136e-13
2.79209e-12
3.69605e-13
2.57463e-12
-4.88701e-16
2.48127e-12
-3.7014e-13
2.47572e-12
-7.54678e-13
2.55101e-12
-1.17134e-12
2.79925e-12
-1.63836e-12
3.13566e-12
-2.17096e-12
3.55653e-12
-2.79833e-12
4.23149e-12
-3.54021e-12
5.00136e-12
-4.43738e-12
6.01934e-12
-5.51923e-12
7.29863e-12
-6.85735e-12
9.04736e-12
-8.49016e-12
1.09817e-11
-1.05534e-11
1.3968e-11
-1.31088e-11
1.72588e-11
-1.64211e-11
2.24111e-11
-2.06041e-11
2.82765e-11
-2.62244e-11
3.81656e-11
-3.35182e-11
4.93171e-11
-4.38127e-11
7.01153e-11
-5.77238e-11
9.43693e-11
-7.8788e-11
1.44249e-10
-1.08974e-10
2.0571e-10
-1.59854e-10
3.52666e-10
-2.39415e-10
5.48493e-10
-3.99172e-10
1.14508e-09
-6.84374e-10
2.05683e-09
-1.42879e-09
6.2026e-09
-2.89239e-09
1.39506e-08
-5.51946e-09
6.98744e-08
-6.10991e-09
5.8392e-08
-1.53264e-07
5.51994e-09
-1.58784e-07
5.31468e-09
5.85973e-08
3.02595e-09
7.21631e-08
1.5321e-09
1.54444e-08
7.49376e-10
6.98536e-09
4.39318e-10
2.36687e-09
2.64891e-10
1.3195e-09
1.77084e-10
6.36323e-10
1.20949e-10
4.0878e-10
8.7485e-11
2.39154e-10
6.41546e-11
1.67606e-10
4.87041e-11
1.09802e-10
3.72815e-11
8.15369e-11
2.91724e-11
5.74484e-11
2.29299e-11
4.43936e-11
1.82769e-11
3.29141e-11
1.4594e-11
2.61247e-11
1.17509e-11
2.00894e-11
9.4565e-12
1.62475e-11
7.63868e-12
1.28244e-11
6.15024e-12
1.05262e-11
4.94608e-12
8.4896e-12
3.9466e-12
7.04588e-12
3.12061e-12
5.82032e-12
2.42173e-12
4.90683e-12
1.82692e-12
4.16261e-12
1.30665e-12
3.66941e-12
8.42194e-13
3.25758e-12
4.12225e-13
3.01044e-12
-4.50805e-16
2.89826e-12
-4.12749e-13
2.88325e-12
-8.41846e-13
2.97648e-12
-1.30631e-12
3.2812e-12
-1.82674e-12
3.66741e-12
-2.42064e-12
4.13733e-12
-3.11947e-12
4.92822e-12
-3.9458e-12
5.81729e-12
-4.94493e-12
7.02073e-12
-6.14949e-12
8.504e-12
-7.63847e-12
1.05365e-11
-9.45621e-12
1.2807e-11
-1.17509e-11
1.62569e-11
-1.45944e-11
2.00952e-11
-1.82767e-11
2.60939e-11
-2.29297e-11
3.29274e-11
-2.91726e-11
4.44039e-11
-3.72816e-11
5.74372e-11
-4.87044e-11
8.15424e-11
-6.4155e-11
1.09816e-10
-8.74849e-11
1.67572e-10
-1.20949e-10
2.3918e-10
-1.77085e-10
4.08798e-10
-2.6489e-10
6.36293e-10
-4.39318e-10
1.31952e-09
-7.49376e-10
2.36689e-09
-1.5321e-09
6.98535e-09
-3.02595e-09
1.54445e-08
-5.31468e-09
7.21631e-08
-5.51994e-09
5.85973e-08
-1.58784e-07
4.91569e-09
-1.63699e-07
5.0885e-09
5.84245e-08
3.14702e-09
7.41046e-08
1.634e-09
1.69575e-08
8.16357e-10
7.803e-09
4.81275e-10
2.70196e-09
2.91809e-10
1.50897e-09
1.95363e-10
7.32777e-10
1.33702e-10
4.70451e-10
9.67615e-11
2.76105e-10
7.10272e-11
1.93327e-10
5.39354e-11
1.26911e-10
4.13104e-11
9.41454e-11
3.23302e-11
6.64472e-11
2.54225e-11
5.12968e-11
2.02665e-11
3.80643e-11
1.61878e-11
3.01961e-11
1.3036e-11
2.32393e-11
1.04936e-11
1.87812e-11
8.47763e-12
1.48453e-11
6.82738e-12
1.21589e-11
5.49146e-12
9.82381e-12
4.38272e-12
8.15672e-12
3.4659e-12
6.73688e-12
2.69026e-12
5.70662e-12
2.02979e-12
4.83332e-12
1.45186e-12
4.21784e-12
9.35876e-13
3.77056e-12
4.58087e-13
3.48887e-12
-4.27756e-16
3.3521e-12
-4.58591e-13
3.34336e-12
-9.35586e-13
3.455e-12
-1.45155e-12
3.78326e-12
-2.02944e-12
4.24747e-12
-2.68915e-12
4.81683e-12
-3.46477e-12
5.71066e-12
-4.38176e-12
6.74418e-12
-5.49031e-12
8.12219e-12
-6.82655e-12
9.84197e-12
-8.47726e-12
1.21875e-11
-1.04933e-11
1.48136e-11
-1.3036e-11
1.88106e-11
-1.61882e-11
2.32516e-11
-2.02663e-11
3.01653e-11
-2.54223e-11
3.8082e-11
-3.23303e-11
5.13157e-11
-4.13106e-11
6.64189e-11
-5.39358e-11
9.41686e-11
-7.10275e-11
1.26912e-10
-9.67614e-11
1.93311e-10
-1.33702e-10
2.76123e-10
-1.95363e-10
4.70451e-10
-2.91809e-10
7.32752e-10
-4.81275e-10
1.50898e-09
-8.16357e-10
2.70196e-09
-1.634e-09
7.80298e-09
-3.14702e-09
1.69575e-08
-5.0885e-09
7.41046e-08
-4.9157e-09
5.84245e-08
-1.63699e-07
4.30352e-09
-1.68003e-07
4.84361e-09
5.78844e-08
3.25465e-09
7.56935e-08
1.73384e-09
1.84783e-08
8.85089e-10
8.65177e-09
5.24996e-10
3.06204e-09
3.20189e-10
1.71378e-09
2.1472e-10
8.38243e-10
1.47265e-10
5.37892e-10
1.06644e-10
3.16718e-10
7.8363e-11
2.21618e-10
5.95242e-11
1.45724e-10
4.56196e-11
1.08067e-10
3.57094e-11
7.63491e-11
2.80919e-11
5.89145e-11
2.2398e-11
4.37768e-11
1.78963e-11
3.47066e-11
1.44139e-11
2.67253e-11
1.16062e-11
2.15985e-11
9.37784e-12
1.70752e-11
7.55433e-12
1.39959e-11
6.0771e-12
1.12909e-11
4.85119e-12
9.3679e-12
3.83694e-12
7.74506e-12
2.97881e-12
6.54702e-12
2.24777e-12
5.57509e-12
1.60807e-12
4.8753e-12
1.03663e-12
4.33795e-12
5.07396e-13
4.01473e-12
-3.84259e-16
3.87307e-12
-5.07905e-13
3.84666e-12
-1.03641e-12
3.98859e-12
-1.60767e-12
4.35269e-12
-2.2473e-12
4.88657e-12
-2.97774e-12
5.53954e-12
-3.83576e-12
6.56696e-12
-4.85011e-12
7.76616e-12
-6.07591e-12
9.36336e-12
-7.5534e-12
1.13157e-11
-9.37737e-12
1.40087e-11
-1.16059e-11
1.70431e-11
-1.4414e-11
2.16071e-11
-1.78966e-11
2.67458e-11
-2.23978e-11
3.46829e-11
-2.80917e-11
4.37736e-11
-3.57095e-11
5.89278e-11
-4.56198e-11
7.63166e-11
-5.95246e-11
1.08067e-10
-7.83633e-11
1.45738e-10
-1.06644e-10
2.21589e-10
-1.47265e-10
3.16744e-10
-2.14721e-10
5.37915e-10
-3.20189e-10
8.38224e-10
-5.24996e-10
1.71378e-09
-8.85089e-10
3.06208e-09
-1.73384e-09
8.65174e-09
-3.25465e-09
1.84783e-08
-4.84361e-09
7.56936e-08
-4.30353e-09
5.78844e-08
-1.68003e-07
3.68861e-09
-1.71692e-07
4.58222e-09
5.69908e-08
3.3479e-09
7.69279e-08
1.83096e-09
1.99952e-08
9.55311e-10
9.5274e-09
5.70419e-10
3.44694e-09
3.50042e-10
1.93414e-09
2.35184e-10
9.53109e-10
1.61666e-10
6.1142e-10
1.17158e-10
3.61233e-10
8.61843e-11
2.52584e-10
6.54888e-11
1.66436e-10
5.0224e-11
1.2332e-10
3.93223e-11
8.72601e-11
3.09482e-11
6.72857e-11
2.46796e-11
5.0031e-11
1.97263e-11
3.96407e-11
1.58904e-11
3.05613e-11
1.27988e-11
2.46971e-11
1.03432e-11
1.95215e-11
8.33411e-12
1.59954e-11
6.70552e-12
1.29341e-11
5.35408e-12
1.07296e-11
4.23531e-12
8.85439e-12
3.2888e-12
7.49292e-12
2.48194e-12
6.3595e-12
1.77584e-12
5.58063e-12
1.14491e-12
4.9822e-12
5.60435e-13
4.59781e-12
-3.77934e-16
4.41699e-12
-5.60885e-13
4.42025e-12
-1.14476e-12
4.55395e-12
-1.77541e-12
4.98579e-12
-2.48135e-12
5.57955e-12
-3.28768e-12
6.33637e-12
-4.23408e-12
7.51577e-12
-5.35284e-12
8.87402e-12
-6.70433e-12
1.06967e-11
-8.33311e-12
1.29506e-11
-1.03426e-11
1.60189e-11
-1.27985e-11
1.94928e-11
-1.58904e-11
2.47049e-11
-1.97265e-11
3.05619e-11
-2.46795e-11
3.96101e-11
-3.09479e-11
5.00467e-11
-3.93223e-11
6.7318e-11
-5.02243e-11
8.72243e-11
-6.54892e-11
1.23348e-10
-8.61846e-11
1.66443e-10
-1.17158e-10
2.52566e-10
-1.61667e-10
3.61239e-10
-2.35184e-10
6.11436e-10
-3.50042e-10
9.53067e-10
-5.70419e-10
1.93417e-09
-9.55312e-10
3.44696e-09
-1.83096e-09
9.52738e-09
-3.3479e-09
1.99952e-08
-4.58223e-09
7.69279e-08
-3.68861e-09
5.69908e-08
-1.71691e-07
3.07532e-09
-1.74767e-07
4.30625e-09
5.57599e-08
3.42592e-09
7.78082e-08
1.92468e-09
2.14965e-08
1.02672e-09
1.04254e-08
6.17462e-10
3.8562e-09
3.81368e-10
2.17026e-09
2.56776e-10
1.07769e-09
1.76935e-10