/*--------------------------------*- C++ -*----------------------------------*\
| =========                 |                                                 |
| \\      /  F ield         | foam-extend: Open Source CFD                    |
|  \\    /   O peration     | Version:     4.0                                |
|   \\  /    A nd           | Web:         http://www.foam-extend.org         |
|    \\/     M anipulation  |                                                 |
\*---------------------------------------------------------------------------*/
FoamFile
{
    version     2.0;
    format      ascii;
    class       volScalarField;
    location    "15";
    object      dC2;
}
// * * * * * * * * * * * * * * * * * * * * * * * * * * * * * * * * * * * * * //

dimensions      [0 -1 0 0 0 0 0];

internalField   nonuniform List<scalar> 
6960
(
3.33385e-14
3.33385e-14
3.33385e-14
3.33385e-14
3.33385e-14
3.33385e-14
3.33385e-14
3.33385e-14
3.33385e-14
3.33385e-14
3.33385e-14
3.33385e-14
3.33385e-14
3.33385e-14
3.33385e-14
3.33385e-14
3.33385e-14
3.33385e-14
3.33385e-14
3.33385e-14
3.33385e-14
3.33385e-14
3.33385e-14
3.33385e-14
3.33385e-14
3.33385e-14
3.33385e-14
3.33385e-14
3.33385e-14
3.33385e-14
3.33385e-14
3.33385e-14
3.33385e-14
3.33385e-14
3.33385e-14
3.33385e-14
3.33385e-14
3.33385e-14
3.33385e-14
3.33385e-14
3.33385e-14
3.33385e-14
3.33385e-14
3.33385e-14
3.33385e-14
3.33385e-14
3.33385e-14
3.33385e-14
3.33385e-14
3.33385e-14
3.33385e-14
3.33385e-14
3.33385e-14
3.33385e-14
3.33385e-14
3.33385e-14
3.33385e-14
3.33385e-14
3.33385e-14
3.33385e-14
4.29987e-14
4.29987e-14
4.29987e-14
4.29987e-14
4.29987e-14
4.29987e-14
4.29987e-14
4.29987e-14
4.29987e-14
4.29987e-14
4.29987e-14
4.29987e-14
4.29987e-14
4.29987e-14
4.29986e-14
4.29987e-14
4.29987e-14
4.29988e-14
4.29987e-14
4.29987e-14
4.29987e-14
4.29987e-14
4.29987e-14
4.29987e-14
4.29987e-14
4.29987e-14
4.29987e-14
4.29987e-14
4.29987e-14
4.29987e-14
4.29987e-14
4.29987e-14
4.29987e-14
4.29987e-14
4.29987e-14
4.29987e-14
4.29986e-14
4.29987e-14
4.29987e-14
4.29987e-14
4.29987e-14
4.29986e-14
4.29987e-14
4.29987e-14
4.29987e-14
4.29987e-14
4.29987e-14
4.29987e-14
4.29986e-14
4.29987e-14
4.29987e-14
4.29987e-14
4.29987e-14
4.29987e-14
4.29987e-14
4.29987e-14
4.29987e-14
4.29987e-14
4.29987e-14
4.29987e-14
7.44388e-14
7.44387e-14
7.44388e-14
7.44388e-14
7.44388e-14
7.44388e-14
7.44388e-14
7.44389e-14
7.44388e-14
7.44388e-14
7.44388e-14
7.44388e-14
7.44389e-14
7.4439e-14
7.44389e-14
7.44388e-14
7.44389e-14
7.44388e-14
7.44388e-14
7.44388e-14
7.44388e-14
7.44387e-14
7.44388e-14
7.44388e-14
7.44388e-14
7.44388e-14
7.44389e-14
7.44388e-14
7.44387e-14
7.44388e-14
7.44388e-14
7.44388e-14
7.44387e-14
7.44388e-14
7.44388e-14
7.44388e-14
7.44389e-14
7.44388e-14
7.44387e-14
7.44388e-14
7.44388e-14
7.44389e-14
7.44388e-14
7.44388e-14
7.44388e-14
7.44388e-14
7.44388e-14
7.44388e-14
7.44388e-14
7.44388e-14
7.44388e-14
7.44388e-14
7.44389e-14
7.44388e-14
7.44389e-14
7.44389e-14
7.44388e-14
7.44389e-14
7.44388e-14
7.44388e-14
1.17519e-13
1.17519e-13
1.17519e-13
1.17519e-13
1.17519e-13
1.17519e-13
1.17519e-13
1.17519e-13
1.17519e-13
1.17519e-13
1.17519e-13
1.17519e-13
1.17519e-13
1.17519e-13
1.17519e-13
1.17519e-13
1.17519e-13
1.17519e-13
1.17519e-13
1.17519e-13
1.17519e-13
1.17519e-13
1.17519e-13
1.17519e-13
1.17519e-13
1.17519e-13
1.17519e-13
1.17519e-13
1.17519e-13
1.17519e-13
1.17519e-13
1.17519e-13
1.17519e-13
1.17519e-13
1.17519e-13
1.17519e-13
1.17519e-13
1.17519e-13
1.17519e-13
1.17519e-13
1.17519e-13
1.17519e-13
1.17519e-13
1.17519e-13
1.17519e-13
1.17519e-13
1.17519e-13
1.17519e-13
1.17519e-13
1.17519e-13
1.17519e-13
1.17519e-13
1.17519e-13
1.17519e-13
1.17519e-13
1.17519e-13
1.17519e-13
1.17519e-13
1.17519e-13
1.17519e-13
1.74445e-13
1.74445e-13
1.74444e-13
1.74444e-13
1.74445e-13
1.74445e-13
1.74445e-13
1.74445e-13
1.74445e-13
1.74445e-13
1.74445e-13
1.74445e-13
1.74445e-13
1.74445e-13
1.74445e-13
1.74445e-13
1.74445e-13
1.74445e-13
1.74444e-13
1.74445e-13
1.74445e-13
1.74445e-13
1.74445e-13
1.74444e-13
1.74445e-13
1.74445e-13
1.74445e-13
1.74445e-13
1.74444e-13
1.74445e-13
1.74445e-13
1.74445e-13
1.74445e-13
1.74444e-13
1.74445e-13
1.74445e-13
1.74445e-13
1.74444e-13
1.74445e-13
1.74445e-13
1.74445e-13
1.74444e-13
1.74445e-13
1.74444e-13
1.74445e-13
1.74444e-13
1.74444e-13
1.74445e-13
1.74444e-13
1.74445e-13
1.74445e-13
1.74445e-13
1.74445e-13
1.74445e-13
1.74445e-13
1.74445e-13
1.74445e-13
1.74445e-13
1.74444e-13
1.74444e-13
2.47679e-13
2.47679e-13
2.47679e-13
2.47679e-13
2.47679e-13
2.47679e-13
2.47679e-13
2.47679e-13
2.47679e-13
2.47679e-13
2.47679e-13
2.47679e-13
2.47679e-13
2.47679e-13
2.47679e-13
2.47679e-13
2.47679e-13
2.47679e-13
2.47679e-13
2.47679e-13
2.47679e-13
2.47679e-13
2.47679e-13
2.47679e-13
2.47679e-13
2.47679e-13
2.47679e-13
2.47679e-13
2.47679e-13
2.47679e-13
2.47679e-13
2.47679e-13
2.47679e-13
2.47679e-13
2.47679e-13
2.47679e-13
2.47679e-13
2.47679e-13
2.47679e-13
2.47679e-13
2.47679e-13
2.47679e-13
2.47679e-13
2.47679e-13
2.47679e-13
2.47679e-13
2.47679e-13
2.47679e-13
2.47679e-13
2.47679e-13
2.47679e-13
2.47679e-13
2.47679e-13
2.47679e-13
2.47679e-13
2.47679e-13
2.47679e-13
2.47679e-13
2.47679e-13
2.47679e-13
3.39899e-13
3.39898e-13
3.39898e-13
3.39899e-13
3.39898e-13
3.39898e-13
3.39899e-13
3.39898e-13
3.39898e-13
3.39898e-13
3.39898e-13
3.39899e-13
3.39898e-13
3.39898e-13
3.39899e-13
3.39899e-13
3.39898e-13
3.39898e-13
3.39898e-13
3.39898e-13
3.39898e-13
3.39899e-13
3.39898e-13
3.39899e-13
3.39898e-13
3.39898e-13
3.39898e-13
3.39899e-13
3.39898e-13
3.39898e-13
3.39898e-13
3.39898e-13
3.39898e-13
3.39899e-13
3.39898e-13
3.39898e-13
3.39898e-13
3.39898e-13
3.39898e-13
3.39898e-13
3.39898e-13
3.39898e-13
3.39898e-13
3.39898e-13
3.39899e-13
3.39898e-13
3.39899e-13
3.39898e-13
3.39898e-13
3.39899e-13
3.39898e-13
3.39898e-13
3.39898e-13
3.39899e-13
3.39898e-13
3.39898e-13
3.39898e-13
3.39898e-13
3.39898e-13
3.39898e-13
4.53796e-13
4.53797e-13
4.53797e-13
4.53796e-13
4.53796e-13
4.53797e-13
4.53797e-13
4.53797e-13
4.53797e-13
4.53797e-13
4.53796e-13
4.53796e-13
4.53797e-13
4.53797e-13
4.53797e-13
4.53796e-13
4.53797e-13
4.53796e-13
4.53797e-13
4.53797e-13
4.53797e-13
4.53796e-13
4.53797e-13
4.53796e-13
4.53797e-13
4.53797e-13
4.53797e-13
4.53796e-13
4.53797e-13
4.53797e-13
4.53797e-13
4.53796e-13
4.53797e-13
4.53796e-13
4.53797e-13
4.53797e-13
4.53797e-13
4.53797e-13
4.53797e-13
4.53797e-13
4.53797e-13
4.53797e-13
4.53797e-13
4.53796e-13
4.53796e-13
4.53796e-13
4.53796e-13
4.53797e-13
4.53796e-13
4.53797e-13
4.53797e-13
4.53797e-13
4.53797e-13
4.53796e-13
4.53797e-13
4.53797e-13
4.53796e-13
4.53797e-13
4.53797e-13
4.53797e-13
5.9145e-13
5.9145e-13
5.9145e-13
5.91451e-13
5.91451e-13
5.91451e-13
5.9145e-13
5.91451e-13
5.91451e-13
5.91451e-13
5.91451e-13
5.91451e-13
5.91451e-13
5.9145e-13
5.9145e-13
5.91452e-13
5.91451e-13
5.91452e-13
5.91451e-13
5.9145e-13
5.9145e-13
5.91451e-13
5.9145e-13
5.91451e-13
5.9145e-13
5.91451e-13
5.91451e-13
5.91451e-13
5.91451e-13
5.9145e-13
5.91451e-13
5.91451e-13
5.9145e-13
5.91451e-13
5.9145e-13
5.91451e-13
5.9145e-13
5.91451e-13
5.9145e-13
5.9145e-13
5.91451e-13
5.91451e-13
5.9145e-13
5.91451e-13
5.91451e-13
5.91451e-13
5.91451e-13
5.91451e-13
5.91451e-13
5.9145e-13
5.91451e-13
5.91451e-13
5.91451e-13
5.91451e-13
5.91451e-13
5.91451e-13
5.91451e-13
5.9145e-13
5.91451e-13
5.91451e-13
7.52655e-13
7.52655e-13
7.52654e-13
7.52655e-13
7.52654e-13
7.52655e-13
7.52655e-13
7.52655e-13
7.52654e-13
7.52655e-13
7.52654e-13
7.52654e-13
7.52654e-13
7.52655e-13
7.52656e-13
7.52655e-13
7.52653e-13
7.52654e-13
7.52655e-13
7.52654e-13
7.52655e-13
7.52654e-13
7.52655e-13
7.52654e-13
7.52654e-13
7.52655e-13
7.52655e-13
7.52655e-13
7.52654e-13
7.52655e-13
7.52654e-13
7.52654e-13
7.52655e-13
7.52654e-13
7.52655e-13
7.52655e-13
7.52654e-13
7.52654e-13
7.52655e-13
7.52655e-13
7.52654e-13
7.52654e-13
7.52655e-13
7.52655e-13
7.52655e-13
7.52655e-13
7.52655e-13
7.52654e-13
7.52654e-13
7.52655e-13
7.52654e-13
7.52655e-13
7.52654e-13
7.52654e-13
7.52654e-13
7.52655e-13
7.52655e-13
7.52654e-13
7.52655e-13
7.52655e-13
9.31305e-13
9.31305e-13
9.31306e-13
9.31305e-13
9.31305e-13
9.31305e-13
9.31305e-13
9.31304e-13
9.31306e-13
9.31305e-13
9.31305e-13
9.31307e-13
9.31305e-13
9.31305e-13
9.31304e-13
9.31305e-13
9.31306e-13
9.31304e-13
9.31305e-13
9.31305e-13
9.31306e-13
9.31306e-13
9.31305e-13
9.31305e-13
9.31306e-13
9.31305e-13
9.31305e-13
9.31306e-13
9.31305e-13
9.31304e-13
9.31306e-13
9.31306e-13
9.31305e-13
9.31306e-13
9.31305e-13
9.31305e-13
9.31307e-13
9.31305e-13
9.31303e-13
9.31305e-13
9.31306e-13
9.31304e-13
9.31305e-13
9.31306e-13
9.31305e-13
9.31306e-13
9.31306e-13
9.31308e-13
9.31306e-13
9.31305e-13
9.31305e-13
9.31304e-13
9.31306e-13
9.31305e-13
9.31306e-13
9.31306e-13
9.31305e-13
9.31306e-13
9.31306e-13
9.31305e-13
1.10884e-12
1.10884e-12
1.10884e-12
1.10884e-12
1.10885e-12
1.10884e-12
1.10884e-12
1.10885e-12
1.10884e-12
1.10885e-12
1.10884e-12
1.10884e-12
1.10884e-12
1.10885e-12
1.10884e-12
1.10884e-12
1.10885e-12
1.10884e-12
1.10884e-12
1.10885e-12
1.10885e-12
1.10885e-12
1.10884e-12
1.10884e-12
1.10884e-12
1.10884e-12
1.10884e-12
1.10884e-12
1.10885e-12
1.10885e-12
1.10884e-12
1.10884e-12
1.10884e-12
1.10884e-12
1.10885e-12
1.10885e-12
1.10884e-12
1.10884e-12
1.10885e-12
1.10884e-12
1.10884e-12
1.10885e-12
1.10884e-12
1.10884e-12
1.10885e-12
1.10884e-12
1.10884e-12
1.10884e-12
1.10884e-12
1.10884e-12
1.10884e-12
1.10885e-12
1.10885e-12
1.10885e-12
1.10884e-12
1.10884e-12
1.10884e-12
1.10884e-12
1.10884e-12
1.10884e-12
1.24461e-12
1.24461e-12
1.24461e-12
1.24461e-12
1.24461e-12
1.24461e-12
1.24461e-12
1.24461e-12
1.24461e-12
1.24461e-12
1.24461e-12
1.24461e-12
1.24461e-12
1.24461e-12
1.24461e-12
1.24461e-12
1.24461e-12
1.24461e-12
1.24461e-12
1.24461e-12
1.24461e-12
1.24461e-12
1.24461e-12
1.24461e-12
1.24461e-12
1.24461e-12
1.24461e-12
1.24461e-12
1.24461e-12
1.24461e-12
1.24461e-12
1.24461e-12
1.24461e-12
1.24461e-12
1.24461e-12
1.24461e-12
1.24461e-12
1.24461e-12
1.24461e-12
1.24461e-12
1.24461e-12
1.2446e-12
1.24461e-12
1.24461e-12
1.24461e-12
1.24461e-12
1.24461e-12
1.24461e-12
1.24461e-12
1.24461e-12
1.24461e-12
1.24461e-12
1.2446e-12
1.2446e-12
1.24461e-12
1.24461e-12
1.24461e-12
1.24461e-12
1.24461e-12
1.24461e-12
1.26566e-12
1.26566e-12
1.26566e-12
1.26566e-12
1.26566e-12
1.26566e-12
1.26566e-12
1.26566e-12
1.26566e-12
1.26566e-12
1.26566e-12
1.26565e-12
1.26565e-12
1.26566e-12
1.26566e-12
1.26566e-12
1.26566e-12
1.26566e-12
1.26566e-12
1.26565e-12
1.26566e-12
1.26566e-12
1.26566e-12
1.26566e-12
1.26566e-12
1.26565e-12
1.26566e-12
1.26566e-12
1.26565e-12
1.26566e-12
1.26566e-12
1.26566e-12
1.26566e-12
1.26566e-12
1.26566e-12
1.26566e-12
1.26565e-12
1.26566e-12
1.26566e-12
1.26566e-12
1.26566e-12
1.26566e-12
1.26566e-12
1.26566e-12
1.26566e-12
1.26566e-12
1.26566e-12
1.26566e-12
1.26566e-12
1.26566e-12
1.26566e-12
1.26566e-12
1.26566e-12
1.26566e-12
1.26566e-12
1.26566e-12
1.26566e-12
1.26566e-12
1.26566e-12
1.26565e-12
1.06401e-12
1.06402e-12
1.06402e-12
1.06401e-12
1.06402e-12
1.06402e-12
1.06402e-12
1.06402e-12
1.06402e-12
1.06402e-12
1.06402e-12
1.06402e-12
1.06402e-12
1.06402e-12
1.06402e-12
1.06402e-12
1.06402e-12
1.06402e-12
1.06402e-12
1.06402e-12
1.06402e-12
1.06402e-12
1.06402e-12
1.06402e-12
1.06402e-12
1.06402e-12
1.06402e-12
1.06402e-12
1.06402e-12
1.06402e-12
1.06402e-12
1.06402e-12
1.06401e-12
1.06402e-12
1.06402e-12
1.06402e-12
1.06402e-12
1.06402e-12
1.06402e-12
1.06402e-12
1.06402e-12
1.06402e-12
1.06401e-12
1.06402e-12
1.06401e-12
1.06402e-12
1.06401e-12
1.06402e-12
1.06402e-12
1.06401e-12
1.06402e-12
1.06402e-12
1.06402e-12
1.06402e-12
1.06402e-12
1.06402e-12
1.06402e-12
1.06402e-12
1.06402e-12
1.06402e-12
5.1594e-13
5.15936e-13
5.15935e-13
5.15937e-13
5.15934e-13
5.15934e-13
5.15937e-13
5.15934e-13
5.15934e-13
5.15936e-13
5.15934e-13
5.15931e-13
5.15933e-13
5.15935e-13
5.15936e-13
5.15933e-13
5.15933e-13
5.15934e-13
5.15932e-13
5.15932e-13
5.15936e-13
5.15935e-13
5.15934e-13
5.15934e-13
5.15935e-13
5.15935e-13
5.15933e-13
5.15936e-13
5.15937e-13
5.15936e-13
5.1593e-13
5.15938e-13
5.15942e-13
5.15935e-13
5.15934e-13
5.15934e-13
5.15935e-13
5.15935e-13
5.15933e-13
5.15936e-13
5.15941e-13
5.15932e-13
5.15945e-13
5.15935e-13
5.15938e-13
5.15936e-13
5.15938e-13
5.15937e-13
5.1593e-13
5.15936e-13
5.15941e-13
5.15937e-13
5.15938e-13
5.15934e-13
5.15934e-13
5.1593e-13
5.15936e-13
5.15936e-13
5.15931e-13
5.1594e-13
-4.59857e-13
-4.59855e-13
-4.59853e-13
-4.59857e-13
-4.59857e-13
-4.59854e-13
-4.59857e-13
-4.59855e-13
-4.59859e-13
-4.5986e-13
-4.59866e-13
-4.59849e-13
-4.59857e-13
-4.5986e-13
-4.59853e-13
-4.59856e-13
-4.59849e-13
-4.59851e-13
-4.59848e-13
-4.59858e-13
-4.59856e-13
-4.5985e-13
-4.59859e-13
-4.59858e-13
-4.59859e-13
-4.59858e-13
-4.59856e-13
-4.59857e-13
-4.59864e-13
-4.59855e-13
-4.59859e-13
-4.5986e-13
-4.59863e-13
-4.59858e-13
-4.59856e-13
-4.59855e-13
-4.59855e-13
-4.59848e-13
-4.59854e-13
-4.59852e-13
-4.59864e-13
-4.59855e-13
-4.59866e-13
-4.59853e-13
-4.59857e-13
-4.59858e-13
-4.5986e-13
-4.59866e-13
-4.59849e-13
-4.59855e-13
-4.59865e-13
-4.59857e-13
-4.59856e-13
-4.59855e-13
-4.59862e-13
-4.59853e-13
-4.5986e-13
-4.59858e-13
-4.5985e-13
-4.59862e-13
-1.80131e-12
-1.8013e-12
-1.80131e-12
-1.8013e-12
-1.8013e-12
-1.80131e-12
-1.8013e-12
-1.80131e-12
-1.80129e-12
-1.8013e-12
-1.8013e-12
-1.80131e-12
-1.8013e-12
-1.80131e-12
-1.8013e-12
-1.80131e-12
-1.80131e-12
-1.80132e-12
-1.80131e-12
-1.80129e-12
-1.80131e-12
-1.80131e-12
-1.8013e-12
-1.8013e-12
-1.8013e-12
-1.80131e-12
-1.8013e-12
-1.80131e-12
-1.8013e-12
-1.8013e-12
-1.8013e-12
-1.8013e-12
-1.80131e-12
-1.8013e-12
-1.80131e-12
-1.8013e-12
-1.8013e-12
-1.80131e-12
-1.80131e-12
-1.80131e-12
-1.8013e-12
-1.80131e-12
-1.80129e-12
-1.80131e-12
-1.80131e-12
-1.80131e-12
-1.8013e-12
-1.8013e-12
-1.80132e-12
-1.80131e-12
-1.8013e-12
-1.80132e-12
-1.80131e-12
-1.80131e-12
-1.8013e-12
-1.8013e-12
-1.8013e-12
-1.8013e-12
-1.80131e-12
-1.80131e-12
-3.19564e-12
-3.19566e-12
-3.19563e-12
-3.19565e-12
-3.19564e-12
-3.19565e-12
-3.19565e-12
-3.19565e-12
-3.19565e-12
-3.19564e-12
-3.19565e-12
-3.19564e-12
-3.19565e-12
-3.19563e-12
-3.19565e-12
-3.19564e-12
-3.19563e-12
-3.19564e-12
-3.19565e-12
-3.19565e-12
-3.19564e-12
-3.19564e-12
-3.19564e-12
-3.19565e-12
-3.19565e-12
-3.19564e-12
-3.19566e-12
-3.19564e-12
-3.19565e-12
-3.19564e-12
-3.19564e-12
-3.19565e-12
-3.19565e-12
-3.19565e-12
-3.19565e-12
-3.19564e-12
-3.19564e-12
-3.19563e-12
-3.19565e-12
-3.19563e-12
-3.19565e-12
-3.19564e-12
-3.19566e-12
-3.19564e-12
-3.19564e-12
-3.19564e-12
-3.19565e-12
-3.19564e-12
-3.19564e-12
-3.19565e-12
-3.19566e-12
-3.19563e-12
-3.19564e-12
-3.19564e-12
-3.19564e-12
-3.19565e-12
-3.19564e-12
-3.19564e-12
-3.19564e-12
-3.19564e-12
-4.05844e-12
-4.05842e-12
-4.05844e-12
-4.05844e-12
-4.05843e-12
-4.05842e-12
-4.05842e-12
-4.05842e-12
-4.05844e-12
-4.05845e-12
-4.05844e-12
-4.05843e-12
-4.05844e-12
-4.05845e-12
-4.05844e-12
-4.05843e-12
-4.05843e-12
-4.05844e-12
-4.05842e-12
-4.05844e-12
-4.05844e-12
-4.05842e-12
-4.05845e-12
-4.05843e-12
-4.05842e-12
-4.05843e-12
-4.05842e-12
-4.05843e-12
-4.05842e-12
-4.05843e-12
-4.05843e-12
-4.05843e-12
-4.05842e-12
-4.05842e-12
-4.05843e-12
-4.05844e-12
-4.05844e-12
-4.05844e-12
-4.05843e-12
-4.05844e-12
-4.05843e-12
-4.05844e-12
-4.05842e-12
-4.05844e-12
-4.05842e-12
-4.05845e-12
-4.05844e-12
-4.05844e-12
-4.05844e-12
-4.05842e-12
-4.05842e-12
-4.05846e-12
-4.05843e-12
-4.05844e-12
-4.05844e-12
-4.05842e-12
-4.05844e-12
-4.05843e-12
-4.05843e-12
-4.05843e-12
-3.71461e-12
-3.7146e-12
-3.7146e-12
-3.7146e-12
-3.7146e-12
-3.71461e-12
-3.71462e-12
-3.71463e-12
-3.71461e-12
-3.7146e-12
-3.71462e-12
-3.71463e-12
-3.71461e-12
-3.7146e-12
-3.71462e-12
-3.71462e-12
-3.71462e-12
-3.71459e-12
-3.71462e-12
-3.7146e-12
-3.71462e-12
-3.71461e-12
-3.71459e-12
-3.7146e-12
-3.71464e-12
-3.71462e-12
-3.71463e-12
-3.71462e-12
-3.71462e-12
-3.71461e-12
-3.71462e-12
-3.71462e-12
-3.71463e-12
-3.71462e-12
-3.71463e-12
-3.71461e-12
-3.71461e-12
-3.71461e-12
-3.71461e-12
-3.71462e-12
-3.71462e-12
-3.71462e-12
-3.71462e-12
-3.7146e-12
-3.71463e-12
-3.71458e-12
-3.7146e-12
-3.7146e-12
-3.71461e-12
-3.71463e-12
-3.71461e-12
-3.71459e-12
-3.71462e-12
-3.7146e-12
-3.7146e-12
-3.71462e-12
-3.71461e-12
-3.71462e-12
-3.71461e-12
-3.7146e-12
-1.80624e-12
-1.80627e-12
-1.80623e-12
-1.80623e-12
-1.80626e-12
-1.80625e-12
-1.80625e-12
-1.80624e-12
-1.80623e-12
-1.80625e-12
-1.80622e-12
-1.80623e-12
-1.80625e-12
-1.80625e-12
-1.80625e-12
-1.80624e-12
-1.80624e-12
-1.80627e-12
-1.80625e-12
-1.80624e-12
-1.80624e-12
-1.80625e-12
-1.80626e-12
-1.80626e-12
-1.80625e-12
-1.80625e-12
-1.80622e-12
-1.80622e-12
-1.80625e-12
-1.80625e-12
-1.80624e-12
-1.80623e-12
-1.80621e-12
-1.80625e-12
-1.80624e-12
-1.80623e-12
-1.80624e-12
-1.80626e-12
-1.80625e-12
-1.80622e-12
-1.80624e-12
-1.80622e-12
-1.80625e-12
-1.80625e-12
-1.80623e-12
-1.80627e-12
-1.80626e-12
-1.80623e-12
-1.80624e-12
-1.80623e-12
-1.80624e-12
-1.80624e-12
-1.80626e-12
-1.80625e-12
-1.80624e-12
-1.80624e-12
-1.80625e-12
-1.80625e-12
-1.80625e-12
-1.80626e-12
1.2729e-12
1.27292e-12
1.2729e-12
1.2729e-12
1.27293e-12
1.27294e-12
1.27292e-12
1.27292e-12
1.27289e-12
1.2729e-12
1.2729e-12
1.27291e-12
1.2729e-12
1.2729e-12
1.27291e-12
1.27291e-12
1.2729e-12
1.27291e-12
1.27292e-12
1.27291e-12
1.27292e-12
1.27288e-12
1.27291e-12
1.27292e-12
1.27291e-12
1.27292e-12
1.27289e-12
1.27291e-12
1.27294e-12
1.2729e-12
1.27291e-12
1.27287e-12
1.27288e-12
1.27292e-12
1.27289e-12
1.2729e-12
1.27293e-12
1.27292e-12
1.27293e-12
1.27287e-12
1.27292e-12
1.27288e-12
1.2729e-12
1.27291e-12
1.2729e-12
1.2729e-12
1.27292e-12
1.27289e-12
1.27291e-12
1.27289e-12
1.27291e-12
1.27288e-12
1.27292e-12
1.27292e-12
1.27291e-12
1.2729e-12
1.2729e-12
1.27295e-12
1.27293e-12
1.2729e-12
4.31048e-12
4.31047e-12
4.31046e-12
4.31047e-12
4.31044e-12
4.31046e-12
4.31049e-12
4.31042e-12
4.31046e-12
4.31047e-12
4.31048e-12
4.31042e-12
4.3105e-12
4.31046e-12
4.31046e-12
4.31046e-12
4.31047e-12
4.31048e-12
4.31048e-12
4.31046e-12
4.31046e-12
4.31045e-12
4.31048e-12
4.31048e-12
4.31048e-12
4.3105e-12
4.31047e-12
4.31044e-12
4.31046e-12
4.31048e-12
4.31048e-12
4.31046e-12
4.31049e-12
4.31045e-12
4.31049e-12
4.31048e-12
4.31044e-12
4.31044e-12
4.31044e-12
4.3105e-12
4.31044e-12
4.31048e-12
4.31049e-12
4.3105e-12
4.31047e-12
4.31046e-12
4.3105e-12
4.31051e-12
4.31043e-12
4.31047e-12
4.31043e-12
4.31053e-12
4.31047e-12
4.31049e-12
4.31046e-12
4.3105e-12
4.31046e-12
4.31044e-12
4.31048e-12
4.31049e-12
5.84377e-12
5.84375e-12
5.84375e-12
5.84376e-12
5.84377e-12
5.84374e-12
5.8437e-12
5.84375e-12
5.84375e-12
5.84377e-12
5.84372e-12
5.84383e-12
5.8437e-12
5.84379e-12
5.84374e-12
5.84374e-12
5.84378e-12
5.84374e-12
5.84372e-12
5.84372e-12
5.84374e-12
5.84381e-12
5.84372e-12
5.84375e-12
5.84373e-12
5.8437e-12
5.84374e-12
5.84374e-12
5.84376e-12
5.84373e-12
5.84375e-12
5.84375e-12
5.84372e-12
5.84375e-12
5.84373e-12
5.84372e-12
5.84375e-12
5.8438e-12
5.84376e-12
5.84372e-12
5.84382e-12
5.84371e-12
5.84372e-12
5.84371e-12
5.84376e-12
5.84374e-12
5.84372e-12
5.84375e-12
5.84379e-12
5.84374e-12
5.84377e-12
5.84372e-12
5.84375e-12
5.84369e-12
5.84376e-12
5.84371e-12
5.84372e-12
5.84376e-12
5.84373e-12
5.84374e-12
5.10165e-12
5.10168e-12
5.10163e-12
5.10163e-12
5.1016e-12
5.10167e-12
5.10172e-12
5.10168e-12
5.10169e-12
5.10164e-12
5.10168e-12
5.1016e-12
5.1017e-12
5.10158e-12
5.10159e-12
5.10166e-12
5.10163e-12
5.10166e-12
5.10168e-12
5.10169e-12
5.10169e-12
5.1016e-12
5.10169e-12
5.10169e-12
5.10163e-12
5.1017e-12
5.10168e-12
5.10167e-12
5.10165e-12
5.10173e-12
5.10162e-12
5.10161e-12
5.1017e-12
5.10166e-12
5.10169e-12
5.10164e-12
5.10166e-12
5.10159e-12
5.10163e-12
5.10165e-12
5.1016e-12
5.10166e-12
5.10169e-12
5.10166e-12
5.10167e-12
5.10163e-12
5.10168e-12
5.10164e-12
5.10163e-12
5.10165e-12
5.10167e-12
5.10168e-12
5.10166e-12
5.10164e-12
5.10169e-12
5.10169e-12
5.1017e-12
5.10162e-12
5.10165e-12
5.10165e-12
2.57613e-12
2.57609e-12
2.57615e-12
2.57618e-12
2.57614e-12
2.5761e-12
2.57604e-12
2.57603e-12
2.57606e-12
2.57614e-12
2.57614e-12
2.57616e-12
2.57604e-12
2.57616e-12
2.5762e-12
2.57604e-12
2.57608e-12
2.57603e-12
2.57609e-12
2.57621e-12
2.57601e-12
2.57611e-12
2.57607e-12
2.57608e-12
2.57615e-12
2.57614e-12
2.57607e-12
2.57612e-12
2.57607e-12
2.57608e-12
2.5761e-12
2.5761e-12
2.5761e-12
2.57609e-12
2.57595e-12
2.57615e-12
2.57608e-12
2.57611e-12
2.57609e-12
2.5761e-12
2.57612e-12
2.57614e-12
2.57606e-12
2.57604e-12
2.57613e-12
2.57612e-12
2.57609e-12
2.57613e-12
2.57615e-12
2.57608e-12
2.57613e-12
2.57608e-12
2.5761e-12
2.5762e-12
2.57608e-12
2.57608e-12
2.57606e-12
2.57618e-12
2.5761e-12
2.57612e-12
-3.27236e-13
-3.27273e-13
-3.2724e-13
-3.27393e-13
-3.27264e-13
-3.27261e-13
-3.27189e-13
-3.27313e-13
-3.27135e-13
-3.27233e-13
-3.27384e-13
-3.27243e-13
-3.27164e-13
-3.27244e-13
-3.27269e-13
-3.27136e-13
-3.2716e-13
-3.27119e-13
-3.27173e-13
-3.27242e-13
-3.27062e-13
-3.27129e-13
-3.27157e-13
-3.27254e-13
-3.27317e-13
-3.27227e-13
-3.27269e-13
-3.27133e-13
-3.27228e-13
-3.27197e-13
-3.27284e-13
-3.27135e-13
-3.27146e-13
-3.27214e-13
-3.27045e-13
-3.27267e-13
-3.27205e-13
-3.27159e-13
-3.27188e-13
-3.272e-13
-3.27219e-13
-3.2726e-13
-3.27117e-13
-3.27075e-13
-3.27223e-13
-3.27137e-13
-3.27222e-13
-3.27161e-13
-3.27243e-13
-3.27179e-13
-3.27317e-13
-3.27258e-13
-3.27192e-13
-3.27218e-13
-3.27214e-13
-3.27163e-13
-3.27305e-13
-3.27272e-13
-3.27174e-13
-3.27237e-13
-2.28211e-12
-2.28205e-12
-2.28211e-12
-2.28201e-12
-2.28206e-12
-2.28213e-12
-2.28204e-12
-2.28201e-12
-2.28211e-12
-2.28212e-12
-2.28201e-12
-2.28207e-12
-2.28215e-12
-2.2821e-12
-2.28224e-12
-2.28215e-12
-2.28207e-12
-2.2821e-12
-2.2822e-12
-2.28217e-12
-2.28222e-12
-2.28224e-12
-2.28213e-12
-2.28205e-12
-2.28207e-12
-2.28204e-12
-2.28201e-12
-2.28229e-12
-2.28205e-12
-2.28215e-12
-2.28201e-12
-2.2821e-12
-2.28215e-12
-2.28209e-12
-2.28219e-12
-2.28201e-12
-2.28217e-12
-2.2822e-12
-2.28211e-12
-2.28222e-12
-2.28209e-12
-2.28217e-12
-2.28226e-12
-2.28232e-12
-2.28219e-12
-2.28229e-12
-2.28203e-12
-2.28225e-12
-2.28217e-12
-2.28202e-12
-2.28214e-12
-2.28201e-12
-2.28209e-12
-2.28224e-12
-2.28205e-12
-2.28217e-12
-2.28197e-12
-2.28209e-12
-2.28213e-12
-2.28208e-12
-2.81751e-12
-2.81757e-12
-2.81752e-12
-2.81754e-12
-2.81748e-12
-2.8174e-12
-2.8176e-12
-2.81747e-12
-2.8176e-12
-2.8174e-12
-2.81754e-12
-2.81744e-12
-2.81754e-12
-2.81754e-12
-2.81733e-12
-2.81744e-12
-2.8176e-12
-2.81762e-12
-2.81753e-12
-2.81747e-12
-2.81747e-12
-2.81737e-12
-2.8175e-12
-2.81749e-12
-2.81754e-12
-2.81767e-12
-2.8176e-12
-2.81743e-12
-2.81747e-12
-2.81749e-12
-2.81758e-12
-2.81748e-12
-2.81759e-12
-2.81755e-12
-2.81759e-12
-2.81771e-12
-2.81747e-12
-2.81748e-12
-2.81763e-12
-2.81744e-12
-2.81767e-12
-2.81753e-12
-2.81749e-12
-2.81735e-12
-2.81748e-12
-2.81732e-12
-2.8177e-12
-2.81742e-12
-2.81747e-12
-2.81765e-12
-2.8174e-12
-2.81765e-12
-2.81766e-12
-2.81735e-12
-2.81757e-12
-2.81745e-12
-2.8176e-12
-2.81754e-12
-2.81751e-12
-2.81751e-12
-2.32239e-12
-2.32225e-12
-2.32231e-12
-2.32236e-12
-2.32245e-12
-2.32249e-12
-2.32226e-12
-2.32252e-12
-2.32235e-12
-2.32248e-12
-2.32238e-12
-2.32253e-12
-2.32223e-12
-2.32225e-12
-2.32246e-12
-2.32235e-12
-2.32225e-12
-2.32219e-12
-2.32229e-12
-2.32236e-12
-2.32228e-12
-2.32255e-12
-2.3224e-12
-2.32242e-12
-2.32235e-12
-2.32229e-12
-2.3223e-12
-2.32238e-12
-2.32238e-12
-2.3224e-12
-2.32241e-12
-2.32247e-12
-2.32233e-12
-2.32235e-12
-2.32233e-12
-2.32217e-12
-2.32244e-12
-2.32238e-12
-2.3222e-12
-2.32233e-12
-2.32237e-12
-2.32246e-12
-2.32237e-12
-2.32249e-12
-2.32236e-12
-2.32259e-12
-2.32226e-12
-2.32245e-12
-2.32237e-12
-2.32232e-12
-2.32248e-12
-2.32231e-12
-2.32227e-12
-2.32245e-12
-2.32237e-12
-2.32243e-12
-2.32235e-12
-2.32224e-12
-2.32236e-12
-2.32246e-12
-1.49872e-12
-1.49867e-12
-1.49859e-12
-1.49852e-12
-1.49854e-12
-1.49842e-12
-1.4985e-12
-1.49866e-12
-1.49851e-12
-1.49859e-12
-1.49847e-12
-1.4986e-12
-1.49869e-12
-1.49854e-12
-1.49857e-12
-1.49868e-12
-1.49866e-12
-1.49871e-12
-1.49862e-12
-1.49847e-12
-1.49854e-12
-1.49872e-12
-1.49852e-12
-1.49864e-12
-1.49858e-12
-1.49851e-12
-1.49866e-12
-1.49865e-12
-1.49859e-12
-1.49857e-12
-1.49862e-12
-1.49849e-12
-1.49855e-12
-1.49842e-12
-1.4986e-12
-1.49879e-12
-1.49846e-12
-1.49868e-12
-1.49864e-12
-1.49855e-12
-1.4986e-12
-1.4984e-12
-1.49841e-12
-1.4985e-12
-1.49858e-12
-1.49851e-12
-1.49874e-12
-1.49853e-12
-1.49867e-12
-1.49861e-12
-1.49854e-12
-1.49849e-12
-1.49867e-12
-1.49861e-12
-1.49843e-12
-1.49844e-12
-1.49856e-12
-1.49878e-12
-1.49848e-12
-1.49854e-12
-8.4761e-13
-8.47864e-13
-8.47828e-13
-8.47839e-13
-8.47921e-13
-8.47932e-13
-8.47915e-13
-8.47819e-13
-8.48003e-13
-8.47841e-13
-8.47972e-13
-8.4773e-13
-8.4774e-13
-8.48007e-13
-8.4789e-13
-8.47749e-13
-8.47831e-13
-8.47667e-13
-8.47804e-13
-8.47951e-13
-8.47903e-13
-8.47677e-13
-8.47757e-13
-8.47662e-13
-8.47808e-13
-8.48067e-13
-8.47709e-13
-8.47821e-13
-8.47795e-13
-8.47765e-13
-8.47912e-13
-8.47939e-13
-8.47872e-13
-8.48027e-13
-8.47762e-13
-8.47721e-13
-8.47748e-13
-8.47901e-13
-8.47749e-13
-8.47867e-13
-8.4784e-13
-8.48033e-13
-8.48065e-13
-8.47841e-13
-8.47811e-13
-8.47927e-13
-8.47715e-13
-8.47804e-13
-8.47755e-13
-8.47856e-13
-8.47883e-13
-8.47824e-13
-8.47851e-13
-8.47734e-13
-8.47983e-13
-8.48005e-13
-8.47859e-13
-8.47655e-13
-8.47981e-13
-8.47811e-13
-5.16909e-13
-5.16583e-13
-5.16521e-13
-5.16588e-13
-5.16513e-13
-5.16405e-13
-5.16515e-13
-5.16423e-13
-5.16536e-13
-5.16515e-13
-5.16148e-13
-5.16763e-13
-5.16662e-13
-5.16492e-13
-5.16297e-13
-5.16564e-13
-5.16577e-13
-5.16731e-13
-5.16606e-13
-5.16389e-13
-5.165e-13
-5.16629e-13
-5.16507e-13
-5.16728e-13
-5.16545e-13
-5.16221e-13
-5.1669e-13
-5.1648e-13
-5.1661e-13
-5.1667e-13
-5.16487e-13
-5.16531e-13
-5.16592e-13
-5.16516e-13
-5.16462e-13
-5.16467e-13
-5.1663e-13
-5.16529e-13
-5.16553e-13
-5.16498e-13
-5.16705e-13
-5.1647e-13
-5.16396e-13
-5.16483e-13
-5.16664e-13
-5.16406e-13
-5.16657e-13
-5.16541e-13
-5.16597e-13
-5.1661e-13
-5.16554e-13
-5.16722e-13
-5.16649e-13
-5.16735e-13
-5.1648e-13
-5.16652e-13
-5.16498e-13
-5.16555e-13
-5.16313e-13
-5.16676e-13
-4.18751e-13
-4.19025e-13
-4.19438e-13
-4.1946e-13
-4.1929e-13
-4.19161e-13
-4.19229e-13
-4.1936e-13
-4.19047e-13
-4.19138e-13
-4.19582e-13
-4.18934e-13
-4.19228e-13
-4.19199e-13
-4.19193e-13
-4.19248e-13
-4.19101e-13
-4.19102e-13
-4.19237e-13
-4.19405e-13
-4.19232e-13
-4.19084e-13
-4.19218e-13
-4.19033e-13
-4.19195e-13
-4.19407e-13
-4.19167e-13
-4.19094e-13
-4.19269e-13
-4.18786e-13
-4.19183e-13
-4.19099e-13
-4.19132e-13
-4.19112e-13
-4.19184e-13
-4.19297e-13
-4.19137e-13
-4.1914e-13
-4.19137e-13
-4.19028e-13
-4.19133e-13
-4.19057e-13
-4.19183e-13
-4.193e-13
-4.19013e-13
-4.19392e-13
-4.18939e-13
-4.19156e-13
-4.19098e-13
-4.19053e-13
-4.19149e-13
-4.19031e-13
-4.19251e-13
-4.18891e-13
-4.19171e-13
-4.18973e-13
-4.19259e-13
-4.19196e-13
-4.19253e-13
-4.19213e-13
-4.16312e-13
-4.1621e-13
-4.15784e-13
-4.15738e-13
-4.16051e-13
-4.15946e-13
-4.1618e-13
-4.15936e-13
-4.16016e-13
-4.16062e-13
-4.16055e-13
-4.16015e-13
-4.1587e-13
-4.16072e-13
-4.16398e-13
-4.16078e-13
-4.16134e-13
-4.16047e-13
-4.15985e-13
-4.15909e-13
-4.1596e-13
-4.16066e-13
-4.15903e-13
-4.16037e-13
-4.16236e-13
-4.1607e-13
-4.16155e-13
-4.16119e-13
-4.15976e-13
-4.16448e-13
-4.16099e-13
-4.16256e-13
-4.16122e-13
-4.16098e-13
-4.16195e-13
-4.15908e-13
-4.16279e-13
-4.16116e-13
-4.15949e-13
-4.16232e-13
-4.15812e-13
-4.16122e-13
-4.15937e-13
-4.16044e-13
-4.16122e-13
-4.16025e-13
-4.16458e-13
-4.16042e-13
-4.15985e-13
-4.16311e-13
-4.15912e-13
-4.16013e-13
-4.15861e-13
-4.16273e-13
-4.16142e-13
-4.16306e-13
-4.15946e-13
-4.16083e-13
-4.16138e-13
-4.16069e-13
-4.12722e-13
-4.12604e-13
-4.12907e-13
-4.12937e-13
-4.12756e-13
-4.13075e-13
-4.12641e-13
-4.12755e-13
-4.13018e-13
-4.13046e-13
-4.12631e-13
-4.13128e-13
-4.13031e-13
-4.12811e-13
-4.12617e-13
-4.1247e-13
-4.12877e-13
-4.12771e-13
-4.12673e-13
-4.12857e-13
-4.12988e-13
-4.12937e-13
-4.13195e-13
-4.12779e-13
-4.1278e-13
-4.12861e-13
-4.12636e-13
-4.12833e-13
-4.12747e-13
-4.12778e-13
-4.12783e-13
-4.12644e-13
-4.13037e-13
-4.12919e-13
-4.12865e-13
-4.13017e-13
-4.12625e-13
-4.12988e-13
-4.12853e-13
-4.12689e-13
-4.13092e-13
-4.13076e-13
-4.12889e-13
-4.12579e-13
-4.12759e-13
-4.12657e-13
-4.12803e-13
-4.13078e-13
-4.1309e-13
-4.12517e-13
-4.12681e-13
-4.12932e-13
-4.12939e-13
-4.12726e-13
-4.12672e-13
-4.12686e-13
-4.12989e-13
-4.13034e-13
-4.12692e-13
-4.12441e-13
-3.76667e-13
-3.76661e-13
-3.76425e-13
-3.76173e-13
-3.76583e-13
-3.76323e-13
-3.76559e-13
-3.76443e-13
-3.76151e-13
-3.75881e-13
-3.76541e-13
-3.76014e-13
-3.7608e-13
-3.76257e-13
-3.76362e-13
-3.76438e-13
-3.76424e-13
-3.76431e-13
-3.76753e-13
-3.76304e-13
-3.76569e-13
-3.76237e-13
-3.76127e-13
-3.76636e-13
-3.7634e-13
-3.7618e-13
-3.76409e-13
-3.76322e-13
-3.76583e-13
-3.76219e-13
-3.76364e-13
-3.76363e-13
-3.76203e-13
-3.76323e-13
-3.75879e-13
-3.76309e-13
-3.76558e-13
-3.76195e-13
-3.76478e-13
-3.76808e-13
-3.76566e-13
-3.76008e-13
-3.76377e-13
-3.76435e-13
-3.76344e-13
-3.7649e-13
-3.76186e-13
-3.76001e-13
-3.76168e-13
-3.76576e-13
-3.76731e-13
-3.76374e-13
-3.76365e-13
-3.76562e-13
-3.76456e-13
-3.76591e-13
-3.7623e-13
-3.7615e-13
-3.76472e-13
-3.76796e-13
-3.1136e-13
-3.11658e-13
-3.11461e-13
-3.11915e-13
-3.11588e-13
-3.11949e-13
-3.11837e-13
-3.11786e-13
-3.1165e-13
-3.12069e-13
-3.11516e-13
-3.11973e-13
-3.11566e-13
-3.1192e-13
-3.11657e-13
-3.11692e-13
-3.11557e-13
-3.11712e-13
-3.11317e-13
-3.1199e-13
-3.11221e-13
-3.11734e-13
-3.1176e-13
-3.11532e-13
-3.11566e-13
-3.11967e-13
-3.11795e-13
-3.11633e-13
-3.11485e-13
-3.11635e-13
-3.11578e-13
-3.11958e-13
-3.11788e-13
-3.11567e-13
-3.12426e-13
-3.11615e-13
-3.11417e-13
-3.11921e-13
-3.11487e-13
-3.11602e-13
-3.11642e-13
-3.12086e-13
-3.11912e-13
-3.11734e-13
-3.11724e-13
-3.11574e-13
-3.11849e-13
-3.11898e-13
-3.11694e-13
-3.11685e-13
-3.11361e-13
-3.11718e-13
-3.11655e-13
-3.11665e-13
-3.11582e-13
-3.11699e-13
-3.11758e-13
-3.12041e-13
-3.11578e-13
-3.11674e-13
-2.36454e-13
-2.36105e-13
-2.36572e-13
-2.36416e-13
-2.36385e-13
-2.3639e-13
-2.36264e-13
-2.3635e-13
-2.36611e-13
-2.36245e-13
-2.36485e-13
-2.36236e-13
-2.36408e-13