/*--------------------------------*- C++ -*----------------------------------*\
| =========                 |                                                 |
| \\      /  F ield         | foam-extend: Open Source CFD                    |
|  \\    /   O peration     | Version:     4.0                                |
|   \\  /    A nd           | Web:         http://www.foam-extend.org         |
|    \\/     M anipulation  |                                                 |
\*---------------------------------------------------------------------------*/
FoamFile
{
    version     2.0;
    format      ascii;
    class       volScalarField;
    location    "15";
    object      dPhi;
}
// * * * * * * * * * * * * * * * * * * * * * * * * * * * * * * * * * * * * * //

dimensions      [0 -1 0 0 0 0 0];

internalField   nonuniform List<scalar> 
6960
(
-4.70506e-16
5.48305e-16
3.06725e-16
-9.72737e-16
5.54228e-16
3.59559e-16
-5.28521e-16
-3.33876e-16
-9.72717e-16
-1.41693e-15
-7.78131e-16
1.37313e-16
-6.39716e-16
3.32166e-16
-9.72585e-16
3.59553e-16
-1.66621e-15
-1.08352e-15
-1.19434e-15
-3.33753e-16
-1.95283e-16
-1.52762e-15
1.10947e-15
3.59737e-16
-9.72389e-16
-1.66597e-15
1.37814e-16
-1.63866e-15
-1.00006e-15
-9.72756e-16
1.10803e-15
5.00934e-16
-6.68232e-16
2.19846e-16
-6.09328e-16
5.52884e-16
3.30862e-16
-8.31356e-16
2.19669e-16
-4.4639e-16
3.89799e-16
-5.57382e-16
-8.90762e-16
-1.38699e-15
-2.7321e-18
2.19407e-16
-2.38627e-15
9.96377e-16
1.08266e-16
1.05534e-15
2.19255e-16
-3.35727e-16
3.89341e-16
-5.57724e-16
-1.44582e-15
-3.87645e-16
2.19438e-16
-2.93666e-18
-8.32222e-16
1.4403e-15
2.77449e-16
-7.26034e-16
1.11088e-16
5.69377e-16
-6.42308e-16
-5.96325e-16
9.02701e-16
-1.53033e-15
2.01267e-15
2.17899e-15
1.18934e-15
-8.74257e-16
1.12439e-15
-3.64836e-16
2.17954e-15
1.29104e-15
-3.1403e-15
1.90211e-15
2.92747e-16
-5.30852e-16
1.48663e-17
5.14372e-16
-2.14088e-15
-5.40412e-16
-7.06659e-16
-5.86295e-16
-1.48386e-15
2.12411e-15
-3.16223e-17
-3.74372e-16
4.85846e-16
-1.9177e-15
2.53995e-15
9.7258e-17
1.9166e-16
-1.17956e-15
4.30328e-16
-1.6957e-15
-5.69234e-16
1.48485e-15
-6.96696e-16
3.74695e-16
2.07465e-16
7.45692e-16
5.95715e-16
2.07367e-16
-1.36388e-15
-5.70159e-16
2.42757e-15
3.568e-16
9.60188e-17
-6.8087e-16
-7.53164e-16
1.76171e-15
1.48435e-15
-7.52762e-16
-2.23507e-15
-3.48351e-16
-9.20356e-16
-1.40315e-15
-1.21825e-15
-1.50569e-15
-2.74271e-16
-2.85138e-15
-1.28994e-15
-2.42246e-16
1.25689e-15
7.64268e-16
-1.90767e-15
3.67855e-16
1.92934e-15
7.56216e-16
7.01147e-16
-1.90077e-15
-2.07367e-15
1.70059e-15
7.08462e-16
-1.18516e-15
1.75769e-15
8.20268e-16
1.14649e-15
3.617e-17
4.37264e-15
2.97808e-15
1.47984e-15
-1.28903e-15
-2.96672e-16
3.31114e-15
1.98536e-15
-6.86559e-16
1.01423e-15
3.0624e-16
-1.09483e-15
-1.7614e-15
3.06216e-16
2.67938e-15
2.3699e-16
-8.596e-16
2.91957e-16
-5.40431e-16
1.13849e-15
-1.3176e-15
-2.20688e-15
-1.86074e-15
1.84485e-15
6.23957e-16
-3.06721e-16
9.00847e-16
-1.65246e-15
-2.58301e-15
-2.26323e-15
2.06715e-15
2.4854e-16
5.13006e-16
-4.85875e-16
1.69267e-15
-1.04132e-15
-2.0972e-15
3.18951e-15
4.56144e-16
-1.0863e-15
1.63712e-15
6.90606e-16
4.06406e-16
-1.73225e-15
2.37723e-15
1.84967e-16
-1.89824e-15
1.2668e-15
2.39114e-16
-1.09456e-15
9.60471e-16
1.56418e-16
-2.3153e-15
-3.69735e-16
-2.34137e-15
-1.98204e-15
-6.40154e-17
-5.06826e-16
-5.37593e-16
-3.41297e-16
1.71244e-15
-2.95281e-15
-2.70095e-15
-1.06236e-15
-2.39692e-15
2.76768e-15
1.18477e-15
-4.83143e-16
-9.34464e-17
-2.27955e-15
6.99861e-16
2.35621e-15
-2.25694e-16
-9.65602e-16
2.18082e-16
-2.11313e-15
8.90723e-17
5.22729e-16
-1.89153e-15
-1.35477e-15
4.40017e-16
1.74257e-15
-1.08446e-16
2.70581e-16
7.15275e-16
4.73949e-16
4.08824e-16
7.14396e-16
4.13708e-15
-1.00667e-15
-3.39731e-16
-4.02221e-15
1.18726e-15
1.4931e-15
2.91811e-15
1.52033e-15
7.41315e-16
-2.80298e-15
5.74388e-16
2.21465e-15
9.69595e-16
4.67034e-16
-5.11408e-16
-3.61847e-15
-5.00751e-15
-9.4024e-17
-1.56383e-15
9.89707e-17
-3.73979e-16
-1.14939e-15
-1.84539e-15
-2.56575e-15
2.45956e-15
-2.64697e-15
-8.44258e-16
1.9325e-15
-2.17461e-15
-1.74238e-16
-2.45093e-15
2.12792e-15
2.12663e-16
-1.56341e-15
5.17652e-16
1.24077e-15
-8.96276e-16
3.12776e-15
-3.03533e-15
4.07002e-15
-7.33883e-16
6.99039e-17
3.01456e-16
-2.59379e-15
-1.23449e-15
-5.86923e-16
-1.45729e-15
2.08489e-16
-5.80477e-15
-7.05917e-17
-4.01088e-15
5.60161e-15
2.65039e-15
-8.21927e-16
1.1843e-15
5.64121e-16
1.81422e-15
-2.87517e-16
-1.99032e-15
-3.7106e-15
6.82895e-16
-9.63131e-16
-1.79455e-15
4.4589e-15
-3.22906e-16
2.05382e-16
-3.40534e-16
-2.65426e-15
-4.35038e-15
3.56767e-15
-5.4821e-16
-4.03899e-15
-2.17844e-15
-2.28883e-15
-1.646e-15
-2.67889e-15
-1.06234e-15
-5.30777e-15
-2.4834e-15
-3.69171e-16
-2.56399e-15
-2.18131e-15
5.44168e-16
1.0319e-15
-1.65268e-15
2.15924e-15
-1.36769e-15
-1.02774e-15
-1.29589e-16
2.39844e-15
3.70776e-15
-2.9325e-15
-1.41982e-15
2.09387e-16
-4.07126e-15
-2.93083e-15
-2.19008e-15
4.39587e-15
1.88199e-15
-3.90004e-15
3.1552e-15
1.41703e-15
-1.79117e-15
-4.55467e-16
6.53726e-16
-2.04119e-15
-3.73264e-15
-2.35245e-16
4.55102e-15
-4.15046e-15
9.99573e-16
-6.31708e-15
5.13532e-16
8.84045e-16
2.16962e-15
3.79551e-15
-1.44873e-15
-1.96705e-15
-8.5509e-16
-2.11743e-15
-2.149e-15
2.62855e-15
3.32444e-15
-3.78451e-15
-3.34975e-15
2.6468e-15
1.02063e-15
-3.68273e-15
8.92597e-16
-1.3886e-15
-5.65472e-16
9.05213e-15
2.44179e-15
-2.10285e-15
-1.57684e-15
-1.91545e-15
2.0883e-15
2.49232e-15
8.62042e-16
-9.79888e-16
4.16545e-15
3.38243e-15
1.12195e-16
3.14088e-15
2.01064e-15
-4.07043e-16
3.7255e-15
-3.23428e-15
5.70072e-15
4.20399e-17
-2.98001e-15
9.5485e-16
5.65981e-15
2.10525e-16
4.27105e-15
4.81629e-15
2.26429e-16
-1.81847e-15
8.41985e-15
-2.60963e-15
-2.63228e-15
-2.04981e-15
-1.43326e-15
-2.32556e-15
3.43187e-15
1.1893e-15
-8.10102e-17
9.32915e-16
2.32729e-15
-6.23924e-16
-5.97922e-15
1.57527e-15
2.34739e-15
-8.0933e-16
-7.26071e-15
-2.86433e-16
1.96436e-15
2.31985e-16
-3.63334e-15
3.80623e-15
4.93163e-16
-5.10666e-16
-1.29849e-15
2.64706e-15
2.43796e-16
-3.11298e-15
4.31809e-15
-1.29652e-15
2.37448e-15
-3.85483e-15
-1.98399e-15
-7.47422e-15
-4.67916e-15
9.95081e-16
5.6465e-15
2.34358e-15
-2.7966e-15
1.217e-15
-2.91387e-15
6.08508e-16
-3.60139e-15
-2.69293e-15
-6.11734e-16
-2.20994e-15
-5.34727e-15
-1.41448e-16
-9.2915e-15
-3.01449e-16
-1.22878e-15
-2.55679e-15
-3.10536e-15
-2.21435e-15
-3.57272e-15
3.0069e-16
-2.15886e-15
-1.22995e-15
2.67596e-15
1.13651e-16
-6.70473e-15
1.07286e-15
1.80052e-15
-2.11787e-15
6.39069e-16
3.21322e-15
-5.35788e-15
-3.17145e-15
1.76522e-16
-1.07255e-16
2.1373e-15
9.09442e-16
1.82073e-15
4.12539e-16
1.04956e-15
1.27605e-15
7.88622e-17
-3.21237e-15
-7.34456e-15
-2.43422e-15
2.18918e-15
-2.43009e-15
4.49333e-15
-1.30126e-15
-5.86231e-15
-3.01725e-15
1.39225e-15
-1.36038e-15
1.58439e-15
-6.47147e-16
-4.58528e-15
2.46069e-15
1.39889e-16
-4.20668e-15
2.24858e-15
1.39908e-15
-4.40625e-15
-6.70296e-15
3.10511e-15
-3.39252e-15
8.19866e-15
-3.61491e-15
3.02457e-15
-3.51321e-15
3.32895e-15
-1.42472e-15
1.5376e-15
-1.83616e-15
6.24094e-15
-1.12601e-15
-7.81574e-17
4.77125e-15
2.40811e-15
-2.90267e-15
-2.63618e-15
-3.54648e-15
-1.57673e-15
-3.39916e-15
7.89164e-17
-1.08571e-15
1.40469e-15
-3.21391e-15
-3.58283e-15
-3.79091e-16
1.0093e-15
5.25431e-16
6.95486e-15
2.91738e-15
1.19918e-15
-1.17252e-15
3.63187e-15
3.52054e-15
2.40711e-15
-4.75396e-16
-1.14818e-15
1.09368e-15
3.8543e-15
-5.74409e-15
5.91167e-15
1.27884e-15
-2.02964e-15
5.97268e-15
-2.76692e-15
-7.88229e-16
3.89509e-15
-1.94224e-15
1.18101e-15
2.84179e-15
-4.48305e-15
3.65818e-15
3.48457e-15
-5.47888e-16
-5.34254e-16
4.58065e-15
-5.06957e-15
3.08401e-15
-4.35605e-16
8.6003e-15
-1.11266e-16
3.66889e-15
-2.80868e-15
4.00615e-15
3.79471e-17
6.8321e-16
-4.1255e-15
3.5924e-15
9.48975e-16
8.68229e-16
9.98875e-16
3.7759e-15
1.42854e-15
-4.24064e-15
-8.75848e-15
-1.29383e-15
3.05601e-15
5.84081e-15
1.05439e-15
5.56345e-15
1.27326e-15
-2.07549e-15
3.00625e-15
7.34317e-15
2.37736e-15
3.79281e-15
1.07309e-15
8.67009e-16
-5.44963e-15
-1.6269e-15
4.32082e-15
-6.62635e-15
-3.02815e-15
-6.50039e-15
-6.05833e-15
-3.75131e-15
9.45099e-16
1.85718e-15
-2.30512e-15
-1.62468e-16
6.5643e-16
-5.71212e-16
-2.80808e-16
-4.38018e-15
3.38545e-15
2.28485e-15
-1.16123e-15
-9.76189e-16
1.81772e-15
-5.70003e-15
1.77492e-15
-6.72287e-16
-7.45199e-15
-2.14228e-15
1.18007e-15
-5.37049e-15
2.20069e-15
-3.85998e-15
9.71011e-16
-5.20181e-15
4.94166e-15
-3.12245e-15
2.01775e-15
1.36604e-15
-2.28214e-15
2.81974e-15
-1.92129e-15
-6.14081e-15
1.40553e-15
-3.63747e-15
-3.89874e-15
-2.29176e-15
-2.29192e-15
2.59566e-15
8.62724e-15
-2.69145e-15
5.16541e-16
-6.29078e-15
3.89928e-15
-2.65529e-15
-2.52999e-16
2.1519e-15
8.09628e-17
-8.18852e-15
-1.0407e-15
-2.08088e-15
-1.89819e-15
8.85414e-16
4.22636e-15
4.13162e-16
-6.23904e-16
1.02438e-14
-2.00764e-15
8.07975e-15
2.66012e-15
-1.27855e-15
-4.71847e-15
-5.81127e-15
-6.38118e-15
3.20187e-15
1.68686e-15
8.96229e-16
4.75087e-15
-4.62624e-15
2.70113e-15
-2.00282e-15
-3.02948e-15
3.29869e-16
8.48117e-16
-1.15112e-15
-5.32614e-16
-2.5195e-15
4.51882e-15
6.25441e-15
2.50844e-15
-1.34013e-15
-1.49967e-15
8.78225e-15
-1.40887e-15
1.62625e-15
-2.39582e-15
-1.32717e-15
2.35597e-15
-7.78094e-15
8.87257e-16
-3.05317e-15
-3.12684e-16
3.04037e-15
1.09927e-15
9.80037e-15
6.69457e-15
-4.01377e-15
6.15431e-15
-2.93526e-15
-4.89214e-15
-3.9163e-15
3.50143e-16
2.40476e-15
-2.42276e-15
1.49208e-15
5.55876e-15
2.77127e-15
5.2638e-17
9.94273e-15
3.42131e-15
-7.97268e-16
-2.98508e-15
-3.51141e-15
1.04056e-15
1.60917e-15
-4.25175e-15
-8.43704e-15
5.57291e-15
-3.85315e-15
-3.14402e-15
-6.59087e-16
1.46047e-15
5.72947e-15
1.61286e-15
-1.01037e-15
-4.35708e-15
-2.01223e-15
1.1131e-15
-2.58322e-15
-6.51367e-15
1.60467e-15
3.4096e-15
-1.27627e-15
4.62683e-15
1.56299e-15
-2.18326e-15
3.65566e-15
-7.08065e-15
-8.59902e-15
1.46714e-15
4.26775e-15
4.06272e-15
-1.0468e-14
-1.49262e-15
-2.01423e-15
-9.27481e-16
-5.04908e-15
-1.01243e-15
4.3354e-15
-5.97385e-15
7.63034e-15
1.79305e-15
-6.92106e-15
-5.48856e-15
-4.62103e-15
-5.17652e-16
5.45126e-15
-2.61201e-15
1.07851e-15
5.27193e-16
2.45263e-15
6.82825e-15
-6.32247e-15
4.5273e-15
-3.10375e-15
1.28261e-15
-3.81775e-15
-7.36065e-16
-7.1566e-15
-3.55564e-15
-3.42109e-15
1.00289e-15
-1.60007e-15
-7.83211e-15
-5.15289e-15
3.53477e-15
6.12921e-15
-8.51934e-15
-2.42476e-15
8.16133e-16
-3.04433e-15
-4.16328e-15
-1.09601e-14
-2.57818e-15
-8.65627e-16
1.01031e-15
-5.91898e-15
-3.35018e-17
7.41974e-16
-3.70841e-15
5.63514e-16
-1.49951e-15
-8.90743e-15
-1.49495e-15
-7.10955e-15
-6.12726e-15
-2.99077e-16
2.65044e-15
3.50945e-15
2.65174e-15
-7.56437e-15
7.9884e-16
1.21387e-15
2.40303e-15
3.27646e-15
-5.13294e-15
2.51318e-16
3.54773e-15
-2.33526e-15
3.36905e-15
-5.69607e-15
-1.50628e-15
2.69674e-15
3.53374e-15
3.65246e-15
6.49546e-16
-6.95407e-16
3.6234e-15
9.93509e-15
-2.5559e-15
2.31488e-15
-6.19622e-16
5.19224e-15
-1.48525e-15
2.11994e-15
-2.1877e-15
9.67108e-17
8.01984e-16
4.40912e-15
1.94961e-15
6.29108e-15
-1.61524e-15
6.92838e-15
5.77132e-15
6.27319e-16
-1.35699e-15
-3.51683e-15
1.00495e-15
5.35563e-15
4.16995e-15
5.18075e-15
-4.08668e-15
7.23965e-15
-3.31213e-15
1.13635e-15
1.25843e-15
6.69354e-15
-3.801e-15
2.4542e-15
5.93395e-15
-1.75955e-15
1.36881e-15
4.88845e-15
-5.82932e-15
6.4458e-15
3.41979e-15
-6.57851e-15
5.15321e-16
-5.80265e-16
1.54965e-15
-4.1178e-15
-1.10025e-15
-3.14538e-15
-1.16226e-15
-2.35814e-16
7.13676e-15
5.26922e-15
-3.17021e-16
-1.10209e-15
4.77222e-15
9.42378e-15
-1.29833e-15
-2.14293e-15
4.49434e-15
-2.13263e-15
-1.36848e-15
3.05962e-15
-2.93775e-15
-2.31e-15
5.27107e-15
-2.25807e-15
3.75047e-15
6.57384e-15
7.36845e-15
-3.25586e-16
-1.37911e-16
2.81643e-15
-6.29032e-15
-1.19089e-15
-5.20222e-15
1.82937e-15
-3.06417e-15
-1.17765e-14
-2.07733e-15
5.17034e-15
-3.07686e-15
6.83069e-15
7.01609e-15
-3.7264e-16
1.07022e-15
-5.74334e-15
7.65414e-15
-7.03994e-15
-8.00976e-15
-3.3697e-16
5.22553e-15
-2.5186e-15
7.44847e-16
-4.99839e-15
-8.68251e-15
-2.14401e-15
2.02637e-15
2.77751e-15
9.16075e-15
-5.86651e-15
3.18766e-15
2.31835e-15
4.62195e-15
9.9855e-16
9.32414e-16
6.64421e-15
-8.76035e-15
-5.37504e-15
-7.08114e-15
5.34056e-15
-1.81604e-15
-7.08092e-15
-2.64675e-15
3.3285e-16
-1.14251e-14
-7.34373e-15
-4.05492e-15
-4.5285e-15
-4.82448e-15
-1.02674e-15
7.09285e-16
-6.5102e-15
7.9253e-15
-5.06149e-15
-3.94021e-15
-2.40389e-15
-7.1579e-16
-7.4205e-15
-2.20613e-15
-1.71347e-15
-5.30262e-15
-8.38392e-15
1.85813e-14
6.8205e-15
8.95269e-15
-2.55698e-15
9.59822e-15
1.04678e-14
2.06367e-15
-1.08574e-14
3.7817e-16
-1.29887e-14
-8.24731e-15
-3.19796e-15
-1.02099e-14
4.23142e-15
-1.02841e-14
1.45788e-14
7.82425e-15
5.3449e-15
-5.84537e-15
8.27073e-15
5.17772e-15
-4.41899e-15
4.88953e-15
3.88166e-15
-5.14346e-15
1.91557e-15
-5.10464e-15
2.79009e-15
-2.19139e-15
-8.22649e-15
-1.42013e-14
1.31644e-15
5.11743e-15
-1.00926e-14
1.07882e-14
5.33471e-15
8.18312e-15
-9.78232e-15
-8.17141e-15
1.36091e-14
-8.55696e-15
-1.29063e-15
3.20534e-15
-4.41509e-15
1.19872e-14
2.15908e-15
-6.04833e-15
8.40495e-15
-7.29299e-15
1.12553e-14
-3.63403e-15
6.20337e-15
-5.74671e-15
5.35444e-15
6.02968e-15
-2.65738e-15
-7.14533e-15
7.02997e-16
2.49605e-15
-2.50451e-16
-1.39834e-14
-4.31599e-15
-9.88445e-15
-8.0927e-15
3.23309e-16
-1.03797e-14
-1.78438e-15
1.04279e-15
-2.70834e-15
1.12397e-14
1.17022e-14
-6.07283e-15
1.27847e-14
-9.00625e-15
2.60469e-15
-4.87956e-15
8.47109e-15
-1.79327e-15
1.00514e-14
-7.07897e-15
2.26013e-15
1.27127e-14
-4.49966e-15
-9.09602e-15
6.59629e-15
-1.14778e-14
2.45724e-15
-1.18724e-14
4.32423e-15
8.64478e-15
1.48679e-14
-4.30645e-15
3.80989e-16
2.74954e-15
-2.91607e-15
-2.54484e-15
-2.43859e-15
9.97162e-15
6.39549e-15
-1.00198e-14
1.15871e-14
5.4852e-15
-6.44883e-16
3.18972e-15
-3.07697e-15
4.48079e-15
3.62384e-15
4.74273e-15
7.06813e-15
-4.61653e-15
-7.79498e-15
-1.7408e-15
1.36414e-14
-1.16231e-14
-8.12501e-15
-9.88792e-16
1.38787e-14
-1.3857e-14
-1.57296e-15
7.67181e-15
1.20997e-16
8.89089e-15
-1.9173e-15
6.39766e-15
-1.80802e-15
4.73796e-15
-1.48796e-15
5.46525e-15
4.02109e-15
-2.80071e-15
-9.25865e-15
3.68932e-15
-5.64262e-15
1.50054e-16
-2.45593e-15
6.97055e-15
-6.57547e-15
-5.1569e-15
-6.026e-15
7.92422e-15
-2.59385e-15
-2.12434e-14
8.87311e-16
1.34636e-14
-8.44593e-15
8.42772e-15
5.58538e-15
8.97286e-15
-1.78243e-16
-8.60683e-15
-6.51606e-15
2.9486e-15
-1.77072e-15
3.25911e-15
-7.68613e-15
3.43128e-15
1.10719e-15
-5.60142e-15
-3.52322e-15
-2.59601e-15
-1.70992e-14
-1.66447e-15
-5.7029e-16
2.23346e-16
-2.04394e-15
-1.96674e-15
8.18312e-15
-1.37711e-14
-3.63208e-15
-7.13795e-15
-5.4865e-15
-3.76262e-15
-1.17172e-14
1.14336e-14
-9.88792e-16
1.17783e-14
-7.00395e-15
5.39022e-15
4.93399e-15
-7.59896e-15
-1.55778e-15
-1.03775e-14
7.18696e-15
2.15062e-15
4.06099e-15
-1.25967e-14
-1.77853e-15
-1.26765e-15
3.9105e-15
5.3655e-15
1.00276e-14
5.16297e-15
4.44957e-16
2.49236e-15
5.62527e-15
-8.96765e-15
3.71925e-15
4.88195e-15
3.371e-15
-1.64669e-15
4.08614e-15
2.05881e-14
-5.13522e-15
-1.13264e-14
1.78195e-14
3.59521e-16
-6.6943e-15
9.46725e-15
-1.70393e-15
5.84992e-15
-1.4923e-15
-1.88911e-15
4.86243e-15
-1.52534e-14
6.93889e-15
-1.07856e-14
-7.94503e-16
6.38552e-15
2.35922e-16
1.00952e-14
1.05671e-14
-2.62811e-15
-1.17874e-14
-6.76716e-15
6.2797e-15
-5.92495e-15
-1.38518e-14
1.73299e-14
5.22325e-15
4.72018e-15
9.95211e-15
6.075e-15
-5.0307e-16
-1.04439e-14
3.08521e-15
-1.4661e-14
2.12851e-15
6.66741e-15
-7.324e-15
2.81893e-15
7.39599e-15
6.93369e-15
-3.79904e-15
5.94143e-15
-4.43135e-15
9.03878e-15
2.42514e-15
-1.73386e-15
1.48753e-15
-9.71358e-15
-7.00048e-15
-7.73166e-15
-1.47712e-15
-5.79224e-15
-5.24754e-16
6.68909e-15
-5.9501e-15
1.16964e-14
-1.11924e-14
-5.14692e-15
1.52916e-15
-1.05272e-14
-1.18308e-15
5.62137e-15
-1.52075e-14
1.916e-15
1.51268e-15
-1.62786e-14
7.63972e-15
-5.01075e-15
2.86229e-17
2.69836e-15
-4.32033e-15
3.48246e-15
6.54945e-15
4.34115e-15
-2.28029e-15
-2.82153e-15
9.3649e-15
-5.52943e-15
-1.25212e-14
-2.06172e-15
1.85789e-14
3.58567e-15
-3.61516e-15
6.73853e-15
1.21266e-14
-3.77129e-15
-6.00821e-15
-3.74527e-15
1.69569e-15
-7.37257e-17
6.65787e-15
3.73139e-15
1.29801e-14
1.28942e-14
2.62984e-15
-2.87877e-15
6.64746e-15
-6.33521e-15
-4.80518e-15
-2.42254e-15
-7.59896e-15
-3.85456e-15
6.04725e-15
-6.39766e-15
-7.43069e-15
-3.98119e-16
1.43722e-15
1.01273e-14
-1.31492e-15
4.09135e-15
-3.20577e-15
6.69777e-15
6.2797e-16
3.65333e-15
5.73239e-15
-1.19939e-14
1.50244e-14
8.09335e-15
-4.37757e-15
9.18449e-15
1.17181e-15
2.69403e-15
2.56479e-15
5.43749e-15
6.67608e-15
9.95558e-15
-6.62144e-15
5.43662e-15
1.79891e-15
-4.63605e-15
1.20971e-14
6.21725e-15
-1.63949e-14
8.91474e-15
7.82013e-15
-3.63945e-15
-7.84615e-15
-4.78437e-15
8.56086e-15
1.17337e-14
-6.90767e-15
4.81386e-15
2.04524e-15
3.73312e-15
-2.8675e-15
3.50414e-15
6.38378e-15
-5.95531e-15
-1.24605e-14
-2.95597e-15
-6.69603e-16
5.72112e-15
-8.47065e-15
-6.28837e-15
-9.38832e-15
-8.38218e-15
-4.75835e-15
1.27311e-14
-2.87617e-15
-7.02043e-15
4.42354e-15
4.51028e-17
-4.66467e-15
7.1939e-15
7.96238e-15
3.47639e-15
1.50747e-15
-4.92315e-15
-4.81559e-15
-5.66734e-15
3.84762e-15
5.15039e-15
7.53564e-15
-1.32359e-15
-1.2575e-14
5.84602e-15
-7.93463e-15
-3.7869e-15
6.06112e-15
-8.46198e-15
3.57353e-15
-8.13932e-15
2.44423e-15
-4.94396e-15
-9.26169e-15
2.53617e-15
3.64812e-15
1.86309e-15
-1.38084e-15
1.97238e-15
-8.06126e-15
-6.09408e-15
5.12958e-15
-1.04916e-14
-8.89913e-15
7.21125e-15
8.09942e-15
9.61557e-15
2.79464e-15
-2.34361e-15
-5.46785e-15
1.57339e-15
-1.52656e-15
7.99708e-16
3.99507e-15
-2.64372e-15
-2.96811e-15
5.65346e-15
-2.60729e-15
2.7929e-16
3.13118e-15
-2.07299e-15
-6.09582e-15
-1.67227e-15
1.03789e-14
4.36803e-15
3.26128e-15
-4.21538e-15
3.94303e-15
1.385e-14
-5.45917e-15
-5.2406e-15
-3.407e-15
-8.49841e-15
9.48894e-16
-6.23113e-15
-1.84748e-15
1.16834e-14
8.68056e-15
8.86791e-15
-3.7869e-15
-5.34121e-15
-8.62678e-15
-6.69256e-15
7.65013e-15
2.27249e-15
1.94636e-15
6.29358e-15
-9.74741e-15
3.7418e-15
-1.03025e-14
4.11476e-15
-1.37251e-14
3.96037e-15
-2.39912e-15
-3.69149e-15
-6.88512e-15
-5.13305e-15
1.1156e-14
4.17201e-15
4.96131e-16
-2.48759e-15
-4.85202e-15
4.41487e-15
5.51469e-15
-7.21298e-15
3.05311e-15
5.0706e-15
-4.51722e-15
-6.44103e-15
4.32987e-15
-1.10276e-14
-1.22159e-14
2.27943e-15
-9.92262e-16
-2.17534e-15
-2.10248e-15
-9.26516e-15
9.00495e-15
9.56006e-15
3.14679e-15
4.61436e-16
-2.13371e-16
2.72352e-16
-1.17718e-14
4.22752e-15
9.58261e-15
-1.98452e-15
-6.79665e-15
-4.88151e-15
1.18655e-15
1.05176e-14
-8.96852e-16
-3.79904e-16
-5.08621e-15
2.76168e-15
5.26662e-15
-1.41605e-14
-4.52069e-15
-7.26329e-15
6.90593e-15
-1.24345e-14
3.40179e-15
1.01308e-14
1.09635e-14
-1.14821e-14
-4.42354e-16
7.98146e-15
1.17441e-14
-3.03924e-15
1.44659e-14
-1.00232e-14
1.00232e-14
5.3256e-16
2.18523e-14
-8.64413e-15
8.67709e-15
6.34909e-16
-7.65013e-15
6.06286e-15
5.32387e-15
6.6093e-15
-2.17881e-15
-1.75901e-15
3.12944e-15
-7.38992e-16
-9.61384e-15
-1.39021e-14
-3.83027e-15
-2.10942e-15
2.36963e-15
-2.31412e-15
2.23051e-14
-8.32667e-15
4.82947e-15
2.56392e-15
-2.27249e-15
1.14561e-14
-2.06779e-15
-1.35725e-14
-8.12544e-15
-7.60156e-15
1.47556e-14
-8.78464e-15
6.22766e-15
-3.26822e-15
-1.88217e-14
6.245e-16
3.66374e-15
-5.20417e-17
-2.4182e-15
4.02456e-15
1.33504e-14
-5.78357e-15
-1.2837e-16
-1.04083e-16
-1.2091e-14
4.38538e-15
4.83641e-15
3.67761e-15
-5.05845e-15
2.14863e-14
-4.59702e-15
-7.12624e-15
-4.64212e-15
1.18169e-14
6.09929e-15
-2.17534e-14
-4.61089e-15
5.57887e-15
-3.78864e-15
3.44516e-15
-1.60531e-14
2.86923e-15
-2.20657e-14
3.53884e-16
-9.19056e-15
-5.79398e-15
-1.04083e-17
-1.50331e-14
3.88578e-16
-3.13291e-15
1.36419e-14
-1.10328e-14
-5.6101e-15
-6.56766e-15
1.25906e-14
1.59525e-14
1.24623e-14
1.37286e-14
-5.67948e-15
9.8116e-15
-1.18586e-14
1.35898e-14
-1.32463e-14
-6.76195e-15
7.38298e-15
6.8695e-16
3.7019e-15
7.76462e-15
8.28157e-15
9.46812e-15
-8.01095e-15
6.67522e-15
2.41474e-15
-7.73687e-16
8.26422e-15
7.63278e-16
3.43475e-16
1.06165e-15
1.17441e-14
-2.84842e-15
-1.37113e-14
1.10537e-14
-4.68722e-15
9.54792e-15
-2.83801e-15
4.826e-15
-1.60462e-14
-5.47479e-15
6.36644e-15
-8.97199e-15
6.17562e-16
1.20563e-14
-1.21431e-16
1.57513e-15
-7.05339e-15
1.19418e-14
-6.87297e-15
-7.11931e-15
-3.19189e-16
5.16254e-15
8.91995e-15
-6.08194e-15
-3.63598e-15
1.096e-14
8.41341e-15
6.33174e-15
-1.60982e-14
7.93116e-15
-3.26475e-15
1.20043e-15
-8.26422e-15
8.6875e-15
2.12469e-14
8.93036e-15
-4.13558e-15
-1.5668e-14
-9.04832e-15
-1.28161e-14
3.05311e-16
2.50494e-15
5.16948e-15
-1.20043e-14
1.55431e-14
1.48631e-14
-1.84783e-14
-1.01447e-14
-1.2261e-14
-1.32533e-15
4.1217e-15
-1.49811e-14
-2.41474e-15
-9.11077e-15
8.46545e-16
8.30586e-15
4.55885e-15
-6.00908e-15
1.42247e-15
-8.1532e-15
1.67227e-15
-2.83107e-15
1.21431e-15
-1.05957e-14
1.70697e-15
-2.43278e-14
1.11994e-14
-6.93889e-16
4.71845e-15
3.63598e-15
-3.58047e-15
-2.67841e-15
1.19002e-14
-8.21565e-15
-1.27121e-14
-4.4062e-15
-1.47798e-15
-1.72778e-15
4.59355e-15
7.79238e-15
-3.03924e-15
5.97439e-15
-1.31839e-16
-9.92262e-16
1.92901e-14
-6.70991e-15
-9.79078e-15
-2.61596e-15
1.64521e-14
-1.09704e-14
6.66134e-16
-4.22579e-15
-4.95437e-15
-5.79398e-15
-2.89907e-14
-1.15116e-14
-5.23886e-15
5.93969e-15
-1.12479e-14
4.22579e-15
-3.21965e-15
-2.00534e-14
-5.43315e-15
6.19643e-15
-1.33019e-14
-6.19643e-15
1.08594e-14
7.11931e-15
6.51562e-15
8.99975e-15
-3.17107e-15
1.4759e-14
1.61468e-14
5.89806e-15
-6.02296e-15
-1.38084e-14
-4.54498e-15
-8.22259e-15
8.53484e-15
-4.88498e-15
2.48412e-15
-1.68615e-15
6.4046e-15
6.59195e-15
4.16334e-17
2.52368e-14
-9.40914e-15
-9.02056e-16
1.4086e-14
4.16334e-16
9.60343e-15
1.31839e-16
-9.04138e-15
1.48145e-14
2.54935e-14
-3.79557e-15
9.27036e-15
-2.86576e-15
5.64826e-15
-4.48253e-15
-2.91434e-15
-1.65215e-14
-1.10467e-14
2.35922e-16
-1.72778e-15
1.18655e-15
3.44863e-15
-1.08386e-14
-1.0103e-14
1.34615e-15
-7.56339e-15
3.0323e-15
5.50948e-15
-4.996e-16
8.86791e-15
4.7809e-15
-2.77556e-17
6.77236e-15
1.43982e-14
3.10862e-15
-5.68295e-15
1.24623e-14
1.96371e-15
-4.21191e-15
-2.89352e-15
-1.35447e-14
-7.14012e-15
6.93889e-18
1.7833e-15
-1.01516e-14
-3.96905e-15
-8.94423e-15
-1.67366e-14
-4.32987e-15
3.02536e-15
6.88338e-15
7.14706e-16
2.08028e-14
-1.70836e-14
6.91114e-15
-7.17482e-15
1.35031e-14
-4.75314e-15
-3.7817e-15
-3.64986e-15
-3.76782e-15
1.21222e-14
-7.7785e-15
-1.70419e-14
8.8124e-16
-1.02002e-14
1.23027e-14
-7.41074e-15
-1.98591e-14
-2.35645e-14
-8.6528e-15
-2.32661e-14
1.39888e-14
-1.91167e-14
-5.39152e-15
1.181e-14
-1.07553e-15
1.26565e-14
4.98213e-15
-1.98036e-14
9.09689e-15
-6.35603e-15
1.52656e-14
2.17187e-15
1.26288e-15
1.15186e-15
3.15026e-15
9.92262e-16
3.83721e-15
6.93889e-15
6.87644e-15
1.41831e-14
-9.47853e-15
6.95971e-15
-5.10009e-15
1.69725e-14
7.07767e-16
1.12133e-14
-7.14706e-15
3.09475e-15
2.54449e-14
9.49935e-15
-6.39072e-15
-7.71605e-15
4.78784e-15
8.75688e-15
6.22419e-15
1.81521e-14
2.04003e-15
1.90126e-15
-1.45717e-15
-1.36904e-14
-5.6205e-15
1.56819e-14
-2.22738e-15
7.66748e-15
-5.56499e-15
9.29118e-15
-7.59115e-15
3.69843e-15
-9.1871e-15
-1.21708e-14
1.10953e-14
1.215e-14
-8.80546e-15
7.56339e-15
-1.13659e-14
7.07073e-15
2.33841e-15
2.22253e-14
5.16948e-15
2.66037e-14
-2.01159e-14
5.89806e-15
6.00214e-15
-2.11636e-14
1.93803e-14
-1.09704e-14
-1.12479e-14
1.75138e-14
-7.18176e-15
9.97813e-15
-7.14706e-15
1.75554e-15
-2.70617e-15
2.51188e-15
-1.20737e-15
7.17482e-15
9.85323e-16
2.78944e-15
-7.63278e-15
-1.68615e-14
2.28983e-15
-1.16435e-14
-1.97065e-15
-9.63118e-15
-5.03764e-15
-1.25178e-14
2.16493e-14
3.73312e-15
-1.46411e-14
-2.01228e-15
1.0672e-14
1.66672e-14
6.57807e-15
-6.02296e-15
-3.19189e-16
-1.80134e-14
-8.74301e-15
5.05151e-15
-1.95677e-15
4.63518e-15
9.71445e-16
-7.49401e-16
3.60822e-16
-2.83107e-15
-1.38778e-17
-1.2948e-14
-1.66533e-15
8.60423e-16
2.16493e-15
1.66117e-14
-1.22818e-14
1.94289e-16
1.45994e-14
1.52656e-15
7.61891e-15
-6.99441e-15
-5.25968e-15
-7.60503e-15
2.44249e-15
-2.18159e-14
1.68893e-14
-6.31439e-15
4.85723e-16
9.13158e-15
-1.05055e-14
1.81799e-15
8.27116e-15
-1.65978e-14
1.19349e-15
-1.09496e-14
-4.32987e-15
1.09079e-14
-8.04912e-16
-4.21885e-15
-5.66214e-15
-9.27036e-15
-1.94289e-15
-4.63518e-15
-2.34535e-15
7.50788e-15
5.92582e-15
-3.69149e-15
1.07553e-14
-2.7478e-15
6.53644e-15
1.33227e-15
-1.42664e-14
3.1225e-15
5.25968e-15
-4.21885e-15
-4.48253e-15
-1.98036e-14
2.63678e-16
7.29972e-15
5.41234e-16
-8.38218e-15
5.56499e-15
-2.92821e-15
-1.3739e-15
5.8703e-15
-7.38298e-15
-6.67522e-15
-1.10745e-14
-1.48492e-15
-2.28983e-15
7.46625e-15
8.75688e-15
1.17267e-14
9.57567e-16
-1.78052e-14
1.02557e-14
-3.8719e-15
-4.03844e-15
-8.97893e-15
3.01148e-15
9.10383e-15
1.47798e-14
-6.93889e-17
-5.25968e-15
1.00336e-14
-1.66533e-14
7.43849e-15
-6.32827e-15
-1.27676e-15
5.13478e-16
8.54872e-15
-1.17545e-14
1.56819e-15
4.7462e-15
9.8116e-15
1.91513e-15
-2.28428e-14
6.32827e-15
6.23113e-15
2.07334e-14
3.81639e-15
1.11022e-16
-5.81479e-15
3.01148e-15
-6.00908e-15
-2.10942e-15
1.30729e-14
-1.33921e-14
3.747e-15
-4.89886e-15
7.75768e-15
8.6875e-15
-1.28231e-14
-7.32747e-15
4.27436e-15
5.07927e-15
1.58346e-14
-2.77556e-16
-5.81479e-15
-6.09235e-15
1.31006e-14
3.94129e-15
1.181e-14
7.35523e-16
-1.55848e-14
9.67282e-15
-1.80411e-16
1.04083e-14
7.74381e-15
6.66134e-16
-6.09235e-15
-1.80411e-16
-1.3628e-14
-7.77156e-16
1.15186e-14
6.31439e-15
-2.42861e-15
-2.08167e-15
-3.60822e-15
5.07927e-15
-1.35308e-14
-1.50158e-14
2.88658e-15
-5.82867e-16
-5.84255e-15
1.28786e-14
-3.60822e-16
5.14866e-15
1.52656e-15
-3.06699e-15
1.06859e-15
8.31279e-15
3.71925e-15
-7.66054e-15
-1.4988e-15
2.498e-16
1.7264e-14
-8.5626e-15
9.57567e-16
-2.15244e-14
-4.09395e-15
3.20577e-15
2.91434e-15
4.16334e-15
2.63678e-15
-7.21645e-16
4.91274e-15
2.9976e-15
-2.27596e-15
1.96093e-14
-1.14214e-14
-7.13318e-15
-5.66214e-15
1.01585e-14
-2.76168e-15
-4.56579e-15
-1.17822e-14
-2.3731e-15
1.16157e-14
7.88258e-15
-8.46545e-15
1.29063e-15
-1.56403e-14
1.67921e-15
1.92485e-14
-3.747e-15
2.41474e-15
-5.71765e-15
-1.32394e-14
6.18949e-15
3.19189e-15
-1.21708e-14
3.06699e-15
4.96825e-15
8.8124e-15
-8.36831e-15
7.91034e-16
-1.34615e-15
2.23432e-15
-1.67644e-14
9.35363e-15
6.53644e-15
-2.06779e-15
-3.66374e-15
9.03444e-15
-4.7462e-15
-2.01228e-15
-6.27276e-15
-7.25808e-15
-2.44249e-15
-1.35864e-14
-4.17721e-15
-1.47937e-14
2.04003e-15
-5.52336e-15
1.81799e-15
-9.95037e-15
1.47937e-14
-9.76996e-15
2.47857e-14
6.43929e-15
-1.37668e-14
-1.2379e-14
-6.10623e-15
-1.08247e-15
1.41553e-15
-1.58207e-14
6.88338e-15
1.66533e-15
-2.45359e-14
1.45162e-14
2.19269e-15
2.94209e-15
-4.996e-16
-5.80092e-15
8.18789e-15
1.7486e-15
-7.88258e-15
-6.88338e-15
-8.35443e-15
6.35603e-15
-6.55032e-15
8.57647e-15
2.05391e-15
-1.01863e-14
7.88258e-15
9.96425e-15
-5.93969e-15
2.20379e-14
-3.9968e-15
1.77636e-15
9.1871e-15
2.80331e-15
-2.91434e-15
-8.10463e-15
2.498e-15
2.38698e-15
-7.49401e-16
9.76996e-15
5.7454e-15
5.2458e-15
-3.02536e-15
-5.44009e-15
9.74221e-15
-1.1352e-14
1.34615e-14
8.52096e-15
-1.66533e-15
1.72917e-14
5.71765e-15
1.68199e-14
-2.9976e-15
1.96787e-14
4.46865e-15
8.35443e-15
5.27356e-16
1.83187e-15
-4.19109e-15
1.91513e-15
-1.51823e-14
-1.1241e-14
1.71529e-14
1.93456e-14
3.69149e-15
8.90954e-15
-9.82547e-15
5.16254e-15
-4.19109e-15
6.10623e-16
-2.27596e-15
-3.55271e-15
1.10745e-14
-2.35922e-15
-1.68199e-14
2.22045e-16
7.49401e-16
-5.19029e-15
3.66374e-15
6.77236e-15
7.96585e-15
1.19349e-15
6.66134e-15
-8.60423e-16
-6.91114e-15
4.91274e-15
-5.21805e-15
-3.63598e-15
1.83187e-15
-2.04281e-14
-1.77636e-15
-7.43849e-15
-1.33227e-15
-2.16493e-15
-1.13243e-14
3.44169e-15
-9.9365e-15
-9.71445e-16
2.02616e-15
-5.96745e-15
1.08802e-14
-3.80251e-15
7.82707e-15
-6.38378e-16
-6.05072e-15
1.06581e-14
-2.00118e-14
3.44169e-15
3.33067e-15
-1.66256e-14
2.88658e-15
1.30451e-15
9.1871e-15
-1.113e-14
-5.82867e-16
-7.91034e-15
5.85643e-15
-1.94289e-16
-5.44009e-15
1.83187e-15
5.13478e-15
1.67644e-14
-7.04992e-15
-7.79932e-15
3.02536e-15
-7.13318e-15
9.49241e-15
-1.33227e-15
-1.17684e-14
-1.17406e-14
1.57374e-14
-1.25733e-14
-9.6867e-15
9.15934e-16
7.02216e-15
1.17129e-14
-2.44249e-15
5.9952e-15
8.07687e-15
-5.55112e-16
-2.96985e-15
-6.13398e-15
-1.5099e-14
8.77076e-15
8.88178e-15
-1.11022e-15
1.02696e-14
-7.77156e-16
5.52336e-15
5.05151e-15
5.27356e-15
5.68989e-15
-1.06581e-14
-2.91434e-15
-7.49401e-16
-9.13158e-15
1.04639e-14
-4.30211e-15
4.71845e-16
6.57807e-15
-1.02141e-14
-1.0103e-14
-8.88178e-16
1.23235e-14
3.55271e-15
4.7462e-15
-2.85882e-15
-1.20459e-14
-1.14075e-14
1.37945e-14
-9.15934e-16
-8.10463e-15
-5.35683e-15
4.85723e-15
8.65974e-15
6.60583e-15
-1.03528e-14
-6.96665e-15
3.27516e-15
1.30451e-14
-1.14075e-14
-1.23235e-14
-4.57967e-15
6.60583e-15
-1.21847e-14
7.04992e-15
-8.38218e-15
-2.08167e-15
1.06859e-14
2.15106e-14
-1.08802e-14
1.74027e-14
9.46465e-15
5.4956e-15
-3.05311e-15
-7.91034e-15
2.88658e-15
-4.91274e-15
-1.51823e-14
-6.38378e-16
-5.55112e-15
-5.27356e-16
1.39333e-14
-5.77316e-15
9.71445e-16
8.88178e-15
-3.10862e-15
-2.52576e-15
-2.72005e-15
3.91354e-15
8.60423e-16
3.71925e-15
9.27036e-15
1.47105e-15
2.08999e-14
7.24421e-15
-1.20737e-14
1.30451e-14
-5.63438e-15
-1.07969e-14
-3.55271e-15
1.13243e-14
1.33227e-15
-2.88658e-15
-5.57887e-15
-7.10543e-15
1.32394e-14
1.81521e-14
1.12133e-14
-1.33227e-14
-1.16296e-14
2.22045e-16
-2.52576e-15
-1.33227e-15
-8.60423e-16
-1.52656e-15
8.21565e-15
3.69149e-15
-7.49401e-15
-1.34337e-14
1.51823e-14
4.82947e-15
8.04912e-15
-1.06026e-14
2.91434e-15
-5.77316e-15
-6.07847e-15
-1.33227e-15
1.19349e-15
-1.55709e-14
7.85483e-15
-1.19071e-14
2.08167e-15
-3.77476e-15
2.02616e-15
-7.10543e-15
1.4988e-15
8.32667e-17
1.59595e-14
-2.72005e-15
1.8846e-14
1.08247e-15
-1.41553e-15
2.77556e-16
1.77636e-15
-8.49321e-15
-2.63678e-15
3.21965e-15
9.46465e-15
1.05194e-14
6.46705e-15
-7.29972e-15
-1.05471e-15
8.24341e-15
-2.24265e-14
4.21885e-15
6.91114e-15
-6.245e-15
8.07687e-15
7.49401e-15
4.55191e-15
-9.57567e-15
-8.27116e-15
-3.05311e-15
-2.80331e-15
8.6875e-15
-1.66533e-15
-5.30131e-15
-1.41553e-15
-1.4988e-15
1.21569e-14
-9.15934e-16
1.47105e-15
7.93809e-15
8.32667e-15
1.38778e-16
-1.19349e-15
-5.9952e-15
7.68829e-15
7.68829e-15
-3.94129e-15
1.07414e-14
-4.13558e-15
2.77556e-16
-3.2474e-15
1.02696e-15
9.1871e-15
4.82947e-15
-8.88178e-15