/*--------------------------------*- C++ -*----------------------------------*\
| =========                 |                                                 |
| \\      /  F ield         | foam-extend: Open Source CFD                    |
|  \\    /   O peration     | Version:     4.0                                |
|   \\  /    A nd           | Web:         http://www.foam-extend.org         |
|    \\/     M anipulation  |                                                 |
\*---------------------------------------------------------------------------*/
FoamFile
{
    version     2.0;
    format      ascii;
    class       volScalarField;
    location    "950";
    object      cPlus;
}
// * * * * * * * * * * * * * * * * * * * * * * * * * * * * * * * * * * * * * //

dimensions      [0 0 0 0 0 0 0];

internalField   nonuniform List<scalar> 
6960
(
0.320611
0.320597
0.320581
0.320564
0.320549
0.320535
0.320522
0.320511
0.320501
0.320492
0.320485
0.320478
0.320473
0.320468
0.320464
0.32046
0.320457
0.320454
0.320452
0.32045
0.320449
0.320447
0.320446
0.320445
0.320445
0.320444
0.320444
0.320443
0.320443
0.320443
0.320443
0.320443
0.320443
0.320444
0.320444
0.320445
0.320445
0.320446
0.320447
0.320449
0.32045
0.320452
0.320454
0.320457
0.32046
0.320464
0.320468
0.320473
0.320478
0.320485
0.320492
0.320501
0.320511
0.320522
0.320535
0.320549
0.320564
0.320581
0.320597
0.320611
0.103626
0.103616
0.103604
0.103593
0.103582
0.103572
0.103563
0.103555
0.103548
0.103542
0.103537
0.103532
0.103528
0.103525
0.103522
0.103519
0.103517
0.103515
0.103514
0.103512
0.103511
0.10351
0.10351
0.103509
0.103508
0.103508
0.103508
0.103507
0.103507
0.103507
0.103507
0.103507
0.103507
0.103508
0.103508
0.103508
0.103509
0.10351
0.10351
0.103511
0.103512
0.103514
0.103515
0.103517
0.103519
0.103522
0.103525
0.103528
0.103532
0.103537
0.103542
0.103548
0.103555
0.103563
0.103572
0.103582
0.103593
0.103604
0.103616
0.103626
0.0399953
0.0399903
0.0399839
0.0399776
0.0399716
0.0399661
0.0399613
0.0399569
0.0399531
0.0399498
0.0399469
0.0399443
0.0399422
0.0399403
0.0399386
0.0399372
0.0399361
0.0399351
0.0399342
0.0399335
0.0399329
0.0399323
0.0399319
0.0399316
0.0399313
0.0399311
0.0399309
0.0399308
0.0399307
0.0399306
0.0399306
0.0399307
0.0399308
0.0399309
0.0399311
0.0399313
0.0399316
0.0399319
0.0399323
0.0399329
0.0399335
0.0399342
0.0399351
0.0399361
0.0399372
0.0399386
0.0399403
0.0399422
0.0399443
0.0399469
0.0399498
0.0399531
0.0399569
0.0399613
0.0399661
0.0399716
0.0399776
0.0399839
0.0399903
0.0399953
0.0180822
0.0180803
0.0180776
0.0180748
0.0180723
0.0180699
0.0180678
0.0180659
0.0180642
0.0180628
0.0180615
0.0180604
0.0180594
0.0180586
0.0180579
0.0180573
0.0180568
0.0180563
0.018056
0.0180556
0.0180554
0.0180552
0.018055
0.0180548
0.0180547
0.0180546
0.0180545
0.0180545
0.0180544
0.0180544
0.0180544
0.0180544
0.0180545
0.0180545
0.0180546
0.0180547
0.0180548
0.018055
0.0180552
0.0180554
0.0180556
0.018056
0.0180563
0.0180568
0.0180573
0.0180579
0.0180586
0.0180594
0.0180604
0.0180615
0.0180628
0.0180642
0.0180659
0.0180678
0.0180699
0.0180723
0.0180748
0.0180776
0.0180803
0.0180822
0.0102206
0.0102205
0.0102199
0.0102192
0.0102186
0.010218
0.0102175
0.010217
0.0102166
0.0102162
0.0102159
0.0102156
0.0102153
0.0102151
0.0102149
0.0102148
0.0102147
0.0102145
0.0102144
0.0102144
0.0102143
0.0102142
0.0102142
0.0102141
0.0102141
0.0102141
0.0102141
0.010214
0.010214
0.010214
0.010214
0.010214
0.010214
0.0102141
0.0102141
0.0102141
0.0102141
0.0102142
0.0102142
0.0102143
0.0102144
0.0102144
0.0102145
0.0102147
0.0102148
0.0102149
0.0102151
0.0102153
0.0102156
0.0102159
0.0102162
0.0102166
0.010217
0.0102175
0.010218
0.0102186
0.0102192
0.0102199
0.0102205
0.0102206
0.0074193
0.00742009
0.0074206
0.00742102
0.00742138
0.0074217
0.00742198
0.00742222
0.00742244
0.00742262
0.00742278
0.00742292
0.00742304
0.00742314
0.00742322
0.0074233
0.00742336
0.00742341
0.00742346
0.00742349
0.00742352
0.00742355
0.00742357
0.00742359
0.0074236
0.00742362
0.00742362
0.00742363
0.00742363
0.00742364
0.00742364
0.00742363
0.00742363
0.00742362
0.00742362
0.0074236
0.00742359
0.00742357
0.00742355
0.00742352
0.00742349
0.00742346
0.00742341
0.00742336
0.0074233
0.00742322
0.00742314
0.00742304
0.00742292
0.00742278
0.00742262
0.00742244
0.00742222
0.00742198
0.0074217
0.00742138
0.00742102
0.0074206
0.00742009
0.0074193
0.00645899
0.00646021
0.00646124
0.00646216
0.006463
0.00646374
0.0064644
0.00646499
0.0064655
0.00646595
0.00646634
0.00646668
0.00646697
0.00646722
0.00646743
0.00646761
0.00646777
0.0064679
0.00646801
0.00646811
0.00646818
0.00646825
0.00646831
0.00646835
0.00646839
0.00646842
0.00646844
0.00646845
0.00646847
0.00646847
0.00646847
0.00646847
0.00646845
0.00646844
0.00646842
0.00646839
0.00646835
0.00646831
0.00646825
0.00646818
0.00646811
0.00646801
0.0064679
0.00646777
0.00646761
0.00646743
0.00646722
0.00646697
0.00646668
0.00646634
0.00646595
0.0064655
0.00646499
0.0064644
0.00646374
0.006463
0.00646216
0.00646124
0.00646021
0.00645899
0.00616096
0.00616238
0.00616364
0.0061648
0.00616584
0.00616678
0.00616762
0.00616835
0.006169
0.00616957
0.00617006
0.00617049
0.00617086
0.00617117
0.00617145
0.00617168
0.00617187
0.00617204
0.00617218
0.0061723
0.0061724
0.00617249
0.00617256
0.00617262
0.00617266
0.0061727
0.00617273
0.00617275
0.00617276
0.00617277
0.00617277
0.00617276
0.00617275
0.00617273
0.0061727
0.00617266
0.00617262
0.00617256
0.00617249
0.0061724
0.0061723
0.00617218
0.00617204
0.00617187
0.00617168
0.00617145
0.00617117
0.00617086
0.00617049
0.00617006
0.00616957
0.006169
0.00616835
0.00616762
0.00616678
0.00616584
0.0061648
0.00616364
0.00616238
0.00616096
0.00609741
0.00609892
0.0061003
0.00610155
0.0061027
0.00610372
0.00610464
0.00610545
0.00610616
0.00610678
0.00610732
0.00610778
0.00610819
0.00610854
0.00610883
0.00610909
0.0061093
0.00610949
0.00610964
0.00610978
0.00610989
0.00610998
0.00611006
0.00611012
0.00611017
0.00611021
0.00611024
0.00611026
0.00611028
0.00611029
0.00611029
0.00611028
0.00611026
0.00611024
0.00611021
0.00611017
0.00611012
0.00611006
0.00610998
0.00610989
0.00610978
0.00610964
0.00610949
0.0061093
0.00610909
0.00610883
0.00610854
0.00610819
0.00610778
0.00610732
0.00610678
0.00610616
0.00610545
0.00610464
0.00610372
0.0061027
0.00610155
0.0061003
0.00609892
0.00609741
0.00611638
0.00611795
0.00611937
0.00612068
0.00612188
0.00612295
0.0061239
0.00612474
0.00612549
0.00612613
0.0061267
0.00612719
0.00612761
0.00612797
0.00612828
0.00612855
0.00612877
0.00612897
0.00612913
0.00612927
0.00612938
0.00612948
0.00612956
0.00612963
0.00612968
0.00612972
0.00612975
0.00612978
0.00612979
0.0061298
0.0061298
0.00612979
0.00612978
0.00612975
0.00612972
0.00612968
0.00612963
0.00612956
0.00612948
0.00612938
0.00612927
0.00612913
0.00612897
0.00612877
0.00612855
0.00612828
0.00612797
0.00612761
0.00612719
0.0061267
0.00612613
0.00612549
0.00612474
0.0061239
0.00612295
0.00612188
0.00612068
0.00611937
0.00611795
0.00611638
0.00616539
0.00616699
0.00616846
0.0061698
0.00617102
0.00617212
0.0061731
0.00617397
0.00617473
0.00617539
0.00617597
0.00617647
0.00617691
0.00617728
0.0061776
0.00617787
0.0061781
0.0061783
0.00617847
0.00617861
0.00617873
0.00617883
0.00617891
0.00617898
0.00617904
0.00617908
0.00617911
0.00617914
0.00617915
0.00617916
0.00617916
0.00617915
0.00617914
0.00617911
0.00617908
0.00617904
0.00617898
0.00617891
0.00617883
0.00617873
0.00617861
0.00617847
0.0061783
0.0061781
0.00617787
0.0061776
0.00617728
0.00617691
0.00617647
0.00617597
0.00617539
0.00617473
0.00617397
0.0061731
0.00617212
0.00617102
0.0061698
0.00616846
0.00616699
0.00616539
0.00622697
0.00622861
0.0062301
0.00623147
0.00623272
0.00623384
0.00623484
0.00623573
0.0062365
0.00623718
0.00623777
0.00623829
0.00623873
0.00623911
0.00623943
0.00623971
0.00623995
0.00624015
0.00624032
0.00624047
0.00624059
0.00624069
0.00624078
0.00624085
0.0062409
0.00624095
0.00624098
0.00624101
0.00624102
0.00624103
0.00624103
0.00624102
0.00624101
0.00624098
0.00624095
0.0062409
0.00624085
0.00624078
0.00624069
0.00624059
0.00624047
0.00624032
0.00624015
0.00623995
0.00623971
0.00623943
0.00623911
0.00623873
0.00623829
0.00623777
0.00623718
0.0062365
0.00623573
0.00623484
0.00623384
0.00623272
0.00623147
0.0062301
0.00622861
0.00622697
0.00629566
0.00629733
0.00629885
0.00630025
0.00630153
0.00630267
0.00630369
0.00630459
0.00630538
0.00630607
0.00630668
0.0063072
0.00630765
0.00630804
0.00630837
0.00630865
0.0063089
0.0063091
0.00630928
0.00630943
0.00630955
0.00630965
0.00630974
0.00630981
0.00630987
0.00630991
0.00630995
0.00630997
0.00630999
0.00631
0.00631
0.00630999
0.00630997
0.00630995
0.00630991
0.00630987
0.00630981
0.00630974
0.00630965
0.00630955
0.00630943
0.00630928
0.0063091
0.0063089
0.00630865
0.00630837
0.00630804
0.00630765
0.0063072
0.00630668
0.00630607
0.00630538
0.00630459
0.00630369
0.00630267
0.00630153
0.00630025
0.00629885
0.00629733
0.00629566
0.00637002
0.00637173
0.00637328
0.0063747
0.006376
0.00637717
0.0063782
0.00637912
0.00637993
0.00638064
0.00638125
0.00638179
0.00638225
0.00638264
0.00638298
0.00638327
0.00638352
0.00638373
0.00638391
0.00638406
0.00638419
0.00638429
0.00638438
0.00638445
0.00638451
0.00638456
0.0063846
0.00638462
0.00638464
0.00638465
0.00638465
0.00638464
0.00638462
0.0063846
0.00638456
0.00638451
0.00638445
0.00638438
0.00638429
0.00638419
0.00638406
0.00638391
0.00638373
0.00638352
0.00638327
0.00638298
0.00638264
0.00638225
0.00638179
0.00638125
0.00638064
0.00637993
0.00637912
0.0063782
0.00637717
0.006376
0.0063747
0.00637328
0.00637173
0.00637002
0.00644994
0.00645169
0.00645327
0.00645473
0.00645605
0.00645724
0.0064583
0.00645924
0.00646006
0.00646078
0.00646141
0.00646196
0.00646243
0.00646283
0.00646318
0.00646348
0.00646373
0.00646394
0.00646413
0.00646428
0.00646441
0.00646452
0.00646461
0.00646468
0.00646474
0.00646479
0.00646483
0.00646485
0.00646487
0.00646488
0.00646488
0.00646487
0.00646485
0.00646483
0.00646479
0.00646474
0.00646468
0.00646461
0.00646452
0.00646441
0.00646428
0.00646413
0.00646394
0.00646373
0.00646348
0.00646318
0.00646283
0.00646243
0.00646196
0.00646141
0.00646078
0.00646006
0.00645924
0.0064583
0.00645724
0.00645605
0.00645473
0.00645327
0.00645169
0.00644994
0.0065358
0.00653758
0.0065392
0.00654069
0.00654204
0.00654326
0.00654434
0.0065453
0.00654614
0.00654688
0.00654752
0.00654808
0.00654856
0.00654897
0.00654933
0.00654963
0.00654989
0.00655011
0.0065503
0.00655046
0.00655059
0.0065507
0.00655079
0.00655087
0.00655093
0.00655098
0.00655102
0.00655104
0.00655106
0.00655107
0.00655107
0.00655106
0.00655104
0.00655102
0.00655098
0.00655093
0.00655087
0.00655079
0.0065507
0.00655059
0.00655046
0.0065503
0.00655011
0.00654989
0.00654963
0.00654933
0.00654897
0.00654856
0.00654808
0.00654752
0.00654688
0.00654614
0.0065453
0.00654434
0.00654326
0.00654204
0.00654069
0.0065392
0.00653758
0.0065358
0.00662815
0.00662998
0.00663164
0.00663316
0.00663455
0.00663579
0.0066369
0.00663788
0.00663874
0.0066395
0.00664016
0.00664073
0.00664122
0.00664164
0.00664201
0.00664232
0.00664258
0.00664281
0.006643
0.00664316
0.0066433
0.00664341
0.00664351
0.00664358
0.00664365
0.0066437
0.00664373
0.00664376
0.00664378
0.00664379
0.00664379
0.00664378
0.00664376
0.00664373
0.0066437
0.00664365
0.00664358
0.00664351
0.00664341
0.0066433
0.00664316
0.006643
0.00664281
0.00664258
0.00664232
0.00664201
0.00664164
0.00664122
0.00664073
0.00664016
0.0066395
0.00663874
0.00663788
0.0066369
0.00663579
0.00663455
0.00663316
0.00663164
0.00662998
0.00662815
0.00672771
0.00672958
0.00673128
0.00673284
0.00673426
0.00673554
0.00673667
0.00673768
0.00673857
0.00673934
0.00674001
0.0067406
0.0067411
0.00674154
0.00674191
0.00674223
0.0067425
0.00674274
0.00674293
0.0067431
0.00674324
0.00674335
0.00674345
0.00674353
0.0067436
0.00674365
0.00674369
0.00674371
0.00674373
0.00674374
0.00674374
0.00674373
0.00674371
0.00674369
0.00674365
0.0067436
0.00674353
0.00674345
0.00674335
0.00674324
0.0067431
0.00674293
0.00674274
0.0067425
0.00674223
0.00674191
0.00674154
0.0067411
0.0067406
0.00674001
0.00673934
0.00673857
0.00673768
0.00673667
0.00673554
0.00673426
0.00673284
0.00673128
0.00672958
0.00672771
0.00683528
0.00683721
0.00683895
0.00684056
0.00684201
0.00684332
0.00684449
0.00684552
0.00684643
0.00684723
0.00684792
0.00684852
0.00684904
0.00684949
0.00684987
0.0068502
0.00685048
0.00685072
0.00685092
0.00685109
0.00685123
0.00685135
0.00685145
0.00685154
0.0068516
0.00685166
0.0068517
0.00685173
0.00685175
0.00685176
0.00685176
0.00685175
0.00685173
0.0068517
0.00685166
0.0068516
0.00685154
0.00685145
0.00685135
0.00685123
0.00685109
0.00685092
0.00685072
0.00685048
0.0068502
0.00684987
0.00684949
0.00684904
0.00684852
0.00684792
0.00684723
0.00684643
0.00684552
0.00684449
0.00684332
0.00684201
0.00684056
0.00683895
0.00683721
0.00683528
0.00695183
0.00695382
0.00695562
0.00695727
0.00695877
0.00696011
0.00696132
0.00696238
0.00696331
0.00696413
0.00696485
0.00696546
0.006966
0.00696646
0.00696685
0.00696719
0.00696748
0.00696773
0.00696793
0.00696811
0.00696826
0.00696838
0.00696848
0.00696857
0.00696864
0.00696869
0.00696873
0.00696876
0.00696878
0.00696879
0.00696879
0.00696878
0.00696876
0.00696873
0.00696869
0.00696864
0.00696857
0.00696848
0.00696838
0.00696826
0.00696811
0.00696793
0.00696773
0.00696748
0.00696719
0.00696685
0.00696646
0.006966
0.00696546
0.00696485
0.00696413
0.00696331
0.00696238
0.00696132
0.00696011
0.00695877
0.00695727
0.00695562
0.00695382
0.00695183
0.0070785
0.00708055
0.0070824
0.0070841
0.00708565
0.00708704
0.00708828
0.00708937
0.00709034
0.00709118
0.00709192
0.00709256
0.00709311
0.00709358
0.00709399
0.00709434
0.00709464
0.00709489
0.00709511
0.00709529
0.00709544
0.00709557
0.00709567
0.00709576
0.00709583
0.00709589
0.00709593
0.00709596
0.00709598
0.00709599
0.00709599
0.00709598
0.00709596
0.00709593
0.00709589
0.00709583
0.00709576
0.00709567
0.00709557
0.00709544
0.00709529
0.00709511
0.00709489
0.00709464
0.00709434
0.00709399
0.00709358
0.00709311
0.00709256
0.00709192
0.00709118
0.00709034
0.00708937
0.00708828
0.00708704
0.00708565
0.0070841
0.0070824
0.00708055
0.0070785
0.0072166
0.00721873
0.00722064
0.0072224
0.007224
0.00722544
0.00722672
0.00722785
0.00722885
0.00722972
0.00723048
0.00723114
0.00723171
0.00723221
0.00723263
0.00723299
0.0072333
0.00723356
0.00723378
0.00723397
0.00723413
0.00723426
0.00723437
0.00723446
0.00723453
0.00723459
0.00723464
0.00723467
0.00723469
0.0072347
0.0072347
0.00723469
0.00723467
0.00723464
0.00723459
0.00723453
0.00723446
0.00723437
0.00723426
0.00723413
0.00723397
0.00723378
0.00723356
0.0072333
0.00723299
0.00723263
0.00723221
0.00723171
0.00723114
0.00723048
0.00722972
0.00722885
0.00722785
0.00722672
0.00722544
0.007224
0.0072224
0.00722064
0.00721873
0.0072166
0.00736775
0.00736995
0.00737194
0.00737376
0.00737541
0.0073769
0.00737823
0.00737941
0.00738044
0.00738135
0.00738214
0.00738282
0.00738341
0.00738392
0.00738436
0.00738473
0.00738505
0.00738532
0.00738556
0.00738575
0.00738591
0.00738605
0.00738617
0.00738626
0.00738634
0.0073864
0.00738644
0.00738648
0.0073865
0.00738651
0.00738651
0.0073865
0.00738648
0.00738644
0.0073864
0.00738634
0.00738626
0.00738617
0.00738605
0.00738591
0.00738575
0.00738556
0.00738532
0.00738505
0.00738473
0.00738436
0.00738392
0.00738341
0.00738282
0.00738214
0.00738135
0.00738044
0.00737941
0.00737823
0.0073769
0.00737541
0.00737376
0.00737194
0.00736995
0.00736775
0.00753383
0.00753612
0.00753819
0.00754008
0.00754181
0.00754335
0.00754473
0.00754596
0.00754703
0.00754797
0.0075488
0.00754951
0.00755012
0.00755065
0.00755111
0.0075515
0.00755183
0.00755211
0.00755235
0.00755256
0.00755273
0.00755287
0.00755299
0.00755309
0.00755316
0.00755323
0.00755328
0.00755331
0.00755333
0.00755335
0.00755335
0.00755333
0.00755331
0.00755328
0.00755323
0.00755316
0.00755309
0.00755299
0.00755287
0.00755273
0.00755256
0.00755235
0.00755211
0.00755183
0.0075515
0.00755111
0.00755065
0.00755012
0.00754951
0.0075488
0.00754797
0.00754703
0.00754596
0.00754473
0.00754335
0.00754181
0.00754008
0.00753819
0.00753612
0.00753383
0.00771717
0.00771956
0.00772172
0.0077237
0.00772549
0.00772711
0.00772855
0.00772983
0.00773095
0.00773193
0.00773279
0.00773353
0.00773417
0.00773473
0.0077352
0.00773561
0.00773596
0.00773625
0.0077365
0.00773672
0.00773689
0.00773704
0.00773717
0.00773727
0.00773735
0.00773742
0.00773747
0.00773751
0.00773753
0.00773754
0.00773754
0.00773753
0.00773751
0.00773747
0.00773742
0.00773735
0.00773727
0.00773717
0.00773704
0.00773689
0.00773672
0.0077365
0.00773625
0.00773596
0.00773561
0.0077352
0.00773473
0.00773417
0.00773353
0.00773279
0.00773193
0.00773095
0.00772983
0.00772855
0.00772711
0.00772549
0.0077237
0.00772172
0.00771956
0.00771717
0.0079206
0.00792312
0.00792537
0.00792745
0.00792933
0.00793102
0.00793253
0.00793387
0.00793504
0.00793607
0.00793697
0.00793775
0.00793842
0.007939
0.0079395
0.00793993
0.00794029
0.0079406
0.00794087
0.00794109
0.00794127
0.00794143
0.00794156
0.00794167
0.00794176
0.00794182
0.00794188
0.00794192
0.00794194
0.00794195
0.00794195
0.00794194
0.00794192
0.00794188
0.00794182
0.00794176
0.00794167
0.00794156
0.00794143
0.00794127
0.00794109
0.00794087
0.0079406
0.00794029
0.00793993
0.0079395
0.007939
0.00793842
0.00793775
0.00793697
0.00793607
0.00793504
0.00793387
0.00793253
0.00793102
0.00792933
0.00792745
0.00792537
0.00792312
0.0079206
0.00814765
0.0081503
0.00815268
0.00815486
0.00815684
0.00815862
0.00816021
0.00816161
0.00816285
0.00816394
0.00816488
0.0081657
0.00816641
0.00816702
0.00816755
0.008168
0.00816838
0.00816871
0.00816898
0.00816922
0.00816941
0.00816958
0.00816972
0.00816983
0.00816992
0.00816999
0.00817005
0.00817009
0.00817012
0.00817013
0.00817013
0.00817012
0.00817009
0.00817005
0.00816999
0.00816992
0.00816983
0.00816972
0.00816958
0.00816941
0.00816922
0.00816898
0.00816871
0.00816838
0.008168
0.00816755
0.00816702
0.00816641
0.0081657
0.00816488
0.00816394
0.00816285
0.00816161
0.00816021
0.00815862
0.00815684
0.00815486
0.00815268
0.0081503
0.00814765
0.00840274
0.00840554
0.00840805
0.00841036
0.00841246
0.00841434
0.00841602
0.00841751
0.00841882
0.00841997
0.00842097
0.00842184
0.00842259
0.00842324
0.00842379
0.00842427
0.00842467
0.00842502
0.00842531
0.00842556
0.00842577
0.00842595
0.00842609
0.00842621
0.00842631
0.00842638
0.00842644
0.00842649
0.00842652
0.00842653
0.00842653
0.00842652
0.00842649
0.00842644
0.00842638
0.00842631
0.00842621
0.00842609
0.00842595
0.00842577
0.00842556
0.00842531
0.00842502
0.00842467
0.00842427
0.00842379
0.00842324
0.00842259
0.00842184
0.00842097
0.00841997
0.00841882
0.00841751
0.00841602
0.00841434
0.00841246
0.00841036
0.00840805
0.00840554
0.00840274
0.00869149
0.00869448
0.00869716
0.00869961
0.00870184
0.00870385
0.00870564
0.00870723
0.00870862
0.00870984
0.00871091
0.00871184
0.00871264
0.00871333
0.00871392
0.00871442
0.00871486
0.00871523
0.00871554
0.0087158
0.00871603
0.00871621
0.00871637
0.00871649
0.0087166
0.00871668
0.00871674
0.00871679
0.00871682
0.00871684
0.00871684
0.00871682
0.00871679
0.00871674
0.00871668
0.0087166
0.00871649
0.00871637
0.00871621
0.00871603
0.0087158
0.00871554
0.00871523
0.00871486
0.00871442
0.00871392
0.00871333
0.00871264
0.00871184
0.00871091
0.00870984
0.00870862
0.00870723
0.00870564
0.00870385
0.00870184
0.00869961
0.00869716
0.00869448
0.00869149
0.00902123
0.00902443
0.00902731
0.00902994
0.00903233
0.00903449
0.00903641
0.00903811
0.00903961
0.00904092
0.00904206
0.00904306
0.00904391
0.00904465
0.00904529
0.00904583
0.0090463
0.0090467
0.00904703
0.00904731
0.00904755
0.00904775
0.00904792
0.00904806
0.00904817
0.00904826
0.00904833
0.00904838
0.00904841
0.00904842
0.00904842
0.00904841
0.00904838
0.00904833
0.00904826
0.00904817
0.00904806
0.00904792
0.00904775
0.00904755
0.00904731
0.00904703
0.0090467
0.0090463
0.00904583
0.00904529
0.00904465
0.00904391
0.00904306
0.00904206
0.00904092
0.00903961
0.00903811
0.00903641
0.00903449
0.00903233
0.00902994
0.00902731
0.00902443
0.00902123
0.00940162
0.00940508
0.00940818
0.00941103
0.00941362
0.00941595
0.00941803
0.00941987
0.00942149
0.00942291
0.00942415
0.00942523
0.00942616
0.00942696
0.00942765
0.00942824
0.00942874
0.00942917
0.00942954
0.00942984
0.0094301
0.00943032
0.0094305
0.00943065
0.00943077
0.00943086
0.00943094
0.00943099
0.00943103
0.00943104
0.00943104
0.00943103
0.00943099
0.00943094
0.00943086
0.00943077
0.00943065
0.0094305
0.00943032
0.0094301
0.00942984
0.00942954
0.00942917
0.00942874
0.00942824
0.00942765
0.00942696
0.00942616
0.00942523
0.00942415
0.00942291
0.00942149
0.00941987
0.00941803
0.00941595
0.00941362
0.00941103
0.00940818
0.00940508
0.00940162
0.00984567
0.00984945
0.00985285
0.00985596
0.0098588
0.00986135
0.00986362
0.00986564
0.00986741
0.00986897
0.00987032
0.0098715
0.00987252
0.00987339
0.00987415
0.00987479
0.00987535
0.00987582
0.00987621
0.00987655
0.00987683
0.00987707
0.00987727
0.00987743
0.00987757
0.00987767
0.00987775
0.00987781
0.00987785
0.00987787
0.00987787
0.00987785
0.00987781
0.00987775
0.00987767
0.00987757
0.00987743
0.00987727
0.00987707
0.00987683
0.00987655
0.00987621
0.00987582
0.00987535
0.00987479
0.00987415
0.00987339
0.00987252
0.0098715
0.00987032
0.00986897
0.00986741
0.00986564
0.00986362
0.00986135
0.0098588
0.00985596
0.00985285
0.00984945
0.00984567
0.0103714
0.0103756
0.0103794
0.0103828
0.010386
0.0103888
0.0103913
0.0103935
0.0103955
0.0103972
0.0103987
0.0104
0.0104012
0.0104021
0.010403
0.0104037
0.0104043
0.0104048
0.0104053
0.0104056
0.010406
0.0104062
0.0104064
0.0104066
0.0104068
0.0104069
0.010407
0.010407
0.0104071
0.0104071
0.0104071
0.0104071
0.010407
0.010407
0.0104069
0.0104068
0.0104066
0.0104064
0.0104062
0.010406
0.0104056
0.0104053
0.0104048
0.0104043
0.0104037
0.010403
0.0104021
0.0104012
0.0104
0.0103987
0.0103972
0.0103955
0.0103935
0.0103913
0.0103888
0.010386
0.0103828
0.0103794
0.0103756
0.0103714
0.0110044
0.0110091
0.0110134
0.0110172
0.0110208
0.011024
0.0110268
0.0110293
0.0110315
0.0110335
0.0110352
0.0110366
0.0110379
0.011039
0.01104
0.0110408
0.0110414
0.011042
0.0110425
0.011043
0.0110433
0.0110436
0.0110439
0.0110441
0.0110442
0.0110444
0.0110445
0.0110445
0.0110446
0.0110446
0.0110446
0.0110446
0.0110445
0.0110445
0.0110444
0.0110442
0.0110441
0.0110439
0.0110436
0.0110433
0.011043
0.0110425
0.011042
0.0110414
0.0110408
0.01104
0.011039
0.0110379
0.0110366
0.0110352
0.0110335
0.0110315
0.0110293
0.0110268
0.011024
0.0110208
0.0110172
0.0110134
0.0110091
0.0110044
0.0117818
0.0117871
0.011792
0.0117964
0.0118005
0.0118041
0.0118074
0.0118103
0.0118128
0.0118151
0.011817
0.0118187
0.0118202
0.0118214
0.0118225
0.0118235
0.0118242
0.0118249
0.0118255
0.011826
0.0118264
0.0118267
0.011827
0.0118273
0.0118274
0.0118276
0.0118277
0.0118278
0.0118279
0.0118279
0.0118279
0.0118279
0.0118278
0.0118277
0.0118276
0.0118274
0.0118273
0.011827
0.0118267
0.0118264
0.011826
0.0118255
0.0118249
0.0118242
0.0118235
0.0118225
0.0118214
0.0118202
0.0118187
0.011817
0.0118151
0.0118128
0.0118103
0.0118074
0.0118041
0.0118005
0.0117964
0.011792
0.0117871
0.0117818
0.012758
0.0127643
0.01277
0.0127752
0.01278
0.0127843
0.0127881
0.0127915
0.0127945
0.0127971
0.0127994
0.0128014
0.0128032
0.0128046
0.0128059
0.012807
0.0128079
0.0128087
0.0128094
0.01281
0.0128105
0.0128109
0.0128112
0.0128115
0.0128117
0.0128119
0.012812
0.0128121
0.0128122
0.0128122
0.0128122
0.0128122
0.0128121
0.012812
0.0128119
0.0128117
0.0128115
0.0128112
0.0128109
0.0128105
0.01281
0.0128094
0.0128087
0.0128079
0.012807
0.0128059
0.0128046
0.0128032
0.0128014
0.0127994
0.0127971
0.0127945
0.0127915
0.0127881
0.0127843
0.01278
0.0127752
0.01277
0.0127643
0.012758
0.0140135
0.014021
0.0140279
0.0140342
0.01404
0.0140452
0.0140498
0.0140539
0.0140575
0.0140607
0.0140635
0.0140659
0.014068
0.0140698
0.0140713
0.0140726
0.0140738
0.0140747
0.0140756
0.0140763
0.0140768
0.0140773
0.0140777
0.0140781
0.0140783
0.0140786
0.0140787
0.0140788
0.0140789
0.014079
0.014079
0.0140789
0.0140788
0.0140787
0.0140786
0.0140783
0.0140781
0.0140777
0.0140773
0.0140768
0.0140763
0.0140756
0.0140747
0.0140738
0.0140726
0.0140713
0.0140698
0.014068
0.0140659
0.0140635
0.0140607
0.0140575
0.0140539
0.0140498
0.0140452
0.01404
0.0140342
0.0140279
0.014021
0.0140135
0.0156627
0.015672
0.0156805
0.0156883
0.0156954
0.0157019
0.0157076
0.0157127
0.0157172
0.0157212
0.0157246
0.0157276
0.0157302
0.0157324
0.0157343
0.0157359
0.0157374
0.0157385
0.0157396
0.0157404
0.0157411
0.0157418
0.0157423
0.0157427
0.015743
0.0157433
0.0157435
0.0157436
0.0157437
0.0157438
0.0157438
0.0157437
0.0157436
0.0157435
0.0157433
0.015743
0.0157427
0.0157423
0.0157418
0.0157411
0.0157404
0.0157396
0.0157385
0.0157374
0.0157359
0.0157343
0.0157324
0.0157302
0.0157276
0.0157246
0.0157212
0.0157172
0.0157127
0.0157076
0.0157019
0.0156954
0.0156883
0.0156805
0.015672
0.0156627
0.0178571
0.0178687
0.0178794
0.0178893
0.0178983
0.0179065
0.0179137
0.0179202
0.0179258
0.0179308
0.0179352
0.0179389
0.0179422
0.017945
0.0179475
0.0179495
0.0179513
0.0179528
0.0179541
0.0179552
0.0179561
0.0179569
0.0179575
0.017958
0.0179585
0.0179588
0.0179591
0.0179593
0.0179594
0.0179595
0.0179595
0.0179594
0.0179593
0.0179591
0.0179588
0.0179585
0.017958
0.0179575
0.0179569
0.0179561
0.0179552
0.0179541
0.0179528
0.0179513
0.0179495
0.0179475
0.017945
0.0179422
0.0179389
0.0179352
0.0179308
0.0179258
0.0179202
0.0179137
0.0179065
0.0178983
0.0178893
0.0178794
0.0178687
0.0178571
0.0207722
0.0207869
0.0208005
0.0208131
0.0208245
0.0208349
0.0208441
0.0208523
0.0208595
0.0208659
0.0208714
0.0208762
0.0208804
0.0208839
0.020887
0.0208897
0.0208919
0.0208939
0.0208955
0.0208969
0.0208981
0.020899
0.0208999
0.0209005
0.0209011
0.0209015
0.0209018
0.0209021
0.0209022
0.0209023
0.0209023
0.0209022
0.0209021
0.0209018
0.0209015
0.0209011
0.0209005
0.0208999
0.020899
0.0208981
0.0208969
0.0208955
0.0208939
0.0208919
0.0208897
0.020887
0.0208839
0.0208804
0.0208762
0.0208714
0.0208659
0.0208595
0.0208523
0.0208441
0.0208349
0.0208245
0.0208131
0.0208005
0.0207869
0.0207722
0.024571
0.0245895
0.0246066
0.0246225
0.024637
0.02465
0.0246616
0.0246719
0.024681
0.024689
0.024696
0.024702
0.0247073
0.0247118
0.0247157
0.024719
0.0247219
0.0247243
0.0247264
0.0247281
0.0247296
0.0247308
0.0247319
0.0247327
0.0247334
0.0247339
0.0247344
0.0247347
0.0247349
0.024735
0.024735
0.0247349
0.0247347
0.0247344
0.0247339
0.0247334
0.0247327
0.0247319
0.0247308
0.0247296
0.0247281
0.0247264
0.0247243
0.0247219
0.024719
0.0247157
0.0247118
0.0247073
0.024702
0.024696
0.024689
0.024681
0.0246719
0.0246616
0.02465
0.024637
0.0246225
0.0246066
0.0245895
0.024571
0.0293511
0.029374
0.0293951
0.0294146
0.0294323
0.0294483
0.0294626
0.0294753
0.0294865
0.0294963
0.0295049
0.0295124
0.0295188
0.0295244
0.0295292
0.0295333
0.0295368
0.0295398
0.0295423
0.0295445
0.0295463
0.0295478
0.0295491
0.0295501
0.029551
0.0295517
0.0295522
0.0295526
0.0295528
0.0295529
0.0295529
0.0295528
0.0295526
0.0295522
0.0295517
0.029551
0.0295501
0.0295491
0.0295478
0.0295463
0.0295445
0.0295423
0.0295398
0.0295368
0.0295333
0.0295292
0.0295244
0.0295188
0.0295124
0.0295049
0.0294963
0.0294865
0.0294753
0.0294626
0.0294483
0.0294323
0.0294146
0.0293951
0.029374
0.0293511
0.0351039
0.0351313
0.0351565
0.0351797
0.0352009
0.0352199
0.0352369
0.0352521
0.0352654
0.0352771
0.0352873
0.0352962
0.0353038
0.0353105
0.0353162
0.0353211
0.0353253
0.0353289
0.0353319
0.0353345
0.0353366
0.0353385
0.03534
0.0353412
0.0353422
0.035343
0.0353437
0.0353441
0.0353444
0.0353446
0.0353446
0.0353444
0.0353441
0.0353437
0.035343
0.0353422
0.0353412
0.03534
0.0353385
0.0353366
0.0353345
0.0353319
0.0353289
0.0353253
0.0353211
0.0353162
0.0353105
0.0353038
0.0352962
0.0352873
0.0352771
0.0352654
0.0352521
0.0352369
0.0352199
0.0352009
0.0351797
0.0351565
0.0351313
0.0351039
0.0417169
0.0417486
0.0417777
0.0418045
0.0418289
0.0418509
0.0418705
0.0418879
0.0419033
0.0419167
0.0419285
0.0419387
0.0419476
0.0419553
0.0419619
0.0419675
0.0419724
0.0419765
0.04198
0.041983
0.0419855
0.0419876
0.0419894
0.0419908
0.041992
0.0419929
0.0419936
0.0419942
0.0419945
0.0419947
0.0419947
0.0419945
0.0419942
0.0419936
0.0419929
0.041992
0.0419908
0.0419894
0.0419876
0.0419855
0.041983
0.04198
0.0419765
0.0419724
0.0419675
0.0419619
0.0419553
0.0419476
0.0419387
0.0419285
0.0419167
0.0419033
0.0418879
0.0418705
0.0418509
0.0418289
0.0418045
0.0417777
0.0417486
0.0417169
0.0490189
0.0490547
0.0490875
0.0491176
0.0491449
0.0491695
0.0491915
0.0492111
0.0492283
0.0492434
0.0492566
0.0492681
0.0492781
0.0492867
0.0492941
0.0493005
0.0493059
0.0493106
0.0493145
0.0493179
0.0493207
0.0493231
0.049325
0.0493267
0.049328
0.049329
0.0493298
0.0493304
0.0493308
0.049331
0.049331
0.0493308
0.0493304
0.0493298
0.049329
0.049328
0.0493267
0.049325
0.0493231
0.0493207
0.0493179
0.0493145
0.0493106
0.0493059
0.0493005
0.0492941
0.0492867
0.0492781
0.0492681
0.0492566
0.0492434
0.0492283
0.0492111
0.0491915
0.0491695
0.0491449
0.0491176
0.0490875
0.0490547
0.0490189
0.056838
0.0568775
0.0569136
0.0569467
0.0569767
0.0570038
0.0570279
0.0570494
0.0570683
0.0570849
0.0570994
0.0571121
0.0571231
0.0571325
0.0571407
0.0571477
0.0571537
0.0571588
0.0571632
0.0571669
0.05717
0.0571726
0.0571748
0.0571766
0.0571781
0.0571793
0.0571802
0.0571808
0.0571812
0.0571814
0.0571814
0.0571812
0.0571808
0.0571802
0.0571793
0.0571781
0.0571766
0.0571748
0.0571726
0.05717
0.0571669
0.0571632
0.0571588
0.0571537
0.0571477
0.0571407
0.0571325
0.0571231
0.0571121
0.0570994
0.0570849
0.0570683
0.0570494
0.0570279
0.0570038
0.0569767
0.0569467
0.0569136
0.0568775
0.056838
0.0650375
0.0650805
0.0651197
0.0651555
0.0651881
0.0652173
0.0652435
0.0652667
0.0652872
0.0653052
0.065321
0.0653347
0.0653466
0.0653569
0.0653658
0.0653734
0.06538
0.0653855
0.0653903
0.0653943
0.0653977
0.0654006
0.0654029
0.0654049
0.0654065
0.0654078
0.0654088
0.0654095
0.0654099
0.0654102
0.0654102
0.0654099
0.0654095
0.0654088
0.0654078
0.0654065
0.0654049
0.0654029