/*--------------------------------*- C++ -*----------------------------------*\
| =========                 |                                                 |
| \\      /  F ield         | foam-extend: Open Source CFD                    |
|  \\    /   O peration     | Version:     4.0                                |
|   \\  /    A nd           | Web:         http://www.foam-extend.org         |
|    \\/     M anipulation  |                                                 |
\*---------------------------------------------------------------------------*/
FoamFile
{
    version     2.0;
    format      ascii;
    class       volScalarField;
    location    "980";
    object      cPlus;
}
// * * * * * * * * * * * * * * * * * * * * * * * * * * * * * * * * * * * * * //

dimensions      [0 0 0 0 0 0 0];

internalField   nonuniform List<scalar> 
6960
(
0.353739
0.353739
0.353738
0.353738
0.353737
0.353737
0.353736
0.353736
0.353735
0.353735
0.353734
0.353734
0.353733
0.353733
0.353733
0.353732
0.353732
0.353732
0.353731
0.353731
0.353731
0.353731
0.353731
0.353731
0.35373
0.35373
0.35373
0.35373
0.35373
0.35373
0.35373
0.35373
0.35373
0.35373
0.35373
0.35373
0.353731
0.353731
0.353731
0.353731
0.353731
0.353731
0.353732
0.353732
0.353732
0.353733
0.353733
0.353733
0.353734
0.353734
0.353735
0.353735
0.353736
0.353736
0.353737
0.353737
0.353738
0.353738
0.353739
0.353739
0.129227
0.129227
0.129226
0.129226
0.129225
0.129225
0.129224
0.129224
0.129223
0.129223
0.129222
0.129222
0.129222
0.129221
0.129221
0.129221
0.129221
0.12922
0.12922
0.12922
0.12922
0.12922
0.12922
0.12922
0.129219
0.129219
0.129219
0.129219
0.129219
0.129219
0.129219
0.129219
0.129219
0.129219
0.129219
0.129219
0.12922
0.12922
0.12922
0.12922
0.12922
0.12922
0.12922
0.129221
0.129221
0.129221
0.129221
0.129222
0.129222
0.129222
0.129223
0.129223
0.129224
0.129224
0.129225
0.129225
0.129226
0.129226
0.129227
0.129227
0.0559061
0.0559059
0.0559055
0.0559052
0.0559048
0.0559045
0.0559042
0.0559039
0.0559036
0.0559033
0.055903
0.0559028
0.0559026
0.0559023
0.0559021
0.055902
0.0559018
0.0559016
0.0559015
0.0559014
0.0559012
0.0559011
0.055901
0.055901
0.0559009
0.0559008
0.0559008
0.0559008
0.0559007
0.0559007
0.0559007
0.0559007
0.0559008
0.0559008
0.0559008
0.0559009
0.055901
0.055901
0.0559011
0.0559012
0.0559014
0.0559015
0.0559016
0.0559018
0.055902
0.0559021
0.0559023
0.0559026
0.0559028
0.055903
0.0559033
0.0559036
0.0559039
0.0559042
0.0559045
0.0559048
0.0559052
0.0559055
0.0559059
0.0559061
0.0264887
0.0264886
0.0264884
0.0264882
0.026488
0.0264878
0.0264876
0.0264874
0.0264872
0.026487
0.0264869
0.0264867
0.0264866
0.0264864
0.0264863
0.0264862
0.0264861
0.026486
0.0264859
0.0264858
0.0264858
0.0264857
0.0264856
0.0264856
0.0264855
0.0264855
0.0264855
0.0264855
0.0264854
0.0264854
0.0264854
0.0264854
0.0264855
0.0264855
0.0264855
0.0264855
0.0264856
0.0264856
0.0264857
0.0264858
0.0264858
0.0264859
0.026486
0.0264861
0.0264862
0.0264863
0.0264864
0.0264866
0.0264867
0.0264869
0.026487
0.0264872
0.0264874
0.0264876
0.0264878
0.026488
0.0264882
0.0264884
0.0264886
0.0264887
0.0137034
0.0137034
0.0137033
0.0137031
0.013703
0.0137029
0.0137028
0.0137027
0.0137026
0.0137025
0.0137024
0.0137024
0.0137023
0.0137022
0.0137021
0.0137021
0.013702
0.013702
0.0137019
0.0137019
0.0137018
0.0137018
0.0137018
0.0137018
0.0137017
0.0137017
0.0137017
0.0137017
0.0137017
0.0137017
0.0137017
0.0137017
0.0137017
0.0137017
0.0137017
0.0137017
0.0137018
0.0137018
0.0137018
0.0137018
0.0137019
0.0137019
0.013702
0.013702
0.0137021
0.0137021
0.0137022
0.0137023
0.0137024
0.0137024
0.0137025
0.0137026
0.0137027
0.0137028
0.0137029
0.013703
0.0137031
0.0137033
0.0137034
0.0137034
0.00800239
0.00800238
0.00800234
0.00800229
0.00800225
0.0080022
0.00800215
0.00800211
0.00800207
0.00800203
0.008002
0.00800196
0.00800193
0.0080019
0.00800187
0.00800185
0.00800183
0.0080018
0.00800178
0.00800177
0.00800175
0.00800174
0.00800172
0.00800171
0.0080017
0.00800169
0.00800169
0.00800168
0.00800168
0.00800168
0.00800168
0.00800168
0.00800168
0.00800169
0.00800169
0.0080017
0.00800171
0.00800172
0.00800174
0.00800175
0.00800177
0.00800178
0.0080018
0.00800183
0.00800185
0.00800187
0.0080019
0.00800193
0.00800196
0.008002
0.00800203
0.00800207
0.00800211
0.00800215
0.0080022
0.00800225
0.00800229
0.00800234
0.00800238
0.00800239
0.00546361
0.00546362
0.00546362
0.00546362
0.00546361
0.0054636
0.0054636
0.00546359
0.00546359
0.00546358
0.00546357
0.00546357
0.00546356
0.00546356
0.00546356
0.00546355
0.00546355
0.00546355
0.00546354
0.00546354
0.00546354
0.00546354
0.00546353
0.00546353
0.00546353
0.00546353
0.00546353
0.00546353
0.00546353
0.00546353
0.00546353
0.00546353
0.00546353
0.00546353
0.00546353
0.00546353
0.00546353
0.00546353
0.00546354
0.00546354
0.00546354
0.00546354
0.00546355
0.00546355
0.00546355
0.00546356
0.00546356
0.00546356
0.00546357
0.00546357
0.00546358
0.00546359
0.00546359
0.0054636
0.0054636
0.00546361
0.00546362
0.00546362
0.00546362
0.00546361
0.00435302
0.00435305
0.00435307
0.00435309
0.00435311
0.00435312
0.00435314
0.00435315
0.00435317
0.00435318
0.00435319
0.00435321
0.00435322
0.00435323
0.00435324
0.00435324
0.00435325
0.00435326
0.00435327
0.00435327
0.00435328
0.00435328
0.00435329
0.00435329
0.0043533
0.0043533
0.0043533
0.0043533
0.0043533
0.0043533
0.0043533
0.0043533
0.0043533
0.0043533
0.0043533
0.0043533
0.00435329
0.00435329
0.00435328
0.00435328
0.00435327
0.00435327
0.00435326
0.00435325
0.00435324
0.00435324
0.00435323
0.00435322
0.00435321
0.00435319
0.00435318
0.00435317
0.00435315
0.00435314
0.00435312
0.00435311
0.00435309
0.00435307
0.00435305
0.00435302
0.0038839
0.00388394
0.00388398
0.00388401
0.00388404
0.00388407
0.0038841
0.00388412
0.00388415
0.00388417
0.00388419
0.00388421
0.00388423
0.00388425
0.00388427
0.00388428
0.0038843
0.00388431
0.00388432
0.00388433
0.00388434
0.00388435
0.00388436
0.00388437
0.00388437
0.00388438
0.00388438
0.00388438
0.00388439
0.00388439
0.00388439
0.00388439
0.00388438
0.00388438
0.00388438
0.00388437
0.00388437
0.00388436
0.00388435
0.00388434
0.00388433
0.00388432
0.00388431
0.0038843
0.00388428
0.00388427
0.00388425
0.00388423
0.00388421
0.00388419
0.00388417
0.00388415
0.00388412
0.0038841
0.00388407
0.00388404
0.00388401
0.00388398
0.00388394
0.0038839
0.00369909
0.00369913
0.00369917
0.00369921
0.00369925
0.00369929
0.00369932
0.00369935
0.00369938
0.00369941
0.00369944
0.00369946
0.00369949
0.00369951
0.00369953
0.00369955
0.00369957
0.00369958
0.0036996
0.00369961
0.00369962
0.00369963
0.00369964
0.00369965
0.00369966
0.00369967
0.00369967
0.00369967
0.00369968
0.00369968
0.00369968
0.00369968
0.00369967
0.00369967
0.00369967
0.00369966
0.00369965
0.00369964
0.00369963
0.00369962
0.00369961
0.0036996
0.00369958
0.00369957
0.00369955
0.00369953
0.00369951
0.00369949
0.00369946
0.00369944
0.00369941
0.00369938
0.00369935
0.00369932
0.00369929
0.00369925
0.00369921
0.00369917
0.00369913
0.00369909
0.00363837
0.00363842
0.00363846
0.0036385
0.00363854
0.00363858
0.00363862
0.00363865
0.00363869
0.00363872
0.00363875
0.00363877
0.0036388
0.00363882
0.00363885
0.00363887
0.00363889
0.00363891
0.00363892
0.00363894
0.00363895
0.00363896
0.00363897
0.00363898
0.00363899
0.003639
0.003639
0.00363901
0.00363901
0.00363901
0.00363901
0.00363901
0.00363901
0.003639
0.003639
0.00363899
0.00363898
0.00363897
0.00363896
0.00363895
0.00363894
0.00363892
0.00363891
0.00363889
0.00363887
0.00363885
0.00363882
0.0036388
0.00363877
0.00363875
0.00363872
0.00363869
0.00363865
0.00363862
0.00363858
0.00363854
0.0036385
0.00363846
0.00363842
0.00363837
0.00363121
0.00363126
0.0036313
0.00363135
0.00363139
0.00363143
0.00363147
0.0036315
0.00363154
0.00363157
0.0036316
0.00363163
0.00363166
0.00363168
0.00363171
0.00363173
0.00363175
0.00363177
0.00363179
0.0036318
0.00363182
0.00363183
0.00363184
0.00363185
0.00363186
0.00363187
0.00363187
0.00363187
0.00363188
0.00363188
0.00363188
0.00363188
0.00363187
0.00363187
0.00363187
0.00363186
0.00363185
0.00363184
0.00363183
0.00363182
0.0036318
0.00363179
0.00363177
0.00363175
0.00363173
0.00363171
0.00363168
0.00363166
0.00363163
0.0036316
0.00363157
0.00363154
0.0036315
0.00363147
0.00363143
0.00363139
0.00363135
0.0036313
0.00363126
0.00363121
0.00364725
0.0036473
0.00364734
0.00364739
0.00364743
0.00364747
0.00364751
0.00364755
0.00364759
0.00364762
0.00364765
0.00364768
0.00364771
0.00364774
0.00364776
0.00364778
0.00364781
0.00364782
0.00364784
0.00364786
0.00364787
0.00364789
0.0036479
0.00364791
0.00364792
0.00364792
0.00364793
0.00364793
0.00364794
0.00364794
0.00364794
0.00364794
0.00364793
0.00364793
0.00364792
0.00364792
0.00364791
0.0036479
0.00364789
0.00364787
0.00364786
0.00364784
0.00364782
0.00364781
0.00364778
0.00364776
0.00364774
0.00364771
0.00364768
0.00364765
0.00364762
0.00364759
0.00364755
0.00364751
0.00364747
0.00364743
0.00364739
0.00364734
0.0036473
0.00364725
0.00367376
0.00367381
0.00367386
0.00367391
0.00367395
0.00367399
0.00367404
0.00367407
0.00367411
0.00367415
0.00367418
0.00367421
0.00367424
0.00367426
0.00367429
0.00367431
0.00367433
0.00367435
0.00367437
0.00367439
0.0036744
0.00367441
0.00367443
0.00367444
0.00367445
0.00367445
0.00367446
0.00367446
0.00367447
0.00367447
0.00367447
0.00367447
0.00367446
0.00367446
0.00367445
0.00367445
0.00367444
0.00367443
0.00367441
0.0036744
0.00367439
0.00367437
0.00367435
0.00367433
0.00367431
0.00367429
0.00367426
0.00367424
0.00367421
0.00367418
0.00367415
0.00367411
0.00367407
0.00367404
0.00367399
0.00367395
0.00367391
0.00367386
0.00367381
0.00367376
0.00370561
0.00370566
0.00370571
0.00370575
0.0037058
0.00370584
0.00370588
0.00370592
0.00370596
0.00370599
0.00370603
0.00370606
0.00370609
0.00370611
0.00370614
0.00370616
0.00370618
0.0037062
0.00370622
0.00370624
0.00370625
0.00370627
0.00370628
0.00370629
0.0037063
0.00370631
0.00370631
0.00370632
0.00370632
0.00370632
0.00370632
0.00370632
0.00370632
0.00370631
0.00370631
0.0037063
0.00370629
0.00370628
0.00370627
0.00370625
0.00370624
0.00370622
0.0037062
0.00370618
0.00370616
0.00370614
0.00370611
0.00370609
0.00370606
0.00370603
0.00370599
0.00370596
0.00370592
0.00370588
0.00370584
0.0037058
0.00370575
0.00370571
0.00370566
0.00370561
0.0037408
0.00374085
0.0037409
0.00374095
0.00374099
0.00374104
0.00374108
0.00374112
0.00374116
0.00374119
0.00374123
0.00374126
0.00374129
0.00374131
0.00374134
0.00374136
0.00374139
0.00374141
0.00374143
0.00374144
0.00374146
0.00374147
0.00374148
0.00374149
0.0037415
0.00374151
0.00374152
0.00374152
0.00374152
0.00374152
0.00374152
0.00374152
0.00374152
0.00374152
0.00374151
0.0037415
0.00374149
0.00374148
0.00374147
0.00374146
0.00374144
0.00374143
0.00374141
0.00374139
0.00374136
0.00374134
0.00374131
0.00374129
0.00374126
0.00374123
0.00374119
0.00374116
0.00374112
0.00374108
0.00374104
0.00374099
0.00374095
0.0037409
0.00374085
0.0037408
0.00377868
0.00377874
0.00377879
0.00377883
0.00377888
0.00377892
0.00377897
0.00377901
0.00377905
0.00377908
0.00377912
0.00377915
0.00377918
0.00377921
0.00377923
0.00377926
0.00377928
0.0037793
0.00377932
0.00377934
0.00377935
0.00377936
0.00377938
0.00377939
0.0037794
0.0037794
0.00377941
0.00377942
0.00377942
0.00377942
0.00377942
0.00377942
0.00377942
0.00377941
0.0037794
0.0037794
0.00377939
0.00377938
0.00377936
0.00377935
0.00377934
0.00377932
0.0037793
0.00377928
0.00377926
0.00377923
0.00377921
0.00377918
0.00377915
0.00377912
0.00377908
0.00377905
0.00377901
0.00377897
0.00377892
0.00377888
0.00377883
0.00377879
0.00377874
0.00377868
0.00381913
0.00381918
0.00381923
0.00381928
0.00381933
0.00381937
0.00381942
0.00381946
0.0038195
0.00381953
0.00381957
0.0038196
0.00381963
0.00381966
0.00381969
0.00381971
0.00381973
0.00381976
0.00381977
0.00381979
0.00381981
0.00381982
0.00381983
0.00381985
0.00381985
0.00381986
0.00381987
0.00381987
0.00381988
0.00381988
0.00381988
0.00381988
0.00381987
0.00381987
0.00381986
0.00381985
0.00381985
0.00381983
0.00381982
0.00381981
0.00381979
0.00381977
0.00381976
0.00381973
0.00381971
0.00381969
0.00381966
0.00381963
0.0038196
0.00381957
0.00381953
0.0038195
0.00381946
0.00381942
0.00381937
0.00381933
0.00381928
0.00381923
0.00381918
0.00381913
0.00386223
0.00386229
0.00386234
0.00386239
0.00386244
0.00386248
0.00386253
0.00386257
0.00386261
0.00386265
0.00386268
0.00386272
0.00386275
0.00386277
0.0038628
0.00386283
0.00386285
0.00386287
0.00386289
0.00386291
0.00386292
0.00386294
0.00386295
0.00386296
0.00386297
0.00386298
0.00386299
0.00386299
0.00386299
0.003863
0.003863
0.00386299
0.00386299
0.00386299
0.00386298
0.00386297
0.00386296
0.00386295
0.00386294
0.00386292
0.00386291
0.00386289
0.00386287
0.00386285
0.00386283
0.0038628
0.00386277
0.00386275
0.00386272
0.00386268
0.00386265
0.00386261
0.00386257
0.00386253
0.00386248
0.00386244
0.00386239
0.00386234
0.00386229
0.00386223
0.0039082
0.00390825
0.00390831
0.00390836
0.0039084
0.00390845
0.0039085
0.00390854
0.00390858
0.00390862
0.00390865
0.00390869
0.00390872
0.00390875
0.00390878
0.0039088
0.00390882
0.00390885
0.00390887
0.00390888
0.0039089
0.00390891
0.00390893
0.00390894
0.00390895
0.00390896
0.00390896
0.00390897
0.00390897
0.00390897
0.00390897
0.00390897
0.00390897
0.00390896
0.00390896
0.00390895
0.00390894
0.00390893
0.00390891
0.0039089
0.00390888
0.00390887
0.00390885
0.00390882
0.0039088
0.00390878
0.00390875
0.00390872
0.00390869
0.00390865
0.00390862
0.00390858
0.00390854
0.0039085
0.00390845
0.0039084
0.00390836
0.00390831
0.00390825
0.0039082
0.00395728
0.00395733
0.00395739
0.00395744
0.00395749
0.00395754
0.00395758
0.00395763
0.00395767
0.00395771
0.00395774
0.00395778
0.00395781
0.00395784
0.00395787
0.00395789
0.00395792
0.00395794
0.00395796
0.00395798
0.00395799
0.00395801
0.00395802
0.00395803
0.00395804
0.00395805
0.00395806
0.00395806
0.00395807
0.00395807
0.00395807
0.00395807
0.00395806
0.00395806
0.00395805
0.00395804
0.00395803
0.00395802
0.00395801
0.00395799
0.00395798
0.00395796
0.00395794
0.00395792
0.00395789
0.00395787
0.00395784
0.00395781
0.00395778
0.00395774
0.00395771
0.00395767
0.00395763
0.00395758
0.00395754
0.00395749
0.00395744
0.00395739
0.00395733
0.00395728
0.00400978
0.00400984
0.00400989
0.00400995
0.00401
0.00401005
0.00401009
0.00401014
0.00401018
0.00401022
0.00401026
0.00401029
0.00401032
0.00401035
0.00401038
0.00401041
0.00401043
0.00401046
0.00401048
0.0040105
0.00401051
0.00401053
0.00401054
0.00401055
0.00401056
0.00401057
0.00401058
0.00401058
0.00401059
0.00401059
0.00401059
0.00401059
0.00401058
0.00401058
0.00401057
0.00401056
0.00401055
0.00401054
0.00401053
0.00401051
0.0040105
0.00401048
0.00401046
0.00401043
0.00401041
0.00401038
0.00401035
0.00401032
0.00401029
0.00401026
0.00401022
0.00401018
0.00401014
0.00401009
0.00401005
0.00401
0.00400995
0.00400989
0.00400984
0.00400978
0.00406606
0.00406612
0.00406618
0.00406623
0.00406628
0.00406633
0.00406638
0.00406643
0.00406647
0.00406651
0.00406655
0.00406658
0.00406662
0.00406665
0.00406668
0.00406671
0.00406673
0.00406675
0.00406677
0.00406679
0.00406681
0.00406683
0.00406684
0.00406685
0.00406686
0.00406687
0.00406688
0.00406688
0.00406689
0.00406689
0.00406689
0.00406689
0.00406688
0.00406688
0.00406687
0.00406686
0.00406685
0.00406684
0.00406683
0.00406681
0.00406679
0.00406677
0.00406675
0.00406673
0.00406671
0.00406668
0.00406665
0.00406662
0.00406658
0.00406655
0.00406651
0.00406647
0.00406643
0.00406638
0.00406633
0.00406628
0.00406623
0.00406618
0.00406612
0.00406606
0.00412653
0.00412659
0.00412665
0.0041267
0.00412676
0.00412681
0.00412686
0.0041269
0.00412695
0.00412699
0.00412703
0.00412706
0.0041271
0.00412713
0.00412716
0.00412719
0.00412721
0.00412724
0.00412726
0.00412728
0.0041273
0.00412731
0.00412733
0.00412734
0.00412735
0.00412736
0.00412736
0.00412737
0.00412737
0.00412738
0.00412738
0.00412737
0.00412737
0.00412736
0.00412736
0.00412735
0.00412734
0.00412733
0.00412731
0.0041273
0.00412728
0.00412726
0.00412724
0.00412721
0.00412719
0.00412716
0.00412713
0.0041271
0.00412706
0.00412703
0.00412699
0.00412695
0.0041269
0.00412686
0.00412681
0.00412676
0.0041267
0.00412665
0.00412659
0.00412653
0.00419165
0.00419172
0.00419178
0.00419183
0.00419189
0.00419194
0.00419199
0.00419204
0.00419208
0.00419213
0.00419217
0.0041922
0.00419224
0.00419227
0.0041923
0.00419233
0.00419236
0.00419238
0.0041924
0.00419242
0.00419244
0.00419246
0.00419247
0.00419248
0.00419249
0.0041925
0.00419251
0.00419252
0.00419252
0.00419252
0.00419252
0.00419252
0.00419252
0.00419251
0.0041925
0.00419249
0.00419248
0.00419247
0.00419246
0.00419244
0.00419242
0.0041924
0.00419238
0.00419236
0.00419233
0.0041923
0.00419227
0.00419224
0.0041922
0.00419217
0.00419213
0.00419208
0.00419204
0.00419199
0.00419194
0.00419189
0.00419183
0.00419178
0.00419172
0.00419165
0.00426198
0.00426205
0.00426211
0.00426217
0.00426222
0.00426228
0.00426233
0.00426238
0.00426242
0.00426247
0.00426251
0.00426255
0.00426258
0.00426262
0.00426265
0.00426268
0.0042627
0.00426273
0.00426275
0.00426277
0.00426279
0.00426281
0.00426282
0.00426284
0.00426285
0.00426286
0.00426286
0.00426287
0.00426287
0.00426287
0.00426287
0.00426287
0.00426287
0.00426286
0.00426286
0.00426285
0.00426284
0.00426282
0.00426281
0.00426279
0.00426277
0.00426275
0.00426273
0.0042627
0.00426268
0.00426265
0.00426262
0.00426258
0.00426255
0.00426251
0.00426247
0.00426242
0.00426238
0.00426233
0.00426228
0.00426222
0.00426217
0.00426211
0.00426205
0.00426198
0.00433816
0.00433822
0.00433828
0.00433834
0.0043384
0.00433846
0.00433851
0.00433856
0.00433861
0.00433865
0.0043387
0.00433874
0.00433877
0.00433881
0.00433884
0.00433887
0.0043389
0.00433892
0.00433895
0.00433897
0.00433899
0.004339
0.00433902
0.00433903
0.00433904
0.00433905
0.00433906
0.00433907
0.00433907
0.00433907
0.00433907
0.00433907
0.00433907
0.00433906
0.00433905
0.00433904
0.00433903
0.00433902
0.004339
0.00433899
0.00433897
0.00433895
0.00433892
0.0043389
0.00433887
0.00433884
0.00433881
0.00433877
0.00433874
0.0043387
0.00433865
0.00433861
0.00433856
0.00433851
0.00433846
0.0043384
0.00433834
0.00433828
0.00433822
0.00433816
0.00442092
0.00442099
0.00442105
0.00442112
0.00442118
0.00442123
0.00442129
0.00442134
0.00442139
0.00442144
0.00442148
0.00442152
0.00442156
0.00442159
0.00442163
0.00442166
0.00442169
0.00442171
0.00442174
0.00442176
0.00442178
0.0044218
0.00442181
0.00442183
0.00442184
0.00442185
0.00442186
0.00442186
0.00442187
0.00442187
0.00442187
0.00442187
0.00442186
0.00442186
0.00442185
0.00442184
0.00442183
0.00442181
0.0044218
0.00442178
0.00442176
0.00442174
0.00442171
0.00442169
0.00442166
0.00442163
0.00442159
0.00442156
0.00442152
0.00442148
0.00442144
0.00442139
0.00442134
0.00442129
0.00442123
0.00442118
0.00442112
0.00442105
0.00442099
0.00442092
0.00451117
0.00451124
0.00451131
0.00451137
0.00451143
0.00451149
0.00451155
0.0045116
0.00451165
0.0045117
0.00451175
0.00451179
0.00451183
0.00451187
0.0045119
0.00451193
0.00451196
0.00451199
0.00451202
0.00451204
0.00451206
0.00451208
0.00451209
0.00451211
0.00451212
0.00451213
0.00451214
0.00451214
0.00451215
0.00451215
0.00451215
0.00451215
0.00451214
0.00451214
0.00451213
0.00451212
0.00451211
0.00451209
0.00451208
0.00451206
0.00451204
0.00451202
0.00451199
0.00451196
0.00451193
0.0045119
0.00451187
0.00451183
0.00451179
0.00451175
0.0045117
0.00451165
0.0045116
0.00451155
0.00451149
0.00451143
0.00451137
0.00451131
0.00451124
0.00451117
0.00460997
0.00461004
0.00461011
0.00461018
0.00461024
0.0046103
0.00461036
0.00461041
0.00461047
0.00461052
0.00461056
0.00461061
0.00461065
0.00461069
0.00461072
0.00461076
0.00461079
0.00461082
0.00461084
0.00461087
0.00461089
0.00461091
0.00461092
0.00461094
0.00461095
0.00461096
0.00461097
0.00461098
0.00461098
0.00461098
0.00461098
0.00461098
0.00461098
0.00461097
0.00461096
0.00461095
0.00461094
0.00461092
0.00461091
0.00461089
0.00461087
0.00461084
0.00461082
0.00461079
0.00461076
0.00461072
0.00461069
0.00461065
0.00461061
0.00461056
0.00461052
0.00461047
0.00461041
0.00461036
0.0046103
0.00461024
0.00461018
0.00461011
0.00461004
0.00460997
0.00471859
0.00471866
0.00471873
0.0047188
0.00471887
0.00471893
0.004719
0.00471905
0.00471911
0.00471916
0.00471921
0.00471926
0.0047193
0.00471934
0.00471938
0.00471941
0.00471944
0.00471947
0.0047195
0.00471952
0.00471955
0.00471957
0.00471958
0.0047196
0.00471961
0.00471962
0.00471963
0.00471964
0.00471964
0.00471964
0.00471964
0.00471964
0.00471964
0.00471963
0.00471962
0.00471961
0.0047196
0.00471958
0.00471957
0.00471955
0.00471952
0.0047195
0.00471947
0.00471944
0.00471941
0.00471938
0.00471934
0.0047193
0.00471926
0.00471921
0.00471916
0.00471911
0.00471905
0.004719
0.00471893
0.00471887
0.0047188
0.00471873
0.00471866
0.00471859
0.00483859
0.00483867
0.00483874
0.00483882
0.00483889
0.00483895
0.00483902
0.00483908
0.00483913
0.00483919
0.00483924
0.00483929
0.00483933
0.00483937
0.00483941
0.00483945
0.00483948
0.00483951
0.00483954
0.00483957
0.00483959
0.00483961
0.00483963
0.00483965
0.00483966
0.00483967
0.00483968
0.00483969
0.00483969
0.00483969
0.00483969
0.00483969
0.00483969
0.00483968
0.00483967
0.00483966
0.00483965
0.00483963
0.00483961
0.00483959
0.00483957
0.00483954
0.00483951
0.00483948
0.00483945
0.00483941
0.00483937
0.00483933
0.00483929
0.00483924
0.00483919
0.00483913
0.00483908
0.00483902
0.00483895
0.00483889
0.00483882
0.00483874
0.00483867
0.00483859
0.00497189
0.00497197
0.00497205
0.00497213
0.0049722
0.00497227
0.00497234
0.0049724
0.00497246
0.00497252
0.00497257
0.00497262
0.00497267
0.00497271
0.00497275
0.00497279
0.00497283
0.00497286
0.00497289
0.00497292
0.00497294
0.00497296
0.00497298
0.004973
0.00497301
0.00497303
0.00497303
0.00497304
0.00497305
0.00497305
0.00497305
0.00497305
0.00497304
0.00497303
0.00497303
0.00497301
0.004973
0.00497298
0.00497296
0.00497294
0.00497292
0.00497289
0.00497286
0.00497283
0.00497279
0.00497275
0.00497271
0.00497267
0.00497262
0.00497257
0.00497252
0.00497246
0.0049724
0.00497234
0.00497227
0.0049722
0.00497213
0.00497205
0.00497197
0.00497189
0.00512087
0.00512096
0.00512104
0.00512112
0.0051212
0.00512127
0.00512134
0.00512141
0.00512147
0.00512153
0.00512159
0.00512164
0.00512169
0.00512174
0.00512178
0.00512182
0.00512186
0.00512189
0.00512192
0.00512195
0.00512198
0.005122
0.00512202
0.00512204
0.00512205
0.00512207
0.00512208
0.00512208
0.00512209
0.00512209
0.00512209
0.00512209
0.00512208
0.00512208
0.00512207
0.00512205
0.00512204
0.00512202
0.005122
0.00512198
0.00512195
0.00512192
0.00512189
0.00512186
0.00512182
0.00512178
0.00512174
0.00512169
0.00512164
0.00512159
0.00512153
0.00512147
0.00512141
0.00512134
0.00512127
0.0051212
0.00512112
0.00512104
0.00512096
0.00512087
0.00528853
0.00528863
0.00528872
0.0052888
0.00528888
0.00528896
0.00528904
0.00528911
0.00528917
0.00528924
0.0052893
0.00528935
0.00528941
0.00528946
0.0052895
0.00528955
0.00528958
0.00528962
0.00528965
0.00528968
0.00528971
0.00528974
0.00528976
0.00528978
0.00528979
0.00528981
0.00528982
0.00528983
0.00528983
0.00528983
0.00528983
0.00528983
0.00528983
0.00528982
0.00528981
0.00528979
0.00528978
0.00528976
0.00528974
0.00528971
0.00528968
0.00528965
0.00528962
0.00528958
0.00528955
0.0052895
0.00528946
0.00528941
0.00528935
0.0052893
0.00528924
0.00528917
0.00528911
0.00528904
0.00528896
0.00528888
0.0052888
0.00528872
0.00528863
0.00528853
0.00547874
0.00547884
0.00547893
0.00547903
0.00547911
0.0054792
0.00547928
0.00547935
0.00547942
0.00547949
0.00547956
0.00547962
0.00547967
0.00547973
0.00547978
0.00547982
0.00547986
0.0054799
0.00547994
0.00547997
0.00548
0.00548003
0.00548005
0.00548007
0.00548009
0.0054801
0.00548011
0.00548012
0.00548013
0.00548013
0.00548013
0.00548013
0.00548012
0.00548011
0.0054801
0.00548009
0.00548007
0.00548005
0.00548003
0.00548
0.00547997
0.00547994
0.0054799
0.00547986
0.00547982
0.00547978
0.00547973
0.00547967
0.00547962
0.00547956
0.00547949
0.00547942
0.00547935
0.00547928
0.0054792
0.00547911
0.00547903
0.00547893
0.00547884
0.00547874
0.00569651
0.00569662
0.00569672
0.00569681
0.00569691
0.005697
0.00569709
0.00569717
0.00569724
0.00569732
0.00569739
0.00569745
0.00569751
0.00569757
0.00569762
0.00569767
0.00569772
0.00569776
0.0056978
0.00569783
0.00569786
0.00569789
0.00569792
0.00569794
0.00569796
0.00569797
0.00569798
0.00569799
0.005698
0.005698
0.005698
0.005698
0.00569799
0.00569798
0.00569797
0.00569796
0.00569794
0.00569792
0.00569789
0.00569786
0.00569783
0.0056978
0.00569776
0.00569772
0.00569767
0.00569762
0.00569757
0.00569751
0.00569745
0.00569739
0.00569732
0.00569724
0.00569717
0.00569709
0.005697
0.00569691
0.00569681
0.00569672
0.00569662
0.00569651
0.0059485
0.00594862
0.00594873
0.00594884
0.00594894
0.00594904
0.00594913
0.00594922
0.00594931
0.00594939
0.00594946
0.00594953
0.0059496
0.00594966
0.00594972
0.00594977
0.00594982
0.00594986
0.00594991
0.00594994
0.00594998
0.00595001
0.00595004
0.00595006
0.00595008
0.0059501
0.00595011
0.00595012
0.00595013
0.00595013
0.00595013
0.00595013
0.00595012
0.00595011
0.0059501
0.00595008
0.00595006
0.00595004
0.00595001
0.00594998
0.00594994
0.00594991
0.00594986
0.00594982
0.00594977
0.00594972
0.00594966
0.0059496
0.00594953
0.00594946
0.00594939
0.00594931
0.00594922
0.00594913
0.00594904
0.00594894
0.00594884
0.00594873
0.00594862
0.0059485
0.00624379
0.00624392
0.00624404
0.00624415
0.00624427
0.00624437
0.00624448
0.00624457
0.00624467
0.00624476
0.00624484
0.00624491
0.00624499
0.00624506
0.00624512
0.00624518
0.00624523
0.00624528
0.00624533
0.00624537
0.00624541
0.00624544
0.00624547
0.0062455
0.00624552
0.00624554
0.00624555
0.00624556
0.00624557
0.00624557
0.00624557
0.00624557
0.00624556
0.00624555
0.00624554
0.00624552
0.0062455
0.00624547
0.00624544
0.00624541
0.00624537
0.00624533
0.00624528
0.00624523
0.00624518
0.00624512
0.00624506
0.00624499
0.00624491
0.00624484
0.00624476
0.00624467
0.00624457
0.00624448
0.00624437
0.00624427
0.00624415
0.00624404
0.00624392
0.00624379
0.00659491
0.00659506
0.00659519
0.00659532
0.00659545
0.00659557
0.00659568
0.00659579
0.0065959
0.00659599
0.00659609
0.00659617
0.00659625
0.00659633
0.0065964
0.00659647
0.00659653
0.00659658
0.00659663
0.00659668
0.00659672
0.00659676
0.00659679
0.00659682
0.00659685
0.00659687
0.00659688
0.00659689
0.0065969
0.00659691
0.00659691
0.0065969
0.00659689
0.00659688
0.00659687
0.00659685
0.00659682
0.00659679
0.00659676
0.00659672
0.00659668
0.00659663
0.00659658
0.00659653
0.00659647
0.0065964
0.00659633
0.00659625
0.00659617
0.00659609
0.00659599
0.0065959
0.00659579
0.00659568
0.00659557
0.00659545
0.00659532
0.00659519
0.00659506
0.00659491
0.00701971
0.00701988
0.00702003
0.00702018
0.00702032
0.00702045
0.00702058
0.00702071
0.00702083
0.00702094
0.00702104
0.00702114
0.00702123
0.00702132
0.0070214
0.00702147
0.00702154
0.0070216
0.00702166
0.00702171
0.00702176
0.0070218
0.00702184
0.00702187
0.0070219
0.00702192
0.00702194
0.00702196
0.00702197
0.00702197
0.00702197
0.00702197
0.00702196
0.00702194
0.00702192
0.0070219
0.00702187
0.00702184
0.0070218
0.00702176
0.00702171
0.00702166
0.0070216
0.00702154
0.00702147
0.0070214
0.00702132
0.00702123
0.00702114
0.00702104
0.00702094
0.00702083
0.00702071
0.00702058
0.00702045
0.00702032
0.00702018
0.00702003
0.00701988
0.00701971
0.00754389
0.00754408
0.00754425
0.00754442
0.00754459
0.00754475
0.0075449
0.00754504
0.00754518
0.0075453
0.00754542
0.00754554
0.00754564
0.00754574
0.00754584
0.00754592
0.007546
0.00754608
0.00754614
0.0075462
0.00754626
0.00754631
0.00754635
0.00754639
0.00754642
0.00754645
0.00754647
0.00754649
0.0075465
0.0075465
0.0075465
0.0075465
0.00754649
0.00754647
0.00754645
0.00754642
0.00754639
0.00754635
0.00754631
0.00754626
0.0075462
0.00754614
0.00754608
0.007546
0.00754592
0.00754584
0.00754574
0.00754564
0.00754554
0.00754542
0.0075453
0.00754518
0.00754504
0.0075449
0.00754475
0.00754459
0.00754442
0.00754425
0.00754408
0.00754389
0.00820473
0.00820496
0.00820516
0.00820536
0.00820556
0.00820575
0.00820592
0.00820609
0.00820625
0.00820641
0.00820655
0.00820668
0.00820681
0.00820693
0.00820704
0.00820714
0.00820723
0.00820732
0.0082074
0.00820747
0.00820754
0.0082076
0.00820765
0.00820769
0.00820773
0.00820776
0.00820779
0.00820781
0.00820782
0.00820783
0.00820783
0.00820782
0.00820781
0.00820779
0.00820776
0.00820773
0.00820769
0.00820765
0.0082076
0.00820754
0.00820747
0.0082074
0.00820732
0.00820723
0.00820714
0.00820704
0.00820693
0.00820681
0.00820668
0.00820655
0.00820641
0.00820625
0.00820609
0.00820592
0.00820575
0.00820556
0.00820536
0.00820516
0.00820496
0.00820473
0.00905551
0.00905578
0.00905603
0.00905627
0.00905651
0.00905673
0.00905695
0.00905716
0.00905735
0.00905754
0.00905771
0.00905787
0.00905803
0.00905817
0.0090583
0.00905843
0.00905854
0.00905865
0.00905874
0.00905883
0.00905891
0.00905898
0.00905904
0.0090591
0.00905914
0.00905918
0.00905921
0.00905924
0.00905925
0.00905926
0.00905926
0.00905925
0.00905924
0.00905921
0.00905918
0.00905914
0.0090591
0.00905904
0.00905898
0.00905891
0.00905883
0.00905874
0.00905865
0.00905854
0.00905843
0.0090583
0.00905817
0.00905803
0.00905787
0.00905771
0.00905754
0.00905735
0.00905716
0.00905695
0.00905673
0.00905651
0.00905627
0.00905603
0.00905578
0.00905551
0.0101689
0.0101693
0.0101696
0.0101699
0.0101702
0.0101705
0.0101707
0.010171
0.0101712
0.0101714
0.0101717
0.0101719
0.0101721
0.0101722
0.0101724
0.0101726
0.0101727
0.0101728
0.0101729
0.0101731
0.0101732
0.0101732
0.0101733
0.0101734
0.0101734
0.0101735
0.0101735
0.0101736
0.0101736
0.0101736
0.0101736
0.0101736
0.0101736
0.0101735
0.0101735
0.0101734
0.0101734
0.0101733
0.0101732
0.0101732
0.0101731
0.0101729
0.0101728
0.0101727
0.0101726
0.0101724
0.0101722
0.0101721
0.0101719
0.0101717
0.0101714
0.0101712
0.010171
0.0101707
0.0101705
0.0101702
0.0101699
0.0101696
0.0101693
0.0101689
0.0116361
0.0116365
0.0116369
0.0116373
0.0116377
0.011638
0.0116384
0.0116387
0.011639
0.0116393
0.0116395
0.0116398
0.01164
0.0116402
0.0116405
0.0116407
0.0116408
0.011641
0.0116411
0.0116413
0.0116414
0.0116415