/*--------------------------------*- C++ -*----------------------------------*\
| =========                 |                                                 |
| \\      /  F ield         | foam-extend: Open Source CFD                    |
|  \\    /   O peration     | Version:     4.0                                |
|   \\  /    A nd           | Web:         http://www.foam-extend.org         |
|    \\/     M anipulation  |                                                 |
\*---------------------------------------------------------------------------*/
FoamFile
{
    version     2.0;
    format      ascii;
    class       regIOobject;
    location    "920/uniform";
    object      profilingInfo;
}
// * * * * * * * * * * * * * * * * * * * * * * * * * * * * * * * * * * * * * //

profilingInfo
(

    {
        id              6;
        parentId        4;
        description     "Foam::Time::writeObject - outputTime";
        calls           92;
        totalTime       1.23077;
        childTime       0;
        onStack         1;
    }

    {
        id              4;
        parentId        1;
        description     "Foam::Time::writeObject";
        calls           920;
        totalTime       1.2322;
        childTime       1.23077;
        onStack         1;
    }

    {
        id              1;
        description     "application::main";
        calls           1;
        totalTime       98.8527;
        childTime       1.23283;
        onStack         1;
    }

    {
        id              3;
        parentId        2;
        description     "functionObjectList::read";
        calls           1;
        totalTime       4e-06;
        childTime       0;
        onStack         0;
    }

    {
        id              5;
        parentId        1;
        description     "functionObjects_.execute()";
        calls           919;
        totalTime       0.000611;
        childTime       0;
        onStack         0;
    }

    {
        id              2;
        parentId        1;
        description     "functionObjects_.start()";
        calls           1;
        totalTime       1.7e-05;
        childTime       4e-06;
        onStack         0;
    }
);


// ************************************************************************* //
