/*--------------------------------*- C++ -*----------------------------------*\
| =========                 |                                                 |
| \\      /  F ield         | foam-extend: Open Source CFD                    |
|  \\    /   O peration     | Version:     4.0                                |
|   \\  /    A nd           | Web:         http://www.foam-extend.org         |
|    \\/     M anipulation  |                                                 |
\*---------------------------------------------------------------------------*/
FoamFile
{
    version     2.0;
    format      ascii;
    class       volScalarField;
    location    "17";
    object      dPhi;
}
// * * * * * * * * * * * * * * * * * * * * * * * * * * * * * * * * * * * * * //

dimensions      [0 -1 0 0 0 0 0];

internalField   nonuniform List<scalar> 
6960
(
1.39822e-16
-2.78418e-16
-4.15296e-16
-1.59768e-16
-1.23337e-16
-1.04793e-15
-1.04794e-15
-1.23359e-15
-3.81823e-16
-3.8182e-16
1.43098e-15
-7.14893e-16
6.22604e-17
2.54118e-15
9.5043e-16
-3.8184e-16
2.09705e-15
-1.59809e-16
-3.81864e-16
7.64772e-16
2.84259e-16
6.22188e-17
3.20676e-16
-8.25973e-16
1.73231e-16
5.42744e-16
-1.59835e-16
-1.59821e-16
3.20704e-16
1.50555e-15
-6.02162e-16
-5.70958e-16
-8.24217e-16
-8.2421e-16
-5.70929e-16
1.75017e-16
5.08075e-16
5.39295e-16
-1.37932e-15
-6.02141e-16
9.52395e-17
1.75017e-16
5.08093e-16
-1.23704e-15
5.08083e-16
1.74989e-16
-2.37867e-16
1.61826e-15
1.61827e-15
1.31644e-15
-4.70204e-17
5.08095e-16
5.39343e-16
1.75045e-16
-4.91056e-16
-1.45902e-15
3.97125e-16
-6.0206e-16
-1.23698e-15
5.08157e-16
-2.61377e-15
-9.04235e-16
2.17282e-16
1.95703e-16
2.41408e-15
1.69454e-15
1.19493e-15
6.37663e-16
-1.92895e-16
1.08387e-15
-3.61485e-16
-2.13578e-15
-3.03928e-16
-9.16638e-16
1.47241e-15
-1.41417e-15
1.30373e-15
6.95225e-16
7.50716e-16
4.7104e-16
8.45579e-17
1.95587e-16
8.2444e-17
9.72713e-16
-1.35875e-15
-1.47181e-15
1.13926e-15
-3.04004e-16
5.26592e-16
-1.24763e-15
-1.24141e-15
-1.31781e-15
-6.86324e-16
2.03374e-15
-3.18553e-16
-3.53185e-16
-1.13036e-15
-2.07522e-16
2.36683e-15
-2.29608e-15
-1.31768e-15
-9.08294e-16
2.01945e-16
-3.18495e-16
7.0152e-16
-7.56813e-17
-6.51626e-16
1.53411e-15
-1.24144e-15
-2.59452e-15
-1.46339e-15
-5.19688e-16
-1.15111e-15
-6.86187e-16
9.10315e-17
-2.62855e-16
1.92291e-15
9.10687e-17
-2.0735e-16
2.57593e-16
9.73259e-16
1.70504e-15
3.07093e-16
1.05384e-15
-2.32578e-16
-6.11439e-16
2.83024e-15
8.77564e-16
2.38608e-15
-1.67416e-16
-1.56484e-15
5.5421e-16
-1.55523e-15
-2.88166e-16
-3.88674e-15
4.10687e-15
-1.07457e-17
5.54098e-16
8.87131e-16
-1.07808e-17
-3.34156e-16
6.09539e-16
-2.28677e-15
-4.49753e-15
-1.10771e-18
5.44398e-16
2.60792e-15
1.99735e-15
-4.00751e-15
2.55258e-15
6.9415e-16
3.98352e-15
-6.38165e-16
-3.60579e-16
-1.34544e-15
1.13831e-15
2.1375e-15
-2.56668e-15
-2.35895e-15
-8.60081e-16
-2.40002e-15
-1.38431e-16
1.24938e-15
-2.40007e-15
-3.41359e-15
1.36027e-15
-1.67852e-15
7.49576e-16
-5.82656e-16
-1.34547e-15
3.05679e-16
1.41594e-15
2.59604e-15
-7.4894e-16
1.24958e-15
3.20682e-15
1.74919e-15
2.69295e-15
-7.34489e-16
6.38989e-16
-1.21318e-16
-2.91209e-15
-3.15652e-16
8.4022e-16
1.15992e-15
-6.86257e-16
1.1862e-16
2.5198e-15
3.68312e-16
1.6451e-15
5.21544e-16
9.5118e-16
9.51161e-16
-1.86559e-15
4.7536e-15
1.70048e-15
-2.36539e-15
-1.04739e-15
2.39425e-15
-1.83814e-15
3.58766e-15
-4.83186e-17
1.24272e-15
3.47657e-15
5.90014e-16
9.37579e-16
-8.53272e-16
1.20072e-15
1.88129e-15
1.50625e-15
-8.03008e-18
-1.44651e-15
-1.64569e-15
-5.90908e-16
2.68924e-15
8.80283e-16
1.98303e-17
1.30149e-15
5.15455e-15
2.21255e-15
2.88378e-15
1.62972e-15
-5.62952e-16
1.74572e-15
-8.68313e-16
6.58087e-16
-1.39085e-15
2.69399e-16
1.76825e-15
-3.08506e-17
1.04685e-15
4.36302e-16
-1.8901e-15
-1.00687e-15
-3.0606e-15
-8.90662e-16
-5.86388e-15
1.60247e-15
3.58335e-16
-1.81151e-15
-2.78657e-15
1.10372e-15
1.27664e-16
-1.10722e-15
-1.87459e-16
-2.68918e-15
-3.31372e-15
-5.34607e-16
1.69423e-16
-4.39632e-15
1.78323e-15
1.67708e-17
2.18169e-15
-5.34634e-16
-4.31327e-15
9.98851e-17
-2.46396e-15
-1.87088e-15
-1.38523e-15
8.94336e-16
-1.46862e-15
-2.56497e-15
-3.43559e-15
-3.72379e-16
3.13872e-15
4.50489e-16
1.70937e-15
-3.73061e-15
-5.62554e-16
2.23713e-15
1.85077e-15
1.87504e-15
-1.7992e-15
9.48679e-16
-4.60562e-15
1.00443e-15
1.12931e-15
-5.6713e-16
-3.83473e-16
-5.77609e-16
-1.55212e-15
1.1155e-15
-2.11796e-15
-1.33019e-15
1.9759e-15
3.05812e-15
1.40341e-15
-2.88174e-15
1.30943e-15
5.72582e-17
-1.85432e-15
-3.31138e-15
3.13872e-15
-1.05418e-16
-1.00716e-15
-1.7875e-15
3.18399e-15
-2.25595e-15
9.04773e-16
-1.95072e-15
1.25821e-15
-9.55759e-16
2.3544e-15
4.61089e-15
1.90019e-15
5.62411e-15
4.19464e-15
2.28852e-15
1.26615e-15
1.43277e-15
3.49621e-15
-1.06528e-15
6.69369e-16
1.37401e-16
-1.92602e-15
4.31898e-15
2.52387e-15
2.16781e-15
2.16769e-15
1.37179e-15
1.48745e-15
-2.71748e-15
6.77919e-16
-2.67597e-15
-3.578e-15
-2.93118e-16
-1.94037e-15
4.66564e-15
1.91354e-15
1.57135e-15
-9.27325e-16
3.7044e-15
-4.48023e-15
-3.86161e-16
2.08116e-15
-2.59233e-15
-2.33183e-16
3.02491e-15
-1.63495e-15
-4.45197e-15
-2.51181e-15
-2.07877e-15
-1.37092e-15
-6.63368e-15
-2.10661e-15
-6.35937e-16
-1.43e-15
-1.37171e-15
1.5011e-15
-1.79081e-15
1.40455e-15
4.88759e-16
-6.79695e-16
2.26545e-15
3.93131e-15
-4.59264e-15
1.28859e-16
1.08665e-15
-4.06932e-17
1.90535e-15
8.05355e-16
1.52034e-17
-2.77531e-15
-5.57836e-16
-7.39003e-15
-1.08492e-15
3.58225e-16
-6.26626e-15
5.25671e-15
5.52301e-16
-1.46409e-15
1.77457e-16
1.34305e-15
-6.73651e-16
4.42363e-15
-4.33674e-16
-1.18783e-15
2.50826e-15
-1.15558e-15
-2.93681e-15
-8.73587e-17
-3.58452e-15
-1.20204e-15
1.05044e-15
-1.00337e-15
-3.68549e-15
2.77152e-15
-4.43081e-15
3.38432e-17
1.81485e-15
3.97828e-15
-4.46071e-15
7.02861e-16
-1.51739e-15
4.42178e-15
2.60487e-15
5.06118e-15
-4.15468e-15
-7.95261e-16
1.63347e-15
-5.17833e-16
3.29087e-16
1.7448e-15
1.03621e-14
-3.62624e-15
3.06233e-15
-5.18798e-16
4.86601e-15
2.40982e-15
-5.33207e-18
-1.25301e-15
3.14654e-15
6.28264e-15
-1.75184e-15
5.6657e-16
2.47393e-17
-1.3207e-15
-8.90066e-16
4.54965e-16
-5.29396e-16
-8.72966e-16
1.46972e-15
4.46274e-15
-4.24507e-15
7.47007e-15
2.73584e-15
6.40113e-16
5.57523e-15
-5.82056e-15
2.62431e-15
3.71744e-16
-8.20978e-17
7.7124e-16
-5.28437e-15
-7.55819e-16
2.533e-15
-1.15683e-15
-5.70349e-15
1.42246e-15
7.39137e-15
5.54619e-16
-3.28249e-15
-8.31009e-16
-7.15504e-16
-1.97822e-15
6.29624e-15
4.57535e-16
1.70002e-15
7.49687e-15
-8.94145e-16
1.9985e-15
5.58153e-15
5.13305e-16
2.1511e-15
1.1069e-15
2.7973e-15
-2.11561e-15
3.30664e-15
5.14955e-15
-1.39368e-15
2.64184e-15
3.77594e-15
7.3002e-16
-2.63208e-15
3.83812e-15
1.72794e-15
2.31418e-15
5.48125e-15
2.22716e-15
-9.40105e-16
2.07593e-15
4.45597e-16
-2.36052e-15
-4.50797e-15
5.03177e-16
-4.64699e-16
-3.29224e-15
3.64031e-15
3.73338e-15
3.00862e-15
-5.35782e-16
-2.5613e-15
3.18262e-15
-1.64341e-15
-3.45055e-15
4.87283e-15
1.3823e-15
-3.99249e-15
5.03132e-15
2.6586e-15
-7.57986e-16
1.44408e-15
-2.4699e-15
-1.60596e-15
3.84368e-15
-1.86736e-15
-1.44796e-15
-4.10055e-16
-1.04169e-15
-4.59209e-15
-1.42415e-15
3.20414e-15
3.91533e-15
4.91064e-15
4.77214e-15
-3.90326e-15
2.96766e-16
3.53079e-15
1.68278e-15
-5.1692e-15
9.52184e-16
-3.88702e-15
2.81831e-15
3.35284e-15
-9.78181e-16
9.74278e-16
3.42506e-16
6.45568e-16
1.45994e-15
-3.09167e-16
-3.4464e-15
-9.47423e-16
-2.12684e-15
6.17752e-15
4.54073e-15
5.80257e-15
-3.17099e-15
-4.35014e-15
-1.90717e-15
-2.06076e-15
-3.854e-16
-1.36331e-15
2.74397e-15
3.77268e-15
7.80611e-15
4.41171e-15
7.63258e-16
5.73249e-15
-5.92016e-15
-5.43261e-15
-8.32813e-16
1.22075e-15
-4.71986e-15
3.01534e-15
1.04176e-15
-2.86787e-15
5.80526e-15
3.63611e-15
-3.05011e-15
2.28657e-15
2.00674e-15
3.10506e-15
3.8608e-15
4.8702e-15
-1.22656e-15
-6.1603e-17
1.35699e-15
6.87793e-15
3.33163e-15
3.16686e-15
1.63728e-15
2.23442e-15
3.8265e-15
-3.05369e-15
-2.07503e-15
2.48263e-15
1.36701e-15
-5.65428e-15
-5.69643e-16
1.00225e-15
2.45262e-15
2.49913e-15
5.3598e-15
3.06353e-15
2.58442e-15
1.10863e-15
4.11303e-15
-3.6952e-15
1.57388e-15
2.1153e-15
-2.59568e-15
2.66347e-15
1.94938e-15
-4.7058e-15
-4.42858e-15
-5.34609e-15
2.41765e-15
3.33277e-15
5.81061e-15
9.00997e-15
3.34394e-15
-1.38608e-17
-2.56682e-15
-5.21636e-15
1.86431e-15
1.80834e-15
1.85072e-15
-7.26558e-15
-5.1096e-15
2.19838e-15
-2.02454e-15
-2.84285e-15
-1.81157e-15
3.7614e-15
3.58687e-15
5.36585e-15
-5.06749e-15
-5.8129e-15
9.84835e-16
5.66028e-16
2.22049e-15
-3.20197e-15
-2.12405e-15
1.83902e-15
3.15483e-15
1.5231e-16
7.73429e-15
1.76694e-15
3.40061e-15
-1.27771e-15
1.47962e-15
-3.16522e-15
-1.27855e-14
9.03527e-16
3.2912e-15
6.14784e-15
-5.31304e-15
6.25205e-15
-4.15683e-16
2.08512e-15
-4.89071e-15
-8.06951e-16
-1.86607e-15
-1.37213e-16
-1.95221e-15
-1.41097e-15
3.50983e-16
3.84242e-15
6.46815e-16
-2.89326e-16
2.24032e-15
-4.07599e-16
-9.2702e-16
1.04796e-14
4.20934e-15
5.06404e-15
-5.57092e-15
2.86161e-15
-2.66392e-15
-7.78754e-15
1.56326e-15
6.90053e-15
-3.62469e-15
2.72924e-15
-2.66113e-15
-3.14379e-15
1.37745e-15
4.17617e-15
4.11457e-15
5.60124e-15
-2.65754e-15
1.95379e-15
-5.51913e-16
-1.3383e-15
-4.5743e-15
-6.03045e-15
6.2963e-16
3.74097e-15
-1.74283e-15
-5.60608e-15
-1.26604e-14
5.64144e-15
3.80047e-16
-5.93134e-15
-6.94465e-16
-7.48601e-16
-9.89424e-15
4.78486e-16
-9.46904e-15
-1.50086e-15
1.17129e-15
4.1666e-15
1.2569e-14
-2.59965e-15
2.39351e-16
-1.80227e-15
-7.10654e-16
1.37457e-16
1.25944e-15
-3.19173e-15
5.30745e-15
3.48012e-15
7.68341e-15
-4.75696e-15
2.39167e-15
1.72865e-15
-3.9269e-15
1.623e-15
3.29794e-15
2.771e-15
-4.18892e-15
4.45702e-15
3.15388e-15
-2.87186e-15
2.4381e-16
-5.42544e-15
1.25755e-15
-1.4463e-15
-4.158e-15
2.76295e-16
-3.37336e-15
-6.82356e-15
3.99793e-15
5.51757e-15
6.64463e-15
4.72764e-15
4.47311e-15
1.22881e-16
-9.72136e-16
1.35674e-15
9.84515e-15
3.34917e-15
-1.55483e-15
-4.89851e-15
-4.82723e-15
4.90604e-15
-2.96417e-15
5.67672e-15
2.80818e-15
-1.2425e-16
7.64283e-15
2.29352e-15
-2.47256e-15
1.11616e-15
2.87299e-15
-5.72049e-15
3.3277e-15
-2.47584e-15
7.63692e-15
-4.58043e-15
1.75681e-15
-7.26075e-15
-7.05527e-15
1.95698e-17
-3.18082e-15
6.83996e-16
5.60111e-15
-8.74002e-16
4.64884e-15
-1.03295e-15
-2.8753e-15
-1.81796e-15
-8.05196e-15
1.00149e-14
-3.75782e-15
2.73943e-15
2.64952e-15
-8.82053e-16
1.25029e-15
4.22748e-15
-1.20333e-16
-1.76825e-15
-1.34928e-15
2.52538e-16
-5.78902e-15
4.58618e-16
-1.98043e-15
2.4408e-15
-7.13378e-16
-1.68477e-15
-1.98683e-15
-9.9481e-16
-3.35978e-15
-5.66658e-15
7.13297e-16
-7.12695e-15
-1.0579e-14
-2.89618e-15
-2.34783e-15
-7.29383e-16
-3.81235e-15
2.7202e-15
9.05959e-16
-2.06271e-15
-1.74254e-15
-9.61449e-15
2.77987e-15
-9.1957e-15
-4.77667e-15
1.68471e-16
-9.839e-16
-4.49921e-15
-1.71004e-15
-6.75892e-16
4.27893e-15
-3.53516e-15
3.04886e-15
-5.66618e-16
-4.46973e-15
1.49165e-15
-4.86444e-15
7.18597e-15
-5.07256e-15
9.3549e-16
2.94022e-15
9.40518e-16
-1.81265e-15
-8.79966e-15
-1.21013e-15
-2.78193e-16
-5.47346e-16
-7.00042e-16
6.41478e-15
-5.76367e-15
4.54348e-16
2.32671e-15
-6.28444e-16
1.15595e-15
-7.7431e-16
2.3073e-15
2.00442e-16
-4.89355e-15
-3.5228e-15
1.08078e-14
6.99992e-15
-9.14633e-16
2.93988e-15
4.75661e-15
-1.57685e-15
6.03566e-15
1.92088e-15
-8.74341e-16
6.16437e-16
1.39224e-15
-6.81935e-15
7.99598e-15
8.74608e-15
-2.456e-15
-3.55055e-15
-6.23293e-15
1.61777e-15
-5.18883e-15
-1.68119e-15
-1.7656e-15
7.0446e-16
1.02242e-14
-4.54422e-15
6.50505e-15
2.53102e-15
-4.94705e-15
-9.39854e-15
7.50558e-15
-1.83154e-15
1.34444e-15
-1.20187e-14
-7.93601e-15
-3.41057e-15
2.61423e-15
-2.24134e-15
-2.83394e-15
2.35077e-15
-7.98263e-15
1.74933e-15
-5.36517e-16
9.64506e-16
-8.54237e-15
-4.328e-15
5.38683e-15
-6.83904e-15
-1.39469e-15
1.00772e-14
-1.16514e-15
6.44916e-15
4.05763e-17
1.62985e-15
1.56968e-15
8.78583e-16
-4.53085e-15
7.15275e-16
-7.10253e-15
1.49381e-15
8.79887e-15
4.29423e-15
-1.62077e-15
-2.68308e-15
2.45453e-15
-8.38712e-16
-1.12597e-15
1.2445e-15
-6.54351e-15
-1.50216e-15
2.05416e-15
-3.15839e-15
1.29581e-15
1.08981e-14
-1.12757e-17
-6.4278e-15
5.19265e-15
9.14026e-15
6.87544e-15
4.45504e-15
-7.62866e-15
1.35823e-15
1.42909e-15
5.04458e-15
-1.6376e-14
1.57838e-15
-1.48901e-14
-5.33991e-15
8.38018e-15
1.24658e-14
-4.99259e-15
3.95549e-15
-5.60034e-15
8.66337e-15
5.71472e-15
-6.85205e-15
-5.21057e-15
-8.08706e-16
4.75368e-16
-7.17509e-15
9.69862e-15
-1.27692e-15
3.6819e-15
-9.43673e-15
5.57676e-15
-5.16622e-15
-5.55263e-15
5.24293e-15
3.52257e-16
-1.59282e-14
8.01768e-16
-1.26034e-14
8.17895e-15
9.10714e-15
-1.21793e-14
-2.0106e-15
6.54658e-15
2.14547e-15
9.51176e-15
-7.39751e-16
2.66112e-15
8.0837e-15
-5.15787e-15
6.01895e-16
7.13085e-15
-5.46107e-15
-8.02732e-15
1.32679e-15
4.90894e-15
8.55576e-15
4.70392e-15
8.00738e-15
-3.62118e-15
-1.0616e-14
-2.32144e-15
-4.54769e-15
-7.95306e-15
-1.08151e-14
-9.04984e-16
7.91495e-15
1.1724e-14
-7.08575e-15
-8.81294e-15
-1.51101e-14
3.54892e-15
-4.1758e-15
2.93716e-15
-5.91172e-15
8.67633e-16
-1.22617e-14
6.18705e-15
-1.8555e-15
4.48768e-15
-1.22547e-15
-1.46578e-14
1.75308e-14
8.78648e-15
-1.17441e-15
-4.24097e-15
6.23812e-15
-1.43031e-14
1.51989e-15
-3.95951e-16
8.69855e-16
4.10587e-16
1.10279e-14
1.19854e-14
3.49514e-15
-1.15159e-15
1.05553e-14
-2.44921e-15
8.15981e-15
-3.01235e-15
-1.75395e-14
8.1699e-15
8.24894e-15
-7.34612e-15
-4.63664e-15
-2.42346e-15
-7.09773e-16
-1.38399e-14
-1.41121e-14
1.98138e-16
1.78004e-15
-1.71618e-14
8.4435e-15
7.30188e-15
4.61377e-15
2.97261e-15
-1.16786e-14
-6.10883e-15
-4.58715e-15
5.01216e-15
1.03108e-15
6.88056e-15
1.04832e-14
1.00116e-14
-2.79236e-16
-5.19734e-15
-4.75314e-15
-1.35634e-16
6.41631e-15
8.08316e-15
8.06668e-15
-4.45379e-15
1.75467e-15
3.56768e-15
1.32977e-15
-3.60541e-15
4.76648e-15
-4.69546e-15
7.3961e-15
-7.25331e-17
-1.73798e-15
1.65683e-14
-9.45283e-15
-6.68259e-15
1.00962e-14
1.10918e-14
-7.2931e-15
7.02932e-15
-1.33348e-14
-1.19721e-14
-4.15358e-16
-3.03381e-15
-1.02704e-14
-1.52907e-14
-1.1138e-15
2.69012e-15
-1.33303e-15
-1.30473e-15
2.97679e-15
-1.61828e-15
1.68626e-15
-1.25063e-15
-4.02922e-15
1.39353e-14
8.02516e-15
-3.60757e-15
9.12226e-15
8.05551e-15
5.34045e-15
-6.02123e-15
-9.98875e-16
1.3512e-14
-2.11376e-15
-2.07657e-15
-6.18169e-15
-3.77053e-15
6.94659e-15
1.30104e-16
7.76722e-16
-1.03444e-15
5.37168e-15
-8.69628e-15
-8.72089e-15
-2.97863e-15
-1.40849e-15
2.74065e-15
2.38926e-15
-2.76027e-15
1.59508e-15
-9.92696e-15
-4.73352e-15
2.4014e-15
1.09851e-15
-6.85118e-15
3.96612e-15
3.86074e-15
7.81927e-16
-2.72427e-15
-1.71344e-14
2.9371e-16
5.94934e-15
-8.81185e-15
3.01387e-15
1.39345e-14
-2.1052e-15
-1.26852e-17
1.23451e-14
-5.76525e-15
2.0888e-14
1.7456e-14
-1.54683e-15
6.20543e-15
2.38817e-15
6.60778e-15
1.07358e-15
-2.46407e-15
-2.36063e-15
5.52401e-15
-8.80838e-15
-4.93193e-15
1.0442e-14
7.42364e-15
7.85017e-15
-1.42815e-14
-1.84527e-14
6.07272e-15
-4.05307e-15
9.28251e-15
2.99619e-15
2.40346e-15
-6.58252e-15
-8.57051e-15
-7.93495e-15
-4.30613e-15
-9.17669e-16
8.67644e-15
-5.1518e-15
3.64574e-15
2.8147e-15
4.93854e-16
1.41759e-15
1.10213e-14
1.77961e-14
1.35916e-15
7.1334e-15
1.13939e-15
-2.96074e-15
7.67615e-15
-1.58532e-15
9.09255e-15
-4.73168e-15
-2.88658e-15
-1.90733e-15
2.45702e-15
-5.27508e-15
-8.84557e-15
-1.05699e-14
-1.02826e-15
-1.01069e-15
2.9126e-15
-5.75603e-15
3.05311e-15
-1.20143e-14
-1.45088e-14
1.16769e-15
-5.49517e-15
2.23129e-15
7.9021e-15
-6.54836e-15
-7.83856e-15
2.02377e-15
7.43394e-15
-2.25102e-15
6.20532e-15
-1.01048e-14
3.82593e-15
-2.76233e-15
-4.6753e-15
5.44638e-15
3.26627e-15
-1.45131e-15
-8.40474e-15
-1.40606e-14
1.19089e-14
2.04634e-14
-7.77156e-16
4.0779e-15
8.84275e-16
-1.16489e-14
7.2223e-15
5.34794e-15
3.79406e-15
7.1926e-16
-4.74208e-15
4.67963e-15
-3.36732e-15
2.14542e-15
1.84965e-16
-5.36311e-15
1.05081e-14
-4.54801e-15
-1.17137e-15
-1.23033e-14
2.05955e-15
-3.84306e-15
6.62664e-16
3.35149e-15
-1.14492e-16
-2.50407e-15
-3.61972e-15
1.34955e-14
1.48774e-15
5.60966e-15
-8.04608e-15
3.72966e-16
6.24956e-15
4.95784e-15
1.42768e-15
7.95219e-15
-5.31454e-15
4.50161e-16
-7.56123e-16
5.23453e-16
3.59391e-15
-1.45587e-14
8.22649e-15
4.81819e-16
-4.73189e-15
1.90885e-15
6.80814e-15
4.96478e-15
-8.60358e-15
1.96349e-15
-6.98638e-15
7.64059e-15
2.51925e-15
2.1684e-19
1.37477e-16
-4.54302e-15
-2.94708e-15
3.10234e-15
-2.52402e-16
1.14362e-14
-7.69784e-15
-1.6919e-14
6.85888e-15
-1.45574e-14
-1.07815e-14
4.11455e-15
-1.03305e-14
5.78942e-15
3.71643e-15
4.64689e-16
8.86986e-15
-7.08201e-16
-1.1249e-14
-1.1293e-14
7.31836e-16
-3.75568e-15
-5.29741e-16
1.25052e-15
-3.54317e-16
2.21459e-15
-4.98841e-15
1.73776e-15
1.24228e-15
-2.56609e-15
-3.42391e-15
-2.12504e-17
1.05515e-15
-9.0661e-15
3.23396e-15
-8.40474e-16
1.07349e-14
-3.76305e-15
-2.88224e-15
-5.60359e-15
-4.36153e-15
-1.45066e-15
-3.38618e-15
9.57134e-15
-2.43165e-15
5.57323e-15
1.03515e-14
1.25802e-14
-1.31379e-14
-4.87544e-15
4.02543e-15
6.96231e-15
-9.79078e-15
-8.87051e-15
9.29768e-15
1.03333e-14
-2.56305e-15
1.90082e-15
-1.09578e-14
-6.89162e-15
7.21558e-15
-2.5019e-15
4.75054e-15
-7.70044e-15
2.96204e-15
-6.64486e-15
4.89799e-15
9.61731e-15
-1.11382e-14
1.16244e-14
1.15472e-14
-2.35749e-15
1.31839e-16
-8.70614e-15
-9.09082e-15
1.30972e-16
-8.75125e-15
-1.88174e-15
1.70827e-15
1.09825e-14
2.64112e-15
5.18465e-15
-7.75074e-15
-4.55061e-15
-4.75878e-15
2.39305e-15
7.6922e-15
1.54408e-14
3.42955e-15
2.85449e-15
-3.35062e-15
-7.26112e-15
-7.78023e-16
-4.038e-15
-8.21348e-15
3.44082e-15
6.863e-15
1.00974e-14
8.25295e-16
1.08854e-15
5.91107e-15
-3.2435e-15
7.05989e-15
-7.07073e-15
-4.70891e-15
-1.26323e-14
8.17488e-16
4.20757e-15
5.84732e-15
-7.29668e-15
-1.10402e-14
-2.89048e-15
6.30962e-15
6.0364e-15
-8.93946e-15
-5.4067e-15
1.29501e-14
-2.141e-14
5.17208e-15
-1.91687e-15
2.28029e-15
2.93428e-15
5.37374e-15
8.27333e-15
-4.99774e-15
-4.64602e-15
9.84542e-15
-1.12818e-14
-4.02846e-15
1.27892e-15
-2.10027e-14
2.8328e-15
-7.0677e-15
7.68136e-15
-4.42788e-16
1.08984e-15
-1.84011e-15
4.96521e-15
2.58821e-15
-1.32897e-14
2.23346e-16
1.91479e-14
-9.33021e-15
1.80064e-15
-9.05526e-16
-7.75421e-15
2.38481e-15
-1.41601e-14
-5.50514e-15
4.73666e-15
1.30573e-14
1.90091e-14
1.7035e-15
-5.49994e-15
1.01698e-14
-9.95298e-15
-3.38878e-15
-8.88439e-15
9.79945e-15
3.05311e-16
-5.14172e-15
-1.21257e-15
-1.46532e-14
-8.27463e-15
1.02114e-14
1.95313e-14
-1.60427e-14
-7.41247e-15
-7.58595e-15
6.80792e-15
1.25828e-14
1.52456e-14
1.55249e-14
-1.39264e-14
6.04638e-15
-3.49113e-15
-1.97394e-14
1.39194e-14
-1.54581e-14
4.30732e-15
-8.63892e-15
-4.9509e-15
-1.04795e-14
-7.32574e-15
1.84141e-14
-1.5387e-15
-6.62057e-15
1.36982e-14
9.47159e-15
1.68355e-15
1.52092e-14
-6.56593e-16
7.64753e-15
-1.67054e-15
4.53543e-15
2.49887e-15
4.9136e-15
-1.09635e-15
-1.9533e-15
8.18789e-15
-7.04471e-15
-8.34315e-15
-9.1073e-16
-1.81695e-14
1.45023e-15
1.56593e-14
-1.51138e-14
1.83239e-14
7.8635e-15
-3.24393e-16
-2.35584e-14
-2.59697e-14
-2.1259e-15
5.88071e-16
-1.85876e-15
6.75328e-15
1.66187e-15
1.91427e-15
-1.52881e-14
-5.23626e-15
1.17554e-14
-2.59428e-15
3.21505e-14
3.10689e-15
3.28643e-15
-1.68225e-14
6.27883e-15
1.53384e-14
5.73673e-15
-7.14446e-15
-8.3206e-15
-3.19285e-14
-9.33021e-15
1.93647e-14
2.02963e-16
1.04127e-14
8.88265e-15
-1.56906e-15
1.21934e-14
3.49634e-15
-1.11612e-14
-3.05398e-15
1.57921e-14
1.60896e-15
-6.01776e-15
5.10442e-15
-8.16014e-15
-8.33795e-15
-2.24386e-15
-3.08694e-15
-6.46271e-15
5.32213e-15
2.84408e-15
-2.17361e-15
1.80992e-14
-1.08542e-14
9.32674e-15
-2.54224e-15
6.71511e-15
7.95024e-15
5.31606e-15
6.42281e-15
9.9018e-15
5.26922e-15
-1.63914e-14
-2.95623e-14
-6.54598e-15
-2.01757e-14
-1.67852e-14
-8.37004e-15
1.0103e-14
1.40929e-14
-3.24393e-16
-1.16226e-16
-1.06685e-14
1.64972e-15
-1.82302e-14
7.24767e-15
9.12291e-15
4.83294e-15
-1.83898e-14
8.57994e-15
-1.17198e-14
-2.8276e-16
-7.85656e-15
1.95469e-14
5.31866e-15
-1.15533e-15
-1.66533e-16
1.1522e-14
1.00111e-14
2.61891e-14
7.59462e-15
1.66533e-15
-7.63452e-15
-1.31214e-14
-3.26128e-15
-1.39107e-14
7.57033e-15
-1.03546e-14
4.76875e-15
1.26687e-14
-1.79076e-14
1.72432e-15
9.49935e-15
6.3699e-15
6.74807e-15
3.17454e-16
7.8583e-15
1.21188e-14
6.65613e-15
-5.06539e-16
4.47906e-15
-1.84401e-15
-1.64486e-14
7.58074e-15
-1.87871e-14
2.4182e-15
8.51749e-16
1.0443e-15
1.73993e-15
-9.22526e-15
-5.67081e-15
9.24261e-15
2.19269e-15
1.17267e-15
2.59862e-15
1.31631e-14
1.2686e-14
1.18325e-14
9.87231e-15
-1.57929e-14
1.06755e-14
1.5276e-14
7.86871e-15
3.4122e-15
1.03702e-14
-5.4505e-15
-7.03777e-15
-3.86843e-15
1.53558e-14
-5.75581e-15
-1.08143e-14
1.04586e-14
7.20084e-15
-1.00787e-15
2.51535e-15
-3.35149e-15
-1.47937e-14
-1.33626e-14
-1.62231e-14
-6.34909e-16
3.88405e-15
-1.33383e-14
1.73299e-15
5.33948e-15
2.82066e-15
3.49235e-14
-1.43913e-14
3.40179e-15
-3.34455e-15
-1.38917e-14
4.66814e-15
4.71671e-15
-5.63959e-15
4.67335e-15
-1.05818e-15
3.11209e-15
-1.77098e-14
-3.76435e-15
-5.04631e-15
5.35509e-15
5.58754e-15
1.34198e-14
-1.50747e-15
9.24608e-15
2.1155e-14
-4.96998e-15
-1.41605e-14
-4.11997e-15
-1.21483e-14
6.46011e-15
-1.6093e-14
-1.04135e-14
6.74634e-15
8.05259e-15
-5.38632e-15
-1.86257e-14
-1.1673e-14
-2.66454e-15
-2.27283e-14
9.88445e-15
-9.60343e-15
-2.68188e-15
7.18176e-16
-3.60822e-15
1.39923e-14
2.10179e-14
4.7358e-15
7.26849e-15
-4.36456e-15
-5.2458e-15
2.88658e-15
-1.385e-14
-2.96985e-15
-9.10383e-15
-3.55965e-15
1.21431e-16
1.23547e-14
8.30933e-15
1.82562e-14
-2.50841e-15
-2.08583e-14
9.58955e-15
8.41341e-15
7.81319e-15
-1.19002e-15
-2.92995e-14
8.47933e-15
1.48007e-14
-3.67414e-15
-1.83881e-16
1.11022e-14
-2.43902e-15
1.38431e-14
-4.64212e-15
1.38292e-14
-6.43582e-15
1.12028e-14
-4.19456e-15
1.06859e-15
-7.19563e-15
6.14786e-15
-2.99066e-15
-1.73646e-14
-3.79904e-15
-2.42965e-14
1.84054e-14
1.46341e-14
5.93622e-15
1.27953e-14
-3.02883e-15
1.7944e-14
-1.52725e-14
-1.78538e-14
-1.11126e-14
-8.91648e-16
1.10779e-14
1.42109e-14
1.6695e-14
8.8575e-15
-1.24345e-14
-4.43048e-15
-3.29944e-15
1.19349e-15
1.07275e-14
3.95517e-16
-1.72744e-14
-2.6229e-15
-4.38538e-15
4.32987e-15
2.52923e-15
3.59088e-15
5.34989e-15
6.88685e-15
-2.77556e-17
-4.25354e-15
-2.29677e-15
-5.31866e-15
-8.25728e-15
-7.74381e-15
5.4505e-15
1.10502e-14
-3.20924e-15
-1.32082e-14
-3.50761e-15
1.48145e-14
1.81868e-14
5.05151e-15
-1.011e-14
1.39749e-14
6.37337e-15
-1.18829e-14
2.44943e-15
-7.38645e-15
-8.6528e-15
-1.50192e-14
4.85723e-17
-9.1524e-15
2.73045e-14
-8.573e-15
-2.52229e-15
-8.84709e-15
-1.38778e-15
1.2889e-14
1.21639e-14
2.35575e-15
-1.15359e-14
-1.58415e-14
-5.62397e-15
-3.60822e-16
2.34535e-15
1.89085e-15
2.38073e-14
1.09183e-14
8.70484e-15
4.00374e-15
-1.94358e-14
3.01842e-16
-7.97973e-15
-1.20667e-14
7.38992e-15
-2.19963e-15
1.31423e-14
7.77156e-15
-5.82173e-15
-1.68615e-15
8.31279e-15
6.98747e-15
-2.6576e-15
8.11851e-16
-2.58821e-15
4.02456e-15
-1.47798e-15
-9.08995e-15
1.72778e-15
1.51407e-14
6.76542e-15
2.71311e-15
3.33067e-16
-7.97279e-15
-1.62023e-14
-1.14561e-14
2.87964e-15
8.56953e-15
-6.30052e-15
-9.25648e-15
-2.34465e-14
-5.6552e-15
-3.53884e-16
-6.67522e-15
3.46251e-15
1.02973e-14
7.61891e-15
-1.26288e-15
9.70057e-15
1.38847e-14
-5.16948e-15
1.88044e-15
-2.12677e-14
1.88183e-14
4.43395e-15
1.48492e-15
7.73687e-15
1.51129e-14
-7.88258e-15
1.31423e-14
-5.53724e-15
9.08995e-15
-1.00267e-14
1.00336e-14
-1.04083e-14
-9.22873e-15
-1.46341e-14
-1.34059e-14
-1.58901e-15
-2.69229e-15
2.12191e-14
-2.08236e-14
-1.14145e-14
1.10606e-14
5.06539e-15
-2.25514e-15
-1.2379e-14
2.13024e-15
-1.19696e-14
-6.75154e-15
-6.80012e-15
7.75768e-15
-2.8727e-15
-4.20497e-15
-7.16788e-15
-7.32747e-15
6.89726e-15
3.72619e-15
-9.47853e-15
-1.16435e-14
-5.93969e-15
-4.03844e-15
6.13398e-15
1.86656e-14
8.2781e-15
1.5106e-14
-3.14332e-15
2.21351e-15
4.66988e-15
1.03736e-14
6.89726e-15
1.12479e-14
7.82707e-15
-1.93595e-15
-1.05679e-14
-9.99201e-16
-3.96211e-15
1.93595e-15
-3.69843e-15
1.16573e-15
1.40096e-14
6.21031e-15
5.71071e-15
-1.9082e-15
-8.06299e-15
9.84629e-15
-6.99441e-15
-2.53061e-14
1.31908e-14
-9.96425e-15
5.64826e-15
4.35069e-15
8.09769e-15
-2.27943e-14
1.39402e-14
1.04777e-14
5.4956e-15
1.58554e-14
4.39926e-15
-1.62023e-14
-9.0275e-15
4.30211e-15
9.01362e-15
-3.51802e-15
8.29198e-15
-2.70617e-16
1.65562e-14
-1.69309e-15
2.02408e-14
9.62425e-15
2.7478e-15
-1.76734e-14
-1.07067e-14
6.2797e-15
8.16708e-15
-7.16094e-15
-6.02296e-15
1.34823e-14
-1.75554e-15
5.44009e-15
1.51962e-14
-2.56739e-15
-1.03112e-14
-1.53072e-14
2.2482e-15
-4.64906e-15
4.93355e-15
-1.88044e-15
1.79023e-15
-2.40433e-14
-6.52256e-16
-9.74221e-15
8.90954e-15
2.09555e-15
1.77428e-14
-3.80251e-15
-5.06539e-15
5.56499e-15
-7.06379e-15
-3.747e-16
-9.11771e-15
-6.82787e-15
-4.92661e-16
-5.905e-15
1.53696e-14
-1.53835e-14
-2.76862e-15
1.48909e-14
-1.79301e-14
5.75928e-15
-3.23352e-15
-1.1581e-14
-1.01863e-14
2.61943e-14
-1.4419e-14
-6.61277e-15
-2.27596e-15
-5.78704e-15
-8.63892e-15
9.1524e-15
-6.11317e-15
1.42872e-14
1.15047e-14
1.4988e-15
-1.81244e-14
1.82493e-14
-1.43774e-14
-5.64826e-15
-5.8703e-15
-1.42525e-14
-4.57967e-16
-3.08087e-15
1.249e-15
-5.92582e-15
-9.71445e-16
1.29202e-14
-7.20257e-15
-1.77636e-14
1.00336e-14
6.41154e-15
-2.17742e-14
5.70377e-15
-4.32987e-15
-9.71445e-17
-5.34295e-15
-1.00475e-14
1.06859e-15
5.73153e-15
-2.35922e-15
2.07195e-14
-1.44329e-15
9.38138e-15
-1.89987e-14
-6.8695e-15
-1.63619e-14
7.77156e-15
7.48013e-15
-2.81719e-15
6.8695e-15
-7.81319e-15
2.6229e-15
-5.07927e-15
2.1233e-15
-5.96745e-16
-1.92762e-14
1.98175e-14
6.245e-16
2.16493e-15
1.57097e-14
-5.80092e-15
9.52016e-15
2.04559e-14
1.79995e-14
-1.31423e-14
1.76803e-14
-2.85882e-15
-6.68909e-15
-3.46945e-16
1.0783e-14
-6.32827e-15
1.38639e-14
-1.26704e-14
-1.50852e-14
-6.75848e-15
9.10383e-15
-1.24345e-14
7.35523e-15
-8.20177e-15
5.8703e-15
1.95677e-15
2.90046e-15
6.46705e-15
1.66395e-14
7.68829e-15
-9.54792e-15
1.05471e-15
7.89646e-15
2.08306e-14
2.45637e-15
-6.45317e-15
1.86101e-14
-2.17881e-15
1.52656e-14
2.52576e-15
2.60902e-15
1.14492e-14
-7.95197e-15
8.32667e-17
1.1241e-15
1.81799e-15
-3.46945e-16
8.32667e-17
1.38362e-14
2.34535e-15
-2.8727e-15
-1.49464e-14
-5.16254e-15
-4.16334e-16
4.41314e-15
9.20097e-15
5.27356e-16
2.09555e-15
5.16254e-15
5.25968e-15
8.35443e-15
-1.27814e-14
-6.20337e-15
-5.41234e-15
-6.20337e-15
1.25733e-14
-5.4956e-15
-9.00668e-15
-1.55431e-14
-1.02696e-15
-1.40027e-14
1.26565e-14
1.77081e-14
3.19189e-15
-6.32827e-15
-1.19349e-15
-1.6348e-14
4.16334e-17
8.00748e-15
-2.35922e-16
6.17562e-15
-5.09315e-15
-5.10703e-15
1.79995e-14
-6.89726e-15
9.02056e-15
-9.71445e-16
-1.47105e-15
-5.70377e-15
6.39766e-15
1.23374e-14
-7.88258e-15
-1.13104e-14
-1.37529e-14
-6.68909e-15
-5.41234e-15
1.38778e-15
-1.26704e-14
-2.3509e-14
-2.63678e-15
8.60423e-16
-1.13104e-14
1.16851e-14
-4.55191e-15
4.69069e-15
-5.53724e-15
-9.50628e-15
5.68989e-15
2.08167e-16
-3.63598e-15
4.85723e-16
9.71445e-15
1.81799e-15
2.40086e-15
1.18239e-14
1.79023e-15
-4.08007e-15
7.71605e-15
-9.04832e-15
3.19189e-16
-2.9976e-15
6.48093e-15
1.5779e-14
7.39686e-15
1.04083e-15
-9.14546e-15
-9.29812e-16
2.88658e-15
4.38538e-15
9.54792e-15
-3.4972e-15
-5.09315e-15
-1.63758e-14
-1.66533e-15
-2.498e-15
7.77156e-16
1.05471e-14
1.22957e-14
-2.88658e-15
-3.10862e-15
-1.77219e-14
5.96745e-15
2.18298e-14
-1.62093e-14
2.28983e-15
-1.25872e-14
6.245e-16
-6.73073e-15
-5.55112e-15
-6.1201e-15
-3.27516e-15
1.33643e-14
1.34615e-14
4.71845e-15
4.70457e-15
1.42386e-14
7.17482e-15
1.67921e-14
3.66374e-15
6.99441e-15
-1.65146e-15
6.82787e-15
-9.58955e-15
9.99201e-15
-6.245e-15
1.80689e-14
1.0103e-14
-7.60503e-15
-1.25733e-14
6.45317e-15
3.76088e-15
5.39846e-15
-9.65894e-15
1.04361e-14
-1.54737e-14
-1.31561e-14
-6.98053e-15
-7.54952e-15
7.36911e-15
1.97065e-15
-1.13798e-15
4.02456e-15
-4.27436e-15
2.17881e-15
1.18655e-14
1.60982e-15
2.498e-15
-9.88098e-15
-3.41394e-15
-7.61891e-15
1.94289e-14
-5.96745e-16
7.04992e-15
3.46945e-16
-1.1241e-15
-4.63518e-15
1.13798e-14
-1.49603e-14
-1.08247e-14
-3.60822e-16
1.89015e-14
-8.27116e-15
-2.34535e-14
1.22402e-14
2.10942e-15
1.22402e-14
-3.60822e-16
9.29812e-15
5.55112e-17
-4.02456e-15
1.11855e-14
-1.249e-14
-1.40166e-14
5.55112e-15
-7.04992e-15
5.05151e-15
-7.16094e-15
-3.9968e-15
-1.19349e-15
-7.66054e-15
3.35842e-15
-1.83187e-15
8.65974e-15
-1.10745e-14
-7.21645e-16
-1.26288e-14
-1.06304e-14
1.55431e-15
1.18239e-14
5.63438e-15
-2.60902e-15
-2.41474e-15
7.79932e-15
-8.9373e-15
1.34059e-14
1.80689e-14
1.34615e-14
3.30291e-15
8.60423e-16
6.43929e-15
1.08247e-15
6.35603e-15
-1.44884e-14
-5.55112e-17
-2.19269e-15
3.13638e-15
2.498e-16
1.04639e-14
-2.77556e-17
4.46865e-15
-1.09635e-14
-4.88498e-15
-3.10862e-15
1.249e-15
1.24345e-14
5.07927e-15
-2.15383e-14
2.10942e-15
1.03806e-14
3.44169e-15
-1.13243e-14
1.50435e-14
3.80251e-15
3.94129e-15
-2.77556e-17
4.44089e-16
4.69069e-15
-7.99361e-15
4.996e-16
4.41314e-15
-6.52256e-15
1.69309e-15
1.08524e-14
-3.19189e-15
1.05194e-14
-1.47382e-14
3.44169e-15
2.38698e-15
6.18949e-15
3.33067e-16
-4.996e-16
8.07687e-15
-7.91034e-15
3.60822e-16
6.16174e-15
3.41394e-15
7.91034e-15
1.11022e-16
-1.60982e-14
-1.56819e-14
-2.38698e-15
6.13398e-15
-9.07607e-15
3.16414e-15
-1.97065e-15
-1.80134e-14
-4.996e-15
-3.2474e-15
-6.02296e-15
-1.02696e-15
3.44169e-15
-1.41276e-14
1.56541e-14
6.91114e-15
-1.04916e-14
6.07847e-15
-3.16414e-15
-1.07137e-14
-1.11022e-15
-4.10783e-15
5.71765e-15
-2.77556e-15
-2.47025e-15
3.02536e-15
-1.05471e-14
6.10623e-16
3.9968e-15
1.83187e-15
7.21645e-15
-2.13718e-15
1.17961e-14
-9.4369e-15
1.69309e-15
-6.96665e-15
-1.17961e-14
-1.69864e-14
-4.91274e-15
-9.4369e-16
1.85962e-15
2.05391e-15
9.63118e-15
7.57727e-15
-1.22957e-14
-3.13638e-15
-8.40994e-15
7.85483e-15
-1.47105e-15
-4.10783e-15
-9.21485e-15
-3.2474e-15
-4.91274e-15
-1.33504e-14
4.16334e-15
-1.38778e-15
-1.20182e-14
0
-7.21645e-15
6.05072e-15
1.28231e-14
1.73195e-14
-4.44089e-16
-5.68989e-15
4.27436e-15
-2.83107e-15
-3.02536e-15
1.97065e-15
-1.39055e-14
6.99441e-15
2.05391e-15
-8.88178e-16
-1.00753e-14
1.7375e-14
-4.88498e-15
-2.12885e-14
-1.47105e-15
-7.79932e-15
1.16573e-15
1.249e-15
3.83027e-15
3.85803e-15
3.52496e-15
8.82627e-15
-2.77556e-17
-3.46945e-15
2.66454e-15
-7.49401e-16
5.02376e-15
5.02376e-15
3.69149e-15
-9.99201e-16
-1.29341e-14
4.57967e-15
-2.05391e-15
4.08007e-15
1.59595e-14
1.4877e-14
-1.91513e-15
4.16334e-16
2.66454e-15
7.49401e-16
-7.38298e-15
-1.30451e-14
1.06581e-14