/*--------------------------------*- C++ -*----------------------------------*\
| =========                 |                                                 |
| \\      /  F ield         | foam-extend: Open Source CFD                    |
|  \\    /   O peration     | Version:     4.0                                |
|   \\  /    A nd           | Web:         http://www.foam-extend.org         |
|    \\/     M anipulation  |                                                 |
\*---------------------------------------------------------------------------*/
FoamFile
{
    version     2.0;
    format      ascii;
    class       volScalarField;
    location    "980";
    object      psiE;
}
// * * * * * * * * * * * * * * * * * * * * * * * * * * * * * * * * * * * * * //

dimensions      [0 0 0 0 0 0 0];

internalField   nonuniform List<scalar> 
6960
(
0.365686
0.365707
0.36571
0.36571
0.365709
0.365708
0.365707
0.365706
0.365705
0.365704
0.365704
0.365703
0.365703
0.365702
0.365702
0.365701
0.365701
0.365701
0.365701
0.3657
0.3657
0.3657
0.3657
0.3657
0.3657
0.3657
0.365699
0.365699
0.365699
0.365699
0.365699
0.365699
0.365699
0.365699
0.3657
0.3657
0.3657
0.3657
0.3657
0.3657
0.3657
0.365701
0.365701
0.365701
0.365701
0.365702
0.365702
0.365703
0.365703
0.365704
0.365704
0.365705
0.365706
0.365707
0.365708
0.365709
0.36571
0.36571
0.365707
0.365686
0.941361
0.941432
0.941443
0.941441
0.941437
0.941432
0.941428
0.941425
0.941421
0.941419
0.941416
0.941414
0.941412
0.94141
0.941408
0.941407
0.941406
0.941405
0.941404
0.941403
0.941402
0.941401
0.941401
0.9414
0.9414
0.941399
0.941399
0.941399
0.941399
0.941399
0.941399
0.941399
0.941399
0.941399
0.941399
0.9414
0.9414
0.941401
0.941401
0.941402
0.941403
0.941404
0.941405
0.941406
0.941407
0.941408
0.94141
0.941412
0.941414
0.941416
0.941419
0.941421
0.941425
0.941428
0.941432
0.941437
0.941441
0.941443
0.941432
0.941361
1.4583
1.45842
1.45843
1.45843
1.45842
1.45841
1.4584
1.4584
1.45839
1.45838
1.45838
1.45837
1.45837
1.45837
1.45836
1.45836
1.45836
1.45836
1.45835
1.45835
1.45835
1.45835
1.45835
1.45835
1.45835
1.45835
1.45835
1.45835
1.45835
1.45835
1.45835
1.45835
1.45835
1.45835
1.45835
1.45835
1.45835
1.45835
1.45835
1.45835
1.45835
1.45835
1.45836
1.45836
1.45836
1.45836
1.45837
1.45837
1.45837
1.45838
1.45838
1.45839
1.4584
1.4584
1.45841
1.45842
1.45843
1.45843
1.45842
1.4583
1.93328
1.93343
1.93344
1.93343
1.93342
1.93341
1.93339
1.93338
1.93337
1.93336
1.93336
1.93335
1.93334
1.93334
1.93333
1.93333
1.93333
1.93332
1.93332
1.93332
1.93331
1.93331
1.93331
1.93331
1.93331
1.93331
1.93331
1.9333
1.9333
1.9333
1.9333
1.9333
1.9333
1.93331
1.93331
1.93331
1.93331
1.93331
1.93331
1.93331
1.93332
1.93332
1.93332
1.93333
1.93333
1.93333
1.93334
1.93334
1.93335
1.93336
1.93336
1.93337
1.93338
1.93339
1.93341
1.93342
1.93343
1.93344
1.93343
1.93328
2.36668
2.36684
2.36685
2.36684
2.36681
2.36679
2.36678
2.36676
2.36675
2.36673
2.36672
2.36671
2.36671
2.3667
2.36669
2.36669
2.36668
2.36668
2.36667
2.36667
2.36666
2.36666
2.36666
2.36666
2.36666
2.36665
2.36665
2.36665
2.36665
2.36665
2.36665
2.36665
2.36665
2.36665
2.36665
2.36666
2.36666
2.36666
2.36666
2.36666
2.36667
2.36667
2.36668
2.36668
2.36669
2.36669
2.3667
2.36671
2.36671
2.36672
2.36673
2.36675
2.36676
2.36678
2.36679
2.36681
2.36684
2.36685
2.36684
2.36668
2.75464
2.75478
2.75479
2.75476
2.75473
2.75471
2.75468
2.75466
2.75465
2.75463
2.75462
2.7546
2.75459
2.75458
2.75457
2.75457
2.75456
2.75455
2.75455
2.75454
2.75454
2.75453
2.75453
2.75453
2.75453
2.75452
2.75452
2.75452
2.75452
2.75452
2.75452
2.75452
2.75452
2.75452
2.75452
2.75453
2.75453
2.75453
2.75453
2.75454
2.75454
2.75455
2.75455
2.75456
2.75457
2.75457
2.75458
2.75459
2.7546
2.75462
2.75463
2.75465
2.75466
2.75468
2.75471
2.75473
2.75476
2.75479
2.75478
2.75464
3.0934
3.0935
3.09349
3.09346
3.09342
3.09339
3.09336
3.09334
3.09331
3.09329
3.09328
3.09326
3.09325
3.09324
3.09323
3.09322
3.09321
3.0932
3.09319
3.09319
3.09318
3.09318
3.09317
3.09317
3.09317
3.09317
3.09316
3.09316
3.09316
3.09316
3.09316
3.09316
3.09316
3.09316
3.09317
3.09317
3.09317
3.09317
3.09318
3.09318
3.09319
3.09319
3.0932
3.09321
3.09322
3.09323
3.09324
3.09325
3.09326
3.09328
3.09329
3.09331
3.09334
3.09336
3.09339
3.09342
3.09346
3.09349
3.0935
3.0934
3.38173
3.38178
3.38176
3.38171
3.38167
3.38163
3.3816
3.38157
3.38154
3.38152
3.3815
3.38148
3.38146
3.38145
3.38144
3.38142
3.38142
3.38141
3.3814
3.38139
3.38139
3.38138
3.38138
3.38137
3.38137
3.38137
3.38136
3.38136
3.38136
3.38136
3.38136
3.38136
3.38136
3.38136
3.38137
3.38137
3.38137
3.38138
3.38138
3.38139
3.38139
3.3814
3.38141
3.38142
3.38142
3.38144
3.38145
3.38146
3.38148
3.3815
3.38152
3.38154
3.38157
3.3816
3.38163
3.38167
3.38171
3.38176
3.38178
3.38173
3.62216
3.62216
3.62211
3.62206
3.62201
3.62196
3.62192
3.62189
3.62186
3.62183
3.62181
3.62179
3.62177
3.62176
3.62174
3.62173
3.62172
3.62171
3.6217
3.62169
3.62169
3.62168
3.62168
3.62167
3.62167
3.62166
3.62166
3.62166
3.62166
3.62166
3.62166
3.62166
3.62166
3.62166
3.62166
3.62167
3.62167
3.62168
3.62168
3.62169
3.62169
3.6217
3.62171
3.62172
3.62173
3.62174
3.62176
3.62177
3.62179
3.62181
3.62183
3.62186
3.62189
3.62192
3.62196
3.62201
3.62206
3.62211
3.62216
3.62216
3.8207
3.82064
3.82058
3.82051
3.82046
3.82041
3.82037
3.82033
3.8203
3.82027
3.82024
3.82022
3.8202
3.82018
3.82017
3.82016
3.82014
3.82013
3.82012
3.82011
3.82011
3.8201
3.82009
3.82009
3.82009
3.82008
3.82008
3.82008
3.82008
3.82008
3.82008
3.82008
3.82008
3.82008
3.82008
3.82009
3.82009
3.82009
3.8201
3.82011
3.82011
3.82012
3.82013
3.82014
3.82016
3.82017
3.82018
3.8202
3.82022
3.82024
3.82027
3.8203
3.82033
3.82037
3.82041
3.82046
3.82051
3.82058
3.82064
3.8207
3.9853
3.98519
3.98512
3.98505
3.98499
3.98494
3.98489
3.98485
3.98482
3.98479
3.98476
3.98474
3.98472
3.9847
3.98468
3.98467
3.98465
3.98464
3.98463
3.98462
3.98462
3.98461
3.9846
3.9846
3.98459
3.98459
3.98459
3.98458
3.98458
3.98458
3.98458
3.98458
3.98458
3.98459
3.98459
3.98459
3.9846
3.9846
3.98461
3.98462
3.98462
3.98463
3.98464
3.98465
3.98467
3.98468
3.9847
3.98472
3.98474
3.98476
3.98479
3.98482
3.98485
3.98489
3.98494
3.98499
3.98505
3.98512
3.98519
3.9853
4.12404
4.1239
4.12381
4.12374
4.12368
4.12362
4.12357
4.12353
4.1235
4.12347
4.12344
4.12341
4.12339
4.12337
4.12335
4.12334
4.12333
4.12331
4.1233
4.12329
4.12329
4.12328
4.12327
4.12327
4.12326
4.12326
4.12326
4.12325
4.12325
4.12325
4.12325
4.12325
4.12325
4.12326
4.12326
4.12326
4.12327
4.12327
4.12328
4.12329
4.12329
4.1233
4.12331
4.12333
4.12334
4.12335
4.12337
4.12339
4.12341
4.12344
4.12347
4.1235
4.12353
4.12357
4.12362
4.12368
4.12374
4.12381
4.1239
4.12404
4.24382
4.24366
4.24356
4.24348
4.24342
4.24336
4.24331
4.24327
4.24323
4.2432
4.24317
4.24314
4.24312
4.2431
4.24308
4.24307
4.24305
4.24304
4.24303
4.24302
4.24301
4.24301
4.243
4.24299
4.24299
4.24299
4.24298
4.24298
4.24298
4.24298
4.24298
4.24298
4.24298
4.24298
4.24299
4.24299
4.24299
4.243
4.24301
4.24301
4.24302
4.24303
4.24304
4.24305
4.24307
4.24308
4.2431
4.24312
4.24314
4.24317
4.2432
4.24323
4.24327
4.24331
4.24336
4.24342
4.24348
4.24356
4.24366
4.24382
4.3499
4.34972
4.34962
4.34954
4.34947
4.34941
4.34936
4.34932
4.34928
4.34925
4.34922
4.34919
4.34917
4.34915
4.34913
4.34911
4.3491
4.34909
4.34908
4.34907
4.34906
4.34905
4.34904
4.34904
4.34903
4.34903
4.34903
4.34902
4.34902
4.34902
4.34902
4.34902
4.34902
4.34903
4.34903
4.34903
4.34904
4.34904
4.34905
4.34906
4.34907
4.34908
4.34909
4.3491
4.34911
4.34913
4.34915
4.34917
4.34919
4.34922
4.34925
4.34928
4.34932
4.34936
4.34941
4.34947
4.34954
4.34962
4.34972
4.3499
4.44602
4.44584
4.44573
4.44565
4.44558
4.44552
4.44547
4.44543
4.44539
4.44536
4.44533
4.4453
4.44528
4.44526
4.44524
4.44522
4.44521
4.44519
4.44518
4.44517
4.44516
4.44516
4.44515
4.44514
4.44514
4.44514
4.44513
4.44513
4.44513
4.44513
4.44513
4.44513
4.44513
4.44513
4.44514
4.44514
4.44514
4.44515
4.44516
4.44516
4.44517
4.44518
4.44519
4.44521
4.44522
4.44524
4.44526
4.44528
4.4453
4.44533
4.44536
4.44539
4.44543
4.44547
4.44552
4.44558
4.44565
4.44573
4.44584
4.44602
4.5348
4.53461
4.5345
4.53442
4.53435
4.53429
4.53424
4.53419
4.53415
4.53412
4.53409
4.53406
4.53404
4.53402
4.534
4.53398
4.53397
4.53395
4.53394
4.53393
4.53392
4.53391
4.53391
4.5339
4.5339
4.53389
4.53389
4.53389
4.53389
4.53388
4.53388
4.53389
4.53389
4.53389
4.53389
4.5339
4.5339
4.53391
4.53391
4.53392
4.53393
4.53394
4.53395
4.53397
4.53398
4.534
4.53402
4.53404
4.53406
4.53409
4.53412
4.53415
4.53419
4.53424
4.53429
4.53435
4.53442
4.5345
4.53461
4.5348
4.61801
4.61782
4.61771
4.61762
4.61755
4.61749
4.61744
4.6174
4.61736
4.61732
4.61729
4.61727
4.61724
4.61722
4.6172
4.61719
4.61717
4.61716
4.61715
4.61714
4.61713
4.61712
4.61711
4.61711
4.6171
4.6171
4.61709
4.61709
4.61709
4.61709
4.61709
4.61709
4.61709
4.61709
4.6171
4.6171
4.61711
4.61711
4.61712
4.61713
4.61714
4.61715
4.61716
4.61717
4.61719
4.6172
4.61722
4.61724
4.61727
4.61729
4.61732
4.61736
4.6174
4.61744
4.61749
4.61755
4.61762
4.61771
4.61782
4.61801
4.69694
4.69675
4.69664
4.69655
4.69648
4.69642
4.69637
4.69632
4.69628
4.69625
4.69622
4.69619
4.69616
4.69614
4.69612
4.69611
4.69609
4.69608
4.69607
4.69606
4.69605
4.69604
4.69603
4.69603
4.69602
4.69602
4.69601
4.69601
4.69601
4.69601
4.69601
4.69601
4.69601
4.69601
4.69602
4.69602
4.69603
4.69603
4.69604
4.69605
4.69606
4.69607
4.69608
4.69609
4.69611
4.69612
4.69614
4.69616
4.69619
4.69622
4.69625
4.69628
4.69632
4.69637
4.69642
4.69648
4.69655
4.69664
4.69675
4.69694
4.77252
4.77233
4.77221
4.77212
4.77205
4.77199
4.77194
4.77189
4.77185
4.77182
4.77179
4.77176
4.77174
4.77171
4.77169
4.77168
4.77166
4.77165
4.77164
4.77163
4.77162
4.77161
4.7716
4.7716
4.77159
4.77159
4.77158
4.77158
4.77158
4.77158
4.77158
4.77158
4.77158
4.77158
4.77159
4.77159
4.7716
4.7716
4.77161
4.77162
4.77163
4.77164
4.77165
4.77166
4.77168
4.77169
4.77171
4.77174
4.77176
4.77179
4.77182
4.77185
4.77189
4.77194
4.77199
4.77205
4.77212
4.77221
4.77233
4.77252
4.84544
4.84526
4.84514
4.84505
4.84498
4.84492
4.84487
4.84482
4.84478
4.84474
4.84471
4.84469
4.84466
4.84464
4.84462
4.8446
4.84459
4.84457
4.84456
4.84455
4.84454
4.84453
4.84453
4.84452
4.84452
4.84451
4.84451
4.84451
4.8445
4.8445
4.8445
4.8445
4.84451
4.84451
4.84451
4.84452
4.84452
4.84453
4.84453
4.84454
4.84455
4.84456
4.84457
4.84459
4.8446
4.84462
4.84464
4.84466
4.84469
4.84471
4.84474
4.84478
4.84482
4.84487
4.84492
4.84498
4.84505
4.84514
4.84526
4.84544
4.91628
4.91609
4.91597
4.91588
4.91581
4.91575
4.9157
4.91565
4.91561
4.91557
4.91554
4.91552
4.91549
4.91547
4.91545
4.91543
4.91542
4.9154
4.91539
4.91538
4.91537
4.91536
4.91536
4.91535
4.91535
4.91534
4.91534
4.91534
4.91533
4.91533
4.91533
4.91533
4.91534
4.91534
4.91534
4.91535
4.91535
4.91536
4.91536
4.91537
4.91538
4.91539
4.9154
4.91542
4.91543
4.91545
4.91547
4.91549
4.91552
4.91554
4.91557
4.91561
4.91565
4.9157
4.91575
4.91581
4.91588
4.91597
4.91609
4.91628
4.98545
4.98527
4.98515
4.98506
4.98499
4.98493
4.98487
4.98483
4.98479
4.98475
4.98472
4.98469
4.98467
4.98465
4.98463
4.98461
4.98459
4.98458
4.98457
4.98456
4.98455
4.98454
4.98453
4.98453
4.98452
4.98452
4.98451
4.98451
4.98451
4.98451
4.98451
4.98451
4.98451
4.98451
4.98452
4.98452
4.98453
4.98453
4.98454
4.98455
4.98456
4.98457
4.98458
4.98459
4.98461
4.98463
4.98465
4.98467
4.98469
4.98472
4.98475
4.98479
4.98483
4.98487
4.98493
4.98499
4.98506
4.98515
4.98527
4.98545
5.05334
5.05316
5.05304
5.05295
5.05288
5.05282
5.05276
5.05272
5.05268
5.05264
5.05261
5.05258
5.05256
5.05253
5.05251
5.0525
5.05248
5.05247
5.05246
5.05245
5.05244
5.05243
5.05242
5.05241
5.05241
5.05241
5.0524
5.0524
5.0524
5.0524
5.0524
5.0524
5.0524
5.0524
5.05241
5.05241
5.05241
5.05242
5.05243
5.05244
5.05245
5.05246
5.05247
5.05248
5.0525
5.05251
5.05253
5.05256
5.05258
5.05261
5.05264
5.05268
5.05272
5.05276
5.05282
5.05288
5.05295
5.05304
5.05316
5.05334
5.12024
5.12006
5.11994
5.11985
5.11978
5.11972
5.11966
5.11962
5.11958
5.11954
5.11951
5.11948
5.11946
5.11944
5.11942
5.1194
5.11938
5.11937
5.11936
5.11935
5.11934
5.11933
5.11932
5.11931
5.11931
5.11931
5.1193
5.1193
5.1193
5.1193
5.1193
5.1193
5.1193
5.1193
5.11931
5.11931
5.11931
5.11932
5.11933
5.11934
5.11935
5.11936
5.11937
5.11938
5.1194
5.11942
5.11944
5.11946
5.11948
5.11951
5.11954
5.11958
5.11962
5.11966
5.11972
5.11978
5.11985
5.11994
5.12006
5.12024
5.18641
5.18623
5.18611
5.18602
5.18595
5.18589
5.18584
5.18579
5.18575
5.18571
5.18568
5.18565
5.18563
5.18561
5.18559
5.18557
5.18556
5.18554
5.18553
5.18552
5.18551
5.1855
5.18549
5.18549
5.18548
5.18548
5.18547
5.18547
5.18547
5.18547
5.18547
5.18547
5.18547
5.18547
5.18548
5.18548
5.18549
5.18549
5.1855
5.18551
5.18552
5.18553
5.18554
5.18556
5.18557
5.18559
5.18561
5.18563
5.18565
5.18568
5.18571
5.18575
5.18579
5.18584
5.18589
5.18595
5.18602
5.18611
5.18623
5.18641
5.25207
5.2519
5.25178
5.25169
5.25162
5.25156
5.25151
5.25146
5.25142
5.25138
5.25135
5.25132
5.2513
5.25128
5.25126
5.25124
5.25122
5.25121
5.2512
5.25119
5.25118
5.25117
5.25116
5.25115
5.25115
5.25115
5.25114
5.25114
5.25114
5.25114
5.25114
5.25114
5.25114
5.25114
5.25115
5.25115
5.25115
5.25116
5.25117
5.25118
5.25119
5.2512
5.25121
5.25122
5.25124
5.25126
5.25128
5.2513
5.25132
5.25135
5.25138
5.25142
5.25146
5.25151
5.25156
5.25162
5.25169
5.25178
5.2519
5.25207
5.31743
5.31726
5.31714
5.31705
5.31698
5.31692
5.31687
5.31682
5.31678
5.31674
5.31671
5.31668
5.31666
5.31664
5.31662
5.3166
5.31658
5.31657
5.31656
5.31655
5.31654
5.31653
5.31652
5.31651
5.31651
5.3165
5.3165
5.3165
5.3165
5.3165
5.3165
5.3165
5.3165
5.3165
5.3165
5.31651
5.31651
5.31652
5.31653
5.31654
5.31655
5.31656
5.31657
5.31658
5.3166
5.31662
5.31664
5.31666
5.31668
5.31671
5.31674
5.31678
5.31682
5.31687
5.31692
5.31698
5.31705
5.31714
5.31726
5.31743
5.38265
5.38249
5.38237
5.38228
5.38221
5.38214
5.38209
5.38204
5.382
5.38197
5.38194
5.38191
5.38188
5.38186
5.38184
5.38182
5.38181
5.38179
5.38178
5.38177
5.38176
5.38175
5.38174
5.38174
5.38173
5.38173
5.38173
5.38172
5.38172
5.38172
5.38172
5.38172
5.38172
5.38173
5.38173
5.38173
5.38174
5.38174
5.38175
5.38176
5.38177
5.38178
5.38179
5.38181
5.38182
5.38184
5.38186
5.38188
5.38191
5.38194
5.38197
5.382
5.38204
5.38209
5.38214
5.38221
5.38228
5.38237
5.38249
5.38265
5.44789
5.44773
5.44761
5.44753
5.44745
5.44739
5.44734
5.44729
5.44725
5.44722
5.44718
5.44716
5.44713
5.44711
5.44709
5.44707
5.44705
5.44704
5.44703
5.44702
5.44701
5.447
5.44699
5.44699
5.44698
5.44698
5.44697
5.44697
5.44697
5.44697
5.44697
5.44697
5.44697
5.44697
5.44698
5.44698
5.44699
5.44699
5.447
5.44701
5.44702
5.44703
5.44704
5.44705
5.44707
5.44709
5.44711
5.44713
5.44716
5.44718
5.44722
5.44725
5.44729
5.44734
5.44739
5.44745
5.44753
5.44761
5.44773
5.44789
5.5133
5.51315
5.51303
5.51294
5.51287
5.51281
5.51275
5.51271
5.51266
5.51263
5.5126
5.51257
5.51254
5.51252
5.5125
5.51248
5.51247
5.51245
5.51244
5.51243
5.51242
5.51241
5.5124
5.5124
5.51239
5.51239
5.51239
5.51238
5.51238
5.51238
5.51238
5.51238
5.51238
5.51239
5.51239
5.51239
5.5124
5.5124
5.51241
5.51242
5.51243
5.51244
5.51245
5.51247
5.51248
5.5125
5.51252
5.51254
5.51257
5.5126
5.51263
5.51266
5.51271
5.51275
5.51281
5.51287
5.51294
5.51303
5.51315
5.5133
5.579
5.57885
5.57874
5.57865
5.57858
5.57852
5.57846
5.57842
5.57837
5.57834
5.57831
5.57828
5.57825
5.57823
5.57821
5.57819
5.57818
5.57816
5.57815
5.57814
5.57813
5.57812
5.57811
5.57811
5.5781
5.5781
5.5781
5.57809
5.57809
5.57809
5.57809
5.57809
5.57809
5.5781
5.5781
5.5781
5.57811
5.57811
5.57812
5.57813
5.57814
5.57815
5.57816
5.57818
5.57819
5.57821
5.57823
5.57825
5.57828
5.57831
5.57834
5.57837
5.57842
5.57846
5.57852
5.57858
5.57865
5.57874
5.57885
5.579
5.64512
5.64498
5.64487
5.64478
5.64471
5.64464
5.64459
5.64455
5.6445
5.64447
5.64444
5.64441
5.64438
5.64436
5.64434
5.64432
5.64431
5.64429
5.64428
5.64427
5.64426
5.64425
5.64424
5.64424
5.64423
5.64423
5.64422
5.64422
5.64422
5.64422
5.64422
5.64422
5.64422
5.64422
5.64423
5.64423
5.64424
5.64424
5.64425
5.64426
5.64427
5.64428
5.64429
5.64431
5.64432
5.64434
5.64436
5.64438
5.64441
5.64444
5.64447
5.6445
5.64455
5.64459
5.64464
5.64471
5.64478
5.64487
5.64498
5.64512
5.71178
5.71164
5.71153
5.71144
5.71137
5.71131
5.71126
5.71121
5.71117
5.71113
5.7111
5.71107
5.71105
5.71102
5.711
5.71099
5.71097
5.71096
5.71094
5.71093
5.71092
5.71091
5.71091
5.7109
5.7109
5.71089
5.71089
5.71088
5.71088
5.71088
5.71088
5.71088
5.71088
5.71089
5.71089
5.7109
5.7109
5.71091
5.71091
5.71092
5.71093
5.71094
5.71096
5.71097
5.71099
5.711
5.71102
5.71105
5.71107
5.7111
5.71113
5.71117
5.71121
5.71126
5.71131
5.71137
5.71144
5.71153
5.71164
5.71178
5.77908
5.77895
5.77883
5.77875
5.77868
5.77861
5.77856
5.77852
5.77847
5.77844
5.77841
5.77838
5.77835
5.77833
5.77831
5.77829
5.77828
5.77826
5.77825
5.77824
5.77823
5.77822
5.77821
5.77821
5.7782
5.7782
5.77819
5.77819
5.77819
5.77819
5.77819
5.77819
5.77819
5.77819
5.7782
5.7782
5.77821
5.77821
5.77822
5.77823
5.77824
5.77825
5.77826
5.77828
5.77829
5.77831
5.77833
5.77835
5.77838
5.77841
5.77844
5.77847
5.77852
5.77856
5.77861
5.77868
5.77875
5.77883
5.77895
5.77908
5.84713
5.847
5.84689
5.8468
5.84673
5.84667
5.84661
5.84657
5.84653
5.84649
5.84646
5.84643
5.84641
5.84638
5.84636
5.84634
5.84633
5.84631
5.8463
5.84629
5.84628
5.84627
5.84627
5.84626
5.84625
5.84625
5.84625
5.84624
5.84624
5.84624
5.84624
5.84624
5.84624
5.84625
5.84625
5.84625
5.84626
5.84627
5.84627
5.84628
5.84629
5.8463
5.84631
5.84633
5.84634
5.84636
5.84638
5.84641
5.84643
5.84646
5.84649
5.84653
5.84657
5.84661
5.84667
5.84673
5.8468
5.84689
5.847
5.84713
5.91602
5.91589
5.91578
5.9157
5.91563
5.91557
5.91551
5.91547
5.91543
5.91539
5.91536
5.91533
5.9153
5.91528
5.91526
5.91524
5.91523
5.91521
5.9152
5.91519
5.91518
5.91517
5.91516
5.91516
5.91515
5.91515
5.91514
5.91514
5.91514
5.91514
5.91514
5.91514
5.91514
5.91514
5.91515
5.91515
5.91516
5.91516
5.91517
5.91518
5.91519
5.9152
5.91521
5.91523
5.91524
5.91526
5.91528
5.9153
5.91533
5.91536
5.91539
5.91543
5.91547
5.91551
5.91557
5.91563
5.9157
5.91578
5.91589
5.91602
5.98585
5.98573
5.98562
5.98554
5.98547
5.98541
5.98535
5.98531
5.98527
5.98523
5.9852
5.98517
5.98515
5.98512
5.9851
5.98509
5.98507
5.98505
5.98504
5.98503
5.98502
5.98501
5.98501
5.985
5.98499
5.98499
5.98499
5.98498
5.98498
5.98498
5.98498
5.98498
5.98498
5.98499
5.98499
5.98499
5.985
5.98501
5.98501
5.98502
5.98503
5.98504
5.98505
5.98507
5.98509
5.9851
5.98512
5.98515
5.98517
5.9852
5.98523
5.98527
5.98531
5.98535
5.98541
5.98547
5.98554
5.98562
5.98573
5.98585
6.05672
6.05661
6.0565
6.05642
6.05634
6.05628
6.05623
6.05619
6.05615
6.05611
6.05608
6.05605
6.05602
6.056
6.05598
6.05596
6.05595
6.05593
6.05592
6.05591
6.0559
6.05589
6.05588
6.05588
6.05587
6.05587
6.05586
6.05586
6.05586
6.05586
6.05586
6.05586
6.05586
6.05586
6.05587
6.05587
6.05588
6.05588
6.05589
6.0559
6.05591
6.05592
6.05593
6.05595
6.05596
6.05598
6.056
6.05602
6.05605
6.05608
6.05611
6.05615
6.05619
6.05623
6.05628
6.05634
6.05642
6.0565
6.05661
6.05672
6.12872
6.12861
6.12851
6.12842
6.12835
6.12829
6.12824
6.12819
6.12815
6.12812
6.12808
6.12806
6.12803
6.12801
6.12799
6.12797
6.12795
6.12794
6.12793
6.12791
6.12791
6.1279
6.12789
6.12788
6.12788
6.12787
6.12787
6.12787
6.12786
6.12786
6.12786
6.12786
6.12787
6.12787
6.12787
6.12788
6.12788
6.12789
6.1279
6.12791
6.12791
6.12793
6.12794
6.12795
6.12797
6.12799
6.12801
6.12803
6.12806
6.12808
6.12812
6.12815
6.12819
6.12824
6.12829
6.12835
6.12842
6.12851
6.12861
6.12872
6.20194
6.20183
6.20173
6.20164
6.20157
6.20151
6.20146
6.20142
6.20138
6.20134
6.20131
6.20128
6.20126
6.20123
6.20121
6.20119
6.20118
6.20116
6.20115
6.20114
6.20113
6.20112
6.20111
6.20111
6.2011
6.2011
6.20109
6.20109
6.20109
6.20109
6.20109
6.20109
6.20109
6.20109
6.2011
6.2011
6.20111
6.20111
6.20112
6.20113
6.20114
6.20115
6.20116
6.20118
6.20119
6.20121
6.20123
6.20126
6.20128
6.20131
6.20134
6.20138
6.20142
6.20146
6.20151
6.20157
6.20164
6.20173
6.20183
6.20194
6.27647
6.27636
6.27626
6.27618
6.27611
6.27605
6.276
6.27595
6.27591
6.27587
6.27584
6.27581
6.27579
6.27577
6.27575
6.27573
6.27571
6.2757
6.27568
6.27567
6.27566
6.27565
6.27565
6.27564
6.27563
6.27563
6.27563
6.27562
6.27562
6.27562
6.27562
6.27562
6.27562
6.27563
6.27563
6.27563
6.27564
6.27565
6.27565
6.27566
6.27567
6.27568
6.2757
6.27571
6.27573
6.27575
6.27577
6.27579
6.27581
6.27584
6.27587
6.27591
6.27595
6.276
6.27605
6.27611
6.27618
6.27626
6.27636
6.27647
6.35239
6.35229
6.35219
6.35211
6.35204
6.35198
6.35193
6.35188
6.35184
6.3518
6.35177
6.35174
6.35172
6.3517
6.35168
6.35166
6.35164
6.35163
6.35161
6.3516
6.35159
6.35158
6.35158
6.35157
6.35156
6.35156
6.35156
6.35155
6.35155
6.35155
6.35155
6.35155
6.35155
6.35156
6.35156
6.35156
6.35157
6.35158
6.35158
6.35159
6.3516
6.35161
6.35163
6.35164
6.35166
6.35168
6.3517
6.35172
6.35174
6.35177
6.3518
6.35184
6.35188
6.35193
6.35198
6.35204
6.35211
6.35219
6.35229
6.35239
6.4298
6.4297
6.4296
6.42952
6.42945
6.42939
6.42934
6.42929
6.42925
6.42922
6.42919
6.42916
6.42913
6.42911
6.42909
6.42907
6.42906
6.42904
6.42903
6.42902
6.42901
6.429
6.42899
6.42898
6.42898
6.42897
6.42897
6.42897
6.42897
6.42897
6.42897
6.42897
6.42897
6.42897
6.42897
6.42898
6.42898
6.42899
6.429
6.42901
6.42902
6.42903
6.42904
6.42906
6.42907
6.42909
6.42911
6.42913
6.42916
6.42919
6.42922
6.42925
6.42929
6.42934
6.42939
6.42945
6.42952
6.4296
6.4297
6.4298
6.50878
6.50868
6.50859
6.50851
6.50844
6.50838
6.50833
6.50828
6.50824
6.50821
6.50817
6.50815
6.50812
6.5081
6.50808
6.50806
6.50804
6.50803
6.50802
6.50801
6.508
6.50799
6.50798
6.50797
6.50797
6.50796
6.50796
6.50796
6.50795
6.50795
6.50795
6.50795
6.50796
6.50796
6.50796
6.50797
6.50797
6.50798
6.50799
6.508
6.50801
6.50802
6.50803
6.50804
6.50806
6.50808
6.5081
6.50812
6.50815
6.50817
6.50821
6.50824
6.50828
6.50833
6.50838
6.50844
6.50851
6.50859
6.50868
6.50878
6.58942
6.58933
6.58923
6.58915
6.58909
6.58903
6.58898
6.58893
6.58889
6.58886
6.58882
6.5888
6.58877
6.58875
6.58873
6.58871
6.58869
6.58868
6.58867
6.58865
6.58864
6.58864
6.58863
6.58862
6.58862
6.58861
6.58861
6.58861
6.5886
6.5886
6.5886
6.5886
6.58861
6.58861
6.58861
6.58862
6.58862
6.58863
6.58864
6.58864
6.58865
6.58867
6.58868
6.58869
6.58871
6.58873
6.58875
6.58877
6.5888
6.58882
6.58886
6.58889
6.58893
6.58898
6.58903
6.58909
6.58915
6.58923
6.58933
6.58942
6.67181
6.67172
6.67163
6.67155
6.67148
6.67143
6.67137
6.67133
6.67129
6.67125
6.67122
6.6712
6.67117
6.67115
6.67113
6.67111
6.67109
6.67108
6.67107
6.67105
6.67104
6.67104
6.67103
6.67102
6.67102
6.67101
6.67101
6.67101
6.671
6.671
6.671
6.671
6.67101
6.67101
6.67101
6.67102
6.67102
6.67103
6.67104
6.67104
6.67105
6.67107
6.67108
6.67109
6.67111
6.67113
6.67115
6.67117
6.6712
6.67122
6.67125
6.67129
6.67133
6.67137
6.67143
6.67148
6.67155
6.67163
6.67172
6.67181
6.75604
6.75596
6.75587
6.75579
6.75572
6.75566
6.75561
6.75557
6.75553
6.75549
6.75546
6.75543
6.75541
6.75539
6.75537
6.75535
6.75533
6.75532
6.7553
6.75529
6.75528
6.75527
6.75527
6.75526
6.75525
6.75525
6.75525
6.75524
6.75524
6.75524
6.75524
6.75524
6.75524
6.75525
6.75525
6.75525
6.75526
6.75527
6.75527
6.75528
6.75529
6.7553
6.75532
6.75533
6.75535
6.75537
6.75539
6.75541
6.75543
6.75546
6.75549
6.75553
6.75557
6.75561
6.75566
6.75572
6.75579
6.75587
6.75596
6.75604
6.8422
6.84212
6.84203
6.84195
6.84189
6.84183
6.84178
6.84174
6.8417
6.84166
6.84163
6.8416
6.84158
6.84155
6.84153
6.84152
6.8415
6.84148
6.84147
6.84146
6.84145
6.84144
6.84143
6.84143
6.84142
6.84142
6.84141
6.84141
6.84141
6.84141
6.84141
6.84141
6.84141
6.84141
6.84142
6.84142
6.84143
6.84143
6.84144
6.84145
6.84146
6.84147
6.84148
6.8415
6.84152
6.84153
6.84155
6.84158
6.8416
6.84163
6.84166
6.8417
6.84174
6.84178
6.84183
6.84189
6.84195
6.84203
6.84212
6.8422
6.93038
6.9303
6.93022
6.93014
6.93007
6.93002
6.92997
6.92992
6.92988
6.92985
6.92982
6.92979
6.92976
6.92974
6.92972
6.9297
6.92969
6.92967
6.92966
6.92965
6.92964
6.92963
6.92962
6.92962
6.92961
6.92961
6.9296
6.9296
6.9296
6.9296
6.9296
6.9296
6.9296
6.9296
6.92961
6.92961
6.92962
6.92962
6.92963
6.92964
6.92965
6.92966
6.92967
6.92969
6.9297
6.92972
6.92974
6.92976
6.92979
6.92982
6.92985
6.92988
6.92992
6.92997
6.93002
6.93007
6.93014
6.93022
6.9303
6.93038
7.02067
7.0206
7.02051
7.02044
7.02037
7.02032
7.02027
7.02022
7.02018
7.02015
7.02012
7.02009
7.02006
7.02004
7.02002
7.02
7.01999
7.01997
7.01996
7.01995
7.01994
7.01993
7.01992
7.01992
7.01991
7.01991
7.0199
7.0199
7.0199
7.0199
7.0199
7.0199
7.0199
7.0199
7.01991
7.01991
7.01992
7.01992
7.01993
7.01994
7.01995
7.01996
7.01997
7.01999
7.02
7.02002
7.02004
7.02006
7.02009
7.02012
7.02015
7.02018
7.02022
7.02027
7.02032
7.02037
7.02044
7.02051
7.0206
7.02067
7.11316
7.1131
7.11301
7.11294
7.11288
7.11282
7.11277
7.11273
7.11269
7.11265
7.11262
7.1126
7.11257
7.11255
7.11253
7.11251
7.11249
7.11248
7.11247
7.11245
7.11244
7.11244
7.11243
7.11242
7.11242
7.11241
7.11241
7.11241
7.1124
7.1124
7.1124
7.1124
7.11241
7.11241
7.11241
7.11242
7.11242
7.11243
7.11244
7.11244
7.11245
7.11247
7.11248
7.11249
7.11251
7.11253
7.11255
7.11257
7.1126
7.11262
7.11265
7.11269
7.11273
7.11277
7.11282
7.11288
7.11294
7.11301
7.1131
7.11316
7.20796
7.20789
7.20782
7.20774
7.20768
7.20762
7.20758
7.20753
7.20749
7.20746
7.20743
7.2074
7.20738
7.20735
7.20733
7.20732
7.2073
7.20728
7.20727
7.20726
7.20725
7.20724
7.20723
7.20723
7.20722
7.20722
7.20721
7.20721
7.20721
7.20721
7.20721
7.20721
7.20721
7.20721
7.20722
7.20722
7.20723
7.20723
7.20724
7.20725
7.20726
7.20727
7.20728
7.2073
7.20732
7.20733
7.20735
7.20738
7.2074
7.20743
7.20746
7.20749
7.20753
7.20758
7.20762
7.20768
7.20774
7.20782
7.20789
7.20796
7.30515
7.30509
7.30501
7.30494
7.30488
7.30483
7.30478
7.30473
7.3047
7.30466
7.30463
7.3046
7.30458
7.30456
7.30454
7.30452
7.3045
7.30449
7.30447
7.30446
7.30445
7.30444
7.30444
7.30443
7.30442
7.30442
7.30442
7.30441
7.30441
7.30441
7.30441
7.30441
7.30441
7.30442
7.30442
7.30442
7.30443
7.30444
7.30444
7.30445
7.30446
7.30447
7.30449
7.3045
7.30452
7.30454
7.30456
7.30458
7.3046
7.30463
7.30466
7.3047
7.30473
7.30478
7.30483
7.30488
7.30494
7.30501
7.30509
7.30515
7.40484
7.40478
7.4047
7.40463
7.40457
7.40452
7.40447
7.40443
7.40439
7.40436
7.40433
7.4043
7.40427
7.40425
7.40423
7.40421
7.4042
7.40418
7.40417
7.40416
7.40415
7.40414
7.40413
7.40412
7.40412
7.40411
7.40411
7.40411
7.40411
7.40411
7.40411
7.40411
7.40411
7.40411
7.40411
7.40412
7.40412
7.40413
7.40414
7.40415
7.40416
7.40417
7.40418
7.4042
7.40421
7.40423
7.40425
7.40427
7.4043
7.40433
7.40436
7.40439
7.40443
7.40447
7.40452
7.40457
7.40463
7.4047
7.40478
7.40484
7.50712
7.50706
7.50699
7.50692
7.50686
7.50681
7.50676
7.50672
7.50668
7.50664
7.50661
7.50659
7.50656
7.50654
7.50652
7.5065
7.50648
7.50647
7.50646
7.50645
7.50644
7.50643
7.50642
7.50641
7.50641
7.5064
7.5064
7.5064
7.50639
7.50639
7.50639
7.50639
7.5064
7.5064
7.5064
7.50641
7.50641
7.50642
7.50643
7.50644
7.50645
7.50646
7.50647
7.50648
7.5065
7.50652
7.50654
7.50656
7.50659
7.50661
7.50664
7.50668
7.50672
7.50676
7.50681
7.50686
7.50692
7.50699
7.50706
7.50712
7.61209
7.61204
7.61197
7.6119
7.61184
7.61179
7.61174
7.6117
7.61166
7.61163
7.6116
7.61157
7.61154
7.61152
7.6115
7.61148
7.61147
7.61145
7.61144
7.61143
7.61142
7.61141
7.6114
7.6114
7.61139
7.61139
7.61138
7.61138
7.61138
7.61138
7.61138
7.61138
7.61138
7.61138
7.61139
7.61139
7.6114
7.6114
7.61141
7.61142
7.61143
7.61144
7.61145
7.61147
7.61148
7.6115
7.61152
7.61154
7.61157
7.6116
7.61163
7.61166
7.6117
7.61174
7.61179
7.61184
7.6119
7.61197
7.61204
7.61209
7.71986
7.71981
7.71974
7.71968
7.71962
7.71956
7.71952
7.71948
7.71944
7.71941
7.71938
7.71935
7.71932
7.7193
7.71928
7.71926
7.71925
7.71923
7.71922
7.71921
7.7192
7.71919
7.71918
7.71918
7.71917
7.71917
7.71916
7.71916
7.71916
7.71916
7.71916
7.71916
7.71916
7.71916
7.71917
7.71917
7.71918
7.71918
7.71919
7.7192
7.71921
7.71922
7.71923
7.71925
7.71926
7.71928
7.7193
7.71932
7.71935
7.71938
7.71941
7.71944
7.71948
7.71952
7.71956
7.71962
7.71968
7.71974
7.71981
7.71986
7.83053
7.83048
7.83042
7.83035
7.8303
7.83025
7.8302
7.83016
7.83012
7.83009
7.83006
7.83003
7.83001
7.82999
7.82997
7.82995
7.82993
7.82992
7.8299
7.82989
7.82988
7.82987
7.82987
7.82986
7.82985
7.82985
7.82985
7.82984
7.82984
7.82984
7.82984
7.82984
7.82984
7.82985
7.82985
7.82985
7.82986
7.82987
7.82987
7.82988
7.82989
7.8299
7.82992
7.82993
7.82995
7.82997
7.82999
7.83001
7.83003
7.83006
7.83009
7.83012
7.83016
7.8302
7.83025
7.8303
7.83035
7.83042
7.83048
7.83053
7.94422
7.94417
7.94411
7.94404
7.94399
7.94394
7.94389
7.94385
7.94381
7.94378
7.94375
7.94372
7.9437
7.94368
7.94366
7.94364
7.94362
7.94361
7.9436
7.94359
7.94358
7.94357
7.94356
7.94355
7.94355
7.94354
7.94354
7.94354
7.94353
7.94353
7.94353
7.94353
7.94354
7.94354
7.94354
7.94355
7.94355
7.94356
7.94357
7.94358
7.94359
7.9436
7.94361
7.94362
7.94364
7.94366
7.94368
7.9437
7.94372
7.94375
7.94378
7.94381
7.94385
7.94389
7.94394
7.94399
7.94404
7.94411
7.94417
7.94422
8.06102
8.06097
8.06091
8.06085
8.0608
8.06075
8.0607
8.06066
8.06063
8.06059
8.06056
8.06054
8.06051
8.06049
8.06047
8.06045
8.06044
8.06042
8.06041
8.0604
8.06039
8.06038
8.06037
8.06037
8.06036
8.06036
8.06035
8.06035
8.06035
8.06035
8.06035
8.06035
8.06035
8.06035
8.06036
8.06036
8.06037
8.06037
8.06038
8.06039
8.0604
8.06041
8.06042
8.06044
8.06045
8.06047
8.06049
8.06051
8.06054
8.06056
8.06059
8.06063
8.06066
8.0607
8.06075
8.0608
8.06085
8.06091
8.06097
8.06102
8.18105
8.18101
8.18095
8.18089
8.18084
8.18079
8.18075
8.18071
8.18067
8.18064
8.18061
8.18058
8.18056
8.18054
8.18052
8.1805
8.18048
8.18047
8.18046
8.18044
8.18043
8.18043
8.18042
8.18041
8.18041
8.1804
8.1804
8.18039
8.18039
8.18039
8.18039
8.18039
8.18039
8.1804
8.1804
8.18041
8.18041
8.18042
8.18043
8.18043
8.18044
8.18046
8.18047
8.18048
8.1805
8.18052
8.18054
8.18056
8.18058
8.18061
8.18064
8.18067
8.18071
8.18075
8.18079
8.18084
8.18089
8.18095
8.18101
8.18105
8.30443
8.30439
8.30434
8.30428
8.30423
8.30418
8.30413
8.3041
8.30406
8.30403
8.304
8.30397
8.30395
8.30393
8.30391
8.30389
8.30387
8.30386
8.30385
8.30384