/*--------------------------------*- C++ -*----------------------------------*\
| =========                 |                                                 |
| \\      /  F ield         | foam-extend: Open Source CFD                    |
|  \\    /   O peration     | Version:     4.0                                |
|   \\  /    A nd           | Web:         http://www.foam-extend.org         |
|    \\/     M anipulation  |                                                 |
\*---------------------------------------------------------------------------*/
FoamFile
{
    version     2.0;
    format      ascii;
    class       volScalarField;
    location    "14";
    object      dC1;
}
// * * * * * * * * * * * * * * * * * * * * * * * * * * * * * * * * * * * * * //

dimensions      [0 -1 0 0 0 0 0];

internalField   nonuniform List<scalar> 
6960
(
7.52342e-13
7.52342e-13
7.52267e-13
7.52492e-13
7.52418e-13
7.50841e-13
7.51817e-13
7.52494e-13
7.52192e-13
7.51668e-13
7.51292e-13
7.52042e-13
7.52867e-13
7.52942e-13
7.51892e-13
7.52343e-13
7.52342e-13
7.51893e-13
7.52042e-13
7.52117e-13
7.52043e-13
7.51817e-13
7.52043e-13
7.51667e-13
7.51817e-13
7.51892e-13
7.52417e-13
7.52569e-13
7.51366e-13
7.51518e-13
7.51892e-13
7.52043e-13
7.52193e-13
7.51066e-13
7.51518e-13
7.51742e-13
7.51742e-13
7.52494e-13
7.52117e-13
7.51442e-13
7.52792e-13
7.53168e-13
7.52041e-13
7.51818e-13
7.51817e-13
7.52567e-13
7.52493e-13
7.52193e-13
7.51742e-13
7.52343e-13
7.51067e-13
7.51967e-13
7.52193e-13
7.52417e-13
7.51667e-13
7.51667e-13
7.52493e-13
7.51591e-13
7.50993e-13
7.51668e-13
3.01751e-13
3.01788e-13
3.0192e-13
3.01675e-13
3.01958e-13
3.02013e-13
3.01619e-13
3.02014e-13
3.01356e-13
3.02108e-13
3.02369e-13
3.01938e-13
3.01769e-13
3.01995e-13
3.01788e-13
3.01582e-13
3.01638e-13
3.01638e-13
3.0162e-13
3.01337e-13
3.0177e-13
3.01939e-13
3.01919e-13
3.01882e-13
3.01788e-13
3.01938e-13
3.01976e-13
3.01525e-13
3.01618e-13
3.02259e-13
3.01281e-13
3.01863e-13
3.01921e-13
3.01543e-13
3.01957e-13
3.01339e-13
3.01563e-13
3.01582e-13
3.01488e-13
3.01432e-13
3.01957e-13
3.01696e-13
3.01356e-13
3.02051e-13
3.01826e-13
3.01544e-13
3.01807e-13
3.01544e-13
3.01882e-13
3.01826e-13
3.01769e-13
3.01976e-13
3.01563e-13
3.02107e-13
3.02051e-13
3.01957e-13
3.01357e-13
3.02032e-13
3.01676e-13
3.01788e-13
1.67169e-13
1.67283e-13
1.6701e-13
1.67451e-13
1.6733e-13
1.67205e-13
1.67358e-13
1.67414e-13
1.67263e-13
1.67328e-13
1.67123e-13
1.67517e-13
1.67394e-13
1.67085e-13
1.67347e-13
1.67386e-13
1.67217e-13
1.66961e-13
1.6734e-13
1.67112e-13
1.67414e-13
1.67358e-13
1.67065e-13
1.67283e-13
1.67132e-13
1.67478e-13
1.67311e-13
1.67292e-13
1.66906e-13
1.67358e-13
1.67356e-13
1.67367e-13
1.67283e-13
1.67065e-13
1.67264e-13
1.67413e-13
1.67263e-13
1.67169e-13
1.67255e-13
1.67376e-13
1.67309e-13
1.67424e-13
1.67018e-13
1.67037e-13
1.67283e-13
1.67357e-13
1.67224e-13
1.67283e-13
1.67141e-13
1.67413e-13
1.67151e-13
1.67292e-13
1.67235e-13
1.67019e-13
1.6717e-13
1.67029e-13
1.67066e-13
1.67357e-13
1.67179e-13
1.6717e-13
5.44183e-14
5.43003e-14
5.44469e-14
5.45024e-14
5.45276e-14
5.44447e-14
5.45414e-14
5.43996e-14
5.46434e-14
5.44794e-14
5.45497e-14
5.44187e-14
5.44001e-14
5.44989e-14
5.45965e-14
5.43532e-14
5.43246e-14
5.43758e-14
5.4505e-14
5.42999e-14
5.44326e-14
5.44755e-14
5.43515e-14
5.44044e-14
5.44933e-14
5.44317e-14
5.44382e-14
5.43528e-14
5.45297e-14
5.44048e-14
5.44283e-14
5.4479e-14
5.45462e-14
5.43801e-14
5.4198e-14
5.45501e-14
5.4404e-14
5.4273e-14
5.45358e-14
5.43576e-14
5.42869e-14
5.4466e-14
5.45592e-14
5.42348e-14
5.45553e-14
5.44517e-14
5.42994e-14
5.46629e-14
5.44799e-14
5.43571e-14
5.44087e-14
5.43385e-14
5.43203e-14
5.4479e-14
5.43766e-14
5.44469e-14
5.43432e-14
5.42869e-14
5.44608e-14
5.44322e-14
-6.61615e-14
-6.61797e-14
-6.60292e-14
-6.62226e-14
-6.608e-14
-6.61676e-14
-6.59915e-14
-6.60813e-14
-6.6269e-14
-6.62127e-14
-6.60006e-14
-6.60071e-14
-6.59082e-14
-6.58883e-14
-6.61767e-14
-6.60622e-14
-6.60856e-14
-6.60682e-14
-6.59624e-14
-6.60787e-14
-6.60665e-14
-6.60283e-14
-6.61294e-14
-6.61368e-14
-6.59212e-14
-6.61758e-14
-6.60279e-14
-6.61094e-14
-6.63016e-14
-6.60106e-14
-6.60349e-14
-6.60535e-14
-6.59867e-14
-6.59789e-14
-6.60292e-14
-6.62027e-14
-6.61094e-14
-6.61099e-14
-6.60101e-14
-6.59733e-14
-6.60765e-14
-6.60995e-14
-6.61381e-14
-6.60496e-14
-6.607e-14
-6.60808e-14
-6.64113e-14
-6.61602e-14
-6.5916e-14
-6.60865e-14
-6.61606e-14
-6.61051e-14
-6.59919e-14
-6.62317e-14
-6.61983e-14
-6.60149e-14
-6.60531e-14
-6.60158e-14
-6.60951e-14
-6.60201e-14
-1.99948e-13
-1.99919e-13
-1.99912e-13
-1.99929e-13
-1.99906e-13
-1.99975e-13
-1.9993e-13
-1.99864e-13
-1.99804e-13
-1.99967e-13
-1.99961e-13
-1.99978e-13
-1.99905e-13
-1.999e-13
-1.99883e-13
-1.99898e-13
-1.99863e-13
-1.99858e-13
-2e-13
-1.999e-13
-1.99889e-13
-1.99878e-13
-1.99883e-13
-1.999e-13
-1.99929e-13
-1.99862e-13
-1.99912e-13
-1.99982e-13
-1.99859e-13
-1.99887e-13
-1.99961e-13
-1.99913e-13
-1.999e-13
-1.99828e-13
-1.99838e-13
-1.99756e-13
-1.99884e-13
-1.99842e-13
-1.99926e-13
-1.99871e-13
-1.99861e-13
-1.99929e-13
-1.99985e-13
-2.00002e-13
-1.99879e-13
-1.99917e-13
-1.99876e-13
-1.9992e-13
-1.99877e-13
-1.99974e-13
-1.99936e-13
-1.99926e-13
-1.9987e-13
-1.99969e-13
-1.99874e-13
-1.99844e-13
-1.99863e-13
-1.99955e-13
-1.99924e-13
-1.99962e-13
-3.48566e-13
-3.48455e-13
-3.48501e-13
-3.48444e-13
-3.4855e-13
-3.48624e-13
-3.48518e-13
-3.48555e-13
-3.48514e-13
-3.48597e-13
-3.48506e-13
-3.48519e-13
-3.48586e-13
-3.48442e-13
-3.48546e-13
-3.48541e-13
-3.4854e-13
-3.48588e-13
-3.48452e-13
-3.48631e-13
-3.48572e-13
-3.48559e-13
-3.48536e-13
-3.48581e-13
-3.48568e-13
-3.48555e-13
-3.4845e-13
-3.48375e-13
-3.48485e-13
-3.48568e-13
-3.4848e-13
-3.48566e-13
-3.48599e-13
-3.48558e-13
-3.48563e-13
-3.48563e-13
-3.48509e-13
-3.48512e-13
-3.48466e-13
-3.4858e-13
-3.48569e-13
-3.48565e-13
-3.48531e-13
-3.48597e-13
-3.48564e-13
-3.4853e-13
-3.48515e-13
-3.48578e-13
-3.48576e-13
-3.48604e-13
-3.48546e-13
-3.48498e-13
-3.48491e-13
-3.48457e-13
-3.4847e-13
-3.48554e-13
-3.48544e-13
-3.48504e-13
-3.48475e-13
-3.48473e-13
-5.12161e-13
-5.12177e-13
-5.12125e-13
-5.12165e-13
-5.12106e-13
-5.1215e-13
-5.12093e-13
-5.12118e-13
-5.12074e-13
-5.1208e-13
-5.121e-13
-5.12135e-13
-5.12182e-13
-5.12135e-13
-5.12148e-13
-5.1212e-13
-5.12152e-13
-5.12092e-13
-5.12106e-13
-5.12146e-13
-5.1213e-13
-5.12047e-13
-5.12178e-13
-5.12058e-13
-5.12104e-13
-5.12148e-13
-5.12101e-13
-5.12139e-13
-5.12129e-13
-5.12193e-13
-5.12077e-13
-5.12217e-13
-5.12073e-13
-5.12179e-13
-5.12159e-13
-5.12158e-13
-5.12153e-13
-5.12126e-13
-5.12185e-13
-5.12067e-13
-5.12085e-13
-5.12097e-13
-5.12122e-13
-5.12115e-13
-5.12134e-13
-5.12162e-13
-5.12187e-13
-5.12089e-13
-5.12101e-13
-5.12072e-13
-5.12093e-13
-5.12184e-13
-5.12148e-13
-5.1211e-13
-5.12155e-13
-5.12071e-13
-5.12148e-13
-5.12084e-13
-5.12097e-13
-5.12179e-13
-6.8952e-13
-6.89545e-13
-6.89522e-13
-6.89517e-13
-6.89564e-13
-6.89579e-13
-6.89572e-13
-6.89553e-13
-6.89552e-13
-6.895e-13
-6.89545e-13
-6.89518e-13
-6.89511e-13
-6.89537e-13
-6.89505e-13
-6.89522e-13
-6.89492e-13
-6.89563e-13
-6.89482e-13
-6.89497e-13
-6.89475e-13
-6.89497e-13
-6.89533e-13
-6.89523e-13
-6.89567e-13
-6.89574e-13
-6.89506e-13
-6.8956e-13
-6.8949e-13
-6.89518e-13
-6.89549e-13
-6.89536e-13
-6.8953e-13
-6.89467e-13
-6.89492e-13
-6.89511e-13
-6.89527e-13
-6.89514e-13
-6.89437e-13
-6.89515e-13
-6.89516e-13
-6.8949e-13
-6.89533e-13
-6.89554e-13
-6.89463e-13
-6.89514e-13
-6.89569e-13
-6.89538e-13
-6.89489e-13
-6.89495e-13
-6.89509e-13
-6.89508e-13
-6.89557e-13
-6.89507e-13
-6.89506e-13
-6.89502e-13
-6.89455e-13
-6.89572e-13
-6.89504e-13
-6.89501e-13
-8.76369e-13
-8.76346e-13
-8.76356e-13
-8.76383e-13
-8.76312e-13
-8.76314e-13
-8.76327e-13
-8.76288e-13
-8.76407e-13
-8.76342e-13
-8.76346e-13
-8.76333e-13
-8.76314e-13
-8.76397e-13
-8.76385e-13
-8.76329e-13
-8.76391e-13
-8.76386e-13
-8.76308e-13
-8.76383e-13
-8.76377e-13
-8.76379e-13
-8.76267e-13
-8.76339e-13
-8.76365e-13
-8.76305e-13
-8.76368e-13
-8.76319e-13
-8.76402e-13
-8.76412e-13
-8.7637e-13
-8.76327e-13
-8.7633e-13
-8.76422e-13
-8.76329e-13
-8.76348e-13
-8.76319e-13
-8.76338e-13
-8.76346e-13
-8.76344e-13
-8.76333e-13
-8.76436e-13
-8.76393e-13
-8.76321e-13
-8.76374e-13
-8.76373e-13
-8.76346e-13
-8.76351e-13
-8.76319e-13
-8.76332e-13
-8.76361e-13
-8.76362e-13
-8.76342e-13
-8.76371e-13
-8.76312e-13
-8.76361e-13
-8.76354e-13
-8.76338e-13
-8.76324e-13
-8.76338e-13
-1.06219e-12
-1.06214e-12
-1.06222e-12
-1.06214e-12
-1.06219e-12
-1.06214e-12
-1.06216e-12
-1.06218e-12
-1.06215e-12
-1.06211e-12
-1.06215e-12
-1.06218e-12
-1.06221e-12
-1.06211e-12
-1.06211e-12
-1.06212e-12
-1.06214e-12
-1.0621e-12
-1.06224e-12
-1.06221e-12
-1.06215e-12
-1.06215e-12
-1.06219e-12
-1.06213e-12
-1.06218e-12
-1.06222e-12
-1.06211e-12
-1.0622e-12
-1.06214e-12
-1.0621e-12
-1.06219e-12
-1.06218e-12
-1.06215e-12
-1.06219e-12
-1.06217e-12
-1.0622e-12
-1.06223e-12
-1.06219e-12
-1.06221e-12
-1.06216e-12
-1.06221e-12
-1.06219e-12
-1.06213e-12
-1.06219e-12
-1.06223e-12
-1.06215e-12
-1.06216e-12
-1.06216e-12
-1.06218e-12
-1.06217e-12
-1.06214e-12
-1.06212e-12
-1.06216e-12
-1.06219e-12
-1.06213e-12
-1.06215e-12
-1.06215e-12
-1.06221e-12
-1.0622e-12
-1.06214e-12
-1.22664e-12
-1.22666e-12
-1.22662e-12
-1.22672e-12
-1.22666e-12
-1.2267e-12
-1.22663e-12
-1.22667e-12
-1.22663e-12
-1.2267e-12
-1.2267e-12
-1.22662e-12
-1.22664e-12
-1.22673e-12
-1.22674e-12
-1.22669e-12
-1.22662e-12
-1.22676e-12
-1.22661e-12
-1.22662e-12
-1.22667e-12
-1.22665e-12
-1.2267e-12
-1.22666e-12
-1.22666e-12
-1.22663e-12
-1.22671e-12
-1.22668e-12
-1.22667e-12
-1.22671e-12
-1.22669e-12
-1.22671e-12
-1.22665e-12
-1.22664e-12
-1.22663e-12
-1.22664e-12
-1.22662e-12
-1.22663e-12
-1.22665e-12
-1.22665e-12
-1.22662e-12
-1.22668e-12
-1.22661e-12
-1.22663e-12
-1.22662e-12
-1.22668e-12
-1.22667e-12
-1.22661e-12
-1.22666e-12
-1.22666e-12
-1.22669e-12
-1.22671e-12
-1.22667e-12
-1.22665e-12
-1.22665e-12
-1.22664e-12
-1.22661e-12
-1.22663e-12
-1.22666e-12
-1.22669e-12
-1.33621e-12
-1.33615e-12
-1.3362e-12
-1.33617e-12
-1.33618e-12
-1.33622e-12
-1.33617e-12
-1.33615e-12
-1.33619e-12
-1.33614e-12
-1.33616e-12
-1.33617e-12
-1.33614e-12
-1.3361e-12
-1.33618e-12
-1.33613e-12
-1.33618e-12
-1.33615e-12
-1.33617e-12
-1.33617e-12
-1.33616e-12
-1.33614e-12
-1.3362e-12
-1.33617e-12
-1.33615e-12
-1.33617e-12
-1.33611e-12
-1.33616e-12
-1.33621e-12
-1.33616e-12
-1.33616e-12
-1.33611e-12
-1.33616e-12
-1.3362e-12
-1.33615e-12
-1.33623e-12
-1.33621e-12
-1.3362e-12
-1.33624e-12
-1.33616e-12
-1.33618e-12
-1.33614e-12
-1.33619e-12
-1.33617e-12
-1.33614e-12
-1.33612e-12
-1.33616e-12
-1.33619e-12
-1.33618e-12
-1.33618e-12
-1.33612e-12
-1.33613e-12
-1.33619e-12
-1.33617e-12
-1.33613e-12
-1.33615e-12
-1.33619e-12
-1.33617e-12
-1.33616e-12
-1.33615e-12
-1.34289e-12
-1.34295e-12
-1.34289e-12
-1.34292e-12
-1.3429e-12
-1.34291e-12
-1.34293e-12
-1.34294e-12
-1.34292e-12
-1.34294e-12
-1.34295e-12
-1.34294e-12
-1.34294e-12
-1.34299e-12
-1.34293e-12
-1.34296e-12
-1.34295e-12
-1.34292e-12
-1.34299e-12
-1.34295e-12
-1.34293e-12
-1.34295e-12
-1.34291e-12
-1.34291e-12
-1.34291e-12
-1.34297e-12
-1.34294e-12
-1.34296e-12
-1.34292e-12
-1.34295e-12
-1.34294e-12
-1.34292e-12
-1.34293e-12
-1.3429e-12
-1.34296e-12
-1.3429e-12
-1.34289e-12
-1.34293e-12
-1.34294e-12
-1.34295e-12
-1.34295e-12
-1.34294e-12
-1.34294e-12
-1.34296e-12
-1.34295e-12
-1.34295e-12
-1.34293e-12
-1.34293e-12
-1.34295e-12
-1.34291e-12
-1.34294e-12
-1.34293e-12
-1.34295e-12
-1.34293e-12
-1.34296e-12
-1.34294e-12
-1.34293e-12
-1.34291e-12
-1.34294e-12
-1.34294e-12
-1.19004e-12
-1.19003e-12
-1.19004e-12
-1.19003e-12
-1.19001e-12
-1.19003e-12
-1.19003e-12
-1.19003e-12
-1.19003e-12
-1.19001e-12
-1.18999e-12
-1.19004e-12
-1.19005e-12
-1.19002e-12
-1.19006e-12
-1.19003e-12
-1.18998e-12
-1.19008e-12
-1.18999e-12
-1.19003e-12
-1.19003e-12
-1.19001e-12
-1.19001e-12
-1.19e-12
-1.19004e-12
-1.19003e-12
-1.19003e-12
-1.19e-12
-1.19003e-12
-1.1901e-12
-1.19e-12
-1.19007e-12
-1.19006e-12
-1.19001e-12
-1.19001e-12
-1.19008e-12
-1.19002e-12
-1.19003e-12
-1.19001e-12
-1.19005e-12
-1.19005e-12
-1.19007e-12
-1.18999e-12
-1.19002e-12
-1.19e-12
-1.19004e-12
-1.19006e-12
-1.19001e-12
-1.18999e-12
-1.19004e-12
-1.18999e-12
-1.19004e-12
-1.19004e-12
-1.19003e-12
-1.19001e-12
-1.19007e-12
-1.19002e-12
-1.19003e-12
-1.19003e-12
-1.19001e-12
-8.25848e-13
-8.25857e-13
-8.25862e-13
-8.25824e-13
-8.25842e-13
-8.25835e-13
-8.2586e-13
-8.25835e-13
-8.25834e-13
-8.25821e-13
-8.25877e-13
-8.25858e-13
-8.2586e-13
-8.25877e-13
-8.25861e-13
-8.25825e-13
-8.25898e-13
-8.25807e-13
-8.25869e-13
-8.25863e-13
-8.25812e-13
-8.2582e-13
-8.25845e-13
-8.25853e-13
-8.25835e-13
-8.25832e-13
-8.25889e-13
-8.25893e-13
-8.25872e-13
-8.2579e-13
-8.2586e-13
-8.25907e-13
-8.25818e-13
-8.25859e-13
-8.25841e-13
-8.25829e-13
-8.25886e-13
-8.25863e-13
-8.25888e-13
-8.25833e-13
-8.25861e-13
-8.25816e-13
-8.25873e-13
-8.25814e-13
-8.25852e-13
-8.25866e-13
-8.25833e-13
-8.25901e-13
-8.25897e-13
-8.25818e-13
-8.25886e-13
-8.25816e-13
-8.25833e-13
-8.25842e-13
-8.25874e-13
-8.25842e-13
-8.25866e-13
-8.25845e-13
-8.25855e-13
-8.25875e-13
-2.29415e-13
-2.29449e-13
-2.29409e-13
-2.29445e-13
-2.29458e-13
-2.29464e-13
-2.29431e-13
-2.29409e-13
-2.29458e-13
-2.29448e-13
-2.29399e-13
-2.29476e-13
-2.29419e-13
-2.29425e-13
-2.29454e-13
-2.2947e-13
-2.29412e-13
-2.29449e-13
-2.29401e-13
-2.29424e-13
-2.29483e-13
-2.29467e-13
-2.2943e-13
-2.29374e-13
-2.29445e-13
-2.29475e-13
-2.29438e-13
-2.29466e-13
-2.29399e-13
-2.29513e-13
-2.29437e-13
-2.2941e-13
-2.2944e-13
-2.29415e-13
-2.295e-13
-2.2951e-13
-2.29441e-13
-2.29445e-13
-2.29409e-13
-2.29467e-13
-2.29407e-13
-2.29439e-13
-2.29412e-13
-2.2946e-13
-2.29437e-13
-2.29427e-13
-2.29472e-13
-2.29405e-13
-2.29398e-13
-2.29473e-13
-2.29421e-13
-2.29453e-13
-2.29498e-13
-2.29474e-13
-2.29453e-13
-2.29428e-13
-2.29388e-13
-2.29466e-13
-2.29442e-13
-2.2944e-13
5.56483e-13
5.56478e-13
5.56448e-13
5.56455e-13
5.56506e-13
5.56445e-13
5.56484e-13
5.56443e-13
5.5651e-13
5.56425e-13
5.56426e-13
5.56466e-13
5.56393e-13
5.56511e-13
5.56454e-13
5.5644e-13
5.56419e-13
5.56495e-13
5.56479e-13
5.56457e-13
5.56492e-13
5.56474e-13
5.56481e-13
5.56444e-13
5.56441e-13
5.56452e-13
5.56401e-13
5.56483e-13
5.56432e-13
5.56469e-13
5.56439e-13
5.56438e-13
5.56474e-13
5.56435e-13
5.56499e-13
5.56493e-13
5.56462e-13
5.56445e-13
5.56412e-13
5.56501e-13
5.56468e-13
5.5644e-13
5.56425e-13
5.56478e-13
5.56476e-13
5.5643e-13
5.56515e-13
5.56444e-13
5.56504e-13
5.56464e-13
5.56443e-13
5.56468e-13
5.56476e-13
5.56457e-13
5.56473e-13
5.56426e-13
5.56421e-13
5.5646e-13
5.56463e-13
5.56436e-13
1.39709e-12
1.39715e-12
1.39712e-12
1.39712e-12
1.3971e-12
1.39713e-12
1.39711e-12
1.39709e-12
1.39706e-12
1.39714e-12
1.39714e-12
1.39707e-12
1.3972e-12
1.39707e-12
1.39707e-12
1.39717e-12
1.3971e-12
1.39701e-12
1.3971e-12
1.39712e-12
1.39709e-12
1.3971e-12
1.39708e-12
1.3971e-12
1.39712e-12
1.39713e-12
1.39714e-12
1.39711e-12
1.39717e-12
1.39707e-12
1.39713e-12
1.3971e-12
1.39707e-12
1.3971e-12
1.39712e-12
1.39709e-12
1.39714e-12
1.39716e-12
1.39723e-12
1.39706e-12
1.39707e-12
1.39716e-12
1.39707e-12
1.39706e-12
1.39713e-12
1.39709e-12
1.39703e-12
1.39715e-12
1.39701e-12
1.39712e-12
1.39715e-12
1.39709e-12
1.3971e-12
1.39709e-12
1.39713e-12
1.39712e-12
1.39704e-12
1.39711e-12
1.39709e-12
1.39714e-12
2.06408e-12
2.06407e-12
2.06411e-12
2.06408e-12
2.06409e-12
2.06408e-12
2.06407e-12
2.06411e-12
2.06411e-12
2.06403e-12
2.06408e-12
2.06418e-12
2.06397e-12
2.06409e-12
2.06407e-12
2.06408e-12
2.06415e-12
2.06413e-12
2.0641e-12
2.06405e-12
2.06408e-12
2.06409e-12
2.06409e-12
2.06407e-12
2.06412e-12
2.064e-12
2.0641e-12
2.06414e-12
2.06404e-12
2.06411e-12
2.06409e-12
2.06404e-12
2.06411e-12
2.06407e-12
2.0641e-12
2.06411e-12
2.06401e-12
2.06399e-12
2.06404e-12
2.06412e-12
2.06412e-12
2.06407e-12
2.06409e-12
2.06412e-12
2.06415e-12
2.06411e-12
2.06409e-12
2.06407e-12
2.06417e-12
2.06413e-12
2.06408e-12
2.06412e-12
2.06405e-12
2.06408e-12
2.06407e-12
2.06407e-12
2.06414e-12
2.06411e-12
2.06415e-12
2.06412e-12
2.28357e-12
2.2835e-12
2.28353e-12
2.28354e-12
2.28354e-12
2.28354e-12
2.28351e-12
2.28348e-12
2.28356e-12
2.28358e-12
2.28353e-12
2.28345e-12
2.28356e-12
2.28354e-12
2.28354e-12
2.28358e-12
2.2835e-12
2.28355e-12
2.28356e-12
2.28355e-12
2.28352e-12
2.28356e-12
2.28347e-12
2.28353e-12
2.2835e-12
2.2836e-12
2.28355e-12
2.28355e-12
2.28355e-12
2.2835e-12
2.28352e-12
2.28358e-12
2.28354e-12
2.28356e-12
2.28353e-12
2.28351e-12
2.28363e-12
2.28356e-12
2.28358e-12
2.28355e-12
2.28349e-12
2.28355e-12
2.28354e-12
2.28351e-12
2.28353e-12
2.28354e-12
2.2835e-12
2.28357e-12
2.28352e-12
2.28352e-12
2.28349e-12
2.2835e-12
2.28351e-12
2.2835e-12
2.28355e-12
2.28349e-12
2.28352e-12
2.28358e-12
2.2835e-12
2.28348e-12
1.84062e-12
1.84064e-12
1.84069e-12
1.84066e-12
1.84054e-12
1.84065e-12
1.84068e-12
1.84065e-12
1.84065e-12
1.84053e-12
1.84062e-12
1.84071e-12
1.8406e-12
1.84058e-12
1.84059e-12
1.84058e-12
1.84065e-12
1.84061e-12
1.84057e-12
1.84057e-12
1.84062e-12
1.84059e-12
1.84069e-12
1.84062e-12
1.8406e-12
1.84061e-12
1.84059e-12
1.84056e-12
1.84061e-12
1.84068e-12
1.84068e-12
1.84062e-12
1.84056e-12
1.84061e-12
1.84059e-12
1.84063e-12
1.84057e-12
1.8406e-12
1.84063e-12
1.84059e-12
1.84057e-12
1.84061e-12
1.84065e-12
1.84063e-12
1.84062e-12
1.8406e-12
1.84065e-12
1.84065e-12
1.84064e-12
1.84063e-12
1.8407e-12
1.84064e-12
1.84062e-12
1.84062e-12
1.84061e-12
1.84066e-12
1.84059e-12
1.84063e-12
1.84061e-12
1.84064e-12
7.09352e-13
7.09281e-13
7.09228e-13
7.09287e-13
7.0936e-13
7.09249e-13
7.09283e-13
7.09232e-13
7.09225e-13
7.0936e-13
7.09317e-13
7.0925e-13
7.09293e-13
7.09272e-13
7.09323e-13
7.09285e-13
7.0924e-13
7.09251e-13
7.09256e-13
7.09321e-13
7.09268e-13
7.09255e-13
7.09205e-13
7.09308e-13
7.0934e-13
7.09292e-13
7.09318e-13
7.09319e-13
7.09373e-13
7.09232e-13
7.09256e-13
7.09291e-13
7.09349e-13
7.09292e-13
7.09298e-13
7.09293e-13
7.09312e-13
7.0935e-13
7.09291e-13
7.09275e-13
7.09349e-13
7.09322e-13
7.09308e-13
7.09273e-13
7.09236e-13
7.09313e-13
7.0932e-13
7.09234e-13
7.09278e-13
7.09283e-13
7.09258e-13
7.09333e-13
7.09294e-13
7.09294e-13
7.09382e-13
7.09301e-13
7.09273e-13
7.09293e-13
7.09319e-13
7.09268e-13
-8.64594e-13
-8.64524e-13
-8.64512e-13
-8.64481e-13
-8.64505e-13
-8.64494e-13
-8.64502e-13
-8.64482e-13
-8.64424e-13
-8.64543e-13
-8.64523e-13
-8.64545e-13
-8.64469e-13
-8.64469e-13
-8.64527e-13
-8.64521e-13
-8.64472e-13
-8.64463e-13
-8.64434e-13
-8.64497e-13
-8.64473e-13
-8.64494e-13
-8.6445e-13
-8.6446e-13
-8.64514e-13
-8.64513e-13
-8.64535e-13
-8.64542e-13
-8.64569e-13
-8.64505e-13
-8.64501e-13
-8.64537e-13
-8.64541e-13
-8.64551e-13
-8.64447e-13
-8.64472e-13
-8.64501e-13
-8.64522e-13
-8.64444e-13
-8.64487e-13
-8.64509e-13
-8.64545e-13
-8.64509e-13
-8.64489e-13
-8.644e-13
-8.64502e-13
-8.64558e-13
-8.64484e-13
-8.64481e-13
-8.64536e-13
-8.64501e-13
-8.64546e-13
-8.64519e-13
-8.64499e-13
-8.64524e-13
-8.64536e-13
-8.64483e-13
-8.64522e-13
-8.64493e-13
-8.64455e-13
-2.40205e-12
-2.40208e-12
-2.40206e-12
-2.40209e-12
-2.40222e-12
-2.40213e-12
-2.4021e-12
-2.40211e-12
-2.40213e-12
-2.40204e-12
-2.40214e-12
-2.40203e-12
-2.40217e-12
-2.40212e-12
-2.40205e-12
-2.40212e-12
-2.40211e-12
-2.4021e-12
-2.40218e-12
-2.4021e-12
-2.40212e-12
-2.40206e-12
-2.4021e-12
-2.40212e-12
-2.40205e-12
-2.40211e-12
-2.40208e-12
-2.40212e-12
-2.40205e-12
-2.40213e-12
-2.40208e-12
-2.40203e-12
-2.40203e-12
-2.40202e-12
-2.40221e-12
-2.40213e-12
-2.40215e-12
-2.40211e-12
-2.40216e-12
-2.40212e-12
-2.40208e-12
-2.40212e-12
-2.40215e-12
-2.4021e-12
-2.40217e-12
-2.40212e-12
-2.40209e-12
-2.40205e-12
-2.40216e-12
-2.40211e-12
-2.40202e-12
-2.40204e-12
-2.40207e-12
-2.40211e-12
-2.40209e-12
-2.40213e-12
-2.40209e-12
-2.4021e-12
-2.4021e-12
-2.40215e-12
-3.37163e-12
-3.37169e-12
-3.37163e-12
-3.37164e-12
-3.37149e-12
-3.3716e-12
-3.37174e-12
-3.37161e-12
-3.37159e-12
-3.37168e-12
-3.37161e-12
-3.3717e-12
-3.37154e-12
-3.37166e-12
-3.37171e-12
-3.37164e-12
-3.37173e-12
-3.37168e-12
-3.37159e-12
-3.37175e-12
-3.37161e-12
-3.37176e-12
-3.3717e-12
-3.37165e-12
-3.37173e-12
-3.37162e-12
-3.37167e-12
-3.37165e-12
-3.37174e-12
-3.37166e-12
-3.37171e-12
-3.37173e-12
-3.37176e-12
-3.37174e-12
-3.37153e-12
-3.37168e-12
-3.37161e-12
-3.3717e-12
-3.37168e-12
-3.37166e-12
-3.37168e-12
-3.37166e-12
-3.37164e-12
-3.37169e-12
-3.37165e-12
-3.37166e-12
-3.37169e-12
-3.37179e-12
-3.37167e-12
-3.3717e-12
-3.37175e-12
-3.37172e-12
-3.37175e-12
-3.37163e-12
-3.37166e-12
-3.37155e-12
-3.37168e-12
-3.37161e-12
-3.37168e-12
-3.37165e-12
-3.42953e-12
-3.42933e-12
-3.42945e-12
-3.42946e-12
-3.42946e-12
-3.42938e-12
-3.4293e-12
-3.42939e-12
-3.42946e-12
-3.42943e-12
-3.42942e-12
-3.42928e-12
-3.4294e-12
-3.42937e-12
-3.42927e-12
-3.42935e-12
-3.42921e-12
-3.4293e-12
-3.42945e-12
-3.42928e-12
-3.42947e-12
-3.42923e-12
-3.42941e-12
-3.42943e-12
-3.42934e-12
-3.4294e-12
-3.42937e-12
-3.42927e-12
-3.42929e-12
-3.42938e-12
-3.42935e-12
-3.42933e-12
-3.42926e-12
-3.42937e-12
-3.42937e-12
-3.42937e-12
-3.42942e-12
-3.42922e-12
-3.42931e-12
-3.42932e-12
-3.42937e-12
-3.42923e-12
-3.42943e-12
-3.42939e-12
-3.42924e-12
-3.42934e-12
-3.4293e-12
-3.42935e-12
-3.42926e-12
-3.42934e-12
-3.42938e-12
-3.42937e-12
-3.42932e-12
-3.42939e-12
-3.42943e-12
-3.42946e-12
-3.4295e-12
-3.42945e-12
-3.4294e-12
-3.4294e-12
-2.58034e-12
-2.58061e-12
-2.58044e-12
-2.58035e-12
-2.58038e-12
-2.58039e-12
-2.58045e-12
-2.58048e-12
-2.58046e-12
-2.58042e-12
-2.58043e-12
-2.58061e-12
-2.58046e-12
-2.58045e-12
-2.58048e-12
-2.58047e-12
-2.58062e-12
-2.5805e-12
-2.58044e-12
-2.58051e-12
-2.58039e-12
-2.58054e-12
-2.58039e-12
-2.5804e-12
-2.58048e-12
-2.58041e-12
-2.58054e-12
-2.58057e-12
-2.58051e-12
-2.58038e-12
-2.58036e-12
-2.58041e-12
-2.58055e-12
-2.5804e-12
-2.5805e-12
-2.5804e-12
-2.58039e-12
-2.58061e-12
-2.58053e-12
-2.58049e-12
-2.58037e-12
-2.58065e-12
-2.58034e-12
-2.58042e-12
-2.58056e-12
-2.58044e-12
-2.58044e-12
-2.58044e-12
-2.58049e-12
-2.58046e-12
-2.58041e-12
-2.58055e-12
-2.58048e-12
-2.58042e-12
-2.5804e-12
-2.58045e-12
-2.58034e-12
-2.58033e-12
-2.5804e-12
-2.58035e-12
-1.16096e-12
-1.16091e-12
-1.16103e-12
-1.16106e-12
-1.16106e-12
-1.161e-12
-1.16105e-12
-1.16097e-12
-1.16096e-12
-1.16111e-12
-1.16099e-12
-1.16095e-12
-1.16106e-12
-1.16111e-12
-1.16102e-12
-1.16106e-12
-1.16097e-12
-1.16111e-12
-1.16113e-12
-1.16102e-12
-1.16104e-12
-1.16102e-12
-1.16107e-12
-1.161e-12
-1.16095e-12
-1.16109e-12
-1.16098e-12
-1.16101e-12
-1.16114e-12
-1.16111e-12
-1.16114e-12
-1.16115e-12
-1.16105e-12
-1.16105e-12
-1.1611e-12
-1.16111e-12
-1.16108e-12
-1.16098e-12
-1.16096e-12
-1.16106e-12
-1.16117e-12
-1.16096e-12
-1.16115e-12
-1.16109e-12
-1.16101e-12
-1.16102e-12
-1.16111e-12
-1.16095e-12
-1.16116e-12
-1.16101e-12
-1.16115e-12
-1.16092e-12
-1.16103e-12
-1.16106e-12
-1.16105e-12
-1.16102e-12
-1.16096e-12
-1.16118e-12
-1.16096e-12
-1.16105e-12
3.42942e-13
3.4305e-13
3.43041e-13
3.43018e-13
3.43075e-13
3.42853e-13
3.43009e-13
3.42963e-13
3.43036e-13
3.43176e-13
3.43027e-13
3.42933e-13
3.43073e-13
3.43059e-13
3.42882e-13
3.43083e-13
3.43107e-13
3.4304e-13
3.43173e-13
3.43057e-13
3.43068e-13
3.4316e-13
3.431e-13
3.43007e-13
3.42819e-13
3.43162e-13
3.43115e-13
3.4312e-13
3.43095e-13
3.4312e-13
3.43152e-13
3.4311e-13
3.43066e-13
3.43101e-13
3.43156e-13
3.43032e-13
3.4296e-13
3.43064e-13
3.42943e-13
3.42999e-13
3.43182e-13
3.43146e-13
3.43136e-13
3.43057e-13
3.43048e-13
3.42937e-13
3.43224e-13
3.42907e-13
3.4315e-13
3.43063e-13
3.43325e-13
3.42966e-13
3.43051e-13
3.43017e-13
3.43004e-13
3.43086e-13
3.43003e-13
3.43006e-13
3.4305e-13
3.43046e-13
1.51923e-12
1.5192e-12
1.51924e-12
1.51919e-12
1.51933e-12
1.51945e-12
1.51947e-12
1.51943e-12
1.51932e-12
1.51918e-12
1.51918e-12
1.51928e-12
1.51919e-12
1.51935e-12
1.51943e-12
1.51925e-12
1.51917e-12
1.51932e-12
1.51928e-12
1.51922e-12
1.51924e-12
1.51917e-12
1.51929e-12
1.51921e-12
1.51937e-12
1.51907e-12
1.51922e-12
1.51928e-12
1.51937e-12
1.51912e-12
1.51929e-12
1.51934e-12
1.51939e-12
1.51904e-12
1.51917e-12
1.51928e-12
1.51929e-12
1.51923e-12
1.51926e-12
1.51939e-12
1.51919e-12
1.51919e-12
1.51926e-12
1.51931e-12
1.5194e-12
1.51939e-12
1.51911e-12
1.51934e-12
1.51914e-12
1.51913e-12
1.51901e-12
1.51925e-12
1.51924e-12
1.51924e-12
1.51909e-12
1.51924e-12
1.51935e-12
1.51939e-12
1.51917e-12
1.51926e-12
2.16685e-12
2.16696e-12
2.16706e-12
2.16688e-12
2.16674e-12
2.16676e-12
2.16663e-12
2.16673e-12
2.16684e-12
2.16705e-12
2.16683e-12
2.16689e-12
2.16703e-12
2.16681e-12
2.1668e-12
2.16699e-12
2.16683e-12
2.16687e-12
2.16689e-12
2.16685e-12
2.1669e-12
2.16699e-12
2.16682e-12
2.16686e-12
2.1668e-12
2.16706e-12
2.16695e-12
2.16689e-12
2.16681e-12
2.16701e-12
2.16687e-12
2.16682e-12
2.1668e-12
2.16717e-12
2.16698e-12
2.16692e-12
2.16702e-12
2.16677e-12
2.167e-12
2.1667e-12
2.16678e-12
2.16691e-12
2.16689e-12
2.16678e-12
2.16664e-12
2.16686e-12
2.16677e-12
2.16686e-12
2.16689e-12
2.16709e-12
2.16704e-12
2.16705e-12
2.16703e-12
2.16678e-12
2.16695e-12
2.16692e-12
2.1668e-12
2.16682e-12
2.1669e-12
2.16694e-12
2.30466e-12
2.30448e-12
2.30418e-12
2.30433e-12
2.30461e-12
2.30452e-12
2.30464e-12
2.30442e-12
2.30464e-12
2.30439e-12
2.30456e-12
2.30457e-12
2.30432e-12
2.3044e-12
2.3046e-12
2.30437e-12
2.30472e-12
2.30444e-12
2.30452e-12
2.30452e-12
2.30423e-12
2.30452e-12
2.30451e-12
2.3045e-12
2.30451e-12
2.30439e-12
2.30437e-12
2.30442e-12
2.30454e-12
2.3044e-12
2.30442e-12
2.30452e-12
2.30452e-12
2.30416e-12
2.30438e-12
2.30453e-12
2.30439e-12
2.30466e-12
2.30423e-12
2.30461e-12
2.30458e-12
2.30428e-12
2.30447e-12
2.30453e-12
2.30459e-12
2.30449e-12
2.30471e-12
2.30451e-12
2.30459e-12
2.30435e-12
2.30444e-12
2.30438e-12
2.30435e-12
2.30459e-12
2.30444e-12
2.30463e-12
2.30444e-12
2.30444e-12
2.30453e-12
2.30446e-12
2.08455e-12
2.0846e-12
2.08489e-12
2.08486e-12
2.08466e-12
2.0847e-12
2.08449e-12
2.08483e-12
2.0844e-12
2.08477e-12
2.08475e-12
2.0843e-12
2.08465e-12
2.08461e-12
2.08457e-12
2.08466e-12
2.08446e-12
2.08458e-12
2.08451e-12
2.08472e-12
2.08495e-12
2.08463e-12
2.08463e-12
2.08462e-12
2.08465e-12
2.08487e-12
2.08474e-12
2.08455e-12
2.0845e-12
2.08474e-12
2.08471e-12
2.08466e-12
2.08462e-12
2.08494e-12
2.08471e-12
2.08449e-12
2.08474e-12
2.08463e-12
2.08475e-12
2.08457e-12
2.08474e-12
2.08489e-12
2.08465e-12
2.08473e-12
2.08449e-12
2.08467e-12
2.0845e-12
2.0845e-12
2.08464e-12
2.08459e-12
2.08467e-12
2.08462e-12
2.08482e-12
2.08462e-12
2.08484e-12
2.08447e-12
2.08465e-12
2.08463e-12
2.08457e-12
2.08463e-12
1.69021e-12
1.69017e-12
1.69006e-12
1.69014e-12
1.69025e-12
1.69023e-12
1.69033e-12
1.6902e-12
1.69017e-12
1.69007e-12
1.69006e-12
1.69052e-12
1.69037e-12
1.69042e-12
1.69013e-12
1.69022e-12
1.69017e-12
1.69024e-12
1.69032e-12
1.69011e-12
1.69014e-12
1.69017e-12
1.69025e-12
1.69025e-12
1.69026e-12
1.68998e-12
1.69016e-12
1.69029e-12
1.69031e-12
1.69013e-12
1.69025e-12
1.69019e-12
1.69023e-12
1.69022e-12
1.6902e-12
1.69059e-12
1.69019e-12
1.69014e-12
1.69039e-12
1.69038e-12
1.69023e-12
1.6902e-12
1.69024e-12
1.69014e-12
1.69041e-12
1.69014e-12
1.69018e-12
1.69028e-12
1.69029e-12
1.69022e-12
1.69023e-12
1.69028e-12
1.69013e-12
1.69027e-12
1.69009e-12
1.69043e-12
1.69035e-12
1.6902e-12
1.69024e-12
1.69039e-12
1.26539e-12
1.26536e-12
1.26555e-12
1.26536e-12
1.26534e-12
1.26512e-12
1.26521e-12
1.26521e-12
1.2655e-12
1.26542e-12
1.2654e-12
1.2653e-12
1.26524e-12
1.26528e-12
1.2652e-12
1.26531e-12
1.26551e-12
1.26531e-12
1.26526e-12
1.26528e-12
1.26528e-12
1.26518e-12
1.26536e-12
1.26519e-12
1.26534e-12
1.26544e-12
1.26539e-12
1.26528e-12
1.26514e-12
1.26532e-12
1.26528e-12
1.26543e-12
1.2654e-12
1.26513e-12
1.26542e-12
1.26516e-12
1.26538e-12
1.26533e-12
1.26515e-12
1.26524e-12
1.26525e-12
1.26522e-12
1.26533e-12
1.26537e-12
1.26521e-12
1.26554e-12
1.26543e-12
1.26535e-12
1.26501e-12
1.26527e-12
1.26528e-12
1.26524e-12
1.26542e-12
1.26523e-12
1.26536e-12
1.26503e-12
1.26523e-12
1.26526e-12
1.26538e-12
1.2653e-12
8.92211e-13
8.92127e-13
8.92094e-13
8.92257e-13
8.92204e-13
8.92262e-13
8.92123e-13
8.92253e-13
8.91925e-13
8.92257e-13
8.92072e-13
8.92e-13
8.92216e-13
8.92219e-13
8.92144e-13
8.92031e-13
8.91956e-13
8.92151e-13
8.92205e-13
8.92139e-13
8.92129e-13
8.92202e-13
8.91794e-13
8.92237e-13
8.91998e-13
8.92096e-13
8.92275e-13
8.92319e-13
8.92203e-13
8.92215e-13
8.91834e-13
8.92082e-13
8.92118e-13
8.92232e-13
8.91942e-13
8.92195e-13
8.92017e-13
8.9212e-13
8.91913e-13
8.9221e-13
8.9224e-13
8.92173e-13
8.91936e-13
8.92013e-13
8.92187e-13
8.9191e-13
8.92092e-13
8.92066e-13
8.92245e-13
8.92197e-13
8.92179e-13
8.92099e-13
8.92002e-13
8.92051e-13
8.91987e-13
8.92218e-13
8.92104e-13
8.92275e-13
8.92139e-13
8.91962e-13
6.00409e-13
6.00635e-13
6.0054e-13
6.00501e-13
6.00689e-13
6.00676e-13
6.00717e-13
6.00637e-13
6.00691e-13
6.00611e-13
6.00679e-13
6.00665e-13
6.00491e-13
6.00586e-13
6.0073e-13
6.00594e-13
6.00714e-13
6.00468e-13
6.00519e-13
6.0059e-13
6.007e-13
6.00646e-13
6.00931e-13
6.00545e-13
6.00756e-13
6.00441e-13
6.00517e-13
6.00543e-13
6.00583e-13
6.00515e-13
6.00903e-13
6.00495e-13
6.00478e-13
6.00567e-13
6.00726e-13
6.00538e-13
6.00655e-13
6.0067e-13
6.00916e-13
6.0044e-13
6.00482e-13
6.00509e-13
6.00896e-13
6.00606e-13
6.00674e-13
6.00725e-13
6.00719e-13
6.00555e-13
6.00651e-13
6.00555e-13
6.00523e-13
6.00729e-13
6.0083e-13
6.00777e-13
6.00676e-13
6.00802e-13
6.0076e-13
6.00462e-13
6.00587e-13
6.00817e-13
3.89711e-13
3.89459e-13
3.89598e-13
3.89749e-13
3.89442e-13
3.89483e-13
3.892e-13
3.8937e-13
3.89586e-13
3.89769e-13
3.89481e-13
3.89614e-13
3.8965e-13
3.89631e-13
3.89524e-13
3.89554e-13
3.89482e-13
3.89692e-13
3.89696e-13
3.89795e-13
3.8949e-13
3.89522e-13
3.89421e-13
3.89536e-13
3.89513e-13
3.89869e-13
3.89572e-13
3.89466e-13
3.89594e-13
3.89667e-13
3.89442e-13
3.89774e-13
3.89674e-13
3.89423e-13
3.8969e-13
3.89803e-13
3.89595e-13
3.89464e-13
3.89595e-13
3.8959e-13
3.89682e-13
3.89586e-13
3.8938e-13
3.89652e-13
3.89326e-13
3.89594e-13
3.89695e-13
3.89571e-13
3.89573e-13
3.89608e-13
3.89451e-13
3.8963e-13
3.89301e-13
3.89534e-13
3.89818e-13
3.89321e-13
3.89589e-13
3.89717e-13
3.89596e-13
3.89523e-13
2.44336e-13
2.44316e-13
2.44255e-13
2.43937e-13
2.44301e-13
2.4433e-13
2.44279e-13
2.44164e-13
2.44099e-13
2.44072e-13
2.44201e-13
2.44076e-13
2.44177e-13
2.44267e-13