/*--------------------------------*- C++ -*----------------------------------*\
| =========                 |                                                 |
| \\      /  F ield         | foam-extend: Open Source CFD                    |
|  \\    /   O peration     | Version:     4.0                                |
|   \\  /    A nd           | Web:         http://www.foam-extend.org         |
|    \\/     M anipulation  |                                                 |
\*---------------------------------------------------------------------------*/
FoamFile
{
    version     2.0;
    format      ascii;
    class       volScalarField;
    location    "3";
    object      dC1;
}
// * * * * * * * * * * * * * * * * * * * * * * * * * * * * * * * * * * * * * //

dimensions      [0 -1 0 0 0 0 0];

internalField   nonuniform List<scalar> 
6960
(
-3.00324e-16
-3.76435e-16
7.88432e-16
6.00431e-16
7.51135e-16
1.12323e-16
-4.8724e-16
4.48643e-16
7.13839e-16
3.68629e-17
3.37404e-16
-1.50704e-16
-5.2432e-16
5.26272e-16
-7.13839e-16
-5.62484e-16
-1.12323e-16
-4.1178e-16
-9.76649e-16
-7.12321e-16
-1.8735e-16
-3.75134e-17
6.75892e-16
-5.26055e-16
6.76108e-16
-3.00541e-16
5.25404e-16
-1.46237e-15
-7.50702e-16
-7.52436e-17
-8.24427e-16
-4.12864e-16
-1.8735e-16
1.13408e-16
-6.76759e-16
1.16422e-15
-1.13408e-16
1.89302e-16
-6.77193e-16
2.62594e-16
-3.73833e-16
-9.01189e-16
7.51135e-16
-1.88868e-16
5.25404e-16
7.54605e-17
-1.51355e-16
1.12107e-16
5.63568e-16
-5.62918e-16
5.63568e-16
-8.63675e-16
-7.12321e-16
-3.00758e-16
1.49837e-16
-7.51135e-16
2.64112e-16
-8.64109e-16
1.13841e-16
-3.37837e-16
-3.76001e-16
2.06215e-16
-4.48426e-16
3.17888e-16
1.7022e-16
3.56052e-16
5.7029e-17
-4.14816e-16
-4.87457e-16
5.99564e-16
9.32414e-17
-2.06866e-16
5.26055e-16
-3.36103e-16
-2.27466e-16
7.51786e-16
-5.82217e-16
4.88975e-16
1.47885e-16
-1.48969e-16
4.12214e-16
4.13298e-16
-9.38919e-17
-1.31839e-16
-9.43256e-17
2.44596e-16
-1.32273e-16
1.9082e-17
4.12864e-16
9.28077e-17
3.39138e-16
-5.25188e-16
-1.69569e-16
-2.42861e-16
-2.08167e-17
-2.23129e-16
3.56486e-16
3.9465e-16
1.10589e-16
-7.54605e-17
1.89085e-16
1.73472e-17
3.57136e-16
2.05998e-16
-4.88541e-16
-3.46945e-17
-7.32487e-16
-4.33247e-16
3.88144e-17
-9.28077e-17
-5.44486e-16
3.79471e-17
-6.57243e-16
-1.48753e-16
-6.96058e-16
2.63244e-16
-4.1178e-16
3.17454e-16
-4.12647e-16
-2.05782e-16
-1.41814e-16
-4.32814e-16
9.69277e-17
3.55618e-17
3.40223e-16
2.73219e-17
5.17598e-16
2.53703e-17
2.88398e-17
-5.06973e-16
2.14889e-16
3.00758e-16
-2.52619e-16
1.52005e-16
-7.76289e-17
7.58942e-17
3.47595e-16
2.07299e-16
-2.2855e-16
6.30355e-16
-4.51679e-16
6.80879e-17
3.55835e-16
1.0365e-16
1.67834e-16
-1.867e-16
1.58077e-16
-6.41848e-17
2.90566e-16
-1.51788e-18
3.01408e-17
5.35596e-16
2.32019e-16
3.85976e-17
-2.00144e-16
-6.28837e-18
1.31839e-16
2.90349e-16
-2.83194e-16
-5.7029e-17
-8.1532e-17
-5.06973e-16
6.50521e-17
-4.66207e-17
-1.17094e-17
-1.53957e-17
3.74483e-16
3.38271e-17
-4.48643e-16
7.67615e-17
-9.43256e-17
1.59595e-16
2.71051e-17
1.51788e-16
-8.73867e-17
3.88144e-17
1.7022e-16
-1.61112e-16
-1.97542e-16
1.04951e-16
-6.78711e-17
-4.46258e-16
1.63931e-16
-3.0813e-16
3.62124e-17
1.44849e-16
3.53884e-16
-1.5786e-16
-1.35308e-16
4.55365e-18
-1.70653e-16
1.13624e-16
9.97466e-18
-1.52873e-16
-2.70183e-16
-8.34836e-17
-1.67834e-16
-4.03323e-16
-3.0336e-16
3.49113e-17
2.14889e-16
1.71738e-16
-6.70037e-17
-5.96311e-17
-2.74303e-16
-6.83047e-17
-2.74954e-16
1.6675e-16
4.11997e-17
4.4886e-17
4.92228e-17
-3.07263e-16
-2.19443e-16
2.21828e-16
3.79471e-17
1.58944e-16
-3.10082e-17
-1.51571e-16
-1.79544e-16
9.71445e-17
1.5374e-16
3.51932e-16
-3.46945e-17
-2.14238e-16
-5.94143e-17
2.36356e-17
4.6187e-17
-1.92337e-16
-5.39933e-17
1.19479e-16
-1.0842e-16
2.32019e-17
-1.59811e-16
-5.78964e-16
-2.61076e-16
1.95156e-17
1.88868e-16
-5.44269e-17
5.33644e-16
3.05745e-17
-2.14022e-16
1.52222e-16
3.29814e-16
2.43078e-16
-4.64039e-17
-3.1225e-16
-4.52763e-16
1.39645e-16
1.1601e-16
-2.62811e-16
-5.05455e-16
1.48753e-16
1.47235e-16
1.88651e-16
-2.51535e-16
3.13985e-16
3.23092e-17
-1.51571e-16
-1.71304e-17
9.04225e-17
1.84314e-16
1.09721e-16
4.22839e-17
1.29887e-16
1.06469e-16
4.3238e-16
2.13371e-16
2.14672e-17
-7.76289e-17
7.80626e-17
3.19406e-16
1.29887e-16
-2.81242e-16
6.37511e-17
-3.23092e-17
2.22261e-16
4.55799e-16
2.49366e-17
1.45283e-17
-1.63931e-16
-2.64328e-16
6.33174e-17
9.47593e-17
1.62197e-16
9.60603e-17
-5.5728e-17
2.18575e-16
-1.42898e-16
1.65232e-16
9.71445e-17
1.13191e-16
-1.8258e-16
-1.93639e-16
3.82507e-16
-8.43509e-17
-6.09322e-17
-2.99023e-16
-1.02349e-16
-2.23562e-16
2.85145e-16
-2.50451e-16
-9.34582e-17
-3.25261e-18
3.81639e-17
2.46981e-16
-6.50521e-17
2.9924e-17
2.50668e-16
-7.6111e-17
1.22732e-16
-1.22949e-16
4.33681e-18
-2.09034e-16
-3.18755e-17
5.42101e-18
-1.74557e-16
-1.26635e-16
-2.05998e-17
-1.75858e-16
-2.07733e-16
-1.51788e-16
1.30104e-16
3.87928e-16
1.98192e-16
-2.12504e-17
2.84928e-16
-1.9082e-16
2.68448e-16
3.51282e-16
-3.90313e-18
-6.93889e-17
1.26852e-16
-1.93205e-16
6.31006e-17
-2.87747e-16
4.87024e-16
-5.9848e-17
-5.45137e-16
9.7795e-17
1.23382e-16
1.70437e-16
-1.9971e-16
1.01048e-16
-5.52943e-17
-1.02782e-16
2.81025e-16
-5.44269e-17
-4.18502e-17
-2.64979e-16
4.16334e-17
2.55655e-16
8.17488e-17
1.7087e-16
-3.0813e-16
1.11456e-16
-1.1666e-16
7.67615e-17
-3.13334e-16
4.4886e-17
4.98733e-18
-1.2425e-16
-1.51138e-16
-6.89553e-17
1.50921e-16
-9.30245e-17
8.32667e-17
-4.87891e-17
-1.74123e-16
-9.5193e-17
-6.04985e-17
2.00144e-16
-6.76542e-17
2.66714e-17
1.33357e-16
-1.31839e-16
-2.98806e-16
-4.74881e-17
4.05492e-17
5.24754e-17
1.77375e-16
2.51752e-16
-2.62377e-16
-2.7452e-16
1.11673e-16
-2.49366e-17
-5.37331e-16
2.56089e-16
-1.61546e-16
-1.01915e-17
-4.49293e-16
1.17311e-16
6.07153e-18
2.14238e-16
8.86877e-17
2.46114e-16
-2.18792e-16
-6.17995e-17
-1.09504e-16
2.94252e-16
4.03323e-17
2.94036e-16
1.71521e-16
-5.43185e-16
1.73472e-18
-2.01228e-16
1.57426e-16
-1.37043e-16
-2.46548e-16
1.26201e-16
9.06393e-17
1.59161e-16
-2.89916e-16
-1.10589e-16
3.93565e-16
-7.63278e-17
-9.82287e-17
2.5739e-16
3.10516e-16
-9.21572e-17
7.84962e-17
-2.83844e-16
5.47522e-16
2.30935e-16
-3.6646e-16
1.24683e-16
7.76289e-17
2.17491e-16
-2.69533e-16
-4.31512e-17
-3.25044e-16
-1.14058e-16
-8.86877e-17
2.9924e-17
-3.75134e-17
-1.03433e-16
1.09288e-16
2.12287e-16
-2.39392e-16
-2.08817e-16
1.82146e-17
3.23092e-17
4.75748e-16
2.40259e-16
8.00141e-17
-1.17311e-16
2.35055e-16
2.05565e-16
-8.34836e-17
-4.25875e-16
4.77049e-18
3.66677e-16
2.10335e-17
-4.53197e-17
-3.40439e-16
-1.13191e-16
4.18502e-17
-1.28803e-16
-1.08854e-16
-2.02746e-16
-1.89735e-16
-4.53197e-17
1.28153e-16
5.94143e-17
5.96311e-17
-1.39212e-16
1.53957e-17
1.36826e-16
-2.29634e-16
-1.51788e-18
-4.51462e-16
-2.4568e-16
-1.4615e-16
-1.24466e-16
6.35342e-17
-1.97325e-16
-8.45678e-18
-3.77953e-16
-3.25261e-16
-9.6494e-17
-2.63895e-16
8.67362e-18
6.13658e-17
5.07407e-17
7.58942e-18
4.43656e-16
1.48102e-16
1.65666e-16
-9.32414e-17
2.17274e-16
2.81893e-18
-9.1073e-18
-3.61039e-16
-1.72605e-16
1.53089e-16
2.29851e-16
-3.38922e-16
1.94289e-16
1.18178e-16
3.17454e-16
8.26162e-17
-6.93889e-18
1.68919e-16
-5.51642e-16
-4.42138e-16
-2.35272e-16
1.15793e-16
-2.96204e-16
3.36536e-16
8.17488e-17
1.86483e-16
-1.88868e-16
5.26922e-17
-5.94143e-17
8.34836e-17
-9.47593e-17
9.97466e-18
7.50268e-17
2.20093e-16
6.37511e-17
5.0307e-17
8.89046e-17
2.9924e-17
-5.21284e-16
2.35055e-16
2.3679e-16
2.88181e-16
-8.45678e-18
1.36393e-16
1.57209e-16
2.70183e-16
2.62377e-17
2.15323e-16
-8.84709e-17
5.35596e-17
1.25767e-16
1.60896e-16
-5.81132e-17
3.16587e-16
-1.0842e-16
4.09395e-16
1.27285e-16
-1.3314e-16
-5.61617e-17
-8.19657e-17
-2.35922e-16
2.04914e-16
-2.89699e-16
1.76291e-16
-9.34582e-17
4.79217e-17
1.44633e-16
3.03143e-16
1.59595e-16
-1.34007e-16
-3.44776e-17
1.02132e-16
-7.28584e-17
-1.35525e-16
-3.03577e-17
2.20093e-16
-1.95156e-18
8.32667e-17
-3.40656e-16
1.20346e-16
-3.68629e-18
3.62124e-17
2.9924e-17
-3.28513e-16
-1.72605e-16
1.22515e-16
8.00141e-17
4.81386e-17
-5.34078e-16
1.14925e-17
-4.32814e-16
-2.92735e-16
1.77375e-16
-1.58294e-17
-2.04047e-16
1.09504e-16
3.46945e-18
-1.39862e-16
-1.22081e-16
-1.89735e-16
-2.84061e-17
-1.19262e-16
1.48753e-16
6.39679e-17
1.40946e-16
1.34007e-16
-2.97939e-16
1.19696e-16
2.24647e-16
-8.54351e-17
-2.02963e-16
-7.80626e-18
1.34875e-16
-1.6263e-16
1.49403e-16
1.41814e-16
-1.21864e-16
6.72205e-18
-1.97325e-17
-1.98626e-16
1.27719e-16
-5.33427e-17
2.10118e-16
-1.39862e-16
-2.1207e-16
-1.16443e-16
1.43332e-16
-1.1601e-16
5.42101e-18
1.65883e-16
9.97466e-18
-3.03577e-16
1.11022e-16
7.48099e-17
-3.29597e-17
-8.89046e-18
8.50015e-17
7.80626e-17
9.32414e-17
2.39826e-16
8.54351e-17
-2.69316e-16
-1.40513e-16
8.10983e-17
3.07046e-16
1.37477e-16
-4.72712e-17
7.02563e-17
1.66533e-16
-9.73614e-17
1.53957e-16
-9.5193e-17
7.32921e-17
9.47593e-17
3.83808e-17
-1.60462e-16
-1.23382e-16
1.34007e-16
-2.41343e-16
-1.88217e-16
-2.50668e-16
7.50268e-17
-1.27502e-16
-5.48606e-17
1.7911e-16
-8.84709e-17
4.44523e-17
-6.35342e-17
8.21825e-17
1.84314e-17
-1.92771e-16
-1.15359e-16
-2.24213e-16
9.60603e-17
-7.52436e-17
4.12431e-16
1.35092e-16
1.62847e-16
2.54571e-16
6.07153e-18
1.53089e-16
2.18792e-16
-2.28333e-16
-4.14165e-17
4.05492e-17
-6.07153e-18
-3.51715e-16
-8.13152e-17
3.57787e-16
-2.0383e-16
-2.92735e-17
2.05348e-16
4.22839e-17
1.63064e-16
1.20563e-16
-1.40296e-16
6.04985e-17
1.25767e-17
3.26995e-16
-1.25334e-16
3.0748e-16
-2.84061e-17
-1.50704e-16
1.06469e-16
-1.29887e-16
-1.02132e-16
1.07119e-16
1.59378e-16
1.19262e-17
-7.87131e-17
8.6953e-17
1.51788e-18
-1.73256e-16
8.32667e-17
1.59378e-16
4.27176e-17
1.76508e-16
-1.07119e-16
1.66967e-17
3.21141e-16
6.50521e-18
1.51138e-16
1.17528e-16
-2.75821e-16
9.47593e-17
9.90961e-17
1.88651e-17
-2.10769e-16
3.9465e-17
-5.07407e-17
5.33427e-17
-1.2425e-16
1.54174e-16
5.11743e-17
2.53703e-17
1.26852e-16
-1.11673e-16
-2.42428e-16
-9.97466e-18
-1.95156e-18
2.48282e-16
1.40946e-16
3.5345e-17
-1.40729e-16
-1.64799e-17
1.98626e-16
-6.83047e-17
3.36103e-17
5.83301e-17
-4.68375e-17
5.31259e-17
-7.7412e-17
-3.23092e-17
2.97071e-17
1.14275e-16
6.50521e-17
-2.06649e-16
-2.79724e-17
1.93205e-16
1.02999e-16
-5.55112e-17
-1.85615e-16
-7.39426e-17
2.05565e-16
1.90603e-16
1.31622e-16
-1.31622e-16
-1.40513e-16
-5.07407e-17
-2.21611e-16
-2.61293e-16
1.07987e-16
-4.33681e-18
1.97758e-16
-1.39645e-16
2.02095e-16
-1.41163e-16
-1.83664e-16
6.93889e-18
-2.91867e-16
-1.55475e-16
-1.84748e-16
-2.81893e-16
-1.71521e-16
1.51138e-16
-2.23779e-16
3.00107e-16
-2.46981e-16
-2.38524e-17
1.36176e-16
-4.57533e-17
-1.95156e-18
1.8323e-16
-3.18972e-16
-9.93129e-17
-1.71304e-17
2.98372e-16
1.65883e-16
1.70437e-16
-1.63281e-16
2.92735e-17
-1.62413e-16
1.50487e-16
1.51788e-17
8.32667e-17
4.6187e-17
7.30752e-17
2.01228e-16
-1.25117e-16
2.02312e-16
-1.47451e-17
4.25007e-17
-3.1225e-17
1.06469e-16
-2.07299e-16
-6.50521e-17
1.47018e-16
-2.08167e-17
-2.43512e-16
7.30752e-17
-3.96818e-17
7.52436e-17
-3.85542e-16
-6.41848e-17
-1.91687e-16
-1.43332e-16
-5.59448e-17
-5.7029e-17
-9.32414e-18
3.33501e-16
1.32923e-16
9.04225e-17
1.17094e-17
-1.32923e-16
1.7434e-16
-1.6263e-17
1.22298e-16
2.00577e-16
-8.65193e-17
-4.42354e-17
2.48716e-16
3.66677e-16
-2.32019e-16
3.62124e-17
-4.29344e-17
1.58077e-16
1.69136e-17
1.68268e-16
-2.31369e-16
-3.25261e-17
-1.18395e-16
-7.00395e-17
-7.28584e-17
5.89806e-17
7.02563e-17
9.75782e-18
-4.21538e-16
-3.23092e-17
-7.00395e-17
3.11166e-16
9.71445e-17
9.08561e-17
1.11022e-16
4.33681e-17
-5.39282e-16
8.76035e-17
-2.44596e-16
-3.40006e-16
3.29597e-17
-1.92988e-17
2.24213e-16
6.1149e-17
2.98589e-16
-8.97719e-17
5.29091e-17
-2.61726e-16
1.33574e-16
1.1254e-16
2.17057e-16
7.54605e-17
-1.08203e-16
-5.81132e-17
-6.50521e-19
1.95156e-16
-9.75782e-17
1.58727e-16
1.6198e-16
8.86877e-17
1.46584e-16
-1.87133e-16
9.30245e-17
2.47415e-16
1.11239e-16
-5.31259e-17
-1.9147e-16
-4.31512e-17
1.10372e-16
1.83447e-16
3.18322e-16
-8.54351e-17
-2.63244e-16
-4.74664e-16
-2.66714e-17
-1.39645e-16
-2.22912e-16
1.53957e-16
-2.80375e-16
-2.23346e-17
-7.04731e-17
4.16334e-17
-1.22732e-16
-9.56266e-17
-1.47451e-16
-2.30285e-16
6.89553e-17
8.73867e-17
3.79471e-17
-2.68882e-17
-1.35308e-16
-4.4886e-17
-5.83301e-17
-1.15793e-16
1.38127e-16
-1.05818e-16
2.91e-16
-5.63785e-18
-2.88181e-16
5.29091e-17
3.03793e-16
1.95156e-17
-5.48606e-17
-2.30718e-16
-2.59124e-16
-4.70544e-17
-1.27068e-16
4.4951e-16
-1.30104e-18
2.67147e-16
-2.83194e-16
2.81893e-18
-1.661e-16
-1.0018e-16
2.73219e-17
-1.25984e-16
3.72966e-17
-7.1991e-17
-4.6187e-17
9.75782e-18
4.0766e-17
-1.82146e-17
3.12901e-16
1.8735e-16
2.38741e-16
-4.90059e-17
2.25297e-16
-3.55618e-17
-5.72459e-17
1.26201e-16
-1.88651e-17
-2.28767e-16
-1.82363e-16
2.90566e-17
-1.22081e-16
1.81495e-16
-1.32273e-16
-3.03577e-17
1.33357e-16
-1.1601e-16
2.7929e-16
1.84098e-16
1.19262e-17
1.38778e-16
-3.72966e-17
1.34007e-16
3.46945e-18
2.55872e-17
-2.35706e-16
3.21358e-16
3.85976e-17
-1.17311e-16
-2.13588e-16
2.93602e-16
-2.00794e-16
-1.77592e-16
6.93889e-18
5.13912e-17
2.42644e-16
4.72712e-17
-1.93422e-16
-2.61076e-16
7.82794e-17
5.29091e-17
-2.48716e-16
1.7087e-16
2.10552e-16
-3.25477e-16
-1.27068e-16
2.84061e-17
8.41341e-17
-2.3332e-16
-2.01662e-17
9.82287e-17
-6.91721e-17
1.16443e-16
6.50521e-18
2.45247e-16
-9.62772e-17
1.14925e-17
-1.02566e-16
2.81893e-18
-3.10516e-16
-9.99634e-17
-8.63025e-17
8.6953e-17
-1.52005e-16
1.13408e-16
1.11673e-16
-1.82363e-16
1.04517e-16
6.00648e-17
-1.40946e-16
-1.45934e-16
-1.11456e-16
-5.94143e-17
1.19479e-16
1.14275e-16
2.08167e-17
1.04951e-16
-1.81495e-16
1.30755e-16
4.98733e-17
1.38561e-16
-3.34802e-16
-8.86877e-17
-5.9848e-17
-2.13154e-16
3.43692e-16
-6.93889e-17
8.60857e-17
-3.79471e-17
4.51028e-17
-2.11203e-16
5.42101e-17
-1.4962e-16
1.26852e-16
-3.12684e-16
-1.06252e-16
4.0766e-17
-9.21572e-17
1.30104e-16
2.30068e-16
2.47198e-17
2.35272e-16
-7.28584e-17
-1.89302e-16
7.069e-17
-5.85469e-18
-4.98733e-17
2.28767e-16
-6.44016e-17
-2.74086e-16
-1.43332e-16
4.55365e-18
2.50668e-16
-2.40693e-16
-3.20924e-17
4.81386e-17
1.72388e-16
6.22332e-17
-3.59521e-16
-7.58942e-17
-3.16587e-17
-2.86229e-17
-1.97758e-16
1.4615e-16
4.44523e-17
5.33427e-17
-1.27502e-16
-1.32273e-17
2.20527e-16
2.07083e-16
-3.05745e-17
2.81893e-18
-2.51535e-16
-2.91867e-16
4.18502e-17
-5.85469e-17
-1.0842e-16
-4.2067e-17
3.42608e-17
2.61943e-16
1.12107e-16
2.66714e-17
-9.88792e-17
6.02816e-17
2.64762e-16
-1.64799e-17
2.39609e-16
5.20417e-17
1.80194e-16
4.09828e-17
3.88144e-17
-7.87131e-17
3.62124e-17
-9.06393e-17
2.00577e-16
7.13405e-17
-1.86483e-17
-4.53197e-17
-1.5374e-16
4.33681e-17
-1.51788e-17
-5.83301e-17
1.56125e-17
1.27068e-16
1.76725e-16
-5.22585e-17
-1.97325e-16
4.31512e-17
-6.33174e-17
8.71699e-17
-2.97071e-17
1.15359e-16
-2.54571e-16
1.63281e-16
1.10589e-16
-6.41848e-17
5.20417e-17
-1.60462e-17
-2.05131e-16
-3.76218e-16
1.53089e-16
-2.19009e-17
9.25909e-17
-9.32414e-18
-2.18792e-16
4.159e-16
9.97466e-18
-1.60462e-17
2.36356e-17
-3.26562e-16
1.62847e-16
9.30245e-17
-6.63532e-17
1.09288e-16
1.32706e-16
-1.69136e-16
5.83301e-17
1.04083e-16
4.53197e-17
1.51788e-18
-8.41341e-17
-1.72605e-16
1.96674e-16
-3.08564e-16
-2.15973e-16
-1.63064e-16
-3.76218e-16
1.8735e-16
2.21394e-16
-3.31766e-16
-1.47451e-16
2.11419e-16
-8.08815e-17
-3.07913e-17
-1.09721e-16
3.80338e-16
1.79327e-16
-4.33681e-18
-3.55618e-17
-3.54534e-16
7.76289e-17
4.68375e-17
-4.01155e-17
1.0842e-17
-1.73472e-16
4.74881e-17
9.75782e-17
3.47378e-16
1.47451e-17
-9.54098e-17
-3.57787e-17
1.33574e-16
4.22839e-17
-1.65883e-16
-4.96565e-17
-2.19443e-16
6.59195e-17
-7.89299e-17
3.23092e-17
1.20997e-16
-4.57533e-17
-1.54607e-16
-1.48969e-16
4.55365e-18
-4.66207e-17
1.04951e-16
-1.69136e-17
-8.1532e-17
-6.07153e-17
1.6263e-16
-5.68122e-17
-6.72205e-17
7.80626e-17
-1.14709e-16
-2.2508e-16
-1.64799e-17
1.98192e-16
-1.71304e-17
-1.72388e-16
-1.34658e-16
-1.39212e-16
-3.51282e-17
-1.15793e-16
1.71087e-16
1.09721e-16
3.22225e-16
1.13408e-16
-1.77809e-16
3.25261e-17
-2.4091e-16
-1.36609e-16
-2.9577e-16
7.67615e-17
1.66967e-16
-1.71304e-17
-7.63278e-17
-1.12974e-16
-2.19009e-17
2.23346e-17
1.4203e-16
3.84024e-16
-1.63281e-16
1.82146e-17
7.48099e-17
-2.04914e-16
-1.04517e-16
-1.86266e-16
-5.81132e-17
3.16587e-17
-1.0018e-16
1.68702e-16
-1.92988e-16
9.21572e-17
1.77592e-16
2.9924e-17
2.27466e-16
3.09214e-16
4.57533e-17
-2.29851e-16
1.53089e-16
5.31259e-17
1.14709e-16
-2.3332e-16
1.78893e-16
4.51028e-17
1.79978e-17
1.73472e-18
2.11636e-16
1.53957e-17
-3.36103e-17
1.08854e-16
-1.00831e-16
2.29851e-17
-6.67869e-17
-1.14925e-17
-1.98626e-16
2.56305e-16
8.0231e-17
-3.46728e-16
1.9971e-16
-5.76796e-17
4.64039e-17
9.84456e-17
4.77049e-18
-6.46184e-17
-2.50451e-16
-2.96204e-16
7.1991e-17
8.23994e-17
-9.82287e-17
-9.73614e-17
1.35525e-16
1.26201e-16
-6.46184e-17
1.51355e-16
1.5786e-16
9.82287e-17
-7.069e-17
-2.23129e-16
-1.66967e-17
-2.49366e-16
-2.9924e-17
1.53523e-16
-8.89046e-18
1.9082e-17
3.73833e-16
1.27936e-16
2.27032e-16
-4.2067e-17
-6.657e-17
6.50521e-17
1.6198e-16
-4.00287e-16
6.31006e-17
-6.57027e-17
6.09322e-17
-1.09938e-16
-2.12504e-17
-1.24683e-16
1.61546e-16
-3.77302e-17
-1.17094e-17
1.09288e-16
-3.1225e-17
-1.06252e-16
-1.10589e-17
-7.80626e-18
2.51535e-17
1.73906e-16
1.68485e-16
1.03216e-16
-3.98986e-17
1.10589e-16
-5.85469e-17
-1.65666e-16
2.26165e-16
-7.58942e-18
8.08815e-17
-1.4203e-16
-1.17094e-16
2.05565e-16
4.11997e-17
-2.55872e-17
6.50521e-18
1.0842e-18
4.34765e-16
1.31405e-16
-1.38778e-16
6.07153e-18
9.04225e-17
-5.05238e-17
-4.90059e-17
2.14889e-16
2.32019e-17
1.42898e-16
2.31152e-16
-2.77556e-17
-1.95156e-17
1.47451e-16
5.91974e-17
-1.16226e-16
5.42101e-18
1.49403e-16
2.34188e-17
1.26201e-16
-1.60462e-17
-2.27682e-16
-3.43692e-16
1.29454e-16
-2.66714e-17
1.38995e-16
-1.91687e-16
1.74773e-16
-1.65449e-16
-1.97758e-16
-1.26418e-16
-8.91214e-17
5.52943e-17
1.00831e-16
5.59448e-17
7.069e-17
8.99888e-17
7.80626e-18
-2.76472e-16
1.71304e-16
-2.51535e-17
-2.53703e-17
1.05818e-16
1.10589e-17
6.80879e-17
-2.55872e-17
-1.60896e-16
8.93383e-17
3.33284e-16
7.26415e-17
-3.97685e-16
2.30501e-16
1.40079e-16
7.37257e-17
-1.82363e-16
-2.00144e-16
1.06685e-16
-2.9165e-16
1.16226e-16
1.24683e-16
-2.71267e-16
-2.01445e-16
-5.48606e-17
-1.73472e-17
-1.76508e-16
1.47235e-16
-1.70003e-16
-7.71952e-17
-1.16226e-16
1.07987e-16
-1.47235e-16
-8.30499e-17
6.657e-17
4.33681e-18
-1.06035e-16
3.23743e-16
1.27936e-16
-4.72712e-17
1.34007e-16
-3.40439e-17
2.8276e-16
1.5439e-16
-2.3744e-16
1.02132e-16
7.54605e-17
6.5269e-17
1.66967e-17
-6.39679e-17
-1.63715e-16
-7.78457e-17
-9.95298e-17
4.92228e-17
-1.73472e-17
1.55041e-16
-2.20527e-16
-1.29887e-16
-1.77592e-16
3.03577e-18
-1.28153e-16
-4.57533e-16
7.97973e-17
1.6198e-16
-1.35742e-16
-8.89046e-17
5.50775e-17
1.36609e-16
-5.42101e-17
1.4615e-16
-5.78964e-17
2.40042e-16
2.55655e-16
-7.1991e-17
-2.1684e-17
1.20997e-16
-9.32414e-18
1.71087e-16
-2.64328e-16
5.20417e-17
1.02566e-16
5.20417e-17
1.04083e-17
9.21572e-17
4.83554e-17
9.36751e-17
2.66714e-17
-1.50054e-16
-2.38524e-17
-6.35342e-17
3.18755e-17
1.63931e-16
-1.15142e-16
1.9494e-16
-2.80375e-16
9.73614e-17
-6.85216e-17
-6.89553e-17
-7.37257e-18
2.36356e-17
1.22298e-16
6.245e-17
-1.07987e-16
7.24247e-17
8.06646e-17
7.84962e-17
-1.29671e-16
-1.97108e-16
4.2067e-17
7.7412e-17
-1.84314e-17
4.98733e-17
2.13371e-16
-7.63278e-17
2.94903e-17
1.47451e-17
9.49761e-17
1.39428e-16
-9.32414e-18
3.90313e-18
-2.79724e-17
-2.13805e-16
-1.85615e-16
-1.4203e-16
-1.35959e-16
9.15067e-17
-4.14165e-17
-1.18178e-16
-5.85469e-18
-7.1991e-17
2.41994e-16
-1.25551e-16
-1.46801e-16
-5.74627e-17
-6.98226e-17
-1.69136e-16
-4.59702e-17
-1.48969e-16
1.43115e-16
1.79978e-17
-6.31006e-17
2.42861e-16
1.59595e-16
1.97758e-16
-1.86483e-16
5.48606e-17
-3.14419e-17
8.65193e-17
1.45717e-16
2.83627e-16
-1.7434e-16
6.74374e-17
7.09068e-17
5.87638e-17
-1.23599e-17
1.21431e-16
-7.11237e-17
7.1991e-17
2.81893e-18
-1.22949e-16
4.85723e-17
-1.36826e-16
6.50521e-17
7.6111e-17
1.05384e-16
8.08815e-17
4.35849e-17
6.33174e-17
-1.69136e-17
8.0231e-18
1.53306e-16
-6.07153e-17
1.20346e-16
-1.45283e-17
2.21177e-17
-4.79217e-17
-2.77556e-17
-2.25297e-16
1.58294e-17
-6.85216e-17
3.33934e-17
1.70653e-16
8.45678e-18
1.32273e-17
-2.86229e-17
7.58942e-18
1.4615e-16
1.19045e-16
-2.12504e-17
7.41594e-17
-1.19262e-16
2.47198e-17
1.64799e-17
6.96058e-17
5.96311e-17
-5.87638e-17
1.05818e-16
1.18178e-16
2.90349e-16
-7.93636e-17
-9.30245e-17
6.20164e-17
1.17094e-17
-1.39645e-16
9.19403e-17
-1.51788e-17
2.73219e-17
4.11997e-17
-1.2013e-16
-2.92951e-16
-5.63785e-17
3.14419e-17
-3.27429e-17
-1.04951e-16
-3.16587e-17
-6.20164e-17
2.292e-16
1.65449e-16
1.53089e-16
-3.14419e-17
5.91974e-17
2.3679e-16
-5.81132e-17
9.47593e-17
-5.29091e-17
-3.03577e-17
2.39826e-16
-3.92481e-17
-1.0365e-16
1.27285e-16
2.1684e-17
1.23382e-16
6.93889e-17
5.63785e-18
-8.60857e-17
6.31006e-17
-3.88144e-17
5.74627e-17
-3.38271e-17
3.85976e-17
1.48536e-16
4.90059e-17
-1.01481e-16
8.21825e-17
1.34441e-17
1.47451e-17
3.5345e-17
5.24754e-17
1.35092e-16
-2.25948e-16
-4.85723e-17
1.36176e-16
-2.23346e-17
5.26922e-17
-4.53197e-17
8.41341e-17
-2.73869e-16
3.90313e-17
5.20417e-18
2.64545e-17
3.49113e-17
-7.13405e-17
-1.88651e-17
-8.08815e-17
-1.81712e-16
-7.78457e-17
7.69784e-17
2.55438e-16
-7.84962e-17
1.03433e-16
7.39426e-17
-1.47668e-16
-3.83808e-17
-4.85723e-17
-1.51788e-18
6.59195e-17
-6.5269e-17
5.63785e-18
2.19009e-17
-1.27068e-16
-1.57426e-16
5.55112e-17
-4.96565e-17
-3.62124e-17
-7.48099e-17
-6.72205e-17
-2.5392e-16
1.19696e-16
2.02963e-16
2.84061e-17
-1.43115e-17
3.18755e-17
3.38271e-17
6.31006e-17
1.65449e-16
-2.42861e-16
-4.03323e-17
4.11997e-18
8.45678e-17
-1.50704e-16
-2.0383e-16
-1.14709e-16
1.86483e-16
-1.69786e-16
1.18829e-16
-1.29237e-16
-2.12937e-16
-6.35342e-17
1.15576e-16
4.09828e-17
1.47451e-16
6.00648e-17
-1.74123e-16
-9.21572e-17
8.65193e-17
-1.27068e-16
2.05348e-16
-1.78026e-16
-9.97466e-18
1.0842e-16
7.15573e-17
-8.13152e-17
-5.9848e-17
2.60209e-16
-9.32414e-18
4.81386e-17
2.47198e-17
-9.36751e-17
1.28153e-16
-1.25767e-16
-4.98733e-18
6.20164e-17
7.45931e-17
1.28586e-16
1.42898e-16
4.94396e-17
1.1666e-16
4.46691e-17
-4.77049e-18
2.57823e-16
1.48969e-16
2.73219e-17
1.7499e-16
1.00614e-16
1.39428e-16
1.40296e-16
2.33103e-16
-2.4568e-16
-2.84061e-17
-8.99888e-17
2.4503e-17
-1.6263e-16
-7.84962e-17
-5.9848e-17
-1.19262e-16
1.78026e-16
1.05384e-16
1.27502e-16
-2.0383e-17
4.74881e-17
-6.93889e-18
8.80372e-17
-1.01698e-16
9.08561e-17
-1.09721e-16
-1.89735e-16
3.42608e-17
7.37257e-17
-6.13658e-17
-1.48102e-16
4.16334e-17
-1.73472e-18
5.85469e-17
4.55365e-17
3.57787e-17
-2.53703e-17
9.71445e-17
9.97466e-17
2.27899e-16
1.03216e-16
2.38524e-18
4.6187e-17
-1.54824e-16
-2.11636e-16
1.60896e-16
9.08561e-17
1.25334e-16
1.47885e-16
9.49761e-17
1.71304e-17
-1.43332e-16
-1.11022e-16
-1.79978e-17
-7.13405e-17
-3.03577e-18
6.41848e-17
2.77556e-17
-8.37004e-17
8.0231e-18
1.27936e-17
2.0383e-17
-1.32273e-16
2.25514e-17
2.4503e-17
-1.86483e-17
-5.89806e-17
-3.72966e-17
1.07119e-16
-6.50521e-18
3.49113e-17
-1.07553e-16
1.17094e-16
-3.57787e-17
1.51355e-16
2.03179e-16
-2.00577e-16
-5.20417e-17
-8.1532e-17
-1.92771e-16
1.30104e-17
-7.48099e-17
-3.20924e-17
2.1684e-17
-1.09938e-16
4.2067e-17
-1.25767e-17
-5.0307e-17
3.59955e-17
6.1149e-17
6.59195e-17
-6.93889e-17
2.66714e-17
-6.63532e-17
-1.09721e-16
3.72966e-17
3.9465e-17
-2.53703e-17
-2.2096e-16
-2.15323e-16
1.33357e-16
1.51355e-16
1.09504e-16
7.89299e-17
1.4962e-17
2.34188e-17
5.42101e-17
2.55438e-16
-2.75387e-17
-2.12287e-16
-6.39679e-17
-1.30972e-16
-2.07083e-16
-2.10335e-17
-4.29344e-17
6.33174e-17
-5.35596e-17
7.78457e-17
1.51138e-16
2.41777e-16
-6.09322e-17
3.16587e-17
-8.43509e-17
4.68375e-17
-3.68629e-17
-1.00397e-16
4.27176e-17
9.80119e-17
1.99493e-17
-8.08815e-17
1.01481e-16
-2.4503e-17
3.1225e-17
1.25767e-16
-9.17235e-17
-2.88398e-16
7.45931e-17
-1.66967e-17
2.64545e-17
1.32273e-16
-2.88398e-17
-6.59195e-17
-1.71304e-17
9.97466e-17
1.27936e-17
7.80626e-17
1.25767e-17
2.86229e-17
1.36826e-16
-1.43115e-16
3.33934e-17
1.24466e-16
-7.35089e-17
2.81893e-17
5.44269e-17
-3.05745e-17
-7.04731e-17
9.30245e-17
2.73219e-16
3.05311e-16
-7.84962e-17
-9.88792e-17
-1.61763e-16
1.74123e-16
5.24754e-17
-3.16587e-17
9.54098e-17
-1.85182e-16
6.35342e-17
1.14058e-16
-3.62124e-17
-3.55618e-17
-1.77809e-17
-1.36609e-17
5.07407e-17
-1.95156e-17
1.34441e-17
-5.22585e-17
5.63785e-18
-9.75782e-17
-4.81386e-17
1.02999e-16
-6.09322e-17
-8.89046e-18
-1.2902e-16
-1.69136e-17
-3.68629e-17
1.12107e-16
-1.06035e-16
1.16443e-16
-1.48536e-16
7.63278e-17
-1.96024e-16
-1.96891e-16
-1.30104e-17
1.99927e-16
-6.72205e-18
-2.25514e-17
-1.11239e-16
-2.73219e-17
2.14672e-17
-8.97719e-17
-9.32414e-17
8.19657e-17
6.63532e-17
-1.48319e-16
1.15142e-16
3.18755e-17
-1.55041e-16
1.99927e-16
2.47198e-17
-2.64545e-17
1.84314e-17
1.55908e-16
-1.15142e-16
7.11237e-17
9.84456e-17
-1.19262e-17
-1.36609e-16
-8.54351e-17
4.46691e-16
-1.58294e-16
5.05238e-17
-2.77556e-17
-7.24247e-17
1.32706e-16
-1.07987e-16
1.88217e-16
9.32414e-17
-6.09322e-17
-4.68375e-17
-6.54858e-17
1.63281e-16
-8.54351e-17
-6.28837e-18
4.74881e-17
7.43763e-17
1.7911e-16
-1.64582e-16
-7.35089e-17
-1.42247e-16
-8.71699e-17
3.14419e-17
1.43115e-17
6.76542e-17
4.68375e-17
-6.15827e-17
-1.36609e-16
-2.38524e-17
1.40729e-16
4.85723e-17
-2.13588e-16
2.14238e-16
1.0842e-16
-1.47451e-17
-6.93889e-17
-1.31839e-16
1.27936e-17
2.17708e-16
1.16226e-16
2.21394e-16
6.28837e-18
-1.16877e-16
-2.71051e-17
-4.4886e-17
1.19045e-16
-1.53523e-16
-1.66967e-16
1.41814e-16
-8.1532e-17
-7.02563e-17
-4.46691e-17
-3.68629e-18
-7.09068e-17
3.90313e-18
-6.54858e-17
5.59448e-17
-1.79978e-17
-3.18755e-17
-7.93636e-17
-2.47415e-16
7.1991e-17
-1.19913e-16
-4.01155e-17
-2.81893e-18
-1.67834e-16
-8.67362e-18
1.043e-16
-6.07153e-18
3.49113e-17
5.87638e-17
-6.76542e-17
-1.8323e-16
2.0383e-16
-8.76035e-17
-1.01048e-16
-2.53703e-17
1.14925e-17
9.06393e-17
8.45678e-18
1.02782e-16
8.6953e-17
1.34658e-16
-3.27429e-17
-4.18502e-17
-7.80626e-18
5.63785e-18
5.05238e-17
8.89046e-18
4.55365e-18
-1.91904e-16
2.38524e-17
9.99634e-17
2.21177e-17
2.08167e-17
-1.24683e-16
8.45678e-18
-2.10552e-16
4.98733e-17
-2.05998e-17
-2.26381e-16
-1.81929e-16
1.01264e-16
3.46945e-17
-1.29454e-16
-5.11743e-17
1.11673e-16
5.29091e-17
-6.5269e-17
2.25514e-17
9.95298e-17
-7.32921e-17
1.6263e-17
1.20346e-16
-1.04083e-17
7.15573e-17
2.32019e-17
-1.48753e-16
-1.97325e-17
4.40186e-17
-1.06035e-16
-1.34224e-16
1.19913e-16
1.13408e-16
-2.64545e-17
7.11237e-17
1.95373e-16
-1.69352e-16
-2.73219e-17
1.04951e-16
-1.19479e-16
9.71445e-17
-1.08854e-16
5.5728e-17
-9.54098e-18
4.64039e-17
2.05998e-17
4.51028e-17
1.68702e-16
-2.04481e-16
6.657e-17
5.61617e-17
4.55365e-18
-1.0777e-16
5.37764e-17
-2.79724e-17
-5.26922e-17
1.70653e-16
4.44523e-17
2.02963e-16
2.39392e-16
-1.77592e-16
-1.22515e-16
-1.23599e-16
-1.01264e-16
-1.08637e-16
7.00395e-17
2.90566e-16
-2.12504e-17
-4.57533e-17
1.55258e-16
-2.32019e-17
1.64799e-17
-6.37511e-17
1.15576e-16
1.18829e-16
7.069e-17
1.06685e-16
6.57027e-17
-2.1684e-19
1.06252e-17
6.28837e-17
2.7929e-16
-1.29454e-16
1.30972e-16
3.83808e-17
-3.05745e-17
8.17488e-17
-3.07913e-17
-3.96818e-17
-2.19009e-17
3.29597e-17
-1.88868e-16
-5.76796e-17
-2.60209e-18
-4.92228e-17
-5.94143e-17
4.87891e-17
1.58727e-16
7.17742e-17
2.08167e-16
-1.69786e-16
1.92988e-16
-3.07913e-17
1.27936e-17
-2.07516e-16
6.91721e-17
-1.16226e-16
6.48353e-17
6.59195e-17
8.45678e-18
-1.66533e-16
-1.50921e-16
-7.15573e-18
1.53089e-16
1.38778e-16
-1.25551e-16
-6.28837e-17
-4.64039e-17
-1.63931e-16
-7.32921e-17
1.57209e-16
-1.10805e-16
1.22949e-16
1.43982e-16
1.29887e-16
-2.97071e-17
-2.23346e-17
-1.77809e-17
4.42354e-17
-3.00758e-16
-1.53957e-17
1.34441e-17
1.52005e-16
-1.92988e-17
-1.88651e-17
2.23346e-17
-8.67362e-19
6.00648e-17
-1.81495e-16
7.7412e-17
1.51788e-17
-2.15973e-16
1.43548e-16
-2.1272e-16
-8.10983e-17
3.20924e-17
5.29091e-17
-1.60245e-16
3.29597e-17
-4.38018e-17
-7.78457e-17
2.29851e-17
9.54098e-17
7.24247e-17
8.93383e-17
1.57426e-16
-2.36356e-17
1.02999e-16
4.11997e-18
-1.18612e-16
1.88868e-16
-9.73614e-17
-6.07153e-17
-3.49113e-17
2.01662e-16
-1.9559e-16
-5.61617e-17
-1.60028e-16
7.87131e-17
5.33427e-17
1.25117e-16
-4.70544e-17
4.27176e-17
7.09068e-17
1.42681e-16
1.19262e-16
1.19913e-16
1.86483e-17
1.2425e-16
-9.43256e-17
-1.59161e-16
6.22332e-17
-1.10372e-16
-2.06215e-16
9.1073e-17
-1.06252e-16
1.86916e-16
-5.9848e-17
6.72205e-18
1.31622e-16
-2.13805e-16
-4.72712e-17
1.7434e-16
6.20164e-17
7.93636e-17
-1.11022e-16
1.99276e-16
2.34405e-16
1.7022e-16
-5.44269e-17
1.88651e-17
8.89046e-18
-5.1608e-17
4.0766e-17
-5.09575e-17
-6.50521e-19
-1.02782e-16
1.94506e-16
-1.41163e-16
-1.74773e-16
2.86229e-17
1.33357e-16
8.13152e-17
-3.79471e-17
5.94143e-17
-1.0842e-17
3.38271e-17
1.92988e-17
1.05168e-16
-7.67615e-17
-9.73614e-17
5.18249e-17
8.67362e-19
-2.52836e-16
-3.51282e-17
1.40513e-16
1.73039e-16
9.08561e-17
-2.12937e-16
-7.1991e-17
-9.41087e-17
-3.03577e-17
-1.63498e-16
-3.98986e-17
-1.07336e-16
3.68629e-17
1.52222e-16
7.69784e-17
-2.1684e-17
1.26852e-16
5.85469e-17
-6.07153e-18
-3.72966e-17
7.02563e-17
7.30752e-17
7.41594e-17
-4.55365e-18
3.88144e-17
6.09322e-17
5.46438e-17
7.56773e-17
1.27502e-16
-1.9082e-17
1.29237e-16
-7.84962e-17
-3.33934e-17
-5.29091e-17
-1.22949e-16
-5.52943e-17
-7.7412e-17
-8.5652e-17
1.82363e-16
4.25007e-17
7.24247e-17
2.15973e-16
2.90566e-17
1.39212e-16
-8.23994e-17
7.58942e-18
5.85469e-18
-2.29851e-17
-7.35089e-17
-8.60857e-17
-2.62377e-17
5.94143e-17
3.57787e-17
1.12757e-17
-5.29091e-17
8.63025e-17
-1.01048e-16
-2.4503e-17
-3.64292e-17
-2.33971e-16
4.53197e-17
2.64545e-17
4.77049e-18
-6.74374e-17
-1.41597e-16
5.33427e-17
-7.15573e-18
2.34188e-17
-3.46945e-18
-1.66967e-17
-8.89046e-18
1.14925e-17
1.10372e-16
-5.46438e-17
-1.66533e-16
-6.31006e-17
-4.94396e-17
1.18612e-16
6.61363e-17
1.51788e-16
-9.15067e-17
-1.97542e-16
5.39933e-17
-5.63785e-18
-4.33681e-17
2.86229e-17
-1.0018e-16
-5.44269e-17
-5.09575e-17
-1.52656e-16
2.36139e-16
1.94072e-16
-1.19479e-16
-8.41341e-17
2.71051e-17
1.82146e-17
-1.30104e-18
4.27176e-17
5.13912e-17
-1.11239e-16
-1.24033e-16
-7.43763e-17
-2.25514e-17
-3.83808e-17
1.11239e-16
-7.41594e-17
-8.30499e-17
-1.43765e-16
1.01264e-16
5.52943e-17
1.07119e-16
-5.68122e-17
-3.25261e-18
1.4138e-16
-5.39933e-17
-6.00648e-17
1.65232e-16
1.14709e-16
3.49113e-17
1.37477e-16
-7.32921e-17
7.41594e-17