/*--------------------------------*- C++ -*----------------------------------*\
| =========                 |                                                 |
| \\      /  F ield         | foam-extend: Open Source CFD                    |
|  \\    /   O peration     | Version:     4.0                                |
|   \\  /    A nd           | Web:         http://www.foam-extend.org         |
|    \\/     M anipulation  |                                                 |
\*---------------------------------------------------------------------------*/
FoamFile
{
    version     2.0;
    format      ascii;
    class       volVectorField;
    location    "18";
    object      bodyForce;
}
// * * * * * * * * * * * * * * * * * * * * * * * * * * * * * * * * * * * * * //

dimensions      [1 -2 -2 0 0 0 0];

internalField   nonuniform List<vector> 
6960
(
(2.21304e-31 -7.4555e-15 -0)
(-2.21304e-31 -7.4555e-15 -0)
(-2.58188e-31 -7.4555e-15 -0)
(-4.24167e-31 -7.4555e-15 -0)
(-2.95073e-31 -7.4555e-15 -0)
(6.82355e-31 -7.4555e-15 -0)
(5.53261e-32 -7.4555e-15 -0)
(-3.13515e-31 -7.4555e-15 -0)
(-5.53261e-32 -7.4555e-15 -0)
(-3.13515e-31 -7.4555e-15 -0)
(1.65978e-31 -7.4555e-15 -0)
(-1.8442e-32 -7.4555e-15 -0)
(-3.31957e-31 -7.4555e-15 -0)
(-5.53261e-32 -7.4555e-15 -0)
(3.68841e-32 -7.4555e-15 -0)
(1.8442e-32 -7.4555e-15 -0)
(5.71703e-31 -7.4555e-15 -0)
(5.71703e-31 -7.4555e-15 -0)
(-2.95073e-31 -7.4555e-15 -0)
(-4.97935e-31 -7.4555e-15 -0)
(-2.21304e-31 -7.4555e-15 -0)
(-5.53261e-32 -7.4555e-15 -0)
(-3.68841e-32 -7.4555e-15 -0)
(3.13515e-31 -7.4555e-15 -0)
(-1.29094e-31 -7.4555e-15 -0)
(2.02862e-31 -7.4555e-15 -0)
(2.58188e-31 -7.4555e-15 -0)
(1.10652e-31 -7.4555e-15 -0)
(4.42609e-31 -7.4555e-15 -0)
(9.40544e-31 -7.4555e-15 -0)
(1.8442e-32 -7.4555e-15 -0)
(-9.22102e-31 -7.4555e-15 -0)
(-7.37681e-32 -7.4555e-15 -0)
(2.21304e-31 -7.4555e-15 -0)
(1.29094e-31 -7.4555e-15 -0)
(-1.10652e-31 -7.4555e-15 -0)
(-1.10652e-31 -7.4555e-15 -0)
(-2.95073e-31 -7.4555e-15 -0)
(3.68841e-32 -7.4555e-15 -0)
(6.82355e-31 -7.4555e-15 -0)
(5.90145e-31 -7.4555e-15 -0)
(9.22102e-32 -7.4555e-15 -0)
(-1.29094e-31 -7.4555e-15 -0)
(-1.47536e-31 -7.4555e-15 -0)
(4.05725e-31 -7.4555e-15 -0)
(9.58986e-31 -7.4555e-15 -0)
(1.10652e-31 -7.4555e-15 -0)
(-2.58188e-31 -7.4555e-15 -0)
(-1.47536e-31 -7.4555e-15 -0)
(-2.21304e-31 -7.4555e-15 -0)
(-5.53261e-32 -7.4555e-15 -0)
(1.10652e-31 -7.4555e-15 -0)
(2.58188e-31 -7.4555e-15 -0)
(-3.50399e-31 -7.4555e-15 -0)
(-4.97935e-31 -7.4555e-15 -0)
(-4.61051e-31 -7.4555e-15 -0)
(-9.9587e-31 -7.4555e-15 -0)
(-7.74565e-31 -7.4555e-15 -0)
(-4.42609e-31 -7.4555e-15 -0)
(-3.68841e-31 -7.4555e-15 -0)
(8.5942e-31 -7.4555e-15 -0)
(-5.72947e-31 -7.4555e-15 -0)
(-1.00266e-30 -7.4555e-15 -0)
(-1.28913e-30 -7.4555e-15 -0)
(-7.87802e-31 -7.4555e-15 -0)
(2.07693e-30 -7.4555e-15 -0)
(1.43237e-31 -7.4555e-15 -0)
(-1.07428e-30 -7.4555e-15 -0)
(-7.16183e-32 -7.4555e-15 -0)
(-9.31038e-31 -7.4555e-15 -0)
(4.2971e-31 -7.4555e-15 -0)
(-0 -7.4555e-15 -0)
(-1.07428e-30 -7.4555e-15 -0)
(-2.14855e-31 -7.4555e-15 -0)
(1.43237e-31 -7.4555e-15 -0)
(7.16183e-32 -7.4555e-15 -0)
(1.71884e-30 -7.4555e-15 -0)
(1.86208e-30 -7.4555e-15 -0)
(-1.00266e-30 -7.4555e-15 -0)
(-1.64722e-30 -7.4555e-15 -0)
(-5.72947e-31 -7.4555e-15 -0)
(-1.43237e-31 -7.4555e-15 -0)
(-0 -7.4555e-15 -0)
(1.07428e-30 -7.4555e-15 -0)
(-3.58092e-31 -7.4555e-15 -0)
(4.2971e-31 -7.4555e-15 -0)
(8.5942e-31 -7.4555e-15 -0)
(3.58092e-31 -7.4555e-15 -0)
(1.43237e-30 -7.4555e-15 -0)
(2.79312e-30 -7.4555e-15 -0)
(-7.16183e-32 -7.4555e-15 -0)
(-3.00797e-30 -7.4555e-15 -0)
(-7.16183e-32 -7.4555e-15 -0)
(5.01328e-31 -7.4555e-15 -0)
(2.86473e-31 -7.4555e-15 -0)
(-1.43237e-31 -7.4555e-15 -0)
(-3.58092e-31 -7.4555e-15 -0)
(-9.31038e-31 -7.4555e-15 -0)
(2.86473e-31 -7.4555e-15 -0)
(2.00531e-30 -7.4555e-15 -0)
(1.71884e-30 -7.4555e-15 -0)
(3.58092e-31 -7.4555e-15 -0)
(-5.01328e-31 -7.4555e-15 -0)
(-3.58092e-31 -7.4555e-15 -0)
(1.28913e-30 -7.4555e-15 -0)
(2.79312e-30 -7.4555e-15 -0)
(3.58092e-31 -7.4555e-15 -0)
(-7.16183e-31 -7.4555e-15 -0)
(-4.2971e-31 -7.4555e-15 -0)
(-6.44565e-31 -7.4555e-15 -0)
(-1.43237e-31 -7.4555e-15 -0)
(2.86473e-31 -7.4555e-15 -0)
(7.87802e-31 -7.4555e-15 -0)
(-1.07428e-30 -7.4555e-15 -0)
(-1.64722e-30 -7.4555e-15 -0)
(-1.28913e-30 -7.4555e-15 -0)
(-3.00797e-30 -7.4555e-15 -0)
(-2.43502e-30 -7.4555e-15 -0)
(-1.28913e-30 -7.4555e-15 -0)
(-9.31038e-31 -7.4555e-15 -0)
(1.04297e-30 -7.4555e-15 -0)
(-1.1125e-30 -7.4555e-15 -0)
(-1.39062e-30 -7.4555e-15 -0)
(-1.80781e-30 -7.4555e-15 -0)
(-1.46016e-30 -7.4555e-15 -0)
(3.19843e-30 -7.4555e-15 -0)
(6.95312e-32 -7.4555e-15 -0)
(-1.52969e-30 -7.4555e-15 -0)
(-0 -7.4555e-15 -0)
(-1.66875e-30 -7.4555e-15 -0)
(6.25781e-31 -7.4555e-15 -0)
(1.39062e-31 -7.4555e-15 -0)
(-1.80781e-30 -7.4555e-15 -0)
(-4.86718e-31 -7.4555e-15 -0)
(4.86718e-31 -7.4555e-15 -0)
(-6.95312e-32 -7.4555e-15 -0)
(2.71172e-30 -7.4555e-15 -0)
(3.26797e-30 -7.4555e-15 -0)
(-1.52969e-30 -7.4555e-15 -0)
(-2.78125e-30 -7.4555e-15 -0)
(-6.25781e-31 -7.4555e-15 -0)
(-5.5625e-31 -7.4555e-15 -0)
(-2.78125e-31 -7.4555e-15 -0)
(1.94687e-30 -7.4555e-15 -0)
(-8.34374e-31 -7.4555e-15 -0)
(8.34374e-31 -7.4555e-15 -0)
(1.66875e-30 -7.4555e-15 -0)
(4.17187e-31 -7.4555e-15 -0)
(2.29453e-30 -7.4555e-15 -0)
(4.86718e-30 -7.4555e-15 -0)
(-0 -7.4555e-15 -0)
(-4.79765e-30 -7.4555e-15 -0)
(-6.95312e-32 -7.4555e-15 -0)
(8.34374e-31 -7.4555e-15 -0)
(4.86718e-31 -7.4555e-15 -0)
(-2.78125e-31 -7.4555e-15 -0)
(-7.64843e-31 -7.4555e-15 -0)
(-1.73828e-30 -7.4555e-15 -0)
(4.17187e-31 -7.4555e-15 -0)
(3.54609e-30 -7.4555e-15 -0)
(2.92031e-30 -7.4555e-15 -0)
(4.86718e-31 -7.4555e-15 -0)
(-6.95312e-31 -7.4555e-15 -0)
(-8.34374e-31 -7.4555e-15 -0)
(2.29453e-30 -7.4555e-15 -0)
(5.07578e-30 -7.4555e-15 -0)
(4.17187e-31 -7.4555e-15 -0)
(-1.32109e-30 -7.4555e-15 -0)
(-7.64843e-31 -7.4555e-15 -0)
(-1.25156e-30 -7.4555e-15 -0)
(-4.17187e-31 -7.4555e-15 -0)
(7.64843e-31 -7.4555e-15 -0)
(1.32109e-30 -7.4555e-15 -0)
(-1.87734e-30 -7.4555e-15 -0)
(-2.71172e-30 -7.4555e-15 -0)
(-2.15547e-30 -7.4555e-15 -0)
(-5.14531e-30 -7.4555e-15 -0)
(-4.03281e-30 -7.4555e-15 -0)
(-2.08594e-30 -7.4555e-15 -0)
(-1.66875e-30 -7.4555e-15 -0)
(1.3501e-30 -7.4555e-15 -0)
(-1.75513e-30 -7.4555e-15 -0)
(-2.02515e-30 -7.4555e-15 -0)
(-2.56519e-30 -7.4555e-15 -0)
(-2.16016e-30 -7.4555e-15 -0)
(4.72534e-30 -7.4555e-15 -0)
(4.05029e-31 -7.4555e-15 -0)
(-2.29517e-30 -7.4555e-15 -0)
(-4.05029e-31 -7.4555e-15 -0)
(-2.43018e-30 -7.4555e-15 -0)
(9.45068e-31 -7.4555e-15 -0)
(-0 -7.4555e-15 -0)
(-2.43018e-30 -7.4555e-15 -0)
(-5.40039e-31 -7.4555e-15 -0)
(6.75049e-31 -7.4555e-15 -0)
(-0 -7.4555e-15 -0)
(3.78027e-30 -7.4555e-15 -0)
(4.45532e-30 -7.4555e-15 -0)
(-2.29517e-30 -7.4555e-15 -0)
(-3.78027e-30 -7.4555e-15 -0)
(-1.21509e-30 -7.4555e-15 -0)
(-4.05029e-31 -7.4555e-15 -0)
(-5.40039e-31 -7.4555e-15 -0)
(2.56519e-30 -7.4555e-15 -0)
(-8.10059e-31 -7.4555e-15 -0)
(1.21509e-30 -7.4555e-15 -0)
(2.43018e-30 -7.4555e-15 -0)
(5.40039e-31 -7.4555e-15 -0)
(3.24023e-30 -7.4555e-15 -0)
(7.02051e-30 -7.4555e-15 -0)
(-1.3501e-31 -7.4555e-15 -0)
(-6.75049e-30 -7.4555e-15 -0)
(-1.3501e-31 -7.4555e-15 -0)
(1.3501e-30 -7.4555e-15 -0)
(5.40039e-31 -7.4555e-15 -0)
(-5.40039e-31 -7.4555e-15 -0)
(-8.10059e-31 -7.4555e-15 -0)
(-2.43018e-30 -7.4555e-15 -0)
(5.40039e-31 -7.4555e-15 -0)
(5.13037e-30 -7.4555e-15 -0)
(4.1853e-30 -7.4555e-15 -0)
(5.40039e-31 -7.4555e-15 -0)
(-9.45068e-31 -7.4555e-15 -0)
(-1.21509e-30 -7.4555e-15 -0)
(2.97021e-30 -7.4555e-15 -0)
(7.02051e-30 -7.4555e-15 -0)
(6.75049e-31 -7.4555e-15 -0)
(-1.75513e-30 -7.4555e-15 -0)
(-9.45068e-31 -7.4555e-15 -0)
(-1.62012e-30 -7.4555e-15 -0)
(-1.3501e-31 -7.4555e-15 -0)
(8.10059e-31 -7.4555e-15 -0)
(1.89014e-30 -7.4555e-15 -0)
(-2.43018e-30 -7.4555e-15 -0)
(-4.32031e-30 -7.4555e-15 -0)
(-3.24023e-30 -7.4555e-15 -0)
(-7.15552e-30 -7.4555e-15 -0)
(-5.5354e-30 -7.4555e-15 -0)
(-3.10522e-30 -7.4555e-15 -0)
(-2.43018e-30 -7.4555e-15 -0)
(2.35935e-30 -7.4555e-15 -0)
(-2.6215e-30 -7.4555e-15 -0)
(-2.88365e-30 -7.4555e-15 -0)
(-3.14581e-30 -7.4555e-15 -0)
(-3.14581e-30 -7.4555e-15 -0)
(6.16054e-30 -7.4555e-15 -0)
(7.86451e-31 -7.4555e-15 -0)
(-2.88365e-30 -7.4555e-15 -0)
(-6.55376e-31 -7.4555e-15 -0)
(-2.88365e-30 -7.4555e-15 -0)
(1.0486e-30 -7.4555e-15 -0)
(1.31075e-31 -7.4555e-15 -0)
(-2.88365e-30 -7.4555e-15 -0)
(-3.93226e-31 -7.4555e-15 -0)
(6.55376e-31 -7.4555e-15 -0)
(-2.6215e-31 -7.4555e-15 -0)
(4.98086e-30 -7.4555e-15 -0)
(6.02946e-30 -7.4555e-15 -0)
(-2.6215e-30 -7.4555e-15 -0)
(-5.50516e-30 -7.4555e-15 -0)
(-1.44183e-30 -7.4555e-15 -0)
(-3.93226e-31 -7.4555e-15 -0)
(-6.55376e-31 -7.4555e-15 -0)
(3.53903e-30 -7.4555e-15 -0)
(-1.17968e-30 -7.4555e-15 -0)
(1.5729e-30 -7.4555e-15 -0)
(3.01473e-30 -7.4555e-15 -0)
(7.86451e-31 -7.4555e-15 -0)
(4.58763e-30 -7.4555e-15 -0)
(8.78204e-30 -7.4555e-15 -0)
(-9.17527e-31 -7.4555e-15 -0)
(-8.65096e-30 -7.4555e-15 -0)
(3.93226e-31 -7.4555e-15 -0)
(1.17968e-30 -7.4555e-15 -0)
(9.17527e-31 -7.4555e-15 -0)
(-3.93226e-31 -7.4555e-15 -0)
(-1.31075e-30 -7.4555e-15 -0)
(-3.53903e-30 -7.4555e-15 -0)
(7.86451e-31 -7.4555e-15 -0)
(6.94699e-30 -7.4555e-15 -0)
(5.24301e-30 -7.4555e-15 -0)
(5.24301e-31 -7.4555e-15 -0)
(-1.17968e-30 -7.4555e-15 -0)
(-1.31075e-30 -7.4555e-15 -0)
(4.19441e-30 -7.4555e-15 -0)
(8.78204e-30 -7.4555e-15 -0)
(1.0486e-30 -7.4555e-15 -0)
(-2.0972e-30 -7.4555e-15 -0)
(-1.31075e-30 -7.4555e-15 -0)
(-1.83505e-30 -7.4555e-15 -0)
(-6.55376e-31 -7.4555e-15 -0)
(6.55376e-31 -7.4555e-15 -0)
(2.49043e-30 -7.4555e-15 -0)
(-3.14581e-30 -7.4555e-15 -0)
(-5.24301e-30 -7.4555e-15 -0)
(-4.06333e-30 -7.4555e-15 -0)
(-9.43742e-30 -7.4555e-15 -0)
(-7.47129e-30 -7.4555e-15 -0)
(-4.45656e-30 -7.4555e-15 -0)
(-2.88366e-30 -7.4555e-15 -0)
(3.05413e-30 -7.4555e-15 -0)
(-2.54511e-30 -7.4555e-15 -0)
(-3.30864e-30 -7.4555e-15 -0)
(-3.81766e-30 -7.4555e-15 -0)
(-3.30864e-30 -7.4555e-15 -0)
(7.1263e-30 -7.4555e-15 -0)
(1.01804e-30 -7.4555e-15 -0)
(-3.56315e-30 -7.4555e-15 -0)
(-1.01804e-30 -7.4555e-15 -0)
(-3.30864e-30 -7.4555e-15 -0)
(1.78158e-30 -7.4555e-15 -0)
(-5.09021e-31 -7.4555e-15 -0)
(-3.56315e-30 -7.4555e-15 -0)
(-2.54511e-31 -7.4555e-15 -0)
(5.09021e-31 -7.4555e-15 -0)
(-0 -7.4555e-15 -0)
(5.34473e-30 -7.4555e-15 -0)
(7.38081e-30 -7.4555e-15 -0)
(-2.54511e-30 -7.4555e-15 -0)
(-6.10826e-30 -7.4555e-15 -0)
(-2.2906e-30 -7.4555e-15 -0)
(-7.63532e-31 -7.4555e-15 -0)
(-2.54511e-31 -7.4555e-15 -0)
(3.81766e-30 -7.4555e-15 -0)
(-1.01804e-30 -7.4555e-15 -0)
(2.03609e-30 -7.4555e-15 -0)
(3.81766e-30 -7.4555e-15 -0)
(1.27255e-30 -7.4555e-15 -0)
(5.09021e-30 -7.4555e-15 -0)
(1.04349e-29 -7.4555e-15 -0)
(-1.01804e-30 -7.4555e-15 -0)
(-1.06894e-29 -7.4555e-15 -0)
(-2.54511e-31 -7.4555e-15 -0)
(1.78158e-30 -7.4555e-15 -0)
(1.78158e-30 -7.4555e-15 -0)
(-5.09021e-31 -7.4555e-15 -0)
(-1.52706e-30 -7.4555e-15 -0)
(-4.8357e-30 -7.4555e-15 -0)
(5.09021e-31 -7.4555e-15 -0)
(8.90788e-30 -7.4555e-15 -0)
(6.87179e-30 -7.4555e-15 -0)
(5.09021e-31 -7.4555e-15 -0)
(-1.52706e-30 -7.4555e-15 -0)
(-1.27255e-30 -7.4555e-15 -0)
(4.8357e-30 -7.4555e-15 -0)
(1.11985e-29 -7.4555e-15 -0)
(1.27255e-30 -7.4555e-15 -0)
(-2.2906e-30 -7.4555e-15 -0)
(-2.03609e-30 -7.4555e-15 -0)
(-2.54511e-30 -7.4555e-15 -0)
(-5.09021e-31 -7.4555e-15 -0)
(1.27255e-30 -7.4555e-15 -0)
(2.79962e-30 -7.4555e-15 -0)
(-3.81766e-30 -7.4555e-15 -0)
(-6.61728e-30 -7.4555e-15 -0)
(-5.59924e-30 -7.4555e-15 -0)
(-1.11985e-29 -7.4555e-15 -0)
(-9.67141e-30 -7.4555e-15 -0)
(-5.59924e-30 -7.4555e-15 -0)
(-3.81766e-30 -7.4555e-15 -0)
(3.7064e-30 -7.4555e-15 -0)
(-1.97675e-30 -7.4555e-15 -0)
(-3.9535e-30 -7.4555e-15 -0)
(-5.18897e-30 -7.4555e-15 -0)
(-4.20059e-30 -7.4555e-15 -0)
(8.40118e-30 -7.4555e-15 -0)
(7.41281e-31 -7.4555e-15 -0)
(-4.20059e-30 -7.4555e-15 -0)
(-1.23547e-30 -7.4555e-15 -0)
(-3.9535e-30 -7.4555e-15 -0)
(2.22384e-30 -7.4555e-15 -0)
(-2.47094e-31 -7.4555e-15 -0)
(-4.69478e-30 -7.4555e-15 -0)
(-2.47094e-31 -7.4555e-15 -0)
(1.97675e-30 -7.4555e-15 -0)
(-2.47094e-31 -7.4555e-15 -0)
(5.93025e-30 -7.4555e-15 -0)
(8.89537e-30 -7.4555e-15 -0)
(-3.45931e-30 -7.4555e-15 -0)
(-6.91862e-30 -7.4555e-15 -0)
(-2.47094e-30 -7.4555e-15 -0)
(-1.23547e-30 -7.4555e-15 -0)
(-7.41281e-31 -7.4555e-15 -0)
(5.43606e-30 -7.4555e-15 -0)
(-1.48256e-30 -7.4555e-15 -0)
(2.22384e-30 -7.4555e-15 -0)
(4.69478e-30 -7.4555e-15 -0)
(1.72966e-30 -7.4555e-15 -0)
(6.17734e-30 -7.4555e-15 -0)
(1.23547e-29 -7.4555e-15 -0)
(-2.22384e-30 -7.4555e-15 -0)
(-1.23547e-29 -7.4555e-15 -0)
(2.47094e-31 -7.4555e-15 -0)
(1.97675e-30 -7.4555e-15 -0)
(1.72966e-30 -7.4555e-15 -0)
(-0 -7.4555e-15 -0)
(-1.72966e-30 -7.4555e-15 -0)
(-6.17734e-30 -7.4555e-15 -0)
(2.47094e-31 -7.4555e-15 -0)
(1.08721e-29 -7.4555e-15 -0)
(8.15409e-30 -7.4555e-15 -0)
(7.41281e-31 -7.4555e-15 -0)
(-1.72966e-30 -7.4555e-15 -0)
(-1.97675e-30 -7.4555e-15 -0)
(6.42443e-30 -7.4555e-15 -0)
(1.33431e-29 -7.4555e-15 -0)
(1.23547e-30 -7.4555e-15 -0)
(-2.71803e-30 -7.4555e-15 -0)
(-2.22384e-30 -7.4555e-15 -0)
(-3.21222e-30 -7.4555e-15 -0)
(-2.47094e-31 -7.4555e-15 -0)
(1.48256e-30 -7.4555e-15 -0)
(2.96512e-30 -7.4555e-15 -0)
(-4.44769e-30 -7.4555e-15 -0)
(-8.15409e-30 -7.4555e-15 -0)
(-6.42444e-30 -7.4555e-15 -0)
(-1.28489e-29 -7.4555e-15 -0)
(-1.21076e-29 -7.4555e-15 -0)
(-7.16572e-30 -7.4555e-15 -0)
(-4.69478e-30 -7.4555e-15 -0)
(4.07818e-30 -7.4555e-15 -0)
(-2.87871e-30 -7.4555e-15 -0)
(-3.59839e-30 -7.4555e-15 -0)
(-5.99732e-30 -7.4555e-15 -0)
(-5.27764e-30 -7.4555e-15 -0)
(1.07952e-29 -7.4555e-15 -0)
(2.39893e-31 -7.4555e-15 -0)
(-5.27764e-30 -7.4555e-15 -0)
(-1.19946e-30 -7.4555e-15 -0)
(-5.03775e-30 -7.4555e-15 -0)
(2.39893e-30 -7.4555e-15 -0)
(-2.39893e-31 -7.4555e-15 -0)
(-4.55796e-30 -7.4555e-15 -0)
(-9.59571e-31 -7.4555e-15 -0)
(1.67925e-30 -7.4555e-15 -0)
(2.39893e-31 -7.4555e-15 -0)
(7.19678e-30 -7.4555e-15 -0)
(9.8356e-30 -7.4555e-15 -0)
(-3.3585e-30 -7.4555e-15 -0)
(-9.11592e-30 -7.4555e-15 -0)
(-3.1186e-30 -7.4555e-15 -0)
(-2.39893e-31 -7.4555e-15 -0)
(-1.19946e-30 -7.4555e-15 -0)
(5.27764e-30 -7.4555e-15 -0)
(-9.59571e-31 -7.4555e-15 -0)
(3.1186e-30 -7.4555e-15 -0)
(4.79785e-30 -7.4555e-15 -0)
(1.43936e-30 -7.4555e-15 -0)
(8.15635e-30 -7.4555e-15 -0)
(1.46335e-29 -7.4555e-15 -0)
(-2.15903e-30 -7.4555e-15 -0)
(-1.5593e-29 -7.4555e-15 -0)
(-0 -7.4555e-15 -0)
(4.07818e-30 -7.4555e-15 -0)
(2.15903e-30 -7.4555e-15 -0)
(-1.19946e-30 -7.4555e-15 -0)
(-1.91914e-30 -7.4555e-15 -0)
(-7.19678e-30 -7.4555e-15 -0)
(-2.39893e-31 -7.4555e-15 -0)
(1.27143e-29 -7.4555e-15 -0)
(9.59571e-30 -7.4555e-15 -0)
(7.19678e-31 -7.4555e-15 -0)
(-9.59571e-31 -7.4555e-15 -0)
(-2.39893e-30 -7.4555e-15 -0)
(6.95689e-30 -7.4555e-15 -0)
(1.63127e-29 -7.4555e-15 -0)
(1.19946e-30 -7.4555e-15 -0)
(-3.11861e-30 -7.4555e-15 -0)
(-2.63882e-30 -7.4555e-15 -0)
(-5.03775e-30 -7.4555e-15 -0)
(-4.79785e-31 -7.4555e-15 -0)
(1.91914e-30 -7.4555e-15 -0)
(4.55796e-30 -7.4555e-15 -0)
(-5.75743e-30 -7.4555e-15 -0)
(-9.35582e-30 -7.4555e-15 -0)
(-8.63614e-30 -7.4555e-15 -0)
(-1.48733e-29 -7.4555e-15 -0)
(-1.29542e-29 -7.4555e-15 -0)
(-8.87603e-30 -7.4555e-15 -0)
(-5.99732e-30 -7.4555e-15 -0)
(4.19223e-30 -7.4555e-15 -0)
(-2.79482e-30 -7.4555e-15 -0)
(-4.65803e-30 -7.4555e-15 -0)
(-6.52124e-30 -7.4555e-15 -0)
(-6.52124e-30 -7.4555e-15 -0)
(1.11793e-29 -7.4555e-15 -0)
(2.32902e-30 -7.4555e-15 -0)
(-6.98705e-30 -7.4555e-15 -0)
(-2.32902e-30 -7.4555e-15 -0)
(-5.58964e-30 -7.4555e-15 -0)
(4.19223e-30 -7.4555e-15 -0)
(-4.65803e-31 -7.4555e-15 -0)
(-5.58964e-30 -7.4555e-15 -0)
(-9.31606e-31 -7.4555e-15 -0)
(1.86321e-30 -7.4555e-15 -0)
(9.31606e-31 -7.4555e-15 -0)
(7.45285e-30 -7.4555e-15 -0)
(1.11793e-29 -7.4555e-15 -0)
(-3.26062e-30 -7.4555e-15 -0)
(-9.78187e-30 -7.4555e-15 -0)
(-4.19223e-30 -7.4555e-15 -0)
(-1.39741e-30 -7.4555e-15 -0)
(-1.86321e-30 -7.4555e-15 -0)
(7.45285e-30 -7.4555e-15 -0)
(-9.31606e-31 -7.4555e-15 -0)
(3.26062e-30 -7.4555e-15 -0)
(6.52124e-30 -7.4555e-15 -0)
(1.86321e-30 -7.4555e-15 -0)
(8.85026e-30 -7.4555e-15 -0)
(1.67689e-29 -7.4555e-15 -0)
(-2.32902e-30 -7.4555e-15 -0)
(-1.77005e-29 -7.4555e-15 -0)
(-4.65803e-31 -7.4555e-15 -0)
(4.19223e-30 -7.4555e-15 -0)
(3.72643e-30 -7.4555e-15 -0)
(-1.39741e-30 -7.4555e-15 -0)
(-3.72643e-30 -7.4555e-15 -0)
(-8.38446e-30 -7.4555e-15 -0)
(-0 -7.4555e-15 -0)
(1.49057e-29 -7.4555e-15 -0)
(1.11793e-29 -7.4555e-15 -0)
(9.31606e-31 -7.4555e-15 -0)
(-9.31606e-31 -7.4555e-15 -0)
(-3.72643e-30 -7.4555e-15 -0)
(9.78187e-30 -7.4555e-15 -0)
(1.86321e-29 -7.4555e-15 -0)
(9.31606e-31 -7.4555e-15 -0)
(-2.79482e-30 -7.4555e-15 -0)
(-4.65803e-30 -7.4555e-15 -0)
(-5.58964e-30 -7.4555e-15 -0)
(-4.65803e-31 -7.4555e-15 -0)
(2.79482e-30 -7.4555e-15 -0)
(5.12384e-30 -7.4555e-15 -0)
(-6.05544e-30 -7.4555e-15 -0)
(-1.07135e-29 -7.4555e-15 -0)
(-9.31607e-30 -7.4555e-15 -0)
(-1.77005e-29 -7.4555e-15 -0)
(-1.53715e-29 -7.4555e-15 -0)
(-1.07135e-29 -7.4555e-15 -0)
(-7.45285e-30 -7.4555e-15 -0)
(4.52228e-30 -7.4555e-15 -0)
(-3.61783e-30 -7.4555e-15 -0)
(-4.97451e-30 -7.4555e-15 -0)
(-7.23566e-30 -7.4555e-15 -0)
(-6.78343e-30 -7.4555e-15 -0)
(1.26624e-29 -7.4555e-15 -0)
(1.35669e-30 -7.4555e-15 -0)
(-6.78343e-30 -7.4555e-15 -0)
(-2.71337e-30 -7.4555e-15 -0)
(-6.78343e-30 -7.4555e-15 -0)
(4.52229e-30 -7.4555e-15 -0)
(-4.52229e-31 -7.4555e-15 -0)
(-7.23566e-30 -7.4555e-15 -0)
(-9.04457e-31 -7.4555e-15 -0)
(2.71337e-30 -7.4555e-15 -0)
(4.52229e-31 -7.4555e-15 -0)
(9.04457e-30 -7.4555e-15 -0)
(1.26624e-29 -7.4555e-15 -0)
(-3.61783e-30 -7.4555e-15 -0)
(-1.17579e-29 -7.4555e-15 -0)
(-4.52228e-30 -7.4555e-15 -0)
(-2.26114e-30 -7.4555e-15 -0)
(-1.80891e-30 -7.4555e-15 -0)
(8.59234e-30 -7.4555e-15 -0)
(-0 -7.4555e-15 -0)
(2.71337e-30 -7.4555e-15 -0)
(6.78343e-30 -7.4555e-15 -0)
(3.1656e-30 -7.4555e-15 -0)
(9.4968e-30 -7.4555e-15 -0)
(1.85414e-29 -7.4555e-15 -0)
(-2.26114e-30 -7.4555e-15 -0)
(-1.94458e-29 -7.4555e-15 -0)
(-9.04457e-31 -7.4555e-15 -0)
(4.07006e-30 -7.4555e-15 -0)
(4.52229e-30 -7.4555e-15 -0)
(-1.35669e-30 -7.4555e-15 -0)
(-3.61783e-30 -7.4555e-15 -0)
(-1.04013e-29 -7.4555e-15 -0)
(-0 -7.4555e-15 -0)
(1.80891e-29 -7.4555e-15 -0)
(1.13057e-29 -7.4555e-15 -0)
(9.04457e-31 -7.4555e-15 -0)
(-0 -7.4555e-15 -0)
(-4.07006e-30 -7.4555e-15 -0)
(9.94903e-30 -7.4555e-15 -0)
(2.12547e-29 -7.4555e-15 -0)
(2.26114e-30 -7.4555e-15 -0)
(-3.1656e-30 -7.4555e-15 -0)
(-4.97451e-30 -7.4555e-15 -0)
(-6.78343e-30 -7.4555e-15 -0)
(-9.04457e-31 -7.4555e-15 -0)
(3.1656e-30 -7.4555e-15 -0)
(4.97451e-30 -7.4555e-15 -0)
(-5.87897e-30 -7.4555e-15 -0)
(-1.17579e-29 -7.4555e-15 -0)
(-1.13057e-29 -7.4555e-15 -0)
(-1.94458e-29 -7.4555e-15 -0)
(-1.71847e-29 -7.4555e-15 -0)
(-1.31146e-29 -7.4555e-15 -0)
(-8.14011e-30 -7.4555e-15 -0)
(3.95144e-30 -7.4555e-15 -0)
(-3.95144e-30 -7.4555e-15 -0)
(-2.6343e-30 -7.4555e-15 -0)
(-7.46384e-30 -7.4555e-15 -0)
(-8.78099e-30 -7.4555e-15 -0)
(1.27324e-29 -7.4555e-15 -0)
(2.19525e-30 -7.4555e-15 -0)
(-7.46384e-30 -7.4555e-15 -0)
(-3.5124e-30 -7.4555e-15 -0)
(-7.02479e-30 -7.4555e-15 -0)
(4.82954e-30 -7.4555e-15 -0)
(-4.39049e-31 -7.4555e-15 -0)
(-7.02479e-30 -7.4555e-15 -0)
(-1.7562e-30 -7.4555e-15 -0)
(3.95144e-30 -7.4555e-15 -0)
(8.78099e-31 -7.4555e-15 -0)
(9.65909e-30 -7.4555e-15 -0)
(1.31715e-29 -7.4555e-15 -0)
(-4.39049e-30 -7.4555e-15 -0)
(-1.14153e-29 -7.4555e-15 -0)
(-5.26859e-30 -7.4555e-15 -0)
(-3.5124e-30 -7.4555e-15 -0)
(-2.19525e-30 -7.4555e-15 -0)
(1.05372e-29 -7.4555e-15 -0)
(-0 -7.4555e-15 -0)
(2.6343e-30 -7.4555e-15 -0)
(6.58574e-30 -7.4555e-15 -0)
(3.5124e-30 -7.4555e-15 -0)
(1.18543e-29 -7.4555e-15 -0)
(2.06353e-29 -7.4555e-15 -0)
(-3.07335e-30 -7.4555e-15 -0)
(-2.28306e-29 -7.4555e-15 -0)
(-0 -7.4555e-15 -0)
(5.26859e-30 -7.4555e-15 -0)
(3.95144e-30 -7.4555e-15 -0)
(-2.19525e-30 -7.4555e-15 -0)
(-3.95144e-30 -7.4555e-15 -0)
(-1.05372e-29 -7.4555e-15 -0)
(-0 -7.4555e-15 -0)
(1.93182e-29 -7.4555e-15 -0)
(1.09762e-29 -7.4555e-15 -0)
(1.31715e-30 -7.4555e-15 -0)
(1.7562e-30 -7.4555e-15 -0)
(-5.26859e-30 -7.4555e-15 -0)
(1.14153e-29 -7.4555e-15 -0)
(2.54649e-29 -7.4555e-15 -0)
(1.7562e-30 -7.4555e-15 -0)
(-4.39049e-30 -7.4555e-15 -0)
(-4.82954e-30 -7.4555e-15 -0)
(-8.78099e-30 -7.4555e-15 -0)
(-1.31715e-30 -7.4555e-15 -0)
(3.5124e-30 -7.4555e-15 -0)
(7.02479e-30 -7.4555e-15 -0)
(-7.02479e-30 -7.4555e-15 -0)
(-1.36105e-29 -7.4555e-15 -0)
(-1.18543e-29 -7.4555e-15 -0)
(-2.15134e-29 -7.4555e-15 -0)
(-1.93182e-29 -7.4555e-15 -0)
(-1.58058e-29 -7.4555e-15 -0)
(-1.05372e-29 -7.4555e-15 -0)
(3.83629e-30 -7.4555e-15 -0)
(-4.26254e-30 -7.4555e-15 -0)
(-3.41004e-30 -7.4555e-15 -0)
(-8.52509e-30 -7.4555e-15 -0)
(-8.52509e-30 -7.4555e-15 -0)
(1.44926e-29 -7.4555e-15 -0)
(2.13127e-30 -7.4555e-15 -0)
(-8.95134e-30 -7.4555e-15 -0)
(-4.26254e-30 -7.4555e-15 -0)
(-7.24632e-30 -7.4555e-15 -0)
(6.82007e-30 -7.4555e-15 -0)
(-1.70502e-30 -7.4555e-15 -0)
(-8.95134e-30 -7.4555e-15 -0)
(-4.26254e-31 -7.4555e-15 -0)
(3.41004e-30 -7.4555e-15 -0)
(4.26254e-31 -7.4555e-15 -0)
(1.10826e-29 -7.4555e-15 -0)
(1.40664e-29 -7.4555e-15 -0)
(-4.26254e-30 -7.4555e-15 -0)
(-1.27876e-29 -7.4555e-15 -0)
(-6.39382e-30 -7.4555e-15 -0)
(-2.55753e-30 -7.4555e-15 -0)
(-2.13127e-30 -7.4555e-15 -0)
(1.19351e-29 -7.4555e-15 -0)
(-8.52509e-31 -7.4555e-15 -0)
(2.13127e-30 -7.4555e-15 -0)
(7.24632e-30 -7.4555e-15 -0)
(4.6888e-30 -7.4555e-15 -0)
(1.27876e-29 -7.4555e-15 -0)
(2.25915e-29 -7.4555e-15 -0)
(-3.41004e-30 -7.4555e-15 -0)
(-2.42965e-29 -7.4555e-15 -0)
(-1.27876e-30 -7.4555e-15 -0)
(6.39382e-30 -7.4555e-15 -0)
(4.6888e-30 -7.4555e-15 -0)
(-2.55753e-30 -7.4555e-15 -0)
(-3.83629e-30 -7.4555e-15 -0)
(-1.27876e-29 -7.4555e-15 -0)
(-8.52509e-31 -7.4555e-15 -0)
(2.3444e-29 -7.4555e-15 -0)
(1.23614e-29 -7.4555e-15 -0)
(1.27876e-30 -7.4555e-15 -0)
(2.13127e-30 -7.4555e-15 -0)
(-5.54131e-30 -7.4555e-15 -0)
(1.32139e-29 -7.4555e-15 -0)
(2.6854e-29 -7.4555e-15 -0)
(2.55753e-30 -7.4555e-15 -0)
(-4.26254e-30 -7.4555e-15 -0)
(-6.82007e-30 -7.4555e-15 -0)
(-1.15089e-29 -7.4555e-15 -0)
(-0 -7.4555e-15 -0)
(5.96756e-30 -7.4555e-15 -0)
(6.39382e-30 -7.4555e-15 -0)
(-7.67258e-30 -7.4555e-15 -0)
(-1.49189e-29 -7.4555e-15 -0)
(-1.32139e-29 -7.4555e-15 -0)
(-2.3444e-29 -7.4555e-15 -0)
(-2.1739e-29 -7.4555e-15 -0)
(-1.79027e-29 -7.4555e-15 -0)
(-1.27876e-29 -7.4555e-15 -0)
(3.72449e-30 -7.4555e-15 -0)
(-4.13832e-30 -7.4555e-15 -0)
(-1.65533e-30 -7.4555e-15 -0)
(-8.27664e-30 -7.4555e-15 -0)
(-1.07596e-29 -7.4555e-15 -0)
(1.53118e-29 -7.4555e-15 -0)
(3.72449e-30 -7.4555e-15 -0)
(-9.93197e-30 -7.4555e-15 -0)
(-5.79365e-30 -7.4555e-15 -0)
(-6.62132e-30 -7.4555e-15 -0)
(6.62132e-30 -7.4555e-15 -0)
(-8.27664e-31 -7.4555e-15 -0)
(-8.69048e-30 -7.4555e-15 -0)
(-1.2415e-30 -7.4555e-15 -0)
(2.89683e-30 -7.4555e-15 -0)
(1.2415e-30 -7.4555e-15 -0)
(1.20011e-29 -7.4555e-15 -0)
(1.61395e-29 -7.4555e-15 -0)
(-5.37982e-30 -7.4555e-15 -0)
(-1.53118e-29 -7.4555e-15 -0)
(-7.86281e-30 -7.4555e-15 -0)
(-2.06916e-30 -7.4555e-15 -0)
(-1.2415e-30 -7.4555e-15 -0)
(1.15873e-29 -7.4555e-15 -0)
(-0 -7.4555e-15 -0)
(2.48299e-30 -7.4555e-15 -0)
(7.86281e-30 -7.4555e-15 -0)
(5.79365e-30 -7.4555e-15 -0)
(1.44841e-29 -7.4555e-15 -0)
(2.27608e-29 -7.4555e-15 -0)
(-5.37982e-30 -7.4555e-15 -0)
(-2.81406e-29 -7.4555e-15 -0)
(-0 -7.4555e-15 -0)
(7.86281e-30 -7.4555e-15 -0)
(4.96599e-30 -7.4555e-15 -0)
(-2.06916e-30 -7.4555e-15 -0)
(-4.55215e-30 -7.4555e-15 -0)
(-1.40703e-29 -7.4555e-15 -0)
(-2.48299e-30 -7.4555e-15 -0)
(2.56576e-29 -7.4555e-15 -0)
(1.44841e-29 -7.4555e-15 -0)
(2.48299e-30 -7.4555e-15 -0)
(1.65533e-30 -7.4555e-15 -0)
(-7.03515e-30 -7.4555e-15 -0)
(1.65533e-29 -7.4555e-15 -0)
(3.06236e-29 -7.4555e-15 -0)
(8.27665e-31 -7.4555e-15 -0)
(-4.55216e-30 -7.4555e-15 -0)
(-8.27665e-30 -7.4555e-15 -0)
(-1.32426e-29 -7.4555e-15 -0)
(-1.65533e-30 -7.4555e-15 -0)
(7.44898e-30 -7.4555e-15 -0)
(7.86281e-30 -7.4555e-15 -0)
(-7.03515e-30 -7.4555e-15 -0)
(-1.61395e-29 -7.4555e-15 -0)
(-1.44841e-29 -7.4555e-15 -0)
(-2.64853e-29 -7.4555e-15 -0)
(-2.48299e-29 -7.4555e-15 -0)
(-1.9864e-29 -7.4555e-15 -0)
(-1.4898e-29 -7.4555e-15 -0)
(4.82127e-30 -7.4555e-15 -0)
(-3.21418e-30 -7.4555e-15 -0)
(-1.60709e-30 -7.4555e-15 -0)
(-8.83899e-30 -7.4555e-15 -0)
(-1.12496e-29 -7.4555e-15 -0)
(1.60709e-29 -7.4555e-15 -0)
(2.41063e-30 -7.4555e-15 -0)
(-9.64253e-30 -7.4555e-15 -0)
(-6.42835e-30 -7.4555e-15 -0)
(-8.03544e-30 -7.4555e-15 -0)
(8.03544e-30 -7.4555e-15 -0)
(-8.03544e-31 -7.4555e-15 -0)
(-1.04461e-29 -7.4555e-15 -0)
(-8.03544e-31 -7.4555e-15 -0)
(3.21418e-30 -7.4555e-15 -0)
(1.60709e-30 -7.4555e-15 -0)
(1.28567e-29 -7.4555e-15 -0)
(1.84815e-29 -7.4555e-15 -0)
(-4.01772e-30 -7.4555e-15 -0)
(-1.68744e-29 -7.4555e-15 -0)
(-1.04461e-29 -7.4555e-15 -0)
(-4.01772e-30 -7.4555e-15 -0)
(-0 -7.4555e-15 -0)
(1.44638e-29 -7.4555e-15 -0)
(-8.03544e-31 -7.4555e-15 -0)
(8.03544e-31 -7.4555e-15 -0)
(8.83899e-30 -7.4555e-15 -0)
(6.42835e-30 -7.4555e-15 -0)
(1.68744e-29 -7.4555e-15 -0)
(2.41063e-29 -7.4555e-15 -0)
(-6.42835e-30 -7.4555e-15 -0)
(-3.05347e-29 -7.4555e-15 -0)
(1.60709e-30 -7.4555e-15 -0)
(7.2319e-30 -7.4555e-15 -0)
(4.82127e-30 -7.4555e-15 -0)
(-0 -7.4555e-15 -0)
(-5.62481e-30 -7.4555e-15 -0)
(-1.68744e-29 -7.4555e-15 -0)
(-8.03544e-31 -7.4555e-15 -0)
(2.73205e-29 -7.4555e-15 -0)
(1.60709e-29 -7.4555e-15 -0)
(3.21418e-30 -7.4555e-15 -0)
(8.03544e-31 -7.4555e-15 -0)
(-5.62481e-30 -7.4555e-15 -0)
(1.68744e-29 -7.4555e-15 -0)
(3.05347e-29 -7.4555e-15 -0)
(4.01772e-30 -7.4555e-15 -0)
(-3.21418e-30 -7.4555e-15 -0)
(-1.20532e-29 -7.4555e-15 -0)
(-1.52673e-29 -7.4555e-15 -0)
(8.03544e-31 -7.4555e-15 -0)
(5.62481e-30 -7.4555e-15 -0)
(8.03544e-30 -7.4555e-15 -0)
(-5.62481e-30 -7.4555e-15 -0)
(-1.68744e-29 -7.4555e-15 -0)
(-1.60709e-29 -7.4555e-15 -0)
(-2.81241e-29 -7.4555e-15 -0)
(-2.73205e-29 -7.4555e-15 -0)
(-2.16957e-29 -7.4555e-15 -0)
(-1.52673e-29 -7.4555e-15 -0)
(3.90063e-30 -7.4555e-15 -0)
(-3.12051e-30 -7.4555e-15 -0)
(-3.12051e-30 -7.4555e-15 -0)
(-9.36152e-30 -7.4555e-15 -0)
(-1.09218e-29 -7.4555e-15 -0)
(1.63827e-29 -7.4555e-15 -0)
(5.46089e-30 -7.4555e-15 -0)
(-1.32622e-29 -7.4555e-15 -0)
(-7.80127e-30 -7.4555e-15 -0)
(-5.46089e-30 -7.4555e-15 -0)
(7.80127e-30 -7.4555e-15 -0)
(-1.56025e-30 -7.4555e-15 -0)
(-1.09218e-29 -7.4555e-15 -0)
(-1.56025e-30 -7.4555e-15 -0)
(3.12051e-30 -7.4555e-15 -0)
(2.34038e-30 -7.4555e-15 -0)
(1.40423e-29 -7.4555e-15 -0)
(1.8723e-29 -7.4555e-15 -0)
(-5.46089e-30 -7.4555e-15 -0)
(-1.79429e-29 -7.4555e-15 -0)
(-9.36152e-30 -7.4555e-15 -0)
(-3.90063e-30 -7.4555e-15 -0)
(-0 -7.4555e-15 -0)
(1.63827e-29 -7.4555e-15 -0)
(7.80127e-31 -7.4555e-15 -0)
(-7.80127e-31 -7.4555e-15 -0)
(5.46089e-30 -7.4555e-15 -0)
(7.80127e-30 -7.4555e-15 -0)
(1.95032e-29 -7.4555e-15 -0)
(2.49641e-29 -7.4555e-15 -0)
(-4.68076e-30 -7.4555e-15 -0)
(-3.27653e-29 -7.4555e-15 -0)
(-7.80127e-31 -7.4555e-15 -0)
(1.01416e-29 -7.4555e-15 -0)
(6.24102e-30 -7.4555e-15 -0)
(-3.12051e-30 -7.4555e-15 -0)
(-3.90063e-30 -7.4555e-15 -0)
(-1.71628e-29 -7.4555e-15 -0)
(-3.90063e-30 -7.4555e-15 -0)
(3.0425e-29 -7.4555e-15 -0)
(1.56025e-29 -7.4555e-15 -0)
(3.12051e-30 -7.4555e-15 -0)
(3.90064e-30 -7.4555e-15 -0)
(-5.46089e-30 -7.4555e-15 -0)
(1.8723e-29 -7.4555e-15 -0)
(3.19852e-29 -7.4555e-15 -0)
(3.90064e-30 -7.4555e-15 -0)
(-3.90064e-30 -7.4555e-15 -0)
(-1.32622e-29 -7.4555e-15 -0)
(-1.79429e-29 -7.4555e-15 -0)
(-0 -7.4555e-15 -0)
(7.02114e-30 -7.4555e-15 -0)
(1.09218e-29 -7.4555e-15 -0)
(-5.46089e-30 -7.4555e-15 -0)
(-1.79429e-29 -7.4555e-15 -0)
(-1.87231e-29 -7.4555e-15 -0)
(-3.12051e-29 -7.4555e-15 -0)
(-2.88647e-29 -7.4555e-15 -0)
(-2.41839e-29 -7.4555e-15 -0)
(-1.71628e-29 -7.4555e-15 -0)
(6.81653e-30 -7.4555e-15 -0)
(-3.02957e-30 -7.4555e-15 -0)
(-3.02957e-30 -7.4555e-15 -0)
(-5.30174e-30 -7.4555e-15 -0)
(-1.21183e-29 -7.4555e-15 -0)
(1.59052e-29 -7.4555e-15 -0)
(4.54435e-30 -7.4555e-15 -0)
(-1.36331e-29 -7.4555e-15 -0)
(-7.57392e-30 -7.4555e-15 -0)
(-3.78696e-30 -7.4555e-15 -0)
(8.33131e-30 -7.4555e-15 -0)
(-3.78696e-30 -7.4555e-15 -0)
(-1.21183e-29 -7.4555e-15 -0)
(-3.02957e-30 -7.4555e-15 -0)
(4.54435e-30 -7.4555e-15 -0)
(2.27218e-30 -7.4555e-15 -0)
(1.51478e-29 -7.4555e-15 -0)
(1.96922e-29 -7.4555e-15 -0)
(-2.27218e-30 -7.4555e-15 -0)
(-1.96922e-29 -7.4555e-15 -0)
(-1.28757e-29 -7.4555e-15 -0)
(-3.78696e-30 -7.4555e-15 -0)
(1.51478e-30 -7.4555e-15 -0)
(1.742e-29 -7.4555e-15 -0)
(-1.51478e-30 -7.4555e-15 -0)
(-0 -7.4555e-15 -0)
(3.78696e-30 -7.4555e-15 -0)
(9.0887e-30 -7.4555e-15 -0)
(2.42365e-29 -7.4555e-15 -0)
(2.87809e-29 -7.4555e-15 -0)
(-8.33131e-30 -7.4555e-15 -0)
(-3.71122e-29 -7.4555e-15 -0)
(7.57392e-31 -7.4555e-15 -0)
(7.57392e-30 -7.4555e-15 -0)
(5.30174e-30 -7.4555e-15 -0)
(-7.57392e-31 -7.4555e-15 -0)
(-6.05914e-30 -7.4555e-15 -0)
(-1.66626e-29 -7.4555e-15 -0)
(-0 -7.4555e-15 -0)
(3.10531e-29 -7.4555e-15 -0)
(1.742e-29 -7.4555e-15 -0)
(4.54435e-30 -7.4555e-15 -0)
(2.27218e-30 -7.4555e-15 -0)
(-6.05914e-30 -7.4555e-15 -0)
(2.04496e-29 -7.4555e-15 -0)
(3.10531e-29 -7.4555e-15 -0)
(4.54435e-30 -7.4555e-15 -0)
(-0 -7.4555e-15 -0)
(-1.59052e-29 -7.4555e-15 -0)
(-2.27218e-29 -7.4555e-15 -0)
(7.57392e-31 -7.4555e-15 -0)
(9.8461e-30 -7.4555e-15 -0)
(1.21183e-29 -7.4555e-15 -0)
(-6.05914e-30 -7.4555e-15 -0)
(-1.81774e-29 -7.4555e-15 -0)
(-2.04496e-29 -7.4555e-15 -0)
(-3.33253e-29 -7.4555e-15 -0)
(-3.02957e-29 -7.4555e-15 -0)
(-2.49939e-29 -7.4555e-15 -0)
(-1.742e-29 -7.4555e-15 -0)
(6.61788e-30 -7.4555e-15 -0)
(-1.47064e-30 -7.4555e-15 -0)
(-2.94128e-30 -7.4555e-15 -0)
(-6.61788e-30 -7.4555e-15 -0)
(-1.02945e-29 -7.4555e-15 -0)
(1.8383e-29 -7.4555e-15 -0)
(2.94128e-30 -7.4555e-15 -0)
(-1.69124e-29 -7.4555e-15 -0)
(-7.3532e-30 -7.4555e-15 -0)
(-4.41192e-30 -7.4555e-15 -0)
(9.55916e-30 -7.4555e-15 -0)
(-4.41192e-30 -7.4555e-15 -0)
(-1.32358e-29 -7.4555e-15 -0)
(-4.41192e-30 -7.4555e-15 -0)
(4.41192e-30 -7.4555e-15 -0)
(4.41192e-30 -7.4555e-15 -0)
(1.54417e-29 -7.4555e-15 -0)
(2.20596e-29 -7.4555e-15 -0)
(-3.6766e-30 -7.4555e-15 -0)
(-2.05889e-29 -7.4555e-15 -0)
(-1.47064e-29 -7.4555e-15 -0)
(-2.94128e-30 -7.4555e-15 -0)
(1.47064e-30 -7.4555e-15 -0)
(1.76477e-29 -7.4555e-15 -0)
(-7.3532e-31 -7.4555e-15 -0)
(7.3532e-31 -7.4555e-15 -0)
(3.6766e-30 -7.4555e-15 -0)
(8.82384e-30 -7.4555e-15 -0)
(2.86775e-29 -7.4555e-15 -0)
(2.79421e-29 -7.4555e-15 -0)
(-8.08852e-30 -7.4555e-15 -0)
(-3.6766e-29 -7.4555e-15 -0)
(-2.20596e-30 -7.4555e-15 -0)
(8.82384e-30 -7.4555e-15 -0)
(5.88256e-30 -7.4555e-15 -0)
(-3.6766e-30 -7.4555e-15 -0)