/*--------------------------------*- C++ -*----------------------------------*\
| =========                 |                                                 |
| \\      /  F ield         | foam-extend: Open Source CFD                    |
|  \\    /   O peration     | Version:     4.0                                |
|   \\  /    A nd           | Web:         http://www.foam-extend.org         |
|    \\/     M anipulation  |                                                 |
\*---------------------------------------------------------------------------*/
FoamFile
{
    version     2.0;
    format      ascii;
    class       surfaceScalarField;
    location    "18";
    object      phi;
}
// * * * * * * * * * * * * * * * * * * * * * * * * * * * * * * * * * * * * * //

dimensions      [0 3 -1 0 0 0 0];

internalField   nonuniform List<scalar> 
13744
(
-4.99593e-25
-3.36818e-22
-2.53045e-26
-2.65146e-25
-1.43762e-25
1.98123e-25
-6.31118e-26
-1.7347e-25
9.19058e-26
6.25672e-26
7.40969e-26
-1.54076e-25
2.77158e-25
-1.12329e-25
1.99394e-25
-3.96806e-26
2.73981e-25
-1.08273e-25
1.906e-25
1.10794e-25
6.80394e-26
4.7765e-26
2.85651e-26
1.39722e-25
-8.71792e-26
1.19652e-25
-7.26838e-26
6.01903e-26
-8.25647e-26
5.16733e-26
-3.67517e-26
-5.15888e-26
6.31684e-26
-6.53326e-26
1.27181e-25
-8.12033e-26
1.96363e-25
-6.86719e-26
2.07283e-25
-1.87472e-26
1.94613e-25
6.16933e-27
1.57291e-25
5.55465e-26
8.09097e-26
7.29413e-26
1.6688e-26
6.49053e-26
-3.31246e-26
4.89237e-26
-5.27972e-26
1.69304e-26
-4.91148e-26
-5.66117e-27
-2.56433e-26
-3.28188e-26
2.33071e-26
-4.35481e-26
6.44273e-26
-3.09569e-26
8.45848e-26
-1.4312e-26
8.62934e-26
4.25397e-27
8.19269e-26
1.56884e-26
7.08509e-26
3.26739e-26
4.26992e-26
3.99126e-26
1.9092e-26
2.88467e-26
1.20582e-26
1.2023e-26
2.01291e-26
-6.3133e-27
2.06209e-26
-1.01845e-26
8.14228e-27
-2.15892e-26
1.14277e-27
-2.5361e-26
-1.03213e-26
-1.75832e-26
-2.42452e-26
-6.52571e-27
-4.84608e-26
1.41859e-26
-6.34422e-26
1.36759e-26
-5.43251e-26
1.97392e-26
-4.02996e-26
1.7809e-26
-1.58891e-26
9.37064e-27
1.72703e-27
5.31132e-27
1.77723e-26
-1.13172e-26
2.74273e-26
-1.24801e-26
1.40185e-26
-1.49044e-26
-6.35872e-27
-1.64972e-26
-3.51396e-26
-1.07146e-26
-5.67648e-26
-1.47776e-26
-6.20708e-26
-1.16364e-26
-5.69715e-26
-1.45068e-26
-3.47274e-26
-1.46496e-26
-1.17284e-26
-1.39044e-26
-2.25478e-27
-1.09985e-24
-3.35531e-22
-1.10398e-25
-5.95382e-25
-4.29343e-25
5.79098e-25
-1.92948e-25
-4.91992e-25
2.01537e-25
2.67604e-25
2.61653e-25
-6.08905e-25
7.71548e-25
-3.0001e-25
6.46031e-25
-2.61602e-25
8.51419e-25
-3.85313e-25
6.02467e-25
3.17806e-25
2.73948e-25
1.01879e-25
8.64749e-26
5.41286e-25
-2.30424e-25
4.13498e-25
-2.29201e-25
2.74084e-25
-2.7041e-25
2.10118e-25
-1.22946e-25
-1.69828e-25
1.67656e-25
-2.2198e-25
3.93674e-25
-3.43277e-25
6.07031e-25
-2.89558e-25
6.54748e-25
-1.15625e-25
6.29039e-25
-4.99565e-27
5.09249e-25
2.00335e-25
2.74835e-25
2.75743e-25
6.20354e-26
2.79964e-25
-9.79057e-26
2.19591e-25
-1.63459e-25
8.93624e-26
-1.60303e-25
-7.79218e-27
-8.66029e-26
-1.21756e-25
6.69348e-26
-1.72624e-25
2.03489e-25
-1.51338e-25
2.72166e-25
-9.45604e-26
2.80546e-25
-1.38886e-26
2.7352e-25
3.899e-26
2.40492e-25
1.04472e-25
1.54012e-25
1.34837e-25
7.38474e-26
1.20894e-25
4.60162e-26
7.71751e-26
6.77968e-26
1.36079e-26
6.23323e-26
-7.14915e-27
2.39287e-26
-5.32035e-26
-1.08304e-27
-6.47561e-26
-3.03508e-26
-6.07327e-26
-6.75623e-26
-4.16253e-26
-1.39864e-25
1.60464e-26
-1.77881e-25
1.11385e-26
-1.51487e-25
4.19531e-26
-1.04041e-25
3.33771e-26
-3.2109e-26
2.14033e-26
1.68352e-26
2.50507e-26
6.62537e-26
-1.74481e-26
8.81103e-26
-5.80684e-27
4.7715e-26
-2.09331e-26
-1.8295e-26
-2.71735e-26
-1.06487e-25
-2.22241e-26
-1.70152e-25
-5.13195e-26
-1.85382e-25
-5.61725e-26
-1.69511e-25
-7.05719e-26
-9.84023e-26
-7.4399e-26
-3.5228e-26
-5.45773e-26
-5.5418e-27
-1.69807e-24
-3.33485e-22
-1.83077e-25
-9.03551e-25
-7.22513e-25
9.38554e-25
-3.29113e-25
-7.53613e-25
2.79506e-25
5.55793e-25
4.62669e-25
-1.29086e-24
1.25073e-24
-4.91076e-25
1.12648e-24
-7.4055e-25
1.46802e-24
-7.63814e-25
1.05761e-24
5.0497e-25
5.34051e-25
1.33454e-25
1.65414e-25
1.16071e-24
-3.49593e-25
8.39526e-25
-3.86142e-25
6.71486e-25
-4.72118e-25
4.56422e-25
-2.22764e-25
-3.32533e-25
2.5985e-25
-4.63858e-25
6.69746e-25
-7.99459e-25
1.03866e-24
-6.7249e-25
1.1366e-24
-3.24176e-25
1.10884e-24
-4.11773e-26
9.05355e-25
4.33068e-25
5.0556e-25
6.13027e-25
1.27908e-25
6.65348e-25
-1.53958e-25
5.30675e-25
-2.74465e-25
2.36818e-25
-2.80452e-25
-4.74187e-27
-1.56968e-25
-2.75153e-25
1.08065e-25
-3.97068e-25
3.51653e-25
-3.81276e-25
4.76227e-25
-2.66955e-25
4.95295e-25
-8.38848e-26
4.91456e-25
5.30658e-26
4.38672e-25
2.058e-25
2.90642e-25
2.78009e-25
1.45254e-25
2.82614e-25
9.11333e-26
2.17769e-25
1.24891e-25
1.02523e-25
1.08818e-25
4.71243e-26
4.09079e-26
-6.15194e-26
-5.32466e-27
-9.21559e-26
-4.95553e-26
-1.21802e-25
-1.07904e-25
-1.12394e-25
-2.29421e-25
-3.2387e-26
-2.88598e-25
-4.79596e-26
-2.44351e-25
2.81577e-26
-1.59411e-25
1.68743e-26
-3.92823e-26
2.90966e-26
4.00983e-26
6.48316e-26
1.24276e-25
1.47737e-26
1.55992e-25
6.50879e-26
8.78225e-26
2.60622e-26
-2.78934e-26
9.47999e-27
-1.78801e-25
-1.52016e-26
-2.86118e-25
-1.0119e-25
-3.12137e-25
-1.44159e-25
-2.85302e-25
-1.81366e-25
-1.62297e-25
-1.93451e-25
-6.00078e-26
-1.22336e-25
-8.35046e-27
-2.32754e-24
-3.31476e-22
-2.46909e-25
-1.2072e-24
-1.02345e-24
1.25901e-24
-4.6953e-25
-9.25618e-25
3.4876e-25
9.10082e-25
6.59281e-25
-2.18676e-24
1.73278e-24
-6.92928e-25
1.62492e-24
-1.49615e-24
2.11914e-24
-1.23867e-24
1.55577e-24
6.54868e-25
8.36318e-25
1.49668e-25
2.77636e-25
1.99715e-24
-4.44705e-25
1.40456e-24
-5.32791e-25
1.26858e-24
-6.7745e-25
7.93123e-25
-3.33653e-25
-5.35785e-25
3.44047e-25
-7.96917e-25
9.48659e-25
-1.45678e-24
1.48487e-24
-1.22408e-24
1.64492e-24
-6.53428e-25
1.62567e-24
-1.02129e-25
1.34298e-24
7.59773e-25
7.72975e-25
1.09536e-24
2.19915e-25
1.2327e-24
-1.94373e-25
9.92444e-25
-3.79755e-25
4.68597e-25
-4.03966e-25
5.52148e-27
-2.34491e-25
-4.97278e-25
1.46373e-25
-7.2291e-25
5.05196e-25
-7.25679e-25
6.91699e-25
-5.35638e-25
7.26068e-25
-2.10469e-25
7.30983e-25
5.77295e-26
6.61856e-25
3.42178e-25
4.49609e-25
4.77879e-25
2.32304e-25
5.21811e-25
1.47579e-25
4.4146e-25
1.91479e-25
2.71393e-25
1.6166e-25
1.62247e-25
6.00719e-26
-4.01017e-26
-9.54514e-27
-1.05749e-25
-6.72277e-26
-2.00885e-25
-1.459e-25
-2.18733e-25
-3.17898e-25
-1.34997e-25
-3.99093e-25
-1.67246e-25
-3.36271e-25
-2.4951e-26
-2.11633e-25
-3.13429e-26
-4.24732e-26
3.68338e-26
6.78065e-26
1.29607e-25
1.87857e-25
9.39359e-26
2.29963e-25
2.09281e-25
1.33698e-25
1.35255e-25
-3.41538e-26
1.01578e-25
-2.5068e-25
1.41985e-26
-4.04229e-25
-1.62146e-25
-4.42882e-25
-2.76769e-25
-4.05591e-25
-3.48798e-25
-2.29472e-25
-3.74474e-25
-8.6898e-26
-2.16413e-25
-1.09164e-26
-2.95226e-24
-3.29003e-22
-3.07775e-25
-1.51594e-24
-1.33117e-24
1.53003e-24
-6.11867e-25
-9.87676e-25
4.09499e-25
1.32665e-24
8.50597e-25
-3.28419e-24
2.21761e-24
-9.02127e-25
2.13989e-24
-2.5355e-24
2.80376e-24
-1.8104e-24
2.09662e-24
7.50696e-25
1.18215e-24
1.42965e-25
4.26712e-25
3.04374e-24
-5.12148e-25
2.10764e-24
-6.65293e-25
2.07414e-24
-8.83044e-25
1.22662e-24
-4.53512e-25
-7.69455e-25
4.20449e-25
-1.21578e-24
1.22849e-24
-2.31545e-24
1.94314e-24
-1.94874e-24
2.17744e-24
-1.11268e-24
2.17796e-24
-1.95012e-25
1.82189e-24
1.17546e-24
1.07864e-24
1.72186e-24
3.41157e-25
1.98639e-24
-2.15811e-25
1.61223e-24
-4.76466e-25
7.93258e-25
-5.28503e-25
2.89555e-26
-3.17767e-25
-7.85195e-25
1.81794e-25
-1.15007e-24
6.62829e-25
-1.18777e-24
9.1725e-25
-9.06146e-25
9.72023e-25
-3.99745e-25
9.91278e-25
4.87783e-26
9.09121e-25
5.11387e-25
6.30428e-25
7.33915e-25
3.35276e-25
8.39944e-25
2.15729e-25
7.52301e-25
2.67527e-25
5.26304e-25
2.20897e-25
3.44075e-25
8.19673e-26
1.62614e-26
-1.28502e-26
-1.01722e-25
-8.27897e-26
-2.95714e-25
-1.81353e-25
-3.60809e-25
-4.05212e-25
-2.94975e-25
-5.09642e-25
-3.50931e-25
-4.28165e-25
-1.22146e-25
-2.62421e-25
-1.15149e-25
-4.37425e-26
4.20743e-26
9.80466e-26
2.1845e-25
2.55373e-25
2.21809e-25
3.08952e-25
4.30171e-25
1.84884e-25
3.111e-25
-3.68772e-26
2.53751e-25
-3.21544e-25
6.93263e-26
-5.23989e-25
-2.32165e-25
-5.77567e-25
-4.54387e-25
-5.3084e-25
-5.75117e-25
-3.00841e-25
-6.21034e-25
-1.16629e-25
-3.39008e-25
-1.48615e-26
-3.56263e-24
-3.261e-22
-3.60876e-25
-1.83602e-24
-1.64441e-24
1.74385e-24
-7.54031e-25
-9.18309e-25
4.61426e-25
1.80044e-24
1.03534e-24
-4.56902e-24
2.70406e-24
-1.11548e-24
2.66974e-24
-3.86623e-24
3.52102e-24
-2.47947e-24
2.68054e-24
7.73673e-25
1.57378e-24
1.05602e-25
6.16655e-25
4.29235e-24
-5.47669e-25
2.94745e-24
-7.79615e-25
3.09778e-24
-1.08579e-24
1.76424e-24
-5.80836e-25
-1.02159e-24
4.88701e-25
-1.71409e-24
1.50719e-24
-3.37502e-24
2.41108e-24
-2.8509e-24
2.73227e-24
-1.71238e-24
2.76487e-24
-3.28468e-25
2.34277e-24
1.67351e-24
1.42489e-24
2.49071e-24
4.9517e-25
2.93046e-24
-2.14651e-25
2.39762e-24
-5.61629e-25
1.22039e-24
-6.51941e-25
7.28359e-26
-4.05777e-25
-1.1348e-24
2.14081e-25
-1.67776e-24
8.23424e-25
-1.77042e-24
1.15178e-24
-1.38386e-24
1.23259e-24
-6.58037e-25
1.27207e-24
2.15045e-26
1.18041e-24
7.10689e-25
8.3346e-25
1.04521e-24
4.54998e-25
1.23811e-24
2.96408e-25
1.15383e-24
3.53495e-25
8.72917e-25
2.86929e-25
5.98319e-25
1.07217e-25
1.12945e-25
-1.44494e-26
-7.59153e-26
-9.56137e-26
-4.03499e-25
-2.1387e-25
-5.37961e-25
-4.91055e-25
-5.14657e-25
-6.20233e-25
-6.02482e-25
-5.20523e-25
-2.6788e-25
-3.12839e-25
-2.38477e-25
-4.44644e-26
4.19287e-26
1.29529e-25
3.29682e-25
3.25766e-25
3.99382e-25
3.92357e-25
7.30376e-25
2.41329e-25
5.57654e-25
-3.56025e-26
4.70703e-25
-3.90638e-25
1.53969e-25
-6.44737e-25
-3.08482e-25
-7.15952e-25
-6.7668e-25
-6.61284e-25
-8.62127e-25
-3.77071e-25
-9.36659e-25
-1.49789e-25
-4.92781e-25
-2.2541e-26
-4.15902e-24
-3.22733e-22
-4.03106e-25
-2.18351e-24
-1.96169e-24
1.89532e-24
-8.93852e-25
-6.95629e-25
5.04077e-25
2.32541e-24
1.21207e-24
-6.02386e-24
3.1904e-24
-1.33003e-24
3.21257e-24
-5.4942e-24
4.26996e-24
-3.24649e-24
3.30814e-24
7.03381e-25
2.01376e-24
2.90142e-26
8.51764e-25
5.7322e-24
-5.46574e-25
3.92174e-24
-8.71411e-25
4.34864e-24
-1.28246e-24
2.41399e-24
-7.14209e-25
-1.27817e-24
5.4827e-25
-2.28386e-24
1.78263e-24
-4.63334e-24
2.88615e-24
-3.9344e-24
3.30754e-24
-2.46349e-24
3.38575e-24
-5.12445e-25
2.90667e-24
2.24538e-24
1.81445e-24
3.39856e-24
6.85806e-25
4.06804e-24
-1.86967e-25
3.35611e-24
-6.32024e-25
1.76038e-24
-7.72082e-25
1.45751e-25
-4.97565e-25
-1.54052e-24
2.42934e-25
-2.30414e-24
9.85884e-25
-2.47593e-24
1.39424e-24
-1.97402e-24
1.50722e-24
-9.9195e-25
1.57328e-24
-2.94388e-26
1.47601e-24
9.36539e-25
1.05945e-24
1.4102e-24
5.92589e-25
1.71693e-24
3.90699e-25
1.64924e-24
4.50123e-25
1.3167e-24
3.60378e-25
9.308e-25
1.36534e-25
2.55779e-25
-1.35494e-26
-2.35966e-26
-1.05013e-25
-5.20767e-25
-2.42945e-25
-7.48904e-25
-5.74995e-25
-7.95798e-25
-7.30715e-25
-9.24994e-25
-6.13648e-25
-4.66636e-25
-3.63678e-25
-4.05513e-25
-4.57404e-26
3.2941e-26
1.61203e-25
4.60977e-25
3.98193e-25
6.27e-25
4.79772e-25
1.11193e-24
3.03166e-25
8.78774e-25
-2.97198e-26
7.57218e-25
-4.57074e-25
2.7237e-25
-7.65682e-25
-3.87685e-25
-8.57663e-25
-9.42674e-25
-7.97031e-25
-1.21121e-24
-4.58714e-25
-1.3248e-24
-1.86919e-25
-6.80771e-25
-3.69695e-26
-4.73904e-24
-3.18905e-22
-4.32617e-25
-2.57911e-24
-2.28132e-24
1.97951e-24
-1.02896e-24
-2.97437e-25
5.36956e-25
2.89445e-24
1.37929e-24
-7.62853e-24
3.67457e-24
-1.5427e-24
3.76617e-24
-7.42376e-24
5.04945e-24
-4.11159e-24
3.97994e-24
5.17955e-25
2.50476e-24
-9.59805e-26
1.13654e-24
7.35015e-24
-5.038e-25
5.02703e-24
-9.3596e-25
5.83538e-24
-1.46956e-24
3.1842e-24
-8.52097e-25
-1.52344e-24
5.98612e-25
-2.91559e-24
2.05257e-24
-6.08667e-24
3.36569e-24
-5.2023e-24
3.90118e-24
-3.37731e-24
4.03989e-24
-7.57967e-25
3.51469e-24
2.88074e-24
2.25022e-24
4.44059e-24
9.17183e-25
5.4013e-24
-1.28508e-25
4.49498e-24
-6.84121e-25
2.42426e-24
-8.86524e-25
2.57432e-25
-5.92097e-25
-1.99542e-24
2.68068e-25
-3.02632e-24
1.1491e-24
-3.30601e-24
1.6435e-24
-2.68163e-24
1.79535e-24
-1.40829e-24
1.89485e-24
-1.09929e-25
1.79638e-24
1.18468e-24
1.30935e-24
1.82668e-24
7.49356e-25
2.27649e-24
4.99879e-25
2.2413e-24
5.58358e-25
1.86283e-24
4.42036e-25
1.34735e-24
1.70732e-25
4.50948e-25
-9.30756e-27
6.05093e-26
-1.10231e-25
-6.43353e-25
-2.67982e-25
-9.91641e-25
-6.56511e-25
-1.13949e-24
-8.40849e-25
-1.32109e-24
-7.07742e-25
-7.2283e-25
-4.15604e-25
-6.20663e-25
-4.85545e-26
1.11273e-26
1.92117e-25
6.09312e-25
4.71898e-25
9.04311e-25
5.70873e-25
1.57621e-24
3.70628e-25
1.27802e-24
-1.85139e-26
1.11813e-24
-5.19847e-25
4.29198e-25
-8.85909e-25
-4.657e-25
-1.0022e-24
-1.25072e-24
-9.38089e-25
-1.62332e-24
-5.46258e-25
-1.78881e-24
-2.28538e-25
-9.06368e-25
-6.18403e-26
-5.29807e-24
-3.14621e-22
-4.47402e-25
-3.04634e-24
-2.60136e-24
1.99153e-24
-1.15672e-24
2.98616e-25
5.59618e-25
3.49935e-24
1.53551e-24
-9.35988e-24
4.15427e-24
-1.75042e-24
4.32807e-24
-9.65761e-24
5.85813e-24
-5.07434e-24
4.69635e-24
1.9415e-25
3.04947e-24
-2.79103e-25
1.47565e-24
9.13061e-24
-4.13971e-25
6.25864e-24
-9.68141e-25
7.566e-24
-1.64323e-24
4.08338e-24
-9.92723e-25
-1.73989e-24
6.39272e-25
-3.59832e-24
2.31474e-24
-7.72962e-24
3.84685e-24
-6.65683e-24
4.51091e-24
-4.46545e-24
4.72643e-24
-1.07711e-24
4.16792e-24
3.5675e-24
2.73523e-24
5.61049e-24
1.19365e-24
6.93138e-24
-3.47017e-26
5.82125e-24
-7.14043e-25
3.22367e-24
-9.92587e-25
4.18745e-25
-6.88174e-25
-2.49121e-24
2.89259e-25
-3.84032e-24
1.31196e-24
-4.26168e-24
1.89839e-24
-3.51146e-24
2.0963e-24
-1.91407e-24
2.2367e-24
-2.2638e-25
2.14202e-24
1.45014e-24
1.58422e-24
2.29176e-24
9.26751e-25
2.91627e-24
6.2539e-25
2.93229e-24
6.79323e-25
2.51618e-24
5.32853e-25
1.85378e-24
2.10735e-25
7.04994e-25
-8.07063e-28
1.82221e-25
-1.10441e-25
-7.66356e-25
-2.88304e-25
-1.26341e-24
-7.35009e-25
-1.54612e-24
-9.50327e-25
-1.79289e-24
-8.02941e-25
-1.0408e-24
-4.69216e-25
-8.88544e-25
-5.38427e-26
-2.80467e-26
2.21345e-25
7.70928e-25
5.4615e-25
1.23022e-24
6.65369e-25
2.12395e-24
4.44005e-25
1.75866e-24
-1.18709e-27
1.55834e-24
-5.77846e-25
6.29554e-25
-1.00438e-24
-5.37758e-25
-1.14896e-24
-1.59844e-24
-1.08438e-24
-2.09891e-24
-6.40142e-25
-2.33192e-24
-2.75157e-25
-1.1733e-24
-1.01535e-25
-5.83095e-24
-3.09891e-22
-4.45017e-25
-3.61167e-24
-2.91961e-24
1.92666e-24
-1.27415e-24
1.11469e-24
5.71725e-25
4.13073e-24
1.67929e-24
-1.11917e-23
4.62702e-24
-1.95011e-24
4.89547e-24
-1.21965e-23
6.69435e-24
-6.13362e-24
5.4575e-24
-2.92511e-25
3.65048e-24
-5.30586e-25
1.87382e-24
1.10554e-23
-2.7144e-25
7.61049e-24
-9.6241e-25
9.5477e-24
-1.79921e-24
5.12012e-24
-1.13398e-24
-1.90839e-24
6.69969e-25
-4.31956e-24
2.56684e-24
-9.55498e-24
4.3266e-24
-8.29929e-24
5.1342e-24
-5.7397e-24
5.44424e-24
-1.48293e-24
4.86732e-24
4.29175e-24
3.2725e-24
6.9003e-24
1.51975e-24
8.65827e-24
9.93504e-26
7.34154e-24
-7.17527e-25
4.17082e-24
-1.08725e-24
6.41682e-25
-7.84373e-25
-3.0182e-24
3.06385e-25
-4.741e-24
1.47331e-24
-5.3432e-24
2.15762e-24
-4.46795e-24
2.40925e-24
-2.51644e-24
2.59864e-24
-3.85738e-25
2.5134e-24
1.72719e-24
1.88519e-24
2.80185e-24
1.12634e-24
3.63511e-24
7.68819e-25
3.72395e-24
8.14305e-25
3.2813e-24
6.33931e-25
2.4559e-24
2.57589e-25
1.0248e-24
1.29604e-26
3.47916e-25
-1.0473e-25
-8.84096e-25
-3.03159e-25
-1.56063e-24
-8.09823e-25
-2.0153e-24
-1.05878e-24
-2.34197e-24
-8.99337e-25
-1.42478e-24
-5.25082e-25
-1.21398e-24
-6.25271e-26
-8.9689e-26
2.47957e-25
9.41291e-25
6.20203e-25
1.60283e-24
7.62971e-25
2.75509e-24
5.23615e-25
2.32359e-24
2.31262e-26
2.08275e-24
-6.29853e-25
8.78974e-25
-1.11993e-24
-5.98369e-25
-1.2972e-24
-1.9827e-24
-1.23572e-24
-2.6379e-24
-7.40759e-25
-2.95718e-24
-3.27284e-25
-1.48559e-24
-1.61152e-25
-6.33228e-24
-3.04728e-22
-4.22741e-25
-4.30474e-24
-3.23364e-24
1.78044e-24
-1.37791e-24
2.17235e-24
5.73093e-25
4.7781e-24
1.80932e-24
-1.30947e-23
5.09025e-24
-2.13877e-24
5.4653e-24
-1.50391e-23
7.55616e-24
-7.28749e-24
6.26317e-24
-9.67558e-25
4.31023e-24
-8.61099e-25
2.33585e-24
1.31036e-23
-7.03285e-26
9.07501e-24
-9.12792e-25
1.17866e-23
-1.93276e-24
6.30289e-24
-1.27333e-24
-2.00816e-24
6.9067e-25
-5.06525e-24
2.80658e-24
-1.15536e-23
4.80176e-24
-1.01298e-23
5.76818e-24
-7.21187e-24
6.1919e-24
-1.98941e-24
5.61361e-24
5.03773e-24
3.86503e-24
8.30038e-24
1.90018e-24
1.05806e-23
2.78862e-25
9.06197e-24
-6.89915e-25
5.27839e-24
-1.16713e-24
9.39342e-25
-8.78989e-25
-3.56521e-24
3.19463e-25
-5.72195e-24
1.63203e-24
-6.54997e-24
2.41979e-24
-5.55515e-24
2.73327e-24
-3.2227e-24
2.98039e-24
-5.9547e-25
2.91098e-24
2.00932e-24
2.21344e-24
3.35257e-24
1.34978e-24
4.43111e-24
9.31898e-25
4.61743e-24
9.64751e-25
4.16228e-24
7.46527e-25
3.1594e-24
3.12468e-25
1.41757e-24
3.31084e-26
5.6454e-25
-9.21008e-26
-9.90067e-25
-3.11713e-25
-1.87883e-24
-8.80218e-25
-2.5458e-24
-1.16579e-24
-2.96928e-24
-9.96977e-25
-1.87882e-24
-5.83749e-25
-1.60198e-24
-7.55326e-26
-1.79494e-25
2.70999e-25
1.11504e-24
6.93277e-25
2.01938e-24
8.63368e-25
3.4688e-24
6.09789e-25
2.97528e-24
5.53468e-26
2.69623e-24
-6.74553e-25
1.18341e-24
-1.23127e-24
-6.41301e-25
-1.44605e-24
-2.39953e-24
-1.39185e-24
-3.23958e-24
-8.48454e-25
-3.66743e-24
-3.85418e-25
-1.84758e-24
-2.46538e-25
-6.79635e-24
-2.99148e-22
-3.77666e-25
-5.15838e-24
-3.54073e-24
1.54868e-24
-1.46429e-24
3.49214e-24
5.63736e-25
5.42981e-24
1.9245e-24
-1.50363e-23
5.5413e-24
-2.31353e-24
6.03413e-24
-1.81814e-23
8.44129e-24
-8.53308e-24
7.11278e-24
-1.85737e-24
5.03089e-24
-1.28167e-24
2.8665e-24
1.52515e-23
1.95415e-25
1.0643e-23
-8.12887e-25
1.42876e-23
-2.03866e-24
7.63992e-24
-1.4078e-24
-2.01697e-24
7.01665e-25
-5.81982e-24
3.03176e-24
-1.37142e-23
5.269e-24
-1.21473e-23
6.40969e-24
-8.89368e-24
6.96762e-24
-2.61137e-24
6.40725e-24
5.7878e-24
4.51571e-24
9.79924e-24
2.33976e-24
1.26957e-23
5.09348e-25
1.0988e-23
-6.26128e-25
6.55946e-24
-1.22838e-24
1.32592e-24
-9.69987e-25
-4.11955e-24
3.28697e-25
-6.77537e-24
1.78701e-24
-7.88038e-24
2.68345e-24
-6.77659e-24
3.06725e-24
-4.04021e-24
3.38149e-24
-8.63546e-25
3.33509e-24
2.28926e-24
2.57011e-24
3.93872e-24
1.59882e-24
5.30158e-24
1.11649e-24
5.61316e-24
1.13227e-24
5.16275e-24
8.72053e-25
3.96985e-24
3.7669e-25
1.89078e-24
6.0868e-26
8.39596e-25
-7.14598e-26
-1.0769e-24
-3.13048e-25
-2.21257e-24
-9.4538e-25
-3.13545e-24
-1.27086e-24
-3.67506e-24
-1.09586e-24
-2.40677e-24
-6.45747e-25
-2.05768e-24
-9.3795e-26
-3.03744e-25
2.89477e-25
1.28597e-24
7.64543e-25
2.47616e-24
9.6621e-25
4.26333e-24
7.02844e-25
3.7157e-24
9.64392e-26
3.40359e-24
-7.10535e-25
1.54922e-24
-1.33698e-24
-6.59556e-25
-1.5945e-24
-2.84407e-24
-1.55238e-24
-3.9026e-24
-9.63513e-25
-4.46518e-24
-4.50049e-25
-2.26388e-24
-3.64323e-25
-7.2171e-24
-2.93173e-22
-3.0673e-25
-6.20851e-24
-3.83791e-24
1.22758e-24
-1.52912e-24
5.09306e-24
5.43903e-25
6.07312e-24
2.02393e-24
-1.6981e-23
5.97752e-24
-2.47178e-24
6.5983e-24
-2.16168e-23
9.34712e-24
-9.86655e-24
8.00525e-24
-2.98891e-24
5.81433e-24
-1.80355e-24
3.47041e-24
1.74725e-23
5.31965e-25
1.23037e-23
-6.55877e-25
1.70539e-23
-2.11115e-24
9.13899e-24
-1.53383e-24
-1.91115e-24
7.03642e-25
-6.56612e-24
3.24032e-24
-1.60234e-23
5.72491e-24
-1.43492e-23
7.05524e-24
-1.07965e-23
7.76921e-24
-3.36435e-24
7.24834e-24
6.52247e-24
5.22724e-24
1.13835e-23
2.84337e-24
1.4999e-23
7.96603e-25
1.31243e-23
-5.2066e-25
8.02738e-24
-1.26673e-24
1.81665e-24
-1.05495e-24
-4.66695e-24
3.34523e-25
-7.89204e-24
1.93717e-24
-9.33174e-24
2.947e-24
-8.13522e-24
3.40992e-24
-4.97631e-24
3.80133e-24
-1.19841e-24
3.78597e-24
2.55891e-24
2.95633e-24
4.55425e-24
1.87526e-24
6.24296e-24
1.32457e-24
6.71081e-24
1.31862e-24
6.28574e-24
1.01209e-24
4.89259e-24
4.51722e-25
2.45214e-24
9.75993e-26
1.18114e-24
-4.16103e-26
-1.13636e-24
-3.06154e-25
-2.55542e-24
-1.00442e-24
-3.78105e-24
-1.37343e-24
-4.45876e-24
-1.19595e-24
-3.01214e-24
-7.11592e-25
-2.58632e-24
-1.18262e-25
-4.69298e-25
3.02356e-25
1.44698e-24
8.33111e-25
2.96845e-24
1.07109e-24
5.13594e-24
8.03075e-25
4.5462e-24
1.47397e-25
4.20943e-24
-7.36301e-25
1.98312e-24
-1.4355e-24
-6.45365e-25
-1.74138e-24
-3.31052e-24
-1.7168e-24
-4.62479e-24
-1.08615e-24
-5.35259e-24
-5.21646e-25
-2.73931e-24
-5.21942e-25
-7.58819e-24
-2.86826e-22
-2.06748e-25
-7.49404e-24
-4.12194e-24
8.13774e-25
-1.56781e-24
6.99197e-24
5.14113e-25
6.69416e-24
2.10707e-24
-1.88902e-23
6.3963e-24
-2.61132e-24
7.15383e-24
-2.53356e-23
1.02707e-23
-1.12829e-23
8.93899e-24
-4.38947e-24
6.66203e-24
-2.43812e-24
4.15207e-24
1.97374e-23
9.45548e-25
1.40444e-23
-4.34549e-25
2.0087e-23
-2.14396e-24
1.08073e-23
-1.64729e-24
-1.66579e-24
6.97762e-25
-7.28552e-24
3.4304e-24
-1.84652e-23
6.166e-24
-1.67313e-23
7.70101e-24
-1.29313e-23
8.59407e-24
-4.26453e-24
8.13659e-24
7.22033e-24
6.00209e-24
1.30377e-23
3.4159e-24
1.74843e-23
1.14667e-24
1.54745e-23
-3.67571e-25
9.69564e-24
-1.2774e-24
2.4278e-24
-1.13101e-24
-5.19154e-24
3.37662e-25
-9.06114e-24
2.08157e-24
-1.09001e-23
3.20883e-24
-9.63329e-24
3.75984e-24
-6.03827e-24
4.23908e-24
-1.60895e-24
4.26371e-24
2.80941e-24
3.37317e-24
5.1922e-24
2.18094e-24
7.25077e-24
1.55827e-24
7.90922e-24
1.52572e-24
7.53364e-24
1.16838e-24
5.93269e-24
5.39189e-25
3.10953e-24
1.44802e-25
1.59773e-24
-1.24424e-27
-1.15929e-24
-2.89923e-25
-2.89984e-24
-1.05635e-24
-4.47827e-24
-1.47288e-24
-5.31892e-24
-1.29714e-24
-3.69802e-24
-7.81777e-25
-3.19315e-24
-1.49891e-25
-6.83567e-25
3.08553e-25
1.59006e-24
8.9802e-25
3.49044e-24
1.17755e-24
6.08281e-24
9.1073e-25
5.46745e-24
2.09231e-25
5.11814e-24
-7.50273e-25
2.49213e-24
-1.52514e-24
-5.90188e-25
-1.88537e-24
-3.79209e-24
-1.88446e-24
-5.40318e-24
-1.21651e-24
-6.33134e-24
-6.00649e-25
-3.27892e-24
-7.2766e-25
-7.90308e-24
-2.80132e-22
-7.44716e-26
-9.05669e-24
-4.38927e-24
3.0453e-25
-1.57535e-24
9.20299e-24
4.75197e-25
7.27807e-24
2.17376e-24
-2.07222e-23
6.79513e-24
-2.73045e-24
7.69652e-24
-2.93247e-23
1.12087e-23
-1.27762e-23
9.91182e-24
-6.08631e-24
7.57501e-24
-3.1967e-24
4.91568e-24
2.20136e-23
1.44237e-24
1.58507e-23
-1.41326e-25
2.33864e-23
-2.13027e-24
1.26512e-23
-1.74336e-24
-1.25494e-24
6.85742e-25
-7.95791e-24
3.60043e-24
-2.10215e-23
6.58881e-24
-1.92878e-23
8.34291e-24
-1.53082e-23
9.4391e-24
-5.32854e-24
9.07123e-24
7.85816e-24
6.84239e-24
1.47445e-23
4.0622e-24
2.01433e-23
1.5658e-24
1.80411e-23
-1.60495e-25
1.15778e-23
-1.25508e-24
3.17657e-24
-1.19484e-24
-5.67581e-24
3.39173e-25
-1.02702e-23
2.21936e-24
-1.25802e-23
3.46724e-24
-1.12722e-23
4.11539e-24
-7.23318e-24
4.69373e-24
-2.10443e-24
4.76821e-24
3.03105e-24
3.82163e-24
5.8447e-24
2.51775e-24
8.31953e-24
1.81977e-24
9.20628e-24
1.75567e-24
8.90805e-24
1.34285e-24
7.0948e-24
6.40886e-25
3.87088e-24
2.04125e-25
2.09841e-24
5.10672e-26
-1.13566e-24
-2.63139e-25
-3.2372e-24
-1.10009e-24
-5.22155e-24
-1.56847e-24
-6.25307e-24
-1.39925e-24
-4.46695e-24
-8.56764e-25
-3.88337e-24
-1.89642e-25
-9.5447e-25
3.06939e-25
1.70629e-24
9.58227e-25
4.03516e-24
1.28502e-24
7.09894e-24
1.02599e-24
6.47927e-24
2.82947e-25
6.13373e-24
-7.50806e-25
3.08353e-24
-1.60409e-24
-4.84726e-25
-2.02498e-24
-4.28094e-24
-2.05456e-24
-6.23381e-24
-1.3546e-24
-7.40256e-24
-6.87459e-25
-3.8879e-24
-9.90586e-25
-8.15512e-24
-2.73125e-22
9.33554e-26
-1.09408e-23
-4.63613e-24
-3.02121e-25
-1.54625e-24
1.17368e-23
4.28323e-25
7.80902e-24
2.22432e-24
-2.24328e-23
7.17164e-24
-2.82819e-24
8.22197e-24
-3.35673e-23
1.21575e-23
-1.4339e-23
1.09209e-23
-8.10631e-24
8.55375e-24
-4.09034e-24
5.76507e-24
2.42659e-23
2.02854e-24
1.77062e-23
2.3169e-25
2.69491e-23
-2.06269e-24
1.46759e-23
-1.81653e-24
-6.51728e-25
6.69938e-25
-8.56185e-24
3.74923e-24
-2.36713e-23
6.98993e-24
-2.20106e-23
8.97653e-24
-1.79364e-23
1.03008e-23
-6.57333e-24
1.00509e-23
8.41094e-24
7.74986e-24
1.64842e-23
4.78696e-24
2.29657e-23
2.06041e-24
2.08254e-23
1.07356e-25
1.3687e-23
-1.19392e-24
4.08099e-24
-1.24255e-24
-6.1006e-24
3.40514e-25
-1.15052e-23
2.3499e-24
-1.43653e-23
3.72054e-24
-1.30523e-23
4.47481e-24
-8.56782e-24
5.16402e-24
-2.69444e-24
5.29918e-24
3.21341e-24
4.30257e-24
6.50293e-24
2.88756e-24
9.44275e-24
2.11141e-24
1.05989e-23
2.01068e-24
1.04097e-23
1.5376e-24
8.38311e-24
7.58787e-25
4.74415e-24
2.77379e-25
2.69265e-24
1.16883e-25
-1.05454e-24
-2.24464e-25
-3.5577e-24
-1.13445e-24
-6.00402e-24
-1.65938e-24
-7.25761e-24
-1.50202e-24
-5.32084e-24
-9.36969e-25
-4.66198e-24
-2.38467e-25
-1.29038e-24
2.9634e-25
1.78587e-24
1.01261e-24
4.59444e-24
1.39284e-24
8.17806e-24
1.14897e-24
7.58054e-24
3.69532e-25
7.25972e-24
-7.36198e-25
3.76477e-24
-1.67039e-24
-3.18951e-25
-2.15853e-24
-4.76813e-24
-2.22611e-24
-7.11173e-24
-1.50035e-24
-8.56671e-24
-7.82421e-25
-4.57152e-24
-1.32067e-24
-8.33762e-24
-2.65838e-22
2.99918e-25
-1.31931e-23
-4.85843e-24
-1.00718e-24
-1.47461e-24
1.46001e-23
3.75033e-25
8.27033e-24
2.25964e-24
-2.39752e-23
7.52369e-24
-2.90443e-24
8.72563e-24
-3.80429e-23
1.31132e-23
-1.5963e-23
1.19628e-23
-1.04755e-23
9.59812e-24
-5.12968e-24
6.70363e-24
2.64564e-23
2.70994e-24
1.95928e-23
6.92655e-25
3.07695e-23
-1.93332e-24
1.68854e-23
-1.8605e-24
1.71279e-25
6.53423e-25
-9.07466e-24
3.87607e-24
-2.6391e-23
7.36613e-24
-2.489e-23
9.59724e-24
-2.0824e-23
1.1175e-23
-8.01593e-24
1.10738e-23
8.85195e-24
8.72573e-24
1.82351e-23
5.59468e-24
2.59387e-23
2.63701e-24
2.38268e-23
4.43167e-25
1.60364e-23
-1.08749e-24
5.15983e-24
-1.26968e-24
-6.44511e-24
3.43608e-25
-1.27499e-23
2.47278e-24
-1.62469e-23
3.96703e-24
-1.49731e-23
4.83617e-24
-1.00486e-23
5.64847e-24
-3.38881e-24
5.8561e-24
3.34527e-24
4.81672e-24
7.15711e-24
3.29222e-24
1.06128e-23
2.43555e-24
1.20827e-23
2.29315e-24
1.20385e-23
1.75491e-24
9.80118e-24
8.95047e-25
5.73715e-24
3.66543e-25
3.39023e-24
1.97902e-25
-9.04174e-25
-1.7243e-25
-3.85032e-24
-1.15811e-24
-6.8174e-24
-1.74466e-24
-8.32767e-24
-1.6051e-24
-6.26075e-24
-1.02275e-24
-5.53373e-24
-2.97301e-25
-1.70002e-24
2.7554e-25
1.81809e-24
1.05994e-24
5.15887e-24
1.50026e-24
9.31251e-24
1.27964e-24
8.76905e-24
4.69925e-25
8.49904e-24
-7.04714e-25
4.54334e-24
-1.72196e-24
-8.21567e-26
-2.28413e-24
-5.24362e-24
-2.39794e-24
-8.03084e-24
-1.65352e-24
-9.82343e-24
-8.85811e-25
-5.33507e-24
-1.72871e-24
-8.44397e-24
-2.58311e-22
5.48249e-25
-1.58624e-23
-5.05184e-24
-1.81048e-24
-1.35408e-24
1.77943e-23
3.17262e-25
8.64463e-24
2.28123e-24
-2.53002e-23
7.84944e-24
-2.96018e-24
9.20286e-24
-4.27264e-23
1.40715e-23
-1.76384e-23
1.30333e-23
-1.32187e-23
1.07073e-23
-6.32464e-24
7.73412e-24
2.85442e-23
3.49215e-24
2.14905e-23
1.24991e-24
3.48388e-23
-1.73378e-24
1.92823e-23
-1.86819e-24
1.24186e-24
6.40072e-25
-9.47255e-24
3.98082e-24
-2.91546e-23
7.7144e-24
-2.79136e-23
1.02002e-23
-2.39773e-23
1.20572e-23
-9.67324e-24
1.21373e-23
9.15288e-24
9.77067e-24
1.99732e-23
6.48952e-24
2.90472e-23
3.30212e-24
2.70431e-23
8.54488e-25
1.86382e-23
-9.28777e-25
6.43246e-24
-1.2711e-24
-6.68693e-24
3.50908e-25
-1.39867e-23
2.58788e-24
-1.8215e-23
4.20512e-24
-1.70324e-23
5.1974e-24
-1.16813e-23
6.14534e-24
-4.19752e-24
6.43821e-24
3.41475e-24
5.36465e-24
7.79652e-24
3.73355e-24
1.18211e-23
2.79465e-24
1.36525e-23
2.60559e-24
1.37929e-23
1.99724e-24
1.13519e-23
1.05201e-24
6.85747e-24
4.73775e-25
4.2012e-24
2.95975e-25
-6.71994e-25
-1.05426e-25
-4.10289e-24
-1.16962e-24
-7.65191e-24
-1.82323e-24
-9.45704e-24
-1.70798e-24
-7.2868e-24
-1.11438e-24
-6.50291e-24
-3.67039e-25
-2.19241e-24
2.43293e-25
1.79142e-24
1.09892e-24
5.71772e-24
1.60637e-24
1.04932e-23
1.41788e-24
1.00414e-23
5.84996e-25
9.85383e-24
-6.54601e-25
5.42668e-24
-1.75662e-24
2.36981e-25
-2.39974e-24
-5.69623e-24
-2.56867e-24
-8.98383e-24
-1.8137e-24
-1.11715e-23
-9.97815e-25
-6.18377e-24
-2.2263e-24
-8.46775e-24
-2.50589e-22
8.4114e-25
-1.89988e-23
-5.21181e-24
-2.71042e-24
-1.17797e-24
2.13157e-23
2.57362e-25
8.91403e-24
2.29137e-24
-2.63574e-23
8.14739e-24
-2.99773e-24
9.64902e-24
-4.75886e-23
1.5028e-23
-1.93545e-23
1.41274e-23
-1.63588e-23
1.18798e-23
-7.68421e-24
8.85862e-24
3.04861e-23
4.38035e-24
2.33776e-23
1.91191e-24
3.91451e-23
-1.45518e-24
2.18673e-23
-1.83167e-24
2.58776e-24
6.34641e-25
-9.73089e-24
4.06401e-24
-3.19328e-23
8.0321e-24
-3.10667e-23
1.07805e-23
-2.74011e-23
1.29424e-23
-1.15618e-23
1.3238e-23
9.28401e-24
1.08846e-23
2.16725e-23
7.47525e-24
3.2273e-23
4.06222e-24
3.04701e-23
1.34919e-24
2.1504e-23
-7.1018e-25
7.91865e-24
-1.24103e-24
-6.80209e-24
3.65473e-25
-1.51957e-23
2.6955e-24
-2.02573e-23
4.43331e-24
-1.92269e-23
5.55634e-24
-1.34711e-23
6.65266e-24
-5.13058e-24
7.04446e-24
3.40932e-24
5.9467e-24
8.40949e-24
4.21328e-24
1.30577e-23
3.19118e-24
1.53016e-23
2.95066e-24
1.56706e-23
2.26722e-24
1.30372e-23
1.23222e-24
8.11227e-24
6.01421e-25
5.13573e-24
4.13111e-25
-3.44724e-25
-2.16811e-26
-4.30201e-24
-1.16735e-24
-8.49621e-24
-1.89384e-24
-1.0638e-23
-1.81005e-24
-8.39797e-24
-1.21204e-24
-7.57325e-24
-4.48521e-25
-2.77668e-24
1.98327e-25
1.69358e-24
1.12814e-24
6.25898e-24
1.71014e-24
1.17094e-23
1.56339e-24
1.13928e-23
7.15518e-25
1.13253e-23
-5.84117e-25
6.42202e-24
-1.77206e-24
6.50312e-25
-2.50307e-24
-6.11368e-24
-2.73669e-24
-9.9621e-24
-1.98031e-24
-1.26085e-23
-1.11851e-24
-7.12267e-24
-2.8258e-24
-8.40284e-24
-2.42722e-22
1.18104e-24
-2.26541e-23
-5.33352e-24
-3.70377e-24
-9.39204e-25
2.51537e-23
1.98118e-25
9.06031e-24
2.29316e-24
-2.70945e-23
8.41645e-24
-3.02095e-24
1.00595e-23
-5.25953e-23
1.59778e-23
-2.10994e-23
1.52393e-23
-1.99166e-23
1.31132e-23
-9.21617e-24
1.00784e-23
3.22364e-23
5.37912e-24
2.52306e-23
2.68709e-24
4.36731e-23
-1.08828e-24
2.46389e-23
-1.74214e-24
4.23638e-24
6.42839e-25
-9.82434e-24
4.12702e-24
-3.46939e-23
8.31705e-24
-3.43323e-23
1.1333e-23
-3.10978e-23
1.38251e-23
-1.36973e-23
1.43721e-23
9.21436e-24
1.20668e-23
2.33045e-23
8.55509e-24
3.55955e-23
4.92361e-24
3.41012e-23
1.93543e-24
2.4644e-23
-4.2352e-25
9.63838e-24
-1.17294e-24
-6.76514e-24
3.91035e-25
-1.63552e-23
2.79637e-24
-2.23599e-23
4.6503e-24
-2.15517e-23
5.91073e-24
-1.54223e-23
7.1682e-24
-6.19793e-24
7.67351e-24
3.31591e-24
6.56299e-24
8.98347e-24
4.733e-24
1.43116e-23
3.62763e-24
1.70222e-23
3.33112e-24
1.76678e-23
2.56767e-24
1.48581e-23
1.43841e-24
9.50823e-24
7.52019e-25
6.20399e-24
5.51492e-25
9.15381e-26
8.07468e-26
-4.43312e-24
-1.14953e-24
-9.33736e-24
-1.95508e-24
-1.18611e-23
-1.9105e-24
-9.59191e-24
-1.31576e-24
-8.7477e-24