/*--------------------------------*- C++ -*----------------------------------*\
| =========                 |                                                 |
| \\      /  F ield         | foam-extend: Open Source CFD                    |
|  \\    /   O peration     | Version:     4.0                                |
|   \\  /    A nd           | Web:         http://www.foam-extend.org         |
|    \\/     M anipulation  |                                                 |
\*---------------------------------------------------------------------------*/
FoamFile
{
    version     2.0;
    format      ascii;
    class       volVectorField;
    location    "18";
    object      U;
}
// * * * * * * * * * * * * * * * * * * * * * * * * * * * * * * * * * * * * * //

dimensions      [0 1 -1 0 0 0 0];

internalField   nonuniform List<vector> 
6960
(
(5.78023e-15 1.55085e-13 0)
(4.60274e-15 9.38523e-17 0)
(-4.43519e-16 9.65291e-18 0)
(4.5067e-16 -1.64036e-18 0)
(2.76199e-17 -2.43897e-21 0)
(3.02395e-16 7.20483e-19 0)
(1.5464e-16 7.09159e-19 0)
(2.836e-16 8.16944e-19 0)
(2.399e-16 3.88848e-19 0)
(3.15866e-16 5.05586e-20 0)
(3.07524e-16 -5.17753e-19 0)
(3.44811e-16 -8.09961e-19 0)
(3.34488e-16 -9.64149e-19 0)
(3.39168e-16 -9.23767e-19 0)
(3.17602e-16 -8.53306e-19 0)
(3.01763e-16 -5.89892e-19 0)
(2.76099e-16 -1.98631e-19 0)
(2.58258e-16 1.27629e-19 0)
(2.4024e-16 2.46152e-19 0)
(2.28464e-16 3.4503e-19 0)
(2.18735e-16 5.17606e-19 0)
(2.13519e-16 5.73152e-19 0)
(2.07956e-16 3.79112e-19 0)
(2.00667e-16 1.77769e-19 0)
(1.9061e-16 1.76068e-19 0)
(1.8006e-16 1.7921e-19 0)
(1.69115e-16 -4.49557e-20 0)
(1.5845e-16 -3.08288e-19 0)
(1.50213e-16 -3.19413e-19 0)
(1.47488e-16 -1.88029e-19 0)
(1.49984e-16 -1.9476e-19 0)
(1.54499e-16 -2.58812e-19 0)
(1.57579e-16 -8.14472e-20 0)
(1.56604e-16 3.16869e-19 0)
(1.47815e-16 6.23139e-19 0)
(1.27234e-16 7.30266e-19 0)
(9.40707e-17 8.02628e-19 0)
(5.24074e-17 8.7365e-19 0)
(9.17835e-18 7.32095e-19 0)
(-2.83886e-17 2.88084e-19 0)
(-5.21735e-17 -2.78971e-19 0)
(-5.61402e-17 -7.71895e-19 0)
(-3.67299e-17 -1.16983e-18 0)
(-2.08507e-19 -1.43659e-18 0)
(4.61837e-17 -1.43216e-18 0)
(8.49922e-17 -1.07331e-18 0)
(1.08442e-16 -4.67309e-19 0)
(9.60879e-17 2.15531e-19 0)
(5.54086e-17 8.85086e-19 0)
(-2.55515e-17 1.37005e-18 0)
(-1.09697e-16 1.53895e-18 0)
(-2.07357e-16 1.23868e-18 0)
(-2.55853e-16 6.97889e-19 0)
(-2.90601e-16 -4.01007e-20 0)
(-2.33766e-16 -6.1127e-19 0)
(-1.89231e-16 -9.96226e-19 0)
(-5.32293e-17 -9.39077e-19 0)
(-3.25114e-17 -4.21423e-19 0)
(7.53979e-17 -6.11758e-19 0)
(-4.79243e-19 -8.64825e-21 0)
(1.22748e-14 3.2305e-13 0)
(8.95458e-15 2.86932e-16 0)
(-1.16599e-15 6.44778e-17 0)
(1.3598e-15 -1.10996e-17 0)
(1.20869e-16 1.40871e-18 0)
(9.1503e-16 7.23926e-19 0)
(4.81221e-16 2.6613e-18 0)
(8.52989e-16 2.19541e-18 0)
(7.23618e-16 1.6641e-18 0)
(9.44326e-16 3.4748e-19 0)
(9.21644e-16 -1.07354e-18 0)
(1.03339e-15 -2.11074e-18 0)
(1.00753e-15 -2.4287e-18 0)
(1.02551e-15 -2.3744e-18 0)
(9.66535e-16 -2.15327e-18 0)
(9.23153e-16 -1.44969e-18 0)
(8.49863e-16 -2.64275e-19 0)
(7.98007e-16 6.64367e-19 0)
(7.44536e-16 9.24652e-19 0)
(7.08526e-16 1.10846e-18 0)
(6.7818e-16 1.61238e-18 0)
(6.60944e-16 1.77534e-18 0)
(6.42832e-16 1.1201e-18 0)
(6.19991e-16 4.26799e-19 0)
(5.89548e-16 4.31852e-19 0)
(5.58147e-16 4.84228e-19 0)
(5.25992e-16 -2.39347e-19 0)
(4.95019e-16 -1.13122e-18 0)
(4.71545e-16 -1.1643e-18 0)
(4.64485e-16 -6.74456e-19 0)
(4.72667e-16 -6.41934e-19 0)
(4.86358e-16 -8.4171e-19 0)
(4.95161e-16 -2.59165e-19 0)
(4.91173e-16 1.05357e-18 0)
(4.63175e-16 2.01326e-18 0)
(3.99512e-16 2.22303e-18 0)
(2.98229e-16 2.26395e-18 0)
(1.72054e-16 2.30732e-18 0)
(4.21156e-17 1.68906e-18 0)
(-6.9508e-17 1.29619e-19 0)
(-1.38477e-16 -1.7134e-18 0)
(-1.46618e-16 -3.15627e-18 0)
(-8.39982e-17 -4.13438e-18 0)
(3.03519e-17 -4.6106e-18 0)
(1.73381e-16 -4.16428e-18 0)
(2.92784e-16 -2.63614e-18 0)
(3.63769e-16 -4.5315e-19 0)
(3.26072e-16 1.7032e-18 0)
(2.0085e-16 3.57248e-18 0)
(-4.5486e-17 4.59298e-18 0)
(-3.02896e-16 4.44597e-18 0)
(-5.99492e-16 2.71666e-18 0)
(-7.48968e-16 3.45411e-19 0)
(-8.5524e-16 -2.39235e-18 0)
(-6.87164e-16 -4.20061e-18 0)
(-5.54106e-16 -5.03571e-18 0)
(-1.48141e-16 -4.07205e-18 0)
(-8.30923e-17 -1.54679e-18 0)
(2.38981e-16 -1.82198e-18 0)
(-1.44493e-18 1.51688e-18 0)
(1.81953e-14 3.1568e-13 0)
(1.29102e-14 5.34161e-16 0)
(-1.73364e-15 1.8823e-16 0)
(2.2896e-15 -3.33127e-17 0)
(2.5333e-16 6.85677e-18 0)
(1.54409e-15 -2.27578e-18 0)
(8.30046e-16 5.98884e-18 0)
(1.43344e-15 2.67192e-18 0)
(1.21918e-15 3.62627e-18 0)
(1.57947e-15 4.47963e-19 0)
(1.54423e-15 -1.0804e-18 0)
(1.73073e-15 -3.12861e-18 0)
(1.69341e-15 -3.05945e-18 0)
(1.72793e-15 -2.92521e-18 0)
(1.63593e-15 -2.26272e-18 0)
(1.56808e-15 -1.13791e-18 0)
(1.4497e-15 9.57387e-19 0)
(1.36474e-15 2.40815e-18 0)
(1.27582e-15 2.63269e-18 0)
(1.21462e-15 2.62384e-18 0)
(1.16236e-15 3.33662e-18 0)
(1.13156e-15 3.53221e-18 0)
(1.09955e-15 2.28171e-18 0)
(1.06019e-15 9.38933e-19 0)
(1.00892e-15 9.54176e-19 0)
(9.56562e-16 1.13987e-18 0)
(9.03335e-16 -1.24622e-19 0)
(8.52337e-16 -1.79952e-18 0)
(8.13965e-16 -1.89068e-18 0)
(8.02767e-16 -9.17066e-19 0)
(8.1657e-16 -7.39383e-19 0)
(8.39087e-16 -1.04282e-18 0)
(8.53025e-16 6.3912e-20 0)
(8.45197e-16 2.53273e-18 0)
(7.96944e-16 4.29433e-18 0)
(6.89044e-16 4.49276e-18 0)
(5.18523e-16 4.20207e-18 0)
(3.06926e-16 3.8364e-18 0)
(8.96752e-17 2.26654e-18 0)
(-9.60918e-17 -9.65979e-19 0)
(-2.09789e-16 -4.5023e-18 0)
(-2.20902e-16 -6.96691e-18 0)
(-1.13393e-16 -8.16213e-18 0)
(8.10732e-17 -8.14116e-18 0)
(3.22957e-16 -6.20006e-18 0)
(5.25282e-16 -2.33106e-18 0)
(6.45165e-16 2.50681e-18 0)
(5.83051e-16 6.67072e-18 0)
(3.72461e-16 9.70447e-18 0)
(-4.06539e-17 1.0402e-17 0)
(-4.74645e-16 8.51478e-18 0)
(-9.73529e-16 3.31237e-18 0)
(-1.22865e-15 -2.77924e-18 0)
(-1.41022e-15 -9.15313e-18 0)
(-1.1351e-15 -1.26281e-17 0)
(-9.15308e-16 -1.35846e-17 0)
(-2.41189e-16 -9.77959e-18 0)
(-1.28187e-16 -3.22042e-18 0)
(4.09074e-16 -2.20481e-18 0)
(-2.58779e-18 6.60424e-18 0)
(2.43272e-14 2.94125e-13 0)
(1.72552e-14 9.04213e-16 0)
(-2.14538e-15 3.71293e-16 0)
(3.24e-15 -6.8297e-17 0)
(4.2546e-16 1.70105e-17 0)
(2.18942e-15 -8.43543e-18 0)
(1.20158e-15 1.11009e-17 0)
(2.02553e-15 2.11804e-18 0)
(1.72746e-15 6.15253e-18 0)
(2.222e-15 -2.46898e-19 0)
(2.17565e-15 -1.27207e-18 0)
(2.43656e-15 -4.86603e-18 0)
(2.39116e-15 -3.89604e-18 0)
(2.44474e-15 -3.62389e-18 0)
(2.32345e-15 -2.03975e-18 0)
(2.23368e-15 -3.04852e-19 0)
(2.07241e-15 3.05698e-18 0)
(1.95508e-15 5.18074e-18 0)
(1.83069e-15 5.45348e-18 0)
(1.74342e-15 5.16538e-18 0)
(1.6681e-15 6.04827e-18 0)
(1.62239e-15 6.22939e-18 0)
(1.57535e-15 4.29431e-18 0)
(1.5187e-15 2.14159e-18 0)
(1.44623e-15 2.05253e-18 0)
(1.37277e-15 2.2884e-18 0)
(1.29839e-15 3.32245e-19 0)
(1.22725e-15 -2.36244e-18 0)
(1.17372e-15 -2.67826e-18 0)
(1.15784e-15 -1.20328e-18 0)
(1.17645e-15 -7.06313e-19 0)
(1.2069e-15 -8.21992e-19 0)
(1.2252e-15 1.26485e-18 0)
(1.21297e-15 5.49745e-18 0)
(1.14421e-15 8.62652e-18 0)
(9.92168e-16 9.0891e-18 0)
(7.52763e-16 8.32478e-18 0)
(4.56154e-16 6.97279e-18 0)
(1.5176e-16 3.45668e-18 0)
(-1.0836e-16 -2.75403e-18 0)
(-2.67506e-16 -9.30269e-18 0)
(-2.82645e-16 -1.37458e-17 0)
(-1.31548e-16 -1.54166e-17 0)
(1.42124e-16 -1.43262e-17 0)
(4.8244e-16 -9.42612e-18 0)
(7.68498e-16 -1.14316e-18 0)
(9.38783e-16 8.69549e-18 0)
(8.55014e-16 1.67298e-17 0)
(5.61503e-16 2.20094e-17 0)
(-1.57791e-17 2.20026e-17 0)
(-6.25984e-16 1.68809e-17 0)
(-1.32777e-15 5.25936e-18 0)
(-1.69265e-15 -7.5136e-18 0)
(-1.95403e-15 -2.06895e-17 0)
(-1.57924e-15 -2.69481e-17 0)
(-1.27684e-15 -2.83177e-17 0)
(-3.39724e-16 -1.89836e-17 0)
(-1.75026e-16 -5.98317e-18 0)
(5.7805e-16 -1.21451e-18 0)
(-4.10904e-18 1.52734e-17 0)
(3.02918e-14 2.89784e-13 0)
(2.16108e-14 1.41074e-15 0)
(-2.40116e-15 6.10998e-16 0)
(4.21161e-15 -1.14204e-16 0)
(6.38297e-16 3.21643e-17 0)
(2.85131e-15 -1.72616e-17 0)
(1.59642e-15 1.8395e-17 0)
(2.62971e-15 9.04465e-19 0)
(2.24894e-15 9.40353e-18 0)
(2.87213e-15 -1.82402e-18 0)
(2.81592e-15 -2.02225e-18 0)
(3.15056e-15 -7.92504e-18 0)
(3.10017e-15 -5.71192e-18 0)
(3.17503e-15 -5.31427e-18 0)
(3.02802e-15 -2.28232e-18 0)
(2.91876e-15 4.05937e-19 0)
(2.71673e-15 5.59195e-18 0)
(2.56777e-15 8.75439e-18 0)
(2.40794e-15 9.38131e-18 0)
(2.29377e-15 8.92622e-18 0)
(2.1943e-15 1.0053e-17 0)
(2.1324e-15 1.01859e-17 0)
(2.0693e-15 7.44049e-18 0)
(1.99465e-15 4.2571e-18 0)
(1.90068e-15 3.8386e-18 0)
(1.80593e-15 3.88758e-18 0)
(1.71022e-15 9.66578e-19 0)
(1.61862e-15 -3.02553e-18 0)
(1.54935e-15 -3.7209e-18 0)
(1.52786e-15 -1.6894e-18 0)
(1.5501e-15 -5.9753e-19 0)
(1.58732e-15 -3.8896e-20 0)
(1.6091e-15 3.72038e-18 0)
(1.59208e-15 1.05267e-17 0)
(1.50299e-15 1.57348e-17 0)
(1.30756e-15 1.68265e-17 0)
(1.0004e-15 1.54325e-17 0)
(6.19876e-16 1.23515e-17 0)
(2.28896e-16 5.58902e-18 0)
(-1.05877e-16 -5.27658e-18 0)
(-3.11848e-16 -1.65387e-17 0)
(-3.33272e-16 -2.4239e-17 0)
(-1.41454e-16 -2.68358e-17 0)
(2.08871e-16 -2.4078e-17 0)
(6.45877e-16 -1.45193e-17 0)
(1.01581e-15 6.62259e-19 0)
(1.23821e-15 1.83448e-17 0)
(1.13668e-15 3.26023e-17 0)
(7.64533e-16 4.15722e-17 0)
(2.78941e-17 4.05893e-17 0)
(-7.56223e-16 3.0644e-17 0)
(-1.66017e-15 9.3014e-18 0)
(-2.13877e-15 -1.34464e-17 0)
(-2.48514e-15 -3.7043e-17 0)
(-2.01992e-15 -4.72918e-17 0)
(-1.64052e-15 -4.94894e-17 0)
(-4.47431e-16 -3.16646e-17 0)
(-2.27306e-16 -9.83618e-18 0)
(7.42122e-16 1.33829e-18 0)
(-6.27584e-18 2.70331e-17 0)
(3.59141e-14 2.90282e-13 0)
(2.58016e-14 2.03856e-15 0)
(-2.50128e-15 9.10643e-16 0)
(5.20513e-15 -1.69259e-16 0)
(8.9302e-16 5.26495e-17 0)
(3.53024e-15 -2.85436e-17 0)
(2.01521e-15 2.7982e-17 0)
(3.24638e-15 -8.55059e-19 0)
(2.78398e-15 1.34551e-17 0)
(3.52997e-15 -4.2141e-18 0)
(3.46493e-15 -3.27593e-18 0)
(3.87237e-15 -1.22504e-17 0)
(3.81993e-15 -8.47022e-18 0)
(3.91817e-15 -7.96949e-18 0)
(3.74895e-15 -2.96054e-18 0)
(3.62262e-15 1.03442e-18 0)
(3.38202e-15 8.5948e-18 0)
(3.20221e-15 1.3154e-17 0)
(3.00703e-15 1.44553e-17 0)
(2.86521e-15 1.39679e-17 0)
(2.74057e-15 1.54081e-17 0)
(2.66124e-15 1.54369e-17 0)
(2.58106e-15 1.17495e-17 0)
(2.48776e-15 7.32117e-18 0)
(2.37199e-15 6.33124e-18 0)
(2.25575e-15 5.92113e-18 0)
(2.13844e-15 1.75508e-18 0)
(2.02593e-15 -3.779e-18 0)
(1.94017e-15 -4.97458e-18 0)
(1.91187e-15 -2.31608e-18 0)
(1.9363e-15 -3.30811e-19 0)
(1.97892e-15 1.4303e-18 0)
(2.00327e-15 7.57761e-18 0)
(1.98118e-15 1.77415e-17 0)
(1.87223e-15 2.5686e-17 0)
(1.63464e-15 2.77232e-17 0)
(1.26142e-15 2.55016e-17 0)
(7.98562e-16 1.99049e-17 0)
(3.21823e-16 8.57069e-18 0)
(-8.79758e-17 -8.60251e-18 0)
(-3.42614e-16 -2.62098e-17 0)
(-3.73435e-16 -3.83583e-17 0)
(-1.4487e-16 -4.22446e-17 0)
(2.78411e-16 -3.71388e-17 0)
(8.09468e-16 -2.11733e-17 0)
(1.26298e-15 3.38926e-18 0)
(1.53944e-15 3.16906e-17 0)
(1.42491e-15 5.44295e-17 0)
(9.79797e-16 6.8407e-17 0)
(9.02237e-17 6.60686e-17 0)
(-8.6411e-16 4.96098e-17 0)
(-1.96853e-15 1.52315e-17 0)
(-2.56479e-15 -2.07727e-17 0)
(-3.00189e-15 -5.83209e-17 0)
(-2.45695e-15 -7.37254e-17 0)
(-2.00741e-15 -7.7101e-17 0)
(-5.66751e-16 -4.78629e-17 0)
(-2.87574e-16 -1.4833e-17 0)
(8.98732e-16 5.50249e-18 0)
(-9.41359e-18 4.20206e-17 0)
(4.1195e-14 2.89812e-13 0)
(2.98282e-14 2.77874e-15 0)
(-2.44645e-15 1.27174e-15 0)
(6.22122e-15 -2.31972e-16 0)
(1.19083e-15 7.87798e-17 0)
(4.22672e-15 -4.22111e-17 0)
(2.45858e-15 3.99248e-17 0)
(3.87594e-15 -3.13746e-18 0)
(3.33289e-15 1.8339e-17 0)
(4.19555e-15 -7.39733e-18 0)
(4.12255e-15 -4.99297e-18 0)
(4.60163e-15 -1.77891e-17 0)
(4.54994e-15 -1.21007e-17 0)
(4.67357e-15 -1.15091e-17 0)
(4.48567e-15 -3.97886e-18 0)
(4.34474e-15 1.67854e-18 0)
(4.06787e-15 1.21485e-17 0)
(3.85809e-15 1.84382e-17 0)
(3.62774e-15 2.07186e-17 0)
(3.45758e-15 2.03223e-17 0)
(3.30678e-15 2.21311e-17 0)
(3.20881e-15 2.19916e-17 0)
(3.11059e-15 1.72436e-17 0)
(2.998e-15 1.13817e-17 0)
(2.86014e-15 9.59527e-18 0)
(2.72219e-15 8.46015e-18 0)
(2.58297e-15 2.77679e-18 0)
(2.44898e-15 -4.53789e-18 0)
(2.3458e-15 -6.36744e-18 0)
(2.30933e-15 -3.0436e-18 0)
(2.33429e-15 1.02408e-19 0)
(2.38082e-15 3.5759e-18 0)
(2.40676e-15 1.28161e-17 0)
(2.37941e-15 2.71161e-17 0)
(2.25133e-15 3.84661e-17 0)
(1.97319e-15 4.17998e-17 0)
(1.53604e-15 3.85989e-17 0)
(9.92823e-16 2.97392e-17 0)
(4.31374e-16 1.25333e-17 0)
(-5.38751e-17 -1.2593e-17 0)
(-3.59402e-16 -3.81935e-17 0)
(-4.03426e-16 -5.60264e-17 0)
(-1.42983e-16 -6.16299e-17 0)
(3.48636e-16 -5.35611e-17 0)
(9.70383e-16 -2.94869e-17 0)
(1.50687e-15 6.92449e-18 0)
(1.83953e-15 4.86448e-17 0)
(1.71752e-15 8.2194e-17 0)
(1.20626e-15 1.0259e-16 0)
(1.71528e-16 9.86172e-17 0)
(-9.48166e-16 7.40111e-17 0)
(-2.25061e-15 2.32975e-17 0)
(-2.96844e-15 -2.93344e-17 0)
(-3.50255e-15 -8.4497e-17 0)
(-2.88984e-15 -1.06442e-16 0)
(-2.37812e-15 -1.11508e-16 0)
(-6.99519e-16 -6.80466e-17 0)
(-3.57852e-16 -2.13584e-17 0)
(1.04587e-15 1.12048e-17 0)
(-1.38939e-17 6.06078e-17 0)
(4.61467e-14 2.88505e-13 0)
(3.37013e-14 3.62954e-15 0)
(-2.23801e-15 1.69456e-15 0)
(7.2605e-15 -3.00755e-16 0)
(1.53291e-15 1.10862e-16 0)
(4.94133e-15 -5.81999e-17 0)
(2.92719e-15 5.42884e-17 0)
(4.5188e-15 -5.89801e-18 0)
(3.89599e-15 2.41216e-17 0)
(4.86892e-15 -1.13249e-17 0)
(4.78861e-15 -7.12618e-18 0)
(5.33796e-15 -2.45138e-17 0)
(5.28971e-15 -1.65885e-17 0)
(5.44069e-15 -1.59324e-17 0)
(5.23766e-15 -5.33623e-18 0)
(5.08471e-15 2.34226e-18 0)
(4.77395e-15 1.62616e-17 0)
(4.53521e-15 2.46212e-17 0)
(4.26999e-15 2.81974e-17 0)
(4.07087e-15 2.80278e-17 0)
(3.89298e-15 3.02671e-17 0)
(3.77519e-15 2.99e-17 0)
(3.65796e-15 2.3984e-17 0)
(3.52547e-15 1.65126e-17 0)
(3.36524e-15 1.37103e-17 0)
(3.20533e-15 1.1583e-17 0)
(3.04384e-15 4.1083e-18 0)
(2.88774e-15 -5.22985e-18 0)
(2.76608e-15 -7.84191e-18 0)
(2.71988e-15 -3.8381e-18 0)
(2.74356e-15 7.15448e-19 0)
(2.79235e-15 6.40166e-18 0)
(2.81888e-15 1.94404e-17 0)
(2.78616e-15 3.86672e-17 0)
(2.6399e-15 5.41199e-17 0)
(2.32315e-15 5.91445e-17 0)
(1.82459e-15 5.48591e-17 0)
(1.20333e-15 4.20227e-17 0)
(5.58428e-16 1.76557e-17 0)
(-2.73253e-18 -1.70882e-17 0)
(-3.61689e-16 -5.2381e-17 0)
(-4.23314e-16 -7.7214e-17 0)
(-1.36642e-16 -8.50533e-17 0)
(4.17891e-16 -7.34859e-17 0)
(1.12633e-15 -3.96462e-17 0)
(1.7449e-15 1.10882e-17 0)
(2.13607e-15 6.90921e-17 0)
(2.01276e-15 1.15895e-16 0)
(1.44322e-15 1.44258e-16 0)
(2.72324e-16 1.38506e-16 0)
(-1.00682e-15 1.04199e-16 0)
(-2.50412e-15 3.38585e-17 0)
(-3.3474e-15 -3.88673e-17 0)
(-3.98528e-15 -1.15472e-16 0)
(-3.31784e-15 -1.45567e-16 0)
(-2.75302e-15 -1.53031e-16 0)
(-8.47204e-16 -9.2646e-17 0)
(-4.39875e-16 -2.97994e-17 0)
(1.18179e-15 1.83461e-17 0)
(-2.01392e-17 8.30336e-17 0)
(5.07682e-14 2.86872e-13 0)
(3.74181e-14 4.58948e-15 0)
(-1.87807e-15 2.17913e-15 0)
(8.32347e-15 -3.739e-16 0)
(1.92035e-15 1.49197e-16 0)
(5.67461e-15 -7.64273e-17 0)
(3.42167e-15 7.11345e-17 0)
(5.17539e-15 -9.07657e-18 0)
(4.47358e-15 3.08831e-17 0)
(5.55013e-15 -1.59305e-17 0)
(5.46297e-15 -9.62317e-18 0)
(6.08098e-15 -3.24038e-17 0)
(6.03874e-15 -2.19406e-17 0)
(6.21897e-15 -2.12708e-17 0)
(6.00442e-15 -7.07233e-18 0)
(5.84208e-15 2.98765e-18 0)
(5.49999e-15 2.09071e-17 0)
(5.23342e-15 3.16932e-17 0)
(4.93373e-15 3.69062e-17 0)
(4.70514e-15 3.7122e-17 0)
(4.49929e-15 3.98706e-17 0)
(4.36054e-15 3.92288e-17 0)
(4.22335e-15 3.20492e-17 0)
(4.07035e-15 2.2802e-17 0)
(3.88746e-15 1.87665e-17 0)
(3.70534e-15 1.53753e-17 0)
(3.52117e-15 5.82916e-18 0)
(3.34225e-15 -5.78457e-18 0)
(3.20096e-15 -9.34486e-18 0)
(3.14333e-15 -4.66949e-18 0)
(3.16376e-15 1.51932e-18 0)
(3.21307e-15 9.91086e-18 0)
(3.23914e-15 2.74591e-17 0)
(3.20099e-15 5.24228e-17 0)
(3.03766e-15 7.2713e-17 0)
(2.68453e-15 7.9875e-17 0)
(2.12743e-15 7.4453e-17 0)
(1.43079e-15 5.6964e-17 0)
(7.0388e-16 2.41555e-17 0)
(6.63333e-17 -2.18982e-17 0)
(-3.48867e-16 -6.865e-17 0)
(-4.33019e-16 -1.01899e-16 0)
(-1.26468e-16 -1.12605e-16 0)
(4.84816e-16 -9.71017e-17 0)
(1.27536e-15 -5.18954e-17 0)
(1.97484e-15 1.56437e-17 0)
(2.42698e-15 9.28733e-17 0)
(2.30916e-15 1.55514e-16 0)
(1.69013e-15 1.93564e-16 0)
(3.93195e-16 1.86047e-16 0)
(-1.03848e-15 1.40591e-16 0)
(-2.72679e-15 4.73519e-17 0)
(-3.69931e-15 -4.9026e-17 0)
(-4.44813e-15 -1.51086e-16 0)
(-3.74004e-15 -1.91181e-16 0)
(-3.13221e-15 -2.01981e-16 0)
(-1.011e-15 -1.221e-16 0)
(-5.35192e-16 -4.05788e-17 0)
(1.30492e-15 2.67884e-17 0)
(-2.86245e-17 1.09473e-16 0)
(5.50563e-14 2.85028e-13 0)
(4.09729e-14 5.6557e-15 0)
(-1.36946e-15 2.72525e-15 0)
(9.41051e-15 -4.4959e-16 0)
(2.35416e-15 1.94087e-16 0)
(6.42712e-15 -9.67908e-17 0)
(3.94265e-15 9.05212e-17 0)
(5.84613e-15 -1.26005e-17 0)
(5.06598e-15 3.87148e-17 0)
(6.23925e-15 -2.11311e-17 0)
(6.14545e-15 -1.24212e-17 0)
(6.83031e-15 -4.14342e-17 0)
(6.7965e-15 -2.81705e-17 0)
(7.00783e-15 -2.75708e-17 0)
(6.78539e-15 -9.24999e-18 0)
(6.61642e-15 3.55011e-18 0)
(6.24568e-15 2.60321e-17 0)
(5.95258e-15 3.96235e-17 0)
(5.61897e-15 4.68442e-17 0)
(5.36049e-15 4.76338e-17 0)
(5.12587e-15 5.09938e-17 0)
(4.96504e-15 5.00474e-17 0)
(4.80698e-15 4.15234e-17 0)
(4.63285e-15 3.0344e-17 0)
(4.42702e-15 2.48599e-17 0)
(4.22242e-15 1.99286e-17 0)
(4.01513e-15 8.02347e-18 0)
(3.81262e-15 -6.12938e-18 0)
(3.65043e-15 -1.08227e-17 0)
(3.57957e-15 -5.50862e-18 0)
(3.59464e-15 2.52198e-18 0)
(3.6426e-15 1.41009e-17 0)
(3.66711e-15 3.68729e-17 0)
(3.62354e-15 6.84044e-17 0)
(3.44443e-15 9.43079e-17 0)
(3.05742e-15 1.04112e-16 0)
(2.44498e-15 9.75629e-17 0)
(1.67591e-15 7.47928e-17 0)
(8.6863e-16 3.22804e-17 0)
(1.54229e-16 -2.67985e-17 0)
(-3.20258e-16 -8.6846e-17 0)
(-4.32334e-16 -1.30037e-16 0)
(-1.12902e-16 -1.44372e-16 0)
(5.48282e-16 -1.24613e-16 0)
(1.41576e-15 -6.65163e-17 0)
(2.19468e-15 2.03005e-17 0)
(2.71035e-15 1.19769e-16 0)
(2.60534e-15 2.00978e-16 0)
(1.9465e-15 2.50622e-16 0)
(5.34711e-16 2.41548e-16 0)
(-1.04161e-15 1.83632e-16 0)
(-2.91637e-15 6.42695e-17 0)
(-4.02177e-15 -5.93943e-17 0)
(-4.88908e-15 -1.91108e-16 0)
(-4.15531e-15 -2.43312e-16 0)
(-3.51562e-15 -2.58647e-16 0)
(-1.19187e-15 -1.5686e-16 0)
(-6.45212e-16 -5.41598e-17 0)
(1.41376e-15 3.63459e-17 0)
(-3.98789e-17 1.40053e-16 0)
(5.90082e-14 2.82995e-13 0)
(4.43593e-14 6.82438e-15 0)
(-7.15757e-16 3.33244e-15 0)
(1.05218e-14 -5.25909e-16 0)
(2.83525e-15 2.45841e-16 0)
(7.19937e-15 -1.19168e-16 0)
(4.49071e-15 1.12501e-16 0)
(6.53148e-15 -1.63903e-17 0)
(5.67353e-15 4.7714e-17 0)
(6.93635e-15 -2.68305e-17 0)
(6.83591e-15 -1.54473e-17 0)
(7.58557e-15 -5.15711e-17 0)
(7.56247e-15 -3.52889e-17 0)
(7.80665e-15 -3.48813e-17 0)
(7.57998e-15 -1.19409e-17 0)
(7.40725e-15 3.95226e-18 0)
(7.01069e-15 3.15689e-17 0)
(6.6925e-15 4.83671e-17 0)
(6.32568e-15 5.79982e-17 0)
(6.03701e-15 5.95829e-17 0)
(5.77291e-15 6.36838e-17 0)
(5.58892e-15 6.24248e-17 0)
(5.40908e-15 5.24927e-17 0)
(5.21324e-15 3.92368e-17 0)
(4.98418e-15 3.20928e-17 0)
(4.75681e-15 2.53422e-17 0)
(4.52592e-15 1.07836e-17 0)
(4.299e-15 -6.18409e-18 0)
(4.11458e-15 -1.22159e-17 0)
(4.02854e-15 -6.32319e-18 0)
(4.03603e-15 3.73035e-18 0)
(4.08068e-15 1.8963e-17 0)
(4.1025e-15 4.76716e-17 0)
(4.05354e-15 8.662e-17 0)
(3.86007e-15 1.18955e-16 0)
(3.44189e-15 1.31968e-16 0)
(2.77761e-15 1.24374e-16 0)
(1.93936e-15 9.57547e-17 0)
(1.05357e-15 4.2307e-17 0)
(2.61877e-16 -3.15263e-17 0)
(-2.75127e-16 -1.06773e-16 0)
(-4.20942e-16 -1.61548e-16 0)
(-9.6219e-17 -1.80419e-16 0)
(6.0735e-16 -1.56226e-16 0)
(1.54603e-15 -8.38188e-17 0)
(2.40261e-15 2.4718e-17 0)
(2.9844e-15 1.49495e-16 0)
(2.89997e-15 2.5215e-16 0)
(2.2118e-15 3.15502e-16 0)
(6.97369e-16 3.05298e-16 0)
(-1.01473e-15 2.33783e-16 0)
(-3.07066e-15 8.51527e-17 0)
(-4.31235e-15 -6.94854e-17 0)
(-5.30596e-15 -2.35229e-16 0)
(-4.56232e-15 -3.01929e-16 0)
(-3.90291e-15 -3.23295e-16 0)
(-1.39055e-15 -1.97396e-16 0)
(-7.71225e-16 -7.10527e-17 0)
(1.50687e-15 4.6781e-17 0)
(-5.44857e-17 1.74859e-16 0)
(6.26218e-14 2.80771e-13 0)
(4.75714e-14 8.09108e-15 0)
(7.86814e-17 3.99993e-15 0)
(1.16575e-14 -6.00847e-16 0)
(3.36434e-15 3.04777e-16 0)
(7.99184e-15 -1.43414e-16 0)
(5.06642e-15 1.3712e-16 0)
(7.23188e-15 -2.03619e-17 0)
(6.29656e-15 5.79809e-17 0)
(7.64155e-15 -3.29219e-17 0)
(7.53422e-15 -1.8618e-17 0)
(8.34638e-15 -6.27697e-17 0)
(8.33609e-15 -4.33e-17 0)
(8.61479e-15 -4.3249e-17 0)
(8.38758e-15 -1.52204e-17 0)
(8.21403e-15 4.10915e-18 0)
(7.79465e-15 3.74394e-17 0)
(7.45299e-15 5.78682e-17 0)
(7.05382e-15 7.03447e-17 0)
(6.73481e-15 7.29807e-17 0)
(6.44058e-15 7.79823e-17 0)
(6.23241e-15 7.6427e-17 0)
(6.02991e-15 6.5044e-17 0)
(5.81176e-15 4.9582e-17 0)
(5.5592e-15 4.05732e-17 0)
(5.30875e-15 3.17239e-17 0)
(5.05377e-15 1.42118e-17 0)
(4.80157e-15 -5.85857e-18 0)
(4.59351e-15 -1.34567e-17 0)
(4.49027e-15 -7.07579e-18 0)
(4.48782e-15 5.15126e-18 0)
(4.52711e-15 2.44815e-17 0)
(4.54504e-15 5.98324e-17 0)
(4.49075e-15 1.07062e-16 0)
(4.28444e-15 1.46688e-16 0)
(3.83805e-15 1.63548e-16 0)
(3.1257e-15 1.55071e-16 0)
(2.22181e-15 1.20109e-16 0)
(1.25956e-15 5.4541e-17 0)
(3.90208e-16 -3.57774e-17 0)
(-2.12685e-16 -1.28189e-16 0)
(-3.98417e-16 -1.9631e-16 0)
(-7.65455e-17 -2.20784e-16 0)
(6.61265e-16 -1.92145e-16 0)
(1.66485e-15 -1.04137e-16 0)
(2.59693e-15 2.85059e-17 0)
(3.24742e-15 1.81704e-16 0)
(3.19173e-15 3.08828e-16 0)
(2.48544e-15 3.88219e-16 0)
(8.81554e-16 3.7756e-16 0)
(-9.56491e-16 2.91518e-16 0)
(-3.18755e-15 1.10593e-16 0)
(-4.56863e-15 -7.87392e-17 0)
(-5.69654e-15 -2.83064e-16 0)
(-4.95956e-15 -3.66943e-16 0)
(-4.29357e-15 -3.96163e-16 0)
(-1.60758e-15 -2.44197e-16 0)
(-9.14408e-16 -9.18179e-17 0)
(1.58288e-15 5.78017e-17 0)
(-7.30813e-17 2.13931e-16 0)
(6.58965e-14 2.78344e-13 0)
(5.06036e-14 9.45074e-15 0)
(1.00874e-15 4.72666e-15 0)
(1.28172e-14 -6.72317e-16 0)
(3.94204e-15 3.71218e-16 0)
(8.80495e-15 -1.69361e-16 0)
(5.67028e-15 1.64416e-16 0)
(7.9478e-15 -2.44287e-17 0)
(6.93544e-15 6.96165e-17 0)
(8.355e-15 -3.92889e-17 0)
(8.24027e-15 -2.18402e-17 0)
(9.11236e-15 -7.49739e-17 0)
(9.11679e-15 -5.22005e-17 0)
(9.43158e-15 -5.27164e-17 0)
(9.20748e-15 -1.91649e-17 0)
(9.03617e-15 3.93025e-18 0)
(8.59709e-15 4.35564e-17 0)
(8.23377e-15 6.80604e-17 0)
(7.80329e-15 8.38495e-17 0)
(7.45393e-15 8.78291e-17 0)
(7.12905e-15 9.3924e-17 0)
(6.89575e-15 9.21171e-17 0)
(6.66973e-15 7.92638e-17 0)
(6.4287e-15 6.1484e-17 0)
(6.15234e-15 5.04155e-17 0)
(5.87849e-15 3.91905e-17 0)
(5.5989e-15 1.84216e-17 0)
(5.32052e-15 -5.0515e-18 0)
(5.08737e-15 -1.44677e-17 0)
(4.96481e-15 -7.72286e-18 0)
(4.94999e-15 6.79211e-18 0)
(4.98175e-15 3.06345e-17 0)
(4.99454e-15 7.33194e-17 0)
(4.93497e-15 1.29704e-16 0)
(4.71744e-15 1.77526e-16 0)
(4.24597e-15 1.98943e-16 0)
(3.48958e-15 1.89838e-16 0)
(2.52386e-15 1.4813e-16 0)
(1.48744e-15 6.93181e-17 0)
(5.40156e-16 -3.92045e-17 0)
(-1.3209e-16 -1.50803e-16 0)
(-3.64231e-16 -2.34157e-16 0)
(-5.3853e-17 -2.65475e-16 0)
(7.09447e-16 -2.32567e-16 0)
(1.77105e-15 -1.2783e-16 0)
(2.77611e-15 3.12235e-17 0)
(3.49778e-15 2.15977e-16 0)
(3.47928e-15 3.70736e-16 0)
(2.76674e-15 4.68728e-16 0)
(1.0875e-15 4.58572e-16 0)
(-8.65695e-16 3.57319e-16 0)
(-3.26501e-15 1.41231e-16 0)
(-4.78818e-15 -8.6519e-17 0)
(-6.05845e-15 -3.34138e-16 0)
(-5.34529e-15 -4.38195e-16 0)
(-4.68681e-15 -4.77458e-16 0)
(-1.84325e-15 -2.97768e-16 0)
(-1.07582e-15 -1.17068e-16 0)
(1.64043e-15 6.90583e-17 0)
(-9.63538e-17 2.57262e-16 0)
(6.88329e-14 2.75711e-13 0)
(5.34513e-14 1.08978e-14 0)
(2.06853e-15 5.51121e-15 0)
(1.40007e-14 -7.38163e-16 0)
(4.56874e-15 4.45496e-16 0)
(9.63903e-15 -1.9682e-16 0)
(6.30274e-15 1.94419e-16 0)
(8.67968e-15 -2.85023e-17 0)
(7.59052e-15 8.27217e-17 0)
(9.07688e-15 -4.58064e-17 0)
(8.95397e-15 -2.50115e-17 0)
(9.88318e-15 -8.81156e-17 0)
(9.904e-15 -6.1978e-17 0)
(1.02563e-14 -6.33205e-17 0)
(1.0039e-14 -2.38512e-17 0)
(9.87299e-15 3.32043e-18 0)
(9.41751e-15 4.98243e-17 0)
(9.03453e-15 7.8867e-17 0)
(8.57397e-15 9.84677e-17 0)
(8.1944e-15 1.04121e-16 0)
(7.83847e-15 1.11536e-16 0)
(7.57914e-15 1.09553e-16 0)
(7.32878e-15 9.52374e-17 0)
(7.0643e-15 7.50497e-17 0)
(6.76385e-15 6.17399e-17 0)
(6.46629e-15 4.78679e-17 0)
(6.16156e-15 2.35373e-17 0)
(5.85608e-15 -3.64964e-18 0)
(5.59633e-15 -1.51607e-17 0)
(5.45227e-15 -8.21372e-18 0)
(5.42254e-15 8.66156e-18 0)
(5.44452e-15 3.7394e-17 0)
(5.45084e-15 8.80832e-17 0)
(5.38605e-15 1.54502e-16 0)
(5.15898e-15 2.11465e-16 0)
(4.66569e-15 2.38228e-16 0)
(3.86954e-15 2.28853e-16 0)
(2.84607e-15 1.80102e-16 0)
(1.73801e-15 8.70031e-17 0)
(7.12652e-16 -4.14157e-17 0)
(-3.245e-17 -1.7427e-16 0)
(-3.17744e-16 -2.74869e-16 0)
(-2.79558e-17 -3.14464e-16 0)
(7.515e-16 -2.77677e-16 0)
(1.86366e-15 -1.55273e-16 0)
(2.93869e-15 3.238e-17 0)
(3.73387e-15 2.51825e-16 0)
(3.7612e-15 4.37521e-16 0)
(3.05488e-15 5.5692e-16 0)
(1.31525e-15 5.48534e-16 0)
(-7.41316e-16 4.31676e-16 0)
(-3.30115e-15 1.77756e-16 0)
(-4.96859e-15 -9.21099e-17 0)
(-6.38926e-15 -3.87887e-16 0)
(-5.7176e-15 -5.1545e-16 0)
(-5.08162e-15 -5.67346e-16 0)
(-2.09762e-15 -3.58627e-16 0)
(-1.25638e-15 -1.47465e-16 0)
(1.67821e-15 8.01392e-17 0)
(-1.2504e-16 3.04783e-16 0)
(7.14329e-14 2.72874e-13 0)
(5.611e-14 1.24262e-14 0)
(3.25139e-15 6.35183e-15 0)
(1.52071e-14 -7.96181e-16 0)
(5.24463e-15 5.27942e-16 0)
(1.04943e-14 -2.25575e-16 0)
(6.96417e-15 2.27148e-16 0)
(9.42795e-15 -3.24942e-17 0)
(8.26218e-15 9.73948e-17 0)
(9.80738e-15 -5.23416e-17 0)
(9.67526e-15 -2.80203e-17 0)
(1.06585e-14 -1.02115e-16 0)
(1.06971e-14 -7.26109e-17 0)
(1.10882e-14 -7.50917e-17 0)
(1.08812e-14 -2.93551e-17 0)
(1.07238e-14 2.18075e-18 0)
(1.02553e-14 5.61391e-17 0)
(9.85484e-15 9.02006e-17 0)
(9.36563e-15 1.14142e-16 0)
(8.95619e-15 1.21836e-16 0)
(8.56894e-15 1.30837e-16 0)
(8.28277e-15 1.28788e-16 0)
(8.00729e-15 1.13048e-16 0)
(7.71882e-15 9.03874e-17 0)
(7.394e-15 7.46718e-17 0)
(7.07239e-15 5.78907e-17 0)
(6.74198e-15 2.9695e-17 0)
(6.40847e-15 -1.52721e-18 0)
(6.12059e-15 -1.5436e-17 0)
(5.9528e-15 -8.48963e-18 0)
(5.90553e-15 1.07704e-17 0)
(5.9154e-15 4.47261e-17 0)
(5.91385e-15 1.04061e-16 0)
(5.84383e-15 1.81394e-16 0)
(5.60893e-15 2.48482e-16 0)
(5.09723e-15 2.81463e-16 0)
(4.26581e-15 2.72292e-16 0)
(3.18893e-15 2.16319e-16 0)
(2.01202e-15 1.0799e-16 0)
(9.08617e-16 -4.19737e-17 0)
(8.71721e-17 -1.98191e-16 0)
(-2.58208e-16 -3.18176e-16 0)
(1.49654e-18 -3.67682e-16 0)
(7.87218e-16 -3.27648e-16 0)
(1.94187e-15 -1.86863e-16 0)
(3.0834e-15 3.14348e-17 0)
(3.95414e-15 2.88682e-16 0)
(4.03606e-15 5.08746e-16 0)
(3.34888e-15 6.52613e-16 0)
(1.56465e-15 6.47604e-16 0)
(-5.82547e-16 5.15074e-16 0)
(-3.29425e-15 2.20903e-16 0)
(-5.10749e-15 -9.47164e-17 0)
(-6.68644e-15 -4.43649e-16 0)
(-6.07433e-15 -5.98391e-16 0)
(-5.47672e-15 -6.65947e-16 0)
(-2.37048e-15 -4.27297e-16 0)
(-1.45689e-15 -1.83725e-16 0)
(1.69497e-15 9.05675e-17 0)
(-1.5992e-16 3.56362e-16 0)
(7.36993e-14 2.69836e-13 0)
(5.85759e-14 1.40293e-14 0)
(4.54992e-15 7.2464e-15 0)
(1.64355e-14 -8.44128e-16 0)
(5.96968e-15 6.18891e-16 0)
(1.1371e-14 -2.55384e-16 0)
(7.65489e-15 2.62612e-16 0)
(1.0193e-14 -3.63165e-17 0)
(8.95078e-15 1.1373e-16 0)
(1.05468e-14 -5.87553e-17 0)
(1.04041e-14 -3.07466e-17 0)
(1.1438e-14 -1.16878e-16 0)
(1.14956e-14 -8.40672e-17 0)
(1.19265e-14 -8.80527e-17 0)
(1.17334e-14 -3.57501e-17 0)
(1.15877e-14 4.09289e-19 0)
(1.11098e-14 6.23892e-17 0)
(1.06942e-14 1.01963e-16 0)
(1.0178e-14 1.30805e-16 0)
(9.73922e-15 1.40947e-16 0)
(9.32053e-15 1.51835e-16 0)
(9.00681e-15 1.49867e-16 0)
(8.70548e-15 1.32775e-16 0)
(8.39249e-15 1.07606e-16 0)
(8.04302e-15 8.93411e-17 0)
(7.69703e-15 6.94023e-17 0)
(7.3404e-15 3.70422e-17 0)
(6.97792e-15 1.45459e-18 0)
(6.66038e-15 -1.51818e-17 0)
(6.46657e-15 -8.48275e-18 0)
(6.39908e-15 1.31325e-17 0)
(6.3944e-15 5.2592e-17 0)
(6.38351e-15 1.21175e-16 0)
(6.3082e-15 2.10294e-16 0)
(6.06719e-15 2.88531e-16 0)
(5.54057e-15 3.28687e-16 0)
(4.67854e-15 3.20316e-16 0)
(3.55288e-15 2.57085e-16 0)
(2.31016e-15 1.32699e-16 0)
(1.12896e-15 -4.03953e-17 0)
(2.27761e-16 -2.22107e-16 0)
(-1.84761e-16 -3.63745e-16 0)
(3.5027e-17 -4.25014e-16 0)
(8.16601e-16 -3.82627e-16 0)
(2.00508e-15 -2.23007e-16 0)
(3.20905e-15 2.77993e-17 0)
(4.15708e-15 3.25909e-16 0)
(4.30231e-15 5.83888e-16 0)
(3.6476e-15 7.55545e-16 0)
(1.83529e-15 7.5589e-16 0)
(-3.88823e-16 6.07995e-16 0)
(-3.24274e-15 2.71448e-16 0)
(-5.20259e-15 -9.34627e-17 0)
(-6.9474e-15 -5.00659e-16 0)
(-6.41313e-15 -6.86609e-16 0)
(-5.87056e-15 -7.7332e-16 0)
(-2.66135e-15 -5.04301e-16 0)
(-1.67795e-15 -2.26608e-16 0)
(1.68949e-15 9.97978e-17 0)
(-2.01813e-16 4.11783e-16 0)
(7.56362e-14 2.666e-13 0)
(6.08458e-14 1.56999e-14 0)
(5.95595e-15 8.19246e-15 0)
(1.76847e-14 -8.79745e-16 0)
(6.74358e-15 7.18675e-16 0)
(1.22691e-14 -2.85983e-16 0)
(8.37508e-15 3.00805e-16 0)
(1.09752e-14 -3.98838e-17 0)
(9.65671e-15 1.31817e-16 0)
(1.12953e-14 -6.49026e-17 0)
(1.11406e-14 -3.30627e-17 0)
(1.22214e-14 -1.323e-16 0)
(1.22988e-14 -9.63039e-17 0)
(1.27705e-14 -1.02217e-16 0)
(1.25946e-14 -4.31071e-17 0)
(1.24638e-14 -2.09786e-18 0)
(1.19802e-14 6.84557e-17 0)
(1.15521e-14 1.14046e-16 0)
(1.10107e-14 1.48374e-16 0)
(1.05433e-14 1.61408e-16 0)
(1.00932e-14 1.74529e-16 0)
(9.75137e-15 1.72829e-16 0)
(9.42353e-15 1.54495e-16 0)
(9.08552e-15 1.26814e-16 0)
(8.71112e-15 1.05882e-16 0)
(8.34043e-15 8.25537e-17 0)
(7.95705e-15 4.57379e-17 0)
(7.56469e-15 5.44799e-18 0)
(7.21593e-15 -1.42728e-17 0)
(6.99381e-15 -8.11508e-18 0)
(6.90335e-15 1.57659e-17 0)
(6.88161e-15 6.0949e-17 0)
(6.85979e-15 1.39337e-16 0)
(6.77906e-15 2.41098e-16 0)
(6.53362e-15 3.3154e-16 0)
(5.99564e-15 3.79919e-16 0)
(5.10784e-15 3.7308e-16 0)
(3.93824e-15 3.02706e-16 0)
(2.63306e-15 1.61578e-16 0)
(1.37455e-15 -3.61513e-17 0)
(3.90341e-16 -2.45501e-16 0)
(-9.64227e-17 -4.11181e-16 0)
(7.33402e-17 -4.86291e-16 0)
(8.39865e-16 -4.42737e-16 0)
(2.05288e-15 -2.64119e-16 0)
(3.31464e-15 2.08402e-17 0)
(4.34123e-15 3.6279e-16 0)
(4.55836e-15 6.62327e-16 0)
(3.9497e-15 8.65363e-16 0)
(2.1265e-15 8.73437e-16 0)
(-1.59859e-16 7.109e-16 0)
(-3.14532e-15 3.30203e-16 0)
(-5.25169e-15 -8.73931e-17 0)
(-7.16947e-15 -5.58045e-16 0)
(-6.73143e-15 -7.79593e-16 0)
(-6.26131e-15 -8.89456e-16 0)
(-2.96943e-15 -5.90153e-16 0)
(-1.92e-15 -2.76919e-16 0)
(1.66064e-15 1.07212e-16 0)
(-2.51569e-16 4.70745e-16 0)
(7.72489e-14 2.6317e-13 0)
(6.2917e-14 1.74305e-14 0)
(7.46063e-15 9.18717e-15 0)
(1.8953e-14 -9.00777e-16 0)
(7.56577e-15 8.27619e-16 0)
(1.31884e-14 -3.17079e-16 0)