/*--------------------------------*- C++ -*----------------------------------*\
| =========                 |                                                 |
| \\      /  F ield         | foam-extend: Open Source CFD                    |
|  \\    /   O peration     | Version:     4.0                                |
|   \\  /    A nd           | Web:         http://www.foam-extend.org         |
|    \\/     M anipulation  |                                                 |
\*---------------------------------------------------------------------------*/
FoamFile
{
    version     2.0;
    format      ascii;
    class       volScalarField;
    location    "1890";
    object      cPlus;
}
// * * * * * * * * * * * * * * * * * * * * * * * * * * * * * * * * * * * * * //

dimensions      [0 0 0 0 0 0 0];

internalField   nonuniform List<scalar> 
6960
(
0.239918
0.239865
0.239818
0.239784
0.239761
0.239745
0.239735
0.239728
0.239723
0.239721
0.239719
0.239717
0.239716
0.239716
0.239715
0.239715
0.239715
0.239715
0.239715
0.239714
0.239714
0.239714
0.239714
0.239714
0.239714
0.239714
0.239714
0.239714
0.239714
0.239714
0.239714
0.239714
0.239714
0.239714
0.239714
0.239714
0.239714
0.239714
0.239714
0.239714
0.239714
0.239715
0.239715
0.239715
0.239715
0.239715
0.239716
0.239716
0.239717
0.239719
0.239721
0.239723
0.239728
0.239735
0.239745
0.239761
0.239784
0.239818
0.239865
0.239918
0.0597081
0.0596874
0.0596685
0.0596546
0.0596449
0.0596385
0.0596342
0.0596315
0.0596296
0.0596285
0.0596277
0.0596271
0.0596268
0.0596265
0.0596263
0.0596262
0.0596261
0.059626
0.059626
0.0596259
0.0596259
0.0596259
0.0596258
0.0596258
0.0596258
0.0596258
0.0596258
0.0596258
0.0596258
0.0596258
0.0596258
0.0596258
0.0596258
0.0596258
0.0596258
0.0596258
0.0596258
0.0596258
0.0596259
0.0596259
0.0596259
0.059626
0.059626
0.0596261
0.0596262
0.0596263
0.0596265
0.0596268
0.0596271
0.0596277
0.0596285
0.0596296
0.0596315
0.0596342
0.0596385
0.0596449
0.0596546
0.0596685
0.0596874
0.0597081
0.023413
0.02341
0.0234064
0.0234036
0.0234016
0.0234003
0.0233994
0.0233988
0.0233984
0.0233981
0.0233979
0.0233978
0.0233977
0.0233977
0.0233976
0.0233976
0.0233976
0.0233976
0.0233975
0.0233975
0.0233975
0.0233975
0.0233975
0.0233975
0.0233975
0.0233975
0.0233975
0.0233975
0.0233975
0.0233975
0.0233975
0.0233975
0.0233975
0.0233975
0.0233975
0.0233975
0.0233975
0.0233975
0.0233975
0.0233975
0.0233975
0.0233975
0.0233976
0.0233976
0.0233976
0.0233976
0.0233977
0.0233977
0.0233978
0.0233979
0.0233981
0.0233984
0.0233988
0.0233994
0.0234003
0.0234016
0.0234036
0.0234064
0.02341
0.023413
0.0156825
0.0156863
0.0156885
0.0156899
0.0156908
0.0156914
0.0156918
0.015692
0.0156922
0.0156923
0.0156923
0.0156924
0.0156924
0.0156924
0.0156924
0.0156924
0.0156924
0.0156924
0.0156925
0.0156925
0.0156925
0.0156925
0.0156925
0.0156925
0.0156925
0.0156925
0.0156925
0.0156925
0.0156925
0.0156925
0.0156925
0.0156925
0.0156925
0.0156925
0.0156925
0.0156925
0.0156925
0.0156925
0.0156925
0.0156925
0.0156925
0.0156925
0.0156924
0.0156924
0.0156924
0.0156924
0.0156924
0.0156924
0.0156924
0.0156923
0.0156923
0.0156922
0.015692
0.0156918
0.0156914
0.0156908
0.0156899
0.0156885
0.0156863
0.0156825
0.0141667
0.0141726
0.0141767
0.0141795
0.0141814
0.0141826
0.0141834
0.0141839
0.0141842
0.0141844
0.0141845
0.0141846
0.0141847
0.0141847
0.0141848
0.0141848
0.0141848
0.0141848
0.0141848
0.0141848
0.0141848
0.0141848
0.0141849
0.0141849
0.0141849
0.0141849
0.0141849
0.0141849
0.0141849
0.0141849
0.0141849
0.0141849
0.0141849
0.0141849
0.0141849
0.0141849
0.0141849
0.0141849
0.0141848
0.0141848
0.0141848
0.0141848
0.0141848
0.0141848
0.0141848
0.0141848
0.0141847
0.0141847
0.0141846
0.0141845
0.0141844
0.0141842
0.0141839
0.0141834
0.0141826
0.0141814
0.0141795
0.0141767
0.0141726
0.0141667
0.0139988
0.0140055
0.0140101
0.0140134
0.0140155
0.0140169
0.0140179
0.0140184
0.0140188
0.0140191
0.0140192
0.0140193
0.0140194
0.0140194
0.0140195
0.0140195
0.0140195
0.0140195
0.0140195
0.0140196
0.0140196
0.0140196
0.0140196
0.0140196
0.0140196
0.0140196
0.0140196
0.0140196
0.0140196
0.0140196
0.0140196
0.0140196
0.0140196
0.0140196
0.0140196
0.0140196
0.0140196
0.0140196
0.0140196
0.0140196
0.0140196
0.0140195
0.0140195
0.0140195
0.0140195
0.0140195
0.0140194
0.0140194
0.0140193
0.0140192
0.0140191
0.0140188
0.0140184
0.0140179
0.0140169
0.0140155
0.0140134
0.0140101
0.0140055
0.0139988
0.0141233
0.0141303
0.0141352
0.0141386
0.0141409
0.0141424
0.0141433
0.0141439
0.0141443
0.0141446
0.0141447
0.0141449
0.0141449
0.014145
0.014145
0.014145
0.0141451
0.0141451
0.0141451
0.0141451
0.0141451
0.0141451
0.0141451
0.0141451
0.0141451
0.0141451
0.0141451
0.0141451
0.0141451
0.0141451
0.0141451
0.0141451
0.0141451
0.0141451
0.0141451
0.0141451
0.0141451
0.0141451
0.0141451
0.0141451
0.0141451
0.0141451
0.0141451
0.0141451
0.014145
0.014145
0.014145
0.0141449
0.0141449
0.0141447
0.0141446
0.0141443
0.0141439
0.0141433
0.0141424
0.0141409
0.0141386
0.0141352
0.0141303
0.0141233
0.0143193
0.0143265
0.0143316
0.0143351
0.0143374
0.014339
0.01434
0.0143406
0.014341
0.0143413
0.0143414
0.0143415
0.0143416
0.0143417
0.0143417
0.0143417
0.0143418
0.0143418
0.0143418
0.0143418
0.0143418
0.0143418
0.0143418
0.0143418
0.0143418
0.0143418
0.0143418
0.0143418
0.0143419
0.0143419
0.0143419
0.0143419
0.0143418
0.0143418
0.0143418
0.0143418
0.0143418
0.0143418
0.0143418
0.0143418
0.0143418
0.0143418
0.0143418
0.0143418
0.0143417
0.0143417
0.0143417
0.0143416
0.0143415
0.0143414
0.0143413
0.014341
0.0143406
0.01434
0.014339
0.0143374
0.0143351
0.0143316
0.0143265
0.0143193
0.0145436
0.0145509
0.0145561
0.0145597
0.0145622
0.0145637
0.0145648
0.0145654
0.0145658
0.0145661
0.0145663
0.0145664
0.0145665
0.0145665
0.0145666
0.0145666
0.0145666
0.0145667
0.0145667
0.0145667
0.0145667
0.0145667
0.0145667
0.0145667
0.0145667
0.0145667
0.0145667
0.0145667
0.0145667
0.0145667
0.0145667
0.0145667
0.0145667
0.0145667
0.0145667
0.0145667
0.0145667
0.0145667
0.0145667
0.0145667
0.0145667
0.0145667
0.0145667
0.0145666
0.0145666
0.0145666
0.0145665
0.0145665
0.0145664
0.0145663
0.0145661
0.0145658
0.0145654
0.0145648
0.0145637
0.0145622
0.0145597
0.0145561
0.0145509
0.0145436
0.0147893
0.0147969
0.0148022
0.014806
0.0148084
0.0148101
0.0148111
0.0148118
0.0148122
0.0148125
0.0148127
0.0148128
0.0148129
0.014813
0.014813
0.014813
0.014813
0.0148131
0.0148131
0.0148131
0.0148131
0.0148131
0.0148131
0.0148131
0.0148131
0.0148131
0.0148131
0.0148131
0.0148131
0.0148131
0.0148131
0.0148131
0.0148131
0.0148131
0.0148131
0.0148131
0.0148131
0.0148131
0.0148131
0.0148131
0.0148131
0.0148131
0.0148131
0.014813
0.014813
0.014813
0.014813
0.0148129
0.0148128
0.0148127
0.0148125
0.0148122
0.0148118
0.0148111
0.0148101
0.0148084
0.014806
0.0148022
0.0147969
0.0147893
0.0150574
0.0150652
0.0150707
0.0150745
0.0150771
0.0150788
0.0150799
0.0150806
0.015081
0.0150813
0.0150815
0.0150816
0.0150817
0.0150817
0.0150818
0.0150818
0.0150818
0.0150819
0.0150819
0.0150819
0.0150819
0.0150819
0.0150819
0.0150819
0.0150819
0.0150819
0.0150819
0.0150819
0.0150819
0.0150819
0.0150819
0.0150819
0.0150819
0.0150819
0.0150819
0.0150819
0.0150819
0.0150819
0.0150819
0.0150819
0.0150819
0.0150819
0.0150819
0.0150818
0.0150818
0.0150818
0.0150817
0.0150817
0.0150816
0.0150815
0.0150813
0.015081
0.0150806
0.0150799
0.0150788
0.0150771
0.0150745
0.0150707
0.0150652
0.0150574
0.0153504
0.0153585
0.0153642
0.0153681
0.0153708
0.0153725
0.0153736
0.0153743
0.0153748
0.0153751
0.0153753
0.0153754
0.0153755
0.0153756
0.0153756
0.0153757
0.0153757
0.0153757
0.0153757
0.0153757
0.0153757
0.0153757
0.0153757
0.0153758
0.0153758
0.0153758
0.0153758
0.0153758
0.0153758
0.0153758
0.0153758
0.0153758
0.0153758
0.0153758
0.0153758
0.0153758
0.0153758
0.0153757
0.0153757
0.0153757
0.0153757
0.0153757
0.0153757
0.0153757
0.0153757
0.0153756
0.0153756
0.0153755
0.0153754
0.0153753
0.0153751
0.0153748
0.0153743
0.0153736
0.0153725
0.0153708
0.0153681
0.0153642
0.0153585
0.0153504
0.0156718
0.0156802
0.0156861
0.0156901
0.0156929
0.0156947
0.0156959
0.0156966
0.0156971
0.0156974
0.0156976
0.0156977
0.0156978
0.0156979
0.0156979
0.015698
0.015698
0.015698
0.015698
0.015698
0.0156981
0.0156981
0.0156981
0.0156981
0.0156981
0.0156981
0.0156981
0.0156981
0.0156981
0.0156981
0.0156981
0.0156981
0.0156981
0.0156981
0.0156981
0.0156981
0.0156981
0.0156981
0.0156981
0.0156981
0.015698
0.015698
0.015698
0.015698
0.015698
0.0156979
0.0156979
0.0156978
0.0156977
0.0156976
0.0156974
0.0156971
0.0156966
0.0156959
0.0156947
0.0156929
0.0156901
0.0156861
0.0156802
0.0156718
0.0160257
0.0160345
0.0160406
0.0160449
0.0160477
0.0160496
0.0160508
0.0160516
0.0160521
0.0160524
0.0160526
0.0160528
0.0160529
0.0160529
0.016053
0.016053
0.016053
0.0160531
0.0160531
0.0160531
0.0160531
0.0160531
0.0160531
0.0160531
0.0160531
0.0160531
0.0160531
0.0160531
0.0160531
0.0160531
0.0160531
0.0160531
0.0160531
0.0160531
0.0160531
0.0160531
0.0160531
0.0160531
0.0160531
0.0160531
0.0160531
0.0160531
0.0160531
0.016053
0.016053
0.016053
0.0160529
0.0160529
0.0160528
0.0160526
0.0160524
0.0160521
0.0160516
0.0160508
0.0160496
0.0160477
0.0160449
0.0160406
0.0160345
0.0160257
0.0164174
0.0164266
0.016433
0.0164374
0.0164404
0.0164423
0.0164436
0.0164444
0.0164449
0.0164453
0.0164455
0.0164456
0.0164457
0.0164458
0.0164459
0.0164459
0.0164459
0.0164459
0.016446
0.016446
0.016446
0.016446
0.016446
0.016446
0.016446
0.016446
0.016446
0.016446
0.016446
0.016446
0.016446
0.016446
0.016446
0.016446
0.016446
0.016446
0.016446
0.016446
0.016446
0.016446
0.016446
0.016446
0.0164459
0.0164459
0.0164459
0.0164459
0.0164458
0.0164457
0.0164456
0.0164455
0.0164453
0.0164449
0.0164444
0.0164436
0.0164423
0.0164404
0.0164374
0.016433
0.0164266
0.0164174
0.0168532
0.0168627
0.0168694
0.0168741
0.0168772
0.0168792
0.0168806
0.0168814
0.016882
0.0168823
0.0168826
0.0168827
0.0168828
0.0168829
0.0168829
0.016883
0.016883
0.016883
0.0168831
0.0168831
0.0168831
0.0168831
0.0168831
0.0168831
0.0168831
0.0168831
0.0168831
0.0168831
0.0168831
0.0168831
0.0168831
0.0168831
0.0168831
0.0168831
0.0168831
0.0168831
0.0168831
0.0168831
0.0168831
0.0168831
0.0168831
0.0168831
0.016883
0.016883
0.016883
0.0168829
0.0168829
0.0168828
0.0168827
0.0168826
0.0168823
0.016882
0.0168814
0.0168806
0.0168792
0.0168772
0.0168741
0.0168694
0.0168627
0.0168532
0.0173408
0.0173509
0.0173579
0.0173628
0.0173661
0.0173682
0.0173696
0.0173705
0.0173711
0.0173715
0.0173717
0.0173719
0.017372
0.0173721
0.0173721
0.0173722
0.0173722
0.0173722
0.0173722
0.0173723
0.0173723
0.0173723
0.0173723
0.0173723
0.0173723
0.0173723
0.0173723
0.0173723
0.0173723
0.0173723
0.0173723
0.0173723
0.0173723
0.0173723
0.0173723
0.0173723
0.0173723
0.0173723
0.0173723
0.0173723
0.0173723
0.0173722
0.0173722
0.0173722
0.0173722
0.0173721
0.0173721
0.017372
0.0173719
0.0173717
0.0173715
0.0173711
0.0173705
0.0173696
0.0173682
0.0173661
0.0173628
0.0173579
0.0173509
0.0173408
0.0178902
0.0179009
0.0179083
0.0179135
0.017917
0.0179192
0.0179207
0.0179217
0.0179223
0.0179227
0.0179229
0.0179231
0.0179232
0.0179233
0.0179234
0.0179234
0.0179234
0.0179235
0.0179235
0.0179235
0.0179235
0.0179235
0.0179235
0.0179235
0.0179236
0.0179236
0.0179236
0.0179236
0.0179236
0.0179236
0.0179236
0.0179236
0.0179236
0.0179236
0.0179236
0.0179236
0.0179235
0.0179235
0.0179235
0.0179235
0.0179235
0.0179235
0.0179235
0.0179234
0.0179234
0.0179234
0.0179233
0.0179232
0.0179231
0.0179229
0.0179227
0.0179223
0.0179217
0.0179207
0.0179192
0.017917
0.0179135
0.0179083
0.0179009
0.0178902
0.0185142
0.0185255
0.0185334
0.0185389
0.0185426
0.0185451
0.0185467
0.0185477
0.0185483
0.0185487
0.018549
0.0185492
0.0185493
0.0185494
0.0185495
0.0185495
0.0185496
0.0185496
0.0185496
0.0185496
0.0185496
0.0185496
0.0185497
0.0185497
0.0185497
0.0185497
0.0185497
0.0185497
0.0185497
0.0185497
0.0185497
0.0185497
0.0185497
0.0185497
0.0185497
0.0185497
0.0185497
0.0185497
0.0185496
0.0185496
0.0185496
0.0185496
0.0185496
0.0185496
0.0185495
0.0185495
0.0185494
0.0185493
0.0185492
0.018549
0.0185487
0.0185483
0.0185477
0.0185467
0.0185451
0.0185426
0.0185389
0.0185334
0.0185255
0.0185142
0.0192293
0.0192414
0.0192499
0.0192558
0.0192598
0.0192624
0.0192641
0.0192652
0.0192659
0.0192664
0.0192667
0.0192669
0.019267
0.0192671
0.0192671
0.0192672
0.0192672
0.0192673
0.0192673
0.0192673
0.0192673
0.0192673
0.0192673
0.0192673
0.0192674
0.0192674
0.0192674
0.0192674
0.0192674
0.0192674
0.0192674
0.0192674
0.0192674
0.0192674
0.0192674
0.0192674
0.0192673
0.0192673
0.0192673
0.0192673
0.0192673
0.0192673
0.0192673
0.0192672
0.0192672
0.0192671
0.0192671
0.019267
0.0192669
0.0192667
0.0192664
0.0192659
0.0192652
0.0192641
0.0192624
0.0192598
0.0192558
0.0192499
0.0192414
0.0192293
0.0200577
0.0200708
0.02008
0.0200864
0.0200907
0.0200935
0.0200953
0.0200965
0.0200973
0.0200978
0.0200981
0.0200983
0.0200985
0.0200986
0.0200986
0.0200987
0.0200987
0.0200988
0.0200988
0.0200988
0.0200988
0.0200988
0.0200988
0.0200988
0.0200989
0.0200989
0.0200989
0.0200989
0.0200989
0.0200989
0.0200989
0.0200989
0.0200989
0.0200989
0.0200989
0.0200989
0.0200988
0.0200988
0.0200988
0.0200988
0.0200988
0.0200988
0.0200988
0.0200987
0.0200987
0.0200986
0.0200986
0.0200985
0.0200983
0.0200981
0.0200978
0.0200973
0.0200965
0.0200953
0.0200935
0.0200907
0.0200864
0.02008
0.0200708
0.0200577
0.0210294
0.0210438
0.0210539
0.0210609
0.0210656
0.0210687
0.0210707
0.021072
0.0210728
0.0210733
0.0210737
0.0210739
0.0210741
0.0210742
0.0210743
0.0210743
0.0210744
0.0210744
0.0210744
0.0210744
0.0210745
0.0210745
0.0210745
0.0210745
0.0210745
0.0210745
0.0210745
0.0210745
0.0210745
0.0210745
0.0210745
0.0210745
0.0210745
0.0210745
0.0210745
0.0210745
0.0210745
0.0210745
0.0210745
0.0210745
0.0210744
0.0210744
0.0210744
0.0210744
0.0210743
0.0210743
0.0210742
0.0210741
0.0210739
0.0210737
0.0210733
0.0210728
0.021072
0.0210707
0.0210687
0.0210656
0.0210609
0.0210539
0.0210438
0.0210294
0.0221868
0.0222027
0.0222139
0.0222217
0.0222269
0.0222303
0.0222326
0.022234
0.0222349
0.0222355
0.0222359
0.0222362
0.0222364
0.0222365
0.0222366
0.0222366
0.0222367
0.0222367
0.0222367
0.0222368
0.0222368
0.0222368
0.0222368
0.0222368
0.0222368
0.0222368
0.0222368
0.0222368
0.0222369
0.0222369
0.0222369
0.0222369
0.0222368
0.0222368
0.0222368
0.0222368
0.0222368
0.0222368
0.0222368
0.0222368
0.0222368
0.0222367
0.0222367
0.0222367
0.0222366
0.0222366
0.0222365
0.0222364
0.0222362
0.0222359
0.0222355
0.0222349
0.022234
0.0222326
0.0222303
0.0222269
0.0222217
0.0222139
0.0222027
0.0221868
0.0235907
0.0236086
0.0236212
0.02363
0.0236359
0.0236397
0.0236423
0.0236439
0.0236449
0.0236456
0.0236461
0.0236464
0.0236466
0.0236467
0.0236468
0.0236469
0.0236469
0.023647
0.023647
0.023647
0.023647
0.0236471
0.0236471
0.0236471
0.0236471
0.0236471
0.0236471
0.0236471
0.0236471
0.0236471
0.0236471
0.0236471
0.0236471
0.0236471
0.0236471
0.0236471
0.0236471
0.0236471
0.0236471
0.023647
0.023647
0.023647
0.023647
0.0236469
0.0236469
0.0236468
0.0236467
0.0236466
0.0236464
0.0236461
0.0236456
0.0236449
0.0236439
0.0236423
0.0236397
0.0236359
0.02363
0.0236212
0.0236086
0.0235907
0.0253314
0.025352
0.0253665
0.0253766
0.0253834
0.0253879
0.0253908
0.0253927
0.0253939
0.0253947
0.0253952
0.0253955
0.0253958
0.0253959
0.025396
0.0253961
0.0253962
0.0253962
0.0253963
0.0253963
0.0253963
0.0253964
0.0253964
0.0253964
0.0253964
0.0253964
0.0253964
0.0253964
0.0253964
0.0253964
0.0253964
0.0253964
0.0253964
0.0253964
0.0253964
0.0253964
0.0253964
0.0253964
0.0253964
0.0253963
0.0253963
0.0253963
0.0253962
0.0253962
0.0253961
0.025396
0.0253959
0.0253958
0.0253955
0.0253952
0.0253947
0.0253939
0.0253927
0.0253908
0.0253879
0.0253834
0.0253766
0.0253665
0.025352
0.0253314
0.0275462
0.0275705
0.0275877
0.0275997
0.0276078
0.0276131
0.0276165
0.0276188
0.0276202
0.0276211
0.0276218
0.0276222
0.0276224
0.0276226
0.0276228
0.0276229
0.0276229
0.027623
0.027623
0.0276231
0.0276231
0.0276231
0.0276231
0.0276232
0.0276232
0.0276232
0.0276232
0.0276232
0.0276232
0.0276232
0.0276232
0.0276232
0.0276232
0.0276232
0.0276232
0.0276232
0.0276232
0.0276231
0.0276231
0.0276231
0.0276231
0.027623
0.027623
0.0276229
0.0276229
0.0276228
0.0276226
0.0276224
0.0276222
0.0276218
0.0276211
0.0276202
0.0276188
0.0276165
0.0276131
0.0276078
0.0275997
0.0275877
0.0275705
0.0275462
0.0304445
0.0304741
0.0304951
0.0305098
0.0305196
0.0305261
0.0305304
0.0305331
0.0305349
0.030536
0.0305368
0.0305373
0.0305376
0.0305378
0.030538
0.0305381
0.0305382
0.0305383
0.0305383
0.0305384
0.0305384
0.0305384
0.0305385
0.0305385
0.0305385
0.0305385
0.0305385
0.0305385
0.0305385
0.0305385
0.0305385
0.0305385
0.0305385
0.0305385
0.0305385
0.0305385
0.0305385
0.0305385
0.0305384
0.0305384
0.0305384
0.0305383
0.0305383
0.0305382
0.0305381
0.030538
0.0305378
0.0305376
0.0305373
0.0305368
0.030536
0.0305349
0.0305331
0.0305304
0.0305261
0.0305196
0.0305098
0.0304951
0.0304741
0.0304445
0.0343349
0.034372
0.0343984
0.0344169
0.0344294
0.0344376
0.0344429
0.0344464
0.0344486
0.0344501
0.034451
0.0344516
0.034452
0.0344523
0.0344525
0.0344527
0.0344528
0.0344529
0.034453
0.034453
0.0344531
0.0344531
0.0344531
0.0344532
0.0344532
0.0344532
0.0344532
0.0344532
0.0344532
0.0344532
0.0344532
0.0344532
0.0344532
0.0344532
0.0344532
0.0344532
0.0344532
0.0344531
0.0344531
0.0344531
0.034453
0.034453
0.0344529
0.0344528
0.0344527
0.0344525
0.0344523
0.034452
0.0344516
0.034451
0.0344501
0.0344486
0.0344464
0.0344429
0.0344376
0.0344294
0.0344169
0.0343984
0.034372
0.0343349
0.0396326
0.0396802
0.0397142
0.0397381
0.0397542
0.0397648
0.0397717
0.0397762
0.039779
0.0397809
0.0397821
0.0397829
0.0397835
0.0397839
0.0397841
0.0397843
0.0397845
0.0397846
0.0397847
0.0397847
0.0397848
0.0397848
0.0397849
0.0397849
0.039785
0.039785
0.039785
0.039785
0.039785
0.039785
0.039785
0.039785
0.039785
0.039785
0.039785
0.039785
0.0397849
0.0397849
0.0397848
0.0397848
0.0397847
0.0397847
0.0397846
0.0397845
0.0397843
0.0397841
0.0397839
0.0397835
0.0397829
0.0397821
0.0397809
0.039779
0.0397762
0.0397717
0.0397648
0.0397542
0.0397381
0.0397142
0.0396802
0.0396326
0.046809
0.0468705
0.0469146
0.0469455
0.0469664
0.0469802
0.0469892
0.046995
0.0469987
0.0470012
0.0470028
0.0470038
0.0470045
0.047005
0.0470054
0.0470056
0.0470058
0.047006
0.0470061
0.0470062
0.0470062
0.0470063
0.0470064
0.0470064
0.0470064
0.0470065
0.0470065
0.0470065
0.0470065
0.0470065
0.0470065
0.0470065
0.0470065
0.0470065
0.0470065
0.0470064
0.0470064
0.0470064
0.0470063
0.0470062
0.0470062
0.0470061
0.047006
0.0470058
0.0470056
0.0470054
0.047005
0.0470045
0.0470038
0.0470028
0.0470012
0.0469987
0.046995
0.0469892
0.0469802
0.0469664
0.0469455
0.0469146
0.0468705
0.046809
0.0562575
0.0563359
0.0563922
0.0564316
0.0564583
0.0564759
0.0564874
0.0564948
0.0564996
0.0565028
0.0565048
0.0565061
0.0565071
0.0565077
0.0565081
0.0565085
0.0565087
0.0565089
0.0565091
0.0565092
0.0565093
0.0565094
0.0565094
0.0565095
0.0565095
0.0565096
0.0565096
0.0565096
0.0565096
0.0565096
0.0565096
0.0565096
0.0565096
0.0565096
0.0565096
0.0565095
0.0565095
0.0565094
0.0565094
0.0565093
0.0565092
0.0565091
0.0565089
0.0565087
0.0565085
0.0565081
0.0565077
0.0565071
0.0565061
0.0565048
0.0565028
0.0564996
0.0564948
0.0564874
0.0564759
0.0564583
0.0564316
0.0563922
0.0563359
0.0562575
0.0681221
0.068219
0.0682885
0.0683372
0.0683702
0.068392
0.0684062
0.0684154
0.0684214
0.0684253
0.0684278
0.0684295
0.0684306
0.0684314
0.068432
0.0684324
0.0684327
0.0684329
0.0684331
0.0684333
0.0684334
0.0684335
0.0684336
0.0684337
0.0684337
0.0684338
0.0684338
0.0684338
0.0684339
0.0684339
0.0684339
0.0684339
0.0684338
0.0684338
0.0684338
0.0684337
0.0684337
0.0684336
0.0684335
0.0684334
0.0684333
0.0684331
0.0684329
0.0684327
0.0684324
0.068432
0.0684314
0.0684306
0.0684295
0.0684278
0.0684253
0.0684214
0.0684154
0.0684062
0.068392
0.0683702
0.0683372
0.0682885
0.068219
0.0681221
0.0822102
0.0823254
0.0824079
0.0824657
0.0825049
0.0825309
0.0825479
0.0825589
0.082566
0.0825706
0.0825737
0.0825757
0.0825771
0.0825781
0.0825787
0.0825792
0.0825796
0.0825799
0.0825801
0.0825803
0.0825804
0.0825805
0.0825806
0.0825807
0.0825808
0.0825808
0.0825809
0.0825809
0.0825809
0.082581
0.082581
0.0825809
0.0825809
0.0825809
0.0825808
0.0825808
0.0825807
0.0825806
0.0825805
0.0825804
0.0825803
0.0825801
0.0825799
0.0825796
0.0825792
0.0825787
0.0825781
0.0825771
0.0825757
0.0825737
0.0825706
0.082566
0.0825589
0.0825479
0.0825309
0.0825049
0.0824657
0.0824079
0.0823254
0.0822102
0.0980703
0.0982024
0.0982969
0.098363
0.0984079
0.0984378
0.0984573
0.09847
0.0984783
0.0984836
0.0984872
0.0984895
0.0984911
0.0984922
0.098493
0.0984936
0.098494
0.0984944
0.0984946
0.0984948
0.098495
0.0984951
0.0984952
0.0984953
0.0984954
0.0984955
0.0984955
0.0984956
0.0984956
0.0984956
0.0984956
0.0984956
0.0984956
0.0984955
0.0984955
0.0984954
0.0984953
0.0984952
0.0984951
0.098495
0.0984948
0.0984946
0.0984944
0.098494
0.0984936
0.098493
0.0984922
0.0984911
0.0984895
0.0984872
0.0984836
0.0984783
0.09847
0.0984573
0.0984378
0.0984079
0.098363
0.0982969
0.0982024
0.0980703
0.115175
0.115322
0.115427
0.115501
0.115551
0.115584
0.115606
0.11562
0.11563
0.115636
0.11564
0.115642
0.115644
0.115645
0.115646
0.115647
0.115648
0.115648
0.115648
0.115648
0.115649
0.115649
0.115649
0.115649
0.115649
0.115649
0.115649
0.115649
0.115649
0.115649
0.115649
0.115649
0.115649
0.115649
0.115649
0.115649
0.115649
0.115649
0.115649
0.115649
0.115648
0.115648
0.115648
0.115648
0.115647
0.115646
0.115645
0.115644
0.115642
0.11564
0.115636
0.11563
0.11562
0.115606
0.115584
0.115551
0.115501
0.115427
0.115322
0.115175
0.133075
0.133235
0.13335
0.13343
0.133485
0.133522
0.133546
0.133561
0.133572
0.133578
0.133583
0.133586
0.133588
0.133589
0.13359
0.133591
0.133591
0.133592
0.133592
0.133592
0.133593
0.133593
0.133593
0.133593
0.133593
0.133593
0.133593
0.133593
0.133593
0.133593
0.133593
0.133593
0.133593
0.133593
0.133593
0.133593
0.133593
0.133593
0.133593
0.133593
0.133592
0.133592
0.133592
0.133591
0.133591
0.13359
0.133589
0.133588
0.133586
0.133583
0.133578
0.133572
0.133561
0.133546
0.133522
0.133485
0.13343
0.13335
0.133235
0.133075
0.151455
0.151628
0.151751
0.151838
0.151897
0.151937
0.151963
0.15198
0.151991
0.151998
0.152003
0.152007
0.152009
0.15201
0.152011
0.152012
0.152013
0.152013
0.152014
0.152014
0.152014
0.152014
0.152014
0.152015
0.152015
0.152015
0.152015
0.152015
0.152015
0.152015
0.152015
0.152015
0.152015
0.152015
0.152015
0.152015
0.152015
0.152014
0.152014
0.152014
0.152014
0.152014
0.152013
0.152013
0.152012
0.152011
0.15201
0.152009
0.152007
0.152003
0.151998
0.151991
0.15198
0.151963
0.151937
0.151897
0.151838
0.151751
0.151628
0.151455
0.170119
0.170303
0.170435
0.170528
0.170591
0.170634
0.170662
0.17068
0.170693
0.170701
0.170706
0.17071
0.170712
0.170714
0.170715
0.170716
0.170716
0.170717
0.170717
0.170718
0.170718
0.170718
0.170718
0.170718
0.170718
0.170719
0.170719
0.170719
0.170719
0.170719
0.170719
0.170719
0.170719
0.170719
0.170719
0.170718
0.170718
0.170718
0.170718
0.170718
0.170718
0.170717
0.170717
0.170716
0.170716
0.170715
0.170714
0.170712
0.17071
0.170706
0.170701
0.170693
0.17068
0.170662
0.170634
0.170591
0.170528
0.170435
0.170303
0.170119
0.18895
0.189144
0.189284
0.189383
0.18945
0.189495
0.189526
0.189546
0.189559
0.189567
0.189573
0.189577
0.18958
0.189582
0.189583
0.189584
0.189585
0.189585
0.189586
0.189586
0.189586
0.189586
0.189586
0.189587
0.189587
0.189587
0.189587
0.189587
0.189587
0.189587
0.189587
0.189587
0.189587
0.189587
0.189587
0.189587
0.189587
0.189586
0.189586
0.189586
0.189586
0.189586
0.189585
0.189585
0.189584
0.189583
0.189582
0.18958
0.189577
0.189573
0.189567
0.189559
0.189546
0.189526
0.189495
0.18945
0.189383
0.189284
0.189144
0.18895
0.207872
0.208077
0.208224
0.208328
0.2084
0.208448
0.20848
0.208501
0.208516
0.208525
0.208531
0.208535
0.208538
0.20854
0.208542
0.208543
0.208544
0.208544
0.208545
0.208545
0.208545
0.208545
0.208546
0.208546
0.208546
0.208546
0.208546
0.208546
0.208546
0.208546
0.208546
0.208546
0.208546
0.208546
0.208546
0.208546
0.208546
0.208546
0.208545
0.208545
0.208545
0.208545
0.208544
0.208544
0.208543
0.208542
0.20854
0.208538
0.208535
0.208531
0.208525
0.208516
0.208501
0.20848
0.208448
0.2084
0.208328
0.208224
0.208077
0.207872
0.226835
0.227049
0.227204
0.227314
0.227389
0.227441
0.227475
0.227498
0.227513
0.227523
0.22753
0.227534
0.227537
0.22754
0.227541
0.227542
0.227543
0.227544
0.227544
0.227545
0.227545
0.227545
0.227545
0.227545
0.227546
0.227546
0.227546
0.227546
0.227546
0.227546
0.227546
0.227546
0.227546
0.227546
0.227546
0.227546
0.227545
0.227545
0.227545
0.227545
0.227545
0.227544
0.227544
0.227543
0.227542
0.227541
0.22754
0.227537
0.227534
0.22753
0.227523
0.227513
0.227498
0.227475
0.227441
0.227389
0.227314
0.227204
0.227049
0.226835
0.245802
0.246025
0.246187
0.246302
0.246381
0.246436
0.246472
0.246496
0.246513
0.246523
0.246531
0.246536
0.246539
0.246541
0.246543
0.246544
0.246545
0.246546
0.246546
0.246547
0.246547
0.246547
0.246548
0.246548
0.246548
0.246548
0.246548
0.246548
0.246548
0.246548
0.246548
0.246548
0.246548
0.246548
0.246548
0.246548
0.246548
0.246548
0.246547
0.246547
0.246547
0.246546
0.246546
0.246545
0.246544
0.246543
0.246541
0.246539
0.246536
0.246531
0.246523
0.246513
0.246496
0.246472
0.246436
0.246381
0.246302
0.246187
0.246025
0.245802
0.264741
0.264973
0.265141
0.265262
0.265345
0.265402
0.265441
0.265467
0.265484
0.265496
0.265504
0.265509
0.265513
0.265515
0.265517
0.265518
0.265519
0.26552
0.26552
0.265521
0.265521
0.265521
0.265522
0.265522
0.265522
0.265522
0.265522
0.265522
0.265522
0.265522
0.265522
0.265522
0.265522
0.265522
0.265522
0.265522
0.265522
0.265522
0.265521
0.265521
0.265521
0.26552
0.26552
0.265519
0.265518
0.265517
0.265515
0.265513
0.265509
0.265504
0.265496
0.265484
0.265467
0.265441
0.265402
0.265345
0.265262
0.265141
0.264973
0.264741
0.283626
0.283866
0.284041
0.284167
0.284254
0.284314
0.284355
0.284383
0.284401
0.284413
0.284422
0.284427
0.284431
0.284434
0.284436
0.284438
0.284439
0.284439
0.28444
0.28444
0.284441
0.284441
0.284441
0.284441
0.284442
0.284442
0.284442
0.284442
0.284442
0.284442
0.284442
0.284442
0.284442
0.284442
0.284442
0.284442
0.284441
0.284441
0.284441
0.284441
0.28444
0.28444
0.284439
0.284439
0.284438
0.284436
0.284434
0.284431
0.284427
0.284422
0.284413
0.284401
0.284383
0.284355
0.284314
0.284254
0.284167
0.284041
0.283866
0.283626
0.302434
0.302681
0.302863
0.302993
0.303085
0.303148
0.303191
0.30322
0.303239
0.303253
0.303262
0.303268
0.303272
0.303275
0.303277
0.303279
0.30328
0.303281
0.303281
0.303282
0.303282
0.303282
0.303283
0.303283
0.303283
0.303283
0.303283
0.303283
0.303283
0.303283
0.303283
0.303283
0.303283
0.303283
0.303283
0.303283
0.303283
0.303283
0.303282
0.303282
0.303282
0.303281
0.303281
0.30328
0.303279
0.303277
0.303275
0.303272
0.303268
0.303262
0.303253
0.303239
0.30322
0.303191
0.303148
0.303085
0.302993
0.302863
0.302681
0.302434
0.321143
0.321397
0.321585
0.32172
0.321816
0.321882
0.321927
0.321958
0.321978
0.321992
0.322002
0.322009
0.322013
0.322016
0.322019
0.32202
0.322021
0.322022
0.322023
0.322024
0.322024
0.322024
0.322025
0.322025
0.322025
0.322025
0.322025
0.322025
0.322025
0.322025
0.322025
0.322025
0.322025
0.322025
0.322025
0.322025
0.322025
0.322025
0.322024
0.322024
0.322024
0.322023
0.322022
0.322021
0.32202
0.322019
0.322016
0.322013
0.322009
0.322002
0.321992
0.321978
0.321958
0.321927
0.321882
0.321816
0.32172
0.321585
0.321397
0.321143
0.339733
0.339994
0.340188
0.340328
0.340427
0.340496
0.340543
0.340576
0.340598
0.340612
0.340623
0.34063
0.340635
0.340638
0.340641
0.340642
0.340644
0.340645
0.340645
0.340646
0.340646
0.340647
0.340647
0.340647
0.340647
0.340647
0.340648
0.340648
0.340648
0.340648
0.340648
0.340648
0.340648
0.340648
0.340647
0.340647
0.340647
0.340647
0.340647
0.340646
0.340646
0.340645
0.340645
0.340644
0.340642
0.340641
0.340638
0.340635
0.34063
0.340623
0.340612
0.340598
0.340576
0.340543
0.340496
0.340427
0.340328
0.340188
0.339994
0.339733
0.358186
0.358453
0.358652
0.358797
0.3589
0.358972
0.359021
0.359055
0.359079
0.359095
0.359105
0.359113
0.359118
0.359122
0.359125
0.359126
0.359128
0.359129
0.35913
0.35913
0.359131
0.359131
0.359131
0.359132
0.359132
0.359132
0.359132
0.359132
0.359132
0.359132
0.359132
0.359132
0.359132
0.359132
0.359132
0.359132
0.359132
0.359131
0.359131
0.359131
0.35913
0.35913
0.359129
0.359128
0.359126
0.359125
0.359122
0.359118
0.359113
0.359105
0.359095
0.359079
0.359055
0.359021
0.358972
0.3589
0.358797
0.358652
0.358453
0.358186
0.376485
0.376757
0.376961
0.37711
0.377217
0.377292
0.377344
0.37738
0.377404
0.377421
0.377433
0.377441
0.377446
0.37745
0.377453
0.377455
0.377457
0.377458
0.377459
0.377459
0.37746
0.37746
0.37746
0.377461
0.377461
0.377461
0.377461
0.377461
0.377461
0.377461
0.377461
0.377461
0.377461
0.377461
0.377461
0.377461
0.377461
0.37746
0.37746
0.37746
0.377459
0.377459
0.377458
0.377457
0.377455
0.377453
0.37745
0.377446
0.377441
0.377433
0.377421
0.377404
0.37738
0.377344
0.377292
0.377217
0.37711
0.376961
0.376757
0.376485
0.394613
0.39489
0.395099
0.395252
0.395362
0.39544
0.395495
0.395532
0.395558
0.395576
0.395588
0.395597
0.395603
0.395607
0.39561
0.395612
0.395614
0.395615
0.395616
0.395617
0.395617
0.395618
0.395618
0.395618
0.395618
0.395618
0.395619
0.395619
0.395619
0.395619
0.395619
0.395619
0.395619
0.395619
0.395618
0.395618
0.395618
0.395618
0.395618
0.395617
0.395617
0.395616
0.395615
0.395614
0.395612
0.39561
0.395607
0.395603
0.395597
0.395588
0.395576
0.395558
0.395532
0.395495
0.39544
0.395362
0.395252
0.395099
0.39489
0.394613
0.412554
0.412836
0.413049
0.413207
0.413321
0.413401
0.413458
0.413497
0.413524
0.413543
0.413556
0.413565
0.413572
0.413576
0.41358
0.413582
0.413584
0.413585
0.413586
0.413587
0.413587
0.413588
0.413588
0.413588
0.413589
0.413589
0.413589
0.413589
0.413589
0.413589
0.413589
0.413589
0.413589
0.413589
0.413589
0.413589
0.413588
0.413588
0.413588
0.413587
0.413587
0.413586
0.413585
0.413584
0.413582
0.41358
0.413576