/*--------------------------------*- C++ -*----------------------------------*\
| =========                 |                                                 |
| \\      /  F ield         | foam-extend: Open Source CFD                    |
|  \\    /   O peration     | Version:     4.0                                |
|   \\  /    A nd           | Web:         http://www.foam-extend.org         |
|    \\/     M anipulation  |                                                 |
\*---------------------------------------------------------------------------*/
FoamFile
{
    version     2.0;
    format      ascii;
    class       volScalarField;
    location    "1540";
    object      cMinus;
}
// * * * * * * * * * * * * * * * * * * * * * * * * * * * * * * * * * * * * * //

dimensions      [0 0 0 0 0 0 0];

internalField   nonuniform List<scalar> 
6960
(
2.52096e-23
2.52229e-23
2.52204e-23
2.52153e-23
2.52098e-23
2.52047e-23
2.52e-23
2.51959e-23
2.51923e-23
2.51891e-23
2.51863e-23
2.51839e-23
2.51819e-23
2.51801e-23
2.51786e-23
2.51773e-23
2.51762e-23
2.51753e-23
2.51745e-23
2.51738e-23
2.51733e-23
2.51728e-23
2.51724e-23
2.51721e-23
2.51719e-23
2.51717e-23
2.51715e-23
2.51714e-23
2.51713e-23
2.51713e-23
2.51713e-23
2.51713e-23
2.51714e-23
2.51715e-23
2.51717e-23
2.51719e-23
2.51721e-23
2.51724e-23
2.51728e-23
2.51733e-23
2.51738e-23
2.51745e-23
2.51753e-23
2.51762e-23
2.51773e-23
2.51786e-23
2.51801e-23
2.51819e-23
2.51839e-23
2.51863e-23
2.51891e-23
2.51923e-23
2.51959e-23
2.52e-23
2.52047e-23
2.52098e-23
2.52153e-23
2.52204e-23
2.52229e-23
2.52096e-23
8.03854e-23
8.04333e-23
8.04318e-23
8.04217e-23
8.04102e-23
8.03991e-23
8.03889e-23
8.03798e-23
8.03718e-23
8.03648e-23
8.03587e-23
8.03533e-23
8.03487e-23
8.03447e-23
8.03413e-23
8.03384e-23
8.03359e-23
8.03337e-23
8.03319e-23
8.03304e-23
8.03292e-23
8.03281e-23
8.03272e-23
8.03265e-23
8.0326e-23
8.03255e-23
8.03252e-23
8.03249e-23
8.03248e-23
8.03247e-23
8.03247e-23
8.03248e-23
8.03249e-23
8.03252e-23
8.03255e-23
8.0326e-23
8.03265e-23
8.03272e-23
8.03281e-23
8.03292e-23
8.03304e-23
8.03319e-23
8.03337e-23
8.03359e-23
8.03384e-23
8.03413e-23
8.03447e-23
8.03487e-23
8.03533e-23
8.03587e-23
8.03648e-23
8.03718e-23
8.03798e-23
8.03889e-23
8.03991e-23
8.04102e-23
8.04217e-23
8.04318e-23
8.04333e-23
8.03854e-23
2.29487e-22
2.29643e-22
2.29661e-22
2.29654e-22
2.29642e-22
2.29628e-22
2.29615e-22
2.29604e-22
2.29593e-22
2.29584e-22
2.29576e-22
2.29568e-22
2.29562e-22
2.29556e-22
2.29551e-22
2.29547e-22
2.29544e-22
2.2954e-22
2.29538e-22
2.29536e-22
2.29534e-22
2.29532e-22
2.29531e-22
2.2953e-22
2.29529e-22
2.29528e-22
2.29528e-22
2.29527e-22
2.29527e-22
2.29527e-22
2.29527e-22
2.29527e-22
2.29527e-22
2.29528e-22
2.29528e-22
2.29529e-22
2.2953e-22
2.29531e-22
2.29532e-22
2.29534e-22
2.29536e-22
2.29538e-22
2.2954e-22
2.29544e-22
2.29547e-22
2.29551e-22
2.29556e-22
2.29562e-22
2.29568e-22
2.29576e-22
2.29584e-22
2.29593e-22
2.29604e-22
2.29615e-22
2.29628e-22
2.29642e-22
2.29654e-22
2.29661e-22
2.29643e-22
2.29487e-22
6.40569e-22
6.41063e-22
6.41185e-22
6.41235e-22
6.41264e-22
6.41285e-22
6.413e-22
6.41312e-22
6.41322e-22
6.4133e-22
6.41336e-22
6.41341e-22
6.41344e-22
6.41347e-22
6.41349e-22
6.4135e-22
6.41351e-22
6.41351e-22
6.41352e-22
6.41352e-22
6.41352e-22
6.41353e-22
6.41353e-22
6.41353e-22
6.41353e-22
6.41353e-22
6.41353e-22
6.41354e-22
6.41354e-22
6.41354e-22
6.41354e-22
6.41354e-22
6.41354e-22
6.41353e-22
6.41353e-22
6.41353e-22
6.41353e-22
6.41353e-22
6.41353e-22
6.41352e-22
6.41352e-22
6.41352e-22
6.41351e-22
6.41351e-22
6.4135e-22
6.41349e-22
6.41347e-22
6.41344e-22
6.41341e-22
6.41336e-22
6.4133e-22
6.41322e-22
6.41312e-22
6.413e-22
6.41285e-22
6.41264e-22
6.41235e-22
6.41185e-22
6.41063e-22
6.40569e-22
1.80195e-21
1.80351e-21
1.80407e-21
1.80442e-21
1.8047e-21
1.80493e-21
1.80513e-21
1.8053e-21
1.80545e-21
1.80557e-21
1.80568e-21
1.80576e-21
1.80584e-21
1.8059e-21
1.80595e-21
1.806e-21
1.80603e-21
1.80606e-21
1.80609e-21
1.80611e-21
1.80613e-21
1.80614e-21
1.80615e-21
1.80616e-21
1.80617e-21
1.80618e-21
1.80618e-21
1.80619e-21
1.80619e-21
1.80619e-21
1.80619e-21
1.80619e-21
1.80619e-21
1.80618e-21
1.80618e-21
1.80617e-21
1.80616e-21
1.80615e-21
1.80614e-21
1.80613e-21
1.80611e-21
1.80609e-21
1.80606e-21
1.80603e-21
1.806e-21
1.80595e-21
1.8059e-21
1.80584e-21
1.80576e-21
1.80568e-21
1.80557e-21
1.80545e-21
1.8053e-21
1.80513e-21
1.80493e-21
1.8047e-21
1.80442e-21
1.80407e-21
1.80351e-21
1.80195e-21
5.16695e-21
5.17197e-21
5.17421e-21
5.17585e-21
5.17723e-21
5.17842e-21
5.17945e-21
5.18035e-21
5.18113e-21
5.18179e-21
5.18236e-21
5.18284e-21
5.18325e-21
5.1836e-21
5.18389e-21
5.18414e-21
5.18434e-21
5.18451e-21
5.18466e-21
5.18478e-21
5.18488e-21
5.18496e-21
5.18503e-21
5.18508e-21
5.18513e-21
5.18517e-21
5.18519e-21
5.18521e-21
5.18523e-21
5.18523e-21
5.18523e-21
5.18523e-21
5.18521e-21
5.18519e-21
5.18517e-21
5.18513e-21
5.18508e-21
5.18503e-21
5.18496e-21
5.18488e-21
5.18478e-21
5.18466e-21
5.18451e-21
5.18434e-21
5.18414e-21
5.18389e-21
5.1836e-21
5.18325e-21
5.18284e-21
5.18236e-21
5.18179e-21
5.18113e-21
5.18035e-21
5.17945e-21
5.17842e-21
5.17723e-21
5.17585e-21
5.17421e-21
5.17197e-21
5.16695e-21
1.51698e-20
1.51862e-20
1.51947e-20
1.52014e-20
1.52072e-20
1.52123e-20
1.52168e-20
1.52206e-20
1.5224e-20
1.52269e-20
1.52294e-20
1.52315e-20
1.52333e-20
1.52348e-20
1.52361e-20
1.52372e-20
1.52381e-20
1.52388e-20
1.52395e-20
1.524e-20
1.52405e-20
1.52408e-20
1.52411e-20
1.52414e-20
1.52416e-20
1.52418e-20
1.52419e-20
1.5242e-20
1.5242e-20
1.52421e-20
1.52421e-20
1.5242e-20
1.5242e-20
1.52419e-20
1.52418e-20
1.52416e-20
1.52414e-20
1.52411e-20
1.52408e-20
1.52405e-20
1.524e-20
1.52395e-20
1.52388e-20
1.52381e-20
1.52372e-20
1.52361e-20
1.52348e-20
1.52333e-20
1.52315e-20
1.52294e-20
1.52269e-20
1.5224e-20
1.52206e-20
1.52168e-20
1.52123e-20
1.52072e-20
1.52014e-20
1.51947e-20
1.51862e-20
1.51698e-20
4.5685e-20
4.57391e-20
4.57707e-20
4.57969e-20
4.582e-20
4.58402e-20
4.5858e-20
4.58735e-20
4.5887e-20
4.58986e-20
4.59086e-20
4.59171e-20
4.59244e-20
4.59305e-20
4.59357e-20
4.59401e-20
4.59438e-20
4.59469e-20
4.59495e-20
4.59517e-20
4.59535e-20
4.5955e-20
4.59563e-20
4.59573e-20
4.59581e-20
4.59588e-20
4.59593e-20
4.59597e-20
4.59599e-20
4.596e-20
4.596e-20
4.59599e-20
4.59597e-20
4.59593e-20
4.59588e-20
4.59581e-20
4.59573e-20
4.59563e-20
4.5955e-20
4.59535e-20
4.59517e-20
4.59495e-20
4.59469e-20
4.59438e-20
4.59401e-20
4.59357e-20
4.59305e-20
4.59244e-20
4.59171e-20
4.59086e-20
4.58986e-20
4.5887e-20
4.58735e-20
4.5858e-20
4.58402e-20
4.582e-20
4.57969e-20
4.57707e-20
4.57391e-20
4.5685e-20
1.41243e-19
1.41426e-19
1.41542e-19
1.41642e-19
1.41731e-19
1.41809e-19
1.41878e-19
1.41938e-19
1.4199e-19
1.42035e-19
1.42074e-19
1.42107e-19
1.42135e-19
1.42159e-19
1.4218e-19
1.42197e-19
1.42211e-19
1.42224e-19
1.42234e-19
1.42242e-19
1.42249e-19
1.42255e-19
1.4226e-19
1.42264e-19
1.42267e-19
1.4227e-19
1.42272e-19
1.42273e-19
1.42274e-19
1.42275e-19
1.42275e-19
1.42274e-19
1.42273e-19
1.42272e-19
1.4227e-19
1.42267e-19
1.42264e-19
1.4226e-19
1.42255e-19
1.42249e-19
1.42242e-19
1.42234e-19
1.42224e-19
1.42211e-19
1.42197e-19
1.4218e-19
1.42159e-19
1.42135e-19
1.42107e-19
1.42074e-19
1.42035e-19
1.4199e-19
1.41938e-19
1.41878e-19
1.41809e-19
1.41731e-19
1.41642e-19
1.41542e-19
1.41426e-19
1.41243e-19
4.48466e-19
4.49097e-19
4.49528e-19
4.49906e-19
4.50243e-19
4.50542e-19
4.50806e-19
4.51037e-19
4.51237e-19
4.5141e-19
4.51559e-19
4.51687e-19
4.51795e-19
4.51888e-19
4.51966e-19
4.52032e-19
4.52088e-19
4.52135e-19
4.52174e-19
4.52207e-19
4.52234e-19
4.52257e-19
4.52276e-19
4.52292e-19
4.52304e-19
4.52314e-19
4.52322e-19
4.52327e-19
4.52331e-19
4.52332e-19
4.52332e-19
4.52331e-19
4.52327e-19
4.52322e-19
4.52314e-19
4.52304e-19
4.52292e-19
4.52276e-19
4.52257e-19
4.52234e-19
4.52207e-19
4.52174e-19
4.52135e-19
4.52088e-19
4.52032e-19
4.51966e-19
4.51888e-19
4.51795e-19
4.51687e-19
4.51559e-19
4.5141e-19
4.51237e-19
4.51037e-19
4.50806e-19
4.50542e-19
4.50243e-19
4.49906e-19
4.49528e-19
4.49097e-19
4.48466e-19
1.46268e-18
1.4649e-18
1.46651e-18
1.46794e-18
1.46923e-18
1.47038e-18
1.47139e-18
1.47227e-18
1.47304e-18
1.4737e-18
1.47427e-18
1.47476e-18
1.47518e-18
1.47554e-18
1.47584e-18
1.47609e-18
1.47631e-18
1.47649e-18
1.47664e-18
1.47676e-18
1.47687e-18
1.47696e-18
1.47703e-18
1.47709e-18
1.47714e-18
1.47718e-18
1.47721e-18
1.47723e-18
1.47724e-18
1.47725e-18
1.47725e-18
1.47724e-18
1.47723e-18
1.47721e-18
1.47718e-18
1.47714e-18
1.47709e-18
1.47703e-18
1.47696e-18
1.47687e-18
1.47676e-18
1.47664e-18
1.47649e-18
1.47631e-18
1.47609e-18
1.47584e-18
1.47554e-18
1.47518e-18
1.47476e-18
1.47427e-18
1.4737e-18
1.47304e-18
1.47227e-18
1.47139e-18
1.47038e-18
1.46923e-18
1.46794e-18
1.46651e-18
1.4649e-18
1.46268e-18
4.90063e-18
4.90862e-18
4.91471e-18
4.9202e-18
4.92515e-18
4.92956e-18
4.93346e-18
4.93686e-18
4.93983e-18
4.9424e-18
4.9446e-18
4.9465e-18
4.94811e-18
4.94948e-18
4.95065e-18
4.95163e-18
4.95246e-18
4.95316e-18
4.95375e-18
4.95424e-18
4.95465e-18
4.95499e-18
4.95527e-18
4.9555e-18
4.95569e-18
4.95584e-18
4.95595e-18
4.95603e-18
4.95609e-18
4.95611e-18
4.95611e-18
4.95609e-18
4.95603e-18
4.95595e-18
4.95584e-18
4.95569e-18
4.9555e-18
4.95527e-18
4.95499e-18
4.95465e-18
4.95424e-18
4.95375e-18
4.95316e-18
4.95246e-18
4.95163e-18
4.95065e-18
4.94948e-18
4.94811e-18
4.9465e-18
4.9446e-18
4.9424e-18
4.93983e-18
4.93686e-18
4.93346e-18
4.92956e-18
4.92515e-18
4.9202e-18
4.91471e-18
4.90862e-18
4.90063e-18
1.68659e-17
1.68954e-17
1.69188e-17
1.69401e-17
1.69593e-17
1.69765e-17
1.69917e-17
1.7005e-17
1.70166e-17
1.70266e-17
1.70352e-17
1.70426e-17
1.70489e-17
1.70543e-17
1.70588e-17
1.70627e-17
1.70659e-17
1.70687e-17
1.7071e-17
1.70729e-17
1.70745e-17
1.70758e-17
1.70769e-17
1.70778e-17
1.70786e-17
1.70791e-17
1.70796e-17
1.70799e-17
1.70801e-17
1.70802e-17
1.70802e-17
1.70801e-17
1.70799e-17
1.70796e-17
1.70791e-17
1.70786e-17
1.70778e-17
1.70769e-17
1.70758e-17
1.70745e-17
1.70729e-17
1.7071e-17
1.70687e-17
1.70659e-17
1.70627e-17
1.70588e-17
1.70543e-17
1.70489e-17
1.70426e-17
1.70352e-17
1.70266e-17
1.70166e-17
1.7005e-17
1.69917e-17
1.69765e-17
1.69593e-17
1.69401e-17
1.69188e-17
1.68954e-17
1.68659e-17
5.96131e-17
5.97241e-17
5.98154e-17
5.98993e-17
5.99754e-17
6.00433e-17
6.01033e-17
6.01559e-17
6.02018e-17
6.02414e-17
6.02756e-17
6.03049e-17
6.03299e-17
6.03512e-17
6.03692e-17
6.03845e-17
6.03974e-17
6.04082e-17
6.04173e-17
6.0425e-17
6.04314e-17
6.04367e-17
6.0441e-17
6.04446e-17
6.04475e-17
6.04498e-17
6.04516e-17
6.04528e-17
6.04537e-17
6.04541e-17
6.04541e-17
6.04537e-17
6.04528e-17
6.04516e-17
6.04498e-17
6.04475e-17
6.04446e-17
6.0441e-17
6.04367e-17
6.04314e-17
6.0425e-17
6.04173e-17
6.04082e-17
6.03974e-17
6.03845e-17
6.03692e-17
6.03512e-17
6.03299e-17
6.03049e-17
6.02756e-17
6.02414e-17
6.02018e-17
6.01559e-17
6.01033e-17
6.00433e-17
5.99754e-17
5.98993e-17
5.98154e-17
5.97241e-17
5.96131e-17
2.1632e-16
2.16748e-16
2.17111e-16
2.17447e-16
2.17752e-16
2.18025e-16
2.18266e-16
2.18478e-16
2.18662e-16
2.18821e-16
2.18959e-16
2.19077e-16
2.19177e-16
2.19263e-16
2.19336e-16
2.19397e-16
2.19449e-16
2.19493e-16
2.1953e-16
2.1956e-16
2.19586e-16
2.19608e-16
2.19625e-16
2.1964e-16
2.19651e-16
2.19661e-16
2.19668e-16
2.19673e-16
2.19676e-16
2.19678e-16
2.19678e-16
2.19676e-16
2.19673e-16
2.19668e-16
2.19661e-16
2.19651e-16
2.1964e-16
2.19625e-16
2.19608e-16
2.19586e-16
2.1956e-16
2.1953e-16
2.19493e-16
2.19449e-16
2.19397e-16
2.19336e-16
2.19263e-16
2.19177e-16
2.19077e-16
2.18959e-16
2.18821e-16
2.18662e-16
2.18478e-16
2.18266e-16
2.18025e-16
2.17752e-16
2.17447e-16
2.17111e-16
2.16748e-16
2.1632e-16
8.05465e-16
8.07153e-16
8.08622e-16
8.09992e-16
8.11238e-16
8.12353e-16
8.13339e-16
8.14204e-16
8.14958e-16
8.15611e-16
8.16173e-16
8.16655e-16
8.17067e-16
8.17418e-16
8.17716e-16
8.17968e-16
8.18181e-16
8.1836e-16
8.1851e-16
8.18636e-16
8.18742e-16
8.18829e-16
8.18901e-16
8.18961e-16
8.19009e-16
8.19046e-16
8.19075e-16
8.19097e-16
8.1911e-16
8.19117e-16
8.19117e-16
8.1911e-16
8.19097e-16
8.19075e-16
8.19046e-16
8.19009e-16
8.18961e-16
8.18901e-16
8.18829e-16
8.18742e-16
8.18636e-16
8.1851e-16
8.1836e-16
8.18181e-16
8.17968e-16
8.17716e-16
8.17418e-16
8.17067e-16
8.16655e-16
8.16173e-16
8.15611e-16
8.14958e-16
8.14204e-16
8.13339e-16
8.12353e-16
8.11238e-16
8.09992e-16
8.08622e-16
8.07153e-16
8.05465e-16
3.07521e-15
3.08201e-15
3.08808e-15
3.09376e-15
3.09894e-15
3.10357e-15
3.10768e-15
3.11128e-15
3.11441e-15
3.11713e-15
3.11947e-15
3.12148e-15
3.12319e-15
3.12465e-15
3.12589e-15
3.12694e-15
3.12783e-15
3.12858e-15
3.1292e-15
3.12973e-15
3.13017e-15
3.13053e-15
3.13084e-15
3.13108e-15
3.13128e-15
3.13144e-15
3.13156e-15
3.13165e-15
3.13171e-15
3.13173e-15
3.13173e-15
3.13171e-15
3.13165e-15
3.13156e-15
3.13144e-15
3.13128e-15
3.13108e-15
3.13084e-15
3.13053e-15
3.13017e-15
3.12973e-15
3.1292e-15
3.12858e-15
3.12783e-15
3.12694e-15
3.12589e-15
3.12465e-15
3.12319e-15
3.12148e-15
3.11947e-15
3.11713e-15
3.11441e-15
3.11128e-15
3.10768e-15
3.10357e-15
3.09894e-15
3.09376e-15
3.08808e-15
3.08201e-15
3.07521e-15
1.2027e-14
1.2055e-14
1.20805e-14
1.21045e-14
1.21264e-14
1.2146e-14
1.21634e-14
1.21786e-14
1.21919e-14
1.22034e-14
1.22133e-14
1.22218e-14
1.22291e-14
1.22352e-14
1.22405e-14
1.22449e-14
1.22487e-14
1.22519e-14
1.22545e-14
1.22568e-14
1.22586e-14
1.22602e-14
1.22614e-14
1.22625e-14
1.22633e-14
1.2264e-14
1.22645e-14
1.22649e-14
1.22651e-14
1.22652e-14
1.22652e-14
1.22651e-14
1.22649e-14
1.22645e-14
1.2264e-14
1.22633e-14
1.22625e-14
1.22614e-14
1.22602e-14
1.22586e-14
1.22568e-14
1.22545e-14
1.22519e-14
1.22487e-14
1.22449e-14
1.22405e-14
1.22352e-14
1.22291e-14
1.22218e-14
1.22133e-14
1.22034e-14
1.21919e-14
1.21786e-14
1.21634e-14
1.2146e-14
1.21264e-14
1.21045e-14
1.20805e-14
1.2055e-14
1.2027e-14
4.81224e-14
4.82401e-14
4.83491e-14
4.84521e-14
4.85462e-14
4.86306e-14
4.87053e-14
4.87708e-14
4.88279e-14
4.88774e-14
4.89201e-14
4.89567e-14
4.8988e-14
4.90147e-14
4.90373e-14
4.90565e-14
4.90727e-14
4.90863e-14
4.90978e-14
4.91074e-14
4.91154e-14
4.9122e-14
4.91276e-14
4.91321e-14
4.91357e-14
4.91386e-14
4.91408e-14
4.91424e-14
4.91434e-14
4.9144e-14
4.9144e-14
4.91434e-14
4.91424e-14
4.91408e-14
4.91386e-14
4.91357e-14
4.91321e-14
4.91276e-14
4.9122e-14
4.91154e-14
4.91074e-14
4.90978e-14
4.90863e-14
4.90727e-14
4.90565e-14
4.90373e-14
4.90147e-14
4.8988e-14
4.89567e-14
4.89201e-14
4.88774e-14
4.88279e-14
4.87708e-14
4.87053e-14
4.86306e-14
4.85462e-14
4.84521e-14
4.83491e-14
4.82401e-14
4.81224e-14
1.96678e-13
1.97181e-13
1.97656e-13
1.98105e-13
1.98516e-13
1.98884e-13
1.9921e-13
1.99497e-13
1.99747e-13
1.99963e-13
2.00149e-13
2.0031e-13
2.00446e-13
2.00563e-13
2.00662e-13
2.00746e-13
2.00817e-13
2.00876e-13
2.00926e-13
2.00968e-13
2.01003e-13
2.01033e-13
2.01057e-13
2.01076e-13
2.01092e-13
2.01105e-13
2.01115e-13
2.01122e-13
2.01126e-13
2.01128e-13
2.01128e-13
2.01126e-13
2.01122e-13
2.01115e-13
2.01105e-13
2.01092e-13
2.01076e-13
2.01057e-13
2.01033e-13
2.01003e-13
2.00968e-13
2.00926e-13
2.00876e-13
2.00817e-13
2.00746e-13
2.00662e-13
2.00563e-13
2.00446e-13
2.0031e-13
2.00149e-13
1.99963e-13
1.99747e-13
1.99497e-13
1.9921e-13
1.98884e-13
1.98516e-13
1.98105e-13
1.97656e-13
1.97181e-13
1.96678e-13
8.19464e-13
8.21654e-13
8.23746e-13
8.25733e-13
8.27552e-13
8.29183e-13
8.30628e-13
8.31897e-13
8.33003e-13
8.33962e-13
8.34789e-13
8.35498e-13
8.36105e-13
8.36622e-13
8.3706e-13
8.37432e-13
8.37746e-13
8.3801e-13
8.38233e-13
8.38419e-13
8.38575e-13
8.38704e-13
8.38811e-13
8.38898e-13
8.38969e-13
8.39025e-13
8.39068e-13
8.39099e-13
8.39119e-13
8.39129e-13
8.39129e-13
8.39119e-13
8.39099e-13
8.39068e-13
8.39025e-13
8.38969e-13
8.38898e-13
8.38811e-13
8.38704e-13
8.38575e-13
8.38419e-13
8.38233e-13
8.3801e-13
8.37746e-13
8.37432e-13
8.3706e-13
8.36622e-13
8.36105e-13
8.35498e-13
8.34789e-13
8.33962e-13
8.33003e-13
8.31897e-13
8.30628e-13
8.29183e-13
8.27552e-13
8.25733e-13
8.23746e-13
8.21654e-13
8.19464e-13
3.47241e-12
3.48206e-12
3.49141e-12
3.5003e-12
3.50844e-12
3.51575e-12
3.52222e-12
3.52791e-12
3.53287e-12
3.53716e-12
3.54087e-12
3.54405e-12
3.54677e-12
3.54909e-12
3.55105e-12
3.55272e-12
3.55413e-12
3.55531e-12
3.55631e-12
3.55715e-12
3.55784e-12
3.55842e-12
3.5589e-12
3.5593e-12
3.55961e-12
3.55986e-12
3.56006e-12
3.5602e-12
3.56029e-12
3.56033e-12
3.56033e-12
3.56029e-12
3.5602e-12
3.56006e-12
3.55986e-12
3.55961e-12
3.5593e-12
3.5589e-12
3.55842e-12
3.55784e-12
3.55715e-12
3.55631e-12
3.55531e-12
3.55413e-12
3.55272e-12
3.55105e-12
3.54909e-12
3.54677e-12
3.54405e-12
3.54087e-12
3.53716e-12
3.53287e-12
3.52791e-12
3.52222e-12
3.51575e-12
3.50844e-12
3.5003e-12
3.49141e-12
3.48206e-12
3.47241e-12
1.49212e-11
1.49643e-11
1.50064e-11
1.50466e-11
1.50833e-11
1.51164e-11
1.51456e-11
1.51713e-11
1.51937e-11
1.52132e-11
1.52299e-11
1.52443e-11
1.52566e-11
1.52671e-11
1.5276e-11
1.52835e-11
1.52899e-11
1.52952e-11
1.52997e-11
1.53035e-11
1.53067e-11
1.53093e-11
1.53115e-11
1.53132e-11
1.53147e-11
1.53158e-11
1.53167e-11
1.53173e-11
1.53177e-11
1.53179e-11
1.53179e-11
1.53177e-11
1.53173e-11
1.53167e-11
1.53158e-11
1.53147e-11
1.53132e-11
1.53115e-11
1.53093e-11
1.53067e-11
1.53035e-11
1.52997e-11
1.52952e-11
1.52899e-11
1.52835e-11
1.5276e-11
1.52671e-11
1.52566e-11
1.52443e-11
1.52299e-11
1.52132e-11
1.51937e-11
1.51713e-11
1.51456e-11
1.51164e-11
1.50833e-11
1.50466e-11
1.50064e-11
1.49643e-11
1.49212e-11
6.47981e-11
6.49914e-11
6.51824e-11
6.53646e-11
6.55317e-11
6.56817e-11
6.58146e-11
6.59313e-11
6.60331e-11
6.61214e-11
6.61975e-11
6.62629e-11
6.63188e-11
6.63664e-11
6.64068e-11
6.64411e-11
6.647e-11
6.64944e-11
6.65149e-11
6.65321e-11
6.65465e-11
6.65584e-11
6.65682e-11
6.65763e-11
6.65828e-11
6.6588e-11
6.65919e-11
6.65948e-11
6.65967e-11
6.65976e-11
6.65976e-11
6.65967e-11
6.65948e-11
6.65919e-11
6.6588e-11
6.65828e-11
6.65763e-11
6.65682e-11
6.65584e-11
6.65465e-11
6.65321e-11
6.65149e-11
6.64944e-11
6.647e-11
6.64411e-11
6.64068e-11
6.63664e-11
6.63188e-11
6.62629e-11
6.61975e-11
6.61214e-11
6.60331e-11
6.59313e-11
6.58146e-11
6.56817e-11
6.55317e-11
6.53646e-11
6.51824e-11
6.49914e-11
6.47981e-11
2.83233e-10
2.84104e-10
2.84971e-10
2.858e-10
2.86559e-10
2.87241e-10
2.87845e-10
2.88376e-10
2.88839e-10
2.89241e-10
2.89587e-10
2.89884e-10
2.90139e-10
2.90355e-10
2.90539e-10
2.90695e-10
2.90827e-10
2.90938e-10
2.91031e-10
2.91109e-10
2.91174e-10
2.91229e-10
2.91274e-10
2.9131e-10
2.9134e-10
2.91363e-10
2.91381e-10
2.91394e-10
2.91403e-10
2.91407e-10
2.91407e-10
2.91403e-10
2.91394e-10
2.91381e-10
2.91363e-10
2.9134e-10
2.9131e-10
2.91274e-10
2.91229e-10
2.91174e-10
2.91109e-10
2.91031e-10
2.90938e-10
2.90827e-10
2.90695e-10
2.90539e-10
2.90355e-10
2.90139e-10
2.89884e-10
2.89587e-10
2.89241e-10
2.88839e-10
2.88376e-10
2.87845e-10
2.87241e-10
2.86559e-10
2.858e-10
2.84971e-10
2.84104e-10
2.83233e-10
1.24022e-09
1.24414e-09
1.24806e-09
1.25181e-09
1.25525e-09
1.25834e-09
1.26108e-09
1.26348e-09
1.26558e-09
1.2674e-09
1.26896e-09
1.27031e-09
1.27146e-09
1.27244e-09
1.27328e-09
1.27398e-09
1.27458e-09
1.27508e-09
1.27551e-09
1.27586e-09
1.27616e-09
1.2764e-09
1.27661e-09
1.27677e-09
1.27691e-09
1.27701e-09
1.27709e-09
1.27715e-09
1.27719e-09
1.27721e-09
1.27721e-09
1.27719e-09
1.27715e-09
1.27709e-09
1.27701e-09
1.27691e-09
1.27677e-09
1.27661e-09
1.2764e-09
1.27616e-09
1.27586e-09
1.27551e-09
1.27508e-09
1.27458e-09
1.27398e-09
1.27328e-09
1.27244e-09
1.27146e-09
1.27031e-09
1.26896e-09
1.2674e-09
1.26558e-09
1.26348e-09
1.26108e-09
1.25834e-09
1.25525e-09
1.25181e-09
1.24806e-09
1.24414e-09
1.24022e-09
5.41068e-09
5.42814e-09
5.44573e-09
5.46255e-09
5.47798e-09
5.49183e-09
5.5041e-09
5.51489e-09
5.52429e-09
5.53245e-09
5.53948e-09
5.54553e-09
5.55069e-09
5.5551e-09
5.55884e-09
5.562e-09
5.56468e-09
5.56694e-09
5.56883e-09
5.57042e-09
5.57175e-09
5.57285e-09
5.57376e-09
5.57451e-09
5.57511e-09
5.57559e-09
5.57596e-09
5.57622e-09
5.57639e-09
5.57648e-09
5.57648e-09
5.57639e-09
5.57622e-09
5.57596e-09
5.57559e-09
5.57511e-09
5.57451e-09
5.57376e-09
5.57285e-09
5.57175e-09
5.57042e-09
5.56883e-09
5.56694e-09
5.56468e-09
5.562e-09
5.55884e-09
5.5551e-09
5.55069e-09
5.54553e-09
5.53948e-09
5.53245e-09
5.52429e-09
5.51489e-09
5.5041e-09
5.49183e-09
5.47798e-09
5.46255e-09
5.44573e-09
5.42814e-09
5.41068e-09
2.3371e-08
2.34477e-08
2.35254e-08
2.35996e-08
2.36676e-08
2.37287e-08
2.37829e-08
2.38304e-08
2.38719e-08
2.39079e-08
2.3939e-08
2.39656e-08
2.39884e-08
2.40078e-08
2.40243e-08
2.40383e-08
2.40501e-08
2.40601e-08
2.40685e-08
2.40755e-08
2.40813e-08
2.40862e-08
2.40902e-08
2.40935e-08
2.40962e-08
2.40983e-08
2.40999e-08
2.41011e-08
2.41018e-08
2.41022e-08
2.41022e-08
2.41018e-08
2.41011e-08
2.40999e-08
2.40983e-08
2.40962e-08
2.40935e-08
2.40902e-08
2.40862e-08
2.40813e-08
2.40755e-08
2.40685e-08
2.40601e-08
2.40501e-08
2.40383e-08
2.40243e-08
2.40078e-08
2.39884e-08
2.39656e-08
2.3939e-08
2.39079e-08
2.38719e-08
2.38304e-08
2.37829e-08
2.37287e-08
2.36676e-08
2.35996e-08
2.35254e-08
2.34477e-08
2.3371e-08
9.92375e-08
9.95672e-08
9.99018e-08
1.00221e-07
1.00514e-07
1.00777e-07
1.01011e-07
1.01215e-07
1.01394e-07
1.01549e-07
1.01683e-07
1.01797e-07
1.01896e-07
1.01979e-07
1.0205e-07
1.0211e-07
1.02161e-07
1.02204e-07
1.0224e-07
1.0227e-07
1.02296e-07
1.02317e-07
1.02334e-07
1.02348e-07
1.0236e-07
1.02369e-07
1.02376e-07
1.02381e-07
1.02384e-07
1.02386e-07
1.02386e-07
1.02384e-07
1.02381e-07
1.02376e-07
1.02369e-07
1.0236e-07
1.02348e-07
1.02334e-07
1.02317e-07
1.02296e-07
1.0227e-07
1.0224e-07
1.02204e-07
1.02161e-07
1.0211e-07
1.0205e-07
1.01979e-07
1.01896e-07
1.01797e-07
1.01683e-07
1.01549e-07
1.01394e-07
1.01215e-07
1.01011e-07
1.00777e-07
1.00514e-07
1.00221e-07
9.99018e-08
9.95672e-08
9.92375e-08
4.10908e-07
4.12282e-07
4.13677e-07
4.15009e-07
4.1623e-07
4.17326e-07
4.18297e-07
4.1915e-07
4.19894e-07
4.2054e-07
4.21096e-07
4.21574e-07
4.21983e-07
4.22331e-07
4.22627e-07
4.22878e-07
4.2309e-07
4.23269e-07
4.23419e-07
4.23544e-07
4.23649e-07
4.23737e-07
4.23809e-07
4.23868e-07
4.23916e-07
4.23954e-07
4.23982e-07
4.24003e-07
4.24017e-07
4.24024e-07
4.24024e-07
4.24017e-07
4.24003e-07
4.23982e-07
4.23954e-07
4.23916e-07
4.23868e-07
4.23809e-07
4.23737e-07
4.23649e-07
4.23544e-07
4.23419e-07
4.23269e-07
4.2309e-07
4.22878e-07
4.22627e-07
4.22331e-07
4.21983e-07
4.21574e-07
4.21096e-07
4.2054e-07
4.19894e-07
4.1915e-07
4.18297e-07
4.17326e-07
4.1623e-07
4.15009e-07
4.13677e-07
4.12282e-07
4.10908e-07
1.6442e-06
1.64969e-06
1.65527e-06
1.66059e-06
1.66546e-06
1.66983e-06
1.6737e-06
1.67711e-06
1.68008e-06
1.68265e-06
1.68487e-06
1.68678e-06
1.68841e-06
1.6898e-06
1.69098e-06
1.69198e-06
1.69283e-06
1.69354e-06
1.69414e-06
1.69464e-06
1.69506e-06
1.69541e-06
1.69569e-06
1.69593e-06
1.69612e-06
1.69627e-06
1.69639e-06
1.69647e-06
1.69652e-06
1.69655e-06
1.69655e-06
1.69652e-06
1.69647e-06
1.69639e-06
1.69627e-06
1.69612e-06
1.69593e-06
1.69569e-06
1.69541e-06
1.69506e-06
1.69464e-06
1.69414e-06
1.69354e-06
1.69283e-06
1.69198e-06
1.69098e-06
1.6898e-06
1.68841e-06
1.68678e-06
1.68487e-06
1.68265e-06
1.68008e-06
1.67711e-06
1.6737e-06
1.66983e-06
1.66546e-06
1.66059e-06
1.65527e-06
1.64969e-06
1.6442e-06
6.29384e-06
6.31466e-06
6.33579e-06
6.3559e-06
6.37431e-06
6.39083e-06
6.40547e-06
6.41833e-06
6.42954e-06
6.43927e-06
6.44766e-06
6.45486e-06
6.46102e-06
6.46627e-06
6.47073e-06
6.47451e-06
6.4777e-06
6.48039e-06
6.48265e-06
6.48455e-06
6.48613e-06
6.48745e-06
6.48853e-06
6.48942e-06
6.49014e-06
6.49071e-06
6.49115e-06
6.49147e-06
6.49167e-06
6.49177e-06
6.49177e-06
6.49167e-06
6.49147e-06
6.49115e-06
6.49071e-06
6.49014e-06
6.48942e-06
6.48853e-06
6.48745e-06
6.48613e-06
6.48455e-06
6.48265e-06
6.48039e-06
6.4777e-06
6.47451e-06
6.47073e-06
6.46627e-06
6.46102e-06
6.45486e-06
6.44766e-06
6.43927e-06
6.42954e-06
6.41833e-06
6.40547e-06
6.39083e-06
6.37431e-06
6.3559e-06
6.33579e-06
6.31466e-06
6.29384e-06
2.27901e-05
2.2864e-05
2.29388e-05
2.30099e-05
2.3075e-05
2.31333e-05
2.3185e-05
2.32304e-05
2.327e-05
2.33044e-05
2.3334e-05
2.33594e-05
2.33812e-05
2.33997e-05
2.34154e-05
2.34288e-05
2.34401e-05
2.34496e-05
2.34575e-05
2.34642e-05
2.34698e-05
2.34745e-05
2.34783e-05
2.34815e-05
2.3484e-05
2.3486e-05
2.34875e-05
2.34887e-05
2.34894e-05
2.34898e-05
2.34898e-05
2.34894e-05
2.34887e-05
2.34875e-05
2.3486e-05
2.3484e-05
2.34815e-05
2.34783e-05
2.34745e-05
2.34698e-05
2.34642e-05
2.34575e-05
2.34496e-05
2.34401e-05
2.34288e-05
2.34154e-05
2.33997e-05
2.33812e-05
2.33594e-05
2.3334e-05
2.33044e-05
2.327e-05
2.32304e-05
2.3185e-05
2.31333e-05
2.3075e-05
2.30099e-05
2.29388e-05
2.2864e-05
2.27901e-05
7.70955e-05
7.73377e-05
7.7582e-05
7.78137e-05
7.80254e-05
7.82153e-05
7.83834e-05
7.85311e-05
7.86599e-05
7.87715e-05
7.88678e-05
7.89505e-05
7.90212e-05
7.90815e-05
7.91327e-05
7.91761e-05
7.92127e-05
7.92436e-05
7.92696e-05
7.92914e-05
7.93096e-05
7.93247e-05
7.93372e-05
7.93474e-05
7.93556e-05
7.93622e-05
7.93672e-05
7.93708e-05
7.93732e-05
7.93744e-05
7.93744e-05
7.93732e-05
7.93708e-05
7.93672e-05
7.93622e-05
7.93556e-05
7.93474e-05
7.93372e-05
7.93247e-05
7.93096e-05
7.92914e-05
7.92696e-05
7.92436e-05
7.92127e-05
7.91761e-05
7.91327e-05
7.90815e-05
7.90212e-05
7.89505e-05
7.88678e-05
7.87715e-05
7.86599e-05
7.85311e-05
7.83834e-05
7.82153e-05
7.80254e-05
7.78137e-05
7.7582e-05
7.73377e-05
7.70955e-05
0.000240337
0.000241057
0.00024178
0.000242463
0.000243088
0.000243647
0.000244143
0.000244578
0.000244957
0.000245286
0.00024557
0.000245813
0.000246021
0.000246199
0.00024635
0.000246477
0.000246585
0.000246676
0.000246753
0.000246817
0.00024687
0.000246915
0.000246952
0.000246982
0.000247006
0.000247025
0.00024704
0.000247051
0.000247058
0.000247061
0.000247061
0.000247058
0.000247051
0.00024704
0.000247025
0.000247006
0.000246982
0.000246952
0.000246915
0.00024687
0.000246817
0.000246753
0.000246676
0.000246585
0.000246477
0.00024635
0.000246199
0.000246021
0.000245813
0.00024557
0.000245286
0.000244957
0.000244578
0.000244143
0.000243647
0.000243088
0.000242463
0.00024178
0.000241057
0.000240337
0.000680399
0.000682307
0.000684209
0.000686003
0.00068764
0.000689106
0.000690404
0.000691544
0.000692537
0.000693398
0.000694141
0.000694778
0.000695323
0.000695788
0.000696183
0.000696517
0.0006968
0.000697038
0.000697238
0.000697406
0.000697546
0.000697663
0.000697759
0.000697838
0.000697902
0.000697952
0.000697991
0.000698019
0.000698037
0.000698046
0.000698046
0.000698037
0.000698019
0.000697991
0.000697952
0.000697902
0.000697838
0.000697759
0.000697663
0.000697546
0.000697406
0.000697238
0.000697038
0.0006968
0.000696517
0.000696183
0.000695788
0.000695323
0.000694778
0.000694141
0.000693398
0.000692537
0.000691544
0.000690404
0.000689106
0.00068764
0.000686003
0.000684209
0.000682307
0.000680399
0.00172397
0.00172839
0.00173276
0.00173687
0.00174061
0.00174396
0.00174693
0.00174953
0.0017518
0.00175377
0.00175547
0.00175692
0.00175817
0.00175923
0.00176013
0.00176089
0.00176154
0.00176208
0.00176254
0.00176293
0.00176325
0.00176351
0.00176373
0.00176391
0.00176406
0.00176417
0.00176426
0.00176433
0.00176437
0.00176439
0.00176439
0.00176437
0.00176433
0.00176426
0.00176417
0.00176406
0.00176391
0.00176373
0.00176351
0.00176325
0.00176293
0.00176254
0.00176208
0.00176154
0.00176089
0.00176013
0.00175923
0.00175817
0.00175692
0.00175547
0.00175377
0.0017518
0.00174953
0.00174693
0.00174396
0.00174061
0.00173687
0.00173276
0.00172839
0.00172397
0.00386172
0.00387051
0.00387914
0.00388722
0.00389458
0.00390116
0.00390699
0.00391209
0.00391655
0.00392041
0.00392373
0.00392659
0.00392903
0.00393111
0.00393288
0.00393438
0.00393565
0.00393672
0.00393761
0.00393837
0.003939
0.00393952
0.00393995
0.0039403
0.00394059
0.00394082
0.00394099
0.00394111
0.0039412
0.00394124
0.00394124
0.0039412
0.00394111
0.00394099
0.00394082
0.00394059
0.0039403
0.00393995
0.00393952
0.003939
0.00393837
0.00393761
0.00393672
0.00393565
0.00393438
0.00393288
0.00393111
0.00392903
0.00392659
0.00392373
0.00392041
0.00391655
0.00391209
0.00390699
0.00390116
0.00389458
0.00388722
0.00387914
0.00387051
0.00386172
0.00759735
0.00761232
0.00762686
0.00764043
0.00765276
0.00766379
0.00767354
0.00768209
0.00768954
0.007696
0.00770157
0.00770635
0.00771044
0.00771392
0.00771688
0.00771939
0.00772151
0.0077233
0.0077248
0.00772606
0.00772712
0.00772799
0.00772872
0.00772931
0.00772979
0.00773017
0.00773046
0.00773067
0.00773081
0.00773087
0.00773087
0.00773081
0.00773067
0.00773046
0.00773017
0.00772979
0.00772931
0.00772872
0.00772799
0.00772712
0.00772606
0.0077248
0.0077233
0.00772151
0.00771939
0.00771688
0.00771392
0.00771044
0.00770635
0.00770157
0.007696
0.00768954
0.00768209
0.00767354
0.00766379
0.00765276
0.00764043
0.00762686
0.00761232
0.00759735
0.0131608
0.0131827
0.0132038
0.0132234
0.0132412
0.0132571
0.0132711
0.0132834
0.0132941
0.0133034
0.0133115
0.0133184
0.0133242
0.0133293
0.0133335
0.0133371
0.0133402
0.0133428
0.0133449
0.0133468
0.0133483
0.0133495
0.0133506
0.0133514
0.0133521
0.0133527
0.0133531
0.0133534
0.0133536
0.0133537
0.0133537
0.0133536
0.0133534
0.0133531
0.0133527
0.0133521
0.0133514
0.0133506
0.0133495
0.0133483
0.0133468
0.0133449
0.0133428
0.0133402
0.0133371
0.0133335
0.0133293
0.0133242
0.0133184
0.0133115
0.0133034
0.0132941
0.0132834
0.0132711
0.0132571
0.0132412
0.0132234
0.0132038
0.0131827
0.0131608
0.0203301
0.0203586
0.0203856
0.0204106
0.0204332
0.0204534
0.0204712
0.0204869
0.0205005
0.0205123
0.0205225
0.0205313
0.0205388
0.0205452
0.0205506
0.0205552
0.0205591
0.0205624
0.0205651
0.0205674
0.0205694
0.020571
0.0205723
0.0205734
0.0205743
0.020575
0.0205755
0.0205759
0.0205762
0.0205763
0.0205763
0.0205762
0.0205759
0.0205755
0.020575
0.0205743
0.0205734
0.0205723
0.020571
0.0205694
0.0205674
0.0205651
0.0205624
0.0205591
0.0205552
0.0205506
0.0205452
0.0205388
0.0205313
0.0205225
0.0205123
0.0205005
0.0204869
0.0204712
0.0204534
0.0204332
0.0204106
0.0203856
0.0203586
0.0203301
0.028574
0.0286077
0.0286393
0.0286684
0.0286948
0.0287183
0.0287391
0.0287573
0.0287732
0.0287869
0.0287988
0.028809
0.0288177
0.0288252
0.0288315
0.0288369
0.0288414
0.0288452
0.0288485
0.0288512
0.0288534
0.0288553
0.0288569
0.0288581
0.0288592
0.02886
0.0288606
0.0288611
0.0288614