/*--------------------------------*- C++ -*----------------------------------*\
| =========                 |                                                 |
| \\      /  F ield         | foam-extend: Open Source CFD                    |
|  \\    /   O peration     | Version:     4.0                                |
|   \\  /    A nd           | Web:         http://www.foam-extend.org         |
|    \\/     M anipulation  |                                                 |
\*---------------------------------------------------------------------------*/
FoamFile
{
    version     2.0;
    format      ascii;
    class       volScalarField;
    location    "1540";
    object      cPlus;
}
// * * * * * * * * * * * * * * * * * * * * * * * * * * * * * * * * * * * * * //

dimensions      [0 0 0 0 0 0 0];

internalField   nonuniform List<scalar> 
6960
(
0.316173
0.316157
0.316138
0.31612
0.316103
0.316088
0.316075
0.316063
0.316053
0.316044
0.316036
0.316029
0.316024
0.316019
0.316015
0.316011
0.316008
0.316006
0.316004
0.316002
0.316001
0.316
0.315999
0.315998
0.315997
0.315997
0.315996
0.315996
0.315996
0.315996
0.315996
0.315996
0.315996
0.315996
0.315997
0.315997
0.315998
0.315999
0.316
0.316001
0.316002
0.316004
0.316006
0.316008
0.316011
0.316015
0.316019
0.316024
0.316029
0.316036
0.316044
0.316053
0.316063
0.316075
0.316088
0.316103
0.31612
0.316138
0.316157
0.316173
0.100535
0.100525
0.100512
0.100499
0.100488
0.100477
0.100468
0.10046
0.100453
0.100447
0.100442
0.100437
0.100433
0.10043
0.100427
0.100425
0.100423
0.100421
0.10042
0.100418
0.100417
0.100417
0.100416
0.100415
0.100415
0.100415
0.100414
0.100414
0.100414
0.100414
0.100414
0.100414
0.100414
0.100414
0.100415
0.100415
0.100415
0.100416
0.100417
0.100417
0.100418
0.10042
0.100421
0.100423
0.100425
0.100427
0.10043
0.100433
0.100437
0.100442
0.100447
0.100453
0.10046
0.100468
0.100477
0.100488
0.100499
0.100512
0.100525
0.100535
0.0383358
0.0383305
0.0383238
0.0383172
0.038311
0.0383055
0.0383006
0.0382963
0.0382926
0.0382893
0.0382865
0.0382841
0.0382821
0.0382803
0.0382788
0.0382776
0.0382765
0.0382756
0.0382748
0.0382742
0.0382737
0.0382732
0.0382729
0.0382726
0.0382723
0.0382722
0.038272
0.0382719
0.0382718
0.0382718
0.0382718
0.0382718
0.0382719
0.038272
0.0382722
0.0382723
0.0382726
0.0382729
0.0382732
0.0382737
0.0382742
0.0382748
0.0382756
0.0382765
0.0382776
0.0382788
0.0382803
0.0382821
0.0382841
0.0382865
0.0382893
0.0382926
0.0382963
0.0383006
0.0383055
0.038311
0.0383172
0.0383238
0.0383305
0.0383358
0.0173916
0.0173898
0.0173871
0.0173845
0.0173819
0.0173797
0.0173777
0.0173759
0.0173744
0.017373
0.0173719
0.0173709
0.0173701
0.0173693
0.0173687
0.0173682
0.0173678
0.0173674
0.0173671
0.0173668
0.0173666
0.0173664
0.0173663
0.0173661
0.017366
0.017366
0.0173659
0.0173659
0.0173658
0.0173658
0.0173658
0.0173658
0.0173659
0.0173659
0.017366
0.017366
0.0173661
0.0173663
0.0173664
0.0173666
0.0173668
0.0173671
0.0173674
0.0173678
0.0173682
0.0173687
0.0173693
0.0173701
0.0173709
0.0173719
0.017373
0.0173744
0.0173759
0.0173777
0.0173797
0.0173819
0.0173845
0.0173871
0.0173898
0.0173916
0.0100804
0.0100804
0.01008
0.0100796
0.0100791
0.0100786
0.0100782
0.0100779
0.0100776
0.0100773
0.0100771
0.0100769
0.0100767
0.0100765
0.0100764
0.0100763
0.0100762
0.0100761
0.0100761
0.010076
0.010076
0.0100759
0.0100759
0.0100759
0.0100758
0.0100758
0.0100758
0.0100758
0.0100758
0.0100758
0.0100758
0.0100758
0.0100758
0.0100758
0.0100758
0.0100758
0.0100759
0.0100759
0.0100759
0.010076
0.010076
0.0100761
0.0100761
0.0100762
0.0100763
0.0100764
0.0100765
0.0100767
0.0100769
0.0100771
0.0100773
0.0100776
0.0100779
0.0100782
0.0100786
0.0100791
0.0100796
0.01008
0.0100804
0.0100804
0.00755729
0.00755829
0.00755901
0.00755961
0.00756013
0.00756059
0.00756099
0.00756133
0.00756163
0.00756189
0.00756211
0.0075623
0.00756246
0.00756259
0.0075627
0.0075628
0.00756288
0.00756295
0.007563
0.00756305
0.00756309
0.00756312
0.00756315
0.00756317
0.00756319
0.0075632
0.00756321
0.00756322
0.00756322
0.00756322
0.00756322
0.00756322
0.00756322
0.00756321
0.0075632
0.00756319
0.00756317
0.00756315
0.00756312
0.00756309
0.00756305
0.007563
0.00756295
0.00756288
0.0075628
0.0075627
0.00756259
0.00756246
0.0075623
0.00756211
0.00756189
0.00756163
0.00756133
0.00756099
0.00756059
0.00756013
0.00755961
0.00755901
0.00755829
0.00755729
0.00672678
0.00672822
0.00672945
0.00673055
0.00673153
0.0067324
0.00673316
0.00673383
0.00673441
0.00673491
0.00673533
0.0067357
0.00673601
0.00673628
0.0067365
0.00673669
0.00673685
0.00673698
0.00673709
0.00673719
0.00673727
0.00673733
0.00673738
0.00673743
0.00673746
0.00673749
0.00673751
0.00673753
0.00673754
0.00673754
0.00673754
0.00673754
0.00673753
0.00673751
0.00673749
0.00673746
0.00673743
0.00673738
0.00673733
0.00673727
0.00673719
0.00673709
0.00673698
0.00673685
0.00673669
0.0067365
0.00673628
0.00673601
0.0067357
0.00673533
0.00673491
0.00673441
0.00673383
0.00673316
0.0067324
0.00673153
0.00673055
0.00672945
0.00672822
0.00672678
0.00648684
0.00648848
0.00648993
0.00649125
0.00649244
0.00649349
0.00649441
0.00649522
0.00649592
0.00649653
0.00649705
0.00649749
0.00649787
0.00649819
0.00649846
0.00649869
0.00649889
0.00649905
0.00649919
0.0064993
0.0064994
0.00649948
0.00649954
0.00649959
0.00649964
0.00649967
0.0064997
0.00649972
0.00649973
0.00649973
0.00649973
0.00649973
0.00649972
0.0064997
0.00649967
0.00649964
0.00649959
0.00649954
0.00649948
0.0064994
0.0064993
0.00649919
0.00649905
0.00649889
0.00649869
0.00649846
0.00649819
0.00649787
0.00649749
0.00649705
0.00649653
0.00649592
0.00649522
0.00649441
0.00649349
0.00649244
0.00649125
0.00648993
0.00648848
0.00648684
0.00644979
0.00645152
0.00645308
0.0064545
0.00645577
0.00645691
0.0064579
0.00645878
0.00645953
0.00646019
0.00646075
0.00646123
0.00646164
0.00646199
0.00646228
0.00646253
0.00646274
0.00646292
0.00646306
0.00646319
0.00646329
0.00646338
0.00646345
0.0064635
0.00646355
0.00646359
0.00646362
0.00646364
0.00646365
0.00646366
0.00646366
0.00646365
0.00646364
0.00646362
0.00646359
0.00646355
0.0064635
0.00646345
0.00646338
0.00646329
0.00646319
0.00646306
0.00646292
0.00646274
0.00646253
0.00646228
0.00646199
0.00646164
0.00646123
0.00646075
0.00646019
0.00645953
0.00645878
0.0064579
0.00645691
0.00645577
0.0064545
0.00645308
0.00645152
0.00644979
0.00648244
0.00648423
0.00648584
0.00648731
0.00648863
0.00648981
0.00649085
0.00649175
0.00649254
0.00649321
0.0064938
0.0064943
0.00649472
0.00649508
0.00649539
0.00649565
0.00649587
0.00649605
0.0064962
0.00649633
0.00649644
0.00649653
0.0064966
0.00649666
0.00649671
0.00649675
0.00649678
0.0064968
0.00649681
0.00649682
0.00649682
0.00649681
0.0064968
0.00649678
0.00649675
0.00649671
0.00649666
0.0064966
0.00649653
0.00649644
0.00649633
0.0064962
0.00649605
0.00649587
0.00649565
0.00649539
0.00649508
0.00649472
0.0064943
0.0064938
0.00649321
0.00649254
0.00649175
0.00649085
0.00648981
0.00648863
0.00648731
0.00648584
0.00648423
0.00648244
0.00654042
0.00654225
0.0065439
0.0065454
0.00654676
0.00654796
0.00654902
0.00654995
0.00655076
0.00655145
0.00655205
0.00655256
0.006553
0.00655337
0.00655368
0.00655395
0.00655417
0.00655436
0.00655452
0.00655465
0.00655476
0.00655485
0.00655493
0.00655499
0.00655504
0.00655508
0.00655511
0.00655513
0.00655514
0.00655515
0.00655515
0.00655514
0.00655513
0.00655511
0.00655508
0.00655504
0.00655499
0.00655493
0.00655485
0.00655476
0.00655465
0.00655452
0.00655436
0.00655417
0.00655395
0.00655368
0.00655337
0.006553
0.00655256
0.00655205
0.00655145
0.00655076
0.00654995
0.00654902
0.00654796
0.00654676
0.0065454
0.0065439
0.00654225
0.00654042
0.00660955
0.00661141
0.0066131
0.00661463
0.00661601
0.00661724
0.00661832
0.00661927
0.00662009
0.0066208
0.00662141
0.00662194
0.00662238
0.00662276
0.00662308
0.00662335
0.00662358
0.00662377
0.00662393
0.00662407
0.00662418
0.00662428
0.00662435
0.00662442
0.00662447
0.00662451
0.00662454
0.00662456
0.00662457
0.00662458
0.00662458
0.00662457
0.00662456
0.00662454
0.00662451
0.00662447
0.00662442
0.00662435
0.00662428
0.00662418
0.00662407
0.00662393
0.00662377
0.00662358
0.00662335
0.00662308
0.00662276
0.00662238
0.00662194
0.00662141
0.0066208
0.00662009
0.00661927
0.00661832
0.00661724
0.00661601
0.00661463
0.0066131
0.00661141
0.00660955
0.00668565
0.00668755
0.00668927
0.00669083
0.00669224
0.00669349
0.0066946
0.00669556
0.0066964
0.00669713
0.00669775
0.00669828
0.00669874
0.00669912
0.00669945
0.00669973
0.00669996
0.00670016
0.00670032
0.00670046
0.00670057
0.00670067
0.00670075
0.00670081
0.00670087
0.00670091
0.00670094
0.00670096
0.00670098
0.00670098
0.00670098
0.00670098
0.00670096
0.00670094
0.00670091
0.00670087
0.00670081
0.00670075
0.00670067
0.00670057
0.00670046
0.00670032
0.00670016
0.00669996
0.00669973
0.00669945
0.00669912
0.00669874
0.00669828
0.00669775
0.00669713
0.0066964
0.00669556
0.0066946
0.00669349
0.00669224
0.00669083
0.00668927
0.00668755
0.00668565
0.00676778
0.00676972
0.00677148
0.00677308
0.00677451
0.00677579
0.00677692
0.0067779
0.00677876
0.0067795
0.00678014
0.00678068
0.00678114
0.00678154
0.00678187
0.00678216
0.0067824
0.0067826
0.00678276
0.00678291
0.00678302
0.00678312
0.0067832
0.00678327
0.00678332
0.00678336
0.00678339
0.00678342
0.00678343
0.00678344
0.00678344
0.00678343
0.00678342
0.00678339
0.00678336
0.00678332
0.00678327
0.0067832
0.00678312
0.00678302
0.00678291
0.00678276
0.0067826
0.0067824
0.00678216
0.00678187
0.00678154
0.00678114
0.00678068
0.00678014
0.0067795
0.00677876
0.0067779
0.00677692
0.00677579
0.00677451
0.00677308
0.00677148
0.00676972
0.00676778
0.00685608
0.00685807
0.00685986
0.00686149
0.00686296
0.00686427
0.00686542
0.00686643
0.0068673
0.00686806
0.00686871
0.00686926
0.00686974
0.00687014
0.00687048
0.00687077
0.00687102
0.00687122
0.0068714
0.00687154
0.00687166
0.00687176
0.00687184
0.00687191
0.00687196
0.00687201
0.00687204
0.00687206
0.00687208
0.00687209
0.00687209
0.00687208
0.00687206
0.00687204
0.00687201
0.00687196
0.00687191
0.00687184
0.00687176
0.00687166
0.00687154
0.0068714
0.00687122
0.00687102
0.00687077
0.00687048
0.00687014
0.00686974
0.00686926
0.00686871
0.00686806
0.0068673
0.00686643
0.00686542
0.00686427
0.00686296
0.00686149
0.00685986
0.00685807
0.00685608
0.00695105
0.00695309
0.00695492
0.00695659
0.00695809
0.00695943
0.00696061
0.00696164
0.00696253
0.00696331
0.00696397
0.00696454
0.00696503
0.00696544
0.00696579
0.00696609
0.00696634
0.00696655
0.00696672
0.00696687
0.006967
0.0069671
0.00696718
0.00696725
0.00696731
0.00696735
0.00696738
0.00696741
0.00696743
0.00696743
0.00696743
0.00696743
0.00696741
0.00696738
0.00696735
0.00696731
0.00696725
0.00696718
0.0069671
0.006967
0.00696687
0.00696672
0.00696655
0.00696634
0.00696609
0.00696579
0.00696544
0.00696503
0.00696454
0.00696397
0.00696331
0.00696253
0.00696164
0.00696061
0.00695943
0.00695809
0.00695659
0.00695492
0.00695309
0.00695105
0.00705337
0.00705546
0.00705734
0.00705905
0.00706059
0.00706196
0.00706317
0.00706422
0.00706514
0.00706593
0.00706661
0.0070672
0.0070677
0.00706812
0.00706848
0.00706878
0.00706904
0.00706926
0.00706944
0.00706959
0.00706972
0.00706982
0.00706991
0.00706998
0.00707004
0.00707008
0.00707012
0.00707014
0.00707016
0.00707017
0.00707017
0.00707016
0.00707014
0.00707012
0.00707008
0.00707004
0.00706998
0.00706991
0.00706982
0.00706972
0.00706959
0.00706944
0.00706926
0.00706904
0.00706878
0.00706848
0.00706812
0.0070677
0.0070672
0.00706661
0.00706593
0.00706514
0.00706422
0.00706317
0.00706196
0.00706059
0.00705905
0.00705734
0.00705546
0.00705337
0.00716387
0.00716601
0.00716794
0.0071697
0.00717128
0.00717269
0.00717392
0.00717501
0.00717595
0.00717676
0.00717746
0.00717806
0.00717858
0.00717901
0.00717938
0.00717969
0.00717996
0.00718018
0.00718036
0.00718052
0.00718065
0.00718076
0.00718085
0.00718092
0.00718098
0.00718103
0.00718106
0.00718109
0.0071811
0.00718111
0.00718111
0.0071811
0.00718109
0.00718106
0.00718103
0.00718098
0.00718092
0.00718085
0.00718076
0.00718065
0.00718052
0.00718036
0.00718018
0.00717996
0.00717969
0.00717938
0.00717901
0.00717858
0.00717806
0.00717746
0.00717676
0.00717595
0.00717501
0.00717392
0.00717269
0.00717128
0.0071697
0.00716794
0.00716601
0.00716387
0.0072835
0.00728571
0.0072877
0.0072895
0.00729113
0.00729257
0.00729385
0.00729496
0.00729593
0.00729677
0.00729749
0.00729811
0.00729863
0.00729908
0.00729946
0.00729978
0.00730005
0.00730028
0.00730047
0.00730063
0.00730077
0.00730088
0.00730097
0.00730105
0.00730111
0.00730115
0.00730119
0.00730122
0.00730123
0.00730124
0.00730124
0.00730123
0.00730122
0.00730119
0.00730115
0.00730111
0.00730105
0.00730097
0.00730088
0.00730077
0.00730063
0.00730047
0.00730028
0.00730005
0.00729978
0.00729946
0.00729908
0.00729863
0.00729811
0.00729749
0.00729677
0.00729593
0.00729496
0.00729385
0.00729257
0.00729113
0.0072895
0.0072877
0.00728571
0.0072835
0.00741341
0.00741569
0.00741773
0.0074196
0.00742127
0.00742276
0.00742407
0.00742522
0.00742622
0.00742708
0.00742783
0.00742846
0.007429
0.00742947
0.00742986
0.00743019
0.00743047
0.00743071
0.0074309
0.00743107
0.00743121
0.00743132
0.00743142
0.00743149
0.00743156
0.00743161
0.00743164
0.00743167
0.00743169
0.0074317
0.0074317
0.00743169
0.00743167
0.00743164
0.00743161
0.00743156
0.00743149
0.00743142
0.00743132
0.00743121
0.00743107
0.0074309
0.00743071
0.00743047
0.00743019
0.00742986
0.00742947
0.007429
0.00742846
0.00742783
0.00742708
0.00742622
0.00742522
0.00742407
0.00742276
0.00742127
0.0074196
0.00741773
0.00741569
0.00741341
0.00755492
0.00755728
0.00755939
0.00756132
0.00756304
0.00756458
0.00756594
0.00756713
0.00756816
0.00756905
0.00756982
0.00757047
0.00757104
0.00757151
0.00757192
0.00757226
0.00757255
0.00757279
0.007573
0.00757317
0.00757331
0.00757343
0.00757353
0.00757361
0.00757368
0.00757373
0.00757377
0.00757379
0.00757381
0.00757382
0.00757382
0.00757381
0.00757379
0.00757377
0.00757373
0.00757368
0.00757361
0.00757353
0.00757343
0.00757331
0.00757317
0.007573
0.00757279
0.00757255
0.00757226
0.00757192
0.00757151
0.00757104
0.00757047
0.00756982
0.00756905
0.00756816
0.00756713
0.00756594
0.00756458
0.00756304
0.00756132
0.00755939
0.00755728
0.00755492
0.00770963
0.00771207
0.00771426
0.00771625
0.00771804
0.00771964
0.00772104
0.00772227
0.00772334
0.00772426
0.00772506
0.00772574
0.00772632
0.00772682
0.00772724
0.00772759
0.00772789
0.00772814
0.00772836
0.00772853
0.00772868
0.00772881
0.00772891
0.00772899
0.00772906
0.00772911
0.00772915
0.00772918
0.0077292
0.00772921
0.00772921
0.0077292
0.00772918
0.00772915
0.00772911
0.00772906
0.00772899
0.00772891
0.00772881
0.00772868
0.00772853
0.00772836
0.00772814
0.00772789
0.00772759
0.00772724
0.00772682
0.00772632
0.00772574
0.00772506
0.00772426
0.00772334
0.00772227
0.00772104
0.00771964
0.00771804
0.00771625
0.00771426
0.00771207
0.00770963
0.00787943
0.00788197
0.00788425
0.00788631
0.00788817
0.00788983
0.00789129
0.00789257
0.00789368
0.00789464
0.00789546
0.00789617
0.00789678
0.00789729
0.00789773
0.0078981
0.00789841
0.00789867
0.00789889
0.00789908
0.00789923
0.00789936
0.00789946
0.00789955
0.00789962
0.00789968
0.00789972
0.00789975
0.00789977
0.00789978
0.00789978
0.00789977
0.00789975
0.00789972
0.00789968
0.00789962
0.00789955
0.00789946
0.00789936
0.00789923
0.00789908
0.00789889
0.00789867
0.00789841
0.0078981
0.00789773
0.00789729
0.00789678
0.00789617
0.00789546
0.00789464
0.00789368
0.00789257
0.00789129
0.00788983
0.00788817
0.00788631
0.00788425
0.00788197
0.00787943
0.00806663
0.00806928
0.00807165
0.0080738
0.00807574
0.00807747
0.00807899
0.00808032
0.00808148
0.00808248
0.00808334
0.00808408
0.00808471
0.00808525
0.0080857
0.00808609
0.00808641
0.00808669
0.00808692
0.00808711
0.00808727
0.0080874
0.00808751
0.0080876
0.00808768
0.00808774
0.00808778
0.00808781
0.00808783
0.00808784
0.00808784
0.00808783
0.00808781
0.00808778
0.00808774
0.00808768
0.0080876
0.00808751
0.0080874
0.00808727
0.00808711
0.00808692
0.00808669
0.00808641
0.00808609
0.0080857
0.00808525
0.00808471
0.00808408
0.00808334
0.00808248
0.00808148
0.00808032
0.00807899
0.00807747
0.00807574
0.0080738
0.00807165
0.00806928
0.00806663
0.00827403
0.00827681
0.00827929
0.00828154
0.00828357
0.00828537
0.00828697
0.00828836
0.00828957
0.00829062
0.00829152
0.00829229
0.00829295
0.00829351
0.00829399
0.00829439
0.00829474
0.00829502
0.00829526
0.00829547
0.00829563
0.00829577
0.00829589
0.00829598
0.00829606
0.00829612
0.00829617
0.0082962
0.00829622
0.00829623
0.00829623
0.00829622
0.0082962
0.00829617
0.00829612
0.00829606
0.00829598
0.00829589
0.00829577
0.00829563
0.00829547
0.00829526
0.00829502
0.00829474
0.00829439
0.00829399
0.00829351
0.00829295
0.00829229
0.00829152
0.00829062
0.00828957
0.00828836
0.00828697
0.00828537
0.00828357
0.00828154
0.00827929
0.00827681
0.00827403
0.00850511
0.00850803
0.00851063
0.008513
0.00851513
0.00851703
0.0085187
0.00852017
0.00852144
0.00852254
0.00852349
0.0085243
0.008525
0.00852559
0.00852609
0.00852651
0.00852687
0.00852717
0.00852743
0.00852764
0.00852782
0.00852797
0.00852809
0.00852819
0.00852827
0.00852833
0.00852838
0.00852842
0.00852844
0.00852845
0.00852845
0.00852844
0.00852842
0.00852838
0.00852833
0.00852827
0.00852819
0.00852809
0.00852797
0.00852782
0.00852764
0.00852743
0.00852717
0.00852687
0.00852651
0.00852609
0.00852559
0.008525
0.0085243
0.00852349
0.00852254
0.00852144
0.00852017
0.0085187
0.00851703
0.00851513
0.008513
0.00851063
0.00850803
0.00850511
0.00876421
0.00876729
0.00877005
0.00877255
0.0087748
0.0087768
0.00877857
0.00878012
0.00878146
0.00878263
0.00878363
0.00878449
0.00878522
0.00878585
0.00878638
0.00878682
0.0087872
0.00878752
0.00878779
0.00878802
0.0087882
0.00878836
0.00878849
0.00878859
0.00878868
0.00878875
0.0087888
0.00878884
0.00878886
0.00878887
0.00878887
0.00878886
0.00878884
0.0087888
0.00878875
0.00878868
0.00878859
0.00878849
0.00878836
0.0087882
0.00878802
0.00878779
0.00878752
0.0087872
0.00878682
0.00878638
0.00878585
0.00878522
0.00878449
0.00878363
0.00878263
0.00878146
0.00878012
0.00877857
0.0087768
0.0087748
0.00877255
0.00877005
0.00876729
0.00876421
0.00905685
0.00906013
0.00906305
0.00906571
0.0090681
0.00907023
0.00907211
0.00907375
0.00907518
0.00907642
0.00907748
0.0090784
0.00907918
0.00907984
0.00908041
0.00908088
0.00908129
0.00908163
0.00908191
0.00908215
0.00908235
0.00908252
0.00908265
0.00908277
0.00908286
0.00908293
0.00908298
0.00908302
0.00908305
0.00908306
0.00908306
0.00908305
0.00908302
0.00908298
0.00908293
0.00908286
0.00908277
0.00908265
0.00908252
0.00908235
0.00908215
0.00908191
0.00908163
0.00908129
0.00908088
0.00908041
0.00907984
0.00907918
0.0090784
0.00907748
0.00907642
0.00907518
0.00907375
0.00907211
0.00907023
0.0090681
0.00906571
0.00906305
0.00906013
0.00905685
0.00939014
0.00939365
0.00939678
0.00939962
0.00940218
0.00940446
0.00940647
0.00940823
0.00940976
0.00941108
0.00941222
0.0094132
0.00941404
0.00941475
0.00941535
0.00941587
0.0094163
0.00941666
0.00941697
0.00941722
0.00941744
0.00941762
0.00941776
0.00941788
0.00941798
0.00941806
0.00941812
0.00941816
0.00941819
0.0094182
0.0094182
0.00941819
0.00941816
0.00941812
0.00941806
0.00941798
0.00941788
0.00941776
0.00941762
0.00941744
0.00941722
0.00941697
0.00941666
0.0094163
0.00941587
0.00941535
0.00941475
0.00941404
0.0094132
0.00941222
0.00941108
0.00940976
0.00940823
0.00940647
0.00940446
0.00940218
0.00939962
0.00939678
0.00939365
0.00939014
0.00977344
0.00977722
0.0097806
0.00978367
0.00978643
0.00978889
0.00979106
0.00979295
0.00979461
0.00979604
0.00979727
0.00979832
0.00979923
0.00979999
0.00980065
0.0098012
0.00980167
0.00980206
0.00980239
0.00980267
0.0098029
0.00980309
0.00980325
0.00980338
0.00980348
0.00980357
0.00980363
0.00980368
0.00980371
0.00980372
0.00980372
0.00980371
0.00980368
0.00980363
0.00980357
0.00980348
0.00980338
0.00980325
0.00980309
0.0098029
0.00980267
0.00980239
0.00980206
0.00980167
0.0098012
0.00980065
0.00979999
0.00979923
0.00979832
0.00979727
0.00979604
0.00979461
0.00979295
0.00979106
0.00978889
0.00978643
0.00978367
0.0097806
0.00977722
0.00977344
0.0102193
0.0102234
0.0102271
0.0102304
0.0102334
0.0102361
0.0102385
0.0102405
0.0102423
0.0102439
0.0102452
0.0102464
0.0102474
0.0102482
0.0102489
0.0102495
0.01025
0.0102505
0.0102508
0.0102511
0.0102514
0.0102516
0.0102518
0.0102519
0.010252
0.0102521
0.0102522
0.0102522
0.0102523
0.0102523
0.0102523
0.0102523
0.0102522
0.0102522
0.0102521
0.010252
0.0102519
0.0102518
0.0102516
0.0102514
0.0102511
0.0102508
0.0102505
0.01025
0.0102495
0.0102489
0.0102482
0.0102474
0.0102464
0.0102452
0.0102439
0.0102423
0.0102405
0.0102385
0.0102361
0.0102334
0.0102304
0.0102271
0.0102234
0.0102193
0.0107449
0.0107494
0.0107535
0.0107572
0.0107605
0.0107634
0.010766
0.0107683
0.0107703
0.010772
0.0107735
0.0107748
0.0107759
0.0107768
0.0107776
0.0107783
0.0107788
0.0107793
0.0107797
0.01078
0.0107803
0.0107805
0.0107807
0.0107809
0.010781
0.0107811
0.0107812
0.0107813
0.0107813
0.0107813
0.0107813
0.0107813
0.0107813
0.0107812
0.0107811
0.010781
0.0107809
0.0107807
0.0107805
0.0107803
0.01078
0.0107797
0.0107793
0.0107788
0.0107783
0.0107776
0.0107768
0.0107759
0.0107748
0.0107735
0.010772
0.0107703
0.0107683
0.010766
0.0107634
0.0107605
0.0107572
0.0107535
0.0107494
0.0107449
0.0113745
0.0113795
0.0113841
0.0113882
0.0113919
0.0113952
0.0113982
0.0114007
0.011403
0.0114049
0.0114065
0.011408
0.0114092
0.0114102
0.0114111
0.0114119
0.0114125
0.011413
0.0114135
0.0114138
0.0114142
0.0114144
0.0114146
0.0114148
0.011415
0.0114151
0.0114152
0.0114152
0.0114153
0.0114153
0.0114153
0.0114153
0.0114152
0.0114152
0.0114151
0.011415
0.0114148
0.0114146
0.0114144
0.0114142
0.0114138
0.0114135
0.011413
0.0114125
0.0114119
0.0114111
0.0114102
0.0114092
0.011408
0.0114065
0.0114049
0.011403
0.0114007
0.0113982
0.0113952
0.0113919
0.0113882
0.0113841
0.0113795
0.0113745
0.012143
0.0121488
0.012154
0.0121587
0.0121629
0.0121667
0.01217
0.012173
0.0121755
0.0121777
0.0121796
0.0121812
0.0121826
0.0121838
0.0121848
0.0121857
0.0121864
0.012187
0.0121875
0.012188
0.0121883
0.0121886
0.0121889
0.0121891
0.0121892
0.0121894
0.0121894
0.0121895
0.0121896
0.0121896
0.0121896
0.0121896
0.0121895
0.0121894
0.0121894
0.0121892
0.0121891
0.0121889
0.0121886
0.0121883
0.012188
0.0121875
0.012187
0.0121864
0.0121857
0.0121848
0.0121838
0.0121826
0.0121812
0.0121796
0.0121777
0.0121755
0.012173
0.01217
0.0121667
0.0121629
0.0121587
0.012154
0.0121488
0.012143
0.013102
0.0131087
0.0131147
0.0131202
0.0131252
0.0131296
0.0131335
0.0131369
0.0131399
0.0131424
0.0131447
0.0131466
0.0131482
0.0131496
0.0131508
0.0131518
0.0131526
0.0131533
0.0131539
0.0131544
0.0131548
0.0131552
0.0131555
0.0131557
0.0131559
0.013156
0.0131562
0.0131562
0.0131563
0.0131563
0.0131563
0.0131563
0.0131562
0.0131562
0.013156
0.0131559
0.0131557
0.0131555
0.0131552
0.0131548
0.0131544
0.0131539
0.0131533
0.0131526
0.0131518
0.0131508
0.0131496
0.0131482
0.0131466
0.0131447
0.0131424
0.0131399
0.0131369
0.0131335
0.0131296
0.0131252
0.0131202
0.0131147
0.0131087
0.013102
0.0143274
0.0143354
0.0143426
0.0143492
0.0143551
0.0143604
0.0143651
0.0143692
0.0143727
0.0143758
0.0143785
0.0143808
0.0143827
0.0143844
0.0143858
0.014387
0.014388
0.0143889
0.0143896
0.0143902
0.0143907
0.0143911
0.0143915
0.0143917
0.014392
0.0143922
0.0143923
0.0143924
0.0143925
0.0143925
0.0143925
0.0143925
0.0143924
0.0143923
0.0143922
0.014392
0.0143917
0.0143915
0.0143911
0.0143907
0.0143902
0.0143896
0.0143889
0.014388
0.014387
0.0143858
0.0143844
0.0143827
0.0143808
0.0143785
0.0143758
0.0143727
0.0143692
0.0143651
0.0143604
0.0143551
0.0143492
0.0143426
0.0143354
0.0143274
0.0159294
0.0159392
0.015948
0.0159561
0.0159634
0.01597
0.0159757
0.0159808
0.0159851
0.015989
0.0159922
0.015995
0.0159975
0.0159995
0.0160013
0.0160027
0.016004
0.016005
0.0160059
0.0160067
0.0160073
0.0160078
0.0160082
0.0160086
0.0160089
0.0160091
0.0160092
0.0160094
0.0160095
0.0160095
0.0160095
0.0160095
0.0160094
0.0160092
0.0160091
0.0160089
0.0160086
0.0160082
0.0160078
0.0160073
0.0160067
0.0160059
0.016005
0.016004
0.0160027
0.0160013
0.0159995
0.0159975
0.015995
0.0159922
0.015989
0.0159851
0.0159808
0.0159757
0.01597
0.0159634
0.0159561
0.015948
0.0159392
0.0159294
0.0180583
0.0180705
0.0180816
0.0180918
0.018101
0.0181092
0.0181165
0.0181228
0.0181283
0.0181331
0.0181373
0.0181408
0.0181439
0.0181464
0.0181486
0.0181505
0.0181521
0.0181534
0.0181545
0.0181555
0.0181562
0.0181569
0.0181574
0.0181579
0.0181582
0.0181585
0.0181587
0.0181589
0.018159
0.018159
0.018159
0.018159
0.0181589
0.0181587
0.0181585
0.0181582
0.0181579
0.0181574
0.0181569
0.0181562
0.0181555
0.0181545
0.0181534
0.0181521
0.0181505
0.0181486
0.0181464
0.0181439
0.0181408
0.0181373
0.0181331
0.0181283
0.0181228
0.0181165
0.0181092
0.018101
0.0180918
0.0180816
0.0180705
0.0180583
0.0208971
0.0209125
0.0209267
0.0209396
0.0209514
0.0209618
0.020971
0.0209791
0.0209862
0.0209923
0.0209975
0.0210021
0.0210059
0.0210092
0.021012
0.0210144
0.0210164
0.0210181
0.0210195
0.0210207
0.0210217
0.0210225
0.0210232
0.0210238
0.0210242
0.0210246
0.0210249
0.0210251
0.0210252
0.0210253
0.0210253
0.0210252
0.0210251
0.0210249
0.0210246
0.0210242
0.0210238
0.0210232
0.0210225
0.0210217
0.0210207
0.0210195
0.0210181
0.0210164
0.0210144
0.021012
0.0210092
0.0210059
0.0210021
0.0209975
0.0209923
0.0209862
0.0209791
0.020971
0.0209618
0.0209514
0.0209396
0.0209267
0.0209125
0.0208971
0.0246301
0.0246496
0.0246675
0.024684
0.0246988
0.024712
0.0247237
0.024734
0.0247429
0.0247507
0.0247573
0.0247631
0.024768
0.0247722
0.0247757
0.0247787
0.0247813
0.0247834
0.0247852
0.0247868
0.024788
0.0247891
0.0247899
0.0247907
0.0247912
0.0247917
0.024792
0.0247923
0.0247925
0.0247926
0.0247926
0.0247925
0.0247923
0.024792
0.0247917
0.0247912
0.0247907
0.0247899
0.0247891
0.024788
0.0247868
0.0247852
0.0247834
0.0247813
0.0247787
0.0247757
0.0247722
0.024768
0.0247631
0.0247573
0.0247507
0.0247429
0.024734
0.0247237
0.024712
0.0246988
0.024684
0.0246675
0.0246496
0.0246301
0.0293883
0.0294126
0.0294348
0.0294552
0.0294737
0.0294901
0.0295046
0.0295173
0.0295284
0.0295381
0.0295463
0.0295535
0.0295596
0.0295648
0.0295692
0.0295729
0.0295761
0.0295788
0.029581
0.0295829
0.0295845
0.0295858
0.0295869
0.0295878
0.0295885
0.0295891
0.0295895
0.0295898
0.02959
0.0295901
0.0295901
0.02959
0.0295898
0.0295895
0.0295891
0.0295885
0.0295878
0.0295869
0.0295858
0.0295845
0.0295829
0.029581
0.0295788
0.0295761
0.0295729
0.0295692
0.0295648
0.0295596
0.0295535
0.0295463
0.0295381
0.0295284
0.0295173
0.0295046
0.0294901
0.0294737
0.0294552
0.0294348
0.0294126
0.0293883
0.0351971
0.0352265
0.0352534
0.0352779
0.0353001
0.0353199
0.0353374
0.0353527
0.035366
0.0353776
0.0353876
0.0353962
0.0354035
0.0354098
0.0354151
0.0354196
0.0354235
0.0354267
0.0354294
0.0354317
0.0354336
0.0354352
0.0354365
0.0354376
0.0354384
0.0354391
0.0354397
0.03544
0.0354403
0.0354404
0.0354404
0.0354403
0.03544
0.0354397
0.0354391
0.0354384
0.0354376
0.0354365
0.0354352
0.0354336
0.0354317
0.0354294
0.0354267
0.0354235
0.0354196
0.0354151
0.0354098
0.0354035
0.0353962
0.0353876
0.0353776
0.035366
0.0353527
0.0353374
0.0353199
0.0353001
0.0352779
0.0352534
0.0352265
0.0351971
0.0419633
0.0419977
0.042029
0.0420577
0.0420835
0.0421065
0.0421268
0.0421447
0.0421602
0.0421737
0.0421853
0.0421953
0.0422039
0.0422112
0.0422174
0.0422227
0.0422272
0.0422309
0.0422341
0.0422368
0.042239
0.0422409
0.0422424
0.0422437
0.0422447
0.0422455
0.0422461
0.0422465
0.0422468
0.042247
0.042247
0.0422468
0.0422465
0.0422461
0.0422455
0.0422447
0.0422437
0.0422424
0.0422409
0.042239
0.0422368
0.0422341
0.0422309
0.0422272
0.0422227
0.0422174
0.0422112
0.0422039
0.0421953
0.0421853
0.0421737
0.0421602
0.0421447
0.0421268
0.0421065
0.0420835
0.0420577
0.042029
0.0419977
0.0419633
0.0495132
0.0495523
0.0495879
0.0496203
0.0496494
0.0496754
0.0496984
0.0497185
0.0497361
0.0497514
0.0497645
0.0497758
0.0497855
0.0497938
0.0498008
0.0498068
0.0498119
0.0498162
0.0498198
0.0498228
0.0498253
0.0498274
0.0498292
0.0498306
0.0498318
0.0498327
0.0498334
0.0498339
0.0498342
0.0498344
0.0498344
0.0498342
0.0498339
0.0498334
0.0498327
0.0498318
0.0498306
0.0498292
0.0498274
0.0498253
0.0498228
0.0498198
0.0498162
0.0498119
0.0498068
0.0498008
0.0497938
0.0497855
0.0497758
0.0497645
0.0497514
0.0497361
0.0497185
0.0496984
0.0496754
0.0496494
0.0496203
0.0495879
0.0495523
0.0495132
0.0576559
0.0576994
0.0577387
0.0577745
0.0578067
0.0578354
0.0578608
0.0578831
0.0579025
0.0579193
0.0579339
0.0579464
0.0579572
0.0579663
0.0579741
0.0579808
0.0579864
0.0579911
0.0579951
0.0579985
0.0580013
0.0580036
0.0580056
0.0580072
0.0580085
0.0580095
0.0580103
0.0580108
0.0580112
0.0580114
0.0580114
0.0580112
0.0580108
0.0580103
0.0580095
0.0580085
0.0580072
0.0580056
0.0580036
0.0580013
0.0579985
0.0579951
0.0579911
0.0579864
0.0579808
0.0579741
0.0579663
0.0579572
0.0579464
0.0579339
0.0579193
0.0579025
0.0578831
0.0578608
0.0578354
0.0578067
0.0577745
0.0577387
0.0576994
0.0576559
0.0662313
0.0662788
0.0663217
0.0663606
0.0663956
0.0664268
0.0664544
0.0664786
0.0664997
0.0665181
0.0665339
0.0665476
0.0665593
0.0665693
0.0665778
0.066585
0.0665912
0.0665963
0.0666007
0.0666044
0.0666075
0.06661
0.0666122
0.0666139
0.0666153
0.0666164
0.0666173
0.0666179
0.0666183
0.0666185
0.0666185
0.0666183
0.0666179
0.0666173
0.0666164
0.0666153
0.0666139
0.0666122
0.06661
0.0666075
0.0666044
0.0666007
0.0665963
0.0665912
0.066585
0.0665778
0.0665693
0.0665593
0.0665476
0.0665339
0.0665181
0.0664997
0.0664786
0.0664544
0.0664268
0.0663956
0.0663606
0.0663217
0.0662788
0.0662313
0.0751272
0.0751785
0.0752248
0.0752666
0.0753043
0.0753378
0.0753675
0.0753935
0.0754163
0.075436
0.0754531
0.0754678
0.0754804
0.0754912
0.0755004
0.0755083
0.0755149
0.0755205
0.0755253
0.0755293
0.0755326
0.0755354
0.0755377
0.0755396
0.0755411
0.0755423
0.0755433
0.0755439
0.0755444
0.0755446
0.0755446
0.0755444
0.0755439
0.0755433
0.0755423
0.0755411
0.0755396
0.0755377
0.0755354
0.0755326
0.0755293
0.0755253
0.0755205
0.0755149
0.0755083