/*--------------------------------*- C++ -*----------------------------------*\
| =========                 |                                                 |
| \\      /  F ield         | foam-extend: Open Source CFD                    |
|  \\    /   O peration     | Version:     4.0                                |
|   \\  /    A nd           | Web:         http://www.foam-extend.org         |
|    \\/     M anipulation  |                                                 |
\*---------------------------------------------------------------------------*/
FoamFile
{
    version     2.0;
    format      ascii;
    class       volScalarField;
    location    "570";
    object      cPlus;
}
// * * * * * * * * * * * * * * * * * * * * * * * * * * * * * * * * * * * * * //

dimensions      [0 0 0 0 0 0 0];

internalField   nonuniform List<scalar> 
6960
(
0.264189
0.26415
0.264111
0.26408
0.264055
0.264037
0.264023
0.264013
0.264006
0.264001
0.263997
0.263994
0.263992
0.263991
0.26399
0.263989
0.263989
0.263988
0.263988
0.263988
0.263988
0.263987
0.263987
0.263987
0.263987
0.263987
0.263987
0.263987
0.263987
0.263987
0.263987
0.263987
0.263987
0.263987
0.263987
0.263987
0.263987
0.263987
0.263987
0.263988
0.263988
0.263988
0.263988
0.263989
0.263989
0.26399
0.263991
0.263992
0.263994
0.263997
0.264001
0.264006
0.264013
0.264023
0.264037
0.264055
0.26408
0.264111
0.26415
0.264189
0.0702803
0.0702617
0.0702428
0.0702272
0.0702151
0.070206
0.0701992
0.0701943
0.0701908
0.0701882
0.0701863
0.070185
0.0701841
0.0701834
0.0701829
0.0701825
0.0701822
0.070182
0.0701819
0.0701818
0.0701817
0.0701816
0.0701816
0.0701815
0.0701815
0.0701815
0.0701815
0.0701815
0.0701815
0.0701815
0.0701815
0.0701815
0.0701815
0.0701815
0.0701815
0.0701815
0.0701815
0.0701816
0.0701816
0.0701817
0.0701818
0.0701819
0.070182
0.0701822
0.0701825
0.0701829
0.0701834
0.0701841
0.070185
0.0701863
0.0701882
0.0701908
0.0701943
0.0701992
0.070206
0.0702151
0.0702272
0.0702428
0.0702617
0.0702803
0.0257325
0.0257275
0.0257217
0.0257169
0.025713
0.0257102
0.025708
0.0257064
0.0257053
0.0257045
0.0257039
0.0257034
0.0257031
0.0257029
0.0257027
0.0257026
0.0257025
0.0257024
0.0257024
0.0257024
0.0257023
0.0257023
0.0257023
0.0257023
0.0257023
0.0257023
0.0257023
0.0257023
0.0257023
0.0257023
0.0257023
0.0257023
0.0257023
0.0257023
0.0257023
0.0257023
0.0257023
0.0257023
0.0257023
0.0257023
0.0257024
0.0257024
0.0257024
0.0257025
0.0257026
0.0257027
0.0257029
0.0257031
0.0257034
0.0257039
0.0257045
0.0257053
0.0257064
0.025708
0.0257102
0.025713
0.0257169
0.0257217
0.0257275
0.0257325
0.0145457
0.0145469
0.0145471
0.0145471
0.0145471
0.0145471
0.014547
0.014547
0.014547
0.0145469
0.0145469
0.0145469
0.0145468
0.0145468
0.0145468
0.0145468
0.0145468
0.0145468
0.0145468
0.0145468
0.0145468
0.0145468
0.0145468
0.0145468
0.0145468
0.0145468
0.0145468
0.0145468
0.0145468
0.0145468
0.0145468
0.0145468
0.0145468
0.0145468
0.0145468
0.0145468
0.0145468
0.0145468
0.0145468
0.0145468
0.0145468
0.0145468
0.0145468
0.0145468
0.0145468
0.0145468
0.0145468
0.0145468
0.0145469
0.0145469
0.0145469
0.014547
0.014547
0.014547
0.0145471
0.0145471
0.0145471
0.0145471
0.0145469
0.0145457
0.0118029
0.0118064
0.0118089
0.0118108
0.0118123
0.0118133
0.0118141
0.0118146
0.011815
0.0118153
0.0118154
0.0118156
0.0118157
0.0118157
0.0118158
0.0118158
0.0118158
0.0118159
0.0118159
0.0118159
0.0118159
0.0118159
0.0118159
0.0118159
0.0118159
0.0118159
0.0118159
0.0118159
0.0118159
0.0118159
0.0118159
0.0118159
0.0118159
0.0118159
0.0118159
0.0118159
0.0118159
0.0118159
0.0118159
0.0118159
0.0118159
0.0118159
0.0118159
0.0118158
0.0118158
0.0118158
0.0118157
0.0118157
0.0118156
0.0118154
0.0118153
0.011815
0.0118146
0.0118141
0.0118133
0.0118123
0.0118108
0.0118089
0.0118064
0.0118029
0.0112201
0.0112244
0.0112278
0.0112304
0.0112323
0.0112337
0.0112348
0.0112355
0.011236
0.0112364
0.0112367
0.0112369
0.011237
0.0112371
0.0112372
0.0112372
0.0112372
0.0112373
0.0112373
0.0112373
0.0112373
0.0112373
0.0112373
0.0112373
0.0112373
0.0112373
0.0112373
0.0112373
0.0112373
0.0112373
0.0112373
0.0112373
0.0112373
0.0112373
0.0112373
0.0112373
0.0112373
0.0112373
0.0112373
0.0112373
0.0112373
0.0112373
0.0112373
0.0112372
0.0112372
0.0112372
0.0112371
0.011237
0.0112369
0.0112367
0.0112364
0.011236
0.0112355
0.0112348
0.0112337
0.0112323
0.0112304
0.0112278
0.0112244
0.0112201
0.0111826
0.0111872
0.0111909
0.0111937
0.0111958
0.0111974
0.0111985
0.0111993
0.0111999
0.0112003
0.0112006
0.0112008
0.011201
0.0112011
0.0112012
0.0112012
0.0112013
0.0112013
0.0112013
0.0112013
0.0112013
0.0112013
0.0112013
0.0112013
0.0112014
0.0112014
0.0112014
0.0112014
0.0112014
0.0112014
0.0112014
0.0112014
0.0112014
0.0112014
0.0112014
0.0112014
0.0112013
0.0112013
0.0112013
0.0112013
0.0112013
0.0112013
0.0112013
0.0112013
0.0112012
0.0112012
0.0112011
0.011201
0.0112008
0.0112006
0.0112003
0.0111999
0.0111993
0.0111985
0.0111974
0.0111958
0.0111937
0.0111909
0.0111872
0.0111826
0.0112843
0.0112891
0.0112929
0.0112958
0.011298
0.0112997
0.0113009
0.0113017
0.0113023
0.0113028
0.0113031
0.0113033
0.0113034
0.0113035
0.0113036
0.0113037
0.0113037
0.0113037
0.0113038
0.0113038
0.0113038
0.0113038
0.0113038
0.0113038
0.0113038
0.0113038
0.0113038
0.0113038
0.0113038
0.0113038
0.0113038
0.0113038
0.0113038
0.0113038
0.0113038
0.0113038
0.0113038
0.0113038
0.0113038
0.0113038
0.0113038
0.0113038
0.0113037
0.0113037
0.0113037
0.0113036
0.0113035
0.0113034
0.0113033
0.0113031
0.0113028
0.0113023
0.0113017
0.0113009
0.0112997
0.011298
0.0112958
0.0112929
0.0112891
0.0112843
0.0114269
0.0114319
0.0114358
0.0114388
0.011441
0.0114427
0.0114439
0.0114448
0.0114455
0.0114459
0.0114462
0.0114464
0.0114466
0.0114467
0.0114468
0.0114469
0.0114469
0.0114469
0.0114469
0.011447
0.011447
0.011447
0.011447
0.011447
0.011447
0.011447
0.011447
0.011447
0.011447
0.011447
0.011447
0.011447
0.011447
0.011447
0.011447
0.011447
0.011447
0.011447
0.011447
0.011447
0.011447
0.0114469
0.0114469
0.0114469
0.0114469
0.0114468
0.0114467
0.0114466
0.0114464
0.0114462
0.0114459
0.0114455
0.0114448
0.0114439
0.0114427
0.011441
0.0114388
0.0114358
0.0114319
0.0114269
0.0115882
0.0115933
0.0115973
0.0116004
0.0116027
0.0116044
0.0116057
0.0116066
0.0116072
0.0116077
0.011608
0.0116082
0.0116084
0.0116085
0.0116086
0.0116086
0.0116087
0.0116087
0.0116087
0.0116088
0.0116088
0.0116088
0.0116088
0.0116088
0.0116088
0.0116088
0.0116088
0.0116088
0.0116088
0.0116088
0.0116088
0.0116088
0.0116088
0.0116088
0.0116088
0.0116088
0.0116088
0.0116088
0.0116088
0.0116088
0.0116088
0.0116087
0.0116087
0.0116087
0.0116086
0.0116086
0.0116085
0.0116084
0.0116082
0.011608
0.0116077
0.0116072
0.0116066
0.0116057
0.0116044
0.0116027
0.0116004
0.0115973
0.0115933
0.0115882
0.0117641
0.0117693
0.0117734
0.0117766
0.011779
0.0117807
0.011782
0.0117829
0.0117836
0.0117841
0.0117844
0.0117846
0.0117848
0.0117849
0.011785
0.0117851
0.0117851
0.0117852
0.0117852
0.0117852
0.0117852
0.0117852
0.0117852
0.0117852
0.0117852
0.0117852
0.0117852
0.0117852
0.0117852
0.0117852
0.0117852
0.0117852
0.0117852
0.0117852
0.0117852
0.0117852
0.0117852
0.0117852
0.0117852
0.0117852
0.0117852
0.0117852
0.0117852
0.0117851
0.0117851
0.011785
0.0117849
0.0117848
0.0117846
0.0117844
0.0117841
0.0117836
0.0117829
0.011782
0.0117807
0.011779
0.0117766
0.0117734
0.0117693
0.0117641
0.011955
0.0119603
0.0119645
0.0119678
0.0119702
0.0119721
0.0119734
0.0119743
0.011975
0.0119755
0.0119758
0.0119761
0.0119763
0.0119764
0.0119765
0.0119765
0.0119766
0.0119766
0.0119766
0.0119767
0.0119767
0.0119767
0.0119767
0.0119767
0.0119767
0.0119767
0.0119767
0.0119767
0.0119767
0.0119767
0.0119767
0.0119767
0.0119767
0.0119767
0.0119767
0.0119767
0.0119767
0.0119767
0.0119767
0.0119767
0.0119767
0.0119766
0.0119766
0.0119766
0.0119765
0.0119765
0.0119764
0.0119763
0.0119761
0.0119758
0.0119755
0.011975
0.0119743
0.0119734
0.0119721
0.0119702
0.0119678
0.0119645
0.0119603
0.011955
0.0121624
0.0121679
0.0121722
0.0121756
0.0121781
0.01218
0.0121813
0.0121823
0.012183
0.0121835
0.0121839
0.0121841
0.0121843
0.0121844
0.0121845
0.0121846
0.0121846
0.0121847
0.0121847
0.0121847
0.0121847
0.0121847
0.0121847
0.0121847
0.0121847
0.0121847
0.0121847
0.0121847
0.0121847
0.0121847
0.0121847
0.0121847
0.0121847
0.0121847
0.0121847
0.0121847
0.0121847
0.0121847
0.0121847
0.0121847
0.0121847
0.0121847
0.0121847
0.0121846
0.0121846
0.0121845
0.0121844
0.0121843
0.0121841
0.0121839
0.0121835
0.012183
0.0121823
0.0121813
0.01218
0.0121781
0.0121756
0.0121722
0.0121679
0.0121624
0.0123884
0.0123941
0.0123985
0.012402
0.0124046
0.0124065
0.0124079
0.0124089
0.0124097
0.0124102
0.0124105
0.0124108
0.012411
0.0124111
0.0124112
0.0124113
0.0124113
0.0124114
0.0124114
0.0124114
0.0124114
0.0124114
0.0124114
0.0124114
0.0124114
0.0124114
0.0124114
0.0124114
0.0124114
0.0124114
0.0124114
0.0124114
0.0124114
0.0124114
0.0124114
0.0124114
0.0124114
0.0124114
0.0124114
0.0124114
0.0124114
0.0124114
0.0124114
0.0124113
0.0124113
0.0124112
0.0124111
0.012411
0.0124108
0.0124105
0.0124102
0.0124097
0.0124089
0.0124079
0.0124065
0.0124046
0.012402
0.0123985
0.0123941
0.0123884
0.0126354
0.0126413
0.0126459
0.0126495
0.0126522
0.0126542
0.0126556
0.0126567
0.0126574
0.012658
0.0126584
0.0126586
0.0126588
0.012659
0.0126591
0.0126591
0.0126592
0.0126592
0.0126592
0.0126593
0.0126593
0.0126593
0.0126593
0.0126593
0.0126593
0.0126593
0.0126593
0.0126593
0.0126593
0.0126593
0.0126593
0.0126593
0.0126593
0.0126593
0.0126593
0.0126593
0.0126593
0.0126593
0.0126593
0.0126593
0.0126593
0.0126592
0.0126592
0.0126592
0.0126591
0.0126591
0.012659
0.0126588
0.0126586
0.0126584
0.012658
0.0126574
0.0126567
0.0126556
0.0126542
0.0126522
0.0126495
0.0126459
0.0126413
0.0126354
0.0129066
0.0129127
0.0129175
0.0129212
0.012924
0.012926
0.0129275
0.0129286
0.0129294
0.01293
0.0129304
0.0129306
0.0129308
0.012931
0.0129311
0.0129312
0.0129312
0.0129312
0.0129313
0.0129313
0.0129313
0.0129313
0.0129313
0.0129313
0.0129313
0.0129313
0.0129313
0.0129313
0.0129313
0.0129313
0.0129313
0.0129313
0.0129313
0.0129313
0.0129313
0.0129313
0.0129313
0.0129313
0.0129313
0.0129313
0.0129313
0.0129313
0.0129312
0.0129312
0.0129312
0.0129311
0.012931
0.0129308
0.0129306
0.0129304
0.01293
0.0129294
0.0129286
0.0129275
0.012926
0.012924
0.0129212
0.0129175
0.0129127
0.0129066
0.0132054
0.0132118
0.0132167
0.0132206
0.0132235
0.0132257
0.0132273
0.0132284
0.0132292
0.0132298
0.0132302
0.0132305
0.0132307
0.0132308
0.0132309
0.013231
0.0132311
0.0132311
0.0132311
0.0132312
0.0132312
0.0132312
0.0132312
0.0132312
0.0132312
0.0132312
0.0132312
0.0132312
0.0132312
0.0132312
0.0132312
0.0132312
0.0132312
0.0132312
0.0132312
0.0132312
0.0132312
0.0132312
0.0132312
0.0132312
0.0132312
0.0132311
0.0132311
0.0132311
0.013231
0.0132309
0.0132308
0.0132307
0.0132305
0.0132302
0.0132298
0.0132292
0.0132284
0.0132273
0.0132257
0.0132235
0.0132206
0.0132167
0.0132118
0.0132054
0.0135364
0.0135431
0.0135482
0.0135523
0.0135553
0.0135576
0.0135592
0.0135604
0.0135612
0.0135619
0.0135623
0.0135626
0.0135628
0.013563
0.0135631
0.0135631
0.0135632
0.0135632
0.0135633
0.0135633
0.0135633
0.0135633
0.0135633
0.0135633
0.0135633
0.0135633
0.0135633
0.0135633
0.0135633
0.0135633
0.0135633
0.0135633
0.0135633
0.0135633
0.0135633
0.0135633
0.0135633
0.0135633
0.0135633
0.0135633
0.0135633
0.0135633
0.0135632
0.0135632
0.0135631
0.0135631
0.013563
0.0135628
0.0135626
0.0135623
0.0135619
0.0135612
0.0135604
0.0135592
0.0135576
0.0135553
0.0135523
0.0135482
0.0135431
0.0135364
0.013905
0.013912
0.0139174
0.0139216
0.0139248
0.0139272
0.0139289
0.0139302
0.013931
0.0139317
0.0139321
0.0139324
0.0139327
0.0139328
0.013933
0.013933
0.0139331
0.0139331
0.0139332
0.0139332
0.0139332
0.0139332
0.0139332
0.0139332
0.0139332
0.0139332
0.0139332
0.0139332
0.0139332
0.0139332
0.0139332
0.0139332
0.0139332
0.0139332
0.0139332
0.0139332
0.0139332
0.0139332
0.0139332
0.0139332
0.0139332
0.0139332
0.0139331
0.0139331
0.013933
0.013933
0.0139328
0.0139327
0.0139324
0.0139321
0.0139317
0.013931
0.0139302
0.0139289
0.0139272
0.0139248
0.0139216
0.0139174
0.013912
0.013905
0.014318
0.0143253
0.0143311
0.0143355
0.0143389
0.0143414
0.0143432
0.0143445
0.0143454
0.0143461
0.0143466
0.0143469
0.0143472
0.0143473
0.0143475
0.0143475
0.0143476
0.0143477
0.0143477
0.0143477
0.0143477
0.0143477
0.0143478
0.0143478
0.0143478
0.0143478
0.0143478
0.0143478
0.0143478
0.0143478
0.0143478
0.0143478
0.0143478
0.0143478
0.0143478
0.0143478
0.0143478
0.0143478
0.0143477
0.0143477
0.0143477
0.0143477
0.0143477
0.0143476
0.0143475
0.0143475
0.0143473
0.0143472
0.0143469
0.0143466
0.0143461
0.0143454
0.0143445
0.0143432
0.0143414
0.0143389
0.0143355
0.0143311
0.0143253
0.014318
0.014784
0.0147918
0.0147979
0.0148026
0.0148062
0.0148088
0.0148108
0.0148122
0.0148131
0.0148139
0.0148144
0.0148147
0.014815
0.0148152
0.0148153
0.0148154
0.0148154
0.0148155
0.0148155
0.0148155
0.0148156
0.0148156
0.0148156
0.0148156
0.0148156
0.0148156
0.0148156
0.0148156
0.0148156
0.0148156
0.0148156
0.0148156
0.0148156
0.0148156
0.0148156
0.0148156
0.0148156
0.0148156
0.0148156
0.0148156
0.0148155
0.0148155
0.0148155
0.0148154
0.0148154
0.0148153
0.0148152
0.014815
0.0148147
0.0148144
0.0148139
0.0148131
0.0148122
0.0148108
0.0148088
0.0148062
0.0148026
0.0147979
0.0147918
0.014784
0.0153142
0.0153226
0.015329
0.0153341
0.0153379
0.0153407
0.0153428
0.0153443
0.0153453
0.0153461
0.0153466
0.015347
0.0153473
0.0153475
0.0153476
0.0153477
0.0153478
0.0153478
0.0153479
0.0153479
0.0153479
0.0153479
0.0153479
0.0153479
0.015348
0.015348
0.015348
0.015348
0.015348
0.015348
0.015348
0.015348
0.015348
0.015348
0.015348
0.015348
0.0153479
0.0153479
0.0153479
0.0153479
0.0153479
0.0153479
0.0153478
0.0153478
0.0153477
0.0153476
0.0153475
0.0153473
0.015347
0.0153466
0.0153461
0.0153453
0.0153443
0.0153428
0.0153407
0.0153379
0.0153341
0.015329
0.0153226
0.0153142
0.0159232
0.0159322
0.0159392
0.0159446
0.0159487
0.0159517
0.0159539
0.0159555
0.0159567
0.0159575
0.0159581
0.0159585
0.0159588
0.015959
0.0159591
0.0159592
0.0159593
0.0159594
0.0159594
0.0159594
0.0159595
0.0159595
0.0159595
0.0159595
0.0159595
0.0159595
0.0159595
0.0159595
0.0159595
0.0159595
0.0159595
0.0159595
0.0159595
0.0159595
0.0159595
0.0159595
0.0159595
0.0159595
0.0159595
0.0159595
0.0159594
0.0159594
0.0159594
0.0159593
0.0159592
0.0159591
0.015959
0.0159588
0.0159585
0.0159581
0.0159575
0.0159567
0.0159555
0.0159539
0.0159517
0.0159487
0.0159446
0.0159392
0.0159322
0.0159232
0.0166305
0.0166402
0.0166478
0.0166536
0.0166581
0.0166614
0.0166638
0.0166656
0.0166668
0.0166677
0.0166683
0.0166688
0.0166691
0.0166693
0.0166695
0.0166696
0.0166697
0.0166697
0.0166698
0.0166698
0.0166698
0.0166698
0.0166699
0.0166699
0.0166699
0.0166699
0.0166699
0.0166699
0.0166699
0.0166699
0.0166699
0.0166699
0.0166699
0.0166699
0.0166699
0.0166699
0.0166699
0.0166699
0.0166698
0.0166698
0.0166698
0.0166698
0.0166697
0.0166697
0.0166696
0.0166695
0.0166693
0.0166691
0.0166688
0.0166683
0.0166677
0.0166668
0.0166656
0.0166638
0.0166614
0.0166581
0.0166536
0.0166478
0.0166402
0.0166305
0.0174627
0.0174734
0.0174817
0.0174882
0.0174931
0.0174967
0.0174994
0.0175013
0.0175027
0.0175036
0.0175043
0.0175048
0.0175052
0.0175054
0.0175056
0.0175057
0.0175058
0.0175059
0.0175059
0.017506
0.017506
0.017506
0.017506
0.017506
0.017506
0.017506
0.017506
0.017506
0.0175061
0.0175061
0.0175061
0.0175061
0.017506
0.017506
0.017506
0.017506
0.017506
0.017506
0.017506
0.017506
0.017506
0.0175059
0.0175059
0.0175058
0.0175057
0.0175056
0.0175054
0.0175052
0.0175048
0.0175043
0.0175036
0.0175027
0.0175013
0.0174994
0.0174967
0.0174931
0.0174882
0.0174817
0.0174734
0.0174627
0.0184577
0.0184696
0.0184789
0.0184861
0.0184915
0.0184956
0.0184985
0.0185007
0.0185022
0.0185033
0.0185041
0.0185046
0.018505
0.0185053
0.0185055
0.0185056
0.0185057
0.0185058
0.0185058
0.0185059
0.0185059
0.0185059
0.0185059
0.018506
0.018506
0.018506
0.018506
0.018506
0.018506
0.018506
0.018506
0.018506
0.018506
0.018506
0.018506
0.018506
0.018506
0.0185059
0.0185059
0.0185059
0.0185059
0.0185058
0.0185058
0.0185057
0.0185056
0.0185055
0.0185053
0.018505
0.0185046
0.0185041
0.0185033
0.0185022
0.0185007
0.0184985
0.0184956
0.0184915
0.0184861
0.0184789
0.0184696
0.0184577
0.0196699
0.0196834
0.0196939
0.0197021
0.0197083
0.0197129
0.0197162
0.0197187
0.0197204
0.0197217
0.0197225
0.0197232
0.0197236
0.0197239
0.0197241
0.0197243
0.0197244
0.0197245
0.0197246
0.0197246
0.0197246
0.0197247
0.0197247
0.0197247
0.0197247
0.0197247
0.0197247
0.0197247
0.0197247
0.0197247
0.0197247
0.0197247
0.0197247
0.0197247
0.0197247
0.0197247
0.0197247
0.0197247
0.0197247
0.0197246
0.0197246
0.0197246
0.0197245
0.0197244
0.0197243
0.0197241
0.0197239
0.0197236
0.0197232
0.0197225
0.0197217
0.0197204
0.0197187
0.0197162
0.0197129
0.0197083
0.0197021
0.0196939
0.0196834
0.0196699
0.0211808
0.0211964
0.0212085
0.021218
0.0212252
0.0212306
0.0212345
0.0212373
0.0212393
0.0212408
0.0212418
0.0212425
0.021243
0.0212434
0.0212437
0.0212439
0.021244
0.0212441
0.0212442
0.0212442
0.0212442
0.0212443
0.0212443
0.0212443
0.0212443
0.0212443
0.0212443
0.0212443
0.0212443
0.0212443
0.0212443
0.0212443
0.0212443
0.0212443
0.0212443
0.0212443
0.0212443
0.0212443
0.0212443
0.0212442
0.0212442
0.0212442
0.0212441
0.021244
0.0212439
0.0212437
0.0212434
0.021243
0.0212425
0.0212418
0.0212408
0.0212393
0.0212373
0.0212345
0.0212306
0.0212252
0.021218
0.0212085
0.0211964
0.0211808
0.0231134
0.0231319
0.0231465
0.0231578
0.0231664
0.0231728
0.0231775
0.0231808
0.0231833
0.023185
0.0231862
0.0231871
0.0231877
0.0231881
0.0231884
0.0231887
0.0231888
0.0231889
0.023189
0.0231891
0.0231891
0.0231891
0.0231892
0.0231892
0.0231892
0.0231892
0.0231892
0.0231892
0.0231892
0.0231892
0.0231892
0.0231892
0.0231892
0.0231892
0.0231892
0.0231892
0.0231892
0.0231892
0.0231891
0.0231891
0.0231891
0.023189
0.0231889
0.0231888
0.0231887
0.0231884
0.0231881
0.0231877
0.0231871
0.0231862
0.023185
0.0231833
0.0231808
0.0231775
0.0231728
0.0231664
0.0231578
0.0231465
0.0231319
0.0231134
0.0256532
0.0256759
0.0256938
0.0257077
0.0257183
0.0257262
0.0257319
0.0257361
0.0257391
0.0257412
0.0257427
0.0257438
0.0257445
0.0257451
0.0257454
0.0257457
0.0257459
0.0257461
0.0257462
0.0257462
0.0257463
0.0257463
0.0257464
0.0257464
0.0257464
0.0257464
0.0257464
0.0257464
0.0257464
0.0257464
0.0257464
0.0257464
0.0257464
0.0257464
0.0257464
0.0257464
0.0257464
0.0257464
0.0257463
0.0257463
0.0257462
0.0257462
0.0257461
0.0257459
0.0257457
0.0257454
0.0257451
0.0257445
0.0257438
0.0257427
0.0257412
0.0257391
0.0257361
0.0257319
0.0257262
0.0257183
0.0257077
0.0256938
0.0256759
0.0256532
0.0290658
0.0290944
0.029117
0.0291346
0.029148
0.029158
0.0291653
0.0291706
0.0291744
0.0291771
0.029179
0.0291803
0.0291813
0.029182
0.0291825
0.0291828
0.0291831
0.0291832
0.0291834
0.0291835
0.0291835
0.0291836
0.0291836
0.0291836
0.0291837
0.0291837
0.0291837
0.0291837
0.0291837
0.0291837
0.0291837
0.0291837
0.0291837
0.0291837
0.0291837
0.0291837
0.0291836
0.0291836
0.0291836
0.0291835
0.0291835
0.0291834
0.0291832
0.0291831
0.0291828
0.0291825
0.029182
0.0291813
0.0291803
0.029179
0.0291771
0.0291744
0.0291706
0.0291653
0.029158
0.029148
0.0291346
0.029117
0.0290944
0.0290658
0.0336932
0.0337298
0.0337589
0.0337816
0.0337989
0.0338118
0.0338212
0.033828
0.0338329
0.0338364
0.0338388
0.0338406
0.0338418
0.0338427
0.0338433
0.0338438
0.0338441
0.0338444
0.0338445
0.0338446
0.0338447
0.0338448
0.0338448
0.0338449
0.0338449
0.0338449
0.0338449
0.0338449
0.0338449
0.0338449
0.0338449
0.0338449
0.0338449
0.0338449
0.0338449
0.0338449
0.0338449
0.0338448
0.0338448
0.0338447
0.0338446
0.0338445
0.0338444
0.0338441
0.0338438
0.0338433
0.0338427
0.0338418
0.0338406
0.0338388
0.0338364
0.0338329
0.033828
0.0338212
0.0338118
0.0337989
0.0337816
0.0337589
0.0337298
0.0336932
0.0398987
0.0399458
0.0399832
0.0400125
0.0400348
0.0400514
0.0400636
0.0400723
0.0400786
0.0400831
0.0400863
0.0400886
0.0400902
0.0400913
0.0400921
0.0400927
0.0400931
0.0400934
0.0400937
0.0400938
0.0400939
0.040094
0.0400941
0.0400941
0.0400941
0.0400942
0.0400942
0.0400942
0.0400942
0.0400942
0.0400942
0.0400942
0.0400942
0.0400942
0.0400942
0.0400941
0.0400941
0.0400941
0.040094
0.0400939
0.0400938
0.0400937
0.0400934
0.0400931
0.0400927
0.0400921
0.0400913
0.0400902
0.0400886
0.0400863
0.0400831
0.0400786
0.0400723
0.0400636
0.0400514
0.0400348
0.0400125
0.0399832
0.0399458
0.0398987
0.0479547
0.0480141
0.0480614
0.0480984
0.0481265
0.0481475
0.0481628
0.0481739
0.0481819
0.0481876
0.0481916
0.0481945
0.0481965
0.048198
0.048199
0.0481998
0.0482003
0.0482007
0.048201
0.0482011
0.0482013
0.0482014
0.0482015
0.0482015
0.0482016
0.0482016
0.0482016
0.0482016
0.0482016
0.0482016
0.0482016
0.0482016
0.0482016
0.0482016
0.0482016
0.0482016
0.0482015
0.0482015
0.0482014
0.0482013
0.0482011
0.048201
0.0482007
0.0482003
0.0481998
0.048199
0.048198
0.0481965
0.0481945
0.0481916
0.0481876
0.0481819
0.0481739
0.0481628
0.0481475
0.0481265
0.0480984
0.0480614
0.0480141
0.0479547
0.0579216
0.0579942
0.0580519
0.0580971
0.0581314
0.058157
0.0581757
0.0581893
0.0581991
0.0582061
0.058211
0.0582146
0.0582171
0.0582189
0.0582202
0.0582211
0.0582217
0.0582222
0.0582225
0.0582228
0.058223
0.0582231
0.0582232
0.0582233
0.0582233
0.0582233
0.0582234
0.0582234
0.0582234
0.0582234
0.0582234
0.0582234
0.0582234
0.0582234
0.0582233
0.0582233
0.0582233
0.0582232
0.0582231
0.058223
0.0582228
0.0582225
0.0582222
0.0582217
0.0582211
0.0582202
0.0582189
0.0582171
0.0582146
0.058211
0.0582061
0.0581991
0.0581893
0.0581757
0.058157
0.0581314
0.0580971
0.0580519
0.0579942
0.0579216
0.0696096
0.069695
0.0697629
0.069816
0.0698563
0.0698864
0.0699085
0.0699245
0.0699361
0.0699443
0.0699502
0.0699544
0.0699574
0.0699595
0.069961
0.0699621
0.0699629
0.0699635
0.0699639
0.0699642
0.0699644
0.0699646
0.0699647
0.0699648
0.0699648
0.0699649
0.0699649
0.0699649
0.0699649
0.0699649
0.0699649
0.0699649
0.0699649
0.0699649
0.0699649
0.0699648
0.0699648
0.0699647
0.0699646
0.0699644
0.0699642
0.0699639
0.0699635
0.0699629
0.0699621
0.069961
0.0699595
0.0699574
0.0699544
0.0699502
0.0699443
0.0699361
0.0699245
0.0699085
0.0698864
0.0698563
0.069816
0.0697629
0.069695
0.0696096
0.0826586
0.0827561
0.0828333
0.0828935
0.0829394
0.0829737
0.0829988
0.0830171
0.0830303
0.0830398
0.0830465
0.0830513
0.0830548
0.0830572
0.083059
0.0830603
0.0830612
0.0830618
0.0830623
0.0830626
0.0830629
0.0830631
0.0830632
0.0830633
0.0830634
0.0830634
0.0830635
0.0830635
0.0830635
0.0830635
0.0830635
0.0830635
0.0830635
0.0830635
0.0830634
0.0830634
0.0830633
0.0830632
0.0830631
0.0830629
0.0830626
0.0830623
0.0830618
0.0830612
0.0830603
0.083059
0.0830572
0.0830548
0.0830513
0.0830465
0.0830398
0.0830303
0.0830171
0.0829988
0.0829737
0.0829394
0.0828935
0.0828333
0.0827561
0.0826586
0.0966766
0.0967849
0.0968704
0.0969372
0.096988
0.097026
0.097054
0.0970744
0.0970891
0.0970997
0.0971072
0.0971127
0.0971165
0.0971193
0.0971213
0.0971227
0.0971237
0.0971245
0.097125
0.0971254
0.0971257
0.0971259
0.0971261
0.0971262
0.0971263
0.0971263
0.0971264
0.0971264
0.0971264
0.0971264
0.0971264
0.0971264
0.0971264
0.0971264
0.0971263
0.0971263
0.0971262
0.0971261
0.0971259
0.0971257
0.0971254
0.097125
0.0971245
0.0971237
0.0971227
0.0971213
0.0971193
0.0971165
0.0971127
0.0971072
0.0970997
0.0970891
0.0970744
0.097054
0.097026
0.096988
0.0969372
0.0968704
0.0967849
0.0966766
0.111341
0.111459
0.111552
0.111625
0.11168
0.111722
0.111752
0.111775
0.111791
0.111803
0.111811
0.111817
0.111821
0.111824
0.111826
0.111828
0.111829
0.11183
0.111831
0.111831
0.111831
0.111832
0.111832
0.111832
0.111832
0.111832
0.111832
0.111832
0.111832
0.111832
0.111832
0.111832
0.111832
0.111832
0.111832
0.111832
0.111832
0.111832
0.111832
0.111831
0.111831
0.111831
0.11183
0.111829
0.111828
0.111826
0.111824
0.111821
0.111817
0.111811
0.111803
0.111791
0.111775
0.111752
0.111722
0.11168
0.111625
0.111552
0.111459
0.111341
0.12643
0.126558
0.126658
0.126736
0.126796
0.12684
0.126874
0.126898
0.126915
0.126928
0.126937
0.126944
0.126948
0.126952
0.126954
0.126956
0.126957
0.126958
0.126959
0.126959
0.12696
0.12696
0.12696
0.12696
0.12696
0.12696
0.12696
0.12696
0.12696
0.12696
0.12696
0.12696
0.12696
0.12696
0.12696
0.12696
0.12696
0.12696
0.12696
0.12696
0.126959
0.126959
0.126958
0.126957
0.126956
0.126954
0.126952
0.126948
0.126944
0.126937
0.126928
0.126915
0.126898
0.126874
0.12684
0.126796
0.126736
0.126658
0.126558
0.12643
0.141807
0.141943
0.14205
0.142133
0.142197
0.142245
0.142281
0.142307
0.142326
0.142339
0.142349
0.142356
0.142362
0.142365
0.142368
0.14237
0.142371
0.142372
0.142373
0.142374
0.142374
0.142374
0.142374
0.142375
0.142375
0.142375
0.142375
0.142375
0.142375
0.142375
0.142375
0.142375
0.142375
0.142375
0.142375
0.142375
0.142375
0.142374
0.142374
0.142374
0.142374
0.142373
0.142372
0.142371
0.14237
0.142368
0.142365
0.142362
0.142356
0.142349
0.142339
0.142326
0.142307
0.142281
0.142245
0.142197
0.142133
0.14205
0.141943
0.141807
0.157389
0.157533
0.157646
0.157735
0.157803
0.157854
0.157892
0.15792
0.15794
0.157955
0.157966
0.157973
0.157979
0.157983
0.157986
0.157988
0.157989
0.15799
0.157991
0.157992
0.157992
0.157993
0.157993
0.157993
0.157993
0.157993
0.157993
0.157993
0.157993
0.157993
0.157993
0.157993
0.157993
0.157993
0.157993
0.157993
0.157993
0.157993
0.157993
0.157992
0.157992
0.157991
0.15799
0.157989
0.157988
0.157986
0.157983
0.157979
0.157973
0.157966
0.157955
0.15794
0.15792
0.157892
0.157854
0.157803
0.157735
0.157646
0.157533
0.157389
0.173124
0.173275
0.173395
0.173489
0.173561
0.173615
0.173655
0.173685
0.173707
0.173723
0.173734
0.173742
0.173748
0.173753
0.173756
0.173758
0.17376
0.173761
0.173762
0.173762
0.173763
0.173763
0.173764
0.173764
0.173764
0.173764
0.173764
0.173764
0.173764
0.173764
0.173764
0.173764
0.173764
0.173764
0.173764
0.173764
0.173764
0.173764
0.173763
0.173763
0.173762
0.173762
0.173761
0.17376
0.173758
0.173756
0.173753
0.173748
0.173742
0.173734
0.173723
0.173707
0.173685
0.173655
0.173615
0.173561
0.173489
0.173395
0.173275
0.173124
0.188975
0.189135
0.189261
0.189359
0.189435
0.189493
0.189535
0.189567
0.18959
0.189607
0.189619
0.189628
0.189635
0.189639
0.189643
0.189645
0.189647
0.189648
0.189649
0.18965
0.189651
0.189651
0.189651
0.189651
0.189652
0.189652
0.189652
0.189652
0.189652
0.189652
0.189652
0.189652
0.189652
0.189652
0.189652
0.189652
0.189651
0.189651
0.189651
0.189651
0.18965
0.189649
0.189648
0.189647
0.189645
0.189643
0.189639
0.189635
0.189628
0.189619
0.189607
0.18959
0.189567
0.189535
0.189493
0.189435
0.189359
0.189261
0.189135
0.188975
0.204918
0.205084
0.205216
0.20532
0.2054
0.20546
0.205505
0.205539
0.205564
0.205582
0.205595
0.205604
0.205611
0.205616
0.20562
0.205623
0.205625
0.205626
0.205627
0.205628
0.205628
0.205629
0.205629
0.205629
0.205629
0.20563
0.20563
0.20563
0.20563
0.20563
0.20563
0.20563
0.20563
0.20563
0.20563
0.205629
0.205629
0.205629
0.205629
0.205628
0.205628
0.205627
0.205626
0.205625
0.205623
0.20562
0.205616
0.205611
0.205604
0.205595
0.205582
0.205564
0.205539
0.205505
0.20546
0.2054
0.20532
0.205216
0.205084
0.204918
0.220928
0.221102
0.22124
0.221348
0.221432
0.221496
0.221543
0.221579
0.221605
0.221624
0.221638
0.221648
0.221656
0.221661
0.221665
0.221668
0.22167
0.221672
0.221673
0.221674
0.221675
0.221675
0.221675
0.221676
0.221676
0.221676
0.221676
0.221676
0.221676
0.221676
0.221676
0.221676
0.221676
0.221676
0.221676
0.221676
0.221676
0.221675
0.221675
0.221675
0.221674
0.221673
0.221672
0.22167
0.221668
0.221665
0.221661
0.221656
0.221648
0.221638
0.221624
0.221605
0.221579
0.221543
0.221496
0.221432
0.221348
0.22124
0.221102
0.220928
0.236989
0.237169
0.237313
0.237426
0.237513
0.23758
0.23763
0.237668
0.237696
0.237716
0.237731
0.237742
0.23775
0.237756
0.23776
0.237763
0.237765
0.237767
0.237768
0.237769
0.23777
0.23777
0.237771
0.237771
0.237771
0.237771
0.237771
0.237771
0.237772
0.237772
0.237772
0.237772
0.237771
0.237771
0.237771
0.237771
0.237771
0.237771
0.23777
0.23777
0.237769
0.237768
0.237767
0.237765
0.237763
0.23776
0.237756
0.23775
0.237742
0.237731
0.237716
0.237696
0.237668
0.23763
0.23758
0.237513
0.237426
0.237313
0.237169
0.236989
0.253081
0.253268
0.253417
0.253535
0.253627
0.253697
0.25375
0.253789
0.253818
0.25384
0.253856
0.253867
0.253876
0.253882
0.253887
0.25389
0.253893
0.253894
0.253896
0.253897
0.253898
0.253898
0.253898
0.253899
0.253899
0.253899
0.253899
0.253899
0.253899
0.253899
0.253899
0.253899
0.253899
0.253899
0.253899
0.253899
0.253899
0.253898
0.253898
0.253898
0.253897
0.253896
0.253894
0.253893
0.25389
0.253887
0.253882
0.253876
0.253867
0.253856
0.25384
0.253818
0.253789
0.25375
0.253697
0.253627
0.253535
0.253417
0.253268
0.253081
0.269191
0.269384
0.269538
0.269661
0.269756
0.269829
0.269885
0.269926
0.269957
0.26998
0.269997
0.270009
0.270018
0.270025
0.27003
0.270033
0.270036
0.270038
0.27004
0.270041
0.270041
0.270042
0.270042
0.270043
0.270043
0.270043
0.270043
0.270043
0.270043
0.270043
0.270043
0.270043
0.270043
0.270043
0.270043
0.270043
0.270043
0.270042
0.270042
0.270041
0.270041
0.27004
0.270038
0.270036
0.270033
0.27003
0.270025
0.270018
0.270009
0.269997
0.26998
0.269957
0.269926
0.269885
0.269829
0.269756
0.269661
0.269538
0.269384
0.269191
0.285302
0.285501
0.285661
0.285788
0.285887
0.285963
0.286021
0.286064
0.286097
0.286121
0.286139
0.286152
0.286162
0.286169
0.286174
0.286178
0.286181
0.286183
0.286185
0.286186
0.286187
0.286187
0.286188
0.286188
0.286188
0.286189
0.286189
0.286189
0.286189
0.286189
0.286189
0.286189
0.286189
0.286189
0.286189
0.286188
0.286188
0.286188
0.286187
0.286187
0.286186
0.286185
0.286183
0.286181
0.286178
0.286174
0.286169
0.286162
0.286152
0.286139
0.286121
0.286097
0.286064
0.286021
0.285963
0.285887
0.285788
0.285661
0.285501
0.285302
0.301401
0.301605
0.30177
0.301901
0.302004
0.302083
0.302144
0.30219
0.302224
0.302249
0.302268
0.302282
0.302292
0.3023
0.302306
0.30231
0.302313
0.302315
0.302317
0.302318
0.302319
0.30232
0.30232
0.302321
0.302321
0.302321