/*--------------------------------*- C++ -*----------------------------------*\
| =========                 |                                                 |
| \\      /  F ield         | foam-extend: Open Source CFD                    |
|  \\    /   O peration     | Version:     4.0                                |
|   \\  /    A nd           | Web:         http://www.foam-extend.org         |
|    \\/     M anipulation  |                                                 |
\*---------------------------------------------------------------------------*/
FoamFile
{
    version     2.0;
    format      ascii;
    class       volScalarField;
    location    "1190";
    object      cPlus;
}
// * * * * * * * * * * * * * * * * * * * * * * * * * * * * * * * * * * * * * //

dimensions      [0 0 0 0 0 0 0];

internalField   nonuniform List<scalar> 
6960
(
0.295659
0.295635
0.295608
0.295583
0.295561
0.295543
0.295527
0.295515
0.295504
0.295496
0.295489
0.295484
0.295479
0.295476
0.295473
0.295471
0.295469
0.295468
0.295467
0.295466
0.295465
0.295464
0.295464
0.295464
0.295463
0.295463
0.295463
0.295463
0.295463
0.295463
0.295463
0.295463
0.295463
0.295463
0.295463
0.295463
0.295464
0.295464
0.295464
0.295465
0.295466
0.295467
0.295468
0.295469
0.295471
0.295473
0.295476
0.295479
0.295484
0.295489
0.295496
0.295504
0.295515
0.295527
0.295543
0.295561
0.295583
0.295608
0.295635
0.295659
0.0873218
0.0873075
0.0872912
0.0872761
0.0872629
0.0872518
0.0872424
0.0872347
0.0872284
0.0872233
0.0872192
0.0872159
0.0872132
0.0872111
0.0872094
0.087208
0.0872069
0.0872061
0.0872054
0.0872048
0.0872044
0.087204
0.0872038
0.0872035
0.0872034
0.0872032
0.0872031
0.0872031
0.087203
0.087203
0.087203
0.087203
0.0872031
0.0872031
0.0872032
0.0872034
0.0872035
0.0872038
0.087204
0.0872044
0.0872048
0.0872054
0.0872061
0.0872069
0.087208
0.0872094
0.0872111
0.0872132
0.0872159
0.0872192
0.0872233
0.0872284
0.0872347
0.0872424
0.0872518
0.0872629
0.0872761
0.0872912
0.0873075
0.0873218
0.031966
0.0319601
0.031953
0.0319463
0.0319405
0.0319355
0.0319313
0.0319279
0.0319251
0.0319228
0.031921
0.0319195
0.0319183
0.0319173
0.0319165
0.0319159
0.0319154
0.0319151
0.0319147
0.0319145
0.0319143
0.0319141
0.031914
0.0319139
0.0319138
0.0319138
0.0319137
0.0319137
0.0319137
0.0319137
0.0319137
0.0319137
0.0319137
0.0319137
0.0319138
0.0319138
0.0319139
0.031914
0.0319141
0.0319143
0.0319145
0.0319147
0.0319151
0.0319154
0.0319159
0.0319165
0.0319173
0.0319183
0.0319195
0.031921
0.0319228
0.0319251
0.0319279
0.0319313
0.0319355
0.0319405
0.0319463
0.031953
0.0319601
0.031966
0.0152472
0.0152461
0.0152442
0.0152423
0.0152407
0.0152393
0.0152381
0.0152371
0.0152363
0.0152356
0.0152351
0.0152347
0.0152343
0.015234
0.0152338
0.0152336
0.0152335
0.0152333
0.0152332
0.0152332
0.0152331
0.0152331
0.015233
0.015233
0.015233
0.015233
0.0152329
0.0152329
0.0152329
0.0152329
0.0152329
0.0152329
0.0152329
0.0152329
0.015233
0.015233
0.015233
0.015233
0.0152331
0.0152331
0.0152332
0.0152332
0.0152333
0.0152335
0.0152336
0.0152338
0.015234
0.0152343
0.0152347
0.0152351
0.0152356
0.0152363
0.0152371
0.0152381
0.0152393
0.0152407
0.0152423
0.0152442
0.0152461
0.0152472
0.0101238
0.0101249
0.0101255
0.010126
0.0101264
0.0101266
0.0101269
0.0101271
0.0101272
0.0101273
0.0101274
0.0101275
0.0101275
0.0101276
0.0101276
0.0101276
0.0101276
0.0101277
0.0101277
0.0101277
0.0101277
0.0101277
0.0101277
0.0101277
0.0101277
0.0101277
0.0101277
0.0101277
0.0101277
0.0101277
0.0101277
0.0101277
0.0101277
0.0101277
0.0101277
0.0101277
0.0101277
0.0101277
0.0101277
0.0101277
0.0101277
0.0101277
0.0101277
0.0101276
0.0101276
0.0101276
0.0101276
0.0101275
0.0101275
0.0101274
0.0101273
0.0101272
0.0101271
0.0101269
0.0101266
0.0101264
0.010126
0.0101255
0.0101249
0.0101238
0.00861185
0.00861397
0.00861569
0.00861714
0.00861836
0.00861938
0.00862022
0.00862091
0.00862146
0.00862191
0.00862226
0.00862255
0.00862277
0.00862295
0.00862309
0.0086232
0.00862329
0.00862336
0.00862342
0.00862346
0.00862349
0.00862352
0.00862354
0.00862356
0.00862357
0.00862358
0.00862359
0.00862359
0.0086236
0.0086236
0.0086236
0.0086236
0.00862359
0.00862359
0.00862358
0.00862357
0.00862356
0.00862354
0.00862352
0.00862349
0.00862346
0.00862342
0.00862336
0.00862329
0.0086232
0.00862309
0.00862295
0.00862277
0.00862255
0.00862226
0.00862191
0.00862146
0.00862091
0.00862022
0.00861938
0.00861836
0.00861714
0.00861569
0.00861397
0.00861185
0.00821758
0.00822011
0.00822225
0.0082241
0.00822567
0.00822699
0.00822807
0.00822896
0.00822968
0.00823026
0.00823073
0.0082311
0.00823139
0.00823163
0.00823181
0.00823196
0.00823208
0.00823217
0.00823224
0.0082323
0.00823235
0.00823238
0.00823241
0.00823243
0.00823245
0.00823246
0.00823247
0.00823248
0.00823248
0.00823249
0.00823249
0.00823248
0.00823248
0.00823247
0.00823246
0.00823245
0.00823243
0.00823241
0.00823238
0.00823235
0.0082323
0.00823224
0.00823217
0.00823208
0.00823196
0.00823181
0.00823163
0.00823139
0.0082311
0.00823073
0.00823026
0.00822968
0.00822896
0.00822807
0.00822699
0.00822567
0.0082241
0.00822225
0.00822011
0.00821758
0.0081637
0.0081664
0.00816873
0.00817075
0.00817246
0.00817389
0.00817508
0.00817605
0.00817684
0.00817748
0.00817799
0.00817839
0.00817872
0.00817897
0.00817918
0.00817934
0.00817947
0.00817957
0.00817965
0.00817972
0.00817977
0.00817981
0.00817984
0.00817986
0.00817988
0.0081799
0.00817991
0.00817991
0.00817992
0.00817992
0.00817992
0.00817992
0.00817991
0.00817991
0.0081799
0.00817988
0.00817986
0.00817984
0.00817981
0.00817977
0.00817972
0.00817965
0.00817957
0.00817947
0.00817934
0.00817918
0.00817897
0.00817872
0.00817839
0.00817799
0.00817748
0.00817684
0.00817605
0.00817508
0.00817389
0.00817246
0.00817075
0.00816873
0.0081664
0.0081637
0.00821353
0.00821633
0.00821875
0.00822084
0.00822263
0.00822412
0.00822535
0.00822637
0.00822719
0.00822785
0.00822838
0.00822881
0.00822914
0.00822941
0.00822963
0.0082298
0.00822993
0.00823004
0.00823012
0.00823019
0.00823024
0.00823028
0.00823031
0.00823034
0.00823036
0.00823038
0.00823039
0.00823039
0.0082304
0.0082304
0.0082304
0.0082304
0.00823039
0.00823039
0.00823038
0.00823036
0.00823034
0.00823031
0.00823028
0.00823024
0.00823019
0.00823012
0.00823004
0.00822993
0.0082298
0.00822963
0.00822941
0.00822914
0.00822881
0.00822838
0.00822785
0.00822719
0.00822637
0.00822535
0.00822412
0.00822263
0.00822084
0.00821875
0.00821633
0.00821353
0.00829733
0.00830019
0.00830267
0.00830482
0.00830665
0.00830819
0.00830945
0.00831049
0.00831133
0.00831201
0.00831256
0.008313
0.00831334
0.00831362
0.00831384
0.00831401
0.00831415
0.00831426
0.00831435
0.00831442
0.00831447
0.00831451
0.00831455
0.00831457
0.0083146
0.00831461
0.00831462
0.00831463
0.00831464
0.00831464
0.00831464
0.00831464
0.00831463
0.00831462
0.00831461
0.0083146
0.00831457
0.00831455
0.00831451
0.00831447
0.00831442
0.00831435
0.00831426
0.00831415
0.00831401
0.00831384
0.00831362
0.00831334
0.008313
0.00831256
0.00831201
0.00831133
0.00831049
0.00830945
0.00830819
0.00830665
0.00830482
0.00830267
0.00830019
0.00829733
0.0083955
0.00839843
0.00840097
0.00840316
0.00840503
0.0084066
0.00840789
0.00840895
0.00840982
0.00841051
0.00841107
0.00841152
0.00841188
0.00841216
0.00841238
0.00841256
0.0084127
0.00841281
0.0084129
0.00841297
0.00841303
0.00841307
0.00841311
0.00841314
0.00841316
0.00841317
0.00841318
0.00841319
0.0084132
0.0084132
0.0084132
0.0084132
0.00841319
0.00841318
0.00841317
0.00841316
0.00841314
0.00841311
0.00841307
0.00841303
0.00841297
0.0084129
0.00841281
0.0084127
0.00841256
0.00841238
0.00841216
0.00841188
0.00841152
0.00841107
0.00841051
0.00840982
0.00840895
0.00840789
0.0084066
0.00840503
0.00840316
0.00840097
0.00839843
0.0083955
0.00850311
0.0085061
0.00850869
0.00851093
0.00851284
0.00851444
0.00851577
0.00851685
0.00851774
0.00851845
0.00851902
0.00851948
0.00851984
0.00852013
0.00852036
0.00852054
0.00852069
0.0085208
0.0085209
0.00852097
0.00852102
0.00852107
0.0085211
0.00852113
0.00852115
0.00852117
0.00852118
0.00852119
0.0085212
0.0085212
0.0085212
0.0085212
0.00852119
0.00852118
0.00852117
0.00852115
0.00852113
0.0085211
0.00852107
0.00852102
0.00852097
0.0085209
0.0085208
0.00852069
0.00852054
0.00852036
0.00852013
0.00851984
0.00851948
0.00851902
0.00851845
0.00851774
0.00851685
0.00851577
0.00851444
0.00851284
0.00851093
0.00850869
0.0085061
0.00850311
0.00861939
0.00862245
0.0086251
0.0086274
0.00862935
0.00863099
0.00863235
0.00863346
0.00863436
0.00863509
0.00863568
0.00863614
0.00863652
0.00863681
0.00863705
0.00863724
0.00863739
0.0086375
0.0086376
0.00863767
0.00863773
0.00863778
0.00863781
0.00863784
0.00863786
0.00863788
0.00863789
0.0086379
0.00863791
0.00863791
0.00863791
0.00863791
0.0086379
0.00863789
0.00863788
0.00863786
0.00863784
0.00863781
0.00863778
0.00863773
0.00863767
0.0086376
0.0086375
0.00863739
0.00863724
0.00863705
0.00863681
0.00863652
0.00863614
0.00863568
0.00863509
0.00863436
0.00863346
0.00863235
0.00863099
0.00862935
0.0086274
0.0086251
0.00862245
0.00861939
0.00874484
0.00874799
0.0087507
0.00875305
0.00875506
0.00875673
0.00875812
0.00875926
0.00876019
0.00876093
0.00876153
0.00876201
0.0087624
0.0087627
0.00876294
0.00876314
0.00876329
0.00876341
0.00876351
0.00876358
0.00876364
0.00876369
0.00876373
0.00876376
0.00876378
0.0087638
0.00876381
0.00876382
0.00876382
0.00876383
0.00876383
0.00876382
0.00876382
0.00876381
0.0087638
0.00876378
0.00876376
0.00876373
0.00876369
0.00876364
0.00876358
0.00876351
0.00876341
0.00876329
0.00876314
0.00876294
0.0087627
0.0087624
0.00876201
0.00876153
0.00876093
0.00876019
0.00875926
0.00875812
0.00875673
0.00875506
0.00875305
0.0087507
0.00874799
0.00874484
0.00888039
0.00888362
0.0088864
0.00888882
0.00889087
0.00889259
0.00889402
0.00889519
0.00889614
0.0088969
0.00889752
0.00889801
0.00889841
0.00889872
0.00889897
0.00889917
0.00889932
0.00889945
0.00889955
0.00889962
0.00889969
0.00889973
0.00889977
0.0088998
0.00889983
0.00889984
0.00889986
0.00889987
0.00889987
0.00889988
0.00889988
0.00889987
0.00889987
0.00889986
0.00889984
0.00889983
0.0088998
0.00889977
0.00889973
0.00889969
0.00889962
0.00889955
0.00889945
0.00889932
0.00889917
0.00889897
0.00889872
0.00889841
0.00889801
0.00889752
0.0088969
0.00889614
0.00889519
0.00889402
0.00889259
0.00889087
0.00888882
0.0088864
0.00888362
0.00888039
0.00902718
0.00903051
0.00903337
0.00903585
0.00903796
0.00903973
0.0090412
0.0090424
0.00904338
0.00904417
0.0090448
0.00904531
0.00904571
0.00904604
0.00904629
0.0090465
0.00904666
0.00904679
0.00904689
0.00904697
0.00904703
0.00904708
0.00904712
0.00904715
0.00904718
0.00904719
0.00904721
0.00904722
0.00904722
0.00904723
0.00904723
0.00904722
0.00904722
0.00904721
0.00904719
0.00904718
0.00904715
0.00904712
0.00904708
0.00904703
0.00904697
0.00904689
0.00904679
0.00904666
0.0090465
0.00904629
0.00904604
0.00904571
0.00904531
0.0090448
0.00904417
0.00904338
0.0090424
0.0090412
0.00903973
0.00903796
0.00903585
0.00903337
0.00903051
0.00902718
0.00918661
0.00919004
0.00919299
0.00919554
0.00919772
0.00919954
0.00920105
0.00920229
0.0092033
0.00920411
0.00920477
0.00920529
0.00920571
0.00920604
0.0092063
0.00920651
0.00920668
0.00920681
0.00920692
0.009207
0.00920707
0.00920712
0.00920716
0.00920719
0.00920722
0.00920724
0.00920725
0.00920726
0.00920727
0.00920727
0.00920727
0.00920727
0.00920726
0.00920725
0.00920724
0.00920722
0.00920719
0.00920716
0.00920712
0.00920707
0.009207
0.00920692
0.00920681
0.00920668
0.00920651
0.0092063
0.00920604
0.00920571
0.00920529
0.00920477
0.00920411
0.0092033
0.00920229
0.00920105
0.00919954
0.00919772
0.00919554
0.00919299
0.00919004
0.00918661
0.00936031
0.00936385
0.0093669
0.00936953
0.00937178
0.00937366
0.00937522
0.0093765
0.00937754
0.00937838
0.00937906
0.0093796
0.00938003
0.00938038
0.00938065
0.00938087
0.00938104
0.00938117
0.00938128
0.00938137
0.00938144
0.00938149
0.00938153
0.00938157
0.00938159
0.00938161
0.00938163
0.00938164
0.00938164
0.00938165
0.00938165
0.00938164
0.00938164
0.00938163
0.00938161
0.00938159
0.00938157
0.00938153
0.00938149
0.00938144
0.00938137
0.00938128
0.00938117
0.00938104
0.00938087
0.00938065
0.00938038
0.00938003
0.0093796
0.00937906
0.00937838
0.00937754
0.0093765
0.00937522
0.00937366
0.00937178
0.00936953
0.0093669
0.00936385
0.00936031
0.00955021
0.00955388
0.00955704
0.00955977
0.00956209
0.00956404
0.00956566
0.00956698
0.00956806
0.00956893
0.00956963
0.00957019
0.00957064
0.009571
0.00957128
0.00957151
0.00957168
0.00957183
0.00957194
0.00957203
0.0095721
0.00957215
0.0095722
0.00957223
0.00957226
0.00957228
0.0095723
0.00957231
0.00957231
0.00957232
0.00957232
0.00957231
0.00957231
0.0095723
0.00957228
0.00957226
0.00957223
0.0095722
0.00957215
0.0095721
0.00957203
0.00957194
0.00957183
0.00957168
0.00957151
0.00957128
0.009571
0.00957064
0.00957019
0.00956963
0.00956893
0.00956806
0.00956698
0.00956566
0.00956404
0.00956209
0.00955977
0.00955704
0.00955388
0.00955021
0.00975866
0.00976247
0.00976575
0.00976859
0.009771
0.00977302
0.0097747
0.00977608
0.0097772
0.0097781
0.00977883
0.00977941
0.00977988
0.00978025
0.00978054
0.00978078
0.00978096
0.00978111
0.00978123
0.00978132
0.00978139
0.00978145
0.0097815
0.00978153
0.00978156
0.00978158
0.0097816
0.00978161
0.00978161
0.00978162
0.00978162
0.00978161
0.00978161
0.0097816
0.00978158
0.00978156
0.00978153
0.0097815
0.00978145
0.00978139
0.00978132
0.00978123
0.00978111
0.00978096
0.00978078
0.00978054
0.00978025
0.00977988
0.00977941
0.00977883
0.0097781
0.0097772
0.00977608
0.0097747
0.00977302
0.009771
0.00976859
0.00976575
0.00976247
0.00975866
0.00998846
0.00999244
0.00999585
0.0099988
0.0100013
0.0100034
0.0100052
0.0100066
0.0100078
0.0100087
0.0100095
0.0100101
0.0100106
0.010011
0.0100113
0.0100115
0.0100117
0.0100119
0.010012
0.0100121
0.0100122
0.0100122
0.0100123
0.0100123
0.0100123
0.0100123
0.0100124
0.0100124
0.0100124
0.0100124
0.0100124
0.0100124
0.0100124
0.0100124
0.0100123
0.0100123
0.0100123
0.0100123
0.0100122
0.0100122
0.0100121
0.010012
0.0100119
0.0100117
0.0100115
0.0100113
0.010011
0.0100106
0.0100101
0.0100095
0.0100087
0.0100078
0.0100066
0.0100052
0.0100034
0.0100013
0.0099988
0.00999585
0.00999244
0.00998846
0.0102431
0.0102472
0.0102508
0.0102539
0.0102565
0.0102587
0.0102605
0.010262
0.0102633
0.0102642
0.010265
0.0102657
0.0102662
0.0102666
0.0102669
0.0102672
0.0102674
0.0102675
0.0102677
0.0102678
0.0102678
0.0102679
0.0102679
0.010268
0.010268
0.010268
0.0102681
0.0102681
0.0102681
0.0102681
0.0102681
0.0102681
0.0102681
0.0102681
0.010268
0.010268
0.010268
0.0102679
0.0102679
0.0102678
0.0102678
0.0102677
0.0102675
0.0102674
0.0102672
0.0102669
0.0102666
0.0102662
0.0102657
0.010265
0.0102642
0.0102633
0.010262
0.0102605
0.0102587
0.0102565
0.0102539
0.0102508
0.0102472
0.0102431
0.0105267
0.0105311
0.0105348
0.0105381
0.0105408
0.0105431
0.0105451
0.0105466
0.0105479
0.0105489
0.0105498
0.0105504
0.010551
0.0105514
0.0105517
0.010552
0.0105522
0.0105524
0.0105525
0.0105526
0.0105527
0.0105528
0.0105528
0.0105529
0.0105529
0.0105529
0.010553
0.010553
0.010553
0.010553
0.010553
0.010553
0.010553
0.010553
0.0105529
0.0105529
0.0105529
0.0105528
0.0105528
0.0105527
0.0105526
0.0105525
0.0105524
0.0105522
0.010552
0.0105517
0.0105514
0.010551
0.0105504
0.0105498
0.0105489
0.0105479
0.0105466
0.0105451
0.0105431
0.0105408
0.0105381
0.0105348
0.0105311
0.0105267
0.0108447
0.0108493
0.0108533
0.0108567
0.0108596
0.010862
0.0108641
0.0108657
0.0108671
0.0108682
0.0108691
0.0108698
0.0108703
0.0108708
0.0108711
0.0108714
0.0108716
0.0108718
0.010872
0.0108721
0.0108722
0.0108722
0.0108723
0.0108723
0.0108724
0.0108724
0.0108724
0.0108724
0.0108724
0.0108724
0.0108724
0.0108724
0.0108724
0.0108724
0.0108724
0.0108724
0.0108723
0.0108723
0.0108722
0.0108722
0.0108721
0.010872
0.0108718
0.0108716
0.0108714
0.0108711
0.0108708
0.0108703
0.0108698
0.0108691
0.0108682
0.0108671
0.0108657
0.0108641
0.010862
0.0108596
0.0108567
0.0108533
0.0108493
0.0108447
0.0112038
0.0112087
0.0112129
0.0112165
0.0112196
0.0112222
0.0112243
0.0112261
0.0112275
0.0112287
0.0112296
0.0112304
0.011231
0.0112315
0.0112318
0.0112321
0.0112324
0.0112326
0.0112327
0.0112328
0.0112329
0.011233
0.0112331
0.0112331
0.0112332
0.0112332
0.0112332
0.0112332
0.0112332
0.0112332
0.0112332
0.0112332
0.0112332
0.0112332
0.0112332
0.0112332
0.0112331
0.0112331
0.011233
0.0112329
0.0112328
0.0112327
0.0112326
0.0112324
0.0112321
0.0112318
0.0112315
0.011231
0.0112304
0.0112296
0.0112287
0.0112275
0.0112261
0.0112243
0.0112222
0.0112196
0.0112165
0.0112129
0.0112087
0.0112038
0.0116126
0.0116179
0.0116224
0.0116262
0.0116295
0.0116323
0.0116346
0.0116365
0.0116381
0.0116393
0.0116403
0.0116411
0.0116417
0.0116423
0.0116427
0.011643
0.0116432
0.0116434
0.0116436
0.0116437
0.0116438
0.0116439
0.011644
0.011644
0.0116441
0.0116441
0.0116441
0.0116441
0.0116441
0.0116441
0.0116441
0.0116441
0.0116441
0.0116441
0.0116441
0.0116441
0.011644
0.011644
0.0116439
0.0116438
0.0116437
0.0116436
0.0116434
0.0116432
0.011643
0.0116427
0.0116423
0.0116417
0.0116411
0.0116403
0.0116393
0.0116381
0.0116365
0.0116346
0.0116323
0.0116295
0.0116262
0.0116224
0.0116179
0.0116126
0.0120827
0.0120883
0.0120932
0.0120974
0.0121009
0.0121039
0.0121064
0.0121084
0.0121101
0.0121114
0.0121125
0.0121134
0.0121141
0.0121146
0.0121151
0.0121154
0.0121157
0.0121159
0.0121161
0.0121162
0.0121163
0.0121164
0.0121165
0.0121165
0.0121166
0.0121166
0.0121166
0.0121167
0.0121167
0.0121167
0.0121167
0.0121167
0.0121167
0.0121166
0.0121166
0.0121166
0.0121165
0.0121165
0.0121164
0.0121163
0.0121162
0.0121161
0.0121159
0.0121157
0.0121154
0.0121151
0.0121146
0.0121141
0.0121134
0.0121125
0.0121114
0.0121101
0.0121084
0.0121064
0.0121039
0.0121009
0.0120974
0.0120932
0.0120883
0.0120827
0.0126293
0.0126354
0.0126407
0.0126452
0.0126491
0.0126524
0.0126551
0.0126573
0.0126591
0.0126606
0.0126617
0.0126627
0.0126634
0.012664
0.0126645
0.0126649
0.0126652
0.0126654
0.0126656
0.0126658
0.0126659
0.012666
0.0126661
0.0126661
0.0126662
0.0126662
0.0126662
0.0126662
0.0126663
0.0126663
0.0126663
0.0126663
0.0126662
0.0126662
0.0126662
0.0126662
0.0126661
0.0126661
0.012666
0.0126659
0.0126658
0.0126656
0.0126654
0.0126652
0.0126649
0.0126645
0.012664
0.0126634
0.0126627
0.0126617
0.0126606
0.0126591
0.0126573
0.0126551
0.0126524
0.0126491
0.0126452
0.0126407
0.0126354
0.0126293
0.0132733
0.0132801
0.0132859
0.0132909
0.0132952
0.0132988
0.0133018
0.0133042
0.0133062
0.0133078
0.0133091
0.0133102
0.013311
0.0133117
0.0133122
0.0133126
0.0133129
0.0133132
0.0133134
0.0133136
0.0133137
0.0133138
0.0133139
0.013314
0.013314
0.013314
0.0133141
0.0133141
0.0133141
0.0133141
0.0133141
0.0133141
0.0133141
0.0133141
0.013314
0.013314
0.013314
0.0133139
0.0133138
0.0133137
0.0133136
0.0133134
0.0133132
0.0133129
0.0133126
0.0133122
0.0133117
0.013311
0.0133102
0.0133091
0.0133078
0.0133062
0.0133042
0.0133018
0.0132988
0.0132952
0.0132909
0.0132859
0.0132801
0.0132733
0.0140446
0.0140521
0.0140586
0.0140642
0.014069
0.014073
0.0140763
0.0140791
0.0140813
0.0140831
0.0140846
0.0140857
0.0140867
0.0140874
0.014088
0.0140885
0.0140888
0.0140891
0.0140894
0.0140896
0.0140897
0.0140898
0.0140899
0.01409
0.01409
0.0140901
0.0140901
0.0140901
0.0140902
0.0140902
0.0140902
0.0140902
0.0140901
0.0140901
0.0140901
0.01409
0.01409
0.0140899
0.0140898
0.0140897
0.0140896
0.0140894
0.0140891
0.0140888
0.0140885
0.014088
0.0140874
0.0140867
0.0140857
0.0140846
0.0140831
0.0140813
0.0140791
0.0140763
0.014073
0.014069
0.0140642
0.0140586
0.0140521
0.0140446
0.0149858
0.0149943
0.0150017
0.0150081
0.0150136
0.0150181
0.0150219
0.0150251
0.0150276
0.0150297
0.0150313
0.0150327
0.0150337
0.0150346
0.0150352
0.0150358
0.0150362
0.0150365
0.0150368
0.015037
0.0150372
0.0150373
0.0150374
0.0150375
0.0150376
0.0150376
0.0150377
0.0150377
0.0150377
0.0150377
0.0150377
0.0150377
0.0150377
0.0150377
0.0150376
0.0150376
0.0150375
0.0150374
0.0150373
0.0150372
0.015037
0.0150368
0.0150365
0.0150362
0.0150358
0.0150352
0.0150346
0.0150337
0.0150327
0.0150313
0.0150297
0.0150276
0.0150251
0.0150219
0.0150181
0.0150136
0.0150081
0.0150017
0.0149943
0.0149858
0.0161604
0.0161704
0.0161789
0.0161864
0.0161927
0.0161981
0.0162025
0.0162062
0.0162091
0.0162115
0.0162135
0.016215
0.0162163
0.0162173
0.016218
0.0162187
0.0162192
0.0162196
0.0162199
0.0162201
0.0162203
0.0162205
0.0162206
0.0162207
0.0162208
0.0162208
0.0162209
0.0162209
0.0162209
0.0162209
0.0162209
0.0162209
0.0162209
0.0162209
0.0162208
0.0162208
0.0162207
0.0162206
0.0162205
0.0162203
0.0162201
0.0162199
0.0162196
0.0162192
0.0162187
0.016218
0.0162173
0.0162163
0.016215
0.0162135
0.0162115
0.0162091
0.0162062
0.0162025
0.0161981
0.0161927
0.0161864
0.0161789
0.0161704
0.0161604
0.0176634
0.0176752
0.0176855
0.0176944
0.017702
0.0177084
0.0177137
0.0177181
0.0177216
0.0177245
0.0177268
0.0177287
0.0177302
0.0177314
0.0177323
0.0177331
0.0177336
0.0177341
0.0177345
0.0177348
0.017735
0.0177352
0.0177354
0.0177355
0.0177356
0.0177356
0.0177357
0.0177357
0.0177358
0.0177358
0.0177358
0.0177358
0.0177357
0.0177357
0.0177356
0.0177356
0.0177355
0.0177354
0.0177352
0.017735
0.0177348
0.0177345
0.0177341
0.0177336
0.0177331
0.0177323
0.0177314
0.0177302
0.0177287
0.0177268
0.0177245
0.0177216
0.0177181
0.0177137
0.0177084
0.017702
0.0176944
0.0176855
0.0176752
0.0176634
0.0196342
0.0196486
0.0196613
0.0196723
0.0196816
0.0196895
0.0196961
0.0197015
0.0197059
0.0197094
0.0197123
0.0197146
0.0197164
0.0197179
0.019719
0.01972
0.0197207
0.0197213
0.0197217
0.0197221
0.0197224
0.0197226
0.0197228
0.019723
0.0197231
0.0197232
0.0197232
0.0197233
0.0197233
0.0197233
0.0197233
0.0197233
0.0197233
0.0197232
0.0197232
0.0197231
0.019723
0.0197228
0.0197226
0.0197224
0.0197221
0.0197217
0.0197213
0.0197207
0.01972
0.019719
0.0197179
0.0197164
0.0197146
0.0197123
0.0197094
0.0197059
0.0197015
0.0196961
0.0196895
0.0196816
0.0196723
0.0196613
0.0196486
0.0196342
0.022267
0.0222852
0.0223011
0.022315
0.0223268
0.0223368
0.0223451
0.0223519
0.0223574
0.0223619
0.0223655
0.0223684
0.0223708
0.0223726
0.0223741
0.0223753
0.0223762
0.0223769
0.0223775
0.022378
0.0223784
0.0223786
0.0223789
0.0223791
0.0223792
0.0223793
0.0223794
0.0223794
0.0223795
0.0223795
0.0223795
0.0223795
0.0223794
0.0223794
0.0223793
0.0223792
0.0223791
0.0223789
0.0223786
0.0223784
0.022378
0.0223775
0.0223769
0.0223762
0.0223753
0.0223741
0.0223726
0.0223708
0.0223684
0.0223655
0.0223619
0.0223574
0.0223519
0.0223451
0.0223368
0.0223268
0.022315
0.0223011
0.0222852
0.022267
0.0258033
0.0258265
0.0258468
0.0258646
0.0258798
0.0258925
0.0259031
0.0259119
0.025919
0.0259247
0.0259294
0.0259331
0.0259361
0.0259385
0.0259404
0.0259419
0.0259431
0.025944
0.0259448
0.0259454
0.0259458
0.0259462
0.0259465
0.0259467
0.0259469
0.0259471
0.0259472
0.0259472
0.0259473
0.0259473
0.0259473
0.0259473
0.0259472
0.0259472
0.0259471
0.0259469
0.0259467
0.0259465
0.0259462
0.0259458
0.0259454
0.0259448
0.025944
0.0259431
0.0259419
0.0259404
0.0259385
0.0259361
0.0259331
0.0259294
0.0259247
0.025919
0.0259119
0.0259031
0.0258925
0.0258798
0.0258646
0.0258468
0.0258265
0.0258033
0.0304907
0.0305203
0.0305463
0.0305689
0.0305883
0.0306046
0.0306181
0.0306293
0.0306383
0.0306457
0.0306516
0.0306564
0.0306602
0.0306633
0.0306657
0.0306676
0.0306691
0.0306703
0.0306713
0.0306721
0.0306727
0.0306732
0.0306736
0.0306738
0.0306741
0.0306743
0.0306744
0.0306745
0.0306745
0.0306746
0.0306746
0.0306745
0.0306745
0.0306744
0.0306743
0.0306741
0.0306738
0.0306736
0.0306732
0.0306727
0.0306721
0.0306713
0.0306703
0.0306691
0.0306676
0.0306657
0.0306633
0.0306602
0.0306564
0.0306516
0.0306457
0.0306383
0.0306293
0.0306181
0.0306046
0.0305883
0.0305689
0.0305463
0.0305203
0.0304907
0.0365076
0.0365446
0.0365771
0.0366054
0.0366296
0.03665
0.0366669
0.0366808
0.0366922
0.0367014
0.0367088
0.0367148
0.0367196
0.0367234
0.0367264
0.0367288
0.0367308
0.0367323
0.0367335
0.0367345
0.0367352
0.0367358
0.0367363
0.0367367
0.036737
0.0367372
0.0367374
0.0367375
0.0367376
0.0367376
0.0367376
0.0367376
0.0367375
0.0367374
0.0367372
0.036737
0.0367367
0.0367363
0.0367358
0.0367352
0.0367345
0.0367335
0.0367323
0.0367308
0.0367288
0.0367264
0.0367234
0.0367196
0.0367148
0.0367088
0.0367014
0.0366922
0.0366808
0.0366669
0.03665
0.0366296
0.0366054
0.0365771
0.0365446
0.0365076
0.0438879
0.0439328
0.0439722
0.0440065
0.0440358
0.0440604
0.0440809
0.0440977
0.0441115
0.0441227
0.0441317
0.0441389
0.0441447
0.0441494
0.0441531
0.044156
0.0441583
0.0441602
0.0441617
0.0441629
0.0441638
0.0441645
0.0441651
0.0441656
0.0441659
0.0441662
0.0441664
0.0441666
0.0441666
0.0441667
0.0441667
0.0441666
0.0441666
0.0441664
0.0441662
0.0441659
0.0441656
0.0441651
0.0441645
0.0441638
0.0441629
0.0441617
0.0441602
0.0441583
0.044156
0.0441531
0.0441494
0.0441447
0.0441389
0.0441317
0.0441227
0.0441115
0.0440977
0.0440809
0.0440604
0.0440358
0.0440065
0.0439722
0.0439328
0.0438879
0.0525016
0.0525542
0.0526003
0.0526404
0.0526746
0.0527033
0.0527273
0.052747
0.0527631
0.0527762
0.0527867
0.0527952
0.052802
0.0528075
0.0528118
0.0528153
0.052818
0.0528202
0.052822
0.0528234
0.0528245
0.0528253
0.052826
0.0528266
0.052827
0.0528273
0.0528276
0.0528277
0.0528278
0.0528279
0.0528279
0.0528278
0.0528277
0.0528276
0.0528273
0.052827
0.0528266
0.052826
0.0528253
0.0528245
0.0528234
0.052822
0.0528202
0.052818
0.0528153
0.0528118
0.0528075
0.052802
0.0527952
0.0527867
0.0527762
0.0527631
0.052747
0.0527273
0.0527033
0.0526746
0.0526404
0.0526003
0.0525542
0.0525016
0.0621085
0.0621685
0.0622207
0.0622661
0.0623048
0.0623374
0.0623645
0.0623869
0.0624052
0.06242
0.062432
0.0624417
0.0624494
0.0624556
0.0624606
0.0624645
0.0624677
0.0624702
0.0624722
0.0624737
0.062475
0.062476
0.0624768
0.0624774
0.0624779
0.0624783
0.0624786
0.0624788
0.0624789
0.062479
0.062479
0.0624789
0.0624788
0.0624786
0.0624783
0.0624779
0.0624774
0.0624768
0.062476
0.062475
0.0624737
0.0624722
0.0624702
0.0624677
0.0624645
0.0624606
0.0624556
0.0624494
0.0624417
0.062432
0.06242
0.0624052
0.0623869
0.0623645
0.0623374
0.0623048
0.0622661
0.0622207
0.0621685
0.0621085
0.0724477
0.0725143
0.0725722
0.0726224
0.0726652
0.0727012
0.0727313
0.072756
0.0727763
0.0727928
0.0728061
0.0728168
0.0728254
0.0728323
0.0728379
0.0728423
0.0728458
0.0728486
0.0728508
0.0728526
0.072854
0.0728552
0.0728561
0.0728568
0.0728573
0.0728577
0.072858
0.0728583
0.0728584
0.0728585
0.0728585
0.0728584
0.0728583
0.072858
0.0728577
0.0728573
0.0728568
0.0728561
0.0728552
0.072854
0.0728526
0.0728508
0.0728486
0.0728458
0.0728423
0.0728379
0.0728323
0.0728254
0.0728168
0.0728061
0.0727928
0.0727763
0.072756
0.0727313
0.0727012
0.0726652
0.0726224
0.0725722
0.0725143
0.0724477
0.0833031
0.0833759
0.083439
0.0834935
0.0835401
0.0835793
0.083612
0.083639
0.0836611
0.0836791
0.0836937
0.0837054
0.0837149
0.0837224
0.0837285
0.0837333
0.0837372
0.0837403
0.0837428
0.0837447
0.0837463
0.0837476
0.0837486
0.0837493
0.0837499
0.0837504
0.0837508
0.083751
0.0837512
0.0837512
0.0837512
0.0837512
0.083751
0.0837508
0.0837504
0.0837499
0.0837493
0.0837486
0.0837476
0.0837463
0.0837447
0.0837428
0.0837403
0.0837372
0.0837333
0.0837285
0.0837224
0.0837149
0.0837054
0.0836937
0.0836791
0.0836611
0.083639
0.083612
0.0835793
0.0835401
0.0834935
0.083439
0.0833759
0.0833031
0.0945251
0.0946036
0.0946716
0.0947303
0.0947804
0.0948226
0.0948578
0.0948869
0.0949108
0.0949303
0.094946
0.0949588
0.094969
0.0949772
0.0949838
0.0949891
0.0949933
0.0949967
0.0949994
0.0950016
0.0950033
0.0950046
0.0950057
0.0950066
0.0950073
0.0950078
0.0950081
0.0950084
0.0950086
0.0950087
0.0950087
0.0950086
0.0950084
0.0950081
0.0950078
0.0950073
0.0950066
0.0950057
0.0950046
0.0950033
0.0950016
0.0949994
0.0949967
0.0949933
0.0949891
0.0949838
0.0949772
0.094969
0.0949588
0.094946
0.0949303
0.0949108
0.0948869
0.0948578
0.0948226
0.0947804
0.0947303
0.0946716
0.0946036
0.0945251
0.10602
0.106104
0.106177
0.10624
0.106293
0.106338
0.106376
0.106407
0.106433
0.106454
0.106471
0.106484
0.106496
0.106504
0.106512
0.106517
0.106522
0.106525
0.106528
0.106531
0.106533
0.106534
0.106535
0.106536
0.106537
0.106538
0.106538
0.106538
0.106538
0.106539
0.106539
0.106538
0.106538
0.106538
0.106538
0.106537
0.106536
0.106535
0.106534
0.106533
0.106531
0.106528
0.106525
0.106522
0.106517
0.106512
0.106504
0.106496
0.106484
0.106471
0.106454
0.106433
0.106407
0.106376
0.106338
0.106293
0.10624
0.106177
0.106104
0.10602
0.117733
0.117823
0.1179
0.117967
0.118023
0.118071
0.118112
0.118145
0.118172
0.118194
0.118213
0.118227
0.118239
0.118249
0.118256
0.118262
0.118267
0.118271
0.118275
0.118277
0.118279
0.118281
0.118282
0.118283
0.118284
0.118284
0.118285
0.118285
0.118285
0.118285
0.118285
0.118285
0.118285
0.118285
0.118284
0.118284
0.118283
0.118282
0.118281
0.118279
0.118277
0.118275
0.118271
0.118267
0.118262
0.118256
0.118249
0.118239
0.118227
0.118213
0.118194
0.118172
0.118145
0.118112
0.118071
0.118023
0.117967
0.1179
0.117823
0.117733
0.12963
0.129724
0.129806
0.129876
0.129937
0.129987
0.13003
0.130065
0.130094
0.130118
0.130137
0.130153
0.130166
0.130176
0.130184
0.130191
0.130196
0.1302
0.130204
0.130207
0.130209
0.13021
0.130212
0.130213
0.130214
0.130215
0.130215
0.130215
0.130216
0.130216
0.130216
0.130216
0.130215
0.130215
0.130215
0.130214
0.130213
0.130212
0.13021
0.130209
0.130207
0.130204
0.1302
0.130196
0.130191
0.130184
0.130176
0.130166
0.130153
0.130137
0.130118
0.130094
0.130065
0.13003
0.129987
0.129937
0.129876
0.129806
0.129724
0.12963
0.141687
0.141786
0.141873
0.141947
0.14201
0.142064
0.142109
0.142146
0.142177
0.142202
0.142223
0.14224
0.142253
0.142264
0.142273
0.14228
0.142286
0.14229
0.142294
0.142297
0.142299
0.142301
0.142302
0.142304
0.142305
0.142305
0.142306
0.142306
0.142307
0.142307
0.142307
0.142307
0.142306
0.142306
0.142305
0.142305
0.142304
0.142302
0.142301
0.142299
0.142297
0.142294
0.14229
0.142286
0.14228
0.142273
0.142264
0.142253
0.14224
0.142223
0.142202
0.142177
0.142146
0.142109
0.142064
0.14201
0.141947
0.141873
0.141786
0.141687
0.153888
0.153993
0.154083
0.154161
0.154228
0.154285