/*--------------------------------*- C++ -*----------------------------------*\
| =========                 |                                                 |
| \\      /  F ield         | foam-extend: Open Source CFD                    |
|  \\    /   O peration     | Version:     4.0                                |
|   \\  /    A nd           | Web:         http://www.foam-extend.org         |
|    \\/     M anipulation  |                                                 |
\*---------------------------------------------------------------------------*/
FoamFile
{
    version     2.0;
    format      ascii;
    class       volScalarField;
    location    "390";
    object      cMinus;
}
// * * * * * * * * * * * * * * * * * * * * * * * * * * * * * * * * * * * * * //

dimensions      [0 0 0 0 0 0 0];

internalField   nonuniform List<scalar> 
6960
(
3.31722e-14
3.31481e-14
3.31932e-14
3.32056e-14
3.32049e-14
3.31986e-14
3.31892e-14
3.3178e-14
3.31654e-14
3.31518e-14
3.31374e-14
3.31227e-14
3.31077e-14
3.30927e-14
3.3078e-14
3.30638e-14
3.305e-14
3.3037e-14
3.30248e-14
3.30134e-14
3.3003e-14
3.29935e-14
3.29851e-14
3.29777e-14
3.29714e-14
3.29661e-14
3.29618e-14
3.29587e-14
3.29565e-14
3.29555e-14
3.29555e-14
3.29565e-14
3.29587e-14
3.29618e-14
3.29661e-14
3.29714e-14
3.29777e-14
3.29851e-14
3.29935e-14
3.3003e-14
3.30134e-14
3.30248e-14
3.3037e-14
3.305e-14
3.30638e-14
3.3078e-14
3.30927e-14
3.31077e-14
3.31227e-14
3.31374e-14
3.31518e-14
3.31654e-14
3.3178e-14
3.31892e-14
3.31986e-14
3.32049e-14
3.32056e-14
3.31932e-14
3.31481e-14
3.31722e-14
6.71669e-14
6.71462e-14
6.72052e-14
6.7221e-14
6.722e-14
6.72116e-14
6.71992e-14
6.7184e-14
6.71668e-14
6.71479e-14
6.7128e-14
6.71073e-14
6.70862e-14
6.70651e-14
6.70443e-14
6.7024e-14
6.70045e-14
6.69859e-14
6.69685e-14
6.69523e-14
6.69374e-14
6.69239e-14
6.69119e-14
6.69013e-14
6.68923e-14
6.68847e-14
6.68787e-14
6.68742e-14
6.68711e-14
6.68696e-14
6.68696e-14
6.68711e-14
6.68742e-14
6.68787e-14
6.68847e-14
6.68923e-14
6.69013e-14
6.69119e-14
6.69239e-14
6.69374e-14
6.69523e-14
6.69685e-14
6.69859e-14
6.70045e-14
6.7024e-14
6.70443e-14
6.70651e-14
6.70862e-14
6.71073e-14
6.7128e-14
6.71479e-14
6.71668e-14
6.7184e-14
6.71992e-14
6.72116e-14
6.722e-14
6.7221e-14
6.72052e-14
6.71462e-14
6.71669e-14
3.0072e-13
3.00776e-13
3.00953e-13
3.01003e-13
3.01007e-13
3.0099e-13
3.00961e-13
3.00924e-13
3.0088e-13
3.00831e-13
3.00778e-13
3.00723e-13
3.00665e-13
3.00608e-13
3.00551e-13
3.00495e-13
3.0044e-13
3.00389e-13
3.0034e-13
3.00295e-13
3.00254e-13
3.00216e-13
3.00183e-13
3.00153e-13
3.00128e-13
3.00107e-13
3.0009e-13
3.00077e-13
3.00069e-13
3.00065e-13
3.00065e-13
3.00069e-13
3.00077e-13
3.0009e-13
3.00107e-13
3.00128e-13
3.00153e-13
3.00183e-13
3.00216e-13
3.00254e-13
3.00295e-13
3.0034e-13
3.00389e-13
3.0044e-13
3.00495e-13
3.00551e-13
3.00608e-13
3.00665e-13
3.00723e-13
3.00778e-13
3.00831e-13
3.0088e-13
3.00924e-13
3.00961e-13
3.0099e-13
3.01007e-13
3.01003e-13
3.00953e-13
3.00776e-13
3.0072e-13
1.65984e-12
1.66127e-12
1.6621e-12
1.66238e-12
1.66248e-12
1.6625e-12
1.66248e-12
1.66243e-12
1.66235e-12
1.66225e-12
1.66214e-12
1.66202e-12
1.66188e-12
1.66175e-12
1.66161e-12
1.66147e-12
1.66133e-12
1.6612e-12
1.66108e-12
1.66096e-12
1.66086e-12
1.66076e-12
1.66068e-12
1.6606e-12
1.66054e-12
1.66048e-12
1.66044e-12
1.66041e-12
1.66039e-12
1.66038e-12
1.66038e-12
1.66039e-12
1.66041e-12
1.66044e-12
1.66048e-12
1.66054e-12
1.6606e-12
1.66068e-12
1.66076e-12
1.66086e-12
1.66096e-12
1.66108e-12
1.6612e-12
1.66133e-12
1.66147e-12
1.66161e-12
1.66175e-12
1.66188e-12
1.66202e-12
1.66214e-12
1.66225e-12
1.66235e-12
1.66243e-12
1.66248e-12
1.6625e-12
1.66248e-12
1.66238e-12
1.6621e-12
1.66127e-12
1.65984e-12
1.05129e-11
1.05306e-11
1.05369e-11
1.05394e-11
1.05407e-11
1.05415e-11
1.0542e-11
1.05424e-11
1.05427e-11
1.05429e-11
1.05431e-11
1.05431e-11
1.05432e-11
1.05431e-11
1.05431e-11
1.0543e-11
1.05429e-11
1.05429e-11
1.05428e-11
1.05427e-11
1.05426e-11
1.05425e-11
1.05424e-11
1.05424e-11
1.05423e-11
1.05423e-11
1.05422e-11
1.05422e-11
1.05422e-11
1.05422e-11
1.05422e-11
1.05422e-11
1.05422e-11
1.05422e-11
1.05423e-11
1.05423e-11
1.05424e-11
1.05424e-11
1.05425e-11
1.05426e-11
1.05427e-11
1.05428e-11
1.05429e-11
1.05429e-11
1.0543e-11
1.05431e-11
1.05431e-11
1.05432e-11
1.05431e-11
1.05431e-11
1.05429e-11
1.05427e-11
1.05424e-11
1.0542e-11
1.05415e-11
1.05407e-11
1.05394e-11
1.05369e-11
1.05306e-11
1.05129e-11
7.27826e-11
7.2967e-11
7.30275e-11
7.30529e-11
7.30659e-11
7.30744e-11
7.30811e-11
7.3087e-11
7.30924e-11
7.30972e-11
7.31017e-11
7.31057e-11
7.31095e-11
7.31129e-11
7.3116e-11
7.31189e-11
7.31215e-11
7.31239e-11
7.31261e-11
7.31281e-11
7.31299e-11
7.31315e-11
7.3133e-11
7.31343e-11
7.31354e-11
7.31363e-11
7.3137e-11
7.31376e-11
7.31379e-11
7.31381e-11
7.31381e-11
7.31379e-11
7.31376e-11
7.3137e-11
7.31363e-11
7.31354e-11
7.31343e-11
7.3133e-11
7.31315e-11
7.31299e-11
7.31281e-11
7.31261e-11
7.31239e-11
7.31215e-11
7.31189e-11
7.3116e-11
7.31129e-11
7.31095e-11
7.31057e-11
7.31017e-11
7.30972e-11
7.30924e-11
7.3087e-11
7.30811e-11
7.30744e-11
7.30659e-11
7.30529e-11
7.30275e-11
7.2967e-11
7.27826e-11
5.23968e-10
5.25708e-10
5.26295e-10
5.2654e-10
5.26661e-10
5.26738e-10
5.26799e-10
5.26852e-10
5.26902e-10
5.26949e-10
5.26993e-10
5.27035e-10
5.27074e-10
5.27111e-10
5.27146e-10
5.27178e-10
5.27208e-10
5.27236e-10
5.27262e-10
5.27285e-10
5.27307e-10
5.27326e-10
5.27343e-10
5.27359e-10
5.27372e-10
5.27383e-10
5.27391e-10
5.27398e-10
5.27402e-10
5.27404e-10
5.27404e-10
5.27402e-10
5.27398e-10
5.27391e-10
5.27383e-10
5.27372e-10
5.27359e-10
5.27343e-10
5.27326e-10
5.27307e-10
5.27285e-10
5.27262e-10
5.27236e-10
5.27208e-10
5.27178e-10
5.27146e-10
5.27111e-10
5.27074e-10
5.27035e-10
5.26993e-10
5.26949e-10
5.26902e-10
5.26852e-10
5.26799e-10
5.26738e-10
5.26661e-10
5.2654e-10
5.26295e-10
5.25708e-10
5.23968e-10
3.7734e-09
3.78854e-09
3.79384e-09
3.79603e-09
3.79708e-09
3.79771e-09
3.79819e-09
3.79861e-09
3.799e-09
3.79937e-09
3.79972e-09
3.80005e-09
3.80037e-09
3.80067e-09
3.80096e-09
3.80122e-09
3.80147e-09
3.8017e-09
3.80192e-09
3.80211e-09
3.80229e-09
3.80245e-09
3.8026e-09
3.80272e-09
3.80283e-09
3.80292e-09
3.803e-09
3.80305e-09
3.80309e-09
3.8031e-09
3.8031e-09
3.80309e-09
3.80305e-09
3.803e-09
3.80292e-09
3.80283e-09
3.80272e-09
3.8026e-09
3.80245e-09
3.80229e-09
3.80211e-09
3.80192e-09
3.8017e-09
3.80147e-09
3.80122e-09
3.80096e-09
3.80067e-09
3.80037e-09
3.80005e-09
3.79972e-09
3.79937e-09
3.799e-09
3.79861e-09
3.79819e-09
3.79771e-09
3.79708e-09
3.79603e-09
3.79384e-09
3.78854e-09
3.7734e-09
2.64348e-08
2.65562e-08
2.66001e-08
2.6618e-08
2.66263e-08
2.66311e-08
2.66346e-08
2.66376e-08
2.66403e-08
2.6643e-08
2.66455e-08
2.66478e-08
2.66501e-08
2.66523e-08
2.66543e-08
2.66562e-08
2.6658e-08
2.66597e-08
2.66612e-08
2.66626e-08
2.66639e-08
2.66651e-08
2.66661e-08
2.66671e-08
2.66678e-08
2.66685e-08
2.6669e-08
2.66694e-08
2.66697e-08
2.66698e-08
2.66698e-08
2.66697e-08
2.66694e-08
2.6669e-08
2.66685e-08
2.66678e-08
2.66671e-08
2.66661e-08
2.66651e-08
2.66639e-08
2.66626e-08
2.66612e-08
2.66597e-08
2.6658e-08
2.66562e-08
2.66543e-08
2.66523e-08
2.66501e-08
2.66478e-08
2.66455e-08
2.6643e-08
2.66403e-08
2.66376e-08
2.66346e-08
2.66311e-08
2.66263e-08
2.6618e-08
2.66001e-08
2.65562e-08
2.64348e-08
1.76317e-07
1.77208e-07
1.77538e-07
1.77672e-07
1.77732e-07
1.77765e-07
1.77788e-07
1.77808e-07
1.77826e-07
1.77843e-07
1.77859e-07
1.77875e-07
1.7789e-07
1.77904e-07
1.77917e-07
1.77929e-07
1.77941e-07
1.77952e-07
1.77962e-07
1.77971e-07
1.7798e-07
1.77987e-07
1.77994e-07
1.78e-07
1.78005e-07
1.7801e-07
1.78013e-07
1.78016e-07
1.78017e-07
1.78018e-07
1.78018e-07
1.78017e-07
1.78016e-07
1.78013e-07
1.7801e-07
1.78005e-07
1.78e-07
1.77994e-07
1.77987e-07
1.7798e-07
1.77971e-07
1.77962e-07
1.77952e-07
1.77941e-07
1.77929e-07
1.77917e-07
1.77904e-07
1.7789e-07
1.77875e-07
1.77859e-07
1.77843e-07
1.77826e-07
1.77808e-07
1.77788e-07
1.77765e-07
1.77732e-07
1.77672e-07
1.77538e-07
1.77208e-07
1.76317e-07
1.09935e-06
1.10527e-06
1.10751e-06
1.1084e-06
1.1088e-06
1.10901e-06
1.10915e-06
1.10927e-06
1.10938e-06
1.10948e-06
1.10958e-06
1.10967e-06
1.10976e-06
1.10984e-06
1.10992e-06
1.10999e-06
1.11006e-06
1.11013e-06
1.11019e-06
1.11024e-06
1.11029e-06
1.11034e-06
1.11038e-06
1.11041e-06
1.11044e-06
1.11047e-06
1.11049e-06
1.1105e-06
1.11052e-06
1.11052e-06
1.11052e-06
1.11052e-06
1.1105e-06
1.11049e-06
1.11047e-06
1.11044e-06
1.11041e-06
1.11038e-06
1.11034e-06
1.11029e-06
1.11024e-06
1.11019e-06
1.11013e-06
1.11006e-06
1.10999e-06
1.10992e-06
1.10984e-06
1.10976e-06
1.10967e-06
1.10958e-06
1.10948e-06
1.10938e-06
1.10927e-06
1.10915e-06
1.10901e-06
1.1088e-06
1.1084e-06
1.10751e-06
1.10527e-06
1.09935e-06
6.30066e-06
6.33595e-06
6.3494e-06
6.35478e-06
6.35709e-06
6.35829e-06
6.35909e-06
6.35974e-06
6.36033e-06
6.36087e-06
6.36139e-06
6.36189e-06
6.36236e-06
6.3628e-06
6.36323e-06
6.36362e-06
6.364e-06
6.36434e-06
6.36466e-06
6.36496e-06
6.36523e-06
6.36547e-06
6.36569e-06
6.36588e-06
6.36604e-06
6.36618e-06
6.36629e-06
6.36637e-06
6.36642e-06
6.36645e-06
6.36645e-06
6.36642e-06
6.36637e-06
6.36629e-06
6.36618e-06
6.36604e-06
6.36588e-06
6.36569e-06
6.36547e-06
6.36523e-06
6.36496e-06
6.36466e-06
6.36434e-06
6.364e-06
6.36362e-06
6.36323e-06
6.3628e-06
6.36236e-06
6.36189e-06
6.36139e-06
6.36087e-06
6.36033e-06
6.35974e-06
6.35909e-06
6.35829e-06
6.35709e-06
6.35478e-06
6.3494e-06
6.33595e-06
6.30066e-06
3.26597e-05
3.28452e-05
3.29164e-05
3.29448e-05
3.29568e-05
3.29629e-05
3.29669e-05
3.297e-05
3.29728e-05
3.29754e-05
3.29779e-05
3.29803e-05
3.29825e-05
3.29847e-05
3.29867e-05
3.29886e-05
3.29903e-05
3.2992e-05
3.29935e-05
3.29949e-05
3.29962e-05
3.29974e-05
3.29984e-05
3.29993e-05
3.30001e-05
3.30007e-05
3.30013e-05
3.30017e-05
3.30019e-05
3.3002e-05
3.3002e-05
3.30019e-05
3.30017e-05
3.30013e-05
3.30007e-05
3.30001e-05
3.29993e-05
3.29984e-05
3.29974e-05
3.29962e-05
3.29949e-05
3.29935e-05
3.2992e-05
3.29903e-05
3.29886e-05
3.29867e-05
3.29847e-05
3.29825e-05
3.29803e-05
3.29779e-05
3.29754e-05
3.29728e-05
3.297e-05
3.29669e-05
3.29629e-05
3.29568e-05
3.29448e-05
3.29164e-05
3.28452e-05
3.26597e-05
0.000150676
0.000151523
0.00015185
0.000151979
0.000152034
0.000152061
0.000152078
0.000152091
0.000152103
0.000152114
0.000152125
0.000152134
0.000152144
0.000152153
0.000152161
0.000152169
0.000152176
0.000152183
0.00015219
0.000152196
0.000152201
0.000152206
0.00015221
0.000152214
0.000152217
0.00015222
0.000152222
0.000152224
0.000152225
0.000152225
0.000152225
0.000152225
0.000152224
0.000152222
0.00015222
0.000152217
0.000152214
0.00015221
0.000152206
0.000152201
0.000152196
0.00015219
0.000152183
0.000152176
0.000152169
0.000152161
0.000152153
0.000152144
0.000152134
0.000152125
0.000152114
0.000152103
0.000152091
0.000152078
0.000152061
0.000152034
0.000151979
0.00015185
0.000151523
0.000150676
0.000608776
0.000612076
0.000613354
0.000613859
0.000614069
0.000614171
0.000614234
0.000614283
0.000614326
0.000614365
0.000614403
0.000614438
0.000614472
0.000614504
0.000614534
0.000614562
0.000614589
0.000614614
0.000614637
0.000614658
0.000614677
0.000614694
0.00061471
0.000614723
0.000614735
0.000614745
0.000614752
0.000614758
0.000614762
0.000614764
0.000614764
0.000614762
0.000614758
0.000614752
0.000614745
0.000614735
0.000614723
0.00061471
0.000614694
0.000614677
0.000614658
0.000614637
0.000614614
0.000614589
0.000614562
0.000614534
0.000614504
0.000614472
0.000614438
0.000614403
0.000614365
0.000614326
0.000614283
0.000614234
0.000614171
0.000614069
0.000613859
0.000613354
0.000612076
0.000608776
0.00211946
0.00213023
0.00213441
0.00213605
0.00213673
0.00213706
0.00213726
0.00213741
0.00213754
0.00213766
0.00213777
0.00213788
0.00213798
0.00213807
0.00213817
0.00213825
0.00213833
0.00213841
0.00213847
0.00213854
0.0021386
0.00213865
0.00213869
0.00213874
0.00213877
0.0021388
0.00213882
0.00213884
0.00213885
0.00213886
0.00213886
0.00213885
0.00213884
0.00213882
0.0021388
0.00213877
0.00213874
0.00213869
0.00213865
0.0021386
0.00213854
0.00213847
0.00213841
0.00213833
0.00213825
0.00213817
0.00213807
0.00213798
0.00213788
0.00213777
0.00213766
0.00213754
0.00213741
0.00213726
0.00213706
0.00213673
0.00213605
0.00213441
0.00213023
0.00211946
0.00626426
0.00629314
0.00630435
0.00630875
0.00631055
0.00631141
0.00631191
0.00631229
0.00631262
0.00631292
0.0063132
0.00631347
0.00631372
0.00631396
0.00631418
0.0063144
0.0063146
0.00631478
0.00631495
0.00631511
0.00631526
0.00631538
0.0063155
0.0063156
0.00631569
0.00631576
0.00631582
0.00631586
0.00631589
0.00631591
0.00631591
0.00631589
0.00631586
0.00631582
0.00631576
0.00631569
0.0063156
0.0063155
0.00631538
0.00631526
0.00631511
0.00631495
0.00631478
0.0063146
0.0063144
0.00631418
0.00631396
0.00631372
0.00631347
0.0063132
0.00631292
0.00631262
0.00631229
0.00631191
0.00631141
0.00631055
0.00630875
0.00630435
0.00629314
0.00626426
0.0155546
0.0156174
0.0156417
0.0156513
0.0156552
0.015657
0.0156581
0.0156588
0.0156595
0.0156601
0.0156607
0.0156612
0.0156617
0.0156622
0.0156627
0.0156631
0.0156635
0.0156639
0.0156642
0.0156645
0.0156648
0.0156651
0.0156653
0.0156655
0.0156657
0.0156658
0.0156659
0.015666
0.0156661
0.0156661
0.0156661
0.0156661
0.015666
0.0156659
0.0156658
0.0156657
0.0156655
0.0156653
0.0156651
0.0156648
0.0156645
0.0156642
0.0156639
0.0156635
0.0156631
0.0156627
0.0156622
0.0156617
0.0156612
0.0156607
0.0156601
0.0156595
0.0156588
0.0156581
0.015657
0.0156552
0.0156513
0.0156417
0.0156174
0.0155546
0.0324158
0.0325267
0.0325697
0.0325865
0.0325934
0.0325965
0.0325983
0.0325996
0.0326007
0.0326017
0.0326026
0.0326035
0.0326043
0.0326051
0.0326059
0.0326066
0.0326072
0.0326078
0.0326084
0.0326089
0.0326094
0.0326098
0.0326102
0.0326105
0.0326108
0.032611
0.0326112
0.0326114
0.0326115
0.0326115
0.0326115
0.0326115
0.0326114
0.0326112
0.032611
0.0326108
0.0326105
0.0326102
0.0326098
0.0326094
0.0326089
0.0326084
0.0326078
0.0326072
0.0326066
0.0326059
0.0326051
0.0326043
0.0326035
0.0326026
0.0326017
0.0326007
0.0325996
0.0325983
0.0325965
0.0325934
0.0325865
0.0325697
0.0325267
0.0324158
0.0574039
0.0575663
0.0576293
0.0576539
0.0576639
0.0576684
0.0576709
0.0576727
0.0576742
0.0576755
0.0576768
0.057678
0.0576791
0.0576801
0.0576811
0.0576821
0.0576829
0.0576838
0.0576845
0.0576852
0.0576858
0.0576864
0.0576869
0.0576874
0.0576878
0.0576881
0.0576883
0.0576885
0.0576886
0.0576887
0.0576887
0.0576886
0.0576885
0.0576883
0.0576881
0.0576878
0.0576874
0.0576869
0.0576864
0.0576858
0.0576852
0.0576845
0.0576838
0.0576829
0.0576821
0.0576811
0.0576801
0.0576791
0.057678
0.0576768
0.0576755
0.0576742
0.0576727
0.0576709
0.0576684
0.0576639
0.0576539
0.0576293
0.0575663
0.0574039
0.0885566
0.0887627
0.0888426
0.0888739
0.0888865
0.0888921
0.0888952
0.0888973
0.0888991
0.0889006
0.0889021
0.0889035
0.0889048
0.088906
0.0889071
0.0889082
0.0889092
0.0889102
0.088911
0.0889118
0.0889126
0.0889132
0.0889138
0.0889143
0.0889148
0.0889151
0.0889154
0.0889157
0.0889158
0.0889159
0.0889159
0.0889158
0.0889157
0.0889154
0.0889151
0.0889148
0.0889143
0.0889138
0.0889132
0.0889126
0.0889118
0.088911
0.0889102
0.0889092
0.0889082
0.0889071
0.088906
0.0889048
0.0889035
0.0889021
0.0889006
0.0888991
0.0888973
0.0888952
0.0888921
0.0888865
0.0888739
0.0888426
0.0887627
0.0885566
0.122789
0.123027
0.12312
0.123156
0.123171
0.123177
0.12318
0.123183
0.123185
0.123186
0.123188
0.123189
0.123191
0.123192
0.123193
0.123194
0.123195
0.123196
0.123197
0.123198
0.123199
0.123199
0.1232
0.123201
0.123201
0.123201
0.123202
0.123202
0.123202
0.123202
0.123202
0.123202
0.123202
0.123202
0.123201
0.123201
0.123201
0.1232
0.123199
0.123199
0.123198
0.123197
0.123196
0.123195
0.123194
0.123193
0.123192
0.123191
0.123189
0.123188
0.123186
0.123185
0.123183
0.12318
0.123177
0.123171
0.123156
0.12312
0.123027
0.122789
0.157666
0.157927
0.158029
0.158069
0.158086
0.158093
0.158096
0.158099
0.158101
0.158102
0.158104
0.158105
0.158107
0.158108
0.158109
0.15811
0.158111
0.158112
0.158113
0.158114
0.158115
0.158115
0.158116
0.158117
0.158117
0.158117
0.158118
0.158118
0.158118
0.158118
0.158118
0.158118
0.158118
0.158118
0.158117
0.158117
0.158117
0.158116
0.158115
0.158115
0.158114
0.158113
0.158112
0.158111
0.15811
0.158109
0.158108
0.158107
0.158105
0.158104
0.158102
0.158101
0.158099
0.158096
0.158093
0.158086
0.158069
0.158029
0.157927
0.157666
0.191974
0.192254
0.192364
0.192407
0.192424
0.192432
0.192436
0.192438
0.19244
0.192442
0.192443
0.192445
0.192446
0.192447
0.192448
0.19245
0.192451
0.192452
0.192452
0.192453
0.192454
0.192455
0.192455
0.192456
0.192456
0.192457
0.192457
0.192457
0.192457
0.192457
0.192457
0.192457
0.192457
0.192457
0.192457
0.192456
0.192456
0.192455
0.192455
0.192454
0.192453
0.192452
0.192452
0.192451
0.19245
0.192448
0.192447
0.192446
0.192445
0.192443
0.192442
0.19244
0.192438
0.192436
0.192432
0.192424
0.192407
0.192364
0.192254
0.191974
0.225344
0.22564
0.225758
0.225804
0.225823
0.225831
0.225835
0.225838
0.225839
0.225841
0.225843
0.225844
0.225845
0.225846
0.225848
0.225849
0.22585
0.225851
0.225851
0.225852
0.225853
0.225854
0.225854
0.225855
0.225855
0.225855
0.225856
0.225856
0.225856
0.225856
0.225856
0.225856
0.225856
0.225856
0.225855
0.225855
0.225855
0.225854
0.225854
0.225853
0.225852
0.225851
0.225851
0.22585
0.225849
0.225848
0.225846
0.225845
0.225844
0.225843
0.225841
0.225839
0.225838
0.225835
0.225831
0.225823
0.225804
0.225758
0.22564
0.225344
0.257757
0.258068
0.258193
0.258243
0.258263
0.258271
0.258275
0.258278
0.25828
0.258281
0.258283
0.258284
0.258286
0.258287
0.258288
0.258289
0.25829
0.258291
0.258292
0.258292
0.258293
0.258294
0.258294
0.258295
0.258295
0.258295
0.258296
0.258296
0.258296
0.258296
0.258296
0.258296
0.258296
0.258296
0.258295
0.258295
0.258295
0.258294
0.258294
0.258293
0.258292
0.258292
0.258291
0.25829
0.258289
0.258288
0.258287
0.258286
0.258284
0.258283
0.258281
0.25828
0.258278
0.258275
0.258271
0.258263
0.258243
0.258193
0.258068
0.257757
0.289268
0.289593
0.289725
0.289778
0.2898
0.289809
0.289813
0.289816
0.289818
0.289819
0.289821
0.289822
0.289823
0.289824
0.289825
0.289826
0.289827
0.289828
0.289829
0.28983
0.28983
0.289831
0.289832
0.289832
0.289833
0.289833
0.289833
0.289833
0.289833
0.289834
0.289834
0.289833
0.289833
0.289833
0.289833
0.289833
0.289832
0.289832
0.289831
0.28983
0.28983
0.289829
0.289828
0.289827
0.289826
0.289825
0.289824
0.289823
0.289822
0.289821
0.289819
0.289818
0.289816
0.289813
0.289809
0.2898
0.289778
0.289725
0.289593
0.289268
0.319922
0.320259
0.320398
0.320455
0.320478
0.320487
0.320492
0.320495
0.320497
0.320498
0.3205
0.320501
0.320502
0.320503
0.320504
0.320505
0.320506
0.320507
0.320508
0.320508
0.320509
0.32051
0.32051
0.320511
0.320511
0.320511
0.320511
0.320512
0.320512
0.320512
0.320512
0.320512
0.320512
0.320511
0.320511
0.320511
0.320511
0.32051
0.32051
0.320509
0.320508
0.320508
0.320507
0.320506
0.320505
0.320504
0.320503
0.320502
0.320501
0.3205
0.320498
0.320497
0.320495
0.320492
0.320487
0.320478
0.320455
0.320398
0.320259
0.319922
0.349739
0.350088
0.350233
0.350293
0.350317
0.350328
0.350333
0.350335
0.350337
0.350339
0.35034
0.350341
0.350343
0.350344
0.350345
0.350346
0.350346
0.350347
0.350348
0.350349
0.350349
0.35035
0.35035
0.350351
0.350351
0.350351
0.350352
0.350352
0.350352
0.350352
0.350352
0.350352
0.350352
0.350352
0.350351
0.350351
0.350351
0.35035
0.35035
0.350349
0.350349
0.350348
0.350347
0.350346
0.350346
0.350345
0.350344
0.350343
0.350341
0.35034
0.350339
0.350337
0.350335
0.350333
0.350328
0.350317
0.350293
0.350233
0.350088
0.349739
0.378727
0.379085
0.379237
0.3793
0.379326
0.379337
0.379342
0.379345
0.379347
0.379348
0.37935
0.379351
0.379352
0.379353
0.379354
0.379355
0.379355
0.379356
0.379357
0.379358
0.379358
0.379359
0.379359
0.37936
0.37936
0.37936
0.379361
0.379361
0.379361
0.379361
0.379361
0.379361
0.379361
0.379361
0.37936
0.37936
0.37936
0.379359
0.379359
0.379358
0.379358
0.379357
0.379356
0.379355
0.379355
0.379354
0.379353
0.379352
0.379351
0.37935
0.379348
0.379347
0.379345
0.379342
0.379337
0.379326
0.3793
0.379237
0.379085
0.378727
0.406885
0.407251
0.407409
0.407475
0.407503
0.407515
0.40752
0.407523
0.407525
0.407526
0.407528
0.407529
0.40753
0.407531
0.407532
0.407533
0.407533
0.407534
0.407535
0.407535
0.407536
0.407537
0.407537
0.407537
0.407538
0.407538
0.407538
0.407538
0.407539
0.407539
0.407539
0.407539
0.407538
0.407538
0.407538
0.407538
0.407537
0.407537
0.407537
0.407536
0.407535
0.407535
0.407534
0.407533
0.407533
0.407532
0.407531
0.40753
0.407529
0.407528
0.407526
0.407525
0.407523
0.40752
0.407515
0.407503
0.407475
0.407409
0.407251
0.406885
0.434212
0.434585
0.434749
0.434818
0.434847
0.43486
0.434865
0.434868
0.43487
0.434872
0.434873
0.434874
0.434875
0.434876
0.434877
0.434878
0.434878
0.434879
0.43488
0.43488
0.434881
0.434881
0.434882
0.434882
0.434883
0.434883
0.434883
0.434883
0.434883
0.434883
0.434883
0.434883
0.434883
0.434883
0.434883
0.434883
0.434882
0.434882
0.434881
0.434881
0.43488
0.43488
0.434879
0.434878
0.434878
0.434877
0.434876
0.434875
0.434874
0.434873
0.434872
0.43487
0.434868
0.434865
0.43486
0.434847
0.434818
0.434749
0.434585
0.434212
0.460705
0.461084
0.461253
0.461326
0.461356
0.46137
0.461376
0.461379
0.461381
0.461382
0.461383
0.461384
0.461385
0.461386
0.461387
0.461388
0.461389
0.461389
0.46139
0.46139
0.461391
0.461391
0.461392
0.461392
0.461393
0.461393
0.461393
0.461393
0.461393
0.461393
0.461393
0.461393
0.461393
0.461393
0.461393
0.461393
0.461392
0.461392
0.461391
0.461391
0.46139
0.46139
0.461389
0.461389
0.461388
0.461387
0.461386
0.461385
0.461384
0.461383
0.461382
0.461381
0.461379
0.461376
0.46137
0.461356
0.461326
0.461253
0.461084
0.460705
0.486365
0.486749
0.486922
0.486998
0.48703
0.487044
0.487051
0.487054
0.487056
0.487057
0.487058
0.487059
0.48706
0.487061
0.487062
0.487063
0.487063
0.487064
0.487065
0.487065
0.487066
0.487066
0.487067
0.487067
0.487067
0.487067
0.487068
0.487068
0.487068
0.487068
0.487068
0.487068
0.487068
0.487068
0.487067
0.487067
0.487067
0.487067
0.487066
0.487066
0.487065
0.487065
0.487064
0.487063
0.487063
0.487062
0.487061
0.48706
0.487059
0.487058
0.487057
0.487056
0.487054
0.487051
0.487044
0.48703
0.486998
0.486922
0.486749
0.486365
0.511193
0.511579
0.511757
0.511836
0.51187
0.511885
0.511891
0.511895
0.511897
0.511898
0.511899
0.5119
0.511901
0.511902
0.511903
0.511903
0.511904
0.511905
0.511905
0.511906
0.511906
0.511907
0.511907
0.511907
0.511908
0.511908
0.511908
0.511908
0.511908
0.511908
0.511908
0.511908
0.511908
0.511908
0.511908
0.511908
0.511907
0.511907
0.511907
0.511906
0.511906
0.511905
0.511905
0.511904
0.511903
0.511903
0.511902
0.511901
0.5119
0.511899
0.511898
0.511897
0.511895
0.511891
0.511885
0.51187
0.511836
0.511757
0.511579
0.511193
0.53519
0.535578
0.535761
0.535842
0.535878
0.535894
0.535901
0.535904
0.535906
0.535907
0.535908
0.535909
0.53591
0.535911
0.535912
0.535912
0.535913
0.535914
0.535914
0.535915
0.535915
0.535915
0.535916
0.535916
0.535916
0.535917
0.535917
0.535917
0.535917
0.535917
0.535917
0.535917
0.535917
0.535917
0.535917
0.535916
0.535916
0.535916
0.535915
0.535915
0.535915
0.535914
0.535914
0.535913
0.535912
0.535912
0.535911
0.53591
0.535909
0.535908
0.535907
0.535906
0.535904
0.535901
0.535894
0.535878
0.535842
0.535761
0.535578
0.53519
0.558362
0.558751
0.558937
0.559022
0.559059
0.559075
0.559082
0.559086
0.559088
0.55909
0.559091
0.559091
0.559092
0.559093
0.559094
0.559094
0.559095
0.559095
0.559096
0.559096
0.559097
0.559097
0.559097
0.559098
0.559098
0.559098
0.559098
0.559099
0.559099
0.559099
0.559099
0.559099
0.559099
0.559098
0.559098
0.559098
0.559098
0.559097
0.559097
0.559097
0.559096
0.559096
0.559095
0.559095
0.559094
0.559094
0.559093
0.559092
0.559091
0.559091
0.55909
0.559088
0.559086
0.559082
0.559075
0.559059
0.559022
0.558937
0.558751
0.558362
0.580714
0.581103
0.581292
0.58138
0.581418
0.581436
0.581443
0.581447
0.581449
0.581451
0.581452
0.581452
0.581453
0.581454
0.581455
0.581455
0.581456
0.581456
0.581457
0.581457
0.581457
0.581458
0.581458
0.581458
0.581459
0.581459
0.581459
0.581459
0.581459
0.581459
0.581459
0.581459
0.581459
0.581459
0.581459
0.581459
0.581458
0.581458
0.581458
0.581457
0.581457
0.581457
0.581456
0.581456
0.581455
0.581455
0.581454
0.581453
0.581452
0.581452
0.581451
0.581449
0.581447
0.581443
0.581436
0.581418
0.58138
0.581292
0.581103
0.580714
0.602254
0.602643
0.602835
0.602924
0.602965
0.602983
0.602991
0.602995
0.602997
0.602999
0.603
0.603
0.603001
0.603002
0.603002
0.603003
0.603003
0.603004
0.603004
0.603005
0.603005
0.603005
0.603006
0.603006
0.603006
0.603006
0.603006
0.603007
0.603007
0.603007
0.603007
0.603007
0.603007
0.603006
0.603006
0.603006
0.603006
0.603006
0.603005
0.603005
0.603005
0.603004
0.603004
0.603003
0.603003
0.603002
0.603002
0.603001
0.603
0.603
0.602999
0.602997
0.602995
0.602991
0.602983
0.602965
0.602924
0.602835
0.602643
0.602254
0.622992
0.623379
0.623573
0.623665
0.623707
0.623726
0.623735
0.623739
0.623741
0.623742
0.623743
0.623744
0.623745
0.623745
0.623746
0.623746
0.623747
0.623747
0.623748
0.623748
0.623749
0.623749
0.623749
0.623749
0.62375
0.62375
0.62375
0.62375
0.62375
0.62375
0.62375
0.62375
0.62375
0.62375
0.62375
0.62375
0.623749
0.623749
0.623749
0.623749
0.623748
0.623748
0.623747
0.623747
0.623746
0.623746
0.623745
0.623745
0.623744
0.623743
0.623742
0.623741
0.623739
0.623735
0.623726
0.623707
0.623665
0.623573
0.623379
0.622992
0.642938
0.643322
0.643518
0.643612
0.643656
0.643676
0.643685
0.64369
0.643692
0.643693
0.643694
0.643695
0.643695
0.643696
0.643696
0.643697
0.643697
0.643698
0.643698
0.643699
0.643699
0.643699
0.643699
0.6437
0.6437
0.6437
0.6437
0.6437
0.6437
0.6437
0.6437
0.6437
0.6437
0.6437
0.6437
0.6437
0.6437
0.643699
0.643699
0.643699
0.643699
0.643698
0.643698
0.643697
0.643697
0.643696
0.643696
0.643695
0.643695
0.643694
0.643693
0.643692
0.64369
0.643685
0.643676
0.643656
0.643612
0.643518
0.643322
0.642938
0.662105
0.662484
0.662682
0.662778
0.662824
0.662845
0.662854
0.662859
0.662861
0.662863
0.662863
0.662864
0.662865
0.662865
0.662866
0.662866
0.662867
0.662867
0.662867
0.662868
0.662868
0.662868
0.662868
0.662869
0.662869
0.662869
0.662869
0.662869
0.662869
0.662869
0.662869
0.662869
0.662869
0.662869
0.662869
0.662869
0.662869
0.662868
0.662868
0.662868
0.662868
0.662867
0.662867
0.662867
0.662866
0.662866
0.662865
0.662865
0.662864
0.662863
0.662863
0.662861
0.662859
0.662854
0.662845
0.662824
0.662778
0.662682
0.662484
0.662105
0.680504
0.680879
0.681078
0.681176
0.681223
0.681245
0.681255
0.68126
0.681262
0.681264
0.681265
0.681265
0.681266
0.681266
0.681267
0.681267
0.681267
0.681268
0.681268
0.681268
0.681269
0.681269
0.681269
0.681269
0.681269
0.68127
0.68127
0.68127
0.68127
0.68127
0.68127
0.68127
0.68127
0.68127
0.68127
0.681269
0.681269
0.681269
0.681269
0.681269
0.681268
0.681268
0.681268
0.681267
0.681267
0.681267
0.681266
0.681266
0.681265
0.681265
0.681264
0.681262
0.68126
0.681255
0.681245
0.681223
0.681176
0.681078
0.680879
0.680504
0.698151
0.698521
0.69872
0.69882
0.698868
0.698891
0.698902
0.698907
0.698909
0.698911
0.698912
0.698912
0.698913
0.698913
0.698914
0.698914
0.698914
0.698915
0.698915
0.698915
0.698915
0.698916
0.698916
0.698916
0.698916
0.698916
0.698916
0.698917
0.698917
0.698917
0.698917
0.698917
0.698917
0.698916
0.698916
0.698916
0.698916
0.698916
0.698916
0.698915
0.698915
0.698915
0.698915
0.698914
0.698914
0.698914
0.698913
0.698913
0.698912
0.698912
0.698911
0.698909
0.698907
0.698902
0.698891
0.698868
0.69882
0.69872
0.698521
0.698151
0.715059
0.715424
0.715623
0.715725
0.715775
0.715798
0.715809
0.715815
0.715817
0.715819
0.71582
0.71582
0.715821
0.715821
0.715822
0.715822
0.715822
0.715823
0.715823
0.715823
0.715823
0.715823
0.715824
0.715824
0.715824
0.715824
0.715824
0.715824
0.715824
0.715824
0.715824
0.715824
0.715824
0.715824
0.715824
0.715824
0.715824
0.715824
0.715823
0.715823
0.715823
0.715823
0.715823
0.715822
0.715822
0.715822
0.715821
0.715821
0.71582
0.71582
0.715819
0.715817
0.715815
0.715809
0.715798
0.715775
0.715725
0.715623
0.715424
0.715059
0.731246
0.731605
0.731803
0.731907
0.731958
0.731982
0.731994
0.732
0.732002
0.732004
0.732005
0.732005
0.732006
0.732006
0.732006
0.732007
0.732007
0.732007
0.732008
0.732008
0.732008
0.732008
0.732008
0.732008
0.732009
0.732009
0.732009
0.732009
0.732009
0.732009
0.732009
0.732009
0.732009
0.732009
0.732009
0.732009
0.732008
0.732008
0.732008
0.732008
0.732008
0.732008
0.732007
0.732007
0.732007
0.732006
0.732006
0.732006
0.732005
0.732005
0.732004
0.732002
0.732
0.731994
0.731982
0.731958
0.731907
0.731803
0.731605
0.731246
0.746728
0.747079
0.747278
0.747382
0.747434
0.74746
0.747472
0.747478
0.747481
0.747482
0.747483
0.747484
0.747484
0.747485
0.747485
0.747485
0.747485
0.747486
0.747486
0.747486
0.747486
0.747486
0.747486
0.747487
0.747487
0.747487
0.747487
0.747487
0.747487
0.747487
0.747487
0.747487
0.747487
0.747487
0.747487
0.747487
0.747487
0.747486
0.747486
0.747486
0.747486
0.747486
0.747486
0.747485
0.747485
0.747485
0.747485
0.747484
0.747484
0.747483
0.747482
0.747481
0.747478
0.747472
0.74746
0.747434
0.747382
0.747278
0.747079
0.746728
0.761521
0.761866
0.762063
0.762168
0.762221
0.762248
0.762261
0.762267
0.76227
0.762272
0.762273
0.762273
0.762273
0.762274
0.762274
0.762274
0.762274
0.762275
0.762275
0.762275
0.762275
0.762275
0.762275
0.762275
0.762276
0.762276
0.762276
0.762276
0.762276
0.762276
0.762276
0.762276
0.762276
0.762276
0.762276
0.762276
0.762275
0.762275
0.762275
0.762275
0.762275
0.762275
0.762275
0.762274
0.762274
0.762274
0.762274
0.762273
0.762273
0.762273
0.762272
0.76227
0.762267
0.762261
0.762248
0.762221
0.762168
0.762063
0.761866
0.761521
0.775644
0.775981
0.776176
0.776282
0.776337
0.776364
0.776378
0.776384
0.776388
0.776389
0.77639
0.776391
0.776391
0.776391
0.776392
0.776392
0.776392
0.776392
0.776392
0.776392
0.776392
0.776393
0.776393
0.776393
0.776393
0.776393
0.776393
0.776393
0.776393
0.776393
0.776393
0.776393
0.776393
0.776393
0.776393
0.776393
0.776393
0.776393
0.776393
0.776392
0.776392