/*--------------------------------*- C++ -*----------------------------------*\
| =========                 |                                                 |
| \\      /  F ield         | foam-extend: Open Source CFD                    |
|  \\    /   O peration     | Version:     4.0                                |
|   \\  /    A nd           | Web:         http://www.foam-extend.org         |
|    \\/     M anipulation  |                                                 |
\*---------------------------------------------------------------------------*/
FoamFile
{
    version     2.0;
    format      ascii;
    class       volScalarField;
    location    "1030";
    object      cMinus;
}
// * * * * * * * * * * * * * * * * * * * * * * * * * * * * * * * * * * * * * //

dimensions      [0 0 0 0 0 0 0];

internalField   nonuniform List<scalar> 
6960
(
9.91886e-14
9.91483e-14
9.90852e-14
9.90661e-14
9.90662e-14
9.90736e-14
9.90837e-14
9.90945e-14
9.91052e-14
9.91157e-14
9.91256e-14
9.91351e-14
9.9144e-14
9.91524e-14
9.91603e-14
9.91676e-14
9.91744e-14
9.91806e-14
9.91864e-14
9.91917e-14
9.91964e-14
9.92007e-14
9.92045e-14
9.92078e-14
9.92106e-14
9.92129e-14
9.92148e-14
9.92162e-14
9.92171e-14
9.92176e-14
9.92176e-14
9.92171e-14
9.92162e-14
9.92148e-14
9.92129e-14
9.92106e-14
9.92078e-14
9.92045e-14
9.92007e-14
9.91964e-14
9.91917e-14
9.91864e-14
9.91806e-14
9.91744e-14
9.91676e-14
9.91603e-14
9.91524e-14
9.9144e-14
9.91351e-14
9.91256e-14
9.91157e-14
9.91052e-14
9.90945e-14
9.90837e-14
9.90736e-14
9.90662e-14
9.90661e-14
9.90852e-14
9.91483e-14
9.91886e-14
7.04689e-13
7.04904e-13
7.04666e-13
7.0461e-13
7.04639e-13
7.04703e-13
7.04778e-13
7.04856e-13
7.04932e-13
7.05006e-13
7.05076e-13
7.05142e-13
7.05205e-13
7.05263e-13
7.05318e-13
7.0537e-13
7.05417e-13
7.05461e-13
7.05501e-13
7.05538e-13
7.05571e-13
7.05601e-13
7.05628e-13
7.05651e-13
7.0567e-13
7.05687e-13
7.057e-13
7.05709e-13
7.05716e-13
7.05719e-13
7.05719e-13
7.05716e-13
7.05709e-13
7.057e-13
7.05687e-13
7.0567e-13
7.05651e-13
7.05628e-13
7.05601e-13
7.05571e-13
7.05538e-13
7.05501e-13
7.05461e-13
7.05417e-13
7.0537e-13
7.05318e-13
7.05263e-13
7.05205e-13
7.05142e-13
7.05076e-13
7.05006e-13
7.04932e-13
7.04856e-13
7.04778e-13
7.04703e-13
7.04639e-13
7.0461e-13
7.04666e-13
7.04904e-13
7.04689e-13
4.68043e-12
4.68531e-12
4.6852e-12
4.68537e-12
4.68577e-12
4.68626e-12
4.68678e-12
4.6873e-12
4.68781e-12
4.68829e-12
4.68875e-12
4.68918e-12
4.68959e-12
4.68997e-12
4.69033e-12
4.69066e-12
4.69097e-12
4.69126e-12
4.69152e-12
4.69176e-12
4.69197e-12
4.69217e-12
4.69234e-12
4.69249e-12
4.69262e-12
4.69272e-12
4.69281e-12
4.69287e-12
4.69291e-12
4.69294e-12
4.69294e-12
4.69291e-12
4.69287e-12
4.69281e-12
4.69272e-12
4.69262e-12
4.69249e-12
4.69234e-12
4.69217e-12
4.69197e-12
4.69176e-12
4.69152e-12
4.69126e-12
4.69097e-12
4.69066e-12
4.69033e-12
4.68997e-12
4.68959e-12
4.68918e-12
4.68875e-12
4.68829e-12
4.68781e-12
4.6873e-12
4.68678e-12
4.68626e-12
4.68577e-12
4.68537e-12
4.6852e-12
4.68531e-12
4.68043e-12
3.09518e-11
3.10065e-11
3.10154e-11
3.10202e-11
3.10241e-11
3.10278e-11
3.10313e-11
3.10348e-11
3.10381e-11
3.10412e-11
3.10442e-11
3.1047e-11
3.10497e-11
3.10521e-11
3.10545e-11
3.10566e-11
3.10586e-11
3.10604e-11
3.10621e-11
3.10637e-11
3.10651e-11
3.10663e-11
3.10674e-11
3.10684e-11
3.10692e-11
3.10699e-11
3.10704e-11
3.10708e-11
3.10711e-11
3.10712e-11
3.10712e-11
3.10711e-11
3.10708e-11
3.10704e-11
3.10699e-11
3.10692e-11
3.10684e-11
3.10674e-11
3.10663e-11
3.10651e-11
3.10637e-11
3.10621e-11
3.10604e-11
3.10586e-11
3.10566e-11
3.10545e-11
3.10521e-11
3.10497e-11
3.1047e-11
3.10442e-11
3.10412e-11
3.10381e-11
3.10348e-11
3.10313e-11
3.10278e-11
3.10241e-11
3.10202e-11
3.10154e-11
3.10065e-11
3.09518e-11
2.04269e-10
2.04771e-10
2.04891e-10
2.04945e-10
2.04978e-10
2.05006e-10
2.0503e-10
2.05053e-10
2.05074e-10
2.05095e-10
2.05114e-10
2.05132e-10
2.05149e-10
2.05165e-10
2.0518e-10
2.05193e-10
2.05206e-10
2.05218e-10
2.05229e-10
2.05239e-10
2.05248e-10
2.05255e-10
2.05263e-10
2.05269e-10
2.05274e-10
2.05278e-10
2.05282e-10
2.05284e-10
2.05286e-10
2.05287e-10
2.05287e-10
2.05286e-10
2.05284e-10
2.05282e-10
2.05278e-10
2.05274e-10
2.05269e-10
2.05263e-10
2.05255e-10
2.05248e-10
2.05239e-10
2.05229e-10
2.05218e-10
2.05206e-10
2.05193e-10
2.0518e-10
2.05165e-10
2.05149e-10
2.05132e-10
2.05114e-10
2.05095e-10
2.05074e-10
2.05053e-10
2.0503e-10
2.05006e-10
2.04978e-10
2.04945e-10
2.04891e-10
2.04771e-10
2.04269e-10
1.33486e-09
1.33899e-09
1.34015e-09
1.34064e-09
1.34091e-09
1.3411e-09
1.34127e-09
1.34142e-09
1.34155e-09
1.34168e-09
1.3418e-09
1.34192e-09
1.34203e-09
1.34213e-09
1.34222e-09
1.34231e-09
1.34239e-09
1.34246e-09
1.34253e-09
1.34259e-09
1.34265e-09
1.3427e-09
1.34274e-09
1.34278e-09
1.34282e-09
1.34284e-09
1.34287e-09
1.34288e-09
1.34289e-09
1.3429e-09
1.3429e-09
1.34289e-09
1.34288e-09
1.34287e-09
1.34284e-09
1.34282e-09
1.34278e-09
1.34274e-09
1.3427e-09
1.34265e-09
1.34259e-09
1.34253e-09
1.34246e-09
1.34239e-09
1.34231e-09
1.34222e-09
1.34213e-09
1.34203e-09
1.34192e-09
1.3418e-09
1.34168e-09
1.34155e-09
1.34142e-09
1.34127e-09
1.3411e-09
1.34091e-09
1.34064e-09
1.34015e-09
1.33899e-09
1.33486e-09
8.54811e-09
8.57953e-09
8.58912e-09
8.59306e-09
8.59508e-09
8.59641e-09
8.59747e-09
8.59841e-09
8.59927e-09
8.60007e-09
8.60083e-09
8.60153e-09
8.6022e-09
8.60282e-09
8.60339e-09
8.60393e-09
8.60443e-09
8.60488e-09
8.6053e-09
8.60569e-09
8.60603e-09
8.60634e-09
8.60662e-09
8.60685e-09
8.60706e-09
8.60723e-09
8.60736e-09
8.60746e-09
8.60753e-09
8.60757e-09
8.60757e-09
8.60753e-09
8.60746e-09
8.60736e-09
8.60723e-09
8.60706e-09
8.60685e-09
8.60662e-09
8.60634e-09
8.60603e-09
8.60569e-09
8.6053e-09
8.60488e-09
8.60443e-09
8.60393e-09
8.60339e-09
8.60282e-09
8.6022e-09
8.60153e-09
8.60083e-09
8.60007e-09
8.59927e-09
8.59841e-09
8.59747e-09
8.59641e-09
8.59508e-09
8.59306e-09
8.58912e-09
8.57953e-09
8.54811e-09
5.30184e-08
5.324e-08
5.33114e-08
5.33403e-08
5.33543e-08
5.3363e-08
5.33696e-08
5.33753e-08
5.33804e-08
5.33853e-08
5.33898e-08
5.3394e-08
5.33979e-08
5.34016e-08
5.3405e-08
5.34082e-08
5.34111e-08
5.34138e-08
5.34163e-08
5.34186e-08
5.34206e-08
5.34225e-08
5.34241e-08
5.34255e-08
5.34267e-08
5.34277e-08
5.34285e-08
5.34291e-08
5.34295e-08
5.34297e-08
5.34297e-08
5.34295e-08
5.34291e-08
5.34285e-08
5.34277e-08
5.34267e-08
5.34255e-08
5.34241e-08
5.34225e-08
5.34206e-08
5.34186e-08
5.34163e-08
5.34138e-08
5.34111e-08
5.34082e-08
5.3405e-08
5.34016e-08
5.33979e-08
5.3394e-08
5.33898e-08
5.33853e-08
5.33804e-08
5.33753e-08
5.33696e-08
5.3363e-08
5.33543e-08
5.33403e-08
5.33114e-08
5.324e-08
5.30184e-08
3.14477e-07
3.15923e-07
3.16406e-07
3.16599e-07
3.16689e-07
3.16743e-07
3.16782e-07
3.16814e-07
3.16844e-07
3.16871e-07
3.16897e-07
3.1692e-07
3.16943e-07
3.16963e-07
3.16983e-07
3.17001e-07
3.17017e-07
3.17032e-07
3.17046e-07
3.17059e-07
3.17071e-07
3.17081e-07
3.1709e-07
3.17098e-07
3.17105e-07
3.1711e-07
3.17115e-07
3.17118e-07
3.1712e-07
3.17121e-07
3.17121e-07
3.1712e-07
3.17118e-07
3.17115e-07
3.1711e-07
3.17105e-07
3.17098e-07
3.1709e-07
3.17081e-07
3.17071e-07
3.17059e-07
3.17046e-07
3.17032e-07
3.17017e-07
3.17001e-07
3.16983e-07
3.16963e-07
3.16943e-07
3.1692e-07
3.16897e-07
3.16871e-07
3.16844e-07
3.16814e-07
3.16782e-07
3.16743e-07
3.16689e-07
3.16599e-07
3.16406e-07
3.15923e-07
3.14477e-07
1.75983e-06
1.76849e-06
1.77146e-06
1.77263e-06
1.77317e-06
1.77347e-06
1.77369e-06
1.77386e-06
1.77402e-06
1.77417e-06
1.7743e-06
1.77443e-06
1.77454e-06
1.77465e-06
1.77475e-06
1.77485e-06
1.77493e-06
1.77501e-06
1.77509e-06
1.77516e-06
1.77522e-06
1.77527e-06
1.77532e-06
1.77536e-06
1.7754e-06
1.77542e-06
1.77545e-06
1.77547e-06
1.77548e-06
1.77548e-06
1.77548e-06
1.77548e-06
1.77547e-06
1.77545e-06
1.77542e-06
1.7754e-06
1.77536e-06
1.77532e-06
1.77527e-06
1.77522e-06
1.77516e-06
1.77509e-06
1.77501e-06
1.77493e-06
1.77485e-06
1.77475e-06
1.77465e-06
1.77454e-06
1.77443e-06
1.7743e-06
1.77417e-06
1.77402e-06
1.77386e-06
1.77369e-06
1.77347e-06
1.77317e-06
1.77263e-06
1.77146e-06
1.76849e-06
1.75983e-06
9.1594e-06
9.20644e-06
9.22286e-06
9.22932e-06
9.23221e-06
9.2338e-06
9.23489e-06
9.23577e-06
9.23654e-06
9.23725e-06
9.23791e-06
9.23852e-06
9.23909e-06
9.23962e-06
9.24011e-06
9.24057e-06
9.24099e-06
9.24138e-06
9.24173e-06
9.24206e-06
9.24235e-06
9.24261e-06
9.24285e-06
9.24305e-06
9.24322e-06
9.24336e-06
9.24348e-06
9.24356e-06
9.24362e-06
9.24365e-06
9.24365e-06
9.24362e-06
9.24356e-06
9.24348e-06
9.24336e-06
9.24322e-06
9.24305e-06
9.24285e-06
9.24261e-06
9.24235e-06
9.24206e-06
9.24173e-06
9.24138e-06
9.24099e-06
9.24057e-06
9.24011e-06
9.23962e-06
9.23909e-06
9.23852e-06
9.23791e-06
9.23725e-06
9.23654e-06
9.23577e-06
9.23489e-06
9.2338e-06
9.23221e-06
9.22932e-06
9.22286e-06
9.20644e-06
9.1594e-06
4.36791e-05
4.39079e-05
4.39888e-05
4.40205e-05
4.40344e-05
4.40419e-05
4.40468e-05
4.40508e-05
4.40543e-05
4.40574e-05
4.40603e-05
4.4063e-05
4.40655e-05
4.40678e-05
4.407e-05
4.4072e-05
4.40739e-05
4.40756e-05
4.40771e-05
4.40785e-05
4.40798e-05
4.4081e-05
4.4082e-05
4.40829e-05
4.40836e-05
4.40843e-05
4.40848e-05
4.40851e-05
4.40854e-05
4.40855e-05
4.40855e-05
4.40854e-05
4.40851e-05
4.40848e-05
4.40843e-05
4.40836e-05
4.40829e-05
4.4082e-05
4.4081e-05
4.40798e-05
4.40785e-05
4.40771e-05
4.40756e-05
4.40739e-05
4.4072e-05
4.407e-05
4.40678e-05
4.40655e-05
4.4063e-05
4.40603e-05
4.40574e-05
4.40543e-05
4.40508e-05
4.40468e-05
4.40419e-05
4.40344e-05
4.40205e-05
4.39888e-05
4.39079e-05
4.36791e-05
0.00018788
0.00018886
0.00018921
0.000189347
0.000189406
0.000189437
0.000189457
0.000189473
0.000189487
0.000189499
0.00018951
0.000189521
0.000189531
0.00018954
0.000189548
0.000189556
0.000189563
0.00018957
0.000189576
0.000189582
0.000189587
0.000189591
0.000189595
0.000189599
0.000189602
0.000189604
0.000189606
0.000189608
0.000189609
0.000189609
0.000189609
0.000189609
0.000189608
0.000189606
0.000189604
0.000189602
0.000189599
0.000189595
0.000189591
0.000189587
0.000189582
0.000189576
0.00018957
0.000189563
0.000189556
0.000189548
0.00018954
0.000189531
0.000189521
0.00018951
0.000189499
0.000189487
0.000189473
0.000189457
0.000189437
0.000189406
0.000189347
0.00018921
0.00018886
0.00018788
0.000717084
0.000720717
0.000722022
0.000722529
0.000722747
0.000722859
0.000722931
0.000722986
0.000723033
0.000723075
0.000723114
0.00072315
0.000723183
0.000723215
0.000723243
0.00072327
0.000723295
0.000723317
0.000723338
0.000723357
0.000723374
0.000723389
0.000723403
0.000723415
0.000723425
0.000723433
0.00072344
0.000723445
0.000723448
0.00072345
0.00072345
0.000723448
0.000723445
0.00072344
0.000723433
0.000723425
0.000723415
0.000723403
0.000723389
0.000723374
0.000723357
0.000723338
0.000723317
0.000723295
0.00072327
0.000723243
0.000723215
0.000723183
0.00072315
0.000723114
0.000723075
0.000723033
0.000722986
0.000722931
0.000722859
0.000722747
0.000722529
0.000722022
0.000720717
0.000717084
0.00238807
0.00239949
0.00240361
0.0024052
0.00240588
0.00240623
0.00240644
0.00240661
0.00240674
0.00240687
0.00240698
0.00240709
0.00240718
0.00240727
0.00240736
0.00240743
0.00240751
0.00240757
0.00240763
0.00240769
0.00240774
0.00240778
0.00240782
0.00240785
0.00240788
0.00240791
0.00240793
0.00240794
0.00240795
0.00240795
0.00240795
0.00240795
0.00240794
0.00240793
0.00240791
0.00240788
0.00240785
0.00240782
0.00240778
0.00240774
0.00240769
0.00240763
0.00240757
0.00240751
0.00240743
0.00240736
0.00240727
0.00240718
0.00240709
0.00240698
0.00240687
0.00240674
0.00240661
0.00240644
0.00240623
0.00240588
0.0024052
0.00240361
0.00239949
0.00238807
0.00682999
0.00685984
0.00687063
0.0068748
0.00687657
0.00687745
0.00687799
0.00687839
0.00687873
0.00687903
0.00687931
0.00687956
0.0068798
0.00688002
0.00688022
0.00688041
0.00688058
0.00688074
0.00688088
0.00688102
0.00688114
0.00688124
0.00688134
0.00688142
0.00688149
0.00688155
0.00688159
0.00688163
0.00688165
0.00688166
0.00688166
0.00688165
0.00688163
0.00688159
0.00688155
0.00688149
0.00688142
0.00688134
0.00688124
0.00688114
0.00688102
0.00688088
0.00688074
0.00688058
0.00688041
0.00688022
0.00688002
0.0068798
0.00687956
0.00687931
0.00687903
0.00687873
0.00687839
0.00687799
0.00687745
0.00687657
0.0068748
0.00687063
0.00685984
0.00682999
0.0165799
0.0166438
0.0166669
0.0166759
0.0166796
0.0166815
0.0166826
0.0166834
0.0166841
0.0166847
0.0166852
0.0166857
0.0166862
0.0166866
0.016687
0.0166874
0.0166877
0.0166881
0.0166884
0.0166886
0.0166888
0.0166891
0.0166892
0.0166894
0.0166895
0.0166897
0.0166898
0.0166898
0.0166899
0.0166899
0.0166899
0.0166899
0.0166898
0.0166898
0.0166897
0.0166895
0.0166894
0.0166892
0.0166891
0.0166888
0.0166886
0.0166884
0.0166881
0.0166877
0.0166874
0.016687
0.0166866
0.0166862
0.0166857
0.0166852
0.0166847
0.0166841
0.0166834
0.0166826
0.0166815
0.0166796
0.0166759
0.0166669
0.0166438
0.0165799
0.0340643
0.0341763
0.0342169
0.0342326
0.0342391
0.0342423
0.0342441
0.0342455
0.0342466
0.0342476
0.0342485
0.0342493
0.0342501
0.0342508
0.0342514
0.034252
0.0342526
0.0342531
0.0342536
0.034254
0.0342544
0.0342547
0.034255
0.0342553
0.0342555
0.0342557
0.0342558
0.0342559
0.034256
0.0342561
0.0342561
0.034256
0.0342559
0.0342558
0.0342557
0.0342555
0.0342553
0.034255
0.0342547
0.0342544
0.034254
0.0342536
0.0342531
0.0342526
0.034252
0.0342514
0.0342508
0.0342501
0.0342493
0.0342485
0.0342476
0.0342466
0.0342455
0.0342441
0.0342423
0.0342391
0.0342326
0.0342169
0.0341763
0.0340643
0.0598358
0.0599995
0.0600589
0.0600818
0.0600913
0.0600959
0.0600985
0.0601004
0.0601019
0.0601032
0.0601045
0.0601056
0.0601066
0.0601075
0.0601084
0.0601092
0.06011
0.0601106
0.0601113
0.0601118
0.0601123
0.0601128
0.0601132
0.0601136
0.0601139
0.0601141
0.0601143
0.0601145
0.0601146
0.0601146
0.0601146
0.0601146
0.0601145
0.0601143
0.0601141
0.0601139
0.0601136
0.0601132
0.0601128
0.0601123
0.0601118
0.0601113
0.0601106
0.06011
0.0601092
0.0601084
0.0601075
0.0601066
0.0601056
0.0601045
0.0601032
0.0601019
0.0601004
0.0600985
0.0600959
0.0600913
0.0600818
0.0600589
0.0599995
0.0598358
0.0919116
0.0921192
0.0921948
0.0922239
0.092236
0.0922416
0.0922449
0.0922471
0.0922489
0.0922505
0.0922519
0.0922532
0.0922544
0.0922555
0.0922565
0.0922574
0.0922583
0.0922591
0.0922598
0.0922605
0.0922611
0.0922616
0.0922621
0.0922625
0.0922628
0.0922631
0.0922633
0.0922635
0.0922636
0.0922637
0.0922637
0.0922636
0.0922635
0.0922633
0.0922631
0.0922628
0.0922625
0.0922621
0.0922616
0.0922611
0.0922605
0.0922598
0.0922591
0.0922583
0.0922574
0.0922565
0.0922555
0.0922544
0.0922532
0.0922519
0.0922505
0.0922489
0.0922471
0.0922449
0.0922416
0.092236
0.0922239
0.0921948
0.0921192
0.0919116
0.12714
0.12738
0.127467
0.127501
0.127515
0.127522
0.127525
0.127528
0.12753
0.127531
0.127533
0.127534
0.127535
0.127537
0.127538
0.127539
0.12754
0.12754
0.127541
0.127542
0.127542
0.127543
0.127544
0.127544
0.127544
0.127545
0.127545
0.127545
0.127545
0.127545
0.127545
0.127545
0.127545
0.127545
0.127545
0.127544
0.127544
0.127544
0.127543
0.127542
0.127542
0.127541
0.12754
0.12754
0.127539
0.127538
0.127537
0.127535
0.127534
0.127533
0.127531
0.12753
0.127528
0.127525
0.127522
0.127515
0.127501
0.127467
0.12738
0.12714
0.162993
0.163256
0.163352
0.16339
0.163405
0.163412
0.163416
0.163419
0.163421
0.163422
0.163424
0.163425
0.163426
0.163428
0.163429
0.16343
0.163431
0.163431
0.163432
0.163433
0.163434
0.163434
0.163435
0.163435
0.163435
0.163436
0.163436
0.163436
0.163436
0.163436
0.163436
0.163436
0.163436
0.163436
0.163436
0.163435
0.163435
0.163435
0.163434
0.163434
0.163433
0.163432
0.163431
0.163431
0.16343
0.163429
0.163428
0.163426
0.163425
0.163424
0.163422
0.163421
0.163419
0.163416
0.163412
0.163405
0.16339
0.163352
0.163256
0.162993
0.198183
0.198465
0.198569
0.19861
0.198626
0.198634
0.198638
0.19864
0.198642
0.198644
0.198646
0.198647
0.198648
0.198649
0.19865
0.198651
0.198652
0.198653
0.198654
0.198654
0.198655
0.198656
0.198656
0.198656
0.198657
0.198657
0.198657
0.198658
0.198658
0.198658
0.198658
0.198658
0.198658
0.198657
0.198657
0.198657
0.198656
0.198656
0.198656
0.198655
0.198654
0.198654
0.198653
0.198652
0.198651
0.19865
0.198649
0.198648
0.198647
0.198646
0.198644
0.198642
0.19864
0.198638
0.198634
0.198626
0.19861
0.198569
0.198465
0.198183
0.232308
0.232606
0.232717
0.23276
0.232778
0.232786
0.232791
0.232793
0.232795
0.232797
0.232798
0.2328
0.232801
0.232802
0.232803
0.232804
0.232805
0.232806
0.232806
0.232807
0.232808
0.232808
0.232809
0.232809
0.232809
0.23281
0.23281
0.23281
0.23281
0.23281
0.23281
0.23281
0.23281
0.23281
0.23281
0.232809
0.232809
0.232809
0.232808
0.232808
0.232807
0.232806
0.232806
0.232805
0.232804
0.232803
0.232802
0.232801
0.2328
0.232798
0.232797
0.232795
0.232793
0.232791
0.232786
0.232778
0.23276
0.232717
0.232606
0.232308
0.265339
0.265651
0.265769
0.265815
0.265834
0.265843
0.265847
0.26585
0.265852
0.265854
0.265855
0.265857
0.265858
0.265859
0.26586
0.265861
0.265862
0.265862
0.265863
0.265864
0.265864
0.265865
0.265865
0.265866
0.265866
0.265866
0.265866
0.265867
0.265867
0.265867
0.265867
0.265867
0.265867
0.265866
0.265866
0.265866
0.265866
0.265865
0.265865
0.265864
0.265864
0.265863
0.265862
0.265862
0.265861
0.26586
0.265859
0.265858
0.265857
0.265855
0.265854
0.265852
0.26585
0.265847
0.265843
0.265834
0.265815
0.265769
0.265651
0.265339
0.297336
0.29766
0.297785
0.297835
0.297855
0.297864
0.297869
0.297872
0.297874
0.297875
0.297877
0.297878
0.297879
0.29788
0.297881
0.297882
0.297883
0.297884
0.297884
0.297885
0.297885
0.297886
0.297886
0.297887
0.297887
0.297887
0.297887
0.297888
0.297888
0.297888
0.297888
0.297888
0.297888
0.297887
0.297887
0.297887
0.297887
0.297886
0.297886
0.297885
0.297885
0.297884
0.297884
0.297883
0.297882
0.297881
0.29788
0.297879
0.297878
0.297877
0.297875
0.297874
0.297872
0.297869
0.297864
0.297855
0.297835
0.297785
0.29766
0.297336
0.32835
0.328686
0.328818
0.32887
0.328892
0.328902
0.328907
0.328909
0.328911
0.328913
0.328914
0.328916
0.328917
0.328918
0.328919
0.32892
0.32892
0.328921
0.328922
0.328922
0.328923
0.328923
0.328924
0.328924
0.328924
0.328925
0.328925
0.328925
0.328925
0.328925
0.328925
0.328925
0.328925
0.328925
0.328925
0.328924
0.328924
0.328924
0.328923
0.328923
0.328922
0.328922
0.328921
0.32892
0.32892
0.328919
0.328918
0.328917
0.328916
0.328914
0.328913
0.328911
0.328909
0.328907
0.328902
0.328892
0.32887
0.328818
0.328686
0.32835
0.358412
0.358759
0.358897
0.358952
0.358975
0.358985
0.358991
0.358993
0.358996
0.358997
0.358998
0.359
0.359001
0.359002
0.359003
0.359003
0.359004
0.359005
0.359006
0.359006
0.359007
0.359007
0.359008
0.359008
0.359008
0.359008
0.359009
0.359009
0.359009
0.359009
0.359009
0.359009
0.359009
0.359009
0.359008
0.359008
0.359008
0.359008
0.359007
0.359007
0.359006
0.359006
0.359005
0.359004
0.359003
0.359003
0.359002
0.359001
0.359
0.358998
0.358997
0.358996
0.358993
0.358991
0.358985
0.358975
0.358952
0.358897
0.358759
0.358412
0.387539
0.387894
0.388037
0.388096
0.38812
0.388131
0.388137
0.38814
0.388142
0.388143
0.388145
0.388146
0.388147
0.388148
0.388149
0.388149
0.38815
0.388151
0.388151
0.388152
0.388153
0.388153
0.388153
0.388154
0.388154
0.388154
0.388154
0.388155
0.388155
0.388155
0.388155
0.388155
0.388155
0.388154
0.388154
0.388154
0.388154
0.388153
0.388153
0.388153
0.388152
0.388151
0.388151
0.38815
0.388149
0.388149
0.388148
0.388147
0.388146
0.388145
0.388143
0.388142
0.38814
0.388137
0.388131
0.38812
0.388096
0.388037
0.387894
0.387539
0.415738
0.4161
0.416249
0.416311
0.416337
0.416348
0.416354
0.416357
0.416359
0.416361
0.416362
0.416363
0.416364
0.416365
0.416366
0.416367
0.416367
0.416368
0.416368
0.416369
0.416369
0.41637
0.41637
0.416371
0.416371
0.416371
0.416371
0.416371
0.416372
0.416372
0.416372
0.416372
0.416371
0.416371
0.416371
0.416371
0.416371
0.41637
0.41637
0.416369
0.416369
0.416368
0.416368
0.416367
0.416367
0.416366
0.416365
0.416364
0.416363
0.416362
0.416361
0.416359
0.416357
0.416354
0.416348
0.416337
0.416311
0.416249
0.4161
0.415738
0.443017
0.443385
0.443539
0.443604
0.443631
0.443643
0.443649
0.443652
0.443654
0.443656
0.443657
0.443658
0.443659
0.44366
0.443661
0.443662
0.443662
0.443663
0.443664
0.443664
0.443665
0.443665
0.443665
0.443666
0.443666
0.443666
0.443666
0.443666
0.443666
0.443667
0.443667
0.443666
0.443666
0.443666
0.443666
0.443666
0.443666
0.443665
0.443665
0.443665
0.443664
0.443664
0.443663
0.443662
0.443662
0.443661
0.44366
0.443659
0.443658
0.443657
0.443656
0.443654
0.443652
0.443649
0.443643
0.443631
0.443604
0.443539
0.443385
0.443017
0.469382
0.469755
0.469914
0.469982
0.47001
0.470023
0.470029
0.470033
0.470035
0.470036
0.470038
0.470039
0.47004
0.47004
0.470041
0.470042
0.470043
0.470043
0.470044
0.470044
0.470045
0.470045
0.470045
0.470046
0.470046
0.470046
0.470046
0.470046
0.470046
0.470047
0.470047
0.470046
0.470046
0.470046
0.470046
0.470046
0.470046
0.470045
0.470045
0.470045
0.470044
0.470044
0.470043
0.470043
0.470042
0.470041
0.47004
0.47004
0.470039
0.470038
0.470036
0.470035
0.470033
0.470029
0.470023
0.47001
0.469982
0.469914
0.469755
0.469382
0.494842
0.495219
0.495382
0.495452
0.495483
0.495496
0.495502
0.495506
0.495508
0.49551
0.495511
0.495512
0.495513
0.495514
0.495514
0.495515
0.495516
0.495516
0.495517
0.495517
0.495518
0.495518
0.495518
0.495519
0.495519
0.495519
0.495519
0.495519
0.495519
0.495519
0.495519
0.495519
0.495519
0.495519
0.495519
0.495519
0.495519
0.495518
0.495518
0.495518
0.495517
0.495517
0.495516
0.495516
0.495515
0.495514
0.495514
0.495513
0.495512
0.495511
0.49551
0.495508
0.495506
0.495502
0.495496
0.495483
0.495452
0.495382
0.495219
0.494842
0.519406
0.519785
0.519952
0.520025
0.520057
0.520071
0.520078
0.520081
0.520084
0.520085
0.520086
0.520087
0.520088
0.520089
0.52009
0.52009
0.520091
0.520091
0.520092
0.520092
0.520093
0.520093
0.520093
0.520094
0.520094
0.520094
0.520094
0.520094
0.520094
0.520095
0.520095
0.520094
0.520094
0.520094
0.520094
0.520094
0.520094
0.520093
0.520093
0.520093
0.520092
0.520092
0.520091
0.520091
0.52009
0.52009
0.520089
0.520088
0.520087
0.520086
0.520085
0.520084
0.520081
0.520078
0.520071
0.520057
0.520025
0.519952
0.519785
0.519406
0.543084
0.543464
0.543635
0.543711
0.543744
0.543759
0.543766
0.54377
0.543772
0.543773
0.543775
0.543776
0.543776
0.543777
0.543778
0.543779
0.543779
0.54378
0.54378
0.54378
0.543781
0.543781
0.543782
0.543782
0.543782
0.543782
0.543782
0.543782
0.543782
0.543783
0.543783
0.543782
0.543782
0.543782
0.543782
0.543782
0.543782
0.543782
0.543781
0.543781
0.54378
0.54378
0.54378
0.543779
0.543779
0.543778
0.543777
0.543776
0.543776
0.543775
0.543773
0.543772
0.54377
0.543766
0.543759
0.543744
0.543711
0.543635
0.543464
0.543084
0.565889
0.566269
0.566443
0.566522
0.566556
0.566572
0.566579
0.566583
0.566585
0.566587
0.566588
0.566589
0.56659
0.566591
0.566591
0.566592
0.566592
0.566593
0.566593
0.566594
0.566594
0.566594
0.566595
0.566595
0.566595
0.566595
0.566595
0.566596
0.566596
0.566596
0.566596
0.566596
0.566596
0.566595
0.566595
0.566595
0.566595
0.566595
0.566594
0.566594
0.566594
0.566593
0.566593
0.566592
0.566592
0.566591
0.566591
0.56659
0.566589
0.566588
0.566587
0.566585
0.566583
0.566579
0.566572
0.566556
0.566522
0.566443
0.566269
0.565889
0.587834
0.588213
0.58839
0.588471
0.588507
0.588523
0.588531
0.588535
0.588538
0.588539
0.58854
0.588541
0.588542
0.588543
0.588543
0.588544
0.588544
0.588545
0.588545
0.588546
0.588546
0.588546
0.588546
0.588547
0.588547
0.588547
0.588547
0.588547
0.588547
0.588547
0.588547
0.588547
0.588547
0.588547
0.588547
0.588547
0.588547
0.588546
0.588546
0.588546
0.588546
0.588545
0.588545
0.588544
0.588544
0.588543
0.588543
0.588542
0.588541
0.58854
0.588539
0.588538
0.588535
0.588531
0.588523
0.588507
0.588471
0.58839
0.588213
0.587834
0.608934
0.60931
0.609491
0.609573
0.609611
0.609628
0.609637
0.609641
0.609643
0.609645
0.609646
0.609647
0.609647
0.609648
0.609649
0.609649
0.60965
0.60965
0.60965
0.609651
0.609651
0.609651
0.609652
0.609652
0.609652
0.609652
0.609652
0.609652
0.609653
0.609653
0.609653
0.609653
0.609652
0.609652
0.609652
0.609652
0.609652
0.609652
0.609651
0.609651
0.609651
0.60965
0.60965
0.60965
0.609649
0.609649
0.609648
0.609647
0.609647
0.609646
0.609645
0.609643
0.609641
0.609637
0.609628
0.609611
0.609573
0.609491
0.60931
0.608934
0.629204
0.629578
0.62976
0.629845
0.629884
0.629902
0.629911
0.629915
0.629918
0.629919
0.629921
0.629921
0.629922
0.629923
0.629923
0.629924
0.629924
0.629925
0.629925
0.629925
0.629926
0.629926
0.629926
0.629926
0.629927
0.629927
0.629927
0.629927
0.629927
0.629927
0.629927
0.629927
0.629927
0.629927
0.629927
0.629927
0.629926
0.629926
0.629926
0.629926
0.629925
0.629925
0.629925
0.629924
0.629924
0.629923
0.629923
0.629922
0.629921
0.629921
0.629919
0.629918
0.629915
0.629911
0.629902
0.629884
0.629845
0.62976
0.629578
0.629204
0.648662
0.649032
0.649216
0.649303
0.649344
0.649363
0.649372
0.649376
0.649379
0.64938
0.649382
0.649382
0.649383
0.649384
0.649384
0.649385
0.649385
0.649385
0.649386
0.649386
0.649386
0.649387
0.649387
0.649387
0.649387
0.649387
0.649388
0.649388
0.649388
0.649388
0.649388
0.649388
0.649388
0.649388
0.649387
0.649387
0.649387
0.649387
0.649387
0.649386
0.649386
0.649386
0.649385
0.649385
0.649385
0.649384
0.649384
0.649383
0.649382
0.649382
0.64938
0.649379
0.649376
0.649372
0.649363
0.649344
0.649303
0.649216
0.649032
0.648662
0.667324
0.667691
0.667876
0.667965
0.668007
0.668027
0.668036
0.668041
0.668044
0.668045
0.668046
0.668047
0.668048
0.668048
0.668049
0.668049
0.66805
0.66805
0.66805
0.668051
0.668051
0.668051
0.668051
0.668052
0.668052
0.668052
0.668052
0.668052
0.668052
0.668052
0.668052
0.668052
0.668052
0.668052
0.668052
0.668052
0.668052
0.668051
0.668051
0.668051
0.668051
0.66805
0.66805
0.66805
0.668049
0.668049
0.668048
0.668048
0.668047
0.668046
0.668045
0.668044
0.668041
0.668036
0.668027
0.668007
0.667965
0.667876
0.667691
0.667324
0.685211
0.685572
0.685758
0.685849
0.685892
0.685913
0.685923
0.685928
0.685931
0.685932
0.685934
0.685934
0.685935
0.685935
0.685936
0.685936
0.685937
0.685937
0.685937
0.685938
0.685938
0.685938
0.685938
0.685939
0.685939
0.685939
0.685939
0.685939
0.685939
0.685939
0.685939
0.685939
0.685939
0.685939
0.685939
0.685939
0.685939
0.685938
0.685938
0.685938
0.685938
0.685937
0.685937
0.685937
0.685936
0.685936
0.685935
0.685935
0.685934
0.685934
0.685932
0.685931
0.685928
0.685923
0.685913
0.685892
0.685849
0.685758
0.685572
0.685211
0.702339
0.702695
0.702882
0.702974
0.703019
0.703041
0.703051
0.703056
0.703059
0.703061
0.703062
0.703063
0.703063
0.703064
0.703064
0.703065
0.703065
0.703065
0.703066
0.703066
0.703066
0.703066
0.703067
0.703067
0.703067
0.703067
0.703067
0.703067
0.703067
0.703067
0.703067
0.703067
0.703067
0.703067
0.703067
0.703067
0.703067
0.703067
0.703066
0.703066
0.703066
0.703066
0.703065
0.703065
0.703065
0.703064
0.703064
0.703063
0.703063
0.703062
0.703061
0.703059
0.703056
0.703051
0.703041
0.703019
0.702974
0.702882
0.702695
0.702339
0.71873
0.71908
0.719266
0.71936
0.719407
0.719429
0.71944
0.719445
0.719448
0.71945
0.719451
0.719452
0.719453
0.719453
0.719453
0.719454
0.719454
0.719454
0.719455
0.719455
0.719455
0.719455
0.719456
0.719456
0.719456
0.719456
0.719456
0.719456
0.719456
0.719456
0.719456
0.719456
0.719456
0.719456
0.719456
0.719456
0.719456
0.719456
0.719455
0.719455
0.719455
0.719455
0.719454
0.719454
0.719454
0.719453
0.719453
0.719453
0.719452
0.719451
0.71945
0.719448
0.719445
0.71944
0.719429
0.719407
0.71936
0.719266
0.71908
0.71873
0.734402
0.734745
0.734932
0.735027
0.735075
0.735098
0.735109
0.735115
0.735118
0.73512
0.735121
0.735122
0.735122
0.735123
0.735123
0.735124
0.735124
0.735124
0.735124
0.735125
0.735125
0.735125
0.735125
0.735125
0.735125
0.735126
0.735126
0.735126
0.735126
0.735126
0.735126
0.735126
0.735126
0.735126
0.735126
0.735125
0.735125
0.735125
0.735125
0.735125
0.735125
0.735124
0.735124
0.735124
0.735124
0.735123
0.735123
0.735122
0.735122
0.735121
0.73512
0.735118
0.735115
0.735109
0.735098
0.735075
0.735027
0.734932
0.734745
0.734402
0.749376
0.749713
0.749898
0.749995
0.750043
0.750068
0.75008
0.750086
0.750089
0.750091
0.750092
0.750093
0.750093
0.750094
0.750094
0.750094
0.750095
0.750095
0.750095
0.750095
0.750095
0.750096
0.750096
0.750096
0.750096
0.750096
0.750096
0.750096
0.750096
0.750096
0.750096
0.750096
0.750096
0.750096
0.750096
0.750096
0.750096
0.750096
0.750096
0.750095
0.750095
0.750095
0.750095
0.750095
0.750094
0.750094
0.750094
0.750093
0.750093
0.750092
0.750091
0.750089
0.750086
0.75008
0.750068
0.750043
0.749995
0.749898
0.749713
0.749376
0.763673
0.764001
0.764186
0.764284
0.764333
0.764358
0.764371
0.764377
0.764381
0.764383
0.764384
0.764385
0.764385
0.764385
0.764386
0.764386
0.764386
0.764387
0.764387
0.764387
0.764387
0.764387
0.764387
0.764388
0.764388
0.764388
0.764388
0.764388
0.764388
0.764388
0.764388
0.764388
0.764388
0.764388
0.764388
0.764388
0.764388
0.764387
0.764387
0.764387
0.764387
0.764387
0.764387
0.764386
0.764386
0.764386
0.764385
0.764385
0.764385
0.764384
0.764383
0.764381
0.764377
0.764371
0.764358
0.764333
0.764284
0.764186
0.764001
0.763673
0.777311
0.777632
0.777816
0.777914
0.777965
0.777991
0.778004
0.778011
0.778014
0.778016
0.778017
0.778018
0.778019
0.778019
0.778019
0.77802
0.77802
0.77802
0.77802
0.77802
0.778021
0.778021
0.778021
0.778021
0.778021
0.778021
0.778021
0.778021
0.778021
0.778021
0.778021
0.778021
0.778021
0.778021
0.778021
0.778021
0.778021
0.778021
0.778021
0.778021
0.77802
0.77802
0.77802
0.77802
0.77802
0.778019
0.778019
0.778019
0.778018
0.778017
0.778016
0.778014
0.778011
0.778004
0.777991
0.777965
0.777914
0.777816
0.777632
0.777311
0.790313
0.790626
0.790808
0.790907
0.790959
0.790985
0.790999
0.791006
0.79101
0.791012
0.791013
0.791014
0.791014
0.791015
0.791015
0.791015
0.791016
0.791016
0.791016
0.791016
0.791016
0.791016
0.791016
0.791017
0.791017
0.791017
0.791017
0.791017
0.791017
0.791017
0.791017
0.791017
0.791017
0.791017
0.791017
0.791017
0.791017
0.791016
0.791016
0.791016
0.791016
0.791016
0.791016
0.791016
0.791015
0.791015
0.791015
0.791014
0.791014
0.791013
0.791012
0.79101
0.791006