/*--------------------------------*- C++ -*----------------------------------*\
| =========                 |                                                 |
| \\      /  F ield         | foam-extend: Open Source CFD                    |
|  \\    /   O peration     | Version:     4.0                                |
|   \\  /    A nd           | Web:         http://www.foam-extend.org         |
|    \\/     M anipulation  |                                                 |
\*---------------------------------------------------------------------------*/
FoamFile
{
    version     2.0;
    format      ascii;
    class       volScalarField;
    location    "1890";
    object      cPlus;
}
// * * * * * * * * * * * * * * * * * * * * * * * * * * * * * * * * * * * * * //

dimensions      [0 0 0 0 0 0 0];

internalField   nonuniform List<scalar> 
6960
(
0.292086
0.29206
0.292031
0.292006
0.291983
0.291964
0.291949
0.291937
0.291926
0.291918
0.291912
0.291907
0.291903
0.291899
0.291897
0.291895
0.291893
0.291892
0.291891
0.29189
0.291889
0.291889
0.291888
0.291888
0.291888
0.291888
0.291887
0.291887
0.291887
0.291887
0.291887
0.291887
0.291887
0.291887
0.291888
0.291888
0.291888
0.291888
0.291889
0.291889
0.29189
0.291891
0.291892
0.291893
0.291895
0.291897
0.291899
0.291903
0.291907
0.291912
0.291918
0.291926
0.291937
0.291949
0.291964
0.291983
0.292006
0.292031
0.29206
0.292086
0.0851825
0.0851676
0.0851508
0.0851354
0.0851221
0.085111
0.0851018
0.0850944
0.0850883
0.0850835
0.0850796
0.0850765
0.0850741
0.0850722
0.0850706
0.0850694
0.0850684
0.0850677
0.0850671
0.0850666
0.0850662
0.0850659
0.0850656
0.0850655
0.0850653
0.0850652
0.0850651
0.085065
0.085065
0.085065
0.085065
0.085065
0.085065
0.0850651
0.0850652
0.0850653
0.0850655
0.0850656
0.0850659
0.0850662
0.0850666
0.0850671
0.0850677
0.0850684
0.0850694
0.0850706
0.0850722
0.0850741
0.0850765
0.0850796
0.0850835
0.0850883
0.0850944
0.0851018
0.085111
0.0851221
0.0851354
0.0851508
0.0851676
0.0851825
0.0310462
0.0310402
0.0310331
0.0310265
0.0310208
0.031016
0.0310121
0.0310089
0.0310063
0.0310042
0.0310025
0.0310012
0.0310001
0.0309993
0.0309986
0.0309981
0.0309976
0.0309973
0.030997
0.0309968
0.0309967
0.0309965
0.0309964
0.0309963
0.0309963
0.0309962
0.0309962
0.0309961
0.0309961
0.0309961
0.0309961
0.0309961
0.0309961
0.0309962
0.0309962
0.0309963
0.0309963
0.0309964
0.0309965
0.0309967
0.0309968
0.030997
0.0309973
0.0309976
0.0309981
0.0309986
0.0309993
0.0310001
0.0310012
0.0310025
0.0310042
0.0310063
0.0310089
0.0310121
0.031016
0.0310208
0.0310265
0.0310331
0.0310402
0.0310462
0.0150197
0.0150187
0.015017
0.0150154
0.0150139
0.0150127
0.0150116
0.0150108
0.0150101
0.0150095
0.0150091
0.0150087
0.0150084
0.0150082
0.015008
0.0150079
0.0150077
0.0150077
0.0150076
0.0150075
0.0150075
0.0150074
0.0150074
0.0150074
0.0150074
0.0150073
0.0150073
0.0150073
0.0150073
0.0150073
0.0150073
0.0150073
0.0150073
0.0150073
0.0150073
0.0150074
0.0150074
0.0150074
0.0150074
0.0150075
0.0150075
0.0150076
0.0150077
0.0150077
0.0150079
0.015008
0.0150082
0.0150084
0.0150087
0.0150091
0.0150095
0.0150101
0.0150108
0.0150116
0.0150127
0.0150139
0.0150154
0.015017
0.0150187
0.0150197
0.0102248
0.0102261
0.010227
0.0102276
0.0102281
0.0102285
0.0102288
0.0102291
0.0102293
0.0102295
0.0102296
0.0102297
0.0102298
0.0102298
0.0102299
0.0102299
0.0102299
0.0102299
0.0102299
0.01023
0.01023
0.01023
0.01023
0.01023
0.01023
0.01023
0.01023
0.01023
0.01023
0.01023
0.01023
0.01023
0.01023
0.01023
0.01023
0.01023
0.01023
0.01023
0.01023
0.01023
0.01023
0.0102299
0.0102299
0.0102299
0.0102299
0.0102299
0.0102298
0.0102298
0.0102297
0.0102296
0.0102295
0.0102293
0.0102291
0.0102288
0.0102285
0.0102281
0.0102276
0.010227
0.0102261
0.0102248
0.00885225
0.0088546
0.0088565
0.0088581
0.00885944
0.00886053
0.00886143
0.00886215
0.00886272
0.00886318
0.00886354
0.00886383
0.00886405
0.00886423
0.00886436
0.00886447
0.00886456
0.00886462
0.00886467
0.00886472
0.00886475
0.00886477
0.00886479
0.00886481
0.00886482
0.00886483
0.00886484
0.00886484
0.00886485
0.00886485
0.00886485
0.00886485
0.00886484
0.00886484
0.00886483
0.00886482
0.00886481
0.00886479
0.00886477
0.00886475
0.00886472
0.00886467
0.00886462
0.00886456
0.00886447
0.00886436
0.00886423
0.00886405
0.00886383
0.00886354
0.00886318
0.00886272
0.00886215
0.00886143
0.00886053
0.00885944
0.0088581
0.0088565
0.0088546
0.00885225
0.00851399
0.00851673
0.00851905
0.00852103
0.00852269
0.00852406
0.00852518
0.00852608
0.0085268
0.00852738
0.00852783
0.00852819
0.00852848
0.0085287
0.00852887
0.00852901
0.00852912
0.00852921
0.00852927
0.00852933
0.00852937
0.0085294
0.00852943
0.00852945
0.00852946
0.00852948
0.00852949
0.00852949
0.0085295
0.0085295
0.0085295
0.0085295
0.00852949
0.00852949
0.00852948
0.00852946
0.00852945
0.00852943
0.0085294
0.00852937
0.00852933
0.00852927
0.00852921
0.00852912
0.00852901
0.00852887
0.0085287
0.00852848
0.00852819
0.00852783
0.00852738
0.0085268
0.00852608
0.00852518
0.00852406
0.00852269
0.00852103
0.00851905
0.00851673
0.00851399
0.00848342
0.00848634
0.00848883
0.00849097
0.00849276
0.00849424
0.00849545
0.00849643
0.00849722
0.00849784
0.00849834
0.00849873
0.00849903
0.00849928
0.00849947
0.00849962
0.00849973
0.00849983
0.0084999
0.00849996
0.0085
0.00850004
0.00850007
0.00850009
0.00850011
0.00850012
0.00850013
0.00850014
0.00850014
0.00850015
0.00850015
0.00850014
0.00850014
0.00850013
0.00850012
0.00850011
0.00850009
0.00850007
0.00850004
0.0085
0.00849996
0.0084999
0.00849983
0.00849973
0.00849962
0.00849947
0.00849928
0.00849903
0.00849873
0.00849834
0.00849784
0.00849722
0.00849643
0.00849545
0.00849424
0.00849276
0.00849097
0.00848883
0.00848634
0.00848342
0.008545
0.00854802
0.0085506
0.00855281
0.00855467
0.00855621
0.00855747
0.00855848
0.0085593
0.00855995
0.00856046
0.00856087
0.00856119
0.00856144
0.00856164
0.00856179
0.00856192
0.00856201
0.00856209
0.00856215
0.0085622
0.00856224
0.00856227
0.00856229
0.00856231
0.00856232
0.00856233
0.00856234
0.00856234
0.00856235
0.00856235
0.00856234
0.00856234
0.00856233
0.00856232
0.00856231
0.00856229
0.00856227
0.00856224
0.0085622
0.00856215
0.00856209
0.00856201
0.00856192
0.00856179
0.00856164
0.00856144
0.00856119
0.00856087
0.00856046
0.00855995
0.0085593
0.00855848
0.00855747
0.00855621
0.00855467
0.00855281
0.0085506
0.00854802
0.008545
0.00863697
0.00864006
0.0086427
0.00864497
0.00864688
0.00864846
0.00864975
0.00865079
0.00865162
0.00865229
0.00865282
0.00865323
0.00865356
0.00865382
0.00865403
0.00865419
0.00865431
0.00865441
0.00865449
0.00865455
0.0086546
0.00865464
0.00865467
0.0086547
0.00865472
0.00865473
0.00865474
0.00865475
0.00865475
0.00865476
0.00865476
0.00865475
0.00865475
0.00865474
0.00865473
0.00865472
0.0086547
0.00865467
0.00865464
0.0086546
0.00865455
0.00865449
0.00865441
0.00865431
0.00865419
0.00865403
0.00865382
0.00865356
0.00865323
0.00865282
0.00865229
0.00865162
0.00865079
0.00864975
0.00864846
0.00864688
0.00864497
0.0086427
0.00864006
0.00863697
0.00874257
0.00874572
0.00874843
0.00875074
0.00875269
0.00875431
0.00875563
0.00875669
0.00875755
0.00875823
0.00875877
0.00875919
0.00875953
0.0087598
0.00876
0.00876017
0.0087603
0.0087604
0.00876048
0.00876055
0.0087606
0.00876064
0.00876067
0.00876069
0.00876071
0.00876073
0.00876074
0.00876074
0.00876075
0.00876075
0.00876075
0.00876075
0.00876074
0.00876074
0.00876073
0.00876071
0.00876069
0.00876067
0.00876064
0.0087606
0.00876055
0.00876048
0.0087604
0.0087603
0.00876017
0.00876
0.0087598
0.00875953
0.00875919
0.00875877
0.00875823
0.00875755
0.00875669
0.00875563
0.00875431
0.00875269
0.00875074
0.00874843
0.00874572
0.00874257
0.00885781
0.00886104
0.0088638
0.00886617
0.00886817
0.00886982
0.00887117
0.00887226
0.00887313
0.00887383
0.00887438
0.00887482
0.00887516
0.00887543
0.00887565
0.00887582
0.00887595
0.00887605
0.00887614
0.0088762
0.00887625
0.00887629
0.00887633
0.00887635
0.00887637
0.00887639
0.0088764
0.00887641
0.00887641
0.00887641
0.00887641
0.00887641
0.00887641
0.0088764
0.00887639
0.00887637
0.00887635
0.00887633
0.00887629
0.00887625
0.0088762
0.00887614
0.00887605
0.00887595
0.00887582
0.00887565
0.00887543
0.00887516
0.00887482
0.00887438
0.00887383
0.00887313
0.00887226
0.00887117
0.00886982
0.00886817
0.00886617
0.0088638
0.00886104
0.00885781
0.00898232
0.00898563
0.00898846
0.00899088
0.00899292
0.00899461
0.00899599
0.00899711
0.00899801
0.00899872
0.00899929
0.00899973
0.00900009
0.00900037
0.00900058
0.00900076
0.00900089
0.009001
0.00900109
0.00900115
0.00900121
0.00900125
0.00900128
0.00900131
0.00900133
0.00900134
0.00900135
0.00900136
0.00900137
0.00900137
0.00900137
0.00900137
0.00900136
0.00900135
0.00900134
0.00900133
0.00900131
0.00900128
0.00900125
0.00900121
0.00900115
0.00900109
0.009001
0.00900089
0.00900076
0.00900058
0.00900037
0.00900009
0.00899973
0.00899929
0.00899872
0.00899801
0.00899711
0.00899599
0.00899461
0.00899292
0.00899088
0.00898846
0.00898563
0.00898232
0.00911676
0.00912015
0.00912305
0.00912554
0.00912763
0.00912936
0.00913078
0.00913192
0.00913284
0.00913357
0.00913416
0.00913462
0.00913498
0.00913526
0.00913549
0.00913567
0.00913581
0.00913592
0.009136
0.00913607
0.00913613
0.00913617
0.0091362
0.00913623
0.00913625
0.00913627
0.00913628
0.00913629
0.00913629
0.0091363
0.0091363
0.00913629
0.00913629
0.00913628
0.00913627
0.00913625
0.00913623
0.0091362
0.00913617
0.00913613
0.00913607
0.009136
0.00913592
0.00913581
0.00913567
0.00913549
0.00913526
0.00913498
0.00913462
0.00913416
0.00913357
0.00913284
0.00913192
0.00913078
0.00912936
0.00912763
0.00912554
0.00912305
0.00912015
0.00911676
0.00926217
0.00926566
0.00926864
0.0092712
0.00927334
0.00927512
0.00927658
0.00927775
0.0092787
0.00927945
0.00928005
0.00928052
0.0092809
0.00928119
0.00928142
0.0092816
0.00928175
0.00928186
0.00928195
0.00928202
0.00928208
0.00928212
0.00928216
0.00928218
0.00928221
0.00928222
0.00928223
0.00928224
0.00928225
0.00928225
0.00928225
0.00928225
0.00928224
0.00928223
0.00928222
0.00928221
0.00928218
0.00928216
0.00928212
0.00928208
0.00928202
0.00928195
0.00928186
0.00928175
0.0092816
0.00928142
0.00928119
0.0092809
0.00928052
0.00928005
0.00927945
0.0092787
0.00927775
0.00927658
0.00927512
0.00927334
0.0092712
0.00926864
0.00926566
0.00926217
0.00941988
0.00942347
0.00942654
0.00942916
0.00943137
0.0094332
0.0094347
0.00943591
0.00943688
0.00943766
0.00943827
0.00943876
0.00943915
0.00943945
0.00943969
0.00943988
0.00944002
0.00944014
0.00944023
0.00944031
0.00944036
0.00944041
0.00944045
0.00944047
0.0094405
0.00944051
0.00944053
0.00944054
0.00944054
0.00944054
0.00944054
0.00944054
0.00944054
0.00944053
0.00944051
0.0094405
0.00944047
0.00944045
0.00944041
0.00944036
0.00944031
0.00944023
0.00944014
0.00944002
0.00943988
0.00943969
0.00943945
0.00943915
0.00943876
0.00943827
0.00943766
0.00943688
0.00943591
0.0094347
0.0094332
0.00943137
0.00942916
0.00942654
0.00942347
0.00941988
0.00959141
0.00959511
0.00959828
0.00960099
0.00960327
0.00960515
0.0096067
0.00960795
0.00960895
0.00960975
0.00961039
0.00961089
0.00961128
0.0096116
0.00961184
0.00961204
0.00961219
0.00961231
0.00961241
0.00961248
0.00961254
0.00961259
0.00961263
0.00961266
0.00961268
0.0096127
0.00961271
0.00961272
0.00961273
0.00961273
0.00961273
0.00961273
0.00961272
0.00961271
0.0096127
0.00961268
0.00961266
0.00961263
0.00961259
0.00961254
0.00961248
0.00961241
0.00961231
0.00961219
0.00961204
0.00961184
0.0096116
0.00961128
0.00961089
0.00961039
0.00960975
0.00960895
0.00960795
0.0096067
0.00960515
0.00960327
0.00960099
0.00959828
0.00959511
0.00959141
0.0097786
0.00978243
0.0097857
0.0097885
0.00979086
0.00979281
0.00979441
0.0097957
0.00979674
0.00979757
0.00979822
0.00979874
0.00979915
0.00979948
0.00979973
0.00979993
0.00980009
0.00980022
0.00980032
0.00980039
0.00980046
0.00980051
0.00980054
0.00980057
0.0098006
0.00980062
0.00980063
0.00980064
0.00980065
0.00980065
0.00980065
0.00980065
0.00980064
0.00980063
0.00980062
0.0098006
0.00980057
0.00980054
0.00980051
0.00980046
0.00980039
0.00980032
0.00980022
0.00980009
0.00979993
0.00979973
0.00979948
0.00979915
0.00979874
0.00979822
0.00979757
0.00979674
0.0097957
0.00979441
0.00979281
0.00979086
0.0097885
0.0097857
0.00978243
0.0097786
0.00998363
0.00998761
0.009991
0.00999391
0.00999635
0.00999837
0.01
0.0100014
0.0100024
0.0100033
0.010004
0.0100045
0.0100049
0.0100053
0.0100055
0.0100058
0.0100059
0.0100061
0.0100062
0.0100062
0.0100063
0.0100064
0.0100064
0.0100064
0.0100064
0.0100065
0.0100065
0.0100065
0.0100065
0.0100065
0.0100065
0.0100065
0.0100065
0.0100065
0.0100065
0.0100064
0.0100064
0.0100064
0.0100064
0.0100063
0.0100062
0.0100062
0.0100061
0.0100059
0.0100058
0.0100055
0.0100053
0.0100049
0.0100045
0.010004
0.0100033
0.0100024
0.0100014
0.01
0.00999837
0.00999635
0.00999391
0.009991
0.00998761
0.00998363
0.0102091
0.0102133
0.0102168
0.0102198
0.0102224
0.0102245
0.0102262
0.0102276
0.0102287
0.0102296
0.0102303
0.0102309
0.0102313
0.0102317
0.0102319
0.0102322
0.0102323
0.0102325
0.0102326
0.0102327
0.0102327
0.0102328
0.0102328
0.0102329
0.0102329
0.0102329
0.0102329
0.0102329
0.0102329
0.0102329
0.0102329
0.0102329
0.0102329
0.0102329
0.0102329
0.0102329
0.0102329
0.0102328
0.0102328
0.0102327
0.0102327
0.0102326
0.0102325
0.0102323
0.0102322
0.0102319
0.0102317
0.0102313
0.0102309
0.0102303
0.0102296
0.0102287
0.0102276
0.0102262
0.0102245
0.0102224
0.0102198
0.0102168
0.0102133
0.0102091
0.0104583
0.0104627
0.0104663
0.0104695
0.0104721
0.0104743
0.0104761
0.0104776
0.0104787
0.0104797
0.0104804
0.010481
0.0104815
0.0104818
0.0104821
0.0104824
0.0104825
0.0104827
0.0104828
0.0104829
0.0104829
0.010483
0.010483
0.0104831
0.0104831
0.0104831
0.0104831
0.0104831
0.0104832
0.0104832
0.0104832
0.0104832
0.0104831
0.0104831
0.0104831
0.0104831
0.0104831
0.010483
0.010483
0.0104829
0.0104829
0.0104828
0.0104827
0.0104825
0.0104824
0.0104821
0.0104818
0.0104815
0.010481
0.0104804
0.0104797
0.0104787
0.0104776
0.0104761
0.0104743
0.0104721
0.0104695
0.0104663
0.0104627
0.0104583
0.0107351
0.0107396
0.0107435
0.0107468
0.0107496
0.0107519
0.0107537
0.0107553
0.0107565
0.0107575
0.0107583
0.0107589
0.0107594
0.0107597
0.01076
0.0107603
0.0107605
0.0107606
0.0107607
0.0107608
0.0107609
0.010761
0.010761
0.010761
0.0107611
0.0107611
0.0107611
0.0107611
0.0107611
0.0107611
0.0107611
0.0107611
0.0107611
0.0107611
0.0107611
0.0107611
0.010761
0.010761
0.010761
0.0107609
0.0107608
0.0107607
0.0107606
0.0107605
0.0107603
0.01076
0.0107597
0.0107594
0.0107589
0.0107583
0.0107575
0.0107565
0.0107553
0.0107537
0.0107519
0.0107496
0.0107468
0.0107435
0.0107396
0.0107351
0.0110443
0.0110491
0.0110532
0.0110566
0.0110596
0.011062
0.011064
0.0110656
0.0110669
0.0110679
0.0110687
0.0110694
0.0110699
0.0110703
0.0110706
0.0110708
0.011071
0.0110712
0.0110713
0.0110714
0.0110715
0.0110716
0.0110716
0.0110716
0.0110717
0.0110717
0.0110717
0.0110717
0.0110717
0.0110717
0.0110717
0.0110717
0.0110717
0.0110717
0.0110717
0.0110717
0.0110716
0.0110716
0.0110716
0.0110715
0.0110714
0.0110713
0.0110712
0.011071
0.0110708
0.0110706
0.0110703
0.0110699
0.0110694
0.0110687
0.0110679
0.0110669
0.0110656
0.011064
0.011062
0.0110596
0.0110566
0.0110532
0.0110491
0.0110443
0.0113922
0.0113972
0.0114015
0.0114052
0.0114083
0.0114108
0.0114129
0.0114146
0.011416
0.0114171
0.011418
0.0114187
0.0114192
0.0114196
0.01142
0.0114202
0.0114204
0.0114206
0.0114207
0.0114208
0.0114209
0.011421
0.011421
0.0114211
0.0114211
0.0114211
0.0114211
0.0114212
0.0114212
0.0114212
0.0114212
0.0114212
0.0114212
0.0114211
0.0114211
0.0114211
0.0114211
0.011421
0.011421
0.0114209
0.0114208
0.0114207
0.0114206
0.0114204
0.0114202
0.01142
0.0114196
0.0114192
0.0114187
0.011418
0.0114171
0.011416
0.0114146
0.0114129
0.0114108
0.0114083
0.0114052
0.0114015
0.0113972
0.0113922
0.0117864
0.0117918
0.0117964
0.0118003
0.0118036
0.0118063
0.0118086
0.0118104
0.0118118
0.011813
0.0118139
0.0118146
0.0118152
0.0118157
0.011816
0.0118163
0.0118165
0.0118167
0.0118169
0.011817
0.0118171
0.0118171
0.0118172
0.0118172
0.0118173
0.0118173
0.0118173
0.0118173
0.0118173
0.0118173
0.0118173
0.0118173
0.0118173
0.0118173
0.0118173
0.0118173
0.0118172
0.0118172
0.0118171
0.0118171
0.011817
0.0118169
0.0118167
0.0118165
0.0118163
0.011816
0.0118157
0.0118152
0.0118146
0.0118139
0.011813
0.0118118
0.0118104
0.0118086
0.0118063
0.0118036
0.0118003
0.0117964
0.0117918
0.0117864
0.0122373
0.0122431
0.012248
0.0122522
0.0122558
0.0122587
0.0122611
0.012263
0.0122646
0.0122658
0.0122668
0.0122676
0.0122682
0.0122687
0.0122691
0.0122694
0.0122696
0.0122698
0.01227
0.0122701
0.0122702
0.0122703
0.0122703
0.0122704
0.0122704
0.0122704
0.0122705
0.0122705
0.0122705
0.0122705
0.0122705
0.0122705
0.0122705
0.0122705
0.0122704
0.0122704
0.0122704
0.0122703
0.0122703
0.0122702
0.0122701
0.01227
0.0122698
0.0122696
0.0122694
0.0122691
0.0122687
0.0122682
0.0122676
0.0122668
0.0122658
0.0122646
0.012263
0.0122611
0.0122587
0.0122558
0.0122522
0.012248
0.0122431
0.0122373
0.0127584
0.0127646
0.0127699
0.0127745
0.0127783
0.0127815
0.0127841
0.0127862
0.0127879
0.0127892
0.0127903
0.0127911
0.0127918
0.0127924
0.0127928
0.0127931
0.0127934
0.0127936
0.0127937
0.0127939
0.012794
0.012794
0.0127941
0.0127942
0.0127942
0.0127942
0.0127942
0.0127943
0.0127943
0.0127943
0.0127943
0.0127943
0.0127943
0.0127942
0.0127942
0.0127942
0.0127942
0.0127941
0.012794
0.012794
0.0127939
0.0127937
0.0127936
0.0127934
0.0127931
0.0127928
0.0127924
0.0127918
0.0127911
0.0127903
0.0127892
0.0127879
0.0127862
0.0127841
0.0127815
0.0127783
0.0127745
0.0127699
0.0127646
0.0127584
0.0133679
0.0133747
0.0133805
0.0133855
0.0133897
0.0133932
0.013396
0.0133983
0.0134002
0.0134016
0.0134028
0.0134037
0.0134045
0.0134051
0.0134055
0.0134059
0.0134062
0.0134064
0.0134066
0.0134067
0.0134068
0.0134069
0.013407
0.013407
0.0134071
0.0134071
0.0134071
0.0134072
0.0134072
0.0134072
0.0134072
0.0134072
0.0134072
0.0134071
0.0134071
0.0134071
0.013407
0.013407
0.0134069
0.0134068
0.0134067
0.0134066
0.0134064
0.0134062
0.0134059
0.0134055
0.0134051
0.0134045
0.0134037
0.0134028
0.0134016
0.0134002
0.0133983
0.013396
0.0133932
0.0133897
0.0133855
0.0133805
0.0133747
0.0133679
0.0140913
0.0140989
0.0141053
0.0141108
0.0141155
0.0141193
0.0141225
0.014125
0.0141271
0.0141287
0.01413
0.0141311
0.0141319
0.0141325
0.014133
0.0141335
0.0141338
0.014134
0.0141342
0.0141344
0.0141345
0.0141346
0.0141347
0.0141347
0.0141348
0.0141348
0.0141348
0.0141349
0.0141349
0.0141349
0.0141349
0.0141349
0.0141349
0.0141348
0.0141348
0.0141348
0.0141347
0.0141347
0.0141346
0.0141345
0.0141344
0.0141342
0.014134
0.0141338
0.0141335
0.014133
0.0141325
0.0141319
0.0141311
0.01413
0.0141287
0.0141271
0.014125
0.0141225
0.0141193
0.0141155
0.0141108
0.0141053
0.0140989
0.0140913
0.014965
0.0149735
0.0149808
0.014987
0.0149922
0.0149966
0.0150001
0.015003
0.0150053
0.0150072
0.0150087
0.0150098
0.0150107
0.0150115
0.015012
0.0150125
0.0150129
0.0150131
0.0150134
0.0150135
0.0150137
0.0150138
0.0150139
0.015014
0.015014
0.015014
0.0150141
0.0150141
0.0150141
0.0150141
0.0150141
0.0150141
0.0150141
0.0150141
0.015014
0.015014
0.015014
0.0150139
0.0150138
0.0150137
0.0150135
0.0150134
0.0150131
0.0150129
0.0150125
0.015012
0.0150115
0.0150107
0.0150098
0.0150087
0.0150072
0.0150053
0.015003
0.0150001
0.0149966
0.0149922
0.014987
0.0149808
0.0149735
0.014965
0.0160422
0.016052
0.0160603
0.0160675
0.0160735
0.0160785
0.0160826
0.0160859
0.0160886
0.0160907
0.0160924
0.0160938
0.0160948
0.0160957
0.0160963
0.0160968
0.0160973
0.0160976
0.0160978
0.016098
0.0160982
0.0160983
0.0160984
0.0160985
0.0160986
0.0160986
0.0160987
0.0160987
0.0160987
0.0160987
0.0160987
0.0160987
0.0160987
0.0160987
0.0160986
0.0160986
0.0160985
0.0160984
0.0160983
0.0160982
0.016098
0.0160978
0.0160976
0.0160973
0.0160968
0.0160963
0.0160957
0.0160948
0.0160938
0.0160924
0.0160907
0.0160886
0.0160859
0.0160826
0.0160785
0.0160735
0.0160675
0.0160603
0.016052
0.0160422
0.0174024
0.0174139
0.0174237
0.0174321
0.0174392
0.0174451
0.0174499
0.0174539
0.017457
0.0174596
0.0174616
0.0174632
0.0174644
0.0174654
0.0174662
0.0174668
0.0174673
0.0174677
0.017468
0.0174682
0.0174684
0.0174686
0.0174687
0.0174688
0.0174689
0.0174689
0.017469
0.017469
0.017469
0.017469
0.017469
0.017469
0.017469
0.017469
0.0174689
0.0174689
0.0174688
0.0174687
0.0174686
0.0174684
0.0174682
0.017468
0.0174677
0.0174673
0.0174668
0.0174662
0.0174654
0.0174644
0.0174632
0.0174616
0.0174596
0.017457
0.0174539
0.0174499
0.0174451
0.0174392
0.0174321
0.0174237
0.0174139
0.0174024
0.0191642
0.019178
0.0191899
0.0192001
0.0192087
0.0192159
0.0192218
0.0192265
0.0192304
0.0192334
0.0192359
0.0192378
0.0192394
0.0192406
0.0192415
0.0192423
0.0192429
0.0192433
0.0192437
0.019244
0.0192442
0.0192444
0.0192446
0.0192447
0.0192448
0.0192448
0.0192449
0.0192449
0.0192449
0.0192449
0.0192449
0.0192449
0.0192449
0.0192449
0.0192448
0.0192448
0.0192447
0.0192446
0.0192444
0.0192442
0.019244
0.0192437
0.0192433
0.0192429
0.0192423
0.0192415
0.0192406
0.0192394
0.0192378
0.0192359
0.0192334
0.0192304
0.0192265
0.0192218
0.0192159
0.0192087
0.0192001
0.0191899
0.019178
0.0191642
0.0214989
0.021516
0.0215309
0.0215436
0.0215544
0.0215634
0.0215707
0.0215767
0.0215815
0.0215853
0.0215883
0.0215908
0.0215927
0.0215942
0.0215954
0.0215963
0.0215971
0.0215976
0.0215981
0.0215985
0.0215988
0.021599
0.0215992
0.0215993
0.0215994
0.0215995
0.0215996
0.0215996
0.0215996
0.0215997
0.0215997
0.0215996
0.0215996
0.0215996
0.0215995
0.0215994
0.0215993
0.0215992
0.021599
0.0215988
0.0215985
0.0215981
0.0215976
0.0215971
0.0215963
0.0215954
0.0215942
0.0215927
0.0215908
0.0215883
0.0215853
0.0215815
0.0215767
0.0215707
0.0215634
0.0215544
0.0215436
0.0215309
0.021516
0.0214989
0.0246354
0.0246571
0.024676
0.0246922
0.024706
0.0247174
0.0247267
0.0247343
0.0247404
0.0247453
0.0247492
0.0247523
0.0247548
0.0247567
0.0247582
0.0247594
0.0247604
0.0247611
0.0247617
0.0247622
0.0247626
0.0247628
0.0247631
0.0247633
0.0247634
0.0247635
0.0247636
0.0247636
0.0247637
0.0247637
0.0247637
0.0247637
0.0247636
0.0247636
0.0247635
0.0247634
0.0247633
0.0247631
0.0247628
0.0247626
0.0247622
0.0247617
0.0247611
0.0247604
0.0247594
0.0247582
0.0247567
0.0247548
0.0247523
0.0247492
0.0247453
0.0247404
0.0247343
0.0247267
0.0247174
0.024706
0.0246922
0.024676
0.0246571
0.0246354
0.0288374
0.0288652
0.0288894
0.0289102
0.0289278
0.0289425
0.0289545
0.0289642
0.0289721
0.0289784
0.0289834
0.0289874
0.0289905
0.028993
0.0289949
0.0289965
0.0289977
0.0289987
0.0289994
0.029
0.0290005
0.0290009
0.0290012
0.0290014
0.0290016
0.0290017
0.0290019
0.0290019
0.029002
0.029002
0.029002
0.029002
0.0290019
0.0290019
0.0290017
0.0290016
0.0290014
0.0290012
0.0290009
0.0290005
0.029
0.0289994
0.0289987
0.0289977
0.0289965
0.0289949
0.028993
0.0289905
0.0289874
0.0289834
0.0289784
0.0289721
0.0289642
0.0289545
0.0289425
0.0289278
0.0289102
0.0288894
0.0288652
0.0288374
0.0343419
0.0343771
0.0344077
0.0344341
0.0344565
0.034475
0.0344903
0.0345026
0.0345126
0.0345206
0.0345269
0.034532
0.034536
0.0345391
0.0345416
0.0345436
0.0345451
0.0345464
0.0345473
0.0345481
0.0345487
0.0345492
0.0345496
0.0345499
0.0345501
0.0345503
0.0345504
0.0345505
0.0345506
0.0345506
0.0345506
0.0345506
0.0345505
0.0345504
0.0345503
0.0345501
0.0345499
0.0345496
0.0345492
0.0345487
0.0345481
0.0345473
0.0345464
0.0345451
0.0345436
0.0345416
0.0345391
0.034536
0.034532
0.0345269
0.0345206
0.0345126
0.0345026
0.0344903
0.034475
0.0344565
0.0344341
0.0344077
0.0343771
0.0343419
0.0412721
0.0413156
0.0413534
0.041386
0.0414136
0.0414364
0.0414552
0.0414705
0.0414828
0.0414927
0.0415005
0.0415067
0.0415117
0.0415156
0.0415187
0.0415211
0.041523
0.0415246
0.0415258
0.0415267
0.0415275
0.0415281
0.0415285
0.0415289
0.0415292
0.0415294
0.0415296
0.0415297
0.0415298
0.0415298
0.0415298
0.0415298
0.0415297
0.0415296
0.0415294
0.0415292
0.0415289
0.0415285
0.0415281
0.0415275
0.0415267
0.0415258
0.0415246
0.041523
0.0415211
0.0415187
0.0415156
0.0415117
0.0415067
0.0415005
0.0414927
0.0414828
0.0414705
0.0414552
0.0414364
0.0414136
0.041386
0.0413534
0.0413156
0.0412721
0.0495795
0.0496315
0.0496766
0.0497154
0.0497482
0.0497754
0.0497978
0.049816
0.0498307
0.0498424
0.0498518
0.0498593
0.0498652
0.0498699
0.0498735
0.0498765
0.0498788
0.0498806
0.0498821
0.0498832
0.0498841
0.0498848
0.0498854
0.0498859
0.0498862
0.0498865
0.0498867
0.0498868
0.0498869
0.049887
0.049887
0.0498869
0.0498868
0.0498867
0.0498865
0.0498862
0.0498859
0.0498854
0.0498848
0.0498841
0.0498832
0.0498821
0.0498806
0.0498788
0.0498765
0.0498735
0.0498699
0.0498652
0.0498593
0.0498518
0.0498424
0.0498307
0.049816
0.0497978
0.0497754
0.0497482
0.0497154
0.0496766
0.0496315
0.0495795
0.059061
0.0591211
0.0591731
0.0592177
0.0592554
0.0592868
0.0593126
0.0593335
0.0593504
0.059364
0.0593749
0.0593835
0.0593903
0.0593957
0.0594
0.0594034
0.0594061
0.0594082
0.0594099
0.0594112
0.0594123
0.0594131
0.0594138
0.0594143
0.0594147
0.059415
0.0594152
0.0594154
0.0594155
0.0594156
0.0594156
0.0594155
0.0594154
0.0594152
0.059415
0.0594147
0.0594143
0.0594138
0.0594131
0.0594123
0.0594112
0.0594099
0.0594082
0.0594061
0.0594034
0.0594
0.0593957
0.0593903
0.0593835
0.0593749
0.059364
0.0593504
0.0593335
0.0593126
0.0592868
0.0592554
0.0592177
0.0591731
0.0591211
0.059061
0.0694418
0.0695094
0.0695677
0.0696176
0.0696598
0.0696949
0.0697238
0.0697473
0.0697662
0.0697815
0.0697936
0.0698033
0.069811
0.0698171
0.069822
0.0698258
0.0698288
0.0698312
0.0698331
0.0698346
0.0698359
0.0698368
0.0698376
0.0698382
0.0698386
0.069839
0.0698392
0.0698394
0.0698396
0.0698396
0.0698396
0.0698396
0.0698394
0.0698392
0.069839
0.0698386
0.0698382
0.0698376
0.0698368
0.0698359
0.0698346
0.0698331
0.0698312
0.0698288
0.0698258
0.069822
0.0698171
0.069811
0.0698033
0.0697936
0.0697815
0.0697662
0.0697473
0.0697238
0.0696949
0.0696598
0.0696176
0.0695677
0.0695094
0.0694418
0.0804642
0.0805386
0.0806025
0.0806573
0.0807036
0.080742
0.0807737
0.0807995
0.0808204
0.0808372
0.0808506
0.0808613
0.0808698
0.0808765
0.0808819
0.0808861
0.0808895
0.0808922
0.0808943
0.080896
0.0808973
0.0808984
0.0808992
0.0808999
0.0809004
0.0809008
0.0809011
0.0809013
0.0809015
0.0809015
0.0809015
0.0809015
0.0809013
0.0809011
0.0809008
0.0809004
0.0808999
0.0808992
0.0808984
0.0808973
0.080896
0.0808943
0.0808922
0.0808895
0.0808861
0.0808819
0.0808765
0.0808698
0.0808613
0.0808506
0.0808372
0.0808204
0.0807995
0.0807737
0.080742
0.0807036
0.0806573
0.0806025
0.0805386
0.0804642
0.0919341
0.0920148
0.0920841
0.0921433
0.0921933
0.092235
0.0922693
0.0922973
0.09232
0.0923382
0.0923528
0.0923645
0.0923737
0.0923811
0.0923869
0.0923916
0.0923953
0.0923982
0.0924005
0.0924024
0.0924039
0.092405
0.092406
0.0924067
0.0924073
0.0924077
0.0924081
0.0924083
0.0924084
0.0924085
0.0924085
0.0924084
0.0924083
0.0924081
0.0924077
0.0924073
0.0924067
0.092406
0.092405
0.0924039
0.0924024
0.0924005
0.0923982
0.0923953
0.0923916
0.0923869
0.0923811
0.0923737
0.0923645
0.0923528
0.0923382
0.09232
0.0922973
0.0922693
0.092235
0.0921933
0.0921433
0.0920841
0.0920148
0.0919341
0.103725
0.103812
0.103886
0.10395
0.104003
0.104048
0.104085
0.104115
0.104139
0.104159
0.104175
0.104187
0.104197
0.104205
0.104212
0.104217
0.104221
0.104224
0.104227
0.104229
0.10423
0.104231
0.104232
0.104233
0.104234
0.104234
0.104235
0.104235
0.104235
0.104235
0.104235
0.104235
0.104235
0.104235
0.104234
0.104234
0.104233
0.104232
0.104231
0.10423
0.104229
0.104227
0.104224
0.104221
0.104217
0.104212
0.104205
0.104197
0.104187
0.104175
0.104159
0.104139
0.104115
0.104085
0.104048
0.104003
0.10395
0.103886
0.103812
0.103725
0.115761
0.115853
0.115933
0.116
0.116057
0.116105
0.116144
0.116177
0.116203
0.116224
0.116241
0.116254
0.116265
0.116274
0.11628
0.116286
0.11629
0.116294
0.116296
0.116299
0.1163
0.116302
0.116303
0.116304
0.116304
0.116305
0.116305
0.116306
0.116306
0.116306
0.116306
0.116306
0.116306
0.116305
0.116305
0.116304
0.116304
0.116303
0.116302
0.1163
0.116299
0.116296
0.116294
0.11629
0.116286
0.11628
0.116274
0.116265
0.116254
0.116241
0.116224
0.116203
0.116177
0.116144
0.116105
0.116057
0.116
0.115933
0.115853
0.115761
0.127995
0.128093
0.128177
0.128249
0.128309
0.12836
0.128402
0.128436
0.128464
0.128486
0.128504
0.128519
0.128531
0.12854
0.128547
0.128553
0.128558
0.128561
0.128564
0.128567
0.128569
0.12857
0.128571
0.128572
0.128573
0.128574
0.128574
0.128574
0.128575
0.128575
0.128575
0.128575
0.128574
0.128574
0.128574
0.128573
0.128572
0.128571
0.12857
0.128569
0.128567
0.128564
0.128561
0.128558
0.128553
0.128547
0.12854
0.128531
0.128519
0.128504
0.128486
0.128464
0.128436
0.128402
0.12836
0.128309
0.128249
0.128177
0.128093
0.127995
0.140399
0.140502
0.140591
0.140666
0.14073
0.140784
0.140828
0.140864
0.140894
0.140918
0.140937
0.140953
0.140965
0.140975
0.140983
0.140989
0.140994
0.140998
0.141001
0.141004
0.141006
0.141008
0.141009
0.14101
0.141011
0.141011
0.141012
0.141012
0.141012
0.141012
0.141012
0.141012
0.141012
0.141012
0.141011
0.141011
0.14101
0.141009
0.141008
0.141006
0.141004
0.141001
0.140998
0.140994
0.140989
0.140983
0.140975
0.140965
0.140953
0.140937
0.140918
0.140894
0.140864
0.140828
0.140784
0.14073
0.140666
0.140591
0.140502
0.140399
0.152951
0.153059
0.153153
0.153232
0.1533
0.153356
0.153403
0.153441
0.153473
0.153498
0.153518
0.153535
0.153548
0.153559
0.153567
0.153574
0.153579
0.153583
0.153587
0.15359
0.153592
0.153594
0.153595
0.153596
0.153597
0.153598
0.153598
0.153599
0.153599
0.153599
0.153599
0.153599
0.153599
0.153598
0.153598
0.153597
0.153596
0.153595
0.153594
0.153592
0.15359
0.153587
0.153583
0.153579
0.153574
0.153567
0.153559
0.153548
0.153535
0.153518
0.153498
0.153473
0.153441
0.153403
0.153356
0.1533
0.153232
0.153153
0.153059
0.152951
0.165636
0.16575
0.165847
0.165931
0.166002
0.166061
0.16611
0.166151
0.166184
0.166211
0.166232
0.16625
0.166264
0.166275
0.166284
0.166291
0.166297
0.166302
0.166305
0.166308
0.166311
0.166313
0.166314
0.166315
0.166316
0.166317
0.166318
0.166318
0.166318
0.166318
0.166318
0.166318
0.166318