/*--------------------------------*- C++ -*----------------------------------*\
| =========                 |                                                 |
| \\      /  F ield         | foam-extend: Open Source CFD                    |
|  \\    /   O peration     | Version:     4.0                                |
|   \\  /    A nd           | Web:         http://www.foam-extend.org         |
|    \\/     M anipulation  |                                                 |
\*---------------------------------------------------------------------------*/
FoamFile
{
    version     2.0;
    format      ascii;
    class       volScalarField;
    location    "980";
    object      psiE;
}
// * * * * * * * * * * * * * * * * * * * * * * * * * * * * * * * * * * * * * //

dimensions      [0 0 0 0 0 0 0];

internalField   nonuniform List<scalar> 
6960
(
0.338972
0.338979
0.338987
0.338996
0.339004
0.339011
0.339017
0.339023
0.339028
0.339033
0.339037
0.339041
0.339044
0.339047
0.33905
0.339052
0.339054
0.339056
0.339057
0.339058
0.339059
0.33906
0.339061
0.339062
0.339062
0.339063
0.339063
0.339064
0.339064
0.339064
0.339064
0.339064
0.339064
0.339063
0.339063
0.339062
0.339062
0.339061
0.33906
0.339059
0.339058
0.339057
0.339056
0.339054
0.339052
0.33905
0.339047
0.339044
0.339041
0.339037
0.339033
0.339028
0.339023
0.339017
0.339011
0.339004
0.338996
0.338987
0.338979
0.338972
0.852871
0.852898
0.852932
0.852965
0.852997
0.853026
0.853052
0.853075
0.853097
0.853115
0.853132
0.853147
0.85316
0.853171
0.853181
0.85319
0.853198
0.853204
0.85321
0.853215
0.853219
0.853223
0.853226
0.853228
0.853231
0.853232
0.853234
0.853235
0.853235
0.853235
0.853235
0.853235
0.853235
0.853234
0.853232
0.853231
0.853228
0.853226
0.853223
0.853219
0.853215
0.85321
0.853204
0.853198
0.85319
0.853181
0.853171
0.85316
0.853147
0.853132
0.853115
0.853097
0.853075
0.853052
0.853026
0.852997
0.852965
0.852932
0.852898
0.852871
1.32188
1.32193
1.32199
1.32206
1.32212
1.32218
1.32223
1.32228
1.32232
1.32236
1.32239
1.32242
1.32244
1.32246
1.32248
1.3225
1.32252
1.32253
1.32254
1.32255
1.32256
1.32256
1.32257
1.32257
1.32258
1.32258
1.32258
1.32259
1.32259
1.32259
1.32259
1.32259
1.32259
1.32258
1.32258
1.32258
1.32257
1.32257
1.32256
1.32256
1.32255
1.32254
1.32253
1.32252
1.3225
1.32248
1.32246
1.32244
1.32242
1.32239
1.32236
1.32232
1.32228
1.32223
1.32218
1.32212
1.32206
1.32199
1.32193
1.32188
1.78007
1.78016
1.78026
1.78036
1.78046
1.78055
1.78063
1.7807
1.78077
1.78082
1.78087
1.78092
1.78096
1.78099
1.78102
1.78105
1.78107
1.78109
1.78111
1.78112
1.78114
1.78115
1.78116
1.78116
1.78117
1.78117
1.78118
1.78118
1.78118
1.78118
1.78118
1.78118
1.78118
1.78118
1.78117
1.78117
1.78116
1.78116
1.78115
1.78114
1.78112
1.78111
1.78109
1.78107
1.78105
1.78102
1.78099
1.78096
1.78092
1.78087
1.78082
1.78077
1.7807
1.78063
1.78055
1.78046
1.78036
1.78026
1.78016
1.78007
2.2401
2.24022
2.24036
2.2405
2.24063
2.24076
2.24087
2.24097
2.24106
2.24114
2.24121
2.24127
2.24133
2.24137
2.24142
2.24145
2.24148
2.24151
2.24153
2.24155
2.24157
2.24159
2.2416
2.24161
2.24162
2.24162
2.24163
2.24163
2.24164
2.24164
2.24164
2.24164
2.24163
2.24163
2.24162
2.24162
2.24161
2.2416
2.24159
2.24157
2.24155
2.24153
2.24151
2.24148
2.24145
2.24142
2.24137
2.24133
2.24127
2.24121
2.24114
2.24106
2.24097
2.24087
2.24076
2.24063
2.2405
2.24036
2.24022
2.2401
2.70688
2.70703
2.70721
2.7074
2.70757
2.70773
2.70787
2.708
2.70812
2.70822
2.70831
2.70839
2.70846
2.70853
2.70858
2.70863
2.70867
2.7087
2.70873
2.70876
2.70878
2.7088
2.70882
2.70883
2.70884
2.70885
2.70886
2.70886
2.70886
2.70887
2.70887
2.70886
2.70886
2.70886
2.70885
2.70884
2.70883
2.70882
2.7088
2.70878
2.70876
2.70873
2.7087
2.70867
2.70863
2.70858
2.70853
2.70846
2.70839
2.70831
2.70822
2.70812
2.708
2.70787
2.70773
2.70757
2.7074
2.70721
2.70703
2.70688
3.18234
3.18253
3.18275
3.18298
3.18319
3.18339
3.18357
3.18373
3.18387
3.184
3.18411
3.18421
3.18429
3.18437
3.18444
3.18449
3.18454
3.18459
3.18462
3.18466
3.18468
3.18471
3.18473
3.18474
3.18476
3.18477
3.18477
3.18478
3.18478
3.18479
3.18479
3.18478
3.18478
3.18477
3.18477
3.18476
3.18474
3.18473
3.18471
3.18468
3.18466
3.18462
3.18459
3.18454
3.18449
3.18444
3.18437
3.18429
3.18421
3.18411
3.184
3.18387
3.18373
3.18357
3.18339
3.18319
3.18298
3.18275
3.18253
3.18234
3.66723
3.66745
3.66772
3.66799
3.66824
3.66847
3.66869
3.66888
3.66905
3.6692
3.66933
3.66945
3.66955
3.66964
3.66972
3.66979
3.66985
3.6699
3.66994
3.66998
3.67001
3.67004
3.67006
3.67008
3.6701
3.67011
3.67012
3.67013
3.67013
3.67014
3.67014
3.67013
3.67013
3.67012
3.67011
3.6701
3.67008
3.67006
3.67004
3.67001
3.66998
3.66994
3.6699
3.66985
3.66979
3.66972
3.66964
3.66955
3.66945
3.66933
3.6692
3.66905
3.66888
3.66869
3.66847
3.66824
3.66799
3.66772
3.66745
3.66723
4.1618
4.16205
4.16236
4.16268
4.16297
4.16324
4.16349
4.16371
4.16391
4.16408
4.16424
4.16437
4.16449
4.1646
4.16469
4.16477
4.16484
4.1649
4.16495
4.16499
4.16503
4.16506
4.16509
4.16511
4.16513
4.16515
4.16516
4.16517
4.16517
4.16517
4.16517
4.16517
4.16517
4.16516
4.16515
4.16513
4.16511
4.16509
4.16506
4.16503
4.16499
4.16495
4.1649
4.16484
4.16477
4.16469
4.1646
4.16449
4.16437
4.16424
4.16408
4.16391
4.16371
4.16349
4.16324
4.16297
4.16268
4.16236
4.16205
4.1618
4.66611
4.6664
4.66675
4.66711
4.66745
4.66776
4.66804
4.66829
4.66851
4.66871
4.66889
4.66905
4.66918
4.6693
4.66941
4.6695
4.66958
4.66964
4.6697
4.66975
4.6698
4.66983
4.66986
4.66989
4.66991
4.66993
4.66994
4.66995
4.66996
4.66996
4.66996
4.66996
4.66995
4.66994
4.66993
4.66991
4.66989
4.66986
4.66983
4.6698
4.66975
4.6697
4.66964
4.66958
4.6695
4.66941
4.6693
4.66918
4.66905
4.66889
4.66871
4.66851
4.66829
4.66804
4.66776
4.66745
4.66711
4.66675
4.6664
4.66611
5.18014
5.18046
5.18086
5.18126
5.18164
5.18199
5.18231
5.18259
5.18284
5.18307
5.18327
5.18344
5.18359
5.18373
5.18385
5.18395
5.18404
5.18411
5.18418
5.18424
5.18428
5.18432
5.18436
5.18439
5.18441
5.18443
5.18445
5.18446
5.18446
5.18447
5.18447
5.18446
5.18446
5.18445
5.18443
5.18441
5.18439
5.18436
5.18432
5.18428
5.18424
5.18418
5.18411
5.18404
5.18395
5.18385
5.18373
5.18359
5.18344
5.18327
5.18307
5.18284
5.18259
5.18231
5.18199
5.18164
5.18126
5.18086
5.18046
5.18014
5.70381
5.70416
5.70461
5.70506
5.70548
5.70586
5.70621
5.70653
5.70681
5.70706
5.70728
5.70747
5.70764
5.70779
5.70792
5.70804
5.70813
5.70822
5.70829
5.70836
5.70841
5.70846
5.70849
5.70853
5.70855
5.70857
5.70859
5.7086
5.70861
5.70861
5.70861
5.70861
5.7086
5.70859
5.70857
5.70855
5.70853
5.70849
5.70846
5.70841
5.70836
5.70829
5.70822
5.70813
5.70804
5.70792
5.70779
5.70764
5.70747
5.70728
5.70706
5.70681
5.70653
5.70621
5.70586
5.70548
5.70506
5.70461
5.70416
5.70381
6.23699
6.23738
6.23787
6.23836
6.23882
6.23925
6.23964
6.23998
6.24029
6.24056
6.24081
6.24102
6.24121
6.24137
6.24152
6.24164
6.24175
6.24184
6.24192
6.24199
6.24205
6.2421
6.24214
6.24218
6.24221
6.24223
6.24225
6.24226
6.24227
6.24228
6.24228
6.24227
6.24226
6.24225
6.24223
6.24221
6.24218
6.24214
6.2421
6.24205
6.24199
6.24192
6.24184
6.24175
6.24164
6.24152
6.24137
6.24121
6.24102
6.24081
6.24056
6.24029
6.23998
6.23964
6.23925
6.23882
6.23836
6.23787
6.23738
6.23699
6.77952
6.77995
6.78048
6.78102
6.78152
6.78199
6.78241
6.78278
6.78312
6.78342
6.78369
6.78392
6.78412
6.7843
6.78446
6.78459
6.78471
6.78481
6.7849
6.78498
6.78504
6.7851
6.78514
6.78518
6.78522
6.78524
6.78526
6.78528
6.78528
6.78529
6.78529
6.78528
6.78528
6.78526
6.78524
6.78522
6.78518
6.78514
6.7851
6.78504
6.78498
6.7849
6.78481
6.78471
6.78459
6.78446
6.7843
6.78412
6.78392
6.78369
6.78342
6.78312
6.78278
6.78241
6.78199
6.78152
6.78102
6.78048
6.77995
6.77952
7.3312
7.33166
7.33224
7.33282
7.33337
7.33387
7.33432
7.33473
7.3351
7.33542
7.33571
7.33596
7.33618
7.33638
7.33655
7.33669
7.33682
7.33693
7.33703
7.33711
7.33718
7.33724
7.33729
7.33733
7.33737
7.33739
7.33742
7.33743
7.33744
7.33745
7.33745
7.33744
7.33743
7.33742
7.33739
7.33737
7.33733
7.33729
7.33724
7.33718
7.33711
7.33703
7.33693
7.33682
7.33669
7.33655
7.33638
7.33618
7.33596
7.33571
7.33542
7.3351
7.33473
7.33432
7.33387
7.33337
7.33282
7.33224
7.33166
7.3312
7.89177
7.89226
7.89288
7.89351
7.8941
7.89464
7.89513
7.89557
7.89596
7.89631
7.89662
7.89689
7.89713
7.89734
7.89752
7.89768
7.89782
7.89794
7.89804
7.89813
7.8982
7.89827
7.89832
7.89837
7.89841
7.89843
7.89846
7.89848
7.89849
7.89849
7.89849
7.89849
7.89848
7.89846
7.89843
7.89841
7.89837
7.89832
7.89827
7.8982
7.89813
7.89804
7.89794
7.89782
7.89768
7.89752
7.89734
7.89713
7.89689
7.89662
7.89631
7.89596
7.89557
7.89513
7.89464
7.8941
7.89351
7.89288
7.89226
7.89177
8.46092
8.46145
8.46212
8.46278
8.46341
8.46399
8.46452
8.46499
8.46541
8.46578
8.46611
8.4664
8.46666
8.46688
8.46708
8.46725
8.4674
8.46752
8.46763
8.46773
8.46781
8.46788
8.46794
8.46799
8.46803
8.46806
8.46808
8.4681
8.46811
8.46812
8.46812
8.46811
8.4681
8.46808
8.46806
8.46803
8.46799
8.46794
8.46788
8.46781
8.46773
8.46763
8.46752
8.4674
8.46725
8.46708
8.46688
8.46666
8.4664
8.46611
8.46578
8.46541
8.46499
8.46452
8.46399
8.46341
8.46278
8.46212
8.46145
8.46092
9.03829
9.03886
9.03957
9.04028
9.04095
9.04157
9.04212
9.04263
9.04307
9.04347
9.04382
9.04413
9.0444
9.04464
9.04485
9.04503
9.04519
9.04533
9.04544
9.04554
9.04563
9.0457
9.04577
9.04582
9.04586
9.0459
9.04592
9.04594
9.04595
9.04596
9.04596
9.04595
9.04594
9.04592
9.0459
9.04586
9.04582
9.04577
9.0457
9.04563
9.04554
9.04544
9.04533
9.04519
9.04503
9.04485
9.04464
9.0444
9.04413
9.04382
9.04347
9.04307
9.04263
9.04212
9.04157
9.04095
9.04028
9.03957
9.03886
9.03829
9.62346
9.62406
9.6248
9.62556
9.62627
9.62692
9.62751
9.62805
9.62852
9.62894
9.62932
9.62964
9.62993
9.63019
9.63041
9.6306
9.63077
9.63091
9.63104
9.63114
9.63123
9.63131
9.63138
9.63143
9.63148
9.63151
9.63154
9.63156
9.63158
9.63158
9.63158
9.63158
9.63156
9.63154
9.63151
9.63148
9.63143
9.63138
9.63131
9.63123
9.63114
9.63104
9.63091
9.63077
9.6306
9.63041
9.63019
9.62993
9.62964
9.62932
9.62894
9.62852
9.62805
9.62751
9.62692
9.62627
9.62556
9.6248
9.62406
9.62346
10.2159
10.2165
10.2173
10.2181
10.2189
10.2196
10.2202
10.2207
10.2212
10.2217
10.2221
10.2224
10.2227
10.223
10.2232
10.2234
10.2236
10.2238
10.2239
10.224
10.2241
10.2242
10.2243
10.2243
10.2244
10.2244
10.2244
10.2245
10.2245
10.2245
10.2245
10.2245
10.2245
10.2244
10.2244
10.2244
10.2243
10.2243
10.2242
10.2241
10.224
10.2239
10.2238
10.2236
10.2234
10.2232
10.223
10.2227
10.2224
10.2221
10.2217
10.2212
10.2207
10.2202
10.2196
10.2189
10.2181
10.2173
10.2165
10.2159
10.815
10.8157
10.8165
10.8174
10.8182
10.8189
10.8195
10.8201
10.8207
10.8211
10.8215
10.8219
10.8222
10.8225
10.8228
10.823
10.8232
10.8233
10.8235
10.8236
10.8237
10.8238
10.8238
10.8239
10.8239
10.824
10.824
10.824
10.8241
10.8241
10.8241
10.8241
10.824
10.824
10.824
10.8239
10.8239
10.8238
10.8238
10.8237
10.8236
10.8235
10.8233
10.8232
10.823
10.8228
10.8225
10.8222
10.8219
10.8215
10.8211
10.8207
10.8201
10.8195
10.8189
10.8182
10.8174
10.8165
10.8157
10.815
11.4202
11.4209
11.4218
11.4226
11.4235
11.4242
11.4249
11.4255
11.4261
11.4266
11.427
11.4274
11.4277
11.428
11.4283
11.4285
11.4287
11.4289
11.429
11.4291
11.4292
11.4293
11.4294
11.4295
11.4295
11.4296
11.4296
11.4296
11.4296
11.4296
11.4296
11.4296
11.4296
11.4296
11.4296
11.4295
11.4295
11.4294
11.4293
11.4292
11.4291
11.429
11.4289
11.4287
11.4285
11.4283
11.428
11.4277
11.4274
11.427
11.4266
11.4261
11.4255
11.4249
11.4242
11.4235
11.4226
11.4218
11.4209
11.4202
12.0306
12.0313
12.0322
12.0331
12.034
12.0348
12.0355
12.0361
12.0367
12.0372
12.0377
12.0381
12.0384
12.0387
12.039
12.0392
12.0394
12.0396
12.0397
12.0399
12.04
12.0401
12.0402
12.0402
12.0403
12.0403
12.0404
12.0404
12.0404
12.0404
12.0404
12.0404
12.0404
12.0404
12.0403
12.0403
12.0402
12.0402
12.0401
12.04
12.0399
12.0397
12.0396
12.0394
12.0392
12.039
12.0387
12.0384
12.0381
12.0377
12.0372
12.0367
12.0361
12.0355
12.0348
12.034
12.0331
12.0322
12.0313
12.0306
12.6452
12.646
12.6469
12.6479
12.6488
12.6496
12.6503
12.651
12.6516
12.6521
12.6526
12.653
12.6534
12.6537
12.654
12.6542
12.6544
12.6546
12.6548
12.6549
12.655
12.6551
12.6552
12.6553
12.6554
12.6554
12.6554
12.6555
12.6555
12.6555
12.6555
12.6555
12.6555
12.6554
12.6554
12.6554
12.6553
12.6552
12.6551
12.655
12.6549
12.6548
12.6546
12.6544
12.6542
12.654
12.6537
12.6534
12.653
12.6526
12.6521
12.6516
12.651
12.6503
12.6496
12.6488
12.6479
12.6469
12.646
12.6452
13.2632
13.264
13.2649
13.2659
13.2669
13.2677
13.2685
13.2692
13.2698
13.2703
13.2708
13.2712
13.2716
13.272
13.2722
13.2725
13.2727
13.2729
13.2731
13.2732
13.2733
13.2734
13.2735
13.2736
13.2737
13.2737
13.2737
13.2738
13.2738
13.2738
13.2738
13.2738
13.2738
13.2737
13.2737
13.2737
13.2736
13.2735
13.2734
13.2733
13.2732
13.2731
13.2729
13.2727
13.2725
13.2722
13.272
13.2716
13.2712
13.2708
13.2703
13.2698
13.2692
13.2685
13.2677
13.2669
13.2659
13.2649
13.264
13.2632
13.8832
13.884
13.885
13.886
13.887
13.8878
13.8886
13.8893
13.89
13.8905
13.891
13.8915
13.8919
13.8922
13.8925
13.8928
13.893
13.8932
13.8934
13.8935
13.8936
13.8938
13.8938
13.8939
13.894
13.894
13.8941
13.8941
13.8941
13.8941
13.8941
13.8941
13.8941
13.8941
13.894
13.894
13.8939
13.8938
13.8938
13.8936
13.8935
13.8934
13.8932
13.893
13.8928
13.8925
13.8922
13.8919
13.8915
13.891
13.8905
13.89
13.8893
13.8886
13.8878
13.887
13.886
13.885
13.884
13.8832
14.5038
14.5047
14.5057
14.5067
14.5077
14.5086
14.5094
14.5102
14.5108
14.5114
14.5119
14.5124
14.5128
14.5131
14.5134
14.5137
14.5139
14.5141
14.5143
14.5145
14.5146
14.5147
14.5148
14.5149
14.5149
14.515
14.515
14.5151
14.5151
14.5151
14.5151
14.5151
14.5151
14.515
14.515
14.5149
14.5149
14.5148
14.5147
14.5146
14.5145
14.5143
14.5141
14.5139
14.5137
14.5134
14.5131
14.5128
14.5124
14.5119
14.5114
14.5108
14.5102
14.5094
14.5086
14.5077
14.5067
14.5057
14.5047
14.5038
15.1236
15.1244
15.1255
15.1265
15.1275
15.1285
15.1293
15.13
15.1307
15.1313
15.1318
15.1323
15.1327
15.1331
15.1334
15.1336
15.1339
15.1341
15.1343
15.1344
15.1346
15.1347
15.1348
15.1348
15.1349
15.135
15.135
15.135
15.1351
15.1351
15.1351
15.1351
15.135
15.135
15.135
15.1349
15.1348
15.1348
15.1347
15.1346
15.1344
15.1343
15.1341
15.1339
15.1336
15.1334
15.1331
15.1327
15.1323
15.1318
15.1313
15.1307
15.13
15.1293
15.1285
15.1275
15.1265
15.1255
15.1244
15.1236
15.7405
15.7414
15.7425
15.7435
15.7445
15.7455
15.7463
15.7471
15.7478
15.7484
15.7489
15.7494
15.7498
15.7502
15.7505
15.7508
15.751
15.7512
15.7514
15.7516
15.7517
15.7518
15.7519
15.752
15.7521
15.7521
15.7522
15.7522
15.7522
15.7522
15.7522
15.7522
15.7522
15.7522
15.7521
15.7521
15.752
15.7519
15.7518
15.7517
15.7516
15.7514
15.7512
15.751
15.7508
15.7505
15.7502
15.7498
15.7494
15.7489
15.7484
15.7478
15.7471
15.7463
15.7455
15.7445
15.7435
15.7425
15.7414
15.7405
16.3525
16.3534
16.3545
16.3556
16.3566
16.3576
16.3584
16.3592
16.3599
16.3605
16.361
16.3615
16.3619
16.3623
16.3626
16.3629
16.3632
16.3634
16.3636
16.3637
16.3639
16.364
16.3641
16.3642
16.3642
16.3643
16.3643
16.3644
16.3644
16.3644
16.3644
16.3644
16.3644
16.3643
16.3643
16.3642
16.3642
16.3641
16.364
16.3639
16.3637
16.3636
16.3634
16.3632
16.3629
16.3626
16.3623
16.3619
16.3615
16.361
16.3605
16.3599
16.3592
16.3584
16.3576
16.3566
16.3556
16.3545
16.3534
16.3525
16.9572
16.9581
16.9591
16.9602
16.9613
16.9622
16.9631
16.9639
16.9646
16.9652
16.9657
16.9662
16.9666
16.967
16.9673
16.9676
16.9679
16.9681
16.9683
16.9684
16.9686
16.9687
16.9688
16.9689
16.969
16.969
16.9691
16.9691
16.9691
16.9691
16.9691
16.9691
16.9691
16.9691
16.969
16.969
16.9689
16.9688
16.9687
16.9686
16.9684
16.9683
16.9681
16.9679
16.9676
16.9673
16.967
16.9666
16.9662
16.9657
16.9652
16.9646
16.9639
16.9631
16.9622
16.9613
16.9602
16.9591
16.9581
16.9572
17.5515
17.5524
17.5535
17.5546
17.5556
17.5566
17.5574
17.5582
17.5589
17.5595
17.5601
17.5605
17.561
17.5613
17.5617
17.562
17.5622
17.5624
17.5626
17.5628
17.5629
17.563
17.5631
17.5632
17.5633
17.5634
17.5634
17.5634
17.5635
17.5635
17.5635
17.5635
17.5634
17.5634
17.5634
17.5633
17.5632
17.5631
17.563
17.5629
17.5628
17.5626
17.5624
17.5622
17.562
17.5617
17.5613
17.561
17.5605
17.5601
17.5595
17.5589
17.5582
17.5574
17.5566
17.5556
17.5546
17.5535
17.5524
17.5515
18.1322
18.1331
18.1341
18.1352
18.1362
18.1372
18.138
18.1388
18.1395
18.1401
18.1406
18.1411
18.1415
18.1419
18.1423
18.1425
18.1428
18.143
18.1432
18.1434
18.1435
18.1436
18.1437
18.1438
18.1439
18.1439
18.144
18.144
18.144
18.144
18.144
18.144
18.144
18.144
18.1439
18.1439
18.1438
18.1437
18.1436
18.1435
18.1434
18.1432
18.143
18.1428
18.1425
18.1423
18.1419
18.1415
18.1411
18.1406
18.1401
18.1395
18.1388
18.138
18.1372
18.1362
18.1352
18.1341
18.1331
18.1322
18.6951
18.696
18.6971
18.6981
18.6991
18.7001
18.7009
18.7016
18.7023
18.7029
18.7035
18.7039
18.7043
18.7047
18.705
18.7053
18.7056
18.7058
18.706
18.7061
18.7063
18.7064
18.7065
18.7066
18.7066
18.7067
18.7067
18.7068
18.7068
18.7068
18.7068
18.7068
18.7068
18.7067
18.7067
18.7066
18.7066
18.7065
18.7064
18.7063
18.7061
18.706
18.7058
18.7056
18.7053
18.705
18.7047
18.7043
18.7039
18.7035
18.7029
18.7023
18.7016
18.7009
18.7001
18.6991
18.6981
18.6971
18.696
18.6951
19.2356
19.2365
19.2375
19.2386
19.2395
19.2404
19.2412
19.242
19.2426
19.2432
19.2437
19.2442
19.2446
19.2449
19.2453
19.2455
19.2458
19.246
19.2462
19.2463
19.2465
19.2466
19.2467
19.2468
19.2468
19.2469
19.2469
19.247
19.247
19.247
19.247
19.247
19.247
19.2469
19.2469
19.2468
19.2468
19.2467
19.2466
19.2465
19.2463
19.2462
19.246
19.2458
19.2455
19.2453
19.2449
19.2446
19.2442
19.2437
19.2432
19.2426
19.242
19.2412
19.2404
19.2395
19.2386
19.2375
19.2365
19.2356
19.7481
19.7489
19.7499
19.7508
19.7518
19.7526
19.7534
19.7541
19.7547
19.7552
19.7557
19.7562
19.7566
19.7569
19.7572
19.7575
19.7577
19.7579
19.7581
19.7582
19.7584
19.7585
19.7586
19.7587
19.7587
19.7588
19.7588
19.7589
19.7589
19.7589
19.7589
19.7589
19.7589
19.7588
19.7588
19.7587
19.7587
19.7586
19.7585
19.7584
19.7582
19.7581
19.7579
19.7577
19.7575
19.7572
19.7569
19.7566
19.7562
19.7557
19.7552
19.7547
19.7541
19.7534
19.7526
19.7518
19.7508
19.7499
19.7489
19.7481
20.2257
20.2265
20.2274
20.2283
20.2292
20.23
20.2307
20.2313
20.2319
20.2324
20.2329
20.2333
20.2337
20.234
20.2343
20.2345
20.2348
20.2349
20.2351
20.2353
20.2354
20.2355
20.2356
20.2357
20.2357
20.2358
20.2358
20.2358
20.2359
20.2359
20.2359
20.2359
20.2358
20.2358
20.2358
20.2357
20.2357
20.2356
20.2355
20.2354
20.2353
20.2351
20.2349
20.2348
20.2345
20.2343
20.234
20.2337
20.2333
20.2329
20.2324
20.2319
20.2313
20.2307
20.23
20.2292
20.2283
20.2274
20.2265
20.2257
20.6613
20.662
20.6629
20.6637
20.6645
20.6652
20.6658
20.6664
20.6669
20.6674
20.6678
20.6682
20.6685
20.6688
20.6691
20.6693
20.6695
20.6697
20.6699
20.67
20.6701
20.6702
20.6703
20.6704
20.6704
20.6705
20.6705
20.6705
20.6706
20.6706
20.6706
20.6706
20.6705
20.6705
20.6705
20.6704
20.6704
20.6703
20.6702
20.6701
20.67
20.6699
20.6697
20.6695
20.6693
20.6691
20.6688
20.6685
20.6682
20.6678
20.6674
20.6669
20.6664
20.6658
20.6652
20.6645
20.6637
20.6629
20.662
20.6613
21.0476
21.0482
21.0489
21.0496
21.0503
21.0509
21.0514
21.052
21.0524
21.0528
21.0532
21.0536
21.0538
21.0541
21.0543
21.0546
21.0547
21.0549
21.055
21.0552
21.0553
21.0554
21.0554
21.0555
21.0556
21.0556
21.0556
21.0557
21.0557
21.0557
21.0557
21.0557
21.0557
21.0556
21.0556
21.0556
21.0555
21.0554
21.0554
21.0553
21.0552
21.055
21.0549
21.0547
21.0546
21.0543
21.0541
21.0538
21.0536
21.0532
21.0528
21.0524
21.052
21.0514
21.0509
21.0503
21.0496
21.0489
21.0482
21.0476
21.3788
21.3793
21.3799
21.3805
21.381
21.3815
21.382
21.3824
21.3828
21.3832
21.3835
21.3838
21.384
21.3843
21.3845
21.3847
21.3848
21.385
21.3851
21.3852
21.3853
21.3854
21.3854
21.3855
21.3855
21.3856
21.3856
21.3856
21.3857
21.3857
21.3857
21.3857
21.3856
21.3856
21.3856
21.3855
21.3855
21.3854
21.3854
21.3853
21.3852
21.3851
21.385
21.3848
21.3847
21.3845
21.3843
21.384
21.3838
21.3835
21.3832
21.3828
21.3824
21.382
21.3815
21.381
21.3805
21.3799
21.3793
21.3788
21.6531
21.6535
21.654
21.6544
21.6549
21.6553
21.6557
21.656
21.6563
21.6566
21.6569
21.6571
21.6573
21.6575
21.6577
21.6578
21.658
21.6581
21.6582
21.6583
21.6584
21.6585
21.6585
21.6586
21.6586
21.6587
21.6587
21.6587
21.6587
21.6587
21.6587
21.6587
21.6587
21.6587
21.6587
21.6586
21.6586
21.6585
21.6585
21.6584
21.6583
21.6582
21.6581
21.658
21.6578
21.6577
21.6575
21.6573
21.6571
21.6569
21.6566
21.6563
21.656
21.6557
21.6553
21.6549
21.6544
21.654
21.6535
21.6531
21.8738
21.874
21.8744
21.8747
21.8751
21.8754
21.8757
21.876
21.8762
21.8765
21.8767
21.8769
21.877
21.8772
21.8773
21.8775
21.8776
21.8777
21.8778
21.8779
21.8779
21.878
21.878
21.8781
21.8781
21.8782
21.8782
21.8782
21.8782
21.8782
21.8782
21.8782
21.8782
21.8782
21.8782
21.8781
21.8781
21.878
21.878
21.8779
21.8779
21.8778
21.8777
21.8776
21.8775
21.8773
21.8772
21.877
21.8769
21.8767
21.8765
21.8762
21.876
21.8757
21.8754
21.8751
21.8747
21.8744
21.874
21.8738
22.0484
22.0486
22.0489
22.0491
22.0494
22.0496
22.0499
22.0501
22.0503
22.0504
22.0506
22.0508
22.0509
22.051
22.0512
22.0513
22.0514
22.0515
22.0515
22.0516
22.0517
22.0517
22.0518
22.0518
22.0519
22.0519
22.0519
22.0519
22.0519
22.0519
22.0519
22.0519
22.0519
22.0519
22.0519
22.0519
22.0518
22.0518
22.0517
22.0517
22.0516
22.0515
22.0515
22.0514
22.0513
22.0512
22.051
22.0509
22.0508
22.0506
22.0504
22.0503
22.0501
22.0499
22.0496
22.0494
22.0491
22.0489
22.0486
22.0484
22.187
22.1871
22.1873
22.1875
22.1877
22.1879
22.188
22.1882
22.1883
22.1885
22.1886
22.1888
22.1889
22.189
22.1891
22.1892
22.1893
22.1894
22.1894
22.1895
22.1895
22.1896
22.1896
22.1897
22.1897
22.1897
22.1898
22.1898
22.1898
22.1898
22.1898
22.1898
22.1898
22.1898
22.1897
22.1897
22.1897
22.1896
22.1896
22.1895
22.1895
22.1894
22.1894
22.1893
22.1892
22.1891
22.189
22.1889
22.1888
22.1886
22.1885
22.1883
22.1882
22.188
22.1879
22.1877
22.1875
22.1873
22.1871
22.187
22.299
22.2991
22.2992
22.2993
22.2995
22.2996
22.2998
22.2999
22.3
22.3001
22.3002
22.3004
22.3005
22.3006
22.3006
22.3007
22.3008
22.3009
22.301
22.301
22.3011
22.3011
22.3012
22.3012
22.3012
22.3013
22.3013
22.3013
22.3013
22.3013
22.3013
22.3013
22.3013
22.3013
22.3013
22.3012
22.3012
22.3012
22.3011
22.3011
22.301
22.301
22.3009
22.3008
22.3007
22.3006
22.3006
22.3005
22.3004
22.3002
22.3001
22.3
22.2999
22.2998
22.2996
22.2995
22.2993
22.2992
22.2991
22.299
22.3921
22.3921
22.3922
22.3923
22.3924
22.3926
22.3927
22.3928
22.3929
22.393
22.3931
22.3932
22.3933
22.3934
22.3934
22.3935
22.3936
22.3937
22.3937
22.3938
22.3938
22.3939
22.3939
22.394
22.394
22.394
22.394
22.394
22.3941
22.3941
22.3941
22.3941
22.394
22.394
22.394
22.394
22.394
22.3939
22.3939
22.3938
22.3938
22.3937
22.3937
22.3936
22.3935
22.3934
22.3934
22.3933
22.3932
22.3931
22.393
22.3929
22.3928
22.3927
22.3926
22.3924
22.3923
22.3922
22.3921
22.3921
22.4717
22.4718
22.4718
22.4719
22.472
22.4721
22.4722
22.4723
22.4724
22.4725
22.4725
22.4726
22.4727
22.4728
22.4729
22.473
22.473
22.4731
22.4732
22.4732
22.4733
22.4733
22.4733
22.4734
22.4734
22.4734
22.4735
22.4735
22.4735
22.4735
22.4735
22.4735
22.4735
22.4735
22.4734
22.4734
22.4734
22.4733
22.4733
22.4733
22.4732
22.4732
22.4731
22.473
22.473
22.4729
22.4728
22.4727
22.4726
22.4725
22.4725
22.4724
22.4723
22.4722
22.4721
22.472
22.4719
22.4718
22.4718
22.4717
22.5416
22.5416
22.5416
22.5417
22.5418
22.5419
22.5419
22.542
22.5421
22.5422
22.5423
22.5423
22.5424
22.5425
22.5426
22.5427
22.5427
22.5428
22.5429
22.5429
22.543
22.543
22.543
22.5431
22.5431
22.5431
22.5432
22.5432
22.5432
22.5432
22.5432
22.5432
22.5432
22.5432
22.5431
22.5431
22.5431
22.543
22.543
22.543
22.5429
22.5429
22.5428
22.5427
22.5427
22.5426
22.5425
22.5424
22.5423
22.5423
22.5422
22.5421
22.542
22.5419
22.5419
22.5418
22.5417
22.5416
22.5416
22.5416
22.604
22.604
22.6041
22.6041
22.6042
22.6043
22.6043
22.6044
22.6045
22.6046
22.6046
22.6047
22.6048
22.6049
22.6049
22.605
22.6051
22.6052
22.6052
22.6053
22.6053
22.6054
22.6054
22.6054
22.6055
22.6055
22.6055
22.6055
22.6055
22.6056
22.6056
22.6055
22.6055
22.6055
22.6055
22.6055
22.6054
22.6054
22.6054
22.6053
22.6053
22.6052
22.6052
22.6051
22.605
22.6049
22.6049
22.6048
22.6047
22.6046
22.6046
22.6045
22.6044
22.6043
22.6043
22.6042
22.6041
22.6041
22.604
22.604
22.6607
22.6607
22.6607
22.6608
22.6608
22.6609
22.6609
22.661
22.6611
22.6612
22.6612
22.6613
22.6614
22.6615
22.6615
22.6616
22.6617
22.6618
22.6618
22.6619
22.6619
22.662
22.662
22.6621
22.6621
22.6621
22.6621
22.6621
22.6622
22.6622
22.6622
22.6622
22.6621
22.6621
22.6621
22.6621
22.6621
22.662
22.662
22.6619
22.6619
22.6618
22.6618
22.6617
22.6616
22.6615
22.6615
22.6614
22.6613
22.6612
22.6612
22.6611
22.661
22.6609
22.6609
22.6608
22.6608
22.6607
22.6607
22.6607
22.7127
22.7127
22.7127
22.7128
22.7128
22.7129
22.7129
22.713
22.7131
22.7131
22.7132
22.7133
22.7134
22.7134
22.7135
22.7136
22.7137
22.7137
22.7138
22.7138
22.7139
22.7139
22.714
22.714
22.7141
22.7141
22.7141
22.7141
22.7141
22.7141
22.7141
22.7141
22.7141
22.7141
22.7141
22.7141
22.714
22.714
22.7139
22.7139
22.7138
22.7138
22.7137
22.7137
22.7136
22.7135
22.7134
22.7134
22.7133
22.7132
22.7131
22.7131
22.713
22.7129
22.7129
22.7128
22.7128
22.7127
22.7127
22.7127
22.7609
22.7609
22.7609
22.7609
22.761
22.761
22.7611
22.7611
22.7612
22.7613
22.7613
22.7614
22.7615
22.7616
22.7616
22.7617
22.7618
22.7619
22.7619
22.762
22.762
22.7621
22.7621
22.7622
22.7622
22.7622
22.7623
22.7623
22.7623
22.7623
22.7623
22.7623
22.7623
22.7623
22.7622
22.7622
22.7622
22.7621
22.7621
22.762
22.762
22.7619
22.7619
22.7618
22.7617
22.7616
22.7616
22.7615
22.7614
22.7613
22.7613
22.7612
22.7611
22.7611
22.761
22.761
22.7609
22.7609
22.7609
22.7609
22.8058
22.8058
22.8058
22.8058
22.8059
22.8059
22.806
22.806
22.8061
22.8062
22.8062
22.8063
22.8064
22.8065
22.8066
22.8066
22.8067
22.8068
22.8068
22.8069
22.807
22.807
22.807
22.8071
22.8071
22.8071
22.8072
22.8072
22.8072
22.8072
22.8072
22.8072
22.8072
22.8072
22.8071
22.8071
22.8071
22.807
22.807
22.807
22.8069
22.8068
22.8068
22.8067
22.8066
22.8066
22.8065
22.8064
22.8063
22.8062
22.8062
22.8061
22.806
22.806
22.8059
22.8059
22.8058
22.8058
22.8058
22.8058
22.848
22.848
22.848
22.848
22.848
22.8481
22.8481
22.8482
22.8482
22.8483
22.8484
22.8485
22.8485
22.8486
22.8487
22.8488
22.8489
22.8489
22.849
22.8491
22.8491
22.8492
22.8492
22.8493
22.8493
22.8493
22.8493
22.8494
22.8494
22.8494
22.8494
22.8494
22.8494
22.8493
22.8493
22.8493
22.8493
22.8492
22.8492
22.8491
22.8491
22.849
22.8489
22.8489
22.8488
22.8487
22.8486
22.8485
22.8485
22.8484
22.8483
22.8482
22.8482
22.8481
22.8481
22.848
22.848
22.848
22.848
22.848
22.8877
22.8877
22.8877
22.8878
22.8878
22.8878
22.8879
22.8879
22.888
22.8881
22.8882
22.8882
22.8883
22.8884
22.8885
22.8886
22.8886
22.8887
22.8888
22.8888
22.8889
22.889
22.889
22.889
22.8891
22.8891
22.8891
22.8892
22.8892
22.8892
22.8892
22.8892
22.8892
22.8891
22.8891
22.8891
22.889
22.889
22.889
22.8889
22.8888
22.8888
22.8887
22.8886
22.8886
22.8885
22.8884
22.8883
22.8882
22.8882
22.8881
22.888
22.8879
22.8879
22.8878
22.8878
22.8878
22.8877
22.8877
22.8877
22.9254
22.9254
22.9254
22.9254
22.9255
22.9255
22.9256
22.9256
22.9257
22.9258
22.9258
22.9259
22.926
22.9261
22.9262
22.9263
22.9263
22.9264
22.9265
22.9265
22.9266
22.9267
22.9267
22.9268
22.9268
22.9268
22.9268
22.9269
22.9269
22.9269
22.9269
22.9269
22.9269
22.9268
22.9268
22.9268
22.9268
22.9267
22.9267
22.9266
22.9265
22.9265
22.9264
22.9263
22.9263
22.9262
22.9261
22.926
22.9259
22.9258
22.9258
22.9257
22.9256
22.9256
22.9255
22.9255
22.9254
22.9254
22.9254
22.9254
22.9613
22.9613
22.9613
22.9613
22.9613
22.9613
22.9614
22.9615
22.9615
22.9616
22.9617
22.9618
22.9619
22.9619
22.962
22.9621
22.9622
22.9623
22.9623
22.9624
22.9625
22.9625
22.9626
22.9626
22.9627
22.9627
22.9627
22.9627
22.9628
22.9628
22.9628
22.9628
22.9627
22.9627
22.9627
22.9627
22.9626
22.9626
22.9625
22.9625
22.9624
22.9623
22.9623
22.9622
22.9621
22.962
22.9619
22.9619
22.9618
22.9617
22.9616
22.9615
22.9615
22.9614
22.9613
22.9613
22.9613
22.9613
22.9613
22.9613
22.9955
22.9955
22.9955
22.9955
22.9955
22.9956
22.9956
22.9957
22.9957
22.9958
22.9959
22.996
22.9961
22.9962
22.9963
22.9963
22.9964
22.9965
22.9966
22.9967
22.9967
22.9968
22.9968
22.9969
22.9969
22.997
22.997
22.997
22.997
22.997
22.997
22.997
22.997
22.997
22.997
22.9969
22.9969
22.9968
22.9968
22.9967
22.9967
22.9966
22.9965
22.9964
22.9963
22.9963
22.9962
22.9961
22.996
22.9959
22.9958
22.9957
22.9957
22.9956
22.9956
22.9955
22.9955
22.9955
22.9955
22.9955
23.0282
23.0282
23.0282
23.0282
23.0283
23.0283
23.0284
23.0284
23.0285
23.0286
23.0287
23.0288
23.0288
23.0289
23.029
23.0291
23.0292
23.0293
23.0294
23.0294
23.0295
23.0296
23.0296
23.0297
23.0297
23.0298
23.0298
23.0298
23.0298
23.0298
23.0298
23.0298
23.0298
23.0298
23.0298
23.0297
23.0297
23.0296
23.0296
23.0295
23.0294
23.0294
23.0293
23.0292
23.0291
23.029
23.0289
23.0288
23.0288
23.0287
23.0286
23.0285
23.0284
23.0284
23.0283
23.0283
23.0282
23.0282
23.0282
23.0282
23.0596
23.0596
23.0596
23.0597
23.0597
23.0597
23.0598
23.0599
23.0599
23.06
23.0601
23.0602
23.0603
23.0604
23.0605
23.0606
23.0607
23.0608
23.0608
23.0609
23.061
23.0611
23.0611
23.0612
23.0612
23.0612
23.0613
23.0613
23.0613
23.0613
23.0613
23.0613
23.0613
23.0613
23.0612
23.0612
23.0612
23.0611
23.0611
23.061
23.0609
23.0608
23.0608
23.0607
23.0606
23.0605
23.0604
23.0603
23.0602
23.0601
23.06
23.0599
23.0599
23.0598
23.0597
23.0597
23.0597
23.0596
23.0596
23.0596
23.0899
23.0899
23.0899
23.0899
23.0899
23.09
23.09
23.0901
23.0902
23.0903
23.0904
23.0905
23.0906
23.0907
23.0908
23.0909
23.091
23.091
23.0911
23.0912
23.0913
23.0913
23.0914
23.0915
23.0915
23.0915
23.0916
23.0916
23.0916
23.0916
23.0916
23.0916
23.0916
23.0916
23.0915
23.0915
23.0915
23.0914
23.0913
23.0913
23.0912
23.0911
23.091
23.091
23.0909
23.0908
23.0907
23.0906
23.0905
23.0904
23.0903
23.0902
23.0901
23.09
23.09
23.0899
23.0899
23.0899
23.0899
23.0899
23.119
23.119
23.119
23.1191
23.1191
23.1191
23.1192
23.1193
23.1194
23.1194
23.1195
23.1196
23.1197
23.1199
23.12
23.1201
23.1202