/*--------------------------------*- C++ -*----------------------------------*\
| =========                 |                                                 |
| \\      /  F ield         | foam-extend: Open Source CFD                    |
|  \\    /   O peration     | Version:     4.0                                |
|   \\  /    A nd           | Web:         http://www.foam-extend.org         |
|    \\/     M anipulation  |                                                 |
\*---------------------------------------------------------------------------*/
FoamFile
{
    version     2.0;
    format      ascii;
    class       volScalarField;
    location    "1370";
    object      cMinus;
}
// * * * * * * * * * * * * * * * * * * * * * * * * * * * * * * * * * * * * * //

dimensions      [0 0 0 0 0 0 0];

internalField   nonuniform List<scalar> 
6960
(
1.01573e-23
1.01581e-23
1.01591e-23
1.01595e-23
1.01598e-23
1.016e-23
1.01602e-23
1.01604e-23
1.01606e-23
1.01608e-23
1.0161e-23
1.01612e-23
1.01614e-23
1.01616e-23
1.01618e-23
1.0162e-23
1.01622e-23
1.01623e-23
1.01625e-23
1.01626e-23
1.01627e-23
1.01628e-23
1.01629e-23
1.0163e-23
1.01631e-23
1.01632e-23
1.01632e-23
1.01632e-23
1.01633e-23
1.01633e-23
1.01633e-23
1.01633e-23
1.01632e-23
1.01632e-23
1.01632e-23
1.01631e-23
1.0163e-23
1.01629e-23
1.01628e-23
1.01627e-23
1.01626e-23
1.01625e-23
1.01623e-23
1.01622e-23
1.0162e-23
1.01618e-23
1.01616e-23
1.01614e-23
1.01612e-23
1.0161e-23
1.01608e-23
1.01606e-23
1.01604e-23
1.01602e-23
1.016e-23
1.01598e-23
1.01595e-23
1.01591e-23
1.01581e-23
1.01573e-23
2.86255e-23
2.86319e-23
2.86352e-23
2.86369e-23
2.86382e-23
2.86394e-23
2.86405e-23
2.86416e-23
2.86427e-23
2.86438e-23
2.86449e-23
2.8646e-23
2.8647e-23
2.8648e-23
2.86489e-23
2.86498e-23
2.86506e-23
2.86514e-23
2.86522e-23
2.86528e-23
2.86534e-23
2.8654e-23
2.86545e-23
2.86549e-23
2.86553e-23
2.86556e-23
2.86558e-23
2.8656e-23
2.86561e-23
2.86562e-23
2.86562e-23
2.86561e-23
2.8656e-23
2.86558e-23
2.86556e-23
2.86553e-23
2.86549e-23
2.86545e-23
2.8654e-23
2.86534e-23
2.86528e-23
2.86522e-23
2.86514e-23
2.86506e-23
2.86498e-23
2.86489e-23
2.8648e-23
2.8647e-23
2.8646e-23
2.86449e-23
2.86438e-23
2.86427e-23
2.86416e-23
2.86405e-23
2.86394e-23
2.86382e-23
2.86369e-23
2.86352e-23
2.86319e-23
2.86255e-23
7.07723e-23
7.07893e-23
7.07996e-23
7.0806e-23
7.08114e-23
7.08163e-23
7.0821e-23
7.08256e-23
7.083e-23
7.08342e-23
7.08383e-23
7.08423e-23
7.0846e-23
7.08495e-23
7.08529e-23
7.0856e-23
7.08589e-23
7.08616e-23
7.0864e-23
7.08663e-23
7.08683e-23
7.08701e-23
7.08717e-23
7.08731e-23
7.08743e-23
7.08753e-23
7.0876e-23
7.08766e-23
7.0877e-23
7.08772e-23
7.08772e-23
7.0877e-23
7.08766e-23
7.0876e-23
7.08753e-23
7.08743e-23
7.08731e-23
7.08717e-23
7.08701e-23
7.08683e-23
7.08663e-23
7.0864e-23
7.08616e-23
7.08589e-23
7.0856e-23
7.08529e-23
7.08495e-23
7.0846e-23
7.08423e-23
7.08383e-23
7.08342e-23
7.083e-23
7.08256e-23
7.0821e-23
7.08163e-23
7.08114e-23
7.0806e-23
7.07996e-23
7.07893e-23
7.07723e-23
1.67764e-22
1.67805e-22
1.67835e-22
1.67856e-22
1.67875e-22
1.67892e-22
1.67909e-22
1.67925e-22
1.6794e-22
1.67954e-22
1.67968e-22
1.67981e-22
1.67993e-22
1.68004e-22
1.68015e-22
1.68024e-22
1.68033e-22
1.68042e-22
1.68049e-22
1.68056e-22
1.68062e-22
1.68068e-22
1.68073e-22
1.68077e-22
1.6808e-22
1.68083e-22
1.68086e-22
1.68087e-22
1.68089e-22
1.68089e-22
1.68089e-22
1.68089e-22
1.68087e-22
1.68086e-22
1.68083e-22
1.6808e-22
1.68077e-22
1.68073e-22
1.68068e-22
1.68062e-22
1.68056e-22
1.68049e-22
1.68042e-22
1.68033e-22
1.68024e-22
1.68015e-22
1.68004e-22
1.67993e-22
1.67981e-22
1.67968e-22
1.67954e-22
1.6794e-22
1.67925e-22
1.67909e-22
1.67892e-22
1.67875e-22
1.67856e-22
1.67835e-22
1.67805e-22
1.67764e-22
3.95119e-22
3.95215e-22
3.95301e-22
3.95367e-22
3.95427e-22
3.95482e-22
3.95535e-22
3.95585e-22
3.95633e-22
3.95678e-22
3.9572e-22
3.9576e-22
3.95797e-22
3.95831e-22
3.95863e-22
3.95892e-22
3.95919e-22
3.95944e-22
3.95966e-22
3.95986e-22
3.96004e-22
3.9602e-22
3.96034e-22
3.96046e-22
3.96057e-22
3.96065e-22
3.96072e-22
3.96077e-22
3.9608e-22
3.96082e-22
3.96082e-22
3.9608e-22
3.96077e-22
3.96072e-22
3.96065e-22
3.96057e-22
3.96046e-22
3.96034e-22
3.9602e-22
3.96004e-22
3.95986e-22
3.95966e-22
3.95944e-22
3.95919e-22
3.95892e-22
3.95863e-22
3.95831e-22
3.95797e-22
3.9576e-22
3.9572e-22
3.95678e-22
3.95633e-22
3.95585e-22
3.95535e-22
3.95482e-22
3.95427e-22
3.95367e-22
3.95301e-22
3.95215e-22
3.95119e-22
9.39167e-22
9.39397e-22
9.39638e-22
9.39836e-22
9.40017e-22
9.40187e-22
9.40348e-22
9.405e-22
9.40643e-22
9.40777e-22
9.40904e-22
9.41021e-22
9.4113e-22
9.41232e-22
9.41325e-22
9.41411e-22
9.41489e-22
9.4156e-22
9.41625e-22
9.41683e-22
9.41735e-22
9.41781e-22
9.41821e-22
9.41855e-22
9.41885e-22
9.41909e-22
9.41928e-22
9.41942e-22
9.41952e-22
9.41956e-22
9.41956e-22
9.41952e-22
9.41942e-22
9.41928e-22
9.41909e-22
9.41885e-22
9.41855e-22
9.41821e-22
9.41781e-22
9.41735e-22
9.41683e-22
9.41625e-22
9.4156e-22
9.41489e-22
9.41411e-22
9.41325e-22
9.41232e-22
9.4113e-22
9.41021e-22
9.40904e-22
9.40777e-22
9.40643e-22
9.405e-22
9.40348e-22
9.40187e-22
9.40017e-22
9.39836e-22
9.39638e-22
9.39397e-22
9.39167e-22
2.26907e-21
2.26964e-21
2.27031e-21
2.27089e-21
2.27143e-21
2.27193e-21
2.27241e-21
2.27286e-21
2.27328e-21
2.27368e-21
2.27405e-21
2.27439e-21
2.27471e-21
2.27501e-21
2.27528e-21
2.27552e-21
2.27575e-21
2.27595e-21
2.27614e-21
2.27631e-21
2.27645e-21
2.27658e-21
2.2767e-21
2.2768e-21
2.27688e-21
2.27695e-21
2.277e-21
2.27704e-21
2.27707e-21
2.27708e-21
2.27708e-21
2.27707e-21
2.27704e-21
2.277e-21
2.27695e-21
2.27688e-21
2.2768e-21
2.2767e-21
2.27658e-21
2.27645e-21
2.27631e-21
2.27614e-21
2.27595e-21
2.27575e-21
2.27552e-21
2.27528e-21
2.27501e-21
2.27471e-21
2.27439e-21
2.27405e-21
2.27368e-21
2.27328e-21
2.27286e-21
2.27241e-21
2.27193e-21
2.27143e-21
2.27089e-21
2.27031e-21
2.26964e-21
2.26907e-21
5.59111e-21
5.59258e-21
5.59448e-21
5.59616e-21
5.59774e-21
5.59922e-21
5.60062e-21
5.60194e-21
5.60318e-21
5.60434e-21
5.60541e-21
5.60641e-21
5.60733e-21
5.60818e-21
5.60897e-21
5.60968e-21
5.61033e-21
5.61092e-21
5.61145e-21
5.61192e-21
5.61235e-21
5.61272e-21
5.61305e-21
5.61333e-21
5.61356e-21
5.61376e-21
5.61391e-21
5.61403e-21
5.61411e-21
5.61414e-21
5.61414e-21
5.61411e-21
5.61403e-21
5.61391e-21
5.61376e-21
5.61356e-21
5.61333e-21
5.61305e-21
5.61272e-21
5.61235e-21
5.61192e-21
5.61145e-21
5.61092e-21
5.61033e-21
5.60968e-21
5.60897e-21
5.60818e-21
5.60733e-21
5.60641e-21
5.60541e-21
5.60434e-21
5.60318e-21
5.60194e-21
5.60062e-21
5.59922e-21
5.59774e-21
5.59616e-21
5.59448e-21
5.59258e-21
5.59111e-21
1.40736e-20
1.40775e-20
1.40829e-20
1.40878e-20
1.40924e-20
1.40968e-20
1.41009e-20
1.41047e-20
1.41084e-20
1.41117e-20
1.41149e-20
1.41178e-20
1.41205e-20
1.41229e-20
1.41252e-20
1.41273e-20
1.41292e-20
1.41309e-20
1.41324e-20
1.41338e-20
1.4135e-20
1.41361e-20
1.4137e-20
1.41378e-20
1.41385e-20
1.4139e-20
1.41395e-20
1.41398e-20
1.414e-20
1.41401e-20
1.41401e-20
1.414e-20
1.41398e-20
1.41395e-20
1.4139e-20
1.41385e-20
1.41378e-20
1.4137e-20
1.41361e-20
1.4135e-20
1.41338e-20
1.41324e-20
1.41309e-20
1.41292e-20
1.41273e-20
1.41252e-20
1.41229e-20
1.41205e-20
1.41178e-20
1.41149e-20
1.41117e-20
1.41084e-20
1.41047e-20
1.41009e-20
1.40968e-20
1.40924e-20
1.40878e-20
1.40829e-20
1.40775e-20
1.40736e-20
3.62193e-20
3.62303e-20
3.62458e-20
3.62601e-20
3.62737e-20
3.62865e-20
3.62987e-20
3.631e-20
3.63207e-20
3.63306e-20
3.63398e-20
3.63483e-20
3.63562e-20
3.63634e-20
3.63701e-20
3.63761e-20
3.63816e-20
3.63866e-20
3.6391e-20
3.6395e-20
3.63986e-20
3.64017e-20
3.64044e-20
3.64068e-20
3.64088e-20
3.64104e-20
3.64117e-20
3.64126e-20
3.64133e-20
3.64136e-20
3.64136e-20
3.64133e-20
3.64126e-20
3.64117e-20
3.64104e-20
3.64088e-20
3.64068e-20
3.64044e-20
3.64017e-20
3.63986e-20
3.6395e-20
3.6391e-20
3.63866e-20
3.63816e-20
3.63761e-20
3.63701e-20
3.63634e-20
3.63562e-20
3.63483e-20
3.63398e-20
3.63306e-20
3.63207e-20
3.631e-20
3.62987e-20
3.62865e-20
3.62737e-20
3.62601e-20
3.62458e-20
3.62303e-20
3.62193e-20
9.53516e-20
9.53839e-20
9.5429e-20
9.54713e-20
9.55115e-20
9.55497e-20
9.55857e-20
9.56195e-20
9.56511e-20
9.56805e-20
9.57079e-20
9.57331e-20
9.57564e-20
9.57779e-20
9.57974e-20
9.58153e-20
9.58316e-20
9.58462e-20
9.58594e-20
9.58712e-20
9.58817e-20
9.5891e-20
9.5899e-20
9.59059e-20
9.59118e-20
9.59166e-20
9.59204e-20
9.59232e-20
9.5925e-20
9.5926e-20
9.5926e-20
9.5925e-20
9.59232e-20
9.59204e-20
9.59166e-20
9.59118e-20
9.59059e-20
9.5899e-20
9.5891e-20
9.58817e-20
9.58712e-20
9.58594e-20
9.58462e-20
9.58316e-20
9.58153e-20
9.57974e-20
9.57779e-20
9.57564e-20
9.57331e-20
9.57079e-20
9.56805e-20
9.56511e-20
9.56195e-20
9.55857e-20
9.55497e-20
9.55115e-20
9.54713e-20
9.5429e-20
9.53839e-20
9.53516e-20
2.56877e-19
2.56975e-19
2.57108e-19
2.57234e-19
2.57355e-19
2.5747e-19
2.57578e-19
2.5768e-19
2.57775e-19
2.57863e-19
2.57945e-19
2.58021e-19
2.58091e-19
2.58156e-19
2.58214e-19
2.58268e-19
2.58317e-19
2.58361e-19
2.584e-19
2.58436e-19
2.58467e-19
2.58495e-19
2.58519e-19
2.5854e-19
2.58557e-19
2.58571e-19
2.58583e-19
2.58591e-19
2.58597e-19
2.586e-19
2.586e-19
2.58597e-19
2.58591e-19
2.58583e-19
2.58571e-19
2.58557e-19
2.5854e-19
2.58519e-19
2.58495e-19
2.58467e-19
2.58436e-19
2.584e-19
2.58361e-19
2.58317e-19
2.58268e-19
2.58214e-19
2.58156e-19
2.58091e-19
2.58021e-19
2.57945e-19
2.57863e-19
2.57775e-19
2.5768e-19
2.57578e-19
2.5747e-19
2.57355e-19
2.57234e-19
2.57108e-19
2.56975e-19
2.56877e-19
7.08358e-19
7.08662e-19
7.09063e-19
7.09446e-19
7.09814e-19
7.10164e-19
7.10494e-19
7.10804e-19
7.11094e-19
7.11364e-19
7.11615e-19
7.11846e-19
7.1206e-19
7.12256e-19
7.12435e-19
7.12598e-19
7.12747e-19
7.12881e-19
7.13002e-19
7.1311e-19
7.13205e-19
7.1329e-19
7.13363e-19
7.13426e-19
7.13479e-19
7.13523e-19
7.13558e-19
7.13583e-19
7.136e-19
7.13609e-19
7.13609e-19
7.136e-19
7.13583e-19
7.13558e-19
7.13523e-19
7.13479e-19
7.13426e-19
7.13363e-19
7.1329e-19
7.13205e-19
7.1311e-19
7.13002e-19
7.12881e-19
7.12747e-19
7.12598e-19
7.12435e-19
7.12256e-19
7.1206e-19
7.11846e-19
7.11615e-19
7.11364e-19
7.11094e-19
7.10804e-19
7.10494e-19
7.10164e-19
7.09814e-19
7.09446e-19
7.09063e-19
7.08662e-19
7.08358e-19
1.99992e-18
2.00089e-18
2.00211e-18
2.0033e-18
2.00444e-18
2.00552e-18
2.00654e-18
2.0075e-18
2.0084e-18
2.00924e-18
2.01002e-18
2.01073e-18
2.0114e-18
2.012e-18
2.01256e-18
2.01307e-18
2.01353e-18
2.01394e-18
2.01432e-18
2.01465e-18
2.01495e-18
2.01521e-18
2.01544e-18
2.01563e-18
2.0158e-18
2.01593e-18
2.01604e-18
2.01612e-18
2.01617e-18
2.0162e-18
2.0162e-18
2.01617e-18
2.01612e-18
2.01604e-18
2.01593e-18
2.0158e-18
2.01563e-18
2.01544e-18
2.01521e-18
2.01495e-18
2.01465e-18
2.01432e-18
2.01394e-18
2.01353e-18
2.01307e-18
2.01256e-18
2.012e-18
2.0114e-18
2.01073e-18
2.01002e-18
2.00924e-18
2.0084e-18
2.0075e-18
2.00654e-18
2.00552e-18
2.00444e-18
2.0033e-18
2.00211e-18
2.00089e-18
1.99992e-18
5.78208e-18
5.78523e-18
5.78905e-18
5.79277e-18
5.79636e-18
5.79977e-18
5.803e-18
5.80603e-18
5.80886e-18
5.81151e-18
5.81396e-18
5.81622e-18
5.81831e-18
5.82023e-18
5.82199e-18
5.82359e-18
5.82504e-18
5.82635e-18
5.82754e-18
5.82859e-18
5.82953e-18
5.83036e-18
5.83108e-18
5.83169e-18
5.83222e-18
5.83264e-18
5.83298e-18
5.83323e-18
5.8334e-18
5.83348e-18
5.83348e-18
5.8334e-18
5.83323e-18
5.83298e-18
5.83264e-18
5.83222e-18
5.83169e-18
5.83108e-18
5.83036e-18
5.82953e-18
5.82859e-18
5.82754e-18
5.82635e-18
5.82504e-18
5.82359e-18
5.82199e-18
5.82023e-18
5.81831e-18
5.81622e-18
5.81396e-18
5.81151e-18
5.80886e-18
5.80603e-18
5.803e-18
5.79977e-18
5.79636e-18
5.79277e-18
5.78905e-18
5.78523e-18
5.78208e-18
1.71207e-17
1.71312e-17
1.71434e-17
1.71553e-17
1.71668e-17
1.71777e-17
1.71881e-17
1.71978e-17
1.72069e-17
1.72154e-17
1.72233e-17
1.72306e-17
1.72373e-17
1.72435e-17
1.72491e-17
1.72543e-17
1.72589e-17
1.72632e-17
1.7267e-17
1.72704e-17
1.72734e-17
1.7276e-17
1.72784e-17
1.72804e-17
1.7282e-17
1.72834e-17
1.72845e-17
1.72853e-17
1.72858e-17
1.72861e-17
1.72861e-17
1.72858e-17
1.72853e-17
1.72845e-17
1.72834e-17
1.7282e-17
1.72804e-17
1.72784e-17
1.7276e-17
1.72734e-17
1.72704e-17
1.7267e-17
1.72632e-17
1.72589e-17
1.72543e-17
1.72491e-17
1.72435e-17
1.72373e-17
1.72306e-17
1.72233e-17
1.72154e-17
1.72069e-17
1.71978e-17
1.71881e-17
1.71777e-17
1.71668e-17
1.71553e-17
1.71434e-17
1.71312e-17
1.71207e-17
5.19222e-17
5.19575e-17
5.19969e-17
5.20357e-17
5.20733e-17
5.21091e-17
5.2143e-17
5.21749e-17
5.22048e-17
5.22326e-17
5.22584e-17
5.22822e-17
5.23042e-17
5.23245e-17
5.2343e-17
5.23599e-17
5.23752e-17
5.2389e-17
5.24015e-17
5.24127e-17
5.24226e-17
5.24313e-17
5.24389e-17
5.24454e-17
5.24509e-17
5.24555e-17
5.2459e-17
5.24617e-17
5.24635e-17
5.24643e-17
5.24643e-17
5.24635e-17
5.24617e-17
5.2459e-17
5.24555e-17
5.24509e-17
5.24454e-17
5.24389e-17
5.24313e-17
5.24226e-17
5.24127e-17
5.24015e-17
5.2389e-17
5.23752e-17
5.23599e-17
5.2343e-17
5.23245e-17
5.23042e-17
5.22822e-17
5.22584e-17
5.22326e-17
5.22048e-17
5.21749e-17
5.2143e-17
5.21091e-17
5.20733e-17
5.20357e-17
5.19969e-17
5.19575e-17
5.19222e-17
1.61272e-16
1.61392e-16
1.61523e-16
1.61652e-16
1.61777e-16
1.61896e-16
1.6201e-16
1.62116e-16
1.62216e-16
1.62309e-16
1.62395e-16
1.62474e-16
1.62548e-16
1.62616e-16
1.62677e-16
1.62734e-16
1.62785e-16
1.62831e-16
1.62873e-16
1.62911e-16
1.62944e-16
1.62973e-16
1.62998e-16
1.6302e-16
1.63038e-16
1.63054e-16
1.63066e-16
1.63074e-16
1.6308e-16
1.63083e-16
1.63083e-16
1.6308e-16
1.63074e-16
1.63066e-16
1.63054e-16
1.63038e-16
1.6302e-16
1.62998e-16
1.62973e-16
1.62944e-16
1.62911e-16
1.62873e-16
1.62831e-16
1.62785e-16
1.62734e-16
1.62677e-16
1.62616e-16
1.62548e-16
1.62474e-16
1.62395e-16
1.62309e-16
1.62216e-16
1.62116e-16
1.6201e-16
1.61896e-16
1.61777e-16
1.61652e-16
1.61523e-16
1.61392e-16
1.61272e-16
5.12942e-16
5.13359e-16
5.138e-16
5.14238e-16
5.14664e-16
5.15071e-16
5.15456e-16
5.15819e-16
5.16158e-16
5.16474e-16
5.16767e-16
5.17039e-16
5.17289e-16
5.1752e-16
5.1773e-16
5.17923e-16
5.18097e-16
5.18255e-16
5.18398e-16
5.18525e-16
5.18638e-16
5.18737e-16
5.18824e-16
5.18898e-16
5.18961e-16
5.19013e-16
5.19054e-16
5.19084e-16
5.19104e-16
5.19114e-16
5.19114e-16
5.19104e-16
5.19084e-16
5.19054e-16
5.19013e-16
5.18961e-16
5.18898e-16
5.18824e-16
5.18737e-16
5.18638e-16
5.18525e-16
5.18398e-16
5.18255e-16
5.18097e-16
5.17923e-16
5.1773e-16
5.1752e-16
5.17289e-16
5.17039e-16
5.16767e-16
5.16474e-16
5.16158e-16
5.15819e-16
5.15456e-16
5.15071e-16
5.14664e-16
5.14238e-16
5.138e-16
5.13359e-16
5.12942e-16
1.67014e-15
1.67161e-15
1.67313e-15
1.67465e-15
1.67612e-15
1.67754e-15
1.67887e-15
1.68013e-15
1.68131e-15
1.6824e-15
1.68342e-15
1.68437e-15
1.68524e-15
1.68604e-15
1.68677e-15
1.68744e-15
1.68804e-15
1.68859e-15
1.68909e-15
1.68953e-15
1.68992e-15
1.69027e-15
1.69057e-15
1.69083e-15
1.69105e-15
1.69123e-15
1.69137e-15
1.69147e-15
1.69154e-15
1.69158e-15
1.69158e-15
1.69154e-15
1.69147e-15
1.69137e-15
1.69123e-15
1.69105e-15
1.69083e-15
1.69057e-15
1.69027e-15
1.68992e-15
1.68953e-15
1.68909e-15
1.68859e-15
1.68804e-15
1.68744e-15
1.68677e-15
1.68604e-15
1.68524e-15
1.68437e-15
1.68342e-15
1.6824e-15
1.68131e-15
1.68013e-15
1.67887e-15
1.67754e-15
1.67612e-15
1.67465e-15
1.67313e-15
1.67161e-15
1.67014e-15
5.5643e-15
5.56952e-15
5.57487e-15
5.58023e-15
5.58546e-15
5.59045e-15
5.59518e-15
5.59963e-15
5.6038e-15
5.60769e-15
5.61129e-15
5.61463e-15
5.61771e-15
5.62054e-15
5.62314e-15
5.6255e-15
5.62765e-15
5.62959e-15
5.63134e-15
5.63291e-15
5.6343e-15
5.63552e-15
5.63659e-15
5.63751e-15
5.63828e-15
5.63891e-15
5.63942e-15
5.63979e-15
5.64004e-15
5.64016e-15
5.64016e-15
5.64004e-15
5.63979e-15
5.63942e-15
5.63891e-15
5.63828e-15
5.63751e-15
5.63659e-15
5.63552e-15
5.6343e-15
5.63291e-15
5.63134e-15
5.62959e-15
5.62765e-15
5.6255e-15
5.62314e-15
5.62054e-15
5.61771e-15
5.61463e-15
5.61129e-15
5.60769e-15
5.6038e-15
5.59963e-15
5.59518e-15
5.59045e-15
5.58546e-15
5.58023e-15
5.57487e-15
5.56952e-15
5.5643e-15
1.89562e-14
1.89751e-14
1.89943e-14
1.90136e-14
1.90324e-14
1.90505e-14
1.90675e-14
1.90836e-14
1.90986e-14
1.91126e-14
1.91256e-14
1.91376e-14
1.91488e-14
1.9159e-14
1.91683e-14
1.91768e-14
1.91846e-14
1.91916e-14
1.91979e-14
1.92036e-14
1.92086e-14
1.9213e-14
1.92168e-14
1.92201e-14
1.92229e-14
1.92252e-14
1.9227e-14
1.92284e-14
1.92293e-14
1.92297e-14
1.92297e-14
1.92293e-14
1.92284e-14
1.9227e-14
1.92252e-14
1.92229e-14
1.92201e-14
1.92168e-14
1.9213e-14
1.92086e-14
1.92036e-14
1.91979e-14
1.91916e-14
1.91846e-14
1.91768e-14
1.91683e-14
1.9159e-14
1.91488e-14
1.91376e-14
1.91256e-14
1.91126e-14
1.90986e-14
1.90836e-14
1.90675e-14
1.90505e-14
1.90324e-14
1.90136e-14
1.89943e-14
1.89751e-14
1.89562e-14
6.59774e-14
6.60467e-14
6.61169e-14
6.61877e-14
6.62567e-14
6.63228e-14
6.63855e-14
6.64444e-14
6.64996e-14
6.6551e-14
6.65987e-14
6.6643e-14
6.66837e-14
6.67212e-14
6.67555e-14
6.67869e-14
6.68153e-14
6.6841e-14
6.68642e-14
6.68849e-14
6.69033e-14
6.69195e-14
6.69336e-14
6.69458e-14
6.6956e-14
6.69644e-14
6.69711e-14
6.6976e-14
6.69793e-14
6.69809e-14
6.69809e-14
6.69793e-14
6.6976e-14
6.69711e-14
6.69644e-14
6.6956e-14
6.69458e-14
6.69336e-14
6.69195e-14
6.69033e-14
6.68849e-14
6.68642e-14
6.6841e-14
6.68153e-14
6.67869e-14
6.67555e-14
6.67212e-14
6.66837e-14
6.6643e-14
6.65987e-14
6.6551e-14
6.64996e-14
6.64444e-14
6.63855e-14
6.63228e-14
6.62567e-14
6.61877e-14
6.61169e-14
6.60467e-14
6.59774e-14
2.34341e-13
2.34599e-13
2.3486e-13
2.35124e-13
2.35382e-13
2.35629e-13
2.35863e-13
2.36083e-13
2.36289e-13
2.36481e-13
2.36659e-13
2.36824e-13
2.36976e-13
2.37116e-13
2.37244e-13
2.37361e-13
2.37467e-13
2.37563e-13
2.3765e-13
2.37727e-13
2.37796e-13
2.37856e-13
2.37909e-13
2.37954e-13
2.37992e-13
2.38024e-13
2.38048e-13
2.38067e-13
2.38079e-13
2.38085e-13
2.38085e-13
2.38079e-13
2.38067e-13
2.38048e-13
2.38024e-13
2.37992e-13
2.37954e-13
2.37909e-13
2.37856e-13
2.37796e-13
2.37727e-13
2.3765e-13
2.37563e-13
2.37467e-13
2.37361e-13
2.37244e-13
2.37116e-13
2.36976e-13
2.36824e-13
2.36659e-13
2.36481e-13
2.36289e-13
2.36083e-13
2.35863e-13
2.35629e-13
2.35382e-13
2.35124e-13
2.3486e-13
2.34599e-13
2.34341e-13
8.482e-13
8.49172e-13
8.5016e-13
8.5116e-13
8.52138e-13
8.53074e-13
8.53961e-13
8.54795e-13
8.55576e-13
8.56304e-13
8.5698e-13
8.57605e-13
8.58182e-13
8.58712e-13
8.59198e-13
8.59641e-13
8.60043e-13
8.60407e-13
8.60735e-13
8.61028e-13
8.61288e-13
8.61517e-13
8.61717e-13
8.61888e-13
8.62033e-13
8.62152e-13
8.62245e-13
8.62315e-13
8.62361e-13
8.62384e-13
8.62384e-13
8.62361e-13
8.62315e-13
8.62245e-13
8.62152e-13
8.62033e-13
8.61888e-13
8.61717e-13
8.61517e-13
8.61288e-13
8.61028e-13
8.60735e-13
8.60407e-13
8.60043e-13
8.59641e-13
8.59198e-13
8.58712e-13
8.58182e-13
8.57605e-13
8.5698e-13
8.56304e-13
8.55576e-13
8.54795e-13
8.53961e-13
8.53074e-13
8.52138e-13
8.5116e-13
8.5016e-13
8.49172e-13
8.482e-13
3.12314e-12
3.12686e-12
3.13065e-12
3.13449e-12
3.13825e-12
3.14185e-12
3.14526e-12
3.14846e-12
3.15146e-12
3.15426e-12
3.15686e-12
3.15926e-12
3.16148e-12
3.16352e-12
3.16538e-12
3.16709e-12
3.16863e-12
3.17003e-12
3.17129e-12
3.17241e-12
3.17341e-12
3.17429e-12
3.17506e-12
3.17572e-12
3.17627e-12
3.17673e-12
3.17709e-12
3.17736e-12
3.17753e-12
3.17762e-12
3.17762e-12
3.17753e-12
3.17736e-12
3.17709e-12
3.17673e-12
3.17627e-12
3.17572e-12
3.17506e-12
3.17429e-12
3.17341e-12
3.17241e-12
3.17129e-12
3.17003e-12
3.16863e-12
3.16709e-12
3.16538e-12
3.16352e-12
3.16148e-12
3.15926e-12
3.15686e-12
3.15426e-12
3.15146e-12
3.14846e-12
3.14526e-12
3.14185e-12
3.13825e-12
3.13449e-12
3.13065e-12
3.12686e-12
3.12314e-12
1.16741e-11
1.16884e-11
1.17031e-11
1.17181e-11
1.17327e-11
1.17467e-11
1.17599e-11
1.17724e-11
1.17841e-11
1.1795e-11
1.18051e-11
1.18144e-11
1.1823e-11
1.18309e-11
1.18382e-11
1.18448e-11
1.18508e-11
1.18562e-11
1.18611e-11
1.18655e-11
1.18694e-11
1.18728e-11
1.18758e-11
1.18783e-11
1.18805e-11
1.18822e-11
1.18836e-11
1.18847e-11
1.18854e-11
1.18857e-11
1.18857e-11
1.18854e-11
1.18847e-11
1.18836e-11
1.18822e-11
1.18805e-11
1.18783e-11
1.18758e-11
1.18728e-11
1.18694e-11
1.18655e-11
1.18611e-11
1.18562e-11
1.18508e-11
1.18448e-11
1.18382e-11
1.18309e-11
1.1823e-11
1.18144e-11
1.18051e-11
1.1795e-11
1.17841e-11
1.17724e-11
1.17599e-11
1.17467e-11
1.17327e-11
1.17181e-11
1.17031e-11
1.16884e-11
1.16741e-11
4.41883e-11
4.42441e-11
4.43018e-11
4.43604e-11
4.44178e-11
4.44727e-11
4.45247e-11
4.45737e-11
4.46194e-11
4.46621e-11
4.47017e-11
4.47384e-11
4.47722e-11
4.48032e-11
4.48316e-11
4.48575e-11
4.48811e-11
4.49024e-11
4.49215e-11
4.49386e-11
4.49539e-11
4.49672e-11
4.49789e-11
4.49889e-11
4.49974e-11
4.50043e-11
4.50098e-11
4.50138e-11
4.50165e-11
4.50179e-11
4.50179e-11
4.50165e-11
4.50138e-11
4.50098e-11
4.50043e-11
4.49974e-11
4.49889e-11
4.49789e-11
4.49672e-11
4.49539e-11
4.49386e-11
4.49215e-11
4.49024e-11
4.48811e-11
4.48575e-11
4.48316e-11
4.48032e-11
4.47722e-11
4.47384e-11
4.47017e-11
4.46621e-11
4.46194e-11
4.45737e-11
4.45247e-11
4.44727e-11
4.44178e-11
4.43604e-11
4.43018e-11
4.42441e-11
4.41883e-11
1.68875e-10
1.69094e-10
1.69322e-10
1.69553e-10
1.6978e-10
1.69996e-10
1.70202e-10
1.70395e-10
1.70575e-10
1.70744e-10
1.709e-10
1.71045e-10
1.71178e-10
1.713e-10
1.71412e-10
1.71514e-10
1.71607e-10
1.71691e-10
1.71767e-10
1.71834e-10
1.71894e-10
1.71947e-10
1.71993e-10
1.72032e-10
1.72065e-10
1.72093e-10
1.72114e-10
1.7213e-10
1.72141e-10
1.72146e-10
1.72146e-10
1.72141e-10
1.7213e-10
1.72114e-10
1.72093e-10
1.72065e-10
1.72032e-10
1.71993e-10
1.71947e-10
1.71894e-10
1.71834e-10
1.71767e-10
1.71691e-10
1.71607e-10
1.71514e-10
1.71412e-10
1.713e-10
1.71178e-10
1.71045e-10
1.709e-10
1.70744e-10
1.70575e-10
1.70395e-10
1.70202e-10
1.69996e-10
1.6978e-10
1.69553e-10
1.69322e-10
1.69094e-10
1.68875e-10
6.49384e-10
6.50244e-10
6.51144e-10
6.52059e-10
6.52954e-10
6.53812e-10
6.54624e-10
6.55387e-10
6.56102e-10
6.56767e-10
6.57385e-10
6.57956e-10
6.58483e-10
6.58966e-10
6.59409e-10
6.59813e-10
6.60179e-10
6.60511e-10
6.60809e-10
6.61075e-10
6.61312e-10
6.6152e-10
6.61702e-10
6.61857e-10
6.61989e-10
6.62097e-10
6.62182e-10
6.62245e-10
6.62287e-10
6.62308e-10
6.62308e-10
6.62287e-10
6.62245e-10
6.62182e-10
6.62097e-10
6.61989e-10
6.61857e-10
6.61702e-10
6.6152e-10
6.61312e-10
6.61075e-10
6.60809e-10
6.60511e-10
6.60179e-10
6.59813e-10
6.59409e-10
6.58966e-10
6.58483e-10
6.57956e-10
6.57385e-10
6.56767e-10
6.56102e-10
6.55387e-10
6.54624e-10
6.53812e-10
6.52954e-10
6.52059e-10
6.51144e-10
6.50244e-10
6.49384e-10
2.50246e-09
2.50584e-09
2.50939e-09
2.51301e-09
2.51654e-09
2.51992e-09
2.52313e-09
2.52614e-09
2.52896e-09
2.53158e-09
2.53402e-09
2.53627e-09
2.53835e-09
2.54025e-09
2.542e-09
2.54359e-09
2.54503e-09
2.54634e-09
2.54751e-09
2.54856e-09
2.5495e-09
2.55032e-09
2.55103e-09
2.55165e-09
2.55216e-09
2.55259e-09
2.55292e-09
2.55317e-09
2.55334e-09
2.55342e-09
2.55342e-09
2.55334e-09
2.55317e-09
2.55292e-09
2.55259e-09
2.55216e-09
2.55165e-09
2.55103e-09
2.55032e-09
2.5495e-09
2.54856e-09
2.54751e-09
2.54634e-09
2.54503e-09
2.54359e-09
2.542e-09
2.54025e-09
2.53835e-09
2.53627e-09
2.53402e-09
2.53158e-09
2.52896e-09
2.52614e-09
2.52313e-09
2.51992e-09
2.51654e-09
2.51301e-09
2.50939e-09
2.50584e-09
2.50246e-09
9.61943e-09
9.63262e-09
9.64654e-09
9.6607e-09
9.67455e-09
9.68781e-09
9.70036e-09
9.71215e-09
9.72318e-09
9.73346e-09
9.743e-09
9.75181e-09
9.75994e-09
9.7674e-09
9.77423e-09
9.78046e-09
9.78611e-09
9.79122e-09
9.79581e-09
9.79992e-09
9.80357e-09
9.80677e-09
9.80957e-09
9.81197e-09
9.81399e-09
9.81565e-09
9.81696e-09
9.81794e-09
9.81858e-09
9.81891e-09
9.81891e-09
9.81858e-09
9.81794e-09
9.81696e-09
9.81565e-09
9.81399e-09
9.81197e-09
9.80957e-09
9.80677e-09
9.80357e-09
9.79992e-09
9.79581e-09
9.79122e-09
9.78611e-09
9.78046e-09
9.77423e-09
9.7674e-09
9.75994e-09
9.75181e-09
9.743e-09
9.73346e-09
9.72318e-09
9.71215e-09
9.70036e-09
9.68781e-09
9.67455e-09
9.6607e-09
9.64654e-09
9.63262e-09
9.61943e-09
3.66887e-08
3.67396e-08
3.67935e-08
3.68483e-08
3.69018e-08
3.69531e-08
3.70016e-08
3.70472e-08
3.70898e-08
3.71295e-08
3.71663e-08
3.72004e-08
3.72318e-08
3.72606e-08
3.7287e-08
3.7311e-08
3.73329e-08
3.73526e-08
3.73703e-08
3.73862e-08
3.74002e-08
3.74126e-08
3.74234e-08
3.74327e-08
3.74405e-08
3.74469e-08
3.74519e-08
3.74557e-08
3.74582e-08
3.74594e-08
3.74594e-08
3.74582e-08
3.74557e-08
3.74519e-08
3.74469e-08
3.74405e-08
3.74327e-08
3.74234e-08
3.74126e-08
3.74002e-08
3.73862e-08
3.73703e-08
3.73526e-08
3.73329e-08
3.7311e-08
3.7287e-08
3.72606e-08
3.72318e-08
3.72004e-08
3.71663e-08
3.71295e-08
3.70898e-08
3.70472e-08
3.70016e-08
3.69531e-08
3.69018e-08
3.68483e-08
3.67935e-08
3.67396e-08
3.66887e-08
1.37998e-07
1.38191e-07
1.38395e-07
1.38603e-07
1.38806e-07
1.39001e-07
1.39184e-07
1.39357e-07
1.39519e-07
1.39669e-07
1.39809e-07
1.39938e-07
1.40057e-07
1.40166e-07
1.40266e-07
1.40357e-07
1.40439e-07
1.40514e-07
1.40581e-07
1.40641e-07
1.40694e-07
1.40741e-07
1.40782e-07
1.40817e-07
1.40846e-07
1.40871e-07
1.4089e-07
1.40904e-07
1.40913e-07
1.40918e-07
1.40918e-07
1.40913e-07
1.40904e-07
1.4089e-07
1.40871e-07
1.40846e-07
1.40817e-07
1.40782e-07
1.40741e-07
1.40694e-07
1.40641e-07
1.40581e-07
1.40514e-07
1.40439e-07
1.40357e-07
1.40266e-07
1.40166e-07
1.40057e-07
1.39938e-07
1.39809e-07
1.39669e-07
1.39519e-07
1.39357e-07
1.39184e-07
1.39001e-07
1.38806e-07
1.38603e-07
1.38395e-07
1.38191e-07
1.37998e-07
5.08358e-07
5.0907e-07
5.09826e-07
5.10593e-07
5.11342e-07
5.12059e-07
5.12736e-07
5.13373e-07
5.13968e-07
5.14523e-07
5.15037e-07
5.15512e-07
5.1595e-07
5.16352e-07
5.1672e-07
5.17055e-07
5.17359e-07
5.17634e-07
5.17881e-07
5.18102e-07
5.18298e-07
5.1847e-07
5.1862e-07
5.18749e-07
5.18858e-07
5.18947e-07
5.19017e-07
5.1907e-07
5.19104e-07
5.19122e-07
5.19122e-07
5.19104e-07
5.1907e-07
5.19017e-07
5.18947e-07
5.18858e-07
5.18749e-07
5.1862e-07
5.1847e-07
5.18298e-07
5.18102e-07
5.17881e-07
5.17634e-07
5.17359e-07
5.17055e-07
5.1672e-07
5.16352e-07
5.1595e-07
5.15512e-07
5.15037e-07
5.14523e-07
5.13968e-07
5.13373e-07
5.12736e-07
5.12059e-07
5.11342e-07
5.10593e-07
5.09826e-07
5.0907e-07
5.08358e-07
1.81982e-06
1.82235e-06
1.82505e-06
1.82778e-06
1.83045e-06
1.83299e-06
1.8354e-06
1.83767e-06
1.83978e-06
1.84175e-06
1.84358e-06
1.84527e-06
1.84682e-06
1.84825e-06
1.84955e-06
1.85074e-06
1.85182e-06
1.8528e-06
1.85368e-06
1.85446e-06
1.85516e-06
1.85577e-06
1.8563e-06
1.85676e-06
1.85714e-06
1.85746e-06
1.85771e-06
1.8579e-06
1.85802e-06
1.85808e-06
1.85808e-06
1.85802e-06
1.8579e-06
1.85771e-06
1.85746e-06
1.85714e-06
1.85676e-06
1.8563e-06
1.85577e-06
1.85516e-06
1.85446e-06
1.85368e-06
1.8528e-06
1.85182e-06
1.85074e-06
1.84955e-06
1.84825e-06
1.84682e-06
1.84527e-06
1.84358e-06
1.84175e-06
1.83978e-06
1.83767e-06
1.8354e-06
1.83299e-06
1.83045e-06
1.82778e-06
1.82505e-06
1.82235e-06
1.81982e-06
6.27508e-06
6.28372e-06
6.2929e-06
6.30219e-06
6.31124e-06
6.31988e-06
6.32806e-06
6.33574e-06
6.34292e-06
6.3496e-06
6.35579e-06
6.36152e-06
6.36679e-06
6.37163e-06
6.37606e-06
6.38009e-06
6.38375e-06
6.38706e-06
6.39003e-06
6.39269e-06
6.39504e-06
6.39712e-06
6.39892e-06
6.40047e-06
6.40178e-06
6.40285e-06
6.4037e-06
6.40433e-06
6.40474e-06
6.40495e-06
6.40495e-06
6.40474e-06
6.40433e-06
6.4037e-06
6.40285e-06
6.40178e-06
6.40047e-06
6.39892e-06
6.39712e-06
6.39504e-06
6.39269e-06
6.39003e-06
6.38706e-06
6.38375e-06
6.38009e-06
6.37606e-06
6.37163e-06
6.36679e-06
6.36152e-06
6.35579e-06
6.3496e-06
6.34292e-06
6.33574e-06
6.32806e-06
6.31988e-06
6.31124e-06
6.30219e-06
6.2929e-06
6.28372e-06
6.27508e-06
2.06367e-05
2.06646e-05
2.06941e-05
2.07239e-05
2.07529e-05
2.07806e-05
2.08068e-05
2.08314e-05
2.08544e-05
2.08757e-05
2.08956e-05
2.09139e-05
2.09308e-05
2.09462e-05
2.09604e-05
2.09733e-05
2.0985e-05
2.09956e-05
2.10051e-05
2.10136e-05
2.10211e-05
2.10277e-05
2.10335e-05
2.10385e-05
2.10426e-05
2.10461e-05
2.10488e-05
2.10508e-05
2.10521e-05
2.10528e-05
2.10528e-05
2.10521e-05
2.10508e-05
2.10488e-05
2.10461e-05
2.10426e-05
2.10385e-05
2.10335e-05
2.10277e-05
2.10211e-05
2.10136e-05
2.10051e-05
2.09956e-05
2.0985e-05
2.09733e-05
2.09604e-05
2.09462e-05
2.09308e-05
2.09139e-05
2.08956e-05
2.08757e-05
2.08544e-05
2.08314e-05
2.08068e-05
2.07806e-05
2.07529e-05
2.07239e-05
2.06941e-05
2.06646e-05
2.06367e-05
6.40143e-05
6.40981e-05
6.41865e-05
6.42755e-05
6.43621e-05
6.44447e-05
6.45228e-05
6.45961e-05
6.46646e-05
6.47283e-05
6.47873e-05
6.48419e-05
6.48922e-05
6.49383e-05
6.49805e-05
6.50189e-05
6.50538e-05
6.50852e-05
6.51135e-05
6.51388e-05
6.51612e-05
6.5181e-05
6.51981e-05
6.52129e-05
6.52253e-05
6.52355e-05
6.52436e-05
6.52496e-05
6.52535e-05
6.52555e-05
6.52555e-05
6.52535e-05
6.52496e-05
6.52436e-05
6.52355e-05
6.52253e-05
6.52129e-05
6.51981e-05
6.5181e-05
6.51612e-05
6.51388e-05
6.51135e-05
6.50852e-05
6.50538e-05
6.50189e-05
6.49805e-05
6.49383e-05
6.48922e-05
6.48419e-05
6.47873e-05
6.47283e-05
6.46646e-05
6.45961e-05
6.45228e-05
6.44447e-05
6.43621e-05
6.42755e-05
6.41865e-05
6.40981e-05
6.40143e-05
0.000185008
0.000185239
0.000185482
0.000185726
0.000185963
0.000186189
0.000186403
0.000186603
0.00018679
0.000186964
0.000187126
0.000187275
0.000187412
0.000187538
0.000187653
0.000187758
0.000187853
0.000187939
0.000188017
0.000188086
0.000188147
0.000188201
0.000188248
0.000188288
0.000188322
0.00018835
0.000188372
0.000188388
0.000188399
0.000188404
0.000188404
0.000188399
0.000188388
0.000188372
0.00018835
0.000188322
0.000188288
0.000188248
0.000188201
0.000188147
0.000188086
0.000188017
0.000187939
0.000187853
0.000187758
0.000187653
0.000187538
0.000187412
0.000187275
0.000187126
0.000186964
0.00018679
0.000186603
0.000186403
0.000186189
0.000185963
0.000185726
0.000185482
0.000185239
0.000185008
0.00049162
0.000492197
0.0004928
0.000493403
0.000493988
0.000494546
0.000495072
0.000495566
0.000496028
0.000496457
0.000496855
0.000497222
0.00049756
0.00049787
0.000498154
0.000498412
0.000498647
0.000498858
0.000499049
0.000499218
0.000499369
0.000499502
0.000499617
0.000499716
0.0004998
0.000499868
0.000499922
0.000499962
0.000499989
0.000500002
0.000500002
0.000499989
0.000499962
0.000499922
0.000499868
0.0004998
0.000499716
0.000499617
0.000499502
0.000499369
0.000499218
0.000499049
0.000498858
0.000498647
0.000498412
0.000498154
0.00049787
0.00049756
0.000497222
0.000496855
0.000496457
0.000496028