/*--------------------------------*- C++ -*----------------------------------*\
| =========                 |                                                 |
| \\      /  F ield         | foam-extend: Open Source CFD                    |
|  \\    /   O peration     | Version:     4.0                                |
|   \\  /    A nd           | Web:         http://www.foam-extend.org         |
|    \\/     M anipulation  |                                                 |
\*---------------------------------------------------------------------------*/
FoamFile
{
    version     2.0;
    format      ascii;
    class       volScalarField;
    location    "1090";
    object      cMinus;
}
// * * * * * * * * * * * * * * * * * * * * * * * * * * * * * * * * * * * * * //

dimensions      [0 0 0 0 0 0 0];

internalField   nonuniform List<scalar> 
6960
(
6.85399e-21
6.84628e-21
6.83477e-21
6.82671e-21
6.82155e-21
6.81834e-21
6.81635e-21
6.81513e-21
6.81436e-21
6.81389e-21
6.8136e-21
6.81342e-21
6.81332e-21
6.81327e-21
6.81325e-21
6.81326e-21
6.81329e-21
6.81332e-21
6.81337e-21
6.81341e-21
6.81346e-21
6.8135e-21
6.81355e-21
6.81359e-21
6.81363e-21
6.81366e-21
6.81368e-21
6.8137e-21
6.81372e-21
6.81372e-21
6.81372e-21
6.81372e-21
6.8137e-21
6.81368e-21
6.81366e-21
6.81363e-21
6.81359e-21
6.81355e-21
6.8135e-21
6.81346e-21
6.81341e-21
6.81337e-21
6.81332e-21
6.81329e-21
6.81326e-21
6.81325e-21
6.81327e-21
6.81332e-21
6.81342e-21
6.8136e-21
6.81389e-21
6.81436e-21
6.81513e-21
6.81635e-21
6.81834e-21
6.82155e-21
6.82671e-21
6.83477e-21
6.84628e-21
6.85399e-21
3.61552e-20
3.61292e-20
3.60797e-20
3.60444e-20
3.60216e-20
3.60073e-20
3.59984e-20
3.59929e-20
3.59895e-20
3.59874e-20
3.59861e-20
3.59854e-20
3.5985e-20
3.59849e-20
3.59849e-20
3.59851e-20
3.59853e-20
3.59856e-20
3.59859e-20
3.59862e-20
3.59865e-20
3.59868e-20
3.59871e-20
3.59873e-20
3.59876e-20
3.59878e-20
3.59879e-20
3.5988e-20
3.59881e-20
3.59882e-20
3.59882e-20
3.59881e-20
3.5988e-20
3.59879e-20
3.59878e-20
3.59876e-20
3.59873e-20
3.59871e-20
3.59868e-20
3.59865e-20
3.59862e-20
3.59859e-20
3.59856e-20
3.59853e-20
3.59851e-20
3.59849e-20
3.59849e-20
3.5985e-20
3.59854e-20
3.59861e-20
3.59874e-20
3.59895e-20
3.59929e-20
3.59984e-20
3.60073e-20
3.60216e-20
3.60444e-20
3.60797e-20
3.61292e-20
3.61552e-20
1.83063e-19
1.83014e-19
1.82827e-19
1.8269e-19
1.826e-19
1.82542e-19
1.82506e-19
1.82483e-19
1.82469e-19
1.82461e-19
1.82455e-19
1.82452e-19
1.82451e-19
1.82451e-19
1.82452e-19
1.82453e-19
1.82454e-19
1.82455e-19
1.82457e-19
1.82459e-19
1.8246e-19
1.82462e-19
1.82464e-19
1.82465e-19
1.82466e-19
1.82467e-19
1.82468e-19
1.82469e-19
1.82469e-19
1.82469e-19
1.82469e-19
1.82469e-19
1.82469e-19
1.82468e-19
1.82467e-19
1.82466e-19
1.82465e-19
1.82464e-19
1.82462e-19
1.8246e-19
1.82459e-19
1.82457e-19
1.82455e-19
1.82454e-19
1.82453e-19
1.82452e-19
1.82451e-19
1.82451e-19
1.82452e-19
1.82455e-19
1.82461e-19
1.82469e-19
1.82483e-19
1.82506e-19
1.82542e-19
1.826e-19
1.8269e-19
1.82827e-19
1.83014e-19
1.83063e-19
9.47315e-19
9.4751e-19
9.46897e-19
9.46413e-19
9.46084e-19
9.45868e-19
9.45729e-19
9.4564e-19
9.45584e-19
9.45549e-19
9.45529e-19
9.45519e-19
9.45516e-19
9.45517e-19
9.45521e-19
9.45528e-19
9.45536e-19
9.45545e-19
9.45554e-19
9.45563e-19
9.45573e-19
9.45582e-19
9.4559e-19
9.45597e-19
9.45604e-19
9.4561e-19
9.45614e-19
9.45618e-19
9.4562e-19
9.45621e-19
9.45621e-19
9.4562e-19
9.45618e-19
9.45614e-19
9.4561e-19
9.45604e-19
9.45597e-19
9.4559e-19
9.45582e-19
9.45573e-19
9.45563e-19
9.45554e-19
9.45545e-19
9.45536e-19
9.45528e-19
9.45521e-19
9.45517e-19
9.45516e-19
9.45519e-19
9.45529e-19
9.45549e-19
9.45584e-19
9.4564e-19
9.45729e-19
9.45868e-19
9.46084e-19
9.46413e-19
9.46897e-19
9.4751e-19
9.47315e-19
5.07007e-18
5.07359e-18
5.07225e-18
5.07092e-18
5.06992e-18
5.06922e-18
5.06874e-18
5.06842e-18
5.06822e-18
5.06809e-18
5.06802e-18
5.06799e-18
5.06799e-18
5.06801e-18
5.06804e-18
5.06808e-18
5.06813e-18
5.06819e-18
5.06824e-18
5.0683e-18
5.06835e-18
5.0684e-18
5.06844e-18
5.06849e-18
5.06852e-18
5.06856e-18
5.06858e-18
5.0686e-18
5.06861e-18
5.06862e-18
5.06862e-18
5.06861e-18
5.0686e-18
5.06858e-18
5.06856e-18
5.06852e-18
5.06849e-18
5.06844e-18
5.0684e-18
5.06835e-18
5.0683e-18
5.06824e-18
5.06819e-18
5.06813e-18
5.06808e-18
5.06804e-18
5.06801e-18
5.06799e-18
5.06799e-18
5.06802e-18
5.06809e-18
5.06822e-18
5.06842e-18
5.06874e-18
5.06922e-18
5.06992e-18
5.07092e-18
5.07225e-18
5.07359e-18
5.07007e-18
2.81067e-17
2.81401e-17
2.81437e-17
2.81435e-17
2.81423e-17
2.8141e-17
2.81398e-17
2.8139e-17
2.81384e-17
2.8138e-17
2.81378e-17
2.81378e-17
2.81379e-17
2.81381e-17
2.81383e-17
2.81386e-17
2.81389e-17
2.81392e-17
2.81395e-17
2.81398e-17
2.81402e-17
2.81405e-17
2.81407e-17
2.8141e-17
2.81412e-17
2.81414e-17
2.81415e-17
2.81416e-17
2.81417e-17
2.81417e-17
2.81417e-17
2.81417e-17
2.81416e-17
2.81415e-17
2.81414e-17
2.81412e-17
2.8141e-17
2.81407e-17
2.81405e-17
2.81402e-17
2.81398e-17
2.81395e-17
2.81392e-17
2.81389e-17
2.81386e-17
2.81383e-17
2.81381e-17
2.81379e-17
2.81378e-17
2.81378e-17
2.8138e-17
2.81384e-17
2.8139e-17
2.81398e-17
2.8141e-17
2.81423e-17
2.81435e-17
2.81437e-17
2.81401e-17
2.81067e-17
1.61235e-16
1.61508e-16
1.61593e-16
1.61633e-16
1.61651e-16
1.61658e-16
1.61661e-16
1.61661e-16
1.61661e-16
1.61661e-16
1.61661e-16
1.61662e-16
1.61663e-16
1.61664e-16
1.61666e-16
1.61668e-16
1.6167e-16
1.61672e-16
1.61674e-16
1.61676e-16
1.61677e-16
1.61679e-16
1.61681e-16
1.61682e-16
1.61684e-16
1.61685e-16
1.61686e-16
1.61686e-16
1.61687e-16
1.61687e-16
1.61687e-16
1.61687e-16
1.61686e-16
1.61686e-16
1.61685e-16
1.61684e-16
1.61682e-16
1.61681e-16
1.61679e-16
1.61677e-16
1.61676e-16
1.61674e-16
1.61672e-16
1.6167e-16
1.61668e-16
1.61666e-16
1.61664e-16
1.61663e-16
1.61662e-16
1.61661e-16
1.61661e-16
1.61661e-16
1.61661e-16
1.61661e-16
1.61658e-16
1.61651e-16
1.61633e-16
1.61593e-16
1.61508e-16
1.61235e-16
9.55288e-16
9.57381e-16
9.58269e-16
9.58755e-16
9.59016e-16
9.59151e-16
9.59218e-16
9.59251e-16
9.59268e-16
9.59279e-16
9.59288e-16
9.59297e-16
9.59306e-16
9.59317e-16
9.59329e-16
9.59341e-16
9.59354e-16
9.59367e-16
9.59379e-16
9.59392e-16
9.59403e-16
9.59414e-16
9.59424e-16
9.59433e-16
9.59441e-16
9.59448e-16
9.59454e-16
9.59458e-16
9.59461e-16
9.59462e-16
9.59462e-16
9.59461e-16
9.59458e-16
9.59454e-16
9.59448e-16
9.59441e-16
9.59433e-16
9.59424e-16
9.59414e-16
9.59403e-16
9.59392e-16
9.59379e-16
9.59367e-16
9.59354e-16
9.59341e-16
9.59329e-16
9.59317e-16
9.59306e-16
9.59297e-16
9.59288e-16
9.59279e-16
9.59268e-16
9.59251e-16
9.59218e-16
9.59151e-16
9.59016e-16
9.58755e-16
9.58269e-16
9.57381e-16
9.55288e-16
5.8303e-15
5.846e-15
5.85377e-15
5.85827e-15
5.86079e-15
5.86216e-15
5.8629e-15
5.86329e-15
5.86351e-15
5.86365e-15
5.86375e-15
5.86383e-15
5.86391e-15
5.86399e-15
5.86408e-15
5.86416e-15
5.86424e-15
5.86433e-15
5.86441e-15
5.86449e-15
5.86456e-15
5.86463e-15
5.8647e-15
5.86475e-15
5.8648e-15
5.86485e-15
5.86488e-15
5.86491e-15
5.86492e-15
5.86493e-15
5.86493e-15
5.86492e-15
5.86491e-15
5.86488e-15
5.86485e-15
5.8648e-15
5.86475e-15
5.8647e-15
5.86463e-15
5.86456e-15
5.86449e-15
5.86441e-15
5.86433e-15
5.86424e-15
5.86416e-15
5.86408e-15
5.86399e-15
5.86391e-15
5.86383e-15
5.86375e-15
5.86365e-15
5.86351e-15
5.86329e-15
5.8629e-15
5.86216e-15
5.86079e-15
5.85827e-15
5.85377e-15
5.846e-15
5.8303e-15
3.65303e-14
3.66469e-14
3.67103e-14
3.67479e-14
3.67695e-14
3.67816e-14
3.67882e-14
3.67919e-14
3.6794e-14
3.67953e-14
3.67962e-14
3.67969e-14
3.67976e-14
3.67982e-14
3.67987e-14
3.67993e-14
3.67999e-14
3.68004e-14
3.6801e-14
3.68015e-14
3.6802e-14
3.68024e-14
3.68029e-14
3.68032e-14
3.68035e-14
3.68038e-14
3.6804e-14
3.68042e-14
3.68043e-14
3.68044e-14
3.68044e-14
3.68043e-14
3.68042e-14
3.6804e-14
3.68038e-14
3.68035e-14
3.68032e-14
3.68029e-14
3.68024e-14
3.6802e-14
3.68015e-14
3.6801e-14
3.68004e-14
3.67999e-14
3.67993e-14
3.67987e-14
3.67982e-14
3.67976e-14
3.67969e-14
3.67962e-14
3.67953e-14
3.6794e-14
3.67919e-14
3.67882e-14
3.67816e-14
3.67695e-14
3.67479e-14
3.67103e-14
3.66469e-14
3.65303e-14
2.33975e-13
2.34836e-13
2.35335e-13
2.35636e-13
2.35811e-13
2.3591e-13
2.35965e-13
2.35996e-13
2.36014e-13
2.36026e-13
2.36033e-13
2.36039e-13
2.36044e-13
2.36048e-13
2.36052e-13
2.36056e-13
2.3606e-13
2.36064e-13
2.36067e-13
2.36071e-13
2.36074e-13
2.36077e-13
2.3608e-13
2.36082e-13
2.36084e-13
2.36086e-13
2.36087e-13
2.36089e-13
2.36089e-13
2.3609e-13
2.3609e-13
2.36089e-13
2.36089e-13
2.36087e-13
2.36086e-13
2.36084e-13
2.36082e-13
2.3608e-13
2.36077e-13
2.36074e-13
2.36071e-13
2.36067e-13
2.36064e-13
2.3606e-13
2.36056e-13
2.36052e-13
2.36048e-13
2.36044e-13
2.36039e-13
2.36033e-13
2.36026e-13
2.36014e-13
2.35996e-13
2.35965e-13
2.3591e-13
2.35811e-13
2.35636e-13
2.35335e-13
2.34836e-13
2.33975e-13
1.52392e-12
1.53025e-12
1.53408e-12
1.53642e-12
1.53779e-12
1.53857e-12
1.53902e-12
1.53927e-12
1.53941e-12
1.5395e-12
1.53956e-12
1.53961e-12
1.53965e-12
1.53968e-12
1.53971e-12
1.53973e-12
1.53976e-12
1.53979e-12
1.53981e-12
1.53983e-12
1.53986e-12
1.53988e-12
1.53989e-12
1.53991e-12
1.53992e-12
1.53994e-12
1.53995e-12
1.53995e-12
1.53996e-12
1.53996e-12
1.53996e-12
1.53996e-12
1.53995e-12
1.53995e-12
1.53994e-12
1.53992e-12
1.53991e-12
1.53989e-12
1.53988e-12
1.53986e-12
1.53983e-12
1.53981e-12
1.53979e-12
1.53976e-12
1.53973e-12
1.53971e-12
1.53968e-12
1.53965e-12
1.53961e-12
1.53956e-12
1.5395e-12
1.53941e-12
1.53927e-12
1.53902e-12
1.53857e-12
1.53779e-12
1.53642e-12
1.53408e-12
1.53025e-12
1.52392e-12
1.00295e-11
1.00758e-11
1.01046e-11
1.01224e-11
1.01329e-11
1.01389e-11
1.01423e-11
1.01443e-11
1.01455e-11
1.01462e-11
1.01466e-11
1.0147e-11
1.01472e-11
1.01475e-11
1.01477e-11
1.01479e-11
1.01481e-11
1.01482e-11
1.01484e-11
1.01485e-11
1.01487e-11
1.01488e-11
1.01489e-11
1.01491e-11
1.01492e-11
1.01492e-11
1.01493e-11
1.01493e-11
1.01494e-11
1.01494e-11
1.01494e-11
1.01494e-11
1.01493e-11
1.01493e-11
1.01492e-11
1.01492e-11
1.01491e-11
1.01489e-11
1.01488e-11
1.01487e-11
1.01485e-11
1.01484e-11
1.01482e-11
1.01481e-11
1.01479e-11
1.01477e-11
1.01475e-11
1.01472e-11
1.0147e-11
1.01466e-11
1.01462e-11
1.01455e-11
1.01443e-11
1.01423e-11
1.01389e-11
1.01329e-11
1.01224e-11
1.01046e-11
1.00758e-11
1.00295e-11
6.62027e-11
6.65359e-11
6.67493e-11
6.68814e-11
6.69596e-11
6.70047e-11
6.70304e-11
6.70452e-11
6.7054e-11
6.70593e-11
6.70628e-11
6.70654e-11
6.70673e-11
6.7069e-11
6.70704e-11
6.70718e-11
6.7073e-11
6.70742e-11
6.70754e-11
6.70764e-11
6.70774e-11
6.70783e-11
6.70791e-11
6.70798e-11
6.70804e-11
6.70809e-11
6.70814e-11
6.70817e-11
6.70819e-11
6.7082e-11
6.7082e-11
6.70819e-11
6.70817e-11
6.70814e-11
6.70809e-11
6.70804e-11
6.70798e-11
6.70791e-11
6.70783e-11
6.70774e-11
6.70764e-11
6.70754e-11
6.70742e-11
6.7073e-11
6.70718e-11
6.70704e-11
6.7069e-11
6.70673e-11
6.70654e-11
6.70628e-11
6.70593e-11
6.7054e-11
6.70452e-11
6.70304e-11
6.70047e-11
6.69596e-11
6.68814e-11
6.67493e-11
6.65359e-11
6.62027e-11
4.34478e-10
4.36833e-10
4.38369e-10
4.39324e-10
4.39891e-10
4.40219e-10
4.40407e-10
4.40515e-10
4.40579e-10
4.40618e-10
4.40644e-10
4.40662e-10
4.40676e-10
4.40688e-10
4.40698e-10
4.40707e-10
4.40716e-10
4.40724e-10
4.40731e-10
4.40738e-10
4.40745e-10
4.4075e-10
4.40756e-10
4.4076e-10
4.40765e-10
4.40768e-10
4.40771e-10
4.40773e-10
4.40774e-10
4.40775e-10
4.40775e-10
4.40774e-10
4.40773e-10
4.40771e-10
4.40768e-10
4.40765e-10
4.4076e-10
4.40756e-10
4.4075e-10
4.40745e-10
4.40738e-10
4.40731e-10
4.40724e-10
4.40716e-10
4.40707e-10
4.40698e-10
4.40688e-10
4.40676e-10
4.40662e-10
4.40644e-10
4.40618e-10
4.40579e-10
4.40515e-10
4.40407e-10
4.40219e-10
4.39891e-10
4.39324e-10
4.38369e-10
4.36833e-10
4.34478e-10
2.80702e-09
2.82319e-09
2.83388e-09
2.84055e-09
2.84451e-09
2.84681e-09
2.84813e-09
2.8489e-09
2.84935e-09
2.84963e-09
2.84981e-09
2.84994e-09
2.85003e-09
2.85011e-09
2.85018e-09
2.85024e-09
2.8503e-09
2.85035e-09
2.8504e-09
2.85044e-09
2.85048e-09
2.85052e-09
2.85056e-09
2.85059e-09
2.85061e-09
2.85064e-09
2.85065e-09
2.85067e-09
2.85068e-09
2.85068e-09
2.85068e-09
2.85068e-09
2.85067e-09
2.85065e-09
2.85064e-09
2.85061e-09
2.85059e-09
2.85056e-09
2.85052e-09
2.85048e-09
2.85044e-09
2.8504e-09
2.85035e-09
2.8503e-09
2.85024e-09
2.85018e-09
2.85011e-09
2.85003e-09
2.84994e-09
2.84981e-09
2.84963e-09
2.84935e-09
2.8489e-09
2.84813e-09
2.84681e-09
2.84451e-09
2.84055e-09
2.83388e-09
2.82319e-09
2.80702e-09
1.76554e-08
1.77621e-08
1.78334e-08
1.78779e-08
1.79045e-08
1.79199e-08
1.79287e-08
1.79339e-08
1.79369e-08
1.79388e-08
1.794e-08
1.79409e-08
1.79415e-08
1.7942e-08
1.79425e-08
1.79429e-08
1.79432e-08
1.79435e-08
1.79438e-08
1.79441e-08
1.79444e-08
1.79446e-08
1.79448e-08
1.7945e-08
1.79452e-08
1.79453e-08
1.79455e-08
1.79455e-08
1.79456e-08
1.79456e-08
1.79456e-08
1.79456e-08
1.79455e-08
1.79455e-08
1.79453e-08
1.79452e-08
1.7945e-08
1.79448e-08
1.79446e-08
1.79444e-08
1.79441e-08
1.79438e-08
1.79435e-08
1.79432e-08
1.79429e-08
1.79425e-08
1.7942e-08
1.79415e-08
1.79409e-08
1.794e-08
1.79388e-08
1.79369e-08
1.79339e-08
1.79287e-08
1.79199e-08
1.79045e-08
1.78779e-08
1.78334e-08
1.77621e-08
1.76554e-08
1.06795e-07
1.07463e-07
1.07913e-07
1.08194e-07
1.08362e-07
1.0846e-07
1.08516e-07
1.08549e-07
1.08568e-07
1.0858e-07
1.08588e-07
1.08593e-07
1.08597e-07
1.086e-07
1.08603e-07
1.08605e-07
1.08608e-07
1.0861e-07
1.08611e-07
1.08613e-07
1.08615e-07
1.08616e-07
1.08617e-07
1.08618e-07
1.08619e-07
1.0862e-07
1.08621e-07
1.08621e-07
1.08622e-07
1.08622e-07
1.08622e-07
1.08622e-07
1.08621e-07
1.08621e-07
1.0862e-07
1.08619e-07
1.08618e-07
1.08617e-07
1.08616e-07
1.08615e-07
1.08613e-07
1.08611e-07
1.0861e-07
1.08608e-07
1.08605e-07
1.08603e-07
1.086e-07
1.08597e-07
1.08593e-07
1.08588e-07
1.0858e-07
1.08568e-07
1.08549e-07
1.08516e-07
1.0846e-07
1.08362e-07
1.08194e-07
1.07913e-07
1.07463e-07
1.06795e-07
6.13058e-07
6.1698e-07
6.19631e-07
6.21291e-07
6.22282e-07
6.22859e-07
6.23193e-07
6.23386e-07
6.23501e-07
6.23572e-07
6.23618e-07
6.23649e-07
6.23672e-07
6.23691e-07
6.23707e-07
6.2372e-07
6.23733e-07
6.23744e-07
6.23754e-07
6.23764e-07
6.23773e-07
6.23781e-07
6.23788e-07
6.23794e-07
6.23799e-07
6.23804e-07
6.23808e-07
6.2381e-07
6.23812e-07
6.23813e-07
6.23813e-07
6.23812e-07
6.2381e-07
6.23808e-07
6.23804e-07
6.23799e-07
6.23794e-07
6.23788e-07
6.23781e-07
6.23773e-07
6.23764e-07
6.23754e-07
6.23744e-07
6.23733e-07
6.2372e-07
6.23707e-07
6.23691e-07
6.23672e-07
6.23649e-07
6.23618e-07
6.23572e-07
6.23501e-07
6.23386e-07
6.23193e-07
6.22859e-07
6.22282e-07
6.21291e-07
6.19631e-07
6.1698e-07
6.13058e-07
3.29287e-06
3.31411e-06
3.32849e-06
3.33751e-06
3.34289e-06
3.34603e-06
3.34785e-06
3.3489e-06
3.34953e-06
3.34992e-06
3.35016e-06
3.35034e-06
3.35046e-06
3.35056e-06
3.35064e-06
3.35072e-06
3.35078e-06
3.35084e-06
3.3509e-06
3.35094e-06
3.35099e-06
3.35103e-06
3.35107e-06
3.3511e-06
3.35113e-06
3.35115e-06
3.35117e-06
3.35119e-06
3.35119e-06
3.3512e-06
3.3512e-06
3.35119e-06
3.35119e-06
3.35117e-06
3.35115e-06
3.35113e-06
3.3511e-06
3.35107e-06
3.35103e-06
3.35099e-06
3.35094e-06
3.3509e-06
3.35084e-06
3.35078e-06
3.35072e-06
3.35064e-06
3.35056e-06
3.35046e-06
3.35034e-06
3.35016e-06
3.34992e-06
3.34953e-06
3.3489e-06
3.34785e-06
3.34603e-06
3.34289e-06
3.33751e-06
3.32849e-06
3.31411e-06
3.29287e-06
1.6302e-05
1.64064e-05
1.64771e-05
1.65215e-05
1.6548e-05
1.65634e-05
1.65724e-05
1.65776e-05
1.65807e-05
1.65826e-05
1.65838e-05
1.65847e-05
1.65853e-05
1.65858e-05
1.65862e-05
1.65865e-05
1.65868e-05
1.65871e-05
1.65874e-05
1.65876e-05
1.65878e-05
1.6588e-05
1.65882e-05
1.65883e-05
1.65885e-05
1.65886e-05
1.65887e-05
1.65887e-05
1.65888e-05
1.65888e-05
1.65888e-05
1.65888e-05
1.65887e-05
1.65887e-05
1.65886e-05
1.65885e-05
1.65883e-05
1.65882e-05
1.6588e-05
1.65878e-05
1.65876e-05
1.65874e-05
1.65871e-05
1.65868e-05
1.65865e-05
1.65862e-05
1.65858e-05
1.65853e-05
1.65847e-05
1.65838e-05
1.65826e-05
1.65807e-05
1.65776e-05
1.65724e-05
1.65634e-05
1.6548e-05
1.65215e-05
1.64771e-05
1.64064e-05
1.6302e-05
7.32148e-05
7.36726e-05
7.39827e-05
7.41768e-05
7.42928e-05
7.43606e-05
7.43999e-05
7.44228e-05
7.44364e-05
7.44447e-05
7.44501e-05
7.44538e-05
7.44565e-05
7.44586e-05
7.44603e-05
7.44618e-05
7.44631e-05
7.44643e-05
7.44654e-05
7.44664e-05
7.44673e-05
7.44681e-05
7.44688e-05
7.44695e-05
7.447e-05
7.44705e-05
7.44709e-05
7.44712e-05
7.44713e-05
7.44714e-05
7.44714e-05
7.44713e-05
7.44712e-05
7.44709e-05
7.44705e-05
7.447e-05
7.44695e-05
7.44688e-05
7.44681e-05
7.44673e-05
7.44664e-05
7.44654e-05
7.44643e-05
7.44631e-05
7.44618e-05
7.44603e-05
7.44586e-05
7.44565e-05
7.44538e-05
7.44501e-05
7.44447e-05
7.44364e-05
7.44228e-05
7.43999e-05
7.43606e-05
7.42928e-05
7.41768e-05
7.39827e-05
7.36726e-05
7.32148e-05
0.000293339
0.000295095
0.000296282
0.000297024
0.000297468
0.000297727
0.000297877
0.000297965
0.000298017
0.000298049
0.00029807
0.000298084
0.000298094
0.000298102
0.000298109
0.000298114
0.000298119
0.000298124
0.000298128
0.000298131
0.000298135
0.000298138
0.00029814
0.000298143
0.000298145
0.000298147
0.000298148
0.000298149
0.00029815
0.00029815
0.00029815
0.00029815
0.000298149
0.000298148
0.000298147
0.000298145
0.000298143
0.00029814
0.000298138
0.000298135
0.000298131
0.000298128
0.000298124
0.000298119
0.000298114
0.000298109
0.000298102
0.000298094
0.000298084
0.00029807
0.000298049
0.000298017
0.000297965
0.000297877
0.000297727
0.000297468
0.000297024
0.000296282
0.000295095
0.000293339
0.0010303
0.00103607
0.00103995
0.00104238
0.00104383
0.00104467
0.00104517
0.00104545
0.00104562
0.00104573
0.0010458
0.00104584
0.00104588
0.0010459
0.00104592
0.00104594
0.00104596
0.00104597
0.00104598
0.001046
0.00104601
0.00104602
0.00104602
0.00104603
0.00104604
0.00104604
0.00104605
0.00104605
0.00104605
0.00104605
0.00104605
0.00104605
0.00104605
0.00104605
0.00104604
0.00104604
0.00104603
0.00104602
0.00104602
0.00104601
0.001046
0.00104598
0.00104597
0.00104596
0.00104594
0.00104592
0.0010459
0.00104588
0.00104584
0.0010458
0.00104573
0.00104562
0.00104545
0.00104517
0.00104467
0.00104383
0.00104238
0.00103995
0.00103607
0.0010303
0.00311821
0.00313406
0.00314468
0.0031513
0.00315527
0.00315759
0.00315893
0.00315972
0.00316019
0.00316048
0.00316066
0.00316079
0.00316088
0.00316095
0.003161
0.00316105
0.00316109
0.00316113
0.00316117
0.0031612
0.00316123
0.00316125
0.00316127
0.00316129
0.00316131
0.00316132
0.00316134
0.00316134
0.00316135
0.00316135
0.00316135
0.00316135
0.00316134
0.00316134
0.00316132
0.00316131
0.00316129
0.00316127
0.00316125
0.00316123
0.0031612
0.00316117
0.00316113
0.00316109
0.00316105
0.003161
0.00316095
0.00316088
0.00316079
0.00316066
0.00316048
0.00316019
0.00315972
0.00315893
0.00315759
0.00315527
0.0031513
0.00314468
0.00313406
0.00311821
0.00801689
0.00805271
0.00807654
0.00809139
0.00810028
0.00810549
0.00810851
0.00811028
0.00811134
0.00811199
0.0081124
0.00811268
0.00811289
0.00811304
0.00811317
0.00811328
0.00811337
0.00811345
0.00811353
0.00811359
0.00811365
0.00811371
0.00811376
0.0081138
0.00811384
0.00811387
0.00811389
0.00811391
0.00811392
0.00811393
0.00811393
0.00811392
0.00811391
0.00811389
0.00811387
0.00811384
0.0081138
0.00811376
0.00811371
0.00811365
0.00811359
0.00811353
0.00811345
0.00811337
0.00811328
0.00811317
0.00811304
0.00811289
0.00811268
0.0081124
0.00811199
0.00811134
0.00811028
0.00810851
0.00810549
0.00810028
0.00809139
0.00807654
0.00805271
0.00801689
0.0173966
0.0174626
0.0175063
0.0175334
0.0175497
0.0175592
0.0175647
0.017568
0.0175699
0.0175711
0.0175719
0.0175724
0.0175728
0.017573
0.0175733
0.0175735
0.0175736
0.0175738
0.0175739
0.017574
0.0175741
0.0175742
0.0175743
0.0175744
0.0175745
0.0175745
0.0175745
0.0175746
0.0175746
0.0175746
0.0175746
0.0175746
0.0175746
0.0175745
0.0175745
0.0175745
0.0175744
0.0175743
0.0175742
0.0175741
0.017574
0.0175739
0.0175738
0.0175736
0.0175735
0.0175733
0.017573
0.0175728
0.0175724
0.0175719
0.0175711
0.0175699
0.017568
0.0175647
0.0175592
0.0175497
0.0175334
0.0175063
0.0174626
0.0173966
0.0320653
0.0321659
0.0322319
0.0322729
0.0322975
0.0323119
0.0323203
0.0323253
0.0323282
0.03233
0.0323312
0.0323319
0.0323325
0.0323329
0.0323333
0.0323335
0.0323338
0.032334
0.0323342
0.0323344
0.0323345
0.0323347
0.0323348
0.0323349
0.032335
0.0323351
0.0323352
0.0323352
0.0323352
0.0323353
0.0323353
0.0323352
0.0323352
0.0323352
0.0323351
0.032335
0.0323349
0.0323348
0.0323347
0.0323345
0.0323344
0.0323342
0.032334
0.0323338
0.0323335
0.0323333
0.0323329
0.0323325
0.0323319
0.0323312
0.03233
0.0323282
0.0323253
0.0323203
0.0323119
0.0322975
0.0322729
0.0322319
0.0321659
0.0320653
0.0512322
0.0513638
0.0514494
0.0515026
0.0515344
0.0515532
0.0515641
0.0515705
0.0515744
0.0515767
0.0515782
0.0515793
0.05158
0.0515805
0.051581
0.0515813
0.0515816
0.0515819
0.0515822
0.0515824
0.0515826
0.0515827
0.0515829
0.051583
0.0515832
0.0515833
0.0515833
0.0515834
0.0515834
0.0515835
0.0515835
0.0515834
0.0515834
0.0515833
0.0515833
0.0515832
0.051583
0.0515829
0.0515827
0.0515826
0.0515824
0.0515822
0.0515819
0.0515816
0.0515813
0.051581
0.0515805
0.05158
0.0515793
0.0515782
0.0515767
0.0515744
0.0515705
0.0515641
0.0515532
0.0515344
0.0515026
0.0514494
0.0513638
0.0512322
0.0730787
0.0732337
0.0733339
0.0733961
0.0734334
0.0734554
0.0734683
0.0734759
0.0734804
0.0734832
0.073485
0.0734862
0.073487
0.0734876
0.0734881
0.0734886
0.0734889
0.0734892
0.0734895
0.0734898
0.07349
0.0734902
0.0734904
0.0734905
0.0734906
0.0734907
0.0734908
0.0734909
0.0734909
0.073491
0.073491
0.0734909
0.0734909
0.0734908
0.0734907
0.0734906
0.0734905
0.0734904
0.0734902
0.07349
0.0734898
0.0734895
0.0734892
0.0734889
0.0734886
0.0734881
0.0734876
0.073487
0.0734862
0.073485
0.0734832
0.0734804
0.0734759
0.0734683
0.0734554
0.0734334
0.0733961
0.0733339
0.0732337
0.0730787
0.0959518
0.0961244
0.0962353
0.0963041
0.0963455
0.0963699
0.0963843
0.0963928
0.0963978
0.096401
0.096403
0.0964043
0.0964052
0.0964059
0.0964065
0.0964069
0.0964073
0.0964077
0.096408
0.0964082
0.0964085
0.0964087
0.0964089
0.096409
0.0964092
0.0964093
0.0964094
0.0964094
0.0964095
0.0964095
0.0964095
0.0964095
0.0964094
0.0964094
0.0964093
0.0964092
0.096409
0.0964089
0.0964087
0.0964085
0.0964082
0.096408
0.0964077
0.0964073
0.0964069
0.0964065
0.0964059
0.0964052
0.0964043
0.096403
0.096401
0.0963978
0.0963928
0.0963843
0.0963699
0.0963455
0.0963041
0.0962353
0.0961244
0.0959518
0.118949
0.119136
0.119256
0.11933
0.119375
0.119402
0.119417
0.119427
0.119432
0.119436
0.119438
0.119439
0.11944
0.119441
0.119442
0.119442
0.119443
0.119443
0.119443
0.119443
0.119444
0.119444
0.119444
0.119444
0.119444
0.119445
0.119445
0.119445
0.119445
0.119445
0.119445
0.119445
0.119445
0.119445
0.119445
0.119444
0.119444
0.119444
0.119444
0.119444
0.119443
0.119443
0.119443
0.119443
0.119442
0.119442
0.119441
0.11944
0.119439
0.119438
0.119436
0.119432
0.119427
0.119417
0.119402
0.119375
0.11933
0.119256
0.119136
0.118949
0.141771
0.141972
0.1421
0.142179
0.142228
0.142256
0.142273
0.142283
0.142289
0.142293
0.142295
0.142297
0.142298
0.142299
0.1423
0.1423
0.1423
0.142301
0.142301
0.142301
0.142302
0.142302
0.142302
0.142302
0.142302
0.142303
0.142303
0.142303
0.142303
0.142303
0.142303
0.142303
0.142303
0.142303
0.142303
0.142302
0.142302
0.142302
0.142302
0.142302
0.142301
0.142301
0.142301
0.1423
0.1423
0.1423
0.142299
0.142298
0.142297
0.142295
0.142293
0.142289
0.142283
0.142273
0.142256
0.142228
0.142179
0.1421
0.141972
0.141771
0.164388
0.164601
0.164738
0.164823
0.164874
0.164905
0.164923
0.164934
0.164941
0.164945
0.164947
0.164949
0.16495
0.164951
0.164952
0.164952
0.164953
0.164953
0.164954
0.164954
0.164954
0.164954
0.164955
0.164955
0.164955
0.164955
0.164955
0.164955
0.164955
0.164955
0.164955
0.164955
0.164955
0.164955
0.164955
0.164955
0.164955
0.164955
0.164954
0.164954
0.164954
0.164954
0.164953
0.164953
0.164952
0.164952
0.164951
0.16495
0.164949
0.164947
0.164945
0.164941
0.164934
0.164923
0.164905
0.164874
0.164823
0.164738
0.164601
0.164388
0.186831
0.187057
0.187202
0.187292
0.187347
0.18738
0.1874
0.187411
0.187419
0.187423
0.187426
0.187428
0.187429
0.18743
0.187431
0.187431
0.187432
0.187432
0.187432
0.187433
0.187433
0.187433
0.187433
0.187434
0.187434
0.187434
0.187434
0.187434
0.187434
0.187434
0.187434
0.187434
0.187434
0.187434
0.187434
0.187434
0.187434
0.187433
0.187433
0.187433
0.187433
0.187432
0.187432
0.187432
0.187431
0.187431
0.18743
0.187429
0.187428
0.187426
0.187423
0.187419
0.187411
0.1874
0.18738
0.187347
0.187292
0.187202
0.187057
0.186831
0.209122
0.20936
0.209513
0.209609
0.209668
0.209703
0.209724
0.209737
0.209744
0.209749
0.209752
0.209754
0.209756
0.209757
0.209757
0.209758
0.209759
0.209759
0.209759
0.20976
0.20976
0.20976
0.20976
0.209761
0.209761
0.209761
0.209761
0.209761
0.209761
0.209761
0.209761
0.209761
0.209761
0.209761
0.209761
0.209761
0.209761
0.20976
0.20976
0.20976
0.20976
0.209759
0.209759
0.209759
0.209758
0.209757
0.209757
0.209756
0.209754
0.209752
0.209749
0.209744
0.209737
0.209724
0.209703
0.209668
0.209609
0.209513
0.20936
0.209122
0.231266
0.231515
0.231676
0.231777
0.23184
0.231877
0.2319
0.231913
0.231921
0.231927
0.23193
0.231932
0.231934
0.231935
0.231935
0.231936
0.231937
0.231937
0.231937
0.231938
0.231938
0.231938
0.231938
0.231939
0.231939
0.231939
0.231939
0.231939
0.231939
0.231939
0.231939
0.231939
0.231939
0.231939
0.231939
0.231939
0.231939
0.231938
0.231938
0.231938
0.231938
0.231937
0.231937
0.231937
0.231936
0.231935
0.231935
0.231934
0.231932
0.23193
0.231927
0.231921
0.231913
0.2319
0.231877
0.23184
0.231777
0.231676
0.231515
0.231266
0.253251
0.253511
0.25368
0.253787
0.253852
0.253892
0.253916
0.253931
0.25394
0.253945
0.253949
0.253951
0.253953
0.253954
0.253955
0.253956
0.253956
0.253957
0.253957
0.253957
0.253958
0.253958
0.253958
0.253958
0.253958
0.253959
0.253959
0.253959
0.253959
0.253959
0.253959
0.253959
0.253959
0.253959
0.253959
0.253958
0.253958
0.253958
0.253958
0.253958
0.253957
0.253957
0.253957
0.253956
0.253956
0.253955
0.253954
0.253953
0.253951
0.253949
0.253945
0.25394
0.253931
0.253916
0.253892
0.253852
0.253787
0.25368
0.253511
0.253251
0.275063
0.275333
0.275509
0.275621
0.275691
0.275733
0.275759
0.275774
0.275784
0.27579
0.275794
0.275796
0.275798
0.275799
0.2758
0.275801
0.275801
0.275802
0.275802
0.275802
0.275803
0.275803
0.275803
0.275803
0.275803
0.275804
0.275804
0.275804
0.275804
0.275804
0.275804
0.275804
0.275804
0.275804
0.275804
0.275803
0.275803
0.275803
0.275803
0.275803
0.275802
0.275802
0.275802
0.275801
0.275801
0.2758
0.275799
0.275798
0.275796
0.275794
0.27579
0.275784
0.275774
0.275759
0.275733
0.275691
0.275621
0.275509
0.275333
0.275063
0.296682
0.296962
0.297145
0.297263
0.297336
0.29738
0.297408
0.297424
0.297434
0.297441
0.297445
0.297448
0.29745
0.297451
0.297452
0.297453
0.297453
0.297454
0.297454
0.297454
0.297455
0.297455
0.297455
0.297455
0.297455
0.297456
0.297456
0.297456
0.297456
0.297456
0.297456
0.297456
0.297456
0.297456
0.297456
0.297455
0.297455
0.297455
0.297455
0.297455
0.297454
0.297454
0.297454
0.297453
0.297453
0.297452
0.297451
0.29745
0.297448
0.297445
0.297441
0.297434
0.297424
0.297408
0.29738
0.297336
0.297263
0.297145
0.296962
0.296682
0.31809
0.318378
0.318569
0.318691
0.318768
0.318815
0.318844
0.318861
0.318872
0.318879
0.318884
0.318887
0.318889
0.31889
0.318891
0.318892
0.318892
0.318893
0.318893
0.318894
0.318894
0.318894
0.318894
0.318895
0.318895
0.318895
0.318895
0.318895
0.318895
0.318895
0.318895
0.318895
0.318895
0.318895
0.318895
0.318895
0.318895
0.318894
0.318894
0.318894
0.318894
0.318893
0.318893
0.318892
0.318892
0.318891
0.31889
0.318889
0.318887
0.318884
0.318879
0.318872
0.318861
0.318844
0.318815
0.318768
0.318691
0.318569
0.318378
0.31809
0.339267
0.339563
0.33976
0.339887
0.339967
0.340017
0.340048
0.340066
0.340078
0.340085
0.34009
0.340093
0.340095
0.340097
0.340098
0.340099
0.340099
0.3401
0.3401
0.340101
0.340101
0.340101
0.340101
0.340102
0.340102
0.340102
0.340102
0.340102
0.340102
0.340102
0.340102
0.340102
0.340102
0.340102
0.340102
0.340102
0.340102
0.340101
0.340101
0.340101
0.340101
0.3401
0.3401
0.340099
0.340099
0.340098
0.340097
0.340095
0.340093
0.34009
0.340085
0.340078
0.340066
0.340048
0.340017
0.339967
0.339887
0.33976
0.339563
0.339267
0.360193
0.360497
0.3607
0.360832
0.360915
0.360968
0.361
0.36102
0.361032
0.36104
0.361045
0.361049
0.361051
0.361052
0.361054
0.361054
0.361055
0.361056
0.361056
0.361056
0.361057
0.361057
0.361057
0.361057
0.361058
0.361058
0.361058
0.361058
0.361058
0.361058
0.361058
0.361058
0.361058
0.361058
0.361058
0.361058
0.361057
0.361057
0.361057
0.361057
0.361056
0.361056
0.361056
0.361055
0.361054
0.361054
0.361052
0.361051
0.361049
0.361045
0.36104
0.361032
0.36102
0.361
0.360968
0.360915
0.360832
0.3607
0.360497
0.360193
0.380851
0.381161
0.38137
0.381507
0.381594
0.381649
0.381683
0.381704
0.381717
0.381725
0.381731
0.381734
0.381737
0.381739
0.38174
0.381741
0.381741
0.381742
0.381742
0.381743
0.381743
0.381743
0.381744
0.381744
0.381744
0.381744
0.381744
0.381744
0.381744
0.381744
0.381744
0.381744
0.381744
0.381744
0.381744
0.381744
0.381744
0.381744
0.381743
0.381743
0.381743
0.381742
0.381742
0.381741
0.381741
0.38174
0.381739
0.381737
0.381734
0.381731
0.381725
0.381717
0.381704
0.381683
0.381649
0.381594
0.381507
0.38137
0.381161
0.380851
0.401224
0.401539
0.401754
0.401895
0.401985
0.402043
0.402078
0.402101
0.402115
0.402124
0.40213
0.402133
0.402136
0.402138
0.402139
0.40214
0.402141
0.402141
0.402142
0.402142
0.402143
0.402143
0.402143
0.402143
0.402143
0.402144
0.402144
0.402144
0.402144
0.402144
0.402144
0.402144
0.402144
0.402144
0.402144
0.402143
0.402143
0.402143
0.402143
0.402143
0.402142
0.402142
0.402141
0.402141
0.40214
0.402139
0.402138
0.402136
0.402133
0.40213
0.402124
0.402115
0.402101
0.402078
0.402043
0.401985
0.401895
0.401754
0.401539
0.401224
0.421294
0.421615
0.421834
0.42198
0.422074
0.422133
0.422171
0.422195
0.42221
0.422219
0.422225
0.422229
0.422232
0.422234
0.422235
0.422236
0.422237
0.422238
0.422238
0.422239
0.422239
0.422239
0.42224
0.42224
0.42224
0.42224
0.42224
0.42224
0.42224
0.42224
0.42224
0.42224
0.42224
0.42224
0.42224
0.42224
0.42224
0.42224
0.422239
0.422239