/*--------------------------------*- C++ -*----------------------------------*\
| =========                 |                                                 |
| \\      /  F ield         | foam-extend: Open Source CFD                    |
|  \\    /   O peration     | Version:     4.0                                |
|   \\  /    A nd           | Web:         http://www.foam-extend.org         |
|    \\/     M anipulation  |                                                 |
\*---------------------------------------------------------------------------*/
FoamFile
{
    version     2.0;
    format      ascii;
    class       volScalarField;
    location    "7";
    object      dPhi;
}
// * * * * * * * * * * * * * * * * * * * * * * * * * * * * * * * * * * * * * //

dimensions      [0 -1 0 0 0 0 0];

internalField   nonuniform List<scalar> 
6960
(
-7.15573e-16
3.1572e-16
1.05818e-16
2.28116e-16
1.73559e-15
-7.3986e-16
-2.81893e-16
3.4521e-16
2.73219e-16
2.00361e-16
-4.48426e-16
4.0766e-16
3.35669e-16
-1.88217e-16
1.75207e-16
-1.09288e-15
-2.41994e-16
-1.36263e-15
8.04044e-16
-3.30465e-16
5.95878e-16
1.73472e-18
9.29812e-16
-7.41594e-16
1.13538e-15
4.35416e-16
-1.00614e-16
1.30972e-16
1.71044e-15
5.6552e-16
5.03937e-16
2.02095e-16
1.01048e-15
-6.07153e-17
1.19262e-15
-3.03577e-17
-6.245e-16
-1.03736e-15
8.84709e-17
-8.4828e-16
1.05384e-15
2.3679e-16
8.91648e-16
2.9924e-16
2.498e-16
4.42354e-16
-7.97973e-17
-3.77302e-16
1.5439e-16
1.9082e-17
-3.59955e-16
8.23994e-17
1.32012e-15
1.63064e-16
1.01655e-15
2.86229e-16
-8.25728e-16
-1.38778e-16
5.55112e-17
3.87711e-16
4.71845e-16
1.67921e-15
1.19176e-15
2.02616e-15
1.31839e-16
-3.46945e-17
3.98986e-16
1.5387e-15
1.2837e-16
-8.67362e-17
1.61329e-16
9.24608e-16
-7.66748e-16
1.17441e-15
1.36002e-15
1.79717e-15
4.89192e-16
1.89085e-15
-1.16226e-16
-2.01228e-16
8.67362e-17
1.16573e-15
8.41341e-16
9.88792e-17
9.92262e-16
8.93383e-16
1.8735e-15
8.11851e-16
1.2438e-15
-9.88792e-17
8.30933e-16
3.50414e-16
-5.84602e-16
1.1189e-15
4.26742e-16
-2.498e-16
-1.17267e-15
-1.11369e-15
4.21538e-16
2.15106e-16
-3.26128e-16
-6.64399e-16
-4.68375e-16
1.08073e-15
-2.41127e-16
9.47159e-16
-4.16334e-16
8.30933e-16
1.33747e-15
7.37257e-16
-1.31145e-15
-6.76542e-16
2.63678e-16
-4.45824e-16
-1.22125e-15
3.1225e-17
1.36523e-15
2.70617e-16
-6.69603e-16
1.42941e-15
-1.23512e-15
1.81452e-15
1.46758e-15
1.73472e-15
4.51028e-16
-1.77636e-15
-9.74915e-16
5.37764e-16
3.747e-16
-3.09128e-15
-4.71845e-16
-4.33681e-16
3.2821e-15
-4.16334e-16
1.56125e-16
-1.38778e-16
1.17961e-15
-8.46545e-16
-1.35308e-16
-2.63678e-15
-4.4062e-16
-2.08167e-16
-2.7478e-15
6.31439e-16
-5.89806e-16
1.17961e-16
4.26742e-16
1.29063e-15
-1.63411e-15
5.93275e-16
7.87564e-16
2.61943e-15
2.98025e-15
4.19803e-16
-1.22818e-15
1.85962e-15
-1.23512e-15
7.80626e-16
2.498e-16
-2.07473e-15
-4.75314e-16
1.19349e-15
-9.88792e-16
1.76942e-16
-2.42861e-17
-1.98105e-15
-1.90473e-15
1.67921e-15
-4.10089e-15
6.21031e-16
3.00801e-15
6.59195e-17
3.53884e-16
1.38431e-15
-4.47559e-16
-2.2482e-15
-3.57353e-16
-1.5439e-15
2.91434e-16
6.45317e-16
2.26208e-15
-1.7486e-15
2.08167e-15
-1.31145e-15
-6.83481e-16
2.71311e-15
1.58554e-15
1.37043e-15
3.36536e-16
2.80331e-15
-2.98372e-16
-1.22471e-15
-1.60288e-15
3.78864e-15
-1.22471e-15
1.79023e-15
-2.91434e-16
-9.92262e-16
-1.73472e-16
1.08594e-15
-3.60822e-16
-1.249e-15
2.78944e-15
-1.01308e-15
1.43982e-15
-1.66187e-15
2.81025e-16
3.53884e-16
-7.59809e-16
-5.75928e-16
1.17961e-15
-1.02696e-15
-3.4972e-15
1.09288e-15
-2.80678e-15
5.68989e-16
-3.57353e-15
9.47159e-16
-1.00267e-15
-1.32533e-15
-7.59809e-16
-1.0443e-15
-1.13104e-15
-2.71658e-15
-3.67067e-15
1.92207e-15
1.73125e-15
1.66533e-16
-8.1532e-16
-3.64986e-15
-2.19269e-15
-2.498e-16
-1.59248e-15
-2.27943e-15
4.51028e-16
-6.41848e-16
1.66533e-16
-4.09395e-16
-2.72005e-15
1.86309e-15
1.67921e-15
-1.32533e-15
-5.06539e-16
2.01228e-15
3.05311e-15
-1.19349e-15
-1.85268e-15
2.84495e-16
-3.29597e-15
-1.92207e-15
1.20737e-15
-7.00828e-16
-1.24206e-15
-2.56739e-16
-3.95517e-16
-1.85962e-15
-1.08941e-15
-9.22873e-16
-1.26288e-15
0
-7.14706e-16
3.67761e-15
-4.76702e-15
1.31839e-16
-1.73472e-15
1.249e-15
-3.30291e-15
-1.57513e-15
1.85268e-15
8.18789e-16
-1.38778e-17
-1.4988e-15
2.95597e-15
-6.73073e-16
1.85268e-15
8.67362e-16
3.17107e-15
-3.59435e-15
-6.245e-17
3.15026e-15
-4.51028e-16
-1.56125e-15
-1.04083e-16
4.75314e-15
1.47798e-15
1.17961e-15
2.17881e-15
-3.06699e-15
3.5319e-15
7.35523e-16
2.86576e-15
-7.70217e-16
5.48173e-16
-3.40006e-16
2.06779e-15
8.46545e-16
-3.95517e-16
-3.46945e-17
1.21431e-15
-2.63678e-16
-2.94209e-15
1.6584e-15
-1.25594e-15
1.249e-15
2.42861e-16
-1.3739e-15
1.26288e-15
-1.13798e-15
3.43475e-15
-6.45317e-16
1.76248e-15
-4.64906e-16
-7.49401e-16
1.249e-15
1.25594e-15
2.94209e-15
1.81105e-15
-3.41394e-15
3.40006e-16
2.80331e-15
4.51028e-16
-3.29597e-15
4.76702e-15
-1.57513e-15
2.06085e-15
-1.82493e-15
-6.245e-16
-2.13024e-15
-1.76942e-15
4.3715e-16
1.04777e-15
-2.28983e-16
-4.996e-16
3.35842e-15
1.2837e-15
-5.41234e-16
-3.30985e-15
1.55431e-15
1.98452e-15
-9.78384e-16
1.88738e-15
2.10942e-15
-1.30451e-15
-4.29518e-15
-3.35149e-15
-4.92661e-16
-1.8735e-16
-2.98372e-16
-4.70457e-15
-2.19269e-15
7.70217e-16
-3.46251e-15
-3.43475e-15
-2.76862e-15
-3.14332e-15
-1.23512e-15
-2.98372e-16
4.71845e-16
-7.56339e-16
-1.64452e-15
-1.47105e-15
2.23432e-15
8.20177e-15
9.57567e-16
4.44089e-16
2.32453e-15
-1.08941e-15
1.38778e-17
-2.498e-15
5.0307e-15
1.20043e-15
3.03924e-15
9.02056e-17
1.70003e-15
1.4086e-15
-3.13638e-15
-2.5327e-15
5.73153e-15
5.96745e-16
-2.61596e-15
-2.27596e-15
-2.1233e-15
-2.17881e-15
-1.31839e-16
-4.51028e-16
4.1564e-15
4.07313e-15
1.85268e-15
2.30371e-15
-1.47105e-15
-1.76248e-15
-1.95677e-15
-1.15186e-15
-3.86496e-15
1.32533e-15
-2.33841e-15
2.38698e-15
-6.66134e-16
-1.02002e-15
1.72085e-15
-5.06539e-15
7.14706e-16
2.42861e-16
1.13104e-15
1.54043e-15
-1.48492e-15
1.43635e-15
-1.7833e-15
6.93889e-18
-5.82867e-16
5.42622e-15
6.6544e-15
5.19029e-15
1.33921e-15
5.43315e-15
1.17961e-15
4.14252e-15
-3.67761e-16
4.69069e-15
-1.18655e-15
2.10942e-15
-3.55271e-15
-7.11931e-15
-1.73472e-15
2.47025e-15
-5.53724e-15
-4.30211e-16
-6.245e-16
1.41553e-15
-7.61891e-15
-3.48332e-15
-3.31679e-15
-9.4369e-16
1.249e-16
-2.06779e-15
2.52576e-15
2.20657e-15
-5.68989e-15
-2.3731e-15
7.63278e-16
5.30131e-15
1.47105e-15
6.93889e-16
1.72085e-15
-2.01228e-15
-4.89886e-15
-1.26288e-15
-1.45717e-15
3.05311e-15
3.01148e-15
4.7462e-15
-1.66533e-15
5.96745e-16
-7.77156e-16
-2.31759e-15
1.38778e-16
1.54043e-15
-2.91434e-16
-2.48412e-15
2.7478e-15
1.77636e-15
-3.69149e-15
-7.49401e-16
-6.80012e-16
9.02056e-16
-2.96985e-15
-2.88658e-15
-3.46945e-15
-2.77556e-17
-1.76248e-15
-9.72833e-15
-4.20497e-15
8.04912e-16
-9.57567e-16
0
-2.04003e-15
-3.08087e-15
1.95677e-15
-4.88498e-15
-1.38778e-17
-2.88658e-15
-1.97065e-15
3.28904e-15
7.35523e-16
4.996e-16
1.66533e-16
-4.16334e-17
-1.02696e-15
3.48332e-15
6.50868e-15
4.70457e-15
1.40166e-15
2.77556e-16
8.74301e-16
1.60982e-15
-7.91034e-16
-3.67761e-15
2.22045e-15
1.63758e-15
-5.60663e-15
-4.56579e-15
-1.79023e-15
3.15026e-15
-2.30371e-15
-1.22125e-15
3.16414e-15
-2.01228e-15
1.6237e-15
-5.4956e-15
-2.3731e-15
-5.45397e-15
3.66374e-15
2.88658e-15
-1.45717e-15
1.95677e-15
-1.55431e-15
-1.90126e-15
-1.52656e-15
2.96985e-15
1.02696e-15
1.16573e-15
3.21965e-15
1.33227e-15
1.66533e-16
1.20737e-15
4.98213e-15
3.55271e-15
3.01148e-15
-6.245e-16
4.44089e-16
2.7478e-15
9.02056e-16
-4.31599e-15
1.91513e-15
-4.51028e-15
-4.16334e-16
1.83187e-15
-1.60982e-15
6.66134e-16
7.21645e-16
2.16493e-15
3.3723e-15
4.02456e-16
2.92821e-15
-6.67522e-15
8.88178e-16
3.02536e-15
7.49401e-16
-5.38458e-15
1.94289e-16
2.6229e-15
1.38778e-17
-2.55351e-15
1.60982e-15
6.10623e-16
2.28983e-15
1.47105e-15
7.21645e-16
-1.38778e-15
3.17801e-15
3.46945e-16
1.249e-16
3.19189e-16
7.91034e-16
2.83107e-15
-4.02456e-16
1.01308e-15
-4.53804e-15
6.245e-16
-3.48332e-15
6.38378e-15
-1.7486e-15
-4.02456e-16
2.498e-16
-5.6205e-15
8.04912e-16
1.01308e-15
1.76248e-15
2.30371e-15
-6.17562e-15
-4.69069e-15
-3.63598e-15
-1.16573e-15
-6.245e-16
1.80411e-16
1.52656e-16
-8.40994e-15
1.94289e-16
-2.3731e-15
-7.91034e-16
9.85323e-16
1.44329e-15
9.71445e-17
-1.34615e-15
5.19029e-15
2.83107e-15
4.85723e-16
-4.01068e-15
-3.60822e-15
4.60743e-15
-2.58127e-15
4.02456e-16
2.77556e-17
2.05391e-15
5.23193e-15
-2.45637e-15
-3.71925e-15
-2.91434e-16
-1.54043e-15
4.85723e-16
-7.77156e-16
4.02456e-16
6.245e-16
6.66134e-16
-2.78944e-15
5.41234e-16
-3.80251e-15
8.46545e-16
4.44089e-16
-1.36002e-15
-1.92901e-15
1.66533e-16
-2.60902e-15
-1.36002e-15
-2.17881e-15
-1.8735e-15
-2.77556e-16
2.2482e-15
-1.04083e-15
3.42781e-15
-5.31519e-15
2.91434e-15
1.38778e-17
3.17801e-15
2.56739e-15
-2.91434e-16
7.91034e-16
6.80012e-16
-1.11022e-16
5.67602e-15
-2.77556e-17
6.27276e-15
1.1241e-15
-5.27356e-16
-4.02456e-16
-1.52656e-15
3.46945e-15
2.17881e-15
5.55112e-16
3.34455e-15
-3.26128e-15
1.67921e-15
2.45637e-15
-9.57567e-16
-2.20657e-15
-2.83107e-15
-2.17881e-15
5.03764e-15
1.8735e-15
-2.38698e-15
4.80171e-15
-4.01068e-15
2.35922e-16
-3.83027e-15
-3.98293e-15
1.59595e-15
2.31759e-15
9.71445e-16
-6.52256e-16
-1.90126e-15
1.60982e-15
-3.16414e-15
-1.7486e-15
-2.44249e-15
-1.13798e-15
1.60982e-15
1.84575e-15
-8.74301e-16
-3.08087e-15
-3.3723e-15
3.64986e-15
3.747e-15
1.19349e-15
3.56659e-15
3.8719e-15
3.71925e-15
6.67522e-15
1.08247e-15
1.85962e-15
-1.80411e-16
5.77316e-15
3.747e-16
-2.94209e-15
-1.34615e-15
4.02456e-16
9.71445e-17
7.07767e-16
1.05471e-15
-3.88578e-16
1.38778e-15
9.71445e-16
-5.7454e-15
-1.33227e-15
-8.60423e-16
-1.38778e-15
8.18789e-16
5.41234e-16
-3.48332e-15
-6.93889e-17
-2.63678e-15
3.05311e-16
-4.14946e-15
-7.35523e-16
-1.48492e-15
-2.2482e-15
3.58047e-15
7.21645e-16
-5.8703e-15
-9.29812e-16
2.10942e-15
-9.40914e-15
6.10623e-15
-2.66454e-15
1.4988e-15
4.41314e-15
4.52416e-15
-3.60822e-16
2.498e-16
-1.08247e-15
2.02616e-15
1.66533e-15
2.30371e-15
7.49401e-16
3.16414e-15
1.27676e-15
-3.27516e-15
-1.27676e-15
1.60982e-15
9.24261e-15
1.41553e-15
-3.13638e-15
-3.33067e-15
-5.16254e-15
-9.71445e-16
-4.88498e-15
-9.4369e-16
-6.99441e-15
-3.02536e-15
-3.33067e-16
-2.498e-15
0
-2.44249e-15
3.58047e-15
-1.85962e-15
1.91513e-15
-3.16414e-15
2.55351e-15
5.82867e-16
-5.68989e-15
-4.44089e-16
-3.44169e-15
9.99201e-16
-4.16334e-16
4.63518e-15
9.99201e-16
1.60982e-15
2.13718e-15
3.27516e-15
-3.05311e-16
1.60982e-15
-2.9976e-15
2.85882e-15
3.35842e-15
-3.33067e-16
5.02376e-15
-5.02376e-15
-1.52656e-15
4.4964e-15
-9.99201e-16
-2.22045e-15
6.93889e-15
-2.38698e-15
-1.94289e-15
-1.44329e-15
-2.19269e-15
-1.55431e-15
-5.52336e-15
-3.96905e-15
3.60822e-15
6.10623e-16
-2.47025e-15
3.02536e-15
3.83027e-15
-2.498e-15
1.88738e-15
-4.05231e-15
9.02056e-15
-1.9984e-15
-7.02216e-15
3.05311e-15
2.2482e-15
-1.38778e-16
5.68989e-15
-1.38778e-15
3.85803e-15
1.94289e-15
5.60663e-15
-2.77556e-16
5.38458e-15
3.96905e-15
1.72085e-15
2.7478e-15
-4.30211e-15
-1.249e-15
-6.38378e-15
1.16573e-15
1.66533e-16
-3.88578e-16
5.46785e-15
6.93889e-16
-5.55112e-16
6.38378e-16
-4.44089e-16
-3.27516e-15
-4.7462e-15
-2.19269e-15
-6.02296e-15
-2.47025e-15
-5.55112e-16
2.08167e-15
4.69069e-15
7.21645e-16
2.05391e-15
1.38778e-15
-4.71845e-15
6.57807e-15
3.08087e-15
-3.44169e-15
1.77636e-15
5.55112e-15
-5.71765e-15
-1.52656e-15
1.47105e-15
4.63518e-15
-4.27436e-15
-2.30371e-15
1.58207e-15
4.7462e-15
9.15934e-16
-4.63518e-15
3.10862e-15
-5.85643e-15
-2.47025e-15
-2.22045e-15
8.32667e-16
7.54952e-15
-1.11577e-14
4.57967e-15
2.88658e-15
4.94049e-15
-5.38458e-15
5.55112e-15
-9.15934e-16
-6.10623e-16
-6.07847e-15
-4.35763e-15
-3.60822e-15
4.32987e-15
-5.27356e-15
-6.07847e-15
-2.47025e-15
-3.88578e-16
3.4972e-15
3.2474e-15
7.68829e-15
1.77636e-15
8.32667e-17
2.08167e-15
1.11022e-16
-4.16334e-15
-1.55431e-15
-1.44329e-15
6.7446e-15
-6.66134e-16
2.19269e-15
1.11022e-16
-1.94289e-16
2.72005e-15
-1.7486e-15
-2.66454e-15
-6.41154e-15
3.44169e-15
-5.68989e-15
-6.85563e-15
1.38778e-16
-6.245e-15
-3.16414e-15
-1.80411e-15
-3.85803e-15
-7.32747e-15
5.19029e-15
1.77636e-15
-5.82867e-16
-4.21885e-15
2.96985e-15
1.30451e-15
2.72005e-15
-3.38618e-15
1.19349e-15
3.52496e-15
-1.27676e-15
-1.63758e-15
3.30291e-15
2.66454e-15
2.83107e-15
-3.05311e-15
3.69149e-15
-4.46865e-15
-2.77556e-15
-5.46785e-15
4.66294e-15
-1.1019e-14
2.16493e-15
0
1.9984e-15
2.77556e-17
2.77556e-15
-1.19349e-15
1.05471e-15
6.38378e-15
2.38698e-15
-1.38778e-15
3.21965e-15
-4.94049e-15
-4.85723e-15
-6.66134e-16
1.66533e-16
-2.55351e-15
-4.66294e-15
2.27596e-15
3.96905e-15
3.60822e-15
-4.32987e-15
-9.15934e-16
2.85882e-15
-1.27676e-15
8.04912e-16
-7.49401e-16
3.747e-15
4.71845e-16
1.60982e-15
-6.32827e-15
1.41553e-15
7.18869e-15
5.80092e-15
4.96825e-15
1.88738e-15
-2.63678e-15
-1.08247e-15
4.85723e-15
-1.47105e-15
1.38778e-16
-4.27436e-15
2.83107e-15
2.22045e-16
-2.41474e-15
-3.2474e-15
-1.16573e-15
-5.16254e-15
-7.77156e-16
3.60822e-16
6.85563e-15
-3.88578e-16
-3.27516e-15
-7.18869e-15
-3.33067e-16
1.58207e-15
-4.91274e-15
2.41474e-15
3.4972e-15
-2.27596e-15
1.31006e-14
-2.44249e-15
-7.21645e-16
4.2466e-15
1.88738e-15
-2.05391e-15
-4.57967e-15
2.19269e-15
-8.24341e-15
8.60423e-16
3.33067e-15
-3.21965e-15
6.93889e-16
2.22045e-15
1.36002e-15
-1.11022e-16
2.80331e-15
7.13318e-15
4.88498e-15
-6.18949e-15
-1.88738e-15
2.47025e-15
3.83027e-15
-3.33067e-15
1.85962e-15
-1.19349e-15
-2.72005e-15
-4.08007e-15
-1.08247e-15
8.32667e-16
6.10623e-16
6.93889e-16
2.83107e-15
-8.71525e-15
-2.55351e-15
-2.66454e-15
6.66134e-15
3.10862e-15
-3.33067e-15
-4.13558e-15
-5.27356e-16
6.07847e-15
6.16174e-15
-1.38778e-16
-8.32667e-17
2.13718e-15
4.02456e-15
3.30291e-15
2.2482e-15
-3.46945e-15
-5.63438e-15
-1.33227e-15
1.33227e-15
1.02696e-15
-1.69309e-15
-6.85563e-15
1.1019e-14
1.66533e-16
-2.52576e-15
-2.2482e-15
-8.43769e-15
-1.36002e-15
-4.71845e-15
-6.38378e-15
-3.85803e-15
-6.93889e-16
1.03251e-14
4.44089e-16
3.80251e-15
-3.30291e-15
1.38778e-16
-1.60982e-15
-1.44329e-15
3.77476e-15
-1.41553e-15
-4.71845e-16
3.2474e-15
1.83187e-15
-7.52176e-15
2.77556e-15
4.996e-16
-2.88658e-15
-1.91513e-15
5.2458e-15
-3.2474e-15
8.04912e-16
2.47025e-15
4.44089e-15
1.77636e-15
1.66533e-16
2.58127e-15
3.30291e-15
-5.77316e-15
4.02456e-15
1.80411e-15
2.44249e-15
-5.63438e-15
-2.16493e-15
5.10703e-15
2.498e-16
-9.99201e-16
-2.72005e-15
-7.24421e-15
-2.96985e-15
-1.38778e-15
-7.35523e-15
-4.96825e-15
-1.16573e-15
-2.55351e-15
3.63598e-15
5.82867e-15
6.4948e-15
-6.38378e-16
1.27676e-15
-2.77556e-16
5.41234e-15
-9.24261e-15
-2.77556e-15
5.19029e-15
3.46945e-15
1.33227e-15
1.60982e-15
3.4972e-15
1.77636e-15
5.38458e-15
-2.69229e-15
-9.90874e-15
1.85962e-15
-2.10942e-15
4.46865e-15
2.33147e-15
3.63598e-15
1.72085e-15
-5.16254e-15
-3.747e-15
3.33067e-16
2.58127e-15
-2.05391e-15
-1.38778e-16
-1.9984e-15
-1.41553e-15
2.30371e-15
-2.83107e-15
-2.498e-16
3.66374e-15
8.04912e-16
1.94289e-16
-2.33147e-15
1.66533e-15
3.9968e-15
2.77556e-17
-3.85803e-15
4.19109e-15
-2.83107e-15
-1.58207e-15
2.63678e-15
2.16493e-15
-3.35842e-15
-3.2474e-15
-8.04912e-16
5.02376e-15
-5.35683e-15
2.16493e-15
4.32987e-15
2.16493e-15
4.02456e-15
2.16493e-15
1.47105e-15
5.55112e-16
3.60822e-16
-1.80411e-15
-8.63198e-15
-1.7486e-15
0
-1.16573e-15
-3.94129e-15
2.16493e-15
1.60982e-15
-1.97065e-15
-5.96745e-15
3.9968e-15
-7.49401e-16
5.27356e-16
1.33227e-15
-1.58207e-15
1.63758e-15
7.41074e-15
-3.33067e-15
6.66134e-16
-5.7454e-15
-1.07137e-14
-7.38298e-15
1.38778e-16
4.19109e-15
4.996e-15
-7.21645e-16
-8.79852e-15
-2.91434e-15
4.46865e-15
6.93889e-15
2.33147e-15
3.46945e-15
9.04832e-15
-9.99201e-16
-3.05311e-15
1.97065e-15
1.66533e-16
-1.30451e-15
-2.47025e-15
-3.02536e-15
-2.19269e-15
0
-2.35922e-15
-1.11022e-15
-1.30451e-15
-6.4948e-15
3.16414e-15
2.66454e-15
2.22045e-16
1.63758e-15
-5.02376e-15
3.19189e-15
1.91513e-15
-3.80251e-15
-3.52496e-15
1.58207e-15
-6.93889e-16
-1.11022e-16
3.60822e-15
-1.55431e-15
-2.85882e-15
3.33067e-15
3.52496e-15
4.44089e-16
9.71445e-16
-7.21645e-16
-7.21645e-16
-2.58127e-15
-3.05311e-16
4.44089e-15
-4.2466e-15
3.88578e-16
-1.4988e-15
-3.41394e-15
3.60822e-16
-7.49401e-16
-1.91513e-15
3.4972e-15
-1.83187e-15
6.05072e-15
7.32747e-15
1.94289e-15
-7.21645e-16
-6.13398e-15
-3.33067e-16
4.02456e-15
1.11022e-15
-1.97065e-15
-4.2466e-15
-5.80092e-15
-6.66134e-16
-3.91354e-15
-7.10543e-15
-1.19349e-15
1.7486e-15
-4.4964e-15
2.27596e-15
5.07927e-15
5.55112e-16
-6.66134e-16
1.52656e-15
1.80411e-15
-7.49401e-16
8.88178e-16
3.30291e-15
2.80331e-15
-1.97065e-15
1.16573e-15
6.66134e-16
-1.11022e-15
2.41474e-15
1.38778e-16
-2.69229e-15
5.55112e-15
3.33067e-15
-1.91513e-15
-6.82787e-15
-2.05391e-15
-2.19269e-15
-4.44089e-16
4.77396e-15
4.19109e-15
2.22045e-16
-1.80411e-15
1.08247e-15
1.72085e-15
-1.19349e-15
3.94129e-15
1.33227e-15
-6.38378e-16
-2.498e-16
-2.77556e-16
-2.38698e-15
-1.69309e-15
-1.11022e-15
-8.32667e-16
1.02696e-15
-1.60982e-15
2.19269e-15
-6.38378e-16
-3.38618e-15
3.08087e-15
5.9952e-15
7.77156e-16
-1.44329e-15
-5.27356e-15
3.27516e-15
4.46865e-15
3.91354e-15
1.80411e-15
-1.11022e-16
-3.85803e-15
-1.41553e-15
4.80171e-15
-3.88578e-15
4.71845e-16
-3.02536e-15
-4.7462e-15
2.77556e-16
7.49401e-16
-4.96825e-15
1.94289e-15
1.38778e-15
-2.44249e-15
-2.55351e-15
1.85962e-15
1.72085e-15
-1.41553e-15
-2.13718e-15
-5.55112e-17
-1.52656e-15
-1.33227e-15
5.63438e-15
-4.35763e-15
2.498e-15
-3.19189e-15
6.05072e-15
4.71845e-16
2.80331e-15
1.27676e-15
-1.30451e-15
-1.08247e-15
1.58207e-15
1.9984e-15
-2.35922e-15
1.66533e-16
-1.60982e-15
-1.77636e-15
-7.21645e-16
9.71445e-16
4.57967e-15
1.33227e-15
3.08087e-15
3.747e-15
2.88658e-15
1.69309e-15
2.52576e-15
6.66134e-16
8.32667e-16
2.55351e-15
2.58127e-15
-2.83107e-15
-6.93889e-15
2.33147e-15
-1.27676e-15
-1.44329e-15
-1.58207e-15
-5.10703e-15
-6.60583e-15
-2.72005e-15
-2.66454e-15
4.02456e-15
2.83107e-15
-3.71925e-15
4.16334e-15
4.60743e-15
2.13718e-15
4.46865e-15
-1.83187e-15
-5.55112e-16
6.68909e-15
-5.52336e-15
-9.15934e-16
-2.47025e-15
2.498e-16
-1.44329e-15
-1.11022e-16
1.38778e-16
2.05391e-15
2.77556e-16
2.58127e-15
-9.99201e-16
-2.44249e-15
-3.60822e-16
-5.07927e-15
-1.63758e-15
-2.2482e-15
2.22045e-16
-5.27356e-16
2.33147e-15
1.9984e-15
-2.498e-16
-2.77556e-17
-3.71925e-15
-9.71445e-16
-2.83107e-15
4.38538e-15
-4.41314e-15
-4.60743e-15
-1.66533e-15
-2.47025e-15
-5.02376e-15
-2.33147e-15
1.7486e-15
-6.46705e-15
-1.94289e-15
-2.27596e-15
1.11022e-15
-8.60423e-16
-6.82787e-15
-2.35922e-15
-1.66533e-16
1.08247e-15
-1.33227e-15
8.88178e-16
1.94289e-15
-1.41553e-15
3.16414e-15
3.85803e-15
4.41314e-15
1.94289e-15
2.22045e-16
5.82867e-16
1.22125e-15
1.47105e-15
1.88738e-15
6.66134e-16
-6.10623e-16
-1.13798e-15
-7.21645e-16
-2.63678e-15
5.07927e-15
-1.66533e-16
1.52656e-15
0
2.38698e-15
3.52496e-15
1.72085e-15
-2.05391e-15
4.996e-16
3.05311e-15
-9.99201e-16
0
-1.44329e-15
1.33227e-15
3.9968e-15
4.996e-16
-6.66134e-16
-5.55112e-16
-6.88338e-15
-2.10942e-15
-8.32667e-16
9.99201e-16
5.93969e-15
1.72085e-15
4.71845e-15
-7.88258e-15
3.66374e-15
4.77396e-15
6.60583e-15
9.99201e-16
-2.27596e-15
1.33227e-15
9.4369e-16
6.60583e-15
3.33067e-15
1.72085e-15
1.83187e-15
8.32667e-16
4.66294e-15
5.55112e-16
4.44089e-16
6.10623e-16
-1.11022e-16
-3.16414e-15
-2.27596e-15
2.83107e-15
-2.77556e-15
-1.27676e-15
1.38778e-15
2.33147e-15
-7.21645e-16
-2.22045e-16
-1.4988e-15
-2.498e-15
-3.55271e-15
-2.77556e-16
1.11022e-15
4.4964e-15
-7.77156e-16
-1.05471e-15
-1.44329e-15
-6.10623e-16
2.22045e-15
1.05471e-15
-1.83187e-15
-3.38618e-15
4.996e-16
8.88178e-16
0
3.88578e-16
2.77556e-15
-2.88658e-15
4.44089e-16
-1.77636e-15
-5.10703e-15
7.77156e-16
9.99201e-16
3.10862e-15
1.72085e-15
1.11022e-15
2.33147e-15
-1.66533e-15
0
-2.16493e-15
-2.44249e-15
5.4956e-15
-2.05391e-15
-2.33147e-15
-5.10703e-15
-2.60902e-15
5.32907e-15
-1.72085e-15
-2.22045e-15
-2.66454e-15
-2.33147e-15
-1.05471e-15
2.77556e-16
-1.05471e-15
-1.16573e-15
-3.88578e-15
7.21645e-16
-1.77636e-15
1.16573e-15
6.43929e-15
-2.38698e-15
-2.33147e-15
4.4964e-15
2.77556e-16
-5.32907e-15
-6.4948e-15
3.77476e-15
-4.05231e-15
4.66294e-15
1.94289e-15
-1.11022e-16
7.77156e-16
-2.22045e-16
-2.33147e-15
3.21965e-15
7.77156e-16
-1.38778e-15
-6.66134e-16
-2.27596e-15
2.498e-15
-2.27596e-15
-4.44089e-15
-4.27436e-15
-2.83107e-15
2.77556e-15
-6.10623e-16
1.38778e-15
4.44089e-15
2.77556e-15
7.21645e-15
4.38538e-15
-6.66134e-16
-6.66134e-16
-3.33067e-15
2.33147e-15
7.77156e-16
-1.66533e-15
4.4964e-15
-3.16414e-15
-3.33067e-16
-1.66533e-16
-4.996e-16
1.44329e-15
1.38778e-15
3.4972e-15
5.55112e-17
-1.27676e-15
-1.05471e-15
2.88658e-15
-3.05311e-15
1.66533e-16
-3.60822e-15
-4.4964e-15
8.32667e-16
1.38778e-15
5.21805e-15
-4.44089e-16
1.77636e-15
4.05231e-15
-4.16334e-15
9.4369e-16
-1.66533e-16
-3.21965e-15
2.27596e-15
7.88258e-15
8.43769e-15
-2.77556e-15
2.83107e-15
-4.71845e-15
-5.55112e-17
3.10862e-15
-9.99201e-16
8.32667e-16
1.44329e-15
-2.77556e-16
-8.32667e-16
-7.21645e-16
-2.44249e-15
2.38698e-15
-1.4988e-15
1.9984e-15
7.93809e-15
4.32987e-15
2.05391e-15
-1.38778e-15
-4.44089e-16
-3.94129e-15
-1.27676e-15
1.33227e-15
-4.4964e-15
6.66134e-16
-1.16573e-15
-4.996e-16
-1.33227e-15
-4.77396e-15
-3.33067e-15
7.77156e-16
-5.93969e-15
3.21965e-15
-2.27596e-15
-2.16493e-15
-5.55112e-16
3.94129e-15
7.77156e-16
-3.66374e-15
1.94289e-15
-4.10783e-15
1.4988e-15
-4.82947e-15
1.77636e-15
2.22045e-16
1.77636e-15
4.16334e-15
4.996e-16
-4.16334e-15
-2.9976e-15
-5.55112e-16
4.996e-16
-3.88578e-15
9.4369e-16
-1.22125e-15
2.27596e-15
7.21645e-16
-1.66533e-15
-4.16334e-15
-4.77396e-15
1.55431e-15
-1.66533e-16
1.4988e-15
9.99201e-16
-2.498e-15
2.9976e-15
-2.72005e-15
2.05391e-15
-2.22045e-16
-2.05391e-15
2.83107e-15
3.9968e-15
-1.38778e-15
1.66533e-16
-1.66533e-16
-5.93969e-15
7.21645e-16
-5.55112e-17
1.22125e-15
-3.16414e-15
1.33227e-15
-6.10623e-16
-4.77396e-15
-1.22125e-15
-9.4369e-16
1.60982e-15
3.27516e-15
2.05391e-15
5.60663e-15
3.05311e-15
1.66533e-16
4.10783e-15
-3.44169e-15
1.77636e-15
2.05391e-15
9.99201e-16
-6.4948e-15
-7.77156e-16
2.55351e-15
-4.88498e-15
4.60743e-15
6.10623e-16
2.83107e-15
-2.22045e-16
-5.55112e-17
2.16493e-15
-3.33067e-16
-1.44329e-15
2.498e-15
3.10862e-15
3.55271e-15
-2.22045e-15
8.32667e-16
-1.16573e-15
-5.55112e-16
-4.44089e-15
-7.21645e-16
-2.22045e-16
6.10623e-16
4.996e-16
1.77636e-15
-8.32667e-16
1.27676e-15
2.22045e-16
-2.83107e-15
-4.32987e-15
3.38618e-15
-3.71925e-15
-2.05391e-15
-5.55112e-17
-2.60902e-15
-2.22045e-15
-1.27676e-15
-1.66533e-15
-6.10623e-16
1.72085e-15
3.33067e-16
-4.16334e-15
-3.88578e-15
1.94289e-15
7.77156e-16
-3.77476e-15
1.16573e-15
1.22125e-15
3.38618e-15
4.44089e-16
-3.71925e-15
2.27596e-15
-1.01585e-14
1.4988e-15
8.32667e-16
3.16414e-15
1.77636e-15
2.22045e-15
-3.60822e-15
2.77556e-15
3.21965e-15
7.21645e-16
-2.22045e-15
3.94129e-15
-2.16493e-15
-6.10623e-16
-9.4369e-16
-4.21885e-15
1.16573e-15
-3.4972e-15
-2.498e-15
2.94209e-15
8.88178e-16
1.33227e-15
-3.4972e-15
4.16334e-15
-2.33147e-15
-1.16573e-15
1.27676e-15
3.66374e-15
2.38698e-15
1.11022e-16
-1.77636e-15
2.44249e-15
-1.05471e-15
3.83027e-15
4.996e-16
-1.38778e-15
4.21885e-15
2.22045e-16
-3.38618e-15
1.05471e-15
-3.21965e-15
3.33067e-16
3.77476e-15
1.33227e-15
1.27676e-15
3.21965e-15
-2.44249e-15
1.66533e-16
-2.38698e-15
5.77316e-15
5.32907e-15
2.22045e-16
7.77156e-16
3.38618e-15
1.83187e-15
5.55112e-17
-2.94209e-15
-3.21965e-15
4.32987e-15
-3.9968e-15
7.82707e-15
-1.22125e-15
-4.10783e-15
-5.38458e-15
6.10623e-16
1.4988e-15
3.60822e-15
-2.83107e-15
6.66134e-16
-1.9984e-15
-4.996e-16
-1.38778e-15
-1.72085e-15
-1.16573e-15
2.77556e-16
1.83187e-15
-4.996e-16
5.71765e-15
-1.66533e-16
-4.44089e-16
-5.4956e-15
-1.16573e-15
-2.16493e-15
-3.33067e-16
1.05471e-15
5.10703e-15
1.60982e-15
-2.9976e-15
-2.22045e-16
-1.16573e-15
2.94209e-15
-6.43929e-15
-1.27676e-15
-4.38538e-15
2.27596e-15
4.996e-16
-2.9976e-15
1.60982e-15
1.77636e-15
8.32667e-16
2.27596e-15
-4.55191e-15
-1.60982e-15
-5.55112e-16
1.05471e-15
-4.77396e-15
1.94289e-15
-3.60822e-15
2.22045e-16
-3.05311e-15
-4.05231e-15
-1.11022e-15
-2.27596e-15
-3.05311e-15
1.4988e-15
2.498e-15
1.88738e-15
1.83187e-15
-2.05391e-15
-6.66134e-16
-5.16254e-15
0
3.88578e-16
6.60583e-15
-4.21885e-15
-4.27436e-15
-5.4956e-15
-2.22045e-16
3.88578e-16
-1.16573e-15
7.49401e-15
-1.22125e-15
5.4956e-15
8.32667e-16
-5.55112e-17
-2.22045e-16
1.66533e-15
-2.22045e-15
-8.88178e-16
-3.33067e-16
3.38618e-15
-2.77556e-16
3.16414e-15
-9.4369e-16
-4.996e-15
-2.66454e-15
3.33067e-16
-1.16573e-15
-4.10783e-15
-2.27596e-15
-1.72085e-15
3.33067e-16
-2.77556e-15
5.44009e-15
-2.60902e-15
2.77556e-16
7.77156e-16
-1.33227e-15
-1.66533e-15
2.10942e-15
1.16573e-15
1.9984e-15
1.66533e-16
4.44089e-15
3.77476e-15
6.21725e-15
-1.66533e-15
2.77556e-15
-1.55431e-15
1.4988e-15
1.60982e-15
6.10623e-16
-5.55112e-16
3.71925e-15
-1.66533e-15
-2.94209e-15
-4.996e-16
-3.21965e-15
-2.88658e-15
3.10862e-15
4.44089e-16
-9.4369e-16
-1.72085e-15
-4.27436e-15
1.77636e-15
3.33067e-15
3.33067e-16
-5.55112e-16
4.44089e-16
4.32987e-15
-6.55032e-15
2.27596e-15
-3.33067e-15
4.55191e-15
1.4988e-15
-1.27676e-15
6.66134e-16
3.88578e-16
-9.4369e-16
1.11022e-16
-2.44249e-15
-3.60822e-15
-3.4972e-15
-7.77156e-16
4.82947e-15
6.10623e-16
-2.05391e-15
9.99201e-16
2.22045e-15
2.498e-15
2.05391e-15
3.16414e-15
1.60982e-15
-4.21885e-15
1.05471e-15
3.44169e-15
4.996e-16
-6.10623e-16
3.4972e-15
-1.27676e-15
-3.21965e-15
2.38698e-15
-9.4369e-16
-3.88578e-16
-3.88578e-15
-4.66294e-15
4.32987e-15
-4.88498e-15
3.4972e-15
-2.88658e-15
-1.27676e-15
2.9976e-15
1.83187e-15
-3.88578e-15
2.10942e-15
2.38698e-15
1.72085e-15
1.77636e-15
2.27596e-15
-2.05391e-15
4.996e-16
3.88578e-16
-6.10623e-16
2.22045e-15
-1.60982e-15
-4.44089e-16
5.16254e-15
5.55112e-16
9.99201e-16
-6.16174e-15
2.05391e-15
-3.66374e-15
-1.9984e-15
-3.88578e-15
-4.10783e-15
5.55112e-16
-1.55431e-15
3.33067e-16
-1.88738e-15
1.83187e-15
3.21965e-15
3.9968e-15
1.60982e-15
1.11022e-16
-1.66533e-16
2.22045e-16
2.60902e-15
-3.16414e-15
-3.16414e-15
2.44249e-15
-2.94209e-15
-4.05231e-15
8.88178e-16
-6.66134e-16
-8.32667e-16
-3.4972e-15
7.77156e-16
3.71925e-15
-1.83187e-15
2.22045e-16
-3.21965e-15
-3.44169e-15
-3.33067e-16
-1.66533e-16
9.99201e-16
2.77556e-15
-3.21965e-15
1.55431e-15
-4.16334e-15
-1.33227e-15
-1.77636e-15
1.22125e-15
-1.44329e-15
3.55271e-15
-1.11022e-15
0
-1.72085e-15
1.55431e-15
-2.16493e-15
-1.55431e-15
2.60902e-15
1.66533e-16
8.32667e-16
-4.4964e-15
1.22125e-15
-1.72085e-15
-4.77396e-15
-3.33067e-16
-6.66134e-16
2.498e-15
5.55112e-16
8.88178e-16
-2.77556e-16
-1.22125e-15
6.10623e-16
-3.94129e-15
2.38698e-15
2.16493e-15
1.66533e-15
-5.16254e-15
-1.72085e-15
-9.99201e-16
-6.10623e-16
5.27356e-15
1.05471e-15
-2.33147e-15
4.996e-16
4.94049e-15
7.77156e-16
-4.05231e-15
4.94049e-15
4.77396e-15
8.88178e-16
4.32987e-15
-1.16573e-15
4.05231e-15
-1.44329e-15
-2.498e-15
-5.55112e-17
2.44249e-15
2.83107e-15
2.72005e-15
-8.88178e-16
2.05391e-15
8.32667e-16
1.11022e-16
1.77636e-15
-1.94289e-15
2.60902e-15
3.60822e-15
-5.55112e-16
-1.66533e-15
2.22045e-16
-5.55112e-16
7.21645e-16
-8.88178e-16
-3.21965e-15
-7.77156e-16
2.83107e-15
1.4988e-15
-3.88578e-15
-5.82867e-15
1.83187e-15
6.10623e-16
-9.4369e-16
3.4972e-15
2.72005e-15
-4.996e-16
1.11022e-16
2.55351e-15
-6.66134e-16
1.11022e-15
2.60902e-15
-2.44249e-15
-3.33067e-16
4.44089e-16
1.4988e-15
-1.88738e-15
0
7.77156e-16
-6.66134e-16
3.38618e-15
2.44249e-15
-6.43929e-15
-3.05311e-15
2.88658e-15
1.27676e-15
-4.27436e-15
2.72005e-15
3.66374e-15
-3.60822e-15
-1.88738e-15
-4.05231e-15
-4.44089e-16
-6.66134e-16
1.33227e-15
2.77556e-15
2.77556e-15
0
-1.11022e-15
-1.66533e-16
-2.33147e-15
2.05391e-15
-2.77556e-15
1.11022e-15
-6.10623e-16
-1.83187e-15
4.44089e-16
-1.33227e-15
-4.94049e-15
1.11022e-16
-1.66533e-15
1.44329e-15
-1.22125e-15
-4.66294e-15
-3.33067e-15
1.88738e-15
1.77636e-15
2.22045e-16
4.44089e-16
2.33147e-15
3.66374e-15
-2.44249e-15
3.33067e-16
2.10942e-15
-5.55112e-16
4.44089e-16
-2.22045e-16
-4.10783e-15
-1.11022e-15
5.55112e-16
-1.11022e-16
-2.44249e-15
1.11022e-15
-9.99201e-16
1.66533e-15
-2.9976e-15
-9.99201e-16
-1.88738e-15
-2.33147e-15
4.10783e-15
-4.44089e-15
-1.66533e-15
-2.22045e-16
-2.22045e-16
4.44089e-16
-5.44009e-15
-2.77556e-15
-2.77556e-15
-2.22045e-15
-9.99201e-16
-1.11022e-15
3.55271e-15
-3.33067e-16
5.55112e-16
-1.11022e-16
-2.22045e-16
-1.11022e-16
-4.66294e-15
-2.88658e-15
-2.10942e-15
-1.11022e-16
-1.33227e-15
1.11022e-16
-4.44089e-16
-1.88738e-15
-2.10942e-15
-1.88738e-15
1.9984e-15
3.44169e-15
3.88578e-15
2.10942e-15
5.55112e-16
1.88738e-15
3.33067e-15
1.88738e-15
-6.66134e-16
-3.44169e-15
1.88738e-15
-1.66533e-15
4.44089e-16
-3.10862e-15
0
-1.44329e-15
-5.55112e-16
-7.77156e-16
-4.66294e-15
-1.55431e-15
4.55191e-15
-3.77476e-15
-1.22125e-15
-3.33067e-16
-6.66134e-16
0
-1.66533e-15
1.55431e-15
8.88178e-16
-2.10942e-15
3.66374e-15
4.88498e-15
-2.44249e-15
1.33227e-15
1.11022e-15
-1.11022e-16
1.11022e-15
9.99201e-16
4.77396e-15
5.21805e-15
-7.77156e-16
-9.99201e-16
3.66374e-15
4.996e-15
-2.22045e-15
-1.44329e-15
-1.11022e-16
1.33227e-15
-1.44329e-15
-2.10942e-15
3.10862e-15
5.66214e-15
3.88578e-15
5.55112e-16
1.33227e-15
-1.11022e-15
1.77636e-15
1.44329e-15
2.66454e-15
2.44249e-15
2.22045e-16
-8.88178e-16
1.22125e-15
0
-1.66533e-15
1.55431e-15
-2.22045e-16
2.33147e-15
9.99201e-16
1.11022e-15
4.44089e-16
-5.55112e-16
-1.11022e-15
2.9976e-15
1.11022e-15
6.66134e-16
2.10942e-15
6.66134e-16
1.88738e-15
-1.11022e-16
2.9976e-15
1.22125e-15
-2.88658e-15
2.22045e-16
9.99201e-16
-7.77156e-16
-2.22045e-16
-3.66374e-15
-6.66134e-16
1.22125e-15
-3.10862e-15
-5.55112e-16
1.33227e-15
3.33067e-16
1.11022e-16
4.44089e-16
2.22045e-16
-4.77396e-15
1.11022e-15
-1.88738e-15
-3.33067e-16
1.22125e-15
-1.77636e-15
-4.32987e-15
1.44329e-15
3.33067e-16
-7.77156e-16
-1.9984e-15
1.33227e-15
3.9968e-15
-8.88178e-16
-1.9984e-15
3.33067e-16
-5.55112e-16
-6.66134e-16
1.11022e-16
1.11022e-16
-1.88738e-15
-2.9976e-15
-1.66533e-15
-3.9968e-15
-2.22045e-16
-2.88658e-15
2.55351e-15
2.22045e-16
-1.66533e-15
6.66134e-16
-2.22045e-16
-2.44249e-15
0
-1.88738e-15
-1.11022e-16
2.10942e-15
-1.11022e-15
-5.55112e-16
-9.99201e-16
-1.11022e-15
1.33227e-15
2.77556e-15
-1.44329e-15
0
2.9976e-15
3.44169e-15
-4.44089e-16
-1.11022e-16
1.55431e-15
-1.11022e-16
3.55271e-15
2.9976e-15
9.99201e-16
8.88178e-16
3.33067e-16
-7.77156e-16
1.11022e-15
3.33067e-16