/*--------------------------------*- C++ -*----------------------------------*\
| =========                 |                                                 |
| \\      /  F ield         | foam-extend: Open Source CFD                    |
|  \\    /   O peration     | Version:     4.0                                |
|   \\  /    A nd           | Web:         http://www.foam-extend.org         |
|    \\/     M anipulation  |                                                 |
\*---------------------------------------------------------------------------*/
FoamFile
{
    version     2.0;
    format      ascii;
    class       volScalarField;
    location    "1270";
    object      cMinus;
}
// * * * * * * * * * * * * * * * * * * * * * * * * * * * * * * * * * * * * * //

dimensions      [0 0 0 0 0 0 0];

internalField   nonuniform List<scalar> 
6960
(
1.16127e-23
1.16075e-23
1.16089e-23
1.16097e-23
1.16103e-23
1.16107e-23
1.1611e-23
1.16113e-23
1.16115e-23
1.16117e-23
1.16119e-23
1.1612e-23
1.16121e-23
1.16122e-23
1.16123e-23
1.16123e-23
1.16123e-23
1.16124e-23
1.16124e-23
1.16124e-23
1.16124e-23
1.16123e-23
1.16123e-23
1.16123e-23
1.16123e-23
1.16123e-23
1.16123e-23
1.16123e-23
1.16123e-23
1.16123e-23
1.16123e-23
1.16123e-23
1.16123e-23
1.16123e-23
1.16123e-23
1.16123e-23
1.16123e-23
1.16123e-23
1.16123e-23
1.16124e-23
1.16124e-23
1.16124e-23
1.16124e-23
1.16123e-23
1.16123e-23
1.16123e-23
1.16122e-23
1.16121e-23
1.1612e-23
1.16119e-23
1.16117e-23
1.16115e-23
1.16113e-23
1.1611e-23
1.16107e-23
1.16103e-23
1.16097e-23
1.16089e-23
1.16075e-23
1.16127e-23
3.28197e-23
3.28187e-23
3.28231e-23
3.28256e-23
3.28274e-23
3.2829e-23
3.28304e-23
3.28317e-23
3.2833e-23
3.28342e-23
3.28353e-23
3.28364e-23
3.28374e-23
3.28383e-23
3.28391e-23
3.28399e-23
3.28406e-23
3.28412e-23
3.28418e-23
3.28423e-23
3.28428e-23
3.28432e-23
3.28436e-23
3.28439e-23
3.28441e-23
3.28443e-23
3.28445e-23
3.28446e-23
3.28447e-23
3.28448e-23
3.28448e-23
3.28447e-23
3.28446e-23
3.28445e-23
3.28443e-23
3.28441e-23
3.28439e-23
3.28436e-23
3.28432e-23
3.28428e-23
3.28423e-23
3.28418e-23
3.28412e-23
3.28406e-23
3.28399e-23
3.28391e-23
3.28383e-23
3.28374e-23
3.28364e-23
3.28353e-23
3.28342e-23
3.2833e-23
3.28317e-23
3.28304e-23
3.2829e-23
3.28274e-23
3.28256e-23
3.28231e-23
3.28187e-23
3.28197e-23
8.26357e-23
8.2635e-23
8.26494e-23
8.26589e-23
8.26667e-23
8.26737e-23
8.26801e-23
8.26861e-23
8.26917e-23
8.2697e-23
8.27018e-23
8.27064e-23
8.27105e-23
8.27143e-23
8.27178e-23
8.2721e-23
8.27239e-23
8.27265e-23
8.27288e-23
8.27309e-23
8.27327e-23
8.27343e-23
8.27357e-23
8.27369e-23
8.27379e-23
8.27388e-23
8.27394e-23
8.27399e-23
8.27402e-23
8.27404e-23
8.27404e-23
8.27402e-23
8.27399e-23
8.27394e-23
8.27388e-23
8.27379e-23
8.27369e-23
8.27357e-23
8.27343e-23
8.27327e-23
8.27309e-23
8.27288e-23
8.27265e-23
8.27239e-23
8.2721e-23
8.27178e-23
8.27143e-23
8.27105e-23
8.27064e-23
8.27018e-23
8.2697e-23
8.26917e-23
8.26861e-23
8.26801e-23
8.26737e-23
8.26667e-23
8.26589e-23
8.26494e-23
8.2635e-23
8.26357e-23
2.00366e-22
2.0036e-22
2.00403e-22
2.00436e-22
2.00465e-22
2.00491e-22
2.00514e-22
2.00536e-22
2.00557e-22
2.00576e-22
2.00594e-22
2.0061e-22
2.00624e-22
2.00638e-22
2.0065e-22
2.00661e-22
2.0067e-22
2.00679e-22
2.00687e-22
2.00694e-22
2.007e-22
2.00706e-22
2.0071e-22
2.00714e-22
2.00718e-22
2.0072e-22
2.00722e-22
2.00724e-22
2.00725e-22
2.00726e-22
2.00726e-22
2.00725e-22
2.00724e-22
2.00722e-22
2.0072e-22
2.00718e-22
2.00714e-22
2.0071e-22
2.00706e-22
2.007e-22
2.00694e-22
2.00687e-22
2.00679e-22
2.0067e-22
2.00661e-22
2.0065e-22
2.00638e-22
2.00624e-22
2.0061e-22
2.00594e-22
2.00576e-22
2.00557e-22
2.00536e-22
2.00514e-22
2.00491e-22
2.00465e-22
2.00436e-22
2.00403e-22
2.0036e-22
2.00366e-22
4.8379e-22
4.83762e-22
4.83892e-22
4.83997e-22
4.84091e-22
4.84177e-22
4.84256e-22
4.8433e-22
4.84397e-22
4.8446e-22
4.84517e-22
4.84569e-22
4.84617e-22
4.8466e-22
4.84699e-22
4.84734e-22
4.84765e-22
4.84793e-22
4.84818e-22
4.8484e-22
4.84859e-22
4.84876e-22
4.8489e-22
4.84903e-22
4.84913e-22
4.84921e-22
4.84928e-22
4.84933e-22
4.84936e-22
4.84938e-22
4.84938e-22
4.84936e-22
4.84933e-22
4.84928e-22
4.84921e-22
4.84913e-22
4.84903e-22
4.8489e-22
4.84876e-22
4.84859e-22
4.8484e-22
4.84818e-22
4.84793e-22
4.84765e-22
4.84734e-22
4.84699e-22
4.8466e-22
4.84617e-22
4.84569e-22
4.84517e-22
4.8446e-22
4.84397e-22
4.8433e-22
4.84256e-22
4.84177e-22
4.84091e-22
4.83997e-22
4.83892e-22
4.83762e-22
4.8379e-22
1.18049e-21
1.1804e-21
1.18078e-21
1.1811e-21
1.18139e-21
1.18166e-21
1.18191e-21
1.18214e-21
1.18236e-21
1.18255e-21
1.18273e-21
1.18289e-21
1.18304e-21
1.18317e-21
1.18329e-21
1.1834e-21
1.1835e-21
1.18358e-21
1.18366e-21
1.18372e-21
1.18378e-21
1.18383e-21
1.18388e-21
1.18392e-21
1.18395e-21
1.18397e-21
1.18399e-21
1.18401e-21
1.18402e-21
1.18402e-21
1.18402e-21
1.18402e-21
1.18401e-21
1.18399e-21
1.18397e-21
1.18395e-21
1.18392e-21
1.18388e-21
1.18383e-21
1.18378e-21
1.18372e-21
1.18366e-21
1.18358e-21
1.1835e-21
1.1834e-21
1.18329e-21
1.18317e-21
1.18304e-21
1.18289e-21
1.18273e-21
1.18255e-21
1.18236e-21
1.18214e-21
1.18191e-21
1.18166e-21
1.18139e-21
1.1811e-21
1.18078e-21
1.1804e-21
1.18049e-21
2.9302e-21
2.92995e-21
2.93105e-21
2.93202e-21
2.93291e-21
2.93374e-21
2.9345e-21
2.93521e-21
2.93586e-21
2.93645e-21
2.93699e-21
2.93749e-21
2.93794e-21
2.93834e-21
2.9387e-21
2.93903e-21
2.93932e-21
2.93958e-21
2.93981e-21
2.94001e-21
2.94019e-21
2.94034e-21
2.94047e-21
2.94058e-21
2.94068e-21
2.94075e-21
2.94081e-21
2.94086e-21
2.94089e-21
2.9409e-21
2.9409e-21
2.94089e-21
2.94086e-21
2.94081e-21
2.94075e-21
2.94068e-21
2.94058e-21
2.94047e-21
2.94034e-21
2.94019e-21
2.94001e-21
2.93981e-21
2.93958e-21
2.93932e-21
2.93903e-21
2.9387e-21
2.93834e-21
2.93794e-21
2.93749e-21
2.93699e-21
2.93645e-21
2.93586e-21
2.93521e-21
2.9345e-21
2.93374e-21
2.93291e-21
2.93202e-21
2.93105e-21
2.92995e-21
2.9302e-21
7.42099e-21
7.42041e-21
7.42361e-21
7.4265e-21
7.42918e-21
7.43167e-21
7.43398e-21
7.43612e-21
7.43808e-21
7.43988e-21
7.44152e-21
7.44301e-21
7.44436e-21
7.44557e-21
7.44667e-21
7.44765e-21
7.44852e-21
7.4493e-21
7.44999e-21
7.4506e-21
7.45113e-21
7.45159e-21
7.45198e-21
7.45232e-21
7.4526e-21
7.45283e-21
7.45301e-21
7.45314e-21
7.45323e-21
7.45327e-21
7.45327e-21
7.45323e-21
7.45314e-21
7.45301e-21
7.45283e-21
7.4526e-21
7.45232e-21
7.45198e-21
7.45159e-21
7.45113e-21
7.4506e-21
7.44999e-21
7.4493e-21
7.44852e-21
7.44765e-21
7.44667e-21
7.44557e-21
7.44436e-21
7.44301e-21
7.44152e-21
7.43988e-21
7.43808e-21
7.43612e-21
7.43398e-21
7.43167e-21
7.42918e-21
7.4265e-21
7.42361e-21
7.42041e-21
7.42099e-21
1.92031e-20
1.9202e-20
1.92114e-20
1.922e-20
1.92281e-20
1.92356e-20
1.92425e-20
1.92489e-20
1.92549e-20
1.92603e-20
1.92652e-20
1.92697e-20
1.92738e-20
1.92775e-20
1.92808e-20
1.92837e-20
1.92864e-20
1.92887e-20
1.92908e-20
1.92926e-20
1.92942e-20
1.92956e-20
1.92968e-20
1.92978e-20
1.92987e-20
1.92994e-20
1.92999e-20
1.93003e-20
1.93006e-20
1.93007e-20
1.93007e-20
1.93006e-20
1.93003e-20
1.92999e-20
1.92994e-20
1.92987e-20
1.92978e-20
1.92968e-20
1.92956e-20
1.92942e-20
1.92926e-20
1.92908e-20
1.92887e-20
1.92864e-20
1.92837e-20
1.92808e-20
1.92775e-20
1.92738e-20
1.92697e-20
1.92652e-20
1.92603e-20
1.92549e-20
1.92489e-20
1.92425e-20
1.92356e-20
1.92281e-20
1.922e-20
1.92114e-20
1.9202e-20
1.92031e-20
5.08094e-20
5.08089e-20
5.08365e-20
5.08624e-20
5.08866e-20
5.09093e-20
5.09303e-20
5.09498e-20
5.09677e-20
5.09841e-20
5.09991e-20
5.10128e-20
5.10251e-20
5.10363e-20
5.10463e-20
5.10553e-20
5.10633e-20
5.10705e-20
5.10768e-20
5.10824e-20
5.10872e-20
5.10915e-20
5.10951e-20
5.10982e-20
5.11008e-20
5.11029e-20
5.11046e-20
5.11058e-20
5.11066e-20
5.1107e-20
5.1107e-20
5.11066e-20
5.11058e-20
5.11046e-20
5.11029e-20
5.11008e-20
5.10982e-20
5.10951e-20
5.10915e-20
5.10872e-20
5.10824e-20
5.10768e-20
5.10705e-20
5.10633e-20
5.10553e-20
5.10463e-20
5.10363e-20
5.10251e-20
5.10128e-20
5.09991e-20
5.09841e-20
5.09677e-20
5.09498e-20
5.09303e-20
5.09093e-20
5.08866e-20
5.08624e-20
5.08365e-20
5.08089e-20
5.08094e-20
1.37526e-19
1.37534e-19
1.37616e-19
1.37694e-19
1.37768e-19
1.37837e-19
1.37902e-19
1.37961e-19
1.38016e-19
1.38066e-19
1.38112e-19
1.38154e-19
1.38191e-19
1.38226e-19
1.38256e-19
1.38284e-19
1.38309e-19
1.38331e-19
1.3835e-19
1.38368e-19
1.38383e-19
1.38396e-19
1.38407e-19
1.38417e-19
1.38425e-19
1.38431e-19
1.38436e-19
1.3844e-19
1.38442e-19
1.38444e-19
1.38444e-19
1.38442e-19
1.3844e-19
1.38436e-19
1.38431e-19
1.38425e-19
1.38417e-19
1.38407e-19
1.38396e-19
1.38383e-19
1.38368e-19
1.3835e-19
1.38331e-19
1.38309e-19
1.38284e-19
1.38256e-19
1.38226e-19
1.38191e-19
1.38154e-19
1.38112e-19
1.38066e-19
1.38016e-19
1.37961e-19
1.37902e-19
1.37837e-19
1.37768e-19
1.37694e-19
1.37616e-19
1.37534e-19
1.37526e-19
3.80937e-19
3.80989e-19
3.8124e-19
3.8148e-19
3.81707e-19
3.8192e-19
3.82118e-19
3.82302e-19
3.82471e-19
3.82627e-19
3.82769e-19
3.82899e-19
3.83016e-19
3.83123e-19
3.83219e-19
3.83305e-19
3.83382e-19
3.8345e-19
3.83511e-19
3.83565e-19
3.83612e-19
3.83653e-19
3.83689e-19
3.83719e-19
3.83744e-19
3.83764e-19
3.8378e-19
3.83792e-19
3.838e-19
3.83804e-19
3.83804e-19
3.838e-19
3.83792e-19
3.8378e-19
3.83764e-19
3.83744e-19
3.83719e-19
3.83689e-19
3.83653e-19
3.83612e-19
3.83565e-19
3.83511e-19
3.8345e-19
3.83382e-19
3.83305e-19
3.83219e-19
3.83123e-19
3.83016e-19
3.82899e-19
3.82769e-19
3.82627e-19
3.82471e-19
3.82302e-19
3.82118e-19
3.8192e-19
3.81707e-19
3.8148e-19
3.8124e-19
3.80989e-19
3.80937e-19
1.08017e-18
1.08042e-18
1.08119e-18
1.08194e-18
1.08265e-18
1.08331e-18
1.08393e-18
1.08451e-18
1.08504e-18
1.08553e-18
1.08598e-18
1.08639e-18
1.08676e-18
1.0871e-18
1.0874e-18
1.08767e-18
1.08791e-18
1.08813e-18
1.08833e-18
1.0885e-18
1.08865e-18
1.08878e-18
1.08889e-18
1.08898e-18
1.08907e-18
1.08913e-18
1.08918e-18
1.08922e-18
1.08924e-18
1.08926e-18
1.08926e-18
1.08924e-18
1.08922e-18
1.08918e-18
1.08913e-18
1.08907e-18
1.08898e-18
1.08889e-18
1.08878e-18
1.08865e-18
1.0885e-18
1.08833e-18
1.08813e-18
1.08791e-18
1.08767e-18
1.0874e-18
1.0871e-18
1.08676e-18
1.08639e-18
1.08598e-18
1.08553e-18
1.08504e-18
1.08451e-18
1.08393e-18
1.08331e-18
1.08265e-18
1.08194e-18
1.08119e-18
1.08042e-18
1.08017e-18
3.13637e-18
3.13744e-18
3.13988e-18
3.14224e-18
3.14449e-18
3.14661e-18
3.14859e-18
3.15043e-18
3.15213e-18
3.15369e-18
3.15512e-18
3.15643e-18
3.15762e-18
3.1587e-18
3.15967e-18
3.16055e-18
3.16133e-18
3.16203e-18
3.16266e-18
3.16321e-18
3.16369e-18
3.16411e-18
3.16448e-18
3.16479e-18
3.16505e-18
3.16526e-18
3.16543e-18
3.16555e-18
3.16563e-18
3.16567e-18
3.16567e-18
3.16563e-18
3.16555e-18
3.16543e-18
3.16526e-18
3.16505e-18
3.16479e-18
3.16448e-18
3.16411e-18
3.16369e-18
3.16321e-18
3.16266e-18
3.16203e-18
3.16133e-18
3.16055e-18
3.15967e-18
3.1587e-18
3.15762e-18
3.15643e-18
3.15512e-18
3.15369e-18
3.15213e-18
3.15043e-18
3.14859e-18
3.14661e-18
3.14449e-18
3.14224e-18
3.13988e-18
3.13744e-18
3.13637e-18
9.32777e-18
9.33206e-18
9.33988e-18
9.34749e-18
9.35477e-18
9.36164e-18
9.36806e-18
9.37403e-18
9.37955e-18
9.38463e-18
9.38929e-18
9.39355e-18
9.39743e-18
9.40096e-18
9.40414e-18
9.40701e-18
9.40958e-18
9.41188e-18
9.41393e-18
9.41574e-18
9.41733e-18
9.41872e-18
9.41992e-18
9.42094e-18
9.4218e-18
9.4225e-18
9.42304e-18
9.42345e-18
9.42372e-18
9.42385e-18
9.42385e-18
9.42372e-18
9.42345e-18
9.42304e-18
9.4225e-18
9.4218e-18
9.42094e-18
9.41992e-18
9.41872e-18
9.41733e-18
9.41574e-18
9.41393e-18
9.41188e-18
9.40958e-18
9.40701e-18
9.40414e-18
9.40096e-18
9.39743e-18
9.39355e-18
9.38929e-18
9.38463e-18
9.37955e-18
9.37403e-18
9.36806e-18
9.36164e-18
9.35477e-18
9.34749e-18
9.33988e-18
9.33206e-18
9.32777e-18
2.84205e-17
2.8437e-17
2.84626e-17
2.84876e-17
2.85116e-17
2.85343e-17
2.85555e-17
2.85753e-17
2.85935e-17
2.86104e-17
2.86258e-17
2.864e-17
2.86529e-17
2.86646e-17
2.86752e-17
2.86848e-17
2.86933e-17
2.8701e-17
2.87079e-17
2.87139e-17
2.87192e-17
2.87239e-17
2.87279e-17
2.87313e-17
2.87342e-17
2.87366e-17
2.87384e-17
2.87398e-17
2.87407e-17
2.87411e-17
2.87411e-17
2.87407e-17
2.87398e-17
2.87384e-17
2.87366e-17
2.87342e-17
2.87313e-17
2.87279e-17
2.87239e-17
2.87192e-17
2.87139e-17
2.87079e-17
2.8701e-17
2.86933e-17
2.86848e-17
2.86752e-17
2.86646e-17
2.86529e-17
2.864e-17
2.86258e-17
2.86104e-17
2.85935e-17
2.85753e-17
2.85555e-17
2.85343e-17
2.85116e-17
2.84876e-17
2.84626e-17
2.8437e-17
2.84205e-17
8.87226e-17
8.87852e-17
8.88707e-17
8.89546e-17
8.90353e-17
8.91116e-17
8.91831e-17
8.92497e-17
8.93114e-17
8.93683e-17
8.94206e-17
8.94684e-17
8.95121e-17
8.95518e-17
8.95878e-17
8.96202e-17
8.96494e-17
8.96755e-17
8.96988e-17
8.97194e-17
8.97376e-17
8.97534e-17
8.97671e-17
8.97788e-17
8.97886e-17
8.97966e-17
8.98029e-17
8.98076e-17
8.98107e-17
8.98122e-17
8.98122e-17
8.98107e-17
8.98076e-17
8.98029e-17
8.97966e-17
8.97886e-17
8.97788e-17
8.97671e-17
8.97534e-17
8.97376e-17
8.97194e-17
8.96988e-17
8.96755e-17
8.96494e-17
8.96202e-17
8.95878e-17
8.95518e-17
8.95121e-17
8.94684e-17
8.94206e-17
8.93683e-17
8.93114e-17
8.92497e-17
8.91831e-17
8.91116e-17
8.90353e-17
8.89546e-17
8.88707e-17
8.87852e-17
8.87226e-17
2.83779e-16
2.84013e-16
2.84304e-16
2.84592e-16
2.84868e-16
2.8513e-16
2.85376e-16
2.85605e-16
2.85818e-16
2.86014e-16
2.86194e-16
2.86359e-16
2.8651e-16
2.86647e-16
2.86772e-16
2.86884e-16
2.86985e-16
2.87075e-16
2.87156e-16
2.87228e-16
2.87291e-16
2.87346e-16
2.87393e-16
2.87434e-16
2.87468e-16
2.87496e-16
2.87518e-16
2.87534e-16
2.87545e-16
2.8755e-16
2.8755e-16
2.87545e-16
2.87534e-16
2.87518e-16
2.87496e-16
2.87468e-16
2.87434e-16
2.87393e-16
2.87346e-16
2.87291e-16
2.87228e-16
2.87156e-16
2.87075e-16
2.86985e-16
2.86884e-16
2.86772e-16
2.86647e-16
2.8651e-16
2.86359e-16
2.86194e-16
2.86014e-16
2.85818e-16
2.85605e-16
2.85376e-16
2.8513e-16
2.84868e-16
2.84592e-16
2.84304e-16
2.84013e-16
2.83779e-16
9.29801e-16
9.30674e-16
9.31689e-16
9.32694e-16
9.33663e-16
9.34582e-16
9.35444e-16
9.36248e-16
9.36994e-16
9.37683e-16
9.38317e-16
9.38898e-16
9.39429e-16
9.39912e-16
9.4035e-16
9.40746e-16
9.41102e-16
9.41422e-16
9.41706e-16
9.41959e-16
9.42181e-16
9.42376e-16
9.42544e-16
9.42688e-16
9.42808e-16
9.42907e-16
9.42984e-16
9.43042e-16
9.4308e-16
9.43099e-16
9.43099e-16
9.4308e-16
9.43042e-16
9.42984e-16
9.42907e-16
9.42808e-16
9.42688e-16
9.42544e-16
9.42376e-16
9.42181e-16
9.41959e-16
9.41706e-16
9.41422e-16
9.41102e-16
9.40746e-16
9.4035e-16
9.39912e-16
9.39429e-16
9.38898e-16
9.38317e-16
9.37683e-16
9.36994e-16
9.36248e-16
9.35444e-16
9.34582e-16
9.33663e-16
9.32694e-16
9.31689e-16
9.30674e-16
9.29801e-16
3.11966e-15
3.12292e-15
3.12653e-15
3.13011e-15
3.13357e-15
3.13686e-15
3.13995e-15
3.14283e-15
3.1455e-15
3.14797e-15
3.15024e-15
3.15232e-15
3.15423e-15
3.15596e-15
3.15753e-15
3.15895e-15
3.16024e-15
3.16138e-15
3.16241e-15
3.16332e-15
3.16412e-15
3.16482e-15
3.16542e-15
3.16594e-15
3.16637e-15
3.16673e-15
3.16701e-15
3.16722e-15
3.16735e-15
3.16742e-15
3.16742e-15
3.16735e-15
3.16722e-15
3.16701e-15
3.16673e-15
3.16637e-15
3.16594e-15
3.16542e-15
3.16482e-15
3.16412e-15
3.16332e-15
3.16241e-15
3.16138e-15
3.16024e-15
3.15895e-15
3.15753e-15
3.15596e-15
3.15423e-15
3.15232e-15
3.15024e-15
3.14797e-15
3.1455e-15
3.14283e-15
3.13995e-15
3.13686e-15
3.13357e-15
3.13011e-15
3.12653e-15
3.12292e-15
3.11966e-15
1.07122e-14
1.07244e-14
1.07375e-14
1.07506e-14
1.07632e-14
1.07752e-14
1.07864e-14
1.07969e-14
1.08067e-14
1.08157e-14
1.0824e-14
1.08316e-14
1.08386e-14
1.08449e-14
1.08507e-14
1.08559e-14
1.08606e-14
1.08648e-14
1.08685e-14
1.08718e-14
1.08748e-14
1.08773e-14
1.08796e-14
1.08815e-14
1.0883e-14
1.08844e-14
1.08854e-14
1.08861e-14
1.08866e-14
1.08869e-14
1.08869e-14
1.08866e-14
1.08861e-14
1.08854e-14
1.08844e-14
1.0883e-14
1.08815e-14
1.08796e-14
1.08773e-14
1.08748e-14
1.08718e-14
1.08685e-14
1.08648e-14
1.08606e-14
1.08559e-14
1.08507e-14
1.08449e-14
1.08386e-14
1.08316e-14
1.0824e-14
1.08157e-14
1.08067e-14
1.07969e-14
1.07864e-14
1.07752e-14
1.07632e-14
1.07506e-14
1.07375e-14
1.07244e-14
1.07122e-14
3.76136e-14
3.76599e-14
3.77084e-14
3.77568e-14
3.78037e-14
3.78482e-14
3.78901e-14
3.79292e-14
3.79654e-14
3.7999e-14
3.80299e-14
3.80582e-14
3.80841e-14
3.81077e-14
3.81291e-14
3.81485e-14
3.8166e-14
3.81816e-14
3.81956e-14
3.8208e-14
3.82189e-14
3.82285e-14
3.82368e-14
3.82439e-14
3.82498e-14
3.82546e-14
3.82585e-14
3.82613e-14
3.82632e-14
3.82641e-14
3.82641e-14
3.82632e-14
3.82613e-14
3.82585e-14
3.82546e-14
3.82498e-14
3.82439e-14
3.82368e-14
3.82285e-14
3.82189e-14
3.8208e-14
3.81956e-14
3.81816e-14
3.8166e-14
3.81485e-14
3.81291e-14
3.81077e-14
3.80841e-14
3.80582e-14
3.80299e-14
3.7999e-14
3.79654e-14
3.79292e-14
3.78901e-14
3.78482e-14
3.78037e-14
3.77568e-14
3.77084e-14
3.76599e-14
3.76136e-14
1.34908e-13
1.35084e-13
1.35267e-13
1.3545e-13
1.35627e-13
1.35796e-13
1.35954e-13
1.36102e-13
1.36239e-13
1.36366e-13
1.36483e-13
1.36591e-13
1.36689e-13
1.36778e-13
1.36859e-13
1.36933e-13
1.36999e-13
1.37058e-13
1.37111e-13
1.37158e-13
1.37199e-13
1.37236e-13
1.37267e-13
1.37294e-13
1.37316e-13
1.37335e-13
1.37349e-13
1.3736e-13
1.37367e-13
1.37371e-13
1.37371e-13
1.37367e-13
1.3736e-13
1.37349e-13
1.37335e-13
1.37316e-13
1.37294e-13
1.37267e-13
1.37236e-13
1.37199e-13
1.37158e-13
1.37111e-13
1.37058e-13
1.36999e-13
1.36933e-13
1.36859e-13
1.36778e-13
1.36689e-13
1.36591e-13
1.36483e-13
1.36366e-13
1.36239e-13
1.36102e-13
1.35954e-13
1.35796e-13
1.35627e-13
1.3545e-13
1.35267e-13
1.35084e-13
1.34908e-13
4.93575e-13
4.94256e-13
4.94956e-13
4.95659e-13
4.96341e-13
4.96989e-13
4.97598e-13
4.98167e-13
4.98695e-13
4.99183e-13
4.99633e-13
5.00046e-13
5.00423e-13
5.00767e-13
5.01079e-13
5.01362e-13
5.01616e-13
5.01844e-13
5.02048e-13
5.02229e-13
5.02388e-13
5.02528e-13
5.02648e-13
5.02751e-13
5.02838e-13
5.02909e-13
5.02964e-13
5.03006e-13
5.03033e-13
5.03047e-13
5.03047e-13
5.03033e-13
5.03006e-13
5.02964e-13
5.02909e-13
5.02838e-13
5.02751e-13
5.02648e-13
5.02528e-13
5.02388e-13
5.02229e-13
5.02048e-13
5.01844e-13
5.01616e-13
5.01362e-13
5.01079e-13
5.00767e-13
5.00423e-13
5.00046e-13
4.99633e-13
4.99183e-13
4.98695e-13
4.98167e-13
4.97598e-13
4.96989e-13
4.96341e-13
4.95659e-13
4.94956e-13
4.94256e-13
4.93575e-13
1.83887e-12
1.84153e-12
1.84426e-12
1.847e-12
1.84966e-12
1.85218e-12
1.85456e-12
1.85678e-12
1.85884e-12
1.86075e-12
1.8625e-12
1.86411e-12
1.86558e-12
1.86693e-12
1.86814e-12
1.86925e-12
1.87024e-12
1.87113e-12
1.87192e-12
1.87263e-12
1.87325e-12
1.8738e-12
1.87427e-12
1.87467e-12
1.87501e-12
1.87528e-12
1.8755e-12
1.87566e-12
1.87577e-12
1.87582e-12
1.87582e-12
1.87577e-12
1.87566e-12
1.8755e-12
1.87528e-12
1.87501e-12
1.87467e-12
1.87427e-12
1.8738e-12
1.87325e-12
1.87263e-12
1.87192e-12
1.87113e-12
1.87024e-12
1.86925e-12
1.86814e-12
1.86693e-12
1.86558e-12
1.86411e-12
1.8625e-12
1.86075e-12
1.85884e-12
1.85678e-12
1.85456e-12
1.85218e-12
1.84966e-12
1.847e-12
1.84426e-12
1.84153e-12
1.83887e-12
6.96206e-12
6.97251e-12
6.98326e-12
6.99408e-12
7.00459e-12
7.01458e-12
7.02397e-12
7.03274e-12
7.04088e-12
7.04841e-12
7.05534e-12
7.0617e-12
7.06752e-12
7.07282e-12
7.07763e-12
7.08198e-12
7.0859e-12
7.08942e-12
7.09255e-12
7.09534e-12
7.0978e-12
7.09994e-12
7.1018e-12
7.10339e-12
7.10472e-12
7.10581e-12
7.10667e-12
7.10731e-12
7.10773e-12
7.10794e-12
7.10794e-12
7.10773e-12
7.10731e-12
7.10667e-12
7.10581e-12
7.10472e-12
7.10339e-12
7.1018e-12
7.09994e-12
7.0978e-12
7.09534e-12
7.09255e-12
7.08942e-12
7.0859e-12
7.08198e-12
7.07763e-12
7.07282e-12
7.06752e-12
7.0617e-12
7.05534e-12
7.04841e-12
7.04088e-12
7.03274e-12
7.02397e-12
7.01458e-12
7.00459e-12
6.99408e-12
6.98326e-12
6.97251e-12
6.96206e-12
2.67202e-11
2.67617e-11
2.68045e-11
2.68477e-11
2.68896e-11
2.69294e-11
2.69669e-11
2.70019e-11
2.70344e-11
2.70644e-11
2.7092e-11
2.71174e-11
2.71406e-11
2.71617e-11
2.71809e-11
2.71983e-11
2.72139e-11
2.72279e-11
2.72404e-11
2.72515e-11
2.72613e-11
2.72699e-11
2.72773e-11
2.72836e-11
2.72889e-11
2.72933e-11
2.72967e-11
2.72992e-11
2.73009e-11
2.73017e-11
2.73017e-11
2.73009e-11
2.72992e-11
2.72967e-11
2.72933e-11
2.72889e-11
2.72836e-11
2.72773e-11
2.72699e-11
2.72613e-11
2.72515e-11
2.72404e-11
2.72279e-11
2.72139e-11
2.71983e-11
2.71809e-11
2.71617e-11
2.71406e-11
2.71174e-11
2.7092e-11
2.70644e-11
2.70344e-11
2.70019e-11
2.69669e-11
2.69294e-11
2.68896e-11
2.68477e-11
2.68045e-11
2.67617e-11
2.67202e-11
1.03655e-10
1.03821e-10
1.03993e-10
1.04166e-10
1.04335e-10
1.04495e-10
1.04645e-10
1.04786e-10
1.04916e-10
1.05037e-10
1.05148e-10
1.0525e-10
1.05343e-10
1.05428e-10
1.05505e-10
1.05574e-10
1.05637e-10
1.05693e-10
1.05743e-10
1.05788e-10
1.05827e-10
1.05862e-10
1.05891e-10
1.05917e-10
1.05938e-10
1.05955e-10
1.05969e-10
1.05979e-10
1.05986e-10
1.05989e-10
1.05989e-10
1.05986e-10
1.05979e-10
1.05969e-10
1.05955e-10
1.05938e-10
1.05917e-10
1.05891e-10
1.05862e-10
1.05827e-10
1.05788e-10
1.05743e-10
1.05693e-10
1.05637e-10
1.05574e-10
1.05505e-10
1.05428e-10
1.05343e-10
1.0525e-10
1.05148e-10
1.05037e-10
1.04916e-10
1.04786e-10
1.04645e-10
1.04495e-10
1.04335e-10
1.04166e-10
1.03993e-10
1.03821e-10
1.03655e-10
4.0505e-10
4.05715e-10
4.06407e-10
4.07106e-10
4.07785e-10
4.0843e-10
4.09036e-10
4.09602e-10
4.10128e-10
4.10613e-10
4.11061e-10
4.11471e-10
4.11846e-10
4.12187e-10
4.12497e-10
4.12778e-10
4.1303e-10
4.13257e-10
4.13459e-10
4.13638e-10
4.13796e-10
4.13934e-10
4.14053e-10
4.14156e-10
4.14241e-10
4.14311e-10
4.14366e-10
4.14407e-10
4.14434e-10
4.14448e-10
4.14448e-10
4.14434e-10
4.14407e-10
4.14366e-10
4.14311e-10
4.14241e-10
4.14156e-10
4.14053e-10
4.13934e-10
4.13796e-10
4.13638e-10
4.13459e-10
4.13257e-10
4.1303e-10
4.12778e-10
4.12497e-10
4.12187e-10
4.11846e-10
4.11471e-10
4.11061e-10
4.10613e-10
4.10128e-10
4.09602e-10
4.09036e-10
4.0843e-10
4.07785e-10
4.07106e-10
4.06407e-10
4.05715e-10
4.0505e-10
1.58806e-09
1.59073e-09
1.59351e-09
1.59633e-09
1.59906e-09
1.60165e-09
1.6041e-09
1.60637e-09
1.60849e-09
1.61044e-09
1.61224e-09
1.61389e-09
1.6154e-09
1.61677e-09
1.61802e-09
1.61914e-09
1.62016e-09
1.62107e-09
1.62188e-09
1.6226e-09
1.62324e-09
1.62379e-09
1.62427e-09
1.62468e-09
1.62503e-09
1.62531e-09
1.62553e-09
1.62569e-09
1.6258e-09
1.62585e-09
1.62585e-09
1.6258e-09
1.62569e-09
1.62553e-09
1.62531e-09
1.62503e-09
1.62468e-09
1.62427e-09
1.62379e-09
1.62324e-09
1.6226e-09
1.62188e-09
1.62107e-09
1.62016e-09
1.61914e-09
1.61802e-09
1.61677e-09
1.6154e-09
1.61389e-09
1.61224e-09
1.61044e-09
1.60849e-09
1.60637e-09
1.6041e-09
1.60165e-09
1.59906e-09
1.59633e-09
1.59351e-09
1.59073e-09
1.58806e-09
6.2183e-09
6.22891e-09
6.24006e-09
6.25132e-09
6.26225e-09
6.27264e-09
6.2824e-09
6.29151e-09
6.29996e-09
6.30777e-09
6.31496e-09
6.32156e-09
6.32758e-09
6.33307e-09
6.33805e-09
6.34256e-09
6.34661e-09
6.35024e-09
6.35349e-09
6.35636e-09
6.3589e-09
6.36112e-09
6.36303e-09
6.36467e-09
6.36604e-09
6.36717e-09
6.36805e-09
6.36871e-09
6.36914e-09
6.36936e-09
6.36936e-09
6.36914e-09
6.36871e-09
6.36805e-09
6.36717e-09
6.36604e-09
6.36467e-09
6.36303e-09
6.36112e-09
6.3589e-09
6.35636e-09
6.35349e-09
6.35024e-09
6.34661e-09
6.34256e-09
6.33805e-09
6.33307e-09
6.32758e-09
6.32156e-09
6.31496e-09
6.30777e-09
6.29996e-09
6.29151e-09
6.2824e-09
6.27264e-09
6.26225e-09
6.25132e-09
6.24006e-09
6.22891e-09
6.2183e-09
2.41895e-08
2.42313e-08
2.42755e-08
2.432e-08
2.43632e-08
2.44043e-08
2.44429e-08
2.44789e-08
2.45123e-08
2.45431e-08
2.45715e-08
2.45976e-08
2.46214e-08
2.4643e-08
2.46627e-08
2.46805e-08
2.46965e-08
2.47108e-08
2.47236e-08
2.4735e-08
2.4745e-08
2.47537e-08
2.47613e-08
2.47678e-08
2.47732e-08
2.47776e-08
2.47811e-08
2.47837e-08
2.47854e-08
2.47862e-08
2.47862e-08
2.47854e-08
2.47837e-08
2.47811e-08
2.47776e-08
2.47732e-08
2.47678e-08
2.47613e-08
2.47537e-08
2.4745e-08
2.4735e-08
2.47236e-08
2.47108e-08
2.46965e-08
2.46805e-08
2.46627e-08
2.4643e-08
2.46214e-08
2.45976e-08
2.45715e-08
2.45431e-08
2.45123e-08
2.44789e-08
2.44429e-08
2.44043e-08
2.43632e-08
2.432e-08
2.42755e-08
2.42313e-08
2.41895e-08
9.29212e-08
9.30835e-08
9.32549e-08
9.34279e-08
9.35956e-08
9.3755e-08
9.39046e-08
9.40443e-08
9.41738e-08
9.42935e-08
9.44036e-08
9.45046e-08
9.45969e-08
9.46809e-08
9.47571e-08
9.4826e-08
9.48881e-08
9.49436e-08
9.49932e-08
9.50372e-08
9.5076e-08
9.51098e-08
9.51391e-08
9.51642e-08
9.51851e-08
9.52023e-08
9.52158e-08
9.52258e-08
9.52324e-08
9.52357e-08
9.52357e-08
9.52324e-08
9.52258e-08
9.52158e-08
9.52023e-08
9.51851e-08
9.51642e-08
9.51391e-08
9.51098e-08
9.5076e-08
9.50372e-08
9.49932e-08
9.49436e-08
9.48881e-08
9.4826e-08
9.47571e-08
9.46809e-08
9.45969e-08
9.45046e-08
9.44036e-08
9.42935e-08
9.41738e-08
9.40443e-08
9.39046e-08
9.3755e-08
9.35956e-08
9.34279e-08
9.32549e-08
9.30835e-08
9.29212e-08
3.50075e-07
3.50688e-07
3.51338e-07
3.51992e-07
3.52627e-07
3.53229e-07
3.53795e-07
3.54323e-07
3.54812e-07
3.55264e-07
3.5568e-07
3.56062e-07
3.5641e-07
3.56728e-07
3.57016e-07
3.57276e-07
3.5751e-07
3.5772e-07
3.57907e-07
3.58073e-07
3.58219e-07
3.58347e-07
3.58457e-07
3.58552e-07
3.58631e-07
3.58696e-07
3.58746e-07
3.58784e-07
3.58809e-07
3.58822e-07
3.58822e-07
3.58809e-07
3.58784e-07
3.58746e-07
3.58696e-07
3.58631e-07
3.58552e-07
3.58457e-07
3.58347e-07
3.58219e-07
3.58073e-07
3.57907e-07
3.5772e-07
3.5751e-07
3.57276e-07
3.57016e-07
3.56728e-07
3.5641e-07
3.56062e-07
3.5568e-07
3.55264e-07
3.54812e-07
3.54323e-07
3.53795e-07
3.53229e-07
3.52627e-07
3.51992e-07
3.51338e-07
3.50688e-07
3.50075e-07
1.28351e-06
1.28576e-06
1.28814e-06
1.29053e-06
1.29285e-06
1.29505e-06
1.29711e-06
1.29904e-06
1.30083e-06
1.30247e-06
1.30399e-06
1.30538e-06
1.30666e-06
1.30781e-06
1.30886e-06
1.30981e-06
1.31066e-06
1.31143e-06
1.31211e-06
1.31272e-06
1.31325e-06
1.31372e-06
1.31412e-06
1.31446e-06
1.31475e-06
1.31499e-06
1.31517e-06
1.31531e-06
1.3154e-06
1.31545e-06
1.31545e-06
1.3154e-06
1.31531e-06
1.31517e-06
1.31499e-06
1.31475e-06
1.31446e-06
1.31412e-06
1.31372e-06
1.31325e-06
1.31272e-06
1.31211e-06
1.31143e-06
1.31066e-06
1.30981e-06
1.30886e-06
1.30781e-06
1.30666e-06
1.30538e-06
1.30399e-06
1.30247e-06
1.30083e-06
1.29904e-06
1.29711e-06
1.29505e-06
1.29285e-06
1.29053e-06
1.28814e-06
1.28576e-06
1.28351e-06
4.53989e-06
4.54776e-06
4.55609e-06
4.56445e-06
4.57255e-06
4.58023e-06
4.58744e-06
4.59416e-06
4.6004e-06
4.60616e-06
4.61145e-06
4.61631e-06
4.62074e-06
4.62478e-06
4.62843e-06
4.63174e-06
4.63472e-06
4.63738e-06
4.63976e-06
4.64187e-06
4.64373e-06
4.64535e-06
4.64676e-06
4.64795e-06
4.64896e-06
4.64978e-06
4.65043e-06
4.65091e-06
4.65122e-06
4.65138e-06
4.65138e-06
4.65122e-06
4.65091e-06
4.65043e-06
4.64978e-06
4.64896e-06
4.64795e-06
4.64676e-06
4.64535e-06
4.64373e-06
4.64187e-06
4.63976e-06
4.63738e-06
4.63472e-06
4.63174e-06
4.62843e-06
4.62478e-06
4.62074e-06
4.61631e-06
4.61145e-06
4.60616e-06
4.6004e-06
4.59416e-06
4.58744e-06
4.58023e-06
4.57255e-06
4.56445e-06
4.55609e-06
4.54776e-06
4.53989e-06
1.53405e-05
1.53666e-05
1.53942e-05
1.54219e-05
1.54486e-05
1.5474e-05
1.54978e-05
1.55199e-05
1.55405e-05
1.55595e-05
1.5577e-05
1.5593e-05
1.56076e-05
1.56209e-05
1.5633e-05
1.56439e-05
1.56537e-05
1.56625e-05
1.56703e-05
1.56773e-05
1.56834e-05
1.56887e-05
1.56934e-05
1.56973e-05
1.57006e-05
1.57033e-05
1.57055e-05
1.5707e-05
1.57081e-05
1.57086e-05
1.57086e-05
1.57081e-05
1.5707e-05
1.57055e-05
1.57033e-05
1.57006e-05
1.56973e-05
1.56934e-05
1.56887e-05
1.56834e-05
1.56773e-05
1.56703e-05
1.56625e-05
1.56537e-05
1.56439e-05
1.5633e-05
1.56209e-05
1.56076e-05
1.5593e-05
1.5577e-05
1.55595e-05
1.55405e-05
1.55199e-05
1.54978e-05
1.5474e-05
1.54486e-05
1.54219e-05
1.53942e-05
1.53666e-05
1.53405e-05
4.89797e-05
4.90609e-05
4.91462e-05
4.92316e-05
4.93141e-05
4.93922e-05
4.94656e-05
4.95339e-05
4.95972e-05
4.96557e-05
4.97095e-05
4.97587e-05
4.98037e-05
4.98447e-05
4.98818e-05
4.99153e-05
4.99455e-05
4.99725e-05
4.99966e-05
5.0018e-05
5.00368e-05
5.00533e-05
5.00675e-05
5.00796e-05
5.00898e-05
5.00981e-05
5.01047e-05
5.01095e-05
5.01127e-05
5.01143e-05
5.01143e-05
5.01127e-05
5.01095e-05
5.01047e-05
5.00981e-05
5.00898e-05
5.00796e-05
5.00675e-05
5.00533e-05
5.00368e-05
5.0018e-05
4.99966e-05
4.99725e-05
4.99455e-05
4.99153e-05
4.98818e-05
4.98447e-05
4.98037e-05
4.97587e-05
4.97095e-05
4.96557e-05
4.95972e-05
4.95339e-05
4.94656e-05
4.93922e-05
4.93141e-05
4.92316e-05
4.91462e-05
4.90609e-05
4.89797e-05
0.000145978
0.00014621
0.000146453
0.000146696
0.000146929
0.000147151
0.000147359
0.000147552
0.000147731
0.000147897
0.000148049
0.000148188
0.000148316
0.000148432
0.000148537
0.000148631
0.000148717
0.000148793
0.000148861
0.000148922
0.000148975
0.000149021
0.000149062
0.000149096
0.000149125
0.000149148
0.000149167
0.00014918
0.000149189
0.000149194
0.000149194
0.000149189
0.00014918
0.000149167
0.000149148
0.000149125
0.000149096
0.000149062
0.000149021
0.000148975
0.000148922
0.000148861
0.000148793
0.000148717
0.000148631
0.000148537
0.000148432
0.000148316
0.000148188
0.000148049
0.000147897
0.000147731
0.000147552
0.000147359
0.000147151
0.000146929
0.000146696
0.000146453
0.00014621
0.000145978
0.00040078
0.000401381
0.000402006
0.000402628
0.000403227
0.000403795
0.000404327
0.000404822
0.000405281
0.000405704
0.000406094
0.00040645
0.000406776
0.000407072
0.000407341
0.000407583
0.000407801
0.000407997
0.000408171
0.000408325
0.000408461
0.00040858
0.000408683
0.00040877
0.000408844
0.000408904
0.000408951
0.000408986
0.000409009
0.000409021
0.000409021
0.000409009
0.000408986
0.000408951
0.000408904
0.000408844
0.00040877
0.000408683
0.00040858
0.000408461
0.000408325
0.000408171
0.000407997
0.000407801
0.000407583
0.000407341
0.000407072
0.000406776
0.00040645
0.000406094
0.000405704
0.000405281
0.000404822
0.000404327
0.000403795
0.000403227
0.000402628
0.000402006
0.000401381
0.00040078
0.000999886
0.00100127
0.0010027
0.00100412
0.00100549
0.00100678
0.00100799
0.00100911
0.00101016
0.00101112
0.001012
0.00101281
0.00101355
0.00101423
0.00101484
0.00101539
0.00101588
0.00101633
0.00101672
0.00101707
0.00101738
0.00101765
0.00101788
0.00101808
0.00101825
0.00101839
0.00101849
0.00101857
0.00101862
0.00101865
0.00101865
0.00101862
0.00101857
0.00101849
0.00101839
0.00101825
0.00101808
0.00101788
0.00101765
0.00101738
0.00101707
0.00101672
0.00101633
0.00101588
0.00101539
0.00101484
0.00101423
0.00101355
0.00101281
0.001012
0.00101112
0.00101016