/*--------------------------------*- C++ -*----------------------------------*\
| =========                 |                                                 |
| \\      /  F ield         | foam-extend: Open Source CFD                    |
|  \\    /   O peration     | Version:     4.0                                |
|   \\  /    A nd           | Web:         http://www.foam-extend.org         |
|    \\/     M anipulation  |                                                 |
\*---------------------------------------------------------------------------*/
FoamFile
{
    version     2.0;
    format      ascii;
    class       volScalarField;
    location    "1170";
    object      cMinus;
}
// * * * * * * * * * * * * * * * * * * * * * * * * * * * * * * * * * * * * * //

dimensions      [0 0 0 0 0 0 0];

internalField   nonuniform List<scalar> 
6960
(
1.45398e-23
1.45079e-23
1.45111e-23
1.45139e-23
1.45161e-23
1.45179e-23
1.45193e-23
1.45204e-23
1.45212e-23
1.45217e-23
1.4522e-23
1.45221e-23
1.4522e-23
1.45218e-23
1.45214e-23
1.4521e-23
1.45205e-23
1.452e-23
1.45195e-23
1.4519e-23
1.45185e-23
1.4518e-23
1.45175e-23
1.45171e-23
1.45167e-23
1.45164e-23
1.45162e-23
1.4516e-23
1.45158e-23
1.45158e-23
1.45158e-23
1.45158e-23
1.4516e-23
1.45162e-23
1.45164e-23
1.45167e-23
1.45171e-23
1.45175e-23
1.4518e-23
1.45185e-23
1.4519e-23
1.45195e-23
1.452e-23
1.45205e-23
1.4521e-23
1.45214e-23
1.45218e-23
1.4522e-23
1.45221e-23
1.4522e-23
1.45217e-23
1.45212e-23
1.45204e-23
1.45193e-23
1.45179e-23
1.45161e-23
1.45139e-23
1.45111e-23
1.45079e-23
1.45398e-23
4.0231e-23
4.01904e-23
4.01982e-23
4.0204e-23
4.02085e-23
4.02123e-23
4.02154e-23
4.0218e-23
4.02201e-23
4.02219e-23
4.02232e-23
4.02242e-23
4.0225e-23
4.02254e-23
4.02257e-23
4.02258e-23
4.02257e-23
4.02256e-23
4.02254e-23
4.02251e-23
4.02248e-23
4.02244e-23
4.02241e-23
4.02238e-23
4.02235e-23
4.02233e-23
4.02231e-23
4.02229e-23
4.02228e-23
4.02228e-23
4.02228e-23
4.02228e-23
4.02229e-23
4.02231e-23
4.02233e-23
4.02235e-23
4.02238e-23
4.02241e-23
4.02244e-23
4.02248e-23
4.02251e-23
4.02254e-23
4.02256e-23
4.02257e-23
4.02258e-23
4.02257e-23
4.02254e-23
4.0225e-23
4.02242e-23
4.02232e-23
4.02219e-23
4.02201e-23
4.0218e-23
4.02154e-23
4.02123e-23
4.02085e-23
4.0204e-23
4.01982e-23
4.01904e-23
4.0231e-23
1.03651e-22
1.03553e-22
1.03578e-22
1.03598e-22
1.03614e-22
1.03628e-22
1.0364e-22
1.03651e-22
1.0366e-22
1.03668e-22
1.03674e-22
1.03679e-22
1.03683e-22
1.03687e-22
1.03689e-22
1.03691e-22
1.03693e-22
1.03694e-22
1.03694e-22
1.03694e-22
1.03695e-22
1.03694e-22
1.03694e-22
1.03694e-22
1.03694e-22
1.03694e-22
1.03693e-22
1.03693e-22
1.03693e-22
1.03693e-22
1.03693e-22
1.03693e-22
1.03693e-22
1.03693e-22
1.03694e-22
1.03694e-22
1.03694e-22
1.03694e-22
1.03694e-22
1.03695e-22
1.03694e-22
1.03694e-22
1.03694e-22
1.03693e-22
1.03691e-22
1.03689e-22
1.03687e-22
1.03683e-22
1.03679e-22
1.03674e-22
1.03668e-22
1.0366e-22
1.03651e-22
1.0364e-22
1.03628e-22
1.03614e-22
1.03598e-22
1.03578e-22
1.03553e-22
1.03651e-22
2.59305e-22
2.59038e-22
2.59116e-22
2.59183e-22
2.5924e-22
2.5929e-22
2.59334e-22
2.59372e-22
2.59406e-22
2.59434e-22
2.59459e-22
2.59479e-22
2.59496e-22
2.5951e-22
2.59522e-22
2.59531e-22
2.59538e-22
2.59543e-22
2.59547e-22
2.5955e-22
2.59552e-22
2.59554e-22
2.59555e-22
2.59555e-22
2.59555e-22
2.59555e-22
2.59555e-22
2.59555e-22
2.59555e-22
2.59555e-22
2.59555e-22
2.59555e-22
2.59555e-22
2.59555e-22
2.59555e-22
2.59555e-22
2.59555e-22
2.59555e-22
2.59554e-22
2.59552e-22
2.5955e-22
2.59547e-22
2.59543e-22
2.59538e-22
2.59531e-22
2.59522e-22
2.5951e-22
2.59496e-22
2.59479e-22
2.59459e-22
2.59434e-22
2.59406e-22
2.59372e-22
2.59334e-22
2.5929e-22
2.5924e-22
2.59183e-22
2.59116e-22
2.59038e-22
2.59305e-22
6.47709e-22
6.46994e-22
6.47231e-22
6.47442e-22
6.47628e-22
6.47793e-22
6.47939e-22
6.48068e-22
6.4818e-22
6.48278e-22
6.48362e-22
6.48433e-22
6.48494e-22
6.48544e-22
6.48586e-22
6.4862e-22
6.48647e-22
6.48669e-22
6.48686e-22
6.48699e-22
6.4871e-22
6.48717e-22
6.48723e-22
6.48727e-22
6.4873e-22
6.48732e-22
6.48733e-22
6.48734e-22
6.48734e-22
6.48734e-22
6.48734e-22
6.48734e-22
6.48734e-22
6.48733e-22
6.48732e-22
6.4873e-22
6.48727e-22
6.48723e-22
6.48717e-22
6.4871e-22
6.48699e-22
6.48686e-22
6.48669e-22
6.48647e-22
6.4862e-22
6.48586e-22
6.48544e-22
6.48494e-22
6.48433e-22
6.48362e-22
6.48278e-22
6.4818e-22
6.48068e-22
6.47939e-22
6.47793e-22
6.47628e-22
6.47442e-22
6.47231e-22
6.46994e-22
6.47709e-22
1.63654e-21
1.63465e-21
1.63536e-21
1.63601e-21
1.63659e-21
1.63711e-21
1.63757e-21
1.63798e-21
1.63834e-21
1.63866e-21
1.63893e-21
1.63917e-21
1.63937e-21
1.63953e-21
1.63967e-21
1.63979e-21
1.63989e-21
1.63997e-21
1.64003e-21
1.64008e-21
1.64012e-21
1.64015e-21
1.64018e-21
1.6402e-21
1.64021e-21
1.64022e-21
1.64023e-21
1.64023e-21
1.64024e-21
1.64024e-21
1.64024e-21
1.64024e-21
1.64023e-21
1.64023e-21
1.64022e-21
1.64021e-21
1.6402e-21
1.64018e-21
1.64015e-21
1.64012e-21
1.64008e-21
1.64003e-21
1.63997e-21
1.63989e-21
1.63979e-21
1.63967e-21
1.63953e-21
1.63937e-21
1.63917e-21
1.63893e-21
1.63866e-21
1.63834e-21
1.63798e-21
1.63757e-21
1.63711e-21
1.63659e-21
1.63601e-21
1.63536e-21
1.63465e-21
1.63654e-21
4.2066e-21
4.2017e-21
4.20381e-21
4.20578e-21
4.20755e-21
4.20916e-21
4.21059e-21
4.21187e-21
4.213e-21
4.21399e-21
4.21485e-21
4.2156e-21
4.21624e-21
4.21678e-21
4.21724e-21
4.21763e-21
4.21795e-21
4.21822e-21
4.21844e-21
4.21862e-21
4.21877e-21
4.21888e-21
4.21898e-21
4.21905e-21
4.2191e-21
4.21915e-21
4.21918e-21
4.2192e-21
4.21922e-21
4.21922e-21
4.21922e-21
4.21922e-21
4.2192e-21
4.21918e-21
4.21915e-21
4.2191e-21
4.21905e-21
4.21898e-21
4.21888e-21
4.21877e-21
4.21862e-21
4.21844e-21
4.21822e-21
4.21795e-21
4.21763e-21
4.21724e-21
4.21678e-21
4.21624e-21
4.2156e-21
4.21485e-21
4.21399e-21
4.213e-21
4.21187e-21
4.21059e-21
4.20916e-21
4.20755e-21
4.20578e-21
4.20381e-21
4.2017e-21
4.2066e-21
1.10278e-20
1.10153e-20
1.10216e-20
1.10275e-20
1.10329e-20
1.10378e-20
1.10422e-20
1.10462e-20
1.10497e-20
1.10527e-20
1.10554e-20
1.10578e-20
1.10598e-20
1.10615e-20
1.1063e-20
1.10643e-20
1.10654e-20
1.10662e-20
1.1067e-20
1.10676e-20
1.10681e-20
1.10685e-20
1.10688e-20
1.10691e-20
1.10693e-20
1.10695e-20
1.10696e-20
1.10697e-20
1.10697e-20
1.10698e-20
1.10698e-20
1.10697e-20
1.10697e-20
1.10696e-20
1.10695e-20
1.10693e-20
1.10691e-20
1.10688e-20
1.10685e-20
1.10681e-20
1.10676e-20
1.1067e-20
1.10662e-20
1.10654e-20
1.10643e-20
1.1063e-20
1.10615e-20
1.10598e-20
1.10578e-20
1.10554e-20
1.10527e-20
1.10497e-20
1.10462e-20
1.10422e-20
1.10378e-20
1.10329e-20
1.10275e-20
1.10216e-20
1.10153e-20
1.10278e-20
2.95203e-20
2.94891e-20
2.95078e-20
2.95258e-20
2.95422e-20
2.95572e-20
2.95707e-20
2.95828e-20
2.95936e-20
2.96032e-20
2.96116e-20
2.9619e-20
2.96254e-20
2.96309e-20
2.96357e-20
2.96397e-20
2.96432e-20
2.96461e-20
2.96486e-20
2.96506e-20
2.96523e-20
2.96538e-20
2.96549e-20
2.96559e-20
2.96566e-20
2.96572e-20
2.96577e-20
2.9658e-20
2.96582e-20
2.96583e-20
2.96583e-20
2.96582e-20
2.9658e-20
2.96577e-20
2.96572e-20
2.96566e-20
2.96559e-20
2.96549e-20
2.96538e-20
2.96523e-20
2.96506e-20
2.96486e-20
2.96461e-20
2.96432e-20
2.96397e-20
2.96357e-20
2.96309e-20
2.96254e-20
2.9619e-20
2.96116e-20
2.96032e-20
2.95936e-20
2.95828e-20
2.95707e-20
2.95572e-20
2.95422e-20
2.95258e-20
2.95078e-20
2.94891e-20
2.95203e-20
8.0748e-20
8.06724e-20
8.07291e-20
8.07836e-20
8.0834e-20
8.088e-20
8.09217e-20
8.09593e-20
8.09929e-20
8.10228e-20
8.10492e-20
8.10724e-20
8.10927e-20
8.11104e-20
8.11257e-20
8.11388e-20
8.11501e-20
8.11597e-20
8.11679e-20
8.11748e-20
8.11806e-20
8.11854e-20
8.11894e-20
8.11927e-20
8.11954e-20
8.11975e-20
8.11991e-20
8.12002e-20
8.1201e-20
8.12014e-20
8.12014e-20
8.1201e-20
8.12002e-20
8.11991e-20
8.11975e-20
8.11954e-20
8.11927e-20
8.11894e-20
8.11854e-20
8.11806e-20
8.11748e-20
8.11679e-20
8.11597e-20
8.11501e-20
8.11388e-20
8.11257e-20
8.11104e-20
8.10927e-20
8.10724e-20
8.10492e-20
8.10228e-20
8.09929e-20
8.09593e-20
8.09217e-20
8.088e-20
8.0834e-20
8.07836e-20
8.07291e-20
8.06724e-20
8.0748e-20
2.25825e-19
2.25649e-19
2.25823e-19
2.25991e-19
2.26147e-19
2.2629e-19
2.2642e-19
2.26537e-19
2.26643e-19
2.26737e-19
2.26821e-19
2.26895e-19
2.2696e-19
2.27017e-19
2.27066e-19
2.27109e-19
2.27146e-19
2.27178e-19
2.27205e-19
2.27229e-19
2.27248e-19
2.27265e-19
2.27279e-19
2.2729e-19
2.27299e-19
2.27307e-19
2.27312e-19
2.27316e-19
2.27319e-19
2.2732e-19
2.2732e-19
2.27319e-19
2.27316e-19
2.27312e-19
2.27307e-19
2.27299e-19
2.2729e-19
2.27279e-19
2.27265e-19
2.27248e-19
2.27229e-19
2.27205e-19
2.27178e-19
2.27146e-19
2.27109e-19
2.27066e-19
2.27017e-19
2.2696e-19
2.26895e-19
2.26821e-19
2.26737e-19
2.26643e-19
2.26537e-19
2.2642e-19
2.2629e-19
2.26147e-19
2.25991e-19
2.25823e-19
2.25649e-19
2.25825e-19
6.46077e-19
6.45701e-19
6.46242e-19
6.46767e-19
6.47256e-19
6.47706e-19
6.48118e-19
6.48491e-19
6.48827e-19
6.49129e-19
6.49398e-19
6.49636e-19
6.49847e-19
6.50032e-19
6.50194e-19
6.50336e-19
6.50459e-19
6.50565e-19
6.50656e-19
6.50735e-19
6.50802e-19
6.50858e-19
6.50906e-19
6.50945e-19
6.50977e-19
6.51003e-19
6.51023e-19
6.51038e-19
6.51047e-19
6.51052e-19
6.51052e-19
6.51047e-19
6.51038e-19
6.51023e-19
6.51003e-19
6.50977e-19
6.50945e-19
6.50906e-19
6.50858e-19
6.50802e-19
6.50735e-19
6.50656e-19
6.50565e-19
6.50459e-19
6.50336e-19
6.50194e-19
6.50032e-19
6.49847e-19
6.49636e-19
6.49398e-19
6.49129e-19
6.48827e-19
6.48491e-19
6.48118e-19
6.47706e-19
6.47256e-19
6.46767e-19
6.46242e-19
6.45701e-19
6.46077e-19
1.89202e-18
1.89134e-18
1.89305e-18
1.89472e-18
1.89628e-18
1.89773e-18
1.89905e-18
1.90025e-18
1.90134e-18
1.90232e-18
1.9032e-18
1.90398e-18
1.90467e-18
1.90528e-18
1.90582e-18
1.90629e-18
1.90671e-18
1.90706e-18
1.90737e-18
1.90764e-18
1.90787e-18
1.90807e-18
1.90823e-18
1.90837e-18
1.90848e-18
1.90857e-18
1.90864e-18
1.90869e-18
1.90873e-18
1.90874e-18
1.90874e-18
1.90873e-18
1.90869e-18
1.90864e-18
1.90857e-18
1.90848e-18
1.90837e-18
1.90823e-18
1.90807e-18
1.90787e-18
1.90764e-18
1.90737e-18
1.90706e-18
1.90671e-18
1.90629e-18
1.90582e-18
1.90528e-18
1.90467e-18
1.90398e-18
1.9032e-18
1.90232e-18
1.90134e-18
1.90025e-18
1.89905e-18
1.89773e-18
1.89628e-18
1.89472e-18
1.89305e-18
1.89134e-18
1.89202e-18
5.67479e-18
5.6741e-18
5.67965e-18
5.68505e-18
5.69013e-18
5.69485e-18
5.69918e-18
5.70313e-18
5.70672e-18
5.70995e-18
5.71286e-18
5.71546e-18
5.71778e-18
5.71983e-18
5.72165e-18
5.72325e-18
5.72465e-18
5.72588e-18
5.72694e-18
5.72786e-18
5.72866e-18
5.72934e-18
5.72991e-18
5.73039e-18
5.73079e-18
5.73111e-18
5.73136e-18
5.73154e-18
5.73166e-18
5.73172e-18
5.73172e-18
5.73166e-18
5.73154e-18
5.73136e-18
5.73111e-18
5.73079e-18
5.73039e-18
5.72991e-18
5.72934e-18
5.72866e-18
5.72786e-18
5.72694e-18
5.72588e-18
5.72465e-18
5.72325e-18
5.72165e-18
5.71983e-18
5.71778e-18
5.71546e-18
5.71286e-18
5.70995e-18
5.70672e-18
5.70313e-18
5.69918e-18
5.69485e-18
5.69013e-18
5.68505e-18
5.67965e-18
5.6741e-18
5.67479e-18
1.74417e-17
1.74439e-17
1.74622e-17
1.74801e-17
1.7497e-17
1.75127e-17
1.75272e-17
1.75404e-17
1.75525e-17
1.75634e-17
1.75732e-17
1.7582e-17
1.75899e-17
1.75969e-17
1.76031e-17
1.76086e-17
1.76135e-17
1.76177e-17
1.76214e-17
1.76246e-17
1.76274e-17
1.76298e-17
1.76318e-17
1.76335e-17
1.76349e-17
1.76361e-17
1.7637e-17
1.76376e-17
1.7638e-17
1.76383e-17
1.76383e-17
1.7638e-17
1.76376e-17
1.7637e-17
1.76361e-17
1.76349e-17
1.76335e-17
1.76318e-17
1.76298e-17
1.76274e-17
1.76246e-17
1.76214e-17
1.76177e-17
1.76135e-17
1.76086e-17
1.76031e-17
1.75969e-17
1.75899e-17
1.7582e-17
1.75732e-17
1.75634e-17
1.75525e-17
1.75404e-17
1.75272e-17
1.75127e-17
1.7497e-17
1.74801e-17
1.74622e-17
1.74439e-17
1.74417e-17
5.4958e-17
5.49784e-17
5.50402e-17
5.51007e-17
5.5158e-17
5.52114e-17
5.52608e-17
5.5306e-17
5.53473e-17
5.53848e-17
5.54186e-17
5.54491e-17
5.54764e-17
5.55008e-17
5.55224e-17
5.55417e-17
5.55586e-17
5.55736e-17
5.55867e-17
5.5598e-17
5.56079e-17
5.56164e-17
5.56236e-17
5.56297e-17
5.56348e-17
5.56389e-17
5.56421e-17
5.56444e-17
5.5646e-17
5.56467e-17
5.56467e-17
5.5646e-17
5.56444e-17
5.56421e-17
5.56389e-17
5.56348e-17
5.56297e-17
5.56236e-17
5.56164e-17
5.56079e-17
5.5598e-17
5.55867e-17
5.55736e-17
5.55586e-17
5.55417e-17
5.55224e-17
5.55008e-17
5.54764e-17
5.54491e-17
5.54186e-17
5.53848e-17
5.53473e-17
5.5306e-17
5.52608e-17
5.52114e-17
5.5158e-17
5.51007e-17
5.50402e-17
5.49784e-17
5.4958e-17
1.77577e-16
1.77685e-16
1.77898e-16
1.78108e-16
1.78306e-16
1.78492e-16
1.78664e-16
1.78822e-16
1.78967e-16
1.79098e-16
1.79217e-16
1.79324e-16
1.79421e-16
1.79507e-16
1.79584e-16
1.79652e-16
1.79713e-16
1.79766e-16
1.79813e-16
1.79854e-16
1.79889e-16
1.7992e-16
1.79946e-16
1.79968e-16
1.79987e-16
1.80001e-16
1.80013e-16
1.80022e-16
1.80027e-16
1.8003e-16
1.8003e-16
1.80027e-16
1.80022e-16
1.80013e-16
1.80001e-16
1.79987e-16
1.79968e-16
1.79946e-16
1.7992e-16
1.79889e-16
1.79854e-16
1.79813e-16
1.79766e-16
1.79713e-16
1.79652e-16
1.79584e-16
1.79507e-16
1.79421e-16
1.79324e-16
1.79217e-16
1.79098e-16
1.78967e-16
1.78822e-16
1.78664e-16
1.78492e-16
1.78306e-16
1.78108e-16
1.77898e-16
1.77685e-16
1.77577e-16
5.88404e-16
5.88891e-16
5.89645e-16
5.90385e-16
5.91091e-16
5.91752e-16
5.92364e-16
5.92928e-16
5.93444e-16
5.93914e-16
5.9434e-16
5.94726e-16
5.95072e-16
5.95383e-16
5.95661e-16
5.95909e-16
5.96128e-16
5.96322e-16
5.96493e-16
5.96642e-16
5.96771e-16
5.96883e-16
5.96979e-16
5.9706e-16
5.97128e-16
5.97182e-16
5.97225e-16
5.97256e-16
5.97277e-16
5.97287e-16
5.97287e-16
5.97277e-16
5.97256e-16
5.97225e-16
5.97182e-16
5.97128e-16
5.9706e-16
5.96979e-16
5.96883e-16
5.96771e-16
5.96642e-16
5.96493e-16
5.96322e-16
5.96128e-16
5.95909e-16
5.95661e-16
5.95383e-16
5.95072e-16
5.94726e-16
5.9434e-16
5.93914e-16
5.93444e-16
5.92928e-16
5.92364e-16
5.91752e-16
5.91091e-16
5.90385e-16
5.89645e-16
5.88891e-16
5.88404e-16
1.99896e-15
2.00101e-15
2.00373e-15
2.00641e-15
2.00897e-15
2.01137e-15
2.0136e-15
2.01566e-15
2.01754e-15
2.01925e-15
2.02081e-15
2.02222e-15
2.0235e-15
2.02464e-15
2.02566e-15
2.02657e-15
2.02738e-15
2.0281e-15
2.02873e-15
2.02928e-15
2.02976e-15
2.03018e-15
2.03053e-15
2.03084e-15
2.03109e-15
2.03129e-15
2.03145e-15
2.03157e-15
2.03164e-15
2.03168e-15
2.03168e-15
2.03164e-15
2.03157e-15
2.03145e-15
2.03129e-15
2.03109e-15
2.03084e-15
2.03053e-15
2.03018e-15
2.02976e-15
2.02928e-15
2.02873e-15
2.0281e-15
2.02738e-15
2.02657e-15
2.02566e-15
2.02464e-15
2.0235e-15
2.02222e-15
2.02081e-15
2.01925e-15
2.01754e-15
2.01566e-15
2.0136e-15
2.01137e-15
2.00897e-15
2.00641e-15
2.00373e-15
2.00101e-15
1.99896e-15
6.95905e-15
6.96742e-15
6.97747e-15
6.9874e-15
6.99689e-15
7.0058e-15
7.01407e-15
7.02171e-15
7.02871e-15
7.03511e-15
7.04092e-15
7.04619e-15
7.05094e-15
7.05522e-15
7.05905e-15
7.06246e-15
7.0655e-15
7.06819e-15
7.07056e-15
7.07264e-15
7.07446e-15
7.07603e-15
7.07737e-15
7.07851e-15
7.07946e-15
7.08023e-15
7.08083e-15
7.08128e-15
7.08157e-15
7.08172e-15
7.08172e-15
7.08157e-15
7.08128e-15
7.08083e-15
7.08023e-15
7.07946e-15
7.07851e-15
7.07737e-15
7.07603e-15
7.07446e-15
7.07264e-15
7.07056e-15
7.06819e-15
7.0655e-15
7.06246e-15
7.05905e-15
7.05522e-15
7.05094e-15
7.04619e-15
7.04092e-15
7.03511e-15
7.02871e-15
7.02171e-15
7.01407e-15
7.0058e-15
6.99689e-15
6.9874e-15
6.97747e-15
6.96742e-15
6.95905e-15
2.48064e-14
2.484e-14
2.48779e-14
2.49154e-14
2.49513e-14
2.4985e-14
2.50164e-14
2.50454e-14
2.50719e-14
2.50962e-14
2.51183e-14
2.51384e-14
2.51565e-14
2.51727e-14
2.51873e-14
2.52004e-14
2.5212e-14
2.52222e-14
2.52313e-14
2.52393e-14
2.52462e-14
2.52522e-14
2.52574e-14
2.52617e-14
2.52654e-14
2.52683e-14
2.52707e-14
2.52724e-14
2.52735e-14
2.5274e-14
2.5274e-14
2.52735e-14
2.52724e-14
2.52707e-14
2.52683e-14
2.52654e-14
2.52617e-14
2.52574e-14
2.52522e-14
2.52462e-14
2.52393e-14
2.52313e-14
2.52222e-14
2.5212e-14
2.52004e-14
2.51873e-14
2.51727e-14
2.51565e-14
2.51384e-14
2.51183e-14
2.50962e-14
2.50719e-14
2.50454e-14
2.50164e-14
2.4985e-14
2.49513e-14
2.49154e-14
2.48779e-14
2.484e-14
2.48064e-14
9.0438e-14
9.05729e-14
9.07185e-14
9.08629e-14
9.10014e-14
9.11316e-14
9.12527e-14
9.13646e-14
9.14673e-14
9.15612e-14
9.16467e-14
9.17243e-14
9.17943e-14
9.18574e-14
9.1914e-14
9.19645e-14
9.20096e-14
9.20495e-14
9.20847e-14
9.21156e-14
9.21426e-14
9.2166e-14
9.21861e-14
9.22031e-14
9.22172e-14
9.22287e-14
9.22377e-14
9.22444e-14
9.22488e-14
9.2251e-14
9.2251e-14
9.22488e-14
9.22444e-14
9.22377e-14
9.22287e-14
9.22172e-14
9.22031e-14
9.21861e-14
9.2166e-14
9.21426e-14
9.21156e-14
9.20847e-14
9.20495e-14
9.20096e-14
9.19645e-14
9.1914e-14
9.18574e-14
9.17943e-14
9.17243e-14
9.16467e-14
9.15612e-14
9.14673e-14
9.13646e-14
9.12527e-14
9.11316e-14
9.10014e-14
9.08629e-14
9.07185e-14
9.05729e-14
9.0438e-14
3.36729e-13
3.3727e-13
3.3784e-13
3.38406e-13
3.3895e-13
3.39461e-13
3.39937e-13
3.40377e-13
3.4078e-13
3.4115e-13
3.41486e-13
3.41791e-13
3.42067e-13
3.42315e-13
3.42538e-13
3.42737e-13
3.42914e-13
3.43072e-13
3.43211e-13
3.43333e-13
3.43439e-13
3.43531e-13
3.43611e-13
3.43678e-13
3.43734e-13
3.43779e-13
3.43815e-13
3.43841e-13
3.43858e-13
3.43867e-13
3.43867e-13
3.43858e-13
3.43841e-13
3.43815e-13
3.43779e-13
3.43734e-13
3.43678e-13
3.43611e-13
3.43531e-13
3.43439e-13
3.43333e-13
3.43211e-13
3.43072e-13
3.42914e-13
3.42737e-13
3.42538e-13
3.42315e-13
3.42067e-13
3.41791e-13
3.41486e-13
3.4115e-13
3.4078e-13
3.40377e-13
3.39937e-13
3.39461e-13
3.3895e-13
3.38406e-13
3.3784e-13
3.3727e-13
3.36729e-13
1.27811e-12
1.28029e-12
1.28255e-12
1.28481e-12
1.28698e-12
1.28902e-12
1.29091e-12
1.29267e-12
1.29428e-12
1.29575e-12
1.2971e-12
1.29831e-12
1.29942e-12
1.30041e-12
1.3013e-12
1.30209e-12
1.3028e-12
1.30343e-12
1.30399e-12
1.30447e-12
1.3049e-12
1.30527e-12
1.30559e-12
1.30585e-12
1.30608e-12
1.30626e-12
1.3064e-12
1.30651e-12
1.30658e-12
1.30661e-12
1.30661e-12
1.30658e-12
1.30651e-12
1.3064e-12
1.30626e-12
1.30608e-12
1.30585e-12
1.30559e-12
1.30527e-12
1.3049e-12
1.30447e-12
1.30399e-12
1.30343e-12
1.3028e-12
1.30209e-12
1.3013e-12
1.30041e-12
1.29942e-12
1.29831e-12
1.2971e-12
1.29575e-12
1.29428e-12
1.29267e-12
1.29091e-12
1.28902e-12
1.28698e-12
1.28481e-12
1.28255e-12
1.28029e-12
1.27811e-12
4.93474e-12
4.94359e-12
4.95273e-12
4.96184e-12
4.9706e-12
4.97884e-12
4.98652e-12
4.99361e-12
5.00012e-12
5.00608e-12
5.01151e-12
5.01643e-12
5.02089e-12
5.0249e-12
5.0285e-12
5.03171e-12
5.03458e-12
5.03712e-12
5.03937e-12
5.04134e-12
5.04307e-12
5.04456e-12
5.04584e-12
5.04693e-12
5.04783e-12
5.04857e-12
5.04915e-12
5.04957e-12
5.04985e-12
5.04999e-12
5.04999e-12
5.04985e-12
5.04957e-12
5.04915e-12
5.04857e-12
5.04783e-12
5.04693e-12
5.04584e-12
5.04456e-12
5.04307e-12
5.04134e-12
5.03937e-12
5.03712e-12
5.03458e-12
5.03171e-12
5.0285e-12
5.0249e-12
5.02089e-12
5.01643e-12
5.01151e-12
5.00608e-12
5.00012e-12
4.99361e-12
4.98652e-12
4.97884e-12
4.9706e-12
4.96184e-12
4.95273e-12
4.94359e-12
4.93474e-12
1.9331e-11
1.93671e-11
1.94043e-11
1.94415e-11
1.94773e-11
1.9511e-11
1.95423e-11
1.95713e-11
1.95979e-11
1.96222e-11
1.96444e-11
1.96645e-11
1.96827e-11
1.96991e-11
1.97138e-11
1.97269e-11
1.97386e-11
1.9749e-11
1.97582e-11
1.97662e-11
1.97733e-11
1.97794e-11
1.97846e-11
1.97891e-11
1.97928e-11
1.97958e-11
1.97981e-11
1.97999e-11
1.9801e-11
1.98016e-11
1.98016e-11
1.9801e-11
1.97999e-11
1.97981e-11
1.97958e-11
1.97928e-11
1.97891e-11
1.97846e-11
1.97794e-11
1.97733e-11
1.97662e-11
1.97582e-11
1.9749e-11
1.97386e-11
1.97269e-11
1.97138e-11
1.96991e-11
1.96827e-11
1.96645e-11
1.96444e-11
1.96222e-11
1.95979e-11
1.95713e-11
1.95423e-11
1.9511e-11
1.94773e-11
1.94415e-11
1.94043e-11
1.93671e-11
1.9331e-11
7.65982e-11
7.67464e-11
7.68994e-11
7.70525e-11
7.71996e-11
7.73381e-11
7.7467e-11
7.75862e-11
7.76956e-11
7.77957e-11
7.78869e-11
7.79696e-11
7.80444e-11
7.81118e-11
7.81722e-11
7.82263e-11
7.82745e-11
7.83172e-11
7.83549e-11
7.8388e-11
7.8417e-11
7.8442e-11
7.84635e-11
7.84818e-11
7.8497e-11
7.85093e-11
7.8519e-11
7.85262e-11
7.85309e-11
7.85332e-11
7.85332e-11
7.85309e-11
7.85262e-11
7.8519e-11
7.85093e-11
7.8497e-11
7.84818e-11
7.84635e-11
7.8442e-11
7.8417e-11
7.8388e-11
7.83549e-11
7.83172e-11
7.82745e-11
7.82263e-11
7.81722e-11
7.81118e-11
7.80444e-11
7.79696e-11
7.78869e-11
7.77957e-11
7.76956e-11
7.75862e-11
7.7467e-11
7.73381e-11
7.71996e-11
7.70525e-11
7.68994e-11
7.67464e-11
7.65982e-11
3.05933e-10
3.06543e-10
3.07174e-10
3.07806e-10
3.08413e-10
3.08985e-10
3.09517e-10
3.10009e-10
3.10461e-10
3.10874e-10
3.1125e-10
3.11592e-10
3.119e-10
3.12178e-10
3.12428e-10
3.12651e-10
3.12849e-10
3.13026e-10
3.13181e-10
3.13318e-10
3.13437e-10
3.1354e-10
3.13629e-10
3.13704e-10
3.13767e-10
3.13818e-10
3.13858e-10
3.13887e-10
3.13907e-10
3.13916e-10
3.13916e-10
3.13907e-10
3.13887e-10
3.13858e-10
3.13818e-10
3.13767e-10
3.13704e-10
3.13629e-10
3.1354e-10
3.13437e-10
3.13318e-10
3.13181e-10
3.13026e-10
3.12849e-10
3.12651e-10
3.12428e-10
3.12178e-10
3.119e-10
3.11592e-10
3.1125e-10
3.10874e-10
3.10461e-10
3.10009e-10
3.09517e-10
3.08985e-10
3.08413e-10
3.07806e-10
3.07174e-10
3.06543e-10
3.05933e-10
1.2266e-09
1.2291e-09
1.2317e-09
1.23431e-09
1.23682e-09
1.23918e-09
1.24137e-09
1.2434e-09
1.24526e-09
1.24697e-09
1.24852e-09
1.24992e-09
1.2512e-09
1.25234e-09
1.25337e-09
1.25429e-09
1.25511e-09
1.25583e-09
1.25647e-09
1.25704e-09
1.25753e-09
1.25795e-09
1.25832e-09
1.25863e-09
1.25889e-09
1.2591e-09
1.25926e-09
1.25938e-09
1.25946e-09
1.2595e-09
1.2595e-09
1.25946e-09
1.25938e-09
1.25926e-09
1.2591e-09
1.25889e-09
1.25863e-09
1.25832e-09
1.25795e-09
1.25753e-09
1.25704e-09
1.25647e-09
1.25583e-09
1.25511e-09
1.25429e-09
1.25337e-09
1.25234e-09
1.2512e-09
1.24992e-09
1.24852e-09
1.24697e-09
1.24526e-09
1.2434e-09
1.24137e-09
1.23918e-09
1.23682e-09
1.23431e-09
1.2317e-09
1.2291e-09
1.2266e-09
4.91356e-09
4.9238e-09
4.93448e-09
4.94517e-09
4.95545e-09
4.96512e-09
4.97412e-09
4.98244e-09
4.99007e-09
4.99706e-09
5.00342e-09
5.00918e-09
5.0144e-09
5.01909e-09
5.0233e-09
5.02706e-09
5.03042e-09
5.03339e-09
5.03601e-09
5.03832e-09
5.04033e-09
5.04207e-09
5.04357e-09
5.04484e-09
5.04589e-09
5.04675e-09
5.04742e-09
5.04792e-09
5.04825e-09
5.04841e-09
5.04841e-09
5.04825e-09
5.04792e-09
5.04742e-09
5.04675e-09
5.04589e-09
5.04484e-09
5.04357e-09
5.04207e-09
5.04033e-09
5.03832e-09
5.03601e-09
5.03339e-09
5.03042e-09
5.02706e-09
5.0233e-09
5.01909e-09
5.0144e-09
5.00918e-09
5.00342e-09
4.99706e-09
4.99007e-09
4.98244e-09
4.97412e-09
4.96512e-09
4.95545e-09
4.94517e-09
4.93448e-09
4.9238e-09
4.91356e-09
1.95598e-08
1.96012e-08
1.96445e-08
1.96879e-08
1.97295e-08
1.97687e-08
1.98052e-08
1.98389e-08
1.98698e-08
1.98981e-08
1.99239e-08
1.99472e-08
1.99683e-08
1.99873e-08
2.00044e-08
2.00196e-08
2.00332e-08
2.00452e-08
2.00558e-08
2.00651e-08
2.00733e-08
2.00803e-08
2.00864e-08
2.00915e-08
2.00958e-08
2.00993e-08
2.0102e-08
2.0104e-08
2.01053e-08
2.0106e-08
2.0106e-08
2.01053e-08
2.0104e-08
2.0102e-08
2.00993e-08
2.00958e-08
2.00915e-08
2.00864e-08
2.00803e-08
2.00733e-08
2.00651e-08
2.00558e-08
2.00452e-08
2.00332e-08
2.00196e-08
2.00044e-08
1.99873e-08
1.99683e-08
1.99472e-08
1.99239e-08
1.98981e-08
1.98698e-08
1.98389e-08
1.98052e-08
1.97687e-08
1.97295e-08
1.96879e-08
1.96445e-08
1.96012e-08
1.95598e-08
7.69007e-08
7.70651e-08
7.72377e-08
7.74103e-08
7.75761e-08
7.7732e-08
7.78771e-08
7.80111e-08
7.81341e-08
7.82466e-08
7.8349e-08
7.84418e-08
7.85257e-08
7.86012e-08
7.86689e-08
7.87295e-08
7.87834e-08
7.88311e-08
7.88733e-08
7.89104e-08
7.89427e-08
7.89707e-08
7.89947e-08
7.9015e-08
7.9032e-08
7.90458e-08
7.90566e-08
7.90645e-08
7.90698e-08
7.90724e-08
7.90724e-08
7.90698e-08
7.90645e-08
7.90566e-08
7.90458e-08
7.9032e-08
7.9015e-08
7.89947e-08
7.89707e-08
7.89427e-08
7.89104e-08
7.88733e-08
7.88311e-08
7.87834e-08
7.87295e-08
7.86689e-08
7.86012e-08
7.85257e-08
7.84418e-08
7.8349e-08
7.82466e-08
7.81341e-08
7.80111e-08
7.78771e-08
7.7732e-08
7.75761e-08
7.74103e-08
7.72377e-08
7.70651e-08
7.69007e-08
2.96523e-07
2.9716e-07
2.9783e-07
2.985e-07
2.99142e-07
2.99747e-07
3.00309e-07
3.00828e-07
3.01305e-07
3.0174e-07
3.02137e-07
3.02496e-07
3.02821e-07
3.03113e-07
3.03375e-07
3.03609e-07
3.03818e-07
3.04003e-07
3.04166e-07
3.04309e-07
3.04434e-07
3.04543e-07
3.04635e-07
3.04714e-07
3.0478e-07
3.04833e-07
3.04875e-07
3.04906e-07
3.04926e-07
3.04936e-07
3.04936e-07
3.04926e-07
3.04906e-07
3.04875e-07
3.04833e-07
3.0478e-07
3.04714e-07
3.04635e-07
3.04543e-07
3.04434e-07
3.04309e-07
3.04166e-07
3.04003e-07
3.03818e-07
3.03609e-07
3.03375e-07
3.03113e-07
3.02821e-07
3.02496e-07
3.02137e-07
3.0174e-07
3.01305e-07
3.00828e-07
3.00309e-07
2.99747e-07
2.99142e-07
2.985e-07
2.9783e-07
2.9716e-07
2.96523e-07
1.11255e-06
1.11495e-06
1.11746e-06
1.11997e-06
1.12237e-06
1.12463e-06
1.12674e-06
1.12868e-06
1.13046e-06
1.13209e-06
1.13357e-06
1.13492e-06
1.13613e-06
1.13722e-06
1.1382e-06
1.13908e-06
1.13986e-06
1.14055e-06
1.14116e-06
1.14169e-06
1.14216e-06
1.14256e-06
1.14291e-06
1.1432e-06
1.14345e-06
1.14365e-06
1.1438e-06
1.14392e-06
1.14399e-06
1.14403e-06
1.14403e-06
1.14399e-06
1.14392e-06
1.1438e-06
1.14365e-06
1.14345e-06
1.1432e-06
1.14291e-06
1.14256e-06
1.14216e-06
1.14169e-06
1.14116e-06
1.14055e-06
1.13986e-06
1.13908e-06
1.1382e-06
1.13722e-06
1.13613e-06
1.13492e-06
1.13357e-06
1.13209e-06
1.13046e-06
1.12868e-06
1.12674e-06
1.12463e-06
1.12237e-06
1.11997e-06
1.11746e-06
1.11495e-06
1.11255e-06
4.02594e-06
4.03453e-06
4.04355e-06
4.05253e-06
4.06114e-06
4.06923e-06
4.07675e-06
4.08369e-06
4.09006e-06
4.09589e-06
4.10118e-06
4.10599e-06
4.11032e-06
4.11423e-06
4.11773e-06
4.12085e-06
4.12364e-06
4.1261e-06
4.12828e-06
4.13019e-06
4.13186e-06
4.1333e-06
4.13454e-06
4.13559e-06
4.13646e-06
4.13717e-06
4.13773e-06
4.13814e-06
4.13841e-06
4.13854e-06
4.13854e-06
4.13841e-06
4.13814e-06
4.13773e-06
4.13717e-06
4.13646e-06
4.13559e-06
4.13454e-06
4.1333e-06
4.13186e-06
4.13019e-06
4.12828e-06
4.1261e-06
4.12364e-06
4.12085e-06
4.11773e-06
4.11423e-06
4.11032e-06
4.10599e-06
4.10118e-06
4.09589e-06
4.09006e-06
4.08369e-06
4.07675e-06
4.06923e-06
4.06114e-06
4.05253e-06
4.04355e-06
4.03453e-06
4.02594e-06
1.39116e-05
1.39408e-05
1.39714e-05
1.40018e-05
1.40309e-05
1.40583e-05
1.40837e-05
1.41072e-05
1.41287e-05
1.41484e-05
1.41662e-05
1.41825e-05
1.41971e-05
1.42103e-05
1.42221e-05
1.42327e-05
1.4242e-05
1.42504e-05
1.42577e-05
1.42642e-05
1.42698e-05
1.42747e-05
1.42788e-05
1.42824e-05
1.42853e-05
1.42877e-05
1.42896e-05
1.4291e-05
1.42919e-05
1.42923e-05
1.42923e-05
1.42919e-05
1.4291e-05
1.42896e-05
1.42877e-05
1.42853e-05
1.42824e-05
1.42788e-05
1.42747e-05
1.42698e-05
1.42642e-05
1.42577e-05
1.42504e-05
1.4242e-05
1.42327e-05
1.42221e-05
1.42103e-05
1.41971e-05
1.41825e-05
1.41662e-05
1.41484e-05
1.41287e-05
1.41072e-05
1.40837e-05
1.40583e-05
1.40309e-05
1.40018e-05
1.39714e-05
1.39408e-05
1.39116e-05
4.53968e-05
4.54895e-05
4.55863e-05
4.56824e-05
4.57742e-05
4.58605e-05
4.59406e-05
4.60146e-05
4.60824e-05
4.61444e-05
4.62007e-05
4.62518e-05
4.62979e-05
4.63394e-05
4.63766e-05
4.64098e-05
4.64394e-05
4.64656e-05
4.64887e-05
4.6509e-05
4.65267e-05
4.6542e-05
4.65552e-05
4.65663e-05
4.65755e-05
4.65831e-05
4.6589e-05
4.65933e-05
4.65962e-05
4.65976e-05
4.65976e-05
4.65962e-05
4.65933e-05
4.6589e-05
4.65831e-05
4.65755e-05
4.65663e-05
4.65552e-05
4.6542e-05
4.65267e-05
4.6509e-05
4.64887e-05
4.64656e-05
4.64394e-05
4.64098e-05
4.63766e-05
4.63394e-05
4.62979e-05
4.62518e-05
4.62007e-05
4.61444e-05
4.60824e-05
4.60146e-05
4.59406e-05
4.58605e-05
4.57742e-05
4.56824e-05
4.55863e-05
4.54895e-05
4.53968e-05
0.000138183
0.000138454
0.000138736
0.000139015
0.000139281
0.000139531
0.000139763
0.000139977
0.000140173
0.000140353
0.000140516
0.000140664
0.000140797
0.000140917
0.000141025
0.000141121
0.000141206
0.000141282
0.000141349
0.000141408
0.000141459
0.000141503
0.000141541
0.000141573
0.0001416
0.000141622
0.000141639
0.000141651
0.00014166
0.000141664
0.000141664
0.00014166
0.000141651
0.000141639
0.000141622
0.0001416
0.000141573
0.000141541
0.000141503
0.000141459
0.000141408
0.000141349
0.000141282
0.000141206
0.000141121
0.000141025
0.000140917
0.000140797
0.000140664
0.000140516
0.000140353
0.000140173
0.000139977
0.000139763
0.000139531
0.000139281
0.000139015
0.000138736
0.000138454
0.000138183
0.000387116
0.000387833
0.000388574
0.000389305
0.000390003
0.000390657
0.000391264
0.000391824
0.000392338
0.000392807
0.000393233
0.00039362
0.000393968
0.000394282
0.000394563
0.000394814
0.000395037
0.000395235
0.00039541
0.000395563
0.000395696
0.000395812
0.000395911
0.000395995
0.000396065
0.000396122
0.000396166
0.000396199
0.000396221
0.000396231
0.000396231
0.000396221
0.000396199
0.000396166
0.000396122
0.000396065
0.000395995
0.000395911
0.000395812
0.000395696
0.000395563
0.00039541
0.000395235
0.000395037
0.000394814
0.000394563
0.000394282
0.000393968
0.00039362
0.000393233
0.000392807
0.000392338
0.000391824
0.000391264
0.000390657
0.000390003
0.000389305
0.000388574
0.000387833
0.000387116
0.00098437
0.000986055
0.000987786
0.000989488
0.00099111
0.000992629
0.00099404
0.000995339
0.000996531
0.000997619
0.000998608
0.000999504
0.00100031
0.00100104
0.00100169
0.00100227
0.00100279
0.00100325
0.00100365
0.00100401
0.00100432
0.00100459
0.00100482
0.00100501
0.00100517
0.0010053
0.00100541
0.00100548
0.00100553
0.00100556
0.00100556
0.00100553
0.00100548
0.00100541
0.0010053
0.00100517
0.00100501
0.00100482
0.00100459
0.00100432
0.00100401
0.00100365
0.00100325
0.00100279
0.00100227
0.00100169
0.00100104
0.00100031
0.000999504
0.000998608
0.000997619
0.000996531
0.000995339
0.00099404
0.000992629
0.00099111
0.000989488
0.000987786
0.000986055
0.00098437
0.00224311
0.00224658
0.00225011
0.00225357
0.00225686
0.00225994
0.0022628
0.00226543
0.00226784
0.00227005
0.00227205
0.00227386
0.0022755
0.00227697
0.00227829
0.00227946
0.00228051
0.00228144
0.00228225
0.00228297
0.0022836
0.00228414
0.0022846
0.002285
0.00228532
0.00228559
0.0022858
0.00228595
0.00228605
0.0022861
0.0022861
0.00228605
0.00228595
0.0022858
0.00228559
0.00228532
0.002285
0.0022846
0.00228414
0.0022836
0.00228297
0.00228225
0.00228144
0.00228051
0.00227946
0.00227829
0.00227697
0.0022755
0.00227386
0.00227205
0.00227005
0.00226784
0.00226543
0.0022628
0.00225994
0.00225686
0.00225357
0.00225011
0.00224658
0.00224311
0.00453953