/*--------------------------------*- C++ -*----------------------------------*\
| =========                 |                                                 |
| \\      /  F ield         | foam-extend: Open Source CFD                    |
|  \\    /   O peration     | Version:     4.0                                |
|   \\  /    A nd           | Web:         http://www.foam-extend.org         |
|    \\/     M anipulation  |                                                 |
\*---------------------------------------------------------------------------*/
FoamFile
{
    version     2.0;
    format      ascii;
    class       regIOobject;
    location    "19/uniform";
    object      profilingInfo;
}
// * * * * * * * * * * * * * * * * * * * * * * * * * * * * * * * * * * * * * //

profilingInfo
(

    {
        id              5;
        parentId        4;
        description     "Foam::Time::writeObject - outputTime";
        calls           19;
        totalTime       0.470125;
        childTime       0;
        onStack         1;
    }

    {
        id              4;
        parentId        1;
        description     "Foam::Time::writeObject";
        calls           19;
        totalTime       0.470587;
        childTime       0.470125;
        onStack         1;
    }

    {
        id              1;
        description     "application::main";
        calls           1;
        totalTime       55.6581;
        childTime       0.470652;
        onStack         1;
    }

    {
        id              3;
        parentId        2;
        description     "functionObjectList::read";
        calls           1;
        totalTime       4e-06;
        childTime       0;
        onStack         0;
    }

    {
        id              6;
        parentId        1;
        description     "functionObjects_.end()";
        calls           18;
        totalTime       3.3e-05;
        childTime       0;
        onStack         0;
    }

    {
        id              7;
        parentId        1;
        description     "functionObjects_.execute()";
        calls           18;
        totalTime       2e-05;
        childTime       0;
        onStack         0;
    }

    {
        id              2;
        parentId        1;
        description     "functionObjects_.start()";
        calls           1;
        totalTime       1.2e-05;
        childTime       4e-06;
        onStack         0;
    }
);


// ************************************************************************* //
