/*--------------------------------*- C++ -*----------------------------------*\
| =========                 |                                                 |
| \\      /  F ield         | foam-extend: Open Source CFD                    |
|  \\    /   O peration     | Version:     4.0                                |
|   \\  /    A nd           | Web:         http://www.foam-extend.org         |
|    \\/     M anipulation  |                                                 |
\*---------------------------------------------------------------------------*/
FoamFile
{
    version     2.0;
    format      ascii;
    class       volScalarField;
    location    "510";
    object      cPlus;
}
// * * * * * * * * * * * * * * * * * * * * * * * * * * * * * * * * * * * * * //

dimensions      [0 0 0 0 0 0 0];

internalField   nonuniform List<scalar> 
6960
(
0.185366
0.185278
0.185234
0.185214
0.185205
0.185201
0.185199
0.185199
0.185198
0.185198
0.185198
0.185198
0.185198
0.185198
0.185198
0.185198
0.185198
0.185198
0.185198
0.185198
0.185198
0.185198
0.185198
0.185198
0.185198
0.185198
0.185198
0.185198
0.185198
0.185198
0.185198
0.185198
0.185198
0.185198
0.185198
0.185198
0.185198
0.185198
0.185198
0.185198
0.185198
0.185198
0.185198
0.185198
0.185198
0.185198
0.185198
0.185198
0.185198
0.185198
0.185198
0.185198
0.185199
0.185199
0.185201
0.185205
0.185214
0.185234
0.185278
0.185366
0.0481195
0.048105
0.0480965
0.0480927
0.048091
0.0480903
0.04809
0.0480899
0.0480899
0.0480899
0.0480899
0.04809
0.04809
0.0480901
0.0480901
0.0480902
0.0480902
0.0480903
0.0480903
0.0480903
0.0480904
0.0480904
0.0480904
0.0480905
0.0480905
0.0480905
0.0480905
0.0480905
0.0480905
0.0480905
0.0480905
0.0480905
0.0480905
0.0480905
0.0480905
0.0480905
0.0480905
0.0480904
0.0480904
0.0480904
0.0480903
0.0480903
0.0480903
0.0480902
0.0480902
0.0480901
0.0480901
0.04809
0.04809
0.0480899
0.0480899
0.0480899
0.0480899
0.04809
0.0480903
0.048091
0.0480927
0.0480965
0.048105
0.0481195
0.0297565
0.0297659
0.0297693
0.0297707
0.0297713
0.0297716
0.0297718
0.0297719
0.029772
0.0297721
0.0297722
0.0297722
0.0297723
0.0297724
0.0297724
0.0297725
0.0297725
0.0297726
0.0297726
0.0297727
0.0297727
0.0297727
0.0297728
0.0297728
0.0297728
0.0297728
0.0297728
0.0297728
0.0297729
0.0297729
0.0297729
0.0297729
0.0297728
0.0297728
0.0297728
0.0297728
0.0297728
0.0297728
0.0297727
0.0297727
0.0297727
0.0297726
0.0297726
0.0297725
0.0297725
0.0297724
0.0297724
0.0297723
0.0297722
0.0297722
0.0297721
0.029772
0.0297719
0.0297718
0.0297716
0.0297713
0.0297707
0.0297693
0.0297659
0.0297565
0.0276235
0.0276388
0.0276451
0.0276478
0.027649
0.0276496
0.0276499
0.0276501
0.0276502
0.0276503
0.0276504
0.0276504
0.0276505
0.0276506
0.0276506
0.0276507
0.0276507
0.0276508
0.0276508
0.0276509
0.0276509
0.0276509
0.027651
0.027651
0.027651
0.027651
0.027651
0.0276511
0.0276511
0.0276511
0.0276511
0.0276511
0.0276511
0.027651
0.027651
0.027651
0.027651
0.027651
0.0276509
0.0276509
0.0276509
0.0276508
0.0276508
0.0276507
0.0276507
0.0276506
0.0276506
0.0276505
0.0276504
0.0276504
0.0276503
0.0276502
0.0276501
0.0276499
0.0276496
0.027649
0.0276478
0.0276451
0.0276388
0.0276235
0.0278352
0.0278521
0.0278592
0.0278623
0.0278636
0.0278642
0.0278646
0.0278647
0.0278649
0.027865
0.0278651
0.0278651
0.0278652
0.0278653
0.0278653
0.0278654
0.0278654
0.0278655
0.0278655
0.0278656
0.0278656
0.0278657
0.0278657
0.0278657
0.0278658
0.0278658
0.0278658
0.0278658
0.0278658
0.0278658
0.0278658
0.0278658
0.0278658
0.0278658
0.0278658
0.0278658
0.0278657
0.0278657
0.0278657
0.0278656
0.0278656
0.0278655
0.0278655
0.0278654
0.0278654
0.0278653
0.0278653
0.0278652
0.0278651
0.0278651
0.027865
0.0278649
0.0278647
0.0278646
0.0278642
0.0278636
0.0278623
0.0278592
0.0278521
0.0278352
0.0284265
0.0284442
0.0284517
0.0284549
0.0284564
0.028457
0.0284574
0.0284576
0.0284577
0.0284578
0.0284579
0.028458
0.0284581
0.0284581
0.0284582
0.0284582
0.0284583
0.0284584
0.0284584
0.0284585
0.0284585
0.0284585
0.0284586
0.0284586
0.0284586
0.0284586
0.0284587
0.0284587
0.0284587
0.0284587
0.0284587
0.0284587
0.0284587
0.0284587
0.0284586
0.0284586
0.0284586
0.0284586
0.0284585
0.0284585
0.0284585
0.0284584
0.0284584
0.0284583
0.0284582
0.0284582
0.0284581
0.0284581
0.028458
0.0284579
0.0284578
0.0284577
0.0284576
0.0284574
0.028457
0.0284564
0.0284549
0.0284517
0.0284442
0.0284265
0.0291322
0.0291507
0.0291585
0.0291619
0.0291634
0.0291641
0.0291645
0.0291647
0.0291648
0.0291649
0.029165
0.0291651
0.0291652
0.0291653
0.0291653
0.0291654
0.0291655
0.0291655
0.0291656
0.0291656
0.0291657
0.0291657
0.0291657
0.0291658
0.0291658
0.0291658
0.0291658
0.0291658
0.0291659
0.0291659
0.0291659
0.0291659
0.0291658
0.0291658
0.0291658
0.0291658
0.0291658
0.0291657
0.0291657
0.0291657
0.0291656
0.0291656
0.0291655
0.0291655
0.0291654
0.0291653
0.0291653
0.0291652
0.0291651
0.029165
0.0291649
0.0291648
0.0291647
0.0291645
0.0291641
0.0291634
0.0291619
0.0291585
0.0291507
0.0291322
0.0299272
0.0299466
0.0299548
0.0299584
0.0299599
0.0299607
0.029961
0.0299613
0.0299614
0.0299615
0.0299616
0.0299617
0.0299618
0.0299619
0.0299619
0.029962
0.0299621
0.0299621
0.0299622
0.0299622
0.0299623
0.0299623
0.0299624
0.0299624
0.0299624
0.0299624
0.0299625
0.0299625
0.0299625
0.0299625
0.0299625
0.0299625
0.0299625
0.0299625
0.0299624
0.0299624
0.0299624
0.0299624
0.0299623
0.0299623
0.0299622
0.0299622
0.0299621
0.0299621
0.029962
0.0299619
0.0299619
0.0299618
0.0299617
0.0299616
0.0299615
0.0299614
0.0299613
0.029961
0.0299607
0.0299599
0.0299584
0.0299548
0.0299466
0.0299272
0.0308219
0.0308424
0.030851
0.0308548
0.0308564
0.0308572
0.0308576
0.0308578
0.030858
0.0308581
0.0308582
0.0308583
0.0308584
0.0308585
0.0308586
0.0308586
0.0308587
0.0308588
0.0308588
0.0308589
0.0308589
0.030859
0.030859
0.030859
0.0308591
0.0308591
0.0308591
0.0308591
0.0308591
0.0308591
0.0308591
0.0308591
0.0308591
0.0308591
0.0308591
0.0308591
0.030859
0.030859
0.030859
0.0308589
0.0308589
0.0308588
0.0308588
0.0308587
0.0308586
0.0308586
0.0308585
0.0308584
0.0308583
0.0308582
0.0308581
0.030858
0.0308578
0.0308576
0.0308572
0.0308564
0.0308548
0.030851
0.0308424
0.0308219
0.0318355
0.0318572
0.0318663
0.0318703
0.031872
0.0318729
0.0318733
0.0318735
0.0318737
0.0318738
0.0318739
0.031874
0.0318741
0.0318742
0.0318743
0.0318744
0.0318745
0.0318745
0.0318746
0.0318746
0.0318747
0.0318747
0.0318748
0.0318748
0.0318749
0.0318749
0.0318749
0.0318749
0.0318749
0.0318749
0.0318749
0.0318749
0.0318749
0.0318749
0.0318749
0.0318749
0.0318748
0.0318748
0.0318747
0.0318747
0.0318746
0.0318746
0.0318745
0.0318745
0.0318744
0.0318743
0.0318742
0.0318741
0.031874
0.0318739
0.0318738
0.0318737
0.0318735
0.0318733
0.0318729
0.031872
0.0318703
0.0318663
0.0318572
0.0318355
0.0329933
0.0330164
0.0330262
0.0330304
0.0330323
0.0330332
0.0330336
0.0330339
0.0330341
0.0330342
0.0330343
0.0330344
0.0330345
0.0330346
0.0330347
0.0330348
0.0330349
0.033035
0.033035
0.0330351
0.0330351
0.0330352
0.0330352
0.0330353
0.0330353
0.0330353
0.0330354
0.0330354
0.0330354
0.0330354
0.0330354
0.0330354
0.0330354
0.0330354
0.0330353
0.0330353
0.0330353
0.0330352
0.0330352
0.0330351
0.0330351
0.033035
0.033035
0.0330349
0.0330348
0.0330347
0.0330346
0.0330345
0.0330344
0.0330343
0.0330342
0.0330341
0.0330339
0.0330336
0.0330332
0.0330323
0.0330304
0.0330262
0.0330164
0.0329933
0.0343291
0.0343539
0.0343644
0.0343689
0.034371
0.0343719
0.0343724
0.0343727
0.0343729
0.034373
0.0343732
0.0343733
0.0343734
0.0343735
0.0343736
0.0343737
0.0343738
0.0343739
0.0343739
0.034374
0.0343741
0.0343741
0.0343742
0.0343742
0.0343742
0.0343743
0.0343743
0.0343743
0.0343743
0.0343743
0.0343743
0.0343743
0.0343743
0.0343743
0.0343743
0.0343742
0.0343742
0.0343742
0.0343741
0.0343741
0.034374
0.0343739
0.0343739
0.0343738
0.0343737
0.0343736
0.0343735
0.0343734
0.0343733
0.0343732
0.034373
0.0343729
0.0343727
0.0343724
0.0343719
0.034371
0.0343689
0.0343644
0.0343539
0.0343291
0.0358883
0.0359152
0.0359266
0.0359315
0.0359337
0.0359348
0.0359353
0.0359356
0.0359358
0.035936
0.0359361
0.0359363
0.0359364
0.0359365
0.0359366
0.0359367
0.0359368
0.0359369
0.035937
0.035937
0.0359371
0.0359372
0.0359372
0.0359373
0.0359373
0.0359374
0.0359374
0.0359374
0.0359374
0.0359374
0.0359374
0.0359374
0.0359374
0.0359374
0.0359374
0.0359373
0.0359373
0.0359372
0.0359372
0.0359371
0.035937
0.035937
0.0359369
0.0359368
0.0359367
0.0359366
0.0359365
0.0359364
0.0359363
0.0359361
0.035936
0.0359358
0.0359356
0.0359353
0.0359348
0.0359337
0.0359315
0.0359266
0.0359152
0.0358883
0.0377339
0.0377635
0.0377759
0.0377814
0.0377838
0.0377849
0.0377855
0.0377859
0.0377861
0.0377863
0.0377865
0.0377866
0.0377867
0.0377869
0.037787
0.0377871
0.0377872
0.0377873
0.0377874
0.0377875
0.0377876
0.0377876
0.0377877
0.0377877
0.0377878
0.0377878
0.0377879
0.0377879
0.0377879
0.0377879
0.0377879
0.0377879
0.0377879
0.0377879
0.0377878
0.0377878
0.0377877
0.0377877
0.0377876
0.0377876
0.0377875
0.0377874
0.0377873
0.0377872
0.0377871
0.037787
0.0377869
0.0377867
0.0377866
0.0377865
0.0377863
0.0377861
0.0377859
0.0377855
0.0377849
0.0377838
0.0377814
0.0377759
0.0377635
0.0377339
0.0399558
0.0399887
0.0400026
0.0400086
0.0400114
0.0400126
0.0400133
0.0400137
0.0400139
0.0400141
0.0400143
0.0400145
0.0400147
0.0400148
0.0400149
0.0400151
0.0400152
0.0400153
0.0400154
0.0400155
0.0400156
0.0400157
0.0400157
0.0400158
0.0400158
0.0400159
0.0400159
0.040016
0.040016
0.040016
0.040016
0.040016
0.040016
0.0400159
0.0400159
0.0400158
0.0400158
0.0400157
0.0400157
0.0400156
0.0400155
0.0400154
0.0400153
0.0400152
0.0400151
0.0400149
0.0400148
0.0400147
0.0400145
0.0400143
0.0400141
0.0400139
0.0400137
0.0400133
0.0400126
0.0400114
0.0400086
0.0400026
0.0399887
0.0399558
0.0426859
0.0427233
0.0427391
0.042746
0.0427491
0.0427505
0.0427513
0.0427517
0.042752
0.0427523
0.0427525
0.0427527
0.0427529
0.042753
0.0427532
0.0427533
0.0427535
0.0427536
0.0427537
0.0427538
0.0427539
0.042754
0.0427541
0.0427542
0.0427543
0.0427543
0.0427543
0.0427544
0.0427544
0.0427544
0.0427544
0.0427544
0.0427544
0.0427543
0.0427543
0.0427543
0.0427542
0.0427541
0.042754
0.0427539
0.0427538
0.0427537
0.0427536
0.0427535
0.0427533
0.0427532
0.042753
0.0427529
0.0427527
0.0427525
0.0427523
0.042752
0.0427517
0.0427513
0.0427505
0.0427491
0.042746
0.0427391
0.0427233
0.0426859
0.0461245
0.0461679
0.0461862
0.0461943
0.0461979
0.0461996
0.0462005
0.046201
0.0462014
0.0462017
0.0462019
0.0462022
0.0462024
0.0462026
0.0462028
0.046203
0.0462031
0.0462033
0.0462034
0.0462036
0.0462037
0.0462038
0.0462039
0.046204
0.046204
0.0462041
0.0462042
0.0462042
0.0462042
0.0462042
0.0462042
0.0462042
0.0462042
0.0462042
0.0462041
0.046204
0.046204
0.0462039
0.0462038
0.0462037
0.0462036
0.0462034
0.0462033
0.0462031
0.046203
0.0462028
0.0462026
0.0462024
0.0462022
0.0462019
0.0462017
0.0462014
0.046201
0.0462005
0.0461996
0.0461979
0.0461943
0.0461862
0.0461679
0.0461245
0.0505786
0.0506305
0.0506526
0.0506623
0.0506667
0.0506687
0.0506698
0.0506704
0.0506709
0.0506712
0.0506715
0.0506718
0.0506721
0.0506723
0.0506726
0.0506728
0.050673
0.0506732
0.0506734
0.0506735
0.0506737
0.0506738
0.0506739
0.050674
0.0506741
0.0506742
0.0506743
0.0506743
0.0506743
0.0506744
0.0506744
0.0506743
0.0506743
0.0506743
0.0506742
0.0506741
0.050674
0.0506739
0.0506738
0.0506737
0.0506735
0.0506734
0.0506732
0.050673
0.0506728
0.0506726
0.0506723
0.0506721
0.0506718
0.0506715
0.0506712
0.0506709
0.0506704
0.0506698
0.0506687
0.0506667
0.0506623
0.0506526
0.0506305
0.0505786
0.0565117
0.0565757
0.0566031
0.0566152
0.0566206
0.0566232
0.0566245
0.0566253
0.0566258
0.0566263
0.0566267
0.0566271
0.0566274
0.0566277
0.056628
0.0566283
0.0566285
0.0566288
0.056629
0.0566292
0.0566294
0.0566296
0.0566297
0.0566299
0.05663
0.0566301
0.0566302
0.0566302
0.0566302
0.0566303
0.0566303
0.0566302
0.0566302
0.0566302
0.0566301
0.05663
0.0566299
0.0566297
0.0566296
0.0566294
0.0566292
0.056629
0.0566288
0.0566285
0.0566283
0.056628
0.0566277
0.0566274
0.0566271
0.0566267
0.0566263
0.0566258
0.0566253
0.0566245
0.0566232
0.0566206
0.0566152
0.0566031
0.0565757
0.0565117
0.064572
0.0646533
0.0646883
0.0647037
0.0647106
0.0647139
0.0647156
0.0647167
0.0647174
0.064718
0.0647185
0.064719
0.0647194
0.0647198
0.0647202
0.0647205
0.0647209
0.0647212
0.0647215
0.0647217
0.064722
0.0647222
0.0647224
0.0647226
0.0647227
0.0647229
0.064723
0.064723
0.0647231
0.0647231
0.0647231
0.0647231
0.064723
0.064723
0.0647229
0.0647227
0.0647226
0.0647224
0.0647222
0.064722
0.0647217
0.0647215
0.0647212
0.0647209
0.0647205
0.0647202
0.0647198
0.0647194
0.064719
0.0647185
0.064718
0.0647174
0.0647167
0.0647156
0.0647139
0.0647106
0.0647037
0.0646883
0.0646533
0.064572
0.0755383
0.0756432
0.0756884
0.0757084
0.0757174
0.0757217
0.0757239
0.0757252
0.0757262
0.0757269
0.0757276
0.0757282
0.0757287
0.0757293
0.0757298
0.0757302
0.0757307
0.0757311
0.0757315
0.0757318
0.0757321
0.0757324
0.0757327
0.0757329
0.0757331
0.0757333
0.0757334
0.0757335
0.0757336
0.0757336
0.0757336
0.0757336
0.0757335
0.0757334
0.0757333
0.0757331
0.0757329
0.0757327
0.0757324
0.0757321
0.0757318
0.0757315
0.0757311
0.0757307
0.0757302
0.0757298
0.0757293
0.0757287
0.0757282
0.0757276
0.0757269
0.0757262
0.0757252
0.0757239
0.0757217
0.0757174
0.0757084
0.0756884
0.0756432
0.0755383
0.0901173
0.0902513
0.0903094
0.0903351
0.0903467
0.0903522
0.0903551
0.0903568
0.090358
0.090359
0.0903598
0.0903606
0.0903613
0.090362
0.0903626
0.0903632
0.0903637
0.0903643
0.0903647
0.0903652
0.0903656
0.0903659
0.0903663
0.0903666
0.0903668
0.090367
0.0903672
0.0903673
0.0903674
0.0903674
0.0903674
0.0903674
0.0903673
0.0903672
0.090367
0.0903668
0.0903666
0.0903663
0.0903659
0.0903656
0.0903652
0.0903647
0.0903643
0.0903637
0.0903632
0.0903626
0.090362
0.0903613
0.0903606
0.0903598
0.090359
0.090358
0.0903568
0.0903551
0.0903522
0.0903467
0.0903351
0.0903094
0.0902513
0.0901173
0.108636
0.108802
0.108875
0.108907
0.108922
0.108928
0.108932
0.108934
0.108936
0.108937
0.108938
0.108939
0.10894
0.108941
0.108941
0.108942
0.108943
0.108943
0.108944
0.108944
0.108945
0.108945
0.108946
0.108946
0.108946
0.108947
0.108947
0.108947
0.108947
0.108947
0.108947
0.108947
0.108947
0.108947
0.108947
0.108946
0.108946
0.108946
0.108945
0.108945
0.108944
0.108944
0.108943
0.108943
0.108942
0.108941
0.108941
0.10894
0.108939
0.108938
0.108937
0.108936
0.108934
0.108932
0.108928
0.108922
0.108907
0.108875
0.108802
0.108636
0.130828
0.131027
0.131115
0.131153
0.131171
0.131179
0.131183
0.131186
0.131188
0.131189
0.13119
0.131191
0.131192
0.131193
0.131194
0.131195
0.131196
0.131197
0.131197
0.131198
0.131198
0.131199
0.131199
0.1312
0.1312
0.1312
0.131201
0.131201
0.131201
0.131201
0.131201
0.131201
0.131201
0.131201
0.1312
0.1312
0.1312
0.131199
0.131199
0.131198
0.131198
0.131197
0.131197
0.131196
0.131195
0.131194
0.131193
0.131192
0.131191
0.13119
0.131189
0.131188
0.131186
0.131183
0.131179
0.131171
0.131153
0.131115
0.131027
0.130828
0.15591
0.156139
0.156239
0.156284
0.156305
0.156314
0.156319
0.156322
0.156324
0.156326
0.156327
0.156328
0.156329
0.15633
0.156331
0.156332
0.156333
0.156334
0.156335
0.156335
0.156336
0.156336
0.156337
0.156337
0.156338
0.156338
0.156338
0.156339
0.156339
0.156339
0.156339
0.156339
0.156339
0.156338
0.156338
0.156338
0.156337
0.156337
0.156336
0.156336
0.156335
0.156335
0.156334
0.156333
0.156332
0.156331
0.15633
0.156329
0.156328
0.156327
0.156326
0.156324
0.156322
0.156319
0.156314
0.156305
0.156284
0.156239
0.156139
0.15591
0.182887
0.183141
0.183254
0.183304
0.183327
0.183338
0.183344
0.183347
0.183349
0.183351
0.183352
0.183353
0.183355
0.183356
0.183357
0.183358
0.183359
0.183359
0.18336
0.183361
0.183362
0.183362
0.183363
0.183363
0.183364
0.183364
0.183364
0.183364
0.183364
0.183365
0.183365
0.183364
0.183364
0.183364
0.183364
0.183364
0.183363
0.183363
0.183362
0.183362
0.183361
0.18336
0.183359
0.183359
0.183358
0.183357
0.183356
0.183355
0.183353
0.183352
0.183351
0.183349
0.183347
0.183344
0.183338
0.183327
0.183304
0.183254
0.183141
0.182887
0.210867
0.211143
0.211266
0.211322
0.211347
0.211359
0.211365
0.211368
0.211371
0.211373
0.211374
0.211375
0.211377
0.211378
0.211379
0.21138
0.211381
0.211382
0.211382
0.211383
0.211384
0.211384
0.211385
0.211385
0.211386
0.211386
0.211386
0.211387
0.211387
0.211387
0.211387
0.211387
0.211387
0.211386
0.211386
0.211386
0.211385
0.211385
0.211384
0.211384
0.211383
0.211382
0.211382
0.211381
0.21138
0.211379
0.211378
0.211377
0.211375
0.211374
0.211373
0.211371
0.211368
0.211365
0.211359
0.211347
0.211322
0.211266
0.211143
0.210867
0.239206
0.2395
0.239632
0.239692
0.23972
0.239733
0.23974
0.239743
0.239746
0.239748
0.239749
0.239751
0.239752
0.239753
0.239754
0.239755
0.239756
0.239757
0.239758
0.239758
0.239759
0.23976
0.23976
0.239761
0.239761
0.239762
0.239762
0.239762
0.239762
0.239762
0.239762
0.239762
0.239762
0.239762
0.239762
0.239761
0.239761
0.23976
0.23976
0.239759
0.239758
0.239758
0.239757
0.239756
0.239755
0.239754
0.239753
0.239752
0.239751
0.239749
0.239748
0.239746
0.239743
0.23974
0.239733
0.23972
0.239692
0.239632
0.2395
0.239206
0.267496
0.267806
0.267947
0.268011
0.268041
0.268055
0.268062
0.268066
0.268069
0.268071
0.268072
0.268074
0.268075
0.268076
0.268077
0.268078
0.268079
0.26808
0.268081
0.268081
0.268082
0.268083
0.268083
0.268084
0.268084
0.268085
0.268085
0.268085
0.268085
0.268085
0.268085
0.268085
0.268085
0.268085
0.268085
0.268084
0.268084
0.268083
0.268083
0.268082
0.268081
0.268081
0.26808
0.268079
0.268078
0.268077
0.268076
0.268075
0.268074
0.268072
0.268071
0.268069
0.268066
0.268062
0.268055
0.268041
0.268011
0.267947
0.267806
0.267496
0.295498
0.295821
0.29597
0.296039
0.29607
0.296086
0.296093
0.296097
0.2961
0.296102
0.296104
0.296105
0.296106
0.296107
0.296109
0.29611
0.296111
0.296111
0.296112
0.296113
0.296114
0.296114
0.296115
0.296115
0.296116
0.296116
0.296116
0.296117
0.296117
0.296117
0.296117
0.296117
0.296117
0.296116
0.296116
0.296116
0.296115
0.296115
0.296114
0.296114
0.296113
0.296112
0.296111
0.296111
0.29611
0.296109
0.296107
0.296106
0.296105
0.296104
0.296102
0.2961
0.296097
0.296093
0.296086
0.29607
0.296039
0.29597
0.295821
0.295498
0.323069
0.323405
0.323561
0.323634
0.323668
0.323684
0.323692
0.323697
0.323699
0.323701
0.323703
0.323704
0.323706
0.323707
0.323708
0.323709
0.32371
0.323711
0.323711
0.323712
0.323713
0.323713
0.323714
0.323715
0.323715
0.323715
0.323716
0.323716
0.323716
0.323716
0.323716
0.323716
0.323716
0.323716
0.323715
0.323715
0.323715
0.323714
0.323713
0.323713
0.323712
0.323711
0.323711
0.32371
0.323709
0.323708
0.323707
0.323706
0.323704
0.323703
0.323701
0.323699
0.323697
0.323692
0.323684
0.323668
0.323634
0.323561
0.323405
0.323069
0.350125
0.350471
0.350634
0.350711
0.350746
0.350764
0.350772
0.350777
0.35078
0.350782
0.350784
0.350785
0.350786
0.350788
0.350789
0.35079
0.35079
0.350791
0.350792
0.350793
0.350794
0.350794
0.350795
0.350795
0.350796
0.350796
0.350796
0.350796
0.350796
0.350797
0.350797
0.350796
0.350796
0.350796
0.350796
0.350796
0.350795
0.350795
0.350794
0.350794
0.350793
0.350792
0.350791
0.35079
0.35079
0.350789
0.350788
0.350786
0.350785
0.350784
0.350782
0.35078
0.350777
0.350772
0.350764
0.350746
0.350711
0.350634
0.350471
0.350125
0.376607
0.376962
0.377132
0.377212
0.37725
0.377269
0.377278
0.377283
0.377286
0.377288
0.37729
0.377291
0.377292
0.377293
0.377294
0.377295
0.377296
0.377297
0.377298
0.377299
0.377299
0.3773
0.3773
0.377301
0.377301
0.377302
0.377302
0.377302
0.377302
0.377302
0.377302
0.377302
0.377302
0.377302
0.377302
0.377301
0.377301
0.3773
0.3773
0.377299
0.377299
0.377298
0.377297
0.377296
0.377295
0.377294
0.377293
0.377292
0.377291
0.37729
0.377288
0.377286
0.377283
0.377278
0.377269
0.37725
0.377212
0.377132
0.376962
0.376607
0.402477
0.40284
0.403016
0.4031
0.40314
0.40316
0.403169
0.403175
0.403178
0.40318
0.403182
0.403183
0.403184
0.403185
0.403186
0.403187
0.403188
0.403189
0.40319
0.40319
0.403191
0.403192
0.403192
0.403193
0.403193
0.403193
0.403194
0.403194
0.403194
0.403194
0.403194
0.403194
0.403194
0.403194
0.403193
0.403193
0.403193
0.403192
0.403192
0.403191
0.40319
0.40319
0.403189
0.403188
0.403187
0.403186
0.403185
0.403184
0.403183
0.403182
0.40318
0.403178
0.403175
0.403169
0.40316
0.40314
0.4031
0.403016
0.40284
0.402477
0.427708
0.428077
0.428258
0.428346
0.428388
0.428409
0.428419
0.428425
0.428428
0.42843
0.428432
0.428434
0.428435
0.428436
0.428437
0.428438
0.428439
0.428439
0.42844
0.428441
0.428441
0.428442
0.428442
0.428443
0.428443
0.428444
0.428444
0.428444
0.428444
0.428444
0.428444
0.428444
0.428444
0.428444
0.428444
0.428443
0.428443
0.428442
0.428442
0.428441
0.428441
0.42844
0.428439
0.428439
0.428438
0.428437
0.428436
0.428435
0.428434
0.428432
0.42843
0.428428
0.428425
0.428419
0.428409
0.428388
0.428346
0.428258
0.428077
0.427708
0.452278
0.452652
0.452839
0.452931
0.452975
0.452997
0.453008
0.453014
0.453017
0.453019
0.453021
0.453022
0.453024
0.453025
0.453026
0.453026
0.453027
0.453028
0.453029
0.453029
0.45303
0.453031
0.453031
0.453032
0.453032
0.453032
0.453032
0.453033
0.453033
0.453033
0.453033
0.453033
0.453033
0.453032
0.453032
0.453032
0.453032
0.453031
0.453031
0.45303
0.453029
0.453029
0.453028
0.453027
0.453026
0.453026
0.453025
0.453024
0.453022
0.453021
0.453019
0.453017
0.453014
0.453008
0.452997
0.452975
0.452931
0.452839
0.452652
0.452278
0.476174
0.476553
0.476744
0.476839
0.476886
0.476908
0.47692
0.476926
0.47693
0.476932
0.476934
0.476935
0.476937
0.476938
0.476938
0.476939
0.47694
0.476941
0.476942
0.476942
0.476943
0.476943
0.476944
0.476944
0.476945
0.476945
0.476945
0.476945
0.476945
0.476945
0.476945
0.476945
0.476945
0.476945
0.476945
0.476945
0.476944
0.476944
0.476943
0.476943
0.476942
0.476942
0.476941
0.47694
0.476939
0.476938
0.476938
0.476937
0.476935
0.476934
0.476932
0.47693
0.476926
0.47692
0.476908
0.476886
0.476839
0.476744
0.476553
0.476174
0.499387
0.499767
0.499964
0.500062
0.50011
0.500134
0.500147
0.500153
0.500157
0.500159
0.500161
0.500162
0.500164
0.500165
0.500166
0.500166
0.500167
0.500168
0.500168
0.500169
0.50017
0.50017
0.500171
0.500171
0.500171
0.500172
0.500172
0.500172
0.500172
0.500172
0.500172
0.500172
0.500172
0.500172
0.500172
0.500171
0.500171
0.500171
0.50017
0.50017
0.500169
0.500168
0.500168
0.500167
0.500166
0.500166
0.500165
0.500164
0.500162
0.500161
0.500159
0.500157
0.500153
0.500147
0.500134
0.50011
0.500062
0.499964
0.499767
0.499387
0.521908
0.522291
0.522491
0.522592
0.522643
0.522668
0.522681
0.522688
0.522692
0.522694
0.522696
0.522697
0.522699
0.5227
0.5227
0.522701
0.522702
0.522703
0.522703
0.522704
0.522704
0.522705
0.522705
0.522706
0.522706
0.522706
0.522707
0.522707
0.522707
0.522707
0.522707
0.522707
0.522707
0.522707
0.522706
0.522706
0.522706
0.522705
0.522705
0.522704
0.522704
0.522703
0.522703
0.522702
0.522701
0.5227
0.5227
0.522699
0.522697
0.522696
0.522694
0.522692
0.522688
0.522681
0.522668
0.522643
0.522592
0.522491
0.522291
0.521908
0.543736
0.544119
0.544323
0.544427
0.54448
0.544506
0.54452
0.544527
0.544531
0.544534
0.544536
0.544537
0.544538
0.544539
0.54454
0.544541
0.544541
0.544542
0.544543
0.544543
0.544544
0.544544
0.544545
0.544545
0.544545
0.544546
0.544546
0.544546
0.544546
0.544546
0.544546
0.544546
0.544546
0.544546
0.544546
0.544545
0.544545
0.544545
0.544544
0.544544
0.544543
0.544543
0.544542
0.544541
0.544541
0.54454
0.544539
0.544538
0.544537
0.544536
0.544534
0.544531
0.544527
0.54452
0.544506
0.54448
0.544427
0.544323
0.544119
0.543736
0.564869
0.565252
0.565459
0.565566
0.565621
0.565649
0.565663
0.565671
0.565675
0.565678
0.56568
0.565681
0.565682
0.565683
0.565684
0.565684
0.565685
0.565686
0.565686
0.565687
0.565687
0.565688
0.565688
0.565689
0.565689
0.565689
0.565689
0.565689
0.565689
0.56569
0.56569
0.565689
0.565689
0.565689
0.565689
0.565689
0.565689
0.565688
0.565688
0.565687
0.565687
0.565686
0.565686
0.565685
0.565684
0.565684
0.565683
0.565682
0.565681
0.56568
0.565678
0.565675
0.565671
0.565663
0.565649
0.565621
0.565566
0.565459
0.565252
0.564869
0.58531
0.585692
0.585901
0.586011
0.586068
0.586097
0.586112
0.58612
0.586125
0.586127
0.586129
0.586131
0.586132
0.586132
0.586133
0.586134
0.586135
0.586135
0.586136
0.586136
0.586137
0.586137
0.586137
0.586138
0.586138
0.586138
0.586138
0.586139
0.586139
0.586139
0.586139
0.586139
0.586139
0.586138
0.586138
0.586138
0.586138
0.586137
0.586137
0.586137
0.586136
0.586136
0.586135
0.586135
0.586134
0.586133
0.586132
0.586132
0.586131
0.586129
0.586127
0.586125
0.58612
0.586112
0.586097
0.586068
0.586011
0.585901
0.585692
0.58531
0.605062
0.605442
0.605653
0.605765
0.605824
0.605854
0.60587
0.605879
0.605884
0.605887
0.605888
0.60589
0.605891
0.605892
0.605892
0.605893
0.605894
0.605894
0.605895
0.605895
0.605896
0.605896
0.605896
0.605897
0.605897
0.605897
0.605897
0.605897
0.605897
0.605897
0.605897
0.605897
0.605897
0.605897
0.605897
0.605897
0.605897
0.605896
0.605896
0.605896
0.605895
0.605895
0.605894
0.605894
0.605893
0.605892
0.605892
0.605891
0.60589
0.605888
0.605887
0.605884
0.605879
0.60587
0.605854
0.605824
0.605765
0.605653
0.605442
0.605062
0.62413
0.624507
0.62472
0.624835
0.624895
0.624927
0.624944
0.624953
0.624958
0.624961
0.624963
0.624964
0.624965
0.624966
0.624966
0.624967
0.624968
0.624968
0.624969
0.624969
0.624969
0.62497
0.62497
0.62497
0.624971
0.624971
0.624971
0.624971
0.624971
0.624971
0.624971
0.624971
0.624971
0.624971
0.624971
0.624971
0.62497
0.62497
0.62497
0.624969
0.624969
0.624969
0.624968
0.624968
0.624967
0.624966
0.624966
0.624965
0.624964
0.624963
0.624961
0.624958
0.624953
0.624944
0.624927
0.624895
0.624835
0.62472
0.624507
0.62413
0.642522
0.642895
0.643109
0.643226
0.643289
0.643322
0.643339
0.643348
0.643354
0.643357
0.643359
0.64336
0.643361
0.643362
0.643363
0.643363
0.643364
0.643364
0.643365
0.643365
0.643365
0.643366
0.643366
0.643366
0.643367
0.643367
0.643367
0.643367
0.643367
0.643367
0.643367
0.643367
0.643367
0.643367
0.643367
0.643367
0.643366
0.643366
0.643366
0.643365
0.643365
0.643365
0.643364
0.643364
0.643363
0.643363
0.643362
0.643361
0.64336
0.643359
0.643357
0.643354
0.643348
0.643339
0.643322
0.643289
0.643226
0.643109
0.642895
0.642522
0.660246
0.660615
0.660829
0.660948
0.661012
0.661047
0.661065
0.661075
0.66108
0.661084
0.661086
0.661087
0.661088
0.661089
0.661089
0.66109
0.66109
0.661091
0.661091
0.661092
0.661092
0.661092
0.661093
0.661093
0.661093
0.661093
0.661093
0.661093
0.661094
0.661094
0.661094
0.661094
0.661093
0.661093
0.661093
0.661093
0.661093
0.661093
0.661092
0.661092
0.661092
0.661091
0.661091
0.66109
0.66109
0.661089
0.661089
0.661088
0.661087
0.661086
0.661084
0.66108
0.661075
0.661065
0.661047
0.661012
0.660948
0.660829
0.660615
0.660246
0.677311
0.677675
0.67789
0.678011
0.678076
0.678112
0.678131
0.678142
0.678147
0.678151
0.678153
0.678154
0.678155
0.678156
0.678156
0.678157
0.678157
0.678158
0.678158
0.678159
0.678159
0.678159
0.678159
0.67816
0.67816
0.67816
0.67816
0.67816
0.67816
0.67816
0.67816
0.67816
0.67816
0.67816
0.67816
0.67816
0.67816
0.678159
0.678159
0.678159
0.678159
0.678158
0.678158
0.678157
0.678157
0.678156
0.678156
0.678155
0.678154
0.678153
0.678151
0.678147
0.678142
0.678131
0.678112
0.678076
0.678011
0.67789
0.677675
0.677311
0.693728
0.694087
0.694302
0.694424
0.694491
0.694528
0.694548
0.694559
0.694565
0.694569
0.694571
0.694572
0.694573
0.694574
0.694575
0.694575
0.694575
0.694576
0.694576
0.694576
0.694577
0.694577
0.694577
0.694577
0.694578
0.694578
0.694578
0.694578
0.694578
0.694578
0.694578
0.694578
0.694578
0.694578
0.694578
0.694578
0.694577
0.694577
0.694577
0.694577
0.694576
0.694576
0.694576
0.694575
0.694575
0.694575
0.694574
0.694573
0.694572
0.694571
0.694569
0.694565
0.694559
0.694548
0.694528
0.694491
0.694424
0.694302
0.694087
0.693728
0.70951
0.709863
0.710077
0.7102
0.710269
0.710307
0.710328
0.710339
0.710346
0.71035
0.710352
0.710353
0.710354
0.710355
0.710355
0.710356
0.710356
0.710357
0.710357
0.710357
0.710357
0.710358
0.710358
0.710358
0.710358
0.710358
0.710358
0.710359
0.710359
0.710359
0.710359
0.710359
0.710359
0.710358
0.710358
0.710358
0.710358
0.710358
0.710358
0.710357
0.710357
0.710357
0.710357
0.710356
0.710356
0.710355
0.710355
0.710354
0.710353
0.710352
0.71035
0.710346
0.710339
0.710328
0.710307
0.710269
0.7102
0.710077
0.709863
0.70951
0.724668
0.725014
0.725227
0.725352
0.725422
0.725461
0.725483
0.725495
0.725502
0.725506
0.725508
0.72551
0.72551
0.725511
0.725512
0.725512
0.725512
0.725513
0.725513
0.725513
0.725513
0.725514
0.725514
0.725514
0.725514
0.725514
0.725514
0.725514
0.725514
0.725514
0.725514
0.725514
0.725514
0.725514
0.725514
0.725514
0.725514
0.725514
0.725514
0.725513
0.725513
0.725513
0.725513
0.725512
0.725512
0.725512
0.725511
0.72551
0.72551
0.725508
0.725506
0.725502
0.725495
0.725483
0.725461
0.725422
0.725352
0.725227
0.725014
0.724668
0.739216
0.739555
0.739767
0.739892
0.739964
0.740004
0.740027
0.740039
0.740046
0.74005
0.740053
0.740054
0.740055
0.740056
0.740056
0.740057
0.740057
0.740057
0.740058
0.740058
0.740058
0.740058
0.740058
0.740058
0.740059
0.740059
0.740059
0.740059
0.740059
0.740059
0.740059
0.740059
0.740059
0.740059
0.740059
0.740059
0.740058
0.740058
0.740058
0.740058
0.740058
0.740058
0.740057
0.740057
0.740057
0.740056
0.740056
0.740055
0.740054
0.740053
0.74005
0.740046
0.740039
0.740027
0.740004
0.739964
0.739892
0.739767
0.739555
0.739216
0.753167
0.753499
0.753709
0.753835
0.753908
0.753949
0.753973
0.753986
0.753993
0.753998
0.754
0.754002
0.754003
0.754003
0.754004
0.754004
0.754004
0.754004
0.754005
0.754005
0.754005
0.754005
0.754005
0.754005
0.754006
0.754006
0.754006
0.754006
0.754006
0.754006
0.754006
0.754006
0.754006
0.754006
0.754006
0.754006
0.754005
0.754005
0.754005
0.754005
0.754005
0.754005
0.754004
0.754004
0.754004
0.754004
0.754003
0.754003
0.754002
0.754
0.753998
0.753993
0.753986
0.753973
0.753949
0.753908
0.753835
0.753709
0.753499
0.753167
0.766536
0.766861
0.767068
0.767195
0.767269
0.767311
0.767335
0.767349
0.767357
0.767361
0.767364
0.767366