/*--------------------------------*- C++ -*----------------------------------*\
| =========                 |                                                 |
| \\      /  F ield         | foam-extend: Open Source CFD                    |
|  \\    /   O peration     | Version:     4.0                                |
|   \\  /    A nd           | Web:         http://www.foam-extend.org         |
|    \\/     M anipulation  |                                                 |
\*---------------------------------------------------------------------------*/
FoamFile
{
    version     2.0;
    format      ascii;
    class       volScalarField;
    location    "510";
    object      psiE;
}
// * * * * * * * * * * * * * * * * * * * * * * * * * * * * * * * * * * * * * //

dimensions      [0 0 0 0 0 0 0];

internalField   nonuniform List<scalar> 
6960
(
0.41566
0.415711
0.415737
0.415749
0.415755
0.415758
0.415759
0.41576
0.415761
0.415762
0.415763
0.415764
0.415764
0.415765
0.415766
0.415767
0.415767
0.415768
0.415769
0.415769
0.41577
0.41577
0.415771
0.415771
0.415771
0.415771
0.415772
0.415772
0.415772
0.415772
0.415772
0.415772
0.415772
0.415772
0.415771
0.415771
0.415771
0.415771
0.41577
0.41577
0.415769
0.415769
0.415768
0.415767
0.415767
0.415766
0.415765
0.415764
0.415764
0.415763
0.415762
0.415761
0.41576
0.415759
0.415758
0.415755
0.415749
0.415737
0.415711
0.41566
1.15954
1.15975
1.15985
1.1599
1.15992
1.15993
1.15994
1.15994
1.15994
1.15994
1.15995
1.15995
1.15995
1.15995
1.15996
1.15996
1.15996
1.15996
1.15996
1.15997
1.15997
1.15997
1.15997
1.15997
1.15997
1.15997
1.15997
1.15997
1.15998
1.15998
1.15998
1.15998
1.15997
1.15997
1.15997
1.15997
1.15997
1.15997
1.15997
1.15997
1.15997
1.15996
1.15996
1.15996
1.15996
1.15996
1.15995
1.15995
1.15995
1.15995
1.15994
1.15994
1.15994
1.15994
1.15993
1.15992
1.1599
1.15985
1.15975
1.15954
1.89824
1.89861
1.8988
1.89888
1.89892
1.89894
1.89895
1.89896
1.89896
1.89897
1.89897
1.89897
1.89898
1.89898
1.89899
1.89899
1.89899
1.899
1.899
1.899
1.89901
1.89901
1.89901
1.89901
1.89901
1.89901
1.89902
1.89902
1.89902
1.89902
1.89902
1.89902
1.89902
1.89902
1.89901
1.89901
1.89901
1.89901
1.89901
1.89901
1.899
1.899
1.899
1.89899
1.89899
1.89899
1.89898
1.89898
1.89897
1.89897
1.89897
1.89896
1.89896
1.89895
1.89894
1.89892
1.89888
1.8988
1.89861
1.89824
2.64106
2.64159
2.64187
2.64199
2.64205
2.64207
2.64209
2.6421
2.6421
2.64211
2.64212
2.64212
2.64213
2.64213
2.64214
2.64214
2.64215
2.64215
2.64216
2.64216
2.64216
2.64217
2.64217
2.64217
2.64218
2.64218
2.64218
2.64218
2.64218
2.64218
2.64218
2.64218
2.64218
2.64218
2.64218
2.64218
2.64217
2.64217
2.64217
2.64216
2.64216
2.64216
2.64215
2.64215
2.64214
2.64214
2.64213
2.64213
2.64212
2.64212
2.64211
2.6421
2.6421
2.64209
2.64207
2.64205
2.64199
2.64187
2.64159
2.64106
3.3884
3.38909
3.38945
3.38961
3.38968
3.38971
3.38973
3.38974
3.38975
3.38976
3.38977
3.38978
3.38978
3.38979
3.3898
3.38981
3.38981
3.38982
3.38982
3.38983
3.38983
3.38984
3.38984
3.38984
3.38985
3.38985
3.38985
3.38985
3.38985
3.38985
3.38985
3.38985
3.38985
3.38985
3.38985
3.38985
3.38984
3.38984
3.38984
3.38983
3.38983
3.38982
3.38982
3.38981
3.38981
3.3898
3.38979
3.38978
3.38978
3.38977
3.38976
3.38975
3.38974
3.38973
3.38971
3.38968
3.38961
3.38945
3.38909
3.3884
4.13916
4.14001
4.14044
4.14064
4.14073
4.14077
4.14079
4.14081
4.14082
4.14083
4.14084
4.14085
4.14086
4.14087
4.14087
4.14088
4.14089
4.1409
4.1409
4.14091
4.14092
4.14092
4.14093
4.14093
4.14093
4.14094
4.14094
4.14094
4.14094
4.14094
4.14094
4.14094
4.14094
4.14094
4.14094
4.14093
4.14093
4.14093
4.14092
4.14092
4.14091
4.1409
4.1409
4.14089
4.14088
4.14087
4.14087
4.14086
4.14085
4.14084
4.14083
4.14082
4.14081
4.14079
4.14077
4.14073
4.14064
4.14044
4.14001
4.13916
4.89185
4.89285
4.89337
4.8936
4.8937
4.89375
4.89378
4.8938
4.89381
4.89382
4.89383
4.89385
4.89386
4.89387
4.89388
4.89389
4.8939
4.8939
4.89391
4.89392
4.89393
4.89393
4.89394
4.89394
4.89395
4.89395
4.89395
4.89396
4.89396
4.89396
4.89396
4.89396
4.89396
4.89395
4.89395
4.89395
4.89394
4.89394
4.89393
4.89393
4.89392
4.89391
4.8939
4.8939
4.89389
4.89388
4.89387
4.89386
4.89385
4.89383
4.89382
4.89381
4.8938
4.89378
4.89375
4.8937
4.8936
4.89337
4.89285
4.89185
5.64476
5.64589
5.64648
5.64675
5.64687
5.64692
5.64696
5.64698
5.64699
5.647
5.64702
5.64703
5.64704
5.64705
5.64706
5.64708
5.64709
5.6471
5.64711
5.64712
5.64712
5.64713
5.64714
5.64714
5.64715
5.64715
5.64715
5.64716
5.64716
5.64716
5.64716
5.64716
5.64716
5.64715
5.64715
5.64715
5.64714
5.64714
5.64713
5.64712
5.64712
5.64711
5.6471
5.64709
5.64708
5.64706
5.64705
5.64704
5.64703
5.64702
5.647
5.64699
5.64698
5.64696
5.64692
5.64687
5.64675
5.64648
5.64589
5.64476
6.39585
6.39712
6.39778
6.39807
6.39821
6.39827
6.39831
6.39833
6.39834
6.39836
6.39837
6.39839
6.3984
6.39842
6.39843
6.39844
6.39845
6.39847
6.39848
6.39849
6.3985
6.3985
6.39851
6.39852
6.39852
6.39853
6.39853
6.39853
6.39854
6.39854
6.39854
6.39854
6.39853
6.39853
6.39853
6.39852
6.39852
6.39851
6.3985
6.3985
6.39849
6.39848
6.39847
6.39845
6.39844
6.39843
6.39842
6.3984
6.39839
6.39837
6.39836
6.39834
6.39833
6.39831
6.39827
6.39821
6.39807
6.39778
6.39712
6.39585
7.14282
7.14421
7.14493
7.14526
7.1454
7.14547
7.14551
7.14554
7.14556
7.14557
7.14559
7.1456
7.14562
7.14563
7.14565
7.14566
7.14568
7.14569
7.1457
7.14571
7.14572
7.14573
7.14574
7.14575
7.14575
7.14576
7.14576
7.14577
7.14577
7.14577
7.14577
7.14577
7.14577
7.14576
7.14576
7.14575
7.14575
7.14574
7.14573
7.14572
7.14571
7.1457
7.14569
7.14568
7.14566
7.14565
7.14563
7.14562
7.1456
7.14559
7.14557
7.14556
7.14554
7.14551
7.14547
7.1454
7.14526
7.14493
7.14421
7.14282
7.88299
7.88449
7.88526
7.88562
7.88577
7.88585
7.88589
7.88592
7.88594
7.88596
7.88598
7.88599
7.88601
7.88603
7.88604
7.88606
7.88607
7.88609
7.8861
7.88611
7.88612
7.88613
7.88614
7.88615
7.88616
7.88616
7.88617
7.88617
7.88617
7.88618
7.88618
7.88617
7.88617
7.88617
7.88616
7.88616
7.88615
7.88614
7.88613
7.88612
7.88611
7.8861
7.88609
7.88607
7.88606
7.88604
7.88603
7.88601
7.88599
7.88598
7.88596
7.88594
7.88592
7.88589
7.88585
7.88577
7.88562
7.88526
7.88449
7.88299
8.61325
8.61484
8.61566
8.61603
8.6162
8.61628
8.61633
8.61636
8.61638
8.6164
8.61642
8.61644
8.61646
8.61647
8.61649
8.61651
8.61652
8.61654
8.61655
8.61657
8.61658
8.61659
8.6166
8.61661
8.61662
8.61662
8.61663
8.61663
8.61663
8.61664
8.61664
8.61663
8.61663
8.61663
8.61662
8.61662
8.61661
8.6166
8.61659
8.61658
8.61657
8.61655
8.61654
8.61652
8.61651
8.61649
8.61647
8.61646
8.61644
8.61642
8.6164
8.61638
8.61636
8.61633
8.61628
8.6162
8.61603
8.61566
8.61484
8.61325
9.32996
9.33162
9.33248
9.33287
9.33305
9.33313
9.33318
9.33321
9.33323
9.33325
9.33327
9.33329
9.33331
9.33333
9.33335
9.33337
9.33339
9.3334
9.33342
9.33343
9.33345
9.33346
9.33347
9.33348
9.33349
9.33349
9.3335
9.3335
9.33351
9.33351
9.33351
9.33351
9.3335
9.3335
9.33349
9.33349
9.33348
9.33347
9.33346
9.33345
9.33343
9.33342
9.3334
9.33339
9.33337
9.33335
9.33333
9.33331
9.33329
9.33327
9.33325
9.33323
9.33321
9.33318
9.33313
9.33305
9.33287
9.33248
9.33162
9.32996
10.0288
10.0306
10.0314
10.0318
10.032
10.0321
10.0322
10.0322
10.0322
10.0322
10.0323
10.0323
10.0323
10.0323
10.0323
10.0324
10.0324
10.0324
10.0324
10.0324
10.0324
10.0325
10.0325
10.0325
10.0325
10.0325
10.0325
10.0325
10.0325
10.0325
10.0325
10.0325
10.0325
10.0325
10.0325
10.0325
10.0325
10.0325
10.0325
10.0324
10.0324
10.0324
10.0324
10.0324
10.0324
10.0323
10.0323
10.0323
10.0323
10.0323
10.0322
10.0322
10.0322
10.0322
10.0321
10.032
10.0318
10.0314
10.0306
10.0288
10.7048
10.7066
10.7075
10.7079
10.708
10.7081
10.7082
10.7082
10.7082
10.7083
10.7083
10.7083
10.7083
10.7084
10.7084
10.7084
10.7084
10.7084
10.7085
10.7085
10.7085
10.7085
10.7085
10.7085
10.7085
10.7085
10.7085
10.7085
10.7086
10.7086
10.7086
10.7086
10.7085
10.7085
10.7085
10.7085
10.7085
10.7085
10.7085
10.7085
10.7085
10.7085
10.7084
10.7084
10.7084
10.7084
10.7084
10.7083
10.7083
10.7083
10.7083
10.7082
10.7082
10.7082
10.7081
10.708
10.7079
10.7075
10.7066
10.7048
11.3518
11.3535
11.3544
11.3548
11.355
11.3551
11.3552
11.3552
11.3552
11.3552
11.3553
11.3553
11.3553
11.3553
11.3554
11.3554
11.3554
11.3554
11.3554
11.3555
11.3555
11.3555
11.3555
11.3555
11.3555
11.3555
11.3555
11.3555
11.3556
11.3556
11.3556
11.3556
11.3555
11.3555
11.3555
11.3555
11.3555
11.3555
11.3555
11.3555
11.3555
11.3554
11.3554
11.3554
11.3554
11.3554
11.3553
11.3553
11.3553
11.3553
11.3552
11.3552
11.3552
11.3552
11.3551
11.355
11.3548
11.3544
11.3535
11.3518
11.9625
11.9642
11.9651
11.9654
11.9656
11.9657
11.9658
11.9658
11.9658
11.9658
11.9659
11.9659
11.9659
11.9659
11.966
11.966
11.966
11.966
11.9661
11.9661
11.9661
11.9661
11.9661
11.9661
11.9661
11.9661
11.9662
11.9662
11.9662
11.9662
11.9662
11.9662
11.9662
11.9662
11.9661
11.9661
11.9661
11.9661
11.9661
11.9661
11.9661
11.9661
11.966
11.966
11.966
11.966
11.9659
11.9659
11.9659
11.9659
11.9658
11.9658
11.9658
11.9658
11.9657
11.9656
11.9654
11.9651
11.9642
11.9625
12.5282
12.5297
12.5305
12.5309
12.5311
12.5312
12.5312
12.5312
12.5313
12.5313
12.5313
12.5313
12.5314
12.5314
12.5314
12.5314
12.5315
12.5315
12.5315
12.5315
12.5315
12.5316
12.5316
12.5316
12.5316
12.5316
12.5316
12.5316
12.5316
12.5316
12.5316
12.5316
12.5316
12.5316
12.5316
12.5316
12.5316
12.5316
12.5316
12.5315
12.5315
12.5315
12.5315
12.5315
12.5314
12.5314
12.5314
12.5314
12.5313
12.5313
12.5313
12.5313
12.5312
12.5312
12.5312
12.5311
12.5309
12.5305
12.5297
12.5282
13.0388
13.0402
13.0409
13.0413
13.0414
13.0415
13.0416
13.0416
13.0416
13.0416
13.0417
13.0417
13.0417
13.0417
13.0418
13.0418
13.0418
13.0418
13.0419
13.0419
13.0419
13.0419
13.0419
13.0419
13.0419
13.0419
13.042
13.042
13.042
13.042
13.042
13.042
13.042
13.042
13.0419
13.0419
13.0419
13.0419
13.0419
13.0419
13.0419
13.0419
13.0418
13.0418
13.0418
13.0418
13.0417
13.0417
13.0417
13.0417
13.0416
13.0416
13.0416
13.0416
13.0415
13.0414
13.0413
13.0409
13.0402
13.0388
13.4846
13.4858
13.4864
13.4867
13.4868
13.4869
13.4869
13.487
13.487
13.487
13.487
13.4871
13.4871
13.4871
13.4871
13.4872
13.4872
13.4872
13.4872
13.4873
13.4873
13.4873
13.4873
13.4873
13.4873
13.4873
13.4873
13.4873
13.4873
13.4874
13.4874
13.4873
13.4873
13.4873
13.4873
13.4873
13.4873
13.4873
13.4873
13.4873
13.4873
13.4872
13.4872
13.4872
13.4872
13.4871
13.4871
13.4871
13.4871
13.487
13.487
13.487
13.487
13.4869
13.4869
13.4868
13.4867
13.4864
13.4858
13.4846
13.8587
13.8596
13.8601
13.8603
13.8604
13.8605
13.8605
13.8605
13.8605
13.8606
13.8606
13.8606
13.8606
13.8607
13.8607
13.8607
13.8607
13.8608
13.8608
13.8608
13.8608
13.8608
13.8609
13.8609
13.8609
13.8609
13.8609
13.8609
13.8609
13.8609
13.8609
13.8609
13.8609
13.8609
13.8609
13.8609
13.8609
13.8609
13.8608
13.8608
13.8608
13.8608
13.8608
13.8607
13.8607
13.8607
13.8607
13.8606
13.8606
13.8606
13.8606
13.8605
13.8605
13.8605
13.8605
13.8604
13.8603
13.8601
13.8596
13.8587
14.1605
14.1611
14.1615
14.1616
14.1617
14.1617
14.1618
14.1618
14.1618
14.1618
14.1619
14.1619
14.1619
14.1619
14.162
14.162
14.162
14.162
14.1621
14.1621
14.1621
14.1621
14.1621
14.1622
14.1622
14.1622
14.1622
14.1622
14.1622
14.1622
14.1622
14.1622
14.1622
14.1622
14.1622
14.1622
14.1622
14.1621
14.1621
14.1621
14.1621
14.1621
14.162
14.162
14.162
14.162
14.1619
14.1619
14.1619
14.1619
14.1618
14.1618
14.1618
14.1618
14.1617
14.1617
14.1616
14.1615
14.1611
14.1605
14.3973
14.3977
14.3979
14.398
14.3981
14.3981
14.3982
14.3982
14.3982
14.3982
14.3983
14.3983
14.3983
14.3983
14.3984
14.3984
14.3984
14.3984
14.3985
14.3985
14.3985
14.3985
14.3985
14.3986
14.3986
14.3986
14.3986
14.3986
14.3986
14.3986
14.3986
14.3986
14.3986
14.3986
14.3986
14.3986
14.3986
14.3985
14.3985
14.3985
14.3985
14.3985
14.3984
14.3984
14.3984
14.3984
14.3983
14.3983
14.3983
14.3983
14.3982
14.3982
14.3982
14.3982
14.3981
14.3981
14.398
14.3979
14.3977
14.3973
14.582
14.5822
14.5823
14.5824
14.5824
14.5825
14.5825
14.5825
14.5825
14.5826
14.5826
14.5826
14.5826
14.5827
14.5827
14.5827
14.5828
14.5828
14.5828
14.5828
14.5828
14.5829
14.5829
14.5829
14.5829
14.5829
14.5829
14.5829
14.5829
14.5829
14.5829
14.5829
14.5829
14.5829
14.5829
14.5829
14.5829
14.5829
14.5829
14.5828
14.5828
14.5828
14.5828
14.5828
14.5827
14.5827
14.5827
14.5826
14.5826
14.5826
14.5826
14.5825
14.5825
14.5825
14.5825
14.5824
14.5824
14.5823
14.5822
14.582
14.7284
14.7285
14.7286
14.7286
14.7286
14.7287
14.7287
14.7287
14.7287
14.7287
14.7288
14.7288
14.7288
14.7289
14.7289
14.7289
14.729
14.729
14.729
14.729
14.7291
14.7291
14.7291
14.7291
14.7291
14.7291
14.7291
14.7291
14.7292
14.7292
14.7292
14.7292
14.7291
14.7291
14.7291
14.7291
14.7291
14.7291
14.7291
14.7291
14.729
14.729
14.729
14.729
14.7289
14.7289
14.7289
14.7288
14.7288
14.7288
14.7287
14.7287
14.7287
14.7287
14.7287
14.7286
14.7286
14.7286
14.7285
14.7284
14.8483
14.8483
14.8483
14.8483
14.8484
14.8484
14.8484
14.8484
14.8484
14.8485
14.8485
14.8485
14.8486
14.8486
14.8486
14.8487
14.8487
14.8487
14.8487
14.8488
14.8488
14.8488
14.8488
14.8489
14.8489
14.8489
14.8489
14.8489
14.8489
14.8489
14.8489
14.8489
14.8489
14.8489
14.8489
14.8489
14.8489
14.8488
14.8488
14.8488
14.8488
14.8487
14.8487
14.8487
14.8487
14.8486
14.8486
14.8486
14.8485
14.8485
14.8485
14.8484
14.8484
14.8484
14.8484
14.8484
14.8483
14.8483
14.8483
14.8483
14.95
14.9499
14.9499
14.9499
14.95
14.95
14.95
14.95
14.95
14.9501
14.9501
14.9501
14.9502
14.9502
14.9503
14.9503
14.9503
14.9504
14.9504
14.9504
14.9504
14.9505
14.9505
14.9505
14.9505
14.9505
14.9505
14.9505
14.9506
14.9506
14.9506
14.9506
14.9505
14.9505
14.9505
14.9505
14.9505
14.9505
14.9505
14.9504
14.9504
14.9504
14.9504
14.9503
14.9503
14.9503
14.9502
14.9502
14.9501
14.9501
14.9501
14.95
14.95
14.95
14.95
14.95
14.9499
14.9499
14.9499
14.95
15.039
15.0389
15.0389
15.0389
15.0389
15.0389
15.039
15.039
15.039
15.0391
15.0391
15.0391
15.0392
15.0392
15.0392
15.0393
15.0393
15.0394
15.0394
15.0394
15.0394
15.0395
15.0395
15.0395
15.0395
15.0395
15.0396
15.0396
15.0396
15.0396
15.0396
15.0396
15.0396
15.0396
15.0395
15.0395
15.0395
15.0395
15.0395
15.0394
15.0394
15.0394
15.0394
15.0393
15.0393
15.0392
15.0392
15.0392
15.0391
15.0391
15.0391
15.039
15.039
15.039
15.0389
15.0389
15.0389
15.0389
15.0389
15.039
15.1189
15.1188
15.1188
15.1188
15.1188
15.1188
15.1188
15.1188
15.1189
15.1189
15.119
15.119
15.119
15.1191
15.1191
15.1192
15.1192
15.1192
15.1193
15.1193
15.1193
15.1194
15.1194
15.1194
15.1194
15.1194
15.1195
15.1195
15.1195
15.1195
15.1195
15.1195
15.1195
15.1195
15.1194
15.1194
15.1194
15.1194
15.1194
15.1193
15.1193
15.1193
15.1192
15.1192
15.1192
15.1191
15.1191
15.119
15.119
15.119
15.1189
15.1189
15.1188
15.1188
15.1188
15.1188
15.1188
15.1188
15.1188
15.1189
15.1919
15.1918
15.1918
15.1918
15.1918
15.1918
15.1918
15.1918
15.1919
15.1919
15.192
15.192
15.192
15.1921
15.1921
15.1922
15.1922
15.1923
15.1923
15.1923
15.1924
15.1924
15.1924
15.1924
15.1925
15.1925
15.1925
15.1925
15.1925
15.1925
15.1925
15.1925
15.1925
15.1925
15.1925
15.1925
15.1924
15.1924
15.1924
15.1924
15.1923
15.1923
15.1923
15.1922
15.1922
15.1921
15.1921
15.192
15.192
15.192
15.1919
15.1919
15.1918
15.1918
15.1918
15.1918
15.1918
15.1918
15.1918
15.1919
15.2596
15.2595
15.2594
15.2594
15.2594
15.2595
15.2595
15.2595
15.2596
15.2596
15.2596
15.2597
15.2597
15.2598
15.2598
15.2599
15.2599
15.26
15.26
15.2601
15.2601
15.2601
15.2601
15.2602
15.2602
15.2602
15.2602
15.2602
15.2602
15.2602
15.2602
15.2602
15.2602
15.2602
15.2602
15.2602
15.2602
15.2601
15.2601
15.2601
15.2601
15.26
15.26
15.2599
15.2599
15.2598
15.2598
15.2597
15.2597
15.2596
15.2596
15.2596
15.2595
15.2595
15.2595
15.2594
15.2594
15.2594
15.2595
15.2596
15.3231
15.323
15.3229
15.3229
15.3229
15.3229
15.3229
15.323
15.323
15.3231
15.3231
15.3232
15.3232
15.3233
15.3233
15.3234
15.3234
15.3235
15.3235
15.3235
15.3236
15.3236
15.3236
15.3237
15.3237
15.3237
15.3237
15.3237
15.3238
15.3238
15.3238
15.3238
15.3237
15.3237
15.3237
15.3237
15.3237
15.3236
15.3236
15.3236
15.3235
15.3235
15.3235
15.3234
15.3234
15.3233
15.3233
15.3232
15.3232
15.3231
15.3231
15.323
15.323
15.3229
15.3229
15.3229
15.3229
15.3229
15.323
15.3231
15.3831
15.383
15.3829
15.3829
15.3829
15.3829
15.383
15.383
15.383
15.3831
15.3832
15.3832
15.3833
15.3833
15.3834
15.3834
15.3835
15.3835
15.3836
15.3836
15.3837
15.3837
15.3837
15.3838
15.3838
15.3838
15.3838
15.3838
15.3838
15.3838
15.3838
15.3838
15.3838
15.3838
15.3838
15.3838
15.3838
15.3837
15.3837
15.3837
15.3836
15.3836
15.3835
15.3835
15.3834
15.3834
15.3833
15.3833
15.3832
15.3832
15.3831
15.383
15.383
15.383
15.3829
15.3829
15.3829
15.3829
15.383
15.3831
15.4404
15.4402
15.4402
15.4401
15.4401
15.4402
15.4402
15.4402
15.4403
15.4403
15.4404
15.4405
15.4405
15.4406
15.4406
15.4407
15.4408
15.4408
15.4409
15.4409
15.441
15.441
15.441
15.4411
15.4411
15.4411
15.4411
15.4411
15.4411
15.4411
15.4411
15.4411
15.4411
15.4411
15.4411
15.4411
15.4411
15.441
15.441
15.441
15.4409
15.4409
15.4408
15.4408
15.4407
15.4406
15.4406
15.4405
15.4405
15.4404
15.4403
15.4403
15.4402
15.4402
15.4402
15.4401
15.4401
15.4402
15.4402
15.4404
15.4953
15.4952
15.4951
15.4951
15.4951
15.4951
15.4951
15.4952
15.4952
15.4953
15.4953
15.4954
15.4955
15.4955
15.4956
15.4957
15.4957
15.4958
15.4958
15.4959
15.4959
15.496
15.496
15.496
15.4961
15.4961
15.4961
15.4961
15.4961
15.4961
15.4961
15.4961
15.4961
15.4961
15.4961
15.4961
15.496
15.496
15.496
15.4959
15.4959
15.4958
15.4958
15.4957
15.4957
15.4956
15.4955
15.4955
15.4954
15.4953
15.4953
15.4952
15.4952
15.4951
15.4951
15.4951
15.4951
15.4951
15.4952
15.4953
15.5483
15.5482
15.5481
15.5481
15.5481
15.5481
15.5481
15.5482
15.5482
15.5483
15.5484
15.5484
15.5485
15.5486
15.5486
15.5487
15.5488
15.5488
15.5489
15.5489
15.549
15.549
15.5491
15.5491
15.5491
15.5492
15.5492
15.5492
15.5492
15.5492
15.5492
15.5492
15.5492
15.5492
15.5492
15.5491
15.5491
15.5491
15.549
15.549
15.5489
15.5489
15.5488
15.5488
15.5487
15.5486
15.5486
15.5485
15.5484
15.5484
15.5483
15.5482
15.5482
15.5481
15.5481
15.5481
15.5481
15.5481
15.5482
15.5483
15.5997
15.5995
15.5995
15.5994
15.5995
15.5995
15.5995
15.5996
15.5996
15.5997
15.5998
15.5998
15.5999
15.6
15.6001
15.6001
15.6002
15.6003
15.6003
15.6004
15.6004
15.6005
15.6005
15.6006
15.6006
15.6006
15.6006
15.6007
15.6007
15.6007
15.6007
15.6007
15.6007
15.6006
15.6006
15.6006
15.6006
15.6005
15.6005
15.6004
15.6004
15.6003
15.6003
15.6002
15.6001
15.6001
15.6
15.5999
15.5998
15.5998
15.5997
15.5996
15.5996
15.5995
15.5995
15.5995
15.5994
15.5995
15.5995
15.5997
15.6497
15.6496
15.6495
15.6495
15.6495
15.6495
15.6496
15.6496
15.6497
15.6498
15.6498
15.6499
15.65
15.6501
15.6502
15.6502
15.6503
15.6504
15.6504
15.6505
15.6506
15.6506
15.6506
15.6507
15.6507
15.6507
15.6508
15.6508
15.6508
15.6508
15.6508
15.6508
15.6508
15.6508
15.6507
15.6507
15.6507
15.6506
15.6506
15.6506
15.6505
15.6504
15.6504
15.6503
15.6502
15.6502
15.6501
15.65
15.6499
15.6498
15.6498
15.6497
15.6496
15.6496
15.6495
15.6495
15.6495
15.6495
15.6496
15.6497
15.6987
15.6985
15.6985
15.6984
15.6985
15.6985
15.6985
15.6986
15.6987
15.6987
15.6988
15.6989
15.699
15.6991
15.6991
15.6992
15.6993
15.6994
15.6994
15.6995
15.6996
15.6996
15.6997
15.6997
15.6997
15.6998
15.6998
15.6998
15.6998
15.6998
15.6998
15.6998
15.6998
15.6998
15.6998
15.6997
15.6997
15.6997
15.6996
15.6996
15.6995
15.6994
15.6994
15.6993
15.6992
15.6991
15.6991
15.699
15.6989
15.6988
15.6987
15.6987
15.6986
15.6985
15.6985
15.6985
15.6984
15.6985
15.6985
15.6987
15.7467
15.7466
15.7465
15.7465
15.7465
15.7465
15.7466
15.7466
15.7467
15.7468
15.7469
15.7469
15.747
15.7471
15.7472
15.7473
15.7474
15.7475
15.7475
15.7476
15.7477
15.7477
15.7478
15.7478
15.7478
15.7479
15.7479
15.7479
15.7479
15.7479
15.7479
15.7479
15.7479
15.7479
15.7479
15.7478
15.7478
15.7478
15.7477
15.7477
15.7476
15.7475
15.7475
15.7474
15.7473
15.7472
15.7471
15.747
15.7469
15.7469
15.7468
15.7467
15.7466
15.7466
15.7465
15.7465
15.7465
15.7465
15.7466
15.7467
15.7939
15.7938
15.7938
15.7937
15.7938
15.7938
15.7938
15.7939
15.794
15.7941
15.7942
15.7943
15.7943
15.7944
15.7945
15.7946
15.7947
15.7948
15.7949
15.7949
15.795
15.7951
15.7951
15.7952
15.7952
15.7952
15.7953
15.7953
15.7953
15.7953
15.7953
15.7953
15.7953
15.7953
15.7952
15.7952
15.7952
15.7951
15.7951
15.795
15.7949
15.7949
15.7948
15.7947
15.7946
15.7945
15.7944
15.7943
15.7943
15.7942
15.7941
15.794
15.7939
15.7938
15.7938
15.7938
15.7937
15.7938
15.7938
15.7939
15.8406
15.8405
15.8404
15.8404
15.8404
15.8405
15.8405
15.8406
15.8407
15.8408
15.8408
15.8409
15.841
15.8411
15.8412
15.8413
15.8414
15.8415
15.8416
15.8417
15.8417
15.8418
15.8418
15.8419
15.8419
15.842
15.842
15.842
15.842
15.842
15.842
15.842
15.842
15.842
15.842
15.8419
15.8419
15.8418
15.8418
15.8417
15.8417
15.8416
15.8415
15.8414
15.8413
15.8412
15.8411
15.841
15.8409
15.8408
15.8408
15.8407
15.8406
15.8405
15.8405
15.8404
15.8404
15.8404
15.8405
15.8406
15.8868
15.8867
15.8866
15.8866
15.8866
15.8866
15.8867
15.8868
15.8869
15.887
15.8871
15.8872
15.8873
15.8874
15.8875
15.8876
15.8877
15.8878
15.8878
15.8879
15.888
15.8881
15.8881
15.8882
15.8882
15.8882
15.8883
15.8883
15.8883
15.8883
15.8883
15.8883
15.8883
15.8883
15.8882
15.8882
15.8882
15.8881
15.8881
15.888
15.8879
15.8878
15.8878
15.8877
15.8876
15.8875
15.8874
15.8873
15.8872
15.8871
15.887
15.8869
15.8868
15.8867
15.8866
15.8866
15.8866
15.8866
15.8867
15.8868
15.9326
15.9325
15.9324
15.9324
15.9324
15.9325
15.9325
15.9326
15.9327
15.9328
15.9329
15.933
15.9331
15.9332
15.9333
15.9335
15.9336
15.9336
15.9337
15.9338
15.9339
15.934
15.934
15.9341
15.9341
15.9342
15.9342
15.9342
15.9342
15.9342
15.9342
15.9342
15.9342
15.9342
15.9342
15.9341
15.9341
15.934
15.934
15.9339
15.9338
15.9337
15.9336
15.9336
15.9335
15.9333
15.9332
15.9331
15.933
15.9329
15.9328
15.9327
15.9326
15.9325
15.9325
15.9324
15.9324
15.9324
15.9325
15.9326
15.9781
15.9781
15.978
15.978
15.978
15.978
15.9781
15.9782
15.9783
15.9784
15.9785
15.9786
15.9787
15.9789
15.979
15.9791
15.9792
15.9793
15.9794
15.9795
15.9795
15.9796
15.9797
15.9797
15.9798
15.9798
15.9799
15.9799
15.9799
15.9799
15.9799
15.9799
15.9799
15.9799
15.9798
15.9798
15.9797
15.9797
15.9796
15.9795
15.9795
15.9794
15.9793
15.9792
15.9791
15.979
15.9789
15.9787
15.9786
15.9785
15.9784
15.9783
15.9782
15.9781
15.978
15.978
15.978
15.978
15.9781
15.9781
16.0235
16.0234
16.0234
16.0234
16.0234
16.0234
16.0235
16.0236
16.0237
16.0238
16.0239
16.0241
16.0242
16.0243
16.0244
16.0245
16.0246
16.0248
16.0249
16.0249
16.025
16.0251
16.0252
16.0252
16.0253
16.0253
16.0254
16.0254
16.0254
16.0254
16.0254
16.0254
16.0254
16.0254
16.0253
16.0253
16.0252
16.0252
16.0251
16.025
16.0249
16.0249
16.0248
16.0246
16.0245
16.0244
16.0243
16.0242
16.0241
16.0239
16.0238
16.0237
16.0236
16.0235
16.0234
16.0234
16.0234
16.0234
16.0234
16.0235
16.0688
16.0688
16.0687
16.0687
16.0687
16.0688
16.0689
16.0689
16.0691
16.0692
16.0693
16.0694
16.0695
16.0697
16.0698
16.0699
16.07
16.0701
16.0703
16.0703
16.0704
16.0705
16.0706
16.0706
16.0707
16.0707
16.0708
16.0708
16.0708
16.0708
16.0708
16.0708
16.0708
16.0708
16.0707
16.0707
16.0706
16.0706
16.0705
16.0704
16.0703
16.0703
16.0701
16.07
16.0699
16.0698
16.0697
16.0695
16.0694
16.0693
16.0692
16.0691
16.0689
16.0689
16.0688
16.0687
16.0687
16.0687
16.0688
16.0688
16.1142
16.1141
16.114
16.114
16.1141
16.1141
16.1142
16.1143
16.1144
16.1145
16.1147
16.1148
16.1149
16.1151
16.1152
16.1153
16.1154
16.1156
16.1157
16.1158
16.1159
16.1159
16.116
16.1161
16.1161
16.1162
16.1162
16.1162
16.1163
16.1163
16.1163
16.1163
16.1162
16.1162
16.1162
16.1161
16.1161
16.116
16.1159
16.1159
16.1158
16.1157
16.1156
16.1154
16.1153
16.1152
16.1151
16.1149
16.1148
16.1147
16.1145
16.1144
16.1143
16.1142
16.1141
16.1141
16.114
16.114
16.1141
16.1142
16.1595
16.1595
16.1594
16.1594
16.1595
16.1595
16.1596
16.1597
16.1598
16.16
16.1601
16.1602
16.1604
16.1605
16.1607
16.1608
16.1609
16.161
16.1612
16.1613
16.1614
16.1614
16.1615
16.1616
16.1616
16.1617
16.1617
16.1618
16.1618
16.1618
16.1618
16.1618
16.1618
16.1617
16.1617
16.1616
16.1616
16.1615
16.1614
16.1614
16.1613
16.1612
16.161
16.1609
16.1608
16.1607
16.1605
16.1604
16.1602
16.1601
16.16
16.1598
16.1597
16.1596
16.1595
16.1595
16.1594
16.1594
16.1595
16.1595
16.2051
16.205
16.205
16.205
16.205
16.2051
16.2052
16.2053
16.2054
16.2055
16.2057
16.2058
16.206
16.2061
16.2063
16.2064
16.2065
16.2067
16.2068
16.2069
16.207
16.2071
16.2072
16.2072
16.2073
16.2074
16.2074
16.2074
16.2075
16.2075
16.2075
16.2075
16.2074
16.2074
16.2074
16.2073
16.2072
16.2072
16.2071
16.207
16.2069
16.2068
16.2067
16.2065
16.2064
16.2063
16.2061
16.206
16.2058
16.2057
16.2055
16.2054
16.2053
16.2052
16.2051
16.205
16.205
16.205
16.205
16.2051
16.2508
16.2508
16.2507
16.2507
16.2508
16.2509
16.251
16.2511
16.2512
16.2513
16.2515
16.2516
16.2518
16.252
16.2521
16.2523
16.2524
16.2525
16.2527
16.2528
16.2529
16.253
16.2531
16.2531
16.2532
16.2532
16.2533
16.2533
16.2533
16.2534
16.2534
16.2533
16.2533
16.2533
16.2532
16.2532
16.2531
16.2531
16.253
16.2529
16.2528
16.2527
16.2525
16.2524
16.2523
16.2521
16.252
16.2518
16.2516
16.2515
16.2513
16.2512
16.2511
16.251
16.2509
16.2508
16.2507
16.2507
16.2508
16.2508
16.2969
16.2968
16.2968
16.2968
16.2968
16.2969
16.297
16.2971
16.2973
16.2974
16.2976
16.2977
16.2979
16.2981
16.2982
16.2984
16.2985
16.2987
16.2988
16.2989
16.299
16.2991
16.2992
16.2993
16.2994
16.2994
16.2995
16.2995
16.2995
16.2995
16.2995
16.2995
16.2995
16.2995
16.2994
16.2994
16.2993
16.2992
16.2991
16.299
16.2989
16.2988
16.2987
16.2985
16.2984
16.2982
16.2981
16.2979
16.2977
16.2976
16.2974
16.2973
16.2971
16.297
16.2969
16.2968
16.2968
16.2968
16.2968
16.2969
16.3433
16.3432
16.3432
16.3432
16.3432
16.3433
16.3434
16.3435
16.3437
16.3438
16.344
16.3442
16.3444
16.3445
16.3447
16.3448
16.345
16.3451
16.3453
16.3454
16.3455
16.3456
16.3457
16.3458
16.3459
16.3459
16.346
16.346
16.346
16.346
16.346
16.346
16.346
16.346
16.3459
16.3459
16.3458
16.3457
16.3456
16.3455
16.3454
16.3453
16.3451
16.345
16.3448
16.3447
16.3445
16.3444
16.3442
16.344
16.3438
16.3437
16.3435
16.3434
16.3433
16.3432
16.3432
16.3432
16.3432
16.3433
16.39
16.39
16.39
16.39
16.39
16.3901
16.3902
16.3904
16.3905
16.3907
16.3908
16.391
16.3912
16.3914
16.3915
16.3917
16.3919
16.392
16.3922
16.3923
16.3924
16.3925
16.3926
16.3927
16.3928
16.3929
16.3929
16.3929
16.393
16.393
16.393
16.393
16.3929
16.3929
16.3929
16.3928
16.3927
16.3926
16.3925
16.3924
16.3923
16.3922
16.392
16.3919
16.3917
16.3915
16.3914
16.3912
16.391
16.3908
16.3907
16.3905
16.3904
16.3902
16.3901
16.39
16.39
16.39
16.39
16.39
16.4373
16.4372
16.4372
16.4372
16.4373
16.4374
16.4375
16.4376
16.4378
16.4379
16.4381
16.4383
16.4385
16.4387
16.4389
16.439
16.4392
16.4394
16.4395
16.4397
16.4398
16.4399
16.44
16.4401
16.4402
16.4402
16.4403
16.4403
16.4403
16.4404
16.4404
16.4403
16.4403
16.4403
16.4402
16.4402
16.4401
16.44
16.4399
16.4398
16.4397
16.4395
16.4394
16.4392
16.439
16.4389
16.4387
16.4385
16.4383
16.4381
16.4379
16.4378
16.4376
16.4375
16.4374
16.4373
16.4372
16.4372
16.4372
16.4373
16.485
16.485
16.4849
16.485
16.485
16.4851
16.4852
16.4854
16.4856
16.4857
16.4859
16.4861
16.4863
16.4865
16.4867
16.4869
16.4871
16.4872
16.4874
16.4875
16.4877
16.4878
16.4879
16.488
16.4881
16.4881
16.4882
16.4882
16.4882
16.4883
16.4883
16.4882
16.4882
16.4882
16.4881
16.4881
16.488
16.4879
16.4878
16.4877
16.4875
16.4874
16.4872
16.4871
16.4869
16.4867
16.4865
16.4863
16.4861
16.4859
16.4857
16.4856
16.4854
16.4852
16.4851
16.485
16.485
16.4849
16.485
16.485
16.5333
16.5333
16.5332
16.5333
16.5333
16.5334
16.5336
16.5337
16.5339
16.5341
16.5343
16.5345
16.5347
16.5349
16.5351
16.5353
16.5355
16.5357
16.5358
16.536
16.5361
16.5362
16.5363
16.5364
16.5365
16.5366
16.5366
16.5367
16.5367
16.5367
16.5367
16.5367
16.5367
16.5366
16.5366
16.5365
16.5364
16.5363
16.5362
16.5361
16.536
16.5358
16.5357
16.5355
16.5353
16.5351
16.5349
16.5347
16.5345
16.5343
16.5341
16.5339
16.5337
16.5336
16.5334
16.5333
16.5333
16.5332
16.5333
16.5333
16.5822
16.5822
16.5822
16.5822
16.5823
16.5824
16.5825
16.5827
16.5829
16.5831
16.5833
16.5835
16.5837
16.5839
16.5841
16.5843
16.5845
16.5847
16.5849
16.585
16.5852
16.5853
16.5854
16.5855
16.5856
16.5857
16.5857
16.5858
16.5858
16.5858
16.5858
16.5858
16.5858
16.5857
16.5857
16.5856
16.5855
16.5854
16.5853
16.5852
16.585
16.5849
16.5847
16.5845
16.5843
16.5841
16.5839
16.5837
16.5835
16.5833
16.5831
16.5829
16.5827
16.5825
16.5824
16.5823
16.5822
16.5822
16.5822
16.5822
16.6318
16.6318
16.6318
16.6318
16.6319
16.632
16.6321
16.6323
16.6325
16.6327
16.6329
16.6332
16.6334
16.6336
16.6338
16.634
16.6342
16.6344
16.6346
16.6348
16.6349
16.635
16.6352
16.6353
16.6354
16.6354
16.6355
16.6355
16.6356
16.6356
16.6356
16.6356
16.6355
16.6355
16.6354
16.6354
16.6353
16.6352
16.635
16.6349
16.6348
16.6346
16.6344
16.6342
16.634
16.6338
16.6336
16.6334
16.6332
16.6329
16.6327
16.6325
16.6323
16.6321
16.632
16.6319
16.6318
16.6318
16.6318
16.6318
16.6821
16.6821
16.6821
16.6821
16.6822
16.6823
16.6825
16.6827
16.6829
16.6831
16.6833
16.6835
16.6838
16.684
16.6842
16.6844
16.6847
16.6849
16.685
16.6852
16.6854
16.6855
16.6856
16.6857
16.6858
16.6859
16.686
16.686
16.686
16.6861
16.6861
16.686
16.686
16.686
16.6859
16.6858
16.6857
16.6856
16.6855
16.6854
16.6852
16.685
16.6849
16.6847
16.6844
16.6842
16.684
16.6838
16.6835
16.6833
16.6831
16.6829
16.6827
16.6825
16.6823
16.6822
16.6821
16.6821
16.6821
16.6821
16.7332
16.7331
16.7332
16.7332
16.7333
16.7334
16.7336
16.7338
16.734
16.7342
16.7345
16.7347
16.7349
16.7352
16.7354
16.7356
16.7359
16.7361
16.7363
16.7364
16.7366
16.7368
16.7369
16.737
16.7371
16.7372
16.7372
16.7373
16.7373
16.7373
16.7373
16.7373
16.7373
16.7372
16.7372
16.7371
16.737
16.7369
16.7368
16.7366
16.7364
16.7363
16.7361
16.7359
16.7356
16.7354
16.7352
16.7349
16.7347
16.7345
16.7342
16.734
16.7338
16.7336
16.7334
16.7333
16.7332
16.7332
16.7331
16.7332
16.7851
16.785
16.7851
16.7851
16.7852
16.7853
16.7855
16.7857
16.7859
16.7862
16.7864
16.7867
16.7869
16.7872
16.7874
16.7877
16.7879
16.7881
16.7883
16.7885
16.7887
16.7888
16.789