/*--------------------------------*- C++ -*----------------------------------*\
| =========                 |                                                 |
| \\      /  F ield         | foam-extend: Open Source CFD                    |
|  \\    /   O peration     | Version:     4.0                                |
|   \\  /    A nd           | Web:         http://www.foam-extend.org         |
|    \\/     M anipulation  |                                                 |
\*---------------------------------------------------------------------------*/
FoamFile
{
    version     2.0;
    format      ascii;
    class       volScalarField;
    location    "260";
    object      psiE;
}
// * * * * * * * * * * * * * * * * * * * * * * * * * * * * * * * * * * * * * //

dimensions      [0 0 0 0 0 0 0];

internalField   nonuniform List<scalar> 
6960
(
0.223618
0.223596
0.22359
0.223588
0.223587
0.223586
0.223586
0.223586
0.223587
0.223587
0.223588
0.223588
0.223589
0.223589
0.22359
0.22359
0.223591
0.223591
0.223592
0.223592
0.223593
0.223593
0.223594
0.223594
0.223594
0.223594
0.223595
0.223595
0.223595
0.223595
0.223595
0.223595
0.223595
0.223595
0.223594
0.223594
0.223594
0.223594
0.223593
0.223593
0.223592
0.223592
0.223591
0.223591
0.22359
0.22359
0.223589
0.223589
0.223588
0.223588
0.223587
0.223587
0.223586
0.223586
0.223586
0.223587
0.223588
0.22359
0.223596
0.223618
0.448864
0.44881
0.448795
0.448789
0.448786
0.448785
0.448786
0.448786
0.448787
0.448789
0.44879
0.448792
0.448794
0.448796
0.448798
0.448799
0.448801
0.448803
0.448804
0.448806
0.448807
0.448808
0.44881
0.448811
0.448811
0.448812
0.448813
0.448813
0.448813
0.448813
0.448813
0.448813
0.448813
0.448813
0.448812
0.448811
0.448811
0.44881
0.448808
0.448807
0.448806
0.448804
0.448803
0.448801
0.448799
0.448798
0.448796
0.448794
0.448792
0.44879
0.448789
0.448787
0.448786
0.448786
0.448785
0.448786
0.448789
0.448795
0.44881
0.448864
0.578913
0.578838
0.578816
0.578807
0.578804
0.578803
0.578803
0.578805
0.578807
0.578809
0.578812
0.578815
0.578819
0.578822
0.578825
0.578828
0.578831
0.578834
0.578837
0.57884
0.578842
0.578844
0.578846
0.578848
0.57885
0.578851
0.578852
0.578852
0.578853
0.578853
0.578853
0.578853
0.578852
0.578852
0.578851
0.57885
0.578848
0.578846
0.578844
0.578842
0.57884
0.578837
0.578834
0.578831
0.578828
0.578825
0.578822
0.578819
0.578815
0.578812
0.578809
0.578807
0.578805
0.578803
0.578803
0.578804
0.578807
0.578816
0.578838
0.578913
0.665658
0.665572
0.665546
0.665535
0.665531
0.66553
0.665531
0.665534
0.665537
0.665541
0.665545
0.66555
0.665555
0.66556
0.665565
0.665569
0.665574
0.665578
0.665582
0.665586
0.66559
0.665593
0.665596
0.665598
0.6656
0.665602
0.665604
0.665605
0.665606
0.665606
0.665606
0.665606
0.665605
0.665604
0.665602
0.6656
0.665598
0.665596
0.665593
0.66559
0.665586
0.665582
0.665578
0.665574
0.665569
0.665565
0.66556
0.665555
0.66555
0.665545
0.665541
0.665537
0.665534
0.665531
0.66553
0.665531
0.665535
0.665546
0.665572
0.665658
0.732695
0.732603
0.732574
0.732562
0.732558
0.732557
0.732559
0.732563
0.732568
0.732573
0.732579
0.732586
0.732592
0.732599
0.732605
0.732612
0.732618
0.732624
0.732629
0.732634
0.732639
0.732643
0.732647
0.732651
0.732654
0.732656
0.732658
0.732659
0.73266
0.732661
0.732661
0.73266
0.732659
0.732658
0.732656
0.732654
0.732651
0.732647
0.732643
0.732639
0.732634
0.732629
0.732624
0.732618
0.732612
0.732605
0.732599
0.732592
0.732586
0.732579
0.732573
0.732568
0.732563
0.732559
0.732557
0.732558
0.732562
0.732574
0.732603
0.732695
0.790446
0.790352
0.79032
0.790308
0.790304
0.790304
0.790307
0.790312
0.790319
0.790326
0.790333
0.790342
0.79035
0.790358
0.790367
0.790375
0.790383
0.79039
0.790397
0.790404
0.79041
0.790415
0.79042
0.790424
0.790428
0.790431
0.790434
0.790435
0.790437
0.790437
0.790437
0.790437
0.790435
0.790434
0.790431
0.790428
0.790424
0.79042
0.790415
0.79041
0.790404
0.790397
0.79039
0.790383
0.790375
0.790367
0.790358
0.79035
0.790342
0.790333
0.790326
0.790319
0.790312
0.790307
0.790304
0.790304
0.790308
0.79032
0.790352
0.790446
0.843396
0.843301
0.843268
0.843255
0.843252
0.843253
0.843257
0.843263
0.843271
0.84328
0.84329
0.8433
0.84331
0.84332
0.84333
0.84334
0.84335
0.843359
0.843368
0.843376
0.843383
0.84339
0.843396
0.843401
0.843405
0.843409
0.843412
0.843414
0.843416
0.843417
0.843417
0.843416
0.843414
0.843412
0.843409
0.843405
0.843401
0.843396
0.84339
0.843383
0.843376
0.843368
0.843359
0.84335
0.84334
0.84333
0.84332
0.84331
0.8433
0.84329
0.84328
0.843271
0.843263
0.843257
0.843253
0.843252
0.843255
0.843268
0.843301
0.843396
0.893503
0.893409
0.893375
0.893362
0.893358
0.89336
0.893366
0.893374
0.893383
0.893394
0.893405
0.893417
0.89343
0.893442
0.893454
0.893466
0.893477
0.893488
0.893498
0.893508
0.893517
0.893525
0.893532
0.893538
0.893543
0.893548
0.893551
0.893554
0.893556
0.893557
0.893557
0.893556
0.893554
0.893551
0.893548
0.893543
0.893538
0.893532
0.893525
0.893517
0.893508
0.893498
0.893488
0.893477
0.893466
0.893454
0.893442
0.89343
0.893417
0.893405
0.893394
0.893383
0.893374
0.893366
0.89336
0.893358
0.893362
0.893375
0.893409
0.893503
0.941704
0.94161
0.941575
0.941562
0.941559
0.941562
0.941569
0.941578
0.941589
0.941602
0.941616
0.94163
0.941644
0.941658
0.941672
0.941686
0.941699
0.941712
0.941724
0.941735
0.941745
0.941754
0.941763
0.94177
0.941776
0.941781
0.941786
0.941789
0.941791
0.941792
0.941792
0.941791
0.941789
0.941786
0.941781
0.941776
0.94177
0.941763
0.941754
0.941745
0.941735
0.941724
0.941712
0.941699
0.941686
0.941672
0.941658
0.941644
0.94163
0.941616
0.941602
0.941589
0.941578
0.941569
0.941562
0.941559
0.941562
0.941575
0.94161
0.941704
0.988522
0.988429
0.988393
0.98838
0.988378
0.988382
0.98839
0.988401
0.988414
0.988429
0.988444
0.98846
0.988477
0.988493
0.98851
0.988525
0.988541
0.988555
0.988569
0.988581
0.988593
0.988604
0.988613
0.988621
0.988629
0.988635
0.988639
0.988643
0.988645
0.988647
0.988647
0.988645
0.988643
0.988639
0.988635
0.988629
0.988621
0.988613
0.988604
0.988593
0.988581
0.988569
0.988555
0.988541
0.988525
0.98851
0.988493
0.988477
0.98846
0.988444
0.988429
0.988414
0.988401
0.98839
0.988382
0.988378
0.98838
0.988393
0.988429
0.988522
1.03431
1.03422
1.03418
1.03417
1.03417
1.03417
1.03418
1.03419
1.03421
1.03423
1.03424
1.03426
1.03428
1.0343
1.03432
1.03433
1.03435
1.03437
1.03438
1.0344
1.03441
1.03442
1.03443
1.03444
1.03445
1.03446
1.03446
1.03447
1.03447
1.03447
1.03447
1.03447
1.03447
1.03446
1.03446
1.03445
1.03444
1.03443
1.03442
1.03441
1.0344
1.03438
1.03437
1.03435
1.03433
1.03432
1.0343
1.03428
1.03426
1.03424
1.03423
1.03421
1.03419
1.03418
1.03417
1.03417
1.03417
1.03418
1.03422
1.03431
1.07933
1.07924
1.0792
1.07919
1.07919
1.0792
1.07921
1.07922
1.07924
1.07926
1.07928
1.0793
1.07932
1.07934
1.07936
1.07938
1.0794
1.07942
1.07944
1.07945
1.07947
1.07948
1.07949
1.0795
1.07951
1.07952
1.07953
1.07953
1.07953
1.07954
1.07954
1.07953
1.07953
1.07953
1.07952
1.07951
1.0795
1.07949
1.07948
1.07947
1.07945
1.07944
1.07942
1.0794
1.07938
1.07936
1.07934
1.07932
1.0793
1.07928
1.07926
1.07924
1.07922
1.07921
1.0792
1.07919
1.07919
1.0792
1.07924
1.07933
1.12381
1.12372
1.12369
1.12367
1.12367
1.12368
1.12369
1.12371
1.12373
1.12375
1.12377
1.1238
1.12382
1.12384
1.12386
1.12389
1.12391
1.12393
1.12395
1.12397
1.12398
1.124
1.12401
1.12402
1.12403
1.12404
1.12405
1.12405
1.12406
1.12406
1.12406
1.12406
1.12405
1.12405
1.12404
1.12403
1.12402
1.12401
1.124
1.12398
1.12397
1.12395
1.12393
1.12391
1.12389
1.12386
1.12384
1.12382
1.1238
1.12377
1.12375
1.12373
1.12371
1.12369
1.12368
1.12367
1.12367
1.12369
1.12372
1.12381
1.16794
1.16785
1.16781
1.1678
1.1678
1.16781
1.16782
1.16784
1.16786
1.16789
1.16791
1.16794
1.16796
1.16799
1.16801
1.16804
1.16806
1.16808
1.1681
1.16812
1.16814
1.16816
1.16817
1.16819
1.1682
1.16821
1.16821
1.16822
1.16822
1.16823
1.16823
1.16822
1.16822
1.16821
1.16821
1.1682
1.16819
1.16817
1.16816
1.16814
1.16812
1.1681
1.16808
1.16806
1.16804
1.16801
1.16799
1.16796
1.16794
1.16791
1.16789
1.16786
1.16784
1.16782
1.16781
1.1678
1.1678
1.16781
1.16785
1.16794
1.21187
1.21178
1.21174
1.21173
1.21173
1.21174
1.21176
1.21178
1.2118
1.21183
1.21185
1.21188
1.21191
1.21194
1.21197
1.21199
1.21202
1.21205
1.21207
1.21209
1.21211
1.21213
1.21214
1.21216
1.21217
1.21218
1.21219
1.21219
1.2122
1.2122
1.2122
1.2122
1.21219
1.21219
1.21218
1.21217
1.21216
1.21214
1.21213
1.21211
1.21209
1.21207
1.21205
1.21202
1.21199
1.21197
1.21194
1.21191
1.21188
1.21185
1.21183
1.2118
1.21178
1.21176
1.21174
1.21173
1.21173
1.21174
1.21178
1.21187
1.25575
1.25566
1.25562
1.25561
1.25562
1.25563
1.25565
1.25567
1.25569
1.25572
1.25575
1.25578
1.25581
1.25584
1.25587
1.2559
1.25593
1.25596
1.25599
1.25601
1.25603
1.25605
1.25607
1.25608
1.2561
1.25611
1.25612
1.25612
1.25613
1.25613
1.25613
1.25613
1.25612
1.25612
1.25611
1.2561
1.25608
1.25607
1.25605
1.25603
1.25601
1.25599
1.25596
1.25593
1.2559
1.25587
1.25584
1.25581
1.25578
1.25575
1.25572
1.25569
1.25567
1.25565
1.25563
1.25562
1.25561
1.25562
1.25566
1.25575
1.29971
1.29963
1.29959
1.29958
1.29958
1.2996
1.29962
1.29964
1.29967
1.2997
1.29973
1.29977
1.2998
1.29983
1.29987
1.2999
1.29993
1.29996
1.29999
1.30001
1.30003
1.30006
1.30008
1.30009
1.30011
1.30012
1.30013
1.30014
1.30014
1.30014
1.30014
1.30014
1.30014
1.30013
1.30012
1.30011
1.30009
1.30008
1.30006
1.30003
1.30001
1.29999
1.29996
1.29993
1.2999
1.29987
1.29983
1.2998
1.29977
1.29973
1.2997
1.29967
1.29964
1.29962
1.2996
1.29958
1.29958
1.29959
1.29963
1.29971
1.34388
1.34379
1.34376
1.34375
1.34375
1.34377
1.34379
1.34382
1.34385
1.34388
1.34391
1.34395
1.34399
1.34402
1.34406
1.34409
1.34413
1.34416
1.34419
1.34422
1.34424
1.34426
1.34429
1.3443
1.34432
1.34433
1.34434
1.34435
1.34436
1.34436
1.34436
1.34436
1.34435
1.34434
1.34433
1.34432
1.3443
1.34429
1.34426
1.34424
1.34422
1.34419
1.34416
1.34413
1.34409
1.34406
1.34402
1.34399
1.34395
1.34391
1.34388
1.34385
1.34382
1.34379
1.34377
1.34375
1.34375
1.34376
1.34379
1.34388
1.38835
1.38827
1.38823
1.38823
1.38823
1.38825
1.38827
1.3883
1.38833
1.38837
1.38841
1.38845
1.38849
1.38852
1.38856
1.3886
1.38864
1.38867
1.3887
1.38873
1.38876
1.38879
1.38881
1.38883
1.38884
1.38886
1.38887
1.38888
1.38888
1.38889
1.38889
1.38888
1.38888
1.38887
1.38886
1.38884
1.38883
1.38881
1.38879
1.38876
1.38873
1.3887
1.38867
1.38864
1.3886
1.38856
1.38852
1.38849
1.38845
1.38841
1.38837
1.38833
1.3883
1.38827
1.38825
1.38823
1.38823
1.38823
1.38827
1.38835
1.43324
1.43316
1.43312
1.43312
1.43312
1.43314
1.43317
1.4332
1.43323
1.43327
1.43331
1.43336
1.4334
1.43344
1.43348
1.43352
1.43356
1.4336
1.43363
1.43366
1.43369
1.43372
1.43374
1.43376
1.43378
1.4338
1.43381
1.43382
1.43383
1.43383
1.43383
1.43383
1.43382
1.43381
1.4338
1.43378
1.43376
1.43374
1.43372
1.43369
1.43366
1.43363
1.4336
1.43356
1.43352
1.43348
1.43344
1.4334
1.43336
1.43331
1.43327
1.43323
1.4332
1.43317
1.43314
1.43312
1.43312
1.43312
1.43316
1.43324
1.47863
1.47856
1.47852
1.47852
1.47852
1.47854
1.47857
1.47861
1.47864
1.47869
1.47873
1.47877
1.47882
1.47886
1.47891
1.47895
1.47899
1.47903
1.47907
1.4791
1.47914
1.47916
1.47919
1.47921
1.47923
1.47925
1.47926
1.47927
1.47928
1.47928
1.47928
1.47928
1.47927
1.47926
1.47925
1.47923
1.47921
1.47919
1.47916
1.47914
1.4791
1.47907
1.47903
1.47899
1.47895
1.47891
1.47886
1.47882
1.47877
1.47873
1.47869
1.47864
1.47861
1.47857
1.47854
1.47852
1.47852
1.47852
1.47856
1.47863
1.52463
1.52455
1.52452
1.52451
1.52452
1.52455
1.52458
1.52461
1.52465
1.5247
1.52474
1.52479
1.52484
1.52489
1.52494
1.52498
1.52503
1.52507
1.52511
1.52515
1.52518
1.52521
1.52524
1.52526
1.52528
1.5253
1.52531
1.52532
1.52533
1.52533
1.52533
1.52533
1.52532
1.52531
1.5253
1.52528
1.52526
1.52524
1.52521
1.52518
1.52515
1.52511
1.52507
1.52503
1.52498
1.52494
1.52489
1.52484
1.52479
1.52474
1.5247
1.52465
1.52461
1.52458
1.52455
1.52452
1.52451
1.52452
1.52455
1.52463
1.57131
1.57124
1.5712
1.5712
1.57121
1.57123
1.57127
1.57131
1.57135
1.5714
1.57145
1.5715
1.57155
1.5716
1.57165
1.5717
1.57175
1.57179
1.57183
1.57187
1.57191
1.57194
1.57197
1.572
1.57202
1.57204
1.57205
1.57206
1.57207
1.57207
1.57207
1.57207
1.57206
1.57205
1.57204
1.57202
1.572
1.57197
1.57194
1.57191
1.57187
1.57183
1.57179
1.57175
1.5717
1.57165
1.5716
1.57155
1.5715
1.57145
1.5714
1.57135
1.57131
1.57127
1.57123
1.57121
1.5712
1.5712
1.57124
1.57131
1.61876
1.61869
1.61865
1.61865
1.61866
1.61869
1.61873
1.61877
1.61881
1.61886
1.61892
1.61897
1.61903
1.61908
1.61914
1.61919
1.61924
1.61929
1.61933
1.61937
1.61941
1.61945
1.61948
1.6195
1.61953
1.61955
1.61956
1.61957
1.61958
1.61959
1.61959
1.61958
1.61957
1.61956
1.61955
1.61953
1.6195
1.61948
1.61945
1.61941
1.61937
1.61933
1.61929
1.61924
1.61919
1.61914
1.61908
1.61903
1.61897
1.61892
1.61886
1.61881
1.61877
1.61873
1.61869
1.61866
1.61865
1.61865
1.61869
1.61876
1.66705
1.66699
1.66696
1.66695
1.66697
1.667
1.66703
1.66708
1.66713
1.66718
1.66724
1.6673
1.66735
1.66741
1.66747
1.66753
1.66758
1.66763
1.66768
1.66772
1.66776
1.6678
1.66783
1.66786
1.66789
1.66791
1.66792
1.66794
1.66794
1.66795
1.66795
1.66794
1.66794
1.66792
1.66791
1.66789
1.66786
1.66783
1.6678
1.66776
1.66772
1.66768
1.66763
1.66758
1.66753
1.66747
1.66741
1.66735
1.6673
1.66724
1.66718
1.66713
1.66708
1.66703
1.667
1.66697
1.66695
1.66696
1.66699
1.66705
1.71628
1.71621
1.71618
1.71618
1.7162
1.71623
1.71627
1.71632
1.71637
1.71643
1.71649
1.71655
1.71661
1.71667
1.71673
1.71679
1.71685
1.7169
1.71695
1.717
1.71704
1.71708
1.71712
1.71715
1.71717
1.71719
1.71721
1.71723
1.71723
1.71724
1.71724
1.71723
1.71723
1.71721
1.71719
1.71717
1.71715
1.71712
1.71708
1.71704
1.717
1.71695
1.7169
1.71685
1.71679
1.71673
1.71667
1.71661
1.71655
1.71649
1.71643
1.71637
1.71632
1.71627
1.71623
1.7162
1.71618
1.71618
1.71621
1.71628
1.7665
1.76644
1.76641
1.76641
1.76643
1.76646
1.76651
1.76656
1.76661
1.76667
1.76674
1.7668
1.76687
1.76693
1.767
1.76706
1.76712
1.76718
1.76723
1.76728
1.76733
1.76737
1.7674
1.76744
1.76746
1.76749
1.76751
1.76752
1.76753
1.76753
1.76753
1.76753
1.76752
1.76751
1.76749
1.76746
1.76744
1.7674
1.76737
1.76733
1.76728
1.76723
1.76718
1.76712
1.76706
1.767
1.76693
1.76687
1.7668
1.76674
1.76667
1.76661
1.76656
1.76651
1.76646
1.76643
1.76641
1.76641
1.76644
1.7665
1.81781
1.81775
1.81772
1.81772
1.81774
1.81778
1.81782
1.81787
1.81793
1.818
1.81806
1.81813
1.8182
1.81827
1.81834
1.81841
1.81847
1.81853
1.81859
1.81864
1.81869
1.81873
1.81877
1.81881
1.81883
1.81886
1.81888
1.81889
1.8189
1.81891
1.81891
1.8189
1.81889
1.81888
1.81886
1.81883
1.81881
1.81877
1.81873
1.81869
1.81864
1.81859
1.81853
1.81847
1.81841
1.81834
1.81827
1.8182
1.81813
1.81806
1.818
1.81793
1.81787
1.81782
1.81778
1.81774
1.81772
1.81772
1.81775
1.81781
1.87026
1.8702
1.87017
1.87018
1.8702
1.87024
1.87029
1.87034
1.87041
1.87047
1.87054
1.87062
1.87069
1.87076
1.87084
1.8709
1.87097
1.87104
1.8711
1.87115
1.8712
1.87125
1.87129
1.87133
1.87136
1.87138
1.8714
1.87142
1.87143
1.87143
1.87143
1.87143
1.87142
1.8714
1.87138
1.87136
1.87133
1.87129
1.87125
1.8712
1.87115
1.8711
1.87104
1.87097
1.8709
1.87084
1.87076
1.87069
1.87062
1.87054
1.87047
1.87041
1.87034
1.87029
1.87024
1.8702
1.87018
1.87017
1.8702
1.87026
1.92393
1.92388
1.92385
1.92386
1.92388
1.92392
1.92397
1.92403
1.9241
1.92417
1.92424
1.92432
1.9244
1.92448
1.92455
1.92463
1.9247
1.92476
1.92483
1.92488
1.92494
1.92499
1.92503
1.92507
1.9251
1.92513
1.92515
1.92517
1.92518
1.92518
1.92518
1.92518
1.92517
1.92515
1.92513
1.9251
1.92507
1.92503
1.92499
1.92494
1.92488
1.92483
1.92476
1.9247
1.92463
1.92455
1.92448
1.9244
1.92432
1.92424
1.92417
1.9241
1.92403
1.92397
1.92392
1.92388
1.92386
1.92385
1.92388
1.92393
1.9789
1.97884
1.97882
1.97883
1.97886
1.9789
1.97895
1.97901
1.97908
1.97916
1.97924
1.97932
1.9794
1.97948
1.97956
1.97964
1.97971
1.97979
1.97985
1.97991
1.97997
1.98002
1.98007
1.98011
1.98014
1.98017
1.98019
1.98021
1.98022
1.98023
1.98023
1.98022
1.98021
1.98019
1.98017
1.98014
1.98011
1.98007
1.98002
1.97997
1.97991
1.97985
1.97979
1.97971
1.97964
1.97956
1.97948
1.9794
1.97932
1.97924
1.97916
1.97908
1.97901
1.97895
1.9789
1.97886
1.97883
1.97882
1.97884
1.9789
2.03522
2.03517
2.03515
2.03516
2.03519
2.03524
2.03529
2.03536
2.03543
2.03551
2.0356
2.03568
2.03577
2.03585
2.03594
2.03602
2.0361
2.03617
2.03624
2.03631
2.03637
2.03642
2.03647
2.03651
2.03655
2.03658
2.0366
2.03662
2.03663
2.03664
2.03664
2.03663
2.03662
2.0366
2.03658
2.03655
2.03651
2.03647
2.03642
2.03637
2.03631
2.03624
2.03617
2.0361
2.03602
2.03594
2.03585
2.03577
2.03568
2.0356
2.03551
2.03543
2.03536
2.03529
2.03524
2.03519
2.03516
2.03515
2.03517
2.03522
2.09298
2.09294
2.09292
2.09293
2.09296
2.09301
2.09307
2.09314
2.09322
2.0933
2.09339
2.09348
2.09357
2.09366
2.09375
2.09383
2.09391
2.09399
2.09407
2.09413
2.0942
2.09425
2.0943
2.09435
2.09439
2.09442
2.09444
2.09446
2.09448
2.09448
2.09448
2.09448
2.09446
2.09444
2.09442
2.09439
2.09435
2.0943
2.09425
2.0942
2.09413
2.09407
2.09399
2.09391
2.09383
2.09375
2.09366
2.09357
2.09348
2.09339
2.0933
2.09322
2.09314
2.09307
2.09301
2.09296
2.09293
2.09292
2.09294
2.09298
2.15224
2.1522
2.15219
2.1522
2.15223
2.15228
2.15235
2.15242
2.1525
2.15259
2.15268
2.15278
2.15287
2.15296
2.15306
2.15315
2.15323
2.15332
2.15339
2.15346
2.15353
2.15359
2.15364
2.15369
2.15373
2.15376
2.15379
2.15381
2.15382
2.15383
2.15383
2.15382
2.15381
2.15379
2.15376
2.15373
2.15369
2.15364
2.15359
2.15353
2.15346
2.15339
2.15332
2.15323
2.15315
2.15306
2.15296
2.15287
2.15278
2.15268
2.15259
2.1525
2.15242
2.15235
2.15228
2.15223
2.1522
2.15219
2.1522
2.15224
2.21308
2.21304
2.21302
2.21304
2.21307
2.21313
2.21319
2.21327
2.21336
2.21345
2.21355
2.21365
2.21375
2.21385
2.21394
2.21404
2.21413
2.21421
2.21429
2.21437
2.21444
2.2145
2.21456
2.21461
2.21465
2.21468
2.21471
2.21473
2.21475
2.21475
2.21475
2.21475
2.21473
2.21471
2.21468
2.21465
2.21461
2.21456
2.2145
2.21444
2.21437
2.21429
2.21421
2.21413
2.21404
2.21394
2.21385
2.21375
2.21365
2.21355
2.21345
2.21336
2.21327
2.21319
2.21313
2.21307
2.21304
2.21302
2.21304
2.21308
2.27555
2.27551
2.2755
2.27552
2.27556
2.27561
2.27568
2.27577
2.27586
2.27595
2.27605
2.27616
2.27626
2.27637
2.27647
2.27657
2.27666
2.27675
2.27684
2.27692
2.27699
2.27706
2.27711
2.27716
2.27721
2.27725
2.27728
2.2773
2.27731
2.27732
2.27732
2.27731
2.2773
2.27728
2.27725
2.27721
2.27716
2.27711
2.27706
2.27699
2.27692
2.27684
2.27675
2.27666
2.27657
2.27647
2.27637
2.27626
2.27616
2.27605
2.27595
2.27586
2.27577
2.27568
2.27561
2.27556
2.27552
2.2755
2.27551
2.27555
2.33973
2.3397
2.33969
2.33971
2.33975
2.33981
2.33989
2.33997
2.34007
2.34017
2.34027
2.34038
2.34049
2.3406
2.34071
2.34081
2.34091
2.34101
2.3411
2.34118
2.34125
2.34132
2.34138
2.34144
2.34148
2.34152
2.34155
2.34158
2.34159
2.3416
2.3416
2.34159
2.34158
2.34155
2.34152
2.34148
2.34144
2.34138
2.34132
2.34125
2.34118
2.3411
2.34101
2.34091
2.34081
2.34071
2.3406
2.34049
2.34038
2.34027
2.34017
2.34007
2.33997
2.33989
2.33981
2.33975
2.33971
2.33969
2.3397
2.33973
2.40569
2.40566
2.40566
2.40568
2.40573
2.40579
2.40587
2.40596
2.40606
2.40616
2.40627
2.40639
2.4065
2.40662
2.40673
2.40684
2.40694
2.40704
2.40713
2.40722
2.4073
2.40737
2.40744
2.40749
2.40754
2.40758
2.40761
2.40764
2.40765
2.40766
2.40766
2.40765
2.40764
2.40761
2.40758
2.40754
2.40749
2.40744
2.40737
2.4073
2.40722
2.40713
2.40704
2.40694
2.40684
2.40673
2.40662
2.4065
2.40639
2.40627
2.40616
2.40606
2.40596
2.40587
2.40579
2.40573
2.40568
2.40566
2.40566
2.40569
2.47351
2.47348
2.47348
2.4735
2.47355
2.47362
2.4737
2.47379
2.4739
2.47401
2.47413
2.47424
2.47437
2.47448
2.4746
2.47472
2.47482
2.47493
2.47503
2.47512
2.4752
2.47527
2.47534
2.4754
2.47545
2.47549
2.47553
2.47555
2.47557
2.47558
2.47558
2.47557
2.47555
2.47553
2.47549
2.47545
2.4754
2.47534
2.47527
2.4752
2.47512
2.47503
2.47493
2.47482
2.47472
2.4746
2.47448
2.47437
2.47424
2.47413
2.47401
2.4739
2.47379
2.4737
2.47362
2.47355
2.4735
2.47348
2.47348
2.47351
2.54324
2.54322
2.54322
2.54324
2.54329
2.54337
2.54345
2.54355
2.54366
2.54378
2.5439
2.54402
2.54415
2.54427
2.5444
2.54452
2.54463
2.54474
2.54484
2.54493
2.54502
2.5451
2.54517
2.54523
2.54528
2.54533
2.54536
2.54539
2.54541
2.54542
2.54542
2.54541
2.54539
2.54536
2.54533
2.54528
2.54523
2.54517
2.5451
2.54502
2.54493
2.54484
2.54474
2.54463
2.54452
2.5444
2.54427
2.54415
2.54402
2.5439
2.54378
2.54366
2.54355
2.54345
2.54337
2.54329
2.54324
2.54322
2.54322
2.54324
2.61497
2.61495
2.61495
2.61498
2.61503
2.61511
2.6152
2.6153
2.61542
2.61554
2.61567
2.6158
2.61593
2.61606
2.61619
2.61631
2.61643
2.61654
2.61665
2.61675
2.61684
2.61692
2.61699
2.61706
2.61711
2.61716
2.6172
2.61722
2.61724
2.61725
2.61725
2.61724
2.61722
2.6172
2.61716
2.61711
2.61706
2.61699
2.61692
2.61684
2.61675
2.61665
2.61654
2.61643
2.61631
2.61619
2.61606
2.61593
2.6158
2.61567
2.61554
2.61542
2.6153
2.6152
2.61511
2.61503
2.61498
2.61495
2.61495
2.61497
2.68876
2.68874
2.68874
2.68878
2.68883
2.68891
2.68901
2.68912
2.68924
2.68936
2.6895
2.68963
2.68977
2.68991
2.69004
2.69017
2.6903
2.69041
2.69053
2.69063
2.69072
2.69081
2.69088
2.69095
2.69101
2.69106
2.6911
2.69112
2.69114
2.69115
2.69115
2.69114
2.69112
2.6911
2.69106
2.69101
2.69095
2.69088
2.69081
2.69072
2.69063
2.69053
2.69041
2.6903
2.69017
2.69004
2.68991
2.68977
2.68963
2.6895
2.68936
2.68924
2.68912
2.68901
2.68891
2.68883
2.68878
2.68874
2.68874
2.68876
2.76468
2.76467
2.76468
2.76471
2.76477
2.76486
2.76496
2.76507
2.76519
2.76533
2.76547
2.76561
2.76575
2.7659
2.76604
2.76617
2.7663
2.76643
2.76654
2.76665
2.76675
2.76684
2.76692
2.76699
2.76705
2.7671
2.76714
2.76717
2.76719
2.7672
2.7672
2.76719
2.76717
2.76714
2.7671
2.76705
2.76699
2.76692
2.76684
2.76675
2.76665
2.76654
2.76643
2.7663
2.76617
2.76604
2.7659
2.76575
2.76561
2.76547
2.76533
2.76519
2.76507
2.76496
2.76486
2.76477
2.76471
2.76468
2.76467
2.76468
2.84282
2.84281
2.84282
2.84286
2.84292
2.84301
2.84312
2.84323
2.84337
2.84351
2.84365
2.8438
2.84395
2.8441
2.84424
2.84439
2.84452
2.84465
2.84477
2.84488
2.84499
2.84508
2.84516
2.84523
2.8453
2.84535
2.84539
2.84542
2.84544
2.84545
2.84545
2.84544
2.84542
2.84539
2.84535
2.8453
2.84523
2.84516
2.84508
2.84499
2.84488
2.84477
2.84465
2.84452
2.84439
2.84424
2.8441
2.84395
2.8438
2.84365
2.84351
2.84337
2.84323
2.84312
2.84301
2.84292
2.84286
2.84282
2.84281
2.84282
2.92324
2.92324
2.92325
2.92329
2.92336
2.92345
2.92356
2.92369
2.92382
2.92397
2.92412
2.92428
2.92443
2.92459
2.92474
2.92489
2.92503
2.92516
2.92529
2.92541
2.92551
2.92561
2.9257
2.92577
2.92584
2.92589
2.92594
2.92597
2.92599
2.926
2.926
2.92599
2.92597
2.92594
2.92589
2.92584
2.92577
2.9257
2.92561
2.92551
2.92541
2.92529
2.92516
2.92503
2.92489
2.92474
2.92459
2.92443
2.92428
2.92412
2.92397
2.92382
2.92369
2.92356
2.92345
2.92336
2.92329
2.92325
2.92324
2.92324
3.00603
3.00602
3.00604
3.00609
3.00616
3.00626
3.00637
3.0065
3.00665
3.0068
3.00696
3.00712
3.00728
3.00744
3.0076
3.00776
3.0079
3.00804
3.00818
3.0083
3.00841
3.00851
3.0086
3.00868
3.00875
3.0088
3.00885
3.00888
3.00891
3.00892
3.00892
3.00891
3.00888
3.00885
3.0088
3.00875
3.00868
3.0086
3.00851
3.00841
3.0083
3.00818
3.00804
3.0079
3.00776
3.0076
3.00744
3.00728
3.00712
3.00696
3.0068
3.00665
3.0065
3.00637
3.00626
3.00616
3.00609
3.00604
3.00602
3.00603
3.09126
3.09125
3.09128
3.09133
3.0914
3.0915
3.09162
3.09176
3.09191
3.09207
3.09223
3.0924
3.09257
3.09274
3.09291
3.09307
3.09322
3.09337
3.0935
3.09363
3.09375
3.09385
3.09395
3.09403
3.0941
3.09416
3.09421
3.09424
3.09426
3.09428
3.09428
3.09426
3.09424
3.09421
3.09416
3.0941
3.09403
3.09395
3.09385
3.09375
3.09363
3.0935
3.09337
3.09322
3.09307
3.09291
3.09274
3.09257
3.0924
3.09223
3.09207
3.09191
3.09176
3.09162
3.0915
3.0914
3.09133
3.09128
3.09125
3.09126
3.179
3.179
3.17903
3.17908
3.17916
3.17927
3.1794
3.17954
3.17969
3.17986
3.18003
3.18021
3.18039
3.18056
3.18074
3.1809
3.18106
3.18121
3.18136
3.18149
3.18161
3.18172
3.18182
3.1819
3.18198
3.18204
3.18209
3.18212
3.18215
3.18216
3.18216
3.18215
3.18212
3.18209
3.18204
3.18198
3.1819
3.18182
3.18172
3.18161
3.18149
3.18136
3.18121
3.18106
3.1809
3.18074
3.18056
3.18039
3.18021
3.18003
3.17986
3.17969
3.17954
3.1794
3.17927
3.17916
3.17908
3.17903
3.179
3.179
3.26935
3.26936
3.26938
3.26944
3.26953
3.26964
3.26977
3.26992
3.27008
3.27025
3.27043
3.27062
3.2708
3.27099
3.27117
3.27134
3.27151
3.27167
3.27181
3.27195
3.27208
3.27219
3.27229
3.27238
3.27246
3.27252
3.27257
3.27261
3.27264
3.27265
3.27265
3.27264
3.27261
3.27257
3.27252
3.27246
3.27238
3.27229
3.27219
3.27208
3.27195
3.27181
3.27167
3.27151
3.27134
3.27117
3.27099
3.2708
3.27062
3.27043
3.27025
3.27008
3.26992
3.26977
3.26964
3.26953
3.26944
3.26938
3.26936
3.26935
3.36238
3.36239
3.36242
3.36248
3.36257
3.36269
3.36283
3.36298
3.36315
3.36333
3.36352
3.36371
3.36391
3.3641
3.36428
3.36447
3.36464
3.3648
3.36496
3.3651
3.36523
3.36535
3.36546
3.36555
3.36563
3.36569
3.36575
3.36579
3.36581
3.36583
3.36583
3.36581
3.36579
3.36575
3.36569
3.36563
3.36555
3.36546
3.36535
3.36523
3.3651
3.36496
3.3648
3.36464
3.36447
3.36428
3.3641
3.36391
3.36371
3.36352
3.36333
3.36315
3.36298
3.36283
3.36269
3.36257
3.36248
3.36242
3.36239
3.36238
3.45818
3.45819
3.45823
3.45829
3.45839
3.45851
3.45865
3.45882
3.45899
3.45918
3.45938
3.45958
3.45978
3.45998
3.46017
3.46036
3.46054
3.46071
3.46087
3.46102
3.46116
3.46128
3.46139
3.46149
3.46157
3.46164
3.4617
3.46174
3.46176
3.46178
3.46178
3.46176
3.46174
3.4617
3.46164
3.46157
3.46149
3.46139
3.46128
3.46116
3.46102
3.46087
3.46071
3.46054
3.46036
3.46017
3.45998
3.45978
3.45958
3.45938
3.45918
3.45899
3.45882
3.45865
3.45851
3.45839
3.45829
3.45823
3.45819
3.45818
3.55684
3.55685
3.55689
3.55696
3.55706
3.55719
3.55734
3.55751
3.55769
3.55789
3.55809
3.5583
3.55851
3.55872
3.55892
3.55912
3.5593
3.55948
3.55965
3.5598
3.55995
3.56007
3.56019
3.56029
3.56037
3.56045
3.5605
3.56055
3.56058
3.56059
3.56059
3.56058
3.56055
3.5605
3.56045
3.56037
3.56029
3.56019
3.56007
3.55995
3.5598
3.55965
3.55948
3.5593
3.55912
3.55892
3.55872
3.55851
3.5583
3.55809
3.55789
3.55769
3.55751
3.55734
3.55719
3.55706
3.55696
3.55689
3.55685
3.55684
3.65843
3.65845
3.65849
3.65857
3.65867
3.65881
3.65896
3.65914
3.65933
3.65954
3.65975
3.65997
3.66019
3.6604
3.66061
3.66082
3.66101
3.6612
3.66137
3.66153
3.66168
3.66181
3.66193
3.66204
3.66213
3.6622
3.66226
3.66231
3.66233
3.66235
3.66235
3.66233
3.66231
3.66226
3.6622
3.66213
3.66204
3.66193
3.66181
3.66168
3.66153
3.66137
3.6612
3.66101
3.66082
3.66061
3.6604
3.66019
3.65997
3.65975
3.65954
3.65933
3.65914
3.65896
3.65881
3.65867
3.65857
3.65849
3.65845
3.65843
3.76307
3.76309
3.76313
3.76321
3.76332
3.76346
3.76363
3.76381
3.76401
3.76423
3.76445
3.76467
3.7649
3.76513
3.76535
3.76556
3.76576
3.76595
3.76613
3.7663
3.76645
3.76659
3.76672
3.76682
3.76692
3.767
3.76706
3.7671
3.76713
3.76715
3.76715
3.76713
3.7671
3.76706
3.767
3.76692
3.76682
3.76672
3.76659
3.76645
3.7663
3.76613
3.76595
3.76576
3.76556
3.76535
3.76513
3.7649
3.76467
3.76445
3.76423
3.76401
3.76381
3.76363
3.76346
3.76332
3.76321
3.76313
3.76309
3.76307
3.87083
3.87085
3.8709
3.87098
3.8711
3.87125
3.87142
3.87161
3.87182
3.87204
3.87227
3.87251
3.87275
3.87298
3.87321
3.87343
3.87364
3.87384
3.87403
3.8742
3.87436
3.87451
3.87463
3.87475
3.87484
3.87492
3.87499
3.87504
3.87507
3.87508
3.87508
3.87507
3.87504
3.87499
3.87492
3.87484
3.87475
3.87463
3.87451
3.87436
3.8742
3.87403
3.87384
3.87364
3.87343
3.87321
3.87298
3.87275
3.87251
3.87227
3.87204
3.87182
3.87161
3.87142
3.87125
3.8711
3.87098
3.8709
3.87085
3.87083
3.98181
3.98184
3.98189
3.98198
3.9821
3.98226
3.98244
3.98264
3.98286
3.98309
3.98333
3.98357
3.98382
3.98406
3.9843
3.98453
3.98475
3.98496
3.98515
3.98533
3.9855
3.98565
3.98578
3.9859
3.986
3.98608
3.98615
3.9862
3.98623
3.98625
3.98625
3.98623
3.9862
3.98615
3.98608
3.986
3.9859
3.98578
3.98565
3.9855
3.98533
3.98515
3.98496
3.98475
3.98453
3.9843
3.98406
3.98382
3.98357
3.98333
3.98309
3.98286
3.98264
3.98244
3.98226
3.9821
3.98198
3.98189
3.98184
3.98181
4.09612
4.09614
4.0962
4.0963
4.09643
4.09659
4.09678
4.09699
4.09721
4.09745
4.09771
4.09796
4.09822
4.09847
4.09872
4.09896
4.09918
4.0994
4.0996
4.09979
4.09996
4.10012
4.10026
4.10038
4.10048
4.10057
4.10064
4.10069
4.10072
4.10074
4.10074
4.10072
4.10069
4.10064
4.10057
4.10048
4.10038
4.10026
4.10012
4.09996
4.09979
4.0996
4.0994
4.09918
4.09896
4.09872
4.09847
4.09822
4.09796
4.09771
4.09745
4.09721
4.09699
4.09678
4.09659
4.09643
4.0963
4.0962
4.09614
4.09612
4.21385
4.21388
4.21394
4.21404
4.21418
4.21434
4.21454
4.21476
4.215
4.21525
4.21551
4.21577
4.21604
4.2163
4.21656
4.21681
4.21705
4.21727
4.21748
4.21768
4.21786
4.21802
4.21816
4.21829
4.21839
4.21848
4.21856
4.21861
4.21865
4.21866
4.21866
4.21865
4.21861
4.21856
4.21848
4.21839
4.21829
4.21816
4.21802
4.21786
4.21768
4.21748
4.21727
4.21705
4.21681
4.21656
4.2163
4.21604
4.21577
4.21551
4.21525
4.215
4.21476
4.21454
4.21434
4.21418
4.21404
4.21394
4.21388
4.21385
4.3351
4.33514
4.3352
4.33531
4.33545
4.33563
4.33583
4.33606
4.33631
4.33657
4.33684
4.33712
4.3374
4.33767
4.33794
4.3382
4.33844
4.33868
4.3389
4.3391
4.33928
4.33945
4.3396
4.33973
4.33984
4.33993
4.34001
4.34006
4.3401
4.34012
4.34012
4.3401
4.34006
4.34001
4.33993
4.33984
4.33973
4.3396
4.33945
4.33928
4.3391
4.3389
4.33868
4.33844
4.3382
4.33794
4.33767
4.3374
4.33712
4.33684
4.33657
4.33631
4.33606
4.33583
4.33563
4.33545
4.33531
4.3352
4.33514
4.3351
4.46
4.46003
4.4601
4.46021
4.46036
4.46055
4.46076
4.461
4.46126
4.46153
4.46181
4.4621
4.46239
4.46268
4.46295
4.46322
4.46348
4.46372
4.46395
4.46416
4.46435
4.46452
4.46468
4.46481
4.46493
4.46503
4.4651
4.46516
4.4652
4.46522
4.46522
4.4652
4.46516
4.4651
4.46503
4.46493
4.46481
4.46468
4.46452
4.46435
4.46416
4.46395
4.46372
4.46348
4.46322
4.46295
4.46268
4.46239
4.4621
4.46181
4.46153
4.46126
4.461
4.46076
4.46055
4.46036
4.46021
4.4601
4.46003
4.46
4.58863
4.58867
4.58874
4.58886
4.58902
4.58921
4.58943
4.58968
4.58995
4.59024
4.59053
4.59083
4.59113
4.59143
4.59172
4.592
4.59226
4.59251
4.59275
4.59297
4.59317
4.59335
4.59351
4.59365