/*--------------------------------*- C++ -*----------------------------------*\
| =========                 |                                                 |
| \\      /  F ield         | foam-extend: Open Source CFD                    |
|  \\    /   O peration     | Version:     4.0                                |
|   \\  /    A nd           | Web:         http://www.foam-extend.org         |
|    \\/     M anipulation  |                                                 |
\*---------------------------------------------------------------------------*/
FoamFile
{
    version     2.0;
    format      ascii;
    class       volScalarField;
    location    "13";
    object      dPhi;
}
// * * * * * * * * * * * * * * * * * * * * * * * * * * * * * * * * * * * * * //

dimensions      [0 -1 0 0 0 0 0];

internalField   nonuniform List<scalar> 
6960
(
-4.58221e-16
-1.05384e-16
-1.39252e-17
-2.91627e-16
7.81513e-16
3.75263e-16
-7.36434e-16
2.80876e-18
-6.24985e-16
9.27735e-16
-8.85756e-16
4.82904e-16
4.82958e-16
-8.85007e-16
1.48408e-15
-2.89929e-16
-2.17057e-16
-1.78727e-16
4.86797e-16
-9.93292e-16
4.17486e-17
1.26336e-15
3.36973e-16
-5.13177e-16
7.09736e-16
-6.59012e-16
9.32366e-16
1.04101e-15
-4.39356e-16
-1.78832e-16
-1.06505e-15
-3.25688e-16
-8.42486e-16
1.71121e-15
6.07153e-18
-6.20458e-16
1.56704e-16
-5.46885e-16
-2.871e-16
-6.42627e-17
6.30531e-18
-6.58483e-17
1.15484e-15
1.17026e-16
7.10119e-16
1.59977e-15
-5.47038e-16
-6.54452e-17
6.00573e-16
3.34873e-16
-7.37593e-16
9.29578e-16
-1.32722e-15
-2.88872e-16
-6.22508e-16
2.259e-16
2.64528e-16
1.59803e-15
1.2267e-15
1.04509e-15
2.03324e-15
2.24813e-15
-7.97099e-16
-1.32393e-15
9.10926e-16
-3.2293e-16
-3.81741e-16
-3.56431e-17
1.18768e-16
-4.95047e-16
-5.91588e-16
-6.63071e-16
5.86282e-17
1.3526e-15
-3.25999e-16
2.89394e-16
6.90196e-16
-2.6544e-16
-5.99638e-16
-1.63931e-15
-6.01834e-16
-6.5643e-16
-9.77307e-16
1.11958e-15
-3.75981e-16
-1.69253e-15
-2.08289e-16
-7.1266e-16
6.89925e-16
-2.54146e-15
1.63727e-15
5.05597e-16
1.80487e-15
3.0647e-16
-1.10694e-15
1.80488e-15
-2.71457e-17
7.84881e-16
-1.74733e-15
-4.68917e-16
8.92088e-16
2.58105e-15
-5.845e-16
5.03016e-16
-1.08556e-15
-4.16008e-16
-1.03867e-16
-2.72203e-17
-1.02697e-15
-7.26612e-16
-4.28483e-16
-1.20175e-15
1.49982e-15
1.85732e-15
3.01774e-16
-9.44794e-16
-5.33285e-16
-9.74555e-16
-3.05108e-15
-1.13673e-15
6.90481e-16
1.87633e-15
-1.75074e-15
1.3646e-15
-3.23634e-17
8.12359e-16
-5.80394e-16
2.29442e-15
-1.7999e-15
-5.28996e-16
7.2052e-17
-2.41944e-15
-1.80869e-15
-4.25034e-16
3.0439e-17
9.82192e-16
-1.58389e-15
2.03758e-15
1.31441e-15
1.19463e-15
-2.43945e-16
1.64467e-15
-1.36592e-15
7.56041e-16
-4.596e-16
9.20806e-16
-1.62315e-15
8.1118e-16
-2.3065e-15
2.53731e-15
-2.86973e-15
3.14059e-16
-2.75651e-15
2.23972e-15
6.98186e-16
-1.92442e-15
-2.58359e-16
1.2607e-15
1.97596e-17
1.24388e-15
-4.66769e-16
-4.25682e-15
3.01259e-15
-8.56818e-16
-3.04125e-15
1.84949e-15
-2.57068e-15
-2.92407e-15
-1.20425e-15
2.23693e-15
-1.94654e-15
3.35723e-16
6.93971e-16
2.90485e-16
1.45423e-15
2.41138e-15
1.11696e-15
-1.54838e-16
4.58138e-15
3.62793e-15
-3.36035e-16
2.38511e-16
1.41497e-15
-2.18197e-15
-2.01869e-15
-1.7804e-16
-2.40644e-15
-9.72014e-16
-2.95106e-16
-1.41433e-15
-1.25274e-15
-6.41875e-16
2.2168e-15
-2.13688e-15
2.42247e-15
2.90704e-15
6.50047e-16
-5.33509e-16
1.02904e-16
1.4878e-15
2.37286e-15
-1.81678e-15
9.49327e-16
3.15079e-15
1.89762e-16
1.33723e-16
4.98747e-16
3.73819e-16
3.03634e-15
-2.0587e-15
9.02463e-16
3.95639e-16
-2.84087e-15
-3.42581e-16
3.60809e-16
1.00085e-16
9.06041e-16
1.89912e-15
-3.13782e-16
1.62603e-16
1.77751e-15
1.68024e-15
-2.46047e-15
9.41318e-16
1.83794e-15
2.37522e-16
3.56217e-15
4.05193e-16
1.01254e-15
3.74833e-15
1.3947e-15
1.35135e-15
-8.12325e-16
-2.73998e-15
1.00403e-15
-1.48519e-15
5.80563e-16
3.66393e-16
-1.78149e-15
-8.41734e-16
-7.23922e-16
-1.90492e-15
-2.41452e-15
-1.99222e-15
-2.45382e-16
-1.67734e-15
1.83439e-15
1.85071e-15
1.9758e-15
3.76603e-15
5.68854e-16
1.76064e-15
5.67255e-16
1.49097e-15
-4.82839e-15
-1.81254e-15
-1.21249e-15
-9.77029e-16
-2.50481e-15
2.13263e-16
-2.48759e-15
1.9556e-15
-3.55158e-15
-1.34758e-15
1.35617e-15
-1.05653e-15
-4.43141e-16
1.23005e-15
-2.1226e-16
1.07417e-16
6.57677e-16
2.23779e-15
-1.86236e-15
-1.14183e-15
2.53167e-15
1.5484e-15
-3.05634e-15
-1.42708e-16
2.13555e-15
-1.02097e-15
9.2515e-16
1.57342e-15
3.95392e-15
-4.42246e-16
-1.10486e-15
-1.45026e-15
-2.20036e-15
3.79647e-15
7.94043e-16
1.0365e-16
-1.33988e-15
1.42635e-15
1.27017e-15
-1.35224e-15
-2.21535e-15
7.61056e-16
1.46457e-15
-3.02132e-15
2.38389e-15
-9.45966e-16
-2.5881e-15
3.31495e-16
2.02074e-15
-2.54449e-15
-1.51409e-16
-6.41739e-16
8.78746e-17
-4.69525e-15
-2.76637e-15
2.71051e-19
-2.20426e-15
-2.31057e-15
1.94744e-15
-4.31784e-16
-1.66599e-15
1.88724e-15
1.8935e-15
1.65818e-15
1.53108e-15
-7.38287e-16
-6.62908e-16
8.09492e-16
2.04426e-16
-4.13162e-16
-6.23736e-15
-2.20313e-15
-3.16373e-15
-1.49959e-15
-4.16721e-15
3.1206e-16
4.99709e-15
2.94767e-15
4.81386e-16
-1.4518e-15
-2.07882e-15
-2.96378e-15
3.49075e-15
9.99336e-16
-8.55118e-15
4.69893e-15
7.42489e-16
2.47098e-15
-2.42506e-15
1.0346e-15
-1.00687e-15
3.1521e-15
-3.38542e-17
-3.32514e-15
-6.0447e-16
1.46904e-15
-2.32903e-15
1.63809e-15
-5.56789e-15
-4.02773e-15
1.79631e-15
1.80357e-15
3.2133e-16
1.30728e-16
-3.29489e-16
-6.44233e-16
2.33196e-15
1.06263e-15
-6.10514e-16
4.42132e-15
-1.896e-15
4.55262e-15
4.83186e-15
3.46191e-15
7.34943e-15
-1.38301e-15
-1.58944e-16
-2.26528e-15
5.55654e-16
6.55698e-15
1.35254e-15
-2.84468e-15
-5.43348e-16
-9.15175e-16
-5.52027e-15
4.21896e-15
3.04498e-15
-2.15669e-15
2.85888e-15
-8.86715e-16
5.23643e-15
-3.28155e-15
-2.82489e-16
-1.82092e-16
1.57193e-15
-1.68799e-15
-6.10314e-15
-4.53045e-15
3.01208e-15
1.31107e-15
9.55724e-17
-2.40888e-15
-3.52767e-15
-1.96663e-15
5.19452e-15
-2.20256e-16
3.51553e-15
-3.33154e-15
8.4622e-17
3.58004e-16
-2.51459e-15
-4.09221e-15
-1.48807e-15
3.7824e-15
-8.73054e-16
-4.03047e-15
1.54846e-15
-7.76999e-15
1.04246e-16
-6.22771e-15
-3.40689e-15
1.8554e-15
1.66111e-15
-6.4857e-15
-1.6353e-15
-5.144e-16
-3.85976e-16
3.19894e-16
2.01174e-15
-2.39988e-15
2.98334e-15
-2.178e-15
-2.13132e-15
4.9869e-15
-1.34728e-15
2.50033e-15
-1.16405e-15
3.58318e-15
5.30603e-15
1.9308e-15
2.39511e-15
-1.22461e-15
1.36805e-15
3.36948e-15
6.34383e-15
2.75973e-15
-5.21648e-15
6.41398e-15
-2.66497e-16
1.84125e-15
-1.49918e-15
2.73447e-15
6.67435e-16
8.95985e-16
6.90333e-15
7.91424e-15
-2.8572e-15
1.66398e-15
4.62634e-15
-4.25208e-15
4.35275e-15
3.57787e-15
3.92844e-15
2.09457e-15
-8.50231e-16
-8.24319e-16
-4.57268e-15
4.91252e-16
2.13154e-16
3.66731e-16
3.13253e-15
4.2028e-15
1.16264e-15
3.81065e-15
-4.33811e-15
-1.24396e-15
-3.57228e-15
4.89225e-15
-2.44254e-15
2.37641e-15
1.80677e-15
4.71248e-16
-1.9147e-15
5.3359e-16
-1.91091e-16
1.09662e-15
-7.96889e-17
2.31434e-15
-3.55673e-15
-5.1453e-15
-4.37584e-16
-7.57207e-16
6.16499e-15
-1.84022e-15
-9.13982e-17
3.93349e-16
3.25824e-15
-3.86583e-15
8.59989e-16
-2.31195e-15
-2.91835e-15
3.04368e-15
9.91568e-15
3.04021e-15
-2.30317e-15
-2.46428e-15
3.9569e-15
-2.76526e-15
1.53848e-15
1.51723e-15
3.48246e-16
3.4688e-15
3.55792e-15
-6.7729e-15
-4.31209e-15
-2.99457e-15
1.7731e-15
-8.12393e-16
-1.65211e-15
8.63675e-16
-2.83681e-15
-6.5269e-16
1.47018e-15
-2.04014e-15
-1.24629e-15
6.57102e-15
-2.59883e-15
-4.23457e-15
-1.99753e-15
5.94034e-16
9.82938e-16
-5.49799e-15
-4.8518e-16
1.98095e-15
3.76901e-15
4.5672e-15
4.18003e-15
5.80265e-16
-4.55549e-15
-4.56861e-15
3.21043e-15
1.32815e-16
-1.63259e-15
2.60317e-15
-3.21726e-15
-4.6213e-15
-8.55696e-15
-5.30164e-15
4.14111e-15
-3.14375e-15
3.84957e-15
6.2127e-15
-2.77079e-15
-2.83616e-15
3.89608e-15
-3.36645e-16
5.07331e-15
1.17061e-15
-3.8435e-15
6.44276e-15
-8.52942e-16
-5.38328e-15
-1.50444e-15
6.90626e-15
3.94964e-15
3.73388e-15
5.05997e-16
1.99721e-15
4.77689e-15
-3.48538e-15
2.31878e-15
2.19085e-15
-3.85434e-15
1.12178e-14
4.09828e-16
-2.7542e-15
-3.57776e-15
2.05998e-15
1.81983e-15
-4.31437e-15
-3.747e-16
1.97325e-17
2.8508e-15
-7.34872e-16
1.29508e-15
-3.2808e-16
-1.23144e-15
4.58292e-15
2.78022e-15
-3.24231e-15
4.41596e-16
1.51962e-15
-8.54286e-15
-8.77022e-15
2.01e-15
-6.14959e-16
-4.47461e-15
1.05113e-15
-1.04842e-16
5.32701e-15
2.88365e-15
5.04501e-15
-6.75458e-16
-2.21687e-15
2.62919e-15
1.10654e-15
9.78623e-15
3.39485e-15
-2.40454e-15
9.24391e-16
-2.81893e-17
-5.98046e-16
-2.71723e-15
5.50818e-15
-4.0766e-17
6.92805e-15
-4.44761e-15
-5.78964e-17
3.63078e-15
-1.32858e-15
-6.91461e-15
-8.59555e-16
-3.54794e-15
-1.07319e-14
1.9752e-15
-1.78742e-15
-1.23642e-15
-3.42846e-15
5.14692e-15
2.0962e-15
3.25651e-15
2.83866e-15
6.03901e-16
-3.06179e-15
7.73513e-15
4.18285e-15
3.53233e-16
5.65563e-15
-9.05547e-15
6.57157e-15
1.41423e-15
-1.19848e-15
-4.93247e-15
7.63061e-16
1.95807e-15
1.73819e-15
1.23642e-15
-6.09343e-15
-5.55719e-15
-5.82867e-15
6.9725e-15
3.14267e-15
4.47797e-15
6.97641e-15
1.38843e-15
4.33898e-16
-6.28946e-15
2.20592e-15
7.99924e-16
-1.44767e-14
1.42898e-16
-4.28108e-15
-4.67703e-15
2.43252e-15
2.69077e-15
5.78444e-15
-5.5934e-15
-2.19551e-15
-5.64371e-15
-3.14419e-16
2.38524e-15
-2.92886e-15
4.26352e-15
4.09807e-15
-7.40944e-16
-7.09155e-15
-2.65326e-15
-1.57621e-15
-2.62247e-15
-1.9559e-15
-6.13181e-15
2.31911e-15
-2.08275e-15
8.48453e-15
3.8745e-15
-2.14715e-15
-6.33391e-16
6.38595e-16
-1.08073e-14
-5.84689e-15
2.60274e-15
1.2954e-15
-7.86502e-15
5.6205e-15
-4.94635e-15
1.27134e-15
-7.21645e-16
-7.55667e-15
5.18162e-15
-6.38161e-16
-5.07298e-15
1.36024e-15
7.91663e-15
5.23865e-15
-5.13717e-15
-2.20527e-15
-4.40923e-15
-1.21517e-15
2.49605e-15
9.2348e-15
-8.68359e-15
-7.28194e-15
-3.95105e-15
-4.62521e-16
-2.21871e-15
-4.44306e-16
-2.68991e-15
-1.20346e-16
-7.76289e-15
1.16808e-14
-3.48463e-16
-2.43013e-15
3.90139e-15
-4.64429e-15
-2.42146e-15
2.05066e-15
-1.11629e-15
-5.68209e-15
4.41747e-15
-1.78199e-15
-4.63778e-15
7.7013e-15
-6.31569e-15
-1.09314e-14
-2.1684e-17
6.52516e-15
8.51489e-15
7.23813e-16
7.54171e-16
-1.21214e-15
2.42341e-15
-2.17361e-15
-8.59252e-15
-2.6975e-15
-2.09945e-15
-4.35199e-15
-1.29671e-15
-6.18732e-15
9.9057e-15
7.9034e-15
-5.29264e-15
-7.09502e-16
2.53009e-15
2.96378e-15
-5.00901e-16
-2.74216e-15
-3.38618e-15
8.98153e-16
-3.26735e-15
-8.72262e-15
1.41233e-14
2.13371e-16
-2.06822e-15
-4.76095e-15
-5.49907e-16
-7.59245e-15
6.97055e-15
-2.53833e-15
1.26938e-15
-7.41377e-15
3.39399e-15
1.13971e-15
2.84625e-15
2.55178e-15
-2.30805e-15
7.324e-15
-9.34149e-16
-4.04668e-15
7.60806e-15
-4.51809e-15
-8.98587e-16
4.58748e-15
2.36313e-15
-2.02963e-15
-1.68051e-15
-2.12157e-15
6.50261e-15
8.93383e-16
6.2758e-15
-2.56956e-15
3.49677e-15
-4.87544e-15
4.72235e-15
1.17384e-14
4.0406e-15
-4.94396e-17
-5.89242e-15
-6.64833e-16
3.22398e-15
8.46979e-16
6.50955e-16
-1.50964e-15
2.23606e-15
4.31252e-15
1.94809e-15
5.63221e-15
-5.34729e-16
1.02609e-14
-9.49327e-15
-4.2904e-15
3.60822e-15
3.2396e-16
-4.51115e-15
-5.51902e-15
1.44719e-15
1.78026e-15
2.31325e-15
5.20851e-16
-2.02659e-15
6.03597e-15
-1.71139e-14
2.91347e-15
4.95697e-16
-7.31836e-15
4.1629e-15
1.34914e-14
-5.21458e-15
2.18098e-15
-1.30191e-15
1.80411e-16
-7.82317e-15
2.09598e-15
-3.69323e-15
-6.27927e-15
4.19673e-15
-8.33968e-15
-3.35626e-15
3.23786e-15
-9.52797e-15
9.27557e-15
1.66707e-15
1.65276e-15
-3.52236e-15
-4.97389e-15
7.88909e-15
7.01219e-15
-7.71952e-15
-1.58198e-14
-3.3337e-15
6.51736e-15
1.48059e-15
-5.61617e-16
1.98756e-15
-4.17895e-15
2.2907e-15
3.39095e-15
2.27032e-15
-5.62527e-15
-4.32987e-15
2.38308e-15
-6.61277e-15
4.7861e-15
7.41031e-15
9.48026e-16
4.23099e-15
-2.79204e-15
7.67181e-16
-5.87941e-15
9.18102e-15
-1.17181e-15
-3.01408e-15
-4.33984e-15
5.62397e-15
4.90059e-15
-2.36356e-16
2.89005e-15
-8.39519e-15
-1.48622e-15
2.57693e-15
-1.92077e-15
8.37047e-15
-6.83655e-15
-3.54317e-15
1.20737e-14
-1.45326e-15
-1.58207e-14
1.97325e-16
-3.04921e-15
-3.65897e-15
-2.84495e-15
2.15279e-15
-6.075e-15
-1.47842e-15
-1.21561e-15
3.88144e-16
-5.29091e-16
-5.96615e-15
3.14896e-15
2.7053e-15
-8.18529e-15
-5.38328e-15
-3.87234e-15
1.83447e-16
2.34231e-15
-3.46207e-15
-1.06898e-14
7.72819e-16
1.18169e-14
-9.62772e-15
8.32667e-16
-6.79318e-15
9.02316e-15
2.83627e-16
1.47451e-17
2.58474e-15
-1.3896e-14
-4.19456e-15
9.41434e-15
3.82507e-15
-3.24133e-15
9.57741e-15
-6.37858e-15
-7.64493e-15
-7.54605e-17
-8.64586e-15
-1.04517e-15
4.01849e-15
2.28897e-15
-7.19563e-15
-2.75474e-15
-2.84234e-15
-3.2821e-15
-4.03497e-15
6.0351e-15
-1.59464e-14
2.45897e-15
3.70363e-15
-2.60209e-15
-8.95985e-16
1.40079e-15
-5.44096e-15
7.40207e-15
1.13347e-14
-1.0319e-14
-8.4429e-15
1.99493e-16
-7.18089e-15
6.52776e-15
1.0208e-14
-6.14959e-15
2.00274e-15
9.3146e-15
-4.39232e-15
1.49845e-14
-5.86163e-15
2.32453e-15
6.41848e-15
-2.46504e-15
1.1189e-15
-2.33234e-15
-8.99454e-16
-4.71845e-15
-2.25948e-15
4.0367e-15
-1.98713e-15
1.54564e-15
-7.99621e-15
-9.72399e-15
1.71746e-14
-1.15749e-14
4.96998e-15
-4.16507e-15
1.35569e-15
-8.0682e-15
-7.42548e-15
6.7819e-15
7.38992e-16
-1.1254e-14
-8.33448e-15
2.29851e-15
-6.64399e-16
5.34382e-15
3.67154e-15
-2.31586e-15
1.75667e-14
1.14596e-14
1.07553e-16
-8.3631e-15
-2.28983e-15
8.92082e-15
-2.13978e-15
2.77209e-15
-1.09288e-15
-2.24647e-16
1.48926e-14
-5.00554e-15
1.26019e-14
9.06827e-15
-1.15437e-14
8.93383e-17
8.44637e-15
-1.77896e-14
-6.91201e-15
8.97199e-15
2.15973e-16
3.04878e-15
-3.75568e-16
-5.14085e-15
-9.07694e-15
1.30642e-14
-1.37477e-15
-5.89286e-15
3.88405e-15
-1.57947e-14
-2.03136e-15
-1.88911e-15
1.68355e-15
-6.19383e-15
9.93303e-15
1.30607e-14
6.2849e-15
1.76161e-15
1.85962e-15
-8.83755e-15
9.61037e-16
3.96558e-15
1.21275e-14
7.9433e-15
-9.86884e-15
2.67841e-15
2.73913e-15
-4.28477e-15
3.08781e-16
1.07032e-14
3.32373e-15
-9.12291e-15
-6.63879e-15
1.05888e-14
3.9517e-15
4.35416e-16
-1.08247e-15
-9.20618e-15
-9.46639e-15
-5.42795e-15
-2.64545e-15
-1.79891e-15
-3.00801e-15
4.47212e-15
-1.12289e-14
-6.59368e-15
7.44196e-16
8.57821e-15
2.66974e-15
-1.17441e-15
1.1614e-14
1.18482e-15
-2.6628e-15
-7.84268e-15
1.74201e-14
5.6951e-15
-1.71304e-14
7.83401e-15
-1.14752e-14
1.73125e-15
1.12705e-14
-1.02366e-14
-9.87925e-15
-3.57006e-15
1.63931e-15
-5.91367e-15
2.63158e-15
-2.71831e-15
-7.25288e-15
9.22006e-15
2.52402e-15
-3.85803e-15
-5.21978e-15
7.2841e-15
-2.34882e-15
-1.51996e-14
3.77302e-15
1.72605e-15
4.79998e-15
4.35416e-15
-8.1081e-15
-7.25288e-15
-6.70644e-15
-6.08021e-15
-3.1225e-15
6.6145e-15
-6.25541e-15
1.53523e-15
2.22912e-15
-6.33001e-15
-4.62651e-15
6.90767e-15
1.05593e-14
5.10009e-15
2.97332e-15
-1.02123e-14
3.4122e-15
7.43676e-15
7.44196e-15
8.79505e-16
-7.62931e-15
-9.74915e-15
9.47679e-15
-8.64933e-15
9.93997e-16
4.47559e-16
9.15934e-15
-1.50435e-14
1.13885e-14
9.84629e-15
-7.48533e-15
-1.56472e-15
-6.33348e-15
7.20084e-15
-6.53991e-16
-3.67241e-15
1.18447e-14
4.30732e-15
1.81972e-15
6.31786e-15
-4.02976e-15
5.15039e-15
1.164e-15
2.32106e-15
3.56486e-15
4.92661e-16
-1.89258e-15
7.14706e-16
-7.2338e-16
-6.20164e-15
-3.90313e-16
3.83894e-15
-8.23126e-15
-7.03777e-15
-5.04458e-15
9.92435e-15
-1.29965e-14
-5.76622e-15
3.16761e-15
-7.77503e-15
1.01776e-14
1.0391e-14
-1.62717e-15
2.39392e-16
-1.87871e-15
-4.54671e-15
-1.73472e-15
1.24276e-14
-1.51285e-14
1.6584e-15
7.99881e-15
-7.0291e-15
-8.39259e-15
-2.09902e-15
-3.00281e-15
2.7929e-15
5.75234e-15
-4.92141e-15
-2.29157e-15
-1.09808e-15
1.02904e-14
-2.29157e-15
-7.58595e-15
9.06046e-15
2.1181e-15
-5.37764e-16
-1.11022e-16
-2.8727e-15
-1.01828e-14
-3.48506e-15
7.58768e-15
-2.52923e-15
5.51642e-15
-2.77729e-15
-9.37792e-15
4.78784e-15
-3.26475e-15
-6.54338e-15
-3.05311e-16
-2.08982e-14
3.38271e-15
-3.4122e-15
-5.51122e-15
8.18096e-15
3.20924e-16
-1.69136e-15
1.39767e-14
6.25021e-15
2.22738e-15
2.44423e-15
-1.24727e-15
-4.49987e-15
1.05714e-14
1.11265e-14
9.2374e-15
-1.80255e-14
1.16608e-14
6.09061e-15
1.38084e-15
1.19696e-16
-8.43076e-16
-1.44971e-14
-1.67574e-15
4.56232e-15
7.12277e-15
-2.7929e-15
5.36723e-15
-1.31319e-14
1.41033e-14
2.39739e-15
4.3264e-15
5.46785e-15
5.08621e-15
1.05159e-14
-1.34406e-14
-3.71578e-15
6.1097e-15
9.14546e-15
6.54685e-15
-7.36217e-15
-2.18575e-15
1.57513e-15
-1.11022e-15
-7.45931e-15
-5.80438e-15
5.88071e-15
-1.21257e-14
6.59195e-17
-4.40967e-15
5.06886e-15
-3.57353e-16
-3.22659e-16
1.38778e-16
9.28424e-15
3.63251e-15
2.77903e-15
2.28637e-15
-8.90607e-15
4.4964e-15
5.86683e-15
-8.21912e-15
-7.45931e-16
8.36831e-15
-1.11716e-15
3.20924e-15
-8.30586e-15
-8.69443e-15
-6.82787e-15
-8.46545e-16
3.59435e-15
-9.81507e-15
7.56339e-15
-9.46812e-15
-7.67095e-15
-9.28424e-15
9.17669e-15
-2.2482e-15
-3.75394e-15
-1.181e-14
7.47319e-15
3.25087e-15
1.25629e-14
-1.08073e-14
-4.61436e-16
1.86309e-15
5.39152e-15
-5.21458e-15
3.49026e-15
-2.30024e-15
-7.35176e-15
-1.53592e-14
3.84415e-15
5.99173e-15
-9.88098e-15
1.38466e-14
8.04912e-15
-9.58955e-15
-9.21832e-15
-6.37684e-15
1.11508e-14
-1.52656e-16
1.54911e-14
-8.89913e-15
2.81025e-16
8.78464e-15
9.99201e-16
8.87138e-15
1.334e-14
9.87405e-15
-1.3288e-15
-2.1233e-15
4.04538e-15
-1.13659e-14
-6.76889e-15
-1.12063e-15
-9.29812e-15
-1.04639e-14
1.32949e-14
-5.34295e-15
3.76435e-15
4.67335e-15
3.97252e-15
-1.07865e-14
-1.17753e-14
-1.54737e-15
9.83588e-15
3.60822e-15
1.25941e-15
-2.47719e-15
-6.38378e-16
2.21004e-15
-1.08732e-14
4.54498e-15
-9.84629e-15
2.06779e-15
-1.50574e-15
-6.99787e-15
8.96505e-15
1.51858e-14
-6.52603e-15
-2.85189e-15
-7.05686e-15
1.65805e-14
-1.8735e-15
-5.10009e-16
5.44703e-16
-2.10595e-15
-8.22259e-16
-1.73125e-15
-1.02349e-15
1.83673e-14
1.00926e-14
-1.42455e-14
1.78538e-14
2.53617e-15
-6.27276e-15
1.68893e-14
-8.63892e-16
5.86683e-15
-1.48839e-15
-5.35336e-15
-8.37524e-15
1.16504e-14
9.67976e-16
-9.72139e-15
1.01863e-14
7.78891e-15
-1.63203e-14
-3.26128e-15
-4.05578e-15
6.43929e-15
-1.26739e-14
8.26075e-15
-3.09128e-15
4.11129e-15
1.98799e-15
1.1692e-15
-8.18096e-15
8.57994e-15
-1.27398e-14
-4.73926e-15
-1.85546e-14
-3.2474e-15
1.78225e-14
-6.76542e-15
-5.21805e-15
-1.33921e-15
-2.7929e-15
-8.50015e-16
-3.17454e-15
-1.21084e-15
-6.01949e-15
-3.32373e-15
8.90607e-15
-9.02056e-17
5.85296e-15
9.76302e-15
7.32053e-16
-6.56072e-15
1.25941e-15
-1.1751e-14
3.43475e-15
-4.89192e-15
-2.47719e-15
-8.59035e-15
-1.02834e-14
6.48093e-15
8.54872e-15
-2.90046e-15
1.04777e-14
-6.84175e-15
-1.16296e-14
6.31439e-16
-9.30506e-15
-1.1921e-14
4.6213e-15
-2.75474e-15
1.14006e-14
-5.30131e-15
-3.29597e-15
1.44398e-14
3.747e-15
-4.11476e-15
-5.34989e-15
2.84495e-15
-3.41394e-15
-2.20587e-14
-3.32373e-15
-7.80626e-15
-6.66134e-15
-6.33521e-15
5.55805e-15
-2.11636e-15
-1.03181e-14
-6.07153e-15
7.91034e-16
4.23966e-15
8.43769e-15
-1.14769e-14
1.02418e-14
-7.6536e-15
1.99701e-14
1.12757e-14
-6.09235e-15
7.34135e-15
-1.42247e-15
-8.46545e-16
6.76542e-15
-2.04003e-15
1.02557e-14
-6.80012e-15
7.16788e-15
-4.656e-15
-4.88498e-15
9.57567e-16
-2.43763e-14
-3.41394e-15
-7.2789e-15
-5.82867e-16
-2.26208e-15
8.83321e-15
-7.61891e-15
-9.90874e-15
2.7825e-15
1.20806e-14
-1.27676e-15
1.63689e-14
3.68455e-15
-7.39686e-15
-9.11077e-15
8.32667e-17
2.35922e-15
-3.35842e-15
4.51028e-15
4.7809e-15
-7.00134e-15
4.85723e-15
-1.41345e-14
-1.18655e-15
1.07692e-14
-1.04847e-14
-4.26742e-15
3.74006e-15
-7.26502e-15
-6.22419e-15
1.51962e-15
6.76542e-15
1.62023e-14
-2.10248e-15
6.41154e-15
1.32533e-15
-2.498e-16
9.30506e-15
8.85403e-15
2.1233e-15
1.38015e-14
3.52496e-15
-6.55032e-15
1.09635e-14
-4.39926e-15
7.28584e-16
-5.68295e-15
-6.6544e-15
-5.07927e-15
-2.35922e-16
1.48076e-14
-9.45077e-15
5.07927e-15
8.74995e-15
-1.08524e-14
8.43076e-15
8.40994e-15
8.59035e-15
6.43929e-15
2.77556e-16
3.79557e-15
1.68615e-15
-3.53884e-16
-1.05124e-14
-1.08108e-14
2.09555e-15
-2.77556e-16
2.08167e-15
-2.48412e-15
-9.30506e-15
2.72005e-15
-7.54952e-15
-1.49117e-14
1.55431e-15
-2.77556e-16
-3.07393e-15
2.58127e-15
2.66454e-15
-2.25514e-14
-1.1241e-14
2.85189e-15
-2.21351e-15
1.21361e-14
6.80705e-15
-6.64746e-15
-3.27516e-15
4.5311e-15
5.48173e-16
2.37241e-14
3.71925e-15
6.50868e-15
-6.16174e-15
-6.55032e-15
-2.29677e-15
1.50574e-15
6.52256e-15
-1.21361e-14
-2.30579e-14
-1.00128e-14
-1.7146e-14
-9.36751e-15
-1.79023e-15
8.24341e-15
-1.10398e-14
-6.82787e-15
5.5303e-15
-1.66533e-15
7.42462e-15
6.57113e-15
7.02216e-15
-6.46705e-15
1.7715e-14
-1.31908e-14
-1.41068e-14
2.98372e-15
1.29757e-15
5.89806e-15
-9.22179e-15
-1.00475e-14
-7.56339e-15
4.28824e-15
8.39606e-16
-5.53724e-15
8.37524e-15
7.0291e-15
-4.19109e-15
-5.64826e-15
-7.04298e-15
3.43475e-15
1.21361e-14
8.37524e-15
1.38778e-17
2.92821e-14
-1.94289e-15
-1.7833e-15
1.73472e-16
2.33841e-15
-2.11636e-15
2.42237e-14
-5.4054e-15
5.53724e-15
1.55778e-14
1.94289e-15
-6.14786e-15
6.98053e-15
8.43769e-15
-7.22339e-15
-9.58261e-15
-1.2032e-14
1.02141e-14
-1.61191e-14
1.09426e-14
6.41154e-15
8.64586e-15
-3.66374e-15
-2.47719e-15
-1.47451e-14
2.25792e-14
7.25808e-15
1.43288e-14
-5.66908e-15
-4.9058e-15
-8.12544e-15
1.00683e-14
6.1548e-15
5.55112e-17
-3.32373e-15
2.42861e-15
-4.03844e-15
-1.38778e-14
9.92262e-16
-1.48562e-14
2.02546e-14
1.48076e-14
3.61516e-15
-1.05124e-14
-6.68215e-15
1.29341e-14
1.40235e-14
6.57807e-15
-1.59595e-15
-9.45771e-15
4.8711e-15
-9.74915e-15
1.99077e-14
-3.72619e-15
8.08381e-15
1.75554e-14
-7.23033e-15
-6.66134e-16
-1.98591e-14
-1.04916e-14
-1.62093e-14
-5.55112e-15
1.31423e-14
7.86871e-15
-1.54876e-14
-6.52256e-15
-2.54241e-14
5.09315e-15
-1.31006e-14
-1.71113e-14
-5.13478e-16
7.13318e-15
-4.39926e-15
7.07767e-15
3.33067e-15
1.34198e-14
1.02279e-14
-1.32949e-14
4.73233e-15
-1.51129e-14
1.53072e-14
-5.28744e-15
4.7462e-15
1.59317e-14
3.69982e-14
-4.98213e-15
8.65974e-15
-1.69725e-14
-2.22045e-16
1.91513e-14
-6.60583e-15
-4.98213e-15
2.31759e-15
1.06859e-14
-2.19269e-15
1.51129e-14
1.66533e-15
1.98175e-14
8.20177e-15
1.4766e-14
-1.05194e-14
3.59435e-15
4.30211e-16
9.14546e-15
-1.65562e-14
-5.64826e-15
-1.48631e-14
-5.85643e-15
2.38698e-15
-1.40582e-14
-5.35683e-15
3.88578e-16
-2.32314e-14
1.18655e-14
-8.96505e-15
-1.75832e-14
3.41394e-15
1.14353e-14
1.98314e-14
6.32827e-15
3.33067e-16
3.96905e-15
-9.64506e-15
-9.42302e-15
1.81244e-14
1.14631e-14
1.23374e-14
-1.09635e-15
-7.27196e-15
1.33088e-14
-7.81319e-15
6.245e-16
-4.44089e-15
1.01308e-15
-8.70137e-15
-4.02456e-15
-2.55351e-15
-9.90874e-15
-4.63518e-15
6.45317e-15
-6.85563e-15
-5.27356e-15
-1.01308e-15
-6.42542e-15
-2.53408e-14
1.04361e-14
-7.59115e-15
8.64586e-15
2.70617e-15
7.53564e-15
3.03924e-15
-5.80092e-15
-2.69229e-15
-2.82413e-14
1.88738e-15
-3.53884e-15
-2.71588e-14
-8.06299e-15
-3.03924e-15
-4.30211e-15
-2.17881e-15
-1.94289e-15
1.56403e-14
-1.81799e-15
2.68952e-14
2.05391e-15
8.79852e-15
4.78784e-15
-1.22125e-15
2.27041e-14
7.66054e-15
-9.79772e-15
1.66117e-14
-7.50788e-15
-1.22125e-15
1.1241e-14
-3.33067e-16
-1.44745e-14
-8.10463e-15
1.55431e-14
5.85643e-15
-1.81799e-15
4.6213e-15
1.53905e-14
-4.06619e-15
-1.5779e-14
-4.8711e-15
-2.16493e-15
-9.46465e-15
-5.92582e-15
1.68199e-14
-1.39888e-14
1.29896e-14
-4.34375e-15
3.15026e-15
2.60902e-15
1.52656e-16
7.32747e-15
-5.27356e-16
3.76088e-15
2.3731e-15
3.40006e-15
2.33147e-15
-4.60743e-15
-9.67282e-15
-1.90542e-14
-5.67602e-15
1.70697e-15
5.30131e-15
-8.85403e-15
-3.88578e-15
-3.747e-16
-1.0783e-14
3.21548e-14
-2.01228e-15
-6.52256e-16
2.80748e-14
-6.77236e-15
-6.43929e-15
5.82867e-15
9.4369e-16
7.56339e-15
-7.24421e-15
2.42861e-15
-2.31065e-14
5.89806e-15
-1.09635e-14
-1.42247e-14
-6.63358e-15
-6.39766e-15
-3.98293e-15
1.38917e-14
-5.7454e-15
2.85882e-15
4.10783e-15
-4.30211e-16
-1.27259e-14
4.21885e-15
-2.35922e-15
-4.4964e-15
-8.71525e-15
1.00336e-14
-2.59515e-15
7.78544e-15
-4.55191e-15
-3.92741e-15
-8.5626e-15
-1.74583e-14
1.33366e-14
1.85962e-15
3.96905e-15
2.95597e-15
-1.76664e-14
1.07414e-14
1.20737e-15
1.15741e-14
1.02418e-14
-1.36002e-15
1.77636e-15
-4.39926e-15
-1.37113e-14
2.28983e-15
9.54792e-15
3.46945e-16
9.21485e-15
2.10248e-14
2.38698e-15
-9.07607e-15
-1.64174e-14
2.11359e-14
4.16334e-16
-4.59355e-15
1.15741e-14
-8.47933e-15
5.64826e-15
3.81639e-15
-7.34135e-15
8.09075e-15
9.58955e-15
9.21485e-15
1.13798e-15
-5.85643e-15
1.3739e-14
6.1201e-15
8.54872e-15
-1.39333e-14
5.20417e-15
1.1241e-14
7.85483e-15
1.56819e-15
1.98452e-15
-2.91434e-15
3.55271e-15
-3.09475e-15
-9.4369e-15
5.13478e-15
9.32587e-15
2.20657e-15
5.7454e-15
-1.99285e-14
3.02536e-15
-2.11914e-14
1.1352e-14
-2.22183e-14
7.72993e-15
2.14828e-14
9.57567e-15
1.35725e-14
-4.44089e-15
8.32667e-17
-1.77636e-14
1.60011e-14
1.50158e-14
-2.42861e-15
5.2458e-15
-1.34753e-14
-3.6221e-15
-8.8124e-15
-1.1588e-14
-5.70377e-15
6.85563e-15
6.02296e-15
-1.84713e-14
5.71765e-15
-1.69864e-14
-1.08247e-14
3.91354e-15
-4.57967e-15
7.50788e-15
-2.83107e-14
1.32672e-14
4.02456e-15
-7.89646e-15
2.94209e-15
7.27196e-15
-8.74301e-16
-1.66533e-15
5.68989e-16
6.245e-16
-8.45157e-15
-3.23352e-15
1.59733e-14
-2.75474e-14
4.02456e-16
-1.27121e-14
9.89486e-15
1.27121e-14
4.28824e-15
-7.49401e-16
-7.34135e-15
1.18239e-14
-8.79852e-15
-3.70537e-15
1.58207e-15
7.52176e-15
2.22045e-15
-1.15186e-14
-5.55112e-16
2.7478e-15
1.30729e-14
2.27596e-15
1.72085e-14
2.02616e-15
1.55154e-14
-1.91513e-15
-1.91513e-14
-1.13798e-14
2.08167e-15
-3.60822e-15
1.46827e-14
8.99281e-15
-2.10942e-15
-4.4964e-15
-8.43769e-15
-6.38378e-16
8.38218e-15
-9.52016e-15
2.22045e-15
2.10942e-14
5.27356e-16
-5.55112e-16
-1.25733e-14
2.70339e-14
-3.38618e-15
-3.60822e-16
4.63518e-15
-6.43929e-15
1.96509e-14
-1.0103e-14
1.50435e-14
-6.96665e-15
-3.88578e-15
9.85323e-15
-7.49401e-16
-1.63758e-15
-3.33067e-16
-4.52416e-15
2.498e-15
-1.32949e-14
-5.85643e-15
1.15741e-14
-1.07969e-14
1.4877e-14
-1.66811e-14
8.18789e-15
-4.2466e-15
1.83187e-15
-8.21565e-15
1.03528e-14
6.10623e-15
-6.18949e-15
8.79852e-15
9.54792e-15
-9.4369e-15
-8.54872e-15
8.88178e-16
1.03806e-14
-5.60663e-15
-1.80411e-15
1.12965e-14
-6.91114e-15
2.83107e-15
-8.10463e-15
3.4972e-15
-6.30052e-15
9.15934e-16
1.11855e-14
-1.22402e-14
1.02141e-14
-1.28231e-14
2.77556e-17
8.18789e-15
-5.60663e-15
4.30211e-15
-6.66134e-15
-1.02696e-14
4.2466e-15
6.96665e-15
-2.08999e-14
9.82547e-15
-5.55112e-17
6.52256e-15
-2.3731e-14
1.19349e-15
1.11022e-14
-2.88658e-15
2.69229e-15
-2.9976e-15
3.33067e-15
-3.41394e-15
-1.11022e-16
-1.78191e-14
5.41234e-15
8.46545e-15
8.29892e-15
-7.71605e-15
-6.21725e-15
-2.33147e-15
6.30052e-15
8.63198e-15
-2.39808e-14
1.21569e-14
1.18239e-14
2.92266e-14
8.88178e-15
-7.88258e-15
-2.04836e-14
3.33067e-15
-1.16851e-14
-1.87628e-14
-4.85723e-15
-7.02216e-15
-7.21645e-16
1.18239e-14
5.30131e-15
-2.04559e-14
-7.46625e-15
1.38778e-15
-6.21725e-15
-1.95122e-14
5.05151e-15
-1.35447e-14
3.38618e-15
3.60822e-16
1.31561e-14
-3.30291e-15
-1.78191e-14
1.07414e-14
-8.16014e-15
1.26288e-14
-1.16573e-15
-2.80331e-15
3.91354e-15
4.82947e-15
2.08167e-15
5.63438e-15
-9.24261e-15
-2.19269e-15
1.42664e-14
-2.226e-14
5.55112e-17
-5.05151e-15
1.8513e-14
9.15934e-16
-1.19904e-14
9.29812e-15
1.69309e-15
-2.05391e-15
-4.4964e-15
-3.46945e-15
8.46545e-15
1.19071e-14
-1.27953e-14
-1.30729e-14
-2.72005e-15
1.83742e-14
2.19269e-15
2.69229e-15
1.27676e-15
-6.10623e-15
1.42386e-14
-4.2466e-15
-6.4948e-15
-1.80966e-14
-1.91236e-14
1.36557e-14
1.54321e-14
4.57967e-15
7.24421e-15
1.43219e-14
1.19071e-14
5.82867e-16
1.56541e-14
-2.35922e-15
-7.16094e-15
1.81799e-14
-3.10862e-15
6.10623e-15
2.44249e-15
1.44607e-14
-1.94289e-15
-3.63598e-15
1.11022e-16
-1.28786e-14
6.41154e-15
4.57967e-15
1.79301e-14
-6.41154e-15
-6.30052e-15
-2.72005e-15
-5.32907e-15
8.04912e-15
-8.18789e-15
-1.17129e-14
6.245e-15
7.38298e-15
-1.19349e-15
1.00475e-14
-1.55709e-14
1.72085e-15
-3.27516e-15
-5.66214e-15
-1.3739e-14
-1.80411e-15
6.10623e-15
5.7454e-15
-1.30451e-15
3.88578e-16
4.63518e-15
1.17406e-14
-3.4972e-15
7.10543e-15
-5.2458e-15
1.44329e-14
-1.09635e-14
-9.6867e-15
-3.9968e-15
1.24623e-14
5.7454e-15
2.41474e-15
-9.71445e-16
2.77556e-16
8.88178e-16
2.11775e-14
1.25733e-14
-1.4988e-15
-6.16174e-15
-2.33147e-15
-1.26288e-14
-1.62925e-14
8.71525e-15
9.32587e-15
-3.16414e-15
-6.82787e-15
8.40994e-15
-5.63438e-15
-3.58047e-15
-2.6229e-14
2.60902e-15
-1.1241e-14
-2.88658e-15
4.77396e-15
-2.96985e-15
9.4369e-16
-1.11855e-14
-1.11022e-16
-7.93809e-15
2.80331e-15
8.9373e-15
-5.7454e-15
7.35523e-15
-3.96905e-15
8.90954e-15
1.43219e-14
-4.41314e-15
-1.30451e-14
3.9968e-15
-7.16094e-15
5.88418e-15
4.96825e-15
8.13238e-15
-2.63678e-15
-5.41234e-15
-5.46785e-15
8.38218e-15
-2.13718e-15
-5.4956e-15
3.10862e-15
2.63678e-15
-5.2458e-15
3.80251e-15
-6.4948e-15
1.12688e-14
-1.52378e-14
9.96425e-15
5.02376e-15
4.91274e-15
-1.17406e-14
-7.77156e-16
5.46785e-15
-1.15463e-14
4.21885e-15
5.02376e-15
-1.67921e-14
-1.3517e-14
-1.249e-15
-3.46945e-15
-1.01585e-14
6.68909e-15
-5.27356e-16
-1.24067e-14
-1.39055e-14
-4.21885e-15
2.31759e-14
2.77556e-16
5.71765e-15
8.9373e-15
2.11497e-14
-5.27356e-16
2.96985e-15
-1.19349e-15
2.10942e-15
-4.35763e-15
-4.27436e-15
-2.33147e-15
-2.63678e-15
2.16493e-15
3.60822e-15
-4.96825e-15
7.43849e-15
-5.82867e-15
5.7454e-15
-1.30451e-15
-8.04912e-16
2.94209e-15
7.88258e-15
-8.46545e-15
6.32827e-15
-2.91434e-15
2.55351e-15
-2.72005e-15
1.2601e-14
1.00753e-14
1.46827e-14
-6.07847e-15
-1.249e-14
4.32987e-15
-5.68989e-15
3.52496e-15
2.05391e-15
-2.66454e-15
-3.71925e-15
6.55032e-15
1.45439e-14
-2.22045e-15
-6.38378e-15
2.91434e-15
1.21292e-14
-1.1352e-14
1.28508e-14
6.41154e-15
5.05151e-15
5.60663e-15
3.66374e-15
1.6237e-14
-7.32747e-15
-4.69069e-15
7.52176e-15
-2.27596e-15
1.09357e-14
1.01863e-14
6.85563e-15
1.11855e-14
-1.32394e-14
-7.54952e-15
-3.44169e-15
-8.71525e-15
-1.09357e-14
6.27276e-15
-1.60982e-15
2.60902e-15
3.71925e-15
-4.27436e-15
1.30451e-14
-1.22125e-15
-1.19904e-14
1.30451e-14
-5.32907e-15
-6.4948e-15
-2.22045e-16
1.66533e-16
-2.27596e-15
-1.29341e-14
-5.82867e-15
-2.66454e-15
1.83187e-15
8.88178e-15
-1.04361e-14
-4.05231e-15
3.88578e-15
5.10703e-15
-1.4766e-14
-6.77236e-15
-1.36002e-14
8.99281e-15
6.82787e-15
-9.15934e-15
3.77476e-15
-3.9968e-15
4.44089e-16
5.10703e-15
2.88658e-15
-5.55112e-17
-6.10623e-16
1.02696e-14
-4.27436e-15
-5.66214e-15
-2.02616e-14
2.33147e-15
-1.94289e-14
-2.33147e-15
-1.03806e-14
-8.54872e-15
-2.22045e-15
-1.41553e-14
8.43769e-15
4.16334e-15
-5.55112e-17
3.71925e-15
5.93969e-15
-6.77236e-15
-1.38778e-15
-4.44089e-15
-1.83187e-15
2.38698e-15
9.4369e-15
1.08247e-14
1.11022e-16
-7.82707e-15
-5.82867e-15
-6.71685e-15
6.82787e-15
1.19349e-14
-1.16573e-15
1.55431e-15
1.04361e-14