/*--------------------------------*- C++ -*----------------------------------*\
| =========                 |                                                 |
| \\      /  F ield         | foam-extend: Open Source CFD                    |
|  \\    /   O peration     | Version:     4.0                                |
|   \\  /    A nd           | Web:         http://www.foam-extend.org         |
|    \\/     M anipulation  |                                                 |
\*---------------------------------------------------------------------------*/
FoamFile
{
    version     2.0;
    format      ascii;
    class       volScalarField;
    location    "1610";
    object      cPlus;
}
// * * * * * * * * * * * * * * * * * * * * * * * * * * * * * * * * * * * * * //

dimensions      [0 0 0 0 0 0 0];

internalField   nonuniform List<scalar> 
6960
(
0.323557
0.323544
0.323529
0.323513
0.323498
0.323485
0.323473
0.323462
0.323453
0.323444
0.323437
0.32343
0.323425
0.32342
0.323415
0.323412
0.323408
0.323406
0.323403
0.323401
0.3234
0.323398
0.323397
0.323396
0.323395
0.323395
0.323394
0.323394
0.323394
0.323393
0.323393
0.323394
0.323394
0.323394
0.323395
0.323395
0.323396
0.323397
0.323398
0.3234
0.323401
0.323403
0.323406
0.323408
0.323412
0.323415
0.32342
0.323425
0.32343
0.323437
0.323444
0.323453
0.323462
0.323473
0.323485
0.323498
0.323513
0.323529
0.323544
0.323557
0.105706
0.105697
0.105686
0.105675
0.105665
0.105655
0.105646
0.105639
0.105632
0.105626
0.10562
0.105616
0.105612
0.105608
0.105605
0.105602
0.1056
0.105598
0.105596
0.105595
0.105594
0.105593
0.105592
0.105591
0.105591
0.10559
0.10559
0.10559
0.105589
0.105589
0.105589
0.105589
0.10559
0.10559
0.10559
0.105591
0.105591
0.105592
0.105593
0.105594
0.105595
0.105596
0.105598
0.1056
0.105602
0.105605
0.105608
0.105612
0.105616
0.10562
0.105626
0.105632
0.105639
0.105646
0.105655
0.105665
0.105675
0.105686
0.105697
0.105706
0.0411387
0.0411339
0.0411278
0.0411216
0.0411157
0.0411103
0.0411055
0.0411012
0.0410973
0.0410939
0.0410909
0.0410883
0.041086
0.041084
0.0410823
0.0410808
0.0410795
0.0410784
0.0410775
0.0410767
0.041076
0.0410754
0.0410749
0.0410745
0.0410742
0.0410739
0.0410737
0.0410736
0.0410735
0.0410734
0.0410734
0.0410735
0.0410736
0.0410737
0.0410739
0.0410742
0.0410745
0.0410749
0.0410754
0.041076
0.0410767
0.0410775
0.0410784
0.0410795
0.0410808
0.0410823
0.041084
0.041086
0.0410883
0.0410909
0.0410939
0.0410973
0.0411012
0.0411055
0.0411103
0.0411157
0.0411216
0.0411278
0.0411339
0.0411387
0.018578
0.0185761
0.0185734
0.0185706
0.018568
0.0185656
0.0185634
0.0185614
0.0185597
0.0185582
0.0185568
0.0185556
0.0185546
0.0185537
0.0185529
0.0185522
0.0185516
0.0185511
0.0185507
0.0185503
0.01855
0.0185498
0.0185496
0.0185494
0.0185492
0.0185491
0.018549
0.018549
0.0185489
0.0185489
0.0185489
0.0185489
0.018549
0.018549
0.0185491
0.0185492
0.0185494
0.0185496
0.0185498
0.01855
0.0185503
0.0185507
0.0185511
0.0185516
0.0185522
0.0185529
0.0185537
0.0185546
0.0185556
0.0185568
0.0185582
0.0185597
0.0185614
0.0185634
0.0185656
0.018568
0.0185706
0.0185734
0.0185761
0.018578
0.0103405
0.0103403
0.0103396
0.0103389
0.0103381
0.0103374
0.0103368
0.0103363
0.0103358
0.0103353
0.0103349
0.0103346
0.0103343
0.010334
0.0103338
0.0103336
0.0103335
0.0103333
0.0103332
0.0103331
0.010333
0.0103329
0.0103328
0.0103328
0.0103328
0.0103327
0.0103327
0.0103327
0.0103327
0.0103327
0.0103327
0.0103327
0.0103327
0.0103327
0.0103327
0.0103328
0.0103328
0.0103328
0.0103329
0.010333
0.0103331
0.0103332
0.0103333
0.0103335
0.0103336
0.0103338
0.010334
0.0103343
0.0103346
0.0103349
0.0103353
0.0103358
0.0103363
0.0103368
0.0103374
0.0103381
0.0103389
0.0103396
0.0103403
0.0103405
0.00734504
0.00734569
0.00734609
0.00734639
0.00734665
0.00734688
0.00734708
0.00734725
0.00734741
0.00734754
0.00734766
0.00734776
0.00734785
0.00734793
0.007348
0.00734805
0.0073481
0.00734814
0.00734818
0.00734821
0.00734823
0.00734825
0.00734827
0.00734828
0.00734829
0.0073483
0.00734831
0.00734832
0.00734832
0.00734832
0.00734832
0.00734832
0.00734832
0.00734831
0.0073483
0.00734829
0.00734828
0.00734827
0.00734825
0.00734823
0.00734821
0.00734818
0.00734814
0.0073481
0.00734805
0.007348
0.00734793
0.00734785
0.00734776
0.00734766
0.00734754
0.00734741
0.00734725
0.00734708
0.00734688
0.00734665
0.00734639
0.00734609
0.00734569
0.00734504
0.00629226
0.00629334
0.00629425
0.00629507
0.00629581
0.00629647
0.00629707
0.0062976
0.00629807
0.00629848
0.00629884
0.00629916
0.00629944
0.00629967
0.00629988
0.00630006
0.00630021
0.00630034
0.00630045
0.00630055
0.00630063
0.0063007
0.00630075
0.0063008
0.00630084
0.00630087
0.00630089
0.00630091
0.00630092
0.00630092
0.00630092
0.00630092
0.00630091
0.00630089
0.00630087
0.00630084
0.0063008
0.00630075
0.0063007
0.00630063
0.00630055
0.00630045
0.00630034
0.00630021
0.00630006
0.00629988
0.00629967
0.00629944
0.00629916
0.00629884
0.00629848
0.00629807
0.0062976
0.00629707
0.00629647
0.00629581
0.00629507
0.00629425
0.00629334
0.00629226
0.00595221
0.0059535
0.00595464
0.00595569
0.00595665
0.00595752
0.00595829
0.00595899
0.0059596
0.00596014
0.00596062
0.00596103
0.00596139
0.0059617
0.00596198
0.00596221
0.00596241
0.00596258
0.00596273
0.00596285
0.00596296
0.00596305
0.00596312
0.00596318
0.00596323
0.00596327
0.00596331
0.00596333
0.00596334
0.00596335
0.00596335
0.00596334
0.00596333
0.00596331
0.00596327
0.00596323
0.00596318
0.00596312
0.00596305
0.00596296
0.00596285
0.00596273
0.00596258
0.00596241
0.00596221
0.00596198
0.0059617
0.00596139
0.00596103
0.00596062
0.00596014
0.0059596
0.00595899
0.00595829
0.00595752
0.00595665
0.00595569
0.00595464
0.0059535
0.00595221
0.00586944
0.00587082
0.00587207
0.00587323
0.00587429
0.00587525
0.00587611
0.00587688
0.00587756
0.00587815
0.00587868
0.00587914
0.00587954
0.00587989
0.00588019
0.00588045
0.00588067
0.00588086
0.00588102
0.00588116
0.00588128
0.00588138
0.00588146
0.00588153
0.00588159
0.00588163
0.00588167
0.00588169
0.00588171
0.00588172
0.00588172
0.00588171
0.00588169
0.00588167
0.00588163
0.00588159
0.00588153
0.00588146
0.00588138
0.00588128
0.00588116
0.00588102
0.00588086
0.00588067
0.00588045
0.00588019
0.00587989
0.00587954
0.00587914
0.00587868
0.00587815
0.00587756
0.00587688
0.00587611
0.00587525
0.00587429
0.00587323
0.00587207
0.00587082
0.00586944
0.00587868
0.00588011
0.00588142
0.00588263
0.00588374
0.00588475
0.00588565
0.00588645
0.00588716
0.00588779
0.00588834
0.00588883
0.00588925
0.00588961
0.00588993
0.0058902
0.00589043
0.00589063
0.0058908
0.00589095
0.00589107
0.00589118
0.00589126
0.00589134
0.00589139
0.00589144
0.00589148
0.0058915
0.00589152
0.00589153
0.00589153
0.00589152
0.0058915
0.00589148
0.00589144
0.00589139
0.00589134
0.00589126
0.00589118
0.00589107
0.00589095
0.0058908
0.00589063
0.00589043
0.0058902
0.00588993
0.00588961
0.00588925
0.00588883
0.00588834
0.00588779
0.00588716
0.00588645
0.00588565
0.00588475
0.00588374
0.00588263
0.00588142
0.00588011
0.00587868
0.00592158
0.00592305
0.00592439
0.00592564
0.00592678
0.00592781
0.00592873
0.00592956
0.00593029
0.00593094
0.0059315
0.005932
0.00593243
0.00593281
0.00593313
0.00593341
0.00593365
0.00593386
0.00593403
0.00593418
0.00593431
0.00593442
0.00593451
0.00593458
0.00593464
0.00593469
0.00593473
0.00593476
0.00593477
0.00593478
0.00593478
0.00593477
0.00593476
0.00593473
0.00593469
0.00593464
0.00593458
0.00593451
0.00593442
0.00593431
0.00593418
0.00593403
0.00593386
0.00593365
0.00593341
0.00593313
0.00593281
0.00593243
0.005932
0.0059315
0.00593094
0.00593029
0.00592956
0.00592873
0.00592781
0.00592678
0.00592564
0.00592439
0.00592305
0.00592158
0.00597822
0.00597972
0.00598109
0.00598236
0.00598353
0.00598458
0.00598553
0.00598637
0.00598712
0.00598778
0.00598836
0.00598886
0.0059893
0.00598969
0.00599002
0.0059903
0.00599055
0.00599076
0.00599094
0.00599109
0.00599122
0.00599133
0.00599143
0.0059915
0.00599156
0.00599161
0.00599165
0.00599168
0.0059917
0.00599171
0.00599171
0.0059917
0.00599168
0.00599165
0.00599161
0.00599156
0.0059915
0.00599143
0.00599133
0.00599122
0.00599109
0.00599094
0.00599076
0.00599055
0.0059903
0.00599002
0.00598969
0.0059893
0.00598886
0.00598836
0.00598778
0.00598712
0.00598637
0.00598553
0.00598458
0.00598353
0.00598236
0.00598109
0.00597972
0.00597822
0.00604218
0.0060437
0.0060451
0.0060464
0.00604758
0.00604866
0.00604962
0.00605048
0.00605124
0.00605191
0.0060525
0.00605302
0.00605347
0.00605386
0.0060542
0.00605449
0.00605474
0.00605496
0.00605514
0.0060553
0.00605543
0.00605554
0.00605563
0.00605571
0.00605578
0.00605583
0.00605586
0.00605589
0.00605591
0.00605592
0.00605592
0.00605591
0.00605589
0.00605586
0.00605583
0.00605578
0.00605571
0.00605563
0.00605554
0.00605543
0.0060553
0.00605514
0.00605496
0.00605474
0.00605449
0.0060542
0.00605386
0.00605347
0.00605302
0.0060525
0.00605191
0.00605124
0.00605048
0.00604962
0.00604866
0.00604758
0.0060464
0.0060451
0.0060437
0.00604218
0.00611161
0.00611317
0.00611459
0.00611591
0.00611712
0.00611822
0.0061192
0.00612007
0.00612085
0.00612154
0.00612214
0.00612267
0.00612312
0.00612352
0.00612387
0.00612416
0.00612442
0.00612464
0.00612483
0.00612499
0.00612512
0.00612524
0.00612533
0.00612541
0.00612548
0.00612553
0.00612557
0.0061256
0.00612561
0.00612562
0.00612562
0.00612561
0.0061256
0.00612557
0.00612553
0.00612548
0.00612541
0.00612533
0.00612524
0.00612512
0.00612499
0.00612483
0.00612464
0.00612442
0.00612416
0.00612387
0.00612352
0.00612312
0.00612267
0.00612214
0.00612154
0.00612085
0.00612007
0.0061192
0.00611822
0.00611712
0.00611591
0.00611459
0.00611317
0.00611161
0.00618625
0.00618784
0.0061893
0.00619065
0.00619188
0.00619299
0.006194
0.00619489
0.00619568
0.00619638
0.006197
0.00619753
0.006198
0.00619841
0.00619876
0.00619907
0.00619933
0.00619955
0.00619974
0.0061999
0.00620004
0.00620016
0.00620026
0.00620034
0.0062004
0.00620046
0.0062005
0.00620053
0.00620055
0.00620056
0.00620056
0.00620055
0.00620053
0.0062005
0.00620046
0.0062004
0.00620034
0.00620026
0.00620016
0.00620004
0.0061999
0.00619974
0.00619955
0.00619933
0.00619907
0.00619876
0.00619841
0.006198
0.00619753
0.006197
0.00619638
0.00619568
0.00619489
0.006194
0.00619299
0.00619188
0.00619065
0.0061893
0.00618784
0.00618625
0.00626638
0.00626801
0.00626949
0.00627087
0.00627213
0.00627327
0.00627429
0.0062752
0.00627601
0.00627673
0.00627736
0.00627791
0.00627838
0.0062788
0.00627916
0.00627947
0.00627974
0.00627997
0.00628016
0.00628033
0.00628047
0.00628059
0.00628069
0.00628077
0.00628084
0.00628089
0.00628093
0.00628096
0.00628098
0.00628099
0.00628099
0.00628098
0.00628096
0.00628093
0.00628089
0.00628084
0.00628077
0.00628069
0.00628059
0.00628047
0.00628033
0.00628016
0.00627997
0.00627974
0.00627947
0.00627916
0.0062788
0.00627838
0.00627791
0.00627736
0.00627673
0.00627601
0.0062752
0.00627429
0.00627327
0.00627213
0.00627087
0.00626949
0.00626801
0.00626638
0.00635249
0.00635415
0.00635567
0.00635708
0.00635837
0.00635953
0.00636058
0.00636151
0.00636234
0.00636307
0.00636372
0.00636428
0.00636477
0.00636519
0.00636556
0.00636588
0.00636615
0.00636639
0.00636659
0.00636676
0.0063669
0.00636703
0.00636713
0.00636721
0.00636728
0.00636734
0.00636738
0.00636741
0.00636743
0.00636744
0.00636744
0.00636743
0.00636741
0.00636738
0.00636734
0.00636728
0.00636721
0.00636713
0.00636703
0.0063669
0.00636676
0.00636659
0.00636639
0.00636615
0.00636588
0.00636556
0.00636519
0.00636477
0.00636428
0.00636372
0.00636307
0.00636234
0.00636151
0.00636058
0.00635953
0.00635837
0.00635708
0.00635567
0.00635415
0.00635249
0.00644519
0.00644691
0.00644846
0.0064499
0.00645122
0.00645242
0.00645349
0.00645444
0.00645529
0.00645604
0.0064567
0.00645728
0.00645778
0.00645821
0.00645859
0.00645892
0.0064592
0.00645944
0.00645964
0.00645982
0.00645997
0.00646009
0.0064602
0.00646028
0.00646035
0.00646041
0.00646045
0.00646049
0.00646051
0.00646052
0.00646052
0.00646051
0.00646049
0.00646045
0.00646041
0.00646035
0.00646028
0.0064602
0.00646009
0.00645997
0.00645982
0.00645964
0.00645944
0.0064592
0.00645892
0.00645859
0.00645821
0.00645778
0.00645728
0.0064567
0.00645604
0.00645529
0.00645444
0.00645349
0.00645242
0.00645122
0.0064499
0.00644846
0.00644691
0.00644519
0.00654524
0.006547
0.0065486
0.00655007
0.00655143
0.00655265
0.00655375
0.00655473
0.00655561
0.00655637
0.00655705
0.00655764
0.00655816
0.0065586
0.00655899
0.00655933
0.00655961
0.00655986
0.00656007
0.00656025
0.0065604
0.00656053
0.00656064
0.00656073
0.0065608
0.00656086
0.0065609
0.00656094
0.00656096
0.00656097
0.00656097
0.00656096
0.00656094
0.0065609
0.00656086
0.0065608
0.00656073
0.00656064
0.00656053
0.0065604
0.00656025
0.00656007
0.00655986
0.00655961
0.00655933
0.00655899
0.0065586
0.00655816
0.00655764
0.00655705
0.00655637
0.00655561
0.00655473
0.00655375
0.00655265
0.00655143
0.00655007
0.0065486
0.006547
0.00654524
0.00665348
0.00665529
0.00665694
0.00665846
0.00665985
0.00666111
0.00666224
0.00666325
0.00666414
0.00666493
0.00666563
0.00666623
0.00666676
0.00666722
0.00666762
0.00666797
0.00666826
0.00666852
0.00666874
0.00666892
0.00666908
0.00666921
0.00666932
0.00666941
0.00666949
0.00666955
0.00666959
0.00666963
0.00666965
0.00666966
0.00666966
0.00666965
0.00666963
0.00666959
0.00666955
0.00666949
0.00666941
0.00666932
0.00666921
0.00666908
0.00666892
0.00666874
0.00666852
0.00666826
0.00666797
0.00666762
0.00666722
0.00666676
0.00666623
0.00666563
0.00666493
0.00666414
0.00666325
0.00666224
0.00666111
0.00665985
0.00665846
0.00665694
0.00665529
0.00665348
0.00677093
0.0067728
0.00677449
0.00677606
0.00677749
0.00677879
0.00677995
0.00678099
0.00678191
0.00678273
0.00678344
0.00678407
0.00678462
0.00678509
0.0067855
0.00678586
0.00678616
0.00678642
0.00678665
0.00678684
0.006787
0.00678714
0.00678725
0.00678735
0.00678742
0.00678748
0.00678753
0.00678757
0.00678759
0.0067876
0.0067876
0.00678759
0.00678757
0.00678753
0.00678748
0.00678742
0.00678735
0.00678725
0.00678714
0.006787
0.00678684
0.00678665
0.00678642
0.00678616
0.00678586
0.0067855
0.00678509
0.00678462
0.00678407
0.00678344
0.00678273
0.00678191
0.00678099
0.00677995
0.00677879
0.00677749
0.00677606
0.00677449
0.0067728
0.00677093
0.00689877
0.0069007
0.00690245
0.00690406
0.00690554
0.00690688
0.00690808
0.00690916
0.00691011
0.00691095
0.00691169
0.00691234
0.0069129
0.00691339
0.00691382
0.00691418
0.0069145
0.00691477
0.006915
0.0069152
0.00691537
0.00691551
0.00691563
0.00691572
0.0069158
0.00691587
0.00691592
0.00691595
0.00691598
0.00691599
0.00691599
0.00691598
0.00691595
0.00691592
0.00691587
0.0069158
0.00691572
0.00691563
0.00691551
0.00691537
0.0069152
0.006915
0.00691477
0.0069145
0.00691418
0.00691382
0.00691339
0.0069129
0.00691234
0.00691169
0.00691095
0.00691011
0.00690916
0.00690808
0.00690688
0.00690554
0.00690406
0.00690245
0.0069007
0.00689877
0.0070384
0.0070404
0.00704221
0.00704389
0.00704542
0.0070468
0.00704805
0.00704916
0.00705015
0.00705102
0.00705178
0.00705245
0.00705304
0.00705355
0.00705399
0.00705437
0.00705469
0.00705497
0.00705521
0.00705542
0.00705559
0.00705574
0.00705586
0.00705596
0.00705604
0.00705611
0.00705616
0.0070562
0.00705622
0.00705623
0.00705623
0.00705622
0.0070562
0.00705616
0.00705611
0.00705604
0.00705596
0.00705586
0.00705574
0.00705559
0.00705542
0.00705521
0.00705497
0.00705469
0.00705437
0.00705399
0.00705355
0.00705304
0.00705245
0.00705178
0.00705102
0.00705015
0.00704916
0.00704805
0.0070468
0.00704542
0.00704389
0.00704221
0.0070404
0.0070384
0.00719152
0.0071936
0.00719548
0.00719721
0.0071988
0.00720024
0.00720154
0.00720269
0.00720371
0.00720462
0.00720541
0.00720611
0.00720672
0.00720724
0.0072077
0.0072081
0.00720844
0.00720873
0.00720898
0.00720919
0.00720937
0.00720952
0.00720965
0.00720975
0.00720984
0.00720991
0.00720996
0.00721
0.00721002
0.00721004
0.00721004
0.00721002
0.00721
0.00720996
0.00720991
0.00720984
0.00720975
0.00720965
0.00720952
0.00720937
0.00720919
0.00720898
0.00720873
0.00720844
0.0072081
0.0072077
0.00720724
0.00720672
0.00720611
0.00720541
0.00720462
0.00720371
0.00720269
0.00720154
0.00720024
0.0071988
0.00719721
0.00719548
0.0071936
0.00719152
0.00736015
0.00736231
0.00736427
0.00736608
0.00736774
0.00736923
0.00737058
0.00737178
0.00737285
0.00737379
0.00737462
0.00737535
0.00737598
0.00737653
0.00737701
0.00737742
0.00737777
0.00737807
0.00737833
0.00737856
0.00737874
0.0073789
0.00737903
0.00737914
0.00737923
0.00737931
0.00737936
0.0073794
0.00737943
0.00737944
0.00737944
0.00737943
0.0073794
0.00737936
0.00737931
0.00737923
0.00737914
0.00737903
0.0073789
0.00737874
0.00737856
0.00737833
0.00737807
0.00737777
0.00737742
0.00737701
0.00737653
0.00737598
0.00737535
0.00737462
0.00737379
0.00737285
0.00737178
0.00737058
0.00736923
0.00736774
0.00736608
0.00736427
0.00736231
0.00736015
0.00754676
0.00754903
0.00755108
0.00755297
0.0075547
0.00755626
0.00755767
0.00755893
0.00756005
0.00756103
0.0075619
0.00756266
0.00756332
0.00756389
0.00756439
0.00756482
0.00756519
0.00756551
0.00756578
0.00756601
0.00756621
0.00756638
0.00756652
0.00756663
0.00756672
0.0075668
0.00756686
0.0075669
0.00756693
0.00756694
0.00756694
0.00756693
0.0075669
0.00756686
0.0075668
0.00756672
0.00756663
0.00756652
0.00756638
0.00756621
0.00756601
0.00756578
0.00756551
0.00756519
0.00756482
0.00756439
0.00756389
0.00756332
0.00756266
0.0075619
0.00756103
0.00756005
0.00755893
0.00755767
0.00755626
0.0075547
0.00755297
0.00755108
0.00754903
0.00754676
0.00775441
0.0077568
0.00775895
0.00776093
0.00776275
0.0077644
0.00776587
0.00776719
0.00776837
0.0077694
0.00777031
0.00777111
0.0077718
0.00777241
0.00777293
0.00777338
0.00777377
0.00777411
0.00777439
0.00777464
0.00777484
0.00777502
0.00777516
0.00777529
0.00777538
0.00777546
0.00777552
0.00777557
0.0077756
0.00777561
0.00777561
0.0077756
0.00777557
0.00777552
0.00777546
0.00777538
0.00777529
0.00777516
0.00777502
0.00777484
0.00777464
0.00777439
0.00777411
0.00777377
0.00777338
0.00777293
0.00777241
0.0077718
0.00777111
0.00777031
0.0077694
0.00776837
0.00776719
0.00776587
0.0077644
0.00776275
0.00776093
0.00775895
0.0077568
0.00775441
0.00798691
0.00798943
0.0079917
0.0079938
0.00799571
0.00799745
0.00799901
0.00800041
0.00800164
0.00800274
0.0080037
0.00800454
0.00800527
0.00800591
0.00800646
0.00800694
0.00800735
0.0080077
0.00800801
0.00800826
0.00800848
0.00800867
0.00800882
0.00800895
0.00800905
0.00800914
0.0080092
0.00800925
0.00800928
0.00800929
0.00800929
0.00800928
0.00800925
0.0080092
0.00800914
0.00800905
0.00800895
0.00800882
0.00800867
0.00800848
0.00800826
0.00800801
0.0080077
0.00800735
0.00800694
0.00800646
0.00800591
0.00800527
0.00800454
0.0080037
0.00800274
0.00800164
0.00800041
0.00799901
0.00799745
0.00799571
0.0079938
0.0079917
0.00798943
0.00798691
0.00824909
0.00825176
0.00825417
0.00825639
0.00825843
0.00826027
0.00826193
0.00826341
0.00826472
0.00826588
0.0082669
0.0082678
0.00826857
0.00826925
0.00826984
0.00827035
0.00827078
0.00827116
0.00827148
0.00827175
0.00827199
0.00827218
0.00827235
0.00827248
0.00827259
0.00827268
0.00827275
0.0082728
0.00827283
0.00827285
0.00827285
0.00827283
0.0082728
0.00827275
0.00827268
0.00827259
0.00827248
0.00827235
0.00827218
0.00827199
0.00827175
0.00827148
0.00827116
0.00827078
0.00827035
0.00826984
0.00826925
0.00826857
0.0082678
0.0082669
0.00826588
0.00826472
0.00826341
0.00826193
0.00826027
0.00825843
0.00825639
0.00825417
0.00825176
0.00824909
0.00854713
0.00854999
0.00855256
0.00855494
0.00855711
0.00855908
0.00856085
0.00856243
0.00856384
0.00856508
0.00856617
0.00856712
0.00856796
0.00856868
0.00856931
0.00856985
0.00857032
0.00857072
0.00857106
0.00857136
0.00857161
0.00857182
0.00857199
0.00857214
0.00857225
0.00857235
0.00857242
0.00857248
0.00857251
0.00857253
0.00857253
0.00857251
0.00857248
0.00857242
0.00857235
0.00857225
0.00857214
0.00857199
0.00857182
0.00857161
0.00857136
0.00857106
0.00857072
0.00857032
0.00856985
0.00856931
0.00856868
0.00856796
0.00856712
0.00856617
0.00856508
0.00856384
0.00856243
0.00856085
0.00855908
0.00855711
0.00855494
0.00855256
0.00854999
0.00854713
0.00888915
0.00889223
0.008895
0.00889756
0.0088999
0.00890202
0.00890393
0.00890563
0.00890715
0.00890848
0.00890966
0.00891069
0.00891159
0.00891237
0.00891305
0.00891363
0.00891414
0.00891457
0.00891494
0.00891526
0.00891552
0.00891575
0.00891594
0.0089161
0.00891622
0.00891633
0.0089164
0.00891646
0.0089165
0.00891652
0.00891652
0.0089165
0.00891646
0.0089164
0.00891633
0.00891622
0.0089161
0.00891594
0.00891575
0.00891552
0.00891526
0.00891494
0.00891457
0.00891414
0.00891363
0.00891305
0.00891237
0.00891159
0.00891069
0.00890966
0.00890848
0.00890715
0.00890563
0.00890393
0.00890202
0.0088999
0.00889756
0.008895
0.00889223
0.00888915
0.00928598
0.00928932
0.00929233
0.00929512
0.00929766
0.00929997
0.00930205
0.0093039
0.00930555
0.009307
0.00930828
0.0093094
0.00931038
0.00931123
0.00931197
0.00931261
0.00931316
0.00931363
0.00931403
0.00931438
0.00931467
0.00931491
0.00931512
0.00931529
0.00931543
0.00931554
0.00931563
0.00931569
0.00931573
0.00931575
0.00931575
0.00931573
0.00931569
0.00931563
0.00931554
0.00931543
0.00931529
0.00931512
0.00931491
0.00931467
0.00931438
0.00931403
0.00931363
0.00931316
0.00931261
0.00931197
0.00931123
0.00931038
0.0093094
0.00930828
0.009307
0.00930555
0.0093039
0.00930205
0.00929997
0.00929766
0.00929512
0.00929233
0.00928932
0.00928598
0.00975239
0.00975606
0.00975938
0.00976244
0.00976525
0.00976779
0.00977007
0.00977212
0.00977393
0.00977553
0.00977694
0.00977818
0.00977925
0.00978019
0.009781
0.00978171
0.00978231
0.00978283
0.00978328
0.00978365
0.00978398
0.00978425
0.00978448
0.00978466
0.00978482
0.00978494
0.00978504
0.00978511
0.00978515
0.00978517
0.00978517
0.00978515
0.00978511
0.00978504
0.00978494
0.00978482
0.00978466
0.00978448
0.00978425
0.00978398
0.00978365
0.00978328
0.00978283
0.00978231
0.00978171
0.009781
0.00978019
0.00977925
0.00977818
0.00977694
0.00977553
0.00977393
0.00977212
0.00977007
0.00976779
0.00976525
0.00976244
0.00975938
0.00975606
0.00975239
0.0103091
0.0103132
0.0103169
0.0103203
0.0103234
0.0103263
0.0103288
0.0103311
0.0103331
0.0103349
0.0103365
0.0103379
0.0103391
0.0103401
0.010341
0.0103418
0.0103425
0.0103431
0.0103436
0.010344
0.0103444
0.0103447
0.0103449
0.0103451
0.0103453
0.0103454
0.0103455
0.0103456
0.0103457
0.0103457
0.0103457
0.0103457
0.0103456
0.0103455
0.0103454
0.0103453
0.0103451
0.0103449
0.0103447
0.0103444
0.010344
0.0103436
0.0103431
0.0103425
0.0103418
0.010341
0.0103401
0.0103391
0.0103379
0.0103365
0.0103349
0.0103331
0.0103311
0.0103288
0.0103263
0.0103234
0.0103203
0.0103169
0.0103132
0.0103091
0.0109857
0.0109904
0.0109946
0.0109984
0.011002
0.0110052
0.0110081
0.0110107
0.011013
0.0110151
0.0110169
0.0110184
0.0110198
0.011021
0.011022
0.0110229
0.0110237
0.0110244
0.0110249
0.0110254
0.0110258
0.0110262
0.0110265
0.0110267
0.0110269
0.011027
0.0110272
0.0110273
0.0110273
0.0110273
0.0110273
0.0110273
0.0110273
0.0110272
0.011027
0.0110269
0.0110267
0.0110265
0.0110262
0.0110258
0.0110254
0.0110249
0.0110244
0.0110237
0.0110229
0.011022
0.011021
0.0110198
0.0110184
0.0110169
0.0110151
0.011013
0.0110107
0.0110081
0.0110052
0.011002
0.0109984
0.0109946
0.0109904
0.0109857
0.0118257
0.0118311
0.0118359
0.0118404
0.0118446
0.0118483
0.0118517
0.0118547
0.0118574
0.0118598
0.0118619
0.0118637
0.0118653
0.0118667
0.0118679
0.0118689
0.0118698
0.0118706
0.0118712
0.0118718
0.0118723
0.0118727
0.011873
0.0118733
0.0118735
0.0118737
0.0118738
0.0118739
0.011874
0.011874
0.011874
0.011874
0.0118739
0.0118738
0.0118737
0.0118735
0.0118733
0.011873
0.0118727
0.0118723
0.0118718
0.0118712
0.0118706
0.0118698
0.0118689
0.0118679
0.0118667
0.0118653
0.0118637
0.0118619
0.0118598
0.0118574
0.0118547
0.0118517
0.0118483
0.0118446
0.0118404
0.0118359
0.0118311
0.0118257
0.012893
0.0128993
0.0129051
0.0129105
0.0129154
0.0129199
0.0129239
0.0129275
0.0129307
0.0129335
0.012936
0.0129382
0.0129401
0.0129417
0.0129432
0.0129444
0.0129455
0.0129464
0.0129472
0.0129478
0.0129484
0.0129489
0.0129493
0.0129496
0.0129499
0.0129501
0.0129503
0.0129504
0.0129505
0.0129505
0.0129505
0.0129505
0.0129504
0.0129503
0.0129501
0.0129499
0.0129496
0.0129493
0.0129489
0.0129484
0.0129478
0.0129472
0.0129464
0.0129455
0.0129444
0.0129432
0.0129417
0.0129401
0.0129382
0.012936
0.0129335
0.0129307
0.0129275
0.0129239
0.0129199
0.0129154
0.0129105
0.0129051
0.0128993
0.012893
0.0142802
0.0142879
0.014295
0.0143016
0.0143076
0.0143131
0.014318
0.0143224
0.0143263
0.0143298
0.0143328
0.0143355
0.0143378
0.0143398
0.0143416
0.0143431
0.0143444
0.0143455
0.0143465
0.0143473
0.014348
0.0143486
0.0143491
0.0143495
0.0143499
0.0143501
0.0143503
0.0143505
0.0143506
0.0143506
0.0143506
0.0143506
0.0143505
0.0143503
0.0143501
0.0143499
0.0143495
0.0143491
0.0143486
0.014348
0.0143473
0.0143465
0.0143455
0.0143444
0.0143431
0.0143416
0.0143398
0.0143378
0.0143355
0.0143328
0.0143298
0.0143263
0.0143224
0.014318
0.0143131
0.0143076
0.0143016
0.014295
0.0142879
0.0142802
0.0161153
0.0161249
0.0161337
0.0161419
0.0161495
0.0161563
0.0161625
0.016168
0.0161729
0.0161772
0.016181
0.0161844
0.0161873
0.0161898
0.016192
0.016194
0.0161956
0.016197
0.0161982
0.0161993
0.0162001
0.0162009
0.0162015
0.016202
0.0162024
0.0162028
0.016203
0.0162032
0.0162033
0.0162034
0.0162034
0.0162033
0.0162032
0.016203
0.0162028
0.0162024
0.016202
0.0162015
0.0162009
0.0162001
0.0161993
0.0161982
0.016197
0.0161956
0.016194
0.016192
0.0161898
0.0161873
0.0161844
0.016181
0.0161772
0.0161729
0.016168
0.0161625
0.0161563
0.0161495
0.0161419
0.0161337
0.0161249
0.0161153
0.0185574
0.0185695
0.0185807
0.0185911
0.0186007
0.0186094
0.0186172
0.0186242
0.0186304
0.0186359
0.0186408
0.018645
0.0186487
0.018652
0.0186548
0.0186572
0.0186593
0.0186611
0.0186626
0.0186639
0.018665
0.018666
0.0186668
0.0186674
0.0186679
0.0186684
0.0186687
0.0186689
0.0186691
0.0186692
0.0186692
0.0186691
0.0186689
0.0186687
0.0186684
0.0186679
0.0186674
0.0186668
0.018666
0.018665
0.0186639
0.0186626
0.0186611
0.0186593
0.0186572
0.0186548
0.018652
0.0186487
0.018645
0.0186408
0.0186359
0.0186304
0.0186242
0.0186172
0.0186094
0.0186007
0.0185911
0.0185807
0.0185695
0.0185574
0.0217742
0.0217894
0.0218036
0.0218168
0.021829
0.02184
0.0218499
0.0218588
0.0218666
0.0218736
0.0218797
0.0218851
0.0218898
0.0218939
0.0218975
0.0219006
0.0219032
0.0219055
0.0219074
0.0219091
0.0219105
0.0219117
0.0219127
0.0219135
0.0219142
0.0219147
0.0219152
0.0219155
0.0219157
0.0219158
0.0219158
0.0219157
0.0219155
0.0219152
0.0219147
0.0219142
0.0219135
0.0219127
0.0219117
0.0219105
0.0219091
0.0219074
0.0219055
0.0219032
0.0219006
0.0218975
0.0218939
0.0218898
0.0218851
0.0218797
0.0218736
0.0218666
0.0218588
0.0218499
0.02184
0.021829
0.0218168
0.0218036
0.0217894
0.0217742
0.0258967
0.0259157
0.0259334
0.0259498
0.0259649
0.0259786
0.025991
0.026002
0.0260118
0.0260205
0.0260282
0.0260349
0.0260407
0.0260458
0.0260502
0.0260541
0.0260574
0.0260602
0.0260627
0.0260647
0.0260665
0.026068
0.0260692
0.0260703
0.0260711
0.0260718
0.0260723
0.0260727
0.0260729
0.0260731
0.0260731
0.0260729
0.0260727
0.0260723
0.0260718
0.0260711
0.0260703
0.0260692
0.026068
0.0260665
0.0260647
0.0260627
0.0260602
0.0260574
0.0260541
0.0260502
0.0260458
0.0260407
0.0260349
0.0260282
0.0260205
0.0260118
0.026002
0.025991
0.0259786
0.0259649
0.0259498
0.0259334
0.0259157
0.0258967
0.0309708
0.030994
0.0310154
0.0310353
0.0310536
0.0310702
0.0310851
0.0310985
0.0311103
0.0311208
0.0311301
0.0311382
0.0311453
0.0311515
0.0311568
0.0311615
0.0311655
0.0311689
0.0311719
0.0311744
0.0311765
0.0311783
0.0311798
0.0311811
0.0311821
0.0311829
0.0311836
0.031184
0.0311843
0.0311845
0.0311845
0.0311843
0.031184
0.0311836
0.0311829
0.0311821
0.0311811
0.0311798
0.0311783
0.0311765
0.0311744
0.0311719
0.0311689
0.0311655
0.0311615
0.0311568
0.0311515
0.0311453
0.0311382
0.0311301
0.0311208
0.0311103
0.0310985
0.0310851
0.0310702
0.0310536
0.0310353
0.0310154
0.030994
0.0309708
0.0369368
0.036964
0.0369891
0.0370125
0.0370339
0.0370533
0.0370708
0.0370864
0.0371003
0.0371126
0.0371234
0.0371329
0.0371412
0.0371485
0.0371548
0.0371602
0.0371649
0.0371689
0.0371724
0.0371753
0.0371778
0.03718
0.0371817
0.0371832
0.0371844
0.0371854
0.0371861
0.0371867
0.037187
0.0371872
0.0371872
0.037187
0.0371867
0.0371861
0.0371854
0.0371844
0.0371832
0.0371817
0.03718
0.0371778
0.0371753
0.0371724
0.0371689
0.0371649
0.0371602
0.0371548
0.0371485
0.0371412
0.0371329
0.0371234
0.0371126
0.0371003
0.0370864
0.0370708
0.0370533
0.0370339
0.0370125
0.0369891
0.036964
0.0369368
0.0436531
0.0436842
0.0437129
0.0437394
0.0437637
0.0437858
0.0438056
0.0438234
0.0438391
0.0438531
0.0438654
0.0438762
0.0438857
0.0438939
0.043901
0.0439072
0.0439126
0.0439172
0.0439211
0.0439245
0.0439273
0.0439297
0.0439318
0.0439334
0.0439348
0.0439359
0.0439368
0.0439374
0.0439378
0.043938
0.043938
0.0439378
0.0439374
0.0439368
0.0439359
0.0439348
0.0439334
0.0439318
0.0439297
0.0439273
0.0439245
0.0439211
0.0439172
0.0439126
0.0439072
0.043901
0.0438939
0.0438857
0.0438762
0.0438654
0.0438531
0.0438391
0.0438234
0.0438056
0.0437858
0.0437637
0.0437394
0.0437129
0.0436842
0.0436531
0.0509506
0.0509853
0.0510172
0.0510467
0.0510736
0.051098
0.05112
0.0511397
0.0511572
0.0511727
0.0511863
0.0511983
0.0512088
0.0512179
0.0512259
0.0512327
0.0512387
0.0512438
0.0512482
0.0512519
0.0512551
0.0512578
0.05126
0.0512619
0.0512634
0.0512647
0.0512656
0.0512663
0.0512667
0.051267
0.051267
0.0512667
0.0512663
0.0512656
0.0512647
0.0512634
0.0512619
0.05126
0.0512578
0.0512551
0.0512519
0.0512482
0.0512438
0.0512387
0.0512327
0.0512259
0.0512179
0.0512088
0.0511983
0.0511863
0.0511727
0.0511572
0.0511397
0.05112
0.051098
0.0510736
0.0510467
0.0510172
0.0509853
0.0509506
0.0586793
0.0587174
0.0587523
0.0587844
0.0588137
0.0588403
0.0588643
0.0588857
0.0589048
0.0589217
0.0589366
0.0589496
0.0589611
0.0589711
0.0589797
0.0589873
0.0589937
0.0589993
0.0590041
0.0590082
0.0590117
0.0590146
0.0590171
0.0590192
0.0590209
0.0590222
0.0590232
0.059024
0.0590245
0.0590247
0.0590247
0.0590245