/*--------------------------------*- C++ -*----------------------------------*\
| =========                 |                                                 |
| \\      /  F ield         | foam-extend: Open Source CFD                    |
|  \\    /   O peration     | Version:     4.0                                |
|   \\  /    A nd           | Web:         http://www.foam-extend.org         |
|    \\/     M anipulation  |                                                 |
\*---------------------------------------------------------------------------*/
FoamFile
{
    version     2.0;
    format      ascii;
    class       volScalarField;
    location    "1610";
    object      psiE;
}
// * * * * * * * * * * * * * * * * * * * * * * * * * * * * * * * * * * * * * //

dimensions      [0 0 0 0 0 0 0];

internalField   nonuniform List<scalar> 
6960
(
0.339322
0.339329
0.339337
0.339345
0.339353
0.33936
0.339366
0.339372
0.339377
0.339381
0.339385
0.339388
0.339391
0.339394
0.339396
0.339398
0.3394
0.339402
0.339403
0.339404
0.339405
0.339406
0.339406
0.339407
0.339407
0.339408
0.339408
0.339408
0.339408
0.339408
0.339408
0.339408
0.339408
0.339408
0.339408
0.339407
0.339407
0.339406
0.339406
0.339405
0.339404
0.339403
0.339402
0.3394
0.339398
0.339396
0.339394
0.339391
0.339388
0.339385
0.339381
0.339377
0.339372
0.339366
0.33936
0.339353
0.339345
0.339337
0.339329
0.339322
0.853756
0.853784
0.853816
0.853849
0.85388
0.853909
0.853934
0.853957
0.853978
0.853996
0.854012
0.854026
0.854038
0.854048
0.854058
0.854066
0.854072
0.854078
0.854083
0.854088
0.854091
0.854095
0.854097
0.854099
0.854101
0.854103
0.854104
0.854104
0.854105
0.854105
0.854105
0.854105
0.854104
0.854104
0.854103
0.854101
0.854099
0.854097
0.854095
0.854091
0.854088
0.854083
0.854078
0.854072
0.854066
0.854058
0.854048
0.854038
0.854026
0.854012
0.853996
0.853978
0.853957
0.853934
0.853909
0.85388
0.853849
0.853816
0.853784
0.853756
1.32319
1.32324
1.3233
1.32337
1.32343
1.32349
1.32354
1.32358
1.32362
1.32366
1.32369
1.32372
1.32374
1.32376
1.32378
1.32379
1.32381
1.32382
1.32383
1.32384
1.32385
1.32385
1.32386
1.32386
1.32386
1.32387
1.32387
1.32387
1.32387
1.32387
1.32387
1.32387
1.32387
1.32387
1.32387
1.32386
1.32386
1.32386
1.32385
1.32385
1.32384
1.32383
1.32382
1.32381
1.32379
1.32378
1.32376
1.32374
1.32372
1.32369
1.32366
1.32362
1.32358
1.32354
1.32349
1.32343
1.32337
1.3233
1.32324
1.32319
1.78175
1.78183
1.78193
1.78203
1.78213
1.78222
1.7823
1.78237
1.78243
1.78248
1.78253
1.78258
1.78261
1.78265
1.78268
1.7827
1.78272
1.78274
1.78275
1.78277
1.78278
1.78279
1.7828
1.7828
1.78281
1.78281
1.78282
1.78282
1.78282
1.78282
1.78282
1.78282
1.78282
1.78282
1.78281
1.78281
1.7828
1.7828
1.78279
1.78278
1.78277
1.78275
1.78274
1.78272
1.7827
1.78268
1.78265
1.78261
1.78258
1.78253
1.78248
1.78243
1.78237
1.7823
1.78222
1.78213
1.78203
1.78193
1.78183
1.78175
2.24212
2.24223
2.24237
2.24251
2.24265
2.24277
2.24288
2.24298
2.24306
2.24314
2.24321
2.24327
2.24332
2.24337
2.2434
2.24344
2.24347
2.24349
2.24352
2.24353
2.24355
2.24356
2.24357
2.24358
2.24359
2.2436
2.2436
2.2436
2.24361
2.24361
2.24361
2.24361
2.2436
2.2436
2.2436
2.24359
2.24358
2.24357
2.24356
2.24355
2.24353
2.24352
2.24349
2.24347
2.24344
2.2434
2.24337
2.24332
2.24327
2.24321
2.24314
2.24306
2.24298
2.24288
2.24277
2.24265
2.24251
2.24237
2.24223
2.24212
2.70924
2.70939
2.70957
2.70976
2.70993
2.71008
2.71023
2.71035
2.71047
2.71057
2.71065
2.71073
2.7108
2.71086
2.71091
2.71095
2.71099
2.71102
2.71105
2.71107
2.71109
2.71111
2.71113
2.71114
2.71115
2.71116
2.71116
2.71117
2.71117
2.71117
2.71117
2.71117
2.71117
2.71116
2.71116
2.71115
2.71114
2.71113
2.71111
2.71109
2.71107
2.71105
2.71102
2.71099
2.71095
2.71091
2.71086
2.7108
2.71073
2.71065
2.71057
2.71047
2.71035
2.71023
2.71008
2.70993
2.70976
2.70957
2.70939
2.70924
3.18507
3.18525
3.18548
3.1857
3.18591
3.18611
3.18628
3.18644
3.18658
3.1867
3.18681
3.1869
3.18699
3.18706
3.18712
3.18717
3.18722
3.18726
3.1873
3.18733
3.18735
3.18737
3.18739
3.1874
3.18742
3.18743
3.18743
3.18744
3.18744
3.18744
3.18744
3.18744
3.18744
3.18743
3.18743
3.18742
3.1874
3.18739
3.18737
3.18735
3.18733
3.1873
3.18726
3.18722
3.18717
3.18712
3.18706
3.18699
3.1869
3.18681
3.1867
3.18658
3.18644
3.18628
3.18611
3.18591
3.1857
3.18548
3.18525
3.18507
3.67034
3.67056
3.67083
3.67109
3.67135
3.67158
3.67178
3.67197
3.67214
3.67228
3.67241
3.67253
3.67262
3.67271
3.67279
3.67285
3.67291
3.67295
3.673
3.67303
3.67306
3.67308
3.67311
3.67312
3.67314
3.67315
3.67316
3.67316
3.67317
3.67317
3.67317
3.67317
3.67316
3.67316
3.67315
3.67314
3.67312
3.67311
3.67308
3.67306
3.67303
3.673
3.67295
3.67291
3.67285
3.67279
3.67271
3.67262
3.67253
3.67241
3.67228
3.67214
3.67197
3.67178
3.67158
3.67135
3.67109
3.67083
3.67056
3.67034
4.16533
4.16558
4.16589
4.1662
4.16649
4.16676
4.167
4.16722
4.16741
4.16758
4.16773
4.16787
4.16798
4.16808
4.16817
4.16824
4.16831
4.16836
4.16841
4.16845
4.16849
4.16852
4.16854
4.16856
4.16858
4.16859
4.1686
4.16861
4.16861
4.16861
4.16861
4.16861
4.16861
4.1686
4.16859
4.16858
4.16856
4.16854
4.16852
4.16849
4.16845
4.16841
4.16836
4.16831
4.16824
4.16817
4.16808
4.16798
4.16787
4.16773
4.16758
4.16741
4.16722
4.167
4.16676
4.16649
4.1662
4.16589
4.16558
4.16533
4.6701
4.67038
4.67073
4.67109
4.67142
4.67173
4.672
4.67225
4.67247
4.67267
4.67284
4.67299
4.67312
4.67323
4.67333
4.67342
4.67349
4.67355
4.67361
4.67366
4.6737
4.67373
4.67376
4.67378
4.6738
4.67381
4.67383
4.67383
4.67384
4.67384
4.67384
4.67384
4.67383
4.67383
4.67381
4.6738
4.67378
4.67376
4.67373
4.6737
4.67366
4.67361
4.67355
4.67349
4.67342
4.67333
4.67323
4.67312
4.67299
4.67284
4.67267
4.67247
4.67225
4.672
4.67173
4.67142
4.67109
4.67073
4.67038
4.6701
5.18462
5.18494
5.18533
5.18573
5.18611
5.18645
5.18676
5.18704
5.18729
5.1875
5.1877
5.18787
5.18801
5.18814
5.18825
5.18835
5.18843
5.1885
5.18857
5.18862
5.18866
5.1887
5.18873
5.18876
5.18878
5.1888
5.18881
5.18882
5.18882
5.18883
5.18883
5.18882
5.18882
5.18881
5.1888
5.18878
5.18876
5.18873
5.1887
5.18866
5.18862
5.18857
5.1885
5.18843
5.18835
5.18825
5.18814
5.18801
5.18787
5.1877
5.1875
5.18729
5.18704
5.18676
5.18645
5.18611
5.18573
5.18533
5.18494
5.18462
5.70881
5.70917
5.70961
5.71005
5.71047
5.71085
5.7112
5.7115
5.71178
5.71202
5.71224
5.71242
5.71259
5.71273
5.71285
5.71296
5.71305
5.71313
5.7132
5.71326
5.71331
5.71335
5.71338
5.71341
5.71344
5.71346
5.71347
5.71348
5.71349
5.71349
5.71349
5.71349
5.71348
5.71347
5.71346
5.71344
5.71341
5.71338
5.71335
5.71331
5.71326
5.7132
5.71313
5.71305
5.71296
5.71285
5.71273
5.71259
5.71242
5.71224
5.71202
5.71178
5.7115
5.7112
5.71085
5.71047
5.71005
5.70961
5.70917
5.70881
6.24257
6.24296
6.24345
6.24393
6.24439
6.24481
6.24519
6.24553
6.24583
6.2461
6.24633
6.24654
6.24672
6.24688
6.24701
6.24713
6.24723
6.24732
6.24739
6.24746
6.24751
6.24756
6.2476
6.24763
6.24766
6.24768
6.24769
6.2477
6.24771
6.24772
6.24772
6.24771
6.2477
6.24769
6.24768
6.24766
6.24763
6.2476
6.24756
6.24751
6.24746
6.24739
6.24732
6.24723
6.24713
6.24701
6.24688
6.24672
6.24654
6.24633
6.2461
6.24583
6.24553
6.24519
6.24481
6.24439
6.24393
6.24345
6.24296
6.24257
6.78573
6.78615
6.78668
6.78721
6.78771
6.78817
6.78858
6.78895
6.78928
6.78957
6.78983
6.79005
6.79025
6.79042
6.79057
6.7907
6.79081
6.79091
6.79099
6.79106
6.79112
6.79117
6.79121
6.79124
6.79127
6.79129
6.79131
6.79132
6.79133
6.79134
6.79134
6.79133
6.79132
6.79131
6.79129
6.79127
6.79124
6.79121
6.79117
6.79112
6.79106
6.79099
6.79091
6.79081
6.7907
6.79057
6.79042
6.79025
6.79005
6.78983
6.78957
6.78928
6.78895
6.78858
6.78817
6.78771
6.78721
6.78668
6.78615
6.78573
7.33808
7.33854
7.33911
7.33968
7.34022
7.34072
7.34117
7.34157
7.34193
7.34224
7.34252
7.34276
7.34298
7.34316
7.34332
7.34346
7.34358
7.34368
7.34377
7.34385
7.34391
7.34397
7.34401
7.34405
7.34408
7.34411
7.34412
7.34414
7.34415
7.34415
7.34415
7.34415
7.34414
7.34412
7.34411
7.34408
7.34405
7.34401
7.34397
7.34391
7.34385
7.34377
7.34368
7.34358
7.34346
7.34332
7.34316
7.34298
7.34276
7.34252
7.34224
7.34193
7.34157
7.34117
7.34072
7.34022
7.33968
7.33911
7.33854
7.33808
7.89937
7.89987
7.90048
7.9011
7.90168
7.90222
7.9027
7.90313
7.90351
7.90385
7.90415
7.90442
7.90465
7.90485
7.90502
7.90517
7.9053
7.90541
7.9055
7.90559
7.90565
7.90571
7.90576
7.9058
7.90584
7.90586
7.90588
7.9059
7.90591
7.90591
7.90591
7.90591
7.9059
7.90588
7.90586
7.90584
7.9058
7.90576
7.90571
7.90565
7.90559
7.9055
7.90541
7.9053
7.90517
7.90502
7.90485
7.90465
7.90442
7.90415
7.90385
7.90351
7.90313
7.9027
7.90222
7.90168
7.9011
7.90048
7.89987
7.89937
8.46932
8.46984
8.4705
8.47116
8.47179
8.47236
8.47287
8.47334
8.47375
8.47411
8.47443
8.47471
8.47496
8.47517
8.47536
8.47552
8.47566
8.47577
8.47588
8.47596
8.47604
8.4761
8.47615
8.4762
8.47623
8.47626
8.47628
8.4763
8.47631
8.47631
8.47631
8.47631
8.4763
8.47628
8.47626
8.47623
8.4762
8.47615
8.4761
8.47604
8.47596
8.47588
8.47577
8.47566
8.47552
8.47536
8.47517
8.47496
8.47471
8.47443
8.47411
8.47375
8.47334
8.47287
8.47236
8.47179
8.47116
8.4705
8.46984
8.46932
9.04754
9.04811
9.04881
9.04951
9.05017
9.05078
9.05133
9.05182
9.05226
9.05265
9.05299
9.05329
9.05355
9.05378
9.05397
9.05415
9.05429
9.05442
9.05453
9.05462
9.0547
9.05477
9.05482
9.05487
9.05491
9.05494
9.05496
9.05498
9.05499
9.05499
9.05499
9.05499
9.05498
9.05496
9.05494
9.05491
9.05487
9.05482
9.05477
9.0547
9.05462
9.05453
9.05442
9.05429
9.05415
9.05397
9.05378
9.05355
9.05329
9.05299
9.05265
9.05226
9.05182
9.05133
9.05078
9.05017
9.04951
9.04881
9.04811
9.04754
9.63363
9.63423
9.63497
9.63571
9.63642
9.63706
9.63764
9.63817
9.63863
9.63904
9.6394
9.63972
9.64
9.64024
9.64045
9.64063
9.64078
9.64092
9.64103
9.64113
9.64121
9.64128
9.64134
9.64139
9.64143
9.64146
9.64149
9.64151
9.64152
9.64153
9.64153
9.64152
9.64151
9.64149
9.64146
9.64143
9.64139
9.64134
9.64128
9.64121
9.64113
9.64103
9.64092
9.64078
9.64063
9.64045
9.64024
9.64
9.63972
9.6394
9.63904
9.63863
9.63817
9.63764
9.63706
9.63642
9.63571
9.63497
9.63423
9.63363
10.2271
10.2277
10.2285
10.2293
10.23
10.2307
10.2313
10.2319
10.2324
10.2328
10.2332
10.2335
10.2338
10.234
10.2343
10.2345
10.2346
10.2348
10.2349
10.235
10.2351
10.2352
10.2352
10.2353
10.2353
10.2353
10.2354
10.2354
10.2354
10.2354
10.2354
10.2354
10.2354
10.2354
10.2353
10.2353
10.2353
10.2352
10.2352
10.2351
10.235
10.2349
10.2348
10.2346
10.2345
10.2343
10.234
10.2338
10.2335
10.2332
10.2328
10.2324
10.2319
10.2313
10.2307
10.23
10.2293
10.2285
10.2277
10.2271
10.8273
10.828
10.8288
10.8296
10.8304
10.8311
10.8318
10.8323
10.8328
10.8333
10.8337
10.8341
10.8344
10.8346
10.8349
10.8351
10.8352
10.8354
10.8355
10.8356
10.8357
10.8358
10.8359
10.8359
10.836
10.836
10.836
10.836
10.8361
10.8361
10.8361
10.8361
10.836
10.836
10.836
10.836
10.8359
10.8359
10.8358
10.8357
10.8356
10.8355
10.8354
10.8352
10.8351
10.8349
10.8346
10.8344
10.8341
10.8337
10.8333
10.8328
10.8323
10.8318
10.8311
10.8304
10.8296
10.8288
10.828
10.8273
11.4336
11.4343
11.4352
11.4361
11.4369
11.4376
11.4383
11.4389
11.4394
11.4399
11.4403
11.4407
11.441
11.4413
11.4415
11.4418
11.4419
11.4421
11.4422
11.4423
11.4424
11.4425
11.4426
11.4426
11.4427
11.4427
11.4428
11.4428
11.4428
11.4428
11.4428
11.4428
11.4428
11.4428
11.4427
11.4427
11.4426
11.4426
11.4425
11.4424
11.4423
11.4422
11.4421
11.4419
11.4418
11.4415
11.4413
11.441
11.4407
11.4403
11.4399
11.4394
11.4389
11.4383
11.4376
11.4369
11.4361
11.4352
11.4343
11.4336
12.0453
12.046
12.0469
12.0478
12.0487
12.0494
12.0501
12.0508
12.0513
12.0518
12.0523
12.0526
12.053
12.0533
12.0535
12.0537
12.0539
12.0541
12.0542
12.0544
12.0545
12.0545
12.0546
12.0547
12.0547
12.0548
12.0548
12.0548
12.0548
12.0548
12.0548
12.0548
12.0548
12.0548
12.0548
12.0547
12.0547
12.0546
12.0545
12.0545
12.0544
12.0542
12.0541
12.0539
12.0537
12.0535
12.0533
12.053
12.0526
12.0523
12.0518
12.0513
12.0508
12.0501
12.0494
12.0487
12.0478
12.0469
12.046
12.0453
12.6614
12.6621
12.663
12.664
12.6649
12.6657
12.6664
12.667
12.6676
12.6681
12.6686
12.669
12.6693
12.6697
12.6699
12.6701
12.6703
12.6705
12.6707
12.6708
12.6709
12.671
12.671
12.6711
12.6712
12.6712
12.6712
12.6712
12.6713
12.6713
12.6713
12.6713
12.6712
12.6712
12.6712
12.6712
12.6711
12.671
12.671
12.6709
12.6708
12.6707
12.6705
12.6703
12.6701
12.6699
12.6697
12.6693
12.669
12.6686
12.6681
12.6676
12.667
12.6664
12.6657
12.6649
12.664
12.663
12.6621
12.6614
13.2808
13.2816
13.2825
13.2835
13.2844
13.2853
13.286
13.2867
13.2873
13.2878
13.2883
13.2887
13.2891
13.2894
13.2897
13.2899
13.2901
13.2903
13.2904
13.2906
13.2907
13.2908
13.2908
13.2909
13.2909
13.291
13.291
13.291
13.2911
13.2911
13.2911
13.2911
13.291
13.291
13.291
13.2909
13.2909
13.2908
13.2908
13.2907
13.2906
13.2904
13.2903
13.2901
13.2899
13.2897
13.2894
13.2891
13.2887
13.2883
13.2878
13.2873
13.2867
13.286
13.2853
13.2844
13.2835
13.2825
13.2816
13.2808
13.9024
13.9032
13.9042
13.9052
13.9062
13.907
13.9078
13.9085
13.9091
13.9097
13.9102
13.9106
13.911
13.9113
13.9116
13.9118
13.912
13.9122
13.9124
13.9125
13.9126
13.9127
13.9128
13.9128
13.9129
13.9129
13.913
13.913
13.913
13.913
13.913
13.913
13.913
13.913
13.9129
13.9129
13.9128
13.9128
13.9127
13.9126
13.9125
13.9124
13.9122
13.912
13.9118
13.9116
13.9113
13.911
13.9106
13.9102
13.9097
13.9091
13.9085
13.9078
13.907
13.9062
13.9052
13.9042
13.9032
13.9024
14.5249
14.5257
14.5267
14.5278
14.5287
14.5296
14.5304
14.5311
14.5318
14.5323
14.5328
14.5332
14.5336
14.534
14.5342
14.5345
14.5347
14.5349
14.5351
14.5352
14.5353
14.5354
14.5355
14.5356
14.5356
14.5357
14.5357
14.5357
14.5357
14.5357
14.5357
14.5357
14.5357
14.5357
14.5357
14.5356
14.5356
14.5355
14.5354
14.5353
14.5352
14.5351
14.5349
14.5347
14.5345
14.5342
14.534
14.5336
14.5332
14.5328
14.5323
14.5318
14.5311
14.5304
14.5296
14.5287
14.5278
14.5267
14.5257
14.5249
15.1465
15.1474
15.1484
15.1495
15.1505
15.1514
15.1522
15.1529
15.1536
15.1541
15.1547
15.1551
15.1555
15.1558
15.1561
15.1564
15.1566
15.1568
15.1569
15.1571
15.1572
15.1573
15.1574
15.1575
15.1575
15.1576
15.1576
15.1576
15.1576
15.1576
15.1576
15.1576
15.1576
15.1576
15.1576
15.1575
15.1575
15.1574
15.1573
15.1572
15.1571
15.1569
15.1568
15.1566
15.1564
15.1561
15.1558
15.1555
15.1551
15.1547
15.1541
15.1536
15.1529
15.1522
15.1514
15.1505
15.1495
15.1484
15.1474
15.1465
15.7656
15.7665
15.7675
15.7686
15.7696
15.7705
15.7714
15.7721
15.7728
15.7733
15.7739
15.7743
15.7747
15.7751
15.7754
15.7756
15.7758
15.776
15.7762
15.7763
15.7765
15.7766
15.7766
15.7767
15.7768
15.7768
15.7768
15.7769
15.7769
15.7769
15.7769
15.7769
15.7769
15.7768
15.7768
15.7768
15.7767
15.7766
15.7766
15.7765
15.7763
15.7762
15.776
15.7758
15.7756
15.7754
15.7751
15.7747
15.7743
15.7739
15.7733
15.7728
15.7721
15.7714
15.7705
15.7696
15.7686
15.7675
15.7665
15.7656
16.38
16.3808
16.3819
16.383
16.384
16.3849
16.3858
16.3865
16.3872
16.3878
16.3883
16.3888
16.3892
16.3895
16.3898
16.3901
16.3903
16.3905
16.3907
16.3908
16.3909
16.391
16.3911
16.3912
16.3912
16.3913
16.3913
16.3914
16.3914
16.3914
16.3914
16.3914
16.3914
16.3913
16.3913
16.3912
16.3912
16.3911
16.391
16.3909
16.3908
16.3907
16.3905
16.3903
16.3901
16.3898
16.3895
16.3892
16.3888
16.3883
16.3878
16.3872
16.3865
16.3858
16.3849
16.384
16.383
16.3819
16.3808
16.38
16.9871
16.988
16.9891
16.9902
16.9912
16.9921
16.993
16.9937
16.9944
16.995
16.9955
16.996
16.9964
16.9967
16.997
16.9973
16.9975
16.9977
16.9979
16.998
16.9982
16.9983
16.9984
16.9984
16.9985
16.9985
16.9986
16.9986
16.9986
16.9986
16.9986
16.9986
16.9986
16.9986
16.9985
16.9985
16.9984
16.9984
16.9983
16.9982
16.998
16.9979
16.9977
16.9975
16.9973
16.997
16.9967
16.9964
16.996
16.9955
16.995
16.9944
16.9937
16.993
16.9921
16.9912
16.9902
16.9891
16.988
16.9871
17.5843
17.5852
17.5862
17.5873
17.5883
17.5893
17.5901
17.5909
17.5915
17.5921
17.5927
17.5931
17.5935
17.5939
17.5942
17.5944
17.5947
17.5949
17.595
17.5952
17.5953
17.5954
17.5955
17.5955
17.5956
17.5957
17.5957
17.5957
17.5957
17.5957
17.5957
17.5957
17.5957
17.5957
17.5957
17.5956
17.5955
17.5955
17.5954
17.5953
17.5952
17.595
17.5949
17.5947
17.5944
17.5942
17.5939
17.5935
17.5931
17.5927
17.5921
17.5915
17.5909
17.5901
17.5893
17.5883
17.5873
17.5862
17.5852
17.5843
18.168
18.1689
18.17
18.1711
18.1721
18.173
18.1738
18.1746
18.1752
18.1758
18.1763
18.1768
18.1772
18.1775
18.1778
18.1781
18.1783
18.1785
18.1787
18.1788
18.1789
18.179
18.1791
18.1792
18.1792
18.1793
18.1793
18.1794
18.1794
18.1794
18.1794
18.1794
18.1794
18.1793
18.1793
18.1792
18.1792
18.1791
18.179
18.1789
18.1788
18.1787
18.1785
18.1783
18.1781
18.1778
18.1775
18.1772
18.1768
18.1763
18.1758
18.1752
18.1746
18.1738
18.173
18.1721
18.1711
18.17
18.1689
18.168
18.7344
18.7353
18.7363
18.7374
18.7384
18.7393
18.7401
18.7408
18.7415
18.742
18.7426
18.743
18.7434
18.7437
18.744
18.7443
18.7445
18.7447
18.7448
18.745
18.7451
18.7452
18.7453
18.7454
18.7454
18.7455
18.7455
18.7455
18.7455
18.7455
18.7455
18.7455
18.7455
18.7455
18.7455
18.7454
18.7454
18.7453
18.7452
18.7451
18.745
18.7448
18.7447
18.7445
18.7443
18.744
18.7437
18.7434
18.743
18.7426
18.742
18.7415
18.7408
18.7401
18.7393
18.7384
18.7374
18.7363
18.7353
18.7344
19.2787
19.2796
19.2806
19.2816
19.2826
19.2834
19.2842
19.2849
19.2856
19.2861
19.2866
19.287
19.2874
19.2877
19.288
19.2883
19.2885
19.2887
19.2888
19.289
19.2891
19.2892
19.2893
19.2893
19.2894
19.2894
19.2895
19.2895
19.2895
19.2895
19.2895
19.2895
19.2895
19.2895
19.2894
19.2894
19.2893
19.2893
19.2892
19.2891
19.289
19.2888
19.2887
19.2885
19.2883
19.288
19.2877
19.2874
19.287
19.2866
19.2861
19.2856
19.2849
19.2842
19.2834
19.2826
19.2816
19.2806
19.2796
19.2787
19.7954
19.7962
19.7972
19.7981
19.799
19.7999
19.8006
19.8013
19.8019
19.8024
19.8029
19.8033
19.8037
19.804
19.8042
19.8045
19.8047
19.8048
19.805
19.8051
19.8052
19.8053
19.8054
19.8055
19.8055
19.8056
19.8056
19.8056
19.8056
19.8056
19.8056
19.8056
19.8056
19.8056
19.8056
19.8055
19.8055
19.8054
19.8053
19.8052
19.8051
19.805
19.8048
19.8047
19.8045
19.8042
19.804
19.8037
19.8033
19.8029
19.8024
19.8019
19.8013
19.8006
19.7999
19.799
19.7981
19.7972
19.7962
19.7954
20.2778
20.2786
20.2795
20.2804
20.2812
20.282
20.2827
20.2833
20.2839
20.2844
20.2848
20.2852
20.2855
20.2858
20.2861
20.2863
20.2865
20.2866
20.2868
20.2869
20.287
20.2871
20.2871
20.2872
20.2873
20.2873
20.2873
20.2873
20.2874
20.2874
20.2874
20.2874
20.2873
20.2873
20.2873
20.2873
20.2872
20.2871
20.2871
20.287
20.2869
20.2868
20.2866
20.2865
20.2863
20.2861
20.2858
20.2855
20.2852
20.2848
20.2844
20.2839
20.2833
20.2827
20.282
20.2812
20.2804
20.2795
20.2786
20.2778
20.7188
20.7194
20.7203
20.7211
20.7218
20.7225
20.7231
20.7237
20.7242
20.7246
20.725
20.7254
20.7257
20.7259
20.7262
20.7264
20.7265
20.7267
20.7268
20.7269
20.727
20.7271
20.7271
20.7272
20.7272
20.7273
20.7273
20.7273
20.7273
20.7274
20.7274
20.7273
20.7273
20.7273
20.7273
20.7272
20.7272
20.7271
20.7271
20.727
20.7269
20.7268
20.7267
20.7265
20.7264
20.7262
20.7259
20.7257
20.7254
20.725
20.7246
20.7242
20.7237
20.7231
20.7225
20.7218
20.7211
20.7203
20.7194
20.7188
21.1108
21.1114
21.1121
21.1128
21.1135
21.1141
21.1146
21.1151
21.1155
21.1159
21.1163
21.1166
21.1168
21.1171
21.1173
21.1174
21.1176
21.1177
21.1178
21.1179
21.118
21.118
21.1181
21.1182
21.1182
21.1182
21.1182
21.1183
21.1183
21.1183
21.1183
21.1183
21.1183
21.1182
21.1182
21.1182
21.1182
21.1181
21.118
21.118
21.1179
21.1178
21.1177
21.1176
21.1174
21.1173
21.1171
21.1168
21.1166
21.1163
21.1159
21.1155
21.1151
21.1146
21.1141
21.1135
21.1128
21.1121
21.1114
21.1108
21.4483
21.4488
21.4493
21.4499
21.4505
21.451
21.4514
21.4518
21.4522
21.4525
21.4528
21.453
21.4532
21.4534
21.4536
21.4537
21.4539
21.454
21.4541
21.4541
21.4542
21.4543
21.4543
21.4543
21.4544
21.4544
21.4544
21.4544
21.4544
21.4544
21.4544
21.4544
21.4544
21.4544
21.4544
21.4544
21.4543
21.4543
21.4543
21.4542
21.4541
21.4541
21.454
21.4539
21.4537
21.4536
21.4534
21.4532
21.453
21.4528
21.4525
21.4522
21.4518
21.4514
21.451
21.4505
21.4499
21.4493
21.4488
21.4483
21.729
21.7293
21.7298
21.7302
21.7307
21.7311
21.7314
21.7317
21.732
21.7323
21.7325
21.7327
21.7329
21.733
21.7331
21.7333
21.7333
21.7334
21.7335
21.7336
21.7336
21.7337
21.7337
21.7337
21.7338
21.7338
21.7338
21.7338
21.7338
21.7338
21.7338
21.7338
21.7338
21.7338
21.7338
21.7338
21.7337
21.7337
21.7337
21.7336
21.7336
21.7335
21.7334
21.7333
21.7333
21.7331
21.733
21.7329
21.7327
21.7325
21.7323
21.732
21.7317
21.7314
21.7311
21.7307
21.7302
21.7298
21.7293
21.729
21.9558
21.956
21.9564
21.9567
21.957
21.9573
21.9576
21.9578
21.9581
21.9582
21.9584
21.9586
21.9587
21.9588
21.9589
21.959
21.9591
21.9591
21.9592
21.9592
21.9593
21.9593
21.9593
21.9594
21.9594
21.9594
21.9594
21.9594
21.9594
21.9594
21.9594
21.9594
21.9594
21.9594
21.9594
21.9594
21.9594
21.9593
21.9593
21.9593
21.9592
21.9592
21.9591
21.9591
21.959
21.9589
21.9588
21.9587
21.9586
21.9584
21.9582
21.9581
21.9578
21.9576
21.9573
21.957
21.9567
21.9564
21.956
21.9558
22.1362
22.1364
22.1366
22.1368
22.1371
22.1373
22.1375
22.1377
22.1378
22.138
22.1381
22.1382
22.1383
22.1384
22.1384
22.1385
22.1386
22.1386
22.1386
22.1387
22.1387
22.1387
22.1388
22.1388
22.1388
22.1388
22.1388
22.1388
22.1388
22.1388
22.1388
22.1388
22.1388
22.1388
22.1388
22.1388
22.1388
22.1388
22.1387
22.1387
22.1387
22.1386
22.1386
22.1386
22.1385
22.1384
22.1384
22.1383
22.1382
22.1381
22.138
22.1378
22.1377
22.1375
22.1373
22.1371
22.1368
22.1366
22.1364
22.1362
22.28
22.2801
22.2803
22.2805
22.2806
22.2808
22.2809
22.281
22.2812
22.2813
22.2813
22.2814
22.2815
22.2816
22.2816
22.2817
22.2817
22.2817
22.2818
22.2818
22.2818
22.2818
22.2818
22.2819
22.2819
22.2819
22.2819
22.2819
22.2819
22.2819
22.2819
22.2819
22.2819
22.2819
22.2819
22.2819
22.2819
22.2818
22.2818
22.2818
22.2818
22.2818
22.2817
22.2817
22.2817
22.2816
22.2816
22.2815
22.2814
22.2813
22.2813
22.2812
22.281
22.2809
22.2808
22.2806
22.2805
22.2803
22.2801
22.28
22.3969
22.3969
22.3971
22.3972
22.3973
22.3974
22.3975
22.3976
22.3977
22.3977
22.3978
22.3979
22.3979
22.398
22.398
22.398
22.3981
22.3981
22.3981
22.3981
22.3981
22.3982
22.3982
22.3982
22.3982
22.3982
22.3982
22.3982
22.3982
22.3982
22.3982
22.3982
22.3982
22.3982
22.3982
22.3982
22.3982
22.3982
22.3982
22.3981
22.3981
22.3981
22.3981
22.3981
22.398
22.398
22.398
22.3979
22.3979
22.3978
22.3977
22.3977
22.3976
22.3975
22.3974
22.3973
22.3972
22.3971
22.3969
22.3969
22.4946
22.4946
22.4947
22.4948
22.4948
22.4949
22.495
22.495
22.4951
22.4952
22.4952
22.4952
22.4953
22.4953
22.4953
22.4954
22.4954
22.4954
22.4954
22.4954
22.4955
22.4955
22.4955
22.4955
22.4955
22.4955
22.4955
22.4955
22.4955
22.4955
22.4955
22.4955
22.4955
22.4955
22.4955
22.4955
22.4955
22.4955
22.4955
22.4955
22.4954
22.4954
22.4954
22.4954
22.4954
22.4953
22.4953
22.4953
22.4952
22.4952
22.4952
22.4951
22.495
22.495
22.4949
22.4948
22.4948
22.4947
22.4946
22.4946
22.5786
22.5787
22.5787
22.5788
22.5788
22.5789
22.5789
22.579
22.579
22.5791
22.5791
22.5791
22.5792
22.5792
22.5792
22.5792
22.5792
22.5793
22.5793
22.5793
22.5793
22.5793
22.5793
22.5793
22.5793
22.5793
22.5793
22.5793
22.5793
22.5793
22.5793
22.5793
22.5793
22.5793
22.5793
22.5793
22.5793
22.5793
22.5793
22.5793
22.5793
22.5793
22.5793
22.5792
22.5792
22.5792
22.5792
22.5792
22.5791
22.5791
22.5791
22.579
22.579
22.5789
22.5789
22.5788
22.5788
22.5787
22.5787
22.5786
22.6529
22.6529
22.6529
22.653
22.653
22.6531
22.6531
22.6531
22.6531
22.6532
22.6532
22.6532
22.6532
22.6533
22.6533
22.6533
22.6533
22.6533
22.6533
22.6533
22.6533
22.6534
22.6534
22.6534
22.6534
22.6534
22.6534
22.6534
22.6534
22.6534
22.6534
22.6534
22.6534
22.6534
22.6534
22.6534
22.6534
22.6534
22.6534
22.6533
22.6533
22.6533
22.6533
22.6533
22.6533
22.6533
22.6533
22.6532
22.6532
22.6532
22.6532
22.6531
22.6531
22.6531
22.6531
22.653
22.653
22.6529
22.6529
22.6529
22.7198
22.7198
22.7198
22.7198
22.7198
22.7199
22.7199
22.7199
22.7199
22.7199
22.72
22.72
22.72
22.72
22.72
22.72
22.72
22.72
22.7201
22.7201
22.7201
22.7201
22.7201
22.7201
22.7201
22.7201
22.7201
22.7201
22.7201
22.7201
22.7201
22.7201
22.7201
22.7201
22.7201
22.7201
22.7201
22.7201
22.7201
22.7201
22.7201
22.7201
22.72
22.72
22.72
22.72
22.72
22.72
22.72
22.72
22.7199
22.7199
22.7199
22.7199
22.7199
22.7198
22.7198
22.7198
22.7198
22.7198
22.7809
22.7809
22.7809
22.7809
22.7809
22.7809
22.781
22.781
22.781
22.781
22.781
22.781
22.781
22.781
22.7811
22.7811
22.7811
22.7811
22.7811
22.7811
22.7811
22.7811
22.7811
22.7811
22.7811
22.7811
22.7811
22.7811
22.7811
22.7811
22.7811
22.7811
22.7811
22.7811
22.7811
22.7811
22.7811
22.7811
22.7811
22.7811
22.7811
22.7811
22.7811
22.7811
22.7811
22.7811
22.781
22.781
22.781
22.781
22.781
22.781
22.781
22.781
22.7809
22.7809
22.7809
22.7809
22.7809
22.7809
22.8374
22.8374
22.8374
22.8374
22.8374
22.8374
22.8375
22.8375
22.8375
22.8375
22.8375
22.8375
22.8375
22.8375
22.8375
22.8375
22.8375
22.8375
22.8375
22.8376
22.8376
22.8376
22.8376
22.8376
22.8376
22.8376
22.8376
22.8376
22.8376
22.8376
22.8376
22.8376
22.8376
22.8376
22.8376
22.8376
22.8376
22.8376
22.8376
22.8376
22.8376
22.8375
22.8375
22.8375
22.8375
22.8375
22.8375
22.8375
22.8375
22.8375
22.8375
22.8375
22.8375
22.8375
22.8374
22.8374
22.8374
22.8374
22.8374
22.8374
22.8902
22.8902
22.8902
22.8902
22.8902
22.8902
22.8902
22.8902
22.8902
22.8902
22.8902
22.8902
22.8902
22.8902
22.8902
22.8903
22.8903
22.8903
22.8903
22.8903
22.8903
22.8903
22.8903
22.8903
22.8903
22.8903
22.8903
22.8903
22.8903
22.8903
22.8903
22.8903
22.8903
22.8903
22.8903
22.8903
22.8903
22.8903
22.8903
22.8903
22.8903
22.8903
22.8903
22.8903
22.8903
22.8902
22.8902
22.8902
22.8902
22.8902
22.8902
22.8902
22.8902
22.8902
22.8902
22.8902
22.8902
22.8902
22.8902
22.8902
22.9399
22.9399
22.9399
22.9398
22.9398
22.9398
22.9398
22.9398
22.9398
22.9398
22.9398
22.9399
22.9399
22.9399
22.9399
22.9399
22.9399
22.9399
22.9399
22.9399
22.9399
22.9399
22.9399
22.9399
22.9399
22.9399
22.9399
22.9399
22.9399
22.9399
22.9399
22.9399
22.9399
22.9399
22.9399
22.9399
22.9399
22.9399
22.9399
22.9399
22.9399
22.9399
22.9399
22.9399
22.9399
22.9399
22.9399
22.9399
22.9399
22.9398
22.9398
22.9398
22.9398
22.9398
22.9398
22.9398
22.9398
22.9399
22.9399
22.9399
22.9869
22.9869
22.9869
22.9869
22.9868
22.9868
22.9868
22.9868
22.9868
22.9868
22.9868
22.9868
22.9868
22.9868
22.9868
22.9868
22.9868
22.9868
22.9869
22.9869
22.9869
22.9869
22.9869
22.9869
22.9869
22.9869
22.9869
22.9869
22.9869
22.9869
22.9869
22.9869
22.9869
22.9869
22.9869
22.9869
22.9869
22.9869
22.9869
22.9869
22.9869
22.9869
22.9868
22.9868
22.9868
22.9868
22.9868
22.9868
22.9868
22.9868
22.9868
22.9868
22.9868
22.9868
22.9868
22.9868
22.9869
22.9869
22.9869
22.9869
23.0316
23.0316
23.0316
23.0316
23.0316
23.0316
23.0316
23.0316
23.0316
23.0316
23.0316
23.0316
23.0316
23.0316
23.0316
23.0316
23.0316
23.0316
23.0316
23.0316
23.0316
23.0316
23.0316
23.0316
23.0316
23.0316
23.0316
23.0316
23.0316
23.0316
23.0316
23.0316
23.0316
23.0316
23.0316
23.0316
23.0316
23.0316
23.0316
23.0316
23.0316
23.0316
23.0316
23.0316
23.0316
23.0316
23.0316
23.0316
23.0316
23.0316
23.0316
23.0316
23.0316
23.0316
23.0316
23.0316
23.0316
23.0316
23.0316
23.0316
23.0744
23.0744
23.0744
23.0744
23.0744
23.0744
23.0744
23.0744
23.0743
23.0743
23.0743
23.0743
23.0743
23.0743
23.0743
23.0743
23.0743
23.0743
23.0743
23.0743
23.0744
23.0744
23.0744
23.0744
23.0744
23.0744
23.0744
23.0744
23.0744
23.0744
23.0744
23.0744
23.0744
23.0744
23.0744
23.0744
23.0744
23.0744
23.0744
23.0744
23.0743
23.0743
23.0743
23.0743
23.0743
23.0743
23.0743
23.0743
23.0743
23.0743
23.0743
23.0743
23.0744
23.0744
23.0744
23.0744
23.0744
23.0744
23.0744
23.0744
23.1155
23.1155
23.1155
23.1155
23.1155
23.1155
23.1155
23.1154
23.1154
23.1154
23.1154
23.1154
23.1154
23.1154
23.1154
23.1154
23.1154
23.1154
23.1154
23.1154
23.1154
23.1154
23.1154
23.1154
23.1154
23.1154
23.1154
23.1154
23.1154
23.1154
23.1154
23.1154
23.1154
23.1154
23.1154
23.1154
23.1154
23.1154
23.1154
23.1154
23.1154
23.1154
23.1154
23.1154
23.1154
23.1154
23.1154
23.1154
23.1154
23.1154
23.1154
23.1154
23.1154
23.1155
23.1155
23.1155
23.1155
23.1155
23.1155
23.1155
23.1552
23.1552
23.1551
23.1551
23.1551
23.1551
23.1551
23.1551
23.155
23.155
23.155
23.155
23.155
23.155
23.155
23.155
23.155
23.155
23.155
23.155
23.155
23.155
23.155
23.155
23.155
23.155
23.155
23.1551
23.1551
23.1551
23.1551
23.1551
23.1551
23.155
23.155
23.155
23.155
23.155
23.155
23.155
23.155
23.155
23.155
23.155
23.155
23.155
23.155
23.155
23.155
23.155
23.155
23.155
23.1551
23.1551
23.1551
23.1551
23.1551
23.1551
23.1552
23.1552
23.1935
23.1935
23.1934
23.1934
23.1934
23.1934
23.1934
23.1934
23.1934
23.1933
23.1933
23.1933
23.1933
23.1933
23.1933
23.1933
23.1933
23.1933
23.1933
23.1933
23.1933
23.1933
23.1933
23.1933
23.1933
23.1934
23.1934
23.1934
23.1934
23.1934
23.1934
23.1934
23.1934
23.1934
23.1934
23.1933
23.1933
23.1933
23.1933
23.1933
23.1933
23.1933
23.1933
23.1933
23.1933
23.1933
23.1933
23.1933
23.1933
23.1933
23.1933
23.1934
23.1934
23.1934
23.1934
23.1934
23.1934
23.1934
23.1935
23.1935
23.2306
23.2306
23.2306
23.2306
23.2306
23.2305
23.2305
23.2305
23.2305
23.2305
23.2305
23.2305
23.2305
23.2305
23.2305
23.2305
23.2305
23.2305
23.2305
23.2305
23.2305
23.2305
23.2305
23.2305
23.2305
23.2305
23.2305
23.2305
23.2305
23.2305
23.2305
23.2305
23.2305
23.2305
23.2305
23.2305
23.2305
23.2305
23.2305
23.2305
23.2305
23.2305
23.2305
23.2305
23.2305
23.2305
23.2305
23.2305
23.2305
23.2305
23.2305
23.2305
23.2305
23.2305
23.2305
23.2306
23.2306
23.2306
23.2306
23.2306
23.2668
23.2668
23.2667
23.2667
23.2667
23.2667
23.2667
23.2667
23.2666
23.2666
23.2666
23.2666
23.2666
23.2666
23.2666
23.2666
23.2666
23.2666
23.2666
23.2666
23.2666
23.2666
23.2666
23.2666
23.2666
23.2666
23.2666
23.2666
23.2666
23.2666
23.2666
23.2666
23.2666
23.2666
23.2666
23.2666
23.2666
23.2666
23.2666
23.2666
23.2666
23.2666
23.2666
23.2666
23.2666
23.2666
23.2666
23.2666
23.2666
23.2666
23.2666
23.2666
23.2667
23.2667
23.2667
23.2667
23.2667
23.2667
23.2668
23.2668
23.302
23.302
23.302
23.3019
23.3019
23.3019
23.3019
23.3019
23.3019
23.3019
23.3019
23.3018
23.3018
23.3018