/*--------------------------------*- C++ -*----------------------------------*\
| =========                 |                                                 |
| \\      /  F ield         | foam-extend: Open Source CFD                    |
|  \\    /   O peration     | Version:     4.0                                |
|   \\  /    A nd           | Web:         http://www.foam-extend.org         |
|    \\/     M anipulation  |                                                 |
\*---------------------------------------------------------------------------*/
FoamFile
{
    version     2.0;
    format      ascii;
    class       volScalarField;
    location    "440";
    object      psiE;
}
// * * * * * * * * * * * * * * * * * * * * * * * * * * * * * * * * * * * * * //

dimensions      [0 0 0 0 0 0 0];

internalField   nonuniform List<scalar> 
6960
(
0.415351
0.415403
0.415429
0.415441
0.415446
0.415449
0.41545
0.415451
0.415452
0.415453
0.415454
0.415455
0.415456
0.415456
0.415457
0.415458
0.415459
0.415459
0.41546
0.415461
0.415461
0.415462
0.415462
0.415463
0.415463
0.415463
0.415463
0.415464
0.415464
0.415464
0.415464
0.415464
0.415464
0.415463
0.415463
0.415463
0.415463
0.415462
0.415462
0.415461
0.415461
0.41546
0.415459
0.415459
0.415458
0.415457
0.415456
0.415456
0.415455
0.415454
0.415453
0.415452
0.415451
0.41545
0.415449
0.415446
0.415441
0.415429
0.415403
0.415351
1.15877
1.15898
1.15908
1.15913
1.15915
1.15916
1.15916
1.15917
1.15917
1.15917
1.15917
1.15918
1.15918
1.15918
1.15918
1.15919
1.15919
1.15919
1.15919
1.15919
1.1592
1.1592
1.1592
1.1592
1.1592
1.1592
1.1592
1.1592
1.1592
1.1592
1.1592
1.1592
1.1592
1.1592
1.1592
1.1592
1.1592
1.1592
1.1592
1.1592
1.15919
1.15919
1.15919
1.15919
1.15919
1.15918
1.15918
1.15918
1.15918
1.15917
1.15917
1.15917
1.15917
1.15916
1.15916
1.15915
1.15913
1.15908
1.15898
1.15877
1.89715
1.89752
1.89771
1.8978
1.89783
1.89785
1.89786
1.89787
1.89787
1.89788
1.89788
1.89788
1.89789
1.89789
1.8979
1.8979
1.8979
1.89791
1.89791
1.89791
1.89792
1.89792
1.89792
1.89792
1.89792
1.89793
1.89793
1.89793
1.89793
1.89793
1.89793
1.89793
1.89793
1.89793
1.89793
1.89792
1.89792
1.89792
1.89792
1.89792
1.89791
1.89791
1.89791
1.8979
1.8979
1.8979
1.89789
1.89789
1.89788
1.89788
1.89788
1.89787
1.89787
1.89786
1.89785
1.89783
1.8978
1.89771
1.89752
1.89715
2.63981
2.64034
2.64061
2.64074
2.64079
2.64082
2.64083
2.64084
2.64085
2.64085
2.64086
2.64086
2.64087
2.64088
2.64088
2.64089
2.64089
2.6409
2.6409
2.64091
2.64091
2.64091
2.64092
2.64092
2.64092
2.64092
2.64092
2.64093
2.64093
2.64093
2.64093
2.64093
2.64093
2.64092
2.64092
2.64092
2.64092
2.64092
2.64091
2.64091
2.64091
2.6409
2.6409
2.64089
2.64089
2.64088
2.64088
2.64087
2.64086
2.64086
2.64085
2.64085
2.64084
2.64083
2.64082
2.64079
2.64074
2.64061
2.64034
2.63981
3.38715
3.38784
3.3882
3.38836
3.38843
3.38846
3.38848
3.38849
3.3885
3.38851
3.38851
3.38852
3.38853
3.38854
3.38854
3.38855
3.38856
3.38856
3.38857
3.38857
3.38858
3.38858
3.38859
3.38859
3.38859
3.3886
3.3886
3.3886
3.3886
3.3886
3.3886
3.3886
3.3886
3.3886
3.3886
3.38859
3.38859
3.38859
3.38858
3.38858
3.38857
3.38857
3.38856
3.38856
3.38855
3.38854
3.38854
3.38853
3.38852
3.38851
3.38851
3.3885
3.38849
3.38848
3.38846
3.38843
3.38836
3.3882
3.38784
3.38715
4.1381
4.13894
4.13938
4.13958
4.13967
4.13971
4.13973
4.13974
4.13976
4.13976
4.13977
4.13978
4.13979
4.1398
4.13981
4.13982
4.13983
4.13983
4.13984
4.13985
4.13985
4.13986
4.13986
4.13987
4.13987
4.13988
4.13988
4.13988
4.13988
4.13988
4.13988
4.13988
4.13988
4.13988
4.13988
4.13987
4.13987
4.13986
4.13986
4.13985
4.13985
4.13984
4.13983
4.13983
4.13982
4.13981
4.1398
4.13979
4.13978
4.13977
4.13976
4.13976
4.13974
4.13973
4.13971
4.13967
4.13958
4.13938
4.13894
4.1381
4.8912
4.8922
4.89272
4.89295
4.89305
4.8931
4.89313
4.89314
4.89315
4.89317
4.89318
4.89319
4.8932
4.89321
4.89322
4.89323
4.89324
4.89325
4.89326
4.89326
4.89327
4.89328
4.89328
4.89329
4.89329
4.8933
4.8933
4.8933
4.8933
4.8933
4.8933
4.8933
4.8933
4.8933
4.8933
4.89329
4.89329
4.89328
4.89328
4.89327
4.89326
4.89326
4.89325
4.89324
4.89323
4.89322
4.89321
4.8932
4.89319
4.89318
4.89317
4.89315
4.89314
4.89313
4.8931
4.89305
4.89295
4.89272
4.8922
4.8912
5.64475
5.64589
5.64648
5.64675
5.64687
5.64692
5.64695
5.64697
5.64698
5.647
5.64701
5.64702
5.64703
5.64705
5.64706
5.64707
5.64708
5.64709
5.6471
5.64711
5.64712
5.64713
5.64713
5.64714
5.64714
5.64715
5.64715
5.64715
5.64715
5.64716
5.64716
5.64715
5.64715
5.64715
5.64715
5.64714
5.64714
5.64713
5.64713
5.64712
5.64711
5.6471
5.64709
5.64708
5.64707
5.64706
5.64705
5.64703
5.64702
5.64701
5.647
5.64698
5.64697
5.64695
5.64692
5.64687
5.64675
5.64648
5.64589
5.64475
6.39678
6.39804
6.39871
6.39901
6.39914
6.3992
6.39923
6.39925
6.39927
6.39928
6.3993
6.39931
6.39932
6.39934
6.39935
6.39937
6.39938
6.39939
6.3994
6.39941
6.39942
6.39943
6.39944
6.39944
6.39945
6.39945
6.39946
6.39946
6.39946
6.39946
6.39946
6.39946
6.39946
6.39946
6.39945
6.39945
6.39944
6.39944
6.39943
6.39942
6.39941
6.3994
6.39939
6.39938
6.39937
6.39935
6.39934
6.39932
6.39931
6.3993
6.39928
6.39927
6.39925
6.39923
6.3992
6.39914
6.39901
6.39871
6.39804
6.39678
7.145
7.14639
7.14711
7.14744
7.14759
7.14766
7.14769
7.14771
7.14773
7.14775
7.14776
7.14778
7.14779
7.14781
7.14783
7.14784
7.14785
7.14787
7.14788
7.14789
7.1479
7.14791
7.14792
7.14793
7.14793
7.14794
7.14794
7.14795
7.14795
7.14795
7.14795
7.14795
7.14795
7.14794
7.14794
7.14793
7.14793
7.14792
7.14791
7.1479
7.14789
7.14788
7.14787
7.14785
7.14784
7.14783
7.14781
7.14779
7.14778
7.14776
7.14775
7.14773
7.14771
7.14769
7.14766
7.14759
7.14744
7.14711
7.14639
7.145
7.88679
7.88829
7.88907
7.88943
7.88958
7.88965
7.88969
7.88972
7.88974
7.88975
7.88977
7.88979
7.88981
7.88982
7.88984
7.88986
7.88987
7.88989
7.8899
7.88991
7.88993
7.88994
7.88995
7.88995
7.88996
7.88997
7.88997
7.88998
7.88998
7.88998
7.88998
7.88998
7.88998
7.88997
7.88997
7.88996
7.88995
7.88995
7.88994
7.88993
7.88991
7.8899
7.88989
7.88987
7.88986
7.88984
7.88982
7.88981
7.88979
7.88977
7.88975
7.88974
7.88972
7.88969
7.88965
7.88958
7.88943
7.88907
7.88829
7.88679
8.61909
8.62069
8.62152
8.62189
8.62206
8.62214
8.62218
8.62221
8.62223
8.62225
8.62227
8.62229
8.6223
8.62232
8.62234
8.62236
8.62238
8.62239
8.62241
8.62242
8.62243
8.62245
8.62246
8.62247
8.62247
8.62248
8.62249
8.62249
8.62249
8.62249
8.62249
8.62249
8.62249
8.62249
8.62248
8.62247
8.62247
8.62246
8.62245
8.62243
8.62242
8.62241
8.62239
8.62238
8.62236
8.62234
8.62232
8.6223
8.62229
8.62227
8.62225
8.62223
8.62221
8.62218
8.62214
8.62206
8.62189
8.62152
8.62069
8.61909
9.33835
9.34002
9.34089
9.34128
9.34146
9.34154
9.34158
9.34161
9.34163
9.34165
9.34167
9.3417
9.34172
9.34174
9.34176
9.34178
9.34179
9.34181
9.34183
9.34184
9.34186
9.34187
9.34188
9.34189
9.3419
9.34191
9.34191
9.34192
9.34192
9.34192
9.34192
9.34192
9.34192
9.34191
9.34191
9.3419
9.34189
9.34188
9.34187
9.34186
9.34184
9.34183
9.34181
9.34179
9.34178
9.34176
9.34174
9.34172
9.3417
9.34167
9.34165
9.34163
9.34161
9.34158
9.34154
9.34146
9.34128
9.34089
9.34002
9.33835
10.0404
10.0421
10.043
10.0434
10.0436
10.0437
10.0437
10.0437
10.0438
10.0438
10.0438
10.0438
10.0438
10.0439
10.0439
10.0439
10.0439
10.0439
10.044
10.044
10.044
10.044
10.044
10.044
10.044
10.0441
10.0441
10.0441
10.0441
10.0441
10.0441
10.0441
10.0441
10.0441
10.0441
10.044
10.044
10.044
10.044
10.044
10.044
10.044
10.0439
10.0439
10.0439
10.0439
10.0439
10.0438
10.0438
10.0438
10.0438
10.0438
10.0437
10.0437
10.0437
10.0436
10.0434
10.043
10.0421
10.0404
10.7202
10.7219
10.7228
10.7233
10.7234
10.7235
10.7236
10.7236
10.7236
10.7237
10.7237
10.7237
10.7237
10.7237
10.7238
10.7238
10.7238
10.7238
10.7239
10.7239
10.7239
10.7239
10.7239
10.7239
10.7239
10.7239
10.7239
10.724
10.724
10.724
10.724
10.724
10.724
10.7239
10.7239
10.7239
10.7239
10.7239
10.7239
10.7239
10.7239
10.7239
10.7238
10.7238
10.7238
10.7238
10.7237
10.7237
10.7237
10.7237
10.7237
10.7236
10.7236
10.7236
10.7235
10.7234
10.7233
10.7228
10.7219
10.7202
11.3719
11.3736
11.3745
11.3749
11.3751
11.3752
11.3752
11.3753
11.3753
11.3753
11.3753
11.3754
11.3754
11.3754
11.3754
11.3755
11.3755
11.3755
11.3755
11.3755
11.3756
11.3756
11.3756
11.3756
11.3756
11.3756
11.3756
11.3756
11.3756
11.3756
11.3756
11.3756
11.3756
11.3756
11.3756
11.3756
11.3756
11.3756
11.3756
11.3756
11.3755
11.3755
11.3755
11.3755
11.3755
11.3754
11.3754
11.3754
11.3754
11.3753
11.3753
11.3753
11.3753
11.3752
11.3752
11.3751
11.3749
11.3745
11.3736
11.3719
11.9882
11.9899
11.9908
11.9912
11.9914
11.9915
11.9915
11.9916
11.9916
11.9916
11.9916
11.9917
11.9917
11.9917
11.9917
11.9918
11.9918
11.9918
11.9918
11.9919
11.9919
11.9919
11.9919
11.9919
11.9919
11.9919
11.9919
11.9919
11.992
11.992
11.992
11.992
11.9919
11.9919
11.9919
11.9919
11.9919
11.9919
11.9919
11.9919
11.9919
11.9918
11.9918
11.9918
11.9918
11.9917
11.9917
11.9917
11.9917
11.9916
11.9916
11.9916
11.9916
11.9915
11.9915
11.9914
11.9912
11.9908
11.9899
11.9882
12.5607
12.5623
12.5632
12.5636
12.5637
12.5638
12.5639
12.5639
12.5639
12.5639
12.564
12.564
12.564
12.564
12.5641
12.5641
12.5641
12.5641
12.5642
12.5642
12.5642
12.5642
12.5642
12.5643
12.5643
12.5643
12.5643
12.5643
12.5643
12.5643
12.5643
12.5643
12.5643
12.5643
12.5643
12.5643
12.5643
12.5642
12.5642
12.5642
12.5642
12.5642
12.5641
12.5641
12.5641
12.5641
12.564
12.564
12.564
12.564
12.5639
12.5639
12.5639
12.5639
12.5638
12.5637
12.5636
12.5632
12.5623
12.5607
13.0795
13.081
13.0817
13.0821
13.0822
13.0823
13.0823
13.0824
13.0824
13.0824
13.0824
13.0825
13.0825
13.0825
13.0825
13.0826
13.0826
13.0826
13.0826
13.0827
13.0827
13.0827
13.0827
13.0827
13.0827
13.0828
13.0828
13.0828
13.0828
13.0828
13.0828
13.0828
13.0828
13.0828
13.0828
13.0827
13.0827
13.0827
13.0827
13.0827
13.0827
13.0826
13.0826
13.0826
13.0826
13.0825
13.0825
13.0825
13.0825
13.0824
13.0824
13.0824
13.0824
13.0823
13.0823
13.0822
13.0821
13.0817
13.081
13.0795
13.5345
13.5357
13.5363
13.5366
13.5368
13.5368
13.5369
13.5369
13.5369
13.537
13.537
13.537
13.5371
13.5371
13.5371
13.5371
13.5372
13.5372
13.5372
13.5372
13.5373
13.5373
13.5373
13.5373
13.5373
13.5373
13.5373
13.5373
13.5373
13.5373
13.5373
13.5373
13.5373
13.5373
13.5373
13.5373
13.5373
13.5373
13.5373
13.5373
13.5372
13.5372
13.5372
13.5372
13.5371
13.5371
13.5371
13.5371
13.537
13.537
13.537
13.5369
13.5369
13.5369
13.5368
13.5368
13.5366
13.5363
13.5357
13.5345
13.918
13.919
13.9195
13.9198
13.9199
13.9199
13.92
13.92
13.92
13.92
13.9201
13.9201
13.9201
13.9202
13.9202
13.9202
13.9202
13.9203
13.9203
13.9203
13.9203
13.9203
13.9204
13.9204
13.9204
13.9204
13.9204
13.9204
13.9204
13.9204
13.9204
13.9204
13.9204
13.9204
13.9204
13.9204
13.9204
13.9204
13.9203
13.9203
13.9203
13.9203
13.9203
13.9202
13.9202
13.9202
13.9202
13.9201
13.9201
13.9201
13.92
13.92
13.92
13.92
13.9199
13.9199
13.9198
13.9195
13.919
13.918
14.2286
14.2293
14.2297
14.2298
14.2299
14.23
14.23
14.23
14.23
14.2301
14.2301
14.2301
14.2302
14.2302
14.2302
14.2303
14.2303
14.2303
14.2303
14.2304
14.2304
14.2304
14.2304
14.2304
14.2304
14.2305
14.2305
14.2305
14.2305
14.2305
14.2305
14.2305
14.2305
14.2305
14.2305
14.2304
14.2304
14.2304
14.2304
14.2304
14.2304
14.2303
14.2303
14.2303
14.2303
14.2302
14.2302
14.2302
14.2301
14.2301
14.2301
14.23
14.23
14.23
14.23
14.2299
14.2298
14.2297
14.2293
14.2286
14.4724
14.4728
14.4731
14.4732
14.4733
14.4733
14.4734
14.4734
14.4734
14.4734
14.4735
14.4735
14.4735
14.4736
14.4736
14.4736
14.4737
14.4737
14.4737
14.4737
14.4738
14.4738
14.4738
14.4738
14.4738
14.4738
14.4738
14.4739
14.4739
14.4739
14.4739
14.4739
14.4739
14.4738
14.4738
14.4738
14.4738
14.4738
14.4738
14.4738
14.4737
14.4737
14.4737
14.4737
14.4736
14.4736
14.4736
14.4735
14.4735
14.4735
14.4734
14.4734
14.4734
14.4734
14.4733
14.4733
14.4732
14.4731
14.4728
14.4724
14.6619
14.6621
14.6623
14.6624
14.6624
14.6624
14.6625
14.6625
14.6625
14.6625
14.6626
14.6626
14.6626
14.6627
14.6627
14.6627
14.6628
14.6628
14.6628
14.6629
14.6629
14.6629
14.6629
14.6629
14.6629
14.663
14.663
14.663
14.663
14.663
14.663
14.663
14.663
14.663
14.663
14.6629
14.6629
14.6629
14.6629
14.6629
14.6629
14.6628
14.6628
14.6628
14.6627
14.6627
14.6627
14.6626
14.6626
14.6626
14.6625
14.6625
14.6625
14.6625
14.6624
14.6624
14.6624
14.6623
14.6621
14.6619
14.811
14.8111
14.8112
14.8113
14.8113
14.8114
14.8114
14.8114
14.8114
14.8115
14.8115
14.8115
14.8116
14.8116
14.8116
14.8117
14.8117
14.8117
14.8118
14.8118
14.8118
14.8118
14.8119
14.8119
14.8119
14.8119
14.8119
14.8119
14.8119
14.8119
14.8119
14.8119
14.8119
14.8119
14.8119
14.8119
14.8119
14.8119
14.8118
14.8118
14.8118
14.8118
14.8117
14.8117
14.8117
14.8116
14.8116
14.8116
14.8115
14.8115
14.8115
14.8114
14.8114
14.8114
14.8114
14.8113
14.8113
14.8112
14.8111
14.811
14.9321
14.9321
14.9322
14.9322
14.9323
14.9323
14.9323
14.9323
14.9324
14.9324
14.9324
14.9325
14.9325
14.9325
14.9326
14.9326
14.9327
14.9327
14.9327
14.9328
14.9328
14.9328
14.9328
14.9328
14.9329
14.9329
14.9329
14.9329
14.9329
14.9329
14.9329
14.9329
14.9329
14.9329
14.9329
14.9329
14.9328
14.9328
14.9328
14.9328
14.9328
14.9327
14.9327
14.9327
14.9326
14.9326
14.9325
14.9325
14.9325
14.9324
14.9324
14.9324
14.9323
14.9323
14.9323
14.9323
14.9322
14.9322
14.9321
14.9321
15.034
15.034
15.034
15.034
15.034
15.034
15.0341
15.0341
15.0341
15.0342
15.0342
15.0342
15.0343
15.0343
15.0344
15.0344
15.0344
15.0345
15.0345
15.0345
15.0346
15.0346
15.0346
15.0347
15.0347
15.0347
15.0347
15.0347
15.0347
15.0347
15.0347
15.0347
15.0347
15.0347
15.0347
15.0347
15.0347
15.0346
15.0346
15.0346
15.0345
15.0345
15.0345
15.0344
15.0344
15.0344
15.0343
15.0343
15.0342
15.0342
15.0342
15.0341
15.0341
15.0341
15.034
15.034
15.034
15.034
15.034
15.034
15.1225
15.1225
15.1224
15.1225
15.1225
15.1225
15.1225
15.1225
15.1226
15.1226
15.1227
15.1227
15.1227
15.1228
15.1228
15.1229
15.1229
15.123
15.123
15.123
15.1231
15.1231
15.1231
15.1232
15.1232
15.1232
15.1232
15.1232
15.1232
15.1232
15.1232
15.1232
15.1232
15.1232
15.1232
15.1232
15.1232
15.1231
15.1231
15.1231
15.123
15.123
15.123
15.1229
15.1229
15.1228
15.1228
15.1227
15.1227
15.1227
15.1226
15.1226
15.1225
15.1225
15.1225
15.1225
15.1225
15.1224
15.1225
15.1225
15.2014
15.2013
15.2013
15.2013
15.2013
15.2013
15.2014
15.2014
15.2014
15.2015
15.2015
15.2016
15.2016
15.2017
15.2017
15.2018
15.2018
15.2019
15.2019
15.2019
15.202
15.202
15.202
15.2021
15.2021
15.2021
15.2021
15.2021
15.2021
15.2021
15.2021
15.2021
15.2021
15.2021
15.2021
15.2021
15.2021
15.202
15.202
15.202
15.2019
15.2019
15.2019
15.2018
15.2018
15.2017
15.2017
15.2016
15.2016
15.2015
15.2015
15.2014
15.2014
15.2014
15.2013
15.2013
15.2013
15.2013
15.2013
15.2014
15.2731
15.273
15.273
15.273
15.273
15.273
15.2731
15.2731
15.2731
15.2732
15.2732
15.2733
15.2733
15.2734
15.2734
15.2735
15.2735
15.2736
15.2736
15.2737
15.2737
15.2737
15.2738
15.2738
15.2738
15.2738
15.2739
15.2739
15.2739
15.2739
15.2739
15.2739
15.2739
15.2739
15.2738
15.2738
15.2738
15.2738
15.2737
15.2737
15.2737
15.2736
15.2736
15.2735
15.2735
15.2734
15.2734
15.2733
15.2733
15.2732
15.2732
15.2731
15.2731
15.2731
15.273
15.273
15.273
15.273
15.273
15.2731
15.3393
15.3392
15.3391
15.3391
15.3391
15.3391
15.3392
15.3392
15.3393
15.3393
15.3394
15.3394
15.3395
15.3395
15.3396
15.3396
15.3397
15.3397
15.3398
15.3398
15.3399
15.3399
15.3399
15.34
15.34
15.34
15.34
15.34
15.3401
15.3401
15.3401
15.3401
15.34
15.34
15.34
15.34
15.34
15.3399
15.3399
15.3399
15.3398
15.3398
15.3397
15.3397
15.3396
15.3396
15.3395
15.3395
15.3394
15.3394
15.3393
15.3393
15.3392
15.3392
15.3391
15.3391
15.3391
15.3391
15.3392
15.3393
15.401
15.4009
15.4008
15.4008
15.4008
15.4008
15.4009
15.4009
15.401
15.401
15.4011
15.4011
15.4012
15.4012
15.4013
15.4014
15.4014
15.4015
15.4015
15.4016
15.4016
15.4017
15.4017
15.4017
15.4017
15.4018
15.4018
15.4018
15.4018
15.4018
15.4018
15.4018
15.4018
15.4018
15.4018
15.4017
15.4017
15.4017
15.4017
15.4016
15.4016
15.4015
15.4015
15.4014
15.4014
15.4013
15.4012
15.4012
15.4011
15.4011
15.401
15.401
15.4009
15.4009
15.4008
15.4008
15.4008
15.4008
15.4009
15.401
15.4591
15.459
15.4589
15.4589
15.4589
15.4589
15.459
15.459
15.4591
15.4591
15.4592
15.4593
15.4593
15.4594
15.4595
15.4595
15.4596
15.4596
15.4597
15.4597
15.4598
15.4598
15.4599
15.4599
15.4599
15.4599
15.46
15.46
15.46
15.46
15.46
15.46
15.46
15.46
15.4599
15.4599
15.4599
15.4599
15.4598
15.4598
15.4597
15.4597
15.4596
15.4596
15.4595
15.4595
15.4594
15.4593
15.4593
15.4592
15.4591
15.4591
15.459
15.459
15.4589
15.4589
15.4589
15.4589
15.459
15.4591
15.5143
15.5141
15.5141
15.5141
15.5141
15.5141
15.5141
15.5142
15.5142
15.5143
15.5144
15.5144
15.5145
15.5146
15.5146
15.5147
15.5148
15.5148
15.5149
15.515
15.515
15.515
15.5151
15.5151
15.5152
15.5152
15.5152
15.5152
15.5152
15.5152
15.5152
15.5152
15.5152
15.5152
15.5152
15.5152
15.5151
15.5151
15.515
15.515
15.515
15.5149
15.5148
15.5148
15.5147
15.5146
15.5146
15.5145
15.5144
15.5144
15.5143
15.5142
15.5142
15.5141
15.5141
15.5141
15.5141
15.5141
15.5141
15.5143
15.567
15.5669
15.5668
15.5668
15.5668
15.5668
15.5669
15.5669
15.567
15.567
15.5671
15.5672
15.5673
15.5673
15.5674
15.5675
15.5675
15.5676
15.5677
15.5677
15.5678
15.5678
15.5679
15.5679
15.5679
15.568
15.568
15.568
15.568
15.568
15.568
15.568
15.568
15.568
15.568
15.5679
15.5679
15.5679
15.5678
15.5678
15.5677
15.5677
15.5676
15.5675
15.5675
15.5674
15.5673
15.5673
15.5672
15.5671
15.567
15.567
15.5669
15.5669
15.5668
15.5668
15.5668
15.5668
15.5669
15.567
15.6176
15.6175
15.6175
15.6174
15.6175
15.6175
15.6175
15.6176
15.6177
15.6177
15.6178
15.6179
15.618
15.618
15.6181
15.6182
15.6183
15.6183
15.6184
15.6185
15.6185
15.6186
15.6186
15.6186
15.6187
15.6187
15.6187
15.6187
15.6188
15.6188
15.6188
15.6188
15.6187
15.6187
15.6187
15.6187
15.6186
15.6186
15.6186
15.6185
15.6185
15.6184
15.6183
15.6183
15.6182
15.6181
15.618
15.618
15.6179
15.6178
15.6177
15.6177
15.6176
15.6175
15.6175
15.6175
15.6174
15.6175
15.6175
15.6176
15.6666
15.6665
15.6664
15.6664
15.6664
15.6664
15.6665
15.6665
15.6666
15.6667
15.6668
15.6669
15.6669
15.667
15.6671
15.6672
15.6673
15.6673
15.6674
15.6675
15.6675
15.6676
15.6676
15.6677
15.6677
15.6677
15.6678
15.6678
15.6678
15.6678
15.6678
15.6678
15.6678
15.6678
15.6677
15.6677
15.6677
15.6676
15.6676
15.6675
15.6675
15.6674
15.6673
15.6673
15.6672
15.6671
15.667
15.6669
15.6669
15.6668
15.6667
15.6666
15.6665
15.6665
15.6664
15.6664
15.6664
15.6664
15.6665
15.6666
15.7141
15.714
15.7139
15.7139
15.7139
15.7139
15.714
15.7141
15.7141
15.7142
15.7143
15.7144
15.7145
15.7146
15.7146
15.7147
15.7148
15.7149
15.715
15.715
15.7151
15.7152
15.7152
15.7152
15.7153
15.7153
15.7153
15.7154
15.7154
15.7154
15.7154
15.7154
15.7154
15.7153
15.7153
15.7153
15.7152
15.7152
15.7152
15.7151
15.715
15.715
15.7149
15.7148
15.7147
15.7146
15.7146
15.7145
15.7144
15.7143
15.7142
15.7141
15.7141
15.714
15.7139
15.7139
15.7139
15.7139
15.714
15.7141
15.7604
15.7602
15.7602
15.7602
15.7602
15.7602
15.7603
15.7603
15.7604
15.7605
15.7606
15.7607
15.7608
15.7609
15.761
15.7611
15.7611
15.7612
15.7613
15.7614
15.7614
15.7615
15.7616
15.7616
15.7616
15.7617
15.7617
15.7617
15.7617
15.7617
15.7617
15.7617
15.7617
15.7617
15.7617
15.7616
15.7616
15.7616
15.7615
15.7614
15.7614
15.7613
15.7612
15.7611
15.7611
15.761
15.7609
15.7608
15.7607
15.7606
15.7605
15.7604
15.7603
15.7603
15.7602
15.7602
15.7602
15.7602
15.7602
15.7604
15.8056
15.8055
15.8054
15.8054
15.8054
15.8055
15.8055
15.8056
15.8057
15.8058
15.8059
15.806
15.8061
15.8062
15.8063
15.8064
15.8064
15.8065
15.8066
15.8067
15.8068
15.8068
15.8069
15.8069
15.807
15.807
15.807
15.8071
15.8071
15.8071
15.8071
15.8071
15.8071
15.807
15.807
15.807
15.8069
15.8069
15.8068
15.8068
15.8067
15.8066
15.8065
15.8064
15.8064
15.8063
15.8062
15.8061
15.806
15.8059
15.8058
15.8057
15.8056
15.8055
15.8055
15.8054
15.8054
15.8054
15.8055
15.8056
15.85
15.8499
15.8498
15.8498
15.8498
15.8499
15.8499
15.85
15.8501
15.8502
15.8503
15.8504
15.8505
15.8506
15.8507
15.8508
15.8509
15.851
15.8511
15.8511
15.8512
15.8513
15.8513
15.8514
15.8514
15.8515
15.8515
15.8515
15.8515
15.8516
15.8516
15.8515
15.8515
15.8515
15.8515
15.8514
15.8514
15.8513
15.8513
15.8512
15.8511
15.8511
15.851
15.8509
15.8508
15.8507
15.8506
15.8505
15.8504
15.8503
15.8502
15.8501
15.85
15.8499
15.8499
15.8498
15.8498
15.8498
15.8499
15.85
15.8936
15.8935
15.8935
15.8935
15.8935
15.8935
15.8936
15.8937
15.8938
15.8939
15.894
15.8941
15.8942
15.8943
15.8944
15.8945
15.8946
15.8947
15.8948
15.8949
15.895
15.895
15.8951
15.8952
15.8952
15.8952
15.8953
15.8953
15.8953
15.8953
15.8953
15.8953
15.8953
15.8953
15.8952
15.8952
15.8952
15.8951
15.895
15.895
15.8949
15.8948
15.8947
15.8946
15.8945
15.8944
15.8943
15.8942
15.8941
15.894
15.8939
15.8938
15.8937
15.8936
15.8935
15.8935
15.8935
15.8935
15.8935
15.8936
15.9367
15.9366
15.9365
15.9365
15.9366
15.9366
15.9367
15.9368
15.9369
15.937
15.9371
15.9372
15.9373
15.9374
15.9375
15.9377
15.9378
15.9379
15.938
15.9381
15.9381
15.9382
15.9383
15.9383
15.9384
15.9384
15.9385
15.9385
15.9385
15.9385
15.9385
15.9385
15.9385
15.9385
15.9384
15.9384
15.9383
15.9383
15.9382
15.9381
15.9381
15.938
15.9379
15.9378
15.9377
15.9375
15.9374
15.9373
15.9372
15.9371
15.937
15.9369
15.9368
15.9367
15.9366
15.9366
15.9365
15.9365
15.9366
15.9367
15.9793
15.9792
15.9792
15.9791
15.9792
15.9792
15.9793
15.9794
15.9795
15.9796
15.9797
15.9798
15.98
15.9801
15.9802
15.9803
15.9804
15.9805
15.9806
15.9807
15.9808
15.9809
15.981
15.981
15.9811
15.9811
15.9812
15.9812
15.9812
15.9812
15.9812
15.9812
15.9812
15.9812
15.9811
15.9811
15.981
15.981
15.9809
15.9808
15.9807
15.9806
15.9805
15.9804
15.9803
15.9802
15.9801
15.98
15.9798
15.9797
15.9796
15.9795
15.9794
15.9793
15.9792
15.9792
15.9791
15.9792
15.9792
15.9793
16.0215
16.0214
16.0214
16.0214
16.0214
16.0215
16.0215
16.0216
16.0218
16.0219
16.022
16.0221
16.0223
16.0224
16.0225
16.0226
16.0228
16.0229
16.023
16.0231
16.0232
16.0232
16.0233
16.0234
16.0234
16.0235
16.0235
16.0235
16.0236
16.0236
16.0236
16.0236
16.0235
16.0235
16.0235
16.0234
16.0234
16.0233
16.0232
16.0232
16.0231
16.023
16.0229
16.0228
16.0226
16.0225
16.0224
16.0223
16.0221
16.022
16.0219
16.0218
16.0216
16.0215
16.0215
16.0214
16.0214
16.0214
16.0214
16.0215
16.0635
16.0634
16.0633
16.0633
16.0634
16.0634
16.0635
16.0636
16.0637
16.0639
16.064
16.0641
16.0643
16.0644
16.0645
16.0647
16.0648
16.0649
16.065
16.0651
16.0652
16.0653
16.0654
16.0654
16.0655
16.0655
16.0656
16.0656
16.0656
16.0656
16.0656
16.0656
16.0656
16.0656
16.0655
16.0655
16.0654
16.0654
16.0653
16.0652
16.0651
16.065
16.0649
16.0648
16.0647
16.0645
16.0644
16.0643
16.0641
16.064
16.0639
16.0637
16.0636
16.0635
16.0634
16.0634
16.0633
16.0633
16.0634
16.0635
16.1052
16.1052
16.1051
16.1051
16.1051
16.1052
16.1053
16.1054
16.1055
16.1057
16.1058
16.1059
16.1061
16.1062
16.1064
16.1065
16.1066
16.1068
16.1069
16.107
16.1071
16.1072
16.1073
16.1073
16.1074
16.1074
16.1075
16.1075
16.1075
16.1075
16.1075
16.1075
16.1075
16.1075
16.1074
16.1074
16.1073
16.1073
16.1072
16.1071
16.107
16.1069
16.1068
16.1066
16.1065
16.1064
16.1062
16.1061
16.1059
16.1058
16.1057
16.1055
16.1054
16.1053
16.1052
16.1051
16.1051
16.1051
16.1052
16.1052
16.1469
16.1468
16.1468
16.1468
16.1468
16.1469
16.147
16.1471
16.1472
16.1473
16.1475
16.1476
16.1478
16.1479
16.1481
16.1482
16.1484
16.1485
16.1486
16.1487
16.1488
16.1489
16.149
16.1491
16.1492
16.1492
16.1492
16.1493
16.1493
16.1493
16.1493
16.1493
16.1493
16.1492
16.1492
16.1492
16.1491
16.149
16.1489
16.1488
16.1487
16.1486
16.1485
16.1484
16.1482
16.1481
16.1479
16.1478
16.1476
16.1475
16.1473
16.1472
16.1471
16.147
16.1469
16.1468
16.1468
16.1468
16.1468
16.1469
16.1885
16.1884
16.1884
16.1884
16.1884
16.1885
16.1886
16.1887
16.1889
16.189
16.1892
16.1893
16.1895
16.1896
16.1898
16.1899
16.1901
16.1902
16.1903
16.1905
16.1906
16.1907
16.1907
16.1908
16.1909
16.1909
16.191
16.191
16.191
16.1911
16.1911
16.191
16.191
16.191
16.1909
16.1909
16.1908
16.1907
16.1907
16.1906
16.1905
16.1903
16.1902
16.1901
16.1899
16.1898
16.1896
16.1895
16.1893
16.1892
16.189
16.1889
16.1887
16.1886
16.1885
16.1884
16.1884
16.1884
16.1884
16.1885
16.2301
16.2301
16.23
16.23
16.2301
16.2302
16.2303
16.2304
16.2305
16.2307
16.2308
16.231
16.2312
16.2313
16.2315
16.2317
16.2318
16.2319
16.2321
16.2322
16.2323
16.2324
16.2325
16.2326
16.2327
16.2327
16.2328
16.2328
16.2328
16.2328
16.2328
16.2328
16.2328
16.2328
16.2327
16.2327
16.2326
16.2325
16.2324
16.2323
16.2322
16.2321
16.2319
16.2318
16.2317
16.2315
16.2313
16.2312
16.231
16.2308
16.2307
16.2305
16.2304
16.2303
16.2302
16.2301
16.23
16.23
16.2301
16.2301
16.2718
16.2718
16.2718
16.2718
16.2718
16.2719
16.272
16.2721
16.2723
16.2725
16.2726
16.2728
16.273
16.2731
16.2733
16.2735
16.2736
16.2738
16.2739
16.2741
16.2742
16.2743
16.2744
16.2745
16.2745
16.2746
16.2746
16.2747
16.2747
16.2747
16.2747
16.2747
16.2747
16.2746
16.2746
16.2745
16.2745
16.2744
16.2743
16.2742
16.2741
16.2739
16.2738
16.2736
16.2735
16.2733
16.2731
16.273
16.2728
16.2726
16.2725
16.2723
16.2721
16.272
16.2719
16.2718
16.2718
16.2718
16.2718
16.2718
16.3137
16.3137
16.3136
16.3137
16.3137
16.3138
16.3139
16.3141
16.3142
16.3144
16.3146
16.3147
16.3149
16.3151
16.3153
16.3155
16.3156
16.3158
16.3159
16.3161
16.3162
16.3163
16.3164
16.3165
16.3166
16.3166
16.3167
16.3167
16.3167
16.3167
16.3167
16.3167
16.3167
16.3167
16.3166
16.3166
16.3165
16.3164
16.3163
16.3162
16.3161
16.3159
16.3158
16.3156
16.3155
16.3153
16.3151
16.3149
16.3147
16.3146
16.3144
16.3142
16.3141
16.3139
16.3138
16.3137
16.3137
16.3136
16.3137
16.3137
16.3558
16.3558
16.3557
16.3558
16.3558
16.3559
16.356
16.3562
16.3563
16.3565
16.3567
16.3569
16.3571
16.3573
16.3575
16.3576
16.3578
16.358
16.3581
16.3583
16.3584
16.3585
16.3586
16.3587
16.3588
16.3589
16.3589
16.359
16.359
16.359
16.359
16.359
16.359
16.3589
16.3589
16.3588
16.3587
16.3586
16.3585
16.3584
16.3583
16.3581
16.358
16.3578
16.3576
16.3575
16.3573
16.3571
16.3569
16.3567
16.3565
16.3563
16.3562
16.356
16.3559
16.3558
16.3558
16.3557
16.3558
16.3558
16.3982
16.3981
16.3981
16.3981
16.3982
16.3983
16.3984
16.3986
16.3987
16.3989
16.3991
16.3993
16.3995
16.3997
16.3999
16.4001
16.4003
16.4005
16.4006
16.4008
16.4009
16.401
16.4011
16.4012
16.4013
16.4014
16.4014
16.4015
16.4015
16.4015
16.4015
16.4015
16.4015
16.4014
16.4014
16.4013
16.4012
16.4011
16.401
16.4009
16.4008
16.4006
16.4005
16.4003
16.4001
16.3999
16.3997
16.3995
16.3993
16.3991
16.3989
16.3987
16.3986
16.3984
16.3983
16.3982
16.3981
16.3981
16.3981
16.3982
16.4408
16.4408
16.4408
16.4408
16.4409
16.441
16.4411
16.4413
16.4415
16.4417
16.4419
16.4421
16.4423
16.4425
16.4427
16.4429
16.4431
16.4433
16.4434
16.4436
16.4437
16.4438
16.444
16.4441
16.4441
16.4442
16.4443
16.4443
16.4443
16.4444
16.4444
16.4443
16.4443
16.4443
16.4442
16.4441
16.4441
16.444
16.4438
16.4437
16.4436
16.4434
16.4433
16.4431
16.4429
16.4427
16.4425
16.4423
16.4421
16.4419
16.4417
16.4415
16.4413
16.4411
16.441
16.4409
16.4408
16.4408
16.4408
16.4408
16.4839
16.4839
16.4838
16.4839
16.4839
16.4841
16.4842
16.4844
16.4846
16.4848
16.485
16.4852
16.4854
16.4856
16.4858
16.486
16.4862
16.4864
16.4866
16.4868
16.4869
16.487
16.4872
16.4873
16.4874
16.4874
16.4875
16.4875
16.4876
16.4876
16.4876
16.4876
16.4875
16.4875
16.4874
16.4874
16.4873
16.4872
16.487
16.4869
16.4868
16.4866
16.4864
16.4862
16.486
16.4858
16.4856
16.4854
16.4852
16.485
16.4848
16.4846
16.4844
16.4842
16.4841
16.4839
16.4839
16.4838
16.4839
16.4839
16.5274
16.5273
16.5273
16.5274
16.5274
16.5276
16.5277
16.5279
16.5281
16.5283
16.5285
16.5287
16.529
16.5292
16.5294
16.5296
16.5298
16.53
16.5302
16.5304
16.5305
16.5307
16.5308
16.5309
16.531
16.5311
16.5311
16.5312
16.5312
16.5312
16.5312
16.5312
16.5312
16.5311
16.5311
16.531
16.5309
16.5308
16.5307
16.5305
16.5304
16.5302
16.53
16.5298
16.5296
16.5294
16.5292
16.529
16.5287
16.5285
16.5283
16.5281
16.5279
16.5277
16.5276
16.5274
16.5274
16.5273
16.5273
16.5274
16.5713
16.5713
16.5713
16.5713
16.5714
16.5715
16.5717
16.5719
16.5721
16.5723
16.5725
16.5728
16.573
16.5732
16.5735
16.5737
16.5739
16.5741
16.5743
16.5745
16.5746
16.5748
16.5749
16.575
16.5751
16.5752
16.5753
16.5753
16.5753
16.5754
16.5754
16.5753
16.5753
16.5753
16.5752
16.5751
16.575
16.5749
16.5748
16.5746
16.5745
16.5743
16.5741
16.5739
16.5737
16.5735
16.5732
16.573
16.5728
16.5725
16.5723
16.5721
16.5719
16.5717
16.5715
16.5714
16.5713
16.5713
16.5713
16.5713
16.6157
16.6157
16.6157
16.6158
16.6159
16.616
16.6162
16.6164
16.6166
16.6168
16.6171
16.6173
16.6176
16.6178
16.618
16.6183
16.6185
16.6187
16.6189
16.6191
16.6193
16.6194
16.6195
16.6197
16.6198
16.6198
16.6199
16.62
16.62
16.62
16.62
16.62
16.62
16.6199
16.6198
16.6198
16.6197
16.6195
16.6194
16.6193
16.6191
16.6189
16.6187
16.6185
16.6183
16.618
16.6178
16.6176
16.6173
16.6171
16.6168
16.6166
16.6164
16.6162
16.616
16.6159
16.6158
16.6157
16.6157
16.6157
16.6608
16.6607
16.6608
16.6608
16.6609
16.661
16.6612
16.6614
16.6617
16.6619
16.6622
16.6624
16.6627
16.6629
16.6632
16.6634
16.6637
16.6639
16.6641
16.6643
16.6645
16.6646
16.6647
16.6649
16.665
16.6651
16.6651
16.6652
16.6652
16.6652
16.6652
16.6652
16.6652
16.6651
16.6651
16.665
16.6649
16.6647
16.6646
16.6645
16.6643
16.6641
16.6639
16.6637
16.6634
16.6632
16.6629
16.6627
16.6624
16.6622
16.6619
16.6617
16.6614
16.6612
16.661
16.6609
16.6608
16.6608
16.6607
16.6608
16.7064
16.7064
16.7064
16.7065
16.7066
16.7067
16.7069
16.7071
16.7073
16.7076
16.7079
16.7081
16.7084
16.7087
16.7089
16.7092
16.7094
16.7097
16.7099
16.7101
16.7103
16.7104
16.7106
16.7107
16.7108
16.7109
16.711
16.711
16.7111
16.7111
16.7111
16.7111
16.711
16.711
16.7109
16.7108
16.7107
16.7106
16.7104
16.7103
16.7101
16.7099
16.7097
16.7094
16.7092
16.7089
16.7087
16.7084
16.7081
16.7079
16.7076
16.7073
16.7071
16.7069
16.7067
16.7066
16.7065
16.7064
16.7064
16.7064
16.7527
16.7527
16.7527
16.7528
16.7529
16.753
16.7532
16.7535
16.7537
16.754
16.7542
16.7545
16.7548
16.7551
16.7554
16.7556
16.7559
16.7561
16.7564
16.7566
16.7568
16.7569
16.7571
16.7572
16.7573
16.7574
16.7575
16.7575
16.7576
16.7576