/*--------------------------------*- C++ -*----------------------------------*\
| =========                 |                                                 |
| \\      /  F ield         | foam-extend: Open Source CFD                    |
|  \\    /   O peration     | Version:     4.0                                |
|   \\  /    A nd           | Web:         http://www.foam-extend.org         |
|    \\/     M anipulation  |                                                 |
\*---------------------------------------------------------------------------*/
FoamFile
{
    version     2.0;
    format      ascii;
    class       volScalarField;
    location    "1740";
    object      cPlus;
}
// * * * * * * * * * * * * * * * * * * * * * * * * * * * * * * * * * * * * * //

dimensions      [0 0 0 0 0 0 0];

internalField   nonuniform List<scalar> 
6960
(
0.184138
0.18405
0.184006
0.183987
0.183978
0.183975
0.183974
0.183973
0.183973
0.183973
0.183973
0.183973
0.183973
0.183973
0.183973
0.183973
0.183973
0.183973
0.183973
0.183974
0.183974
0.183974
0.183974
0.183974
0.183974
0.183974
0.183974
0.183974
0.183974
0.183974
0.183974
0.183974
0.183974
0.183974
0.183974
0.183974
0.183974
0.183974
0.183974
0.183974
0.183974
0.183973
0.183973
0.183973
0.183973
0.183973
0.183973
0.183973
0.183973
0.183973
0.183973
0.183973
0.183973
0.183974
0.183975
0.183978
0.183987
0.184006
0.18405
0.184138
0.0483072
0.0482933
0.0482853
0.0482817
0.0482802
0.0482796
0.0482794
0.0482793
0.0482793
0.0482794
0.0482794
0.0482795
0.0482795
0.0482796
0.0482796
0.0482797
0.0482797
0.0482798
0.0482798
0.0482799
0.0482799
0.0482799
0.04828
0.04828
0.04828
0.04828
0.04828
0.0482801
0.0482801
0.0482801
0.0482801
0.0482801
0.0482801
0.04828
0.04828
0.04828
0.04828
0.04828
0.0482799
0.0482799
0.0482799
0.0482798
0.0482798
0.0482797
0.0482797
0.0482796
0.0482796
0.0482795
0.0482795
0.0482794
0.0482794
0.0482793
0.0482793
0.0482794
0.0482796
0.0482802
0.0482817
0.0482853
0.0482933
0.0483072
0.0304129
0.0304229
0.0304266
0.030428
0.0304287
0.030429
0.0304292
0.0304293
0.0304293
0.0304294
0.0304295
0.0304295
0.0304296
0.0304296
0.0304296
0.0304297
0.0304297
0.0304297
0.0304298
0.0304298
0.0304298
0.0304298
0.0304298
0.0304299
0.0304299
0.0304299
0.0304299
0.0304299
0.0304299
0.0304299
0.0304299
0.0304299
0.0304299
0.0304299
0.0304299
0.0304299
0.0304299
0.0304298
0.0304298
0.0304298
0.0304298
0.0304298
0.0304297
0.0304297
0.0304297
0.0304296
0.0304296
0.0304296
0.0304295
0.0304295
0.0304294
0.0304293
0.0304293
0.0304292
0.030429
0.0304287
0.030428
0.0304266
0.0304229
0.0304129
0.0284096
0.0284255
0.0284319
0.0284346
0.0284358
0.0284363
0.0284366
0.0284367
0.0284368
0.0284369
0.0284369
0.028437
0.028437
0.0284371
0.0284371
0.0284371
0.0284372
0.0284372
0.0284372
0.0284372
0.0284373
0.0284373
0.0284373
0.0284373
0.0284373
0.0284373
0.0284373
0.0284373
0.0284373
0.0284373
0.0284373
0.0284373
0.0284373
0.0284373
0.0284373
0.0284373
0.0284373
0.0284373
0.0284373
0.0284373
0.0284372
0.0284372
0.0284372
0.0284372
0.0284371
0.0284371
0.0284371
0.028437
0.028437
0.0284369
0.0284369
0.0284368
0.0284367
0.0284366
0.0284363
0.0284358
0.0284346
0.0284319
0.0284255
0.0284096
0.0286734
0.0286909
0.0286981
0.0287011
0.0287024
0.028703
0.0287033
0.0287034
0.0287036
0.0287036
0.0287037
0.0287037
0.0287038
0.0287038
0.0287039
0.0287039
0.0287039
0.028704
0.028704
0.028704
0.028704
0.0287041
0.0287041
0.0287041
0.0287041
0.0287041
0.0287041
0.0287041
0.0287041
0.0287041
0.0287041
0.0287041
0.0287041
0.0287041
0.0287041
0.0287041
0.0287041
0.0287041
0.0287041
0.028704
0.028704
0.028704
0.028704
0.0287039
0.0287039
0.0287039
0.0287038
0.0287038
0.0287037
0.0287037
0.0287036
0.0287036
0.0287034
0.0287033
0.028703
0.0287024
0.0287011
0.0286981
0.0286909
0.0286734
0.0293056
0.029324
0.0293315
0.0293347
0.0293361
0.0293367
0.029337
0.0293372
0.0293373
0.0293374
0.0293375
0.0293375
0.0293376
0.0293376
0.0293377
0.0293377
0.0293377
0.0293378
0.0293378
0.0293378
0.0293378
0.0293378
0.0293379
0.0293379
0.0293379
0.0293379
0.0293379
0.0293379
0.0293379
0.0293379
0.0293379
0.0293379
0.0293379
0.0293379
0.0293379
0.0293379
0.0293379
0.0293379
0.0293378
0.0293378
0.0293378
0.0293378
0.0293378
0.0293377
0.0293377
0.0293377
0.0293376
0.0293376
0.0293375
0.0293375
0.0293374
0.0293373
0.0293372
0.029337
0.0293367
0.0293361
0.0293347
0.0293315
0.029324
0.0293056
0.0300551
0.0300743
0.0300823
0.0300856
0.0300871
0.0300877
0.030088
0.0300882
0.0300883
0.0300884
0.0300885
0.0300885
0.0300886
0.0300886
0.0300887
0.0300887
0.0300887
0.0300888
0.0300888
0.0300888
0.0300889
0.0300889
0.0300889
0.0300889
0.0300889
0.0300889
0.0300889
0.0300889
0.0300889
0.0300889
0.0300889
0.0300889
0.0300889
0.0300889
0.0300889
0.0300889
0.0300889
0.0300889
0.0300889
0.0300889
0.0300888
0.0300888
0.0300888
0.0300887
0.0300887
0.0300887
0.0300886
0.0300886
0.0300885
0.0300885
0.0300884
0.0300883
0.0300882
0.030088
0.0300877
0.0300871
0.0300856
0.0300823
0.0300743
0.0300551
0.0309004
0.0309206
0.0309289
0.0309324
0.0309339
0.0309346
0.030935
0.0309351
0.0309353
0.0309354
0.0309354
0.0309355
0.0309355
0.0309356
0.0309356
0.0309357
0.0309357
0.0309358
0.0309358
0.0309358
0.0309358
0.0309359
0.0309359
0.0309359
0.0309359
0.0309359
0.0309359
0.0309359
0.0309359
0.0309359
0.0309359
0.0309359
0.0309359
0.0309359
0.0309359
0.0309359
0.0309359
0.0309359
0.0309359
0.0309358
0.0309358
0.0309358
0.0309358
0.0309357
0.0309357
0.0309356
0.0309356
0.0309355
0.0309355
0.0309354
0.0309354
0.0309353
0.0309351
0.030935
0.0309346
0.0309339
0.0309324
0.0309289
0.0309206
0.0309004
0.031854
0.0318753
0.0318841
0.0318878
0.0318894
0.0318901
0.0318905
0.0318907
0.0318908
0.0318909
0.031891
0.031891
0.0318911
0.0318911
0.0318912
0.0318912
0.0318913
0.0318913
0.0318913
0.0318914
0.0318914
0.0318914
0.0318914
0.0318915
0.0318915
0.0318915
0.0318915
0.0318915
0.0318915
0.0318915
0.0318915
0.0318915
0.0318915
0.0318915
0.0318915
0.0318915
0.0318915
0.0318914
0.0318914
0.0318914
0.0318914
0.0318913
0.0318913
0.0318913
0.0318912
0.0318912
0.0318911
0.0318911
0.031891
0.031891
0.0318909
0.0318908
0.0318907
0.0318905
0.0318901
0.0318894
0.0318878
0.0318841
0.0318753
0.031854
0.0329373
0.0329599
0.0329692
0.0329731
0.0329748
0.0329756
0.032976
0.0329762
0.0329763
0.0329765
0.0329765
0.0329766
0.0329767
0.0329767
0.0329768
0.0329768
0.0329769
0.0329769
0.0329769
0.032977
0.032977
0.032977
0.032977
0.0329771
0.0329771
0.0329771
0.0329771
0.0329771
0.0329771
0.0329771
0.0329771
0.0329771
0.0329771
0.0329771
0.0329771
0.0329771
0.0329771
0.032977
0.032977
0.032977
0.032977
0.0329769
0.0329769
0.0329769
0.0329768
0.0329768
0.0329767
0.0329767
0.0329766
0.0329765
0.0329765
0.0329763
0.0329762
0.032976
0.0329756
0.0329748
0.0329731
0.0329692
0.0329599
0.0329373
0.0341788
0.034203
0.0342129
0.0342172
0.034219
0.0342198
0.0342202
0.0342204
0.0342206
0.0342207
0.0342208
0.0342209
0.034221
0.034221
0.0342211
0.0342211
0.0342212
0.0342212
0.0342212
0.0342213
0.0342213
0.0342213
0.0342214
0.0342214
0.0342214
0.0342214
0.0342214
0.0342214
0.0342214
0.0342214
0.0342214
0.0342214
0.0342214
0.0342214
0.0342214
0.0342214
0.0342214
0.0342214
0.0342213
0.0342213
0.0342213
0.0342212
0.0342212
0.0342212
0.0342211
0.0342211
0.034221
0.034221
0.0342209
0.0342208
0.0342207
0.0342206
0.0342204
0.0342202
0.0342198
0.034219
0.0342172
0.0342129
0.034203
0.0341788
0.0356168
0.0356428
0.0356535
0.035658
0.03566
0.0356609
0.0356614
0.0356616
0.0356618
0.0356619
0.035662
0.0356621
0.0356622
0.0356622
0.0356623
0.0356623
0.0356624
0.0356624
0.0356625
0.0356625
0.0356626
0.0356626
0.0356626
0.0356626
0.0356627
0.0356627
0.0356627
0.0356627
0.0356627
0.0356627
0.0356627
0.0356627
0.0356627
0.0356627
0.0356627
0.0356627
0.0356626
0.0356626
0.0356626
0.0356626
0.0356625
0.0356625
0.0356624
0.0356624
0.0356623
0.0356623
0.0356622
0.0356622
0.0356621
0.035662
0.0356619
0.0356618
0.0356616
0.0356614
0.0356609
0.03566
0.035658
0.0356535
0.0356428
0.0356168
0.0373029
0.0373312
0.0373429
0.0373478
0.03735
0.037351
0.0373515
0.0373517
0.0373519
0.0373521
0.0373522
0.0373523
0.0373524
0.0373524
0.0373525
0.0373526
0.0373526
0.0373527
0.0373527
0.0373528
0.0373528
0.0373528
0.0373529
0.0373529
0.0373529
0.0373529
0.0373529
0.0373529
0.037353
0.037353
0.037353
0.037353
0.0373529
0.0373529
0.0373529
0.0373529
0.0373529
0.0373529
0.0373528
0.0373528
0.0373528
0.0373527
0.0373527
0.0373526
0.0373526
0.0373525
0.0373524
0.0373524
0.0373523
0.0373522
0.0373521
0.0373519
0.0373517
0.0373515
0.037351
0.03735
0.0373478
0.0373429
0.0373312
0.0373029
0.0393097
0.039341
0.0393538
0.0393593
0.0393617
0.0393628
0.0393633
0.0393636
0.0393638
0.039364
0.0393641
0.0393642
0.0393643
0.0393644
0.0393645
0.0393646
0.0393646
0.0393647
0.0393647
0.0393648
0.0393648
0.0393649
0.0393649
0.0393649
0.0393649
0.039365
0.039365
0.039365
0.039365
0.039365
0.039365
0.039365
0.039365
0.039365
0.039365
0.0393649
0.0393649
0.0393649
0.0393649
0.0393648
0.0393648
0.0393647
0.0393647
0.0393646
0.0393646
0.0393645
0.0393644
0.0393643
0.0393642
0.0393641
0.039364
0.0393638
0.0393636
0.0393633
0.0393628
0.0393617
0.0393593
0.0393538
0.039341
0.0393097
0.0417417
0.0417767
0.0417911
0.0417972
0.0417999
0.0418011
0.0418017
0.0418021
0.0418023
0.0418025
0.0418026
0.0418028
0.0418029
0.041803
0.0418031
0.0418032
0.0418032
0.0418033
0.0418034
0.0418034
0.0418035
0.0418035
0.0418035
0.0418036
0.0418036
0.0418036
0.0418036
0.0418037
0.0418037
0.0418037
0.0418037
0.0418037
0.0418037
0.0418036
0.0418036
0.0418036
0.0418036
0.0418035
0.0418035
0.0418035
0.0418034
0.0418034
0.0418033
0.0418032
0.0418032
0.0418031
0.041803
0.0418029
0.0418028
0.0418026
0.0418025
0.0418023
0.0418021
0.0418017
0.0418011
0.0417999
0.0417972
0.0417911
0.0417767
0.0417417
0.0447537
0.0447937
0.0448102
0.0448173
0.0448203
0.0448218
0.0448225
0.0448229
0.0448231
0.0448233
0.0448235
0.0448237
0.0448238
0.0448239
0.044824
0.0448241
0.0448242
0.0448243
0.0448243
0.0448244
0.0448245
0.0448245
0.0448246
0.0448246
0.0448246
0.0448247
0.0448247
0.0448247
0.0448247
0.0448247
0.0448247
0.0448247
0.0448247
0.0448247
0.0448247
0.0448246
0.0448246
0.0448246
0.0448245
0.0448245
0.0448244
0.0448243
0.0448243
0.0448242
0.0448241
0.044824
0.0448239
0.0448238
0.0448237
0.0448235
0.0448233
0.0448231
0.0448229
0.0448225
0.0448218
0.0448203
0.0448173
0.0448102
0.0447937
0.0447537
0.0485818
0.0486287
0.0486481
0.0486565
0.0486601
0.0486618
0.0486626
0.0486631
0.0486634
0.0486637
0.0486639
0.048664
0.0486642
0.0486643
0.0486645
0.0486646
0.0486647
0.0486648
0.0486649
0.0486649
0.048665
0.0486651
0.0486651
0.0486652
0.0486652
0.0486653
0.0486653
0.0486653
0.0486653
0.0486653
0.0486653
0.0486653
0.0486653
0.0486653
0.0486653
0.0486652
0.0486652
0.0486651
0.0486651
0.048665
0.0486649
0.0486649
0.0486648
0.0486647
0.0486646
0.0486645
0.0486643
0.0486642
0.048664
0.0486639
0.0486637
0.0486634
0.0486631
0.0486626
0.0486618
0.0486601
0.0486565
0.0486481
0.0486287
0.0485818
0.0535871
0.0536438
0.0536674
0.0536775
0.0536819
0.0536839
0.053685
0.0536855
0.0536859
0.0536863
0.0536865
0.0536867
0.0536869
0.0536871
0.0536873
0.0536874
0.0536875
0.0536877
0.0536878
0.0536879
0.053688
0.053688
0.0536881
0.0536882
0.0536882
0.0536883
0.0536883
0.0536883
0.0536883
0.0536883
0.0536883
0.0536883
0.0536883
0.0536883
0.0536883
0.0536882
0.0536882
0.0536881
0.053688
0.053688
0.0536879
0.0536878
0.0536877
0.0536875
0.0536874
0.0536873
0.0536871
0.0536869
0.0536867
0.0536865
0.0536863
0.0536859
0.0536855
0.053685
0.0536839
0.0536819
0.0536775
0.0536674
0.0536438
0.0535871
0.0603033
0.060374
0.0604035
0.0604162
0.0604218
0.0604243
0.0604256
0.0604264
0.0604269
0.0604273
0.0604276
0.0604279
0.0604281
0.0604283
0.0604286
0.0604287
0.0604289
0.0604291
0.0604292
0.0604293
0.0604295
0.0604296
0.0604296
0.0604297
0.0604298
0.0604298
0.0604299
0.0604299
0.0604299
0.0604299
0.0604299
0.0604299
0.0604299
0.0604299
0.0604298
0.0604298
0.0604297
0.0604296
0.0604296
0.0604295
0.0604293
0.0604292
0.0604291
0.0604289
0.0604287
0.0604286
0.0604283
0.0604281
0.0604279
0.0604276
0.0604273
0.0604269
0.0604264
0.0604256
0.0604243
0.0604218
0.0604162
0.0604035
0.060374
0.0603033
0.0694473
0.0695377
0.0695756
0.0695919
0.0695991
0.0696024
0.0696041
0.0696051
0.0696057
0.0696062
0.0696066
0.069607
0.0696073
0.0696076
0.0696079
0.0696081
0.0696084
0.0696086
0.0696088
0.0696089
0.0696091
0.0696092
0.0696093
0.0696094
0.0696095
0.0696096
0.0696096
0.0696097
0.0696097
0.0696097
0.0696097
0.0696097
0.0696097
0.0696096
0.0696096
0.0696095
0.0696094
0.0696093
0.0696092
0.0696091
0.0696089
0.0696088
0.0696086
0.0696084
0.0696081
0.0696079
0.0696076
0.0696073
0.069607
0.0696066
0.0696062
0.0696057
0.0696051
0.0696041
0.0696024
0.0695991
0.0695919
0.0695756
0.0695377
0.0694473
0.0818199
0.0819362
0.0819853
0.0820064
0.0820158
0.0820201
0.0820222
0.0820235
0.0820244
0.082025
0.0820256
0.082026
0.0820264
0.0820268
0.0820272
0.0820275
0.0820278
0.082028
0.0820283
0.0820285
0.0820287
0.0820289
0.082029
0.0820291
0.0820293
0.0820293
0.0820294
0.0820295
0.0820295
0.0820295
0.0820295
0.0820295
0.0820295
0.0820294
0.0820293
0.0820293
0.0820291
0.082029
0.0820289
0.0820287
0.0820285
0.0820283
0.082028
0.0820278
0.0820275
0.0820272
0.0820268
0.0820264
0.082026
0.0820256
0.082025
0.0820244
0.0820235
0.0820222
0.0820201
0.0820158
0.0820064
0.0819853
0.0819362
0.0818199
0.0980509
0.0981986
0.0982611
0.0982881
0.0983
0.0983055
0.0983083
0.0983099
0.098311
0.0983118
0.0983125
0.0983131
0.0983136
0.0983141
0.0983145
0.0983149
0.0983153
0.0983156
0.0983159
0.0983162
0.0983164
0.0983166
0.0983168
0.098317
0.0983171
0.0983172
0.0983173
0.0983174
0.0983174
0.0983175
0.0983175
0.0983174
0.0983174
0.0983173
0.0983172
0.0983171
0.098317
0.0983168
0.0983166
0.0983164
0.0983162
0.0983159
0.0983156
0.0983153
0.0983149
0.0983145
0.0983141
0.0983136
0.0983131
0.0983125
0.0983118
0.098311
0.0983099
0.0983083
0.0983055
0.0983
0.0982881
0.0982611
0.0981986
0.0980509
0.118287
0.118469
0.118546
0.118579
0.118594
0.118601
0.118604
0.118606
0.118607
0.118608
0.118609
0.11861
0.118611
0.118611
0.118612
0.118612
0.118613
0.118613
0.118613
0.118614
0.118614
0.118614
0.118614
0.118615
0.118615
0.118615
0.118615
0.118615
0.118615
0.118615
0.118615
0.118615
0.118615
0.118615
0.118615
0.118615
0.118615
0.118614
0.118614
0.118614
0.118614
0.118613
0.118613
0.118613
0.118612
0.118612
0.118611
0.118611
0.11861
0.118609
0.118608
0.118607
0.118606
0.118604
0.118601
0.118594
0.118579
0.118546
0.118469
0.118287
0.142054
0.142268
0.14236
0.142399
0.142417
0.142425
0.142429
0.142432
0.142433
0.142434
0.142435
0.142436
0.142437
0.142437
0.142438
0.142438
0.142439
0.142439
0.14244
0.14244
0.14244
0.142441
0.142441
0.142441
0.142441
0.142441
0.142442
0.142442
0.142442
0.142442
0.142442
0.142442
0.142442
0.142442
0.142441
0.142441
0.142441
0.142441
0.142441
0.14244
0.14244
0.14244
0.142439
0.142439
0.142438
0.142438
0.142437
0.142437
0.142436
0.142435
0.142434
0.142433
0.142432
0.142429
0.142425
0.142417
0.142399
0.14236
0.142268
0.142054
0.168431
0.168673
0.168778
0.168823
0.168844
0.168853
0.168857
0.16886
0.168862
0.168863
0.168864
0.168865
0.168866
0.168866
0.168867
0.168868
0.168868
0.168869
0.168869
0.168869
0.16887
0.16887
0.16887
0.168871
0.168871
0.168871
0.168871
0.168871
0.168871
0.168871
0.168871
0.168871
0.168871
0.168871
0.168871
0.168871
0.168871
0.16887
0.16887
0.16887
0.168869
0.168869
0.168869
0.168868
0.168868
0.168867
0.168866
0.168866
0.168865
0.168864
0.168863
0.168862
0.16886
0.168857
0.168853
0.168844
0.168823
0.168778
0.168673
0.168431
0.196397
0.196664
0.19678
0.196831
0.196853
0.196864
0.196869
0.196872
0.196874
0.196875
0.196876
0.196877
0.196878
0.196878
0.196879
0.19688
0.19688
0.196881
0.196881
0.196882
0.196882
0.196882
0.196882
0.196883
0.196883
0.196883
0.196883
0.196883
0.196883
0.196883
0.196883
0.196883
0.196883
0.196883
0.196883
0.196883
0.196883
0.196882
0.196882
0.196882
0.196882
0.196881
0.196881
0.19688
0.19688
0.196879
0.196878
0.196878
0.196877
0.196876
0.196875
0.196874
0.196872
0.196869
0.196864
0.196853
0.196831
0.19678
0.196664
0.196397
0.225112
0.2254
0.225525
0.225581
0.225606
0.225617
0.225623
0.225626
0.225628
0.225629
0.22563
0.225631
0.225632
0.225633
0.225633
0.225634
0.225635
0.225635
0.225636
0.225636
0.225636
0.225637
0.225637
0.225637
0.225637
0.225637
0.225638
0.225638
0.225638
0.225638
0.225638
0.225638
0.225638
0.225638
0.225637
0.225637
0.225637
0.225637
0.225637
0.225636
0.225636
0.225636
0.225635
0.225635
0.225634
0.225633
0.225633
0.225632
0.225631
0.22563
0.225629
0.225628
0.225626
0.225623
0.225617
0.225606
0.225581
0.225525
0.2254
0.225112
0.254
0.254305
0.25444
0.2545
0.254527
0.254539
0.254545
0.254549
0.254551
0.254552
0.254553
0.254554
0.254555
0.254556
0.254557
0.254557
0.254558
0.254558
0.254559
0.254559
0.254559
0.25456
0.25456
0.25456
0.25456
0.254561
0.254561
0.254561
0.254561
0.254561
0.254561
0.254561
0.254561
0.254561
0.254561
0.25456
0.25456
0.25456
0.25456
0.254559
0.254559
0.254559
0.254558
0.254558
0.254557
0.254557
0.254556
0.254555
0.254554
0.254553
0.254552
0.254551
0.254549
0.254545
0.254539
0.254527
0.2545
0.25444
0.254305
0.254
0.282711
0.283031
0.283174
0.283238
0.283267
0.283281
0.283287
0.283291
0.283293
0.283294
0.283296
0.283297
0.283297
0.283298
0.283299
0.283299
0.2833
0.2833
0.283301
0.283301
0.283302
0.283302
0.283302
0.283302
0.283303
0.283303
0.283303
0.283303
0.283303
0.283303
0.283303
0.283303
0.283303
0.283303
0.283303
0.283303
0.283302
0.283302
0.283302
0.283302
0.283301
0.283301
0.2833
0.2833
0.283299
0.283299
0.283298
0.283297
0.283297
0.283296
0.283294
0.283293
0.283291
0.283287
0.283281
0.283267
0.283238
0.283174
0.283031
0.282711
0.311039
0.311373
0.311524
0.311592
0.311623
0.311637
0.311644
0.311648
0.31165
0.311652
0.311653
0.311654
0.311655
0.311655
0.311656
0.311657
0.311657
0.311658
0.311658
0.311658
0.311659
0.311659
0.311659
0.31166
0.31166
0.31166
0.31166
0.31166
0.31166
0.31166
0.31166
0.31166
0.31166
0.31166
0.31166
0.31166
0.31166
0.311659
0.311659
0.311659
0.311658
0.311658
0.311658
0.311657
0.311657
0.311656
0.311655
0.311655
0.311654
0.311653
0.311652
0.31165
0.311648
0.311644
0.311637
0.311623
0.311592
0.311524
0.311373
0.311039
0.338865
0.33921
0.339368
0.33944
0.339473
0.339488
0.339495
0.339499
0.339502
0.339503
0.339505
0.339506
0.339506
0.339507
0.339508
0.339508
0.339509
0.339509
0.33951
0.33951
0.339511
0.339511
0.339511
0.339511
0.339511
0.339512
0.339512
0.339512
0.339512
0.339512
0.339512
0.339512
0.339512
0.339512
0.339512
0.339511
0.339511
0.339511
0.339511
0.339511
0.33951
0.33951
0.339509
0.339509
0.339508
0.339508
0.339507
0.339506
0.339506
0.339505
0.339503
0.339502
0.339499
0.339495
0.339488
0.339473
0.33944
0.339368
0.33921
0.338865
0.366112
0.366467
0.366632
0.366707
0.366742
0.366758
0.366766
0.366771
0.366773
0.366775
0.366776
0.366777
0.366778
0.366778
0.366779
0.36678
0.36678
0.366781
0.366781
0.366781
0.366782
0.366782
0.366782
0.366782
0.366783
0.366783
0.366783
0.366783
0.366783
0.366783
0.366783
0.366783
0.366783
0.366783
0.366783
0.366783
0.366782
0.366782
0.366782
0.366782
0.366781
0.366781
0.366781
0.36678
0.36678
0.366779
0.366778
0.366778
0.366777
0.366776
0.366775
0.366773
0.366771
0.366766
0.366758
0.366742
0.366707
0.366632
0.366467
0.366112
0.392731
0.393094
0.393265
0.393345
0.393381
0.393399
0.393407
0.393412
0.393414
0.393416
0.393417
0.393418
0.393419
0.39342
0.39342
0.393421
0.393421
0.393422
0.393422
0.393423
0.393423
0.393423
0.393424
0.393424
0.393424
0.393424
0.393424
0.393424
0.393424
0.393424
0.393424
0.393424
0.393424
0.393424
0.393424
0.393424
0.393424
0.393424
0.393423
0.393423
0.393423
0.393422
0.393422
0.393421
0.393421
0.39342
0.39342
0.393419
0.393418
0.393417
0.393416
0.393414
0.393412
0.393407
0.393399
0.393381
0.393345
0.393265
0.393094
0.392731
0.418688
0.419058
0.419235
0.419318
0.419357
0.419375
0.419384
0.419389
0.419392
0.419393
0.419395
0.419396
0.419396
0.419397
0.419398
0.419398
0.419399
0.419399
0.4194
0.4194
0.4194
0.419401
0.419401
0.419401
0.419401
0.419401
0.419401
0.419401
0.419402
0.419402
0.419402
0.419402
0.419401
0.419401
0.419401
0.419401
0.419401
0.419401
0.419401
0.4194
0.4194
0.4194
0.419399
0.419399
0.419398
0.419398
0.419397
0.419396
0.419396
0.419395
0.419393
0.419392
0.419389
0.419384
0.419375
0.419357
0.419318
0.419235
0.419058
0.418688
0.443958
0.444334
0.444517
0.444603
0.444644
0.444663
0.444673
0.444678
0.444681
0.444683
0.444684
0.444685
0.444686
0.444686
0.444687
0.444688
0.444688
0.444688
0.444689
0.444689
0.444689
0.44469
0.44469
0.44469
0.44469
0.44469
0.444691
0.444691
0.444691
0.444691
0.444691
0.444691
0.444691
0.444691
0.44469
0.44469
0.44469
0.44469
0.44469
0.444689
0.444689
0.444689
0.444688
0.444688
0.444688
0.444687
0.444686
0.444686
0.444685
0.444684
0.444683
0.444681
0.444678
0.444673
0.444663
0.444644
0.444603
0.444517
0.444334
0.443958
0.468525
0.468906
0.469093
0.469183
0.469226
0.469247
0.469257
0.469262
0.469265
0.469267
0.469268
0.469269
0.46927
0.469271
0.469271
0.469272
0.469272
0.469273
0.469273
0.469273
0.469274
0.469274
0.469274
0.469274
0.469274
0.469275
0.469275
0.469275
0.469275
0.469275
0.469275
0.469275
0.469275
0.469275
0.469275
0.469274
0.469274
0.469274
0.469274
0.469274
0.469273
0.469273
0.469273
0.469272
0.469272
0.469271
0.469271
0.46927
0.469269
0.469268
0.469267
0.469265
0.469262
0.469257
0.469247
0.469226
0.469183
0.469093
0.468906
0.468525
0.492378
0.492762
0.492954
0.493047
0.493092
0.493113
0.493124
0.49313
0.493133
0.493135
0.493136
0.493137
0.493138
0.493139
0.493139
0.49314
0.49314
0.493141
0.493141
0.493141
0.493142
0.493142
0.493142
0.493142
0.493142
0.493142
0.493142
0.493143
0.493143
0.493143
0.493143
0.493143
0.493143
0.493142
0.493142
0.493142
0.493142
0.493142
0.493142
0.493142
0.493141
0.493141
0.493141
0.49314
0.49314
0.493139
0.493139
0.493138
0.493137
0.493136
0.493135
0.493133
0.49313
0.493124
0.493113
0.493092
0.493047
0.492954
0.492762
0.492378
0.515508
0.515894
0.51609
0.516187
0.516234
0.516257
0.516268
0.516274
0.516277
0.516279
0.516281
0.516282
0.516282
0.516283
0.516284
0.516284
0.516284
0.516285
0.516285
0.516285
0.516286
0.516286
0.516286
0.516286
0.516286
0.516287
0.516287
0.516287
0.516287
0.516287
0.516287
0.516287
0.516287
0.516287
0.516287
0.516286
0.516286
0.516286
0.516286
0.516286
0.516285
0.516285
0.516285
0.516284
0.516284
0.516284
0.516283
0.516282
0.516282
0.516281
0.516279
0.516277
0.516274
0.516268
0.516257
0.516234
0.516187
0.51609
0.515894
0.515508
0.537913
0.5383
0.5385
0.538599
0.538648
0.538672
0.538684
0.538691
0.538694
0.538696
0.538698
0.538699
0.538699
0.5387
0.5387
0.538701
0.538701
0.538702
0.538702
0.538702
0.538703
0.538703
0.538703
0.538703
0.538703
0.538703
0.538703
0.538704
0.538704
0.538704
0.538704
0.538704
0.538704
0.538703
0.538703
0.538703
0.538703
0.538703
0.538703
0.538703
0.538702
0.538702
0.538702
0.538701
0.538701
0.5387
0.5387
0.538699
0.538699
0.538698
0.538696
0.538694
0.538691
0.538684
0.538672
0.538648
0.538599
0.5385
0.5383
0.537913
0.559591
0.559978
0.560181
0.560284
0.560335
0.56036
0.560373
0.560379
0.560383
0.560385
0.560387
0.560388
0.560388
0.560389
0.560389
0.56039
0.56039
0.560391
0.560391
0.560391
0.560391
0.560392
0.560392
0.560392
0.560392
0.560392
0.560392
0.560392
0.560392
0.560392
0.560392
0.560392
0.560392
0.560392
0.560392
0.560392
0.560392
0.560392
0.560392
0.560391
0.560391
0.560391
0.560391
0.56039
0.56039
0.560389
0.560389
0.560388
0.560388
0.560387
0.560385
0.560383
0.560379
0.560373
0.56036
0.560335
0.560284
0.560181
0.559978
0.559591
0.580545
0.580931
0.581137
0.581242
0.581295
0.581321
0.581335
0.581342
0.581345
0.581348
0.581349
0.58135
0.581351
0.581352
0.581352
0.581352
0.581353
0.581353
0.581353
0.581354
0.581354
0.581354
0.581354
0.581354
0.581355
0.581355
0.581355
0.581355
0.581355
0.581355
0.581355
0.581355
0.581355
0.581355
0.581355
0.581355
0.581354
0.581354
0.581354
0.581354
0.581354
0.581353
0.581353
0.581353
0.581352
0.581352
0.581352
0.581351
0.58135
0.581349
0.581348
0.581345
0.581342
0.581335
0.581321
0.581295
0.581242
0.581137
0.580931
0.580545
0.600778
0.601162
0.60137
0.601478
0.601532
0.60156
0.601574
0.601582
0.601586
0.601588
0.60159
0.601591
0.601591
0.601592
0.601593
0.601593
0.601593
0.601594
0.601594
0.601594
0.601594
0.601595
0.601595
0.601595
0.601595
0.601595
0.601595
0.601595
0.601595
0.601595
0.601595
0.601595
0.601595
0.601595
0.601595
0.601595
0.601595
0.601595
0.601595
0.601594
0.601594
0.601594
0.601594
0.601593
0.601593
0.601593
0.601592
0.601591
0.601591
0.60159
0.601588
0.601586
0.601582
0.601574
0.60156
0.601532
0.601478
0.60137
0.601162
0.600778
0.620296
0.620677
0.620887
0.620997
0.621054
0.621083
0.621098
0.621106
0.62111
0.621113
0.621114
0.621115
0.621116
0.621116
0.621117
0.621117
0.621118
0.621118
0.621118
0.621118
0.621119
0.621119
0.621119
0.621119
0.621119
0.621119
0.621119
0.621119
0.621119
0.621119
0.621119
0.621119
0.621119
0.621119
0.621119
0.621119
0.621119
0.621119
0.621119
0.621119
0.621118
0.621118
0.621118
0.621118
0.621117
0.621117
0.621116
0.621116
0.621115
0.621114
0.621113
0.62111
0.621106
0.621098
0.621083
0.621054
0.620997
0.620887
0.620677
0.620296
0.639107
0.639485
0.639696
0.639808
0.639867
0.639897
0.639913
0.639921
0.639926
0.639928
0.63993
0.639931
0.639932
0.639932
0.639933
0.639933
0.639933
0.639934
0.639934
0.639934
0.639934
0.639935
0.639935
0.639935
0.639935
0.639935
0.639935
0.639935
0.639935
0.639935
0.639935
0.639935
0.639935
0.639935
0.639935
0.639935
0.639935
0.639935
0.639935
0.639934
0.639934
0.639934
0.639934
0.639933
0.639933
0.639933
0.639932
0.639932
0.639931
0.63993
0.639928
0.639926
0.639921
0.639913
0.639897
0.639867
0.639808
0.639696
0.639485
0.639107
0.65722
0.657594
0.657806
0.65792
0.657981
0.658012
0.658028
0.658037
0.658042
0.658045
0.658046
0.658047
0.658048
0.658049
0.658049
0.65805
0.65805
0.65805
0.65805
0.658051
0.658051
0.658051
0.658051
0.658051
0.658051
0.658051
0.658052
0.658052
0.658052
0.658052
0.658052
0.658052
0.658052
0.658052
0.658051
0.658051
0.658051
0.658051
0.658051
0.658051
0.658051
0.65805
0.65805
0.65805
0.65805
0.658049
0.658049
0.658048
0.658047
0.658046
0.658045
0.658042
0.658037
0.658028
0.658012
0.657981
0.65792
0.657806
0.657594
0.65722
0.674645
0.675014
0.675227
0.675343
0.675405
0.675438
0.675455
0.675464
0.675469
0.675472
0.675474
0.675475
0.675476
0.675477
0.675477
0.675477
0.675478
0.675478
0.675478
0.675478
0.675478
0.675479
0.675479
0.675479
0.675479
0.675479
0.675479
0.675479
0.675479
0.675479
0.675479
0.675479
0.675479
0.675479
0.675479
0.675479
0.675479
0.675479
0.675479
0.675478
0.675478
0.675478
0.675478
0.675478
0.675477
0.675477
0.675477
0.675476
0.675475
0.675474
0.675472
0.675469
0.675464
0.675455
0.675438
0.675405
0.675343
0.675227
0.675014
0.674645
0.691395
0.691758
0.691971
0.692089
0.692153
0.692186
0.692205
0.692214
0.69222
0.692223
0.692225
0.692226
0.692226
0.692227
0.692227
0.692228
0.692228
0.692228
0.692229
0.692229
0.692229
0.692229
0.692229
0.692229
0.692229
0.692229
0.69223
0.69223
0.69223
0.69223
0.69223
0.69223
0.69223
0.69223
0.692229
0.692229
0.692229
0.692229
0.692229
0.692229
0.692229
0.692229
0.692228
0.692228
0.692228
0.692227
0.692227
0.692226
0.692226
0.692225
0.692223
0.69222
0.692214
0.692205
0.692186
0.692153
0.692089
0.691971
0.691758
0.691395
0.707481
0.707839
0.708051
0.70817
0.708235
0.70827
0.708289
0.7083
0.708305
0.708308
0.70831
0.708312
0.708312
0.708313
0.708313
0.708314
0.708314
0.708314
0.708314
0.708315
0.708315
0.708315
0.708315
0.708315
0.708315
0.708315
0.708315
0.708315
0.708315
0.708315
0.708315
0.708315
0.708315
0.708315
0.708315
0.708315
0.708315
0.708315
0.708315
0.708315
0.708315
0.708314
0.708314
0.708314
0.708314
0.708313
0.708313
0.708312
0.708312
0.70831
0.708308
0.708305
0.7083
0.708289
0.70827
0.708235
0.70817
0.708051
0.707839
0.707481
0.722917
0.723269
0.72348
0.7236
0.723667
0.723703
0.723723
0.723734
0.72374
0.723743
0.723745
0.723746
0.723747
0.723748
0.723748
0.723749
0.723749
0.723749
0.723749
0.723749
0.72375
0.72375
0.72375
0.72375
0.72375
0.72375
0.72375
0.72375
0.72375
0.72375
0.72375
0.72375
0.72375
0.72375
0.72375
0.72375
0.72375
0.72375
0.72375
0.72375
0.723749
0.723749
0.723749
0.723749
0.723749
0.723748
0.723748
0.723747
0.723746
0.723745
0.723743
0.72374
0.723734
0.723723
0.723703
0.723667
0.7236
0.72348
0.723269
0.722917
0.737718
0.738062
0.738272
0.738394
0.738462
0.738499
0.73852
0.738531
0.738537
0.738541
0.738543
0.738544
0.738545
0.738546
0.738546
0.738547
0.738547
0.738547
0.738547
0.738547
0.738547
0.738548
0.738548
0.738548
0.738548
0.738548
0.738548
0.738548
0.738548
0.738548
0.738548
0.738548
0.738548
0.738548
0.738548
0.738548
0.738548
0.738548
0.738548
0.738547
0.738547
0.738547
0.738547
0.738547
0.738547
0.738546
0.738546
0.738545
0.738544
0.738543
0.738541
0.738537
0.738531
0.73852
0.738499
0.738462
0.738394
0.738272
0.738062
0.737718
0.751897
0.752234
0.752443
0.752565
0.752634
0.752673
0.752694
0.752706
0.752713
0.752717
0.752719
0.75272
0.752721
0.752722
0.752722
0.752722
0.752723
0.752723
0.752723
0.752723
0.752723
0.752723
0.752724
0.752724
0.752724
0.752724
0.752724
0.752724
0.752724
0.752724
0.752724
0.752724
0.752724
0.752724
0.752724
0.752724
0.752724
0.752724
0.752723
0.752723
0.752723
0.752723
0.752723
0.752723
0.752722
0.752722
0.752722
0.752721
0.75272
0.752719
0.752717
0.752713
0.752706
0.752694
0.752673
0.752634
0.752565
0.752443
0.752234
0.751897
0.765471
0.7658
0.766007
0.76613
0.7662
0.76624
0.766262
0.766274
0.766281
0.766285
0.766288
0.766289
0.76629
0.766291
0.766291
0.766292
0.766292
0.766292
0.766292
0.766292
0.766292
0.766293
0.766293
0.766293
0.766293
0.766293
0.766293
0.766293
0.766293
0.766293
0.766293
0.766293
0.766293
0.766293
0.766293
0.766293
0.766293
0.766293
0.766293
0.766292
0.766292
0.766292
0.766292
0.766292
0.766292
0.766291
0.766291
0.76629
0.766289
0.766288
0.766285
0.766281
0.766274
0.766262
0.76624
0.7662
0.76613
0.766007
0.7658
0.765471
0.778455
0.778776
0.778981
0.779103
0.779175
0.779216
0.779239
0.779252
0.779259
0.779263
0.779266
0.779267
0.779268
0.779269
0.779269
0.77927
0.77927
0.77927
0.77927
0.77927