/*--------------------------------*- C++ -*----------------------------------*\
| =========                 |                                                 |
| \\      /  F ield         | foam-extend: Open Source CFD                    |
|  \\    /   O peration     | Version:     4.0                                |
|   \\  /    A nd           | Web:         http://www.foam-extend.org         |
|    \\/     M anipulation  |                                                 |
\*---------------------------------------------------------------------------*/
FoamFile
{
    version     2.0;
    format      ascii;
    class       volScalarField;
    location    "1";
    object      p;
}
// * * * * * * * * * * * * * * * * * * * * * * * * * * * * * * * * * * * * * //

dimensions      [0 2 -2 0 0 0 0];

internalField   nonuniform List<scalar> 
6960
(
1.56705e-32
-2.18885e-22
-8.49536e-22
-5.60218e-22
-5.26427e-22
-1.84762e-22
3.92117e-22
1.10686e-21
4.54306e-22
1.59997e-21
1.28756e-21
-4.09703e-22
-1.75475e-21
-1.98201e-21
-2.4329e-21
-2.2149e-21
-2.18625e-21
-2.92266e-21
-2.65097e-21
-1.97886e-21
-2.65625e-21
-2.19956e-21
-2.7329e-21
-3.52331e-21
-3.97115e-21
-3.72472e-21
-4.35908e-21
-4.25041e-21
-4.43815e-21
-4.91735e-21
-5.15991e-21
-5.10054e-21
-4.91952e-21
-4.75655e-21
-4.33297e-21
-4.05943e-21
-3.7677e-21
-3.25523e-21
-2.89893e-21
-3.1776e-21
-3.52742e-21
-3.30677e-21
-2.10066e-21
-2.00903e-21
-2.08283e-21
-2.55676e-21
-3.36576e-21
-3.7301e-21
-4.13423e-21
-4.29162e-21
-4.2812e-21
-4.37014e-21
-4.30474e-21
-4.19994e-21
-4.2965e-21
-4.25364e-21
-4.19491e-21
-4.27894e-21
-4.65587e-21
-4.85647e-21
-4.54813e-21
-4.56955e-21
-4.64788e-21
-4.61207e-21
-4.60688e-21
-4.56144e-21
-4.49597e-21
-4.40657e-21
-4.49216e-21
-4.3522e-21
-4.38905e-21
-4.58475e-21
-4.74773e-21
-4.77801e-21
-4.83423e-21
-4.80842e-21
-4.8036e-21
-4.89204e-21
-4.85952e-21
-4.77895e-21
-4.86317e-21
-4.80527e-21
-4.86431e-21
-4.96313e-21
-5.01682e-21
-4.99184e-21
-5.06517e-21
-5.05651e-21
-5.07525e-21
-5.13513e-21
-5.16011e-21
-5.15531e-21
-5.13083e-21
-5.11195e-21
-5.06033e-21
-5.02957e-21
-4.98991e-21
-4.93634e-21
-4.89031e-21
-4.92182e-21
-4.96511e-21
-4.94046e-21
-4.79233e-21
-4.78261e-21
-4.79448e-21
-4.85225e-21
-4.94748e-21
-4.99254e-21
-5.03822e-21
-5.05955e-21
-5.05289e-21
-5.06734e-21
-5.05643e-21
-5.0486e-21
-5.05854e-21
-5.05545e-21
-5.04685e-21
-5.05805e-21
-5.10238e-21
-5.1239e-21
-5.0641e-21
-5.06667e-21
-5.07757e-21
-5.0709e-21
-5.07049e-21
-5.06182e-21
-5.0511e-21
-5.03517e-21
-5.05444e-21
-5.03056e-21
-5.03603e-21
-5.06439e-21
-5.09333e-21
-5.09885e-21
-5.10715e-21
-5.10544e-21
-5.10625e-21
-5.11688e-21
-5.11126e-21
-5.09807e-21
-5.11144e-21
-5.10052e-21
-5.11239e-21
-5.12903e-21
-5.13755e-21
-5.13541e-21
-5.1454e-21
-5.14515e-21
-5.14859e-21
-5.15942e-21
-5.16018e-21
-5.16131e-21
-5.15417e-21
-5.15314e-21
-5.14099e-21
-5.14103e-21
-5.12988e-21
-5.12605e-21
-5.11818e-21
-5.12368e-21
-5.13024e-21
-5.12645e-21
-5.10516e-21
-5.10383e-21
-5.10284e-21
-5.11234e-21
-5.127e-21
-5.1353e-21
-5.14095e-21
-5.14672e-21
-5.1425e-21
-5.14692e-21
-5.14374e-21
-5.14423e-21
-5.14466e-21
-5.14586e-21
-5.14515e-21
-5.14636e-21
-5.15138e-21
-5.15582e-21
-5.14875e-21
-5.14839e-21
-5.14783e-21
-5.14602e-21
-5.14641e-21
-5.14369e-21
-5.14227e-21
-5.13878e-21
-5.14678e-21
-5.14172e-21
-5.14218e-21
-5.14283e-21
-5.15016e-21
-5.15122e-21
-5.15221e-21
-5.154e-21
-5.15591e-21
-5.15389e-21
-5.15271e-21
-5.15046e-21
-5.1523e-21
-5.14882e-21
-5.15281e-21
-5.15632e-21
-5.15746e-21
-5.15906e-21
-5.15883e-21
-5.1594e-21
-5.16066e-21
-5.16331e-21
-5.16023e-21
-5.16231e-21
-5.15814e-21
-5.16016e-21
-5.1541e-21
-5.15903e-21
-5.15337e-21
-5.15721e-21
-5.15574e-21
-5.15706e-21
-5.15703e-21
-5.15684e-21
-5.15635e-21
-5.15586e-21
-5.15357e-21
-5.15497e-21
-5.15659e-21
-5.15874e-21
-5.15776e-21
-5.16111e-21
-5.15703e-21
-5.15976e-21
-5.15806e-21
-5.15977e-21
-5.15886e-21
-5.16067e-21
-5.16095e-21
-5.16078e-21
-5.15937e-21
-5.16099e-21
-5.16258e-21
-5.16194e-21
-5.1593e-21
-5.15834e-21
-5.15888e-21
-5.15724e-21
-5.15716e-21
-5.15682e-21
-5.16204e-21
-5.15999e-21
-5.15949e-21
-5.15567e-21
-5.15956e-21
-5.15977e-21
-5.15961e-21
-5.16194e-21
-5.16424e-21
-5.16e-21
-5.15956e-21
-5.15925e-21
-5.15919e-21
-5.15679e-21
-5.15939e-21
-5.16078e-21
-5.16082e-21
-5.16288e-21
-5.16105e-21
-5.16136e-21
-5.16265e-21
-5.16391e-21
-5.16035e-21
-5.16247e-21
-5.15907e-21
-5.16157e-21
-5.15627e-21
-5.16179e-21
-5.15766e-21
-5.16256e-21
-5.1617e-21
-5.16251e-21
-5.16129e-21
-5.16179e-21
-5.16469e-21
-5.16434e-21
-5.16197e-21
-5.16195e-21
-5.16159e-21
-5.16286e-21
-5.16055e-21
-5.16342e-21
-5.15942e-21
-5.1619e-21
-5.16053e-21
-5.16234e-21
-5.16122e-21
-5.16312e-21
-5.16323e-21
-5.16314e-21
-5.16063e-21
-5.16173e-21
-5.16481e-21
-5.1641e-21
-5.16127e-21
-5.16041e-21
-5.16107e-21
-5.15951e-21
-5.15949e-21
-5.16069e-21
-5.16466e-21
-5.1629e-21
-5.16231e-21
-5.15773e-21
-5.16108e-21
-5.16118e-21
-5.1609e-21
-5.1633e-21
-5.16554e-21
-5.16086e-21
-5.16065e-21
-5.16071e-21
-5.16056e-21
-5.15828e-21
-5.16052e-21
-5.1615e-21
-5.16128e-21
-5.16344e-21
-5.16134e-21
-5.16152e-21
-5.16251e-21
-5.1641e-21
-5.16061e-21
-5.1625e-21
-5.15937e-21
-5.16183e-21
-5.1567e-21
-5.16202e-21
-5.15839e-21
-5.16357e-21
-5.16252e-21
-5.16345e-21
-5.16192e-21
-5.16261e-21
-5.16596e-21
-5.16569e-21
-5.16332e-21
-5.16311e-21
-5.1625e-21
-5.16368e-21
-5.16101e-21
-5.16375e-21
-5.15982e-21
-5.16248e-21
-5.16106e-21
-5.1628e-21
-5.16156e-21
-5.16368e-21
-5.16349e-21
-5.16347e-21
-5.1609e-21
-5.16174e-21
-5.16512e-21
-5.16446e-21
-5.16161e-21
-5.16081e-21
-5.16141e-21
-5.15997e-21
-5.15982e-21
-5.16186e-21
-5.16486e-21
-5.16323e-21
-5.16338e-21
-5.15811e-21
-5.16114e-21
-5.16143e-21
-5.16117e-21
-5.1637e-21
-5.16545e-21
-5.16094e-21
-5.16092e-21
-5.16094e-21
-5.16078e-21
-5.15853e-21
-5.16058e-21
-5.16178e-21
-5.16123e-21
-5.16343e-21
-5.16134e-21
-5.16154e-21
-5.16175e-21
-5.16402e-21
-5.1608e-21
-5.16255e-21
-5.15962e-21
-5.1618e-21
-5.15706e-21
-5.16196e-21
-5.15873e-21
-5.16361e-21
-5.16253e-21
-5.16358e-21
-5.16208e-21
-5.16272e-21
-5.16604e-21
-5.16587e-21
-5.16355e-21
-5.16334e-21
-5.16262e-21
-5.16381e-21
-5.16098e-21
-5.16383e-21
-5.15992e-21
-5.16275e-21
-5.16126e-21
-5.16291e-21
-5.16139e-21
-5.16384e-21
-5.16338e-21
-5.16342e-21
-5.16105e-21
-5.16167e-21
-5.165e-21
-5.16462e-21
-5.16159e-21
-5.16094e-21
-5.1614e-21
-5.16016e-21
-5.15983e-21
-5.162e-21
-5.16479e-21
-5.16303e-21
-5.16378e-21
-5.15839e-21
-5.16092e-21
-5.16154e-21
-5.16114e-21
-5.16406e-21
-5.16512e-21
-5.16077e-21
-5.16116e-21
-5.16111e-21
-5.16077e-21
-5.15862e-21
-5.1605e-21
-5.16211e-21
-5.1612e-21
-5.16334e-21
-5.16126e-21
-5.16158e-21
-5.16136e-21
-5.16432e-21
-5.16083e-21
-5.16286e-21
-5.15978e-21
-5.16175e-21
-5.15732e-21
-5.1617e-21
-5.15916e-21
-5.16343e-21
-5.16247e-21
-5.1633e-21
-5.16206e-21
-5.16279e-21
-5.16589e-21
-5.16588e-21
-5.16367e-21
-5.16339e-21
-5.16268e-21
-5.16391e-21
-5.16088e-21
-5.16386e-21
-5.15997e-21
-5.1628e-21
-5.16138e-21
-5.16297e-21
-5.16125e-21
-5.1638e-21
-5.16327e-21
-5.16342e-21
-5.16112e-21
-5.16146e-21
-5.16485e-21
-5.16471e-21
-5.16163e-21
-5.16104e-21
-5.1615e-21
-5.16024e-21
-5.15978e-21
-5.16169e-21
-5.16507e-21
-5.16279e-21
-5.16381e-21
-5.15851e-21
-5.16087e-21
-5.16152e-21
-5.16113e-21
-5.16419e-21
-5.16489e-21
-5.16045e-21
-5.16118e-21
-5.16128e-21
-5.16073e-21
-5.15882e-21
-5.16051e-21
-5.16228e-21
-5.16118e-21
-5.16332e-21
-5.16104e-21
-5.16188e-21
-5.16141e-21
-5.16486e-21
-5.16078e-21
-5.16305e-21
-5.15999e-21
-5.16168e-21
-5.15724e-21
-5.16148e-21
-5.15952e-21
-5.16324e-21
-5.16249e-21
-5.16299e-21
-5.16232e-21
-5.16302e-21
-5.16564e-21
-5.16588e-21
-5.1637e-21
-5.16346e-21
-5.16262e-21
-5.16402e-21
-5.16081e-21
-5.16381e-21
-5.16007e-21
-5.16298e-21
-5.16141e-21
-5.16309e-21
-5.16133e-21
-5.16373e-21
-5.1632e-21
-5.16339e-21
-5.16122e-21
-5.16127e-21
-5.16485e-21
-5.16472e-21
-5.16166e-21
-5.16121e-21
-5.16152e-21
-5.16027e-21
-5.1596e-21
-5.16135e-21
-5.16524e-21
-5.16284e-21
-5.16412e-21
-5.1588e-21
-5.16093e-21
-5.16145e-21
-5.16128e-21
-5.16383e-21
-5.16484e-21
-5.16011e-21
-5.1611e-21
-5.16137e-21
-5.16075e-21
-5.15886e-21
-5.16051e-21
-5.16237e-21
-5.16106e-21
-5.1633e-21
-5.16073e-21
-5.16246e-21
-5.16147e-21
-5.16479e-21
-5.16075e-21
-5.16301e-21
-5.16012e-21
-5.16149e-21
-5.15715e-21
-5.16106e-21
-5.15957e-21
-5.16294e-21
-5.1625e-21
-5.16294e-21
-5.16253e-21
-5.16321e-21
-5.16543e-21
-5.16581e-21
-5.16374e-21
-5.16365e-21
-5.16255e-21
-5.1639e-21
-5.16087e-21
-5.1636e-21
-5.1602e-21
-5.16317e-21
-5.16144e-21
-5.1632e-21
-5.16131e-21
-5.16365e-21
-5.16313e-21
-5.16335e-21
-5.16132e-21
-5.16133e-21
-5.16449e-21
-5.16471e-21
-5.16161e-21
-5.16136e-21
-5.16142e-21
-5.16018e-21
-5.15941e-21
-5.16107e-21
-5.16518e-21
-5.16302e-21
-5.16425e-21
-5.15932e-21
-5.16102e-21
-5.16146e-21
-5.16141e-21
-5.1633e-21
-5.16429e-21
-5.15973e-21
-5.16108e-21
-5.16141e-21
-5.16078e-21
-5.15884e-21
-5.1605e-21
-5.1625e-21
-5.16097e-21
-5.1633e-21
-5.16067e-21
-5.16282e-21
-5.1617e-21
-5.1648e-21
-5.16074e-21
-5.16303e-21
-5.1601e-21
-5.16139e-21
-5.15698e-21
-5.16079e-21
-5.15977e-21
-5.16253e-21
-5.16235e-21
-5.16292e-21
-5.16269e-21
-5.16318e-21
-5.16522e-21
-5.16578e-21
-5.16404e-21
-5.16371e-21
-5.16258e-21
-5.1637e-21
-5.16111e-21
-5.1634e-21
-5.16044e-21
-5.16311e-21
-5.16153e-21
-5.16321e-21
-5.16128e-21
-5.1635e-21
-5.16295e-21
-5.16334e-21
-5.16144e-21
-5.16142e-21
-5.16397e-21
-5.16469e-21
-5.16156e-21
-5.16131e-21
-5.16153e-21
-5.16022e-21
-5.15927e-21
-5.16125e-21
-5.16496e-21
-5.16314e-21
-5.1642e-21
-5.15981e-21
-5.16109e-21
-5.16147e-21
-5.16145e-21
-5.16285e-21
-5.16364e-21
-5.15953e-21
-5.16111e-21
-5.1615e-21
-5.16084e-21
-5.15884e-21
-5.16047e-21
-5.16259e-21
-5.16111e-21
-5.16334e-21
-5.16066e-21
-5.16286e-21
-5.16211e-21
-5.16497e-21
-5.1607e-21
-5.16315e-21
-5.16032e-21
-5.1615e-21
-5.15688e-21
-5.16115e-21
-5.16017e-21
-5.16231e-21
-5.16219e-21
-5.16289e-21
-5.1629e-21
-5.16302e-21
-5.16481e-21
-5.16576e-21
-5.16425e-21
-5.1638e-21
-5.1626e-21
-5.16364e-21
-5.16122e-21
-5.16338e-21
-5.16067e-21
-5.16303e-21
-5.16158e-21
-5.1632e-21
-5.16127e-21
-5.16341e-21
-5.1628e-21
-5.16336e-21
-5.16151e-21
-5.16142e-21
-5.1638e-21
-5.16468e-21
-5.16154e-21
-5.16112e-21
-5.16173e-21
-5.16038e-21
-5.1593e-21
-5.16169e-21
-5.1648e-21
-5.16385e-21
-5.16408e-21
-5.15989e-21
-5.16114e-21
-5.16146e-21
-5.16148e-21
-5.16255e-21
-5.1635e-21
-5.15951e-21
-5.16115e-21
-5.16137e-21
-5.1609e-21
-5.15894e-21
-5.16046e-21
-5.1627e-21
-5.16127e-21
-5.16356e-21
-5.16058e-21
-5.16286e-21
-5.16237e-21
-5.16502e-21
-5.16065e-21
-5.16324e-21
-5.1605e-21
-5.16155e-21
-5.15706e-21
-5.16157e-21
-5.16039e-21
-5.16223e-21
-5.16219e-21
-5.16284e-21
-5.163e-21
-5.16296e-21
-5.1643e-21
-5.16573e-21
-5.1643e-21
-5.16409e-21
-5.16263e-21
-5.16359e-21
-5.16119e-21
-5.16343e-21
-5.16076e-21
-5.16301e-21
-5.16163e-21
-5.16325e-21
-5.1613e-21
-5.16344e-21
-5.16279e-21
-5.16339e-21
-5.16163e-21
-5.16127e-21
-5.16376e-21
-5.16466e-21
-5.16159e-21
-5.16114e-21
-5.16172e-21
-5.16036e-21
-5.15944e-21
-5.16176e-21
-5.1648e-21
-5.16483e-21
-5.16374e-21
-5.15978e-21
-5.16119e-21
-5.16152e-21
-5.16155e-21
-5.16238e-21
-5.16381e-21
-5.15948e-21
-5.16119e-21
-5.16125e-21
-5.16095e-21
-5.15903e-21
-5.16046e-21
-5.16257e-21
-5.16134e-21
-5.16375e-21
-5.16055e-21
-5.16283e-21
-5.16244e-21
-5.16505e-21
-5.16062e-21
-5.16315e-21
-5.16055e-21
-5.16152e-21
-5.1572e-21
-5.16186e-21
-5.16042e-21
-5.16217e-21
-5.16229e-21
-5.16274e-21
-5.16305e-21
-5.16303e-21
-5.16412e-21
-5.16579e-21
-5.16446e-21
-5.16425e-21
-5.16266e-21
-5.16355e-21
-5.16119e-21
-5.1634e-21
-5.16085e-21
-5.16299e-21
-5.16172e-21
-5.16332e-21
-5.16139e-21
-5.16345e-21
-5.16278e-21
-5.16331e-21
-5.16177e-21
-5.16109e-21
-5.16375e-21
-5.16461e-21
-5.16166e-21
-5.16129e-21
-5.16172e-21
-5.16031e-21
-5.15943e-21
-5.16157e-21
-5.16486e-21
-5.16481e-21
-5.16336e-21
-5.15983e-21
-5.16125e-21
-5.16167e-21
-5.16161e-21
-5.16226e-21
-5.16393e-21
-5.1595e-21
-5.16124e-21
-5.16133e-21
-5.16095e-21
-5.15903e-21
-5.16043e-21
-5.16237e-21
-5.16141e-21
-5.16358e-21
-5.16054e-21
-5.16268e-21
-5.16253e-21
-5.16503e-21
-5.16061e-21
-5.16302e-21
-5.16064e-21
-5.1615e-21
-5.15736e-21
-5.16214e-21
-5.16043e-21
-5.16214e-21
-5.16241e-21
-5.16265e-21
-5.16297e-21
-5.16314e-21
-5.16423e-21
-5.16598e-21
-5.16466e-21
-5.16432e-21
-5.16269e-21
-5.16355e-21
-5.16117e-21
-5.16335e-21
-5.16088e-21
-5.16298e-21
-5.16176e-21
-5.16335e-21
-5.16153e-21
-5.16345e-21
-5.16276e-21
-5.16318e-21
-5.16181e-21
-5.16104e-21
-5.16387e-21
-5.16442e-21
-5.16172e-21
-5.16134e-21
-5.16167e-21
-5.16041e-21
-5.15922e-21
-5.16169e-21
-5.16493e-21
-5.16436e-21
-5.16301e-21
-5.16016e-21
-5.1613e-21
-5.16177e-21
-5.16161e-21
-5.16225e-21
-5.16366e-21
-5.1596e-21
-5.16138e-21
-5.16128e-21
-5.16092e-21
-5.15904e-21
-5.1604e-21
-5.16239e-21
-5.16145e-21
-5.16316e-21
-5.16053e-21
-5.16253e-21
-5.16261e-21
-5.16478e-21
-5.16067e-21
-5.16291e-21
-5.16063e-21
-5.16147e-21
-5.15773e-21
-5.16213e-21
-5.1605e-21
-5.16202e-21
-5.1625e-21
-5.16262e-21
-5.1629e-21
-5.16326e-21
-5.16438e-21
-5.16608e-21
-5.16476e-21
-5.16452e-21
-5.16274e-21
-5.16356e-21
-5.16113e-21
-5.16332e-21
-5.16088e-21
-5.16293e-21
-5.16191e-21
-5.16336e-21
-5.16164e-21
-5.16346e-21
-5.16272e-21
-5.16307e-21
-5.16189e-21
-5.16109e-21
-5.16401e-21
-5.16419e-21
-5.16178e-21
-5.16145e-21
-5.16128e-21
-5.16046e-21
-5.1591e-21
-5.16154e-21
-5.16497e-21
-5.16417e-21
-5.16281e-21
-5.16052e-21
-5.16128e-21
-5.16189e-21
-5.16158e-21
-5.16224e-21
-5.1636e-21
-5.1597e-21
-5.16151e-21
-5.16101e-21
-5.16094e-21
-5.1592e-21
-5.16039e-21
-5.16245e-21
-5.16148e-21
-5.16264e-21
-5.16052e-21
-5.16251e-21
-5.16263e-21
-5.16432e-21
-5.16069e-21
-5.16285e-21
-5.16043e-21
-5.16151e-21
-5.15819e-21
-5.16201e-21
-5.16055e-21
-5.16189e-21
-5.1624e-21
-5.16266e-21
-5.16292e-21
-5.16335e-21
-5.16452e-21
-5.16597e-21
-5.16473e-21
-5.16481e-21
-5.16273e-21
-5.16358e-21
-5.16114e-21
-5.16328e-21
-5.16089e-21
-5.16289e-21
-5.16208e-21
-5.16333e-21
-5.16169e-21
-5.16346e-21
-5.16262e-21
-5.16303e-21
-5.16195e-21
-5.16108e-21
-5.16413e-21
-5.16391e-21
-5.16181e-21
-5.16155e-21
-5.16089e-21
-5.16039e-21
-5.15964e-21
-5.1612e-21
-5.16501e-21
-5.16373e-21
-5.16332e-21
-5.16079e-21
-5.16126e-21
-5.16202e-21
-5.16155e-21
-5.16218e-21
-5.16358e-21
-5.15976e-21
-5.16155e-21
-5.1604e-21
-5.16098e-21
-5.15939e-21
-5.16038e-21
-5.16246e-21
-5.16154e-21
-5.16253e-21
-5.16051e-21
-5.16252e-21
-5.16261e-21
-5.16402e-21
-5.1606e-21
-5.16278e-21
-5.16025e-21
-5.16157e-21
-5.15842e-21
-5.16209e-21
-5.16059e-21
-5.16181e-21
-5.16211e-21
-5.16259e-21
-5.16294e-21
-5.16342e-21
-5.16463e-21
-5.16579e-21
-5.16462e-21
-5.16504e-21
-5.16266e-21
-5.16362e-21
-5.16115e-21
-5.16312e-21
-5.16091e-21
-5.16288e-21
-5.16216e-21
-5.16335e-21
-5.16172e-21
-5.16348e-21
-5.16257e-21
-5.16302e-21
-5.16194e-21
-5.1609e-21
-5.16406e-21
-5.16363e-21
-5.16181e-21
-5.16157e-21
-5.16081e-21
-5.16027e-21
-5.1605e-21
-5.16108e-21
-5.16505e-21
-5.16338e-21
-5.16464e-21
-5.16104e-21
-5.16128e-21
-5.162e-21
-5.16154e-21
-5.16191e-21
-5.16355e-21
-5.15989e-21
-5.16157e-21
-5.15993e-21
-5.16103e-21
-5.15957e-21
-5.16042e-21
-5.16247e-21
-5.16161e-21
-5.16262e-21
-5.16044e-21
-5.16257e-21
-5.16258e-21
-5.16395e-21
-5.1605e-21
-5.16273e-21
-5.16032e-21
-5.16173e-21
-5.15847e-21
-5.16219e-21
-5.16058e-21
-5.16216e-21
-5.16199e-21
-5.16235e-21
-5.16296e-21
-5.16344e-21
-5.16458e-21
-5.16579e-21
-5.16464e-21
-5.16508e-21
-5.16261e-21
-5.16365e-21
-5.16119e-21
-5.16292e-21
-5.16092e-21
-5.16289e-21
-5.16224e-21
-5.16341e-21
-5.16174e-21
-5.16349e-21
-5.16256e-21
-5.16308e-21
-5.16205e-21
-5.16103e-21
-5.16397e-21
-5.16343e-21
-5.16179e-21
-5.16152e-21
-5.16056e-21
-5.16005e-21
-5.16121e-21
-5.16078e-21
-5.16511e-21
-5.16378e-21
-5.16521e-21
-5.16126e-21
-5.16132e-21
-5.16166e-21
-5.16154e-21
-5.16162e-21
-5.1635e-21
-5.15996e-21
-5.1616e-21
-5.15978e-21
-5.16124e-21
-5.15986e-21
-5.1607e-21
-5.16244e-21
-5.16174e-21
-5.1621e-21
-5.16038e-21
-5.16285e-21
-5.16255e-21
-5.16399e-21
-5.16045e-21
-5.16271e-21
-5.16043e-21
-5.16196e-21
-5.1585e-21
-5.16221e-21
-5.16055e-21
-5.16295e-21
-5.16239e-21
-5.16219e-21
-5.16301e-21
-5.16346e-21
-5.16425e-21
-5.16606e-21
-5.16481e-21
-5.16508e-21
-5.16269e-21
-5.16369e-21
-5.16122e-21
-5.16277e-21
-5.16097e-21
-5.1629e-21
-5.16232e-21
-5.16344e-21
-5.16179e-21
-5.16349e-21
-5.16258e-21
-5.16313e-21
-5.1622e-21
-5.16147e-21
-5.16409e-21
-5.16313e-21
-5.1618e-21
-5.16161e-21
-5.16022e-21
-5.16014e-21
-5.16192e-21
-5.16079e-21
-5.16516e-21
-5.16451e-21
-5.16529e-21
-5.16145e-21
-5.16144e-21
-5.16136e-21
-5.16157e-21
-5.16142e-21
-5.16328e-21
-5.15996e-21
-5.1617e-21
-5.15941e-21
-5.16134e-21
-5.15988e-21
-5.16145e-21
-5.1624e-21
-5.1619e-21
-5.16121e-21
-5.1604e-21
-5.16324e-21
-5.16251e-21
-5.16412e-21
-5.16045e-21
-5.16272e-21
-5.16041e-21
-5.16209e-21
-5.15837e-21
-5.16229e-21
-5.16058e-21
-5.16355e-21
-5.1627e-21
-5.16215e-21
-5.16291e-21
-5.1635e-21
-5.16394e-21
-5.16613e-21
-5.16488e-21
-5.16514e-21
-5.16304e-21
-5.16372e-21
-5.16125e-21
-5.16264e-21
-5.16105e-21
-5.16293e-21
-5.16235e-21
-5.16349e-21
-5.16185e-21
-5.16348e-21
-5.16259e-21
-5.16308e-21
-5.16219e-21
-5.16176e-21
-5.16433e-21
-5.16317e-21
-5.16181e-21
-5.1618e-21
-5.1602e-21
-5.16034e-21
-5.16259e-21
-5.16148e-21
-5.16522e-21
-5.16494e-21
-5.16567e-21
-5.16149e-21
-5.16158e-21
-5.16165e-21
-5.16176e-21
-5.16154e-21
-5.16324e-21
-5.16e-21
-5.16169e-21
-5.15908e-21
-5.16127e-21
-5.15977e-21
-5.16232e-21
-5.16241e-21
-5.16197e-21
-5.16034e-21
-5.16047e-21
-5.16356e-21
-5.16249e-21
-5.1643e-21
-5.1605e-21
-5.16272e-21
-5.16027e-21
-5.16215e-21
-5.15813e-21
-5.16235e-21
-5.16068e-21
-5.16396e-21
-5.16254e-21
-5.16213e-21
-5.16297e-21
-5.16352e-21
-5.16392e-21
-5.16605e-21
-5.16485e-21
-5.16498e-21
-5.16339e-21
-5.16365e-21
-5.16134e-21
-5.16254e-21
-5.1613e-21
-5.16296e-21
-5.16227e-21
-5.1635e-21
-5.16192e-21
-5.16341e-21
-5.16254e-21
-5.16297e-21
-5.16214e-21
-5.16191e-21
-5.16457e-21
-5.16355e-21
-5.16182e-21
-5.16204e-21
-5.16034e-21
-5.16018e-21
-5.16292e-21
-5.16227e-21
-5.16524e-21
-5.16509e-21
-5.16568e-21
-5.16165e-21
-5.16177e-21
-5.16174e-21
-5.16207e-21
-5.16209e-21
-5.16323e-21
-5.16004e-21
-5.16155e-21
-5.15908e-21
-5.16132e-21
-5.16012e-21
-5.1629e-21
-5.16239e-21
-5.16196e-21
-5.15985e-21
-5.16055e-21
-5.16374e-21
-5.16245e-21
-5.16441e-21
-5.16089e-21
-5.16272e-21
-5.1602e-21
-5.16217e-21
-5.15801e-21
-5.1623e-21
-5.16077e-21
-5.16415e-21
-5.16254e-21
-5.16211e-21
-5.16321e-21
-5.16347e-21
-5.164e-21
-5.16618e-21
-5.16491e-21
-5.16459e-21
-5.16361e-21
-5.16362e-21
-5.16155e-21
-5.16253e-21
-5.16154e-21
-5.16297e-21
-5.16219e-21
-5.16356e-21
-5.16208e-21
-5.16324e-21
-5.16247e-21
-5.1629e-21
-5.16214e-21
-5.16194e-21
-5.16472e-21
-5.16378e-21
-5.1618e-21
-5.16223e-21
-5.16043e-21
-5.15981e-21
-5.16298e-21
-5.16238e-21
-5.16506e-21
-5.16559e-21
-5.16551e-21
-5.16182e-21
-5.16172e-21
-5.16148e-21
-5.16204e-21
-5.16266e-21
-5.16285e-21
-5.16008e-21
-5.16135e-21
-5.15945e-21
-5.1615e-21
-5.16054e-21
-5.16316e-21
-5.16236e-21
-5.16195e-21
-5.16e-21
-5.1606e-21
-5.16377e-21
-5.1624e-21
-5.16445e-21
-5.1613e-21
-5.16273e-21
-5.16024e-21
-5.1622e-21
-5.15806e-21
-5.16222e-21
-5.16076e-21
-5.16386e-21
-5.16275e-21
-5.16209e-21
-5.16332e-21
-5.16335e-21
-5.16389e-21
-5.16627e-21
-5.16487e-21
-5.16439e-21
-5.1639e-21
-5.16361e-21
-5.16171e-21
-5.16259e-21
-5.16165e-21
-5.16288e-21
-5.16217e-21
-5.16364e-21
-5.16235e-21
-5.16306e-21
-5.16252e-21
-5.16281e-21
-5.16218e-21
-5.16188e-21
-5.16482e-21
-5.16379e-21
-5.16177e-21
-5.1621e-21
-5.1607e-21
-5.15982e-21
-5.16322e-21
-5.16209e-21
-5.16486e-21
-5.16568e-21
-5.16452e-21
-5.16196e-21
-5.16145e-21
-5.16114e-21
-5.16156e-21
-5.16292e-21
-5.16256e-21
-5.16014e-21
-5.16119e-21
-5.16008e-21
-5.16144e-21
-5.16091e-21
-5.16316e-21
-5.16234e-21
-5.16195e-21
-5.16043e-21
-5.16059e-21
-5.16377e-21
-5.16232e-21
-5.16444e-21
-5.16153e-21
-5.16273e-21
-5.1603e-21
-5.16224e-21
-5.15813e-21
-5.16214e-21
-5.16075e-21
-5.16333e-21
-5.16289e-21
-5.16207e-21
-5.16364e-21
-5.16326e-21
-5.16387e-21
-5.16594e-21
-5.16474e-21
-5.16453e-21
-5.16389e-21
-5.16347e-21
-5.16161e-21
-5.16263e-21
-5.16194e-21
-5.16275e-21
-5.16211e-21
-5.16364e-21
-5.16249e-21
-5.16298e-21
-5.16264e-21
-5.16272e-21
-5.16226e-21
-5.16186e-21
-5.16474e-21
-5.16375e-21
-5.16178e-21
-5.1619e-21
-5.16095e-21
-5.16013e-21
-5.16346e-21
-5.16196e-21
-5.16468e-21
-5.16517e-21
-5.16317e-21
-5.16193e-21
-5.16126e-21
-5.16083e-21
-5.16106e-21
-5.16256e-21
-5.16222e-21
-5.1602e-21
-5.16133e-21
-5.16044e-21
-5.16093e-21
-5.161e-21
-5.16314e-21
-5.16246e-21
-5.1619e-21
-5.16071e-21
-5.16058e-21
-5.16379e-21
-5.16209e-21
-5.16437e-21
-5.16177e-21
-5.16269e-21
-5.16033e-21
-5.16228e-21
-5.15816e-21
-5.16213e-21
-5.16076e-21
-5.16296e-21
-5.16298e-21
-5.16206e-21
-5.16374e-21
-5.16329e-21
-5.16392e-21
-5.16569e-21
-5.16454e-21
-5.16483e-21
-5.16374e-21
-5.16328e-21
-5.16144e-21
-5.16267e-21
-5.16224e-21
-5.1627e-21
-5.16205e-21
-5.16363e-21
-5.16247e-21
-5.16295e-21
-5.16278e-21
-5.16272e-21
-5.16238e-21
-5.16186e-21
-5.16425e-21
-5.16364e-21
-5.16181e-21
-5.16167e-21
-5.16099e-21
-5.16052e-21
-5.1636e-21
-5.16158e-21
-5.16433e-21
-5.16421e-21
-5.16258e-21
-5.16166e-21
-5.16119e-21
-5.16084e-21
-5.16098e-21
-5.16193e-21
-5.16192e-21
-5.16027e-21
-5.16149e-21
-5.16055e-21
-5.16056e-21
-5.161e-21
-5.16326e-21
-5.16246e-21
-5.16173e-21
-5.16079e-21
-5.16062e-21
-5.16384e-21
-5.1619e-21
-5.16438e-21
-5.16188e-21
-5.16274e-21
-5.16038e-21
-5.1623e-21
-5.15825e-21
-5.16214e-21
-5.16082e-21
-5.16291e-21
-5.16313e-21
-5.16215e-21
-5.16337e-21
-5.16331e-21
-5.16366e-21
-5.16574e-21
-5.16412e-21
-5.16513e-21
-5.16351e-21
-5.16295e-21
-5.16137e-21
-5.16267e-21
-5.16231e-21
-5.16272e-21
-5.16204e-21
-5.16361e-21
-5.16244e-21
-5.16295e-21
-5.16293e-21
-5.16279e-21
-5.16245e-21
-5.16185e-21
-5.16375e-21
-5.16351e-21
-5.16194e-21
-5.16148e-21
-5.16089e-21
-5.16104e-21
-5.1635e-21
-5.16099e-21
-5.16406e-21
-5.16326e-21
-5.16252e-21
-5.16141e-21
-5.16116e-21
-5.16102e-21
-5.16114e-21
-5.16158e-21
-5.16179e-21
-5.16033e-21
-5.16152e-21
-5.16097e-21
-5.16038e-21
-5.1613e-21
-5.16339e-21
-5.16228e-21
-5.16148e-21
-5.16102e-21
-5.16078e-21
-5.16378e-21
-5.16197e-21
-5.16442e-21
-5.16199e-21
-5.16285e-21
-5.16043e-21
-5.16235e-21
-5.15837e-21
-5.16216e-21
-5.16084e-21
-5.16295e-21
-5.16319e-21
-5.16223e-21
-5.1631e-21
-5.16326e-21
-5.16344e-21
-5.1659e-21
-5.16381e-21
-5.16525e-21
-5.16324e-21
-5.16272e-21
-5.16138e-21
-5.16265e-21
-5.16229e-21
-5.16276e-21
-5.16204e-21
-5.16343e-21
-5.1624e-21
-5.16305e-21
-5.16309e-21
-5.16285e-21
-5.16252e-21
-5.16183e-21
-5.16365e-21
-5.1634e-21
-5.16193e-21
-5.16155e-21
-5.16077e-21
-5.16129e-21
-5.16362e-21
-5.16096e-21
-5.16365e-21
-5.1627e-21
-5.16281e-21
-5.16125e-21
-5.16118e-21
-5.16126e-21
-5.16117e-21
-5.16152e-21
-5.16169e-21
-5.16039e-21
-5.16154e-21
-5.1615e-21
-5.16022e-21
-5.16196e-21
-5.1635e-21
-5.16225e-21
-5.1615e-21
-5.16107e-21
-5.16092e-21
-5.16366e-21
-5.16203e-21
-5.16435e-21
-5.16211e-21
-5.16284e-21
-5.16051e-21
-5.16245e-21
-5.15838e-21
-5.16205e-21
-5.16082e-21
-5.16275e-21
-5.16318e-21
-5.16218e-21
-5.16303e-21
-5.16306e-21
-5.16296e-21
-5.16572e-21
-5.16372e-21
-5.16505e-21
-5.16291e-21
-5.16278e-21
-5.16142e-21
-5.16265e-21
-5.16223e-21
-5.16281e-21
-5.1621e-21
-5.16325e-21
-5.16246e-21
-5.16317e-21
-5.16333e-21
-5.16281e-21
-5.16256e-21
-5.16182e-21
-5.16357e-21
-5.16324e-21
-5.1618e-21
-5.16144e-21
-5.16075e-21
-5.1613e-21
-5.16392e-21
-5.16152e-21
-5.16329e-21
-5.16257e-21
-5.16304e-21
-5.16126e-21
-5.16127e-21
-5.16168e-21
-5.16118e-21
-5.16152e-21
-5.16167e-21
-5.16037e-21
-5.16157e-21
-5.16168e-21
-5.16e-21
-5.16271e-21
-5.16353e-21
-5.16224e-21
-5.16168e-21
-5.16106e-21
-5.16103e-21
-5.16364e-21
-5.16181e-21
-5.16424e-21
-5.16224e-21
-5.1629e-21
-5.16056e-21
-5.16253e-21
-5.15821e-21
-5.16178e-21
-5.16081e-21
-5.16256e-21
-5.163e-21
-5.16236e-21
-5.16302e-21
-5.16273e-21
-5.16252e-21
-5.16559e-21
-5.16398e-21
-5.16466e-21
-5.16224e-21
-5.1629e-21
-5.16148e-21
-5.16267e-21
-5.16222e-21
-5.16285e-21
-5.16218e-21
-5.16313e-21
-5.16266e-21
-5.16322e-21
-5.1634e-21
-5.16282e-21
-5.16258e-21
-5.16183e-21
-5.16326e-21
-5.16287e-21
-5.16178e-21
-5.1611e-21
-5.16072e-21
-5.1611e-21
-5.16353e-21
-5.16198e-21
-5.16331e-21
-5.16251e-21
-5.16264e-21
-5.16142e-21
-5.16127e-21
-5.16206e-21
-5.16116e-21
-5.16169e-21
-5.1616e-21
-5.16034e-21
-5.16165e-21
-5.16166e-21
-5.15963e-21
-5.16277e-21
-5.16326e-21
-5.16225e-21
-5.16182e-21
-5.16123e-21
-5.16116e-21
-5.16361e-21
-5.16175e-21
-5.16411e-21
-5.16233e-21
-5.16306e-21
-5.16054e-21
-5.16258e-21
-5.15781e-21
-5.16162e-21
-5.16081e-21
-5.16266e-21
-5.16285e-21
-5.16257e-21
-5.16284e-21
-5.16254e-21
-5.16251e-21
-5.16592e-21
-5.16399e-21
-5.16431e-21
-5.16177e-21
-5.16307e-21
-5.16151e-21
-5.16263e-21
-5.16226e-21
-5.16286e-21
-5.16222e-21
-5.16294e-21
-5.16276e-21
-5.16317e-21
-5.16334e-21
-5.16291e-21
-5.16264e-21
-5.16185e-21
-5.16264e-21
-5.16231e-21
-5.16178e-21
-5.16122e-21
-5.16061e-21
-5.16074e-21
-5.16302e-21
-5.16187e-21
-5.16338e-21
-5.16224e-21
-5.16185e-21
-5.1618e-21
-5.16123e-21
-5.16198e-21
-5.16114e-21
-5.16187e-21
-5.16155e-21
-5.16034e-21
-5.16172e-21
-5.16158e-21
-5.15968e-21
-5.16241e-21
-5.16297e-21
-5.16227e-21
-5.1619e-21
-5.16118e-21
-5.16125e-21
-5.16357e-21
-5.16176e-21
-5.16401e-21
-5.16235e-21
-5.16319e-21
-5.16051e-21
-5.16266e-21
-5.15748e-21
-5.16132e-21
-5.16093e-21
-5.16291e-21
-5.16292e-21
-5.16242e-21
-5.16273e-21
-5.16254e-21
-5.16235e-21
-5.16605e-21
-5.16344e-21
-5.16403e-21
-5.1616e-21
-5.16318e-21
-5.16147e-21
-5.1626e-21
-5.16231e-21
-5.16291e-21
-5.16226e-21
-5.16273e-21
-5.16274e-21
-5.16305e-21
-5.16331e-21
-5.16287e-21
-5.16271e-21
-5.16188e-21
-5.16228e-21
-5.16202e-21
-5.1618e-21
-5.16155e-21
-5.1604e-21
-5.16054e-21
-5.16244e-21
-5.16134e-21
-5.16348e-21
-5.16267e-21
-5.1611e-21
-5.16196e-21
-5.16116e-21
-5.16209e-21
-5.16112e-21
-5.162e-21
-5.16157e-21
-5.16037e-21
-5.16162e-21
-5.16149e-21
-5.15996e-21
-5.16221e-21
-5.16286e-21
-5.16229e-21
-5.16173e-21
-5.16109e-21
-5.16135e-21
-5.16353e-21
-5.1616e-21
-5.16392e-21
-5.16236e-21
-5.16335e-21
-5.16054e-21
-5.16272e-21
-5.15749e-21
-5.16099e-21
-5.16095e-21
-5.16311e-21
-5.1629e-21
-5.1624e-21
-5.16288e-21
-5.16253e-21
-5.16231e-21
-5.16601e-21
-5.16307e-21
-5.16386e-21
-5.16156e-21
-5.1632e-21
-5.16143e-21
-5.16258e-21
-5.16233e-21
-5.16293e-21
-5.16227e-21
-5.1626e-21
-5.16273e-21
-5.16297e-21
-5.1633e-21
-5.16277e-21
-5.16276e-21
-5.16191e-21
-5.162e-21
-5.16204e-21
-5.16182e-21
-5.16166e-21
-5.16029e-21
-5.16066e-21
-5.16221e-21
-5.16132e-21
-5.16359e-21
-5.16345e-21
-5.16053e-21
-5.16174e-21
-5.1611e-21
-5.16233e-21
-5.16102e-21
-5.16211e-21
-5.16157e-21
-5.16045e-21
-5.16149e-21
-5.16143e-21
-5.16011e-21
-5.16238e-21
-5.1627e-21
-5.16228e-21
-5.1614e-21
-5.16115e-21
-5.16144e-21
-5.1635e-21
-5.16133e-21
-5.16384e-21
-5.1623e-21
-5.1634e-21
-5.16057e-21
-5.16279e-21
-5.15757e-21
-5.16068e-21
-5.16091e-21
-5.16314e-21
-5.16305e-21
-5.16253e-21
-5.16303e-21
-5.16245e-21
-5.16259e-21
-5.1658e-21
-5.16313e-21
-5.16369e-21
-5.16154e-21
-5.16321e-21
-5.16142e-21
-5.16255e-21
-5.16235e-21
-5.16291e-21
-5.16227e-21
-5.16255e-21
-5.16272e-21
-5.16292e-21
-5.1633e-21
-5.1627e-21
-5.1628e-21
-5.16195e-21
-5.16171e-21
-5.16241e-21
-5.16187e-21
-5.16195e-21
-5.16039e-21
-5.16089e-21
-5.16246e-21
-5.1621e-21
-5.1637e-21
-5.16385e-21
-5.16026e-21
-5.16178e-21
-5.16105e-21
-5.16218e-21
-5.16101e-21
-5.16211e-21
-5.16154e-21
-5.16046e-21
-5.16136e-21
-5.16123e-21
-5.16062e-21
-5.16258e-21
-5.16254e-21
-5.16214e-21
-5.16123e-21
-5.16117e-21
-5.16147e-21
-5.16342e-21
-5.16108e-21
-5.16381e-21
-5.16215e-21
-5.16331e-21
-5.16064e-21
-5.16286e-21
-5.15767e-21
-5.16028e-21
-5.16094e-21
-5.16282e-21
-5.16323e-21
-5.16254e-21
-5.16322e-21
-5.16243e-21
-5.16281e-21
-5.16528e-21
-5.16333e-21
-5.16351e-21
-5.16151e-21
-5.16327e-21
-5.16147e-21
-5.16251e-21
-5.16239e-21
-5.16293e-21
-5.1623e-21
-5.16253e-21
-5.16267e-21
-5.16291e-21
-5.16329e-21
-5.16273e-21
-5.16286e-21
-5.16209e-21
-5.16195e-21
-5.16275e-21
-5.1619e-21
-5.16222e-21
-5.16047e-21
-5.16092e-21
-5.1626e-21
-5.16273e-21
-5.16378e-21
-5.16385e-21
-5.16026e-21
-5.16193e-21
-5.16101e-21
-5.1618e-21
-5.16103e-21
-5.16209e-21
-5.1615e-21
-5.16049e-21
-5.16117e-21
-5.16108e-21
-5.16126e-21
-5.16257e-21
-5.16247e-21
-5.16191e-21
-5.16121e-21
-5.16111e-21
-5.16151e-21
-5.16335e-21
-5.16099e-21
-5.16379e-21
-5.16194e-21
-5.16312e-21
-5.16068e-21
-5.16291e-21
-5.15774e-21
-5.16009e-21
-5.16092e-21
-5.16243e-21
-5.1629e-21
-5.16252e-21
-5.16343e-21
-5.16238e-21
-5.16294e-21
-5.16446e-21
-5.16323e-21
-5.16342e-21
-5.16154e-21
-5.16327e-21
-5.16158e-21
-5.16251e-21
-5.16239e-21
-5.16295e-21
-5.16235e-21
-5.16249e-21
-5.16262e-21
-5.16292e-21
-5.1633e-21
-5.16288e-21
-5.16288e-21
-5.16214e-21
-5.16226e-21
-5.16261e-21
-5.16177e-21
-5.16226e-21
-5.1604e-21
-5.161e-21
-5.16247e-21
-5.16283e-21
-5.16351e-21
-5.16375e-21
-5.1605e-21
-5.1619e-21
-5.16111e-21
-5.16156e-21
-5.16097e-21
-5.16206e-21
-5.16144e-21
-5.16057e-21
-5.16099e-21
-5.16134e-21
-5.16148e-21
-5.16239e-21
-5.16242e-21
-5.16191e-21
-5.16124e-21
-5.16108e-21
-5.16152e-21
-5.16332e-21
-5.16093e-21
-5.16379e-21
-5.16192e-21
-5.16303e-21
-5.16057e-21
-5.16291e-21
-5.1578e-21
-5.16018e-21
-5.16084e-21
-5.1624e-21
-5.16282e-21
-5.16255e-21
-5.16327e-21
-5.16238e-21
-5.1633e-21
-5.1634e-21
-5.163e-21
-5.16329e-21
-5.16172e-21
-5.16315e-21
-5.16169e-21
-5.16252e-21
-5.16245e-21
-5.16294e-21
-5.16239e-21
-5.16245e-21
-5.1626e-21
-5.16291e-21
-5.16332e-21
-5.16296e-21
-5.16288e-21
-5.16205e-21
-5.1625e-21
-5.16209e-21
-5.16165e-21
-5.16224e-21
-5.16031e-21
-5.16114e-21
-5.16219e-21
-5.16298e-21
-5.16274e-21
-5.16342e-21
-5.16073e-21
-5.16161e-21
-5.16138e-21
-5.16154e-21
-5.16098e-21
-5.16194e-21
-5.16139e-21
-5.16061e-21
-5.16092e-21
-5.16182e-21
-5.16122e-21
-5.16218e-21
-5.16253e-21
-5.16204e-21
-5.16121e-21
-5.16104e-21
-5.16153e-21
-5.16331e-21
-5.16065e-21
-5.16386e-21
-5.162e-21
-5.16308e-21
-5.16045e-21
-5.1631e-21
-5.158e-21
-5.16039e-21
-5.16104e-21
-5.16256e-21
-5.16319e-21
-5.16228e-21
-5.1628e-21
-5.16216e-21