/*--------------------------------*- C++ -*----------------------------------*\
| =========                 |                                                 |
| \\      /  F ield         | foam-extend: Open Source CFD                    |
|  \\    /   O peration     | Version:     4.0                                |
|   \\  /    A nd           | Web:         http://www.foam-extend.org         |
|    \\/     M anipulation  |                                                 |
\*---------------------------------------------------------------------------*/
FoamFile
{
    version     2.0;
    format      ascii;
    class       volScalarField;
    location    "620";
    object      cPlus;
}
// * * * * * * * * * * * * * * * * * * * * * * * * * * * * * * * * * * * * * //

dimensions      [0 0 0 0 0 0 0];

internalField   nonuniform List<scalar> 
6960
(
0.216684
0.216616
0.216565
0.216532
0.216513
0.216502
0.216495
0.216492
0.21649
0.216488
0.216488
0.216487
0.216487
0.216487
0.216487
0.216486
0.216486
0.216486
0.216486
0.216486
0.216486
0.216486
0.216486
0.216486
0.216486
0.216486
0.216486
0.216486
0.216486
0.216486
0.216486
0.216486
0.216486
0.216486
0.216486
0.216486
0.216486
0.216486
0.216486
0.216486
0.216486
0.216486
0.216486
0.216486
0.216486
0.216487
0.216487
0.216487
0.216487
0.216488
0.216488
0.21649
0.216492
0.216495
0.216502
0.216513
0.216532
0.216565
0.216616
0.216684
0.0519834
0.0519629
0.0519463
0.0519357
0.0519293
0.0519256
0.0519235
0.0519223
0.0519216
0.0519212
0.0519209
0.0519208
0.0519207
0.0519206
0.0519206
0.0519205
0.0519205
0.0519205
0.0519205
0.0519205
0.0519205
0.0519205
0.0519205
0.0519205
0.0519205
0.0519205
0.0519205
0.0519205
0.0519205
0.0519205
0.0519205
0.0519205
0.0519205
0.0519205
0.0519205
0.0519205
0.0519205
0.0519205
0.0519205
0.0519205
0.0519205
0.0519205
0.0519205
0.0519205
0.0519205
0.0519206
0.0519206
0.0519207
0.0519208
0.0519209
0.0519212
0.0519216
0.0519223
0.0519235
0.0519256
0.0519293
0.0519357
0.0519463
0.0519629
0.0519834
0.0232894
0.0232898
0.0232888
0.0232881
0.0232876
0.0232873
0.0232871
0.0232869
0.0232869
0.0232868
0.0232868
0.0232868
0.0232868
0.0232868
0.0232868
0.0232868
0.0232868
0.0232868
0.0232868
0.0232868
0.0232868
0.0232868
0.0232869
0.0232869
0.0232869
0.0232869
0.0232869
0.0232869
0.0232869
0.0232869
0.0232869
0.0232869
0.0232869
0.0232869
0.0232869
0.0232869
0.0232869
0.0232869
0.0232868
0.0232868
0.0232868
0.0232868
0.0232868
0.0232868
0.0232868
0.0232868
0.0232868
0.0232868
0.0232868
0.0232868
0.0232868
0.0232869
0.0232869
0.0232871
0.0232873
0.0232876
0.0232881
0.0232888
0.0232898
0.0232894
0.0181999
0.0182069
0.0182109
0.0182133
0.0182147
0.0182154
0.0182159
0.0182161
0.0182162
0.0182163
0.0182164
0.0182164
0.0182164
0.0182164
0.0182165
0.0182165
0.0182165
0.0182165
0.0182165
0.0182165
0.0182165
0.0182165
0.0182165
0.0182166
0.0182166
0.0182166
0.0182166
0.0182166
0.0182166
0.0182166
0.0182166
0.0182166
0.0182166
0.0182166
0.0182166
0.0182166
0.0182166
0.0182165
0.0182165
0.0182165
0.0182165
0.0182165
0.0182165
0.0182165
0.0182165
0.0182165
0.0182164
0.0182164
0.0182164
0.0182164
0.0182163
0.0182162
0.0182161
0.0182159
0.0182154
0.0182147
0.0182133
0.0182109
0.0182069
0.0181999
0.0174894
0.0174983
0.0175037
0.017507
0.0175088
0.0175099
0.0175105
0.0175108
0.017511
0.0175111
0.0175112
0.0175113
0.0175113
0.0175113
0.0175113
0.0175114
0.0175114
0.0175114
0.0175114
0.0175114
0.0175114
0.0175114
0.0175114
0.0175115
0.0175115
0.0175115
0.0175115
0.0175115
0.0175115
0.0175115
0.0175115
0.0175115
0.0175115
0.0175115
0.0175115
0.0175115
0.0175115
0.0175114
0.0175114
0.0175114
0.0175114
0.0175114
0.0175114
0.0175114
0.0175114
0.0175113
0.0175113
0.0175113
0.0175113
0.0175112
0.0175111
0.017511
0.0175108
0.0175105
0.0175099
0.0175088
0.017507
0.0175037
0.0174983
0.0174894
0.0175899
0.0175995
0.0176053
0.0176088
0.0176109
0.017612
0.0176127
0.017613
0.0176132
0.0176134
0.0176135
0.0176135
0.0176135
0.0176136
0.0176136
0.0176136
0.0176136
0.0176136
0.0176137
0.0176137
0.0176137
0.0176137
0.0176137
0.0176137
0.0176137
0.0176137
0.0176137
0.0176137
0.0176137
0.0176137
0.0176137
0.0176137
0.0176137
0.0176137
0.0176137
0.0176137
0.0176137
0.0176137
0.0176137
0.0176137
0.0176137
0.0176137
0.0176136
0.0176136
0.0176136
0.0176136
0.0176136
0.0176135
0.0176135
0.0176135
0.0176134
0.0176132
0.017613
0.0176127
0.017612
0.0176109
0.0176088
0.0176053
0.0175995
0.0175899
0.0178517
0.0178616
0.0178677
0.0178714
0.0178735
0.0178747
0.0178754
0.0178757
0.017876
0.0178761
0.0178762
0.0178762
0.0178763
0.0178763
0.0178763
0.0178763
0.0178764
0.0178764
0.0178764
0.0178764
0.0178764
0.0178764
0.0178764
0.0178764
0.0178764
0.0178765
0.0178765
0.0178765
0.0178765
0.0178765
0.0178765
0.0178765
0.0178765
0.0178765
0.0178765
0.0178764
0.0178764
0.0178764
0.0178764
0.0178764
0.0178764
0.0178764
0.0178764
0.0178764
0.0178763
0.0178763
0.0178763
0.0178763
0.0178762
0.0178762
0.0178761
0.017876
0.0178757
0.0178754
0.0178747
0.0178735
0.0178714
0.0178677
0.0178616
0.0178517
0.0181627
0.0181729
0.0181792
0.0181829
0.0181851
0.0181864
0.0181871
0.0181875
0.0181877
0.0181878
0.0181879
0.018188
0.018188
0.018188
0.0181881
0.0181881
0.0181881
0.0181881
0.0181881
0.0181881
0.0181882
0.0181882
0.0181882
0.0181882
0.0181882
0.0181882
0.0181882
0.0181882
0.0181882
0.0181882
0.0181882
0.0181882
0.0181882
0.0181882
0.0181882
0.0181882
0.0181882
0.0181882
0.0181882
0.0181882
0.0181881
0.0181881
0.0181881
0.0181881
0.0181881
0.0181881
0.018188
0.018188
0.018188
0.0181879
0.0181878
0.0181877
0.0181875
0.0181871
0.0181864
0.0181851
0.0181829
0.0181792
0.0181729
0.0181627
0.0185066
0.0185171
0.0185236
0.0185275
0.0185298
0.018531
0.0185318
0.0185322
0.0185324
0.0185325
0.0185326
0.0185327
0.0185327
0.0185328
0.0185328
0.0185328
0.0185328
0.0185328
0.0185329
0.0185329
0.0185329
0.0185329
0.0185329
0.0185329
0.0185329
0.0185329
0.0185329
0.0185329
0.0185329
0.0185329
0.0185329
0.0185329
0.0185329
0.0185329
0.0185329
0.0185329
0.0185329
0.0185329
0.0185329
0.0185329
0.0185329
0.0185329
0.0185328
0.0185328
0.0185328
0.0185328
0.0185328
0.0185327
0.0185327
0.0185326
0.0185325
0.0185324
0.0185322
0.0185318
0.018531
0.0185298
0.0185275
0.0185236
0.0185171
0.0185066
0.0188842
0.0188952
0.0189019
0.0189059
0.0189082
0.0189096
0.0189103
0.0189107
0.018911
0.0189111
0.0189112
0.0189113
0.0189113
0.0189114
0.0189114
0.0189114
0.0189114
0.0189114
0.0189115
0.0189115
0.0189115
0.0189115
0.0189115
0.0189115
0.0189115
0.0189115
0.0189115
0.0189115
0.0189115
0.0189115
0.0189115
0.0189115
0.0189115
0.0189115
0.0189115
0.0189115
0.0189115
0.0189115
0.0189115
0.0189115
0.0189115
0.0189115
0.0189114
0.0189114
0.0189114
0.0189114
0.0189114
0.0189113
0.0189113
0.0189112
0.0189111
0.018911
0.0189107
0.0189103
0.0189096
0.0189082
0.0189059
0.0189019
0.0188952
0.0188842
0.0193
0.0193114
0.0193183
0.0193225
0.019325
0.0193263
0.0193271
0.0193276
0.0193278
0.019328
0.0193281
0.0193281
0.0193282
0.0193282
0.0193282
0.0193283
0.0193283
0.0193283
0.0193283
0.0193283
0.0193283
0.0193283
0.0193284
0.0193284
0.0193284
0.0193284
0.0193284
0.0193284
0.0193284
0.0193284
0.0193284
0.0193284
0.0193284
0.0193284
0.0193284
0.0193284
0.0193284
0.0193284
0.0193283
0.0193283
0.0193283
0.0193283
0.0193283
0.0193283
0.0193283
0.0193282
0.0193282
0.0193282
0.0193281
0.0193281
0.019328
0.0193278
0.0193276
0.0193271
0.0193263
0.019325
0.0193225
0.0193183
0.0193114
0.0193
0.0197598
0.0197716
0.0197788
0.0197832
0.0197857
0.0197872
0.019788
0.0197885
0.0197887
0.0197889
0.019789
0.019789
0.0197891
0.0197891
0.0197892
0.0197892
0.0197892
0.0197892
0.0197892
0.0197892
0.0197893
0.0197893
0.0197893
0.0197893
0.0197893
0.0197893
0.0197893
0.0197893
0.0197893
0.0197893
0.0197893
0.0197893
0.0197893
0.0197893
0.0197893
0.0197893
0.0197893
0.0197893
0.0197893
0.0197893
0.0197892
0.0197892
0.0197892
0.0197892
0.0197892
0.0197892
0.0197891
0.0197891
0.019789
0.019789
0.0197889
0.0197887
0.0197885
0.019788
0.0197872
0.0197857
0.0197832
0.0197788
0.0197716
0.0197598
0.0202707
0.020283
0.0202906
0.0202952
0.0202978
0.0202993
0.0203002
0.0203007
0.0203009
0.0203011
0.0203012
0.0203013
0.0203013
0.0203014
0.0203014
0.0203014
0.0203014
0.0203015
0.0203015
0.0203015
0.0203015
0.0203015
0.0203015
0.0203016
0.0203016
0.0203016
0.0203016
0.0203016
0.0203016
0.0203016
0.0203016
0.0203016
0.0203016
0.0203016
0.0203016
0.0203016
0.0203016
0.0203015
0.0203015
0.0203015
0.0203015
0.0203015
0.0203015
0.0203014
0.0203014
0.0203014
0.0203014
0.0203013
0.0203013
0.0203012
0.0203011
0.0203009
0.0203007
0.0203002
0.0202993
0.0202978
0.0202952
0.0202906
0.020283
0.0202707
0.0208417
0.0208547
0.0208627
0.0208674
0.0208702
0.0208718
0.0208727
0.0208732
0.0208735
0.0208737
0.0208738
0.0208739
0.0208739
0.020874
0.020874
0.020874
0.020874
0.0208741
0.0208741
0.0208741
0.0208741
0.0208741
0.0208741
0.0208741
0.0208742
0.0208742
0.0208742
0.0208742
0.0208742
0.0208742
0.0208742
0.0208742
0.0208742
0.0208742
0.0208742
0.0208742
0.0208741
0.0208741
0.0208741
0.0208741
0.0208741
0.0208741
0.0208741
0.020874
0.020874
0.020874
0.020874
0.0208739
0.0208739
0.0208738
0.0208737
0.0208735
0.0208732
0.0208727
0.0208718
0.0208702
0.0208674
0.0208627
0.0208547
0.0208417
0.0214842
0.0214979
0.0215063
0.0215113
0.0215143
0.021516
0.0215169
0.0215175
0.0215178
0.0215179
0.0215181
0.0215181
0.0215182
0.0215182
0.0215183
0.0215183
0.0215183
0.0215183
0.0215184
0.0215184
0.0215184
0.0215184
0.0215184
0.0215184
0.0215184
0.0215185
0.0215185
0.0215185
0.0215185
0.0215185
0.0215185
0.0215185
0.0215185
0.0215185
0.0215185
0.0215184
0.0215184
0.0215184
0.0215184
0.0215184
0.0215184
0.0215184
0.0215183
0.0215183
0.0215183
0.0215183
0.0215182
0.0215182
0.0215181
0.0215181
0.0215179
0.0215178
0.0215175
0.0215169
0.021516
0.0215143
0.0215113
0.0215063
0.0214979
0.0214842
0.0222125
0.0222271
0.022236
0.0222414
0.0222445
0.0222463
0.0222473
0.0222479
0.0222482
0.0222484
0.0222485
0.0222486
0.0222487
0.0222487
0.0222487
0.0222488
0.0222488
0.0222488
0.0222488
0.0222489
0.0222489
0.0222489
0.0222489
0.0222489
0.0222489
0.0222489
0.022249
0.022249
0.022249
0.022249
0.022249
0.022249
0.022249
0.022249
0.0222489
0.0222489
0.0222489
0.0222489
0.0222489
0.0222489
0.0222489
0.0222488
0.0222488
0.0222488
0.0222488
0.0222487
0.0222487
0.0222487
0.0222486
0.0222485
0.0222484
0.0222482
0.0222479
0.0222473
0.0222463
0.0222445
0.0222414
0.022236
0.0222271
0.0222125
0.0230455
0.0230611
0.0230707
0.0230764
0.0230797
0.0230817
0.0230827
0.0230834
0.0230837
0.0230839
0.023084
0.0230841
0.0230842
0.0230842
0.0230843
0.0230843
0.0230843
0.0230844
0.0230844
0.0230844
0.0230844
0.0230844
0.0230845
0.0230845
0.0230845
0.0230845
0.0230845
0.0230845
0.0230845
0.0230845
0.0230845
0.0230845
0.0230845
0.0230845
0.0230845
0.0230845
0.0230845
0.0230845
0.0230844
0.0230844
0.0230844
0.0230844
0.0230844
0.0230843
0.0230843
0.0230843
0.0230842
0.0230842
0.0230841
0.023084
0.0230839
0.0230837
0.0230834
0.0230827
0.0230817
0.0230797
0.0230764
0.0230707
0.0230611
0.0230455
0.0240081
0.0240249
0.0240352
0.0240414
0.024045
0.024047
0.0240482
0.0240489
0.0240493
0.0240495
0.0240496
0.0240497
0.0240498
0.0240498
0.0240499
0.0240499
0.0240499
0.02405
0.02405
0.02405
0.02405
0.0240501
0.0240501
0.0240501
0.0240501
0.0240501
0.0240501
0.0240501
0.0240501
0.0240501
0.0240501
0.0240501
0.0240501
0.0240501
0.0240501
0.0240501
0.0240501
0.0240501
0.0240501
0.02405
0.02405
0.02405
0.02405
0.0240499
0.0240499
0.0240499
0.0240498
0.0240498
0.0240497
0.0240496
0.0240495
0.0240493
0.0240489
0.0240482
0.024047
0.024045
0.0240414
0.0240352
0.0240249
0.0240081
0.0251339
0.0251522
0.0251634
0.0251701
0.0251741
0.0251763
0.0251776
0.0251783
0.0251788
0.025179
0.0251792
0.0251793
0.0251793
0.0251794
0.0251794
0.0251795
0.0251795
0.0251795
0.0251796
0.0251796
0.0251796
0.0251796
0.0251797
0.0251797
0.0251797
0.0251797
0.0251797
0.0251797
0.0251797
0.0251797
0.0251797
0.0251797
0.0251797
0.0251797
0.0251797
0.0251797
0.0251797
0.0251797
0.0251796
0.0251796
0.0251796
0.0251796
0.0251795
0.0251795
0.0251795
0.0251794
0.0251794
0.0251793
0.0251793
0.0251792
0.025179
0.0251788
0.0251783
0.0251776
0.0251763
0.0251741
0.0251701
0.0251634
0.0251522
0.0251339
0.0264699
0.0264901
0.0265024
0.0265099
0.0265143
0.0265168
0.0265182
0.026519
0.0265194
0.0265197
0.0265199
0.02652
0.0265201
0.0265201
0.0265202
0.0265202
0.0265203
0.0265203
0.0265203
0.0265204
0.0265204
0.0265204
0.0265204
0.0265204
0.0265205
0.0265205
0.0265205
0.0265205
0.0265205
0.0265205
0.0265205
0.0265205
0.0265205
0.0265205
0.0265205
0.0265205
0.0265204
0.0265204
0.0265204
0.0265204
0.0265204
0.0265203
0.0265203
0.0265203
0.0265202
0.0265202
0.0265201
0.0265201
0.02652
0.0265199
0.0265197
0.0265194
0.026519
0.0265182
0.0265168
0.0265143
0.0265099
0.0265024
0.0264901
0.0264699
0.0280833
0.028106
0.0281199
0.0281282
0.0281331
0.0281359
0.0281375
0.0281384
0.0281389
0.0281393
0.0281395
0.0281396
0.0281397
0.0281397
0.0281398
0.0281398
0.0281399
0.0281399
0.02814
0.02814
0.02814
0.02814
0.0281401
0.0281401
0.0281401
0.0281401
0.0281401
0.0281401
0.0281402
0.0281402
0.0281402
0.0281402
0.0281401
0.0281401
0.0281401
0.0281401
0.0281401
0.0281401
0.02814
0.02814
0.02814
0.02814
0.0281399
0.0281399
0.0281398
0.0281398
0.0281397
0.0281397
0.0281396
0.0281395
0.0281393
0.0281389
0.0281384
0.0281375
0.0281359
0.0281331
0.0281282
0.0281199
0.028106
0.0280833
0.0300738
0.0300997
0.0301156
0.0301252
0.0301308
0.030134
0.0301358
0.0301368
0.0301374
0.0301378
0.030138
0.0301382
0.0301383
0.0301384
0.0301384
0.0301385
0.0301385
0.0301386
0.0301386
0.0301387
0.0301387
0.0301387
0.0301387
0.0301388
0.0301388
0.0301388
0.0301388
0.0301388
0.0301388
0.0301388
0.0301388
0.0301388
0.0301388
0.0301388
0.0301388
0.0301388
0.0301388
0.0301387
0.0301387
0.0301387
0.0301387
0.0301386
0.0301386
0.0301385
0.0301385
0.0301384
0.0301384
0.0301383
0.0301382
0.030138
0.0301378
0.0301374
0.0301368
0.0301358
0.030134
0.0301308
0.0301252
0.0301156
0.0300997
0.0300738
0.0325925
0.0326228
0.0326415
0.0326528
0.0326594
0.0326632
0.0326653
0.0326665
0.0326673
0.0326677
0.0326679
0.0326681
0.0326682
0.0326683
0.0326684
0.0326685
0.0326685
0.0326686
0.0326686
0.0326687
0.0326687
0.0326688
0.0326688
0.0326688
0.0326688
0.0326689
0.0326689
0.0326689
0.0326689
0.0326689
0.0326689
0.0326689
0.0326689
0.0326689
0.0326689
0.0326688
0.0326688
0.0326688
0.0326688
0.0326687
0.0326687
0.0326686
0.0326686
0.0326685
0.0326685
0.0326684
0.0326683
0.0326682
0.0326681
0.0326679
0.0326677
0.0326673
0.0326665
0.0326653
0.0326632
0.0326594
0.0326528
0.0326415
0.0326228
0.0325925
0.0358722
0.0359088
0.0359314
0.0359451
0.0359531
0.0359577
0.0359604
0.0359618
0.0359627
0.0359632
0.0359635
0.0359637
0.0359639
0.035964
0.0359641
0.0359642
0.0359643
0.0359643
0.0359644
0.0359644
0.0359645
0.0359645
0.0359646
0.0359646
0.0359646
0.0359647
0.0359647
0.0359647
0.0359647
0.0359647
0.0359647
0.0359647
0.0359647
0.0359647
0.0359647
0.0359646
0.0359646
0.0359646
0.0359645
0.0359645
0.0359644
0.0359644
0.0359643
0.0359643
0.0359642
0.0359641
0.035964
0.0359639
0.0359637
0.0359635
0.0359632
0.0359627
0.0359618
0.0359604
0.0359577
0.0359531
0.0359451
0.0359314
0.0359088
0.0358722
0.0402629
0.0403085
0.0403369
0.0403541
0.0403641
0.0403699
0.0403732
0.040375
0.0403761
0.0403768
0.0403772
0.0403774
0.0403776
0.0403778
0.0403779
0.040378
0.0403781
0.0403782
0.0403783
0.0403783
0.0403784
0.0403784
0.0403785
0.0403785
0.0403786
0.0403786
0.0403786
0.0403786
0.0403787
0.0403787
0.0403787
0.0403787
0.0403786
0.0403786
0.0403786
0.0403786
0.0403785
0.0403785
0.0403784
0.0403784
0.0403783
0.0403783
0.0403782
0.0403781
0.040378
0.0403779
0.0403778
0.0403776
0.0403774
0.0403772
0.0403768
0.0403761
0.040375
0.0403732
0.0403699
0.0403641
0.0403541
0.0403369
0.0403085
0.0402629
0.046252
0.0463104
0.0463468
0.046369
0.0463819
0.0463894
0.0463936
0.046396
0.0463974
0.0463983
0.0463988
0.0463991
0.0463994
0.0463996
0.0463997
0.0463999
0.0464
0.0464001
0.0464002
0.0464003
0.0464004
0.0464004
0.0464005
0.0464006
0.0464006
0.0464006
0.0464007
0.0464007
0.0464007
0.0464007
0.0464007
0.0464007
0.0464007
0.0464007
0.0464006
0.0464006
0.0464006
0.0464005
0.0464004
0.0464004
0.0464003
0.0464002
0.0464001
0.0464
0.0463999
0.0463997
0.0463996
0.0463994
0.0463991
0.0463988
0.0463983
0.0463974
0.046396
0.0463936
0.0463894
0.0463819
0.046369
0.0463468
0.0463104
0.046252
0.0544201
0.0544958
0.0545432
0.054572
0.0545889
0.0545986
0.0546041
0.0546073
0.0546091
0.0546102
0.0546109
0.0546113
0.0546116
0.0546119
0.0546121
0.0546123
0.0546124
0.0546126
0.0546127
0.0546128
0.0546129
0.054613
0.0546131
0.0546132
0.0546132
0.0546133
0.0546133
0.0546134
0.0546134
0.0546134
0.0546134
0.0546134
0.0546134
0.0546133
0.0546133
0.0546132
0.0546132
0.0546131
0.054613
0.0546129
0.0546128
0.0546127
0.0546126
0.0546124
0.0546123
0.0546121
0.0546119
0.0546116
0.0546113
0.0546109
0.0546102
0.0546091
0.0546073
0.0546041
0.0545986
0.0545889
0.054572
0.0545432
0.0544958
0.0544201
0.0652902
0.0653873
0.0654482
0.0654853
0.0655071
0.0655196
0.0655267
0.0655308
0.0655331
0.0655345
0.0655354
0.065536
0.0655364
0.0655368
0.065537
0.0655372
0.0655374
0.0655376
0.0655378
0.0655379
0.065538
0.0655382
0.0655383
0.0655384
0.0655385
0.0655385
0.0655386
0.0655386
0.0655386
0.0655387
0.0655387
0.0655386
0.0655386
0.0655386
0.0655385
0.0655385
0.0655384
0.0655383
0.0655382
0.065538
0.0655379
0.0655378
0.0655376
0.0655374
0.0655372
0.065537
0.0655368
0.0655364
0.065536
0.0655354
0.0655345
0.0655331
0.0655308
0.0655267
0.0655196
0.0655071
0.0654853
0.0654482
0.0653873
0.0652902
0.0791057
0.0792267
0.0793026
0.0793488
0.0793761
0.0793917
0.0794007
0.0794058
0.0794087
0.0794105
0.0794116
0.0794123
0.0794128
0.0794132
0.0794136
0.0794138
0.0794141
0.0794143
0.0794145
0.0794147
0.0794148
0.079415
0.0794151
0.0794152
0.0794153
0.0794154
0.0794155
0.0794155
0.0794156
0.0794156
0.0794156
0.0794156
0.0794155
0.0794155
0.0794154
0.0794153
0.0794152
0.0794151
0.079415
0.0794148
0.0794147
0.0794145
0.0794143
0.0794141
0.0794138
0.0794136
0.0794132
0.0794128
0.0794123
0.0794116
0.0794105
0.0794087
0.0794058
0.0794007
0.0793917
0.0793761
0.0793488
0.0793026
0.0792267
0.0791057
0.0956861
0.0958309
0.0959219
0.0959773
0.09601
0.0960288
0.0960396
0.0960458
0.0960493
0.0960515
0.0960528
0.0960537
0.0960543
0.0960548
0.0960552
0.0960555
0.0960558
0.096056
0.0960563
0.0960565
0.0960567
0.0960568
0.096057
0.0960571
0.0960572
0.0960573
0.0960574
0.0960575
0.0960575
0.0960575
0.0960575
0.0960575
0.0960575
0.0960574
0.0960573
0.0960572
0.0960571
0.096057
0.0960568
0.0960567
0.0960565
0.0960563
0.096056
0.0960558
0.0960555
0.0960552
0.0960548
0.0960543
0.0960537
0.0960528
0.0960515
0.0960493
0.0960458
0.0960396
0.0960288
0.09601
0.0959773
0.0959219
0.0958309
0.0956861
0.11449
0.114657
0.114762
0.114826
0.114864
0.114885
0.114898
0.114905
0.114909
0.114912
0.114913
0.114914
0.114915
0.114916
0.114916
0.114916
0.114917
0.114917
0.114917
0.114918
0.114918
0.114918
0.114918
0.114918
0.114918
0.114919
0.114919
0.114919
0.114919
0.114919
0.114919
0.114919
0.114919
0.114919
0.114919
0.114918
0.114918
0.114918
0.114918
0.114918
0.114918
0.114917
0.114917
0.114917
0.114916
0.114916
0.114916
0.114915
0.114914
0.114913
0.114912
0.114909
0.114905
0.114898
0.114885
0.114864
0.114826
0.114762
0.114657
0.11449
0.134841
0.135028
0.135145
0.135216
0.135259
0.135283
0.135297
0.135306
0.13531
0.135313
0.135315
0.135316
0.135317
0.135317
0.135318
0.135318
0.135319
0.135319
0.135319
0.13532
0.13532
0.13532
0.13532
0.13532
0.13532
0.135321
0.135321
0.135321
0.135321
0.135321
0.135321
0.135321
0.135321
0.135321
0.135321
0.13532
0.13532
0.13532
0.13532
0.13532
0.13532
0.135319
0.135319
0.135319
0.135318
0.135318
0.135317
0.135317
0.135316
0.135315
0.135313
0.13531
0.135306
0.135297
0.135283
0.135259
0.135216
0.135145
0.135028
0.134841
0.156141
0.156344
0.156472
0.156551
0.156597
0.156624
0.15664
0.156649
0.156654
0.156657
0.156659
0.156661
0.156662
0.156662
0.156663
0.156663
0.156663
0.156664
0.156664
0.156664
0.156665
0.156665
0.156665
0.156665
0.156665
0.156665
0.156665
0.156666
0.156666
0.156666
0.156666
0.156666
0.156666
0.156665
0.156665
0.156665
0.156665
0.156665
0.156665
0.156665
0.156664
0.156664
0.156664
0.156663
0.156663
0.156663
0.156662
0.156662
0.156661
0.156659
0.156657
0.156654
0.156649
0.15664
0.156624
0.156597
0.156551
0.156472
0.156344
0.156141
0.17796
0.178179
0.178317
0.178402
0.178452
0.178482
0.178499
0.178509
0.178514
0.178518
0.17852
0.178521
0.178522
0.178523
0.178524
0.178524
0.178524
0.178525
0.178525
0.178525
0.178525
0.178526
0.178526
0.178526
0.178526
0.178526
0.178526
0.178527
0.178527
0.178527
0.178527
0.178527
0.178527
0.178526
0.178526
0.178526
0.178526
0.178526
0.178526
0.178525
0.178525
0.178525
0.178525
0.178524
0.178524
0.178524
0.178523
0.178522
0.178521
0.17852
0.178518
0.178514
0.178509
0.178499
0.178482
0.178452
0.178402
0.178317
0.178179
0.17796
0.20003
0.200263
0.20041
0.2005
0.200555
0.200586
0.200605
0.200616
0.200622
0.200626
0.200628
0.20063
0.200631
0.200631
0.200632
0.200632
0.200633
0.200633
0.200633
0.200634
0.200634
0.200634
0.200634
0.200635
0.200635
0.200635
0.200635
0.200635
0.200635
0.200635
0.200635
0.200635
0.200635
0.200635
0.200635
0.200635
0.200635
0.200634
0.200634
0.200634
0.200634
0.200633
0.200633
0.200633
0.200632
0.200632
0.200631
0.200631
0.20063
0.200628
0.200626
0.200622
0.200616
0.200605
0.200586
0.200555
0.2005
0.20041
0.200263
0.20003
0.222188
0.222433
0.222589
0.222685
0.222743
0.222777
0.222797
0.222809
0.222816
0.22282
0.222822
0.222824
0.222825
0.222826
0.222826
0.222827
0.222827
0.222828
0.222828
0.222828
0.222828
0.222829
0.222829
0.222829
0.222829
0.222829
0.222829
0.222829
0.222829
0.222829
0.222829
0.222829
0.222829
0.222829
0.222829
0.222829
0.222829
0.222829
0.222829
0.222828
0.222828
0.222828
0.222828
0.222827
0.222827
0.222826
0.222826
0.222825
0.222824
0.222822
0.22282
0.222816
0.222809
0.222797
0.222777
0.222743
0.222685
0.222589
0.222433
0.222188
0.244333
0.24459
0.244754
0.244856
0.244917
0.244954
0.244975
0.244988
0.244995
0.245
0.245002
0.245004
0.245005
0.245006
0.245007
0.245007
0.245008
0.245008
0.245008
0.245009
0.245009
0.245009
0.245009
0.24501
0.24501
0.24501
0.24501
0.24501
0.24501
0.24501
0.24501
0.24501
0.24501
0.24501
0.24501
0.24501
0.24501
0.245009
0.245009
0.245009
0.245009
0.245008
0.245008
0.245008
0.245007
0.245007
0.245006
0.245005
0.245004
0.245002
0.245
0.244995
0.244988
0.244975
0.244954
0.244917
0.244856
0.244754
0.24459
0.244333
0.266399
0.266667
0.266839
0.266946
0.267011
0.26705
0.267073
0.267086
0.267094
0.267099
0.267102
0.267104
0.267105
0.267106
0.267107
0.267107
0.267108
0.267108
0.267109
0.267109
0.267109
0.267109
0.267109
0.26711
0.26711
0.26711
0.26711
0.26711
0.26711
0.26711
0.26711
0.26711
0.26711
0.26711
0.26711
0.26711
0.26711
0.267109
0.267109
0.267109
0.267109
0.267109
0.267108
0.267108
0.267107
0.267107
0.267106
0.267105
0.267104
0.267102
0.267099
0.267094
0.267086
0.267073
0.26705
0.267011
0.266946
0.266839
0.266667
0.266399
0.288336
0.288614
0.288794
0.288907
0.288975
0.289017
0.289041
0.289055
0.289064
0.289069
0.289072
0.289074
0.289076
0.289077
0.289077
0.289078
0.289078
0.289079
0.289079
0.289079
0.28908
0.28908
0.28908
0.28908
0.28908
0.289081
0.289081
0.289081
0.289081
0.289081
0.289081
0.289081
0.289081
0.289081
0.289081
0.28908
0.28908
0.28908
0.28908
0.28908
0.289079
0.289079
0.289079
0.289078
0.289078
0.289077
0.289077
0.289076
0.289074
0.289072
0.289069
0.289064
0.289055
0.289041
0.289017
0.288975
0.288907
0.288794
0.288614
0.288336
0.310107
0.310394
0.310581
0.310699
0.310771
0.310815
0.310841
0.310856
0.310865
0.310871
0.310874
0.310877
0.310878
0.310879
0.31088
0.31088
0.310881
0.310881
0.310882
0.310882
0.310882
0.310882
0.310882
0.310883
0.310883
0.310883
0.310883
0.310883
0.310883
0.310883
0.310883
0.310883
0.310883
0.310883
0.310883
0.310883
0.310883
0.310882
0.310882
0.310882
0.310882
0.310882
0.310881
0.310881
0.31088
0.31088
0.310879
0.310878
0.310877
0.310874
0.310871
0.310865
0.310856
0.310841
0.310815
0.310771
0.310699
0.310581
0.310394
0.310107
0.331678
0.331974
0.332167
0.33229
0.332366
0.332412
0.33244
0.332456
0.332466
0.332472
0.332476
0.332478
0.33248
0.332481
0.332482
0.332482
0.332483
0.332483
0.332483
0.332484
0.332484
0.332484
0.332484
0.332484
0.332485
0.332485
0.332485
0.332485
0.332485
0.332485
0.332485
0.332485
0.332485
0.332485
0.332485
0.332485
0.332484
0.332484
0.332484
0.332484
0.332484
0.332483
0.332483
0.332483
0.332482
0.332482
0.332481
0.33248
0.332478
0.332476
0.332472
0.332466
0.332456
0.33244
0.332412
0.332366
0.33229
0.332167
0.331974
0.331678
0.353021
0.353325
0.353525
0.353653
0.353733
0.353781
0.35381
0.353828
0.353838
0.353845
0.353849
0.353851
0.353853
0.353854
0.353855
0.353855
0.353856
0.353856
0.353856
0.353857
0.353857
0.353857
0.353857
0.353857
0.353858
0.353858
0.353858
0.353858
0.353858
0.353858
0.353858
0.353858
0.353858
0.353858
0.353858
0.353858
0.353857
0.353857
0.353857
0.353857
0.353857
0.353856
0.353856
0.353856
0.353855
0.353855
0.353854
0.353853
0.353851
0.353849
0.353845
0.353838
0.353828
0.35381
0.353781
0.353733
0.353653
0.353525
0.353325
0.353021
0.374112
0.374423
0.374629
0.374762
0.374845
0.374896
0.374927
0.374945
0.374957
0.374963
0.374968
0.37497
0.374972
0.374973
0.374974
0.374975
0.374975
0.374976
0.374976
0.374976
0.374977
0.374977
0.374977
0.374977
0.374977
0.374977
0.374977
0.374977
0.374978
0.374978
0.374978
0.374978
0.374977
0.374977
0.374977
0.374977
0.374977
0.374977
0.374977
0.374977
0.374976
0.374976
0.374976
0.374975
0.374975
0.374974
0.374973
0.374972
0.37497
0.374968
0.374963
0.374957
0.374945
0.374927
0.374896
0.374845
0.374762
0.374629
0.374423
0.374112
0.394928
0.395245
0.395458
0.395595
0.395682
0.395735
0.395767
0.395787
0.395799
0.395807
0.395811
0.395814
0.395816
0.395817
0.395818
0.395819
0.395819
0.39582
0.39582
0.39582
0.39582
0.395821
0.395821
0.395821
0.395821
0.395821
0.395821
0.395821
0.395821
0.395821
0.395821
0.395821
0.395821
0.395821
0.395821
0.395821
0.395821
0.395821
0.395821
0.39582
0.39582
0.39582
0.39582
0.395819
0.395819
0.395818
0.395817
0.395816
0.395814
0.395811
0.395807
0.395799
0.395787
0.395767
0.395735
0.395682
0.395595
0.395458
0.395245
0.394928
0.41545
0.415773
0.41599
0.416132
0.416222
0.416278
0.416312
0.416333
0.416346
0.416354
0.416358
0.416362
0.416364
0.416365
0.416366
0.416367
0.416367
0.416367
0.416368
0.416368
0.416368
0.416368
0.416369
0.416369
0.416369
0.416369
0.416369
0.416369
0.416369
0.416369
0.416369
0.416369
0.416369
0.416369
0.416369
0.416369
0.416369
0.416369
0.416368
0.416368
0.416368
0.416368
0.416367
0.416367
0.416367
0.416366
0.416365
0.416364
0.416362
0.416358
0.416354
0.416346
0.416333
0.416312
0.416278
0.416222
0.416132
0.41599
0.415773
0.41545
0.435659
0.435986
0.436209
0.436355
0.436448
0.436506
0.436542
0.436564
0.436578
0.436586
0.436592
0.436595
0.436597
0.436598
0.436599
0.4366
0.436601
0.436601
0.436601
0.436602
0.436602
0.436602
0.436602
0.436602
0.436602
0.436602
0.436603
0.436603
0.436603
0.436603
0.436603
0.436603
0.436603
0.436603
0.436602
0.436602
0.436602
0.436602
0.436602
0.436602
0.436602
0.436601
0.436601
0.436601
0.4366
0.436599
0.436598
0.436597
0.436595
0.436592
0.436586
0.436578
0.436564
0.436542
0.436506
0.436448
0.436355
0.436209
0.435986
0.435659
0.455538
0.455869
0.456096
0.456246
0.456343
0.456404
0.456441
0.456465
0.456479
0.456488
0.456494
0.456497
0.4565
0.456501
0.456502
0.456503
0.456503
0.456504
0.456504
0.456504
0.456505
0.456505
0.456505
0.456505
0.456505
0.456505
0.456505
0.456505
0.456505
0.456505
0.456505
0.456505
0.456505
0.456505
0.456505
0.456505
0.456505
0.456505
0.456505
0.456505
0.456504
0.456504
0.456504
0.456503
0.456503
0.456502
0.456501
0.4565
0.456497
0.456494
0.456488
0.456479
0.456465
0.456441
0.456404
0.456343
0.456246
0.456096
0.455869
0.455538
0.475072
0.475407
0.475638
0.475792
0.475892
0.475955
0.475995
0.476019
0.476035
0.476044
0.47605
0.476054
0.476056
0.476058
0.476059
0.47606
0.47606
0.476061
0.476061
0.476061
0.476062
0.476062
0.476062
0.476062
0.476062
0.476062
0.476062
0.476062
0.476062
0.476062
0.476062
0.476062
0.476062
0.476062
0.476062
0.476062
0.476062
0.476062
0.476062
0.476062
0.476061
0.476061
0.476061
0.47606
0.47606
0.476059
0.476058
0.476056
0.476054
0.47605
0.476044
0.476035
0.476019
0.475995
0.475955
0.475892
0.475792
0.475638
0.475407
0.475072
0.494249
0.494586
0.494821
0.494979
0.495081
0.495147
0.495189
0.495214
0.495231
0.495241
0.495247
0.495251
0.495254
0.495256
0.495257
0.495258
0.495258
0.495259
0.495259
0.495259
0.495259
0.495259
0.49526
0.49526
0.49526
0.49526
0.49526
0.49526
0.49526
0.49526
0.49526
0.49526
0.49526
0.49526
0.49526
0.49526
0.49526
0.49526
0.495259
0.495259
0.495259
0.495259
0.495259
0.495258
0.495258
0.495257
0.495256
0.495254
0.495251
0.495247
0.495241
0.495231
0.495214
0.495189
0.495147
0.495081
0.494979
0.494821
0.494586
0.494249
0.513055
0.513394
0.513633
0.513794
0.5139
0.513968
0.514011
0.514038
0.514055
0.514066
0.514073
0.514077
0.51408
0.514082
0.514083
0.514084
0.514084
0.514085
0.514085
0.514085
0.514086
0.514086
0.514086
0.514086
0.514086
0.514086
0.514086
0.514086
0.514086
0.514086
0.514086
0.514086
0.514086
0.514086
0.514086
0.514086
0.514086
0.514086
0.514086
0.514086
0.514085
0.514085
0.514085
0.514084
0.514084
0.514083
0.514082
0.51408
0.514077
0.514073
0.514066
0.514055
0.514038
0.514011
0.513968
0.5139
0.513794
0.513633
0.513394
0.513055
0.53148
0.531821
0.532062
0.532227
0.532335
0.532406
0.532451
0.532479
0.532497
0.532509
0.532516
0.532521
0.532524
0.532526
0.532527
0.532528
0.532528
0.532529
0.532529
0.532529
0.53253
0.53253
0.53253
0.53253
0.53253
0.53253
0.53253
0.53253
0.53253
0.53253
0.53253
0.53253
0.53253
0.53253
0.53253
0.53253
0.53253
0.53253
0.53253
0.53253
0.532529
0.532529
0.532529
0.532528
0.532528
0.532527
0.532526
0.532524
0.532521
0.532516
0.532509
0.532497
0.532479
0.532451
0.532406
0.532335
0.532227
0.532062
0.531821
0.53148
0.549516
0.549857
0.550101
0.550268
0.550379
0.550452
0.550499
0.550529
0.550548
0.55056
0.550568
0.550573
0.550576
0.550578
0.550579
0.55058
0.550581
0.550581
0.550582
0.550582