/*--------------------------------*- C++ -*----------------------------------*\
| =========                 |                                                 |
| \\      /  F ield         | foam-extend: Open Source CFD                    |
|  \\    /   O peration     | Version:     4.0                                |
|   \\  /    A nd           | Web:         http://www.foam-extend.org         |
|    \\/     M anipulation  |                                                 |
\*---------------------------------------------------------------------------*/
FoamFile
{
    version     2.0;
    format      ascii;
    class       surfaceScalarField;
    location    "7";
    object      phi;
}
// * * * * * * * * * * * * * * * * * * * * * * * * * * * * * * * * * * * * * //

dimensions      [0 3 -1 0 0 0 0];

internalField   nonuniform List<scalar> 
13744
(
-8.10595e-09
8.10594e-09
3.94724e-09
-1.20532e-08
6.55148e-11
3.88173e-09
2.18e-11
4.37168e-11
6.32702e-12
1.54726e-11
3.47822e-12
2.85061e-12
1.87619e-12
1.60316e-12
1.22884e-12
6.47371e-13
8.27168e-13
4.02123e-13
6.07525e-13
2.21045e-13
4.62632e-13
1.44218e-13
3.69815e-13
9.33698e-14
3.05628e-13
6.30607e-14
2.58769e-13
4.60743e-14
2.24824e-13
3.17524e-14
1.98241e-13
2.64233e-14
1.76234e-13
2.08722e-14
1.58208e-13
1.70974e-14
1.42571e-13
1.52101e-14
1.27478e-13
1.64313e-14
1.14196e-13
1.28786e-14
1.01382e-13
1.23235e-14
8.81201e-14
1.26565e-14
7.57961e-14
1.17684e-14
6.35251e-14
1.04361e-14
5.04261e-14
1.27676e-14
3.81004e-14
1.24345e-14
2.57624e-14
1.25455e-14
1.2516e-14
1.17684e-14
-1.0053e-15
1.36557e-14
-9.97201e-15
6.55032e-15
-2.80771e-14
1.69864e-14
-3.80712e-14
8.10463e-15
-4.79725e-14
8.99281e-15
-6.59612e-14
1.87628e-14
-7.57952e-14
1.02141e-14
-8.56873e-14
9.88098e-15
-1.03817e-13
1.9984e-14
-1.14172e-13
1.13243e-14
-1.25014e-13
1.05471e-14
-1.44984e-13
2.06501e-14
-1.58164e-13
1.03251e-14
-1.73752e-13
1.87628e-14
-2.00639e-13
2.4869e-14
-2.24785e-13
2.23155e-14
-2.56281e-13
3.04201e-14
-3.08032e-13
5.35127e-14
-3.69806e-13
6.15064e-14
-4.6021e-13
8.89289e-14
-6.09973e-13
1.48992e-13
-8.27155e-13
2.1938e-13
-1.2264e-12
3.97793e-13
-1.87863e-12
6.51701e-13
-3.47822e-12
1.59928e-12
-6.32457e-12
2.8485e-12
-2.18024e-11
1.54765e-11
-6.55149e-11
4.37123e-11
-3.94724e-09
3.88172e-09
8.10595e-09
-1.20532e-08
8.10595e-09
3.85363e-08
-3.04304e-08
5.19605e-09
2.12871e-08
1.98417e-10
8.87936e-09
6.808e-11
1.74048e-10
2.01687e-11
6.33864e-11
1.12747e-11
1.17417e-11
6.0547e-12
6.81821e-12
4.01295e-12
2.68902e-12
2.66866e-12
1.74549e-12
1.96413e-12
9.23539e-13
1.47333e-12
6.35547e-13
1.17051e-12
3.95017e-13
9.47218e-13
2.90268e-13
7.96838e-13
1.9762e-13
6.78144e-13
1.53377e-13
5.89457e-13
1.16629e-13
5.18599e-13
9.27036e-14
4.59148e-13
7.74936e-14
4.07038e-13
6.88338e-14
3.63566e-13
5.91194e-14
3.21249e-13
5.32907e-14
2.81763e-13
5.4845e-14
2.46049e-13
5.13478e-14
2.09324e-13
4.91274e-14
1.7314e-13
5.08482e-14
1.39682e-13
4.67959e-14
1.04128e-13
4.60743e-14
6.87288e-14
5.05707e-14
3.61894e-14
4.85167e-14
7.03298e-16
4.75731e-14
-4.14684e-14
5.19029e-14
-6.17705e-14
3.83027e-14
-1.04042e-13
5.29021e-14
-1.46387e-13
5.20695e-14
-1.66366e-13
3.55826e-14
-2.09321e-13
5.2125e-14
-2.52809e-13
5.39013e-14
-2.74994e-13
3.65818e-14
-3.21185e-13
5.61218e-14
-3.7025e-13
5.97855e-14
-4.002e-13
4.86278e-14
-4.59023e-13
7.4496e-14
-5.2523e-13
7.9492e-14
-5.82591e-13
8.45435e-14
-6.7804e-13
1.21125e-13
-8.03468e-13
1.5804e-13
-9.40372e-13
1.87628e-13
-1.17051e-12
2.91378e-13
-1.48014e-12
3.99902e-13
-1.9574e-12
6.28386e-13
-2.66866e-12
9.26426e-13
-4.01971e-12
1.75249e-12
-6.04795e-12
2.68063e-12
-1.12747e-11
6.82754e-12
-2.01755e-11
1.17444e-11
-6.80731e-11
6.33759e-11
-1.98417e-10
1.74055e-10
-5.19606e-09
8.87937e-09
-3.85363e-08
2.12871e-08
-3.04304e-08
2.49699e-08
-5.54003e-08
8.91991e-09
3.7337e-08
3.2939e-10
1.74699e-08
1.17175e-10
3.86265e-10
3.59443e-11
1.44609e-10
2.02313e-11
2.74551e-11
1.09096e-11
1.61436e-11
7.25206e-12
6.34677e-12
4.80267e-12
4.19557e-12
3.52673e-12
2.19988e-12
2.61582e-12
1.54717e-12
2.06161e-12
9.50837e-13
1.64476e-12
7.01952e-13
1.36505e-12
4.74523e-13
1.14378e-12
3.74686e-13
9.81697e-13
2.75321e-13
8.48895e-13
2.27207e-13
7.42844e-13
1.85588e-13
6.50808e-13
1.59761e-13
5.73528e-13
1.33532e-13
5.02264e-13
1.29299e-13
4.3766e-13
1.15699e-13
3.77756e-13
1.1012e-13
3.20094e-13
1.08358e-13
2.64124e-13
1.06359e-13
2.10832e-13
9.88098e-14
1.57239e-13
1.04944e-13
1.04351e-13
9.63396e-14
5.32831e-14
9.63396e-14
-4.47235e-16
1.02446e-13
-5.51132e-14
1.0747e-13
-1.00734e-13
8.55704e-14
-1.57094e-13
1.0944e-13
-2.14004e-13
1.07261e-13
-2.60822e-13
8.37941e-14
-3.20075e-13
1.1241e-13
-3.81019e-13
1.13951e-13
-4.34366e-13
9.72972e-14
-5.02164e-13
1.24289e-13
-5.76678e-13
1.36322e-13
-6.47411e-13
1.244e-13
-7.42654e-13
1.67824e-13
-8.5195e-13
1.91278e-13
-9.78262e-13
2.13066e-13
-1.14362e-12
2.89491e-13
-1.36813e-12
3.82097e-13
-1.64139e-12
4.61742e-13
-2.06162e-12
7.14734e-13
-2.61918e-12
9.58969e-13
-3.52354e-12
1.53461e-12
-4.80269e-12
2.2074e-12
-7.25535e-12
4.20497e-12
-1.09064e-11
6.33336e-12
-2.02313e-11
1.61528e-11
-3.59475e-11
2.74656e-11
-1.17171e-10
1.44599e-10
-3.2939e-10
3.86277e-10
-8.91992e-09
1.74699e-08
-2.49699e-08
3.7337e-08
-5.54002e-08
5.30549e-09
-6.07057e-08
7.34321e-09
3.52993e-08
4.55084e-10
2.4358e-08
1.68347e-10
6.73007e-10
5.37236e-11
2.5924e-10
3.0314e-11
5.08664e-11
1.64562e-11
3.00035e-11
1.09404e-11
1.18609e-11
7.23677e-12
7.89944e-12
5.29434e-12
4.14184e-12
3.89812e-12
2.94246e-12
3.04726e-12
1.79873e-12
2.40398e-12
1.34692e-12
1.97096e-12
9.10104e-13
1.62926e-12
7.15083e-13
1.38064e-12
5.27496e-13
1.17613e-12
4.28213e-13
1.01653e-12
3.39877e-13
8.79769e-13
2.95175e-13
7.65602e-13
2.51375e-13
6.63773e-13
2.28303e-13
5.73658e-13
2.07471e-13
4.90091e-13
1.91003e-13
4.12882e-13
1.81674e-13
3.39186e-13
1.77613e-13
2.68604e-13
1.71581e-13
1.99959e-13
1.72423e-13
1.32839e-13
1.68063e-13
6.64826e-14
1.61923e-13
-9.09762e-16
1.70143e-13
-6.52782e-14
1.69658e-13
-1.3286e-13
1.51058e-13
-1.99758e-13
1.78239e-13
-2.68066e-13
1.81268e-13
-3.3951e-13
1.58588e-13
-4.12841e-13
1.85102e-13
-4.8968e-13
1.90311e-13
-5.74002e-13
1.75814e-13
-6.63643e-13
2.1496e-13
-7.65051e-13
2.3583e-13
-8.79985e-13
2.31494e-13
-1.01628e-12
3.04408e-13
-1.17546e-12
3.47481e-13
-1.38081e-12
4.14665e-13
-1.62907e-12
5.29606e-13
-1.97035e-12
7.23543e-13
-2.40425e-12
8.94888e-13
-3.0473e-12
1.35483e-12
-3.89788e-12
1.81011e-12
-5.29486e-12
2.92329e-12
-7.23684e-12
4.15008e-12
-1.094e-11
7.90574e-12
-1.64566e-11
1.18465e-11
-3.0314e-11
3.00077e-11
-5.37232e-11
5.08709e-11
-1.68348e-10
2.59223e-10
-4.55084e-10
6.73013e-10
-7.34321e-09
2.4358e-08
-5.30549e-09
3.52993e-08
-6.07057e-08
3.75772e-09
-6.44635e-08
4.68393e-09
3.43731e-08
5.81775e-10
2.84602e-08
2.21308e-10
1.03347e-09
7.34156e-11
4.07127e-10
4.14676e-11
8.28103e-11
2.26615e-11
4.88086e-11
1.50576e-11
1.94689e-11
9.95951e-12
1.2997e-11
7.26147e-12
6.84054e-12
5.32064e-12
4.88371e-12
4.13109e-12
2.99584e-12
3.23089e-12
2.24687e-12
2.62353e-12
1.51903e-12
2.14466e-12
1.19909e-12
1.79694e-12
8.73805e-13
1.51249e-12
7.14975e-13
1.29223e-12
5.68084e-13
1.10546e-12
4.84518e-13
9.51908e-13
4.01617e-13
8.16944e-13
3.65802e-13
6.99726e-13
3.25381e-13
5.93e-13
2.9864e-13
4.96116e-13
2.8142e-13
4.05098e-13
2.68299e-13
3.19339e-13
2.56356e-13
2.36806e-13
2.53898e-13
1.56827e-13
2.49123e-13
7.82532e-14
2.42108e-13
-4.46919e-16
2.47439e-13
-7.74894e-14
2.45827e-13
-1.56621e-13
2.30262e-13
-2.36537e-13
2.57113e-13
-3.1898e-13
2.61485e-13
-4.05152e-13
2.39431e-13
-4.96045e-13
2.77594e-13
-5.92803e-13
2.87085e-13
-6.99813e-13
2.86523e-13
-8.16788e-13
3.30403e-13
-9.51561e-13
3.68422e-13
-1.10539e-12
3.92267e-13
-1.29192e-12
4.88818e-13
-1.51198e-12
5.73263e-13
-1.79682e-12
7.01266e-13
-2.14443e-12
8.83461e-13
-2.62314e-12
1.20179e-12
-3.23092e-12
1.49867e-12
-4.13118e-12
2.25579e-12
-5.32071e-12
2.99515e-12
-7.26182e-12
4.86803e-12
-9.95964e-12
6.84815e-12
-1.50576e-11
1.30044e-11
-2.26618e-11
1.94537e-11
-4.14676e-11
4.88161e-11
-7.34154e-11
8.28202e-11
-2.21308e-10
4.07115e-10
-5.81775e-10
1.03347e-09
-4.68393e-09
2.84602e-08
-3.75772e-09
3.43731e-08
-6.44635e-08
7.20502e-09
-7.16685e-08
4.00593e-09
3.75722e-08
7.12552e-10
3.17535e-08
2.76115e-10
1.46991e-09
9.49491e-11
5.883e-10
5.36542e-11
1.24111e-10
2.9505e-11
7.29557e-11
1.95907e-11
2.93778e-11
1.29643e-11
1.96244e-11
9.42625e-12
1.03832e-11
6.88422e-12
7.42692e-12
5.31686e-12
4.55816e-12
4.13157e-12
3.4345e-12
3.32961e-12
2.31717e-12
2.69822e-12
1.82183e-12
2.23991e-12
1.33245e-12
1.86698e-12
1.08797e-12
1.57946e-12
8.48526e-13
1.3377e-12
7.27932e-13
1.14132e-12
6.03801e-13
9.70545e-13
5.33053e-13
8.24401e-13
4.70149e-13
6.93563e-13
4.30338e-13
5.76387e-13
3.9853e-13
4.67866e-13
3.79047e-13
3.67293e-13
3.57589e-13
2.71299e-13
3.5044e-13
1.79101e-13
3.41235e-13
8.93727e-14
3.30265e-13
-1.20719e-16
3.37266e-13
-8.93597e-14
3.36461e-13
-1.77999e-13
3.18837e-13
-2.70956e-13
3.46917e-13
-3.67723e-13
3.55552e-13
-4.67027e-13
3.42267e-13
-5.76282e-13
3.8582e-13
-6.94181e-13
4.0811e-13
-8.23628e-13
4.15242e-13
-9.70366e-13
4.75375e-13
-1.14176e-12
5.46815e-13
-1.33675e-12
5.87246e-13
-1.57909e-12
7.31197e-13
-1.86725e-12
8.59123e-13
-2.2389e-12
1.07028e-12
-2.69798e-12
1.33701e-12
-3.33005e-12
1.83123e-12
-4.13077e-12
2.30405e-12
-5.317e-12
3.44299e-12
-6.8852e-12
4.5669e-12
-9.42583e-12
7.41072e-12
-1.29645e-11
1.03827e-11
-1.95916e-11
1.96296e-11
-2.95045e-11
2.93645e-11
-5.36543e-11
7.29657e-11
-9.49498e-11
1.24115e-10
-2.76114e-10
5.88283e-10
-7.12552e-10
1.46992e-09
-4.00593e-09
3.17536e-08
-7.20502e-09
3.75722e-08
-7.16685e-08
7.90923e-09
-7.95777e-08
4.25955e-09
4.12219e-08
8.44618e-10
3.51685e-08
3.32927e-10
1.9816e-09
1.18287e-10
8.02934e-10
6.6862e-11
1.75533e-10
3.69843e-11
1.02838e-10
2.45387e-11
4.18264e-11
1.62523e-11
2.79113e-11
1.17913e-11
1.48365e-11
8.59233e-12
1.06235e-11
6.60907e-12
6.54078e-12
5.11139e-12
4.93221e-12
4.09475e-12
3.33796e-12
3.29606e-12
2.62562e-12
2.71602e-12
1.91096e-12
2.24587e-12
1.55755e-12
1.88463e-12
1.21565e-12
1.58291e-12
1.02617e-12
1.33965e-12
8.45454e-13
1.13024e-12
7.47458e-13
9.53089e-13
6.52647e-13
7.96381e-13
5.87304e-13
6.57889e-13
5.39955e-13
5.31218e-13
5.02856e-13
4.15235e-13
4.71204e-13
3.05655e-13
4.59113e-13
2.01289e-13
4.41345e-13
1.00297e-13
4.37081e-13
-6.79133e-17
4.41699e-13
-1.00284e-13
4.36493e-13
-2.00012e-13
4.19453e-13
-3.05232e-13
4.53541e-13
-4.15694e-13
4.69029e-13
-5.30228e-13
4.53602e-13
-6.57744e-13
5.12414e-13
-7.97073e-13
5.47648e-13
-9.52186e-13
5.70746e-13
-1.13003e-12
6.5448e-13
-1.34017e-12
7.50993e-13
-1.58182e-12
8.25093e-13
-1.88419e-12
1.03637e-12
-2.24619e-12
1.21729e-12
-2.71487e-12
1.54595e-12
-3.29578e-12
1.92041e-12
-4.09528e-12
2.63537e-12
-5.1105e-12
3.321e-12
-6.60927e-12
4.93675e-12
-8.59348e-12
6.55e-12
-1.17909e-11
1.06083e-11
-1.62526e-11
1.48512e-11
-2.45398e-11
2.79188e-11
-3.69838e-11
4.18151e-11
-6.68622e-11
1.02844e-10
-1.18288e-10
1.75543e-10
-3.32926e-10
8.02918e-10
-8.44618e-10
1.98161e-09
-4.25955e-09
3.51685e-08
-7.90923e-09
4.12219e-08
-7.95777e-08
7.0427e-09
-8.66204e-08
4.35684e-09
4.39077e-08
9.75055e-10
3.85503e-08
3.91656e-10
2.565e-09
1.43414e-10
1.05118e-09
8.10963e-11
2.37848e-10
4.51096e-11
1.38822e-10
2.99097e-11
5.70272e-11
1.98305e-11
3.79882e-11
1.43626e-11
2.03057e-11
1.04506e-11
1.45383e-11
8.01294e-12
8.98019e-12
6.17537e-12
6.76818e-12
4.92397e-12
4.58581e-12
3.94299e-12
3.60548e-12
3.22995e-12
2.62949e-12
2.6538e-12
2.13367e-12
2.21212e-12
1.65695e-12
1.84523e-12
1.39384e-12
1.55095e-12
1.13945e-12
1.29972e-12
9.89021e-13
1.08909e-12
8.56269e-13
9.0453e-13
7.71806e-13
7.43267e-13
6.98523e-13
5.97349e-13
6.47752e-13
4.6504e-13
6.113e-13
3.41252e-13
5.82112e-13
2.24272e-13
5.6126e-13
1.11518e-13
5.39753e-13
-5.17738e-17
5.49768e-13
-1.11264e-13
5.45557e-13
-2.2309e-13
5.31898e-13
-3.40749e-13
5.72487e-13
-4.65249e-13
5.92011e-13
-5.96488e-13
5.89354e-13
-7.4307e-13
6.61662e-13
-9.05e-13
7.06184e-13
-1.08835e-12
7.51361e-13
-1.29948e-12
8.68292e-13
-1.55123e-12
1.00701e-12
-1.84428e-12
1.11802e-12
-2.21163e-12
1.40475e-12
-2.65386e-12
1.66251e-12
-3.22895e-12
2.11403e-12
-3.9427e-12
2.63169e-12
-4.92431e-12
3.61143e-12
-6.1747e-12
4.56636e-12
-8.01319e-12
6.77506e-12
-1.04516e-11
8.98773e-12
-1.43624e-11
1.45175e-11
-1.98309e-11
2.03152e-11
-2.99106e-11
3.79974e-11
-4.51093e-11
5.70031e-11
-8.10966e-11
1.38831e-10
-1.43415e-10
2.37863e-10
-3.91655e-10
1.05116e-09
-9.75054e-10
2.56501e-09
-4.35684e-09
3.85503e-08
-7.0427e-09
4.39077e-08
-8.66204e-08
6.33624e-09
-9.29567e-08
4.2389e-09
4.60051e-08
1.10293e-09
4.16862e-08
4.52048e-10
3.21588e-09
1.70322e-10
1.3329e-09
9.63721e-11
3.11803e-10
5.38991e-11
1.81295e-10
3.57171e-11
7.5209e-11
2.37097e-11
5.00007e-11
1.71484e-11
2.68691e-11
1.2466e-11
1.92176e-11
9.53441e-12
1.19122e-11
7.3287e-12
8.97633e-12
5.82194e-12
6.09756e-12
4.64328e-12
4.78435e-12
3.78551e-12
3.47797e-12
3.09438e-12
2.82367e-12
2.56523e-12
2.18229e-12
2.12766e-12
1.83334e-12
1.778e-12
1.49152e-12
1.48152e-12
1.29364e-12
1.23465e-12
1.10395e-12
1.02006e-12
9.87347e-13
8.34264e-13
8.82356e-13
6.67698e-13
8.18213e-13
5.1792e-13
7.51602e-13
3.78992e-13
7.18965e-13
2.48576e-13
6.9162e-13
1.23404e-13
6.73063e-13
1.44703e-17
6.74743e-13
-1.22977e-13
6.68287e-13
-2.47435e-13
6.51744e-13
-3.78398e-13
7.05464e-13
-5.17946e-13
7.26006e-13
-6.66873e-13
7.33627e-13
-8.34028e-13
8.26902e-13
-1.02038e-12
8.91114e-13
-1.23398e-12
9.66197e-13
-1.48123e-12
1.1157e-12
-1.77815e-12
1.30051e-12
-2.12677e-12
1.46704e-12
-2.5647e-12
1.83519e-12
-3.09427e-12
2.1922e-12
-3.78458e-12
2.80345e-12
-4.64296e-12
3.49502e-12
-5.82216e-12
4.79656e-12
-7.32817e-12
6.07398e-12
-9.53472e-12
8.98192e-12
-1.2467e-11
1.19251e-11
-1.71485e-11
1.92004e-11
-2.37102e-11
2.68738e-11
-3.5718e-11
5.00072e-11
-5.3899e-11
7.51911e-11
-9.63724e-11
1.81302e-10
-1.70323e-10
3.11808e-10
-4.52047e-10
1.33288e-09
-1.10293e-09
3.21589e-09
-4.2389e-09
4.16862e-08
-6.33624e-09
4.60051e-08
-9.29566e-08
5.93734e-09
-9.8894e-08
4.09684e-09
4.78456e-08
1.22797e-09
4.45551e-08
5.13858e-10
3.92999e-09
1.99007e-10
1.64775e-09
1.1271e-10
3.98099e-10
6.33766e-11
2.30626e-10
4.19787e-11
9.6608e-11
2.79037e-11
6.40736e-11
2.01594e-11
3.46166e-11
1.46469e-11
2.47312e-11
1.11801e-11
1.53795e-11
8.5769e-12
1.15742e-11
6.7933e-12
7.87386e-12
5.40087e-12
6.17988e-12
4.38619e-12
4.49744e-12
3.57063e-12
3.63948e-12
2.94666e-12
2.8078e-12
2.43256e-12
2.34988e-12
2.02294e-12
1.89777e-12
1.67747e-12
1.64121e-12
1.39139e-12
1.39261e-12
1.14436e-12
1.23019e-12
9.32085e-13
1.09845e-12
7.43224e-13
1.0077e-12
5.74678e-13
9.2851e-13
4.19466e-13
8.8151e-13
2.74626e-13
8.34959e-13
1.36144e-13
8.13186e-13
9.45971e-17
8.1168e-13
-1.35613e-13
8.04691e-13
-2.73428e-13
7.98701e-13
-4.18788e-13
8.50042e-13
-5.74578e-13
8.89958e-13
-7.42374e-13
9.06455e-13
-9.31788e-13
1.01546e-12
-1.1446e-12
1.1063e-12
-1.39073e-12
1.21662e-12
-1.67716e-12
1.39564e-12
-2.02301e-12
1.64794e-12
-2.43168e-12
1.87863e-12
-2.94606e-12
2.35904e-12
-3.57043e-12
2.81518e-12
-4.38524e-12
3.62682e-12
-5.40054e-12
4.50671e-12
-6.79349e-12
6.18445e-12
-8.57644e-12
7.85536e-12
-1.11805e-11
1.15879e-11
-1.4648e-11
1.53828e-11
-2.01595e-11
2.47147e-11
-2.79042e-11
3.46254e-11
-4.19797e-11
6.40783e-11
-6.33767e-11
9.65905e-11
-1.1271e-10
2.3064e-10
-1.99007e-10
3.98111e-10
-5.13857e-10
1.64773e-09
-1.22797e-09
3.93e-09
-4.09684e-09
4.45551e-08
-5.93734e-09
4.78456e-08
-9.8894e-08
5.5694e-09
-1.04463e-07
3.98133e-09
4.94336e-08
1.3496e-09
4.71868e-08
5.76873e-10
4.70271e-09
2.29459e-10
1.99517e-09
1.30133e-10
4.97419e-10
7.35694e-11
2.87191e-10
4.87149e-11
1.21457e-10
3.24284e-11
8.03554e-11
2.34073e-11
4.36354e-11
1.70027e-11
3.11387e-11
1.29575e-11
1.94248e-11
9.92587e-12
1.46118e-11
7.84285e-12
9.96668e-12
6.21975e-12
7.80128e-12
5.03526e-12
5.68212e-12
4.08534e-12
4.59511e-12
3.35875e-12
3.53471e-12
2.76197e-12
2.93925e-12
2.28748e-12
2.37397e-12
1.88906e-12
2.03514e-12
1.56057e-12
1.72082e-12
1.27852e-12
1.51577e-12
1.0376e-12
1.33539e-12
8.24687e-13
1.21761e-12
6.35864e-13
1.11309e-12
4.63073e-13
1.04959e-12
3.02695e-13
9.97558e-13
1.4987e-13
9.63132e-13
1.74634e-16
9.55942e-13
-1.49215e-13
9.56419e-13
-3.0145e-13
9.39027e-13
-4.62305e-13
1.01206e-12
-6.35633e-13
1.05942e-12
-8.23801e-13
1.08967e-12
-1.03724e-12
1.23244e-12
-1.27866e-12
1.35302e-12
-1.55992e-12
1.49609e-12
-1.88871e-12
1.7322e-12
-2.28745e-12
2.0426e-12
-2.76109e-12
2.35079e-12
-3.35811e-12
2.95036e-12
-4.08504e-12
3.54287e-12
-5.03433e-12
4.57202e-12
-6.21941e-12
5.69935e-12
-7.84299e-12
7.81384e-12
-9.92548e-12
9.94171e-12
-1.29579e-11
1.46265e-11
-1.70038e-11
1.94351e-11
-2.34076e-11
3.11085e-11
-3.2429e-11
4.36458e-11
-4.87159e-11
8.03678e-11
-7.35696e-11
1.21439e-10
-1.30134e-10
2.87204e-10
-2.29459e-10
4.97435e-10
-5.76872e-10
1.99515e-09
-1.3496e-09
4.70273e-09
-3.98133e-09
4.71868e-08
-5.5694e-09
4.94336e-08
-1.04463e-07
5.14961e-09
-1.09613e-07
3.86824e-09
5.0715e-08
1.46705e-09
4.9588e-08
6.4087e-10
5.5289e-09
2.61663e-10
2.37437e-09
1.48665e-10
6.10423e-10
8.45062e-11
3.5135e-10
5.59479e-11
1.50021e-10
3.73012e-11
9.90101e-11
2.69054e-11
5.40276e-11
1.95435e-11
3.84943e-11
1.48743e-11
2.40967e-11
1.13819e-11
1.80998e-11
8.97557e-12
1.23666e-11
7.10399e-12
9.67116e-12
5.73608e-12
7.0498e-12
4.64125e-12
5.68109e-12
3.80378e-12
4.37158e-12
3.1178e-12
3.63056e-12
2.57318e-12
2.91671e-12
2.11762e-12
2.49134e-12
1.74329e-12
2.09608e-12
1.4234e-12
1.83333e-12
1.15155e-12
1.60409e-12
9.12658e-13
1.44962e-12
7.01931e-13
1.3198e-12
5.10174e-13
1.23993e-12
3.32994e-13
1.17166e-12
1.64689e-13
1.12876e-12
2.67369e-16
1.1199e-12
-1.63916e-13
1.1105e-12
-3.31689e-13
1.11758e-12
-5.09305e-13
1.18432e-12
-7.01556e-13
1.25485e-12
-9.11733e-13
1.30573e-12
-1.15112e-12
1.47207e-12
-1.42346e-12
1.61512e-12
-1.74266e-12
1.8093e-12
-2.11724e-12
2.09788e-12
-2.57305e-12
2.50291e-12
-3.11693e-12
2.89253e-12
-3.80309e-12
3.64404e-12
-4.64085e-12
4.38023e-12
-5.73516e-12
5.67047e-12
-7.10364e-12
7.05623e-12
-8.97567e-12
9.68091e-12
-1.13816e-11
1.23495e-11
-1.48748e-11
1.81089e-11
-1.95446e-11
2.41056e-11
-2.69058e-11
3.84761e-11
-3.73019e-11
5.40415e-11
-5.5949e-11
9.90152e-11
-8.45065e-11
1.5e-10
-1.48665e-10
3.51363e-10
-2.61663e-10
6.10434e-10
-6.40869e-10
2.37435e-09
-1.46705e-09
5.52891e-09
-3.86824e-09
4.9588e-08
-5.14961e-09
5.0715e-08
-1.09613e-07
4.70918e-09
-1.14322e-07
3.74308e-09
5.16811e-08
1.57959e-09
5.17515e-08
7.05595e-10
6.4029e-09
2.95591e-10
2.78437e-09
1.68323e-10
7.37689e-10
9.62159e-11
4.2346e-10
6.37008e-11
1.82536e-10
4.25403e-11
1.20162e-10
3.06675e-11
6.5906e-11
2.22801e-11
4.68788e-11
1.69389e-11
2.94315e-11
1.29516e-11
2.20917e-11
1.01968e-11
1.51193e-11
8.05785e-12
1.18112e-11
6.49206e-12
8.61035e-12
5.24119e-12
6.94019e-12
4.28405e-12
5.32907e-12
3.50192e-12
4.41683e-12
2.8816e-12
3.537e-12
2.36441e-12
3.00969e-12
1.94059e-12
2.51923e-12
1.57988e-12
2.19977e-12
1.27461e-12
1.91781e-12
1.00769e-12
1.72487e-12
7.73297e-13
1.56051e-12
5.61048e-13
1.45648e-12
3.65723e-13
1.37059e-12
1.80695e-13
1.31708e-12
3.45658e-16
1.30202e-12
-1.79762e-13
1.30624e-12
-3.64386e-13
1.29352e-12
-5.60059e-13
1.38372e-12
-7.7276e-13
1.46602e-12
-1.00672e-12
1.53526e-12
-1.27412e-12
1.73807e-12
-1.57982e-12
1.92972e-12
-1.93997e-12
2.18084e-12
-2.36397e-12
2.52924e-12
-2.88139e-12
3.01841e-12
-3.50105e-12
3.5125e-12
-4.28334e-12
4.4166e-12
-5.24068e-12
5.3385e-12
-6.49118e-12
6.91594e-12
-8.05748e-12
8.63037e-12
-1.01968e-11
1.18214e-11
-1.29514e-11
1.50931e-11
-1.69395e-11
2.20999e-11
-2.22812e-11
2.94435e-11
-3.06681e-11
4.68635e-11
-4.25411e-11
6.59124e-11
-6.37019e-11
1.20171e-10
-9.62164e-11
1.82513e-10
-1.68324e-10
4.23471e-10
-2.95591e-10
7.37701e-10
-7.05594e-10
2.78436e-09
-1.57959e-09
6.40291e-09
-3.74308e-09
5.17515e-08
-4.70918e-09
5.16811e-08
-1.14322e-07
4.27014e-09
-1.18592e-07
3.60681e-09
5.23444e-08
1.68651e-09
5.36718e-08
7.70765e-10
7.31864e-09
3.312e-10
3.22394e-09
1.89125e-10
8.79765e-10
1.08727e-10
5.03855e-10
7.19969e-11
2.19268e-10
4.8165e-11
1.44006e-10
3.47082e-11
7.93628e-11
2.5224e-11
5.63706e-11
1.91603e-11
3.54982e-11
1.46421e-11
2.66114e-11
1.1512e-11
1.82598e-11
9.08577e-12
1.42383e-11
7.30682e-12
1.03917e-11
5.88804e-12
8.35306e-12
4.80193e-12
6.41293e-12
3.91624e-12
5.29674e-12
3.21432e-12
4.24337e-12
2.63072e-12
3.59491e-12
2.15354e-12
2.99755e-12
1.74879e-12
2.59884e-12
1.40746e-12
2.25834e-12
1.11029e-12
2.02444e-12
8.50359e-13
1.81655e-12
6.15985e-13
1.6935e-12
4.01069e-13
1.57893e-12
1.97992e-13
1.51626e-12
4.55264e-16
1.49865e-12
-1.96927e-13
1.49531e-12
-3.99669e-13
1.50281e-12
-6.14885e-13
1.60133e-12
-8.49664e-13
1.70292e-12
-1.10926e-12
1.80169e-12
-1.40689e-12
2.03118e-12
-1.74862e-12
2.26839e-12
-2.15291e-12
2.57542e-12
-2.63024e-12
3.00031e-12
-3.21401e-12
3.60366e-12
-3.91539e-12
4.22089e-12
-4.80116e-12
5.30536e-12
-5.88744e-12
6.42868e-12
-7.30595e-12
8.34183e-12
-9.0854e-12
1.04054e-11
-1.1512e-11
1.42477e-11
-1.46419e-11
1.82285e-11
-1.91609e-11
2.6622e-11
-2.52251e-11
3.55075e-11
-3.47089e-11
5.63417e-11
-4.81659e-11
7.93685e-11
-7.1998e-11
1.44007e-10
-1.08728e-10
2.19238e-10
-1.89126e-10
5.03863e-10
-3.312e-10
8.79773e-10
-7.70764e-10
3.22392e-09
-1.68651e-09
7.31866e-09
-3.60681e-09
5.36718e-08
-4.27014e-09
5.23444e-08
-1.18592e-07
3.83327e-09
-1.22426e-07
3.46223e-09
5.27155e-08
1.78715e-09
5.53469e-08
8.36076e-10
8.26972e-09
3.68431e-10
3.69158e-09
2.11079e-10
1.03712e-09
1.22066e-10
5.9287e-10
8.08596e-11
2.60474e-10
5.41946e-11
1.70666e-10
3.90425e-11
9.45125e-11
2.83869e-11
6.7023e-11
2.15477e-11
4.23412e-11
1.64606e-11
3.16953e-11
1.2927e-11
2.17857e-11
1.01924e-11
1.6973e-11
8.1841e-12
1.2404e-11
6.58488e-12
9.95403e-12
5.35989e-12
7.63938e-12
4.36283e-12
6.29598e-12
3.57298e-12
5.02945e-12
2.91789e-12
4.2498e-12
2.38317e-12
3.53064e-12
1.93101e-12
3.05243e-12
1.5508e-12
2.64e-12
1.22099e-12
2.34897e-12
9.33547e-13
2.10455e-12
6.75272e-13
1.94817e-12
4.39227e-13
1.81995e-12
2.16664e-13
1.74543e-12
5.47258e-16
1.71829e-12
-2.15442e-13
1.71003e-12
-4.37759e-13
1.72653e-12
-6.74057e-13
1.8365e-12
-9.3267e-13
1.95404e-12
-1.21995e-12
2.08167e-12
-1.55013e-12
2.36714e-12
-1.93073e-12
2.64831e-12
-2.38255e-12
3.03045e-12
-2.91735e-12
3.543e-12
-3.57257e-12
4.25335e-12
-4.36201e-12
4.9996e-12
-5.35907e-12
6.306e-12
-6.58419e-12
7.65045e-12
-8.18327e-12
9.93675e-12
-1.01921e-11
1.24213e-11
-1.2927e-11
1.69839e-11
-1.64605e-11
2.17656e-11
-2.15484e-11
3.17089e-11
-2.83881e-11
4.23539e-11
-3.90434e-11
6.70005e-11
-5.41956e-11
9.45199e-11
-8.08608e-11
1.70671e-10
-1.22067e-10
2.60453e-10
-2.1108e-10
5.92884e-10
-3.68432e-10
1.03714e-09
-8.36075e-10
3.69156e-09
-1.78715e-09
8.26974e-09
-3.46223e-09
5.53469e-08
-3.83327e-09
5.27155e-08
-1.22426e-07
3.39628e-09
-1.25822e-07
3.30997e-09
5.28018e-08
1.88083e-09
5.6776e-08
9.012e-10
9.24935e-09
4.07209e-10
4.18558e-09
2.34189e-10
1.21013e-09
1.36258e-10
6.90801e-10
9.03121e-11
3.0642e-10
6.06488e-11
2.00326e-10
4.36859e-11
1.11478e-10
3.17813e-11
7.89272e-11
2.41107e-11
5.00084e-11
1.84148e-11
3.73905e-11
1.4448e-11
2.57548e-11
1.13828e-11
2.00365e-11
9.12785e-12
1.46565e-11
7.33492e-12
1.17487e-11
5.96053e-12
9.01347e-12
4.84377e-12
7.41116e-12
3.95932e-12
5.91939e-12
3.22732e-12
4.98268e-12
2.63065e-12
4.12547e-12
2.12747e-12
3.55576e-12
1.70534e-12
3.05414e-12
1.3404e-12
2.71891e-12
1.02326e-12
2.42587e-12
7.39243e-13
2.22952e-12
4.80393e-13
2.07967e-12
2.3681e-13
1.98355e-12
6.4362e-16
1.94699e-12
-2.35415e-13
1.94628e-12
-4.78857e-13
1.96597e-12
-7.37916e-13
2.09381e-12
-1.02221e-12
2.24153e-12
-1.33927e-12
2.40162e-12
-1.70459e-12
2.73299e-12
-2.12705e-12
3.0709e-12
-2.63001e-12
3.53127e-12
-3.22675e-12
4.13551e-12
-3.95881e-12
4.98918e-12
-4.84295e-12
5.8875e-12
-5.95969e-12
7.42165e-12
-7.33415e-12
9.02998e-12
-9.12706e-12
1.17271e-11
-1.13824e-11
1.46727e-11
-1.4448e-11
2.00503e-11
-1.84148e-11
2.57292e-11
-2.41114e-11
3.74045e-11
-3.17824e-11
5.00095e-11
-4.36869e-11
7.89056e-11
-6.06499e-11
1.11489e-10
-9.03133e-11
2.00334e-10
-1.36259e-10
3.06383e-10
-2.3419e-10
6.90806e-10
-4.07209e-10
1.21014e-09
-9.012e-10
4.18556e-09
-1.88083e-09
9.24937e-09
-3.30998e-09
5.6776e-08
-3.39628e-09
5.28018e-08
-1.25822e-07
2.95976e-09
-1.28782e-07
3.14996e-09
5.26116e-08
1.96689e-09
5.79591e-08
9.65787e-10
1.02505e-08
4.47436e-10
4.70393e-09
2.58451e-10
1.39912e-09
1.51325e-10
7.97922e-10
1.00377e-10
3.57367e-10
6.75475e-11
2.33151e-10
4.86541e-11
1.30372e-10
3.54196e-11
9.21604e-11
2.68593e-11
5.85729e-11
2.05127e-11
4.37373e-11
1.60813e-11
3.01853e-11
1.2662e-11
2.34518e-11
1.01423e-11
1.71755e-11
8.14154e-12
1.37481e-11
6.60662e-12
1.05487e-11
5.36133e-12
8.66097e-12
4.37512e-12
6.9017e-12
3.56048e-12
5.80048e-12
2.89719e-12
4.79107e-12
2.33909e-12
4.11937e-12
1.87188e-12
3.52631e-12
1.46909e-12
3.11254e-12
1.11996e-12
2.77486e-12
8.08228e-13
2.53956e-12
5.24772e-13
2.36231e-12
2.58525e-13
2.24745e-12
7.56589e-16
2.20918e-12
-2.56975e-13
2.20237e-12
-5.23155e-13
2.23268e-12
-8.06754e-13
2.38369e-12
-1.11873e-12
2.54835e-12
-1.4679e-12
2.74997e-12
-1.87102e-12
3.1335e-12
-2.33854e-12
3.53668e-12
-2.89652e-12
4.08844e-12
-3.55986e-12
4.79776e-12
-4.37454e-12
5.81004e-12
-5.36051e-12
6.88081e-12
-6.60573e-12
8.65953e-12
-8.1407e-12
1.05585e-11
-1.01415e-11
1.373e-11
-1.26616e-11
1.71934e-11
-1.60813e-11
2.34726e-11
-2.05128e-11
3.01663e-11
-2.686e-11
4.3754e-11
-3.54208e-11
5.85834e-11
-4.86553e-11
9.21368e-11
-6.75487e-11
1.30374e-10
-1.00378e-10
2.33163e-10
-1.51326e-10
3.57349e-10
-2.58452e-10
7.97937e-10
-4.47437e-10
1.39913e-09
-9.65787e-10
4.70391e-09
-1.96689e-09
1.02505e-08
-3.14996e-09
5.79591e-08
-2.95976e-09
5.26116e-08
-1.28782e-07
2.52553e-09
-1.31307e-07
2.98232e-09
5.21548e-08
2.04467e-09
5.88967e-08
1.02946e-09
1.12657e-08
4.88997e-10
5.24439e-09
2.83849e-10
1.60427e-09
1.67286e-10
9.14496e-10
1.11074e-10
4.1358e-10
7.49103e-11
2.69317e-10
5.39633e-11
1.51312e-10
3.93151e-11
1.06816e-10
2.98038e-11
6.80812e-11
2.27627e-11
5.07832e-11
1.78337e-11
3.51161e-11
1.40354e-11
2.72613e-11
1.12317e-11
1.99866e-11
9.00828e-12
1.59667e-11
7.30103e-12
1.22587e-11
5.91783e-12
1.00411e-11
4.82236e-12
7.99656e-12
3.91894e-12
6.69413e-12
3.18403e-12
5.52497e-12
2.56691e-12
4.72891e-12
2.05117e-12
4.04537e-12
1.60772e-12
3.55994e-12
1.22411e-12
3.15548e-12
8.82552e-13
2.88559e-12
5.72578e-13
2.67005e-12
2.81942e-13
2.54097e-12
8.60456e-16
2.48977e-12
-2.80209e-13
2.48402e-12
-5.7087e-13
2.52619e-12
-8.8096e-13
2.69048e-12
-1.22269e-12
2.89496e-12
-1.60642e-12
3.13388e-12
-2.05023e-12
3.57098e-12
-2.56624e-12
4.053e-12
-3.18332e-12
4.70496e-12
-3.91826e-12
5.53447e-12
-4.82167e-12
6.70465e-12
-5.91707e-12
7.96687e-12
-7.30012e-12
1.00507e-11
-9.00739e-12
1.22704e-11
-1.1231e-11
1.5957e-11
-1.4035e-11
1.99993e-11
-1.78336e-11
2.72668e-11
-2.27629e-11
3.50934e-11
-2.98046e-11
5.07954e-11
-3.93163e-11
6.80904e-11
-5.39645e-11
1.06789e-10
-7.49116e-11
1.51323e-10
-1.11076e-10
2.69325e-10
-1.67287e-10
4.13553e-10
-2.8385e-10
9.14503e-10
-4.88997e-10
1.60428e-09
-1.02946e-09
5.24437e-09
-2.04467e-09
1.12657e-08
-2.98232e-09
5.88968e-08
-2.52553e-09
5.21548e-08
-1.31307e-07
2.09531e-09
-1.33402e-07
2.80743e-09
5.14427e-08
2.11357e-09
5.95906e-08
1.09184e-09
1.22874e-08
5.31751e-10
5.80448e-09
3.10361e-10
1.82566e-09
1.84155e-10
1.0407e-09
1.22425e-10
4.75308e-10
8.27568e-11
3.08988e-10
5.96295e-11
1.74443e-10
4.3481e-11
1.22959e-10
3.2955e-11
7.86101e-11
2.51734e-11
5.85598e-11
1.9712e-11
4.05751e-11
1.55086e-11
3.14622e-11
1.24007e-11
2.30864e-11
9.9389e-12
1.84395e-11
8.0468e-12
1.41449e-11
6.51578e-12
1.15664e-11
5.30299e-12
9.21306e-12
4.30439e-12
7.69705e-12
3.49251e-12
6.33569e-12
2.81204e-12
5.41739e-12
2.24412e-12
4.61022e-12
1.75692e-12
4.04836e-12
1.33627e-12
3.5739e-12
9.62564e-13
3.25318e-12
6.24084e-13
3.00987e-12
3.07159e-13
2.86094e-12
9.64892e-16
2.79866e-12
-3.05227e-13
2.79036e-12
-6.22267e-13
2.83949e-12
-9.60854e-13
3.02323e-12
-1.33465e-12
3.27183e-12
-1.75555e-12
3.55375e-12
-2.24305e-12
4.06456e-12
-2.81122e-12
4.61977e-12
-3.49176e-12
5.38839e-12
-4.30364e-12
6.34162e-12
-5.30224e-12
7.70727e-12
-6.51503e-12
9.17964e-12
-8.04587e-12
1.15832e-11
-9.93793e-12
1.41624e-11
-1.24e-11
1.84231e-11
-1.55083e-11
2.31019e-11
-1.97119e-11
3.14708e-11
-2.51737e-11
4.05559e-11
-3.29559e-11
5.85684e-11
-4.34822e-11
7.86172e-11
-5.96308e-11
1.22934e-10
-8.27582e-11
1.74455e-10
-1.22427e-10
3.08992e-10
-1.84156e-10
4.75288e-10
-3.10363e-10
1.0407e-09
-5.31752e-10
1.82567e-09
-1.09184e-09
5.80446e-09
-2.11357e-09
1.22874e-08
-2.80743e-09
5.95906e-08
-2.09531e-09
5.14427e-08
-1.33402e-07
1.67061e-09
-1.35073e-07
2.62572e-09
5.04876e-08
2.17299e-09
6.00433e-08
1.15249e-09
1.33079e-08
5.75539e-10
6.38143e-09
3.37953e-10
2.06324e-09
2.01942e-10
1.17671e-09
1.34448e-10
5.42801e-10
9.11058e-11
3.52334e-10
6.56689e-11
1.99886e-10
4.79308e-11
1.40694e-10
3.63238e-11
9.02125e-11
2.77537e-11
6.71365e-11
2.17235e-11
4.66146e-11
1.70876e-11
3.60913e-11
1.36541e-11
2.65254e-11
1.09372e-11
2.11524e-11
8.84712e-12
1.62368e-11
7.15781e-12
1.32623e-11
5.81921e-12
1.05476e-11
4.71851e-12
8.80381e-12
3.82407e-12
7.22821e-12
3.07555e-12
6.15346e-12
2.45162e-12
5.23202e-12
1.91741e-12
4.5826e-12
1.45695e-12
4.03749e-12
1.0487e-12
3.67195e-12
6.79519e-13
3.37922e-12
3.34287e-13
3.20485e-12
1.06062e-15
3.12366e-12
-3.32178e-13
3.12094e-12
-6.7759e-13
3.19123e-12
-1.04681e-12
3.39785e-12
-1.45513e-12
3.67958e-12
-1.91595e-12
4.01091e-12
-2.45044e-12
4.59361e-12
-3.07459e-12
5.24902e-12
-3.82326e-12
6.13839e-12
-4.71769e-12
7.23889e-12
-5.81838e-12
8.80874e-12
-7.15706e-12
1.05166e-11
-8.84619e-12
1.32676e-11
-1.09362e-11
1.62508e-11
-1.36535e-11
2.11311e-11
-1.70874e-11
2.65373e-11
-2.17234e-11
3.61057e-11
-2.77541e-11
4.65783e-11
-3.63247e-11
6.71437e-11
-4.7932e-11
9.02234e-11
-6.56703e-11
1.40677e-10
-9.11073e-11
1.9989e-10
-1.34449e-10
3.52341e-10
-2.01944e-10
5.42771e-10
-3.37954e-10
1.17672e-09
-5.7554e-10
2.06326e-09
-1.15249e-09
6.38142e-09
-2.17299e-09
1.33079e-08
-2.62572e-09
6.00433e-08
-1.67061e-09
5.04876e-08
-1.35073e-07
1.25296e-09
-1.36326e-07
2.43768e-09
4.93029e-08
2.2224e-09
6.02586e-08
1.211e-09
1.43193e-08
6.20175e-10
6.97226e-09
3.66578e-10
2.31685e-09
2.20652e-10
1.32263e-09
1.47158e-10
6.163e-10
9.99758e-11