/*--------------------------------*- C++ -*----------------------------------*\
| =========                 |                                                 |
| \\      /  F ield         | foam-extend: Open Source CFD                    |
|  \\    /   O peration     | Version:     4.0                                |
|   \\  /    A nd           | Web:         http://www.foam-extend.org         |
|    \\/     M anipulation  |                                                 |
\*---------------------------------------------------------------------------*/
FoamFile
{
    version     2.0;
    format      ascii;
    class       volScalarField;
    location    "1050";
    object      cMinus;
}
// * * * * * * * * * * * * * * * * * * * * * * * * * * * * * * * * * * * * * //

dimensions      [0 0 0 0 0 0 0];

internalField   nonuniform List<scalar> 
6960
(
5.00361e-23
5.00237e-23
4.99992e-23
4.99717e-23
4.99464e-23
4.9924e-23
4.99045e-23
4.98876e-23
4.98729e-23
4.98601e-23
4.98489e-23
4.9839e-23
4.98302e-23
4.98224e-23
4.98155e-23
4.98093e-23
4.98037e-23
4.97988e-23
4.97944e-23
4.97905e-23
4.9787e-23
4.9784e-23
4.97813e-23
4.9779e-23
4.97771e-23
4.97756e-23
4.97743e-23
4.97734e-23
4.97728e-23
4.97725e-23
4.97725e-23
4.97728e-23
4.97734e-23
4.97743e-23
4.97756e-23
4.97771e-23
4.9779e-23
4.97813e-23
4.9784e-23
4.9787e-23
4.97905e-23
4.97944e-23
4.97988e-23
4.98037e-23
4.98093e-23
4.98155e-23
4.98224e-23
4.98302e-23
4.9839e-23
4.98489e-23
4.98601e-23
4.98729e-23
4.98876e-23
4.99045e-23
4.9924e-23
4.99464e-23
4.99717e-23
4.99992e-23
5.00237e-23
5.00361e-23
2.41295e-22
2.41338e-22
2.41236e-22
2.41119e-22
2.41012e-22
2.40919e-22
2.40839e-22
2.40772e-22
2.40715e-22
2.40666e-22
2.40625e-22
2.4059e-22
2.4056e-22
2.40534e-22
2.40511e-22
2.40492e-22
2.40475e-22
2.40461e-22
2.40448e-22
2.40437e-22
2.40428e-22
2.4042e-22
2.40413e-22
2.40407e-22
2.40402e-22
2.40398e-22
2.40395e-22
2.40393e-22
2.40391e-22
2.40391e-22
2.40391e-22
2.40391e-22
2.40393e-22
2.40395e-22
2.40398e-22
2.40402e-22
2.40407e-22
2.40413e-22
2.4042e-22
2.40428e-22
2.40437e-22
2.40448e-22
2.40461e-22
2.40475e-22
2.40492e-22
2.40511e-22
2.40534e-22
2.4056e-22
2.4059e-22
2.40625e-22
2.40666e-22
2.40715e-22
2.40772e-22
2.40839e-22
2.40919e-22
2.41012e-22
2.41119e-22
2.41236e-22
2.41338e-22
2.41295e-22
8.85148e-22
8.85462e-22
8.85232e-22
8.84932e-22
8.84647e-22
8.84392e-22
8.8417e-22
8.83978e-22
8.83812e-22
8.83668e-22
8.83543e-22
8.83435e-22
8.83341e-22
8.83259e-22
8.83188e-22
8.83125e-22
8.8307e-22
8.83023e-22
8.82981e-22
8.82945e-22
8.82913e-22
8.82886e-22
8.82863e-22
8.82844e-22
8.82828e-22
8.82814e-22
8.82804e-22
8.82797e-22
8.82792e-22
8.82789e-22
8.82789e-22
8.82792e-22
8.82797e-22
8.82804e-22
8.82814e-22
8.82828e-22
8.82844e-22
8.82863e-22
8.82886e-22
8.82913e-22
8.82945e-22
8.82981e-22
8.83023e-22
8.8307e-22
8.83125e-22
8.83188e-22
8.83259e-22
8.83341e-22
8.83435e-22
8.83543e-22
8.83668e-22
8.83812e-22
8.83978e-22
8.8417e-22
8.84392e-22
8.84647e-22
8.84932e-22
8.85232e-22
8.85462e-22
8.85148e-22
3.09276e-21
3.09441e-21
3.0942e-21
3.09367e-21
3.0931e-21
3.09256e-21
3.09206e-21
3.09161e-21
3.0912e-21
3.09082e-21
3.09049e-21
3.09019e-21
3.08992e-21
3.08967e-21
3.08946e-21
3.08927e-21
3.08909e-21
3.08894e-21
3.08881e-21
3.08869e-21
3.08859e-21
3.0885e-21
3.08842e-21
3.08836e-21
3.0883e-21
3.08826e-21
3.08823e-21
3.0882e-21
3.08818e-21
3.08818e-21
3.08818e-21
3.08818e-21
3.0882e-21
3.08823e-21
3.08826e-21
3.0883e-21
3.08836e-21
3.08842e-21
3.0885e-21
3.08859e-21
3.08869e-21
3.08881e-21
3.08894e-21
3.08909e-21
3.08927e-21
3.08946e-21
3.08967e-21
3.08992e-21
3.09019e-21
3.09049e-21
3.09082e-21
3.0912e-21
3.09161e-21
3.09206e-21
3.09256e-21
3.0931e-21
3.09367e-21
3.0942e-21
3.09441e-21
3.09276e-21
1.08808e-20
1.08888e-20
1.08902e-20
1.08903e-20
1.089e-20
1.08894e-20
1.08887e-20
1.08879e-20
1.08871e-20
1.08863e-20
1.08855e-20
1.08847e-20
1.0884e-20
1.08833e-20
1.08827e-20
1.08821e-20
1.08815e-20
1.08811e-20
1.08806e-20
1.08803e-20
1.08799e-20
1.08796e-20
1.08794e-20
1.08792e-20
1.0879e-20
1.08788e-20
1.08787e-20
1.08786e-20
1.08786e-20
1.08786e-20
1.08786e-20
1.08786e-20
1.08786e-20
1.08787e-20
1.08788e-20
1.0879e-20
1.08792e-20
1.08794e-20
1.08796e-20
1.08799e-20
1.08803e-20
1.08806e-20
1.08811e-20
1.08815e-20
1.08821e-20
1.08827e-20
1.08833e-20
1.0884e-20
1.08847e-20
1.08855e-20
1.08863e-20
1.08871e-20
1.08879e-20
1.08887e-20
1.08894e-20
1.089e-20
1.08903e-20
1.08902e-20
1.08888e-20
1.08808e-20
3.9183e-20
3.92194e-20
3.9233e-20
3.92407e-20
3.92456e-20
3.92484e-20
3.92498e-20
3.92501e-20
3.92496e-20
3.92486e-20
3.92471e-20
3.92455e-20
3.92437e-20
3.92419e-20
3.92402e-20
3.92385e-20
3.92369e-20
3.92354e-20
3.92341e-20
3.92329e-20
3.92318e-20
3.92308e-20
3.923e-20
3.92292e-20
3.92286e-20
3.92281e-20
3.92278e-20
3.92275e-20
3.92273e-20
3.92272e-20
3.92272e-20
3.92273e-20
3.92275e-20
3.92278e-20
3.92281e-20
3.92286e-20
3.92292e-20
3.923e-20
3.92308e-20
3.92318e-20
3.92329e-20
3.92341e-20
3.92354e-20
3.92369e-20
3.92385e-20
3.92402e-20
3.92419e-20
3.92437e-20
3.92455e-20
3.92471e-20
3.92486e-20
3.92496e-20
3.92501e-20
3.92498e-20
3.92484e-20
3.92456e-20
3.92407e-20
3.9233e-20
3.92194e-20
3.9183e-20
1.45161e-19
1.45326e-19
1.45408e-19
1.45465e-19
1.45506e-19
1.45536e-19
1.45556e-19
1.45569e-19
1.45577e-19
1.4558e-19
1.4558e-19
1.45578e-19
1.45575e-19
1.45571e-19
1.45567e-19
1.45562e-19
1.45557e-19
1.45553e-19
1.45549e-19
1.45545e-19
1.45541e-19
1.45538e-19
1.45535e-19
1.45533e-19
1.45531e-19
1.45529e-19
1.45528e-19
1.45527e-19
1.45526e-19
1.45526e-19
1.45526e-19
1.45526e-19
1.45527e-19
1.45528e-19
1.45529e-19
1.45531e-19
1.45533e-19
1.45535e-19
1.45538e-19
1.45541e-19
1.45545e-19
1.45549e-19
1.45553e-19
1.45557e-19
1.45562e-19
1.45567e-19
1.45571e-19
1.45575e-19
1.45578e-19
1.4558e-19
1.4558e-19
1.45577e-19
1.45569e-19
1.45556e-19
1.45536e-19
1.45506e-19
1.45465e-19
1.45408e-19
1.45326e-19
1.45161e-19
5.54113e-19
5.54864e-19
5.55299e-19
5.55626e-19
5.55875e-19
5.56063e-19
5.56199e-19
5.56296e-19
5.56361e-19
5.56402e-19
5.56425e-19
5.56435e-19
5.56436e-19
5.56431e-19
5.56422e-19
5.5641e-19
5.56398e-19
5.56385e-19
5.56372e-19
5.56359e-19
5.56348e-19
5.56338e-19
5.56328e-19
5.5632e-19
5.56313e-19
5.56307e-19
5.56303e-19
5.56299e-19
5.56297e-19
5.56296e-19
5.56296e-19
5.56297e-19
5.56299e-19
5.56303e-19
5.56307e-19
5.56313e-19
5.5632e-19
5.56328e-19
5.56338e-19
5.56348e-19
5.56359e-19
5.56372e-19
5.56385e-19
5.56398e-19
5.5641e-19
5.56422e-19
5.56431e-19
5.56436e-19
5.56435e-19
5.56425e-19
5.56402e-19
5.56361e-19
5.56296e-19
5.56199e-19
5.56063e-19
5.55875e-19
5.55626e-19
5.55299e-19
5.54864e-19
5.54113e-19
2.18036e-18
2.1838e-18
2.18601e-18
2.18773e-18
2.18908e-18
2.19012e-18
2.1909e-18
2.19147e-18
2.19187e-18
2.19215e-18
2.19233e-18
2.19244e-18
2.1925e-18
2.19252e-18
2.19252e-18
2.1925e-18
2.19247e-18
2.19243e-18
2.1924e-18
2.19236e-18
2.19232e-18
2.19229e-18
2.19226e-18
2.19223e-18
2.19221e-18
2.19219e-18
2.19217e-18
2.19216e-18
2.19215e-18
2.19215e-18
2.19215e-18
2.19215e-18
2.19216e-18
2.19217e-18
2.19219e-18
2.19221e-18
2.19223e-18
2.19226e-18
2.19229e-18
2.19232e-18
2.19236e-18
2.1924e-18
2.19243e-18
2.19247e-18
2.1925e-18
2.19252e-18
2.19252e-18
2.1925e-18
2.19244e-18
2.19233e-18
2.19215e-18
2.19187e-18
2.19147e-18
2.1909e-18
2.19012e-18
2.18908e-18
2.18773e-18
2.18601e-18
2.1838e-18
2.18036e-18
8.8437e-18
8.85963e-18
8.87063e-18
8.87945e-18
8.88645e-18
8.89189e-18
8.89604e-18
8.89913e-18
8.90138e-18
8.90298e-18
8.90408e-18
8.90482e-18
8.90528e-18
8.90555e-18
8.90567e-18
8.90571e-18
8.90568e-18
8.90561e-18
8.90551e-18
8.90541e-18
8.9053e-18
8.90519e-18
8.90509e-18
8.905e-18
8.90492e-18
8.90485e-18
8.9048e-18
8.90475e-18
8.90473e-18
8.90471e-18
8.90471e-18
8.90473e-18
8.90475e-18
8.9048e-18
8.90485e-18
8.90492e-18
8.905e-18
8.90509e-18
8.90519e-18
8.9053e-18
8.90541e-18
8.90551e-18
8.90561e-18
8.90568e-18
8.90571e-18
8.90567e-18
8.90555e-18
8.90528e-18
8.90482e-18
8.90408e-18
8.90298e-18
8.90138e-18
8.89913e-18
8.89604e-18
8.89189e-18
8.88645e-18
8.87945e-18
8.87063e-18
8.85963e-18
8.8437e-18
3.69644e-17
3.70394e-17
3.7094e-17
3.71386e-17
3.71744e-17
3.72024e-17
3.7224e-17
3.72402e-17
3.72522e-17
3.7261e-17
3.72672e-17
3.72715e-17
3.72744e-17
3.72762e-17
3.72774e-17
3.7278e-17
3.72782e-17
3.72782e-17
3.72781e-17
3.72778e-17
3.72775e-17
3.72772e-17
3.72769e-17
3.72766e-17
3.72764e-17
3.72761e-17
3.72759e-17
3.72758e-17
3.72757e-17
3.72757e-17
3.72757e-17
3.72757e-17
3.72758e-17
3.72759e-17
3.72761e-17
3.72764e-17
3.72766e-17
3.72769e-17
3.72772e-17
3.72775e-17
3.72778e-17
3.72781e-17
3.72782e-17
3.72782e-17
3.7278e-17
3.72774e-17
3.72762e-17
3.72744e-17
3.72715e-17
3.72672e-17
3.7261e-17
3.72522e-17
3.72402e-17
3.7224e-17
3.72024e-17
3.71744e-17
3.71386e-17
3.7094e-17
3.70394e-17
3.69644e-17
1.59124e-16
1.59483e-16
1.59756e-16
1.59982e-16
1.60164e-16
1.60308e-16
1.60419e-16
1.60504e-16
1.60567e-16
1.60613e-16
1.60647e-16
1.60671e-16
1.60687e-16
1.60699e-16
1.60706e-16
1.60711e-16
1.60714e-16
1.60715e-16
1.60715e-16
1.60715e-16
1.60715e-16
1.60714e-16
1.60713e-16
1.60712e-16
1.60711e-16
1.6071e-16
1.6071e-16
1.60709e-16
1.60709e-16
1.60709e-16
1.60709e-16
1.60709e-16
1.60709e-16
1.6071e-16
1.6071e-16
1.60711e-16
1.60712e-16
1.60713e-16
1.60714e-16
1.60715e-16
1.60715e-16
1.60715e-16
1.60715e-16
1.60714e-16
1.60711e-16
1.60706e-16
1.60699e-16
1.60687e-16
1.60671e-16
1.60647e-16
1.60613e-16
1.60567e-16
1.60504e-16
1.60419e-16
1.60308e-16
1.60164e-16
1.59982e-16
1.59756e-16
1.59483e-16
1.59124e-16
7.04885e-16
7.06636e-16
7.08015e-16
7.09167e-16
7.10101e-16
7.10841e-16
7.11416e-16
7.11855e-16
7.12186e-16
7.12432e-16
7.12612e-16
7.12742e-16
7.12834e-16
7.12899e-16
7.12944e-16
7.12974e-16
7.12993e-16
7.13004e-16
7.13011e-16
7.13013e-16
7.13014e-16
7.13013e-16
7.13011e-16
7.13008e-16
7.13006e-16
7.13004e-16
7.13002e-16
7.13e-16
7.12999e-16
7.12998e-16
7.12998e-16
7.12999e-16
7.13e-16
7.13002e-16
7.13004e-16
7.13006e-16
7.13008e-16
7.13011e-16
7.13013e-16
7.13014e-16
7.13013e-16
7.13011e-16
7.13004e-16
7.12993e-16
7.12974e-16
7.12944e-16
7.12899e-16
7.12834e-16
7.12742e-16
7.12612e-16
7.12432e-16
7.12186e-16
7.11855e-16
7.11416e-16
7.10841e-16
7.10101e-16
7.09167e-16
7.08015e-16
7.06636e-16
7.04885e-16
3.20931e-15
3.21801e-15
3.22507e-15
3.23101e-15
3.23584e-15
3.23968e-15
3.24267e-15
3.24497e-15
3.24671e-15
3.24801e-15
3.24897e-15
3.24967e-15
3.25018e-15
3.25054e-15
3.2508e-15
3.25097e-15
3.25109e-15
3.25117e-15
3.25122e-15
3.25125e-15
3.25126e-15
3.25127e-15
3.25127e-15
3.25127e-15
3.25126e-15
3.25125e-15
3.25125e-15
3.25124e-15
3.25124e-15
3.25124e-15
3.25124e-15
3.25124e-15
3.25124e-15
3.25125e-15
3.25125e-15
3.25126e-15
3.25127e-15
3.25127e-15
3.25127e-15
3.25126e-15
3.25125e-15
3.25122e-15
3.25117e-15
3.25109e-15
3.25097e-15
3.2508e-15
3.25054e-15
3.25018e-15
3.24967e-15
3.24897e-15
3.24801e-15
3.24671e-15
3.24497e-15
3.24267e-15
3.23968e-15
3.23584e-15
3.23101e-15
3.22507e-15
3.21801e-15
3.20931e-15
1.49943e-14
1.50382e-14
1.50749e-14
1.51058e-14
1.51311e-14
1.51513e-14
1.5167e-14
1.51791e-14
1.51883e-14
1.51953e-14
1.52004e-14
1.52042e-14
1.5207e-14
1.5209e-14
1.52104e-14
1.52114e-14
1.52121e-14
1.52126e-14
1.52129e-14
1.52131e-14
1.52133e-14
1.52133e-14
1.52134e-14
1.52134e-14
1.52134e-14
1.52134e-14
1.52134e-14
1.52134e-14
1.52133e-14
1.52133e-14
1.52133e-14
1.52133e-14
1.52134e-14
1.52134e-14
1.52134e-14
1.52134e-14
1.52134e-14
1.52134e-14
1.52133e-14
1.52133e-14
1.52131e-14
1.52129e-14
1.52126e-14
1.52121e-14
1.52114e-14
1.52104e-14
1.5209e-14
1.5207e-14
1.52042e-14
1.52004e-14
1.51953e-14
1.51883e-14
1.51791e-14
1.5167e-14
1.51513e-14
1.51311e-14
1.51058e-14
1.50749e-14
1.50382e-14
1.49943e-14
7.1741e-14
7.19673e-14
7.21596e-14
7.23232e-14
7.2457e-14
7.25638e-14
7.26475e-14
7.27121e-14
7.27613e-14
7.27984e-14
7.28261e-14
7.28467e-14
7.28618e-14
7.28728e-14
7.28808e-14
7.28865e-14
7.28906e-14
7.28934e-14
7.28954e-14
7.28968e-14
7.28977e-14
7.28983e-14
7.28986e-14
7.28988e-14
7.28989e-14
7.2899e-14
7.2899e-14
7.2899e-14
7.2899e-14
7.2899e-14
7.2899e-14
7.2899e-14
7.2899e-14
7.2899e-14
7.2899e-14
7.28989e-14
7.28988e-14
7.28986e-14
7.28983e-14
7.28977e-14
7.28968e-14
7.28954e-14
7.28934e-14
7.28906e-14
7.28865e-14
7.28808e-14
7.28728e-14
7.28618e-14
7.28467e-14
7.28261e-14
7.27984e-14
7.27613e-14
7.27121e-14
7.26475e-14
7.25638e-14
7.2457e-14
7.23232e-14
7.21596e-14
7.19673e-14
7.1741e-14
3.5061e-13
3.51791e-13
3.52814e-13
3.53687e-13
3.54402e-13
3.54974e-13
3.55423e-13
3.5577e-13
3.56036e-13
3.56236e-13
3.56387e-13
3.56498e-13
3.56581e-13
3.56642e-13
3.56686e-13
3.56718e-13
3.56741e-13
3.56758e-13
3.5677e-13
3.56778e-13
3.56784e-13
3.56788e-13
3.5679e-13
3.56792e-13
3.56793e-13
3.56793e-13
3.56794e-13
3.56794e-13
3.56794e-13
3.56794e-13
3.56794e-13
3.56794e-13
3.56794e-13
3.56794e-13
3.56793e-13
3.56793e-13
3.56792e-13
3.5679e-13
3.56788e-13
3.56784e-13
3.56778e-13
3.5677e-13
3.56758e-13
3.56741e-13
3.56718e-13
3.56686e-13
3.56642e-13
3.56581e-13
3.56498e-13
3.56387e-13
3.56236e-13
3.56036e-13
3.5577e-13
3.55423e-13
3.54974e-13
3.54402e-13
3.53687e-13
3.52814e-13
3.51791e-13
3.5061e-13
1.74471e-12
1.75095e-12
1.75644e-12
1.76114e-12
1.765e-12
1.76809e-12
1.77051e-12
1.77239e-12
1.77383e-12
1.77492e-12
1.77574e-12
1.77635e-12
1.77681e-12
1.77714e-12
1.77739e-12
1.77757e-12
1.7777e-12
1.7778e-12
1.77786e-12
1.77791e-12
1.77795e-12
1.77797e-12
1.77799e-12
1.778e-12
1.77801e-12
1.77801e-12
1.77801e-12
1.77802e-12
1.77802e-12
1.77802e-12
1.77802e-12
1.77802e-12
1.77802e-12
1.77801e-12
1.77801e-12
1.77801e-12
1.778e-12
1.77799e-12
1.77797e-12
1.77795e-12
1.77791e-12
1.77786e-12
1.7778e-12
1.7777e-12
1.77757e-12
1.77739e-12
1.77714e-12
1.77681e-12
1.77635e-12
1.77574e-12
1.77492e-12
1.77383e-12
1.77239e-12
1.77051e-12
1.76809e-12
1.765e-12
1.76114e-12
1.75644e-12
1.75095e-12
1.74471e-12
8.80651e-12
8.83977e-12
8.86941e-12
8.89487e-12
8.91579e-12
8.93254e-12
8.94573e-12
8.95595e-12
8.96379e-12
8.96974e-12
8.97422e-12
8.97758e-12
8.98008e-12
8.98193e-12
8.9833e-12
8.9843e-12
8.98504e-12
8.98558e-12
8.98597e-12
8.98625e-12
8.98645e-12
8.9866e-12
8.9867e-12
8.98677e-12
8.98682e-12
8.98685e-12
8.98687e-12
8.98689e-12
8.9869e-12
8.9869e-12
8.9869e-12
8.9869e-12
8.98689e-12
8.98687e-12
8.98685e-12
8.98682e-12
8.98677e-12
8.9867e-12
8.9866e-12
8.98645e-12
8.98625e-12
8.98597e-12
8.98558e-12
8.98504e-12
8.9843e-12
8.9833e-12
8.98193e-12
8.98008e-12
8.97758e-12
8.97422e-12
8.96974e-12
8.96379e-12
8.95595e-12
8.94573e-12
8.93254e-12
8.91579e-12
8.89487e-12
8.86941e-12
8.83977e-12
8.80651e-12
4.48838e-11
4.50617e-11
4.52222e-11
4.53601e-11
4.54736e-11
4.55646e-11
4.56363e-11
4.56919e-11
4.57346e-11
4.57671e-11
4.57916e-11
4.581e-11
4.58237e-11
4.58339e-11
4.58415e-11
4.58471e-11
4.58512e-11
4.58542e-11
4.58564e-11
4.5858e-11
4.58592e-11
4.586e-11
4.58606e-11
4.58611e-11
4.58614e-11
4.58616e-11
4.58617e-11
4.58618e-11
4.58619e-11
4.58619e-11
4.58619e-11
4.58619e-11
4.58618e-11
4.58617e-11
4.58616e-11
4.58614e-11
4.58611e-11
4.58606e-11
4.586e-11
4.58592e-11
4.5858e-11
4.58564e-11
4.58542e-11
4.58512e-11
4.58471e-11
4.58415e-11
4.58339e-11
4.58237e-11
4.581e-11
4.57916e-11
4.57671e-11
4.57346e-11
4.56919e-11
4.56363e-11
4.55646e-11
4.54736e-11
4.53601e-11
4.52222e-11
4.50617e-11
4.48838e-11
2.29747e-10
2.30697e-10
2.31562e-10
2.32307e-10
2.32921e-10
2.33413e-10
2.33801e-10
2.34102e-10
2.34334e-10
2.3451e-10
2.34643e-10
2.34743e-10
2.34818e-10
2.34874e-10
2.34915e-10
2.34946e-10
2.34969e-10
2.34986e-10
2.34998e-10
2.35007e-10
2.35014e-10
2.35019e-10
2.35022e-10
2.35025e-10
2.35027e-10
2.35028e-10
2.35029e-10
2.35029e-10
2.3503e-10
2.3503e-10
2.3503e-10
2.3503e-10
2.35029e-10
2.35029e-10
2.35028e-10
2.35027e-10
2.35025e-10
2.35022e-10
2.35019e-10
2.35014e-10
2.35007e-10
2.34998e-10
2.34986e-10
2.34969e-10
2.34946e-10
2.34915e-10
2.34874e-10
2.34818e-10
2.34743e-10
2.34643e-10
2.3451e-10
2.34334e-10
2.34102e-10
2.33801e-10
2.33413e-10
2.32921e-10
2.32307e-10
2.31562e-10
2.30697e-10
2.29747e-10
1.17374e-09
1.17878e-09
1.1834e-09
1.18738e-09
1.19066e-09
1.19329e-09
1.19537e-09
1.19699e-09
1.19823e-09
1.19917e-09
1.19989e-09
1.20043e-09
1.20083e-09
1.20113e-09
1.20136e-09
1.20153e-09
1.20165e-09
1.20174e-09
1.20181e-09
1.20186e-09
1.2019e-09
1.20192e-09
1.20194e-09
1.20196e-09
1.20197e-09
1.20198e-09
1.20198e-09
1.20198e-09
1.20199e-09
1.20199e-09
1.20199e-09
1.20199e-09
1.20198e-09
1.20198e-09
1.20198e-09
1.20197e-09
1.20196e-09
1.20194e-09
1.20192e-09
1.2019e-09
1.20186e-09
1.20181e-09
1.20174e-09
1.20165e-09
1.20153e-09
1.20136e-09
1.20113e-09
1.20083e-09
1.20043e-09
1.19989e-09
1.19917e-09
1.19823e-09
1.19699e-09
1.19537e-09
1.19329e-09
1.19066e-09
1.18738e-09
1.1834e-09
1.17878e-09
1.17374e-09
5.94209e-09
5.96839e-09
5.99264e-09
6.01356e-09
6.0308e-09
6.04464e-09
6.05556e-09
6.06406e-09
6.07059e-09
6.07558e-09
6.07936e-09
6.08221e-09
6.08435e-09
6.08594e-09
6.08714e-09
6.08803e-09
6.08869e-09
6.08918e-09
6.08955e-09
6.08982e-09
6.09002e-09
6.09017e-09
6.09028e-09
6.09036e-09
6.09041e-09
6.09046e-09
6.09048e-09
6.0905e-09
6.09052e-09
6.09052e-09
6.09052e-09
6.09052e-09
6.0905e-09
6.09048e-09
6.09046e-09
6.09041e-09
6.09036e-09
6.09028e-09
6.09017e-09
6.09002e-09
6.08982e-09
6.08955e-09
6.08918e-09
6.08869e-09
6.08803e-09
6.08714e-09
6.08594e-09
6.08435e-09
6.08221e-09
6.07936e-09
6.07558e-09
6.07059e-09
6.06406e-09
6.05556e-09
6.04464e-09
6.0308e-09
6.01356e-09
5.99264e-09
5.96839e-09
5.94209e-09
2.9567e-08
2.97011e-08
2.98251e-08
2.99322e-08
3.00204e-08
3.00913e-08
3.01472e-08
3.01908e-08
3.02243e-08
3.02499e-08
3.02693e-08
3.02839e-08
3.02949e-08
3.03032e-08
3.03093e-08
3.0314e-08
3.03174e-08
3.032e-08
3.03219e-08
3.03233e-08
3.03243e-08
3.03251e-08
3.03257e-08
3.03261e-08
3.03264e-08
3.03267e-08
3.03268e-08
3.03269e-08
3.0327e-08
3.0327e-08
3.0327e-08
3.0327e-08
3.03269e-08
3.03268e-08
3.03267e-08
3.03264e-08
3.03261e-08
3.03257e-08
3.03251e-08
3.03243e-08
3.03233e-08
3.03219e-08
3.032e-08
3.03174e-08
3.0314e-08
3.03093e-08
3.03032e-08
3.02949e-08
3.02839e-08
3.02693e-08
3.02499e-08
3.02243e-08
3.01908e-08
3.01472e-08
3.00913e-08
3.00204e-08
2.99322e-08
2.98251e-08
2.97011e-08
2.9567e-08
1.43282e-07
1.43943e-07
1.44555e-07
1.45084e-07
1.4552e-07
1.4587e-07
1.46146e-07
1.46361e-07
1.46527e-07
1.46654e-07
1.4675e-07
1.46822e-07
1.46877e-07
1.46918e-07
1.46948e-07
1.46971e-07
1.46989e-07
1.47001e-07
1.47011e-07
1.47018e-07
1.47024e-07
1.47027e-07
1.4703e-07
1.47033e-07
1.47034e-07
1.47035e-07
1.47036e-07
1.47037e-07
1.47037e-07
1.47037e-07
1.47037e-07
1.47037e-07
1.47037e-07
1.47036e-07
1.47035e-07
1.47034e-07
1.47033e-07
1.4703e-07
1.47027e-07
1.47024e-07
1.47018e-07
1.47011e-07
1.47001e-07
1.46989e-07
1.46971e-07
1.46948e-07
1.46918e-07
1.46877e-07
1.46822e-07
1.4675e-07
1.46654e-07
1.46527e-07
1.46361e-07
1.46146e-07
1.4587e-07
1.4552e-07
1.45084e-07
1.44555e-07
1.43943e-07
1.43282e-07
6.69357e-07
6.72467e-07
6.75356e-07
6.77846e-07
6.79899e-07
6.81548e-07
6.82851e-07
6.83865e-07
6.84647e-07
6.85245e-07
6.85699e-07
6.86042e-07
6.863e-07
6.86495e-07
6.8664e-07
6.86749e-07
6.86831e-07
6.86892e-07
6.86938e-07
6.86972e-07
6.86998e-07
6.87017e-07
6.87031e-07
6.87042e-07
6.87049e-07
6.87055e-07
6.87059e-07
6.87062e-07
6.87064e-07
6.87064e-07
6.87064e-07
6.87064e-07
6.87062e-07
6.87059e-07
6.87055e-07
6.87049e-07
6.87042e-07
6.87031e-07
6.87017e-07
6.86998e-07
6.86972e-07
6.86938e-07
6.86892e-07
6.86831e-07
6.86749e-07
6.8664e-07
6.86495e-07
6.863e-07
6.86042e-07
6.85699e-07
6.85245e-07
6.84647e-07
6.83865e-07
6.82851e-07
6.81548e-07
6.79899e-07
6.77846e-07
6.75356e-07
6.72467e-07
6.69357e-07
2.98062e-06
2.99445e-06
3.00729e-06
3.01835e-06
3.02747e-06
3.03479e-06
3.04058e-06
3.04509e-06
3.04856e-06
3.05122e-06
3.05324e-06
3.05477e-06
3.05592e-06
3.05679e-06
3.05744e-06
3.05792e-06
3.05829e-06
3.05857e-06
3.05877e-06
3.05893e-06
3.05904e-06
3.05913e-06
3.05919e-06
3.05924e-06
3.05928e-06
3.0593e-06
3.05932e-06
3.05933e-06
3.05934e-06
3.05934e-06
3.05934e-06
3.05934e-06
3.05933e-06
3.05932e-06
3.0593e-06
3.05928e-06
3.05924e-06
3.05919e-06
3.05913e-06
3.05904e-06
3.05893e-06
3.05877e-06
3.05857e-06
3.05829e-06
3.05792e-06
3.05744e-06
3.05679e-06
3.05592e-06
3.05477e-06
3.05324e-06
3.05122e-06
3.04856e-06
3.04509e-06
3.04058e-06
3.03479e-06
3.02747e-06
3.01835e-06
3.00729e-06
2.99445e-06
2.98062e-06
1.24958e-05
1.25531e-05
1.26062e-05
1.26519e-05
1.26895e-05
1.27197e-05
1.27436e-05
1.27622e-05
1.27766e-05
1.27876e-05
1.27959e-05
1.28022e-05
1.2807e-05
1.28106e-05
1.28133e-05
1.28153e-05
1.28169e-05
1.2818e-05
1.28189e-05
1.28195e-05
1.282e-05
1.28204e-05
1.28206e-05
1.28208e-05
1.2821e-05
1.28211e-05
1.28212e-05
1.28212e-05
1.28213e-05
1.28213e-05
1.28213e-05
1.28213e-05
1.28212e-05
1.28212e-05
1.28211e-05
1.2821e-05
1.28208e-05
1.28206e-05
1.28204e-05
1.282e-05
1.28195e-05
1.28189e-05
1.2818e-05
1.28169e-05
1.28153e-05
1.28133e-05
1.28106e-05
1.2807e-05
1.28022e-05
1.27959e-05
1.27876e-05
1.27766e-05
1.27622e-05
1.27436e-05
1.27197e-05
1.26895e-05
1.26519e-05
1.26062e-05
1.25531e-05
1.24958e-05
4.86583e-05
4.88758e-05
4.90769e-05
4.92495e-05
4.93917e-05
4.9506e-05
4.95962e-05
4.96666e-05
4.97209e-05
4.97624e-05
4.97941e-05
4.9818e-05
4.98361e-05
4.98497e-05
4.98599e-05
4.98676e-05
4.98734e-05
4.98778e-05
4.98811e-05
4.98835e-05
4.98854e-05
4.98868e-05
4.98878e-05
4.98886e-05
4.98892e-05
4.98896e-05
4.98899e-05
4.98901e-05
4.98903e-05
4.98903e-05
4.98903e-05
4.98903e-05
4.98901e-05
4.98899e-05
4.98896e-05
4.98892e-05
4.98886e-05
4.98878e-05
4.98868e-05
4.98854e-05
4.98835e-05
4.98811e-05
4.98778e-05
4.98734e-05
4.98676e-05
4.98599e-05
4.98497e-05
4.98361e-05
4.9818e-05
4.97941e-05
4.97624e-05
4.97209e-05
4.96666e-05
4.95962e-05
4.9506e-05
4.93917e-05
4.92495e-05
4.90769e-05
4.88758e-05
4.86583e-05
0.000173417
0.000174162
0.000174847
0.000175434
0.000175917
0.000176305
0.000176612
0.000176851
0.000177036
0.000177177
0.000177285
0.000177366
0.000177428
0.000177474
0.000177509
0.000177536
0.000177555
0.00017757
0.000177582
0.00017759
0.000177597
0.000177601
0.000177605
0.000177608
0.00017761
0.000177611
0.000177612
0.000177613
0.000177613
0.000177614
0.000177614
0.000177613
0.000177613
0.000177612
0.000177611
0.00017761
0.000177608
0.000177605
0.000177601
0.000177597
0.00017759
0.000177582
0.00017757
0.000177555
0.000177536
0.000177509
0.000177474
0.000177428
0.000177366
0.000177285
0.000177177
0.000177036
0.000176851
0.000176612
0.000176305
0.000175917
0.000175434
0.000174847
0.000174162
0.000173417
0.000556822
0.000559072
0.000561131
0.000562893
0.000564342
0.000565506
0.000566425
0.000567142
0.000567696
0.00056812
0.000568443
0.000568687
0.000568872
0.000569012
0.000569117
0.000569197
0.000569257
0.000569302
0.000569336
0.000569361
0.000569381
0.000569395
0.000569406
0.000569415
0.000569421
0.000569425
0.000569429
0.000569431
0.000569432
0.000569433
0.000569433
0.000569432
0.000569431
0.000569429
0.000569425
0.000569421
0.000569415
0.000569406
0.000569395
0.000569381
0.000569361
0.000569336
0.000569302
0.000569257
0.000569197
0.000569117
0.000569012
0.000568872
0.000568687
0.000568443
0.00056812
0.000567696
0.000567142
0.000566425
0.000565506
0.000564342
0.000562893
0.000561131
0.000559072
0.000556822
0.00158494
0.00159082
0.00159618
0.00160074
0.0016045
0.00160751
0.00160989
0.00161175
0.00161318
0.00161428
0.00161512
0.00161575
0.00161623
0.0016166
0.00161687
0.00161708
0.00161723
0.00161735
0.00161744
0.00161751
0.00161756
0.0016176
0.00161762
0.00161765
0.00161766
0.00161767
0.00161768
0.00161769
0.00161769
0.00161769
0.00161769
0.00161769
0.00161769
0.00161768
0.00161767
0.00161766
0.00161765
0.00161762
0.0016176
0.00161756
0.00161751
0.00161744
0.00161735
0.00161723
0.00161708
0.00161687
0.0016166
0.00161623
0.00161575
0.00161512
0.00161428
0.00161318
0.00161175
0.00160989
0.00160751
0.0016045
0.00160074
0.00159618
0.00159082
0.00158494
0.00394133
0.0039544
0.00396619
0.00397623
0.00398447
0.00399108
0.00399631
0.00400039
0.00400354
0.00400595
0.00400779
0.00400919
0.00401025
0.00401105
0.00401165
0.00401211
0.00401245
0.00401271
0.00401291
0.00401306
0.00401317
0.00401326
0.00401332
0.00401337
0.00401341
0.00401343
0.00401345
0.00401347
0.00401347
0.00401348
0.00401348
0.00401347
0.00401347
0.00401345
0.00401343
0.00401341
0.00401337
0.00401332
0.00401326
0.00401317
0.00401306
0.00401291
0.00401271
0.00401245
0.00401211
0.00401165
0.00401105
0.00401025
0.00400919
0.00400779
0.00400595
0.00400354
0.00400039
0.00399631
0.00399108
0.00398447
0.00397623
0.00396619
0.0039544
0.00394133
0.0084821
0.00850646
0.00852825
0.00854674
0.00856191
0.00857408
0.0085837
0.0085912
0.008597
0.00860145
0.00860485
0.00860742
0.00860938
0.00861085
0.00861197
0.00861282
0.00861346
0.00861394
0.00861431
0.00861458
0.00861479
0.00861495
0.00861507
0.00861517
0.00861523
0.00861528
0.00861532
0.00861535
0.00861536
0.00861537
0.00861537
0.00861536
0.00861535
0.00861532
0.00861528
0.00861523
0.00861517
0.00861507
0.00861495
0.00861479
0.00861458
0.00861431
0.00861394
0.00861346
0.00861282
0.00861197
0.00861085
0.00860938
0.00860742
0.00860485
0.00860145
0.008597
0.0085912
0.0085837
0.00857408
0.00856191
0.00854674
0.00852825
0.00850646
0.0084821
0.0157982
0.0158365
0.0158704
0.0158991
0.0159226
0.0159414
0.0159563
0.0159679
0.0159769
0.0159838
0.0159891
0.0159931
0.0159961
0.0159984
0.0160002
0.0160015
0.0160025
0.0160032
0.0160038
0.0160043
0.0160046
0.0160048
0.016005
0.0160052
0.0160053
0.0160054
0.0160054
0.0160055
0.0160055
0.0160055
0.0160055
0.0160055
0.0160055
0.0160054
0.0160054
0.0160053
0.0160052
0.016005
0.0160048
0.0160046
0.0160043
0.0160038
0.0160032
0.0160025
0.0160015
0.0160002
0.0159984
0.0159961
0.0159931
0.0159891
0.0159838
0.0159769
0.0159679
0.0159563
0.0159414
0.0159226
0.0158991
0.0158704
0.0158365
0.0157982
0.0257709
0.0258228
0.0258682
0.0259065
0.0259379
0.0259631
0.025983
0.0259985
0.0260105
0.0260198
0.0260268
0.0260322
0.0260363
0.0260394
0.0260417
0.0260435
0.0260448
0.0260459
0.0260466
0.0260472
0.0260477
0.026048
0.0260483
0.0260485
0.0260486
0.0260487
0.0260488
0.0260489
0.0260489
0.0260489
0.0260489
0.0260489
0.0260489
0.0260488
0.0260487
0.0260486
0.0260485
0.0260483
0.026048
0.0260477
0.0260472
0.0260466
0.0260459
0.0260448
0.0260435
0.0260417
0.0260394
0.0260363
0.0260322
0.0260268
0.0260198
0.0260105
0.0259985
0.025983
0.0259631
0.0259379
0.0259065
0.0258682
0.0258228
0.0257709
0.037629
0.0376921
0.0377467
0.0377926
0.0378302
0.0378604
0.0378842
0.0379028
0.0379173
0.0379284
0.0379368
0.0379433
0.0379482
0.037952
0.0379548
0.037957
0.0379586
0.0379598
0.0379608
0.0379615
0.0379621
0.0379625
0.0379628
0.037963
0.0379632
0.0379633
0.0379634
0.0379635
0.0379636
0.0379636
0.0379636
0.0379636
0.0379635
0.0379634
0.0379633
0.0379632
0.037963
0.0379628
0.0379625
0.0379621
0.0379615
0.0379608
0.0379598
0.0379586
0.037957
0.0379548
0.037952
0.0379482
0.0379433
0.0379368
0.0379284
0.0379173
0.0379028
0.0378842
0.0378604
0.0378302
0.0377926
0.0377467
0.0376921
0.037629
0.0504671
0.0505389
0.0506004
0.0506519
0.0506941
0.0507279
0.0507547
0.0507756
0.0507918
0.0508044
0.0508139
0.0508212
0.0508268
0.050831
0.0508342
0.0508367
0.0508386
0.05084
0.0508411
0.0508419
0.0508425
0.050843
0.0508434
0.0508436
0.0508439
0.050844
0.0508441
0.0508442
0.0508443
0.0508443
0.0508443
0.0508443
0.0508442
0.0508441
0.050844
0.0508439
0.0508436
0.0508434
0.050843
0.0508425
0.0508419
0.0508411
0.05084
0.0508386
0.0508367
0.0508342
0.050831
0.0508268
0.0508212
0.0508139
0.0508044
0.0507918
0.0507756
0.0507547
0.0507279
0.0506941
0.0506519
0.0506004
0.0505389
0.0504671
0.0636715
0.0637504
0.0638175
0.0638735
0.0639193
0.0639561
0.0639853
0.0640081
0.0640258
0.0640395
0.06405
0.064058
0.0640641
0.0640687
0.0640723
0.064075
0.064077
0.0640786
0.0640798
0.0640807
0.0640814
0.064082
0.0640824
0.0640827
0.0640829
0.0640831
0.0640832
0.0640833
0.0640834
0.0640834
0.0640834
0.0640834
0.0640833
0.0640832
0.0640831
0.0640829
0.0640827
0.0640824
0.064082
0.0640814
0.0640807
0.0640798
0.0640786
0.064077
0.064075
0.0640723
0.0640687
0.0640641
0.064058
0.06405
0.0640395
0.0640258
0.0640081
0.0639853
0.0639561
0.0639193
0.0638735
0.0638175
0.0637504
0.0636715
0.0769787
0.0770642
0.0771364
0.0771966
0.0772458
0.0772853
0.0773166
0.0773412
0.0773603
0.0773751
0.0773864
0.0773951
0.0774017
0.0774068
0.0774107
0.0774136
0.0774159
0.0774176
0.0774189
0.0774199
0.0774207
0.0774213
0.0774217
0.0774221
0.0774223
0.0774225
0.0774227
0.0774228
0.0774228
0.0774229
0.0774229
0.0774228
0.0774228
0.0774227
0.0774225
0.0774223
0.0774221
0.0774217
0.0774213
0.0774207
0.0774199
0.0774189
0.0774176
0.0774159
0.0774136
0.0774107
0.0774068
0.0774017
0.0773951
0.0773864
0.0773751
0.0773603
0.0773412
0.0773166
0.0772853
0.0772458
0.0771966
0.0771364
0.0770642
0.0769787
0.0903326
0.0904245
0.0905018
0.0905661
0.0906187
0.090661
0.0906945
0.0907209
0.0907414
0.0907573
0.0907695
0.0907789
0.0907861
0.0907915
0.0907957
0.0907989
0.0908014
0.0908033
0.0908047
0.0908058
0.0908067
0.0908073
0.0908078
0.0908082
0.0908085
0.0908087
0.0908089
0.090809
0.090809
0.0908091
0.0908091
0.090809
0.090809
0.0908089
0.0908087
0.0908085
0.0908082
0.0908078
0.0908073
0.0908067
0.0908058
0.0908047
0.0908033
0.0908014
0.0907989
0.0907957
0.0907915
0.0907861
0.0907789
0.0907695
0.0907573
0.0907414
0.0907209
0.0906945
0.090661
0.0906187
0.0905661
0.0905018
0.0904245
0.0903326
0.103749
0.103848
0.10393
0.103999
0.104055
0.1041
0.104136
0.104164
0.104186
0.104203
0.104216
0.104226
0.104234
0.10424
0.104244
0.104248
0.104251
0.104253
0.104254
0.104255
0.104256
0.104257
0.104258
0.104258
0.104258
0.104259
0.104259
0.104259
0.104259
0.104259
0.104259
0.104259
0.104259
0.104259
0.104259
0.104258
0.104258
0.104258
0.104257
0.104256
0.104255
0.104254
0.104253
0.104251
0.104248
0.104244
0.10424
0.104234
0.104226
0.104216
0.104203
0.104186
0.104164
0.104136
0.1041
0.104055
0.103999
0.10393
0.103848
0.103749
0.117253
0.117358
0.117445
0.117518
0.117578
0.117626
0.117664
0.117694
0.117717
0.117736
0.11775
0.117761
0.117769
0.117775
0.11778
0.117784
0.117787
0.117789
0.117791
0.117792
0.117793
0.117794
0.117795
0.117795
0.117795
0.117796
0.117796
0.117796
0.117796
0.117796
0.117796
0.117796
0.117796
0.117796
0.117796
0.117795
0.117795
0.117795
0.117794
0.117793
0.117792
0.117791
0.117789