/*--------------------------------*- C++ -*----------------------------------*\
| =========                 |                                                 |
| \\      /  F ield         | foam-extend: Open Source CFD                    |
|  \\    /   O peration     | Version:     4.0                                |
|   \\  /    A nd           | Web:         http://www.foam-extend.org         |
|    \\/     M anipulation  |                                                 |
\*---------------------------------------------------------------------------*/
FoamFile
{
    version     2.0;
    format      ascii;
    class       volScalarField;
    location    "25";
    object      dC1;
}
// * * * * * * * * * * * * * * * * * * * * * * * * * * * * * * * * * * * * * //

dimensions      [0 -1 0 0 0 0 0];

internalField   nonuniform List<scalar> 
6960
(
1.24492e-14
1.29757e-14
1.32758e-14
1.27494e-14
1.33504e-14
1.33496e-14
1.3726e-14
1.27494e-14
1.29753e-14
1.3275e-14
1.35005e-14
1.34996e-14
1.26756e-14
1.3425e-14
1.29011e-14
1.27498e-14
1.33513e-14
1.29753e-14
1.27498e-14
1.30503e-14
1.28248e-14
1.3801e-14
1.30499e-14
1.335e-14
1.38765e-14
1.25251e-14
1.29749e-14
1.32004e-14
1.32758e-14
1.29749e-14
1.20758e-14
1.31245e-14
1.39519e-14
1.40248e-14
1.3425e-14
1.3425e-14
1.34259e-14
1.25256e-14
1.3049e-14
1.32008e-14
1.29749e-14
1.34259e-14
1.35759e-14
1.19995e-14
1.29007e-14
1.39498e-14
1.32754e-14
1.33513e-14
1.35005e-14
1.25984e-14
1.38015e-14
1.335e-14
1.27498e-14
1.27502e-14
1.335e-14
1.36505e-14
1.23751e-14
1.27498e-14
1.26015e-14
1.35001e-14
4.01198e-15
4.2015e-15
4.21885e-15
3.78647e-15
4.07009e-15
4.2375e-15
4.05015e-15
4.01242e-15
4.25658e-15
4.3689e-15
4.06966e-15
4.06749e-15
4.25701e-15
3.99333e-15
4.10739e-15
4.18025e-15
4.55712e-15
4.29344e-15
4.61263e-15
4.44436e-15
4.3303e-15
4.10696e-15
4.2002e-15
4.2375e-15
4.51982e-15
4.29301e-15
3.97512e-15
3.99333e-15
4.50074e-15
4.04884e-15
4.87631e-15
4.49987e-15
4.14425e-15
4.44436e-15
4.18068e-15
3.86193e-15
4.53804e-15
4.42571e-15
4.36803e-15
4.35069e-15
4.31252e-15
3.99377e-15
4.27523e-15
4.1629e-15
4.33117e-15
4.55755e-15
4.10522e-15
4.31339e-15
4.03106e-15
4.01242e-15
4.01285e-15
4.21928e-15
4.03063e-15
4.12561e-15
4.12561e-15
4.14382e-15
4.66944e-15
4.38712e-15
3.86236e-15
3.80642e-15
1.63107e-15
1.78243e-15
1.40599e-15
1.78156e-15
1.41553e-15
1.58467e-15
1.27415e-15
1.48189e-15
1.5838e-15
1.72518e-15
1.60332e-15
1.37737e-15
1.34007e-15
1.86613e-15
1.59421e-15
1.1705e-15
1.31275e-15
1.33053e-15
1.39732e-15
1.31275e-15
1.23686e-15
1.39819e-15
1.43375e-15
1.44372e-15
1.285e-15
1.49056e-15
1.61243e-15
1.65883e-15
1.55691e-15
1.50921e-15
1.37911e-15
1.43375e-15
1.4524e-15
1.47278e-15
1.31232e-15
1.48145e-15
1.51918e-15
1.60375e-15
1.41467e-15
1.27502e-15
1.51875e-15
1.75294e-15
1.39645e-15
1.38778e-15
1.41553e-15
1.68832e-15
1.48102e-15
1.59421e-15
1.28326e-15
1.51918e-15
1.38691e-15
1.576e-15
1.48015e-15
1.78113e-15
1.67834e-15
1.5747e-15
1.63107e-15
1.26548e-15
1.52873e-15
1.44372e-15
-3.75568e-16
-3.322e-16
-3.38271e-16
-3.6169e-16
-1.91253e-16
-3.85109e-16
-4.08094e-16
-2.6628e-16
-4.03757e-16
-6.52256e-16
-4.34548e-16
-5.59015e-16
-5.19983e-16
-5.39065e-16
-3.46077e-16
-4.50161e-16
-6.84348e-16
-4.4062e-16
-2.47632e-16
-1.4962e-16
-3.33501e-16
-3.50848e-16
-5.20851e-16
-3.18755e-16
-4.26308e-16
-4.74447e-16
-4.82253e-16
-4.64472e-16
-3.50848e-16
-3.00541e-16
-4.25875e-16
-4.77916e-16
-5.91541e-16
-4.63171e-16
-2.91434e-16
-4.12431e-16
-4.12864e-16
-3.42174e-16
-4.31946e-16
-3.69496e-16
-3.55618e-16
-5.29958e-16
-4.0766e-16
-2.52836e-16
-4.13732e-16
-4.96565e-16
-4.26742e-16
-5.5728e-16
-5.91541e-16
-2.29417e-16
-4.7358e-16
-3.50848e-16
-4.96998e-16
-6.70904e-16
-3.98119e-16
-4.91794e-16
-6.89986e-16
-3.322e-16
-3.98986e-16
-2.71918e-16
-1.68095e-15
-1.70784e-15
-1.7512e-15
-1.73906e-15
-1.63584e-15
-1.85832e-15
-1.73516e-15
-1.75684e-15
-1.83057e-15
-1.71781e-15
-1.68442e-15
-1.90169e-15
-1.68051e-15
-1.60419e-15
-1.75814e-15
-1.83143e-15
-1.48796e-15
-1.6597e-15
-1.67097e-15
-1.78763e-15
-1.8362e-15
-1.75727e-15
-1.6688e-15
-1.83317e-15
-1.72215e-15
-1.81712e-15
-1.7499e-15
-1.77506e-15
-1.67097e-15
-1.81452e-15
-1.68962e-15
-1.76725e-15
-1.76768e-15
-1.6584e-15
-1.77939e-15
-1.75294e-15
-1.74166e-15
-1.81192e-15
-1.71391e-15
-1.76942e-15
-1.75944e-15
-1.83404e-15
-1.71998e-15
-1.65926e-15
-1.77245e-15
-1.62413e-15
-1.73429e-15
-1.80238e-15
-1.66664e-15
-1.83967e-15
-1.7022e-15
-1.66056e-15
-1.74947e-15
-1.75381e-15
-1.78069e-15
-1.62587e-15
-1.54781e-15
-1.60679e-15
-1.91817e-15
-1.80932e-15
-2.57346e-15
-2.53313e-15
-2.62984e-15
-2.63938e-15
-2.60859e-15
-2.54744e-15
-2.48933e-15
-2.48586e-15
-2.46417e-15
-2.58777e-15
-2.56349e-15
-2.60946e-15
-2.51969e-15
-2.55004e-15
-2.51969e-15
-2.46808e-15
-2.67885e-15
-2.63288e-15
-2.67364e-15
-2.48456e-15
-2.51752e-15
-2.51231e-15
-2.51969e-15
-2.5804e-15
-2.48933e-15
-2.5366e-15
-2.54441e-15
-2.55785e-15
-2.56826e-15
-2.59948e-15
-2.63374e-15
-2.5379e-15
-2.50884e-15
-2.60339e-15
-2.56175e-15
-2.54354e-15
-2.60165e-15
-2.58734e-15
-2.6628e-15
-2.57259e-15
-2.57303e-15
-2.55308e-15
-2.59254e-15
-2.69099e-15
-2.63201e-15
-2.63635e-15
-2.65109e-15
-2.48369e-15
-2.55048e-15
-2.57606e-15
-2.59471e-15
-2.52012e-15
-2.58127e-15
-2.61596e-15
-2.47935e-15
-2.57086e-15
-2.74563e-15
-2.67104e-15
-2.54571e-15
-2.62507e-15
-2.85145e-15
-2.90306e-15
-2.85405e-15
-2.87444e-15
-2.88658e-15
-2.86533e-15
-2.88571e-15
-2.86663e-15
-2.97115e-15
-2.86013e-15
-2.92561e-15
-2.88918e-15
-2.87921e-15
-2.84711e-15
-2.9139e-15
-2.91564e-15
-2.90263e-15
-2.89135e-15
-2.7864e-15
-2.85102e-15
-2.89395e-15
-2.84365e-15
-2.93212e-15
-2.8675e-15
-2.92604e-15
-2.86316e-15
-2.91607e-15
-2.93428e-15
-2.92778e-15
-2.88354e-15
-2.83844e-15
-2.91607e-15
-2.95423e-15
-2.84104e-15
-2.87877e-15
-2.86273e-15
-2.83801e-15
-2.85232e-15
-2.83757e-15
-2.83367e-15
-2.87053e-15
-2.90002e-15
-2.86967e-15
-2.85145e-15
-2.87053e-15
-2.86229e-15
-2.88701e-15
-2.8649e-15
-2.86229e-15
-2.82109e-15
-2.92648e-15
-2.81893e-15
-2.91173e-15
-2.8714e-15
-2.88224e-15
-2.9152e-15
-2.84451e-15
-2.83801e-15
-2.85622e-15
-2.8688e-15
-2.80635e-15
-2.82066e-15
-2.7916e-15
-2.82543e-15
-2.80071e-15
-2.82326e-15
-2.81719e-15
-2.76038e-15
-2.76341e-15
-2.79637e-15
-2.77165e-15
-2.76385e-15
-2.79421e-15
-2.79681e-15
-2.81719e-15
-2.78336e-15
-2.77686e-15
-2.7504e-15
-2.8224e-15
-2.79551e-15
-2.85839e-15
-2.81676e-15
-2.80028e-15
-2.75778e-15
-2.84191e-15
-2.77079e-15
-2.79724e-15
-2.83064e-15
-2.82283e-15
-2.81806e-15
-2.74997e-15
-2.74824e-15
-2.79551e-15
-2.76472e-15
-2.80375e-15
-2.79984e-15
-2.79941e-15
-2.84885e-15
-2.85492e-15
-2.78683e-15
-2.74563e-15
-2.81936e-15
-2.79074e-15
-2.81893e-15
-2.83324e-15
-2.81546e-15
-2.82456e-15
-2.79334e-15
-2.84018e-15
-2.81285e-15
-2.77512e-15
-2.83454e-15
-2.7504e-15
-2.78857e-15
-2.79724e-15
-2.76341e-15
-2.81676e-15
-2.80895e-15
-2.84278e-15
-2.77296e-15
-2.47415e-15
-2.48109e-15
-2.43599e-15
-2.46331e-15
-2.46548e-15
-2.4516e-15
-2.51318e-15
-2.46981e-15
-2.48629e-15
-2.48109e-15
-2.49887e-15
-2.4568e-15
-2.46764e-15
-2.46895e-15
-2.44943e-15
-2.47155e-15
-2.53747e-15
-2.47719e-15
-2.46678e-15
-2.51492e-15
-2.40433e-15
-2.45507e-15
-2.4555e-15
-2.42037e-15
-2.41474e-15
-2.48196e-15
-2.40476e-15
-2.45854e-15
-2.40953e-15
-2.40216e-15
-2.49366e-15
-2.48846e-15
-2.44639e-15
-2.44292e-15
-2.45897e-15
-2.41647e-15
-2.44336e-15
-2.46287e-15
-2.45247e-15
-2.46157e-15
-2.49193e-15
-2.42298e-15
-2.44249e-15
-2.47502e-15
-2.40259e-15
-2.44639e-15
-2.42688e-15
-2.46114e-15
-2.43902e-15
-2.47632e-15
-2.4503e-15
-2.40823e-15
-2.45637e-15
-2.46071e-15
-2.42471e-15
-2.45637e-15
-2.47979e-15
-2.44032e-15
-2.44292e-15
-2.47372e-15
-2.00968e-15
-1.96761e-15
-2.01185e-15
-1.99493e-15
-2.01141e-15
-1.97715e-15
-1.99146e-15
-1.97368e-15
-1.9507e-15
-1.94246e-15
-1.96544e-15
-1.9958e-15
-1.97932e-15
-1.99146e-15
-1.98062e-15
-1.97845e-15
-1.92337e-15
-1.97628e-15
-1.9611e-15
-1.94463e-15
-1.9932e-15
-1.98366e-15
-1.97325e-15
-2.05305e-15
-1.98843e-15
-1.97758e-15
-1.97628e-15
-2.01488e-15
-2.02182e-15
-2.04003e-15
-1.96934e-15
-1.94853e-15
-1.97455e-15
-1.9919e-15
-1.97238e-15
-1.97498e-15
-2.0023e-15
-1.9932e-15
-1.96588e-15
-1.96674e-15
-1.98322e-15
-2.00187e-15
-1.97368e-15
-1.99363e-15
-2.03266e-15
-1.97108e-15
-1.99927e-15
-1.99103e-15
-1.97108e-15
-1.952e-15
-1.98322e-15
-2.01228e-15
-2.00274e-15
-1.98192e-15
-1.99927e-15
-1.99537e-15
-1.99146e-15
-2.01271e-15
-1.95894e-15
-2.00404e-15
-1.48102e-15
-1.4524e-15
-1.48319e-15
-1.47755e-15
-1.45934e-15
-1.48015e-15
-1.45977e-15
-1.49316e-15
-1.51485e-15
-1.51788e-15
-1.46541e-15
-1.48102e-15
-1.47018e-15
-1.44502e-15
-1.50661e-15
-1.46844e-15
-1.48189e-15
-1.50054e-15
-1.48145e-15
-1.53436e-15
-1.48492e-15
-1.52222e-15
-1.50661e-15
-1.43809e-15
-1.47929e-15
-1.48492e-15
-1.47755e-15
-1.47148e-15
-1.45196e-15
-1.48319e-15
-1.48015e-15
-1.51094e-15
-1.48059e-15
-1.48622e-15
-1.49923e-15
-1.48969e-15
-1.50878e-15
-1.47755e-15
-1.46974e-15
-1.48232e-15
-1.45847e-15
-1.50357e-15
-1.48969e-15
-1.44806e-15
-1.42898e-15
-1.48753e-15
-1.4563e-15
-1.4615e-15
-1.48753e-15
-1.50357e-15
-1.48839e-15
-1.46844e-15
-1.48709e-15
-1.47148e-15
-1.48189e-15
-1.47278e-15
-1.44763e-15
-1.49143e-15
-1.48232e-15
-1.48449e-15
-9.95298e-16
-1.0339e-15
-1.03086e-15
-1.02696e-15
-1.03693e-15
-1.01134e-15
-1.03086e-15
-1.04647e-15
-1.01221e-15
-1.01264e-15
-1.04604e-15
-1.02349e-15
-1.04994e-15
-1.05515e-15
-1.02349e-15
-1.05775e-15
-1.03736e-15
-1.0456e-15
-1.0404e-15
-1.02219e-15
-1.00831e-15
-9.74915e-16
-1.01308e-15
-1.05298e-15
-1.04214e-15
-1.03129e-15
-1.02045e-15
-1.03043e-15
-1.07726e-15
-1.02219e-15
-1.07379e-15
-1.03216e-15
-1.00527e-15
-1.03346e-15
-1.02435e-15
-1.02696e-15
-1.05038e-15
-1.02609e-15
-1.04474e-15
-1.05254e-15
-1.03867e-15
-1.01872e-15
-9.97466e-16
-1.04604e-15
-1.03606e-15
-1.03043e-15
-1.05471e-15
-1.04474e-15
-1.01178e-15
-1.01004e-15
-1.03173e-15
-1.03867e-15
-1.00918e-15
-1.05515e-15
-1.03693e-15
-1.0391e-15
-1.05471e-15
-1.02999e-15
-1.02088e-15
-1.03736e-15
-6.87818e-16
-6.76976e-16
-6.63532e-16
-6.76976e-16
-6.55725e-16
-6.93456e-16
-6.78711e-16
-6.44883e-16
-6.86083e-16
-6.93022e-16
-6.6093e-16
-6.67435e-16
-6.81746e-16
-6.67869e-16
-6.58761e-16
-6.67001e-16
-6.75675e-16
-6.63098e-16
-6.68736e-16
-6.70904e-16
-6.70037e-16
-6.92588e-16
-6.52256e-16
-6.59195e-16
-6.84348e-16
-6.84782e-16
-6.86517e-16
-6.63098e-16
-6.71338e-16
-6.83915e-16
-6.55292e-16
-6.55292e-16
-6.65266e-16
-6.66567e-16
-6.70904e-16
-6.77843e-16
-6.63532e-16
-6.95624e-16
-6.60496e-16
-6.57027e-16
-6.8218e-16
-6.96058e-16
-6.84348e-16
-6.6093e-16
-6.99094e-16
-6.4922e-16
-6.63965e-16
-6.68302e-16
-7.069e-16
-7.02563e-16
-6.88685e-16
-6.37945e-16
-6.91721e-16
-6.60062e-16
-6.91287e-16
-6.70037e-16
-6.657e-16
-6.76108e-16
-6.85649e-16
-6.63532e-16
-4.21971e-16
-4.25441e-16
-4.30645e-16
-3.90746e-16
-4.22405e-16
-4.21104e-16
-4.19803e-16
-4.51462e-16
-4.27176e-16
-3.98553e-16
-4.09828e-16
-4.25441e-16
-4.21971e-16
-3.90746e-16
-4.18502e-16
-4.26308e-16
-3.94216e-16
-4.03757e-16
-4.23706e-16
-4.12864e-16
-4.41487e-16
-4.29344e-16
-4.15033e-16
-4.21104e-16
-4.17201e-16
-4.23706e-16
-4.11563e-16
-4.14599e-16
-4.03323e-16
-4.09828e-16
-4.03323e-16
-4.4539e-16
-4.49293e-16
-3.82073e-16
-4.18936e-16
-4.34548e-16
-4.24574e-16
-4.15466e-16
-4.16767e-16
-4.18068e-16
-4.11563e-16
-4.01588e-16
-4.2891e-16
-4.12431e-16
-3.95517e-16
-4.44957e-16
-4.05925e-16
-3.9942e-16
-4.14599e-16
-4.25007e-16
-3.92915e-16
-4.49293e-16
-4.09828e-16
-4.45824e-16
-4.22839e-16
-4.28043e-16
-4.07226e-16
-4.11997e-16
-3.81205e-16
-4.00287e-16
-2.28116e-16
-2.32887e-16
-2.57173e-16
-2.76688e-16
-2.57606e-16
-2.22045e-16
-2.60642e-16
-2.08167e-16
-2.37223e-16
-2.75387e-16
-2.52402e-16
-2.47632e-16
-2.61943e-16
-2.5804e-16
-2.34621e-16
-2.42428e-16
-2.39826e-16
-2.59775e-16
-1.98626e-16
-2.55872e-16
-2.61943e-16
-2.57606e-16
-2.6628e-16
-2.37657e-16
-2.44162e-16
-2.38958e-16
-2.78857e-16
-2.6151e-16
-2.50668e-16
-2.55872e-16
-2.42861e-16
-2.31152e-16
-2.42861e-16
-2.85362e-16
-2.29417e-16
-2.38524e-16
-2.68448e-16
-2.47198e-16
-2.35489e-16
-2.43729e-16
-2.51101e-16
-2.55004e-16
-2.10769e-16
-2.64112e-16
-2.61943e-16
-2.39826e-16
-2.47632e-16
-2.51101e-16
-2.34621e-16
-2.17708e-16
-2.85362e-16
-2.36356e-16
-2.40259e-16
-2.34188e-16
-2.51969e-16
-2.41994e-16
-2.55872e-16
-2.55872e-16
-2.93602e-16
-2.50668e-16
-1.70003e-16
-1.77809e-16
-1.56559e-16
-1.09288e-16
-1.21864e-16
-1.58294e-16
-1.45283e-16
-1.7087e-16
-1.56992e-16
-1.39645e-16
-1.39212e-16
-1.61763e-16
-1.38778e-16
-1.0842e-16
-1.65232e-16
-1.54824e-16
-1.80845e-16
-1.48753e-16
-1.92121e-16
-1.39645e-16
-1.47018e-16
-1.37043e-16
-1.47451e-16
-1.51788e-16
-1.68268e-16
-1.66533e-16
-1.56992e-16
-1.56125e-16
-1.63498e-16
-1.45283e-16
-1.53089e-16
-1.34441e-16
-1.25334e-16
-1.59595e-16
-1.31405e-16
-1.69569e-16
-1.5439e-16
-1.43548e-16
-1.56559e-16
-1.52656e-16
-1.85615e-16
-1.73472e-16
-2.23346e-16
-1.63931e-16
-1.58727e-16
-1.55258e-16
-1.60462e-16
-1.63498e-16
-1.56992e-16
-1.8258e-16
-1.58727e-16
-1.80845e-16
-1.56992e-16
-1.77375e-16
-1.62197e-16
-1.69569e-16
-1.30972e-16
-1.79978e-16
-1.43548e-16
-1.40079e-16
-1.50921e-16
-1.0365e-16
-1.39212e-16
-1.44416e-16
-1.46584e-16
-1.44416e-16
-1.45283e-16
-1.35742e-16
-1.26635e-16
-9.49761e-17
-1.66967e-16
-1.48319e-16
-1.30538e-16
-1.70437e-16
-1.2013e-16
-1.30972e-16
-9.97466e-17
-1.04083e-16
-8.71699e-17
-1.60028e-16
-1.24033e-16
-1.55258e-16
-1.0365e-16
-1.51355e-16
-9.84456e-17
-1.05384e-16
-1.23599e-16
-1.00614e-16
-1.02782e-16
-1.15359e-16
-1.37477e-16
-1.45717e-16
-1.46584e-16
-9.15067e-17
-1.56125e-16
-1.37911e-16
-1.42681e-16
-1.5439e-16
-1.37043e-16
-9.84456e-17
-1.07553e-16
-1.17094e-16
-8.0231e-17
-1.21864e-16
-1.19262e-16
-1.32273e-16
-9.67108e-17
-9.97466e-17
-1.37477e-16
-1.1666e-16
-1.19262e-16
-8.32667e-17
-1.33574e-16
-1.40946e-16
-9.84456e-17
-1.22732e-16
-1.13624e-16
-1.18829e-16
-1.14492e-16
-1.25767e-16
-1.31405e-16
-1.64799e-16
-1.26201e-16
-1.39212e-16
-1.35742e-16
-1.34007e-16
-1.11456e-16
-1.58727e-16
-1.64365e-16
-1.42681e-16
-1.17528e-16
-1.29671e-16
-1.31405e-16
-1.33574e-16
-1.13191e-16
-1.56125e-16
-1.32273e-16
-1.62197e-16
-1.68702e-16
-1.35742e-16
-1.45283e-16
-1.58727e-16
-1.52656e-16
-1.27936e-16
-1.78677e-16
-1.45283e-16
-1.30104e-16
-1.80411e-16
-1.46584e-16
-1.56559e-16
-1.05384e-16
-1.48753e-16
-1.58294e-16
-1.61329e-16
-1.66967e-16
-1.40079e-16
-1.45717e-16
-1.40946e-16
-9.67108e-17
-1.32706e-16
-1.67401e-16
-1.36176e-16
-1.61329e-16
-1.52656e-16
-1.67401e-16
-1.42681e-16
-1.62197e-16
-1.74773e-16
-1.66967e-16
-1.72171e-16
-1.11456e-16
-1.65666e-16
-1.50054e-16
-1.2837e-16
-1.78677e-16
-1.45717e-16
-1.65666e-16
-1.18829e-16
-1.65232e-16
-1.39212e-16
-1.86916e-16
-1.9082e-16
-1.60028e-16
-1.67401e-16
-1.78677e-16
-1.7087e-16
-2.28983e-16
-1.56125e-16
-1.65666e-16
-1.94289e-16
-1.89085e-16
-2.08167e-16
-2.25514e-16
-1.86049e-16
-1.92121e-16
-1.84314e-16
-2.05131e-16
-2.08167e-16
-1.92988e-16
-1.88651e-16
-2.0383e-16
-1.57426e-16
-1.77809e-16
-2.12937e-16
-1.92121e-16
-1.99493e-16
-2.00794e-16
-1.61763e-16
-2.51101e-16
-1.9906e-16
-2.13371e-16
-1.8735e-16
-2.14672e-16
-1.91687e-16
-1.39645e-16
-2.05131e-16
-2.04697e-16
-2.02095e-16
-2.54137e-16
-2.18141e-16
-1.83447e-16
-1.96024e-16
-1.73906e-16
-2.06866e-16
-1.91253e-16
-1.85615e-16
-1.7911e-16
-1.86483e-16
-1.661e-16
-1.93422e-16
-2.03396e-16
-2.15973e-16
-1.58727e-16
-2.04264e-16
-1.4962e-16
-1.97758e-16
-1.86483e-16
-2.09468e-16
-1.65232e-16
-2.02963e-16
-3.16153e-16
-2.87097e-16
-3.08347e-16
-3.00541e-16
-3.02709e-16
-3.1572e-16
-2.64979e-16
-2.97939e-16
-2.76255e-16
-2.81459e-16
-3.06179e-16
-2.52402e-16
-2.498e-16
-2.66714e-16
-2.97071e-16
-2.88398e-16
-2.33754e-16
-2.73653e-16
-2.73653e-16
-3.03577e-16
-2.42428e-16
-3.02276e-16
-2.94469e-16
-2.6628e-16
-2.73219e-16
-2.79724e-16
-2.81025e-16
-2.70617e-16
-2.21611e-16
-2.17274e-16
-2.6151e-16
-2.67147e-16
-2.4156e-16
-3.08781e-16
-3.24827e-16
-2.71918e-16
-2.45897e-16
-2.6975e-16
-2.25514e-16
-2.39826e-16
-2.86229e-16
-2.59775e-16
-2.86229e-16
-2.73219e-16
-2.8276e-16
-2.64112e-16
-2.64112e-16
-2.85796e-16
-3.05311e-16
-2.52836e-16
-2.65846e-16
-2.35489e-16
-2.69316e-16
-2.59775e-16
-3.13551e-16
-2.71484e-16
-2.86229e-16
-2.70183e-16
-2.76255e-16
-2.98372e-16
-3.75134e-16
-3.66027e-16
-3.76001e-16
-4.07226e-16
-3.40439e-16
-3.59521e-16
-3.6993e-16
-3.86843e-16
-3.90313e-16
-3.70363e-16
-3.56052e-16
-3.92915e-16
-4.09828e-16
-3.55185e-16
-3.63425e-16
-3.52583e-16
-3.94216e-16
-3.37404e-16
-3.85976e-16
-3.57787e-16
-3.8294e-16
-3.65159e-16
-3.56919e-16
-3.70797e-16
-3.50414e-16
-3.38705e-16
-3.70363e-16
-3.91614e-16
-3.8294e-16
-3.90746e-16
-3.92048e-16
-3.9942e-16
-3.95951e-16
-3.56052e-16
-3.60389e-16
-3.29597e-16
-4.20237e-16
-3.97685e-16
-4.35849e-16
-3.50848e-16
-3.43475e-16
-4.27609e-16
-3.60389e-16
-3.77736e-16
-3.6646e-16
-4.01155e-16
-3.8294e-16
-4.06793e-16
-3.38271e-16
-3.68629e-16
-3.90746e-16
-4.12864e-16
-3.89445e-16
-3.73833e-16
-3.70363e-16
-3.57353e-16
-3.75134e-16
-3.62991e-16
-3.52583e-16
-3.62557e-16
-5.28223e-16
-5.35596e-16
-4.94396e-16
-4.7358e-16
-5.5728e-16
-5.3256e-16
-5.00901e-16
-4.87457e-16
-5.30825e-16
-5.41234e-16
-5.61617e-16
-5.30825e-16
-4.87024e-16
-5.46872e-16
-4.79217e-16
-5.68556e-16
-5.31259e-16
-5.63351e-16
-5.13044e-16
-5.02636e-16
-5.16948e-16
-5.34295e-16
-5.39933e-16
-5.18682e-16
-5.30825e-16
-5.37764e-16
-4.85289e-16
-5.15213e-16
-4.83988e-16
-5.13478e-16
-4.87024e-16
-5.50341e-16
-5.35162e-16
-5.23453e-16
-5.15647e-16
-5.10876e-16
-4.6187e-16
-5.31693e-16
-4.85723e-16
-5.69423e-16
-5.95878e-16
-5.1608e-16
-5.5381e-16
-4.87024e-16
-4.99167e-16
-4.80518e-16
-5.16514e-16
-4.34548e-16
-4.88758e-16
-5.18249e-16
-5.1131e-16
-5.13478e-16
-5.55979e-16
-5.42101e-16
-5.41234e-16
-4.82687e-16
-4.96131e-16
-5.52943e-16
-5.66821e-16
-5.16948e-16
-6.83481e-16
-6.82614e-16
-7.58074e-16
-7.31186e-16
-6.74374e-16
-6.7741e-16
-7.05599e-16
-7.19477e-16
-6.87818e-16
-7.12971e-16
-6.6917e-16
-6.8695e-16
-7.12971e-16
-6.42715e-16
-7.70217e-16
-6.41414e-16
-6.99094e-16
-6.68736e-16
-6.97359e-16
-6.74807e-16
-6.98226e-16
-6.99527e-16
-6.91721e-16
-6.47919e-16
-6.93889e-16
-7.08201e-16
-6.93022e-16
-7.55906e-16
-7.37257e-16
-6.79144e-16
-7.18176e-16
-6.28837e-16
-6.87384e-16
-6.91721e-16
-6.92155e-16
-7.40293e-16
-7.63712e-16
-6.69603e-16
-7.09068e-16
-6.80012e-16
-6.86517e-16
-6.83915e-16
-6.79144e-16
-7.40727e-16
-7.35956e-16
-7.25982e-16
-7.06032e-16
-7.36824e-16
-7.3162e-16
-7.07767e-16
-7.11237e-16
-6.97359e-16
-6.12357e-16
-6.86517e-16
-6.68736e-16
-7.1514e-16
-7.4463e-16
-6.83047e-16
-6.79578e-16
-7.63712e-16
-9.71879e-16
-9.59736e-16
-9.28511e-16
-9.57134e-16
-9.39786e-16
-9.14633e-16
-9.45424e-16
-9.92262e-16
-9.48894e-16
-9.30679e-16
-9.38485e-16
-9.25041e-16
-9.72313e-16
-1.01308e-15
-9.12465e-16
-9.39786e-16
-9.25475e-16
-9.05092e-16
-9.30679e-16
-1.01698e-15
-9.67976e-16
-9.41087e-16
-9.60603e-16
-1.03303e-15
-9.58868e-16
-9.58868e-16
-9.3545e-16
-8.50448e-16
-9.38485e-16
-1.01308e-15
-9.44123e-16
-1.00094e-15
-9.7318e-16
-9.24174e-16
-9.53231e-16
-9.50195e-16
-8.76469e-16
-9.3545e-16
-9.53231e-16
-9.60169e-16
-9.71011e-16
-9.73614e-16
-9.19837e-16
-8.89913e-16
-9.51062e-16
-9.41087e-16
-9.7795e-16
-9.7795e-16
-9.4369e-16
-9.39786e-16
-9.58435e-16
-9.73614e-16
-1.00224e-15
-9.44123e-16
-9.63639e-16
-9.5193e-16
-9.24174e-16
-9.44557e-16
-9.9443e-16
-9.37184e-16
-1.29584e-15
-1.27936e-15
-1.29757e-15
-1.2954e-15
-1.33313e-15
-1.28023e-15
-1.29497e-15
-1.23773e-15
-1.27632e-15
-1.27676e-15
-1.37477e-15
-1.31232e-15
-1.27892e-15
-1.27329e-15
-1.35048e-15
-1.27632e-15
-1.3366e-15
-1.32836e-15
-1.30061e-15
-1.2464e-15
-1.28023e-15
-1.32273e-15
-1.26158e-15
-1.26982e-15
-1.28543e-15
-1.31232e-15
-1.34484e-15
-1.32663e-15
-1.25681e-15
-1.21604e-15
-1.25681e-15
-1.30061e-15
-1.34441e-15
-1.27155e-15
-1.32186e-15
-1.25811e-15
-1.36219e-15
-1.28196e-15
-1.30625e-15
-1.29757e-15
-1.27979e-15
-1.30972e-15
-1.29974e-15
-1.30711e-15
-1.29974e-15
-1.30061e-15
-1.26028e-15
-1.22862e-15
-1.26201e-15
-1.30538e-15
-1.28543e-15
-1.2438e-15
-1.28066e-15
-1.25551e-15
-1.27068e-15
-1.28413e-15
-1.28066e-15
-1.25941e-15
-1.27632e-15
-1.29367e-15
-1.74123e-15
-1.80541e-15
-1.78633e-15
-1.7924e-15
-1.78026e-15
-1.82623e-15
-1.79067e-15
-1.83707e-15
-1.80325e-15
-1.76985e-15
-1.78893e-15
-1.7937e-15
-1.831e-15
-1.78113e-15
-1.76465e-15
-1.83534e-15
-1.76161e-15
-1.81018e-15
-1.76031e-15
-1.75684e-15
-1.83967e-15
-1.76812e-15
-1.79891e-15
-1.77636e-15
-1.74123e-15
-1.74513e-15
-1.76551e-15
-1.79978e-15
-1.84141e-15
-1.80758e-15
-1.84401e-15
-1.76508e-15
-1.75424e-15
-1.80151e-15
-1.81495e-15
-1.81148e-15
-1.7937e-15
-1.84184e-15
-1.77289e-15
-1.81062e-15
-1.77332e-15
-1.80194e-15
-1.77029e-15
-1.77462e-15
-1.77853e-15
-1.7885e-15
-1.85355e-15
-1.82319e-15
-1.80455e-15
-1.80975e-15
-1.76812e-15
-1.81495e-15
-1.82666e-15
-1.84791e-15
-1.75814e-15
-1.77939e-15
-1.81626e-15
-1.83447e-15
-1.79457e-15
-1.75988e-15
-2.53747e-15
-2.45593e-15
-2.55698e-15
-2.48933e-15
-2.57606e-15
-2.48022e-15
-2.53009e-15
-2.49844e-15
-2.52185e-15
-2.55525e-15
-2.50104e-15
-2.51708e-15
-2.47805e-15
-2.4954e-15
-2.55915e-15
-2.46851e-15
-2.5366e-15
-2.47025e-15
-2.57737e-15
-2.52532e-15
-2.49713e-15
-2.52576e-15
-2.54094e-15
-2.55221e-15
-2.56349e-15
-2.62073e-15
-2.47155e-15
-2.53443e-15
-2.51188e-15
-2.51795e-15
-2.51622e-15
-2.5431e-15
-2.50798e-15
-2.57997e-15
-2.42514e-15
-2.52099e-15
-2.50624e-15
-2.49757e-15
-2.52055e-15
-2.47892e-15
-2.48586e-15
-2.50754e-15
-2.52099e-15
-2.53486e-15
-2.51969e-15
-2.50364e-15
-2.46027e-15
-2.5019e-15
-2.50147e-15
-2.49627e-15
-2.51838e-15
-2.55438e-15
-2.51708e-15
-2.48673e-15
-2.50104e-15
-2.55048e-15
-2.48369e-15
-2.48499e-15
-2.51231e-15
-2.55438e-15
-3.50544e-15
-3.53407e-15
-3.50501e-15
-3.54924e-15
-3.48896e-15
-3.55748e-15
-3.57266e-15
-3.56486e-15
-3.4959e-15
-3.48636e-15
-3.50544e-15
-3.4959e-15
-3.55185e-15
-3.54751e-15
-3.52843e-15
-3.58481e-15
-3.52799e-15
-3.51151e-15
-3.47248e-15
-3.60432e-15
-3.50978e-15
-3.45427e-15
-3.51715e-15
-3.52626e-15
-3.4881e-15
-3.50458e-15
-3.54621e-15
-3.47595e-15
-3.53363e-15
-3.51932e-15
-3.48766e-15
-3.48636e-15
-3.60042e-15
-3.44559e-15
-3.60736e-15
-3.56269e-15
-3.54231e-15
-3.5332e-15
-3.56182e-15
-3.5397e-15
-3.56659e-15
-3.53103e-15
-3.55271e-15
-3.56833e-15
-3.53493e-15
-3.52236e-15
-3.49807e-15
-3.52539e-15
-3.55055e-15
-3.59955e-15
-3.50414e-15
-3.49503e-15
-3.51412e-15
-3.53753e-15
-3.53797e-15
-3.45991e-15
-3.49937e-15
-3.50327e-15
-3.56269e-15
-3.53753e-15
-4.83771e-15
-4.83424e-15
-4.82036e-15
-4.82296e-15
-4.83467e-15
-4.81646e-15
-4.76182e-15
-4.7809e-15
-4.85766e-15
-4.85896e-15
-4.84942e-15
-4.826e-15
-4.81906e-15
-4.76919e-15
-4.80779e-15
-4.77656e-15
-4.81169e-15
-4.82253e-15
-4.83381e-15
-4.74924e-15
-4.82123e-15
-4.89019e-15
-4.83207e-15
-4.7822e-15
-4.83381e-15
-4.81603e-15
-4.79564e-15
-4.86937e-15
-4.7783e-15
-4.85332e-15
-4.8685e-15
-4.80171e-15
-4.79044e-15
-4.8633e-15
-4.81342e-15
-4.81342e-15
-4.78914e-15
-4.8286e-15
-4.77873e-15
-4.81169e-15
-4.7371e-15
-4.82687e-15
-4.85072e-15
-4.79217e-15
-4.81473e-15
-4.81863e-15
-4.88498e-15
-4.85072e-15
-4.81299e-15
-4.71628e-15
-4.81342e-15
-4.82253e-15
-4.78567e-15
-4.81603e-15
-4.80865e-15
-4.81039e-15
-4.86763e-15
-4.8286e-15
-4.80258e-15
-4.81082e-15
-6.04291e-15
-6.03033e-15
-6.03987e-15
-5.93189e-15
-6.04768e-15
-6.05635e-15
-6.08064e-15
-6.05549e-15
-6.01429e-15
-6.09625e-15
-6.02773e-15
-5.98696e-15
-5.98957e-15
-6.06503e-15
-6.04898e-15
-6.04811e-15
-6.01472e-15
-6.06329e-15
-6.06589e-15
-6.05418e-15
-6.04725e-15
-6.0325e-15
-6.05982e-15
-6.11013e-15
-6.04204e-15
-6.01299e-15
-6.01776e-15
-6.04811e-15
-6.10406e-15
-6.00995e-15
-6.05028e-15
-6.07934e-15
-6.01472e-15
-6.00084e-15
-6.04768e-15
-6.04594e-15
-6.10406e-15
-6.04421e-15
-6.04941e-15
-6.04985e-15
-6.06242e-15
-6.03337e-15
-6.03424e-15
-6.05072e-15
-6.01949e-15
-6.04551e-15
-5.99781e-15
-6.0685e-15
-6.01992e-15
-6.10926e-15
-6.08801e-15
-6.04421e-15
-6.03814e-15
-6.06026e-15
-6.03727e-15
-6.08107e-15
-6.00431e-15
-6.00041e-15
-6.0737e-15
-6.01776e-15
-6.35256e-15
-6.35212e-15
-6.35299e-15
-6.37728e-15
-6.38725e-15
-6.34041e-15
-6.29748e-15
-6.35473e-15
-6.37468e-15
-6.26669e-15
-6.34822e-15
-6.37468e-15
-6.42021e-15
-6.31569e-15
-6.33998e-15
-6.37598e-15
-6.3686e-15
-6.32654e-15
-6.30095e-15
-6.3634e-15
-6.35126e-15
-6.32567e-15
-6.26148e-15
-6.30095e-15
-6.33955e-15
-6.34996e-15
-6.37207e-15
-6.33825e-15
-6.30876e-15
-6.34562e-15
-6.29705e-15
-6.28057e-15
-6.34258e-15
-6.38595e-15
-6.36904e-15
-6.34605e-15
-6.29271e-15
-6.28751e-15
-6.35733e-15
-6.35039e-15
-6.36166e-15
-6.33391e-15
-6.36036e-15
-6.36947e-15
-6.3647e-15
-6.37424e-15
-6.32697e-15
-6.33478e-15
-6.40286e-15
-6.28404e-15
-6.27319e-15
-6.35863e-15
-6.36513e-15
-6.31743e-15
-6.34041e-15
-6.30659e-15
-6.32784e-15
-6.34258e-15
-6.37945e-15
-6.32003e-15
-4.19196e-15
-4.19109e-15
-4.28433e-15
-4.23533e-15
-4.15206e-15
-4.25267e-15
-4.27436e-15
-4.19239e-15
-4.21321e-15
-4.26742e-15
-4.20757e-15
-4.25137e-15
-4.20974e-15
-4.20454e-15
-4.26872e-15
-4.17505e-15
-4.21971e-15
-4.15423e-15
-4.22145e-15
-4.19022e-15
-4.19369e-15
-4.20454e-15
-4.2388e-15
-4.27653e-15
-4.14686e-15
-4.20367e-15
-4.1655e-15
-4.23619e-15
-4.21798e-15
-4.25007e-15
-4.29734e-15
-4.2427e-15
-4.23273e-15
-4.16724e-15
-4.20714e-15
-4.17288e-15
-4.195e-15
-4.26222e-15
-4.21885e-15
-4.21625e-15
-4.17201e-15
-4.21104e-15
-4.2054e-15
-4.19543e-15
-4.16637e-15
-4.19673e-15
-4.22622e-15
-4.26091e-15
-4.22709e-15
-4.23273e-15
-4.21755e-15
-4.23533e-15
-4.22145e-15
-4.20887e-15
-4.2041e-15
-4.19716e-15
-4.23489e-15
-4.18502e-15
-4.18329e-15
-4.22449e-15
1.72041e-15
1.78026e-15
1.89562e-15
1.831e-15
1.69743e-15
1.86092e-15
1.86309e-15
1.80802e-15
1.74557e-15
1.83924e-15
1.79284e-15
1.80585e-15
1.77506e-15
1.79501e-15
1.90559e-15
1.78416e-15
1.77636e-15
1.78286e-15
1.86092e-15
1.7833e-15
1.76638e-15
1.79978e-15
1.78243e-15
1.83881e-15
1.72432e-15
1.77809e-15
1.72952e-15
1.80845e-15
1.77332e-15
1.8735e-15
1.86179e-15
1.7924e-15
1.76465e-15
1.82406e-15
1.80411e-15
1.75641e-15
1.77289e-15
1.7421e-15
1.83013e-15
1.78893e-15
1.78199e-15
1.77419e-15
1.82059e-15
1.84791e-15
1.71434e-15
1.7035e-15
1.79067e-15
1.85485e-15
1.74903e-15
1.8284e-15
1.7525e-15
1.84618e-15
1.81018e-15
1.74817e-15
1.75597e-15
1.77462e-15
1.78199e-15
1.8748e-15
1.77853e-15
1.81626e-15
1.06742e-14
1.06876e-14
1.05124e-14
1.05783e-14
1.06313e-14
1.06091e-14
1.05736e-14
1.06529e-14
1.06061e-14
1.06373e-14
1.06339e-14
1.06542e-14
1.06573e-14
1.06629e-14
1.05614e-14
1.0584e-14
1.06794e-14
1.06195e-14
1.05966e-14
1.05862e-14
1.06287e-14
1.06204e-14
1.06339e-14
1.05909e-14
1.06174e-14
1.06629e-14
1.06798e-14
1.06152e-14
1.06651e-14
1.04929e-14
1.05697e-14
1.06542e-14
1.05788e-14
1.05866e-14
1.06109e-14
1.05892e-14
1.06326e-14
1.05788e-14
1.05809e-14
1.06417e-14
1.07267e-14
1.06846e-14
1.05502e-14
1.05276e-14
1.06339e-14
1.06603e-14
1.07401e-14
1.05658e-14
1.06287e-14
1.05749e-14
1.07137e-14
1.06712e-14
1.06538e-14
1.07115e-14
1.06816e-14
1.06473e-14
1.06954e-14
1.05536e-14
1.06616e-14
1.06035e-14
1.5776e-14
1.56975e-14
1.58614e-14
1.592e-14
1.58901e-14
1.57925e-14
1.58476e-14
1.57444e-14
1.59035e-14
1.59122e-14
1.57695e-14
1.57799e-14
1.57626e-14
1.58029e-14
1.58107e-14
1.58558e-14
1.58003e-14
1.58116e-14
1.58766e-14
1.58688e-14
1.58116e-14
1.58276e-14
1.58666e-14
1.57912e-14
1.57825e-14
1.57842e-14
1.58051e-14
1.59026e-14
1.57274e-14
1.59894e-14
1.58497e-14
1.57127e-14
1.59538e-14
1.58545e-14
1.57621e-14
1.58922e-14
1.57916e-14
1.60436e-14
1.58281e-14
1.5822e-14
1.57088e-14
1.57652e-14
1.59425e-14
1.59477e-14
1.58736e-14
1.58398e-14
1.5691e-14
1.58007e-14
1.58549e-14
1.58623e-14
1.5766e-14
1.57673e-14
1.57448e-14
1.57968e-14
1.58411e-14
1.57912e-14
1.58042e-14
1.59196e-14
1.58324e-14
1.58645e-14
6.20207e-15
6.19643e-15
6.18819e-15
6.02383e-15
6.09625e-15
6.20641e-15
6.18429e-15
6.13789e-15
6.13919e-15
6.05549e-15
6.22983e-15
6.18906e-15
6.20337e-15
6.02253e-15
6.25671e-15
6.08888e-15
6.14135e-15
6.13658e-15
6.08888e-15
6.06112e-15
6.22115e-15
6.12574e-15
6.07977e-15
6.14829e-15
6.22896e-15
6.08324e-15
6.13311e-15
6.18732e-15
6.24414e-15
6.02426e-15
6.07023e-15
6.35993e-15
5.99347e-15
6.13485e-15
6.28317e-15
6.06893e-15
6.14569e-15
5.98003e-15
6.24067e-15
6.15437e-15
6.29965e-15
6.16261e-15
6.00735e-15
6.07977e-15
6.12487e-15
6.17345e-15
6.28664e-15
6.27406e-15
6.16998e-15
6.31223e-15
6.12921e-15
6.1613e-15
6.14049e-15
6.23807e-15
6.11447e-15
6.11013e-15
6.09842e-15
6.08194e-15
6.14656e-15
6.18602e-15
-2.48269e-14
-2.47276e-14
-2.48625e-14
-2.46656e-14
-2.47914e-14
-2.49067e-14
-2.48096e-14
-2.48334e-14
-2.48634e-14
-2.47254e-14
-2.4885e-14
-2.47155e-14
-2.48178e-14
-2.47341e-14
-2.48434e-14
-2.47883e-14
-2.48729e-14
-2.49466e-14
-2.47012e-14
-2.47098e-14
-2.48109e-14
-2.48113e-14
-2.48608e-14
-2.47424e-14
-2.48196e-14
-2.47298e-14
-2.47372e-14
-2.49072e-14
-2.48603e-14
-2.48057e-14
-2.47081e-14
-2.49796e-14
-2.47116e-14
-2.47888e-14
-2.49184e-14
-2.47658e-14
-2.47571e-14
-2.4722e-14
-2.49093e-14
-2.47974e-14
-2.48217e-14
-2.48647e-14
-2.47359e-14
-2.49666e-14
-2.4787e-14
-2.47697e-14
-2.48794e-14
-2.49622e-14
-2.48087e-14
-2.49562e-14
-2.47189e-14
-2.47064e-14
-2.48629e-14
-2.4934e-14
-2.47393e-14
-2.4807e-14
-2.47215e-14
-2.47797e-14
-2.48352e-14
-2.48998e-14
-6.50096e-14
-6.50174e-14
-6.50335e-14
-6.51801e-14
-6.50361e-14
-6.50209e-14
-6.50291e-14
-6.48691e-14
-6.51675e-14
-6.51159e-14
-6.49055e-14
-6.51497e-14
-6.50387e-14
-6.49446e-14
-6.50543e-14
-6.51302e-14
-6.48414e-14
-6.49242e-14
-6.51085e-14
-6.51059e-14
-6.51011e-14
-6.50725e-14
-6.49667e-14
-6.51363e-14
-6.50105e-14
-6.51024e-14
-6.50617e-14
-6.50365e-14
-6.5135e-14
-6.49806e-14
-6.50474e-14
-6.49836e-14
-6.50291e-14
-6.50651e-14
-6.50439e-14
-6.50699e-14
-6.51809e-14
-6.52052e-14
-6.48956e-14
-6.51384e-14
-6.51536e-14
-6.51306e-14
-6.49871e-14
-6.48912e-14
-6.50664e-14
-6.50248e-14
-6.50825e-14
-6.48709e-14
-6.50357e-14
-6.50426e-14
-6.50755e-14
-6.52035e-14
-6.50621e-14
-6.4991e-14
-6.51276e-14
-6.49637e-14
-6.50708e-14
-6.51172e-14
-6.50474e-14
-6.50079e-14
-8.54642e-14
-8.54724e-14
-8.53701e-14
-8.54165e-14
-8.52946e-14
-8.53566e-14
-8.5511e-14
-8.55921e-14
-8.52313e-14
-8.54399e-14