/*--------------------------------*- C++ -*----------------------------------*\
| =========                 |                                                 |
| \\      /  F ield         | foam-extend: Open Source CFD                    |
|  \\    /   O peration     | Version:     4.0                                |
|   \\  /    A nd           | Web:         http://www.foam-extend.org         |
|    \\/     M anipulation  |                                                 |
\*---------------------------------------------------------------------------*/
FoamFile
{
    version     2.0;
    format      ascii;
    class       volScalarField;
    location    "25";
    object      dPhi;
}
// * * * * * * * * * * * * * * * * * * * * * * * * * * * * * * * * * * * * * //

dimensions      [0 -1 0 0 0 0 0];

internalField   nonuniform List<scalar> 
6960
(
-4.7785e-18
-2.26846e-16
1.77158e-15
-2.26754e-16
-4.49028e-16
-4.48799e-16
-2.26754e-16
-1.22618e-15
3.28357e-16
-1.55902e-15
-1.22618e-15
-1.22595e-15
-1.22595e-15
-1.11516e-15
1.10551e-15
-3.37777e-16
5.50172e-16
-3.37777e-16
-2.26754e-16
3.28128e-16
-3.37777e-16
-3.37777e-16
8.83239e-16
-4.48799e-16
-1.00391e-15
6.61195e-16
-5.59821e-16
-1.15732e-16
-1.15961e-16
-3.37777e-16
1.07001e-16
-1.00552e-15
-1.11424e-15
-1.15044e-16
3.26751e-16
-2.26066e-16
-1.15044e-16
-3.39383e-16
-5.59133e-16
3.29046e-16
1.04706e-16
-5.59133e-16
-5.59133e-16
-7.83472e-16
-4.4811e-16
-5.59133e-16
-4.50405e-16
-1.22527e-15
-6.70155e-16
-4.50405e-16
-2.00242e-15
1.07001e-16
-2.28361e-16
1.07001e-16
-6.70155e-16
2.15728e-16
-1.11424e-15
5.5109e-16
-1.00552e-15
1.07001e-16
-1.25017e-17
1.31972e-15
-7.34147e-16
2.04156e-15
-1.62267e-15
-7.33998e-16
-7.89509e-16
-1.45614e-15
3.20714e-16
4.31736e-16
-2.90404e-16
-1.12258e-15
4.31736e-16
-6.23471e-16
5.42758e-16
-8.4502e-16
-1.90023e-15
-6.22976e-16
-6.78487e-16
-2.06676e-15
-7.89509e-16
1.20889e-15
-1.45614e-15
-1.67769e-15
-5.11954e-16
-2.23329e-15
2.65203e-16
-1.78887e-16
-1.34512e-15
-1.78887e-16
-3.43934e-16
1.48298e-15
-9.54557e-16
4.46438e-17
4.28269e-16
1.09936e-15
-5.10468e-16
9.27869e-16
-2.00927e-15
4.33222e-16
1.31645e-15
1.59896e-15
2.15407e-15
-7.13314e-17
-2.32912e-16
9.88333e-16
-1.26843e-16
8.77311e-16
7.66289e-16
1.0944e-15
1.3214e-15
-1.39865e-15
-9.5951e-16
7.10778e-16
4.33222e-16
1.31645e-15
-9.54557e-16
-1.34313e-15
1.03889e-15
3.77711e-16
-2.45675e-16
-3.35439e-15
-1.02283e-15
1.08687e-15
2.69576e-15
1.14239e-15
1.03136e-15
1.69656e-15
-1.07806e-15
-1.85522e-15
-1.68962e-15
3.75141e-15
3.09718e-16
-2.42864e-17
-1.30011e-15
1.98695e-16
-9.67976e-16
8.64829e-16
3.30732e-15
2.75127e-15
3.08528e-15
2.64119e-15
2.75127e-15
3.6959e-15
3.2162e-17
1.08594e-15
8.64829e-16
-8.56016e-16
-8.01443e-16
9.2034e-16
-7.60486e-17
-2.02831e-15
4.03178e-15
1.86684e-15
1.35787e-15
-2.01894e-15
2.57018e-16
-3.07466e-16
-6.86671e-16
1.86684e-15
-3.07466e-16
-1.74138e-15
-1.13076e-15
5.80712e-16
2.644e-15
3.68041e-16
1.69094e-15
2.01507e-16
-2.07445e-15
9.69291e-16
-1.46383e-15
2.01507e-16
-3.86018e-15
3.68041e-16
3.49738e-17
8.11122e-17
9.78663e-16
-6.3116e-16
-1.63973e-15
7.56619e-16
-4.38077e-15
3.93026e-16
5.04214e-16
2.61413e-15
-5.51657e-16
-2.21534e-15
-2.93698e-15
-1.07568e-16
-5.50001e-16
1.05982e-15
1.69654e-15
5.04711e-16
-2.4469e-16
3.94475e-15
-4.11223e-16
-5.22246e-16
6.08193e-15
1.33738e-15
1.14309e-15
-2.79986e-15
-1.05912e-16
1.64269e-15
3.50066e-15
-3.46434e-15
1.86473e-15
1.19694e-15
-1.5492e-15
-2.18758e-15
3.02881e-15
3.38177e-16
-1.76768e-17
-8.11395e-16
-4.34755e-15
-3.3761e-15
-3.03184e-15
1.64766e-15
-3.54263e-15
-3.95062e-16
-4.70837e-15
-1.26668e-15
-2.44897e-15
-8.22588e-16
1.03704e-15
-1.17506e-16
-4.84715e-15
-1.46097e-15
-3.0596e-15
1.42561e-15
-2.1271e-15
-2.08815e-15
-1.29443e-15
1.09255e-15
1.79763e-15
2.14726e-15
9.26013e-16
2.71356e-15
3.06319e-15
-1.56454e-16
2.15845e-15
-4.54184e-15
2.74713e-15
4.06524e-15
-1.13865e-15
-8.46369e-16
-1.44593e-15
-7.07591e-16
2.88676e-15
-2.54228e-15
1.49898e-15
2.20674e-15
-3.63862e-15
-2.5117e-15
-4.32969e-15
-5.66478e-15
1.38954e-16
1.62388e-15
-6.38642e-15
-4.28806e-15
-4.71827e-15
4.89622e-15
4.30387e-16
-8.18614e-16
1.45452e-15
5.02394e-15
3.06717e-15
-8.90821e-16
2.91451e-15
4.85898e-16
-1.43206e-15
5.17659e-15
3.02011e-15
6.64178e-15
5.98996e-15
2.85358e-15
-1.22692e-15
3.13943e-16
3.3393e-15
1.8817e-15
2.47888e-15
3.45032e-15
4.40746e-15
3.68625e-15
-3.36367e-15
-3.79431e-15
2.64541e-15
-3.24435e-16
5.7719e-16
1.20212e-15
1.41029e-15
-1.44455e-16
3.56135e-15
-1.12935e-15
-5.39026e-15
2.02921e-16
3.32542e-15
-5.88544e-16
-4.48777e-15
-7.13013e-16
4.06051e-15
2.77031e-15
-4.12122e-15
-6.57806e-15
-6.98004e-15
-1.12221e-15
2.85602e-15
1.93091e-15
-2.66264e-15
3.58017e-16
-2.20467e-15
1.57008e-15
4.82666e-15
1.38967e-15
5.10892e-15
1.19068e-15
2.56929e-15
-1.80222e-15
4.42421e-15
4.15135e-15
4.16523e-15
4.14665e-15
-4.61941e-15
3.52685e-15
-1.41583e-16
-3.50919e-15
-5.95168e-15
1.42661e-15
-3.8145e-15
-2.49611e-15
-8.90984e-16
-2.01039e-15
2.43073e-15
-1.80736e-15
-2.23221e-15
-2.96773e-15
-1.4743e-15
2.58338e-15
-2.20445e-15
1.55106e-15
-6.36262e-16
-2.73181e-15
-4.55517e-15
1.40895e-16
4.08219e-15
5.06214e-15
-3.74489e-15
2.9355e-16
3.13313e-15
-1.09423e-15
1.98664e-15
-6.77561e-15
-9.69328e-16
-2.25996e-15
1.55106e-15
4.10994e-15
-3.12039e-15
2.23107e-15
3.8879e-15
6.23324e-15
1.38453e-15
-7.75039e-16
-3.82211e-15
4.62175e-15
4.35191e-15
-3.85031e-16
1.34566e-16
-2.68874e-15
1.00692e-16
-1.46832e-15
-1.57852e-15
-1.36341e-15
2.14684e-15
3.22736e-16
2.88042e-16
-1.78751e-15
1.80072e-15
-1.52301e-15
5.92533e-16
1.9395e-15
-3.93081e-15
-1.91241e-15
4.29872e-15
-5.90839e-15
4.63791e-15
3.97259e-15
7.30326e-15
-6.35652e-16
-2.87887e-16
5.77671e-15
6.6192e-16
2.91094e-15
2.9481e-15
6.45791e-15
5.97346e-15
-8.68292e-16
1.39252e-15
1.2897e-15
-7.71148e-16
-2.04917e-15
-3.92141e-15
-9.86253e-16
3.11336e-15
5.39059e-15
1.86563e-15
-3.31899e-15
-2.64608e-16
-1.11115e-15
-5.77112e-17
-5.42163e-16
-4.11569e-15
1.28843e-15
3.61423e-15
-1.99933e-15
1.56599e-15
-8.54413e-16
5.26427e-16
1.78212e-16
-1.83974e-15
-4.89979e-15
-8.07111e-16
2.0738e-15
-8.10671e-16
6.4522e-16
-4.05807e-15
-1.66032e-15
3.37148e-15
5.62551e-15
-4.44976e-15
-2.15188e-15
-1.11215e-15
1.30258e-15
-6.2597e-15
-7.44391e-16
2.58628e-15
3.40618e-15
-3.40199e-15
1.28871e-15
-1.5135e-15
-2.76361e-15
-4.59896e-16
-1.24982e-15
-1.62563e-15
1.0736e-15
-3.89397e-16
-5.71958e-15
2.18382e-15
-2.84577e-15
5.54918e-15
-1.86849e-15
7.43767e-15
-3.9051e-16
-1.33753e-15
-2.60318e-15
-2.39224e-15
-1.08079e-15
-1.375e-15
-2.39918e-15
4.57441e-15
-1.46814e-16
6.30913e-15
-2.1702e-15
-2.68645e-15
-2.20489e-15
1.77803e-15
5.67894e-16
6.62138e-15
7.55119e-15
4.42994e-16
2.09722e-15
7.47487e-15
2.41765e-16
1.75722e-15
6.66301e-15
-5.55221e-15
-3.38329e-16
-4.00779e-16
-2.68645e-15
2.78417e-15
6.19811e-15
4.05122e-15
-4.11309e-15
1.53542e-15
3.67743e-15
-6.8156e-16
4.34157e-15
-4.85961e-15
-5.26186e-15
7.61672e-15
1.79132e-15
7.41203e-15
3.60257e-15
8.08489e-15
-1.97977e-15
2.62072e-15
-5.36681e-16
3.77952e-15
5.74322e-15
1.31711e-14
4.82382e-15
6.72855e-15
9.38594e-15
-8.83422e-16
2.41255e-15
9.06608e-16
-6.75255e-16
-2.17059e-15
4.36218e-15
-1.83752e-15
-3.0553e-15
-1.08097e-14
-5.70249e-15
4.95974e-15
7.77835e-15
-3.40163e-15
1.05661e-15
-2.74795e-15
-1.13955e-15
-7.36027e-15
5.03055e-15
1.99683e-15
-1.04587e-15
-4.92813e-16
-2.52733e-15
1.01498e-15
-5.89821e-15
-9.84092e-15
-4.17184e-15
3.31936e-18
1.61172e-15
-4.03654e-15
-2.40101e-15
1.02192e-15
-6.10086e-15
8.77621e-16
1.10519e-15
-5.67087e-16
-2.57101e-15
1.02886e-15
-8.59886e-15
-1.79732e-15
4.18606e-15
3.05496e-15
5.04642e-15
5.63622e-15
4.15478e-15
1.20547e-14
3.5511e-15
-3.32535e-15
8.58767e-16
-9.58076e-15
-6.45826e-15
-4.45643e-15
3.79743e-15
8.4146e-16
3.9979e-17
1.09408e-16
1.68389e-16
-1.25125e-14
4.42476e-16
-5.32028e-15
-1.34354e-14
3.45395e-15
2.20427e-16
4.04269e-16
1.29776e-14
4.0958e-15
1.44163e-15
-6.40692e-17
4.36641e-15
1.06495e-14
6.65625e-15
-9.38256e-16
-1.032e-14
-7.78662e-16
2.29874e-15
-2.65602e-15
-2.41624e-15
4.80746e-16
-5.36566e-15
9.21679e-17
-3.12748e-15
2.3157e-15
-4.6988e-16
-5.83364e-15
4.18226e-15
1.43585e-14
-2.71808e-15
6.88527e-16
-3.97749e-15
2.76712e-15
-1.75743e-15
3.55468e-15
8.29741e-15
2.07284e-15
1.96221e-15
-3.37033e-15
1.55242e-15
-1.71503e-16
4.19306e-15
-7.02058e-15
-3.21768e-15
-5.6377e-15
-1.9832e-15
-2.47703e-15
-2.883e-15
-5.01195e-15
2.78607e-15
-2.20646e-15
3.44309e-15
1.29932e-14
6.8141e-15
2.1247e-15
-3.78063e-16
-3.95506e-15
-7.97486e-15
3.26139e-15
-8.68738e-15
5.81967e-15
7.46043e-16
-2.39381e-15
1.04167e-14
-1.73115e-15
1.1824e-14
1.92e-15
-1.35273e-14
-5.57183e-15
-2.26068e-15
1.08257e-15
-3.11546e-15
-1.38035e-14
-2.08157e-15
3.29913e-15
1.9451e-15
3.97567e-15
2.32138e-16
6.34089e-15
2.3485e-15
2.44565e-15
8.54736e-17
-5.65835e-16
-3.15391e-17
-2.93988e-15
1.92523e-15
3.28873e-15
-5.38584e-15
-7.30696e-15
3.09444e-15
-4.8793e-15
-2.91811e-15
2.43871e-15
3.57574e-15
-1.92238e-15
2.48382e-15
-1.57379e-16
-2.01258e-15
-1.44359e-15
-7.8873e-15
-8.33391e-15
2.37974e-15
3.61044e-15
1.65115e-15
1.44278e-15
4.75573e-16
-1.73523e-15
-4.89473e-15
3.90799e-15
-7.04232e-15
4.24726e-15
2.48551e-15
-6.79946e-15
-3.1843e-15
1.76039e-15
-1.1512e-15
5.13197e-15
4.44228e-15
-2.78877e-15
5.53096e-15
-9.59645e-16
3.92461e-15
-3.8539e-15
-4.28685e-15
-3.78798e-15
-1.684e-14
1.54038e-16
1.75966e-15
1.54456e-15
2.76306e-15
-9.35992e-15
-4.45066e-15
8.87969e-15
-1.41143e-15
7.25306e-15
-1.40632e-15
-9.59804e-15
1.62561e-15
-4.97291e-15
-5.2994e-15
4.51913e-15
-3.94595e-15
5.01526e-15
3.64483e-15
-1.07325e-15
-9.27538e-15
-2.41281e-15
7.85018e-15
3.59276e-16
-4.56045e-16
8.42957e-15
2.32992e-15
-6.82942e-15
-5.38577e-15
-1.89586e-15
8.20714e-16
-6.39537e-15
6.38571e-15
-3.31833e-15
1.27905e-15
9.72679e-15
3.1279e-15
-1.39936e-15
6.22965e-16
6.99274e-15
2.57379e-15
-3.02008e-15
1.77479e-15
2.42439e-15
8.26959e-15
-1.85452e-16
-1.28585e-14
4.48442e-15
-2.69039e-15
-3.6298e-15
5.60481e-16
-7.8566e-16
8.03449e-15
6.26413e-16
2.48604e-15
7.01795e-15
-8.64395e-15
5.84774e-16
5.63362e-15
-6.20842e-15
9.30695e-15
-6.8217e-15
2.08009e-15
3.07929e-15
4.9536e-15
6.30934e-15
2.57968e-15
-3.67493e-15
-3.14839e-15
-3.65042e-15
-1.29231e-14
-1.0118e-16
-9.8885e-15
-2.24759e-15
3.27458e-15
-3.58104e-15
4.76763e-15
-2.24878e-15
-6.936e-15
-4.38823e-15
6.88282e-15
-9.58124e-16
-4.33618e-15
1.01025e-14
-9.63521e-15
-2.45227e-15
-5.86392e-15
7.55937e-15
-3.94894e-16
1.47049e-15
-1.10265e-14
6.15891e-15
-1.1016e-14
-4.56286e-15
-3.3786e-15
-7.4425e-15
-5.60716e-15
6.91179e-15
-3.4457e-15
-1.75393e-15
-2.82226e-15
8.29359e-15
-7.61806e-15
-6.23468e-15
5.77747e-15
5.10092e-15
1.17579e-14
-4.84888e-16
-1.00189e-14
2.22729e-15
7.10974e-15
-1.58122e-15
-7.31715e-15
2.36355e-15
-4.15207e-15
-9.8984e-15
2.78336e-15
9.7951e-15
-5.16263e-15
8.59118e-15
6.15563e-15
-3.50771e-15
1.32269e-15
1.96454e-15
1.04073e-15
-5.01254e-15
-2.69809e-16
8.5682e-16
5.14264e-16
-1.04419e-15
9.51097e-15
8.21576e-15
2.81119e-16
6.1907e-15
3.96914e-15
3.35505e-15
3.77596e-15
4.9614e-15
4.58324e-15
1.83656e-15
-1.95318e-15
5.11409e-15
-3.91576e-15
-9.53044e-15
3.88938e-15
-1.99716e-15
2.68201e-15
2.29113e-16
-3.44393e-15
-1.01133e-14
1.31771e-14
8.49793e-15
1.10052e-14
-7.66597e-16
1.17741e-15
3.56675e-15
-2.67479e-15
-5.51514e-15
-1.02333e-15
-7.70743e-15
-2.24143e-15
9.5231e-16
2.11709e-14
5.66819e-15
-8.52416e-15
1.26013e-14
-1.33548e-14
-8.97867e-15
1.13003e-14
-4.32037e-15
1.88765e-15
8.27492e-15
2.27161e-15
-2.51157e-15
3.27893e-15
7.22947e-15
3.71262e-15
-8.98558e-15
-3.72132e-16
7.20283e-15
3.36791e-16
8.80454e-15
3.52868e-15
6.31811e-15
-6.04123e-15
8.77793e-15
6.80033e-15
4.03053e-15
9.94014e-15
-9.26131e-16
6.39662e-15
6.30767e-15
1.58105e-14
-3.22418e-15
-9.59978e-15
6.70316e-15
3.40594e-15
2.81208e-16
1.25145e-14
-5.48624e-15
8.9514e-15
-1.57892e-14
8.80794e-15
6.7171e-15
-6.7513e-15
5.41481e-15
5.27728e-15
-1.92529e-15
-4.62926e-15
1.0419e-14
-4.69738e-15
-2.0306e-15
-6.23431e-15
-2.34506e-15
2.97931e-15
1.37767e-15
3.23383e-15
1.51744e-14
5.86367e-15
-1.07692e-15
8.24107e-15
6.04239e-15
-1.25233e-14
-8.48041e-15
3.12736e-15
2.91918e-15
1.50216e-14
2.54648e-16
-9.87417e-16
5.78719e-17
2.58614e-15
1.25043e-15
-1.59258e-14
3.91847e-15
-5.15761e-15
6.96909e-15
-1.56672e-15
1.4299e-14
-1.35562e-14
-6.01812e-15
-5.51506e-15
-6.77696e-15
1.83323e-15
2.89141e-15
3.5932e-15
1.91299e-15
1.15787e-16
3.99211e-15
2.39168e-15
5.84431e-15
-8.69325e-15
-1.24917e-14
-7.68658e-15
-8.3741e-15
-3.59128e-16
-6.52778e-15
-6.52834e-15
-5.22182e-16
3.62544e-16
9.38604e-15
-4.40095e-15
1.73803e-14
6.69384e-15
-8.23905e-16
-4.46684e-15
5.96178e-15
-2.54821e-15
-8.2624e-15
1.41358e-14
-9.91733e-15
6.49317e-15
8.45775e-17
-5.42803e-16
5.63627e-15
-2.43073e-15
-5.21613e-15
8.5888e-15
1.56263e-15
-6.76696e-15
9.40784e-15
-9.179e-15
9.8103e-15
7.749e-15
8.42577e-15
4.64032e-15
-1.42776e-15
-3.33225e-15
-6.92241e-16
-7.05173e-15
1.72138e-14
1.40335e-15
2.83629e-15
7.86029e-15
6.82622e-15
4.95617e-15
-5.66703e-15
-6.85034e-15
-6.28836e-15
9.26185e-15
-5.08368e-16
6.41664e-15
-7.33601e-15
9.31709e-15
-1.23149e-14
-1.12947e-14
-2.30215e-15
-8.10659e-15
-1.02852e-14
-4.08215e-15
1.58352e-14
6.23425e-15
4.81279e-15
-1.01163e-14
1.00159e-14
1.04297e-14
6.35316e-15
1.78985e-14
9.2293e-15
-3.87476e-15
-1.10471e-14
7.01539e-16
-1.78391e-14
-2.90062e-15
-3.38885e-15
4.18492e-15
-1.16244e-15
-1.26523e-14
-7.9024e-16
-8.43447e-15
-1.77905e-15
-1.13304e-14
-7.63391e-16
8.50801e-15
-1.42412e-14
-2.217e-15
-3.1944e-15
-1.09537e-15
-3.65678e-15
-2.38409e-16
-1.40945e-14
5.28509e-15
-6.02454e-15
-1.1304e-15
-3.53931e-16
-2.19906e-15
-1.13133e-14
1.06615e-14
1.08842e-14
2.27995e-15
-4.17389e-15
5.00006e-15
1.47867e-15
1.35658e-15
-3.27088e-15
2.46411e-15
2.60568e-15
9.35098e-15
4.07729e-15
-4.29878e-15
2.49155e-15
6.97407e-15
3.53169e-15
-4.81165e-15
1.02284e-14
9.0897e-15
-3.6741e-16
1.35797e-14
-2.60713e-16
2.78602e-15
-1.08573e-14
1.87591e-15
6.993e-15
5.54265e-15
-6.43037e-16
-7.07926e-15
-1.26093e-15
-4.73693e-15
-1.96595e-14
3.46794e-15
1.0841e-14
-4.76639e-16
4.41538e-15
4.11749e-15
7.20141e-15
-8.25502e-15
4.7732e-15
1.48724e-14
3.44399e-15
9.67888e-15
-1.12492e-14
2.98951e-15
9.12054e-15
-5.67694e-15
1.23052e-14
2.93466e-15
2.03837e-16
4.25887e-16
9.35322e-15
-2.9921e-16
-2.60908e-15
-1.59987e-15
-1.37148e-14
-2.01045e-14
-8.31221e-15
-9.3285e-15
1.59602e-14
-1.4946e-14
-1.05499e-14
-4.25625e-15
-4.77007e-15
-4.48511e-15
1.96825e-15
-7.9235e-15
2.24601e-15
-8.08947e-15
1.01744e-15
-3.32936e-15
-1.40754e-15
-1.08104e-14
8.33382e-16
-1.95219e-14
-1.15668e-14
8.60145e-15
-4.2425e-15
-2.54982e-15
3.88972e-15
-1.47344e-14
7.53195e-15
1.24893e-15
4.26151e-15
-7.81907e-15
8.63995e-15
-1.93167e-15
-2.33659e-14
3.02258e-15
2.68271e-15
-2.64285e-15
2.30829e-14
3.04354e-15
-2.18469e-15
2.43323e-15
-6.7051e-15
9.21299e-15
3.6305e-15
5.37903e-15
2.3407e-16
-3.36734e-15
1.74921e-16
-7.53082e-15
4.53597e-15
5.54914e-15
-1.3869e-14
9.00163e-15
-7.36375e-15
-9.6589e-16
-1.38229e-15
7.53767e-15
-6.85341e-15
5.75092e-15
1.497e-14
3.52069e-15
1.6611e-14
1.34225e-14
1.22008e-14
1.39254e-14
-7.1586e-16
1.30019e-14
2.64945e-15
-4.1401e-16
1.39838e-14
-7.95985e-15
-6.97762e-15
-2.81472e-15
6.5536e-15
1.08453e-14
-5.85016e-15
-1.04445e-15
-2.93229e-15
7.85327e-15
-7.12446e-16
1.86193e-14
6.49651e-15
-2.88093e-15
-1.9915e-16
5.81639e-15
-1.62194e-15
2.86385e-15
-1.55111e-14
-1.65241e-14
-1.87478e-15
1.93058e-15
-1.43579e-14
5.26498e-15
2.37564e-14
2.80492e-15
-1.25576e-14
-1.24434e-15
-2.32992e-14
-1.30502e-14
-8.45003e-16
2.41715e-15
1.3773e-14
-5.51391e-15
-1.42641e-15
-1.8446e-16
6.22325e-15
1.02831e-14
1.35026e-14
-9.00113e-15
-1.70406e-15
-1.46519e-14
-4.90745e-17
-7.90312e-15
3.44893e-15
2.1614e-15
4.4657e-15
-2.12619e-15
4.02475e-15
7.39748e-15
-4.71704e-15
-1.38685e-16
-5.57057e-15
-7.51762e-16
-1.27438e-14
-4.96067e-15
-1.31509e-16
-1.88158e-15
3.50091e-15
-1.13413e-15
-1.63421e-14
5.3501e-16
3.64783e-15
-2.41126e-15
-1.22259e-15
-7.33922e-15
1.30861e-15
-1.42676e-14
-3.60343e-15
-1.53915e-14
4.01436e-15
-6.11632e-15
-9.62905e-15
-6.13733e-15
-5.89116e-15
-7.73503e-15
-5.14929e-15
2.76066e-15
1.65187e-15
1.26543e-14
5.0676e-15
4.56084e-15
8.90822e-15
-7.48549e-15
-9.84518e-15
-1.33528e-14
1.74598e-14
6.11102e-15
8.58803e-15
-5.20951e-15
-1.36503e-14
4.05054e-16
-1.08526e-14
-5.87671e-17
-2.48389e-15
8.86448e-15
3.51828e-15
7.5325e-15
-8.29877e-15
2.52792e-16
8.05264e-15
1.37394e-14
-3.11094e-15
-7.90874e-15
-7.423e-15
-1.09026e-14
-1.08122e-14
-4.84122e-15
-1.29631e-14
-9.30972e-15
-2.49536e-15
5.22631e-15
-5.21897e-15
-1.7994e-14
5.03831e-15
-1.68953e-16
-4.72483e-15
-7.9142e-15
-4.9928e-16
-8.81518e-15
1.24342e-14
1.33831e-18
-7.12001e-15
9.33445e-15
-1.17575e-14
1.53874e-14
5.6302e-15
1.25009e-14
5.92254e-16
1.59374e-16
-2.00777e-16
3.77884e-15
1.13513e-14
5.80458e-15
5.32204e-15
8.27331e-15
5.51875e-15
-2.3229e-15
-1.26684e-15
4.89145e-15
-6.47134e-15
1.21849e-14
6.44367e-16
3.42235e-15
-6.35383e-15
3.45286e-15
-2.83474e-14
8.53036e-15
-1.08865e-14
2.15572e-14
1.68686e-14
-1.37404e-15
1.72374e-14
-7.87233e-15
-8.66132e-15
-1.4237e-14
2.12328e-15
-2.91169e-14
-1.07848e-14
2.33004e-15
-1.12775e-14
3.9433e-15
1.42748e-14
1.98219e-14
1.68105e-14
7.52282e-16
-1.10068e-14
7.98155e-15
9.62096e-15
-7.33221e-15
-2.25352e-15
-8.1882e-15
2.12484e-14
1.43131e-14
-9.98534e-15
3.53175e-15
2.49684e-15
5.42531e-16
-1.49482e-14
4.3567e-15
-1.45909e-14
-1.01755e-14
9.28727e-15
-3.1959e-14
1.75708e-14
-1.60968e-14
-2.94192e-15
-2.96622e-16
4.55072e-15
-7.69326e-15
-3.01276e-15
-1.25678e-15
-1.5986e-15
-1.6499e-14
-3.53083e-15
5.48858e-15
5.5643e-15
2.03534e-14
1.28702e-14
-1.12608e-14
-1.55343e-15
-2.57823e-14
-2.53902e-15
-8.68646e-16
-6.44989e-15
2.99158e-15
2.40596e-14
-5.57849e-15
-3.60037e-15
-1.98185e-14
-1.00451e-14
-1.44375e-14
-4.1171e-15
6.29476e-15
1.30267e-14
1.66412e-14
3.0545e-15
2.06219e-14
1.28184e-14
-1.14234e-15
4.502e-15
-7.42183e-15
-3.01173e-14
-2.57422e-15
-1.53035e-14
7.35882e-15
1.56174e-14
-4.34186e-15
-1.15449e-14
1.21455e-14
1.49247e-14
1.24729e-14
-9.96883e-16
1.06218e-14
-5.30195e-15
-3.10316e-15
-1.32512e-15
1.80544e-14
-2.73503e-15
-1.35239e-15
-1.1482e-15
-9.895e-15
5.56576e-15
1.80548e-14
-1.44873e-14
4.35823e-15
-1.72746e-14
-1.64925e-14
-1.43083e-14
1.9721e-14
2.39404e-15
-6.18506e-15
-1.1809e-15
2.7536e-14
7.97775e-15
-1.18975e-15
-8.0578e-15
-2.12681e-14
-4.84815e-15
2.73701e-14
8.97419e-15
1.78127e-14
1.68425e-15
5.24063e-15
1.27927e-15
8.0558e-15
2.59321e-16
-5.13543e-16
-9.74306e-15
7.01037e-15
8.18136e-15
8.78955e-15
-8.50833e-15
-1.11437e-14
2.68045e-16
-8.7056e-15
-5.39464e-15
3.05151e-15
6.17589e-15
-3.36183e-15
-5.14473e-15
2.47499e-15
2.42127e-14
-6.50653e-15
5.85201e-15
4.93023e-15
-1.13053e-14
1.11044e-14
7.59395e-15
-2.06794e-15
6.18851e-15
-6.28891e-15
6.46347e-16
-7.88512e-15
1.09737e-14
3.96139e-15
-1.85401e-15
-1.81999e-14
-3.90312e-15
-2.01199e-15
1.80976e-14
6.09461e-15
8.17712e-16
-1.25415e-14
8.50237e-15
-3.77955e-15
1.95078e-14
8.68024e-15
8.44173e-15
-8.52436e-15
-2.3914e-15
8.01504e-15
-8.20942e-15
-4.1692e-15
3.29802e-15
4.20095e-15
2.22114e-14
7.71551e-15
-1.46881e-14
-2.94683e-14
-9.73042e-15
-8.59543e-15
8.78789e-15
-2.03989e-15
6.26946e-15
-7.48962e-15
1.28599e-14
-1.08617e-14
9.3648e-16
1.96517e-15
-1.66027e-15
7.11178e-15
1.57125e-14
1.56737e-14
7.28263e-15
1.40605e-15
-1.56901e-14
-1.04547e-14
-2.47766e-15
4.62801e-15
7.71266e-15
-1.99372e-14
-1.41024e-14
-1.46601e-14
6.54206e-15
-3.0073e-15
1.1587e-15
-1.48416e-14
-4.13288e-15
8.51309e-15
-6.35467e-15
3.26322e-15
-1.74457e-14
-6.60496e-16
-7.83384e-15
1.89354e-14
-3.09847e-15
1.21032e-14
-5.27162e-15
-8.76465e-15
-1.2207e-14
4.60911e-15
1.06753e-14
3.87106e-15
-1.59086e-14
1.1933e-14
-5.53169e-15
9.89633e-15
-1.30896e-14
1.66497e-15
4.75959e-15
3.44204e-15
4.80463e-15
-7.80617e-15
-1.18214e-14
-1.97176e-14
-7.64329e-15
3.25407e-15
1.04385e-14
1.57062e-14
1.46548e-14
-8.01702e-15
-2.02341e-14
-5.79507e-15
7.82322e-15
2.93517e-15
-2.48564e-15
3.29374e-15
-2.54473e-15
1.25319e-14
3.24532e-15
-8.30558e-15
-1.13978e-14
-8.3106e-15
-8.20546e-15
2.84862e-15
1.79284e-14
1.10371e-14
5.13939e-15
2.98142e-16
-4.89184e-15
5.06898e-15
1.03637e-14
1.33065e-14
-8.96603e-15
-1.42728e-15
-6.26804e-17
1.23384e-14
-2.40639e-15
-1.10766e-14
8.95646e-15
-1.90943e-14
2.64834e-14
-3.88467e-15
8.25227e-15
-1.2279e-14
-3.85556e-15
-3.42104e-15
-5.61966e-15
1.21364e-14
-4.15266e-15
1.11871e-15
-4.6049e-15
-5.88765e-15
2.11969e-14
-1.94081e-14
-9.744e-15
-8.42723e-15
1.56971e-14
-2.89159e-15
1.49148e-15
1.02224e-14
8.23487e-15
1.30936e-14
9.16582e-15
2.68229e-14
-1.97033e-14
-8.18139e-16
3.80224e-15
-2.61751e-15
2.53668e-15
2.7291e-15
2.00575e-15
9.79325e-15
-2.55556e-14
-3.69957e-16
-3.06707e-15
-8.3212e-15
-8.11815e-15
-1.61838e-14
-3.22065e-15
-1.11082e-14
-6.80093e-15
-3.97357e-15
4.51155e-15
-3.82084e-15
-3.09708e-15
-1.33736e-15
-4.7774e-15
-5.95726e-15
-2.67738e-15
4.11376e-15
1.41315e-15
-1.33035e-14
-1.73348e-15
1.03828e-14
-1.5928e-15
-8.54671e-15
-5.35298e-16
7.97607e-15
-2.34854e-15
6.55243e-15
-1.32556e-14
1.16353e-14
-2.19254e-14
2.21568e-15
9.4466e-15
1.09091e-14
-5.57096e-15
-1.56967e-14
3.33224e-15
-1.16243e-15
5.85534e-15
2.37354e-15
1.20184e-15
1.87949e-14
-3.37295e-15
-4.5768e-15
-1.02567e-14
1.3585e-14
-1.50815e-14
-2.58726e-14
-8.44371e-15
3.2506e-15
-2.04918e-14
-1.18338e-14
9.70491e-15
-1.47733e-14
6.71143e-15
-3.98466e-15
-5.65265e-15
-5.18243e-15
1.2702e-14
-1.87536e-14
1.13535e-14
1.16512e-14
2.84527e-15
1.05276e-15
1.88877e-14
7.16967e-15
1.65546e-14
2.84858e-15
1.1099e-15
3.99209e-15
1.54797e-15
-1.34067e-15
-1.15685e-14
-9.15256e-15
-1.00571e-15
1.58699e-14
-3.86719e-15
-1.46246e-14
-1.16037e-15
5.36615e-15
7.16045e-15
-1.04502e-14
-3.77367e-15
4.35708e-15
5.89009e-15
3.57868e-15
1.29546e-15
1.11982e-14
1.76904e-15
1.18441e-14
9.02804e-15
-6.59303e-15
-8.2195e-15
-4.05936e-15
6.09913e-15
8.80649e-15
2.16119e-15
5.36311e-15
6.15995e-15
-5.8471e-16
-8.51419e-15
-6.70248e-15
2.64724e-15
1.02836e-14
2.52522e-15
-1.94852e-14
6.81844e-15
2.78405e-14
1.33818e-15
-1.80826e-14
2.75686e-15
6.84511e-16
8.92016e-15
9.67612e-15
-9.75842e-15
8.97237e-15
1.07898e-14
5.99591e-15
-1.42398e-14
1.27431e-14
5.27356e-15
-4.86742e-15
-9.06014e-15
7.8989e-15
3.23418e-16
7.23298e-15
-2.54003e-14
2.01548e-15
6.92263e-15
-7.69203e-15
3.03414e-16
-3.61256e-15
1.56723e-14
7.16126e-15
-2.90778e-15
-2.52891e-14
8.65388e-15
1.09396e-16
-9.51897e-15
1.03237e-14
7.8603e-15
-5.01986e-16
9.50265e-15
5.80558e-15
-4.33524e-15
5.03444e-15
3.01527e-15
-6.82267e-15
1.18156e-14
-2.60665e-14
-9.58446e-15
5.78736e-15
1.32198e-14
-3.77953e-16
-1.84813e-15
4.75585e-15
-9.455e-15
-6.02133e-15
-2.17388e-14
1.45059e-14
7.53824e-15
3.41675e-15
-3.53949e-15
4.45889e-15
6.10438e-15
5.81078e-15
-2.68069e-15
-9.352e-15
1.63942e-15
1.47656e-14
3.20403e-15
-9.16086e-15
-1.15476e-14
-3.88513e-15
1.62944e-14
-1.67267e-14
1.15369e-14
2.10356e-14
2.1684e-16
1.06859e-15
-1.73223e-15
-6.7123e-16
2.61705e-14
6.53232e-15
-2.70237e-15
6.05418e-15
1.19788e-14
-2.21709e-15
-2.00415e-15
7.89299e-17
-4.21549e-15
-5.38382e-15
-4.16854e-15
7.04482e-15
-4.67085e-15
1.82343e-14
2.24282e-14
1.04257e-14
4.57327e-15
4.22297e-15
1.61546e-15
3.43302e-15
-8.27853e-15
-1.16141e-14
5.03428e-15
-1.46964e-15
-9.86624e-16
-1.26873e-15
-1.99927e-15
8.34098e-15
2.07787e-14
-9.7769e-15
-9.55117e-15
1.14362e-15
6.23872e-15
-1.71089e-14
8.33318e-15
9.04116e-15
1.5603e-14
-4.15228e-15
-3.71491e-15
2.06259e-15
1.02208e-14
-3.00649e-15
-8.53809e-15
-5.45115e-15
4.5183e-15
-3.40071e-15
-1.50921e-14
-7.70738e-15
4.7783e-15
4.51787e-15
7.97669e-15
-1.71391e-15
-1.80394e-14
-4.21538e-16
-1.39927e-14
-1.16276e-14
8.98652e-15
1.55887e-15
-2.39479e-15
3.63902e-15
-1.01299e-14
-1.32038e-14
4.16334e-16
9.75131e-16
6.9725e-15
2.00426e-15
4.47342e-15
4.48643e-15
8.84058e-16
8.3026e-15
-5.81002e-15
-9.24044e-15
2.30892e-15
-8.57495e-15
-1.60152e-14
1.83989e-15
1.07715e-14
-4.27046e-15
1.7254e-15
-5.24949e-15
7.76722e-16
1.05165e-14
8.79678e-15
-6.14981e-15
-1.13963e-14
9.55399e-16
1.06551e-14
8.46892e-15
-2.16138e-14
9.69624e-15
9.41391e-15
-1.38778e-16
-1.53068e-14
2.3133e-14
-2.47372e-15
8.90954e-15
5.70334e-15
3.77302e-16
1.82293e-14
-8.68576e-15
-9.86928e-15
-5.06019e-15
8.12198e-15
-3.88925e-15
-3.35105e-15
7.75248e-15
3.50501e-15
1.30668e-15
-1.90065e-14
1.62413e-15
-1.11842e-14
-1.85095e-15
-2.75821e-15
1.11161e-14
1.31592e-14
5.45397e-15
-4.67204e-15
-8.2807e-15
-3.9066e-15
-6.93586e-15
-9.4022e-15
1.62791e-14
5.29308e-15
4.56883e-15
-7.60416e-15
-1.12896e-14
-1.03702e-14
5.06539e-16
-1.79214e-14
1.41423e-15
5.06886e-15
3.71968e-15
-3.4959e-15
1.09916e-14
1.65319e-15
7.70954e-15
1.03997e-15
9.11727e-15
-2.85796e-16
2.93775e-15
-9.02924e-16
4.27783e-15
1.83881e-16
4.21494e-15
1.14223e-14
-4.67551e-15
-2.53569e-14
-1.64985e-14
9.29638e-15
-1.69049e-14
-1.77384e-14
-4.4049e-15
4.81776e-15
-1.00245e-14
-2.46244e-15
-1.38925e-14
-9.39223e-15
1.66837e-15
-2.59293e-14
6.2797e-16
2.00057e-15
7.79194e-15
-1.84041e-14
-1.23729e-15
4.82296e-15
-1.52742e-15
-3.57527e-15
-3.30508e-15
1.679e-14
-5.35769e-15
1.90715e-14
-4.39883e-15
2.82586e-15
-2.15977e-14
-1.59824e-14
1.6211e-15
5.45787e-15
-1.25117e-15
7.10846e-15
7.30752e-15
-2.19789e-15
8.42815e-15
-5.08751e-15
4.94396e-16
1.17636e-14
1.40517e-14
-1.59543e-14
-1.60644e-14
6.89986e-15
2.19664e-14
3.24263e-15
-1.27489e-14
-3.76869e-16
-4.51071e-15
1.35478e-14
-1.25186e-14
-1.55006e-14
7.04818e-15
1.04205e-14
-2.84278e-15
5.52943e-15
-1.63593e-14
2.75821e-15
-1.04344e-14
-8.14886e-15
-2.46443e-14
2.58023e-14
7.91207e-15
-2.05131e-15
-2.81112e-15
7.92335e-15
-4.35589e-15
-7.60676e-16
1.35248e-14
-5.47739e-15
-3.49547e-16
-1.48666e-14
3.52149e-15
1.63107e-14
1.39905e-14
-4.28043e-15
2.90913e-15
1.5269e-14
5.56413e-15
-4.41574e-15
2.70357e-15
6.83481e-16
1.46307e-14
-1.09426e-14
-1.13017e-14
-1.39671e-14
6.53731e-15
-7.45584e-15
2.87418e-14
5.79831e-15
-2.10856e-15
8.18876e-15
1.453e-14
-8.17922e-15
2.37484e-15
-9.50542e-15
3.36016e-15
7.18262e-15
5.11483e-15
-2.08921e-14
-2.08783e-14
1.30529e-14
2.94912e-14
-1.98973e-15
-1.16938e-14
-1.95972e-14
6.96405e-15
-6.55552e-15
1.9343e-14
-1.91557e-14
1.5387e-15
-8.16187e-16
-2.28099e-14
-1.52621e-14
-8.05866e-15
-1.81981e-14
1.79154e-14
-6.73853e-15
-1.0842e-16
1.14318e-15
2.15227e-14
-1.61988e-14
-9.15587e-15
-1.62682e-14
2.07993e-15
6.02816e-15
2.40832e-14
-1.9932e-14
-1.29376e-14
1.23235e-14
5.42968e-16
1.85546e-14
5.4852e-15
2.77556e-15
-1.09392e-14
6.04551e-15
-1.39819e-15
-1.24657e-14
-4.62477e-15
3.7817e-15
-7.57554e-15
-1.46584e-15
2.15453e-15
1.33071e-14
7.68829e-15
-6.46705e-15
-1.05714e-14
1.82337e-14
-4.2499e-14
-3.86496e-15
2.89404e-14
-2.64615e-14
-1.17528e-14
2.43035e-14
-2.3051e-14
1.04899e-14
-3.96124e-14
-1.50574e-15
-4.15813e-15
2.91243e-14
7.16788e-15
-2.72039e-14
-1.98036e-14
-6.77583e-15
-5.4956e-15
2.67789e-14
1.03719e-14
-1.03459e-14
-1.07536e-14
1.35742e-14
1.23842e-14
1.87194e-14
1.85667e-14
-1.19349e-15
1.17822e-14
-5.51989e-15
-2.6314e-14
3.09648e-15
-7.26329e-15
-1.31995e-14
-1.28439e-14
-2.34708e-15
2.52107e-14
1.06512e-14
-2.07005e-14
-4.70457e-15
-4.20323e-15
5.83561e-15
1.62127e-14
-1.89935e-14
-3.38965e-15
-7.6085e-15
1.86847e-14
-2.05096e-14
1.11907e-14
1.02314e-14
-7.8982e-15
6.09235e-15
1.25056e-14
-1.23304e-14
1.1189e-15
1.44988e-14
-6.30919e-15
-1.21032e-14
9.36751e-15
1.3994e-14
3.13985e-16
-1.79995e-14
2.11064e-14
9.30679e-15
-4.00877e-14
3.60302e-14
5.30478e-15
-2.02754e-14
8.96852e-15
1.04257e-15
3.04756e-14
-1.58571e-14
-5.68295e-15
-2.08236e-14
4.59875e-15
2.95076e-14
9.24955e-15
7.76636e-15
-3.41914e-15
-2.75353e-14
-2.55334e-14
5.15907e-15
-3.15026e-14
5.81826e-15
7.2338e-16
9.22352e-15
-1.31475e-14
1.88217e-14
1.07241e-14
7.66227e-15
6.57981e-15
-5.02549e-15
-6.39419e-15
1.53627e-14
-5.78704e-15
1.87003e-15
-1.72709e-14
3.4521e-15
1.65562e-14
2.06085e-15
2.79637e-15
-5.37764e-16
-1.52205e-14
2.11844e-14
-6.18255e-15
4.23273e-15
-1.93422e-14
1.43288e-14
4.85723e-16
1.21604e-14
1.92242e-14
-1.25559e-14
-1.09114e-14
-9.81853e-16
5.44356e-15
1.75554e-15
-7.49054e-15
3.05311e-15
-2.18436e-14
-6.72379e-15
9.46118e-15
7.01522e-15
-1.02002e-15
-1.07171e-14
2.71415e-14
-2.10422e-14
-4.93702e-15
1.18516e-14
-2.4182e-15
-1.74132e-14
-1.18967e-14
1.47486e-14
1.89779e-15
4.96131e-15
2.95597e-15
-1.18204e-14
2.11185e-14
8.60423e-16
-6.76542e-16
2.93515e-14
2.44839e-14
3.47986e-15
2.72421e-14
-1.1411e-14
-1.14145e-14
3.96558e-15
2.12989e-14
-6.40113e-15
-7.324e-15
-1.6355e-14
-3.60476e-15
1.19661e-14
1.92867e-14
-2.85882e-15
-1.06859e-15
-1.22125e-15
2.17396e-14
1.24276e-14
3.84415e-15
-1.11022e-16
-1.65076e-14
5.62744e-15
1.97758e-15
-1.59803e-14
1.11092e-14
-1.38778e-17
-9.1871e-15
2.30371e-15
4.44089e-15
-2.94417e-14
-1.34684e-14
-1.94289e-15
1.21569e-14
6.18255e-15
8.34055e-15
-9.06913e-15
1.84436e-14
-7.84095e-16
7.61197e-15
7.70217e-16
2.26208e-15
1.58901e-14
-1.37321e-14
3.08087e-15
-1.07414e-14
2.498e-15
-1.61676e-15
7.76462e-15
3.21271e-15
2.06918e-14
2.81025e-14
-1.81036e-14
1.46133e-14
2.45637e-14
1.75554e-14
-4.57967e-15
-1.61884e-14
1.385e-14
6.6197e-15
3.39312e-15
-3.25087e-14
-4.09395e-15
-1.09635e-15
2.8727e-15
3.49859e-14
-1.04083e-15
-2.9976e-15
1.21361e-14
-1.73472e-15
1.96787e-14
4.51028e-15
1.02696e-15
-6.50868e-15
3.83027e-15
1.86656e-15
-3.7817e-15
-4.79478e-15
-1.36557e-14
-1.4988e-15
1.80758e-14
2.92544e-14
-3.01634e-14
6.64052e-15
-1.0679e-14
3.76782e-15
9.17322e-15
2.42792e-14
-1.34615e-14
-1.51823e-14
2.88519e-14
2.62984e-15
1.36002e-14
2.66454e-15
-6.05765e-15
-2.6576e-14
-1.10814e-14
-8.79158e-15
5.4054e-15
1.31284e-14
-7.81319e-15
-9.17322e-15
-2.26694e-14
5.55805e-15
7.37604e-15
1.40304e-14
1.48076e-14
4.55885e-15
-2.39322e-14
-1.34961e-14
-1.71807e-14
-1.40304e-14
2.6347e-14
-2.72837e-14
-3.1801e-14
-2.90393e-14
3.37924e-15
1.75207e-14
-2.63539e-14
-4.59355e-15
-8.86791e-15
1.88669e-14
1.49741e-14
1.68615e-15
4.62824e-15
-2.21004e-14
-1.53488e-14
-1.18655e-14
-9.62425e-15
6.27276e-15
-9.65894e-15
-1.80758e-14
-1.09635e-14
-2.92821e-15
-3.26128e-15
2.85882e-15
5.63438e-15
-2.40363e-14
2.04281e-14
7.10543e-15
-1.5099e-14
-4.69902e-14
1.82632e-14
-2.6229e-15
1.42525e-14
-1.23096e-14