/*--------------------------------*- C++ -*----------------------------------*\
| =========                 |                                                 |
| \\      /  F ield         | foam-extend: Open Source CFD                    |
|  \\    /   O peration     | Version:     4.0                                |
|   \\  /    A nd           | Web:         http://www.foam-extend.org         |
|    \\/     M anipulation  |                                                 |
\*---------------------------------------------------------------------------*/
FoamFile
{
    version     2.0;
    format      ascii;
    class       volScalarField;
    location    "31";
    object      dC1;
}
// * * * * * * * * * * * * * * * * * * * * * * * * * * * * * * * * * * * * * //

dimensions      [0 -1 0 0 0 0 0];

internalField   nonuniform List<scalar> 
6960
(
7.82187e-15
7.90036e-15
7.12321e-15
8.21435e-15
7.63972e-15
8.87354e-15
9.41261e-15
7.88215e-15
8.58775e-15
8.06863e-15
7.8184e-15
8.90867e-15
8.80806e-15
8.99324e-15
9.49284e-15
8.33231e-15
8.49234e-15
8.22996e-15
8.65237e-15
8.2768e-15
8.56129e-15
7.09936e-15
8.37481e-15
8.07427e-15
9.20921e-15
8.02873e-15
7.99924e-15
8.56606e-15
7.29928e-15
8.45071e-15
7.63061e-15
7.91251e-15
8.19006e-15
8.40387e-15
8.58124e-15
8.28764e-15
8.74214e-15
9.07954e-15
8.53397e-15
8.40387e-15
8.74821e-15
9.57611e-15
8.233e-15
8.50622e-15
8.34966e-15
8.60813e-15
8.3219e-15
7.84442e-15
9.61731e-15
8.41514e-15
8.33795e-15
8.31583e-15
7.99014e-15
8.0695e-15
7.49357e-15
8.27029e-15
8.51662e-15
7.53347e-15
8.71959e-15
7.59722e-15
-1.02999e-15
-1.06035e-15
-1.10719e-15
-1.07553e-15
-1.164e-15
-1.2052e-15
-1.18265e-15
-1.15663e-15
-1.2516e-15
-1.2039e-15
-1.13754e-15
-1.14448e-15
-1.15229e-15
-1.1254e-15
-1.13061e-15
-1.21387e-15
-1.0443e-15
-1.23426e-15
-1.1679e-15
-1.19262e-15
-1.04647e-15
-1.19999e-15
-1.17094e-15
-1.11803e-15
-1.04257e-15
-1.164e-15
-1.12974e-15
-1.10328e-15
-1.05601e-15
-1.13061e-15
-1.09201e-15
-1.08073e-15
-1.13494e-15
-1.1215e-15
-1.00831e-15
-1.18872e-15
-1.0816e-15
-1.12107e-15
-1.16617e-15
-1.15663e-15
-1.17311e-15
-1.25247e-15
-1.26071e-15
-1.15316e-15
-1.18785e-15
-1.23946e-15
-1.10979e-15
-1.17094e-15
-1.18785e-15
-1.13191e-15
-1.128e-15
-1.25681e-15
-1.23122e-15
-1.14448e-15
-1.06772e-15
-1.04387e-15
-1.09721e-15
-1.05862e-15
-1.12714e-15
-1.09461e-15
-2.45767e-15
-2.46287e-15
-2.46981e-15
-2.52662e-15
-2.55221e-15
-2.58127e-15
-2.57476e-15
-2.6216e-15
-2.67755e-15
-2.65152e-15
-2.64936e-15
-2.62811e-15
-2.66714e-15
-2.6988e-15
-2.71831e-15
-2.61857e-15
-2.66323e-15
-2.64155e-15
-2.59992e-15
-2.6151e-15
-2.58127e-15
-2.59558e-15
-2.64112e-15
-2.54137e-15
-2.54441e-15
-2.54267e-15
-2.60772e-15
-2.50798e-15
-2.54874e-15
-2.53096e-15
-2.57129e-15
-2.54918e-15
-2.54918e-15
-2.56652e-15
-2.59254e-15
-2.55265e-15
-2.5778e-15
-2.56522e-15
-2.64372e-15
-2.63331e-15
-2.59515e-15
-2.64589e-15
-2.60946e-15
-2.61423e-15
-2.68795e-15
-2.62897e-15
-2.66931e-15
-2.68969e-15
-2.65022e-15
-2.68015e-15
-2.65586e-15
-2.60686e-15
-2.63982e-15
-2.52966e-15
-2.61033e-15
-2.51492e-15
-2.49583e-15
-2.48152e-15
-2.43295e-15
-2.52706e-15
-2.07603e-15
-2.07256e-15
-2.1168e-15
-2.10075e-15
-2.15453e-15
-2.19009e-15
-2.19269e-15
-2.21524e-15
-2.18575e-15
-2.21741e-15
-2.26034e-15
-2.25297e-15
-2.23042e-15
-2.22001e-15
-2.22565e-15
-2.25861e-15
-2.22652e-15
-2.23432e-15
-2.21568e-15
-2.19833e-15
-2.19833e-15
-2.19486e-15
-2.19226e-15
-2.18965e-15
-2.1684e-15
-2.15713e-15
-2.13458e-15
-2.14846e-15
-2.15149e-15
-2.14715e-15
-2.12981e-15
-2.13631e-15
-2.13154e-15
-2.18792e-15
-2.1671e-15
-2.14932e-15
-2.20006e-15
-2.18185e-15
-2.19833e-15
-2.18185e-15
-2.20093e-15
-2.19356e-15
-2.22435e-15
-2.23909e-15
-2.21177e-15
-2.22999e-15
-2.24473e-15
-2.25514e-15
-2.2508e-15
-2.21568e-15
-2.23259e-15
-2.19312e-15
-2.20267e-15
-2.2057e-15
-2.15106e-15
-2.16537e-15
-2.10422e-15
-2.086e-15
-2.09381e-15
-2.06909e-15
-1.19566e-15
-1.19913e-15
-1.20737e-15
-1.22602e-15
-1.21778e-15
-1.23859e-15
-1.24987e-15
-1.25681e-15
-1.27806e-15
-1.28977e-15
-1.28109e-15
-1.29497e-15
-1.29757e-15
-1.30104e-15
-1.29107e-15
-1.29454e-15
-1.29194e-15
-1.27372e-15
-1.28239e-15
-1.2503e-15
-1.27112e-15
-1.25984e-15
-1.25117e-15
-1.2503e-15
-1.25984e-15
-1.23859e-15
-1.23989e-15
-1.24683e-15
-1.22038e-15
-1.23859e-15
-1.24206e-15
-1.24553e-15
-1.2425e-15
-1.22688e-15
-1.25334e-15
-1.24683e-15
-1.25334e-15
-1.2516e-15
-1.2503e-15
-1.25681e-15
-1.26852e-15
-1.26548e-15
-1.28716e-15
-1.28803e-15
-1.28153e-15
-1.2928e-15
-1.29237e-15
-1.29367e-15
-1.29801e-15
-1.29714e-15
-1.28023e-15
-1.27025e-15
-1.26028e-15
-1.2477e-15
-1.24727e-15
-1.22038e-15
-1.23989e-15
-1.20954e-15
-1.2026e-15
-1.21084e-15
-5.20417e-16
-5.23019e-16
-5.16948e-16
-5.23019e-16
-5.59448e-16
-5.38632e-16
-5.45571e-16
-5.47305e-16
-5.54244e-16
-5.61617e-16
-5.60316e-16
-5.5381e-16
-5.7029e-16
-5.64652e-16
-5.61617e-16
-5.54678e-16
-5.59015e-16
-5.42968e-16
-5.46438e-16
-5.59015e-16
-5.55112e-16
-5.51642e-16
-5.56846e-16
-5.39499e-16
-5.39933e-16
-5.44269e-16
-5.39065e-16
-5.408e-16
-5.39065e-16
-5.40366e-16
-5.22152e-16
-5.36463e-16
-5.43402e-16
-5.46438e-16
-5.42968e-16
-5.42968e-16
-5.31693e-16
-5.4904e-16
-5.52076e-16
-5.48606e-16
-5.48606e-16
-5.56846e-16
-5.56846e-16
-5.5728e-16
-5.64219e-16
-5.72025e-16
-5.49907e-16
-5.58581e-16
-5.52943e-16
-5.58147e-16
-5.4904e-16
-5.60749e-16
-5.59882e-16
-5.44269e-16
-5.43836e-16
-5.36463e-16
-5.23886e-16
-5.30392e-16
-5.20851e-16
-5.14346e-16
-1.4615e-16
-1.63931e-16
-1.59161e-16
-1.63931e-16
-1.58727e-16
-1.80845e-16
-1.60028e-16
-1.73906e-16
-1.70437e-16
-1.70437e-16
-1.68702e-16
-1.85615e-16
-1.5786e-16
-1.77375e-16
-1.61329e-16
-1.71738e-16
-1.661e-16
-1.80411e-16
-1.78677e-16
-1.5786e-16
-1.72171e-16
-1.661e-16
-1.7434e-16
-1.70003e-16
-1.77375e-16
-1.66967e-16
-1.75207e-16
-1.55258e-16
-1.76508e-16
-1.58727e-16
-1.76074e-16
-1.7434e-16
-1.71738e-16
-1.65666e-16
-1.56559e-16
-1.73039e-16
-1.74773e-16
-1.64799e-16
-1.64365e-16
-1.78243e-16
-1.79544e-16
-1.76074e-16
-1.62197e-16
-1.68702e-16
-1.65666e-16
-1.64365e-16
-1.86483e-16
-1.78243e-16
-1.70003e-16
-1.76942e-16
-1.86916e-16
-1.73039e-16
-1.76074e-16
-1.661e-16
-1.66533e-16
-1.72605e-16
-1.61329e-16
-1.65232e-16
-1.73906e-16
-1.63931e-16
-4.2067e-17
-2.12504e-17
-2.08167e-17
-2.94903e-17
-1.21431e-17
-3.90313e-18
-2.55872e-17
-1.12757e-17
-1.86483e-17
-2.12504e-17
-2.29851e-17
-1.47451e-17
-3.64292e-17
-1.95156e-17
-1.60462e-17
-2.81893e-17
-2.60209e-17
-1.43115e-17
-2.0383e-17
-1.73472e-17
-1.51788e-17
-1.25767e-17
-1.0842e-17
-2.90566e-17
-1.12757e-17
-1.38778e-17
-8.67362e-19
-1.9082e-17
-1.9082e-17
-2.77556e-17
-6.50521e-18
-3.03577e-18
-1.77809e-17
-2.81893e-17
-3.16587e-17
-1.82146e-17
-2.42861e-17
-3.25261e-17
-1.95156e-17
-1.34441e-17
-2.12504e-17
-2.21177e-17
-9.54098e-18
-1.95156e-17
-1.56125e-17
-2.51535e-17
-1.47451e-17
-1.0842e-17
-2.1684e-17
-3.25261e-17
-8.67362e-19
-1.38778e-17
-1.69136e-17
-1.38778e-17
-1.60462e-17
-8.67362e-19
-1.9082e-17
-8.67362e-19
-2.1684e-18
-1.12757e-17
4.46691e-17
2.86229e-17
1.25767e-17
3.64292e-17
1.30104e-17
2.29851e-17
1.77809e-17
2.0383e-17
2.47198e-17
2.81893e-17
1.95156e-17
9.1073e-18
1.95156e-17
1.30104e-17
2.90566e-17
1.69136e-17
1.64799e-17
2.60209e-17
1.86483e-17
1.86483e-17
2.9924e-17
1.9082e-17
7.80626e-18
2.38524e-17
1.12757e-17
8.23994e-18
1.0842e-17
1.21431e-17
2.51535e-17
2.73219e-17
1.25767e-17
2.1684e-18
3.07913e-17
1.99493e-17
3.51282e-17
4.77049e-18
2.42861e-17
3.03577e-17
2.9924e-17
2.1684e-18
9.1073e-18
1.47451e-17
5.63785e-18
2.29851e-17
9.54098e-18
2.29851e-17
3.03577e-17
0
1.25767e-17
4.03323e-17
1.56125e-17
4.33681e-19
9.54098e-18
2.77556e-17
4.77049e-18
1.60462e-17
2.77556e-17
4.33681e-18
1.56125e-17
1.86483e-17
-1.86483e-17
-2.60209e-18
7.80626e-18
6.50521e-18
2.47198e-17
8.67362e-18
1.86483e-17
-2.60209e-18
1.47451e-17
1.25767e-17
2.55872e-17
1.77809e-17
1.69136e-17
9.54098e-18
7.80626e-18
6.50521e-18
1.51788e-17
1.73472e-17
1.69136e-17
9.97466e-18
2.55872e-17
1.86483e-17
1.04083e-17
4.33681e-19
2.29851e-17
2.34188e-17
8.23994e-18
3.25261e-17
4.33681e-18
1.04083e-17
1.25767e-17
2.77556e-17
4.33681e-18
1.34441e-17
-5.63785e-18
3.81639e-17
-8.67362e-19
1.73472e-17
-3.03577e-18
4.03323e-17
2.42861e-17
-4.77049e-18
1.47451e-17
9.97466e-18
2.42861e-17
-6.50521e-18
6.93889e-18
3.68629e-17
3.16587e-17
-4.33681e-18
2.34188e-17
2.25514e-17
3.20924e-17
-2.60209e-18
2.1684e-17
2.21177e-17
1.38778e-17
2.51535e-17
9.1073e-18
1.38778e-17
1.99493e-17
2.1684e-17
9.1073e-18
-2.12504e-17
-3.46945e-18
-2.60209e-18
-1.30104e-18
9.1073e-18
-9.1073e-18
-4.33681e-19
6.93889e-18
-6.93889e-18
9.54098e-18
4.33681e-18
2.1684e-18
6.50521e-18
3.90313e-18
1.30104e-18
-8.23994e-18
-1.25767e-17
-2.73219e-17
-9.54098e-18
1.25767e-17
2.25514e-17
-1.34441e-17
3.46945e-18
-1.99493e-17
-4.77049e-18
1.25767e-17
-1.0842e-17
-1.43115e-17
9.97466e-18
-2.12504e-17
-1.77809e-17
-9.1073e-18
-1.73472e-17
-8.67362e-18
-2.25514e-17
1.04083e-17
-2.64545e-17
-1.56125e-17
-3.90313e-18
-4.33681e-19
-1.04083e-17
3.46945e-18
1.30104e-18
-1.73472e-17
-3.98986e-17
-9.54098e-18
-9.54098e-18
-2.60209e-18
-6.93889e-18
-3.46945e-17
0
0
-7.80626e-18
-1.73472e-17
-5.63785e-18
1.69136e-17
1.0842e-17
-3.03577e-17
-4.98733e-17
-3.38271e-17
-2.60209e-18
-5.46438e-17
-4.16334e-17
-4.03323e-17
-3.72966e-17
-3.03577e-18
-4.33681e-17
-4.11997e-17
-2.0383e-17
-4.64039e-17
-4.16334e-17
-9.97466e-18
-2.64545e-17
-5.72459e-17
-2.55872e-17
-3.81639e-17
2.1684e-18
-4.03323e-17
-2.42861e-17
-6.245e-17
-5.55112e-17
-4.94396e-17
-3.20924e-17
-2.9924e-17
-1.69136e-17
-3.16587e-17
-2.64545e-17
-2.55872e-17
-4.55365e-17
-3.38271e-17
-1.82146e-17
-2.86229e-17
-2.29851e-17
-8.67362e-18
-3.55618e-17
-4.2067e-17
-2.51535e-17
-2.08167e-17
-2.38524e-17
-4.94396e-17
-2.34188e-17
-5.76796e-17
-1.64799e-17
-1.0842e-17
-2.68882e-17
-1.34441e-17
-2.29851e-17
-1.56125e-17
-2.94903e-17
-1.82146e-17
-2.9924e-17
-2.90566e-17
-6.98226e-17
-3.16587e-17
-3.07913e-17
-5.55112e-17
-2.42861e-17
-5.07407e-17
-4.51028e-17
-2.12504e-17
-8.76035e-17
-5.85469e-17
-4.77049e-17
-5.1608e-17
-8.50015e-17
-8.45678e-17
-4.72712e-17
-9.58435e-17
-7.11237e-17
-4.81386e-17
-3.77302e-17
-9.88792e-17
-7.069e-17
-3.51282e-17
-9.2374e-17
-8.50015e-17
-1.12323e-16
-2.38524e-17
-6.37511e-17
-1.64799e-17
-7.32921e-17
-3.29597e-17
-7.50268e-17
-4.68375e-17
-1.04517e-16
-9.58435e-17
-7.67615e-17
-9.1073e-17
-7.32921e-17
-7.11237e-17
-7.80626e-17
-1.02349e-16
-6.20164e-17
-1.14058e-16
-8.06646e-17
-6.89553e-17
-5.33427e-17
-8.84709e-17
-7.71952e-17
-2.73219e-17
-7.58942e-17
-5.46438e-17
-6.72205e-17
-6.20164e-17
-8.45678e-17
-6.50521e-17
-8.1532e-17
-6.72205e-17
-4.72712e-17
-3.03577e-17
-5.1608e-17
-5.33427e-17
-3.42608e-17
-6.33174e-17
-5.11743e-17
-5.89806e-17
-8.37004e-17
-1.05818e-16
-7.80626e-17
-1.14925e-16
-1.2013e-16
-1.01915e-16
-1.14058e-16
-1.249e-16
-1.11456e-16
-9.28077e-17
-1.26635e-16
-8.67362e-17
-1.05384e-16
-1.43548e-16
-1.58727e-16
-8.89046e-17
-9.06393e-17
-1.49186e-16
-1.01048e-16
-1.29237e-16
-6.54858e-17
-1.53957e-16
-1.0842e-16
-1.4962e-16
-1.27502e-16
-1.21864e-16
-1.02782e-16
-1.14058e-16
-9.02056e-17
-6.37511e-17
-1.19262e-16
-9.2374e-17
-8.80372e-17
-1.36609e-16
-1.04951e-16
-1.23599e-16
-1.09721e-16
-7.15573e-17
-8.54351e-17
-1.19262e-16
-1.0365e-16
-8.23994e-17
-1.10155e-16
-1.41814e-16
-1.15793e-16
-1.24466e-16
-1.19262e-16
-1.23599e-16
-1.14925e-16
-1.16226e-16
-1.14925e-16
-1.01481e-16
-1.34875e-16
-1.32706e-16
-1.1189e-16
-1.249e-16
-1.40946e-16
-1.34441e-16
-1.2837e-16
-9.28077e-17
-1.05818e-16
-1.85182e-16
-2.2855e-16
-1.7911e-16
-1.69136e-16
-2.10769e-16
-1.91687e-16
-1.9559e-16
-1.84748e-16
-1.9559e-16
-1.93422e-16
-1.86049e-16
-1.93855e-16
-1.60462e-16
-1.7087e-16
-1.97758e-16
-2.2855e-16
-2.01228e-16
-1.76942e-16
-1.69569e-16
-1.94723e-16
-1.93855e-16
-1.9906e-16
-1.8258e-16
-1.42681e-16
-1.85182e-16
-1.88651e-16
-1.82146e-16
-1.94289e-16
-2.21177e-16
-1.81279e-16
-2.17708e-16
-2.30285e-16
-2.05998e-16
-1.5439e-16
-1.72171e-16
-1.6263e-16
-1.94723e-16
-1.91253e-16
-1.85182e-16
-1.86916e-16
-1.92988e-16
-1.75207e-16
-1.72171e-16
-2.02529e-16
-1.71304e-16
-1.79544e-16
-1.83881e-16
-1.76508e-16
-2.00794e-16
-1.90386e-16
-1.90386e-16
-1.68702e-16
-2.08167e-16
-2.13371e-16
-2.13805e-16
-1.56559e-16
-1.93422e-16
-1.91253e-16
-1.89519e-16
-1.86916e-16
-2.97939e-16
-2.498e-16
-2.80158e-16
-2.98372e-16
-2.72785e-16
-2.85362e-16
-2.8276e-16
-2.7929e-16
-2.80592e-16
-3.02709e-16
-2.87097e-16
-3.05745e-16
-3.09648e-16
-2.92301e-16
-2.99673e-16
-3.02709e-16
-2.76688e-16
-3.18755e-16
-2.96638e-16
-2.79724e-16
-2.64112e-16
-3.18755e-16
-2.75821e-16
-3.0748e-16
-2.59775e-16
-2.61076e-16
-2.89265e-16
-2.93602e-16
-2.8753e-16
-2.52836e-16
-2.38958e-16
-2.71918e-16
-2.93168e-16
-2.90133e-16
-3.01842e-16
-3.05745e-16
-3.01408e-16
-2.97939e-16
-3.01408e-16
-2.94469e-16
-2.7929e-16
-3.05745e-16
-2.89265e-16
-2.88831e-16
-3.00541e-16
-3.21791e-16
-2.85796e-16
-2.9924e-16
-2.59775e-16
-2.60642e-16
-2.68015e-16
-2.89265e-16
-2.81025e-16
-2.77989e-16
-2.44162e-16
-3.11817e-16
-2.68448e-16
-2.81025e-16
-2.9924e-16
-2.75387e-16
-4.41053e-16
-4.67942e-16
-4.44523e-16
-4.45824e-16
-4.44089e-16
-4.4886e-16
-4.92661e-16
-4.59702e-16
-4.67508e-16
-4.90927e-16
-4.9136e-16
-4.83988e-16
-4.59702e-16
-4.83988e-16
-4.70544e-16
-4.54064e-16
-4.59702e-16
-4.67074e-16
-4.74881e-16
-4.75748e-16
-4.64472e-16
-4.30211e-16
-4.51895e-16
-4.66207e-16
-4.6187e-16
-4.93529e-16
-4.54931e-16
-4.47559e-16
-4.56666e-16
-4.61003e-16
-4.92228e-16
-4.41921e-16
-4.18068e-16
-4.74013e-16
-4.43222e-16
-4.35416e-16
-4.45824e-16
-4.7011e-16
-4.60569e-16
-4.4886e-16
-4.59268e-16
-4.65773e-16
-4.7835e-16
-4.7358e-16
-4.69243e-16
-4.22405e-16
-4.95264e-16
-4.62304e-16
-5.16514e-16
-4.96998e-16
-4.92661e-16
-4.73146e-16
-4.7358e-16
-4.44523e-16
-4.74447e-16
-4.52763e-16
-4.7358e-16
-4.2414e-16
-4.30211e-16
-4.57533e-16
-7.20778e-16
-6.89986e-16
-7.22512e-16
-7.3986e-16
-7.45931e-16
-7.54171e-16
-7.22512e-16
-7.70217e-16
-7.93202e-16
-7.40727e-16
-7.4463e-16
-7.27716e-16
-7.35089e-16
-7.53737e-16
-7.87131e-16
-7.8236e-16
-7.89299e-16
-7.29451e-16
-7.43763e-16
-7.71085e-16
-7.3639e-16
-7.54171e-16
-7.92769e-16
-7.22079e-16
-7.26415e-16
-7.26415e-16
-7.11237e-16
-7.21211e-16
-7.38559e-16
-7.45064e-16
-7.14272e-16
-7.73687e-16
-7.6111e-16
-7.30752e-16
-7.6588e-16
-7.62845e-16
-7.49401e-16
-7.16007e-16
-7.4463e-16
-7.5764e-16
-7.65447e-16
-7.47666e-16
-7.51569e-16
-7.93202e-16
-7.33788e-16
-8.34836e-16
-7.37691e-16
-7.81059e-16
-7.29885e-16
-7.78891e-16
-7.16874e-16
-7.68482e-16
-7.57207e-16
-7.99708e-16
-7.17308e-16
-7.38125e-16
-7.1514e-16
-7.22946e-16
-7.38992e-16
-6.99527e-16
-1.2529e-15
-1.25811e-15
-1.25767e-15
-1.22428e-15
-1.23729e-15
-1.28196e-15
-1.29931e-15
-1.28586e-15
-1.27415e-15
-1.25421e-15
-1.32143e-15
-1.31969e-15
-1.31796e-15
-1.2954e-15
-1.27632e-15
-1.28196e-15
-1.30408e-15
-1.31969e-15
-1.31969e-15
-1.25551e-15
-1.32012e-15
-1.29844e-15
-1.29107e-15
-1.32923e-15
-1.29324e-15
-1.26375e-15
-1.30364e-15
-1.285e-15
-1.27199e-15
-1.26938e-15
-1.28326e-15
-1.23382e-15
-1.27979e-15
-1.28716e-15
-1.24727e-15
-1.24943e-15
-1.26548e-15
-1.26635e-15
-1.24683e-15
-1.28326e-15
-1.32663e-15
-1.33877e-15
-1.26505e-15
-1.26375e-15
-1.34094e-15
-1.2425e-15
-1.30234e-15
-1.31709e-15
-1.31362e-15
-1.25551e-15
-1.3353e-15
-1.27589e-15
-1.29454e-15
-1.22905e-15
-1.28196e-15
-1.25724e-15
-1.22298e-15
-1.19783e-15
-1.24163e-15
-1.22862e-15
-2.13024e-15
-2.16363e-15
-2.19833e-15
-2.19573e-15
-2.19399e-15
-2.1593e-15
-2.18619e-15
-2.24907e-15
-2.24386e-15
-2.3345e-15
-2.27379e-15
-2.27552e-15
-2.31369e-15
-2.31239e-15
-2.292e-15
-2.27856e-15
-2.25861e-15
-2.26642e-15
-2.26295e-15
-2.27769e-15
-2.19529e-15
-2.17361e-15
-2.19746e-15
-2.15409e-15
-2.19052e-15
-2.207e-15
-2.21091e-15
-2.20874e-15
-2.18011e-15
-2.17491e-15
-2.17578e-15
-2.23346e-15
-2.17187e-15
-2.18575e-15
-2.1992e-15
-2.29157e-15
-2.21871e-15
-2.27856e-15
-2.26338e-15
-2.2456e-15
-2.18098e-15
-2.21047e-15
-2.32236e-15
-2.2842e-15
-2.29114e-15
-2.29374e-15
-2.27726e-15
-2.27986e-15
-2.24777e-15
-2.32323e-15
-2.25991e-15
-2.27032e-15
-2.21915e-15
-2.24213e-15
-2.20744e-15
-2.20353e-15
-2.22825e-15
-2.21958e-15
-2.09945e-15
-2.13241e-15
-3.31289e-15
-3.29511e-15
-3.322e-15
-3.38661e-15
-3.43605e-15
-3.58481e-15
-3.51282e-15
-3.48896e-15
-3.52929e-15
-3.52279e-15
-3.57093e-15
-3.5744e-15
-3.55532e-15
-3.59608e-15
-3.55228e-15
-3.51455e-15
-3.56095e-15
-3.51672e-15
-3.46771e-15
-3.51412e-15
-3.54144e-15
-3.55141e-15
-3.50761e-15
-3.51975e-15
-3.40743e-15
-3.4534e-15
-3.40743e-15
-3.43215e-15
-3.42781e-15
-3.46468e-15
-3.38531e-15
-3.4148e-15
-3.42695e-15
-3.46251e-15
-3.4972e-15
-3.44039e-15
-3.46858e-15
-3.4508e-15
-3.52279e-15
-3.50111e-15
-3.56312e-15
-3.54708e-15
-3.492e-15
-3.52019e-15
-3.54577e-15
-3.59478e-15
-3.59782e-15
-3.577e-15
-3.58567e-15
-3.52713e-15
-3.53276e-15
-3.54751e-15
-3.58481e-15
-3.47855e-15
-3.45123e-15
-3.41003e-15
-3.38618e-15
-3.37534e-15
-3.3749e-15
-3.3259e-15
-3.33978e-15
-3.39052e-15
-3.33414e-15
-3.35886e-15
-3.39269e-15
-3.44039e-15
-3.46815e-15
-3.43345e-15
-3.54838e-15
-3.61256e-15
-3.49373e-15
-3.56095e-15
-3.54057e-15
-3.50241e-15
-3.58004e-15
-3.64032e-15
-3.54144e-15
-3.59825e-15
-3.58828e-15
-3.58871e-15
-3.4894e-15
-3.456e-15
-3.43822e-15
-3.43519e-15
-3.47465e-15
-3.49417e-15
-3.49764e-15
-3.44733e-15
-3.45297e-15
-3.41047e-15
-3.46207e-15
-3.42087e-15
-3.46858e-15
-3.51368e-15
-3.38488e-15
-3.4959e-15
-3.44169e-15
-3.4534e-15
-3.38965e-15
-3.51195e-15
-3.42695e-15
-3.50674e-15
-3.59652e-15
-3.55358e-15
-3.54968e-15
-3.51802e-15
-3.56312e-15
-3.59391e-15
-3.5783e-15
-3.55488e-15
-3.6221e-15
-3.51542e-15
-3.41567e-15
-3.54447e-15
-3.45644e-15
-3.49026e-15
-3.37837e-15
-3.34888e-15
-3.35756e-15
-3.36493e-15
1.2026e-15
1.2091e-15
1.08247e-15
1.13624e-15
1.14535e-15
1.24987e-15
1.17181e-15
1.15923e-15
1.18395e-15
1.25464e-15
1.1202e-15
1.11196e-15
1.10892e-15
1.1254e-15
1.19392e-15
1.26331e-15
1.22298e-15
1.25551e-15
1.19956e-15
1.24683e-15
1.11846e-15
1.13061e-15
1.20173e-15
1.15619e-15
1.15836e-15
1.18048e-15
1.16443e-15
1.15142e-15
1.19176e-15
1.19956e-15
1.2039e-15
1.14058e-15
1.18308e-15
1.27676e-15
1.16357e-15
1.18915e-15
1.13928e-15
1.18872e-15
1.09418e-15
1.19262e-15
1.1293e-15
1.19262e-15
1.2902e-15
1.23686e-15
1.21214e-15
1.19869e-15
1.15099e-15
1.21561e-15
1.14448e-15
1.1189e-15
1.22818e-15
1.17658e-15
1.14752e-15
1.1627e-15
1.16877e-15
1.28023e-15
1.11933e-15
1.22385e-15
1.19089e-15
1.19262e-15
7.9498e-15
7.98016e-15
8.12805e-15
8.18703e-15
8.21045e-15
8.22302e-15
8.27073e-15
8.43249e-15
8.42338e-15
8.41471e-15
8.48713e-15
8.52009e-15
8.54915e-15
8.58341e-15
8.45764e-15
8.44767e-15
8.40994e-15
8.37004e-15
8.37221e-15
8.36527e-15
8.41558e-15
8.37611e-15
8.2343e-15
8.29068e-15
8.25555e-15
8.22953e-15
8.29978e-15
8.20828e-15
8.25512e-15
8.1905e-15
8.23256e-15
8.2807e-15
8.21348e-15
8.27203e-15
8.26509e-15
8.24471e-15
8.37221e-15
8.31366e-15
8.36093e-15
8.35963e-15
8.33665e-15
8.45461e-15
8.43596e-15
8.45417e-15
8.44073e-15
8.54742e-15
8.60163e-15
8.52096e-15
8.53441e-15
8.52183e-15
8.49581e-15
8.46935e-15
8.41644e-15
8.4069e-15
8.31236e-15
8.13932e-15
8.13499e-15
7.98146e-15
8.01356e-15
7.95327e-15
-6.15393e-16
-5.90673e-16
-6.29705e-16
-6.89119e-16
-5.7376e-16
-5.48606e-16
-4.57967e-16
-6.31439e-16
-4.98733e-16
-4.98733e-16
-4.23273e-16
-4.12431e-16
-4.25875e-16
-5.04371e-16
-4.80085e-16
-4.87024e-16
-3.97685e-16
-4.15466e-16
-5.05672e-16
-4.3715e-16
-5.09141e-16
-5.38198e-16
-4.61436e-16
-5.00468e-16
-5.11743e-16
-5.37764e-16
-5.82433e-16
-5.25621e-16
-6.1149e-16
-5.08708e-16
-5.46004e-16
-5.88939e-16
-5.53377e-16
-6.54424e-16
-5.98913e-16
-5.55112e-16
-6.17128e-16
-5.55979e-16
-4.82687e-16
-4.9483e-16
-4.41053e-16
-5.65954e-16
-5.90673e-16
-4.80085e-16
-4.76615e-16
-5.29524e-16
-5.7376e-16
-5.88939e-16
-4.96131e-16
-4.6187e-16
-4.76615e-16
-4.6187e-16
-5.86337e-16
-6.29705e-16
-6.17562e-16
-5.92408e-16
-6.56593e-16
-5.57714e-16
-6.97793e-16
-5.95878e-16
-3.44481e-14
-3.45266e-14
-3.48077e-14
-3.4956e-14
-3.53116e-14
-3.55627e-14
-3.59678e-14
-3.58979e-14
-3.62019e-14
-3.64014e-14
-3.65073e-14
-3.65619e-14
-3.6705e-14
-3.64643e-14
-3.64925e-14
-3.64136e-14
-3.64929e-14
-3.62557e-14
-3.60922e-14
-3.61837e-14
-3.6064e-14
-3.58524e-14
-3.58563e-14
-3.56434e-14
-3.56572e-14
-3.55211e-14
-3.54768e-14
-3.53771e-14
-3.53723e-14
-3.54092e-14
-3.5459e-14
-3.53836e-14
-3.54304e-14
-3.54898e-14
-3.55033e-14
-3.56364e-14
-3.57648e-14
-3.57752e-14
-3.59972e-14
-3.60064e-14
-3.61239e-14
-3.61278e-14
-3.6231e-14
-3.63785e-14
-3.64721e-14
-3.64405e-14
-3.65645e-14
-3.64674e-14
-3.6522e-14
-3.64448e-14
-3.64357e-14
-3.62848e-14
-3.59634e-14
-3.57722e-14
-3.56022e-14
-3.52439e-14
-3.49725e-14
-3.47847e-14
-3.45752e-14
-3.44304e-14
-5.33215e-14
-5.35713e-14
-5.37925e-14
-5.42756e-14
-5.47474e-14
-5.53719e-14
-5.58108e-14
-5.64258e-14
-5.67437e-14
-5.68864e-14
-5.72628e-14
-5.73218e-14
-5.71921e-14
-5.74731e-14
-5.72498e-14
-5.71253e-14
-5.69484e-14
-5.6895e-14
-5.67229e-14
-5.63065e-14
-5.60663e-14
-5.59756e-14
-5.57909e-14
-5.57328e-14
-5.54214e-14
-5.53056e-14
-5.5175e-14
-5.51733e-14
-5.51807e-14
-5.50926e-14
-5.49769e-14
-5.50987e-14
-5.51876e-14
-5.52696e-14
-5.54257e-14
-5.54218e-14
-5.55077e-14
-5.58607e-14
-5.59722e-14
-5.61335e-14
-5.63685e-14
-5.66426e-14
-5.68204e-14
-5.69818e-14
-5.70308e-14
-5.73231e-14
-5.73348e-14
-5.73708e-14
-5.72827e-14
-5.72125e-14
-5.69445e-14
-5.66617e-14
-5.64457e-14
-5.59353e-14
-5.52271e-14
-5.48043e-14
-5.42851e-14
-5.38801e-14
-5.33965e-14
-5.32968e-14
-2.1004e-14
-2.1066e-14
-2.14767e-14
-2.15826e-14
-2.18632e-14
-2.20991e-14
-2.2423e-14
-2.27466e-14
-2.29166e-14
-2.3355e-14
-2.3247e-14
-2.33559e-14
-2.35445e-14
-2.31833e-14
-2.33004e-14
-2.32544e-14
-2.30588e-14
-2.28528e-14
-2.27375e-14
-2.28862e-14
-2.26945e-14
-2.25648e-14
-2.23649e-14
-2.21442e-14
-2.23068e-14
-2.21576e-14
-2.21221e-14
-2.20744e-14
-2.20097e-14
-2.1969e-14
-2.20952e-14
-2.20275e-14
-2.20102e-14
-2.19733e-14
-2.20583e-14
-2.2312e-14
-2.24066e-14
-2.22886e-14
-2.24807e-14
-2.26924e-14
-2.27873e-14
-2.27817e-14
-2.29925e-14
-2.30658e-14
-2.33225e-14
-2.32583e-14
-2.33147e-14
-2.32904e-14
-2.33641e-14
-2.32184e-14
-2.31395e-14
-2.29517e-14
-2.26312e-14
-2.2381e-14
-2.21784e-14
-2.18861e-14
-2.17825e-14
-2.12404e-14
-2.12118e-14
-2.10118e-14
2.44158e-14
2.44492e-14
2.47463e-14
2.45979e-14
2.47254e-14
2.48924e-14
2.51713e-14
2.55186e-14
2.55815e-14
2.55672e-14
2.56145e-14
2.5595e-14
2.57056e-14
2.54905e-14
2.56514e-14
2.5673e-14
2.54761e-14
2.52441e-14
2.52814e-14
2.5559e-14
2.5284e-14
2.50785e-14
2.51847e-14
2.49926e-14
2.52068e-14
2.50555e-14
2.48898e-14
2.51114e-14
2.50984e-14
2.49796e-14
2.52649e-14
2.48759e-14
2.49739e-14
2.47775e-14
2.49093e-14
2.50269e-14
2.51492e-14
2.51665e-14
2.51934e-14
2.52806e-14
2.55438e-14
2.54592e-14
2.55477e-14
2.56553e-14
2.55017e-14
2.55846e-14
2.57147e-14
2.5533e-14
2.56314e-14
2.53512e-14
2.5533e-14
2.55052e-14
2.5369e-14
2.51413e-14
2.49787e-14
2.49362e-14
2.48352e-14
2.45559e-14
2.44318e-14
2.45112e-14
3.83461e-14
3.84215e-14
3.85312e-14
3.9174e-14
3.95036e-14
3.98678e-14
4.00266e-14
4.03046e-14
4.04902e-14
4.09646e-14
4.11216e-14
4.12504e-14
4.12921e-14
4.12877e-14
4.09477e-14
4.10691e-14
4.09004e-14
4.08861e-14
4.05999e-14
4.04139e-14
4.04021e-14
4.01749e-14
4.00877e-14
3.9965e-14
3.96653e-14
3.97312e-14
3.97868e-14
3.95365e-14
3.93695e-14
3.95261e-14
3.91718e-14
3.96363e-14
3.96445e-14
3.98293e-14
3.97252e-14
3.99004e-14
3.98683e-14
3.99546e-14
4.0161e-14
4.03501e-14
4.0302e-14
4.06671e-14
4.07014e-14
4.07755e-14
4.10835e-14
4.10878e-14
4.08553e-14
4.12526e-14
4.11832e-14
4.12699e-14
4.08423e-14
4.05136e-14
4.03714e-14
4.00309e-14
3.96991e-14
3.93201e-14
3.91024e-14
3.86709e-14
3.84436e-14
3.81479e-14
2.74173e-14
2.74893e-14
2.80041e-14
2.78987e-14
2.82148e-14
2.86906e-14
2.90436e-14
2.91741e-14
2.95107e-14
2.96265e-14
2.95918e-14
2.97319e-14
2.97657e-14
2.96985e-14
2.99483e-14
2.95211e-14
2.95228e-14
2.94638e-14
2.94383e-14
2.93702e-14
2.90393e-14
2.91464e-14
2.89235e-14
2.87569e-14
2.88736e-14
2.85843e-14
2.8639e-14
2.86039e-14
2.86104e-14
2.84065e-14
2.87426e-14
2.83848e-14
2.85002e-14
2.85158e-14
2.86407e-14
2.87838e-14
2.89773e-14
2.90163e-14
2.91238e-14
2.91906e-14
2.93615e-14
2.90501e-14
2.96547e-14
2.94556e-14
2.97314e-14
2.97856e-14
3.00367e-14
3.00177e-14
2.97613e-14
2.97423e-14
2.95567e-14
2.95194e-14
2.94239e-14
2.88879e-14
2.87383e-14
2.82565e-14
2.77751e-14
2.77586e-14
2.76914e-14
2.74451e-14
1.40166e-14
1.41649e-14
1.40257e-14
1.43201e-14
1.45712e-14
1.45209e-14
1.46324e-14
1.48783e-14
1.51645e-14
1.50899e-14
1.52682e-14
1.55037e-14
1.51337e-14
1.52205e-14
1.49663e-14
1.53085e-14
1.52391e-14
1.5142e-14
1.50852e-14
1.4795e-14
1.48692e-14
1.47317e-14
1.47521e-14
1.47803e-14
1.45582e-14
1.46584e-14
1.46194e-14
1.46033e-14
1.44654e-14
1.47438e-14
1.45873e-14
1.44745e-14
1.46237e-14
1.4648e-14
1.45699e-14
1.45843e-14
1.47499e-14
1.4707e-14
1.4772e-14
1.48423e-14
1.48757e-14
1.52864e-14
1.50674e-14
1.54052e-14
1.50852e-14
1.53558e-14
1.50635e-14
1.51307e-14
1.53592e-14
1.5063e-14
1.53384e-14
1.49863e-14
1.46354e-14
1.46601e-14
1.44528e-14
1.43648e-14
1.44173e-14
1.44854e-14
1.40226e-14
1.39814e-14
5.76275e-15
5.91888e-15
6.03163e-15
6.10666e-15
6.1509e-15
6.18472e-15
6.47876e-15
6.39896e-15
6.10362e-15
6.34302e-15
6.28751e-15
6.18819e-15
6.47139e-15
6.63358e-15
6.68259e-15
6.33478e-15
6.54034e-15
6.27189e-15
6.30615e-15
6.43973e-15
6.49264e-15
6.28317e-15
6.04291e-15
6.33564e-15
6.26582e-15
6.23416e-15
6.14786e-15
6.31873e-15
6.28273e-15
6.13789e-15
6.30745e-15
6.31743e-15
6.12661e-15
5.92018e-15
6.36166e-15
6.30182e-15
6.21378e-15
6.42845e-15
6.33738e-15
6.23546e-15
6.34562e-15
6.26842e-15
6.35082e-15
6.17475e-15
6.54121e-15
6.25021e-15
6.51779e-15
6.45014e-15
6.16087e-15
6.57373e-15
6.35473e-15
6.27103e-15
6.71165e-15
6.26669e-15
6.10666e-15
6.2437e-15
6.00865e-15
5.62484e-15
5.99304e-15
6.03077e-15
2.48109e-15
2.13805e-15
2.06432e-15
2.09685e-15
2.22045e-15
2.59862e-15
2.02616e-15
2.28116e-15
2.65673e-15
2.46591e-15
2.3731e-15
2.61943e-15
2.39175e-15
2.17708e-15
2.15669e-15
2.29981e-15
2.39826e-15
2.48716e-15
2.59688e-15
2.25514e-15
2.27162e-15
2.42861e-15
2.5765e-15
2.04264e-15
2.31499e-15
2.43165e-15
2.29504e-15
1.94983e-15
2.31499e-15
2.47111e-15
2.22608e-15
2.19182e-15
2.33711e-15
2.38394e-15
2.30978e-15
2.2855e-15
2.41474e-15
2.19052e-15
2.47155e-15
2.60339e-15
2.32713e-15
2.3293e-15
2.26295e-15
2.55612e-15
2.27769e-15
2.63288e-15
2.5019e-15
2.6255e-15
2.51708e-15
2.32713e-15
2.27119e-15
2.21611e-15
2.06389e-15
2.02746e-15
2.38698e-15
2.1658e-15
2.24733e-15
2.06562e-15
1.91644e-15
2.11723e-15
7.81493e-16
8.65627e-16
6.38812e-16
8.57387e-16
7.24247e-16
5.13478e-16
9.7795e-16
1.08724e-15
5.8677e-16
4.76615e-16
9.53664e-16
7.35089e-16
9.78818e-16
6.36644e-16
6.48353e-16
8.22693e-16
6.23633e-16
5.90673e-16
6.22766e-16
7.51135e-16
7.26849e-16
9.13766e-16
7.30319e-16
1.04517e-15
6.67001e-16
6.64833e-16
6.11056e-16
6.76108e-16
7.08201e-16
6.36644e-16
8.20091e-16
7.66748e-16
7.22512e-16
7.45931e-16
7.14272e-16
5.90673e-16
6.05418e-16
5.88071e-16
4.77916e-16
5.02202e-16
9.14199e-16
8.33535e-16
6.25801e-16
5.45137e-16
8.85576e-16
8.11417e-16
7.01262e-16
6.23199e-16
6.51389e-16
9.56266e-16
9.0249e-16
1.15272e-15
8.87311e-16
9.7795e-16
7.03864e-16
7.47232e-16
7.05599e-16
9.00321e-16
9.18536e-16
5.3603e-16
-2.92301e-16
-9.88792e-17
1.18829e-16
5.55112e-17
3.98986e-17
1.50487e-16
1.31405e-16
-1.34875e-16
4.0766e-16
3.69062e-16
-6.33174e-17
-7.41594e-17
-1.05818e-16
5.07407e-16
5.82867e-16
3.25261e-17
9.58435e-17
1.60462e-17
-6.67869e-17
2.47198e-17
9.06393e-17
-4.55365e-17
1.9082e-16
1.51788e-17
1.25767e-16
4.46691e-17
2.21177e-16
2.02963e-16
2.19443e-16
4.81386e-17
2.99673e-16
2.34188e-17
1.32706e-16
1.24033e-16
-1.43115e-17
4.51462e-16
-1.42681e-16
-1.84748e-16
2.45897e-16
3.41741e-16
-2.35489e-16
-2.51535e-17
5.01769e-16
2.57606e-16
2.42861e-16
7.89299e-17
2.64545e-17
2.35922e-16
1.9082e-17
1.52222e-16
-1.07553e-16
-4.59702e-17
3.01842e-16
1.77375e-16
1.1666e-16
2.24647e-16
2.12504e-17
2.36356e-16
-1.75207e-16
1.30538e-16
1.07119e-16
-2.14672e-16
1.37911e-16
2.27682e-16
1.661e-16
-2.9577e-16
-4.09395e-16
5.24754e-17
-1.71304e-16
-1.37911e-16
2.05998e-16
1.13191e-16
4.98733e-17
-3.2873e-16
-1.73472e-17
-1.38778e-16
-1.98626e-16
5.0307e-17
-2.55872e-17
-9.67108e-17
-1.43548e-16
-1.31405e-16
-1.0365e-16
-1.47885e-16
-1.32706e-16
1.98626e-16
-1.61763e-16
-2.64545e-17
-9.97466e-18
2.94903e-17
-4.09395e-16
-1.86483e-17
-4.29344e-17
-2.16407e-16
7.11237e-17
-3.02709e-16
1.90386e-16
1.96891e-16
-2.92301e-16
-1.66967e-16
-4.68375e-17
2.92301e-16
-4.4886e-16
1.84314e-16
-3.37837e-16
-3.77736e-16
1.39645e-16
-5.85469e-17
3.68195e-16
8.23994e-18
1.83013e-16
3.1225e-17
-2.17274e-16
4.59702e-17
-4.04624e-16
-4.41053e-16
-1.60462e-17
-2.6151e-16
-3.63858e-16
1.59595e-16
2.51535e-17
1.43548e-16
-3.13118e-16
-2.4503e-16
-7.19043e-16
-1.53523e-16
1.91253e-16
-5.0307e-16
-2.06432e-16
-3.66027e-16
-2.54571e-16
-1.30104e-18
-3.76001e-16
2.96638e-16
-5.3256e-16
1.05818e-16
-7.71952e-17
-6.41848e-17
3.03577e-17
7.50268e-17
1.43548e-16
-1.44849e-16
-3.46945e-18
-1.64365e-16
3.42608e-17
-1.6263e-16
-4.68375e-17
-6.72205e-17
-4.18502e-16
-1.09721e-16
2.7929e-16
-3.38705e-16
-3.2873e-16
-3.20924e-16
-1.41814e-16
-3.02276e-16
-4.996e-16
-4.60135e-16
3.51282e-17
5.9848e-17
-4.72712e-17
-4.66207e-16
1.9906e-16
-5.80699e-16
2.9924e-17
1.47451e-16
-1.53523e-16
-1.14492e-16
-7.04731e-16
-1.95156e-16
-2.24213e-16
-2.60209e-18
-1.93422e-16
-3.04444e-16
1.88217e-16
1.56992e-16
-2.75387e-16
5.1608e-17
4.80085e-16
-2.37223e-16
-4.34982e-16
-1.99493e-16
-2.56739e-16
1.84748e-16
1.31839e-16
1.60462e-17
-2.66714e-16
-1.05818e-16
-1.5786e-16
-1.29671e-16
3.03577e-17
-3.9465e-16
-2.39826e-16
-4.11997e-17
-3.98986e-17
-5.85469e-16
-2.42428e-16
-3.54751e-16
-4.31512e-16
-3.33067e-16
-5.0307e-16
-6.63532e-17
-1.50921e-16
-2.48065e-16
-7.41594e-17
-3.34802e-16
-2.29851e-16
-2.70183e-16
-6.37511e-17
-3.31766e-16
-3.96384e-16
4.85723e-17
1.83013e-16
-1.23599e-16
-3.34802e-16
8.54351e-17
-5.11743e-17
-2.50668e-16
-1.4962e-16
-1.19262e-16
-4.47559e-16
-7.24247e-17
-1.9082e-16
2.38524e-17
-2.08167e-16
-1.47885e-16
-2.24647e-16
-4.99167e-16
1.42681e-16