/*--------------------------------*- C++ -*----------------------------------*\
| =========                 |                                                 |
| \\      /  F ield         | foam-extend: Open Source CFD                    |
|  \\    /   O peration     | Version:     4.0                                |
|   \\  /    A nd           | Web:         http://www.foam-extend.org         |
|    \\/     M anipulation  |                                                 |
\*---------------------------------------------------------------------------*/
FoamFile
{
    version     2.0;
    format      ascii;
    class       volScalarField;
    location    "31";
    object      dC2;
}
// * * * * * * * * * * * * * * * * * * * * * * * * * * * * * * * * * * * * * //

dimensions      [0 -1 0 0 0 0 0];

internalField   nonuniform List<scalar> 
6960
(
3.04344e-22
3.05276e-22
3.07022e-22
3.09351e-22
3.1201e-22
3.14744e-22
3.17329e-22
3.19618e-22
3.21502e-22
3.22943e-22
3.2393e-22
3.24493e-22
3.24667e-22
3.24521e-22
3.24101e-22
3.23462e-22
3.22663e-22
3.2175e-22
3.20767e-22
3.19752e-22
3.18739e-22
3.17755e-22
3.16828e-22
3.15975e-22
3.15217e-22
3.14564e-22
3.14025e-22
3.1362e-22
3.13344e-22
3.13205e-22
3.13208e-22
3.13343e-22
3.13621e-22
3.14028e-22
3.14565e-22
3.15219e-22
3.15976e-22
3.16828e-22
3.17755e-22
3.18735e-22
3.1975e-22
3.20763e-22
3.21752e-22
3.22663e-22
3.23461e-22
3.24098e-22
3.2452e-22
3.2467e-22
3.24493e-22
3.23929e-22
3.22941e-22
3.21503e-22
3.19618e-22
3.17328e-22
3.14741e-22
3.12012e-22
3.09355e-22
3.07024e-22
3.05279e-22
3.04342e-22
1.05918e-21
1.06237e-21
1.06831e-21
1.07626e-21
1.08531e-21
1.09461e-21
1.10343e-21
1.11122e-21
1.11766e-21
1.12256e-21
1.12595e-21
1.12787e-21
1.12849e-21
1.12798e-21
1.12654e-21
1.12438e-21
1.12165e-21
1.11853e-21
1.11518e-21
1.11172e-21
1.10826e-21
1.10492e-21
1.10175e-21
1.09884e-21
1.09626e-21
1.09402e-21
1.09221e-21
1.09081e-21
1.08988e-21
1.08939e-21
1.08939e-21
1.08987e-21
1.09081e-21
1.09221e-21
1.09403e-21
1.09625e-21
1.09885e-21
1.10175e-21
1.10492e-21
1.10827e-21
1.11172e-21
1.11519e-21
1.11852e-21
1.12165e-21
1.12437e-21
1.12655e-21
1.12798e-21
1.12848e-21
1.12786e-21
1.12595e-21
1.12257e-21
1.11765e-21
1.11122e-21
1.10344e-21
1.09462e-21
1.08532e-21
1.07625e-21
1.0683e-21
1.06236e-21
1.05918e-21
3.11452e-21
3.12379e-21
3.14097e-21
3.16399e-21
3.19024e-21
3.21722e-21
3.24277e-21
3.26537e-21
3.28403e-21
3.2983e-21
3.30806e-21
3.31364e-21
3.31548e-21
3.31402e-21
3.30987e-21
3.30358e-21
3.29568e-21
3.28665e-21
3.27692e-21
3.26692e-21
3.25692e-21
3.24716e-21
3.238e-21
3.22958e-21
3.22203e-21
3.2156e-21
3.21027e-21
3.20622e-21
3.20348e-21
3.20212e-21
3.20211e-21
3.20351e-21
3.20621e-21
3.21026e-21
3.21556e-21
3.22201e-21
3.22954e-21
3.23797e-21
3.24717e-21
3.25688e-21
3.26693e-21
3.27692e-21
3.28669e-21
3.29567e-21
3.30358e-21
3.30986e-21
3.31401e-21
3.3155e-21
3.31367e-21
3.30808e-21
3.29829e-21
3.28404e-21
3.26538e-21
3.24277e-21
3.21721e-21
3.19025e-21
3.16397e-21
3.14098e-21
3.12378e-21
3.11454e-21
8.51774e-21
8.54278e-21
8.58966e-21
8.65221e-21
8.72358e-21
8.79695e-21
8.86653e-21
8.92805e-21
8.97885e-21
9.01762e-21
9.04438e-21
9.0597e-21
9.06449e-21
9.06064e-21
9.04933e-21
9.03221e-21
9.01087e-21
8.98636e-21
8.95988e-21
8.93246e-21
8.90523e-21
8.87883e-21
8.85374e-21
8.83079e-21
8.81031e-21
8.79266e-21
8.77825e-21
8.76723e-21
8.75977e-21
8.756e-21
8.75606e-21
8.75971e-21
8.76725e-21
8.77826e-21
8.79269e-21
8.81032e-21
8.83075e-21
8.8538e-21
8.87877e-21
8.9053e-21
8.93248e-21
8.95987e-21
8.98623e-21
9.01082e-21
9.03232e-21
9.04937e-21
9.06065e-21
9.06458e-21
9.05963e-21
9.04435e-21
9.01755e-21
8.97885e-21
8.92796e-21
8.86653e-21
8.79696e-21
8.72355e-21
8.65229e-21
8.58967e-21
8.54287e-21
8.5177e-21
2.28533e-20
2.29204e-20
2.30462e-20
2.32139e-20
2.34057e-20
2.36023e-20
2.37891e-20
2.39542e-20
2.40906e-20
2.41951e-20
2.42671e-20
2.43079e-20
2.43215e-20
2.43112e-20
2.42811e-20
2.42354e-20
2.41776e-20
2.41115e-20
2.40406e-20
2.39673e-20
2.3894e-20
2.38227e-20
2.37556e-20
2.36938e-20
2.36387e-20
2.35912e-20
2.35524e-20
2.35229e-20
2.35028e-20
2.34927e-20
2.34929e-20
2.3503e-20
2.35227e-20
2.35526e-20
2.35912e-20
2.36386e-20
2.36939e-20
2.37556e-20
2.38227e-20
2.38937e-20
2.39672e-20
2.40406e-20
2.41118e-20
2.41777e-20
2.42351e-20
2.42811e-20
2.43112e-20
2.43214e-20
2.4308e-20
2.42671e-20
2.41951e-20
2.40908e-20
2.39544e-20
2.3789e-20
2.36024e-20
2.34055e-20
2.32139e-20
2.30459e-20
2.29204e-20
2.28532e-20
6.13423e-20
6.15237e-20
6.18602e-20
6.23126e-20
6.28274e-20
6.33572e-20
6.38601e-20
6.43048e-20
6.46727e-20
6.49534e-20
6.51471e-20
6.52587e-20
6.52951e-20
6.52671e-20
6.51863e-20
6.5063e-20
6.4908e-20
6.4731e-20
6.45393e-20
6.43413e-20
6.41441e-20
6.39526e-20
6.37717e-20
6.36047e-20
6.34566e-20
6.33298e-20
6.32252e-20
6.31446e-20
6.30907e-20
6.30638e-20
6.30628e-20
6.30904e-20
6.31452e-20
6.32239e-20
6.33291e-20
6.34566e-20
6.3605e-20
6.37713e-20
6.39527e-20
6.41444e-20
6.43422e-20
6.45392e-20
6.47302e-20
6.49076e-20
6.5063e-20
6.51858e-20
6.52669e-20
6.52951e-20
6.52583e-20
6.51472e-20
6.49539e-20
6.46724e-20
6.43052e-20
6.38606e-20
6.33573e-20
6.28279e-20
6.23118e-20
6.18611e-20
6.15237e-20
6.13428e-20
1.65589e-19
1.66077e-19
1.66991e-19
1.68211e-19
1.69604e-19
1.71038e-19
1.72396e-19
1.736e-19
1.74595e-19
1.75357e-19
1.75882e-19
1.76184e-19
1.76282e-19
1.76209e-19
1.7599e-19
1.75659e-19
1.75239e-19
1.74759e-19
1.74242e-19
1.73707e-19
1.73173e-19
1.72651e-19
1.72161e-19
1.7171e-19
1.71309e-19
1.70962e-19
1.70679e-19
1.70464e-19
1.70317e-19
1.70243e-19
1.70243e-19
1.70319e-19
1.70462e-19
1.70681e-19
1.70963e-19
1.71309e-19
1.71711e-19
1.72162e-19
1.72652e-19
1.73171e-19
1.73705e-19
1.74241e-19
1.74759e-19
1.75239e-19
1.75658e-19
1.75989e-19
1.76208e-19
1.76282e-19
1.76183e-19
1.7588e-19
1.75357e-19
1.74594e-19
1.73599e-19
1.72396e-19
1.71037e-19
1.69604e-19
1.68211e-19
1.66989e-19
1.66078e-19
1.65588e-19
4.4913e-19
4.50455e-19
4.52934e-19
4.56249e-19
4.60037e-19
4.63927e-19
4.67624e-19
4.70892e-19
4.73598e-19
4.75666e-19
4.77098e-19
4.77915e-19
4.7819e-19
4.77987e-19
4.77402e-19
4.76498e-19
4.75358e-19
4.74054e-19
4.72645e-19
4.71196e-19
4.69741e-19
4.6833e-19
4.66998e-19
4.65771e-19
4.6468e-19
4.63735e-19
4.6296e-19
4.62378e-19
4.61978e-19
4.61778e-19
4.6178e-19
4.61971e-19
4.62376e-19
4.62964e-19
4.63734e-19
4.64676e-19
4.65769e-19
4.66998e-19
4.68328e-19
4.69736e-19
4.71193e-19
4.72647e-19
4.74056e-19
4.7536e-19
4.76498e-19
4.77402e-19
4.77993e-19
4.78194e-19
4.77917e-19
4.77099e-19
4.75665e-19
4.73599e-19
4.70896e-19
4.6762e-19
4.63932e-19
4.60037e-19
4.56254e-19
4.52936e-19
4.50454e-19
4.4913e-19
1.22015e-18
1.22376e-18
1.2305e-18
1.23953e-18
1.24983e-18
1.26041e-18
1.27045e-18
1.27936e-18
1.2867e-18
1.29236e-18
1.29625e-18
1.2985e-18
1.29925e-18
1.2987e-18
1.29709e-18
1.29465e-18
1.29155e-18
1.288e-18
1.28417e-18
1.28021e-18
1.27625e-18
1.2724e-18
1.26878e-18
1.26544e-18
1.26245e-18
1.2599e-18
1.25781e-18
1.25619e-18
1.25511e-18
1.25456e-18
1.25456e-18
1.25512e-18
1.2562e-18
1.25779e-18
1.2599e-18
1.26246e-18
1.26544e-18
1.26877e-18
1.27241e-18
1.27626e-18
1.28022e-18
1.28417e-18
1.288e-18
1.29153e-18
1.29463e-18
1.29709e-18
1.29869e-18
1.29924e-18
1.29849e-18
1.29624e-18
1.29237e-18
1.28671e-18
1.27936e-18
1.27045e-18
1.2604e-18
1.24982e-18
1.23953e-18
1.2305e-18
1.22377e-18
1.22015e-18
3.3065e-18
3.31627e-18
3.33454e-18
3.35901e-18
3.38694e-18
3.41566e-18
3.44299e-18
3.46712e-18
3.48718e-18
3.50245e-18
3.51303e-18
3.51914e-18
3.52119e-18
3.51977e-18
3.5154e-18
3.50873e-18
3.50031e-18
3.4907e-18
3.48031e-18
3.46959e-18
3.45879e-18
3.44835e-18
3.43853e-18
3.42946e-18
3.42135e-18
3.41434e-18
3.40863e-18
3.4043e-18
3.40133e-18
3.39989e-18
3.39986e-18
3.40136e-18
3.40429e-18
3.40866e-18
3.41436e-18
3.42132e-18
3.42944e-18
3.4385e-18
3.44837e-18
3.4588e-18
3.46956e-18
3.4803e-18
3.49068e-18
3.50036e-18
3.50876e-18
3.51538e-18
3.51973e-18
3.52117e-18
3.51914e-18
3.51305e-18
3.50245e-18
3.48712e-18
3.46711e-18
3.44297e-18
3.41567e-18
3.38694e-18
3.35898e-18
3.33455e-18
3.31624e-18
3.30644e-18
8.89412e-18
8.92051e-18
8.9699e-18
9.0358e-18
9.11119e-18
9.18879e-18
9.26228e-18
9.32763e-18
9.38146e-18
9.42285e-18
9.45143e-18
9.46781e-18
9.47338e-18
9.4695e-18
9.45785e-18
9.43997e-18
9.41731e-18
9.39134e-18
9.36335e-18
9.3343e-18
9.30534e-18
9.27716e-18
9.25042e-18
9.2259e-18
9.20408e-18
9.18539e-18
9.16996e-18
9.15812e-18
9.15015e-18
9.14611e-18
9.14611e-18
9.15011e-18
9.15817e-18
9.16991e-18
9.18528e-18
9.20412e-18
9.22593e-18
9.25044e-18
9.2771e-18
9.30526e-18
9.33433e-18
9.36331e-18
9.39138e-18
9.41732e-18
9.43986e-18
9.45789e-18
9.46953e-18
9.4734e-18
9.46786e-18
9.45136e-18
9.42284e-18
9.3816e-18
9.32751e-18
9.2623e-18
9.18875e-18
9.11121e-18
9.03592e-18
8.96986e-18
8.92066e-18
8.8941e-18
2.36134e-17
2.36842e-17
2.38153e-17
2.39913e-17
2.41919e-17
2.43985e-17
2.45945e-17
2.47679e-17
2.4912e-17
2.50223e-17
2.50986e-17
2.51427e-17
2.51578e-17
2.51473e-17
2.51162e-17
2.50683e-17
2.50085e-17
2.49389e-17
2.4864e-17
2.47867e-17
2.47097e-17
2.46343e-17
2.45635e-17
2.44979e-17
2.44397e-17
2.43894e-17
2.43482e-17
2.43171e-17
2.4296e-17
2.42851e-17
2.42853e-17
2.42958e-17
2.43169e-17
2.43483e-17
2.43895e-17
2.44396e-17
2.4498e-17
2.45633e-17
2.46343e-17
2.47097e-17
2.47867e-17
2.48641e-17
2.4939e-17
2.5008e-17
2.50686e-17
2.51161e-17
2.51475e-17
2.51579e-17
2.51427e-17
2.50986e-17
2.50221e-17
2.4912e-17
2.47685e-17
2.45945e-17
2.43983e-17
2.4192e-17
2.39912e-17
2.38155e-17
2.36839e-17
2.36136e-17
6.14538e-17
6.16386e-17
6.19817e-17
6.24415e-17
6.29671e-17
6.35064e-17
6.40196e-17
6.44753e-17
6.48516e-17
6.51399e-17
6.53403e-17
6.54547e-17
6.54936e-17
6.5467e-17
6.53863e-17
6.52613e-17
6.5103e-17
6.49238e-17
6.47278e-17
6.45252e-17
6.43219e-17
6.41262e-17
6.39395e-17
6.37691e-17
6.36157e-17
6.34854e-17
6.33772e-17
6.32949e-17
6.32393e-17
6.32114e-17
6.32117e-17
6.32397e-17
6.32943e-17
6.33773e-17
6.34853e-17
6.36163e-17
6.3769e-17
6.39404e-17
6.41262e-17
6.43218e-17
6.45252e-17
6.47274e-17
6.49219e-17
6.51041e-17
6.52612e-17
6.53865e-17
6.54671e-17
6.54937e-17
6.5455e-17
6.53395e-17
6.51398e-17
6.48508e-17
6.44741e-17
6.40197e-17
6.35072e-17
6.29667e-17
6.24418e-17
6.1982e-17
6.16384e-17
6.14538e-17
1.55494e-16
1.55962e-16
1.56838e-16
1.58012e-16
1.59348e-16
1.60724e-16
1.62031e-16
1.63189e-16
1.64148e-16
1.64883e-16
1.65392e-16
1.65688e-16
1.6579e-16
1.65724e-16
1.65514e-16
1.65198e-16
1.64796e-16
1.64333e-16
1.63836e-16
1.63322e-16
1.62806e-16
1.62304e-16
1.61831e-16
1.61393e-16
1.61005e-16
1.6067e-16
1.60395e-16
1.60185e-16
1.60042e-16
1.59971e-16
1.59971e-16
1.60043e-16
1.60186e-16
1.60395e-16
1.60671e-16
1.61004e-16
1.61392e-16
1.61828e-16
1.62304e-16
1.62806e-16
1.63321e-16
1.63835e-16
1.64336e-16
1.64796e-16
1.65199e-16
1.65514e-16
1.65722e-16
1.6579e-16
1.65687e-16
1.65393e-16
1.64883e-16
1.64149e-16
1.6319e-16
1.62033e-16
1.60724e-16
1.59349e-16
1.58011e-16
1.56838e-16
1.55962e-16
1.55495e-16
3.78901e-16
3.80058e-16
3.82212e-16
3.85084e-16
3.88379e-16
3.91759e-16
3.94966e-16
3.9782e-16
4.00174e-16
4.01984e-16
4.03236e-16
4.03959e-16
4.04207e-16
4.04044e-16
4.03538e-16
4.02762e-16
4.01772e-16
4.00641e-16
3.99413e-16
3.98147e-16
3.96882e-16
3.95645e-16
3.9448e-16
3.93407e-16
3.92453e-16
3.91624e-16
3.90958e-16
3.90437e-16
3.90087e-16
3.89918e-16
3.89916e-16
3.90094e-16
3.90436e-16
3.90947e-16
3.91623e-16
3.92449e-16
3.93409e-16
3.94481e-16
3.95646e-16
3.96879e-16
3.98146e-16
3.99414e-16
4.00638e-16
4.01765e-16
4.02755e-16
4.03541e-16
4.04044e-16
4.04203e-16
4.03964e-16
4.03238e-16
4.01985e-16
4.00173e-16
3.97818e-16
3.9497e-16
3.9176e-16
3.88377e-16
3.85089e-16
3.82209e-16
3.80059e-16
3.78907e-16
8.803e-16
8.82996e-16
8.88051e-16
8.9482e-16
9.02506e-16
9.10449e-16
9.1799e-16
9.24655e-16
9.30179e-16
9.34436e-16
9.3737e-16
9.39077e-16
9.39665e-16
9.39267e-16
9.38082e-16
9.36255e-16
9.33951e-16
9.31302e-16
9.28425e-16
9.25454e-16
9.22458e-16
9.19588e-16
9.16852e-16
9.14322e-16
9.12076e-16
9.10163e-16
9.08561e-16
9.07362e-16
9.06539e-16
9.06108e-16
9.06118e-16
9.0653e-16
9.07367e-16
9.08576e-16
9.10153e-16
9.12087e-16
9.14326e-16
9.16847e-16
9.19573e-16
9.22483e-16
9.25443e-16
9.28423e-16
9.31307e-16
9.33969e-16
9.36262e-16
9.38088e-16
9.39285e-16
9.39665e-16
9.39069e-16
9.37362e-16
9.3443e-16
9.30187e-16
9.24641e-16
9.17988e-16
9.10441e-16
9.02513e-16
8.94801e-16
8.88053e-16
8.83016e-16
8.80289e-16
1.93251e-15
1.93854e-15
1.94968e-15
1.96459e-15
1.98167e-15
1.99922e-15
2.0159e-15
2.03066e-15
2.04293e-15
2.05234e-15
2.05883e-15
2.06267e-15
2.06395e-15
2.0631e-15
2.06049e-15
2.05643e-15
2.05129e-15
2.04543e-15
2.03909e-15
2.0325e-15
2.02591e-15
2.0195e-15
2.01345e-15
2.0079e-15
2.00292e-15
1.99864e-15
1.99512e-15
1.99244e-15
1.99063e-15
1.98973e-15
1.9897e-15
1.9906e-15
1.99239e-15
1.99513e-15
1.99865e-15
2.00289e-15
2.00789e-15
2.01346e-15
2.01954e-15
2.0259e-15
2.03252e-15
2.03909e-15
2.04544e-15
2.05128e-15
2.05644e-15
2.06044e-15
2.06309e-15
2.06392e-15
2.06266e-15
2.05886e-15
2.05236e-15
2.04291e-15
2.0307e-15
2.01588e-15
1.99925e-15
1.98171e-15
1.96463e-15
1.94968e-15
1.93849e-15
1.93257e-15
3.97832e-15
3.9907e-15
4.01377e-15
4.04467e-15
4.0799e-15
4.11612e-15
4.15046e-15
4.18107e-15
4.20639e-15
4.22581e-15
4.23918e-15
4.24701e-15
4.24973e-15
4.24806e-15
4.24282e-15
4.23446e-15
4.22385e-15
4.21172e-15
4.19857e-15
4.18507e-15
4.17138e-15
4.15824e-15
4.1457e-15
4.13401e-15
4.12379e-15
4.11486e-15
4.10756e-15
4.10203e-15
4.09832e-15
4.09645e-15
4.09646e-15
4.09841e-15
4.10207e-15
4.10755e-15
4.11493e-15
4.12378e-15
4.13402e-15
4.14555e-15
4.1581e-15
4.17138e-15
4.18497e-15
4.19851e-15
4.2117e-15
4.22397e-15
4.23437e-15
4.24285e-15
4.24814e-15
4.24979e-15
4.24706e-15
4.23933e-15
4.22571e-15
4.20639e-15
4.18107e-15
4.15057e-15
4.116e-15
4.07981e-15
4.04459e-15
4.01382e-15
3.99076e-15
3.97825e-15
7.52587e-15
7.54887e-15
7.59244e-15
7.65031e-15
7.71687e-15
7.78526e-15
7.85021e-15
7.90781e-15
7.95537e-15
7.99211e-15
8.0181e-15
8.03295e-15
8.03826e-15
8.03506e-15
8.02475e-15
8.00927e-15
7.98948e-15
7.96636e-15
7.94158e-15
7.91563e-15
7.89039e-15
7.86524e-15
7.84154e-15
7.81997e-15
7.80028e-15
7.78339e-15
7.76992e-15
7.75933e-15
7.75213e-15
7.74861e-15
7.74845e-15
7.7518e-15
7.75922e-15
7.76969e-15
7.78337e-15
7.79983e-15
7.81955e-15
7.84144e-15
7.86523e-15
7.89018e-15
7.91618e-15
7.94201e-15
7.96647e-15
7.98901e-15
8.00943e-15
8.02479e-15
8.03473e-15
8.03825e-15
8.03298e-15
8.01763e-15
7.99269e-15
7.95553e-15
7.90775e-15
7.84997e-15
7.78538e-15
7.71666e-15
7.65031e-15
7.5922e-15
7.54897e-15
7.5258e-15
1.18615e-14
1.18987e-14
1.19673e-14
1.20599e-14
1.21643e-14
1.22713e-14
1.23752e-14
1.24675e-14
1.25433e-14
1.26038e-14
1.26442e-14
1.26672e-14
1.26769e-14
1.26716e-14
1.26569e-14
1.26308e-14
1.25997e-14
1.25634e-14
1.25241e-14
1.24838e-14
1.24416e-14
1.24011e-14
1.23635e-14
1.23284e-14
1.22979e-14
1.22712e-14
1.22495e-14
1.22322e-14
1.22211e-14
1.22148e-14
1.22153e-14
1.22215e-14
1.22325e-14
1.22487e-14
1.2271e-14
1.2299e-14
1.2329e-14
1.23646e-14
1.24016e-14
1.24413e-14
1.24826e-14
1.25232e-14
1.25639e-14
1.25998e-14
1.26314e-14
1.26562e-14
1.26718e-14
1.26762e-14
1.26673e-14
1.26446e-14
1.26018e-14
1.25441e-14
1.24674e-14
1.23758e-14
1.2273e-14
1.21647e-14
1.20597e-14
1.1968e-14
1.18988e-14
1.18613e-14
9.58842e-15
9.62014e-15
9.68158e-15
9.76427e-15
9.85908e-15
9.95815e-15
1.00489e-14
1.01294e-14
1.02016e-14
1.02546e-14
1.02926e-14
1.03171e-14
1.03251e-14
1.03231e-14
1.03062e-14
1.0285e-14
1.02576e-14
1.02238e-14
1.01886e-14
1.01514e-14
1.01141e-14
1.00788e-14
1.00449e-14
1.00133e-14
9.98109e-15
9.95817e-15
9.93695e-15
9.92189e-15
9.91073e-15
9.90765e-15
9.90496e-15
9.91224e-15
9.92248e-15
9.93953e-15
9.96009e-15
9.98181e-15
1.0012e-14
1.00436e-14
1.00804e-14
1.01148e-14
1.01537e-14
1.01917e-14
1.02235e-14
1.02574e-14
1.02857e-14
1.03095e-14
1.03231e-14
1.03254e-14
1.03175e-14
1.02932e-14
1.02548e-14
1.02027e-14
1.01331e-14
1.00482e-14
9.95454e-15
9.85807e-15
9.76484e-15
9.6827e-15
9.6213e-15
9.58826e-15
-1.78277e-14
-1.78749e-14
-1.79686e-14
-1.80805e-14
-1.82066e-14
-1.83385e-14
-1.84608e-14
-1.85682e-14
-1.86599e-14
-1.87251e-14
-1.87745e-14
-1.87962e-14
-1.88096e-14
-1.88002e-14
-1.87748e-14
-1.87408e-14
-1.8706e-14
-1.8657e-14
-1.86177e-14
-1.8565e-14
-1.85236e-14
-1.84801e-14
-1.84336e-14
-1.83947e-14
-1.83541e-14
-1.83252e-14
-1.82989e-14
-1.82816e-14
-1.82635e-14
-1.8261e-14
-1.82579e-14
-1.82674e-14
-1.82799e-14
-1.82945e-14
-1.83291e-14
-1.83541e-14
-1.83942e-14
-1.84331e-14
-1.84807e-14
-1.8521e-14
-1.85755e-14
-1.86213e-14
-1.86614e-14
-1.87077e-14
-1.87472e-14
-1.87789e-14
-1.87979e-14
-1.88035e-14
-1.87997e-14
-1.87739e-14
-1.87212e-14
-1.86606e-14
-1.85724e-14
-1.84607e-14
-1.83353e-14
-1.82034e-14
-1.80779e-14
-1.79658e-14
-1.78788e-14
-1.78296e-14
-5.911e-14
-5.92962e-14
-5.96351e-14
-6.01189e-14
-6.06614e-14
-6.12258e-14
-6.17413e-14
-6.2202e-14
-6.25952e-14
-6.28982e-14
-6.3087e-14
-6.32139e-14
-6.32518e-14
-6.32364e-14
-6.31583e-14
-6.30306e-14
-6.28737e-14
-6.26934e-14
-6.24797e-14
-6.22782e-14
-6.20567e-14
-6.18498e-14
-6.16757e-14
-6.14857e-14
-6.13256e-14
-6.11954e-14
-6.10798e-14
-6.09971e-14
-6.09504e-14
-6.09217e-14
-6.09184e-14
-6.09388e-14
-6.10039e-14
-6.10906e-14
-6.11981e-14
-6.13383e-14
-6.14859e-14
-6.16713e-14
-6.1857e-14
-6.20698e-14
-6.22652e-14
-6.24757e-14
-6.26866e-14
-6.28624e-14
-6.30265e-14
-6.31542e-14
-6.32348e-14
-6.32622e-14
-6.32139e-14
-6.30897e-14
-6.28904e-14
-6.25882e-14
-6.2203e-14
-6.17395e-14
-6.12092e-14
-6.06649e-14
-6.01136e-14
-5.96483e-14
-5.9294e-14
-5.91023e-14
-1.20074e-15
-1.26691e-15
-1.41408e-15
-1.58011e-15
-1.76676e-15
-1.95289e-15
-2.15102e-15
-2.34603e-15
-2.48895e-15
-2.58814e-15
-2.69025e-15
-2.73849e-15
-2.76662e-15
-2.76025e-15
-2.73065e-15
-2.69352e-15
-2.61456e-15
-2.54009e-15
-2.48579e-15
-2.39863e-15
-2.3343e-15
-2.26202e-15
-2.15223e-15
-2.09322e-15
-2.03443e-15
-1.97652e-15
-1.95077e-15
-1.91057e-15
-1.89006e-15
-1.86329e-15
-1.86627e-15
-1.90124e-15
-1.89634e-15
-1.94223e-15
-1.99275e-15
-2.03335e-15
-2.12968e-15
-2.1733e-15
-2.24331e-15
-2.3217e-15
-2.38686e-15
-2.48946e-15
-2.56476e-15
-2.62932e-15
-2.67861e-15
-2.73119e-15
-2.78346e-15
-2.76414e-15
-2.7488e-15
-2.68487e-15
-2.60965e-15
-2.49023e-15
-2.33834e-15
-2.17531e-15
-1.97546e-15
-1.75114e-15
-1.57959e-15
-1.39402e-15
-1.25788e-15
-1.20161e-15
1.72357e-13
1.72859e-13
1.73831e-13
1.7512e-13
1.76551e-13
1.78035e-13
1.79392e-13
1.80727e-13
1.81708e-13
1.82481e-13
1.83025e-13
1.83314e-13
1.83438e-13
1.83386e-13
1.83135e-13
1.82807e-13
1.8232e-13
1.81865e-13
1.81354e-13
1.8077e-13
1.80229e-13
1.79708e-13
1.79129e-13
1.78735e-13
1.78297e-13
1.77955e-13
1.77662e-13
1.77426e-13
1.77302e-13
1.77184e-13
1.77182e-13
1.7728e-13
1.77425e-13
1.777e-13
1.7796e-13
1.78311e-13
1.78739e-13
1.79206e-13
1.7967e-13
1.80215e-13
1.80742e-13
1.81339e-13
1.81889e-13
1.82361e-13
1.82804e-13
1.83164e-13
1.83417e-13
1.83467e-13
1.83347e-13
1.83026e-13
1.82485e-13
1.81702e-13
1.80692e-13
1.79439e-13
1.78051e-13
1.76571e-13
1.75097e-13
1.73797e-13
1.72864e-13
1.72359e-13
1.48355e-13
1.48998e-13
1.50141e-13
1.51633e-13
1.53378e-13
1.55117e-13
1.56901e-13
1.58223e-13
1.59526e-13
1.60539e-13
1.61143e-13
1.61582e-13
1.61742e-13
1.61577e-13
1.61359e-13
1.60918e-13
1.60519e-13
1.59841e-13
1.59145e-13
1.58592e-13
1.57914e-13
1.57214e-13
1.56666e-13
1.55991e-13
1.55573e-13
1.55119e-13
1.54766e-13
1.54453e-13
1.54254e-13
1.54206e-13
1.54248e-13
1.54296e-13
1.54458e-13
1.54757e-13
1.55091e-13
1.55544e-13
1.56064e-13
1.56601e-13
1.57302e-13
1.57872e-13
1.58603e-13
1.59171e-13
1.59833e-13
1.60444e-13
1.60974e-13
1.61343e-13
1.61616e-13
1.6166e-13
1.61553e-13
1.61153e-13
1.60532e-13
1.59557e-13
1.58245e-13
1.568e-13
1.55191e-13
1.53368e-13
1.51629e-13
1.50142e-13
1.49032e-13
1.48392e-13
-9.00335e-14
-9.0223e-14
-9.059e-14
-9.1029e-14
-9.15152e-14
-9.19128e-14
-9.24349e-14
-9.26507e-14
-9.29909e-14
-9.34559e-14
-9.33657e-14
-9.35538e-14
-9.36898e-14
-9.34319e-14
-9.34663e-14
-9.33506e-14
-9.32122e-14
-9.29792e-14
-9.2809e-14
-9.28176e-14
-9.26572e-14
-9.24142e-14
-9.22165e-14
-9.19456e-14
-9.19729e-14
-9.18536e-14
-9.17895e-14
-9.16757e-14
-9.16323e-14
-9.15919e-14
-9.16187e-14
-9.16465e-14
-9.16241e-14
-9.17717e-14
-9.17761e-14
-9.20032e-14
-9.21955e-14
-9.21174e-14
-9.241e-14
-9.25651e-14
-9.27121e-14
-9.285e-14
-9.29756e-14
-9.31862e-14
-9.34073e-14
-9.34097e-14
-9.35243e-14
-9.35612e-14
-9.35998e-14
-9.34366e-14
-9.33226e-14
-9.30632e-14
-9.26427e-14
-9.22955e-14
-9.20596e-14
-9.14381e-14
-9.09811e-14
-9.05096e-14
-9.02965e-14
-9.00459e-14
-1.45072e-13
-1.45689e-13
-1.46447e-13
-1.47845e-13
-1.49379e-13
-1.50913e-13
-1.52372e-13
-1.53529e-13
-1.54634e-13
-1.55223e-13
-1.5596e-13
-1.56249e-13
-1.56156e-13
-1.56458e-13
-1.56107e-13
-1.55659e-13
-1.55372e-13
-1.54973e-13
-1.54326e-13
-1.53525e-13
-1.53071e-13
-1.5255e-13
-1.52065e-13
-1.51767e-13
-1.51129e-13
-1.50752e-13
-1.50522e-13
-1.50199e-13
-1.50054e-13
-1.50082e-13
-1.49962e-13
-1.50111e-13
-1.50286e-13
-1.50535e-13
-1.50892e-13
-1.51092e-13
-1.51472e-13
-1.52195e-13
-1.52579e-13
-1.53049e-13
-1.53582e-13
-1.54268e-13
-1.54759e-13
-1.55302e-13
-1.55662e-13
-1.56131e-13
-1.56297e-13
-1.56412e-13
-1.56206e-13
-1.5603e-13
-1.55406e-13
-1.54535e-13
-1.53593e-13
-1.52336e-13
-1.50879e-13
-1.49412e-13
-1.47758e-13
-1.4664e-13
-1.45521e-13
-1.45082e-13
-3.96059e-14
-3.96909e-14
-4.02365e-14
-4.04777e-14
-4.09659e-14
-4.16633e-14
-4.23557e-14
-4.30366e-14
-4.3495e-14
-4.36665e-14
-4.38722e-14
-4.3872e-14
-4.41166e-14
-4.38274e-14
-4.40062e-14
-4.38682e-14
-4.36244e-14
-4.3207e-14
-4.3022e-14
-4.31536e-14
-4.26462e-14
-4.2334e-14
-4.22913e-14
-4.19017e-14
-4.20098e-14
-4.18067e-14
-4.14634e-14
-4.16672e-14
-4.16109e-14
-4.15003e-14
-4.18441e-14
-4.14706e-14
-4.14272e-14
-4.14536e-14
-4.17403e-14
-4.19604e-14
-4.20688e-14
-4.22188e-14
-4.25055e-14
-4.27336e-14
-4.31378e-14
-4.31921e-14
-4.34905e-14
-4.36641e-14
-4.37947e-14
-4.39234e-14
-4.40606e-14
-4.39203e-14
-4.39626e-14
-4.35653e-14
-4.36525e-14
-4.34601e-14
-4.28943e-14
-4.23714e-14
-4.17198e-14
-4.12197e-14
-4.07475e-14
-4.00873e-14
-3.96918e-14
-3.96217e-14
8.70234e-15
8.81014e-15
8.97393e-15
8.51612e-15
8.68667e-15
8.81619e-15
9.051e-15
9.12183e-15
9.133e-15
8.91502e-15
8.8303e-15
8.78844e-15
8.69134e-15
8.81632e-15
9.17515e-15
8.86322e-15
8.90338e-15
8.71908e-15
8.89897e-15
9.06056e-15
8.76748e-15
8.76673e-15
8.85731e-15
8.81544e-15
9.02415e-15
8.79377e-15
8.72372e-15
9.01313e-15
9.08614e-15
8.94336e-15
9.39732e-15
8.74674e-15
8.71593e-15
8.58137e-15
8.85521e-15
8.89806e-15
8.97332e-15
9.02972e-15
8.98304e-15
8.90793e-15
9.15892e-15
8.81801e-15
9.01278e-15
9.04802e-15
8.85067e-15
9.01397e-15
9.13142e-15
8.86002e-15
9.01145e-15
8.73391e-15
8.97564e-15
9.14681e-15
8.94798e-15
8.87763e-15
8.8939e-15
8.89783e-15
8.71446e-15
8.79135e-15
8.81465e-15
8.83564e-15
1.25335e-15
1.37514e-15
9.47487e-16
1.46232e-15
1.34784e-15
1.38269e-15
1.12323e-15
1.19715e-15
1.37571e-15
1.41514e-15
1.23403e-15
1.50651e-15
1.44031e-15
1.49083e-15
1.00159e-15
1.54154e-15
1.41339e-15
1.39647e-15
1.24736e-15
1.38405e-15
1.36329e-15
1.06004e-15
1.37749e-15
1.36079e-15
9.96605e-16
1.26637e-15
1.17681e-15
1.26411e-15
1.17687e-15
1.37505e-15
8.9561e-16
1.47867e-15
1.25529e-15
1.37134e-15
1.19731e-15
1.25253e-15
1.14097e-15
1.25547e-15
1.27115e-15
1.24948e-15
1.05431e-15
1.72662e-15
1.20119e-15
1.35051e-15
1.31951e-15
1.38329e-15
1.13022e-15
1.17978e-15
1.26282e-15
1.34723e-15
1.38791e-15
1.13469e-15
1.06589e-15
1.30764e-15
1.13797e-15
1.33066e-15
1.63846e-15
1.28609e-15
1.29456e-15
1.23701e-15
-6.57733e-15
-6.74779e-15
-6.2231e-15
-6.59123e-15
-6.80038e-15
-6.65804e-15
-6.75547e-15
-6.73562e-15
-7.17045e-15
-6.75664e-15
-7.04132e-15
-7.27155e-15
-6.9408e-15
-6.97453e-15
-6.48338e-15
-7.22788e-15
-7.11585e-15
-6.8915e-15
-6.82406e-15
-6.88513e-15
-6.65838e-15
-6.69464e-15
-6.79779e-15
-6.99483e-15
-6.65663e-15
-6.71395e-15
-6.63445e-15
-6.90282e-15
-6.76503e-15
-6.9921e-15
-6.64334e-15
-6.99391e-15
-6.80116e-15
-6.89772e-15
-6.75962e-15
-6.61688e-15
-6.78443e-15
-6.71787e-15
-6.67989e-15
-6.69735e-15
-7.01008e-15
-7.24343e-15
-6.82471e-15
-7.23844e-15
-6.8107e-15
-7.22036e-15
-6.84238e-15
-6.66738e-15
-7.09846e-15
-6.78956e-15
-7.01808e-15
-6.86906e-15
-6.38683e-15
-6.73063e-15
-6.68259e-15
-6.60416e-15
-6.85562e-15
-7.00709e-15
-6.49653e-15
-6.60193e-15
-5.45115e-15
-5.6177e-15
-5.88792e-15
-5.78179e-15
-5.88498e-15
-5.74781e-15
-6.18639e-15
-6.22537e-15
-5.81321e-15
-6.1266e-15
-5.88044e-15
-5.91669e-15
-6.23527e-15
-6.40626e-15
-6.84381e-15
-6.15201e-15
-6.15447e-15
-6.20145e-15
-5.84196e-15
-6.258e-15
-6.12075e-15
-5.93079e-15
-5.73163e-15
-5.95917e-15
-6.0744e-15
-5.91283e-15
-5.94579e-15
-6.0232e-15
-6.02333e-15
-5.68022e-15
-6.01944e-15
-6.20931e-15
-5.77387e-15
-5.56448e-15
-6.3393e-15
-6.05752e-15
-5.94751e-15
-6.15649e-15
-5.90921e-15
-6.12481e-15
-6.01679e-15
-5.95224e-15
-6.35052e-15
-5.91661e-15
-6.39932e-15
-5.68796e-15
-6.2709e-15
-6.18193e-15
-5.82887e-15
-6.3105e-15
-5.95758e-15
-6.09305e-15
-6.49246e-15
-6.08613e-15
-5.85152e-15
-6.02013e-15
-5.94246e-15
-5.51919e-15
-5.84482e-15
-5.9543e-15
-3.21391e-15
-2.9208e-15
-2.94344e-15
-2.99842e-15
-3.04321e-15
-3.59793e-15
-2.74333e-15
-2.98408e-15
-3.51891e-15
-3.46738e-15
-3.22323e-15
-3.44478e-15
-3.06514e-15
-3.04242e-15
-2.93579e-15
-3.20298e-15
-3.45045e-15
-3.22179e-15
-3.68209e-15
-3.09472e-15
-3.03869e-15
-3.32594e-15
-3.58996e-15
-2.71974e-15
-3.03015e-15
-3.18897e-15
-3.08494e-15
-2.73597e-15
-3.05056e-15
-3.28083e-15
-2.77236e-15
-2.82095e-15
-3.16638e-15
-3.29252e-15
-2.86997e-15
-3.06125e-15
-3.14872e-15
-2.99211e-15
-3.33244e-15
-3.54145e-15
-3.05277e-15
-3.15254e-15
-2.94299e-15
-3.54968e-15
-3.03922e-15
-3.43513e-15
-3.57392e-15
-3.48753e-15
-3.5936e-15
-3.1719e-15
-3.16546e-15
-3.11468e-15
-2.67307e-15
-2.78213e-15
-3.21753e-15
-2.88189e-15
-2.95121e-15
-2.87604e-15
-2.53229e-15
-2.93976e-15
-1.21195e-15
-1.37347e-15
-1.05286e-15
-1.23614e-15
-1.19747e-15
-7.50094e-16
-1.54715e-15
-1.44105e-15
-9.98875e-16
-7.94434e-16
-1.49218e-15
-1.1592e-15
-1.68123e-15
-1.12343e-15
-8.4368e-16
-1.3182e-15
-1.08048e-15
-9.92873e-16
-8.86147e-16
-1.34593e-15
-1.21929e-15
-1.38383e-15
-9.48541e-16
-1.59192e-15
-1.065e-15
-1.01174e-15
-1.04768e-15
-1.07578e-15
-9.6403e-16
-8.69059e-16
-1.31053e-15
-1.27011e-15
-1.06044e-15
-1.13255e-15
-1.18108e-15
-8.63463e-16
-1.0951e-15
-9.3508e-16
-7.55415e-16
-8.46812e-16
-1.6155e-15
-1.43486e-15
-1.05157e-15
-8.17515e-16
-1.27016e-15
-1.10106e-15
-1.0331e-15
-8.42796e-16
-1.15974e-15
-1.48656e-15
-1.326e-15
-1.44002e-15
-1.51675e-15
-1.6373e-15
-9.89221e-16
-1.13465e-15
-1.19307e-15
-1.48803e-15
-1.53766e-15
-9.20651e-16
3.74008e-16
1.28917e-16
-3.95477e-16
-2.7504e-16
5.75135e-17
-4.15213e-16
-2.71284e-16
1.11631e-16
-4.36612e-16
-4.73155e-16
2.47116e-16
3.61847e-17
4.69235e-17
-8.42484e-16
-7.97859e-16
-8.11073e-17
-3.5258e-16
-3.93383e-16
-9.53417e-17
-4.23178e-18
-4.47691e-16
1.41558e-16
-2.82994e-16
-1.31287e-16
-3.71564e-16
-8.77677e-17
-4.11664e-16
-3.94136e-16
-3.42064e-16
-5.5317e-16
-4.5769e-16
1.04721e-16
-3.69716e-18
-3.89237e-16
-1.4756e-17
-7.00591e-16
1.89624e-16
-1.37091e-16
-2.98117e-16
-3.33753e-16
1.48022e-16
-1.13881e-16
-8.83662e-16
-6.73589e-16
-4.12685e-16
-2.55322e-16
1.89059e-17
-4.11852e-16
-2.62803e-16
-1.08406e-16
1.66825e-16
-1.62249e-16
-4.16987e-16
-3.85429e-16
-2.05115e-16
-5.04484e-16
-1.02565e-16
-4.84018e-16
5.09543e-20
-2.58226e-16
-3.43102e-16
4.03323e-16
2.18951e-18
5.62207e-17
-4.1238e-16
3.81791e-16
7.85161e-16
-2.36173e-17
1.0375e-16
1.19233e-16
-3.71873e-16
5.41403e-17
-3.69413e-16
5.6964e-16
-1.24401e-16
2.4258e-16
4.04599e-16
-8.0054e-17
-1.10954e-16
1.62131e-16
2.07338e-16
-1.52759e-16
1.21796e-18
-6.907e-17
3.49033e-16
-2.63402e-16
2.07637e-16
3.01366e-16
1.44963e-18
1.08639e-16
5.90275e-16
-1.10905e-16
-1.7344e-17
2.63047e-16
-2.7523e-16
2.74562e-16
-2.86254e-16
-5.83274e-16
5.61628e-16
3.88916e-16
-2.03159e-17
-3.64287e-16
8.72e-16
-2.94807e-16
4.00597e-16
3.6851e-16
-4.95064e-17
3.65984e-16
-3.0131e-16
2.36177e-16
-1.48127e-16
-1.75087e-16
1.01342e-16
1.83645e-16
5.28765e-16
5.52432e-16
8.89349e-17
6.39538e-16
1.42545e-16
-8.5777e-17
2.79369e-16
-2.71329e-16
4.14067e-16
3.92778e-16
9.00905e-16
1.9135e-16
-3.39564e-16
6.55666e-16
-6.67611e-17
4.60291e-16
8.12042e-16
-8.9292e-17
3.19735e-16
-9.3958e-17
7.85133e-16
-4.04269e-17
1.46195e-18
2.37168e-16
-1.52396e-17
5.50226e-18
-1.72499e-16
7.11308e-17
-1.73995e-16
3.06836e-16
4.33539e-17
4.09184e-16
-5.51809e-18
1.4471e-16
8.26983e-16
3.15437e-16
-2.93661e-16
5.6633e-16
5.0162e-16
4.52428e-16
4.85575e-16
3.95329e-16
6.96875e-16
8.2215e-16
2.62656e-17
-2.41419e-17
2.38521e-16
5.57463e-16
-6.98685e-17
9.06907e-16
2.1274e-16
-4.26138e-16
2.16233e-16
2.43705e-16
1.04929e-15
4.49711e-16
5.41481e-16
1.42891e-16
1.36186e-16
4.96764e-16
-1.34721e-16
-2.23335e-16
4.14268e-16
5.29642e-17
-8.27352e-16
3.16416e-16
4.76913e-16
4.3503e-16
5.57559e-16
-1.8879e-16
-5.33216e-17
-5.21386e-18
1.37043e-16
-2.21598e-16
2.29854e-16
1.97147e-16
1.55997e-16
2.72412e-16
6.12819e-16
-4.87337e-17
-1.39825e-17
6.79092e-16
1.06341e-17
5.06227e-16
5.77288e-16
7.23055e-16
6.65328e-16
2.58149e-16
2.10942e-16
8.96234e-17
-4.0863e-17
3.71375e-16
6.26617e-16
4.08279e-16
2.11084e-16
4.23448e-16
4.84065e-16
-2.49831e-16
-3.84493e-16
1.00636e-16
6.18553e-16
-8.10628e-17
5.84084e-17
4.95224e-16
6.35645e-16
2.96885e-16
4.81485e-16
2.57627e-16
2.76229e-16
-3.74383e-16
1.03369e-16
4.21422e-16
6.75002e-16
5.24275e-16
-1.97963e-16
2.20844e-16
2.64232e-16
1.26662e-15
-2.84915e-16
3.10084e-16
3.57823e-16
1.23057e-17
-3.04361e-16
1.11084e-16
1.26333e-15
3.48537e-16
-2.04834e-18
8.12155e-17
5.8206e-18
9.02737e-16
-9.52207e-17
3.01671e-16
5.39746e-16
6.39869e-16
3.45266e-16
2.86575e-17
4.38489e-16
-9.34686e-17
-3.5261e-16
6.49021e-16
5.52733e-17
-1.66606e-16
6.66245e-16
3.58893e-16
-9.20891e-17
-1.22438e-17
-1.1281e-16
1.23509e-16
-3.16034e-17
3.02491e-16
3.12424e-16
1.80129e-16
4.19483e-16
1.24387e-16
-1.2158e-16
2.11486e-16
-1.41663e-16
3.29075e-16
7.54093e-16
-3.09201e-16
1.44199e-16
1.68108e-16
7.8017e-16
-1.84769e-16
7.24908e-16
1.00633e-17
-4.84715e-16
1.22338e-16
1.07554e-16
8.61945e-16
6.33367e-17
4.22009e-16
2.75599e-16
-3.85445e-16
6.86308e-16