/*--------------------------------*- C++ -*----------------------------------*\
| =========                 |                                                 |
| \\      /  F ield         | foam-extend: Open Source CFD                    |
|  \\    /   O peration     | Version:     4.0                                |
|   \\  /    A nd           | Web:         http://www.foam-extend.org         |
|    \\/     M anipulation  |                                                 |
\*---------------------------------------------------------------------------*/
FoamFile
{
    version     2.0;
    format      ascii;
    class       volScalarField;
    location    "31";
    object      p;
}
// * * * * * * * * * * * * * * * * * * * * * * * * * * * * * * * * * * * * * //

dimensions      [0 2 -2 0 0 0 0];

internalField   nonuniform List<scalar> 
6960
(
1.70751e-07
7.80723
-1.97472
-14.7441
-28.9649
-43.2549
-56.5339
-68.07
-77.4528
-84.5313
-89.3433
-92.0512
-92.8896
-92.1278
-90.0438
-86.9083
-82.975
-78.4763
-73.6211
-68.5954
-63.5628
-58.6659
-54.0281
-49.7552
-45.9362
-42.6455
-39.943
-37.876
-36.479
-35.7748
-35.7747
-36.4788
-37.8757
-39.9426
-42.645
-45.9356
-49.7545
-54.0274
-58.6651
-63.562
-68.5946
-73.6203
-78.4755
-82.9743
-86.9076
-90.0432
-92.1272
-92.8891
-92.0508
-89.3431
-84.5312
-77.4529
-68.0703
-56.5343
-43.2555
-28.9656
-14.7449
-1.97567
7.80622
-0.0010426
-554681
-554704
-554719
-554739
-554761
-554783
-554804
-554822
-554836
-554847
-554855
-554859
-554860
-554859
-554856
-554851
-554845
-554838
-554830
-554823
-554815
-554807
-554800
-554793
-554787
-554782
-554778
-554775
-554772
-554771
-554771
-554772
-554775
-554778
-554782
-554787
-554793
-554800
-554807
-554815
-554823
-554830
-554838
-554845
-554851
-554856
-554859
-554860
-554859
-554855
-554847
-554836
-554822
-554804
-554783
-554761
-554739
-554719
-554704
-554681
-754920
-754933
-754951
-754974
-755000
-755026
-755050
-755071
-755088
-755101
-755110
-755115
-755116
-755115
-755111
-755105
-755098
-755090
-755081
-755072
-755063
-755054
-755046
-755038
-755031
-755025
-755020
-755016
-755014
-755012
-755012
-755014
-755016
-755020
-755025
-755031
-755038
-755046
-755054
-755063
-755072
-755081
-755090
-755098
-755105
-755111
-755115
-755116
-755115
-755110
-755101
-755088
-755071
-755050
-755026
-755000
-754974
-754951
-754933
-754920
-774288
-774294
-774312
-774336
-774362
-774389
-774413
-774435
-774453
-774466
-774475
-774480
-774482
-774480
-774476
-774471
-774463
-774455
-774446
-774436
-774427
-774418
-774409
-774401
-774394
-774388
-774383
-774379
-774376
-774375
-774375
-774376
-774379
-774383
-774388
-774394
-774401
-774409
-774418
-774427
-774436
-774446
-774455
-774463
-774471
-774476
-774480
-774482
-774480
-774475
-774466
-774453
-774435
-774413
-774389
-774362
-774336
-774312
-774294
-774288
-777457
-777465
-777482
-777505
-777531
-777557
-777582
-777603
-777620
-777633
-777642
-777647
-777649
-777647
-777644
-777638
-777631
-777622
-777613
-777604
-777595
-777586
-777577
-777570
-777563
-777557
-777552
-777548
-777545
-777544
-777544
-777545
-777548
-777552
-777557
-777563
-777570
-777577
-777586
-777595
-777604
-777613
-777622
-777631
-777638
-777644
-777647
-777649
-777647
-777642
-777633
-777620
-777603
-777582
-777557
-777531
-777505
-777482
-777465
-777457
-790727
-790737
-790754
-790776
-790801
-790826
-790849
-790869
-790886
-790898
-790907
-790912
-790913
-790912
-790908
-790903
-790896
-790888
-790879
-790871
-790862
-790853
-790845
-790837
-790831
-790825
-790820
-790816
-790814
-790813
-790813
-790814
-790816
-790820
-790825
-790831
-790837
-790845
-790853
-790862
-790871
-790879
-790888
-790896
-790903
-790908
-790912
-790913
-790912
-790907
-790898
-790886
-790869
-790849
-790826
-790801
-790776
-790754
-790737
-790727
-805738
-805747
-805763
-805784
-805807
-805831
-805853
-805872
-805887
-805899
-805907
-805912
-805913
-805912
-805909
-805904
-805897
-805890
-805882
-805873
-805865
-805857
-805849
-805842
-805836
-805830
-805826
-805822
-805820
-805819
-805819
-805820
-805822
-805826
-805830
-805836
-805842
-805849
-805857
-805865
-805873
-805882
-805890
-805897
-805904
-805909
-805912
-805913
-805912
-805907
-805899
-805887
-805872
-805853
-805831
-805807
-805784
-805763
-805747
-805738
-819540
-819548
-819563
-819583
-819605
-819627
-819647
-819665
-819680
-819691
-819698
-819703
-819704
-819703
-819700
-819695
-819689
-819682
-819675
-819667
-819659
-819651
-819644
-819637
-819631
-819626
-819622
-819619
-819617
-819616
-819616
-819617
-819619
-819622
-819626
-819631
-819637
-819644
-819651
-819659
-819667
-819675
-819682
-819689
-819695
-819700
-819703
-819704
-819703
-819698
-819691
-819680
-819665
-819647
-819627
-819605
-819583
-819563
-819548
-819540
-832998
-833005
-833019
-833037
-833057
-833077
-833096
-833113
-833126
-833137
-833144
-833148
-833149
-833148
-833145
-833141
-833135
-833129
-833122
-833114
-833107
-833100
-833093
-833087
-833082
-833077
-833073
-833070
-833068
-833067
-833067
-833068
-833070
-833073
-833077
-833082
-833087
-833093
-833100
-833107
-833114
-833122
-833129
-833135
-833141
-833145
-833148
-833149
-833148
-833144
-833137
-833126
-833113
-833096
-833077
-833057
-833037
-833019
-833005
-832998
-846779
-846786
-846799
-846815
-846834
-846852
-846870
-846885
-846897
-846907
-846913
-846917
-846918
-846917
-846915
-846910
-846905
-846899
-846893
-846886
-846880
-846873
-846867
-846861
-846856
-846852
-846848
-846846
-846844
-846843
-846843
-846844
-846846
-846848
-846852
-846856
-846861
-846867
-846873
-846880
-846886
-846893
-846899
-846905
-846910
-846915
-846917
-846918
-846917
-846913
-846907
-846897
-846885
-846870
-846852
-846834
-846815
-846799
-846786
-846779
-860990
-860996
-861008
-861023
-861039
-861056
-861072
-861085
-861097
-861105
-861111
-861114
-861116
-861115
-861112
-861109
-861104
-861099
-861093
-861087
-861081
-861075
-861070
-861064
-861060
-861056
-861053
-861050
-861048
-861048
-861048
-861048
-861050
-861053
-861056
-861060
-861064
-861070
-861075
-861081
-861087
-861093
-861099
-861104
-861109
-861112
-861115
-861116
-861114
-861111
-861105
-861097
-861085
-861072
-861056
-861039
-861023
-861008
-860996
-860990
-875605
-875610
-875621
-875634
-875648
-875663
-875677
-875690
-875700
-875707
-875713
-875716
-875717
-875716
-875714
-875711
-875706
-875702
-875697
-875691
-875686
-875681
-875676
-875671
-875667
-875663
-875660
-875658
-875657
-875656
-875656
-875657
-875658
-875660
-875663
-875667
-875671
-875676
-875681
-875686
-875691
-875697
-875702
-875706
-875711
-875714
-875716
-875717
-875716
-875713
-875707
-875700
-875690
-875677
-875663
-875648
-875634
-875621
-875610
-875605
-890621
-890626
-890634
-890646
-890659
-890672
-890684
-890695
-890704
-890710
-890715
-890718
-890719
-890718
-890716
-890713
-890710
-890705
-890701
-890696
-890692
-890687
-890683
-890679
-890675
-890672
-890669
-890667
-890666
-890665
-890665
-890666
-890667
-890669
-890672
-890675
-890679
-890683
-890687
-890692
-890696
-890701
-890705
-890710
-890713
-890716
-890718
-890719
-890718
-890715
-890710
-890704
-890695
-890684
-890672
-890659
-890646
-890634
-890626
-890621
-906047
-906051
-906059
-906069
-906080
-906091
-906101
-906110
-906118
-906124
-906128
-906130
-906131
-906130
-906129
-906126
-906123
-906120
-906116
-906112
-906108
-906104
-906100
-906097
-906094
-906091
-906089
-906087
-906086
-906085
-906085
-906086
-906087
-906089
-906091
-906094
-906097
-906100
-906104
-906108
-906112
-906116
-906120
-906123
-906126
-906129
-906130
-906131
-906130
-906128
-906124
-906118
-906110
-906101
-906091
-906080
-906069
-906059
-906051
-906047
-921891
-921895
-921901
-921909
-921918
-921927
-921935
-921943
-921949
-921954
-921957
-921959
-921960
-921960
-921958
-921956
-921954
-921951
-921948
-921944
-921941
-921938
-921935
-921932
-921929
-921927
-921925
-921924
-921923
-921922
-921922
-921923
-921924
-921925
-921927
-921929
-921932
-921935
-921938
-921941
-921944
-921948
-921951
-921954
-921956
-921958
-921960
-921960
-921959
-921957
-921954
-921949
-921943
-921935
-921927
-921918
-921909
-921901
-921895
-921891
-938154
-938157
-938162
-938168
-938175
-938182
-938189
-938195
-938200
-938203
-938206
-938208
-938208
-938208
-938207
-938205
-938203
-938201
-938199
-938196
-938193
-938191
-938188
-938186
-938184
-938182
-938181
-938180
-938179
-938179
-938179
-938179
-938180
-938181
-938182
-938184
-938186
-938188
-938191
-938193
-938196
-938199
-938201
-938203
-938205
-938207
-938208
-938208
-938208
-938206
-938203
-938200
-938195
-938189
-938182
-938175
-938168
-938162
-938157
-938154
-954834
-954836
-954839
-954843
-954848
-954853
-954858
-954862
-954866
-954869
-954871
-954872
-954872
-954872
-954872
-954870
-954869
-954867
-954866
-954864
-954862
-954860
-954858
-954856
-954855
-954854
-954853
-954852
-954851
-954851
-954851
-954851
-954852
-954853
-954854
-954855
-954856
-954858
-954860
-954862
-954864
-954866
-954867
-954869
-954870
-954872
-954872
-954872
-954872
-954871
-954869
-954866
-954862
-954858
-954853
-954848
-954843
-954839
-954836
-954834
-971920
-971921
-971923
-971925
-971928
-971931
-971934
-971936
-971939
-971940
-971942
-971942
-971943
-971943
-971942
-971942
-971941
-971940
-971939
-971938
-971936
-971935
-971934
-971933
-971932
-971931
-971931
-971930
-971930
-971930
-971930
-971930
-971930
-971931
-971931
-971932
-971933
-971934
-971935
-971936
-971938
-971939
-971940
-971941
-971942
-971942
-971943
-971943
-971942
-971942
-971940
-971939
-971936
-971934
-971931
-971928
-971925
-971923
-971921
-971920
-989390
-989390
-989390
-989391
-989392
-989392
-989393
-989394
-989395
-989396
-989396
-989397
-989397
-989397
-989397
-989397
-989397
-989396
-989396
-989395
-989395
-989395
-989394
-989394
-989393
-989393
-989393
-989393
-989393
-989392
-989392
-989393
-989393
-989393
-989393
-989393
-989394
-989394
-989395
-989395
-989395
-989396
-989396
-989397
-989397
-989397
-989397
-989397
-989397
-989396
-989396
-989395
-989394
-989393
-989392
-989392
-989391
-989390
-989390
-989390
-1.0072e+06
-1.00719e+06
-1.00719e+06
-1.00719e+06
-1.00719e+06
-1.00719e+06
-1.00719e+06
-1.00719e+06
-1.00719e+06
-1.00719e+06
-1.00719e+06
-1.00719e+06
-1.00719e+06
-1.00719e+06
-1.00719e+06
-1.00719e+06
-1.00719e+06
-1.00719e+06
-1.00719e+06
-1.00719e+06
-1.00719e+06
-1.00719e+06
-1.00719e+06
-1.00719e+06
-1.00719e+06
-1.00719e+06
-1.00719e+06
-1.00719e+06
-1.00719e+06
-1.00719e+06
-1.00719e+06
-1.00719e+06
-1.00719e+06
-1.00719e+06
-1.00719e+06
-1.00719e+06
-1.00719e+06
-1.00719e+06
-1.00719e+06
-1.00719e+06
-1.00719e+06
-1.00719e+06
-1.00719e+06
-1.00719e+06
-1.00719e+06
-1.00719e+06
-1.00719e+06
-1.00719e+06
-1.00719e+06
-1.00719e+06
-1.00719e+06
-1.00719e+06
-1.00719e+06
-1.00719e+06
-1.00719e+06
-1.00719e+06
-1.00719e+06
-1.00719e+06
-1.00719e+06
-1.0072e+06
-1.02524e+06
-1.02524e+06
-1.02524e+06
-1.02523e+06
-1.02523e+06
-1.02523e+06
-1.02522e+06
-1.02522e+06
-1.02522e+06
-1.02522e+06
-1.02522e+06
-1.02522e+06
-1.02522e+06
-1.02522e+06
-1.02522e+06
-1.02522e+06
-1.02522e+06
-1.02522e+06
-1.02522e+06
-1.02522e+06
-1.02522e+06
-1.02522e+06
-1.02522e+06
-1.02522e+06
-1.02523e+06
-1.02523e+06
-1.02523e+06
-1.02523e+06
-1.02523e+06
-1.02523e+06
-1.02523e+06
-1.02523e+06
-1.02523e+06
-1.02523e+06
-1.02523e+06
-1.02523e+06
-1.02522e+06
-1.02522e+06
-1.02522e+06
-1.02522e+06
-1.02522e+06
-1.02522e+06
-1.02522e+06
-1.02522e+06
-1.02522e+06
-1.02522e+06
-1.02522e+06
-1.02522e+06
-1.02522e+06
-1.02522e+06
-1.02522e+06
-1.02522e+06
-1.02522e+06
-1.02522e+06
-1.02523e+06
-1.02523e+06
-1.02523e+06
-1.02524e+06
-1.02524e+06
-1.02524e+06
-1.04333e+06
-1.04332e+06
-1.04332e+06
-1.04332e+06
-1.04331e+06
-1.04331e+06
-1.0433e+06
-1.0433e+06
-1.04329e+06
-1.04329e+06
-1.04329e+06
-1.04329e+06
-1.04329e+06
-1.04329e+06
-1.04329e+06
-1.04329e+06
-1.04329e+06
-1.04329e+06
-1.0433e+06
-1.0433e+06
-1.0433e+06
-1.0433e+06
-1.0433e+06
-1.0433e+06
-1.04331e+06
-1.04331e+06
-1.04331e+06
-1.04331e+06
-1.04331e+06
-1.04331e+06
-1.04331e+06
-1.04331e+06
-1.04331e+06
-1.04331e+06
-1.04331e+06
-1.04331e+06
-1.0433e+06
-1.0433e+06
-1.0433e+06
-1.0433e+06
-1.0433e+06
-1.0433e+06
-1.04329e+06
-1.04329e+06
-1.04329e+06
-1.04329e+06
-1.04329e+06
-1.04329e+06
-1.04329e+06
-1.04329e+06
-1.04329e+06
-1.04329e+06
-1.0433e+06
-1.0433e+06
-1.04331e+06
-1.04331e+06
-1.04332e+06
-1.04332e+06
-1.04332e+06
-1.04333e+06
-1.0611e+06
-1.0611e+06
-1.0611e+06
-1.06109e+06
-1.06108e+06
-1.06108e+06
-1.06107e+06
-1.06106e+06
-1.06106e+06
-1.06106e+06
-1.06106e+06
-1.06105e+06
-1.06105e+06
-1.06105e+06
-1.06106e+06
-1.06106e+06
-1.06106e+06
-1.06106e+06
-1.06106e+06
-1.06107e+06
-1.06107e+06
-1.06107e+06
-1.06107e+06
-1.06107e+06
-1.06108e+06
-1.06108e+06
-1.06108e+06
-1.06108e+06
-1.06108e+06
-1.06108e+06
-1.06108e+06
-1.06108e+06
-1.06108e+06
-1.06108e+06
-1.06108e+06
-1.06108e+06
-1.06107e+06
-1.06107e+06
-1.06107e+06
-1.06107e+06
-1.06107e+06
-1.06106e+06
-1.06106e+06
-1.06106e+06
-1.06106e+06
-1.06106e+06
-1.06105e+06
-1.06105e+06
-1.06105e+06
-1.06106e+06
-1.06106e+06
-1.06106e+06
-1.06106e+06
-1.06107e+06
-1.06108e+06
-1.06108e+06
-1.06109e+06
-1.0611e+06
-1.0611e+06
-1.0611e+06
-1.078e+06
-1.078e+06
-1.07799e+06
-1.07799e+06
-1.07798e+06
-1.07797e+06
-1.07796e+06
-1.07796e+06
-1.07795e+06
-1.07795e+06
-1.07795e+06
-1.07795e+06
-1.07795e+06
-1.07795e+06
-1.07795e+06
-1.07795e+06
-1.07795e+06
-1.07795e+06
-1.07796e+06
-1.07796e+06
-1.07796e+06
-1.07796e+06
-1.07797e+06
-1.07797e+06
-1.07797e+06
-1.07797e+06
-1.07797e+06
-1.07797e+06
-1.07797e+06
-1.07798e+06
-1.07798e+06
-1.07797e+06
-1.07797e+06
-1.07797e+06
-1.07797e+06
-1.07797e+06
-1.07797e+06
-1.07797e+06
-1.07796e+06
-1.07796e+06
-1.07796e+06
-1.07796e+06
-1.07795e+06
-1.07795e+06
-1.07795e+06
-1.07795e+06
-1.07795e+06
-1.07795e+06
-1.07795e+06
-1.07795e+06
-1.07795e+06
-1.07795e+06
-1.07796e+06
-1.07796e+06
-1.07797e+06
-1.07798e+06
-1.07799e+06
-1.07799e+06
-1.078e+06
-1.078e+06
-1.09327e+06
-1.09327e+06
-1.09326e+06
-1.09326e+06
-1.09325e+06
-1.09324e+06
-1.09323e+06
-1.09323e+06
-1.09322e+06
-1.09322e+06
-1.09322e+06
-1.09322e+06
-1.09322e+06
-1.09322e+06
-1.09322e+06
-1.09322e+06
-1.09322e+06
-1.09322e+06
-1.09323e+06
-1.09323e+06
-1.09323e+06
-1.09323e+06
-1.09324e+06
-1.09324e+06
-1.09324e+06
-1.09324e+06
-1.09324e+06
-1.09324e+06
-1.09325e+06
-1.09325e+06
-1.09325e+06
-1.09325e+06
-1.09324e+06
-1.09324e+06
-1.09324e+06
-1.09324e+06
-1.09324e+06
-1.09324e+06
-1.09323e+06
-1.09323e+06
-1.09323e+06
-1.09323e+06
-1.09322e+06
-1.09322e+06
-1.09322e+06
-1.09322e+06
-1.09322e+06
-1.09322e+06
-1.09322e+06
-1.09322e+06
-1.09322e+06
-1.09322e+06
-1.09323e+06
-1.09323e+06
-1.09324e+06
-1.09325e+06
-1.09326e+06
-1.09326e+06
-1.09327e+06
-1.09327e+06
-1.10615e+06
-1.10615e+06
-1.10615e+06
-1.10614e+06
-1.10613e+06
-1.10613e+06
-1.10612e+06
-1.10611e+06
-1.10611e+06
-1.10611e+06
-1.1061e+06
-1.1061e+06
-1.1061e+06
-1.1061e+06
-1.1061e+06
-1.10611e+06
-1.10611e+06
-1.10611e+06
-1.10611e+06
-1.10611e+06
-1.10612e+06
-1.10612e+06
-1.10612e+06
-1.10612e+06
-1.10612e+06
-1.10613e+06
-1.10613e+06
-1.10613e+06
-1.10613e+06
-1.10613e+06
-1.10613e+06
-1.10613e+06
-1.10613e+06
-1.10613e+06
-1.10613e+06
-1.10612e+06
-1.10612e+06
-1.10612e+06
-1.10612e+06
-1.10612e+06
-1.10611e+06
-1.10611e+06
-1.10611e+06
-1.10611e+06
-1.10611e+06
-1.1061e+06
-1.1061e+06
-1.1061e+06
-1.1061e+06
-1.1061e+06
-1.10611e+06
-1.10611e+06
-1.10611e+06
-1.10612e+06
-1.10613e+06
-1.10613e+06
-1.10614e+06
-1.10615e+06
-1.10615e+06
-1.10615e+06
-1.11615e+06
-1.11615e+06
-1.11614e+06
-1.11614e+06
-1.11613e+06
-1.11613e+06
-1.11612e+06
-1.11612e+06
-1.11611e+06
-1.11611e+06
-1.11611e+06
-1.11611e+06
-1.11611e+06
-1.11611e+06
-1.11611e+06
-1.11611e+06
-1.11611e+06
-1.11611e+06
-1.11612e+06
-1.11612e+06
-1.11612e+06
-1.11612e+06
-1.11612e+06
-1.11612e+06
-1.11613e+06
-1.11613e+06
-1.11613e+06
-1.11613e+06
-1.11613e+06
-1.11613e+06
-1.11613e+06
-1.11613e+06
-1.11613e+06
-1.11613e+06
-1.11613e+06
-1.11613e+06
-1.11612e+06
-1.11612e+06
-1.11612e+06
-1.11612e+06
-1.11612e+06
-1.11612e+06
-1.11611e+06
-1.11611e+06
-1.11611e+06
-1.11611e+06
-1.11611e+06
-1.11611e+06
-1.11611e+06
-1.11611e+06
-1.11611e+06
-1.11611e+06
-1.11612e+06
-1.11612e+06
-1.11613e+06
-1.11613e+06
-1.11614e+06
-1.11614e+06
-1.11615e+06
-1.11615e+06
-1.12324e+06
-1.12324e+06
-1.12324e+06
-1.12323e+06
-1.12323e+06
-1.12322e+06
-1.12322e+06
-1.12322e+06
-1.12321e+06
-1.12321e+06
-1.12321e+06
-1.12321e+06
-1.12321e+06
-1.12321e+06
-1.12321e+06
-1.12321e+06
-1.12321e+06
-1.12321e+06
-1.12322e+06
-1.12322e+06
-1.12322e+06
-1.12322e+06
-1.12322e+06
-1.12322e+06
-1.12322e+06
-1.12322e+06
-1.12322e+06
-1.12322e+06
-1.12323e+06
-1.12323e+06
-1.12323e+06
-1.12323e+06
-1.12322e+06
-1.12322e+06
-1.12322e+06
-1.12322e+06
-1.12322e+06
-1.12322e+06
-1.12322e+06
-1.12322e+06
-1.12322e+06
-1.12322e+06
-1.12321e+06
-1.12321e+06
-1.12321e+06
-1.12321e+06
-1.12321e+06
-1.12321e+06
-1.12321e+06
-1.12321e+06
-1.12321e+06
-1.12321e+06
-1.12322e+06
-1.12322e+06
-1.12322e+06
-1.12323e+06
-1.12323e+06
-1.12324e+06
-1.12324e+06
-1.12324e+06
-1.12786e+06
-1.12786e+06
-1.12786e+06
-1.12786e+06
-1.12786e+06
-1.12785e+06
-1.12785e+06
-1.12785e+06
-1.12785e+06
-1.12785e+06
-1.12784e+06
-1.12784e+06
-1.12784e+06
-1.12784e+06
-1.12784e+06
-1.12785e+06
-1.12785e+06
-1.12785e+06
-1.12785e+06
-1.12785e+06
-1.12785e+06
-1.12785e+06
-1.12785e+06
-1.12785e+06
-1.12785e+06
-1.12785e+06
-1.12785e+06
-1.12785e+06
-1.12785e+06
-1.12785e+06
-1.12785e+06
-1.12785e+06
-1.12785e+06
-1.12785e+06
-1.12785e+06
-1.12785e+06
-1.12785e+06
-1.12785e+06
-1.12785e+06
-1.12785e+06
-1.12785e+06
-1.12785e+06
-1.12785e+06
-1.12785e+06
-1.12785e+06
-1.12784e+06
-1.12784e+06
-1.12784e+06
-1.12784e+06
-1.12784e+06
-1.12785e+06
-1.12785e+06
-1.12785e+06
-1.12785e+06
-1.12785e+06
-1.12786e+06
-1.12786e+06
-1.12786e+06
-1.12786e+06
-1.12786e+06
-1.13069e+06
-1.13069e+06
-1.13069e+06
-1.13069e+06
-1.13069e+06
-1.13069e+06
-1.13068e+06
-1.13068e+06
-1.13068e+06
-1.13068e+06
-1.13068e+06
-1.13068e+06
-1.13068e+06
-1.13068e+06
-1.13068e+06
-1.13068e+06
-1.13068e+06
-1.13068e+06
-1.13068e+06
-1.13068e+06
-1.13068e+06
-1.13068e+06
-1.13068e+06
-1.13069e+06
-1.13069e+06
-1.13069e+06
-1.13069e+06
-1.13069e+06
-1.13069e+06
-1.13069e+06
-1.13069e+06
-1.13069e+06
-1.13069e+06
-1.13069e+06
-1.13069e+06
-1.13069e+06
-1.13069e+06
-1.13068e+06
-1.13068e+06
-1.13068e+06
-1.13068e+06
-1.13068e+06
-1.13068e+06
-1.13068e+06
-1.13068e+06
-1.13068e+06
-1.13068e+06
-1.13068e+06
-1.13068e+06
-1.13068e+06
-1.13068e+06
-1.13068e+06
-1.13068e+06
-1.13068e+06
-1.13069e+06
-1.13069e+06
-1.13069e+06
-1.13069e+06
-1.13069e+06
-1.13069e+06
-1.13237e+06
-1.13237e+06
-1.13237e+06
-1.13237e+06
-1.13236e+06
-1.13236e+06
-1.13236e+06
-1.13236e+06
-1.13236e+06
-1.13236e+06
-1.13236e+06
-1.13236e+06
-1.13236e+06
-1.13236e+06
-1.13236e+06
-1.13236e+06
-1.13236e+06
-1.13236e+06
-1.13236e+06
-1.13236e+06
-1.13236e+06
-1.13236e+06
-1.13236e+06
-1.13236e+06
-1.13236e+06
-1.13236e+06
-1.13236e+06
-1.13236e+06
-1.13236e+06
-1.13236e+06
-1.13236e+06
-1.13236e+06
-1.13236e+06
-1.13236e+06
-1.13236e+06
-1.13236e+06
-1.13236e+06
-1.13236e+06
-1.13236e+06
-1.13236e+06
-1.13236e+06
-1.13236e+06
-1.13236e+06
-1.13236e+06
-1.13236e+06
-1.13236e+06
-1.13236e+06
-1.13236e+06
-1.13236e+06
-1.13236e+06
-1.13236e+06
-1.13236e+06
-1.13236e+06
-1.13236e+06
-1.13236e+06
-1.13236e+06
-1.13237e+06
-1.13237e+06
-1.13237e+06
-1.13237e+06
-1.13336e+06
-1.13336e+06
-1.13336e+06
-1.13336e+06
-1.13336e+06
-1.13336e+06
-1.13336e+06
-1.13336e+06
-1.13336e+06
-1.13336e+06
-1.13336e+06
-1.13336e+06
-1.13336e+06
-1.13336e+06
-1.13336e+06
-1.13336e+06
-1.13336e+06
-1.13336e+06
-1.13336e+06
-1.13336e+06
-1.13336e+06
-1.13336e+06
-1.13336e+06
-1.13336e+06
-1.13336e+06
-1.13336e+06
-1.13336e+06
-1.13336e+06
-1.13336e+06
-1.13336e+06
-1.13336e+06
-1.13336e+06
-1.13336e+06
-1.13336e+06
-1.13336e+06
-1.13336e+06
-1.13336e+06
-1.13336e+06
-1.13336e+06
-1.13336e+06
-1.13336e+06
-1.13336e+06
-1.13336e+06
-1.13336e+06
-1.13336e+06
-1.13336e+06
-1.13336e+06
-1.13336e+06
-1.13336e+06
-1.13336e+06
-1.13336e+06
-1.13336e+06
-1.13336e+06
-1.13336e+06
-1.13336e+06
-1.13336e+06
-1.13336e+06
-1.13336e+06
-1.13336e+06
-1.13336e+06
-1.13397e+06
-1.13397e+06
-1.13397e+06
-1.13397e+06
-1.13397e+06
-1.13397e+06
-1.13397e+06
-1.13397e+06
-1.13397e+06
-1.13397e+06
-1.13397e+06
-1.13397e+06
-1.13397e+06
-1.13397e+06
-1.13397e+06
-1.13397e+06
-1.13397e+06
-1.13397e+06
-1.13397e+06
-1.13397e+06
-1.13397e+06
-1.13397e+06
-1.13397e+06
-1.13397e+06
-1.13397e+06
-1.13397e+06
-1.13397e+06
-1.13397e+06
-1.13397e+06
-1.13397e+06
-1.13397e+06
-1.13397e+06
-1.13397e+06
-1.13397e+06
-1.13397e+06
-1.13397e+06
-1.13397e+06
-1.13397e+06
-1.13397e+06
-1.13397e+06
-1.13397e+06
-1.13397e+06
-1.13397e+06
-1.13397e+06
-1.13397e+06
-1.13397e+06
-1.13397e+06
-1.13397e+06
-1.13397e+06
-1.13397e+06
-1.13397e+06
-1.13397e+06
-1.13397e+06
-1.13397e+06
-1.13397e+06
-1.13397e+06
-1.13397e+06
-1.13397e+06
-1.13397e+06
-1.13397e+06
-1.13437e+06
-1.13437e+06
-1.13437e+06
-1.13437e+06
-1.13437e+06
-1.13437e+06
-1.13437e+06
-1.13437e+06
-1.13436e+06
-1.13436e+06
-1.13436e+06
-1.13436e+06
-1.13436e+06
-1.13436e+06
-1.13436e+06
-1.13437e+06
-1.13437e+06
-1.13437e+06
-1.13437e+06
-1.13437e+06
-1.13437e+06
-1.13437e+06
-1.13437e+06
-1.13437e+06
-1.13437e+06
-1.13437e+06
-1.13437e+06
-1.13437e+06
-1.13437e+06
-1.13437e+06
-1.13437e+06
-1.13437e+06
-1.13437e+06
-1.13437e+06
-1.13437e+06
-1.13437e+06
-1.13437e+06
-1.13437e+06
-1.13437e+06
-1.13437e+06
-1.13437e+06
-1.13437e+06
-1.13437e+06
-1.13437e+06
-1.13437e+06
-1.13436e+06
-1.13436e+06
-1.13436e+06
-1.13436e+06
-1.13436e+06
-1.13436e+06
-1.13436e+06
-1.13437e+06
-1.13437e+06
-1.13437e+06
-1.13437e+06
-1.13437e+06
-1.13437e+06
-1.13437e+06
-1.13437e+06
-1.13464e+06
-1.13464e+06
-1.13464e+06
-1.13464e+06
-1.13464e+06
-1.13463e+06
-1.13463e+06
-1.13463e+06
-1.13463e+06
-1.13463e+06
-1.13463e+06
-1.13463e+06
-1.13463e+06
-1.13463e+06
-1.13463e+06
-1.13463e+06
-1.13463e+06
-1.13463e+06
-1.13463e+06
-1.13463e+06
-1.13463e+06
-1.13463e+06
-1.13463e+06
-1.13463e+06
-1.13463e+06
-1.13463e+06
-1.13464e+06
-1.13464e+06
-1.13464e+06
-1.13464e+06
-1.13464e+06
-1.13464e+06
-1.13464e+06
-1.13464e+06
-1.13463e+06
-1.13463e+06
-1.13463e+06
-1.13463e+06
-1.13463e+06
-1.13463e+06
-1.13463e+06
-1.13463e+06
-1.13463e+06
-1.13463e+06
-1.13463e+06
-1.13463e+06
-1.13463e+06
-1.13463e+06
-1.13463e+06
-1.13463e+06
-1.13463e+06
-1.13463e+06
-1.13463e+06
-1.13463e+06
-1.13463e+06
-1.13464e+06
-1.13464e+06
-1.13464e+06
-1.13464e+06
-1.13464e+06
-1.13483e+06
-1.13483e+06
-1.13483e+06
-1.13483e+06
-1.13483e+06
-1.13482e+06
-1.13482e+06
-1.13482e+06
-1.13482e+06
-1.13482e+06
-1.13482e+06
-1.13482e+06
-1.13482e+06
-1.13482e+06
-1.13482e+06
-1.13482e+06
-1.13482e+06
-1.13482e+06
-1.13482e+06
-1.13482e+06
-1.13482e+06
-1.13482e+06
-1.13483e+06
-1.13483e+06
-1.13483e+06
-1.13483e+06
-1.13483e+06
-1.13483e+06
-1.13483e+06
-1.13483e+06
-1.13483e+06
-1.13483e+06
-1.13483e+06
-1.13483e+06
-1.13483e+06
-1.13483e+06
-1.13483e+06
-1.13483e+06
-1.13482e+06
-1.13482e+06
-1.13482e+06
-1.13482e+06
-1.13482e+06
-1.13482e+06
-1.13482e+06
-1.13482e+06
-1.13482e+06
-1.13482e+06
-1.13482e+06
-1.13482e+06
-1.13482e+06
-1.13482e+06
-1.13482e+06
-1.13482e+06
-1.13482e+06
-1.13483e+06
-1.13483e+06
-1.13483e+06
-1.13483e+06
-1.13483e+06
-1.13497e+06
-1.13497e+06
-1.13497e+06
-1.13497e+06
-1.13497e+06
-1.13496e+06
-1.13496e+06
-1.13496e+06
-1.13496e+06
-1.13496e+06
-1.13496e+06
-1.13496e+06
-1.13496e+06
-1.13496e+06
-1.13496e+06
-1.13496e+06
-1.13496e+06
-1.13496e+06
-1.13496e+06
-1.13496e+06
-1.13496e+06
-1.13496e+06
-1.13497e+06
-1.13497e+06
-1.13497e+06
-1.13497e+06
-1.13497e+06
-1.13497e+06
-1.13497e+06
-1.13497e+06
-1.13497e+06
-1.13497e+06
-1.13497e+06
-1.13497e+06
-1.13497e+06
-1.13497e+06
-1.13497e+06
-1.13497e+06
-1.13496e+06
-1.13496e+06
-1.13496e+06
-1.13496e+06
-1.13496e+06
-1.13496e+06
-1.13496e+06
-1.13496e+06
-1.13496e+06
-1.13496e+06
-1.13496e+06
-1.13496e+06
-1.13496e+06
-1.13496e+06
-1.13496e+06
-1.13496e+06
-1.13496e+06
-1.13497e+06
-1.13497e+06
-1.13497e+06
-1.13497e+06
-1.13497e+06
-1.13507e+06
-1.13507e+06
-1.13507e+06
-1.13507e+06
-1.13507e+06
-1.13507e+06
-1.13507e+06
-1.13507e+06
-1.13507e+06
-1.13507e+06
-1.13507e+06
-1.13507e+06
-1.13507e+06
-1.13507e+06
-1.13507e+06
-1.13507e+06
-1.13507e+06
-1.13507e+06
-1.13507e+06
-1.13507e+06
-1.13507e+06
-1.13507e+06
-1.13507e+06
-1.13507e+06
-1.13507e+06
-1.13507e+06
-1.13507e+06
-1.13507e+06
-1.13507e+06
-1.13507e+06
-1.13507e+06
-1.13507e+06
-1.13507e+06
-1.13507e+06
-1.13507e+06
-1.13507e+06
-1.13507e+06
-1.13507e+06
-1.13507e+06
-1.13507e+06
-1.13507e+06
-1.13507e+06
-1.13507e+06
-1.13507e+06
-1.13507e+06
-1.13507e+06
-1.13507e+06
-1.13507e+06
-1.13507e+06
-1.13507e+06
-1.13507e+06
-1.13507e+06
-1.13507e+06
-1.13507e+06
-1.13507e+06
-1.13507e+06
-1.13507e+06
-1.13507e+06
-1.13507e+06
-1.13507e+06
-1.13515e+06
-1.13515e+06
-1.13515e+06
-1.13515e+06
-1.13515e+06
-1.13515e+06
-1.13515e+06
-1.13515e+06
-1.13515e+06
-1.13515e+06
-1.13515e+06
-1.13515e+06
-1.13515e+06
-1.13515e+06
-1.13515e+06
-1.13515e+06
-1.13515e+06
-1.13515e+06
-1.13515e+06
-1.13515e+06
-1.13515e+06
-1.13515e+06
-1.13515e+06
-1.13515e+06
-1.13515e+06
-1.13515e+06
-1.13515e+06
-1.13515e+06
-1.13515e+06
-1.13515e+06
-1.13515e+06
-1.13515e+06
-1.13515e+06
-1.13515e+06
-1.13515e+06
-1.13515e+06
-1.13515e+06
-1.13515e+06
-1.13515e+06
-1.13515e+06
-1.13515e+06
-1.13515e+06
-1.13515e+06
-1.13515e+06
-1.13515e+06
-1.13515e+06
-1.13515e+06
-1.13515e+06
-1.13515e+06
-1.13515e+06
-1.13515e+06
-1.13515e+06
-1.13515e+06
-1.13515e+06
-1.13515e+06
-1.13515e+06
-1.13515e+06
-1.13515e+06
-1.13515e+06
-1.13515e+06
-1.13522e+06
-1.13522e+06
-1.13522e+06
-1.13522e+06
-1.13522e+06
-1.13522e+06
-1.13522e+06
-1.13522e+06
-1.13522e+06
-1.13522e+06
-1.13522e+06
-1.13522e+06
-1.13522e+06
-1.13522e+06
-1.13522e+06
-1.13522e+06
-1.13522e+06
-1.13522e+06
-1.13522e+06
-1.13522e+06
-1.13522e+06
-1.13522e+06
-1.13522e+06
-1.13522e+06
-1.13522e+06
-1.13522e+06
-1.13522e+06
-1.13522e+06
-1.13522e+06
-1.13522e+06
-1.13522e+06
-1.13522e+06
-1.13522e+06
-1.13522e+06
-1.13522e+06
-1.13522e+06
-1.13522e+06
-1.13522e+06
-1.13522e+06
-1.13522e+06
-1.13522e+06
-1.13522e+06
-1.13522e+06
-1.13522e+06
-1.13522e+06
-1.13522e+06
-1.13522e+06
-1.13522e+06
-1.13522e+06
-1.13522e+06
-1.13522e+06
-1.13522e+06
-1.13522e+06
-1.13522e+06
-1.13522e+06
-1.13522e+06
-1.13522e+06
-1.13522e+06
-1.13522e+06
-1.13522e+06
-1.13527e+06
-1.13527e+06
-1.13527e+06
-1.13527e+06
-1.13527e+06
-1.13527e+06
-1.13527e+06
-1.13527e+06
-1.13527e+06
-1.13527e+06
-1.13527e+06
-1.13527e+06
-1.13527e+06
-1.13527e+06
-1.13527e+06
-1.13527e+06
-1.13527e+06
-1.13527e+06
-1.13527e+06
-1.13527e+06
-1.13527e+06
-1.13527e+06
-1.13527e+06
-1.13527e+06
-1.13527e+06
-1.13527e+06
-1.13527e+06
-1.13527e+06
-1.13527e+06
-1.13527e+06
-1.13527e+06
-1.13527e+06
-1.13527e+06
-1.13527e+06
-1.13527e+06
-1.13527e+06
-1.13527e+06
-1.13527e+06
-1.13527e+06
-1.13527e+06
-1.13527e+06
-1.13527e+06
-1.13527e+06
-1.13527e+06
-1.13527e+06
-1.13527e+06
-1.13527e+06
-1.13527e+06
-1.13527e+06
-1.13527e+06
-1.13527e+06
-1.13527e+06
-1.13527e+06
-1.13527e+06
-1.13527e+06
-1.13527e+06
-1.13527e+06
-1.13527e+06
-1.13527e+06
-1.13527e+06
-1.13531e+06
-1.13531e+06
-1.13531e+06
-1.13531e+06
-1.13531e+06
-1.13531e+06
-1.13531e+06
-1.13531e+06
-1.13531e+06
-1.13531e+06
-1.13531e+06
-1.13531e+06
-1.13531e+06
-1.13531e+06
-1.13531e+06
-1.13531e+06
-1.13531e+06
-1.13531e+06
-1.13531e+06
-1.13531e+06
-1.13531e+06
-1.13531e+06
-1.13531e+06
-1.13531e+06
-1.13531e+06
-1.13531e+06
-1.13531e+06
-1.13531e+06
-1.13531e+06
-1.13531e+06
-1.13531e+06
-1.13531e+06
-1.13531e+06
-1.13531e+06
-1.13531e+06
-1.13531e+06
-1.13531e+06
-1.13531e+06
-1.13531e+06
-1.13531e+06
-1.13531e+06
-1.13531e+06
-1.13531e+06
-1.13531e+06
-1.13531e+06
-1.13531e+06
-1.13531e+06
-1.13531e+06
-1.13531e+06
-1.13531e+06
-1.13531e+06
-1.13531e+06
-1.13531e+06
-1.13531e+06
-1.13531e+06
-1.13531e+06
-1.13531e+06
-1.13531e+06
-1.13531e+06
-1.13531e+06
-1.13535e+06
-1.13535e+06
-1.13535e+06
-1.13535e+06
-1.13535e+06
-1.13534e+06
-1.13534e+06
-1.13534e+06
-1.13534e+06
-1.13534e+06
-1.13534e+06
-1.13534e+06
-1.13534e+06
-1.13534e+06
-1.13534e+06
-1.13534e+06
-1.13534e+06
-1.13534e+06
-1.13534e+06
-1.13534e+06
-1.13534e+06
-1.13534e+06
-1.13534e+06
-1.13534e+06
-1.13534e+06
-1.13534e+06
-1.13534e+06
-1.13535e+06
-1.13535e+06
-1.13535e+06
-1.13535e+06
-1.13535e+06
-1.13535e+06
-1.13534e+06
-1.13534e+06
-1.13534e+06
-1.13534e+06
-1.13534e+06
-1.13534e+06
-1.13534e+06
-1.13534e+06
-1.13534e+06
-1.13534e+06
-1.13534e+06
-1.13534e+06
-1.13534e+06
-1.13534e+06
-1.13534e+06
-1.13534e+06
-1.13534e+06
-1.13534e+06
-1.13534e+06
-1.13534e+06
-1.13534e+06
-1.13534e+06
-1.13535e+06
-1.13535e+06
-1.13535e+06
-1.13535e+06
-1.13535e+06
-1.13537e+06
-1.13537e+06
-1.13537e+06
-1.13537e+06
-1.13537e+06
-1.13537e+06
-1.13537e+06
-1.13537e+06
-1.13537e+06
-1.13537e+06
-1.13537e+06
-1.13537e+06
-1.13537e+06
-1.13537e+06
-1.13537e+06
-1.13537e+06
-1.13537e+06
-1.13537e+06
-1.13537e+06
-1.13537e+06
-1.13537e+06
-1.13537e+06
-1.13537e+06
-1.13537e+06
-1.13537e+06
-1.13537e+06
-1.13537e+06
-1.13537e+06
-1.13537e+06
-1.13537e+06
-1.13537e+06
-1.13537e+06
-1.13537e+06
-1.13537e+06
-1.13537e+06
-1.13537e+06
-1.13537e+06
-1.13537e+06
-1.13537e+06
-1.13537e+06
-1.13537e+06
-1.13537e+06
-1.13537e+06
-1.13537e+06
-1.13537e+06
-1.13537e+06
-1.13537e+06
-1.13537e+06
-1.13537e+06
-1.13537e+06
-1.13537e+06
-1.13537e+06
-1.13537e+06
-1.13537e+06
-1.13537e+06
-1.13537e+06
-1.13537e+06
-1.13537e+06
-1.13537e+06
-1.13537e+06
-1.1354e+06
-1.1354e+06
-1.1354e+06
-1.1354e+06
-1.1354e+06
-1.1354e+06
-1.1354e+06
-1.1354e+06
-1.1354e+06
-1.1354e+06
-1.1354e+06
-1.1354e+06
-1.1354e+06
-1.1354e+06
-1.1354e+06
-1.1354e+06
-1.1354e+06
-1.1354e+06
-1.1354e+06
-1.1354e+06
-1.1354e+06
-1.1354e+06
-1.1354e+06
-1.1354e+06
-1.1354e+06
-1.1354e+06
-1.1354e+06
-1.1354e+06
-1.1354e+06
-1.1354e+06
-1.1354e+06
-1.1354e+06
-1.1354e+06
-1.1354e+06
-1.1354e+06
-1.1354e+06
-1.1354e+06
-1.1354e+06
-1.1354e+06
-1.1354e+06
-1.1354e+06
-1.1354e+06