/*--------------------------------*- C++ -*----------------------------------*\
| =========                 |                                                 |
| \\      /  F ield         | foam-extend: Open Source CFD                    |
|  \\    /   O peration     | Version:     4.0                                |
|   \\  /    A nd           | Web:         http://www.foam-extend.org         |
|    \\/     M anipulation  |                                                 |
\*---------------------------------------------------------------------------*/
FoamFile
{
    version     2.0;
    format      ascii;
    class       volVectorField;
    location    "31";
    object      U;
}
// * * * * * * * * * * * * * * * * * * * * * * * * * * * * * * * * * * * * * //

dimensions      [0 1 -1 0 0 0 0];

internalField   nonuniform List<vector> 
6960
(
(0.00125564 -206.895 0)
(0.00357532 -206.889 0)
(0.00539321 -206.891 0)
(0.00655411 -206.893 0)
(0.00704176 -206.896 0)
(0.00693498 -206.898 0)
(0.00636655 -206.901 0)
(0.00548425 -206.903 0)
(0.00442463 -206.905 0)
(0.00329969 -206.906 0)
(0.00219298 -206.907 0)
(0.00116151 -206.907 0)
(0.000240293 -206.907 0)
(-0.000552317 -206.907 0)
(-0.00120983 -206.907 0)
(-0.00173362 -206.906 0)
(-0.00212997 -206.906 0)
(-0.00240797 -206.905 0)
(-0.00257804 -206.904 0)
(-0.00265111 -206.903 0)
(-0.00263801 -206.902 0)
(-0.00254919 -206.901 0)
(-0.0023946 -206.9 0)
(-0.00218358 -206.9 0)
(-0.00192494 -206.899 0)
(-0.00162693 -206.898 0)
(-0.00129737 -206.898 0)
(-0.000943678 -206.897 0)
(-0.000572965 -206.897 0)
(-0.00019213 -206.897 0)
(0.000192065 -206.897 0)
(0.000572902 -206.897 0)
(0.000943617 -206.897 0)
(0.00129731 -206.898 0)
(0.00162688 -206.898 0)
(0.00192489 -206.899 0)
(0.00218354 -206.9 0)
(0.00239456 -206.9 0)
(0.00254917 -206.901 0)
(0.00263799 -206.902 0)
(0.00265111 -206.903 0)
(0.00257805 -206.904 0)
(0.00240798 -206.905 0)
(0.00213 -206.906 0)
(0.00173365 -206.906 0)
(0.00120987 -206.907 0)
(0.000552373 -206.907 0)
(-0.000240228 -206.907 0)
(-0.00116143 -206.907 0)
(-0.0021929 -206.907 0)
(-0.00329961 -206.906 0)
(-0.00442455 -206.905 0)
(-0.00548417 -206.903 0)
(-0.00636647 -206.901 0)
(-0.0069349 -206.898 0)
(-0.0070417 -206.896 0)
(-0.00655406 -206.893 0)
(-0.00539317 -206.891 0)
(-0.00357529 -206.889 0)
(-0.00125563 -206.895 0)
(0.00391546 14.6207 0)
(0.0107776 14.6268 0)
(0.0159576 14.6268 0)
(0.0193993 14.6267 0)
(0.0208507 14.6267 0)
(0.020543 14.6266 0)
(0.0188674 14.6265 0)
(0.0162603 14.6264 0)
(0.0131256 14.6263 0)
(0.00979499 14.6263 0)
(0.0065162 14.6262 0)
(0.00345863 14.6262 0)
(0.000726581 14.6262 0)
(-0.00162513 14.6262 0)
(-0.00357685 14.6262 0)
(-0.00513235 14.6262 0)
(-0.00631003 14.6262 0)
(-0.00713659 14.6263 0)
(-0.00764291 14.6263 0)
(-0.00786126 14.6263 0)
(-0.00782374 14.6264 0)
(-0.00756136 14.6264 0)
(-0.00710358 14.6264 0)
(-0.00647817 14.6265 0)
(-0.00571124 14.6265 0)
(-0.00482733 14.6265 0)
(-0.00384965 14.6266 0)
(-0.00280023 14.6266 0)
(-0.00170023 14.6266 0)
(-0.000570134 14.6266 0)
(0.000569944 14.6266 0)
(0.00170004 14.6266 0)
(0.00280005 14.6266 0)
(0.00384948 14.6266 0)
(0.00482718 14.6265 0)
(0.0057111 14.6265 0)
(0.00647805 14.6265 0)
(0.00710348 14.6264 0)
(0.00756129 14.6264 0)
(0.0078237 14.6264 0)
(0.00786124 14.6263 0)
(0.00764292 14.6263 0)
(0.00713664 14.6263 0)
(0.0063101 14.6262 0)
(0.00513246 14.6262 0)
(0.00357699 14.6262 0)
(0.0016253 14.6262 0)
(-0.000726389 14.6262 0)
(-0.00345842 14.6262 0)
(-0.00651597 14.6262 0)
(-0.00979474 14.6263 0)
(-0.0131254 14.6263 0)
(-0.0162601 14.6264 0)
(-0.0188672 14.6265 0)
(-0.0205428 14.6266 0)
(-0.0208505 14.6267 0)
(-0.0193991 14.6267 0)
(-0.0159574 14.6268 0)
(-0.0107776 14.6268 0)
(-0.00391544 14.6207 0)
(0.00626391 37.6489 0)
(0.0175197 37.6457 0)
(0.0261809 37.6461 0)
(0.0318409 37.6466 0)
(0.0342388 37.6471 0)
(0.0337501 37.6475 0)
(0.0310137 37.648 0)
(0.0267436 37.6483 0)
(0.021602 37.6486 0)
(0.0161336 37.6488 0)
(0.0107461 37.6489 0)
(0.00571874 37.649 0)
(0.00122384 37.649 0)
(-0.0026475 37.6489 0)
(-0.00586214 37.6488 0)
(-0.00842563 37.6487 0)
(-0.0103677 37.6486 0)
(-0.011732 37.6485 0)
(-0.012569 37.6483 0)
(-0.0129317 37.6482 0)
(-0.0128727 37.648 0)
(-0.0124431 37.6479 0)
(-0.0116914 37.6477 0)
(-0.0106632 37.6476 0)
(-0.00940169 37.6475 0)
(-0.00794718 37.6474 0)
(-0.00633797 37.6473 0)
(-0.00461041 37.6473 0)
(-0.00279939 37.6472 0)
(-0.000938729 37.6472 0)
(0.000938415 37.6472 0)
(0.00279909 37.6472 0)
(0.00461012 37.6473 0)
(0.00633769 37.6473 0)
(0.00794693 37.6474 0)
(0.00940146 37.6475 0)
(0.010663 37.6476 0)
(0.0116912 37.6477 0)
(0.012443 37.6479 0)
(0.0128726 37.648 0)
(0.0129316 37.6482 0)
(0.012569 37.6483 0)
(0.0117321 37.6485 0)
(0.0103678 37.6486 0)
(0.00842581 37.6487 0)
(0.00586236 37.6488 0)
(0.00264777 37.6489 0)
(-0.00122352 37.649 0)
(-0.00571839 37.649 0)
(-0.0107458 37.6489 0)
(-0.0161332 37.6488 0)
(-0.0216016 37.6486 0)
(-0.0267432 37.6483 0)
(-0.0310133 37.648 0)
(-0.0337498 37.6475 0)
(-0.0342385 37.6471 0)
(-0.0318406 37.6466 0)
(-0.0261807 37.6461 0)
(-0.0175196 37.6457 0)
(-0.00626387 37.6489 0)
(0.00843567 8.78221 0)
(0.0238782 8.77896 0)
(0.0359289 8.7793 0)
(0.0437174 8.77971 0)
(0.0470346 8.78013 0)
(0.0463899 8.78052 0)
(0.0426549 8.78085 0)
(0.0368067 8.7811 0)
(0.0297532 8.78127 0)
(0.0222427 8.78137 0)
(0.0148364 8.78142 0)
(0.0079196 8.78143 0)
(0.00173102 8.78139 0)
(-0.00360257 8.78134 0)
(-0.00803429 8.78126 0)
(-0.0115707 8.78117 0)
(-0.0142519 8.78107 0)
(-0.0161374 8.78096 0)
(-0.0172963 8.78086 0)
(-0.0178011 8.78076 0)
(-0.0177245 8.78066 0)
(-0.0171364 8.78057 0)
(-0.0161038 8.78048 0)
(-0.0146895 8.7804 0)
(-0.012953 8.78033 0)
(-0.01095 8.78028 0)
(-0.0087333 8.78023 0)
(-0.00635314 8.78019 0)
(-0.00385768 8.78017 0)
(-0.00129362 8.78016 0)
(0.00129319 8.78016 0)
(0.00385725 8.78017 0)
(0.00635273 8.78019 0)
(0.00873292 8.78023 0)
(0.0109496 8.78028 0)
(0.0129527 8.78033 0)
(0.0146893 8.7804 0)
(0.0161036 8.78048 0)
(0.0171363 8.78057 0)
(0.0177244 8.78066 0)
(0.0178011 8.78076 0)
(0.0172963 8.78086 0)
(0.0161375 8.78096 0)
(0.0142521 8.78107 0)
(0.011571 8.78117 0)
(0.0080346 8.78126 0)
(0.00360295 8.78134 0)
(-0.00173059 8.78139 0)
(-0.00791911 8.78143 0)
(-0.0148358 8.78142 0)
(-0.0222421 8.78137 0)
(-0.0297526 8.78127 0)
(-0.0368062 8.7811 0)
(-0.0426544 8.78085 0)
(-0.0463894 8.78052 0)
(-0.0470342 8.78013 0)
(-0.043717 8.77971 0)
(-0.0359286 8.7793 0)
(-0.023878 8.77896 0)
(-0.00843561 8.78221 0)
(0.0105433 -1.58344 0)
(0.0299397 -1.58364 0)
(0.0451416 -1.58323 0)
(0.0549561 -1.58276 0)
(0.0591608 -1.58229 0)
(0.058387 -1.58188 0)
(0.0537228 -1.58157 0)
(0.0463917 -1.58135 0)
(0.0375332 -1.58122 0)
(0.0280886 -1.58117 0)
(0.0187655 -1.58117 0)
(0.0100508 -1.58121 0)
(0.00224742 -1.58128 0)
(-0.00448288 -1.58136 0)
(-0.0100792 -1.58146 0)
(-0.0145482 -1.58156 0)
(-0.0179395 -1.58166 0)
(-0.020327 -1.58175 0)
(-0.0217974 -1.58184 0)
(-0.0224419 -1.58193 0)
(-0.0223516 -1.58201 0)
(-0.0216149 -1.58208 0)
(-0.0203161 -1.58214 0)
(-0.0185346 -1.5822 0)
(-0.0163454 -1.58225 0)
(-0.0138191 -1.58229 0)
(-0.0110224 -1.58232 0)
(-0.00801878 -1.58234 0)
(-0.00486923 -1.58236 0)
(-0.00163286 -1.58237 0)
(0.00163232 -1.58237 0)
(0.00486869 -1.58236 0)
(0.00801826 -1.58234 0)
(0.0110219 -1.58232 0)
(0.0138187 -1.58229 0)
(0.016345 -1.58225 0)
(0.0185343 -1.5822 0)
(0.0203158 -1.58214 0)
(0.0216147 -1.58208 0)
(0.0223514 -1.58201 0)
(0.0224418 -1.58193 0)
(0.0217974 -1.58184 0)
(0.0203272 -1.58175 0)
(0.0179397 -1.58166 0)
(0.0145485 -1.58156 0)
(0.0100796 -1.58146 0)
(0.00448336 -1.58136 0)
(-0.00224687 -1.58128 0)
(-0.0100502 -1.58121 0)
(-0.0187648 -1.58117 0)
(-0.0280879 -1.58117 0)
(-0.0375324 -1.58122 0)
(-0.046391 -1.58135 0)
(-0.0537221 -1.58157 0)
(-0.0583863 -1.58188 0)
(-0.0591602 -1.58229 0)
(-0.0549556 -1.58276 0)
(-0.0451412 -1.58323 0)
(-0.0299395 -1.58364 0)
(-0.0105432 -1.58344 0)
(0.012547 -0.972722 0)
(0.0356471 -0.971896 0)
(0.0537782 -0.971333 0)
(0.0655076 -0.970688 0)
(0.0705645 -0.970057 0)
(0.0696896 -0.969523 0)
(0.0641702 -0.969122 0)
(0.0554584 -0.968858 0)
(0.0449101 -0.968716 0)
(0.033648 -0.968673 0)
(0.0225184 -0.968702 0)
(0.012105 -0.968781 0)
(0.00277234 -0.96889 0)
(-0.00528343 -0.969016 0)
(-0.0119871 -0.969148 0)
(-0.0173449 -0.96928 0)
(-0.0214144 -0.969406 0)
(-0.024283 -0.969526 0)
(-0.0260535 -0.969636 0)
(-0.0268345 -0.969736 0)
(-0.0267349 -0.969826 0)
(-0.0258601 -0.969906 0)
(-0.024311 -0.969976 0)
(-0.0221828 -0.970037 0)
(-0.0195653 -0.970089 0)
(-0.016543 -0.970131 0)
(-0.013196 -0.970165 0)
(-0.00960065 -0.97019 0)
(-0.00583001 -0.970206 0)
(-0.00195509 -0.970214 0)
(0.00195444 -0.970214 0)
(0.00582937 -0.970206 0)
(0.00960004 -0.97019 0)
(0.0131955 -0.970165 0)
(0.0165425 -0.970131 0)
(0.0195648 -0.970089 0)
(0.0221824 -0.970037 0)
(0.0243107 -0.969976 0)
(0.0258599 -0.969906 0)
(0.0267347 -0.969826 0)
(0.0268345 -0.969736 0)
(0.0260536 -0.969636 0)
(0.0242832 -0.969526 0)
(0.0214147 -0.969407 0)
(0.0173453 -0.96928 0)
(0.0119876 -0.969148 0)
(0.005284 -0.969016 0)
(-0.00277168 -0.96889 0)
(-0.0121042 -0.968781 0)
(-0.0225176 -0.968702 0)
(-0.0336472 -0.968673 0)
(-0.0449092 -0.968716 0)
(-0.0554575 -0.968858 0)
(-0.0641693 -0.969122 0)
(-0.0696888 -0.969523 0)
(-0.0705638 -0.970057 0)
(-0.0655071 -0.970688 0)
(-0.0537777 -0.971333 0)
(-0.0356468 -0.971896 0)
(-0.0125469 -0.972722 0)
(0.0144014 0.110854 0)
(0.0409395 0.111512 0)
(0.0618029 0.112278 0)
(0.0753287 0.113157 0)
(0.0811992 0.11401 0)
(0.0802522 0.114727 0)
(0.0739556 0.11526 0)
(0.0639713 0.115604 0)
(0.0518556 0.115781 0)
(0.0389003 0.115826 0)
(0.0260817 0.115774 0)
(0.0140754 0.115657 0)
(0.00330505 0.115502 0)
(-0.0059999 0.115326 0)
(-0.0137497 0.115146 0)
(-0.0199491 0.114968 0)
(-0.0246626 0.114799 0)
(-0.0279896 0.114642 0)
(-0.0300479 0.114499 0)
(-0.0309621 0.11437 0)
(-0.0308576 0.114255 0)
(-0.029856 0.114154 0)
(-0.0280736 0.114066 0)
(-0.0256204 0.113991 0)
(-0.0226004 0.113928 0)
(-0.0191114 0.113876 0)
(-0.0152461 0.113835 0)
(-0.0110929 0.113805 0)
(-0.00673642 0.113785 0)
(-0.0022591 0.113775 0)
(0.00225835 0.113775 0)
(0.00673568 0.113785 0)
(0.0110921 0.113805 0)
(0.0152454 0.113835 0)
(0.0191108 0.113876 0)
(0.0225999 0.113928 0)
(0.02562 0.113991 0)
(0.0280732 0.114066 0)
(0.0298557 0.114154 0)
(0.0308574 0.114255 0)
(0.0309621 0.11437 0)
(0.0300479 0.114499 0)
(0.0279898 0.114642 0)
(0.0246629 0.114799 0)
(0.0199495 0.114968 0)
(0.0137503 0.115145 0)
(0.00600056 0.115326 0)
(-0.00330429 0.115502 0)
(-0.0140745 0.115657 0)
(-0.0260807 0.115774 0)
(-0.0388994 0.115826 0)
(-0.0518546 0.115781 0)
(-0.0639703 0.115604 0)
(-0.0739546 0.11526 0)
(-0.0802513 0.114727 0)
(-0.0811984 0.11401 0)
(-0.075328 0.113157 0)
(-0.0618024 0.112279 0)
(-0.0409392 0.111512 0)
(-0.0144013 0.110854 0)
(0.016096 0.174411 0)
(0.0457923 0.175005 0)
(0.0691831 0.176016 0)
(0.0843796 0.177176 0)
(0.0910225 0.178299 0)
(0.0900331 0.179241 0)
(0.0830409 0.17994 0)
(0.0718979 0.180389 0)
(0.0583436 0.180617 0)
(0.0438262 0.18067 0)
(0.0294429 0.180597 0)
(0.0159558 0.180438 0)
(0.00384474 0.180229 0)
(-0.00662842 0.179996 0)
(-0.0153593 0.179756 0)
(-0.0223501 0.179522 0)
(-0.027671 0.1793 0)
(-0.0314323 0.179095 0)
(-0.0337651 0.178909 0)
(-0.0348089 0.178742 0)
(-0.0347041 0.178593 0)
(-0.0335874 0.178463 0)
(-0.0315896 0.178351 0)
(-0.0288347 0.178254 0)
(-0.0254396 0.178174 0)
(-0.0215149 0.178108 0)
(-0.0171651 0.178056 0)
(-0.0124899 0.178018 0)
(-0.00758515 0.177993 0)
(-0.00254378 0.17798 0)
(0.00254293 0.17798 0)
(0.00758431 0.177993 0)
(0.0124891 0.178018 0)
(0.0171643 0.178056 0)
(0.0215142 0.178108 0)
(0.025439 0.178174 0)
(0.0288342 0.178254 0)
(0.0315892 0.178351 0)
(0.0335871 0.178463 0)
(0.0347039 0.178593 0)
(0.0348089 0.178742 0)
(0.0337652 0.178909 0)
(0.0314326 0.179095 0)
(0.0276714 0.1793 0)
(0.0223505 0.179522 0)
(0.0153599 0.179756 0)
(0.00662916 0.179996 0)
(-0.00384388 0.180229 0)
(-0.0159548 0.180438 0)
(-0.0294418 0.180596 0)
(-0.0438251 0.18067 0)
(-0.0583425 0.180617 0)
(-0.0718968 0.180389 0)
(-0.0830398 0.17994 0)
(-0.0900321 0.179241 0)
(-0.0910216 0.178299 0)
(-0.0843788 0.177176 0)
(-0.0691826 0.176016 0)
(-0.0457919 0.175005 0)
(-0.0160959 0.174411 0)
(0.0176296 0.0329849 0)
(0.0501916 0.0337555 0)
(0.075889 0.0350494 0)
(0.0926238 0.0365357 0)
(0.0999949 0.0379735 0)
(0.0989936 0.0391807 0)
(0.0913905 0.0400759 0)
(0.0792076 0.0406511 0)
(0.0643497 0.0409436 0)
(0.0484076 0.0410113 0)
(0.0325901 0.0409157 0)
(0.0177401 0.0407115 0)
(0.00439053 0.0404431 0)
(-0.00716549 0.0401434 0)
(-0.0168086 0.0398356 0)
(-0.0245378 0.0395349 0)
(-0.0304277 0.0392505 0)
(-0.0345977 0.0389877 0)
(-0.0371909 0.0387489 0)
(-0.0383602 0.038535 0)
(-0.0382599 0.0383454 0)
(-0.0370404 0.0381794 0)
(-0.0348461 0.0380358 0)
(-0.0318137 0.0379134 0)
(-0.0280725 0.0378109 0)
(-0.0237446 0.0377273 0)
(-0.0189459 0.0376615 0)
(-0.0137867 0.0376129 0)
(-0.00837308 0.0375809 0)
(-0.00280809 0.0375649 0)
(0.00280715 0.0375649 0)
(0.00837216 0.0375809 0)
(0.0137858 0.0376129 0)
(0.0189451 0.0376615 0)
(0.0237439 0.0377272 0)
(0.0280718 0.0378109 0)
(0.0318131 0.0379134 0)
(0.0348456 0.0380358 0)
(0.0370401 0.0381794 0)
(0.0382597 0.0383454 0)
(0.0383601 0.0385349 0)
(0.037191 0.0387489 0)
(0.034598 0.0389877 0)
(0.0304281 0.0392505 0)
(0.0245384 0.0395348 0)
(0.0168093 0.0398356 0)
(0.00716631 0.0401434 0)
(-0.00438958 0.0404431 0)
(-0.017739 0.0407115 0)
(-0.032589 0.0409157 0)
(-0.0484064 0.0410113 0)
(-0.0643484 0.0409435 0)
(-0.0792063 0.0406511 0)
(-0.0913893 0.0400759 0)
(-0.0989925 0.0391807 0)
(-0.099994 0.0379736 0)
(-0.092623 0.0365358 0)
(-0.0758884 0.0350495 0)
(-0.0501912 0.0337555 0)
(-0.0176295 0.032985 0)
(0.0189978 -0.0140208 0)
(0.0541211 -0.0130213 0)
(0.0818931 -0.0114097 0)
(0.100028 -0.00955533 0)
(0.10808 -0.00776125 0)
(0.107098 -0.00625326 0)
(0.0989714 -0.00513339 0)
(0.0858718 -0.00441245 0)
(0.0698509 -0.0040445 0)
(0.0526274 -0.0039576 0)
(0.0355123 -0.00407537 0)
(0.0194226 -0.00432934 0)
(0.00494144 -0.00466418 0)
(-0.00760798 -0.00503855 0)
(-0.0180913 -0.00542344 0)
(-0.0265033 -0.00579974 0)
(-0.0329215 -0.0061557 0)
(-0.0374732 -0.00648475 0)
(-0.0403118 -0.00678375 0)
(-0.0416023 -0.00705178 0)
(-0.0415113 -0.0072892 0)
(-0.0402019 -0.00749713 0)
(-0.0378307 -0.007677 0)
(-0.0345462 -0.00783037 0)
(-0.0304891 -0.00795874 0)
(-0.0257923 -0.00806349 0)
(-0.020582 -0.0081458 0)
(-0.0149784 -0.00820666 0)
(-0.00909731 -0.00824682 0)
(-0.00305106 -0.00826677 0)
(0.00305003 -0.00826678 0)
(0.00909631 -0.00824683 0)
(0.0149774 -0.00820667 0)
(0.020581 -0.00814581 0)
(0.0257915 -0.0080635 0)
(0.0304883 -0.00795876 0)
(0.0345455 -0.00783039 0)
(0.0378302 -0.00767703 0)
(0.0402016 -0.00749715 0)
(0.0415111 -0.00728923 0)
(0.0416022 -0.00705181 0)
(0.0403119 -0.00678378 0)
(0.0374735 -0.00648478 0)
(0.032922 -0.00615573 0)
(0.0265039 -0.00579977 0)
(0.0180921 -0.00542347 0)
(0.00760887 -0.00503858 0)
(-0.00494041 -0.00466421 0)
(-0.0194215 -0.00432936 0)
(-0.035511 -0.00407539 0)
(-0.0526261 -0.00395761 0)
(-0.0698495 -0.00404451 0)
(-0.0858705 -0.00441245 0)
(-0.0989701 -0.00513337 0)
(-0.107096 -0.00625324 0)
(-0.108079 -0.00776122 0)
(-0.100027 -0.0095553 0)
(-0.0818924 -0.0114096 0)
(-0.0541207 -0.0130213 0)
(-0.0189976 -0.0140207 0)
(0.0201942 -0.0124185 0)
(0.0575642 -0.0112003 0)
(0.0871708 -0.0092391 0)
(0.106561 -0.00697861 0)
(0.115246 -0.00479046 0)
(0.114313 -0.00294864 0)
(0.105754 -0.00157842 0)
(0.0918647 -0.000694089 0)
(0.0748261 -0.000240503 0)
(0.0564701 -0.000130532 0)
(0.0381989 -0.000271306 0)
(0.0209978 -0.000579357 0)
(0.00549641 -0.000987116 0)
(-0.00795317 -0.00144394 0)
(-0.0192015 -0.00191425 0)
(-0.028238 -0.00237454 0)
(-0.0351422 -0.0028103 0)
(-0.0400473 -0.00321338 0)
(-0.0431157 -0.00357985 0)
(-0.0445226 -0.00390849 0)
(-0.044446 -0.00419972 0)
(-0.0430599 -0.00445485 0)
(-0.0405321 -0.00467561 0)
(-0.037022 -0.00486388 0)
(-0.0326804 -0.00502149 0)
(-0.0276503 -0.00515011 0)
(-0.0220672 -0.0052512 0)
(-0.0160606 -0.00532596 0)
(-0.00975516 -0.00537528 0)
(-0.00327177 -0.00539979 0)
(0.00327068 -0.00539979 0)
(0.00975408 -0.00537528 0)
(0.0160596 -0.00532597 0)
(0.0220662 -0.00525122 0)
(0.0276494 -0.00515013 0)
(0.0326796 -0.00502151 0)
(0.0370213 -0.0048639 0)
(0.0405316 -0.00467564 0)
(0.0430595 -0.00445488 0)
(0.0444457 -0.00419976 0)
(0.0445226 -0.00390853 0)
(0.0431158 -0.00357988 0)
(0.0400476 -0.00321342 0)
(0.0351427 -0.00281034 0)
(0.0282387 -0.00237458 0)
(0.0192023 -0.00191429 0)
(0.00795413 -0.00144397 0)
(-0.0054953 -0.000987145 0)
(-0.0209965 -0.000579382 0)
(-0.0381975 -0.000271325 0)
(-0.0564687 -0.000130544 0)
(-0.0748247 -0.000240507 0)
(-0.0918633 -0.000694084 0)
(-0.105752 -0.00157841 0)
(-0.114312 -0.00294861 0)
(-0.115245 -0.00479043 0)
(-0.106561 -0.00697856 0)
(-0.0871701 -0.00923905 0)
(-0.0575638 -0.0112003 0)
(-0.0201941 -0.0124185 0)
(0.0212138 -0.00979242 0)
(0.0605066 -0.0083505 0)
(0.091701 -0.00601043 0)
(0.112198 -0.00330857 0)
(0.121463 -0.000691246 0)
(0.120611 0.00151518 0)
(0.11171 0.00315978 0)
(0.0971631 0.00422411 0)
(0.0792566 0.00477295 0)
(0.0599214 0.00490973 0)
(0.0406405 0.00474515 0)
(0.0224605 0.00437897 0)
(0.00605426 0.00389215 0)
(-0.00819885 0.0033455 0)
(-0.0201341 0.00278187 0)
(-0.0297349 0.00222961 0)
(-0.0370809 0.0017063 0)
(-0.0423099 0.00122189 0)
(-0.0455916 0.000781206 0)
(-0.0471101 0.000385798 0)
(-0.0470528 3.52521e-05 0)
(-0.0456037 -0.000271948 0)
(-0.0429405 -0.000537851 0)
(-0.039232 -0.000764679 0)
(-0.0346384 -0.000954609 0)
(-0.0293118 -0.00110964 0)
(-0.0233962 -0.0012315 0)
(-0.0170294 -0.00132162 0)
(-0.0103442 -0.00138108 0)
(-0.00346945 -0.00141063 0)
(0.00346828 -0.00141064 0)
(0.0103431 -0.00138109 0)
(0.0170283 -0.00132163 0)
(0.0233951 -0.00123151 0)
(0.0293108 -0.00110966 0)
(0.0346376 -0.000954636 0)
(0.0392312 -0.00076471 0)
(0.0429399 -0.000537886 0)
(0.0456033 -0.000271986 0)
(0.0470525 3.52114e-05 0)
(0.04711 0.000385755 0)
(0.0455917 0.000781162 0)
(0.0423102 0.00122185 0)
(0.0370813 0.00170626 0)
(0.0297355 0.00222956 0)
(0.0201349 0.00278182 0)
(0.00819986 0.00334547 0)
(-0.00605309 0.00389212 0)
(-0.0224592 0.00437894 0)
(-0.0406391 0.00474512 0)
(-0.0599199 0.00490971 0)
(-0.0792551 0.00477295 0)
(-0.0971616 0.00422412 0)
(-0.111709 0.0031598 0)
(-0.120609 0.00151522 0)
(-0.121462 -0.000691202 0)
(-0.112197 -0.00330851 0)
(-0.0917002 -0.00601036 0)
(-0.0605061 -0.00835043 0)
(-0.0212136 -0.00979234 0)
(0.0220527 -0.0118568 0)
(0.0629375 -0.0101744 0)
(0.0954668 -0.00742875 0)
(0.116918 -0.00425302 0)
(0.126709 -0.00117383 0)
(0.125967 0.00142612 0)
(0.11682 0.00336793 0)
(0.101748 0.00462821 0)
(0.0831265 0.00528172 0)
(0.0629693 0.00544915 0)
(0.0428288 0.00526026 0)
(0.0238063 0.00483232 0)
(0.00661375 0.00426075 0)
(-0.00834337 0.00361738 0)
(-0.0208851 0.00295293 0)
(-0.0309878 0.00230111 0)
(-0.03873 0.00168288 0)
(-0.0442525 0.00111015 0)
(-0.0477305 0.000588778 0)
(-0.0493553 0.000120722 0)
(-0.0493223 -0.000294417 0)
(-0.0478243 -0.000658364 0)
(-0.0450472 -0.000973487 0)
(-0.0411683 -0.00124238 0)
(-0.0363564 -0.00146758 0)
(-0.030771 -0.00165143 0)
(-0.0245643 -0.00179596 0)
(-0.0178815 -0.00190287 0)
(-0.0108625 -0.00197341 0)
(-0.00364339 -0.00200847 0)
(0.00364217 -0.00200847 0)
(0.0108613 -0.00197342 0)
(0.0178803 -0.00190288 0)
(0.0245632 -0.00179598 0)
(0.03077 -0.00165145 0)
(0.0363555 -0.00146761 0)
(0.0411676 -0.00124241 0)
(0.0450465 -0.000973528 0)
(0.0478239 -0.000658409 0)
(0.0493221 -0.000294466 0)
(0.0493552 0.000120672 0)
(0.0477306 0.000588726 0)
(0.0442528 0.0011101 0)
(0.0387305 0.00168282 0)
(0.0309885 0.00230106 0)
(0.020886 0.00295288 0)
(0.00834444 0.00361733 0)
(-0.00661252 0.00426071 0)
(-0.0238049 0.00483229 0)
(-0.0428273 0.00526023 0)
(-0.0629677 0.00544913 0)
(-0.0831249 0.00528171 0)
(-0.101746 0.00462822 0)
(-0.116818 0.00336795 0)
(-0.125966 0.00142616 0)
(-0.126707 -0.00117377 0)
(-0.116917 -0.00425295 0)
(-0.095466 -0.00742868 0)
(-0.062937 -0.0101744 0)
(-0.0220525 -0.0118567 0)
(0.0227085 -0.0148896 0)
(0.0648494 -0.0129513 0)
(0.0984564 -0.00977584 0)
(0.120705 -0.0060966 0)
(0.130966 -0.00252537 0)
(0.130366 0.000495108 0)
(0.121066 0.00275574 0)
(0.105604 0.00422735 0)
(0.0864234 0.00499485 0)
(0.065604 0.00519703 0)
(0.0447571 0.00498377 0)
(0.0250312 0.00449096 0)
(0.0071735 0.00382947 0)
(-0.00838584 0.00308296 0)
(-0.0214517 0.00231069 0)
(-0.0319925 0.00155213 0)
(-0.0400841 0.000831938 0)
(-0.0458687 0.000164211 0)
(-0.0495254 -0.000444052 0)
(-0.051251 -0.000990422 0)
(-0.0512475 -0.00147525 0)
(-0.0497146 -0.00190047 0)
(-0.0468456 -0.00226876 0)
(-0.0428251 -0.00258311 0)
(-0.0378288 -0.00284644 0)
(-0.0320235 -0.00306146 0)
(-0.025568 -0.00323053 0)
(-0.0186141 -0.0033556 0)
(-0.0113084 -0.00343814 0)
(-0.00379307 -0.00347915 0)
(0.0037918 -0.00347916 0)
(0.0113071 -0.00343815 0)
(0.0186129 -0.00335561 0)
(0.0255668 -0.00323056 0)
(0.0320224 -0.0030615 0)
(0.0378279 -0.00284648 0)
(0.0428243 -0.00258315 0)
(0.0468449 -0.00226881 0)
(0.0497142 -0.00190052 0)
(0.0512472 -0.00147531 0)
(0.0512509 -0.000990481 0)
(0.0495255 -0.000444112 0)
(0.045869 0.000164149 0)
(0.0400846 0.000831877 0)
(0.0319932 0.00155207 0)
(0.0214526 0.00231063 0)
(0.00838696 0.00308291 0)
(-0.00717222 0.00382942 0)
(-0.0250297 0.00449092 0)
(-0.0447556 0.00498373 0)
(-0.0656024 0.00519701 0)
(-0.0864217 0.00499485 0)
(-0.105602 0.00422736 0)
(-0.121064 0.00275577 0)
(-0.130365 0.000495152 0)
(-0.130964 -0.00252531 0)
(-0.120704 -0.00609652 0)
(-0.0984556 -0.00977576 0)
(-0.0648489 -0.0129512 0)
(-0.0227083 -0.0148895 0)
(0.02318 -0.0177841 0)
(0.066239 -0.0155777 0)
(0.100664 -0.0119513 0)
(0.123551 -0.00774212 0)
(0.134225 -0.00365151 0)
(0.133796 -0.000185602 0)
(0.124437 0.00241414 0)
(0.108722 0.00411183 0)
(0.0891389 0.00500256 0)
(0.067819 0.00524384 0)
(0.0464205 0.00500662 0)
(0.0261319 0.00444643 0)
(0.00773205 0.00369046 0)
(-0.00832617 0.002835 0)
(-0.0218324 0.00194841 0)
(-0.0327463 0.0010764 0)
(-0.0411397 0.000247613 0)
(-0.0471544 -0.000521459 0)
(-0.0509718 -0.00122254 0)
(-0.0527925 -0.00185266 0)
(-0.0528235 -0.00241208 0)
(-0.05127 -0.00290292 0)
(-0.0483313 -0.00332821 0)
(-0.0441982 -0.0036913 0)
(-0.0390522 -0.00399555 0)
(-0.0330662 -0.00424403 0)
(-0.0264048 -0.00443944 0)
(-0.0192256 -0.004584 0)
(-0.0116808 -0.00467941 0)
(-0.00391813 -0.00472683 0)
(0.00391682 -0.00472684 0)
(0.0116795 -0.00467943 0)
(0.0192244 -0.00458402 0)
(0.0264036 -0.00443946 0)
(0.0330651 -0.00424406 0)
(0.0390512 -0.00399559 0)
(0.0441974 -0.00369135 0)
(0.0483307 -0.00332826 0)
(0.0512696 -0.00290298 0)
(0.0528232 -0.00241215 0)
(0.0527924 -0.00185273 0)
(0.0509719 -0.00122261 0)
(0.0471548 -0.00052153 0)
(0.0411403 0.000247541 0)
(0.0327471 0.00107633 0)
(0.0218334 0.00194834 0)
(0.00832733 0.00283494 0)
(-0.00773073 0.00369041 0)
(-0.0261304 0.00444638 0)
(-0.0464189 0.00500659 0)
(-0.0678173 0.00524382 0)
(-0.0891372 0.00500256 0)
(-0.10872 0.00411184 0)
(-0.124436 0.00241417 0)
(-0.133795 -0.000185552 0)
(-0.134224 -0.00365144 0)
(-0.12355 -0.00774203 0)
(-0.100663 -0.0119512 0)
(-0.0662384 -0.0155776 0)
(-0.0231798 -0.017784 0)
(0.023468 -0.0209593 0)
(0.0671078 -0.0184752 0)
(0.102092 -0.01438 0)
(0.125458 -0.00961791 0)
(0.136486 -0.00498367 0)
(0.136257 -0.00104979 0)
(0.126933 0.00190787 0)
(0.111098 0.00384567 0)
(0.0912697 0.00486874 0)
(0.069611 0.00515379 0)
(0.0478161 0.00489358 0)
(0.0271063 0.00426412 0)
(0.00828782 0.0034098 0)
(-0.00816528 0.00244022 0)
(-0.0220276 0.00143341 0)
(-0.033249 0.000441748 0)
(-0.0418961 -0.000501823 0)
(-0.0481086 -0.00137821 0)
(-0.0520684 -0.00217772 0)
(-0.0539782 -0.00289676 0)
(-0.0540486 -0.00353547 0)
(-0.0524888 -0.00409612 0)
(-0.0495028 -0.00458207 0)
(-0.045286 -0.00499709 0)
(-0.0400251 -0.00534494 0)
(-0.0338978 -0.00562909 0)
(-0.0270737 -0.00585258 0)
(-0.0197152 -0.00601794 0)
(-0.0119792 -0.0061271 0)
(-0.00401842 -0.00618135 0)
(0.00401707 -0.00618135 0)
(0.0119779 -0.00612711 0)
(0.019714 -0.00601797 0)
(0.0270725 -0.00585261 0)
(0.0338967 -0.00562913 0)
(0.0400241 -0.00534499 0)
(0.0452852 -0.00499715 0)
(0.0495021 -0.00458214 0)
(0.0524884 -0.00409619 0)
(0.0540483 -0.00353554 0)
(0.0539781 -0.00289684 0)
(0.0520685 -0.0021778 0)
(0.048109 -0.00137829 0)
(0.0418967 -0.000501904 0)
(0.0332498 0.000441669 0)
(0.0220286 0.00143334 0)
(0.00816647 0.00244015 0)
(-0.00828646 0.00340974 0)
(-0.0271048 0.00426407 0)
(-0.0478144 0.00489354 0)
(-0.0696093 0.00515376 0)
(-0.091268 0.00486874 0)
(-0.111096 0.00384568 0)
(-0.126931 0.0019079 0)
(-0.136255 -0.00104973 0)
(-0.136485 -0.00498359 0)
(-0.125456 -0.00961781 0)
(-0.102091 -0.0143799 0)
(-0.0671072 -0.0184751 0)
(-0.0234678 -0.0209592 0)
(0.023575 -0.0248882 0)
(0.0674629 -0.0221188 0)
(0.102749 -0.0175402 0)
(0.126435 -0.0122059 0)
(0.137759 -0.00700701 0)
(0.137756 -0.00258505 0)
(0.128558 0.000747787 0)
(0.112738 0.00293902 0)
(0.0928184 0.00410351 0)
(0.070981 0.00443735 0)
(0.0489437 0.00415574 0)
(0.0279532 0.00345589 0)
(0.00883912 0.0025001 0)
(-0.00790523 0.00141192 0)
(-0.0220395 0.000279636 0)
(-0.033503 -0.000837334 0)
(-0.0423557 -0.00190142 0)
(-0.0487335 -0.00289071 0)
(-0.0528172 -0.00379396 0)
(-0.0548101 -0.00460685 0)
(-0.0549246 -0.00532934 0)
(-0.0533726 -0.00596384 0)
(-0.0503613 -0.00651402 0)
(-0.0460899 -0.00698406 0)
(-0.0407487 -0.00737813 0)
(-0.0345194 -0.00770011 0)
(-0.0275755 -0.00795341 0)
(-0.0200835 -0.00814085 0)
(-0.0122041 -0.00826459 0)
(-0.00409404 -0.00832609 0)
(0.00409266 -0.0083261 0)
(0.0122028 -0.0082646 0)
(0.0200822 -0.00814087 0)
(0.0275742 -0.00795344 0)
(0.0345182 -0.00770015 0)
(0.0407477 -0.00737818 0)
(0.046089 -0.00698413 0)
(0.0503606 -0.0065141 0)
(0.0533721 -0.00596392 0)
(0.0549243 -0.00532942 0)
(0.05481 -0.00460694 0)
(0.0528173 -0.00379405 0)
(0.0487339 -0.0028908 0)
(0.0423562 -0.00190151 0)
(0.0335038 -0.000837423 0)
(0.0220405 0.000279551 0)
(0.00790644 0.00141184 0)
(-0.00883773 0.00250003 0)
(-0.0279517 0.00345583 0)
(-0.048942 0.0041557 0)
(-0.0709792 0.00443732 0)
(-0.0928166 0.0041035 0)
(-0.112736 0.00293903 0)
(-0.128556 0.000747826 0)
(-0.137755 -0.00258499 0)
(-0.137758 -0.00700692 0)
(-0.126434 -0.0122058 0)
(-0.102748 -0.0175401 0)
(-0.0674623 -0.0221187 0)
(-0.0235749 -0.024888 0)
(0.0235061 -0.0301233 0)
(0.0673181 -0.0270631 0)
(0.102655 -0.0219899 0)
(0.126507 -0.0160676 0)
(0.138067 -0.0102861 0)
(0.138314 -0.0053582 0)
(0.12933 -0.00163419 0)
(0.113654 0.00082337 0)
(0.0937944 0.00213852 0)
(0.0719347 0.00252679 0)
(0.049806 0.00222618 0)
(0.0286729 0.00145568 0)
(0.00938411 0.000396124 0)
(-0.00754941 -0.000814359 0)
(-0.0218727 -0.00207677 0)
(-0.0335136 -0.0033242 0)
(-0.0425242 -0.00451415 0)
(-0.0490352 -0.00562166 0)
(-0.0532245 -0.00663377 0)
(-0.0552944 -0.00754532 0)
(-0.0554574 -0.00835602 0)
(-0.053927 -0.00906838 0)
(-0.0509121 -0.00968637 0)
(-0.0466143 -0.0102145 0)
(-0.0412268 -0.0106575 0)
(-0.0349341 -0.0110195 0)
(-0.0279127 -0.0113044 0)
(-0.0203322 -0.0115152 0)
(-0.0123565 -0.0116544 0)
(-0.00414537 -0.0117236 0)
(0.00414397 -0.0117236 0)
(0.0123551 -0.0116544 0)
(0.0203309 -0.0115152 0)
(0.0279115 -0.0113044 0)
(0.0349329 -0.0110196 0)
(0.0412258 -0.0106576 0)
(0.0466135 -0.0102146 0)
(0.0509114 -0.00968645 0)
(0.0539265 -0.00906847 0)
(0.0554571 -0.00835612 0)
(0.0552943 -0.00754542 0)
(0.0532246 -0.00663387 0)
(0.0490355 -0.00562176 0)
(0.0425247 -0.00451425 0)
(0.0335144 -0.0033243 0)
(0.0218737 -0.00207687 0)
(0.00755063 -0.000814448 0)
(-0.0093827 0.000396045 0)
(-0.0286713 0.00145561 0)
(-0.0498043 0.00222613 0)
(-0.0719329 0.00252676 0)
(-0.0937926 0.00213851 0)
(-0.113652 0.000823386 0)
(-0.129328 -0.00163414 0)
(-0.138313 -0.00535813 0)
(-0.138066 -0.010286 0)
(-0.126506 -0.0160674 0)
(-0.102654 -0.0219897 0)
(-0.0673175 -0.0270629 0)
(-0.023506 -0.0301231 0)
(0.023269 -0.0379784 0)
(0.0666948 -0.0346232 0)
(0.101841 -0.029047 0)
(0.125708 -0.022524 0)
(0.137446 -0.0161445 0)
(0.137966 -0.0106942 0)
(0.129279 -0.0065636 0)
(0.11387 -0.00382662 0)
(0.0942149 -0.0023508 0)
(0.0724838 -0.00190143 0)
(0.0504093 -0.00221752 0)
(0.0292671 -0.00305785 0)
(0.00992082 -0.00422252 0)
(-0.00710277 -0.00555828 0)
(-0.0215343 -0.00695492 0)
(-0.0332897 -0.00833761 0)
(-0.0424117 -0.0096586 0)
(-0.0490245 -0.0108896 0)
(-0.0533013 -0.0120158 0)
(-0.055442 -0.013031 0)
(-0.0556579 -0.0139346 0)
(-0.0541622 -0.0147291 0)
(-0.0511645 -0.0154187 0)
(-0.0468679 -0.0160084 0)
(-0.0414669 -0.0165032 0)
(-0.0351482 -0.0169077 0)
(-0.0280903 -0.0172261 0)
(-0.020465 -0.0174618 0)
(-0.0124386 -0.0176175 0)
(-0.00417314 -0.0176948 0)
(0.00417173 -0.0176949 0)
(0.0124372 -0.0176175 0)
(0.0204637 -0.0174619 0)
(0.0280891 -0.0172262 0)
(0.0351471 -0.0169078 0)
(0.0414659 -0.0165033 0)
(0.046867 -0.0160085 0)
(0.0511638 -0.0154188 0)
(0.0541617 -0.0147292 0)
(0.0556576 -0.0139347 0)
(0.0554419 -0.0130311 0)
(0.0533014 -0.0120159 0)
(0.0490248 -0.0108897 0)
(0.0424123 -0.00965871 0)
(0.0332905 -0.00833772 0)
(0.0215353 -0.00695502 0)
(0.007104 -0.00555838 0)
(-0.00991941 -0.0042226 0)
(-0.0292655 -0.00305793 0)
(-0.0504076 -0.00221758 0)
(-0.072482 -0.00190147 0)
(-0.0942131 -0.00235081 0)
(-0.113868 -0.0038266 0)
(-0.129277 -0.00656356 0)
(-0.137964 -0.0106941 0)
(-0.137445 -0.0161444 0)
(-0.125707 -0.0225239 0)
(-0.10184 -0.0290469 0)
(-0.0666942 -0.034623 0)
(-0.0232688 -0.0379782 0)
(0.0228745 -0.0515763 0)
(0.0656232 -0.0479216 0)
(0.100352 -0.0418365 0)
(0.12409 -0.0347021 0)
(0.135949 -0.0277105 0)
(0.136761 -0.0217221 0)
(0.128447 -0.0171691 0)
(0.113421 -0.0141386 0)
(0.0941067 -0.0124908 0)
(0.0726462 -0.0119721 0)
(0.050764 -0.0122986 0)
(0.0297394 -0.0132067 0)
(0.0104471 -0.0144768 0)
(-0.00657203 -0.0159401 0)
(-0.0210347 -0.0174746 0)
(-0.0328444 -0.0189972 0)
(-0.0420332 -0.0204545 0)
(-0.0487174 -0.0218146 0)
(-0.0530644 -0.0230604 0)
(-0.0552697 -0.0241848 0)
(-0.0555422 -0.0251865 0)
(-0.0540936 -0.026068 0)
(-0.051133 -0.0268338 0)
(-0.0468635 -0.0274891 0)
(-0.0414805 -0.0280392 0)
(-0.0351713 -0.0284891 0)
(-0.0281159 -0.0288434 0)
(-0.0204874 -0.0291057 0)
(-0.0124537 -0.029279 0)
(-0.00417846 -0.0293652 0)
(0.00417705 -0.0293652 0)
(0.0124523 -0.029279 0)
(0.0204861 -0.0291058 0)
(0.0281146 -0.0288434 0)