/*--------------------------------*- C++ -*----------------------------------*\
| =========                 |                                                 |
| \\      /  F ield         | foam-extend: Open Source CFD                    |
|  \\    /   O peration     | Version:     4.0                                |
|   \\  /    A nd           | Web:         http://www.foam-extend.org         |
|    \\/     M anipulation  |                                                 |
\*---------------------------------------------------------------------------*/
FoamFile
{
    version     2.0;
    format      ascii;
    class       regIOobject;
    location    "1950/uniform";
    object      profilingInfo;
}
// * * * * * * * * * * * * * * * * * * * * * * * * * * * * * * * * * * * * * //

profilingInfo
(

    {
        id              6;
        parentId        4;
        description     "Foam::Time::writeObject - outputTime";
        calls           195;
        totalTime       3.93554;
        childTime       0;
        onStack         1;
    }

    {
        id              4;
        parentId        1;
        description     "Foam::Time::writeObject";
        calls           1950;
        totalTime       3.94245;
        childTime       3.93554;
        onStack         1;
    }

    {
        id              1;
        description     "application::main";
        calls           1;
        totalTime       210.325;
        childTime       3.94447;
        onStack         1;
    }

    {
        id              3;
        parentId        2;
        description     "functionObjectList::read";
        calls           1;
        totalTime       5e-06;
        childTime       0;
        onStack         0;
    }

    {
        id              5;
        parentId        1;
        description     "functionObjects_.execute()";
        calls           1949;
        totalTime       0.002003;
        childTime       0;
        onStack         0;
    }

    {
        id              2;
        parentId        1;
        description     "functionObjects_.start()";
        calls           1;
        totalTime       1.4e-05;
        childTime       5e-06;
        onStack         0;
    }
);


// ************************************************************************* //
