/*--------------------------------*- C++ -*----------------------------------*\
| =========                 |                                                 |
| \\      /  F ield         | foam-extend: Open Source CFD                    |
|  \\    /   O peration     | Version:     4.0                                |
|   \\  /    A nd           | Web:         http://www.foam-extend.org         |
|    \\/     M anipulation  |                                                 |
\*---------------------------------------------------------------------------*/
FoamFile
{
    version     2.0;
    format      ascii;
    class       volScalarField;
    location    "1640";
    object      cPlus;
}
// * * * * * * * * * * * * * * * * * * * * * * * * * * * * * * * * * * * * * //

dimensions      [0 0 0 0 0 0 0];

internalField   nonuniform List<scalar> 
6960
(
0.350087
0.350085
0.350083
0.35008
0.350077
0.350074
0.350072
0.350069
0.350067
0.350065
0.350063
0.350061
0.350059
0.350057
0.350056
0.350054
0.350053
0.350052
0.350051
0.35005
0.350049
0.350048
0.350047
0.350047
0.350046
0.350046
0.350045
0.350045
0.350045
0.350045
0.350045
0.350045
0.350045
0.350045
0.350046
0.350046
0.350047
0.350047
0.350048
0.350049
0.35005
0.350051
0.350052
0.350053
0.350054
0.350056
0.350057
0.350059
0.350061
0.350063
0.350065
0.350067
0.350069
0.350072
0.350074
0.350077
0.35008
0.350083
0.350085
0.350087
0.126171
0.12617
0.126168
0.126165
0.126163
0.126161
0.126158
0.126156
0.126154
0.126153
0.126151
0.126149
0.126148
0.126146
0.126145
0.126144
0.126143
0.126142
0.126141
0.12614
0.126139
0.126139
0.126138
0.126138
0.126137
0.126137
0.126137
0.126136
0.126136
0.126136
0.126136
0.126136
0.126136
0.126137
0.126137
0.126137
0.126138
0.126138
0.126139
0.126139
0.12614
0.126141
0.126142
0.126143
0.126144
0.126145
0.126146
0.126148
0.126149
0.126151
0.126153
0.126154
0.126156
0.126158
0.126161
0.126163
0.126165
0.126168
0.12617
0.126171
0.0538072
0.0538061
0.0538047
0.0538031
0.0538015
0.0538
0.0537985
0.0537971
0.0537958
0.0537945
0.0537934
0.0537923
0.0537912
0.0537903
0.0537894
0.0537886
0.0537879
0.0537872
0.0537866
0.053786
0.0537855
0.0537851
0.0537847
0.0537844
0.0537841
0.0537839
0.0537837
0.0537835
0.0537834
0.0537834
0.0537834
0.0537834
0.0537835
0.0537837
0.0537839
0.0537841
0.0537844
0.0537847
0.0537851
0.0537855
0.053786
0.0537866
0.0537872
0.0537879
0.0537886
0.0537894
0.0537903
0.0537912
0.0537923
0.0537934
0.0537945
0.0537958
0.0537971
0.0537985
0.0538
0.0538015
0.0538031
0.0538047
0.0538061
0.0538072
0.0252199
0.0252193
0.0252185
0.0252175
0.0252166
0.0252157
0.0252148
0.025214
0.0252132
0.0252124
0.0252118
0.0252111
0.0252105
0.0252099
0.0252094
0.0252089
0.0252085
0.0252081
0.0252077
0.0252074
0.0252071
0.0252068
0.0252066
0.0252064
0.0252062
0.0252061
0.025206
0.0252059
0.0252058
0.0252058
0.0252058
0.0252058
0.0252059
0.025206
0.0252061
0.0252062
0.0252064
0.0252066
0.0252068
0.0252071
0.0252074
0.0252077
0.0252081
0.0252085
0.0252089
0.0252094
0.0252099
0.0252105
0.0252111
0.0252118
0.0252124
0.0252132
0.025214
0.0252148
0.0252157
0.0252166
0.0252175
0.0252185
0.0252193
0.0252199
0.013044
0.0130438
0.0130433
0.0130429
0.0130424
0.0130419
0.0130415
0.013041
0.0130406
0.0130403
0.0130399
0.0130396
0.0130393
0.013039
0.0130387
0.0130385
0.0130383
0.0130381
0.0130379
0.0130377
0.0130376
0.0130374
0.0130373
0.0130372
0.0130371
0.013037
0.013037
0.0130369
0.0130369
0.0130369
0.0130369
0.0130369
0.0130369
0.013037
0.013037
0.0130371
0.0130372
0.0130373
0.0130374
0.0130376
0.0130377
0.0130379
0.0130381
0.0130383
0.0130385
0.0130387
0.013039
0.0130393
0.0130396
0.0130399
0.0130403
0.0130406
0.013041
0.0130415
0.0130419
0.0130424
0.0130429
0.0130433
0.0130438
0.013044
0.00774393
0.00774388
0.00774374
0.00774357
0.0077434
0.00774323
0.00774306
0.0077429
0.00774275
0.00774261
0.00774248
0.00774235
0.00774224
0.00774213
0.00774203
0.00774194
0.00774186
0.00774178
0.00774171
0.00774165
0.00774159
0.00774154
0.0077415
0.00774146
0.00774143
0.0077414
0.00774138
0.00774136
0.00774135
0.00774135
0.00774135
0.00774135
0.00774136
0.00774138
0.0077414
0.00774143
0.00774146
0.0077415
0.00774154
0.00774159
0.00774165
0.00774171
0.00774178
0.00774186
0.00774194
0.00774203
0.00774213
0.00774224
0.00774235
0.00774248
0.00774261
0.00774275
0.0077429
0.00774306
0.00774323
0.0077434
0.00774357
0.00774374
0.00774388
0.00774393
0.00544761
0.00544769
0.00544772
0.00544773
0.00544773
0.00544773
0.00544773
0.00544773
0.00544773
0.00544773
0.00544773
0.00544773
0.00544773
0.00544773
0.00544773
0.00544773
0.00544773
0.00544773
0.00544772
0.00544772
0.00544772
0.00544772
0.00544772
0.00544772
0.00544772
0.00544772
0.00544772
0.00544772
0.00544772
0.00544772
0.00544772
0.00544772
0.00544772
0.00544772
0.00544772
0.00544772
0.00544772
0.00544772
0.00544772
0.00544772
0.00544772
0.00544772
0.00544773
0.00544773
0.00544773
0.00544773
0.00544773
0.00544773
0.00544773
0.00544773
0.00544773
0.00544773
0.00544773
0.00544773
0.00544773
0.00544773
0.00544773
0.00544772
0.00544769
0.00544761
0.00447422
0.00447437
0.0044745
0.00447461
0.00447471
0.00447481
0.0044749
0.00447498
0.00447507
0.00447514
0.00447522
0.00447528
0.00447535
0.0044754
0.00447546
0.00447551
0.00447555
0.0044756
0.00447563
0.00447567
0.0044757
0.00447573
0.00447575
0.00447577
0.00447579
0.00447581
0.00447582
0.00447583
0.00447583
0.00447583
0.00447583
0.00447583
0.00447583
0.00447582
0.00447581
0.00447579
0.00447577
0.00447575
0.00447573
0.0044757
0.00447567
0.00447563
0.0044756
0.00447555
0.00447551
0.00447546
0.0044754
0.00447535
0.00447528
0.00447522
0.00447514
0.00447507
0.00447498
0.0044749
0.00447481
0.00447471
0.00447461
0.0044745
0.00447437
0.00447422
0.00407893
0.00407912
0.00407929
0.00407946
0.00407961
0.00407976
0.0040799
0.00408004
0.00408016
0.00408028
0.00408039
0.00408049
0.00408059
0.00408068
0.00408076
0.00408084
0.00408091
0.00408098
0.00408103
0.00408109
0.00408114
0.00408118
0.00408121
0.00408125
0.00408127
0.0040813
0.00408131
0.00408133
0.00408134
0.00408134
0.00408134
0.00408134
0.00408133
0.00408131
0.0040813
0.00408127
0.00408125
0.00408121
0.00408118
0.00408114
0.00408109
0.00408103
0.00408098
0.00408091
0.00408084
0.00408076
0.00408068
0.00408059
0.00408049
0.00408039
0.00408028
0.00408016
0.00408004
0.0040799
0.00407976
0.00407961
0.00407946
0.00407929
0.00407912
0.00407893
0.00393263
0.00393284
0.00393304
0.00393323
0.00393341
0.00393359
0.00393375
0.00393391
0.00393406
0.0039342
0.00393433
0.00393445
0.00393457
0.00393467
0.00393477
0.00393486
0.00393494
0.00393502
0.00393509
0.00393515
0.00393521
0.00393526
0.0039353
0.00393534
0.00393537
0.0039354
0.00393542
0.00393544
0.00393545
0.00393545
0.00393545
0.00393545
0.00393544
0.00393542
0.0039354
0.00393537
0.00393534
0.0039353
0.00393526
0.00393521
0.00393515
0.00393509
0.00393502
0.00393494
0.00393486
0.00393477
0.00393467
0.00393457
0.00393445
0.00393433
0.0039342
0.00393406
0.00393391
0.00393375
0.00393359
0.00393341
0.00393323
0.00393304
0.00393284
0.00393263
0.00389197
0.0038922
0.00389241
0.00389262
0.00389281
0.003893
0.00389318
0.00389335
0.00389351
0.00389366
0.0038938
0.00389394
0.00389406
0.00389417
0.00389428
0.00389438
0.00389447
0.00389455
0.00389462
0.00389469
0.00389475
0.00389481
0.00389485
0.00389489
0.00389493
0.00389496
0.00389498
0.003895
0.00389501
0.00389501
0.00389501
0.00389501
0.003895
0.00389498
0.00389496
0.00389493
0.00389489
0.00389485
0.00389481
0.00389475
0.00389469
0.00389462
0.00389455
0.00389447
0.00389438
0.00389428
0.00389417
0.00389406
0.00389394
0.0038938
0.00389366
0.00389351
0.00389335
0.00389318
0.003893
0.00389281
0.00389262
0.00389241
0.0038922
0.00389197
0.00389581
0.00389604
0.00389626
0.00389647
0.00389668
0.00389687
0.00389706
0.00389724
0.0038974
0.00389756
0.00389771
0.00389784
0.00389797
0.00389809
0.0038982
0.0038983
0.0038984
0.00389848
0.00389856
0.00389863
0.00389869
0.00389875
0.0038988
0.00389884
0.00389888
0.00389891
0.00389893
0.00389895
0.00389896
0.00389897
0.00389897
0.00389896
0.00389895
0.00389893
0.00389891
0.00389888
0.00389884
0.0038988
0.00389875
0.00389869
0.00389863
0.00389856
0.00389848
0.0038984
0.0038983
0.0038982
0.00389809
0.00389797
0.00389784
0.00389771
0.00389756
0.0038974
0.00389724
0.00389706
0.00389687
0.00389668
0.00389647
0.00389626
0.00389604
0.00389581
0.00391865
0.00391889
0.00391911
0.00391933
0.00391954
0.00391974
0.00391993
0.00392011
0.00392028
0.00392044
0.00392059
0.00392074
0.00392087
0.00392099
0.0039211
0.00392121
0.0039213
0.00392139
0.00392147
0.00392154
0.00392161
0.00392166
0.00392171
0.00392176
0.00392179
0.00392182
0.00392185
0.00392187
0.00392188
0.00392189
0.00392189
0.00392188
0.00392187
0.00392185
0.00392182
0.00392179
0.00392176
0.00392171
0.00392166
0.00392161
0.00392154
0.00392147
0.00392139
0.0039213
0.00392121
0.0039211
0.00392099
0.00392087
0.00392074
0.00392059
0.00392044
0.00392028
0.00392011
0.00391993
0.00391974
0.00391954
0.00391933
0.00391911
0.00391889
0.00391865
0.0039502
0.00395044
0.00395067
0.00395089
0.00395111
0.00395131
0.00395151
0.00395169
0.00395186
0.00395203
0.00395218
0.00395232
0.00395246
0.00395258
0.0039527
0.0039528
0.0039529
0.00395299
0.00395307
0.00395314
0.00395321
0.00395327
0.00395332
0.00395336
0.0039534
0.00395343
0.00395346
0.00395348
0.00395349
0.00395349
0.00395349
0.00395349
0.00395348
0.00395346
0.00395343
0.0039534
0.00395336
0.00395332
0.00395327
0.00395321
0.00395314
0.00395307
0.00395299
0.0039529
0.0039528
0.0039527
0.00395258
0.00395246
0.00395232
0.00395218
0.00395203
0.00395186
0.00395169
0.00395151
0.00395131
0.00395111
0.00395089
0.00395067
0.00395044
0.0039502
0.00398646
0.00398671
0.00398694
0.00398716
0.00398738
0.00398759
0.00398779
0.00398797
0.00398815
0.00398832
0.00398847
0.00398862
0.00398875
0.00398888
0.003989
0.0039891
0.0039892
0.00398929
0.00398938
0.00398945
0.00398952
0.00398958
0.00398963
0.00398967
0.00398971
0.00398974
0.00398977
0.00398979
0.0039898
0.00398981
0.00398981
0.0039898
0.00398979
0.00398977
0.00398974
0.00398971
0.00398967
0.00398963
0.00398958
0.00398952
0.00398945
0.00398938
0.00398929
0.0039892
0.0039891
0.003989
0.00398888
0.00398875
0.00398862
0.00398847
0.00398832
0.00398815
0.00398797
0.00398779
0.00398759
0.00398738
0.00398716
0.00398694
0.00398671
0.00398646
0.00402599
0.00402624
0.00402648
0.00402671
0.00402693
0.00402714
0.00402734
0.00402753
0.00402771
0.00402788
0.00402804
0.00402818
0.00402832
0.00402845
0.00402857
0.00402868
0.00402878
0.00402887
0.00402895
0.00402903
0.0040291
0.00402916
0.00402921
0.00402926
0.0040293
0.00402933
0.00402935
0.00402937
0.00402939
0.00402939
0.00402939
0.00402939
0.00402937
0.00402935
0.00402933
0.0040293
0.00402926
0.00402921
0.00402916
0.0040291
0.00402903
0.00402895
0.00402887
0.00402878
0.00402868
0.00402857
0.00402845
0.00402832
0.00402818
0.00402804
0.00402788
0.00402771
0.00402753
0.00402734
0.00402714
0.00402693
0.00402671
0.00402648
0.00402624
0.00402599
0.00406839
0.00406864
0.00406888
0.00406911
0.00406934
0.00406955
0.00406976
0.00406995
0.00407013
0.0040703
0.00407046
0.00407061
0.00407075
0.00407088
0.00407101
0.00407112
0.00407122
0.00407131
0.0040714
0.00407147
0.00407154
0.0040716
0.00407166
0.00407171
0.00407174
0.00407178
0.0040718
0.00407182
0.00407184
0.00407184
0.00407184
0.00407184
0.00407182
0.0040718
0.00407178
0.00407174
0.00407171
0.00407166
0.0040716
0.00407154
0.00407147
0.0040714
0.00407131
0.00407122
0.00407112
0.00407101
0.00407088
0.00407075
0.00407061
0.00407046
0.0040703
0.00407013
0.00406995
0.00406976
0.00406955
0.00406934
0.00406911
0.00406888
0.00406864
0.00406839
0.00411364
0.0041139
0.00411415
0.00411438
0.00411461
0.00411483
0.00411504
0.00411523
0.00411542
0.00411559
0.00411576
0.00411591
0.00411605
0.00411618
0.00411631
0.00411642
0.00411652
0.00411662
0.00411671
0.00411678
0.00411686
0.00411692
0.00411697
0.00411702
0.00411706
0.00411709
0.00411712
0.00411714
0.00411715
0.00411716
0.00411716
0.00411715
0.00411714
0.00411712
0.00411709
0.00411706
0.00411702
0.00411697
0.00411692
0.00411686
0.00411678
0.00411671
0.00411662
0.00411652
0.00411642
0.00411631
0.00411618
0.00411605
0.00411591
0.00411576
0.00411559
0.00411542
0.00411523
0.00411504
0.00411483
0.00411461
0.00411438
0.00411415
0.0041139
0.00411364
0.00416194
0.0041622
0.00416245
0.00416269
0.00416292
0.00416314
0.00416335
0.00416355
0.00416374
0.00416392
0.00416409
0.00416424
0.00416439
0.00416452
0.00416465
0.00416476
0.00416487
0.00416497
0.00416506
0.00416514
0.00416521
0.00416527
0.00416533
0.00416537
0.00416542
0.00416545
0.00416548
0.0041655
0.00416551
0.00416552
0.00416552
0.00416551
0.0041655
0.00416548
0.00416545
0.00416542
0.00416537
0.00416533
0.00416527
0.00416521
0.00416514
0.00416506
0.00416497
0.00416487
0.00416476
0.00416465
0.00416452
0.00416439
0.00416424
0.00416409
0.00416392
0.00416374
0.00416355
0.00416335
0.00416314
0.00416292
0.00416269
0.00416245
0.0041622
0.00416194
0.00421352
0.00421379
0.00421405
0.00421429
0.00421453
0.00421475
0.00421497
0.00421517
0.00421537
0.00421555
0.00421572
0.00421588
0.00421602
0.00421616
0.00421629
0.00421641
0.00421652
0.00421661
0.0042167
0.00421679
0.00421686
0.00421692
0.00421698
0.00421703
0.00421707
0.00421711
0.00421713
0.00421715
0.00421717
0.00421717
0.00421717
0.00421717
0.00421715
0.00421713
0.00421711
0.00421707
0.00421703
0.00421698
0.00421692
0.00421686
0.00421679
0.0042167
0.00421661
0.00421652
0.00421641
0.00421629
0.00421616
0.00421602
0.00421588
0.00421572
0.00421555
0.00421537
0.00421517
0.00421497
0.00421475
0.00421453
0.00421429
0.00421405
0.00421379
0.00421352
0.00426872
0.004269
0.00426926
0.00426951
0.00426975
0.00426998
0.0042702
0.00427041
0.0042706
0.00427079
0.00427096
0.00427112
0.00427128
0.00427142
0.00427155
0.00427167
0.00427178
0.00427188
0.00427197
0.00427205
0.00427213
0.00427219
0.00427225
0.0042723
0.00427234
0.00427238
0.00427241
0.00427243
0.00427244
0.00427245
0.00427245
0.00427244
0.00427243
0.00427241
0.00427238
0.00427234
0.0042723
0.00427225
0.00427219
0.00427213
0.00427205
0.00427197
0.00427188
0.00427178
0.00427167
0.00427155
0.00427142
0.00427128
0.00427112
0.00427096
0.00427079
0.0042706
0.00427041
0.0042702
0.00426998
0.00426975
0.00426951
0.00426926
0.004269
0.00426872
0.0043279
0.00432818
0.00432845
0.00432871
0.00432895
0.00432919
0.00432941
0.00432963
0.00432983
0.00433002
0.00433019
0.00433036
0.00433051
0.00433066
0.00433079
0.00433091
0.00433102
0.00433113
0.00433122
0.00433131
0.00433138
0.00433145
0.00433151
0.00433156
0.0043316
0.00433164
0.00433167
0.00433169
0.00433171
0.00433171
0.00433171
0.00433171
0.00433169
0.00433167
0.00433164
0.0043316
0.00433156
0.00433151
0.00433145
0.00433138
0.00433131
0.00433122
0.00433113
0.00433102
0.00433091
0.00433079
0.00433066
0.00433051
0.00433036
0.00433019
0.00433002
0.00432983
0.00432963
0.00432941
0.00432919
0.00432895
0.00432871
0.00432845
0.00432818
0.0043279
0.00439149
0.00439178
0.00439205
0.00439231
0.00439257
0.00439281
0.00439304
0.00439325
0.00439346
0.00439365
0.00439384
0.004394
0.00439416
0.00439431
0.00439445
0.00439457
0.00439469
0.00439479
0.00439489
0.00439498
0.00439505
0.00439512
0.00439518
0.00439524
0.00439528
0.00439532
0.00439535
0.00439537
0.00439538
0.00439539
0.00439539
0.00439538
0.00439537
0.00439535
0.00439532
0.00439528
0.00439524
0.00439518
0.00439512
0.00439505
0.00439498
0.00439489
0.00439479
0.00439469
0.00439457
0.00439445
0.00439431
0.00439416
0.004394
0.00439384
0.00439365
0.00439346
0.00439325
0.00439304
0.00439281
0.00439257
0.00439231
0.00439205
0.00439178
0.00439149
0.00445998
0.00446028
0.00446056
0.00446082
0.00446108
0.00446133
0.00446157
0.00446179
0.004462
0.0044622
0.00446238
0.00446256
0.00446272
0.00446287
0.00446301
0.00446314
0.00446326
0.00446337
0.00446346
0.00446355
0.00446363
0.0044637
0.00446377
0.00446382
0.00446387
0.00446391
0.00446394
0.00446396
0.00446397
0.00446398
0.00446398
0.00446397
0.00446396
0.00446394
0.00446391
0.00446387
0.00446382
0.00446377
0.0044637
0.00446363
0.00446355
0.00446346
0.00446337
0.00446326
0.00446314
0.00446301
0.00446287
0.00446272
0.00446256
0.00446238
0.0044622
0.004462
0.00446179
0.00446157
0.00446133
0.00446108
0.00446082
0.00446056
0.00446028
0.00445998
0.00453394
0.00453425
0.00453453
0.00453481
0.00453508
0.00453533
0.00453557
0.0045358
0.00453602
0.00453622
0.00453641
0.00453659
0.00453676
0.00453691
0.00453706
0.00453719
0.00453731
0.00453742
0.00453752
0.00453761
0.0045377
0.00453777
0.00453783
0.00453789
0.00453794
0.00453797
0.00453801
0.00453803
0.00453804
0.00453805
0.00453805
0.00453804
0.00453803
0.00453801
0.00453797
0.00453794
0.00453789
0.00453783
0.00453777
0.0045377
0.00453761
0.00453752
0.00453742
0.00453731
0.00453719
0.00453706
0.00453691
0.00453676
0.00453659
0.00453641
0.00453622
0.00453602
0.0045358
0.00453557
0.00453533
0.00453508
0.00453481
0.00453453
0.00453425
0.00453394
0.00461404
0.00461436
0.00461465
0.00461494
0.00461521
0.00461547
0.00461572
0.00461596
0.00461618
0.00461639
0.00461659
0.00461677
0.00461694
0.0046171
0.00461725
0.00461739
0.00461751
0.00461763
0.00461773
0.00461783
0.00461791
0.00461798
0.00461805
0.00461811
0.00461816
0.0046182
0.00461823
0.00461825
0.00461827
0.00461828
0.00461828
0.00461827
0.00461825
0.00461823
0.0046182
0.00461816
0.00461811
0.00461805
0.00461798
0.00461791
0.00461783
0.00461773
0.00461763
0.00461751
0.00461739
0.00461725
0.0046171
0.00461694
0.00461677
0.00461659
0.00461639
0.00461618
0.00461596
0.00461572
0.00461547
0.00461521
0.00461494
0.00461465
0.00461436
0.00461404
0.00470107
0.0047014
0.0047017
0.00470199
0.00470228
0.00470255
0.0047028
0.00470305
0.00470328
0.00470349
0.0047037
0.00470389
0.00470406
0.00470423
0.00470438
0.00470452
0.00470465
0.00470477
0.00470488
0.00470497
0.00470506
0.00470514
0.00470521
0.00470527
0.00470532
0.00470536
0.00470539
0.00470541
0.00470543
0.00470544
0.00470544
0.00470543
0.00470541
0.00470539
0.00470536
0.00470532
0.00470527
0.00470521
0.00470514
0.00470506
0.00470497
0.00470488
0.00470477
0.00470465
0.00470452
0.00470438
0.00470423
0.00470406
0.00470389
0.0047037
0.00470349
0.00470328
0.00470305
0.0047028
0.00470255
0.00470228
0.00470199
0.0047017
0.0047014
0.00470107
0.00479595
0.00479629
0.0047966
0.00479691
0.0047972
0.00479748
0.00479774
0.004798
0.00479823
0.00479846
0.00479867
0.00479886
0.00479905
0.00479922
0.00479938
0.00479952
0.00479965
0.00479978
0.00479989
0.00479999
0.00480008
0.00480016
0.00480023
0.00480029
0.00480034
0.00480039
0.00480042
0.00480045
0.00480046
0.00480047
0.00480047
0.00480046
0.00480045
0.00480042
0.00480039
0.00480034
0.00480029
0.00480023
0.00480016
0.00480008
0.00479999
0.00479989
0.00479978
0.00479965
0.00479952
0.00479938
0.00479922
0.00479905
0.00479886
0.00479867
0.00479846
0.00479823
0.004798
0.00479774
0.00479748
0.0047972
0.00479691
0.0047966
0.00479629
0.00479595
0.00489979
0.00490014
0.00490047
0.00490078
0.00490109
0.00490138
0.00490165
0.00490191
0.00490216
0.00490239
0.00490261
0.00490282
0.00490301
0.00490318
0.00490335
0.0049035
0.00490364
0.00490376
0.00490388
0.00490398
0.00490408
0.00490416
0.00490423
0.0049043
0.00490435
0.00490439
0.00490443
0.00490446
0.00490447
0.00490448
0.00490448
0.00490447
0.00490446
0.00490443
0.00490439
0.00490435
0.0049043
0.00490423
0.00490416
0.00490408
0.00490398
0.00490388
0.00490376
0.00490364
0.0049035
0.00490335
0.00490318
0.00490301
0.00490282
0.00490261
0.00490239
0.00490216
0.00490191
0.00490165
0.00490138
0.00490109
0.00490078
0.00490047
0.00490014
0.00489979
0.00501393
0.00501429
0.00501463
0.00501496
0.00501528
0.00501558
0.00501586
0.00501614
0.00501639
0.00501663
0.00501686
0.00501707
0.00501727
0.00501746
0.00501763
0.00501778
0.00501793
0.00501806
0.00501818
0.00501829
0.00501839
0.00501847
0.00501855
0.00501861
0.00501867
0.00501872
0.00501875
0.00501878
0.0050188
0.00501881
0.00501881
0.0050188
0.00501878
0.00501875
0.00501872
0.00501867
0.00501861
0.00501855
0.00501847
0.00501839
0.00501829
0.00501818
0.00501806
0.00501793
0.00501778
0.00501763
0.00501746
0.00501727
0.00501707
0.00501686
0.00501663
0.00501639
0.00501614
0.00501586
0.00501558
0.00501528
0.00501496
0.00501463
0.00501429
0.00501393
0.00513997
0.00514036
0.00514071
0.00514105
0.00514138
0.0051417
0.005142
0.00514228
0.00514255
0.0051428
0.00514304
0.00514326
0.00514347
0.00514366
0.00514384
0.005144
0.00514415
0.00514429
0.00514442
0.00514453
0.00514463
0.00514472
0.0051448
0.00514487
0.00514493
0.00514498
0.00514502
0.00514505
0.00514507
0.00514508
0.00514508
0.00514507
0.00514505
0.00514502
0.00514498
0.00514493
0.00514487
0.0051448
0.00514472
0.00514463
0.00514453
0.00514442
0.00514429
0.00514415
0.005144
0.00514384
0.00514366
0.00514347
0.00514326
0.00514304
0.0051428
0.00514255
0.00514228
0.005142
0.0051417
0.00514138
0.00514105
0.00514071
0.00514036
0.00513997
0.00527993
0.00528033
0.0052807
0.00528106
0.00528141
0.00528174
0.00528205
0.00528235
0.00528263
0.0052829
0.00528314
0.00528338
0.00528359
0.00528379
0.00528398
0.00528415
0.00528431
0.00528446
0.00528459
0.00528471
0.00528481
0.00528491
0.00528499
0.00528507
0.00528513
0.00528518
0.00528522
0.00528525
0.00528527
0.00528528
0.00528528
0.00528527
0.00528525
0.00528522
0.00528518
0.00528513
0.00528507
0.00528499
0.00528491
0.00528481
0.00528471
0.00528459
0.00528446
0.00528431
0.00528415
0.00528398
0.00528379
0.00528359
0.00528338
0.00528314
0.0052829
0.00528263
0.00528235
0.00528205
0.00528174
0.00528141
0.00528106
0.0052807
0.00528033
0.00527993
0.00543626
0.00543668
0.00543707
0.00543745
0.00543781
0.00543816
0.0054385
0.00543881
0.00543911
0.00543939
0.00543965
0.00543989
0.00544012
0.00544033
0.00544053
0.00544071
0.00544088
0.00544103
0.00544117
0.0054413
0.00544141
0.00544151
0.0054416
0.00544167
0.00544174
0.00544179
0.00544183
0.00544187
0.00544189
0.0054419
0.0054419
0.00544189
0.00544187
0.00544183
0.00544179
0.00544174
0.00544167
0.0054416
0.00544151
0.00544141
0.0054413
0.00544117
0.00544103
0.00544088
0.00544071
0.00544053
0.00544033
0.00544012
0.00543989
0.00543965
0.00543939
0.00543911
0.00543881
0.0054385
0.00543816
0.00543781
0.00543745
0.00543707
0.00543668
0.00543626
0.00561208
0.00561253
0.00561295
0.00561335
0.00561373
0.0056141
0.00561445
0.00561479
0.0056151
0.0056154
0.00561568
0.00561594
0.00561618
0.0056164
0.00561661
0.0056168
0.00561698
0.00561714
0.00561729
0.00561742
0.00561754
0.00561765
0.00561774
0.00561782
0.00561789
0.00561795
0.005618
0.00561803
0.00561805
0.00561806
0.00561806
0.00561805
0.00561803
0.005618
0.00561795
0.00561789
0.00561782
0.00561774
0.00561765
0.00561754
0.00561742
0.00561729
0.00561714
0.00561698
0.0056168
0.00561661
0.0056164
0.00561618
0.00561594
0.00561568
0.0056154
0.0056151
0.00561479
0.00561445
0.0056141
0.00561373
0.00561335
0.00561295
0.00561253
0.00561208
0.00581139
0.00581187
0.00581231
0.00581274
0.00581315
0.00581354
0.00581392
0.00581428
0.00581461
0.00581493
0.00581522
0.0058155
0.00581576
0.005816
0.00581622
0.00581643
0.00581662
0.00581679
0.00581695
0.00581709
0.00581722
0.00581733
0.00581743
0.00581752
0.00581759
0.00581765
0.0058177
0.00581774
0.00581776
0.00581777
0.00581777
0.00581776
0.00581774
0.0058177
0.00581765
0.00581759
0.00581752
0.00581743
0.00581733
0.00581722
0.00581709
0.00581695
0.00581679
0.00581662
0.00581643
0.00581622
0.005816
0.00581576
0.0058155
0.00581522
0.00581493
0.00581461
0.00581428
0.00581392
0.00581354
0.00581315
0.00581274
0.00581231
0.00581187
0.00581139
0.00603936
0.00603988
0.00604035
0.00604081
0.00604126
0.00604168
0.00604209
0.00604247
0.00604283
0.00604317
0.00604349
0.00604379
0.00604406
0.00604432
0.00604456
0.00604478
0.00604499
0.00604517
0.00604534
0.0060455
0.00604563
0.00604576
0.00604586
0.00604596
0.00604603
0.0060461
0.00604615
0.00604619
0.00604622
0.00604623
0.00604623
0.00604622
0.00604619
0.00604615
0.0060461
0.00604603
0.00604596
0.00604586
0.00604576
0.00604563
0.0060455
0.00604534
0.00604517
0.00604499
0.00604478
0.00604456
0.00604432
0.00604406
0.00604379
0.00604349
0.00604317
0.00604283
0.00604247
0.00604209
0.00604168
0.00604126
0.00604081
0.00604035
0.00603988
0.00603936
0.00630288
0.00630344
0.00630396
0.00630446
0.00630494
0.0063054
0.00630584
0.00630625
0.00630665
0.00630701
0.00630736
0.00630768
0.00630799
0.00630827
0.00630853
0.00630877
0.00630899
0.00630919
0.00630937
0.00630954
0.00630969
0.00630982
0.00630994
0.00631004
0.00631013
0.0063102
0.00631025
0.0063103
0.00631032
0.00631034
0.00631034
0.00631032
0.0063103
0.00631025
0.0063102
0.00631013
0.00631004
0.00630994
0.00630982
0.00630969
0.00630954
0.00630937
0.00630919
0.00630899
0.00630877
0.00630853
0.00630827
0.00630799
0.00630768
0.00630736
0.00630701
0.00630665
0.00630625
0.00630584
0.0063054
0.00630494
0.00630446
0.00630396
0.00630344
0.00630288
0.00661126
0.00661187
0.00661244
0.00661299
0.00661352
0.00661402
0.0066145
0.00661496
0.00661539
0.0066158
0.00661618
0.00661653
0.00661686
0.00661717
0.00661746
0.00661772
0.00661796
0.00661819
0.00661839
0.00661857
0.00661873
0.00661888
0.00661901
0.00661912
0.00661921
0.00661929
0.00661935
0.0066194
0.00661943
0.00661945
0.00661945
0.00661943
0.0066194
0.00661935
0.00661929
0.00661921
0.00661912
0.00661901
0.00661888
0.00661873
0.00661857
0.00661839
0.00661819
0.00661796
0.00661772
0.00661746
0.00661717
0.00661686
0.00661653
0.00661618
0.0066158
0.00661539
0.00661496
0.0066145
0.00661402
0.00661352
0.00661299
0.00661244
0.00661187
0.00661126
0.0069774
0.00697808
0.00697871
0.00697932
0.00697991
0.00698047
0.00698101
0.00698152
0.00698199
0.00698245
0.00698287
0.00698327
0.00698363
0.00698398
0.0069843
0.00698459
0.00698486
0.00698511
0.00698533
0.00698554
0.00698572
0.00698588
0.00698602
0.00698615
0.00698625
0.00698634
0.00698641
0.00698646
0.00698649
0.00698651
0.00698651
0.00698649
0.00698646
0.00698641
0.00698634
0.00698625
0.00698615
0.00698602
0.00698588
0.00698572
0.00698554
0.00698533
0.00698511
0.00698486
0.00698459
0.0069843
0.00698398
0.00698363
0.00698327
0.00698287
0.00698245
0.00698199
0.00698152
0.00698101
0.00698047
0.00697991
0.00697932
0.00697871
0.00697808
0.0069774
0.00741958
0.00742035
0.00742106
0.00742175
0.00742241
0.00742305
0.00742366
0.00742423
0.00742477
0.00742528
0.00742576
0.00742621
0.00742663
0.00742702
0.00742738
0.00742771
0.00742802
0.0074283
0.00742855
0.00742878
0.00742899
0.00742917
0.00742933
0.00742947
0.00742959
0.00742969
0.00742977
0.00742983
0.00742987
0.00742989
0.00742989
0.00742987
0.00742983
0.00742977
0.00742969
0.00742959
0.00742947
0.00742933
0.00742917
0.00742899
0.00742878
0.00742855
0.0074283
0.00742802
0.00742771
0.00742738
0.00742702
0.00742663
0.00742621
0.00742576
0.00742528
0.00742477
0.00742423
0.00742366
0.00742305
0.00742241
0.00742175
0.00742106
0.00742035
0.00741958
0.00796417
0.00796504
0.00796587
0.00796666
0.00796743
0.00796816
0.00796886
0.00796953
0.00797015
0.00797074
0.0079713
0.00797181
0.0079723
0.00797275
0.00797316
0.00797355
0.0079739
0.00797422
0.00797452
0.00797478
0.00797502
0.00797524
0.00797542
0.00797558
0.00797572
0.00797583
0.00797592
0.00797599
0.00797604
0.00797606
0.00797606
0.00797604
0.00797599
0.00797592
0.00797583
0.00797572
0.00797558
0.00797542
0.00797524
0.00797502
0.00797478
0.00797452
0.00797422
0.0079739
0.00797355
0.00797316
0.00797275
0.0079723
0.00797181
0.0079713
0.00797074
0.00797015
0.00796953
0.00796886
0.00796816
0.00796743
0.00796666
0.00796587
0.00796504
0.00796417
0.00864947
0.0086505
0.00865147
0.00865241
0.00865331
0.00865418
0.00865501
0.00865579
0.00865653
0.00865723
0.00865788
0.0086585
0.00865907
0.0086596
0.00866009
0.00866054
0.00866096
0.00866134
0.00866169
0.00866201
0.00866229
0.00866254
0.00866276
0.00866295
0.00866312
0.00866325
0.00866336
0.00866344
0.00866349
0.00866352
0.00866352
0.00866349
0.00866344
0.00866336
0.00866325
0.00866312
0.00866295
0.00866276
0.00866254
0.00866229
0.00866201
0.00866169
0.00866134
0.00866096
0.00866054
0.00866009
0.0086596
0.00865907
0.0086585
0.00865788
0.00865723
0.00865653
0.00865579
0.00865501
0.00865418
0.00865331
0.00865241
0.00865147
0.0086505
0.00864947
0.0095305
0.00953173
0.0095329
0.00953404
0.00953514
0.00953619
0.00953719
0.00953814
0.00953904
0.00953988
0.00954067
0.00954141
0.00954211
0.00954275
0.00954335
0.0095439
0.0095444
0.00954487
0.00954529
0.00954567
0.00954601
0.00954632
0.00954658
0.00954682
0.00954701
0.00954718
0.00954731
0.0095474
0.00954747
0.0095475
0.0095475
0.00954747
0.0095474
0.00954731
0.00954718
0.00954701
0.00954682
0.00954658
0.00954632
0.00954601
0.00954567
0.00954529
0.00954487
0.0095444
0.0095439
0.00954335
0.00954275
0.00954211
0.00954141
0.00954067
0.00953988
0.00953904
0.00953814
0.00953719
0.00953619
0.00953514
0.00953404
0.0095329
0.00953173
0.0095305
0.010683
0.0106845
0.010686
0.0106874
0.0106887
0.01069
0.0106913
0.0106924
0.0106935
0.0106946
0.0106956
0.0106965
0.0106974
0.0106981
0.0106989
0.0106996
0.0107002
0.0107008
0.0107013
0.0107018
0.0107022
0.0107026
0.0107029
0.0107032
0.0107034
0.0107036
0.0107038
0.0107039
0.010704
0.010704
0.010704
0.010704
0.0107039
0.0107038
0.0107036
0.0107034
0.0107032
0.0107029
0.0107026
0.0107022
0.0107018
0.0107013
0.0107008
0.0107002
0.0106996
0.0106989
0.0106981
0.0106974
0.0106965
0.0106956
0.0106946
0.0106935
0.0106924
0.0106913
0.01069
0.0106887
0.0106874
0.010686
0.0106845
0.010683
0.012203
0.0122049
0.0122067
0.0122085
0.0122102
0.0122118
0.0122134
0.0122149
0.0122163
0.0122176
0.0122188
0.01222
0.012221
0.012222
0.012223
0.0122238
0.0122246
0.0122253
0.012226
0.0122266
0.0122271
0.0122276
0.012228
0.0122284
0.0122287
0.0122289
0.0122291
0.0122293
0.0122294
0.0122294
0.0122294
0.0122294
0.0122293
0.0122291
0.0122289
0.0122287
0.0122284
0.012228
0.0122276
0.0122271
0.0122266
0.012226
0.0122253
0.0122246
0.0122238
0.012223
0.012222
0.012221
0.01222
0.0122188
0.0122176
0.0122163
0.0122149
0.0122134
0.0122118
0.0122102
0.0122085
0.0122067
0.0122049
0.012203
0.0141968
0.0141992
0.0142014
0.0142037
0.0142058
0.0142079
0.0142098
0.0142117
0.0142134
0.0142151
0.0142167
0.0142181
0.0142195
0.0142207
0.0142219
0.014223
0.014224
0.0142249
0.0142257
0.0142264
0.0142271
0.0142277
0.0142282
0.0142287
0.0142291
0.0142294
0.0142297
0.0142298