/*--------------------------------*- C++ -*----------------------------------*\
| =========                 |                                                 |
| \\      /  F ield         | foam-extend: Open Source CFD                    |
|  \\    /   O peration     | Version:     4.0                                |
|   \\  /    A nd           | Web:         http://www.foam-extend.org         |
|    \\/     M anipulation  |                                                 |
\*---------------------------------------------------------------------------*/
FoamFile
{
    version     2.0;
    format      ascii;
    class       volScalarField;
    location    "11";
    object      cMinus;
}
// * * * * * * * * * * * * * * * * * * * * * * * * * * * * * * * * * * * * * //

dimensions      [0 -3 0 0 0 0 0];

internalField   nonuniform List<scalar> 
6960
(
1.61971e-05
1.61971e-05
1.61971e-05
1.61972e-05
1.61972e-05
1.61973e-05
1.61973e-05
1.61974e-05
1.61975e-05
1.61976e-05
1.61977e-05
1.61978e-05
1.61979e-05
1.6198e-05
1.61981e-05
1.61982e-05
1.61984e-05
1.61985e-05
1.61986e-05
1.61987e-05
1.61988e-05
1.61989e-05
1.6199e-05
1.61991e-05
1.61991e-05
1.61992e-05
1.61993e-05
1.61993e-05
1.61994e-05
1.61995e-05
1.61995e-05
1.61996e-05
1.61996e-05
1.61997e-05
1.61997e-05
1.61998e-05
1.61998e-05
1.61998e-05
1.61998e-05
1.61997e-05
1.61996e-05
1.61996e-05
1.61995e-05
1.61994e-05
1.61993e-05
1.61993e-05
1.61993e-05
1.61993e-05
1.61993e-05
1.61993e-05
1.61993e-05
1.61992e-05
1.61992e-05
1.61991e-05
1.6199e-05
1.61989e-05
1.61989e-05
1.61989e-05
1.61988e-05
1.61988e-05
1.63797e-05
1.63797e-05
1.63797e-05
1.63797e-05
1.63798e-05
1.63798e-05
1.63799e-05
1.638e-05
1.63801e-05
1.63802e-05
1.63803e-05
1.63804e-05
1.63805e-05
1.63806e-05
1.63807e-05
1.63808e-05
1.63809e-05
1.6381e-05
1.63811e-05
1.63812e-05
1.63814e-05
1.63815e-05
1.63815e-05
1.63816e-05
1.63817e-05
1.63818e-05
1.63819e-05
1.63819e-05
1.6382e-05
1.6382e-05
1.63821e-05
1.63821e-05
1.63822e-05
1.63823e-05
1.63823e-05
1.63823e-05
1.63824e-05
1.63824e-05
1.63823e-05
1.63823e-05
1.63822e-05
1.63821e-05
1.63821e-05
1.6382e-05
1.63819e-05
1.63819e-05
1.63819e-05
1.63819e-05
1.63819e-05
1.63819e-05
1.63819e-05
1.63818e-05
1.63817e-05
1.63817e-05
1.63816e-05
1.63815e-05
1.63815e-05
1.63814e-05
1.63814e-05
1.63814e-05
1.65699e-05
1.65699e-05
1.65699e-05
1.65699e-05
1.65699e-05
1.657e-05
1.65701e-05
1.65702e-05
1.65702e-05
1.65703e-05
1.65705e-05
1.65706e-05
1.65707e-05
1.65708e-05
1.65709e-05
1.6571e-05
1.65711e-05
1.65712e-05
1.65713e-05
1.65715e-05
1.65716e-05
1.65717e-05
1.65718e-05
1.65718e-05
1.65719e-05
1.6572e-05
1.65721e-05
1.65721e-05
1.65722e-05
1.65722e-05
1.65723e-05
1.65724e-05
1.65724e-05
1.65725e-05
1.65725e-05
1.65726e-05
1.65726e-05
1.65726e-05
1.65726e-05
1.65725e-05
1.65724e-05
1.65724e-05
1.65723e-05
1.65722e-05
1.65721e-05
1.65721e-05
1.65721e-05
1.65721e-05
1.65721e-05
1.65721e-05
1.65721e-05
1.6572e-05
1.6572e-05
1.65719e-05
1.65718e-05
1.65717e-05
1.65717e-05
1.65716e-05
1.65716e-05
1.65716e-05
1.67681e-05
1.67681e-05
1.67681e-05
1.67681e-05
1.67681e-05
1.67682e-05
1.67683e-05
1.67684e-05
1.67685e-05
1.67686e-05
1.67687e-05
1.67688e-05
1.67689e-05
1.6769e-05
1.67691e-05
1.67692e-05
1.67693e-05
1.67695e-05
1.67696e-05
1.67697e-05
1.67698e-05
1.67699e-05
1.677e-05
1.67701e-05
1.67702e-05
1.67702e-05
1.67703e-05
1.67704e-05
1.67704e-05
1.67705e-05
1.67705e-05
1.67706e-05
1.67707e-05
1.67707e-05
1.67708e-05
1.67708e-05
1.67708e-05
1.67708e-05
1.67708e-05
1.67708e-05
1.67707e-05
1.67706e-05
1.67705e-05
1.67704e-05
1.67704e-05
1.67703e-05
1.67703e-05
1.67703e-05
1.67703e-05
1.67703e-05
1.67703e-05
1.67702e-05
1.67702e-05
1.67701e-05
1.677e-05
1.67699e-05
1.67699e-05
1.67699e-05
1.67699e-05
1.67699e-05
1.69747e-05
1.69747e-05
1.69747e-05
1.69747e-05
1.69748e-05
1.69748e-05
1.69749e-05
1.6975e-05
1.69751e-05
1.69752e-05
1.69753e-05
1.69754e-05
1.69755e-05
1.69756e-05
1.69758e-05
1.69759e-05
1.6976e-05
1.69761e-05
1.69762e-05
1.69763e-05
1.69764e-05
1.69765e-05
1.69766e-05
1.69767e-05
1.69768e-05
1.69769e-05
1.6977e-05
1.6977e-05
1.69771e-05
1.69771e-05
1.69772e-05
1.69773e-05
1.69773e-05
1.69774e-05
1.69774e-05
1.69775e-05
1.69775e-05
1.69775e-05
1.69775e-05
1.69774e-05
1.69773e-05
1.69773e-05
1.69772e-05
1.69771e-05
1.6977e-05
1.6977e-05
1.6977e-05
1.6977e-05
1.6977e-05
1.6977e-05
1.6977e-05
1.69769e-05
1.69768e-05
1.69768e-05
1.69767e-05
1.69766e-05
1.69766e-05
1.69765e-05
1.69765e-05
1.69765e-05
1.71902e-05
1.71902e-05
1.71902e-05
1.71902e-05
1.71903e-05
1.71903e-05
1.71904e-05
1.71905e-05
1.71906e-05
1.71907e-05
1.71908e-05
1.71909e-05
1.7191e-05
1.71912e-05
1.71913e-05
1.71914e-05
1.71915e-05
1.71916e-05
1.71917e-05
1.71919e-05
1.7192e-05
1.71921e-05
1.71922e-05
1.71923e-05
1.71923e-05
1.71924e-05
1.71925e-05
1.71926e-05
1.71926e-05
1.71927e-05
1.71927e-05
1.71928e-05
1.71929e-05
1.71929e-05
1.7193e-05
1.7193e-05
1.7193e-05
1.7193e-05
1.7193e-05
1.7193e-05
1.71929e-05
1.71928e-05
1.71927e-05
1.71926e-05
1.71926e-05
1.71925e-05
1.71925e-05
1.71925e-05
1.71925e-05
1.71925e-05
1.71925e-05
1.71924e-05
1.71924e-05
1.71923e-05
1.71922e-05
1.71921e-05
1.71921e-05
1.7192e-05
1.7192e-05
1.7192e-05
1.7415e-05
1.7415e-05
1.7415e-05
1.74151e-05
1.74151e-05
1.74152e-05
1.74152e-05
1.74153e-05
1.74154e-05
1.74155e-05
1.74156e-05
1.74158e-05
1.74159e-05
1.7416e-05
1.74161e-05
1.74162e-05
1.74164e-05
1.74165e-05
1.74166e-05
1.74167e-05
1.74168e-05
1.74169e-05
1.7417e-05
1.74171e-05
1.74172e-05
1.74173e-05
1.74174e-05
1.74174e-05
1.74175e-05
1.74175e-05
1.74176e-05
1.74177e-05
1.74177e-05
1.74178e-05
1.74178e-05
1.74179e-05
1.74179e-05
1.74179e-05
1.74179e-05
1.74178e-05
1.74177e-05
1.74177e-05
1.74176e-05
1.74175e-05
1.74174e-05
1.74174e-05
1.74174e-05
1.74174e-05
1.74174e-05
1.74174e-05
1.74173e-05
1.74173e-05
1.74172e-05
1.74171e-05
1.74171e-05
1.7417e-05
1.74169e-05
1.74169e-05
1.74169e-05
1.74169e-05
1.76497e-05
1.76497e-05
1.76497e-05
1.76497e-05
1.76498e-05
1.76498e-05
1.76499e-05
1.765e-05
1.76501e-05
1.76502e-05
1.76503e-05
1.76504e-05
1.76505e-05
1.76507e-05
1.76508e-05
1.76509e-05
1.7651e-05
1.76511e-05
1.76513e-05
1.76514e-05
1.76515e-05
1.76516e-05
1.76517e-05
1.76518e-05
1.76519e-05
1.7652e-05
1.7652e-05
1.76521e-05
1.76522e-05
1.76522e-05
1.76523e-05
1.76523e-05
1.76524e-05
1.76525e-05
1.76525e-05
1.76526e-05
1.76526e-05
1.76526e-05
1.76526e-05
1.76525e-05
1.76524e-05
1.76523e-05
1.76523e-05
1.76522e-05
1.76521e-05
1.76521e-05
1.76521e-05
1.7652e-05
1.76521e-05
1.7652e-05
1.7652e-05
1.7652e-05
1.76519e-05
1.76518e-05
1.76517e-05
1.76517e-05
1.76516e-05
1.76516e-05
1.76516e-05
1.76516e-05
1.78947e-05
1.78947e-05
1.78947e-05
1.78947e-05
1.78948e-05
1.78948e-05
1.78949e-05
1.7895e-05
1.78951e-05
1.78952e-05
1.78953e-05
1.78954e-05
1.78956e-05
1.78957e-05
1.78958e-05
1.78959e-05
1.7896e-05
1.78962e-05
1.78963e-05
1.78964e-05
1.78965e-05
1.78966e-05
1.78967e-05
1.78968e-05
1.78969e-05
1.7897e-05
1.78971e-05
1.78971e-05
1.78972e-05
1.78973e-05
1.78973e-05
1.78974e-05
1.78974e-05
1.78975e-05
1.78976e-05
1.78976e-05
1.78976e-05
1.78976e-05
1.78976e-05
1.78975e-05
1.78975e-05
1.78974e-05
1.78973e-05
1.78972e-05
1.78971e-05
1.78971e-05
1.78971e-05
1.78971e-05
1.78971e-05
1.78971e-05
1.78971e-05
1.7897e-05
1.78969e-05
1.78968e-05
1.78968e-05
1.78967e-05
1.78966e-05
1.78966e-05
1.78966e-05
1.78966e-05
1.81506e-05
1.81506e-05
1.81506e-05
1.81506e-05
1.81507e-05
1.81507e-05
1.81508e-05
1.81509e-05
1.8151e-05
1.81511e-05
1.81512e-05
1.81513e-05
1.81515e-05
1.81516e-05
1.81517e-05
1.81518e-05
1.8152e-05
1.81521e-05
1.81522e-05
1.81523e-05
1.81524e-05
1.81526e-05
1.81527e-05
1.81528e-05
1.81528e-05
1.81529e-05
1.8153e-05
1.81531e-05
1.81531e-05
1.81532e-05
1.81533e-05
1.81533e-05
1.81534e-05
1.81534e-05
1.81535e-05
1.81535e-05
1.81536e-05
1.81536e-05
1.81535e-05
1.81535e-05
1.81534e-05
1.81533e-05
1.81532e-05
1.81531e-05
1.81531e-05
1.8153e-05
1.8153e-05
1.8153e-05
1.8153e-05
1.8153e-05
1.8153e-05
1.81529e-05
1.81529e-05
1.81528e-05
1.81527e-05
1.81526e-05
1.81526e-05
1.81525e-05
1.81525e-05
1.81525e-05
1.8418e-05
1.8418e-05
1.8418e-05
1.8418e-05
1.84181e-05
1.84182e-05
1.84182e-05
1.84183e-05
1.84184e-05
1.84185e-05
1.84187e-05
1.84188e-05
1.84189e-05
1.8419e-05
1.84192e-05
1.84193e-05
1.84194e-05
1.84195e-05
1.84196e-05
1.84198e-05
1.84199e-05
1.842e-05
1.84201e-05
1.84202e-05
1.84203e-05
1.84204e-05
1.84205e-05
1.84205e-05
1.84206e-05
1.84207e-05
1.84207e-05
1.84208e-05
1.84208e-05
1.84209e-05
1.8421e-05
1.8421e-05
1.8421e-05
1.8421e-05
1.8421e-05
1.8421e-05
1.84209e-05
1.84208e-05
1.84207e-05
1.84206e-05
1.84205e-05
1.84205e-05
1.84205e-05
1.84205e-05
1.84205e-05
1.84205e-05
1.84204e-05
1.84204e-05
1.84203e-05
1.84202e-05
1.84201e-05
1.84201e-05
1.842e-05
1.842e-05
1.842e-05
1.842e-05
1.86975e-05
1.86975e-05
1.86976e-05
1.86976e-05
1.86976e-05
1.86977e-05
1.86978e-05
1.86979e-05
1.8698e-05
1.86981e-05
1.86982e-05
1.86984e-05
1.86985e-05
1.86986e-05
1.86987e-05
1.86989e-05
1.8699e-05
1.86991e-05
1.86992e-05
1.86994e-05
1.86995e-05
1.86996e-05
1.86997e-05
1.86998e-05
1.86999e-05
1.87e-05
1.87001e-05
1.87001e-05
1.87002e-05
1.87003e-05
1.87003e-05
1.87004e-05
1.87004e-05
1.87005e-05
1.87006e-05
1.87006e-05
1.87006e-05
1.87006e-05
1.87006e-05
1.87006e-05
1.87005e-05
1.87004e-05
1.87003e-05
1.87002e-05
1.87001e-05
1.87001e-05
1.87001e-05
1.87001e-05
1.87001e-05
1.87001e-05
1.87e-05
1.87e-05
1.86999e-05
1.86998e-05
1.86997e-05
1.86997e-05
1.86996e-05
1.86996e-05
1.86996e-05
1.86996e-05
1.89899e-05
1.89899e-05
1.899e-05
1.899e-05
1.899e-05
1.89901e-05
1.89902e-05
1.89903e-05
1.89904e-05
1.89905e-05
1.89906e-05
1.89908e-05
1.89909e-05
1.8991e-05
1.89911e-05
1.89913e-05
1.89914e-05
1.89915e-05
1.89917e-05
1.89918e-05
1.89919e-05
1.8992e-05
1.89921e-05
1.89922e-05
1.89923e-05
1.89924e-05
1.89925e-05
1.89926e-05
1.89926e-05
1.89927e-05
1.89928e-05
1.89928e-05
1.89929e-05
1.89929e-05
1.8993e-05
1.89931e-05
1.89931e-05
1.89931e-05
1.89931e-05
1.8993e-05
1.89929e-05
1.89928e-05
1.89927e-05
1.89926e-05
1.89926e-05
1.89925e-05
1.89925e-05
1.89925e-05
1.89925e-05
1.89925e-05
1.89925e-05
1.89924e-05
1.89923e-05
1.89923e-05
1.89922e-05
1.89921e-05
1.8992e-05
1.8992e-05
1.8992e-05
1.8992e-05
1.92959e-05
1.92959e-05
1.92959e-05
1.92959e-05
1.9296e-05
1.92961e-05
1.92961e-05
1.92962e-05
1.92963e-05
1.92965e-05
1.92966e-05
1.92967e-05
1.92968e-05
1.9297e-05
1.92971e-05
1.92972e-05
1.92974e-05
1.92975e-05
1.92976e-05
1.92978e-05
1.92979e-05
1.9298e-05
1.92981e-05
1.92982e-05
1.92983e-05
1.92984e-05
1.92985e-05
1.92985e-05
1.92986e-05
1.92987e-05
1.92987e-05
1.92988e-05
1.92989e-05
1.92989e-05
1.9299e-05
1.92991e-05
1.92991e-05
1.92991e-05
1.92991e-05
1.9299e-05
1.92989e-05
1.92988e-05
1.92987e-05
1.92986e-05
1.92986e-05
1.92985e-05
1.92985e-05
1.92985e-05
1.92985e-05
1.92985e-05
1.92985e-05
1.92984e-05
1.92983e-05
1.92982e-05
1.92981e-05
1.92981e-05
1.9298e-05
1.9298e-05
1.9298e-05
1.9298e-05
1.96162e-05
1.96162e-05
1.96162e-05
1.96162e-05
1.96163e-05
1.96163e-05
1.96164e-05
1.96165e-05
1.96166e-05
1.96168e-05
1.96169e-05
1.9617e-05
1.96171e-05
1.96173e-05
1.96174e-05
1.96175e-05
1.96177e-05
1.96178e-05
1.96179e-05
1.96181e-05
1.96182e-05
1.96183e-05
1.96184e-05
1.96185e-05
1.96186e-05
1.96187e-05
1.96188e-05
1.96189e-05
1.96189e-05
1.9619e-05
1.96191e-05
1.96191e-05
1.96192e-05
1.96193e-05
1.96193e-05
1.96194e-05
1.96194e-05
1.96194e-05
1.96194e-05
1.96193e-05
1.96192e-05
1.96191e-05
1.9619e-05
1.9619e-05
1.96189e-05
1.96188e-05
1.96188e-05
1.96188e-05
1.96188e-05
1.96188e-05
1.96188e-05
1.96187e-05
1.96187e-05
1.96186e-05
1.96185e-05
1.96184e-05
1.96183e-05
1.96183e-05
1.96183e-05
1.96183e-05
1.99516e-05
1.99516e-05
1.99516e-05
1.99517e-05
1.99517e-05
1.99518e-05
1.99519e-05
1.9952e-05
1.99521e-05
1.99522e-05
1.99524e-05
1.99525e-05
1.99526e-05
1.99528e-05
1.99529e-05
1.9953e-05
1.99532e-05
1.99533e-05
1.99534e-05
1.99536e-05
1.99537e-05
1.99538e-05
1.99539e-05
1.9954e-05
1.99541e-05
1.99542e-05
1.99543e-05
1.99544e-05
1.99544e-05
1.99545e-05
1.99546e-05
1.99547e-05
1.99547e-05
1.99548e-05
1.99549e-05
1.99549e-05
1.99549e-05
1.99549e-05
1.99549e-05
1.99548e-05
1.99548e-05
1.99547e-05
1.99546e-05
1.99545e-05
1.99544e-05
1.99543e-05
1.99543e-05
1.99543e-05
1.99543e-05
1.99543e-05
1.99543e-05
1.99542e-05
1.99542e-05
1.99541e-05
1.9954e-05
1.99539e-05
1.99538e-05
1.99538e-05
1.99538e-05
1.99538e-05
2.03031e-05
2.03031e-05
2.03032e-05
2.03032e-05
2.03033e-05
2.03033e-05
2.03034e-05
2.03035e-05
2.03036e-05
2.03038e-05
2.03039e-05
2.0304e-05
2.03042e-05
2.03043e-05
2.03044e-05
2.03046e-05
2.03047e-05
2.03049e-05
2.0305e-05
2.03051e-05
2.03052e-05
2.03054e-05
2.03055e-05
2.03056e-05
2.03057e-05
2.03058e-05
2.03059e-05
2.0306e-05
2.0306e-05
2.03061e-05
2.03062e-05
2.03062e-05
2.03063e-05
2.03064e-05
2.03064e-05
2.03065e-05
2.03065e-05
2.03065e-05
2.03065e-05
2.03064e-05
2.03063e-05
2.03062e-05
2.03061e-05
2.0306e-05
2.0306e-05
2.03059e-05
2.03059e-05
2.03059e-05
2.03059e-05
2.03059e-05
2.03059e-05
2.03058e-05
2.03057e-05
2.03056e-05
2.03055e-05
2.03054e-05
2.03054e-05
2.03053e-05
2.03053e-05
2.03053e-05
2.06717e-05
2.06717e-05
2.06717e-05
2.06718e-05
2.06718e-05
2.06719e-05
2.0672e-05
2.06721e-05
2.06722e-05
2.06723e-05
2.06725e-05
2.06726e-05
2.06727e-05
2.06729e-05
2.0673e-05
2.06732e-05
2.06733e-05
2.06734e-05
2.06736e-05
2.06737e-05
2.06738e-05
2.0674e-05
2.06741e-05
2.06742e-05
2.06743e-05
2.06744e-05
2.06745e-05
2.06746e-05
2.06746e-05
2.06747e-05
2.06748e-05
2.06748e-05
2.06749e-05
2.0675e-05
2.0675e-05
2.06751e-05
2.06751e-05
2.06751e-05
2.06751e-05
2.0675e-05
2.06749e-05
2.06748e-05
2.06747e-05
2.06746e-05
2.06746e-05
2.06745e-05
2.06745e-05
2.06745e-05
2.06745e-05
2.06745e-05
2.06745e-05
2.06744e-05
2.06743e-05
2.06742e-05
2.06741e-05
2.0674e-05
2.0674e-05
2.06739e-05
2.06739e-05
2.06739e-05
2.10583e-05
2.10583e-05
2.10583e-05
2.10584e-05
2.10584e-05
2.10585e-05
2.10586e-05
2.10587e-05
2.10588e-05
2.10589e-05
2.10591e-05
2.10592e-05
2.10594e-05
2.10595e-05
2.10596e-05
2.10598e-05
2.10599e-05
2.10601e-05
2.10602e-05
2.10604e-05
2.10605e-05
2.10606e-05
2.10607e-05
2.10609e-05
2.1061e-05
2.10611e-05
2.10611e-05
2.10612e-05
2.10613e-05
2.10614e-05
2.10614e-05
2.10615e-05
2.10616e-05
2.10616e-05
2.10617e-05
2.10618e-05
2.10618e-05
2.10618e-05
2.10618e-05
2.10617e-05
2.10616e-05
2.10615e-05
2.10614e-05
2.10613e-05
2.10612e-05
2.10612e-05
2.10612e-05
2.10612e-05
2.10612e-05
2.10612e-05
2.10611e-05
2.10611e-05
2.1061e-05
2.10609e-05
2.10608e-05
2.10607e-05
2.10606e-05
2.10606e-05
2.10606e-05
2.10606e-05
2.14641e-05
2.14641e-05
2.14641e-05
2.14641e-05
2.14642e-05
2.14643e-05
2.14644e-05
2.14645e-05
2.14646e-05
2.14647e-05
2.14649e-05
2.1465e-05
2.14652e-05
2.14653e-05
2.14654e-05
2.14656e-05
2.14657e-05
2.14659e-05
2.1466e-05
2.14662e-05
2.14663e-05
2.14664e-05
2.14666e-05
2.14667e-05
2.14668e-05
2.14669e-05
2.1467e-05
2.1467e-05
2.14671e-05
2.14672e-05
2.14673e-05
2.14673e-05
2.14674e-05
2.14675e-05
2.14676e-05
2.14676e-05
2.14676e-05
2.14676e-05
2.14676e-05
2.14676e-05
2.14675e-05
2.14673e-05
2.14672e-05
2.14671e-05
2.1467e-05
2.1467e-05
2.1467e-05
2.1467e-05
2.1467e-05
2.1467e-05
2.1467e-05
2.14669e-05
2.14668e-05
2.14667e-05
2.14666e-05
2.14665e-05
2.14664e-05
2.14664e-05
2.14664e-05
2.14664e-05
2.18902e-05
2.18902e-05
2.18902e-05
2.18903e-05
2.18903e-05
2.18904e-05
2.18905e-05
2.18906e-05
2.18907e-05
2.18909e-05
2.1891e-05
2.18912e-05
2.18913e-05
2.18915e-05
2.18916e-05
2.18918e-05
2.18919e-05
2.1892e-05
2.18922e-05
2.18923e-05
2.18925e-05
2.18926e-05
2.18927e-05
2.18929e-05
2.1893e-05
2.18931e-05
2.18932e-05
2.18932e-05
2.18933e-05
2.18934e-05
2.18935e-05
2.18935e-05
2.18936e-05
2.18937e-05
2.18938e-05
2.18938e-05
2.18938e-05
2.18939e-05
2.18938e-05
2.18938e-05
2.18937e-05
2.18935e-05
2.18934e-05
2.18933e-05
2.18932e-05
2.18932e-05
2.18932e-05
2.18932e-05
2.18932e-05
2.18932e-05
2.18932e-05
2.18931e-05
2.1893e-05
2.18929e-05
2.18928e-05
2.18927e-05
2.18926e-05
2.18926e-05
2.18926e-05
2.18926e-05
2.2338e-05
2.2338e-05
2.2338e-05
2.2338e-05
2.23381e-05
2.23382e-05
2.23383e-05
2.23384e-05
2.23385e-05
2.23386e-05
2.23388e-05
2.23389e-05
2.23391e-05
2.23392e-05
2.23394e-05
2.23395e-05
2.23397e-05
2.23398e-05
2.234e-05
2.23401e-05
2.23403e-05
2.23404e-05
2.23406e-05
2.23407e-05
2.23408e-05
2.23409e-05
2.2341e-05
2.23411e-05
2.23411e-05
2.23412e-05
2.23413e-05
2.23414e-05
2.23414e-05
2.23415e-05
2.23416e-05
2.23417e-05
2.23417e-05
2.23417e-05
2.23417e-05
2.23416e-05
2.23415e-05
2.23414e-05
2.23413e-05
2.23411e-05
2.23411e-05
2.2341e-05
2.2341e-05
2.2341e-05
2.2341e-05
2.2341e-05
2.2341e-05
2.23409e-05
2.23408e-05
2.23407e-05
2.23406e-05
2.23405e-05
2.23404e-05
2.23404e-05
2.23404e-05
2.23404e-05
2.28088e-05
2.28088e-05
2.28088e-05
2.28088e-05
2.28089e-05
2.2809e-05
2.28091e-05
2.28092e-05
2.28093e-05
2.28094e-05
2.28096e-05
2.28097e-05
2.28099e-05
2.281e-05
2.28102e-05
2.28104e-05
2.28105e-05
2.28107e-05
2.28108e-05
2.2811e-05
2.28111e-05
2.28113e-05
2.28114e-05
2.28115e-05
2.28116e-05
2.28117e-05
2.28118e-05
2.28119e-05
2.2812e-05
2.28121e-05
2.28121e-05
2.28122e-05
2.28123e-05
2.28124e-05
2.28125e-05
2.28125e-05
2.28125e-05
2.28126e-05
2.28125e-05
2.28125e-05
2.28124e-05
2.28122e-05
2.28121e-05
2.2812e-05
2.28119e-05
2.28118e-05
2.28118e-05
2.28118e-05
2.28118e-05
2.28119e-05
2.28118e-05
2.28118e-05
2.28117e-05
2.28116e-05
2.28114e-05
2.28113e-05
2.28113e-05
2.28112e-05
2.28112e-05
2.28112e-05
2.3304e-05
2.3304e-05
2.33041e-05
2.33041e-05
2.33042e-05
2.33043e-05
2.33044e-05
2.33045e-05
2.33046e-05
2.33047e-05
2.33049e-05
2.3305e-05
2.33052e-05
2.33054e-05
2.33055e-05
2.33057e-05
2.33058e-05
2.3306e-05
2.33062e-05
2.33063e-05
2.33065e-05
2.33066e-05
2.33067e-05
2.33069e-05
2.3307e-05
2.33071e-05
2.33072e-05
2.33073e-05
2.33073e-05
2.33074e-05
2.33075e-05
2.33076e-05
2.33077e-05
2.33077e-05
2.33078e-05
2.33079e-05
2.33079e-05
2.33079e-05
2.33079e-05
2.33078e-05
2.33077e-05
2.33076e-05
2.33075e-05
2.33073e-05
2.33073e-05
2.33072e-05
2.33072e-05
2.33072e-05
2.33072e-05
2.33072e-05
2.33072e-05
2.33071e-05
2.3307e-05
2.33069e-05
2.33068e-05
2.33067e-05
2.33066e-05
2.33066e-05
2.33065e-05
2.33065e-05
2.38254e-05
2.38254e-05
2.38255e-05
2.38255e-05
2.38256e-05
2.38257e-05
2.38258e-05
2.38259e-05
2.3826e-05
2.38262e-05
2.38263e-05
2.38265e-05
2.38266e-05
2.38268e-05
2.3827e-05
2.38271e-05
2.38273e-05
2.38274e-05
2.38276e-05
2.38278e-05
2.38279e-05
2.38281e-05
2.38282e-05
2.38283e-05
2.38284e-05
2.38286e-05
2.38287e-05
2.38287e-05
2.38288e-05
2.38289e-05
2.3829e-05
2.38291e-05
2.38291e-05
2.38292e-05
2.38293e-05
2.38294e-05
2.38294e-05
2.38294e-05
2.38294e-05
2.38293e-05
2.38292e-05
2.38291e-05
2.38289e-05
2.38288e-05
2.38287e-05
2.38287e-05
2.38286e-05
2.38287e-05
2.38287e-05
2.38287e-05
2.38287e-05
2.38286e-05
2.38285e-05
2.38284e-05
2.38282e-05
2.38281e-05
2.3828e-05
2.3828e-05
2.3828e-05
2.3828e-05
2.43747e-05
2.43747e-05
2.43747e-05
2.43748e-05
2.43748e-05
2.43749e-05
2.4375e-05
2.43751e-05
2.43753e-05
2.43754e-05
2.43756e-05
2.43757e-05
2.43759e-05
2.43761e-05
2.43762e-05
2.43764e-05
2.43766e-05
2.43767e-05
2.43769e-05
2.43771e-05
2.43772e-05
2.43774e-05
2.43775e-05
2.43776e-05
2.43778e-05
2.43779e-05
2.4378e-05
2.43781e-05
2.43782e-05
2.43782e-05
2.43783e-05
2.43784e-05
2.43785e-05
2.43786e-05
2.43786e-05
2.43787e-05
2.43788e-05
2.43788e-05
2.43787e-05
2.43787e-05
2.43785e-05
2.43784e-05
2.43783e-05
2.43781e-05
2.43781e-05
2.4378e-05
2.4378e-05
2.4378e-05
2.4378e-05
2.4378e-05
2.4378e-05
2.43779e-05
2.43778e-05
2.43777e-05
2.43776e-05
2.43774e-05
2.43774e-05
2.43773e-05
2.43773e-05
2.43773e-05
2.49537e-05
2.49537e-05
2.49537e-05
2.49537e-05
2.49538e-05
2.49539e-05
2.4954e-05
2.49541e-05
2.49543e-05
2.49544e-05
2.49546e-05
2.49547e-05
2.49549e-05
2.49551e-05
2.49553e-05
2.49554e-05
2.49556e-05
2.49558e-05
2.49559e-05
2.49561e-05
2.49563e-05
2.49564e-05
2.49566e-05
2.49567e-05
2.49568e-05
2.49569e-05
2.4957e-05
2.49571e-05
2.49572e-05
2.49573e-05
2.49574e-05
2.49575e-05
2.49575e-05
2.49576e-05
2.49577e-05
2.49578e-05
2.49578e-05
2.49578e-05
2.49578e-05
2.49577e-05
2.49576e-05
2.49575e-05
2.49573e-05
2.49572e-05
2.49571e-05
2.4957e-05
2.4957e-05
2.4957e-05
2.4957e-05
2.49571e-05
2.4957e-05
2.4957e-05
2.49569e-05
2.49567e-05
2.49566e-05
2.49565e-05
2.49564e-05
2.49563e-05
2.49563e-05
2.49563e-05
2.55644e-05
2.55644e-05
2.55644e-05
2.55645e-05
2.55645e-05
2.55646e-05
2.55647e-05
2.55649e-05
2.5565e-05
2.55652e-05
2.55653e-05
2.55655e-05
2.55657e-05
2.55659e-05
2.5566e-05
2.55662e-05
2.55664e-05
2.55666e-05
2.55667e-05
2.55669e-05
2.55671e-05
2.55672e-05
2.55674e-05
2.55675e-05
2.55676e-05
2.55677e-05
2.55679e-05
2.55679e-05
2.5568e-05
2.55681e-05
2.55682e-05
2.55683e-05
2.55684e-05
2.55685e-05
2.55685e-05
2.55686e-05
2.55687e-05
2.55687e-05
2.55686e-05
2.55686e-05
2.55685e-05
2.55683e-05
2.55682e-05
2.5568e-05
2.55679e-05
2.55679e-05
2.55678e-05
2.55678e-05
2.55679e-05
2.55679e-05
2.55679e-05
2.55678e-05
2.55677e-05
2.55676e-05
2.55674e-05
2.55673e-05
2.55672e-05
2.55671e-05
2.55671e-05
2.55671e-05
2.62091e-05
2.62091e-05
2.62091e-05
2.62092e-05
2.62092e-05
2.62093e-05
2.62094e-05
2.62096e-05
2.62097e-05
2.62099e-05
2.62101e-05
2.62102e-05
2.62104e-05
2.62106e-05
2.62108e-05
2.62109e-05
2.62111e-05
2.62113e-05
2.62115e-05
2.62116e-05
2.62118e-05
2.6212e-05
2.62121e-05
2.62123e-05
2.62124e-05
2.62125e-05
2.62126e-05
2.62127e-05
2.62128e-05
2.62129e-05
2.6213e-05
2.62131e-05
2.62132e-05
2.62133e-05
2.62133e-05
2.62134e-05
2.62135e-05
2.62135e-05
2.62135e-05
2.62134e-05
2.62133e-05
2.62131e-05
2.6213e-05
2.62128e-05
2.62127e-05
2.62126e-05
2.62126e-05
2.62126e-05
2.62126e-05
2.62127e-05
2.62127e-05
2.62126e-05
2.62125e-05
2.62123e-05
2.62122e-05
2.62121e-05
2.6212e-05
2.62119e-05
2.62119e-05
2.62119e-05
2.68901e-05
2.68901e-05
2.68902e-05
2.68902e-05
2.68903e-05
2.68904e-05
2.68905e-05
2.68906e-05
2.68908e-05
2.6891e-05
2.68911e-05
2.68913e-05
2.68915e-05
2.68917e-05
2.68919e-05
2.6892e-05
2.68922e-05
2.68924e-05
2.68926e-05
2.68928e-05
2.68929e-05
2.68931e-05
2.68933e-05
2.68934e-05
2.68935e-05
2.68937e-05
2.68938e-05
2.68939e-05
2.6894e-05
2.68941e-05
2.68941e-05
2.68942e-05
2.68943e-05
2.68944e-05
2.68945e-05
2.68946e-05
2.68946e-05
2.68947e-05
2.68946e-05
2.68945e-05
2.68944e-05
2.68943e-05
2.68941e-05
2.6894e-05
2.68938e-05
2.68938e-05
2.68937e-05
2.68938e-05
2.68938e-05
2.68938e-05
2.68938e-05
2.68937e-05
2.68936e-05
2.68935e-05
2.68933e-05
2.68932e-05
2.68931e-05
2.6893e-05
2.6893e-05
2.6893e-05
2.76101e-05
2.76101e-05
2.76102e-05
2.76102e-05
2.76103e-05
2.76104e-05
2.76105e-05
2.76107e-05
2.76108e-05
2.7611e-05
2.76112e-05
2.76113e-05
2.76115e-05
2.76117e-05
2.76119e-05
2.76121e-05
2.76123e-05
2.76125e-05
2.76127e-05
2.76128e-05
2.7613e-05
2.76132e-05
2.76133e-05
2.76135e-05
2.76136e-05
2.76138e-05
2.76139e-05
2.7614e-05
2.76141e-05
2.76142e-05
2.76142e-05
2.76143e-05
2.76144e-05
2.76145e-05
2.76146e-05
2.76147e-05
2.76148e-05
2.76148e-05
2.76147e-05
2.76147e-05
2.76145e-05
2.76144e-05
2.76142e-05
2.76141e-05
2.76139e-05
2.76139e-05
2.76138e-05
2.76138e-05
2.76139e-05
2.76139e-05
2.76139e-05
2.76138e-05
2.76137e-05
2.76136e-05
2.76134e-05
2.76133e-05
2.76131e-05
2.76131e-05
2.76131e-05
2.76131e-05
2.83719e-05
2.83719e-05
2.83719e-05
2.8372e-05
2.83721e-05
2.83722e-05
2.83723e-05
2.83724e-05
2.83726e-05
2.83728e-05
2.8373e-05
2.83731e-05
2.83733e-05
2.83735e-05
2.83737e-05
2.83739e-05
2.83741e-05
2.83743e-05
2.83745e-05
2.83747e-05
2.83749e-05
2.8375e-05
2.83752e-05
2.83754e-05
2.83755e-05
2.83756e-05
2.83758e-05
2.83759e-05
2.83759e-05
2.8376e-05
2.83761e-05
2.83762e-05
2.83763e-05
2.83764e-05
2.83765e-05
2.83766e-05
2.83767e-05
2.83767e-05
2.83766e-05
2.83766e-05
2.83764e-05
2.83763e-05
2.83761e-05
2.83759e-05
2.83758e-05
2.83757e-05
2.83757e-05
2.83757e-05
2.83757e-05
2.83758e-05
2.83758e-05
2.83757e-05
2.83756e-05
2.83755e-05
2.83753e-05
2.83751e-05
2.8375e-05
2.83749e-05
2.83749e-05
2.83749e-05
2.91785e-05
2.91785e-05
2.91785e-05
2.91786e-05
2.91787e-05
2.91788e-05
2.91789e-05
2.91791e-05
2.91792e-05
2.91794e-05
2.91796e-05
2.91798e-05
2.918e-05
2.91802e-05
2.91804e-05
2.91806e-05
2.91808e-05
2.9181e-05
2.91812e-05
2.91814e-05
2.91816e-05
2.91817e-05
2.91819e-05
2.91821e-05
2.91822e-05
2.91824e-05
2.91825e-05
2.91826e-05
2.91827e-05
2.91828e-05
2.91829e-05
2.91829e-05
2.9183e-05
2.91832e-05
2.91833e-05
2.91833e-05
2.91834e-05
2.91834e-05
2.91834e-05
2.91833e-05
2.91832e-05
2.9183e-05
2.91828e-05
2.91827e-05
2.91825e-05
2.91824e-05
2.91824e-05
2.91824e-05
2.91825e-05
2.91825e-05
2.91825e-05
2.91824e-05
2.91823e-05
2.91822e-05
2.9182e-05
2.91818e-05
2.91817e-05
2.91816e-05
2.91816e-05
2.91816e-05
3.00333e-05
3.00333e-05
3.00334e-05
3.00334e-05
3.00335e-05
3.00336e-05
3.00337e-05
3.00339e-05
3.0034e-05
3.00342e-05
3.00344e-05
3.00346e-05
3.00348e-05
3.0035e-05
3.00352e-05
3.00355e-05
3.00357e-05
3.00359e-05
3.00361e-05
3.00363e-05
3.00364e-05
3.00366e-05
3.00368e-05
3.0037e-05
3.00371e-05
3.00373e-05
3.00374e-05
3.00375e-05
3.00376e-05
3.00377e-05
3.00378e-05
3.00379e-05
3.0038e-05
3.00381e-05
3.00382e-05
3.00383e-05
3.00384e-05
3.00384e-05
3.00384e-05
3.00383e-05
3.00381e-05
3.0038e-05
3.00378e-05
3.00376e-05
3.00374e-05
3.00373e-05
3.00373e-05
3.00373e-05
3.00374e-05
3.00374e-05
3.00374e-05
3.00374e-05
3.00373e-05
3.00371e-05
3.00369e-05
3.00367e-05
3.00366e-05
3.00365e-05
3.00365e-05
3.00365e-05
3.094e-05
3.094e-05
3.094e-05
3.09401e-05
3.09401e-05
3.09402e-05
3.09404e-05
3.09405e-05
3.09407e-05
3.09409e-05
3.09411e-05
3.09413e-05
3.09415e-05
3.09417e-05
3.0942e-05
3.09422e-05
3.09424e-05
3.09426e-05
3.09428e-05
3.0943e-05
3.09432e-05
3.09434e-05
3.09436e-05
3.09437e-05
3.09439e-05
3.0944e-05
3.09442e-05
3.09443e-05
3.09444e-05
3.09445e-05
3.09446e-05
3.09447e-05
3.09448e-05
3.09449e-05
3.0945e-05
3.09451e-05
3.09452e-05
3.09452e-05
3.09452e-05
3.09451e-05
3.09449e-05
3.09448e-05
3.09446e-05
3.09444e-05
3.09442e-05
3.09441e-05
3.09441e-05
3.09441e-05
3.09441e-05
3.09442e-05
3.09442e-05
3.09442e-05
3.0944e-05
3.09439e-05
3.09437e-05
3.09435e-05
3.09433e-05
3.09433e-05
3.09433e-05
3.09433e-05
3.19025e-05
3.19025e-05
3.19025e-05
3.19025e-05
3.19026e-05
3.19027e-05
3.19029e-05
3.1903e-05
3.19032e-05
3.19034e-05
3.19036e-05
3.19038e-05
3.19041e-05
3.19043e-05
3.19045e-05
3.19047e-05
3.19049e-05
3.19052e-05
3.19054e-05
3.19056e-05
3.19058e-05
3.1906e-05
3.19062e-05
3.19063e-05
3.19065e-05
3.19067e-05
3.19068e-05
3.19069e-05
3.1907e-05
3.19071e-05
3.19072e-05
3.19073e-05
3.19074e-05
3.19075e-05
3.19076e-05
3.19077e-05
3.19078e-05
3.19078e-05
3.19078e-05
3.19077e-05
3.19076e-05
3.19074e-05
3.19072e-05
3.1907e-05
3.19068e-05
3.19067e-05
3.19067e-05
3.19067e-05
3.19067e-05
3.19068e-05
3.19068e-05
3.19068e-05
3.19067e-05
3.19065e-05
3.19063e-05
3.19061e-05
3.19059e-05
3.19058e-05
3.19058e-05
3.19058e-05
3.29252e-05
3.29251e-05
3.29252e-05
3.29252e-05
3.29253e-05
3.29254e-05
3.29256e-05
3.29258e-05
3.29259e-05
3.29261e-05
3.29264e-05
3.29266e-05
3.29268e-05
3.2927e-05
3.29273e-05
3.29275e-05
3.29277e-05
3.29279e-05
3.29281e-05
3.29284e-05
3.29286e-05
3.29288e-05
3.2929e-05
3.29292e-05
3.29293e-05
3.29295e-05
3.29296e-05
3.29297e-05
3.29298e-05
3.29299e-05
3.293e-05
3.29301e-05
3.29302e-05
3.29304e-05
3.29305e-05
3.29306e-05
3.29307e-05
3.29307e-05
3.29307e-05
3.29306e-05
3.29304e-05
3.29303e-05
3.293e-05
3.29298e-05
3.29296e-05
3.29295e-05
3.29295e-05
3.29295e-05
3.29296e-05
3.29296e-05
3.29296e-05
3.29296e-05
3.29295e-05
3.29293e-05
3.29291e-05
3.29289e-05
3.29287e-05
3.29286e-05
3.29286e-05
3.29286e-05
3.40128e-05
3.40128e-05
3.40128e-05
3.40129e-05
3.4013e-05
3.40131e-05
3.40133e-05
3.40134e-05
3.40136e-05
3.40138e-05
3.40141e-05
3.40143e-05
3.40145e-05
3.40148e-05
3.4015e-05
3.40152e-05
3.40155e-05
3.40157e-05
3.40159e-05
3.40161e-05
3.40164e-05
3.40166e-05
3.40168e-05
3.4017e-05
3.40171e-05
3.40173e-05
3.40174e-05
3.40176e-05
3.40177e-05
3.40178e-05
3.40179e-05
3.4018e-05
3.40181e-05
3.40182e-05
3.40183e-05
3.40184e-05
3.40185e-05
3.40186e-05
3.40185e-05
3.40185e-05
3.40183e-05
3.40181e-05
3.40179e-05
3.40176e-05
3.40175e-05
3.40173e-05
3.40173e-05
3.40173e-05
3.40174e-05
3.40174e-05
3.40175e-05
3.40174e-05
3.40173e-05
3.40171e-05
3.40169e-05
3.40167e-05
3.40165e-05
3.40164e-05
3.40164e-05
3.40164e-05
3.51707e-05
3.51707e-05
3.51707e-05
3.51708e-05
3.51709e-05
3.5171e-05
3.51712e-05
3.51714e-05
3.51716e-05
3.51718e-05
3.5172e-05
3.51722e-05
3.51725e-05
3.51727e-05
3.5173e-05
3.51732e-05
3.51734e-05
3.51737e-05
3.51739e-05
3.51741e-05
3.51744e-05
3.51746e-05
3.51748e-05
3.5175e-05
3.51752e-05
3.51753e-05
3.51755e-05
3.51756e-05
3.51757e-05
3.51758e-05
3.51759e-05
3.5176e-05
3.51762e-05
3.51763e-05
3.51764e-05
3.51765e-05
3.51766e-05
3.51767e-05
3.51766e-05
3.51766e-05
3.51764e-05
3.51762e-05
3.51759e-05
3.51757e-05
3.51755e-05
3.51754e-05
3.51753e-05
3.51753e-05
3.51754e-05
3.51755e-05
3.51755e-05
3.51755e-05
3.51754e-05
3.51752e-05
3.5175e-05
3.51747e-05
3.51745e-05
3.51744e-05
3.51744e-05
3.51744e-05
3.64046e-05
3.64046e-05
3.64046e-05
3.64047e-05
3.64048e-05
3.64049e-05
3.64051e-05
3.64052e-05
3.64055e-05
3.64057e-05
3.64059e-05
3.64062e-05
3.64064e-05
3.64067e-05
3.64069e-05
3.64072e-05
3.64074e-05
3.64077e-05
3.64079e-05
3.64081e-05
3.64084e-05
3.64086e-05
3.64088e-05
3.6409e-05
3.64092e-05
3.64094e-05
3.64095e-05
3.64097e-05
3.64098e-05
3.64099e-05
3.641e-05
3.64101e-05
3.64102e-05
3.64103e-05
3.64105e-05
3.64106e-05
3.64107e-05
3.64107e-05
3.64107e-05
3.64106e-05
3.64105e-05
3.64103e-05
3.641e-05
3.64098e-05
3.64095e-05
3.64094e-05
3.64093e-05
3.64093e-05
3.64094e-05
3.64095e-05
3.64096e-05
3.64095e-05
3.64094e-05
3.64092e-05
3.6409e-05
3.64087e-05
3.64085e-05
3.64084e-05
3.64084e-05
3.64084e-05
3.77208e-05
3.77208e-05
3.77208e-05
3.77208e-05
3.77209e-05
3.77211e-05
3.77213e-05
3.77214e-05
3.77217e-05
3.77219e-05
3.77221e-05
3.77224e-05
3.77227e-05
3.77229e-05
3.77232e-05
3.77234e-05
3.77237e-05
3.7724e-05
3.77242e-05
3.77244e-05
3.77247e-05
3.77249e-05
3.77251e-05
3.77254e-05
3.77256e-05
3.77257e-05
3.77259e-05
3.7726e-05
3.77262e-05
3.77263e-05
3.77264e-05
3.77265e-05
3.77266e-05
3.77267e-05
3.77269e-05
3.7727e-05
3.77271e-05
3.77271e-05
3.77271e-05
3.77271e-05
3.77269e-05
3.77267e-05
3.77264e-05
3.77261e-05
3.77259e-05
3.77257e-05
3.77257e-05
3.77257e-05
3.77258e-05
3.77258e-05
3.77259e-05
3.77259e-05