/*--------------------------------*- C++ -*----------------------------------*\
| =========                 |                                                 |
| \\      /  F ield         | foam-extend: Open Source CFD                    |
|  \\    /   O peration     | Version:     4.0                                |
|   \\  /    A nd           | Web:         http://www.foam-extend.org         |
|    \\/     M anipulation  |                                                 |
\*---------------------------------------------------------------------------*/
FoamFile
{
    version     2.0;
    format      ascii;
    class       volScalarField;
    location    "290";
    object      psiE;
}
// * * * * * * * * * * * * * * * * * * * * * * * * * * * * * * * * * * * * * //

dimensions      [0 0 0 0 0 0 0];

internalField   nonuniform List<scalar> 
6960
(
0.155271
0.155247
0.155242
0.155241
0.155241
0.15524
0.15524
0.15524
0.15524
0.15524
0.15524
0.15524
0.15524
0.15524
0.155241
0.155241
0.155241
0.155241
0.155241
0.155241
0.155241
0.155241
0.155241
0.155241
0.155241
0.155241
0.155241
0.155241
0.155241
0.155241
0.155241
0.155241
0.155241
0.155241
0.155241
0.155241
0.155241
0.155241
0.155241
0.155241
0.155241
0.155241
0.155241
0.155241
0.155241
0.155241
0.15524
0.15524
0.15524
0.15524
0.15524
0.15524
0.15524
0.15524
0.15524
0.155241
0.155241
0.155242
0.155247
0.155271
0.290958
0.29091
0.290901
0.290898
0.290897
0.290896
0.290896
0.290896
0.290896
0.290896
0.290897
0.290897
0.290897
0.290897
0.290897
0.290898
0.290898
0.290898
0.290898
0.290899
0.290899
0.290899
0.290899
0.290899
0.290899
0.290899
0.290899
0.2909
0.2909
0.2909
0.2909
0.2909
0.2909
0.290899
0.290899
0.290899
0.290899
0.290899
0.290899
0.290899
0.290899
0.290898
0.290898
0.290898
0.290898
0.290897
0.290897
0.290897
0.290897
0.290897
0.290896
0.290896
0.290896
0.290896
0.290896
0.290897
0.290898
0.290901
0.29091
0.290958
0.364232
0.364172
0.36416
0.364157
0.364155
0.364155
0.364154
0.364155
0.364155
0.364155
0.364155
0.364156
0.364156
0.364157
0.364157
0.364157
0.364158
0.364158
0.364159
0.364159
0.364159
0.36416
0.36416
0.36416
0.36416
0.36416
0.364161
0.364161
0.364161
0.364161
0.364161
0.364161
0.364161
0.364161
0.36416
0.36416
0.36416
0.36416
0.36416
0.364159
0.364159
0.364159
0.364158
0.364158
0.364157
0.364157
0.364157
0.364156
0.364156
0.364155
0.364155
0.364155
0.364155
0.364154
0.364155
0.364155
0.364157
0.36416
0.364172
0.364232
0.415136
0.415072
0.415059
0.415054
0.415053
0.415052
0.415052
0.415052
0.415052
0.415053
0.415053
0.415054
0.415054
0.415055
0.415056
0.415056
0.415057
0.415057
0.415058
0.415059
0.415059
0.415059
0.41506
0.41506
0.41506
0.415061
0.415061
0.415061
0.415061
0.415061
0.415061
0.415061
0.415061
0.415061
0.415061
0.41506
0.41506
0.41506
0.415059
0.415059
0.415059
0.415058
0.415057
0.415057
0.415056
0.415056
0.415055
0.415054
0.415054
0.415053
0.415053
0.415052
0.415052
0.415052
0.415052
0.415053
0.415054
0.415059
0.415072
0.415136
0.458101
0.458035
0.458021
0.458016
0.458014
0.458013
0.458013
0.458014
0.458014
0.458015
0.458015
0.458016
0.458017
0.458018
0.458019
0.45802
0.45802
0.458021
0.458022
0.458022
0.458023
0.458024
0.458024
0.458025
0.458025
0.458025
0.458026
0.458026
0.458026
0.458026
0.458026
0.458026
0.458026
0.458026
0.458025
0.458025
0.458025
0.458024
0.458024
0.458023
0.458022
0.458022
0.458021
0.45802
0.45802
0.458019
0.458018
0.458017
0.458016
0.458015
0.458015
0.458014
0.458014
0.458013
0.458013
0.458014
0.458016
0.458021
0.458035
0.458101
0.49812
0.498055
0.498039
0.498033
0.498032
0.498031
0.498031
0.498031
0.498032
0.498033
0.498034
0.498035
0.498036
0.498037
0.498038
0.498039
0.49804
0.498041
0.498042
0.498043
0.498043
0.498044
0.498045
0.498045
0.498046
0.498046
0.498047
0.498047
0.498047
0.498047
0.498047
0.498047
0.498047
0.498047
0.498046
0.498046
0.498045
0.498045
0.498044
0.498043
0.498043
0.498042
0.498041
0.49804
0.498039
0.498038
0.498037
0.498036
0.498035
0.498034
0.498033
0.498032
0.498031
0.498031
0.498031
0.498032
0.498033
0.498039
0.498055
0.49812
0.536918
0.536852
0.536836
0.53683
0.536828
0.536827
0.536827
0.536828
0.536829
0.53683
0.536831
0.536832
0.536834
0.536835
0.536836
0.536837
0.536839
0.53684
0.536841
0.536842
0.536843
0.536844
0.536844
0.536845
0.536846
0.536846
0.536847
0.536847
0.536847
0.536847
0.536847
0.536847
0.536847
0.536847
0.536846
0.536846
0.536845
0.536844
0.536844
0.536843
0.536842
0.536841
0.53684
0.536839
0.536837
0.536836
0.536835
0.536834
0.536832
0.536831
0.53683
0.536829
0.536828
0.536827
0.536827
0.536828
0.53683
0.536836
0.536852
0.536918
0.575146
0.575081
0.575063
0.575057
0.575055
0.575055
0.575055
0.575056
0.575057
0.575058
0.575059
0.575061
0.575062
0.575064
0.575065
0.575067
0.575068
0.57507
0.575071
0.575072
0.575073
0.575074
0.575075
0.575076
0.575077
0.575077
0.575078
0.575078
0.575078
0.575078
0.575078
0.575078
0.575078
0.575078
0.575077
0.575077
0.575076
0.575075
0.575074
0.575073
0.575072
0.575071
0.57507
0.575068
0.575067
0.575065
0.575064
0.575062
0.575061
0.575059
0.575058
0.575057
0.575056
0.575055
0.575055
0.575055
0.575057
0.575063
0.575081
0.575146
0.613118
0.613053
0.613034
0.613028
0.613026
0.613025
0.613026
0.613027
0.613028
0.613029
0.613031
0.613032
0.613034
0.613036
0.613038
0.61304
0.613041
0.613043
0.613044
0.613046
0.613047
0.613048
0.613049
0.61305
0.613051
0.613052
0.613052
0.613053
0.613053
0.613053
0.613053
0.613053
0.613053
0.613052
0.613052
0.613051
0.61305
0.613049
0.613048
0.613047
0.613046
0.613044
0.613043
0.613041
0.61304
0.613038
0.613036
0.613034
0.613032
0.613031
0.613029
0.613028
0.613027
0.613026
0.613025
0.613026
0.613028
0.613034
0.613053
0.613118
0.651032
0.650967
0.650948
0.650942
0.65094
0.650939
0.65094
0.650941
0.650942
0.650944
0.650946
0.650948
0.65095
0.650952
0.650954
0.650956
0.650957
0.650959
0.650961
0.650963
0.650964
0.650965
0.650967
0.650968
0.650969
0.650969
0.65097
0.65097
0.650971
0.650971
0.650971
0.650971
0.65097
0.65097
0.650969
0.650969
0.650968
0.650967
0.650965
0.650964
0.650963
0.650961
0.650959
0.650957
0.650956
0.650954
0.650952
0.65095
0.650948
0.650946
0.650944
0.650942
0.650941
0.65094
0.650939
0.65094
0.650942
0.650948
0.650967
0.651032
0.689047
0.688983
0.688963
0.688956
0.688954
0.688954
0.688954
0.688956
0.688957
0.688959
0.688961
0.688963
0.688966
0.688968
0.68897
0.688973
0.688975
0.688977
0.688979
0.68898
0.688982
0.688984
0.688985
0.688986
0.688987
0.688988
0.688989
0.688989
0.68899
0.68899
0.68899
0.68899
0.688989
0.688989
0.688988
0.688987
0.688986
0.688985
0.688984
0.688982
0.68898
0.688979
0.688977
0.688975
0.688973
0.68897
0.688968
0.688966
0.688963
0.688961
0.688959
0.688957
0.688956
0.688954
0.688954
0.688954
0.688956
0.688963
0.688983
0.689047
0.727298
0.727235
0.727215
0.727208
0.727205
0.727205
0.727206
0.727207
0.727209
0.727211
0.727214
0.727216
0.727219
0.727221
0.727224
0.727226
0.727229
0.727231
0.727233
0.727235
0.727237
0.727239
0.72724
0.727241
0.727243
0.727244
0.727244
0.727245
0.727245
0.727245
0.727245
0.727245
0.727245
0.727244
0.727244
0.727243
0.727241
0.72724
0.727239
0.727237
0.727235
0.727233
0.727231
0.727229
0.727226
0.727224
0.727221
0.727219
0.727216
0.727214
0.727211
0.727209
0.727207
0.727206
0.727205
0.727205
0.727208
0.727215
0.727235
0.727298
0.765907
0.765845
0.765824
0.765817
0.765815
0.765815
0.765815
0.765817
0.765819
0.765822
0.765824
0.765827
0.76583
0.765833
0.765835
0.765838
0.765841
0.765843
0.765846
0.765848
0.76585
0.765852
0.765854
0.765855
0.765856
0.765857
0.765858
0.765859
0.765859
0.765859
0.765859
0.765859
0.765859
0.765858
0.765857
0.765856
0.765855
0.765854
0.765852
0.76585
0.765848
0.765846
0.765843
0.765841
0.765838
0.765835
0.765833
0.76583
0.765827
0.765824
0.765822
0.765819
0.765817
0.765815
0.765815
0.765815
0.765817
0.765824
0.765845
0.765907
0.804985
0.804924
0.804903
0.804896
0.804893
0.804893
0.804894
0.804896
0.804898
0.804901
0.804904
0.804907
0.80491
0.804913
0.804916
0.804919
0.804922
0.804925
0.804928
0.80493
0.804932
0.804934
0.804936
0.804938
0.804939
0.80494
0.804941
0.804942
0.804943
0.804943
0.804943
0.804943
0.804942
0.804941
0.80494
0.804939
0.804938
0.804936
0.804934
0.804932
0.80493
0.804928
0.804925
0.804922
0.804919
0.804916
0.804913
0.80491
0.804907
0.804904
0.804901
0.804898
0.804896
0.804894
0.804893
0.804893
0.804896
0.804903
0.804924
0.804985
0.844634
0.844574
0.844553
0.844545
0.844543
0.844543
0.844544
0.844546
0.844549
0.844552
0.844555
0.844558
0.844562
0.844565
0.844568
0.844572
0.844575
0.844578
0.844581
0.844584
0.844586
0.844588
0.84459
0.844592
0.844594
0.844595
0.844596
0.844597
0.844597
0.844597
0.844597
0.844597
0.844597
0.844596
0.844595
0.844594
0.844592
0.84459
0.844588
0.844586
0.844584
0.844581
0.844578
0.844575
0.844572
0.844568
0.844565
0.844562
0.844558
0.844555
0.844552
0.844549
0.844546
0.844544
0.844543
0.844543
0.844545
0.844553
0.844574
0.844634
0.884949
0.88489
0.884869
0.884861
0.884859
0.884859
0.88486
0.884862
0.884865
0.884868
0.884872
0.884876
0.884879
0.884883
0.884887
0.88489
0.884894
0.884897
0.8849
0.884903
0.884906
0.884908
0.884911
0.884912
0.884914
0.884915
0.884917
0.884917
0.884918
0.884918
0.884918
0.884918
0.884917
0.884917
0.884915
0.884914
0.884912
0.884911
0.884908
0.884906
0.884903
0.8849
0.884897
0.884894
0.88489
0.884887
0.884883
0.884879
0.884876
0.884872
0.884868
0.884865
0.884862
0.88486
0.884859
0.884859
0.884861
0.884869
0.88489
0.884949
0.926018
0.925961
0.92594
0.925932
0.925929
0.92593
0.925931
0.925934
0.925937
0.92594
0.925944
0.925948
0.925952
0.925956
0.92596
0.925964
0.925968
0.925971
0.925975
0.925978
0.925981
0.925984
0.925986
0.925988
0.92599
0.925991
0.925992
0.925993
0.925994
0.925994
0.925994
0.925994
0.925993
0.925992
0.925991
0.92599
0.925988
0.925986
0.925984
0.925981
0.925978
0.925975
0.925971
0.925968
0.925964
0.92596
0.925956
0.925952
0.925948
0.925944
0.92594
0.925937
0.925934
0.925931
0.92593
0.925929
0.925932
0.92594
0.925961
0.926018
0.967926
0.967871
0.967849
0.967841
0.967839
0.967839
0.967841
0.967844
0.967847
0.967851
0.967855
0.967859
0.967864
0.967868
0.967872
0.967877
0.967881
0.967884
0.967888
0.967892
0.967895
0.967898
0.9679
0.967902
0.967904
0.967906
0.967907
0.967908
0.967909
0.967909
0.967909
0.967909
0.967908
0.967907
0.967906
0.967904
0.967902
0.9679
0.967898
0.967895
0.967892
0.967888
0.967884
0.967881
0.967877
0.967872
0.967868
0.967864
0.967859
0.967855
0.967851
0.967847
0.967844
0.967841
0.967839
0.967839
0.967841
0.967849
0.967871
0.967926
1.01075
1.0107
1.01068
1.01067
1.01067
1.01067
1.01067
1.01067
1.01068
1.01068
1.01068
1.01069
1.01069
1.0107
1.0107
1.01071
1.01071
1.01072
1.01072
1.01072
1.01073
1.01073
1.01073
1.01073
1.01074
1.01074
1.01074
1.01074
1.01074
1.01074
1.01074
1.01074
1.01074
1.01074
1.01074
1.01074
1.01073
1.01073
1.01073
1.01073
1.01072
1.01072
1.01072
1.01071
1.01071
1.0107
1.0107
1.01069
1.01069
1.01068
1.01068
1.01068
1.01067
1.01067
1.01067
1.01067
1.01067
1.01068
1.0107
1.01075
1.05457
1.05452
1.0545
1.05449
1.05449
1.05449
1.05449
1.05449
1.0545
1.0545
1.05451
1.05451
1.05452
1.05452
1.05453
1.05453
1.05454
1.05454
1.05454
1.05455
1.05455
1.05455
1.05456
1.05456
1.05456
1.05456
1.05457
1.05457
1.05457
1.05457
1.05457
1.05457
1.05457
1.05457
1.05456
1.05456
1.05456
1.05456
1.05455
1.05455
1.05455
1.05454
1.05454
1.05454
1.05453
1.05453
1.05452
1.05452
1.05451
1.05451
1.0545
1.0545
1.05449
1.05449
1.05449
1.05449
1.05449
1.0545
1.05452
1.05457
1.09945
1.0994
1.09938
1.09937
1.09937
1.09937
1.09938
1.09938
1.09938
1.09939
1.09939
1.0994
1.0994
1.09941
1.09941
1.09942
1.09942
1.09943
1.09943
1.09944
1.09944
1.09945
1.09945
1.09945
1.09945
1.09946
1.09946
1.09946
1.09946
1.09946
1.09946
1.09946
1.09946
1.09946
1.09946
1.09945
1.09945
1.09945
1.09945
1.09944
1.09944
1.09943
1.09943
1.09942
1.09942
1.09941
1.09941
1.0994
1.0994
1.09939
1.09939
1.09938
1.09938
1.09938
1.09937
1.09937
1.09937
1.09938
1.0994
1.09945
1.14547
1.14542
1.1454
1.14539
1.14539
1.14539
1.1454
1.1454
1.1454
1.14541
1.14541
1.14542
1.14543
1.14543
1.14544
1.14544
1.14545
1.14545
1.14546
1.14546
1.14547
1.14547
1.14547
1.14548
1.14548
1.14548
1.14548
1.14548
1.14549
1.14549
1.14549
1.14549
1.14548
1.14548
1.14548
1.14548
1.14548
1.14547
1.14547
1.14547
1.14546
1.14546
1.14545
1.14545
1.14544
1.14544
1.14543
1.14543
1.14542
1.14541
1.14541
1.1454
1.1454
1.1454
1.14539
1.14539
1.14539
1.1454
1.14542
1.14547
1.19269
1.19264
1.19262
1.19262
1.19261
1.19261
1.19262
1.19262
1.19263
1.19263
1.19264
1.19264
1.19265
1.19266
1.19266
1.19267
1.19267
1.19268
1.19268
1.19269
1.19269
1.1927
1.1927
1.1927
1.19271
1.19271
1.19271
1.19271
1.19271
1.19271
1.19271
1.19271
1.19271
1.19271
1.19271
1.19271
1.1927
1.1927
1.1927
1.19269
1.19269
1.19268
1.19268
1.19267
1.19267
1.19266
1.19266
1.19265
1.19264
1.19264
1.19263
1.19263
1.19262
1.19262
1.19261
1.19261
1.19262
1.19262
1.19264
1.19269
1.24117
1.24113
1.24111
1.2411
1.2411
1.2411
1.2411
1.24111
1.24111
1.24112
1.24113
1.24113
1.24114
1.24114
1.24115
1.24116
1.24116
1.24117
1.24118
1.24118
1.24118
1.24119
1.24119
1.2412
1.2412
1.2412
1.2412
1.2412
1.24121
1.24121
1.24121
1.24121
1.2412
1.2412
1.2412
1.2412
1.2412
1.24119
1.24119
1.24118
1.24118
1.24118
1.24117
1.24116
1.24116
1.24115
1.24114
1.24114
1.24113
1.24113
1.24112
1.24111
1.24111
1.2411
1.2411
1.2411
1.2411
1.24111
1.24113
1.24117
1.29099
1.29094
1.29092
1.29092
1.29091
1.29092
1.29092
1.29092
1.29093
1.29093
1.29094
1.29095
1.29096
1.29096
1.29097
1.29098
1.29098
1.29099
1.29099
1.291
1.291
1.29101
1.29101
1.29102
1.29102
1.29102
1.29102
1.29103
1.29103
1.29103
1.29103
1.29103
1.29103
1.29102
1.29102
1.29102
1.29102
1.29101
1.29101
1.291
1.291
1.29099
1.29099
1.29098
1.29098
1.29097
1.29096
1.29096
1.29095
1.29094
1.29093
1.29093
1.29092
1.29092
1.29092
1.29091
1.29092
1.29092
1.29094
1.29099
1.34219
1.34215
1.34213
1.34212
1.34212
1.34212
1.34212
1.34213
1.34213
1.34214
1.34215
1.34215
1.34216
1.34217
1.34218
1.34218
1.34219
1.3422
1.3422
1.34221
1.34221
1.34222
1.34222
1.34223
1.34223
1.34223
1.34223
1.34224
1.34224
1.34224
1.34224
1.34224
1.34224
1.34223
1.34223
1.34223
1.34223
1.34222
1.34222
1.34221
1.34221
1.3422
1.3422
1.34219
1.34218
1.34218
1.34217
1.34216
1.34215
1.34215
1.34214
1.34213
1.34213
1.34212
1.34212
1.34212
1.34212
1.34213
1.34215
1.34219
1.39484
1.3948
1.39478
1.39477
1.39477
1.39477
1.39477
1.39478
1.39479
1.39479
1.3948
1.39481
1.39482
1.39482
1.39483
1.39484
1.39485
1.39485
1.39486
1.39487
1.39487
1.39488
1.39488
1.39488
1.39489
1.39489
1.39489
1.3949
1.3949
1.3949
1.3949
1.3949
1.3949
1.39489
1.39489
1.39489
1.39488
1.39488
1.39488
1.39487
1.39487
1.39486
1.39485
1.39485
1.39484
1.39483
1.39482
1.39482
1.39481
1.3948
1.39479
1.39479
1.39478
1.39477
1.39477
1.39477
1.39477
1.39478
1.3948
1.39484
1.44899
1.44896
1.44894
1.44893
1.44893
1.44893
1.44894
1.44894
1.44895
1.44895
1.44896
1.44897
1.44898
1.44899
1.449
1.449
1.44901
1.44902
1.44903
1.44903
1.44904
1.44904
1.44905
1.44905
1.44906
1.44906
1.44906
1.44906
1.44906
1.44906
1.44906
1.44906
1.44906
1.44906
1.44906
1.44906
1.44905
1.44905
1.44904
1.44904
1.44903
1.44903
1.44902
1.44901
1.449
1.449
1.44899
1.44898
1.44897
1.44896
1.44895
1.44895
1.44894
1.44894
1.44893
1.44893
1.44893
1.44894
1.44896
1.44899
1.50472
1.50468
1.50466
1.50466
1.50466
1.50466
1.50466
1.50467
1.50468
1.50468
1.50469
1.5047
1.50471
1.50472
1.50473
1.50473
1.50474
1.50475
1.50476
1.50476
1.50477
1.50478
1.50478
1.50479
1.50479
1.50479
1.5048
1.5048
1.5048
1.5048
1.5048
1.5048
1.5048
1.5048
1.50479
1.50479
1.50479
1.50478
1.50478
1.50477
1.50476
1.50476
1.50475
1.50474
1.50473
1.50473
1.50472
1.50471
1.5047
1.50469
1.50468
1.50468
1.50467
1.50466
1.50466
1.50466
1.50466
1.50466
1.50468
1.50472
1.56206
1.56203
1.56202
1.56201
1.56201
1.56201
1.56201
1.56202
1.56203
1.56204
1.56205
1.56205
1.56206
1.56207
1.56208
1.56209
1.5621
1.56211
1.56211
1.56212
1.56213
1.56213
1.56214
1.56214
1.56215
1.56215
1.56215
1.56216
1.56216
1.56216
1.56216
1.56216
1.56216
1.56215
1.56215
1.56215
1.56214
1.56214
1.56213
1.56213
1.56212
1.56211
1.56211
1.5621
1.56209
1.56208
1.56207
1.56206
1.56205
1.56205
1.56204
1.56203
1.56202
1.56201
1.56201
1.56201
1.56201
1.56202
1.56203
1.56206
1.6211
1.62107
1.62105
1.62104
1.62104
1.62104
1.62105
1.62106
1.62106
1.62107
1.62108
1.62109
1.6211
1.62111
1.62112
1.62113
1.62114
1.62115
1.62115
1.62116
1.62117
1.62118
1.62118
1.62119
1.62119
1.62119
1.6212
1.6212
1.6212
1.6212
1.6212
1.6212
1.6212
1.6212
1.62119
1.62119
1.62119
1.62118
1.62118
1.62117
1.62116
1.62115
1.62115
1.62114
1.62113
1.62112
1.62111
1.6211
1.62109
1.62108
1.62107
1.62106
1.62106
1.62105
1.62104
1.62104
1.62104
1.62105
1.62107
1.6211
1.68187
1.68184
1.68182
1.68182
1.68182
1.68182
1.68182
1.68183
1.68184
1.68185
1.68186
1.68187
1.68188
1.68189
1.6819
1.68191
1.68192
1.68193
1.68194
1.68194
1.68195
1.68196
1.68196
1.68197
1.68197
1.68198
1.68198
1.68198
1.68198
1.68198
1.68198
1.68198
1.68198
1.68198
1.68198
1.68197
1.68197
1.68196
1.68196
1.68195
1.68194
1.68194
1.68193
1.68192
1.68191
1.6819
1.68189
1.68188
1.68187
1.68186
1.68185
1.68184
1.68183
1.68182
1.68182
1.68182
1.68182
1.68182
1.68184
1.68187
1.74444
1.74441
1.7444
1.74439
1.74439
1.74439
1.7444
1.74441
1.74442
1.74443
1.74444
1.74445
1.74446
1.74447
1.74448
1.74449
1.7445
1.74451
1.74452
1.74452
1.74453
1.74454
1.74455
1.74455
1.74456
1.74456
1.74456
1.74456
1.74457
1.74457
1.74457
1.74457
1.74456
1.74456
1.74456
1.74456
1.74455
1.74455
1.74454
1.74453
1.74452
1.74452
1.74451
1.7445
1.74449
1.74448
1.74447
1.74446
1.74445
1.74444
1.74443
1.74442
1.74441
1.7444
1.74439
1.74439
1.74439
1.7444
1.74441
1.74444
1.80887
1.80884
1.80883
1.80882
1.80882
1.80883
1.80883
1.80884
1.80885
1.80886
1.80887
1.80888
1.80889
1.8089
1.80892
1.80893
1.80894
1.80895
1.80896
1.80896
1.80897
1.80898
1.80899
1.80899
1.809
1.809
1.809
1.80901
1.80901
1.80901
1.80901
1.80901
1.80901
1.809
1.809
1.809
1.80899
1.80899
1.80898
1.80897
1.80896
1.80896
1.80895
1.80894
1.80893
1.80892
1.8089
1.80889
1.80888
1.80887
1.80886
1.80885
1.80884
1.80883
1.80883
1.80882
1.80882
1.80883
1.80884
1.80887
1.87522
1.87519
1.87518
1.87517
1.87518
1.87518
1.87519
1.87519
1.8752
1.87521
1.87523
1.87524
1.87525
1.87526
1.87527
1.87528
1.87529
1.8753
1.87531
1.87532
1.87533
1.87534
1.87535
1.87535
1.87536
1.87536
1.87536
1.87537
1.87537
1.87537
1.87537
1.87537
1.87537
1.87536
1.87536
1.87536
1.87535
1.87535
1.87534
1.87533
1.87532
1.87531
1.8753
1.87529
1.87528
1.87527
1.87526
1.87525
1.87524
1.87523
1.87521
1.8752
1.87519
1.87519
1.87518
1.87518
1.87517
1.87518
1.87519
1.87522
1.94354
1.94352
1.94351
1.94351
1.94351
1.94351
1.94352
1.94353
1.94354
1.94355
1.94356
1.94357
1.94358
1.9436
1.94361
1.94362
1.94363
1.94364
1.94365
1.94366
1.94367
1.94368
1.94369
1.94369
1.9437
1.9437
1.94371
1.94371
1.94371
1.94371
1.94371
1.94371
1.94371
1.94371
1.9437
1.9437
1.94369
1.94369
1.94368
1.94367
1.94366
1.94365
1.94364
1.94363
1.94362
1.94361
1.9436
1.94358
1.94357
1.94356
1.94355
1.94354
1.94353
1.94352
1.94351
1.94351
1.94351
1.94351
1.94352
1.94354
2.01391
2.0139
2.01388
2.01388
2.01388
2.01388
2.01389
2.0139
2.01391
2.01392
2.01394
2.01395
2.01396
2.01397
2.01399
2.014
2.01401
2.01402
2.01403
2.01404
2.01405
2.01406
2.01407
2.01407
2.01408
2.01408
2.01409
2.01409
2.01409
2.01409
2.01409
2.01409
2.01409
2.01409
2.01408
2.01408
2.01407
2.01407
2.01406
2.01405
2.01404
2.01403
2.01402
2.01401
2.014
2.01399
2.01397
2.01396
2.01395
2.01394
2.01392
2.01391
2.0139
2.01389
2.01388
2.01388
2.01388
2.01388
2.0139
2.01391
2.08639
2.08637
2.08636
2.08636
2.08636
2.08636
2.08637
2.08638
2.08639
2.0864
2.08642
2.08643
2.08644
2.08646
2.08647
2.08648
2.0865
2.08651
2.08652
2.08653
2.08654
2.08655
2.08656
2.08656
2.08657
2.08657
2.08658
2.08658
2.08658
2.08658
2.08658
2.08658
2.08658
2.08658
2.08657
2.08657
2.08656
2.08656
2.08655
2.08654
2.08653
2.08652
2.08651
2.0865
2.08648
2.08647
2.08646
2.08644
2.08643
2.08642
2.0864
2.08639
2.08638
2.08637
2.08636
2.08636
2.08636
2.08636
2.08637
2.08639
2.16103
2.16102
2.16101
2.161
2.16101
2.16101
2.16102
2.16103
2.16104
2.16105
2.16107
2.16108
2.1611
2.16111
2.16112
2.16114
2.16115
2.16116
2.16117
2.16119
2.1612
2.1612
2.16121
2.16122
2.16123
2.16123
2.16124
2.16124
2.16124
2.16124
2.16124
2.16124
2.16124
2.16124
2.16123
2.16123
2.16122
2.16121
2.1612
2.1612
2.16119
2.16117
2.16116
2.16115
2.16114
2.16112
2.16111
2.1611
2.16108
2.16107
2.16105
2.16104
2.16103
2.16102
2.16101
2.16101
2.161
2.16101
2.16102
2.16103
2.23791
2.2379
2.23789
2.23789
2.23789
2.2379
2.2379
2.23792
2.23793
2.23794
2.23796
2.23797
2.23799
2.238
2.23801
2.23803
2.23804
2.23806
2.23807
2.23808
2.23809
2.2381
2.23811
2.23811
2.23812
2.23813
2.23813
2.23813
2.23814
2.23814
2.23814
2.23814
2.23813
2.23813
2.23813
2.23812
2.23811
2.23811
2.2381
2.23809
2.23808
2.23807
2.23806
2.23804
2.23803
2.23801
2.238
2.23799
2.23797
2.23796
2.23794
2.23793
2.23792
2.2379
2.2379
2.23789
2.23789
2.23789
2.2379
2.23791
2.3171
2.31709
2.31708
2.31708
2.31708
2.31709
2.3171
2.31711
2.31712
2.31713
2.31715
2.31716
2.31718
2.31719
2.31721
2.31723
2.31724
2.31725
2.31727
2.31728
2.31729
2.3173
2.31731
2.31731
2.31732
2.31733
2.31733
2.31733
2.31734
2.31734
2.31734
2.31734
2.31733
2.31733
2.31733
2.31732
2.31731
2.31731
2.3173
2.31729
2.31728
2.31727
2.31725
2.31724
2.31723
2.31721
2.31719
2.31718
2.31716
2.31715
2.31713
2.31712
2.31711
2.3171
2.31709
2.31708
2.31708
2.31708
2.31709
2.3171
2.39866
2.39865
2.39864
2.39864
2.39864
2.39865
2.39866
2.39867
2.39869
2.3987
2.39872
2.39873
2.39875
2.39876
2.39878
2.3988
2.39881
2.39883
2.39884
2.39885
2.39886
2.39887
2.39888
2.39889
2.3989
2.3989
2.39891
2.39891
2.39891
2.39891
2.39891
2.39891
2.39891
2.39891
2.3989
2.3989
2.39889
2.39888
2.39887
2.39886
2.39885
2.39884
2.39883
2.39881
2.3988
2.39878
2.39876
2.39875
2.39873
2.39872
2.3987
2.39869
2.39867
2.39866
2.39865
2.39864
2.39864
2.39864
2.39865
2.39866
2.48267
2.48266
2.48265
2.48265
2.48265
2.48266
2.48267
2.48268
2.4827
2.48271
2.48273
2.48275
2.48276
2.48278
2.4828
2.48281
2.48283
2.48284
2.48286
2.48287
2.48288
2.48289
2.4829
2.48291
2.48292
2.48293
2.48293
2.48293
2.48294
2.48294
2.48294
2.48294
2.48293
2.48293
2.48293
2.48292
2.48291
2.4829
2.48289
2.48288
2.48287
2.48286
2.48284
2.48283
2.48281
2.4828
2.48278
2.48276
2.48275
2.48273
2.48271
2.4827
2.48268
2.48267
2.48266
2.48265
2.48265
2.48265
2.48266
2.48267
2.5692
2.56919
2.56918
2.56918
2.56919
2.56919
2.5692
2.56922
2.56923
2.56925
2.56927
2.56928
2.5693
2.56932
2.56934
2.56935
2.56937
2.56938
2.5694
2.56941
2.56942
2.56944
2.56945
2.56945
2.56946
2.56947
2.56947
2.56948
2.56948
2.56948
2.56948
2.56948
2.56948
2.56947
2.56947
2.56946
2.56945
2.56945
2.56944
2.56942
2.56941
2.5694
2.56938
2.56937
2.56935
2.56934
2.56932
2.5693
2.56928
2.56927
2.56925
2.56923
2.56922
2.5692
2.56919
2.56919
2.56918
2.56918
2.56919
2.5692
2.65832
2.65831
2.65831
2.65831
2.65831
2.65832
2.65833
2.65835
2.65836
2.65838
2.6584
2.65841
2.65843
2.65845
2.65847
2.65849
2.6585
2.65852
2.65854
2.65855
2.65856
2.65857
2.65858
2.65859
2.6586
2.65861
2.65861
2.65862
2.65862
2.65862
2.65862
2.65862
2.65862
2.65861
2.65861
2.6586
2.65859
2.65858
2.65857
2.65856
2.65855
2.65854
2.65852
2.6585
2.65849
2.65847
2.65845
2.65843
2.65841
2.6584
2.65838
2.65836
2.65835
2.65833
2.65832
2.65831
2.65831
2.65831
2.65831
2.65832
2.75012
2.75012
2.75011
2.75011
2.75012
2.75012
2.75014
2.75015
2.75017
2.75018
2.7502
2.75022
2.75024
2.75026
2.75028
2.7503
2.75032
2.75033
2.75035
2.75036
2.75038
2.75039
2.7504
2.75041
2.75042
2.75042
2.75043
2.75043
2.75044
2.75044
2.75044
2.75044
2.75043
2.75043
2.75042
2.75042
2.75041
2.7504
2.75039
2.75038
2.75036
2.75035
2.75033
2.75032
2.7503
2.75028
2.75026
2.75024
2.75022
2.7502
2.75018
2.75017
2.75015
2.75014
2.75012
2.75012
2.75011
2.75011
2.75012
2.75012
2.84468
2.84467
2.84467
2.84467
2.84467
2.84468
2.84469
2.84471
2.84473
2.84475
2.84476
2.84478
2.8448
2.84482
2.84484
2.84486
2.84488
2.8449
2.84492
2.84493
2.84494
2.84496
2.84497
2.84498
2.84499
2.84499
2.845
2.845
2.84501
2.84501
2.84501
2.84501
2.845
2.845
2.84499
2.84499
2.84498
2.84497
2.84496
2.84494
2.84493
2.84492
2.8449
2.84488
2.84486
2.84484
2.84482
2.8448
2.84478
2.84476
2.84475
2.84473
2.84471
2.84469
2.84468
2.84467
2.84467
2.84467
2.84467
2.84468
2.94207
2.94206
2.94206
2.94206
2.94207
2.94208
2.94209
2.94211
2.94212
2.94214
2.94216
2.94218
2.94221
2.94223
2.94225
2.94227
2.94229
2.9423
2.94232
2.94234
2.94235
2.94237
2.94238
2.94239
2.9424
2.9424
2.94241
2.94241
2.94242
2.94242
2.94242
2.94242
2.94241
2.94241
2.9424
2.9424
2.94239
2.94238
2.94237
2.94235
2.94234
2.94232
2.9423
2.94229
2.94227
2.94225
2.94223
2.94221
2.94218
2.94216
2.94214
2.94212
2.94211
2.94209
2.94208
2.94207
2.94206
2.94206
2.94206
2.94207
3.04238
3.04238
3.04238
3.04238
3.04239
3.0424
3.04241
3.04243
3.04245
3.04247
3.04249
3.04251
3.04253
3.04255
3.04257
3.04259
3.04261
3.04263
3.04265
3.04267
3.04268
3.0427
3.04271
3.04272
3.04273
3.04274
3.04274
3.04275
3.04275
3.04275
3.04275
3.04275
3.04275
3.04274
3.04274
3.04273
3.04272
3.04271
3.0427
3.04268
3.04267
3.04265
3.04263
3.04261
3.04259
3.04257
3.04255
3.04253
3.04251
3.04249
3.04247
3.04245
3.04243
3.04241
3.0424
3.04239
3.04238
3.04238
3.04238
3.04238
3.14571
3.14571
3.14571
3.14571
3.14572
3.14573
3.14574
3.14576
3.14578
3.1458
3.14582
3.14584
3.14587
3.14589
3.14591
3.14593
3.14595
3.14597
3.14599
3.14601
3.14603
3.14604
3.14605
3.14606
3.14607
3.14608
3.14609
3.14609
3.1461
3.1461
3.1461
3.1461
3.14609
3.14609
3.14608
3.14607
3.14606
3.14605
3.14604
3.14603
3.14601
3.14599
3.14597
3.14595
3.14593
3.14591
3.14589
3.14587
3.14584
3.14582
3.1458
3.14578
3.14576
3.14574
3.14573
3.14572
3.14571
3.14571
3.14571
3.14571
3.25214
3.25214
3.25214
3.25214
3.25215
3.25216
3.25217
3.25219
3.25221
3.25223
3.25226
3.25228
3.2523
3.25233
3.25235
3.25237
3.2524
3.25242
3.25244
3.25245
3.25247
3.25248
3.2525
3.25251
3.25252
3.25253
3.25253
3.25254
3.25254
3.25254
3.25254
3.25254
3.25254
3.25253
3.25253
3.25252
3.25251
3.2525
3.25248
3.25247
3.25245
3.25244
3.25242
3.2524
3.25237
3.25235
3.25233
3.2523
3.25228
3.25226
3.25223
3.25221
3.25219
3.25217
3.25216
3.25215
3.25214
3.25214
3.25214
3.25214
3.36176
3.36176
3.36176
3.36176
3.36177
3.36179
3.3618
3.36182
3.36184
3.36186
3.36189
3.36191
3.36194
3.36196
3.36199
3.36201
3.36203
3.36205
3.36207
3.36209
3.36211
3.36212
3.36214
3.36215
3.36216
3.36217
3.36218
3.36218
3.36219
3.36219
3.36219
3.36219
3.36218
3.36218
3.36217
3.36216
3.36215
3.36214
3.36212
3.36211
3.36209
3.36207
3.36205
3.36203
3.36201
3.36199
3.36196
3.36194
3.36191
3.36189
3.36186
3.36184
3.36182
3.3618
3.36179
3.36177
3.36176
3.36176
3.36176
3.36176
3.47467
3.47467
3.47467
3.47468
3.47469
3.4747
3.47472
3.47474
3.47476
3.47479
3.47481
3.47484
3.47486
3.47489
3.47491
3.47494
3.47496
3.47498
3.475
3.47502
3.47504
3.47506
3.47507
3.47508
3.47509
3.4751
3.47511
3.47511
3.47512
3.47512
3.47512
3.47512
3.47511
3.47511
3.4751
3.47509
3.47508
3.47507
3.47506
3.47504
3.47502
3.475
3.47498
3.47496
3.47494
3.47491
3.47489
3.47486
3.47484
3.47481
3.47479
3.47476
3.47474
3.47472
3.4747
3.47469
3.47468
3.47467
3.47467
3.47467
3.59098
3.59098
3.59098
3.59098
3.59099
3.59101
3.59103
3.59105
3.59107
3.5911
3.59112
3.59115
3.59117
3.5912
3.59123
3.59125
3.59128
3.5913
3.59132
3.59134
3.59136
3.59138
3.59139
3.5914
3.59142
3.59143
3.59143
3.59144
3.59144
3.59144
3.59144
3.59144
3.59144
3.59143
3.59143
3.59142
3.5914
3.59139
3.59138
3.59136
3.59134
3.59132
3.5913
3.59128
3.59125
3.59123
3.5912
3.59117
3.59115
3.59112
3.5911
3.59107
3.59105
3.59103
3.59101
3.59099
3.59098
3.59098
3.59098
3.59098
3.71077
3.71077
3.71077
3.71078
3.71079
3.71081
3.71082
3.71085
3.71087
3.7109
3.71092
3.71095
3.71098
3.71101
3.71103
3.71106
3.71109
3.71111
3.71113
3.71115
3.71117
3.71119
3.7112
3.71122
3.71123
3.71124
3.71125
3.71125
3.71126
3.71126
3.71126
3.71126
3.71125
3.71125
3.71124
3.71123
3.71122
3.7112
3.71119
3.71117
3.71115
3.71113
3.71111
3.71109
3.71106
3.71103
3.71101
3.71098
3.71095
3.71092
3.7109
3.71087
3.71085
3.71082
3.71081
3.71079
3.71078
3.71077
3.71077
3.71077
3.83416
3.83416
3.83416
3.83417
3.83418
3.8342
3.83422
3.83424
3.83427
3.83429
3.83432
3.83435
3.83438
3.83441
3.83444
3.83446
3.83449
3.83452
3.83454
3.83456
3.83458
3.8346
3.83461
3.83463
3.83464
3.83465
3.83466
3.83466
3.83467
3.83467
3.83467
3.83467
3.83466
3.83466
3.83465
3.83464
3.83463
3.83461
3.8346
3.83458
3.83456
3.83454
3.83452
3.83449
3.83446
3.83444
3.83441
3.83438
3.83435
3.83432
3.83429
3.83427
3.83424
3.83422
3.8342
3.83418
3.83417
3.83416
3.83416
3.83416
3.96125
3.96125
3.96126
3.96127
3.96128
3.9613
3.96132
3.96134
3.96137
3.9614
3.96142
3.96145
3.96148
3.96151
3.96154
3.96157
3.9616
3.96163
3.96165
3.96167
3.96169
3.96171
3.96173
3.96174
3.96176
3.96177
3.96177
3.96178
3.96178
3.96179
3.96179
3.96178
3.96178
3.96177
3.96177
3.96176
3.96174
3.96173
3.96171
3.96169
3.96167
3.96165
3.96163
3.9616
3.96157
3.96154
3.96151
3.96148
3.96145
3.96142
3.9614
3.96137
3.96134
3.96132
3.9613
3.96128
3.96127
3.96126
3.96125
3.96125
4.09216
4.09216
4.09217
4.09218
4.09219
4.09221
4.09223
4.09226
4.09228
4.09231
4.09234
4.09237
4.09241
4.09244
4.09247
4.0925
4.09253
4.09255
4.09258
4.0926
4.09262
4.09264
4.09266
4.09267
4.09269
4.0927
4.09271
4.09271
4.09272
4.09272
4.09272
4.09272
4.09271
4.09271
4.0927
4.09269
4.09267
4.09266
4.09264
4.09262
4.0926
4.09258
4.09255
4.09253
4.0925
4.09247
4.09244
4.09241
4.09237
4.09234
4.09231
4.09228
4.09226
4.09223
4.09221
4.09219
4.09218
4.09217
4.09216
4.09216
4.227
4.227
4.22701
4.22702
4.22703
4.22705
4.22707
4.2271
4.22713
4.22716
4.22719
4.22722
4.22726
4.22729
4.22732
4.22735
4.22738
4.22741
4.22743
4.22746
4.22748
4.2275
4.22752
4.22753
4.22755
4.22756
4.22757
4.22757
4.22758
4.22758
4.22758
4.22758
4.22757
4.22757
4.22756
4.22755
4.22753
4.22752
4.2275
4.22748
4.22746
4.22743
4.22741
4.22738
4.22735
4.22732
4.22729
4.22726
4.22722
4.22719
4.22716
4.22713
4.2271
4.22707
4.22705
4.22703
4.22702
4.22701
4.227
4.227
4.36588
4.36589
4.36589
4.3659
4.36592
4.36594
4.36596
4.36599
4.36602
4.36605
4.36609
4.36612
4.36615
4.36619
4.36622
4.36625
4.36628
4.36631
4.36634
4.36636