/*--------------------------------*- C++ -*----------------------------------*\
| =========                 |                                                 |
| \\      /  F ield         | foam-extend: Open Source CFD                    |
|  \\    /   O peration     | Version:     4.0                                |
|   \\  /    A nd           | Web:         http://www.foam-extend.org         |
|    \\/     M anipulation  |                                                 |
\*---------------------------------------------------------------------------*/
FoamFile
{
    version     2.0;
    format      ascii;
    class       volScalarField;
    location    "1360";
    object      psiE;
}
// * * * * * * * * * * * * * * * * * * * * * * * * * * * * * * * * * * * * * //

dimensions      [0 0 0 0 0 0 0];

internalField   nonuniform List<scalar> 
6960
(
0.346945
0.346955
0.346966
0.346977
0.346987
0.346996
0.347004
0.34701
0.347016
0.347021
0.347025
0.347028
0.347031
0.347034
0.347036
0.347037
0.347039
0.34704
0.347041
0.347042
0.347042
0.347043
0.347043
0.347044
0.347044
0.347044
0.347045
0.347045
0.347045
0.347045
0.347045
0.347045
0.347045
0.347045
0.347044
0.347044
0.347044
0.347043
0.347043
0.347042
0.347042
0.347041
0.34704
0.347039
0.347037
0.347036
0.347034
0.347031
0.347028
0.347025
0.347021
0.347016
0.34701
0.347004
0.346996
0.346987
0.346977
0.346966
0.346955
0.346945
0.884733
0.884773
0.884819
0.884863
0.884903
0.884939
0.88497
0.884996
0.885019
0.885039
0.885055
0.885069
0.885081
0.88509
0.885098
0.885105
0.885111
0.885116
0.88512
0.885123
0.885125
0.885128
0.88513
0.885131
0.885132
0.885133
0.885134
0.885134
0.885135
0.885135
0.885135
0.885135
0.885134
0.885134
0.885133
0.885132
0.885131
0.88513
0.885128
0.885125
0.885123
0.88512
0.885116
0.885111
0.885105
0.885098
0.88509
0.885081
0.885069
0.885055
0.885039
0.885019
0.884996
0.88497
0.884939
0.884903
0.884863
0.884819
0.884773
0.884733
1.38395
1.38402
1.38411
1.3842
1.38428
1.38435
1.38441
1.38446
1.38451
1.38454
1.38458
1.3846
1.38463
1.38464
1.38466
1.38467
1.38468
1.38469
1.3847
1.38471
1.38471
1.38472
1.38472
1.38472
1.38473
1.38473
1.38473
1.38473
1.38473
1.38473
1.38473
1.38473
1.38473
1.38473
1.38473
1.38473
1.38472
1.38472
1.38472
1.38471
1.38471
1.3847
1.38469
1.38468
1.38467
1.38466
1.38464
1.38463
1.3846
1.38458
1.38454
1.38451
1.38446
1.38441
1.38435
1.38428
1.3842
1.38411
1.38402
1.38395
1.87639
1.87651
1.87665
1.87678
1.8769
1.87701
1.87711
1.87719
1.87726
1.87731
1.87736
1.87741
1.87744
1.87747
1.87749
1.87751
1.87753
1.87755
1.87756
1.87757
1.87758
1.87758
1.87759
1.87759
1.87759
1.8776
1.8776
1.8776
1.8776
1.8776
1.8776
1.8776
1.8776
1.8776
1.8776
1.87759
1.87759
1.87759
1.87758
1.87758
1.87757
1.87756
1.87755
1.87753
1.87751
1.87749
1.87747
1.87744
1.87741
1.87736
1.87731
1.87726
1.87719
1.87711
1.87701
1.8769
1.87678
1.87665
1.87651
1.87639
2.37302
2.37319
2.37338
2.37356
2.37373
2.37388
2.37401
2.37412
2.37421
2.3743
2.37436
2.37442
2.37447
2.37451
2.37454
2.37457
2.37459
2.37461
2.37463
2.37464
2.37465
2.37466
2.37467
2.37468
2.37468
2.37469
2.37469
2.37469
2.37469
2.37469
2.37469
2.37469
2.37469
2.37469
2.37469
2.37468
2.37468
2.37467
2.37466
2.37465
2.37464
2.37463
2.37461
2.37459
2.37457
2.37454
2.37451
2.37447
2.37442
2.37436
2.3743
2.37421
2.37412
2.37401
2.37388
2.37373
2.37356
2.37338
2.37319
2.37302
2.87775
2.87796
2.87821
2.87844
2.87866
2.87885
2.87901
2.87916
2.87928
2.87938
2.87947
2.87954
2.8796
2.87966
2.8797
2.87974
2.87977
2.87979
2.87981
2.87983
2.87984
2.87985
2.87986
2.87987
2.87988
2.87988
2.87989
2.87989
2.87989
2.87989
2.87989
2.87989
2.87989
2.87989
2.87988
2.87988
2.87987
2.87986
2.87985
2.87984
2.87983
2.87981
2.87979
2.87977
2.87974
2.8797
2.87966
2.8796
2.87954
2.87947
2.87938
2.87928
2.87916
2.87901
2.87885
2.87866
2.87844
2.87821
2.87796
2.87775
3.39193
3.39219
3.39249
3.39278
3.39304
3.39328
3.39348
3.39365
3.3938
3.39393
3.39404
3.39413
3.3942
3.39427
3.39432
3.39436
3.3944
3.39443
3.39446
3.39448
3.39449
3.39451
3.39452
3.39453
3.39454
3.39454
3.39455
3.39455
3.39455
3.39455
3.39455
3.39455
3.39455
3.39455
3.39454
3.39454
3.39453
3.39452
3.39451
3.39449
3.39448
3.39446
3.39443
3.3944
3.39436
3.39432
3.39427
3.3942
3.39413
3.39404
3.39393
3.3938
3.39365
3.39348
3.39328
3.39304
3.39278
3.39249
3.39219
3.39193
3.91601
3.91631
3.91667
3.91701
3.91733
3.9176
3.91784
3.91805
3.91823
3.91838
3.9185
3.91861
3.9187
3.91877
3.91884
3.91889
3.91893
3.91897
3.919
3.91902
3.91905
3.91906
3.91908
3.91909
3.9191
3.9191
3.91911
3.91911
3.91911
3.91912
3.91912
3.91911
3.91911
3.91911
3.9191
3.9191
3.91909
3.91908
3.91906
3.91905
3.91902
3.919
3.91897
3.91893
3.91889
3.91884
3.91877
3.9187
3.91861
3.9185
3.91838
3.91823
3.91805
3.91784
3.9176
3.91733
3.91701
3.91667
3.91631
3.91601
4.45007
4.45042
4.45083
4.45123
4.45159
4.45191
4.45219
4.45243
4.45263
4.45281
4.45296
4.45308
4.45318
4.45327
4.45334
4.4534
4.45345
4.4535
4.45353
4.45356
4.45358
4.4536
4.45362
4.45363
4.45364
4.45365
4.45366
4.45366
4.45366
4.45367
4.45367
4.45366
4.45366
4.45366
4.45365
4.45364
4.45363
4.45362
4.4536
4.45358
4.45356
4.45353
4.4535
4.45345
4.4534
4.45334
4.45327
4.45318
4.45308
4.45296
4.45281
4.45263
4.45243
4.45219
4.45191
4.45159
4.45123
4.45083
4.45042
4.45007
4.99406
4.99446
4.99493
4.99538
4.9958
4.99616
4.99647
4.99675
4.99698
4.99718
4.99734
4.99749
4.9976
4.9977
4.99778
4.99785
4.99791
4.99796
4.998
4.99803
4.99806
4.99808
4.9981
4.99811
4.99813
4.99813
4.99814
4.99815
4.99815
4.99815
4.99815
4.99815
4.99815
4.99814
4.99813
4.99813
4.99811
4.9981
4.99808
4.99806
4.99803
4.998
4.99796
4.99791
4.99785
4.99778
4.9977
4.9976
4.99749
4.99734
4.99718
4.99698
4.99675
4.99647
4.99616
4.9958
4.99538
4.99493
4.99446
4.99406
5.54787
5.54832
5.54884
5.54935
5.54981
5.55022
5.55057
5.55088
5.55114
5.55136
5.55155
5.5517
5.55184
5.55195
5.55204
5.55212
5.55218
5.55224
5.55228
5.55232
5.55235
5.55237
5.55239
5.55241
5.55242
5.55243
5.55244
5.55245
5.55245
5.55245
5.55245
5.55245
5.55245
5.55244
5.55243
5.55242
5.55241
5.55239
5.55237
5.55235
5.55232
5.55228
5.55224
5.55218
5.55212
5.55204
5.55195
5.55184
5.5517
5.55155
5.55136
5.55114
5.55088
5.55057
5.55022
5.54981
5.54935
5.54884
5.54832
5.54787
6.11132
6.11181
6.1124
6.11296
6.11347
6.11392
6.11431
6.11465
6.11494
6.11518
6.11539
6.11557
6.11571
6.11584
6.11594
6.11602
6.11609
6.11615
6.1162
6.11624
6.11628
6.11631
6.11633
6.11635
6.11636
6.11637
6.11638
6.11639
6.11639
6.11639
6.11639
6.11639
6.11639
6.11638
6.11637
6.11636
6.11635
6.11633
6.11631
6.11628
6.11624
6.1162
6.11615
6.11609
6.11602
6.11594
6.11584
6.11571
6.11557
6.11539
6.11518
6.11494
6.11465
6.11431
6.11392
6.11347
6.11296
6.1124
6.11181
6.11132
6.68419
6.68473
6.68537
6.68598
6.68654
6.68704
6.68747
6.68784
6.68816
6.68843
6.68865
6.68885
6.68901
6.68914
6.68925
6.68935
6.68943
6.68949
6.68954
6.68959
6.68963
6.68966
6.68968
6.6897
6.68972
6.68973
6.68974
6.68975
6.68975
6.68975
6.68975
6.68975
6.68975
6.68974
6.68973
6.68972
6.6897
6.68968
6.68966
6.68963
6.68959
6.68954
6.68949
6.68943
6.68935
6.68925
6.68914
6.68901
6.68885
6.68865
6.68843
6.68816
6.68784
6.68747
6.68704
6.68654
6.68598
6.68537
6.68473
6.68419
7.26621
7.26679
7.26749
7.26816
7.26877
7.2693
7.26977
7.27018
7.27052
7.27081
7.27106
7.27127
7.27145
7.27159
7.27172
7.27182
7.2719
7.27197
7.27203
7.27208
7.27212
7.27215
7.27218
7.2722
7.27222
7.27223
7.27225
7.27225
7.27226
7.27226
7.27226
7.27226
7.27225
7.27225
7.27223
7.27222
7.2722
7.27218
7.27215
7.27212
7.27208
7.27203
7.27197
7.2719
7.27182
7.27172
7.27159
7.27145
7.27127
7.27106
7.27081
7.27052
7.27018
7.26977
7.2693
7.26877
7.26816
7.26749
7.26679
7.26621
7.85705
7.85768
7.85843
7.85915
7.85981
7.86039
7.8609
7.86133
7.8617
7.86202
7.86229
7.86251
7.8627
7.86286
7.86299
7.86311
7.8632
7.86327
7.86334
7.86339
7.86343
7.86347
7.8635
7.86352
7.86354
7.86356
7.86357
7.86358
7.86358
7.86358
7.86358
7.86358
7.86358
7.86357
7.86356
7.86354
7.86352
7.8635
7.86347
7.86343
7.86339
7.86334
7.86327
7.8632
7.86311
7.86299
7.86286
7.8627
7.86251
7.86229
7.86202
7.8617
7.86133
7.8609
7.86039
7.85981
7.85915
7.85843
7.85768
7.85705
8.45632
8.45699
8.4578
8.45858
8.45928
8.4599
8.46045
8.46091
8.46131
8.46165
8.46194
8.46218
8.46239
8.46256
8.4627
8.46282
8.46292
8.463
8.46307
8.46312
8.46317
8.46321
8.46324
8.46327
8.46329
8.4633
8.46332
8.46332
8.46333
8.46333
8.46333
8.46333
8.46332
8.46332
8.4633
8.46329
8.46327
8.46324
8.46321
8.46317
8.46312
8.46307
8.463
8.46292
8.46282
8.4627
8.46256
8.46239
8.46218
8.46194
8.46165
8.46131
8.46091
8.46045
8.4599
8.45928
8.45858
8.4578
8.45699
8.45632
9.06356
9.06428
9.06514
9.06597
9.06672
9.06739
9.06796
9.06846
9.06889
9.06925
9.06956
9.06982
9.07004
9.07022
9.07037
9.0705
9.0706
9.07069
9.07076
9.07082
9.07087
9.07091
9.07095
9.07098
9.071
9.07101
9.07103
9.07104
9.07104
9.07105
9.07105
9.07104
9.07104
9.07103
9.07101
9.071
9.07098
9.07095
9.07091
9.07087
9.07082
9.07076
9.07069
9.0706
9.0705
9.07037
9.07022
9.07004
9.06982
9.06956
9.06925
9.06889
9.06846
9.06796
9.06739
9.06672
9.06597
9.06514
9.06428
9.06356
9.67824
9.679
9.67991
9.68079
9.68159
9.6823
9.68291
9.68344
9.68389
9.68428
9.6846
9.68488
9.68511
9.6853
9.68546
9.6856
9.68571
9.6858
9.68588
9.68595
9.686
9.68604
9.68608
9.68611
9.68613
9.68615
9.68616
9.68617
9.68618
9.68618
9.68618
9.68618
9.68617
9.68616
9.68615
9.68613
9.68611
9.68608
9.68604
9.686
9.68595
9.68588
9.6858
9.68571
9.6856
9.68546
9.6853
9.68511
9.68488
9.6846
9.68428
9.68389
9.68344
9.68291
9.6823
9.68159
9.68079
9.67991
9.679
9.67824
10.2997
10.3005
10.3015
10.3024
10.3033
10.304
10.3047
10.3052
10.3057
10.3061
10.3064
10.3067
10.307
10.3072
10.3074
10.3075
10.3076
10.3077
10.3078
10.3079
10.3079
10.308
10.308
10.308
10.3081
10.3081
10.3081
10.3081
10.3081
10.3081
10.3081
10.3081
10.3081
10.3081
10.3081
10.3081
10.308
10.308
10.308
10.3079
10.3079
10.3078
10.3077
10.3076
10.3075
10.3074
10.3072
10.307
10.3067
10.3064
10.3061
10.3057
10.3052
10.3047
10.304
10.3033
10.3024
10.3015
10.3005
10.2997
10.9273
10.9281
10.9291
10.9301
10.931
10.9318
10.9325
10.9331
10.9336
10.934
10.9344
10.9347
10.9349
10.9351
10.9353
10.9355
10.9356
10.9357
10.9358
10.9358
10.9359
10.936
10.936
10.936
10.9361
10.9361
10.9361
10.9361
10.9361
10.9361
10.9361
10.9361
10.9361
10.9361
10.9361
10.9361
10.936
10.936
10.936
10.9359
10.9358
10.9358
10.9357
10.9356
10.9355
10.9353
10.9351
10.9349
10.9347
10.9344
10.934
10.9336
10.9331
10.9325
10.9318
10.931
10.9301
10.9291
10.9281
10.9273
11.5601
11.561
11.562
11.5631
11.564
11.5648
11.5655
11.5661
11.5667
11.5671
11.5675
11.5678
11.5681
11.5683
11.5685
11.5687
11.5688
11.5689
11.569
11.5691
11.5691
11.5692
11.5692
11.5692
11.5693
11.5693
11.5693
11.5693
11.5693
11.5693
11.5693
11.5693
11.5693
11.5693
11.5693
11.5693
11.5692
11.5692
11.5692
11.5691
11.5691
11.569
11.5689
11.5688
11.5687
11.5685
11.5683
11.5681
11.5678
11.5675
11.5671
11.5667
11.5661
11.5655
11.5648
11.564
11.5631
11.562
11.561
11.5601
12.1972
12.1981
12.1992
12.2003
12.2012
12.2021
12.2028
12.2035
12.204
12.2045
12.2049
12.2052
12.2055
12.2057
12.2059
12.2061
12.2062
12.2063
12.2064
12.2065
12.2066
12.2066
12.2067
12.2067
12.2067
12.2068
12.2068
12.2068
12.2068
12.2068
12.2068
12.2068
12.2068
12.2068
12.2068
12.2067
12.2067
12.2067
12.2066
12.2066
12.2065
12.2064
12.2063
12.2062
12.2061
12.2059
12.2057
12.2055
12.2052
12.2049
12.2045
12.204
12.2035
12.2028
12.2021
12.2012
12.2003
12.1992
12.1981
12.1972
12.8374
12.8384
12.8395
12.8406
12.8416
12.8425
12.8433
12.8439
12.8445
12.845
12.8454
12.8458
12.846
12.8463
12.8465
12.8467
12.8468
12.8469
12.847
12.8471
12.8472
12.8472
12.8473
12.8473
12.8473
12.8474
12.8474
12.8474
12.8474
12.8474
12.8474
12.8474
12.8474
12.8474
12.8474
12.8473
12.8473
12.8473
12.8472
12.8472
12.8471
12.847
12.8469
12.8468
12.8467
12.8465
12.8463
12.846
12.8458
12.8454
12.845
12.8445
12.8439
12.8433
12.8425
12.8416
12.8406
12.8395
12.8384
12.8374
13.4795
13.4805
13.4817
13.4828
13.4839
13.4848
13.4856
13.4863
13.4869
13.4874
13.4878
13.4881
13.4884
13.4887
13.4889
13.4891
13.4892
13.4894
13.4895
13.4895
13.4896
13.4897
13.4897
13.4898
13.4898
13.4898
13.4898
13.4898
13.4899
13.4899
13.4899
13.4899
13.4898
13.4898
13.4898
13.4898
13.4898
13.4897
13.4897
13.4896
13.4895
13.4895
13.4894
13.4892
13.4891
13.4889
13.4887
13.4884
13.4881
13.4878
13.4874
13.4869
13.4863
13.4856
13.4848
13.4839
13.4828
13.4817
13.4805
13.4795
14.122
14.123
14.1243
14.1254
14.1265
14.1274
14.1283
14.129
14.1296
14.1301
14.1305
14.1309
14.1312
14.1315
14.1317
14.1319
14.132
14.1322
14.1323
14.1323
14.1324
14.1325
14.1325
14.1326
14.1326
14.1326
14.1326
14.1327
14.1327
14.1327
14.1327
14.1327
14.1327
14.1326
14.1326
14.1326
14.1326
14.1325
14.1325
14.1324
14.1323
14.1323
14.1322
14.132
14.1319
14.1317
14.1315
14.1312
14.1309
14.1305
14.1301
14.1296
14.129
14.1283
14.1274
14.1265
14.1254
14.1243
14.123
14.122
14.7632
14.7643
14.7655
14.7667
14.7678
14.7688
14.7696
14.7703
14.771
14.7715
14.7719
14.7723
14.7726
14.7729
14.7731
14.7733
14.7735
14.7736
14.7737
14.7738
14.7739
14.7739
14.774
14.774
14.7741
14.7741
14.7741
14.7741
14.7741
14.7741
14.7741
14.7741
14.7741
14.7741
14.7741
14.7741
14.774
14.774
14.7739
14.7739
14.7738
14.7737
14.7736
14.7735
14.7733
14.7731
14.7729
14.7726
14.7723
14.7719
14.7715
14.771
14.7703
14.7696
14.7688
14.7678
14.7667
14.7655
14.7643
14.7632
15.4011
15.4022
15.4035
15.4047
15.4058
15.4068
15.4077
15.4084
15.4091
15.4096
15.41
15.4104
15.4108
15.411
15.4113
15.4114
15.4116
15.4117
15.4118
15.4119
15.412
15.4121
15.4121
15.4122
15.4122
15.4122
15.4122
15.4123
15.4123
15.4123
15.4123
15.4123
15.4123
15.4122
15.4122
15.4122
15.4122
15.4121
15.4121
15.412
15.4119
15.4118
15.4117
15.4116
15.4114
15.4113
15.411
15.4108
15.4104
15.41
15.4096
15.4091
15.4084
15.4077
15.4068
15.4058
15.4047
15.4035
15.4022
15.4011
16.0335
16.0346
16.0359
16.0372
16.0383
16.0393
16.0402
16.0409
16.0416
16.0421
16.0426
16.043
16.0433
16.0436
16.0438
16.044
16.0441
16.0443
16.0444
16.0445
16.0446
16.0446
16.0447
16.0447
16.0448
16.0448
16.0448
16.0448
16.0448
16.0448
16.0448
16.0448
16.0448
16.0448
16.0448
16.0448
16.0447
16.0447
16.0446
16.0446
16.0445
16.0444
16.0443
16.0441
16.044
16.0438
16.0436
16.0433
16.043
16.0426
16.0421
16.0416
16.0409
16.0402
16.0393
16.0383
16.0372
16.0359
16.0346
16.0335
16.6578
16.6589
16.6602
16.6614
16.6626
16.6636
16.6644
16.6652
16.6658
16.6664
16.6668
16.6672
16.6676
16.6678
16.6681
16.6683
16.6684
16.6686
16.6687
16.6688
16.6689
16.6689
16.669
16.669
16.669
16.6691
16.6691
16.6691
16.6691
16.6691
16.6691
16.6691
16.6691
16.6691
16.6691
16.669
16.669
16.669
16.6689
16.6689
16.6688
16.6687
16.6686
16.6684
16.6683
16.6681
16.6678
16.6676
16.6672
16.6668
16.6664
16.6658
16.6652
16.6644
16.6636
16.6626
16.6614
16.6602
16.6589
16.6578
17.2707
17.2718
17.2731
17.2744
17.2755
17.2765
17.2774
17.2781
17.2788
17.2793
17.2798
17.2802
17.2805
17.2808
17.281
17.2812
17.2814
17.2815
17.2816
17.2817
17.2818
17.2819
17.2819
17.282
17.282
17.282
17.282
17.2821
17.2821
17.2821
17.2821
17.2821
17.2821
17.282
17.282
17.282
17.282
17.2819
17.2819
17.2818
17.2817
17.2816
17.2815
17.2814
17.2812
17.281
17.2808
17.2805
17.2802
17.2798
17.2793
17.2788
17.2781
17.2774
17.2765
17.2755
17.2744
17.2731
17.2718
17.2707
17.8687
17.8698
17.8711
17.8724
17.8735
17.8745
17.8754
17.8761
17.8767
17.8773
17.8777
17.8781
17.8785
17.8787
17.879
17.8792
17.8793
17.8795
17.8796
17.8797
17.8797
17.8798
17.8799
17.8799
17.8799
17.88
17.88
17.88
17.88
17.88
17.88
17.88
17.88
17.88
17.88
17.8799
17.8799
17.8799
17.8798
17.8797
17.8797
17.8796
17.8795
17.8793
17.8792
17.879
17.8787
17.8785
17.8781
17.8777
17.8773
17.8767
17.8761
17.8754
17.8745
17.8735
17.8724
17.8711
17.8698
17.8687
18.4476
18.4487
18.4499
18.4511
18.4522
18.4532
18.4541
18.4548
18.4554
18.4559
18.4564
18.4568
18.4571
18.4574
18.4576
18.4578
18.458
18.4581
18.4582
18.4583
18.4584
18.4584
18.4585
18.4585
18.4586
18.4586
18.4586
18.4586
18.4586
18.4586
18.4586
18.4586
18.4586
18.4586
18.4586
18.4586
18.4585
18.4585
18.4584
18.4584
18.4583
18.4582
18.4581
18.458
18.4578
18.4576
18.4574
18.4571
18.4568
18.4564
18.4559
18.4554
18.4548
18.4541
18.4532
18.4522
18.4511
18.4499
18.4487
18.4476
19.0021
19.0032
19.0044
19.0056
19.0066
19.0076
19.0084
19.0091
19.0097
19.0102
19.0106
19.011
19.0113
19.0116
19.0118
19.012
19.0121
19.0123
19.0124
19.0125
19.0125
19.0126
19.0126
19.0127
19.0127
19.0127
19.0128
19.0128
19.0128
19.0128
19.0128
19.0128
19.0128
19.0128
19.0127
19.0127
19.0127
19.0126
19.0126
19.0125
19.0125
19.0124
19.0123
19.0121
19.012
19.0118
19.0116
19.0113
19.011
19.0106
19.0102
19.0097
19.0091
19.0084
19.0076
19.0066
19.0056
19.0044
19.0032
19.0021
19.5262
19.5272
19.5284
19.5295
19.5305
19.5314
19.5322
19.5328
19.5334
19.5339
19.5343
19.5347
19.535
19.5352
19.5354
19.5356
19.5357
19.5359
19.536
19.5361
19.5361
19.5362
19.5362
19.5363
19.5363
19.5363
19.5364
19.5364
19.5364
19.5364
19.5364
19.5364
19.5364
19.5364
19.5363
19.5363
19.5363
19.5362
19.5362
19.5361
19.5361
19.536
19.5359
19.5357
19.5356
19.5354
19.5352
19.535
19.5347
19.5343
19.5339
19.5334
19.5328
19.5322
19.5314
19.5305
19.5295
19.5284
19.5272
19.5262
20.0128
20.0138
20.0148
20.0159
20.0168
20.0176
20.0183
20.0189
20.0195
20.0199
20.0203
20.0206
20.0209
20.0212
20.0213
20.0215
20.0217
20.0218
20.0219
20.0219
20.022
20.0221
20.0221
20.0222
20.0222
20.0222
20.0222
20.0222
20.0222
20.0223
20.0223
20.0222
20.0222
20.0222
20.0222
20.0222
20.0222
20.0221
20.0221
20.022
20.0219
20.0219
20.0218
20.0217
20.0215
20.0213
20.0212
20.0209
20.0206
20.0203
20.0199
20.0195
20.0189
20.0183
20.0176
20.0168
20.0159
20.0148
20.0138
20.0128
20.4541
20.4549
20.4559
20.4568
20.4576
20.4584
20.459
20.4596
20.46
20.4605
20.4608
20.4611
20.4613
20.4616
20.4617
20.4619
20.462
20.4621
20.4622
20.4623
20.4623
20.4624
20.4624
20.4625
20.4625
20.4625
20.4625
20.4625
20.4626
20.4626
20.4626
20.4626
20.4625
20.4625
20.4625
20.4625
20.4625
20.4624
20.4624
20.4623
20.4623
20.4622
20.4621
20.462
20.4619
20.4617
20.4616
20.4613
20.4611
20.4608
20.4605
20.46
20.4596
20.459
20.4584
20.4576
20.4568
20.4559
20.4549
20.4541
20.8425
20.8432
20.844
20.8448
20.8455
20.8462
20.8467
20.8472
20.8476
20.8479
20.8482
20.8485
20.8487
20.8489
20.8491
20.8492
20.8493
20.8494
20.8495
20.8495
20.8496
20.8496
20.8497
20.8497
20.8497
20.8498
20.8498
20.8498
20.8498
20.8498
20.8498
20.8498
20.8498
20.8498
20.8498
20.8497
20.8497
20.8497
20.8496
20.8496
20.8495
20.8495
20.8494
20.8493
20.8492
20.8491
20.8489
20.8487
20.8485
20.8482
20.8479
20.8476
20.8472
20.8467
20.8462
20.8455
20.8448
20.844
20.8432
20.8425
21.1727
21.1733
21.1739
21.1746
21.1752
21.1757
21.1761
21.1765
21.1769
21.1772
21.1774
21.1776
21.1778
21.178
21.1781
21.1782
21.1783
21.1784
21.1784
21.1785
21.1785
21.1786
21.1786
21.1786
21.1787
21.1787
21.1787
21.1787
21.1787
21.1787
21.1787
21.1787
21.1787
21.1787
21.1787
21.1787
21.1786
21.1786
21.1786
21.1785
21.1785
21.1784
21.1784
21.1783
21.1782
21.1781
21.178
21.1778
21.1776
21.1774
21.1772
21.1769
21.1765
21.1761
21.1757
21.1752
21.1746
21.1739
21.1733
21.1727
21.4439
21.4443
21.4448
21.4453
21.4458
21.4462
21.4465
21.4468
21.4471
21.4473
21.4475
21.4477
21.4478
21.448
21.4481
21.4482
21.4482
21.4483
21.4484
21.4484
21.4485
21.4485
21.4485
21.4485
21.4486
21.4486
21.4486
21.4486
21.4486
21.4486
21.4486
21.4486
21.4486
21.4486
21.4486
21.4486
21.4485
21.4485
21.4485
21.4485
21.4484
21.4484
21.4483
21.4482
21.4482
21.4481
21.448
21.4478
21.4477
21.4475
21.4473
21.4471
21.4468
21.4465
21.4462
21.4458
21.4453
21.4448
21.4443
21.4439
21.6607
21.661
21.6614
21.6617
21.6621
21.6624
21.6626
21.6629
21.6631
21.6632
21.6634
21.6635
21.6636
21.6637
21.6638
21.6639
21.664
21.664
21.6641
21.6641
21.6641
21.6642
21.6642
21.6642
21.6642
21.6642
21.6642
21.6643
21.6643
21.6643
21.6643
21.6643
21.6643
21.6642
21.6642
21.6642
21.6642
21.6642
21.6642
21.6641
21.6641
21.6641
21.664
21.664
21.6639
21.6638
21.6637
21.6636
21.6635
21.6634
21.6632
21.6631
21.6629
21.6626
21.6624
21.6621
21.6617
21.6614
21.661
21.6607
21.8322
21.8324
21.8326
21.8329
21.8331
21.8334
21.8336
21.8337
21.8339
21.834
21.8341
21.8342
21.8343
21.8344
21.8345
21.8345
21.8346
21.8346
21.8346
21.8347
21.8347
21.8347
21.8348
21.8348
21.8348
21.8348
21.8348
21.8348
21.8348
21.8348
21.8348
21.8348
21.8348
21.8348
21.8348
21.8348
21.8348
21.8348
21.8347
21.8347
21.8347
21.8346
21.8346
21.8346
21.8345
21.8345
21.8344
21.8343
21.8342
21.8341
21.834
21.8339
21.8337
21.8336
21.8334
21.8331
21.8329
21.8326
21.8324
21.8322
21.969
21.9691
21.9693
21.9695
21.9696
21.9698
21.9699
21.9701
21.9702
21.9703
21.9704
21.9705
21.9705
21.9706
21.9706
21.9707
21.9707
21.9708
21.9708
21.9708
21.9708
21.9709
21.9709
21.9709
21.9709
21.9709
21.9709
21.9709
21.9709
21.9709
21.9709
21.9709
21.9709
21.9709
21.9709
21.9709
21.9709
21.9709
21.9709
21.9708
21.9708
21.9708
21.9708
21.9707
21.9707
21.9706
21.9706
21.9705
21.9705
21.9704
21.9703
21.9702
21.9701
21.9699
21.9698
21.9696
21.9695
21.9693
21.9691
21.969
22.0808
22.0808
22.081
22.0811
22.0812
22.0814
22.0815
22.0816
22.0816
22.0817
22.0818
22.0819
22.0819
22.082
22.082
22.082
22.0821
22.0821
22.0821
22.0822
22.0822
22.0822
22.0822
22.0822
22.0822
22.0823
22.0823
22.0823
22.0823
22.0823
22.0823
22.0823
22.0823
22.0823
22.0823
22.0822
22.0822
22.0822
22.0822
22.0822
22.0822
22.0821
22.0821
22.0821
22.082
22.082
22.082
22.0819
22.0819
22.0818
22.0817
22.0816
22.0816
22.0815
22.0814
22.0812
22.0811
22.081
22.0808
22.0808
22.175
22.175
22.1751
22.1752
22.1753
22.1754
22.1755
22.1756
22.1756
22.1757
22.1757
22.1758
22.1758
22.1759
22.1759
22.176
22.176
22.176
22.176
22.1761
22.1761
22.1761
22.1761
22.1761
22.1761
22.1761
22.1762
22.1762
22.1762
22.1762
22.1762
22.1762
22.1762
22.1762
22.1761
22.1761
22.1761
22.1761
22.1761
22.1761
22.1761
22.176
22.176
22.176
22.176
22.1759
22.1759
22.1758
22.1758
22.1757
22.1757
22.1756
22.1756
22.1755
22.1754
22.1753
22.1752
22.1751
22.175
22.175
22.2568
22.2568
22.2568
22.2569
22.257
22.257
22.2571
22.2572
22.2572
22.2573
22.2573
22.2574
22.2574
22.2574
22.2575
22.2575
22.2575
22.2576
22.2576
22.2576
22.2576
22.2576
22.2577
22.2577
22.2577
22.2577
22.2577
22.2577
22.2577
22.2577
22.2577
22.2577
22.2577
22.2577
22.2577
22.2577
22.2577
22.2577
22.2576
22.2576
22.2576
22.2576
22.2576
22.2575
22.2575
22.2575
22.2574
22.2574
22.2574
22.2573
22.2573
22.2572
22.2572
22.2571
22.257
22.257
22.2569
22.2568
22.2568
22.2568
22.3294
22.3294
22.3295
22.3295
22.3296
22.3296
22.3297
22.3297
22.3298
22.3298
22.3299
22.3299
22.3299
22.33
22.33
22.33
22.3301
22.3301
22.3301
22.3301
22.3301
22.3302
22.3302
22.3302
22.3302
22.3302
22.3302
22.3302
22.3302
22.3302
22.3302
22.3302
22.3302
22.3302
22.3302
22.3302
22.3302
22.3302
22.3302
22.3301
22.3301
22.3301
22.3301
22.3301
22.33
22.33
22.33
22.3299
22.3299
22.3299
22.3298
22.3298
22.3297
22.3297
22.3296
22.3296
22.3295
22.3295
22.3294
22.3294
22.3953
22.3953
22.3953
22.3953
22.3954
22.3954
22.3954
22.3955
22.3955
22.3955
22.3956
22.3956
22.3956
22.3957
22.3957
22.3957
22.3958
22.3958
22.3958
22.3958
22.3958
22.3958
22.3959
22.3959
22.3959
22.3959
22.3959
22.3959
22.3959
22.3959
22.3959
22.3959
22.3959
22.3959
22.3959
22.3959
22.3959
22.3959
22.3958
22.3958
22.3958
22.3958
22.3958
22.3958
22.3957
22.3957
22.3957
22.3956
22.3956
22.3956
22.3955
22.3955
22.3955
22.3954
22.3954
22.3954
22.3953
22.3953
22.3953
22.3953
22.4557
22.4557
22.4557
22.4557
22.4557
22.4558
22.4558
22.4558
22.4559
22.4559
22.4559
22.456
22.456
22.456
22.456
22.4561
22.4561
22.4561
22.4561
22.4562
22.4562
22.4562
22.4562
22.4562
22.4562
22.4562
22.4562
22.4562
22.4563
22.4563
22.4563
22.4563
22.4562
22.4562
22.4562
22.4562
22.4562
22.4562
22.4562
22.4562
22.4562
22.4561
22.4561
22.4561
22.4561
22.456
22.456
22.456
22.456
22.4559
22.4559
22.4559
22.4558
22.4558
22.4558
22.4557
22.4557
22.4557
22.4557
22.4557
22.5118
22.5118
22.5118
22.5118
22.5118
22.5118
22.5119
22.5119
22.5119
22.512
22.512
22.512
22.512
22.5121
22.5121
22.5121
22.5121
22.5122
22.5122
22.5122
22.5122
22.5122
22.5122
22.5123
22.5123
22.5123
22.5123
22.5123
22.5123
22.5123
22.5123
22.5123
22.5123
22.5123
22.5123
22.5123
22.5123
22.5122
22.5122
22.5122
22.5122
22.5122
22.5122
22.5121
22.5121
22.5121
22.5121
22.512
22.512
22.512
22.512
22.5119
22.5119
22.5119
22.5118
22.5118
22.5118
22.5118
22.5118
22.5118
22.5643
22.5643
22.5643
22.5643
22.5644
22.5644
22.5644
22.5644
22.5644
22.5645
22.5645
22.5645
22.5645
22.5646
22.5646
22.5646
22.5646
22.5647
22.5647
22.5647
22.5647
22.5647
22.5647
22.5648
22.5648
22.5648
22.5648
22.5648
22.5648
22.5648
22.5648
22.5648
22.5648
22.5648
22.5648
22.5648
22.5648
22.5647
22.5647
22.5647
22.5647
22.5647
22.5647
22.5646
22.5646
22.5646
22.5646
22.5645
22.5645
22.5645
22.5645
22.5644
22.5644
22.5644
22.5644
22.5644
22.5643
22.5643
22.5643
22.5643
22.6139
22.6139
22.6139
22.6139
22.6139
22.6139
22.6139
22.614
22.614
22.614
22.614
22.6141
22.6141
22.6141
22.6141
22.6141
22.6142
22.6142
22.6142
22.6142
22.6142
22.6143
22.6143
22.6143
22.6143
22.6143
22.6143
22.6143
22.6143
22.6143
22.6143
22.6143
22.6143
22.6143
22.6143
22.6143
22.6143
22.6143
22.6143
22.6142
22.6142
22.6142
22.6142
22.6142
22.6141
22.6141
22.6141
22.6141
22.6141
22.614
22.614
22.614
22.614
22.6139
22.6139
22.6139
22.6139
22.6139
22.6139
22.6139
22.661
22.661
22.661
22.661
22.661
22.661
22.661
22.661
22.661
22.661
22.6611
22.6611
22.6611
22.6611
22.6612
22.6612
22.6612
22.6612
22.6612
22.6613
22.6613
22.6613
22.6613
22.6613
22.6613
22.6613
22.6613
22.6614
22.6614
22.6614
22.6614
22.6614
22.6614
22.6613
22.6613
22.6613
22.6613
22.6613
22.6613
22.6613
22.6613
22.6612
22.6612
22.6612
22.6612
22.6612
22.6611
22.6611
22.6611
22.6611
22.661
22.661
22.661
22.661
22.661
22.661
22.661
22.661
22.661
22.661
22.7059
22.7059
22.7059
22.7059
22.7059
22.7059
22.7059
22.7059
22.7059
22.7059
22.706
22.706
22.706
22.706
22.706
22.7061
22.7061
22.7061
22.7061
22.7062
22.7062
22.7062
22.7062
22.7062
22.7062
22.7062
22.7062
22.7062
22.7062
22.7062
22.7062
22.7062
22.7062
22.7062
22.7062
22.7062
22.7062
22.7062
22.7062
22.7062
22.7062
22.7061
22.7061
22.7061
22.7061
22.706
22.706
22.706
22.706
22.706
22.7059
22.7059
22.7059
22.7059
22.7059
22.7059
22.7059
22.7059
22.7059
22.7059
22.749
22.749
22.7489
22.7489
22.7489
22.7489
22.7489
22.7489
22.749
22.749
22.749
22.749
22.749
22.7491
22.7491
22.7491
22.7491
22.7492
22.7492
22.7492
22.7492
22.7492
22.7492
22.7493
22.7493
22.7493
22.7493
22.7493
22.7493
22.7493
22.7493
22.7493
22.7493
22.7493
22.7493
22.7493
22.7493
22.7492
22.7492
22.7492
22.7492
22.7492
22.7492
22.7491
22.7491
22.7491
22.7491
22.749
22.749
22.749
22.749
22.749
22.7489
22.7489
22.7489
22.7489
22.7489
22.7489
22.749
22.749
22.7904
22.7904
22.7904
22.7904
22.7904
22.7904
22.7904
22.7904
22.7904
22.7904
22.7904
22.7905
22.7905
22.7905
22.7905
22.7905
22.7906
22.7906
22.7906
22.7906
22.7906
22.7907
22.7907
22.7907
22.7907
22.7907
22.7907
22.7907
22.7907
22.7907
22.7907
22.7907
22.7907
22.7907
22.7907
22.7907
22.7907
22.7907
22.7907
22.7906
22.7906
22.7906
22.7906
22.7906
22.7905
22.7905
22.7905
22.7905
22.7905
22.7904
22.7904
22.7904
22.7904
22.7904
22.7904
22.7904
22.7904
22.7904
22.7904
22.7904
22.8305
22.8305
22.8304
22.8304
22.8304
22.8304
22.8304
22.8304
22.8304
22.8305
22.8305
22.8305
22.8305
22.8305
22.8306
22.8306
22.8306
22.8306
22.8306
22.8307
22.8307
22.8307
22.8307
22.8307
22.8307
22.8307
22.8308
22.8308
22.8308
22.8308
22.8308
22.8308
22.8308
22.8308
22.8307
22.8307
22.8307
22.8307
22.8307
22.8307
22.8307
22.8306
22.8306
22.8306
22.8306
22.8306
22.8305
22.8305
22.8305
22.8305
22.8305
22.8304
22.8304
22.8304
22.8304
22.8304
22.8304
22.8304
22.8305
22.8305
22.8693
22.8693
22.8692
22.8692
22.8692
22.8692
22.8692
22.8692
22.8692
22.8693
22.8693
22.8693
22.8693
22.8693
22.8694
22.8694
22.8694
22.8694
22.8695
22.8695
22.8695
22.8695
22.8695
22.8695
22.8695
22.8696
22.8696
22.8696
22.8696
22.8696
22.8696
22.8696
22.8696
22.8696
22.8696
22.8695
22.8695
22.8695
22.8695
22.8695
22.8695
22.8695
22.8694
22.8694
22.8694
22.8694
22.8693
22.8693
22.8693
22.8693
22.8693
22.8692
22.8692
22.8692
22.8692
22.8692
22.8692
22.8692
22.8693
22.8693
22.907
22.907
22.907
22.907
22.907
22.907
22.907
22.907
22.907
22.907
22.907
22.907
22.907
22.9071
22.9071
22.9071
22.9071
22.9072
22.9072
22.9072
22.9072
22.9072
22.9073
22.9073
22.9073
22.9073
22.9073
22.9073
22.9073
22.9073
22.9073
22.9073
22.9073
22.9073
22.9073
22.9073
22.9073
22.9073
22.9072
22.9072
22.9072
22.9072
22.9072
22.9071
22.9071
22.9071
22.9071
22.907
22.907
22.907
22.907
22.907
22.907
22.907
22.907
22.907
22.907
22.907
22.907
22.907
22.9438
22.9438
22.9437
22.9437
22.9437
22.9437
22.9437
22.9437
22.9437
22.9438
22.9438
22.9438
22.9438
22.9438
22.9439
22.9439
22.9439
22.9439
22.944
22.944
22.944
22.944
22.944
22.944
22.9441
22.9441
22.9441
22.9441
22.9441
22.9441
22.9441
22.9441
22.9441
22.9441
22.9441
22.9441
22.944
22.944
22.944
22.944
22.944
22.944
22.9439
22.9439
22.9439
22.9439
22.9438
22.9438
22.9438
22.9438
22.9438
22.9437
22.9437
22.9437
22.9437
22.9437
22.9437
22.9437
22.9438
22.9438
22.9797
22.9797
22.9797
22.9797
22.9797
22.9796
22.9796
22.9797
22.9797
22.9797
22.9797
22.9797
22.9797
22.9798
22.9798
22.9798
22.9798
22.9799
22.9799
22.9799
22.9799
22.9799
22.98
22.98
22.98
22.98
22.98
22.98
22.98
22.98
22.98
22.98
22.98
22.98
22.98
22.98
22.98
22.98
22.9799
22.9799
22.9799
22.9799
22.9799
22.9798
22.9798
22.9798
22.9798
22.9797
22.9797
22.9797
22.9797
22.9797
22.9797
22.9796
22.9796
22.9797
22.9797
22.9797
22.9797
22.9797
23.0149
23.0149
23.0149
23.0148
23.0148
23.0148
23.0148
23.0148
23.0148
23.0149
23.0149
23.0149
23.0149
23.0149
23.015
23.015
23.015
23.015
23.0151
23.0151
23.0151
23.0151
23.0151
23.0152
23.0152
23.0152
23.0152
23.0152
23.0152
23.0152
23.0152
23.0152
23.0152
23.0152
23.0152
23.0152
23.0152
23.0151
23.0151
23.0151
23.0151
23.0151
23.015
23.015
23.015
23.015
23.0149
23.0149
23.0149
23.0149
23.0149
23.0148
23.0148
23.0148
23.0148
23.0148
23.0148
23.0149
23.0149
23.0149
23.0494
23.0494
23.0494
23.0493
23.0493
23.0493
23.0493
23.0493
23.0494
23.0494
23.0494
23.0494
23.0494
23.0495
23.0495
23.0495
23.0495
23.0496
23.0496
23.0496
23.0496
23.0496
23.0497
23.0497