/*--------------------------------*- C++ -*----------------------------------*\
| =========                 |                                                 |
| \\      /  F ield         | foam-extend: Open Source CFD                    |
|  \\    /   O peration     | Version:     4.0                                |
|   \\  /    A nd           | Web:         http://www.foam-extend.org         |
|    \\/     M anipulation  |                                                 |
\*---------------------------------------------------------------------------*/
FoamFile
{
    version     2.0;
    format      ascii;
    class       volScalarField;
    location    "1710";
    object      cMinus;
}
// * * * * * * * * * * * * * * * * * * * * * * * * * * * * * * * * * * * * * //

dimensions      [0 0 0 0 0 0 0];

internalField   nonuniform List<scalar> 
6960
(
8.0579e-24
8.05924e-24
8.05966e-24
8.05988e-24
8.06004e-24
8.06018e-24
8.06033e-24
8.06048e-24
8.06064e-24
8.0608e-24
8.06096e-24
8.06112e-24
8.06128e-24
8.06144e-24
8.06159e-24
8.06174e-24
8.06188e-24
8.06202e-24
8.06214e-24
8.06226e-24
8.06237e-24
8.06247e-24
8.06256e-24
8.06263e-24
8.0627e-24
8.06276e-24
8.0628e-24
8.06284e-24
8.06286e-24
8.06287e-24
8.06287e-24
8.06286e-24
8.06284e-24
8.0628e-24
8.06276e-24
8.0627e-24
8.06263e-24
8.06256e-24
8.06247e-24
8.06237e-24
8.06226e-24
8.06214e-24
8.06202e-24
8.06188e-24
8.06174e-24
8.06159e-24
8.06144e-24
8.06128e-24
8.06112e-24
8.06096e-24
8.0608e-24
8.06064e-24
8.06048e-24
8.06033e-24
8.06018e-24
8.06004e-24
8.05988e-24
8.05966e-24
8.05924e-24
8.0579e-24
2.22123e-23
2.22161e-23
2.22175e-23
2.22183e-23
2.22189e-23
2.22195e-23
2.22201e-23
2.22207e-23
2.22213e-23
2.2222e-23
2.22226e-23
2.22231e-23
2.22237e-23
2.22243e-23
2.22248e-23
2.22253e-23
2.22258e-23
2.22263e-23
2.22267e-23
2.22271e-23
2.22275e-23
2.22278e-23
2.22281e-23
2.22284e-23
2.22286e-23
2.22288e-23
2.2229e-23
2.22291e-23
2.22292e-23
2.22292e-23
2.22292e-23
2.22292e-23
2.22291e-23
2.2229e-23
2.22288e-23
2.22286e-23
2.22284e-23
2.22281e-23
2.22278e-23
2.22275e-23
2.22271e-23
2.22267e-23
2.22263e-23
2.22258e-23
2.22253e-23
2.22248e-23
2.22243e-23
2.22237e-23
2.22231e-23
2.22226e-23
2.2222e-23
2.22213e-23
2.22207e-23
2.22201e-23
2.22195e-23
2.22189e-23
2.22183e-23
2.22175e-23
2.22161e-23
2.22123e-23
5.30699e-23
5.30795e-23
5.30834e-23
5.30858e-23
5.3088e-23
5.309e-23
5.3092e-23
5.3094e-23
5.3096e-23
5.30979e-23
5.30998e-23
5.31016e-23
5.31034e-23
5.31051e-23
5.31068e-23
5.31083e-23
5.31098e-23
5.31112e-23
5.31125e-23
5.31136e-23
5.31147e-23
5.31157e-23
5.31166e-23
5.31173e-23
5.3118e-23
5.31185e-23
5.3119e-23
5.31193e-23
5.31195e-23
5.31196e-23
5.31196e-23
5.31195e-23
5.31193e-23
5.3119e-23
5.31185e-23
5.3118e-23
5.31173e-23
5.31166e-23
5.31157e-23
5.31147e-23
5.31136e-23
5.31125e-23
5.31112e-23
5.31098e-23
5.31083e-23
5.31068e-23
5.31051e-23
5.31034e-23
5.31016e-23
5.30998e-23
5.30979e-23
5.3096e-23
5.3094e-23
5.3092e-23
5.309e-23
5.3088e-23
5.30858e-23
5.30834e-23
5.30795e-23
5.30699e-23
1.208e-22
1.20823e-22
1.20833e-22
1.20841e-22
1.20847e-22
1.20853e-22
1.20859e-22
1.20865e-22
1.20871e-22
1.20877e-22
1.20882e-22
1.20888e-22
1.20893e-22
1.20898e-22
1.20902e-22
1.20907e-22
1.20911e-22
1.20915e-22
1.20918e-22
1.20922e-22
1.20925e-22
1.20927e-22
1.2093e-22
1.20932e-22
1.20934e-22
1.20935e-22
1.20936e-22
1.20937e-22
1.20938e-22
1.20938e-22
1.20938e-22
1.20938e-22
1.20937e-22
1.20936e-22
1.20935e-22
1.20934e-22
1.20932e-22
1.2093e-22
1.20927e-22
1.20925e-22
1.20922e-22
1.20918e-22
1.20915e-22
1.20911e-22
1.20907e-22
1.20902e-22
1.20898e-22
1.20893e-22
1.20888e-22
1.20882e-22
1.20877e-22
1.20871e-22
1.20865e-22
1.20859e-22
1.20853e-22
1.20847e-22
1.20841e-22
1.20833e-22
1.20823e-22
1.208e-22
2.71996e-22
2.72051e-22
2.72077e-22
2.72098e-22
2.72117e-22
2.72135e-22
2.72152e-22
2.72169e-22
2.72186e-22
2.72202e-22
2.72217e-22
2.72232e-22
2.72246e-22
2.7226e-22
2.72273e-22
2.72285e-22
2.72296e-22
2.72306e-22
2.72316e-22
2.72325e-22
2.72333e-22
2.7234e-22
2.72347e-22
2.72352e-22
2.72357e-22
2.72361e-22
2.72364e-22
2.72367e-22
2.72368e-22
2.72369e-22
2.72369e-22
2.72368e-22
2.72367e-22
2.72364e-22
2.72361e-22
2.72357e-22
2.72352e-22
2.72347e-22
2.7234e-22
2.72333e-22
2.72325e-22
2.72316e-22
2.72306e-22
2.72296e-22
2.72285e-22
2.72273e-22
2.7226e-22
2.72246e-22
2.72232e-22
2.72217e-22
2.72202e-22
2.72186e-22
2.72169e-22
2.72152e-22
2.72135e-22
2.72117e-22
2.72098e-22
2.72077e-22
2.72051e-22
2.71996e-22
6.16151e-22
6.16282e-22
6.16352e-22
6.16408e-22
6.16461e-22
6.16512e-22
6.1656e-22
6.16608e-22
6.16654e-22
6.16698e-22
6.1674e-22
6.16781e-22
6.1682e-22
6.16856e-22
6.16891e-22
6.16923e-22
6.16953e-22
6.16981e-22
6.17007e-22
6.17031e-22
6.17052e-22
6.17071e-22
6.17088e-22
6.17103e-22
6.17116e-22
6.17127e-22
6.17135e-22
6.17141e-22
6.17146e-22
6.17148e-22
6.17148e-22
6.17146e-22
6.17141e-22
6.17135e-22
6.17127e-22
6.17116e-22
6.17103e-22
6.17088e-22
6.17071e-22
6.17052e-22
6.17031e-22
6.17007e-22
6.16981e-22
6.16953e-22
6.16923e-22
6.16891e-22
6.16856e-22
6.1682e-22
6.16781e-22
6.1674e-22
6.16698e-22
6.16654e-22
6.16608e-22
6.1656e-22
6.16512e-22
6.16461e-22
6.16408e-22
6.16352e-22
6.16282e-22
6.16151e-22
1.41559e-21
1.41591e-21
1.41609e-21
1.41625e-21
1.41639e-21
1.41653e-21
1.41667e-21
1.4168e-21
1.41692e-21
1.41704e-21
1.41716e-21
1.41727e-21
1.41737e-21
1.41747e-21
1.41756e-21
1.41765e-21
1.41773e-21
1.4178e-21
1.41787e-21
1.41794e-21
1.41799e-21
1.41804e-21
1.41809e-21
1.41813e-21
1.41816e-21
1.41819e-21
1.41821e-21
1.41823e-21
1.41824e-21
1.41825e-21
1.41825e-21
1.41824e-21
1.41823e-21
1.41821e-21
1.41819e-21
1.41816e-21
1.41813e-21
1.41809e-21
1.41804e-21
1.41799e-21
1.41794e-21
1.41787e-21
1.4178e-21
1.41773e-21
1.41765e-21
1.41756e-21
1.41747e-21
1.41737e-21
1.41727e-21
1.41716e-21
1.41704e-21
1.41692e-21
1.4168e-21
1.41667e-21
1.41653e-21
1.41639e-21
1.41625e-21
1.41609e-21
1.41591e-21
1.41559e-21
3.31157e-21
3.31234e-21
3.31282e-21
3.31324e-21
3.31364e-21
3.31402e-21
3.31439e-21
3.31475e-21
3.31509e-21
3.31542e-21
3.31574e-21
3.31603e-21
3.31632e-21
3.31658e-21
3.31683e-21
3.31706e-21
3.31728e-21
3.31748e-21
3.31767e-21
3.31783e-21
3.31799e-21
3.31812e-21
3.31824e-21
3.31835e-21
3.31844e-21
3.31851e-21
3.31857e-21
3.31862e-21
3.31865e-21
3.31866e-21
3.31866e-21
3.31865e-21
3.31862e-21
3.31857e-21
3.31851e-21
3.31844e-21
3.31835e-21
3.31824e-21
3.31812e-21
3.31799e-21
3.31783e-21
3.31767e-21
3.31748e-21
3.31728e-21
3.31706e-21
3.31683e-21
3.31658e-21
3.31632e-21
3.31603e-21
3.31574e-21
3.31542e-21
3.31509e-21
3.31475e-21
3.31439e-21
3.31402e-21
3.31364e-21
3.31324e-21
3.31282e-21
3.31234e-21
3.31157e-21
7.90405e-21
7.906e-21
7.90728e-21
7.90842e-21
7.90951e-21
7.91057e-21
7.91159e-21
7.91257e-21
7.91351e-21
7.9144e-21
7.91526e-21
7.91607e-21
7.91683e-21
7.91756e-21
7.91823e-21
7.91886e-21
7.91945e-21
7.91999e-21
7.92049e-21
7.92094e-21
7.92135e-21
7.92172e-21
7.92204e-21
7.92233e-21
7.92257e-21
7.92277e-21
7.92293e-21
7.92305e-21
7.92313e-21
7.92317e-21
7.92317e-21
7.92313e-21
7.92305e-21
7.92293e-21
7.92277e-21
7.92257e-21
7.92233e-21
7.92204e-21
7.92172e-21
7.92135e-21
7.92094e-21
7.92049e-21
7.91999e-21
7.91945e-21
7.91886e-21
7.91823e-21
7.91756e-21
7.91683e-21
7.91607e-21
7.91526e-21
7.9144e-21
7.91351e-21
7.91257e-21
7.91159e-21
7.91057e-21
7.90951e-21
7.90842e-21
7.90728e-21
7.906e-21
7.90405e-21
1.92692e-20
1.92742e-20
1.92777e-20
1.92808e-20
1.92838e-20
1.92868e-20
1.92896e-20
1.92923e-20
1.92949e-20
1.92974e-20
1.92997e-20
1.93019e-20
1.9304e-20
1.9306e-20
1.93079e-20
1.93096e-20
1.93112e-20
1.93127e-20
1.9314e-20
1.93153e-20
1.93164e-20
1.93174e-20
1.93183e-20
1.9319e-20
1.93197e-20
1.93202e-20
1.93207e-20
1.9321e-20
1.93212e-20
1.93213e-20
1.93213e-20
1.93212e-20
1.9321e-20
1.93207e-20
1.93202e-20
1.93197e-20
1.9319e-20
1.93183e-20
1.93174e-20
1.93164e-20
1.93153e-20
1.9314e-20
1.93127e-20
1.93112e-20
1.93096e-20
1.93079e-20
1.9306e-20
1.9304e-20
1.93019e-20
1.92997e-20
1.92974e-20
1.92949e-20
1.92923e-20
1.92896e-20
1.92868e-20
1.92838e-20
1.92808e-20
1.92777e-20
1.92742e-20
1.92692e-20
4.80138e-20
4.80268e-20
4.80363e-20
4.8045e-20
4.80534e-20
4.80616e-20
4.80695e-20
4.80771e-20
4.80843e-20
4.80912e-20
4.80977e-20
4.81039e-20
4.81097e-20
4.81152e-20
4.81203e-20
4.81251e-20
4.81295e-20
4.81336e-20
4.81374e-20
4.81408e-20
4.81439e-20
4.81466e-20
4.8149e-20
4.81512e-20
4.8153e-20
4.81545e-20
4.81557e-20
4.81566e-20
4.81571e-20
4.81574e-20
4.81574e-20
4.81571e-20
4.81566e-20
4.81557e-20
4.81545e-20
4.8153e-20
4.81512e-20
4.8149e-20
4.81466e-20
4.81439e-20
4.81408e-20
4.81374e-20
4.81336e-20
4.81295e-20
4.81251e-20
4.81203e-20
4.81152e-20
4.81097e-20
4.81039e-20
4.80977e-20
4.80912e-20
4.80843e-20
4.80771e-20
4.80695e-20
4.80616e-20
4.80534e-20
4.8045e-20
4.80363e-20
4.80268e-20
4.80138e-20
1.22334e-19
1.22369e-19
1.22395e-19
1.2242e-19
1.22444e-19
1.22467e-19
1.22489e-19
1.22511e-19
1.22531e-19
1.2255e-19
1.22569e-19
1.22586e-19
1.22603e-19
1.22618e-19
1.22632e-19
1.22646e-19
1.22658e-19
1.2267e-19
1.2268e-19
1.2269e-19
1.22698e-19
1.22706e-19
1.22713e-19
1.22719e-19
1.22724e-19
1.22728e-19
1.22731e-19
1.22734e-19
1.22736e-19
1.22736e-19
1.22736e-19
1.22736e-19
1.22734e-19
1.22731e-19
1.22728e-19
1.22724e-19
1.22719e-19
1.22713e-19
1.22706e-19
1.22698e-19
1.2269e-19
1.2268e-19
1.2267e-19
1.22658e-19
1.22646e-19
1.22632e-19
1.22618e-19
1.22603e-19
1.22586e-19
1.22569e-19
1.2255e-19
1.22531e-19
1.22511e-19
1.22489e-19
1.22467e-19
1.22444e-19
1.2242e-19
1.22395e-19
1.22369e-19
1.22334e-19
3.18826e-19
3.18921e-19
3.18995e-19
3.19066e-19
3.19134e-19
3.19201e-19
3.19265e-19
3.19326e-19
3.19385e-19
3.1944e-19
3.19493e-19
3.19543e-19
3.1959e-19
3.19634e-19
3.19675e-19
3.19713e-19
3.19749e-19
3.19781e-19
3.19811e-19
3.19838e-19
3.19863e-19
3.19885e-19
3.19904e-19
3.19921e-19
3.19935e-19
3.19947e-19
3.19957e-19
3.19964e-19
3.19968e-19
3.19971e-19
3.19971e-19
3.19968e-19
3.19964e-19
3.19957e-19
3.19947e-19
3.19935e-19
3.19921e-19
3.19904e-19
3.19885e-19
3.19863e-19
3.19838e-19
3.19811e-19
3.19781e-19
3.19749e-19
3.19713e-19
3.19675e-19
3.19634e-19
3.1959e-19
3.19543e-19
3.19493e-19
3.1944e-19
3.19385e-19
3.19326e-19
3.19265e-19
3.19201e-19
3.19134e-19
3.19066e-19
3.18995e-19
3.18921e-19
3.18826e-19
8.50153e-19
8.50418e-19
8.50631e-19
8.50836e-19
8.51036e-19
8.5123e-19
8.51417e-19
8.51596e-19
8.51767e-19
8.51929e-19
8.52082e-19
8.52227e-19
8.52364e-19
8.52491e-19
8.52611e-19
8.52722e-19
8.52824e-19
8.52919e-19
8.53005e-19
8.53084e-19
8.53155e-19
8.53219e-19
8.53275e-19
8.53323e-19
8.53365e-19
8.53399e-19
8.53427e-19
8.53447e-19
8.53461e-19
8.53468e-19
8.53468e-19
8.53461e-19
8.53447e-19
8.53427e-19
8.53399e-19
8.53365e-19
8.53323e-19
8.53275e-19
8.53219e-19
8.53155e-19
8.53084e-19
8.53005e-19
8.52919e-19
8.52824e-19
8.52722e-19
8.52611e-19
8.52491e-19
8.52364e-19
8.52227e-19
8.52082e-19
8.51929e-19
8.51767e-19
8.51596e-19
8.51417e-19
8.5123e-19
8.51036e-19
8.50836e-19
8.50631e-19
8.50418e-19
8.50153e-19
2.31988e-18
2.32063e-18
2.32126e-18
2.32186e-18
2.32246e-18
2.32303e-18
2.32359e-18
2.32412e-18
2.32462e-18
2.3251e-18
2.32556e-18
2.32599e-18
2.32639e-18
2.32677e-18
2.32712e-18
2.32745e-18
2.32775e-18
2.32803e-18
2.32829e-18
2.32852e-18
2.32873e-18
2.32892e-18
2.32908e-18
2.32922e-18
2.32935e-18
2.32945e-18
2.32953e-18
2.32959e-18
2.32963e-18
2.32965e-18
2.32965e-18
2.32963e-18
2.32959e-18
2.32953e-18
2.32945e-18
2.32935e-18
2.32922e-18
2.32908e-18
2.32892e-18
2.32873e-18
2.32852e-18
2.32829e-18
2.32803e-18
2.32775e-18
2.32745e-18
2.32712e-18
2.32677e-18
2.32639e-18
2.32599e-18
2.32556e-18
2.3251e-18
2.32462e-18
2.32412e-18
2.32359e-18
2.32303e-18
2.32246e-18
2.32186e-18
2.32126e-18
2.32063e-18
2.31988e-18
6.47917e-18
6.48137e-18
6.48323e-18
6.48506e-18
6.48685e-18
6.4886e-18
6.49027e-18
6.49187e-18
6.4934e-18
6.49485e-18
6.49622e-18
6.49751e-18
6.49873e-18
6.49987e-18
6.50093e-18
6.50191e-18
6.50283e-18
6.50367e-18
6.50443e-18
6.50513e-18
6.50576e-18
6.50632e-18
6.50682e-18
6.50725e-18
6.50762e-18
6.50792e-18
6.50817e-18
6.50835e-18
6.50847e-18
6.50853e-18
6.50853e-18
6.50847e-18
6.50835e-18
6.50817e-18
6.50792e-18
6.50762e-18
6.50725e-18
6.50682e-18
6.50632e-18
6.50576e-18
6.50513e-18
6.50443e-18
6.50367e-18
6.50283e-18
6.50191e-18
6.50093e-18
6.49987e-18
6.49873e-18
6.49751e-18
6.49622e-18
6.49485e-18
6.4934e-18
6.49187e-18
6.49027e-18
6.4886e-18
6.48685e-18
6.48506e-18
6.48323e-18
6.48137e-18
6.47917e-18
1.85223e-17
1.85288e-17
1.85345e-17
1.85401e-17
1.85457e-17
1.8551e-17
1.85562e-17
1.85611e-17
1.85658e-17
1.85703e-17
1.85745e-17
1.85784e-17
1.85822e-17
1.85857e-17
1.85889e-17
1.85919e-17
1.85947e-17
1.85973e-17
1.85997e-17
1.86018e-17
1.86037e-17
1.86055e-17
1.8607e-17
1.86083e-17
1.86094e-17
1.86104e-17
1.86111e-17
1.86117e-17
1.8612e-17
1.86122e-17
1.86122e-17
1.8612e-17
1.86117e-17
1.86111e-17
1.86104e-17
1.86094e-17
1.86083e-17
1.8607e-17
1.86055e-17
1.86037e-17
1.86018e-17
1.85997e-17
1.85973e-17
1.85947e-17
1.85919e-17
1.85889e-17
1.85857e-17
1.85822e-17
1.85784e-17
1.85745e-17
1.85703e-17
1.85658e-17
1.85611e-17
1.85562e-17
1.8551e-17
1.85457e-17
1.85401e-17
1.85345e-17
1.85288e-17
1.85223e-17
5.41993e-17
5.42192e-17
5.42369e-17
5.42545e-17
5.42718e-17
5.42886e-17
5.43048e-17
5.43203e-17
5.4335e-17
5.4349e-17
5.43622e-17
5.43746e-17
5.43863e-17
5.43972e-17
5.44074e-17
5.44169e-17
5.44256e-17
5.44337e-17
5.4441e-17
5.44477e-17
5.44538e-17
5.44591e-17
5.44639e-17
5.4468e-17
5.44715e-17
5.44744e-17
5.44768e-17
5.44785e-17
5.44797e-17
5.44802e-17
5.44802e-17
5.44797e-17
5.44785e-17
5.44768e-17
5.44744e-17
5.44715e-17
5.4468e-17
5.44639e-17
5.44591e-17
5.44538e-17
5.44477e-17
5.4441e-17
5.44337e-17
5.44256e-17
5.44169e-17
5.44074e-17
5.43972e-17
5.43863e-17
5.43746e-17
5.43622e-17
5.4349e-17
5.4335e-17
5.43203e-17
5.43048e-17
5.42886e-17
5.42718e-17
5.42545e-17
5.42369e-17
5.42192e-17
5.41993e-17
1.62324e-16
1.62386e-16
1.62442e-16
1.62498e-16
1.62554e-16
1.62607e-16
1.62659e-16
1.62709e-16
1.62756e-16
1.628e-16
1.62843e-16
1.62882e-16
1.6292e-16
1.62954e-16
1.62987e-16
1.63017e-16
1.63045e-16
1.63071e-16
1.63094e-16
1.63116e-16
1.63135e-16
1.63152e-16
1.63167e-16
1.6318e-16
1.63191e-16
1.63201e-16
1.63208e-16
1.63214e-16
1.63217e-16
1.63219e-16
1.63219e-16
1.63217e-16
1.63214e-16
1.63208e-16
1.63201e-16
1.63191e-16
1.6318e-16
1.63167e-16
1.63152e-16
1.63135e-16
1.63116e-16
1.63094e-16
1.63071e-16
1.63045e-16
1.63017e-16
1.62987e-16
1.62954e-16
1.6292e-16
1.62882e-16
1.62843e-16
1.628e-16
1.62756e-16
1.62709e-16
1.62659e-16
1.62607e-16
1.62554e-16
1.62498e-16
1.62442e-16
1.62386e-16
1.62324e-16
4.97489e-16
4.97687e-16
4.97869e-16
4.98051e-16
4.98232e-16
4.98407e-16
4.98576e-16
4.98737e-16
4.98891e-16
4.99036e-16
4.99174e-16
4.99303e-16
4.99425e-16
4.99538e-16
4.99644e-16
4.99743e-16
4.99833e-16
4.99917e-16
4.99993e-16
5.00062e-16
5.00125e-16
5.00181e-16
5.0023e-16
5.00273e-16
5.00309e-16
5.00339e-16
5.00363e-16
5.00381e-16
5.00393e-16
5.00399e-16
5.00399e-16
5.00393e-16
5.00381e-16
5.00363e-16
5.00339e-16
5.00309e-16
5.00273e-16
5.0023e-16
5.00181e-16
5.00125e-16
5.00062e-16
4.99993e-16
4.99917e-16
4.99833e-16
4.99743e-16
4.99644e-16
4.99538e-16
4.99425e-16
4.99303e-16
4.99174e-16
4.99036e-16
4.98891e-16
4.98737e-16
4.98576e-16
4.98407e-16
4.98232e-16
4.98051e-16
4.97869e-16
4.97687e-16
4.97489e-16
1.5598e-15
1.56044e-15
1.56104e-15
1.56165e-15
1.56225e-15
1.56283e-15
1.5634e-15
1.56393e-15
1.56444e-15
1.56493e-15
1.56538e-15
1.56581e-15
1.56622e-15
1.56659e-15
1.56694e-15
1.56727e-15
1.56757e-15
1.56785e-15
1.5681e-15
1.56833e-15
1.56854e-15
1.56872e-15
1.56889e-15
1.56903e-15
1.56915e-15
1.56925e-15
1.56933e-15
1.56939e-15
1.56943e-15
1.56945e-15
1.56945e-15
1.56943e-15
1.56939e-15
1.56933e-15
1.56925e-15
1.56915e-15
1.56903e-15
1.56889e-15
1.56872e-15
1.56854e-15
1.56833e-15
1.5681e-15
1.56785e-15
1.56757e-15
1.56727e-15
1.56694e-15
1.56659e-15
1.56622e-15
1.56581e-15
1.56538e-15
1.56493e-15
1.56444e-15
1.56393e-15
1.5634e-15
1.56283e-15
1.56225e-15
1.56165e-15
1.56104e-15
1.56044e-15
1.5598e-15
5.00093e-15
5.00307e-15
5.0051e-15
5.00716e-15
5.00919e-15
5.01117e-15
5.01307e-15
5.01489e-15
5.01662e-15
5.01825e-15
5.0198e-15
5.02126e-15
5.02262e-15
5.0239e-15
5.02509e-15
5.02619e-15
5.02721e-15
5.02815e-15
5.02901e-15
5.02978e-15
5.03048e-15
5.03111e-15
5.03166e-15
5.03214e-15
5.03255e-15
5.03289e-15
5.03316e-15
5.03336e-15
5.03349e-15
5.03356e-15
5.03356e-15
5.03349e-15
5.03336e-15
5.03316e-15
5.03289e-15
5.03255e-15
5.03214e-15
5.03166e-15
5.03111e-15
5.03048e-15
5.02978e-15
5.02901e-15
5.02815e-15
5.02721e-15
5.02619e-15
5.02509e-15
5.0239e-15
5.02262e-15
5.02126e-15
5.0198e-15
5.01825e-15
5.01662e-15
5.01489e-15
5.01307e-15
5.01117e-15
5.00919e-15
5.00716e-15
5.0051e-15
5.00307e-15
5.00093e-15
1.63861e-14
1.63933e-14
1.64003e-14
1.64074e-14
1.64144e-14
1.64213e-14
1.64278e-14
1.64341e-14
1.64401e-14
1.64457e-14
1.64511e-14
1.64561e-14
1.64608e-14
1.64652e-14
1.64693e-14
1.64731e-14
1.64766e-14
1.64799e-14
1.64828e-14
1.64855e-14
1.64879e-14
1.64901e-14
1.6492e-14
1.64936e-14
1.6495e-14
1.64962e-14
1.64971e-14
1.64978e-14
1.64983e-14
1.64985e-14
1.64985e-14
1.64983e-14
1.64978e-14
1.64971e-14
1.64962e-14
1.6495e-14
1.64936e-14
1.6492e-14
1.64901e-14
1.64879e-14
1.64855e-14
1.64828e-14
1.64799e-14
1.64766e-14
1.64731e-14
1.64693e-14
1.64652e-14
1.64608e-14
1.64561e-14
1.64511e-14
1.64457e-14
1.64401e-14
1.64341e-14
1.64278e-14
1.64213e-14
1.64144e-14
1.64074e-14
1.64003e-14
1.63933e-14
1.63861e-14
5.48287e-14
5.48538e-14
5.48782e-14
5.49031e-14
5.49278e-14
5.49518e-14
5.49749e-14
5.4997e-14
5.5018e-14
5.50379e-14
5.50566e-14
5.50743e-14
5.50908e-14
5.51063e-14
5.51207e-14
5.51341e-14
5.51464e-14
5.51577e-14
5.51681e-14
5.51775e-14
5.5186e-14
5.51935e-14
5.52002e-14
5.5206e-14
5.52109e-14
5.5215e-14
5.52183e-14
5.52207e-14
5.52223e-14
5.52231e-14
5.52231e-14
5.52223e-14
5.52207e-14
5.52183e-14
5.5215e-14
5.52109e-14
5.5206e-14
5.52002e-14
5.51935e-14
5.5186e-14
5.51775e-14
5.51681e-14
5.51577e-14
5.51464e-14
5.51341e-14
5.51207e-14
5.51063e-14
5.50908e-14
5.50743e-14
5.50566e-14
5.50379e-14
5.5018e-14
5.4997e-14
5.49749e-14
5.49518e-14
5.49278e-14
5.49031e-14
5.48782e-14
5.48538e-14
5.48287e-14
1.87164e-13
1.87252e-13
1.87339e-13
1.87429e-13
1.87517e-13
1.87603e-13
1.87685e-13
1.87764e-13
1.87839e-13
1.8791e-13
1.87977e-13
1.88041e-13
1.881e-13
1.88155e-13
1.88206e-13
1.88254e-13
1.88298e-13
1.88339e-13
1.88376e-13
1.88409e-13
1.88439e-13
1.88466e-13
1.8849e-13
1.88511e-13
1.88529e-13
1.88543e-13
1.88555e-13
1.88563e-13
1.88569e-13
1.88572e-13
1.88572e-13
1.88569e-13
1.88563e-13
1.88555e-13
1.88543e-13
1.88529e-13
1.88511e-13
1.8849e-13
1.88466e-13
1.88439e-13
1.88409e-13
1.88376e-13
1.88339e-13
1.88298e-13
1.88254e-13
1.88206e-13
1.88155e-13
1.881e-13
1.88041e-13
1.87977e-13
1.8791e-13
1.87839e-13
1.87764e-13
1.87685e-13
1.87603e-13
1.87517e-13
1.87429e-13
1.87339e-13
1.87252e-13
1.87164e-13
6.51012e-13
6.51328e-13
6.51644e-13
6.51967e-13
6.52288e-13
6.52601e-13
6.52901e-13
6.53187e-13
6.5346e-13
6.53718e-13
6.53962e-13
6.54191e-13
6.54405e-13
6.54606e-13
6.54793e-13
6.54966e-13
6.55126e-13
6.55273e-13
6.55407e-13
6.55529e-13
6.55638e-13
6.55736e-13
6.55822e-13
6.55897e-13
6.55961e-13
6.56014e-13
6.56056e-13
6.56088e-13
6.56108e-13
6.56119e-13
6.56119e-13
6.56108e-13
6.56088e-13
6.56056e-13
6.56014e-13
6.55961e-13
6.55897e-13
6.55822e-13
6.55736e-13
6.55638e-13
6.55529e-13
6.55407e-13
6.55273e-13
6.55126e-13
6.54966e-13
6.54793e-13
6.54606e-13
6.54405e-13
6.54191e-13
6.53962e-13
6.53718e-13
6.5346e-13
6.53187e-13
6.52901e-13
6.52601e-13
6.52288e-13
6.51967e-13
6.51644e-13
6.51328e-13
6.51012e-13
2.30387e-12
2.30501e-12
2.30617e-12
2.30737e-12
2.30855e-12
2.3097e-12
2.31081e-12
2.31187e-12
2.31287e-12
2.31382e-12
2.31472e-12
2.31556e-12
2.31635e-12
2.31709e-12
2.31778e-12
2.31842e-12
2.319e-12
2.31954e-12
2.32004e-12
2.32049e-12
2.32089e-12
2.32125e-12
2.32157e-12
2.32184e-12
2.32208e-12
2.32227e-12
2.32243e-12
2.32254e-12
2.32262e-12
2.32266e-12
2.32266e-12
2.32262e-12
2.32254e-12
2.32243e-12
2.32227e-12
2.32208e-12
2.32184e-12
2.32157e-12
2.32125e-12
2.32089e-12
2.32049e-12
2.32004e-12
2.31954e-12
2.319e-12
2.31842e-12
2.31778e-12
2.31709e-12
2.31635e-12
2.31556e-12
2.31472e-12
2.31382e-12
2.31287e-12
2.31187e-12
2.31081e-12
2.3097e-12
2.30855e-12
2.30737e-12
2.30617e-12
2.30501e-12
2.30387e-12
8.28017e-12
8.28441e-12
8.28873e-12
8.29319e-12
8.2976e-12
8.3019e-12
8.30603e-12
8.30997e-12
8.31372e-12
8.31727e-12
8.32061e-12
8.32376e-12
8.32671e-12
8.32946e-12
8.33202e-12
8.3344e-12
8.33659e-12
8.33861e-12
8.34045e-12
8.34212e-12
8.34362e-12
8.34496e-12
8.34615e-12
8.34717e-12
8.34805e-12
8.34877e-12
8.34935e-12
8.34978e-12
8.35006e-12
8.35021e-12
8.35021e-12
8.35006e-12
8.34978e-12
8.34935e-12
8.34877e-12
8.34805e-12
8.34717e-12
8.34615e-12
8.34496e-12
8.34362e-12
8.34212e-12
8.34045e-12
8.33861e-12
8.33659e-12
8.3344e-12
8.33202e-12
8.32946e-12
8.32671e-12
8.32376e-12
8.32061e-12
8.31727e-12
8.31372e-12
8.30997e-12
8.30603e-12
8.3019e-12
8.2976e-12
8.29319e-12
8.28873e-12
8.28441e-12
8.28017e-12
3.01574e-11
3.01732e-11
3.01895e-11
3.02063e-11
3.02229e-11
3.02391e-11
3.02547e-11
3.02696e-11
3.02837e-11
3.0297e-11
3.03096e-11
3.03215e-11
3.03326e-11
3.0343e-11
3.03526e-11
3.03616e-11
3.03698e-11
3.03774e-11
3.03844e-11
3.03906e-11
3.03963e-11
3.04013e-11
3.04058e-11
3.04097e-11
3.04129e-11
3.04157e-11
3.04178e-11
3.04195e-11
3.04205e-11
3.04211e-11
3.04211e-11
3.04205e-11
3.04195e-11
3.04178e-11
3.04157e-11
3.04129e-11
3.04097e-11
3.04058e-11
3.04013e-11
3.03963e-11
3.03906e-11
3.03844e-11
3.03774e-11
3.03698e-11
3.03616e-11
3.03526e-11
3.0343e-11
3.03326e-11
3.03215e-11
3.03096e-11
3.0297e-11
3.02837e-11
3.02696e-11
3.02547e-11
3.02391e-11
3.02229e-11
3.02063e-11
3.01895e-11
3.01732e-11
3.01574e-11
1.1102e-10
1.1108e-10
1.11142e-10
1.11205e-10
1.11269e-10
1.1133e-10
1.11389e-10
1.11446e-10
1.11499e-10
1.1155e-10
1.11598e-10
1.11643e-10
1.11685e-10
1.11724e-10
1.11761e-10
1.11795e-10
1.11826e-10
1.11855e-10
1.11881e-10
1.11905e-10
1.11927e-10
1.11946e-10
1.11963e-10
1.11977e-10
1.1199e-10
1.12e-10
1.12008e-10
1.12014e-10
1.12018e-10
1.12021e-10
1.12021e-10
1.12018e-10
1.12014e-10
1.12008e-10
1.12e-10
1.1199e-10
1.11977e-10
1.11963e-10
1.11946e-10
1.11927e-10
1.11905e-10
1.11881e-10
1.11855e-10
1.11826e-10
1.11795e-10
1.11761e-10
1.11724e-10
1.11685e-10
1.11643e-10
1.11598e-10
1.1155e-10
1.11499e-10
1.11446e-10
1.11389e-10
1.1133e-10
1.11269e-10
1.11205e-10
1.11142e-10
1.1108e-10
1.1102e-10
4.11861e-10
4.12086e-10
4.12321e-10
4.12564e-10
4.12806e-10
4.1304e-10
4.13266e-10
4.13481e-10
4.13685e-10
4.13879e-10
4.14061e-10
4.14232e-10
4.14393e-10
4.14543e-10
4.14682e-10
4.14811e-10
4.14931e-10
4.1504e-10
4.1514e-10
4.15231e-10
4.15313e-10
4.15386e-10
4.1545e-10
4.15506e-10
4.15553e-10
4.15592e-10
4.15624e-10
4.15647e-10
4.15662e-10
4.1567e-10
4.1567e-10
4.15662e-10
4.15647e-10
4.15624e-10
4.15592e-10
4.15553e-10
4.15506e-10
4.1545e-10
4.15386e-10
4.15313e-10
4.15231e-10
4.1514e-10
4.1504e-10
4.14931e-10
4.14811e-10
4.14682e-10
4.14543e-10
4.14393e-10
4.14232e-10
4.14061e-10
4.13879e-10
4.13685e-10
4.13481e-10
4.13266e-10
4.1304e-10
4.12806e-10
4.12564e-10
4.12321e-10
4.12086e-10
4.11861e-10
1.53427e-09
1.53512e-09
1.53602e-09
1.53695e-09
1.53787e-09
1.53876e-09
1.53962e-09
1.54044e-09
1.54122e-09
1.54196e-09
1.54265e-09
1.5433e-09
1.54392e-09
1.54449e-09
1.54502e-09
1.54551e-09
1.54597e-09
1.54638e-09
1.54676e-09
1.54711e-09
1.54742e-09
1.5477e-09
1.54794e-09
1.54815e-09
1.54834e-09
1.54849e-09
1.5486e-09
1.54869e-09
1.54875e-09
1.54878e-09
1.54878e-09
1.54875e-09
1.54869e-09
1.5486e-09
1.54849e-09
1.54834e-09
1.54815e-09
1.54794e-09
1.5477e-09
1.54742e-09
1.54711e-09
1.54676e-09
1.54638e-09
1.54597e-09
1.54551e-09
1.54502e-09
1.54449e-09
1.54392e-09
1.5433e-09
1.54265e-09
1.54196e-09
1.54122e-09
1.54044e-09
1.53962e-09
1.53876e-09
1.53787e-09
1.53695e-09
1.53602e-09
1.53512e-09
1.53427e-09
5.71573e-09
5.71895e-09
5.72236e-09
5.72589e-09
5.72939e-09
5.73279e-09
5.73605e-09
5.73916e-09
5.74212e-09
5.74492e-09
5.74756e-09
5.75003e-09
5.75236e-09
5.75452e-09
5.75654e-09
5.75841e-09
5.76013e-09
5.76171e-09
5.76316e-09
5.76447e-09
5.76565e-09
5.7667e-09
5.76763e-09
5.76843e-09
5.76911e-09
5.76968e-09
5.77013e-09
5.77047e-09
5.7707e-09
5.77081e-09
5.77081e-09
5.7707e-09
5.77047e-09
5.77013e-09
5.76968e-09
5.76911e-09
5.76843e-09
5.76763e-09
5.7667e-09
5.76565e-09
5.76447e-09
5.76316e-09
5.76171e-09
5.76013e-09
5.75841e-09
5.75654e-09
5.75452e-09
5.75236e-09
5.75003e-09
5.74756e-09
5.74492e-09
5.74212e-09
5.73916e-09
5.73605e-09
5.73279e-09
5.72939e-09
5.72589e-09
5.72236e-09
5.71895e-09
5.71573e-09
2.11937e-08
2.12058e-08
2.12187e-08
2.12319e-08
2.12451e-08
2.12579e-08
2.12702e-08
2.12819e-08
2.1293e-08
2.13035e-08
2.13134e-08
2.13228e-08
2.13315e-08
2.13396e-08
2.13472e-08
2.13542e-08
2.13607e-08
2.13666e-08
2.13721e-08
2.1377e-08
2.13814e-08
2.13854e-08
2.13889e-08
2.13919e-08
2.13944e-08
2.13966e-08
2.13983e-08
2.13995e-08
2.14004e-08
2.14008e-08
2.14008e-08
2.14004e-08
2.13995e-08
2.13983e-08
2.13966e-08
2.13944e-08
2.13919e-08
2.13889e-08
2.13854e-08
2.13814e-08
2.1377e-08
2.13721e-08
2.13666e-08
2.13607e-08
2.13542e-08
2.13472e-08
2.13396e-08
2.13315e-08
2.13228e-08
2.13134e-08
2.13035e-08
2.1293e-08
2.12819e-08
2.12702e-08
2.12579e-08
2.12451e-08
2.12319e-08
2.12187e-08
2.12058e-08
2.11937e-08
7.77952e-08
7.78399e-08
7.78876e-08
7.79368e-08
7.79856e-08
7.80329e-08
7.80784e-08
7.81218e-08
7.8163e-08
7.82019e-08
7.82386e-08
7.82731e-08
7.83054e-08
7.83355e-08
7.83636e-08
7.83895e-08
7.84135e-08
7.84355e-08
7.84556e-08
7.84738e-08
7.84902e-08
7.85048e-08
7.85177e-08
7.85288e-08
7.85384e-08
7.85462e-08
7.85525e-08
7.85572e-08
7.85603e-08
7.85619e-08
7.85619e-08
7.85603e-08
7.85572e-08
7.85525e-08
7.85462e-08
7.85384e-08
7.85288e-08
7.85177e-08
7.85048e-08
7.84902e-08
7.84738e-08
7.84556e-08
7.84355e-08
7.84135e-08
7.83895e-08
7.83636e-08
7.83355e-08
7.83054e-08
7.82731e-08
7.82386e-08
7.82019e-08
7.8163e-08
7.81218e-08
7.80784e-08
7.80329e-08
7.79856e-08
7.79368e-08
7.78876e-08
7.78399e-08
7.77952e-08
2.80944e-07
2.81106e-07
2.81279e-07
2.81458e-07
2.81635e-07
2.81806e-07
2.81971e-07
2.82128e-07
2.82277e-07
2.82418e-07
2.82551e-07
2.82676e-07
2.82793e-07
2.82902e-07
2.83003e-07
2.83097e-07
2.83184e-07
2.83263e-07
2.83336e-07
2.83402e-07
2.83461e-07
2.83514e-07
2.83561e-07
2.83601e-07
2.83636e-07
2.83664e-07
2.83687e-07
2.83704e-07
2.83715e-07
2.83721e-07
2.83721e-07
2.83715e-07
2.83704e-07
2.83687e-07
2.83664e-07
2.83636e-07
2.83601e-07
2.83561e-07
2.83514e-07
2.83461e-07
2.83402e-07
2.83336e-07
2.83263e-07
2.83184e-07
2.83097e-07
2.83003e-07
2.82902e-07
2.82793e-07
2.82676e-07
2.82551e-07
2.82418e-07
2.82277e-07
2.82128e-07
2.81971e-07
2.81806e-07
2.81635e-07
2.81458e-07
2.81279e-07
2.81106e-07
2.80944e-07
9.91191e-07
9.91761e-07
9.92372e-07
9.93e-07
9.93621e-07
9.94225e-07
9.94804e-07
9.95356e-07
9.95879e-07
9.96375e-07
9.96841e-07
9.9728e-07
9.9769e-07
9.98073e-07
9.9843e-07
9.98759e-07
9.99064e-07
9.99343e-07
9.99598e-07
9.99829e-07
1.00004e-06
1.00022e-06
1.00039e-06
1.00053e-06
1.00065e-06
1.00075e-06
1.00083e-06
1.00089e-06
1.00093e-06
1.00095e-06
1.00095e-06
1.00093e-06
1.00089e-06
1.00083e-06
1.00075e-06
1.00065e-06
1.00053e-06
1.00039e-06
1.00022e-06
1.00004e-06
9.99829e-07
9.99598e-07
9.99343e-07
9.99064e-07
9.98759e-07
9.9843e-07
9.98073e-07
9.9769e-07
9.9728e-07
9.96841e-07
9.96375e-07
9.95879e-07
9.95356e-07
9.94804e-07
9.94225e-07
9.93621e-07
9.93e-07
9.92372e-07
9.91761e-07
9.91191e-07
3.3893e-06
3.39123e-06
3.3933e-06
3.39543e-06
3.39753e-06
3.39957e-06
3.40153e-06
3.40339e-06
3.40516e-06
3.40683e-06
3.40841e-06
3.40989e-06
3.41128e-06
3.41257e-06
3.41377e-06
3.41489e-06
3.41591e-06
3.41686e-06
3.41772e-06
3.4185e-06
3.4192e-06
3.41983e-06
3.42038e-06
3.42086e-06
3.42126e-06
3.4216e-06
3.42187e-06
3.42207e-06
3.4222e-06
3.42227e-06
3.42227e-06
3.4222e-06
3.42207e-06
3.42187e-06
3.4216e-06
3.42126e-06
3.42086e-06
3.42038e-06
3.41983e-06
3.4192e-06
3.4185e-06
3.41772e-06
3.41686e-06
3.41591e-06
3.41489e-06
3.41377e-06
3.41257e-06
3.41128e-06
3.40989e-06
3.40841e-06
3.40683e-06
3.40516e-06
3.40339e-06
3.40153e-06
3.39957e-06
3.39753e-06
3.39543e-06
3.3933e-06
3.39123e-06
3.3893e-06
1.11321e-05
1.11384e-05
1.11451e-05
1.11519e-05
1.11587e-05
1.11652e-05
1.11715e-05
1.11775e-05
1.11832e-05
1.11886e-05
1.11936e-05
1.11984e-05
1.12028e-05
1.1207e-05
1.12109e-05
1.12144e-05
1.12177e-05
1.12208e-05
1.12235e-05
1.1226e-05
1.12283e-05
1.12303e-05
1.12321e-05
1.12336e-05
1.12349e-05
1.1236e-05
1.12369e-05
1.12375e-05
1.12379e-05
1.12381e-05
1.12381e-05
1.12379e-05
1.12375e-05
1.12369e-05
1.1236e-05
1.12349e-05
1.12336e-05
1.12321e-05
1.12303e-05
1.12283e-05
1.1226e-05
1.12235e-05
1.12208e-05
1.12177e-05
1.12144e-05
1.12109e-05
1.1207e-05
1.12028e-05
1.11984e-05
1.11936e-05
1.11886e-05
1.11832e-05
1.11775e-05
1.11715e-05
1.11652e-05
1.11587e-05
1.11519e-05
1.11451e-05
1.11384e-05
1.11321e-05
3.47673e-05
3.47863e-05
3.48066e-05
3.48273e-05
3.48478e-05
3.48676e-05
3.48866e-05
3.49047e-05
3.49219e-05
3.49382e-05
3.49535e-05
3.49678e-05
3.49813e-05
3.49938e-05
3.50055e-05
3.50163e-05
3.50263e-05
3.50354e-05
3.50437e-05
3.50513e-05
3.50581e-05
3.50642e-05
3.50695e-05
3.50742e-05
3.50781e-05
3.50814e-05
3.5084e-05
3.50859e-05
3.50872e-05
3.50879e-05
3.50879e-05
3.50872e-05
3.50859e-05
3.5084e-05
3.50814e-05
3.50781e-05
3.50742e-05
3.50695e-05
3.50642e-05
3.50581e-05
3.50513e-05
3.50437e-05
3.50354e-05
3.50263e-05
3.50163e-05
3.50055e-05
3.49938e-05
3.49813e-05
3.49678e-05
3.49535e-05
3.49382e-05
3.49219e-05
3.49047e-05
3.48866e-05
3.48676e-05
3.48478e-05
3.48273e-05
3.48066e-05
3.47863e-05
3.47673e-05
0.000102088
0.000102142
0.000102199
0.000102257
0.000102315
0.00010237
0.000102424
0.000102475
0.000102523
0.000102568
0.000102611
0.000102651
0.000102689
0.000102724
0.000102757
0.000102787
0.000102815
0.000102841
0.000102864
0.000102885
0.000102904
0.000102921
0.000102936
0.000102949
0.00010296
0.000102969
0.000102977
0.000102982
0.000102986
0.000102987
0.000102987
0.000102986
0.000102982
0.000102977
0.000102969
0.00010296
0.000102949
0.000102936
0.000102921
0.000102904
0.000102885
0.000102864
0.000102841
0.000102815
0.000102787
0.000102757
0.000102724
0.000102689