/*--------------------------------*- C++ -*----------------------------------*\
| =========                 |                                                 |
| \\      /  F ield         | foam-extend: Open Source CFD                    |
|  \\    /   O peration     | Version:     4.0                                |
|   \\  /    A nd           | Web:         http://www.foam-extend.org         |
|    \\/     M anipulation  |                                                 |
\*---------------------------------------------------------------------------*/
FoamFile
{
    version     2.0;
    format      ascii;
    class       volScalarField;
    location    "1130";
    object      cPlus;
}
// * * * * * * * * * * * * * * * * * * * * * * * * * * * * * * * * * * * * * //

dimensions      [0 0 0 0 0 0 0];

internalField   nonuniform List<scalar> 
6960
(
0.333837
0.333828
0.333817
0.333806
0.333796
0.333786
0.333776
0.333768
0.33376
0.333753
0.333747
0.333741
0.333736
0.333732
0.333727
0.333724
0.333721
0.333718
0.333716
0.333713
0.333712
0.33371
0.333709
0.333707
0.333707
0.333706
0.333705
0.333705
0.333704
0.333704
0.333704
0.333704
0.333705
0.333705
0.333706
0.333707
0.333707
0.333709
0.33371
0.333712
0.333713
0.333716
0.333718
0.333721
0.333724
0.333727
0.333732
0.333736
0.333741
0.333747
0.333753
0.33376
0.333768
0.333776
0.333786
0.333796
0.333806
0.333817
0.333828
0.333837
0.113286
0.113279
0.113271
0.113263
0.113255
0.113247
0.11324
0.113234
0.113228
0.113222
0.113218
0.113213
0.113209
0.113206
0.113203
0.1132
0.113198
0.113196
0.113194
0.113192
0.113191
0.11319
0.113189
0.113188
0.113187
0.113186
0.113186
0.113186
0.113185
0.113185
0.113185
0.113185
0.113186
0.113186
0.113186
0.113187
0.113188
0.113189
0.11319
0.113191
0.113192
0.113194
0.113196
0.113198
0.1132
0.113203
0.113206
0.113209
0.113213
0.113218
0.113222
0.113228
0.113234
0.11324
0.113247
0.113255
0.113263
0.113271
0.113279
0.113286
0.0455462
0.0455424
0.0455375
0.0455324
0.0455275
0.0455229
0.0455187
0.0455148
0.0455112
0.045508
0.0455051
0.0455025
0.0455001
0.045498
0.0454962
0.0454945
0.0454931
0.0454918
0.0454907
0.0454897
0.0454889
0.0454881
0.0454875
0.045487
0.0454866
0.0454862
0.0454859
0.0454857
0.0454856
0.0454855
0.0454855
0.0454856
0.0454857
0.0454859
0.0454862
0.0454866
0.045487
0.0454875
0.0454881
0.0454889
0.0454897
0.0454907
0.0454918
0.0454931
0.0454945
0.0454962
0.045498
0.0455001
0.0455025
0.0455051
0.045508
0.0455112
0.0455148
0.0455187
0.0455229
0.0455275
0.0455324
0.0455375
0.0455424
0.0455462
0.0206738
0.0206721
0.0206696
0.0206671
0.0206646
0.0206622
0.0206601
0.0206581
0.0206563
0.0206547
0.0206532
0.0206519
0.0206507
0.0206496
0.0206487
0.0206478
0.0206471
0.0206465
0.0206459
0.0206454
0.020645
0.0206446
0.0206443
0.020644
0.0206438
0.0206436
0.0206435
0.0206434
0.0206433
0.0206433
0.0206433
0.0206433
0.0206434
0.0206435
0.0206436
0.0206438
0.020644
0.0206443
0.0206446
0.020645
0.0206454
0.0206459
0.0206465
0.0206471
0.0206478
0.0206487
0.0206496
0.0206507
0.0206519
0.0206532
0.0206547
0.0206563
0.0206581
0.0206601
0.0206622
0.0206646
0.0206671
0.0206696
0.0206721
0.0206738
0.0110193
0.0110189
0.011018
0.011017
0.0110161
0.0110152
0.0110144
0.0110136
0.0110129
0.0110123
0.0110118
0.0110112
0.0110108
0.0110104
0.01101
0.0110097
0.0110094
0.0110092
0.011009
0.0110088
0.0110086
0.0110085
0.0110083
0.0110082
0.0110082
0.0110081
0.011008
0.011008
0.011008
0.011008
0.011008
0.011008
0.011008
0.011008
0.0110081
0.0110082
0.0110082
0.0110083
0.0110085
0.0110086
0.0110088
0.011009
0.0110092
0.0110094
0.0110097
0.01101
0.0110104
0.0110108
0.0110112
0.0110118
0.0110123
0.0110129
0.0110136
0.0110144
0.0110152
0.0110161
0.011017
0.011018
0.0110189
0.0110193
0.00724998
0.00725024
0.00725026
0.00725022
0.00725016
0.00725009
0.00725003
0.00724996
0.00724991
0.00724986
0.00724981
0.00724977
0.00724973
0.00724969
0.00724966
0.00724963
0.00724961
0.00724959
0.00724957
0.00724955
0.00724954
0.00724953
0.00724951
0.00724951
0.0072495
0.00724949
0.00724949
0.00724948
0.00724948
0.00724948
0.00724948
0.00724948
0.00724948
0.00724949
0.00724949
0.0072495
0.00724951
0.00724951
0.00724953
0.00724954
0.00724955
0.00724957
0.00724959
0.00724961
0.00724963
0.00724966
0.00724969
0.00724973
0.00724977
0.00724981
0.00724986
0.00724991
0.00724996
0.00725003
0.00725009
0.00725016
0.00725022
0.00725026
0.00725024
0.00724998
0.00580835
0.00580898
0.00580947
0.0058099
0.0058103
0.00581066
0.00581099
0.00581129
0.00581156
0.00581181
0.00581203
0.00581223
0.00581241
0.00581257
0.00581271
0.00581283
0.00581294
0.00581304
0.00581313
0.0058132
0.00581326
0.00581332
0.00581336
0.0058134
0.00581344
0.00581346
0.00581348
0.0058135
0.00581351
0.00581351
0.00581351
0.00581351
0.0058135
0.00581348
0.00581346
0.00581344
0.0058134
0.00581336
0.00581332
0.00581326
0.0058132
0.00581313
0.00581304
0.00581294
0.00581283
0.00581271
0.00581257
0.00581241
0.00581223
0.00581203
0.00581181
0.00581156
0.00581129
0.00581099
0.00581066
0.0058103
0.0058099
0.00580947
0.00580898
0.00580835
0.00528329
0.00528411
0.00528483
0.0052855
0.00528612
0.00528669
0.00528721
0.00528769
0.00528813
0.00528852
0.00528888
0.00528919
0.00528948
0.00528973
0.00528996
0.00529016
0.00529033
0.00529049
0.00529062
0.00529074
0.00529084
0.00529093
0.00529101
0.00529107
0.00529112
0.00529116
0.0052912
0.00529122
0.00529124
0.00529124
0.00529124
0.00529124
0.00529122
0.0052912
0.00529116
0.00529112
0.00529107
0.00529101
0.00529093
0.00529084
0.00529074
0.00529062
0.00529049
0.00529033
0.00529016
0.00528996
0.00528973
0.00528948
0.00528919
0.00528888
0.00528852
0.00528813
0.00528769
0.00528721
0.00528669
0.00528612
0.0052855
0.00528483
0.00528411
0.00528329
0.00511391
0.00511482
0.00511565
0.00511643
0.00511716
0.00511783
0.00511845
0.00511901
0.00511952
0.00511998
0.0051204
0.00512078
0.00512111
0.00512141
0.00512168
0.00512191
0.00512212
0.0051223
0.00512246
0.0051226
0.00512272
0.00512283
0.00512291
0.00512299
0.00512305
0.0051231
0.00512314
0.00512317
0.00512319
0.0051232
0.0051232
0.00512319
0.00512317
0.00512314
0.0051231
0.00512305
0.00512299
0.00512291
0.00512283
0.00512272
0.0051226
0.00512246
0.0051223
0.00512212
0.00512191
0.00512168
0.00512141
0.00512111
0.00512078
0.0051204
0.00511998
0.00511952
0.00511901
0.00511845
0.00511783
0.00511716
0.00511643
0.00511565
0.00511482
0.00511391
0.00508051
0.00508147
0.00508236
0.00508319
0.00508397
0.00508469
0.00508535
0.00508596
0.0050865
0.005087
0.00508745
0.00508785
0.00508821
0.00508853
0.00508882
0.00508907
0.0050893
0.00508949
0.00508966
0.00508981
0.00508994
0.00509005
0.00509015
0.00509023
0.00509029
0.00509035
0.00509039
0.00509042
0.00509044
0.00509045
0.00509045
0.00509044
0.00509042
0.00509039
0.00509035
0.00509029
0.00509023
0.00509015
0.00509005
0.00508994
0.00508981
0.00508966
0.00508949
0.0050893
0.00508907
0.00508882
0.00508853
0.00508821
0.00508785
0.00508745
0.005087
0.0050865
0.00508596
0.00508535
0.00508469
0.00508397
0.00508319
0.00508236
0.00508147
0.00508051
0.00509897
0.00509996
0.00510088
0.00510174
0.00510254
0.00510329
0.00510398
0.0051046
0.00510517
0.00510569
0.00510615
0.00510657
0.00510695
0.00510728
0.00510758
0.00510784
0.00510807
0.00510827
0.00510845
0.00510861
0.00510874
0.00510886
0.00510895
0.00510904
0.00510911
0.00510916
0.00510921
0.00510924
0.00510926
0.00510927
0.00510927
0.00510926
0.00510924
0.00510921
0.00510916
0.00510911
0.00510904
0.00510895
0.00510886
0.00510874
0.00510861
0.00510845
0.00510827
0.00510807
0.00510784
0.00510758
0.00510728
0.00510695
0.00510657
0.00510615
0.00510569
0.00510517
0.0051046
0.00510398
0.00510329
0.00510254
0.00510174
0.00510088
0.00509996
0.00509897
0.00513795
0.00513896
0.0051399
0.00514078
0.00514161
0.00514237
0.00514307
0.00514372
0.0051443
0.00514483
0.0051453
0.00514573
0.00514611
0.00514645
0.00514676
0.00514703
0.00514726
0.00514747
0.00514766
0.00514781
0.00514795
0.00514807
0.00514817
0.00514826
0.00514833
0.00514838
0.00514843
0.00514846
0.00514848
0.00514849
0.00514849
0.00514848
0.00514846
0.00514843
0.00514838
0.00514833
0.00514826
0.00514817
0.00514807
0.00514795
0.00514781
0.00514766
0.00514747
0.00514726
0.00514703
0.00514676
0.00514645
0.00514611
0.00514573
0.0051453
0.00514483
0.0051443
0.00514372
0.00514307
0.00514237
0.00514161
0.00514078
0.0051399
0.00513896
0.00513795
0.0051862
0.00518723
0.00518818
0.00518908
0.00518992
0.0051907
0.00519142
0.00519207
0.00519266
0.0051932
0.00519369
0.00519412
0.00519451
0.00519486
0.00519517
0.00519545
0.00519569
0.0051959
0.00519609
0.00519625
0.00519639
0.00519651
0.00519661
0.0051967
0.00519677
0.00519683
0.00519687
0.00519691
0.00519693
0.00519694
0.00519694
0.00519693
0.00519691
0.00519687
0.00519683
0.00519677
0.0051967
0.00519661
0.00519651
0.00519639
0.00519625
0.00519609
0.0051959
0.00519569
0.00519545
0.00519517
0.00519486
0.00519451
0.00519412
0.00519369
0.0051932
0.00519266
0.00519207
0.00519142
0.0051907
0.00518992
0.00518908
0.00518818
0.00518723
0.0051862
0.00523989
0.00524094
0.00524191
0.00524283
0.00524368
0.00524448
0.00524521
0.00524587
0.00524648
0.00524702
0.00524752
0.00524796
0.00524836
0.00524871
0.00524903
0.00524931
0.00524955
0.00524977
0.00524996
0.00525012
0.00525027
0.00525039
0.0052505
0.00525058
0.00525066
0.00525072
0.00525076
0.0052508
0.00525082
0.00525083
0.00525083
0.00525082
0.0052508
0.00525076
0.00525072
0.00525066
0.00525058
0.0052505
0.00525039
0.00525027
0.00525012
0.00524996
0.00524977
0.00524955
0.00524931
0.00524903
0.00524871
0.00524836
0.00524796
0.00524752
0.00524702
0.00524648
0.00524587
0.00524521
0.00524448
0.00524368
0.00524283
0.00524191
0.00524094
0.00523989
0.00529793
0.005299
0.00529999
0.00530092
0.00530179
0.0053026
0.00530334
0.00530402
0.00530463
0.00530519
0.00530569
0.00530615
0.00530655
0.00530691
0.00530723
0.00530752
0.00530777
0.00530799
0.00530818
0.00530835
0.0053085
0.00530862
0.00530873
0.00530882
0.00530889
0.00530895
0.005309
0.00530904
0.00530906
0.00530907
0.00530907
0.00530906
0.00530904
0.005309
0.00530895
0.00530889
0.00530882
0.00530873
0.00530862
0.0053085
0.00530835
0.00530818
0.00530799
0.00530777
0.00530752
0.00530723
0.00530691
0.00530655
0.00530615
0.00530569
0.00530519
0.00530463
0.00530402
0.00530334
0.0053026
0.00530179
0.00530092
0.00529999
0.005299
0.00529793
0.00536017
0.00536126
0.00536227
0.00536322
0.00536411
0.00536493
0.00536569
0.00536638
0.00536701
0.00536758
0.00536809
0.00536855
0.00536896
0.00536933
0.00536966
0.00536995
0.0053702
0.00537043
0.00537062
0.0053708
0.00537094
0.00537107
0.00537118
0.00537127
0.00537135
0.00537141
0.00537146
0.0053715
0.00537152
0.00537153
0.00537153
0.00537152
0.0053715
0.00537146
0.00537141
0.00537135
0.00537127
0.00537118
0.00537107
0.00537094
0.0053708
0.00537062
0.00537043
0.0053702
0.00536995
0.00536966
0.00536933
0.00536896
0.00536855
0.00536809
0.00536758
0.00536701
0.00536638
0.00536569
0.00536493
0.00536411
0.00536322
0.00536227
0.00536126
0.00536017
0.00542686
0.00542797
0.005429
0.00542997
0.00543087
0.00543171
0.00543248
0.00543319
0.00543383
0.00543441
0.00543493
0.0054354
0.00543582
0.0054362
0.00543653
0.00543683
0.00543709
0.00543732
0.00543752
0.0054377
0.00543785
0.00543798
0.00543809
0.00543818
0.00543826
0.00543833
0.00543837
0.00543841
0.00543843
0.00543845
0.00543845
0.00543843
0.00543841
0.00543837
0.00543833
0.00543826
0.00543818
0.00543809
0.00543798
0.00543785
0.0054377
0.00543752
0.00543732
0.00543709
0.00543683
0.00543653
0.0054362
0.00543582
0.0054354
0.00543493
0.00543441
0.00543383
0.00543319
0.00543248
0.00543171
0.00543087
0.00542997
0.005429
0.00542797
0.00542686
0.00549837
0.0054995
0.00550056
0.00550155
0.00550247
0.00550333
0.00550412
0.00550484
0.00550549
0.00550608
0.00550662
0.0055071
0.00550753
0.00550791
0.00550825
0.00550856
0.00550882
0.00550906
0.00550926
0.00550944
0.0055096
0.00550973
0.00550985
0.00550994
0.00551002
0.00551009
0.00551014
0.00551017
0.0055102
0.00551021
0.00551021
0.0055102
0.00551017
0.00551014
0.00551009
0.00551002
0.00550994
0.00550985
0.00550973
0.0055096
0.00550944
0.00550926
0.00550906
0.00550882
0.00550856
0.00550825
0.00550791
0.00550753
0.0055071
0.00550662
0.00550608
0.00550549
0.00550484
0.00550412
0.00550333
0.00550247
0.00550155
0.00550056
0.0054995
0.00549837
0.00557519
0.00557636
0.00557743
0.00557845
0.00557939
0.00558027
0.00558108
0.00558181
0.00558248
0.00558309
0.00558363
0.00558413
0.00558457
0.00558496
0.00558531
0.00558562
0.00558589
0.00558613
0.00558634
0.00558653
0.00558668
0.00558682
0.00558694
0.00558704
0.00558712
0.00558718
0.00558724
0.00558727
0.0055873
0.00558731
0.00558731
0.0055873
0.00558727
0.00558724
0.00558718
0.00558712
0.00558704
0.00558694
0.00558682
0.00558668
0.00558653
0.00558634
0.00558613
0.00558589
0.00558562
0.00558531
0.00558496
0.00558457
0.00558413
0.00558363
0.00558309
0.00558248
0.00558181
0.00558108
0.00558027
0.00557939
0.00557845
0.00557743
0.00557636
0.00557519
0.0056579
0.0056591
0.0056602
0.00566124
0.00566221
0.00566311
0.00566393
0.00566469
0.00566537
0.005666
0.00566656
0.00566706
0.00566751
0.00566791
0.00566827
0.00566859
0.00566887
0.00566912
0.00566933
0.00566952
0.00566968
0.00566982
0.00566994
0.00567004
0.00567013
0.00567019
0.00567025
0.00567029
0.00567031
0.00567032
0.00567032
0.00567031
0.00567029
0.00567025
0.00567019
0.00567013
0.00567004
0.00566994
0.00566982
0.00566968
0.00566952
0.00566933
0.00566912
0.00566887
0.00566859
0.00566827
0.00566791
0.00566751
0.00566706
0.00566656
0.005666
0.00566537
0.00566469
0.00566393
0.00566311
0.00566221
0.00566124
0.0056602
0.0056591
0.0056579
0.00574717
0.0057484
0.00574953
0.0057506
0.00575159
0.00575251
0.00575336
0.00575413
0.00575484
0.00575548
0.00575605
0.00575657
0.00575703
0.00575745
0.00575781
0.00575814
0.00575843
0.00575868
0.0057589
0.00575909
0.00575926
0.00575941
0.00575953
0.00575963
0.00575972
0.00575979
0.00575984
0.00575988
0.00575991
0.00575992
0.00575992
0.00575991
0.00575988
0.00575984
0.00575979
0.00575972
0.00575963
0.00575953
0.00575941
0.00575926
0.00575909
0.0057589
0.00575868
0.00575843
0.00575814
0.00575781
0.00575745
0.00575703
0.00575657
0.00575605
0.00575548
0.00575484
0.00575413
0.00575336
0.00575251
0.00575159
0.0057506
0.00574953
0.0057484
0.00574717
0.00584376
0.00584503
0.00584619
0.00584729
0.00584831
0.00584926
0.00585013
0.00585093
0.00585165
0.00585231
0.0058529
0.00585343
0.00585391
0.00585433
0.00585471
0.00585505
0.00585534
0.0058556
0.00585583
0.00585603
0.0058562
0.00585635
0.00585648
0.00585658
0.00585667
0.00585674
0.0058568
0.00585684
0.00585687
0.00585688
0.00585688
0.00585687
0.00585684
0.0058568
0.00585674
0.00585667
0.00585658
0.00585648
0.00585635
0.0058562
0.00585603
0.00585583
0.0058556
0.00585534
0.00585505
0.00585471
0.00585433
0.00585391
0.00585343
0.0058529
0.00585231
0.00585165
0.00585093
0.00585013
0.00584926
0.00584831
0.00584729
0.00584619
0.00584503
0.00584376
0.0059486
0.0059499
0.0059511
0.00595223
0.00595329
0.00595426
0.00595516
0.00595598
0.00595673
0.0059574
0.00595801
0.00595856
0.00595905
0.00595949
0.00595988
0.00596023
0.00596053
0.0059608
0.00596104
0.00596124
0.00596142
0.00596157
0.0059617
0.00596181
0.0059619
0.00596198
0.00596204
0.00596208
0.00596211
0.00596212
0.00596212
0.00596211
0.00596208
0.00596204
0.00596198
0.0059619
0.00596181
0.0059617
0.00596157
0.00596142
0.00596124
0.00596104
0.0059608
0.00596053
0.00596023
0.00595988
0.00595949
0.00595905
0.00595856
0.00595801
0.0059574
0.00595673
0.00595598
0.00595516
0.00595426
0.00595329
0.00595223
0.0059511
0.0059499
0.0059486
0.00606274
0.00606409
0.00606533
0.0060665
0.00606759
0.00606859
0.00606952
0.00607037
0.00607114
0.00607184
0.00607247
0.00607304
0.00607354
0.006074
0.0060744
0.00607476
0.00607507
0.00607535
0.00607559
0.0060758
0.00607599
0.00607615
0.00607628
0.0060764
0.00607649
0.00607657
0.00607663
0.00607667
0.0060767
0.00607671
0.00607671
0.0060767
0.00607667
0.00607663
0.00607657
0.00607649
0.0060764
0.00607628
0.00607615
0.00607599
0.0060758
0.00607559
0.00607535
0.00607507
0.00607476
0.0060744
0.006074
0.00607354
0.00607304
0.00607247
0.00607184
0.00607114
0.00607037
0.00606952
0.00606859
0.00606759
0.0060665
0.00606533
0.00606409
0.00606274
0.00618746
0.00618886
0.00619015
0.00619136
0.00619248
0.00619353
0.00619449
0.00619537
0.00619617
0.00619689
0.00619754
0.00619813
0.00619866
0.00619913
0.00619954
0.00619991
0.00620024
0.00620053
0.00620078
0.006201
0.00620119
0.00620135
0.00620149
0.00620161
0.00620171
0.00620179
0.00620185
0.0062019
0.00620193
0.00620194
0.00620194
0.00620193
0.0062019
0.00620185
0.00620179
0.00620171
0.00620161
0.00620149
0.00620135
0.00620119
0.006201
0.00620078
0.00620053
0.00620024
0.00619991
0.00619954
0.00619913
0.00619866
0.00619813
0.00619754
0.00619689
0.00619617
0.00619537
0.00619449
0.00619353
0.00619248
0.00619136
0.00619015
0.00618886
0.00618746
0.00632429
0.00632575
0.00632708
0.00632834
0.00632951
0.0063306
0.00633159
0.00633251
0.00633334
0.00633409
0.00633477
0.00633538
0.00633592
0.00633641
0.00633684
0.00633723
0.00633757
0.00633787
0.00633813
0.00633836
0.00633856
0.00633873
0.00633887
0.00633899
0.0063391
0.00633918
0.00633924
0.00633929
0.00633932
0.00633934
0.00633934
0.00633932
0.00633929
0.00633924
0.00633918
0.0063391
0.00633899
0.00633887
0.00633873
0.00633856
0.00633836
0.00633813
0.00633787
0.00633757
0.00633723
0.00633684
0.00633641
0.00633592
0.00633538
0.00633477
0.00633409
0.00633334
0.00633251
0.00633159
0.0063306
0.00632951
0.00632834
0.00632708
0.00632575
0.00632429
0.00647507
0.00647659
0.00647798
0.00647929
0.00648051
0.00648164
0.00648268
0.00648363
0.0064845
0.00648528
0.00648599
0.00648663
0.0064872
0.0064877
0.00648816
0.00648856
0.00648891
0.00648922
0.0064895
0.00648974
0.00648994
0.00649012
0.00649027
0.0064904
0.00649051
0.00649059
0.00649066
0.00649071
0.00649074
0.00649076
0.00649076
0.00649074
0.00649071
0.00649066
0.00649059
0.00649051
0.0064904
0.00649027
0.00649012
0.00648994
0.00648974
0.0064895
0.00648922
0.00648891
0.00648856
0.00648816
0.0064877
0.0064872
0.00648663
0.00648599
0.00648528
0.0064845
0.00648363
0.00648268
0.00648164
0.00648051
0.00647929
0.00647798
0.00647659
0.00647507
0.00664204
0.00664364
0.00664509
0.00664646
0.00664774
0.00664892
0.00665001
0.00665101
0.00665191
0.00665273
0.00665347
0.00665414
0.00665474
0.00665527
0.00665574
0.00665616
0.00665653
0.00665686
0.00665714
0.00665739
0.00665761
0.0066578
0.00665796
0.00665809
0.0066582
0.00665829
0.00665836
0.00665841
0.00665845
0.00665846
0.00665846
0.00665845
0.00665841
0.00665836
0.00665829
0.0066582
0.00665809
0.00665796
0.0066578
0.00665761
0.00665739
0.00665714
0.00665686
0.00665653
0.00665616
0.00665574
0.00665527
0.00665474
0.00665414
0.00665347
0.00665273
0.00665191
0.00665101
0.00665001
0.00664892
0.00664774
0.00664646
0.00664509
0.00664364
0.00664204
0.00682799
0.00682967
0.0068312
0.00683264
0.00683398
0.00683523
0.00683637
0.00683742
0.00683837
0.00683923
0.00684001
0.00684071
0.00684134
0.0068419
0.00684239
0.00684284
0.00684323
0.00684357
0.00684387
0.00684413
0.00684436
0.00684456
0.00684472
0.00684486
0.00684498
0.00684508
0.00684515
0.0068452
0.00684524
0.00684526
0.00684526
0.00684524
0.0068452
0.00684515
0.00684508
0.00684498
0.00684486
0.00684472
0.00684456
0.00684436
0.00684413
0.00684387
0.00684357
0.00684323
0.00684284
0.00684239
0.0068419
0.00684134
0.00684071
0.00684001
0.00683923
0.00683837
0.00683742
0.00683637
0.00683523
0.00683398
0.00683264
0.0068312
0.00682967
0.00682799
0.00703639
0.00703817
0.00703978
0.0070413
0.00704272
0.00704404
0.00704525
0.00704635
0.00704736
0.00704827
0.00704909
0.00704983
0.00705049
0.00705108
0.00705161
0.00705208
0.00705249
0.00705285
0.00705317
0.00705345
0.00705369
0.0070539
0.00705407
0.00705422
0.00705435
0.00705445
0.00705452
0.00705458
0.00705462
0.00705464
0.00705464
0.00705462
0.00705458
0.00705452
0.00705445
0.00705435
0.00705422
0.00705407
0.0070539
0.00705369
0.00705345
0.00705317
0.00705285
0.00705249
0.00705208
0.00705161
0.00705108
0.00705049
0.00704983
0.00704909
0.00704827
0.00704736
0.00704635
0.00704525
0.00704404
0.00704272
0.0070413
0.00703978
0.00703817
0.00703639
0.00727165
0.00727354
0.00727526
0.00727687
0.00727838
0.00727978
0.00728106
0.00728224
0.00728331
0.00728427
0.00728515
0.00728593
0.00728664
0.00728727
0.00728783
0.00728832
0.00728876
0.00728915
0.00728949
0.00728978
0.00729004
0.00729026
0.00729045
0.00729061
0.00729074
0.00729084
0.00729093
0.00729099
0.00729103
0.00729105
0.00729105
0.00729103
0.00729099
0.00729093
0.00729084
0.00729074
0.00729061
0.00729045
0.00729026
0.00729004
0.00728978
0.00728949
0.00728915
0.00728876
0.00728832
0.00728783
0.00728727
0.00728664
0.00728593
0.00728515
0.00728427
0.00728331
0.00728224
0.00728106
0.00727978
0.00727838
0.00727687
0.00727526
0.00727354
0.00727165
0.00753945
0.00754147
0.00754331
0.00754504
0.00754665
0.00754814
0.00754952
0.00755078
0.00755192
0.00755296
0.00755389
0.00755474
0.00755549
0.00755616
0.00755676
0.0075573
0.00755777
0.00755818
0.00755854
0.00755886
0.00755913
0.00755937
0.00755957
0.00755974
0.00755988
0.00755999
0.00756008
0.00756015
0.00756019
0.00756021
0.00756021
0.00756019
0.00756015
0.00756008
0.00755999
0.00755988
0.00755974
0.00755957
0.00755937
0.00755913
0.00755886
0.00755854
0.00755818
0.00755777
0.0075573
0.00755676
0.00755616
0.00755549
0.00755474
0.00755389
0.00755296
0.00755192
0.00755078
0.00754952
0.00754814
0.00754665
0.00754504
0.00754331
0.00754147
0.00753945
0.00784724
0.00784942
0.0078514
0.00785327
0.00785501
0.00785662
0.00785811
0.00785946
0.0078607
0.00786182
0.00786283
0.00786374
0.00786455
0.00786528
0.00786593
0.0078665
0.00786701
0.00786746
0.00786785
0.00786819
0.00786849
0.00786874
0.00786896
0.00786914
0.00786929
0.00786942
0.00786951
0.00786958
0.00786963
0.00786965
0.00786965
0.00786963
0.00786958
0.00786951
0.00786942
0.00786929
0.00786914
0.00786896
0.00786874
0.00786849
0.00786819
0.00786785
0.00786746
0.00786701
0.0078665
0.00786593
0.00786528
0.00786455
0.00786374
0.00786283
0.00786182
0.0078607
0.00785946
0.00785811
0.00785662
0.00785501
0.00785327
0.0078514
0.00784942
0.00784724
0.00820501
0.00820737
0.00820954
0.00821157
0.00821347
0.00821523
0.00821685
0.00821833
0.00821967
0.00822089
0.008222
0.00822299
0.00822388
0.00822467
0.00822538
0.008226
0.00822656
0.00822705
0.00822747
0.00822785
0.00822817
0.00822845
0.00822869
0.00822889
0.00822905
0.00822919
0.00822929
0.00822937
0.00822942
0.00822945
0.00822945
0.00822942
0.00822937
0.00822929
0.00822919
0.00822905
0.00822889
0.00822869
0.00822845
0.00822817
0.00822785
0.00822747
0.00822705
0.00822656
0.008226
0.00822538
0.00822467
0.00822388
0.00822299
0.008222
0.00822089
0.00821967
0.00821833
0.00821685
0.00821523
0.00821347
0.00821157
0.00820954
0.00820737
0.00820501
0.00862643
0.00862903
0.00863142
0.00863366
0.00863575
0.0086377
0.00863948
0.00864112
0.0086426
0.00864395
0.00864517
0.00864626
0.00864724
0.00864812
0.0086489
0.00864959
0.0086502
0.00865074
0.00865122
0.00865163
0.00865199
0.00865229
0.00865256
0.00865278
0.00865296
0.00865311
0.00865323
0.00865331
0.00865337
0.0086534
0.0086534
0.00865337
0.00865331
0.00865323
0.00865311
0.00865296
0.00865278
0.00865256
0.00865229
0.00865199
0.00865163
0.00865122
0.00865074
0.0086502
0.00864959
0.0086489
0.00864812
0.00864724
0.00864626
0.00864517
0.00864395
0.0086426
0.00864112
0.00863948
0.0086377
0.00863575
0.00863366
0.00863142
0.00862903
0.00862643
0.00913069
0.00913359
0.00913626
0.00913877
0.00914112
0.00914329
0.0091453
0.00914713
0.00914879
0.0091503
0.00915167
0.0091529
0.009154
0.00915498
0.00915585
0.00915663
0.00915732
0.00915792
0.00915845
0.00915891
0.00915931
0.00915966
0.00915995
0.0091602
0.00916041
0.00916058
0.00916071
0.0091608
0.00916087
0.0091609
0.0091609
0.00916087
0.0091608
0.00916071
0.00916058
0.00916041
0.0091602
0.00915995
0.00915966
0.00915931
0.00915891
0.00915845
0.00915792
0.00915732
0.00915663
0.00915585
0.00915498
0.009154
0.0091529
0.00915167
0.0091503
0.00914879
0.00914713
0.0091453
0.00914329
0.00914112
0.00913877
0.00913626
0.00913359
0.00913069
0.00974534
0.00974864
0.00975168
0.00975454
0.00975722
0.0097597
0.00976199
0.00976408
0.00976598
0.0097677
0.00976926
0.00977066
0.00977192
0.00977304
0.00977404
0.00977493
0.00977571
0.0097764
0.00977701
0.00977754
0.00977799
0.00977839
0.00977873
0.00977901
0.00977925
0.00977944
0.00977959
0.00977969
0.00977977
0.0097798
0.0097798
0.00977977
0.00977969
0.00977959
0.00977944
0.00977925
0.00977901
0.00977873
0.00977839
0.00977799
0.00977754
0.00977701
0.0097764
0.00977571
0.00977493
0.00977404
0.00977304
0.00977192
0.00977066
0.00976926
0.0097677
0.00976598
0.00976408
0.00976199
0.0097597
0.00975722
0.00975454
0.00975168
0.00974864
0.00974534
0.0105106
0.0105144
0.010518
0.0105213
0.0105244
0.0105273
0.01053
0.0105324
0.0105347
0.0105367
0.0105385
0.0105401
0.0105416
0.0105429
0.0105441
0.0105451
0.010546
0.0105468
0.0105475
0.0105482
0.0105487
0.0105492
0.0105495
0.0105499
0.0105502
0.0105504
0.0105505
0.0105507
0.0105508
0.0105508
0.0105508
0.0105508
0.0105507
0.0105505
0.0105504
0.0105502
0.0105499
0.0105495
0.0105492
0.0105487
0.0105482
0.0105475
0.0105468
0.010546
0.0105451
0.0105441
0.0105429
0.0105416
0.0105401
0.0105385
0.0105367
0.0105347
0.0105324
0.01053
0.0105273
0.0105244
0.0105213
0.010518
0.0105144
0.0105106
0.0114854
0.01149
0.0114942
0.0114982
0.0115019
0.0115054
0.0115086
0.0115115
0.0115141
0.0115165
0.0115187
0.0115207
0.0115224
0.011524
0.0115254
0.0115266
0.0115277
0.0115287
0.0115295
0.0115303
0.0115309
0.0115315
0.0115319
0.0115323
0.0115327
0.0115329
0.0115332
0.0115333
0.0115334
0.0115335
0.0115335
0.0115334
0.0115333
0.0115332
0.0115329
0.0115327
0.0115323
0.0115319
0.0115315
0.0115309
0.0115303
0.0115295
0.0115287
0.0115277
0.0115266
0.0115254
0.011524
0.0115224
0.0115207
0.0115187
0.0115165
0.0115141
0.0115115
0.0115086
0.0115054
0.0115019
0.0114982
0.0114942
0.01149
0.0114854
0.012754
0.0127596
0.0127647
0.0127696
0.0127742
0.0127784
0.0127824
0.0127859
0.0127892
0.0127922
0.0127948
0.0127972
0.0127994
0.0128013
0.012803
0.0128046
0.0128059
0.0128071
0.0128081
0.012809
0.0128098
0.0128105
0.0128111
0.0128116
0.012812
0.0128123
0.0128126
0.0128128
0.0128129
0.0128129
0.0128129
0.0128129
0.0128128
0.0128126
0.0128123
0.012812
0.0128116
0.0128111
0.0128105
0.0128098
0.012809
0.0128081
0.0128071
0.0128059
0.0128046
0.012803
0.0128013
0.0127994
0.0127972
0.0127948
0.0127922
0.0127892
0.0127859
0.0127824
0.0127784
0.0127742
0.0127696
0.0127647
0.0127596
0.012754
0.0144302
0.0144371
0.0144436
0.0144497
0.0144554
0.0144607
0.0144656
0.0144701
0.0144742
0.0144779
0.0144813
0.0144843
0.014487
0.0144894
0.0144916
0.0144935
0.0144952
0.0144966
0.014498
0.0144991
0.0145001
0.0145009
0.0145017
0.0145023
0.0145028
0.0145032
0.0145035
0.0145038
0.0145039
0.014504
0.014504
0.0145039
0.0145038
0.0145035
0.0145032
0.0145028
0.0145023
0.0145017
0.0145009
0.0145001
0.0144991
0.014498
0.0144966
0.0144952
0.0144935
0.0144916
0.0144894
0.014487
0.0144843
0.0144813
0.0144779
0.0144742
0.0144701
0.0144656
0.0144607
0.0144554
0.0144497
0.0144436
0.0144371
0.0144302
0.0166517
0.0166603
0.0166685
0.0166762
0.0166835
0.0166902
0.0166964
0.0167021
0.0167073
0.016712
0.0167162
0.0167201
0.0167235
0.0167265
0.0167293
0.0167317
0.0167338
0.0167357
0.0167374
0.0167388
0.0167401
0.0167411
0.0167421
0.0167428
0.0167435
0.016744
0.0167444
0.0167447
0.0167449
0.016745
0.016745
0.0167449
0.0167447
0.0167444
0.016744
0.0167435
0.0167428
0.0167421
0.0167411
0.0167401
0.0167388
0.0167374
0.0167357
0.0167338
0.0167317
0.0167293
0.0167265
0.0167235
0.0167201
0.0167162
0.016712
0.0167073
0.0167021
0.0166964
0.0166902
0.0166835
0.0166762
0.0166685
0.0166603
0.0166517
0.0195575
0.0195684
0.0195787
0.0195885
0.0195976
0.0196061
0.0196139
0.0196211
0.0196276
0.0196335
0.0196389
0.0196437
0.019648
0.0196519
0.0196553
0.0196583
0.019661
0.0196634
0.0196655
0.0196673
0.0196689
0.0196703
0.0196714
0.0196724
0.0196732
0.0196739
0.0196744
0.0196748
0.019675
0.0196752
0.0196752
0.019675
0.0196748
0.0196744
0.0196739
0.0196732
0.0196724
0.0196714
0.0196703
0.0196689
0.0196673
0.0196655
0.0196634
0.019661
0.0196583
0.0196553
0.0196519
0.019648
0.0196437
0.0196389
0.0196335
0.0196276
0.0196211
0.0196139
0.0196061
0.0195976
0.0195885
0.0195787
0.0195684
0.0195575
0.0232497
0.0232632
0.023276
0.023288
0.0232994
0.0233099
0.0233195
0.0233284
0.0233364
0.0233437
0.0233504
0.0233563
0.0233616
0.0233664
0.0233707
0.0233744
0.0233778
0.0233807
0.0233833
0.0233856
0.0233875
0.0233892
0.0233906
0.0233918
0.0233929
0.0233937
0.0233943
0.0233948
0.0233951
0.0233952
0.0233952
0.0233951
0.0233948
0.0233943
0.0233937
0.0233929
0.0233918
0.0233906
0.0233892
0.0233875
0.0233856
0.0233833
0.0233807
0.0233778
0.0233744
0.0233707
0.0233664
0.0233616
0.0233563
0.0233504
0.0233437
0.0233364
0.0233284
0.0233195
0.0233099
0.0232994
0.023288
0.023276
0.0232632
0.0232497
0.0277554
0.0277717
0.027787
0.0278015
0.0278151
0.0278277
0.0278394
0.02785
0.0278597
0.0278684
0.0278764
0.0278835
0.0278899
0.0278957
0.0279008
0.0279053
0.0279093
0.0279128
0.0279159
0.0279187
0.027921
0.027923
0.0279248
0.0279262
0.0279274
0.0279284
0.0279292
0.0279297
0.0279301
0.0279303
0.0279303
0.0279301
0.0279297
0.0279292
0.0279284
0.0279274
0.0279262
0.0279248
0.027923
0.027921
0.0279187
0.0279159
0.0279128
0.0279093
0.0279053
0.0279008
0.0278957
0.0278899
0.0278835
0.0278764
0.0278684
0.0278597
0.02785
0.0278394
0.0278277
0.0278151
0.0278015
0.027787
0.0277717
0.0277554
0.0330149
0.033034
0.0330519
0.0330688
0.0330847
0.0330993
0.0331128
0.0331252
0.0331364
0.0331466
0.0331558
0.0331641
0.0331716
0.0331783
0.0331842
0.0331895
0.0331942
0.0331983
0.0332019
0.033205
0.0332078
0.0332101
0.0332121
0.0332138
0.0332152
0.0332164
0.0332173
0.0332179
0.0332184
0.0332186
0.0332186
0.0332184
0.0332179
0.0332173
0.0332164
0.0332152
0.0332138
0.0332121
0.0332101
0.0332078
0.033205
0.0332019
0.0331983
0.0331942
0.0331895
0.0331842
0.0331783
0.0331716
0.0331641
0.0331558
0.0331466
0.0331364
0.0331252
0.0331128
0.0330993
0.0330847
0.0330688
0.0330519
0.033034
0.0330149
0.0389068
0.0389285
0.0389488
0.038968
0.0389859
0.0390024
0.0390176