/*--------------------------------*- C++ -*----------------------------------*\
| =========                 |                                                 |
| \\      /  F ield         | foam-extend: Open Source CFD                    |
|  \\    /   O peration     | Version:     4.0                                |
|   \\  /    A nd           | Web:         http://www.foam-extend.org         |
|    \\/     M anipulation  |                                                 |
\*---------------------------------------------------------------------------*/
FoamFile
{
    version     2.0;
    format      ascii;
    class       volScalarField;
    location    "1910";
    object      psiE;
}
// * * * * * * * * * * * * * * * * * * * * * * * * * * * * * * * * * * * * * //

dimensions      [0 0 0 0 0 0 0];

internalField   nonuniform List<scalar> 
6960
(
0.324161
0.324161
0.324162
0.324163
0.324163
0.324164
0.324165
0.324165
0.324166
0.324167
0.324167
0.324168
0.324168
0.324169
0.324169
0.32417
0.32417
0.324171
0.324171
0.324171
0.324172
0.324172
0.324172
0.324172
0.324173
0.324173
0.324173
0.324173
0.324173
0.324173
0.324173
0.324173
0.324173
0.324173
0.324173
0.324173
0.324172
0.324172
0.324172
0.324172
0.324171
0.324171
0.324171
0.32417
0.32417
0.324169
0.324169
0.324168
0.324168
0.324167
0.324167
0.324166
0.324165
0.324165
0.324164
0.324163
0.324163
0.324162
0.324161
0.324161
0.792098
0.7921
0.792103
0.792105
0.792108
0.792111
0.792114
0.792116
0.792119
0.792121
0.792124
0.792126
0.792128
0.79213
0.792132
0.792134
0.792135
0.792137
0.792138
0.79214
0.792141
0.792142
0.792143
0.792144
0.792144
0.792145
0.792145
0.792146
0.792146
0.792146
0.792146
0.792146
0.792146
0.792145
0.792145
0.792144
0.792144
0.792143
0.792142
0.792141
0.79214
0.792138
0.792137
0.792135
0.792134
0.792132
0.79213
0.792128
0.792126
0.792124
0.792121
0.792119
0.792116
0.792114
0.792111
0.792108
0.792105
0.792103
0.7921
0.792098
1.20068
1.20068
1.20068
1.20069
1.2007
1.2007
1.20071
1.20071
1.20072
1.20072
1.20073
1.20073
1.20074
1.20074
1.20074
1.20075
1.20075
1.20075
1.20076
1.20076
1.20076
1.20076
1.20076
1.20077
1.20077
1.20077
1.20077
1.20077
1.20077
1.20077
1.20077
1.20077
1.20077
1.20077
1.20077
1.20077
1.20077
1.20076
1.20076
1.20076
1.20076
1.20076
1.20075
1.20075
1.20075
1.20074
1.20074
1.20074
1.20073
1.20073
1.20072
1.20072
1.20071
1.20071
1.2007
1.2007
1.20069
1.20068
1.20068
1.20068
1.58796
1.58797
1.58798
1.58799
1.58799
1.588
1.58801
1.58802
1.58803
1.58804
1.58804
1.58805
1.58806
1.58806
1.58807
1.58807
1.58808
1.58808
1.58809
1.58809
1.5881
1.5881
1.5881
1.5881
1.58811
1.58811
1.58811
1.58811
1.58811
1.58811
1.58811
1.58811
1.58811
1.58811
1.58811
1.58811
1.5881
1.5881
1.5881
1.5881
1.58809
1.58809
1.58808
1.58808
1.58807
1.58807
1.58806
1.58806
1.58805
1.58804
1.58804
1.58803
1.58802
1.58801
1.588
1.58799
1.58799
1.58798
1.58797
1.58796
1.97006
1.97007
1.97008
1.97009
1.9701
1.97012
1.97013
1.97014
1.97015
1.97016
1.97017
1.97018
1.97019
1.9702
1.97021
1.97022
1.97022
1.97023
1.97024
1.97024
1.97025
1.97025
1.97025
1.97026
1.97026
1.97026
1.97027
1.97027
1.97027
1.97027
1.97027
1.97027
1.97027
1.97027
1.97026
1.97026
1.97026
1.97025
1.97025
1.97025
1.97024
1.97024
1.97023
1.97022
1.97022
1.97021
1.9702
1.97019
1.97018
1.97017
1.97016
1.97015
1.97014
1.97013
1.97012
1.9701
1.97009
1.97008
1.97007
1.97006
2.3544
2.35441
2.35443
2.35444
2.35446
2.35447
2.35449
2.35451
2.35452
2.35454
2.35455
2.35456
2.35457
2.35458
2.3546
2.35461
2.35461
2.35462
2.35463
2.35464
2.35465
2.35465
2.35466
2.35466
2.35466
2.35467
2.35467
2.35467
2.35467
2.35467
2.35467
2.35467
2.35467
2.35467
2.35467
2.35466
2.35466
2.35466
2.35465
2.35465
2.35464
2.35463
2.35462
2.35461
2.35461
2.3546
2.35458
2.35457
2.35456
2.35455
2.35454
2.35452
2.35451
2.35449
2.35447
2.35446
2.35444
2.35443
2.35441
2.3544
2.74454
2.74455
2.74457
2.74459
2.74461
2.74463
2.74465
2.74467
2.74469
2.74471
2.74472
2.74474
2.74475
2.74477
2.74478
2.74479
2.74481
2.74482
2.74483
2.74483
2.74484
2.74485
2.74486
2.74486
2.74487
2.74487
2.74487
2.74488
2.74488
2.74488
2.74488
2.74488
2.74488
2.74487
2.74487
2.74487
2.74486
2.74486
2.74485
2.74484
2.74483
2.74483
2.74482
2.74481
2.74479
2.74478
2.74477
2.74475
2.74474
2.74472
2.74471
2.74469
2.74467
2.74465
2.74463
2.74461
2.74459
2.74457
2.74455
2.74454
3.14219
3.14221
3.14223
3.14225
3.14228
3.1423
3.14233
3.14235
3.14237
3.1424
3.14242
3.14244
3.14245
3.14247
3.14249
3.1425
3.14252
3.14253
3.14254
3.14255
3.14256
3.14257
3.14258
3.14258
3.14259
3.14259
3.1426
3.1426
3.1426
3.1426
3.1426
3.1426
3.1426
3.1426
3.14259
3.14259
3.14258
3.14258
3.14257
3.14256
3.14255
3.14254
3.14253
3.14252
3.1425
3.14249
3.14247
3.14245
3.14244
3.14242
3.1424
3.14237
3.14235
3.14233
3.1423
3.14228
3.14225
3.14223
3.14221
3.14219
3.54821
3.54823
3.54825
3.54828
3.54831
3.54834
3.54837
3.5484
3.54842
3.54845
3.54847
3.54849
3.54852
3.54854
3.54855
3.54857
3.54859
3.5486
3.54862
3.54863
3.54864
3.54865
3.54866
3.54867
3.54868
3.54868
3.54869
3.54869
3.54869
3.54869
3.54869
3.54869
3.54869
3.54869
3.54868
3.54868
3.54867
3.54866
3.54865
3.54864
3.54863
3.54862
3.5486
3.54859
3.54857
3.54855
3.54854
3.54852
3.54849
3.54847
3.54845
3.54842
3.5484
3.54837
3.54834
3.54831
3.54828
3.54825
3.54823
3.54821
3.963
3.96303
3.96306
3.96309
3.96313
3.96316
3.96319
3.96322
3.96325
3.96328
3.96331
3.96334
3.96336
3.96338
3.9634
3.96343
3.96344
3.96346
3.96348
3.96349
3.96351
3.96352
3.96353
3.96354
3.96354
3.96355
3.96356
3.96356
3.96356
3.96356
3.96356
3.96356
3.96356
3.96356
3.96355
3.96354
3.96354
3.96353
3.96352
3.96351
3.96349
3.96348
3.96346
3.96344
3.96343
3.9634
3.96338
3.96336
3.96334
3.96331
3.96328
3.96325
3.96322
3.96319
3.96316
3.96313
3.96309
3.96306
3.96303
3.963
4.3868
4.38682
4.38686
4.3869
4.38694
4.38697
4.38701
4.38705
4.38708
4.38711
4.38714
4.38717
4.3872
4.38723
4.38725
4.38728
4.3873
4.38732
4.38733
4.38735
4.38737
4.38738
4.38739
4.3874
4.38741
4.38742
4.38742
4.38743
4.38743
4.38743
4.38743
4.38743
4.38743
4.38742
4.38742
4.38741
4.3874
4.38739
4.38738
4.38737
4.38735
4.38733
4.38732
4.3873
4.38728
4.38725
4.38723
4.3872
4.38717
4.38714
4.38711
4.38708
4.38705
4.38701
4.38697
4.38694
4.3869
4.38686
4.38682
4.3868
4.8197
4.81973
4.81977
4.81981
4.81986
4.8199
4.81994
4.81998
4.82002
4.82006
4.82009
4.82012
4.82015
4.82018
4.82021
4.82024
4.82026
4.82028
4.8203
4.82032
4.82034
4.82035
4.82037
4.82038
4.82039
4.8204
4.8204
4.82041
4.82041
4.82041
4.82041
4.82041
4.82041
4.8204
4.8204
4.82039
4.82038
4.82037
4.82035
4.82034
4.82032
4.8203
4.82028
4.82026
4.82024
4.82021
4.82018
4.82015
4.82012
4.82009
4.82006
4.82002
4.81998
4.81994
4.8199
4.81986
4.81981
4.81977
4.81973
4.8197
5.26177
5.26181
5.26185
5.2619
5.26194
5.26199
5.26204
5.26208
5.26212
5.26216
5.2622
5.26224
5.26227
5.26231
5.26234
5.26237
5.26239
5.26242
5.26244
5.26246
5.26248
5.26249
5.26251
5.26252
5.26253
5.26254
5.26255
5.26255
5.26256
5.26256
5.26256
5.26256
5.26255
5.26255
5.26254
5.26253
5.26252
5.26251
5.26249
5.26248
5.26246
5.26244
5.26242
5.26239
5.26237
5.26234
5.26231
5.26227
5.26224
5.2622
5.26216
5.26212
5.26208
5.26204
5.26199
5.26194
5.2619
5.26185
5.26181
5.26177
5.71303
5.71307
5.71312
5.71317
5.71322
5.71327
5.71332
5.71337
5.71342
5.71346
5.71351
5.71355
5.71358
5.71362
5.71365
5.71368
5.71371
5.71374
5.71376
5.71379
5.71381
5.71383
5.71384
5.71386
5.71387
5.71388
5.71388
5.71389
5.71389
5.7139
5.7139
5.71389
5.71389
5.71388
5.71388
5.71387
5.71386
5.71384
5.71383
5.71381
5.71379
5.71376
5.71374
5.71371
5.71368
5.71365
5.71362
5.71358
5.71355
5.71351
5.71346
5.71342
5.71337
5.71332
5.71327
5.71322
5.71317
5.71312
5.71307
5.71303
6.17348
6.17352
6.17357
6.17363
6.17368
6.17374
6.17379
6.17385
6.1739
6.17395
6.17399
6.17404
6.17408
6.17412
6.17415
6.17419
6.17422
6.17425
6.17427
6.1743
6.17432
6.17434
6.17436
6.17437
6.17439
6.1744
6.17441
6.17441
6.17442
6.17442
6.17442
6.17442
6.17441
6.17441
6.1744
6.17439
6.17437
6.17436
6.17434
6.17432
6.1743
6.17427
6.17425
6.17422
6.17419
6.17415
6.17412
6.17408
6.17404
6.17399
6.17395
6.1739
6.17385
6.17379
6.17374
6.17368
6.17363
6.17357
6.17352
6.17348
6.64308
6.64312
6.64317
6.64323
6.6433
6.64336
6.64342
6.64347
6.64353
6.64358
6.64363
6.64368
6.64372
6.64377
6.64381
6.64384
6.64388
6.64391
6.64394
6.64396
6.64399
6.64401
6.64403
6.64405
6.64406
6.64407
6.64408
6.64409
6.64409
6.64409
6.64409
6.64409
6.64409
6.64408
6.64407
6.64406
6.64405
6.64403
6.64401
6.64399
6.64396
6.64394
6.64391
6.64388
6.64384
6.64381
6.64377
6.64372
6.64368
6.64363
6.64358
6.64353
6.64347
6.64342
6.64336
6.6433
6.64323
6.64317
6.64312
6.64308
7.12177
7.12181
7.12187
7.12194
7.12201
7.12207
7.12214
7.1222
7.12226
7.12231
7.12237
7.12242
7.12247
7.12251
7.12256
7.12259
7.12263
7.12267
7.1227
7.12273
7.12275
7.12277
7.12279
7.12281
7.12283
7.12284
7.12285
7.12286
7.12286
7.12287
7.12287
7.12286
7.12286
7.12285
7.12284
7.12283
7.12281
7.12279
7.12277
7.12275
7.12273
7.1227
7.12267
7.12263
7.12259
7.12256
7.12251
7.12247
7.12242
7.12237
7.12231
7.12226
7.1222
7.12214
7.12207
7.12201
7.12194
7.12187
7.12181
7.12177
7.60947
7.60952
7.60958
7.60965
7.60973
7.6098
7.60987
7.60993
7.61
7.61006
7.61011
7.61017
7.61022
7.61027
7.61031
7.61036
7.6104
7.61043
7.61047
7.6105
7.61052
7.61055
7.61057
7.61059
7.61061
7.61062
7.61063
7.61064
7.61064
7.61065
7.61065
7.61064
7.61064
7.61063
7.61062
7.61061
7.61059
7.61057
7.61055
7.61052
7.6105
7.61047
7.61043
7.6104
7.61036
7.61031
7.61027
7.61022
7.61017
7.61011
7.61006
7.61
7.60993
7.60987
7.6098
7.60973
7.60965
7.60958
7.60952
7.60947
8.10607
8.10612
8.10619
8.10626
8.10634
8.10641
8.10649
8.10656
8.10663
8.10669
8.10675
8.10681
8.10686
8.10692
8.10697
8.10701
8.10705
8.10709
8.10713
8.10716
8.10719
8.10722
8.10724
8.10726
8.10728
8.10729
8.1073
8.10731
8.10732
8.10732
8.10732
8.10732
8.10731
8.1073
8.10729
8.10728
8.10726
8.10724
8.10722
8.10719
8.10716
8.10713
8.10709
8.10705
8.10701
8.10697
8.10692
8.10686
8.10681
8.10675
8.10669
8.10663
8.10656
8.10649
8.10641
8.10634
8.10626
8.10619
8.10612
8.10607
8.6114
8.61146
8.61153
8.61161
8.61169
8.61177
8.61185
8.61192
8.61199
8.61206
8.61213
8.61219
8.61225
8.6123
8.61236
8.6124
8.61245
8.61249
8.61253
8.61256
8.61259
8.61262
8.61265
8.61267
8.61269
8.6127
8.61271
8.61272
8.61273
8.61273
8.61273
8.61273
8.61272
8.61271
8.6127
8.61269
8.61267
8.61265
8.61262
8.61259
8.61256
8.61253
8.61249
8.61245
8.6124
8.61236
8.6123
8.61225
8.61219
8.61213
8.61206
8.61199
8.61192
8.61185
8.61177
8.61169
8.61161
8.61153
8.61146
8.6114
9.12528
9.12534
9.12542
9.1255
9.12559
9.12567
9.12575
9.12583
9.12591
9.12598
9.12605
9.12612
9.12618
9.12624
9.12629
9.12634
9.12639
9.12643
9.12648
9.12651
9.12655
9.12657
9.1266
9.12662
9.12664
9.12666
9.12667
9.12668
9.12669
9.12669
9.12669
9.12669
9.12668
9.12667
9.12666
9.12664
9.12662
9.1266
9.12657
9.12655
9.12651
9.12648
9.12643
9.12639
9.12634
9.12629
9.12624
9.12618
9.12612
9.12605
9.12598
9.12591
9.12583
9.12575
9.12567
9.12559
9.1255
9.12542
9.12534
9.12528
9.64748
9.64753
9.64762
9.6477
9.6478
9.64788
9.64797
9.64806
9.64814
9.64821
9.64829
9.64835
9.64842
9.64848
9.64854
9.64859
9.64864
9.64869
9.64873
9.64877
9.64881
9.64884
9.64887
9.64889
9.64891
9.64893
9.64894
9.64895
9.64896
9.64896
9.64896
9.64896
9.64895
9.64894
9.64893
9.64891
9.64889
9.64887
9.64884
9.64881
9.64877
9.64873
9.64869
9.64864
9.64859
9.64854
9.64848
9.64842
9.64835
9.64829
9.64821
9.64814
9.64806
9.64797
9.64788
9.6478
9.6477
9.64762
9.64753
9.64748
10.1777
10.1778
10.1778
10.1779
10.178
10.1781
10.1782
10.1783
10.1784
10.1785
10.1785
10.1786
10.1787
10.1788
10.1788
10.1789
10.1789
10.179
10.179
10.1791
10.1791
10.1791
10.1792
10.1792
10.1792
10.1792
10.1792
10.1792
10.1793
10.1793
10.1793
10.1793
10.1792
10.1792
10.1792
10.1792
10.1792
10.1792
10.1791
10.1791
10.1791
10.179
10.179
10.1789
10.1789
10.1788
10.1788
10.1787
10.1786
10.1785
10.1785
10.1784
10.1783
10.1782
10.1781
10.178
10.1779
10.1778
10.1778
10.1777
10.7156
10.7157
10.7157
10.7158
10.7159
10.716
10.7161
10.7162
10.7163
10.7164
10.7165
10.7166
10.7166
10.7167
10.7168
10.7168
10.7169
10.7169
10.717
10.717
10.7171
10.7171
10.7171
10.7172
10.7172
10.7172
10.7172
10.7172
10.7172
10.7172
10.7172
10.7172
10.7172
10.7172
10.7172
10.7172
10.7172
10.7171
10.7171
10.7171
10.717
10.717
10.7169
10.7169
10.7168
10.7168
10.7167
10.7166
10.7166
10.7165
10.7164
10.7163
10.7162
10.7161
10.716
10.7159
10.7158
10.7157
10.7157
10.7156
11.2608
11.2608
11.2609
11.261
11.2611
11.2612
11.2613
11.2614
11.2615
11.2616
11.2617
11.2618
11.2619
11.2619
11.262
11.2621
11.2621
11.2622
11.2622
11.2623
11.2623
11.2623
11.2624
11.2624
11.2624
11.2625
11.2625
11.2625
11.2625
11.2625
11.2625
11.2625
11.2625
11.2625
11.2625
11.2624
11.2624
11.2624
11.2623
11.2623
11.2623
11.2622
11.2622
11.2621
11.2621
11.262
11.2619
11.2619
11.2618
11.2617
11.2616
11.2615
11.2614
11.2613
11.2612
11.2611
11.261
11.2609
11.2608
11.2608
11.8128
11.8128
11.8129
11.813
11.8132
11.8133
11.8134
11.8135
11.8136
11.8137
11.8137
11.8138
11.8139
11.814
11.814
11.8141
11.8142
11.8142
11.8143
11.8143
11.8144
11.8144
11.8144
11.8145
11.8145
11.8145
11.8145
11.8145
11.8146
11.8146
11.8146
11.8146
11.8145
11.8145
11.8145
11.8145
11.8145
11.8144
11.8144
11.8144
11.8143
11.8143
11.8142
11.8142
11.8141
11.814
11.814
11.8139
11.8138
11.8137
11.8137
11.8136
11.8135
11.8134
11.8133
11.8132
11.813
11.8129
11.8128
11.8128
12.371
12.3711
12.3712
12.3713
12.3714
12.3715
12.3716
12.3717
12.3718
12.3719
12.372
12.3721
12.3722
12.3723
12.3724
12.3724
12.3725
12.3725
12.3726
12.3726
12.3727
12.3727
12.3728
12.3728
12.3728
12.3728
12.3729
12.3729
12.3729
12.3729
12.3729
12.3729
12.3729
12.3729
12.3728
12.3728
12.3728
12.3728
12.3727
12.3727
12.3726
12.3726
12.3725
12.3725
12.3724
12.3724
12.3723
12.3722
12.3721
12.372
12.3719
12.3718
12.3717
12.3716
12.3715
12.3714
12.3713
12.3712
12.3711
12.371
12.9349
12.935
12.9351
12.9352
12.9353
12.9354
12.9355
12.9356
12.9358
12.9359
12.9359
12.936
12.9361
12.9362
12.9363
12.9363
12.9364
12.9365
12.9365
12.9366
12.9366
12.9367
12.9367
12.9367
12.9368
12.9368
12.9368
12.9368
12.9368
12.9368
12.9368
12.9368
12.9368
12.9368
12.9368
12.9368
12.9367
12.9367
12.9367
12.9366
12.9366
12.9365
12.9365
12.9364
12.9363
12.9363
12.9362
12.9361
12.936
12.9359
12.9359
12.9358
12.9356
12.9355
12.9354
12.9353
12.9352
12.9351
12.935
12.9349
13.5037
13.5037
13.5038
13.504
13.5041
13.5042
13.5043
13.5044
13.5045
13.5046
13.5047
13.5048
13.5049
13.505
13.5051
13.5052
13.5052
13.5053
13.5053
13.5054
13.5054
13.5055
13.5055
13.5055
13.5056
13.5056
13.5056
13.5056
13.5056
13.5056
13.5056
13.5056
13.5056
13.5056
13.5056
13.5056
13.5055
13.5055
13.5055
13.5054
13.5054
13.5053
13.5053
13.5052
13.5052
13.5051
13.505
13.5049
13.5048
13.5047
13.5046
13.5045
13.5044
13.5043
13.5042
13.5041
13.504
13.5038
13.5037
13.5037
14.0764
14.0765
14.0766
14.0768
14.0769
14.077
14.0771
14.0772
14.0773
14.0775
14.0776
14.0777
14.0777
14.0778
14.0779
14.078
14.0781
14.0781
14.0782
14.0782
14.0783
14.0783
14.0784
14.0784
14.0784
14.0784
14.0785
14.0785
14.0785
14.0785
14.0785
14.0785
14.0785
14.0785
14.0784
14.0784
14.0784
14.0784
14.0783
14.0783
14.0782
14.0782
14.0781
14.0781
14.078
14.0779
14.0778
14.0777
14.0777
14.0776
14.0775
14.0773
14.0772
14.0771
14.077
14.0769
14.0768
14.0766
14.0765
14.0764
14.6523
14.6524
14.6525
14.6526
14.6527
14.6529
14.653
14.6531
14.6532
14.6533
14.6534
14.6535
14.6536
14.6537
14.6538
14.6539
14.6539
14.654
14.6541
14.6541
14.6542
14.6542
14.6542
14.6543
14.6543
14.6543
14.6544
14.6544
14.6544
14.6544
14.6544
14.6544
14.6544
14.6544
14.6543
14.6543
14.6543
14.6542
14.6542
14.6542
14.6541
14.6541
14.654
14.6539
14.6539
14.6538
14.6537
14.6536
14.6535
14.6534
14.6533
14.6532
14.6531
14.653
14.6529
14.6527
14.6526
14.6525
14.6524
14.6523
15.23
15.2301
15.2302
15.2304
15.2305
15.2306
15.2307
15.2309
15.231
15.2311
15.2312
15.2313
15.2314
15.2315
15.2316
15.2316
15.2317
15.2318
15.2318
15.2319
15.232
15.232
15.232
15.2321
15.2321
15.2321
15.2322
15.2322
15.2322
15.2322
15.2322
15.2322
15.2322
15.2322
15.2321
15.2321
15.2321
15.232
15.232
15.232
15.2319
15.2318
15.2318
15.2317
15.2316
15.2316
15.2315
15.2314
15.2313
15.2312
15.2311
15.231
15.2309
15.2307
15.2306
15.2305
15.2304
15.2302
15.2301
15.23
15.8084
15.8085
15.8086
15.8087
15.8089
15.809
15.8091
15.8092
15.8094
15.8095
15.8096
15.8097
15.8098
15.8099
15.81
15.81
15.8101
15.8102
15.8103
15.8103
15.8104
15.8104
15.8104
15.8105
15.8105
15.8105
15.8106
15.8106
15.8106
15.8106
15.8106
15.8106
15.8106
15.8106
15.8105
15.8105
15.8105
15.8104
15.8104
15.8104
15.8103
15.8103
15.8102
15.8101
15.81
15.81
15.8099
15.8098
15.8097
15.8096
15.8095
15.8094
15.8092
15.8091
15.809
15.8089
15.8087
15.8086
15.8085
15.8084
16.3859
16.386
16.3861
16.3862
16.3863
16.3865
16.3866
16.3867
16.3869
16.387
16.3871
16.3872
16.3873
16.3874
16.3875
16.3876
16.3876
16.3877
16.3878
16.3878
16.3879
16.3879
16.388
16.388
16.388
16.3881
16.3881
16.3881
16.3881
16.3881
16.3881
16.3881
16.3881
16.3881
16.3881
16.388
16.388
16.388
16.3879
16.3879
16.3878
16.3878
16.3877
16.3876
16.3876
16.3875
16.3874
16.3873
16.3872
16.3871
16.387
16.3869
16.3867
16.3866
16.3865
16.3863
16.3862
16.3861
16.386
16.3859
16.9607
16.9608
16.9609
16.9611
16.9612
16.9614
16.9615
16.9616
16.9617
16.9619
16.962
16.9621
16.9622
16.9623
16.9624
16.9624
16.9625
16.9626
16.9627
16.9627
16.9628
16.9628
16.9629
16.9629
16.9629
16.963
16.963
16.963
16.963
16.963
16.963
16.963
16.963
16.963
16.963
16.9629
16.9629
16.9629
16.9628
16.9628
16.9627
16.9627
16.9626
16.9625
16.9624
16.9624
16.9623
16.9622
16.9621
16.962
16.9619
16.9617
16.9616
16.9615
16.9614
16.9612
16.9611
16.9609
16.9608
16.9607
17.531
17.5311
17.5312
17.5313
17.5315
17.5316
17.5317
17.5319
17.532
17.5321
17.5322
17.5323
17.5324
17.5325
17.5326
17.5327
17.5328
17.5328
17.5329
17.533
17.533
17.5331
17.5331
17.5332
17.5332
17.5332
17.5332
17.5333
17.5333
17.5333
17.5333
17.5333
17.5333
17.5332
17.5332
17.5332
17.5332
17.5331
17.5331
17.533
17.533
17.5329
17.5328
17.5328
17.5327
17.5326
17.5325
17.5324
17.5323
17.5322
17.5321
17.532
17.5319
17.5317
17.5316
17.5315
17.5313
17.5312
17.5311
17.531
18.0943
18.0944
18.0945
18.0946
18.0948
18.0949
18.095
18.0952
18.0953
18.0954
18.0955
18.0956
18.0957
18.0958
18.0959
18.096
18.0961
18.0962
18.0962
18.0963
18.0963
18.0964
18.0964
18.0965
18.0965
18.0965
18.0965
18.0966
18.0966
18.0966
18.0966
18.0966
18.0966
18.0965
18.0965
18.0965
18.0965
18.0964
18.0964
18.0963
18.0963
18.0962
18.0962
18.0961
18.096
18.0959
18.0958
18.0957
18.0956
18.0955
18.0954
18.0953
18.0952
18.095
18.0949
18.0948
18.0946
18.0945
18.0944
18.0943
18.6479
18.648
18.6481
18.6483
18.6484
18.6486
18.6487
18.6488
18.6489
18.6491
18.6492
18.6493
18.6494
18.6495
18.6496
18.6496
18.6497
18.6498
18.6499
18.6499
18.65
18.65
18.6501
18.6501
18.6501
18.6502
18.6502
18.6502
18.6502
18.6502
18.6502
18.6502
18.6502
18.6502
18.6502
18.6501
18.6501
18.6501
18.65
18.65
18.6499
18.6499
18.6498
18.6497
18.6496
18.6496
18.6495
18.6494
18.6493
18.6492
18.6491
18.6489
18.6488
18.6487
18.6486
18.6484
18.6483
18.6481
18.648
18.6479
19.1887
19.1888
19.1889
19.1891
19.1892
19.1893
19.1895
19.1896
19.1897
19.1898
19.19
19.1901
19.1902
19.1903
19.1903
19.1904
19.1905
19.1906
19.1906
19.1907
19.1908
19.1908
19.1908
19.1909
19.1909
19.1909
19.191
19.191
19.191
19.191
19.191
19.191
19.191
19.191
19.1909
19.1909
19.1909
19.1908
19.1908
19.1908
19.1907
19.1906
19.1906
19.1905
19.1904
19.1903
19.1903
19.1902
19.1901
19.19
19.1898
19.1897
19.1896
19.1895
19.1893
19.1892
19.1891
19.1889
19.1888
19.1887
19.7129
19.713
19.7131
19.7133
19.7134
19.7135
19.7137
19.7138
19.7139
19.714
19.7141
19.7142
19.7143
19.7144
19.7145
19.7146
19.7147
19.7147
19.7148
19.7149
19.7149
19.715
19.715
19.715
19.7151
19.7151
19.7151
19.7151
19.7152
19.7152
19.7152
19.7152
19.7151
19.7151
19.7151
19.7151
19.715
19.715
19.715
19.7149
19.7149
19.7148
19.7147
19.7147
19.7146
19.7145
19.7144
19.7143
19.7142
19.7141
19.714
19.7139
19.7138
19.7137
19.7135
19.7134
19.7133
19.7131
19.713
19.7129
20.2161
20.2162
20.2163
20.2164
20.2165
20.2167
20.2168
20.2169
20.217
20.2171
20.2172
20.2173
20.2174
20.2175
20.2176
20.2177
20.2178
20.2178
20.2179
20.218
20.218
20.2181
20.2181
20.2181
20.2182
20.2182
20.2182
20.2182
20.2182
20.2182
20.2182
20.2182
20.2182
20.2182
20.2182
20.2182
20.2181
20.2181
20.2181
20.218
20.218
20.2179
20.2178
20.2178
20.2177
20.2176
20.2175
20.2174
20.2173
20.2172
20.2171
20.217
20.2169
20.2168
20.2167
20.2165
20.2164
20.2163
20.2162
20.2161
20.693
20.693
20.6932
20.6933
20.6934
20.6935
20.6936
20.6937
20.6939
20.694
20.6941
20.6942
20.6943
20.6943
20.6944
20.6945
20.6946
20.6946
20.6947
20.6948
20.6948
20.6948
20.6949
20.6949
20.695
20.695
20.695
20.695
20.695
20.695
20.695
20.695
20.695
20.695
20.695
20.695
20.6949
20.6949
20.6948
20.6948
20.6948
20.6947
20.6946
20.6946
20.6945
20.6944
20.6943
20.6943
20.6942
20.6941
20.694
20.6939
20.6937
20.6936
20.6935
20.6934
20.6933
20.6932
20.693
20.693
21.1375
21.1376
21.1377
21.1378
21.1379
21.138
21.1381
21.1382
21.1383
21.1384
21.1385
21.1386
21.1387
21.1388
21.1389
21.1389
21.139
21.1391
21.1391
21.1392
21.1392
21.1393
21.1393
21.1393
21.1394
21.1394
21.1394
21.1394
21.1394
21.1394
21.1394
21.1394
21.1394
21.1394
21.1394
21.1394
21.1393
21.1393
21.1393
21.1392
21.1392
21.1391
21.1391
21.139
21.1389
21.1389
21.1388
21.1387
21.1386
21.1385
21.1384
21.1383
21.1382
21.1381
21.138
21.1379
21.1378
21.1377
21.1376
21.1375
21.5431
21.5432
21.5433
21.5434
21.5435
21.5436
21.5437
21.5438
21.5439
21.544
21.5441
21.5442
21.5442
21.5443
21.5444
21.5445
21.5445
21.5446
21.5446
21.5447
21.5447
21.5448
21.5448
21.5448
21.5449
21.5449
21.5449
21.5449
21.5449
21.5449
21.5449
21.5449
21.5449
21.5449
21.5449
21.5449
21.5448
21.5448
21.5448
21.5447
21.5447
21.5446
21.5446
21.5445
21.5445
21.5444
21.5443
21.5442
21.5442
21.5441
21.544
21.5439
21.5438
21.5437
21.5436
21.5435
21.5434
21.5433
21.5432
21.5431
21.9035
21.9036
21.9037
21.9037
21.9038
21.9039
21.904
21.9041
21.9042
21.9043
21.9043
21.9044
21.9045
21.9046
21.9046
21.9047
21.9047
21.9048
21.9048
21.9049
21.9049
21.905
21.905
21.905
21.905
21.9051
21.9051
21.9051
21.9051
21.9051
21.9051
21.9051
21.9051
21.9051
21.9051
21.905
21.905
21.905
21.905
21.9049
21.9049
21.9048
21.9048
21.9047
21.9047
21.9046
21.9046
21.9045
21.9044
21.9043
21.9043
21.9042
21.9041
21.904
21.9039
21.9038
21.9037
21.9037
21.9036
21.9035
22.2139
22.2139
22.214
22.2141
22.2141
22.2142
22.2143
22.2144
22.2144
22.2145
22.2146
22.2146
22.2147
22.2148
22.2148
22.2149
22.2149
22.215
22.215
22.2151
22.2151
22.2151
22.2152
22.2152
22.2152
22.2152
22.2152
22.2152
22.2152
22.2152
22.2152
22.2152
22.2152
22.2152
22.2152
22.2152
22.2152
22.2152
22.2151
22.2151
22.2151
22.215
22.215
22.2149
22.2149
22.2148
22.2148
22.2147
22.2146
22.2146
22.2145
22.2144
22.2144
22.2143
22.2142
22.2141
22.2141
22.214
22.2139
22.2139
22.4728
22.4728
22.4729
22.473
22.473
22.4731
22.4731
22.4732
22.4733
22.4733
22.4734
22.4734
22.4735
22.4735
22.4736
22.4736
22.4737
22.4737
22.4738
22.4738
22.4738
22.4738
22.4739
22.4739
22.4739
22.4739
22.4739
22.4739
22.4739
22.474
22.474
22.4739
22.4739
22.4739
22.4739
22.4739
22.4739
22.4739
22.4738
22.4738
22.4738
22.4738
22.4737
22.4737
22.4736
22.4736
22.4735
22.4735
22.4734
22.4734
22.4733
22.4733
22.4732
22.4731
22.4731
22.473
22.473
22.4729
22.4728
22.4728
22.6831
22.6832
22.6832
22.6832
22.6833
22.6833
22.6834
22.6834
22.6835
22.6835
22.6836
22.6836
22.6837
22.6837
22.6838
22.6838
22.6838
22.6839
22.6839
22.6839
22.684
22.684
22.684
22.684
22.684
22.6841
22.6841
22.6841
22.6841
22.6841
22.6841
22.6841
22.6841
22.6841
22.6841
22.684
22.684
22.684
22.684
22.684
22.6839
22.6839
22.6839
22.6838
22.6838
22.6838
22.6837
22.6837
22.6836
22.6836
22.6835
22.6835
22.6834
22.6834
22.6833
22.6833
22.6832
22.6832
22.6832
22.6831
22.8515
22.8515
22.8516
22.8516
22.8516
22.8517
22.8517
22.8517
22.8518
22.8518
22.8519
22.8519
22.8519
22.852
22.852
22.8521
22.8521
22.8521
22.8521
22.8522
22.8522
22.8522
22.8522
22.8522
22.8523
22.8523
22.8523
22.8523
22.8523
22.8523
22.8523
22.8523
22.8523
22.8523
22.8523
22.8523
22.8522
22.8522
22.8522
22.8522
22.8522
22.8521
22.8521
22.8521
22.8521
22.852
22.852
22.8519
22.8519
22.8519
22.8518
22.8518
22.8517
22.8517
22.8517
22.8516
22.8516
22.8516
22.8515
22.8515
22.9865
22.9865
22.9866
22.9866
22.9866
22.9867
22.9867
22.9867
22.9868
22.9868
22.9868
22.9869
22.9869
22.9869
22.987
22.987
22.987
22.987
22.9871
22.9871
22.9871
22.9871
22.9872
22.9872
22.9872
22.9872
22.9872
22.9872
22.9872
22.9872
22.9872
22.9872
22.9872
22.9872
22.9872
22.9872
22.9872
22.9872
22.9871
22.9871
22.9871
22.9871
22.987
22.987
22.987
22.987
22.9869
22.9869
22.9869
22.9868
22.9868
22.9868
22.9867
22.9867
22.9867
22.9866
22.9866
22.9866
22.9865
22.9865
23.0966
23.0967
23.0967
23.0967
23.0967
23.0967
23.0968
23.0968
23.0968
23.0969
23.0969
23.0969
23.097
23.097
23.097
23.097
23.0971
23.0971
23.0971
23.0971
23.0972
23.0972
23.0972
23.0972
23.0972
23.0972
23.0972
23.0972
23.0972
23.0972
23.0972
23.0972
23.0972
23.0972
23.0972
23.0972
23.0972
23.0972
23.0972
23.0972
23.0971
23.0971
23.0971
23.0971
23.097
23.097
23.097
23.097
23.0969
23.0969
23.0969
23.0968
23.0968
23.0968
23.0967
23.0967
23.0967
23.0967
23.0967
23.0966
23.1888
23.1888
23.1888
23.1888
23.1888
23.1889
23.1889
23.1889
23.1889
23.189
23.189
23.189
23.1891
23.1891
23.1891
23.1891
23.1892
23.1892
23.1892
23.1892
23.1893
23.1893
23.1893
23.1893
23.1893
23.1893
23.1893
23.1893
23.1893
23.1893
23.1893
23.1893
23.1893
23.1893
23.1893
23.1893
23.1893
23.1893
23.1893
23.1893
23.1892
23.1892
23.1892
23.1892
23.1891
23.1891
23.1891
23.1891
23.189
23.189
23.189
23.1889
23.1889
23.1889
23.1889
23.1888
23.1888
23.1888
23.1888
23.1888
23.268
23.268
23.268
23.268
23.2681
23.2681
23.2681
23.2681
23.2682
23.2682
23.2682
23.2682
23.2683
23.2683
23.2683
23.2683
23.2684
23.2684
23.2684
23.2684
23.2685
23.2685
23.2685
23.2685
23.2685
23.2685
23.2685
23.2685
23.2685
23.2685
23.2685
23.2685
23.2685
23.2685
23.2685
23.2685
23.2685
23.2685
23.2685
23.2685
23.2684
23.2684
23.2684
23.2684
23.2683
23.2683
23.2683
23.2683
23.2682
23.2682
23.2682
23.2682
23.2681
23.2681
23.2681
23.2681
23.268
23.268
23.268
23.268
23.3378
23.3378
23.3378
23.3378
23.3378
23.3378
23.3379
23.3379
23.3379
23.3379
23.338
23.338
23.338
23.338
23.3381
23.3381
23.3381
23.3381
23.3382
23.3382
23.3382
23.3382
23.3382
23.3383
23.3383
23.3383
23.3383
23.3383
23.3383
23.3383
23.3383
23.3383
23.3383
23.3383
23.3383
23.3383
23.3383
23.3382
23.3382
23.3382
23.3382
23.3382
23.3381
23.3381
23.3381
23.3381
23.338
23.338
23.338
23.338
23.3379
23.3379
23.3379
23.3379
23.3378
23.3378
23.3378
23.3378
23.3378
23.3378
23.4004
23.4004
23.4004
23.4004
23.4004
23.4004
23.4005
23.4005
23.4005
23.4005
23.4006
23.4006
23.4006
23.4006
23.4007
23.4007
23.4007
23.4007
23.4008
23.4008
23.4008
23.4008
23.4008
23.4009
23.4009
23.4009
23.4009
23.4009
23.4009
23.4009
23.4009
23.4009
23.4009
23.4009
23.4009
23.4009
23.4009
23.4008
23.4008
23.4008
23.4008
23.4008
23.4007
23.4007
23.4007
23.4007
23.4006
23.4006
23.4006
23.4006
23.4005
23.4005
23.4005
23.4005
23.4004
23.4004
23.4004
23.4004
23.4004
23.4004
23.4574
23.4574
23.4574
23.4574
23.4574
23.4574
23.4575
23.4575
23.4575
23.4575
23.4576
23.4576
23.4576
23.4576
23.4577
23.4577
23.4577
23.4577
23.4578
23.4578
23.4578
23.4578
23.4578
23.4579
23.4579
23.4579
23.4579
23.4579
23.4579
23.4579
23.4579
23.4579
23.4579
23.4579
23.4579
23.4579
23.4579
23.4578
23.4578
23.4578
23.4578
23.4578
23.4577
23.4577
23.4577
23.4577
23.4576
23.4576
23.4576
23.4576
23.4575
23.4575
23.4575
23.4575
23.4574
23.4574
23.4574
23.4574
23.4574
23.4574
23.5099
23.5099
23.5099
23.5099
23.5099
23.5099
23.5099
23.51
23.51
23.51
23.51
23.5101
23.5101
23.5101
23.5102
23.5102
23.5102
23.5102
23.5102
23.5103
23.5103
23.5103
23.5103
23.5103
23.5103
23.5104
23.5104
23.5104
23.5104
23.5104
23.5104
23.5104
23.5104
23.5104
23.5104
23.5103
23.5103
23.5103
23.5103
23.5103
23.5103
23.5102
23.5102
23.5102
23.5102
23.5102
23.5101
23.5101
23.5101
23.51
23.51
23.51
23.51
23.5099
23.5099
23.5099
23.5099
23.5099
23.5099
23.5099
23.5586
23.5586
23.5586
23.5586
23.5586
23.5587
23.5587
23.5587
23.5587
23.5588
23.5588
23.5588
23.5588
23.5589
23.5589
23.5589
23.5589
23.559
23.559
23.559
23.559
23.5591
23.5591
23.5591
23.5591
23.5591
23.5591
23.5591
23.5591
23.5591
23.5591
23.5591
23.5591
23.5591
23.5591
23.5591
23.5591
23.5591
23.5591
23.559
23.559
23.559
23.559
23.5589
23.5589
23.5589
23.5589
23.5588
23.5588
23.5588
23.5588
23.5587
23.5587
23.5587
23.5587
23.5586
23.5586
23.5586
23.5586
23.5586
23.6042
23.6042
23.6042
23.6042
23.6042
23.6042
23.6043
23.6043
23.6043
23.6043
23.6044
23.6044
23.6044
23.6045
23.6045
23.6045
23.6046
23.6046
23.6046
23.6046
23.6046
23.6047
23.6047
23.6047
23.6047
23.6047
23.6047
23.6047
23.6047
23.6047
23.6047
23.6047
23.6047
23.6047
23.6047
23.6047
23.6047
23.6047
23.6047
23.6046
23.6046
23.6046
23.6046
23.6046
23.6045
23.6045
23.6045
23.6044
23.6044
23.6044
23.6043
23.6043
23.6043
23.6043
23.6042
23.6042
23.6042
23.6042
23.6042
23.6042
23.6471
23.6471
23.6471
23.6471
23.6471
23.6472
23.6472
23.6472
23.6472
23.6473
23.6473
23.6473
23.6474
23.6474
23.6474
23.6474
23.6475
23.6475
23.6475
23.6475
23.6476
23.6476
23.6476
23.6476
23.6476
23.6476
23.6476
23.6477
23.6477
23.6477
23.6477
23.6477
23.6477
23.6476
23.6476
23.6476
23.6476
23.6476
23.6476
23.6476
23.6475
23.6475
23.6475
23.6475
23.6474
23.6474
23.6474
23.6474
23.6473
23.6473
23.6473
23.6472
23.6472
23.6472
23.6472
23.6471
23.6471
23.6471
23.6471
23.6471
23.6877
23.6877
23.6877
23.6877
23.6877
23.6878
23.6878
23.6878
23.6878
23.6879
23.6879
23.6879
23.688
23.688
23.688
23.688
23.6881
23.6881
23.6881
23.6881
23.6882
23.6882
23.6882
23.6882
23.6882
23.6882
23.6883
23.6883
23.6883
23.6883
23.6883
23.6883
23.6883
23.6883
23.6882
23.6882
23.6882
23.6882
23.6882
23.6882
23.6881
23.6881
23.6881
23.6881
23.688
23.688
23.688
23.688
23.6879
23.6879
23.6879
23.6878
23.6878
23.6878
23.6878
23.6877
23.6877
23.6877
23.6877
23.6877
23.7263
23.7263
23.7263
23.7263
23.7263
23.7263
23.7263
23.7264
23.7264
23.7264
23.7265
23.7265
23.7265
23.7266
23.7266
23.7266
23.7266